/*--------------------------------*- C++ -*----------------------------------*\
| =========                 |                                                 |
| \\      /  F ield         | OpenFOAM: The Open Source CFD Toolbox           |
|  \\    /   O peration     | Version:  2412                                  |
|   \\  /    A nd           | Website:  www.openfoam.com                      |
|    \\/     M anipulation  |                                                 |
\*---------------------------------------------------------------------------*/
FoamFile
{
    version     2.0;
    format      ascii;
    arch        "LSB;label=32;scalar=64";
    class       volVectorField;
    location    "22";
    object      U;
}
// * * * * * * * * * * * * * * * * * * * * * * * * * * * * * * * * * * * * * //

dimensions      [0 1 -1 0 0 0 0];

internalField   nonuniform List<vector> 
63420
(
(0.0999997 4.36989e-07 0)
(0.099995 1.30031e-06 0)
(0.0999851 2.15241e-06 0)
(0.0999708 2.99618e-06 0)
(0.0999521 3.83211e-06 0)
(0.0999294 4.66496e-06 0)
(0.0999027 5.52054e-06 0)
(0.0998721 6.45946e-06 0)
(0.099837 7.57226e-06 0)
(0.0997965 8.95126e-06 0)
(0.0997495 1.06503e-05 0)
(0.0996945 1.26529e-05 0)
(0.0996306 1.48648e-05 0)
(0.0995576 1.71342e-05 0)
(0.0994759 1.92908e-05 0)
(0.0993868 2.11864e-05 0)
(0.099292 2.27256e-05 0)
(0.0991933 2.38779e-05 0)
(0.0990926 2.46728e-05 0)
(0.0989913 2.51833e-05 0)
(0.0988904 2.5505e-05 0)
(0.0987904 2.57364e-05 0)
(0.0986915 2.59651e-05 0)
(0.0985937 2.62591e-05 0)
(0.0984964 2.66654e-05 0)
(0.0983994 2.72109e-05 0)
(0.0983021 2.7907e-05 0)
(0.098204 2.87536e-05 0)
(0.0981046 2.97439e-05 0)
(0.0980037 3.0868e-05 0)
(0.0979009 3.2115e-05 0)
(0.097796 3.34753e-05 0)
(0.0976886 3.49407e-05 0)
(0.0975787 3.65055e-05 0)
(0.0974661 3.81659e-05 0)
(0.0973506 3.99199e-05 0)
(0.0972323 4.17673e-05 0)
(0.0971108 4.3709e-05 0)
(0.0969862 4.5747e-05 0)
(0.0968583 4.78838e-05 0)
(0.0967271 5.01229e-05 0)
(0.0965925 5.24679e-05 0)
(0.0964543 5.49229e-05 0)
(0.0963126 5.74921e-05 0)
(0.0961671 6.01801e-05 0)
(0.0960178 6.29918e-05 0)
(0.0958646 6.5932e-05 0)
(0.0957074 6.9006e-05 0)
(0.0955461 7.22194e-05 0)
(0.0953806 7.55782e-05 0)
(0.0952109 7.9089e-05 0)
(0.0950367 8.27606e-05 0)
(0.0948581 8.66069e-05 0)
(0.0946748 9.06578e-05 0)
(0.0944867 9.49896e-05 0)
(0.0999997 1.31084e-06 0)
(0.099995 3.90022e-06 0)
(0.0999851 6.45594e-06 0)
(0.0999708 8.98674e-06 0)
(0.0999522 1.14942e-05 0)
(0.0999295 1.39926e-05 0)
(0.0999028 1.65589e-05 0)
(0.0998722 1.93741e-05 0)
(0.0998371 2.27086e-05 0)
(0.0997967 2.68384e-05 0)
(0.0997497 3.19249e-05 0)
(0.0996948 3.79193e-05 0)
(0.0996311 4.4541e-05 0)
(0.0995582 5.13374e-05 0)
(0.0994768 5.77996e-05 0)
(0.0993879 6.34852e-05 0)
(0.0992932 6.81084e-05 0)
(0.0991947 7.15772e-05 0)
(0.0990941 7.39787e-05 0)
(0.0989929 7.55302e-05 0)
(0.0988921 7.65163e-05 0)
(0.0987921 7.7231e-05 0)
(0.0986933 7.79351e-05 0)
(0.0985955 7.88326e-05 0)
(0.0984983 8.00635e-05 0)
(0.0984012 8.1709e-05 0)
(0.0983039 8.3803e-05 0)
(0.0982058 8.63459e-05 0)
(0.0981065 8.93179e-05 0)
(0.0980057 9.26892e-05 0)
(0.097903 9.64283e-05 0)
(0.0977981 0.000100506 0)
(0.0976908 0.000104898 0)
(0.097581 0.000109588 0)
(0.0974686 0.000114565 0)
(0.0973533 0.000119821 0)
(0.097235 0.000125358 0)
(0.0971137 0.000131177 0)
(0.0969893 0.000137284 0)
(0.0968617 0.000143688 0)
(0.0967307 0.000150397 0)
(0.0965963 0.000157424 0)
(0.0964584 0.00016478 0)
(0.0963169 0.000172478 0)
(0.0961716 0.000180532 0)
(0.0960226 0.000188956 0)
(0.0958698 0.000197764 0)
(0.0957129 0.000206973 0)
(0.095552 0.000216599 0)
(0.0953869 0.00022666 0)
(0.0952175 0.000237175 0)
(0.0950438 0.000248171 0)
(0.0948656 0.000259688 0)
(0.0946829 0.000271814 0)
(0.0944953 0.000284773 0)
(0.0999997 2.18382e-06 0)
(0.099995 6.49733e-06 0)
(0.0999852 1.07549e-05 0)
(0.0999708 1.49709e-05 0)
(0.0999522 1.91482e-05 0)
(0.0999296 2.33104e-05 0)
(0.0999029 2.7585e-05 0)
(0.0998724 3.22718e-05 0)
(0.0998374 3.78194e-05 0)
(0.0997971 4.4686e-05 0)
(0.0997502 5.31409e-05 0)
(0.0996955 6.31053e-05 0)
(0.0996321 7.41154e-05 0)
(0.0995596 8.54218e-05 0)
(0.0994785 9.61801e-05 0)
(0.0993899 0.000105655 0)
(0.0992957 0.000113371 0)
(0.0991975 0.000119172 0)
(0.0990972 0.0001232 0)
(0.0989962 0.000125813 0)
(0.0988954 0.000127483 0)
(0.0987956 0.000128698 0)
(0.0986968 0.000129888 0)
(0.098599 0.000131395 0)
(0.0985018 0.000133452 0)
(0.0984048 0.000136194 0)
(0.0983076 0.000139678 0)
(0.0982095 0.000143907 0)
(0.0981103 0.000148848 0)
(0.0980096 0.000154452 0)
(0.097907 0.000160668 0)
(0.0978023 0.000167448 0)
(0.0976953 0.000174751 0)
(0.0975857 0.000182549 0)
(0.0974735 0.000190824 0)
(0.0973585 0.000199566 0)
(0.0972406 0.000208774 0)
(0.0971196 0.000218452 0)
(0.0969956 0.000228609 0)
(0.0968683 0.000239259 0)
(0.0967378 0.000250417 0)
(0.0966038 0.000262103 0)
(0.0964664 0.000274336 0)
(0.0963254 0.000287137 0)
(0.0961808 0.000300528 0)
(0.0960324 0.000314534 0)
(0.0958801 0.000329178 0)
(0.0957239 0.000344486 0)
(0.0955637 0.000360486 0)
(0.0953994 0.000377206 0)
(0.0952309 0.000394679 0)
(0.095058 0.000412948 0)
(0.0948808 0.000432077 0)
(0.094699 0.000452206 0)
(0.0945125 0.000473689 0)
(0.0999997 3.05534e-06 0)
(0.099995 9.08975e-06 0)
(0.0999852 1.50462e-05 0)
(0.0999709 2.09444e-05 0)
(0.0999523 2.67887e-05 0)
(0.0999297 3.2612e-05 0)
(0.0999031 3.85908e-05 0)
(0.0998726 4.51415e-05 0)
(0.0998377 5.28878e-05 0)
(0.0997976 6.24686e-05 0)
(0.099751 7.42609e-05 0)
(0.0996966 8.81597e-05 0)
(0.0996336 0.000103523 0)
(0.0995616 0.000119312 0)
(0.099481 0.00013435 0)
(0.099393 0.000147614 0)
(0.0992993 0.000158435 0)
(0.0992016 0.000166593 0)
(0.0991016 0.00017228 0)
(0.0990009 0.00017599 0)
(0.0989004 0.000178376 0)
(0.0988007 0.000180116 0)
(0.098702 0.000181812 0)
(0.0986043 0.000183938 0)
(0.0985071 0.000186822 0)
(0.0984102 0.000190654 0)
(0.098313 0.000195516 0)
(0.098215 0.000201414 0)
(0.098116 0.000208303 0)
(0.0980154 0.000216117 0)
(0.097913 0.000224785 0)
(0.0978086 0.00023424 0)
(0.0977019 0.000244427 0)
(0.0975927 0.000255307 0)
(0.0974808 0.000266853 0)
(0.0973663 0.000279051 0)
(0.0972488 0.0002919 0)
(0.0971284 0.000305406 0)
(0.0970049 0.00031958 0)
(0.0968783 0.000334443 0)
(0.0967484 0.000350015 0)
(0.0966151 0.000366322 0)
(0.0964785 0.000383391 0)
(0.0963383 0.000401251 0)
(0.0961944 0.000419934 0)
(0.0960469 0.00043947 0)
(0.0958956 0.000459896 0)
(0.0957405 0.000481245 0)
(0.0955813 0.000503554 0)
(0.0954181 0.000526864 0)
(0.0952508 0.00055122 0)
(0.0950793 0.000576676 0)
(0.0949034 0.000603319 0)
(0.0947231 0.000631329 0)
(0.0945382 0.000661159 0)
(0.0999997 3.9249e-06 0)
(0.099995 1.16756e-05 0)
(0.0999852 1.9327e-05 0)
(0.099971 2.6903e-05 0)
(0.0999525 3.44104e-05 0)
(0.0999299 4.18906e-05 0)
(0.0999034 4.95681e-05 0)
(0.099873 5.79722e-05 0)
(0.0998382 6.7898e-05 0)
(0.0997983 8.0162e-05 0)
(0.099752 9.525e-05 0)
(0.099698 0.000113035 0)
(0.0996355 0.000132704 0)
(0.0995641 0.000152937 0)
(0.0994843 0.000172234 0)
(0.099397 0.000189285 0)
(0.099304 0.00020323 0)
(0.0992069 0.000213778 0)
(0.0991074 0.000221166 0)
(0.0990071 0.000226019 0)
(0.0989069 0.000229164 0)
(0.0988074 0.000231464 0)
(0.0987088 0.00023369 0)
(0.0986112 0.000236448 0)
(0.0985141 0.00024016 0)
(0.0984172 0.000245074 0)
(0.0983201 0.000251297 0)
(0.0982223 0.00025884 0)
(0.0981234 0.000267649 0)
(0.0980231 0.000277642 0)
(0.097921 0.000288727 0)
(0.0978169 0.000300822 0)
(0.0977106 0.000313856 0)
(0.0976019 0.000327779 0)
(0.0974906 0.000342556 0)
(0.0973766 0.000358171 0)
(0.0972598 0.000374621 0)
(0.0971401 0.000391911 0)
(0.0970173 0.000410059 0)
(0.0968915 0.000429087 0)
(0.0967625 0.000449023 0)
(0.0966301 0.000469898 0)
(0.0964944 0.000491747 0)
(0.0963553 0.000514607 0)
(0.0962126 0.000538515 0)
(0.0960662 0.000563514 0)
(0.0959162 0.000589646 0)
(0.0957624 0.000616954 0)
(0.0956046 0.000645485 0)
(0.095443 0.000675289 0)
(0.0952772 0.00070642 0)
(0.0951074 0.000738946 0)
(0.0949333 0.000772968 0)
(0.094755 0.00080869 0)
(0.0945722 0.000846622 0)
(0.0999997 4.79211e-06 0)
(0.0999951 1.4253e-05 0)
(0.0999853 2.35942e-05 0)
(0.0999711 3.28427e-05 0)
(0.0999526 4.20079e-05 0)
(0.0999301 5.11401e-05 0)
(0.0999038 6.05091e-05 0)
(0.0998735 7.07535e-05 0)
(0.0998389 8.28348e-05 0)
(0.0997991 9.7744e-05 0)
(0.0997532 0.000116076 0)
(0.0996997 0.000137687 0)
(0.0996379 0.000161604 0)
(0.0995672 0.000186234 0)
(0.0994882 0.000209763 0)
(0.0994018 0.000230597 0)
(0.0993096 0.000247686 0)
(0.0992133 0.000260665 0)
(0.0991144 0.000269807 0)
(0.0990146 0.000275858 0)
(0.0989147 0.000279814 0)
(0.0988155 0.000282717 0)
(0.0987171 0.000285503 0)
(0.0986196 0.000288909 0)
(0.0985226 0.000293451 0)
(0.0984258 0.000299435 0)
(0.0983289 0.000306998 0)
(0.0982313 0.000316156 0)
(0.0981326 0.00032685 0)
(0.0980326 0.00033898 0)
(0.0979309 0.00035244 0)
(0.0978273 0.000367129 0)
(0.0977215 0.000382964 0)
(0.0976133 0.000399882 0)
(0.0975027 0.000417842 0)
(0.0973894 0.000436824 0)
(0.0972734 0.000456821 0)
(0.0971546 0.000477842 0)
(0.0970328 0.000499907 0)
(0.0969079 0.000523041 0)
(0.0967799 0.000547278 0)
(0.0966488 0.000572654 0)
(0.0965143 0.000599212 0)
(0.0963764 0.000626994 0)
(0.0962351 0.000656047 0)
(0.0960902 0.000686419 0)
(0.0959417 0.000718161 0)
(0.0957896 0.000751325 0)
(0.0956336 0.000785966 0)
(0.0954738 0.000822142 0)
(0.0953101 0.000859917 0)
(0.0951423 0.000899364 0)
(0.0949705 0.000940594 0)
(0.0947946 0.000983814 0)
(0.0946144 0.00102954 0)
(0.0999997 5.65627e-06 0)
(0.0999951 1.68206e-05 0)
(0.0999853 2.78449e-05 0)
(0.0999712 3.87593e-05 0)
(0.0999528 4.95762e-05 0)
(0.0999304 6.03539e-05 0)
(0.0999042 7.14059e-05 0)
(0.099874 8.34752e-05 0)
(0.0998396 9.76843e-05 0)
(0.0998002 0.000115195 0)
(0.0997546 0.000136711 0)
(0.0997017 0.000162079 0)
(0.0996406 0.000190176 0)
(0.0995708 0.000219148 0)
(0.0994928 0.000246876 0)
(0.0994074 0.000271489 0)
(0.0993161 0.000291746 0)
(0.0992206 0.000307201 0)
(0.0991225 0.000318155 0)
(0.0990232 0.000325468 0)
(0.0989238 0.000330294 0)
(0.0988249 0.000333849 0)
(0.0987267 0.000337227 0)
(0.0986293 0.000341298 0)
(0.0985325 0.000346671 0)
(0.0984359 0.000353712 0)
(0.0983391 0.00036259 0)
(0.0982418 0.000373328 0)
(0.0981435 0.000385863 0)
(0.0980439 0.000400084 0)
(0.0979426 0.000415868 0)
(0.0978395 0.000433098 0)
(0.0977344 0.000451677 0)
(0.0976269 0.000471533 0)
(0.0975171 0.000492618 0)
(0.0974047 0.000514905 0)
(0.0972896 0.000538388 0)
(0.0971718 0.000563075 0)
(0.0970511 0.000588988 0)
(0.0969275 0.000616156 0)
(0.0968008 0.000644618 0)
(0.0966709 0.000674415 0)
(0.0965379 0.000705595 0)
(0.0964016 0.000738207 0)
(0.0962619 0.000772306 0)
(0.0961188 0.000807946 0)
(0.0959722 0.000845184 0)
(0.0958219 0.000884081 0)
(0.0956681 0.000924698 0)
(0.0955105 0.000967101 0)
(0.0953491 0.00101136 0)
(0.0951838 0.00105755 0)
(0.0950147 0.00110579 0)
(0.0948416 0.00115625 0)
(0.0946645 0.00120934 0)
(0.0942927 9.98219e-05 -4.47782e-24)
(0.0940908 0.000104924 -4.56565e-24)
(0.0938791 0.000110379 -3.17317e-26)
(0.0936569 0.000116203 1.4031e-23)
(0.0934236 0.000122424 -4.6476e-24)
(0.0931784 0.000129078 -4.78439e-24)
(0.0929205 0.000136205 -1.47351e-23)
(0.092649 0.000143848 1.46304e-23)
(0.0923628 0.000152056 5.00726e-24)
(0.0920611 0.000160883 0)
(0.0917425 0.000170389 5.17454e-24)
(0.0914058 0.000180642 -5.26453e-24)
(0.0910496 0.00019172 4.33164e-23)
(0.0906724 0.000203707 -9.2842e-23)
(0.0902723 0.0002167 4.96292e-23)
(0.0898476 0.000230809 4.02296e-23)
(0.0893962 0.000246155 5.16226e-23)
(0.0889156 0.00026288 -5.91298e-24)
(0.0884032 0.000281143 6.04276e-24)
(0.0878563 0.000301127 -6.17999e-24)
(0.0872715 0.000323041 0)
(0.0866451 0.000347129 6.47916e-24)
(0.0859732 0.00037367 -6.6424e-24)
(0.0852509 0.00040299 0)
(0.0844731 0.000435474 -7e-24)
(0.0836337 0.000471571 0)
(0.0827259 0.000511815 -7.40503e-24)
(0.0817418 0.000556843 -1.24102e-22)
(0.0806723 0.000607418 1.31779e-22)
(0.0795067 0.000664458 -1.32283e-22)
(0.0782328 0.00072908 1.32082e-22)
(0.0768358 0.000802643 0)
(0.0752988 0.000886809 0)
(0.0736012 0.000983616 1.61854e-22)
(0.0717187 0.00109556 -1.52287e-22)
(0.0696222 0.00122566 0)
(0.0672765 0.00137756 0)
(0.0646399 0.00155545 0)
(0.0616625 0.00176398 0)
(0.0582863 0.00200778 0)
(0.0544454 0.00229053 0)
(0.0500691 0.0026132 0)
(0.0450883 0.00297107 0)
(0.0394487 0.00334905 0)
(0.0331351 0.00371455 -1.49121e-23)
(0.0262103 0.00400742 -5.11543e-22)
(0.0188579 0.00412773 5.10776e-22)
(0.0114543 0.0039228 5.54766e-22)
(0.00490333 0.00315818 -5.53934e-22)
(0.000999439 0.0014679 0)
(0.0943017 0.00029923 -4.53052e-24)
(0.0941 0.000314527 -9.24203e-24)
(0.0938885 0.000330853 -4.84632e-24)
(0.0936666 0.000348282 4.51209e-24)
(0.0934336 0.000366905 -4.71271e-24)
(0.0931887 0.000386826 3.37797e-23)
(0.0929312 0.000408163 -5.30512e-23)
(0.0926601 0.000431047 4.9283e-24)
(0.0923744 0.000455623 6.57943e-23)
(0.0920732 0.000482053 -9.0869e-23)
(0.0917552 0.000510521 -8.8763e-23)
(0.0914192 0.00054123 7.82149e-23)
(0.0910638 0.000574408 0)
(0.0906874 0.000610312 5.46401e-24)
(0.0902883 0.000649232 -1.6701e-23)
(0.0898647 0.000691495 -1.89443e-22)
(0.0894144 0.00073747 1.81844e-22)
(0.0889352 0.000787576 -1.93306e-22)
(0.0884244 0.000842293 -1.81545e-23)
(0.0878793 0.00090217 6.19355e-24)
(0.0872964 0.000967836 0)
(0.0866724 0.00104002 -6.49594e-24)
(0.086003 0.00111955 -2.0937e-22)
(0.0852837 0.00120742 4.37553e-22)
(0.0845093 0.00130478 2.41422e-22)
(0.083674 0.00141296 -4.55305e-22)
(0.0827708 0.00153357 4.9038e-22)
(0.0817922 0.00166853 -4.97597e-22)
(0.0807291 0.00182009 -7.89709e-24)
(0.0795711 0.00199103 0)
(0.0783063 0.00218466 0)
(0.0769205 0.00240505 0)
(0.0753969 0.00265714 0)
(0.073716 0.00294701 -9.38085e-24)
(0.0718542 0.00328207 -6.36024e-22)
(0.0697837 0.00367129 -2.67783e-23)
(0.0674709 0.00412541 6.61079e-22)
(0.064876 0.00465684 7.19635e-22)
(0.0619519 0.00527923 -7.18681e-22)
(0.0586436 0.00600608 -2.38587e-23)
(0.0548886 0.00684795 -2.49139e-23)
(0.0506195 0.00780716 -8.58565e-22)
(0.0457691 0.00886897 8.30291e-22)
(0.0402822 0.00998756 -2.82699e-23)
(0.0341359 0.0110652 1.50163e-23)
(0.0273731 0.0119224 -1.04019e-21)
(0.0201412 0.0122616 1.03981e-21)
(0.0127546 0.0116291 -2.16912e-21)
(0.00599466 0.00933797 2.13285e-21)
(0.00144278 0.00430889 -2.18522e-21)
(0.0943197 0.000497644 -2.6798e-23)
(0.0941184 0.000523063 -9.40755e-24)
(0.0939073 0.000550165 3.62773e-23)
(0.093686 0.000579096 -7.46456e-23)
(0.0934535 0.000610011 1.59738e-22)
(0.0932093 0.000643084 -7.56764e-23)
(0.0929525 0.00067851 1.418e-26)
(0.0926823 0.000716508 9.82921e-24)
(0.0923977 0.000757321 1.71426e-22)
(0.0920975 0.000801219 -1.61254e-22)
(0.0917808 0.000848506 0)
(0.0914462 0.000899522 1.45772e-26)
(0.0910924 0.000954647 0)
(0.0907178 0.00101431 1.87697e-22)
(0.0903207 0.00107899 -1.65448e-22)
(0.0898993 0.00114923 -3.56778e-22)
(0.0894515 0.00122566 1.98656e-23)
(0.0889751 0.00130895 -3.75701e-22)
(0.0884675 0.00139993 1.21478e-23)
(0.0879259 0.00149949 -4.02548e-22)
(0.0873472 0.00160869 4.14881e-22)
(0.0867278 0.00172874 -4.22854e-22)
(0.0860638 0.00186103 4.35818e-22)
(0.0853506 0.00200719 1.37184e-23)
(0.0845833 0.00216913 -1.40955e-23)
(0.0837561 0.0023491 1.44961e-23)
(0.0828625 0.00254976 -4.85614e-22)
(0.081895 0.00277425 5.00564e-22)
(0.080845 0.00302637 5.32647e-22)
(0.0797027 0.00331067 -5.16299e-22)
(0.0784566 0.00363265 0)
(0.0770933 0.003999 0)
(0.0755973 0.00441788 1.81403e-23)
(0.0739502 0.00489922 1.24989e-21)
(0.0721304 0.00545515 2.98321e-23)
(0.0701125 0.00610029 -1.25778e-21)
(0.0678661 0.00685204 0)
(0.0653555 0.00773038 -2.19675e-23)
(0.0625388 0.00875707 1.52938e-21)
(0.0593672 0.00995331 -3.05271e-21)
(0.0557849 0.011335 3.23522e-21)
(0.051731 0.012904 9.68714e-23)
(0.0471426 0.0146338 -1.68007e-21)
(0.0419619 0.0164463 -1.81735e-21)
(0.0361502 0.0181788 1.87294e-21)
(0.0297105 0.0195364 1.44589e-24)
(0.0227159 0.0200306 -3.18204e-23)
(0.0153581 0.0189169 2.09598e-21)
(0.00816014 0.0151016 -2.02961e-21)
(0.00229469 0.0069033 -2.03015e-21)
(0.0943466 0.000694382 1.76557e-23)
(0.0941459 0.00072976 -8.961e-24)
(0.0939355 0.000767472 1.94901e-26)
(0.0937149 0.000807723 9.22329e-24)
(0.0934834 0.000850735 -1.95968e-26)
(0.0932403 0.000896751 1.53283e-22)
(0.0929847 0.000946047 -2.89671e-22)
(0.0927159 0.000998928 1.55692e-22)
(0.0924328 0.00105574 -9.96969e-24)
(0.0921344 0.00111685 1.84311e-22)
(0.0918197 0.00118269 -1.63945e-22)
(0.0914873 0.00125373 -3.40337e-22)
(0.091136 0.00133051 6.87243e-22)
(0.0907641 0.00141362 -7.00892e-22)
(0.0903701 0.00150374 7.152e-22)
(0.0899522 0.00160162 -7.18885e-22)
(0.0895084 0.00170812 -3.80608e-22)
(0.0890364 0.00182423 2.25015e-26)
(0.0885338 0.00195105 0)
(0.0879979 0.00208987 -3.92005e-22)
(0.0874256 0.00224214 4.0431e-22)
(0.0868135 0.00240955 0)
(0.0861578 0.00259406 -8.73439e-22)
(0.0854542 0.00279794 8.59266e-22)
(0.0846979 0.00302385 1.42296e-23)
(0.0838835 0.00327492 -3.70577e-26)
(0.0830047 0.00355484 1.50409e-23)
(0.0820546 0.00386801 0)
(0.0810252 0.00421969 -5.31381e-26)
(0.0799072 0.00461617 0)
(0.0786901 0.00506506 -1.70755e-23)
(0.0773619 0.00557557 1.15457e-21)
(0.0759084 0.00615888 -1.15426e-21)
(0.0743135 0.00682861 -1.90913e-23)
(0.0725582 0.00760121 3.95114e-23)
(0.0706209 0.00849646 -1.36174e-21)
(0.0684758 0.00953768 1.31941e-21)
(0.0660936 0.0107514 2.23474e-23)
(0.06344 0.0121661 -3.55844e-25)
(0.0604752 0.0138087 2.38234e-23)
(0.0571538 0.0156981 -1.63516e-21)
(0.0534246 0.0178329 3.3049e-21)
(0.0492305 0.0201718 -1.72249e-21)
(0.0445105 0.0226031 1.78015e-21)
(0.0392023 0.0249003 -1.86359e-21)
(0.033248 0.0266609 -3.70113e-21)
(0.0266045 0.0272229 7.55056e-21)
(0.0192793 0.025568 -3.82236e-21)
(0.0114446 0.0202336 0)
(0.00356007 0.00914009 -3.59522e-21)
(0.0943822 0.00088879 -8.75679e-24)
(0.0941823 0.000933908 -3.57801e-23)
(0.0939729 0.00098199 1.08481e-22)
(0.0937535 0.0010333 -1.465e-22)
(0.0935233 0.00108814 6.4528e-23)
(0.0932817 0.00114681 9.46546e-24)
(0.0930279 0.00120968 -9.62544e-24)
(0.0927611 0.00127712 -2.46152e-26)
(0.0924802 0.0013496 9.96777e-24)
(0.0921844 0.00142757 -2.02776e-23)
(0.0918725 0.0015116 -3.33763e-22)
(0.0915432 0.00160228 3.44458e-22)
(0.0911954 0.0017003 -3.36559e-22)
(0.0908274 0.00180642 3.47423e-22)
(0.0904379 0.0019215 0)
(0.0900249 0.00204651 -2.48148e-26)
(0.0895866 0.00218255 0)
(0.0891209 0.00233088 -3.75695e-22)
(0.0886253 0.00249292 4.00107e-22)
(0.0880974 0.0026703 -1.25772e-23)
(0.0875341 0.00286489 -8.48023e-22)
(0.0869323 0.00307886 8.35506e-22)
(0.0862884 0.00331469 -1.35938e-23)
(0.0855983 0.00357529 0)
(0.0848576 0.00386406 0)
(0.0840612 0.00418499 -9.75027e-22)
(0.0832034 0.00454277 9.45405e-22)
(0.0822778 0.00494301 0)
(0.0812771 0.00539234 -3.24456e-23)
(0.0801932 0.00589875 0)
(0.0790168 0.0064718 1.73751e-23)
(0.0777374 0.00712305 -1.79054e-23)
(0.0763431 0.00786648 -1.86503e-23)
(0.0748205 0.00871894 1.92201e-23)
(0.0731544 0.00970073 1.26471e-21)
(0.0713277 0.010836 -1.30532e-21)
(0.0693215 0.012153 2.83695e-21)
(0.0671141 0.0136832 -2.83876e-21)
(0.0646816 0.01546 3.01213e-21)
(0.0619964 0.0175136 8.58233e-23)
(0.0590267 0.0198628 -3.17332e-21)
(0.055734 0.0224999 -2.53317e-23)
(0.0520696 0.0253665 1.256e-24)
(0.0479688 0.0283166 1.66129e-24)
(0.0433407 0.0310654 2.1907e-24)
(0.0380511 0.0331175 -5.4766e-23)
(0.0319011 0.0336693 -2.51353e-23)
(0.0246399 0.0314685 -2.39069e-23)
(0.0159824 0.0246986 0)
(0.00526247 0.0110124 7.41461e-24)
(0.0944264 0.00108025 -4.34552e-23)
(0.0942275 0.00113488 2.61399e-23)
(0.0940195 0.00119311 8.94654e-24)
(0.0938017 0.00125528 1.3737e-22)
(0.0935734 0.00132173 -1.3742e-22)
(0.093334 0.00139286 1.42221e-22)
(0.0930826 0.00146911 -3.15724e-22)
(0.0928185 0.00155094 4.49587e-22)
(0.0925407 0.0016389 -3.14934e-22)
(0.0922482 0.00173357 -3.2682e-22)
(0.0919401 0.00183562 -1.64659e-23)
(0.0916151 0.00194578 6.63859e-22)
(0.0912719 0.00206489 -6.99396e-22)
(0.0909093 0.00219388 3.26238e-22)
(0.0905256 0.0023338 3.52204e-22)
(0.0901193 0.00248582 3.68322e-22)
(0.0896884 0.00265131 -2.84952e-23)
(0.089231 0.00283178 7.5067e-22)
(0.0887449 0.00302898 7.75473e-22)
(0.0882277 0.0032449 1.9721e-23)
(0.0876765 0.00348182 -8.22258e-22)
(0.0870885 0.00374238 0)
(0.0864603 0.00402961 0)
(0.0857884 0.00434707 -9.1716e-22)
(0.0850685 0.00469888 9.03987e-22)
(0.0842961 0.00508989 9.7405e-22)
(0.0834663 0.00552582 -9.75493e-22)
(0.0825733 0.00601342 0)
(0.081611 0.00656072 1.08934e-21)
(0.0805724 0.00717731 -1.09144e-21)
(0.0794499 0.00787464 0)
(0.0782351 0.00866643 -2.36228e-21)
(0.0769186 0.00956913 2.38416e-21)
(0.0754907 0.0106024 -1.9705e-23)
(0.0739407 0.0117896 -2.63545e-21)
(0.0722577 0.0131581 2.65991e-21)
(0.0704302 0.014739 0)
(0.068447 0.0165665 2.9846e-21)
(0.0662964 0.0186744 -2.96619e-21)
(0.0639663 0.0210913 2.40266e-23)
(0.0614416 0.0238289 3.27094e-21)
(0.0587006 0.0268653 -6.56136e-21)
(0.0557068 0.0301168 1.99768e-23)
(0.0523947 0.033398 3.73151e-23)
(0.0486461 0.0363676 3.40111e-21)
(0.0442474 0.0384579 3.7798e-24)
(0.0388278 0.0387727 -2.92095e-21)
(0.0318059 0.0359238 2.99442e-21)
(0.0222088 0.0278998 0)
(0.00764763 0.0122315 2.6748e-23)
(0.094479 0.00126793 8.55762e-24)
(0.0942818 0.00133154 7.88561e-23)
(0.0940757 0.00139943 -7.03236e-23)
(0.0938602 0.00147197 9.03013e-24)
(0.0936345 0.00154958 1.38844e-22)
(0.093398 0.00163272 -1.39063e-22)
(0.0931498 0.00172189 -2.98038e-22)
(0.0928893 0.00181767 4.40378e-24)
(0.0926156 0.00192067 -5.59811e-24)
(0.0923277 0.00203161 3.31125e-22)
(0.0920246 0.00215127 -3.23549e-22)
(0.0917051 0.00228051 6.86625e-22)
(0.0913682 0.00242033 -3.42161e-22)
(0.0910126 0.00257184 1.10629e-23)
(0.0906367 0.00273628 1.13231e-23)
(0.090239 0.00291506 7.49184e-22)
(0.089818 0.00310979 -5.02938e-24)
(0.0893716 0.00332229 7.82179e-22)
(0.088898 0.00355464 1.2505e-23)
(0.0883948 0.00380919 0)
(0.0878596 0.00408869 0)
(0.0872898 0.00439627 -8.78544e-22)
(0.0866825 0.00473556 8.80764e-22)
(0.0860343 0.00511079 0)
(0.0853419 0.00552688 1.48233e-23)
(0.0846013 0.00598961 0)
(0.0838083 0.00650578 -1.02393e-21)
(0.0829584 0.0070834 2.08473e-21)
(0.0820465 0.00773197 -1.06087e-21)
(0.0810674 0.00846279 -2.24839e-21)
(0.0800154 0.00928927 -7.5413e-23)
(0.0788846 0.0102274 -7.9515e-23)
(0.077669 0.011296 -8.3515e-23)
(0.0763627 0.0125174 2.52754e-21)
(0.0749606 0.0139177 2.71131e-21)
(0.0734582 0.0155263 -2.71776e-21)
(0.0718529 0.0173757 0)
(0.0701441 0.019499 3.00584e-21)
(0.0683337 0.0219258 -3.01283e-21)
(0.0664256 0.0246739 -3.19761e-21)
(0.0644232 0.0277356 3.18e-21)
(0.0623233 0.0310568 2.59868e-23)
(0.060105 0.034506 3.19332e-21)
(0.0577086 0.0378337 -1.04969e-22)
(0.0550016 0.0406221 -3.15417e-21)
(0.0517164 0.0422339 2.40701e-23)
(0.0473612 0.0417485 0)
(0.041108 0.0378365 -1.91896e-23)
(0.0311446 0.0286908 -9.17991e-22)
(0.0123201 0.0121684 4.21912e-22)
(-0.000222227 0.000300153 0)
(-0.000962484 0.000567152 3.1913e-22)
(-0.00205557 0.000625682 -3.1961e-22)
(-0.00314441 0.000568896 -3.18118e-22)
(-0.00405533 0.000448221 3.18597e-22)
(-0.00471545 0.000294391 -9.79422e-24)
(-0.00508688 0.000126407 0)
(-0.00515388 -4.41968e-05 0)
(-0.00491978 -0.000212407 0)
(-0.00439439 -0.000373736 0)
(-0.00358899 -0.000525524 0)
(-0.00251963 -0.000666815 0)
(-0.00120415 -0.000797 0)
(0.000338683 -0.000915717 0)
(0.00208946 -0.00102288 0)
(0.00402856 -0.00111861 9.64578e-23)
(0.00613646 -0.00120306 -9.07685e-23)
(0.00839381 -0.00127644 0)
(0.0107815 -0.00133908 0)
(0.0132808 -0.00139132 -6.78754e-23)
(0.0158737 -0.00143358 6.79791e-23)
(0.0185428 -0.00146625 -5.09011e-23)
(0.0212708 -0.00148974 3.23554e-24)
(0.0240416 -0.00150447 0)
(0.0268395 -0.00151096 2.48942e-24)
(0.0296499 -0.0015098 0)
(0.032459 -0.00150161 0)
(0.0352541 -0.00148696 0)
(0.0380234 -0.00146646 1.26635e-24)
(0.0407564 -0.00144067 0)
(0.0434433 -0.00141019 -7.96019e-25)
(0.0460754 -0.00137557 5.95148e-25)
(0.0486451 -0.0013374 -4.16071e-25)
(0.0511457 -0.0012962 1.67053e-24)
(0.0535715 -0.0012525 -1.534e-24)
(0.0559178 -0.00120681 5.01402e-25)
(0.0581809 -0.0011596 -1.6591e-24)
(0.0603576 -0.00111132 1.26227e-24)
(0.062446 -0.00106239 2.66097e-25)
(0.0644447 -0.0010132 -3.26777e-25)
(0.0663531 -0.000964101 0)
(0.0681711 -0.000915411 -4.14784e-25)
(0.0698995 -0.00086742 2.28606e-24)
(0.0715394 -0.00082038 -2.31082e-24)
(0.0730924 -0.00077451 4.81519e-25)
(0.0745606 -0.000729998 -1.48305e-24)
(0.0759464 -0.000686998 4.99186e-25)
(0.0772525 -0.00064563 9.90309e-25)
(0.0784819 -0.000605981 -4.96425e-25)
(0.0796376 -0.000568101 4.84593e-25)
(-0.000287777 0.0008628 -1.21124e-21)
(-0.00107091 0.00162435 -1.32412e-21)
(-0.00206484 0.00179143 1.3052e-21)
(-0.00299919 0.00162591 -6.25921e-22)
(-0.00374278 0.00127452 6.27018e-22)
(-0.00424128 0.000826213 9.86218e-24)
(-0.00446619 0.000335817 -1.95055e-23)
(-0.0044077 -0.000163067 -6.13562e-22)
(-0.00406972 -0.000655685 5.95351e-22)
(-0.00345937 -0.00112938 -1.7765e-23)
(-0.00258738 -0.00157567 -1.70493e-23)
(-0.00146842 -0.00199187 5.03826e-22)
(-0.000118138 -0.00237602 -5.04496e-22)
(0.00144656 -0.00272676 -4.49208e-22)
(0.0032078 -0.00304398 2.91845e-23)
(0.0051475 -0.00332775 4.21182e-22)
(0.0072476 -0.00357839 -5.86459e-24)
(0.00948997 -0.00379651 -1.0986e-23)
(0.0118566 -0.00398292 0)
(0.0143299 -0.00413864 0)
(0.0168926 -0.0042648 0)
(0.0195279 -0.0043626 -3.6522e-24)
(0.0222198 -0.00443318 1.87056e-22)
(0.0249521 -0.0044778 -2.03076e-22)
(0.0277103 -0.00449798 1.47724e-22)
(0.0304801 -0.00449539 -8.59241e-23)
(0.033248 -0.00447183 -1.19219e-22)
(0.0360018 -0.00442906 5.47072e-23)
(0.0387301 -0.0043688 -1.26961e-24)
(0.0414225 -0.00429276 -2.14241e-24)
(0.0440695 -0.00420268 7.97754e-25)
(0.0466628 -0.00410023 -1.87384e-24)
(0.0491947 -0.00398709 1.07033e-23)
(0.0516589 -0.00386488 -1.78796e-23)
(0.0540496 -0.00373515 6.23075e-24)
(0.0563624 -0.00359942 -5.70448e-26)
(0.0585933 -0.0034591 -1.04861e-25)
(0.0607396 -0.00331553 0)
(0.0627991 -0.00316997 4.84092e-24)
(0.0647705 -0.00302357 -4.30084e-24)
(0.0666532 -0.0028774 -5.5086e-24)
(0.0684472 -0.0027324 7.43885e-24)
(0.0701531 -0.00258945 -4.44491e-25)
(0.0717719 -0.00244929 -2.38025e-24)
(0.0733054 -0.00231259 4.20941e-24)
(0.0747555 -0.0021799 4.9023e-25)
(0.0761246 -0.0020517 3.42194e-24)
(0.0774152 -0.00192833 4.64957e-25)
(0.0786304 -0.00181007 -9.89668e-25)
(0.079773 -0.00169703 -1.45274e-24)
(-0.000402402 0.0013181 -1.25791e-21)
(-0.00124803 0.00245305 1.37894e-21)
(-0.00203257 0.00270824 -1.33776e-21)
(-0.00266223 0.00244846 -2.08083e-23)
(-0.00308188 0.00189804 -3.83117e-25)
(-0.00327058 0.0011948 -1.26654e-21)
(-0.00321631 0.000422712 1.30809e-21)
(-0.0029194 -0.000366182 1.23915e-21)
(-0.0023856 -0.00114854 -2.28775e-23)
(-0.0016161 -0.00190485 -2.29683e-21)
(-0.000619642 -0.00261941 2.2387e-21)
(0.000591116 -0.00328821 -1.07021e-21)
(0.00200512 -0.00390767 -1.59126e-23)
(0.00360877 -0.00447548 0)
(0.00538722 -0.00499072 8.79086e-22)
(0.00732557 -0.00545296 -7.31362e-23)
(0.0094084 -0.00586243 -7.94323e-22)
(0.0116199 -0.00621981 2.24546e-23)
(0.0139444 -0.00652619 0)
(0.0163659 -0.00678299 0)
(0.018869 -0.00699188 2.57448e-22)
(0.0214385 -0.00715465 -2.49926e-22)
(0.0240594 -0.00727307 -1.97868e-22)
(0.0267173 -0.00734918 2.10662e-22)
(0.029398 -0.00738514 5.38218e-24)
(0.0320888 -0.00738381 -4.67304e-24)
(0.0347769 -0.00734794 4.01053e-24)
(0.0374507 -0.00728038 -9.28057e-23)
(0.0400995 -0.00718393 9.62928e-23)
(0.0427134 -0.00706139 -5.90664e-23)
(0.0452835 -0.00691553 6.35918e-23)
(0.0478016 -0.00674914 1.28256e-24)
(0.0502607 -0.00656493 2.55494e-23)
(0.0526544 -0.00636557 -4.07971e-23)
(0.0549774 -0.00615362 1.61247e-23)
(0.0572253 -0.00593157 -8.51171e-26)
(0.0593943 -0.00570176 8.10128e-26)
(0.0614816 -0.00546641 0)
(0.0634853 -0.00522759 -7.63115e-26)
(0.065404 -0.00498723 0)
(0.0672371 -0.00474708 -1.17217e-23)
(0.0689845 -0.00450873 1.08753e-23)
(0.0706468 -0.00427362 -8.03666e-25)
(0.072225 -0.00404301 -4.78552e-26)
(0.0737206 -0.003818 -7.46209e-24)
(0.0751357 -0.00359952 1.40613e-23)
(0.0764723 -0.00338834 -7.59378e-24)
(0.077733 -0.00318508 3.76654e-24)
(0.0789205 -0.00299014 -2.84881e-24)
(0.0800377 -0.00280372 -9.64555e-25)
(-0.000535526 0.00157871 -2.71749e-21)
(-0.00140628 0.00292526 0)
(-0.00184452 0.00324174 2.81765e-21)
(-0.0020322 0.00290841 -5.63317e-21)
(-0.00199357 0.00220996 2.83677e-21)
(-0.00175168 0.00131613 1.29615e-21)
(-0.00131422 0.000330259 -1.35996e-21)
(-0.000692651 -0.000691417 1.26597e-21)
(0.000104715 -0.00171183 -2.50894e-21)
(0.00108677 -0.00270074 1.22365e-21)
(0.00224889 -0.00364323 1.82081e-23)
(0.00357968 -0.00453137 3.59235e-25)
(0.00507428 -0.00535827 1.61862e-23)
(0.0067246 -0.00612019 -9.75248e-22)
(0.00852043 -0.00681471 9.45571e-22)
(0.0104508 -0.00744059 2.72305e-23)
(0.0125038 -0.00799749 -1.24797e-23)
(0.0146672 -0.00848575 7.17895e-22)
(0.0169278 -0.0089063 -7.17792e-22)
(0.0192727 -0.00926061 -9.99992e-24)
(0.0216887 -0.00955056 0)
(0.0241626 -0.00977827 3.31661e-25)
(0.0266815 -0.00994602 0)
(0.0292321 -0.0100561 6.508e-24)
(0.0318025 -0.0101116 2.92096e-25)
(0.0343803 -0.0101157 4.71725e-24)
(0.0369546 -0.0100725 -2.5017e-22)
(0.0395145 -0.00998566 2.46458e-22)
(0.0420504 -0.00985885 0)
(0.0445529 -0.00969585 -6.96321e-23)
(0.0470138 -0.00950044 7.19294e-23)
(0.0494256 -0.00927636 0)
(0.0517813 -0.00902736 -1.73044e-25)
(0.0540753 -0.00875706 -2.08818e-23)
(0.0563023 -0.00846902 3.18931e-23)
(0.0584582 -0.00816663 -1.44888e-23)
(0.0605394 -0.00785314 7.44723e-26)
(0.0625433 -0.00753163 1.24688e-23)
(0.0644678 -0.00720498 -9.19176e-24)
(0.0663117 -0.00687585 -8.90849e-24)
(0.0680743 -0.00654669 7.69802e-24)
(0.0697555 -0.00621974 6.57251e-25)
(0.0713559 -0.00589698 1.28459e-23)
(0.0728763 -0.00558019 -2.79275e-23)
(0.0743182 -0.0052709 1.34527e-23)
(0.0756832 -0.00497043 5.38154e-26)
(0.0769736 -0.00467987 -9.25741e-25)
(0.0781915 -0.00440007 -4.4299e-26)
(0.0793396 -0.0041316 9.26287e-25)
(0.0804206 -0.00387465 -1.79692e-24)
(-0.000592685 0.00156952 -1.66242e-24)
(-0.00134733 0.00296375 -2.53462e-23)
(-0.00131182 0.00330316 -2.45615e-23)
(-0.000943079 0.00292979 -2.38522e-23)
(-0.000347513 0.00215101 -4.57677e-23)
(0.000404911 0.00114842 -5.35059e-25)
(0.00128175 3.15484e-05 2.14729e-23)
(0.00226948 -0.00115146 -2.12993e-23)
(0.00336978 -0.00234088 -2.05986e-23)