/*--------------------------------*- C++ -*----------------------------------*\
| =========                 |                                                 |
| \\      /  F ield         | OpenFOAM: The Open Source CFD Toolbox           |
|  \\    /   O peration     | Version:  2412                                  |
|   \\  /    A nd           | Website:  www.openfoam.com                      |
|    \\/     M anipulation  |                                                 |
\*---------------------------------------------------------------------------*/
FoamFile
{
    version     2.0;
    format      ascii;
    arch        "LSB;label=32;scalar=64";
    class       volVectorField;
    location    "22";
    object      vorticity;
}
// * * * * * * * * * * * * * * * * * * * * * * * * * * * * * * * * * * * * * //

dimensions      [0 0 -1 0 0 0 0];

internalField   nonuniform List<vector> 
63420
(
(0 0 5.90705e-06)
(0 0 5.88748e-06)
(0 0 5.86684e-06)
(0 0 5.82743e-06)
(0 0 5.77685e-06)
(0 0 5.81612e-06)
(0 0 6.1637e-06)
(0 0 7.06981e-06)
(0 0 8.64437e-06)
(0 0 1.07057e-05)
(0 0 1.27587e-05)
(0 0 1.41329e-05)
(0 0 1.42142e-05)
(0 0 1.26608e-05)
(0 0 9.51121e-06)
(0 0 5.1574e-06)
(0 0 2.14266e-07)
(0 0 -4.65141e-06)
(0 0 -8.87127e-06)
(0 0 -1.20682e-05)
(0 0 -1.40829e-05)
(0 0 -1.49484e-05)
(0 0 -1.48332e-05)
(0 0 -1.39778e-05)
(0 0 -1.26386e-05)
(0 0 -1.10482e-05)
(0 0 -9.39381e-06)
(0 0 -7.80913e-06)
(0 0 -6.37791e-06)
(0 0 -5.14237e-06)
(0 0 -4.11393e-06)
(0 0 -3.28355e-06)
(0 0 -2.63036e-06)
(0 0 -2.12818e-06)
(0 0 -1.74991e-06)
(0 0 -1.47029e-06)
(0 0 -1.2672e-06)
(0 0 -1.12223e-06)
(0 0 -1.02055e-06)
(0 0 -9.50552e-07)
(0 0 -9.03396e-07)
(0 0 -8.72439e-07)
(0 0 -8.52795e-07)
(0 0 -8.40918e-07)
(0 0 -8.34258e-07)
(0 0 -8.30983e-07)
(0 0 -8.29717e-07)
(0 0 -8.29195e-07)
(0 0 -8.27392e-07)
(0 0 -8.18844e-07)
(0 0 -7.85779e-07)
(0 0 -6.69467e-07)
(0 0 -2.80556e-07)
(0 0 9.72704e-07)
(0 4.44319e-23 4.87764e-06)
(0 0 1.77184e-05)
(0 0 1.76587e-05)
(0 0 1.7597e-05)
(0 0 1.74801e-05)
(0 0 1.73298e-05)
(0 0 1.74474e-05)
(0 0 1.84849e-05)
(0 0 2.11903e-05)
(0 0 2.58943e-05)
(0 0 3.20579e-05)
(0 0 3.82065e-05)
(0 0 4.23398e-05)
(0 0 4.26233e-05)
(0 0 3.80321e-05)
(0 0 2.86751e-05)
(0 0 1.57161e-05)
(0 0 9.8513e-07)
(0 0 -1.35304e-05)
(0 0 -2.61344e-05)
(0 0 -3.56993e-05)
(0 0 -4.17469e-05)
(0 0 -4.43712e-05)
(0 0 -4.40713e-05)
(0 0 -4.15616e-05)
(0 0 -3.76048e-05)
(0 0 -3.28938e-05)
(0 0 -2.7986e-05)
(0 0 -2.32807e-05)
(0 0 -1.90281e-05)
(0 0 -1.53548e-05)
(0 0 -1.22957e-05)
(0 0 -9.82453e-06)
(0 0 -7.87978e-06)
(0 0 -6.38389e-06)
(0 0 -5.25659e-06)
(0 0 -4.42283e-06)
(0 0 -3.81695e-06)
(0 0 -3.38417e-06)
(0 0 -3.08035e-06)
(0 0 -2.87099e-06)
(0 0 -2.72971e-06)
(0 0 -2.63676e-06)
(0 0 -2.57755e-06)
(0 0 -2.54147e-06)
(0 0 -2.52087e-06)
(0 0 -2.51026e-06)
(0 0 -2.50551e-06)
(0 0 -2.50283e-06)
(0 0 -2.49627e-06)
(0 0 -2.46992e-06)
(0 0 -2.37225e-06)
(0 0 -2.03291e-06)
(0 0 -9.01916e-07)
(0 0 2.74256e-06)
(0 4.49e-23 1.41099e-05)
(0 0 2.95176e-05)
(0 0 2.94176e-05)
(0 0 2.9315e-05)
(0 0 2.91211e-05)
(0 0 2.88719e-05)
(0 0 2.90649e-05)
(0 0 3.07807e-05)
(0 0 3.5263e-05)
(0 0 4.30692e-05)
(0 0 5.33192e-05)
(0 0 6.35805e-05)
(0 0 7.05422e-05)
(0 0 7.11586e-05)
(0 0 6.37155e-05)
(0 0 4.83719e-05)
(0 0 2.70346e-05)
(0 0 2.71955e-06)
(0 0 -2.12891e-05)
(0 0 -4.21816e-05)
(0 0 -5.80833e-05)
(0 0 -6.81912e-05)
(0 0 -7.26483e-05)
(0 0 -7.22702e-05)
(0 0 -6.82302e-05)
(0 0 -6.17849e-05)
(0 0 -5.40779e-05)
(0 0 -4.60303e-05)
(0 0 -3.83035e-05)
(0 0 -3.13129e-05)
(0 0 -2.52699e-05)
(0 0 -2.02342e-05)
(0 0 -1.61643e-05)
(0 0 -1.29599e-05)
(0 0 -1.04942e-05)
(0 0 -8.63546e-06)
(0 0 -7.2603e-06)
(0 0 -6.26074e-06)
(0 0 -5.5466e-06)
(0 0 -5.04522e-06)
(0 0 -4.69974e-06)
(0 0 -4.4667e-06)
(0 0 -4.31348e-06)
(0 0 -4.21602e-06)
(0 0 -4.15681e-06)
(0 0 -4.12325e-06)
(0 0 -4.10625e-06)
(0 0 -4.09904e-06)
(0 0 -4.09545e-06)
(0 0 -4.08607e-06)
(0 0 -4.04613e-06)
(0 0 -3.89571e-06)
(0 0 -3.37033e-06)
(0 0 -1.61325e-06)
(0 0 4.0685e-06)
(0 2.64941e-22 2.18547e-05)
(0 0 4.12965e-05)
(0 0 4.1156e-05)
(0 0 4.10124e-05)
(0 0 4.07429e-05)
(0 0 4.03957e-05)
(0 0 4.06593e-05)
(0 0 4.30346e-05)
(0 0 4.92576e-05)
(0 0 6.01222e-05)
(0 0 7.44327e-05)
(0 0 8.88338e-05)
(0 0 9.87359e-05)
(0 0 9.98962e-05)
(0 0 8.99013e-05)
(0 0 6.89279e-05)
(0 0 3.95796e-05)
(0 0 6.01024e-06)
(0 0 -2.72376e-05)
(0 0 -5.62634e-05)
(0 0 -7.8451e-05)
(0 0 -9.26629e-05)
(0 0 -9.90726e-05)
(0 0 -9.8788e-05)
(0 0 -9.34182e-05)
(0 0 -8.46931e-05)
(0 0 -7.41917e-05)
(0 0 -6.31883e-05)
(0 0 -5.26005e-05)
(0 0 -4.30071e-05)
(0 0 -3.47048e-05)
(0 0 -2.77802e-05)
(0 0 -2.21796e-05)
(0 0 -1.77674e-05)
(0 0 -1.43706e-05)
(0 0 -1.18089e-05)
(0 0 -9.913e-06)
(0 0 -8.53461e-06)
(0 0 -7.54968e-06)
(0 0 -6.85825e-06)
(0 0 -6.382e-06)
(0 0 -6.06103e-06)
(0 0 -5.85039e-06)
(0 0 -5.71691e-06)
(0 0 -5.63644e-06)
(0 0 -5.59159e-06)
(0 0 -5.56986e-06)
(0 0 -5.56193e-06)
(0 0 -5.55953e-06)
(0 0 -5.55048e-06)
(0 0 -5.50364e-06)
(0 0 -5.31928e-06)
(0 0 -4.66709e-06)
(0 0 -2.47183e-06)
(0 0 4.67029e-06)
(0 -1.73931e-22 2.71779e-05)
(0 0 5.30476e-05)
(0 0 5.28658e-05)
(0 0 5.26811e-05)
(0 0 5.23375e-05)
(0 0 5.18938e-05)
(0 0 5.22218e-05)
(0 0 5.52315e-05)
(0 0 6.31462e-05)
(0 0 7.70092e-05)
(0 0 9.53432e-05)
(0 0 0.000113918)
(0 0 0.000126906)
(0 0 0.000128889)
(0 0 0.000116741)
(0 0 9.06135e-05)
(0 0 5.37448e-05)
(0 0 1.1363e-05)
(0 0 -3.07829e-05)
(0 0 -6.77321e-05)
(0 0 -9.61344e-05)
(0 0 -0.000114506)
(0 0 -0.000123026)
(0 0 -0.000123063)
(0 0 -0.00011663)
(0 0 -0.000105903)
(0 0 -9.28758e-05)
(0 0 -7.91618e-05)
(0 0 -6.59273e-05)
(0 0 -5.39114e-05)
(0 0 -4.34967e-05)
(0 0 -3.48e-05)
(0 0 -2.77594e-05)
(0 0 -2.22083e-05)
(0 0 -1.79317e-05)
(0 0 -1.47046e-05)
(0 0 -1.2315e-05)
(0 0 -1.05769e-05)
(0 0 -9.33456e-06)
(0 0 -8.46224e-06)
(0 0 -7.86139e-06)
(0 0 -7.45659e-06)
(0 0 -7.1912e-06)
(0 0 -7.0234e-06)
(0 0 -6.92276e-06)
(0 0 -6.86732e-06)
(0 0 -6.84133e-06)
(0 0 -6.83312e-06)
(0 0 -6.83258e-06)
(0 0 -6.82564e-06)
(0 0 -6.77789e-06)
(0 0 -6.58081e-06)
(0 0 -5.87583e-06)
(0 0 -3.48987e-06)
(0 0 4.33209e-06)
(0 8.58623e-23 2.92577e-05)
(0 0 6.47644e-05)
(0 0 6.45387e-05)
(0 0 6.43127e-05)
(0 0 6.3897e-05)
(0 0 6.33588e-05)
(0 0 6.37435e-05)
(0 0 6.73569e-05)
(0 0 7.69036e-05)
(0 0 9.36912e-05)
(0 0 0.000116002)
(0 0 0.000138787)
(0 0 0.000155036)
(0 0 0.000158176)
(0 0 0.000144355)
(0 0 0.000113647)
(0 0 6.98512e-05)
(0 0 1.91923e-05)
(0 0 -3.14371e-05)
(0 0 -7.60535e-05)
(0 0 -0.000110583)
(0 0 -0.00013318)
(0 0 -0.000143999)
(0 0 -0.000144631)
(0 0 -0.000137456)
(0 0 -0.000125063)
(0 0 -0.000109834)
(0 0 -9.37052e-05)
(0 0 -7.80827e-05)
(0 0 -6.38619e-05)
(0 0 -5.15126e-05)
(0 0 -4.11849e-05)
(0 0 -3.28135e-05)
(0 0 -2.62063e-05)
(0 0 -2.11116e-05)
(0 0 -1.72639e-05)
(0 0 -1.44127e-05)
(0 0 -1.23374e-05)
(0 0 -1.08531e-05)
(0 0 -9.81014e-06)
(0 0 -9.09132e-06)
(0 0 -8.60672e-06)
(0 0 -8.28882e-06)
(0 0 -8.08773e-06)
(0 0 -7.96711e-06)
(0 0 -7.90077e-06)
(0 0 -7.8699e-06)
(0 0 -7.86066e-06)
(0 0 -7.8614e-06)
(0 0 -7.85713e-06)
(0 0 -7.81343e-06)
(0 0 -7.62516e-06)
(0 0 -6.94926e-06)
(0 0 -4.66472e-06)
(0 0 2.86479e-06)
(0 4.2366e-22 2.73068e-05)
(0 0 7.64382e-05)
(0 0 7.61657e-05)
(0 0 7.58986e-05)
(0 0 7.54135e-05)
(0 0 7.47831e-05)
(0 0 7.52161e-05)
(0 0 7.93983e-05)
(0 0 9.05084e-05)
(0 0 0.000110135)
(0 0 0.000136366)
(0 0 0.000163399)
(0 0 0.000183098)
(0 0 0.000187767)
(0 0 0.000172812)
(0 0 0.00013817)
(0 0 8.81189e-05)
(0 0 2.97909e-05)
(0 0 -2.8849e-05)
(0 0 -8.08381e-05)
(0 0 -0.000121389)
(0 0 -0.000148282)
(0 0 -0.000161609)
(0 0 -0.000163143)
(0 0 -0.000155586)
(0 0 -0.000141904)
(0 0 -0.00012484)
(0 0 -0.000106632)
(0 0 -8.89136e-05)
(0 0 -7.27344e-05)
(0 0 -5.86516e-05)
(0 0 -4.68526e-05)
(0 0 -3.72743e-05)
(0 0 -2.9705e-05)
(0 0 -2.38619e-05)
(0 0 -1.94446e-05)
(0 0 -1.61682e-05)
(0 0 -1.37813e-05)
(0 0 -1.20725e-05)
(0 0 -1.08706e-05)
(0 0 -1.00413e-05)
(0 0 -9.48157e-06)
(0 0 -9.11378e-06)
(0 0 -8.88067e-06)
(0 0 -8.74046e-06)
(0 0 -8.66304e-06)
(0 0 -8.62676e-06)
(0 0 -8.61585e-06)
(0 0 -8.61745e-06)
(0 0 -8.61639e-06)
(0 0 -8.58119e-06)
(0 0 -8.42106e-06)
(0 0 -7.85146e-06)
(0 0 -5.97226e-06)
(0 0 1.10711e-07)
(0 -8.2878e-23 2.0412e-05)
(-1.72194e-23 7.93877e-21 2.93426e-06)
(-1.45313e-22 7.8058e-21 2.31182e-06)
(3.22302e-23 -1.94455e-22 1.47603e-06)
(3.80638e-23 -2.33028e-20 3.84811e-07)
(-9.09556e-23 7.96011e-21 -9.97878e-07)
(3.5702e-22 7.81848e-21 -2.70097e-06)
(-7.82284e-22 2.27952e-20 -4.74838e-06)
(3.07105e-22 -2.31609e-20 -7.1616e-06)
(6.18214e-22 -7.453e-21 -9.96187e-06)
(-8.8286e-22 -3.67457e-24 -1.31721e-05)
(-8.82104e-22 -7.46676e-21 -1.68182e-05)
(7.72574e-22 7.09427e-21 -2.09302e-05)
(5.59583e-22 -5.84311e-20 -2.55436e-05)
(-1.03393e-21 1.25431e-19 -3.06997e-05)
(3.56765e-22 -6.74702e-20 -3.64433e-05)
(-1.20945e-21 -5.08697e-20 -4.28379e-05)
(2.32705e-21 -6.47777e-20 -4.99315e-05)
(-1.82533e-21 7.63081e-21 -5.78276e-05)
(-1.85439e-22 -7.12119e-21 -6.65693e-05)
(7.07364e-23 7.12533e-21 -7.62755e-05)
(-3.09323e-24 -1.26517e-22 -8.70328e-05)
(-6.5701e-23 -6.8725e-21 -9.89587e-05)
(-1.97804e-21 6.93124e-21 -0.000112178)
(4.13598e-21 1.2713e-23 -0.000126828)
(1.20603e-21 6.72847e-21 -0.000143059)
(-3.22252e-21 -5.22972e-24 -0.000161043)
(4.63617e-21 7.80904e-21 -0.000180978)
(-5.4457e-21 1.01358e-19 -0.000203102)
(6.83804e-22 -1.08837e-19 -0.000227715)
(-2.10539e-21 9.93917e-20 -0.000255214)
(2.05114e-21 -1.00516e-19 -0.000286152)
(4.77051e-23 1.31915e-21 -0.000321352)
(-6.20617e-23 -1.61868e-21 -0.000362091)
(2.74102e-21 -9.50632e-20 -0.000410443)
(-8.5158e-21 9.22516e-20 -0.000469883)
(-3.08978e-22 -1.5215e-21 -0.000546331)
(6.09554e-21 1.33315e-23 -0.000649948)
(6.62297e-21 1.44851e-23 -0.000798086)
(-6.60178e-21 -1.44387e-23 -0.00101997)
(-2.18754e-22 -4.78437e-25 -0.00136369)
(-2.28002e-22 -4.98663e-25 -0.00190615)
(-7.84258e-21 -1.71525e-23 -0.00276574)
(7.57018e-21 1.65567e-23 -0.00411694)
(-2.49814e-22 1.48571e-22 -0.00620365)
(-3.35075e-23 7.68726e-21 -0.00934586)
(-2.42146e-20 4.97335e-20 -0.0139312)
(2.33235e-20 -6.55397e-20 -0.0203793)
(-5.46775e-21 -9.29355e-21 -0.0290652)
(6.00981e-21 2.54359e-20 -0.0401976)
(-1.99723e-20 -5.57559e-21 -0.0535715)
(-2.55433e-22 7.94979e-21 8.63132e-06)
(-1.04305e-22 1.56384e-20 6.70232e-06)
(2.96638e-22 7.60572e-21 4.07856e-06)
(-8.56708e-22 -7.81874e-21 6.34837e-07)
(1.59144e-21 7.45879e-21 -3.72973e-06)
(-4.86987e-22 -5.34037e-20 -9.09544e-06)
(-2.23994e-22 8.47935e-20 -1.55295e-05)
(-5.54192e-23 -8.82232e-21 -2.30941e-05)
(2.14955e-21 -9.76421e-20 -3.18534e-05)
(-2.23931e-21 1.37843e-19 -4.18778e-05)
(-8.29316e-22 1.2596e-19 -5.32495e-05)
(6.12883e-22 -1.13305e-19 -6.60647e-05)
(-3.86201e-22 7.23909e-22 -8.04361e-05)
(2.75568e-21 -7.2166e-21 -9.64943e-05)
(-2.14909e-21 2.39805e-20 -0.000114394)
(-5.90951e-21 2.38304e-19 -0.000134308)
(1.63569e-21 -2.24077e-19 -0.000156481)
(-5.53379e-21 2.40126e-19 -0.000181072)
(-2.95208e-22 1.94449e-20 -0.000208381)
(-3.77434e-21 -7.28206e-21 -0.000238659)
(3.99061e-21 1.42764e-22 -0.000272255)
(-4.00418e-21 9.03506e-21 -0.000309545)
(9.59134e-22 2.08493e-19 -0.000350924)
(5.91787e-21 -4.41396e-19 -0.000396832)
(4.49434e-21 -2.10836e-19 -0.000447755)
(-6.99704e-21 4.26834e-19 -0.000504246)
(3.70456e-21 -4.25508e-19 -0.000566947)
(-2.06233e-21 4.36578e-19 -0.000636628)
(3.2312e-21 1.4621e-21 -0.000714248)
(-3.66064e-21 -9.59296e-23 -0.00080107)
(-1.22986e-21 -2.68982e-24 -0.000898843)
(0 0 -0.00101013)
(1.81729e-22 9.43012e-23 -0.00113887)
(1.08602e-20 1.2184e-20 -0.00129145)
(-1.56835e-20 3.56001e-19 -0.00147847)
(-1.55094e-20 -2.39758e-20 -0.001718)
(1.84778e-20 -3.51048e-19 -0.00204093)
(2.63247e-20 -3.03183e-19 -0.00250001)
(-9.43375e-21 3.23857e-19 -0.00318398)
(-3.06351e-20 2.15354e-21 -0.0042388)
(2.98835e-20 1.70509e-20 -0.00589753)
(-4.15944e-20 2.30671e-19 -0.00851868)
(2.25761e-20 -2.3993e-19 -0.01263)
(-1.76844e-20 1.44148e-20 -0.0189686)
(1.95945e-20 7.5745e-21 -0.0285006)
(-5.88334e-20 1.11286e-19 -0.0423957)
(5.87558e-20 -1.08932e-19 -0.0619162)
(-9.01564e-20 8.12624e-20 -0.0881709)
(8.70018e-20 -9.07491e-20 -0.121716)
(-1.84462e-20 -6.22027e-22 -0.160584)
(-4.8887e-23 4.7103e-20 1.38387e-05)
(-8.67385e-23 1.48947e-20 1.03716e-05)
(3.80146e-22 -6.17024e-20 5.5597e-06)
(-8.10675e-22 1.22738e-19 -7.91404e-07)
(1.78548e-21 -2.62728e-19 -8.82365e-06)
(3.61812e-22 1.24918e-19 -1.86476e-05)
(-2.41382e-21 -8.56889e-22 -3.03611e-05)
(1.54409e-21 -1.69647e-20 -4.40634e-05)
(1.49756e-21 -2.56342e-19 -5.98648e-05)
(6.96144e-22 2.44242e-19 -7.78939e-05)
(-8.45663e-22 -1.60463e-21 -9.83024e-05)
(-4.15845e-21 -1.55032e-23 -0.000121271)
(6.59494e-21 -1.82689e-21 -0.00014701)
(-3.86046e-21 -2.49986e-19 -0.000175767)
(5.06193e-21 2.27153e-19 -0.000207824)
(-1.13897e-20 4.51377e-19 -0.000243534)
(-4.77683e-21 -1.19997e-20 -0.000283275)
(-4.77836e-21 4.64394e-19 -0.000327472)
(4.07782e-22 -1.40957e-20 -0.000376546)
(-1.23838e-20 4.50914e-19 -0.000431058)
(1.23085e-20 -4.68287e-19 -0.000491642)
(-9.23148e-21 4.47143e-19 -0.000559001)
(2.51976e-21 -4.65071e-19 -0.000633888)
(5.18146e-21 -9.2921e-21 -0.000717139)
(-2.5762e-21 1.36274e-20 -0.000809689)
(5.49695e-21 -8.79416e-21 -0.000912602)
(-1.88981e-20 4.19017e-19 -0.00102711)
(1.70162e-20 -4.4656e-19 -0.0011547)
(1.85334e-20 -4.14878e-19 -0.00129718)
(-1.52453e-20 4.1676e-19 -0.0014569)
(-1.07328e-21 -5.12445e-21 -0.00163708)
(1.11057e-20 -1.20178e-22 -0.00184231)
(-1.26969e-20 -2.45639e-20 -0.00207958)
(5.33798e-20 -7.56979e-19 -0.00236001)
(1.64541e-20 5.59897e-20 -0.00270191)
(-7.01449e-20 7.12702e-19 -0.00313627)
(3.91545e-21 -1.22224e-20 -0.00371596)
(-1.1335e-20 -4.7951e-21 -0.00453098)
(1.09695e-19 -5.97732e-19 -0.00573257)
(-2.04099e-19 1.17376e-18 -0.00756925)
(2.08125e-19 -1.16591e-18 -0.0104372)
(7.03883e-20 8.43498e-20 -0.014945)
(-1.56005e-19 5.10247e-19 -0.0219874)
(-1.63524e-19 3.5181e-19 -0.032813)
(1.54572e-19 -4.17073e-19 -0.0490596)
(-2.19269e-20 1.9223e-20 -0.0727123)
(5.41681e-20 -1.71004e-20 -0.105913)
(1.62481e-19 -1.00883e-19 -0.150499)
(-1.75905e-19 1.5755e-19 -0.207204)
(-2.50743e-20 -4.04247e-20 -0.268262)
(4.07666e-22 -3.10656e-20 1.81297e-05)
(-3.64467e-22 1.57064e-20 1.25846e-05)
(6.80274e-22 -1.69305e-22 4.73632e-06)
(-6.05768e-22 -1.54529e-20 -5.61155e-06)
(-9.51113e-22 -1.42964e-21 -1.85846e-05)
(3.3654e-21 -2.42537e-19 -3.429e-05)
(-4.7778e-21 4.5924e-19 -5.28438e-05)
(2.34094e-21 -2.47245e-19 -7.43855e-05)
(-1.8121e-21 1.49174e-20 -9.90867e-05)
(4.88605e-21 -2.70733e-19 -0.000127156)
(-5.86193e-21 2.46998e-19 -0.000158846)
(-4.23631e-21 4.71615e-19 -0.000194455)
(1.10093e-20 -9.54071e-19 -0.000234333)
(-1.31986e-20 9.52977e-19 -0.000278886)
(1.74215e-20 -9.48484e-19 -0.000328581)
(-1.15737e-20 9.39907e-19 -0.00038398)
(-1.00188e-20 4.78155e-19 -0.00044573)
(-7.03571e-22 -3.74058e-21 -0.000514485)
(4.47723e-21 3.88708e-21 -0.000590995)
(-7.78194e-21 4.40978e-19 -0.000676165)
(-1.72897e-21 -4.63091e-19 -0.000771035)
(1.46984e-20 1.26665e-20 -0.000876768)
(-3.39085e-20 8.88991e-19 -0.000994628)
(2.58034e-20 -8.91891e-19 -0.00112603)
(2.26408e-21 -5.34964e-21 -0.00127256)
(-9.69088e-21 -9.05058e-23 -0.00143603)
(1.47456e-20 -1.34773e-20 -0.00161857)
(-4.78962e-21 1.22822e-22 -0.00182265)
(-5.25767e-21 -6.48564e-23 -0.00205135)
(5.0085e-21 1.94635e-22 -0.00230853)
(-3.71628e-21 1.45374e-21 -0.00259934)
(6.36317e-20 -7.87061e-19 -0.00293099)
(-5.77507e-20 8.09421e-19 -0.00331413)
(-1.59894e-20 2.19609e-22 -0.00376536)
(1.86348e-20 -1.02843e-20 -0.00431161)
(-9.92829e-20 7.21927e-19 -0.00499795)
(1.15676e-19 -7.25098e-19 -0.00590088)
(-2.25417e-20 2.18367e-21 -0.0071502)
(1.59326e-20 -9.25879e-23 -0.00896375)
(3.78784e-20 6.35994e-21 -0.0116992)
(-2.4683e-19 5.40836e-19 -0.0159263)
(3.66459e-19 -1.09614e-18 -0.0225198)
(-1.78907e-19 5.55311e-19 -0.032766)
(2.59196e-19 -4.2464e-19 -0.0484633)
(-2.50953e-19 5.00206e-19 -0.0719838)
(-5.83545e-19 5.15717e-19 -0.106234)
(1.10138e-18 -1.09272e-18 -0.154395)
(-5.3897e-19 5.51692e-19 -0.219195)
(1.86089e-20 -2.12551e-21 -0.301357)
(4.47946e-21 -3.46627e-20 -0.379815)
(-7.32055e-22 1.57868e-20 2.09599e-05)
(-3.0312e-22 6.0472e-20 1.21709e-05)
(2.0417e-21 -1.83589e-19 -3.20037e-07)
(-1.42486e-21 2.46343e-19 -1.6519e-05)
(-2.0757e-22 -1.09074e-19 -3.64472e-05)
(1.17737e-22 -1.45859e-20 -6.01848e-05)
(-4.74791e-22 1.53687e-20 -8.78767e-05)
(3.00278e-21 -1.85029e-22 -0.000119732)
(-2.84816e-21 -1.50232e-20 -0.000156021)
(-5.21262e-21 3.36666e-20 -0.000197078)
(-7.14133e-21 4.79672e-19 -0.000243306)
(1.85004e-20 -4.98525e-19 -0.000295179)
(-2.2787e-20 4.65013e-19 -0.000353249)
(1.90318e-20 -4.83703e-19 -0.000418151)
(-2.98277e-21 3.36988e-21 -0.000490613)
(1.09055e-20 4.72281e-23 -0.000571496)
(4.14577e-21 3.68769e-21 -0.000661803)
(-5.4879e-21 4.51765e-19 -0.000762578)
(2.03538e-20 -4.88845e-19 -0.000875003)
(6.28638e-21 2.67923e-20 -0.0010005)
(-4.60297e-20 9.31278e-19 -0.00114068)
(2.94863e-20 -9.33869e-19 -0.00129739)
(1.00957e-20 2.25185e-20 -0.00147265)
(-1.79197e-20 -2.31613e-22 -0.00166874)
(1.1726e-20 9.57034e-21 -0.00188824)
(-3.93862e-20 8.94545e-19 -0.00213413)
(3.26226e-20 -8.86092e-19 -0.00240983)
(2.81748e-21 9.55535e-21 -0.00271942)
(9.44626e-21 2.71404e-20 -0.0030678)
(-1.14272e-20 -5.45799e-22 -0.00346107)
(1.18586e-21 -1.29746e-20 -0.00390715)
(-3.70694e-20 1.3172e-20 -0.00441674)
(3.48395e-20 1.25453e-20 -0.00500518)
(-3.07319e-21 -2.50998e-20 -0.00569564)
(8.32945e-20 -7.3573e-19 -0.00652486)
(-7.44501e-20 7.58368e-19 -0.00755334)
(2.70602e-19 -1.45842e-18 -0.00888273)
(-2.48374e-19 1.47255e-18 -0.0106848)
(3.0712e-19 -1.37701e-18 -0.0132475)
(7.086e-20 1.31455e-19 -0.0170436)
(-3.52702e-19 1.31147e-18 -0.0228272)
(-1.19716e-19 -2.19839e-20 -0.0317585)
(1.62973e-20 3.84352e-22 -0.0455489)
(-1.81415e-20 5.57012e-22 -0.0666096)
(5.35989e-20 1.64697e-21 -0.0981702)
(2.57591e-20 1.34385e-20 -0.144314)
(-1.11875e-19 5.07599e-21 -0.209772)
(6.37284e-20 4.91874e-21 -0.298966)
(-1.63226e-22 -3.06445e-22 -0.413113)
(3.56614e-20 6.3026e-22 -0.505364)
(-7.40254e-22 7.61103e-20 2.15133e-05)
(1.65172e-21 -4.64041e-20 6.92963e-06)
(-1.64449e-21 -1.63529e-20 -1.30599e-05)
(4.74627e-21 -2.27353e-19 -3.79561e-05)
(-2.38847e-21 2.29214e-19 -6.76923e-05)
(2.14371e-21 -2.26783e-19 -0.000102384)
(-1.11591e-20 5.00075e-19 -0.000142279)
(1.18846e-20 -7.0025e-19 -0.000187727)
(-7.69828e-21 4.95113e-19 -0.000239168)
(-6.18197e-21 4.82648e-19 -0.000297135)
(-2.20064e-21 3.96233e-21 -0.000362255)
(2.48263e-20 -9.48008e-19 -0.00043526)
(-2.18166e-20 9.86441e-19 -0.000516992)
(5.38076e-21 -4.64028e-19 -0.000608421)
(1.23423e-20 -4.66264e-19 -0.000710644)
(2.26102e-20 -4.58715e-19 -0.000824939)
(-3.25753e-21 6.56279e-21 -0.000952804)
(3.87874e-20 -9.51203e-19 -0.00109589)
(3.02532e-20 -9.13116e-19 -0.001256)
(6.57275e-21 2.11694e-20 -0.00143528)
(-2.73941e-20 9.48261e-19 -0.00163623)
(-1.99755e-20 -8.01824e-21 -0.00186166)
(1.21971e-20 8.88063e-21 -0.00211472)
(-5.15726e-20 9.17737e-19 -0.002399)
(4.21014e-20 -9.32146e-19 -0.00271861)
(7.36388e-20 -8.95207e-19 -0.00307826)
(-7.48602e-20 9.24608e-19 -0.00348346)
(1.49574e-20 -1.98652e-20 -0.00394067)
(6.88942e-20 -8.91939e-19 -0.00445761)
(-9.64427e-20 9.14641e-19 -0.00504377)
(4.34143e-21 1.22494e-20 -0.00571105)
(-2.09341e-19 1.67409e-18 -0.00647512)
(1.89688e-19 -1.73674e-18 -0.0073575)
(4.8082e-20 6.15849e-20 -0.00838949)
(-2.69294e-19 1.58331e-18 -0.00961909)
(2.47225e-19 -1.6508e-18 -0.0111233)
(-3.13027e-20 -3.25449e-21 -0.0130296)
(4.7209e-19 -1.48715e-18 -0.0155516)
(-4.42117e-19 1.53576e-18 -0.0190467)
(-6.55823e-20 -7.18276e-20 -0.0241034)
(6.76146e-19 -1.29642e-18 -0.0316645)
(-1.19024e-18 2.67265e-18 -0.0431887)
(-6.465e-20 -1.54586e-19 -0.0608451)
(-8.65808e-20 -1.21376e-19 -0.0877276)
(7.65372e-19 -1.16196e-18 -0.12808)
(3.91016e-20 6.23515e-20 -0.187554)
(-8.60185e-19 7.68499e-19 -0.273501)
(8.43348e-19 -8.45267e-19 -0.394759)
(8.96421e-21 2.8683e-20 -0.557668)
(9.19603e-21 -2.69218e-21 -0.669428)
(6.07487e-22 -1.58454e-20 1.87214e-05)
(1.73473e-21 -1.35206e-19 -7.73254e-06)
(-1.84906e-21 1.21926e-19 -3.94183e-05)
(-1.25235e-21 -1.71486e-20 -7.64256e-05)
(5.41255e-21 -2.25929e-19 -0.000118974)
(-5.0062e-21 2.32334e-19 -0.000167424)
(-6.04362e-21 4.69318e-19 -0.000222223)
(-5.05868e-21 -1.94121e-20 -0.000283919)
(2.18308e-21 -4.57216e-21 -0.000353155)
(1.46357e-20 -5.00403e-19 -0.000430679)
(-1.19892e-20 4.68151e-19 -0.000517347)
(1.82383e-20 -9.90361e-19 -0.000614139)
(-4.36362e-21 4.94992e-19 -0.000722176)
(-3.61132e-21 -1.86049e-20 -0.000842735)
(-4.82331e-21 -2.2246e-20 -0.000977244)
(2.90928e-20 -9.71389e-19 -0.0011273)
(-1.62395e-21 -2.01828e-20 -0.00129478)
(2.80453e-20 -9.89355e-19 -0.00148183)
(-5.35629e-21 -7.71602e-21 -0.00169082)
(-1.69211e-22 1.18494e-22 -0.00192438)
(1.13716e-20 8.38109e-21 -0.00218558)
(-5.37883e-20 9.51438e-19 -0.00247783)
(4.80924e-20 -9.71797e-19 -0.00280494)
(1.26943e-20 8.28631e-21 -0.00317119)
(-8.63419e-21 -1.48893e-20 -0.00358136)
(-6.13344e-21 9.84288e-21 -0.00404085)
(-7.53881e-20 9.17842e-19 -0.00455571)
(1.61897e-19 -1.87218e-18 -0.00513285)
(-7.69152e-20 9.76083e-19 -0.00578015)
(-1.94744e-19 1.80862e-18 -0.00650684)
(-3.0422e-20 -4.56083e-20 -0.00732393)
(2.42696e-21 -2.67412e-20 -0.00824524)
(-6.58002e-20 -5.39062e-20 -0.00928918)
(2.6196e-19 -1.80622e-18 -0.0104822)
(4.01016e-19 -1.6715e-18 -0.0118655)
(-3.5859e-19 1.75411e-18 -0.0135072)
(-3.36931e-20 -5.45053e-20 -0.0155252)
(4.74333e-19 -1.5969e-18 -0.0181266)
(-4.19082e-19 1.69114e-18 -0.0216728)
(-6.67056e-19 1.50132e-18 -0.0267834)
(5.67895e-19 -1.58535e-18 -0.0344887)
(7.75699e-20 -1.10929e-20 -0.0464376)
(8.63702e-19 -1.39891e-18 -0.0651602)
(1.18814e-19 1.21839e-19 -0.0943755)
(-9.96387e-19 1.3694e-18 -0.139352)
(-1.6071e-20 -3.92057e-20 -0.207398)
(3.32374e-20 5.2188e-22 -0.309196)
(-3.34708e-20 1.56206e-20 -0.463633)
(-5.05977e-19 5.29241e-19 -0.707237)
(4.97264e-19 -5.38487e-19 -0.970637)
(-1.07255e-20 -3.16357e-21 0.00993072)
(-1.07192e-20 -4.41826e-22 0.00525248)
(1.00488e-20 1.00104e-20 0.00129415)
(-6.93318e-21 2.40206e-21 -0.00201437)
(7.45754e-21 -1.18815e-20 -0.00474972)
(5.87405e-23 3.52817e-21 -0.00699036)
(-1.72612e-22 -9.75624e-23 -0.00880987)
(-5.59415e-21 1.2235e-23 -0.0102711)
(5.43824e-21 -1.1894e-23 -0.0114254)
(-1.62578e-22 3.55574e-25 -0.0123164)
(-1.56321e-22 3.41889e-25 -0.0129809)
(4.62813e-21 -1.01222e-23 -0.0134493)
(-4.643e-21 1.01547e-23 -0.0137464)
(-4.14196e-21 9.05888e-24 -0.0138943)
(3.08623e-22 -9.63957e-22 -0.0139122)
(6.19487e-21 7.23977e-21 -0.0138172)
(-2.29785e-21 -4.86672e-21 -0.0136247)
(-6.72621e-23 -9.07542e-22 -0.0133487)
(-2.45151e-23 6.77896e-22 -0.0130021)
(-2.38016e-21 -1.90136e-20 -0.0125964)
(2.41644e-21 1.82015e-20 -0.0121415)
(-1.7245e-21 -2.29895e-20 -0.0116463)
(1.46553e-21 1.20703e-21 -0.0111188)
(-1.90871e-21 1.16698e-23 -0.0105676)
(1.26216e-21 2.16304e-21 -0.0100014)
(-4.65783e-22 2.66693e-23 -0.00942778)
(-1.12688e-21 2.46459e-24 -0.00885156)
(5.18431e-22 -1.37803e-23 -0.00827767)
(2.09859e-22 3.07293e-21 -0.00771073)
(-2.08748e-23 2.06591e-23 -0.0071547)
(-2.10591e-22 -3.52416e-21 -0.00661304)
(1.97361e-22 3.73225e-21 -0.00608868)
(-1.08618e-22 -3.96071e-21 -0.00558405)
(8.7328e-22 3.80602e-20 -0.00510112)
(-9.81713e-22 -3.83121e-20 -0.00464146)
(-5.69372e-22 -3.25185e-20 -0.00420621)
(1.30325e-21 7.10026e-20 -0.00379617)
(-7.28689e-22 -3.87056e-20 -0.00341178)
(-1.29083e-22 -5.1044e-21 -0.00305321)
(1.26894e-22 5.29642e-21 -0.00272032)
(-5.35209e-23 9.91318e-25 -0.00241276)
(2.26804e-22 5.59778e-21 -0.00212996)
(-4.11827e-22 -2.90815e-20 -0.00187116)
(3.77218e-22 2.93153e-20 -0.00163546)
(-9.12574e-23 -6.07018e-21 -0.0014218)
(2.47972e-22 1.86864e-20 -0.00122905)
(3.46549e-23 -6.21853e-21 -0.00105592)
(-1.54863e-22 -1.29258e-20 -0.000901036)
(3.75871e-23 6.50919e-21 -0.000762825)
(-1.13941e-22 -6.67697e-21 -0.000639501)
(-1.54427e-20 2.53864e-20 0.0287656)
(3.12345e-20 -9.59731e-21 0.014848)
(-2.52661e-20 -2.23262e-20 0.00298006)
(8.49446e-21 2.29174e-20 -0.00685996)
(-8.88833e-21 -2.24246e-20 -0.0149371)
(-1.26705e-20 6.15391e-21 -0.0215144)
(1.12646e-20 6.75726e-21 -0.0268291)
(1.04071e-20 1.53867e-20 -0.0310785)
(2.59655e-21 -2.69779e-20 -0.0344207)
(-2.24792e-20 6.59084e-21 -0.0369865)
(2.12491e-20 -5.03611e-21 -0.038887)
(1.97633e-22 9.45303e-22 -0.0402121)
(-1.22383e-20 1.34659e-20 -0.0410356)
(-1.37063e-20 -1.69806e-20 -0.0414222)
(7.80889e-21 -1.79948e-20 -0.0414286)
(1.43364e-20 2.13484e-20 -0.0411053)
(-7.33197e-21 3.81431e-21 -0.0404977)
(-5.7108e-22 -1.72388e-21 -0.0396468)
(1.23024e-23 -1.0962e-22 -0.0385905)
(6.32011e-22 -1.38227e-24 -0.0373628)
(1.79879e-21 2.78489e-23 -0.0359933)
(-1.94025e-21 -3.36607e-21 -0.0345075)
(1.93817e-20 1.16575e-19 -0.0329287)
(-2.16706e-20 -1.23932e-19 -0.0312843)
(2.28428e-20 1.45198e-19 -0.0295947)
(-1.18023e-20 -6.46625e-20 -0.0278849)
(-2.2722e-20 -1.7174e-19 -0.02617)
(1.06264e-20 8.76918e-20 -0.024464)
(6.31527e-22 -2.52009e-21 -0.0227802)
(-1.48014e-21 -6.79109e-21 -0.0211301)
(8.45525e-22 3.52327e-21 -0.0195236)
(-1.08563e-21 -1.14763e-20 -0.0179694)
(9.76825e-21 1.26664e-19 -0.0164745)
(-2.06664e-20 -2.72087e-19 -0.0150445)
(9.45654e-21 1.32718e-19 -0.0136841)
(-9.80958e-22 -1.37486e-20 -0.0123965)
(2.05188e-22 4.75935e-21 -0.0111839)
(-1.0016e-23 -4.92544e-23 -0.0100477)
(-4.57365e-21 -8.86721e-20 -0.00898812)
(3.89546e-21 7.84666e-20 -0.00800483)
(2.9489e-21 7.76491e-20 -0.00709668)
(-4.32669e-21 -1.05904e-19 -0.00626192)
(1.09612e-22 5.87023e-21 -0.00549828)
(9.24801e-22 3.00678e-20 -0.00480302)
(-2.03292e-21 -5.41489e-20 -0.00417303)
(3.19938e-23 -6.18108e-21 -0.00360486)
(-1.3063e-21 -4.44873e-20 -0.00309472)
(-2.51154e-22 -6.8472e-21 -0.00263846)
(3.07526e-22 1.28299e-20 -0.00223132)
(3.73132e-22 1.9875e-20 -0.00186769)
(-1.40416e-20 -1.07956e-21 0.0444928)
(-1.4554e-20 -1.58656e-20 0.0215308)
(3.67473e-20 2.99467e-20 0.00179305)
(-4.39614e-20 -1.25795e-20 -0.0142811)
(1.81157e-20 1.21067e-20 -0.0272745)
(2.38626e-20 1.91796e-20 -0.0377274)
(-1.50567e-20 -5.80879e-20 -0.0460896)
(2.18467e-20 -1.41892e-20 -0.0527141)
(-2.9972e-20 4.1667e-20 -0.0578768)
(-2.04076e-20 8.60939e-21 -0.0617952)
(5.58625e-20 -2.38969e-20 -0.0646534)
(-3.88699e-20 2.28883e-20 -0.066598)
(6.48859e-21 -1.12163e-20 -0.067747)
(-3.29905e-21 -8.84986e-21 -0.0682046)
(6.25596e-20 6.64692e-20 -0.0680619)
(-3.62569e-21 3.56952e-20 -0.0673998)
(-5.63253e-20 -8.45523e-20 -0.0662906)
(1.05285e-20 -4.1413e-21 -0.0648001)
(-6.96759e-21 2.60333e-22 -0.0629883)
(3.56392e-22 -2.5543e-21 -0.0609096)
(3.57866e-20 1.05788e-19 -0.0586113)
(-3.56274e-20 -9.52583e-20 -0.0561348)
(-3.76207e-20 -1.31316e-19 -0.0535192)
(4.08484e-20 1.3276e-19 -0.0508004)
(-3.19812e-22 7.07235e-21 -0.0480203)
(-5.51292e-22 -5.34885e-21 -0.0452091)
(-7.8583e-24 6.67309e-21 -0.0423968)
(-3.39963e-20 -1.95228e-19 -0.0396047)
(3.74953e-20 2.00441e-19 -0.0368535)
(-3.46473e-20 -2.13897e-19 -0.0341612)
(3.70361e-20 2.278e-19 -0.0315434)
(8.55362e-22 8.05017e-21 -0.0290136)
(3.30875e-20 2.68013e-19 -0.0265827)
(-6.51157e-20 -5.39801e-19 -0.0242599)
(3.3757e-20 2.8928e-19 -0.0220518)
(1.58171e-20 1.61749e-19 -0.0199638)
(-1.41032e-20 -1.4271e-19 -0.017999)
(1.2219e-22 9.02375e-25 -0.0161592)
(-4.68022e-22 -1.36215e-22 -0.0144449)
(-5.27565e-23 1.158e-22 -0.0128551)
(1.2001e-20 1.78841e-19 -0.0113878)
(-1.16472e-20 -1.681e-19 -0.0100401)
(9.6366e-22 1.18046e-20 -0.00880801)
(-5.12774e-22 -2.37158e-23 -0.00768705)
(4.75211e-21 9.81208e-20 -0.00667202)
(-8.82476e-21 -1.86293e-19 -0.00575723)
(4.36556e-21 1.00455e-19 -0.00493646)
(-2.25672e-21 -5.20616e-20 -0.00420279)
(1.6981e-21 3.8811e-20 -0.00354813)
(4.04841e-22 1.30601e-20 -0.00296231)
(1.95005e-21 2.6771e-20 0.0541705)
(8.65838e-21 -5.45572e-20 0.0225639)
(-7.3521e-20 1.57531e-20 -0.00477985)
(1.18644e-19 8.15549e-20 -0.0264048)
(-2.92185e-20 -1.10636e-19 -0.0434636)
(-1.19656e-20 2.59906e-20 -0.0569305)
(-3.36451e-21 1.62415e-20 -0.0675395)
(-3.85792e-21 8.35286e-21 -0.0758197)
(-3.49066e-20 -2.53514e-21 -0.0821731)
(7.72017e-20 -1.90124e-20 -0.0869067)
(-2.61096e-20 1.28628e-20 -0.0902633)
(-1.32659e-20 6.57357e-22 -0.092436)
(1.90075e-20 1.00762e-20 -0.0935837)
(-8.63541e-20 -8.96825e-20 -0.0938426)
(6.99668e-20 6.82261e-20 -0.0933318)
(-9.35322e-21 1.29748e-20 -0.0921566)
(8.49931e-21 -8.63707e-21 -0.0904114)
(8.84991e-20 1.71999e-19 -0.0881815)
(-9.2426e-20 -1.57378e-19 -0.085545)
(2.45476e-22 -1.05179e-20 -0.0825723)
(-2.45087e-21 -8.8557e-23 -0.079327)
(2.64612e-21 4.87717e-22 -0.0758612)
(1.92035e-21 -7.11561e-23 -0.0722283)
(-4.30749e-21 5.05909e-21 -0.0684735)
(4.36709e-21 4.35739e-22 -0.0646475)
(9.77501e-22 7.89679e-21 -0.0607934)
(-1.05808e-19 -4.07982e-19 -0.05695)
(1.0662e-19 3.9783e-19 -0.0531443)
(-3.39114e-21 3.13214e-21 -0.0494026)
(-4.7261e-20 -2.40045e-19 -0.0457483)
(5.1487e-20 2.4696e-19 -0.0422015)
(-5.94292e-22 7.13561e-22 -0.0387795)
(-1.70272e-22 -7.58959e-23 -0.0354963)
(-4.59675e-20 -2.98492e-19 -0.0323632)
(9.02509e-20 5.99926e-19 -0.0293889)
(-8.57438e-20 -6.13204e-19 -0.0265796)
(8.28272e-20 6.35599e-19 -0.0239393)
(-7.91303e-20 -6.56907e-19 -0.0214698)
(3.84949e-20 3.33841e-19 -0.0191713)
(1.756e-20 1.76514e-19 -0.017042)
(-1.53766e-20 -1.54454e-19 -0.0150788)
(-1.26747e-21 -1.16041e-20 -0.0132775)
(-1.48581e-20 -1.89475e-19 -0.0116325)
(3.125e-20 4.0786e-19 -0.0101374)
(-1.44541e-20 -1.94355e-19 -0.00878511)
(1.51397e-22 2.43986e-22 -0.00756767)
(6.0586e-22 1.26509e-20 -0.00647653)
(-1.3149e-22 -1.04272e-22 -0.00550209)
(-5.93669e-22 -1.30413e-20 -0.00463281)
(1.28518e-21 2.65728e-20 -0.00385293)
(2.72886e-20 9.67905e-23 0.0538467)
(3.40516e-22 4.01111e-22 0.0140403)
(-6.16035e-20 4.47007e-22 -0.020086)
(9.11018e-20 -2.98565e-22 -0.0458744)
(-2.72596e-20 -1.81123e-23 -0.0655047)
(-4.35866e-20 -8.49628e-22 -0.080588)
(1.42434e-20 1.2172e-22 -0.0922135)
(-1.15133e-20 -2.24579e-22 -0.101097)
(9.30163e-20 -2.54776e-20 -0.107748)
(4.47643e-20 1.13256e-19 -0.112543)
(1.75338e-21 7.5123e-20 -0.115763)
(-7.63843e-20 -1.66009e-19 -0.117636)
(1.27754e-19 2.06102e-19 -0.118347)
(-1.46265e-19 -1.97415e-19 -0.118052)
(6.87056e-20 1.32663e-19 -0.116889)
(-8.02231e-20 -1.39449e-19 -0.114978)
(5.27423e-21 -6.27874e-21 -0.112427)
(-2.54554e-20 -2.3982e-21 -0.109335)
(2.19294e-20 -4.15742e-21 -0.105791)