/*--------------------------------*- C++ -*----------------------------------*\
| =========                 |                                                 |
| \\      /  F ield         | OpenFOAM: The Open Source CFD Toolbox           |
|  \\    /   O peration     | Version:  2412                                  |
|   \\  /    A nd           | Website:  www.openfoam.com                      |
|    \\/     M anipulation  |                                                 |
\*---------------------------------------------------------------------------*/
FoamFile
{
    version     2.0;
    format      ascii;
    arch        "LSB;label=32;scalar=64";
    class       volScalarField;
    location    "5.5";
    object      p;
}
// * * * * * * * * * * * * * * * * * * * * * * * * * * * * * * * * * * * * * //

dimensions      [0 2 -2 0 0 0 0];

internalField   nonuniform List<scalar> 
63420
(
0.00111132
0.00112707
0.00111257
0.00112226
0.00112189
0.00112398
0.00112714
0.00113003
0.0011335
0.00113737
0.00114158
0.00114616
0.0011511
0.00115639
0.00116203
0.00116801
0.00117434
0.001181
0.00118801
0.00119535
0.00120304
0.00121106
0.00121943
0.00122814
0.00123719
0.0012466
0.00125634
0.00126645
0.0012769
0.00128771
0.00129889
0.00131042
0.00132233
0.0013346
0.00134726
0.00136029
0.0013737
0.00138751
0.0014017
0.0014163
0.00143129
0.0014467
0.00146251
0.00147874
0.0014954
0.00151248
0.00152999
0.00154794
0.00156633
0.00158517
0.00160446
0.00162421
0.00164443
0.00166512
0.00168628
0.00111126
0.00112702
0.00111251
0.00112219
0.00112183
0.00112391
0.00112707
0.00112996
0.00113343
0.0011373
0.0011415
0.00114608
0.00115102
0.0011563
0.00116194
0.00116791
0.00117423
0.00118089
0.00118789
0.00119523
0.00120291
0.00121093
0.00121929
0.00122799
0.00123703
0.00124642
0.00125616
0.00126625
0.0012767
0.0012875
0.00129866
0.00131018
0.00132207
0.00133433
0.00134697
0.00135998
0.00137338
0.00138716
0.00140134
0.00141591
0.00143088
0.00144626
0.00146205
0.00147825
0.00149487
0.00151192
0.0015294
0.00154731
0.00156567
0.00158446
0.00160371
0.00162342
0.00164359
0.00166422
0.00168532
0.00111113
0.00112692
0.00111239
0.00112205
0.00112171
0.00112377
0.00112693
0.00112982
0.00113328
0.00113715
0.00114135
0.00114592
0.00115085
0.00115612
0.00116175
0.00116771
0.00117402
0.00118067
0.00118766
0.00119499
0.00120265
0.00121065
0.001219
0.00122768
0.00123671
0.00124608
0.0012558
0.00126587
0.00127629
0.00128706
0.0012982
0.00130969
0.00132155
0.00133378
0.00134638
0.00135936
0.00137272
0.00138647
0.0014006
0.00141513
0.00143005
0.00144538
0.00146111
0.00147726
0.00149382
0.00151081
0.00152822
0.00154606
0.00156434
0.00158305
0.00160222
0.00162183
0.0016419
0.00166243
0.00168342
0.00111093
0.00112677
0.00111221
0.00112184
0.00112153
0.00112356
0.00112673
0.00112961
0.00113306
0.00113692
0.00114111
0.00114567
0.00115059
0.00115585
0.00116146
0.00116742
0.00117371
0.00118034
0.00118731
0.00119462
0.00120226
0.00121024
0.00121856
0.00122722
0.00123622
0.00124557
0.00125525
0.00126529
0.00127568
0.00128641
0.00129751
0.00130896
0.00132078
0.00133296
0.00134551
0.00135844
0.00137174
0.00138543
0.0013995
0.00141396
0.00142881
0.00144406
0.00145972
0.00147578
0.00149225
0.00150914
0.00152645
0.00154419
0.00156235
0.00158095
0.00159998
0.00161946
0.00163939
0.00165976
0.00168059
0.00111067
0.00112658
0.00111197
0.00112156
0.00112129
0.00112329
0.00112645
0.00112933
0.00113277
0.00113662
0.0011408
0.00114535
0.00115025
0.0011555
0.00116109
0.00116702
0.00117329
0.0011799
0.00118685
0.00119413
0.00120175
0.0012097
0.00121799
0.00122661
0.00123558
0.00124488
0.00125453
0.00126452
0.00127486
0.00128555
0.00129659
0.00130799
0.00131975
0.00133187
0.00134436
0.00135721
0.00137044
0.00138405
0.00139803
0.0014124
0.00142716
0.00144231
0.00145786
0.00147381
0.00149017
0.00150693
0.0015241
0.0015417
0.00155971
0.00157815
0.00159702
0.00161632
0.00163605
0.00165622
0.00167683
0.00111034
0.00112635
0.00111166
0.0011212
0.001121
0.00112295
0.00112611
0.00112898
0.00113241
0.00113625
0.00114041
0.00114494
0.00114982
0.00115505
0.00116062
0.00116653
0.00117277
0.00117936
0.00118627
0.00119352
0.0012011
0.00120902
0.00121727
0.00122585
0.00123477
0.00124403
0.00125362
0.00126356
0.00127385
0.00128447
0.00129545
0.00130678
0.00131847
0.00133051
0.00134291
0.00135568
0.00136882
0.00138232
0.00139621
0.00141047
0.00142511
0.00144014
0.00145555
0.00147136
0.00148757
0.00150418
0.00152119
0.00153861
0.00155643
0.00157467
0.00159333
0.00161241
0.00163191
0.00165183
0.00167217
0.00110996
0.00112604
0.00111132
0.00112076
0.00112065
0.00112253
0.00112571
0.00112857
0.00113198
0.0011358
0.00113994
0.00114445
0.00114931
0.00115451
0.00116006
0.00116594
0.00117215
0.0011787
0.00118558
0.00119279
0.00120033
0.0012082
0.0012164
0.00122494
0.0012338
0.00124301
0.00125254
0.00126242
0.00127263
0.00128319
0.00129409
0.00130534
0.00131693
0.00132888
0.00134119
0.00135385
0.00136688
0.00138027
0.00139403
0.00140815
0.00142266
0.00143754
0.0014528
0.00146844
0.00148447
0.00150089
0.00151771
0.00153492
0.00155253
0.00157053
0.00158895
0.00160776
0.00162698
0.00164661
0.00166663
0.00170798
0.00173046
0.0017539
0.00177837
0.00180393
0.00183067
0.00185862
0.00188787
0.0019185
0.0019506
0.00198426
0.0020196
0.00205674
0.00209582
0.00213697
0.00218037
0.00222619
0.00227462
0.00232587
0.00238016
0.00243774
0.00249887
0.00256386
0.00263304
0.00270677
0.00278545
0.00286955
0.00295956
0.00305606
0.00315968
0.00327112
0.00339118
0.00352074
0.00366078
0.00381239
0.00397676
0.00415516
0.00434894
0.00455943
0.00478779
0.00503478
0.00530035
0.00558301
0.00587923
0.00618325
0.00648757
0.00678341
0.00707333
0.00743162
0.00796666
0.001707
0.00172947
0.00175291
0.00177739
0.00180298
0.00182969
0.00185763
0.00188688
0.00191751
0.0019496
0.00198327
0.00201861
0.00205575
0.00209482
0.00213597
0.00217936
0.00222517
0.00227358
0.00232481
0.00237906
0.00243659
0.00249766
0.00256257
0.00263164
0.00270524
0.00278376
0.00286766
0.00295742
0.0030536
0.00315682
0.00326776
0.00338718
0.00351594
0.00365494
0.00380522
0.00396786
0.00414403
0.00433489
0.00454154
0.00476484
0.00500513
0.0052618
0.00553267
0.00581326
0.00609662
0.006374
0.00663587
0.00688384
0.00718757
0.0076482
0.00170504
0.00172752
0.00175098
0.00177544
0.00180099
0.0018277
0.00185564
0.00188488
0.0019155
0.0019476
0.00198126
0.0020166
0.00205374
0.00209282
0.00213396
0.00217734
0.00222313
0.00227151
0.00232268
0.00237686
0.0024343
0.00249524
0.00255999
0.00262886
0.00270221
0.00278041
0.00286391
0.00295318
0.00304874
0.00315118
0.00326113
0.00337931
0.00350648
0.00364345
0.00379111
0.00395038
0.00412214
0.00430723
0.00450629
0.00471954
0.00494649
0.0051854
0.00543258
0.00568167
0.00592333
0.00614624
0.0063396
0.00650345
0.00669343
0.00701958
0.00170213
0.00172459
0.00174802
0.00177247
0.00179802
0.00182472
0.00185264
0.00188187
0.00191249
0.00194457
0.00197823
0.00201357
0.0020507
0.00208977
0.0021309
0.00217426
0.00222001
0.00226833
0.00231942
0.00237349
0.00243077
0.00249152
0.00255602
0.00262458
0.00269753
0.00277525
0.00285814
0.00294665
0.00304126
0.00314251
0.00325098
0.00336726
0.00349203
0.00362593
0.00376966
0.00392384
0.00408901
0.00426548
0.00445321
0.00465151
0.00485861
0.00507107
0.00528295
0.00548503
0.00566439
0.00580574
0.00589626
0.00593778
0.00596952
0.00605883
0.00169824
0.0017207
0.00174412
0.00176856
0.0017941
0.00182078
0.0018487
0.00187791
0.00190852
0.0019406
0.00197425
0.00200959
0.00204673
0.0020858
0.00212693
0.00217027
0.00221598
0.00226423
0.00231523
0.00236916
0.00242626
0.00248677
0.00255096
0.00261912
0.00269158
0.00276867
0.00285078
0.00293831
0.00303168
0.00313138
0.00323786
0.00335165
0.00347321
0.00360303
0.00374149
0.00388885
0.00404513
0.00420999
0.00438245
0.00456055
0.00474086
0.00491767
0.00508209
0.00522117
0.00531746
0.00535044
0.00530356
0.00518252
0.00501628
0.00474204
0.00169343
0.00171589
0.00173932
0.00176377
0.00178931
0.001816
0.00184393
0.00187316
0.00190378
0.0019359
0.0019696
0.00200501
0.00204224
0.0020814
0.00212263
0.00216608
0.00221188
0.00226021
0.00231126
0.00236522
0.0024223
0.00248276
0.00254686
0.00261486
0.00268707
0.00276382
0.00284544
0.00293232
0.00302482
0.00312333
0.00322825
0.00333994
0.00345872
0.0035848
0.00371826
0.00385886
0.00400597
0.00415824
0.00431331
0.00446723
0.00461376
0.00474339
0.00484232
0.00489156
0.00486688
0.00474078
0.00449129
0.00412547
0.00366619
0.00290261
0.00168767
0.00171006
0.00173343
0.00175783
0.00178332
0.00180996
0.00183782
0.00186699
0.00189755
0.00192961
0.00196328
0.00199866
0.00203587
0.00207503
0.00211625
0.00215968
0.00220546
0.00225375
0.00230472
0.00235858
0.00241554
0.00247582
0.00253968
0.0026074
0.00267924
0.00275552
0.00283656
0.00292267
0.00301418
0.00311143
0.00321469
0.00332421
0.00344014
0.00356246
0.00369089
0.0038247
0.00396252
0.0041019
0.00423876
0.00436659
0.00447533
0.00455007
0.00456979
0.00450684
0.00432783
0.00399606
0.00348455
0.00280811
0.00193896
0.000550264
-0.00308616
-0.00304943
-0.00293129
-0.00274209
-0.00250068
-0.00222382
-0.00192878
-0.0016321
-0.00134812
-0.00108775
-0.000858109
-0.000662658
-0.000501806
-0.000373674
-0.000274895
-0.000201328
-0.000148616
-0.000112586
-8.94883e-05
-7.61198e-05
-6.98456e-05
-6.85617e-05
-7.06394e-05
-7.48694e-05
-8.03776e-05
-8.65195e-05
-9.28292e-05
-9.90028e-05
-0.000104851
-0.000110256
-0.000115156
-0.000119523
-0.000123355
-0.000126667
-0.000129484
-0.000131835
-0.000133753
-0.000135272
-0.000136427
-0.000137249
-0.000137768
-0.000138015
-0.000138015
-0.000137795
-0.000137375
-0.000136779
-0.000136024
-0.00013513
-0.000134111
-0.000132984
-0.00322619
-0.00315217
-0.0030127
-0.00281421
-0.00256648
-0.00228541
-0.00198729
-0.00168779
-0.00140078
-0.00113703
-0.000903633
-0.000704171
-0.000539192
-0.000406962
-0.000304242
-0.000226984
-0.000170893
-0.000131825
-0.000106038
-9.03177e-05
-8.20054e-05
-7.89687e-05
-7.95459e-05
-8.24961e-05
-8.69169e-05
-9.21368e-05
-9.76655e-05
-0.000103176
-0.000108461
-0.000113388
-0.00011788
-0.000121898
-0.000125432
-0.000128487
-0.000131082
-0.000133241
-0.000134992
-0.000136366
-0.000137393
-0.000138102
-0.000138523
-0.000138682
-0.000138604
-0.000138314
-0.000137833
-0.00013718
-0.000136376
-0.000135437
-0.000134378
-0.000133214
-0.00350916
-0.00333947
-0.003172
-0.00295365
-0.00269272
-0.00240357
-0.00209969
-0.00179498
-0.00150243
-0.00123244
-0.000992072
-0.00078508
-0.00061228
-0.000472224
-0.000361924
-0.000277527
-0.000214866
-0.000169868
-0.000138812
-0.000118468
-0.000106138
-9.96378e-05
-9.72467e-05
-9.76592e-05
-9.9917e-05
-0.000103305
-0.000107279
-0.000111471
-0.000115635
-0.000119608
-0.000123288
-0.000126612
-0.000129551
-0.000132095
-0.000134249
-0.000136026
-0.000137446
-0.000138531
-0.000139305
-0.000139791
-0.000140016
-0.000140001
-0.000139769
-0.00013934
-0.000138736
-0.000137974
-0.00013707
-0.000136042
-0.000134903
-0.000133668
-0.0038927
-0.00361665
-0.00340229
-0.00315312
-0.0028727
-0.00257147
-0.00225899
-0.00194678
-0.00164649
-0.00136789
-0.00111791
-0.00090049
-0.000716796
-0.000565774
-0.000444792
-0.000350282
-0.000278275
-0.000224808
-0.000186202
-0.000159214
-0.000141101
-0.000129608
-0.00012293
-0.000119678
-0.000118807
-0.000119534
-0.000121256
-0.000123534
-0.000126071
-0.00012866
-0.000131159
-0.000133475
-0.00013555
-0.000137351
-0.000138864
-0.000140087
-0.000141024
-0.000141688
-0.000142093
-0.000142256
-0.000142194
-0.000141926
-0.000141469
-0.00014084
-0.000140056
-0.000139133
-0.000138085
-0.000136927
-0.000135672
-0.000134331
-0.00434203
-0.00397445
-0.00369178
-0.00339925
-0.00309183
-0.00277377
-0.00245001
-0.00212894
-0.00182023
-0.0015325
-0.00127223
-0.00104339
-0.000847451
-0.000683786
-0.000550207
-0.000443526
-0.000360068
-0.000296066
-0.000247944
-0.000212491
-0.000186938
-0.000168974
-0.00015671
-0.000148654
-0.000143675
-0.000140899
-0.000139645
-0.000139396
-0.000139785
-0.000140547
-0.00014149
-0.000142477
-0.000143415
-0.000144239
-0.00014491
-0.000145403
-0.000145707
-0.000145819
-0.00014574
-0.000145478
-0.00014504
-0.00014444
-0.000143687
-0.000142795
-0.000141775
-0.000140641
-0.000139403
-0.000138075
-0.000136666
-0.000135186
-0.00479292
-0.00435598
-0.00399785
-0.0036531
-0.00331456
-0.00297967
-0.0026476
-0.0023226
-0.00201124
-0.00172002
-0.00145426
-0.00121756
-0.00101155
-0.000836099
-0.000689615
-0.000569524
-0.000472682
-0.000395746
-0.000335448
-0.000288773
-0.000253062
-0.000226038
-0.000205799
-0.00019079
-0.000179784
-0.000171828
-0.000166151
-0.000162139
-0.000159331
-0.000157381
-0.000156022
-0.000155053
-0.000154325
-0.000153728
-0.00015318
-0.000152627
-0.000152027
-0.000151355
-0.000150595
-0.000149736
-0.000148777
-0.000147716
-0.000146557
-0.000145304
-0.000143964
-0.000142544
-0.000141052
-0.000139495
-0.000137883
-0.000136222
-0.00513801
-0.00478434
-0.00438878
-0.0039896
-0.00361255
-0.00325244
-0.00290353
-0.0025668
-0.00224606
-0.00194575
-0.00166994
-0.00142166
-0.00120255
-0.00101275
-0.000851159
-0.000715709
-0.000603688
-0.000512115
-0.000438
-0.000378522
-0.000331137
-0.000293624
-0.000264074
-0.000240888
-0.000222762
-0.000208647
-0.000197679
-0.000189151
-0.000182497
-0.000177276
-0.00017314
-0.000169812
-0.000167076
-0.000164767
-0.000162758
-0.000160951
-0.000159275
-0.000157674
-0.00015611
-0.000154555
-0.000152988
-0.000151396
-0.000149772
-0.000148111
-0.000146411
-0.000144673
-0.000142899
-0.000141093
-0.000139259
-0.000137403
-0.000131758
-0.000130437
-0.000129014
-0.000127495
-0.000125889
-0.000124203
-0.000122441
-0.000120609
-0.000118709
-0.000116744
-0.000114715
-0.000112624
-0.000110474
-0.00010827
-0.000106015
-0.000103716
-0.000101379
-9.90093e-05
-9.66138e-05
-9.41981e-05
-9.17676e-05
-8.93273e-05
-8.68818e-05
-8.44352e-05
-8.19915e-05
-7.95541e-05
-7.71266e-05
-7.47121e-05
-7.23135e-05
-6.99339e-05
-6.75758e-05
-6.5242e-05
-6.29348e-05
-6.06567e-05
-5.84097e-05
-5.6196e-05
-5.40175e-05
-5.1876e-05
-4.97732e-05
-4.77107e-05
-4.56898e-05
-4.3712e-05
-4.17783e-05
-3.989e-05
-3.80479e-05
-3.62526e-05
-3.45053e-05
-3.28065e-05
-3.11564e-05
-2.95557e-05
-2.80045e-05
-2.6503e-05
-2.50514e-05
-2.36495e-05
-2.22974e-05
-2.09947e-05
-1.97412e-05
-1.85366e-05
-1.73802e-05
-1.62717e-05
-1.52103e-05
-1.41954e-05
-1.32262e-05
-1.23019e-05
-1.14216e-05
-1.05844e-05
-9.78925e-06
-9.03513e-06
-8.32096e-06
-7.6456e-06
-7.00791e-06
-6.40667e-06
-5.84066e-06
-5.30864e-06
-4.80934e-06
-4.34147e-06
-3.90378e-06
-3.49493e-06
-3.11364e-06
-2.75864e-06
-2.4285e-06
-2.12215e-06
-1.83801e-06
-1.5751e-06
-1.33197e-06
-1.10739e-06
-9.00323e-07
-7.09136e-07
-5.33099e-07
-3.70631e-07
-2.20675e-07
-8.23393e-08
4.6224e-08
1.65069e-07
2.77114e-07
3.8035e-07
4.83597e-07
5.6761e-07
6.8932e-07
7.03048e-07
9.81516e-07
6.34441e-07
1.68916e-06
-1.86897e-07
3.68911e-06
-2.84955e-06
7.94908e-06
-7.28553e-06
1.21041e-05
-7.63408e-06
7.07445e-06
5.3757e-06
-1.06842e-05
2.34919e-05
-2.01348e-05
-0.000131958
-0.000130613
-0.00012917
-0.000127632
-0.000126009
-0.000124307
-0.000122531
-0.000120685
-0.000118772
-0.000116795
-0.000114755
-0.000112655
-0.000110496
-0.000108285
-0.000106024
-0.00010372
-0.000101378
-9.90055e-05
-9.66073e-05
-9.41893e-05
-9.17568e-05
-8.93149e-05
-8.6868e-05
-8.44203e-05
-8.19756e-05
-7.95374e-05
-7.71092e-05
-7.46941e-05
-7.22952e-05
-6.99153e-05
-6.75571e-05
-6.52233e-05
-6.29161e-05
-6.06381e-05
-5.83913e-05
-5.61779e-05
-5.39997e-05
-5.18586e-05
-4.97562e-05
-4.76941e-05
-4.56737e-05
-4.36964e-05
-4.17632e-05
-3.98754e-05
-3.80338e-05
-3.62391e-05
-3.44923e-05
-3.2794e-05
-3.11445e-05
-2.95443e-05
-2.79936e-05
-2.64927e-05
-2.50415e-05
-2.36402e-05
-2.22885e-05
-2.09863e-05
-1.97333e-05
-1.85291e-05
-1.73732e-05
-1.62651e-05
-1.52041e-05
-1.41896e-05
-1.32208e-05
-1.22968e-05
-1.14169e-05
-1.058e-05
-9.78511e-06
-9.03128e-06
-8.31739e-06
-7.64229e-06
-7.00485e-06
-6.40384e-06
-5.83806e-06
-5.30624e-06
-4.80714e-06
-4.33945e-06
-3.90193e-06
-3.49325e-06
-3.11209e-06
-2.75723e-06
-2.42723e-06
-2.121e-06
-1.83697e-06
-1.57416e-06
-1.33113e-06
-1.10663e-06
-8.99652e-07
-7.08533e-07
-5.3257e-07
-3.70161e-07
-2.20268e-07
-8.19866e-08
4.6532e-08
1.65325e-07
2.77336e-07
3.8053e-07
4.83735e-07
5.67729e-07
6.89367e-07
7.03161e-07
9.81403e-07
6.34666e-07
1.68872e-06
-1.86325e-07
3.68817e-06
-2.84868e-06
7.94824e-06
-7.28562e-06
1.21052e-05
-7.63648e-06
7.07705e-06
5.37396e-06
-1.06851e-05
2.34948e-05
-2.0144e-05
-0.000132351
-0.000130961
-0.000129477
-0.000127902
-0.000126245
-0.000124511
-0.000122706
-0.000120833
-0.000118895
-0.000116895
-0.000114834
-0.000112715
-0.00011054
-0.000108314
-0.000106041
-0.000103727
-0.000101377
-9.89978e-05
-9.65941e-05
-9.41715e-05
-9.17352e-05
-8.92901e-05
-8.68404e-05
-8.43903e-05
-8.19436e-05
-7.95038e-05
-7.70743e-05
-7.46583e-05
-7.22586e-05
-6.98782e-05
-6.75197e-05
-6.51858e-05
-6.28787e-05
-6.0601e-05
-5.83546e-05
-5.61417e-05
-5.39641e-05
-5.18237e-05
-4.97221e-05
-4.76609e-05
-4.56414e-05
-4.36651e-05
-4.17329e-05
-3.98462e-05
-3.80056e-05
-3.6212e-05
-3.44663e-05
-3.27691e-05
-3.11206e-05
-2.95215e-05
-2.79719e-05
-2.6472e-05
-2.50219e-05
-2.36215e-05
-2.22708e-05
-2.09696e-05
-1.97175e-05
-1.85142e-05
-1.73591e-05
-1.62518e-05
-1.51917e-05
-1.41779e-05
-1.32098e-05
-1.22866e-05
-1.14073e-05
-1.05711e-05
-9.77683e-06
-9.02359e-06
-8.31024e-06
-7.63568e-06
-6.99872e-06
-6.39819e-06
-5.83285e-06
-5.30144e-06
-4.80273e-06
-4.33541e-06
-3.89823e-06
-3.48987e-06
-3.10901e-06
-2.75443e-06
-2.42468e-06
-2.11869e-06
-1.83489e-06
-1.57228e-06
-1.32944e-06
-1.10512e-06
-8.98306e-07
-7.07331e-07
-5.31512e-07
-3.69225e-07
-2.19455e-07
-8.12796e-08
4.714e-08
1.65841e-07
2.77776e-07
3.80881e-07
4.84016e-07
5.67957e-07
6.89469e-07
7.03364e-07
9.81196e-07
6.35102e-07
1.68784e-06
-1.85182e-07
3.68629e-06
-2.84695e-06
7.94653e-06
-7.2858e-06
1.21072e-05
-7.64127e-06
7.08225e-06
5.37046e-06
-1.06868e-05
2.35006e-05
-2.01621e-05
-0.000132926
-0.00013147
-0.000129927
-0.000128298
-0.000126591
-0.000124811
-0.000122963
-0.00012105
-0.000119076
-0.000117041
-0.00011495
-0.000112802
-0.000110603
-0.000108356
-0.000106066
-0.000103737
-0.000101376
-9.89861e-05
-9.65741e-05
-9.41447e-05
-9.17026e-05
-8.92526e-05
-8.67988e-05
-8.43452e-05
-8.18955e-05
-7.94533e-05
-7.70219e-05
-7.46043e-05
-7.22035e-05
-6.98224e-05
-6.74635e-05
-6.51294e-05
-6.28225e-05
-6.05452e-05
-5.82994e-05
-5.60873e-05
-5.39107e-05
-5.17714e-05
-4.9671e-05
-4.76111e-05
-4.5593e-05
-4.36181e-05
-4.16875e-05
-3.98024e-05
-3.79633e-05
-3.61713e-05
-3.44273e-05
-3.27317e-05
-3.10849e-05
-2.94873e-05
-2.79393e-05
-2.64409e-05
-2.49923e-05
-2.35935e-05
-2.22443e-05
-2.09445e-05
-1.96938e-05
-1.84918e-05
-1.7338e-05
-1.6232e-05
-1.5173e-05
-1.41604e-05
-1.31934e-05
-1.22713e-05
-1.1393e-05
-1.05577e-05
-9.76441e-06
-9.01204e-06
-8.29953e-06
-7.62575e-06
-6.98954e-06
-6.3897e-06
-5.82503e-06
-5.29424e-06
-4.79612e-06
-4.32935e-06
-3.89268e-06
-3.4848e-06
-3.10439e-06
-2.75023e-06
-2.42087e-06
-2.11523e-06
-1.83177e-06
-1.56947e-06
-1.32692e-06
-1.10285e-06
-8.96288e-07
-7.05531e-07
-5.29925e-07
-3.67825e-07
-2.18236e-07
-8.02199e-08
4.80507e-08
1.66614e-07
2.78431e-07
3.8141e-07
4.84432e-07
5.683e-07
6.89619e-07
7.03666e-07
9.80885e-07
6.35747e-07
1.68653e-06
-1.83492e-07
3.6835e-06
-2.84441e-06
7.94408e-06
-7.28621e-06
1.21104e-05
-7.64863e-06
7.09017e-06
5.3652e-06
-1.06894e-05
2.35095e-05
-2.01886e-05
-0.000133667
-0.000132128
-0.000130509
-0.000128809
-0.000127037
-0.000125197
-0.000123294
-0.000121329
-0.000119307
-0.000117229
-0.000115098
-0.000112915
-0.000110685
-0.000108411
-0.000106098
-0.00010375
-0.000101373
-9.897e-05
-9.65472e-05
-9.41086e-05
-9.16589e-05
-8.92023e-05
-8.67429e-05
-8.42847e-05
-8.18311e-05
-7.93857e-05
-7.69517e-05
-7.45321e-05
-7.21299e-05
-6.97477e-05
-6.73883e-05
-6.50541e-05
-6.27475e-05
-6.04707e-05
-5.82257e-05
-5.60147e-05
-5.38394e-05
-5.17015e-05
-4.96028e-05
-4.75447e-05
-4.55285e-05
-4.35555e-05
-4.16269e-05
-3.97439e-05
-3.7907e-05
-3.61171e-05
-3.43753e-05
-3.26818e-05
-3.10372e-05
-2.94417e-05
-2.78958e-05
-2.63995e-05
-2.4953e-05
-2.35562e-05
-2.22089e-05
-2.0911e-05
-1.96621e-05
-1.84619e-05
-1.73099e-05
-1.62055e-05
-1.51481e-05
-1.41371e-05
-1.31716e-05
-1.22508e-05
-1.13739e-05
-1.05399e-05
-9.74785e-06
-8.99666e-06
-8.28525e-06
-7.61252e-06
-6.97731e-06
-6.3784e-06
-5.81461e-06
-5.28465e-06
-4.78732e-06
-4.32127e-06
-3.88529e-06
-3.47804e-06
-3.09824e-06
-2.74463e-06
-2.41578e-06
-2.11063e-06
-1.82761e-06
-1.56572e-06
-1.32356e-06
-1.09984e-06
-8.93599e-07
-7.03135e-07
-5.2781e-07
-3.6596e-07
-2.1661e-07
-7.88079e-08
4.92643e-08
1.67644e-07
2.79299e-07
3.82115e-07
4.84982e-07
5.68759e-07
6.89815e-07
7.04063e-07
9.80477e-07
6.36584e-07
1.68482e-06
-1.81332e-07
3.67994e-06
-2.84132e-06
7.94125e-06
-7.28738e-06
1.21155e-05
-7.65915e-06
7.10116e-06
5.35827e-06
-1.06936e-05
2.35225e-05
-2.02237e-05
-0.000134561
-0.00013292
-0.00013121
-0.000129425
-0.000127574
-0.000125662
-0.000123691
-0.000121664
-0.000119584
-0.000117453
-0.000115274
-0.000113049
-0.000110782
-0.000108476
-0.000106135
-0.000103765
-0.000101368
-9.89492e-05
-9.65129e-05
-9.4063e-05
-9.16036e-05
-8.91389e-05
-8.66726e-05
-8.42085e-05
-8.17501e-05
-7.93007e-05
-7.68635e-05
-7.44415e-05
-7.20375e-05
-6.96542e-05
-6.72942e-05
-6.49599e-05
-6.26536e-05
-6.03774e-05
-5.81336e-05
-5.59239e-05
-5.37502e-05
-5.16142e-05
-4.95175e-05
-4.74616e-05
-4.54478e-05
-4.34773e-05
-4.15512e-05
-3.96708e-05
-3.78366e-05
-3.60494e-05
-3.43103e-05
-3.26195e-05
-3.09775e-05
-2.93848e-05
-2.78415e-05
-2.63479e-05
-2.49039e-05
-2.35095e-05
-2.21647e-05
-2.08692e-05
-1.96226e-05
-1.84246e-05
-1.72747e-05
-1.61724e-05
-1.51171e-05
-1.4108e-05
-1.31443e-05
-1.22253e-05
-1.13501e-05
-1.05177e-05
-9.72717e-06
-8.97743e-06
-8.26741e-06
-7.59599e-06
-6.96202e-06
-6.36428e-06
-5.80159e-06
-5.27267e-06
-4.77631e-06
-4.31118e-06
-3.87606e-06
-3.46961e-06
-3.09055e-06
-2.73763e-06
-2.40943e-06
-2.10487e-06
-1.82242e-06
-1.56104e-06
-1.31936e-06
-1.09607e-06
-8.90241e-07
-7.00144e-07
-5.25168e-07
-3.63633e-07
-2.14579e-07
-7.70442e-08
5.07806e-08
1.68931e-07
2.80381e-07
3.82998e-07
4.85665e-07
5.69333e-07
6.90057e-07
7.04559e-07
9.79962e-07
6.37635e-07
1.68268e-06
-1.78612e-07
3.67546e-06
-2.83741e-06
7.93766e-06
-7.28878e-06
1.21217e-05
-7.67227e-06
7.11488e-06
5.34959e-06
-1.06986e-05
2.35383e-05
-2.02645e-05
-0.000135586
-0.00013383
-0.000132014
-0.000130131
-0.00012819
-0.000126194
-0.000124145
-0.000122047
-0.000119901
-0.00011771
-0.000115476
-0.000113203
-0.000110893
-0.00010855
-0.000106178
-0.000103781
-0.000101361
-9.89235e-05
-9.64711e-05
-9.40075e-05
-9.15366e-05
-8.90621e-05
-8.65875e-05
-8.41164e-05
-8.16522e-05
-7.91981e-05
-7.67572e-05
-7.43323e-05
-7.19262e-05
-6.95416e-05
-6.71809e-05
-6.48465e-05
-6.25406e-05
-6.02653e-05
-5.80228e-05
-5.58147e-05
-5.3643e-05
-5.15093e-05
-4.94151e-05
-4.73618e-05
-4.53509e-05
-4.33834e-05
-4.14604e-05
-3.95831e-05
-3.77521e-05
-3.59682e-05
-3.42323e-05
-3.25448e-05
-3.0906e-05
-2.93165e-05
-2.77764e-05
-2.62859e-05
-2.48449e-05
-2.34536e-05
-2.21117e-05
-2.0819e-05
-1.95752e-05
-1.83799e-05
-1.72326e-05
-1.61328e-05
-1.50798e-05
-1.4073e-05
-1.31116e-05
-1.21947e-05
-1.13215e-05
-1.04911e-05
-9.70237e-06
-8.95438e-06
-8.24602e-06
-7.57617e-06
-6.94368e-06
-6.34735e-06
-5.78599e-06
-5.2583e-06
-4.76312e-06
-4.29908e-06
-3.86498e-06
-3.45949e-06
-3.08132e-06
-2.72924e-06
-2.40182e-06
-2.09798e-06
-1.81619e-06
-1.55543e-06
-1.31432e-06
-1.09155e-06
-8.86214e-07
-6.9656e-07
-5.22001e-07
-3.60842e-07
-2.12143e-07
-7.49293e-08
5.25988e-08
1.70474e-07
2.81675e-07
3.84058e-07
4.86478e-07
5.7003e-07
6.90325e-07
7.05201e-07
9.7923e-07
6.39145e-07
1.67959e-06
-1.74332e-07
3.66824e-06
-2.82968e-06
7.92877e-06
-7.28439e-06
1.21223e-05
-7.68178e-06
7.12799e-06
5.33763e-06
-1.06972e-05
2.35458e-05
-2.02973e-05
-0.000136761
-0.000134872
-0.00013293
-0.000130935
-0.00012889
-0.000126798
-0.000124661
-0.000122481
-0.00012026
-0.000118002
-0.000115707
-0.00011338
-0.000111022
-0.000108637
-0.000106229
-0.0001038
-0.000101354
-9.8893e-05
-9.6421e-05
-9.39409e-05
-9.1456e-05
-8.89696e-05
-8.6485e-05
-8.40055e-05
-8.15344e-05
-7.90748e-05
-7.66294e-05
-7.42012e-05
-7.17927e-05
-6.94065e-05
-6.70451e-05
-6.47106e-05
-6.24053e-05
-6.01312e-05
-5.78902e-05
-5.56842e-05
-5.35149e-05
-5.13839e-05
-4.92927e-05
-4.72426e-05
-4.52351e-05
-4.32711e-05
-4.13518e-05
-3.94783e-05
-3.76512e-05
-3.58711e-05
-3.41391e-05
-3.24555e-05
-3.08206e-05
-2.92349e-05
-2.76986e-05
-2.62118e-05
-2.47746e-05
-2.33868e-05
-2.20484e-05
-2.07591e-05
-1.95186e-05
-1.83265e-05
-1.71823e-05
-1.60854e-05
-1.50353e-05
-1.40313e-05
-1.30725e-05
-1.21582e-05
-1.12874e-05
-1.04593e-05
-9.67276e-06
-8.92686e-06
-8.22048e-06
-7.55251e-06
-6.92179e-06
-6.32713e-06
-5.76735e-06
-5.24115e-06
-4.74736e-06
-4.28463e-06
-3.85176e-06
-3.44741e-06
-3.07032e-06
-2.71922e-06
-2.39273e-06
-2.08974e-06
-1.80876e-06
-1.54872e-06
-1.30831e-06
-1.08616e-06
-8.81406e-07
-6.92282e-07
-5.18219e-07
-3.57512e-07
-2.09234e-07
-7.24045e-08
5.47691e-08
1.72317e-07
2.83216e-07
3.85325e-07
4.87443e-07
5.70873e-07
6.90612e-07
7.06041e-07
9.78171e-07
6.41358e-07
1.67502e-06
-1.67483e-07
3.65641e-06
-2.81505e-06
7.90992e-06
-7.26805e-06
1.21102e-05
-7.68149e-06
7.13728e-06
5.32049e-06
-1.06817e-05
2.35331e-05
-2.03086e-05
-0.000138072
-0.000136033
-0.000133952
-0.000131831
-0.000129669
-0.000127469
-0.000125233
-0.000122962
-0.000120658
-0.000118323
-0.000115961
-0.000113572
-0.00011116
-0.000108729
-0.000106279
-0.000103815
-0.000101339
-9.88525e-05
-9.63584e-05
-9.38594e-05
-9.13584e-05
-8.88583e-05
-8.63622e-05
-8.38732e-05
-8.13942e-05
-7.89281e-05
-7.64777e-05
-7.40457e-05
-7.16346e-05
-6.92467e-05
-6.68845e-05
-6.45501e-05
-6.22455e-05
-5.99728e-05
-5.77338e-05
-5.55303e-05
-5.33639e-05
-5.12361e-05
-4.91485e-05
-4.71023e-05
-4.50987e-05
-4.3139e-05
-4.12241e-05
-3.9355e-05
-3.75324e-05
-3.5757e-05
-3.40296e-05
-3.23505e-05
-3.07202e-05
-2.9139e-05
-2.76072e-05
-2.61248e-05
-2.46918e-05
-2.33083e-05
-2.1974e-05
-2.06887e-05
-1.9452e-05
-1.82637e-05
-1.71231e-05
-1.60298e-05
-1.49831e-05
-1.39823e-05
-1.30266e-05
-1.21152e-05
-1.12473e-05
-1.04219e-05
-9.63795e-06
-8.89451e-06
-8.19046e-06
-7.52469e-06
-6.89607e-06
-6.30337e-06
-5.74545e-06
-5.22099e-06
-4.72885e-06
-4.26765e-06
-3.83623e-06
-3.43322e-06
-3.05738e-06
-2.70745e-06
-2.38205e-06
-2.08007e-06
-1.80002e-06
-1.54085e-06
-1.30124e-06
-1.07982e-06
-8.75757e-07
-6.87256e-07
-5.13776e-07
-3.536e-07
-2.05816e-07
-6.94377e-08
5.73202e-08
1.74481e-07
2.85028e-07
3.86811e-07
4.88586e-07
5.71833e-07
6.91025e-07
7.06845e-07
9.77332e-07
6.43102e-07
1.67132e-06
-1.62519e-07
3.64773e-06
-2.80591e-06
7.899e-06
-7.26262e-06
1.21103e-05
-7.69261e-06
7.15294e-06
5.30512e-06
-1.06778e-05
2.35388e-05
-2.03422e-05
-0.000139469
-0.00013727
-0.000135043
-0.000132785
-0.000130499
-0.000128183
-0.000125841
-0.000123472
-0.000121079
-0.000118664
-0.000116228
-0.000113775
-0.000111306
-0.000108823
-0.00010633
-0.000103828
-0.000101318
-9.88029e-05
-9.62842e-05
-9.37641e-05
-9.12452e-05
-8.87299e-05
-8.6221e-05
-8.37214e-05
-8.12336e-05
-7.87606e-05
-7.63047e-05
-7.38686e-05
-7.14546e-05
-6.90651e-05
-6.67022e-05
-6.43679e-05
-6.20643e-05
-5.97933e-05
-5.75566e-05
-5.5356e-05
-5.31929e-05
-5.10689e-05
-4.89853e-05
-4.69435e-05
-4.49446e-05
-4.29897e-05
-4.10797e-05
-3.92157e-05
-3.73982e-05
-3.5628e-05
-3.39058e-05
-3.22319e-05
-3.06068e-05
-2.90307e-05
-2.75039e-05
-2.60265e-05
-2.45984e-05
-2.32196e-05
-2.18899e-05
-2.06091e-05
-1.93769e-05
-1.81928e-05
-1.70563e-05
-1.5967e-05
-1.49241e-05
-1.39269e-05
-1.29747e-05
-1.20667e-05
-1.1202e-05
-1.03797e-05
-9.59866e-06
-8.85799e-06
-8.15657e-06
-7.49329e-06
-6.86703e-06
-6.27655e-06
-5.72073e-06
-5.19823e-06
-4.70795e-06
-4.24848e-06
-3.81869e-06
-3.41719e-06
-3.04277e-06
-2.69416e-06
-2.36999e-06
-2.06914e-06
-1.79016e-06
-1.53196e-06
-1.29326e-06
-1.07267e-06
-8.6938e-07
-6.81584e-07
-5.0876e-07
-3.49184e-07
-2.01956e-07
-6.60889e-08
6.02003e-08
1.76924e-07
2.87073e-07
3.88485e-07
4.89884e-07
5.72896e-07
6.9154e-07
7.07635e-07
9.76635e-07
6.44559e-07
1.66812e-06
-1.58608e-07
3.64062e-06
-2.79952e-06
7.89168e-06
-7.26203e-06
1.21153e-05
-7.70837e-06
7.1711e-06
5.29015e-06
-1.06776e-05
2.35504e-05
-2.03828e-05
-0.000140934
-0.000138568
-0.000136184
-0.000133784
-0.000131365
-0.000128928
-0.000126474
-0.000124004
-0.000121518
-0.000119018
-0.000116506
-0.000113984
-0.000111455
-0.000108919
-0.000106378
-0.000103835
-0.000101289
-9.87425e-05
-9.6197e-05
-9.36539e-05
-9.11152e-05
-8.85833e-05
-8.60605e-05
-8.35493e-05
-8.10521e-05
-7.85715e-05
-7.61098e-05
-7.36694e-05
-7.12524e-05
-6.88612e-05
-6.64977e-05
-6.41638e-05
-6.18615e-05
-5.95925e-05
-5.73585e-05
-5.51611e-05
-5.30019e-05
-5.08821e-05
-4.88032e-05
-4.67663e-05
-4.47726e-05
-4.2823e-05
-4.09186e-05
-3.90603e-05
-3.72486e-05
-3.54841e-05
-3.37677e-05
-3.20997e-05
-3.04804e-05
-2.891e-05
-2.73888e-05
-2.59169e-05
-2.44943e-05
-2.31208e-05
-2.17963e-05
-2.05205e-05
-1.92932e-05
-1.81138e-05
-1.69819e-05
-1.5897e-05
-1.48583e-05
-1.38652e-05
-1.2917e-05
-1.20127e-05
-1.11516e-05
-1.03327e-05
-9.5549e-06
-8.81732e-06
-8.11883e-06
-7.45832e-06
-6.83468e-06
-6.24667e-06
-5.69319e-06
-5.17289e-06
-4.68467e-06
-4.22713e-06
-3.79915e-06
-3.39934e-06
-3.02651e-06
-2.67936e-06
-2.35656e-06
-2.05698e-06
-1.77918e-06
-1.52206e-06
-1.28437e-06
-1.06471e-06
-8.62278e-07
-6.75267e-07
-5.03173e-07
-3.44267e-07
-1.97658e-07
-6.23593e-08
6.34077e-08
1.79645e-07
2.89349e-07
3.90348e-07
4.91331e-07
5.74068e-07
6.92137e-07
7.08458e-07
9.75967e-07
6.45975e-07
1.66489e-06
-1.54735e-07
3.63326e-06
-2.79279e-06
7.88333e-06
-7.2601e-06
1.21183e-05
-7.72234e-06
7.18824e-06
5.27405e-06
-1.06737e-05
2.35562e-05
-2.04158e-05
-0.000142448
-0.000139906
-0.000137362
-0.000134812
-0.000132256
-0.000129694
-0.000127124
-0.000124548
-0.000121966
-0.000119379
-0.000116788
-0.000114196
-0.000111603
-0.00010901
-0.00010642
-0.000103833
-0.000101249
-9.86691e-05
-9.60947e-05
-9.35268e-05
-9.09671e-05
-8.84173e-05
-8.58795e-05
-8.33559e-05
-8.08487e-05
-7.83601e-05
-7.58923e-05
-7.34474e-05
-7.10275e-05
-6.86347e-05
-6.62707e-05
-6.39374e-05
-6.16367e-05
-5.93701e-05
-5.71392e-05
-5.49456e-05
-5.27907e-05
-5.06757e-05
-4.86019e-05
-4.65706e-05