/*--------------------------------*- C++ -*----------------------------------*\
| =========                 |                                                 |
| \\      /  F ield         | OpenFOAM: The Open Source CFD Toolbox           |
|  \\    /   O peration     | Version:  2412                                  |
|   \\  /    A nd           | Website:  www.openfoam.com                      |
|    \\/     M anipulation  |                                                 |
\*---------------------------------------------------------------------------*/
FoamFile
{
    version     2.0;
    format      ascii;
    arch        "LSB;label=32;scalar=64";
    class       surfaceScalarField;
    location    "5.5";
    object      phi;
}
// * * * * * * * * * * * * * * * * * * * * * * * * * * * * * * * * * * * * * //

dimensions      [0 3 -1 0 0 0 0];

oriented        oriented;

internalField   nonuniform List<scalar> 
126304
(
0.00505081
-5.13798e-08
-1.24404e-11
0.00504815
2.65772e-06
-1.80042e-09
0.00504245
5.71046e-06
-5.03092e-09
0.00503532
7.13164e-06
-6.4352e-09
0.00502923
6.10026e-06
-4.94764e-09
0.00502511
4.11699e-06
-1.74557e-09
0.00502271
2.40241e-06
1.5484e-09
0.00502128
1.4272e-06
3.99899e-09
0.00502017
1.10563e-06
5.47558e-09
0.005019
1.15949e-06
6.19407e-09
0.00501763
1.36199e-06
6.42689e-09
0.00501604
1.58778e-06
6.41147e-09
0.00501424
1.78686e-06
6.29693e-09
0.00501229
1.94925e-06
6.17543e-09
0.0050102
2.0806e-06
6.07512e-09
0.00500801
2.18996e-06
6.00503e-09
0.00500571
2.28538e-06
5.94583e-09
0.00500334
2.37283e-06
5.88785e-09
0.00500087
2.45643e-06
5.81552e-09
0.00499833
2.53891e-06
5.7292e-09
0.0049957
2.62204e-06
5.63352e-09
0.00499299
2.70701e-06
5.52522e-09
0.00499019
2.79457e-06
5.39914e-09
0.0049873
2.88523e-06
5.25646e-09
0.00498431
2.97932e-06
5.09884e-09
0.00498123
3.07704e-06
4.93504e-09
0.00497805
3.17856e-06
4.76441e-09
0.00497476
3.28398e-06
4.58817e-09
0.00497136
3.39339e-06
4.39973e-09
0.00496785
3.50688e-06
4.19906e-09
0.00496422
3.62451e-06
3.98317e-09
0.00496047
3.74635e-06
3.75608e-09
0.0049566
3.87248e-06
3.51949e-09
0.00495259
4.00297e-06
3.27766e-09
0.00494845
4.13791e-06
3.0332e-09
0.00494417
4.27741e-06
2.78684e-09
0.00493974
4.42159e-06
2.53852e-09
0.00493517
4.5706e-06
2.28535e-09
0.00493045
4.7246e-06
2.0263e-09
0.00492556
4.88378e-06
1.75959e-09
0.00492051
5.04834e-06
1.48566e-09
0.00491529
5.21856e-06
1.20573e-09
0.00490989
5.39472e-06
9.22236e-10
0.00490432
5.57716e-06
6.37253e-10
0.00489855
5.76631e-06
3.521e-10
0.00489259
5.96265e-06
6.71377e-11
0.00488642
6.16677e-06
-2.17639e-10
0.00488004
6.37937e-06
-5.0205e-10
0.00487344
6.6013e-06
-7.8497e-10
0.00486661
6.83349e-06
-1.06388e-09
0.00485953
7.07694e-06
-1.33522e-09
0.0048522
7.33256e-06
-1.59447e-09
0.0048446
7.60107e-06
-1.83674e-09
0.00483672
7.88328e-06
-2.05714e-09
8.18189e-06
0.00482854
-2.25195e-09
0.00505081
-1.0189e-07
0.00504821
5.25635e-06
0.00504262
1.12986e-05
0.0050356
1.4149e-05
0.00502956
1.21426e-05
0.00502544
8.24135e-06
0.00502298
4.8544e-06
0.00502149
2.91827e-06
0.00502033
2.27125e-06
0.00501912
2.36744e-06
0.00501772
2.76008e-06
0.00501611
3.20146e-06
0.0050143
3.59214e-06
0.00501234
3.91181e-06
0.00501025
4.1711e-06
0.00500805
4.38757e-06
0.00500576
4.5769e-06
0.00500338
4.75076e-06
0.00500092
4.91718e-06
0.00499838
5.08152e-06
0.00499575
5.24729e-06
0.00499304
5.41677e-06
0.00499025
5.59148e-06
0.00498736
5.77238e-06
0.00498438
5.96012e-06
0.0049813
6.15514e-06
0.00497812
6.35772e-06
0.00497484
6.5681e-06
0.00497145
6.78645e-06
0.00496794
7.01291e-06
0.00496432
7.24763e-06
0.00496057
7.49073e-06
0.0049567
7.74236e-06
0.0049527
8.00268e-06
0.00494857
8.27187e-06
0.0049443
8.55014e-06
0.00493988
8.83773e-06
0.00493532
9.13492e-06
0.0049306
9.44202e-06
0.00492572
9.75941e-06
0.00492068
1.00875e-05
0.00491547
1.04268e-05
0.00491009
1.07779e-05
0.00490453
1.11415e-05
0.00489878
1.15183e-05
0.00489283
1.19094e-05
0.00488668
1.23158e-05
0.00488032
1.2739e-05
0.00487374
1.31805e-05
0.00486693
1.36422e-05
0.00485988
1.4126e-05
0.00485258
1.46336e-05
0.00484502
1.51664e-05
0.00483717
1.57259e-05
1.63172e-05
0.00482904
0.00505081
-1.5115e-07
0.00504832
7.74054e-06
0.00504297
1.66547e-05
0.00503616
2.09547e-05
0.00503022
1.80819e-05
0.00502608
1.23848e-05
0.00502353
7.40142e-06
0.00502192
4.52715e-06
0.00502065
3.5438e-06
0.00501936
3.65814e-06
0.0050179
4.2162e-06
0.00501625
4.85319e-06
0.00501442
5.42106e-06
0.00501245
5.88822e-06
0.00501035
6.26898e-06
0.00500815
6.5883e-06
0.00500585
6.8687e-06
0.00500348
7.12702e-06
0.00500102
7.37488e-06
0.00499848
7.62006e-06
0.00499586
7.86764e-06
0.00499316
8.12096e-06
0.00499037
8.38221e-06
0.00498749
8.6528e-06
0.00498451
8.93367e-06
0.00498144
9.22545e-06
0.00497827
9.52857e-06
0.004975
9.84335e-06
0.00497161
1.017e-05
0.00496812
1.05089e-05
0.0049645
1.086e-05
0.00496077
1.12236e-05
0.00495691
1.16e-05
0.00495293
1.19893e-05
0.00494881
1.23919e-05
0.00494455
1.28079e-05
0.00494015
1.32379e-05
0.0049356
1.36821e-05
0.0049309
1.4141e-05
0.00492605
1.46153e-05
0.00492103
1.51054e-05
0.00491584
1.56121e-05
0.00491049
1.61363e-05
0.00490495
1.66789e-05
0.00489923
1.72411e-05
0.00489331
1.78242e-05
0.0048872
1.84299e-05
0.00488088
1.90602e-05
0.00487434
1.97173e-05
0.00486758
2.04038e-05
0.00486058
2.11223e-05
0.00485334
2.18754e-05
0.00484584
2.26649e-05
0.00483807
2.34925e-05
2.4365e-05
0.00483003
0.00505081
-1.99407e-07
0.00504849
1.00544e-05
0.00504347
2.16713e-05
0.00503698
2.74533e-05
0.00503118
2.38742e-05
0.00502701
1.65584e-05
0.00502432
1.00877e-05
0.00502254
6.30729e-06
0.00502112
4.97118e-06
0.00501971
5.0683e-06
0.00501817
5.75591e-06
0.00501646
6.55962e-06
0.0050146
7.28389e-06
0.0050126
7.88441e-06
0.00501049
8.37729e-06
0.00500829
8.79331e-06
0.005006
9.16066e-06
0.00500362
9.5006e-06
0.00500117
9.82788e-06
0.00499864
1.01524e-05
0.00499602
1.04806e-05
0.00499333
1.08167e-05
0.00499055
1.11637e-05
0.00498768
1.15231e-05
0.00498471
1.18963e-05
0.00498166
1.22841e-05
0.0049785
1.26869e-05
0.00497524
1.31053e-05
0.00497187
1.35394e-05
0.00496839
1.39896e-05
0.00496479
1.44562e-05
0.00496107
1.49393e-05
0.00495723
1.54393e-05
0.00495327
1.59564e-05
0.00494917
1.64909e-05
0.00494493
1.70433e-05
0.00494056
1.7614e-05
0.00493603
1.82036e-05
0.00493136
1.88125e-05
0.00492654
1.94415e-05
0.00492155
2.00914e-05
0.0049164
2.07631e-05
0.00491108
2.14576e-05
0.00490558
2.21761e-05
0.0048999
2.29202e-05
0.00489404
2.36916e-05
0.00488797
2.44922e-05
0.00488171
2.53245e-05
0.00487523
2.61912e-05
0.00486854
2.70957e-05
0.00486162
2.8041e-05
0.00485447
2.90302e-05
0.00484707
3.00652e-05
0.00483941
3.1148e-05
3.22863e-05
0.00483149
0.0050508
-2.4709e-07
0.00504871
1.21461e-05
0.00504413
2.62553e-05
0.00503802
3.35628e-05
0.00503241
2.94831e-05
0.0050282
2.07728e-05
0.00502533
1.29518e-05
0.00502334
8.30433e-06
0.00502171
6.59387e-06
0.00502015
6.62881e-06
0.00501851
7.40062e-06
0.00501673
8.33463e-06
0.00501483
9.1891e-06
0.00501281
9.90518e-06
0.00501069
1.04984e-05
0.00500848
1.10033e-05
0.00500618
1.14523e-05
0.00500381
1.18703e-05
0.00500137
1.22744e-05
0.00499884
1.26763e-05
0.00499624
1.30835e-05
0.00499356
1.35012e-05
0.00499079
1.39327e-05
0.00498793
1.43799e-05
0.00498498
1.48444e-05
0.00498194
1.53271e-05
0.0049788
1.58286e-05
0.00497555
1.63494e-05
0.0049722
1.68898e-05
0.00496874
1.74502e-05
0.00496517
1.80309e-05
0.00496147
1.86321e-05
0.00495766
1.92541e-05
0.00495372
1.98973e-05
0.00494965
2.05621e-05
0.00494544
2.12489e-05
0.0049411
2.19583e-05
0.00493661
2.26909e-05
0.00493198
2.34473e-05
0.00492719
2.42284e-05
0.00492225
2.50351e-05
0.00491714
2.58684e-05
0.00491187
2.67296e-05
0.00490642
2.76201e-05
0.0049008
2.85417e-05
0.004895
2.94962e-05
0.004889
3.04859e-05
0.00488282
3.15137e-05
0.00487642
3.25827e-05
0.00486982
3.36964e-05
0.00486301
3.48584e-05
0.00485596
3.60717e-05
0.00484869
3.73384e-05
0.00484118
3.86599e-05
4.00427e-05
0.00483342
0.00505081
-2.95356e-07
0.00504898
1.39758e-05
0.0050449
3.03331e-05
0.00503924
3.92226e-05
0.00503384
3.48813e-05
0.00502958
2.50361e-05
0.00502651
1.60222e-05
0.00502426
1.05521e-05
0.00502241
8.44191e-06
0.00502068
8.36255e-06
0.00501891
9.16619e-06
0.00501706
1.01885e-05
0.0050151
1.11429e-05
0.00501305
1.19539e-05
0.00501092
1.26337e-05
0.0050087
1.32184e-05
0.00500641
1.3743e-05
0.00500405
1.42347e-05
0.00500161
1.47126e-05
0.0049991
1.51895e-05
0.00499651
1.56739e-05
0.00499384
1.61716e-05
0.00499108
1.66861e-05
0.00498824
1.72198e-05
0.00498531
1.77742e-05
0.00498229
1.83506e-05
0.00497917
1.89494e-05
0.00497595
1.95713e-05
0.00497262
2.02166e-05
0.00496919
2.08856e-05
0.00496564
2.15787e-05
0.00496197
2.22962e-05
0.00495819
2.30384e-05
0.00495428
2.38056e-05
0.00495024
2.45984e-05
0.00494608
2.54173e-05
0.00494177
2.62628e-05
0.00493733
2.71356e-05
0.00493274
2.80365e-05
0.004928
2.89663e-05
0.00492311
2.99261e-05
0.00491806
3.09171e-05
0.00491285
3.19406e-05
0.00490747
3.29982e-05
0.00490192
3.40917e-05
0.00489619
3.52233e-05
0.00489028
3.63954e-05
0.00488419
3.76109e-05
0.0048779
3.88732e-05
0.00487141
4.01859e-05
0.00486471
4.15526e-05
0.00485781
4.29764e-05
0.00485069
4.44587e-05
0.00484335
4.59995e-05
4.76027e-05
0.00483579
0.0050508
-3.34497e-07
0.00504928
1.54954e-05
0.00504573
3.38832e-05
0.00504056
4.4387e-05
0.00503539
4.00528e-05
0.00503107
2.93519e-05
0.00502778
1.93132e-05
0.00502527
1.30692e-05
0.00502318
1.05321e-05
0.00502126
1.02826e-05
0.00501936
1.10618e-05
0.00501742
1.21271e-05
0.00501542
1.31488e-05
0.00501334
1.40324e-05
0.00501119
1.47839e-05
0.00500897
1.54383e-05
0.00500668
1.60317e-05
0.00500432
1.65923e-05
0.00500189
1.71404e-05
0.00499939
1.76896e-05
0.00499682
1.82491e-05
0.00499417
1.88248e-05
0.00499143
1.94207e-05
0.00498861
2.00393e-05
0.0049857
2.06823e-05
0.0049827
2.13507e-05
0.00497961
2.20453e-05
0.00497641
2.27666e-05
0.00497311
2.3515e-05
0.00496971
2.42908e-05
0.00496619
2.50944e-05
0.00496256
2.5926e-05
0.00495881
2.67861e-05
0.00495495
2.76751e-05
0.00495095
2.85933e-05
0.00494683
2.95413e-05
0.00494257
3.05199e-05
0.00493818
3.15295e-05
0.00493364
3.25712e-05
0.00492896
3.36459e-05
0.00492413
3.47546e-05
0.00491915
3.58985e-05
0.00491401
3.70792e-05
0.00490871
3.82981e-05
0.00490325
3.95573e-05
0.00489761
4.08589e-05
0.0048918
4.22055e-05
0.00488581
4.35999e-05
0.00487964
4.50454e-05
0.00487328
4.65457e-05
0.00486673
4.81042e-05
0.00485998
4.97235e-05
0.00485304
5.14041e-05
0.00484589
5.31434e-05
0.00483856
5.49374e-05
0.00483045
-1.90464e-06
-2.43295e-09
0.00483184
-1.38446e-06
-2.62656e-09
0.00483269
-8.54101e-07
-2.80043e-09
0.00483303
-3.29382e-07
-2.94198e-09
0.00483285
1.77589e-07
-3.00781e-09
0.00483221
6.39374e-07
-3.14469e-09
0.00483115
1.06461e-06
-3.23908e-09
0.0048297
1.45333e-06
-3.30608e-09
0.00482788
1.8241e-06
-3.35718e-09
0.00482568
2.20805e-06
-3.39385e-09
0.00482304
2.64486e-06
-3.41587e-09
0.00481986
3.17716e-06
-3.42248e-09
0.00481602
3.8444e-06
-3.41358e-09
0.00481135
4.67802e-06
-3.38894e-09
0.00480565
5.69892e-06
-3.35218e-09
0.00479874
6.9176e-06
-3.29083e-09
0.0047904
8.33632e-06
-3.22474e-09
0.00478045
9.95262e-06
-3.14822e-09
0.00476869
1.17633e-05
-3.09433e-09
0.00475493
1.37682e-05
-3.08409e-09
0.00473896
1.59722e-05
-3.08065e-09
0.00472058
1.83875e-05
-3.09384e-09
0.00469955
2.10338e-05
-3.11011e-09
0.00467561
2.39395e-05
-3.1173e-09
0.00464847
2.71413e-05
-3.10272e-09
0.00461779
3.06854e-05
-3.05473e-09
0.00458316
3.46279e-05
-2.96464e-09
0.00454413
3.90363e-05
-2.82962e-09
0.00450014
4.39916e-05
-2.65334e-09
0.00445055
4.95913e-05
-2.44544e-09
0.0043946
5.59534e-05
-2.21903e-09
0.00433138
6.32225e-05
-1.98831e-09
0.00425981
7.15768e-05
-1.76713e-09
0.00417857
8.12383e-05
-1.56645e-09
0.00408608
9.24854e-05
-1.39208e-09
0.00398042
0.000105668
-1.24513e-09
0.00385919
0.000121228
-1.1234e-09
0.00371948
0.000139709
-1.02085e-09
0.00355771
0.000161772
-9.29588e-10
0.00336955
0.000188163
-8.438e-10
0.00314992
0.000219629
-7.59836e-10
0.00289321
0.000256713
-6.75316e-10
0.00259385
0.000299358
-5.90718e-10
0.00224761
0.000346243
-5.03707e-10
0.00185382
0.00039379
-4.12338e-10
0.00141901
0.000434806
-3.11207e-10
0.000962165
0.000456849
-2.04173e-10
0.000521828
0.000440337
-1.02682e-10
0.000166023
0.000355806
-2.28753e-11
0.000166023
2.21108e-11
0.00482959
-2.45516e-06
0.00482962
-1.4188e-06
0.00482913
-3.57153e-07
0.00482811
6.91315e-07
0.00482659
1.69735e-06
0.00482459
2.63695e-06
0.00482215
3.49844e-06
0.00481932
4.29182e-06
0.00481609
5.05345e-06
0.00481245
5.84417e-06
0.00480835
6.74164e-06
0.0048037
7.8291e-06
0.00479836
9.18349e-06
0.00479217
1.08661e-05
0.00478496
1.29178e-05
0.00477651
1.53596e-05
0.00476665
1.81963e-05
0.00475518
2.14241e-05
0.00474191
2.50378e-05
0.00472664
2.90384e-05
0.00470917
3.34371e-05
0.0046893
3.82591e-05
0.00466679
4.35449e-05
0.00464138
4.93514e-05
0.00461277
5.57529e-05
0.00458061
6.28417e-05
0.00454451
7.07301e-05
0.00450399
7.95532e-05
0.00445851
8.94726e-05
0.00440742
0.000100683
0.00434995
0.00011342
0.0042852
0.000127971
0.00421209
0.000144692
0.0041293
0.000164023
0.00403527
0.000186516
0.00392807
0.000212866
0.00380536
0.000243941
0.00366425
0.000280817
0.00350124
0.000324786
0.0033121
0.000377301
0.00309193
0.000439802
0.00283535
0.000513296
0.00253713
0.000597573
0.00219348
0.000689897
0.00180421
0.000783057
0.0013763
0.00086272
0.000928963
0.000904182
0.000500409
0.000868891
0.000156165
0.00070005
0.000322188
0.00482788
-3.08414e-07
0.00482522
1.23863e-06
0.00482205
2.81962e-06
0.00481835
4.39115e-06
0.00481413
5.90815e-06
0.00480944
7.33437e-06
0.00480428
8.65344e-06
0.00479869
9.88113e-06
0.00479268
1.10707e-05
0.00478621
1.23105e-05
0.00477924
1.37127e-05
0.00477167
1.53973e-05
0.00476338
1.7475e-05
0.00475421
2.00344e-05
0.00474399
2.31346e-05
0.00473255
2.68065e-05
0.00471968
3.1059e-05
0.00470522
3.58885e-05
0.00468897
4.12905e-05
0.00467074
4.72694e-05
0.00465033
5.38451e-05
0.00462753
6.10578e-05
0.0046021
6.897e-05
0.00457379
7.76685e-05
0.00454227
8.72656e-05
0.00450722
9.79002e-05
0.0044682
0.000109741
0.00442477
0.00012299
0.00437635
0.00013789
0.0043223
0.000154731
0.00426186
0.000173867
0.0041941
0.000195725
0.00411796
0.000220833
0.00403214
0.000249847
0.00393507
0.000283583
0.00382487
0.000323063
0.00369925
0.000369561
0.00355542
0.000424647
0.00339002
0.000490188
0.00319906
0.000568266
0.00297797
0.000660892
0.00272188
0.000769386
0.00242625
0.000893197
0.00208815
0.001028
0.00170832
0.00116288
0.00129447
0.00127657
0.000866029
0.00133262
0.000460728
0.00127419
0.000141024
0.00101975
0.000463211
0.00482535
5.83855e-06
0.0048187
7.88526e-06
0.00481154
9.98012e-06
0.00480386
1.20715e-05
0.00479566
1.41035e-05
0.00478697
1.60307e-05
0.00477779
1.78337e-05
0.00476813
1.9534e-05
0.004758
2.12e-05
0.00474737
2.2944e-05
0.00473617
2.49082e-05
0.00472433
2.72441e-05
0.00471171
3.00917e-05
0.00469818
3.35626e-05
0.00468358
3.77327e-05
0.00466775
4.26426e-05
0.0046505
4.83061e-05
0.00463167
5.47229e-05
0.00461107
6.1892e-05
0.00458851
6.98248e-05
0.0045638
7.85528e-05
0.00453673
8.81337e-05
0.00450704
9.8654e-05
0.00447448
0.000110232
0.00443873
0.000123018
0.00439943
0.000137199
0.00435617
0.000153
0.00430847
0.000170689
0.00425577
0.000190591
0.00419741
0.00021309
0.00413262
0.000238654
0.0040605
0.000267849
0.00397996
0.000301372
0.00388972
0.000340082
0.00378826
0.000385045
0.00367374
0.000437589
0.00354394
0.000499357
0.00339624
0.000572352
0.00322749
0.00065893
0.00303409
0.000761668
0.00281202
0.000882966
0.00255719
0.00102421
0.00226613
0.00118426
0.00193718
0.00135695
0.0015724
0.00152766
0.00118036
0.00166862
0.00078018
0.0017328
0.000407575
0.0016468
0.00011944
0.00130789
0.000582652
0.00482202
1.72451e-05
0.00481013
1.97749e-05
0.00479774
2.23712e-05
0.00478483
2.49753e-05
0.00477141
2.7524e-05
0.00475748
2.99656e-05
0.00474303
3.22799e-05
0.00472807
3.44935e-05
0.00471258
3.66882e-05
0.00469653
3.89963e-05
0.00467985
4.15846e-05
0.00466247
4.46303e-05
0.00464426
4.82972e-05
0.00462511
5.27162e-05
0.00460486
5.79773e-05
0.00458338
6.41309e-05
0.00456048
7.11975e-05
0.00453602
7.91827e-05
0.00450982
8.80929e-05
0.0044817
9.795e-05
0.00445145
0.000108801
0.00441886
0.000120722
0.00438369
0.000133828
0.00434565
0.000148269
0.00430443
0.000164236
0.00425967
0.000181962
0.00421094
0.00020173
0.00415775
0.000223875
0.00409954
0.0002488
0.00403565
0.000276985
0.00396529
0.00030901
0.00388757
0.000345574
0.0038014
0.000387536
0.00370554
0.000435946
0.00359848
0.000492099
0.00347848
0.000557595
0.00334344
0.000634391
0.00319096
0.000724838
0.00301824
0.000831651
0.0028222
0.000957707
0.00259963
0.00110553
0.00234758
0.00127626
0.00206407
0.00146777
0.00174919
0.00167183
0.00140669
0.00187016
0.00104601
0.0020293
0.000685082
0.00209373
0.000354166
0.00197771
9.81147e-05
0.00156394
0.000680766
0.00481793
3.51026e-05
0.00479961
3.80927e-05
0.00478081
4.11717e-05
0.00476151
4.42762e-05
0.0047417
4.73384e-05
0.00472136
5.03037e-05
0.00470049
5.31521e-05
0.00467906
5.59157e-05
0.00465707
5.86876e-05
0.00463445
6.16161e-05
0.00461114
6.48872e-05
0.00458708
6.86981e-05
0.00456214
7.32304e-05
0.00453623
7.86307e-05
0.0045092
8.5001e-05
0.00448093
9.2401e-05
0.00445127
0.00010086
0.00442006
0.000110392
0.00438714
0.000121014
0.00435233
0.000132763
0.00431542
0.000145704
0.00427621
0.000159938
0.00423443
0.000175606
0.00418981
0.000192893
0.00414201
0.000212032
0.00409067
0.000233304
0.00403535
0.000257048
0.00397556
0.000283668
0.00391071
0.000313646
0.00384015
0.000347554
0.00376307
0.000386081
0.00367859
0.00043006
0.00358563
0.000480496
0.00348295
0.00053862
0.00336913
0.000605927
0.00324248
0.000684239
0.00310113
0.000775746
0.00294295
0.000883017
0.00276568
0.00100892
0.00256706
0.00115633
0.00234512
0.00132748
0.00209866
0.00152273
0.00182797
0.00173845
0.00153583
0.00196397
0.00122847
0.00217753
0.000916497
0.00234127
0.000615545
0.00239469
0.000344698
0.00224856
0.000119082
0.00178956
0.000799849
0.00481315
6.05136e-05
0.0047873
6.39348e-05
0.004761
6.74723e-05
0.00473422
7.10588e-05
0.00470694
7.46245e-05
0.00467913
7.81139e-05
0.00465077
8.15086e-05
0.00462184
8.48467e-05
0.00459229
8.82305e-05
0.00456209
9.18214e-05
0.00453116
9.58197e-05
0.00449942
0.000100437
0.00446678
0.000105869
0.00443314
0.000112273
0.00439838
0.000119761
0.00436238
0.000128401
0.004325
0.000138233
0.00428611
0.000149281
0.00424555
0.000161577
0.00420314
0.000175175
0.00415868
0.000190161
0.00411196
0.000206663
0.00406271
0.000224853
0.00401065
0.000244951
0.00395545
0.000267232
0.00389673
0.000292027
0.00383404
0.000319733
0.00376689
0.00035082
0.00369469
0.000385848
0.00361676
0.000425482
0.00353232
0.000470521
0.00344046
0.000521919
0.00334013
0.000580829
0.00323011
0.000648643
0.003109
0.000727031
0.00297525
0.000817993
0.00282713
0.000923867
0.00266284
0.0010473
0.00248069
0.00119107
0.00227933
0.00135769
0.00205826
0.00154855
0.00181851
0.00176247
0.0015635
0.00199345
0.00130001
0.00222746
0.00103882
0.00243871
0.000794496
0.00258559
0.0005822
0.00260698
0.000407575
0.00242318
0.000248355
0.00194878
0.0010482
-1.91827e-05
1.91819e-05
7.41377e-10
-2.18749e-05
2.69044e-06
1.83043e-09
1.65733e-05
-3.84505e-05
2.27429e-09
0.000106662
-9.00907e-05
2.48509e-09
0.000249421
-0.000142762
2.49616e-09
0.000439841
-0.000190422
2.35014e-09
0.000669517
-0.000229679
2.10798e-09
0.000928552
-0.000259037
1.8425e-09
0.0012068
-0.000278248
1.63322e-09
0.0014947
-0.000287902
1.53654e-09
0.00178381
-0.000289115
1.59247e-09
0.0020671
-0.000283292
1.81021e-09
0.00233904
-0.000271944
2.16662e-09
0.0025956
-0.000256555
2.62001e-09
0.00283408
-0.00023849
3.11497e-09
0.00305302
-0.000218938
3.59178e-09
0.0032519
-0.000198886
3.9973e-09
0.003431
-0.000179106
4.28852e-09
0.00359116
-0.000160166
4.43148e-09
0.00373361
-0.000142451
4.41856e-09
0.00385979
-0.000126188
4.18454e-09
0.00397127
-0.00011148
3.74885e-09
0.0040696
-9.83324e-05
3.00275e-09
0.00415628
-8.66825e-05
2.36407e-09
0.0042327
-7.64247e-05
2.11188e-09
0.00430013
-6.74295e-05
2.16325e-09
0.00435969
-5.95586e-05
2.55851e-09
0.00441236
-5.26746e-05
3.12922e-09
0.004459
-4.66483e-05
3.87902e-09
0.00450036
-4.13622e-05
4.75634e-09
0.00453707
-3.67128e-05
5.69303e-09
0.00456967
-3.26101e-05
6.61821e-09
0.00459864
-2.89772e-05
7.46778e-09
0.00462438
-2.57488e-05
8.19141e-09
0.00464724
-2.28697e-05
8.75738e-09
0.00466753
-2.02935e-05
9.15386e-09
0.0046855
-1.79813e-05
9.38852e-09
0.00470139
-1.59001e-05
9.48303e-09
0.0047154
-1.40221e-05
9.46706e-09
0.00472772
-1.23239e-05
9.37249e-09
0.00473849
-1.07855e-05
9.23014e-09
0.00474787
-9.38992e-06
9.06546e-09
0.00475599
-8.12267e-06
8.89793e-09
0.00476295
-6.97154e-06
8.7415e-09
0.00476887
-5.92619e-06
8.60386e-09
0.00477384
-4.97793e-06
8.48956e-09
0.00477795
-4.11937e-06
8.40088e-09
0.00478128
-3.34393e-06
8.33748e-09
0.00478392
-2.64503e-06
8.29853e-09
-2.01496e-06
0.00478593
8.2832e-09
-1.4118e-05
3.32999e-05
-5.77381e-06
-5.65373e-06
4.2648e-05
-8.68723e-05
0.000140554
-0.000187996
0.00028804
-0.000290249
0.000479795
-0.000382177
0.000707722
-0.000457605
0.000962506
-0.000513821
0.00123469
-0.000550434
0.00151541
-0.000568624
0.00179686
-0.00057056
0.00207251
-0.000558945
0.00233724
-0.000536675
0.00258728
-0.000506593
0.00282011
-0.000471318
0.00303431
-0.000433138
0.00322937
-0.000393952
0.00340552
-0.000355256
0.00356351
-0.000318155
0.00370447
-0.000283403
0.00382973
-0.000251453
0.00394076
-0.000222512
0.00403903
-0.0001966
0.00412595
-0.000173607
0.00420286
-0.000153332
0.00427096
-0.000135528
0.00433133
-0.000119929
0.00438492
-0.00010627
0.00443258
-9.42997e-05
0.004475
-8.37906e-05
0.00451283
-7.454e-05
0.00454659
-6.63718e-05
0.00457675
-5.9135e-05
0.0046037
-5.27011e-05
0.00462779
-4.69614e-05
0.00464933
-4.18243e-05
0.00466856
-3.72126e-05
0.00468572
-3.3061e-05
0.00470101
-2.93145e-05
0.00471461
-2.59262e-05
0.00472668
-2.28566e-05
0.00473737
-2.00716e-05
0.00474678
-1.75426e-05
0.00475506
-1.52449e-05
0.00476229
-1.31581e-05
0.00476858
-1.12645e-05
0.00477401
-9.54952e-06
0.00477866
-7.99978e-06
0.00478262
-6.60209e-06
-5.34084e-06
0.00478595
-1.77939e-06
3.50793e-05
2.28012e-05
-3.02343e-05
8.89234e-05
-0.000152995
0.000200393
-0.000299466
0.000355407
-0.000445263
0.000548474
-0.000575244
0.000772187
-0.000681318
0.00101837
-0.000760001
0.00127886
-0.000810923
0.00154606
-0.000835826
0.00181328
-0.000837783
0.00207492
-0.000820587
0.00232654
-0.00078829
0.00256482
-0.00074487
0.0027875
-0.000694001
0.00299327
-0.000638906
0.00318159
-0.000582276
0.00335258
-0.000526243
0.00350682
-0.000472401
0.00364527
-0.000421846
0.00376906
-0.00037525
0.00387949
-0.000332935
0.00397784
-0.000294957
0.00406541
-0.000261172
0.00414339
-0.000231315
0.0042129
-0.000205041
0.00427495
-0.000181975
0.00433042
-0.00016174
0.0043801
-0.00014398
0.00442468
-0.000128366
0.00446474
-0.000114605
0.00450081
-0.000102442
0.00453333
-9.16573e-05
0.0045627
-8.20626e-05
0.00458923
-7.34987e-05
0.00461324
-6.58307e-05
0.00463497
-5.89446e-05
0.00465465
-5.27441e-05
0.00467249
-4.71474e-05
0.00468865
-4.20851e-05
0.00470329
-3.74981e-05
0.00471655
-3.3336e-05
0.00472857
-2.95557e-05
0.00473944
-2.61207e-05
0.00474928
-2.29998e-05
0.00475819
-2.0167e-05
0.00476624
-1.75998e-05
0.00477351
-1.52782e-05
0.00478009
-1.31822e-05
-1.12879e-05
0.00478604
1.21449e-05
2.29344e-05
5.8762e-05
-7.68515e-05
0.000146175
-0.000240407
0.000272832
-0.000426123
0.000434869
-0.0006073
0.000626888
-0.000767263
0.000842674
-0.000897104
0.00107571
-0.000993038
0.00131959
-0.00105481
0.00156836
-0.00108459
0.0018167
-0.00108612
0.00206011
-0.001064
0.00229492
-0.00102311
0.00251835
-0.000968294
0.00272839
-0.000904039
0.00292379
-0.00083431
0.00310396
-0.000762446
0.00326884
-0.000691123
0.0034188
-0.000622361
0.00355453
-0.000557578
0.00367695
-0.000497665
0.00378708
-0.000443072
0.00388604
-0.00039391
0.00397491
-0.00035004
0.00405475
-0.000311154
0.00412654
-0.00027684
0.00419121
-0.00024664
0.00424956
-0.000220088
0.00430231
-0.000196736
0.00435012
-0.00017617
0.00439353
-0.000158018
0.00443304
-0.000141955
0.00446909
-0.000127698
0.00450203
-0.000115004
0.00453219
-0.000103666
0.00455987
-9.35092e-05
0.00458531
-8.43846e-05
0.00460873
-7.61659e-05
0.00463033
-6.87459e-05
0.00465028
-6.20331e-05
0.00466873
-5.59495e-05
0.00468582
-5.04285e-05
0.00470168
-4.54129e-05
0.00471641
-4.08542e-05
0.00473013
-3.6711e-05
0.00474291
-3.29481e-05
0.00475484
-2.95355e-05
0.00476601
-2.64464e-05
0.00477648
-2.36538e-05
-2.11249e-05
0.00478632
2.8084e-05
-5.14957e-06
9.85142e-05
-0.000147282
0.000206419
-0.000348312
0.000345078
-0.000564782
0.000509434
-0.000771657
0.00069499
-0.000952819
0.000897399
-0.00109951
0.00111227
-0.00120791
0.00133521
-0.00127775
0.00156201
-0.00131139
0.00178876
-0.00131287
0.00201198
-0.00128721
0.0022287
-0.00123983
0.00243652
-0.00117611
0.0026336
-0.00110112
0.00281868
-0.00101939
0.00299101
-0.000934774
0.00315029
-0.000850407
0.00329663
-0.0007687
0.00343043
-0.000691378
0.00355232
-0.000619557
0.00366309
-0.000553841
0.00376361
-0.000494427
0.00385478
-0.000441209
0.0039375
-0.000393873
0.00401263
-0.000351971
0.00408097
-0.000314986
0.00414327
-0.000282387
0.00420019
-0.000253654
0.00425232
-0.0002283
0.00430019
-0.000205889
0.00434427
-0.00018603
0.00438495
-0.000168385
0.00442261
-0.000152661
0.00445755
-0.000138609
0.00449006
-0.000126014
0.00452037
-0.000114695
0.0045487
-0.000104496
0.00457524
-9.52865e-05
0.00460016
-8.69533e-05
0.00462361
-7.93999e-05
0.00464573
-7.25439e-05
0.00466663
-6.63142e-05
0.00468642
-6.06502e-05
0.00470521
-5.55002e-05
0.00472308
-5.08201e-05
0.00474012
-4.65721e-05
0.0047564
-4.27222e-05
0.00477198
-3.92364e-05
-3.60731e-05
0.00478693
5.14873e-05
-5.66369e-05
0.000147384
-0.000243179
0.0002692
-0.000470127
0.000410197
-0.00070578
0.000566708
-0.000928167
0.000736477
-0.00112259
0.0009177
-0.00128074
0.00110838
-0.00139859
0.00130618
-0.00147554
0.00150844
-0.00151365
0.0017124
-0.00151684
0.00191534
-0.00149015
0.00211468
-0.00143917
0.00230819
-0.00136962
0.00249397
-0.00128691
0.00267058
-0.001196
0.00283699
-0.00110119
0.0029926
-0.00100602
0.00313719
-0.000913285
0.00327083
-0.000825024
0.00339388
-0.000742604
0.00350686
-0.000666817
0.00361041
-0.000597986
0.00370528
-0.000536074
0.0037922
-0.000480794
0.00387192
-0.000431693
0.00394516
-0.000388228
0.00401259
-0.000349816
0.00407482
-0.000315884
0.00413241
-0.00028589
0.00418586
-0.000259335
0.00423561
-0.000235776
0.00428205
-0.000214825
0.00432553
-0.000196141
0.00436635
-0.000179434
0.00440479
-0.000164454
0.00444108
-0.000150987
0.00447544
-0.000138851
0.00450804
-0.00012789
0.00453906
-0.000117971
0.00456864
-0.000108979
0.00459691
-0.000100816
0.00462399
-9.33976e-05
0.00464999
-8.66508e-05
0.00467501
-8.05135e-05
0.00469912
-7.49325e-05
0.00472241
-6.98619e-05
0.00474495
-6.52607e-05
0.0047668
-6.10879e-05
-5.72939e-05
0.00478802
8.73127e-05
-0.00014395
0.000202067
-0.000357933
0.000323115
-0.000591175
0.000450364
-0.000833029
0.00058519
-0.00106299
0.00072879
-0.00126619
0.000881951
-0.0014339
0.00104467
-0.00156131
0.00121603
-0.0016469
0.00139436
-0.00169198
0.00157744
-0.00169992
0.00176282
-0.00167552
0.00194795
-0.00162431
0.00213045
-0.00155212
0.00230821
-0.00146467
0.00247946
-0.00136725
0.00264283
-0.00126456
0.00279738
-0.00116057
0.00294255
-0.00105845
0.00307811
-0.00096059
0.00320416
-0.000868648
0.00332098
-0.000783643
0.00342906
-0.00070606
0.00352896
-0.000635973
0.00362132
-0.000573152
0.00370679
-0.000517165
0.00378602
-0.000467462
0.00385964
-0.000423433
0.00392821
-0.00038446
0.00399228
-0.000349953
0.00405231
-0.000319363
0.00410873
-0.000292199
0.00416192
-0.000268021
0.00421223
-0.000246449
0.00425995
-0.000227152
0.00430534
-0.000209845
0.00434864
-0.000194283
0.00439005
-0.000180258
0.00442975
-0.00016759
0.0044679
-0.000156126
0.00450466
-0.000145733
0.00454014
-0.000136297
0.00457446
-0.00012772
0.00460773
-0.000119918
0.00464003
-0.000112818
0.00467145
-0.000106356
0.00470207
-0.00010048
0.00473195
-9.51407e-05
0.00476116
-9.02908e-05
0.00478974
-8.58766e-05
0.0047978
-1.18854e-05
8.33564e-09
0.00480941
-1.16108e-05
8.52757e-09
0.00482074
-1.13477e-05
8.74156e-09
0.00483181
-1.10744e-05
8.97504e-09
0.00484256
-1.07617e-05
9.22116e-09
0.00485293
-1.03761e-05
9.46808e-09
0.00486281
-9.88722e-06
9.6979e-09
0.00487207
-9.27759e-06
9.88623e-09
0.00488062
-8.55205e-06
1.00056e-08
0.00488835
-7.74275e-06
1.00299e-08
0.00489525
-6.90607e-06
9.93835e-09
0.00490135
-6.11109e-06
9.72077e-09
0.00490676
-5.42301e-06
9.3832e-09
0.00491164
-4.88743e-06
8.94576e-09
0.00491615
-4.52105e-06
8.43713e-09
0.00492046
-4.31158e-06
7.88945e-09
0.00492467
-4.22559e-06
7.33182e-09
0.00492889
-4.22019e-06
6.78333e-09
0.00493313
-4.254e-06
6.25293e-09
0.00493742
-4.29446e-06
5.7445e-09
0.00494174
-4.32051e-06
5.25998e-09
0.00494606
-4.32172e-06
4.80078e-09
0.00495035
-4.29552e-06
4.36878e-09
0.00495459
-4.24407e-06
3.9645e-09
0.00495875
-4.17173e-06
3.58421e-09
0.00496283
-4.08329e-06
3.22159e-09
0.00496682
-3.98318e-06
2.87182e-09
0.00497069
-3.87504e-06
2.53294e-09
0.00497445
-3.76172e-06
2.20495e-09
0.00497809
-3.64538e-06
1.88852e-09
0.00498162
-3.52762e-06
1.58258e-09
0.00498503
-3.4096e-06
1.28286e-09
0.00498832
-3.29217e-06
9.86893e-10
0.00499149
-3.17597e-06
6.97959e-10
0.00499455
-3.06145e-06
4.24842e-10
0.0049975
-2.94896e-06
1.80163e-10
0.00500034
-2.83873e-06
-2.64157e-11
0.00500307
-2.73093e-06
-1.95313e-10
0.0050057
-2.62565e-06
-3.40105e-10
0.00500822
-2.52294e-06
-4.78513e-10
0.00501064
-2.42283e-06
-6.2424e-10
0.00501297
-2.32533e-06
-7.79839e-10
0.0050152
-2.23045e-06
-9.38734e-10
0.00501734
-2.13816e-06
-1.09195e-09
0.00501939
-2.04847e-06
-1.2508e-09
0.00502135
-1.96127e-06
-1.43031e-09
0.00502323
-1.8765e-06
-1.64335e-09
0.00502503
-1.79413e-06
-1.89731e-09
0.00502674
-1.71413e-06
-2.18535e-09
0.00502838
-1.63648e-06
-2.49533e-09
0.00502995
-1.56115e-06
-2.81354e-09
0.00503144
-1.48811e-06
-3.11573e-09
0.00503286
-1.41734e-06
-3.37811e-09
0.00503421
-1.34882e-06
-3.59603e-09
0.0050355
-1.2825e-06
-3.75908e-09
0.00503672
-1.21833e-06
-3.87363e-09
0.00503788
-1.15624e-06
-3.95281e-09
0.00503898
-1.09618e-06
-4.03737e-09
0.00504002
-1.0381e-06
-4.15802e-09
0.00504101
-9.81941e-07
-4.31724e-09
0.00504194
-9.27704e-07