/*--------------------------------*- C++ -*----------------------------------*\
| =========                 |                                                 |
| \\      /  F ield         | OpenFOAM: The Open Source CFD Toolbox           |
|  \\    /   O peration     | Version:  2412                                  |
|   \\  /    A nd           | Website:  www.openfoam.com                      |
|    \\/     M anipulation  |                                                 |
\*---------------------------------------------------------------------------*/
FoamFile
{
    version     2.0;
    format      ascii;
    arch        "LSB;label=32;scalar=64";
    class       volVectorField;
    location    "5.5";
    object      U;
}
// * * * * * * * * * * * * * * * * * * * * * * * * * * * * * * * * * * * * * //

dimensions      [0 1 -1 0 0 0 0];

internalField   nonuniform List<vector> 
63420
(
(0.100175 -1.74614e-07 0)
(0.0998764 9.2301e-06 0)
(0.0999597 2.02285e-05 0)
(0.0997515 2.5734e-05 0)
(0.0996243 2.24142e-05 0)
(0.0995258 1.53814e-05 0)
(0.0994608 9.10424e-06 0)
(0.0994278 5.47389e-06 0)
(0.0994052 4.30769e-06 0)
(0.0993837 4.62119e-06 0)
(0.099359 5.56106e-06 0)
(0.0993296 6.6332e-06 0)
(0.0992959 7.62869e-06 0)
(0.0992586 8.49819e-06 0)
(0.0992185 9.25875e-06 0)
(0.099176 9.94474e-06 0)
(0.0991315 1.05888e-05 0)
(0.0990853 1.12163e-05 0)
(0.0990374 1.18458e-05 0)
(0.0989878 1.24903e-05 0)
(0.0989366 1.3159e-05 0)
(0.0988838 1.38588e-05 0)
(0.0988292 1.4595e-05 0)
(0.0987729 1.53717e-05 0)
(0.0987148 1.61923e-05 0)
(0.0986548 1.70598e-05 0)
(0.0985928 1.7977e-05 0)
(0.0985287 1.89466e-05 0)
(0.0984626 1.99715e-05 0)
(0.0983942 2.10544e-05 0)
(0.0983235 2.21981e-05 0)
(0.0982505 2.34055e-05 0)
(0.0981751 2.46798e-05 0)
(0.0980971 2.60241e-05 0)
(0.0980165 2.74419e-05 0)
(0.0979331 2.89369e-05 0)
(0.097847 3.05132e-05 0)
(0.097758 3.2175e-05 0)
(0.0976659 3.3927e-05 0)
(0.0975708 3.57742e-05 0)
(0.0974725 3.77223e-05 0)
(0.0973709 3.97772e-05 0)
(0.0972659 4.19455e-05 0)
(0.0971573 4.42348e-05 0)
(0.097045 4.66532e-05 0)
(0.096929 4.92103e-05 0)
(0.096809 5.19169e-05 0)
(0.0966848 5.47854e-05 0)
(0.0965564 5.783e-05 0)
(0.0964235 6.10668e-05 0)
(0.0962859 6.45134e-05 0)
(0.0961434 6.81875e-05 0)
(0.0959957 7.2106e-05 0)
(0.0958425 7.6288e-05 0)
(0.0956836 8.07725e-05 0)
(0.100175 -5.20638e-07 0)
(0.0998766 2.74669e-05 0)
(0.0999617 6.02005e-05 0)
(0.0997563 7.67188e-05 0)
(0.0996307 6.69732e-05 0)
(0.0995326 4.61514e-05 0)
(0.0994669 2.75201e-05 0)
(0.0994327 1.67184e-05 0)
(0.0994089 1.32281e-05 0)
(0.0993864 1.41365e-05 0)
(0.099361 1.69131e-05 0)
(0.0993312 2.00905e-05 0)
(0.0992971 2.30469e-05 0)
(0.0992597 2.56344e-05 0)
(0.0992195 2.79021e-05 0)
(0.0991769 2.99513e-05 0)
(0.0991325 3.18779e-05 0)
(0.0990862 3.37569e-05 0)
(0.0990383 3.56427e-05 0)
(0.0989888 3.75739e-05 0)
(0.0989376 3.95781e-05 0)
(0.0988849 4.16757e-05 0)
(0.0988304 4.3882e-05 0)
(0.0987741 4.62094e-05 0)
(0.0987161 4.86682e-05 0)
(0.0986561 5.12673e-05 0)
(0.0985942 5.40153e-05 0)
(0.0985302 5.69203e-05 0)
(0.0984642 5.99904e-05 0)
(0.0983959 6.32338e-05 0)
(0.0983253 6.66589e-05 0)
(0.0982524 7.02746e-05 0)
(0.0981771 7.40901e-05 0)
(0.0980992 7.81151e-05 0)
(0.0980187 8.23599e-05 0)
(0.0979356 8.68357e-05 0)
(0.0978496 9.15545e-05 0)
(0.0977607 9.65289e-05 0)
(0.0976689 0.000101773 0)
(0.0975739 0.000107302 0)
(0.0974758 0.000113132 0)
(0.0973744 0.000119281 0)
(0.0972696 0.000125769 0)
(0.0971613 0.000132617 0)
(0.0970493 0.000139852 0)
(0.0969336 0.000147501 0)
(0.0968139 0.000155596 0)
(0.0966901 0.000164173 0)
(0.0965621 0.000173275 0)
(0.0964296 0.000182949 0)
(0.0962925 0.000193248 0)
(0.0961506 0.000204223 0)
(0.0960035 0.000215925 0)
(0.095851 0.000228409 0)
(0.095693 0.000241788 0)
(0.100175 -8.57604e-07 0)
(0.0998769 4.51064e-05 0)
(0.0999658 9.89379e-05 0)
(0.0997658 0.000126544 0)
(0.0996433 0.000110953 0)
(0.099546 7.70248e-05 0)
(0.0994789 4.64842e-05 0)
(0.0994424 2.86595e-05 0)
(0.0994162 2.2795e-05 0)
(0.0993918 2.41629e-05 0)
(0.099365 2.86311e-05 0)
(0.0993343 3.37929e-05 0)
(0.0992997 3.86206e-05 0)
(0.0992619 4.28637e-05 0)
(0.0992214 4.65963e-05 0)
(0.0991788 4.99802e-05 0)
(0.0991343 5.31696e-05 0)
(0.0990881 5.62861e-05 0)
(0.0990402 5.94177e-05 0)
(0.0989908 6.26275e-05 0)
(0.0989397 6.59605e-05 0)
(0.098887 6.94498e-05 0)
(0.0988327 7.31207e-05 0)
(0.0987765 7.69935e-05 0)
(0.0987186 8.1085e-05 0)
(0.0986588 8.54102e-05 0)
(0.0985971 8.99831e-05 0)
(0.0985333 9.48171e-05 0)
(0.0984674 9.99256e-05 0)
(0.0983993 0.000105322 0)
(0.098329 0.000111021 0)
(0.0982563 0.000117036 0)
(0.0981812 0.000123383 0)
(0.0981036 0.000130079 0)
(0.0980233 0.000137139 0)
(0.0979404 0.000144583 0)
(0.0978548 0.00015243 0)
(0.0977662 0.000160702 0)
(0.0976747 0.000169421 0)
(0.0975802 0.000178612 0)
(0.0974825 0.000188302 0)
(0.0973815 0.000198521 0)
(0.0972772 0.000209302 0)
(0.0971694 0.00022068 0)
(0.097058 0.000232696 0)
(0.0969428 0.000245396 0)
(0.0968238 0.000258833 0)
(0.0967007 0.000273065 0)
(0.0965735 0.000288161 0)
(0.0964419 0.000304197 0)
(0.0963058 0.000321258 0)
(0.0961649 0.000339427 0)
(0.0960191 0.000358784 0)
(0.0958681 0.000379414 0)
(0.0957116 0.000401493 0)
(0.100174 -1.18399e-06 0)
(0.0998774 6.17577e-05 0)
(0.0999719 0.000135645 0)
(0.0997797 0.000174488 0)
(0.0996617 0.000154003 0)
(0.0995656 0.000108081 0)
(0.0994963 6.6349e-05 0)
(0.0994564 4.17358e-05 0)
(0.0994269 3.34115e-05 0)
(0.0993997 3.50168e-05 0)
(0.0993709 4.09404e-05 0)
(0.0993388 4.78905e-05 0)
(0.0993034 5.44446e-05 0)
(0.0992651 6.02424e-05 0)
(0.0992244 6.53715e-05 0)
(0.0991816 7.00435e-05 0)
(0.0991371 7.44639e-05 0)
(0.0990909 7.8795e-05 0)
(0.0990431 8.31556e-05 0)
(0.0989938 8.76306e-05 0)
(0.0989429 9.22812e-05 0)
(0.0988903 9.71523e-05 0)
(0.0988361 0.000102279 0)
(0.0987802 0.000107688 0)
(0.0987225 0.000113403 0)
(0.0986629 0.000119445 0)
(0.0986014 0.000125833 0)
(0.0985379 0.000132586 0)
(0.0984722 0.000139721 0)
(0.0984045 0.000147259 0)
(0.0983344 0.000155218 0)
(0.0982621 0.000163618 0)
(0.0981873 0.000172481 0)
(0.0981101 0.000181829 0)
(0.0980303 0.000191686 0)
(0.0979478 0.000202077 0)
(0.0978626 0.00021303 0)
(0.0977745 0.000224573 0)
(0.0976836 0.000236738 0)
(0.0975896 0.00024956 0)
(0.0974925 0.000263075 0)
(0.0973922 0.000277325 0)
(0.0972885 0.000292353 0)
(0.0971815 0.000308209 0)
(0.0970709 0.00032495 0)
(0.0969566 0.000342635 0)
(0.0968386 0.000361337 0)
(0.0967166 0.000381136 0)
(0.0965906 0.000402122 0)
(0.0964603 0.000424398 0)
(0.0963256 0.000448075 0)
(0.0961864 0.000473265 0)
(0.0960424 0.000500069 0)
(0.0958934 0.000528599 0)
(0.0957392 0.000559075 0)
(0.100174 -1.51203e-06 0)
(0.0998781 7.70754e-05 0)
(0.0999797 0.000169573 0)
(0.0997976 0.000219915 0)
(0.0996853 0.000195824 0)
(0.0995905 0.000139403 0)
(0.0995185 8.74375e-05 0)
(0.0994742 5.63397e-05 0)
(0.0994405 4.54339e-05 0)
(0.0994098 4.69759e-05 0)
(0.0993785 5.40377e-05 0)
(0.0993448 6.25136e-05 0)
(0.0993083 7.06004e-05 0)
(0.0992693 7.78181e-05 0)
(0.0992283 8.42521e-05 0)
(0.0991854 9.01502e-05 0)
(0.0991408 9.57584e-05 0)
(0.0990946 0.000101273 0)
(0.099047 0.00010684 0)
(0.0989978 0.000112562 0)
(0.098947 0.000118514 0)
(0.0988947 0.000124754 0)
(0.0988407 0.000131323 0)
(0.0987851 0.000138256 0)
(0.0987276 0.000145582 0)
(0.0986684 0.000153328 0)
(0.0986072 0.000161518 0)
(0.098544 0.000170174 0)
(0.0984787 0.000179321 0)
(0.0984113 0.000188983 0)
(0.0983417 0.000199184 0)
(0.0982698 0.000209949 0)
(0.0981955 0.000221306 0)
(0.0981188 0.000233283 0)
(0.0980395 0.000245909 0)
(0.0979576 0.000259218 0)
(0.097873 0.000273243 0)
(0.0977856 0.000288022 0)
(0.0976953 0.000303594 0)
(0.0976021 0.000320002 0)
(0.0975058 0.000337293 0)
(0.0974063 0.000355518 0)
(0.0973037 0.000374732 0)
(0.0971976 0.000394997 0)
(0.0970881 0.000416382 0)
(0.0969751 0.000438964 0)
(0.0968583 0.000462827 0)
(0.0967377 0.000488072 0)
(0.0966133 0.000514807 0)
(0.0964847 0.000543158 0)
(0.0963519 0.000573255 0)
(0.0962148 0.000605232 0)
(0.0960731 0.000639208 0)
(0.0959268 0.000675306 0)
(0.0957757 0.000713767 0)
(0.100173 -1.86961e-06 0)
(0.099879 9.07614e-05 0)
(0.0999889 0.000200103 0)
(0.0998186 0.000262305 0)
(0.0997127 0.000236183 0)
(0.0996195 0.000171065 0)
(0.0995442 0.000110014 0)
(0.0994949 7.27882e-05 0)
(0.0994563 5.9148e-05 0)
(0.0994216 6.02623e-05 0)
(0.0993875 6.80798e-05 0)
(0.0993518 7.77655e-05 0)
(0.0993141 8.71521e-05 0)
(0.0992744 9.56273e-05 0)
(0.099233 0.000103256 0)
(0.0991899 0.000110304 0)
(0.0991453 0.000117048 0)
(0.0990992 0.000123709 0)
(0.0990517 0.000130453 0)
(0.0990027 0.000137399 0)
(0.0989522 0.000144635 0)
(0.0989001 0.000152225 0)
(0.0988465 0.000160221 0)
(0.0987911 0.000168662 0)
(0.098734 0.000177583 0)
(0.0986751 0.000187016 0)
(0.0986143 0.00019699 0)
(0.0985516 0.000207532 0)
(0.0984868 0.000218671 0)
(0.0984198 0.000230435 0)
(0.0983507 0.000242854 0)
(0.0982794 0.000255958 0)
(0.0982057 0.00026978 0)
(0.0981295 0.000284355 0)
(0.0980509 0.000299717 0)
(0.0979697 0.000315906 0)
(0.0978859 0.000332963 0)
(0.0977993 0.000350931 0)
(0.0977099 0.000369859 0)
(0.0976176 0.000389798 0)
(0.0975223 0.000410802 0)
(0.097424 0.000432932 0)
(0.0973224 0.000456254 0)
(0.0972177 0.00048084 0)
(0.0971095 0.00050677 0)
(0.0969979 0.000534133 0)
(0.0968828 0.000563029 0)
(0.096764 0.00059357 0)
(0.0966414 0.000625882 0)
(0.0965149 0.000660104 0)
(0.0963844 0.000696383 0)
(0.0962499 0.000734865 0)
(0.0961111 0.000775678 0)
(0.095968 0.000818939 0)
(0.0958204 0.000864869 0)
(0.100173 -2.19322e-06 0)
(0.0998799 0.000102368 0)
(0.0999989 0.000227011 0)
(0.0998415 0.000301205 0)
(0.0997424 0.000274938 0)
(0.0996509 0.000203119 0)
(0.0995723 0.000134246 0)
(0.0995176 9.12934e-05 0)
(0.0994736 7.47448e-05 0)
(0.0994347 7.50243e-05 0)
(0.0993974 8.31721e-05 0)
(0.0993597 9.3716e-05 0)
(0.0993207 0.000104142 0)
(0.0992803 0.000113693 0)
(0.0992384 0.000122392 0)
(0.0991951 0.000130505 0)
(0.0991505 0.000138325 0)
(0.0991045 0.000146088 0)
(0.0990572 0.000153976 0)
(0.0990084 0.00016212 0)
(0.0989582 0.000170616 0)
(0.0989064 0.000179537 0)
(0.0988531 0.000188939 0)
(0.0987982 0.00019887 0)
(0.0987415 0.000209367 0)
(0.098683 0.000220467 0)
(0.0986227 0.000232203 0)
(0.0985605 0.000244608 0)
(0.0984962 0.000257714 0)
(0.0984299 0.000271554 0)
(0.0983614 0.000286162 0)
(0.0982907 0.000301574 0)
(0.0982177 0.000317828 0)
(0.0981423 0.000334962 0)
(0.0980645 0.000353019 0)
(0.0979841 0.000372042 0)
(0.0979012 0.00039208 0)
(0.0978156 0.000413184 0)
(0.0977272 0.000435406 0)
(0.097636 0.000458807 0)
(0.097542 0.00048345 0)
(0.0974449 0.000509401 0)
(0.0973447 0.000536738 0)
(0.0972414 0.000565539 0)
(0.0971349 0.000595897 0)
(0.097025 0.000627908 0)
(0.0969118 0.000661684 0)
(0.096795 0.000697347 0)
(0.0966747 0.000735034 0)
(0.0965506 0.000774893 0)
(0.0964229 0.000817082 0)
(0.0962912 0.000861752 0)
(0.0961557 0.000909025 0)
(0.0960163 0.000958989 0)
(0.0958728 0.00101177 0)
(0.0955181 8.56991e-05 -5.12566e-24)
(0.0953444 9.07842e-05 -5.21767e-24)
(0.0951611 9.59506e-05 -3.35759e-26)
(0.0949681 0.000101021 1.60031e-23)
(0.0947657 0.000105842 -5.30255e-24)
(0.0945547 0.00011036 -5.44708e-24)
(0.094336 0.000114454 -1.67446e-23)
(0.0941103 0.000118161 1.66317e-23)
(0.0938783 0.000121675 5.68184e-24)
(0.0936402 0.000125316 0)
(0.0933954 0.000129488 5.85841e-24)
(0.0931424 0.000134624 -5.95353e-24)
(0.0928792 0.000141123 4.89009e-23)
(0.0926028 0.000149301 -1.04753e-22)
(0.0923099 0.000159367 5.59619e-23)
(0.0919969 0.000171423 4.52637e-23)
(0.09166 0.000185486 5.80838e-23)
(0.0912957 0.000201528 -6.64345e-24)
(0.0909003 0.000219512 6.78266e-24)
(0.0904704 0.000239429 -6.93027e-24)
(0.0900025 0.000261327 0)
(0.089493 0.000285323 7.25349e-24)
(0.0889381 0.000311613 -7.43064e-24)
(0.0883335 0.000340478 0)
(0.0876742 0.000372284 -7.82054e-24)
(0.0869548 0.000407493 0)
(0.0861688 0.000446665 -8.2651e-24)
(0.0853085 0.000490475 -1.38447e-22)
(0.0843651 0.000539731 1.4701e-22)
(0.0833281 0.000595408 -1.4755e-22)
(0.0821853 0.000658685 1.47325e-22)
(0.0809219 0.000731007 0)
(0.0795207 0.000814153 0)
(0.0779606 0.000910343 1.80853e-22)
(0.0762165 0.00102236 -1.70167e-22)
(0.0742577 0.0011537 0)
(0.0720465 0.00130877 0)
(0.0695369 0.00149302 0)
(0.0666722 0.00171303 0)
(0.0633832 0.00197626 0)
(0.0595871 0.00229015 0)
(0.0551889 0.00266008 0)
(0.0500869 0.00308536 0)
(0.044188 0.00355267 0)
(0.0374378 0.00402608 -1.72135e-23)
(0.0298712 0.00443348 -5.94417e-22)
(0.0216708 0.00465106 5.93526e-22)
(0.0132609 0.00448842 6.4774e-22)
(0.00571308 0.00365673 -6.46768e-22)
(0.00117204 0.00171445 0)
(0.0955282 0.000256488 -5.18072e-24)
(0.0953552 0.000271679 -1.05513e-23)
(0.0951725 0.000287112 -5.51393e-24)
(0.0949801 0.000302374 5.15915e-24)
(0.0947785 0.000316991 -5.37135e-24)
(0.094568 0.000330597 3.84345e-23)
(0.0943495 0.000342963 -6.03587e-23)
(0.0941237 0.000354238 5.59851e-24)
(0.0938912 0.000364986 7.46075e-23)
(0.093652 0.000376143 -1.03049e-22)
(0.0934057 0.000388901 -1.00442e-22)
(0.0931508 0.000404533 8.8506e-23)
(0.0928853 0.000424213 0)
(0.0926064 0.000448872 6.16522e-24)
(0.092311 0.000479127 -1.88247e-23)
(0.0919956 0.000515283 -2.13187e-22)
(0.0916566 0.0005574 2.04417e-22)
(0.0912904 0.0006054 -2.17302e-22)
(0.0908936 0.000659187 -2.03792e-23)
(0.0904628 0.000718752 6.94547e-24)
(0.0899945 0.000784249 0)
(0.0894852 0.000856039 -7.27228e-24)
(0.0889309 0.000934717 -2.34144e-22)
(0.0883275 0.00102113 4.89171e-22)
(0.08767 0.00111639 2.69526e-22)
(0.0869531 0.00122186 -5.08568e-22)
(0.0861702 0.00133924 5.47279e-22)
(0.0853139 0.00147053 -5.55332e-22)
(0.0843755 0.00161816 -8.80954e-24)
(0.0833448 0.00178505 0)
(0.0822096 0.00197471 0)
(0.0809559 0.00219145 0)
(0.0795666 0.0024406 0)
(0.0780216 0.00272875 -1.04785e-23)
(0.0762966 0.00306419 -7.116e-22)
(0.0743622 0.00345733 -3.09757e-23)
(0.0721826 0.00392122 7.40646e-22)
(0.0697139 0.00447203 8.09376e-22)
(0.0669027 0.00512919 -8.08304e-22)
(0.0636838 0.00591461 -2.69527e-23)
(0.0599791 0.00685002 -2.82428e-23)
(0.0556987 0.00795069 -9.79072e-22)
(0.0507454 0.00921363 9.46746e-22)
(0.0450269 0.0105979 -3.24919e-23)
(0.0384817 0.0119953 1.73339e-23)
(0.0311228 0.0131904 -1.20911e-21)
(0.0230892 0.0138145 1.20879e-21)
(0.0147299 0.0133026 -2.53247e-21)
(0.00696659 0.0108083 2.49012e-21)
(0.00168633 0.00503107 -2.55097e-21)
(0.0955483 0.000425747 -3.06692e-23)
(0.0953764 0.000450934 -1.07246e-23)
(0.0951951 0.000476601 4.14634e-23)
(0.0950042 0.000502078 -8.51367e-23)
(0.0948039 0.000526593 1.82086e-22)
(0.0945945 0.000549462 -8.62175e-23)
(0.0943766 0.000570419 1.48143e-26)
(0.0941507 0.000589737 1.1168e-23)
(0.0939173 0.000608324 1.94439e-22)
(0.0936763 0.000627682 -1.82898e-22)
(0.0934273 0.000649724 0)
(0.0931689 0.000676494 1.49026e-26)
(0.0928993 0.000709876 0)
(0.0926161 0.000751369 2.11709e-22)
(0.0923162 0.00080197 -1.86614e-22)
(0.0919965 0.000862182 -4.0154e-22)
(0.0916537 0.000932129 2.19206e-23)
(0.0912844 0.00101171 -4.22414e-22)
(0.0908854 0.00110083 1.3637e-23)
(0.0904532 0.00119949 -4.51325e-22)
(0.0899845 0.00130801 4.65147e-22)
(0.0894757 0.00142702 -4.73327e-22)
(0.0889231 0.00155754 4.87835e-22)
(0.0883224 0.00170098 1.53423e-23)
(0.0876689 0.0018592 -1.57547e-23)
(0.0869572 0.00203449 1.61943e-23)
(0.086181 0.00222965 -5.42092e-22)
(0.0853331 0.00244802 5.58777e-22)
(0.0844051 0.00269361 5.94378e-22)
(0.0833872 0.00297125 -5.76131e-22)
(0.082268 0.00328677 0)
(0.081034 0.00364728 0)
(0.0796692 0.00406154 2.02651e-23)
(0.078155 0.00454044 1.39753e-21)
(0.0764689 0.00509755 3.49214e-23)
(0.0745841 0.0057499 -1.40788e-21)
(0.0724682 0.00651876 0)
(0.0700823 0.00743038 -2.47051e-23)
(0.067379 0.00851605 1.72588e-21)
(0.0643013 0.0098108 -3.45073e-21)
(0.0607807 0.0113487 3.66999e-21)
(0.0567376 0.0131523 1.18765e-22)
(0.052083 0.0152135 -1.91783e-21)
(0.0467263 0.0174608 -2.09555e-21)
(0.0405911 0.0197129 2.15966e-21)
(0.0336451 0.021615 1.63483e-24)
(0.025939 0.0225621 -3.70707e-23)
(0.0176722 0.0216281 2.44678e-21)
(0.00945312 0.0174668 -2.36929e-21)
(0.00267424 0.00805548 -2.36771e-21)
(0.0955782 0.000592565 2.02166e-23)
(0.0954081 0.000627531 -1.02488e-23)
(0.0952288 0.000663276 2.0342e-26)
(0.09504 0.000698848 1.0526e-23)
(0.0948417 0.000733243 -2.04594e-26)
(0.094634 0.000765636 1.74462e-22)
(0.0944172 0.000795683 -3.29513e-22)
(0.0941916 0.000823758 1.77011e-22)
(0.0939574 0.000851076 -1.13168e-23)
(0.0937144 0.000879638 2.08856e-22)
(0.0934622 0.000911982 -1.85766e-22)
(0.0931996 0.000950818 -3.84779e-22)
(0.092925 0.000998643 7.76547e-22)
(0.0926362 0.00105745 -7.911e-22)
(0.0923309 0.00112857 8.06384e-22)
(0.0920061 0.00121271 -8.09685e-22)
(0.0916588 0.00131007 -4.28454e-22)
(0.091286 0.0014206 2.15226e-26)
(0.0908846 0.00154423 0)
(0.0904514 0.00168108 -4.39617e-22)
(0.089983 0.00183165 4.5343e-22)
(0.089476 0.00199689 0)
(0.0889268 0.00217827 -9.773e-22)
(0.088331 0.0023778 9.61454e-22)
(0.0876843 0.00259807 1.59046e-23)
(0.0869812 0.0028423 -3.46651e-26)
(0.0862159 0.00311436 1.68033e-23)
(0.0853816 0.00341891 0)
(0.0844702 0.00376152 -5.03279e-26)
(0.0834728 0.00414887 0)
(0.0823786 0.00458903 -1.90716e-23)
(0.0811755 0.00509183 1.28984e-21)
(0.079849 0.00566933 -1.28948e-21)
(0.0783826 0.00633645 -2.13429e-23)
(0.0767566 0.00711176 4.42343e-23)
(0.0749481 0.00801842 -1.5277e-21)
(0.07293 0.00908521 1.48021e-21)
(0.0706704 0.0103474 2.51323e-23)
(0.0681315 0.0118465 -3.64775e-25)
(0.0652682 0.0136285 2.69839e-23)
(0.0620265 0.0157366 -1.86121e-21)
(0.058342 0.0181969 3.77059e-21)
(0.0541382 0.0209913 -1.96971e-21)
(0.049326 0.0240145 2.05635e-21)
(0.0438066 0.0270116 -2.1529e-21)
(0.037478 0.0294969 -4.31165e-21)
(0.030252 0.0306509 8.80441e-21)
(0.0221045 0.0292098 -4.46136e-21)
(0.0132222 0.023376 0)
(0.00414072 0.0106534 -4.18499e-21)
(0.0956174 0.00075604 -1.0028e-23)
(0.0954497 0.000800438 -4.09123e-23)
(0.095273 0.000845925 1.23948e-22)
(0.095087 0.000891416 -1.67238e-22)
(0.0948914 0.000935737 7.3629e-23)
(0.0946862 0.000977935 1.07805e-23)
(0.0944713 0.00101762 -1.09505e-23)
(0.0942466 0.00105526 -2.58183e-26)
(0.0940122 0.00109235 1.13146e-23)
(0.0937677 0.00113128 -2.29938e-23)
(0.0935126 0.00117512 -3.77839e-22)
(0.093246 0.0012271 3.89938e-22)
(0.0929665 0.00129022 -3.80164e-22)
(0.0926725 0.00136686 3.92446e-22)
(0.0923619 0.00145866 0)
(0.0920322 0.00156651 -2.43398e-26)
(0.091681 0.00169074 0)
(0.0913055 0.00183138 -4.22228e-22)
(0.0909027 0.00198845 4.49664e-22)
(0.0904697 0.00216228 -1.41136e-23)
(0.0900034 0.00235361 -9.50617e-22)
(0.0895003 0.00256375 9.36582e-22)
(0.0889569 0.00279463 -1.52186e-23)
(0.0883693 0.00304888 0)
(0.0877329 0.00332984 0)
(0.087043 0.0036416 -1.08974e-21)
(0.0862939 0.0039891 1.05664e-21)
(0.0854794 0.00437827 0)
(0.0845921 0.00481616 -3.62433e-23)
(0.083624 0.00531123 0)
(0.0825656 0.00587368 1.94062e-23)
(0.0814062 0.00651588 -2.00215e-23)
(0.0801337 0.00725294 -2.08495e-23)
(0.0787342 0.00810348 2.15252e-23)
(0.0771919 0.00909055 1.41831e-21)
(0.075489 0.0102427 -1.46382e-21)
(0.0736054 0.0115951 3.19319e-21)
(0.0715189 0.0131904 -3.19533e-21)
(0.0692039 0.0150782 3.40944e-21)
(0.0666316 0.0173123 1.10108e-22)
(0.0637671 0.0199411 -3.60504e-21)
(0.0605664 0.0229896 -2.90247e-23)
(0.0569693 0.0264256 1.33214e-24)
(0.0528894 0.0301077 1.79633e-24)
(0.0481995 0.0337118 2.41673e-24)
(0.0427093 0.036638 -6.38977e-23)
(0.0361441 0.0378899 -2.94333e-23)
(0.0281683 0.0359172 -2.7951e-23)
(0.0184241 0.0284931 0)
(0.00610951 0.0128117 8.72037e-24)
(0.0956655 0.000915335 -4.97632e-23)
(0.0955006 0.000968799 2.99339e-23)
(0.0953271 0.00102377 1.02257e-23)
(0.0951446 0.00107905 1.56763e-22)
(0.0949526 0.00113337 -1.56832e-22)
(0.0947508 0.0011857 1.61934e-22)
(0.0945387 0.00123565 -3.59298e-22)
(0.0943161 0.0012838 5.10953e-22)
(0.0940825 0.00133185 -3.5779e-22)
(0.0938377 0.00138256 -3.7046e-22)
(0.0935809 0.00143935 -1.82416e-23)
(0.0933116 0.00150589 7.51252e-22)
(0.0930286 0.00158554 -7.90615e-22)
(0.0927307 0.001681 3.68606e-22)
(0.0924162 0.00179413 3.97103e-22)
(0.0920834 0.00192602 4.14462e-22)
(0.0917299 0.00207714 -3.12674e-23)
(0.0913535 0.00224766 8.44733e-22)
(0.0909515 0.00243783 8.71042e-22)
(0.0905212 0.00264819 2.13738e-23)
(0.0900597 0.00287982 -9.22827e-22)
(0.0895636 0.00313447 0)
(0.0890297 0.00341459 0)
(0.0884543 0.00372345 -1.02649e-21)
(0.0878332 0.00406514 1.01175e-21)
(0.087162 0.00444467 1.0892e-21)
(0.0864357 0.00486805 -1.09082e-21)
(0.0856486 0.00534245 0)
(0.0847945 0.00587642 1.21762e-21)
(0.0838664 0.00648015 -1.21998e-21)
(0.0828564 0.00716588 0)
(0.081756 0.0079484 -2.64349e-21)
(0.0805555 0.00884569 2.66796e-21)
(0.0792447 0.00987969 -2.20683e-23)
(0.0778127 0.0110773 -2.95944e-21)
(0.0762479 0.0124713 2.98687e-21)
(0.0745392 0.0141016 0)
(0.0726757 0.0160153 3.37541e-21)
(0.0706477 0.0182659 -3.35467e-21)
(0.0684463 0.0209084 2.73608e-23)
(0.0660609 0.0239878 3.74576e-21)
(0.0634733 0.027517 -7.53479e-21)
(0.0606456 0.0314382 1.1102e-24)
(0.0574986 0.0355653 2.17102e-23)
(0.0538782 0.0395056 3.96077e-21)
(0.0495014 0.0425671 4.26633e-24)
(0.043886 0.0436363 -3.42381e-21)
(0.0362983 0.040991 3.50984e-21)
(0.0255681 0.0321604 0)
(0.00886583 0.0142067 3.07736e-23)
(0.0957218 0.00106961 9.80553e-24)
(0.0955603 0.00113147 9.02275e-23)
(0.0953908 0.00119535 -8.04612e-23)
(0.0952125 0.00125999 1.0313e-23)
(0.095025 0.00132406 1.58323e-22)
(0.0948275 0.00138652 -1.58585e-22)
(0.0946195 0.00144701 -3.39079e-22)
(0.0944003 0.00150623 5.41187e-24)
(0.0941693 0.00156606 -5.94698e-24)
(0.093926 0.00162952 3.75858e-22)
(0.0936697 0.00170034 -3.66443e-22)
(0.0934 0.00178246 7.7724e-22)
(0.093116 0.00187954 -3.8711e-22)
(0.0928169 0.00199449 1.24948e-23)
(0.0925014 0.00212937 1.27756e-23)
(0.0921682 0.00228543 8.44179e-22)
(0.0918156 0.00246334 -4.85689e-24)
(0.0914414 0.00266348 8.80517e-22)
(0.0910436 0.00288637 1.40555e-23)
(0.0906196 0.0031329 0)
(0.0901668 0.00340457 0)
(0.0896823 0.00370363 -9.84913e-22)
(0.089163 0.00403315 9.87402e-22)
(0.0886055 0.00439711 0)
(0.0880063 0.00480045 1.65898e-23)
(0.0873614 0.00524915 0)
(0.0866666 0.00575039 -1.14523e-21)
(0.0859173 0.00631268 2.33155e-21)
(0.0851083 0.00694614 -1.18641e-21)
(0.0842342 0.00766284 -2.51511e-21)
(0.0832893 0.0084772 -8.54656e-23)
(0.0822673 0.00940656 -9.07739e-23)
(0.0811622 0.0104718 -9.61575e-23)
(0.0799677 0.0116983 2.83306e-21)
(0.0786786 0.0131165 3.04789e-21)
(0.0772908 0.014763 -3.05514e-21)
(0.0758026 0.0166807 0)
(0.0742159 0.0189186 3.40651e-21)
(0.0725378 0.0215283 -3.41441e-21)
(0.0707803 0.0245566 -3.65622e-21)
(0.0689585 0.0280302 3.63615e-21)
(0.0670831 0.0319274 2.99038e-23)
(0.0651435 0.036135 3.71898e-21)
(0.0630771 0.040388 -1.002e-22)
(0.0607209 0.0441958 -3.69523e-21)
(0.057732 0.0467717 2.82915e-23)
(0.0534781 0.0469636 0)
(0.0469166 0.043119 -2.24595e-23)
(0.0358791 0.0330157 -1.04224e-21)
(0.0142856 0.0141105 5.01984e-22)
(-0.000226292 0.000205219 0)
(-0.000511299 5.20635e-05 2.66675e-22)
(-0.000232349 -0.000376751 -2.67075e-22)
(0.000927673 -0.000909211 -2.3447e-22)
(0.00306631 -0.00145162 2.34822e-22)
(0.00613546 -0.00194267 -6.32155e-24)
(0.010007 -0.00234756 0)
(0.0145125 -0.00265076 0)
(0.0194698 -0.0028498 0)
(0.0247006 -0.0029509 0)
(0.0300417 -0.00296574 0)
(0.0353526 -0.00290891 0)
(0.0405191 -0.00279603 0)
(0.0454535 -0.00264232 0)
(0.0500941 -0.00246175 0)
(0.0544021 -0.0022664 7.96818e-24)
(0.0583584 -0.00206625 -7.52477e-24)
(0.06196 -0.00186905 0)
(0.065216 -0.00168049 0)
(0.0681444 -0.00150438 -3.34405e-24)
(0.0707687 -0.00134296 3.34916e-24)
(0.0731156 -0.00119719 -2.98695e-24)
(0.0752128 -0.00106708 2.16079e-25)
(0.0770876 -0.000951975 0)
(0.0787658 -0.000850784 2.41415e-25)
(0.0802712 -0.000762188 0)
(0.0816251 -0.000684788 0)
(0.0828463 -0.000617194 0)
(0.0839513 -0.000558106 3.09692e-25)
(0.0849546 -0.000506348 0)
(0.0858683 -0.000460882 -3.39366e-25)
(0.0867032 -0.000420811 3.52117e-25)
(0.0874683 -0.000385367 -3.63419e-25)
(0.0881714 -0.000353902 3.3713e-24)
(0.0888194 -0.000325868 -3.38444e-24)
(0.089418 -0.000300805 -2.72906e-24)
(0.0899724 -0.000278329 5.89121e-24)
(0.090487 -0.000258114 -3.16823e-24)
(0.0909657 -0.000239888 -4.03713e-25)
(0.0914121 -0.000223419 4.06601e-25)
(0.091829 -0.000208512 0)
(0.0922194 -0.000195 4.0986e-25)
(0.0925856 -0.000182744 -2.04711e-24)
(0.0929299 -0.000171622 2.04954e-24)
(0.0932542 -0.000161535 -4.09564e-25)
(0.0935605 -0.000152398 1.22158e-24)
(0.0938503 -0.00014414 -4.07855e-25)
(0.0941254 -0.000136697 -8.07114e-25)
(0.0943872 -0.000130007 4.03197e-25)
(0.094637 -0.000123993 -3.99305e-25)
(-0.00020847 0.000555051 -1.09359e-21)
(-0.00030848 2.26424e-05 -1.12618e-21)
(0.000355832 -0.00124082 1.10941e-21)
(0.0019242 -0.00280738 -4.68536e-22)
(0.00441409 -0.00439796 4.70588e-22)
(0.00775216 -0.00583235 6.36521e-24)
(0.0117988 -0.00701177 -1.15561e-23)
(0.0163876 -0.00789269 -2.896e-22)
(0.0213474 -0.00846878 2.80111e-22)
(0.0265152 -0.00875876 -6.72721e-24)
(0.0317448 -0.00879695 -5.3896e-24)
(0.036912 -0.00862598 1.13214e-22)
(0.0419169 -0.00829131 -1.13365e-22)
(0.0466839 -0.00783731 -6.49312e-23)
(0.0511602 -0.00730461 1.64536e-23)
(0.0553136 -0.00672847 4.86294e-23)
(0.059129 -0.00613799 -4.57767e-25)
(0.0626056 -0.00555588 -8.66261e-25)
(0.065753 -0.00499884 0)
(0.0685888 -0.00447811 0)
(0.0711354 -0.00400034 0)
(0.0734178 -0.00356847 -2.1278e-25)
(0.0754621 -0.00318261 1.42461e-23)
(0.0772937 -0.00284091 -1.55152e-23)
(0.0789368 -0.00254021 1.63481e-23)
(0.0804138 -0.00227667 -7.80766e-24)
(0.0817446 -0.00204622 -1.81462e-23)
(0.0829471 -0.00184479 9.34202e-24)
(0.084037 -0.00166857 -3.10491e-25)
(0.0850277 -0.00151411 -6.79256e-25)
(0.0859311 -0.00137834 3.40107e-25)
(0.0867574 -0.00125862 -1.07921e-24)
(0.0875153 -0.00115268 1.15081e-23)
(0.0882123 -0.00105861 -2.44515e-23)
(0.088855 -0.00097477 1.17913e-23)
(0.0894492 -0.000899806 -1.18075e-24)
(0.0899997 -0.00083257 3.95393e-25)
(0.0905109 -0.000772094 0)
(0.0909867 -0.000717565 -6.9151e-24)
(0.0914304 -0.000668291 6.10468e-24)
(0.091845 -0.000623688 5.73666e-24)
(0.0922332 -0.000583258 -7.80499e-24)
(0.0925975 -0.000546578 4.10286e-25)
(0.09294 -0.00051329 2.04626e-24)
(0.0932627 -0.000483094 -3.69889e-24)
(0.0935674 -0.000455735 -4.07992e-25)
(0.0938558 -0.000430999 -2.84316e-24)
(0.0941294 -0.000408695 -3.94822e-25)
(0.0943898 -0.000388632 8.13562e-25)
(0.0946382 -0.000370583 1.20001e-24)
(-0.000167603 0.000709867 -1.18533e-21)
(0.000150115 -0.000321291 1.20685e-21)
(0.001587 -0.00239264 -1.17068e-21)
(0.0039067 -0.0049182 -1.6483e-23)
(0.00704398 -0.00745222 -8.80459e-25)
(0.010871 -0.00972036 -8.10692e-22)
(0.0152278 -0.011576 8.37436e-22)
(0.0199554 -0.0129554 6.15181e-22)
(0.0249053 -0.0138513 -9.43007e-23)
(0.0299443 -0.0142946 -9.0515e-22)
(0.0349578 -0.0143401 7.42012e-22)
(0.0398517 -0.0140551 -3.22566e-22)
(0.0445522 -0.013511 -3.83407e-24)
(0.0490053 -0.0127777 0)
(0.0531746 -0.0119188 1.20486e-22)
(0.0570392 -0.0109902 -2.90156e-23)
(0.0605915 -0.0100377 -8.97277e-23)
(0.0638342 -0.00909755 2.01913e-24)
(0.0667783 -0.00819645 0)
(0.0694404 -0.00735256 0)
(0.0718407 -0.0065768 1.91211e-23)
(0.0740015 -0.00587415 -1.84722e-23)
(0.0759454 -0.00524509 -1.76311e-23)
(0.077695 -0.00468692 1.8688e-23)
(0.0792711 -0.00419479 6.38073e-25)
(0.0806937 -0.00376272 -6.50593e-25)
(0.0819803 -0.00338424 6.67775e-25)
(0.0831467 -0.00305291 -2.05571e-23)
(0.084207 -0.00276264 2.12645e-23)
(0.0851734 -0.0025079 -2.13547e-23)
(0.0860566 -0.00228375 2.2786e-23)
(0.086866 -0.00208592 7.29268e-25)
(0.0876097 -0.00191074 2.45616e-23)
(0.0882947 -0.00175507 -4.88791e-23)
(0.0889271 -0.00161627 2.58611e-23)
(0.0895124 -0.00149211 1.36811e-23)
(0.0900552 -0.00138071 -1.20791e-23)
(0.0905597 -0.00128049 0)
(0.0910295 -0.0011901 -1.3899e-26)
(0.0914679 -0.00110841 0)
(0.0918778 -0.00103445 1.32479e-23)
(0.0922618 -0.00096739 -1.24458e-23)
(0.0926222 -0.00090654 8.33871e-25)
(0.0929612 -0.000851303 -7.49917e-27)
(0.0932806 -0.000801177 6.56931e-24)
(0.0935822 -0.00075574 -1.23007e-23)
(0.0938677 -0.000714634 6.54362e-24)
(0.0941385 -0.000677537 -3.23305e-24)
(0.0943961 -0.000644129 2.43681e-24)
(0.0946416 -0.000614026 8.03274e-25)
(3.16972e-06 0.000593715 -2.67212e-21)
(0.00102654 -0.00108433 0)
(0.00352317 -0.0039528 2.43081e-21)
(0.00686137 -0.00731807 -4.7038e-21)
(0.010847 -0.0106321 2.28743e-21)
(0.0152905 -0.0135691 8.73457e-22)
(0.0200183 -0.0159564 -9.17762e-22)
(0.0248902 -0.0177201 6.72704e-22)
(0.0297922 -0.0188553 -1.24673e-21)
(0.0346324 -0.0194039 5.64764e-22)
(0.0393385 -0.0194373 7.00888e-24)
(0.043855 -0.0190419 7.60108e-25)
(0.0481418 -0.0183096 3.8997e-24)
(0.0521717 -0.0173298 -1.93304e-22)
(0.0559287 -0.0161847 1.87339e-22)
(0.0594063 -0.0149463 4.17903e-24)
(0.0626057 -0.0136744 -1.44993e-24)
(0.0655344 -0.0124165 7.76189e-23)
(0.0682047 -0.011208 -7.72763e-23)
(0.0706319 -0.0100731 -1.09476e-24)
(0.0728337 -0.00902701 0)
(0.0748284 -0.00807674 2.04628e-25)
(0.0766349 -0.00722359 0)
(0.0782711 -0.00646441 7.90861e-25)
(0.0797545 -0.0057933 1.29229e-25)
(0.0811009 -0.00520258 6.56757e-25)
(0.0823252 -0.00468392 -4.68337e-23)
(0.0834405 -0.00422889 4.62589e-23)
(0.0844586 -0.00382948 0)
(0.0853901 -0.00347835 -2.4461e-23)
(0.0862443 -0.00316895 2.53363e-23)
(0.0870292 -0.00289553 0)
(0.0877522 -0.00265315 -4.10139e-26)
(0.0884195 -0.00243758 -2.69028e-23)
(0.0890368 -0.00224524 5.33289e-23)
(0.089609 -0.00207309 -5.29715e-23)
(0.0901404 -0.00191855 5.337e-23)
(0.0906348 -0.00177947 -5.36167e-23)
(0.0910958 -0.00165398 2.68491e-23)
(0.0915264 -0.00154053 1.34703e-23)
(0.0919293 -0.00143779 -1.17889e-23)
(0.0923069 -0.00134462 -8.4817e-25)
(0.0926616 -0.00126004 -1.33711e-23)
(0.0929953 -0.00118323 2.83786e-23)
(0.0933098 -0.0011135 -1.33339e-23)
(0.0936069 -0.00105024 7.91176e-27)
(0.093888 -0.000992962 8.16344e-25)
(0.0941546 -0.000941207 -6.03293e-27)
(0.094408 -0.000894523 -8.03303e-25)
(0.0946493 -0.000852366 1.59608e-24)
(0.000400294 0.000177266 -2.47474e-24)
(0.00254042 -0.0023522 -2.51329e-23)
(0.006312 -0.00595687 -2.31842e-23)
(0.0108095 -0.00997964 -2.12501e-23)
(0.015705 -0.0138594 -3.72532e-23)
(0.0207677 -0.0172637 -1.2319e-24)
(0.0258322 -0.020016 1.41673e-23)
(0.0307916 -0.0220404 -1.33913e-23)
(0.0355773 -0.0233344 -1.15228e-23)
(0.0401454 -0.023947 1.06801e-21)