/*--------------------------------*- C++ -*----------------------------------*\
| =========                 |                                                 |
| \\      /  F ield         | OpenFOAM: The Open Source CFD Toolbox           |
|  \\    /   O peration     | Version:  2412                                  |
|   \\  /    A nd           | Website:  www.openfoam.com                      |
|    \\/     M anipulation  |                                                 |
\*---------------------------------------------------------------------------*/
FoamFile
{
    version     2.0;
    format      ascii;
    arch        "LSB;label=32;scalar=64";
    class       volVectorField;
    location    "5.5";
    object      vorticity;
}
// * * * * * * * * * * * * * * * * * * * * * * * * * * * * * * * * * * * * * //

dimensions      [0 0 -1 0 0 0 0];

internalField   nonuniform List<vector> 
63420
(
(0 0 3.24411e-05)
(0 0 6.90015e-05)
(0 0 3.77003e-05)
(0 0 -3.97993e-05)
(0 0 -0.000101379)
(0 0 -0.000117133)
(0 0 -9.79501e-05)
(0 0 -6.70731e-05)
(0 0 -4.01122e-05)
(0 0 -2.20672e-05)
(0 0 -1.18767e-05)
(0 0 -6.80381e-06)
(0 0 -4.52799e-06)
(0 0 -3.60284e-06)
(0 0 -3.26988e-06)
(0 0 -3.17613e-06)
(0 0 -3.17094e-06)
(0 0 -3.19523e-06)
(0 0 -3.22798e-06)
(0 0 -3.26172e-06)
(0 0 -3.29329e-06)
(0 0 -3.3213e-06)
(0 0 -3.34529e-06)
(0 0 -3.366e-06)
(0 0 -3.38368e-06)
(0 0 -3.3982e-06)
(0 0 -3.40869e-06)
(0 0 -3.41437e-06)
(0 0 -3.41456e-06)
(0 0 -3.40907e-06)
(0 0 -3.39771e-06)
(0 0 -3.38056e-06)
(0 0 -3.3574e-06)
(0 0 -3.32787e-06)
(0 0 -3.29122e-06)
(0 0 -3.24657e-06)
(0 0 -3.19292e-06)
(0 0 -3.12937e-06)
(0 0 -3.05512e-06)
(0 0 -2.96941e-06)
(0 0 -2.87138e-06)
(0 0 -2.75992e-06)
(0 0 -2.63341e-06)
(0 0 -2.48968e-06)
(0 0 -2.3258e-06)
(0 0 -2.13825e-06)
(0 0 -1.92304e-06)
(0 0 -1.67703e-06)
(0 0 -1.40137e-06)
(0 0 -1.10965e-06)
(0 0 -8.41068e-07)
(0 0 -6.7e-07)
(0 0 -6.72547e-07)
(0 0 -7.28453e-07)
(0 5.08603e-23 1.73713e-07)
(0 0 9.65444e-05)
(0 0 0.000205137)
(0 0 0.00011225)
(0 0 -0.000117824)
(0 0 -0.000300748)
(0 0 -0.000347666)
(0 0 -0.000290854)
(0 0 -0.000199289)
(0 0 -0.000119314)
(0 0 -6.57845e-05)
(0 0 -3.55585e-05)
(0 0 -2.05135e-05)
(0 0 -1.37627e-05)
(0 0 -1.10164e-05)
(0 0 -1.00272e-05)
(0 0 -9.74964e-06)
(0 0 -9.73888e-06)
(0 0 -9.81921e-06)
(0 0 -9.92547e-06)
(0 0 -1.00341e-05)
(0 0 -1.01363e-05)
(0 0 -1.02287e-05)
(0 0 -1.03108e-05)
(0 0 -1.03826e-05)
(0 0 -1.04442e-05)
(0 0 -1.04946e-05)
(0 0 -1.05327e-05)
(0 0 -1.05569e-05)
(0 0 -1.05661e-05)
(0 0 -1.05594e-05)
(0 0 -1.05359e-05)
(0 0 -1.0495e-05)
(0 0 -1.04358e-05)
(0 0 -1.03572e-05)
(0 0 -1.02577e-05)
(0 0 -1.01354e-05)
(0 0 -9.9883e-06)
(0 0 -9.81426e-06)
(0 0 -9.61087e-06)
(0 0 -9.37545e-06)
(0 0 -9.10474e-06)
(0 0 -8.79465e-06)
(0 0 -8.43989e-06)
(0 0 -8.03369e-06)
(0 0 -7.56753e-06)
(0 0 -7.03101e-06)
(0 0 -6.41246e-06)
(0 0 -5.70222e-06)
(0 0 -4.90301e-06)
(0 0 -4.05385e-06)
(0 0 -3.26938e-06)
(0 0 -2.76867e-06)
(0 0 -2.77922e-06)
(0 0 -2.96104e-06)
(0 5.13439e-23 -3.81733e-07)
(0 0 0.000158494)
(0 0 0.000336555)
(0 0 0.000185516)
(0 0 -0.000190318)
(0 0 -0.000489842)
(0 0 -0.000567338)
(0 0 -0.000475159)
(0 0 -0.000325922)
(0 0 -0.00019542)
(0 0 -0.000108028)
(0 0 -5.86724e-05)
(0 0 -3.4109e-05)
(0 0 -2.30939e-05)
(0 0 -1.86204e-05)
(0 0 -1.70174e-05)
(0 0 -1.65775e-05)
(0 0 -1.65743e-05)
(0 0 -1.67208e-05)
(0 0 -1.69095e-05)
(0 0 -1.71015e-05)
(0 0 -1.72829e-05)
(0 0 -1.74488e-05)
(0 0 -1.75982e-05)
(0 0 -1.77308e-05)
(0 0 -1.78462e-05)
(0 0 -1.7943e-05)
(0 0 -1.80193e-05)
(0 0 -1.80733e-05)
(0 0 -1.81033e-05)
(0 0 -1.81079e-05)
(0 0 -1.80858e-05)
(0 0 -1.80354e-05)
(0 0 -1.79555e-05)
(0 0 -1.78441e-05)
(0 0 -1.7699e-05)
(0 0 -1.75177e-05)
(0 0 -1.72971e-05)
(0 0 -1.7034e-05)
(0 0 -1.67245e-05)
(0 0 -1.63642e-05)
(0 0 -1.59477e-05)
(0 0 -1.54683e-05)
(0 0 -1.49172e-05)
(0 0 -1.42837e-05)
(0 0 -1.35541e-05)
(0 0 -1.27119e-05)
(0 0 -1.17387e-05)
(0 0 -1.06192e-05)
(0 0 -9.35771e-06)
(0 0 -8.01695e-06)
(0 0 -6.78111e-06)
(0 0 -6.00435e-06)
(0 0 -6.06438e-06)
(0 0 -6.46246e-06)
(0 3.03214e-22 -2.64014e-06)
(0 0 0.000216699)
(0 0 0.000460653)
(0 0 0.000258205)
(0 0 -0.00025149)
(0 0 -0.000659864)
(0 0 -0.00076743)
(0 0 -0.000644118)
(0 0 -0.000442552)
(0 0 -0.000265843)
(0 0 -0.000147368)
(0 0 -8.04218e-05)
(0 0 -4.7102e-05)
(0 0 -3.21706e-05)
(0 0 -2.61205e-05)
(0 0 -2.39682e-05)
(0 0 -2.33949e-05)
(0 0 -2.34148e-05)
(0 0 -2.36377e-05)
(0 0 -2.39175e-05)
(0 0 -2.42013e-05)
(0 0 -2.44706e-05)
(0 0 -2.47192e-05)
(0 0 -2.49457e-05)
(0 0 -2.51495e-05)
(0 0 -2.53298e-05)
(0 0 -2.54846e-05)
(0 0 -2.56119e-05)
(0 0 -2.57093e-05)
(0 0 -2.57749e-05)
(0 0 -2.58068e-05)
(0 0 -2.58033e-05)
(0 0 -2.57623e-05)
(0 0 -2.5682e-05)
(0 0 -2.55598e-05)
(0 0 -2.53931e-05)
(0 0 -2.51785e-05)
(0 0 -2.49124e-05)
(0 0 -2.45904e-05)
(0 0 -2.42076e-05)
(0 0 -2.37581e-05)
(0 0 -2.32348e-05)
(0 0 -2.26286e-05)
(0 0 -2.1928e-05)
(0 0 -2.11189e-05)
(0 0 -2.01836e-05)
(0 0 -1.91006e-05)
(0 0 -1.78461e-05)
(0 0 -1.64003e-05)
(0 0 -1.47697e-05)
(0 0 -1.30378e-05)
(0 0 -1.14495e-05)
(0 0 -1.048e-05)
(0 0 -1.06592e-05)
(0 0 -1.14342e-05)
(0 -1.99159e-22 -7.09982e-06)
(0 0 0.000269411)
(0 0 0.000575449)
(0 0 0.000332644)
(0 0 -0.000293667)
(0 0 -0.000800403)
(0 0 -0.000938097)
(0 0 -0.000790248)
(0 0 -0.000544241)
(0 0 -0.000327572)
(0 0 -0.000181983)
(0 0 -9.96167e-05)
(0 0 -5.86033e-05)
(0 0 -4.02315e-05)
(0 0 -3.28031e-05)
(0 0 -3.0179e-05)
(0 0 -2.95012e-05)
(0 0 -2.95545e-05)
(0 0 -2.98576e-05)
(0 0 -3.02302e-05)
(0 0 -3.06074e-05)
(0 0 -3.09667e-05)
(0 0 -3.13011e-05)
(0 0 -3.16088e-05)
(0 0 -3.1889e-05)
(0 0 -3.21403e-05)
(0 0 -3.23605e-05)
(0 0 -3.25472e-05)
(0 0 -3.2698e-05)
(0 0 -3.28108e-05)
(0 0 -3.28834e-05)
(0 0 -3.29136e-05)
(0 0 -3.28992e-05)
(0 0 -3.28377e-05)
(0 0 -3.27264e-05)
(0 0 -3.2562e-05)
(0 0 -3.23407e-05)
(0 0 -3.20583e-05)
(0 0 -3.17098e-05)
(0 0 -3.12893e-05)
(0 0 -3.07899e-05)
(0 0 -3.0203e-05)
(0 0 -2.9518e-05)
(0 0 -2.87215e-05)
(0 0 -2.77966e-05)
(0 0 -2.67228e-05)
(0 0 -2.54753e-05)
(0 0 -2.40263e-05)
(0 0 -2.23534e-05)
(0 0 -2.04656e-05)
(0 0 -1.84636e-05)
(0 0 -1.66425e-05)
(0 0 -1.55829e-05)
(0 0 -1.59772e-05)
(0 0 -1.73753e-05)
(0 9.83265e-23 -1.35734e-05)
(0 0 0.000314741)
(0 0 0.000679745)
(0 0 0.000412219)
(0 0 -0.000308429)
(0 0 -0.000900805)
(0 0 -0.00106958)
(0 0 -0.000906228)
(0 0 -0.000626144)
(0 0 -0.000377572)
(0 0 -0.000209928)
(0 0 -0.000114884)
(0 0 -6.75022e-05)
(0 0 -4.62726e-05)
(0 0 -3.76991e-05)
(0 0 -3.46855e-05)
(0 0 -3.39251e-05)
(0 0 -3.4011e-05)
(0 0 -3.43857e-05)
(0 0 -3.48407e-05)
(0 0 -3.5301e-05)
(0 0 -3.57412e-05)
(0 0 -3.61534e-05)
(0 0 -3.65356e-05)
(0 0 -3.68867e-05)
(0 0 -3.72051e-05)
(0 0 -3.74883e-05)
(0 0 -3.77339e-05)
(0 0 -3.79394e-05)
(0 0 -3.81026e-05)
(0 0 -3.82212e-05)
(0 0 -3.82928e-05)
(0 0 -3.83149e-05)
(0 0 -3.82848e-05)
(0 0 -3.81995e-05)
(0 0 -3.80555e-05)
(0 0 -3.78487e-05)
(0 0 -3.75743e-05)
(0 0 -3.72268e-05)
(0 0 -3.68e-05)
(0 0 -3.62862e-05)
(0 0 -3.5676e-05)
(0 0 -3.49575e-05)
(0 0 -3.41163e-05)
(0 0 -3.31341e-05)
(0 0 -3.19886e-05)
(0 0 -3.06531e-05)
(0 0 -2.90979e-05)
(0 0 -2.72998e-05)
(0 0 -2.52705e-05)
(0 0 -2.31243e-05)
(0 0 -2.11943e-05)
(0 0 -2.0152e-05)
(0 0 -2.08785e-05)
(0 0 -2.32575e-05)
(0 4.85159e-22 -2.14061e-05)
(0 0 0.000351598)
(0 0 0.000773131)
(0 0 0.000500272)
(0 0 -0.000288666)
(0 0 -0.000952453)
(0 0 -0.00115417)
(0 0 -0.000986328)
(0 0 -0.000684456)
(0 0 -0.000413422)
(0 0 -0.0002296)
(0 0 -0.000125036)
(0 0 -7.27992e-05)
(0 0 -4.93656e-05)
(0 0 -3.98988e-05)
(0 0 -3.65753e-05)
(0 0 -3.57435e-05)
(0 0 -3.58477e-05)
(0 0 -3.62717e-05)
(0 0 -3.67847e-05)
(0 0 -3.73044e-05)
(0 0 -3.78029e-05)
(0 0 -3.8272e-05)
(0 0 -3.87094e-05)
(0 0 -3.91137e-05)
(0 0 -3.94833e-05)
(0 0 -3.98156e-05)
(0 0 -4.01081e-05)
(0 0 -4.03585e-05)
(0 0 -4.05645e-05)
(0 0 -4.07237e-05)
(0 0 -4.08338e-05)
(0 0 -4.08922e-05)
(0 0 -4.0896e-05)
(0 0 -4.08421e-05)
(0 0 -4.07267e-05)
(0 0 -4.05457e-05)
(0 0 -4.0294e-05)
(0 0 -3.9966e-05)
(0 0 -3.9555e-05)
(0 0 -3.9053e-05)
(0 0 -3.84502e-05)
(0 0 -3.77344e-05)
(0 0 -3.68906e-05)
(0 0 -3.59001e-05)
(0 0 -3.47402e-05)
(0 0 -3.33836e-05)
(0 0 -3.18008e-05)
(0 0 -2.9969e-05)
(0 0 -2.79032e-05)
(0 0 -2.57266e-05)
(0 0 -2.37982e-05)
(0 0 -2.28654e-05)
(0 0 -2.40423e-05)
(0 0 -2.79156e-05)
(0 -9.49637e-23 -3.00547e-05)
(-1.4863e-23 8.04787e-21 -6.02685e-06)
(-1.63483e-22 7.90523e-21 -1.3945e-05)
(3.9627e-23 -2.19441e-22 -2.55131e-05)
(3.28339e-23 -2.36261e-20 -4.07839e-05)
(-1.03861e-22 8.09512e-21 -5.88885e-05)
(4.12296e-22 7.94624e-21 -7.78375e-05)
(-8.82271e-22 2.31268e-20 -9.46307e-05)
(3.4233e-22 -2.35416e-20 -0.000105707)
(6.9266e-22 -7.55758e-21 -0.000107657)
(-1.0012e-21 -4.0358e-24 -9.80194e-05)
(-1.00853e-21 -7.59545e-21 -7.59072e-05)
(8.85566e-22 7.18725e-21 -4.22496e-05)
(5.80811e-22 -5.9546e-20 3.99624e-07)
(-1.04884e-21 1.28097e-19 4.8414e-05)
(3.34934e-22 -6.90941e-20 9.78199e-05)
(-1.4051e-21 -5.21293e-20 0.000144971)
(2.54366e-21 -6.63302e-20 0.000187049)
(-2.03683e-21 7.8786e-21 0.000222297)
(-2.23581e-22 -7.32109e-21 0.000250064)
(9.50701e-23 7.34169e-21 0.00027052)
(-3.4657e-24 -1.41755e-22 0.000284406)
(-9.00522e-23 -7.09126e-21 0.000292727)
(-2.19512e-21 7.1739e-21 0.000296567)
(4.62391e-21 1.4114e-23 0.000296914)
(1.3641e-21 6.98218e-21 0.000294575)
(-3.59964e-21 -5.91994e-24 0.000290143)
(5.19381e-21 8.22479e-21 0.000283998)
(-5.90726e-21 1.05789e-19 0.000276333)
(5.71478e-22 -1.13701e-19 0.000267192)
(-2.15915e-21 1.0429e-19 0.000256502)
(2.09904e-21 -1.05557e-19 0.0002441)
(5.32108e-23 1.47139e-21 0.000229725)
(-6.93466e-23 -1.80868e-21 0.000212982)
(2.78931e-21 -1.00759e-19 0.000193201)
(-9.28032e-21 9.79648e-20 0.000169147)
(-3.54986e-22 -1.70016e-21 0.000138347)
(6.82919e-21 1.49361e-23 9.56787e-05)
(7.44888e-21 1.62914e-23 3.04395e-05)
(-7.42505e-21 -1.62393e-23 -7.93118e-05)
(-2.47123e-22 -5.40483e-25 -0.00027686)
(-2.58467e-22 -5.65294e-25 -0.000643121)
(-8.94336e-21 -1.956e-23 -0.0013197)
(8.63195e-21 1.88789e-23 -0.00253614)
(-2.87085e-22 1.71504e-22 -0.00463364)
(3.15526e-24 8.84665e-21 -0.00807204)
(-2.76912e-20 5.67816e-20 -0.0134043)
(2.66562e-20 -7.51804e-20 -0.0212034)
(-6.533e-21 -1.07275e-20 -0.0319325)
(7.16409e-21 2.95471e-20 -0.0457594)
(-2.33152e-20 -6.51001e-21 -0.0622143)
(-2.82553e-22 8.06754e-21 -1.83344e-05)
(-1.03582e-22 1.58549e-20 -4.16491e-05)
(3.55526e-22 7.70336e-21 -7.57868e-05)
(-9.81577e-22 -7.92316e-21 -0.000120947)
(1.81974e-21 7.53108e-21 -0.000174634)
(-6.13509e-22 -5.4149e-20 -0.000231075)
(-1.45406e-22 8.61092e-20 -0.000281517)
(-7.04826e-23 -9.10359e-21 -0.000315539)
(2.26733e-21 -9.91761e-20 -0.00032316)
(-2.29104e-21 1.40339e-19 -0.000297167)
(-6.68056e-22 1.28089e-19 -0.000234931)
(4.67403e-22 -1.15495e-19 -0.000139122)
(-4.359e-22 8.19337e-22 -1.71504e-05)
(3.09548e-21 -7.35113e-21 0.00012045)
(-2.35594e-21 2.47156e-20 0.000262126)
(-5.9125e-21 2.43908e-19 0.000397291)
(1.13335e-21 -2.29855e-19 0.000517708)
(-5.46252e-21 2.4651e-19 0.000618305)
(-2.54888e-22 1.97938e-20 0.000697096)
(-4.24746e-21 -7.51569e-21 0.000754637)
(4.4741e-21 1.59969e-22 0.000792994)
(-4.46576e-21 9.50766e-21 0.000815061)
(1.88962e-21 2.15399e-19 0.000823937)
(4.92974e-21 -4.5752e-19 0.000822443)
(4.07357e-21 -2.1858e-19 0.000812871)
(-6.03497e-21 4.42985e-19 0.000796883)
(2.16652e-21 -4.43373e-19 0.000775519)
(-2.75167e-22 4.55314e-19 0.000749274)
(3.62789e-21 1.17996e-21 0.000718195)
(-4.08544e-21 -1.07021e-22 0.000681985)
(-1.3718e-21 -3.00026e-24 0.000640071)
(0 0 0.000591595)
(2.03013e-22 1.05335e-22 0.000535276)
(1.21744e-20 1.32841e-20 0.000469007)
(-1.43729e-20 3.78695e-19 0.000388939)
(-1.71426e-20 -2.48533e-20 0.000287448)
(1.73007e-20 -3.75242e-19 0.00014879)
(2.56708e-20 -3.25958e-19 -5.98405e-05)
(-6.62977e-21 3.49209e-19 -0.000405565)
(-3.44433e-20 2.05448e-21 -0.0010205)
(3.40959e-20 1.90226e-20 -0.00215094)
(-4.27581e-20 2.5443e-19 -0.00422667)
(2.13226e-20 -2.65241e-19 -0.00794222)
(-2.02197e-20 1.62768e-20 -0.014327)
(2.25699e-20 8.8953e-21 -0.0247652)
(-6.55275e-20 1.26723e-19 -0.0409183)
(6.55048e-20 -1.23945e-19 -0.064505)
(-1.0346e-19 9.38726e-20 -0.0968964)
(9.97911e-20 -1.05013e-19 -0.138523)
(-2.15127e-20 -7.23156e-22 -0.186409)
(2.13144e-23 4.7734e-20 -3.05365e-05)
(-7.74787e-23 1.50281e-20 -6.80641e-05)
(3.45185e-22 -6.24548e-20 -0.000123225)
(-6.97104e-22 1.24336e-19 -0.000196473)
(1.55248e-21 -2.66526e-19 -0.000283986)
(6.55367e-22 1.26949e-19 -0.000376738)
(-2.73262e-21 -9.75374e-22 -0.000460939)
(1.71155e-21 -1.74345e-20 -0.000520104)
(9.65681e-22 -2.60442e-19 -0.000538406)
(1.50427e-21 2.48545e-19 -0.000504357)
(-9.59645e-22 -1.81999e-21 -0.000413684)
(-4.68096e-21 -1.98429e-23 -0.000270461)
(7.45221e-21 -2.06054e-21 -8.62273e-05)
(-5.49207e-21 -2.55181e-19 0.000122553)
(6.70595e-21 2.32599e-19 0.000337811)
(-1.05895e-20 4.62014e-19 0.000542957)
(-5.54023e-21 -1.28904e-20 0.000725108)
(-2.98744e-21 4.76132e-19 0.00087622)
(3.94864e-22 -1.44716e-20 0.000993194)
(-1.13488e-20 4.63832e-19 0.00107672)
(1.11713e-20 -4.82076e-19 0.00112991)
(-7.65627e-21 4.61642e-19 0.00115714)
(4.83323e-23 -4.80546e-19 0.00116308)
(5.69699e-21 -9.22811e-21 0.00115195)
(-2.76772e-21 1.4115e-20 0.00112716)
(6.02627e-21 -8.75464e-21 0.0010911)
(-1.78388e-20 4.35836e-19 0.00104519)
(1.56589e-20 -4.65651e-19 0.000989958)
(1.69411e-20 -4.32859e-19 0.000925223)
(-1.34071e-20 4.3594e-19 0.000850221)
(-1.19782e-21 -5.71831e-21 0.000763722)
(1.24069e-20 -1.34252e-22 0.000664)
(-1.43534e-20 -2.66765e-20 0.000548592)
(4.96118e-20 -8.01241e-19 0.000413609)
(1.79158e-20 5.82695e-20 0.000252155)
(-6.81239e-20 7.56866e-19 5.08378e-05)
(4.40872e-21 -1.36798e-20 -0.00021775)
(-1.25222e-20 -6.0129e-21 -0.000610435)
(1.09391e-19 -6.44098e-19 -0.00124307)
(-2.01936e-19 1.27035e-18 -0.00234287)
(2.05589e-19 -1.27166e-18 -0.00433164)
(8.04696e-20 9.05528e-20 -0.00794187)
(-1.62745e-19 5.62598e-19 -0.0143515)
(-1.74803e-19 3.92237e-19 -0.0252989)
(1.64118e-19 -4.66876e-19 -0.0431138)
(-2.5558e-20 2.21346e-20 -0.0705907)
(6.32902e-20 -2.00421e-20 -0.110621)
(1.86505e-19 -1.16065e-19 -0.165481)
(-2.02285e-19 1.82258e-19 -0.235696)
(-2.91515e-20 -4.71677e-20 -0.311137)
(3.99707e-22 -3.14595e-20 -4.21941e-05)
(-3.87849e-22 1.59394e-20 -9.22189e-05)
(7.87364e-22 -1.93177e-22 -0.000166124)
(-7.23772e-22 -1.56715e-20 -0.000264735)
(-1.09453e-21 -1.62756e-21 -0.000383343)
(3.1367e-21 -2.45867e-19 -0.000510462)
(-4.0414e-21 4.66319e-19 -0.000628362)
(1.86811e-21 -2.51455e-19 -0.000715735)
(-1.99029e-21 1.51358e-20 -0.000752024)
(4.34081e-21 -2.75289e-19 -0.000722204)
(-5.56931e-21 2.51912e-19 -0.000620502)
(-2.20916e-21 4.79724e-19 -0.000451884)
(7.1461e-21 -9.72438e-19 -0.00023092)
(-9.27347e-21 9.72642e-19 2.14694e-05)
(1.37011e-20 -9.69073e-19 0.000282269)
(-6.95218e-21 9.62507e-19 0.000530312)
(-8.03305e-21 4.88641e-19 0.000749083)
(-7.63014e-22 -4.22252e-21 0.000928235)
(5.03044e-21 4.35921e-21 0.00106359)
(-5.32777e-21 4.53222e-19 0.00115578)
(-5.4849e-21 -4.7667e-19 0.00120844)
(1.6467e-20 1.41831e-20 0.00122678)
(-3.02495e-20 9.17523e-19 0.00121634)
(2.12565e-20 -9.21967e-19 0.00118211)
(2.42252e-21 -4.83798e-21 0.00112798)
(-1.08673e-20 -8.02012e-23 0.00105656)
(1.63152e-20 -1.39818e-20 0.000969151)
(-5.34661e-21 1.37147e-22 0.000865876)
(-5.90963e-21 -4.82538e-23 0.00074587)
(5.58898e-21 2.1745e-22 0.000607458)
(-3.95387e-21 7.08729e-22 0.000448265)
(5.8857e-20 -8.26133e-19 0.000265173)
(-5.23468e-20 8.51168e-19 5.39564e-05)
(-1.76926e-20 -4.95295e-22 -0.0001917)
(2.04271e-20 -1.00233e-20 -0.000482478)
(-9.49318e-20 7.66752e-19 -0.000838502)
(1.1392e-19 -7.71663e-19 -0.00130028)
(-2.56345e-20 2.99414e-21 -0.00195114)
(1.80001e-20 -5.73875e-23 -0.00296028)
(4.26269e-20 7.84793e-21 -0.00465844)
(-2.58839e-19 5.87005e-19 -0.00765734)
(3.74312e-19 -1.19683e-18 -0.0130148)
(-1.82209e-19 6.08901e-19 -0.0224246)
(2.79897e-19 -4.72215e-19 -0.0383784)
(-2.69234e-19 5.59211e-19 -0.0642157)
(-6.53109e-19 5.80642e-19 -0.103965)
(1.23898e-18 -1.2409e-18 -0.161854)
(-6.10866e-19 6.31396e-19 -0.241237)
(2.16783e-20 -2.592e-21 -0.342561)
(5.25755e-21 -4.03503e-20 -0.43991)
(-8.00322e-22 1.60382e-20 -5.25323e-05)
(-1.6786e-22 6.11498e-20 -0.000113236)
(1.79483e-21 -1.86002e-19 -0.000203354)
(-8.67763e-22 2.49904e-19 -0.000324109)
(-5.82042e-22 -1.10839e-19 -0.000470382)
(8.69155e-23 -1.4714e-20 -0.000629201)
(-4.89101e-22 1.56178e-20 -0.000780276)
(3.39822e-21 -2.10917e-22 -0.000899022)
(-3.30079e-21 -1.52502e-20 -0.000961556)
(-5.74861e-21 3.46274e-20 -0.000950234)
(-5.12041e-21 4.8801e-19 -0.000857976)
(1.78876e-20 -5.07617e-19 -0.000690017)
(-2.24208e-20 4.74256e-19 -0.00046264)
(1.80294e-20 -4.93662e-19 -0.000199465)
(-3.36204e-21 3.80659e-21 7.33977e-05)
(1.22558e-20 6.23321e-23 0.000331831)
(4.6739e-21 4.14456e-21 0.000556888)
(-2.03604e-21 4.62727e-19 0.000736514)
(1.8482e-20 -5.01466e-19 0.00086557)
(7.16733e-21 2.86803e-20 0.00094424)
(-4.22283e-20 9.57395e-19 0.000976019)
(2.3792e-20 -9.61583e-19 0.000966121)
(1.14363e-20 2.39629e-20 0.000920123)
(-2.00535e-20 -2.5925e-22 0.000842906)
(1.31199e-20 1.06964e-20 0.00073807)
(-3.2562e-20 9.26272e-19 0.000607673)
(2.53119e-20 -9.19018e-19 0.000452208)
(3.14893e-21 1.06795e-20 0.000270706)
(1.09618e-20 2.82511e-20 6.09104e-05)
(-1.27728e-20 -6.09701e-22 -0.000180534)
(1.12218e-21 -1.35571e-20 -0.000457982)
(-4.11931e-20 1.37899e-20 -0.000776872)
(3.9197e-20 1.31706e-20 -0.00114421)
(-3.75497e-21 -2.72625e-20 -0.00156984)
(7.41844e-20 -7.76693e-19 -0.00206939)
(-6.36945e-20 8.00308e-19 -0.00267095)
(2.58321e-19 -1.55032e-18 -0.00342947)
(-2.33019e-19 1.56604e-18 -0.00445667)
(2.95127e-19 -1.47823e-18 -0.00597833)
(7.93428e-20 1.38011e-19 -0.00843513)
(-3.4386e-19 1.41328e-18 -0.0126417)
(-1.3654e-19 -2.5481e-20 -0.0200059)
(1.8486e-20 3.62905e-22 -0.0327819)
(-2.1104e-20 5.63185e-22 -0.0542928)
(6.23194e-20 1.83844e-21 -0.0890324)
(3.0655e-20 1.51033e-20 -0.14255)
(-1.30392e-19 5.71151e-21 -0.22097)
(7.46865e-20 5.62096e-21 -0.329636)
(-1.9111e-22 -3.58788e-22 -0.469471)
(4.15118e-20 7.31692e-22 -0.584293)
(-5.79446e-22 7.70885e-20 -6.0746e-05)
(1.7372e-21 -4.70845e-20 -0.000131067)
(-1.92998e-21 -1.67161e-20 -0.000235332)
(4.5312e-21 -2.30478e-19 -0.000375017)
(-1.84282e-21 2.32538e-19 -0.000545141)
(1.41442e-21 -2.30075e-19 -0.000732348)
(-1.03231e-20 5.07546e-19 -0.000915318)
(9.81834e-21 -7.11623e-19 -0.00106791)
(-6.08983e-21 5.04122e-19 -0.00116447)
(-3.76207e-21 4.90769e-19 -0.00118575)
(-2.07105e-21 3.25322e-21 -0.0011236)
(2.0858e-20 -9.64835e-19 -0.000982886)
(-1.66234e-20 1.00581e-18 -0.00078024)
(2.23962e-21 -4.74245e-19 -0.000540185)
(9.50504e-21 -4.7625e-19 -0.00029006)
(2.06484e-20 -4.69008e-19 -5.53213e-05)
(-3.13341e-21 7.28521e-21 0.000143772)
(3.39343e-20 -9.74101e-19 0.000293985)
(2.37812e-20 -9.35641e-19 0.000389188)
(7.02237e-21 2.21132e-20 0.000428635)
(-1.98634e-20 9.73487e-19 0.000414912)
(-2.23959e-20 -8.99883e-21 0.000352325)
(1.36686e-20 9.93931e-21 0.000245474)
(-4.50551e-20 9.46145e-19 9.81436e-05)
(3.46512e-20 -9.6336e-19 -8.7338e-05)
(6.84141e-20 -9.24819e-19 -0.000310401)
(-6.97513e-20 9.57547e-19 -0.00057232)
(1.67314e-20 -2.22089e-20 -0.000876163)
(6.03405e-20 -9.26744e-19 -0.00122665)
(-9.10688e-20 9.51984e-19 -0.00163003)
(4.85246e-21 1.3721e-20 -0.002094)
(-1.94732e-19 1.74964e-18 -0.00262785)
(1.72331e-19 -1.81852e-18 -0.00324305)
(5.42178e-20 6.81303e-20 -0.00395473)
(-2.53141e-19 1.66667e-18 -0.00478515)
(2.27911e-19 -1.74134e-18 -0.00577164)
(-3.53463e-20 -3.88607e-21 -0.00698409)
(4.71161e-19 -1.57991e-18 -0.00856153)
(-4.37757e-19 1.63546e-18 -0.0107834)
(-7.55522e-20 -8.09622e-20 -0.0141966)
(6.99945e-19 -1.39328e-18 -0.0198176)
(-1.21817e-18 2.89249e-18 -0.0294162)
(-8.07877e-20 -1.61841e-19 -0.0458491)
(-1.1015e-19 -1.24535e-19 -0.0733746)
(8.19979e-19 -1.28111e-18 -0.117863)
(4.57217e-20 7.27466e-20 -0.186885)
(-9.75251e-19 8.71366e-19 -0.289727)
(9.54745e-19 -9.60677e-19 -0.436824)
(1.08977e-20 3.36269e-20 -0.634773)
(1.0815e-20 -3.12385e-21 -0.773287)
(6.39424e-22 -1.61518e-20 -6.6348e-05)
(1.41483e-21 -1.36966e-19 -0.000147957)
(-1.60187e-21 1.23691e-19 -0.000265206)
(-1.49161e-21 -1.76486e-20 -0.00042055)
(5.04887e-21 -2.29163e-19 -0.000609905)
(-4.58344e-21 2.36347e-19 -0.000820684)
(-4.14864e-21 4.7667e-19 -0.00103207)
(-5.55481e-21 -1.98279e-20 -0.00121807)
(2.79623e-21 -4.75652e-21 -0.00135283)
(1.30958e-20 -5.0858e-19 -0.00141655)
(-9.62401e-21 4.76292e-19 -0.00140027)
(1.20322e-20 -1.00866e-18 -0.00130794)
(-5.22612e-22 5.05031e-19 -0.00115528)
(-4.2244e-21 -1.93519e-20 -0.000966018)
(-5.5877e-21 -2.34523e-20 -0.000766969)
(2.1778e-20 -9.92565e-19 -0.000583355)
(-1.5636e-21 -1.97925e-20 -0.000435564)
(1.99146e-20 -1.01184e-18 -0.000337324)
(-6.18782e-21 -7.1531e-21 -0.000295531)
(-1.81951e-22 1.33213e-22 -0.000311872)
(1.2759e-20 9.39586e-21 -0.000384837)
(-4.65039e-20 9.77308e-19 -0.000511211)
(4.00665e-20 -9.99796e-19 -0.000687462)
(1.42134e-20 9.28978e-21 -0.000910803)
(-9.8886e-21 -1.53663e-20 -0.0011798)
(-6.85751e-21 1.1009e-20 -0.00149464)
(-6.66887e-20 9.48206e-19 -0.0018572)
(1.44684e-19 -1.93896e-18 -0.00227093)
(-6.72543e-20 1.01508e-18 -0.00274058)
(-1.75854e-19 1.88021e-18 -0.00327189)
(-3.13942e-20 -4.55781e-20 -0.00387117)
(5.60021e-21 -2.41924e-20 -0.00454502)
(-7.05499e-20 -5.43717e-20 -0.0053002)
(2.41318e-19 -1.89155e-18 -0.00614419)
(3.90172e-19 -1.75295e-18 -0.00708751)
(-3.42283e-19 1.84524e-18 -0.00815023)
(-3.804e-20 -6.15333e-20 -0.00937858)
(4.61339e-19 -1.69023e-18 -0.0108825)
(-3.98212e-19 1.79687e-18 -0.0129135)
(-6.75052e-19 1.59915e-18 -0.0160094)
(5.62085e-19 -1.69539e-18 -0.0212376)
(8.79539e-20 -1.25947e-20 -0.0305536)
(9.14171e-19 -1.52263e-18 -0.0472522)
(1.50072e-19 1.23813e-19 -0.0764377)
(-1.07775e-18 1.50431e-18 -0.125418)
(-1.93187e-20 -4.54373e-20 -0.204032)
(3.89597e-20 6.12145e-22 -0.325728)
(-3.92807e-20 1.77721e-20 -0.512724)
(-5.837e-19 6.10677e-19 -0.806762)
(5.73802e-19 -6.21176e-19 -1.12326)
(-9.69553e-21 -2.64197e-21 0.00283412)
(-7.53149e-21 1.7893e-21 -0.00763756)
(6.97632e-21 5.88904e-21 -0.0157032)
(-8.94756e-21 -9.87446e-21 -0.0215271)
(9.3701e-21 2.58592e-21 -0.025286)
(-3.02631e-22 1.8172e-21 -0.0272181)
(-1.02005e-22 -6.29909e-23 -0.0276172)
(-2.64043e-21 5.77489e-24 -0.0268011)
(2.55868e-21 -5.59608e-24 -0.0250887)
(-6.15648e-23 1.34648e-25 -0.0227791)
(-4.94159e-23 1.08078e-25 -0.0201356)
(1.03998e-21 -2.27454e-24 -0.0173765)
(-1.04333e-21 2.28186e-24 -0.014671)
(-5.98704e-22 1.30943e-24 -0.0121403)
(1.55221e-22 -7.99143e-23 -0.00986216)
(3.22271e-21 7.04119e-20 -0.00787726)
(-2.47178e-21 -6.58104e-20 -0.00619684)
(-5.16277e-24 -7.52367e-23 -0.00481036)
(-1.2078e-24 3.33982e-23 -0.00369278)
(-1.82024e-21 -8.73885e-20 -0.00281074)
(1.82533e-21 8.75293e-20 -0.00212753)
(-1.2462e-21 -8.78423e-20 -0.00160683)
(2.70993e-22 5.92812e-21 -0.00121509)
(-1.45801e-22 6.8813e-26 -0.000922953)
(2.50383e-22 6.26145e-21 -0.000706384)
(-3.74743e-23 2.57546e-24 -0.000546043)
(-1.7152e-22 3.75132e-25 -0.000426546)
(8.85537e-23 -3.28643e-24 -0.000336451)
(8.3376e-23 6.72541e-21 -0.000267391)
(-6.61617e-24 6.50059e-24 -0.000213366)
(-6.74744e-23 -6.9101e-21 -0.000170147)
(5.40699e-23 6.98814e-21 -0.000134798)
(5.19822e-23 -7.09433e-21 -0.000105287)
(6.73311e-23 6.44454e-20 -8.02124e-05)
(-1.86192e-22 -6.45414e-20 -5.86003e-05)
(-1.82745e-22 -5.11263e-20 -3.97621e-05)
(3.85963e-22 1.09871e-19 -2.32e-05)
(-2.06534e-22 -5.88317e-20 -8.54259e-06)
(-1.01661e-22 -7.47403e-21 4.49746e-06)
(9.18558e-23 7.48648e-21 1.61504e-05)
(5.57262e-23 -1.48683e-25 2.66069e-05)
(-4.81283e-23 7.60937e-21 3.60288e-05)
(-9.63086e-23 -3.82465e-20 4.4557e-05)
(1.18996e-22 3.83238e-20 5.23214e-05)
(-5.89886e-23 -7.7146e-21 5.94533e-05)
(4.18451e-23 2.33182e-20 6.61096e-05)
(-3.27812e-23 -7.76075e-21 7.25114e-05)
(-3.7688e-23 -1.57095e-20 7.90014e-05)
(2.31616e-23 7.86894e-21 8.61099e-05)
(-4.88677e-24 -7.91798e-21 9.45908e-05)
(-1.43371e-20 2.22123e-20 0.00612517)
(6.51635e-21 -2.22409e-20 -0.024883)
(-1.47818e-21 -6.28928e-21 -0.0485267)
(-1.61303e-20 -8.77102e-21 -0.0653199)
(1.5382e-20 1.00054e-20 -0.0758886)
(-7.88644e-21 5.37786e-21 -0.0810501)
(5.88571e-21 8.27001e-22 -0.0817412)
(-3.59769e-20 -9.92304e-20 -0.0789399)
(4.00947e-20 9.0827e-20 -0.0736029)
(-1.06232e-20 -1.50536e-21 -0.0666104)
(5.27546e-21 -6.41695e-21 -0.0587256)
(3.90327e-20 1.97737e-19 -0.0505724)
(-4.25287e-20 -1.95216e-19 -0.0426286)
(-3.77307e-20 -2.46235e-19 -0.0352325)
(4.04915e-21 -2.2778e-20 -0.028597)
(3.48805e-20 2.67653e-19 -0.0228305)
(-1.15631e-21 -4.12279e-21 -0.0179579)
(-1.137e-21 -9.96671e-21 -0.0139434)
(9.70065e-25 -8.64367e-24 -0.0107109)
(3.11376e-23 -6.8101e-26 -0.00816166)
(1.49516e-22 1.45094e-24 -0.00618802)
(-3.22508e-22 -5.95468e-21 -0.00468405)
(1.42955e-20 3.70674e-19 -0.0035523)
(-1.57681e-20 -4.01603e-19 -0.00270844)
(1.217e-20 4.00404e-19 -0.00208136)
(-6.82598e-21 -1.99816e-19 -0.00161626)
(-1.04991e-20 -4.18843e-19 -0.00126893)
(4.81021e-21 2.11161e-19 -0.00100624)
(1.03438e-22 -6.64952e-21 -0.00080415)
(-5.28527e-22 -1.37055e-20 -0.000645413)
(2.96196e-22 6.92985e-21 -0.000517909)
(-3.27455e-22 -2.11438e-20 -0.000413216)
(2.90286e-21 2.20689e-19 -0.000325517)
(-6.06681e-21 -4.64816e-19 -0.000250792)
(2.78021e-21 2.22663e-19 -0.000186239)
(-9.10867e-23 -2.17275e-20 -0.000129872)
(-1.27974e-22 7.32482e-21 -8.02445e-05)
(2.73537e-23 7.27799e-23 -3.62741e-05)
(-1.0177e-21 -1.26918e-19 2.88184e-06)
(8.72983e-22 1.12007e-19 3.79017e-05)
(7.81111e-22 1.0599e-19 6.93482e-05)
(-1.08134e-21 -1.43877e-19 9.77004e-05)
(6.09663e-23 7.53393e-21 0.000123377)
(1.67105e-22 3.85222e-20 0.00014676)
(-3.41291e-22 -6.93162e-20 0.000168238)
(-1.57939e-22 -7.76354e-21 0.000188273)
(-1.89973e-22 -5.46059e-20 0.000207512)
(-8.42336e-23 -7.95765e-21 0.000226964)
(8.98333e-23 1.56557e-20 0.000248205)
(9.59298e-23 2.36974e-20 0.000273518)
(-1.50371e-20 -1.26287e-22 0.00194405)
(2.37063e-20 8.49503e-21 -0.0482509)
(-3.20668e-21 3.7606e-21 -0.0857321)
(-3.79383e-20 -1.18589e-20 -0.111395)
(1.49247e-20 7.27686e-21 -0.12667)
(-9.46953e-20 -1.37615e-19 -0.13321)
(1.03456e-19 1.19488e-19 -0.132742)
(1.43492e-19 2.38336e-19 -0.126961)
(-8.79096e-21 6.99336e-20 -0.117449)
(-2.77625e-19 -6.09338e-19 -0.105611)
(2.91845e-19 7.06748e-19 -0.092627)
(-1.43955e-19 -3.6513e-19 -0.0794368)
(-7.21148e-22 -1.05629e-20 -0.0667431)
(-9.90143e-22 -1.22641e-21 -0.0550298)
(1.20349e-19 5.69667e-19 -0.0445913)
(-1.24838e-20 3.05983e-20 -0.0355652)
(-1.05282e-19 -5.90431e-19 -0.0279672)
(3.82038e-21 1.95181e-20 -0.0217254)
(-7.49372e-22 2.40708e-23 -0.0167104)
(2.30703e-23 -1.89694e-22 -0.0127613)
(3.18757e-20 3.73966e-19 -0.00970683)
(-3.08846e-20 -3.61953e-19 -0.00738025)
(-2.49129e-20 -3.82973e-19 -0.00562931)
(2.63381e-20 4.07539e-19 -0.00432232)
(6.21539e-22 1.2994e-20 -0.00335059)
(-6.42909e-22 -1.30412e-20 -0.00262602)
(3.42615e-22 1.3459e-20 -0.00208265)
(-1.40577e-20 -4.19469e-19 -0.00166927)
(1.50567e-20 4.33281e-19 -0.00134898)
(-1.18381e-20 -4.16282e-19 -0.00109539)
(1.27043e-20 4.44218e-19 -0.000889969)
(2.8275e-22 1.40833e-20 -0.000719912)
(9.25319e-21 4.5821e-19 -0.00057638)
(-1.80169e-20 -9.057e-19 -0.000453275)
(9.47153e-21 4.76216e-19 -0.000346342)
(3.40588e-21 2.49521e-19 -0.000252558)
(-2.97849e-21 -2.19972e-19 -0.000169711)
(-5.16526e-22 -1.16943e-22 -9.61248e-05)
(2.53896e-22 -1.06481e-23 -3.04795e-05)
(8.10364e-23 -1.32003e-22 2.83024e-05)
(2.38542e-21 2.42173e-19 8.11282e-05)
(-2.44582e-21 -2.27068e-19 0.000128778)
(4.87564e-23 1.51391e-20 0.000171938)
(2.06602e-22 -6.28612e-23 0.000211239)
(8.77309e-22 1.23573e-19 0.000247313)
(-1.84946e-21 -2.32139e-19 0.000280906)
(9.65787e-22 1.24072e-19 0.000313059)
(-4.79522e-22 -6.2484e-20 0.00034539)
(3.42188e-22 4.6852e-20 0.000380473)
(9.11351e-23 1.57164e-20 0.000422203)
(1.35812e-21 2.62652e-20 -0.0145669)
(8.58782e-21 -5.03009e-20 -0.0822729)
(1.07797e-19 1.53336e-19 -0.1305)
(-3.01212e-19 -2.89233e-19 -0.161409)
(2.08929e-19 1.31862e-19 -0.177927)
(1.4408e-19 2.09353e-19 -0.182929)
(-1.64108e-19 -1.84593e-19 -0.179107)
(1.82249e-19 2.8665e-19 -0.168904)
(-3.89827e-19 -6.20893e-19 -0.154466)
(2.21731e-19 3.21686e-19 -0.137601)
(-7.43041e-21 1.24188e-20 -0.119771)
(-5.07802e-21 7.73543e-22 -0.102093)
(7.82859e-21 9.40669e-21 -0.085371)
(-1.82512e-19 -5.72285e-19 -0.0701356)
(1.73217e-19 5.51169e-19 -0.0566876)
(2.62016e-21 2.12248e-20 -0.0451439)
(-8.46794e-22 -1.07475e-20 -0.0354814)
(1.23248e-19 6.97283e-19 -0.0275782)
(-1.23246e-19 -6.95773e-19 -0.0212494)
(-1.64048e-21 -1.2383e-20 -0.0162782)
(-1.80728e-22 -1.1824e-23 -0.0124396)
(5.06142e-22 1.50163e-22 -0.00951801)
(1.71179e-22 -6.69358e-24 -0.00731957)
(4.5059e-22 1.28313e-20 -0.00567664)
(7.96256e-22 8.77598e-23 -0.00445213)
(6.45866e-22 1.36722e-20 -0.00353538)
(-4.71614e-20 -8.80399e-19 -0.00284271)
(4.7073e-20 8.6652e-19 -0.00231125)
(-8.64155e-22 7.01357e-22 -0.00189518)
(-1.64656e-20 -4.49436e-19 -0.00156195)
(1.7803e-20 4.63325e-19 -0.00128883)
(-3.08777e-22 2.51727e-22 -0.00106015)
(-1.18033e-22 2.37438e-22 -0.000865151)
(-1.20731e-20 -4.80327e-19 -0.000696421)
(2.37439e-20 9.49056e-19 -0.000548793)
(-2.1942e-20 -9.40636e-19 -0.000418574)
(2.01199e-20 9.46686e-19 -0.000303041)
(-1.84767e-20 -9.52045e-19 -0.000200101)
(8.74635e-21 4.76956e-19 -0.000108071)
(4.15465e-21 2.41572e-19 -2.55468e-05)
(-3.60319e-21 -2.10931e-19 4.86767e-05)
(-1.212e-22 -1.51742e-20 0.000115654)
(-3.14953e-21 -2.44706e-19 0.000176322)
(6.62425e-21 5.20555e-19 0.000231541)
(-3.14748e-21 -2.45233e-19 0.00028217)
(1.00716e-22 -1.34545e-22 0.000329204)
(2.07216e-22 1.54777e-20 0.000374015)
(-1.08791e-22 1.29104e-23 0.000418744)
(-1.18639e-22 -1.55947e-20 0.000466885)
(2.73082e-22 3.12467e-20 0.000524061)
(2.67926e-20 1.44413e-23 -0.0488859)
(-6.5492e-22 -4.4299e-22 -0.132476)
(-5.7153e-20 -1.13494e-21 -0.186276)
(7.72072e-20 -2.56321e-21 -0.216932)
(-2.71992e-20 -5.45701e-21 -0.229901)
(-3.22564e-20 -1.32547e-21 -0.229652)
(1.48083e-20 3.91751e-21 -0.219885)
(-7.82235e-21 -5.45724e-21 -0.203687)
(4.64873e-20 -1.73377e-20 -0.183594)
(4.87912e-19 9.03656e-19 -0.161629)
(-2.12429e-20 9.43106e-20 -0.139342)
(-4.99551e-19 -1.01325e-18 -0.11786)
(4.59393e-19 1.14814e-18 -0.0979526)
(-4.67456e-19 -1.14667e-18 -0.080093)
(2.00828e-19 6.46024e-19 -0.0645143)