/*--------------------------------*- C++ -*----------------------------------*\
| =========                 |                                                 |
| \\      /  F ield         | OpenFOAM: The Open Source CFD Toolbox           |
|  \\    /   O peration     | Version:  2412                                  |
|   \\  /    A nd           | Website:  www.openfoam.com                      |
|    \\/     M anipulation  |                                                 |
\*---------------------------------------------------------------------------*/
FoamFile
{
    version     2.0;
    format      ascii;
    arch        "LSB;label=32;scalar=64";
    class       volScalarField;
    location    "3.5";
    object      p;
}
// * * * * * * * * * * * * * * * * * * * * * * * * * * * * * * * * * * * * * //

dimensions      [0 2 -2 0 0 0 0];

internalField   nonuniform List<scalar> 
5285
(
-4.92428e-05
-4.68384e-05
-4.45037e-05
-4.22393e-05
-4.00453e-05
-3.79216e-05
-3.5868e-05
-3.38843e-05
-3.197e-05
-3.01248e-05
-2.83481e-05
-2.66391e-05
-2.49973e-05
-2.34216e-05
-2.19112e-05
-2.04652e-05
-1.90823e-05
-1.77616e-05
-1.65017e-05
-1.53013e-05
-1.41592e-05
-1.30739e-05
-1.2044e-05
-1.10679e-05
-1.01442e-05
-9.27121e-06
-8.44727e-06
-7.67084e-06
-6.94012e-06
-6.25351e-06
-5.60918e-06
-5.00557e-06
-4.44068e-06
-3.91309e-06
-3.42073e-06
-2.96219e-06
-2.53534e-06
-2.13903e-06
-1.77063e-06
-1.42967e-06
-1.11304e-06
-8.20198e-07
-5.49035e-07
-2.97293e-07
-6.46584e-08
1.52124e-07
3.53644e-07
5.41682e-07
7.18922e-07
8.85427e-07
1.0449e-06
1.19756e-06
1.34658e-06
1.49277e-06
1.64139e-06
1.78406e-06
1.96009e-06
2.05202e-06
2.43324e-06
2.03289e-06
3.75963e-06
3.31374e-07
8.53375e-06
-6.73714e-06
2.01745e-05
-1.80252e-05
2.63267e-05
-5.49175e-06
-8.73655e-06
4.70553e-05
-4.8729e-05
-4.92224e-05
-4.68189e-05
-4.44851e-05
-4.22217e-05
-4.00285e-05
-3.79057e-05
-3.58529e-05
-3.387e-05
-3.19565e-05
-3.01121e-05
-2.8336e-05
-2.66278e-05
-2.49866e-05
-2.34116e-05
-2.19018e-05
-2.04563e-05
-1.90741e-05
-1.77538e-05
-1.64944e-05
-1.52946e-05
-1.41529e-05
-1.3068e-05
-1.20385e-05
-1.10629e-05
-1.01395e-05
-9.2669e-06
-8.44329e-06
-7.66717e-06
-6.93674e-06
-6.25041e-06
-5.60633e-06
-5.00295e-06
-4.4383e-06
-3.91091e-06
-3.41875e-06
-2.9604e-06
-2.53371e-06
-2.13756e-06
-1.7693e-06
-1.42847e-06
-1.11198e-06
-8.19236e-07
-5.48196e-07
-2.96534e-07
-6.40113e-08
1.52715e-07
3.54119e-07
5.42124e-07
7.19262e-07
8.85717e-07
1.04515e-06
1.1977e-06
1.34673e-06
1.49282e-06
1.64142e-06
1.78404e-06
1.95998e-06
2.05198e-06
2.43286e-06
2.03312e-06
3.75852e-06
3.32601e-07
8.53124e-06
-6.73512e-06
2.01731e-05
-1.8028e-05
2.6333e-05
-5.50001e-06
-8.73426e-06
4.70627e-05
-4.87485e-05
-4.91816e-05
-4.678e-05
-4.4448e-05
-4.21864e-05
-3.9995e-05
-3.78738e-05
-3.58227e-05
-3.38414e-05
-3.19295e-05
-3.00865e-05
-2.83119e-05
-2.66051e-05
-2.49652e-05
-2.33915e-05
-2.1883e-05
-2.04387e-05
-1.90575e-05
-1.77383e-05
-1.648e-05
-1.52811e-05
-1.41403e-05
-1.30564e-05
-1.20277e-05
-1.10528e-05
-1.01302e-05
-9.25827e-06
-8.43532e-06
-7.65982e-06
-6.92998e-06
-6.24419e-06
-5.60063e-06
-4.99772e-06
-4.43354e-06
-3.90655e-06
-3.4148e-06
-2.9568e-06
-2.53045e-06
-2.13462e-06
-1.76665e-06
-1.42608e-06
-1.10986e-06
-8.17322e-07
-5.46509e-07
-2.95032e-07
-6.27041e-08
1.53869e-07
3.55095e-07
5.42972e-07
7.19961e-07
8.86286e-07
1.04561e-06
1.19802e-06
1.34698e-06
1.49292e-06
1.64145e-06
1.78399e-06
1.95975e-06
2.05189e-06
2.43213e-06
2.03353e-06
3.7563e-06
3.35029e-07
8.52621e-06
-6.73108e-06
2.01704e-05
-1.80334e-05
2.63457e-05
-5.51652e-06
-8.72963e-06
4.70774e-05
-4.8787e-05
-4.91203e-05
-4.67215e-05
-4.43924e-05
-4.21334e-05
-3.99447e-05
-3.78261e-05
-3.57775e-05
-3.37985e-05
-3.18889e-05
-3.00482e-05
-2.82758e-05
-2.6571e-05
-2.49332e-05
-2.33614e-05
-2.18547e-05
-2.04121e-05
-1.90327e-05
-1.77151e-05
-1.64583e-05
-1.52608e-05
-1.41215e-05
-1.30388e-05
-1.20114e-05
-1.10377e-05
-1.01162e-05
-9.24532e-06
-8.42337e-06
-7.64879e-06
-6.91984e-06
-6.23486e-06
-5.59209e-06
-4.98988e-06
-4.42639e-06
-3.90002e-06
-3.40886e-06
-2.95141e-06
-2.52556e-06
-2.13021e-06
-1.76268e-06
-1.4225e-06
-1.10667e-06
-8.14458e-07
-5.43982e-07
-2.92788e-07
-6.07439e-08
1.55589e-07
3.56561e-07
5.44235e-07
7.21009e-07
8.87138e-07
1.0463e-06
1.1985e-06
1.34735e-06
1.49309e-06
1.64149e-06
1.78391e-06
1.9594e-06
2.05174e-06
2.43104e-06
2.03414e-06
3.753e-06
3.38629e-07
8.51874e-06
-6.72518e-06
2.01666e-05
-1.80419e-05
2.63652e-05
-5.54162e-06
-8.72268e-06
4.70998e-05
-4.88445e-05
-4.90387e-05
-4.66437e-05
-4.43182e-05
-4.20628e-05
-3.98776e-05
-3.77624e-05
-3.57171e-05
-3.37414e-05
-3.18349e-05
-2.99972e-05
-2.82277e-05
-2.65257e-05
-2.48905e-05
-2.33212e-05
-2.1817e-05
-2.03768e-05
-1.89996e-05
-1.76842e-05
-1.64294e-05
-1.52339e-05
-1.40964e-05
-1.30155e-05
-1.19897e-05
-1.10176e-05
-1.00975e-05
-9.22807e-06
-8.40744e-06
-7.6341e-06
-6.90632e-06
-6.22243e-06
-5.5807e-06
-4.97944e-06
-4.41687e-06
-3.89131e-06
-3.40096e-06
-2.94422e-06
-2.51906e-06
-2.12433e-06
-1.75739e-06
-1.41773e-06
-1.10242e-06
-8.10645e-07
-5.40614e-07
-2.89801e-07
-5.8132e-08
1.57874e-07
3.58516e-07
5.45913e-07
7.22405e-07
8.88273e-07
1.04722e-06
1.19915e-06
1.34783e-06
1.49332e-06
1.64154e-06
1.7838e-06
1.95894e-06
2.05152e-06
2.4296e-06
2.03491e-06
3.74865e-06
3.43271e-07
8.5091e-06
-6.71795e-06
2.01626e-05
-1.80549e-05
2.63929e-05
-5.57613e-06
-8.71387e-06
4.71319e-05
-4.89224e-05
-4.89366e-05
-4.65464e-05
-4.42255e-05
-4.19746e-05
-3.97938e-05
-3.76829e-05
-3.56417e-05
-3.367e-05
-3.17674e-05
-2.99334e-05
-2.81675e-05
-2.6469e-05
-2.48371e-05
-2.32711e-05
-2.17699e-05
-2.03327e-05
-1.89582e-05
-1.76455e-05
-1.63932e-05
-1.52002e-05
-1.4065e-05
-1.29863e-05
-1.19626e-05
-1.09924e-05
-1.00742e-05
-9.20652e-06
-8.38754e-06
-7.61575e-06
-6.88944e-06
-6.2069e-06
-5.56647e-06
-4.96639e-06
-4.40497e-06
-3.88044e-06
-3.39108e-06
-2.93525e-06
-2.51093e-06
-2.11698e-06
-1.75078e-06
-1.41177e-06
-1.09711e-06
-8.05886e-07
-5.36407e-07
-2.86074e-07
-5.487e-08
1.60724e-07
3.6096e-07
5.48005e-07
7.24148e-07
8.8969e-07
1.04835e-06
1.19997e-06
1.34842e-06
1.49361e-06
1.6416e-06
1.78366e-06
1.95837e-06
2.05124e-06
2.4278e-06
2.03588e-06
3.7432e-06
3.49114e-07
8.49698e-06
-6.70884e-06
2.01576e-05
-1.80711e-05
2.64278e-05
-5.61945e-06
-8.70266e-06
4.71721e-05
-4.90161e-05
-4.88143e-05
-4.64297e-05
-4.41144e-05
-4.18689e-05
-3.96933e-05
-3.75876e-05
-3.55513e-05
-3.35844e-05
-3.16865e-05
-2.9857e-05
-2.80954e-05
-2.6401e-05
-2.47732e-05
-2.32109e-05
-2.17135e-05
-2.02797e-05
-1.89087e-05
-1.75991e-05
-1.63499e-05
-1.51598e-05
-1.40274e-05
-1.29513e-05
-1.193e-05
-1.09623e-05
-1.00463e-05
-9.18068e-06
-8.36368e-06
-7.59375e-06
-6.86919e-06
-6.18829e-06
-5.54941e-06
-4.95076e-06
-4.3907e-06
-3.86741e-06
-3.37924e-06
-2.92448e-06
-2.50118e-06
-2.10817e-06
-1.74285e-06
-1.40463e-06
-1.09075e-06
-8.00183e-07
-5.31363e-07
-2.81607e-07
-5.09585e-08
1.64136e-07
3.6389e-07
5.5051e-07
7.26237e-07
8.91389e-07
1.04972e-06
1.20095e-06
1.34913e-06
1.49396e-06
1.64166e-06
1.7835e-06
1.95766e-06
2.05095e-06
2.42552e-06
2.03735e-06
3.73586e-06
3.57927e-07
8.47871e-06
-6.69115e-06
2.01409e-05
-1.80767e-05
2.64561e-05
-5.66483e-06
-8.68205e-06
4.71988e-05
-4.90941e-05
-4.86682e-05
-4.62903e-05
-4.39817e-05
-4.17427e-05
-3.95734e-05
-3.74737e-05
-3.54434e-05
-3.34823e-05
-3.15898e-05
-2.97657e-05
-2.80093e-05
-2.63199e-05
-2.46968e-05
-2.31391e-05
-2.16461e-05
-2.02165e-05
-1.88495e-05
-1.75438e-05
-1.62982e-05
-1.51116e-05
-1.39824e-05
-1.29095e-05
-1.18912e-05
-1.09263e-05
-1.00129e-05
-9.14982e-06
-8.3352e-06
-7.56748e-06
-6.84503e-06
-6.16606e-06
-5.52905e-06
-4.93209e-06
-4.37367e-06
-3.85185e-06
-3.3651e-06
-2.91163e-06
-2.48955e-06
-2.09764e-06
-1.73339e-06
-1.3961e-06
-1.08315e-06
-7.93376e-07
-5.25341e-07
-2.76278e-07
-4.62885e-08
1.68206e-07
3.6739e-07
5.53496e-07
7.28731e-07
8.93418e-07
1.05134e-06
1.20213e-06
1.34996e-06
1.49438e-06
1.64172e-06
1.7833e-06
1.95681e-06
2.05065e-06
2.42262e-06
2.0396e-06
3.72582e-06
3.71452e-07
8.45052e-06
-6.65805e-06
2.01014e-05
-1.80573e-05
2.64635e-05
-5.70569e-06
-8.64418e-06
4.7189e-05
-4.91256e-05
-4.84965e-05
-4.61266e-05
-4.38257e-05
-4.15943e-05
-3.94324e-05
-3.73399e-05
-3.53166e-05
-3.33622e-05
-3.14763e-05
-2.96584e-05
-2.79081e-05
-2.62245e-05
-2.4607e-05
-2.30548e-05
-2.15669e-05
-2.01422e-05
-1.87799e-05
-1.74787e-05
-1.62375e-05
-1.50549e-05
-1.39296e-05
-1.28604e-05
-1.18456e-05
-1.08839e-05
-9.97375e-06
-9.11357e-06
-8.30173e-06
-7.53661e-06
-6.81663e-06
-6.13995e-06
-5.50512e-06
-4.91015e-06
-4.35365e-06
-3.83357e-06
-3.34848e-06
-2.89653e-06
-2.47588e-06
-2.08528e-06
-1.72227e-06
-1.38609e-06
-1.07421e-06
-7.8538e-07
-5.18265e-07
-2.70018e-07
-4.08019e-08
1.72986e-07
3.71503e-07
5.57003e-07
7.31661e-07
8.95801e-07
1.05324e-06
1.20351e-06
1.35094e-06
1.49488e-06
1.6418e-06
1.78305e-06
1.95587e-06
2.0501e-06
2.41973e-06
2.04096e-06
3.71692e-06
3.81279e-07
8.42866e-06
-6.63753e-06
2.00806e-05
-1.80629e-05
2.64946e-05
-5.75844e-06
-8.61836e-06
4.72153e-05
-4.92082e-05
-4.83025e-05
-4.59417e-05
-4.36496e-05
-4.14268e-05
-3.92732e-05
-3.71889e-05
-3.51734e-05
-3.32266e-05
-3.13481e-05
-2.95374e-05
-2.77938e-05
-2.61169e-05
-2.45057e-05
-2.29595e-05
-2.14774e-05
-2.00584e-05
-1.87014e-05
-1.74053e-05
-1.61689e-05
-1.49909e-05
-1.38701e-05
-1.28049e-05
-1.17941e-05
-1.08362e-05
-9.9295e-06
-9.07264e-06
-8.26394e-06
-7.50176e-06
-6.78457e-06
-6.11047e-06
-5.4781e-06
-4.8854e-06
-4.33105e-06
-3.81294e-06
-3.32972e-06
-2.87949e-06
-2.46045e-06
-2.07133e-06
-1.70972e-06
-1.37478e-06
-1.06413e-06
-7.76357e-07
-5.10277e-07
-2.62953e-07
-3.46085e-08
1.78379e-07
3.76146e-07
5.60958e-07
7.34969e-07
8.9849e-07
1.05539e-06
1.20507e-06
1.35204e-06
1.49544e-06
1.64189e-06
1.78275e-06
1.95486e-06
2.04933e-06
2.41681e-06
2.04166e-06
3.70871e-06
3.88776e-07
8.41015e-06
-6.62346e-06
2.00679e-05
-1.80785e-05
2.65333e-05
-5.81413e-06
-8.59755e-06
4.72527e-05
-4.93064e-05
-4.80865e-05
-4.57357e-05
-4.34534e-05
-4.12402e-05
-3.9096e-05
-3.70206e-05
-3.50139e-05
-3.30756e-05
-3.12053e-05
-2.94025e-05
-2.76666e-05
-2.5997e-05
-2.43929e-05
-2.28535e-05
-2.13779e-05
-1.9965e-05
-1.8614e-05
-1.73235e-05
-1.60925e-05
-1.49197e-05
-1.38037e-05
-1.27432e-05
-1.17368e-05
-1.0783e-05
-9.88022e-06
-9.02706e-06
-8.22186e-06
-7.46295e-06
-6.74886e-06
-6.07765e-06
-5.44801e-06
-4.85783e-06
-4.30588e-06
-3.78997e-06
-3.30883e-06
-2.8605e-06
-2.44327e-06
-2.05579e-06
-1.69574e-06
-1.36219e-06
-1.05289e-06
-7.66309e-07
-5.0138e-07
-2.55087e-07
-2.77105e-08
1.84383e-07
3.81318e-07
5.65361e-07
7.38652e-07
9.01485e-07
1.05778e-06
1.20682e-06
1.35325e-06
1.49607e-06
1.64199e-06
1.78241e-06
1.95376e-06
2.0484e-06
2.41375e-06
2.04199e-06
3.70038e-06
3.9574e-07
8.39129e-06
-6.60904e-06
2.00524e-05
-1.809e-05
2.65656e-05
-5.86569e-06
-8.57465e-06
4.72791e-05
-4.93879e-05
-4.78485e-05
-4.55087e-05
-4.32373e-05
-4.10346e-05
-3.89006e-05
-3.68352e-05
-3.48382e-05
-3.29093e-05
-3.1048e-05
-2.92539e-05
-2.75264e-05
-2.58649e-05
-2.42686e-05
-2.27366e-05
-2.12682e-05
-1.98622e-05
-1.85177e-05
-1.72334e-05
-1.60084e-05
-1.48412e-05
-1.37306e-05
-1.26752e-05
-1.16736e-05
-1.07244e-05
-9.82594e-06
-8.97685e-06
-8.1755e-06
-7.4202e-06
-6.70952e-06
-6.04148e-06
-5.41486e-06
-4.82745e-06
-4.27815e-06
-3.76466e-06
-3.28581e-06
-2.83959e-06
-2.42433e-06
-2.03867e-06
-1.68033e-06
-1.34833e-06
-1.04051e-06
-7.55242e-07
-4.91577e-07
-2.46422e-07
-2.01111e-08
1.90995e-07
3.87017e-07
5.70209e-07
7.4271e-07
9.04784e-07
1.06041e-06
1.20874e-06
1.35459e-06
1.49677e-06
1.64209e-06
1.78201e-06
1.95257e-06
2.0473e-06
2.41054e-06
2.042e-06
3.69187e-06
4.02316e-07
8.37178e-06
-6.59378e-06
2.00335e-05
-1.80962e-05
2.65905e-05
-5.91256e-06
-8.54922e-06
4.72929e-05
-4.94483e-05
-4.75884e-05
-4.52608e-05
-4.30012e-05
-4.081e-05
-3.86873e-05
-3.66328e-05
-3.46464e-05
-3.27277e-05
-3.08763e-05
-2.90917e-05
-2.73734e-05
-2.57207e-05
-2.41329e-05
-2.26091e-05
-2.11484e-05
-1.97499e-05
-1.84125e-05
-1.71351e-05
-1.59165e-05
-1.47555e-05
-1.36507e-05
-1.26009e-05
-1.16046e-05
-1.06604e-05
-9.76667e-06
-8.92202e-06
-8.12488e-06
-7.37352e-06
-6.66657e-06
-6.002e-06
-5.37867e-06
-4.7943e-06
-4.24787e-06
-3.73702e-06
-3.26068e-06
-2.81676e-06
-2.40366e-06
-2.01997e-06
-1.66351e-06
-1.33319e-06
-1.02699e-06
-7.43161e-07
-4.80873e-07
-2.36963e-07
-1.18136e-08
1.98212e-07
3.93239e-07
5.75499e-07
7.4714e-07
9.08386e-07
1.06327e-06
1.21084e-06
1.35604e-06
1.49752e-06
1.6422e-06
1.78157e-06
1.95129e-06
2.04602e-06
2.40717e-06
2.04167e-06
3.68323e-06
4.08383e-07
8.3519e-06
-6.57824e-06
2.00121e-05
-1.80987e-05
2.66097e-05
-5.95576e-06
-8.52168e-06
4.72962e-05
-4.94894e-05
-4.73066e-05
-4.49921e-05
-4.27453e-05
-4.05667e-05
-3.84561e-05
-3.64134e-05
-3.44384e-05
-3.25308e-05
-3.06901e-05
-2.89159e-05
-2.72076e-05
-2.55644e-05
-2.39858e-05
-2.24708e-05
-2.10186e-05
-1.96282e-05
-1.82985e-05
-1.70285e-05
-1.58169e-05
-1.46626e-05
-1.35642e-05
-1.25204e-05
-1.15298e-05
-1.0591e-05
-9.70243e-06
-8.86261e-06
-8.07003e-06
-7.32293e-06
-6.62002e-06
-5.95922e-06
-5.33944e-06
-4.75837e-06
-4.21505e-06
-3.70708e-06
-3.23344e-06
-2.79201e-06
-2.38126e-06
-1.99972e-06
-1.64528e-06
-1.31679e-06
-1.01234e-06
-7.30071e-07
-4.69272e-07
-2.26715e-07
-2.82175e-09
2.06031e-07
3.99982e-07
5.81231e-07
7.5194e-07
9.12289e-07
1.06638e-06
1.21312e-06
1.3576e-06
1.49835e-06
1.64232e-06
1.78107e-06
1.94992e-06
2.04458e-06
2.40365e-06
2.04099e-06
3.67444e-06
4.13923e-07
8.33171e-06
-6.56256e-06
1.99885e-05
-1.8098e-05
2.66237e-05
-5.99578e-06
-8.49201e-06
4.72897e-05
-4.95119e-05
-4.7003e-05
-4.47027e-05
-4.24698e-05
-4.03046e-05
-3.82071e-05
-3.61772e-05
-3.42145e-05
-3.23188e-05
-3.04897e-05
-2.87266e-05
-2.7029e-05
-2.53962e-05
-2.38275e-05
-2.2322e-05
-2.08789e-05
-1.94972e-05
-1.81758e-05
-1.69137e-05
-1.57097e-05
-1.45626e-05
-1.34711e-05
-1.24338e-05
-1.14493e-05
-1.05163e-05
-9.63327e-06
-8.79864e-06
-8.01096e-06
-7.26847e-06
-6.5699e-06
-5.91315e-06
-5.2972e-06
-4.71968e-06
-4.17971e-06
-3.67484e-06
-3.20411e-06
-2.76537e-06
-2.35713e-06
-1.97791e-06
-1.62565e-06
-1.29913e-06
-9.96565e-07
-7.15979e-07
-4.5678e-07
-2.1568e-07
6.8606e-09
2.14448e-07
4.07243e-07
5.87401e-07
7.57107e-07
9.16492e-07
1.06971e-06
1.21558e-06
1.35928e-06
1.49923e-06
1.64245e-06
1.78053e-06
1.94846e-06
2.04296e-06
2.39997e-06
2.03998e-06
3.6655e-06
4.18961e-07
8.31116e-06
-6.54672e-06
1.99627e-05
-1.8094e-05
2.66326e-05
-6.0328e-06
-8.46004e-06
4.72732e-05
-4.95157e-05
-4.66778e-05
-4.43927e-05
-4.21746e-05
-4.00239e-05
-3.79405e-05
-3.59242e-05
-3.39748e-05
-3.20918e-05
-3.02751e-05
-2.85239e-05
-2.68377e-05
-2.5216e-05
-2.36579e-05
-2.21626e-05
-2.07292e-05
-1.93568e-05
-1.80444e-05
-1.67908e-05
-1.5595e-05
-1.44555e-05
-1.33713e-05
-1.2341e-05
-1.13631e-05
-1.04364e-05
-9.55921e-06
-8.73014e-06
-7.94771e-06
-7.21014e-06
-6.51623e-06
-5.86382e-06
-5.25197e-06
-4.67825e-06
-4.14186e-06
-3.64032e-06
-3.17269e-06
-2.73684e-06
-2.3313e-06
-1.95455e-06
-1.60463e-06
-1.28022e-06
-9.79667e-07
-7.00889e-07
-4.43402e-07
-2.03866e-07
1.72291e-08
2.2346e-07
4.15019e-07
5.94006e-07
7.62639e-07
9.20993e-07
1.07328e-06
1.21821e-06
1.36108e-06
1.50017e-06
1.64258e-06
1.77994e-06
1.9469e-06
2.04118e-06
2.39612e-06
2.03864e-06
3.65639e-06
4.23518e-07
8.29022e-06
-6.53068e-06
1.99347e-05
-1.8087e-05
2.66366e-05
-6.06695e-06
-8.42568e-06
4.72468e-05
-4.95012e-05
-4.6331e-05
-4.40622e-05
-4.186e-05
-3.97247e-05
-3.76563e-05
-3.56545e-05
-3.37192e-05
-3.18499e-05
-3.00463e-05
-2.83078e-05
-2.6634e-05
-2.5024e-05
-2.34772e-05
-2.19927e-05
-2.05698e-05
-1.92073e-05
-1.79044e-05
-1.66599e-05
-1.54726e-05
-1.43414e-05
-1.3265e-05
-1.22421e-05
-1.12713e-05
-1.03512e-05
-9.48029e-06
-8.65714e-06
-7.88031e-06
-7.14799e-06
-6.45904e-06
-5.81125e-06
-5.20376e-06
-4.63411e-06
-4.10153e-06
-3.60353e-06
-3.13921e-06
-2.70644e-06
-2.30376e-06
-1.92966e-06
-1.58222e-06
-1.26007e-06
-9.61655e-07
-6.84811e-07
-4.29143e-07
-1.91276e-07
2.82793e-08
2.33063e-07
4.23306e-07
6.01044e-07
7.68534e-07
9.2579e-07
1.07708e-06
1.22102e-06
1.36298e-06
1.50118e-06
1.64271e-06
1.77929e-06
1.94526e-06
2.03922e-06
2.39212e-06
2.03697e-06
3.6471e-06
4.27613e-07
8.26885e-06
-6.51443e-06
1.99044e-05
-1.80769e-05
2.66359e-05
-6.09843e-06
-8.38884e-06
4.72104e-05
-4.94689e-05
-4.59629e-05
-4.37114e-05
-4.1526e-05
-3.94071e-05
-3.73546e-05
-3.53683e-05
-3.3448e-05
-3.15932e-05
-2.98036e-05
-2.80786e-05
-2.64177e-05
-2.48202e-05
-2.32854e-05
-2.18125e-05
-2.04005e-05
-1.90486e-05
-1.77558e-05
-1.65209e-05
-1.53428e-05
-1.42204e-05
-1.31522e-05
-1.21372e-05
-1.11738e-05
-1.02608e-05
-9.39654e-06
-8.57967e-06
-7.80878e-06
-7.08203e-06
-6.39834e-06
-5.75547e-06
-5.1526e-06
-4.58726e-06
-4.05872e-06
-3.56448e-06
-3.10369e-06
-2.67417e-06
-2.27454e-06
-1.90325e-06
-1.55844e-06
-1.23869e-06
-9.42538e-07
-6.67749e-07
-4.1401e-07
-1.77916e-07
4.0006e-08
2.43252e-07
4.321e-07
6.08512e-07
7.74788e-07
9.30882e-07
1.08111e-06
1.224e-06
1.365e-06
1.50224e-06
1.64285e-06
1.7786e-06
1.94352e-06
2.0371e-06
2.38794e-06
2.03498e-06
3.63761e-06
4.31268e-07
8.24703e-06
-6.49795e-06
1.9872e-05
-1.80638e-05
2.66305e-05
-6.12744e-06
-8.34945e-06
4.71643e-05
-4.94195e-05
-4.55736e-05
-4.33403e-05
-4.11728e-05
-3.90713e-05
-3.70357e-05
-3.50657e-05
-3.31612e-05
-3.13217e-05
-2.95469e-05
-2.78362e-05
-2.61891e-05
-2.46048e-05
-2.30827e-05
-2.16219e-05
-2.02216e-05
-1.88809e-05
-1.75987e-05
-1.6374e-05
-1.52056e-05
-1.40924e-05
-1.3033e-05
-1.20263e-05
-1.10708e-05
-1.01652e-05
-9.30799e-06
-8.49778e-06
-7.73316e-06
-7.01231e-06
-6.33417e-06
-5.69649e-06
-5.09851e-06
-4.53773e-06
-4.01346e-06
-3.52321e-06
-3.06612e-06
-2.64006e-06
-2.24365e-06
-1.87533e-06
-1.5333e-06
-1.21609e-06
-9.22324e-07
-6.49713e-07
-3.98009e-07
-1.63793e-07
5.24042e-08
2.54024e-07
4.41398e-07
6.16406e-07
7.81398e-07
9.36265e-07
1.08536e-06
1.22715e-06
1.36712e-06
1.50337e-06
1.64299e-06
1.77785e-06
1.94169e-06
2.0348e-06
2.3836e-06
2.03268e-06
3.6279e-06
4.34505e-07
8.22471e-06
-6.48121e-06
1.98373e-05
-1.80478e-05
2.66207e-05
-6.15416e-06
-8.30743e-06
4.71084e-05
-4.93534e-05
-4.51633e-05
-4.29493e-05
-4.08006e-05
-3.87174e-05
-3.66995e-05
-3.47469e-05
-3.2859e-05
-3.10357e-05
-2.92765e-05
-2.75808e-05
-2.59481e-05
-2.43778e-05
-2.28691e-05
-2.14211e-05
-2.00332e-05
-1.87042e-05
-1.74332e-05
-1.62192e-05
-1.5061e-05
-1.39575e-05
-1.29074e-05
-1.19094e-05
-1.09622e-05
-1.00644e-05
-9.2147e-06
-8.41149e-06
-7.65348e-06
-6.93884e-06
-6.26655e-06
-5.63435e-06
-5.04151e-06
-4.48555e-06
-3.96576e-06
-3.47971e-06
-3.02654e-06
-2.60412e-06
-2.21109e-06
-1.8459e-06
-1.5068e-06
-1.19228e-06
-9.01023e-07
-6.30711e-07
-3.81148e-07
-1.48912e-07
6.54683e-08
2.65373e-07
4.51194e-07
6.24724e-07
7.88362e-07
9.41937e-07
1.08984e-06
1.23047e-06
1.36935e-06
1.50455e-06
1.64313e-06
1.77705e-06
1.93976e-06
2.03234e-06
2.37907e-06
2.03007e-06
3.61796e-06
4.37349e-07
8.20186e-06
-6.46417e-06
1.98004e-05
-1.8029e-05
2.66065e-05
-6.17875e-06
-8.2627e-06
4.70429e-05
-4.92713e-05
-4.4732e-05
-4.25384e-05
-4.04094e-05
-3.83455e-05
-3.63464e-05
-3.44118e-05
-3.25416e-05
-3.07352e-05
-2.89924e-05
-2.73125e-05
-2.56951e-05
-2.41394e-05
-2.26447e-05
-2.12102e-05
-1.98352e-05
-1.85185e-05
-1.72594e-05
-1.60566e-05
-1.49091e-05
-1.38158e-05
-1.27754e-05
-1.17866e-05
-1.08481e-05
-9.95863e-06
-9.11669e-06
-8.32084e-06
-7.56978e-06
-6.86166e-06
-6.19551e-06
-5.56908e-06
-4.98164e-06
-4.43073e-06
-3.91566e-06
-3.43403e-06
-2.98495e-06
-2.56636e-06
-2.17689e-06
-1.815e-06
-1.47896e-06
-1.16726e-06
-8.78642e-07
-6.10749e-07
-3.63433e-07
-1.3328e-07
7.91925e-08
2.77295e-07
4.61485e-07
6.33461e-07
7.95674e-07
9.47896e-07
1.09453e-06
1.23396e-06
1.37169e-06
1.50578e-06
1.64327e-06
1.77619e-06
1.93773e-06
2.0297e-06
2.37436e-06
2.02716e-06
3.60777e-06
4.39826e-07
8.17842e-06
-6.44679e-06
1.97612e-05
-1.80074e-05
2.65881e-05
-6.20139e-06
-8.21518e-06
4.69679e-05
-4.91736e-05
-4.428e-05
-4.21077e-05
-3.99996e-05
-3.79558e-05
-3.59763e-05
-3.40608e-05
-3.2209e-05
-3.04204e-05
-2.86948e-05
-2.70315e-05
-2.543e-05
-2.38896e-05
-2.24096e-05
-2.09893e-05
-1.96278e-05
-1.83241e-05
-1.70772e-05
-1.58863e-05
-1.475e-05
-1.36674e-05
-1.26371e-05
-1.1658e-05
-1.07286e-05
-9.84779e-06
-9.01402e-06
-8.22588e-06
-7.48209e-06
-6.78081e-06
-6.1211e-06
-5.50069e-06
-4.9189e-06
-4.3733e-06
-3.86317e-06
-3.38616e-06
-2.94139e-06
-2.5268e-06
-2.14106e-06
-1.78261e-06
-1.4498e-06
-1.14105e-06
-8.55193e-07
-5.89839e-07
-3.44873e-07
-1.16904e-07
9.35707e-08
2.89784e-07
4.72265e-07
6.42614e-07
8.03332e-07
9.5414e-07
1.09945e-06
1.23762e-06
1.37412e-06
1.50708e-06
1.64341e-06
1.77528e-06
1.9356e-06
2.0269e-06
2.36947e-06
2.02396e-06
3.5973e-06
4.41964e-07
8.15434e-06
-6.42901e-06
1.97198e-05
-1.79831e-05
2.65655e-05
-6.22224e-06
-8.16482e-06
4.68833e-05
-4.90606e-05
-4.38075e-05
-4.16576e-05
-3.95712e-05
-3.75486e-05
-3.55896e-05
-3.3694e-05
-3.18614e-05
-3.00915e-05
-2.83838e-05
-2.67378e-05
-2.51529e-05
-2.36286e-05
-2.2164e-05
-2.07584e-05
-1.9411e-05
-1.81208e-05
-1.68869e-05
-1.57083e-05
-1.45838e-05
-1.35123e-05
-1.24926e-05
-1.15236e-05
-1.06038e-05
-9.73196e-06
-8.90673e-06
-8.12665e-06
-7.39046e-06
-6.69632e-06
-6.04333e-06
-5.42923e-06
-4.85335e-06
-4.31329e-06
-3.80831e-06
-3.33614e-06
-2.89586e-06
-2.48546e-06
-2.10362e-06
-1.74878e-06
-1.41932e-06
-1.11367e-06
-8.30685e-07
-5.67988e-07
-3.25476e-07
-9.97913e-08
1.08596e-07
3.02836e-07
4.8353e-07
6.5218e-07
8.11333e-07
9.60665e-07
1.10458e-06
1.24144e-06
1.37666e-06
1.50842e-06
1.64355e-06
1.77431e-06
1.93338e-06
2.02393e-06
2.36439e-06
2.02047e-06
3.58655e-06
4.43793e-07
8.12957e-06
-6.41077e-06
1.96759e-05
-1.79559e-05
2.65389e-05
-6.24143e-06
-8.11151e-06
4.67892e-05
-4.89326e-05
-4.33147e-05
-4.11881e-05
-3.91244e-05
-3.71239e-05
-3.51863e-05
-3.33115e-05
-3.1499e-05
-2.97485e-05
-2.80595e-05
-2.64316e-05
-2.48641e-05
-2.33565e-05
-2.19079e-05
-2.05178e-05
-1.91851e-05
-1.7909e-05
-1.66885e-05
-1.55227e-05
-1.44105e-05
-1.33506e-05
-1.2342e-05
-1.13835e-05
-1.04736e-05
-9.61121e-06
-8.79488e-06
-8.02319e-06
-7.29492e-06
-6.60823e-06
-5.96225e-06
-5.35473e-06
-4.785e-06
-4.25072e-06
-3.75112e-06
-3.28399e-06
-2.84839e-06
-2.44236e-06
-2.06457e-06
-1.71349e-06
-1.38753e-06
-1.08512e-06
-8.05129e-07
-5.45206e-07
-3.0525e-07
-8.19489e-08
1.24263e-07
3.16444e-07
4.95275e-07
6.62153e-07
8.19671e-07
9.67468e-07
1.10992e-06
1.24542e-06
1.37931e-06
1.50982e-06
1.64368e-06
1.77329e-06
1.93105e-06
2.0208e-06
2.35911e-06
2.0167e-06
3.57549e-06
4.45346e-07
8.10404e-06
-6.39201e-06
1.96295e-05
-1.7926e-05
2.65083e-05
-6.25912e-06
-8.0552e-06
4.66856e-05
-4.87899e-05
-4.28017e-05
-4.06994e-05
-3.86594e-05
-3.66819e-05
-3.47667e-05
-3.29134e-05
-3.11219e-05
-2.93916e-05
-2.77221e-05
-2.6113e-05
-2.45636e-05
-2.30734e-05
-2.16415e-05
-2.02673e-05
-1.895e-05
-1.76886e-05
-1.64821e-05
-1.53297e-05
-1.42302e-05
-1.31824e-05
-1.21853e-05
-1.12377e-05
-1.03382e-05
-9.48557e-06
-8.6785e-06
-7.91556e-06
-7.19552e-06
-6.51658e-06
-5.87789e-06
-5.27721e-06
-4.71388e-06
-4.18562e-06
-3.6916e-06
-3.22973e-06
-2.799e-06
-2.39751e-06
-2.02395e-06
-1.67678e-06
-1.35446e-06
-1.05541e-06
-7.78536e-07
-5.21504e-07
-2.84204e-07
-6.33849e-08
1.40563e-07
3.30604e-07
5.07493e-07
6.7253e-07
8.28342e-07
9.74546e-07
1.11547e-06
1.24956e-06
1.38204e-06
1.51126e-06
1.64382e-06
1.77221e-06
1.92862e-06
2.01749e-06
2.35363e-06
2.01266e-06
3.56409e-06
4.46655e-07
8.0777e-06
-6.37265e-06
1.95807e-05
-1.78933e-05
2.64736e-05
-6.27542e-06
-7.99578e-06
4.65726e-05
-4.86326e-05
-4.22688e-05
-4.01919e-05
-3.81765e-05
-3.62229e-05
-3.43309e-05
-3.25001e-05
-3.07303e-05
-2.9021e-05
-2.73718e-05
-2.57822e-05
-2.42516e-05
-2.27794e-05
-2.13649e-05
-2.00073e-05
-1.87059e-05
-1.74597e-05
-1.62678e-05
-1.51292e-05
-1.40429e-05
-1.30078e-05
-1.20226e-05
-1.10863e-05
-1.01975e-05
-9.35512e-06
-8.55765e-06
-7.80379e-06
-7.0923e-06
-6.42141e-06
-5.79029e-06
-5.19671e-06
-4.64003e-06
-4.11802e-06
-3.6298e-06
-3.17339e-06
-2.74771e-06
-2.35094e-06
-1.98176e-06
-1.63866e-06
-1.32012e-06
-1.02456e-06
-7.50918e-07
-4.96891e-07
-2.62348e-07
-4.41074e-08
1.57489e-07
3.45308e-07
5.20179e-07
6.83306e-07
8.37344e-07
9.81896e-07
1.12123e-06
1.25385e-06
1.38488e-06
1.51276e-06
1.64394e-06
1.77106e-06
1.92609e-06
2.01402e-06
2.34795e-06
2.00835e-06
3.55234e-06
4.47756e-07
8.05046e-06
-6.3526e-06
1.95291e-05
-1.78577e-05
2.6435e-05
-6.29046e-06
-7.93318e-06
4.64501e-05
-4.84609e-05
-4.17163e-05
-3.96656e-05
-3.76758e-05
-3.5747e-05
-3.38791e-05
-3.20716e-05
-3.03243e-05
-2.86368e-05
-2.70086e-05
-2.54393e-05
-2.39282e-05
-2.24747e-05
-2.10782e-05
-1.97379e-05
-1.84529e-05
-1.72225e-05
-1.60457e-05
-1.49215e-05
-1.38489e-05
-1.28267e-05
-1.1854e-05
-1.09294e-05
-1.00518e-05
-9.2199e-06
-8.43239e-06
-7.68793e-06
-6.98531e-06
-6.32276e-06
-5.69948e-06
-5.11327e-06
-4.56347e-06
-4.04795e-06
-3.56574e-06
-3.11498e-06
-2.69454e-06
-2.30266e-06
-1.93803e-06
-1.59914e-06
-1.28451e-06
-9.92582e-07
-7.22288e-07
-4.71379e-07
-2.3969e-07
-2.41248e-08
1.75034e-07
3.6055e-07
5.33327e-07
6.94477e-07
8.4667e-07
9.89515e-07
1.1272e-06
1.2583e-06
1.38781e-06
1.5143e-06
1.64407e-06
1.76986e-06
1.92345e-06
2.01039e-06
2.34205e-06
2.00378e-06
3.54021e-06
4.48688e-07
8.02226e-06
-6.33177e-06
1.94748e-05
-1.78193e-05
2.63925e-05
-6.30436e-06
-7.86732e-06
4.63181e-05
-4.82747e-05
-4.11442e-05
-3.91208e-05
-3.71576e-05
-3.52545e-05
-3.34115e-05
-3.16282e-05
-2.99042e-05
-2.82393e-05
-2.66329e-05
-2.50845e-05
-2.35935e-05
-2.21594e-05
-2.07815e-05
-1.9459e-05
-1.81911e-05
-1.69771e-05
-1.58158e-05
-1.47065e-05
-1.3648e-05
-1.26394e-05
-1.16794e-05
-1.07671e-05
-9.90094e-06
-9.07998e-06
-8.30278e-06
-7.56805e-06
-6.8746e-06
-6.22069e-06
-5.60552e-06
-5.02693e-06
-4.48425e-06
-3.97543e-06
-3.49945e-06
-3.05454e-06
-2.63952e-06
-2.2527e-06
-1.89277e-06
-1.55825e-06
-1.24767e-06
-9.59491e-07
-6.92658e-07
-4.44978e-07
-2.16242e-07
-3.44561e-09
1.93191e-07
3.76325e-07
5.46931e-07
7.06038e-07
8.56317e-07
9.97397e-07
1.13336e-06
1.2629e-06
1.39084e-06
1.51589e-06
1.64418e-06
1.7686e-06
1.92071e-06
2.00659e-06
2.33594e-06
1.99897e-06
3.52768e-06
4.4949e-07
7.99301e-06
-6.31006e-06
1.94176e-05
-1.77778e-05
2.63459e-05
-6.3172e-06
-7.7981e-06
4.61766e-05
-4.80742e-05
-4.0553e-05
-3.85578e-05
-3.6622e-05
-3.47456e-05
-3.29284e-05
-3.117e-05
-2.94702e-05
-2.78286e-05
-2.62446e-05
-2.47179e-05
-2.32478e-05
-2.18337e-05
-2.0475e-05
-1.91709e-05
-1.79207e-05
-1.67235e-05
-1.55784e-05
-1.44844e-05
-1.34406e-05
-1.24459e-05
-1.14992e-05
-1.05993e-05
-9.74512e-06
-8.93542e-06
-8.16887e-06
-7.4442e-06
-6.76021e-06
-6.11522e-06
-5.50843e-06
-4.93772e-06
-4.4024e-06
-3.90051e-06
-3.43095e-06
-2.99209e-06
-2.58266e-06
-2.20109e-06
-1.84601e-06
-1.516e-06
-1.20959e-06
-9.253e-07
-6.6204e-07
-4.177e-07
-1.92013e-07
1.7921e-08
2.11949e-07
3.92624e-07
5.60985e-07
7.17983e-07
8.66281e-07
1.00554e-06
1.13972e-06
1.26765e-06
1.39395e-06
1.51752e-06
1.64429e-06
1.76728e-06
1.91786e-06
2.00262e-06
2.3296e-06
1.99392e-06
3.51472e-06
4.50204e-07
7.96262e-06
-6.28736e-06
1.93573e-05
-1.77333e-05
2.62954e-05
-6.3291e-06
-7.72543e-06
4.60256e-05
-4.78592e-05
-3.99428e-05
-3.79768e-05
-3.60693e-05
-3.42204e-05
-3.24299e-05
-3.06973e-05
-2.90224e-05
-2.74048e-05
-2.58441e-05
-2.43397e-05
-2.28911e-05
-2.14977e-05
-2.01588e-05
-1.88738e-05
-1.76417e-05
-1.64619e-05
-1.53334e-05
-1.42553e-05
-1.32266e-05
-1.22463e-05
-1.13132e-05
-1.04263e-05
-9.58436e-06
-8.78629e-06
-8.03072e-06
-7.31642e-06
-6.6422e-06
-6.00641e-06
-5.40827e-06
-4.84569e-06
-4.31796e-06
-3.82322e-06
-3.36028e-06
-2.92766e-06
-2.52401e-06
-2.14783e-06
-1.79776e-06
-1.4724e-06
-1.17031e-06
-8.90024e-07
-6.30449e-07
-3.89558e-07
-1.67015e-07
3.99657e-08
2.31302e-07
4.09442e-07
5.75482e-07
7.30308e-07
8.76555e-07
1.01394e-06
1.14628e-06
1.27255e-06
1.39716e-06
1.51919e-06
1.64438e-06
1.76589e-06
1.91489e-06
1.9985e-06
2.32304e-06
1.98864e-06
3.50131e-06
4.50873e-07
7.93102e-06
-6.26356e-06
1.92938e-05
-1.76855e-05
2.62407e-05
-6.34015e-06
-7.64923e-06
4.5865e-05
-4.76297e-05
-3.9314e-05
-3.73781e-05
-3.54999e-05
-3.36793e-05
-3.19163e-05
-3.02103e-05
-2.85611e-05
-2.69683e-05
-2.54315e-05
-2.39501e-05
-2.25237e-05
-2.11516e-05
-1.98331e-05
-1.85676e-05
-1.73544e-05
-1.61924e-05
-1.50811e-05
-1.40193e-05
-1.30061e-05
-1.20406e-05
-1.11216e-05
-1.02481e-05
-9.41875e-06
-8.63265e-06
-7.88839e-06
-7.18478e-06
-6.52062e-06
-5.89432e-06
-5.30507e-06
-4.75086e-06
-4.23095e-06
-3.74358e-06
-3.28747e-06
-2.86128e-06
-2.46358e-06
-2.09296e-06
-1.74805e-06
-1.42748e-06
-1.12984e-06
-8.53678e-07
-5.97899e-07
-3.60562e-07
-1.41258e-07
6.26789e-08
2.51241e-07
4.2677e-07
5.90415e-07
7.43007e-07
8.87135e-07
1.02259e-06
1.15303e-06
1.27758e-06
1.40045e-06
1.5209e-06
1.64447e-06
1.76445e-06
1.91182e-06
1.99421e-06
2.31624e-06
1.98313e-06
3.48741e-06
4.51543e-07
7.8981e-06
-6.23852e-06
1.92269e-05
-1.76345e-05
2.6182e-05
-6.35043e-06
-7.56941e-06
4.56948e-05
-4.73856e-05
-3.86668e-05
-3.67619e-05
-3.49138e-05
-3.31225e-05
-3.13877e-05
-2.97092e-05
-2.80864e-05
-2.65192e-05
-2.5007e-05
-2.35493e-05
-2.21457e-05
-2.07955e-05
-1.9498e-05
-1.82527e-05
-1.70587e-05
-1.59152e-05
-1.48214e-05
-1.37765e-05
-1.27793e-05
-1.1829e-05
-1.09244e-05
-1.00647e-05
-9.24836e-06
-8.47457e-06
-7.74195e-06
-7.04933e-06
-6.39552e-06
-5.77898e-06
-5.19889e-06
-4.6533e-06
-4.14143e-06
-3.66163e-06
-3.21255e-06
-2.79297e-06
-2.40139e-06
-2.0365e-06
-1.69689e-06
-1.38126e-06
-1.08819e-06
-8.16279e-07
-5.64404e-07
-3.30727e-07
-1.14753e-07
8.60505e-08
2.71756e-07
4.44601e-07
6.05778e-07
7.56074e-07
8.98017e-07
1.03149e-06
1.15997e-06
1.28276e-06
1.40383e-06
1.52264e-06
1.64454e-06
1.76293e-06
1.90863e-06
1.98976e-06
2.30921e-06
1.97742e-06
3.473e-06
4.52262e-07
7.86377e-06
-6.21211e-06
1.91564e-05
-1.758e-05
2.61191e-05
-6.36004e-06
-7.48588e-06
4.5515e-05
-4.71268e-05
-3.80015e-05
-3.61286e-05
-3.43115e-05
-3.25503e-05
-3.08446e-05
-2.91942e-05
-2.75986e-05
-2.60576e-05
-2.45707e-05
-2.31374e-05
-2.17572e-05
-2.04295e-05
-1.91537e-05
-1.7929e-05
-1.67549e-05
-1.56303e-05
-1.45547e-05
-1.35269e-05
-1.25462e-05
-1.16116e-05
-1.07219e-05
-9.87619e-06
-9.07326e-06
-8.31213e-06
-7.59146e-06
-6.91014e-06
-6.26697e-06
-5.66045e-06
-5.08977e-06
-4.55303e-06
-4.04943e-06
-3.57742e-06
-3.13556e-06
-2.72278e-06
-2.33748e-06
-1.97847e-06
-1.64432e-06
-1.33376e-06
-1.04538e-06
-7.77842e-07