/*--------------------------------*- C++ -*----------------------------------*\
| =========                 |                                                 |
| \\      /  F ield         | OpenFOAM: The Open Source CFD Toolbox           |
|  \\    /   O peration     | Version:  2412                                  |
|   \\  /    A nd           | Website:  www.openfoam.com                      |
|    \\/     M anipulation  |                                                 |
\*---------------------------------------------------------------------------*/
FoamFile
{
    version     2.0;
    format      ascii;
    arch        "LSB;label=32;scalar=64";
    class       volScalarField;
    location    "12";
    object      p;
}
// * * * * * * * * * * * * * * * * * * * * * * * * * * * * * * * * * * * * * //

dimensions      [0 2 -2 0 0 0 0];

internalField   nonuniform List<scalar> 
63420
(
0.000991007
0.000991268
0.000992083
0.00099335
0.000995045
0.000997158
0.000999671
0.00100257
0.00100582
0.00100943
0.00101339
0.00101768
0.00102231
0.00102728
0.00103258
0.0010382
0.00104416
0.00105045
0.00105706
0.001064
0.00107127
0.00107886
0.00108678
0.00109503
0.00110361
0.00111252
0.00112177
0.00113135
0.00114127
0.00115154
0.00116215
0.00117311
0.00118442
0.00119608
0.00120811
0.0012205
0.00123325
0.00124638
0.00125988
0.00127376
0.00128802
0.00130268
0.00131772
0.00133316
0.00134901
0.00136526
0.00138192
0.001399
0.0014165
0.00143443
0.00145279
0.00147158
0.00149082
0.0015105
0.00153064
0.000990947
0.000991209
0.000992022
0.000993289
0.000994983
0.000997094
0.000999605
0.0010025
0.00100575
0.00100936
0.00101331
0.0010176
0.00102223
0.00102719
0.00103248
0.00103811
0.00104406
0.00105034
0.00105695
0.00106388
0.00107114
0.00107873
0.00108664
0.00109488
0.00110345
0.00111236
0.00112159
0.00113117
0.00114108
0.00115133
0.00116193
0.00117287
0.00118417
0.00119582
0.00120783
0.0012202
0.00123294
0.00124604
0.00125952
0.00127338
0.00128762
0.00130225
0.00131727
0.00133269
0.0013485
0.00136472
0.00138135
0.0013984
0.00141586
0.00143375
0.00145206
0.00147081
0.00149
0.00150964
0.00152972
0.000990828
0.000991089
0.000991902
0.000993166
0.000994858
0.000996966
0.000999473
0.00100236
0.00100561
0.00100921
0.00101316
0.00101744
0.00102206
0.00102702
0.0010323
0.00103792
0.00104386
0.00105013
0.00105673
0.00106365
0.00107089
0.00107847
0.00108636
0.00109459
0.00110314
0.00111203
0.00112124
0.00113079
0.00114068
0.00115091
0.00116148
0.0011724
0.00118367
0.00119529
0.00120727
0.00121961
0.00123231
0.00124537
0.00125881
0.00127263
0.00128683
0.00130141
0.00131637
0.00133173
0.00134749
0.00136365
0.00138021
0.00139719
0.00141458
0.00143239
0.00145062
0.00146929
0.00148838
0.00150792
0.00152789
0.00099065
0.00099091
0.000991721
0.000992983
0.00099467
0.000996774
0.000999276
0.00100216
0.0010054
0.00100899
0.00101293
0.00101721
0.00102182
0.00102676
0.00103203
0.00103763
0.00104356
0.00104982
0.00105639
0.0010633
0.00107052
0.00107807
0.00108595
0.00109415
0.00110267
0.00111153
0.00112072
0.00113024
0.00114009
0.00115029
0.00116082
0.0011717
0.00118293
0.0011945
0.00120643
0.00121872
0.00123136
0.00124437
0.00125775
0.0012715
0.00128563
0.00130014
0.00131503
0.00133031
0.00134598
0.00136204
0.00137851
0.00139538
0.00141266
0.00143036
0.00144847
0.001467
0.00148596
0.00150534
0.00152516
0.000990412
0.000990672
0.00099148
0.000992739
0.000994421
0.000996519
0.000999013
0.00100188
0.00100512
0.0010087
0.00101263
0.00101689
0.00102149
0.00102641
0.00103167
0.00103725
0.00104316
0.00104939
0.00105595
0.00106283
0.00107002
0.00107755
0.00108539
0.00109356
0.00110205
0.00111087
0.00112002
0.0011295
0.00113931
0.00114946
0.00115994
0.00117077
0.00118193
0.00119345
0.00120532
0.00121753
0.00123011
0.00124304
0.00125634
0.00127001
0.00128404
0.00129845
0.00131324
0.00132841
0.00134397
0.00135991
0.00137625
0.00139299
0.00141012
0.00142766
0.00144561
0.00146397
0.00148274
0.00150193
0.00152154
0.000990115
0.000990374
0.000991179
0.000992433
0.00099411
0.000996199
0.000998684
0.00100155
0.00100477
0.00100834
0.00101225
0.0010165
0.00102107
0.00102598
0.00103122
0.00103678
0.00104266
0.00104887
0.00105539
0.00106224
0.00106941
0.00107689
0.0010847
0.00109283
0.00110128
0.00111005
0.00111915
0.00112858
0.00113833
0.00114842
0.00115884
0.0011696
0.0011807
0.00119214
0.00120393
0.00121606
0.00122855
0.00124139
0.00125458
0.00126814
0.00128206
0.00129636
0.00131102
0.00132605
0.00134147
0.00135726
0.00137344
0.00139001
0.00140696
0.00142431
0.00144206
0.0014602
0.00147875
0.0014977
0.00151705
0.000989759
0.000990017
0.000990819
0.000992068
0.000993737
0.000995817
0.000998291
0.00100114
0.00100435
0.0010079
0.0010118
0.00101602
0.00102058
0.00102547
0.00103068
0.00103621
0.00104206
0.00104824
0.00105473
0.00106154
0.00106866
0.00107611
0.00108387
0.00109195
0.00110035
0.00110907
0.00111811
0.00112747
0.00113716
0.00114718
0.00115753
0.00116821
0.00117922
0.00119057
0.00120227
0.0012143
0.00122668
0.0012394
0.00125248
0.00126591
0.0012797
0.00129385
0.00130836
0.00132324
0.00133848
0.0013541
0.00137009
0.00138645
0.0014032
0.00142032
0.00143783
0.00145572
0.001474
0.00149266
0.0015117
0.00155129
0.00157267
0.00159498
0.00161827
0.0016426
0.00166803
0.00169463
0.00172247
0.00175163
0.00178219
0.00181425
0.00184791
0.00188327
0.00192045
0.00195959
0.00200082
0.00204429
0.00209017
0.00213865
0.00218993
0.00224423
0.00230181
0.00236292
0.00242788
0.00249703
0.00257072
0.00264937
0.00273343
0.00282341
0.00291986
0.0030234
0.00313469
0.00325448
0.00338358
0.00352286
0.00367327
0.00383575
0.00401125
0.00420062
0.00440445
0.00462287
0.00485523
0.00509968
0.0053529
0.00561029
0.00586684
0.00611751
0.00636795
0.00668709
0.0071712
0.00155034
0.00157172
0.00159404
0.00161734
0.00164166
0.00166708
0.00169368
0.00172151
0.00175066
0.00178122
0.00181327
0.00184692
0.00188227
0.00191944
0.00195856
0.00199977
0.00204322
0.00208907
0.00213751
0.00218875
0.00224299
0.0023005
0.00236153
0.00242639
0.00249541
0.00256894
0.0026474
0.00273121
0.00282088
0.00291694
0.00301998
0.00313065
0.00324964
0.00337772
0.0035157
0.00366442
0.00382472
0.00399738
0.00418303
0.004382
0.00459404
0.004818
0.00505144
0.00529023
0.00552882
0.0057612
0.00598175
0.00619525
0.00646625
0.00688404
0.00154847
0.00156986
0.00159216
0.00161544
0.00163976
0.00166517
0.00169176
0.00171958
0.00174873
0.00177927
0.00181131
0.00184494
0.00188027
0.00191741
0.0019565
0.00199767
0.00204107
0.00208686
0.00213523
0.00218638
0.00224052
0.00229789
0.00235877
0.00242343
0.00249219
0.00256542
0.00264348
0.00272682
0.00281588
0.00291117
0.00301324
0.00312267
0.00324009
0.00336617
0.00350158
0.00364697
0.00380295
0.00396999
0.00414829
0.00433758
0.00453687
0.00474401
0.00495528
0.00516498
0.00536563
0.00554915
0.00570897
0.00584835
0.0060188
0.00631701
0.00154565
0.00156703
0.00158932
0.00161259
0.0016369
0.0016623
0.00168888
0.00171669
0.00174581
0.00177633
0.00180835
0.00184195
0.00187724
0.00191434
0.00195337
0.00199448
0.0020378
0.0020835
0.00213175
0.00218276
0.00223673
0.0022939
0.00235452
0.00241886
0.00248724
0.00255998
0.00263745
0.00272004
0.00280816
0.00290228
0.00300286
0.00311042
0.00322546
0.00334851
0.00348002
0.00362041
0.00376992
0.00392853
0.00409583
0.00427068
0.00445096
0.00463302
0.00481124
0.00497754
0.00512154
0.00523198
0.00530077
0.00533254
0.00536303
0.00545024
0.00154191
0.00156328
0.00158556
0.00160882
0.00163312
0.00165852
0.00168508
0.00171287
0.00174198
0.00177249
0.00180447
0.00183804
0.0018733
0.00191035
0.00194932
0.00199035
0.00203358
0.00207917
0.00212728
0.00217812
0.00223188
0.00228879
0.00234908
0.00241303
0.00248091
0.00255303
0.00262972
0.00271132
0.0027982
0.00289076
0.00298936
0.00309441
0.00320626
0.00332522
0.00345148
0.0035851
0.00372584
0.00387304
0.00402541
0.00418069
0.00433524
0.00448346
0.00461721
0.00472538
0.00479396
0.00480747
0.00475482
0.00464386
0.00449934
0.00426103
0.00153727
0.00155864
0.00158093
0.0016042
0.00162851
0.00165392
0.00168051
0.00170833
0.00173746
0.00176799
0.00180001
0.00183361
0.00186889
0.00190596
0.00194495
0.001986
0.00202923
0.00207482
0.00212292
0.00217373
0.00222744
0.00228427
0.00234445
0.00240822
0.00247585
0.00254762
0.00262382
0.00270476
0.00279074
0.00288209
0.00297909
0.00308198
0.00319096
0.00330609
0.00342722
0.00355392
0.00368528
0.00381969
0.00395451
0.00408567
0.00420702
0.00430973
0.00438156
0.0044065
0.00436503
0.00423604
0.00400359
0.00367642
0.00327149
0.00259346
0.00153171
0.00155301
0.00157524
0.00159846
0.00162272
0.00164808
0.00167461
0.00170238
0.00173146
0.00176194
0.0017939
0.00182744
0.00186266
0.00189967
0.00193858
0.00197954
0.00202269
0.00206817
0.00211615
0.00216683
0.00222038
0.00227703
0.00233698
0.00240047
0.00246775
0.00253907
0.00261469
0.00269489
0.00277991
0.00287
0.00296535
0.00306608
0.00317221
0.00328354
0.00339959
0.0035194
0.00364131
0.00376259
0.00387896
0.00398393
0.00406798
0.00411763
0.00411473
0.00403632
0.0038555
0.00354314
0.00307928
0.00247779
0.00170447
0.000455241
-0.00335431
-0.00340549
-0.0033896
-0.00332046
-0.0032115
-0.00306876
-0.00289571
-0.00269824
-0.00248293
-0.00225597
-0.00202368
-0.00179189
-0.00156575
-0.00134957
-0.00114672
-0.00095968
-0.00079002
-0.000638523
-0.000505284
-0.000389841
-0.0002913
-0.000208458
-0.000139914
-8.41604e-05
-3.9655e-05
-4.88985e-06
2.15625e-05
4.10265e-05
5.47032e-05
6.36576e-05
6.88189e-05
7.09853e-05
7.08325e-05
6.89239e-05
6.57232e-05
6.16069e-05
5.68763e-05
5.17692e-05
4.64706e-05
4.11214e-05
3.58275e-05
3.06661e-05
2.56916e-05
2.09413e-05
1.64382e-05
1.21954e-05
8.21791e-06
4.50501e-06
1.05166e-06
-2.14951e-06
-0.00345663
-0.00348136
-0.00344979
-0.00337187
-0.00325781
-0.0031114
-0.00293593
-0.00273714
-0.00252099
-0.00229322
-0.00206001
-0.00182711
-0.00159961
-0.00138185
-0.00117723
-0.000988283
-0.000816626
-0.000663094
-0.000527828
-0.000410404
-0.000309958
-0.000225309
-0.000155072
-9.77491e-05
-5.18008e-05
-1.57191e-05
1.19269e-05
3.24677e-05
4.71114e-05
5.69307e-05
6.28631e-05
6.57151e-05
6.61703e-05
6.48001e-05
6.20753e-05
5.83791e-05
5.4019e-05
4.92384e-05
4.42273e-05
3.91313e-05
3.40602e-05
2.9095e-05
2.42935e-05
1.96956e-05
1.53272e-05
1.12034e-05
7.33132e-06
3.71197e-06
3.41727e-07
-2.78464e-06
-0.00366295
-0.00362856
-0.00356811
-0.00347185
-0.00334733
-0.00319339
-0.00301243
-0.00281189
-0.00259416
-0.00236496
-0.00213013
-0.00189521
-0.00166525
-0.00144456
-0.00123665
-0.00104409
-0.000868638
-0.000711211
-0.000572043
-0.000450789
-0.000346646
-0.000258481
-0.00018494
-0.000124544
-7.57675e-05
-3.71013e-05
-7.10709e-06
1.55547e-05
3.21049e-05
4.36311e-05
5.10865e-05
5.52933e-05
5.6951e-05
5.66457e-05
5.48624e-05
5.19975e-05
4.83705e-05
4.42359e-05
3.97936e-05
3.51983e-05
3.0568e-05
2.59907e-05
2.1531e-05
1.72343e-05
1.31316e-05
9.24268e-06
5.57846e-06
2.14352e-06
-1.06291e-06
-4.04183e-06
-0.0039785
-0.00383803
-0.00374186
-0.00361069
-0.00346917
-0.00330716
-0.0031223
-0.00291801
-0.0026979
-0.00246675
-0.00222976
-0.00199215
-0.00175885
-0.00153417
-0.00132169
-0.00112412
-0.000943333
-0.00078041
-0.000635714
-0.000509013
-0.000399598
-0.000306402
-0.000228125
-0.000163319
-0.00011047
-6.80791e-05
-3.46982e-05
-8.97397e-06
1.03316e-05
2.43266e-05
3.39859e-05
4.01545e-05
4.35539e-05
4.47916e-05
4.43731e-05
4.27133e-05
4.01493e-05
3.69514e-05
3.3334e-05
2.94649e-05
2.54737e-05
2.14592e-05
1.74951e-05
1.36353e-05
9.91816e-06
6.3698e-06
3.00706e-06
-1.60542e-07
-3.12927e-06
-5.89399e-06
-0.00436605
-0.00411206
-0.00395618
-0.00380037
-0.00362953
-0.00344996
-0.00325593
-0.00304626
-0.00282293
-0.00258943
-0.0023501
-0.00210969
-0.00187289
-0.00164394
-0.00142645
-0.00122326
-0.00103639
-0.00086709
-0.000715884
-0.000582684
-0.000466904
-0.000367579
-0.000283474
-0.00021319
-0.000155254
-0.000108171
-7.04971e-05
-4.08694e-05
-1.80338e-05
-8.61302e-07
1.16466e-05
2.03601e-05
2.60262e-05
2.92776e-05
3.06438e-05
3.05627e-05
2.93928e-05
2.74244e-05
2.489e-05
2.19743e-05
1.88221e-05
1.55458e-05
1.22314e-05
8.94378e-06
5.73103e-06
2.62789e-06
-3.41314e-07
-3.16052e-06
-5.81968e-06
-8.30618e-06
-0.00477445
-0.00444132
-0.00419923
-0.00400313
-0.00380174
-0.00360114
-0.00339409
-0.00317726
-0.00295065
-0.00271603
-0.00247646
-0.00223577
-0.00199806
-0.00176725
-0.00154681
-0.00133962
-0.0011478
-0.000972788
-0.000815294
-0.000675437
-0.000552818
-0.000446633
-0.000355786
-0.000278983
-0.000214824
-0.000161878
-0.000118734
-8.40431e-05
-5.65574e-05
-3.51424e-05
-1.87861e-05
-6.60024e-06
2.18417e-06
8.2239e-06
1.20736e-05
1.41966e-05
1.49767e-05
1.47284e-05
1.37078e-05
1.21216e-05
1.01352e-05
7.88007e-06
5.45963e-06
2.95461e-06
4.27194e-07
-2.07529e-06
-4.51752e-06
-6.8739e-06
-9.12534e-06
-1.12522e-05
-0.00516507
-0.00484484
-0.00457221
-0.0042845
-0.00403458
-0.00380317
-0.00357548
-0.00334599
-0.00311221
-0.0028737
-0.00263187
-0.00238935
-0.00214941
-0.0019155
-0.00169088
-0.00147838
-0.00128025
-0.00109809
-0.000932839
-0.000784839
-0.000653901
-0.000539411
-0.000440426
-0.000355783
-0.000284173
-0.000224222
-0.000174559
-0.000133857
-0.000100869
-7.44503e-05
-5.35723e-05
-3.73223e-05
-2.49032e-05
-1.56275e-05
-8.90839e-06
-4.25032e-06
-1.23804e-06
4.7369e-07
1.16986e-06
1.0843e-06
4.07645e-07
-7.05606e-07
-2.13103e-06
-3.76914e-06
-5.54095e-06
-7.38439e-06
-9.25128e-06
-1.11049e-05
-1.29169e-05
-1.46639e-05
-5.11449e-06
-7.89637e-06
-1.05059e-05
-1.2938e-05
-1.51955e-05
-1.72821e-05
-1.92014e-05
-2.09579e-05
-2.25565e-05
-2.40027e-05
-2.53024e-05
-2.64614e-05
-2.74858e-05
-2.83815e-05
-2.91544e-05
-2.98098e-05
-3.0353e-05
-3.07888e-05
-3.11217e-05
-3.1356e-05
-3.14959e-05
-3.15458e-05
-3.15101e-05
-3.13937e-05
-3.12015e-05
-3.09389e-05
-3.06112e-05
-3.02238e-05
-2.97821e-05
-2.92915e-05
-2.87569e-05
-2.8183e-05
-2.75744e-05
-2.69353e-05
-2.62696e-05
-2.55811e-05
-2.48732e-05
-2.41491e-05
-2.34121e-05
-2.26649e-05
-2.19105e-05
-2.11513e-05
-2.03899e-05
-1.96283e-05
-1.88691e-05
-1.81142e-05
-1.73651e-05
-1.66239e-05
-1.58922e-05
-1.51714e-05
-1.44628e-05
-1.37677e-05
-1.30873e-05
-1.24226e-05
-1.17744e-05
-1.11434e-05
-1.05305e-05
-9.93604e-06
-9.36068e-06
-8.80475e-06
-8.26852e-06
-7.7522e-06
-7.25595e-06
-6.77984e-06
-6.32387e-06
-5.88791e-06
-5.47179e-06
-5.07529e-06
-4.6982e-06
-4.34023e-06
-4.001e-06
-3.68006e-06
-3.37696e-06
-3.09123e-06
-2.8224e-06
-2.56996e-06
-2.33334e-06
-2.11196e-06
-1.90518e-06
-1.71239e-06
-1.53302e-06
-1.36645e-06
-1.21209e-06
-1.06934e-06
-9.37546e-07
-8.16132e-07
-7.04279e-07
-6.01881e-07
-5.07159e-07
-4.22228e-07
-3.40694e-07
-2.74473e-07
-1.97211e-07
-1.60413e-07
-6.18554e-08
-9.36132e-08
9.75541e-08
-1.11755e-07
3.42152e-07
-2.82607e-07
7.53166e-07
-6.67395e-07
1.35508e-06
-1.1973e-06
1.95473e-06
-1.51137e-06
2.04444e-06
-1.01362e-06
1.09169e-06
5.77441e-07
-7.34179e-07
2.52449e-06
-2.17816e-06
3.27603e-06
-1.77986e-06
-5.67329e-06
-8.40494e-06
-1.09702e-05
-1.33595e-05
-1.55774e-05
-1.76281e-05
-1.95146e-05
-2.12412e-05
-2.28125e-05
-2.42339e-05
-2.55109e-05
-2.66492e-05
-2.76547e-05
-2.85332e-05
-2.92902e-05
-2.99311e-05
-3.0461e-05
-3.08847e-05
-3.12065e-05
-3.14307e-05
-3.15615e-05
-3.16032e-05
-3.15602e-05
-3.14373e-05
-3.12394e-05
-3.09717e-05
-3.06394e-05
-3.0248e-05
-2.98029e-05
-2.93091e-05
-2.87718e-05
-2.81955e-05
-2.75847e-05
-2.69437e-05
-2.62763e-05
-2.55862e-05
-2.4877e-05
-2.41518e-05
-2.34137e-05
-2.26657e-05
-2.19104e-05
-2.11506e-05
-2.03886e-05
-1.96265e-05
-1.88669e-05
-1.81117e-05
-1.73624e-05
-1.6621e-05
-1.58891e-05
-1.51682e-05
-1.44595e-05
-1.37645e-05
-1.30841e-05
-1.24193e-05
-1.17711e-05
-1.11403e-05
-1.05274e-05
-9.93302e-06
-9.35775e-06
-8.80193e-06
-8.26581e-06
-7.74961e-06
-7.25348e-06
-6.77749e-06
-6.32164e-06
-5.8858e-06
-5.46979e-06
-5.07341e-06
-4.69644e-06
-4.33858e-06
-3.99946e-06
-3.67862e-06
-3.37563e-06
-3.08999e-06
-2.82126e-06
-2.5689e-06
-2.33237e-06
-2.11106e-06
-1.90435e-06
-1.71164e-06
-1.53233e-06
-1.36583e-06
-1.21153e-06
-1.06883e-06
-9.37081e-07
-8.1571e-07
-7.03901e-07
-6.01537e-07
-5.06861e-07
-4.21952e-07
-3.40465e-07
-2.74258e-07
-1.97032e-07
-1.60249e-07
-6.1722e-08
-9.34685e-08
9.76067e-08
-1.11587e-07
3.42125e-07
-2.82423e-07
7.53066e-07
-6.67182e-07
1.35495e-06
-1.19716e-06
1.95469e-06
-1.51139e-06
2.04459e-06
-1.01385e-06
1.09199e-06
5.77164e-07
-7.33921e-07
2.52434e-06
-2.17806e-06
3.27593e-06
-1.78093e-06
-6.78398e-06
-9.41584e-06
-1.18926e-05
-1.41968e-05
-1.63363e-05
-1.83155e-05
-2.01371e-05
-2.18043e-05
-2.33215e-05
-2.46936e-05
-2.59256e-05
-2.70228e-05
-2.79907e-05
-2.88348e-05
-2.95603e-05
-3.01724e-05
-3.06759e-05
-3.10755e-05
-3.13753e-05
-3.15795e-05
-3.16923e-05
-3.17177e-05
-3.16601e-05
-3.15242e-05
-3.13148e-05
-3.10369e-05
-3.06957e-05
-3.02964e-05
-2.98443e-05
-2.93443e-05
-2.88015e-05
-2.82203e-05
-2.76053e-05
-2.69604e-05
-2.62896e-05
-2.55965e-05
-2.48846e-05
-2.41571e-05
-2.3417e-05
-2.26672e-05
-2.19104e-05
-2.11493e-05
-2.03861e-05
-1.96231e-05
-1.88627e-05
-1.81069e-05
-1.7357e-05
-1.66152e-05
-1.5883e-05
-1.51619e-05
-1.44531e-05
-1.37579e-05
-1.30775e-05
-1.24128e-05
-1.17647e-05
-1.11339e-05
-1.05212e-05
-9.92699e-06
-9.35192e-06
-8.7963e-06
-8.2604e-06
-7.74443e-06
-7.24854e-06
-6.77279e-06
-6.31717e-06
-5.88156e-06
-5.46579e-06
-5.06966e-06
-4.69292e-06
-4.33528e-06
-3.99637e-06
-3.67575e-06
-3.37295e-06
-3.08752e-06
-2.81897e-06
-2.56679e-06
-2.33042e-06
-2.10926e-06
-1.90271e-06
-1.71014e-06
-1.53097e-06
-1.36459e-06
-1.2104e-06
-1.06781e-06
-9.36151e-07
-8.14866e-07
-7.0314e-07
-6.00853e-07
-5.06254e-07
-4.21413e-07
-3.39994e-07
-2.73834e-07
-1.96681e-07
-1.59904e-07
-6.14832e-08
-9.31596e-08
9.77154e-08
-1.11264e-07
3.42074e-07
-2.82036e-07
7.52858e-07
-6.66763e-07
1.35469e-06
-1.19686e-06
1.95461e-06
-1.51145e-06
2.04489e-06
-1.01431e-06
1.09257e-06
5.76595e-07
-7.33405e-07
2.52403e-06
-2.17786e-06
3.27572e-06
-1.78299e-06
-8.43199e-06
-1.09164e-05
-1.32607e-05
-1.54387e-05
-1.74621e-05
-1.93358e-05
-2.1061e-05
-2.26404e-05
-2.40775e-05
-2.53765e-05
-2.65417e-05
-2.7578e-05
-2.84902e-05
-2.92833e-05
-2.99621e-05
-3.05314e-05
-3.09957e-05
-3.13594e-05
-3.16266e-05
-3.18011e-05
-3.1887e-05
-3.18883e-05
-3.18091e-05
-3.16539e-05
-3.14273e-05
-3.11343e-05
-3.07797e-05
-3.03686e-05
-2.99061e-05
-2.93969e-05
-2.88459e-05
-2.82574e-05
-2.76359e-05
-2.69853e-05
-2.63094e-05
-2.56119e-05
-2.4896e-05
-2.4165e-05
-2.34218e-05
-2.26694e-05
-2.19103e-05
-2.11472e-05
-2.03824e-05
-1.96179e-05
-1.88564e-05
-1.80996e-05
-1.73489e-05
-1.66065e-05
-1.58738e-05
-1.51524e-05
-1.44434e-05
-1.37481e-05
-1.30677e-05
-1.2403e-05
-1.1755e-05
-1.11244e-05
-1.05119e-05
-9.91795e-06
-9.34316e-06
-8.78785e-06
-8.25228e-06
-7.73666e-06
-7.24113e-06
-6.76574e-06
-6.31047e-06
-5.87522e-06
-5.4598e-06
-5.06402e-06
-4.68764e-06
-4.33034e-06
-3.99175e-06
-3.67143e-06
-3.36894e-06
-3.0838e-06
-2.81553e-06
-2.56362e-06
-2.3275e-06
-2.10657e-06
-1.90024e-06
-1.70788e-06
-1.52891e-06
-1.36272e-06
-1.20871e-06
-1.06627e-06
-9.34757e-07
-8.13604e-07
-7.02003e-07
-5.99833e-07
-5.05346e-07
-4.20606e-07
-3.39287e-07
-2.73197e-07
-1.96151e-07
-1.59384e-07
-6.11224e-08
-9.26972e-08
9.7881e-08
-1.10782e-07
3.42003e-07
-2.81465e-07
7.52557e-07
-6.66151e-07
1.35432e-06
-1.19645e-06
1.95452e-06
-1.51157e-06
2.04537e-06
-1.01502e-06
1.09347e-06
5.75739e-07
-7.32642e-07
2.52358e-06
-2.17757e-06
3.27541e-06
-1.78595e-06
-1.05956e-05
-1.28877e-05
-1.50562e-05
-1.70687e-05
-1.89405e-05
-2.06761e-05
-2.22753e-05
-2.37396e-05
-2.50718e-05
-2.62749e-05
-2.73526e-05
-2.83089e-05
-2.91479e-05
-2.98739e-05
-3.04913e-05
-3.10044e-05
-3.14172e-05
-3.17339e-05
-3.19581e-05
-3.20936e-05
-3.21442e-05
-3.21137e-05
-3.2006e-05
-3.18254e-05
-3.15763e-05
-3.12633e-05
-3.0891e-05
-3.04643e-05
-2.99879e-05
-2.94665e-05
-2.89046e-05
-2.83065e-05
-2.76764e-05
-2.70182e-05
-2.63356e-05
-2.56321e-05
-2.49109e-05
-2.41753e-05
-2.34281e-05
-2.26721e-05
-2.191e-05
-2.11443e-05
-2.03773e-05
-1.96109e-05
-1.88478e-05
-1.80897e-05
-1.73381e-05
-1.65948e-05
-1.58616e-05
-1.51397e-05
-1.44304e-05
-1.3735e-05
-1.30545e-05
-1.23899e-05
-1.17421e-05
-1.11117e-05
-1.04994e-05
-9.90588e-06
-9.33148e-06
-8.77658e-06
-8.24146e-06
-7.7263e-06
-7.23124e-06
-6.75633e-06
-6.30153e-06
-5.86676e-06
-5.45182e-06
-5.05652e-06
-4.68059e-06
-4.32374e-06
-3.98558e-06
-3.66568e-06
-3.3636e-06
-3.07885e-06
-2.81096e-06
-2.55939e-06
-2.3236e-06
-2.10299e-06
-1.89695e-06
-1.70488e-06
-1.52618e-06
-1.36023e-06
-1.20645e-06
-1.06422e-06
-9.32899e-07
-8.11925e-07
-7.00492e-07
-5.98476e-07
-5.04138e-07
-4.19529e-07
-3.38344e-07
-2.72346e-07
-1.95442e-07
-1.58692e-07
-6.06374e-08
-9.20852e-08
9.81107e-08
-1.10153e-07
3.41932e-07
-2.8074e-07
7.52205e-07
-6.65406e-07
1.35392e-06
-1.19601e-06
1.95453e-06
-1.51187e-06
2.04613e-06
-1.01608e-06
1.09471e-06
5.74602e-07
-7.31689e-07
2.52309e-06
-2.1773e-06
3.27511e-06
-1.78972e-06
-1.32489e-05
-1.53039e-05
-1.72549e-05
-1.90657e-05
-2.0753e-05
-2.23201e-05
-2.37655e-05
-2.50893e-05
-2.62931e-05
-2.7379e-05
-2.83495e-05
-2.92077e-05
-2.9957e-05
-3.06008e-05
-3.11428e-05
-3.15869e-05
-3.19365e-05
-3.21954e-05
-3.2367e-05
-3.24546e-05
-3.24619e-05
-3.23922e-05
-3.22495e-05
-3.20377e-05
-3.17607e-05
-3.1423e-05
-3.10289e-05
-3.05828e-05
-3.00893e-05
-2.95527e-05
-2.89773e-05
-2.83672e-05
-2.77265e-05
-2.70589e-05
-2.63679e-05
-2.56569e-05
-2.49293e-05
-2.41879e-05
-2.34357e-05
-2.26753e-05
-2.19094e-05
-2.11405e-05
-2.03707e-05
-1.96021e-05
-1.8837e-05
-1.80774e-05
-1.73244e-05
-1.65802e-05
-1.58462e-05
-1.51237e-05
-1.44141e-05
-1.37186e-05
-1.3038e-05
-1.23736e-05
-1.17259e-05
-1.10958e-05
-1.04839e-05
-9.8908e-06
-9.31687e-06
-8.7625e-06
-8.22793e-06
-7.71335e-06
-7.21888e-06
-6.74456e-06
-6.29037e-06
-5.85619e-06
-5.44185e-06
-5.04713e-06
-4.67179e-06
-4.3155e-06
-3.97788e-06
-3.6585e-06
-3.35692e-06
-3.07266e-06
-2.80523e-06
-2.55411e-06
-2.31873e-06
-2.09851e-06
-1.89285e-06
-1.70113e-06
-1.52276e-06
-1.35712e-06
-1.20363e-06
-1.06166e-06
-9.30578e-07
-8.09829e-07
-6.98606e-07
-5.96784e-07
-5.02631e-07
-4.18184e-07
-3.37166e-07
-2.71281e-07
-1.94554e-07
-1.57826e-07
-6.00314e-08
-9.13192e-08
9.83963e-08
-1.09364e-07
3.41837e-07
-2.79828e-07
7.51756e-07
-6.64463e-07
1.35341e-06
-1.19544e-06
1.95453e-06
-1.51222e-06
2.04706e-06
-1.01738e-06
1.09625e-06
5.73186e-07
-7.30483e-07
2.52245e-06
-2.17688e-06
3.27464e-06
-1.79392e-06
-1.63544e-05
-1.81325e-05
-1.9827e-05
-2.14041e-05
-2.28775e-05
-2.42487e-05
-2.55149e-05
-2.66748e-05
-2.77287e-05
-2.86775e-05
-2.95225e-05
-3.02658e-05
-3.09098e-05
-3.14572e-05
-3.19108e-05
-3.22738e-05
-3.25493e-05
-3.27403e-05
-3.285e-05
-3.28814e-05
-3.28377e-05
-3.27222e-05
-3.25382e-05
-3.22894e-05
-3.19796e-05
-3.16127e-05
-3.11927e-05
-3.07236e-05
-3.02097e-05
-2.9655e-05
-2.90636e-05
-2.84393e-05
-2.77859e-05
-2.7107e-05
-2.6406e-05
-2.56863e-05
-2.49508e-05
-2.42026e-05
-2.34444e-05
-2.26789e-05
-2.19085e-05
-2.11357e-05
-2.03627e-05
-1.95913e-05
-1.88239e-05
-1.80624e-05
-1.73079e-05
-1.65625e-05
-1.58276e-05
-1.51046e-05
-1.43946e-05
-1.36988e-05
-1.30183e-05
-1.23539e-05
-1.17065e-05
-1.10767e-05
-1.04653e-05
-9.87269e-06
-9.29934e-06
-8.7456e-06
-8.21169e-06
-7.6978e-06
-7.20404e-06
-6.73044e-06
-6.27697e-06
-5.84351e-06
-5.42989e-06
-5.03588e-06
-4.66123e-06
-4.30561e-06
-3.96864e-06
-3.64989e-06
-3.34892e-06
-3.06524e-06
-2.79837e-06
-2.54777e-06
-2.31289e-06
-2.09315e-06
-1.88793e-06
-1.69663e-06
-1.51865e-06
-1.35339e-06
-1.20024e-06
-1.05858e-06
-9.27796e-07
-8.07317e-07
-6.96347e-07
-5.94756e-07
-5.00826e-07
-4.1657e-07
-3.35755e-07
-2.69998e-07
-1.93498e-07
-1.56769e-07
-5.9335e-08
-9.03451e-08
9.86449e-08
-1.08261e-07
3.41479e-07
-2.78365e-07
7.50684e-07
-6.62602e-07
1.35184e-06
-1.19361e-06
1.95321e-06
-1.51128e-06
2.04692e-06
-1.01796e-06
1.09759e-06
5.71405e-07
-7.28319e-07
2.5204e-06
-2.17472e-06
3.2724e-06
-1.79689e-06
-1.99772e-05
-2.14257e-05
-2.2813e-05
-2.4121e-05
-2.5349e-05
-2.64946e-05
-2.75539e-05
-2.85243e-05
-2.94046e-05
-3.01943e-05
-3.08935e-05
-3.15032e-05
-3.20247e-05
-3.24597e-05
-3.28103e-05
-3.30789e-05
-3.32679e-05
-3.33798e-05
-3.34174e-05
-3.33832e-05
-3.328e-05
-3.31108e-05
-3.28786e-05
-3.25866e-05
-3.22381e-05
-3.18368e-05
-3.13862e-05
-3.08901e-05
-3.0352e-05
-2.97759e-05
-2.91655e-05
-2.85242e-05
-2.78558e-05
-2.71636e-05
-2.64508e-05
-2.57206e-05
-2.49759e-05
-2.42196e-05
-2.34544e-05
-2.26827e-05
-2.19071e-05
-2.11297e-05
-2.03528e-05
-1.95781e-05
-1.88081e-05
-1.80443e-05
-1.72881e-05
-1.65414e-05
-1.58054e-05
-1.50816e-05
-1.43712e-05
-1.36752e-05
-1.29946e-05
-1.23304e-05
-1.16832e-05
-1.10539e-05
-1.0443e-05
-9.85104e-06
-9.2784e-06
-8.7254e-06
-8.19229e-06
-7.67923e-06
-7.18632e-06
-6.71358e-06
-6.26097e-06
-5.82837e-06
-5.4156e-06
-5.02244e-06
-4.64862e-06
-4.2938e-06
-3.95761e-06
-3.63961e-06
-3.33936e-06
-3.05638e-06
-2.79017e-06
-2.5402e-06
-2.30592e-06
-2.08674e-06
-1.88206e-06
-1.69126e-06
-1.51376e-06
-1.34893e-06
-1.19619e-06
-1.05491e-06
-9.24475e-07
-8.04319e-07
-6.93651e-07
-5.92337e-07
-4.98673e-07
-4.14641e-07
-3.34075e-07
-2.68458e-07
-1.9225e-07
-1.55479e-07
-5.8556e-08
-8.9087e-08
9.87791e-08
-1.06674e-07
3.40623e-07
-2.75968e-07
7.48459e-07
-6.5908e-07
1.34827e-06
-1.18934e-06
1.94927e-06
-1.5077e-06
2.04447e-06
-1.01692e-06
1.09828e-06
5.69087e-07
-7.24389e-07
2.51563e-06
-2.16917e-06
3.26674e-06
-1.79708e-06
-2.40665e-05
-2.51515e-05
-2.62047e-05
-2.72111e-05
-2.81626e-05
-2.90538e-05
-2.98795e-05
-3.06356e-05
-3.13191e-05
-3.19283e-05
-3.24619e-05
-3.29195e-05
-3.33014e-05
-3.36084e-05
-3.38416e-05
-3.40024e-05
-3.40928e-05
-3.41144e-05
-3.40696e-05
-3.39604e-05
-3.37893e-05
-3.35587e-05
-3.32711e-05
-3.29295e-05
-3.25367e-05
-3.20958e-05
-3.161e-05
-3.10824e-05
-3.05165e-05
-2.99156e-05
-2.9283e-05
-2.86222e-05
-2.79363e-05
-2.72286e-05
-2.65021e-05
-2.57598e-05
-2.50044e-05
-2.42388e-05
-2.34653e-05
-2.26866e-05
-2.19047e-05
-2.11221e-05
-2.03407e-05
-1.95623e-05
-1.87891e-05
-1.80228e-05
-1.72646e-05
-1.65162e-05
-1.57791e-05
-1.50545e-05
-1.43435e-05
-1.36472e-05
-1.29667e-05
-1.23026e-05
-1.16558e-05
-1.10271e-05
-1.04168e-05
-9.82555e-06
-9.25373e-06
-8.70163e-06
-8.16946e-06
-7.65738e-06
-7.16546e-06
-6.69374e-06
-6.24215e-06
-5.81056e-06
-5.3988e-06
-5.00664e-06
-4.63379e-06
-4.27992e-06
-3.94464e-06
-3.62753e-06
-3.32813e-06
-3.04596e-06
-2.78053e-06
-2.53131e-06
-2.29773e-06
-2.07921e-06
-1.87515e-06
-1.68495e-06
-1.508e-06
-1.34369e-06
-1.19143e-06
-1.05059e-06
-9.20572e-07
-8.00797e-07
-6.90485e-07
-5.89496e-07
-4.96142e-07
-4.12378e-07
-3.32092e-07
-2.66661e-07
-1.90754e-07
-1.54015e-07
-5.75453e-08
-8.77707e-08
9.92077e-08
-1.05242e-07
3.40281e-07
-2.74128e-07
7.47215e-07
-6.56772e-07
1.34639e-06
-1.18708e-06
1.94768e-06
-1.50657e-06
2.04439e-06
-1.01779e-06
1.10018e-06
5.66526e-07
-7.21186e-07
2.51245e-06
-2.16558e-06
3.26298e-06
-1.79916e-06
-2.84806e-05
-2.91879e-05
-2.98911e-05
-3.05752e-05
-3.12298e-05
-3.18472e-05
-3.24209e-05
-3.2945e-05
-3.34152e-05
-3.38282e-05
-3.41816e-05
-3.44736e-05
-3.47033e-05
-3.48706e-05
-3.49754e-05
-3.50185e-05
-3.5001e-05
-3.49239e-05
-3.4789e-05
-3.45977e-05
-3.43521e-05
-3.4054e-05
-3.37058e-05
-3.33095e-05
-3.28678e-05
-3.23831e-05
-3.18582e-05
-3.12959e-05
-3.06989e-05
-3.00704e-05
-2.94132e-05
-2.87305e-05
-2.80252e-05
-2.73002e-05
-2.65584e-05
-2.58026e-05
-2.50353e-05
-2.42592e-05
-2.34767e-05
-2.269e-05
-2.19013e-05
-2.11129e-05
-2.03265e-05
-1.95439e-05
-1.87673e-05
-1.79981e-05
-1.72377e-05
-1.64875e-05
-1.57491e-05
-1.50236e-05
-1.43121e-05
-1.36155e-05
-1.2935e-05
-1.22712e-05
-1.16248e-05
-1.09966e-05
-1.03871e-05
-9.79671e-06
-9.22583e-06
-8.67474e-06
-8.14364e-06
-7.63267e-06
-7.14189e-06
-6.67132e-06
-6.22088e-06
-5.79044e-06
-5.37983e-06
-4.98878e-06
-4.61704e-06
-4.26423e-06
-3.92999e-06
-3.61388e-06
-3.31544e-06
-3.03419e-06
-2.76964e-06
-2.52126e-06
-2.28847e-06
-2.0707e-06
-1.86735e-06
-1.67782e-06
-1.50149e-06
-1.33777e-06
-1.18605e-06
-1.04572e-06
-9.16166e-07
-7.96821e-07
-6.86911e-07
-5.8629e-07
-4.93284e-07
-4.09825e-07
-3.29848e-07
-2.64641e-07
-1.89048e-07
-1.5239e-07
-5.63522e-08
-8.63713e-08
9.98333e-08
-1.03845e-07
3.40226e-07
-2.72526e-07
7.46461e-07
-6.55011e-07
1.34531e-06
-1.18573e-06
1.94718e-06
-1.50658e-06
2.04541e-06
-1.01962e-06
1.10276e-06
5.63637e-07
-7.17996e-07
2.50961e-06
-2.16237e-06
3.25954e-06
-1.80137e-06
-3.31762e-05
-3.34926e-05
-3.3831e-05
-3.41765e-05
-3.4518e-05
-3.48459e-05
-3.51523e-05
-3.54298e-05
-3.56727e-05
-3.58763e-05
-3.60369e-05
-3.61515e-05
-3.62181e-05
-3.62353e-05
-3.62023e-05
-3.61189e-05
-3.59853e-05
-3.58021e-05
-3.55701e-05
-3.52904e-05
-3.49644e-05
-3.45936e-05
-3.41795e-05
-3.37241e-05
-3.32292e-05
-3.26969e-05
-3.21294e-05
-3.15289e-05
-3.0898e-05
-3.02392e-05
-2.95551e-05
-2.88484e-05
-2.81217e-05
-2.73778e-05
-2.66192e-05
-2.58485e-05
-2.50683e-05
-2.42807e-05
-2.34882e-05
-2.26928e-05
-2.18967e-05
-2.11018e-05
-2.031e-05
-1.95228e-05
-1.87424e-05
-1.79702e-05
-1.72073e-05
-1.64553e-05
-1.57154e-05
-1.49889e-05
-1.42768e-05
-1.35801e-05
-1.28995e-05
-1.2236e-05
-1.15902e-05
-1.09626e-05
-1.03539e-05
-9.76451e-06
-9.19469e-06
-8.64474e-06
-8.11483e-06
-7.6051e-06
-7.1156e-06
-6.64631e-06
-6.19716e-06
-5.76802e-06
-5.35867e-06
-4.96889e-06
-4.59836e-06
-4.24675e-06
-3.91367e-06
-3.59867e-06
-3.3013e-06
-3.02108e-06
-2.75752e-06
-2.51006e-06
-2.27816e-06
-2.06123e-06
-1.85867e-06
-1.66987e-06
-1.49425e-06
-1.33117e-06
-1.18006e-06
-1.04029e-06
-9.11257e-07
-7.92394e-07
-6.82931e-07
-5.8272e-07
-4.901e-07
-4.06982e-07
-3.27347e-07
-2.62393e-07
-1.87142e-07
-1.50589e-07
-5.50085e-08
-8.48342e-08
1.00561e-07
-1.02329e-07
3.40213e-07
-2.70791e-07
7.45658e-07
-6.5306e-07
1.34406e-06
-1.18412e-06
1.94643e-06
-1.50634e-06
2.04628e-06
-1.02142e-06
1.10553e-06
5.60333e-07
-7.14094e-07
2.50583e-06
-2.1579e-06
3.25476e-06
-1.80194e-06
-3.81111e-05
-3.80232e-05
-3.7984e-05
-3.79787e-05
-3.79945e-05
-3.80206e-05
-3.80474e-05
-3.80665e-05
-3.80707e-05
-3.8054e-05
-3.80113e-05
-3.79387e-05
-3.78328e-05
-3.76912e-05
-3.75122e-05
-3.72947e-05
-3.7038e-05
-3.67421e-05
-3.6407e-05
-3.60333e-05
-3.56218e-05
-3.51733e-05
-3.46891e-05
-3.41703e-05
-3.36184e-05
-3.30349e-05
-3.24215e-05
-3.178e-05
-3.11124e-05
-3.04209e-05
-2.97075e-05
-2.89748e-05
-2.8225e-05
-2.74606e-05
-2.66838e-05
-2.58971e-05
-2.51027e-05
-2.43027e-05
-2.34994e-05
-2.26946e-05
-2.18904e-05
-2.10886e-05