/*--------------------------------*- C++ -*----------------------------------*\
| =========                 |                                                 |
| \\      /  F ield         | OpenFOAM: The Open Source CFD Toolbox           |
|  \\    /   O peration     | Version:  2412                                  |
|   \\  /    A nd           | Website:  www.openfoam.com                      |
|    \\/     M anipulation  |                                                 |
\*---------------------------------------------------------------------------*/
FoamFile
{
    version     2.0;
    format      ascii;
    arch        "LSB;label=32;scalar=64";
    class       surfaceScalarField;
    location    "12";
    object      phi;
}
// * * * * * * * * * * * * * * * * * * * * * * * * * * * * * * * * * * * * * //

dimensions      [0 3 -1 0 0 0 0];

oriented        oriented;

internalField   nonuniform List<scalar> 
126304
(
0.00505063
1.30327e-07
8.63022e-12
0.00505027
3.53347e-07
1.02154e-10
0.00504968
5.97465e-07
1.5202e-10
0.00504863
1.04508e-06
-9.97125e-11
0.0050468
1.82735e-06
-8.29636e-10
0.00504394
2.86297e-06
-1.90236e-09
0.00504006
3.88502e-06
-2.89671e-09
0.00503545
4.61151e-06
-3.35794e-09
0.00503056
4.89816e-06
-3.04695e-09
0.00502578
4.77636e-06
-2.01914e-09
0.00502139
4.39249e-06
-5.37823e-10
0.00501747
3.91797e-06
1.07474e-09
0.00501399
3.48476e-06
2.55585e-09
0.00501082
3.1629e-06
3.75403e-09
0.00500785
2.96879e-06
4.62406e-09
0.00500495
2.88616e-06
5.19339e-09
0.00500206
2.88585e-06
5.5246e-09
0.00499912
2.93883e-06
5.68715e-09
0.00499609
3.02232e-06
5.74129e-09
0.00499296
3.12103e-06
5.73208e-09
0.00498973
3.22605e-06
5.68949e-09
0.00498639
3.33295e-06
5.63107e-09
0.00498295
3.44011e-06
5.56541e-09
0.00497939
3.54738e-06
5.49558e-09
0.00497573
3.65529e-06
5.42202e-09
0.00497196
3.7646e-06
5.34429e-09
0.00496808
3.87603e-06
5.26163e-09
0.00496409
3.99022e-06
5.1732e-09
0.00495997
4.10764e-06
5.07824e-09
0.00495574
4.22867e-06
4.97641e-09
0.00495138
4.35359e-06
4.86788e-09
0.00494689
4.48259e-06
4.75305e-09
0.00494227
4.61581e-06
4.63213e-09
0.00493752
4.75335e-06
4.50494e-09
0.00493262
4.8953e-06
4.37128e-09
0.00492757
5.04172e-06
4.23126e-09
0.00492237
5.19265e-06
4.0853e-09
0.00491702
5.34814e-06
3.93385e-09
0.00491151
5.50824e-06
3.77716e-09
0.00490583
5.67299e-06
3.61548e-09
0.00489999
5.84243e-06
3.44933e-09
0.00489397
6.01661e-06
3.27957e-09
0.00488777
6.19559e-06
3.10705e-09
0.00488139
6.37943e-06
2.93225e-09
0.00487482
6.5682e-06
2.75536e-09
0.00486805
6.76197e-06
2.57659e-09
0.00486109
6.96083e-06
2.39648e-09
0.00485392
7.16489e-06
2.21574e-09
0.00484654
7.37427e-06
2.03487e-09
0.00483895
7.58911e-06
1.85416e-09
0.00483114
7.80964e-06
1.67379e-09
0.0048231
8.03621e-06
1.49416e-09
0.00481483
8.26964e-06
1.31585e-09
0.00480632
8.51218e-06
1.1394e-09
8.77009e-06
0.00479755
9.64962e-10
0.00505063
2.60575e-07
0.00505027
7.07006e-07
0.00504968
1.19454e-06
0.00504864
2.08486e-06
0.00504682
3.63949e-06
0.00504399
5.69914e-06
0.00504014
7.73531e-06
0.00503556
9.18775e-06
0.00503069
9.76812e-06
0.00502593
9.53644e-06
0.00502154
8.7817e-06
0.00501762
7.84365e-06
0.00501412
6.98469e-06
0.00501093
6.34469e-06
0.00500795
5.95722e-06
0.00500504
5.79072e-06
0.00500214
5.78782e-06
0.00499919
5.89117e-06
0.00499615
6.05564e-06
0.00499302
6.25085e-06
0.00498979
6.45904e-06
0.00498645
6.67135e-06
0.00498301
6.88447e-06
0.00497946
7.09803e-06
0.0049758
7.31305e-06
0.00497203
7.53098e-06
0.00496816
7.75323e-06
0.00496417
7.98104e-06
0.00496006
8.21535e-06
0.00495583
8.45689e-06
0.00495148
8.7062e-06
0.004947
8.96365e-06
0.00494238
9.22953e-06
0.00493763
9.50404e-06
0.00493274
9.78734e-06
0.0049277
1.00795e-05
0.00492251
1.03807e-05
0.00491717
1.0691e-05
0.00491167
1.10104e-05
0.004906
1.13391e-05
0.00490017
1.16772e-05
0.00489416
1.20247e-05
0.00488797
1.23817e-05
0.0048816
1.27484e-05
0.00487505
1.31248e-05
0.0048683
1.35113e-05
0.00486135
1.39078e-05
0.0048542
1.43147e-05
0.00484684
1.47321e-05
0.00483927
1.51603e-05
0.00483148
1.55998e-05
0.00482347
1.60512e-05
0.00481522
1.65162e-05
0.00480673
1.69989e-05
1.75113e-05
0.00479799
0.00505063
3.90644e-07
0.00505027
1.06106e-06
0.00504968
1.79054e-06
0.00504865
3.1145e-06
0.00504686
5.4236e-06
0.00504408
8.48675e-06
0.00504029
1.15234e-05
0.00503577
1.37016e-05
0.00503095
1.45888e-05
0.00502622
1.42685e-05
0.00502184
1.31653e-05
0.0050179
1.17821e-05
0.00501437
1.0509e-05
0.00501116
9.55589e-06
0.00500815
8.97482e-06
0.00500522
8.72095e-06
0.00500229
8.71038e-06
0.00499933
8.85871e-06
0.00499628
9.09913e-06
0.00499315
9.38653e-06
0.00498991
9.69436e-06
0.00498657
1.00093e-05
0.00498313
1.03261e-05
0.00497959
1.06442e-05
0.00497593
1.09649e-05
0.00497217
1.12902e-05
0.00496831
1.16222e-05
0.00496432
1.19627e-05
0.00496023
1.23131e-05
0.00495601
1.26743e-05
0.00495167
1.30471e-05
0.0049472
1.34322e-05
0.0049426
1.38299e-05
0.00493786
1.42404e-05
0.00493299
1.46641e-05
0.00492796
1.51011e-05
0.00492279
1.55515e-05
0.00491747
1.60155e-05
0.00491199
1.64931e-05
0.00490634
1.69845e-05
0.00490053
1.74898e-05
0.00489454
1.80091e-05
0.00488838
1.85426e-05
0.00488204
1.90905e-05
0.00487551
1.9653e-05
0.00486879
2.02302e-05
0.00486188
2.08224e-05
0.00485476
2.14299e-05
0.00484744
2.2053e-05
0.00483991
2.26921e-05
0.00483216
2.33478e-05
0.00482419
2.40211e-05
0.004816
2.47141e-05
0.00480756
2.54327e-05
2.61937e-05
0.00479888
0.00505063
5.20448e-07
0.00505027
1.41564e-06
0.00504968
2.38497e-06
0.00504866
4.12956e-06
0.00504692
7.16742e-06
0.0050442
1.12045e-05
0.0050405
1.52221e-05
0.00503608
1.81255e-05
0.00503133
1.93383e-05
0.00502664
1.89597e-05
0.00502226
1.75403e-05
0.00501831
1.57383e-05
0.00501475
1.4068e-05
0.0050115
1.2809e-05
0.00500844
1.20341e-05
0.00500547
1.16879e-05
0.00500252
1.16624e-05
0.00499953
1.18479e-05
0.00499647
1.2157e-05
0.00499333
1.25304e-05
0.00499009
1.29327e-05
0.00498675
1.33461e-05
0.00498331
1.37634e-05
0.00497977
1.41834e-05
0.00497613
1.46077e-05
0.00497238
1.50387e-05
0.00496853
1.54789e-05
0.00496456
1.59307e-05
0.00496048
1.63958e-05
0.00495627
1.68754e-05
0.00495195
1.73705e-05
0.0049475
1.7882e-05
0.00494292
1.84101e-05
0.00493821
1.89554e-05
0.00493335
1.95181e-05
0.00492835
2.00984e-05
0.00492321
2.06964e-05
0.00491791
2.13124e-05
0.00491246
2.19464e-05
0.00490685
2.25986e-05
0.00490107
2.32692e-05
0.00489512
2.39583e-05
0.00488899
2.4666e-05
0.00488269
2.53927e-05
0.00487621
2.61385e-05
0.00486953
2.69037e-05
0.00486267
2.76886e-05
0.0048556
2.84936e-05
0.00484834
2.93189e-05
0.00484086
3.01652e-05
0.00483318
3.1033e-05
0.00482528
3.19236e-05
0.00481715
3.28395e-05
0.00480879
3.37877e-05
3.47879e-05
0.0048002
0.00505063
6.499e-07
0.00505027
1.7708e-06
0.00504968
2.97734e-06
0.00504868
5.12628e-06
0.00504699
8.86066e-06
0.00504436
1.38345e-05
0.00504077
1.8808e-05
0.00503646
2.24358e-05
0.0050318
2.39974e-05
0.00502717
2.35986e-05
0.0050228
2.19036e-05
0.00501883
1.9716e-05
0.00501522
1.76699e-05
0.00501192
1.61142e-05
0.00500881
1.51453e-05
0.00500579
1.47005e-05
0.00500281
1.4651e-05
0.00499979
1.48639e-05
0.00499671
1.52326e-05
0.00499356
1.56841e-05
0.00499032
1.61745e-05
0.00498698
1.66811e-05
0.00498355
1.71948e-05
0.00498002
1.77133e-05
0.00497639
1.82384e-05
0.00497266
1.87727e-05
0.00496882
1.93192e-05
0.00496487
1.98805e-05
0.0049608
2.04585e-05
0.00495663
2.10549e-05
0.00495233
2.16707e-05
0.0049479
2.23068e-05
0.00494335
2.29638e-05
0.00493866
2.3642e-05
0.00493384
2.43418e-05
0.00492887
2.50635e-05
0.00492376
2.58071e-05
0.0049185
2.65728e-05
0.00491309
2.73609e-05
0.00490751
2.81715e-05
0.00490178
2.90046e-05
0.00489587
2.98606e-05
0.0048898
3.07397e-05
0.00488355
3.16419e-05
0.00487712
3.25677e-05
0.00487051
3.35173e-05
0.00486371
3.44909e-05
0.00485671
3.54891e-05
0.00484952
3.65122e-05
0.00484212
3.75607e-05
0.00483452
3.86353e-05
0.00482671
3.97374e-05
0.00481868
4.08695e-05
0.00481043
4.20387e-05
4.32657e-05
0.00480195
0.00505063
7.78918e-07
0.00505027
2.12652e-06
0.00504968
3.56722e-06
0.00504871
6.10176e-06
0.00504707
1.04954e-05
0.00504454
1.63629e-05
0.00504109
2.22632e-05
0.00503691
2.6614e-05
0.00503236
2.85508e-05
0.00502778
2.81754e-05
0.00502343
2.62515e-05
0.00501943
2.3717e-05
0.00501578
2.13199e-05
0.00501242
1.94787e-05
0.00500925
1.83157e-05
0.00500618
1.77653e-05
0.00500315
1.76813e-05
0.0050001
1.79104e-05
0.00499701
1.83281e-05
0.00499384
1.88484e-05
0.0049906
1.94192e-05
0.00498727
2.0013e-05
0.00498385
2.0618e-05
0.00498033
2.12311e-05
0.00497671
2.18537e-05
0.004973
2.24886e-05
0.00496918
2.31389e-05
0.00496525
2.38074e-05
0.00496121
2.44964e-05
0.00495706
2.52075e-05
0.00495279
2.59419e-05
0.00494839
2.67007e-05
0.00494387
2.74843e-05
0.00493922
2.82933e-05
0.00493444
2.91279e-05
0.00492951
2.99885e-05
0.00492444
3.08751e-05
0.00491923
3.17879e-05
0.00491386
3.27272e-05
0.00490834
3.3693e-05
0.00490266
3.46855e-05
0.00489681
3.5705e-05
0.0048908
3.67516e-05
0.00488462
3.78255e-05
0.00487826
3.8927e-05
0.00487172
4.00564e-05
0.004865
4.1214e-05
0.00485809
4.24003e-05
0.00485098
4.36156e-05
0.00484368
4.48604e-05
0.00483618
4.61354e-05
0.00482848
4.74418e-05
0.00482057
4.87819e-05
0.00481244
5.0162e-05
5.16006e-05
0.00480411
0.00505063
9.07373e-07
0.00505027
2.48271e-06
0.00504969
4.1542e-06
0.00504873
7.05406e-06
0.00504716
1.20666e-05
0.00504474
1.87806e-05
0.00504143
2.55756e-05
0.0050374
3.0647e-05
0.00503296
3.29872e-05
0.00502846
3.26825e-05
0.00502413
3.05805e-05
0.0050201
2.77413e-05
0.0050164
2.50206e-05
0.00501297
2.29061e-05
0.00500974
2.15495e-05
0.00500662
2.08861e-05
0.00500354
2.07563e-05
0.00500047
2.09891e-05
0.00499735
2.14441e-05
0.00499418
2.20232e-05
0.00499093
2.26659e-05
0.0049876
2.33399e-05
0.00498419
2.40307e-05
0.00498069
2.4734e-05
0.00497709
2.54504e-05
0.0049734
2.61826e-05
0.0049696
2.69339e-05
0.0049657
2.77071e-05
0.00496169
2.85045e-05
0.00495757
2.93279e-05
0.00495334
3.01786e-05
0.00494898
3.10576e-05
0.0049445
3.19654e-05
0.00493989
3.29025e-05
0.00493515
3.38692e-05
0.00493027
3.48657e-05
0.00492525
3.58923e-05
0.00492009
3.6949e-05
0.00491478
3.80361e-05
0.00490932
3.91535e-05
0.00490371
4.03016e-05
0.00489793
4.14803e-05
0.00489199
4.26901e-05
0.00488589
4.3931e-05
0.00487961
4.52033e-05
0.00487316
4.65073e-05
0.00486653
4.78432e-05
0.00485972
4.92115e-05
0.00485272
5.06126e-05
0.00484554
5.20468e-05
0.00483816
5.35148e-05
0.00483058
5.50173e-05
0.00482281
5.65562e-05
0.00481483
5.81353e-05
0.00480667
5.97652e-05
0.00479883
-1.2794e-06
7.95886e-10
0.0047996
-7.68603e-07
6.34447e-10
0.00479982
-2.22241e-07
4.64566e-10
0.00479946
3.61334e-07
2.84373e-10
0.00479847
9.84598e-07
1.02387e-10
0.00479682
1.65327e-06
-8.36532e-11
0.00479445
2.36939e-06
-2.7158e-10
0.00479131
3.13635e-06
-4.58739e-10
0.00478736
3.95762e-06
-6.42518e-10
0.00478252
4.83683e-06
-8.20436e-10
0.00477674
5.77787e-06
-9.90265e-10
0.00476996
6.78505e-06
-1.14989e-09
0.0047621
7.86338e-06
-1.29743e-09
0.00475308
9.01891e-06
-1.43146e-09
0.00474282
1.02592e-05
-1.54846e-09
0.00473123
1.15936e-05
-1.64924e-09
0.0047182
1.3034e-05
-1.72131e-09
0.0047036
1.45951e-05
-1.76353e-09
0.00468731
1.6295e-05
-1.79125e-09
0.00466916
1.8155e-05
-1.80337e-09
0.00464896
2.02009e-05
-1.80267e-09
0.0046265
2.24622e-05
-1.789e-09
0.00460153
2.49732e-05
-1.75989e-09
0.00457376
2.77727e-05
-1.71752e-09
0.00454285
3.09054e-05
-1.66515e-09
0.00450843
3.44219e-05
-1.60583e-09
0.00447005
3.83808e-05
-1.54188e-09
0.0044272
4.28499e-05
-1.47519e-09
0.0043793
4.7909e-05
-1.40718e-09
0.00432564
5.36534e-05
-1.33854e-09
0.00426545
6.01975e-05
-1.26886e-09
0.00419777
6.7681e-05
-1.19687e-09
0.00412149
7.6275e-05
-1.12177e-09
0.0040353
8.6191e-05
-1.04348e-09
0.00393762
9.76897e-05
-9.61678e-10
0.00382653
0.000111092
-8.76412e-10
0.00369974
0.000126787
-7.89625e-10
0.00355451
0.000145234
-7.04611e-10
0.00338756
0.000166951
-6.25136e-10
0.00319508
0.000192474
-5.56348e-10
0.00297283
0.000222257
-5.04028e-10
0.00271633
0.000256492
-4.73638e-10
0.00242155
0.000294786
-4.69788e-10
0.0020859
0.000335647
-4.94587e-10
0.0017102
0.000375706
-5.47244e-10
0.00130158
0.000408617
-6.20418e-10
0.000877935
0.000423646
-6.95444e-10
0.000474013
0.000403923
-7.38368e-10
0.000150249
0.000323765
-6.83568e-10
0.000150249
-3.95462e-10
0.0047979
-1.18976e-06
0.0047973
-1.66892e-07
0.00479616
9.19417e-07
0.00479444
2.08374e-06
0.00479209
3.32993e-06
0.00478908
4.66453e-06
0.00478536
6.094e-06
0.00478087
7.62507e-06
0.00477556
9.26476e-06
0.00476938
1.10204e-05
0.00476226
1.28999e-05
0.00475413
1.49119e-05
0.00474493
1.70665e-05
0.00473457
1.9376e-05
0.00472297
2.18555e-05
0.00471004
2.45241e-05
0.00469567
2.74056e-05
0.00467974
3.05295e-05
0.0046621
3.39319e-05
0.0046426
3.76559e-05
0.00462105
4.17527e-05
0.00459723
4.62814e-05
0.00457089
5.13106e-05
0.00454174
5.6918e-05
0.00450946
6.31925e-05
0.00447364
7.02357e-05
0.00443386
7.81642e-05
0.0043896
8.71136e-05
0.00434026
9.72436e-05
0.00428517
0.000108744
0.00422353
0.000121842
0.00415439
0.000136818
0.00407665
0.00015401
0.00398901
0.000173839
0.00388988
0.000196821
0.00377738
0.000223589
0.00364926
0.00025491
0.0035028
0.000291685
0.00333483
0.000334925
0.00314164
0.000385664
0.00291913
0.000444763
0.00266308
0.000512543
0.00236972
0.000588151
0.00203682
0.00066854
0.00166558
0.00074695
0.00126345
0.000810748
0.000848475
0.00083862
0.000455073
0.000797325
0.000141505
0.000637333
0.000291754
0.00479607
1.62205e-06
0.00479275
3.14597e-06
0.0047889
4.77318e-06
0.00478447
6.51399e-06
0.00477942
8.37738e-06
0.00477371
1.03728e-05
0.0047673
1.25102e-05
0.00476012
1.47999e-05
0.00475214
1.72526e-05
0.00474328
1.98793e-05
0.00473348
2.2692e-05
0.00472269
2.57041e-05
0.00471083
2.89309e-05
0.00469781
3.23911e-05
0.00468356
3.61077e-05
0.00466798
4.01096e-05
0.00465095
4.44329e-05
0.00463236
4.91221e-05
0.00461206
5.42315e-05
0.00458989
5.98261e-05
0.00456566
6.59824e-05
0.00453915
7.27896e-05
0.00451011
8.03498e-05
0.00447825
8.878e-05
0.00444323
9.82131e-05
0.00440466
0.000108801
0.00436211
0.000120719
0.00431505
0.000134169
0.0042629
0.000149391
0.00420498
0.000166667
0.00414048
0.00018634
0.00406848
0.000208821
0.00398787
0.000234618
0.00389736
0.00026435
0.0037954
0.00029878
0.00368015
0.000338838
0.00354942
0.000385641
0.00340061
0.000440495
0.00323068
0.000504852
0.00303618
0.000580166
0.00281334
0.000667607
0.00255838
0.000767503
0.00226813
0.000878403
0.00194107
0.000995595
0.00157911
0.00110891
0.00119021
0.00119964
0.000792498
0.00123633
0.000419926
0.0011699
0.000128092
0.000929167
0.000419846
0.00479335
8.46875e-06
0.00478601
1.04897e-05
0.00477813
1.26492e-05
0.00476969
1.49589e-05
0.00476064
1.74313e-05
0.00475093
2.00792e-05
0.00474052
2.2916e-05
0.00472937
2.59556e-05
0.00471741
2.92125e-05
0.00470458
3.27017e-05
0.00469084
3.64395e-05
0.0046761
4.04438e-05
0.00466029
4.47357e-05
0.00464334
4.93406e-05
0.00462516
5.42897e-05
0.00460565
5.96221e-05
0.0045847
6.53864e-05
0.00456218
7.16425e-05
0.00453794
7.84632e-05
0.00451183
8.59353e-05
0.00448366
9.41612e-05
0.00445319
0.00010326
0.00442017
0.000113367
0.00438431
0.000124638
0.00434527
0.00013725
0.00430267
0.000151405
0.00425605
0.000167337
0.00420491
0.000185313
0.00414865
0.000205653
0.00408658
0.000228731
0.00401792
0.000254998
0.00394175
0.000285001
0.00385696
0.000319404
0.00376229
0.000359018
0.00365624
0.000404834
0.00353702
0.000458053
0.00340256
0.000520105
0.00325041
0.000592643
0.00307779
0.000677471
0.00288161
0.000776348
0.00265862
0.000890596
0.00240577
0.00102036
0.00212078
0.00116339
0.00180321
0.00131317
0.00145597
0.00145616
0.00108762
0.001568
0.000715841
0.00160811
0.000372728
0.00151301
0.000108991
0.0011929
0.000528837
0.0047898
2.06158e-05
0.00477717
2.3124e-05
0.00476401
2.58043e-05
0.0047503
2.86714e-05
0.00473599
3.17409e-05
0.00472104
3.50292e-05
0.0047054
3.85532e-05
0.00468903
4.23305e-05
0.00467186
4.63793e-05
0.00465384
5.07186e-05
0.00463491
5.53692e-05
0.004615
6.03542e-05
0.00459404
6.57004e-05
0.00457194
7.14402e-05
0.00454862
7.76136e-05
0.00452397
8.42702e-05
0.00449788
9.14715e-05
0.00447023
9.92933e-05
0.00444087
0.000107827
0.00440962
0.000117182
0.0043763
0.000127485
0.00434067
0.000138886
0.00430248
0.000151555
0.00426144
0.000165684
0.00421719
0.000181496
0.00416935
0.000199241
0.00411748
0.000219211
0.00406105
0.00024174
0.00399948
0.000267222
0.00393209
0.000296125
0.00385808
0.000329007
0.00377654
0.000366539
0.00368641
0.000409537
0.00358644
0.000458989
0.00347518
0.00051609
0.00335096
0.000582274
0.00321184
0.000659227
0.00305562
0.000748865
0.00287987
0.00085322
0.00268203
0.000974189
0.00245961
0.00111302
0.00221056
0.0012694
0.00193391
0.00144004
0.00163067
0.00161641
0.00130508
0.00178175
0.000966286
0.00190679
0.000630689
0.0019437
0.000325352
0.00181835
9.01826e-05
0.00142807
0.000619019
0.00478547
3.92583e-05
0.00476635
4.22372e-05
0.00474673
4.54222e-05
0.00472658
4.88307e-05
0.00470583
5.24816e-05
0.00468447
5.63945e-05
0.00466243
6.05897e-05
0.00463968
6.50885e-05
0.00461614
6.99128e-05
0.00459177
7.5086e-05
0.00456651
8.06332e-05
0.00454028
8.65828e-05
0.00451301
9.2968e-05
0.00448463
9.98284e-05
0.00445503
0.000107213
0.00442411
0.000115183
0.00439177
0.000123813
0.00435787
0.000133194
0.00432226
0.000143439
0.00428476
0.000154677
0.00424519
0.000167063
0.0042033
0.000180776
0.00415883
0.000196018
0.00411149
0.000213023
0.00406094
0.000232054
0.00400677
0.000253412
0.00394853
0.000277445
0.00388572
0.000304554
0.00381773
0.000335209
0.00374389
0.000369965
0.00366341
0.000409485
0.00357539
0.00045456
0.00347878
0.000506145
0.00337239
0.000565383
0.00325483
0.000633644
0.00312457
0.000712541
0.00297986
0.000803932
0.00281886
0.000909864
0.00263967
0.00103241
0.00244052
0.00117334
0.00222005
0.00133348
0.00197779
0.00151166
0.00171473
0.0017031
0.00143413
0.00189702
0.00114225
0.00207363
0.00084913
0.0021999
0.000568859
0.00222397
0.00031819
0.00206902
0.00010998
0.00163628
0.000728999
0.00478043
6.54976e-05
0.00475374
6.89233e-05
0.00472657
7.25914e-05
0.00469888
7.65204e-05
0.00467063
8.07319e-05
0.00464178
8.52484e-05
0.00461228
9.00935e-05
0.00458207
9.52918e-05
0.00455112
0.000100869
0.00451935
0.000106853
0.00448671
0.000113273
0.00445313
0.000120163
0.00441853
0.000127563
0.00438284
0.00013552
0.00434596
0.000144093
0.00430779
0.000153353
0.00426822
0.00016339
0.0042271
0.000174312
0.00418429
0.000186249
0.00413961
0.000199356
0.00409286
0.000213813
0.00404381
0.000229828
0.00399219
0.000247637
0.0039377
0.000267512
0.00387999
0.00028976
0.00381867
0.00031473
0.00375329
0.000342826
0.00368333
0.000374515
0.0036082
0.00041034
0.00352722
0.000450945
0.00343961
0.000497092
0.00334449
0.000549688
0.00324082
0.000609815
0.00312744
0.000678755
0.00300307
0.000758019
0.00286626
0.000849347
0.00271552
0.000954679
0.00254933
0.00107605
0.00236639
0.00121535
0.00216585
0.00137388
0.00194775
0.00155159
0.00171359
0.00174582
0.00146708
0.00194961
0.00121485
0.00214925
0.000967012
0.00232147
0.000736751
0.00243016
0.00053765
0.00242308
0.000374464
0.0022322
0.000226845
0.0017839
0.000955844
-2.98031e-05
2.98013e-05
1.81493e-09
-7.72256e-05
4.74179e-05
4.5918e-09
-0.000117222
3.99893e-05
6.54869e-09
-0.000135602
1.8373e-05
7.71673e-09
-0.000125383
-1.02269e-05
8.16343e-09
-8.42747e-05
-4.1117e-05
8.25252e-09
-1.21858e-05
-7.20969e-05
8.00381e-09
8.89824e-05
-0.000101176
7.59932e-09
0.000216345
-0.00012737
7.00236e-09
0.000366411
-0.000150072
6.33243e-09
0.000535407
-0.000169001
5.60716e-09
0.000719503
-0.000184101
4.83134e-09
0.000914971
-0.000195472
4.00871e-09
0.00111829
-0.000203319
3.14183e-09
0.0013262
-0.00020792
2.23777e-09
0.0015358
-0.000209595
1.30745e-09
0.00174449
-0.000208692
3.68084e-10
0.00195005
-0.000205563
-5.42777e-10
0.00215061
-0.000200558
-1.38069e-09
0.00234463
-0.000194011
-2.0857e-09
0.00253087
-0.000186238
-2.46655e-09
0.0027084
-0.000177531
-2.5773e-09
0.00287656
-0.000168154
-2.04375e-09
0.0030349
-0.000158341
-7.72312e-10
0.0031832
-0.000148298
8.54306e-10
0.0033214
-0.000138203
2.64068e-09
0.0034496
-0.000128206
4.11479e-09
0.00356803
-0.000118432
5.05412e-09
0.003677
-0.00010898
5.47028e-09
0.00377692
-9.99289e-05
5.41686e-09
0.00386825
-9.13366e-05
5.00117e-09
0.00395149
-8.32423e-05
4.3548e-09
0.00402716
-7.56696e-05
3.60529e-09
0.00409578
-6.86282e-05
2.85851e-09
0.0041579
-6.21166e-05
2.19245e-09
0.00421402
-5.61235e-05
1.65659e-09
0.00426465
-5.06304e-05
1.2745e-09
0.00431026
-4.56133e-05
1.05132e-09
0.0043513
-4.10441e-05
9.77849e-10
0.0043882
-3.68923e-05
1.03595e-09
0.00442132
-3.31262e-05
1.2028e-09
0.00445103
-2.97136e-05
1.45338e-09
0.00447765
-2.66234e-05
1.76362e-09
0.00450148
-2.38254e-05
2.11129e-09
0.00452277
-2.12911e-05
2.47647e-09
0.00454176
-1.89943e-05
2.84326e-09
0.00455867
-1.69106e-05
3.19951e-09
0.00457368
-1.50177e-05
3.5354e-09
0.00458697
-1.32956e-05
3.84416e-09
-1.17258e-05
0.00459869
4.12204e-09
-2.61273e-05
5.59286e-05
-6.61785e-05
8.74691e-05
-9.82526e-05
7.20634e-05
-0.000109622
2.97424e-05
-9.419e-05
-2.5659e-05
-4.95809e-05
-8.57261e-05
2.42789e-05
-0.000145957
0.00012565
-0.000202546
0.000251924
-0.000253644
0.00039988
-0.000298028
0.000565996
-0.000335118
0.000746673
-0.000364778
0.000938379
-0.000387178
0.00113776
-0.000402697
0.0013417
-0.000411861
0.00154739
-0.000415284
0.00175233
-0.000413634
0.00195436
-0.000407596
0.00215165
-0.000397849
0.00234269
-0.000385049
0.00252627
-0.000369815
0.00270145
-0.000352718
0.00286758
-0.000334279
0.0030242
-0.000314961
0.00317107
-0.000295172
0.00330813
-0.000275263
0.00343546
-0.000255532
0.00355325
-0.000236228
0.00366182
-0.00021755
0.00376155
-0.000199655
0.00385287
-0.000182657
0.00393626
-0.000166637
0.00401224
-0.000151641
0.0040813
-0.000137692
0.00414397
-0.000124786
0.00420075
-0.000112902
0.00425212
-0.000102006
0.00429856
-9.20495e-05
0.00434049
-8.29785e-05
0.00437833
-7.47331e-05
0.00441246
-6.72509e-05
0.00444321
-6.04691e-05
0.00447092
-5.4326e-05
0.00449585
-4.87622e-05
0.00451828
-4.37217e-05
0.00453844
-3.91523e-05
0.00455654
-3.5006e-05
0.00457276
-3.12388e-05
0.00458727
-2.78106e-05
-2.46844e-05
0.00460023
-1.92045e-05
7.51331e-05
-4.4836e-05
0.000113101
-6.22499e-05
8.94774e-05
-6.02454e-05
2.77379e-05
-3.50426e-05
-5.08618e-05
1.57538e-05
-0.000136523
9.2182e-05
-0.000222385
0.000193341
-0.000303706
0.000317026
-0.000377329
0.000460504
-0.000441506
0.000620748
-0.000495362
0.0007946
-0.00053863
0.000978909
-0.000571487
0.00117063
-0.000594422
0.00136692
-0.000608148
0.00156516
-0.000613519
0.001763
-0.000611474
0.00195839
-0.000602988
0.00214958
-0.000589038
0.0023351
-0.000570571
0.00251377
-0.000548484
0.00268467
-0.000523615
0.00284711
-0.000496722
0.00300064
-0.00046849
0.00314499
-0.000439519
0.00328005
-0.000410329
0.00340588
-0.000381362
0.00352264
-0.00035299
0.0036306
-0.000325509
0.0037301
-0.000299154
0.00382154
-0.000274099
0.00390537
-0.000250464
0.00398206
-0.000228325
0.00405208
-0.000207714
0.00411592
-0.000188631
0.00417407
-0.000171048
0.00422698
-0.000154915
0.0042751
-0.000140165
0.00431884
-0.000126719
0.00435859
-0.000114489
0.00439473
-0.000103386
0.00442758
-9.33175e-05
0.00445744
-8.41928e-05
0.00448461
-7.59252e-05
0.00450932
-6.84324e-05
0.0045318
-6.16376e-05
0.00455227
-5.547e-05
0.00457089
-4.98647e-05
0.00458784
-4.47622e-05
-4.01064e-05
0.00460326
-6.04393e-06
8.1177e-05
-1.31217e-05
0.000120178
-9.65135e-06
8.6007e-05
9.54703e-06
8.53956e-06
4.57788e-05
-8.70936e-05
0.000103368
-0.000194112
0.000182398
-0.000301415
0.000282056
-0.000403364
0.000400956
-0.000496229
0.000537162
-0.000577712
0.000688367
-0.000646566
0.000852042
-0.000702306
0.00102557
-0.000745013
0.00120634
-0.000775192
0.00139184
-0.000793647
0.00157971
-0.000801391
0.0017678
-0.000799565
0.00195419
-0.000789377
0.0021372
-0.000772052
0.00231542
-0.00074879
0.00248768
-0.000720741
0.00265304
-0.00068898
0.00281081
-0.000654493
0.00296049
-0.000618168
0.00310176
-0.000580793
0.00323449
-0.00054305
0.00335865
-0.000505525
0.00347437
-0.000468706
0.00358185
-0.000432991
0.00368139
-0.000398693
0.00377333
-0.000366046
0.00385808
-0.000335214
0.00393606
-0.000306302
0.00400771
-0.000279359
0.00407347
-0.00025439
0.00413378
-0.000231364
0.00418908
-0.000210219
0.00423979
-0.00019087
0.00428629
-0.000173219
0.00432895
-0.000157154
0.00436813
-0.000142559
0.00440413
-0.000129316
0.00443724
-0.000117308
0.00446774
-0.000106422
0.00449586
-9.65523e-05
0.00452182
-8.75979e-05
0.00454582
-7.9467e-05
0.00456803
-7.20749e-05
0.00458861
-6.53433e-05
-5.91964e-05
0.0046077
8.90941e-06
7.22676e-05
2.51013e-05
0.000103986
5.25419e-05
5.85664e-05
8.92582e-05
-2.81768e-05
0.000139913
-0.000137748
0.000204623
-0.000258822
0.000284593
-0.000381385
0.000380251
-0.000499022
0.000491323
-0.000607301
0.000616927
-0.000703316
0.000755688
-0.000785327
0.000905867
-0.000852485
0.00106549
-0.000904636
0.00123246
-0.000942158
0.00140464
-0.00096583
0.00157996
-0.000976714
0.00175647
-0.000976067
0.00193234
-0.000965255
0.00210599
-0.000945696
0.002276
-0.000918801
0.00244119
-0.000885938
0.00260061
-0.000848398
0.0027535
-0.000807377
0.00289929
-0.00076396
0.00303761
-0.000719112
0.00316824
-0.00067368
0.0032911
-0.000628386
0.00340624
-0.000583843
0.00351379
-0.000540548
0.003614
-0.000498896
0.00370714
-0.000459187
0.00379356
-0.000421632
0.00387362
-0.000386368
0.00394773
-0.000353467
0.00401628
-0.000322942
0.00407968
-0.000294763
0.00413832
-0.00026886
0.00419259
-0.000245138
0.00424285
-0.000223478
0.00428944
-0.00020375
0.0043327
-0.000185814
0.00437291
-0.000169529
0.00441035
-0.000154753
0.00444528
-0.000141351
0.00447792
-0.000129193
0.00450849
-0.000118159
0.00453715
-0.000108135
0.0045641
-9.90194e-05
0.00458947
-9.07148e-05
-8.31264e-05
0.0046134
2.73218e-05
4.49458e-05
7.21696e-05
5.91387e-05
0.000127141
3.59528e-06
0.000182588
-8.36242e-05
0.00024417
-0.000199329
0.000312532
-0.000327185
0.000389684
-0.000458536
0.000477301
-0.000586639
0.000576429
-0.000706428
0.000687422
-0.000814309
0.000809989
-0.000907894
0.000943291
-0.000985788
0.00108607
-0.00104742
0.00123677
-0.00109286
0.00139367
-0.00112272
0.00155493
-0.00113798
0.00171877
-0.00113991
0.00188346
-0.00112994
0.0020474
-0.00110964
0.00220917
-0.00108057
0.00236752
-0.00104428
0.0025214
-0.00100228
0.00266997
-0.000955949
0.00281257
-0.000906565
0.00294873
-0.000855273
0.00307814
-0.000803083
0.00320062
-0.000750865
0.00331613
-0.000699355
0.00342474
-0.000649158
0.0035266
-0.000600759
0.00362194
-0.000554527
0.00371104
-0.000510728
0.00379421
-0.000469538
0.00387179
-0.000431054
0.00394416
-0.000395307
0.00401166
-0.000362268
0.00407467
-0.000331868
0.00413353
-0.000304
0.00418859
-0.000278534
0.00424016
-0.000255321
0.00428855
-0.000234201
0.00433403
-0.000215013
0.00437687
-0.000197593
0.00441731
-0.000181785
0.00445555
-0.000167439
0.0044918
-0.000154412
0.00452624
-0.000142574
0.00455903
-0.000131805
0.00459031
-0.000121993
-0.000113023
0.0046202
5.29263e-05
-7.98055e-06
0.00013237
-2.03045e-05
0.000206219
-7.0254e-05
0.000278588
-0.000155993
0.000346521
-0.000267262
0.000413209
-0.000393873
0.000482261
-0.000527588
0.000556974
-0.000661353
0.000639903
-0.000789357
0.000732704
-0.000907111
0.000836173
-0.00101136
0.000950346
-0.00109996
0.00107463
-0.0011717
0.00120797
-0.0012262
0.00134895
-0.0012637
0.00149597
-0.001285
0.00164731
-0.00129125
0.00180127
-0.0012839
0.0019562
-0.00126457
0.0021106
-0.00123497
0.00226312
-0.0011968
0.00241259
-0.00115175
0.00255804
-0.0011014
0.00269869
-0.00104721
0.00283395
-0.000990524
0.00296337
-0.00093251
0.00308671
-0.000874197
0.00320381
-0.000816457
0.00331466
-0.000760012
0.00341934
-0.000705443
0.00351802
-0.000653199
0.0036109
-0.000603608
0.00369825
-0.000556892
0.00378038
-0.000513181
0.0038576
-0.000472525
0.00393023
-0.000434907
0.00399862
-0.000400258
0.00406309
-0.000368467
0.00412395
-0.000339393
0.0041815
-0.000312871
0.00423603
-0.000288727
0.00428779
-0.000266778
0.00433704
-0.000246843
0.004384
-0.000228744
0.00442887
-0.000212312
0.00447185
-0.000197387
0.00451309
-0.00018382
0.00455277
-0.000171476
0.004591
-0.000160227
0.00462793
-0.00014995
0.00461906
-2.03756e-05
4.39203e-09
0.00463853
-1.94742e-05
4.70004e-09
0.00465715
-1.86259e-05
4.98749e-09
0.00467498
-1.78292e-05
5.25308e-09
0.00469205
-1.70816e-05
5.49854e-09
0.00470843
-1.63802e-05
5.73013e-09
0.00472415
-1.57223e-05
5.95756e-09
0.00473924
-1.51045e-05
6.19093e-09
0.00475376
-1.45228e-05
6.43864e-09
0.00476773
-1.39722e-05
6.70632e-09
0.00478117
-1.34468e-05
6.99551e-09
0.0047941
-1.29391e-05
7.30403e-09
0.00480653
-1.24406e-05
7.62543e-09
0.00481846
-1.19423e-05
7.94907e-09
0.00482989
-1.14354e-05
8.26116e-09
0.0048408
-1.09128e-05
8.5453e-09
0.00485116
-1.03704e-05
8.78336e-09
0.00486096
-9.80888e-06
8.95714e-09
0.00487018
-9.23421e-06
9.05013e-09
0.00487883
-8.65763e-06
9.04904e-09
0.00488692
-8.0944e-06
8.94582e-09
0.00489447
-7.56143e-06
8.73945e-09
0.00490154
-7.07444e-06
8.4361e-09
0.00490817
-6.64513e-06
8.04757e-09
0.00491444
-6.27922e-06
7.58973e-09
0.00492041
-5.97581e-06
7.08097e-09
0.00492613
-5.72814e-06
6.54026e-09
0.00493165
-5.52536e-06
5.98492e-09
0.004937
-5.35491e-06
5.42861e-09
0.0049422
-5.20468e-06
4.88125e-09
0.00494726
-5.06456e-06
4.34975e-09
0.00495219
-4.92727e-06
3.8384e-09
0.00495697
-4.78835e-06
3.34916e-09
0.00496161
-4.64578e-06
2.882e-09
0.00496611
-4.49926e-06
2.43594e-09
0.00497046
-4.3495e-06
2.01031e-09
0.00497466
-4.19772e-06
1.60479e-09
0.0049787
-4.04525e-06
1.21931e-09
0.00498259
-3.89328e-06
8.55054e-10
0.00498633
-3.74281e-06
5.14452e-10
0.00498993
-3.59462e-06
2.01966e-10
0.00499338
-3.4493e-06
-7.98515e-11
0.00499669
-3.30722e-06
-3.30236e-10
0.00499985
-3.16867e-06
-5.53426e-10
0.00500289
-3.03383e-06
-7.58277e-10
0.00500579
-2.90273e-06
-9.48294e-10
0.00500857
-2.77543e-06
-1.13253e-09
0.00501122
-2.65194e-06
-1.31889e-09
0.00501376
-2.53224e-06
-1.51208e-09
0.00501617
-2.41627e-06
-1.719e-09
0.00501848
-2.30396e-06
-1.9444e-09
0.00502068
-2.19524e-06
-2.19615e-09
0.00502277
-2.09004e-06
-2.47411e-09
0.00502476
-1.98828e-06
-2.7752e-09
0.00502665
-1.8899e-06
-3.088e-09
0.00502845
-1.79486e-06
-3.39497e-09
0.00503016
-1.70308e-06
-3.6775e-09
0.00503178
-1.61453e-06
-3.91863e-09
0.00503331
-1.52911e-06
-4.11149e-09
0.00503476
-1.44678e-06