/*--------------------------------*- C++ -*----------------------------------*\
| =========                 |                                                 |
| \\      /  F ield         | OpenFOAM: The Open Source CFD Toolbox           |
|  \\    /   O peration     | Version:  2412                                  |
|   \\  /    A nd           | Website:  www.openfoam.com                      |
|    \\/     M anipulation  |                                                 |
\*---------------------------------------------------------------------------*/
FoamFile
{
    version     2.0;
    format      ascii;
    arch        "LSB;label=32;scalar=64";
    class       volVectorField;
    location    "12";
    object      U;
}
// * * * * * * * * * * * * * * * * * * * * * * * * * * * * * * * * * * * * * //

dimensions      [0 1 -1 0 0 0 0];

internalField   nonuniform List<vector> 
63420
(
(0.0999997 4.41108e-07 0)
(0.099995 1.21922e-06 0)
(0.099986 2.10366e-06 0)
(0.0999713 3.75845e-06 0)
(0.0999447 6.71046e-06 0)
(0.0998992 1.07282e-05 0)
(0.0998317 1.48484e-05 0)
(0.0997456 1.79713e-05 0)
(0.0996493 1.94591e-05 0)
(0.0995518 1.93402e-05 0)
(0.0994602 1.81252e-05 0)
(0.0993778 1.64741e-05 0)
(0.0993049 1.49314e-05 0)
(0.0992396 1.38128e-05 0)
(0.0991794 1.32185e-05 0)
(0.0991219 1.31059e-05 0)
(0.0990649 1.3368e-05 0)
(0.0990074 1.38888e-05 0)
(0.0989484 1.45729e-05 0)
(0.0988875 1.53537e-05 0)
(0.0988246 1.61911e-05 0)
(0.0987595 1.70653e-05 0)
(0.0986924 1.79689e-05 0)
(0.0986231 1.89021e-05 0)
(0.0985517 1.98687e-05 0)
(0.0984782 2.08739e-05 0)
(0.0984025 2.19234e-05 0)
(0.0983245 2.30224e-05 0)
(0.0982443 2.41756e-05 0)
(0.0981617 2.53874e-05 0)
(0.0980767 2.66619e-05 0)
(0.0979891 2.80027e-05 0)
(0.097899 2.94134e-05 0)
(0.0978062 3.08976e-05 0)
(0.0977106 3.24586e-05 0)
(0.0976122 3.41001e-05 0)
(0.0975108 3.58254e-05 0)
(0.0974064 3.76383e-05 0)
(0.0972989 3.95425e-05 0)
(0.0971882 4.1542e-05 0)
(0.0970742 4.36408e-05 0)
(0.0969568 4.58431e-05 0)
(0.0968358 4.81535e-05 0)
(0.0967113 5.05766e-05 0)
(0.0965831 5.31172e-05 0)
(0.0964512 5.57807e-05 0)
(0.0963153 5.85724e-05 0)
(0.0961755 6.14982e-05 0)
(0.0960316 6.45644e-05 0)
(0.0958834 6.77775e-05 0)
(0.095731 7.11453e-05 0)
(0.0955742 7.46771e-05 0)
(0.0954128 7.83873e-05 0)
(0.0952467 8.23049e-05 0)
(0.0950757 8.65018e-05 0)
(0.0999997 1.32314e-06 0)
(0.099995 3.65981e-06 0)
(0.099986 6.31118e-06 0)
(0.0999713 1.1255e-05 0)
(0.0999449 2.00659e-05 0)
(0.0998998 3.2062e-05 0)
(0.0998328 4.43783e-05 0)
(0.0997475 5.37362e-05 0)
(0.0996517 5.82283e-05 0)
(0.0995547 5.79299e-05 0)
(0.0994632 5.43555e-05 0)
(0.0993808 4.94689e-05 0)
(0.0993076 4.4893e-05 0)
(0.0992421 4.15714e-05 0)
(0.0991816 3.98061e-05 0)
(0.0991237 3.94734e-05 0)
(0.0990666 4.02566e-05 0)
(0.0990088 4.1812e-05 0)
(0.0989497 4.38555e-05 0)
(0.0988887 4.61894e-05 0)
(0.0988258 4.86944e-05 0)
(0.0987607 5.13106e-05 0)
(0.0986936 5.40163e-05 0)
(0.0986244 5.68116e-05 0)
(0.098553 5.9708e-05 0)
(0.0984795 6.27208e-05 0)
(0.0984039 6.58664e-05 0)
(0.098326 6.91603e-05 0)
(0.0982459 7.2617e-05 0)
(0.0981634 7.62492e-05 0)
(0.0980785 8.00691e-05 0)
(0.0979911 8.40877e-05 0)
(0.0979011 8.83156e-05 0)
(0.0978084 9.27634e-05 0)
(0.097713 9.74413e-05 0)
(0.0976147 0.00010236 0)
(0.0975135 0.000107529 0)
(0.0974093 0.000112961 0)
(0.097302 0.000118666 0)
(0.0971915 0.000124655 0)
(0.0970776 0.000130942 0)
(0.0969604 0.000137539 0)
(0.0968398 0.000144459 0)
(0.0967155 0.000151716 0)
(0.0965876 0.000159325 0)
(0.0964559 0.000167301 0)
(0.0963204 0.000175661 0)
(0.0961809 0.000184422 0)
(0.0960373 0.000193602 0)
(0.0958896 0.000203222 0)
(0.0957375 0.000213304 0)
(0.0955811 0.000223876 0)
(0.0954202 0.00023498 0)
(0.0952546 0.000246701 0)
(0.0950842 0.000259248 0)
(0.0999997 2.20427e-06 0)
(0.099995 6.10256e-06 0)
(0.099986 1.0513e-05 0)
(0.0999714 1.86958e-05 0)
(0.0999453 3.3264e-05 0)
(0.0999009 5.31179e-05 0)
(0.0998351 7.35456e-05 0)
(0.0997511 8.91303e-05 0)
(0.0996565 9.66993e-05 0)
(0.0995602 9.63469e-05 0)
(0.0994691 9.05516e-05 0)
(0.0993866 8.25469e-05 0)
(0.099313 7.5016e-05 0)
(0.0992469 6.95279e-05 0)
(0.0991858 6.65938e-05 0)
(0.0991274 6.60204e-05 0)
(0.0990698 6.72922e-05 0)
(0.0990117 6.98458e-05 0)
(0.0989523 7.3214e-05 0)
(0.0988912 7.70699e-05 0)
(0.0988281 8.12163e-05 0)
(0.0987631 8.55529e-05 0)
(0.098696 9.00428e-05 0)
(0.0986268 9.46855e-05 0)
(0.0985556 9.94989e-05 0)
(0.0984822 0.000104508 0)
(0.0984067 0.00010974 0)
(0.0983291 0.000115219 0)
(0.0982491 0.00012097 0)
(0.0981668 0.000127013 0)
(0.0980821 0.000133369 0)
(0.0979949 0.000140055 0)
(0.0979052 0.000147089 0)
(0.0978128 0.000154489 0)
(0.0977177 0.000162272 0)
(0.0976197 0.000170454 0)
(0.0975189 0.000179054 0)
(0.097415 0.000188088 0)
(0.0973081 0.000197577 0)
(0.0971979 0.000207539 0)
(0.0970845 0.000217995 0)
(0.0969678 0.000228965 0)
(0.0968476 0.000240471 0)
(0.0967239 0.000252537 0)
(0.0965965 0.000265186 0)
(0.0964654 0.000278445 0)
(0.0963305 0.00029234 0)
(0.0961916 0.000306899 0)
(0.0960488 0.000322154 0)
(0.0959018 0.000338137 0)
(0.0957506 0.000354885 0)
(0.095595 0.000372443 0)
(0.095435 0.000390879 0)
(0.0952704 0.000410328 0)
(0.0951011 0.000431119 0)
(0.0999997 3.08389e-06 0)
(0.099995 8.54859e-06 0)
(0.099986 1.47054e-05 0)
(0.0999714 2.60467e-05 0)
(0.0999459 4.62087e-05 0)
(0.0999026 7.37258e-05 0)
(0.0998385 0.000102128 0)
(0.0997563 0.000123925 0)
(0.0996634 0.000134687 0)
(0.0995682 0.000134483 0)
(0.0994776 0.00012669 0)
(0.0993949 0.000115756 0)
(0.0993208 0.000105397 0)
(0.0992539 9.78014e-05 0)
(0.099192 9.37025e-05 0)
(0.0991328 9.28555e-05 0)
(0.0990745 9.45635e-05 0)
(0.0990159 9.80568e-05 0)
(0.0989561 0.000102693 0)
(0.0988948 0.000108021 0)
(0.0988316 0.000113766 0)
(0.0987666 0.000119788 0)
(0.0986995 0.000126033 0)
(0.0986305 0.000132499 0)
(0.0985594 0.000139209 0)
(0.0984863 0.000146196 0)
(0.098411 0.000153497 0)
(0.0983336 0.000161146 0)
(0.0982539 0.000169175 0)
(0.0981719 0.000177614 0)
(0.0980876 0.000186489 0)
(0.0980007 0.000195827 0)
(0.0979114 0.00020565 0)
(0.0978194 0.000215983 0)
(0.0977247 0.00022685 0)
(0.0976272 0.000238274 0)
(0.0975268 0.00025028 0)
(0.0974235 0.000262893 0)
(0.0973171 0.000276138 0)
(0.0972076 0.000290042 0)
(0.0970948 0.000304633 0)
(0.0969788 0.000319941 0)
(0.0968593 0.000335995 0)
(0.0967363 0.000352827 0)
(0.0966098 0.000370472 0)
(0.0964796 0.000388963 0)
(0.0963456 0.000408338 0)
(0.0962077 0.000428637 0)
(0.0960659 0.000449901 0)
(0.09592 0.000472174 0)
(0.09577 0.000495508 0)
(0.0956157 0.000519963 0)
(0.0954571 0.000545628 0)
(0.095294 0.000572678 0)
(0.0951263 0.000601538 0)
(0.0999997 3.96144e-06 0)
(0.099995 1.09986e-05 0)
(0.099986 1.8885e-05 0)
(0.0999715 3.3278e-05 0)
(0.0999466 5.88164e-05 0)
(0.0999047 9.37376e-05 0)
(0.0998426 0.000129931 0)
(0.0997628 0.00015792 0)
(0.0996721 0.000172028 0)
(0.0995784 0.000172239 0)
(0.0994883 0.000162744 0)
(0.0994055 0.000149134 0)
(0.0993307 0.000136115 0)
(0.0992628 0.000126492 0)
(0.0991998 0.000121235 0)
(0.0991396 0.000120071 0)
(0.0990805 0.000122146 0)
(0.0990213 0.000126501 0)
(0.0989611 0.00013233 0)
(0.0988995 0.000139063 0)
(0.0988362 0.00014635 0)
(0.0987711 0.000154009 0)
(0.0987042 0.00016197 0)
(0.0986353 0.000170226 0)
(0.0985644 0.000178804 0)
(0.0984915 0.000187744 0)
(0.0984166 0.000197092 0)
(0.0983395 0.000206889 0)
(0.0982602 0.000217175 0)
(0.0981786 0.000227988 0)
(0.0980947 0.00023936 0)
(0.0980084 0.000251325 0)
(0.0979195 0.000263912 0)
(0.0978281 0.000277153 0)
(0.097734 0.000291075 0)
(0.0976371 0.000305711 0)
(0.0975374 0.000321091 0)
(0.0974348 0.000337246 0)
(0.0973291 0.000354208 0)
(0.0972204 0.000372013 0)
(0.0971085 0.000390695 0)
(0.0969933 0.000410291 0)
(0.0968748 0.000430839 0)
(0.0967528 0.00045238 0)
(0.0966274 0.000474955 0)
(0.0964983 0.00049861 0)
(0.0963655 0.000523391 0)
(0.096229 0.000549346 0)
(0.0960886 0.000576528 0)
(0.0959442 0.000604993 0)
(0.0957957 0.000634802 0)
(0.0956432 0.00066603 0)
(0.0954864 0.000698782 0)
(0.0953252 0.000733258 0)
(0.0951596 0.000769936 0)
(0.0999997 4.83651e-06 0)
(0.099995 1.34527e-05 0)
(0.0999859 2.30486e-05 0)
(0.0999717 4.03656e-05 0)
(0.0999474 7.102e-05 0)
(0.0999071 0.000113034 0)
(0.0998475 0.000156795 0)
(0.0997704 0.00019095 0)
(0.0996821 0.000208584 0)
(0.0995902 0.000209529 0)
(0.0995009 0.000198687 0)
(0.0994179 0.000182704 0)
(0.0993424 0.00016723 0)
(0.0992733 0.000155678 0)
(0.0992091 0.000149271 0)
(0.0991478 0.000147739 0)
(0.0990877 0.000150098 0)
(0.0990278 0.000155221 0)
(0.0989671 0.000162152 0)
(0.0989052 0.000170208 0)
(0.0988418 0.000178967 0)
(0.0987767 0.000188206 0)
(0.0987099 0.000197834 0)
(0.0986412 0.000207839 0)
(0.0985706 0.00021825 0)
(0.098498 0.000229113 0)
(0.0984235 0.000240477 0)
(0.0983468 0.000252394 0)
(0.098268 0.000264911 0)
(0.0981869 0.000278069 0)
(0.0981036 0.000291911 0)
(0.0980178 0.000306474 0)
(0.0979296 0.000321794 0)
(0.0978389 0.000337907 0)
(0.0977455 0.000354851 0)
(0.0976494 0.000372659 0)
(0.0975505 0.00039137 0)
(0.0974487 0.000411022 0)
(0.097344 0.000431654 0)
(0.0972362 0.000453306 0)
(0.0971254 0.00047602 0)
(0.0970113 0.000499842 0)
(0.096894 0.000524816 0)
(0.0967733 0.000550991 0)
(0.0966492 0.000578417 0)
(0.0965215 0.000607148 0)
(0.0963903 0.000637237 0)
(0.0962553 0.000668744 0)
(0.0961166 0.00070173 0)
(0.0959741 0.000736261 0)
(0.0958276 0.000772407 0)
(0.0956771 0.000810253 0)
(0.0955226 0.000849912 0)
(0.0953639 0.00089159 0)
(0.0952009 0.00093577 0)
(0.0999997 5.70835e-06 0)
(0.099995 1.59109e-05 0)
(0.0999859 2.71934e-05 0)
(0.0999718 4.72921e-05 0)
(0.0999483 8.27716e-05 0)
(0.0999097 0.000131528 0)
(0.0998527 0.000182606 0)
(0.0997787 0.00022289 0)
(0.0996932 0.000244248 0)
(0.0996031 0.000246283 0)
(0.0995147 0.000234491 0)
(0.0994316 0.000216475 0)
(0.0993552 0.000198777 0)
(0.099285 0.000185406 0)
(0.0992195 0.000177861 0)
(0.0991569 0.000175906 0)
(0.0990959 0.000178456 0)
(0.0990352 0.000184243 0)
(0.098974 0.000192173 0)
(0.0989118 0.00020146 0)
(0.0988483 0.000211612 0)
(0.0987832 0.000222363 0)
(0.0987166 0.000233603 0)
(0.0986481 0.00024531 0)
(0.0985779 0.000257512 0)
(0.0985057 0.000270259 0)
(0.0984316 0.000283607 0)
(0.0983555 0.000297611 0)
(0.0982772 0.000312325 0)
(0.0981968 0.000327797 0)
(0.0981141 0.000344073 0)
(0.098029 0.000361198 0)
(0.0979416 0.000379213 0)
(0.0978516 0.000398159 0)
(0.0977591 0.000418079 0)
(0.0976639 0.000439014 0)
(0.097566 0.000461006 0)
(0.0974652 0.0004841 0)
(0.0973616 0.000508341 0)
(0.0972551 0.000533776 0)
(0.0971454 0.000560453 0)
(0.0970327 0.000588425 0)
(0.0969168 0.000617743 0)
(0.0967976 0.000648463 0)
(0.096675 0.000680643 0)
(0.0965491 0.000714343 0)
(0.0964196 0.000749627 0)
(0.0962866 0.000786561 0)
(0.09615 0.000825214 0)
(0.0960096 0.000865661 0)
(0.0958654 0.000907979 0)
(0.0957174 0.000952259 0)
(0.0955655 0.000998614 0)
(0.0954096 0.00104722 0)
(0.0952497 0.00109849 0)
(0.0948989 9.11854e-05 -4.65534e-24)
(0.0947143 9.61511e-05 -4.74342e-24)
(0.0945201 0.000101444 -3.19622e-26)
(0.0943157 0.000107122 1.45656e-23)
(0.0941004 0.000113223 -4.82529e-24)
(0.0938734 0.00011976 -4.96308e-24)
(0.0936339 0.000126763 -1.52742e-23)
(0.093381 0.000134266 1.51678e-23)
(0.0931137 0.000142304 5.18755e-24)
(0.0928312 0.000150913 0)
(0.0925323 0.000160132 5.35636e-24)
(0.0922159 0.000170004 -5.44728e-24)
(0.0918808 0.000180578 4.4793e-23)
(0.0915257 0.000191915 -9.59882e-23)
(0.0911492 0.000204088 5.13002e-23)
(0.0907497 0.000217192 4.15532e-23)
(0.0903254 0.000231345 5.33213e-23)
(0.0898745 0.000246694 -6.10452e-24)
(0.0893945 0.000263417 6.23647e-24)
(0.0888829 0.00028173 -6.37614e-24)
(0.0883366 0.000301888 0)
(0.0877521 0.000324186 6.68119e-24)
(0.0871253 0.000348966 -6.84799e-24)
(0.0864513 0.000376616 0)
(0.0857247 0.00040758 -7.21424e-24)
(0.0849392 0.000442364 0)
(0.0840874 0.00048155 -7.6306e-24)
(0.0831609 0.000525814 -1.27888e-22)
(0.0821501 0.000575952 1.35799e-22)
(0.0810436 0.000632912 -1.36364e-22)
(0.0798286 0.000697834 1.36156e-22)
(0.0784896 0.00077211 0)
(0.0770089 0.000857446 0)
(0.075365 0.000955949 1.67138e-22)
(0.0735327 0.00107022 -1.57262e-22)
(0.0714815 0.00120346 0)
(0.0691748 0.00135955 0)
(0.0665686 0.00154308 0)
(0.0636101 0.0017592 0)
(0.0602374 0.00201325 0)
(0.0563793 0.00230973 0)
(0.0519579 0.0026505 0)
(0.0468957 0.00303154 0)
(0.0411289 0.00343785 0)
(0.0346334 0.00383572 -1.56145e-23)
(0.0274663 0.0041617 -5.36788e-22)
(0.0198127 0.0043092 5.35983e-22)
(0.0120641 0.00411448 5.82992e-22)
(0.0051769 0.00332576 -5.82117e-22)
(0.00105817 0.00155109 0)
(0.0949078 0.000273238 -4.70808e-24)
(0.0947234 0.000288075 -9.5979e-24)
(0.0945295 0.000303966 -5.02597e-24)
(0.0943254 0.000320995 4.68883e-24)
(0.0941105 0.000339245 -4.89087e-24)
(0.0938839 0.000358799 3.50326e-23)
(0.0936448 0.000379751 -5.50178e-23)
(0.0933925 0.000402204 5.10793e-24)
(0.0931258 0.000426262 6.81458e-23)
(0.092844 0.000452033 -9.41194e-23)
(0.0925458 0.000479635 -9.18646e-23)
(0.0922302 0.000509196 8.09479e-23)
(0.091896 0.000540865 0)
(0.0915418 0.000574824 5.64922e-24)
(0.0911664 0.000611297 -1.72607e-23)
(0.090768 0.000650568 -1.95684e-22)
(0.0903449 0.000692992 1.87767e-22)
(0.0898952 0.000739007 -1.99602e-22)
(0.0894166 0.000789153 -1.87367e-23)
(0.0889065 0.000844073 6.39013e-24)
(0.0883618 0.000904531 0)
(0.0877791 0.000971412 -6.6985e-24)
(0.0871543 0.00104574 -2.15831e-22)
(0.0864827 0.00112867 4.51019e-22)
(0.0857588 0.00122154 2.48775e-22)
(0.0849766 0.00132585 -4.69223e-22)
(0.0841286 0.00144336 5.05332e-22)
(0.0832068 0.00157608 -5.12771e-22)
(0.0822017 0.00172639 -8.13854e-24)
(0.0811022 0.00189712 0)
(0.0798956 0.0020917 0)
(0.0785672 0.00231425 0)
(0.0770995 0.00256988 0)
(0.0754719 0.00286486 -9.68439e-24)
(0.0736601 0.00320693 -6.57317e-22)
(0.0716349 0.00360557 -2.82515e-23)
(0.0693614 0.0040723 6.83787e-22)
(0.0667976 0.00462064 7.45913e-22)
(0.0638938 0.00526582 -7.44924e-22)
(0.060591 0.00602338 -2.47793e-23)
(0.0568219 0.00690634 -2.59136e-23)
(0.0525124 0.00791964 -8.95171e-22)
(0.0475874 0.00905054 8.65668e-22)
(0.0419824 0.0102535 -2.95528e-23)
(0.0356653 0.0114272 1.57236e-23)
(0.0286729 0.0123823 -1.09138e-21)
(0.0211518 0.0128013 1.09101e-21)
(0.0134275 0.0121979 -2.27871e-21)
(0.00632552 0.00983392 2.24062e-21)
(0.00152592 0.00455359 -2.29608e-21)
(0.0949255 0.000454294 -2.78582e-23)
(0.0947416 0.000478952 -9.7639e-24)
(0.0945483 0.000505359 3.7692e-23)
(0.0943449 0.000533631 -7.74887e-23)
(0.0941307 0.000563904 1.65785e-22)
(0.0939049 0.00059634 -7.85241e-23)
(0.0936668 0.000631105 1.42536e-26)
(0.0934155 0.000668367 1.01882e-23)
(0.0931501 0.000708301 1.77569e-22)
(0.0928696 0.000751088 -1.67032e-22)
(0.0925729 0.000796923 0)
(0.092259 0.000846024 1.47046e-26)
(0.0919265 0.000898643 0)
(0.0915743 0.000955084 1.9403e-22)
(0.091201 0.00101573 -1.7103e-22)
(0.0908048 0.00108104 -3.68535e-22)
(0.0903842 0.00115163 2.03818e-23)
(0.0899371 0.00122822 -3.87948e-22)
(0.0894613 0.0013117 1.25374e-23)
(0.0889543 0.00140316 -4.15278e-22)
(0.088413 0.00150386 4.27999e-22)
(0.0878341 0.00161527 -4.36008e-22)
(0.0872136 0.00173907 4.49374e-22)
(0.0865469 0.00187722 1.41416e-23)
(0.0858288 0.00203189 -1.45284e-23)
(0.0850532 0.00220561 1.49401e-23)
(0.0842134 0.00240126 -5.00457e-22)
(0.0833013 0.0026222 5.15864e-22)
(0.0823079 0.00287237 5.49041e-22)
(0.0812226 0.00315645 -5.3219e-22)
(0.0800335 0.00348009 0)
(0.0787266 0.00385013 0)
(0.0772855 0.00427495 1.87219e-23)
(0.0756911 0.00476485 1.29098e-21)
(0.073921 0.0053325 3.17624e-23)
(0.0719485 0.00599339 -1.30006e-21)
(0.069742 0.00676617 0)
(0.067264 0.00767272 -2.27622e-23)
(0.0644701 0.00873736 1.58747e-21)
(0.0613082 0.00998465 -3.17098e-21)
(0.0577184 0.0114345 3.36552e-21)
(0.0536338 0.0130929 1.03804e-22)
(0.0489842 0.0149364 -1.75192e-21)
(0.0437035 0.0168872 -1.90147e-21)
(0.0377436 0.0187764 1.95963e-21)
(0.0310994 0.0202924 1.5225e-24)
(0.0238392 0.0209142 -3.33995e-23)
(0.0161579 0.0198433 2.20018e-21)
(0.00860514 0.0159046 -2.13052e-21)
(0.00242505 0.00729682 -2.13072e-21)
(0.094952 0.000633684 1.8358e-23)
(0.0947688 0.000668035 -9.31297e-24)
(0.0945764 0.000704756 1.95782e-26)
(0.0943739 0.000744056 9.57696e-24)
(0.0941608 0.000786148 -1.96828e-26)
(0.0939364 0.000831251 1.58988e-22)
(0.0936998 0.000879598 -3.00388e-22)
(0.0934501 0.000931424 1.61418e-22)
(0.0931866 0.000986976 -1.03299e-23)
(0.0929082 0.00104651 1.90847e-22)
(0.0926138 0.00111031 -1.69754e-22)
(0.0923024 0.00117867 -3.52107e-22)
(0.0919728 0.00125196 7.10865e-22)
(0.0916237 0.00133061 -7.24696e-22)
(0.0912536 0.00141515 7.39207e-22)
(0.090861 0.00150625 -7.42738e-22)
(0.0904442 0.00160475 -3.93164e-22)
(0.0900013 0.00171168 2.2766e-26)
(0.08953 0.00182828 0)
(0.0890278 0.00195606 -4.04416e-22)
(0.088492 0.00209677 4.17113e-22)
(0.0879192 0.00225248 0)
(0.0873055 0.00242552 -9.00485e-22)
(0.0866467 0.00261858 8.85875e-22)
(0.0859379 0.00283472 1.46666e-23)
(0.0851732 0.00307742 -3.65738e-26)
(0.0843462 0.0033507 1.55031e-23)
(0.0834495 0.00365921 0)
(0.0824746 0.00400842 -5.21525e-26)
(0.0814118 0.00440481 0)
(0.08025 0.00485619 -1.7612e-23)
(0.0789766 0.00537199 1.19143e-21)
(0.0775769 0.00596372 -1.1911e-21)
(0.0760338 0.0066455 -1.97143e-23)
(0.0743279 0.00743456 4.08332e-23)
(0.0724362 0.00835189 -1.40904e-21)
(0.0703321 0.00942259 1.36523e-21)
(0.0679848 0.0106758 2.31558e-23)
(0.0653579 0.0121435 -3.6196e-25)
(0.0624095 0.0138572 2.47554e-23)
(0.0590906 0.0158412 -1.70269e-21)
(0.0553455 0.0180995 3.44424e-21)
(0.051111 0.0205947 -1.79656e-21)
(0.0463185 0.0232146 1.86259e-21)
(0.0408961 0.0257238 -1.94993e-21)
(0.034775 0.0276967 -3.88068e-21)
(0.0279003 0.0284269 7.91759e-21)
(0.0202711 0.0268222 -4.00856e-21)
(0.0120638 0.0213105 0)
(0.00376133 0.00966279 -3.76456e-21)
(0.094987 0.000810728 -9.10549e-24)
(0.0948049 0.000854515 -3.71812e-23)
(0.0946136 0.000901316 1.12694e-22)
(0.0944125 0.000951397 -1.52134e-22)
(0.094201 0.00100503 6.69971e-23)
(0.0939784 0.00106251 9.82035e-24)
(0.0937438 0.00112412 -9.98192e-24)
(0.0934965 0.00119018 -2.4754e-26)
(0.0932356 0.00126101 1.03279e-23)
(0.0929601 0.00133693 -2.1002e-23)
(0.092669 0.0014183 -3.45466e-22)
(0.0923611 0.00150554 3.56534e-22)
(0.0920354 0.00159911 -3.48074e-22)
(0.0916905 0.00169956 3.59312e-22)
(0.091325 0.0018076 0)
(0.0909375 0.0019241 -2.52186e-26)
(0.0905261 0.00205012 0)
(0.0900891 0.00218699 -3.87839e-22)
(0.0896243 0.00233631 4.1304e-22)
(0.0891293 0.00250001 -1.29776e-23)
(0.0886013 0.00268031 -8.74702e-22)
(0.0880373 0.00287985 8.6179e-22)
(0.0874337 0.00310159 -1.40165e-23)
(0.0867865 0.00334896 0)
(0.086091 0.00362584 0)
(0.085342 0.00393664 -1.00506e-21)
(0.0845336 0.00428647 9.74526e-22)
(0.0836589 0.00468122 0)
(0.0827104 0.00512783 -3.34521e-23)
(0.0816795 0.00563448 0)
(0.0805564 0.00621102 1.7921e-23)
(0.0793301 0.00686929 -1.848e-23)
(0.0779881 0.00762369 -1.92525e-23)
(0.0765165 0.00849175 1.98586e-23)
(0.0748993 0.00949477 1.30794e-21)
(0.0731189 0.0106585 -1.34993e-21)
(0.0711553 0.0120133 2.93939e-21)
(0.0689861 0.0135941 -2.94131e-21)
(0.0665862 0.0154385 3.12848e-21)
(0.0639265 0.0175825 9.3718e-23)
(0.0609733 0.0200515 -3.30055e-21)
(0.0576851 0.0228441 -2.64161e-23)
(0.0540088 0.0259062 1.29928e-24)
(0.0498731 0.0290905 1.72868e-24)
(0.0451772 0.0321001 2.29265e-24)
(0.0397717 0.0344106 -5.73828e-23)
(0.0334373 0.0351636 -2.6315e-23)
(0.025898 0.0330159 -2.49813e-23)
(0.0168441 0.0260145 0)
(0.00555968 0.0116432 7.8933e-24)
(0.0950304 0.000984809 -4.51849e-23)
(0.0948495 0.00103781 2.71803e-23)
(0.0946598 0.00109448 9.29529e-24)
(0.0944606 0.00115513 1.42632e-22)
(0.0942512 0.0012201 -1.42689e-22)
(0.094031 0.00128974 1.47537e-22)
(0.0937992 0.00136441 -3.27456e-22)
(0.093555 0.0014445 4.66051e-22)
(0.0932976 0.0015304 -3.26421e-22)
(0.0930259 0.00162251 -3.38445e-22)
(0.092739 0.00172129 -1.69024e-23)
(0.0924359 0.00182724 6.87032e-22)
(0.0921153 0.00194093 -7.23509e-22)
(0.0917761 0.00206309 3.37422e-22)
(0.0914167 0.00219456 3.63983e-22)
(0.0910359 0.00233642 3.80358e-22)
(0.0906319 0.00249001 -2.91544e-23)
(0.0902029 0.00265694 7.75214e-22)
(0.0897469 0.00283919 8.00307e-22)
(0.0892616 0.00303908 2.01178e-23)
(0.0887446 0.00325936 -8.48359e-22)
(0.0881928 0.00350319 0)
(0.0876031 0.00377419 0)
(0.0869718 0.0040765 -9.45594e-22)
(0.0862948 0.0044148 9.32013e-22)
(0.0855673 0.00479446 1.00419e-21)
(0.0847843 0.00522163 -1.00568e-21)
(0.0839396 0.00570344 0)
(0.083027 0.00624824 1.1235e-21)
(0.082039 0.00686588 -1.12567e-21)
(0.0809676 0.00756812 0)
(0.0798039 0.00836909 -2.43909e-21)
(0.0785384 0.00928578 2.46168e-21)
(0.0771606 0.0103387 -2.03596e-23)
(0.0756595 0.0115524 -2.72668e-21)
(0.0740236 0.0129562 2.75197e-21)
(0.0722412 0.0145841 0)
(0.0703007 0.0164738 3.09763e-21)
(0.0681903 0.0186645 -3.07855e-21)
(0.0658978 0.0211911 2.4993e-23)
(0.0634079 0.0240726 3.40943e-21)
(0.0606981 0.0272938 -6.84461e-21)
(0.0577297 0.0307749 1.58596e-23)
(0.0544321 0.0343275 3.50494e-23)
(0.0506766 0.037595 3.55989e-21)
(0.0462308 0.039975 3.98193e-24)
(0.0406924 0.0405089 -3.05125e-21)
(0.0334333 0.037705 3.12797e-21)
(0.0234129 0.0293966 0)
(0.00808237 0.0129362 2.74537e-23)
(0.0950818 0.00115513 8.90038e-24)
(0.0949028 0.00121683 8.19653e-23)
(0.0947153 0.00128287 -7.3095e-23)
(0.0945186 0.00135361 9.37897e-24)
(0.0943121 0.00142944 1.44117e-22)
(0.0940951 0.00151077 -1.44348e-22)
(0.093867 0.00159804 -3.09078e-22)
(0.0936268 0.00169169 4.70958e-24)
(0.0933738 0.00179219 -5.65579e-24)
(0.0931071 0.00190003 3.43083e-22)
(0.0928257 0.00201576 -3.34942e-22)
(0.0925286 0.00213999 7.10654e-22)
(0.0922147 0.00227342 -3.5406e-22)
(0.0918828 0.00241692 1.14401e-23)
(0.0915315 0.00257154 1.17045e-23)
(0.0911595 0.00273857 7.73989e-22)
(0.0907652 0.00291961 -4.9085e-24)
(0.0903469 0.00311663 8.0778e-22)
(0.0899028 0.00333196 1.29077e-23)
(0.0894308 0.00356839 0)
(0.0889285 0.00382918 0)
(0.0883934 0.00411806 -9.06061e-22)
(0.0878227 0.00443934 9.0835e-22)
(0.0872132 0.00479791 0)
(0.0865613 0.0051993 1.52828e-23)
(0.0858631 0.00564987 0)
(0.0851143 0.00615689 -1.05581e-21)
(0.0843101 0.00672879 2.14979e-21)
(0.0834453 0.00737544 -1.09406e-21)
(0.0825144 0.00810846 -2.31996e-21)
(0.0815113 0.00894163 -7.87551e-23)
(0.08043 0.00989142 -8.32869e-23)
(0.079264 0.0109774 -8.77664e-23)
(0.0780074 0.0122231 2.61178e-21)
(0.0766546 0.0136559 2.8059e-21)
(0.0752012 0.0153077 -2.81258e-21)
(0.0736446 0.0172142 0)
(0.0719847 0.019413 3.12093e-21)
(0.0702243 0.0219395 -3.12817e-21)
(0.0683689 0.0248182 -3.32959e-21)
(0.0664235 0.0280487 3.31126e-21)
(0.0643871 0.0315826 2.71154e-23)
(0.0622391 0.0352902 3.33968e-21)
(0.0599173 0.0389145 -1.07351e-22)
(0.0572798 0.0420162 -3.30111e-21)
(0.054038 0.0439159 2.51891e-23)
(0.0496593 0.0436262 0)
(0.0432491 0.0397158 -1.99333e-23)
(0.0328718 0.0302332 -9.04349e-22)
(0.0130356 0.0128755 4.51763e-22)
(-0.000251333 0.000310784 0)
(-0.000966975 0.00049485 3.02989e-22)
(-0.00182378 0.000414849 -3.03444e-22)
(-0.00239499 0.000192618 -2.9213e-22)
(-0.00247883 -9.92261e-05 2.92569e-22)
(-0.00200839 -0.000419151 -8.66376e-24)
(-0.000968728 -0.000737966 0)
(0.000624472 -0.0010365 0)
(0.00272814 -0.00130511 0)
(0.00528384 -0.00153782 0)
(0.00822755 -0.00173185 0)
(0.0114916 -0.00188676 0)
(0.0150084 -0.00200368 0)
(0.0187126 -0.00208482 0)
(0.0225434 -0.00213307 0)
(0.0264447 -0.00215179 3.98409e-23)
(0.0303663 -0.00214454 -3.76113e-23)
(0.0342642 -0.00211492 0)
(0.0381004 -0.00206651 0)
(0.0418432 -0.00200268 -1.56042e-23)
(0.0454664 -0.00192663 1.5628e-23)
(0.0489494 -0.00184129 -7.38201e-24)
(0.0522766 -0.00174928 4.24397e-25)
(0.0554368 -0.00165296 0)
(0.0584231 -0.00155437 1.32012e-25)
(0.0612318 -0.00145527 0)
(0.0638625 -0.00135712 0)
(0.0663171 -0.00126117 0)
(0.0685999 -0.0011684 -1.47782e-25)
(0.0707169 -0.00107958 0)
(0.0726751 -0.000995282 1.9174e-25)
(0.0744828 -0.00091589 -1.99359e-25)
(0.0761489 -0.000841637 2.00111e-25)
(0.0776826 -0.000772619 -1.77152e-24)
(0.0790932 -0.00070882 1.76558e-24)
(0.08039 -0.000650128 1.21492e-24)
(0.0815822 -0.00059636 -2.50764e-24)
(0.0826783 -0.000547279 1.27946e-24)
(0.0836869 -0.000502606 1.33718e-25)
(0.0846156 -0.00046204 -1.18503e-25)
(0.0854718 -0.000425267 0)
(0.086262 -0.000391972 -8.85196e-26)
(0.0869926 -0.000361843 3.50876e-25)
(0.087669 -0.000334585 -3.37533e-25)
(0.0882964 -0.000309917 4.72726e-26)
(0.0888793 -0.000287578 -9.57249e-26)
(0.0894218 -0.000267328 3.77313e-26)
(0.0899277 -0.000248949 2.05924e-26)
(0.0904002 -0.000232243 -8.31943e-27)
(0.0908423 -0.000217029 -7.40106e-27)
(-0.000306464 0.000893688 -1.17145e-21)
(-0.00102264 0.00140034 -1.26565e-21)
(-0.00171133 0.00115844 1.24733e-21)
(-0.00205549 0.000502334 -5.78054e-22)
(-0.00190885 -0.000354839 5.79492e-22)
(-0.00122948 -0.00129376 8.72379e-24)
(-1.05344e-05 -0.00222967 -1.68171e-23)
(0.00172554 -0.00310702 -4.91969e-22)
(0.00393399 -0.00389763 4.76891e-22)
(0.00655973 -0.00458344 -1.32221e-23)
(0.00954218 -0.00515597 -1.19095e-23)
(0.0128177 -0.00561364 3.12027e-22)
(0.016323 -0.00595956 -3.12443e-22)
(0.019997 -0.00619999 -2.33642e-22)
(0.0237826 -0.00634335 3.59804e-23)
(0.0276274 -0.0063994 1.98238e-22)
(0.0314844 -0.00637854 -2.30136e-24)
(0.0353121 -0.0062914 -3.9432e-24)
(0.039075 -0.00614844 0)
(0.0427432 -0.00595968 0)
(0.0462922 -0.00573453 0)
(0.0497027 -0.00548163 -6.25535e-25)
(0.0529601 -0.00520881 2.19522e-23)
(0.0560539 -0.00492301 -2.40351e-23)
(0.0589777 -0.00463032 6.12251e-24)
(0.0617282 -0.00433596 -6.08782e-24)
(0.0643051 -0.00404435 1.8867e-24)
(0.0667105 -0.00375918 -2.06524e-24)
(0.0689487 -0.00348339 1.48163e-25)
(0.0710253 -0.00321927 2.92943e-25)
(0.0729474 -0.00296853 -1.92159e-25)
(0.0747229 -0.00273232 5.53302e-25)
(0.0763604 -0.00251134 -5.97316e-24)
(0.0778689 -0.00230588 1.22863e-23)
(0.0792574 -0.0021159 -5.80157e-24)
(0.0805348 -0.00194108 5.00567e-25)
(0.08171 -0.00178088 -1.63148e-25)
(0.0827915 -0.0016346 0)
(0.0837872 -0.00150142 2.08158e-24)
(0.0847047 -0.00138044 -1.85162e-24)
(0.0855512 -0.00127075 -1.3035e-24)
(0.086333 -0.00117141 1.74838e-24)
(0.0870562 -0.00108149 -7.4137e-26)
(0.0877263 -0.00100012 -2.46072e-25)
(0.088348 -0.000926459 4.54082e-25)
(0.0889259 -0.000859744 3.48462e-26)
(0.0894641 -0.000799258 1.27558e-25)
(0.0899661 -0.000744351 -3.65314e-26)
(0.0904352 -0.000694431 -3.15487e-26)
(0.0908742 -0.000648957 1.47073e-26)
(-0.00040583 0.00135812 -1.23682e-21)
(-0.00109784 0.00205845 1.3337e-21)
(-0.00143863 0.00165364 -1.29381e-21)
(-0.00134135 0.000596188 -1.95565e-23)
(-0.000750098 -0.000772306 -6.07524e-25)
(0.000326369 -0.00226716 -1.1183e-21)
(0.00188178 -0.00375816 1.15504e-21)
(0.00388288 -0.00516319 1.0082e-21)
(0.00628321 -0.00643274 -6.69163e-23)
(0.00903478 -0.00753659 -1.72523e-21)
(0.0120839 -0.00846056 1.58044e-21)
(0.0153748 -0.00920124 -7.30469e-22)
(0.0188526 -0.00976276 -9.8709e-24)
(0.0224643 -0.0101545 0)
(0.0261601 -0.0103895 4.28817e-22)
(0.0298942 -0.0104831 -7.43336e-23)
(0.0336256 -0.0104517 -3.48859e-22)
(0.0373179 -0.0103122 8.30171e-24)
(0.04094 -0.0100816 0)
(0.0444654 -0.00977599 0)
(0.0478727 -0.00941053 5.62271e-23)
(0.0511448 -0.0089993 -5.46374e-23)
(0.0542691 -0.00855503 -2.78214e-23)
(0.0572363 -0.00808909 2.94865e-23)
(0.060041 -0.00761141 5.4379e-25)
(0.0626807 -0.00713057 -3.07675e-25)
(0.0651552 -0.00665386 1.22767e-25)
(0.0674669 -0.0061873 4.43983e-24)
(0.0696198 -0.00573579 -4.46273e-24)
(0.0716195 -0.00530311 8.38408e-24)
(0.0734725 -0.00489208 -8.88545e-24)
(0.0751865 -0.00450465 -3.54943e-25)
(0.0767694 -0.00414198 -1.07431e-23)
(0.0782296 -0.0038046 2.08787e-23)
(0.0795756 -0.00349246 -1.08441e-23)
(0.0808159 -0.00320507 -5.05502e-24)
(0.0819585 -0.00294158 4.47358e-24)
(0.0830116 -0.00270086 0)
(0.0839826 -0.00248158 -3.22129e-26)
(0.0848786 -0.00228231 0)
(0.0857064 -0.00210154 -2.70344e-24)
(0.0864719 -0.00193774 2.51738e-24)
(0.0871808 -0.00178943 -1.15688e-25)
(0.0878383 -0.00165517 -1.79943e-26)
(0.0884491 -0.00153358 -5.47772e-25)
(0.0890175 -0.00142342 8.3832e-25)
(0.0895471 -0.00132352 -3.65739e-25)
(0.0900416 -0.0012328 1.33271e-27)
(0.090504 -0.00115029 -3.08308e-26)
(0.090937 -0.00107508 8.26188e-28)
(-0.000512537 0.0015928 -2.73066e-21)
(-0.00109215 0.00233551 0)
(-0.00089092 0.00176625 2.72683e-21)
(-0.00016794 0.000398105 -5.39652e-21)
(0.00104703 -0.00140043 2.68897e-21)
(0.0026689 -0.0033647 1.16418e-21)
(0.00467023 -0.00532537 -1.22206e-21)
(0.00701499 -0.0071804 1.05151e-21)
(0.00966172 -0.00886199 -2.03478e-21)
(0.0125686 -0.0103302 9.67742e-22)
(0.0156922 -0.0115646 1.3421e-23)
(0.0189889 -0.0125589 6.3107e-25)
(0.0224152 -0.0133166 1.00402e-23)
(0.0259293 -0.0138487 -5.45253e-22)
(0.0294917 -0.0141714 5.28622e-22)
(0.0330656 -0.014304 1.32585e-23)
(0.0366178 -0.0142679 -5.32174e-24)
(0.0401188 -0.0140854 2.66606e-22)
(0.043543 -0.0137787 -2.66246e-22)
(0.046869 -0.0133694 -3.21153e-24)
(0.0500789 -0.0128779 0)
(0.0531589 -0.0123231 3.21908e-25)
(0.0560984 -0.0117224 0)
(0.0588904 -0.0110911 1.11e-24)
(0.0615302 -0.0104428 2.34712e-25)
(0.0640163 -0.00978932 3.10586e-25)
(0.066349 -0.00914059 -8.35844e-24)
(0.0685307 -0.00850495 8.40426e-24)
(0.0705654 -0.00788914 0)
(0.0724581 -0.00729844 5.63526e-24)
(0.0742152 -0.00673677 -5.63971e-24)
(0.0758434 -0.00620688 0)
(0.0773501 -0.00571043 -9.14837e-26)
(0.0787428 -0.00524822 8.72678e-24)
(0.0800294 -0.00482024 -1.68855e-23)
(0.0812174 -0.0044259 1.60738e-23)
(0.0823143 -0.00406407 -1.50784e-23)
(0.0833274 -0.00373327 1.39494e-23)
(0.0842635 -0.00343173 -6.69864e-24)
(0.0851291 -0.00315752 -2.60164e-24)
(0.0859302 -0.0029086 2.30557e-24)
(0.0866725 -0.00268292 1.09546e-25)
(0.0873611 -0.00247845 1.50327e-24)
(0.0880008 -0.00229325 -2.75149e-24)
(0.088596 -0.00212545 1.09534e-24)
(0.0891505 -0.00197334 1.96224e-26)
(0.089668 -0.00183533 -2.54701e-26)
(0.0901516 -0.00170996 -1.57409e-26)
(0.0906043 -0.00159588 -1.24425e-26)
(0.0910287 -0.00149181 7.16534e-26)
(-0.000503386 0.00152707 -2.18973e-24)
(-0.000766701 0.00215899 -2.58018e-23)
(0.000166451 0.00142253 -2.45843e-23)
(0.00164898 -0.000187519 -2.35107e-23)
(0.00355498 -0.00229855 -4.37498e-23)
(0.00580059 -0.00459664 -8.8788e-25)
(0.00830423 -0.00690476 1.91856e-23)
(0.0110231 -0.00910321 -1.87144e-23)
(0.0139252 -0.0111106 -1.73542e-23)
(0.0169808 -0.0128764 1.88255e-21)