/*--------------------------------*- C++ -*----------------------------------*\
| =========                 |                                                 |
| \\      /  F ield         | OpenFOAM: The Open Source CFD Toolbox           |
|  \\    /   O peration     | Version:  2412                                  |
|   \\  /    A nd           | Website:  www.openfoam.com                      |
|    \\/     M anipulation  |                                                 |
\*---------------------------------------------------------------------------*/
FoamFile
{
    version     2.0;
    format      ascii;
    arch        "LSB;label=32;scalar=64";
    class       volVectorField;
    location    "12";
    object      vorticity;
}
// * * * * * * * * * * * * * * * * * * * * * * * * * * * * * * * * * * * * * //

dimensions      [0 0 -1 0 0 0 0];

internalField   nonuniform List<vector> 
63420
(
(0 0 5.63191e-06)
(0 0 5.71996e-06)
(0 0 9.03755e-06)
(0 0 1.63579e-05)
(0 0 2.36165e-05)
(0 0 2.45644e-05)
(0 0 1.58745e-05)
(0 0 -4.56766e-07)
(0 0 -1.88414e-05)
(0 0 -3.36306e-05)
(0 0 -4.16552e-05)
(0 0 -4.27189e-05)
(0 0 -3.86248e-05)
(0 0 -3.18218e-05)
(0 0 -2.44165e-05)
(0 0 -1.77568e-05)
(0 0 -1.24487e-05)
(0 0 -8.57475e-06)
(0 0 -5.93788e-06)
(0 0 -4.24468e-06)
(0 0 -3.21192e-06)
(0 0 -2.61179e-06)
(0 0 -2.28026e-06)
(0 0 -2.10802e-06)
(0 0 -2.02648e-06)
(0 0 -1.99458e-06)
(0 0 -1.98871e-06)
(0 0 -1.99575e-06)
(0 0 -2.00861e-06)
(0 0 -2.02355e-06)
(0 0 -2.0386e-06)
(0 0 -2.0527e-06)
(0 0 -2.0653e-06)
(0 0 -2.07606e-06)
(0 0 -2.08479e-06)
(0 0 -2.09132e-06)
(0 0 -2.09554e-06)
(0 0 -2.09734e-06)
(0 0 -2.09662e-06)
(0 0 -2.09329e-06)
(0 0 -2.08721e-06)
(0 0 -2.07822e-06)
(0 0 -2.06614e-06)
(0 0 -2.05074e-06)
(0 0 -2.03183e-06)
(0 0 -2.00914e-06)
(0 0 -1.98235e-06)
(0 0 -1.95087e-06)
(0 0 -1.91332e-06)
(0 0 -1.8653e-06)
(0 0 -1.79167e-06)
(0 0 -1.64097e-06)
(0 0 -1.24387e-06)
(0 0 -6.27919e-08)
(0 4.61934e-23 3.54694e-06)
(0 0 1.69032e-05)
(0 0 1.71605e-05)
(0 0 2.70246e-05)
(0 0 4.88436e-05)
(0 0 7.05696e-05)
(0 0 7.36045e-05)
(0 0 4.79877e-05)
(0 0 -4.2022e-07)
(0 0 -5.50455e-05)
(0 0 -9.90888e-05)
(0 0 -0.000123092)
(0 0 -0.000126429)
(0 0 -0.000114425)
(0 0 -9.43401e-05)
(0 0 -7.24312e-05)
(0 0 -5.27071e-05)
(0 0 -3.69753e-05)
(0 0 -2.5488e-05)
(0 0 -1.76653e-05)
(0 0 -1.26399e-05)
(0 0 -9.5735e-06)
(0 0 -7.79103e-06)
(0 0 -6.80629e-06)
(0 0 -6.29521e-06)
(0 0 -6.05433e-06)
(0 0 -5.96179e-06)
(0 0 -5.94742e-06)
(0 0 -5.97202e-06)
(0 0 -6.01433e-06)
(0 0 -6.06309e-06)
(0 0 -6.11245e-06)
(0 0 -6.15935e-06)
(0 0 -6.20208e-06)
(0 0 -6.23961e-06)
(0 0 -6.27132e-06)
(0 0 -6.29678e-06)
(0 0 -6.31571e-06)
(0 0 -6.32777e-06)
(0 0 -6.33259e-06)
(0 0 -6.32977e-06)
(0 0 -6.31891e-06)
(0 0 -6.29963e-06)
(0 0 -6.27143e-06)
(0 0 -6.23371e-06)
(0 0 -6.18574e-06)
(0 0 -6.12674e-06)
(0 0 -6.05573e-06)
(0 0 -5.97109e-06)
(0 0 -5.86876e-06)
(0 0 -5.73589e-06)
(0 0 -5.52859e-06)
(0 0 -5.09767e-06)
(0 0 -3.95156e-06)
(0 0 -5.26628e-07)
(0 4.66598e-23 9.9699e-06)
(0 0 2.81811e-05)
(0 0 2.85819e-05)
(0 0 4.47788e-05)
(0 0 8.07924e-05)
(0 0 0.000116971)
(0 0 0.000122712)
(0 0 8.14217e-05)
(0 0 2.45936e-06)
(0 0 -8.71002e-05)
(0 0 -0.000159652)
(0 0 -0.00019954)
(0 0 -0.000205582)
(0 0 -0.000186404)
(0 0 -0.000153864)
(0 0 -0.000118214)
(0 0 -8.60484e-05)
(0 0 -6.0357e-05)
(0 0 -4.15785e-05)
(0 0 -2.87806e-05)
(0 0 -2.05538e-05)
(0 0 -1.55308e-05)
(0 0 -1.26092e-05)
(0 0 -1.09942e-05)
(0 0 -1.01555e-05)
(0 0 -9.75999e-06)
(0 0 -9.60805e-06)
(0 0 -9.58453e-06)
(0 0 -9.62515e-06)
(0 0 -9.69505e-06)
(0 0 -9.77578e-06)
(0 0 -9.85772e-06)
(0 0 -9.93577e-06)
(0 0 -1.00071e-05)
(0 0 -1.00701e-05)
(0 0 -1.01237e-05)
(0 0 -1.01674e-05)
(0 0 -1.02005e-05)
(0 0 -1.02226e-05)
(0 0 -1.02329e-05)
(0 0 -1.02308e-05)
(0 0 -1.02159e-05)
(0 0 -1.01873e-05)
(0 0 -1.01442e-05)
(0 0 -1.00857e-05)
(0 0 -1.00105e-05)
(0 0 -9.91756e-06)
(0 0 -9.8052e-06)
(0 0 -9.67082e-06)
(0 0 -9.508e-06)
(0 0 -9.29687e-06)
(0 0 -8.96955e-06)
(0 0 -8.29476e-06)
(0 0 -6.50725e-06)
(0 0 -1.16228e-06)
(0 2.75423e-22 1.52649e-05)
(0 0 3.94689e-05)
(0 0 3.99723e-05)
(0 0 6.21588e-05)
(0 0 0.000111877)
(0 0 0.000162477)
(0 0 0.000171912)
(0 0 0.000116951)
(0 0 9.87221e-06)
(0 0 -0.000112526)
(0 0 -0.000212387)
(0 0 -0.000268002)
(0 0 -0.000277438)
(0 0 -0.000252266)
(0 0 -0.000208592)
(0 0 -0.000160423)
(0 0 -0.000116813)
(0 0 -8.1906e-05)
(0 0 -5.6353e-05)
(0 0 -3.89176e-05)
(0 0 -2.76986e-05)
(0 0 -2.08427e-05)
(0 0 -1.68516e-05)
(0 0 -1.46432e-05)
(0 0 -1.3495e-05)
(0 0 -1.29523e-05)
(0 0 -1.27427e-05)
(0 0 -1.27089e-05)
(0 0 -1.27632e-05)
(0 0 -1.28578e-05)
(0 0 -1.29676e-05)
(0 0 -1.30792e-05)
(0 0 -1.31857e-05)
(0 0 -1.32833e-05)
(0 0 -1.33698e-05)
(0 0 -1.34438e-05)
(0 0 -1.35045e-05)
(0 0 -1.35511e-05)
(0 0 -1.35827e-05)
(0 0 -1.35985e-05)
(0 0 -1.35979e-05)
(0 0 -1.35798e-05)
(0 0 -1.35433e-05)
(0 0 -1.34874e-05)
(0 0 -1.34106e-05)
(0 0 -1.33116e-05)
(0 0 -1.31886e-05)
(0 0 -1.30395e-05)
(0 0 -1.28608e-05)
(0 0 -1.26445e-05)
(0 0 -1.23657e-05)
(0 0 -1.19403e-05)
(0 0 -1.10798e-05)
(0 0 -8.8251e-06)
(0 0 -2.08819e-06)
(0 -1.80849e-22 1.87081e-05)
(0 0 5.07686e-05)
(0 0 5.13204e-05)
(0 0 7.90428e-05)
(0 0 0.000141814)
(0 0 0.000206785)
(0 0 0.0002212)
(0 0 0.000155198)
(0 0 2.3215e-05)
(0 0 -0.000129253)
(0 0 -0.000254833)
(0 0 -0.000325959)
(0 0 -0.00033969)
(0 0 -0.000310071)
(0 0 -0.000257003)
(0 0 -0.000197924)
(0 0 -0.000144185)
(0 0 -0.000101044)
(0 0 -6.93979e-05)
(0 0 -4.77706e-05)
(0 0 -3.3836e-05)
(0 0 -2.53104e-05)
(0 0 -2.03416e-05)
(0 0 -1.75884e-05)
(0 0 -1.61542e-05)
(0 0 -1.54741e-05)
(0 0 -1.52092e-05)
(0 0 -1.51636e-05)
(0 0 -1.52283e-05)
(0 0 -1.53437e-05)
(0 0 -1.54784e-05)
(0 0 -1.56159e-05)
(0 0 -1.57473e-05)
(0 0 -1.5868e-05)
(0 0 -1.59753e-05)
(0 0 -1.60675e-05)
(0 0 -1.61436e-05)
(0 0 -1.62024e-05)
(0 0 -1.6243e-05)
(0 0 -1.62645e-05)
(0 0 -1.62658e-05)
(0 0 -1.62459e-05)
(0 0 -1.62036e-05)
(0 0 -1.61375e-05)
(0 0 -1.6046e-05)
(0 0 -1.59273e-05)
(0 0 -1.57793e-05)
(0 0 -1.55994e-05)
(0 0 -1.53837e-05)
(0 0 -1.5123e-05)
(0 0 -1.47905e-05)
(0 0 -1.4295e-05)
(0 0 -1.33248e-05)
(0 0 -1.08354e-05)
(0 0 -3.42344e-06)
(0 8.92813e-23 1.96298e-05)
(0 0 6.20808e-05)
(0 0 6.26163e-05)
(0 0 9.53353e-05)
(0 0 0.000170375)
(0 0 0.000249634)
(0 0 0.000270527)
(0 0 0.000196581)
(0 0 4.34924e-05)
(0 0 -0.00013576)
(0 0 -0.000285159)
(0 0 -0.000371521)
(0 0 -0.000390597)
(0 0 -0.000358354)
(0 0 -0.000297945)
(0 0 -0.000229859)
(0 0 -0.000167548)
(0 0 -0.000117336)
(0 0 -8.04049e-05)
(0 0 -5.51142e-05)
(0 0 -3.87919e-05)
(0 0 -2.87903e-05)
(0 0 -2.29524e-05)
(0 0 -1.9712e-05)
(0 0 -1.80196e-05)
(0 0 -1.72134e-05)
(0 0 -1.68956e-05)
(0 0 -1.68364e-05)
(0 0 -1.69074e-05)
(0 0 -1.70387e-05)
(0 0 -1.71934e-05)
(0 0 -1.73518e-05)
(0 0 -1.75037e-05)
(0 0 -1.76435e-05)
(0 0 -1.77682e-05)
(0 0 -1.78758e-05)
(0 0 -1.79649e-05)
(0 0 -1.80344e-05)
(0 0 -1.80831e-05)
(0 0 -1.81099e-05)
(0 0 -1.81137e-05)
(0 0 -1.80932e-05)
(0 0 -1.80471e-05)
(0 0 -1.79736e-05)
(0 0 -1.78711e-05)
(0 0 -1.77373e-05)
(0 0 -1.757e-05)
(0 0 -1.73661e-05)
(0 0 -1.71213e-05)
(0 0 -1.68265e-05)
(0 0 -1.64553e-05)
(0 0 -1.59206e-05)
(0 0 -1.49262e-05)
(0 0 -1.24775e-05)
(0 0 -5.28319e-06)
(0 4.40524e-22 1.73692e-05)
(0 0 7.34018e-05)
(0 0 7.3851e-05)
(0 0 0.000110971)
(0 0 0.000197401)
(0 0 0.000290821)
(0 0 0.000319797)
(0 0 0.000241282)
(0 0 7.12548e-05)
(0 0 -0.000131157)
(0 0 -0.000302261)
(0 0 -0.000403528)
(0 0 -0.000429079)
(0 0 -0.000396199)
(0 0 -0.000330698)
(0 0 -0.000255693)
(0 0 -0.000186521)
(0 0 -0.000130517)
(0 0 -8.91896e-05)
(0 0 -6.08176e-05)
(0 0 -4.24687e-05)
(0 0 -3.12045e-05)
(0 0 -2.46172e-05)
(0 0 -2.09527e-05)
(0 0 -1.90327e-05)
(0 0 -1.81126e-05)
(0 0 -1.77445e-05)
(0 0 -1.76691e-05)
(0 0 -1.77417e-05)
(0 0 -1.78833e-05)
(0 0 -1.8052e-05)
(0 0 -1.82257e-05)
(0 0 -1.83927e-05)
(0 0 -1.8547e-05)
(0 0 -1.86848e-05)
(0 0 -1.88042e-05)
(0 0 -1.89034e-05)
(0 0 -1.89812e-05)
(0 0 -1.90364e-05)
(0 0 -1.90678e-05)
(0 0 -1.9074e-05)
(0 0 -1.90536e-05)
(0 0 -1.90052e-05)
(0 0 -1.89269e-05)
(0 0 -1.88166e-05)
(0 0 -1.86721e-05)
(0 0 -1.84907e-05)
(0 0 -1.82692e-05)
(0 0 -1.80032e-05)
(0 0 -1.76842e-05)
(0 0 -1.72888e-05)
(0 0 -1.67435e-05)
(0 0 -1.58061e-05)
(0 0 -1.36846e-05)
(0 0 -7.77345e-06)
(0 -8.61976e-23 1.11406e-05)
(-1.57707e-23 7.99127e-21 1.80311e-06)
(-1.49842e-22 7.85684e-21 1.23198e-06)
(3.46862e-23 -2.00851e-22 4.04807e-07)
(3.50294e-23 -2.34669e-20 -7.54446e-07)
(-9.44253e-23 8.0219e-21 -2.32716e-06)
(3.72612e-22 7.87969e-21 -4.40241e-06)
(-8.08735e-22 2.29679e-20 -7.07457e-06)
(3.15966e-22 -2.33461e-20 -1.04385e-05)
(6.37794e-22 -7.50939e-21 -1.45832e-05)
(-9.14439e-22 -3.76153e-24 -1.95811e-05)
(-9.15599e-22 -7.52974e-21 -2.54732e-05)
(8.02341e-22 7.14765e-21 -3.22536e-05)
(5.66772e-22 -5.89512e-20 -3.98555e-05)
(-1.0415e-21 1.2661e-19 -4.81425e-05)
(3.5305e-22 -6.81485e-20 -5.69093e-05)
(-1.26015e-21 -5.13909e-20 -6.58901e-05)
(2.38507e-21 -6.54303e-20 -7.47862e-05)
(-1.88078e-21 7.72317e-21 -8.32759e-05)
(-1.95696e-22 -7.20105e-21 -9.10803e-05)
(7.7638e-23 7.20983e-21 -9.79755e-05)
(-3.19051e-24 -1.30497e-22 -0.000103848)
(-7.31538e-23 -6.95908e-21 -0.000108714)
(-2.03329e-21 7.02516e-21 -0.000112732)
(4.26327e-21 1.30808e-23 -0.000116208)
(1.24923e-21 6.82814e-21 -0.000119583)
(-3.32106e-21 -5.40006e-24 -0.000123404)
(4.78478e-21 7.95496e-21 -0.000128293)
(-5.54976e-21 1.03148e-19 -0.000134923)
(6.34909e-22 -1.10779e-19 -0.000143991)
(-2.10369e-21 1.01365e-19 -0.000156223)
(2.0479e-21 -1.02526e-19 -0.000172394)
(4.91767e-23 1.35984e-21 -0.000193413)
(-6.40879e-23 -1.67153e-21 -0.000220482)
(2.74571e-21 -9.73872e-20 -0.000255405)
(-8.72333e-21 9.45356e-20 -0.000301167)
(-3.246e-22 -1.57122e-21 -0.000362972)
(6.30491e-21 1.37895e-23 -0.000450074)
(6.86481e-21 1.5014e-23 -0.000578886)
(-6.84285e-21 -1.4966e-23 -0.000778025)
(-2.27195e-22 -4.96899e-25 -0.00109606)
(-2.37151e-22 -5.18672e-25 -0.00161263)
(-8.17696e-21 -1.78838e-23 -0.00245299)
(7.89273e-21 1.72622e-23 -0.00380486)
(-2.61137e-22 1.5557e-22 -0.00593415)
(-2.63371e-23 8.05546e-21 -0.0091932)
(-2.53281e-20 5.21719e-20 -0.0140118)
(2.4393e-20 -6.87663e-20 -0.0208571)
(-5.74061e-21 -9.83641e-21 -0.0301463)
(6.31006e-21 2.67922e-20 -0.0421056)
(-2.09856e-20 -5.85927e-21 -0.056486)
(-2.61233e-22 8.00534e-21 5.05291e-06)
(-1.01551e-22 1.57467e-20 3.28168e-06)
(3.15171e-22 7.65969e-21 6.98131e-07)
(-8.91413e-22 -7.87062e-21 -2.9232e-06)
(1.654e-21 7.5044e-21 -7.82295e-06)
(-5.26864e-22 -5.37947e-20 -1.42584e-05)
(-1.92005e-22 8.54464e-20 -2.25038e-05)
(-5.99157e-23 -8.92572e-21 -3.28404e-05)
(2.17791e-21 -9.84241e-20 -4.55355e-05)
(-2.24813e-21 1.39024e-19 -6.08082e-05)
(-7.90306e-22 1.27016e-19 -7.87875e-05)
(5.77385e-22 -1.14318e-19 -9.94657e-05)
(-3.99337e-22 7.49263e-22 -0.000122656)
(2.84574e-21 -7.28031e-21 -0.000147967)
(-2.20541e-21 2.42588e-20 -0.000174803)
(-5.92165e-21 2.40695e-19 -0.000202395)
(1.50606e-21 -2.26453e-19 -0.000229857)
(-5.51734e-21 2.42716e-19 -0.000256299)
(-2.83165e-22 1.96208e-20 -0.000280888)
(-3.89837e-21 -7.37117e-21 -0.000302997)
(4.11679e-21 1.47257e-22 -0.000322303)
(-4.12337e-21 9.18794e-21 -0.000338864)
(1.27192e-21 2.1128e-19 -0.000353179)
(5.50635e-21 -4.4768e-19 -0.000366185)
(4.28246e-21 -2.14059e-19 -0.000379216)
(-6.56399e-21 4.33273e-19 -0.000393927)
(3.0956e-21 -4.32669e-19 -0.000412208)
(-1.38162e-21 4.44006e-19 -0.000436096)
(3.33906e-21 1.42848e-21 -0.000467723)
(-3.77322e-21 -9.88659e-23 -0.000509307)
(-1.2678e-21 -2.7728e-24 -0.000563247)
(0 0 -0.000632348)
(1.87557e-22 9.73523e-23 -0.000720325)
(1.12274e-20 1.25363e-20 -0.000832736)
(-1.52616e-20 3.652e-19 -0.000978731)
(-1.60154e-20 -2.42039e-20 -0.00117422)
(1.8142e-20 -3.60692e-19 -0.00144741)
(2.62536e-20 -3.1235e-19 -0.00184828)
(-8.72832e-21 3.33768e-19 -0.00246385)
(-3.17754e-20 2.20005e-21 -0.00344166)
(3.11347e-20 1.77124e-20 -0.00502332)
(-4.23069e-20 2.39518e-19 -0.0075883)
(2.25441e-20 -2.49195e-19 -0.0117045)
(-1.84675e-20 1.50232e-20 -0.0181754)
(2.04985e-20 7.95905e-21 -0.0280643)
(-6.1233e-20 1.16683e-19 -0.0426674)
(6.11696e-20 -1.14198e-19 -0.0633894)
(-9.47573e-20 8.56323e-20 -0.0914655)
(9.14364e-20 -9.56019e-20 -0.127503)
(-1.93605e-20 -6.57835e-22 -0.16933)
(-1.69806e-23 4.74116e-20 8.09778e-06)
(-8.07387e-23 1.49825e-20 4.93472e-06)
(3.55876e-22 -6.2097e-20 2.58288e-07)
(-7.46444e-22 1.23577e-19 -6.29228e-06)
(1.65618e-21 -2.64632e-19 -1.50886e-05)
(4.72173e-22 1.25885e-19 -2.65331e-05)
(-2.49831e-21 -8.8907e-22 -4.10627e-05)
(1.58624e-21 -1.71462e-20 -5.91355e-05)
(1.33721e-21 -2.58411e-19 -8.11959e-05)
(9.29291e-22 2.46308e-19 -0.000107619)
(-8.76094e-22 -1.66212e-21 -0.00013864)
(-4.29699e-21 -1.5896e-23 -0.000174277)
(6.82171e-21 -1.88851e-21 -0.000214268)
(-4.26313e-21 -2.52344e-19 -0.00025802)
(5.47041e-21 2.29459e-19 -0.000304613)
(-1.12053e-20 4.55963e-19 -0.000352849)
(-5.00256e-21 -1.22949e-20 -0.00040136)
(-4.30863e-21 4.69326e-19 -0.000448743)
(4.03104e-22 -1.42521e-20 -0.000493733)
(-1.19983e-20 4.56223e-19 -0.000535379)
(1.18912e-20 -4.73884e-19 -0.00057322)
(-8.61977e-21 4.52979e-19 -0.000607437)
(1.66668e-21 -4.71227e-19 -0.000638925)
(5.30577e-21 -9.3452e-21 -0.000669306)
(-2.61552e-21 1.38273e-20 -0.000700853)
(5.62365e-21 -8.85874e-21 -0.000736384)
(-1.82835e-20 4.25962e-19 -0.000779122)
(1.63148e-20 -4.54181e-19 -0.000832562)
(1.77649e-20 -4.22456e-19 -0.000900389)
(-1.44247e-20 4.24567e-19 -0.000986482)
(-1.10642e-21 -5.28218e-21 -0.00109507)
(1.14602e-20 -1.24038e-22 -0.00123112)
(-1.31585e-20 -2.52417e-20 -0.00140121)
(5.20297e-20 -7.7528e-19 -0.00161509)
(1.69966e-20 5.66174e-20 -0.00188865)
(-6.94253e-20 7.30879e-19 -0.00224932)
(4.05675e-21 -1.26327e-20 -0.00274555)
(-1.16897e-20 -5.07189e-21 -0.00346287)
(1.10248e-19 -6.16495e-19 -0.00455001)
(-2.04942e-19 1.21195e-18 -0.00625864)
(2.09299e-19 -1.20644e-18 -0.00900016)
(7.36042e-20 8.65275e-20 -0.0134194)
(-1.59237e-19 5.29743e-19 -0.0204796)
(-1.68277e-19 3.66769e-19 -0.0315413)
(1.58841e-19 -4.34951e-19 -0.0484049)
(-2.29836e-20 2.011e-20 -0.0732665)
(5.68004e-20 -1.79508e-20 -0.108506)
(1.708e-19 -1.06282e-19 -0.156173)
(-1.84852e-19 1.65752e-19 -0.217087)
(-2.62103e-20 -4.24303e-20 -0.282898)
(3.94669e-22 -3.1262e-20 1.06811e-05)
(-3.66078e-22 1.58161e-20 5.66928e-06)
(7.1098e-22 -1.7611e-22 -1.82804e-06)
(-6.42728e-22 -1.55617e-20 -1.22431e-05)
(-9.9135e-22 -1.48258e-21 -2.60193e-05)
(3.23134e-21 -2.44291e-19 -4.36613e-05)
(-4.45312e-21 4.62772e-19 -6.57464e-05)
(2.1516e-21 -2.49256e-19 -9.29027e-05)
(-1.85683e-21 1.50332e-20 -0.000125759)
(4.7287e-21 -2.72996e-19 -0.000164865)
(-5.77392e-21 2.49239e-19 -0.000210597)
(-3.737e-21 4.75668e-19 -0.000263056)
(1.00788e-20 -9.62749e-19 -0.000321968)
(-1.22713e-20 9.62004e-19 -0.000386634)
(1.65421e-20 -9.57762e-19 -0.000455925)
(-1.04237e-20 9.49659e-19 -0.000528345)
(-9.51824e-21 4.82909e-19 -0.000602177)
(-7.17791e-22 -3.86385e-21 -0.000675673)
(4.62157e-21 4.01015e-21 -0.000747279)
(-6.97558e-21 4.46173e-19 -0.000815866)
(-2.88131e-21 -4.68703e-19 -0.000880989)
(1.51587e-20 1.30616e-20 -0.000943075)
(-3.22776e-20 9.00967e-19 -0.00100354)
(2.39485e-20 -9.042e-19 -0.00106478)
(2.29433e-21 -5.29025e-21 -0.00113013)
(-1.00025e-20 -9.11883e-23 -0.00120369)
(1.51407e-20 -1.36928e-20 -0.00129017)
(-4.93602e-21 1.26574e-22 -0.00139471)
(-5.43453e-21 -6.3353e-23 -0.00152282)
(5.16269e-21 2.0076e-22 -0.00168035)
(-3.76665e-21 1.34263e-21 -0.00187379)
(6.16352e-20 -8.03803e-19 -0.0021108)
(-5.55855e-20 8.26886e-19 -0.0024014)
(-1.64548e-20 1.22625e-22 -0.00276027)
(1.91269e-20 -1.03963e-20 -0.00321099)
(-9.80694e-20 7.40872e-19 -0.00379373)
(1.15211e-19 -7.44345e-19 -0.00457889)
(-2.34267e-20 2.32138e-21 -0.00569033)
(1.6536e-20 -8.78493e-23 -0.00734291)
(3.93161e-20 6.71944e-21 -0.00989982)
(-2.51906e-19 5.59466e-19 -0.0139541)
(3.72022e-19 -1.13548e-18 -0.020434)
(-1.81657e-19 5.75884e-19 -0.0307252)
(2.67336e-19 -4.42353e-19 -0.0467868)
(-2.58478e-19 5.21469e-19 -0.0712217)
(-6.08051e-19 5.39961e-19 -0.107234)
(1.14988e-18 -1.14552e-18 -0.158346)
(-5.64075e-19 5.7911e-19 -0.22759)
(1.95114e-20 -2.28621e-21 -0.315809)
(4.72203e-21 -3.62884e-20 -0.400565)
(-7.44687e-22 1.58993e-20 1.23853e-05)
(-2.37822e-22 6.08413e-20 4.5043e-06)
(1.89062e-21 -1.84813e-19 -7.23483e-06)
(-1.16069e-21 2.48089e-19 -2.31512e-05)
(-3.58965e-22 -1.09899e-19 -4.36652e-05)
(1.0383e-22 -1.46727e-20 -6.93474e-05)
(-4.73842e-22 1.54897e-20 -0.00010091)
(3.10764e-21 -1.9168e-22 -0.000139163)
(-2.97225e-21 -1.51408e-20 -0.000184944)
(-5.35145e-21 3.40386e-20 -0.00023902)
(-6.6014e-21 4.83801e-19 -0.000301962)
(1.83348e-20 -5.02916e-19 -0.000374027)
(-2.27331e-20 4.69366e-19 -0.000455039)
(1.88094e-20 -4.8831e-19 -0.000544322)
(-3.08299e-21 3.48521e-21 -0.000640691)
(1.12586e-20 4.85921e-23 -0.000742542)
(4.28493e-21 3.80693e-21 -0.000848011)
(-4.48696e-21 4.56686e-19 -0.000955224)
(1.97573e-20 -4.94333e-19 -0.00106255)
(6.52096e-21 2.73505e-20 -0.00116892)
(-4.44147e-20 9.42711e-19 -0.00127411)
(2.73864e-20 -9.45652e-19 -0.00137901)
(1.04562e-20 2.29671e-20 -0.00148572)
(-1.8475e-20 -2.38804e-22 -0.00159766)
(1.2089e-20 9.86513e-21 -0.0017194)
(-3.64272e-20 9.08365e-19 -0.00185659)
(2.9568e-20 -9.00063e-19 -0.0020157)
(2.90429e-21 9.84975e-21 -0.00220394)
(9.88662e-21 2.76195e-20 -0.00242908)
(-1.17855e-20 -5.62818e-22 -0.00269959)
(1.15365e-21 -1.32274e-20 -0.0030249)
(-3.8179e-20 1.34407e-20 -0.00341624)
(3.60402e-20 1.28164e-20 -0.00388809)
(-3.27457e-21 -2.58092e-20 -0.0044612)
(8.05016e-20 -7.53629e-19 -0.00516806)
(-7.11854e-20 7.76728e-19 -0.00606296)
(2.67867e-19 -1.49787e-18 -0.00723997)
(-2.44756e-19 1.51246e-18 -0.00886356)
(3.05954e-19 -1.41892e-18 -0.0112185)
(7.4138e-20 1.3371e-19 -0.0147863)
(-3.53287e-19 1.35354e-18 -0.0203539)
(-1.24694e-19 -2.29205e-20 -0.029155)
(1.6962e-20 3.89205e-22 -0.0430361)
(-1.90085e-20 5.70968e-22 -0.0646236)
(5.6106e-20 1.7155e-21 -0.0974554)
(2.71126e-20 1.40478e-20 -0.146013)
(-1.17165e-19 5.31981e-21 -0.215491)
(6.66987e-20 5.16961e-21 -0.310751)
(-1.71332e-22 -3.21641e-22 -0.433178)
(3.73327e-20 6.64675e-22 -0.533031)
(-6.54426e-22 7.6595e-20 1.25395e-05)
(1.65104e-21 -4.67208e-20 -5.03501e-07)
(-1.73015e-21 -1.64979e-20 -1.90519e-05)
(4.56324e-21 -2.28932e-19 -4.30416e-05)
(-2.11523e-21 2.30847e-19 -7.28445e-05)
(1.83884e-21 -2.28455e-19 -0.000109135)
(-1.07095e-20 5.03841e-19 -0.000152807)
(1.10813e-20 -7.0584e-19 -0.000204903)
(-7.1063e-21 4.99313e-19 -0.000266523)
(-5.4666e-21 4.86698e-19 -0.000338707)
(-2.20677e-21 3.87291e-21 -0.000422307)
(2.37485e-20 -9.56334e-19 -0.000517839)
(-2.04661e-20 9.95644e-19 -0.000625357)
(4.56935e-21 -4.68631e-19 -0.000744379)
(1.15979e-20 -4.70937e-19 -0.000873873)
(2.20242e-20 -4.63543e-19 -0.00101236)
(-3.11954e-21 6.89545e-21 -0.00115811)
(3.73439e-20 -9.61545e-19 -0.00130938)
(2.81169e-20 -9.23476e-19 -0.0014648)
(6.52898e-21 2.13056e-20 -0.00162363)
(-2.48077e-20 9.59595e-19 -0.0017862)
(-2.06032e-20 -8.27273e-21 -0.00195414)
(1.25783e-20 9.15596e-21 -0.0021306)
(-4.86432e-20 9.30534e-19 -0.00232028)
(3.89482e-20 -9.45597e-19 -0.00252942)
(7.0863e-20 -9.08741e-19 -0.00276562)
(-7.21137e-20 9.39023e-19 -0.0030377)
(1.54245e-20 -2.04842e-20 -0.00335554)
(6.51956e-20 -9.07645e-19 -0.00373005)
(-9.3589e-20 9.31043e-19 -0.00417329)
(4.47814e-21 1.26599e-20 -0.00469888)
(-2.03313e-19 1.70822e-18 -0.00532296)
(1.82873e-19 -1.77271e-18 -0.00606607)
(4.97897e-20 6.35091e-20 -0.00695661)
(-2.64254e-19 1.62077e-18 -0.00803751)
(2.41288e-19 -1.69043e-18 -0.00937842)
(-3.2478e-20 -3.46131e-21 -0.0110977)
(4.7377e-19 -1.52822e-18 -0.0134002)
(-4.42819e-19 1.57876e-18 -0.0166403)
(-6.84447e-20 -7.45965e-20 -0.0214181)
(6.88005e-19 -1.33853e-18 -0.0287196)
(-1.20906e-18 2.76393e-18 -0.0401003)
(-7.00157e-20 -1.57564e-19 -0.0579067)
(-9.38627e-20 -1.23213e-19 -0.0855153)
(7.88456e-19 -1.2088e-18 -0.127576)
(4.08929e-20 6.52005e-20 -0.190271)
(-9.00665e-19 8.06642e-19 -0.281603)
(8.83145e-19 -8.86943e-19 -0.411125)
(9.99232e-21 2.99691e-20 -0.585613)
(9.78419e-21 -2.85411e-21 -0.706514)
(6.07565e-22 -1.59714e-20 1.02325e-05)
(1.56079e-21 -1.36085e-19 -1.34469e-05)
(-1.70371e-21 1.22764e-19 -4.26865e-05)
(-1.32641e-21 -1.73317e-20 -7.78632e-05)
(5.17481e-21 -2.27548e-19 -0.000119655)
(-4.75108e-21 2.34165e-19 -0.00016899)
(-5.30076e-21 4.72947e-19 -0.000227012)
(-5.24209e-21 -1.95303e-20 -0.000295019)
(2.29834e-21 -4.57211e-21 -0.000374377)
(1.40677e-20 -5.04482e-19 -0.000466403)
(-1.12997e-20 4.72208e-19 -0.000572229)
(1.64951e-20 -9.99254e-19 -0.000692644)
(-3.31394e-21 4.99674e-19 -0.00082797)
(-3.77304e-21 -1.88677e-20 -0.000977963)
(-5.02385e-21 -2.26286e-20 -0.00114181)
(2.70021e-20 -9.81464e-19 -0.00131825)
(-1.49471e-21 -2.00528e-20 -0.00150572)
(2.56187e-20 -9.99974e-19 -0.0017027)
(-5.57952e-21 -7.64398e-21 -0.00190801)
(-1.72182e-22 1.22317e-22 -0.00212121)
(1.17314e-20 8.64361e-21 -0.00234297)
(-5.07257e-20 9.63556e-19 -0.00257536)
(4.48336e-20 -9.84486e-19 -0.00282207)
(1.30889e-20 8.54588e-21 -0.00308842)
(-8.98294e-21 -1.51035e-20 -0.00338132)
(-6.32248e-21 1.01492e-20 -0.00370909)
(-7.14036e-20 9.32167e-19 -0.00408123)
(1.53963e-19 -1.90269e-18 -0.00450813)
(-7.26622e-20 9.92966e-19 -0.00500094)
(-1.86632e-19 1.84155e-18 -0.0055715)
(-3.09536e-20 -4.51305e-20 -0.00623243)
(2.92296e-21 -2.5593e-20 -0.00699781)
(-6.7579e-20 -5.36032e-20 -0.00788451)
(2.54408e-19 -1.84459e-18 -0.0089152)
(3.97489e-19 -1.70966e-18 -0.0101244)
(-3.53534e-19 1.79504e-18 -0.0115707)
(-3.49295e-20 -5.6504e-20 -0.0133594)
(4.73041e-19 -1.6396e-18 -0.0156838)
(-4.15536e-19 1.73747e-18 -0.0188965)
(-6.74195e-19 1.54599e-18 -0.0236235)
(5.7103e-19 -1.63348e-18 -0.0309364)
(8.06749e-20 -1.16013e-20 -0.0425906)
(8.86097e-19 -1.4505e-18 -0.061324)
(1.28287e-19 1.22899e-19 -0.0912042)
(-1.02845e-18 1.42395e-18 -0.138018)
(-1.6873e-20 -4.10163e-20 -0.209778)
(3.47195e-20 5.44524e-22 -0.318081)
(-3.54408e-20 1.58477e-20 -0.483178)
(-5.33828e-19 5.5893e-19 -0.743928)
(5.2524e-19 -5.68067e-19 -1.0262)
(-1.03763e-20 -3.00313e-21 0.00924086)
(-9.98334e-21 -3.28675e-22 0.0024194)
(9.34841e-21 9.31423e-21 -0.00325402)
(-7.4151e-21 -1.05592e-23 -0.00785672)
(7.90805e-21 -8.793e-21 -0.0114831)
(-5.71452e-23 3.04928e-21 -0.0142357)
(-1.48711e-22 -8.63103e-23 -0.0162188)
(-4.48553e-21 9.81029e-24 -0.0175355)
(4.35617e-21 -9.52738e-24 -0.0182817)
(-1.21004e-22 2.64648e-25 -0.0185477)
(-1.09196e-22 2.38821e-25 -0.018418)
(2.86627e-21 -6.26883e-24 -0.0179697)
(-2.87549e-21 6.28897e-24 -0.0172728)
(-2.15432e-21 4.71171e-24 -0.0163892)
(3.48502e-22 -3.98636e-22 -0.0153733)
(4.8651e-21 3.58098e-20 -0.0142718)
(-2.77652e-21 -3.26949e-20 -0.013124)
(-2.22129e-23 -3.76066e-22 -0.0119625)
(-5.6359e-24 1.55845e-22 -0.0108138)
(-2.6097e-21 -5.50609e-20 -0.00969884)
(2.62371e-21 5.49343e-20 -0.0086336)
(-1.99421e-21 -5.98704e-20 -0.00762982)
(4.05097e-22 4.08727e-21 -0.00669565)
(-2.25969e-22 3.41992e-24 -0.00583564)
(2.9271e-22 4.66147e-21 -0.00505244)
(-4.77974e-23 1.44585e-24 -0.00434605)
(1.78333e-23 -3.90032e-26 -0.0037152)
(-1.95972e-23 1.5187e-24 -0.00315711)
(1.89275e-22 5.50677e-21 -0.00266783)
(2.86773e-24 -3.39897e-24 -0.00224263)
(-1.6323e-22 -5.85224e-21 -0.00187625)
(1.54305e-22 6.01069e-21 -0.00156313)
(-1.94842e-22 -6.14087e-21 -0.00129761)
(7.08951e-22 5.70141e-20 -0.0010741)
(-6.36894e-22 -5.72927e-20 -0.000887223)
(-2.80655e-22 -4.60592e-20 -0.000731894)
(6.52762e-22 9.95971e-20 -0.000603433)
(-3.6051e-22 -5.36345e-20 -0.0004976)
(-6.33275e-23 -6.8326e-21 -0.000410623)
(5.86991e-23 6.93805e-21 -0.000339203)
(-1.26585e-23 -2.73415e-25 -0.000280506)
(8.22595e-23 7.09738e-21 -0.000232131)
(-1.73154e-22 -3.59786e-20 -0.000192078)
(1.65714e-22 3.61166e-20 -0.000158702)
(-4.71997e-23 -7.31662e-21 -0.000130669)
(9.43475e-23 2.21754e-20 -0.000106905)
(-3.07605e-25 -7.3914e-21 -8.65493e-05)
(-6.18471e-23 -1.50114e-20 -6.89024e-05)
(1.97021e-23 7.5315e-21 -5.33738e-05)
(-3.60203e-23 -7.60571e-21 -3.94629e-05)
(-1.50854e-20 2.44073e-20 0.0265605)
(2.65433e-20 -1.06073e-20 0.00619614)
(-2.08068e-20 -2.02477e-20 -0.0107716)
(1.73836e-21 1.61548e-20 -0.0244174)
(-2.27184e-21 -1.54119e-20 -0.0350754)
(-1.11221e-20 5.86791e-21 -0.0430957)
(9.50416e-21 4.80088e-21 -0.0488127)
(-7.85366e-21 -1.94199e-20 -0.0525489)
(1.73855e-20 9.27385e-21 -0.0546003)
(-1.76919e-20 3.72964e-21 -0.0552414)
(1.41121e-20 -4.98696e-21 -0.0547266)
(2.16145e-20 7.57211e-20 -0.0532867)
(-2.96834e-20 -6.73829e-20 -0.0511292)
(-3.09252e-20 -1.13076e-19 -0.0484377)
(4.05106e-21 -2.34585e-20 -0.0453717)
(3.08755e-20 1.2954e-19 -0.0420678)
(-3.50881e-21 -4.02277e-22 -0.0386408)
(-1.22929e-21 -5.74656e-21 -0.0351853)
(4.41571e-24 -3.93458e-23 -0.0317775)
(1.45296e-22 -3.17777e-25 -0.0284773)
(3.85746e-22 4.38293e-24 -0.0253305)
(-7.18237e-22 -4.13067e-21 -0.02237)
(2.41054e-20 2.64814e-19 -0.0196184)
(-2.65872e-20 -2.86647e-19 -0.0170888)
(2.26608e-20 3.03263e-19 -0.0147871)
(-1.22199e-20 -1.47485e-19 -0.0127137)
(-2.07256e-20 -3.29303e-19 -0.0108637)
(1.00548e-20 1.68142e-19 -0.00922829)
(-2.26646e-22 -5.54918e-21 -0.00779541)
(-6.06601e-22 -1.14789e-20 -0.00655092)
(7.29531e-23 5.86912e-21 -0.00547912)
(-7.38032e-22 -1.80796e-20 -0.00456354)
(5.73655e-21 1.93373e-19 -0.00378743)
(-1.18919e-20 -4.10217e-19 -0.00313433)
(5.27714e-21 1.97853e-19 -0.00258838)
(-5.82205e-22 -1.97336e-20 -0.00213471)
(1.64254e-22 6.66086e-21 -0.00175956)
(-1.13541e-23 -2.23415e-23 -0.00145052)
(-2.13288e-21 -1.1715e-19 -0.00119656)
(1.81422e-21 1.0359e-19 -0.000988028)
(1.3023e-21 9.8828e-20 -0.000816634)
(-1.90186e-21 -1.34468e-19 -0.000675369)
(5.43829e-23 7.19327e-21 -0.000558393)
(3.65177e-22 3.64164e-20 -0.000460906)
(-7.9578e-22 -6.55933e-20 -0.000379013)
(-3.84345e-23 -7.36588e-21 -0.000309583)
(-4.80937e-22 -5.20942e-20 -0.000250102)
(-1.05936e-22 -7.653e-21 -0.000198515)
(1.2766e-22 1.49612e-20 -0.000153053)
(1.48424e-22 2.27288e-20 -0.00011211)
(-1.46051e-20 -8.41081e-22 0.0401699)
(-7.71147e-21 -1.23491e-20 0.00649617)
(2.94644e-20 2.5879e-20 -0.0215374)
(-4.25012e-20 -1.23289e-20 -0.0436718)
(1.73692e-20 1.0558e-20 -0.0606451)
(-1.56219e-20 -2.24102e-20 -0.0731858)
(2.43562e-20 -9.77778e-21 -0.0819236)
(7.04581e-20 6.37905e-20 -0.0874338)
(-1.7213e-20 5.45424e-20 -0.0902335)
(-1.36933e-19 -1.99405e-19 -0.0907906)
(1.73691e-19 2.37745e-19 -0.089528)
(-9.41248e-20 -1.20645e-19 -0.0868253)
(2.79013e-21 -1.05452e-20 -0.0830199)
(-2.13713e-21 -4.33485e-21 -0.0784076)
(1.12651e-19 2.90319e-19 -0.0732432)
(-4.94167e-21 4.07421e-20 -0.067743)
(-1.04595e-19 -3.19188e-19 -0.0620869)
(6.5564e-21 8.49873e-21 -0.0564218)
(-2.58439e-21 9.62929e-23 -0.050865)
(6.79143e-23 -5.5781e-22 -0.0455078)
(4.708e-20 2.54318e-19 -0.0404184)
(-4.5653e-20 -2.44895e-19 -0.0356462)
(-4.17243e-20 -2.78726e-19 -0.0312221)
(4.41457e-20 2.95689e-19 -0.0271654)
(1.35379e-21 1.00832e-20 -0.0234818)
(-1.30529e-21 -1.02085e-20 -0.0201697)
(1.18359e-21 1.05666e-20 -0.0172194)
(-2.95455e-20 -3.43429e-19 -0.014615)
(3.0872e-20 3.54875e-19 -0.0123363)
(-2.4669e-20 -3.52846e-19 -0.0103594)
(2.63995e-20 3.76683e-19 -0.00865865)
(5.81623e-22 1.21934e-20 -0.00720711)
(2.0497e-20 4.03046e-19 -0.00597772)
(-3.90137e-20 -8.02235e-19 -0.00494392)
(1.93615e-20 4.24898e-19 -0.00408031)
(8.61489e-21 2.25618e-19 -0.00336304)
(-7.60761e-21 -1.99494e-19 -0.00277022)
(1.33321e-22 4.39935e-23 -0.00228205)
(-2.44222e-22 -3.86385e-23 -0.00188099)
(-9.1811e-24 2.65574e-23 -0.00155171)
(5.2119e-21 2.26276e-19 -0.0012811)
(-5.07531e-21 -2.12434e-19 -0.00105803)
(3.65968e-22 1.44021e-20 -0.000873288)
(-1.31554e-22 -1.82347e-23 -0.000719279)
(1.86119e-21 1.17218e-19 -0.000589861)
(-3.49245e-21 -2.20793e-19 -0.000480095)
(1.73203e-21 1.1827e-19 -0.000386009)
(-8.70068e-22 -5.9892e-20 -0.000304328)
(6.49977e-22 4.48616e-20 -0.000232122)
(1.57189e-22 1.50379e-20 -0.000166383)
(1.69044e-21 2.68944e-20 0.0462196)
(8.77801e-21 -5.37932e-20 -4.58205e-05)
(-3.19778e-20 4.24338e-20 -0.0384302)
(1.37753e-20 2.22124e-21 -0.0678822)
(3.39967e-20 -5.52338e-20 -0.0898141)
(3.97273e-20 7.56047e-20 -0.105504)
(-5.68269e-20 -3.79034e-20 -0.116016)
(7.02712e-20 9.4492e-20 -0.122221)
(-1.83094e-19 -2.02191e-19 -0.124869)
(1.41293e-19 9.49012e-20 -0.124619)
(-1.82644e-20 1.25506e-20 -0.12205)
(-9.69618e-21 7.53025e-22 -0.117679)
(1.36319e-20 8.65872e-21 -0.111953)
(-1.59761e-19 -2.97587e-19 -0.105264)
(1.46118e-19 2.78081e-19 -0.0979425)
(-1.40261e-21 1.61062e-20 -0.090267)
(2.08497e-21 -8.23075e-21 -0.0824663)
(1.44755e-19 4.38614e-19 -0.0747249)
(-1.4581e-19 -4.33074e-19 -0.067188)
(-1.73572e-21 -1.04982e-20 -0.0599667)
(-5.32134e-22 -3.19347e-23 -0.0531425)
(1.00367e-21 3.61276e-22 -0.0467715)
(2.69811e-22 -9.21203e-24 -0.0408897)
(1.04452e-21 9.77604e-21 -0.0355138)
(1.13185e-21 2.73714e-22 -0.030648)
(1.3691e-21 1.04293e-20 -0.0262848)
(-9.35165e-20 -7.15896e-19 -0.0224077)
(9.26205e-20 7.05511e-19 -0.0189928)
(1.89867e-24 2.72958e-23 -0.0160108)
(-3.64722e-20 -3.83683e-19 -0.0134285)
(3.80772e-20 3.96346e-19 -0.0112105)
(5.56881e-23 -5.49654e-23 -0.00932035)
(-1.79765e-22 -1.92874e-22 -0.00772161)
(-2.737e-20 -4.29022e-19 -0.00637887)
(5.16808e-20 8.52623e-19 -0.00525841)
(-4.64987e-20 -8.52425e-19 -0.00432874)
(4.29558e-20 8.64428e-19 -0.00356102)
(-3.93525e-20 -8.75486e-19 -0.0029293)
(1.87052e-20 4.40577e-19 -0.0024106)
(7.9393e-21 2.24806e-19 -0.00198493)
(-6.9939e-21 -1.96764e-19 -0.00163519)
(-5.26971e-22 -1.42698e-20 -0.00134693)
(-6.17103e-21 -2.3081e-19 -0.00110818)
(1.28592e-20 4.9257e-19 -0.000909121)
(-5.91235e-21 -2.32768e-19 -0.000741799)
(8.12167e-23 3.60326e-23 -0.000599838)
(2.64289e-22 1.47743e-20 -0.000478097)
(-7.95429e-23 -2.08034e-23 -0.000372284)
(-2.25209e-22 -1.49447e-20 -0.000278344)
(4.91642e-22 3.00604e-20 -0.000191436)
(2.74288e-20 8.95582e-23 0.0400478)
(1.85259e-22 2.63188e-22 -0.0181272)
(-6.10416e-20 1.26823e-22 -0.0652905)
(8.82057e-20 -8.18593e-22 -0.0997932)
(-2.7289e-20 -1.35197e-21 -0.124369)
(-4.03866e-20 -1.00065e-21 -0.141119)
(1.48131e-20 1.19207e-21 -0.151608)
(-9.96633e-21 -1.85974e-21 -0.15702)
(7.56945e-20 -2.17396e-20 -0.158324)
(2.55638e-19 3.97761e-19 -0.156342)
(9.27188e-21 9.7729e-20 -0.151784)
(-2.99125e-19 -4.86517e-19 -0.145266)
(3.42021e-19 6.0179e-19 -0.137317)
(-3.55883e-19 -5.97191e-19 -0.128392)
(1.75254e-19 3.69298e-19 -0.118872)