/*--------------------------------*- C++ -*----------------------------------*\
| =========                 |                                                 |
| \\      /  F ield         | OpenFOAM: The Open Source CFD Toolbox           |
|  \\    /   O peration     | Version:  2412                                  |
|   \\  /    A nd           | Website:  www.openfoam.com                      |
|    \\/     M anipulation  |                                                 |
\*---------------------------------------------------------------------------*/
FoamFile
{
    version     2.0;
    format      ascii;
    arch        "LSB;label=32;scalar=64";
    class       volVectorField;
    location    "0.5";
    object      vorticity;
}
// * * * * * * * * * * * * * * * * * * * * * * * * * * * * * * * * * * * * * //

dimensions      [0 0 -1 0 0 0 0];

internalField   nonuniform List<vector> 
5285
(
(0 -0 -0.000426315)
(0 -0 -0.000424424)
(0 -0 -0.000422719)
(0 -0 -0.000421056)
(0 -0 -0.000419475)
(0 -0 -0.000417928)
(0 -0 -0.000416451)
(0 -0 -0.000415091)
(0 -0 -0.00041377)
(0 -0 -0.000412594)
(0 -0 -0.000411354)
(0 -0 -0.000410324)
(0 -0 -0.000409221)
(0 -0 -0.000408292)
(0 -0 -0.000407332)
(0 -0 -0.000406521)
(0 -0 -0.000405717)
(0 -0 -0.00040496)
(0 -0 -0.000404277)
(0 -0 -0.000403613)
(0 -0 -0.000402999)
(0 -0 -0.000402399)
(0 -0 -0.000401753)
(0 -0 -0.000401322)
(0 -0 -0.000400682)
(0 -0 -0.000400378)
(0 -0 -0.000399831)
(0 -0 -0.000399616)
(0 -0 -0.00039914)
(0 -0 -0.00039893)
(0 -0 -0.000398538)
(0 -0 -0.000398403)
(0 -0 -0.000398052)
(0 -0 -0.000397943)
(0 -0 -0.000397635)
(0 -0 -0.000397557)
(0 -0 -0.000397384)
(0 -0 -0.00039735)
(0 -0 -0.000397205)
(0 -0 -0.000397143)
(0 -0 -0.000397071)
(0 -0 -0.000396913)
(0 -0 -0.000396937)
(0 -0 -0.000396831)
(0 -0 -0.000396773)
(0 -0 -0.000396939)
(0 -0 -0.000396743)
(0 -0 -0.000396847)
(0 -0 -0.000397046)
(0 -0 -0.00039677)
(0 -0 -0.000397005)
(0 -0 -0.000397318)
(0 -0 -0.000397209)
(0 -0 -0.000397385)
(0 -0 -0.000397671)
(0 -0 -0.000397982)
(0 -0 -0.000398006)
(0 -0 -0.000398252)
(0 -0 -0.000398621)
(0 -0 -0.000399283)
(0 -0 -0.000399543)
(0 -0 -0.000399823)
(0 -0 -0.000400488)
(0 -0 -0.000401379)
(0 -0 -0.000402356)
(0 -0 -0.00040396)
(0 -0 -0.000405777)
(0 -0 -0.000405271)
(0 -0 -0.000445486)
(0 -0 -0.000635106)
(0 -0 0.00116896)
(0 -0 -0.000191781)
(0 -0 -0.000191923)
(0 -0 -0.000192)
(0 -0 -0.000192122)
(0 -0 -0.000192312)
(0 -0 -0.000192513)
(0 -0 -0.00019274)
(0 -0 -0.000193033)
(0 -0 -0.000193322)
(0 -0 -0.000193659)
(0 -0 -0.000193996)
(0 -0 -0.000194357)
(0 -0 -0.0001947)
(0 -0 -0.000195095)
(0 -0 -0.000195517)
(0 -0 -0.000195961)
(0 -0 -0.000196408)
(0 -0 -0.000196875)
(0 -0 -0.000197362)
(0 -0 -0.000197829)
(0 -0 -0.000198316)
(0 -0 -0.000198811)
(0 -0 -0.000199272)
(0 -0 -0.000199784)
(0 -0 -0.000200244)
(0 -0 -0.000200757)
(0 -0 -0.000201268)
(0 -0 -0.000201799)
(0 -0 -0.00020226)
(0 -0 -0.000202765)
(0 -0 -0.000203287)
(0 -0 -0.000203785)
(0 -0 -0.000204271)
(0 -0 -0.000204772)
(0 -0 -0.000205213)
(0 -0 -0.000205707)
(0 -0 -0.000206207)
(0 -0 -0.000206699)
(0 -0 -0.000207172)
(0 -0 -0.000207639)
(0 -0 -0.000208103)
(0 -0 -0.000208483)
(0 -0 -0.000208949)
(0 -0 -0.000209306)
(0 -0 -0.000209751)
(0 -0 -0.000210179)
(0 -0 -0.000210582)
(0 -0 -0.000211003)
(0 -0 -0.000211391)
(0 -0 -0.000211746)
(0 -0 -0.000212186)
(0 -0 -0.000212629)
(0 -0 -0.000213052)
(0 -0 -0.000213509)
(0 -0 -0.000213965)
(0 -0 -0.00021442)
(0 -0 -0.000214922)
(0 -0 -0.000215447)
(0 -0 -0.000216023)
(0 -0 -0.000216667)
(0 -0 -0.000217273)
(0 -0 -0.00021804)
(0 -0 -0.000218931)
(0 -0 -0.000219979)
(0 -0 -0.000221189)
(0 -0 -0.00022273)
(0 -0 -0.000224753)
(0 -0 -0.000225054)
(0 -0 -0.000253566)
(0 -0 -0.000372698)
(0 -0 0.000824334)
(0 -0 7.47474e-05)
(0 -0 7.4341e-05)
(0 -0 7.40616e-05)
(0 -0 7.37285e-05)
(0 -0 7.33603e-05)
(0 -0 7.29401e-05)
(0 -0 7.2504e-05)
(0 -0 7.21063e-05)
(0 -0 7.17128e-05)
(0 -0 7.12849e-05)
(0 -0 7.08473e-05)
(0 -0 7.05303e-05)
(0 -0 7.01089e-05)
(0 -0 6.97207e-05)
(0 -0 6.92608e-05)
(0 -0 6.88978e-05)
(0 -0 6.85058e-05)
(0 -0 6.80561e-05)
(0 -0 6.76931e-05)
(0 -0 6.72771e-05)
(0 -0 6.68122e-05)
(0 -0 6.63938e-05)
(0 -0 6.59958e-05)
(0 -0 6.55638e-05)
(0 -0 6.50829e-05)
(0 -0 6.47858e-05)
(0 -0 6.43158e-05)
(0 -0 6.41141e-05)
(0 -0 6.37539e-05)
(0 -0 6.34334e-05)
(0 -0 6.29165e-05)
(0 -0 6.26578e-05)
(0 -0 6.21519e-05)
(0 -0 6.18688e-05)
(0 -0 6.15261e-05)
(0 -0 6.11424e-05)
(0 -0 6.07641e-05)
(0 -0 6.05398e-05)
(0 -0 6.01876e-05)
(0 -0 5.9927e-05)
(0 -0 5.96645e-05)
(0 -0 5.9364e-05)
(0 -0 5.91405e-05)
(0 -0 5.88867e-05)
(0 -0 5.85165e-05)
(0 -0 5.84042e-05)
(0 -0 5.79992e-05)
(0 -0 5.78228e-05)
(0 -0 5.76743e-05)
(0 -0 5.72446e-05)
(0 -0 5.71049e-05)
(0 -0 5.68933e-05)
(0 -0 5.64929e-05)
(0 -0 5.62197e-05)
(0 -0 5.60463e-05)
(0 -0 5.58656e-05)
(0 -0 5.54863e-05)
(0 -0 5.51305e-05)
(0 -0 5.4896e-05)
(0 -0 5.47232e-05)
(0 -0 5.42507e-05)
(0 -0 5.37118e-05)
(0 -0 5.33116e-05)
(0 -0 5.28905e-05)
(0 -0 5.22643e-05)
(0 -0 5.15609e-05)
(0 -0 5.04817e-05)
(0 -0 5.02462e-05)
(0 -0 3.86062e-05)
(0 -0 -8.47121e-06)
(0 -0 0.000625648)
(0 -0 9.61314e-05)
(0 -0 9.59524e-05)
(0 -0 9.58723e-05)
(0 -0 9.57578e-05)
(0 -0 9.5622e-05)
(0 -0 9.5453e-05)
(0 -0 9.531e-05)
(0 -0 9.51751e-05)
(0 -0 9.5004e-05)
(0 -0 9.48493e-05)
(0 -0 9.4715e-05)
(0 -0 9.46096e-05)
(0 -0 9.44503e-05)
(0 -0 9.43292e-05)
(0 -0 9.42054e-05)
(0 -0 9.40801e-05)
(0 -0 9.39185e-05)
(0 -0 9.37907e-05)
(0 -0 9.36899e-05)
(0 -0 9.35413e-05)
(0 -0 9.34033e-05)
(0 -0 9.32675e-05)
(0 -0 9.31543e-05)
(0 -0 9.30395e-05)
(0 -0 9.29145e-05)
(0 -0 9.28234e-05)
(0 -0 9.26883e-05)
(0 -0 9.26001e-05)
(0 -0 9.24524e-05)
(0 -0 9.23436e-05)
(0 -0 9.21905e-05)
(0 -0 9.21024e-05)
(0 -0 9.19592e-05)
(0 -0 9.1889e-05)
(0 -0 9.17792e-05)
(0 -0 9.16959e-05)
(0 -0 9.1589e-05)
(0 -0 9.14811e-05)
(0 -0 9.13728e-05)
(0 -0 9.12565e-05)
(0 -0 9.1162e-05)
(0 -0 9.10621e-05)
(0 -0 9.10198e-05)
(0 -0 9.09148e-05)
(0 -0 9.08624e-05)
(0 -0 9.07777e-05)
(0 -0 9.06425e-05)
(0 -0 9.06069e-05)
(0 -0 9.05305e-05)
(0 -0 9.04275e-05)
(0 -0 9.04006e-05)
(0 -0 9.03037e-05)
(0 -0 9.01902e-05)
(0 -0 9.01386e-05)
(0 -0 9.00696e-05)
(0 -0 9.00169e-05)
(0 -0 8.99064e-05)
(0 -0 8.9786e-05)
(0 -0 8.97147e-05)
(0 -0 8.96683e-05)
(0 -0 8.95356e-05)
(0 -0 8.94119e-05)
(0 -0 8.92419e-05)
(0 -0 8.91201e-05)
(0 -0 8.89538e-05)
(0 -0 8.87186e-05)
(0 -0 8.84154e-05)
(0 -0 8.83233e-05)
(0 -0 8.49001e-05)
(0 -0 6.62852e-05)
(0 -0 0.000474918)
(0 -0 4.47064e-05)
(0 -0 4.46715e-05)
(0 -0 4.46668e-05)
(0 -0 4.46387e-05)
(0 -0 4.4592e-05)
(0 -0 4.4546e-05)
(0 -0 4.45338e-05)
(0 -0 4.44947e-05)
(0 -0 4.44253e-05)
(0 -0 4.44305e-05)
(0 -0 4.44309e-05)
(0 -0 4.43914e-05)
(0 -0 4.43396e-05)
(0 -0 4.43355e-05)
(0 -0 4.43346e-05)
(0 -0 4.43268e-05)
(0 -0 4.4286e-05)
(0 -0 4.42744e-05)
(0 -0 4.42626e-05)
(0 -0 4.42389e-05)
(0 -0 4.42405e-05)
(0 -0 4.4221e-05)
(0 -0 4.42183e-05)
(0 -0 4.42135e-05)
(0 -0 4.42195e-05)
(0 -0 4.42079e-05)
(0 -0 4.42027e-05)
(0 -0 4.41683e-05)
(0 -0 4.41217e-05)
(0 -0 4.4102e-05)
(0 -0 4.40851e-05)
(0 -0 4.40652e-05)
(0 -0 4.40611e-05)
(0 -0 4.40628e-05)
(0 -0 4.40431e-05)
(0 -0 4.40551e-05)
(0 -0 4.40474e-05)
(0 -0 4.3998e-05)
(0 -0 4.39838e-05)
(0 -0 4.3941e-05)
(0 -0 4.39149e-05)
(0 -0 4.38957e-05)
(0 -0 4.3901e-05)
(0 -0 4.38707e-05)
(0 -0 4.3904e-05)
(0 -0 4.38526e-05)
(0 -0 4.38307e-05)
(0 -0 4.38278e-05)
(0 -0 4.37906e-05)
(0 -0 4.3808e-05)
(0 -0 4.38036e-05)
(0 -0 4.3759e-05)
(0 -0 4.37547e-05)
(0 -0 4.37697e-05)
(0 -0 4.37428e-05)
(0 -0 4.3726e-05)
(0 -0 4.3717e-05)
(0 -0 4.36959e-05)
(0 -0 4.36774e-05)
(0 -0 4.36558e-05)
(0 -0 4.36507e-05)
(0 -0 4.36642e-05)
(0 -0 4.36031e-05)
(0 -0 4.35715e-05)
(0 -0 4.3553e-05)
(0 -0 4.34931e-05)
(0 -0 4.3452e-05)
(0 -0 4.34322e-05)
(0 -0 4.26057e-05)
(0 -0 3.19775e-05)
(0 -0 0.000362925)
(0 -0 1.38413e-05)
(0 -0 1.38191e-05)
(0 -0 1.38132e-05)
(0 -0 1.37934e-05)
(0 -0 1.37677e-05)
(0 -0 1.37759e-05)
(0 -0 1.37735e-05)
(0 -0 1.37461e-05)
(0 -0 1.37404e-05)
(0 -0 1.37818e-05)
(0 -0 1.37735e-05)
(0 -0 1.37738e-05)
(0 -0 1.37841e-05)
(0 -0 1.38023e-05)
(0 -0 1.37792e-05)
(0 -0 1.38063e-05)
(0 -0 1.38368e-05)
(0 -0 1.38495e-05)
(0 -0 1.3857e-05)
(0 -0 1.38569e-05)
(0 -0 1.38799e-05)
(0 -0 1.38962e-05)
(0 -0 1.39256e-05)
(0 -0 1.39332e-05)
(0 -0 1.3949e-05)
(0 -0 1.39659e-05)
(0 -0 1.39831e-05)
(0 -0 1.39781e-05)
(0 -0 1.39683e-05)
(0 -0 1.39782e-05)
(0 -0 1.39768e-05)
(0 -0 1.39824e-05)
(0 -0 1.40002e-05)
(0 -0 1.40154e-05)
(0 -0 1.40148e-05)
(0 -0 1.40324e-05)
(0 -0 1.40403e-05)
(0 -0 1.40221e-05)
(0 -0 1.403e-05)
(0 -0 1.40217e-05)
(0 -0 1.40171e-05)
(0 -0 1.40159e-05)
(0 -0 1.40256e-05)
(0 -0 1.40228e-05)
(0 -0 1.40477e-05)
(0 -0 1.40329e-05)
(0 -0 1.40303e-05)
(0 -0 1.40296e-05)
(0 -0 1.40205e-05)
(0 -0 1.40461e-05)
(0 -0 1.40435e-05)
(0 -0 1.40238e-05)
(0 -0 1.40353e-05)
(0 -0 1.40524e-05)
(0 -0 1.40452e-05)
(0 -0 1.40412e-05)
(0 -0 1.40496e-05)
(0 -0 1.40485e-05)
(0 -0 1.40461e-05)
(0 -0 1.40405e-05)
(0 -0 1.40552e-05)
(0 -0 1.40751e-05)
(0 -0 1.40611e-05)
(0 -0 1.40544e-05)
(0 -0 1.40572e-05)
(0 -0 1.40513e-05)
(0 -0 1.40572e-05)
(0 -0 1.40655e-05)
(0 -0 1.38625e-05)
(0 -0 5.49245e-06)
(0 -0 0.000298577)
(0 -0 3.16478e-06)
(0 -0 3.13893e-06)
(0 -0 3.11291e-06)
(0 -0 3.0955e-06)
(0 -0 3.09182e-06)
(0 -0 3.0997e-06)
(0 -0 3.07606e-06)
(0 -0 3.08039e-06)
(0 -0 3.1101e-06)
(0 -0 3.11483e-06)
(0 -0 3.09258e-06)
(0 -0 3.13266e-06)
(0 -0 3.1381e-06)
(0 -0 3.14212e-06)
(0 -0 3.17898e-06)
(0 -0 3.20165e-06)
(0 -0 3.19561e-06)
(0 -0 3.21207e-06)
(0 -0 3.26437e-06)
(0 -0 3.26433e-06)
(0 -0 3.27052e-06)
(0 -0 3.28996e-06)
(0 -0 3.32189e-06)
(0 -0 3.33558e-06)
(0 -0 3.3587e-06)
(0 -0 3.37917e-06)
(0 -0 3.3801e-06)
(0 -0 3.38685e-06)
(0 -0 3.39533e-06)
(0 -0 3.41309e-06)
(0 -0 3.40976e-06)
(0 -0 3.42459e-06)
(0 -0 3.43805e-06)
(0 -0 3.45122e-06)
(0 -0 3.45723e-06)
(0 -0 3.46998e-06)
(0 -0 3.47534e-06)
(0 -0 3.46904e-06)
(0 -0 3.4821e-06)
(0 -0 3.48604e-06)
(0 -0 3.48631e-06)
(0 -0 3.48887e-06)
(0 -0 3.49617e-06)
(0 -0 3.50041e-06)
(0 -0 3.51414e-06)
(0 -0 3.51606e-06)
(0 -0 3.51221e-06)
(0 -0 3.51257e-06)
(0 -0 3.51697e-06)
(0 -0 3.53104e-06)
(0 -0 3.52733e-06)
(0 -0 3.52251e-06)
(0 -0 3.53278e-06)
(0 -0 3.53915e-06)
(0 -0 3.53898e-06)
(0 -0 3.54543e-06)
(0 -0 3.55301e-06)
(0 -0 3.54653e-06)
(0 -0 3.54982e-06)
(0 -0 3.55951e-06)
(0 -0 3.57365e-06)
(0 -0 3.57676e-06)
(0 -0 3.57561e-06)
(0 -0 3.58096e-06)
(0 -0 3.58349e-06)
(0 -0 3.59101e-06)
(0 -0 3.60133e-06)
(0 -0 3.61826e-06)
(0 -0 3.5425e-06)
(0 -0 -3.83188e-06)
(0 -0 0.000261176)
(0 -0 3.76305e-07)
(0 -0 3.54658e-07)
(0 -0 3.26332e-07)
(0 -0 3.19514e-07)
(0 -0 3.28906e-07)
(0 -0 2.89173e-07)
(0 -0 2.70918e-07)
(0 -0 3.05335e-07)
(0 -0 3.13464e-07)
(0 -0 3.15144e-07)
(0 -0 3.26507e-07)
(0 -0 3.39362e-07)
(0 -0 3.44554e-07)
(0 -0 3.77322e-07)
(0 -0 4.21113e-07)
(0 -0 4.10307e-07)
(0 -0 4.10047e-07)
(0 -0 4.44858e-07)
(0 -0 4.67276e-07)
(0 -0 4.60186e-07)
(0 -0 5.04938e-07)
(0 -0 5.25386e-07)
(0 -0 5.25356e-07)
(0 -0 5.4389e-07)
(0 -0 5.82212e-07)
(0 -0 5.98243e-07)
(0 -0 5.87726e-07)
(0 -0 5.9951e-07)
(0 -0 6.08801e-07)
(0 -0 6.26286e-07)
(0 -0 6.32506e-07)
(0 -0 6.51497e-07)
(0 -0 6.53947e-07)
(0 -0 6.61521e-07)
(0 -0 6.74847e-07)
(0 -0 6.85485e-07)
(0 -0 6.89003e-07)
(0 -0 6.87797e-07)
(0 -0 7.00072e-07)
(0 -0 7.04798e-07)
(0 -0 7.07118e-07)
(0 -0 7.13646e-07)
(0 -0 7.18433e-07)
(0 -0 7.22593e-07)
(0 -0 7.31773e-07)
(0 -0 7.36623e-07)
(0 -0 7.32908e-07)
(0 -0 7.38804e-07)
(0 -0 7.45355e-07)
(0 -0 7.46639e-07)
(0 -0 7.44638e-07)
(0 -0 7.53035e-07)
(0 -0 7.59982e-07)
(0 -0 7.55504e-07)
(0 -0 7.58527e-07)
(0 -0 7.72411e-07)
(0 -0 7.7673e-07)
(0 -0 7.6502e-07)
(0 -0 7.72567e-07)
(0 -0 7.89662e-07)
(0 -0 8.0039e-07)
(0 -0 7.92819e-07)
(0 -0 7.93539e-07)
(0 -0 8.07455e-07)
(0 -0 8.14534e-07)
(0 -0 8.21075e-07)
(0 -0 8.32405e-07)
(0 -0 8.428e-07)
(0 -0 7.93268e-07)
(0 -0 -5.86214e-06)
(0 -0 0.00023485)
(0 -0 -2.20687e-07)
(0 -0 -2.33128e-07)
(0 -0 -2.51041e-07)
(0 -0 -2.71527e-07)
(0 -0 -2.92437e-07)
(0 -0 -3.26922e-07)
(0 -0 -3.21413e-07)
(0 -0 -3.05995e-07)
(0 -0 -3.0745e-07)
(0 -0 -2.79134e-07)
(0 -0 -2.62491e-07)
(0 -0 -2.54031e-07)
(0 -0 -2.35618e-07)
(0 -0 -2.0577e-07)
(0 -0 -2.03995e-07)
(0 -0 -2.05082e-07)
(0 -0 -1.72227e-07)
(0 -0 -1.5254e-07)
(0 -0 -1.5309e-07)
(0 -0 -1.45377e-07)
(0 -0 -1.0037e-07)
(0 -0 -8.43098e-08)
(0 -0 -6.67171e-08)
(0 -0 -4.41238e-08)
(0 -0 -3.69341e-08)
(0 -0 -2.94905e-08)
(0 -0 -1.72085e-08)
(0 -0 2.19066e-09)
(0 -0 -1.04396e-09)
(0 -0 1.14364e-08)
(0 -0 2.62915e-08)
(0 -0 4.60956e-08)
(0 -0 4.62743e-08)
(0 -0 5.18418e-08)
(0 -0 6.61002e-08)
(0 -0 7.21599e-08)
(0 -0 7.93298e-08)
(0 -0 8.46796e-08)
(0 -0 9.23235e-08)
(0 -0 9.23145e-08)
(0 -0 9.68191e-08)
(0 -0 1.08053e-07)
(0 -0 1.12246e-07)
(0 -0 1.15584e-07)
(0 -0 1.20853e-07)
(0 -0 1.22426e-07)
(0 -0 1.23389e-07)
(0 -0 1.3685e-07)
(0 -0 1.38611e-07)
(0 -0 1.3015e-07)
(0 -0 1.33284e-07)
(0 -0 1.49751e-07)
(0 -0 1.52046e-07)
(0 -0 1.44526e-07)
(0 -0 1.50034e-07)
(0 -0 1.61069e-07)
(0 -0 1.63049e-07)
(0 -0 1.586e-07)
(0 -0 1.69735e-07)
(0 -0 1.78105e-07)
(0 -0 1.8321e-07)
(0 -0 1.80845e-07)
(0 -0 1.85284e-07)
(0 -0 1.96814e-07)
(0 -0 2.09591e-07)
(0 -0 2.11896e-07)
(0 -0 2.19605e-07)
(0 -0 2.24717e-07)
(0 -0 1.80672e-07)
(0 -0 -5.849e-06)
(0 -0 0.000213229)
(0 -0 -2.86218e-07)
(0 -0 -3.21293e-07)
(0 -0 -3.52145e-07)
(0 -0 -3.94534e-07)
(0 -0 -4.20131e-07)
(0 -0 -4.37768e-07)
(0 -0 -4.33046e-07)
(0 -0 -4.13278e-07)
(0 -0 -4.12344e-07)
(0 -0 -3.71887e-07)
(0 -0 -3.56577e-07)
(0 -0 -3.47315e-07)
(0 -0 -3.43635e-07)
(0 -0 -3.34848e-07)
(0 -0 -3.16915e-07)
(0 -0 -2.98098e-07)
(0 -0 -2.76226e-07)
(0 -0 -2.81082e-07)
(0 -0 -2.63319e-07)
(0 -0 -2.38627e-07)
(0 -0 -2.13827e-07)
(0 -0 -2.01496e-07)
(0 -0 -1.76175e-07)
(0 -0 -1.56865e-07)
(0 -0 -1.54748e-07)
(0 -0 -1.46948e-07)
(0 -0 -1.37391e-07)
(0 -0 -1.17893e-07)
(0 -0 -1.09819e-07)
(0 -0 -9.6959e-08)
(0 -0 -9.15356e-08)
(0 -0 -7.88046e-08)
(0 -0 -6.93134e-08)
(0 -0 -5.84079e-08)
(0 -0 -4.72639e-08)
(0 -0 -5.03652e-08)
(0 -0 -3.96148e-08)
(0 -0 -2.61218e-08)
(0 -0 -2.1881e-08)
(0 -0 -2.62843e-08)
(0 -0 -2.06861e-08)
(0 -0 -7.99094e-09)
(0 -0 -2.70187e-09)
(0 -0 2.41314e-09)
(0 -0 3.49607e-09)
(0 -0 7.789e-10)
(0 -0 7.49201e-09)
(0 -0 2.41253e-08)
(0 -0 2.00821e-08)
(0 -0 1.16074e-08)
(0 -0 1.97147e-08)
(0 -0 3.21041e-08)
(0 -0 3.06404e-08)
(0 -0 3.2427e-08)
(0 -0 3.88018e-08)
(0 -0 3.58571e-08)
(0 -0 3.88682e-08)
(0 -0 5.18381e-08)
(0 -0 6.24267e-08)
(0 -0 5.11644e-08)
(0 -0 5.26664e-08)
(0 -0 6.76588e-08)
(0 -0 7.83562e-08)
(0 -0 7.55187e-08)
(0 -0 8.54358e-08)
(0 -0 9.36899e-08)
(0 -0 9.27541e-08)
(0 -0 1.01955e-07)
(0 -0 5.9296e-08)
(0 -0 -5.41609e-06)
(0 -0 0.000194329)
(0 -0 -2.55928e-07)
(0 -0 -3.56201e-07)
(0 -0 -3.83408e-07)
(0 -0 -4.06782e-07)
(0 -0 -4.27247e-07)
(0 -0 -4.45566e-07)
(0 -0 -4.37939e-07)
(0 -0 -4.0794e-07)
(0 -0 -4.07627e-07)
(0 -0 -3.74478e-07)
(0 -0 -3.63985e-07)
(0 -0 -3.75304e-07)
(0 -0 -3.58939e-07)
(0 -0 -3.37455e-07)
(0 -0 -3.39808e-07)
(0 -0 -3.2835e-07)
(0 -0 -2.81705e-07)
(0 -0 -2.80683e-07)
(0 -0 -2.72811e-07)
(0 -0 -2.53113e-07)
(0 -0 -2.2567e-07)
(0 -0 -2.13814e-07)
(0 -0 -2.01811e-07)
(0 -0 -1.8571e-07)
(0 -0 -1.74069e-07)
(0 -0 -1.62769e-07)
(0 -0 -1.53054e-07)
(0 -0 -1.35221e-07)
(0 -0 -1.30261e-07)
(0 -0 -1.18979e-07)
(0 -0 -1.05365e-07)
(0 -0 -9.70637e-08)
(0 -0 -9.11556e-08)
(0 -0 -7.83437e-08)
(0 -0 -6.42934e-08)
(0 -0 -7.19781e-08)
(0 -0 -6.00322e-08)
(0 -0 -4.44077e-08)
(0 -0 -4.32569e-08)
(0 -0 -4.53406e-08)
(0 -0 -3.70848e-08)
(0 -0 -2.89072e-08)
(0 -0 -2.4915e-08)
(0 -0 -1.60051e-08)
(0 -0 -1.55593e-08)
(0 -0 -1.86023e-08)
(0 -0 -1.02535e-08)
(0 -0 -2.58664e-10)
(0 -0 -5.4861e-09)
(0 -0 -1.80294e-09)
(0 -0 7.04899e-09)
(0 -0 4.97478e-09)
(0 -0 3.1594e-09)
(0 -0 1.8841e-08)
(0 -0 2.36918e-08)
(0 -0 9.38973e-09)
(0 -0 1.69495e-08)
(0 -0 3.81217e-08)
(0 -0 4.21466e-08)
(0 -0 2.34039e-08)
(0 -0 2.96237e-08)
(0 -0 5.21798e-08)
(0 -0 6.3412e-08)
(0 -0 5.27642e-08)
(0 -0 5.27576e-08)
(0 -0 7.31123e-08)
(0 -0 6.77304e-08)
(0 -0 8.03424e-08)
(0 -0 4.20282e-08)
(0 -0 -4.95009e-06)
(0 -0 0.000177511)
(0 -0 -3.01461e-07)
(0 -0 -3.8577e-07)
(0 -0 -3.79105e-07)
(0 -0 -3.87465e-07)
(0 -0 -4.30871e-07)
(0 -0 -4.15019e-07)
(0 -0 -4.0268e-07)
(0 -0 -4.03552e-07)
(0 -0 -3.90823e-07)
(0 -0 -3.73432e-07)
(0 -0 -3.83054e-07)
(0 -0 -3.78617e-07)
(0 -0 -3.51722e-07)
(0 -0 -3.45283e-07)
(0 -0 -3.36483e-07)
(0 -0 -3.06515e-07)
(0 -0 -2.82321e-07)
(0 -0 -2.90213e-07)
(0 -0 -2.50781e-07)
(0 -0 -2.28926e-07)
(0 -0 -2.39182e-07)
(0 -0 -2.34982e-07)
(0 -0 -1.9921e-07)
(0 -0 -1.82205e-07)
(0 -0 -1.83801e-07)
(0 -0 -1.66519e-07)
(0 -0 -1.45859e-07)
(0 -0 -1.34119e-07)
(0 -0 -1.31637e-07)
(0 -0 -1.20159e-07)
(0 -0 -1.07293e-07)
(0 -0 -1.02847e-07)
(0 -0 -8.65372e-08)
(0 -0 -7.53456e-08)
(0 -0 -7.36682e-08)
(0 -0 -7.93605e-08)
(0 -0 -5.58533e-08)
(0 -0 -4.60901e-08)
(0 -0 -5.22898e-08)
(0 -0 -4.5159e-08)
(0 -0 -3.29422e-08)
(0 -0 -3.23454e-08)
(0 -0 -3.1193e-08)
(0 -0 -2.06697e-08)
(0 -0 -1.77018e-08)
(0 -0 -1.5008e-08)
(0 -0 -9.35555e-09)
(0 -0 -1.25455e-08)
(0 -0 -1.36776e-08)
(0 -0 4.05876e-09)
(0 -0 9.13798e-09)
(0 -0 -2.1249e-09)
(0 -0 -1.30702e-09)
(0 -0 1.47018e-08)
(0 -0 1.76318e-08)
(0 -0 1.25098e-08)
(0 -0 2.36311e-08)
(0 -0 2.64438e-08)
(0 -0 2.32337e-08)
(0 -0 2.66666e-08)
(0 -0 4.37269e-08)
(0 -0 4.53837e-08)
(0 -0 4.67356e-08)
(0 -0 5.37918e-08)
(0 -0 5.10575e-08)
(0 -0 6.61963e-08)
(0 -0 6.57725e-08)
(0 -0 7.5758e-08)
(0 -0 4.47518e-08)
(0 -0 -4.52422e-06)
(0 -0 0.000162478)
(0 -0 -3.51846e-07)
(0 -0 -3.57416e-07)
(0 -0 -3.46174e-07)
(0 -0 -3.79144e-07)
(0 -0 -4.07357e-07)
(0 -0 -3.81374e-07)
(0 -0 -3.88565e-07)
(0 -0 -3.93858e-07)
(0 -0 -3.7259e-07)
(0 -0 -3.78059e-07)
(0 -0 -3.93882e-07)
(0 -0 -3.73586e-07)
(0 -0 -3.4634e-07)
(0 -0 -3.46292e-07)
(0 -0 -3.01402e-07)
(0 -0 -2.78956e-07)
(0 -0 -2.87611e-07)
(0 -0 -2.8594e-07)
(0 -0 -2.37494e-07)
(0 -0 -2.31096e-07)
(0 -0 -2.37061e-07)
(0 -0 -2.22413e-07)
(0 -0 -2.01484e-07)
(0 -0 -1.958e-07)
(0 -0 -1.76802e-07)
(0 -0 -1.46773e-07)
(0 -0 -1.44269e-07)
(0 -0 -1.42309e-07)
(0 -0 -1.18816e-07)
(0 -0 -1.08252e-07)
(0 -0 -1.10916e-07)
(0 -0 -1.06172e-07)
(0 -0 -7.81963e-08)
(0 -0 -7.60028e-08)
(0 -0 -7.73534e-08)
(0 -0 -7.0655e-08)
(0 -0 -5.18636e-08)
(0 -0 -5.58406e-08)
(0 -0 -5.29062e-08)
(0 -0 -3.34352e-08)
(0 -0 -2.95195e-08)
(0 -0 -3.47156e-08)
(0 -0 -2.93543e-08)
(0 -0 -2.20626e-08)
(0 -0 -1.78011e-08)
(0 -0 -8.80624e-09)
(0 -0 -6.69652e-09)
(0 -0 -1.60493e-08)
(0 -0 -1.07128e-08)
(0 -0 5.81358e-09)
(0 -0 5.17319e-09)
(0 -0 4.39268e-09)
(0 -0 8.42866e-09)
(0 -0 5.82352e-09)
(0 -0 9.11694e-09)
(0 -0 2.64419e-08)
(0 -0 3.44641e-08)
(0 -0 1.06171e-08)
(0 -0 1.00051e-08)
(0 -0 4.04241e-08)
(0 -0 5.99533e-08)
(0 -0 3.49712e-08)
(0 -0 2.85727e-08)
(0 -0 5.963e-08)
(0 -0 6.62177e-08)
(0 -0 5.73089e-08)
(0 -0 6.24785e-08)
(0 -0 7.14044e-08)
(0 -0 4.49632e-08)
(0 -0 -4.14205e-06)
(0 -0 0.000149024)
(0 -0 -3.12487e-07)
(0 -0 -3.0206e-07)
(0 -0 -3.18349e-07)
(0 -0 -3.80889e-07)
(0 -0 -3.69506e-07)
(0 -0 -3.57495e-07)
(0 -0 -3.88716e-07)
(0 -0 -3.64824e-07)
(0 -0 -3.45664e-07)
(0 -0 -3.79463e-07)
(0 -0 -3.81618e-07)
(0 -0 -3.52108e-07)
(0 -0 -3.39098e-07)
(0 -0 -3.22516e-07)
(0 -0 -2.67084e-07)
(0 -0 -2.82588e-07)
(0 -0 -2.77368e-07)
(0 -0 -2.48579e-07)
(0 -0 -2.39e-07)
(0 -0 -2.5294e-07)
(0 -0 -2.16313e-07)
(0 -0 -1.96024e-07)
(0 -0 -2.01554e-07)
(0 -0 -1.92753e-07)
(0 -0 -1.61437e-07)
(0 -0 -1.37733e-07)
(0 -0 -1.33088e-07)
(0 -0 -1.25442e-07)
(0 -0 -1.07723e-07)
(0 -0 -1.09856e-07)
(0 -0 -1.02124e-07)
(0 -0 -9.01167e-08)
(0 -0 -7.72528e-08)
(0 -0 -8.51682e-08)
(0 -0 -6.83303e-08)
(0 -0 -5.03506e-08)
(0 -0 -5.2007e-08)
(0 -0 -5.81117e-08)
(0 -0 -4.43319e-08)
(0 -0 -2.70041e-08)
(0 -0 -2.40577e-08)
(0 -0 -2.64537e-08)
(0 -0 -2.03202e-08)
(0 -0 -2.28248e-08)
(0 -0 -1.1894e-08)
(0 -0 -3.32797e-09)
(0 -0 -5.92644e-09)
(0 -0 -6.29065e-09)
(0 -0 6.02584e-09)
(0 -0 6.38133e-09)
(0 -0 7.88447e-10)
(0 -0 1.71104e-08)
(0 -0 2.26157e-08)
(0 -0 8.65571e-09)
(0 -0 1.34544e-08)
(0 -0 2.75003e-08)
(0 -0 2.84887e-08)
(0 -0 1.54195e-08)
(0 -0 2.84678e-08)
(0 -0 3.87278e-08)
(0 -0 4.50841e-08)
(0 -0 3.78191e-08)
(0 -0 4.27387e-08)
(0 -0 5.58181e-08)
(0 -0 6.32728e-08)
(0 -0 5.569e-08)
(0 -0 5.90173e-08)
(0 -0 6.59955e-08)
(0 -0 3.75693e-08)
(0 -0 -3.79426e-06)
(0 -0 0.000136979)
(0 -0 -2.12443e-07)
(0 -0 -2.74873e-07)
(0 -0 -3.37838e-07)
(0 -0 -3.41781e-07)
(0 -0 -3.16657e-07)
(0 -0 -3.33169e-07)
(0 -0 -3.5379e-07)
(0 -0 -3.37489e-07)
(0 -0 -3.42554e-07)
(0 -0 -3.48493e-07)
(0 -0 -3.05585e-07)
(0 -0 -3.0826e-07)
(0 -0 -3.07933e-07)
(0 -0 -2.69833e-07)
(0 -0 -2.52184e-07)
(0 -0 -2.93829e-07)
(0 -0 -2.35844e-07)
(0 -0 -2.0216e-07)
(0 -0 -2.32728e-07)
(0 -0 -2.43721e-07)
(0 -0 -1.91275e-07)
(0 -0 -1.85894e-07)
(0 -0 -1.75349e-07)
(0 -0 -1.58591e-07)
(0 -0 -1.39824e-07)
(0 -0 -1.1729e-07)
(0 -0 -1.0044e-07)
(0 -0 -9.70598e-08)
(0 -0 -9.1281e-08)
(0 -0 -9.5605e-08)
(0 -0 -8.25982e-08)
(0 -0 -7.40206e-08)
(0 -0 -6.71164e-08)
(0 -0 -6.65824e-08)
(0 -0 -5.04516e-08)
(0 -0 -3.47228e-08)
(0 -0 -4.76022e-08)
(0 -0 -2.76409e-08)
(0 -0 -2.35989e-08)
(0 -0 -2.62311e-08)
(0 -0 -1.86234e-10)
(0 -0 -7.52165e-09)
(0 -0 3.68432e-09)
(0 -0 -1.05375e-08)
(0 -0 5.78146e-09)
(0 -0 7.14494e-09)
(0 -0 8.93155e-09)
(0 -0 2.01343e-08)
(0 -0 3.35457e-08)
(0 -0 2.83909e-08)
(0 -0 2.24314e-08)
(0 -0 3.49546e-08)
(0 -0 3.77728e-08)
(0 -0 3.6535e-08)
(0 -0 3.62724e-08)
(0 -0 1.56316e-08)
(0 -0 2.38978e-08)
(0 -0 4.39407e-08)
(0 -0 6.21913e-08)
(0 -0 2.22509e-08)
(0 -0 2.69999e-08)
(0 -0 6.09201e-08)
(0 -0 7.6788e-08)
(0 -0 4.86915e-08)
(0 -0 3.63126e-08)
(0 -0 7.00017e-08)
(0 -0 6.90427e-08)
(0 -0 6.50679e-08)
(0 -0 2.85375e-08)
(0 -0 -3.47524e-06)
(0 -0 0.000126197)
(0 -0 -2.82914e-08)
(0 -0 -2.09504e-07)
(0 -0 -3.07969e-07)
(0 -0 -2.60013e-07)
(0 -0 -2.61318e-07)
(0 -0 -2.90747e-07)
(0 -0 -2.62305e-07)
(0 -0 -2.78774e-07)
(0 -0 -2.93239e-07)
(0 -0 -2.62244e-07)
(0 -0 -2.16449e-07)
(0 -0 -2.47559e-07)
(0 -0 -2.12234e-07)
(0 -0 -1.73412e-07)
(0 -0 -2.12084e-07)
(0 -0 -2.67871e-07)
(0 -0 -1.89617e-07)
(0 -0 -1.72755e-07)
(0 -0 -1.90935e-07)
(0 -0 -1.87496e-07)
(0 -0 -1.59243e-07)
(0 -0 -1.7518e-07)
(0 -0 -1.07219e-07)
(0 -0 -1.13834e-07)
(0 -0 -1.03521e-07)
(0 -0 -4.37774e-08)
(0 -0 -3.1604e-08)
(0 -0 -5.66292e-08)
(0 -0 -5.16111e-08)
(0 -0 -4.91419e-08)
(0 -0 -5.36005e-08)
(0 -0 -4.7889e-08)
(0 -0 -3.11869e-08)
(0 -0 -1.7757e-08)
(0 -0 -2.05016e-08)
(0 -0 1.43116e-09)
(0 -0 -3.00154e-08)
(0 -0 2.88002e-08)
(0 -0 1.60116e-08)
(0 -0 -3.77682e-09)
(0 -0 6.29875e-08)
(0 -0 2.54653e-08)
(0 -0 5.58548e-08)
(0 -0 2.07415e-08)
(0 -0 4.63807e-08)
(0 -0 5.29457e-08)
(0 -0 6.05329e-08)
(0 -0 6.66074e-08)
(0 -0 8.3601e-08)
(0 -0 9.54224e-08)
(0 -0 7.96412e-08)
(0 -0 8.23604e-08)
(0 -0 8.5732e-08)
(0 -0 7.38752e-08)
(0 -0 5.08299e-08)
(0 -0 2.87034e-08)
(0 -0 7.75769e-08)
(0 -0 6.36926e-08)
(0 -0 6.79229e-08)
(0 -0 2.4842e-08)
(0 -0 7.02307e-08)
(0 -0 8.01726e-08)
(0 -0 6.99274e-08)
(0 -0 7.53666e-08)
(0 -0 4.98154e-08)
(0 -0 8.70228e-08)
(0 -0 6.99205e-08)
(0 -0 8.74751e-08)
(0 -0 3.26888e-08)
(0 -0 -3.18177e-06)
(0 -0 0.00011654)
(0 -0 2.59195e-07)
(0 -0 -1.6444e-08)
(0 -0 -1.73266e-07)
(0 -0 -2.03675e-07)
(0 -0 -2.04392e-07)
(0 -0 -1.93061e-07)
(0 -0 -1.56021e-07)
(0 -0 -1.90455e-07)
(0 -0 -1.62643e-07)
(0 -0 -1.47775e-07)
(0 -0 -1.48254e-07)
(0 -0 -1.43365e-07)
(0 -0 -8.97725e-08)
(0 -0 -7.66556e-08)
(0 -0 -1.08737e-07)
(0 -0 -1.81151e-07)
(0 -0 -1.70787e-07)
(0 -0 -1.5142e-07)
(0 -0 -1.14748e-07)
(0 -0 -1.55996e-07)
(0 -0 -1.10106e-07)
(0 -0 -1.23883e-07)
(0 -0 -1.56723e-08)
(0 -0 -7.65678e-08)
(0 -0 -4.65053e-08)
(0 -0 5.00096e-08)
(0 -0 6.68595e-08)
(0 -0 1.89216e-08)
(0 -0 2.14968e-08)
(0 -0 1.83737e-08)
(0 -0 -2.20506e-08)
(0 -0 -2.76674e-09)
(0 -0 3.29736e-08)
(0 -0 2.10642e-08)
(0 -0 2.95377e-08)
(0 -0 4.51883e-08)
(0 -0 2.70839e-08)
(0 -0 9.65488e-08)
(0 -0 6.74415e-08)
(0 -0 5.03926e-08)
(0 -0 1.11989e-07)
(0 -0 1.09773e-07)
(0 -0 1.0763e-07)
(0 -0 7.54932e-08)
(0 -0 1.32503e-07)
(0 -0 1.448e-07)
(0 -0 1.22748e-07)
(0 -0 1.39403e-07)
(0 -0 1.49292e-07)
(0 -0 1.75904e-07)
(0 -0 1.19409e-07)
(0 -0 1.27386e-07)
(0 -0 1.4548e-07)
(0 -0 1.05606e-07)
(0 -0 7.17399e-08)
(0 -0 6.70418e-08)
(0 -0 1.48301e-07)
(0 -0 8.89781e-08)
(0 -0 1.10315e-07)
(0 -0 1.69532e-08)
(0 -0 9.63988e-08)
(0 -0 8.18017e-08)
(0 -0 7.63416e-08)
(0 -0 1.46392e-07)
(0 -0 9.70506e-08)
(0 -0 1.12154e-07)
(0 -0 4.98998e-08)
(0 -0 1.47297e-07)
(0 -0 4.94879e-08)
(0 -0 -2.89511e-06)
(0 -0 0.000107899)
(0 -0 5.04906e-07)
(0 -0 2.58892e-07)
(0 -0 -2.16429e-08)
(0 -0 -1.35575e-07)
(0 -0 -1.25818e-07)
(0 -0 -1.26742e-07)
(0 -0 -1.28131e-07)
(0 -0 -1.09469e-07)
(0 -0 -8.04299e-08)
(0 -0 -9.79852e-08)
(0 -0 -1.0266e-07)
(0 -0 -5.75668e-08)
(0 -0 -1.03918e-07)
(0 -0 -1.07648e-07)
(0 -0 -5.48076e-08)
(0 -0 -3.41321e-08)
(0 -0 -1.3366e-07)
(0 -0 -1.34394e-07)
(0 -0 -2.3686e-09)
(0 -0 -1.74114e-07)
(0 -0 -4.94656e-08)
(0 -0 -4.53017e-08)
(0 -0 3.21144e-08)
(0 -0 4.11017e-08)
(0 -0 2.68634e-08)
(0 -0 -6.06411e-08)
(0 -0 1.13758e-07)
(0 -0 1.29136e-07)
(0 -0 9.7804e-08)
(0 -0 6.60048e-08)
(0 -0 2.65875e-08)
(0 -0 5.02654e-08)
(0 -0 9.73773e-08)
(0 -0 -6.05713e-08)
(0 -0 1.5633e-07)
(0 -0 -3.78572e-08)
(0 -0 2.03279e-07)
(0 -0 1.02358e-07)
(0 -0 1.14885e-07)
(0 -0 1.74741e-07)
(0 -0 -1.53608e-07)
(0 -0 2.70814e-07)
(0 -0 -9.25e-10)
(0 -0 2.12597e-07)
(0 -0 2.63255e-07)
(0 -0 2.07053e-07)
(0 -0 7.24267e-08)
(0 -0 1.66633e-07)
(0 -0 4.28445e-08)
(0 -0 9.52166e-08)
(0 -0 -1.94465e-08)
(0 -0 -5.69718e-08)
(0 -0 1.7079e-08)
(0 -0 7.01685e-08)
(0 -0 1.50661e-07)
(0 -0 1.94871e-07)
(0 -0 1.51526e-07)
(0 -0 9.19441e-08)
(0 -0 1.83564e-07)
(0 -0 3.5537e-08)
(0 -0 8.15825e-08)
(0 -0 9.92545e-09)
(0 -0 1.30237e-07)
(0 -0 2.34714e-07)
(0 -0 1.19909e-07)
(0 -0 1.64161e-07)
(0 -0 1.16297e-07)
(0 -0 1.62555e-07)
(0 -0 6.42403e-08)
(0 -0 -2.6105e-06)
(0 -0 0.000100198)
(0 -0 6.55121e-07)
(0 -0 4.0657e-07)
(0 -0 1.01304e-07)
(0 -0 -1.3384e-08)
(0 -0 -8.06369e-08)
(0 -0 -1.26652e-07)
(0 -0 -2.02605e-07)
(0 -0 -4.15943e-08)
(0 -0 -1.7247e-07)
(0 -0 -1.85434e-07)
(0 -0 -2.03684e-07)
(0 -0 -1.45036e-07)
(0 -0 -3.23586e-07)
(0 -0 -3.81842e-07)
(0 -0 -2.56585e-07)
(0 -0 1.25884e-07)
(0 -0 1.62572e-08)
(0 -0 -1.55876e-07)
(0 -0 1.43963e-07)
(0 -0 -3.59784e-09)
(0 -0 3.05714e-09)
(0 -0 7.51362e-08)
(0 -0 -6.62788e-09)
(0 -0 3.27377e-07)
(0 -0 1.0415e-07)
(0 -0 -4.11896e-07)
(0 -0 -2.01201e-08)
(0 -0 1.40158e-07)
(0 -0 1.09235e-07)
(0 -0 6.92118e-08)
(0 -0 1.45948e-07)
(0 -0 9.25564e-08)
(0 -0 1.42989e-07)
(0 -0 -1.78164e-07)
(0 -0 3.48992e-07)
(0 -0 -2.56732e-07)
(0 -0 4.83684e-07)
(0 -0 1.47243e-08)
(0 -0 1.66628e-07)
(0 -0 3.25712e-07)
(0 -0 -7.26838e-07)
(0 -0 3.16988e-07)
(0 -0 -2.81494e-07)
(0 -0 3.43634e-07)
(0 -0 2.74788e-07)
(0 -0 1.69059e-07)
(0 -0 -9.23094e-08)
(0 -0 4.71726e-08)
(0 -0 -2.89441e-07)
(0 -0 -2.57769e-07)
(0 -0 -3.18724e-07)
(0 -0 -4.07177e-07)
(0 -0 -2.32812e-07)
(0 -0 2.98239e-08)
(0 -0 3.41365e-07)
(0 -0 4.71776e-07)
(0 -0 8.846e-08)
(0 -0 7.88957e-08)
(0 -0 2.1746e-07)
(0 -0 3.41716e-07)
(0 -0 2.25069e-07)
(0 -0 3.48965e-08)
(0 -0 1.70516e-07)
(0 -0 1.92921e-07)
(0 -0 2.07549e-07)
(0 -0 1.28177e-07)
(0 -0 3.87173e-07)
(0 -0 -1.28394e-07)
(0 -0 2.54565e-07)
(0 -0 -2.50276e-06)
(0 -0 9.33786e-05)
(0 -0 -2.30577e-07)
(0 -0 -1.1425e-07)
(0 -0 -1.39559e-07)
(0 -0 -1.49968e-07)
(0 -0 -2.08967e-07)
(0 -0 -2.16085e-07)
(0 -0 -3.28902e-07)
(0 -0 -1.83962e-07)
(0 -0 -3.36229e-07)
(0 -0 -2.99849e-07)
(0 -0 -3.30469e-07)
(0 -0 -2.82479e-07)
(0 -0 -3.50353e-07)
(0 -0 -3.91199e-07)
(0 -0 -4.88673e-07)
(0 -0 -5.37608e-07)
(0 -0 -2.07267e-07)
(0 -0 -2.00745e-07)
(0 -0 -3.40119e-07)
(0 -0 2.11941e-07)
(0 -0 -2.7394e-07)
(0 -0 3.96081e-08)
(0 -0 -9.57186e-08)
(0 -0 -4.84445e-08)
(0 -0 -1.22607e-07)
(0 -0 2.96731e-07)
(0 -0 -2.83501e-07)
(0 -0 -3.56828e-07)
(0 -0 -2.05854e-07)
(0 -0 -1.74867e-07)
(0 -0 -3.02621e-08)
(0 -0 -1.14204e-07)
(0 -0 -4.91016e-08)
(0 -0 3.5917e-07)
(0 -0 -3.05943e-07)
(0 -0 2.11181e-07)
(0 -0 -2.87687e-07)
(0 -0 7.83761e-08)
(0 -0 3.50402e-08)
(0 -0 -3.25166e-07)
(0 -0 6.68472e-07)
(0 -0 -7.89183e-07)
(0 -0 2.79409e-07)
(0 -0 -5.06799e-07)
(0 -0 -3.98918e-07)
(0 -0 8.71016e-08)
(0 -0 2.42968e-07)
(0 -0 -5.19392e-08)
(0 -0 3.88595e-07)
(0 -0 1.17017e-07)
(0 -0 4.45168e-07)
(0 -0 6.79954e-07)
(0 -0 6.19441e-07)
(0 -0 4.63933e-07)
(0 -0 2.64861e-07)
(0 -0 -1.12288e-07)
(0 -0 6.35742e-08)
(0 -0 1.35549e-07)
(0 -0 -5.45066e-08)
(0 -0 5.42178e-07)
(0 -0 4.40684e-07)
(0 -0 7.0476e-07)
(0 -0 1.81253e-07)
(0 -0 -1.59022e-07)
(0 -0 3.52888e-07)
(0 -0 2.59352e-08)
(0 -0 7.58935e-07)
(0 -0 -6.36646e-07)
(0 -0 5.93046e-07)
(0 -0 -2.57961e-06)
(0 -0 8.74477e-05)
(0 -0 -1.54477e-07)
(0 -0 -1.69902e-07)
(0 -0 -2.49885e-07)
(0 -0 4.78879e-07)
(0 -0 -4.77033e-07)
(0 -0 8.11049e-07)
(0 -0 -7.20506e-07)
(0 -0 -1.83578e-06)
(0 -0 8.16398e-05)
(0 -0 -4.96613e-05)
(0 -0 -4.97154e-05)
(0 -0 -4.96403e-05)
(0 -0 -4.96243e-05)
(0 -0 -4.9583e-05)
(0 -0 -4.95229e-05)
(0 -0 -4.93928e-05)
(0 -0 -4.9311e-05)
(0 -0 -4.91969e-05)
(0 -0 -4.90363e-05)
(0 -0 -4.88897e-05)
(0 -0 -4.87387e-05)
(0 -0 -4.85628e-05)
(0 -0 -4.83592e-05)
(0 -0 -4.81113e-05)
(0 -0 -4.78743e-05)
(0 -0 -4.76395e-05)
(0 -0 -4.73997e-05)
(0 -0 -4.71537e-05)
(0 -0 -4.68781e-05)
(0 -0 -4.66018e-05)
(0 -0 -4.63261e-05)
(0 -0 -4.60367e-05)
(0 -0 -4.57458e-05)
(0 -0 -4.54473e-05)
(0 -0 -4.51422e-05)
(0 -0 -4.48492e-05)
(0 -0 -4.45342e-05)
(0 -0 -4.42016e-05)
(0 -0 -4.39e-05)
(0 -0 -4.36093e-05)
(0 -0 -4.32947e-05)
(0 -0 -4.29661e-05)
(0 -0 -4.26308e-05)
(0 -0 -4.23074e-05)
(0 -0 -4.20142e-05)
(0 -0 -4.16918e-05)
(0 -0 -4.1361e-05)
(0 -0 -4.10575e-05)
(0 -0 -4.07607e-05)
(0 -0 -4.04645e-05)
(0 -0 -4.01612e-05)
(0 -0 -3.98422e-05)
(0 -0 -3.95474e-05)
(0 -0 -3.92691e-05)
(0 -0 -3.90044e-05)
(0 -0 -3.87415e-05)
(0 -0 -3.84695e-05)
(0 -0 -3.82119e-05)
(0 -0 -3.79865e-05)
(0 -0 -3.7772e-05)
(0 -0 -3.75605e-05)
(0 -0 -3.7355e-05)
(0 -0 -3.71796e-05)
(0 -0 -3.70504e-05)
(0 -0 -3.69413e-05)
(0 -0 -3.68728e-05)
(0 -0 -3.68384e-05)
(0 -0 -3.68543e-05)
(0 -0 -3.69209e-05)
(0 -0 -3.70538e-05)
(0 -0 -3.72721e-05)
(0 -0 -3.75968e-05)
(0 -0 -3.80286e-05)
(0 -0 -3.85889e-05)
(0 -0 -3.92446e-05)
(0 -0 -4.25055e-05)
(0 -0 -3.202e-05)
(0 -0 8.26595e-05)
(0 -0 -0.000680446)
(0 -0 -5.6266e-05)
(0 -0 -5.6158e-05)
(0 -0 -5.58942e-05)
(0 -0 -5.56452e-05)