/*--------------------------------*- C++ -*----------------------------------*\
| =========                 |                                                 |
| \\      /  F ield         | OpenFOAM: The Open Source CFD Toolbox           |
|  \\    /   O peration     | Version:  2412                                  |
|   \\  /    A nd           | Website:  www.openfoam.com                      |
|    \\/     M anipulation  |                                                 |
\*---------------------------------------------------------------------------*/
FoamFile
{
    version     2.0;
    format      ascii;
    arch        "LSB;label=32;scalar=64";
    class       volScalarField;
    location    "14";
    object      p;
}
// * * * * * * * * * * * * * * * * * * * * * * * * * * * * * * * * * * * * * //

dimensions      [0 2 -2 0 0 0 0];

internalField   nonuniform List<scalar> 
5285
(
0.000839286
0.00083444
0.000829296
0.000823841
0.000818062
0.000811946
0.000805478
0.000798645
0.000791434
0.00078383
0.000775819
0.000767388
0.000758524
0.000749212
0.000739441
0.000729197
0.000849223
0.000844507
0.000839487
0.000834149
0.00082848
0.000822465
0.00081609
0.000809339
0.000802199
0.000794653
0.000786687
0.000778287
0.000769436
0.000760121
0.000750327
0.00074004
0.000859437
0.000854863
0.00084998
0.000844773
0.000839227
0.000833327
0.000827058
0.000820404
0.000813348
0.000805875
0.000797968
0.00078961
0.000780787
0.000771481
0.000761677
0.000751359
0.000869932
0.000865513
0.000860781
0.000855718
0.000850311
0.000844541
0.000838393
0.00083185
0.000824894
0.000817508
0.000809674
0.000801375
0.000792593
0.000783311
0.000773511
0.000763175
0.000880712
0.000876463
0.000871895
0.000866993
0.000861738
0.000856114
0.000850103
0.000843686
0.000836846
0.000829564
0.00082182
0.000813596
0.000804872
0.000795629
0.000785848
0.00077551
0.000891779
0.000887715
0.000883329
0.000878601
0.000873516
0.000868054
0.000862196
0.000855924
0.000849218
0.000842057
0.000834421
0.000826289
0.00081764
0.000808454
0.000798709
0.000788385
0.000903138
0.000899275
0.000895084
0.000890549
0.00088565
0.000880368
0.000874683
0.000868573
0.000862019
0.000854998
0.000847489
0.000839469
0.000830915
0.000821804
0.000812114
0.000801822
0.00091479
0.000911143
0.000907167
0.000902842
0.000898148
0.000893064
0.000887569
0.000881643
0.000875261
0.000868401
0.000861039
0.000853151
0.000844712
0.000835698
0.000826084
0.000815845
0.000926736
0.000923324
0.00091958
0.000915483
0.000911013
0.000906147
0.000900865
0.000895141
0.000888953
0.000882275
0.000875083
0.00086735
0.00085905
0.000850156
0.00084064
0.000830476
0.000938978
0.000935819
0.000932325
0.000928476
0.00092425
0.000919624
0.000914575
0.000909077
0.000903106
0.000896634
0.000889636
0.000882082
0.000873945
0.000865195
0.000855803
0.000845738
0.000951516
0.000948628
0.000945405
0.000941824
0.000937864
0.0009335
0.000928707
0.000923458
0.000917728
0.000911488
0.000904709
0.00089736
0.000889413
0.000880834
0.000871593
0.000861656
0.000964349
0.000961752
0.00095882
0.000955529
0.000951857
0.000947778
0.000943265
0.000938292
0.000932829
0.000926846
0.000920314
0.0009132
0.000905471
0.000897093
0.000888031
0.000878251
0.000977476
0.00097519
0.00097257
0.000969592
0.000966232
0.000962462
0.000958255
0.000953583
0.000948415
0.000942719
0.000936463
0.000929613
0.000922134
0.000913988
0.000905139
0.000895549
0.000990893
0.000988939
0.000986654
0.000984012
0.000980988
0.000977553
0.00097368
0.000969337
0.000964493
0.000959114
0.000953167
0.000946613
0.000939416
0.000931537
0.000922936
0.00091357
0.0010046
0.001003
0.00100107
0.000998789
0.000996126
0.000993054
0.000989542
0.000985558
0.000981069
0.000976039
0.000970433
0.000964211
0.000957333
0.000949757
0.000941441
0.000932339
0.00101858
0.00101736
0.00101581
0.00101392
0.00101164
0.00100896
0.00100584
0.00100225
0.000998146
0.0009935
0.00098827
0.000982416
0.000975895
0.000968663
0.000960672
0.000951875
0.00103284
0.00103202
0.00103088
0.0010294
0.00102754
0.00102528
0.00102258
0.00101941
0.00101573
0.0010115
0.00100668
0.00100124
0.000995114
0.000988267
0.000980647
0.0009722
0.00104737
0.00104697
0.00104626
0.00104522
0.00104381
0.00104199
0.00103975
0.00103703
0.00103381
0.00103004
0.00102568
0.00102068
0.001015
0.00100858
0.00100138
0.000993333
0.00106216
0.00106221
0.00106196
0.00106138
0.00106044
0.0010591
0.00105735
0.00105512
0.0010524
0.00104912
0.00104526
0.00104075
0.00103556
0.00102962
0.00102289
0.00101529
0.00107719
0.00107771
0.00107795
0.00107786
0.00107743
0.00107661
0.00107537
0.00107368
0.00107148
0.00106875
0.00106542
0.00106146
0.0010568
0.00105139
0.00104518
0.00103809
0.000889179
0.000889217
0.000889344
0.00088954
0.000889796
0.00089011
0.000890474
0.000890881
0.000891319
0.000891778
0.00089225
0.000892733
0.000893227
0.000893732
0.000894246
0.000894765
0.00089528
0.000895784
0.000896266
0.000896717
0.00089713
0.000897494
0.000897803
0.000898049
0.000898225
0.000898324
0.00089834
0.000898264
0.000898092
0.000897817
0.000897432
0.000896932
0.00089631
0.000895562
0.000894682
0.000893664
0.000892504
0.000891198
0.00088974
0.000888127
0.000886356
0.000884422
0.000882324
0.000880059
0.000877623
0.000875017
0.000872237
0.000869284
0.000866157
0.000862855
0.000859379
0.00085573
0.000851908
0.000847915
0.000843753
0.000891645
0.000891689
0.000891832
0.000892053
0.000892343
0.000892699
0.000893113
0.000893577
0.000894081
0.000894615
0.000895169
0.000895741
0.00089633
0.000896935
0.000897554
0.000898182
0.000898811
0.000899434
0.000900041
0.000900622
0.00090117
0.000901675
0.00090213
0.000902527
0.000902858
0.000903116
0.000903295
0.000903387
0.000903386
0.000903284
0.000903076
0.000902755
0.000902315
0.000901751
0.000901055
0.000900224
0.000899251
0.000898132
0.000896862
0.000895437
0.000893852
0.000892104
0.00089019
0.000888106
0.000885851
0.000883421
0.000880815
0.000878032
0.000875071
0.000871931
0.000868612
0.000865114
0.000861439
0.000857586
0.000853559
0.0008941
0.000894149
0.000894309
0.000894555
0.000894879
0.000895277
0.000895741
0.000896264
0.000896834
0.000897443
0.00089808
0.000898742
0.000899427
0.000900133
0.000900858
0.000901596
0.000902342
0.000903085
0.000903819
0.000904533
0.000905219
0.000905868
0.000906471
0.000907022
0.000907511
0.000907933
0.000908279
0.000908542
0.000908716
0.000908793
0.000908767
0.000908631
0.000908379
0.000908004
0.0009075
0.000906862
0.000906083
0.000905159
0.000904085
0.000902855
0.000901465
0.000899912
0.000898191
0.000896299
0.000894232
0.00089199
0.000889568
0.000886966
0.000884181
0.000881214
0.000878063
0.000874729
0.000871211
0.000867511
0.000863629
0.000896542
0.000896596
0.000896772
0.000897044
0.000897403
0.000897843
0.000898358
0.00089894
0.000899577
0.000900261
0.000900982
0.000901735
0.000902516
0.000903324
0.000904156
0.000905007
0.00090587
0.000906737
0.000907599
0.000908448
0.000909274
0.000910069
0.000910824
0.000911531
0.000912183
0.000912771
0.000913289
0.000913728
0.000914081
0.000914342
0.000914503
0.000914557
0.000914498
0.000914319
0.000914013
0.000913575
0.000912998
0.000912276
0.000911405
0.000910379
0.000909194
0.000907844
0.000906325
0.000904634
0.000902768
0.000900722
0.000898495
0.000896085
0.000893488
0.000890705
0.000887734
0.000884575
0.000881227
0.00087769
0.000873967
0.000898969
0.000899029
0.000899222
0.00089952
0.000899913
0.000900396
0.000900962
0.000901603
0.000902308
0.000903068
0.000903872
0.000904716
0.000905595
0.000906506
0.000907447
0.000908411
0.000909393
0.000910386
0.000911379
0.000912365
0.000913334
0.000914277
0.000915187
0.000916054
0.00091687
0.000917629
0.000918321
0.00091894
0.000919478
0.000919927
0.00092028
0.00092053
0.000920669
0.000920692
0.000920591
0.00092036
0.000919992
0.000919481
0.000918821
0.000918008
0.000917035
0.000915897
0.000914591
0.000913111
0.000911454
0.000909617
0.000907596
0.000905388
0.000902992
0.000900405
0.000897626
0.000894653
0.000891488
0.000888129
0.000884576
0.000901381
0.000901446
0.000901656
0.00090198
0.000902408
0.000902935
0.000903552
0.000904253
0.000905026
0.000905861
0.00090675
0.000907686
0.000908663
0.000909678
0.000910728
0.000911808
0.000912911
0.00091403
0.000915156
0.000916281
0.000917395
0.000918489
0.000919556
0.000920586
0.000921571
0.000922503
0.000923374
0.000924176
0.000924903
0.000925545
0.000926095
0.000926546
0.000926891
0.000927121
0.000927232
0.000927214
0.000927062
0.000926769
0.00092633
0.000925737
0.000924986
0.00092407
0.000922986
0.000921728
0.000920291
0.000918673
0.000916869
0.000914876
0.000912691
0.000910312
0.000907738
0.000904966
0.000901996
0.000898827
0.00089546
0.000903776
0.000903847
0.000904074
0.000904424
0.000904887
0.000905457
0.000906127
0.000906887
0.000907728
0.000908641
0.000909614
0.000910641
0.000911717
0.000912837
0.000913998
0.000915194
0.00091642
0.000917667
0.000918928
0.000920194
0.000921455
0.000922703
0.000923929
0.000925124
0.000926281
0.00092739
0.000928444
0.000929434
0.000930353
0.000931192
0.000931945
0.000932603
0.000933158
0.000933603
0.000933931
0.000934134
0.000934206
0.000934139
0.000933927
0.000933564
0.000933044
0.00093236
0.000931508
0.000930481
0.000929276
0.000927888
0.000926312
0.000924546
0.000922585
0.000920428
0.000918071
0.000915513
0.000912752
0.000909788
0.000906619
0.000906153
0.000906229
0.000906473
0.000906849
0.000907348
0.000907962
0.000908684
0.000909505
0.000910415
0.000911404
0.000912462
0.000913581
0.000914756
0.000915982
0.000917254
0.000918568
0.000919918
0.000921295
0.000922693
0.000924101
0.000925512
0.000926916
0.000928304
0.000929667
0.000930998
0.000932287
0.000933527
0.000934709
0.000935825
0.000936867
0.000937826
0.000938696
0.000939467
0.000940133
0.000940685
0.000941116
0.000941419
0.000941586
0.00094161
0.000941486
0.000941205
0.000940763
0.000940152
0.000939368
0.000938405
0.000937259
0.000935924
0.000934396
0.000932673
0.00093075
0.000928624
0.000926294
0.000923756
0.000921011
0.000918056
0.00090851
0.000908592
0.000908853
0.000909255
0.000909789
0.000910448
0.000911222
0.000912104
0.000913083
0.000914149
0.000915292
0.000916504
0.000917778
0.00091911
0.000920495
0.000921928
0.000923403
0.000924912
0.000926447
0.000928001
0.000929563
0.000931124
0.000932677
0.000934211
0.000935719
0.000937192
0.000938621
0.000939999
0.000941316
0.000942564
0.000943736
0.000944822
0.000945815
0.000946707
0.00094749
0.000948156
0.000948697
0.000949106
0.000949375
0.000949497
0.000949466
0.000949275
0.000948916
0.000948386
0.000947676
0.000946783
0.000945701
0.000944425
0.000942952
0.000941276
0.000939396
0.000937308
0.000935009
0.000932497
0.000929771
0.000910847
0.000910934
0.000911212
0.000911641
0.00091221
0.000912913
0.000913741
0.000914683
0.000915731
0.000916874
0.000918103
0.000919407
0.000920782
0.00092222
0.000923719
0.000925271
0.000926872
0.000928515
0.00093019
0.000931889
0.000933605
0.000935326
0.000937045
0.000938753
0.000940441
0.0009421
0.000943723
0.000945299
0.000946821
0.000948281
0.000949669
0.000950977
0.000952198
0.000953322
0.000954342
0.00095525
0.000956036
0.000956694
0.000957216
0.000957595
0.000957822
0.000957892
0.000957796
0.000957529
0.000957085
0.000956457
0.00095564
0.000954629
0.000953419
0.000952005
0.000950385
0.000948553
0.000946508
0.000944246
0.000941766
0.000913161
0.000913253
0.000913548
0.000914004
0.000914609
0.000915357
0.000916237
0.000917241
0.000918358
0.000919579
0.000920892
0.00092229
0.000923764
0.00092531
0.000926923
0.000928596
0.000930325
0.000932101
0.000933917
0.000935765
0.000937635
0.000939518
0.000941406
0.00094329
0.00094516
0.000947009
0.000948827
0.000950606
0.000952337
0.000954012
0.000955621
0.000957157
0.00095861
0.000959973
0.000961236
0.000962392
0.000963432
0.000964347
0.00096513
0.000965773
0.000966269
0.000966609
0.000966786
0.000966794
0.000966626
0.000966276
0.000965737
0.000965004
0.000964071
0.000962933
0.000961587
0.000960028
0.000958252
0.000956256
0.000954038
0.000915451
0.000915549
0.000915861
0.000916344
0.000916985
0.000917777
0.00091871
0.000919775
0.000920962
0.00092226
0.000923659
0.00092515
0.000926725
0.000928378
0.000930105
0.0009319
0.000933757
0.000935669
0.000937627
0.000939624
0.000941651
0.000943698
0.000945756
0.000947818
0.000949874
0.000951914
0.000953932
0.000955916
0.00095786
0.000959754
0.000961589
0.000963357
0.000965048
0.000966655
0.000968168
0.000969578
0.000970878
0.000972058
0.000973111
0.000974027
0.0009748
0.000975421
0.000975882
0.000976176
0.000976296
0.000976236
0.000975987
0.000975545
0.000974904
0.000974057
0.000973
0.000971729
0.000970239
0.000968526
0.000966587
0.000917716
0.00091782
0.000918149
0.000918658
0.000919335
0.000920172
0.000921158
0.000922285
0.000923541
0.000924917
0.000926401
0.000927985
0.000929661
0.000931422
0.000933264
0.000935181
0.000937167
0.000939215
0.000941317
0.000943465
0.000945649
0.000947861
0.000950093
0.000952334
0.000954577
0.000956812
0.000959032
0.000961225
0.000963385
0.000965502
0.000967567
0.000969572
0.000971506
0.000973363
0.000975131
0.000976803
0.00097837
0.000979823
0.000981153
0.000982352
0.000983411
0.000984322
0.000985077
0.000985669
0.000986089
0.00098633
0.000986386
0.000986249
0.000985912
0.000985372
0.00098462
0.000983653
0.000982465
0.000981052
0.00097941
0.000919955
0.000920064
0.000920411
0.000920947
0.000921659
0.00092254
0.00092358
0.000924768
0.000926094
0.000927547
0.000929116
0.000930793
0.00093257
0.00093444
0.000936397
0.000938437
0.000940553
0.000942738
0.000944984
0.000947283
0.000949627
0.000952006
0.000954411
0.000956835
0.000959267
0.0009617
0.000964123
0.000966529
0.000968909
0.000971252
0.000973552
0.000975797
0.00097798
0.000980091
0.000982121
0.000984061
0.000985902
0.000987635
0.00098925
0.00099074
0.000992095
0.000993306
0.000994366
0.000995266
0.000995998
0.000996553
0.000996926
0.000997107
0.000997091
0.000996871
0.000996441
0.000995794
0.000994926
0.000993831
0.000992505
0.000922166
0.000922281
0.000922645
0.000923207
0.000923955
0.000924881
0.000925973
0.000927223
0.000928618
0.000930149
0.000931804
0.000933574
0.000935451
0.000937429
0.000939503
0.000941665
0.000943911
0.000946234
0.000948625
0.000951077
0.000953581
0.000956128
0.000958709
0.000961316
0.00096394
0.000966572
0.000969202
0.000971823
0.000974425
0.000976999
0.000979536
0.000982027
0.000984463
0.000986834
0.000989131
0.000991345
0.000993467
0.000995487
0.000997396
0.000999185
0.00100084
0.00100237
0.00100374
0.00100496
0.00100602
0.0010069
0.0010076
0.00100812
0.00100843
0.00100855
0.00100846
0.00100815
0.00100762
0.00100686
0.00100587
0.000924348
0.000924469
0.000924849
0.000925438
0.000926222
0.000927192
0.000928337
0.000929648
0.000931113
0.000932721
0.000934461
0.000936324
0.000938302
0.000940388
0.000942577
0.000944863
0.00094724
0.000949701
0.000952238
0.000954843
0.000957508
0.000960224
0.000962982
0.000965774
0.000968591
0.000971424
0.000974264
0.000977103
0.00097993
0.000982738
0.000985517
0.000988257
0.00099095
0.000993586
0.000996156
0.00099865
0.00100106
0.00100337
0.00100558
0.00100768
0.00100965
0.0010115
0.0010132
0.00101475
0.00101614
0.00101736
0.0010184
0.00101926
0.00101993
0.0010204
0.00102066
0.00102071
0.00102053
0.00102013
0.00101949
0.0009265
0.000926626
0.000927023
0.000927639
0.000928458
0.000929472
0.00093067
0.000932042
0.000933576
0.000935261
0.000937086
0.000939042
0.00094112
0.000943315
0.000945619
0.000948029
0.000950537
0.000953136
0.000955819
0.000958578
0.000961405
0.000964291
0.000967228
0.000970206
0.000973218
0.000976253
0.000979305
0.000982363
0.000985419
0.000988463
0.000991487
0.000994481
0.000997435
0.00100034
0.00100319
0.00100597
0.00100867
0.00101129
0.00101381
0.00101622
0.00101851
0.00102068
0.00102272
0.00102461
0.00102635
0.00102792
0.00102932
0.00103055
0.00103158
0.00103241
0.00103304
0.00103346
0.00103366
0.00103363
0.00103336
0.00092862
0.000928751
0.000929166
0.000929807
0.000930661
0.00093172
0.000932971
0.000934403
0.000936006
0.000937768
0.000939677
0.000941726
0.000943904
0.000946207
0.000948627
0.00095116
0.000953799
0.000956536
0.000959366
0.00096228
0.000965269
0.000968326
0.000971441
0.000974607
0.000977815
0.000981055
0.00098432
0.0009876
0.000990886
0.00099417
0.000997442
0.00100069
0.00100391
0.00100709
0.00101022
0.00101329
0.0010163
0.00101922
0.00102205
0.00102479
0.00102742
0.00102993
0.00103231
0.00103455
0.00103665
0.00103858
0.00104036
0.00104195
0.00104336
0.00104458
0.0010456
0.0010464
0.00104699
0.00104735
0.00104749
0.000930707
0.000930843
0.000931275
0.000931942
0.000932831
0.000933933
0.000935236
0.000936729
0.0009384
0.000940238
0.000942233
0.000944373
0.000946652
0.000949062
0.000951598
0.000954254
0.000957024
0.0009599
0.000962876
0.000965945
0.000969097
0.000972325
0.00097562
0.000978974
0.000982378
0.000985825
0.000989304
0.000992808
0.000996327
0.000999852
0.00100338
0.00100689
0.00101038
0.00101383
0.00101725
0.00102062
0.00102393
0.00102716
0.00103032
0.00103339
0.00103635
0.00103921
0.00104195
0.00104455
0.00104702
0.00104933
0.00105149
0.00105347
0.00105527
0.00105689
0.00105831
0.00105952
0.00106052
0.0010613
0.00106184
0.00104532
0.00104853
0.00105163
0.00105461
0.00105745
0.00106015
0.0010627
0.00106509
0.0010673
0.00106934
0.00107117
0.00107281
0.00107424
0.00107545
0.00107643
0.00073602
0.000735827
0.000735349
0.000734592
0.000733545
0.000732228
0.000730706
0.000728985
0.000727035
0.000724858
0.00072249
0.000719948
0.000717231
0.000714349
0.000711316
0.000708146
0.000704847
0.000701429
0.0006979
0.000694268
0.000690542
0.000686728
0.000682835
0.000678868
0.000674835
0.000670741
0.000666594
0.000662398
0.000658161
0.000653886
0.00064958
0.000645247
0.000640893
0.000636522
0.000632138
0.000627747
0.000623352
0.000618956
0.000614565
0.000610181
0.000605808
0.000601449
0.000597108
0.000592786
0.000588486
0.000584213
0.000579966
0.00057575
0.000571566
0.000567415
0.000563301
0.000559224
0.000555185
0.000551188
0.000547232
0.00073633
0.000736139
0.000735662
0.000734903
0.000733856
0.000732544
0.000731025
0.000729304
0.000727353
0.000725179
0.000722815
0.000720275
0.000717561
0.000714681
0.000711651
0.000708483
0.000705187
0.000701771
0.000698244
0.000694615
0.000690891
0.000687079
0.000683187
0.000679222
0.00067519
0.000671098
0.000666951
0.000662756
0.000658519
0.000654244
0.000649938
0.000645604
0.00064125
0.000636878
0.000632493
0.0006281
0.000623703
0.000619306
0.000614913
0.000610527
0.000606151
0.000601789
0.000597444
0.000593119
0.000588817
0.000584539
0.000580289
0.000576069
0.00057188
0.000567726
0.000563607
0.000559525
0.000555482
0.00055148
0.000547519
0.000736933
0.000736743
0.000736266
0.000735507
0.000734463
0.000733157
0.000731642
0.000729921
0.000727972
0.000725804
0.000723446
0.00072091
0.0007182
0.000715326
0.000712301
0.000709139
0.000705847
0.000702436
0.000698914
0.000695289
0.000691569
0.000687761
0.000683872
0.00067991
0.000675881
0.00067179
0.000667645
0.000663452
0.000659215
0.000654941
0.000650634
0.0006463
0.000641944
0.00063757
0.000633183
0.000628788
0.000624388
0.000619987
0.00061559
0.000611199
0.000606818
0.000602451
0.0005981
0.000593769
0.00058946
0.000585175
0.000580918
0.00057669
0.000572493
0.00056833
0.000564203
0.000560112
0.00055606
0.000552048
0.000548078
0.000737811
0.000737622
0.000737146
0.000736388
0.000735347
0.000734048
0.000732537
0.000730819
0.000728875
0.000726715
0.000724364
0.000721835
0.000719132
0.000716265
0.000713248
0.000710093
0.000706809
0.000703405
0.00069989
0.000696271
0.000692557
0.000688754
0.000684871
0.000680913
0.000676887
0.0006728
0.000668658
0.000664466
0.000660231
0.000655957
0.00065165
0.000647315
0.000642957
0.000638581
0.000634191
0.000629792
0.000625387
0.000620981
0.000616578
0.00061218
0.000607792
0.000603417
0.000599058
0.000594718
0.000590399
0.000586104
0.000581836
0.000577597
0.000573389
0.000569214
0.000565074
0.000560971
0.000556906
0.00055288
0.000548896
0.000738946
0.000738759
0.000738284
0.000737527
0.000736491
0.000735199
0.000733695
0.000731981
0.000730044
0.000727893
0.000725551
0.000723031
0.000720338
0.000717481
0.000714474
0.000711329
0.000708054
0.00070466
0.000701153
0.000697543
0.000693837
0.000690042
0.000686165
0.000682213
0.000678193
0.00067411
0.000669971
0.000665782
0.000661548
0.000657275
0.000652968
0.000648632
0.000644272
0.000639893
0.0006355
0.000631095
0.000626685
0.000622273
0.000617862
0.000613456
0.000609059
0.000604674
0.000600304
0.000595951
0.00059162
0.000587313
0.000583031
0.000578777
0.000574554
0.000570364
0.000566208
0.000562088
0.000558006
0.000553963
0.000549961
0.000740321
0.000740135
0.000739663
0.000738909
0.000737878
0.000736594
0.000735098
0.000733391
0.000731462
0.000729321
0.000726992
0.000724483
0.000721801
0.000718956
0.000715962
0.000712828
0.000709566
0.000706183
0.000702687
0.000699088
0.000695392
0.000691606
0.000687737
0.000683793
0.000679779
0.000675702
0.000671568
0.000667383
0.000663151
0.000658879
0.000654573
0.000650236
0.000645874
0.000641492
0.000637094
0.000632684
0.000628267
0.000623847
0.000619427
0.000615011
0.000610603
0.000606206
0.000601823
0.000597457
0.000593111
0.000588788
0.00058449
0.000580219
0.000575978
0.000571769
0.000567594
0.000563454
0.000559351
0.000555288
0.000551264
0.000741921
0.000741736
0.000741267
0.000740516
0.000739492
0.000738217
0.00073673
0.000735032
0.000733113
0.000730985
0.000728669
0.000726173
0.000723505
0.000720675
0.000717695
0.000714576
0.000711328
0.000707958
0.000704476
0.00070089
0.000697205
0.000693431
0.000689573
0.000685638
0.000681632
0.000677562
0.000673434
0.000669253
0.000665025
0.000660755
0.000656449
0.000652112
0.000647748
0.000643363
0.00063896
0.000634544
0.00063012
0.000625691
0.000621261
0.000616834
0.000612414
0.000608003
0.000603606
0.000599224
0.000594861
0.00059052
0.000586202
0.000581912
0.00057765
0.000573419
0.000569221
0.000565058
0.000560932
0.000556844
0.000552795
0.000743729
0.000743546
0.000743079
0.000742333
0.000741317
0.000740053
0.000738576
0.000736888
0.000734981
0.000732868
0.000730567
0.000728087
0.000725435
0.000722621
0.000719658
0.000716556
0.000713324
0.000709971
0.000706504
0.000702933
0.000699263
0.000695501
0.000691656
0.000687732
0.000683736
0.000679675
0.000675554
0.000671379
0.000667155
0.000662889
0.000658584
0.000654247
0.000649882
0.000645493
0.000641085
0.000636663
0.000632231
0.000627793
0.000623353
0.000618913
0.000614479
0.000610054
0.000605639
0.00060124
0.000596858
0.000592497
0.000588158
0.000583846
0.00057956
0.000575305
0.000571082
0.000566893
0.00056274
0.000558624
0.000554547
0.00074573
0.000745549
0.000745086
0.000744346
0.000743337
0.000742085
0.00074062
0.000738945
0.000737052
0.000734955
0.000732671
0.000730209
0.000727575
0.00072478
0.000721836
0.000718753
0.00071554
0.000712205
0.000708757
0.000705202
0.000701549
0.000697803
0.000693972
0.000690061
0.000686078
0.000682027
0.000677915
0.000673747
0.000669529
0.000665267
0.000660965
0.000656628
0.000652261
0.00064787
0.000643458
0.00063903
0.00063459
0.000630142
0.00062569
0.000621238
0.000616789
0.000612347
0.000607915
0.000603497
0.000599094
0.000594711
0.00059035
0.000586012
0.000581702
0.00057742
0.000573169
0.000568951
0.000564768
0.000560622
0.000556513
0.00074791
0.000747732
0.000747273
0.000746538
0.00074554
0.0007443
0.000742849
0.000741187
0.000739311
0.000737232
0.000734967
0.000732524
0.00072991
0.000727137
0.000724214
0.000721153
0.000717961
0.000714648
0.00071122
0.000707685
0.000704051
0.000700323
0.000696508
0.000692613
0.000688643
0.000684605
0.000680503
0.000676345
0.000672134
0.000667877
0.000663578
0.000659243
0.000654876
0.000650483
0.000646067
0.000641632
0.000637184
0.000632727
0.000628263
0.000623798
0.000619334
0.000614875
0.000610424
0.000605985
0.000601561
0.000597155
0.000592768
0.000588405
0.000584066
0.000579756
0.000575475
0.000571226
0.00056701
0.000562831
0.000558688
0.000750255
0.000750079
0.000749624
0.000748897
0.000747909
0.000746684
0.000745247
0.000743601
0.000741743
0.000739684
0.00073744
0.000735019
0.000732428
0.000729678
0.000726779
0.000723742
0.000720574
0.000717284
0.00071388
0.000710368
0.000706754
0.000703047
0.000699251
0.000695374
0.00069142
0.000687396
0.000683307
0.000679159
0.000674958
0.000670708
0.000666414
0.000662082
0.000657716
0.000653321
0.000648901
0.000644462
0.000640006
0.000635539
0.000631063
0.000626584
0.000622104
0.000617628
0.000613158
0.000608698
0.000604251
0.00059982
0.000595407
0.000591015
0.000586648
0.000582306
0.000577994
0.000573711
0.000569461
0.000565246
0.000561067
0.000752751
0.000752578
0.000752128
0.000751409
0.000750433
0.000749223
0.000747802
0.000746174
0.000744335
0.000742298
0.000740078
0.000737681
0.000735115
0.00073239
0.000729518
0.000726507
0.000723366
0.000720103
0.000716724
0.000713237
0.000709648
0.000705963
0.000702189
0.000698332
0.000694397
0.000690389
0.000686315
0.00068218
0.00067799
0.000673748
0.000669461
0.000665133
0.000660769
0.000656374
0.000651952
0.000647508
0.000643045
0.000638569
0.000634082
0.000629589
0.000625094
0.000620599
0.00061611
0.000611628
0.000607157
0.0006027
0.00059826
0.000593839
0.000589441
0.000585067
0.00058072
0.000576403
0.000572117
0.000567863
0.000563645
0.000755386
0.000755215
0.000754772
0.00075406
0.000753097
0.000751904
0.000750501
0.000748891
0.000747075
0.000745062
0.000742867
0.000740496
0.000737958
0.000735262
0.000732418
0.000729437
0.000726325
0.00072309
0.00071974
0.000716281
0.000712719
0.00070906
0.00070531
0.000701476
0.000697561
0.000693573
0.000689517
0.000685397
0.000681219
0.000676988
0.00067271
0.000668388
0.000664027
0.000659633
0.00065521
0.000650762
0.000646293
0.000641808
0.000637311
0.000632805
0.000628294
0.000623782
0.000619272
0.000614768
0.000610272
0.000605789
0.000601321
0.00059687
0.00059244
0.000588032
0.00058365
0.000579296
0.000574972
0.000570679
0.00056642
0.000758147
0.000757979
0.000757542
0.00075684
0.000755891
0.000754714
0.000753331
0.000751742
0.000749949
0.000747963
0.000745795
0.000743453
0.000740944
0.000738279
0.000735467
0.000732518
0.000729438
0.000726235
0.000722917
0.000719488
0.000715956
0.000712326
0.000708603
0.000704794
0.000700904
0.000696937
0.0006929
0.000688798
0.000684636
0.000680418
0.00067615
0.000671836
0.000667481
0.00066309
0.000658667
0.000654216
0.000649743
0.00064525
0.000640742
0.000636224
0.000631698
0.000627168
0.000622638
0.000618112
0.000613592
0.000609082
0.000604585
0.000600103
0.00059564
0.000591198
0.00058678
0.000582387
0.000578023
0.000573689
0.000569387
0.000761022
0.000760858
0.000760427
0.000759735
0.000758801
0.000757643
0.000756281
0.000754715
0.000752947
0.000750989
0.00074885
0.000746539
0.000744063
0.000741431
0.000738653
0.000735738
0.000732694
0.000729526
0.000726242
0.000722847
0.000719348
0.000715749
0.000712057
0.000708276
0.000704413
0.000700471
0.000696457
0.000692375
0.00068823
0.000684027
0.000679772
0.000675468
0.000671121
0.000666735
0.000662314
0.000657863
0.000653385
0.000648887
0.00064437
0.000639839
0.000635299
0.000630752
0.000626203
0.000621655
0.000617111
0.000612574
0.000608047
0.000603534
0.000599038
0.00059456
0.000590104
0.000585673
0.000581267
0.000576891
0.000572545
0.000764
0.00076384
0.000763415
0.000762735
0.000761817
0.000760679
0.000759339
0.000757797
0.000756057
0.000754128
0.000752022
0.000749743
0.000747302
0.000744706
0.000741965
0.000739088
0.000736082
0.000732952
0.000729705
0.000726348
0.000722884
0.00071932
0.000715661
0.000711912
0.000708078
0.000704164
0.000700176
0.000696117
0.000691993
0.000687808
0.000683568
0.000679277
0.000674939
0.00067056
0.000666143
0.000661693
0.000657214
0.00065271
0.000648186
0.000643645
0.000639092
0.000634529
0.000629961
0.000625391
0.000620823
0.000616259
0.000611704
0.000607159
0.000602629
0.000598115
0.000593621
0.000589149
0.000584702
0.000580281
0.00057589
0.000767071
0.000766914
0.000766497
0.000765829
0.000764927
0.000763811
0.000762494
0.000760978
0.000759267
0.000757371
0.000755298
0.000753055
0.000750651
0.000748094
0.000745393
0.000742556
0.000739591
0.000736502
0.000733296
0.000729979
0.000726555
0.000723029
0.000719407
0.000715692
0.000711891
0.000708008
0.000704048
0.000700015
0.000695915
0.000691751
0.000687529
0.000683253
0.000678928
0.000674558
0.000670147
0.0006657
0.000661222
0.000656715
0.000652185
0.000647635
0.00064307
0.000638492
0.000633906
0.000629315
0.000624724
0.000620134
0.00061555
0.000610974
0.00060641
0.00060186
0.000597327
0.000592815
0.000588325
0.000583859
0.000579421
0.000770223
0.00077007
0.000769661
0.000769006
0.000768122
0.000767028
0.000765736
0.000764248
0.000762568
0.000760706
0.000758669
0.000756464
0.000754099
0.000751584
0.000748926
0.000746132
0.000743211
0.000740167
0.000737005
0.000733731
0.000730349
0.000726865
0.000723283
0.000719607
0.000715842
0.000711993
0.000708065
0.000704061
0.000699987
0.000695848
0.000691647
0.000687389
0.000683079
0.000678721
0.000674319
0.000669878
0.000665402
0.000660894
0.00065636
0.000651803
0.000647227
0.000642636
0.000638034
0.000633424
0.000628809
0.000624194
0.000619581
0.000614975
0.000610377
0.000605791
0.00060122
0.000596666
0.000592133
0.000587622
0.000583137
0.000773448
0.000773298
0.000772898
0.000772256
0.000771391
0.00077032
0.000769055
0.000767597
0.00076595
0.000764124
0.000762125
0.00075996
0.000757638
0.000755166
0.000752553
0.000749807
0.000746932
0.000743935
0.000740821
0.000737594
0.000734259
0.00073082
0.000727281
0.000723646
0.000719921
0.00071611
0.000712217
0.000708246
0.000704203
0.00070009
0.000695913
0.000691677
0.000687385
0.000683042
0.000678652
0.000674219
0.000669747
0.000665242
0.000660706
0.000656144
0.000651559
0.000646957
0.000642339
0.000637711
0.000633075
0.000628435
0.000623795
0.000619158
0.000614527
0.000609906
0.000605296
0.000600702
0.000596125
0.000591568
0.000587035
0.000776735
0.00077659
0.000776198
0.000775571
0.000774726
0.000773679
0.000772442
0.000771015
0.000769403
0.000767614
0.000765656
0.000763534
0.000761256
0.000758831
0.000756267
0.00075357
0.000750746
0.0007478
0.000744736
0.00074156
0.000738274
0.000734883
0.000731391
0.000727802
0.000724121
0.000720351
0.000716497
0.000712562
0.000708552
0.00070447
0.000700321
0.000696109
0.000691838
0.000687513
0.000683138
0.000678716
0.000674252
0.000669751
0.000665216
0.000660651