/*--------------------------------*- C++ -*----------------------------------*\
| =========                 |                                                 |
| \\      /  F ield         | OpenFOAM: The Open Source CFD Toolbox           |
|  \\    /   O peration     | Version:  2412                                  |
|   \\  /    A nd           | Website:  www.openfoam.com                      |
|    \\/     M anipulation  |                                                 |
\*---------------------------------------------------------------------------*/
FoamFile
{
    version     2.0;
    format      ascii;
    arch        "LSB;label=32;scalar=64";
    class       volScalarField;
    location    "30";
    object      error;
}
// * * * * * * * * * * * * * * * * * * * * * * * * * * * * * * * * * * * * * //

dimensions      [0 0 0 0 0 0 0];

internalField   nonuniform List<scalar> 
5285
(
0.00397926
0.00408365
0.0041405
0.0041579
0.00413768
0.00408173
0.0039919
0.00386979
0.00371681
0.00353419
0.0033228
0.00308291
0.0028138
0.00251354
0.00217891
0.00180577
0.00138974
0.000927639
0.000424291
0.00022388
0.000806987
0.00147336
0.0021881
0.00294248
0.00372886
0.00453979
0.00536841
0.00620873
0.00705591
0.00790637
0.00875777
0.00960891
0.0104595
0.0113101
0.0121617
0.0130157
0.0138738
0.0147376
0.0156091
0.0164897
0.017381
0.0182845
0.0192015
0.0201331
0.0210804
0.0220443
0.0230257
0.0240253
0.0250439
0.026082
0.0271404
0.0282197
0.0293205
0.0304438
0.0315911
0.00397873
0.00408281
0.00413951
0.00415689
0.00413676
0.00408101
0.0039915
0.00386984
0.00371745
0.00353561
0.00332523
0.00308668
0.00281943
0.00252189
0.00219148
0.00182535
0.00142216
0.000987907
0.000569032
0.000474775
0.000927202
0.0015531
0.00224933
0.00299261
0.00377117
0.00457603
0.00539965
0.00623574
0.00707929
0.00792664
0.00877538
0.00962423
0.0104729
0.0113218
0.012172
0.0130248
0.0138819
0.0147449
0.0156155
0.0164955
0.0173862
0.0182891
0.0192055
0.0201365
0.0210833
0.0220466
0.0230274
0.0240264
0.0250443
0.0260817
0.0271394
0.0282179
0.0293178
0.0304402
0.0315867
0.00397767
0.00408115
0.00413755
0.00415487
0.00413492
0.00407958
0.00399071
0.00386994
0.00371875
0.00353844
0.00333007
0.00309419
0.00283064
0.00253847
0.00221635
0.00186379
0.00148469
0.00109826
0.00078134
0.000758268
0.00112939
0.00170107
0.00236681
0.0030903
0.00385433
0.00464764
0.00546163
0.00628949
0.00712594
0.00796715
0.00881061
0.00965494
0.0104998
0.0113454
0.0121928
0.0130433
0.0138983
0.0147595
0.0156286
0.0165071
0.0173965
0.0182983
0.0192135
0.0201434
0.021089
0.0220512
0.0230308
0.0240286
0.0250452
0.0260813
0.0271375
0.0282144
0.0293126
0.0304332
0.0315778
0.00397607
0.00407865
0.0041346
0.00415184
0.00413217
0.00407743
0.00398952
0.0038701
0.00372068
0.00354268
0.0033373
0.00310539
0.00284731
0.00256306
0.00225299
0.00191977
0.00157345
0.00124493
0.00101905
0.00104733
0.00137718
0.00190086
0.00253236
0.003231
0.00397568
0.00475304
0.00555342
0.00636946
0.00719561
0.00802786
0.00886355
0.00970119
0.0105403
0.011381
0.0122243
0.0130712
0.0139231
0.0147817
0.0156484
0.0165248
0.0174123
0.0183122
0.0192257
0.0201539
0.0210978
0.0220582
0.023036
0.0240319
0.0250466
0.0260806
0.0271346
0.0282092
0.0293049
0.0304227
0.0315644
0.00397395
0.00407533
0.00413067
0.0041478
0.00412849
0.00407456
0.00398793
0.00387029
0.00372323
0.00354829
0.00334687
0.00312019
0.00286929
0.00259533
0.00230068
0.00199154
0.00168386
0.001416
0.00126703
0.0013373
0.00164922
0.00213727
0.00273677
0.00340909
0.00413172
0.00489005
0.00567369
0.00647491
0.00728794
0.00810864
0.00893425
0.00976315
0.0105947
0.011429
0.0122667
0.0131088
0.0139567
0.0148117
0.0156752
0.0165488
0.0174336
0.018331
0.0192422
0.020168
0.0211096
0.0220677
0.0230432
0.0240366
0.0250487
0.02608
0.0271311
0.0282025
0.0292949
0.0304089
0.0315465
0.0039713
0.00407117
0.00412577
0.00414277
0.0041239
0.00407098
0.00398594
0.00387052
0.0037264
0.00355524
0.00335872
0.0031385
0.00289638
0.00263487
0.00235856
0.00207715
0.00181144
0.00160292
0.00151923
0.00162659
0.00193428
0.00239866
0.00297139
0.00361864
0.00431847
0.00505606
0.00582081
0.00660487
0.00740243
0.00820934
0.00902276
0.00984101
0.0106633
0.0114896
0.0123204
0.0131566
0.0139993
0.0148498
0.0157093
0.0165792
0.0174607
0.018355
0.0192632
0.0201861
0.0211248
0.0220799
0.0230523
0.0240427
0.0250515
0.0260794
0.0271269
0.0281945
0.0292826
0.030392
0.0315242
0.00396812
0.0040662
0.0041199
0.00413673
0.0041184
0.00406669
0.00398355
0.00387077
0.00373015
0.00356351
0.00337279
0.00316017
0.00292833
0.0026812
0.00242564
0.00217458
0.00195226
0.00179993
0.00177282
0.00191437
0.0022263
0.0026768
0.00322894
0.00385402
0.00453187
0.00524826
0.0059929
0.00675817
0.00753844
0.00832966
0.00912906
0.00993492
0.0107464
0.0115632
0.0123858
0.0132149
0.0140514
0.0148964
0.015751
0.0166165
0.017494
0.0183844
0.0192889
0.0202083
0.0211434
0.022095
0.0230637
0.0240503
0.0250553
0.0260791
0.0271223
0.0281853
0.0292685
0.0303723
0.0314976
0.0327707
0.0339935
0.0352708
0.0366061
0.038003
0.0394656
0.040998
0.0426049
0.0442914
0.0460631
0.0479262
0.0498873
0.0519538
0.054134
0.056437
0.0588729
0.0327664
0.0339908
0.0352697
0.0366064
0.0380047
0.0394685
0.041002
0.0426099
0.0442972
0.0460696
0.0479331
0.0498945
0.0519612
0.0541413
0.0564441
0.0588795
0.0327578
0.0339853
0.0352671
0.0366065
0.0380072
0.0394731
0.0410084
0.0426177
0.0443062
0.0460793
0.0479432
0.0499047
0.051971
0.0541503
0.0564518
0.0588853
0.0327446
0.0339764
0.035262
0.0366048
0.0380083
0.0394764
0.0410134
0.0426238
0.0443127
0.0460856
0.0479487
0.0499086
0.0519726
0.0541488
0.0564463
0.0588749
0.0327265
0.0339634
0.035253
0.0365988
0.0380045
0.0394738
0.041011
0.0426208
0.044308
0.0460783
0.0479376
0.0498926
0.0519505
0.0541192
0.0564076
0.0588254
0.032703
0.0339448
0.0352375
0.0365849
0.0379907
0.0394589
0.0409937
0.0425997
0.0442819
0.0460457
0.047897
0.0498423
0.0518887
0.0540438
0.0563163
0.0587155
0.0326724
0.0339152
0.0352069
0.0365515
0.0379528
0.0394147
0.0409417
0.0425381
0.0442089
0.0459594
0.0477952
0.0497225
0.0517482
0.0538797
0.056125
0.0584932
0.0326393
0.0338784
0.0351659
0.0365053
0.0379003
0.0393548
0.0408728
0.0424588
0.0441174
0.0458537
0.0476732
0.0495817
0.0515857
0.0536922
0.0559088
0.0582439
0.0326032
0.0338397
0.0351255
0.0364638
0.0378578
0.0393113
0.0408282
0.0424128
0.0440696
0.0458036
0.0476201
0.0495248
0.0515241
0.0536246
0.0558338
0.0581596
0.0325618
0.0337919
0.0350719
0.0364046
0.0377933
0.0392414
0.0407526
0.0423312
0.0439815
0.0457082
0.0475166
0.0494122
0.051401
0.0534896
0.055685
0.0579948
0.0325157
0.033737
0.0350081
0.036332
0.0377116
0.0391503
0.0406518
0.0422199
0.043859
0.0455735
0.0473686
0.0492494
0.0512218
0.053292
0.0554668
0.0577534
0.0324657
0.0336766
0.0349369
0.0362495
0.0376174
0.0390438
0.0405323
0.0420866
0.0437108
0.0454092
0.0471867
0.0490482
0.0509994
0.0530462
0.0551948
0.0574522
0.0324121
0.0336113
0.0348594
0.0361591
0.0375135
0.0389255
0.0403986
0.0419364
0.0435429
0.0452222
0.0469788
0.0488177
0.050744
0.0527633
0.0548816
0.0571053
0.0323549
0.0335416
0.0347764
0.036062
0.0374013
0.0387973
0.0402532
0.0417726
0.0433592
0.045017
0.0467503
0.0485638
0.0504623
0.052451
0.0545357
0.0567223
0.0322945
0.0334678
0.0346884
0.0359589
0.0372819
0.0386606
0.0400979
0.0415973
0.0431624
0.0447969
0.0465049
0.0482908
0.0501593
0.0521152
0.0541637
0.0563106
0.0322307
0.03339
0.0345956
0.0358501
0.0371561
0.0385164
0.039934
0.0414122
0.0429544
0.0445642
0.0462454
0.0480022
0.0498389
0.0517601
0.0537707
0.0558759
0.0321638
0.0333084
0.0344983
0.0357361
0.0370241
0.0383653
0.0397623
0.0412184
0.0427367
0.0443206
0.0459739
0.0477003
0.049504
0.0513892
0.0533606
0.0554227
0.0320937
0.033223
0.0343966
0.035617
0.0368865
0.0382078
0.0395836
0.0410167
0.0425103
0.0440676
0.045692
0.0473871
0.0491569
0.0510052
0.0529364
0.0549547
0.0320204
0.0331338
0.0342906
0.0354931
0.0367435
0.0380444
0.0393982
0.0408078
0.0422761
0.043806
0.045401
0.0470642
0.0487994
0.0506102
0.0525006
0.0544745
0.0319438
0.0330409
0.0341804
0.0353645
0.0365953
0.0378753
0.0392067
0.0405923
0.0420347
0.0435369
0.0451019
0.0467328
0.0484329
0.0502059
0.0520551
0.0539844
0.0318639
0.0329442
0.034066
0.0352313
0.0364422
0.0377008
0.0390094
0.0403706
0.0417868
0.0432609
0.0447955
0.0463938
0.0480587
0.0497936
0.0516017
0.0534864
0.0317805
0.0328438
0.0339475
0.0350936
0.0362841
0.0375211
0.0388066
0.0401431
0.0415329
0.0429786
0.0444827
0.0460482
0.0476778
0.0493746
0.0511415
0.0529818
0.0316936
0.0327394
0.0338248
0.0349515
0.0361214
0.0373364
0.0385986
0.0399102
0.0412734
0.0426905
0.0441641
0.0456967
0.0472911
0.0489498
0.0506759
0.0524721
0.0316029
0.0326311
0.0336979
0.0348049
0.035954
0.037147
0.0383857
0.0396722
0.0410086
0.0423972
0.0438402
0.0453401
0.0468992
0.0485203
0.0502057
0.0519583
0.0315085
0.0325188
0.0335668
0.034654
0.0357821
0.0369528
0.038168
0.0394294
0.0407391
0.0420991
0.0435116
0.0449788
0.046503
0.0480866
0.0497319
0.0514413
0.03141
0.0324023
0.0334314
0.0344987
0.0356058
0.0367542
0.0379457
0.039182
0.040465
0.0417966
0.0431787
0.0446135
0.0461031
0.0476496
0.0492552
0.0509221
0.0313074
0.0322816
0.0332917
0.034339
0.035425
0.0365512
0.037719
0.0389303
0.0401867
0.0414899
0.0428419
0.0442446
0.0456999
0.0472097
0.0487762
0.0504013
0.0312005
0.0321566
0.0331477
0.034175
0.0352399
0.0363438
0.0374882
0.0386745
0.0399044
0.0411796
0.0425017
0.0438726
0.045294
0.0467677
0.0482957
0.0498797
0.0310892
0.0320272
0.0329992
0.0340066
0.0350505
0.0361323
0.0372532
0.0384148
0.0396185
0.0408658
0.0421584
0.0434978
0.0448858
0.046324
0.0478141
0.0493578
0.0309734
0.0318933
0.0328464
0.0338339
0.0348569
0.0359167
0.0370144
0.0381514
0.0393291
0.0405489
0.0418123
0.0431207
0.0444758
0.045879
0.0473319
0.0488361
0.0308529
0.0317548
0.0326891
0.0336569
0.0346592
0.0356971
0.0367718
0.0378845
0.0390365
0.0402291
0.0414637
0.0427416
0.0440643
0.0454332
0.0468497
0.0483151
0.0307276
0.0316117
0.0325273
0.0334755
0.0344572
0.0354735
0.0365255
0.0376142
0.0387409
0.0399067
0.0411129
0.0423609
0.0436518
0.044987
0.0463677
0.0477952
0.0305975
0.0314638
0.032361
0.0332898
0.0342513
0.0352462
0.0362757
0.0373407
0.0384424
0.0395819
0.0407603
0.0419787
0.0432384
0.0445406
0.0458864
0.0472769
0.0304625
0.0313113
0.0321902
0.0330999
0.0340413
0.0350152
0.0360225
0.0370643
0.0381414
0.0392549
0.0404059
0.0415955
0.0428246
0.0440945
0.0454061
0.0467604
0.0303224
0.031154
0.0320149
0.0329058
0.0338274
0.0347806
0.0357661
0.036785
0.0378379
0.038926
0.0400502
0.0412114
0.0424107
0.0436489
0.0449271
0.0462462
0.0301773
0.0309919
0.0318351
0.0327074
0.0336096
0.0345425
0.0355066
0.036503
0.0375323
0.0385954
0.0396933
0.0408268
0.0419968
0.0432042
0.0444499
0.0457345
0.0300272
0.0308251
0.0316509
0.032505
0.0333882
0.034301
0.0352442
0.0362185
0.0372246
0.0382633
0.0393355
0.0404419
0.0415833
0.0427606
0.0439746
0.0452258
0.00396432
0.00406026
0.00411289
0.00412952
0.00411182
0.00406154
0.00398066
0.00387104
0.00373457
0.00357326
0.0033894
0.00318569
0.00296578
0.0027351
0.00250278
0.00228455
0.00210674
0.00200814
0.00203231
0.00220695
0.00252892
0.00297314
0.00351046
0.00411674
0.00477405
0.00546933
0.00619304
0.00693812
0.00769937
0.00847302
0.00925647
0.0100481
0.0108469
0.0116527
0.0124656
0.0132862
0.0141152
0.0149536
0.0158024
0.0166625
0.017535
0.0184208
0.0193209
0.0202359
0.0211668
0.0221141
0.0230785
0.0240606
0.0250609
0.02608
0.0271182
0.0281759
0.0292535
0.0303513
0.0314692
0.00395987
0.0040533
0.00410468
0.00412107
0.00410411
0.00405551
0.00397727
0.00387133
0.00373969
0.00358458
0.00340863
0.00321516
0.00300877
0.00279648
0.00258951
0.00240587
0.00227274
0.00222517
0.00229658
0.00250365
0.00283986
0.00328396
0.00381195
0.00440333
0.00504238
0.00571752
0.00642025
0.00714435
0.00788529
0.00863978
0.00940556
0.0101811
0.0109656
0.0117586
0.0125603
0.0133709
0.0141912
0.0150218
0.0158635
0.0167172
0.0175838
0.018464
0.0193587
0.0202686
0.0211943
0.0221364
0.0230957
0.0240725
0.0250673
0.0260807
0.027113
0.0281646
0.0292358
0.0303269
0.031438
0.00395487
0.00404547
0.00409542
0.00411154
0.00409541
0.0040487
0.00397342
0.0038716
0.00374536
0.00359717
0.00343
0.00324777
0.00305611
0.00286349
0.00268298
0.00253428
0.00244439
0.0024442
0.00255885
0.00279727
0.00315053
0.00359943
0.00412319
0.00470396
0.00532794
0.00598501
0.00666786
0.00737131
0.00809166
0.0088263
0.00957339
0.0103317
0.0111006
0.0118796
0.0126687
0.0134683
0.0142786
0.0151003
0.015934
0.0167804
0.0176401
0.0185139
0.0194024
0.0203063
0.0212261
0.0221624
0.0231157
0.0240865
0.0250751
0.0260821
0.0271078
0.0281525
0.0292166
0.0303003
0.0314038
0.00394931
0.00403677
0.00408512
0.00410095
0.00408573
0.0040411
0.00396911
0.00387183
0.00375156
0.00361096
0.00345337
0.00328333
0.00310741
0.00293546
0.00278214
0.00266821
0.00261986
0.00266383
0.0028186
0.00308754
0.00345983
0.0039173
0.00444113
0.00501529
0.0056275
0.00626893
0.0069335
0.00761714
0.00831711
0.0090316
0.00975936
0.0104996
0.0112518
0.0120156
0.0127911
0.0135784
0.0143777
0.0151895
0.0160141
0.0168521
0.0177042
0.0185707
0.0194522
0.0203493
0.0212625
0.0221921
0.0231388
0.0241028
0.0250845
0.0260844
0.0271028
0.0281399
0.029196
0.0302715
0.0313665
0.0039432
0.0040272
0.0040738
0.0040893
0.00407508
0.00403273
0.00396432
0.00387202
0.00375824
0.00362587
0.00347861
0.00332159
0.0031623
0.00301179
0.00288602
0.00280635
0.00279773
0.00288304
0.00307546
0.00337422
0.00376697
0.00423597
0.00476347
0.00533462
0.00593825
0.00656665
0.00721487
0.00787992
0.00856013
0.00925455
0.00996266
0.0106841
0.0114188
0.0121666
0.0129274
0.0137013
0.0144885
0.0152893
0.0161039
0.0169327
0.017776
0.0186344
0.0195081
0.0203976
0.0213033
0.0222256
0.0231649
0.0241214
0.0250955
0.0260876
0.0270978
0.0281266
0.0291742
0.0302407
0.0313264
0.00393654
0.00401679
0.00406147
0.0040766
0.00406346
0.00402358
0.00395906
0.00387213
0.00376535
0.00364182
0.00350558
0.00336233
0.00322038
0.00309187
0.00299374
0.00294761
0.00297692
0.00310112
0.00332916
0.00365713
0.0040714
0.00455423
0.00508841
0.00565974
0.00625783
0.00687582
0.00750977
0.00815774
0.00881911
0.00949387
0.0101823
0.0108847
0.0116012
0.012332
0.0130772
0.0138369
0.014611
0.0153998
0.0162034
0.017022
0.0178558
0.0187051
0.0195701
0.0204513
0.0213488
0.0222629
0.023194
0.0241423
0.0251081
0.0260916
0.0270931
0.0281129
0.029151
0.0302078
0.0312834
0.00392935
0.00400554
0.00404813
0.00406287
0.00405088
0.00401366
0.00395331
0.00387215
0.00377285
0.00365872
0.00353413
0.0034053
0.00328129
0.00317513
0.00310454
0.00309105
0.00315657
0.00331753
0.0035795
0.00393614
0.0043727
0.00487119
0.00541454
0.00598885
0.00658417
0.00719431
0.00781614
0.00844871
0.00909239
0.00974816
0.0104171
0.0111002
0.0117982
0.0125115
0.0132403
0.0139847
0.0147449
0.0155207
0.0163124
0.0171198
0.0179432
0.0187826
0.0196382
0.0205101
0.0213987
0.0223039
0.0232261
0.0241655
0.0251222
0.0260965
0.0270886
0.0280986
0.0291267
0.030173
0.0312378
0.00392162
0.00399346
0.00403381
0.00404811
0.00403734
0.00400296
0.00394707
0.00387204
0.00378068
0.00367648
0.00356412
0.00345027
0.00334465
0.00326106
0.00321772
0.00323591
0.00333603
0.00353189
0.00382636
0.00421117
0.00467057
0.00518618
0.00574077
0.00632048
0.00691555
0.00752023
0.00813207
0.00875098
0.00937828
0.0100159
0.0106658
0.0113298
0.0120089
0.0127041
0.0134159
0.0141444
0.0148897
0.0156518
0.0164306
0.017226
0.0180381
0.0188668
0.0197121
0.0205741
0.0214528
0.0223484
0.023261
0.0241908
0.0251378
0.0261022
0.0270841
0.0280837
0.0291011
0.0301364
0.0311897
0.00391337
0.00398057
0.00401852
0.00403233
0.00402286
0.00399149
0.00394032
0.00387178
0.00378879
0.00369502
0.00359539
0.00349699
0.0034101
0.00334915
0.00333267
0.00338156
0.00351476
0.00374389
0.00406964
0.00448216
0.00496481
0.00549868
0.00606623
0.0066534
0.00725045
0.00785188
0.00845578
0.00906278
0.00967509
0.0102956
0.010927
0.011572
0.0122322
0.0129091
0.0136032
0.0143152
0.0150449
0.0157924
0.0165576
0.0173402
0.0181401
0.0189573
0.0197915
0.0206427
0.021511
0.0223963
0.0232986
0.024218
0.0251546
0.0261085
0.0270796
0.0280682
0.0290742
0.0300977
0.0311389
0.00390461
0.00396688
0.00400226
0.00401556
0.00400745
0.00397925
0.00393306
0.00387135
0.00379714
0.00371423
0.00362778
0.00354523
0.00347732
0.00343895
0.00344887
0.00352746
0.00369236
0.00395334
0.00430929
0.00474909
0.00525525
0.0058083
0.00639022
0.00698662
0.0075876
0.0081878
0.00878565
0.00938244
0.00998115
0.0105855
0.0111992
0.0118256
0.012467
0.0131252
0.0138014
0.0144962
0.0152097
0.0159419
0.0166927
0.0174617
0.0182487
0.0190536
0.019876
0.0207158
0.0215729
0.0224471
0.0233385
0.024247
0.0251725
0.0261152
0.0270749
0.0280518
0.0290459
0.0300571
0.0310856
0.00389534
0.0039524
0.00398507
0.0039978
0.00399112
0.00396625
0.00392528
0.00387072
0.00380566
0.00373401
0.00366114
0.00359475
0.00354598
0.00353007
0.00356583
0.00367316
0.00386851
0.00416006
0.00454529
0.00501195
0.00554181
0.00611474
0.0067122
0.0073193
0.00792592
0.00852665
0.00912021
0.00970837
0.0102948
0.0108842
0.0114809
0.0120891
0.0127118
0.0133514
0.0140094
0.0146865
0.0153833
0.0160996
0.0168352
0.0175899
0.0183634
0.0191552
0.0199651
0.0207928
0.021638
0.0225006
0.0233804
0.0242773
0.0251912
0.0261221
0.0270699
0.0280346
0.0290161
0.0300145
0.0310296
0.00388557
0.00393715
0.00396695
0.00397907
0.00397387
0.00395248
0.00391697
0.00386986
0.00381429
0.00375428
0.00369531
0.00364533
0.00361576
0.0036221
0.00368316
0.00381831
0.00404294
0.00436396
0.00477762
0.00527077
0.00582442
0.0064178
0.00703172
0.00765078
0.00826448
0.00886729
0.0094581
0.0100391
0.0106147
0.01119
0.0117705
0.012361
0.0129653
0.0135863
0.0142258
0.0148851
0.0155646
0.0162644
0.0169844
0.0177242
0.0184833
0.0192615
0.0200582
0.0208731
0.0217059
0.0225562
0.0234238
0.0243086
0.0252103
0.0261289
0.0270642
0.0280161
0.0289846
0.0299696
0.030971
0.00387531
0.00392116
0.00394793
0.00395939
0.00395572
0.00393796
0.00390812
0.00386874
0.00382298
0.00377492
0.00373015
0.00369675
0.00368639
0.00371472
0.00380049
0.00396257
0.00421545
0.00456495
0.00500631
0.00552558
0.00610307
0.00671731
0.00734844
0.00798048
0.00860247
0.00920871
0.00979814
0.0103733
0.0109391
0.0115015
0.0120666
0.01264
0.0132262
0.0138286
0.0144496
0.0150907
0.0157525
0.0164354
0.0171392
0.0178635
0.0186079
0.0193718
0.0201547
0.0209563
0.021776
0.0226134
0.0234683
0.0243404
0.0252295
0.0261352
0.0270575
0.0279963
0.0289513
0.0299224
0.0309095
0.00386457
0.00390442
0.00392802
0.00393877
0.00393668
0.00392268
0.00389872
0.00386733
0.00383167
0.00379585
0.00376549
0.0037488
0.00375758
0.00380761
0.0039175
0.00410568
0.00438587
0.00476296
0.00523138
0.00577643
0.00637774
0.00701316
0.0076621
0.00830793
0.00893922
0.00955002
0.0101393
0.0107097
0.0112669
0.0118172
0.0123677
0.0129245
0.0134929
0.0140769
0.0146793
0.0153021
0.015946
0.0166116
0.0172987
0.0180071
0.0187361
0.0194852
0.0202539
0.0210415
0.0218477
0.0226718
0.0235135
0.0243724
0.0252483
0.0261408
0.0270497
0.0279747
0.0289158
0.0298727
0.0308451
0.00385337
0.00388697
0.00390724
0.00391723
0.00391676
0.00390664
0.00388876
0.0038656
0.0038403
0.00381695
0.00380119
0.00380127
0.00382909
0.00390047
0.00403391
0.00424742
0.00455406
0.00495797
0.00545284
0.00602335
0.00664845
0.00730526
0.00797247
0.00863275
0.00927417
0.00989045
0.0104805
0.0110473
0.0115967
0.0121358
0.0126723
0.0132131
0.013764
0.0143298
0.0149138
0.015518
0.0161439
0.0167918
0.017462
0.0181539
0.0188671
0.019601
0.0203549
0.0211282
0.0219203
0.0227307
0.0235587
0.0244041
0.0252663
0.0261451
0.0270402
0.0279512
0.028878
0.0298202
0.0307777
0.00384171
0.00386882
0.00388561
0.00389479
0.00389598
0.00388986
0.00387823
0.00386352
0.00384882
0.00383814
0.0038371
0.00385397
0.00390067
0.00399304
0.00414945
0.00438757
0.00471989
0.00514992
0.00567074
0.00626641
0.00691522
0.00759357
0.00827938
0.00895464
0.00960683
0.0102293
0.010821
0.011385
0.0119274
0.0124561
0.0129792
0.0135045
0.0140383
0.0145861
0.0151516
0.0157373
0.0163449
0.016975
0.0176278
0.018303
0.019
0.0197183
0.0204571
0.0212156
0.0219933
0.0227894
0.0236034
0.0244348
0.0252831
0.0261478
0.0270287
0.0279253
0.0288375
0.0297647
0.0307069
0.00382961
0.00385
0.00386316
0.00387146
0.00387434
0.00387233
0.00386712
0.00386106
0.00385715
0.00385932
0.00387309
0.0039067
0.00397209
0.00408507
0.00426391
0.00452597
0.00488327
0.00533879
0.00588509
0.00650564
0.00717808
0.00787806
0.00858272
0.00927333
0.0099368
0.0105661
0.0111601
0.0117219
0.0122581
0.0127769
0.0132872
0.0137974
0.0143145
0.0148444
0.0153915
0.0159587
0.0165479
0.01716
0.0177952
0.0184534
0.0191339
0.0198362
0.0205595
0.021303
0.0220659
0.0228474
0.023647
0.0244641
0.0252981
0.0261485
0.0270149
0.0278968
0.028794
0.0297061
0.0306327
0.00381707
0.00383051
0.0038399
0.00384728
0.00385187
0.00385407
0.00385543
0.00385819
0.00386525
0.00388038
0.00390902
0.0039593
0.00404314
0.00417635
0.00437708
0.00466244
0.00504409
0.00552457
0.00609592
0.0067411
0.00743706
0.00815871
0.00888239
0.00958862
0.0102637
0.0109004
0.0114971
0.0120572
0.0125877
0.0130972
0.0135952
0.0140906
0.0145913
0.0151036
0.0156324
0.0161811
0.0167518
0.0173457
0.0179632
0.0186041
0.0192679
0.019954
0.0206615
0.0213895
0.0221373
0.0229041
0.023689
0.0244915
0.0253109
0.0261467
0.0269983
0.0278654
0.0287474
0.029644
0.0305548
0.00380411
0.00381038
0.00381587
0.00382225
0.00382858
0.00383507
0.00384314
0.00385489
0.00387305
0.00390125
0.00394475
0.00401159
0.00411364
0.00426667
0.00448877
0.00479686
0.00520228
0.00570721
0.00630326
0.00697282
0.0076922
0.00843551
0.0091783
0.00990034
0.0105874
0.0112316
0.0118314
0.0123903
0.0129155
0.0134161
0.0139021
0.0143831
0.0148676
0.0153624
0.015873
0.0164032
0.0169555
0.0175311
0.0181307
0.0187541
0.019401
0.0200706
0.0207621
0.0214745
0.022207
0.0229587
0.0237287
0.0245164
0.025321
0.0261419
0.0269786
0.0278306
0.0286973
0.0295783
0.0304732
0.00379074
0.00378964
0.00379107
0.0037964
0.00380448
0.00381534
0.00383024
0.00385111
0.0038805
0.00392182
0.00398016
0.00406341
0.00418338
0.00435584
0.00459881
0.00492908
0.00535776
0.0058867
0.00650712
0.00720084
0.00794352
0.00870847
0.00947041
0.0102084
0.0109074
0.0115594
0.0121627
0.0127206
0.0132408
0.0137327
0.0142071
0.0146739
0.0151423
0.0156199
0.0161124
0.0166241
0.0171578
0.0177151
0.0182967
0.0189026
0.0195324
0.0201853
0.0208606
0.0215572
0.0222742
0.0230106
0.0237656
0.0245383
0.0253279
0.0261339
0.0269555
0.0277921
0.0286434
0.0295086
0.0303875
0.00377697
0.0037683
0.00376554
0.00376975
0.00377958
0.00379489
0.00381673
0.00384684
0.00388754
0.00394202
0.00401512
0.00411461
0.00425221
0.00444369
0.00470704
0.00505899
0.00551046
0.00606302
0.0067075
0.0074252
0.00819106
0.0089776
0.00975869
0.0105126
0.0112238
0.0118837
0.0124904
0.0130476
0.0135629
0.0140464
0.0145092
0.014962
0.0154146
0.0158749
0.0163494
0.0168427
0.0173579
0.0178968
0.0184603
0.0190486
0.0196611
0.0202974
0.0209563
0.0216369
0.0223383
0.0230593
0.023799
0.0245566
0.0253312
0.026122
0.0269284
0.0277497
0.0285854
0.0294348
0.0302975
0.00376282
0.00374639
0.00373929
0.00374232
0.00375392
0.00377372
0.0038026
0.00384204
0.00389412
0.00396175
0.00404953
0.00416504
0.00431996
0.00453005
0.00481333
0.00518647
0.0056603
0.00623614
0.00690443
0.00764593
0.00843485
0.0092429
0.0100431
0.0108129
0.0115362
0.012204
0.0128143
0.0133707
0.0138813
0.0143564
0.0148078
0.0152467
0.0156835
0.0161267
0.0165833
0.0170581
0.0175548
0.0180753
0.0186207
0.0191912
0.0197865
0.0204059
0.0210484
0.021713
0.0223986
0.0231041
0.0238285
0.0245709
0.0253303
0.026106
0.0268971
0.027703
0.0285231
0.0293567
0.0302032
0.0037483
0.00372392
0.00371236
0.00371414
0.00372749
0.00375185
0.00378784
0.00383669
0.00390019
0.00398093
0.00408326
0.00421457
0.00438648
0.00461477
0.00491753
0.00531144
0.00580724
0.00640604
0.00709791
0.00786304
0.00867493
0.00950441
0.0103236
0.0111093
0.0118447
0.0125203
0.0131341
0.0136897
0.0141955
0.0146623
0.0151022
0.0155273
0.0159483
0.0163744
0.016813
0.0172695
0.0177476
0.0182497
0.0187769
0.0193297
0.0199077
0.0205101
0.0211362
0.0217847
0.0224545
0.0231445
0.0238536
0.0245807
0.025325
0.0260854
0.0268612
0.0276517
0.0284561
0.0292739
0.0301043
0.00373341
0.00370093
0.00368477
0.00368522
0.00370032
0.00372927
0.00377244
0.00383076
0.00390569
0.00399949
0.00411622
0.00426308
0.00445164
0.00469773
0.00501954
0.0054338
0.00595121
0.00657269
0.00728794
0.00807657
0.00891132
0.00976215
0.0106003
0.0114017
0.012149
0.0128324
0.0134495
0.0140042
0.0145051
0.0149634
0.0153919
0.0158031
0.0162083
0.0166173
0.0170379
0.017476
0.0179355
0.0184192
0.0189283
0.0194633
0.0200239
0.0206095
0.021219
0.0218514
0.0225055
0.0231799
0.0238737
0.0245856
0.0253146
0.0260599
0.0268205
0.0275955
0.0283844
0.0291863
0.0300007
0.00371818
0.00367743
0.00365655
0.00365559
0.00367242
0.003706
0.0037564
0.00382422
0.00391057
0.00401735
0.0041483
0.00431044
0.0045153
0.00477879
0.00511924
0.00555347
0.00609216
0.00673608
0.00747454
0.00828655
0.00914407
0.0100161
0.0108731
0.0116901
0.0124491
0.01314
0.0137603
0.0143139
0.0148097
0.0152594
0.0156763
0.0160734
0.0164628
0.0168546
0.0172572
0.0176768
0.0181178
0.018583
0.019074
0.0195912
0.0201345
0.0207032
0.0212963
0.0219126
0.0225509
0.0232099
0.0238883
0.0245851
0.025299
0.0260291
0.0267745
0.0275342
0.0283076
0.0290938
0.0298922
0.00370262
0.00365345
0.00362772
0.00362528
0.00364382
0.00368204
0.0037397
0.00381705
0.00391479
0.00403444
0.00417941
0.00435655
0.00457735
0.00485785
0.00521653
0.00567037
0.00623006
0.0068962
0.00765771
0.008493
0.00937319
0.0102664
0.0111421
0.0119745
0.0127451
0.0134432
0.0140664
0.0146186
0.015109
0.0155499
0.015955
0.0163379
0.0167112
0.0170858
0.0174703
0.0178714
0.0182938
0.0187406
0.0192134
0.0197129
0.0202389
0.0207907
0.0213674
0.0219677
0.0225903
0.0232339
0.0238971
0.0245787
0.0252776
0.0259927
0.026723
0.0274675
0.0282255
0.0289962
0.0297787
0.00368674
0.00362902
0.0035983
0.00359431
0.00361452
0.0036574
0.00372235
0.00380922
0.0039183
0.00405069
0.00420946
0.0044013
0.00463768
0.0049348
0.00531133
0.00578443
0.00636485
0.00705302
0.00783747
0.00869595
0.00959874
0.010513
0.0114073
0.0122549
0.0130367
0.0137419
0.0143676
0.0149181
0.0154028
0.0158345
0.0162275
0.0165959
0.0169531
0.0173102
0.0176765
0.018059
0.0184628
0.0188911
0.0193458
0.0198276
0.0203364
0.0208715
0.0214318
0.0220162
0.0226232
0.0232515
0.0238996
0.0245663
0.0252502
0.0259504
0.0266657
0.0273952
0.028138
0.0288932
0.0296601
0.00367055
0.00360415
0.00356834
0.0035627
0.00358456
0.00363209
0.00370434
0.00380072
0.00392106
0.00406603
0.00423837
0.00444459
0.0046962
0.00500954
0.00540357
0.00589562
0.00649652
0.00720656
0.00801384
0.00889545
0.00982077
0.010756
0.0116686
0.0125313
0.0133241
0.0140358
0.0146637
0.0152121
0.0156907
0.0161129
0.0164934
0.0168472
0.0171878
0.0175273
0.0178753
0.0182392
0.0186243
0.0190341
0.0194707
0.0199348
0.0204264
0.0209449
0.021489
0.0220576
0.0226492
0.0232623
0.0238954
0.0245473
0.0252165
0.025902
0.0266025
0.0273171
0.0280448
0.0287848
0.0295363
0.00365408
0.00357887
0.00353784
0.00353047
0.00355394
0.00360612
0.00368565
0.00379151
0.00392302
0.0040804
0.00426606
0.00448635
0.00475281
0.005082
0.00549316
0.00600387
0.00662504
0.0073568
0.00818684
0.00909152
0.0100393
0.0109954
0.0119262
0.0128036
0.0136071
0.0143251
0.0149547
0.0155005
0.0159726
0.0163848
0.0167525
0.0170911
0.017415
0.0177367
0.0180661
0.0184112
0.0187776
0.019169
0.0195875
0.020034
0.0205086
0.0210104
0.0215385
0.0220915
0.0226678
0.0232659
0.0238843
0.0245215
0.0251762
0.0258471
0.0265331
0.027233
0.0279459
0.0286709
0.0294071
0.00409375
0.00429247
0.00452649
0.00480743
0.00515212
0.00558008
0.00610917
0.00675041
0.00750378
0.00835652
0.00928424
0.0102544
0.0112313
0.0121802
0.013072
0.0138858
0.0146096
0.0152405
0.0157832
0.0162482
0.0166499
0.0170043
0.0173274
0.0176343
0.0179378
0.0182485
0.0185747
0.0189223
0.0192952
0.0196957
0.0201247
0.0205823
0.0210677
0.0215799
0.0221174
0.0226786
0.023262
0.0238658
0.0244887
0.0251291
0.0257857
0.0264574
0.0271429
0.0278412
0.0285514
0.0292727
0.00397764
0.00409535
0.00417011
0.00421011
0.00421784
0.00419597
0.00414749
0.00407543
0.00398311
0.00387435
0.00375377
0.00362717
0.00350207
0.00338836
0.0032989
0.0032497
0.003259
0.00334468
0.00352036
0.00379225
0.00415841
0.00461072
0.00513781
0.00572762
0.00636888
0.00705181
0.00776835
0.0085121
0.00927818
0.010063
0.0108643
0.0116805
0.012511
0.0133557
0.014215
0.0150897
0.0159807
0.0168892
0.0178162
0.018763
0.0197307
0.0207206
0.0217337
0.0227711
0.0238341
0.0249235
0.0260405
0.0271861
0.0283615
0.0295676
0.0308055
0.0320764
0.0333814
0.0347222
0.0361016
0.00397813
0.00409209
0.00416182
0.00419549
0.00419542
0.0041641
0.00410423
0.00401851
0.00390985
0.00378152
0.0036374
0.00348232
0.0033225
0.0031664
0.0030257
0.0029165
0.00285951
0.00287813
0.00299339
0.00321772
0.00355178
0.00398649
0.00450762
0.00509993
0.00574933
0.00644379
0.00717343
0.00793043
0.00870882
0.00950424
0.0103137
0.0111354
0.0119684
0.0128126
0.0136684
0.0145366
0.0154182
0.0163143
0.0172263
0.0181555
0.019103
0.0200702
0.0210581
0.022068
0.0231008
0.0241577
0.0252396
0.0263476
0.0274826
0.0286456
0.0298376
0.0310596
0.0323129
0.033599
0.0349216
0.00397853
0.00408935
0.00415486
0.0041832
0.00417655
0.00413721
0.00406763
0.0039702
0.0038474
0.00370194
0.00353694
0.0033561
0.00316411
0.00296746
0.00277579
0.00260405
0.0024746
0.00241744
0.00246479
0.00263971
0.00294678
0.00337369
0.00390024
0.00450575
0.00517233
0.00588541
0.0066335
0.00740768
0.00820123
0.00900927
0.00982853
0.010657
0.0114938
0.0123387
0.0131922
0.0140552
0.0149289
0.0158146
0.0167136
0.0176274
0.0185573
0.0195045
0.0204702
0.0214557
0.0224619
0.0234899
0.0245407
0.0256151
0.0267142
0.0278387
0.0289896
0.0301679
0.0313745
0.0326112
0.0338813
0.00397885
0.00408715
0.00414926
0.0041733
0.00416133
0.00411548
0.00403799
0.00393095
0.00379647
0.00363672
0.00345408
0.00325109
0.00303077
0.00279721
0.00255705
0.00232222
0.00211433
0.00196948
0.00193663
0.00205911
0.00234852
0.00278358
0.00333153
0.0039632
0.00465635
0.00539446
0.00616514
0.00695905
0.00776927
0.00859086
0.00942053
0.0102563
0.0110974
0.0119438
0.0127961
0.0136553
0.0145228
0.0154
0.0162883
0.0171894
0.0181045
0.019035
0.0199821
0.0209471
0.0219309
0.0229346