/*--------------------------------*- C++ -*----------------------------------*\
| =========                 |                                                 |
| \\      /  F ield         | OpenFOAM: The Open Source CFD Toolbox           |
|  \\    /   O peration     | Version:  2412                                  |
|   \\  /    A nd           | Website:  www.openfoam.com                      |
|    \\/     M anipulation  |                                                 |
\*---------------------------------------------------------------------------*/
FoamFile
{
    version     2.0;
    format      ascii;
    arch        "LSB;label=32;scalar=64";
    class       surfaceScalarField;
    location    "30";
    object      phi;
}
// * * * * * * * * * * * * * * * * * * * * * * * * * * * * * * * * * * * * * //

dimensions      [0 3 -1 0 0 0 0];

oriented        oriented;

internalField   nonuniform List<scalar> 
10424
(
0.00505063
1.30813e-07
2.10082e-11
0.00505024
3.81404e-07
6.3021e-11
0.00504963
6.18489e-07
1.01658e-10
0.00504878
8.43701e-07
1.35943e-10
0.00504772
1.05874e-06
1.64011e-10
0.00504646
1.26506e-06
1.84618e-10
0.00504499
1.46387e-06
1.98263e-10
0.00504334
1.65614e-06
2.06996e-10
0.00504149
1.84284e-06
2.13264e-10
0.00503947
2.02538e-06
2.18154e-10
0.00503726
2.20625e-06
2.19934e-10
0.00503487
2.38953e-06
2.13273e-10
0.00503229
2.58084e-06
1.89408e-10
0.00502951
2.78661e-06
1.3797e-10
0.00502649
3.01272e-06
4.99581e-11
0.00502323
3.26294e-06
-7.89732e-11
0.00501969
3.53765e-06
-2.45881e-10
0.00501586
3.83324e-06
-4.39344e-10
0.00501172
4.14241e-06
-6.40055e-10
0.00500726
4.4552e-06
-8.23458e-10
0.0050025
4.7606e-06
-9.63792e-10
0.00499746
5.04816e-06
-1.03828e-09
0.00499215
5.30942e-06
-1.03023e-09
0.00498661
5.53879e-06
-9.30951e-10
0.00498088
5.73394e-06
-7.40581e-10
0.00497498
5.8956e-06
-4.67605e-10
0.00496896
6.02703e-06
-1.26983e-10
0.00496282
6.13329e-06
2.62509e-10
0.0049566
6.2204e-06
6.80539e-10
0.0049503
6.29467e-06
1.10733e-09
0.00494394
6.36206e-06
1.52529e-09
0.00493751
6.42781e-06
1.91999e-09
0.00493101
6.49626e-06
2.28074e-09
0.00492444
6.57069e-06
2.60054e-09
0.00491778
6.65347e-06
2.87563e-09
0.00491103
6.74608e-06
3.10522e-09
0.00490418
6.8493e-06
3.29074e-09
0.00489721
6.96339e-06
3.43522e-09
0.00489012
7.08819e-06
3.54254e-09
0.0048829
7.2233e-06
3.61708e-09
0.00487552
7.36816e-06
3.66343e-09
0.004868
7.52215e-06
3.68605e-09
0.00486031
7.68464e-06
3.68904e-09
0.00485245
7.85503e-06
3.67599e-09
0.00484441
8.03277e-06
3.65003e-09
0.00483619
8.2174e-06
3.61381e-09
0.00482778
8.40851e-06
3.56944e-09
0.00481917
8.60579e-06
3.51874e-09
0.00481036
8.80899e-06
3.46313e-09
0.00480134
9.01794e-06
3.40373e-09
0.0047921
9.2326e-06
3.34139e-09
0.00478265
9.45312e-06
3.2767e-09
0.00477296
9.68026e-06
3.21017e-09
0.00476304
9.91639e-06
3.14216e-09
1.01685e-05
0.00475287
3.07232e-09
0.00505063
2.6156e-07
0.00505025
7.62599e-07
0.00504963
1.23665e-06
0.00504878
1.68694e-06
0.00504773
2.11689e-06
0.00504646
2.5294e-06
0.005045
2.92687e-06
0.00504334
3.31128e-06
0.0050415
3.68453e-06
0.00503948
4.04945e-06
0.00503727
4.41102e-06
0.00503488
4.77737e-06
0.00503231
5.1597e-06
0.00502952
5.57083e-06
0.00502651
6.0225e-06
0.00502325
6.52227e-06
0.00501972
7.07091e-06
0.00501589
7.66126e-06
0.00501175
8.27875e-06
0.00500731
8.90358e-06
0.00500255
9.51378e-06
0.00499751
1.00885e-05
0.00499221
1.06109e-05
0.00498668
1.10697e-05
0.00498095
1.14602e-05
0.00497507
1.1784e-05
0.00496905
1.20474e-05
0.00496292
1.22605e-05
0.0049567
1.24353e-05
0.00495041
1.25844e-05
0.00494406
1.27196e-05
0.00493763
1.28514e-05
0.00493114
1.29885e-05
0.00492457
1.31375e-05
0.00491792
1.33029e-05
0.00491118
1.34879e-05
0.00490434
1.3694e-05
0.00489738
1.39217e-05
0.0048903
1.41708e-05
0.00488308
1.44403e-05
0.00487572
1.47293e-05
0.0048682
1.50365e-05
0.00486053
1.53606e-05
0.00485268
1.57004e-05
0.00484466
1.60549e-05
0.00483646
1.64231e-05
0.00482806
1.68043e-05
0.00481947
1.71976e-05
0.00481067
1.76028e-05
0.00480167
1.80194e-05
0.00479246
1.84473e-05
0.00478302
1.88868e-05
0.00477336
1.93393e-05
0.00476347
1.98095e-05
2.03107e-05
0.00475333
0.00505063
3.92135e-07
0.00505025
1.14325e-06
0.00504963
1.85394e-06
0.00504879
2.529e-06
0.00504773
3.17354e-06
0.00504647
3.79193e-06
0.00504501
4.38776e-06
0.00504335
4.96399e-06
0.00504151
5.5235e-06
0.00503949
6.07048e-06
0.00503729
6.61241e-06
0.00503491
7.1614e-06
0.00503233
7.7342e-06
0.00502955
8.34999e-06
0.00502655
9.02634e-06
0.0050233
9.77458e-06
0.00501977
1.05959e-05
0.00501596
1.14797e-05
0.00501183
1.24043e-05
0.00500739
1.334e-05
0.00500265
1.42541e-05
0.00499763
1.51154e-05
0.00499234
1.58984e-05
0.00498682
1.65866e-05
0.00498111
1.71727e-05
0.00497523
1.76589e-05
0.00496923
1.80546e-05
0.00496311
1.8375e-05
0.00495691
1.86379e-05
0.00495063
1.8862e-05
0.00494429
1.90651e-05
0.00493787
1.92629e-05
0.0049314
1.94682e-05
0.00492484
1.96911e-05
0.00491821
1.99385e-05
0.00491148
2.0215e-05
0.00490465
2.05229e-05
0.00489771
2.0863e-05
0.00489064
2.1235e-05
0.00488345
2.16376e-05
0.00487611
2.20691e-05
0.00486862
2.25278e-05
0.00486096
2.30118e-05
0.00485315
2.35193e-05
0.00484515
2.40486e-05
0.00483698
2.45984e-05
0.00482861
2.51674e-05
0.00482006
2.57547e-05
0.0048113
2.63595e-05
0.00480234
2.69812e-05
0.00479317
2.76197e-05
0.00478378
2.82753e-05
0.00477417
2.89498e-05
0.00476433
2.96497e-05
3.03936e-05
0.00475424
0.00505063
5.22454e-07
0.00505025
1.52308e-06
0.00504963
2.46994e-06
0.00504879
3.36928e-06
0.00504774
4.22794e-06
0.00504648
5.05175e-06
0.00504502
5.84549e-06
0.00504337
6.61309e-06
0.00504153
7.35839e-06
0.00503952
8.08697e-06
0.00503732
8.80872e-06
0.00503494
9.53973e-06
0.00503238
1.03022e-05
0.0050296
1.11216e-05
0.00502661
1.20213e-05
0.00502337
1.30164e-05
0.00501985
1.41087e-05
0.00501605
1.52841e-05
0.00501194
1.65139e-05
0.00500752
1.77588e-05
0.0050028
1.89754e-05
0.00499779
2.01222e-05
0.00499253
2.11655e-05
0.00498703
2.20829e-05
0.00498134
2.28648e-05
0.00497548
2.35137e-05
0.0049695
2.40424e-05
0.0049634
2.44706e-05
0.00495722
2.4822e-05
0.00495096
2.51214e-05
0.00494463
2.53924e-05
0.00493824
2.56559e-05
0.00493178
2.59291e-05
0.00492524
2.62251e-05
0.00491863
2.65534e-05
0.00491192
2.692e-05
0.00490512
2.73281e-05
0.0048982
2.77788e-05
0.00489116
2.82717e-05
0.004884
2.88051e-05
0.00487669
2.9377e-05
0.00486923
2.99848e-05
0.00486162
3.06261e-05
0.00485384
3.12985e-05
0.00484589
3.19998e-05
0.00483776
3.27282e-05
0.00482944
3.3482e-05
0.00482094
3.42598e-05
0.00481224
3.50607e-05
0.00480333
3.58839e-05
0.00479422
3.67289e-05
0.0047849
3.75963e-05
0.00477536
3.84879e-05
0.0047656
3.94113e-05
4.03884e-05
0.00475561
0.00505063
6.52434e-07
0.00505025
1.90183e-06
0.00504963
3.08422e-06
0.0050488
4.20718e-06
0.00504774
5.27935e-06
0.00504649
6.30796e-06
0.00504504
7.29899e-06
0.00504339
8.25737e-06
0.00504156
9.18785e-06
0.00503955
1.00974e-05
0.00503736
1.09983e-05
0.00503499
1.19105e-05
0.00503243
1.28616e-05
0.00502967
1.38832e-05
0.00502669
1.50046e-05
0.00502346
1.62445e-05
0.00501996
1.76054e-05
0.00501618
1.90699e-05
0.00501209
2.06024e-05
0.00500769
2.21545e-05
0.005003
2.36718e-05
0.00499801
2.51028e-05
0.00499277
2.64056e-05
0.00498731
2.75519e-05
0.00498164
2.85298e-05
0.00497581
2.93421e-05
0.00496985
3.00044e-05
0.00496378
3.05411e-05
0.00495762
3.09815e-05
0.00495138
3.13566e-05
0.00494508
3.16956e-05
0.00493871
3.20245e-05
0.00493228
3.23647e-05
0.00492577
3.27328e-05
0.00491918
3.31405e-05
0.00491251
3.35954e-05
0.00490573
3.41016e-05
0.00489885
3.46606e-05
0.00489185
3.52718e-05
0.00488472
3.59332e-05
0.00487746
3.66423e-05
0.00487005
3.7396e-05
0.00486248
3.81912e-05
0.00485476
3.90249e-05
0.00484686
3.98945e-05
0.00483879
4.07976e-05
0.00483054
4.1732e-05
0.00482211
4.26961e-05
0.00481348
4.36886e-05
0.00480465
4.47083e-05
0.00479563
4.57548e-05
0.0047864
4.68282e-05
0.00477695
4.79305e-05
0.00476729
4.90692e-05
5.0267e-05
0.00475742
0.00505063
7.82001e-07
0.00505025
2.2792e-06
0.00504964
3.69636e-06
0.0050488
5.04213e-06
0.00504776
6.32701e-06
0.0050465
7.55966e-06
0.00504506
8.74724e-06
0.00504342
9.89563e-06
0.00504159
1.10106e-05
0.00503959
1.21003e-05
0.00503741
1.31795e-05
0.00503505
1.42718e-05
0.0050325
1.54102e-05
0.00502975
1.66325e-05
0.00502678
1.79734e-05
0.00502357
1.94557e-05
0.00502009
2.10822e-05
0.00501633
2.28328e-05
0.00501227
2.46652e-05
0.0050079
2.65217e-05
0.00500324
2.83375e-05
0.00499829
3.00513e-05
0.00499308
3.16125e-05
0.00498764
3.29876e-05
0.00498201
3.41616e-05
0.00497622
3.51378e-05
0.00497029
3.59344e-05
0.00496425
3.65804e-05
0.00495812
3.71106e-05
0.00495191
3.75616e-05
0.00494564
3.79685e-05
0.0049393
3.83624e-05
0.0049329
3.87687e-05
0.00492642
3.92074e-05
0.00491987
3.96927e-05
0.00491323
4.02338e-05
0.0049065
4.08355e-05
0.00489966
4.14998e-05
0.00489271
4.2226e-05
0.00488563
4.3012e-05
0.00487842
4.38546e-05
0.00487106
4.47502e-05
0.00486356
4.56951e-05
0.0048559
4.66858e-05
0.00484807
4.77191e-05
0.00484008
4.8792e-05
0.00483191
4.9902e-05
0.00482356
5.10471e-05
0.00481502
5.22255e-05
0.00480629
5.3436e-05
0.00479737
5.46775e-05
0.00478825
5.59501e-05
0.00477892
5.72552e-05
0.00476939
5.85992e-05
6.00024e-05
0.00475966
0.00505063
9.1103e-07
0.00505025
2.65499e-06
0.00504964
4.30591e-06
0.00504881
5.87354e-06
0.00504777
7.37021e-06
0.00504652
8.80598e-06
0.00504508
1.01892e-05
0.00504345
1.15267e-05
0.00504163
1.28251e-05
0.00503964
1.40941e-05
0.00503747
1.53506e-05
0.00503512
1.66219e-05
0.00503258
1.79461e-05
0.00502985
1.93671e-05
0.0050269
2.09251e-05
0.00502371
2.26468e-05
0.00502025
2.45358e-05
0.00501652
2.6569e-05
0.00501248
2.86979e-05
0.00500815
3.08556e-05
0.00500352
3.29675e-05
0.00499861
3.4962e-05
0.00499344
3.67806e-05
0.00498804
3.83839e-05
0.00498245
3.97542e-05
0.00497669
4.08949e-05
0.0049708
4.18266e-05
0.0049648
4.25826e-05
0.00495871
4.32031e-05
0.00495254
4.37304e-05
0.0049463
4.42052e-05
0.00494
4.46633e-05
0.00493364
4.51347e-05
0.0049272
4.56424e-05
0.00492069
4.62031e-05
0.0049141
4.68276e-05
0.00490741
4.75218e-05
0.00490062
4.82879e-05
0.00489372
4.91254e-05
0.0048867
5.00317e-05
0.00487955
5.10034e-05
0.00487227
5.20363e-05
0.00486484
5.3126e-05
0.00485725
5.42686e-05
0.00484951
5.54601e-05
0.00484161
5.66972e-05
0.00483353
5.79769e-05
0.00482528
5.92968e-05
0.00481685
6.06546e-05
0.00480824
6.20489e-05
0.00479944
6.34783e-05
0.00479045
6.49421e-05
0.00478126
6.64411e-05
0.00477188
6.79787e-05
0.00476232
6.95664e-05
0.00475264
2.24107e-07
3.01436e-09
0.00475188
7.61614e-07
3.00221e-09
0.00475054
1.33411e-06
2.98545e-09
0.0047486
1.9442e-06
2.96532e-09
0.004746
2.59496e-06
2.94227e-09
0.0047427
3.28986e-06
2.91621e-09
0.00473867
4.03279e-06
2.8869e-09
0.00473384
4.8281e-06
2.85424e-09
0.00472815
5.68063e-06
2.81802e-09
0.00472156
6.5958e-06
2.77817e-09
0.00471397
7.57969e-06
2.73438e-09
0.00470533
8.63908e-06
2.68648e-09
0.00469555
9.7816e-06
2.63433e-09
0.00468453
1.10159e-05
2.57932e-09
0.00467218
1.23515e-05
2.5158e-09
1.37995e-05
2.4574e-09
0.00475174
1.81739e-06
0.00474961
2.89069e-06
0.00474691
4.03341e-06
0.0047436
5.25118e-06
0.00473965
6.55017e-06
0.004735
7.93735e-06
0.00472961
9.42055e-06
0.00472343
1.10085e-05
0.0047164
1.27109e-05
0.00470846
1.45386e-05
0.00469953
1.65038e-05
0.00468955
1.86202e-05
0.00467843
2.09029e-05
0.00466608
2.33692e-05
0.00465239
2.60385e-05
2.89327e-05
0.00474993
6.12609e-06
0.0047451
7.73063e-06
0.00473969
9.43876e-06
0.00473368
1.12591e-05
0.00472703
1.32009e-05
0.00471969
1.52749e-05
0.00471162
1.74928e-05
0.00470276
1.98677e-05
0.00469306
2.24144e-05
0.00468245
2.51493e-05
0.00467086
2.80905e-05
0.00465822
3.12587e-05
0.00464445
3.46767e-05
0.00462945
3.83704e-05
0.00461312
4.2369e-05
4.67055e-05
0.00474727
1.44638e-05
0.00473841
1.6592e-05
0.00472899
1.88573e-05
0.00471898
2.12715e-05
0.00470833
2.38474e-05
0.00469701
2.65991e-05
0.00468496
2.95426e-05
0.00467213
3.26956e-05
0.00465847
3.60777e-05
0.00464391
3.97108e-05
0.00462838
4.36194e-05
0.0046118
4.78308e-05
0.00459411
5.23758e-05
0.00457519
5.7289e-05
0.00455495
6.26093e-05
6.83808e-05
0.00474379
2.8092e-05
0.00472965
3.07315e-05
0.00471496
3.35413e-05
0.0046997
3.65364e-05
0.00468381
3.97331e-05
0.00466726
4.31496e-05
0.00465
4.68057e-05
0.00463197
5.07237e-05
0.00461312
5.49283e-05
0.00459339
5.94468e-05
0.0045727
6.43099e-05
0.00455097
6.9552e-05
0.00452814
7.52115e-05
0.0045041
8.13318e-05
0.00447874
8.79617e-05
9.51568e-05
0.00473955
4.82017e-05
0.00471895
5.13332e-05
0.00469782
5.46689e-05
0.00467613
5.82268e-05
0.00465383
6.20266e-05
0.00463089
6.60903e-05
0.00460726
7.04417e-05
0.00458287
7.51075e-05
0.00455768
8.01172e-05
0.00453163
8.55039e-05
0.00450463
9.13042e-05
0.00447663
9.75595e-05
0.00444752
0.000104316
0.00441723
0.000111626
0.00438564
0.000119549
0.00012815
0.00473463
7.58898e-05
0.00470648
7.94847e-05
0.00467783
8.33212e-05
0.00464864
8.7418e-05
0.00461887
9.17977e-05
0.00458847
9.64855e-05
0.0045574
0.000101509
0.00452561
0.000106899
0.00449304
0.000112689
0.00445962
0.000118919
0.0044253
0.000125631
0.00438998
0.000132874
0.0043536
0.000140701
0.00431605
0.000149174
0.00427724
0.000158361
0.00016834
0.00498322
8.65546e-05
-0.00499389
0.00497211
9.05948e-05
0.00496053
9.49074e-05
0.00494843
9.95138e-05
0.00493579
0.000104438
0.00492257
0.000109706
0.00490873
0.000115349
0.00489423
0.0001214
0.00487902
0.000127897
0.00486306
0.000134881
0.00484629
0.0001424
0.00482866
0.000150505
0.0048101
0.000159255
0.00479056
0.000168716
0.00476996
0.000178963
0.00019008
0.00498721
9.70052e-05
-0.00499766
0.00497632
0.000101481
0.00496497
0.000106255
0.00495314
0.000111352
0.00494077
0.000116798
0.00492786
0.000122623
0.00491435
0.000128857
0.00490021
0.000135538
0.0048854
0.000142705
0.00486988
0.000150404
0.0048536
0.000158684
0.0048365
0.000167601
0.00481854
0.000177218
0.00479965
0.000187604
0.00477977
0.000198839
0.00021101
0.00499167
0.0001072
-0.00500186
0.00498105
0.000112096
0.00496999
0.000117315
0.00495846
0.000122882
0.00494644
0.000128827
0.00493388
0.000135179
0.00492076
0.000141973
0.00490705
0.000149249
0.00489271
0.000157048
0.0048777
0.000165417
0.00486197
0.000174409
0.00484549
0.000184083
0.0048282
0.000194504
0.00481006
0.000205745
0.00479102
0.000217888
0.000231024
0.00499658
0.000117108
-0.00500648
0.00498627
0.000122406
0.00497553
0.000128048
0.00496435
0.000134062
0.0049527
0.000140477
0.00494055
0.000147327
0.00492788
0.000154648
0.00491465
0.00016248
0.00490083
0.000170867
0.00488639
0.000179859
0.00487129
0.00018951
0.00485549
0.00019988
0.00483895
0.000211038
0.00482164
0.000223059
0.0048035
0.000236026
0.000250032
0.00500189
0.000126705
-0.00501149
0.00499192
0.000132382
0.00498154
0.000138423
0.00497075
0.000144856
0.00495951
0.000151713
0.00494781
0.000159028
0.00493562
0.000166838
0.00492292
0.000175185
0.00490967
0.000184115
0.00489585
0.000193679
0.00488143
0.000203932
0.00486637
0.000214937
0.00485065
0.000226761
0.00483422
0.000239483
0.00481706
0.000253185
0.000267963
0.0050076
0.000135969
-0.00501686
0.00499798
0.000142
0.00498799
0.000148413
0.00497761
0.000155237
0.00496682
0.000162503
0.0049556
0.000170247
0.00494393
0.000178508
0.00493179
0.000187328
0.00491915
0.000196754
0.00490599
0.000206836
0.00489229
0.000217633
0.00487802
0.000229206
0.00486316
0.000241625
0.00484767
0.000254966
0.00483154
0.000269314
0.000284763
0.00501366
0.000144881
-0.00502258
0.00500442
0.000151241
0.00499484
0.000157998
0.00498489
0.000165181
0.00497457
0.000172823
0.00496386
0.00018096
0.00495274
0.000189631
0.00494119
0.000198878
0.00492919
0.00020875
0.00491673
0.000219298
0.00490378
0.000230578
0.00489034
0.000242653
0.00487637
0.000255593
0.00486186
0.000269472
0.0048468
0.000284375
0.000300394
0.00502006
0.000153427
-0.0050286
0.00501121
0.000160089
0.00500205
0.000167159
0.00499256
0.00017467
0.00498273
0.000182653
0.00497254
0.000191144
0.00496199
0.000200183
0.00495106
0.000209813
0.00493973
0.000220081
0.00492798
0.000231038
0.00491582
0.000242741
0.00490322
0.000255252
0.00489018
0.000268638
0.00487667
0.000282974
0.00486271
0.000298343
0.000314833
0.00502675
0.000161594
-0.00503492
0.00501831
0.000168528
0.00500959
0.000175883
0.00500057
0.000183688
0.00499124
0.000191977
0.0049816
0.000200784
0.00497164
0.000210149
0.00496134
0.000220115
0.00495069
0.000230729
0.00493969
0.000242041
0.00492832
0.000254106
0.00491659
0.000266985
0.00490448
0.000280746
0.004892
0.000295459
0.00487913
0.000311204
0.000328068
0.00503372
0.000169369
-0.00504149
0.0050257
0.00017655
0.00501742
0.000184158
0.00500888
0.000192225
0.00500008
0.000200783
0.00499099
0.000209867
0.00498163
0.000219517
0.00497197
0.000229773
0.00496202
0.000240682
0.00495176
0.000252294
0.00494121
0.000264662
0.00493035
0.000277845
0.00491918
0.000291908
0.00490772
0.00030692
0.00489597
0.000322957
0.000340102
0.00504093
0.000176746
-0.0050483
0.00503333
0.000184144
0.00502552
0.000191976
0.00501747
0.000200272
0.00500919
0.000209064
0.00500067
0.000218387
0.00499191
0.000228278
0.0049829
0.00023878
0.00497365
0.000249935
0.00496415
0.000261793
0.00495441
0.000274405
0.00494442
0.000287829
0.0049342
0.000302126
0.00492376
0.000317362
0.00491311
0.000333609
0.000350945
0.00504836
0.000183718
-0.00505533
0.00504119
0.000191305
0.00503384
0.00019933
0.00502629
0.000207823
0.00501854
0.000216814
0.00501059
0.000226338
0.00500244
0.00023643
0.00499408
0.000247132
0.00498553
0.000258486
0.00497679
0.000270538
0.00496785
0.000283339
0.00495874
0.000296942
0.00494946
0.000311407
0.00494002
0.000326795
0.00493046
0.000343175
0.00036062
0.00505597
0.00019028
-0.00506253
0.00504925
0.000198029
0.00504236
0.000206219
0.0050353
0.000214876
0.00502809
0.000224032
0.0050207
0.000233719
0.00501316
0.000243974
0.00500546
0.000254833
0.00499761
0.000266339
0.00498961
0.000278536
0.00498148
0.00029147
0.00497323
0.000305195
0.00496487
0.000319765
0.00495643
0.000335238
0.00494792
0.000351678
0.000369153
0.00506375
0.000196431
-0.0050699
0.00505746
0.000204316
0.00505104
0.00021264
0.00504448
0.000221431
0.0050378
0.000230719
0.00503098
0.000240534
0.00502404
0.000250912
0.00501699
0.000261887
0.00500983
0.000273501
0.00500257
0.000285794
0.00499523
0.000298812
0.00498782
0.000312603
0.00498036
0.000327219
0.00497289
0.000342714
0.00496542
0.000359147
0.00037658
0.00507166
0.000202169
-0.00507739
0.00506581
0.000210164
0.00505985
0.000218595
0.00505379
0.000227491
0.00504763
0.000236878
0.00504138
0.000246787
0.00503504
0.000257251
0.00502863
0.000268304
0.00502214
0.000279983
0.00501561
0.000292328
0.00500904
0.000305381
0.00500246
0.000319187
0.00499588
0.000333794
0.00498935
0.000349253
0.00498288
0.000365616
0.000382941
0.00507967
0.000207497
-0.005085
0.00507426
0.000215576
0.00506877
0.000224088
0.0050632
0.000233059
0.00505756
0.000242515
0.00505186
0.000252486
0.00504611
0.000263001
0.00504032
0.000274093
0.00503451
0.000285798
0.00502868
0.000298153
0.00502287
0.000311196
0.00501709
0.000324969
0.00501136
0.000339517
0.00500573
0.000354885
0.00500022
0.000371123
0.00038828
0.00508777
0.000212418
-0.00509269
0.00508279
0.000220557
0.00507776
0.000229124
0.00507267
0.000238143
0.00506755
0.000247639
0.0050624
0.00025764
0.00505722
0.000268173
0.00505205
0.000279271
0.00504688
0.000290964
0.00504174
0.000303289
0.00503666
0.00031628
0.00503165
0.000329976
0.00502675
0.000344418
0.00502199
0.000359648
0.0050174
0.000375708
0.000392645
0.00509593
0.000216935
-0.00510045
0.00509138
0.000225112
0.00508679
0.000233709
0.00508218
0.00024275
0.00507756
0.000252259
0.00507294
0.00026226
0.00506834
0.000272782
0.00506375
0.000283851
0.00505922
0.000295499
0.00505475
0.000307757
0.00505037
0.000320658
0.00504611
0.000334238
0.005042
0.000348532
0.00503807
0.000363578
0.00503436
0.000379416
0.000396084
0.00510413
0.000221056
-0.00510825
0.00509999
0.000229248
0.00509585
0.000237853
0.00509171
0.000246892
0.00508758
0.000256387
0.00508348
0.000266362
0.00507942
0.000276842
0.00507541
0.000287854
0.00507149
0.000299424
0.00506766
0.000311582
0.00506396
0.000324359
0.00506042
0.000337785
0.00505706
0.000351893
0.00505392
0.000366717
0.00505104
0.000382291
0.00039865
0.00511234
0.000224786
-0.00511607
0.00510861
0.000232973
0.0051049
0.000241564
0.00510121
0.000250578
0.00509756
0.000260036
0.00509397
0.000269959
0.00509044
0.000280372
0.00508699
0.000291297
0.00508366
0.000302761
0.00508045
0.000314789
0.0050774
0.000327409
0.00507454
0.000340649
0.00507189
0.000354538
0.0050695
0.000369105
0.00506741
0.00038438
0.000400394
0.00512054
0.000228135
-0.00512389
0.00511722
0.000236298
0.00511393
0.000244854
0.00511068
0.000253821
0.0051075
0.000263219
0.00510439
0.000273068
0.00510137
0.000283389
0.00509847
0.000294203
0.00509569
0.000305533
0.00509308
0.000317404
0.00509065
0.000329839
0.00508843
0.000342864
0.00508647
0.000356504
0.00508479
0.000370784
0.00508344
0.00038573
0.000401368
0.00512872
0.000231112
-0.00513169
0.00512578
0.000239232
0.0051229
0.000247735
0.00512009
0.000256636
0.00511735
0.000265954
0.00511472
0.000275706
0.00511219
0.000285912
0.0051098
0.000296592
0.00510757
0.000307766
0.00510552
0.000319455
0.00510368
0.00033168
0.00510208
0.000344464
0.00510075
0.000357829
0.00509974
0.000371797
0.00509908
0.000386388
0.000401625
0.00513685
0.000233725
-0.00513947
0.0051343
0.000241787
0.00513181
0.000250219
0.00512941
0.000259036
0.00512711
0.000268255
0.00512493
0.000277892
0.00512288
0.000287963
0.00512098
0.000298488
0.00511926
0.000309484
0.00511775
0.000320969
0.00511647
0.000332963
0.00511545
0.000345484
0.00511472
0.000358552
0.00511433
0.000372185
0.00511432
0.0003864
0.000401215
0.00514493
0.000235987
-0.00514719
0.00514274
0.000243975
0.00514064
0.00025232
0.00513864
0.000261037
0.00513675
0.000270139
0.005135
0.000279643
0.0051334
0.000289562
0.00513198
0.000299913
0.00513075
0.000310712
0.00512974
0.000321975
0.00512899
0.000333719
0.00512851
0.000345959
0.00512836
0.000358711
0.00512855
0.00037199
0.00512914
0.000385812
0.000400188
0.00515293
0.000237909
-0.00515485
0.0051511
0.000245808
0.00514936
0.000254052
0.00514775
0.000262653
0.00514626
0.000271625
0.00514493
0.000280979
0.00514376
0.00029073
0.00514278
0.000300892
0.00514201
0.000311478
0.00514149
0.000322502
0.00514123
0.000333979
0.00514127
0.000345921
0.00514163
0.000358342
0.00514237
0.000371254
0.00514352
0.000384668
0.000398593
0.00516084
0.000239502
-0.00516244
0.00515935
0.0002473
0.00515797
0.00025543
0.00515672
0.000263902
0.00515562
0.000272729
0.00515468
0.00028192
0.00515392
0.000291489
0.00515337
0.000301447
0.00515304
0.000311805
0.00515296
0.000322577
0.00515317
0.000333773
0.00515368
0.000345405
0.00515454
0.000357482
0.00515578
0.000370015
0.00515744
0.000383011
0.000396477
0.00516865
0.000240779
-0.00516993
0.00516749
0.000248465
0.00516645
0.000256468
0.00516555
0.0002648
0.00516481
0.000273469
0.00516425
0.000282485
0.00516388
0.000291859
0.00516372
0.000301601
0.00516381
0.000311721
0.00516416
0.000322229
0.0051648
0.000333133
0.00516576
0.000344444
0.00516707
0.000356168
0.00516877
0.000368313
0.0051709
0.000380884
0.000393885
0.00517635
0.000241752
-0.00517733
0.0051755
0.000249315
0.00517479
0.000257182
0.00517423
0.000265362
0.00517383
0.000273864
0.00517362
0.000282694
0.00517362
0.000291863
0.00517384
0.000301379
0.00517431
0.00031125
0.00517506
0.000321484
0.0051761
0.000332088
0.00517748
0.000343069
0.00517921
0.000354433
0.00518134
0.000366184
0.0051839
0.000378326
0.000390859
0.00518393
0.000242433
-0.00518461
0.00518338
0.000249865
0.00518298
0.000257587
0.00518273
0.000265606
0.00518267
0.000273931
0.00518279
0.000282567
0.00518314
0.000291522
0.00518371
0.000300803
0.00518454
0.000310417
0.00518566
0.00032037
0.00518708
0.000330667
0.00518884
0.000341313
0.00519096
0.000352311
0.00519348
0.000363666
0.00519643
0.000375376
0.000387441
0.00519138
-0.00519178
0.00519111
0.005191
0.00519106
0.0051913
0.00519175
0.00519242
0.00519332
0.00519449
0.00519595
0.00519772
0.00519983
0.00520231
0.00520518
0.00520849
0.00529276
1.04528e-06
0.00529237
3.04718e-06
0.00529173
4.9414e-06
0.00529087
6.74038e-06
0.00528978
8.45784e-06
0.00528848
1.01053e-05
0.00528698
1.16924e-05
0.00528527
1.3227e-05
0.00528338
1.47166e-05
0.00528131
1.61723e-05
0.00527904
1.76132e-05
0.00527659
1.90706e-05
0.00527395
2.05877e-05
0.0052711
2.22145e-05
0.00526803
2.39972e-05
0.00526471
2.59662e-05
0.00526112
2.81264e-05
0.00525724
3.04517e-05
0.00525305
3.28871e-05
0.00524855
3.53568e-05
0.00524374
3.77757e-05
0.00523864
4.00622e-05
0.00523327
4.2149e-05
0.00522767
4.39908e-05
0.00522185
4.55669e-05
0.00521587
4.68804e-05
0.00520974
4.79545e-05
0.0052035
4.88267e-05
0.00519716
4.95424e-05
0.00519074
5.01499e-05
0.00518425
5.06954e-05
0.00517769
5.122e-05
0.00517107
5.1758e-05
0.00516437
5.23359e-05
0.0051576
5.2973e-05
0.00515075
5.36816e-05
0.0051438
5.44689e-05
0.00513675
5.53375e-05
0.00512959
5.62869e-05
0.00512231
5.73143e-05
0.0051149
5.84159e-05
0.00510735
5.95869e-05
0.00509965
6.08224e-05
0.0050918
6.21177e-05
0.00508379
6.34685e-05
0.00507562
6.48708e-05
0.00506727
6.63211e-05
0.00505875
6.78165e-05
0.00505005
6.93546e-05
0.00504117
7.09332e-05
0.0050321
7.25507e-05
0.00502283
7.4206e-05
0.00501338
7.58987e-05
0.00500372
7.763e-05
7.94037e-05
0.00529276
1.17874e-06
0.00529237
3.43703e-06
0.00529174
5.57312e-06
0.00529088
7.60204e-06
0.0052898
9.53892e-06
0.0052885
1.13968e-05
0.00528701
1.31864e-05
0.00528532
1.49167e-05
0.00528344
1.65963e-05
0.00528138
1.82373e-05
0.00527913
1.98612e-05
0.0052767
2.15029e-05
0.00527407
2.32108e-05
0.00527125
2.50408e-05
0.0052682
2.70448e-05
0.00526491
2.92574e-05
0.00526135
3.16843e-05
0.0052575
3.4297e-05
0.00525336
3.70344e-05
0.0052489
3.98119e-05
0.00524414
4.25343e-05
0.0052391
4.511e-05
0.00523378
4.74634e-05
0.00522823
4.95428e-05
0.00522247
5.13245e-05
0.00521654
5.28113e-05
0.00521047
5.40284e-05
0.00520428
5.50173e-05
0.00519799
5.58287e-05
0.00519162
5.65164e-05
0.00518519
5.71322e-05
0.00517868
5.77222e-05
0.00517212
5.8325e-05
0.00516548
5.89706e-05
0.00515878
5.96807e-05
0.00515199
6.04697e-05
0.00514511
6.13457e-05
0.00513814
6.23119e-05
0.00513106
6.33678e-05
0.00512386
6.45106e-05
0.00511654
6.57358e-05
0.00510909
6.70384e-05
0.0051015
6.84128e-05
0.00509376
6.98537e-05
0.00508587
7.13562e-05
0.00507783
7.29157e-05
0.00506962
7.45284e-05
0.00506125
7.61909e-05
0.0050527
7.79001e-05
0.00504398
7.96537e-05
0.00503508
8.14496e-05
0.005026
8.32862e-05
0.00501674
8.51626e-05
0.00500729
8.70785e-05
8.9035e-05
0.00529276
1.31135e-06
0.00529237
3.82422e-06
0.00529175
6.2006e-06
0.00529089
8.45787e-06
0.00528982
1.06126e-05
0.00528853
1.26794e-05
0.00528705
1.46701e-05
0.00528537
1.65947e-05
0.00528351
1.84626e-05
0.00528146
2.02874e-05
0.00527923
2.20927e-05
0.00527681
2.39168e-05
0.00527421
2.58132e-05
0.00527141
2.78436e-05
0.00526839
3.00655e-05
0.00526513
3.25174e-05
0.0052616
3.52064e-05
0.0052578
3.81015e-05
0.0052537
4.1136e-05
0.00524929
4.42168e-05
0.00524459
4.72389e-05
0.0052396
5.01008e-05
0.00523434
5.27186e-05
0.00522885
5.50345e-05
0.00522315
5.70214e-05
0.00521728
5.86816e-05
0.00521127
6.00423e-05
0.00520514
6.11484e-05
0.00519891
6.20557e-05
0.0051926
6.28234e-05
0.00518623
6.35087e-05
0.00517979
6.41627e-05
0.00517328
6.48281e-05
0.00516672
6.55385e-05
0.00516008
6.63181e-05
0.00515336
6.71833e-05
0.00514657
6.81431e-05
0.00513968
6.92014e-05
0.00513269
7.03579e-05
0.00512559
7.16096e-05
0.00511837
7.29518e-05
0.00511103
7.43788e-05
0.00510356
7.58845e-05
0.00509595
7.74631e-05
0.0050882
7.9109e-05
0.0050803
8.08172e-05
0.00507224
8.25833e-05
0.00506403
8.44033e-05
0.00505566
8.62739e-05
0.00504712
8.81923e-05
0.00503841
9.0156e-05
0.00502953
9.21631e-05
0.00502048
9.4212e-05
0.00501126
9.63016e-05
9.84317e-05
0.00529276
1.443e-06
0.00529238
4.20848e-06
0.00529176
6.82336e-06
0.00529091
9.30723e-06
0.00528984
1.16782e-05
0.00528857
1.39521e-05
0.0052871
1.61422e-05
0.00528543
1.82594e-05
0.00528358
2.03141e-05
0.00528155
2.2321e-05
0.00527933
2.43059e-05
0.00527694
2.63104e-05
0.00527436
2.83928e-05
0.00527158
3.06205e-05
0.00526859
3.30566e-05
0.00526537
3.57435e-05
0.00526188
3.86897e-05
0.00525812
4.18621e-05
0.00525407
4.51886e-05
0.00524972
4.85679e-05
0.00524507
5.18855e-05
0.00524014
5.50305e-05
0.00523495
5.79103e-05
0.00522952
6.04613e-05
0.00522389
6.26528e-05
0.00521809
6.44864e-05
0.00521214
6.59906e-05
0.00520607
6.72142e-05
0.00519991
6.82173e-05
0.00519367
6.90645e-05
0.00518736
6.98182e-05
0.00518099
7.05343e-05
0.00517456
7.12599e-05
0.00516806
7.20318e-05
0.0051615
7.2877e-05
0.00515487
7.38135e-05
0.00514817
7.48519e-05
0.00514137
7.59964e-05
0.00513448
7.72472e-05
0.00512749
7.8601e-05
0.00512039
8.00528e-05
0.00511317
8.15964e-05
0.00510583
8.32253e-05
0.00509836
8.4933e-05
0.00509076
8.67135e-05
0.00508301
8.85611e-05
0.00507512
9.04708e-05
0.00506709
9.24383e-05
0.0050589
9.44598e-05
0.00505056
9.65321e-05
0.00504207
9.86522e-05
0.00503341
0.000100818
0.0050246
0.000103027
0.00501562
0.000105278
0.00010757
0.00529276
1.57358e-06
0.00529238
4.58953e-06
0.00529176
7.44095e-06
0.00529092
1.01495e-05
0.00528987
1.27348e-05
0.0052886
1.52141e-05
0.00528714
1.76018e-05
0.00528549
1.99098e-05
0.00528366
2.21494e-05
0.00528164
2.43366e-05
0.00527945
2.6499e-05
0.00527708
2.86817e-05
0.00527452
3.09475e-05
0.00527178
3.33694e-05
0.00526882
3.60158e-05
0.00526563
3.89333e-05
0.00526218
4.21317e-05
0.00525847
4.55761e-05
0.00525447
4.91892e-05
0.00525018
5.28621e-05
0.00524559
5.64709e-05
0.00524072
5.98954e-05
0.0052356
6.30347e-05
0.00523024
6.58191e-05
0.00522468
6.82142e-05
0.00521895
7.02206e-05
0.00521307
7.18682e-05
0.00520707
7.3209e-05
0.00520098
7.43076e-05
0.00519482
7.52334e-05
0.00518858
7.6054e-05
0.00518228
7.68301e-05
0.00517593
7.76129e-05
0.00516952
7.84426e-05
0.00516305
7.9349e-05
0.00515651
8.03519e-05
0.0051499
8.14631e-05
0.00514321
8.26876e-05
0.00513643
8.40257e-05
0.00512956
8.54743e-05
0.00512258
8.70278e-05
0.0051155
8.86799e-05
0.0051083
9.04233e-05
0.00510098
9.22512e-05
0.00509354
9.41567e-05
0.00508596
9.61338e-05
0.00507826
9.81769e-05
0.00507042
0.000100281
0.00506243
0.000102442
0.00505431
0.000104657
0.00504604
0.000106921
0.00503762
0.000109233
0.00502906
0.00011159
0.00502035
0.000113989