/*--------------------------------*- C++ -*----------------------------------*\
| =========                 |                                                 |
| \\      /  F ield         | OpenFOAM: The Open Source CFD Toolbox           |
|  \\    /   O peration     | Version:  2412                                  |
|   \\  /    A nd           | Website:  www.openfoam.com                      |
|    \\/     M anipulation  |                                                 |
\*---------------------------------------------------------------------------*/
FoamFile
{
    version     2.0;
    format      ascii;
    arch        "LSB;label=32;scalar=64";
    class       volVectorField;
    location    "30";
    object      UA;
}
// * * * * * * * * * * * * * * * * * * * * * * * * * * * * * * * * * * * * * //

dimensions      [0 1 -1 0 0 0 0];

internalField   nonuniform List<vector> 
5285
(
(0.0996033 2.52776e-06 0)
(0.0995883 2.67305e-06 0)
(0.0995727 2.8265e-06 0)
(0.0995565 2.98856e-06 0)
(0.0995397 3.1597e-06 0)
(0.0995223 3.34041e-06 0)
(0.0995043 3.5312e-06 0)
(0.0994856 3.73263e-06 0)
(0.0994663 3.94525e-06 0)
(0.0994462 4.16968e-06 0)
(0.0994254 4.40654e-06 0)
(0.0994039 4.6565e-06 0)
(0.0993816 4.92025e-06 0)
(0.0993585 5.19853e-06 0)
(0.0993346 5.49211e-06 0)
(0.0993098 5.80179e-06 0)
(0.0992841 6.12841e-06 0)
(0.0992575 6.47288e-06 0)
(0.09923 6.83611e-06 0)
(0.0992015 7.2191e-06 0)
(0.099172 7.62286e-06 0)
(0.0991415 8.04847e-06 0)
(0.0991099 8.49706e-06 0)
(0.0990772 8.96982e-06 0)
(0.0990433 9.46797e-06 0)
(0.0990083 9.99282e-06 0)
(0.098972 1.05457e-05 0)
(0.0989345 1.11281e-05 0)
(0.0988957 1.17415e-05 0)
(0.0988556 1.23873e-05 0)
(0.0988141 1.30674e-05 0)
(0.0987712 1.37833e-05 0)
(0.0987268 1.45368e-05 0)
(0.0986809 1.53298e-05 0)
(0.0986334 1.61643e-05 0)
(0.0985844 1.70423e-05 0)
(0.0985337 1.7966e-05 0)
(0.0984813 1.89374e-05 0)
(0.0984272 1.9959e-05 0)
(0.0983712 2.10332e-05 0)
(0.0983134 2.21624e-05 0)
(0.0982538 2.33494e-05 0)
(0.0981921 2.45969e-05 0)
(0.0981284 2.59076e-05 0)
(0.0980627 2.72847e-05 0)
(0.0979948 2.87312e-05 0)
(0.0979248 3.02503e-05 0)
(0.0978524 3.18453e-05 0)
(0.0977778 3.35199e-05 0)
(0.0977008 3.52776e-05 0)
(0.0976213 3.71221e-05 0)
(0.0975394 3.90575e-05 0)
(0.0974548 4.10878e-05 0)
(0.0973677 4.32172e-05 0)
(0.0972778 4.54501e-05 0)
(0.0996034 7.58205e-06 0)
(0.0995884 8.0178e-06 0)
(0.0995728 8.47802e-06 0)
(0.0995566 8.96406e-06 0)
(0.0995398 9.47732e-06 0)
(0.0995225 1.00193e-05 0)
(0.0995044 1.05915e-05 0)
(0.0994858 1.11955e-05 0)
(0.0994664 1.18332e-05 0)
(0.0994464 1.25062e-05 0)
(0.0994256 1.32165e-05 0)
(0.0994041 1.39661e-05 0)
(0.0993818 1.4757e-05 0)
(0.0993588 1.55915e-05 0)
(0.0993348 1.64718e-05 0)
(0.0993101 1.74004e-05 0)
(0.0992844 1.83798e-05 0)
(0.0992579 1.94127e-05 0)
(0.0992304 2.05019e-05 0)
(0.0992019 2.16502e-05 0)
(0.0991724 2.28608e-05 0)
(0.0991419 2.41369e-05 0)
(0.0991104 2.54819e-05 0)
(0.0990777 2.68993e-05 0)
(0.0990439 2.83928e-05 0)
(0.0990089 2.99663e-05 0)
(0.0989727 3.16239e-05 0)
(0.0989352 3.33698e-05 0)
(0.0988965 3.52085e-05 0)
(0.0988564 3.71446e-05 0)
(0.0988149 3.91831e-05 0)
(0.0987721 4.1329e-05 0)
(0.0987278 4.35877e-05 0)
(0.0986819 4.59647e-05 0)
(0.0986346 4.84659e-05 0)
(0.0985856 5.10974e-05 0)
(0.098535 5.38655e-05 0)
(0.0984827 5.67769e-05 0)
(0.0984287 5.98385e-05 0)
(0.0983729 6.30574e-05 0)
(0.0983152 6.64414e-05 0)
(0.0982556 6.99982e-05 0)
(0.0981941 7.3736e-05 0)
(0.0981306 7.76634e-05 0)
(0.098065 8.17892e-05 0)
(0.0979973 8.61228e-05 0)
(0.0979274 9.06737e-05 0)
(0.0978553 9.5452e-05 0)
(0.0977808 0.000100468 0)
(0.097704 0.000105733 0)
(0.0976248 0.000111258 0)
(0.0975431 0.000117055 0)
(0.0974588 0.000123135 0)
(0.0973719 0.000129512 0)
(0.0972823 0.000136198 0)
(0.0996036 1.26327e-05 0)
(0.0995886 1.33585e-05 0)
(0.099573 1.41251e-05 0)
(0.0995568 1.49347e-05 0)
(0.0995401 1.57896e-05 0)
(0.0995227 1.66923e-05 0)
(0.0995047 1.76453e-05 0)
(0.0994861 1.86513e-05 0)
(0.0994668 1.97133e-05 0)
(0.0994468 2.08342e-05 0)
(0.099426 2.20172e-05 0)
(0.0994046 2.32655e-05 0)
(0.0993823 2.45826e-05 0)
(0.0993593 2.59722e-05 0)
(0.0993354 2.74381e-05 0)
(0.0993107 2.89843e-05 0)
(0.0992851 3.06151e-05 0)
(0.0992586 3.23349e-05 0)
(0.0992311 3.41483e-05 0)
(0.0992027 3.60601e-05 0)
(0.0991733 3.80756e-05 0)
(0.0991428 4.02e-05 0)
(0.0991113 4.24389e-05 0)
(0.0990787 4.47983e-05 0)
(0.099045 4.72843e-05 0)
(0.0990101 4.99033e-05 0)
(0.098974 5.26621e-05 0)
(0.0989366 5.55678e-05 0)
(0.098898 5.86277e-05 0)
(0.098858 6.18497e-05 0)
(0.0988167 6.52418e-05 0)
(0.0987739 6.88124e-05 0)
(0.0987297 7.25705e-05 0)
(0.0986841 7.65252e-05 0)
(0.0986369 8.06862e-05 0)
(0.0985881 8.50637e-05 0)
(0.0985376 8.96682e-05 0)
(0.0984855 9.45106e-05 0)
(0.0984317 9.96025e-05 0)
(0.0983761 0.000104956 0)
(0.0983187 0.000110583 0)
(0.0982594 0.000116497 0)
(0.0981981 0.000122712 0)
(0.0981349 0.000129241 0)
(0.0980696 0.000136099 0)
(0.0980022 0.000143303 0)
(0.0979327 0.000150866 0)
(0.0978609 0.000158807 0)
(0.0977869 0.000167143 0)
(0.0977105 0.000175891 0)
(0.0976317 0.000185069 0)
(0.0975505 0.000194699 0)
(0.0974668 0.000204798 0)
(0.0973804 0.000215389 0)
(0.0972914 0.000226493 0)
(0.0996039 1.76771e-05 0)
(0.0995889 1.86924e-05 0)
(0.0995733 1.97648e-05 0)
(0.0995572 2.08972e-05 0)
(0.0995405 2.20929e-05 0)
(0.0995232 2.33555e-05 0)
(0.0995052 2.46883e-05 0)
(0.0994866 2.60954e-05 0)
(0.0994673 2.75806e-05 0)
(0.0994473 2.91481e-05 0)
(0.0994266 3.08023e-05 0)
(0.0994052 3.25478e-05 0)
(0.099383 3.43895e-05 0)
(0.09936 3.63324e-05 0)
(0.0993362 3.8382e-05 0)
(0.0993115 4.05437e-05 0)
(0.099286 4.28235e-05 0)
(0.0992596 4.52276e-05 0)
(0.0992322 4.77624e-05 0)
(0.0992039 5.04347e-05 0)
(0.0991745 5.32516e-05 0)
(0.0991442 5.62207e-05 0)
(0.0991128 5.93496e-05 0)
(0.0990803 6.26466e-05 0)
(0.0990467 6.61203e-05 0)
(0.0990119 6.97796e-05 0)
(0.0989759 7.3634e-05 0)
(0.0989387 7.76932e-05 0)
(0.0989002 8.19677e-05 0)
(0.0988604 8.64681e-05 0)
(0.0988192 9.12056e-05 0)
(0.0987767 9.61922e-05 0)
(0.0987327 0.00010144 0)
(0.0986873 0.000106962 0)
(0.0986403 0.000112771 0)
(0.0985917 0.000118883 0)
(0.0985416 0.00012531 0)
(0.0984898 0.000132069 0)
(0.0984363 0.000139175 0)
(0.098381 0.000146645 0)
(0.0983239 0.000154496 0)
(0.098265 0.000162747 0)
(0.0982041 0.000171416 0)
(0.0981413 0.000180522 0)
(0.0980765 0.000190087 0)
(0.0980096 0.000200131 0)
(0.0979406 0.000210676 0)
(0.0978694 0.000221746 0)
(0.0977959 0.000233363 0)
(0.0977202 0.000245554 0)
(0.0976421 0.000258343 0)
(0.0975616 0.000271757 0)
(0.0974786 0.000285824 0)
(0.0973931 0.000300573 0)
(0.0973049 0.000316033 0)
(0.0996043 2.27129e-05 0)
(0.0995893 2.40169e-05 0)
(0.0995738 2.53941e-05 0)
(0.0995577 2.68483e-05 0)
(0.099541 2.83838e-05 0)
(0.0995237 3.0005e-05 0)
(0.0995058 3.17164e-05 0)
(0.0994872 3.3523e-05 0)
(0.099468 3.54298e-05 0)
(0.0994481 3.74422e-05 0)
(0.0994275 3.95657e-05 0)
(0.0994061 4.18064e-05 0)
(0.0993839 4.41704e-05 0)
(0.099361 4.66641e-05 0)
(0.0993373 4.92946e-05 0)
(0.0993127 5.20688e-05 0)
(0.0992873 5.49944e-05 0)
(0.0992609 5.80792e-05 0)
(0.0992337 6.13315e-05 0)
(0.0992054 6.476e-05 0)
(0.0991762 6.83737e-05 0)
(0.099146 7.21823e-05 0)
(0.0991147 7.61956e-05 0)
(0.0990824 8.04242e-05 0)
(0.0990489 8.48789e-05 0)
(0.0990143 8.95713e-05 0)
(0.0989785 9.45133e-05 0)
(0.0989415 9.97174e-05 0)
(0.0989032 0.000105197 0)
(0.0988636 0.000110965 0)
(0.0988227 0.000117037 0)
(0.0987804 0.000123428 0)
(0.0987367 0.000130152 0)
(0.0986915 0.000137226 0)
(0.0986448 0.000144668 0)
(0.0985966 0.000152496 0)
(0.0985468 0.000160727 0)
(0.0984954 0.000169382 0)
(0.0984423 0.00017848 0)
(0.0983874 0.000188042 0)
(0.0983308 0.000198091 0)
(0.0982724 0.00020865 0)
(0.0982121 0.000219742 0)
(0.0981498 0.000231392 0)
(0.0980856 0.000243626 0)
(0.0980194 0.00025647 0)
(0.097951 0.000269953 0)
(0.0978806 0.000284104 0)
(0.0978079 0.000298952 0)
(0.097733 0.00031453 0)
(0.0976558 0.000330868 0)
(0.0975763 0.000348002 0)
(0.0974943 0.000365966 0)
(0.0974098 0.000384796 0)
(0.0973229 0.000404529 0)
(0.0996048 2.77378e-05 0)
(0.0995898 2.93293e-05 0)
(0.0995743 3.10101e-05 0)
(0.0995583 3.27848e-05 0)
(0.0995416 3.46587e-05 0)
(0.0995244 3.66369e-05 0)
(0.0995066 3.87252e-05 0)
(0.099488 4.09295e-05 0)
(0.0994689 4.32559e-05 0)
(0.099449 4.57109e-05 0)
(0.0994285 4.83013e-05 0)
(0.0994072 5.10345e-05 0)
(0.0993851 5.39178e-05 0)
(0.0993623 5.69592e-05 0)
(0.0993386 6.0167e-05 0)
(0.0993142 6.35499e-05 0)
(0.0992888 6.71171e-05 0)
(0.0992626 7.08781e-05 0)
(0.0992355 7.48429e-05 0)
(0.0992074 7.90221e-05 0)
(0.0991783 8.34267e-05 0)
(0.0991482 8.80682e-05 0)
(0.0991171 9.29588e-05 0)
(0.099085 9.81111e-05 0)
(0.0990517 0.000103538 0)
(0.0990173 0.000109254 0)
(0.0989817 0.000115274 0)
(0.0989449 0.000121612 0)
(0.0989069 0.000128284 0)
(0.0988676 0.000135308 0)
(0.098827 0.0001427 0)
(0.098785 0.000150478 0)
(0.0987416 0.000158662 0)
(0.0986968 0.00016727 0)
(0.0986505 0.000176325 0)
(0.0986027 0.000185846 0)
(0.0985534 0.000195858 0)
(0.0985024 0.000206382 0)
(0.0984498 0.000217443 0)
(0.0983955 0.000229067 0)
(0.0983394 0.000241281 0)
(0.0982816 0.000254111 0)
(0.0982219 0.000267586 0)
(0.0981604 0.000281736 0)
(0.0980969 0.000296592 0)
(0.0980315 0.000312186 0)
(0.097964 0.000328551 0)
(0.0978945 0.000345723 0)
(0.0978228 0.000363737 0)
(0.0977489 0.00038263 0)
(0.0976729 0.000402442 0)
(0.0975945 0.000423212 0)
(0.0975138 0.000444982 0)
(0.0974307 0.000467795 0)
(0.0973451 0.000491695 0)
(0.0996053 3.27491e-05 0)
(0.0995904 3.46269e-05 0)
(0.099575 3.66099e-05 0)
(0.099559 3.87036e-05 0)
(0.0995424 4.0914e-05 0)
(0.0995252 4.32475e-05 0)
(0.0995075 4.57106e-05 0)
(0.099489 4.83102e-05 0)
(0.0994699 5.10537e-05 0)
(0.0994502 5.39486e-05 0)
(0.0994297 5.70031e-05 0)
(0.0994085 6.02254e-05 0)
(0.0993865 6.36245e-05 0)
(0.0993638 6.72097e-05 0)
(0.0993403 7.09906e-05 0)
(0.0993159 7.49776e-05 0)
(0.0992907 7.91812e-05 0)
(0.0992646 8.36127e-05 0)
(0.0992376 8.8284e-05 0)
(0.0992097 9.32072e-05 0)
(0.0991808 9.83954e-05 0)
(0.0991509 0.000103862 0)
(0.09912 0.000109621 0)
(0.0990881 0.000115688 0)
(0.099055 0.000122077 0)
(0.0990209 0.000128806 0)
(0.0989855 0.000135891 0)
(0.098949 0.000143349 0)
(0.0989113 0.0001512 0)
(0.0988723 0.000159462 0)
(0.0988321 0.000168157 0)
(0.0987905 0.000177304 0)
(0.0987475 0.000186926 0)
(0.0987031 0.000197047 0)
(0.0986573 0.000207689 0)
(0.09861 0.000218878 0)
(0.0985611 0.00023064 0)
(0.0985107 0.000243002 0)
(0.0984587 0.000255993 0)
(0.0984051 0.000269641 0)
(0.0983497 0.000283978 0)
(0.0982926 0.000299035 0)
(0.0982337 0.000314845 0)
(0.098173 0.000331443 0)
(0.0981104 0.000348865 0)
(0.098046 0.000367147 0)
(0.0979795 0.000386328 0)
(0.097911 0.000406449 0)
(0.0978405 0.000427549 0)
(0.0977679 0.000449673 0)
(0.0976931 0.000472866 0)
(0.0976161 0.000497172 0)
(0.0975369 0.000522639 0)
(0.0974554 0.000549318 0)
(0.0973715 0.000577259 0)
(0.0971848 4.78605e-05 0)
(0.0970877 5.04675e-05 0)
(0.0969855 5.3263e-05 0)
(0.0968778 5.62641e-05 0)
(0.0967642 5.94899e-05 0)
(0.0966443 6.29618e-05 0)
(0.0965176 6.67035e-05 0)
(0.0963837 7.07414e-05 0)
(0.0962418 7.51051e-05 0)
(0.0960914 7.9828e-05 0)
(0.0959318 8.49476e-05 0)
(0.0957623 9.05059e-05 0)
(0.0955819 9.65507e-05 0)
(0.0953897 0.000103136 0)
(0.0951848 0.000110323 0)
(0.0949658 0.000118182 0)
(0.0971895 0.000143418 0)
(0.0970925 0.000151229 0)
(0.0969904 0.000159605 0)
(0.0968829 0.000168597 0)
(0.0967694 0.000178263 0)
(0.0966497 0.000188668 0)
(0.0965232 0.000199881 0)
(0.0963894 0.000211982 0)
(0.0962477 0.000225061 0)
(0.0960975 0.000239217 0)
(0.0959381 0.000254562 0)
(0.0957688 0.000271224 0)
(0.0955887 0.000289345 0)
(0.0953968 0.000309088 0)
(0.0951922 0.000330637 0)
(0.0949737 0.000354201 0)
(0.097199 0.000238485 0)
(0.0971023 0.00025147 0)
(0.0970004 0.000265395 0)
(0.0968931 0.000280346 0)
(0.0967799 0.000296419 0)
(0.0966604 0.000313721 0)
(0.0965342 0.00033237 0)
(0.0964007 0.000352498 0)
(0.0962594 0.000374254 0)
(0.0961096 0.000397804 0)
(0.0959507 0.000423337 0)
(0.0957818 0.000451063 0)
(0.0956022 0.000481221 0)
(0.095411 0.000514082 0)
(0.095207 0.000549954 0)
(0.0949892 0.000589185 0)
(0.0972132 0.000332741 0)
(0.0971168 0.000350849 0)
(0.0970152 0.000370271 0)
(0.0969083 0.000391127 0)
(0.0967955 0.000413551 0)
(0.0966764 0.000437693 0)
(0.0965507 0.000463717 0)
(0.0964177 0.000491811 0)
(0.0962769 0.000522181 0)
(0.0961277 0.000555063 0)
(0.0959694 0.000590717 0)
(0.0958013 0.000629442 0)
(0.0956225 0.000671571 0)
(0.0954321 0.000717485 0)
(0.0952291 0.000767614 0)
(0.0950124 0.00082245 0)
(0.097232 0.000425869 0)
(0.097136 0.000449032 0)
(0.0970349 0.000473878 0)
(0.0969284 0.000500564 0)
(0.0968161 0.000529261 0)
(0.0966976 0.000560162 0)
(0.0965725 0.000593479 0)
(0.0964401 0.000629453 0)
(0.0963 0.00066835 0)
(0.0961516 0.000710472 0)
(0.0959941 0.000756158 0)
(0.0958269 0.000805788 0)
(0.0956491 0.000859796 0)
(0.0954599 0.00091867 0)
(0.0952582 0.000982966 0)
(0.0950429 0.00105332 0)
(0.0972552 0.000517566 0)
(0.0971597 0.000545693 0)
(0.0970592 0.000575872 0)
(0.0969533 0.000608292 0)
(0.0968417 0.000643162 0)
(0.0967239 0.000680719 0)
(0.0965995 0.000721222 0)
(0.0964679 0.000764965 0)
(0.0963287 0.000812276 0)
(0.0961812 0.000863524 0)
(0.0960247 0.000919123 0)
(0.0958587 0.00097954 0)
(0.0956821 0.00104531 0)
(0.0954943 0.00111702 0)
(0.0952941 0.00119537 0)
(0.0950806 0.00128112 0)
(0.0972829 0.000607536 0)
(0.097188 0.000640522 0)
(0.0970882 0.000675921 0)
(0.096983 0.000713958 0)
(0.0968721 0.000754881 0)
(0.0967551 0.000798968 0)
(0.0966315 0.000846527 0)
(0.0965009 0.000897906 0)
(0.0963626 0.000953493 0)
(0.0962162 0.00101372 0)
(0.096061 0.00107909 0)
(0.0958962 0.00115015 0)
(0.0957211 0.00122753 0)
(0.0955349 0.00131194 0)
(0.0953366 0.00140418 0)
(0.0951251 0.0015052 0)
(0.0973159 0.000697453 0)
(0.0972227 0.000735198 0)
(0.0971246 0.000775701 0)
(0.0970214 0.000819214 0)
(0.0969126 0.000866022 0)
(0.0967979 0.000916439 0)
(0.0966769 0.000970819 0)
(0.096549 0.00102955 0)
(0.0964139 0.00109309 0)
(0.0962708 0.00116191 0)
(0.0961193 0.00123659 0)
(0.0959587 0.00131774 0)
(0.0957881 0.00140609 0)
(0.095607 0.00150244 0)
(0.0954144 0.0016077 0)
(0.0952093 0.00172292 0)
(0.0973546 0.000787039 0)
(0.0972641 0.000829349 0)
(0.0971691 0.000874721 0)
(0.0970692 0.000923437 0)
(0.0969641 0.000975807 0)
(0.0968534 0.00103218 0)
(0.0967367 0.00109293 0)
(0.0966137 0.0011585 0)
(0.0964838 0.00122936 0)
(0.0963466 0.00130607 0)
(0.0962016 0.00138921 0)
(0.0960481 0.00147948 0)
(0.0958855 0.00157765 0)
(0.0957132 0.00168458 0)
(0.0955305 0.00180127 0)
(0.0953364 0.00192883 0)
(0.0973975 0.000873818 0)
(0.0973102 0.00092044 0)
(0.0972185 0.000970404 0)
(0.0971223 0.00102401 0)
(0.0970211 0.0010816 0)
(0.0969148 0.00114353 0)
(0.0968029 0.00121023 0)
(0.0966851 0.00128216 0)
(0.0965611 0.00135982 0)
(0.0964302 0.00144379 0)
(0.0962922 0.00153473 0)
(0.0961465 0.00163334 0)
(0.0959926 0.00174046 0)
(0.0958299 0.001857 0)
(0.0956578 0.00198399 0)
(0.0954756 0.00212262 0)
(0.0974446 0.000957532 0)
(0.0973605 0.00100819 0)
(0.0972725 0.00106245 0)
(0.0971802 0.00112062 0)
(0.0970833 0.00118305 0)
(0.0969817 0.00125014 0)
(0.096875 0.00132232 0)
(0.0967629 0.00140009 0)
(0.096645 0.00148397 0)
(0.0965211 0.00157457 0)
(0.0963906 0.00167257 0)
(0.0962532 0.00177872 0)
(0.0961085 0.00189387 0)
(0.095956 0.00201898 0)
(0.0957952 0.0021551 0)
(0.0956257 0.00230347 0)
(0.0974954 0.00103795 0)
(0.0974149 0.00109236 0)
(0.0973307 0.00115059 0)
(0.0972426 0.00121296 0)
(0.0971504 0.00127985 0)
(0.0970538 0.00135166 0)
(0.0969525 0.00142884 0)
(0.0968464 0.00151191 0)
(0.0967351 0.00160141 0)
(0.0966184 0.00169797 0)
(0.0964959 0.00180228 0)
(0.0963672 0.00191512 0)
(0.0962322 0.00203735 0)
(0.0960904 0.00216995 0)
(0.0959414 0.00231401 0)
(0.095785 0.00247074 0)
(0.0975497 0.00111486 0)
(0.0974729 0.00117272 0)
(0.0973928 0.00123459 0)
(0.0973092 0.00130079 0)
(0.0972218 0.00137173 0)
(0.0971304 0.00144781 0)
(0.0970349 0.00152949 0)
(0.0969351 0.0016173 0)
(0.0968307 0.0017118 0)
(0.0967215 0.00181363 0)
(0.0966072 0.00192348 0)
(0.0964877 0.00204214 0)
(0.0963627 0.00217049 0)
(0.0962319 0.0023095 0)
(0.0960952 0.00246025 0)
(0.0959522 0.00262398 0)
(0.0976072 0.00118809 0)
(0.0975344 0.00124909 0)
(0.0974585 0.00131425 0)
(0.0973795 0.00138391 0)
(0.0972971 0.00145847 0)
(0.0972112 0.00153836 0)
(0.0971217 0.00162403 0)
(0.0970283 0.00171601 0)
(0.096931 0.00181488 0)
(0.0968296 0.00192127 0)
(0.0967238 0.00203588 0)
(0.0966136 0.0021595 0)
(0.0964989 0.00229298 0)
(0.0963794 0.00243731 0)
(0.0962551 0.00259355 0)
(0.0961258 0.00276291 0)
(0.0976676 0.00125748 0)
(0.0975989 0.0013213 0)
(0.0975274 0.0013894 0)
(0.0974531 0.00146214 0)
(0.0973759 0.0015399 0)
(0.0972956 0.00162312 0)
(0.0972122 0.00171227 0)
(0.0971255 0.00180785 0)
(0.0970355 0.00191046 0)
(0.096942 0.0020207 0)
(0.0968449 0.00213929 0)
(0.0967442 0.00226699 0)
(0.0966398 0.00240466 0)
(0.0965317 0.00255323 0)
(0.0964199 0.00271376 0)
(0.0963044 0.00288741 0)
(0.0977307 0.00132293 0)
(0.0976661 0.00138924 0)
(0.0975991 0.00145993 0)
(0.0975297 0.00153535 0)
(0.0974578 0.00161589 0)
(0.0973832 0.00170197 0)
(0.097306 0.00179407 0)
(0.0972261 0.00189269 0)
(0.0971434 0.0019984 0)
(0.0970579 0.00211181 0)
(0.0969696 0.00223361 0)
(0.0968784 0.00236454 0)
(0.0967845 0.00250544 0)
(0.0966878 0.00265722 0)
(0.0965884 0.00282088 0)
(0.0964866 0.00299753 0)
(0.097796 0.00138432 0)
(0.0977357 0.0014528 0)
(0.0976733 0.00152573 0)
(0.0976088 0.00160344 0)
(0.0975422 0.00168633 0)
(0.0974735 0.00177482 0)
(0.0974026 0.00186935 0)
(0.0973295 0.00197045 0)
(0.0972542 0.00207864 0)
(0.0971767 0.00219454 0)
(0.0970971 0.0023188 0)
(0.0970154 0.00245214 0)
(0.0969318 0.00259537 0)
(0.0968464 0.00274934 0)
(0.0967594 0.00291502 0)
(0.0966711 0.00309345 0)
(0.0978633 0.0014416 0)
(0.0978073 0.00151193 0)
(0.0977495 0.00158674 0)
(0.09769 0.00166637 0)
(0.0976289 0.00175119 0)
(0.0975659 0.00184162 0)
(0.0975013 0.0019381 0)
(0.097435 0.00204111 0)
(0.0973671 0.00215119 0)
(0.0972976 0.00226891 0)
(0.0972267 0.00239491 0)
(0.0971544 0.00252988 0)
(0.097081 0.00267456 0)
(0.0970067 0.00282978 0)
(0.0969318 0.00299643 0)
(0.0968566 0.00317549 0)
(0.0979323 0.00149473 0)
(0.0978806 0.00156659 0)
(0.0978275 0.00164294 0)
(0.097773 0.00172411 0)
(0.0977172 0.00181045 0)
(0.0976601 0.00190237 0)
(0.0976017 0.00200031 0)
(0.0975422 0.00210471 0)
(0.0974816 0.0022161 0)
(0.09742 0.00233502 0)
(0.0973576 0.00246207 0)
(0.0972946 0.0025979 0)
(0.0972312 0.00274322 0)
(0.0971677 0.00289879 0)
(0.0971045 0.00306544 0)
(0.0970419 0.00324407 0)
(0.0980027 0.00154369 0)
(0.0979553 0.00161678 0)
(0.0979068 0.00169433 0)
(0.0978573 0.00177666 0)
(0.0978068 0.00186414 0)
(0.0977555 0.00195713 0)
(0.0977033 0.00205605 0)
(0.0976505 0.00216134 0)
(0.097597 0.00227349 0)
(0.0975432 0.00239301 0)
(0.0974891 0.00252046 0)
(0.0974351 0.00265646 0)
(0.0973814 0.00280165 0)
(0.0973284 0.00295674 0)
(0.0972765 0.00312249 0)
(0.0972261 0.00329972 0)
(0.0980741 0.00158849 0)
(0.098031 0.0016625 0)
(0.0979871 0.00174093 0)
(0.0979426 0.00182409 0)
(0.0978974 0.00191231 0)
(0.0978517 0.00200596 0)
(0.0978056 0.00210543 0)
(0.0977593 0.00221113 0)
(0.0977129 0.00232351 0)
(0.0976666 0.00244307 0)
(0.0976206 0.00257032 0)
(0.0975753 0.00270582 0)
(0.097531 0.00285018 0)
(0.097488 0.00300403 0)
(0.0974469 0.00316807 0)
(0.0974081 0.00334302 0)
(0.0981464 0.00162917 0)
(0.0981075 0.00170382 0)
(0.0980682 0.00178281 0)
(0.0980285 0.00186646 0)
(0.0979885 0.00195507 0)
(0.0979483 0.00204898 0)
(0.0979082 0.00214857 0)
(0.0978682 0.00225423 0)
(0.0978286 0.00236637 0)
(0.0977896 0.00248544 0)
(0.0977515 0.00261193 0)
(0.0977145 0.00274634 0)
(0.0976792 0.00288922 0)
(0.0976458 0.00304115 0)
(0.0976149 0.00320274 0)
(0.0975872 0.00337464 0)
(0.0982192 0.00166578 0)
(0.0981845 0.00174078 0)
(0.0981496 0.00182005 0)
(0.0981146 0.00190386 0)
(0.0980797 0.00199252 0)
(0.098045 0.00208634 0)
(0.0980106 0.00218566 0)
(0.0979768 0.00229085 0)
(0.0979438 0.0024023 0)
(0.0979118 0.00252041 0)
(0.0978812 0.00264562 0)
(0.0978522 0.00277839 0)
(0.0978254 0.00291922 0)
(0.0978011 0.00306862 0)
(0.0977799 0.00322711 0)
(0.0977625 0.00339528 0)
(0.0982922 0.00169839 0)
(0.0982616 0.00177348 0)
(0.0982311 0.00185274 0)
(0.0982007 0.00193643 0)
(0.0981707 0.00202481 0)
(0.0981412 0.00211819 0)
(0.0981125 0.00221688 0)
(0.0980846 0.00232122 0)
(0.0980579 0.00243156 0)
(0.0980326 0.00254827 0)
(0.0980091 0.00267175 0)
(0.0979878 0.0028024 0)
(0.097969 0.00294066 0)
(0.0979533 0.00308698 0)
(0.0979412 0.00324182 0)
(0.0979334 0.00340567 0)
(0.0983653 0.00172708 0)
(0.0983387 0.00180203 0)
(0.0983123 0.00188102 0)
(0.0982865 0.00196429 0)
(0.0982613 0.00205211 0)
(0.0982368 0.00214473 0)
(0.0982134 0.00224246 0)
(0.0981912 0.0023456 0)
(0.0981706 0.00245446 0)
(0.0981517 0.00256938 0)
(0.098135 0.00269071 0)
(0.0981208 0.0028188 0)
(0.0981097 0.00295405 0)
(0.098102 0.00309682 0)
(0.0980983 0.00324753 0)
(0.0980993 0.00340657 0)
(0.0984382 0.00175197 0)
(0.0984154 0.00182654 0)
(0.0983931 0.00190501 0)
(0.0983716 0.00198762 0)
(0.098351 0.00207459 0)
(0.0983314 0.00216618 0)
(0.0983131 0.00226264 0)
(0.0982964 0.00236426 0)
(0.0982814 0.0024713 0)
(0.0982686 0.00258408 0)
(0.0982583 0.0027029 0)
(0.0982509 0.00282806 0)
(0.0982468 0.0029599 0)
(0.0982465 0.00309874 0)
(0.0982507 0.00324491 0)
(0.0982599 0.00339873 0)
(0.0985106 0.00177317 0)
(0.0984915 0.00184714 0)
(0.0984733 0.00192488 0)
(0.0984559 0.00200658 0)
(0.0984396 0.00209246 0)
(0.0984247 0.00218275 0)
(0.0984113 0.00227767 0)
(0.0983997 0.00237748 0)
(0.0983902 0.00248242 0)
(0.0983831 0.00259275 0)
(0.0983788 0.00270874 0)
(0.0983776 0.00283065 0)
(0.0983801 0.00295875 0)
(0.0983867 0.00309332 0)
(0.0983981 0.00323462 0)
(0.0984147 0.00338291 0)
(0.0985824 0.0017908 0)
(0.098567 0.00186399 0)
(0.0985524 0.00194078 0)
(0.0985391 0.00202136 0)
(0.098527 0.00210593 0)
(0.0985165 0.00219468 0)
(0.0985077 0.00228782 0)
(0.098501 0.00238557 0)
(0.0984965 0.00248814 0)
(0.0984948 0.00259576 0)
(0.098496 0.00270865 0)
(0.0985007 0.00282704 0)
(0.0985093 0.00295114 0)
(0.0985222 0.00308117 0)
(0.0985401 0.00321735 0)
(0.0985636 0.00335986 0)
(0.0986534 0.00180501 0)
(0.0986414 0.00187723 0)
(0.0986305 0.00195289 0)
(0.0986209 0.00203216 0)
(0.0986128 0.00211521 0)
(0.0986065 0.00220222 0)
(0.0986021 0.00229336 0)
(0.0985999 0.00238884 0)
(0.0986002 0.00248882 0)
(0.0986035 0.0025935 0)
(0.0986099 0.00270307 0)
(0.09862 0.00281771 0)
(0.0986341 0.00293759 0)
(0.0986528 0.00306288 0)
(0.0986766 0.00319374 0)
(0.0987062 0.0033303 0)
(0.0987235 0.00181595 0)
(0.0987147 0.00188704 0)
(0.0987073 0.0019614 0)
(0.0987013 0.00203918 0)
(0.0986969 0.00212053 0)
(0.0986945 0.00220562 0)
(0.0986942 0.00229458 0)
(0.0986963 0.00238759 0)
(0.0987011 0.0024848 0)
(0.0987089 0.00258636 0)
(0.0987201 0.00269242 0)
(0.0987351 0.00280313 0)
(0.0987544 0.00291863 0)
(0.0987783 0.00303902 0)
(0.0988075 0.00316443 0)
(0.0988424 0.00329492 0)
(0.0987924 0.00182376 0)
(0.0987868 0.00189357 0)
(0.0987825 0.00196648 0)
(0.0987799 0.00204263 0)
(0.0987792 0.00212213 0)
(0.0987804 0.00220513 0)
(0.0987839 0.00229176 0)
(0.09879 0.00238215 0)
(0.0987989 0.00247642 0)
(0.098811 0.00257471 0)
(0.0988266 0.00267712 0)
(0.0988461 0.00278378 0)
(0.0988699 0.00289476 0)
(0.0988986 0.00301016 0)
(0.0989325 0.00313002 0)
(0.0989723 0.00325439 0)
(0.0988601 0.00182859 0)
(0.0988574 0.001897 0)
(0.0988562 0.00196834 0)
(0.0988568 0.00204271 0)
(0.0988593 0.00212024 0)
(0.098864 0.00220102 0)
(0.0988711 0.00228518 0)
(0.0988809 0.00237282 0)
(0.0988936 0.00246403 0)
(0.0989095 0.00255893 0)
(0.0989291 0.00265759 0)
(0.0989527 0.00276008 0)
(0.0989807 0.00286648 0)
(0.0990135 0.00297681 0)
(0.0990517 0.00309111 0)
(0.0990957 0.00320935 0)
(0.0989263 0.00183062 0)
(0.0989264 0.00189751 0)
(0.0989282 0.00196716 0)
(0.0989318 0.00203965 0)
(0.0989374 0.00211508 0)
(0.0989453 0.00219354 0)
(0.0989556 0.00227512 0)
(0.0989688 0.0023599 0)
(0.098985 0.00244797 0)
(0.0990045 0.00253938 0)
(0.0990277 0.00263421 0)
(0.0990549 0.00273249 0)
(0.0990866 0.00283425 0)
(0.0991232 0.00293951 0)
(0.099165 0.00304823 0)
(0.0992127 0.00316039 0)
(0.0989911 0.00182999 0)
(0.0989938 0.00189528 0)
(0.0989983 0.00196313 0)
(0.0990047 0.00203364 0)
(0.0990132 0.00210689 0)
(0.099024 0.00218293 0)
(0.0990374 0.00226185 0)
(0.0990537 0.0023437 0)
(0.099073 0.00242855 0)
(0.0990957 0.00251643 0)
(0.0991222 0.00260738 0)
(0.0991527 0.00270141 0)
(0.0991877 0.00279853 0)
(0.0992275 0.00289872 0)
(0.0992726 0.00300192 0)
(0.0993234 0.00310807 0)
(0.0990544 0.00182687 0)
(0.0990595 0.00189047 0)
(0.0990665 0.00195646 0)
(0.0990755 0.00202491 0)
(0.0990866 0.00209589 0)
(0.0991002 0.00216945 0)
(0.0991164 0.00224564 0)
(0.0991354 0.00232451 0)
(0.0991577 0.00240609 0)
(0.0991833 0.0024904 0)
(0.0992127 0.00257746 0)
(0.0992461 0.00266725 0)
(0.099284 0.00275975 0)
(0.0993266 0.00285491 0)
(0.0993744 0.00295267 0)
(0.0994279 0.00305291 0)
(0.0991159 0.00182143 0)
(0.0991234 0.00188326 0)
(0.0991327 0.00194731 0)
(0.0991441 0.00201365 0)
(0.0991577 0.00208231 0)
(0.0991737 0.00215333 0)
(0.0991925 0.00222676 0)
(0.0992141 0.00230261 0)
(0.0992389 0.0023809 0)
(0.0992671 0.00246163 0)
(0.0992991 0.00254479 0)
(0.0993351 0.00263036 0)
(0.0993754 0.00271829 0)
(0.0994205 0.00280851 0)
(0.0994707 0.00290091 0)
(0.0995263 0.00299539 0)
(0.0991758 0.00181381 0)
(0.0991854 0.00187382 0)
(0.0991969 0.00193589 0)
(0.0992104 0.00200006 0)
(0.0992263 0.00206636 0)
(0.0992446 0.00213482 0)
(0.0992656 0.00220545 0)
(0.0992896 0.00227826 0)
(0.0993167 0.00235326 0)
(0.0993472 0.00243042 0)
(0.0993814 0.00250973 0)
(0.0994196 0.00259112 0)
(0.0994622 0.00267454 0)
(0.0995093 0.0027599 0)
(0.0995614 0.00284709 0)
(0.0996189 0.00293595 0)
(0.099606 3.78641e-05 0)
(0.0995912 4.00335e-05 0)
(0.0995758 4.23241e-05 0)
(0.0995599 4.47425e-05 0)
(0.0995433 4.72955e-05 0)
(0.0995262 4.99904e-05 0)
(0.0995085 5.28347e-05 0)
(0.0994902 5.58364e-05 0)
(0.0994712 5.9004e-05 0)
(0.0994515 6.23461e-05 0)
(0.0994311 6.58719e-05 0)
(0.09941 6.95912e-05 0)
(0.0993882 7.35142e-05 0)
(0.0993656 7.76514e-05 0)
(0.0993422 8.2014e-05 0)
(0.099318 8.66137e-05 0)
(0.0992929 9.14629e-05 0)
(0.099267 9.65743e-05 0)
(0.0992402 0.000101962 0)
(0.0992125 0.000107639 0)
(0.0991838 0.00011362 0)
(0.0991541 0.000119922 0)
(0.0991235 0.00012656 0)
(0.0990918 0.000133551 0)
(0.099059 0.000140914 0)
(0.0990251 0.000148665 0)
(0.0989901 0.000156826 0)
(0.098954 0.000165415 0)
(0.0989166 0.000174455 0)
(0.098878 0.000183967 0)
(0.0988381 0.000193973 0)
(0.098797 0.0002045 0)
(0.0987545 0.00021557 0)
(0.0987106 0.000227211 0)
(0.0986653 0.000239449 0)
(0.0986186 0.000252314 0)
(0.0985704 0.000265834 0)
(0.0985206 0.00028004 0)
(0.0984693 0.000294964 0)
(0.0984164 0.00031064 0)
(0.0983619 0.000327102 0)
(0.0983057 0.000344386 0)
(0.0982477 0.00036253 0)
(0.098188 0.000381571 0)
(0.0981265 0.000401552 0)
(0.0980631 0.000422512 0)
(0.0979978 0.000444496 0)
(0.0979307 0.000467548 0)
(0.0978615 0.000491715 0)
(0.0977903 0.000517045 0)
(0.0977171 0.000543588 0)
(0.0976418 0.000571395 0)
(0.0975643 0.000600519 0)
(0.0974846 0.000631016 0)
(0.0974028 0.000662941 0)
(0.0996068 4.30789e-05 0)
(0.0995921 4.55447e-05 0)
(0.0995767 4.81481e-05 0)
(0.0995609 5.08964e-05 0)
(0.0995444 5.37975e-05 0)
(0.0995274 5.68595e-05 0)
(0.0995098 6.00909e-05 0)
(0.0994915 6.35009e-05 0)
(0.0994726 6.70987e-05 0)
(0.0994531 7.08944e-05 0)
(0.0994328 7.48984e-05 0)
(0.0994118 7.91215e-05 0)
(0.0993901 8.35753e-05 0)
(0.0993677 8.82717e-05 0)
(0.0993444 9.32234e-05 0)
(0.0993204 9.84435e-05 0)
(0.0992955 0.000103946 0)
(0.0992698 0.000109745 0)
(0.0992432 0.000115856 0)
(0.0992157 0.000122295 0)
(0.0991873 0.000129078 0)
(0.0991579 0.000136223 0)
(0.0991275 0.000143747 0)
(0.0990961 0.000151671 0)
(0.0990636 0.000160014 0)
(0.0990301 0.000168796 0)
(0.0989955 0.00017804 0)
(0.0989597 0.000187767 0)
(0.0989228 0.000198002 0)
(0.0988846 0.000208769 0)
(0.0988452 0.000220094 0)
(0.0988046 0.000232004 0)
(0.0987627 0.000244526 0)
(0.0987194 0.000257691 0)
(0.0986747 0.000271527 0)
(0.0986287 0.000286067 0)
(0.0985812 0.000301344 0)
(0.0985322 0.000317391 0)
(0.0984817 0.000334245 0)
(0.0984297 0.000351942 0)
(0.0983761 0.000370521 0)
(0.0983209 0.00039002 0)
(0.098264 0.000410482 0)
(0.0982054 0.00043195 0)
(0.0981451 0.000454468 0)
(0.098083 0.000478081 0)
(0.0980192 0.000502838 0)
(0.0979535 0.000528787 0)
(0.0978859 0.000555981 0)
(0.0978164 0.00058447 0)
(0.0977449 0.000614311 0)
(0.0976715 0.000645559 0)
(0.097596 0.000678271 0)
(0.0975185 0.000712509 0)
(0.0974389 0.000748333 0)
(0.0996078 4.82709e-05 0)
(0.099593 5.10309e-05 0)
(0.0995778 5.39446e-05 0)
(0.099562 5.70202e-05 0)
(0.0995457 6.02664e-05 0)
(0.0995287 6.36923e-05 0)
(0.0995112 6.73074e-05 0)
(0.0994931 7.11217e-05 0)
(0.0994743 7.51457e-05 0)
(0.0994548 7.93905e-05 0)
(0.0994347 8.38676e-05 0)
(0.0994139 8.85891e-05 0)
(0.0993923 9.35677e-05 0)
(0.09937 9.88168e-05 0)
(0.099347 0.00010435 0)
(0.0993231 0.000110183 0)
(0.0992985 0.00011633 0)
(0.099273 0.000122807 0)
(0.0992466 0.000129632 0)
(0.0992194 0.000136821 0)
(0.0991912 0.000144394 0)
(0.0991621 0.000152369 0)
(0.099132 0.000160766 0)
(0.099101 0.000169606 0)
(0.0990689 0.000178912 0)
(0.0990357 0.000188706 0)
(0.0990015 0.000199012 0)
(0.0989662 0.000209855 0)
(0.0989297 0.000221261 0)
(0.098892 0.000233257 0)
(0.0988532 0.000245872 0)
(0.0988131 0.000259134 0)
(0.0987718 0.000273074 0)
(0.0987292 0.000287725 0)
(0.0986852 0.000303119 0)
(0.0986399 0.000319292 0)
(0.0985933 0.000336278 0)
(0.0985451 0.000354115 0)
(0.0984956 0.000372842 0)
(0.0984445 0.000392499 0)
(0.098392 0.000413128 0)
(0.0983379 0.000434771 0)
(0.0982822 0.000457475 0)
(0.0982249 0.000481284 0)
(0.0981659 0.000506247 0)
(0.0981053 0.000532415 0)
(0.098043 0.000559837 0)
(0.0979789 0.000588568 0)
(0.097913 0.000618661 0)
(0.0978454 0.000650175 0)
(0.0977759 0.000683166 0)
(0.0977046 0.000717696 0)
(0.0976313 0.000753825 0)
(0.0975562 0.000791619 0)
(0.0974791 0.000831141 0)
(0.0996088 5.34374e-05 0)
(0.0995941 5.64891e-05 0)
(0.099579 5.97104e-05 0)
(0.0995633 6.31104e-05 0)