/*--------------------------------*- C++ -*----------------------------------*\
| =========                 |                                                 |
| \\      /  F ield         | OpenFOAM: The Open Source CFD Toolbox           |
|  \\    /   O peration     | Version:  2412                                  |
|   \\  /    A nd           | Website:  www.openfoam.com                      |
|    \\/     M anipulation  |                                                 |
\*---------------------------------------------------------------------------*/
FoamFile
{
    version     2.0;
    format      ascii;
    arch        "LSB;label=32;scalar=64";
    class       surfaceScalarField;
    location    "27";
    object      phi;
}
// * * * * * * * * * * * * * * * * * * * * * * * * * * * * * * * * * * * * * //

dimensions      [0 3 -1 0 0 0 0];

oriented        oriented;

internalField   nonuniform List<scalar> 
10422
(
0.00582547
-0.00012603
-0.00582023
0.000120791
0.00583009
-0.00011192
0.000107302
0.00583408
-9.75898e-05
9.35982e-05
0.00583744
-8.30602e-05
7.97055e-05
0.00584015
-6.83628e-05
6.56546e-05
0.0058422
-5.35367e-05
5.14814e-05
0.0058436
-3.8621e-05
3.7222e-05
0.00584434
-2.36538e-05
2.29123e-05
0.00584443
-8.67306e-06
8.58761e-06
0.00584386
6.28364e-06
-5.71687e-06
0.00584265
2.11794e-05
-1.99666e-05
0.0058408
3.59782e-05
-3.41276e-05
0.00583832
5.0645e-05
-4.81671e-05
0.00583523
6.51458e-05
-6.20532e-05
0.00583153
7.94482e-05
-7.57552e-05
0.00582726
9.3521e-05
-8.92439e-05
0.00582241
0.000107335
-0.000102491
0.00581702
0.000120862
-0.000115472
0.00581111
0.000134076
-0.00012816
0.00580469
0.000146954
-0.000140534
0.00579778
0.000159472
-0.000152572
0.00579043
0.000171612
-0.000164255
0.00578264
0.000183356
-0.000175568
0.00019469
-0.000186496
0.00583957
-0.000131541
-0.00583406
0.00584442
-0.000116778
0.00584862
-0.000101783
0.00585214
-8.65788e-05
0.00585497
-7.11973e-05
0.00585711
-5.56803e-05
0.00585856
-4.007e-05
0.00585932
-2.44074e-05
0.00585938
-8.73307e-06
0.00585875
6.91293e-06
0.00585744
2.24912e-05
0.00585545
3.79632e-05
0.0058528
5.32916e-05
0.00584951
6.84405e-05
0.00584558
8.33752e-05
0.00584104
9.80628e-05
0.0058359
0.000112472
0.00583019
0.000126574
0.00582393
0.00014034
0.00581714
0.000153745
0.00580984
0.000166767
0.00580207
0.000179384
0.00579385
0.000191578
0.000203334
0.00585431
-0.000137346
-0.0058485
0.00585942
-0.00012189
0.00586383
-0.000106192
0.00586752
-9.0272e-05
0.00587049
-7.41651e-05
0.00587272
-5.79162e-05
0.00587423
-4.15704e-05
0.00587499
-2.51717e-05
0.00587502
-8.7635e-06
0.00587432
7.61137e-06
0.0058729
2.39108e-05
0.00587077
4.00938e-05
0.00586794
5.61205e-05
0.00586443
7.19528e-05
0.00586025
8.75538e-05
0.00585543
0.000102888
0.00584997
0.000117924
0.00584392
0.000132629
0.00583728
0.000146974
0.0058301
0.000160933
0.00582238
0.000174482
0.00581417
0.000187597
0.00580549
0.00020026
0.000212456
0.00586973
-0.000143463
-0.00586362
0.00587512
-0.000127274
0.00587975
-0.000110829
0.00588363
-9.41498e-05
0.00588674
-7.72736e-05
0.00588907
-6.02486e-05
0.00589063
-4.31233e-05
0.0058914
-2.59448e-05
0.0058914
-8.75959e-06
0.00589062
8.38645e-06
0.00588908
2.54484e-05
0.00588679
4.23825e-05
0.00588377
5.91465e-05
0.00588002
7.56996e-05
0.00587557
9.20027e-05
0.00587044
0.000108019
0.00586465
0.000123713
0.00585823
0.000139052
0.0058512
0.000154005
0.00584359
0.000168545
0.00583543
0.000182644
0.00582674
0.00019628
0.00581757
0.000209433
0.000222086
0.00588589
-0.000149914
-0.00587944
0.00589156
-0.000132947
0.00589644
-0.000115708
0.00590051
-9.82226e-05
0.00590377
-8.05297e-05
0.0059062
-6.26811e-05
0.00590781
-4.4729e-05
0.00590859
-2.6724e-05
0.00590854
-8.71577e-06
0.00590768
9.24661e-06
0.00590602
2.71152e-05
0.00590356
4.48432e-05
0.00590032
6.23858e-05
0.00589632
7.96994e-05
0.00589158
9.67428e-05
0.00588612
0.000113477
0.00587997
0.000129863
0.00587315
0.000145869
0.0058657
0.00016146
0.00585763
0.000176607
0.00584899
0.000191284
0.00583981
0.000205464
0.00583012
0.000219128
0.000232257
0.00590282
-0.000156719
-0.00589602
0.0059088
-0.000138924
0.00591394
-0.000120842
0.00591821
-0.000102501
0.00592162
-8.39401e-05
0.00592416
-6.52171e-05
0.00592582
-4.63876e-05
0.0059266
-2.7506e-05
0.00592651
-8.62545e-06
0.00592556
1.02015e-05
0.00592375
2.89236e-05
0.0059211
4.74912e-05
0.00591763
6.58562e-05
0.00591336
8.39726e-05
0.0059083
0.000101796
0.00590249
0.000119286
0.00589595
0.000136402
0.00588872
0.000153107
0.00588081
0.000169368
0.00587226
0.000185153
0.00586311
0.000200433
0.00585339
0.000215182
0.00584314
0.000229378
0.000243004
0.00592058
-0.000163901
-0.0059134
0.00592688
-0.000145225
0.00593229
-0.000126247
0.00593678
-0.000106994
0.00594035
-8.75117e-05
0.00594299
-6.78595e-05
0.00594471
-4.80984e-05
0.00594549
-2.82865e-05
0.00594534
-8.48093e-06
0.00594428
1.12621e-05
0.00594232
3.08879e-05
0.00593946
5.03434e-05
0.00593574
6.95776e-05
0.00593117
8.85414e-05
0.00592578
0.000107188
0.00591959
0.000125474
0.00591264
0.000143357
0.00590495
0.000160798
0.00589655
0.000177762
0.00588749
0.000194215
0.0058778
0.000210126
0.00586751
0.00022547
0.00585667
0.000240221
0.000254363
0.00593922
-0.000171482
-0.00593163
0.00594586
-0.00015187
0.00595155
-0.000131937
0.00595627
-0.000111715
0.00596001
-9.1251e-05
0.00596276
-7.06109e-05
0.00596452
-4.98598e-05
0.0059653
-2.90601e-05
0.00596509
-8.27314e-06
0.00596391
1.2441e-05
0.00596177
3.30238e-05
0.0059587
5.34188e-05
0.0059547
7.35717e-05
0.00594981
9.34303e-05
0.00594406
0.000112945
0.00593746
0.00013207
0.00593006
0.00015076
0.00592188
0.000168975
0.00591297
0.000186676
0.00590335
0.000203829
0.00589308
0.000220401
0.00588218
0.000236365
0.00587071
0.000251696
0.000266374
0.00595878
-0.00017949
-0.00595077
0.00596579
-0.000158878
0.00597178
-0.000137928
0.00597674
-0.000116673
0.00598065
-9.51644e-05
0.00598352
-7.34731e-05
0.00598532
-5.16693e-05
0.00598608
-2.98202e-05
0.0059858
-7.99143e-06
0.00598449
1.37525e-05
0.00598217
3.53493e-05
0.00597885
5.67387e-05
0.00597456
7.78628e-05
0.00596932
9.86664e-05
0.00596317
0.000119097
0.00595613
0.000139106
0.00594825
0.000158645
0.00593955
0.000177672
0.00593008
0.000196148
0.00591987
0.000214034
0.00590898
0.000231298
0.00589743
0.000247909
0.00588528
0.000263844
0.00027908
0.00597934
-0.000187951
-0.00597088
0.00598674
-0.000166272
0.00599304
-0.000144236
0.00599825
-0.00012188
0.00600234
-9.9258e-05
0.00600532
-7.64472e-05
0.00600717
-5.35232e-05
0.00600791
-3.05585e-05
0.00600754
-7.62332e-06
0.00600608
1.52133e-05
0.00600355
3.78847e-05
0.00599996
6.03267e-05
0.00599534
8.2478e-05
0.00598973
0.00010428
0.00598315
0.000125677
0.00597564
0.000146616
0.00596724
0.000167049
0.00595798
0.000186931
0.00594791
0.000206218
0.00593707
0.000224873
0.00592551
0.00024286
0.00591327
0.000260148
0.0059004
0.000276711
0.000292527
0.00600096
-0.000196894
-0.00599202
0.00600876
-0.000174074
0.0060154
-0.000150879
0.00602087
-0.000127347
0.00602515
-0.000103537
0.00602824
-7.9533e-05
0.00603013
-5.54163e-05
0.00603084
-3.12648e-05
0.00603037
-7.15398e-06
0.00602874
1.68423e-05
0.00602597
4.06531e-05
0.00602209
6.42099e-05
0.00601712
8.74475e-05
0.00601109
0.000110304
0.00600405
0.00013272
0.00599602
0.000154641
0.00598706
0.000176014
0.0059772
0.000196793
0.00596648
0.000216932
0.00595496
0.000236392
0.00594269
0.000255134
0.00592971
0.000273128
0.00591607
0.000290346
0.000306764
0.00602371
-0.000206349
-0.00601425
0.00603194
-0.000182308
0.00603893
-0.000157872
0.00604467
-0.000133084
0.00604914
-0.000108006
0.00605234
-8.27289e-05
0.00605426
-5.73412e-05
0.00605492
-3.19265e-05
0.00605433
-6.5658e-06
0.00605251
1.86619e-05
0.00604949
4.3681e-05
0.00604528
6.84186e-05
0.00603992
9.28055e-05
0.00603345
0.000116776
0.0060259
0.000140267
0.00601732
0.000163222
0.00600775
0.000185585
0.00599724
0.000207306
0.00598583
0.000228339
0.00597358
0.000248641
0.00596054
0.000268174
0.00594677
0.000286904
0.00593231
0.000304802
0.000321846
0.00604766
-0.000216348
-0.00603766
0.00605635
-0.000190998
0.00606371
-0.000165234
0.00606973
-0.0001391
0.00607439
-0.000112667
0.00607769
-8.60311e-05
0.00607964
-5.9288e-05
0.00608024
-3.25279e-05
0.00607951
-5.8377e-06
0.00607747
2.06982e-05
0.00607415
4.6999e-05
0.00606959
7.29876e-05
0.0060638
9.85903e-05
0.00605684
0.000123738
0.00604874
0.000148364
0.00603956
0.000172407
0.00602933
0.000195811
0.00601812
0.000218522
0.00600596
0.000240491
0.00599293
0.000261675
0.00597907
0.000282034
0.00596444
0.000301531
0.00594911
0.000320137
0.000337829
0.0060729
-0.000226924
-0.00606232
0.00608207
-0.000200168
0.00608981
-0.000172979
0.00609612
-0.000145405
0.00610097
-0.000117521
0.00610437
-8.94327e-05
0.00610633
-6.12431e-05
0.00610685
-3.30493e-05
0.00610596
-4.94417e-06
0.00610367
2.29817e-05
0.00610003
5.06427e-05
0.00609506
7.79567e-05
0.0060888
0.000104846
0.0060813
0.000131237
0.00607261
0.00015706
0.00606276
0.00018225
0.00605183
0.000206748
0.00603985
0.000230498
0.00602689
0.00025345
0.00601301
0.000275556
0.00599827
0.000296775
0.00598273
0.000317072
0.00596645
0.000336413
0.000354776
0.00609951
-0.000238109
-0.00608833
0.00610919
-0.000209841
0.00611733
-0.000181122
0.00612393
-0.000152003
0.00612897
-0.000122565
0.00613246
-9.29231e-05
0.00613441
-6.31886e-05
0.00613482
-3.34658e-05
0.00613373
-3.85432e-06
0.00613117
2.55492e-05
0.00612716
5.46537e-05
0.00612174
8.33722e-05
0.00611496
0.000111623
0.00610687
0.000139327
0.00609752
0.000166412
0.00608696
0.00019281
0.00607525
0.000218458
0.00606245
0.000243299
0.00604862
0.000267278
0.00603383
0.000290349
0.00601814
0.000312467
0.00600161
0.000333594
0.00598433
0.000353699
0.000372756
0.0061276
-0.000249938
-0.00611577
0.0061378
-0.000220041
0.00614635
-0.000189675
0.00615325
-0.000158896
0.00615847
-0.000127792
0.00616204
-9.6486e-05
0.00616395
-6.51001e-05
0.00616423
-3.37459e-05
0.0061629
-2.52993e-06
0.00616001
2.84446e-05
0.00615558
5.90813e-05
0.00614966
8.92879e-05
0.00614231
0.000118978
0.00613357
0.00014807
0.00612349
0.000176486
0.00611215
0.000204154
0.0060996
0.000231011
0.0060859
0.000256994
0.00607113
0.00028205
0.00605535
0.000306127
0.00603864
0.000329181
0.00602106
0.000351172
0.00600269
0.000372067
0.000391841
0.00615726
-0.000262442
-0.00614476
0.006168
-0.000230786
0.00617698
-0.000198646
0.00618416
-0.000166081
0.00618956
-0.000133187
0.00619317
-0.000100098
0.00619501
-6.69455e-05
0.00619512
-3.38496e-05
0.00619351
-9.23879e-07
0.00619023
3.17213e-05
0.00618533
6.39841e-05
0.00617885
9.57671e-05
0.00617085
0.000126979
0.00616138
0.000157535
0.00615052
0.000187354
0.00613831
0.000216359
0.00612484
0.000244483
0.00611017
0.000271664
0.00609438
0.000297844
0.00607753
0.000322971
0.00605971
0.000346999
0.006041
0.000369885
0.00602147
0.000391598
0.00041211
0.0061886
-0.00617539
0.0061999
0.00620929
0.00621676
0.0062223
0.00622593
0.00622767
0.00622754
0.0062256
0.00622187
0.00621642
0.00620931
0.00620058
0.00619031
0.000167806
0.00617856
0.000199101
0.00616541
0.00022951
0.00615093
0.000258963
0.0061352
0.000287397
0.00611829
0.000314751
0.00610029
0.00034097
0.00608128
0.000366008
0.00606135
0.000389821
0.00604057
0.000412376
0.000433645
0.00622028
0.00620756
0.00619336
0.00617778
0.00616088
0.00614277
0.00612352
0.00610322
0.00608197
0.00605985
0.00546651
-0.00020872
-0.00545127
0.000193486
0.00549495
-0.000211782
0.000183341
0.00553632
-0.000214209
0.000172833
0.0055902
-0.000215861
0.000161981
0.005656
-0.000216602
0.000150807
0.00573297
-0.000216306
0.000139334
-0.000214842
0.00012758
0.00547685
-0.000224426
-0.00546115
0.0055058
-0.000240727
0.00554771
-0.000256121
0.00560216
-0.000270308
0.00566855
-0.000282996
0.00574615
-0.000293905
-0.000302749
0.00548762
-0.000240633
-0.00547141
0.0055171
-0.000270205
0.00555957
-0.0002986
0.00561462
-0.000325355
0.00568165
-0.000350021
0.00575991
-0.000372166
-0.000391344
0.00549882
-0.000257371
-0.00548208
0.00552887
-0.000300249
0.00557194
-0.000341679
0.00562763
-0.000381037
0.00569532
-0.000417717
0.00577429
-0.000451131
-0.000480672
0.00551049
-0.000274676
-0.00549318
0.00554113
-0.000330895
0.00558485
-0.000385397
0.00564121
-0.000437395
0.00570962
-0.000486126
0.00578933
-0.000530845
-0.000570781
0.00552263
-0.000292584
-0.00550472
0.00555392
-0.000362183
0.00559832
-0.000429795
0.0056554
-0.000494473
0.00572456
-0.000555294
0.00580508
-0.000611358
-0.000661723
0.00553528
-0.000311138
-0.00551673
0.00556726
-0.000394157
0.00561238
-0.000474919
0.00567023
-0.000552319
0.0057402
-0.000625273
0.00582157
-0.000692722
-0.000753554
0.00554847
-0.00033038
-0.00552922
0.00558117
-0.000426861
0.00562707
-0.000520818
0.00568573
-0.000610983
0.00575658
-0.000696115
0.00583885
-0.000774997
-0.000846336
0.00556221
-0.00035036
-0.00554223
0.0055957
-0.000460347
0.00564242
-0.000567544
0.00570196
-0.000670523
0.00577373
-0.000767882
0.00585698
-0.000858244
-0.000940133
0.00557655
-0.00037113
-0.00555578
0.00561087
-0.000494669
0.00565848
-0.000615155
0.00571896
-0.000730997
0.00579171
-0.000840636
0.005876
-0.00094253
-0.00103502
0.00559151
-0.000392743
-0.0055699
0.00562673
-0.000529885
0.00567529
-0.000663711
0.00573676
-0.000792471
0.00581057
-0.000914446
0.00589597
-0.00102793
-0.00113106
0.00560714
-0.000415263
-0.00558462
0.00564331
-0.00056606
0.00569288
-0.000713281
0.00575543
-0.000855016
0.00583037
-0.000989385
0.00591696
-0.00111452
-0.00122836
0.00562347
-0.000438756
-0.00559997
0.00566067
-0.000603263
0.00571132
-0.000763936
0.00577502
-0.000918708
0.00585117
-0.00106554
0.00593903
-0.00120238
-0.00132698
0.00564054
-0.000463294
-0.005616
0.00567884
-0.000641568
0.00573066
-0.000815756
0.00579558
-0.000983629
0.00587303
-0.00114298
0.00596226
-0.00129162
-0.00142704
0.0056584
-0.000488956
-0.00563274
0.00569789
-0.000681059
0.00575096
-0.000868825
0.0058172
-0.00104987
0.00589604
-0.00122182
0.00598674
-0.00138231
-0.00152863
0.00567711
-0.000515828
-0.00565023
0.00571787
-0.000721824
0.00577228
-0.000923237
0.00583994
-0.00111752
0.00592027
-0.00130216
0.00601254
-0.00147458
-0.00163187
0.00569671
-0.000544004
-0.00566853
0.00573884
-0.00076396
0.0057947
-0.000979093
0.00586387
-0.0011867
0.00594581
-0.00138409
0.00603976
-0.00156854
-0.00173686
0.00571726
-0.000573588
-0.00568768
0.00576088
-0.000807575
0.00581829
-0.0010365
0.0058891
-0.00125751
0.00597275
-0.00146775
0.00606851
-0.0016643
-0.00184373
0.00573884
-0.000604691
-0.00570773
0.00578405
-0.000852784
0.00584313
0.0059157
0.00600121
0.0060989
0.0057615
-0.00572876
0.00563171
-0.00018183
-0.0057028
0.000252924
0.00557118
-0.000185229
0.000245755
0.00552207
-0.000189015
0.000238132
0.00548505
-0.000193048
0.000230061
0.00546069
-0.000197182
0.000221548
0.00544935
-0.00020127
0.000212606
-0.000205166
0.000203246
0.00563944
-0.000110966
-0.0057103
0.00557918
-0.000124974
0.00553037
-0.000140207
0.0054937
-0.000156378
0.00546971
-0.000173191
0.00545879
-0.000190344
-0.000207527
0.00564741
-4.0354e-05
-0.00571802
0.00558745
-6.50099e-05
0.00553897
-9.17291e-05
0.00550266
-0.000120075
0.00547907
-0.000149602
0.00546858
-0.000179852
-0.000210355
0.00565563
2.99774e-05
-0.00572596
0.00559598
-5.3583e-06
0.00554786
-4.36071e-05
0.00551195
-8.41642e-05
0.00548879
-0.000126441
0.00547876
-0.000169823
-0.00021368
0.00566409
0.00010001
-0.00573413
0.0056048
5.39357e-05
0.00555705
4.14072e-06
0.00552156
-4.86751e-05
0.00549886
-0.000103738
0.00548932
-0.000160289
-0.000217536
0.00567281
0.000169714
-0.00574252
0.00561388
0.000112867
0.00556656
5.14624e-05
0.00553152
-1.36326e-05
0.00550931
-8.15258e-05
0.0055003
-0.000151283
-0.000221958
0.00568179
0.00023906
-0.00575114
0.00562326
0.000171398
0.00557638
9.83434e-05
0.00554183
2.09185e-05
0.00552014
-5.98394e-05
0.0055117
-0.000142844
-0.000226986
0.00569103
0.000308019
-0.00575999
0.00563293
0.000229495
0.00558653
0.000144746
0.0055525
5.49444e-05
0.00553138
-3.87172e-05
0.00552355
-0.000135011
-0.000232662
0.00570053
0.000376556
-0.00576907
0.00564291
0.000287121
0.00559702
0.00019063
0.00556356
8.84061e-05
0.00554304
-1.81988e-05
0.00553586
-0.000127831
-0.000239032
0.00571031
0.000444631
-0.00577838
0.00565319
0.000344237
0.00560787
0.000235953
0.00557502
0.000121256
0.00555514
1.67556e-06
0.00554867
-0.000121354
-0.000246145
0.00572036
0.000512204
-0.00578793
0.00566379
0.000400799
0.00561907
0.000280673
0.00558687
0.000153461
0.00556773
2.08159e-05
0.00556199
-0.000115616
-0.000254055
0.00573069
0.000579227
-0.00579771
0.00567473
0.000456758
0.00563066
0.000324735
0.00559917
0.000184954
0.00558078
3.92074e-05
0.00557585
-0.000110689
-0.00026282
0.0057413
0.000645647
-0.00580772
0.005686
0.000512058
0.00564265
0.000368084
0.00561192
0.000215679
0.00559435
5.67849e-05
0.00559029
-0.000106631
-0.000272506
0.00575219
0.000711406
-0.00581795
0.00569761
0.000566641
0.00565504
0.000410657
0.00562514
0.000245574
0.00560845
7.34798e-05
0.00560532
-0.00010351
-0.000283181
0.00576337
0.000776438
-0.0058284
0.00570957
0.000620439
0.00566784
0.000452387
0.00563885
0.000274568
0.00562311
8.92198e-05
0.005621
-0.000101398
-0.000294923
0.00577483
0.00084067
-0.00583907
0.00572189
0.000673377
0.00568108
0.000493197
0.00565307
0.000302585
0.00563836
0.000103926
0.00563734
-0.000100378
-0.000307814
0.00578658
0.000904019
-0.00584993
0.00573458
0.000725374
0.00569477
0.000533004
0.00566782
0.000329537
0.00565424
0.000117509
0.0056544
-0.000100538
-0.000321946
0.0057986
0.000966394
-0.00586097
0.00574763
0.000776335
0.00570893
0.000571713
0.00568313
0.000355331
0.00567077
0.000129874
0.00567221
-0.000101977
-0.000337418
0.00581088
0.00576106
0.00572355
0.00569902
0.00568798
0.00569081
-0.000104804
-0.000354343
0.00571025
0.00537694
-0.000276437
0.000270535
0.0053831
-0.000280742
0.00027458
0.00538953
-0.000284982
0.000278554
0.00539623
-0.000289139
0.000282441
0.0054032
-0.000293198
0.000286226
0.00541045
-0.000297144
0.000289894
0.00541798
-0.00030096
0.00029343
0.00542579
-0.00030463
0.000296818
0.00543389
-0.000308136
0.00030004
0.00544227
-0.000311459
0.00030308
0.00545093
-0.000314581
0.000305919
0.00545987
-0.000317481
0.00030854
0.00546909
-0.000320139
0.000310922
0.00547858
-0.000322535
0.000313046
0.00548833
-0.000324646
0.000314893
0.00549834
-0.000326452
0.000316442
0.0055086
-0.00032793
0.000317674
0.00551909
-0.000329059
0.000318567
0.0055298
-0.000329815
0.000319101
0.00554073
-0.000330179
0.000319257
0.00555184
-0.000330127
0.000319015
0.00556312
-0.000329639
0.000318355
0.00557456
-0.000328695
0.000317259
0.00558612
-0.000327275
0.00031571
0.0055978
-0.000325361
0.00031369
0.00560955
-0.000322935
0.000311184
0.00562135
-0.000319981
0.000308177
0.00563318
-0.000316485
0.000304658
0.005645
-0.000312436
0.000300614
0.00565678
-0.000307821
0.000296038
0.00566849
-0.000302631
0.00029092
0.0056801
-0.000296859
0.000285254
0.00569156
-0.000290492
0.000279034
-0.000283496
0.000272247
0.00537256
-0.000282398
0.0053788
-0.000286976
0.00538531
-0.000291495
0.00539211
-0.000295937
0.0053992
-0.000300286
0.00540658
-0.000304526
0.00541426
-0.00030864
0.00542224
-0.00031261
0.00543052
-0.000316418
0.0054391
-0.000320044
0.00544799
-0.000323467
0.00545718
-0.000326668
0.00546666
-0.000329623
0.00547644
-0.000332311
0.0054865
-0.000334709
0.00549684
-0.000336793
0.00550745
-0.000338539
0.00551831
-0.000339925
0.00552943
-0.000340926
0.00554076
-0.000341518
0.00555232
-0.000341678
0.00556406
-0.000341382
0.00557597
-0.000340609
0.00558803
-0.000339337
0.00560022
-0.000337546
0.0056125
-0.000335215
0.00562485
-0.000332328
0.00563723
-0.000328868
0.00564962
-0.000324822
0.00566197
-0.000320177
0.00567426
-0.000314922
0.00568645
-0.000309045
0.00569848
-0.000302527
-0.000295311
0.00536792
-0.000288411
0.00537422
-0.000293276
0.00538082
-0.000298088
0.00538771
-0.00030283
0.00539491
-0.000307485
0.00540242
-0.000312036
0.00541025
-0.000316466
0.00541839
-0.000320755
0.00542686
-0.000324884
0.00543565
-0.000328833
0.00544476
-0.00033258
0.00545419
-0.000336102
0.00546395
-0.000339377
0.00547402
-0.00034238
0.00548439
-0.000345087
0.00549508
-0.000347473
0.00550605
-0.000349513
0.0055173
-0.000351179
0.00552882
-0.000352448
0.0055406
-0.000353292
0.00555261
-0.000353686
0.00556483
-0.000353605
0.00557724
-0.000353025
0.00558983
-0.000351921
0.00560255
-0.00035027
0.00561539
-0.000348053
0.00562831
-0.000345248
0.00564128
-0.000341839
0.00565427
-0.000337808
0.00566723
-0.000333141
0.00568014
-0.000327827
0.00569294
-0.000321849
0.00570559
-0.000315181
-0.000307738
0.00536301
-0.000294469
0.00536937
-0.000299635
0.00537603
-0.000304755
0.00538302
-0.000309813
0.00539032
-0.000314791
0.00539796
-0.000319671
0.00540592
-0.000324434
0.00541423
-0.000329062
0.00542288
-0.000333534
0.00543188
-0.000337827
0.00544122
-0.000341919
0.0054509
-0.000345787
0.00546093
-0.000349405
0.0054713
-0.000352748
0.005482
-0.00035579
0.00549303
-0.000358503
0.00550438
-0.00036086
0.00551603
-0.000362834
0.00552798
-0.000364396
0.0055402
-0.000365518
0.00555269
-0.000366171
0.00556541
-0.000366329
0.00557835
-0.000365965
0.00559148
-0.000365051
0.00560478
-0.000363564
0.0056182
-0.000361479
0.00563173
-0.000358774
0.00564532
-0.00035543
0.00565894
-0.000351427
0.00567255
-0.000346751
0.00568611
-0.000341385
0.00569957
-0.000335312
0.00571288
-0.000328494
-0.000320818
0.0053578
-0.000300564
0.00536421
-0.000306044
0.00537094
-0.000311488
0.00537801
-0.000316879
0.00538542
-0.000322196
0.00539317
-0.000327424
0.00540127
-0.000332541
0.00540974
-0.000337529
0.00541857
-0.000342364
0.00542777
-0.000347025
0.00543734
-0.000351486
0.00544727
-0.000355724
0.00545758
-0.000359711
0.00546825
-0.00036342
0.00547928
-0.000366823
0.00549067
-0.000369891
0.0055024
-0.000372594
0.00551447
-0.000374903
0.00552686
-0.000376786
0.00553956
-0.000378213
0.00555254
-0.000379153
0.00556579
-0.000379577
0.00557928
-0.000379454
0.00559298
-0.000378756
0.00560687
-0.000377455
0.00562092
-0.000375524
0.00563508
-0.000372939
0.00564933
-0.000369678
0.00566362
-0.00036572
0.00567792
-0.000361046
0.00569217
-0.000355639
0.00570634
-0.000349475
0.00572035
-0.00034251
-0.000334593
0.00535229
-0.000306686
0.00535874
-0.000312495
0.00536553
-0.000318279
0.00537267
-0.000324018
0.00538017
-0.000329694
0.00538804
-0.000335288
0.00539627
-0.00034078
0.0054049
-0.000346149
0.0054139
-0.000351371
0.0054233
-0.000356423
0.00543309
-0.00036128
0.00544328
-0.000365913
0.00545387
-0.000370296
0.00546485
-0.000374399
0.00547622
-0.000378193
0.00548797
-0.000381645
0.0055001
-0.000384724
0.0055126
-0.000387398
0.00552545
-0.000389633
0.00553863
-0.000391396
0.00555213
-0.000392653
0.00556592
-0.000393372
0.00557999
-0.00039352
0.0055943
-0.000393064
0.00560882
-0.000391975
0.00562352
-0.000390223
0.00563836
-0.000387781
0.0056533
-0.000384622
0.00566831
-0.000380725
0.00568333
-0.000376068
0.00569832
-0.000370631
0.00571323
-0.000364385
0.005728
-0.000357274
-0.000349112
0.00534646
-0.000312824
0.00535294
-0.000318978
0.00535978
-0.000325117
0.00536699
-0.000331223
0.00537457
-0.000337276
0.00538254
-0.000343257
0.0053909
-0.000349145
0.00539967
-0.000354918
0.00540885
-0.000360551
0.00541845
-0.00036602
0.00542847
-0.000371297
0.00543891
-0.000376355
0.00544977
-0.000381163
0.00546107
-0.000385691
0.00547278
-0.000389906
0.00548491
-0.000393774
0.00549745
-0.000397262
0.00551038
-0.000400334
0.0055237
-0.000402954
0.00553739
-0.000405085
0.00555143
-0.000406692
0.0055658
-0.000407739
0.00558046
-0.000408188
0.00559541
-0.000408006
0.00561059
-0.000407158
0.00562598
-0.000405611
0.00564153
-0.000403336
0.00565721
-0.000400304
0.00567298
-0.000396488
0.00568877
-0.000391864
0.00570455
-0.000386409
0.00572026
-0.000380091
0.00573582
-0.000372839
-0.000364427
0.00534029
-0.000318967
0.00534679
-0.000325481
0.00535367
-0.000331992
0.00536093
-0.000338483
0.00536859
-0.000344933
0.00537665
-0.000351321
0.00538513
-0.000357628
0.00539404
-0.000363828
0.00540339
-0.000369898
0.00541318
-0.00037581
0.00542342
-0.000381537
0.00543411
-0.000387049
0.00544526
-0.000392313
0.00545687
-0.000397297
0.00546893
-0.000401966
0.00548144
-0.000406285
0.00549439
-0.000410217
0.00550778
-0.000413722
0.00552159
-0.000416763
0.00553581
-0.0004193
0.00555041
-0.000421293
0.00556537
-0.000422702
0.00558067
-0.000423488
0.00559628
-0.000423613
0.00561216
-0.000423038
0.00562827
-0.000421728
0.00564458
-0.000419648
0.00566105
-0.000416766
0.00567761
-0.000413054
0.00569423
-0.000408483
0.00571085
-0.000403026
0.0057274
-0.000396646
0.00574382
-0.000389258
-0.000380592
0.00533377
-0.000325101
0.00534028
-0.000331991
0.00534718
-0.000338892
0.00535448
-0.000345785
0.0053622
-0.000352652
0.00537035
-0.00035947
0.00537894
-0.000366218
0.00538798
-0.000372871
0.00539749
-0.000379404
0.00540747
-0.000385788
0.00541792
-0.000391994
0.00542887
-0.000397991
0.0054403
-0.000403744
0.00545222
-0.000409219
0.00546463
-0.000414379
0.00547753
-0.000419185
0.00549091
-0.000423598
0.00550477
-0.000427576
0.00551908
-0.000431077
0.00553384
-0.000434058
0.00554902
-0.000436476
0.00556461
-0.000438288
0.00558057
-0.000439449
0.00559688
-0.000439918
0.00561349
-0.000439652
0.00563037
-0.000438612
0.00564748
-0.000436758
0.00566478
-0.000434057
0.0056822
-0.000430474
0.00569969
-0.000425977
0.0057172
-0.000420537
0.00573466
-0.000414107
0.00575199
-0.000406591
-0.000397667
0.00532688
-0.000331213
0.00533338
-0.000338493
0.00534029
-0.000345801
0.00534763
-0.000353117
0.00535539
-0.000360421
0.00536361
-0.000367691
0.0053723
-0.000374904
0.00538147
-0.000382036
0.00539112
-0.00038906
0.00540128
-0.000395946
0.00541195
-0.000402663
0.00542314
-0.000409178
0.00543485
-0.000415456
0.00544709
-0.000421458
0.00545985
-0.000427147
0.00547315
-0.00043248
0.00548697
-0.000437415
0.0055013
-0.000441907
0.00551613
-0.000445911
0.00553145
-0.00044938
0.00554724
-0.000452266
0.00556348
-0.000454523
0.00558013
-0.000456102
0.00559717
-0.000456956
0.00561456
-0.000457039
0.00563225
-0.000456306
0.00565021
-0.000454715
0.00566838
-0.000452226
0.0056867
-0.000448801
0.00570513
-0.000444404
0.00572359
-0.000439
0.00574202
-0.000432537
0.00576033
-0.000424901
-0.000415716
0.0053196
-0.000337287
0.00532608
-0.000344974
0.00533299
-0.000352706
0.00534033
-0.000360463
0.00534814
-0.000368225
0.00535642
-0.00037597
0.00536519
-0.000383674
0.00537446
-0.000391312
0.00538426
-0.000398855
0.00539459
-0.000406274
0.00540546
-0.000413535
0.00541689
-0.000420604
0.00542887
-0.000427443
0.00544143
-0.000434013
0.00545455
-0.000440271
0.00546825
-0.000446174
0.00548251
-0.000451675
0.00549733
-0.000456727
0.0055127
-0.00046128
0.0055286
-0.000465284
0.00554502
-0.000468686
0.00556193
-0.000471435
0.00557931
-0.000473478
0.00559712
-0.000474763
0.00561532
-0.000475239
0.00563387
-0.000474857
0.00565272
-0.000473568
0.00567182
-0.000471327
0.00569111
-0.000468093
0.00571053
-0.000463825
0.00573002
-0.000458481
0.00574948
-0.000452003
0.00576884
-0.000444257
-0.000434809
0.00531192
-0.000343305
0.00531836
-0.000351414
0.00532525
-0.000359588
0.00533259
-0.000367806
0.00534041
-0.000376048
0.00534873
-0.000384291
0.00535757
-0.000392512
0.00536694
-0.000400684
0.00537687
-0.000408777
0.00538735
-0.000416761
0.00539842
-0.000424602
0.00541008
-0.000432262
0.00542234
-0.000439702
0.00543521
-0.00044688
0.00544869
-0.000453752
0.00546278
-0.000460271
0.00547749
-0.000466386
0.00549281
-0.000472047
0.00550873
-0.000477199
0.00552524
-0.000481789
0.00554231
-0.000485759
0.00555993
-0.000489052
0.00557806
-0.000491611
0.00559667
-0.000493378
0.00561573
-0.000494296
0.00563518
-0.000494311
0.00565498
-0.000493368
0.00567507
-0.000491418
0.00569539
-0.000488412
0.00571587
-0.000484305
0.00573644
-0.00047905
0.00575702
-0.000472577
0.0057775
-0.000464735
-0.000455022
0.00530383
-0.000349247
0.00531021
-0.000357795
0.00531705
-0.000366429
0.00532437
-0.000375128
0.00533219
-0.000383871
0.00534054
-0.000392637
0.00534943
-0.000401401
0.00535888
-0.000410136
0.00536891
-0.000418811
0.00537955
-0.000427395
0.00539079
-0.000435851
0.00540267
-0.000444141
0.0054152
-0.000452224
0.00542837
-0.000460056
0.00544221
-0.000467588
0.00545671
-0.000474771
0.00547187
-0.000481552
0.0054877
-0.000487874
0.00550418
-0.000493681
0.00552131
-0.000498913
0.00553906
-0.000503507
0.00555741
-0.000507402
0.00557633
-0.000510533
0.00559579
-0.000512838
0.00561575
-0.000514254
0.00563616
-0.000514719
0.00565696
-0.000514173
0.0056781
-0.00051256
0.00569951
-0.000509825
0.00572113
-0.000505917
0.00574286
-0.000500781
0.00576462
-0.000494339
0.0057863
-0.000486416
-0.000476439
0.00529529
-0.000355094
0.00530159
-0.000364096
0.00530837
-0.000373207
0.00531565
-0.000382407
0.00532345
-0.000391674
0.0053318
-0.000400987
0.00534072
-0.000410321
0.00535023
-0.000419649
0.00536036
-0.000428938
0.00537112
-0.000438157
0.00538254
-0.000447267
0.00539463
-0.000456229
0.0054074
-0.000465
0.00542088
-0.000473532
0.00543507
-0.000481775
0.00544997
-0.000489675
0.00546559
-0.000497176
0.00548194
-0.000504218
0.005499
-0.000510739
0.00551676
-0.000516673
0.0055352
-0.000521954
0.00555432
-0.000526513
0.00557406
-0.00053028
0.00559441
-0.000533186
0.00561532
-0.00053516
0.00563673
-0.000536134
0.0056586
-0.000536041
0.00568086
-0.000534818
0.00570344
-0.000532402
0.00572625
-0.000528735
0.00574923
-0.000523756
0.00577226
-0.000517374
0.00579524
-0.00050939
-0.00049915
0.0052863
-0.000360822
0.0052925
-0.000370294
0.00529919
-0.000379899
0.00530641
-0.000389619
0.00531416
-0.000399433
0.0053225
-0.000409319
0.00533143
-0.000419251
0.00534098
-0.000429201
0.00535118
-0.000439139
0.00536205
-0.000449029
0.00537362
-0.000458834
0.0053859
-0.000468511
0.00539892
-0.000478016
0.00541268
-0.000487298
0.00542721
-0.000496305
0.00544252
-0.000504979
0.0054586
-0.00051326
0.00547547
-0.000521084
0.00549311
-0.000528383
0.00551152
-0.000535087
0.00553069
-0.000541123
0.00555059
-0.000546415
0.0055712
-0.000550887
0.00559248
-0.000554463
0.00561438
-0.000557063
0.00563686
-0.000558613
0.00565985
-0.000559036
0.0056833
-0.000558262
0.00570711
-0.00055622
0.00573122
-0.000552844
0.00575553
-0.000548064
0.00577993
-0.000541777
0.0058043
-0.000533755
-0.000523255
0.00527685
-0.000366407
0.00528292
-0.000376363
0.0052895
-0.00038648
0.00529662
-0.00039674
0.00530431