/*--------------------------------*- C++ -*----------------------------------*\
| =========                 |                                                 |
| \\      /  F ield         | OpenFOAM: The Open Source CFD Toolbox           |
|  \\    /   O peration     | Version:  2412                                  |
|   \\  /    A nd           | Website:  www.openfoam.com                      |
|    \\/     M anipulation  |                                                 |
\*---------------------------------------------------------------------------*/
FoamFile
{
    version     2.0;
    format      ascii;
    arch        "LSB;label=32;scalar=64";
    class       volVectorField;
    location    "8.5";
    object      vorticity;
}
// * * * * * * * * * * * * * * * * * * * * * * * * * * * * * * * * * * * * * //

dimensions      [0 0 -1 0 0 0 0];

internalField   nonuniform List<vector> 
5285
(
(2.52066e-22 5.17211e-21 -0.00369283)
(-3.71853e-23 8.32309e-25 -0.00300788)
(1.96102e-22 5.59784e-21 -0.00243464)
(-6.55288e-24 -8.01626e-26 -0.00196273)
(9.40601e-24 -2.05719e-26 -0.00157743)
(-5.03676e-24 1.73463e-25 -0.00126578)
(1.32761e-22 6.24689e-21 -0.00101595)
(-2.98155e-25 -6.50727e-26 -0.000817079)
(-1.0922e-22 -6.49961e-21 -0.000659561)
(9.83428e-23 6.61164e-21 -0.000535086)
(-7.46809e-23 -6.72026e-21 -0.00043666)
(3.67291e-22 6.15808e-20 -0.000358533)
(-3.78859e-22 -6.17682e-20 -0.000296074)
(-2.08347e-22 -4.91481e-20 -0.000245634)
(4.67986e-22 1.05894e-19 -0.000204387)
(-2.55511e-22 -5.68279e-20 -0.000170178)
(-7.53523e-23 -7.21678e-21 -0.00014139)
(6.87509e-23 7.27157e-21 -0.00011682)
(2.09661e-23 -2.37724e-25 -9.55775e-05)
(1.33591e-23 7.40315e-21 -7.70068e-05)
(-1.22728e-22 -3.73349e-20 -6.06189e-05)
(1.306e-22 3.74395e-20 -4.60451e-05)
(-4.95504e-23 -7.55449e-21 -3.29993e-05)
(6.20862e-23 2.28515e-20 -2.12494e-05)
(-1.63012e-23 -7.6122e-21 -1.05933e-05)
(-4.59267e-23 -1.54201e-20 -8.3373e-07)
(2.01518e-23 7.72956e-21 8.24696e-06)
(-1.82783e-23 -7.78772e-21 1.6892e-05)
(2.00874e-20 3.25436e-19 -0.0107411)
(-2.21279e-20 -3.52657e-19 -0.00875184)
(1.75911e-20 3.60557e-19 -0.00708451)
(-9.72167e-21 -1.78242e-19 -0.00571049)
(-1.54584e-20 -3.82715e-19 -0.00458962)
(7.35428e-21 1.94093e-19 -0.00368365)
(-1.1958e-22 -6.27354e-21 -0.0029577)
(-4.99146e-22 -1.2836e-20 -0.00237998)
(1.30831e-22 6.51903e-21 -0.00192236)
(-4.9517e-22 -1.99321e-20 -0.00156064)
(3.93855e-21 2.10122e-19 -0.00127448)
(-8.16897e-21 -4.43811e-19 -0.00104716)
(3.65257e-21 2.13176e-19 -0.000865256)
(-3.06838e-22 -2.09852e-20 -0.0007182)
(1.86985e-23 7.07005e-21 -0.000597802)
(7.08821e-24 2.37626e-23 -0.000497833)
(-1.42097e-21 -1.23078e-19 -0.000413614)
(1.21201e-21 1.08726e-19 -0.000341664)
(9.46116e-22 1.03128e-19 -0.00027941)
(-1.35355e-21 -1.40151e-19 -0.000224948)
(5.33538e-23 7.41031e-21 -0.000176862)
(2.42218e-22 3.76658e-20 -0.000134082)
(-5.16233e-22 -6.78152e-20 -9.57738e-05)
(-9.45385e-23 -7.60033e-21 -6.12625e-05)
(-3.05649e-22 -5.35743e-20 -2.99553e-05)
(-8.86614e-23 -7.82512e-21 -1.26725e-06)
(1.00667e-22 1.53714e-20 2.54711e-05)
(1.13046e-22 2.32927e-20 5.10764e-05)
(-3.44525e-20 -3.38573e-19 -0.016872)
(3.63445e-20 3.60362e-19 -0.0137417)
(1.13971e-21 1.1645e-20 -0.0111352)
(-1.04346e-21 -1.18942e-20 -0.00897814)
(8.45155e-22 1.22127e-20 -0.00722125)
(-2.12262e-20 -3.89395e-19 -0.00580235)
(2.22228e-20 4.02383e-19 -0.00466583)
(-1.71664e-20 -3.91658e-19 -0.00376136)
(1.83939e-20 4.18059e-19 -0.00304462)
(4.02329e-22 1.33354e-20 -0.00247759)
(1.36489e-20 4.36824e-19 -0.00202839)
(-2.60679e-20 -8.65811e-19 -0.00167091)
(1.31166e-20 4.56574e-19 -0.00138418)
(5.44815e-21 2.40173e-19 -0.00115175)
(-4.7914e-21 -2.12064e-19 -0.000960886)
(-1.74015e-22 -3.10379e-23 -0.000801912)
(6.79464e-24 -2.04471e-23 -0.000667575)
(3.45094e-23 -5.11053e-23 -0.000552485)
(3.4367e-21 2.35846e-19 -0.000452657)
(-3.40447e-21 -2.21277e-19 -0.000365145)
(1.84549e-22 1.48602e-20 -0.000287754)
(4.2241e-23 -3.84882e-23 -0.000218817)
(1.24952e-21 1.20979e-19 -0.000157036)
(-2.44614e-21 -2.27519e-19 -0.000101348)
(1.23823e-21 1.21711e-19 -5.08124e-05)
(-6.21273e-22 -6.14171e-20 -4.47246e-06)
(4.56046e-22 4.60356e-20 3.88422e-05)
(1.14438e-22 1.54326e-20 8.07867e-05)
(7.53108e-23 -2.60982e-24 -0.0216732)
(1.23144e-21 1.15651e-20 -0.0176499)
(6.97385e-22 1.73746e-22 -0.0143017)
(1.04175e-21 1.21487e-20 -0.0115428)
(-6.90669e-20 -8.14812e-19 -0.00929379)
(6.84517e-20 8.02749e-19 -0.00747947)
(-1.97656e-22 1.43234e-22 -0.00602696)
(-2.51351e-20 -4.23775e-19 -0.00487097)
(2.64029e-20 4.37354e-19 -0.00395438)
(-8.41636e-23 4.79574e-23 -0.00322837)
(-1.43697e-22 1.23802e-23 -0.00265213)
(-1.80274e-20 -4.60361e-19 -0.00219235)
(3.43466e-20 9.11662e-19 -0.00182238)
(-3.10328e-20 -9.06409e-19 -0.0015213)
(2.85351e-20 9.14662e-19 -0.00127302)
(-2.61347e-20 -9.22168e-19 -0.00106532)
(1.2399e-20 4.62814e-19 -0.000889066)
(5.47677e-21 2.34882e-19 -0.000737479)
(-4.79938e-21 -2.05351e-19 -0.000605553)
(-2.91407e-22 -1.48131e-20 -0.000489584)
(-4.24537e-21 -2.39091e-19 -0.000386808)
(8.88641e-21 5.09287e-19 -0.00029512)
(-4.14047e-21 -2.40232e-19 -0.000212868)
(8.54608e-23 -4.98891e-23 -0.00013869)
(2.18808e-22 1.51897e-20 -7.13572e-05)
(-8.91205e-23 -2.93593e-24 -9.5728e-06)
(-1.58249e-22 -1.53242e-20 4.83972e-05)
(3.53001e-22 3.07538e-20 0.00010544)
(-1.16428e-19 -7.83932e-19 -0.0203316)
(1.133e-19 7.58848e-19 -0.0164686)
(-4.89054e-22 3.40349e-22 -0.0132979)
(4.85114e-22 -5.15272e-25 -0.010717)
(-1.30004e-21 -1.27728e-20 -0.00863922)
(-7.19156e-20 -8.52195e-19 -0.00697679)
(7.12754e-20 8.3798e-19 -0.00565388)
(-9.79341e-22 -1.33217e-20 -0.00460437)
(-2.63229e-20 -4.29128e-19 -0.00377199)
(2.75577e-20 4.56375e-19 -0.00310993)
(5.04749e-22 7.60481e-23 -0.00258009)
(-1.18269e-22 5.44984e-23 -0.00215209)
(1.97397e-23 9.72447e-23 -0.00180222)
(-1.75679e-20 -4.62802e-19 -0.00151228)
(1.83855e-20 4.76983e-19 -0.00126852)
(-1.47176e-20 -4.5406e-19 -0.00106066)
(1.47533e-20 4.68248e-19 -0.000881117)
(-6.64655e-22 -2.94231e-20 -0.000724288)
(4.74439e-22 1.48142e-20 -0.000586027)
(-7.02463e-23 3.01927e-23 -0.000463231)
(-2.93025e-22 -1.49564e-20 -0.000353527)
(2.63929e-22 1.5043e-20 -0.000255037)
(-2.42674e-21 -1.35944e-19 -0.000166197)
(4.26867e-21 2.41956e-19 -8.55681e-05)
(-3.14078e-21 -1.81869e-19 -1.1566e-05)
(9.71182e-22 6.06915e-20 5.81493e-05)
(4.76235e-23 2.75523e-23 0.000128144)
(1.40018e-19 8.06763e-19 -0.0218267)
(-1.41266e-19 -8.03659e-19 -0.0176632)
(-1.16749e-19 -8.38366e-19 -0.0142572)
(1.15059e-19 8.22108e-19 -0.011495)
(-5.71937e-22 3.6641e-22 -0.00927648)
(6.87257e-22 -2.39072e-22 -0.00750384)
(7.95541e-20 8.85039e-19 -0.0060942)
(-7.21835e-21 1.157e-20 -0.00497579)
(-7.44333e-20 -9.20385e-19 -0.00408789)
(-6.13782e-20 -9.25285e-19 -0.00338027)
(1.14476e-19 1.81153e-18 -0.00281228)
(-3.08147e-20 -4.67503e-19 -0.0023517)
(-2.58379e-20 -4.75365e-19 -0.00197347)
(-2.23196e-20 -4.96626e-19 -0.00165846)
(3.99403e-20 9.21264e-19 -0.00139229)
(-3.81478e-20 -9.54605e-19 -0.00116426)
(8.25412e-22 -1.79285e-20 -0.00096649)
(1.63332e-20 4.7233e-19 -0.000793158)
(1.41977e-20 4.76918e-19 -0.000639966)
(-2.16811e-20 -7.44439e-19 -0.000503684)
(1.25017e-20 4.62992e-19 -0.000381826)
(-6.49085e-21 -2.54034e-19 -0.000272408)
(5.7204e-21 2.5559e-19 -0.000173759)
(-5.78703e-21 -2.55079e-19 -8.43165e-05)
(3.64585e-22 1.50029e-20 -2.2951e-06)
(-1.4687e-21 -7.55074e-20 7.52159e-05)
(5.76745e-22 3.00796e-20 0.000154985)
(-1.82018e-19 -8.31625e-19 -0.0210639)
(9.79893e-22 -9.27082e-22 -0.0169932)
(4.09327e-22 -8.02511e-24 -0.0136842)
(1.37565e-21 1.40248e-20 -0.0110214)
(-1.14451e-19 -8.93732e-19 -0.00889132)
(1.1431e-19 8.89562e-19 -0.00719681)
(-3.93902e-22 4.14081e-22 -0.00585422)
(1.30411e-23 -4.12533e-24 -0.00479178)
(1.35521e-21 1.45834e-20 -0.00394937)
(-6.94095e-20 -9.15026e-19 -0.00327777)
(1.3575e-19 1.87371e-18 -0.00273752)
(-6.43956e-20 -9.29794e-19 -0.00229764)
(1.00229e-21 1.43575e-20 -0.0019343)
(9.01918e-22 1.45628e-20 -0.00162949)
(2.24759e-20 4.74154e-19 -0.00136984)
(-4.27613e-20 -9.32468e-19 -0.00114551)
(2.15009e-20 4.88042e-19 -0.000949321)
(-1.74982e-20 -4.61863e-19 -0.000776056)
(1.13667e-21 -2.4752e-21 -0.000621874)
(1.80607e-21 1.2558e-20 -0.000483906)
(1.56484e-20 4.9112e-19 -0.00035994)
(7.12601e-21 2.54408e-19 -0.0002482)
(-7.09937e-21 -2.53299e-19 -0.00014716)
(4.25688e-22 1.48208e-20 -5.53694e-05)
(2.72562e-21 1.19694e-19 2.89015e-05)
(-2.39455e-21 -1.04293e-19 0.000108813)
(2.79978e-22 1.48874e-20 0.000194223)
(0 -2.01668e-24 3.15397e-05)
(0 -0 3.78972e-05)
(0 -0 4.42344e-05)
(0 -0 5.08938e-05)
(0 -0 5.8278e-05)
(0 -0 6.68052e-05)
(0 -0 7.68288e-05)
(0 -0 8.85195e-05)
(0 -0 0.00010173)
(0 -0 0.000115877)
(0 -0 0.000129881)
(0 -0 0.000142235)
(0 -0 0.000151209)
(0 -0 0.000155188)
(0 -0 0.000153051)
(0 -0 0.000144497)
(0 -0 0.000130185)
(0 -0 0.000111627)
(0 -0 9.08735e-05)
(0 -0 7.00666e-05)
(0 -0 5.10262e-05)
(0 -0 3.49676e-05)
(0 -0 2.24171e-05)
(0 -0 1.33021e-05)
(0 -0 7.14675e-06)
(0 -0 3.2897e-06)
(0 -0 1.06213e-06)
(0 -0 -1.0375e-07)
(0 -0 -6.32448e-07)
(0 -0 -8.09919e-07)
(0 -0 -8.11648e-07)
(0 -0 -7.36262e-07)
(0 -0 -6.3453e-07)
(0 -0 -5.30216e-07)
(0 -0 -4.33238e-07)
(0 -0 -3.47082e-07)
(0 -0 -2.72427e-07)
(0 -0 -2.08717e-07)
(0 -0 -1.54786e-07)
(0 -0 -1.09223e-07)
(0 -0 -7.06831e-08)
(0 -0 -3.82072e-08)
(0 -0 -1.12053e-08)
(0 -0 1.02984e-08)
(0 6.01466e-24 9.3535e-05)
(0 -0 0.000111925)
(0 -0 0.00013021)
(0 -0 0.000149425)
(0 -0 0.000170774)
(0 -0 0.000195503)
(0 -0 0.000224656)
(0 -0 0.00025874)
(0 -0 0.000297328)
(0 -0 0.000338707)
(0 -0 0.000379718)
(0 -0 0.00041594)
(0 -0 0.000442298)
(0 -0 0.000454043)
(0 -0 0.000447882)
(0 -0 0.000422921)
(0 -0 0.000381073)
(0 -0 0.000326767)
(0 -0 0.000266004)
(0 -0 0.000205066)
(0 -0 0.000149289)
(0 -0 0.000102241)
(0 -0 6.54693e-05)
(0 -0 3.87656e-05)
(0 -0 2.07373e-05)
(0 -0 9.44712e-06)
(0 -0 2.93436e-06)
(0 -0 -4.66158e-07)
(0 -0 -1.99963e-06)
(0 -0 -2.50477e-06)
(0 -0 -2.49634e-06)
(0 -0 -2.26357e-06)
(0 -0 -1.95512e-06)
(0 -0 -1.64049e-06)
(0 -0 -1.34835e-06)
(0 -0 -1.08816e-06)
(0 -0 -8.61363e-07)
(0 -0 -6.66159e-07)
(0 -0 -4.9953e-07)
(0 -0 -3.58286e-07)
(0 -0 -2.39513e-07)
(0 -0 -1.40769e-07)
(0 -0 -5.99675e-08)
(0 -0 2.85914e-09)
(0 3.96948e-24 0.000147084)
(0 -0 0.000175885)
(0 -0 0.000204402)
(0 -0 0.000234359)
(0 -0 0.000267741)
(0 -0 0.000306574)
(0 -0 0.000352551)
(0 -0 0.000406502)
(0 -0 0.000467764)
(0 -0 0.000533623)
(0 -0 0.00059906)
(0 -0 0.000657037)
(0 -0 0.000699462)
(0 -0 0.000718744)
(0 -0 0.000709598)
(0 -0 0.000670545)
(0 -0 0.000604577)
(0 -0 0.000518698)
(0 -0 0.000422429)
(0 -0 0.000325765)
(0 -0 0.000237207)
(0 -0 0.000162455)
(0 -0 0.000104)
(0 -0 6.15322e-05)
(0 -0 3.28546e-05)
(0 -0 1.48954e-05)
(0 -0 4.53967e-06)
(0 -0 -8.60784e-07)
(0 -0 -3.28795e-06)
(0 -0 -4.07781e-06)
(0 -0 -4.05057e-06)
(0 -0 -3.66708e-06)
(0 -0 -3.16445e-06)
(0 -0 -2.65343e-06)
(0 -0 -2.17941e-06)
(0 -0 -1.75725e-06)
(0 -0 -1.38899e-06)
(0 -0 -1.07158e-06)
(0 -0 -8.00265e-07)
(0 -0 -5.70285e-07)
(0 -0 -3.77184e-07)
(0 -0 -2.17088e-07)
(0 -0 -8.65312e-08)
(0 -0 1.49076e-08)
(0 8.18431e-24 0.000189053)
(0 -0 0.000225371)
(0 -0 0.00026115)
(0 -0 0.000298836)
(0 -0 0.000341139)
(0 -0 0.000390773)
(0 -0 0.000449991)
(0 -0 0.000519902)
(0 -0 0.000599661)
(0 -0 0.000685747)
(0 -0 0.000771616)
(0 -0 0.000848068)
(0 -0 0.0009045)
(0 -0 0.000930934)
(0 -0 0.000920371)
(0 -0 0.000870766)
(0 -0 0.000785915)
(0 -0 0.000674876)
(0 -0 0.000550034)
(0 -0 0.000424428)
(0 -0 0.000309186)
(0 -0 0.000211801)
(0 -0 0.000135577)
(0 -0 8.01635e-05)
(0 -0 4.27269e-05)
(0 -0 1.92793e-05)
(0 -0 5.76401e-06)
(0 -0 -1.27377e-06)
(0 -0 -4.42347e-06)
(0 -0 -5.4321e-06)
(0 -0 -5.37294e-06)
(0 -0 -4.8496e-06)
(0 -0 -4.17271e-06)
(0 -0 -3.4871e-06)
(0 -0 -2.85209e-06)
(0 -0 -2.28694e-06)
(0 -0 -1.79394e-06)
(0 -0 -1.36887e-06)
(0 -0 -1.00557e-06)
(0 -0 -6.97703e-07)
(0 -0 -4.3942e-07)
(0 -0 -2.2568e-07)
(0 -0 -5.16816e-08)
(0 -0 8.25664e-08)
(0 9.54975e-26 0.000219958)
(0 -0 0.000259253)
(0 -0 0.000297951)
(0 -0 0.000339231)
(0 -0 0.00038638)
(0 -0 0.000442609)
(0 -0 0.000510562)
(0 -0 0.000591543)
(0 -0 0.000684581)
(0 -0 0.000785569)
(0 -0 0.000886848)
(0 -0 0.000977627)
(0 -0 0.00104542)
(0 -0 0.00107843)
(0 -0 0.0010683)
(0 -0 0.00101244)
(0 -0 0.000915132)
(0 -0 0.000786838)
(0 -0 0.000641986)
(0 -0 0.000495836)
(0 -0 0.000361471)
(0 -0 0.000247743)
(0 -0 0.000158618)
(0 -0 9.37619e-05)
(0 -0 4.99175e-05)
(0 -0 2.24498e-05)
(0 -0 6.62428e-06)
(0 -0 -1.60158e-06)
(0 -0 -5.26315e-06)
(0 -0 -6.4111e-06)
(0 -0 -6.30671e-06)
(0 -0 -5.65992e-06)
(0 -0 -4.83616e-06)
(0 -0 -4.00571e-06)
(0 -0 -3.23812e-06)
(0 -0 -2.55572e-06)
(0 -0 -1.96081e-06)
(0 -0 -1.44815e-06)
(0 -0 -1.01027e-06)
(0 -0 -6.39519e-07)
(0 -0 -3.28902e-07)
(0 -0 -7.23378e-08)
(0 -0 1.36162e-07)
(0 -0 2.95802e-07)
(0 8.30403e-24 0.000242574)
(0 -0 0.000278434)
(0 -0 0.00031441)
(0 -0 0.000354528)
(0 -0 0.000402042)
(0 -0 0.000460316)
(0 -0 0.000532142)
(0 -0 0.000618902)
(0 -0 0.000719535)
(0 -0 0.000829586)
(0 -0 0.000940735)
(0 -0 0.00104121)
(0 -0 0.00111735)
(0 -0 0.00115616)
(0 -0 0.00114831)
(0 -0 0.00109075)
(0 -0 0.000987853)
(0 -0 0.000850818)
(0 -0 0.000695222)
(0 -0 0.000537645)
(0 -0 0.000392377)
(0 -0 0.000269165)
(0 -0 0.000172447)
(0 -0 0.000101978)
(0 -0 5.42964e-05)
(0 -0 2.44144e-05)
(0 -0 7.20653e-06)
(0 -0 -1.71803e-06)
(0 -0 -5.66396e-06)
(0 -0 -6.86792e-06)
(0 -0 -6.70749e-06)
(0 -0 -5.95891e-06)
(0 -0 -5.02187e-06)
(0 -0 -4.08246e-06)
(0 -0 -3.21647e-06)
(0 -0 -2.44786e-06)
(0 -0 -1.77863e-06)
(0 -0 -1.2026e-06)
(0 -0 -7.11211e-07)
(0 -0 -2.95799e-07)
(0 -0 5.15403e-08)
(0 -0 3.37743e-07)
(0 -0 5.69788e-07)
(0 -0 7.4483e-07)
(0 4.17248e-24 0.000259391)
(0 -0 0.000282907)
(0 -0 0.000311022)
(0 -0 0.00034553)
(0 -0 0.000389406)
(0 -0 0.000445561)
(0 -0 0.000516702)
(0 -0 0.000604172)
(0 -0 0.000706866)
(0 -0 0.000820223)
(0 -0 0.000935704)
(0 -0 0.00104119)
(0 -0 0.00112251)
(0 -0 0.00116613)
(0 -0 0.00116218)
(0 -0 0.00110717)
(0 -0 0.00100528)
(0 -0 0.000867756)
(0 -0 0.000710446)
(0 -0 0.000550364)
(0 -0 0.000402274)
(0 -0 0.000276332)
(0 -0 0.000177266)
(0 -0 0.000104969)
(0 -0 5.59993e-05)
(0 -0 2.52964e-05)
(0 -0 7.62742e-06)
(0 -0 -1.51046e-06)
(0 -0 -5.51611e-06)
(0 -0 -6.69515e-06)
(0 -0 -6.47016e-06)
(0 -0 -5.64365e-06)
(0 -0 -4.62904e-06)
(0 -0 -3.61861e-06)
(0 -0 -2.6903e-06)
(0 -0 -1.8683e-06)
(0 -0 -1.15397e-06)
(0 -0 -5.403e-07)
(0 -0 -1.78732e-08)
(0 -0 4.22729e-07)
(0 -0 7.90071e-07)
(0 -0 1.09172e-06)
(0 -0 1.33548e-06)
(0 -0 1.51517e-06)
(0 -0 0.00025493)
(0 -0 0.000268341)
(0 -0 0.000287037)
(0 -0 0.000313663)
(0 -0 0.000350985)
(0 -0 0.000401669)
(0 -0 0.000468233)
(0 -0 0.000551927)
(0 -0 0.00065167)
(0 -0 0.000763031)
(0 -0 0.000877678)
(0 -0 0.00098371)
(0 -0 0.00106715)
(0 -0 0.00111447)
(0 -0 0.00111567)
(0 -0 0.00106693)
(0 -0 0.000971931)
(0 -0 0.000841358)
(0 -0 0.000690549)
(0 -0 0.000536125)
(0 -0 0.000392636)
(0 -0 0.0002702)
(0 -0 0.000173648)
(0 -0 0.000103056)
(0 -0 5.51853e-05)
(0 -0 2.51666e-05)
(0 -0 7.91558e-06)
(0 -0 -9.65076e-07)
(0 -0 -4.80648e-06)
(0 -0 -5.87428e-06)
(0 -0 -5.56899e-06)
(0 -0 -4.6815e-06)
(0 -0 -3.61914e-06)
(0 -0 -2.57088e-06)
(0 -0 -1.61265e-06)
(0 -0 -7.67163e-07)
(0 -0 -3.46916e-08)
(0 -0 5.92712e-07)
(0 -0 1.12517e-06)
(0 -0 1.57268e-06)
(0 -0 1.9443e-06)
(0 -0 2.24804e-06)
(0 -0 2.4922e-06)
(0 -0 2.67026e-06)
(0 -0 0.000237347)
(0 -0 0.000236746)
(0 -0 0.000244709)
(0 -0 0.000262558)
(0 -0 0.000291852)
(0 -0 0.000335001)
(0 -0 0.000394213)
(0 -0 0.000470624)
(0 -0 0.00056326)
(0 -0 0.000668046)
(0 -0 0.000777242)
(0 -0 0.0008797)
(0 -0 0.00096221)
(0 -0 0.00101185)
(0 -0 0.00101886)
(0 -0 0.000979172)
(0 -0 0.000895785)
(0 -0 0.000778314)
(0 -0 0.000640895)
(0 -0 0.00049904)
(0 -0 0.000366475)
(0 -0 0.000252877)
(0 -0 0.000162999)
(0 -0 9.71271e-05)
(0 -0 5.23879e-05)
(0 -0 2.43217e-05)
(0 -0 8.21735e-06)
(0 -0 -2.74672e-08)
(0 -0 -3.53508e-06)
(0 -0 -4.43645e-06)
(0 -0 -4.05226e-06)
(0 -0 -3.12954e-06)
(0 -0 -2.05318e-06)
(0 -0 -1.00135e-06)
(0 -0 -4.49228e-08)
(0 -0 7.95733e-07)
(0 -0 1.52155e-06)
(0 -0 2.14115e-06)
(0 -0 2.66511e-06)
(0 -0 3.10373e-06)
(0 -0 3.4663e-06)
(0 -0 3.76104e-06)
(0 -0 3.99642e-06)
(0 -0 4.16834e-06)
(0 -0 0.000194915)
(0 -0 0.000187696)
(0 -0 0.000188802)
(0 -0 0.000199324)
(0 -0 0.000221049)
(0 -0 0.000256162)
(0 -0 0.000306673)
(0 -0 0.000373671)
(0 -0 0.00045639)
(0 -0 0.000551293)
(0 -0 0.000651523)
(0 -0 0.000747077)
(0 -0 0.000825963)
(0 -0 0.000876293)
(0 -0 0.000888873)
(0 -0 0.00085955)
(0 -0 0.000790507)
(0 -0 0.000689984)
(0 -0 0.000570451)
(0 -0 0.000445803)
(0 -0 0.000328495)
(0 -0 0.000227446)
(0 -0 0.000147182)
(0 -0 8.81873e-05)
(0 -0 4.80506e-05)
(0 -0 2.28669e-05)
(0 -0 8.45088e-06)
(0 -0 1.12764e-06)
(0 -0 -1.91538e-06)
(0 -0 -2.60571e-06)
(0 -0 -2.14152e-06)
(0 -0 -1.20186e-06)
(0 -0 -1.36604e-07)
(0 -0 8.92835e-07)
(0 -0 1.8231e-06)
(0 -0 2.63704e-06)
(0 -0 3.33694e-06)
(0 -0 3.93203e-06)
(0 -0 4.43317e-06)
(0 -0 4.85078e-06)
(0 -0 5.19421e-06)
(0 -0 5.47168e-06)
(0 -0 5.69174e-06)
(0 -0 5.85115e-06)
(0 -0 0.000139727)
(0 -0 0.000129913)
(0 -0 0.000126987)
(0 -0 0.000132346)
(0 -0 0.000147778)
(0 -0 0.000175339)
(0 -0 0.000216917)
(0 -0 0.000273607)
(0 -0 0.000344917)
(0 -0 0.000427961)
(0 -0 0.000516935)
(0 -0 0.000603219)
(0 -0 0.00067633)
(0 -0 0.000725703)
(0 -0 0.000742956)
(0 -0 0.000723978)
(0 -0 0.000670146)
(0 -0 0.000588187)
(0 -0 0.000488657)
(0 -0 0.00038355)
(0 -0 0.000283776)
(0 -0 0.000197289)
(0 -0 0.000128272)
(0 -0 7.7378e-05)
(0 -0 4.26911e-05)
(0 -0 2.09323e-05)
(0 -0 8.52321e-06)
(0 -0 2.29042e-06)
(0 -0 -2.11055e-07)
(0 -0 -6.64981e-07)
(0 -0 -1.2166e-07)
(0 -0 8.22515e-07)
(0 -0 1.86032e-06)
(0 -0 2.85075e-06)
(0 -0 3.73946e-06)
(0 -0 4.51304e-06)
(0 -0 5.17522e-06)
(0 -0 5.73578e-06)
(0 -0 6.20573e-06)
(0 -0 6.59547e-06)
(0 -0 6.91427e-06)
(0 -0 7.17023e-06)
(0 -0 7.37187e-06)
(0 -0 7.51561e-06)
(0 -0 8.32371e-05)
(0 -0 7.27877e-05)
(0 -0 6.78925e-05)
(0 -0 6.98745e-05)
(0 -0 8.03963e-05)
(0 -0 0.000101353)
(0 -0 0.000134498)
(0 -0 0.000180935)
(0 -0 0.00024046)
(0 -0 0.000310859)
(0 -0 0.000387439)
(0 -0 0.000463053)
(0 -0 0.000528848)
(0 -0 0.000575735)
(0 -0 0.000596292)
(0 -0 0.00058658)
(0 -0 0.000547251)
(0 -0 0.000483533)
(0 -0 0.00040403)
(0 -0 0.00031874)
(0 -0 0.000236925)
(0 -0 0.000165473)
(0 -0 0.000108146)
(0 -0 6.57185e-05)
(0 -0 3.67532e-05)
(0 -0 1.86026e-05)
(0 -0 8.31211e-06)
(0 -0 3.23e-06)
(0 -0 1.29706e-06)
(0 -0 1.08722e-06)
(0 -0 1.70744e-06)
(0 -0 2.64963e-06)
(0 -0 3.65227e-06)
(0 -0 4.59622e-06)
(0 -0 5.43676e-06)
(0 -0 6.16438e-06)
(0 -0 6.7843e-06)
(0 -0 7.30678e-06)
(0 -0 7.74288e-06)
(0 -0 8.10292e-06)
(0 -0 8.39598e-06)
(0 -0 8.62994e-06)
(0 -0 8.81325e-06)
(0 -0 8.94144e-06)
(0 -0 3.37873e-05)
(0 -0 2.38348e-05)
(0 -0 1.82448e-05)
(0 -0 1.81431e-05)
(0 -0 2.49748e-05)
(0 -0 4.04129e-05)
(0 -0 6.60388e-05)
(0 -0 0.000102933)
(0 -0 0.000151141)
(0 -0 0.000209079)
(0 -0 0.000273115)
(0 -0 0.000337537)
(0 -0 0.000395107)
(0 -0 0.000438232)
(0 -0 0.000460517)
(0 -0 0.0004583)
(0 -0 0.000431639)
(0 -0 0.000384396)
(0 -0 0.000323337)
(0 -0 0.000256542)
(0 -0 0.000191653)
(0 -0 0.000134481)
(0 -0 8.83258e-05)
(0 -0 5.40343e-05)
(0 -0 3.05925e-05)
(0 -0 1.59387e-05)
(0 -0 7.70761e-06)
(0 -0 3.74625e-06)
(0 -0 2.36724e-06)
(0 -0 2.39449e-06)
(0 -0 3.08832e-06)
(0 -0 4.02709e-06)
(0 -0 4.99419e-06)
(0 -0 5.89195e-06)
(0 -0 6.68514e-06)
(0 -0 7.36808e-06)
(0 -0 7.94737e-06)
(0 -0 8.43368e-06)
(0 -0 8.8381e-06)
(0 -0 9.17077e-06)
(0 -0 9.44057e-06)
(0 -0 9.65511e-06)
(0 -0 9.82272e-06)
(0 -0 9.93789e-06)
(0 -0 -3.87443e-06)
(0 -0 -1.27427e-05)
(0 -0 -1.82711e-05)
(0 -0 -1.95617e-05)
(0 -0 -1.54227e-05)
(0 -0 -4.43461e-06)
(0 -0 1.47808e-05)
(0 -0 4.3241e-05)
(0 -0 8.11771e-05)
(0 -0 0.000127547)
(0 -0 0.000179661)
(0 -0 0.000233108)
(0 -0 0.000282146)
(0 -0 0.000320596)
(0 -0 0.000343082)
(0 -0 0.000346291)
(0 -0 0.000329841)
(0 -0 0.000296436)
(0 -0 0.00025122)
(0 -0 0.000200546)
(0 -0 0.000150567)
(0 -0 0.000106077)
(0 -0 6.99126e-05)
(0 -0 4.29369e-05)
(0 -0 2.44864e-05)
(0 -0 1.3006e-05)
(0 -0 6.65122e-06)
(0 -0 3.71474e-06)
(0 -0 2.8443e-06)
(0 -0 3.09055e-06)
(0 -0 3.85363e-06)
(0 -0 4.79105e-06)
(0 -0 5.72745e-06)
(0 -0 6.58493e-06)
(0 -0 7.33698e-06)
(0 -0 7.9814e-06)
(0 -0 8.52607e-06)
(0 -0 8.982e-06)
(0 -0 9.36026e-06)
(0 -0 9.6708e-06)
(0 -0 9.92224e-06)
(0 -0 1.01219e-05)
(0 -0 1.02781e-05)
(0 -0 1.03842e-05)
(0 -0 -2.84063e-05)
(0 -0 -3.59406e-05)
(0 -0 -4.09863e-05)
(0 -0 -4.28615e-05)
(0 -0 -4.06226e-05)
(0 -0 -3.31043e-05)
(0 -0 -1.91422e-05)
(0 -0 2.18575e-06)
(0 -0 3.12316e-05)
(0 -0 6.73822e-05)
(0 -0 0.000108734)
(0 -0 0.000151991)
(0 -0 0.000192718)
(0 -0 0.000225999)
(0 -0 0.000247409)
(0 -0 0.000254025)
(0 -0 0.000245174)
(0 -0 0.000222636)
(0 -0 0.000190205)
(0 -0 0.000152766)
(0 -0 0.000115174)
(0 -0 8.13192e-05)
(0 -0 5.35927e-05)
(0 -0 3.28347e-05)
(0 -0 1.8649e-05)
(0 -0 9.89325e-06)
(0 -0 5.1569e-06)
(0 -0 3.10887e-06)
(0 -0 2.68222e-06)
(0 -0 3.12197e-06)
(0 -0 3.9488e-06)
(0 -0 4.88871e-06)
(0 -0 5.80213e-06)
(0 -0 6.62836e-06)
(0 -0 7.34845e-06)
(0 -0 7.96325e-06)
(0 -0 8.48173e-06)
(0 -0 8.91515e-06)
(0 -0 9.27451e-06)
(0 -0 9.56958e-06)
(0 -0 9.80873e-06)
(0 -0 9.99909e-06)
(0 -0 1.01488e-05)
(0 -0 1.02502e-05)
(0 -0 -4.0999e-05)
(0 -0 -4.71598e-05)
(0 -0 -5.15185e-05)
(0 -0 -5.35807e-05)
(0 -0 -5.26244e-05)
(0 -0 -4.7717e-05)
(0 -0 -3.78998e-05)
(0 -0 -2.23636e-05)
(0 -0 -6.93268e-07)
(0 -0 2.68166e-05)
(0 -0 5.88843e-05)
(0 -0 9.31189e-05)
(0 -0 0.000126171)
(0 -0 0.000154204)
(0 -0 0.000173633)
(0 -0 0.000181929)
(0 -0 0.000178261)
(0 -0 0.000163713)
(0 -0 0.000141017)
(0 -0 0.000113862)
(0 -0 8.60328e-05)
(0 -0 6.06462e-05)
(0 -0 3.96945e-05)
(0 -0 2.39624e-05)
(0 -0 1.32443e-05)
(0 -0 6.71594e-06)
(0 -0 3.30955e-06)
(0 -0 1.99589e-06)
(0 -0 1.93918e-06)
(0 -0 2.54302e-06)
(0 -0 3.42695e-06)
(0 -0 4.37338e-06)
(0 -0 5.27226e-06)
(0 -0 6.07712e-06)
(0 -0 6.77527e-06)
(0 -0 7.37008e-06)
(0 -0 7.87136e-06)
(0 -0 8.29057e-06)
(0 -0 8.6386e-06)
(0 -0 8.92501e-06)
(0 -0 9.15796e-06)
(0 -0 9.34436e-06)
(0 -0 9.49232e-06)
(0 -0 9.59324e-06)
(0 -0 -4.42913e-05)
(0 -0 -4.91651e-05)
(0 -0 -5.27722e-05)
(0 -0 -5.47727e-05)
(0 -0 -5.463e-05)
(0 -0 -5.16118e-05)
(0 -0 -4.49437e-05)
(0 -0 -3.3933e-05)
(0 -0 -1.81452e-05)
(0 -0 2.3468e-06)
(0 -0 2.67278e-05)
(0 -0 5.33109e-05)
(0 -0 7.961e-05)
(0 -0 0.000102668)
(0 -0 0.000119611)
(0 -0 0.000128286)
(0 -0 0.000127799)
(0 -0 0.000118744)
(0 -0 0.000103051)
(0 -0 8.34862e-05)
(0 -0 6.29823e-05)
(0 -0 4.40262e-05)
(0 -0 2.8267e-05)
(0 -0 1.64161e-05)
(0 -0 8.39302e-06)
(0 -0 3.6056e-06)
(0 -0 1.24459e-06)
(0 -0 5.11867e-07)
(0 -0 7.50626e-07)
(0 -0 1.48817e-06)
(0 -0 2.42155e-06)
(0 -0 3.37754e-06)
(0 -0 4.26943e-06)
(0 -0 5.06195e-06)
(0 -0 5.74739e-06)
(0 -0 6.33105e-06)
(0 -0 6.82335e-06)
(0 -0 7.23584e-06)
(0 -0 7.57928e-06)
(0 -0 7.86305e-06)
(0 -0 8.0951e-06)
(0 -0 8.28215e-06)
(0 -0 8.4323e-06)
(0 -0 8.53606e-06)
(0 -0 -4.13813e-05)
(0 -0 -4.5123e-05)
(0 -0 -4.8002e-05)
(0 -0 -4.97998e-05)
(0 -0 -5.01284e-05)
(0 -0 -4.84191e-05)
(0 -0 -4.40541e-05)
(0 -0 -3.645e-05)
(0 -0 -2.51819e-05)
(0 -0 -1.01786e-05)
(0 -0 8.07899e-06)
(0 -0 2.8428e-05)
(0 -0 4.90425e-05)
(0 -0 6.76552e-05)
(0 -0 8.19694e-05)
(0 -0 9.01672e-05)
(0 -0 9.13587e-05)
(0 -0 8.58136e-05)
(0 -0 7.48853e-05)
(0 -0 6.06514e-05)
(0 -0 4.53962e-05)
(0 -0 3.11121e-05)
(0 -0 1.91649e-05)
(0 -0 1.0187e-05)
(0 -0 4.17267e-06)
(0 -0 6.90563e-07)
(0 -0 -8.82228e-07)
(0 -0 -1.17409e-06)
(0 -0 -7.0891e-07)
(0 -0 1.33216e-07)
(0 -0 1.10767e-06)
(0 -0 2.07475e-06)
(0 -0 2.96537e-06)
(0 -0 3.75277e-06)
(0 -0 4.43291e-06)
(0 -0 5.01252e-06)
(0 -0 5.50242e-06)
(0 -0 5.91416e-06)
(0 -0 6.25835e-06)
(0 -0 6.54416e-06)
(0 -0 6.77935e-06)
(0 -0 6.97049e-06)
(0 -0 7.12572e-06)
(0 -0 7.23467e-06)
(0 -0 -3.51113e-05)
(0 -0 -3.79056e-05)
(0 -0 -4.01316e-05)
(0 -0 -4.16631e-05)
(0 -0 -4.22264e-05)
(0 -0 -4.13812e-05)
(0 -0 -3.86368e-05)
(0 -0 -3.35057e-05)
(0 -0 -2.55886e-05)
(0 -0 -1.47277e-05)
(0 -0 -1.17471e-06)
(0 -0 1.42829e-05)
(0 -0 3.03059e-05)
(0 -0 4.51482e-05)
(0 -0 5.69661e-05)
(0 -0 6.42246e-05)
(0 -0 6.60784e-05)
(0 -0 6.25938e-05)
(0 -0 5.47274e-05)
(0 -0 4.40637e-05)
(0 -0 3.24094e-05)
(0 -0 2.13829e-05)
(0 -0 1.21251e-05)
(0 -0 5.19218e-06)
(0 -0 6.17729e-07)
(0 -0 -1.92322e-06)
(0 -0 -2.92476e-06)
(0 -0 -2.89536e-06)
(0 -0 -2.2638e-06)
(0 -0 -1.3434e-06)
(0 -0 -3.36467e-07)
(0 -0 6.41646e-07)
(0 -0 1.53465e-06)
(0 -0 2.3219e-06)
(0 -0 3.00196e-06)
(0 -0 3.58255e-06)
(0 -0 4.07471e-06)
(0 -0 4.4899e-06)
(0 -0 4.83853e-06)
(0 -0 5.12957e-06)
(0 -0 5.37058e-06)
(0 -0 5.56803e-06)
(0 -0 5.73011e-06)
(0 -0 5.8456e-06)
(0 -0 -2.76792e-05)
(0 -0 -2.9714e-05)
(0 -0 -3.13878e-05)
(0 -0 -3.26421e-05)
(0 -0 -3.32884e-05)
(0 -0 -3.29837e-05)
(0 -0 -3.13363e-05)
(0 -0 -2.79387e-05)
(0 -0 -2.24234e-05)
(0 -0 -1.45856e-05)
(0 -0 -4.52657e-06)
(0 -0 7.22606e-06)
(0 -0 1.96801e-05)
(0 -0 3.14714e-05)
(0 -0 4.10995e-05)
(0 -0 4.7258e-05)
(0 -0 4.91634e-05)
(0 -0 4.67644e-05)
(0 -0 4.07541e-05)
(0 -0 3.23757e-05)
(0 -0 2.30952e-05)
(0 -0 1.42566e-05)
(0 -0 6.82837e-06)
(0 -0 1.29989e-06)
(0 -0 -2.27888e-06)
(0 -0 -4.16574e-06)
(0 -0 -4.76882e-06)
(0 -0 -4.51466e-06)
(0 -0 -3.76616e-06)
(0 -0 -2.79002e-06)
(0 -0 -1.75892e-06)
(0 -0 -7.71144e-07)
(0 -0 1.25927e-07)
(0 -0 9.15863e-07)
(0 -0 1.59901e-06)
(0 -0 2.18366e-06)
(0 -0 2.68091e-06)
(0 -0 3.10207e-06)
(0 -0 3.4573e-06)
(0 -0 3.75536e-06)
(0 -0 4.00367e-06)
(0 -0 4.20858e-06)
(0 -0 4.37833e-06)
(0 -0 4.50087e-06)
(0 -0 -2.053e-05)
(0 -0 -2.19795e-05)
(0 -0 -2.32089e-05)
(0 -0 -2.42079e-05)
(0 -0 -2.48495e-05)
(0 -0 -2.48627e-05)
(0 -0 -2.39302e-05)
(0 -0 -2.1708e-05)
(0 -0 -1.78608e-05)
(0 -0 -1.21621e-05)
(0 -0 -4.61824e-06)
(0 -0 4.41749e-06)
(0 -0 1.41936e-05)
(0 -0 2.36181e-05)
(0 -0 3.14426e-05)
(0 -0 3.65391e-05)
(0 -0 3.81879e-05)
(0 -0 3.62755e-05)
(0 -0 3.13257e-05)
(0 -0 2.43518e-05)
(0 -0 1.6583e-05)
(0 -0 9.16744e-06)
(0 -0 2.94576e-06)
(0 -0 -1.64801e-06)
(0 -0 -4.56014e-06)
(0 -0 -6.00773e-06)
(0 -0 -6.34311e-06)
(0 -0 -5.93824e-06)
(0 -0 -5.11159e-06)
(0 -0 -4.09816e-06)
(0 -0 -3.05049e-06)
(0 -0 -2.0553e-06)
(0 -0 -1.15399e-06)
(0 -0 -3.60201e-07)
(0 -0 3.27497e-07)
(0 -0 9.17665e-07)
(0 -0 1.42135e-06)
(0 -0 1.8496e-06)
(0 -0 2.21236e-06)
(0 -0 2.51815e-06)
(0 -0 2.77425e-06)
(0 -0 2.98692e-06)
(0 -0 3.16446e-06)
(0 -0 3.29397e-06)
(0 -0 -1.44355e-05)
(0 -0 -1.54505e-05)
(0 -0 -1.63379e-05)
(0 -0 -1.71204e-05)
(0 -0 -1.7715e-05)
(0 -0 -1.79018e-05)
(0 -0 -1.74182e-05)
(0 -0 -1.59694e-05)
(0 -0 -1.3249e-05)
(0 -0 -9.02319e-06)
(0 -0 -3.24094e-06)
(0 -0 3.85862e-06)
(0 -0 1.16872e-05)
(0 -0 1.93425e-05)
(0 -0 2.57572e-05)
(0 -0 2.99377e-05)
(0 -0 3.12221e-05)
(0 -0 2.9467e-05)
(0 -0 2.50906e-05)
(0 -0 1.89536e-05)
(0 -0 1.2124e-05)
(0 -0 5.6129e-06)
(0 -0 1.68674e-07)
(0 -0 -3.81799e-06)
(0 -0 -6.29566e-06)
(0 -0 -7.45723e-06)
(0 -0 -7.6193e-06)
(0 -0 -7.118e-06)
(0 -0 -6.24228e-06)
(0 -0 -5.20605e-06)
(0 -0 -4.14841e-06)
(0 -0 -3.14846e-06)
(0 -0 -2.2437e-06)
(0 -0 -1.44609e-06)
(0 -0 -7.53596e-07)
(0 -0 -1.5761e-07)
(0 -0 3.52737e-07)
(0 -0 7.88238e-07)
(0 -0 1.15856e-06)
(0 -0 1.47202e-06)
(0 -0 1.73574e-06)
(0 -0 1.95592e-06)
(0 -0 2.14088e-06)
(0 -0 2.2769e-06)
(0 -0 -9.66562e-06)
(0 -0 -1.03696e-05)
(0 -0 -1.10043e-05)
(0 -0 -1.16149e-05)
(0 -0 -1.21485e-05)
(0 -0 -1.24216e-05)
(0 -0 -1.22109e-05)
(0 -0 -1.12584e-05)
(0 -0 -9.28212e-06)
(0 -0 -6.04883e-06)
(0 -0 -1.47366e-06)
(0 -0 4.27756e-06)
(0 -0 1.07258e-05)
(0 -0 1.70991e-05)
(0 -0 2.24584e-05)
(0 -0 2.59088e-05)
(0 -0 2.68364e-05)
(0 -0 2.50855e-05)
(0 -0 2.10083e-05)
(0 -0 1.53653e-05)
(0 -0 9.1153e-06)
(0 -0 3.17488e-06)
(0 -0 -1.77325e-06)
(0 -0 -5.37079e-06)
(0 -0 -7.57042e-06)
(0 -0 -8.55041e-06)
(0 -0 -8.60434e-06)
(0 -0 -8.04472e-06)
(0 -0 -7.14092e-06)
(0 -0 -6.09281e-06)
(0 -0 -5.03063e-06)
(0 -0 -4.02855e-06)
(0 -0 -3.12166e-06)
(0 -0 -2.32096e-06)
(0 -0 -1.62419e-06)
(0 -0 -1.02283e-06)
(0 -0 -5.06253e-07)
(0 -0 -6.39739e-08)
(0 -0 3.13399e-07)
(0 -0 6.33963e-07)
(0 -0 9.04748e-07)
(0 -0 1.13184e-06)
(0 -0 1.32361e-06)
(0 -0 1.46549e-06)
(0 -0 -6.17523e-06)
(0 -0 -6.66414e-06)
(0 -0 -7.11935e-06)
(0 -0 -7.6003e-06)
(0 -0 -8.07499e-06)
(0 -0 -8.38547e-06)
(0 -0 -8.33667e-06)
(0 -0 -7.69757e-06)
(0 -0 -6.20595e-06)
(0 -0 -3.63262e-06)
(0 -0 1.26465e-07)
(0 -0 4.95249e-06)
(0 -0 1.04395e-05)
(0 -0 1.59054e-05)
(0 -0 2.05012e-05)
(0 -0 2.34036e-05)
(0 -0 2.40361e-05)
(0 -0 2.22391e-05)
(0 -0 1.83228e-05)
(0 -0 1.29807e-05)
(0 -0 7.09728e-06)
(0 -0 1.52333e-06)
(0 -0 -3.10453e-06)
(0 -0 -6.45143e-06)
(0 -0 -8.47373e-06)
(0 -0 -9.34028e-06)
(0 -0 -9.32918e-06)
(0 -0 -8.73693e-06)
(0 -0 -7.81956e-06)
(0 -0 -6.76747e-06)
(0 -0 -5.70502e-06)
(0 -0 -4.7032e-06)
(0 -0 -3.79567e-06)
(0 -0 -2.99297e-06)
(0 -0 -2.2928e-06)
(0 -0 -1.68688e-06)
(0 -0 -1.16487e-06)
(0 -0 -7.16618e-07)
(0 -0 -3.33001e-07)
(0 -0 -6.11239e-09)
(0 -0 2.70967e-07)
(0 -0 5.04236e-07)
(0 -0 7.02093e-07)
(0 -0 8.4913e-07)
(0 -0 -3.76067e-06)
(0 -0 -4.10579e-06)
(0 -0 -4.43777e-06)
(0 -0 -4.8252e-06)
(0 -0 -5.25052e-06)
(0 -0 -5.5738e-06)
(0 -0 -5.62005e-06)
(0 -0 -5.17836e-06)
(0 -0 -4.00217e-06)
(0 -0 -1.86762e-06)
(0 -0 1.34019e-06)
(0 -0 5.53313e-06)
(0 -0 1.03551e-05)
(0 -0 1.51867e-05)
(0 -0 1.92427e-05)
(0 -0 2.17521e-05)
(0 -0 2.21667e-05)
(0 -0 2.03259e-05)
(0 -0 1.65115e-05)
(0 -0 1.13705e-05)
(0 -0 5.73488e-06)
(0 -0 4.08996e-07)
(0 -0 -4.00323e-06)
(0 -0 -7.18342e-06)
(0 -0 -9.09038e-06)
(0 -0 -9.88603e-06)
(0 -0 -9.83722e-06)
(0 -0 -9.22892e-06)
(0 -0 -8.30764e-06)
(0 -0 -7.25708e-06)
(0 -0 -6.19758e-06)
(0 -0 -5.19804e-06)
(0 -0 -4.29131e-06)
(0 -0 -3.48774e-06)
(0 -0 -2.78519e-06)
(0 -0 -2.17565e-06)
(0 -0 -1.64914e-06)
(0 -0 -1.19583e-06)
(0 -0 -8.06862e-07)
(0 -0 -4.745e-07)
(0 -0 -1.91937e-07)
(0 -0 4.67385e-08)
(0 -0 2.49937e-07)
(0 -0 4.01443e-07)
(0 -0 -2.16967e-06)
(0 -0 -2.42158e-06)
(0 -0 -2.67165e-06)
(0 -0 -2.99413e-06)
(0 -0 -3.38143e-06)
(0 -0 -3.70672e-06)
(0 -0 -3.80975e-06)
(0 -0 -3.4948e-06)
(0 -0 -2.52779e-06)
(0 -0 -6.90219e-07)
(0 -0 2.13903e-06)
(0 -0 5.8927e-06)
(0 -0 1.025e-05)
(0 -0 1.46367e-05)
(0 -0 1.83148e-05)
(0 -0 2.05515e-05)
(0 -0 2.08199e-05)
(0 -0 1.89587e-05)
(0 -0 1.52289e-05)
(0 -0 1.02428e-05)
(0 -0 4.79338e-06)