/*--------------------------------*- C++ -*----------------------------------*\
| =========                 |                                                 |
| \\      /  F ield         | OpenFOAM: The Open Source CFD Toolbox           |
|  \\    /   O peration     | Version:  2412                                  |
|   \\  /    A nd           | Website:  www.openfoam.com                      |
|    \\/     M anipulation  |                                                 |
\*---------------------------------------------------------------------------*/
FoamFile
{
    version     2.0;
    format      ascii;
    arch        "LSB;label=32;scalar=64";
    class       volScalarField;
    location    "26";
    object      p;
}
// * * * * * * * * * * * * * * * * * * * * * * * * * * * * * * * * * * * * * //

dimensions      [0 2 -2 0 0 0 0];

internalField   nonuniform List<scalar> 
5285
(
-0.001478
-0.00134678
-0.00121964
-0.00109711
-0.000979659
-0.000867705
-0.000761589
-0.000661567
-0.000567814
-0.000480435
-0.000399464
-0.000324873
-0.000256573
-0.000194423
-0.000138235
-8.77828e-05
-4.28074e-05
-3.02288e-06
3.18765e-05
6.22103e-05
8.83063e-05
0.000110495
0.000129107
0.000144463
0.000156879
0.000166655
0.000174076
0.000179412
-0.00149323
-0.00136156
-0.00123392
-0.00111087
-0.000992857
-0.000880314
-0.000773592
-0.000672951
-0.000578577
-0.000490578
-0.000408996
-0.000333804
-0.000264918
-0.000202201
-0.000145468
-9.44945e-05
-4.90224e-05
-8.76684e-06
2.65773e-05
5.73295e-05
8.38178e-05
0.000106374
0.000125327
0.000141003
0.000153716
0.000163768
0.000171445
0.000177024
-0.00152283
-0.00139031
-0.00126173
-0.00113767
-0.00101859
-0.000904919
-0.000797029
-0.000695199
-0.000599625
-0.000510427
-0.000427657
-0.000351299
-0.000281276
-0.000217457
-0.000159662
-0.000107672
-6.12302e-05
-2.0055e-05
1.61579e-05
4.7728e-05
7.49837e-05
9.82575e-05
0.000117881
0.000134181
0.000147475
0.000158069
0.000166248
0.000172304
-0.0015651
-0.00143142
-0.00130155
-0.00117608
-0.00105551
-0.000940256
-0.000830727
-0.000727219
-0.000629948
-0.000539052
-0.000454596
-0.000376579
-0.000304934
-0.000239542
-0.000180229
-0.000126782
-7.89516e-05
-3.64568e-05
1.00436e-06
3.37503e-05
6.21101e-05
8.64175e-05
0.000107006
0.000124206
0.000138338
0.000149711
0.000158617
0.000165365
-0.00148243
-0.00135109
-0.00122402
-0.0011017
-0.0009846
-0.000873128
-0.000767614
-0.000668299
-0.000575342
-0.000488829
-0.000408774
-0.000335128
-0.000267783
-0.000206579
-0.00015131
-0.000101733
-5.75733e-05
-1.85318e-05
1.57081e-05
4.54749e-05
7.1103e-05
9.2928e-05
0.000111282
0.00012649
0.000138866
0.00014871
0.000156354
-0.00154124
-0.00140866
-0.00128009
-0.00115609
-0.00103712
-0.000923621
-0.000815966
-0.000714421
-0.000619174
-0.000530337
-0.00044795
-0.000371986
-0.000302354
-0.000238911
-0.000181465
-0.000129785
-8.36038e-05
-4.263e-05
-6.5514e-06
2.49575e-05
5.22297e-05
7.56007e-05
9.5404e-05
0.000111967
0.000125607
0.000136638
0.000145405
-0.0016085
-0.00147438
-0.00134397
-0.00121789
-0.00109665
-0.000980728
-0.000870522
-0.00076634
-0.000668402
-0.000576854
-0.000491761
-0.000413122
-0.000340869
-0.000274876
-0.000214967
-0.000160922
-0.000112484
-6.9367e-05
-3.12632e-05
2.15068e-06
3.12075e-05
5.62441e-05
7.75962e-05
9.55943e-05
0.00011056
0.00012282
0.000132716
0.000182922
0.000184763
0.000185189
0.000184392
0.000182512
0.000179688
0.000176053
0.000171733
0.000166846
0.0001615
0.000155795
0.000149825
0.000143672
0.00013741
0.000131104
0.000124811
0.000118579
0.000112449
0.000106453
0.000100618
9.49659e-05
8.95109e-05
8.42645e-05
7.92338e-05
7.44226e-05
6.98321e-05
6.54612e-05
6.13072e-05
5.73657e-05
5.36318e-05
5.00993e-05
4.6762e-05
4.36132e-05
4.06458e-05
3.7853e-05
3.52278e-05
3.2763e-05
3.04517e-05
2.82867e-05
2.62608e-05
2.43672e-05
2.25983e-05
2.09487e-05
1.94072e-05
0.000180793
0.000182753
0.000183299
0.000182637
0.000180892
0.000178197
0.000174684
0.00017048
0.0001657
0.000160454
0.000154843
0.000148958
0.000142884
0.000136694
0.000130455
0.000124223
0.000118047
0.000111967
0.000106018
0.000100225
9.46108e-05
8.91903e-05
8.39752e-05
7.89728e-05
7.41872e-05
6.96199e-05
6.527e-05
6.11349e-05
5.72106e-05
5.34922e-05
4.99738e-05
4.66492e-05
4.35118e-05
4.05548e-05
3.77714e-05
3.51546e-05
3.26974e-05
3.03929e-05
2.8234e-05
2.62136e-05
2.4325e-05
2.25605e-05
2.09148e-05
1.93769e-05
0.000176559
0.000178761
0.00017955
0.000179158
0.00017768
0.000175239
0.000171969
0.000167992
0.000163425
0.000158378
0.00015295
0.000147235
0.000141318
0.000135272
0.000129165
0.000123054
0.000116988
0.000111009
0.000105151
9.94419e-05
9.39032e-05
8.85514e-05
8.33985e-05
7.84525e-05
7.37179e-05
6.91968e-05
6.48886e-05
6.07913e-05
5.69012e-05
5.32136e-05
4.97232e-05
4.64239e-05
4.33094e-05
4.03731e-05
3.76083e-05
3.50084e-05
3.25663e-05
3.02755e-05
2.81288e-05
2.61195e-05
2.42407e-05
2.24849e-05
2.08472e-05
1.93163e-05
0.000170271
0.000172843
0.000174006
0.000174016
0.000172932
0.000170866
0.000167951
0.00016431
0.000160056
0.0001553
0.000150143
0.000144678
0.000138992
0.000133159
0.000127247
0.000121314
0.000115412
0.000109582
0.00010386
9.8275e-05
9.28487e-05
8.7599e-05
8.25386e-05
7.76764e-05
7.30177e-05
6.85653e-05
6.43193e-05
6.02783e-05
5.64391e-05
5.27977e-05
4.9349e-05
4.60874e-05
4.3007e-05
4.01015e-05
3.73646e-05
3.47898e-05
3.23704e-05
3.00999e-05
2.79715e-05
2.59786e-05
2.41145e-05
2.23719e-05
2.07459e-05
1.92257e-05
0.000162013
0.000165086
0.000166762
0.000167301
0.000166729
0.000165151
0.000162697
0.000159488
0.000155641
0.000151263
0.000146457
0.000141319
0.000135933
0.000130377
0.000124721
0.000119022
0.000113334
0.0001077
0.000102157
9.67338e-05
9.14554e-05
8.634e-05
8.14014e-05
7.66497e-05
7.20912e-05
6.77294e-05
6.35655e-05
5.95988e-05
5.5827e-05
5.22464e-05
4.88529e-05
4.56412e-05
4.26059e-05
3.97413e-05
3.70413e-05
3.44997e-05
3.21102e-05
2.98667e-05
2.77626e-05
2.57914e-05
2.39468e-05
2.22217e-05
2.06114e-05
1.91052e-05
0.00015189
0.000155614
0.000157946
0.00015913
0.000159177
0.000158186
0.000156287
0.000153601
0.000150242
0.000146321
0.000141941
0.000137197
0.000132177
0.000126958
0.000121612
0.0001162
0.000110773
0.000105379
0.000100054
9.48307e-05
8.97338e-05
8.47835e-05
7.99949e-05
7.53792e-05
7.0944e-05
6.66941e-05
6.26316e-05
5.87566e-05
5.50679e-05
5.15627e-05
4.82373e-05
4.50874e-05
4.2108e-05
3.92939e-05
3.66395e-05
3.41391e-05
3.17869e-05
2.95767e-05
2.75027e-05
2.55585e-05
2.37381e-05
2.20348e-05
2.04439e-05
1.89552e-05
0.000140014
0.000144567
0.000147705
0.000149641
0.000150397
0.000150079
0.000148816
0.000146728
0.000143931
0.000140535
0.000136646
0.000132358
0.000127762
0.000122936
0.000117951
0.000112872
0.000107751
0.000102637
9.75687e-05
9.25794e-05
8.76959e-05
8.29397e-05
7.83277e-05
7.38724e-05
6.95829e-05
6.5465e-05
6.15223e-05
5.77559e-05
5.41656e-05
5.07496e-05
4.7505e-05
4.44283e-05
4.15152e-05
3.8761e-05
3.61609e-05
3.37094e-05
3.14013e-05
2.92309e-05
2.71926e-05
2.52805e-05
2.3489e-05
2.18115e-05
2.02438e-05
1.8776e-05
0.000126137
0.000131797
0.000135934
0.000138728
0.000140285
0.000140725
0.000140179
0.000138768
0.000136609
0.000133812
0.000130483
0.000126719
0.000122609
0.000118235
0.000113668
0.000108973
0.000104207
9.94187e-05
9.46487e-05
8.99321e-05
8.52975e-05
8.07683e-05
7.63629e-05
7.20955e-05
6.79767e-05
6.40139e-05
6.02118e-05
5.65732e-05
5.30987e-05
4.97877e-05
4.66383e-05
4.36479e-05
4.08129e-05
3.81295e-05
3.55933e-05
3.31997e-05
3.09438e-05
2.88204e-05
2.68244e-05
2.49504e-05
2.3193e-05
2.15462e-05
2.0006e-05
1.85629e-05
0.000111017
0.000117693
0.000122805
0.000126508
0.000128928
0.000130194
0.000130434
0.000129768
0.000128313
0.00012618
0.000123475
0.000120295
0.00011673
0.000112862
0.000108765
0.000104506
0.000100141
9.57215e-05
9.12903e-05
8.68841e-05
8.25334e-05
7.82634e-05
7.40944e-05
7.00422e-05
6.61193e-05
6.23345e-05
5.86943e-05
5.52026e-05
5.18616e-05
4.86717e-05
4.56322e-05
4.27414e-05
3.99968e-05
3.73953e-05
3.49331e-05
3.26064e-05
3.04109e-05
2.8342e-05
2.63952e-05
2.45653e-05
2.28476e-05
2.12365e-05
1.97282e-05
1.83139e-05
9.50849e-05
0.000102723
0.000108788
0.000113412
0.000116721
0.000118843
0.000119903
0.000120019
0.000119307
0.000117878
0.000115837
0.00011328
0.000110299
0.000106976
0.000103387
9.95971e-05
9.5667e-05
9.16482e-05
8.75857e-05
8.35181e-05
7.94776e-05
7.54914e-05
7.15815e-05
6.77658e-05
6.40583e-05
6.04697e-05
5.70079e-05
5.36785e-05
5.04849e-05
4.7429e-05
4.45111e-05
4.17308e-05
3.90864e-05
3.65756e-05
3.41957e-05
3.19434e-05
2.98151e-05
2.78069e-05
2.59146e-05
2.4134e-05
2.24606e-05
2.08893e-05
1.94168e-05
1.80347e-05
7.84832e-05
8.7065e-05
9.4071e-05
9.96184e-05
0.000103826
0.00010682
0.000108719
0.000109641
0.000109698
0.000109001
0.000107652
0.000105749
0.000103382
0.000100634
9.75811e-05
9.42904e-05
9.08228e-05
8.72317e-05
8.35637e-05
7.9859e-05
7.61518e-05
7.2471e-05
6.88406e-05
6.52803e-05
6.18059e-05
5.84299e-05
5.51618e-05
5.20087e-05
4.89755e-05
4.60655e-05
4.32803e-05
4.06205e-05
3.80854e-05
3.56739e-05
3.33839e-05
3.1213e-05
2.91583e-05
2.72167e-05
2.53844e-05
2.36579e-05
2.20332e-05
2.05057e-05
1.90726e-05
1.7726e-05
6.14069e-05
7.0911e-05
7.88394e-05
8.52985e-05
9.04012e-05
9.4267e-05
9.70125e-05
9.87504e-05
9.95914e-05
9.96425e-05
9.90055e-05
9.77766e-05
9.60453e-05
9.38947e-05
9.14004e-05
8.86312e-05
8.56485e-05
8.2507e-05
7.92548e-05
7.59336e-05
7.25793e-05
6.92227e-05
6.58896e-05
6.26014e-05
5.93759e-05
5.62271e-05
5.31663e-05
5.02022e-05
4.73413e-05
4.45881e-05
4.19456e-05
3.94155e-05
3.69984e-05
3.46939e-05
3.25011e-05
3.04182e-05
2.84432e-05
2.65735e-05
2.48063e-05
2.31384e-05
2.15666e-05
2.00867e-05
1.86965e-05
1.73885e-05
4.40554e-05
5.44473e-05
6.32676e-05
7.06148e-05
7.65952e-05
8.13225e-05
8.49085e-05
8.74616e-05
8.90892e-05
8.98952e-05
8.99795e-05
8.94363e-05
8.83543e-05
8.68158e-05
8.48966e-05
8.26655e-05
8.01847e-05
7.751e-05
7.46905e-05
7.17694e-05
6.87843e-05
6.57676e-05
6.27468e-05
5.97452e-05
5.6782e-05
5.38734e-05
5.10321e-05
4.82684e-05
4.55903e-05
4.30038e-05
4.05131e-05
3.81213e-05
3.58299e-05
3.36397e-05
3.15506e-05
2.95619e-05
2.76721e-05
2.58797e-05
2.41822e-05
2.25773e-05
2.10623e-05
1.96337e-05
1.82896e-05
1.70232e-05
2.66143e-05
3.78473e-05
4.75183e-05
5.5719e-05
6.25492e-05
6.81162e-05
7.25263e-05
7.58833e-05
7.82906e-05
7.98489e-05
8.06549e-05
8.0801e-05
8.03743e-05
7.9456e-05
7.81213e-05
7.64392e-05
7.44721e-05
7.22764e-05
6.99023e-05
6.73943e-05
6.47913e-05
6.21271e-05
5.94311e-05
5.6728e-05
5.40389e-05
5.13814e-05
4.87701e-05
4.62168e-05
4.37309e-05
4.13198e-05
3.89892e-05
3.67432e-05
3.45847e-05
3.25154e-05
3.05362e-05
2.86472e-05
2.68479e-05
2.51374e-05
2.35142e-05
2.19763e-05
2.05219e-05
1.91479e-05
1.78531e-05
1.66312e-05
9.25321e-06
2.12704e-05
3.17415e-05
4.07518e-05
4.83942e-05
5.47695e-05
5.99779e-05
6.41186e-05
6.72901e-05
6.95892e-05
7.11097e-05
7.19412e-05
7.21687e-05
7.1872e-05
7.11255e-05
6.99976e-05
6.85509e-05
6.68421e-05
6.49221e-05
6.28363e-05
6.06249e-05
5.83231e-05
5.59616e-05
5.35668e-05
5.11613e-05
4.87642e-05
4.63918e-05
4.40574e-05
4.17718e-05
3.95438e-05
3.73805e-05
3.52872e-05
3.32678e-05
3.13253e-05
2.94615e-05
2.76774e-05
2.59734e-05
2.43493e-05
2.28043e-05
2.13373e-05
1.99468e-05
1.86308e-05
1.73882e-05
1.62134e-05
-7.87567e-06
4.8609e-06
1.60739e-05
2.58417e-05
3.42507e-05
4.13947e-05
4.73678e-05
5.22637e-05
5.61761e-05
5.91976e-05
6.14181e-05
6.29242e-05
6.37985e-05
6.4119e-05
6.39587e-05
6.33853e-05
6.24609e-05
6.12425e-05
5.97812e-05
5.81234e-05
5.631e-05
5.43774e-05
5.23577e-05
5.02785e-05
4.8164e-05
4.60349e-05
4.39087e-05
4.18002e-05
3.97218e-05
3.76836e-05
3.56938e-05
3.37591e-05
3.18845e-05
3.00741e-05
2.83306e-05
2.6656e-05
2.50515e-05
2.35178e-05
2.20548e-05
2.06621e-05
1.93389e-05
1.80837e-05
1.68961e-05
1.5771e-05
-2.46386e-05
-1.12533e-05
6.36925e-07
1.1104e-05
2.02276e-05
2.80942e-05
3.47916e-05
4.04077e-05
4.50313e-05
4.875e-05
5.16497e-05
5.38138e-05
5.53219e-05
5.62497e-05
5.66686e-05
5.66451e-05
5.62408e-05
5.55121e-05
5.45107e-05
5.32831e-05
5.1871e-05
5.03118e-05
4.86385e-05
4.68803e-05
4.50623e-05
4.32067e-05
4.13325e-05
3.94556e-05
3.759e-05
3.57469e-05
3.3936e-05
3.21649e-05
3.044e-05
2.87662e-05
2.71474e-05
2.55864e-05
2.40854e-05
2.26457e-05
2.12681e-05
1.99529e-05
1.86999e-05
1.75083e-05
1.63782e-05
1.53052e-05
-4.09208e-05
-2.69616e-05
-1.44627e-05
-3.35918e-06
6.42186e-06
1.49598e-05
2.23357e-05
2.86318e-05
3.39312e-05
3.83166e-05
4.18697e-05
4.46698e-05
4.67935e-05
4.8314e-05
4.93006e-05
4.98183e-05
4.99277e-05
4.96847e-05
4.91406e-05
4.83423e-05
4.7332e-05
4.61477e-05
4.48233e-05
4.33889e-05
4.18711e-05
4.02929e-05
3.86748e-05
3.70339e-05
3.53854e-05
3.37419e-05
3.21141e-05
3.0511e-05
2.89398e-05
2.74066e-05
2.59162e-05
2.44724e-05
2.30782e-05
2.17358e-05
2.04466e-05
1.92117e-05
1.80316e-05
1.69061e-05
1.58359e-05
1.48171e-05
-5.66264e-05
-4.21697e-05
-2.91335e-05
-1.74594e-05
-7.08123e-06
2.07297e-06
1.00777e-05
1.70091e-05
2.29446e-05
2.79619e-05
3.21378e-05
3.55477e-05
3.82647e-05
4.03591e-05
4.18978e-05
4.29441e-05
4.35572e-05
4.37922e-05
4.37e-05
4.33273e-05
4.27165e-05
4.19061e-05
4.09307e-05
3.98212e-05
3.86051e-05
3.73067e-05
3.59473e-05
3.45455e-05
3.31173e-05
3.16766e-05
3.02354e-05
2.88034e-05
2.73893e-05
2.6e-05
2.46412e-05
2.33177e-05
2.20332e-05
2.07908e-05
1.95928e-05
1.84408e-05
1.7336e-05
1.62789e-05
1.52707e-05
1.43081e-05
-7.16773e-05
-5.68e-05
-4.32985e-05
-3.1121e-05
-2.02082e-05
-1.04952e-05
-1.91426e-06
5.60472e-06
1.21334e-05
1.7744e-05
2.25086e-05
2.64984e-05
2.97827e-05
3.24286e-05
3.45005e-05
3.60595e-05
3.71632e-05
3.78656e-05
3.82168e-05
3.82632e-05
3.80472e-05
3.76075e-05
3.69791e-05
3.61935e-05
3.52792e-05
3.42611e-05
3.31617e-05
3.20005e-05
3.07946e-05
2.95591e-05
2.83067e-05
2.70486e-05
2.57941e-05
2.45512e-05
2.33266e-05
2.21259e-05
2.09538e-05
1.98138e-05
1.87093e-05
1.76424e-05
1.66151e-05
1.56283e-05
1.4684e-05
1.37795e-05
-8.60118e-05
-7.07895e-05
-5.68945e-05
-4.42811e-05
-3.28968e-05
-2.26839e-05
-1.3581e-05
-5.52427e-06
1.5521e-06
7.71499e-06
1.30315e-05
1.75684e-05
2.1391e-05
2.45631e-05
2.71461e-05
2.91989e-05
3.07773e-05
3.19338e-05
3.27175e-05
3.31742e-05
3.3346e-05
3.32715e-05
3.29861e-05
3.25218e-05
3.19074e-05
3.11689e-05
3.03293e-05
2.94091e-05
2.84265e-05
2.73973e-05
2.63354e-05
2.52528e-05
2.41598e-05
2.30653e-05
2.19769e-05
2.09011e-05
1.98432e-05
1.88078e-05
1.77986e-05
1.68188e-05
1.58708e-05
1.49562e-05
1.40775e-05
1.32326e-05
-9.95835e-05
-8.40895e-05
-6.98709e-05
-5.68883e-05
-4.50955e-05
-3.44416e-05
-2.48719e-05
-1.63285e-05
-8.75134e-06
-2.07908e-06
3.75043e-06
8.79927e-06
1.31288e-05
1.67993e-05
1.98692e-05
2.23946e-05
2.44293e-05
2.60241e-05
2.72272e-05
2.80831e-05
2.86336e-05
2.89172e-05
2.8969e-05
2.88215e-05
2.85038e-05
2.80425e-05
2.74612e-05
2.67814e-05
2.60218e-05
2.51992e-05
2.43284e-05
2.34222e-05
2.24919e-05
2.15471e-05
2.05964e-05
1.9647e-05
1.87049e-05
1.77756e-05
1.68635e-05
1.59723e-05
1.51052e-05
1.42643e-05
1.34527e-05
1.26688e-05
-0.000112359
-9.66637e-05
-8.21892e-05
-6.8902e-05
-5.67625e-05
-4.57262e-05
-3.57446e-05
-2.67659e-05
-1.87358e-05
-1.15981e-05
-5.29599e-06
2.28191e-07
5.03166e-06
9.1709e-06
1.27011e-05
1.56759e-05
1.81465e-05
2.01621e-05
2.17692e-05
2.30115e-05
2.39299e-05
2.45624e-05
2.49442e-05
2.51075e-05
2.50818e-05
2.4894e-05
2.45685e-05
2.4127e-05
2.35892e-05
2.29726e-05
2.22927e-05
2.15631e-05
2.07959e-05
2.00016e-05
1.91895e-05
1.83674e-05
1.75424e-05
1.67204e-05
1.59066e-05
1.51053e-05
1.43204e-05
1.35545e-05
1.28112e-05
1.20896e-05
-0.000124318
-0.000108487
-9.3821e-05
-8.02917e-05
-6.78653e-05
-5.65037e-05
-4.61645e-05
-3.68017e-05
-2.83663e-05
-2.08078e-05
-1.40741e-05
-8.11223e-06
-2.86921e-06
1.70772e-06
5.67046e-06
9.06962e-06
1.19542e-05
1.43712e-05
1.63656e-05
1.79797e-05
1.92535e-05
2.02244e-05
2.09271e-05
2.13939e-05
2.16542e-05
2.17353e-05
2.16616e-05
2.14556e-05
2.11374e-05
2.07252e-05
2.02352e-05
1.96816e-05
1.90774e-05
1.84336e-05
1.77604e-05
1.70663e-05
1.63591e-05
1.56452e-05
1.49306e-05
1.42202e-05
1.35185e-05
1.28286e-05
1.21546e-05
1.14963e-05
-0.000135449
-0.000119545
-0.000104748
-9.10353e-05
-7.83795e-05
-6.67479e-05
-5.61041e-05
-4.64072e-05
-3.7614e-05
-2.9679e-05
-2.2555e-05
-1.61937e-05
-1.05462e-05
-5.56363e-06
-1.19739e-06
2.60012e-06
5.87531e-06
8.67305e-06
1.10364e-05
1.30063e-05
1.46217e-05
1.59191e-05
1.69327e-05
1.76944e-05
1.82335e-05
1.85773e-05
1.87507e-05
1.87762e-05
1.86746e-05
1.84645e-05
1.81625e-05
1.77838e-05
1.73416e-05
1.6848e-05
1.63135e-05
1.57475e-05
1.51583e-05
1.45531e-05
1.39383e-05
1.33194e-05
1.27016e-05
1.20885e-05
1.14847e-05
1.08905e-05
-0.000145751
-0.000129829
-0.000114958
-0.000101119
-8.82882e-05
-7.64397e-05
-6.55421e-05
-5.55601e-05
-4.64555e-05
-3.81878e-05
-3.07147e-05
-2.39922e-05
-1.79756e-05
-1.26199e-05
-7.87989e-06
-3.71101e-06
-6.9509e-08
3.08717e-06
5.80014e-06
8.10883e-06
1.00508e-05
1.16616e-05
1.29748e-05
1.40216e-05
1.48313e-05
1.5431e-05
1.58456e-05
1.60979e-05
1.62089e-05
1.61976e-05
1.60813e-05
1.58755e-05
1.5594e-05
1.52495e-05
1.48531e-05
1.44148e-05
1.39435e-05
1.34469e-05
1.29322e-05
1.24053e-05
1.18718e-05
1.1336e-05
1.0803e-05
1.02735e-05
-0.000155227
-0.000139342
-0.000124449
-0.000110535
-9.75811e-05
-8.55659e-05
-7.44634e-05
-6.42434e-05
-5.48724e-05
-4.63149e-05
-3.85331e-05
-3.14874e-05
-2.51372e-05
-1.9441e-05
-1.43574e-05
-9.84463e-06
-5.86181e-06
-2.36875e-06
6.7364e-07
3.30305e-06
5.55563e-06
7.46582e-06
9.06625e-06
1.03876e-05
1.14587e-05
1.23064e-05
1.29555e-05
1.3429e-05
1.37479e-05
1.39317e-05
1.39979e-05
1.39624e-05
1.38397e-05
1.36428e-05
1.33834e-05
1.3072e-05
1.2718e-05
1.23298e-05
1.1915e-05
1.14801e-05
1.10312e-05
1.05731e-05
1.01112e-05
9.64693e-06
-0.000163891
-0.00014809
-0.000133224
-0.000119283
-0.000106254
-9.41191e-05
-8.28582e-05
-7.24451e-05
-6.28513e-05
-5.40455e-05
-4.59945e-05
-3.86629e-05
-3.20139e-05
-2.601e-05
-2.06129e-05
-1.57841e-05
-1.14853e-05
-7.67897e-06
-4.32803e-06
-1.39664e-06
1.14983e-06
3.34456e-06
5.21917e-06
6.80362e-06
8.12612e-06
9.21312e-06
1.00893e-05
1.07776e-05
1.12992e-05
1.16735e-05
1.19183e-05
1.20501e-05
1.20836e-05
1.20323e-05
1.19083e-05
1.17226e-05
1.14851e-05
1.12047e-05
1.08894e-05
1.05464e-05
1.0182e-05
9.80154e-06
9.41099e-06
9.01212e-06
-0.000171758
-0.000156084
-0.000141289
-0.000127366
-0.000114306
-0.000102097
-9.07212e-05
-8.01579e-05
-7.03826e-05
-6.13686e-05
-5.30867e-05
-4.55055e-05
-3.85922e-05
-3.23127e-05
-2.6632e-05
-2.15149e-05
-1.69259e-05
-1.28296e-05
-9.19142e-06
-5.97729e-06
-3.15424e-06
-6.90442e-07
1.4446e-06
3.27995e-06
4.84315e-06
6.16016e-06
7.25535e-06
8.15144e-06
8.86957e-06
9.42927e-06
9.84858e-06
1.0144e-05
1.03307e-05
1.04225e-05
1.04319e-05
1.03703e-05
1.0248e-05
1.00745e-05
9.85805e-06
9.6063e-06
9.32611e-06
9.02323e-06
8.70395e-06
8.37056e-06
-0.000178849
-0.000163341
-0.000148656
-0.000134792
-0.000121743
-0.000109501
-9.80513e-05
-8.73781e-05
-7.74609e-05
-6.82769e-05
-5.98009e-05
-5.20053e-05
-4.48611e-05
-3.83376e-05
-3.2403e-05
-2.70252e-05
-2.21713e-05
-1.78087e-05
-1.39047e-05
-1.04274e-05
-7.34549e-06
-4.62858e-06
-2.24739e-06
-1.7385e-07
1.61879e-06
3.1559e-06
4.46138e-06
5.55771e-06
6.46585e-06
7.20532e-06
7.7942e-06
8.24919e-06
8.58563e-06
8.8176e-06
8.95798e-06
9.01853e-06
9.00994e-06
8.94194e-06
8.82338e-06
8.66219e-06
8.46567e-06
8.23996e-06
7.99172e-06
7.72369e-06
-0.000185188
-0.00016988
-0.000155342
-0.000141574
-0.000128574
-0.000116336
-0.000104851
-9.41059e-05
-8.4084e-05
-7.47664e-05
-6.61315e-05
-5.81554e-05
-5.08126e-05
-4.40757e-05
-3.79163e-05
-3.23048e-05
-2.72114e-05
-2.26058e-05
-1.84576e-05
-1.47369e-05
-1.14141e-05
-8.46032e-06
-5.84765e-06
-3.54907e-06
-1.53872e-06
2.08065e-07
1.71467e-06
3.00315e-06
4.09426e-06
5.00737e-06
5.76054e-06
6.37054e-06
6.85284e-06
7.22173e-06
7.49033e-06
7.6707e-06
7.77386e-06
7.80986e-06
7.7879e-06
7.71628e-06
7.60265e-06
7.45352e-06
7.27589e-06
7.07294e-06
-0.000190801
-0.000175724
-0.000161365
-0.000147726
-0.000134809
-0.000122611
-0.000111126
-0.000100344
-9.02527e-05
-8.08357e-05
-7.20754e-05
-6.39513e-05
-5.6441e-05
-4.95205e-05
-4.31643e-05
-3.73458e-05
-3.20377e-05
-2.72123e-05
-2.28413e-05
-1.88969e-05
-1.53513e-05
-1.21772e-05
-9.34797e-06
-6.83783e-06
-4.62186e-06
-2.67619e-06
-9.78073e-07
4.94091e-07
1.76069e-06
2.8409e-06
3.75267e-06
4.51272e-06
5.13662e-06
5.63878e-06
6.03251e-06
6.33007e-06
6.54275e-06
6.68091e-06
6.75404e-06
6.77074e-06
6.739e-06
6.66567e-06
6.55803e-06
6.41969e-06
-0.000195716
-0.000180896
-0.000166744
-0.000153266
-0.000140463
-0.000128337
-0.000116885
-0.000106099
-9.59702e-05
-8.64863e-05
-7.76323e-05
-6.93909e-05
-6.17429e-05
-5.46674e-05
-4.81416e-05
-4.21419e-05
-3.66435e-05
-3.16209e-05
-2.70484e-05
-2.28999e-05
-1.91496e-05
-1.57717e-05
-1.2741e-05
-1.0033e-05
-7.62378e-06
-5.49033e-06
-3.61063e-06
-1.96363e-06
-5.2936e-07
7.11044e-07
1.77534e-06
2.68017e-06
3.44107e-06
4.07251e-06
4.58793e-06
4.99976e-06
5.31949e-06
5.5577e-06
5.72414e-06
5.8277e-06
5.87665e-06
5.87812e-06
5.83969e-06
5.76533e-06
-0.000199964
-0.000185424
-0.000171505
-0.000158213
-0.000145552
-0.000133527
-0.000122137
-0.000111378
-0.000101242
-9.17217e-05
-8.28037e-05
-7.44742e-05
-6.6717e-05
-5.95137e-05
-5.28447e-05
-4.66887e-05
-4.10236e-05
-3.58262e-05
-3.10729e-05
-2.67398e-05
-2.28027e-05
-1.92375e-05
-1.60205e-05
-1.31284e-05
-1.05385e-05
-8.2286e-06
-6.17749e-06
-4.36476e-06
-2.77095e-06
-1.37756e-06
-1.67096e-07
8.76907e-07
1.76991e-06
2.52637e-06
3.15978e-06
3.68268e-06
4.1067e-06
4.44262e-06
4.70039e-06
4.88914e-06
5.01737e-06
5.0925e-06
5.12232e-06
5.11113e-06
-0.000203577
-0.000189338
-0.000175674
-0.000162591
-0.000150099
-0.000138199
-0.000126898
-0.000116192
-0.000106078
-9.65488e-05
-8.75947e-05
-7.92046e-05
-7.13648e-05
-6.40599e-05
-5.72726e-05
-5.09844e-05
-4.51754e-05
-3.98248e-05
-3.49111e-05
-3.04123e-05
-2.63061e-05
-2.257e-05
-1.91818e-05
-1.61194e-05
-1.33613e-05
-1.08864e-05
-8.6742e-06
-6.70504e-06
-4.96e-06
-3.42104e-06
-2.07101e-06
-8.93658e-07
1.26312e-07
1.00329e-06
1.75076e-06
2.38131e-06
2.90668e-06
3.33777e-06
3.6847e-06
3.95678e-06
4.16273e-06
4.31019e-06
4.40718e-06
4.45823e-06
-0.000206582
-0.000192662
-0.000179272
-0.000166421
-0.000154119
-0.000142374
-0.000131183
-0.000120555
-0.000110488
-0.000100976
-9.20116e-05
-8.35865e-05
-7.56894e-05
-6.83073e-05
-6.14257e-05
-5.50281e-05
-4.90971e-05
-4.36141e-05
-3.85596e-05
-3.39136e-05
-2.96555e-05
-2.57646e-05
-2.222e-05
-1.90011e-05
-1.60874e-05
-1.34589e-05
-1.1096e-05
-8.97982e-06
-7.09204e-06
-5.41512e-06
-3.93231e-06
-2.62766e-06
-1.48608e-06
-4.93303e-07
3.64073e-07
1.09864e-06
1.72219e-06
2.24569e-06
2.6794e-06
3.03278e-06
3.3147e-06
3.53301e-06
3.69591e-06
3.80817e-06
-0.000209003
-0.000195416
-0.000182316
-0.000169715
-0.000157623
-0.000146052
-0.000135003
-0.000124477
-0.000114479
-0.000105008
-9.60581e-05
-8.76219e-05
-7.96912e-05
-7.22553e-05
-6.53019e-05
-5.88169e-05
-5.2785e-05
-4.71898e-05
-4.20137e-05
-3.72385e-05
-3.28456e-05
-2.88157e-05
-2.51295e-05
-2.17677e-05
-1.87111e-05
-1.59406e-05
-1.34376e-05
-1.1184e-05
-9.16221e-06
-7.35518e-06
-5.74664e-06
-4.32099e-06
-3.06342e-06
-1.95985e-06
-9.96975e-07
-1.62274e-07
5.56029e-07
1.16897e-06
1.68686e-06
2.11927e-06
2.47522e-06
2.76271e-06
2.99009e-06
3.16232e-06
-0.000160633
-0.000149252
-0.000138361
-0.000127962
-0.000118058
-0.00010865
-9.97368e-05
-9.13124e-05
-8.33706e-05
-7.59032e-05
-6.88997e-05
-6.23485e-05
-5.62362e-05
-5.05483e-05
-4.52693e-05
-4.03828e-05
-3.58718e-05
-3.17187e-05
-2.79057e-05
-2.44147e-05
-2.12278e-05
-1.83269e-05
-1.56945e-05
-1.33133e-05
-1.11663e-05
-9.23722e-06
-7.5102e-06
-5.97008e-06
-4.60236e-06
-3.3932e-06
-2.32946e-06
-1.39873e-06
-5.89285e-07
1.09904e-07
7.09184e-07
1.21821e-06
1.64607e-06
2.00091e-06
2.29118e-06
2.52214e-06
-0.00154387
-0.00140914
-0.00127885
-0.00115352
-0.00103365
-0.000919659
-0.000811864
-0.000710506
-0.000615742
-0.000527647
-0.000446226
-0.000371414
-0.000303085
-0.000241061
-0.000185115
-0.000134983
-9.03692e-05
-5.09544e-05
-1.6402e-05
1.36348e-05
3.95075e-05
6.15665e-05
8.01569e-05
9.56125e-05
0.00010825
0.000118382
-0.00171447
-0.00157687
-0.00144287
-0.00131313
-0.00118816
-0.00106847
-0.000954482
-0.000846522
-0.000744842
-0.000649607
-0.000560907
-0.000478757
-0.000403109
-0.000333851
-0.000270818
-0.000213799
-0.000162543
-0.000116768
-7.6167e-05
-4.04156e-05
-9.17787e-06
1.78877e-05
4.11225e-05
6.08632e-05
7.74369e-05
9.11558e-05
0.00010232
-0.001736
-0.00160014
-0.00146771
-0.00133935
-0.00121557
-0.00109687
-0.000983665
-0.000876297
-0.000775012
-0.000679983
-0.000591307
-0.000509011
-0.000433057
-0.000363347
-0.000299731
-0.000242011
-0.000189953
-0.000143289
-0.000101729
-6.49611e-05
-3.26646e-05
-4.51122e-06
1.9828e-05
4.06782e-05
5.83562e-05
7.31665e-05
8.5399e-05
-0.00175638
-0.00162222
-0.00149135
-0.00136437
-0.0012418
-0.00112413
-0.00101177
-0.000905063
-0.000804249
-0.000709508
-0.000620945
-0.000538597
-0.000462435
-0.000392373
-0.000328274
-0.000269956
-0.000217196
-0.000169744
-0.000127321
-8.96308e-05
-5.6366e-05
-2.72109e-05
-1.84849e-06
2.00355e-05
3.87481e-05
5.45855e-05
6.78309e-05
-0.00177182
-0.00163971
-0.00151073
-0.00138549
-0.00126449
-0.0011482
-0.00103702
-0.000931286
-0.00083125
-0.000737089
-0.000648915
-0.000566771
-0.000490639
-0.000420445
-0.000356066
-0.000297332
-0.000244037
-0.000195945
-0.000152792
-0.000114297
-8.01659e-05
-5.00977e-05
-2.37878e-05
-9.33838e-07
1.87608e-05
3.55831e-05
4.98088e-05
-0.00178077
-0.00165115
-0.00152453
-0.00140147
-0.00128246
-0.00116797
-0.00105838
-0.000954014
-0.000855132
-0.000761909
-0.00067446
-0.000592836
-0.000517029
-0.000446976
-0.000382566
-0.000323644
-0.000270021
-0.000221474
-0.000177757
-0.000138604
-0.000103737
-7.28682e-05
-4.5708e-05
-2.19668e-05
-1.35961e-06
1.63902e-05
3.15493e-05
-0.00178286
-0.00165617
-0.00153232
-0.00141188
-0.00129529
-0.00118301
-0.00107541
-0.000972812
-0.000875459
-0.000783533
-0.00069715
-0.000616367
-0.000541185
-0.000471553
-0.000407373
-0.000348505
-0.000294773
-0.000245972
-0.000201873
-0.000162226
-0.000126769
-9.52304e-05
-6.73351e-05
-4.28074e-05
-2.13753e-05
-2.77353e-06
1.32542e-05
-0.00177782
-0.0016545
-0.00153386
-0.00141645
-0.00130271
-0.00119304
-0.00108784
-0.000987386
-0.000891934
-0.000801658
-0.000716678
-0.000637056
-0.000562802
-0.000493874
-0.000430187
-0.000371617
-0.000318004
-0.000269158
-0.000224868
-0.0001849
-0.000149011
-0.000116944
-8.84398e-05
-6.32384e-05
-4.1081e-05
-2.1715e-05
-4.89546e-06
-0.00176565
-0.00164611
-0.00152911
-0.00141514
-0.00130463
-0.00119798
-0.00109554
-0.0009976
-0.000904401
-0.000816114
-0.000732861
-0.000654709
-0.000581674
-0.000513727
-0.000450794
-0.000392765
-0.000339496
-0.000290815
-0.000246526
-0.000206416
-0.000170255
-0.000137807
-0.000108829
-8.30737e-05
-6.02989e-05
-4.02649e-05
-2.2739e-05
-0.00174659
-0.00163123
-0.00151824
-0.00140809
-0.00130118
-0.00119789
-0.00109856
-0.00100347
-0.000912852
-0.000826866
-0.00074564
-0.000669244
-0.000597703
-0.000530995
-0.000469061
-0.000411805
-0.000359098
-0.000310785
-0.000266687
-0.000226609
-0.000190341
-0.00015766
-0.000128343
-0.000102158
-7.88781e-05
-5.82776e-05
-4.01367e-05
-0.00172113
-0.00161029
-0.00150164
-0.00139563
-0.00129264
-0.00119303
-0.00109712
-0.00100517
-0.000917404
-0.000833995
-0.000755062
-0.000680679
-0.000610877
-0.000545645
-0.000484936
-0.000428666
-0.000376724
-0.00032897
-0.000285244
-0.000245367
-0.000209146
-0.000176379
-0.000146857
-0.000120367
-9.66951e-05
-7.56318e-05
-5.69704e-05
-0.00168991
-0.00158388
-0.00147985
-0.00137825
-0.00127944
-0.00118376
-0.0010915
-0.00100294
-0.000918275
-0.000837675
-0.00076126
-0.00068911
-0.000621262
-0.000557713
-0.000498428
-0.000443337
-0.000392342
-0.000345323
-0.000302134
-0.000262615
-0.00022659
-0.000193876
-0.000164279
-0.000137604
-0.000113652
-9.22296e-05
-7.31426e-05
-0.0016537
-0.00155269
-0.0014535
-0.00135651
-0.00126208
-0.00117052
-0.00108212
-0.000997133
-0.000915754
-0.000838148
-0.000764436
-0.0006947
-0.000628982
-0.00056729
-0.000509599
-0.000455853
-0.000405968
-0.000359838
-0.000317336
-0.000278318
-0.000242626
-0.000210094
-0.000180545
-0.000153799
-0.000129676
-0.000107995
-8.85758e-05
-0.00161332
-0.00151749
-0.00142327
-0.00133104
-0.00124112
-0.00115382
-0.00106941
-0.000988133
-0.000910177
-0.000835703
-0.000764833
-0.00069765
-0.000634204
-0.000574511
-0.000518554
-0.00046629
-0.000417651
-0.000372545
-0.000330861
-0.000292472
-0.000257236
-0.000225004
-0.000195615
-0.000168908
-0.000144715
-0.000122871
-0.00010321
-0.00156964
-0.00147906
-0.00138988
-0.00130247
-0.00121714
-0.00113418
-0.00105384
-0.000976351
-0.000901905
-0.000830655
-0.000762722
-0.000698194
-0.000637123
-0.000579534
-0.000525421
-0.000474752
-0.000427471
-0.000383502
-0.000342747
-0.000305097
-0.000270426
-0.000238599
-0.000209474
-0.000182904
-0.000158736
-0.00013682
-0.000117003
-0.00152347
-0.00143814
-0.00135403
-0.00127145
-0.00119072
-0.00111211
-0.00103586
-0.000962199
-0.000891302
-0.000823324
-0.000758385
-0.000696573
-0.000637947
-0.000582537
-0.000530349
-0.000481359
-0.000435524
-0.000392782
-0.00035305
-0.000316232
-0.000282219
-0.000250891
-0.000222122
-0.000195778
-0.000171722
-0.000149817
-0.000129925
-0.00147559
-0.00139546
-0.00131634
-0.00123855
-0.00116238
-0.00108809
-0.00101592
-0.000946072
-0.000878724
-0.000814027
-0.000752099
-0.000693032
-0.000636888
-0.000583704
-0.000533493
-0.000486242
-0.00044192
-0.000400475
-0.00036184
-0.000325932
-0.000292656
-0.000261907
-0.000233573
-0.000207535
-0.00018367
-0.000161854
-0.000141961
-0.00142669
-0.00135164
-0.00127742
-0.00120432
-0.00113262
-0.00106258
-0.000994423
-0.000928338
-0.000864502
-0.00080306
-0.00074413
-0.000687806
-0.000634154
-0.000583216
-0.000535011
-0.000489537
-0.000446773
-0.000406678
-0.000369197
-0.00033426
-0.000301786
-0.000271683
-0.000243854
-0.000218192
-0.000194587
-0.000172929
-0.000153103
-0.00137735
-0.00130723
-0.00123776
-0.00116922
-0.00110188
-0.00103598
-0.000971733
-0.00090933
-0.000848937
-0.000790697
-0.000734726
-0.000681118
-0.000629943
-0.000581248
-0.000535058
-0.000491379
-0.000450199
-0.000411489
-0.000375203
-0.000341285
-0.000309665
-0.000280266
-0.000252999
-0.000227774
-0.000204492
-0.000183053