/*--------------------------------*- C++ -*----------------------------------*\
| =========                 |                                                 |
| \\      /  F ield         | OpenFOAM: The Open Source CFD Toolbox           |
|  \\    /   O peration     | Version:  2412                                  |
|   \\  /    A nd           | Website:  www.openfoam.com                      |
|    \\/     M anipulation  |                                                 |
\*---------------------------------------------------------------------------*/
FoamFile
{
    version     2.0;
    format      ascii;
    arch        "LSB;label=32;scalar=64";
    class       volScalarField;
    location    "11";
    object      p;
}
// * * * * * * * * * * * * * * * * * * * * * * * * * * * * * * * * * * * * * //

dimensions      [0 2 -2 0 0 0 0];

internalField   nonuniform List<scalar> 
63420
(
0.00100131
0.00100159
0.00100239
0.00100366
0.00100536
0.00100748
0.00100999
0.00101289
0.00101614
0.00101974
0.0010237
0.00102799
0.00103262
0.0010376
0.0010429
0.00104854
0.00105451
0.00106081
0.00106744
0.00107439
0.00108167
0.00108928
0.00109721
0.00110548
0.00111407
0.001123
0.00113227
0.00114187
0.00115181
0.00116209
0.00117273
0.00118371
0.00119504
0.00120673
0.00121878
0.00123119
0.00124397
0.00125713
0.00127065
0.00128457
0.00129886
0.00131354
0.00132862
0.0013441
0.00135998
0.00137627
0.00139297
0.00141009
0.00142763
0.0014456
0.001464
0.00148284
0.00150213
0.00152186
0.00154205
0.00100125
0.00100153
0.00100233
0.0010036
0.0010053
0.00100741
0.00100993
0.00101282
0.00101607
0.00101967
0.00102362
0.00102791
0.00103254
0.00103751
0.00104281
0.00104845
0.00105441
0.00106071
0.00106732
0.00107427
0.00108154
0.00108914
0.00109707
0.00110533
0.00111392
0.00112284
0.00113209
0.00114168
0.00115161
0.00116189
0.0011725
0.00118347
0.00119479
0.00120646
0.0012185
0.00123089
0.00124366
0.00125679
0.0012703
0.00128419
0.00129846
0.00131312
0.00132817
0.00134362
0.00135947
0.00137573
0.0013924
0.00140948
0.00142699
0.00144492
0.00146328
0.00148208
0.00150131
0.001521
0.00154113
0.00100113
0.00100141
0.00100221
0.00100348
0.00100517
0.00100728
0.00100979
0.00101268
0.00101593
0.00101952
0.00102347
0.00102775
0.00103238
0.00103734
0.00104263
0.00104826
0.00105421
0.00106049
0.0010671
0.00107404
0.0010813
0.00108888
0.00109679
0.00110503
0.0011136
0.00112251
0.00113174
0.00114131
0.00115122
0.00116147
0.00117206
0.001183
0.00119429
0.00120594
0.00121794
0.0012303
0.00124303
0.00125612
0.00126959
0.00128343
0.00129766
0.00131227
0.00132727
0.00134267
0.00135846
0.00137466
0.00139126
0.00140827
0.00142571
0.00144356
0.00146184
0.00148054
0.00149969
0.00151927
0.0015393
0.00100095
0.00100123
0.00100203
0.0010033
0.00100498
0.00100709
0.0010096
0.00101248
0.00101572
0.0010193
0.00102324
0.00102751
0.00103213
0.00103708
0.00104236
0.00104797
0.00105391
0.00106018
0.00106677
0.00107368
0.00108092
0.00108849
0.00109638
0.00110459
0.00111314
0.00112201
0.00113121
0.00114075
0.00115063
0.00116084
0.0011714
0.0011823
0.00119355
0.00120514
0.0012171
0.00122941
0.00124208
0.00125512
0.00126853
0.00128231
0.00129646
0.001311
0.00132593
0.00134124
0.00135694
0.00137305
0.00138955
0.00140647
0.00142379
0.00144152
0.00145968
0.00147826
0.00149726
0.0015167
0.00153656
0.00100071
0.00100099
0.00100178
0.00100305
0.00100474
0.00100684
0.00100933
0.0010122
0.00101543
0.00101901
0.00102294
0.0010272
0.0010318
0.00103673
0.001042
0.00104759
0.00105351
0.00105975
0.00106632
0.00107321
0.00108043
0.00108796
0.00109582
0.001104
0.00111251
0.00112135
0.00113052
0.00114001
0.00114984
0.00116001
0.00117052
0.00118136
0.00119255
0.00120409
0.00121598
0.00122822
0.00124082
0.00125379
0.00126711
0.00128081
0.00129487
0.00130932
0.00132414
0.00133934
0.00135493
0.00137091
0.00138729
0.00140406
0.00142124
0.00143882
0.00145681
0.00147522
0.00149404
0.00151328
0.00153294
0.00100042
0.00100069
0.00100148
0.00100274
0.00100442
0.00100652
0.001009
0.00101186
0.00101508
0.00101865
0.00102256
0.0010268
0.00103139
0.0010363
0.00104155
0.00104712
0.00105301
0.00105923
0.00106577
0.00107263
0.0010798
0.00108731
0.00109513
0.00110327
0.00111174
0.00112053
0.00112964
0.00113909
0.00114887
0.00115897
0.00116942
0.0011802
0.00119132
0.00120278
0.00121459
0.00122675
0.00123926
0.00125213
0.00126535
0.00127894
0.00129289
0.00130722
0.00132191
0.00133698
0.00135243
0.00136826
0.00138447
0.00140108
0.00141808
0.00143547
0.00145326
0.00147145
0.00149004
0.00150904
0.00152844
0.00100006
0.00100033
0.00100112
0.00100238
0.00100405
0.00100613
0.00100861
0.00101146
0.00101466
0.00101821
0.0010221
0.00102633
0.00103089
0.00103578
0.001041
0.00104655
0.00105241
0.0010586
0.0010651
0.00107192
0.00107906
0.00108652
0.0010943
0.00110239
0.00111081
0.00111954
0.0011286
0.00113799
0.00114769
0.00115773
0.0011681
0.0011788
0.00118984
0.00120121
0.00121293
0.00122499
0.00123739
0.00125014
0.00126325
0.00127671
0.00129053
0.00130471
0.00131925
0.00133416
0.00134944
0.00136509
0.00138112
0.00139752
0.0014143
0.00143147
0.00144902
0.00146696
0.00148528
0.00150399
0.00152308
0.00156276
0.0015842
0.00160657
0.00162992
0.00165432
0.00167982
0.00170649
0.00173441
0.00176366
0.00179431
0.00182647
0.00186023
0.0018957
0.00193301
0.00197227
0.00201363
0.00205725
0.00210329
0.00215195
0.00220342
0.00225793
0.00231575
0.00237713
0.0024424
0.00251188
0.00258596
0.00266505
0.00274961
0.00284015
0.00293723
0.00304146
0.00315355
0.00327423
0.00340433
0.00354475
0.00369644
0.00386039
0.00403757
0.00422885
0.00443488
0.00465582
0.00489104
0.00513871
0.00539543
0.00565651
0.00591674
0.00617082
0.00642424
0.00674646
0.00723483
0.00156181
0.00158325
0.00160562
0.00162898
0.00165337
0.00167887
0.00170554
0.00173345
0.00176269
0.00179334
0.00182549
0.00185924
0.0018947
0.00193199
0.00197124
0.00201258
0.00205618
0.00210219
0.00215081
0.00220224
0.0022567
0.00231445
0.00237575
0.00244092
0.00251028
0.0025842
0.0026631
0.00274741
0.00283764
0.00293432
0.00303806
0.00314952
0.0032694
0.00339848
0.00353759
0.00368758
0.00384933
0.00402366
0.00421121
0.00441235
0.00462687
0.00485364
0.00509019
0.00533236
0.00557446
0.00581026
0.00603388
0.00624991
0.00652345
0.00694482
0.00155993
0.00158137
0.00160374
0.00162708
0.00165146
0.00167695
0.00170361
0.00173152
0.00176075
0.00179138
0.00182352
0.00185725
0.00189269
0.00192996
0.00196917
0.00201048
0.00205402
0.00209998
0.00214853
0.00219988
0.00225424
0.00231186
0.002373
0.00243797
0.00250709
0.00258071
0.00265921
0.00274304
0.00283266
0.00292857
0.00303134
0.00314156
0.00325986
0.00338693
0.00352345
0.00367011
0.00382753
0.0039962
0.00417636
0.00436777
0.00456946
0.00477929
0.00499351
0.00520634
0.00541012
0.00559654
0.00575873
0.00589977
0.00607161
0.00637212
0.00155711
0.00157854
0.00160089
0.00162423
0.0016486
0.00167408
0.00170073
0.00172862
0.00175783
0.00178844
0.00182055
0.00185425
0.00188966
0.00192688
0.00196604
0.00200728
0.00205075
0.00209662
0.00214506
0.00219627
0.00225046
0.00230788
0.00236878
0.00243344
0.00250218
0.00257532
0.00265323
0.00273631
0.00282499
0.00291973
0.003021
0.00312934
0.00324525
0.00336927
0.00350189
0.00364352
0.00379443
0.00395464
0.00412374
0.00430064
0.0044832
0.00466779
0.0048487
0.00501774
0.00516432
0.00527687
0.00534696
0.0053791
0.00540938
0.00549664
0.00155336
0.00157479
0.00159713
0.00162045
0.00164482
0.00167028
0.00169692
0.0017248
0.00175399
0.00178458
0.00181667
0.00185034
0.0018857
0.00192287
0.00196198
0.00200314
0.00204653
0.00209228
0.00214059
0.00219164
0.00224563
0.0023028
0.00236339
0.00242766
0.0024959
0.00256842
0.00264556
0.00272766
0.0028151
0.00290826
0.00300756
0.00311337
0.00322608
0.003346
0.00347335
0.00360819
0.0037503
0.00389905
0.00405316
0.00421038
0.00436706
0.00451757
0.00465367
0.00476407
0.00483447
0.00484902
0.00479624
0.0046839
0.00453715
0.00429552
0.00154871
0.00157014
0.00159249
0.00161582
0.0016402
0.00166568
0.00169234
0.00172024
0.00174946
0.00178008
0.00181219
0.00184589
0.00188127
0.00191847
0.00195759
0.00199877
0.00204217
0.00208793
0.00213623
0.00218726
0.00224122
0.00229832
0.00235881
0.00242292
0.00249092
0.0025631
0.00263975
0.00272119
0.00280773
0.00289969
0.00299737
0.00310103
0.00321086
0.00332694
0.00344915
0.00357706
0.00370978
0.00384572
0.00398225
0.00411527
0.00423861
0.00434335
0.00441708
0.00444354
0.00440282
0.00427335
0.00403874
0.00370768
0.00329761
0.00261169
0.00154315
0.0015645
0.00158679
0.00161007
0.0016344
0.00165983
0.00168644
0.00171428
0.00174345
0.00177402
0.00180607
0.0018397
0.00187503
0.00191215
0.00195119
0.00199229
0.0020356
0.00208126
0.00212945
0.00218036
0.00223417
0.0022911
0.00235137
0.00241521
0.00248287
0.0025546
0.00263068
0.00271138
0.00279694
0.00288763
0.00298365
0.00308513
0.0031921
0.00330437
0.00342148
0.00354249
0.00366575
0.00378853
0.00390657
0.00401333
0.00409921
0.00415058
0.00414903
0.00407122
0.00388974
0.00357488
0.00310616
0.00249757
0.00171529
0.000452871
-0.00331724
-0.00336097
-0.00333507
-0.00325303
-0.00312994
-0.00297006
-0.00277961
-0.0025663
-0.00233676
-0.00209826
-0.00185777
-0.00162151
-0.00139476
-0.0011817
-0.000985377
-0.000807765
-0.000649845
-0.000511763
-0.000392988
-0.000292478
-0.000208829
-0.000140415
-8.55038e-05
-4.23478e-05
-9.25399e-06
1.53669e-05
3.29651e-05
4.48369e-05
5.21154e-05
5.57731e-05
5.66333e-05
5.53807e-05
5.25764e-05
4.86734e-05
4.40323e-05
3.89359e-05
3.36022e-05
2.81963e-05
2.28407e-05
1.76239e-05
1.2608e-05
7.83399e-06
3.32743e-06
-8.98191e-07
-4.83814e-06
-8.49411e-06
-1.18723e-05
-1.49821e-05
-1.7835e-05
-2.04433e-05
-0.0034232
-0.00343991
-0.00339765
-0.00330584
-0.00317892
-0.00301461
-0.00282095
-0.00260721
-0.00237681
-0.00213729
-0.00189559
-0.00165789
-0.00142945
-0.00121449
-0.00101611
-0.000836324
-0.000676183
-0.000535883
-0.000414938
-0.000312342
-0.000226717
-0.000156453
-9.98309e-05
-5.5107e-05
-2.05864e-05
5.32276e-06
2.40777e-05
3.69843e-05
4.51846e-05
4.96604e-05
5.12445e-05
5.06311e-05
4.83901e-05
4.49827e-05
4.0777e-05
3.60629e-05
3.10645e-05
2.59527e-05
2.08549e-05
1.58644e-05
1.10469e-05
6.44734e-06
2.09413e-06
-1.99644e-06
-5.81724e-06
-9.36789e-06
-1.26527e-05
-1.56796e-05
-1.84587e-05
-2.10006e-05
-0.00363767
-0.00359306
-0.00352107
-0.00340929
-0.00327716
-0.00309393
-0.00290235
-0.00268642
-0.002454
-0.00221259
-0.00196871
-0.00172838
-0.00149682
-0.00127832
-0.00107605
-0.000892139
-0.000727752
-0.000583188
-0.000458052
-0.000351409
-0.000261937
-0.000188067
-0.000128097
-8.02955e-05
-4.29733e-05
-1.45299e-05
6.50514e-06
2.14528e-05
3.14732e-05
3.7566e-05
4.05819e-05
4.12334e-05
4.01073e-05
3.76811e-05
3.43378e-05
3.03806e-05
2.60462e-05
2.15167e-05
1.69294e-05
1.23865e-05
7.9618e-06
3.70703e-06
-3.43066e-07
-4.16679e-06
-7.7523e-06
-1.1095e-05
-1.41958e-05
-1.70591e-05
-1.96928e-05
-2.21036e-05
-0.00396429
-0.00381247
-0.00370563
-0.00355819
-0.00340384
-0.00322204
-0.00302031
-0.00279926
-0.00256383
-0.00231972
-0.00207281
-0.00182887
-0.00159304
-0.00136964
-0.00116195
-0.000972261
-0.000801888
-0.000651285
-0.000520191
-0.000407777
-0.000312807
-0.000233764
-0.000168988
-0.000116763
-7.54016e-05
-4.33014e-05
-1.89743e-05
-1.0769e-06
1.15755e-05
2.0008e-05
2.50971e-05
2.75806e-05
2.80701e-05
2.70659e-05
2.49727e-05
2.21131e-05
1.87416e-05
1.50565e-05
1.12096e-05
7.31594e-06
3.46085e-06
-2.93729e-07
-3.9041e-06
-7.34071e-06
-1.05848e-05
-1.36259e-05
-1.64595e-05
-1.90857e-05
-2.15082e-05
-2.37283e-05
-0.00436256
-0.00409353
-0.00392717
-0.00375599
-0.00357129
-0.0033744
-0.00316252
-0.00293557
-0.00269628
-0.00244897
-0.00219878
-0.00195101
-0.00171061
-0.00148186
-0.00126815
-0.00107191
-0.000894625
-0.000736943
-0.000598765
-0.000479406
-0.000377742
-0.000292347
-0.00022161
-0.000163852
-0.000117406
-8.06668e-05
-5.21379e-05
-3.04564e-05
-1.44116e-05
-2.95072e-06
4.83171e-06
9.70301e-06
1.23037e-05
1.31617e-05
1.27078e-05
1.12891e-05
9.18262e-06
6.60691e-06
3.73268e-06
6.91644e-07
-2.41583e-06
-5.51439e-06
-8.54852e-06
-1.14783e-05
-1.42758e-05
-1.69226e-05
-1.94073e-05
-2.17243e-05
-2.38717e-05
-2.58441e-05
-0.00478197
-0.0044316
-0.00419421
-0.00397111
-0.00375248
-0.00353417
-0.00330916
-0.00307498
-0.00283225
-0.00258352
-0.00233259
-0.00208383
-0.00184164
-0.00161001
-0.00139228
-0.00119094
-0.00100766
-0.000843288
-0.000697959
-0.000571203
-0.000462089
-0.000369351
-0.00029151
-0.000226979
-0.000174148
-0.000131462
-9.74441e-05
-7.07351e-05
-5.01195e-05
-3.45283e-05
-2.30346e-05
-1.48456e-05
-9.29239e-06
-5.81728e-06
-3.96007e-06
-3.34435e-06
-3.66497e-06
-4.67652e-06
-6.18323e-06
-8.03012e-06
-1.00955e-05
-1.22849e-05
-1.45253e-05
-1.67615e-05
-1.89522e-05
-2.10671e-05
-2.30849e-05
-2.49911e-05
-2.6776e-05
-2.84282e-05
-0.00518437
-0.00485836
-0.00455469
-0.00426026
-0.00399589
-0.00374685
-0.00350145
-0.00325461
-0.00300447
-0.00275137
-0.00249743
-0.00224584
-0.00200023
-0.00176419
-0.00154089
-0.00133289
-0.001142
-0.000969319
-0.000815204
-0.000679431
-0.000561286
-0.000459693
-0.000373316
-0.000300673
-0.000240227
-0.000190459
-0.000149921
-0.000117259
-9.12454e-05
-7.07918e-05
-5.49437e-05
-4.28752e-05
-3.38818e-05
-2.73691e-05
-2.28397e-05
-1.98812e-05
-1.81536e-05
-1.73786e-05
-1.73299e-05
-1.78243e-05
-1.87146e-05
-1.9883e-05
-2.12364e-05
-2.27011e-05
-2.422e-05
-2.57492e-05
-2.72554e-05
-2.87142e-05
-3.01074e-05
-3.14207e-05
-2.28251e-05
-2.50285e-05
-2.70637e-05
-2.89286e-05
-3.06276e-05
-3.2166e-05
-3.35483e-05
-3.478e-05
-3.58669e-05
-3.68148e-05
-3.76298e-05
-3.83181e-05
-3.88856e-05
-3.93379e-05
-3.96804e-05
-3.99179e-05
-4.0055e-05
-4.0096e-05
-4.00447e-05
-3.99054e-05
-3.9682e-05
-3.93791e-05
-3.90014e-05
-3.8554e-05
-3.8042e-05
-3.7471e-05
-3.68464e-05
-3.61734e-05
-3.54573e-05
-3.47029e-05
-3.39149e-05
-3.30976e-05
-3.22552e-05
-3.13914e-05
-3.05097e-05
-2.96136e-05
-2.87063e-05
-2.77907e-05
-2.68696e-05
-2.59458e-05
-2.50217e-05
-2.40999e-05
-2.3182e-05
-2.2271e-05
-2.13685e-05
-2.04757e-05
-1.95953e-05
-1.87282e-05
-1.78759e-05
-1.704e-05
-1.62214e-05
-1.54213e-05
-1.46406e-05
-1.38802e-05
-1.31408e-05
-1.2423e-05
-1.17274e-05
-1.10544e-05
-1.04043e-05
-9.77747e-06
-9.17393e-06
-8.59382e-06
-8.03716e-06
-7.50386e-06
-6.99378e-06
-6.50672e-06
-6.04242e-06
-5.60058e-06
-5.18081e-06
-4.78267e-06
-4.40566e-06
-4.04927e-06
-3.71298e-06
-3.39625e-06
-3.09846e-06
-2.81897e-06
-2.55709e-06
-2.31217e-06
-2.08353e-06
-1.87049e-06
-1.67238e-06
-1.48849e-06
-1.3181e-06
-1.1605e-06
-1.01501e-06
-8.80942e-07
-7.57544e-07
-6.44378e-07
-5.4017e-07
-4.45723e-07
-3.57094e-07
-2.81114e-07
-2.00978e-07
-1.50412e-07
-5.83233e-08
-6.45662e-08
1.01791e-07
-6.11126e-08
3.46107e-07
-2.21062e-07
7.82936e-07
-6.47001e-07
1.49182e-06
-1.32512e-06
2.31317e-06
-1.87122e-06
2.62784e-06
-1.47222e-06
1.60538e-06
4.58268e-07
-7.78099e-07
3.14181e-06
-2.92599e-06
4.42713e-06
-2.68086e-06
-2.33151e-05
-2.5474e-05
-2.74699e-05
-2.92969e-05
-3.0961e-05
-3.24676e-05
-3.3821e-05
-3.50263e-05
-3.6089e-05
-3.70149e-05
-3.78098e-05
-3.84797e-05
-3.90303e-05
-3.94672e-05
-3.97955e-05
-4.002e-05
-4.01452e-05
-4.01753e-05
-4.01142e-05
-3.9966e-05
-3.97347e-05
-3.94247e-05
-3.90407e-05
-3.85877e-05
-3.80709e-05
-3.74956e-05
-3.68672e-05
-3.61909e-05
-3.54719e-05
-3.47149e-05
-3.39246e-05
-3.31054e-05
-3.22611e-05
-3.13957e-05
-3.05127e-05
-2.96154e-05
-2.87069e-05
-2.77904e-05
-2.68685e-05
-2.59441e-05
-2.50193e-05
-2.40971e-05
-2.31788e-05
-2.22675e-05
-2.13647e-05
-2.04717e-05
-1.95912e-05
-1.8724e-05
-1.78716e-05
-1.70357e-05
-1.62171e-05
-1.5417e-05
-1.46364e-05
-1.38761e-05
-1.31368e-05
-1.24192e-05
-1.17237e-05
-1.10508e-05
-1.04009e-05
-9.77414e-06
-9.17076e-06
-8.5908e-06
-8.03429e-06
-7.50114e-06
-6.99121e-06
-6.5043e-06
-6.04015e-06
-5.59845e-06
-5.17882e-06
-4.7808e-06
-4.40392e-06
-4.04765e-06
-3.71148e-06
-3.39486e-06
-3.09718e-06
-2.81779e-06
-2.556e-06
-2.31117e-06
-2.08261e-06
-1.86966e-06
-1.67162e-06
-1.48779e-06
-1.31747e-06
-1.15993e-06
-1.01449e-06
-8.80476e-07
-7.57126e-07
-6.44002e-07
-5.39837e-07
-4.45426e-07
-3.56836e-07
-2.8088e-07
-2.00781e-07
-1.50228e-07
-5.81823e-08
-6.44088e-08
1.0186e-07
-6.09454e-08
3.46085e-07
-2.20856e-07
7.82812e-07
-6.4675e-07
1.49164e-06
-1.32493e-06
2.31309e-06
-1.87122e-06
2.628e-06
-1.4725e-06
1.60575e-06
4.57893e-07
-7.77758e-07
3.14163e-06
-2.92595e-06
4.42712e-06
-2.68246e-06
-2.42889e-05
-2.63591e-05
-2.82766e-05
-3.00284e-05
-3.16233e-05
-3.30668e-05
-3.43628e-05
-3.55157e-05
-3.65305e-05
-3.74127e-05
-3.81677e-05
-3.8801e-05
-3.93181e-05
-3.97242e-05
-4.00243e-05
-4.0223e-05
-4.03247e-05
-4.03332e-05
-4.02526e-05
-4.00867e-05
-3.98396e-05
-3.95155e-05
-3.9119e-05
-3.8655e-05
-3.81285e-05
-3.75447e-05
-3.69088e-05
-3.62259e-05
-3.5501e-05
-3.47389e-05
-3.39441e-05
-3.31208e-05
-3.22729e-05
-3.14044e-05
-3.05185e-05
-2.96188e-05
-2.87082e-05
-2.77898e-05
-2.68664e-05
-2.59405e-05
-2.50147e-05
-2.40914e-05
-2.31724e-05
-2.22604e-05
-2.13571e-05
-2.04637e-05
-1.95829e-05
-1.87155e-05
-1.78631e-05
-1.70271e-05
-1.62085e-05
-1.54085e-05
-1.46281e-05
-1.38679e-05
-1.31288e-05
-1.24114e-05
-1.17162e-05
-1.10436e-05
-1.03939e-05
-9.7675e-06
-9.16442e-06
-8.58476e-06
-8.02855e-06
-7.49571e-06
-6.98608e-06
-6.49946e-06
-6.0356e-06
-5.59418e-06
-5.17482e-06
-4.77707e-06
-4.40044e-06
-4.04442e-06
-3.70849e-06
-3.39209e-06
-3.09462e-06
-2.81542e-06
-2.55383e-06
-2.30917e-06
-2.08079e-06
-1.86799e-06
-1.6701e-06
-1.48641e-06
-1.31621e-06
-1.15879e-06
-1.01346e-06
-8.79547e-07
-7.56292e-07
-6.43254e-07
-5.39171e-07
-4.44834e-07
-3.56316e-07
-2.80416e-07
-2.00387e-07
-1.49857e-07
-5.79083e-08
-6.40878e-08
1.01994e-07
-6.06121e-08
3.46041e-07
-2.2044e-07
7.82565e-07
-6.46255e-07
1.49129e-06
-1.32453e-06
2.31291e-06
-1.87123e-06
2.62831e-06
-1.47306e-06
1.60649e-06
4.57143e-07
-7.77108e-07
3.14127e-06
-2.92585e-06
4.42706e-06
-2.68556e-06
-2.57332e-05
-2.76727e-05
-2.94728e-05
-3.11131e-05
-3.26055e-05
-3.39559e-05
-3.51669e-05
-3.62421e-05
-3.7186e-05
-3.80034e-05
-3.86992e-05
-3.92782e-05
-3.97456e-05
-4.01062e-05
-4.03645e-05
-4.05249e-05
-4.05915e-05
-4.05681e-05
-4.04585e-05
-4.02665e-05
-3.99959e-05
-3.96509e-05
-3.92358e-05
-3.87554e-05
-3.82144e-05
-3.76179e-05
-3.69708e-05
-3.62781e-05
-3.55445e-05
-3.47747e-05
-3.3973e-05
-3.31437e-05
-3.22905e-05
-3.14172e-05
-3.05272e-05
-2.96238e-05
-2.87101e-05
-2.77889e-05
-2.68631e-05
-2.59352e-05
-2.50076e-05
-2.40829e-05
-2.31627e-05
-2.22497e-05
-2.13457e-05
-2.04517e-05
-1.95705e-05
-1.87028e-05
-1.78502e-05
-1.70142e-05
-1.61957e-05
-1.53958e-05
-1.46156e-05
-1.38557e-05
-1.31169e-05
-1.23998e-05
-1.1705e-05
-1.10328e-05
-1.03835e-05
-9.75754e-06
-9.1549e-06
-8.57571e-06
-8.01995e-06
-7.48756e-06
-6.97838e-06
-6.49221e-06
-6.02879e-06
-5.58779e-06
-5.16883e-06
-4.77147e-06
-4.39522e-06
-4.03957e-06
-3.70399e-06
-3.38793e-06
-3.09077e-06
-2.81187e-06
-2.55056e-06
-2.30618e-06
-2.07805e-06
-1.86549e-06
-1.66782e-06
-1.48433e-06
-1.31432e-06
-1.15708e-06
-1.01192e-06
-8.78155e-07
-7.55043e-07
-6.42134e-07
-5.38173e-07
-4.43947e-07
-3.55536e-07
-2.79718e-07
-1.99796e-07
-1.493e-07
-5.74963e-08
-6.36061e-08
1.02199e-07
-6.0114e-08
3.4598e-07
-2.19826e-07
7.82205e-07
-6.4553e-07
1.49078e-06
-1.32395e-06
2.31268e-06
-1.87129e-06
2.62882e-06
-1.47394e-06
1.60763e-06
4.56011e-07
-7.76144e-07
3.14075e-06
-2.92572e-06
4.427e-06
-2.69002e-06
-2.76286e-05
-2.93976e-05
-3.10423e-05
-3.25365e-05
-3.3895e-05
-3.51234e-05
-3.6223e-05
-3.71965e-05
-3.80476e-05
-3.878e-05
-3.93981e-05
-3.9906e-05
-4.03081e-05
-4.06088e-05
-4.08122e-05
-4.09223e-05
-4.0943e-05
-4.08777e-05
-4.07301e-05
-4.05037e-05
-4.02023e-05
-3.98297e-05
-3.93902e-05
-3.88881e-05
-3.83281e-05
-3.77148e-05
-3.70529e-05
-3.63471e-05
-3.5602e-05
-3.48219e-05
-3.40112e-05
-3.31739e-05
-3.23136e-05
-3.1434e-05
-3.05385e-05
-2.96303e-05
-2.87123e-05
-2.77875e-05
-2.68585e-05
-2.59279e-05
-2.4998e-05
-2.40715e-05
-2.31497e-05
-2.22354e-05
-2.13304e-05
-2.04357e-05
-1.95539e-05
-1.86858e-05
-1.78331e-05
-1.69969e-05
-1.61785e-05
-1.53788e-05
-1.45988e-05
-1.38393e-05
-1.31009e-05
-1.23843e-05
-1.169e-05
-1.10183e-05
-1.03697e-05
-9.74425e-06
-9.14222e-06
-8.56363e-06
-8.00848e-06
-7.47669e-06
-6.96812e-06
-6.48254e-06
-6.0197e-06
-5.57926e-06
-5.16085e-06
-4.76401e-06
-4.38827e-06
-4.03311e-06
-3.698e-06
-3.38238e-06
-3.08564e-06
-2.80714e-06
-2.54621e-06
-2.30219e-06
-2.0744e-06
-1.86215e-06
-1.66478e-06
-1.48156e-06
-1.31181e-06
-1.1548e-06
-1.00986e-06
-8.76303e-07
-7.5338e-07
-6.40644e-07
-5.36846e-07
-4.42764e-07
-3.54496e-07
-2.78786e-07
-1.99006e-07
-1.48556e-07
-5.69448e-08
-6.29668e-08
1.02478e-07
-5.94612e-08
3.45917e-07
-2.19039e-07
7.81773e-07
-6.44636e-07
1.49019e-06
-1.32332e-06
2.31252e-06
-1.87154e-06
2.62966e-06
-1.47526e-06
1.60923e-06
4.54489e-07
-7.74928e-07
3.1402e-06
-2.92571e-06
4.42707e-06
-2.69574e-06
-2.99519e-05
-3.15112e-05
-3.29637e-05
-3.42797e-05
-3.54752e-05
-3.65548e-05
-3.75184e-05
-3.83677e-05
-3.91051e-05
-3.97336e-05
-4.02565e-05
-4.06772e-05
-4.09994e-05
-4.12267e-05
-4.13629e-05
-4.14114e-05
-4.13757e-05
-4.12591e-05
-4.10648e-05
-4.07963e-05
-4.04571e-05
-4.00507e-05
-3.95811e-05
-3.90524e-05
-3.84688e-05
-3.78347e-05
-3.71544e-05
-3.64325e-05
-3.5673e-05
-3.48803e-05
-3.40584e-05
-3.32111e-05
-3.2342e-05
-3.14547e-05
-3.05523e-05
-2.96381e-05
-2.87149e-05
-2.77855e-05
-2.68526e-05
-2.59187e-05
-2.4986e-05
-2.4057e-05
-2.31333e-05
-2.22174e-05
-2.13112e-05
-2.04155e-05
-1.95331e-05
-1.86646e-05
-1.78116e-05
-1.69754e-05
-1.6157e-05
-1.53576e-05
-1.45779e-05
-1.38188e-05
-1.3081e-05
-1.23649e-05
-1.16712e-05
-1.10003e-05
-1.03523e-05
-9.72765e-06
-9.12637e-06
-8.54854e-06
-7.99415e-06
-7.46312e-06
-6.9553e-06
-6.47046e-06
-6.00834e-06
-5.56861e-06
-5.15087e-06
-4.75469e-06
-4.37958e-06
-4.02504e-06
-3.69052e-06
-3.37545e-06
-3.07924e-06
-2.80124e-06
-2.54078e-06
-2.29721e-06
-2.06983e-06
-1.85799e-06
-1.66098e-06
-1.4781e-06
-1.30867e-06
-1.15196e-06
-1.0073e-06
-8.7399e-07
-7.51304e-07
-6.38783e-07
-5.35188e-07
-4.41287e-07
-3.53197e-07
-2.77621e-07
-1.98019e-07
-1.47625e-07
-5.62559e-08
-6.21666e-08
1.02825e-07
-5.86425e-08
3.45834e-07
-2.1805e-07
7.81223e-07
-6.43508e-07
1.48944e-06
-1.3225e-06
2.3123e-06
-1.87182e-06
2.63069e-06
-1.47688e-06
1.61121e-06
4.52596e-07
-7.73394e-07
3.13946e-06
-2.92558e-06
4.42704e-06
-2.70218e-06
-3.26703e-05
-3.39849e-05
-3.52108e-05
-3.63202e-05
-3.73267e-05
-3.82331e-05
-3.90383e-05
-3.97425e-05
-4.03472e-05
-4.08541e-05
-4.12656e-05
-4.15841e-05
-4.18126e-05
-4.1954e-05
-4.20113e-05
-4.19876e-05
-4.18858e-05
-4.1709e-05
-4.14601e-05
-4.11422e-05
-4.07585e-05
-4.03123e-05
-3.98073e-05
-3.92472e-05
-3.86357e-05
-3.7977e-05
-3.7275e-05
-3.65338e-05
-3.57573e-05
-3.49495e-05
-3.41142e-05
-3.3255e-05
-3.23754e-05
-3.14788e-05
-3.05683e-05
-2.96469e-05
-2.87175e-05
-2.77827e-05
-2.68452e-05
-2.59073e-05
-2.49712e-05
-2.40395e-05
-2.31134e-05
-2.21957e-05
-2.1288e-05
-2.03913e-05
-1.9508e-05
-1.8639e-05
-1.77857e-05
-1.69494e-05
-1.61312e-05
-1.53321e-05
-1.45528e-05
-1.37942e-05
-1.3057e-05
-1.23417e-05
-1.16488e-05
-1.09786e-05
-1.03315e-05
-9.70773e-06
-9.10735e-06
-8.53043e-06
-7.97696e-06
-7.44684e-06
-6.93992e-06
-6.45597e-06
-5.99472e-06
-5.55583e-06
-5.13891e-06
-4.74352e-06
-4.36917e-06
-4.01536e-06
-3.68154e-06
-3.36714e-06
-3.07156e-06
-2.79416e-06
-2.53427e-06
-2.29123e-06
-2.06436e-06
-1.85299e-06
-1.65642e-06
-1.47396e-06
-1.30491e-06
-1.14855e-06
-1.00422e-06
-8.71218e-07
-7.48815e-07
-6.36552e-07
-5.33201e-07
-4.39514e-07
-3.5164e-07
-2.76221e-07
-1.96841e-07
-1.46498e-07
-5.5452e-08
-6.11644e-08
1.03167e-07
-5.75296e-08
3.45517e-07
-2.16521e-07
7.80041e-07
-6.41407e-07
1.48753e-06
-1.32023e-06
2.3105e-06
-1.87048e-06
2.63028e-06
-1.47748e-06
1.61277e-06
4.5039e-07
-7.70768e-07
3.13702e-06
-2.92329e-06
4.42474e-06
-2.70702e-06
-3.58411e-05
-3.68646e-05
-3.7819e-05
-3.86904e-05
-3.94798e-05
-4.01865e-05
-4.08086e-05
-4.1345e-05
-4.17958e-05
-4.21617e-05
-4.24437e-05
-4.26435e-05
-4.2763e-05
-4.28044e-05
-4.277e-05
-4.26622e-05
-4.24837e-05
-4.22368e-05
-4.19243e-05
-4.15489e-05
-4.11133e-05
-4.06207e-05
-4.00742e-05
-3.94771e-05
-3.88328e-05
-3.8145e-05
-3.74173e-05
-3.66533e-05
-3.58566e-05
-3.50309e-05
-3.41797e-05
-3.33065e-05
-3.24145e-05
-3.15069e-05
-3.05868e-05
-2.96569e-05
-2.87201e-05
-2.7779e-05
-2.68359e-05
-2.58933e-05
-2.49533e-05
-2.40183e-05
-2.30895e-05
-2.21696e-05
-2.12602e-05
-2.03622e-05
-1.94779e-05
-1.86084e-05
-1.77547e-05
-1.69184e-05
-1.61004e-05
-1.53015e-05
-1.45228e-05
-1.37649e-05
-1.30284e-05
-1.23139e-05
-1.16219e-05
-1.09527e-05
-1.03067e-05
-9.68393e-06
-9.08463e-06
-8.50881e-06
-7.95643e-06
-7.4274e-06
-6.92155e-06
-6.43866e-06
-5.97845e-06
-5.54057e-06
-5.12462e-06
-4.73018e-06
-4.35674e-06
-4.0038e-06
-3.67082e-06
-3.35721e-06
-3.06239e-06
-2.7857e-06
-2.5265e-06
-2.2841e-06
-2.05783e-06
-1.84702e-06
-1.65098e-06
-1.46901e-06
-1.30041e-06
-1.14448e-06
-1.00055e-06
-8.67909e-07
-7.45845e-07
-6.3389e-07
-5.3083e-07
-4.37396e-07
-3.49783e-07
-2.74544e-07
-1.95443e-07
-1.45131e-07
-5.45302e-08
-5.98956e-08
1.03445e-07
-5.59743e-08
3.4476e-07
-2.14092e-07
7.7771e-07
-6.3757e-07
1.48342e-06
-1.3152e-06
2.30557e-06
-1.86586e-06
2.62685e-06
-1.47576e-06
1.61318e-06
4.47828e-07
-7.66154e-07
3.13121e-06
-2.91663e-06
4.4179e-06
-2.70814e-06
-3.94216e-05
-4.0123e-05
-4.07813e-05
-4.13854e-05
-4.19299e-05
-4.24112e-05
-4.28263e-05
-4.31727e-05
-4.34491e-05
-4.36548e-05
-4.37898e-05
-4.38545e-05
-4.385e-05
-4.37775e-05
-4.36386e-05
-4.34352e-05
-4.31691e-05
-4.28424e-05
-4.24573e-05
-4.20162e-05
-4.15214e-05
-4.09757e-05
-4.03816e-05
-3.97421e-05
-3.90601e-05
-3.83388e-05
-3.75814e-05
-3.67909e-05
-3.59709e-05
-3.51244e-05
-3.42548e-05
-3.33653e-05
-3.24589e-05
-3.15386e-05
-3.06072e-05
-2.96676e-05
-2.87223e-05
-2.77737e-05
-2.68243e-05
-2.58763e-05
-2.49317e-05
-2.39928e-05
-2.3061e-05
-2.21386e-05
-2.12272e-05
-2.03277e-05
-1.94424e-05
-1.85721e-05
-1.77182e-05
-1.68818e-05
-1.6064e-05
-1.52655e-05
-1.44874e-05
-1.37302e-05
-1.29946e-05
-1.22812e-05
-1.15903e-05
-1.09222e-05
-1.02774e-05
-9.65593e-06
-9.05791e-06
-8.48337e-06
-7.93228e-06
-7.40453e-06
-6.89995e-06
-6.41831e-06
-5.95932e-06
-5.52262e-06
-5.10783e-06
-4.71449e-06
-4.34212e-06
-3.99021e-06
-3.65821e-06
-3.34555e-06
-3.05161e-06
-2.77577e-06
-2.51736e-06
-2.27571e-06
-2.05015e-06
-1.84001e-06
-1.64459e-06
-1.46319e-06
-1.29514e-06
-1.1397e-06
-9.9623e-07
-8.64021e-07
-7.42355e-07
-6.30762e-07
-5.28042e-07
-4.3491e-07
-3.47595e-07
-2.72583e-07
-1.93779e-07
-1.43562e-07
-5.3375e-08
-5.85327e-08
1.03997e-07
-5.45235e-08
3.44477e-07
-2.12172e-07
7.76342e-07
-6.34973e-07
1.48112e-06
-1.3124e-06
2.30337e-06
-1.86424e-06
2.62641e-06
-1.47662e-06
1.61534e-06
4.44728e-07
-7.62328e-07
3.12744e-06
-2.91271e-06
4.41388e-06
-2.71218e-06
-4.32878e-05
-4.36534e-05
-4.40009e-05
-4.43188e-05
-4.45996e-05
-4.4838e-05
-4.50295e-05
-4.51701e-05
-4.52573e-05
-4.5289e-05
-4.52639e-05
-4.51816e-05
-4.50419e-05
-4.48452e-05
-4.45924e-05
-4.42845e-05
-4.39229e-05
-4.3509e-05
-4.30447e-05
-4.25317e-05
-4.19721e-05
-4.1368e-05
-4.07216e-05
-4.00354e-05
-3.93117e-05
-3.85533e-05
-3.77629e-05
-3.69431e-05
-3.6097e-05
-3.52274e-05
-3.43373e-05
-3.34296e-05
-3.25071e-05
-3.15727e-05
-3.06289e-05
-2.96784e-05
-2.87236e-05
-2.77668e-05
-2.68104e-05
-2.58563e-05
-2.49067e-05
-2.39636e-05
-2.30283e-05
-2.21031e-05
-2.11895e-05
-2.02884e-05
-1.94019e-05
-1.8531e-05
-1.76767e-05
-1.68403e-05
-1.60227e-05
-1.52248e-05
-1.44473e-05
-1.3691e-05
-1.29565e-05
-1.22442e-05
-1.15545e-05
-1.08878e-05
-1.02443e-05
-9.62428e-06
-9.0277e-06
-8.45462e-06
-7.90499e-06
-7.3787e-06
-6.87555e-06
-6.39532e-06
-5.9377e-06
-5.50235e-06
-5.08886e-06
-4.69677e-06
-4.32562e-06
-3.97486e-06
-3.64398e-06
-3.33237e-06
-3.03944e-06
-2.76455e-06
-2.50704e-06
-2.26624e-06
-2.04148e-06
-1.83208e-06
-1.63736e-06
-1.45662e-06
-1.28917e-06
-1.13431e-06
-9.91358e-07
-8.59633e-07
-7.38414e-07
-6.27232e-07
-5.24895e-07
-4.32104e-07
-3.45122e-07
-2.70373e-07
-1.91889e-07
-1.41812e-07
-5.20307e-08
-5.70647e-08
1.04742e-07
-5.30836e-08
3.44468e-07
-2.1047e-07
7.7546e-07
-6.32941e-07
1.47967e-06
-1.31062e-06
2.30243e-06
-1.86397e-06
2.62736e-06
-1.47872e-06
1.61842e-06
4.41156e-07
-7.58506e-07
3.12414e-06
-2.90943e-06
4.41048e-06
-2.71671e-06
-4.74017e-05
-4.74187e-05
-4.74413e-05
-4.7458e-05
-4.74604e-05
-4.74416e-05
-4.73956e-05
-4.73173e-05
-4.72027e-05
-4.70485e-05
-4.68523e-05
-4.66125e-05
-4.63279e-05
-4.59981e-05
-4.56231e-05
-4.52031e-05
-4.47389e-05
-4.42314e-05
-4.36818e-05
-4.30915e-05
-4.2462e-05
-4.17948e-05
-4.10918e-05
-4.03548e-05
-3.95859e-05
-3.8787e-05
-3.79605e-05
-3.71086e-05
-3.62339e-05
-3.5339e-05
-3.44264e-05
-3.34988e-05
-3.25587e-05
-3.16087e-05
-3.06513e-05
-2.96888e-05
-2.87236e-05
-2.77579e-05
-2.67937e-05
-2.58332e-05
-2.4878e-05
-2.39303e-05
-2.29912e-05
-2.2063e-05
-2.11471e-05
-2.02442e-05
-1.93566e-05
-1.84848e-05
-1.76302e-05
-1.67938e-05
-1.59765e-05
-1.51792e-05
-1.44026e-05
-1.36473e-05
-1.29139e-05
-1.22028e-05
-1.15146e-05
-1.08494e-05
-1.02075e-05
-9.58898e-06
-8.99402e-06
-8.42257e-06
-7.87457e-06
-7.3499e-06
-6.84836e-06
-6.3697e-06
-5.91362e-06
-5.47976e-06
-5.06772e-06
-4.67703e-06
-4.30723e-06
-3.95777e-06
-3.62812e-06
-3.31769e-06
-3.02588e-06
-2.75205e-06
-2.49555e-06
-2.2557e-06
-2.03183e-06
-1.82326e-06
-1.62932e-06
-1.4493e-06
-1.28254e-06
-1.1283e-06
-9.85932e-07
-8.54745e-07
-7.34026e-07
-6.23301e-07
-5.21389e-07
-4.2898e-07
-3.42366e-07
-2.67914e-07
-1.89779e-07
-1.3987e-07
-5.05204e-08
-5.54501e-08
1.05603e-07
-5.15242e-08
3.44515e-07
-2.08641e-07
7.74541e-07
-6.30718e-07
1.47804e-06
-1.30854e-06
2.30117e-06
-1.86336e-06
2.62802e-06
-1.48069e-06
1.62161e-06
4.37174e-07
-7.53895e-07
3.11975e-06
-2.90463e-06
4.40546e-06
-2.71925e-06
-5.17256e-05
-5.13815e-05
-5.10672e-05
-5.07711e-05
-5.04835e-05
-5.01961e-05
-4.99016e-05
-4.95936e-05
-4.92668e-05
-4.8917e-05
-4.85404e-05
-4.81344e-05
-4.76968e-05
-4.72262e-05
-4.67218e-05
-4.61832e-05
-4.56104e-05
-4.50037e-05
-4.43637e-05
-4.36912e-05
-4.29872e-05
-4.22528e-05
-4.14893e-05
-4.0698e-05
-3.98803e-05
-3.90379e-05
-3.81725e-05
-3.7286e-05
-3.63805e-05
-3.54581e-05
-3.45211e-05
-3.35719e-05
-3.26128e-05
-3.1646e-05
-3.06738e-05
-2.96985e-05
-2.87221e-05
-2.77466e-05
-2.67742e-05
-2.58065e-05
-2.48454e-05
-2.38927e-05
-2.29496e-05
-2.20182e-05
-2.10998e-05