/*--------------------------------*- C++ -*----------------------------------*\
| =========                 |                                                 |
| \\      /  F ield         | OpenFOAM: The Open Source CFD Toolbox           |
|  \\    /   O peration     | Version:  2412                                  |
|   \\  /    A nd           | Website:  www.openfoam.com                      |
|    \\/     M anipulation  |                                                 |
\*---------------------------------------------------------------------------*/
FoamFile
{
    version     2.0;
    format      ascii;
    arch        "LSB;label=32;scalar=64";
    class       surfaceScalarField;
    location    "11";
    object      phi;
}
// * * * * * * * * * * * * * * * * * * * * * * * * * * * * * * * * * * * * * //

dimensions      [0 3 -1 0 0 0 0];

oriented        oriented;

internalField   nonuniform List<scalar> 
126304
(
0.00505063
1.28169e-07
3.63063e-11
0.00505029
3.38947e-07
1.57178e-10
0.00504963
6.5616e-07
1.06787e-10
0.0050483
1.33012e-06
-4.35267e-10
0.0050459
2.40331e-06
-1.521e-09
0.0050423
3.60848e-06
-2.7597e-09
0.00503774
4.55628e-06
-3.5563e-09
0.00503276
4.99157e-06
-3.49655e-09
0.00502786
4.9026e-06
-2.54552e-09
0.0050234
4.46023e-06
-9.82341e-10
0.00501951
3.88862e-06
7.97141e-10
0.00501614
3.36475e-06
2.45485e-09
0.00501315
2.98096e-06
3.7923e-09
0.00501039
2.75609e-06
4.74909e-09
0.00500772
2.66575e-06
5.35864e-09
0.00500505
2.67038e-06
5.69831e-09
0.00500231
2.73273e-06
5.85244e-09
0.00499948
2.82512e-06
5.8925e-09
0.00499654
2.93012e-06
5.87019e-09
0.0049935
3.03839e-06
5.81827e-09
0.00499035
3.14593e-06
5.75459e-09
0.00498709
3.25177e-06
5.6868e-09
0.00498373
3.35637e-06
5.61677e-09
0.00498026
3.46074e-06
5.54389e-09
0.00497669
3.56598e-06
5.46691e-09
0.00497301
3.67301e-06
5.38445e-09
0.00496922
3.78259e-06
5.29527e-09
0.00496532
3.89529e-06
5.19849e-09
0.0049613
4.01151e-06
5.09394e-09
0.00495717
4.13154e-06
4.98205e-09
0.00495291
4.25561e-06
4.86338e-09
0.00494852
4.38385e-06
4.73811e-09
0.004944
4.51637e-06
4.60602e-09
0.00493934
4.65326e-06
4.46687e-09
0.00493454
4.79457e-06
4.32076e-09
0.0049296
4.94035e-06
4.16815e-09
0.0049245
5.09066e-06
4.00947e-09
0.00491925
5.24554e-06
3.84498e-09
0.00491384
5.40504e-06
3.67502e-09
0.00490827
5.5692e-06
3.50025e-09
0.00490253
5.73808e-06
3.32164e-09
0.00489662
5.91174e-06
3.14006e-09
0.00489052
6.09025e-06
2.95591e-09
0.00488425
6.27368e-06
2.76931e-09
0.00487778
6.46211e-06
2.58049e-09
0.00487112
6.65565e-06
2.39005e-09
0.00486427
6.8544e-06
2.19872e-09
0.00485721
7.05849e-06
2.00698e-09
0.00484994
7.26806e-06
1.81506e-09
0.00484245
7.4833e-06
1.6232e-09
0.00483475
7.70444e-06
1.43183e-09
0.00482681
7.93189e-06
1.24164e-09
0.00481864
8.16647e-06
1.05322e-09
0.00481023
8.41044e-06
8.6696e-10
8.66999e-06
0.00480156
6.82915e-10
0.00505063
2.56388e-07
0.00505029
6.78523e-07
0.00504964
1.31035e-06
0.00504832
2.64881e-06
0.00504594
4.78071e-06
0.00504237
7.17851e-06
0.00503786
9.0701e-06
0.0050329
9.94712e-06
0.00502802
9.78314e-06
0.00502356
8.91467e-06
0.00501967
7.78556e-06
0.00501629
6.74733e-06
0.00501328
5.98438e-06
0.0050105
5.53539e-06
0.00500782
5.35297e-06
0.00500513
5.35929e-06
0.00500238
5.48076e-06
0.00499954
5.66251e-06
0.0049966
5.86993e-06
0.00499356
6.08439e-06
0.0049904
6.29784e-06
0.00498715
6.50823e-06
0.00498379
6.71643e-06
0.00498032
6.92437e-06
0.00497675
7.13416e-06
0.00497308
7.34763e-06
0.0049693
7.56624e-06
0.0049654
7.79112e-06
0.00496139
8.02305e-06
0.00495726
8.26263e-06
0.004953
8.51024e-06
0.00494862
8.76619e-06
0.00494411
9.03068e-06
0.00493946
9.30387e-06
0.00493466
9.58587e-06
0.00492973
9.8768e-06
0.00492464
1.01767e-05
0.0049194
1.04858e-05
0.004914
1.0804e-05
0.00490844
1.11315e-05
0.00490271
1.14684e-05
0.00489681
1.18149e-05
0.00489073
1.21709e-05
0.00488446
1.25368e-05
0.00487801
1.29125e-05
0.00487137
1.32985e-05
0.00486453
1.36948e-05
0.00485749
1.41016e-05
0.00485024
1.45194e-05
0.00484277
1.49484e-05
0.00483509
1.5389e-05
0.00482718
1.58421e-05
0.00481903
1.63093e-05
0.00481065
1.67948e-05
1.73105e-05
0.00480201
0.00505063
3.84632e-07
0.00505029
1.01901e-06
0.00504964
1.96048e-06
0.00504834
3.94606e-06
0.00504601
7.1106e-06
0.00504251
1.06789e-05
0.00503807
1.35079e-05
0.00503318
1.48391e-05
0.00502834
1.46254e-05
0.00502389
1.33595e-05
0.00501998
1.16969e-05
0.00501657
1.01597e-05
0.00501353
9.02407e-06
0.00501072
8.35058e-06
0.005008
8.07153e-06
0.00500528
8.07316e-06
0.00500252
8.24712e-06
0.00499967
8.51226e-06
0.00499672
8.8171e-06
0.00499367
9.13379e-06
0.00499052
9.45006e-06
0.00498726
9.76264e-06
0.00498391
1.00726e-05
0.00498045
1.03826e-05
0.00497689
1.06958e-05
0.00497322
1.10147e-05
0.00496945
1.13414e-05
0.00496556
1.16777e-05
0.00496156
1.20245e-05
0.00495744
1.23828e-05
0.00495319
1.27532e-05
0.00494882
1.31361e-05
0.00494432
1.35317e-05
0.00493969
1.39403e-05
0.00493491
1.43621e-05
0.00492999
1.47971e-05
0.00492492
1.52457e-05
0.0049197
1.57077e-05
0.00491432
1.61835e-05
0.00490878
1.66731e-05
0.00490307
1.71767e-05
0.00489719
1.76945e-05
0.00489113
1.82265e-05
0.0048849
1.87732e-05
0.00487848
1.93345e-05
0.00487186
1.9911e-05
0.00486506
2.05027e-05
0.00485805
2.11102e-05
0.00485083
2.17338e-05
0.00484341
2.23739e-05
0.00483577
2.30312e-05
0.0048279
2.37069e-05
0.00481981
2.4403e-05
0.00481148
2.51256e-05
2.58911e-05
0.0048029
0.00505063
5.12897e-07
0.00505029
1.36075e-06
0.00504964
2.60476e-06
0.00504838
5.21255e-06
0.00504611
9.37226e-06
0.00504271
1.40793e-05
0.00503839
1.78365e-05
0.00503359
1.96393e-05
0.0050288
1.94121e-05
0.00502437
1.77899e-05
0.00502044
1.56284e-05
0.00501698
1.36144e-05
0.00501389
1.21155e-05
0.00501102
1.12171e-05
0.00500826
1.08349e-05
0.00500551
1.08227e-05
0.00500272
1.10397e-05
0.00499985
1.13796e-05
0.00499689
1.17747e-05
0.00499384
1.21878e-05
0.00499069
1.26024e-05
0.00498744
1.30138e-05
0.00498409
1.34228e-05
0.00498064
1.38328e-05
0.00497708
1.42475e-05
0.00497343
1.46704e-05
0.00496967
1.51039e-05
0.00496579
1.55503e-05
0.00496181
1.60109e-05
0.0049577
1.64868e-05
0.00495348
1.69787e-05
0.00494913
1.74872e-05
0.00494465
1.80127e-05
0.00494003
1.85554e-05
0.00493528
1.91156e-05
0.00493038
1.96934e-05
0.00492534
2.02889e-05
0.00492014
2.09024e-05
0.00491479
2.1534e-05
0.00490928
2.21838e-05
0.00490361
2.28521e-05
0.00489776
2.3539e-05
0.00489174
2.42448e-05
0.00488555
2.49697e-05
0.00487917
2.57141e-05
0.0048726
2.64782e-05
0.00486584
2.72624e-05
0.00485888
2.80672e-05
0.00485172
2.8893e-05
0.00484436
2.97405e-05
0.00483678
3.06103e-05
0.00482898
3.15038e-05
0.00482096
3.24236e-05
0.00481271
3.33767e-05
3.43825e-05
0.00480422
0.00505063
6.41166e-07
0.00505029
1.70399e-06
0.00504965
3.24168e-06
0.00504842
6.44055e-06
0.00504624
1.15485e-05
0.00504297
1.73541e-05
0.00503878
2.20274e-05
0.00503409
2.43237e-05
0.00502938
2.41281e-05
0.00502497
2.22012e-05
0.00502101
1.95841e-05
0.0050175
1.71212e-05
0.00501435
1.52712e-05
0.00501142
1.41474e-05
0.0050086
1.36542e-05
0.00500581
1.36167e-05
0.00500298
1.38647e-05
0.00500009
1.42686e-05
0.00499712
1.47448e-05
0.00499406
1.52472e-05
0.00499091
1.57545e-05
0.00498766
1.62601e-05
0.00498432
1.67648e-05
0.00498088
1.7272e-05
0.00497734
1.77861e-05
0.0049737
1.83109e-05
0.00496996
1.88495e-05
0.0049661
1.94043e-05
0.00496214
1.99771e-05
0.00495805
2.0569e-05
0.00495385
2.1181e-05
0.00494953
2.18136e-05
0.00494507
2.24673e-05
0.00494048
2.31424e-05
0.00493576
2.38391e-05
0.0049309
2.45576e-05
0.00492589
2.52982e-05
0.00492073
2.60609e-05
0.00491542
2.68459e-05
0.00490995
2.76535e-05
0.00490432
2.84838e-05
0.00489852
2.93371e-05
0.00489255
3.02136e-05
0.00488641
3.11136e-05
0.00488008
3.20374e-05
0.00487357
3.29855e-05
0.00486688
3.39582e-05
0.00485999
3.49561e-05
0.0048529
3.59795e-05
0.00484561
3.70292e-05
0.00483812
3.81061e-05
0.00483041
3.92114e-05
0.00482249
4.03479e-05
0.00481434
4.15227e-05
4.27562e-05
0.00480597
0.00505063
7.69403e-07
0.00505028
2.04884e-06
0.00504966
3.87006e-06
0.00504847
7.62425e-06
0.00504639
1.36262e-05
0.00504326
2.04841e-05
0.00503923
2.60591e-05
0.00503468
2.88733e-05
0.00503005
2.8761e-05
0.00502566
2.65886e-05
0.00502168
2.35662e-05
0.00501812
2.0687e-05
0.00501489
1.84999e-05
0.00501188
1.71507e-05
0.005009
1.65373e-05
0.00500616
1.64615e-05
0.00500329
1.67268e-05
0.00500038
1.71821e-05
0.0049974
1.77289e-05
0.00499433
1.83119e-05
0.00499118
1.89052e-05
0.00498794
1.95e-05
0.00498461
2.00961e-05
0.00498118
2.06973e-05
0.00497766
2.1308e-05
0.00497404
2.19324e-05
0.00497032
2.25739e-05
0.00496648
2.32353e-05
0.00496254
2.39183e-05
0.00495849
2.46244e-05
0.00495431
2.53544e-05
0.00495002
2.61092e-05
0.0049456
2.6889e-05
0.00494105
2.76943e-05
0.00493636
2.85253e-05
0.00493153
2.93822e-05
0.00492657
3.02651e-05
0.00492145
3.11743e-05
0.00491619
3.21099e-05
0.00491077
3.30722e-05
0.00490519
3.40612e-05
0.00489945
3.50774e-05
0.00489355
3.61209e-05
0.00488747
3.7192e-05
0.00488121
3.82911e-05
0.00487478
3.94186e-05
0.00486816
4.05749e-05
0.00486136
4.17605e-05
0.00485436
4.2976e-05
0.00484717
4.42219e-05
0.00483978
4.54992e-05
0.00483218
4.68089e-05
0.00482437
4.81537e-05
0.00481636
4.95398e-05
5.09855e-05
0.00480813
0.00505063
8.97512e-07
0.00505028
2.39528e-06
0.00504966
4.48912e-06
0.00504853
8.76002e-06
0.00504656
1.55974e-05
0.00504358
2.34565e-05
0.00503973
2.9917e-05
0.00503532
3.32747e-05
0.00503078
3.33012e-05
0.00502643
3.09474e-05
0.00502242
2.75743e-05
0.00501879
2.43146e-05
0.00501548
2.18063e-05
0.0050124
2.02318e-05
0.00500945
1.94888e-05
0.00500655
1.93607e-05
0.00500365
1.96284e-05
0.00500071
2.01214e-05
0.00499771
2.07271e-05
0.00499464
2.13814e-05
0.0049915
2.20533e-05
0.00498826
2.27313e-05
0.00498495
2.34143e-05
0.00498154
2.41056e-05
0.00497804
2.48097e-05
0.00497444
2.5531e-05
0.00497074
2.6273e-05
0.00496693
2.70385e-05
0.00496302
2.78296e-05
0.004959
2.86475e-05
0.00495486
2.94934e-05
0.0049506
3.03679e-05
0.00494622
3.12715e-05
0.00494171
3.22044e-05
0.00493707
3.3167e-05
0.00493229
3.41593e-05
0.00492737
3.51817e-05
0.00492231
3.62342e-05
0.00491711
3.7317e-05
0.00491175
3.84302e-05
0.00490624
3.95742e-05
0.00490057
4.07491e-05
0.00489473
4.19551e-05
0.00488873
4.31927e-05
0.00488256
4.44621e-05
0.00487621
4.57636e-05
0.00486969
4.70978e-05
0.00486299
4.84651e-05
0.0048561
4.9866e-05
0.00484902
5.13011e-05
0.00484175
5.2771e-05
0.00483428
5.42769e-05
0.00482661
5.58205e-05
0.00481875
5.74056e-05
0.00481069
5.90428e-05
0.00480295
-1.38737e-06
5.02742e-10
0.00480383
-8.77208e-07
3.25851e-10
0.00480416
-3.31102e-07
1.42402e-10
0.0048039
2.54142e-07
-4.5328e-11
0.00480303
8.76141e-07
-2.35802e-10
0.00480148
1.54392e-06
-4.26069e-10
0.00479923
2.25778e-06
-6.13518e-10
0.00479621
3.02028e-06
-7.95484e-10
0.00479237
3.83392e-06
-9.69364e-10
0.00478767
4.70127e-06
-1.13279e-09
0.00478205
5.62517e-06
-1.2835e-09
0.00477544
6.60913e-06
-1.41925e-09
0.00476779
7.65767e-06
-1.53796e-09
0.00475901
8.77692e-06
-1.63809e-09
0.00474904
9.97514e-06
-1.71579e-09
0.00473778
1.12632e-05
-1.77208e-09
0.00472512
1.26549e-05
-1.79878e-09
0.00471096
1.41673e-05
-1.80101e-09
0.00469514
1.58211e-05
-1.7963e-09
0.0046775
1.76405e-05
-1.77954e-09
0.00465785
1.96533e-05
-1.74716e-09
0.00463596
2.18908e-05
-1.69921e-09
0.00461157
2.43882e-05
-1.63697e-09
0.00458439
2.71842e-05
-1.56568e-09
0.00455407
3.03225e-05
-1.48998e-09
0.00452022
3.38522e-05
-1.41242e-09
0.00448239
3.78298e-05
-1.33406e-09
0.00444007
4.23208e-05
-1.25525e-09
0.00439267
4.7403e-05
-1.17571e-09
0.0043395
5.31696e-05
-1.09422e-09
0.00427977
5.9734e-05
-1.00875e-09
0.00421253
6.72353e-05
-9.17346e-10
0.00413669
7.58448e-05
-8.18493e-10
0.00405091
8.57753e-05
-7.10986e-10
0.00395362
9.729e-05
-5.94457e-10
0.00384291
0.000110714
-4.70539e-10
0.00371647
0.000126441
-3.42538e-10
0.00357153
0.000144942
-2.14262e-10
0.00340478
0.000166745
-9.07513e-11
0.00321238
0.000192401
2.09265e-11
0.00299
0.000222384
1.13619e-10
0.00273309
0.000256906
1.80274e-10
0.0024375
0.000295589
2.14748e-10
0.00210056
0.000336945
2.11846e-10
0.00172297
0.000377584
1.6901e-10
0.00131188
0.000411096
9.05488e-11
0.000885251
0.000426627
-1.0186e-11
0.00047815
0.000407102
-1.07726e-10
0.000151617
0.000326533
-1.63707e-10
0.000151617
-1.19732e-10
0.00480203
-1.40568e-06
0.00480154
-3.85966e-07
0.0048005
7.03292e-07
0.00479889
1.86685e-06
0.00479665
3.11226e-06
0.00479375
4.44481e-06
0.00479014
5.86959e-06
0.00478577
7.39166e-06
0.00478059
9.01608e-06
0.00477454
1.07481e-05
0.00476757
1.25936e-05
0.00475962
1.45596e-05
0.00475062
1.66553e-05
0.00474051
1.88933e-05
0.00472919
2.129e-05
0.00471659
2.38674e-05
0.00470259
2.66533e-05
0.00468707
2.96818e-05
0.0046699
3.29941e-05
0.0046509
3.66387e-05
0.00462989
4.06711e-05
0.00460662
4.51539e-05
0.00458085
5.0157e-05
0.00455228
5.57582e-05
0.00452056
6.20443e-05
0.0044853
6.91138e-05
0.00444605
7.70791e-05
0.0044023
8.60716e-05
0.00435345
9.62465e-05
0.00429883
0.00010779
0.00423764
0.000120928
0.00416893
0.000135938
0.00409162
0.000153161
0.00400437
0.000173018
0.00390563
0.000196032
0.0037935
0.000222844
0.00366571
0.000254232
0.00351954
0.000291115
0.00335176
0.000334528
0.00315862
0.000385535
0.00293597
0.000445035
0.00267949
0.000513389
0.0023853
0.000589771
0.00205111
0.000671141
0.001678
0.000750695
0.00127342
0.000815674
0.000855526
0.000844521
0.000459033
0.000803595
0.00014279
0.000642776
0.000294406
0.00480019
1.29711e-06
0.00479699
2.81937e-06
0.00479324
4.44673e-06
0.00478892
6.18709e-06
0.00478399
8.04921e-06
0.00477839
1.00413e-05
0.00477209
1.21714e-05
0.00476503
1.44474e-05
0.00475717
1.6877e-05
0.00474845
1.94685e-05
0.00473881
2.22309e-05
0.0047282
2.5175e-05
0.00471654
2.83152e-05
0.00470376
3.16704e-05
0.00468979
3.52658e-05
0.00467452
3.91346e-05
0.00465785
4.33186e-05
0.00463967
4.78693e-05
0.00461981
5.28484e-05
0.00459812
5.83285e-05
0.0045744
6.43927e-05
0.00454842
7.11346e-05
0.00451992
7.86588e-05
0.00448859
8.70814e-05
0.00445411
9.65326e-05
0.00441606
0.00010716
0.00437401
0.000119131
0.00432743
0.000132644
0.00427575
0.000147931
0.00421827
0.00016527
0.0041542
0.000184999
0.00408261
0.00020753
0.0040024
0.000233371
0.00391227
0.000263146
0.00381068
0.000297624
0.00369577
0.000337748
0.00356535
0.000384654
0.00341679
0.000439674
0.00324703
0.000504293
0.00305255
0.000580014
0.00282953
0.000668059
0.0025741
0.000768812
0.00228301
0.000880864
0.00195464
0.000999505
0.00159084
0.0011145
0.00119956
0.00120695
0.000799048
0.00124503
0.000423558
0.00117909
0.000129252
0.000937082
0.000423658
0.00479748
8.03493e-06
0.00479025
1.00539e-05
0.00478248
1.22123e-05
0.00477415
1.45211e-05
0.0047652
1.69912e-05
0.00475561
1.96341e-05
0.00474532
2.24606e-05
0.00473429
2.54816e-05
0.00472246
2.87078e-05
0.00470978
3.21504e-05
0.00469618
3.58219e-05
0.00468162
3.97376e-05
0.00466602
4.39169e-05
0.0046493
4.83857e-05
0.00463139
5.31785e-05
0.00461219
5.83397e-05
0.00459158
6.39257e-05
0.00456944
7.00051e-05
0.00454563
7.66605e-05
0.00451997
8.39883e-05
0.00449227
9.20989e-05
0.00446228
0.000101117
0.00442976
0.000111181
0.0043944
0.000122445
0.00435585
0.000135082
0.00431372
0.000149289
0.00426756
0.00016529
0.00421686
0.000183347
0.00416102
0.000203769
0.00409936
0.000226926
0.0040311
0.000253264
0.0039553
0.00028333
0.00387088
0.000317789
0.00377657
0.000357458
0.00367085
0.00040334
0.00355195
0.00045665
0.00341776
0.000518845
0.00326583
0.000591609
0.00309332
0.000676795
0.00289712
0.000776221
0.0026739
0.000891276
0.00242054
0.00102218
0.00213468
0.00116672
0.0018158
0.00131839
0.00146675
0.00146355
0.00109613
0.00157758
0.000721723
0.00161944
0.000375923
0.00152489
0.000109962
0.00120304
0.00053362
0.00479393
2.00731e-05
0.0047814
2.25783e-05
0.00476836
2.52565e-05
0.00475476
2.81215e-05
0.00474056
3.11874e-05
0.00472573
3.44686e-05
0.00471021
3.7979e-05
0.00469396
4.17324e-05
0.00467693
4.57427e-05
0.00465905
5.00243e-05
0.00464028
5.45937e-05
0.00462055
5.94705e-05
0.00459978
6.46802e-05
0.00457791
7.02559e-05
0.00455485
7.62416e-05
0.0045305
8.26935e-05
0.00450474
8.96827e-05
0.00447745
9.72956e-05
0.00444847
0.000105635
0.00441764
0.000114821
0.00438475
0.000124992
0.00434956
0.000136302
0.00431182
0.000148924
0.00427121
0.00016305
0.0042274
0.000178895
0.00417999
0.000196704
0.00412852
0.000216758
0.00407248
0.000239381
0.00401129
0.000264961
0.00394426
0.000293955
0.00387061
0.00032692
0.00378941
0.000364525
0.00369961
0.00040759
0.00359996
0.00045711
0.003489
0.000514295
0.00336506
0.000580599
0.00322616
0.000657738
0.0030701
0.00074767
0.00289441
0.000852484
0.00269649
0.000974147
0.00247377
0.00111399
0.00222417
0.00127178
0.00194662
0.00144427
0.00164207
0.00162293
0.00131475
0.00179087
0.000973836
0.00191849
0.000635846
0.00195743
0.000328111
0.00183262
9.09663e-05
0.00144019
0.000624586
0.00478959
3.86066e-05
0.00477059
4.15813e-05
0.00475109
4.47631e-05
0.00473104
4.81681e-05
0.00471041
5.18136e-05
0.00468916
5.57168e-05
0.00466725
5.98946e-05
0.00464462
6.4364e-05
0.00462122
6.91419e-05
0.004597
7.42465e-05
0.00457189
7.96981e-05
0.00454584
8.55216e-05
0.00451877
9.17484e-05
0.00449061
9.84198e-05
0.00446126
0.000105589
0.00443063
0.000113326
0.00439859
0.000121716
0.00436503
0.000130862
0.00432977
0.00014089
0.00429265
0.000151943
0.00425346
0.000164185
0.00421196
0.000177802
0.00416788
0.000192998
0.00412093
0.000210005
0.00407075
0.000229079
0.00401694
0.000250512
0.00395905
0.000274642
0.00389658
0.000301858
0.00382892
0.00033262
0.00375539
0.000367478
0.00367523
0.000407089
0.0035875
0.000452246
0.00349119
0.000503907
0.00338507
0.000563228
0.00326777
0.000631594
0.00313773
0.000710644
0.00299319
0.000802272
0.00283229
0.000908574
0.00265308
0.00103169
0.00245376
0.00117347
0.00223293
0.00133482
0.00199006
0.00151466
0.00172608
0.00170825
0.00144422
0.00190479
0.00115076
0.00208433
0.000855789
0.00221346
0.000573511
0.00223971
0.000320871
0.00208526
0.000110927
0.00165013
0.000735513
0.00478456
6.47374e-05
0.00475798
6.81576e-05
0.00473092
7.1821e-05
0.00470335
7.57449e-05
0.00467521
7.99488e-05
0.00464647
8.44527e-05
0.00461709
8.92764e-05
0.00458702
9.44395e-05
0.0045562
9.99625e-05
0.00452458
0.000105867
0.0044921
0.000112178
0.00445869
0.000118925
0.00442429
0.000126147
0.00438882
0.000133893
0.00435218
0.000142226
0.00431428
0.00015123
0.00427499
0.000161004
0.00423418
0.000171671
0.0041917
0.000183377
0.00414735
0.000196288
0.00410094
0.000210596
0.00405223
0.000226515
0.00400095
0.000244283
0.00394678
0.000264169
0.00388939
0.00028647
0.00382838
0.000311527
0.00376329
0.00033973
0.00369361
0.000371535
0.00361876
0.000407476
0.00353805
0.000448188
0.0034507
0.000494431
0.00335583
0.000547115
0.00325241
0.000607327
0.00313928
0.000676364
0.00301511
0.000755758
0.00287848
0.000847278
0.00272785
0.000952906
0.00256169
0.00107473
0.00237866
0.00121472
0.00217786
0.00137426
0.00195931
0.00155337
0.00172447
0.0017495
0.00147703
0.00195569
0.00122363
0.00215818
0.000974459
0.0023335
0.000742787
0.00244514
0.000542326
0.00244017
0.0003779
0.00224969
0.000228993
0.00179904
0.000964506
-2.89769e-05
2.8974e-05
2.86051e-09
-7.26775e-05
4.36938e-05
6.83874e-09
-0.000105582
3.28953e-05
9.01738e-09
-0.000113377
7.78553e-06
9.94329e-09
-9.00614e-05
-2.33257e-05
9.78267e-09
-3.3259e-05
-5.68118e-05
9.37182e-09
5.63118e-05
-8.95793e-05
8.58005e-09
0.000175968
-0.000119664
7.59313e-09
0.000322162
-0.000146201
6.55525e-09
0.000490757
-0.0001686
5.5086e-09
0.000677395
-0.000186643
4.47333e-09
0.000877756
-0.000200364
3.45812e-09
0.00108771
-0.000209962
2.46874e-09
0.00130346
-0.000215747
1.51331e-09
0.00152156
-0.000218097
5.96613e-10
0.00173898
-0.000217428
-2.59384e-10
0.00195316
-0.000214169
-1.02676e-09
0.0021619
-0.000208744
-1.6598e-09
0.00236346
-0.00020156
-2.09645e-09
0.00255646
-0.000192998
-2.27919e-09
0.00273987
-0.000183407
-2.06445e-09
0.00291298
-0.000173101
-1.60647e-09
0.00307533
-0.000162355
-6.27547e-10
0.00322674
-0.000151408
8.17048e-10
0.0033672
-0.000140464
2.29533e-09
0.00349689
-0.000129692
3.63138e-09
0.00361611
-0.000119226
4.49131e-09
0.00372528
-0.000109177
4.82638e-09
0.0038249
-9.96233e-05
4.73181e-09
0.00391552
-9.06216e-05
4.30004e-09
0.00399772
-8.22064e-05
3.65691e-09
0.00407211
-7.4394e-05
2.93212e-09
0.0041393
-6.71854e-05
2.23596e-09
0.00419986
-6.05691e-05
1.64653e-09
0.00425439
-5.45242e-05
1.20643e-09
0.00430341
-4.90222e-05
9.33917e-10
0.00434744
-4.40297e-05
8.25307e-10
0.00438695
-3.95105e-05
8.63933e-10
0.00442237
-3.54265e-05
1.02641e-09
0.00445411
-3.17398e-05
1.28571e-09
0.00448252
-2.84133e-05
1.61465e-09
0.00450793
-2.54116e-05
1.98723e-09
0.00453063
-2.27016e-05
2.38046e-09
0.00455088
-2.02527e-05
2.7758e-09
0.00456891
-1.80371e-05
3.15845e-09
0.00458494
-1.60296e-05
3.51743e-09
0.00459914
-1.42079e-05
3.84659e-09
0.00461169
-1.25517e-05
4.14325e-09
0.00462273
-1.10433e-05
4.40593e-09
-9.66657e-06
0.00463239
4.63368e-09
-2.53378e-05
5.43119e-05
-6.15784e-05
7.99343e-05
-8.66415e-05
5.79584e-05
-8.73079e-05
8.45196e-06
-5.91567e-05
-5.14769e-05
1.2004e-06
-0.000117169
9.20206e-05
-0.0001804
0.000211447
-0.000239091
0.000356156
-0.000290909
0.000522254
-0.000334698
0.000705646
-0.000370035
0.000902249
-0.000396967
0.00110815
-0.00041586
0.0013197
-0.000427301
0.00153362
-0.000432014
0.00174699
-0.000430801
0.00195731
-0.00042449
0.00216248
-0.00041391
0.00236077
-0.000399853
0.00255084
-0.000383067
0.00273167
-0.000364234
0.00290254
-0.000343971
0.003063
-0.000322821
0.00321285
-0.000301258
0.00335207
-0.000279683
0.00348081
-0.000258431
0.00359936
-0.000237772
0.0037081
-0.000217921
0.00380751
-0.000199038
0.00389813
-0.000181236
0.00398051
-0.000164585
0.00405523
-0.000149119
0.00412289
-0.00013484
0.00418405
-0.000121728
0.00423927
-0.000109742
0.00428907
-9.8828e-05
0.00433396
-8.89199e-05
0.0043744
-7.99469e-05
0.00441081
-7.18347e-05
0.00444358
-6.45088e-05
0.00447306
-5.78963e-05
0.00449957
-5.19275e-05
0.00452341
-4.65371e-05
0.00454482
-4.16648e-05
0.00456404
-3.72556e-05
0.00458127
-3.32598e-05
0.0045967
-2.9633e-05
0.00461048
-2.63354e-05
0.00462277
-2.33313e-05
-2.05885e-05
0.00463369
-1.81954e-05
7.25073e-05
-4.00238e-05
0.000101763
-5.04089e-05
6.83435e-05
-3.80296e-05
-3.92737e-06
2.17282e-07
-8.97238e-05
6.49169e-05
-0.000181869
0.000157682
-0.000273164
0.000276192
-0.000357601
0.000417548
-0.000432266
0.000578428
-0.000495577
0.00075526
-0.000546867
0.000944425
-0.000586131
0.0011424
-0.000613837
0.00134588
-0.000630777
0.00155182
-0.000637954
0.00175751
-0.000636497
0.00196061
-0.000627586
0.0021591
-0.000612405
0.00235135
-0.000592099
0.00253603
-0.00056775
0.00271215
-0.000540353
0.00287899
-0.000510806
0.00303607
-0.000479908
0.00318317
-0.000448354
0.00332023
-0.000416738
0.00344735
-0.000385556
0.00356479
-0.00035521
0.00367289
-0.00032602
0.00377208
-0.000298226
0.00386284
-0.000271998
0.00394569
-0.000247443
0.00402119
-0.000224615
0.00408987
-0.000203522
0.00415228
-0.000184137
0.00420894
-0.000166404
0.00426036
-0.000150243
0.004307
-0.000135562
0.00434931
-0.000122258
0.0043877
-0.000110223
0.00442254
-9.93475e-05
0.00445417
-8.9526e-05
0.0044829
-8.06562e-05
0.004509
-7.26425e-05
0.00453273
-6.53961e-05
0.00455431
-5.88361e-05
0.00457394
-5.28894e-05
0.0045918
-4.74904e-05
0.00460804
-4.25802e-05
0.00462282
-3.81059e-05
-3.40183e-05
0.00463625
-4.91173e-06
7.7419e-05
-7.68297e-06
0.000104534
3.012e-06
5.76485e-05
2.90076e-05
-2.9923e-05
7.72689e-05
-0.000137985
0.00014912
-0.000253719
0.000243507
-0.000367552
0.00035938
-0.000473473
0.00049483
-0.000567716
0.000647387
-0.000648134
0.000814245
-0.000713726
0.000992445
-0.000764331
0.00117901
-0.000800403
0.00137106
-0.000822829
0.00156591
-0.000832796
0.00176108
-0.000831669
0.0019544
-0.000820908
0.00214399
-0.000801993
0.00232826
-0.000776373
0.00250594
-0.000745427
0.00267602
-0.000710432
0.00283776
-0.000672548
0.00299066
-0.000632808
0.00313443
-0.000592122
0.00326895
-0.000551266
0.00339429
-0.000510894
0.00351062
-0.000471539
0.00361823
-0.000433626
0.00371748
-0.000397475
0.0038088
-0.000363317
0.00389265
-0.000331298
0.00396953
-0.000301496
0.00403994
-0.000273929
0.00410437
-0.000248568
0.00416331
-0.000225343
0.00421723
-0.000204159
0.00426656
-0.000184897
0.00431173
-0.000167426
0.00435311
-0.000151609
0.00439107
-0.000137307
0.00442593
-0.000124382
0.00445798
-0.000112702
0.00448748
-0.000102143
0.00451467
-9.25912e-05
0.00453978
-8.39403e-05
0.00456298
-7.60953e-05
0.00458446
-6.89704e-05
0.00460437
-6.24887e-05
0.00462284
-5.65804e-05
-5.1179e-05
0.00464
9.66532e-06
6.77537e-05
2.92983e-05
8.49011e-05
6.21605e-05
2.47863e-05
0.000107606
-7.53682e-05
0.000168332
-0.000198712
0.000245146
-0.000330533
0.000338658
-0.000461063
0.000448823
-0.000583638
0.00057489
-0.000693784
0.000715492
-0.000788736
0.000868791
-0.000867025
0.00103263
-0.000928172
0.00120468
-0.000972455
0.00138256
-0.00100071
0.00156394
-0.00101417
0.00174661
-0.00101434
0.00192855
-0.00100285
0.00210797
-0.000981415
0.00228333
-0.000951733
0.00245334
-0.000915439
0.00261697
-0.000874062
0.00277343
-0.000829004
0.00292214
-0.00078152
0.00306274
-0.00073272
0.00319503
-0.000683563
0.003319
-0.000634858
0.00343473
-0.000587272
0.00354244
-0.000541336
0.00364242
-0.000497457
0.00373503
-0.000455926
0.00382067
-0.000416937
0.00389977
-0.000380596
0.00397278
-0.000346936
0.00404014
-0.00031593
0.0041023
-0.000287504
0.00415969
-0.000261547
0.00421271
-0.000237921
0.00426176
-0.000216472
0.00430719
-0.000197037
0.00434933
-0.000179449
0.00438849
-0.000163542
0.00442495
-0.000149159
0.00445895
-0.00013615
0.00449074
-0.000124374
0.0045205
-0.000113704
0.00454843
-0.000104025
0.00457469
-9.5231e-05
0.00459943
-8.72286e-05
0.00462278
-7.99319e-05
-7.32569e-05
0.00464486
2.88324e-05
3.89212e-05
7.75559e-05
3.61776e-05
0.000134328
-3.19858e-05
0.000197165
-0.000138205
0.00026698
-0.000268527
0.000345147
-0.000408699
0.000433476
-0.000549392
0.000533365
-0.000683527
0.000645512
-0.000805931
0.000769869
-0.000913093
0.000905722
-0.00100288
0.00105182
-0.00107427
0.00120654
-0.00112717
0.00136801
-0.00116217
0.00153422
-0.00118039
0.0017032
-0.00118332
0.00187304
-0.00117269
0.00204197
-0.00115035
0.00220843
-0.00111819
0.00237106
-0.00107807
0.00252875
-0.00103175
0.00268059
-0.000980849
0.00282592
-0.000926846
0.00296425
-0.000871049
0.00309528
-0.000814595
0.00321888
-0.00075846
0.00333506
-0.000703448
0.00344393
-0.000650206
0.0035457
-0.000599231
0.00364067
-0.000550888
0.00372915
-0.000505421
0.00381153
-0.000462972
0.00388819
-0.000423596
0.00395953
-0.000387276
0.00402596
-0.000353936
0.00408787
-0.000323457
0.00414564
-0.000295686
0.00419962
-0.000270451
0.00425015
-0.000247565
0.00429754
-0.000226837
0.00434207
-0.000208079
0.00438402
-0.000191106
0.00442361
-0.000175746
0.00446108
-0.000161835
0.0044966
-0.000149227
0.00453036
-0.000137784
0.00456251
-0.000127385
0.0045932
-0.00011792
0.00462256
-0.000109288
-0.000101389
0.00465069
5.48008e-05
-1.58796e-05
0.000134644
-4.36653e-05
0.000213233
-0.000110575
0.000288907
-0.000213879
0.000361754
-0.000341374
0.000434957
-0.000481902
0.000512127
-0.000626562
0.00059643
-0.000767831
0.000690161
-0.000899661
0.000794624
-0.00101756
0.000910206
-0.00111846
0.00103651
-0.00120058
0.00117253
-0.00126319
0.00131681
-0.00130645
0.00146763
-0.00133121
0.00162312
-0.00133881
0.00178139
-0.00133096
0.00194066
-0.00130961
0.00209924
-0.00127678
0.00225568
-0.00123451
0.00240871
-0.00118477
0.00255729
-0.00112943
0.0027006
-0.00107016
0.00283804
-0.00100849
0.00296917
-0.00094573
0.00309375
-0.000883038
0.00321167
-0.000821369
0.00332296
-0.000761496
0.00342775
-0.000704018
0.00352624
-0.000649382
0.00361871
-0.000597891
0.00370547
-0.000549733
0.00378687
-0.000504991
0.00386325
-0.000463663
0.003935
-0.000425679
0.00400246
-0.000390916
0.00406598
-0.000359211
0.00412591
-0.000330376
0.00418255
-0.000304204
0.00423619
-0.000280484
0.00428712
-0.000259004
0.00433557
-0.000239559
0.00438178
-0.000221953
0.00442594
-0.000206003
0.00446826
-0.000191541
0.00450889
-0.000178412
0.00454798
-0.000166478
0.00458567
-0.000155615
0.00462209
-0.000145707
0.00465735
-0.000136646
0.00465094
-1.85538e-05
4.85259e-09
0.00466871
-1.77756e-05
5.10927e-09
0.00468575
-1.70434e-05
5.33802e-09
0.0047021
-1.63559e-05
5.54375e-09
0.00471781
-1.57111e-05
5.73803e-09
0.00473291
-1.51063e-05
5.93406e-09
0.00474744
-1.45383e-05
6.14339e-09
0.00476143
-1.40032e-05
6.37458e-09
0.00477492
-1.34957e-05
6.63166e-09
0.00478793
-1.3009e-05
6.91475e-09
0.00480045
-1.2535e-05
7.21933e-09
0.00481251
-1.2064e-05
7.53661e-09
0.00482409
-1.15859e-05
7.85447e-09
0.00483517
-1.10913e-05
8.15747e-09
0.00484574
-1.05729e-05
8.42781e-09
0.00485576
-1.00278e-05
8.6469e-09
0.00486521
-9.45895e-06
8.79655e-09
0.00487407
-8.87537e-06
8.86055e-09
0.00488235
-8.29205e-06
8.82702e-09
0.00489007
-7.72776e-06
8.69048e-09
0.00489727
-7.202e-06
8.45257e-09
0.00490399
-6.73144e-06
8.12202e-09
0.00491031
-6.32705e-06
7.7135e-09
0.0049163
-5.99227e-06
7.24531e-09
0.00492201
-5.72308e-06
6.73644e-09
0.00492751
-5.50946e-06
6.20452e-09
0.00493285
-5.33795e-06
5.66508e-09
0.00493804
-5.19431e-06
5.13058e-09
0.0049431
-5.06582e-06
4.6095e-09
0.00494804
-4.94267e-06
4.10646e-09
0.00495285
-4.81837e-06
3.62335e-09
0.00495754
-4.68948e-06
3.16093e-09
0.00496209
-4.55492e-06
2.71957e-09
0.0049665
-4.41513e-06
2.29848e-09
0.00497077
-4.27135e-06
1.89603e-09
0.0049749
-4.12512e-06
1.51059e-09
0.00497887
-3.97792e-06
1.14239e-09
0.0049827
-3.83102e-06
7.92702e-10
0.00498639
-3.68544e-06
4.64759e-10
0.00498993
-3.54196e-06
1.62085e-10
0.00499333
-3.40114e-06
-1.10921e-10
0.00499659
-3.26338e-06
-3.53658e-10
0.00499972
-3.12894e-06
-5.67938e-10
0.00500272
-2.99799e-06
-7.58452e-10
0.00500559
-2.87063e-06
-9.38761e-10
0.00500834
-2.74684e-06
-1.11634e-09
0.00501097
-2.62668e-06
-1.29141e-09
0.00501348
-2.51011e-06
-1.47173e-09
0.00501588
-2.39711e-06
-1.66347e-09
0.00501817
-2.2876e-06
-1.87486e-09
0.00502035
-2.18151e-06
-2.11037e-09
0.00502243
-2.07878e-06
-2.37348e-09
0.00502442
-1.97934e-06
-2.66373e-09
0.0050263
-1.88313e-06
-2.97054e-09
0.0050281
-1.79009e-06
-3.2792e-09
0.0050298
-1.70019e-06
-3.56964e-09
0.00503142
-1.61337e-06
-3.82443e-09
0.00503295
-1.52957e-06
-4.02985e-09
0.0050344
-1.44873e-06
-4.18744e-09
0.00503578