/*--------------------------------*- C++ -*----------------------------------*\
| =========                 |                                                 |
| \\      /  F ield         | OpenFOAM: The Open Source CFD Toolbox           |
|  \\    /   O peration     | Version:  2412                                  |
|   \\  /    A nd           | Website:  www.openfoam.com                      |
|    \\/     M anipulation  |                                                 |
\*---------------------------------------------------------------------------*/
FoamFile
{
    version     2.0;
    format      ascii;
    arch        "LSB;label=32;scalar=64";
    class       volVectorField;
    location    "11";
    object      U;
}
// * * * * * * * * * * * * * * * * * * * * * * * * * * * * * * * * * * * * * //

dimensions      [0 1 -1 0 0 0 0];

internalField   nonuniform List<vector> 
63420
(
(0.0999997 4.3363e-07 0)
(0.099995 1.16909e-06 0)
(0.0999865 2.31186e-06 0)
(0.0999692 4.78867e-06 0)
(0.099934 8.8322e-06 0)
(0.0998743 1.35272e-05 0)
(0.0997915 1.74161e-05 0)
(0.0996942 1.94499e-05 0)
(0.099594 1.94691e-05 0)
(0.0995001 1.80478e-05 0)
(0.0994173 1.60304e-05 0)
(0.099346 1.41312e-05 0)
(0.0992839 1.27572e-05 0)
(0.0992277 1.20239e-05 0)
(0.0991745 1.18608e-05 0)
(0.0991219 1.21213e-05 0)
(0.0990685 1.26565e-05 0)
(0.0990135 1.33508e-05 0)
(0.0989565 1.41284e-05 0)
(0.0988973 1.49474e-05 0)
(0.0988359 1.57893e-05 0)
(0.0987725 1.66497e-05 0)
(0.098707 1.75313e-05 0)
(0.0986394 1.84401e-05 0)
(0.0985697 1.93827e-05 0)
(0.098498 2.03656e-05 0)
(0.0984241 2.13944e-05 0)
(0.098348 2.24741e-05 0)
(0.0982697 2.36093e-05 0)
(0.098189 2.48038e-05 0)
(0.0981059 2.60614e-05 0)
(0.0980203 2.73855e-05 0)
(0.0979321 2.87795e-05 0)
(0.0978413 3.02468e-05 0)
(0.0977477 3.17906e-05 0)
(0.0976513 3.34145e-05 0)
(0.097552 3.51219e-05 0)
(0.0974496 3.69165e-05 0)
(0.0973441 3.88021e-05 0)
(0.0972354 4.07826e-05 0)
(0.0971235 4.28621e-05 0)
(0.0970081 4.5045e-05 0)
(0.0968893 4.73358e-05 0)
(0.0967669 4.97394e-05 0)
(0.0966408 5.22608e-05 0)
(0.0965109 5.49053e-05 0)
(0.0963772 5.76787e-05 0)
(0.0962395 6.05871e-05 0)
(0.0960976 6.36368e-05 0)
(0.0959516 6.68351e-05 0)
(0.0958013 7.01899e-05 0)
(0.0956465 7.3711e-05 0)
(0.0954872 7.7413e-05 0)
(0.0953232 8.13253e-05 0)
(0.0951542 8.55191e-05 0)
(0.0999998 1.30143e-06 0)
(0.099995 3.51111e-06 0)
(0.0999865 6.92968e-06 0)
(0.0999693 1.43197e-05 0)
(0.0999344 2.63838e-05 0)
(0.0998754 4.04054e-05 0)
(0.0997933 5.2044e-05 0)
(0.0996968 5.81674e-05 0)
(0.0995971 5.82888e-05 0)
(0.0995034 5.4108e-05 0)
(0.0994206 4.81359e-05 0)
(0.099349 4.25006e-05 0)
(0.0992866 3.8418e-05 0)
(0.09923 3.62368e-05 0)
(0.0991765 3.57511e-05 0)
(0.0991236 3.65269e-05 0)
(0.09907 3.81229e-05 0)
(0.0990148 4.01948e-05 0)
(0.0989577 4.25175e-05 0)
(0.0988984 4.4966e-05 0)
(0.0988371 4.74849e-05 0)
(0.0987736 5.00607e-05 0)
(0.0987081 5.27014e-05 0)
(0.0986406 5.54245e-05 0)
(0.098571 5.82495e-05 0)
(0.0984993 6.11953e-05 0)
(0.0984255 6.4279e-05 0)
(0.0983495 6.75155e-05 0)
(0.0982713 7.0918e-05 0)
(0.0981907 7.44984e-05 0)
(0.0981077 7.82676e-05 0)
(0.0980222 8.22359e-05 0)
(0.0979342 8.64135e-05 0)
(0.0978435 9.08102e-05 0)
(0.0977501 9.54362e-05 0)
(0.0976538 0.000100302 0)
(0.0975546 0.000105417 0)
(0.0974524 0.000110793 0)
(0.0973472 0.000116442 0)
(0.0972387 0.000122374 0)
(0.0971269 0.000128603 0)
(0.0970118 0.000135141 0)
(0.0968932 0.000142002 0)
(0.0967711 0.0001492 0)
(0.0966452 0.00015675 0)
(0.0965157 0.000164669 0)
(0.0963822 0.000172973 0)
(0.0962448 0.000181681 0)
(0.0961034 0.000190811 0)
(0.0959577 0.000200386 0)
(0.0958078 0.000210428 0)
(0.0956535 0.000220966 0)
(0.0954946 0.000232044 0)
(0.0953311 0.000243748 0)
(0.0951627 0.000256285 0)
(0.0999998 2.16937e-06 0)
(0.099995 5.85798e-06 0)
(0.0999865 1.15256e-05 0)
(0.0999694 2.37328e-05 0)
(0.0999352 4.36686e-05 0)
(0.0998774 6.68852e-05 0)
(0.0997969 8.62287e-05 0)
(0.0997018 9.6507e-05 0)
(0.0996032 9.6877e-05 0)
(0.09951 9.011e-05 0)
(0.0994271 8.03338e-05 0)
(0.099355 7.10631e-05 0)
(0.0992919 6.43182e-05 0)
(0.0992346 6.06911e-05 0)
(0.0991803 5.98564e-05 0)
(0.0991269 6.11071e-05 0)
(0.0990729 6.37201e-05 0)
(0.0990174 6.7129e-05 0)
(0.0989601 7.09617e-05 0)
(0.0989007 7.50108e-05 0)
(0.0988393 7.91836e-05 0)
(0.0987759 8.34564e-05 0)
(0.0987105 8.78413e-05 0)
(0.098643 9.23662e-05 0)
(0.0985736 9.70629e-05 0)
(0.098502 0.000101962 0)
(0.0984284 0.000107092 0)
(0.0983526 0.000112476 0)
(0.0982745 0.000118138 0)
(0.0981941 0.000124095 0)
(0.0981114 0.000130366 0)
(0.0980261 0.000136969 0)
(0.0979384 0.00014392 0)
(0.0978479 0.000151235 0)
(0.0977548 0.000158931 0)
(0.0976588 0.000167025 0)
(0.09756 0.000175534 0)
(0.0974581 0.000184477 0)
(0.0973532 0.000193872 0)
(0.0972452 0.000203738 0)
(0.0971338 0.000214096 0)
(0.0970191 0.000224968 0)
(0.096901 0.000236375 0)
(0.0967794 0.000248342 0)
(0.0966541 0.000260894 0)
(0.0965251 0.000274057 0)
(0.0963923 0.000287858 0)
(0.0962556 0.000302328 0)
(0.0961148 0.000317499 0)
(0.0959699 0.000333405 0)
(0.0958208 0.000350084 0)
(0.0956674 0.000367585 0)
(0.0955094 0.000385975 0)
(0.0953469 0.000405391 0)
(0.0951796 0.000426162 0)
(0.0999998 3.03747e-06 0)
(0.099995 8.21248e-06 0)
(0.0999864 1.60863e-05 0)
(0.0999696 3.29559e-05 0)
(0.0999364 6.05239e-05 0)
(0.0998803 9.2723e-05 0)
(0.099802 0.000119699 0)
(0.099709 0.000134236 0)
(0.0996119 0.00013509 0)
(0.0995195 0.000126015 0)
(0.0994364 0.000112677 0)
(0.0993637 9.99337e-05 0)
(0.0992995 9.06015e-05 0)
(0.0992412 8.55325e-05 0)
(0.099186 8.43065e-05 0)
(0.0991318 8.59674e-05 0)
(0.0990771 8.95272e-05 0)
(0.0990212 9.42072e-05 0)
(0.0989636 9.94932e-05 0)
(0.0989041 0.000105096 0)
(0.0988427 0.000110886 0)
(0.0987793 0.000116825 0)
(0.098714 0.00012293 0)
(0.0986466 0.000129236 0)
(0.0985774 0.000135787 0)
(0.098506 0.000142624 0)
(0.0984326 0.000149785 0)
(0.0983571 0.000157303 0)
(0.0982793 0.000165208 0)
(0.0981992 0.000173528 0)
(0.0981168 0.000182286 0)
(0.0980319 0.000191507 0)
(0.0979445 0.000201214 0)
(0.0978545 0.000211429 0)
(0.0977618 0.000222175 0)
(0.0976663 0.000233476 0)
(0.0975679 0.000245356 0)
(0.0974666 0.000257839 0)
(0.0973623 0.000270953 0)
(0.0972548 0.000284723 0)
(0.0971441 0.000299178 0)
(0.0970301 0.000314348 0)
(0.0969127 0.000330263 0)
(0.0967918 0.000346957 0)
(0.0966674 0.000364464 0)
(0.0965392 0.00038282 0)
(0.0964073 0.000402064 0)
(0.0962716 0.000422236 0)
(0.0961319 0.00044338 0)
(0.0959881 0.000465543 0)
(0.0958402 0.000488778 0)
(0.0956881 0.000513148 0)
(0.0955315 0.000538745 0)
(0.0953705 0.000565743 0)
(0.0952048 0.000594565 0)
(0.0999998 3.90571e-06 0)
(0.099995 1.05767e-05 0)
(0.0999864 2.05998e-05 0)
(0.0999699 4.19271e-05 0)
(0.0999379 7.6809e-05 0)
(0.099884 0.000117707 0)
(0.0998084 0.000152216 0)
(0.0997181 0.000171149 0)
(0.099623 0.000172797 0)
(0.0995314 0.000161784 0)
(0.0994482 0.000145208 0)
(0.0993746 0.000129208 0)
(0.0993093 0.00011739 0)
(0.0992496 0.000110885 0)
(0.0991932 0.000109212 0)
(0.099138 0.000111198 0)
(0.0990826 0.000115611 0)
(0.0990261 0.000121474 0)
(0.0989682 0.000128138 0)
(0.0989085 0.000135233 0)
(0.098847 0.000142588 0)
(0.0987837 0.000150153 0)
(0.0987185 0.000157945 0)
(0.0986514 0.000166005 0)
(0.0985823 0.000174385 0)
(0.0985113 0.000183138 0)
(0.0984382 0.00019231 0)
(0.098363 0.000201942 0)
(0.0982856 0.000212072 0)
(0.098206 0.000222733 0)
(0.098124 0.000233957 0)
(0.0980396 0.000245774 0)
(0.0979527 0.000258212 0)
(0.0978632 0.000271301 0)
(0.0977711 0.000285069 0)
(0.0976762 0.000299547 0)
(0.0975785 0.000314765 0)
(0.0974779 0.000330754 0)
(0.0973743 0.000347548 0)
(0.0972676 0.00036518 0)
(0.0971577 0.000383687 0)
(0.0970446 0.000403105 0)
(0.0969281 0.000423475 0)
(0.0968083 0.000444837 0)
(0.0966849 0.000467235 0)
(0.0965579 0.000490714 0)
(0.0964272 0.000515323 0)
(0.0962928 0.000541114 0)
(0.0961545 0.000568139 0)
(0.0960122 0.000596458 0)
(0.0958659 0.000626136 0)
(0.0957155 0.000657249 0)
(0.0955608 0.000689905 0)
(0.0954017 0.000724305 0)
(0.0952382 0.000760926 0)
(0.0999998 4.77404e-06 0)
(0.099995 1.29521e-05 0)
(0.0999863 2.50568e-05 0)
(0.0999702 5.05973e-05 0)
(0.0999396 9.24121e-05 0)
(0.0998882 0.000141669 0)
(0.0998158 0.00018359 0)
(0.0997287 0.000207077 0)
(0.0996357 0.000209888 0)
(0.0995452 0.000197379 0)
(0.0994619 0.000177951 0)
(0.0993874 0.000158958 0)
(0.0993207 0.000144776 0)
(0.0992595 0.000136845 0)
(0.0992017 0.00013466 0)
(0.0991453 0.000136868 0)
(0.0990891 0.000142023 0)
(0.099032 0.000148964 0)
(0.0989737 0.000156914 0)
(0.0989139 0.000165424 0)
(0.0988524 0.000174283 0)
(0.0987891 0.000183425 0)
(0.0987241 0.000192862 0)
(0.0986572 0.000202641 0)
(0.0985885 0.000212822 0)
(0.0985178 0.000223463 0)
(0.0984451 0.00023462 0)
(0.0983703 0.00024634 0)
(0.0982934 0.000258669 0)
(0.0982143 0.000271646 0)
(0.0981328 0.000285309 0)
(0.098049 0.000299692 0)
(0.0979628 0.000314831 0)
(0.097874 0.000330761 0)
(0.0977825 0.000347517 0)
(0.0976884 0.000365133 0)
(0.0975915 0.000383647 0)
(0.0974918 0.000403097 0)
(0.0973891 0.000423522 0)
(0.0972834 0.000444963 0)
(0.0971745 0.000467464 0)
(0.0970625 0.000491068 0)
(0.0969473 0.000515824 0)
(0.0968286 0.000541779 0)
(0.0967066 0.000568987 0)
(0.096581 0.000597501 0)
(0.0964519 0.000627379 0)
(0.0963191 0.000658681 0)
(0.0961825 0.000691471 0)
(0.0960421 0.000725818 0)
(0.0958977 0.000761796 0)
(0.0957494 0.000799493 0)
(0.0955969 0.000839025 0)
(0.0954403 0.000880598 0)
(0.0952794 0.000924693 0)
(0.0999998 5.64204e-06 0)
(0.099995 1.5339e-05 0)
(0.0999863 2.94505e-05 0)
(0.0999706 5.89324e-05 0)
(0.0999414 0.000107255 0)
(0.0998927 0.000164488 0)
(0.0998239 0.00021368 0)
(0.0997401 0.000241893 0)
(0.0996497 0.000246277 0)
(0.0995603 0.000232761 0)
(0.099477 0.000210916 0)
(0.0994015 0.000189223 0)
(0.0993333 0.000172819 0)
(0.0992705 0.000163474 0)
(0.0992113 0.000160707 0)
(0.0991537 0.000163024 0)
(0.0990964 0.000168795 0)
(0.0990388 0.000176696 0)
(0.0989801 0.000185828 0)
(0.0989201 0.000195667 0)
(0.0988585 0.00020596 0)
(0.0987954 0.00021662 0)
(0.0987306 0.000227655 0)
(0.098664 0.000239114 0)
(0.0985957 0.000251059 0)
(0.0985254 0.000263556 0)
(0.0984532 0.000276667 0)
(0.0983789 0.000290446 0)
(0.0983026 0.000304943 0)
(0.0982241 0.000320205 0)
(0.0981433 0.000336273 0)
(0.0980602 0.000353188 0)
(0.0979747 0.000370991 0)
(0.0978867 0.000389722 0)
(0.0977961 0.000409421 0)
(0.0977029 0.00043013 0)
(0.097607 0.00045189 0)
(0.0975083 0.000474746 0)
(0.0974067 0.000498743 0)
(0.0973021 0.000523929 0)
(0.0971945 0.000550354 0)
(0.0970838 0.000578068 0)
(0.09697 0.000607127 0)
(0.0968528 0.000637587 0)
(0.0967324 0.000669506 0)
(0.0966085 0.000702949 0)
(0.0964812 0.000737979 0)
(0.0963502 0.000774666 0)
(0.0962157 0.000813082 0)
(0.0960775 0.000853305 0)
(0.0959354 0.000895415 0)
(0.0957895 0.000939508 0)
(0.0956397 0.000985698 0)
(0.095486 0.00103417 0)
(0.0953282 0.00108532 0)
(0.0949793 9.01996e-05 -4.68976e-24)
(0.0947967 9.51637e-05 -4.77802e-24)
(0.0946045 0.000100464 -3.20421e-26)
(0.094402 0.000106135 1.46701e-23)
(0.0941886 0.000112238 -4.86e-24)
(0.0939636 0.000118772 -4.99815e-24)
(0.093726 0.000125756 -1.53804e-23)
(0.0934751 0.000133217 1.52736e-23)
(0.09321 0.000141182 5.22318e-24)
(0.0929298 0.000149676 0)
(0.0926335 0.000158726 5.39244e-24)
(0.09232 0.000168368 -5.48361e-24)
(0.0919883 0.000178646 4.50872e-23)
(0.0916373 0.000189622 -9.66155e-23)
(0.0912655 0.000201378 5.16336e-23)
(0.0908716 0.000214021 4.18177e-23)
(0.0904539 0.00022769 5.36609e-23)
(0.0900104 0.000242556 -6.14285e-24)
(0.0895387 0.000258825 6.27524e-24)
(0.0890362 0.000276738 -6.41542e-24)
(0.0884997 0.000296573 0)
(0.0879255 0.000318644 6.72168e-24)
(0.0873092 0.0003433 -6.88919e-24)
(0.086646 0.000370929 0)
(0.08593 0.000401965 -7.2572e-24)
(0.0851549 0.000436898 0)
(0.0843131 0.000476289 -7.67581e-24)
(0.0833963 0.000520792 -1.28646e-22)
(0.0823946 0.000571181 1.36604e-22)
(0.0812969 0.000628384 -1.37177e-22)
(0.0800901 0.000693532 1.36968e-22)
(0.078759 0.000768007 0)
(0.0772858 0.000853522 0)
(0.0756492 0.000952194 1.6817e-22)
(0.0738238 0.00106665 -1.58233e-22)
(0.0717792 0.00120013 0)
(0.0694786 0.00135658 0)
(0.0668778 0.00154067 0)
(0.0639235 0.00175769 0)
(0.060553 0.00201311 0)
(0.0566941 0.00231163 0)
(0.0522678 0.00265531 0)
(0.0471947 0.00304029 0)
(0.0414091 0.00345159 0)
(0.034885 0.00385528 -1.57432e-23)
(0.0276783 0.00418727 -5.4141e-22)
(0.0199744 0.00433975 5.40599e-22)
(0.0121676 0.004147 5.88157e-22)
(0.00522329 0.00335426 -5.87274e-22)
(0.0010681 0.00156521 0)
(0.0949882 0.000270269 -4.74262e-24)
(0.0948059 0.000285113 -9.66733e-24)
(0.0946139 0.000300999 -5.06125e-24)
(0.0944118 0.000318024 4.72318e-24)
(0.0941989 0.000336276 -4.92575e-24)
(0.0939742 0.000355812 3.52789e-23)
(0.0937372 0.000376704 -5.54044e-23)
(0.0934869 0.000399032 5.14335e-24)
(0.0932224 0.00042287 6.86111e-23)
(0.0929428 0.000448296 -9.47625e-23)
(0.0926472 0.000475395 -9.24806e-23)
(0.0923346 0.000504273 8.14907e-23)
(0.0920038 0.000535066 0)
(0.0916536 0.000567956 5.68614e-24)
(0.0912829 0.000603193 -1.73724e-23)
(0.09089 0.000641101 -1.96932e-22)
(0.0904733 0.000682095 1.88951e-22)
(0.0900308 0.000726687 -2.00861e-22)
(0.0895603 0.000775491 -1.88533e-23)
(0.0890591 0.000829233 6.4295e-24)
(0.0885239 0.000888743 0)
(0.0879512 0.000954959 -6.73909e-24)
(0.0873367 0.00102892 -2.17126e-22)
(0.0866756 0.0011118 4.53719e-22)
(0.0859622 0.00120488 2.5025e-22)
(0.0851901 0.00130964 -4.72014e-22)
(0.084352 0.00142775 5.08328e-22)
(0.0834397 0.00156118 -5.15811e-22)
(0.0824436 0.00171223 -8.18682e-24)
(0.0813527 0.00188368 0)
(0.0801543 0.00207891 0)
(0.0788337 0.00230206 0)
(0.0773734 0.00255821 0)
(0.0757531 0.00285369 -9.74384e-24)
(0.0739482 0.00319631 -6.61441e-22)
(0.0719295 0.00359569 -2.85015e-23)
(0.0696621 0.0040635 6.8815e-22)
(0.0671038 0.00461354 7.50878e-22)
(0.0642042 0.0052614 -7.49883e-22)
(0.060904 0.00602308 -2.49514e-23)
(0.0571347 0.00691218 -2.60992e-23)
(0.052821 0.00793418 -9.01919e-22)
(0.0478862 0.00907682 8.72188e-22)
(0.042264 0.0102946 -2.97888e-23)
(0.0359205 0.0114855 1.58533e-23)
(0.028891 0.0124584 -1.10079e-21)
(0.021322 0.0128921 1.10042e-21)
(0.0135411 0.0122942 -2.29884e-21)
(0.00638135 0.00991809 2.26041e-21)
(0.00153993 0.00459503 -2.31635e-21)
(0.095006 0.000449318 -2.80638e-23)
(0.0948241 0.000473977 -9.83365e-24)
(0.0946328 0.000500378 3.79672e-23)
(0.0944314 0.000528658 -7.80446e-23)
(0.0942192 0.000558926 1.66968e-22)
(0.0939955 0.000591322 -7.90822e-23)
(0.0937595 0.000625982 1.42816e-26)
(0.0935103 0.000663032 1.02589e-23)
(0.0932471 0.000702599 1.78785e-22)
(0.0929689 0.000744814 -1.68174e-22)
(0.0926749 0.000789824 0)
(0.0923639 0.000837806 1.47425e-26)
(0.0920349 0.000888992 0)
(0.0916866 0.000943692 1.95293e-22)
(0.0913178 0.00100232 -1.72144e-22)
(0.090927 0.00106543 -3.70886e-22)
(0.0905125 0.00113369 2.04872e-23)
(0.0900723 0.00120798 -3.90398e-22)
(0.0896042 0.0012893 1.26154e-23)
(0.0891056 0.00137886 -4.17831e-22)
(0.0885733 0.00147804 4.3063e-22)
(0.0880039 0.00158839 -4.38648e-22)
(0.0873932 0.00171163 4.52095e-22)
(0.0867365 0.0018497 1.42267e-23)
(0.0860283 0.00200474 -1.46154e-23)
(0.0852626 0.00217918 1.50294e-23)
(0.0844323 0.00237581 -5.03435e-22)
(0.0835293 0.00259789 5.18934e-22)
(0.0825447 0.00284924 5.52319e-22)
(0.0814678 0.00313447 -5.35367e-22)
(0.0802867 0.00345916 0)
(0.0789875 0.00383014 0)
(0.0775537 0.0042558 1.88364e-23)
(0.0759665 0.00474652 1.299e-21)
(0.0742032 0.00531509 3.20766e-23)
(0.0722372 0.0059772 -1.30825e-21)
(0.0700368 0.00675181 0)
(0.0675644 0.00766122 -2.2913e-23)
(0.0647751 0.00873035 1.59837e-21)
(0.0616163 0.00998453 -3.19309e-21)
(0.0580272 0.0114446 3.38974e-21)
(0.0539401 0.0131174 1.05042e-22)
(0.0492831 0.0149802 -1.7652e-21)
(0.0439885 0.0169552 -1.91698e-21)
(0.0380064 0.0188725 1.97561e-21)
(0.03133 0.0204172 1.53452e-24)
(0.0240266 0.0210623 -3.36906e-23)
(0.0162917 0.0199997 2.21951e-21)
(0.00867972 0.0160403 -2.14923e-21)
(0.00244693 0.00736314 -2.14931e-21)
(0.0950326 0.000626675 1.84941e-23)
(0.0948515 0.000661005 -9.38132e-24)
(0.0946611 0.00069773 1.96148e-26)
(0.0944607 0.000737034 9.64602e-24)
(0.0942497 0.000779108 -1.97185e-26)
(0.0940274 0.000824146 1.60109e-22)
(0.0937929 0.000872336 -3.02495e-22)
(0.0935455 0.00092386 1.62545e-22)
(0.0932842 0.0009789 -1.04011e-23)
(0.0930083 0.00103765 1.92142e-22)
(0.0927166 0.00110031 -1.70906e-22)
(0.0924082 0.00116714 -3.54448e-22)
(0.0920819 0.00123848 7.15567e-22)
(0.0917366 0.00131477 -7.29441e-22)
(0.0913709 0.00139659 7.43999e-22)
(0.0909834 0.00148471 -7.47506e-22)
(0.0905723 0.00158009 -3.95675e-22)
(0.0901359 0.00168393 2.27665e-26)
(0.0896717 0.00179765 0)
(0.0891774 0.00192291 -4.06908e-22)
(0.0886499 0.00206162 4.19684e-22)
(0.0880859 0.00221593 0)
(0.0874814 0.00238825 -9.05926e-22)
(0.0868319 0.00258124 8.91229e-22)
(0.0861324 0.00279789 1.47545e-23)
(0.0853769 0.00304157 -3.62714e-26)
(0.0845589 0.00331617 1.55962e-23)
(0.0836709 0.00362619 0)
(0.0827044 0.00397696 -5.18369e-26)
(0.0816497 0.00437486 0)
(0.0804958 0.00482762 -1.77188e-23)
(0.0792298 0.00534466 1.1987e-21)
(0.0778373 0.00593751 -1.19837e-21)
(0.0763012 0.00662039 -1.98362e-23)
(0.074602 0.00741073 4.10899e-23)
(0.0727168 0.00832978 -1.41811e-21)
(0.070619 0.00940306 1.37403e-21)
(0.0682774 0.0106603 2.33092e-23)
(0.0656556 0.0121343 -3.62913e-25)
(0.0627111 0.0138577 2.49301e-23)
(0.0593946 0.0158559 -1.71525e-21)
(0.0556493 0.0181341 3.47013e-21)
(0.0514111 0.0206558 -1.81031e-21)
(0.0466097 0.0233088 1.8779e-21)
(0.0411714 0.0258559 -1.96597e-21)
(0.0350252 0.0278671 -3.91425e-21)
(0.0281141 0.0286278 7.98638e-21)
(0.0204355 0.0270329 -4.04354e-21)
(0.0121668 0.0214915 0)
(0.00379491 0.00975028 -3.7966e-21)
(0.0950676 0.000801662 -9.17304e-24)
(0.0948876 0.000845416 -3.74537e-23)
(0.0946984 0.000892204 1.13514e-22)
(0.0944995 0.000942272 -1.53233e-22)
(0.0942902 0.000995869 6.74795e-23)
(0.0940698 0.00105324 9.88997e-24)
(0.0938375 0.00111464 -1.0052e-23)
(0.0935925 0.00118031 -2.48041e-26)
(0.093334 0.00125047 1.03991e-23)
(0.0930611 0.00132539 -2.11453e-23)
(0.0927727 0.00140535 -3.47789e-22)
(0.0924679 0.00149068 3.5893e-22)
(0.0921455 0.00158183 -3.50367e-22)
(0.0918043 0.00167938 3.6168e-22)
(0.091443 0.00178407 0)
(0.0910602 0.00189691 -2.5301e-26)
(0.0906542 0.00201914 0)
(0.0902231 0.00215226 -3.90276e-22)
(0.0897648 0.0022981 4.15635e-22)
(0.0892769 0.00245876 -1.3058e-23)
(0.0887565 0.00263668 -8.80074e-22)
(0.0882005 0.00283459 8.67082e-22)
(0.0876052 0.00305551 -1.41017e-23)
(0.0869665 0.00330284 0)
(0.0862796 0.00358036 0)
(0.0855391 0.00389238 -1.01111e-21)
(0.0847391 0.00424381 9.80398e-22)
(0.0838727 0.00464038 0)
(0.0829322 0.00508885 -3.36541e-23)
(0.081909 0.00559731 0)
(0.0807934 0.00617548 1.80297e-23)
(0.0795743 0.00683522 -1.85937e-23)
(0.0782394 0.00759097 -1.93711e-23)
(0.0767745 0.0084604 1.99833e-23)
(0.075164 0.00946504 1.3163e-21)
(0.0733901 0.010631 -1.35855e-21)
(0.0714328 0.0119891 2.9589e-21)
(0.0692697 0.0135752 -2.96084e-21)
(0.0668755 0.0154278 3.15038e-21)
(0.0642211 0.0175842 9.51063e-23)
(0.0612723 0.0200712 -3.32439e-21)
(0.0579873 0.0228889 -2.66196e-23)
(0.0543123 0.0259841 1.30515e-24)
(0.0501744 0.0292094 1.73827e-24)
(0.045471 0.0322654 2.30778e-24)
(0.0400499 0.0346222 -5.78802e-23)
(0.033688 0.0354115 -2.65452e-23)
(0.0261047 0.0332742 -2.51955e-23)
(0.0169864 0.0262341 0)
(0.00560891 0.0117478 7.9711e-24)
(0.095111 0.000973653 -4.55201e-23)
(0.0949324 0.0010266 2.73819e-23)
(0.0947449 0.00108323 9.36318e-24)
(0.0945479 0.00114384 1.4366e-22)
(0.0943408 0.00120874 -1.43718e-22)
(0.0941229 0.00127823 1.4858e-22)
(0.0938935 0.00135263 -3.29762e-22)
(0.0936518 0.00143222 4.69295e-22)
(0.0933969 0.00151731 -3.28686e-22)
(0.0931279 0.00160822 -3.40747e-22)
(0.0928438 0.0017053 -1.69931e-23)
(0.0925437 0.001809 6.91633e-22)
(0.0922265 0.00191986 -7.28304e-22)
(0.0918908 0.00203861 3.39647e-22)
(0.0915355 0.0021662 3.66335e-22)
(0.0911591 0.00230385 3.8277e-22)
(0.0907599 0.00245309 -2.9296e-23)
(0.0903363 0.00261576 7.80134e-22)
(0.0898862 0.00279406 8.05305e-22)
(0.0894072 0.00299057 2.02081e-23)
(0.0888969 0.00320822 -8.53623e-22)
(0.0883523 0.00345029 0)
(0.0877701 0.00372045 0)
(0.0871464 0.00402281 -9.51357e-22)
(0.0864772 0.00436194 9.37692e-22)
(0.0857575 0.00474303 1.01029e-21)
(0.0849822 0.00517204 -1.01179e-21)
(0.0841453 0.00565592 0)
(0.0832401 0.00620281 1.13035e-21)
(0.0822594 0.00682245 -1.13253e-21)
(0.0811952 0.00752653 0)
(0.0800385 0.00832915 -2.45423e-21)
(0.0787798 0.00924741 2.47696e-21)
(0.0774087 0.010302 -2.04875e-23)
(0.0759142 0.0115178 -2.74428e-21)
(0.0742848 0.0129244 2.76973e-21)
(0.0725089 0.0145566 0)
(0.0705748 0.016453 3.11905e-21)
(0.0684711 0.018654 -3.09984e-21)
(0.0661854 0.0211957 2.51757e-23)
(0.0637028 0.024099 3.43553e-21)
(0.0610006 0.0273501 -6.89805e-21)
(0.0580397 0.0308701 1.49377e-23)
(0.0547486 0.0344701 3.4378e-23)
(0.0509966 0.0377904 3.59029e-21)
(0.0465476 0.0402221 4.01287e-24)
(0.0409935 0.0407953 -3.07766e-21)
(0.0336983 0.0380003 3.15504e-21)
(0.02361 0.0296444 0)
(0.00815369 0.0130519 2.76428e-23)
(0.0951625 0.00114185 8.96672e-24)
(0.0949858 0.00120346 8.25691e-23)
(0.0948005 0.00126943 -7.36333e-23)
(0.0946062 0.0013401 9.44701e-24)
(0.0944021 0.00141582 1.45149e-22)
(0.0941875 0.00149695 -1.45382e-22)
(0.0939619 0.00158385 -3.11249e-22)
(0.0937243 0.00167689 4.76486e-24)
(0.0934739 0.00177643 -5.67185e-24)
(0.09321 0.00188287 3.45446e-22)
(0.0929316 0.00199665 -3.37201e-22)
(0.0926376 0.0021183 7.15422e-22)
(0.0923269 0.00224852 -3.56423e-22)
(0.0919985 0.0023882 1.15152e-23)
(0.0916511 0.00253848 1.17806e-23)
(0.0912832 0.00270083 7.78953e-22)
(0.0908934 0.00287708 -4.89649e-24)
(0.0904799 0.00306944 8.12915e-22)
(0.090041 0.00328052 1.29888e-23)
(0.0895745 0.00351334 0)
(0.0890782 0.00377138 0)
(0.0885494 0.00405849 -9.11652e-22)
(0.0879853 0.00437901 9.13956e-22)
(0.0873826 0.00473776 0)
(0.0867376 0.00514016 1.53762e-23)
(0.0860465 0.00559236 0)
(0.0853048 0.00610142 -1.06227e-21)
(0.0845076 0.00667555 2.16295e-21)
(0.0836499 0.00732444 -1.10076e-21)
(0.0827259 0.00805956 -2.33425e-21)
(0.0817296 0.00889466 -7.93237e-23)
(0.080655 0.00984622 -8.39243e-23)
(0.0794958 0.010934 -8.84839e-23)
(0.0782458 0.0121816 2.62826e-21)
(0.0768995 0.0136169 2.82414e-21)
(0.0754528 0.0152723 -2.83087e-21)
(0.073903 0.0171844 0)
(0.0722503 0.0193917 3.1428e-21)
(0.0704978 0.0219309 -3.1501e-21)
(0.0686513 0.024828 -3.35465e-21)
(0.0667164 0.0280844 3.33619e-21)
(0.0646926 0.031653 2.73296e-23)
(0.0625594 0.0354043 3.36803e-21)
(0.0602543 0.0390804 -1.07376e-22)
(0.0576334 0.0422375 -3.33001e-21)
(0.0544042 0.0441886 2.54125e-23)
(0.0500266 0.043934 0)
(0.0435945 0.040025 -2.00982e-23)
(0.0331519 0.0304862 -9.07878e-22)
(0.0131515 0.0129902 4.5658e-22)
(-0.000249989 0.000302208 0)
(-0.000931605 0.00045632 2.98572e-22)
(-0.00169026 0.000342077 -2.9902e-22)
(-0.00209842 8.63156e-05 -2.85466e-22)
(-0.00196463 -0.000234892 2.85895e-22)
(-0.00122987 -0.000580553 -8.38972e-24)
(0.000116095 -0.000916898 0)
(0.00204123 -0.00122567 0)
(0.00448876 -0.00149777 0)
(0.00739018 -0.0017274 0)
(0.0106696 -0.00191245 0)
(0.0142494 -0.00205339 0)
(0.0180537 -0.00215239 0)
(0.022011 -0.00221271 0)
(0.0260557 -0.00223828 0)
(0.0301291 -0.0022334 3.31898e-23)
(0.0341799 -0.00220246 -3.13502e-23)
(0.0381643 -0.00214978 0)
(0.0420458 -0.00207951 0)
(0.045795 -0.00199549 -1.14843e-23)
(0.049389 -0.00190122 1.15019e-23)
(0.0528108 -0.00179985 -4.76476e-24)
(0.0560489 -0.00169413 2.66664e-25)
(0.0590963 -0.00158643 0)
(0.0619503 -0.00147878 4.31057e-26)
(0.0646115 -0.00137282 0)
(0.0670834 -0.00126992 0)
(0.0693718 -0.00117113 0)
(0.0714842 -0.00107724 -1.41231e-25)
(0.0734297 -0.000988812 0)
(0.0752181 -0.000906176 1.57078e-25)
(0.0768598 -0.000829494 -1.54602e-25)
(0.0783654 -0.000758772 1.47473e-25)
(0.0797456 -0.000693897 -1.22201e-24)
(0.0810106 -0.000634659 1.21094e-24)
(0.0821705 -0.000580776 7.41535e-25)
(0.0832348 -0.000531917 -1.4845e-24)
(0.0842122 -0.000487721 7.27756e-25)
(0.085111 -0.000447811 6.44198e-26)
(0.0859387 -0.000411813 -4.94481e-26)
(0.0867022 -0.000379358 0)
(0.0874077 -0.000350097 -2.11527e-26)
(0.0880608 -0.000323702 2.24488e-26)
(0.0886666 -0.000299871 -1.01274e-26)
(0.0892295 -0.000278329 -1.58578e-26)
(0.0897536 -0.000258827 8.73407e-26)
(0.0902425 -0.000241145 -2.41993e-26)
(0.0906994 -0.000225085 -9.49141e-26)
(0.0911271 -0.000210471 4.9146e-26)
(0.0915283 -0.000197146 -6.21668e-26)
(-0.00029946 0.000868409 -1.16014e-21)
(-0.000968335 0.00128485 -1.24861e-21)
(-0.00154361 0.000942656 1.23049e-21)
(-0.00170944 0.000190354 -5.65357e-22)
(-0.00133498 -0.000755193 5.66835e-22)
(-0.000384406 -0.00177548 8.44784e-24)
(0.00114599 -0.00275987 -1.6181e-23)
(0.0032135 -0.00366851 -4.66416e-22)
(0.00576148 -0.00447002 4.52028e-22)
(0.00872599 -0.00514674 -1.23472e-23)
(0.0120351 -0.00569255 -1.09836e-23)
(0.0156158 -0.00610867 2.81124e-22)
(0.019397 -0.00640125 -2.81498e-22)
(0.0233122 -0.00657976 -2.03652e-22)
(0.0273 -0.00665567 3.45728e-23)
(0.0313057 -0.00664154 1.69577e-22)
(0.0352816 -0.00655026 -1.89943e-24)
(0.0391866 -0.00639458 -3.21106e-24)
(0.0429869 -0.00618666 0)
(0.046655 -0.00593786 0)
(0.0501697 -0.00565855 0)
(0.0535152 -0.00535801 -4.28137e-25)
(0.056681 -0.0050444 1.33896e-23)
(0.0596607 -0.0047248 -1.47271e-23)
(0.062452 -0.00440518 1.37027e-24)
(0.0650557 -0.00409051 -2.77953e-24)
(0.0674754 -0.00378479 4.20253e-24)
(0.0697166 -0.00349121 -2.84039e-24)
(0.071787 -0.00321211 1.41595e-25)
(0.0736951 -0.00294916 2.54088e-25)
(0.0754505 -0.00270335 -1.57421e-25)
(0.0770632 -0.00247519 4.23289e-25)
(0.0785435 -0.00226469 -4.26115e-24)
(0.0799016 -0.00207153 8.53664e-24)
(0.0811476 -0.00189509 -3.93069e-24)
(0.082291 -0.00173454 3.05379e-25)
(0.083341 -0.00158892 -9.5135e-26)
(0.0843061 -0.00145715 0)
(0.0851942 -0.00133812 9.13662e-25)
(0.0860127 -0.00123072 -8.1837e-25)
(0.0867683 -0.00113386 -3.57789e-25)
(0.0874669 -0.00104651 4.65789e-25)
(0.088114 -0.000967701 -8.04011e-27)
(0.0887144 -0.000896528 7.02402e-26)
(0.0892727 -0.000832178 -1.17498e-25)
(0.0897928 -0.000773914 -2.66011e-26)
(0.090278 -0.000721078 -2.8566e-25)
(0.0907317 -0.000673082 -8.66691e-26)
(0.0911566 -0.000629399 8.6185e-26)
(0.0915552 -0.000589559 1.80236e-25)
(-0.000388135 0.00131416 -1.22834e-21)
(-0.00100479 0.00186451 1.31841e-21)
(-0.00119923 0.00129751 -1.27897e-21)
(-0.000897949 8.48538e-05 -1.91891e-23)
(-6.93641e-05 -0.00143321 -6.46259e-25)
(0.00129456 -0.00304822 -1.08043e-21)
(0.00317415 -0.00462258 1.11596e-21)
(0.00550052 -0.00608146 9.58698e-22)
(0.00823188 -0.00736896 -7.26443e-23)
(0.0113087 -0.00845786 -1.6146e-21)
(0.0146667 -0.00933803 1.46131e-21)
(0.0182424 -0.0100106 -6.70935e-22)
(0.0219743 -0.0104848 -8.90782e-24)
(0.0258046 -0.0107752 0)
(0.0296806 -0.0108998 3.70137e-22)
(0.0335549 -0.0108784 -6.98092e-23)
(0.0373862 -0.0107318 -2.95461e-22)
(0.0411389 -0.0104801 6.81806e-24)
(0.0447839 -0.0101432 0)
(0.0482974 -0.00973931 0)
(0.0516612 -0.00928521 4.18134e-23)
(0.0548617 -0.00879601 -4.06258e-23)
(0.0578901 -0.00828498 -1.87364e-23)
(0.0607412 -0.00776369 1.98133e-23)
(0.0634133 -0.00724193 3.45919e-25)
(0.0659077 -0.00672784 -1.69471e-25)
(0.068228 -0.00622802 3.70416e-26)
(0.0703796 -0.00574768 4.89198e-24)
(0.0723698 -0.00529074 -4.95571e-24)
(0.0742066 -0.00485992 6.90052e-24)
(0.075899 -0.00445693 -7.33101e-24)
(0.0774564 -0.00408261 -2.6944e-25)
(0.0788883 -0.00373706 -7.3708e-24)
(0.0802042 -0.00341976 1.39029e-23)
(0.0814135 -0.00312974 -7.00251e-24)
(0.0825252 -0.00286569 -2.85482e-24)
(0.0835477 -0.00262603 2.52973e-24)
(0.0844891 -0.00240905 0)
(0.0853567 -0.00221294 -2.85227e-26)
(0.0861574 -0.0020359 0)
(0.0868976 -0.00187616 -5.74945e-25)
(0.0875827 -0.00173204 5.22931e-25)
(0.0882181 -0.00160194 1.26128e-26)
(0.0888084 -0.00148441 -1.58682e-26)
(0.0893577 -0.00137811 4.33751e-25)
(0.0898698 -0.00128183 -9.76445e-25)
(0.090348 -0.0011945 5.90852e-25)
(0.0907954 -0.00111514 -4.48094e-25)
(0.0912147 -0.00104289 3.1195e-25)
(0.0916082 -0.000976962 1.12707e-25)
(-0.000477686 0.00152612 -2.72096e-21)
(-0.000939923 0.00205751 0)
(-0.000549041 0.00126908 2.69388e-21)
(0.000408656 -0.000321736 -5.31923e-21)
(0.00188817 -0.00231548 2.6441e-21)
(0.00381019 -0.00442823 1.13016e-21)
(0.00613281 -0.00650629 -1.18645e-21)
(0.00880035 -0.00843188 1.00416e-21)
(0.0117652 -0.0101367 -1.93394e-21)
(0.0149767 -0.0115844 9.15056e-22)
(0.0183838 -0.0127593 1.25182e-23)
(0.0219364 -0.013661 6.55064e-25)
(0.0255866 -0.0143 9.06051e-24)
(0.029289 -0.0146942 -4.83437e-22)
(0.0330022 -0.0148664 4.68681e-22)
(0.0366887 -0.0148424 1.14773e-23)
(0.0403158 -0.0146492 -4.49293e-24)
(0.0438554 -0.0143137 2.2062e-22)
(0.0472841 -0.013862 -2.20249e-22)
(0.0505831 -0.0133186 -2.61042e-24)
(0.0537379 -0.0127062 0)
(0.0567382 -0.012045 3.07699e-25)
(0.0595769 -0.0113531 0)
(0.0622506 -0.0106462 8.27673e-25)
(0.0647583 -0.00993765 2.19795e-25)
(0.0671018 -0.00923866 1.71075e-25)
(0.0692848 -0.0085583 -3.81805e-24)
(0.0713125 -0.00790374 3.93542e-24)
(0.0731916 -0.0072804 0)
(0.0749295 -0.00669211 4.37696e-24)
(0.0765344 -0.00614129 -4.34644e-24)
(0.0780147 -0.00562915 0)
(0.079379 -0.00515592 -8.22511e-26)
(0.080636 -0.00472098 5.10948e-24)
(0.0817939 -0.00432309 -9.48304e-24)
(0.082861 -0.00396051 8.31742e-24)
(0.0838448 -0.00363114 -7.01317e-24)
(0.0847526 -0.0033327 5.68478e-24)
(0.0855911 -0.00306276 -2.5259e-24)
(0.0863666 -0.00281888 -5.10328e-25)
(0.0870848 -0.00259869 4.73689e-25)
(0.0877508 -0.0023999 -1.72496e-26)
(0.0883695 -0.00222034 -5.08741e-25)
(0.0889451 -0.00205804 1.47322e-24)
(0.0894814 -0.00191118 -8.69692e-25)
(0.0899821 -0.0017781 1.7287e-26)
(0.0904502 -0.00165733 9.0951e-26)
(0.0908886 -0.00154755 -1.3845e-26)
(0.0912997 -0.00144756 -1.22318e-25)
(0.0916859 -0.00135624 2.83277e-25)
(-0.000448011 0.00144011 -2.24947e-24)
(-0.000536734 0.00181143 -2.57174e-23)
(0.000629499 0.000816899 -2.44839e-23)
(0.00238556 -0.00107511 -2.32814e-23)
(0.0045931 -0.00342345 -4.30548e-23)
(0.00714613 -0.00591376 -9.42526e-25)
(0.00996382 -0.00836484 1.85982e-23)
(0.0129925 -0.0106495 -1.80746e-23)
(0.0161915 -0.0126865 -1.66183e-23)
(0.0195239 -0.0144284 1.77118e-21)