/*--------------------------------*- C++ -*----------------------------------*\
| =========                 |                                                 |
| \\      /  F ield         | OpenFOAM: The Open Source CFD Toolbox           |
|  \\    /   O peration     | Version:  2412                                  |
|   \\  /    A nd           | Website:  www.openfoam.com                      |
|    \\/     M anipulation  |                                                 |
\*---------------------------------------------------------------------------*/
FoamFile
{
    version     2.0;
    format      ascii;
    arch        "LSB;label=32;scalar=64";
    class       volVectorField;
    location    "11";
    object      vorticity;
}
// * * * * * * * * * * * * * * * * * * * * * * * * * * * * * * * * * * * * * //

dimensions      [0 0 -1 0 0 0 0];

internalField   nonuniform List<vector> 
63420
(
(0 0 5.42089e-06)
(0 0 6.53117e-06)
(0 0 1.29463e-05)
(0 0 2.27013e-05)
(0 0 2.79008e-05)
(0 0 2.1744e-05)
(0 0 4.3953e-06)
(0 0 -1.76491e-05)
(0 0 -3.64864e-05)
(0 0 -4.71576e-05)
(0 0 -4.89266e-05)
(0 0 -4.40475e-05)
(0 0 -3.57721e-05)
(0 0 -2.68745e-05)
(0 0 -1.9058e-05)
(0 0 -1.30126e-05)
(0 0 -8.75252e-06)
(0 0 -5.96408e-06)
(0 0 -4.24879e-06)
(0 0 -3.25064e-06)
(0 0 -2.70035e-06)
(0 0 -2.41465e-06)
(0 0 -2.27799e-06)
(0 0 -2.22167e-06)
(0 0 -2.20677e-06)
(0 0 -2.21213e-06)
(0 0 -2.22665e-06)
(0 0 -2.24467e-06)
(0 0 -2.26335e-06)
(0 0 -2.28128e-06)
(0 0 -2.29772e-06)
(0 0 -2.31225e-06)
(0 0 -2.32464e-06)
(0 0 -2.33471e-06)
(0 0 -2.34231e-06)
(0 0 -2.34731e-06)
(0 0 -2.34961e-06)
(0 0 -2.34911e-06)
(0 0 -2.34568e-06)
(0 0 -2.33917e-06)
(0 0 -2.32939e-06)
(0 0 -2.31611e-06)
(0 0 -2.2991e-06)
(0 0 -2.2781e-06)
(0 0 -2.25283e-06)
(0 0 -2.22292e-06)
(0 0 -2.18796e-06)
(0 0 -2.14733e-06)
(0 0 -2.0997e-06)
(0 0 -2.04091e-06)
(0 0 -1.95663e-06)
(0 0 -1.79725e-06)
(0 0 -1.39766e-06)
(0 0 -2.29738e-07)
(0 4.6535e-23 3.33012e-06)
(0 0 1.62791e-05)
(0 0 1.95674e-05)
(0 0 3.865e-05)
(0 0 6.77573e-05)
(0 0 8.3439e-05)
(0 0 6.54126e-05)
(0 0 1.40621e-05)
(0 0 -5.13768e-05)
(0 0 -0.000107424)
(0 0 -0.0001393)
(0 0 -0.000144759)
(0 0 -0.000130453)
(0 0 -0.000106021)
(0 0 -7.96987e-05)
(0 0 -5.65505e-05)
(0 0 -3.86354e-05)
(0 0 -2.60044e-05)
(0 0 -1.77326e-05)
(0 0 -1.26415e-05)
(0 0 -9.67708e-06)
(0 0 -8.04166e-06)
(0 0 -7.19207e-06)
(0 0 -6.78566e-06)
(0 0 -6.61867e-06)
(0 0 -6.57559e-06)
(0 0 -6.59346e-06)
(0 0 -6.63905e-06)
(0 0 -6.69533e-06)
(0 0 -6.75374e-06)
(0 0 -6.81004e-06)
(0 0 -6.86206e-06)
(0 0 -6.90861e-06)
(0 0 -6.94891e-06)
(0 0 -6.98241e-06)
(0 0 -7.00871e-06)
(0 0 -7.02749e-06)
(0 0 -7.03839e-06)
(0 0 -7.04101e-06)
(0 0 -7.03491e-06)
(0 0 -7.0196e-06)
(0 0 -6.9946e-06)
(0 0 -6.95931e-06)
(0 0 -6.91302e-06)
(0 0 -6.85492e-06)
(0 0 -6.78407e-06)
(0 0 -6.69946e-06)
(0 0 -6.59982e-06)
(0 0 -6.48329e-06)
(0 0 -6.34582e-06)
(0 0 -6.17531e-06)
(0 0 -5.93014e-06)
(0 0 -5.46661e-06)
(0 0 -4.30549e-06)
(0 0 -9.1072e-07)
(0 4.70021e-23 9.44836e-06)
(0 0 2.71589e-05)
(0 0 3.25147e-05)
(0 0 6.3878e-05)
(0 0 0.00011203)
(0 0 0.000138565)
(0 0 0.000109966)
(0 0 2.64913e-05)
(0 0 -8.05609e-05)
(0 0 -0.000172697)
(0 0 -0.000225523)
(0 0 -0.000235149)
(0 0 -0.000212324)
(0 0 -0.000172766)
(0 0 -0.000129963)
(0 0 -9.224e-05)
(0 0 -6.30042e-05)
(0 0 -4.23711e-05)
(0 0 -2.88483e-05)
(0 0 -2.05199e-05)
(0 0 -1.56674e-05)
(0 0 -1.29886e-05)
(0 0 -1.15959e-05)
(0 0 -1.09291e-05)
(0 0 -1.06548e-05)
(0 0 -1.05838e-05)
(0 0 -1.0613e-05)
(0 0 -1.06879e-05)
(0 0 -1.07805e-05)
(0 0 -1.08768e-05)
(0 0 -1.09698e-05)
(0 0 -1.10559e-05)
(0 0 -1.11332e-05)
(0 0 -1.12004e-05)
(0 0 -1.12567e-05)
(0 0 -1.13014e-05)
(0 0 -1.13339e-05)
(0 0 -1.13537e-05)
(0 0 -1.13601e-05)
(0 0 -1.13524e-05)
(0 0 -1.13297e-05)
(0 0 -1.12914e-05)
(0 0 -1.12364e-05)
(0 0 -1.11635e-05)
(0 0 -1.10715e-05)
(0 0 -1.09589e-05)
(0 0 -1.0824e-05)
(0 0 -1.06647e-05)
(0 0 -1.04779e-05)
(0 0 -1.02575e-05)
(0 0 -9.98459e-06)
(0 0 -9.59501e-06)
(0 0 -8.86612e-06)
(0 0 -7.05233e-06)
(0 0 -1.75293e-06)
(0 2.77456e-22 1.4457e-05)
(0 0 3.80728e-05)
(0 0 4.5319e-05)
(0 0 8.83419e-05)
(0 0 0.000155043)
(0 0 0.000193019)
(0 0 0.000155923)
(0 0 4.33294e-05)
(0 0 -0.00010248)
(0 0 -0.000228906)
(0 0 -0.000302269)
(0 0 -0.000316823)
(0 0 -0.000286928)
(0 0 -0.000233896)
(0 0 -0.000176127)
(0 0 -0.000125041)
(0 0 -8.53641e-05)
(0 0 -5.73202e-05)
(0 0 -3.89192e-05)
(0 0 -2.75753e-05)
(0 0 -2.096e-05)
(0 0 -1.73047e-05)
(0 0 -1.54025e-05)
(0 0 -1.44903e-05)
(0 0 -1.4114e-05)
(0 0 -1.40155e-05)
(0 0 -1.40541e-05)
(0 0 -1.41555e-05)
(0 0 -1.42814e-05)
(0 0 -1.44127e-05)
(0 0 -1.45398e-05)
(0 0 -1.46577e-05)
(0 0 -1.47639e-05)
(0 0 -1.48566e-05)
(0 0 -1.49347e-05)
(0 0 -1.49975e-05)
(0 0 -1.50439e-05)
(0 0 -1.50734e-05)
(0 0 -1.50848e-05)
(0 0 -1.50774e-05)
(0 0 -1.505e-05)
(0 0 -1.50016e-05)
(0 0 -1.49308e-05)
(0 0 -1.4836e-05)
(0 0 -1.47157e-05)
(0 0 -1.45677e-05)
(0 0 -1.43898e-05)
(0 0 -1.41791e-05)
(0 0 -1.39317e-05)
(0 0 -1.36397e-05)
(0 0 -1.32799e-05)
(0 0 -1.27725e-05)
(0 0 -1.18408e-05)
(0 0 -9.55095e-06)
(0 0 -2.8724e-06)
(0 -1.8219e-22 1.76429e-05)
(0 0 4.90301e-05)
(0 0 5.79332e-05)
(0 0 0.000111795)
(0 0 0.000196382)
(0 0 0.00024656)
(0 0 0.000203689)
(0 0 6.59323e-05)
(0 0 -0.000114868)
(0 0 -0.000273204)
(0 0 -0.00036655)
(0 0 -0.000387027)
(0 0 -0.000351966)
(0 0 -0.000287632)
(0 0 -0.00021689)
(0 0 -0.000154037)
(0 0 -0.00010508)
(0 0 -7.04043e-05)
(0 0 -4.7616e-05)
(0 0 -3.35489e-05)
(0 0 -2.53358e-05)
(0 0 -2.07922e-05)
(0 0 -1.8424e-05)
(0 0 -1.7286e-05)
(0 0 -1.68141e-05)
(0 0 -1.66883e-05)
(0 0 -1.67333e-05)
(0 0 -1.6857e-05)
(0 0 -1.70118e-05)
(0 0 -1.71737e-05)
(0 0 -1.73309e-05)
(0 0 -1.74771e-05)
(0 0 -1.76091e-05)
(0 0 -1.77249e-05)
(0 0 -1.78231e-05)
(0 0 -1.79027e-05)
(0 0 -1.79627e-05)
(0 0 -1.80019e-05)
(0 0 -1.80194e-05)
(0 0 -1.8014e-05)
(0 0 -1.79844e-05)
(0 0 -1.79292e-05)
(0 0 -1.78469e-05)
(0 0 -1.77356e-05)
(0 0 -1.7593e-05)
(0 0 -1.74169e-05)
(0 0 -1.72044e-05)
(0 0 -1.6952e-05)
(0 0 -1.66552e-05)
(0 0 -1.63052e-05)
(0 0 -1.58768e-05)
(0 0 -1.52843e-05)
(0 0 -1.42293e-05)
(0 0 -1.1697e-05)
(0 0 -4.35023e-06)
(0 8.99437e-23 1.83808e-05)
(0 0 6.00372e-05)
(0 0 7.03205e-05)
(0 0 0.000134044)
(0 0 0.000235716)
(0 0 0.00029897)
(0 0 0.000253517)
(0 0 9.5266e-05)
(0 0 -0.000116065)
(0 0 -0.000303481)
(0 0 -0.000416136)
(0 0 -0.000443695)
(0 0 -0.000405707)
(0 0 -0.000332634)
(0 0 -0.000251273)
(0 0 -0.000178541)
(0 0 -0.000121674)
(0 0 -8.12898e-05)
(0 0 -5.46953e-05)
(0 0 -3.8251e-05)
(0 0 -2.86351e-05)
(0 0 -2.33068e-05)
(0 0 -2.05241e-05)
(0 0 -1.91824e-05)
(0 0 -1.86222e-05)
(0 0 -1.84684e-05)
(0 0 -1.85159e-05)
(0 0 -1.86563e-05)
(0 0 -1.88339e-05)
(0 0 -1.90205e-05)
(0 0 -1.92022e-05)
(0 0 -1.93717e-05)
(0 0 -1.95251e-05)
(0 0 -1.96603e-05)
(0 0 -1.97756e-05)
(0 0 -1.98697e-05)
(0 0 -1.99415e-05)
(0 0 -1.99898e-05)
(0 0 -2.00133e-05)
(0 0 -2.00108e-05)
(0 0 -1.99808e-05)
(0 0 -1.99217e-05)
(0 0 -1.98315e-05)
(0 0 -1.97083e-05)
(0 0 -1.95494e-05)
(0 0 -1.93521e-05)
(0 0 -1.91131e-05)
(0 0 -1.88287e-05)
(0 0 -1.84938e-05)
(0 0 -1.80995e-05)
(0 0 -1.76215e-05)
(0 0 -1.69784e-05)
(0 0 -1.58884e-05)
(0 0 -1.33886e-05)
(0 0 -6.25631e-06)
(0 4.43792e-22 1.60654e-05)
(0 0 7.10941e-05)
(0 0 8.24549e-05)
(0 0 0.000154961)
(0 0 0.000272807)
(0 0 0.00035005)
(0 0 0.000305478)
(0 0 0.000131834)
(0 0 -0.000105129)
(0 0 -0.000318493)
(0 0 -0.000449685)
(0 0 -0.000485568)
(0 0 -0.000447092)
(0 0 -0.000368078)
(0 0 -0.000278675)
(0 0 -0.000198134)
(0 0 -0.000134862)
(0 0 -8.97808e-05)
(0 0 -6.00184e-05)
(0 0 -4.15765e-05)
(0 0 -3.07718e-05)
(0 0 -2.47726e-05)
(0 0 -2.16312e-05)
(0 0 -2.011e-05)
(0 0 -1.94687e-05)
(0 0 -1.92858e-05)
(0 0 -1.93305e-05)
(0 0 -1.94808e-05)
(0 0 -1.9674e-05)
(0 0 -1.98781e-05)
(0 0 -2.00775e-05)
(0 0 -2.02641e-05)
(0 0 -2.04335e-05)
(0 0 -2.05831e-05)
(0 0 -2.07113e-05)
(0 0 -2.08165e-05)
(0 0 -2.08976e-05)
(0 0 -2.09531e-05)
(0 0 -2.09818e-05)
(0 0 -2.09822e-05)
(0 0 -2.09527e-05)
(0 0 -2.08914e-05)
(0 0 -2.07964e-05)
(0 0 -2.06652e-05)
(0 0 -2.0495e-05)
(0 0 -2.02829e-05)
(0 0 -2.00252e-05)
(0 0 -1.97179e-05)
(0 0 -1.93558e-05)
(0 0 -1.89305e-05)
(0 0 -1.84208e-05)
(0 0 -1.77592e-05)
(0 0 -1.6718e-05)
(0 0 -1.45359e-05)
(0 0 -8.67153e-06)
(0 -8.684e-23 9.9456e-06)
(-1.56064e-23 7.99835e-21 1.57271e-06)
(-1.50787e-22 7.86346e-21 9.38752e-07)
(3.50972e-23 -2.02158e-22 -7.43785e-09)
(3.46987e-23 -2.34883e-20 -1.36711e-06)
(-9.51028e-23 8.03045e-21 -3.25104e-06)
(3.75537e-22 7.88789e-21 -5.77922e-06)
(-8.14076e-22 2.29897e-20 -9.07374e-06)
(3.17854e-22 -2.33705e-20 -1.32441e-05)
(6.41801e-22 -7.51626e-21 -1.83721e-05)
(-9.20687e-22 -3.78018e-24 -2.44921e-05)
(-9.22147e-22 -7.53769e-21 -3.1568e-05)
(8.08174e-22 7.1536e-21 -3.94755e-05)
(5.68317e-22 -5.90168e-20 -4.7991e-05)
(-1.04309e-21 1.26765e-19 -5.67954e-05)
(3.52235e-22 -6.82409e-20 -6.54965e-05)
(-1.27059e-21 -5.14623e-20 -7.36703e-05)
(2.39619e-21 -6.55187e-20 -8.09146e-05)
(-1.89174e-21 7.73711e-21 -8.68695e-05)
(-1.97914e-22 -7.21264e-21 -9.12865e-05)
(7.91937e-23 7.22252e-21 -9.40577e-05)
(-3.21e-24 -1.31294e-22 -9.5271e-05)
(-7.47934e-23 -6.9725e-21 -9.52067e-05)
(-2.04426e-21 7.04017e-21 -9.43138e-05)
(4.28879e-21 1.31547e-23 -9.31759e-05)
(1.25789e-21 6.84443e-21 -9.24645e-05)
(-3.34083e-21 -5.43438e-24 -9.28899e-05)
(4.81444e-21 7.98039e-21 -9.51575e-05)
(-5.57234e-21 1.03444e-19 -9.99362e-05)
(6.27078e-22 -1.11101e-19 -0.000107847)
(-2.10567e-21 1.01689e-19 -0.000119477)
(2.04956e-21 -1.02858e-19 -0.000135421)
(4.94698e-23 1.36795e-21 -0.000156385)
(-6.44835e-23 -1.68185e-21 -0.000183353)
(2.74877e-21 -9.77591e-20 -0.000217903)
(-8.76542e-21 9.49047e-20 -0.000262786)
(-3.27302e-22 -1.58092e-21 -0.00032295)
(6.34514e-21 1.38775e-23 -0.000407382)
(6.91051e-21 1.5114e-23 -0.000532239)
(-6.8884e-21 -1.50656e-23 -0.000725977)
(-2.28773e-22 -5.00349e-25 -0.00103727)
(-2.3885e-22 -5.22389e-25 -0.00154638)
(-8.23859e-21 -1.80186e-23 -0.00238013)
(7.95218e-21 1.73922e-23 -0.00372914)
(-2.63221e-22 1.56853e-22 -0.0058639)
(-2.46164e-23 8.12106e-21 -0.00914312)
(-2.55257e-20 5.25805e-20 -0.0140043)
(2.45825e-20 -6.93193e-20 -0.0209225)
(-5.79699e-21 -9.92141e-21 -0.030321)
(6.37143e-21 2.70261e-20 -0.0424268)
(-2.11709e-20 -5.91117e-21 -0.0569807)
(-2.62596e-22 8.01292e-21 4.49891e-06)
(-1.01404e-22 1.57609e-20 2.55299e-06)
(3.18378e-22 7.66636e-21 -3.6977e-07)
(-8.98079e-22 -7.87748e-21 -4.57021e-06)
(1.66611e-21 7.50965e-21 -1.0376e-05)
(-5.33427e-22 -5.38442e-20 -1.8138e-05)
(-1.88082e-22 8.55318e-20 -2.8211e-05)
(-6.06629e-23 -8.94199e-21 -4.09207e-05)
(2.18589e-21 -9.85221e-20 -5.65144e-05)
(-2.25338e-21 1.39179e-19 -7.50997e-05)
(-7.84847e-22 1.27147e-19 -9.658e-05)
(5.72282e-22 -1.1445e-19 -0.000120599)
(-4.01955e-22 7.54296e-22 -0.000146508)
(2.86371e-21 -7.28824e-21 -0.000173378)
(-2.21651e-21 2.43001e-20 -0.000200062)
(-5.91961e-21 2.41017e-19 -0.00022533)
(1.47429e-21 -2.26785e-19 -0.000247994)
(-5.50769e-21 2.43082e-19 -0.000267044)
(-2.79961e-22 1.96427e-20 -0.000281728)
(-3.92341e-21 -7.38476e-21 -0.000291748)
(4.1421e-21 1.48157e-22 -0.000297378)
(-4.14715e-21 9.21464e-21 -0.000299464)
(1.33852e-21 2.1172e-19 -0.00029936)
(5.41855e-21 -4.48696e-19 -0.000298817)
(4.24462e-21 -2.1458e-19 -0.000299847)
(-6.48046e-21 4.34322e-19 -0.000304583)
(2.98922e-21 -4.33847e-19 -0.00031515)
(-1.26149e-21 4.45234e-19 -0.000333579)
(3.36038e-21 1.41759e-21 -0.00036177)
(-3.79576e-21 -9.94532e-23 -0.000401535)
(-1.27536e-21 -2.78933e-24 -0.000454741)
(0 0 -0.000523594)
(1.88705e-22 9.795e-23 -0.000611164)
(1.12987e-20 1.26e-20 -0.000722342)
(-1.51974e-20 3.66666e-19 -0.000865577)
(-1.61071e-20 -2.42571e-20 -0.00105602)
(1.8088e-20 -3.62234e-19 -0.00132108)
(2.62349e-20 -3.13798e-19 -0.00170996)
(-8.59043e-21 3.35358e-19 -0.00230923)
(-3.19879e-20 2.19996e-21 -0.00326676)
(3.13682e-20 1.78272e-20 -0.00482609)
(-4.24054e-20 2.40958e-19 -0.00737146)
(2.25062e-20 -2.50719e-19 -0.0114795)
(-1.86102e-20 1.51301e-20 -0.0179675)
(2.06646e-20 8.03158e-21 -0.0279179)
(-6.16308e-20 1.17583e-19 -0.0426498)
(6.15701e-20 -1.15074e-19 -0.0635917)
(-9.55265e-20 8.63614e-20 -0.0919969)
(9.21765e-20 -9.64218e-20 -0.128475)
(-1.95294e-20 -6.63489e-22 -0.17081)
(-1.26396e-23 4.74528e-20 7.23544e-06)
(-8.01207e-23 1.49924e-20 3.79972e-06)
(3.53352e-22 -6.21476e-20 -1.41071e-06)
(-7.39407e-22 1.23684e-19 -8.87886e-06)
(1.64235e-21 -2.64881e-19 -1.91214e-05)
(4.88135e-22 1.26015e-19 -3.26923e-05)
(-2.5152e-21 -8.95338e-22 -5.01601e-05)
(1.59535e-21 -1.71739e-20 -7.20575e-05)
(1.31608e-21 -2.58674e-19 -9.8801e-05)
(9.65157e-22 2.46578e-19 -0.00013059)
(-8.8211e-22 -1.67349e-21 -0.000167298)
(-4.32469e-21 -1.5928e-23 -0.000208388)
(6.86685e-21 -1.9008e-21 -0.000252854)
(-4.34381e-21 -2.52651e-19 -0.000299238)
(5.55229e-21 2.29776e-19 -0.000345737)
(-1.11553e-20 4.56584e-19 -0.000390406)
(-5.05378e-21 -1.23488e-20 -0.000431396)
(-4.19568e-21 4.70012e-19 -0.000467112)
(4.01543e-22 -1.42743e-20 -0.000496401)
(-1.18956e-20 4.57006e-19 -0.000518839)
(1.17814e-20 -4.74716e-19 -0.000534919)
(-8.47872e-21 4.53883e-19 -0.000546085)
(1.47655e-21 -4.72186e-19 -0.000554601)
(5.33064e-21 -9.34741e-21 -0.000563384)
(-2.62352e-21 1.38589e-20 -0.000575791)
(5.64956e-21 -8.86316e-21 -0.000595396)
(-1.81873e-20 4.27082e-19 -0.000625795)
(1.6202e-20 -4.55428e-19 -0.000670464)
(1.76552e-20 -4.23668e-19 -0.000732714)
(-1.43029e-20 4.25835e-19 -0.000815768)
(-1.11304e-21 -5.31371e-21 -0.000922999)
(1.15302e-20 -1.24798e-22 -0.00105841)
(-1.32477e-20 -2.53639e-20 -0.00122754)
(5.18413e-20 -7.78169e-19 -0.00143903)
(1.70845e-20 5.67545e-20 -0.00170765)
(-6.934e-20 7.33741e-19 -0.00205955)
(4.08369e-21 -1.27122e-20 -0.00254186)
(-1.17564e-20 -5.13332e-21 -0.00323887)
(1.10304e-19 -6.19432e-19 -0.00429853)
(-2.0498e-19 1.218e-18 -0.00597318)
(2.09346e-19 -1.21295e-18 -0.00867764)
(7.41786e-20 8.69035e-20 -0.0130649)
(-1.59723e-19 5.32914e-19 -0.0201129)
(-1.69016e-19 3.69194e-19 -0.0312055)
(1.59488e-19 -4.37905e-19 -0.0481748)
(-2.31823e-20 2.02727e-20 -0.0732549)
(5.72983e-20 -1.81114e-20 -0.108865)
(1.7219e-19 -1.07168e-19 -0.157086)
(-1.86367e-19 1.67161e-19 -0.21874)
(-2.64296e-20 -4.28017e-20 -0.285364)
(3.93719e-22 -3.12879e-20 9.53173e-06)
(-3.67094e-22 1.58311e-20 4.17122e-06)
(7.16729e-22 -1.77402e-22 -4.01544e-06)
(-6.49165e-22 -1.55761e-20 -1.5625e-05)
(-9.98986e-22 -1.49303e-21 -3.12981e-05)
(3.21995e-21 -2.44513e-19 -5.1746e-05)
(-4.41778e-21 4.63232e-19 -7.77269e-05)
(2.12978e-21 -2.49524e-19 -0.000109974)
(-1.86671e-21 1.50476e-20 -0.000149086)
(4.71155e-21 -2.73285e-19 -0.000195386)
(-5.76888e-21 2.49541e-19 -0.000248779)
(-3.65249e-21 4.76176e-19 -0.000308627)
(9.91569e-21 -9.63874e-19 -0.000373679)
(-1.20936e-20 9.63191e-19 -0.000442085)
(1.63573e-20 -9.58995e-19 -0.000511539)
(-1.01685e-20 9.50997e-19 -0.000579555)
(-9.40065e-21 4.8354e-19 -0.000643778)
(-7.20543e-22 -3.88871e-21 -0.000702198)
(4.65054e-21 4.03486e-21 -0.000753404)
(-6.78273e-21 4.46929e-19 -0.000796943)
(-3.14501e-21 -4.69532e-19 -0.00083363)
(1.52513e-20 1.3141e-20 -0.000865554)
(-3.19253e-20 9.02803e-19 -0.000895923)
(2.35514e-20 -9.06111e-19 -0.000928847)
(2.30055e-21 -5.26965e-21 -0.00096907)
(-1.00651e-20 -9.05967e-23 -0.00102168)
(1.52216e-20 -1.37264e-20 -0.00109188)
(-4.96539e-21 1.27329e-22 -0.00118476)
(-5.46939e-21 -6.23052e-23 -0.00130534)
(5.19351e-21 2.01981e-22 -0.00145861)
(-3.77892e-21 1.31014e-21 -0.0016499)
(6.13722e-20 -8.06407e-19 -0.00188558)
(-5.52887e-20 8.29634e-19 -0.00217429)
(-1.65473e-20 9.20635e-23 -0.00252923)
(1.92251e-20 -1.03965e-20 -0.0029724)
(-9.78799e-20 7.43784e-19 -0.00354223)
(1.15162e-19 -7.47338e-19 -0.00430729)
(-2.35953e-20 2.35889e-21 -0.00538967)
(1.66497e-20 -8.60679e-23 -0.00700324)
(3.95822e-20 6.79627e-21 -0.00951226)
(-2.52713e-19 5.62362e-19 -0.0135148)
(3.72751e-19 -1.1417e-18 -0.019951)
(-1.81998e-19 5.79168e-19 -0.0302279)
(2.68642e-19 -4.45216e-19 -0.0463376)
(-2.59659e-19 5.24974e-19 -0.0709275)
(-6.12149e-19 5.43844e-19 -0.107256)
(1.15796e-18 -1.15422e-18 -0.158899)
(-5.68266e-19 5.83722e-19 -0.228934)
(1.96796e-20 -2.31406e-21 -0.318209)
(4.76573e-21 -3.6597e-20 -0.404037)
(-7.48019e-22 1.59152e-20 1.10155e-05)
(-2.29362e-22 6.08875e-20 2.74669e-06)
(1.87402e-21 -1.84973e-19 -9.77947e-06)
(-1.1271e-21 2.4832e-19 -2.70836e-05)
(-3.80427e-22 -1.10011e-19 -4.98272e-05)
(1.02163e-22 -1.46823e-20 -7.88371e-05)
(-4.74722e-22 1.55057e-20 -0.000115051)
(3.12856e-21 -1.93068e-22 -0.000159416)
(-2.99569e-21 -1.51556e-20 -0.000212743)
(-5.38105e-21 3.4095e-20 -0.000275537)
(-6.52039e-21 4.8433e-19 -0.000347816)
(1.83288e-20 -5.03488e-19 -0.000428961)
(-2.27322e-20 4.69938e-19 -0.000517629)
(1.87757e-20 -4.88923e-19 -0.000611767)
(-3.103e-21 3.50817e-21 -0.000708779)
(1.13292e-20 4.89316e-23 -0.000805862)
(4.31268e-21 3.83085e-21 -0.000900387)
(-4.25362e-21 4.57365e-19 -0.00099016)
(1.96031e-20 -4.95106e-19 -0.0010737)
(6.5693e-21 2.74531e-20 -0.00115073)
(-4.40267e-20 9.44372e-19 -0.00122251)
(2.69017e-20 -9.47393e-19 -0.00129189)
(1.05292e-20 2.30479e-20 -0.00136311)
(-1.85871e-20 -2.40254e-22 -0.00144158)
(1.21625e-20 9.92457e-21 -0.00153356)
(-3.59101e-20 9.10484e-19 -0.00164585)
(2.90295e-20 -9.02231e-19 -0.00178551)
(2.92179e-21 9.90911e-21 -0.00195967)
(9.97023e-21 2.76937e-20 -0.00217552)
(-1.18573e-20 -5.66224e-22 -0.00244048)
(1.1497e-21 -1.32665e-20 -0.00276262)
(-3.84008e-20 1.34816e-20 -0.0031516)
(3.62747e-20 1.2858e-20 -0.00362024)
(-3.31126e-21 -2.59343e-20 -0.00418745)
(8.00492e-20 -7.56323e-19 -0.00488374)
(-7.06447e-20 7.79489e-19 -0.00576122)
(2.67352e-19 -1.50382e-18 -0.00691157)
(-2.44074e-19 1.5185e-18 -0.00849701)
(3.05542e-19 -1.42534e-18 -0.0108011)
(7.46575e-20 1.34103e-19 -0.0143068)
(-3.53104e-19 1.35999e-18 -0.0198078)
(-1.25624e-19 -2.31075e-20 -0.028554)
(1.70845e-20 3.88707e-22 -0.0424204)
(-1.91712e-20 5.72098e-22 -0.0640772)
(5.65821e-20 1.72685e-21 -0.0971213)
(2.73758e-20 1.41468e-20 -0.146106)
(-1.18172e-19 5.35821e-21 -0.216299)
(6.72837e-20 5.21079e-21 -0.312625)
(-1.72855e-22 -3.24497e-22 -0.436481)
(3.76501e-20 6.70516e-22 -0.537618)
(-6.43917e-22 7.66591e-20 1.1074e-05)
(1.65444e-21 -4.67642e-20 -2.33948e-06)
(-1.74564e-21 -1.65198e-20 -2.16978e-05)
(4.54786e-21 -2.29138e-19 -4.71674e-05)
(-2.08222e-21 2.31063e-19 -7.93947e-05)
(1.80037e-21 -2.28671e-19 -0.00011935)
(-1.06685e-20 5.04329e-19 -0.000168193)
(1.09877e-20 -7.06574e-19 -0.00022713)
(-7.03434e-21 4.99883e-19 -0.000297245)
(-5.363e-21 4.87222e-19 -0.000379303)
(-2.20267e-21 3.83929e-21 -0.000473548)
(2.35887e-20 -9.57413e-19 -0.000579532)
(-2.02352e-20 9.96865e-19 -0.000696014)
(4.421e-21 -4.69262e-19 -0.000820973)
(1.14406e-20 -4.71563e-19 -0.000951793)
(2.18768e-20 -4.64193e-19 -0.00108563)
(-3.07243e-21 6.94744e-21 -0.00121988)
(3.69981e-20 -9.62972e-19 -0.00135245)
(2.76139e-20 -9.24911e-19 -0.00148208)
(6.52318e-21 2.13342e-20 -0.00160892)
(-2.42146e-20 9.61202e-19 -0.0017349)
(-2.07302e-20 -8.32406e-21 -0.00186382)
(1.26557e-20 9.21176e-21 -0.00200115)
(-4.80812e-20 9.32415e-19 -0.00215383)
(3.83399e-20 -9.47621e-19 -0.00232992)
(7.04116e-20 -9.1074e-19 -0.00253834)
(-7.16686e-20 9.41199e-19 -0.00278851)
(1.55192e-20 -2.06089e-20 -0.00309027)
(6.46547e-20 -9.09991e-19 -0.00345386)
(-9.32187e-20 9.33526e-19 -0.00389016)
(4.50558e-21 1.27397e-20 -0.0044113)
(-2.0252e-19 1.71328e-18 -0.00503165)
(1.81931e-19 -1.77811e-18 -0.00576982)
(5.01206e-20 6.38711e-20 -0.00665213)
(-2.63482e-19 1.62628e-18 -0.00771916)
(2.40345e-19 -1.69633e-18 -0.00903792)
(-3.27003e-20 -3.49744e-21 -0.0107238)
(4.73957e-19 -1.53426e-18 -0.0129789)
(-4.42819e-19 1.58517e-18 -0.0161559)
(-6.89886e-20 -7.51054e-20 -0.0208565)
(6.89744e-19 -1.34478e-18 -0.0280755)
(-1.21151e-18 2.77781e-18 -0.0393886)
(-7.09346e-20 -1.58025e-19 -0.0571792)
(-9.51583e-20 -1.23457e-19 -0.0848808)
(7.92e-19 -1.21614e-18 -0.12722)
(4.12462e-20 6.57576e-20 -0.190475)
(-9.07387e-19 8.12772e-19 -0.282751)
(8.89692e-19 -8.9375e-19 -0.413707)
(1.01283e-20 3.0229e-20 -0.590166)
(9.8802e-21 -2.87988e-21 -0.712595)
(6.08852e-22 -1.599e-20 8.83959e-06)
(1.53997e-21 -1.362e-19 -1.50973e-05)
(-1.68715e-21 1.22877e-19 -4.50823e-05)
(-1.33944e-21 -1.73607e-20 -8.17221e-05)
(5.15261e-21 -2.27759e-19 -0.000125985)
(-4.72559e-21 2.34418e-19 -0.000179121)
(-5.20575e-21 4.73424e-19 -0.000242566)
(-5.27498e-21 -1.95531e-20 -0.000317807)
(2.32437e-21 -4.57961e-21 -0.000406211)
(1.40056e-20 -5.05014e-19 -0.000508822)
(-1.11987e-20 4.72736e-19 -0.000626147)
(1.6215e-20 -1.00043e-18 -0.000757978)
(-3.13343e-21 5.00309e-19 -0.000903276)
(-3.80491e-21 -1.89103e-20 -0.00106019)
(-5.06399e-21 -2.26952e-20 -0.00122622)
(2.65465e-20 -9.82822e-19 -0.00139862)
(-1.44998e-21 -2.00256e-20 -0.0015749)
(2.50749e-20 -1.00142e-18 -0.00175311)
(-5.62565e-21 -7.61886e-21 -0.00193224)
(-1.72889e-22 1.23087e-22 -0.00211273)
(1.18041e-20 8.69695e-21 -0.00229692)
(-5.00858e-20 9.6526e-19 -0.00248912)
(4.41538e-20 -9.86303e-19 -0.00269544)
(1.31689e-20 8.59863e-21 -0.00292354)
(-9.05258e-21 -1.5135e-20 -0.00318226)
(-6.3607e-21 1.02113e-20 -0.00348126)
(-7.07864e-20 9.34224e-19 -0.0038307)
(1.52771e-19 -1.90715e-18 -0.00424091)
(-7.20265e-20 9.95506e-19 -0.00472234)
(-1.85513e-19 1.84635e-18 -0.00528556)
(-3.10605e-20 -4.51058e-20 -0.00594161)
(3.04615e-21 -2.54375e-20 -0.00670264)
(-6.78764e-20 -5.36139e-20 -0.00758342)
(2.53336e-19 -1.8502e-18 -0.00860426)
(3.97023e-19 -1.71509e-18 -0.00979701)
(-3.52773e-19 1.80099e-18 -0.0112169)
(-3.51661e-20 -5.68865e-20 -0.0129655)
(4.72606e-19 -1.64572e-18 -0.0152322)
(-4.14672e-19 1.74427e-18 -0.0183662)
(-6.75058e-19 1.5524e-18 -0.0229937)
(5.71137e-19 -1.64055e-18 -0.0301942)
(8.12518e-20 -1.16879e-20 -0.0417445)
(8.89466e-19 -1.45832e-18 -0.0604253)
(1.29996e-19 1.23045e-19 -0.0903735)
(-1.03353e-18 1.43235e-18 -0.137475)
(-1.7041e-20 -4.13569e-20 -0.209868)
(3.502e-20 5.49216e-22 -0.319298)
(-3.5776e-20 1.59388e-20 -0.486226)
(-5.38386e-19 5.63743e-19 -0.749853)
(5.29764e-19 -5.72917e-19 -1.0352)
(-1.0277e-20 -2.95924e-21 0.00869857)
(-9.73157e-21 -1.6827e-22 0.00153374)
(9.1063e-21 8.99851e-21 -0.00438273)
(-7.54121e-21 -8.8755e-22 -0.00913692)
(8.02552e-21 -7.73927e-21 -0.0128281)
(-8.33744e-23 2.92049e-21 -0.0155669)
(-1.4306e-22 -8.35824e-23 -0.0174714)
(-4.25255e-21 9.30075e-24 -0.0186566)
(4.12906e-21 -9.03067e-24 -0.0192311)
(-1.12997e-22 2.47136e-25 -0.019299)
(-1.00706e-22 2.20254e-25 -0.0189574)
(2.58239e-21 -5.64795e-24 -0.0182947)
(-2.59069e-21 5.66611e-24 -0.0173898)
(-1.87779e-21 4.10691e-24 -0.0163121)
(3.32808e-22 -3.32181e-22 -0.0151212)
(4.62835e-21 4.04249e-20 -0.0138672)
(-2.78348e-21 -3.71506e-20 -0.0125917)
(-1.78117e-23 -3.13464e-22 -0.0113279)
(-4.14789e-24 1.14698e-22 -0.0101022)
(-2.55255e-21 -5.99715e-20 -0.00893419)
(2.56437e-21 5.99112e-20 -0.00783825)
(-1.9348e-21 -6.44273e-20 -0.0068238)
(3.43018e-22 4.40992e-21 -0.00589641)
(-1.38472e-22 2.53907e-24 -0.00505819)
(2.47805e-22 4.93957e-21 -0.00430905)
(-2.7564e-23 4.88446e-25 -0.00364657)
(3.97229e-23 -8.68778e-26 -0.00306692)
(-2.69366e-23 1.46932e-24 -0.00256481)
(1.74622e-22 5.73588e-21 -0.00213394)
(2.48843e-24 -2.98647e-24 -0.00176758)
(-1.48301e-22 -6.05555e-21 -0.00145876)
(1.3878e-22 6.2009e-21 -0.00120056)
(-1.6455e-22 -6.32355e-21 -0.000986292)
(6.14893e-22 5.8473e-20 -0.00080963)
(-5.61669e-22 -5.87277e-20 -0.000664766)
(-2.55795e-22 -4.7047e-20 -0.000546456)
(5.91027e-22 1.0162e-19 -0.000450067)
(-3.25519e-22 -5.46635e-20 -0.000371581)
(-6.49482e-23 -6.95453e-21 -0.000307575)
(5.98617e-23 7.04513e-21 -0.000255188)
(-3.47216e-24 -2.75677e-25 -0.00021206)
(6.22236e-23 7.19447e-21 -0.000176279)
(-1.56114e-22 -3.64095e-20 -0.000146318)
(1.53003e-22 3.65374e-20 -0.00012097)
(-4.69797e-23 -7.39209e-21 -9.92902e-05)
(8.38286e-23 2.23883e-20 -8.05443e-05)
(-4.74242e-24 -7.4614e-21 -6.41558e-05)
(-5.64637e-23 -1.51391e-20 -4.96585e-05)
(1.95275e-23 7.59347e-21 -3.66508e-05)
(-3.0525e-23 -7.66235e-21 -2.47797e-05)
(-1.49672e-20 2.41225e-20 0.024904)
(2.47451e-20 -1.14261e-20 0.00350103)
(-1.90875e-20 -1.91141e-20 -0.0141789)
(-2.33236e-24 1.39106e-20 -0.0282582)
(-5.56641e-22 -1.31121e-20 -0.0390858)
(-1.07287e-20 5.79648e-21 -0.047038)
(9.07193e-21 4.35554e-21 -0.0524967)
(-1.12772e-20 -2.76175e-20 -0.0558214)
(2.01138e-20 1.77478e-20 -0.0573444)
(-1.67414e-20 3.12311e-21 -0.0573838)
(1.28483e-20 -5.06074e-21 -0.0562318)
(2.45505e-20 9.00681e-20 -0.0541517)
(-3.194e-20 -8.26643e-20 -0.0513779)
(-3.27029e-20 -1.29857e-19 -0.0481147)
(3.77364e-21 -2.3782e-20 -0.0445366)
(3.23779e-20 1.47599e-19 -0.04079)
(-3.03871e-21 -9.96752e-22 -0.0369948)
(-1.26521e-21 -6.34873e-21 -0.0332471)
(3.59584e-24 -3.20404e-23 -0.0296218)
(1.06934e-22 -2.33876e-25 -0.026175)
(2.88018e-22 2.88775e-24 -0.0229469)
(-6.1178e-22 -4.35026e-21 -0.0199635)
(2.33236e-20 2.8248e-19 -0.01724)
(-2.57105e-20 -3.05922e-19 -0.0147817)
(2.14653e-20 3.20406e-19 -0.0125865)
(-1.1655e-20 -1.56641e-19 -0.010647)
(-1.94074e-20 -3.45496e-19 -0.00895104)
(9.38038e-21 1.7609e-19 -0.00748281)
(-2.16274e-22 -5.7864e-21 -0.00622371)
(-5.63323e-22 -1.19024e-20 -0.00515371)
(7.38596e-23 6.07342e-21 -0.00425221)
(-6.67733e-22 -1.86593e-20 -0.00349879)
(5.18385e-21 1.98698e-19 -0.00287373)
(-1.07371e-20 -4.20942e-19 -0.00235852)
(4.76548e-21 2.02767e-19 -0.00193611)
(-5.01624e-22 -2.01416e-20 -0.00159116)
(1.25188e-22 6.79286e-21 -0.00131013)
(-6.57466e-24 -1.00375e-23 -0.00108129)
(-1.90038e-21 -1.19049e-19 -0.000894643)
(1.61725e-21 1.05241e-19 -0.000741849)
(1.18003e-21 1.00198e-19 -0.000616032)
(-1.71589e-21 -1.36285e-19 -0.000511623)
(5.30285e-23 7.26493e-21 -0.000424171)
(3.24868e-22 3.68109e-20 -0.000350163)
(-7.04653e-22 -6.62975e-20 -0.000286853)
(-5.32899e-23 -7.43955e-21 -0.0002321)
(-4.24535e-22 -5.25586e-20 -0.000184222)
(-9.96088e-23 -7.70535e-21 -0.000141851)
(1.18143e-22 1.509e-20 -0.000103773)
(1.36368e-22 2.29042e-20 -6.88281e-05)
(-1.46408e-20 -7.75811e-22 0.0372313)
(-5.06814e-21 -1.07357e-20 0.0018559)
(2.66543e-20 2.41037e-20 -0.0272897)
(-4.19867e-20 -1.22465e-20 -0.0500597)
(1.71147e-20 1.01664e-20 -0.0672332)
(-2.41858e-20 -3.32278e-20 -0.0795877)
(3.28801e-20 2.66787e-21 -0.0878255)
(7.93344e-20 8.16937e-20 -0.0925914)
(-1.5444e-20 5.65802e-20 -0.0944738)
(-1.56102e-19 -2.4383e-19 -0.0940098)
(1.91336e-19 2.90832e-19 -0.0916839)
(-1.01977e-19 -1.49004e-19 -0.0879284)
(2.22507e-21 -1.04516e-20 -0.083123)
(-1.9483e-21 -3.74493e-21 -0.0775947)
(1.16812e-19 3.2737e-19 -0.0716204)
(-5.71243e-21 4.0271e-20 -0.0654292)
(-1.08005e-19 -3.56384e-19 -0.0592073)
(6.05681e-21 1.02485e-20 -0.0531018)
(-2.13782e-21 7.91662e-23 -0.0472257)
(4.83592e-23 -4.14805e-22 -0.0416628)
(4.62641e-20 2.73415e-19 -0.0364709)
(-4.48131e-20 -2.63803e-19 -0.0316877)
(-4.01882e-20 -2.96211e-19 -0.0273321)
(4.24674e-20 3.14686e-19 -0.0234107)
(1.34332e-21 1.05168e-20 -0.0199163)
(-1.261e-21 -1.07182e-20 -0.016834)
(1.12463e-21 1.10482e-20 -0.0141426)
(-2.73789e-20 -3.57607e-19 -0.0118155)
(2.85793e-20 3.69554e-19 -0.00982219)
(-2.25444e-20 -3.65027e-19 -0.00812996)
(2.41336e-20 3.8968e-19 -0.00670547)
(5.29503e-22 1.25497e-20 -0.00551582)
(1.84431e-20 4.1378e-19 -0.00452946)
(-3.50809e-20 -8.22524e-19 -0.00371682)
(1.74263e-20 4.35057e-19 -0.00305078)
(7.63559e-21 2.30267e-19 -0.00250697)
(-6.73566e-21 -2.03532e-19 -0.00206393)
(5.37699e-23 2.50962e-23 -0.00170311)
(-1.75064e-22 -3.23907e-23 -0.00140872)
(2.60884e-24 5.41379e-24 -0.00116759)
(4.63106e-21 2.29327e-19 -0.000968894)
(-4.52489e-21 -2.1526e-19 -0.000803865)
(3.09745e-22 1.45509e-20 -0.000665511)
(-8.18267e-23 -2.32811e-23 -0.000548315)
(1.66048e-21 1.18402e-19 -0.000447965)
(-3.14425e-21 -2.22912e-19 -0.000361105)
(1.56661e-21 1.19354e-19 -0.000285089)
(-7.87504e-22 -6.03692e-20 -0.000217732)
(5.8596e-22 4.52296e-20 -0.000156997)
(1.42891e-22 1.51606e-20 -0.000100617)
(1.64167e-21 2.67961e-20 0.0416932)
(8.75526e-21 -5.33732e-20 -0.0068532)
(-1.92907e-20 5.11225e-20 -0.0466307)
(-1.58036e-20 -2.18304e-20 -0.0767835)
(5.08195e-20 -3.9186e-20 -0.0988192)
(5.0952e-20 8.79214e-20 -0.114101)
(-6.83591e-20 -5.15144e-20 -0.123781)
(8.40788e-20 1.13999e-19 -0.128845)
(-2.0947e-19 -2.4602e-19 -0.130148)
(1.51923e-19 1.19318e-19 -0.128443)
(-1.67891e-20 1.24696e-20 -0.124394)
(-9.024e-21 7.61871e-22 -0.118585)
(1.27195e-20 8.56729e-21 -0.111519)
(-1.66884e-19 -3.33258e-19 -0.103623)
(1.53829e-19 3.13854e-19 -0.0952542)
(-4.86933e-22 1.66787e-20 -0.0867025)
(1.39053e-21 -8.3984e-21 -0.078201)
(1.46541e-19 4.7708e-19 -0.0699305)
(-1.47315e-19 -4.72479e-19 -0.0620272)
(-1.8505e-21 -1.06367e-20 -0.0545892)
(-3.95009e-22 -2.66129e-23 -0.0476824)
(8.66194e-22 3.3656e-22 -0.0413457)
(1.81673e-22 -6.09739e-24 -0.0355986)
(1.22486e-21 1.03081e-20 -0.0304408)
(9.49509e-22 2.46964e-22 -0.0258593)
(1.2989e-21 1.08997e-20 -0.0218289)
(-8.72557e-20 -7.46233e-19 -0.0183176)
(8.63941e-20 7.35434e-19 -0.0152876)
(1.55341e-23 -4.40391e-24 -0.0126968)
(-3.33387e-20 -3.96256e-19 -0.0105008)
(3.48068e-20 4.09246e-19 -0.00865478)
(3.03251e-23 -4.21717e-23 -0.00711492)
(-1.70117e-22 -1.40856e-22 -0.00583949)
(-2.45309e-20 -4.39003e-19 -0.00478955)
(4.63333e-20 8.71482e-19 -0.00392955)
(-4.16351e-20 -8.69707e-19 -0.00322769)
(3.83692e-20 8.80517e-19 -0.00265599)
(-3.51052e-20 -8.90444e-19 -0.00219034)
(1.66697e-20 4.47718e-19 -0.00181029)
(7.12114e-21 2.2801e-19 -0.00149881)
(-6.26744e-21 -1.9951e-19 -0.00124193)
(-4.53572e-22 -1.44422e-20 -0.00102835)
(-5.53153e-21 -2.33429e-19 -0.000849083)
(1.1539e-20 4.97862e-19 -0.000697047)
(-5.32113e-21 -2.35133e-19 -0.000566717)
(8.10714e-23 1.16693e-23 -0.000453791)
(2.4746e-22 1.49047e-20 -0.000354865)
(-8.10554e-23 -1.54003e-23 -0.000267071)
(-2.03182e-22 -1.50628e-20 -0.000187538)
(4.45913e-22 3.0276e-20 -0.000112457)
(2.73314e-20 8.52591e-23 0.0337123)
(1.2318e-22 2.12464e-22 -0.0273714)
(-6.06713e-20 3.08978e-23 -0.0760509)
(8.71214e-20 -9.57902e-22 -0.111146)
(-2.72232e-20 -1.7018e-21 -0.13555)
(-3.94624e-20 -1.02741e-21 -0.151522)
(1.48348e-20 1.44945e-21 -0.16075)
(-9.64592e-21 -2.22172e-21 -0.164565)
(7.19459e-20 -2.10208e-20 -0.16407)
(2.89509e-19 4.54707e-19 -0.160205)
(7.76591e-21 9.96037e-20 -0.153781)
(-3.31688e-19 -5.48181e-19 -0.145491)
(3.67491e-19 6.71555e-19 -0.135924)
(-3.80478e-19 -6.67549e-19 -0.125573)
(1.851e-19 4.07542e-19 -0.114841)