/*--------------------------------*- C++ -*----------------------------------*\
| =========                 |                                                 |
| \\      /  F ield         | OpenFOAM: The Open Source CFD Toolbox           |
|  \\    /   O peration     | Version:  2412                                  |
|   \\  /    A nd           | Website:  www.openfoam.com                      |
|    \\/     M anipulation  |                                                 |
\*---------------------------------------------------------------------------*/
FoamFile
{
    version     2.0;
    format      ascii;
    arch        "LSB;label=32;scalar=64";
    class       volVectorField;
    location    "7.5";
    object      U;
}
// * * * * * * * * * * * * * * * * * * * * * * * * * * * * * * * * * * * * * //

dimensions      [0 1 -1 0 0 0 0];

internalField   nonuniform List<vector> 
5285
(
(0.0999006 0.000728792 0)
(0.0999049 0.000691175 0)
(0.0999096 0.00065481 0)
(0.0999144 0.000619694 0)
(0.0999194 0.000585824 0)
(0.0999246 0.000553191 0)
(0.0999299 0.000521788 0)
(0.0999353 0.000491604 0)
(0.0999408 0.000462623 0)
(0.0999462 0.00043483 0)
(0.0999516 0.000408205 0)
(0.099957 0.000382727 0)
(0.0999624 0.000358375 0)
(0.0999676 0.000335127 0)
(0.0999727 0.000312958 0)
(0.0999778 0.000291845 0)
(0.0999826 0.000271762 0)
(0.0999874 0.000252682 0)
(0.0999919 0.00023458 0)
(0.0999963 0.000217429 0)
(0.1 0.000201202 0)
(0.100004 0.000185871 0)
(0.100008 0.000171409 0)
(0.100012 0.000157787 0)
(0.100015 0.000144976 0)
(0.100019 0.000132948 0)
(0.100022 0.000121673 0)
(0.100024 0.000111124 0)
(0.100027 0.000101273 0)
(0.100029 9.20918e-05 0)
(0.100032 8.35547e-05 0)
(0.100034 7.56348e-05 0)
(0.100035 6.83054e-05 0)
(0.100037 6.15411e-05 0)
(0.100039 5.53164e-05 0)
(0.10004 4.96073e-05 0)
(0.100041 4.43904e-05 0)
(0.100042 3.96445e-05 0)
(0.100043 3.53494e-05 0)
(0.100044 3.14864e-05 0)
(0.100045 2.80371e-05 0)
(0.100045 2.49834e-05 0)
(0.100046 2.231e-05 0)
(0.100046 2.00015e-05 0)
(0.100047 1.80476e-05 0)
(0.100047 1.6439e-05 0)
(0.100047 1.51688e-05 0)
(0.100047 1.42384e-05 0)
(0.100048 1.36437e-05 0)
(0.100048 1.33961e-05 0)
(0.100048 1.3499e-05 0)
(0.100049 1.39782e-05 0)
(0.100049 1.48362e-05 0)
(0.100049 1.61622e-05 0)
(0.10005 1.78639e-05 0)
(0.10005 2.0315e-05 0)
(0.100053 2.28521e-05 0)
(0.100051 2.71504e-05 0)
(0.100058 2.9997e-05 0)
(0.10005 3.80979e-05 0)
(0.100072 3.92463e-05 0)
(0.100042 5.56063e-05 0)
(0.1001 5.07034e-05 0)
(0.100023 8.23257e-05 0)
(0.100147 6.69803e-05 0)
(0.100001 0.000118768 0)
(0.100207 9.57086e-05 0)
(0.0999952 0.00016364 0)
(0.100287 0.000155416 0)
(0.100012 0.000180944 0)
(0.100359 0.000316893 0)
(0.0998858 0.000726765 0)
(0.099891 0.000689061 0)
(0.0998964 0.000652633 0)
(0.0999021 0.000617477 0)
(0.0999079 0.000583585 0)
(0.0999139 0.00055095 0)
(0.0999199 0.000519559 0)
(0.099926 0.0004894 0)
(0.0999321 0.000460457 0)
(0.0999382 0.000432712 0)
(0.0999442 0.000406143 0)
(0.0999502 0.000380729 0)
(0.0999561 0.000356447 0)
(0.0999618 0.000333274 0)
(0.0999675 0.000311184 0)
(0.0999729 0.000290153 0)
(0.0999783 0.000270154 0)
(0.0999834 0.00025116 0)
(0.0999883 0.000233144 0)
(0.0999931 0.000216079 0)
(0.0999976 0.000199937 0)
(0.100002 0.000184691 0)
(0.100006 0.00017031 0)
(0.10001 0.000156768 0)
(0.100014 0.000144035 0)
(0.100017 0.000132082 0)
(0.10002 0.000120879 0)
(0.100023 0.000110399 0)
(0.100026 0.000100614 0)
(0.100029 9.14955e-05 0)
(0.100031 8.30176e-05 0)
(0.100033 7.51533e-05 0)
(0.100035 6.78759e-05 0)
(0.100037 6.11601e-05 0)
(0.100039 5.49803e-05 0)
(0.10004 4.93128e-05 0)
(0.100042 4.41341e-05 0)
(0.100043 3.94232e-05 0)
(0.100044 3.51597e-05 0)
(0.100045 3.13248e-05 0)
(0.100045 2.79004e-05 0)
(0.100046 2.48682e-05 0)
(0.100047 2.22133e-05 0)
(0.100047 1.99205e-05 0)
(0.100048 1.79793e-05 0)
(0.100048 1.63807e-05 0)
(0.100048 1.51179e-05 0)
(0.100049 1.41917e-05 0)
(0.100049 1.35983e-05 0)
(0.100049 1.33488e-05 0)
(0.10005 1.34469e-05 0)
(0.10005 1.39177e-05 0)
(0.10005 1.47642e-05 0)
(0.100051 1.60729e-05 0)
(0.100052 1.77557e-05 0)
(0.100052 2.01739e-05 0)
(0.100054 2.26905e-05 0)
(0.100053 2.69188e-05 0)
(0.10006 2.97724e-05 0)
(0.100052 3.76952e-05 0)
(0.100074 3.89749e-05 0)
(0.100044 5.48691e-05 0)
(0.100103 5.04338e-05 0)
(0.100026 8.09818e-05 0)
(0.10015 6.67181e-05 0)
(0.100004 0.000116374 0)
(0.10021 9.55225e-05 0)
(0.0999996 0.000158578 0)
(0.100289 0.000155558 0)
(0.100022 0.000175289 0)
(0.100361 0.000299666 0)
(0.0998707 0.000724336 0)
(0.0998768 0.000686567 0)
(0.0998831 0.000650098 0)
(0.0998896 0.000614922 0)
(0.0998963 0.00058103 0)
(0.099903 0.000548411 0)
(0.0999097 0.000517051 0)
(0.0999165 0.000486935 0)
(0.0999233 0.000458046 0)
(0.09993 0.000430364 0)
(0.0999367 0.000403867 0)
(0.0999432 0.000378531 0)
(0.0999496 0.000354333 0)
(0.0999559 0.000331248 0)
(0.099962 0.00030925 0)
(0.099968 0.000288312 0)
(0.0999737 0.000268408 0)
(0.0999793 0.00024951 0)
(0.0999846 0.00023159 0)
(0.0999898 0.00021462 0)
(0.0999947 0.000198572 0)
(0.0999993 0.000183417 0)
(0.100004 0.000169127 0)
(0.100008 0.000155672 0)
(0.100012 0.000143023 0)
(0.100016 0.00013115 0)
(0.100019 0.000120026 0)
(0.100022 0.00010962 0)
(0.100025 9.99051e-05 0)
(0.100028 9.08539e-05 0)
(0.100031 8.24392e-05 0)
(0.100033 7.46343e-05 0)
(0.100035 6.74125e-05 0)
(0.100037 6.07483e-05 0)
(0.100039 5.46164e-05 0)
(0.100041 4.89932e-05 0)
(0.100042 4.38553e-05 0)
(0.100043 3.91815e-05 0)
(0.100044 3.49516e-05 0)
(0.100045 3.11468e-05 0)
(0.100046 2.77487e-05 0)
(0.100047 2.47397e-05 0)
(0.100048 2.21045e-05 0)
(0.100048 1.98284e-05 0)
(0.100049 1.7901e-05 0)
(0.100049 1.63132e-05 0)
(0.100049 1.50583e-05 0)
(0.10005 1.41369e-05 0)
(0.10005 1.35453e-05 0)
(0.10005 1.32941e-05 0)
(0.100051 1.33873e-05 0)
(0.100051 1.38497e-05 0)
(0.100052 1.46843e-05 0)
(0.100052 1.59755e-05 0)
(0.100053 1.76385e-05 0)
(0.100053 2.00236e-05 0)
(0.100056 2.25174e-05 0)
(0.100054 2.66769e-05 0)
(0.100062 2.95312e-05 0)
(0.100053 3.72829e-05 0)
(0.100076 3.86762e-05 0)
(0.100046 5.41266e-05 0)
(0.100105 5.0119e-05 0)
(0.100028 7.96384e-05 0)
(0.100153 6.6391e-05 0)
(0.100007 0.000113978 0)
(0.100213 9.52401e-05 0)
(0.100004 0.000153585 0)
(0.10029 0.000155411 0)
(0.100032 0.000169628 0)
(0.100361 0.000282973 0)
(0.0998553 0.000721502 0)
(0.0998624 0.000683691 0)
(0.0998696 0.000647202 0)
(0.0998769 0.000612028 0)
(0.0998843 0.000578155 0)
(0.0998918 0.000545571 0)
(0.0998993 0.000514261 0)
(0.0999068 0.000484206 0)
(0.0999143 0.000455389 0)
(0.0999216 0.000427786 0)
(0.0999289 0.000401376 0)
(0.099936 0.000376133 0)
(0.099943 0.000352033 0)
(0.0999498 0.000329048 0)
(0.0999564 0.000307154 0)
(0.0999628 0.000286322 0)
(0.0999691 0.000266524 0)
(0.099975 0.000247732 0)
(0.0999808 0.000229917 0)
(0.0999863 0.000213052 0)
(0.0999915 0.000197106 0)
(0.0999965 0.000182051 0)
(0.100001 0.000167858 0)
(0.100006 0.000154496 0)
(0.10001 0.000141938 0)
(0.100014 0.000130152 0)
(0.100018 0.000119111 0)
(0.100021 0.000108785 0)
(0.100024 9.91457e-05 0)
(0.100027 9.0166e-05 0)
(0.10003 8.18188e-05 0)
(0.100033 7.4077e-05 0)
(0.100035 6.69143e-05 0)
(0.100037 6.0305e-05 0)
(0.100039 5.4224e-05 0)
(0.100041 4.86478e-05 0)
(0.100042 4.3553e-05 0)
(0.100044 3.89187e-05 0)
(0.100045 3.47244e-05 0)
(0.100046 3.09514e-05 0)
(0.100047 2.75815e-05 0)
(0.100048 2.4597e-05 0)
(0.100048 2.19829e-05 0)
(0.100049 1.97248e-05 0)
(0.100049 1.7812e-05 0)
(0.10005 1.62358e-05 0)
(0.10005 1.49896e-05 0)
(0.100051 1.40734e-05 0)
(0.100051 1.34839e-05 0)
(0.100052 1.32313e-05 0)
(0.100052 1.33198e-05 0)
(0.100052 1.37737e-05 0)
(0.100053 1.45962e-05 0)
(0.100053 1.58694e-05 0)
(0.100055 1.75121e-05 0)
(0.100055 1.98632e-05 0)
(0.100058 2.23332e-05 0)
(0.100056 2.64228e-05 0)
(0.100064 2.92758e-05 0)
(0.100055 3.68558e-05 0)
(0.100078 3.83575e-05 0)
(0.100047 5.33675e-05 0)
(0.100108 4.97732e-05 0)
(0.10003 7.8279e-05 0)
(0.100156 6.6015e-05 0)
(0.10001 0.000111574 0)
(0.100216 9.48553e-05 0)
(0.100009 0.000148704 0)
(0.100291 0.000154909 0)
(0.100044 0.00016402 0)
(0.10036 0.000266938 0)
(0.0998397 0.000718259 0)
(0.0998477 0.000680428 0)
(0.0998557 0.000643943 0)
(0.0998639 0.000608791 0)
(0.0998722 0.000574958 0)
(0.0998804 0.000542429 0)
(0.0998887 0.000511187 0)
(0.0998969 0.000481212 0)
(0.099905 0.000452483 0)
(0.099913 0.000424976 0)
(0.0999209 0.000398668 0)
(0.0999286 0.000373533 0)
(0.0999361 0.000349544 0)
(0.0999435 0.000326674 0)
(0.0999506 0.000304896 0)
(0.0999575 0.000284181 0)
(0.0999642 0.0002645 0)
(0.0999706 0.000245824 0)
(0.0999767 0.000228125 0)
(0.0999826 0.000211373 0)
(0.0999882 0.000195538 0)
(0.0999935 0.00018059 0)
(0.0999985 0.000166502 0)
(0.100003 0.000153241 0)
(0.100008 0.00014078 0)
(0.100012 0.000129087 0)
(0.100016 0.000118135 0)
(0.10002 0.000107894 0)
(0.100023 9.83349e-05 0)
(0.100026 8.94313e-05 0)
(0.100029 8.11556e-05 0)
(0.100032 7.34809e-05 0)
(0.100034 6.63808e-05 0)
(0.100037 5.98296e-05 0)
(0.100039 5.38025e-05 0)
(0.100041 4.8276e-05 0)
(0.100042 4.32269e-05 0)
(0.100044 3.86343e-05 0)
(0.100045 3.44776e-05 0)
(0.100046 3.07383e-05 0)
(0.100047 2.73982e-05 0)
(0.100048 2.44398e-05 0)
(0.100049 2.18481e-05 0)
(0.10005 1.9609e-05 0)
(0.10005 1.77119e-05 0)
(0.100051 1.61482e-05 0)
(0.100051 1.49113e-05 0)
(0.100052 1.40009e-05 0)
(0.100052 1.34139e-05 0)
(0.100052 1.31601e-05 0)
(0.100053 1.32439e-05 0)
(0.100053 1.36893e-05 0)
(0.100054 1.44994e-05 0)
(0.100055 1.57541e-05 0)
(0.100056 1.7376e-05 0)
(0.100056 1.96925e-05 0)
(0.100059 2.21375e-05 0)
(0.100057 2.61563e-05 0)
(0.100066 2.90057e-05 0)
(0.100056 3.6414e-05 0)
(0.10008 3.8018e-05 0)
(0.100049 5.25925e-05 0)
(0.10011 4.93953e-05 0)
(0.100032 7.69048e-05 0)
(0.100159 6.55887e-05 0)
(0.100012 0.000109164 0)
(0.100219 9.43611e-05 0)
(0.100014 0.000143957 0)
(0.100291 0.000154026 0)
(0.100056 0.000158493 0)
(0.100358 0.000251665 0)
(0.0998238 0.000714601 0)
(0.0998327 0.000676775 0)
(0.0998417 0.000640315 0)
(0.0998507 0.000605208 0)
(0.0998598 0.000571437 0)
(0.0998688 0.000538983 0)
(0.0998778 0.000507828 0)
(0.0998867 0.00047795 0)
(0.0998955 0.000449327 0)
(0.0999042 0.000421933 0)
(0.0999127 0.000395743 0)
(0.099921 0.00037073 0)
(0.0999291 0.000346866 0)
(0.0999369 0.000324124 0)
(0.0999446 0.000302474 0)
(0.0999519 0.000281888 0)
(0.099959 0.000262335 0)
(0.0999659 0.000243787 0)
(0.0999724 0.000226212 0)
(0.0999787 0.000209582 0)
(0.0999846 0.000193867 0)
(0.0999903 0.000179035 0)
(0.0999956 0.000165059 0)
(0.100001 0.000151906 0)
(0.100005 0.000139548 0)
(0.10001 0.000127955 0)
(0.100014 0.000117097 0)
(0.100018 0.000106946 0)
(0.100022 9.74725e-05 0)
(0.100025 8.86493e-05 0)
(0.100028 8.04494e-05 0)
(0.100031 7.28456e-05 0)
(0.100034 6.58115e-05 0)
(0.100036 5.93217e-05 0)
(0.100038 5.33515e-05 0)
(0.10004 4.78773e-05 0)
(0.100042 4.28764e-05 0)
(0.100044 3.83277e-05 0)
(0.100045 3.42108e-05 0)
(0.100046 3.0507e-05 0)
(0.100047 2.71984e-05 0)
(0.100048 2.42675e-05 0)
(0.100049 2.16996e-05 0)
(0.10005 1.94808e-05 0)
(0.100051 1.76003e-05 0)
(0.100051 1.60499e-05 0)
(0.100052 1.4823e-05 0)
(0.100052 1.39189e-05 0)
(0.100053 1.33348e-05 0)
(0.100053 1.30801e-05 0)
(0.100054 1.31593e-05 0)
(0.100054 1.35961e-05 0)
(0.100055 1.43937e-05 0)
(0.100056 1.56296e-05 0)
(0.100057 1.723e-05 0)
(0.100057 1.95113e-05 0)
(0.10006 2.19301e-05 0)
(0.100059 2.58774e-05 0)
(0.100067 2.87203e-05 0)
(0.100058 3.5958e-05 0)
(0.100082 3.76568e-05 0)
(0.100051 5.18029e-05 0)
(0.100113 4.89838e-05 0)
(0.100034 7.55187e-05 0)
(0.100162 6.51097e-05 0)
(0.100015 0.000106755 0)
(0.100222 9.37531e-05 0)
(0.100018 0.00013936 0)
(0.100291 0.000152758 0)
(0.100068 0.000153068 0)
(0.100355 0.000237218 0)
(0.0998076 0.000710525 0)
(0.0998174 0.000672728 0)
(0.0998273 0.000636317 0)
(0.0998372 0.000601277 0)
(0.0998471 0.000567588 0)
(0.0998569 0.00053523 0)
(0.0998667 0.000504181 0)
(0.0998763 0.00047442 0)
(0.0998858 0.00044592 0)
(0.0998951 0.000418655 0)
(0.0999042 0.000392599 0)
(0.0999131 0.000367724 0)
(0.0999218 0.000344 0)
(0.0999302 0.000321398 0)
(0.0999383 0.00029989 0)
(0.0999462 0.000279444 0)
(0.0999537 0.00026003 0)
(0.099961 0.000241619 0)
(0.0999679 0.000224179 0)
(0.0999745 0.000207681 0)
(0.0999808 0.000192093 0)
(0.0999868 0.000177386 0)
(0.0999925 0.000163528 0)
(0.0999979 0.000150491 0)
(0.100003 0.000138243 0)
(0.100008 0.000126755 0)
(0.100012 0.000115998 0)
(0.100016 0.000105941 0)
(0.10002 9.65581e-05 0)
(0.100024 8.78199e-05 0)
(0.100027 7.96998e-05 0)
(0.10003 7.21707e-05 0)
(0.100033 6.52062e-05 0)
(0.100035 5.8781e-05 0)
(0.100038 5.28706e-05 0)
(0.10004 4.74517e-05 0)
(0.100042 4.25014e-05 0)
(0.100043 3.79988e-05 0)
(0.100045 3.39236e-05 0)
(0.100046 3.02573e-05 0)
(0.100047 2.69818e-05 0)
(0.100049 2.408e-05 0)
(0.100049 2.15372e-05 0)
(0.10005 1.93398e-05 0)
(0.100051 1.7477e-05 0)
(0.100052 1.59407e-05 0)
(0.100052 1.47245e-05 0)
(0.100053 1.38272e-05 0)
(0.100053 1.32465e-05 0)
(0.100054 1.29912e-05 0)
(0.100055 1.3066e-05 0)
(0.100055 1.3494e-05 0)
(0.100056 1.42788e-05 0)
(0.100057 1.54955e-05 0)
(0.100058 1.70738e-05 0)
(0.100058 1.93193e-05 0)
(0.100061 2.17107e-05 0)
(0.10006 2.55861e-05 0)
(0.100068 2.84195e-05 0)
(0.100059 3.54878e-05 0)
(0.100084 3.72737e-05 0)
(0.100052 5.09991e-05 0)
(0.100115 4.85385e-05 0)
(0.100035 7.41216e-05 0)
(0.100164 6.45776e-05 0)
(0.100017 0.000104351 0)
(0.100224 9.30303e-05 0)
(0.100023 0.000134919 0)
(0.10029 0.000151117 0)
(0.100079 0.00014776 0)
(0.100352 0.000223621 0)
(0.0997912 0.000706027 0)
(0.099802 0.000668283 0)
(0.0998128 0.000631946 0)
(0.0998235 0.000596995 0)
(0.0998342 0.00056341 0)
(0.0998449 0.000531168 0)
(0.0998554 0.000500246 0)
(0.0998657 0.000470619 0)
(0.0998759 0.000442261 0)
(0.0998859 0.000415142 0)
(0.0998956 0.000389236 0)
(0.0999051 0.000364513 0)
(0.0999143 0.000340943 0)
(0.0999232 0.000318496 0)
(0.0999319 0.000297141 0)
(0.0999402 0.000276848 0)
(0.0999482 0.000257585 0)
(0.0999559 0.000239321 0)
(0.0999632 0.000222026 0)
(0.0999702 0.000205668 0)
(0.0999769 0.000190217 0)
(0.0999832 0.000175642 0)
(0.0999892 0.000161911 0)
(0.0999949 0.000148995 0)
(0.1 0.000136864 0)
(0.100005 0.000125488 0)
(0.10001 0.000114836 0)
(0.100014 0.00010488 0)
(0.100018 9.55917e-05 0)
(0.100022 8.69431e-05 0)
(0.100026 7.89069e-05 0)
(0.100029 7.14562e-05 0)
(0.100032 6.45648e-05 0)
(0.100034 5.82075e-05 0)
(0.100037 5.23599e-05 0)
(0.100039 4.69989e-05 0)
(0.100041 4.21017e-05 0)
(0.100043 3.76474e-05 0)
(0.100045 3.3616e-05 0)
(0.100046 2.99889e-05 0)
(0.100047 2.67483e-05 0)
(0.100048 2.38771e-05 0)
(0.100049 2.13607e-05 0)
(0.10005 1.91859e-05 0)
(0.100051 1.73418e-05 0)
(0.100052 1.58205e-05 0)
(0.100053 1.46156e-05 0)
(0.100053 1.37258e-05 0)
(0.100054 1.31489e-05 0)
(0.100054 1.28932e-05 0)
(0.100055 1.29637e-05 0)
(0.100056 1.3383e-05 0)
(0.100056 1.41547e-05 0)
(0.100057 1.53519e-05 0)
(0.100059 1.69076e-05 0)
(0.100059 1.91167e-05 0)
(0.100062 2.14793e-05 0)
(0.100061 2.52824e-05 0)
(0.10007 2.81034e-05 0)
(0.10006 3.50035e-05 0)
(0.100085 3.68691e-05 0)
(0.100053 5.01812e-05 0)
(0.100117 4.80598e-05 0)
(0.100037 7.27143e-05 0)
(0.100167 6.39931e-05 0)
(0.10002 0.000101953 0)
(0.100226 9.21939e-05 0)
(0.100027 0.000130634 0)
(0.100289 0.00014913 0)
(0.100089 0.000142582 0)
(0.100348 0.00021087 0)
(0.0997747 0.000701101 0)
(0.0997864 0.000663438 0)
(0.0997981 0.000627197 0)
(0.0998097 0.000592359 0)
(0.0998212 0.000558901 0)
(0.0998327 0.000526797 0)
(0.0998439 0.000496022 0)
(0.099855 0.000466548 0)
(0.0998659 0.000438349 0)
(0.0998765 0.000411394 0)
(0.0998869 0.000385654 0)
(0.0998969 0.000361099 0)
(0.0999067 0.000337697 0)
(0.0999162 0.000315418 0)
(0.0999253 0.000294229 0)
(0.0999341 0.0002741 0)
(0.0999426 0.000254999 0)
(0.0999507 0.000236893 0)
(0.0999584 0.000219753 0)
(0.0999658 0.000203545 0)
(0.0999728 0.000188238 0)
(0.0999795 0.000173803 0)
(0.0999858 0.000160207 0)
(0.0999917 0.00014742 0)
(0.0999974 0.000135412 0)
(0.100003 0.000124153 0)
(0.100008 0.000113612 0)
(0.100012 0.000103762 0)
(0.100016 9.45736e-05 0)
(0.10002 8.60188e-05 0)
(0.100024 7.80707e-05 0)
(0.100027 7.07023e-05 0)
(0.100031 6.38875e-05 0)
(0.100033 5.76013e-05 0)
(0.100036 5.18194e-05 0)
(0.100038 4.6519e-05 0)
(0.10004 4.16773e-05 0)
(0.100042 3.72737e-05 0)
(0.100044 3.3288e-05 0)
(0.100046 2.9702e-05 0)
(0.100047 2.64979e-05 0)
(0.100048 2.36588e-05 0)
(0.100049 2.11702e-05 0)
(0.10005 1.90191e-05 0)
(0.100051 1.71947e-05 0)
(0.100052 1.56893e-05 0)
(0.100053 1.44964e-05 0)
(0.100053 1.36146e-05 0)
(0.100054 1.30418e-05 0)
(0.100055 1.27861e-05 0)
(0.100055 1.28524e-05 0)
(0.100056 1.32629e-05 0)
(0.100057 1.40214e-05 0)
(0.100058 1.51988e-05 0)
(0.100059 1.67312e-05 0)
(0.10006 1.89033e-05 0)
(0.100063 2.12361e-05 0)
(0.100062 2.49663e-05 0)
(0.100071 2.77722e-05 0)
(0.100061 3.45053e-05 0)
(0.100087 3.6443e-05 0)
(0.100054 4.93497e-05 0)
(0.100118 4.75483e-05 0)
(0.100038 7.12976e-05 0)
(0.100169 6.33567e-05 0)
(0.100022 9.95658e-05 0)
(0.100228 9.12474e-05 0)
(0.100031 0.000126502 0)
(0.100288 0.00014683 0)
(0.100099 0.00013754 0)
(0.100344 0.000198937 0)
(0.099758 0.000695745 0)
(0.0997706 0.000658187 0)
(0.0997832 0.000622069 0)
(0.0997958 0.000587369 0)
(0.0998082 0.000554059 0)
(0.0998204 0.000522114 0)
(0.0998324 0.000491506 0)
(0.0998442 0.000462206 0)
(0.0998558 0.000434184 0)
(0.099867 0.00040741 0)
(0.099878 0.000381853 0)
(0.0998887 0.00035748 0)
(0.099899 0.000334261 0)
(0.099909 0.000312163 0)
(0.0999187 0.000291154 0)
(0.0999279 0.000271201 0)
(0.0999368 0.000252273 0)
(0.0999454 0.000234336 0)
(0.0999535 0.000217359 0)
(0.0999613 0.000201311 0)
(0.0999686 0.000186158 0)
(0.0999756 0.00017187 0)
(0.0999823 0.000158416 0)
(0.0999885 0.000145765 0)
(0.0999944 0.000133887 0)
(0.0999999 0.000122751 0)
(0.100005 0.000112327 0)
(0.10001 0.000102588 0)
(0.100014 9.3504e-05 0)
(0.100019 8.50475e-05 0)
(0.100022 7.71915e-05 0)
(0.100026 6.99091e-05 0)
(0.100029 6.31744e-05 0)
(0.100032 5.69625e-05 0)
(0.100035 5.12493e-05 0)
(0.100037 4.60121e-05 0)
(0.10004 4.12284e-05 0)
(0.100042 3.68776e-05 0)
(0.100044 3.29397e-05 0)
(0.100045 2.93966e-05 0)
(0.100047 2.62307e-05 0)
(0.100048 2.34252e-05 0)
(0.100049 2.09657e-05 0)
(0.10005 1.88395e-05 0)
(0.100051 1.70359e-05 0)
(0.100052 1.5547e-05 0)
(0.100053 1.43669e-05 0)
(0.100053 1.34937e-05 0)
(0.100054 1.29254e-05 0)
(0.100055 1.26699e-05 0)
(0.100056 1.27322e-05 0)
(0.100056 1.31339e-05 0)
(0.100057 1.38789e-05 0)
(0.100058 1.50361e-05 0)
(0.10006 1.65448e-05 0)
(0.10006 1.86794e-05 0)
(0.100064 2.09811e-05 0)
(0.100062 2.4638e-05 0)
(0.100071 2.74258e-05 0)
(0.100062 3.39936e-05 0)
(0.100088 3.59957e-05 0)
(0.100055 4.85049e-05 0)
(0.10012 4.70046e-05 0)
(0.100039 6.98724e-05 0)
(0.100171 6.26693e-05 0)
(0.100024 9.71902e-05 0)
(0.10023 9.01953e-05 0)
(0.100035 0.000122514 0)
(0.100287 0.000144258 0)
(0.100108 0.00013264 0)
(0.100339 0.000187785 0)
(0.0997412 0.000689955 0)
(0.0997548 0.000652529 0)
(0.0997684 0.00061656 0)
(0.0997818 0.000582021 0)
(0.099795 0.000548883 0)
(0.099808 0.00051712 0)
(0.0998208 0.000486699 0)
(0.0998334 0.000457592 0)
(0.0998456 0.000429766 0)
(0.0998575 0.00040319 0)
(0.0998692 0.000377832 0)
(0.0998804 0.000353658 0)
(0.0998913 0.000330636 0)
(0.0999018 0.000308733 0)
(0.099912 0.000287916 0)
(0.0999217 0.000268152 0)
(0.0999311 0.000249408 0)
(0.09994 0.00023165 0)
(0.0999485 0.000214847 0)
(0.0999567 0.000198967 0)
(0.0999644 0.000183976 0)
(0.0999717 0.000169844 0)
(0.0999787 0.00015654 0)
(0.0999852 0.000144032 0)
(0.0999914 0.000132289 0)
(0.0999971 0.000121282 0)
(0.100003 0.000110982 0)
(0.100008 0.000101358 0)
(0.100012 9.23833e-05 0)
(0.100017 8.40295e-05 0)
(0.100021 7.62696e-05 0)
(0.100024 6.9077e-05 0)
(0.100028 6.24258e-05 0)
(0.100031 5.62913e-05 0)
(0.100034 5.06498e-05 0)
(0.100036 4.54785e-05 0)
(0.100039 4.07552e-05 0)
(0.100041 3.64594e-05 0)
(0.100043 3.25713e-05 0)
(0.100045 2.90729e-05 0)
(0.100046 2.59467e-05 0)
(0.100047 2.31763e-05 0)
(0.100049 2.07472e-05 0)
(0.10005 1.86472e-05 0)
(0.100051 1.68652e-05 0)
(0.100052 1.53939e-05 0)
(0.100053 1.42272e-05 0)
(0.100053 1.3363e-05 0)
(0.100054 1.27998e-05 0)
(0.100055 1.25448e-05 0)
(0.100056 1.26031e-05 0)
(0.100057 1.29959e-05 0)
(0.100058 1.37274e-05 0)
(0.100058 1.48641e-05 0)
(0.10006 1.63484e-05 0)
(0.100061 1.84451e-05 0)
(0.100064 2.07144e-05 0)
(0.100063 2.42978e-05 0)
(0.100072 2.70647e-05 0)
(0.100063 3.34685e-05 0)
(0.100089 3.55277e-05 0)
(0.100056 4.76474e-05 0)
(0.100121 4.64291e-05 0)
(0.10004 6.84397e-05 0)
(0.100172 6.1932e-05 0)
(0.100025 9.48283e-05 0)
(0.100231 8.90431e-05 0)
(0.100039 0.000118662 0)
(0.100286 0.000141452 0)
(0.100116 0.000127884 0)
(0.100335 0.000177366 0)
(0.0997245 0.000683727 0)
(0.0997391 0.000646462 0)
(0.0997535 0.000610667 0)
(0.0997678 0.000576314 0)
(0.0997819 0.000543373 0)
(0.0997957 0.000511812 0)
(0.0998093 0.000481601 0)
(0.0998225 0.000452706 0)
(0.0998355 0.000425095 0)
(0.0998481 0.000398735 0)
(0.0998603 0.000373592 0)
(0.0998721 0.000349633 0)
(0.0998836 0.000326823 0)
(0.0998946 0.000305129 0)
(0.0999053 0.000284517 0)
(0.0999155 0.000264953 0)
(0.0999253 0.000246404 0)
(0.0999346 0.000228836 0)
(0.0999436 0.000212217 0)
(0.0999521 0.000196513 0)
(0.0999602 0.000181694 0)
(0.0999678 0.000167726 0)
(0.099975 0.000154578 0)
(0.0999819 0.00014222 0)
(0.0999883 0.000130619 0)
(0.0999943 0.000119748 0)
(0.1 0.000109575 0)
(0.100005 0.000100073 0)
(0.10001 9.1212e-05 0)
(0.100015 8.29652e-05 0)
(0.100019 7.53055e-05 0)
(0.100023 6.82064e-05 0)
(0.100026 6.16421e-05 0)
(0.10003 5.55882e-05 0)
(0.100033 5.00211e-05 0)
(0.100035 4.49185e-05 0)
(0.100038 4.02579e-05 0)
(0.10004 3.60193e-05 0)
(0.100042 3.2183e-05 0)
(0.100044 2.87311e-05 0)
(0.100046 2.56463e-05 0)
(0.100047 2.29124e-05 0)
(0.100048 2.05151e-05 0)
(0.100049 1.84422e-05 0)
(0.100051 1.6683e-05 0)
(0.100052 1.52299e-05 0)
(0.100052 1.40773e-05 0)
(0.100053 1.32228e-05 0)
(0.100054 1.2665e-05 0)
(0.100055 1.24108e-05 0)
(0.100056 1.24653e-05 0)
(0.100057 1.28492e-05 0)
(0.100058 1.35668e-05 0)
(0.100059 1.46828e-05 0)
(0.10006 1.61423e-05 0)
(0.100061 1.82004e-05 0)
(0.100065 2.04363e-05 0)
(0.100063 2.39457e-05 0)
(0.100073 2.6689e-05 0)
(0.100063 3.29305e-05 0)
(0.10009 3.50393e-05 0)
(0.100057 4.67777e-05 0)
(0.100123 4.58227e-05 0)
(0.100041 6.70003e-05 0)
(0.100174 6.11461e-05 0)
(0.100027 9.24816e-05 0)
(0.100233 8.77968e-05 0)
(0.100042 0.000114936 0)
(0.100285 0.000138452 0)
(0.100122 0.000123272 0)
(0.100331 0.000167633 0)
(0.0997077 0.000677058 0)
(0.0997233 0.000639982 0)
(0.0997387 0.000604389 0)
(0.0997539 0.000570248 0)
(0.0997688 0.000537526 0)
(0.0997835 0.000506191 0)
(0.0997978 0.00047621 0)
(0.0998118 0.000447548 0)
(0.0998254 0.000420171 0)
(0.0998386 0.000394045 0)
(0.0998515 0.000369134 0)
(0.0998639 0.000345405 0)
(0.0998759 0.000322821 0)
(0.0998875 0.00030135 0)
(0.0998986 0.000280956 0)
(0.0999093 0.000261604 0)
(0.0999195 0.000243262 0)
(0.0999293 0.000225894 0)
(0.0999386 0.000209469 0)
(0.0999475 0.000193952 0)
(0.0999559 0.000179312 0)
(0.0999639 0.000165516 0)
(0.0999714 0.000152532 0)
(0.0999786 0.00014033 0)
(0.0999852 0.000128879 0)
(0.0999915 0.000118148 0)
(0.0999974 0.000108109 0)
(0.100003 9.87328e-05 0)
(0.100008 8.99906e-05 0)
(0.100013 8.18552e-05 0)
(0.100017 7.42997e-05 0)
(0.100021 6.72977e-05 0)
(0.100025 6.08237e-05 0)
(0.100028 5.48535e-05 0)
(0.100031 4.93638e-05 0)
(0.100034 4.43323e-05 0)
(0.100037 3.97369e-05 0)
(0.100039 3.55576e-05 0)
(0.100041 3.17751e-05 0)
(0.100043 2.83714e-05 0)
(0.100045 2.53296e-05 0)
(0.100047 2.26336e-05 0)
(0.100048 2.02693e-05 0)
(0.100049 1.82247e-05 0)
(0.10005 1.64892e-05 0)
(0.100051 1.50554e-05 0)
(0.100052 1.39174e-05 0)
(0.100053 1.30732e-05 0)
(0.100054 1.25211e-05 0)
(0.100055 1.2268e-05 0)
(0.100056 1.23189e-05 0)
(0.100057 1.26939e-05 0)
(0.100058 1.33975e-05 0)
(0.100059 1.44924e-05 0)
(0.100061 1.59265e-05 0)
(0.100061 1.79457e-05 0)
(0.100065 2.01469e-05 0)
(0.100064 2.35822e-05 0)
(0.100073 2.6299e-05 0)
(0.100064 3.23797e-05 0)
(0.100091 3.45309e-05 0)
(0.100057 4.58962e-05 0)
(0.100124 4.51859e-05 0)
(0.100042 6.55552e-05 0)
(0.100175 6.03127e-05 0)
(0.100029 9.01513e-05 0)
(0.100234 8.64624e-05 0)
(0.100045 0.000111328 0)
(0.100284 0.000135293 0)
(0.100129 0.000118803 0)
(0.100326 0.000158538 0)
(0.0996911 0.000669947 0)
(0.0997076 0.000633089 0)
(0.099724 0.000597724 0)
(0.09974 0.000563821 0)
(0.0997558 0.000531343 0)
(0.0997713 0.000500258 0)
(0.0997864 0.000470528 0)
(0.0998011 0.000442119 0)
(0.0998154 0.000414995 0)
(0.0998293 0.00038912 0)
(0.0998427 0.000364459 0)
(0.0998557 0.000340975 0)
(0.0998683 0.000318633 0)
(0.0998804 0.000297398 0)
(0.099892 0.000277235 0)
(0.0999032 0.000258108 0)
(0.0999138 0.000239983 0)
(0.099924 0.000222827 0)
(0.0999337 0.000206604 0)
(0.099943 0.000191283 0)
(0.0999517 0.000176831 0)
(0.09996 0.000163214 0)
(0.0999679 0.000150402 0)
(0.0999753 0.000138364 0)
(0.0999822 0.000127067 0)
(0.0999887 0.000116484 0)
(0.0999949 0.000106584 0)
(0.100001 9.73388e-05 0)
(0.100006 8.87198e-05 0)
(0.100011 8.07e-05 0)
(0.100015 7.32526e-05 0)
(0.10002 6.63514e-05 0)
(0.100023 5.99711e-05 0)
(0.100027 5.40877e-05 0)
(0.10003 4.86781e-05 0)
(0.100033 4.37203e-05 0)
(0.100036 3.91925e-05 0)
(0.100038 3.50746e-05 0)
(0.100041 3.13477e-05 0)
(0.100043 2.79941e-05 0)
(0.100044 2.49968e-05 0)
(0.100046 2.23402e-05 0)
(0.100047 2.00102e-05 0)
(0.100049 1.7995e-05 0)
(0.10005 1.62842e-05 0)
(0.100051 1.48703e-05 0)
(0.100052 1.37478e-05 0)
(0.100053 1.29142e-05 0)
(0.100054 1.23683e-05 0)
(0.100055 1.21166e-05 0)
(0.100056 1.21639e-05 0)
(0.100057 1.25301e-05 0)
(0.100058 1.32195e-05 0)
(0.100059 1.42931e-05 0)
(0.100061 1.57013e-05 0)
(0.100062 1.7681e-05 0)
(0.100065 1.98465e-05 0)
(0.100064 2.32073e-05 0)
(0.100074 2.58949e-05 0)
(0.100064 3.18167e-05 0)
(0.100092 3.4003e-05 0)
(0.100058 4.50035e-05 0)
(0.100125 4.45196e-05 0)
(0.100043 6.4105e-05 0)
(0.100177 5.94334e-05 0)
(0.10003 8.78384e-05 0)
(0.100235 8.50462e-05 0)
(0.100048 0.000107828 0)
(0.100283 0.000132009 0)
(0.100134 0.000114477 0)
(0.100322 0.000150036 0)
(0.0996745 0.00066239 0)
(0.0996921 0.00062578 0)
(0.0997093 0.000590672 0)
(0.0997263 0.000557033 0)
(0.0997429 0.000524824 0)
(0.0997592 0.000494011 0)
(0.099775 0.000464555 0)
(0.0997905 0.00043642 0)
(0.0998054 0.000409568 0)
(0.09982 0.000383963 0)
(0.0998341 0.000359567 0)
(0.0998477 0.000336345 0)
(0.0998608 0.00031426 0)
(0.0998734 0.000293275 0)
(0.0998855 0.000273355 0)
(0.0998971 0.000254465 0)
(0.0999082 0.000236569 0)
(0.0999188 0.000219634 0)
(0.0999289 0.000203625 0)
(0.0999385 0.000188508 0)
(0.0999476 0.000174252 0)
(0.0999562 0.000160823 0)
(0.0999643 0.00014819 0)
(0.099972 0.000136321 0)
(0.0999792 0.000125187 0)
(0.099986 0.000114756 0)
(0.0999923 0.000105001 0)
(0.0999982 9.58913e-05 0)
(0.100004 8.74002e-05 0)
(0.100009 7.95003e-05 0)
(0.100014 7.21648e-05 0)
(0.100018 6.5368e-05 0)
(0.100022 5.90847e-05 0)
(0.100026 5.32911e-05 0)
(0.100029 4.79645e-05 0)
(0.100032 4.3083e-05 0)
(0.100035 3.86249e-05 0)
(0.100038 3.45707e-05 0)
(0.10004 3.09014e-05 0)
(0.100042 2.75994e-05 0)
(0.100044 2.46482e-05 0)
(0.100045 2.20324e-05 0)
(0.100047 1.97379e-05 0)
(0.100048 1.77533e-05 0)
(0.10005 1.60681e-05 0)
(0.100051 1.4675e-05 0)
(0.100052 1.35685e-05 0)
(0.100053 1.27462e-05 0)
(0.100054 1.22068e-05 0)
(0.100055 1.19567e-05 0)
(0.100056 1.20006e-05 0)
(0.100057 1.23579e-05 0)
(0.100058 1.30331e-05 0)
(0.100059 1.40851e-05 0)
(0.100061 1.54668e-05 0)
(0.100062 1.74067e-05 0)
(0.100066 1.95352e-05 0)
(0.100064 2.28215e-05 0)
(0.100075 2.54771e-05 0)
(0.100065 3.12417e-05 0)
(0.100092 3.34559e-05 0)
(0.100059 4.40999e-05 0)
(0.100126 4.38245e-05 0)
(0.100044 6.26505e-05 0)
(0.100178 5.85096e-05 0)
(0.100032 8.55435e-05 0)
(0.100236 8.3554e-05 0)
(0.100051 0.000104429 0)
(0.100282 0.000128626 0)
(0.100139 0.000110292 0)
(0.100318 0.000142084 0)
(0.0996581 0.000654388 0)
(0.0996766 0.000618055 0)
(0.0996948 0.000583233 0)
(0.0997127 0.000549884 0)
(0.0997301 0.00051797 0)
(0.0997472 0.000487452 0)
(0.0997638 0.000458291 0)
(0.09978 0.00043045 0)
(0.0997956 0.00040389 0)
(0.0998108 0.000378573 0)
(0.0998255 0.00035446 0)
(0.0998397 0.000331516 0)
(0.0998533 0.000309701 0)
(0.0998664 0.000288981 0)
(0.099879 0.000269318 0)
(0.0998911 0.000250676 0)
(0.0999026 0.000233021 0)
(0.0999136 0.000216317 0)
(0.0999241 0.000200531 0)
(0.0999341 0.000185628 0)
(0.0999435 0.000171576 0)
(0.0999524 0.000158343 0)
(0.0999609 0.000145896 0)
(0.0999688 0.000134204 0)
(0.0999763 0.000123237 0)
(0.0999833 0.000112966 0)
(0.0999899 0.00010336 0)
(0.099996 9.43912e-05 0)
(0.100002 8.60325e-05 0)
(0.100007 7.82566e-05 0)
(0.100012 7.1037e-05 0)
(0.100016 6.43481e-05 0)
(0.100021 5.8165e-05 0)
(0.100024 5.24643e-05 0)
(0.100028 4.72234e-05 0)
(0.100031 4.24206e-05 0)
(0.100034 3.80347e-05 0)
(0.100037 3.40461e-05 0)
(0.100039 3.04362e-05 0)
(0.100041 2.71877e-05 0)
(0.100043 2.42841e-05 0)
(0.100045 2.17104e-05 0)
(0.100047 1.94526e-05 0)
(0.100048 1.74996e-05 0)
(0.100049 1.5841e-05 0)
(0.100051 1.44695e-05 0)
(0.100052 1.33796e-05 0)
(0.100053 1.25691e-05 0)
(0.100054 1.20367e-05 0)
(0.100055 1.17885e-05 0)
(0.100056 1.18291e-05 0)
(0.100057 1.21775e-05 0)
(0.100058 1.28382e-05 0)
(0.100059 1.38684e-05 0)
(0.100061 1.52233e-05 0)
(0.100062 1.71228e-05 0)
(0.100066 1.92132e-05 0)
(0.100065 2.24248e-05 0)
(0.100075 2.50458e-05 0)
(0.100065 3.06551e-05 0)
(0.100093 3.28901e-05 0)
(0.100059 4.3186e-05 0)
(0.100127 4.31013e-05 0)
(0.100045 6.11925e-05 0)
(0.10018 5.75429e-05 0)
(0.100033 8.32673e-05 0)
(0.100237 8.19918e-05 0)
(0.100054 0.000101124 0)
(0.100281 0.000125169 0)
(0.100144 0.000106244 0)
(0.100314 0.000134645 0)
(0.0996418 0.000645939 0)
(0.0996613 0.000609915 0)
(0.0996804 0.000575406 0)
(0.0996992 0.000542375 0)
(0.0997175 0.00051078 0)
(0.0997353 0.000480581 0)
(0.0997527 0.000451739 0)
(0.0997696 0.000424213 0)
(0.0997859 0.000397964 0)
(0.0998018 0.000372952 0)
(0.0998171 0.00034914 0)
(0.0998318 0.000326489 0)
(0.099846 0.00030496 0)
(0.0998596 0.000284518 0)
(0.0998727 0.000265124 0)
(0.0998852 0.000246743 0)
(0.0998972 0.000229339 0)
(0.0999086 0.000212878 0)
(0.0999194 0.000197324 0)
(0.0999297 0.000182644 0)
(0.0999395 0.000168805 0)
(0.0999487 0.000155775 0)