/*--------------------------------*- C++ -*----------------------------------*\
| =========                 |                                                 |
| \\      /  F ield         | OpenFOAM: The Open Source CFD Toolbox           |
|  \\    /   O peration     | Version:  2412                                  |
|   \\  /    A nd           | Website:  www.openfoam.com                      |
|    \\/     M anipulation  |                                                 |
\*---------------------------------------------------------------------------*/
FoamFile
{
    version     2.0;
    format      ascii;
    arch        "LSB;label=32;scalar=64";
    class       volVectorField;
    location    "14.5";
    object      U;
}
// * * * * * * * * * * * * * * * * * * * * * * * * * * * * * * * * * * * * * //

dimensions      [0 1 -1 0 0 0 0];

internalField   nonuniform List<vector> 
5285
(
(0.101677 0.0042467 0)
(0.101578 0.00419123 0)
(0.101481 0.00413313 0)
(0.101385 0.00407248 0)
(0.101293 0.00400939 0)
(0.101202 0.00394395 0)
(0.101114 0.0038763 0)
(0.101029 0.00380655 0)
(0.100946 0.00373485 0)
(0.100867 0.00366133 0)
(0.10079 0.00358615 0)
(0.100716 0.00350947 0)
(0.100645 0.00343144 0)
(0.100577 0.00335223 0)
(0.100512 0.00327201 0)
(0.10045 0.00319094 0)
(0.100392 0.00310918 0)
(0.100337 0.00302689 0)
(0.100284 0.00294424 0)
(0.100235 0.00286138 0)
(0.100189 0.00277846 0)
(0.100146 0.00269562 0)
(0.100107 0.00261301 0)
(0.10007 0.00253078 0)
(0.100036 0.00244906 0)
(0.100005 0.002368 0)
(0.0999774 0.00228771 0)
(0.0999522 0.00220832 0)
(0.0999296 0.00212991 0)
(0.0999097 0.00205259 0)
(0.0998922 0.00197639 0)
(0.099877 0.00190138 0)
(0.0998641 0.0018276 0)
(0.0998533 0.00175509 0)
(0.0998444 0.00168388 0)
(0.0998373 0.00161402 0)
(0.0998319 0.00154556 0)
(0.0998281 0.00147855 0)
(0.0998257 0.00141303 0)
(0.0998247 0.00134907 0)
(0.0998248 0.00128669 0)
(0.0998261 0.00122595 0)
(0.0998283 0.00116689 0)
(0.0998314 0.00110952 0)
(0.101619 0.00435325 0)
(0.101517 0.00429356 0)
(0.101419 0.00423122 0)
(0.101322 0.00416635 0)
(0.101228 0.00409904 0)
(0.101137 0.00402942 0)
(0.101048 0.0039576 0)
(0.100962 0.00388374 0)
(0.100879 0.00380796 0)
(0.100799 0.00373043 0)
(0.100722 0.00365131 0)
(0.100649 0.00357076 0)
(0.100578 0.00348896 0)
(0.10051 0.00340606 0)
(0.100446 0.00332224 0)
(0.100385 0.00323768 0)
(0.100328 0.00315255 0)
(0.100273 0.003067 0)
(0.100222 0.0029812 0)
(0.100174 0.00289531 0)
(0.100129 0.00280948 0)
(0.100088 0.00272386 0)
(0.100049 0.0026386 0)
(0.100014 0.00255383 0)
(0.099982 0.00246971 0)
(0.0999527 0.00238638 0)
(0.0999263 0.00230395 0)
(0.0999028 0.00222255 0)
(0.0998819 0.00214227 0)
(0.0998636 0.0020632 0)
(0.0998478 0.0019854 0)
(0.0998344 0.00190892 0)
(0.0998232 0.00183379 0)
(0.099814 0.00176005 0)
(0.0998068 0.00168773 0)
(0.0998014 0.00161688 0)
(0.0997976 0.00154753 0)
(0.0997954 0.00147972 0)
(0.0997946 0.00141351 0)
(0.0997951 0.00134892 0)
(0.0997968 0.00128601 0)
(0.0997995 0.00122481 0)
(0.0998031 0.00116535 0)
(0.0998076 0.00110765 0)
(0.101555 0.00446171 0)
(0.101453 0.00439755 0)
(0.101352 0.00433074 0)
(0.101255 0.00426141 0)
(0.10116 0.00418968 0)
(0.101067 0.00411565 0)
(0.100978 0.00403948 0)
(0.100892 0.00396131 0)
(0.100809 0.00388129 0)
(0.100729 0.00379959 0)
(0.100652 0.00371638 0)
(0.100578 0.00363183 0)
(0.100508 0.00354612 0)
(0.100441 0.00345942 0)
(0.100378 0.00337191 0)
(0.100317 0.00328377 0)
(0.100261 0.00319518 0)
(0.100207 0.00310629 0)
(0.100157 0.00301729 0)
(0.100111 0.00292832 0)
(0.100067 0.00283954 0)
(0.100027 0.00275111 0)
(0.0999906 0.00266316 0)
(0.0999569 0.00257585 0)
(0.0999263 0.00248932 0)
(0.0998988 0.0024037 0)
(0.0998741 0.00231914 0)
(0.0998523 0.00223573 0)
(0.0998332 0.00215359 0)
(0.0998167 0.0020728 0)
(0.0998026 0.00199341 0)
(0.099791 0.00191546 0)
(0.0997815 0.00183901 0)
(0.0997741 0.00176407 0)
(0.0997686 0.00169067 0)
(0.0997649 0.00161885 0)
(0.0997628 0.00154864 0)
(0.0997622 0.00148008 0)
(0.0997631 0.0014132 0)
(0.0997651 0.00134803 0)
(0.0997683 0.00128462 0)
(0.0997725 0.00122299 0)
(0.0997776 0.00116316 0)
(0.0997835 0.00110517 0)
(0.101488 0.00457201 0)
(0.101383 0.00450311 0)
(0.101282 0.00443159 0)
(0.101183 0.00435756 0)
(0.101087 0.00428117 0)
(0.100994 0.00420253 0)
(0.100904 0.0041218 0)
(0.100818 0.00403914 0)
(0.100734 0.0039547 0)
(0.100654 0.00386867 0)
(0.100578 0.00378123 0)
(0.100504 0.00369254 0)
(0.100435 0.0036028 0)
(0.100369 0.00351219 0)
(0.100306 0.00342089 0)
(0.100247 0.00332909 0)
(0.100191 0.00323696 0)
(0.100139 0.00314467 0)
(0.100091 0.00305241 0)
(0.100045 0.00296031 0)
(0.100004 0.00286855 0)
(0.0999652 0.00277727 0)
(0.0999301 0.00268662 0)
(0.0998981 0.00259675 0)
(0.0998693 0.0025078 0)
(0.0998435 0.00241991 0)
(0.0998207 0.00233321 0)
(0.0998007 0.00224781 0)
(0.0997834 0.00216382 0)
(0.0997688 0.00208132 0)
(0.0997566 0.00200036 0)
(0.0997467 0.00192099 0)
(0.0997391 0.00184323 0)
(0.0997335 0.00176712 0)
(0.0997298 0.00169268 0)
(0.0997278 0.00161993 0)
(0.0997275 0.00154889 0)
(0.0997286 0.0014796 0)
(0.0997311 0.00141209 0)
(0.0997347 0.00134638 0)
(0.0997395 0.0012825 0)
(0.0997452 0.00122048 0)
(0.0997518 0.00116032 0)
(0.0997591 0.00110205 0)
(0.101415 0.00468403 0)
(0.101309 0.00461013 0)
(0.101206 0.00453363 0)
(0.101106 0.00445467 0)
(0.10101 0.00437339 0)
(0.100916 0.00428993 0)
(0.100826 0.00420444 0)
(0.100739 0.00411709 0)
(0.100656 0.00402807 0)
(0.100576 0.00393755 0)
(0.1005 0.00384571 0)
(0.100427 0.00375275 0)
(0.100359 0.00365887 0)
(0.100293 0.00356423 0)
(0.100232 0.00346905 0)
(0.100174 0.0033735 0)
(0.100119 0.00327777 0)
(0.100069 0.00318202 0)
(0.100022 0.00308644 0)
(0.0999781 0.00299119 0)
(0.0999379 0.00289641 0)
(0.0999012 0.00280226 0)
(0.0998678 0.0027089 0)
(0.0998377 0.00261645 0)
(0.0998108 0.00252508 0)
(0.0997869 0.00243492 0)
(0.099766 0.00234609 0)
(0.0997479 0.00225872 0)
(0.0997326 0.0021729 0)
(0.0997199 0.00208871 0)
(0.0997097 0.00200621 0)
(0.0997018 0.00192544 0)
(0.099696 0.00184642 0)
(0.0996923 0.00176918 0)
(0.0996904 0.00169372 0)
(0.0996903 0.00162007 0)
(0.0996917 0.00154825 0)
(0.0996945 0.00147827 0)
(0.0996987 0.00141016 0)
(0.099704 0.00134394 0)
(0.0997103 0.00127964 0)
(0.0997176 0.00121725 0)
(0.0997257 0.00115681 0)
(0.0997344 0.00109831 0)
(0.101337 0.00479764 0)
(0.10123 0.00471848 0)
(0.101126 0.00463674 0)
(0.101025 0.0045526 0)
(0.100928 0.0044662 0)
(0.100834 0.00437769 0)
(0.100743 0.00428723 0)
(0.100657 0.00419502 0)
(0.100574 0.00410123 0)
(0.100494 0.00400605 0)
(0.100419 0.00390969 0)
(0.100347 0.00381233 0)
(0.100279 0.00371418 0)
(0.100215 0.00361542 0)
(0.100154 0.00351626 0)
(0.100098 0.00341689 0)
(0.100045 0.00331748 0)
(0.0999958 0.00321822 0)
(0.0999503 0.00311929 0)
(0.0999085 0.00302083 0)
(0.0998702 0.00292301 0)
(0.0998353 0.00282598 0)
(0.0998039 0.00272989 0)
(0.0997757 0.00263487 0)
(0.0997508 0.00254109 0)
(0.0997289 0.00244866 0)
(0.0997101 0.00235773 0)
(0.0996941 0.0022684 0)
(0.0996808 0.00218078 0)
(0.0996701 0.00209493 0)
(0.0996619 0.00201093 0)
(0.099656 0.00192879 0)
(0.0996522 0.00184854 0)
(0.0996504 0.0017702 0)
(0.0996505 0.00169377 0)
(0.0996522 0.00161926 0)
(0.0996554 0.00154669 0)
(0.09966 0.00147606 0)
(0.0996659 0.0014074 0)
(0.0996729 0.00134072 0)
(0.0996809 0.00127602 0)
(0.0996897 0.00121332 0)
(0.0996993 0.00115261 0)
(0.0997095 0.00109392 0)
(0.101253 0.00491271 0)
(0.101145 0.00482799 0)
(0.10104 0.00474076 0)
(0.100938 0.00465118 0)
(0.100841 0.00455942 0)
(0.100746 0.00446564 0)
(0.100656 0.00437002 0)
(0.100569 0.00427275 0)
(0.100487 0.00417402 0)
(0.100408 0.00407403 0)
(0.100333 0.003973 0)
(0.100263 0.00387111 0)
(0.100196 0.00376858 0)
(0.100133 0.0036656 0)
(0.100074 0.00356238 0)
(0.100019 0.0034591 0)
(0.0999676 0.00335597 0)
(0.0999202 0.00325314 0)
(0.0998766 0.00315081 0)
(0.0998367 0.00304913 0)
(0.0998003 0.00294825 0)
(0.0997675 0.00284832 0)
(0.0997382 0.0027495 0)
(0.0997121 0.00265192 0)
(0.0996893 0.00255573 0)
(0.0996696 0.00246106 0)
(0.0996529 0.00236804 0)
(0.0996391 0.00227678 0)
(0.099628 0.00218739 0)
(0.0996194 0.00209993 0)
(0.0996133 0.00201445 0)
(0.0996095 0.00193098 0)
(0.0996078 0.00184955 0)
(0.099608 0.00177015 0)
(0.09961 0.00169279 0)
(0.0996136 0.00161747 0)
(0.0996187 0.00154419 0)
(0.0996252 0.00147296 0)
(0.0996328 0.00140379 0)
(0.0996415 0.00133668 0)
(0.0996511 0.00127163 0)
(0.0996616 0.00120865 0)
(0.0996727 0.00114773 0)
(0.0996844 0.00108888 0)
(0.101163 0.00502906 0)
(0.101054 0.0049385 0)
(0.100948 0.0048455 0)
(0.100846 0.00475023 0)
(0.100748 0.00465288 0)
(0.100654 0.00455361 0)
(0.100564 0.00445262 0)
(0.100478 0.0043501 0)
(0.100396 0.00424626 0)
(0.100318 0.00414131 0)
(0.100244 0.00403546 0)
(0.100174 0.00392892 0)
(0.100109 0.0038219 0)
(0.100047 0.0037146 0)
(0.0999902 0.00360724 0)
(0.0999368 0.0035 0)
(0.0998875 0.00339308 0)
(0.0998421 0.00328665 0)
(0.0998005 0.00318089 0)
(0.0997626 0.00307596 0)
(0.0997284 0.00297201 0)
(0.0996978 0.00286918 0)
(0.0996707 0.00276763 0)
(0.0996469 0.0026675 0)
(0.0996264 0.00256892 0)
(0.099609 0.00247203 0)
(0.0995946 0.00237695 0)
(0.099583 0.0022838 0)
(0.0995741 0.00219267 0)
(0.0995678 0.00210363 0)
(0.0995639 0.00201673 0)
(0.0995622 0.00193198 0)
(0.0995626 0.00184941 0)
(0.0995649 0.001769 0)
(0.0995689 0.00169075 0)
(0.0995745 0.00161467 0)
(0.0995816 0.00154073 0)
(0.0995899 0.00146894 0)
(0.0995993 0.0013993 0)
(0.0996098 0.00133181 0)
(0.0996211 0.00126646 0)
(0.0996332 0.00120324 0)
(0.0996459 0.00114215 0)
(0.0996591 0.00108318 0)
(0.101067 0.0051465 0)
(0.100957 0.00504981 0)
(0.100851 0.00495076 0)
(0.100748 0.00484955 0)
(0.10065 0.00474637 0)
(0.100556 0.00464138 0)
(0.100467 0.00453481 0)
(0.100381 0.00442686 0)
(0.1003 0.00431774 0)
(0.100223 0.00420768 0)
(0.100151 0.00409688 0)
(0.100082 0.00398557 0)
(0.100018 0.00387396 0)
(0.0999587 0.00376226 0)
(0.0999032 0.00365069 0)
(0.0998519 0.00353943 0)
(0.0998046 0.00342867 0)
(0.0997612 0.0033186 0)
(0.0997219 0.00320939 0)
(0.0996863 0.0031012 0)
(0.0996544 0.00299417 0)
(0.0996262 0.00288845 0)
(0.0996014 0.00278419 0)
(0.09958 0.00268152 0)
(0.0995619 0.00258058 0)
(0.0995469 0.00248149 0)
(0.0995349 0.0023844 0)
(0.0995258 0.00228939 0)
(0.0995193 0.00219657 0)
(0.0995153 0.002106 0)
(0.0995137 0.00201771 0)
(0.0995142 0.00193174 0)
(0.0995168 0.00184807 0)
(0.0995213 0.00176671 0)
(0.0995274 0.00168763 0)
(0.099535 0.00161082 0)
(0.099544 0.00153628 0)
(0.0995542 0.00146398 0)
(0.0995655 0.00139393 0)
(0.0995778 0.0013261 0)
(0.0995908 0.00126048 0)
(0.0996045 0.00119708 0)
(0.0996188 0.00113585 0)
(0.0996336 0.00107681 0)
(0.100964 0.00526481 0)
(0.100853 0.0051617 0)
(0.100747 0.00505633 0)
(0.100645 0.00494891 0)
(0.100547 0.00483965 0)
(0.100453 0.00472874 0)
(0.100364 0.00461639 0)
(0.10028 0.00450282 0)
(0.1002 0.00438826 0)
(0.100124 0.00427293 0)
(0.100053 0.00415706 0)
(0.0999864 0.00404087 0)
(0.0999242 0.00392458 0)
(0.0998664 0.0038084 0)
(0.099813 0.00369255 0)
(0.0997638 0.00357721 0)
(0.0997187 0.00346259 0)
(0.0996777 0.00334885 0)
(0.0996408 0.00323618 0)
(0.0996076 0.00312471 0)
(0.0995783 0.00301461 0)
(0.0995526 0.00290602 0)
(0.0995304 0.00279906 0)
(0.0995116 0.00269388 0)
(0.099496 0.0025906 0)
(0.0994836 0.00248937 0)
(0.0994741 0.00239029 0)
(0.0994674 0.00229348 0)
(0.0994634 0.00219902 0)
(0.0994619 0.00210696 0)
(0.0994627 0.00201735 0)
(0.0994656 0.0019302 0)
(0.0994704 0.0018455 0)
(0.0994771 0.00176323 0)
(0.0994853 0.00168338 0)
(0.0994951 0.00160591 0)
(0.0995061 0.00153081 0)
(0.0995183 0.00145806 0)
(0.0995315 0.00138764 0)
(0.0995455 0.00131952 0)
(0.0995603 0.0012537 0)
(0.0995757 0.00119015 0)
(0.0995916 0.00112884 0)
(0.0996079 0.00106976 0)
(0.100854 0.00538374 0)
(0.100743 0.00527391 0)
(0.100636 0.00516194 0)
(0.100534 0.00504806 0)
(0.100437 0.00493249 0)
(0.100344 0.00481543 0)
(0.100256 0.0046971 0)
(0.100173 0.00457774 0)
(0.100094 0.00445758 0)
(0.10002 0.00433685 0)
(0.0999509 0.00421579 0)
(0.0998862 0.00409461 0)
(0.0998261 0.00397355 0)
(0.0997705 0.00385282 0)
(0.0997193 0.00373263 0)
(0.0996725 0.00361318 0)
(0.09963 0.00349466 0)
(0.0995915 0.00337724 0)
(0.0995572 0.0032611 0)
(0.0995267 0.00314637 0)
(0.0995 0.00303321 0)
(0.099477 0.00292175 0)
(0.0994575 0.00281213 0)
(0.0994415 0.00270447 0)
(0.0994286 0.00259891 0)
(0.0994189 0.00249557 0)
(0.0994121 0.00239456 0)
(0.099408 0.00229599 0)
(0.0994066 0.00219994 0)
(0.0994076 0.00210647 0)
(0.0994109 0.0020156 0)
(0.0994162 0.00192733 0)
(0.0994234 0.00184165 0)
(0.0994324 0.00175854 0)
(0.0994428 0.00167797 0)
(0.0994547 0.0015999 0)
(0.0994678 0.00152431 0)
(0.099482 0.00145115 0)
(0.0994971 0.00138042 0)
(0.0995131 0.00131207 0)
(0.0995296 0.00124609 0)
(0.0995468 0.00118244 0)
(0.0995643 0.00112109 0)
(0.0995822 0.00106202 0)
(0.100737 0.00550302 0)
(0.100626 0.00538617 0)
(0.100519 0.00526732 0)
(0.100418 0.00514672 0)
(0.100321 0.0050246 0)
(0.100229 0.00490118 0)
(0.100143 0.00477669 0)
(0.100061 0.00465136 0)
(0.0999838 0.00452545 0)
(0.0999116 0.00439919 0)
(0.0998444 0.00427282 0)
(0.0997818 0.00414656 0)
(0.0997241 0.00402066 0)
(0.0996709 0.00389532 0)
(0.0996223 0.00377075 0)
(0.0995781 0.00364716 0)
(0.0995382 0.00352472 0)
(0.0995026 0.00340361 0)
(0.099471 0.003284 0)
(0.0994434 0.00316603 0)
(0.0994196 0.00304983 0)
(0.0993995 0.00293554 0)
(0.099383 0.00282329 0)
(0.0993698 0.0027132 0)
(0.0993598 0.0026054 0)
(0.0993529 0.0025 0)
(0.0993489 0.00239712 0)
(0.0993476 0.00229686 0)
(0.0993489 0.00219929 0)
(0.0993525 0.00210446 0)
(0.0993584 0.00201238 0)
(0.0993662 0.00192307 0)
(0.0993759 0.00183648 0)
(0.0993872 0.0017526 0)
(0.0994 0.00167138 0)
(0.099414 0.00159277 0)
(0.0994293 0.00151673 0)
(0.0994455 0.00144324 0)
(0.0994626 0.00137225 0)
(0.0994804 0.00130372 0)
(0.0994988 0.00123763 0)
(0.0995177 0.00117394 0)
(0.0995369 0.0011126 0)
(0.0995564 0.00105359 0)
(0.100612 0.00562236 0)
(0.100501 0.00549818 0)
(0.100395 0.00537217 0)
(0.100294 0.0052446 0)
(0.100199 0.0051157 0)
(0.100109 0.00498571 0)
(0.100023 0.00485486 0)
(0.0999432 0.00472341 0)
(0.0998682 0.00459161 0)
(0.0997982 0.00445969 0)
(0.0997332 0.00432791 0)
(0.0996732 0.0041965 0)
(0.099618 0.00406568 0)
(0.0995676 0.00393568 0)
(0.0995218 0.0038067 0)
(0.0994805 0.00367894 0)
(0.0994436 0.00355258 0)
(0.099411 0.0034278 0)
(0.0993824 0.00330473 0)
(0.0993579 0.00318354 0)
(0.0993372 0.00306434 0)
(0.0993202 0.00294726 0)
(0.0993067 0.00283243 0)
(0.0992965 0.00271996 0)
(0.0992896 0.00260997 0)
(0.0992856 0.00250258 0)
(0.0992846 0.0023979 0)
(0.0992862 0.00229601 0)
(0.0992903 0.00219698 0)
(0.0992967 0.00210086 0)
(0.0993052 0.00200766 0)
(0.0993156 0.00191737 0)
(0.0993278 0.00182995 0)
(0.0993416 0.00174536 0)
(0.0993567 0.00166355 0)
(0.0993731 0.00158447 0)
(0.0993905 0.00150807 0)
(0.0994088 0.0014343 0)
(0.0994279 0.00136311 0)
(0.0994477 0.00129447 0)
(0.0994679 0.00122832 0)
(0.0994885 0.00116463 0)
(0.0995095 0.00110336 0)
(0.0995305 0.00104445 0)
(0.100479 0.0057414 0)
(0.100368 0.0056096 0)
(0.100264 0.00547616 0)
(0.100164 0.00534136 0)
(0.10007 0.00520546 0)
(0.0999813 0.00506869 0)
(0.099898 0.00493132 0)
(0.09982 0.00479359 0)
(0.0997473 0.00465576 0)
(0.0996798 0.00451808 0)
(0.0996175 0.0043808 0)
(0.0995602 0.00424415 0)
(0.0995079 0.00410837 0)
(0.0994605 0.00397368 0)
(0.0994178 0.00384027 0)
(0.0993797 0.00370834 0)
(0.099346 0.00357807 0)
(0.0993166 0.00344961 0)
(0.0992914 0.00332313 0)
(0.0992701 0.00319875 0)
(0.0992527 0.00307659 0)
(0.0992389 0.00295678 0)
(0.0992287 0.00283942 0)
(0.0992217 0.00272463 0)
(0.099218 0.00261253 0)
(0.0992172 0.00250322 0)
(0.0992192 0.0023968 0)
(0.0992238 0.00229336 0)
(0.0992308 0.00219296 0)
(0.0992401 0.00209563 0)
(0.0992514 0.00200138 0)
(0.0992645 0.00191019 0)
(0.0992793 0.00182201 0)
(0.0992955 0.00173679 0)
(0.0993131 0.00165447 0)
(0.0993318 0.00157499 0)
(0.0993515 0.00149828 0)
(0.0993719 0.0014243 0)
(0.0993931 0.00135298 0)
(0.0994148 0.00128428 0)
(0.0994369 0.00121814 0)
(0.0994594 0.00115452 0)
(0.099482 0.00109336 0)
(0.0995047 0.00103461 0)
(0.100337 0.0058598 0)
(0.100228 0.00572006 0)
(0.100124 0.00557892 0)
(0.100027 0.00543665 0)
(0.0999342 0.00529353 0)
(0.0998476 0.0051498 0)
(0.0997665 0.00500572 0)
(0.099691 0.00486157 0)
(0.099621 0.00471759 0)
(0.0995563 0.00457406 0)
(0.099497 0.0044312 0)
(0.0994429 0.00428927 0)
(0.0993938 0.00414849 0)
(0.0993497 0.00400907 0)
(0.0993103 0.00387123 0)
(0.0992756 0.00373514 0)
(0.0992454 0.00360097 0)
(0.0992196 0.00346889 0)
(0.0991978 0.00333903 0)
(0.0991801 0.00321151 0)
(0.0991662 0.00308645 0)
(0.0991559 0.00296397 0)
(0.0991491 0.00284415 0)
(0.0991455 0.00272712 0)
(0.0991451 0.00261298 0)
(0.0991476 0.00250182 0)
(0.0991528 0.00239375 0)
(0.0991605 0.00228884 0)
(0.0991706 0.00218715 0)
(0.0991828 0.0020887 0)
(0.099197 0.00199348 0)
(0.0992129 0.00190147 0)
(0.0992304 0.00181262 0)
(0.0992492 0.00172685 0)
(0.0992693 0.0016441 0)
(0.0992903 0.00156429 0)
(0.0993123 0.00148736 0)
(0.099335 0.00141323 0)
(0.0993582 0.00134185 0)
(0.0993819 0.00127316 0)
(0.0994059 0.00120708 0)
(0.0994302 0.00114358 0)
(0.0994545 0.00108259 0)
(0.0994789 0.00102404 0)
(0.100187 0.00597712 0)
(0.100079 0.00582917 0)
(0.0999774 0.00568005 0)
(0.0998815 0.00553008 0)
(0.0997914 0.00537953 0)
(0.0997072 0.00522865 0)
(0.0996288 0.00507772 0)
(0.0995562 0.00492702 0)
(0.0994892 0.00477679 0)
(0.0994278 0.00462731 0)
(0.0993718 0.00447883 0)
(0.0993211 0.00433157 0)
(0.0992756 0.00418576 0)
(0.0992351 0.00404163 0)
(0.0991994 0.00389935 0)
(0.0991685 0.00375913 0)
(0.099142 0.0036211 0)
(0.0991199 0.00348544 0)
(0.0991019 0.00335225 0)
(0.0990879 0.00322166 0)
(0.0990777 0.00309377 0)
(0.0990711 0.00296869 0)
(0.0990679 0.0028465 0)
(0.0990679 0.00272731 0)
(0.0990709 0.00261121 0)
(0.0990768 0.0024983 0)
(0.0990854 0.00238867 0)
(0.0990964 0.00228238 0)
(0.0991096 0.00217949 0)
(0.0991249 0.00208 0)
(0.0991421 0.00198391 0)
(0.0991609 0.00189118 0)
(0.0991811 0.00180173 0)
(0.0992026 0.0017155 0)
(0.0992252 0.0016324 0)
(0.0992487 0.00155235 0)
(0.099273 0.00147526 0)
(0.0992979 0.00140107 0)
(0.0993233 0.0013297 0)
(0.099349 0.00126107 0)
(0.099375 0.00119513 0)
(0.099401 0.00113181 0)
(0.0994271 0.00107104 0)
(0.0994532 0.00101276 0)
(0.100028 0.00609294 0)
(0.0999221 0.00593648 0)
(0.0998223 0.00577913 0)
(0.0997287 0.00562123 0)
(0.0996413 0.00546305 0)
(0.09956 0.00530486 0)
(0.0994847 0.00514694 0)
(0.0994154 0.00498957 0)
(0.0993519 0.00483301 0)
(0.099294 0.00467753 0)
(0.0992418 0.00452336 0)
(0.0991949 0.00437075 0)
(0.0991533 0.00421992 0)
(0.0991167 0.00407108 0)
(0.0990851 0.00392441 0)
(0.0990581 0.00378008 0)
(0.0990357 0.00363826 0)
(0.0990176 0.00349906 0)
(0.0990036 0.00336263 0)
(0.0989936 0.00322904 0)
(0.0989873 0.00309841 0)
(0.0989845 0.00297081 0)
(0.0989851 0.00284634 0)
(0.0989889 0.00272508 0)
(0.0989956 0.00260713 0)
(0.0990051 0.00249256 0)
(0.0990171 0.00238147 0)
(0.0990315 0.0022739 0)
(0.099048 0.00216991 0)
(0.0990665 0.00206949 0)
(0.0990867 0.00197262 0)
(0.0991084 0.00187926 0)
(0.0991315 0.00178931 0)
(0.0991557 0.00170271 0)
(0.0991809 0.00161935 0)
(0.099207 0.00153913 0)
(0.0992336 0.00146198 0)
(0.0992608 0.00138779 0)
(0.0992883 0.0013165 0)
(0.0993161 0.00124802 0)
(0.099344 0.00118228 0)
(0.099372 0.0011192 0)
(0.0993998 0.00105871 0)
(0.0994275 0.00100074 0)
(0.0998597 0.00620678 0)
(0.099756 0.00604153 0)
(0.0996589 0.00587571 0)
(0.0995682 0.00570966 0)
(0.0994839 0.00554367 0)
(0.0994059 0.00537802 0)
(0.0993342 0.00521298 0)
(0.0992686 0.00504885 0)
(0.0992089 0.00488589 0)
(0.0991551 0.00472435 0)
(0.0991069 0.00456449 0)
(0.0990643 0.00440653 0)
(0.0990269 0.00425069 0)
(0.0989947 0.00409716 0)
(0.0989673 0.00394614 0)
(0.0989447 0.00379778 0)
(0.0989266 0.00365222 0)
(0.0989128 0.00350958 0)
(0.0989031 0.00336998 0)
(0.0988972 0.00323349 0)
(0.0988951 0.00310021 0)
(0.0988964 0.00297021 0)
(0.098901 0.00284356 0)
(0.0989087 0.00272034 0)
(0.0989192 0.00260063 0)
(0.0989324 0.00248452 0)
(0.098948 0.00237207 0)
(0.0989659 0.00226333 0)
(0.0989858 0.00215834 0)
(0.0990076 0.0020571 0)
(0.0990309 0.00195956 0)
(0.0990557 0.00186566 0)
(0.0990817 0.00177532 0)
(0.0991087 0.00168844 0)
(0.0991366 0.00160491 0)
(0.0991651 0.00152462 0)
(0.0991942 0.00144748 0)
(0.0992237 0.00137339 0)
(0.0992535 0.00130225 0)
(0.0992833 0.00123399 0)
(0.0993132 0.00116851 0)
(0.099343 0.00110573 0)
(0.0993727 0.00104559 0)
(0.099402 0.000987996 0)
(0.0996817 0.0063181 0)
(0.0995809 0.00614378 0)
(0.0994869 0.00596925 0)
(0.0993996 0.00579486 0)
(0.0993189 0.0056209 0)
(0.0992448 0.00544765 0)
(0.0991771 0.00527541 0)
(0.0991157 0.00510444 0)
(0.0990603 0.00493503 0)
(0.099011 0.00476741 0)
(0.0989673 0.00460185 0)
(0.0989292 0.00443856 0)
(0.0988965 0.00427774 0)
(0.0988689 0.0041196 0)
(0.0988462 0.00396429 0)
(0.0988283 0.00381197 0)
(0.0988148 0.00366277 0)
(0.0988055 0.00351679 0)
(0.0988003 0.00337412 0)
(0.0987989 0.00323485 0)
(0.0988011 0.00309903 0)
(0.0988067 0.00296673 0)
(0.0988155 0.00283802 0)
(0.0988272 0.00271296 0)
(0.0988417 0.00259162 0)
(0.0988588 0.00247407 0)
(0.0988782 0.00236038 0)
(0.0988997 0.0022506 0)
(0.0989231 0.00214473 0)
(0.0989482 0.00204277 0)
(0.0989748 0.00194466 0)
(0.0990027 0.00185035 0)
(0.0990317 0.00175971 0)
(0.0990616 0.00167266 0)
(0.0990922 0.00158905 0)
(0.0991233 0.00150879 0)
(0.0991549 0.00143175 0)
(0.0991867 0.00135783 0)
(0.0992187 0.00128694 0)
(0.0992507 0.00121896 0)
(0.0992825 0.00115382 0)
(0.0993142 0.00109142 0)
(0.0993457 0.00103167 0)
(0.0993767 0.000974513 0)
(0.0994939 0.00642629 0)
(0.0993965 0.00624267 0)
(0.0993062 0.00605922 0)
(0.0992228 0.00587631 0)
(0.0991463 0.00569424 0)
(0.0990766 0.00551329 0)
(0.0990134 0.00533375 0)
(0.0989566 0.0051559 0)
(0.0989061 0.00498002 0)
(0.0988616 0.00480633 0)
(0.0988229 0.00463509 0)
(0.0987898 0.00446651 0)
(0.0987621 0.00430079 0)
(0.0987396 0.0041381 0)
(0.0987219 0.0039786 0)
(0.0987089 0.00382243 0)
(0.0987003 0.00366969 0)
(0.0986959 0.00352048 0)
(0.0986954 0.00337487 0)
(0.0986987 0.00323293 0)
(0.0987055 0.00309471 0)
(0.0987156 0.00296025 0)
(0.0987287 0.00282961 0)
(0.0987447 0.00270283 0)
(0.0987633 0.00257999 0)
(0.0987844 0.00246114 0)
(0.0988076 0.00234634 0)
(0.0988329 0.00223563 0)
(0.0988599 0.002129 0)
(0.0988885 0.00202644 0)
(0.0989185 0.0019279 0)
(0.0989496 0.00183327 0)
(0.0989816 0.00174246 0)
(0.0990144 0.00165533 0)
(0.0990478 0.00157176 0)
(0.0990815 0.00149161 0)
(0.0991156 0.00141477 0)
(0.0991498 0.00134112 0)
(0.099184 0.00127054 0)
(0.0992181 0.00120293 0)
(0.099252 0.00113819 0)
(0.0992856 0.00107624 0)
(0.0993188 0.00101696 0)
(0.0993516 0.000960289 0)
(0.105722 0.00436747 0)
(0.105541 0.00444934 0)
(0.105358 0.00452057 0)
(0.105175 0.00458162 0)
(0.104992 0.004633 0)
(0.104809 0.00467527 0)
(0.104627 0.00470901 0)
(0.104447 0.00473477 0)
(0.104268 0.00475311 0)
(0.104092 0.00476456 0)
(0.103919 0.0047696 0)
(0.103748 0.00476867 0)
(0.103581 0.00476217 0)
(0.103417 0.00475047 0)
(0.103258 0.00473388 0)
(0.103102 0.0047127 0)
(0.10295 0.00468719 0)
(0.102802 0.0046576 0)
(0.102659 0.00462416 0)
(0.102521 0.0045871 0)
(0.102386 0.00454664 0)
(0.102257 0.00450302 0)
(0.102131 0.00445645 0)
(0.10201 0.00440717 0)
(0.101894 0.0043554 0)
(0.101782 0.00430137 0)
(0.10582 0.00455247 0)
(0.105629 0.00463566 0)
(0.105438 0.00470767 0)
(0.105246 0.00476899 0)
(0.105054 0.00482011 0)
(0.104863 0.00486162 0)
(0.104673 0.00489409 0)
(0.104484 0.00491812 0)
(0.104298 0.00493428 0)
(0.104114 0.00494314 0)
(0.103933 0.00494521 0)
(0.103755 0.00494097 0)
(0.103581 0.00493088 0)
(0.103411 0.00491533 0)
(0.103245 0.00489469 0)
(0.103083 0.00486927 0)
(0.102926 0.00483939 0)
(0.102774 0.00480532 0)
(0.102626 0.00476732 0)
(0.102483 0.00472565 0)
(0.102345 0.00468056 0)
(0.102211 0.00463228 0)
(0.102083 0.00458108 0)
(0.101959 0.00452718 0)
(0.10184 0.00447083 0)
(0.101725 0.00441227 0)
(0.105919 0.00474667 0)
(0.105719 0.00483111 0)
(0.105518 0.00490384 0)
(0.105317 0.00496531 0)
(0.105116 0.00501605 0)
(0.104915 0.00505664 0)
(0.104717 0.00508767 0)
(0.104519 0.00510975 0)
(0.104325 0.00512349 0)
(0.104133 0.00512948 0)
(0.103944 0.00512828 0)
(0.103759 0.00512043 0)
(0.103578 0.0051064 0)
(0.103401 0.00508664 0)
(0.103228 0.00506156 0)
(0.103061 0.00503153 0)
(0.102898 0.00499689 0)
(0.10274 0.00495795 0)
(0.102588 0.00491502 0)
(0.10244 0.00486836 0)
(0.102298 0.00481827 0)
(0.102161 0.004765 0)
(0.102029 0.00470882 0)
(0.101903 0.00464998 0)
(0.101781 0.00458875 0)
(0.101664 0.00452536 0)
(0.106019 0.00495078 0)
(0.105808 0.00503638 0)
(0.105598 0.00510968 0)
(0.105386 0.00517117 0)
(0.105176 0.00522135 0)
(0.104966 0.00526082 0)
(0.104758 0.00529017 0)
(0.104551 0.00531005 0)
(0.104348 0.00532108 0)
(0.104147 0.0053239 0)
(0.103951 0.0053191 0)
(0.103758 0.00530725 0)
(0.103569 0.0052889 0)
(0.103386 0.00526454 0)
(0.103207 0.00523463 0)
(0.103033 0.00519958 0)
(0.102865 0.00515977 0)
(0.102702 0.00511556 0)
(0.102545 0.00506728 0)
(0.102393 0.00501526 0)
(0.102247 0.00495978 0)
(0.102106 0.00490114 0)
(0.101971 0.00483962 0)
(0.101841 0.00477551 0)
(0.101717 0.00470907 0)
(0.101598 0.00464056 0)
(0.106119 0.0051656 0)
(0.105898 0.0052522 0)
(0.105676 0.00532591 0)
(0.105455 0.0053872 0)
(0.105233 0.00543659 0)
(0.105014 0.00547468 0)
(0.104795 0.00550208 0)
(0.10458 0.00551944 0)
(0.104367 0.00552742 0)
(0.104158 0.0055267 0)
(0.103953 0.00551791 0)
(0.103752 0.00550168 0)
(0.103556 0.0054786 0)
(0.103365 0.00544921 0)
(0.10318 0.00541402 0)
(0.103 0.0053735 0)
(0.102826 0.00532809 0)
(0.102658 0.00527817 0)
(0.102496 0.00522413 0)
(0.10234 0.00516632 0)
(0.10219 0.00510505 0)
(0.102045 0.00504066 0)
(0.101907 0.00497344 0)
(0.101775 0.0049037 0)
(0.101648 0.00483172 0)
(0.101527 0.00475777 0)
(0.106221 0.00539199 0)
(0.105987 0.00547938 0)
(0.105754 0.00555325 0)
(0.105521 0.00561408 0)
(0.105289 0.00566239 0)
(0.105058 0.00569877 0)
(0.10483 0.00572387 0)
(0.104604 0.00573834 0)
(0.104382 0.00574288 0)
(0.104164 0.0057382 0)
(0.10395 0.00572499 0)
(0.103741 0.00570392 0)
(0.103537 0.00567564 0)
(0.103339 0.00564075 0)
(0.103147 0.00559982 0)
(0.102961 0.00555337 0)
(0.102781 0.00550189 0)
(0.102608 0.00544581 0)
(0.102441 0.00538556 0)
(0.102281 0.00532151 0)
(0.102127 0.00525404 0)
(0.101979 0.00518349 0)
(0.101838 0.00511019 0)
(0.101703 0.00503445 0)
(0.101574 0.00495659 0)
(0.101451 0.00487688 0)
(0.106322 0.00563088 0)
(0.106076 0.00571879 0)
(0.10583 0.00579252 0)
(0.105585 0.00585255 0)
(0.105341 0.00589941 0)
(0.105099 0.00593369 0)
(0.104859 0.00595606 0)
(0.104623 0.0059672 0)
(0.104391 0.00596784 0)
(0.104163 0.00595872 0)
(0.103941 0.0059406 0)
(0.103723 0.00591419 0)
(0.103512 0.0058802 0)
(0.103307 0.00583931 0)
(0.103108 0.00579213 0)
(0.102915 0.00573924 0)
(0.10273 0.00568118 0)
(0.102551 0.00561846 0)
(0.10238 0.00555152 0)
(0.102215 0.00548079 0)
(0.102057 0.00540668 0)
(0.101906 0.00532955 0)
(0.101762 0.00524977 0)
(0.101624 0.00516766 0)
(0.101493 0.00508355 0)
(0.101368 0.00499774 0)
(0.106423 0.00588326 0)
(0.106163 0.00597136 0)
(0.105904 0.00604457 0)
(0.105645 0.00610339 0)
(0.105389 0.00614834 0)
(0.105135 0.00618005 0)
(0.104884 0.00619918 0)
(0.104637 0.00620647 0)
(0.104395 0.00620268 0)
(0.104157 0.00618858 0)
(0.103925 0.00616499 0)
(0.103699 0.00613269 0)
(0.10348 0.00609244 0)
(0.103267 0.00604498 0)
(0.103061 0.00599099 0)
(0.102863 0.00593113 0)
(0.102671 0.00586597 0)
(0.102488 0.00579608 0)
(0.102311 0.00572196 0)
(0.102142 0.00564408 0)
(0.101981 0.00556286 0)
(0.101827 0.00547872 0)
(0.101679 0.00539203 0)
(0.101539 0.00530316 0)
(0.101406 0.00521244 0)
(0.10128 0.0051202 0)
(0.106524 0.0061502 0)
(0.106249 0.00623807 0)
(0.105975 0.0063103 0)
(0.105703 0.0063674 0)
(0.105433 0.00640992 0)
(0.105166 0.00643849 0)
(0.104903 0.00645381 0)
(0.104645 0.00645665 0)
(0.104392 0.0064478 0)
(0.104144 0.00642811 0)
(0.103902 0.00639843 0)
(0.103668 0.00635961 0)
(0.10344 0.00631249 0)
(0.10322 0.00625786 0)
(0.103007 0.00619647 0)
(0.102802 0.00612905 0)
(0.102605 0.00605624 0)
(0.102416 0.00597864 0)
(0.102235 0.00589681 0)
(0.102062 0.00581126 0)
(0.101897 0.00572246 0)
(0.10174 0.00563085 0)
(0.10159 0.00553684 0)
(0.101448 0.0054408 0)
(0.101313 0.0053431 0)
(0.101185 0.00524406 0)
(0.106623 0.00643279 0)
(0.106333 0.00651996 0)
(0.106043 0.00659067 0)
(0.105756 0.00664546 0)
(0.105472 0.00668491 0)
(0.105192 0.00670969 0)
(0.104916 0.00672053 0)
(0.104646 0.00671822 0)
(0.104381 0.00670363 0)
(0.104123 0.00667765 0)
(0.103872 0.00664118 0)
(0.103628 0.00659516 0)
(0.103392 0.00654049 0)
(0.103164 0.00647803 0)
(0.102944 0.00640861 0)
(0.102733 0.006333 0)
(0.10253 0.00625192 0)
(0.102336 0.00616604 0)
(0.102151 0.00607595 0)
(0.101974 0.00598221 0)
(0.101805 0.00588534 0)
(0.101645 0.00578579 0)
(0.101493 0.00568401 0)
(0.101348 0.00558039 0)
(0.101212 0.00547531 0)
(0.101083 0.00536912 0)
(0.106722 0.00673222 0)
(0.106414 0.0068181 0)
(0.106108 0.00688666 0)
(0.105805 0.00693846 0)
(0.105506 0.00697412 0)
(0.105212 0.00699436 0)
(0.104923 0.00699993 0)
(0.10464 0.00699171 0)
(0.104363 0.00697059 0)
(0.104094 0.00693753 0)
(0.103833 0.00689352 0)
(0.10358 0.00683954 0)
(0.103335 0.00677657 0)
(0.103099 0.00670556 0)
(0.102872 0.00662741 0)
(0.102655 0.00654295 0)
(0.102447 0.00645298 0)
(0.102248 0.00635819 0)
(0.102058 0.00625926 0)
(0.101877 0.00615678 0)
(0.101705 0.0060513 0)
(0.101542 0.00594333 0)
(0.101388 0.00583331 0)
(0.101242 0.00572169 0)
(0.101104 0.00560884 0)
(0.100973 0.00549513 0)
(0.106818 0.00704969 0)
(0.106492 0.00713363 0)
(0.106168 0.0071993 0)
(0.105849 0.00724733 0)
(0.105534 0.00727838 0)
(0.105224 0.00729321 0)
(0.104921 0.00729266 0)
(0.104625 0.00727763 0)
(0.104336 0.0072491 0)
(0.104056 0.0072081 0)
(0.103784 0.00715569 0)
(0.103522 0.00709292 0)
(0.103268 0.00702086 0)
(0.103025 0.00694052 0)
(0.102791 0.00685289 0)
(0.102567 0.00675886 0)
(0.102353 0.0066593 0)
(0.102149 0.00655497 0)
(0.101955 0.00644658 0)
(0.101771 0.00633478 0)
(0.101596 0.00622016 0)
(0.10143 0.00610324 0)
(0.101274 0.00598453 0)
(0.101126 0.00586446 0)
(0.100987 0.00574343 0)
(0.100856 0.00562182 0)
(0.106912 0.00738647 0)
(0.106566 0.00746772 0)
(0.106224 0.00752967 0)
(0.105887 0.00757303 0)