/*--------------------------------*- C++ -*----------------------------------*\
| =========                 |                                                 |
| \\      /  F ield         | OpenFOAM: The Open Source CFD Toolbox           |
|  \\    /   O peration     | Version:  2412                                  |
|   \\  /    A nd           | Website:  www.openfoam.com                      |
|    \\/     M anipulation  |                                                 |
\*---------------------------------------------------------------------------*/
FoamFile
{
    version     2.0;
    format      ascii;
    arch        "LSB;label=32;scalar=64";
    class       volVectorField;
    location    "21.5";
    object      U;
}
// * * * * * * * * * * * * * * * * * * * * * * * * * * * * * * * * * * * * * //

dimensions      [0 1 -1 0 0 0 0];

internalField   nonuniform List<vector> 
5285
(
(0.100332 -0.00359182 0)
(0.100383 -0.00366404 0)
(0.100437 -0.00373706 0)
(0.100494 -0.00381081 0)
(0.100555 -0.0038852 0)
(0.100618 -0.00396016 0)
(0.100685 -0.00403557 0)
(0.100755 -0.00411135 0)
(0.10083 -0.00418736 0)
(0.100907 -0.00426349 0)
(0.100989 -0.00433961 0)
(0.101075 -0.00441555 0)
(0.101165 -0.00449116 0)
(0.101259 -0.00456626 0)
(0.101357 -0.00464064 0)
(0.101461 -0.00471407 0)
(0.100257 -0.0036413 0)
(0.100307 -0.00371637 0)
(0.100361 -0.00379235 0)
(0.100417 -0.0038692 0)
(0.100477 -0.00394682 0)
(0.10054 -0.00402514 0)
(0.100606 -0.00410406 0)
(0.100676 -0.00418347 0)
(0.10075 -0.00426326 0)
(0.100828 -0.0043433 0)
(0.10091 -0.00442345 0)
(0.100996 -0.00450357 0)
(0.101086 -0.00458349 0)
(0.101181 -0.00466302 0)
(0.10128 -0.00474195 0)
(0.101384 -0.00482006 0)
(0.10018 -0.00368983 0)
(0.100229 -0.00376779 0)
(0.100282 -0.00384682 0)
(0.100337 -0.00392684 0)
(0.100396 -0.00400778 0)
(0.100458 -0.00408956 0)
(0.100524 -0.00417209 0)
(0.100594 -0.00425525 0)
(0.100667 -0.00433894 0)
(0.100745 -0.00442303 0)
(0.100826 -0.00450739 0)
(0.100913 -0.00459185 0)
(0.101003 -0.00467625 0)
(0.101098 -0.0047604 0)
(0.101198 -0.0048441 0)
(0.101303 -0.0049271 0)
(0.1001 -0.00373726 0)
(0.100148 -0.00381819 0)
(0.100199 -0.00390031 0)
(0.100254 -0.00398359 0)
(0.100312 -0.00406794 0)
(0.100373 -0.00415328 0)
(0.100438 -0.00423951 0)
(0.100507 -0.00432655 0)
(0.10058 -0.00441427 0)
(0.100658 -0.00450255 0)
(0.100739 -0.00459125 0)
(0.100825 -0.00468022 0)
(0.100916 -0.00476929 0)
(0.101011 -0.00485827 0)
(0.101112 -0.00494694 0)
(0.101218 -0.00503507 0)
(0.100017 -0.00378346 0)
(0.100064 -0.0038674 0)
(0.100114 -0.0039527 0)
(0.100168 -0.0040393 0)
(0.100225 -0.00412713 0)
(0.100285 -0.00421612 0)
(0.100349 -0.00430618 0)
(0.100417 -0.0043972 0)
(0.10049 -0.00448908 0)
(0.100566 -0.00458169 0)
(0.100647 -0.0046749 0)
(0.100733 -0.00476855 0)
(0.100824 -0.00486247 0)
(0.100919 -0.00495647 0)
(0.10102 -0.00505033 0)
(0.101127 -0.00514382 0)
(0.0999318 -0.00382827 0)
(0.0999774 -0.00391528 0)
(0.100026 -0.00400381 0)
(0.100078 -0.0040938 0)
(0.100134 -0.0041852 0)
(0.100193 -0.00427793 0)
(0.100256 -0.0043719 0)
(0.100323 -0.00446702 0)
(0.100395 -0.00456319 0)
(0.100471 -0.00466027 0)
(0.100551 -0.00475814 0)
(0.100637 -0.00485663 0)
(0.100727 -0.00495559 0)
(0.100823 -0.00505482 0)
(0.100924 -0.0051541 0)
(0.10103 -0.00525318 0)
(0.0998437 -0.00387154 0)
(0.0998876 -0.00396166 0)
(0.0999348 -0.00405348 0)
(0.0999853 -0.00414693 0)
(0.100039 -0.00424197 0)
(0.100097 -0.00433852 0)
(0.100159 -0.00443651 0)
(0.100225 -0.00453584 0)
(0.100296 -0.00463641 0)
(0.100371 -0.0047381 0)
(0.10045 -0.00484078 0)
(0.100535 -0.00494429 0)
(0.100625 -0.00504848 0)
(0.10072 -0.00515314 0)
(0.100821 -0.00525806 0)
(0.100928 -0.00536298 0)
(0.0997526 -0.0039131 0)
(0.0997947 -0.00400638 0)
(0.0998402 -0.00410153 0)
(0.099889 -0.0041985 0)
(0.0999416 -0.00429725 0)
(0.0999979 -0.00439771 0)
(0.100058 -0.0044998 0)
(0.100123 -0.00460344 0)
(0.100192 -0.00470854 0)
(0.100266 -0.00481497 0)
(0.100345 -0.00492261 0)
(0.100429 -0.00503132 0)
(0.100518 -0.00514091 0)
(0.100613 -0.00525121 0)
(0.100714 -0.005362 0)
(0.10082 -0.00547301 0)
(0.0996586 -0.00395278 0)
(0.0996988 -0.00404925 0)
(0.0997423 -0.00414777 0)
(0.0997892 -0.00424832 0)
(0.0998399 -0.00435084 0)
(0.0998945 -0.00445527 0)
(0.0999532 -0.00456156 0)
(0.100016 -0.00466962 0)
(0.100084 -0.00477936 0)
(0.100156 -0.00489067 0)
(0.100234 -0.00500342 0)
(0.100317 -0.00511747 0)
(0.100405 -0.00523267 0)
(0.100499 -0.00534881 0)
(0.1006 -0.00546569 0)
(0.100706 -0.00558304 0)
(0.0995615 -0.00399039 0)
(0.0995996 -0.00409008 0)
(0.099641 -0.00419202 0)
(0.0996859 -0.00429618 0)
(0.0997345 -0.00440253 0)
(0.0997871 -0.00451101 0)
(0.0998439 -0.00462158 0)
(0.0999052 -0.00473415 0)
(0.0999711 -0.00484863 0)
(0.100042 -0.00496494 0)
(0.100118 -0.00508295 0)
(0.100199 -0.00520252 0)
(0.100287 -0.00532349 0)
(0.10038 -0.00544569 0)
(0.100479 -0.00556889 0)
(0.100586 -0.00569283 0)
(0.0994614 -0.00402575 0)
(0.0994972 -0.00412868 0)
(0.0995362 -0.00423406 0)
(0.0995788 -0.00434188 0)
(0.0996252 -0.0044521 0)
(0.0996756 -0.0045647 0)
(0.0997303 -0.00467961 0)
(0.0997894 -0.00479677 0)
(0.0998534 -0.00491611 0)
(0.0999223 -0.00503754 0)
(0.0999966 -0.00516094 0)
(0.100077 -0.00528618 0)
(0.100162 -0.00541312 0)
(0.100254 -0.00554157 0)
(0.100353 -0.00567131 0)
(0.100458 -0.0058021 0)
(0.0993583 -0.00405866 0)
(0.0993914 -0.00416484 0)
(0.099428 -0.00427368 0)
(0.0994681 -0.00438518 0)
(0.099512 -0.00449932 0)
(0.0995599 -0.00461608 0)
(0.0996122 -0.0047354 0)
(0.099669 -0.00485724 0)
(0.0997307 -0.00498153 0)
(0.0997975 -0.00510819 0)
(0.0998697 -0.00523711 0)
(0.0999477 -0.00536818 0)
(0.100032 -0.00550125 0)
(0.100122 -0.00563615 0)
(0.100219 -0.00577266 0)
(0.100323 -0.00591055 0)
(0.099252 -0.00408892 0)
(0.0992824 -0.00419835 0)
(0.0993162 -0.00431066 0)
(0.0993535 -0.00442586 0)
(0.0993947 -0.00454395 0)
(0.0994399 -0.0046649 0)
(0.0994895 -0.00478869 0)
(0.0995437 -0.00491528 0)
(0.0996029 -0.0050446 0)
(0.0996672 -0.0051766 0)
(0.0997371 -0.00531116 0)
(0.0998129 -0.0054482 0)
(0.0998949 -0.00558757 0)
(0.0999834 -0.00572911 0)
(0.100079 -0.00587261 0)
(0.100182 -0.00601785 0)
(0.0991427 -0.00411631 0)
(0.0991701 -0.00422898 0)
(0.0992009 -0.00434476 0)
(0.0992352 -0.00446368 0)
(0.0992734 -0.00458573 0)
(0.0993156 -0.00471091 0)
(0.0993623 -0.00483921 0)
(0.0994136 -0.0049706 0)
(0.0994699 -0.00510503 0)
(0.0995315 -0.00524244 0)
(0.0995987 -0.00538277 0)
(0.0996719 -0.00552591 0)
(0.0997514 -0.00567173 0)
(0.0998377 -0.0058201 0)
(0.0999311 -0.0059708 0)
(0.100032 -0.00612363 0)
(0.0990302 -0.00414062 0)
(0.0990544 -0.00425651 0)
(0.099082 -0.00437575 0)
(0.099113 -0.00449837 0)
(0.099148 -0.00462439 0)
(0.099187 -0.00475382 0)
(0.0992304 -0.00488665 0)
(0.0992785 -0.00502289 0)
(0.0993316 -0.00516248 0)
(0.0993901 -0.00530541 0)
(0.0994543 -0.00545159 0)
(0.0995246 -0.00560095 0)
(0.0996013 -0.00575338 0)
(0.0996849 -0.00590874 0)
(0.0997759 -0.00606685 0)
(0.0998745 -0.0062275 0)
(0.0989147 -0.00416163 0)
(0.0989355 -0.0042807 0)
(0.0989595 -0.00440336 0)
(0.0989871 -0.00452967 0)
(0.0990184 -0.00465965 0)
(0.0990539 -0.00479333 0)
(0.0990938 -0.00493072 0)
(0.0991383 -0.00507182 0)
(0.099188 -0.00521663 0)
(0.099243 -0.00536512 0)
(0.0993038 -0.00551725 0)
(0.0993708 -0.00567294 0)
(0.0994443 -0.0058321 0)
(0.0995249 -0.00599462 0)
(0.0996129 -0.00616034 0)
(0.0997088 -0.00632904 0)
(0.0987961 -0.00417909 0)
(0.0988132 -0.0043013 0)
(0.0988335 -0.00442735 0)
(0.0988573 -0.00455731 0)
(0.0988849 -0.00469123 0)
(0.0989165 -0.00482914 0)
(0.0989525 -0.00497108 0)
(0.0989932 -0.00511707 0)
(0.0990389 -0.00526713 0)
(0.0990901 -0.00542123 0)
(0.0991471 -0.00557936 0)
(0.0992104 -0.00574147 0)
(0.0992803 -0.00590749 0)
(0.0993574 -0.00607731 0)
(0.099442 -0.0062508 0)
(0.0995348 -0.00642777 0)
(0.0986746 -0.00419279 0)
(0.0986877 -0.00431807 0)
(0.098704 -0.00444745 0)
(0.0987238 -0.00458101 0)
(0.0987472 -0.00471882 0)
(0.0987747 -0.00486093 0)
(0.0988064 -0.00500741 0)
(0.0988429 -0.00515828 0)
(0.0988844 -0.00531358 0)
(0.0989314 -0.00547333 0)
(0.0989842 -0.00563752 0)
(0.0990433 -0.00580612 0)
(0.0991092 -0.00597908 0)
(0.0991822 -0.00615634 0)
(0.0992631 -0.00633776 0)
(0.0993521 -0.00652318 0)
(0.0985501 -0.00420247 0)
(0.0985591 -0.00433075 0)
(0.0985711 -0.00446338 0)
(0.0985865 -0.00460047 0)
(0.0986055 -0.00474211 0)
(0.0986285 -0.00488838 0)
(0.0986557 -0.00503934 0)
(0.0986876 -0.00519507 0)
(0.0987245 -0.00535561 0)
(0.0987668 -0.00552101 0)
(0.098815 -0.00569127 0)
(0.0988695 -0.00586641 0)
(0.0989308 -0.0060464 0)
(0.0989994 -0.00623119 0)
(0.0990758 -0.00642068 0)
(0.0991606 -0.00661473 0)
(0.0984228 -0.0042079 0)
(0.0984274 -0.00433907 0)
(0.0984349 -0.00447486 0)
(0.0984456 -0.0046154 0)
(0.0984599 -0.00476079 0)
(0.098478 -0.00491113 0)
(0.0985004 -0.00506653 0)
(0.0985273 -0.00522706 0)
(0.0985592 -0.0053928 0)
(0.0985964 -0.00556383 0)
(0.0986395 -0.00574017 0)
(0.0986889 -0.00592188 0)
(0.0987451 -0.00610894 0)
(0.0988087 -0.00630133 0)
(0.0988801 -0.006499 0)
(0.0989601 -0.00670183 0)
(0.0999999 -3.47113e-05 0)
(0.0999992 -0.000103314 0)
(0.0999977 -0.00017085 0)
(0.0999954 -0.000237425 0)
(0.0999925 -0.000302795 0)
(0.0999892 -0.000367413 0)
(0.0999854 -0.000434444 0)
(0.0999807 -0.000511199 0)
(0.0999741 -0.000608202 0)
(0.0999638 -0.000735586 0)
(0.0999476 -0.000898394 0)
(0.0999238 -0.00109321 0)
(0.0998917 -0.00130783 0)
(0.0998517 -0.00152404 0)
(0.0998058 -0.00172224 0)
(0.0997566 -0.00188605 0)
(0.0997075 -0.00200545 0)
(0.0996615 -0.00207784 0)
(0.099621 -0.00210719 0)
(0.0995877 -0.0021021 0)
(0.0995623 -0.00207336 0)
(0.0995449 -0.00203189 0)
(0.0995348 -0.0019872 0)
(0.099531 -0.00194661 0)
(0.0995326 -0.00191504 0)
(0.0995385 -0.00189525 0)
(0.0995475 -0.00188821 0)
(0.099559 -0.00189369 0)
(0.0995722 -0.00191066 0)
(0.0995867 -0.0019377 0)
(0.0996022 -0.00197324 0)
(0.0996185 -0.00201581 0)
(0.0996355 -0.00206407 0)
(0.0996531 -0.00211687 0)
(0.0996714 -0.00217328 0)
(0.0996904 -0.00223254 0)
(0.0997102 -0.00229407 0)
(0.099731 -0.0023574 0)
(0.0997527 -0.00242217 0)
(0.0997756 -0.00248811 0)
(0.0997996 -0.002555 0)
(0.0998248 -0.00262265 0)
(0.0998513 -0.00269092 0)
(0.0998792 -0.00275969 0)
(0.0999084 -0.00282884 0)
(0.0999392 -0.00289828 0)
(0.0999714 -0.0029679 0)
(0.100005 -0.00303764 0)
(0.10004 -0.00310739 0)
(0.100077 -0.00317708 0)
(0.100115 -0.00324663 0)
(0.100155 -0.00331597 0)
(0.100197 -0.00338502 0)
(0.10024 -0.0034537 0)
(0.100284 -0.00352194 0)
(0.0999999 -3.45576e-05 0)
(0.0999991 -0.000102856 0)
(0.0999974 -0.000170094 0)
(0.0999948 -0.000236388 0)
(0.0999916 -0.000301512 0)
(0.0999878 -0.000365905 0)
(0.0999835 -0.000432624 0)
(0.0999782 -0.000508744 0)
(0.0999709 -0.00060448 0)
(0.0999598 -0.000729716 0)
(0.0999428 -0.000889449 0)
(0.0999181 -0.0010805 0)
(0.0998849 -0.00129115 0)
(0.0998437 -0.00150378 0)
(0.0997963 -0.00169938 0)
(0.0997456 -0.00186194 0)
(0.0996948 -0.00198161 0)
(0.099647 -0.00205566 0)
(0.0996046 -0.00208782 0)
(0.0995693 -0.00208628 0)
(0.0995419 -0.00206145 0)
(0.0995224 -0.00202388 0)
(0.0995102 -0.00198284 0)
(0.0995045 -0.00194548 0)
(0.0995041 -0.00191665 0)
(0.099508 -0.00189909 0)
(0.0995151 -0.00189384 0)
(0.0995247 -0.00190071 0)
(0.0995362 -0.00191878 0)
(0.0995489 -0.0019467 0)
(0.0995626 -0.00198301 0)
(0.0995772 -0.00202626 0)
(0.0995924 -0.00207518 0)
(0.0996083 -0.00212868 0)
(0.099625 -0.00218583 0)
(0.0996424 -0.00224591 0)
(0.0996606 -0.00230834 0)
(0.0996797 -0.00237266 0)
(0.0996999 -0.00243854 0)
(0.0997211 -0.00250568 0)
(0.0997436 -0.00257387 0)
(0.0997672 -0.00264293 0)
(0.0997923 -0.00271271 0)
(0.0998187 -0.00278308 0)
(0.0998465 -0.00285394 0)
(0.0998758 -0.00292517 0)
(0.0999066 -0.00299669 0)
(0.099939 -0.0030684 0)
(0.099973 -0.00314021 0)
(0.100009 -0.00321205 0)
(0.100046 -0.00328383 0)
(0.100084 -0.00335547 0)
(0.100125 -0.00342689 0)
(0.100167 -0.00349801 0)
(0.10021 -0.00356876 0)
(0.0999999 -3.43857e-05 0)
(0.099999 -0.000102344 0)
(0.0999971 -0.000169248 0)
(0.0999942 -0.000235225 0)
(0.0999906 -0.000300067 0)
(0.0999864 -0.000364201 0)
(0.0999815 -0.000430574 0)
(0.0999756 -0.000506026 0)
(0.0999677 -0.000600464 0)
(0.0999559 -0.000723518 0)
(0.0999381 -0.000880139 0)
(0.0999126 -0.00106738 0)
(0.0998785 -0.00127399 0)
(0.0998363 -0.00148298 0)
(0.0997878 -0.00167589 0)
(0.0997358 -0.00183712 0)
(0.0996836 -0.00195695 0)
(0.0996341 -0.00203259 0)
(0.0995899 -0.00206747 0)
(0.0995527 -0.00206941 0)
(0.0995232 -0.00204843 0)
(0.0995016 -0.00201474 0)
(0.0994873 -0.00197733 0)
(0.0994795 -0.00194319 0)
(0.0994769 -0.00191708 0)
(0.0994787 -0.00190175 0)
(0.0994838 -0.00189828 0)
(0.0994914 -0.00190656 0)
(0.0995008 -0.00192573 0)
(0.0995116 -0.00195454 0)
(0.0995235 -0.00199159 0)
(0.0995361 -0.00203553 0)
(0.0995495 -0.00208511 0)
(0.0995637 -0.00213929 0)
(0.0995785 -0.00219717 0)
(0.0995941 -0.00225805 0)
(0.0996106 -0.00232138 0)
(0.099628 -0.00238669 0)
(0.0996465 -0.00245365 0)
(0.099666 -0.00252199 0)
(0.0996868 -0.00259148 0)
(0.0997088 -0.00266194 0)
(0.0997322 -0.00273323 0)
(0.099757 -0.00280521 0)
(0.0997833 -0.00287777 0)
(0.0998111 -0.00295081 0)
(0.0998405 -0.00302422 0)
(0.0998714 -0.00309792 0)
(0.099904 -0.00317182 0)
(0.0999382 -0.00324582 0)
(0.099974 -0.00331985 0)
(0.100012 -0.00339382 0)
(0.100051 -0.00346766 0)
(0.100092 -0.00354127 0)
(0.100134 -0.00361458 0)
(0.0999999 -3.41951e-05 0)
(0.0999989 -0.000101776 0)
(0.0999968 -0.000168311 0)
(0.0999936 -0.000233935 0)
(0.0999896 -0.00029846 0)
(0.0999849 -0.000362298 0)
(0.0999795 -0.000428292 0)
(0.099973 -0.000503048 0)
(0.0999644 -0.000596163 0)
(0.0999519 -0.000717018 0)
(0.0999335 -0.000870509 0)
(0.0999073 -0.00105391 0)
(0.0998724 -0.00125646 0)
(0.0998295 -0.00146174 0)
(0.0997801 -0.00165188 0)
(0.0997271 -0.00181169 0)
(0.0996736 -0.00193158 0)
(0.0996227 -0.0020087 0)
(0.0995768 -0.00204619 0)
(0.0995377 -0.00205153 0)
(0.0995062 -0.00203432 0)
(0.0994825 -0.00200443 0)
(0.099466 -0.0019706 0)
(0.0994559 -0.00193965 0)
(0.0994511 -0.00191625 0)
(0.0994506 -0.00190315 0)
(0.0994535 -0.00190145 0)
(0.0994589 -0.00191113 0)
(0.0994662 -0.00193141 0)
(0.0994749 -0.00196111 0)
(0.0994847 -0.00199891 0)
(0.0994954 -0.00204352 0)
(0.0995068 -0.00209376 0)
(0.099519 -0.00214861 0)
(0.0995319 -0.00220722 0)
(0.0995457 -0.0022689 0)
(0.0995603 -0.0023331 0)
(0.0995759 -0.0023994 0)
(0.0995925 -0.00246744 0)
(0.0996103 -0.00253696 0)
(0.0996292 -0.00260774 0)
(0.0996495 -0.00267959 0)
(0.0996712 -0.00275238 0)
(0.0996943 -0.00282597 0)
(0.0997189 -0.00290023 0)
(0.0997451 -0.00297508 0)
(0.0997728 -0.0030504 0)
(0.0998022 -0.0031261 0)
(0.0998332 -0.00320209 0)
(0.099866 -0.00327828 0)
(0.0999004 -0.00335459 0)
(0.0999366 -0.00343092 0)
(0.0999745 -0.0035072 0)
(0.100014 -0.00358334 0)
(0.100055 -0.00365925 0)
(0.0999999 -3.39858e-05 0)
(0.0999988 -0.000101153 0)
(0.0999964 -0.000167282 0)
(0.099993 -0.000232518 0)
(0.0999887 -0.000296687 0)
(0.0999835 -0.000360195 0)
(0.0999775 -0.000425776 0)
(0.0999704 -0.000499809 0)
(0.0999612 -0.000591586 0)
(0.099948 -0.000710236 0)
(0.0999289 -0.000860596 0)
(0.0999021 -0.00104016 0)
(0.0998668 -0.00123862 0)
(0.0998232 -0.00144017 0)
(0.0997732 -0.00162748 0)
(0.0997193 -0.00178575 0)
(0.0996647 -0.0019056 0)
(0.0996125 -0.00198406 0)
(0.0995651 -0.00202404 0)
(0.0995242 -0.00203264 0)
(0.0994908 -0.00201909 0)
(0.0994649 -0.00199293 0)
(0.0994461 -0.00196262 0)
(0.0994336 -0.0019348 0)
(0.0994265 -0.00191409 0)
(0.0994236 -0.00190319 0)
(0.0994241 -0.00190326 0)
(0.0994272 -0.00191434 0)
(0.0994323 -0.00193572 0)
(0.0994387 -0.00196631 0)
(0.0994464 -0.00200487 0)
(0.0994549 -0.00205016 0)
(0.0994642 -0.00210106 0)
(0.0994744 -0.00215657 0)
(0.0994853 -0.0022159 0)
(0.099497 -0.00227837 0)
(0.0995096 -0.00234344 0)
(0.0995233 -0.0024107 0)
(0.099538 -0.00247981 0)
(0.0995538 -0.0025505 0)
(0.0995709 -0.00262255 0)
(0.0995893 -0.0026958 0)
(0.0996092 -0.00277008 0)
(0.0996305 -0.00284526 0)
(0.0996533 -0.00292123 0)
(0.0996777 -0.00299788 0)
(0.0997037 -0.00307511 0)
(0.0997314 -0.00315282 0)
(0.0997608 -0.00323092 0)
(0.0997919 -0.00330932 0)
(0.0998248 -0.00338792 0)
(0.0998594 -0.00346664 0)
(0.0998959 -0.00354539 0)
(0.0999341 -0.00362408 0)
(0.0999741 -0.00370264 0)
(0.0999999 -3.37577e-05 0)
(0.0999987 -0.000100473 0)
(0.0999961 -0.00016616 0)
(0.0999924 -0.000230971 0)
(0.0999877 -0.00029475 0)
(0.099982 -0.000357889 0)
(0.0999755 -0.000423025 0)
(0.0999678 -0.00049631 0)
(0.0999579 -0.000586738 0)
(0.0999441 -0.000703188 0)
(0.0999244 -0.000850436 0)
(0.0998971 -0.00102618 0)
(0.0998613 -0.00122056 0)
(0.0998173 -0.00141834 0)
(0.0997668 -0.00160276 0)
(0.0997123 -0.00175941 0)
(0.0996568 -0.00187908 0)
(0.0996034 -0.00195874 0)
(0.0995546 -0.00200105 0)
(0.099512 -0.00201277 0)
(0.0994766 -0.00200276 0)
(0.0994485 -0.00198021 0)
(0.0994274 -0.00195333 0)
(0.0994125 -0.00192859 0)
(0.0994029 -0.00191052 0)
(0.0993975 -0.0019018 0)
(0.0993956 -0.00190364 0)
(0.0993962 -0.00191611 0)
(0.0993989 -0.00193859 0)
(0.099403 -0.00197008 0)
(0.0994083 -0.00200939 0)
(0.0994146 -0.00205536 0)
(0.0994217 -0.00210691 0)
(0.0994297 -0.00216309 0)
(0.0994384 -0.00222313 0)
(0.0994481 -0.00228637 0)
(0.0994586 -0.0023523 0)
(0.0994702 -0.00242051 0)
(0.0994828 -0.00249067 0)
(0.0994967 -0.00256252 0)
(0.0995118 -0.00263584 0)
(0.0995282 -0.00271046 0)
(0.0995461 -0.00278622 0)
(0.0995654 -0.00286299 0)
(0.0995864 -0.00294066 0)
(0.0996089 -0.00301912 0)
(0.099633 -0.00309825 0)
(0.0996589 -0.00317797 0)
(0.0996865 -0.00325818 0)
(0.0997159 -0.00333879 0)
(0.0997471 -0.0034197 0)
(0.0997801 -0.00350083 0)
(0.099815 -0.00358208 0)
(0.0998517 -0.00366336 0)
(0.0998902 -0.0037446 0)
(0.0999999 -3.35107e-05 0)
(0.0999986 -9.9738e-05 0)
(0.0999958 -0.000164946 0)
(0.0999918 -0.000229295 0)
(0.0999867 -0.000292645 0)
(0.0999806 -0.00035538 0)
(0.0999735 -0.000420037 0)
(0.0999652 -0.000492551 0)
(0.0999546 -0.000581626 0)
(0.0999402 -0.00069589 0)
(0.09992 -0.000840052 0)
(0.0998923 -0.001012 0)
(0.0998561 -0.00120232 0)
(0.0998118 -0.00139632 0)
(0.0997609 -0.0015778 0)
(0.0997058 -0.00173274 0)
(0.0996497 -0.00185209 0)
(0.0995952 -0.0019328 0)
(0.099545 -0.00197728 0)
(0.0995008 -0.00199196 0)
(0.0994634 -0.00198533 0)
(0.0994332 -0.00196627 0)
(0.0994097 -0.00194272 0)
(0.0993923 -0.00192098 0)
(0.0993802 -0.0019055 0)
(0.0993723 -0.00189893 0)
(0.0993677 -0.0019025 0)
(0.0993658 -0.00191636 0)
(0.099366 -0.00193995 0)
(0.0993676 -0.00197233 0)
(0.0993706 -0.0020124 0)
(0.0993745 -0.00205905 0)
(0.0993793 -0.00211124 0)
(0.099385 -0.00216808 0)
(0.0993915 -0.00222882 0)
(0.0993989 -0.00229283 0)
(0.0994072 -0.00235961 0)
(0.0994166 -0.00242876 0)
(0.0994271 -0.00249995 0)
(0.0994388 -0.00257294 0)
(0.0994518 -0.00264751 0)
(0.0994662 -0.00272348 0)
(0.099482 -0.00280071 0)
(0.0994993 -0.00287906 0)
(0.0995181 -0.00295842 0)
(0.0995387 -0.00303866 0)
(0.0995609 -0.0031197 0)
(0.0995848 -0.00320143 0)
(0.0996105 -0.00328376 0)
(0.099638 -0.00336658 0)
(0.0996674 -0.00344982 0)
(0.0996986 -0.00353336 0)
(0.0997317 -0.00361713 0)
(0.0997667 -0.00370103 0)
(0.0998036 -0.00378498 0)
(0.0999999 -3.32448e-05 0)
(0.0999985 -9.89461e-05 0)
(0.0999955 -0.000163638 0)
(0.0999912 -0.000227488 0)
(0.0999857 -0.000290373 0)
(0.0999791 -0.000352666 0)
(0.0999715 -0.000416811 0)
(0.0999625 -0.000488533 0)
(0.0999513 -0.000576251 0)
(0.0999363 -0.000688349 0)
(0.0999156 -0.000829466 0)
(0.0998875 -0.00099767 0)
(0.099851 -0.00118395 0)
(0.0998065 -0.00137418 0)
(0.0997553 -0.00155266 0)
(0.0996999 -0.00170579 0)
(0.0996431 -0.0018247 0)
(0.0995878 -0.00190629 0)
(0.0995363 -0.00195276 0)
(0.0994904 -0.00197021 0)
(0.0994512 -0.00196681 0)
(0.0994187 -0.00195109 0)
(0.0993929 -0.00193075 0)
(0.099373 -0.00191193 0)
(0.0993582 -0.00189897 0)
(0.0993477 -0.00189452 0)
(0.0993405 -0.00189981 0)
(0.099336 -0.00191504 0)
(0.0993335 -0.00193972 0)
(0.0993326 -0.001973 0)
(0.099333 -0.00201382 0)
(0.0993345 -0.00206115 0)
(0.0993369 -0.00211399 0)
(0.0993401 -0.00217148 0)
(0.0993443 -0.00223291 0)
(0.0993494 -0.00229767 0)
(0.0993555 -0.00236528 0)
(0.0993626 -0.00243535 0)
(0.0993708 -0.00250756 0)
(0.0993803 -0.00258167 0)
(0.0993911 -0.00265747 0)
(0.0994032 -0.00273478 0)
(0.0994168 -0.00281345 0)
(0.0994319 -0.00289336 0)
(0.0994486 -0.00297439 0)
(0.099467 -0.00305642 0)
(0.0994871 -0.00313935 0)
(0.099509 -0.00322308 0)
(0.0995326 -0.00330752 0)
(0.0995581 -0.00339256 0)
(0.0995855 -0.00347812 0)
(0.0996148 -0.00356409 0)
(0.099646 -0.0036504 0)
(0.0996792 -0.00373694 0)
(0.0997143 -0.00382362 0)
(0.0999999 -3.29598e-05 0)
(0.0999984 -9.80976e-05 0)
(0.0999952 -0.000162237 0)
(0.0999906 -0.000225551 0)
(0.0999847 -0.000287933 0)
(0.0999776 -0.000349746 0)
(0.0999694 -0.000413345 0)
(0.0999598 -0.000484254 0)
(0.099948 -0.000570615 0)
(0.0999324 -0.000680573 0)
(0.0999112 -0.000818689 0)
(0.0998827 -0.000983198 0)
(0.099846 -0.00116548 0)
(0.0998013 -0.00135194 0)
(0.09975 -0.00152739 0)
(0.0996942 -0.00167863 0)
(0.0996369 -0.00179696 0)
(0.0995808 -0.00187925 0)
(0.0995281 -0.00192752 0)
(0.0994807 -0.00194757 0)
(0.0994396 -0.00194721 0)
(0.099405 -0.00193467 0)
(0.0993768 -0.00191742 0)
(0.0993543 -0.00190142 0)
(0.0993369 -0.00189092 0)
(0.0993236 -0.00188853 0)
(0.0993137 -0.0018955 0)
(0.0993065 -0.00191209 0)
(0.0993013 -0.00193787 0)
(0.0992978 -0.00197203 0)
(0.0992956 -0.00201361 0)
(0.0992945 -0.0020616 0)
(0.0992944 -0.00211508 0)
(0.0992952 -0.00217322 0)
(0.0992969 -0.00223533 0)
(0.0992996 -0.00230082 0)
(0.0993033 -0.00236925 0)
(0.099308 -0.00244021 0)
(0.0993139 -0.00251342 0)
(0.099321 -0.00258863 0)
(0.0993294 -0.00266563 0)
(0.0993393 -0.00274425 0)
(0.0993505 -0.00282435 0)
(0.0993634 -0.0029058 0)
(0.0993778 -0.00298847 0)
(0.0993939 -0.00307226 0)
(0.0994118 -0.00315707 0)
(0.0994314 -0.00324279 0)
(0.0994529 -0.00332933 0)
(0.0994762 -0.00341658 0)
(0.0995015 -0.00350446 0)
(0.0995287 -0.00359288 0)
(0.0995579 -0.00368172 0)
(0.099589 -0.00377091 0)
(0.0996222 -0.00386034 0)
(0.0999999 -3.26557e-05 0)
(0.0999983 -9.71923e-05 0)
(0.0999949 -0.000160742 0)
(0.09999 -0.000223483 0)
(0.0999837 -0.000285324 0)
(0.0999761 -0.000346618 0)
(0.0999674 -0.000409638 0)
(0.0999572 -0.000479713 0)
(0.0999447 -0.000564718 0)
(0.0999285 -0.000672563 0)
(0.0999068 -0.000807729 0)
(0.0998779 -0.000968602 0)
(0.099841 -0.00114694 0)
(0.0997962 -0.00132964 0)
(0.0997448 -0.00150203 0)
(0.0996888 -0.00165128 0)
(0.099631 -0.0017689 0)
(0.0995741 -0.00185172 0)
(0.0995203 -0.0019016 0)
(0.0994714 -0.00192404 0)
(0.0994284 -0.00192653 0)
(0.0993917 -0.00191703 0)
(0.0993611 -0.00190273 0)
(0.0993361 -0.00188944 0)
(0.099316 -0.00188131 0)
(0.0993 -0.00188093 0)
(0.0992873 -0.00188955 0)
(0.0992773 -0.00190747 0)
(0.0992695 -0.00193433 0)
(0.0992632 -0.00196937 0)
(0.0992584 -0.00201169 0)
(0.0992546 -0.00206035 0)
(0.0992519 -0.00211446 0)
(0.0992502 -0.00217323 0)
(0.0992493 -0.002236 0)
(0.0992495 -0.00230222 0)
(0.0992507 -0.00237143 0)
(0.0992529 -0.00244327 0)
(0.0992564 -0.00251745 0)
(0.099261 -0.00259373 0)
(0.099267 -0.0026719 0)
(0.0992744 -0.00275181 0)
(0.0992832 -0.0028333 0)
(0.0992936 -0.00291626 0)
(0.0993057 -0.00300055 0)
(0.0993194 -0.00308608 0)
(0.0993349 -0.00317274 0)
(0.0993521 -0.00326043 0)
(0.0993713 -0.00334905 0)
(0.0993923 -0.00343851 0)
(0.0994153 -0.00352871 0)
(0.0994403 -0.00361955 0)
(0.0994672 -0.00371094 0)
(0.0994962 -0.00380279 0)
(0.0995273 -0.00389499 0)
(0.0999999 -3.23324e-05 0)
(0.0999982 -9.62301e-05 0)
(0.0999946 -0.000159153 0)
(0.0999894 -0.000221284 0)
(0.0999827 -0.000282545 0)
(0.0999746 -0.000343283 0)
(0.0999653 -0.000405689 0)
(0.0999545 -0.000474909 0)
(0.0999414 -0.000558559 0)
(0.0999245 -0.00066432 0)
(0.0999023 -0.000796587 0)
(0.0998732 -0.000953885 0)
(0.0998361 -0.00112832 0)
(0.0997912 -0.00130729 0)
(0.0997396 -0.00147659 0)
(0.0996834 -0.00162378 0)
(0.0996252 -0.00174054 0)
(0.0995676 -0.00182373 0)
(0.0995127 -0.00187502 0)
(0.0994624 -0.00189965 0)
(0.0994176 -0.00190481 0)
(0.0993787 -0.00189816 0)
(0.0993458 -0.00188667 0)
(0.0993182 -0.00187598 0)
(0.0992955 -0.00187014 0)
(0.0992767 -0.0018717 0)
(0.0992612 -0.00188193 0)
(0.0992484 -0.00190116 0)
(0.0992377 -0.00192907 0)
(0.0992287 -0.00196498 0)
(0.0992211 -0.00200804 0)
(0.0992147 -0.00205735 0)
(0.0992093 -0.00211207 0)
(0.0992049 -0.00217146 0)
(0.0992015 -0.00223487 0)
(0.0991991 -0.00230179 0)
(0.0991976 -0.00237176 0)
(0.0991973 -0.00244445 0)
(0.0991982 -0.00251957 0)
(0.0992003 -0.00259689 0)
(0.0992037 -0.0026762 0)
(0.0992085 -0.00275736 0)
(0.0992148 -0.00284021 0)
(0.0992227 -0.00292464 0)
(0.0992322 -0.00301053 0)
(0.0992434 -0.00309776 0)
(0.0992564 -0.00318624 0)
(0.0992711 -0.00327588 0)
(0.0992878 -0.00336656 0)
(0.0993064 -0.0034582 0)
(0.0993269 -0.0035507 0)
(0.0993495 -0.00364396 0)
(0.0993741 -0.00373789 0)
(0.0994008 -0.00383239 0)
(0.0994296 -0.00392737 0)
(0.0999999 -3.199e-05 0)
(0.0999981 -9.52109e-05 0)
(0.0999943 -0.000157469 0)
(0.0999888 -0.000218954 0)
(0.0999817 -0.000279597 0)
(0.0999732 -0.00033974 0)
(0.0999633 -0.000401498 0)
(0.0999518 -0.00046984 0)
(0.099938 -0.000552136 0)
(0.0999206 -0.00065584 0)
(0.0998979 -0.000785261 0)
(0.0998684 -0.000939049 0)
(0.0998311 -0.00110964 0)
(0.099786 -0.0012849 0)
(0.0997344 -0.00145109 0)
(0.099678 -0.00159613 0)
(0.0996194 -0.00171192 0)
(0.0995611 -0.0017953 0)
(0.0995052 -0.00184781 0)
(0.0994534 -0.00187442 0)
(0.0994069 -0.00188206 0)
(0.099366 -0.00187808 0)
(0.0993307 -0.00186925 0)
(0.0993006 -0.00186104 0)
(0.0992751 -0.0018574 0)
(0.0992536 -0.00186083 0)
(0.0992353 -0.00187262 0)
(0.0992196 -0.00189312 0)
(0.0992061 -0.00192206 0)
(0.0991943 -0.00195882 0)
(0.0991839 -0.00200259 0)
(0.0991747 -0.00205254 0)
(0.0991666 -0.00210786 0)
(0.0991595 -0.00216785 0)
(0.0991534 -0.00223188 0)
(0.0991483 -0.00229947 0)
(0.0991442 -0.00237018 0)
(0.0991412 -0.00244368 0)
(0.0991394 -0.00251971 0)
(0.0991388 -0.00259802 0)
(0.0991396 -0.00267844 0)
(0.0991417 -0.0027608 0)
(0.0991454 -0.00284498 0)
(0.0991506 -0.00293084 0)
(0.0991574 -0.00301828 0)
(0.099166 -0.00310718 0)
(0.0991763 -0.00319745 0)
(0.0991884 -0.003289 0)
(0.0992024 -0.00338171 0)
(0.0992184 -0.00347551 0)
(0.0992363 -0.00357028 0)
(0.0992563 -0.00366595 0)
(0.0992784 -0.0037624 0)
(0.0993026 -0.00385955 0)
(0.0993289 -0.00395729 0)
(0.0999999 -3.16284e-05 0)
(0.099998 -9.41348e-05 0)
(0.099994 -0.000155692 0)
(0.0999882 -0.000216492 0)
(0.0999807 -0.000276479 0)
(0.0999717 -0.000335989 0)
(0.0999612 -0.000397064 0)
(0.0999491 -0.000464506 0)
(0.0999347 -0.000545446 0)
(0.0999166 -0.000647119 0)
(0.0998934 -0.000773744 0)
(0.0998635 -0.000924084 0)
(0.099826 -0.00109089 0)
(0.0997808 -0.00126246 0)
(0.0997291 -0.00142552 0)
(0.0996725 -0.00156835 0)
(0.0996135 -0.00168303 0)
(0.0995545 -0.00176644 0)
(0.0994976 -0.00181997 0)
(0.0994445 -0.00184837 0)
(0.0993962 -0.00185828 0)
(0.0993532 -0.00185681 0)
(0.0993156 -0.00185049 0)
(0.099283 -0.00184463 0)
(0.0992549 -0.00184308 0)
(0.0992306 -0.00184832 0)
(0.0992095 -0.00186161 0)
(0.099191 -0.00188333 0)
(0.0991746 -0.00191328 0)
(0.0991599 -0.00195086 0)
(0.0991467 -0.00199533 0)
(0.0991347 -0.0020459 0)
(0.0991238 -0.00210179 0)
(0.0991139 -0.00216235 0)
(0.099105 -0.00222698 0)
(0.0990971 -0.0022952 0)
(0.0990903 -0.00236661 0)
(0.0990845 -0.00244089 0)
(0.09908 -0.00251778 0)
(0.0990766 -0.00259705 0)
(0.0990746 -0.00267852 0)
(0.099074 -0.00276205 0)
(0.0990749 -0.0028475 0)
(0.0990773 -0.00293475 0)
(0.0990813 -0.00302369 0)
(0.0990871 -0.00311422 0)
(0.0990946 -0.00320624 0)
(0.0991039 -0.00329965 0)
(0.0991152 -0.00339436 0)
(0.0991284 -0.00349027 0)
(0.0991436 -0.0035873 0)
(0.0991608 -0.00368534 0)
(0.0991802 -0.00378429 0)
(0.0992017 -0.00388407 0)
(0.0992253 -0.00398457 0)
(0.0999999 -3.12477e-05 0)
(0.0999979 -9.30017e-05 0)
(0.0999937 -0.00015382 0)
(0.0999876 -0.000213898 0)
(0.0999797 -0.000273192 0)
(0.0999702 -0.000332029 0)
(0.0999592 -0.000392387 0)
(0.0999464 -0.000458904 0)
(0.0999313 -0.000538486 0)
(0.0999126 -0.000638152 0)
(0.0998889 -0.000762029 0)
(0.0998586 -0.000908981 0)
(0.0998208 -0.00107205 0)
(0.0997755 -0.00123996 0)
(0.0997236 -0.00139988 0)
(0.0996669 -0.00154042 0)
(0.0996075 -0.00165388 0)
(0.0995478 -0.00173716 0)
(0.0994899 -0.00179152 0)
(0.0994354 -0.00182152 0)
(0.0993854 -0.00183351 0)
(0.0993404 -0.00183437 0)
(0.0993005 -0.0018304 0)
(0.0992654 -0.00182676 0)
(0.0992347 -0.00182721 0)
(0.0992076 -0.00183416 0)
(0.0991837 -0.00184889 0)
(0.0991623 -0.0018718 0)
(0.099143 -0.00190271 0)
(0.0991255 -0.00194109 0)
(0.0991094 -0.00198623 0)
(0.0990945 -0.00203738 0)
(0.0990808 -0.00209383 0)
(0.099068 -0.00215492 0)
(0.0990563 -0.00222011 0)
(0.0990456 -0.00228893 0)
(0.0990359 -0.00236101 0)
(0.0990274 -0.00243602 0)
(0.0990199 -0.00251372 0)
(0.0990138 -0.00259389 0)
(0.0990089 -0.00267638 0)
(0.0990054 -0.00276102 0)
(0.0990034 -0.00284769 0)
(0.0990029 -0.00293627 0)
(0.099004 -0.00302666 0)
(0.0990068 -0.00311876 0)
(0.0990114 -0.00321248 0)
(0.0990178 -0.00330771 0)
(0.0990261 -0.00340436 0)
(0.0990364 -0.00350235 0)
(0.0990486 -0.00360158 0)
(0.099063 -0.00370196 0)
(0.0990794 -0.00380338 0)
(0.0990981 -0.00390577 0)
(0.0991189 -0.00400901 0)
(0.0999998 -3.08479e-05 0)
(0.0999978 -9.18117e-05 0)
(0.0999934 -0.000151854 0)
(0.099987 -0.000211174 0)
(0.0999787 -0.000269735 0)
(0.0999687 -0.000327862 0)
(0.0999571 -0.000387467 0)
(0.0999437 -0.000453035 0)
(0.099928 -0.000531252 0)
(0.0999086 -0.000628931 0)
(0.0998843 -0.000750104 0)
(0.0998536 -0.000893724 0)
(0.0998155 -0.00105312 0)
(0.09977 -0.00121739 0)
(0.099718 -0.00137414 0)
(0.099661 -0.00151234 0)
(0.0996012 -0.00162446 0)
(0.0995408 -0.00170746 0)
(0.0994819 -0.00176248 0)
(0.0994261 -0.00179388 0)
(0.0993744 -0.00180777 0)
(0.0993275 -0.00181077 0)
(0.0992853 -0.00180899 0)
(0.0992478 -0.00180744 0)
(0.0992144 -0.00180978 0)
(0.0991846 -0.00181837 0)
(0.0991578 -0.00183447 0)
(0.0991336 -0.00185851 0)
(0.0991115 -0.00189034 0)
(0.099091 -0.00192948 0)
(0.099072 -0.00197525 0)
(0.0990543 -0.00202696 0)
(0.0990376 -0.00208392 0)
(0.099022 -0.00214552 0)
(0.0990074 -0.00221123 0)
(0.0989938 -0.00228061 0)
(0.0989812 -0.0023533 0)
(0.0989697 -0.00242899 0)