/*--------------------------------*- C++ -*----------------------------------*\
| =========                 |                                                 |
| \\      /  F ield         | OpenFOAM: The Open Source CFD Toolbox           |
|  \\    /   O peration     | Version:  2412                                  |
|   \\  /    A nd           | Website:  www.openfoam.com                      |
|    \\/     M anipulation  |                                                 |
\*---------------------------------------------------------------------------*/
FoamFile
{
    version     2.0;
    format      ascii;
    arch        "LSB;label=32;scalar=64";
    class       volVectorField;
    location    "21.5";
    object      vorticity;
}
// * * * * * * * * * * * * * * * * * * * * * * * * * * * * * * * * * * * * * //

dimensions      [0 0 -1 0 0 0 0];

internalField   nonuniform List<vector> 
5285
(
(0 -0 3.36129e-05)
(0 -0 3.31522e-05)
(0 -0 3.26056e-05)
(0 -0 3.20441e-05)
(0 -0 3.14459e-05)
(0 -0 3.08308e-05)
(0 -0 3.01718e-05)
(0 -0 2.94681e-05)
(0 -0 2.87185e-05)
(0 -0 2.79231e-05)
(0 -0 2.70856e-05)
(0 -0 2.62215e-05)
(0 -0 2.53831e-05)
(0 -0 2.47145e-05)
(0 -0 2.44221e-05)
(0 -0 2.42561e-05)
(0 -0 2.82588e-05)
(0 -0 2.78296e-05)
(0 -0 2.73258e-05)
(0 -0 2.67557e-05)
(0 -0 2.61967e-05)
(0 -0 2.56243e-05)
(0 -0 2.50119e-05)
(0 -0 2.4359e-05)
(0 -0 2.3665e-05)
(0 -0 2.29305e-05)
(0 -0 2.21595e-05)
(0 -0 2.13682e-05)
(0 -0 2.06095e-05)
(0 -0 2.00295e-05)
(0 -0 1.98193e-05)
(0 -0 1.9768e-05)
(0 -0 2.31935e-05)
(0 -0 2.27948e-05)
(0 -0 2.22992e-05)
(0 -0 2.17611e-05)
(0 -0 2.12409e-05)
(0 -0 2.07123e-05)
(0 -0 2.01482e-05)
(0 -0 1.95481e-05)
(0 -0 1.89116e-05)
(0 -0 1.82396e-05)
(0 -0 1.75366e-05)
(0 -0 1.68191e-05)
(0 -0 1.61409e-05)
(0 -0 1.56487e-05)
(0 -0 1.55377e-05)
(0 -0 1.55803e-05)
(0 -0 1.84752e-05)
(0 -0 1.81077e-05)
(0 -0 1.76423e-05)
(0 -0 1.71394e-05)
(0 -0 1.66595e-05)
(0 -0 1.61758e-05)
(0 -0 1.56609e-05)
(0 -0 1.51144e-05)
(0 -0 1.45359e-05)
(0 -0 1.39265e-05)
(0 -0 1.32913e-05)
(0 -0 1.26472e-05)
(0 -0 1.20486e-05)
(0 -0 1.16433e-05)
(0 -0 1.16274e-05)
(0 -0 1.17746e-05)
(0 -0 1.41803e-05)
(0 -0 1.38475e-05)
(0 -0 1.34177e-05)
(0 -0 1.29534e-05)
(0 -0 1.25154e-05)
(0 -0 1.20773e-05)
(0 -0 1.16117e-05)
(0 -0 1.11184e-05)
(0 -0 1.05972e-05)
(0 -0 1.00494e-05)
(0 -0 9.48036e-06)
(0 -0 8.90744e-06)
(0 -0 8.38581e-06)
(0 -0 8.06419e-06)
(0 -0 8.13961e-06)
(0 -0 8.38505e-06)
(0 -0 1.0357e-05)
(0 -0 1.006e-05)
(0 -0 9.66778e-06)
(0 -0 9.24327e-06)
(0 -0 8.84775e-06)
(0 -0 8.45486e-06)
(0 -0 8.03774e-06)
(0 -0 7.59617e-06)
(0 -0 7.13026e-06)
(0 -0 6.64158e-06)
(0 -0 6.13573e-06)
(0 -0 5.63049e-06)
(0 -0 5.18169e-06)
(0 -0 4.93892e-06)
(0 -0 5.09972e-06)
(0 -0 5.43595e-06)
(0 -0 7.02784e-06)
(0 -0 6.76604e-06)
(0 -0 6.41111e-06)
(0 -0 6.02597e-06)
(0 -0 5.67192e-06)
(0 -0 5.32284e-06)
(0 -0 4.95216e-06)
(0 -0 4.55985e-06)
(0 -0 4.14621e-06)
(0 -0 3.71305e-06)
(0 -0 3.26627e-06)
(0 -0 2.82402e-06)
(0 -0 2.44272e-06)
(0 -0 2.27272e-06)
(0 -0 2.51179e-06)
(0 -0 2.93067e-06)
(0 -0 4.19352e-06)
(0 -0 3.96535e-06)
(0 -0 3.64607e-06)
(0 -0 3.29849e-06)
(0 -0 2.98377e-06)
(0 -0 2.67594e-06)
(0 -0 2.34871e-06)
(0 -0 2.00218e-06)
(0 -0 1.63685e-06)
(0 -0 1.25472e-06)
(0 -0 8.61975e-07)
(0 -0 4.77132e-07)
(0 -0 1.57115e-07)
(0 -0 5.29029e-08)
(0 -0 3.62325e-07)
(0 -0 8.55031e-07)
(0 -0 1.83671e-06)
(0 -0 1.6399e-06)
(0 -0 1.35379e-06)
(0 -0 1.04107e-06)
(0 -0 7.62613e-07)
(0 -0 4.92619e-07)
(0 -0 2.05008e-07)
(0 -0 -9.99932e-08)
(0 -0 -4.21724e-07)
(0 -0 -7.58004e-07)
(0 -0 -1.10241e-06)
(0 -0 -1.43609e-06)
(0 -0 -1.70165e-06)
(0 -0 -1.74759e-06)
(0 -0 -1.37624e-06)
(0 -0 -8.18889e-07)
(0 -0 -7.42345e-08)
(0 -0 -2.42486e-07)
(0 -0 -4.98456e-07)
(0 -0 -7.79632e-07)
(0 -0 -1.02549e-06)
(0 -0 -1.26169e-06)
(0 -0 -1.51407e-06)
(0 -0 -1.78232e-06)
(0 -0 -2.06565e-06)
(0 -0 -2.36172e-06)
(0 -0 -2.66389e-06)
(0 -0 -2.95301e-06)
(0 -0 -3.17124e-06)
(0 -0 -3.16667e-06)
(0 -0 -2.74187e-06)
(0 -0 -2.12899e-06)
(0 -0 -1.58124e-06)
(0 -0 -1.72409e-06)
(0 -0 -1.95331e-06)
(0 -0 -2.20663e-06)
(0 -0 -2.42393e-06)
(0 -0 -2.63069e-06)
(0 -0 -2.85256e-06)
(0 -0 -3.08911e-06)
(0 -0 -3.33947e-06)
(0 -0 -3.60115e-06)
(0 -0 -3.86733e-06)
(0 -0 -4.11854e-06)
(0 -0 -4.29657e-06)
(0 -0 -4.24912e-06)
(0 -0 -3.77909e-06)
(0 -0 -3.11914e-06)
(0 -0 -2.7325e-06)
(0 -0 -2.85329e-06)
(0 -0 -3.05933e-06)
(0 -0 -3.28864e-06)
(0 -0 -3.48155e-06)
(0 -0 -3.66336e-06)
(0 -0 -3.85949e-06)
(0 -0 -4.06944e-06)
(0 -0 -4.29225e-06)
(0 -0 -4.52531e-06)
(0 -0 -4.7616e-06)
(0 -0 -4.98139e-06)
(0 -0 -5.12605e-06)
(0 -0 -5.04288e-06)
(0 -0 -4.53505e-06)
(0 -0 -3.83528e-06)
(0 -0 -3.57871e-06)
(0 -0 -3.68084e-06)
(0 -0 -3.8673e-06)
(0 -0 -4.07644e-06)
(0 -0 -4.2491e-06)
(0 -0 -4.41038e-06)
(0 -0 -4.58542e-06)
(0 -0 -4.7737e-06)
(0 -0 -4.97415e-06)
(0 -0 -5.18405e-06)
(0 -0 -5.39622e-06)
(0 -0 -5.59065e-06)
(0 -0 -5.70823e-06)
(0 -0 -5.59576e-06)
(0 -0 -5.05624e-06)
(0 -0 -4.32183e-06)
(0 -0 -4.17032e-06)
(0 -0 -4.25714e-06)
(0 -0 -4.42756e-06)
(0 -0 -4.62029e-06)
(0 -0 -4.77667e-06)
(0 -0 -4.92159e-06)
(0 -0 -5.07993e-06)
(0 -0 -5.2511e-06)
(0 -0 -5.43399e-06)
(0 -0 -5.62576e-06)
(0 -0 -5.81908e-06)
(0 -0 -5.99363e-06)
(0 -0 -6.08976e-06)
(0 -0 -5.95335e-06)
(0 -0 -5.38624e-06)
(0 -0 -4.61888e-06)
(0 -0 -4.5568e-06)
(0 -0 -4.6317e-06)
(0 -0 -4.78958e-06)
(0 -0 -4.96948e-06)
(0 -0 -5.11333e-06)
(0 -0 -5.24578e-06)
(0 -0 -5.39141e-06)
(0 -0 -5.54964e-06)
(0 -0 -5.71929e-06)
(0 -0 -5.89746e-06)
(0 -0 -6.07665e-06)
(0 -0 -6.23625e-06)
(0 -0 -6.3159e-06)
(0 -0 -6.1598e-06)
(0 -0 -5.56611e-06)
(0 -0 -4.76067e-06)
(0 -0 -4.79093e-06)
(0 -0 -4.85763e-06)
(0 -0 -5.00653e-06)
(0 -0 -5.17714e-06)
(0 -0 -5.31203e-06)
(0 -0 -5.43564e-06)
(0 -0 -5.57232e-06)
(0 -0 -5.72149e-06)
(0 -0 -5.88194e-06)
(0 -0 -6.05071e-06)
(0 -0 -6.22016e-06)
(0 -0 -6.36943e-06)
(0 -0 -6.4373e-06)
(0 -0 -6.26511e-06)
(0 -0 -5.64091e-06)
(0 -0 -4.77439e-06)
(0 -0 -4.94165e-06)
(0 -0 -5.00508e-06)
(0 -0 -5.14889e-06)
(0 -0 -5.3139e-06)
(0 -0 -5.44358e-06)
(0 -0 -5.56224e-06)
(0 -0 -5.694e-06)
(0 -0 -5.83829e-06)
(0 -0 -5.99389e-06)
(0 -0 -6.15778e-06)
(0 -0 -6.32224e-06)
(0 -0 -6.46624e-06)
(0 -0 -6.52793e-06)
(0 -0 -6.34456e-06)
(0 -0 -5.67689e-06)
(0 -0 -4.7524e-06)
(0 -0 -5.05301e-06)
(0 -0 -5.12311e-06)
(0 -0 -5.26447e-06)
(0 -0 -5.42651e-06)
(0 -0 -5.55419e-06)
(0 -0 -5.67139e-06)
(0 -0 -5.80192e-06)
(0 -0 -5.94519e-06)
(0 -0 -6.09993e-06)
(0 -0 -6.26306e-06)
(0 -0 -6.42688e-06)
(0 -0 -6.57045e-06)
(0 -0 -6.6324e-06)
(0 -0 -6.44633e-06)
(0 -0 -5.78619e-06)
(0 -0 -4.80248e-06)
(0 -0 -5.05669e-06)
(0 -0 -5.10806e-06)
(0 -0 -5.26093e-06)
(0 -0 -5.41611e-06)
(0 -0 -5.54128e-06)
(0 -0 -5.65688e-06)
(0 -0 -5.78604e-06)
(0 -0 -5.92813e-06)
(0 -0 -6.08184e-06)
(0 -0 -6.24405e-06)
(0 -0 -6.40709e-06)
(0 -0 -6.55066e-06)
(0 -0 -6.61626e-06)
(0 -0 -6.44963e-06)
(0 -0 -5.85438e-06)
(0 -0 -4.97616e-06)
(0 -0 -4.79565e-06)
(0 -0 -4.86016e-06)
(0 -0 -4.97532e-06)
(0 -0 -5.13476e-06)
(0 -0 -5.25213e-06)
(0 -0 -5.36268e-06)
(0 -0 -5.48651e-06)
(0 -0 -5.62313e-06)
(0 -0 -5.77133e-06)
(0 -0 -5.92805e-06)
(0 -0 -6.08574e-06)
(0 -0 -6.22487e-06)
(0 -0 -6.29119e-06)
(0 -0 -6.15414e-06)
(0 -0 -5.6413e-06)
(0 -0 -5.01527e-06)
(0 -0 -0.000469307)
(0 -0 -0.000468044)
(0 -0 -0.000466585)
(0 -0 -0.000462837)
(0 -0 -0.000458144)
(0 -0 -0.000465444)
(0 -0 -0.000511825)
(0 -0 -0.000628309)
(0 -0 -0.000830094)
(0 -0 -0.00109965)
(0 -0 -0.0013845)
(0 -0 -0.0016123)
(0 -0 -0.00171563)
(0 -0 -0.00165449)
(0 -0 -0.00142743)
(0 -0 -0.00106871)
(0 -0 -0.000635325)
(0 -0 -0.000190291)
(0 -0 0.00021185)
(0 -0 0.000533828)
(0 -0 0.000758192)
(0 -0 0.000884953)
(0 -0 0.000926529)
(0 -0 0.000902042)
(0 -0 0.000832395)
(0 -0 0.000736796)
(0 -0 0.000630839)
(0 -0 0.000525845)
(0 -0 0.000429086)
(0 -0 0.000344477)
(0 -0 0.000273431)
(0 -0 0.000215694)
(0 -0 0.000170024)
(0 -0 0.000134717)
(0 -0 0.000107949)
(0 -0 8.79907e-05)
(0 -0 7.33227e-05)
(0 -0 6.26727e-05)
(0 -0 5.50168e-05)
(0 -0 4.95552e-05)
(0 -0 4.56779e-05)
(0 -0 4.29292e-05)
(0 -0 4.0974e-05)
(0 -0 3.957e-05)
(0 -0 3.85434e-05)
(0 -0 3.77717e-05)
(0 -0 3.71686e-05)
(0 -0 3.66744e-05)
(0 -0 3.62477e-05)
(0 -0 3.58604e-05)
(0 -0 3.54933e-05)
(0 -0 3.51338e-05)
(0 -0 3.47708e-05)
(0 -0 3.44053e-05)
(0 -0 3.39885e-05)
(0 -0 -0.000467227)
(0 -0 -0.000465951)
(0 -0 -0.000464501)
(0 -0 -0.000460854)
(0 -0 -0.000456268)
(0 -0 -0.00046319)
(0 -0 -0.000507841)
(0 -0 -0.000620477)
(0 -0 -0.000816317)
(0 -0 -0.00107905)
(0 -0 -0.0013584)
(0 -0 -0.0015845)
(0 -0 -0.00169171)
(0 -0 -0.00164046)
(0 -0 -0.00142828)
(0 -0 -0.00108729)
(0 -0 -0.000671905)
(0 -0 -0.000242752)
(0 -0 0.000147342)
(0 -0 0.000461953)
(0 -0 0.00068365)
(0 -0 0.000811841)
(0 -0 0.000857979)
(0 -0 0.000840112)
(0 -0 0.000778135)
(0 -0 0.000690438)
(0 -0 0.000592017)
(0 -0 0.000493817)
(0 -0 0.000402921)
(0 -0 0.000323192)
(0 -0 0.00025609)
(0 -0 0.000201458)
(0 -0 0.000158179)
(0 -0 0.000124676)
(0 -0 9.92445e-05)
(0 -0 8.02615e-05)
(0 -0 6.62934e-05)
(0 -0 5.61387e-05)
(0 -0 4.88284e-05)
(0 -0 4.36046e-05)
(0 -0 3.98887e-05)
(0 -0 3.7248e-05)
(0 -0 3.53644e-05)
(0 -0 3.40073e-05)
(0 -0 3.30116e-05)
(0 -0 3.22606e-05)
(0 -0 3.16722e-05)
(0 -0 3.11895e-05)
(0 -0 3.07732e-05)
(0 -0 3.03963e-05)
(0 -0 3.00406e-05)
(0 -0 2.96944e-05)
(0 -0 2.93505e-05)
(0 -0 2.89937e-05)
(0 -0 2.86337e-05)
(0 -0 -0.000464898)
(0 -0 -0.00046361)
(0 -0 -0.00046217)
(0 -0 -0.000458624)
(0 -0 -0.000454147)
(0 -0 -0.000460696)
(0 -0 -0.000503628)
(0 -0 -0.000612416)
(0 -0 -0.000802272)
(0 -0 -0.00105806)
(0 -0 -0.00133171)
(0 -0 -0.00155579)
(0 -0 -0.00166643)
(0 -0 -0.00162459)
(0 -0 -0.00142681)
(0 -0 -0.00110313)
(0 -0 -0.000705448)
(0 -0 -0.000292015)
(0 -0 8.60456e-05)
(0 -0 0.000393172)
(0 -0 0.000611979)
(0 -0 0.000741306)
(0 -0 0.000791678)
(0 -0 0.000780094)
(0 -0 0.000725469)
(0 -0 0.000645384)
(0 -0 0.000554246)
(0 -0 0.00046263)
(0 -0 0.000377425)
(0 -0 0.000302442)
(0 -0 0.00023918)
(0 -0 0.000187575)
(0 -0 0.000146631)
(0 -0 0.000114892)
(0 -0 9.07708e-05)
(0 -0 7.27454e-05)
(0 -0 5.94672e-05)
(0 -0 4.98028e-05)
(0 -0 4.28367e-05)
(0 -0 3.78519e-05)
(0 -0 3.43003e-05)
(0 -0 3.17718e-05)
(0 -0 2.99645e-05)
(0 -0 2.86595e-05)
(0 -0 2.77001e-05)
(0 -0 2.69752e-05)
(0 -0 2.64069e-05)
(0 -0 2.5941e-05)
(0 -0 2.55401e-05)
(0 -0 2.51784e-05)
(0 -0 2.48387e-05)
(0 -0 2.451e-05)
(0 -0 2.41856e-05)
(0 -0 2.38596e-05)
(0 -0 2.35181e-05)
(0 -0 -0.000462318)
(0 -0 -0.00046102)
(0 -0 -0.000459589)
(0 -0 -0.000456143)
(0 -0 -0.000451775)
(0 -0 -0.000457965)
(0 -0 -0.000499204)
(0 -0 -0.000604177)
(0 -0 -0.000788053)
(0 -0 -0.00103683)
(0 -0 -0.00130456)
(0 -0 -0.00152622)
(0 -0 -0.00163979)
(0 -0 -0.00160672)
(0 -0 -0.00142266)
(0 -0 -0.0011157)
(0 -0 -0.000735241)
(0 -0 -0.000337238)
(0 -0 2.88844e-05)
(0 -0 0.000328435)
(0 -0 0.000544111)
(0 -0 0.000674226)
(0 -0 0.000728423)
(0 -0 0.000722693)
(0 -0 0.000675002)
(0 -0 0.000602146)
(0 -0 0.000517958)
(0 -0 0.000432641)
(0 -0 0.000352896)
(0 -0 0.000282475)
(0 -0 0.00022291)
(0 -0 0.000174225)
(0 -0 0.000135536)
(0 -0 0.000105505)
(0 -0 8.26549e-05)
(0 -0 6.55609e-05)
(0 -0 5.29558e-05)
(0 -0 4.37721e-05)
(0 -0 3.71456e-05)
(0 -0 3.23985e-05)
(0 -0 2.90125e-05)
(0 -0 2.65989e-05)
(0 -0 2.48716e-05)
(0 -0 2.36232e-05)
(0 -0 2.27047e-05)
(0 -0 2.20108e-05)
(0 -0 2.14674e-05)
(0 -0 2.10229e-05)
(0 -0 2.06418e-05)
(0 -0 2.02997e-05)
(0 -0 1.99802e-05)
(0 -0 1.96728e-05)
(0 -0 1.93716e-05)
(0 -0 1.90722e-05)
(0 -0 1.87675e-05)
(0 -0 -0.000459485)
(0 -0 -0.000458178)
(0 -0 -0.000456757)
(0 -0 -0.00045341)
(0 -0 -0.000449152)
(0 -0 -0.000454996)
(0 -0 -0.000494582)
(0 -0 -0.0005958)
(0 -0 -0.000773736)
(0 -0 -0.00101545)
(0 -0 -0.00127706)
(0 -0 -0.00149593)
(0 -0 -0.00161181)
(0 -0 -0.00158676)
(0 -0 -0.00141563)
(0 -0 -0.00112462)
(0 -0 -0.000760773)
(0 -0 -0.000377792)
(0 -0 -2.34384e-05)
(0 -0 0.00026848)
(0 -0 0.000480779)
(0 -0 0.000611299)
(0 -0 0.000668853)
(0 -0 0.000668479)
(0 -0 0.000627231)
(0 -0 0.000561149)
(0 -0 0.000483507)
(0 -0 0.000404149)
(0 -0 0.000329582)
(0 -0 0.000263499)
(0 -0 0.000207458)
(0 -0 0.000161561)
(0 -0 0.000125029)
(0 -0 9.66351e-05)
(0 -0 7.5006e-05)
(0 -0 5.88094e-05)
(0 -0 4.68552e-05)
(0 -0 3.81382e-05)
(0 -0 3.18435e-05)
(0 -0 2.73307e-05)
(0 -0 2.41096e-05)
(0 -0 2.18122e-05)
(0 -0 2.01676e-05)
(0 -0 1.8979e-05)
(0 -0 1.81052e-05)
(0 -0 1.74461e-05)
(0 -0 1.69316e-05)
(0 -0 1.65125e-05)
(0 -0 1.61551e-05)
(0 -0 1.58361e-05)
(0 -0 1.55401e-05)
(0 -0 1.5257e-05)
(0 -0 1.49818e-05)
(0 -0 1.47108e-05)
(0 -0 1.4439e-05)
(0 -0 -0.000456399)
(0 -0 -0.000455084)
(0 -0 -0.000453673)
(0 -0 -0.000450421)
(0 -0 -0.000446273)
(0 -0 -0.000451789)
(0 -0 -0.000489774)
(0 -0 -0.000587319)
(0 -0 -0.000759391)
(0 -0 -0.000994041)
(0 -0 -0.00124936)
(0 -0 -0.00146502)
(0 -0 -0.00158258)
(0 -0 -0.00156472)
(0 -0 -0.00140561)
(0 -0 -0.00112967)
(0 -0 -0.000781707)
(0 -0 -0.000413252)
(0 -0 -7.04334e-05)
(0 -0 0.00021383)
(0 -0 0.000422509)
(0 -0 0.000553028)
(0 -0 0.000613435)
(0 -0 0.000617869)
(0 -0 0.000582521)
(0 -0 0.000522706)
(0 -0 0.00045116)
(0 -0 0.000377377)
(0 -0 0.000307673)
(0 -0 0.000245674)
(0 -0 0.000192958)
(0 -0 0.000149699)
(0 -0 0.000115213)
(0 -0 8.83742e-05)
(0 -0 6.79083e-05)
(0 -0 5.25688e-05)
(0 -0 4.12384e-05)
(0 -0 3.29707e-05)
(0 -0 2.69971e-05)
(0 -0 2.27128e-05)
(0 -0 1.96539e-05)
(0 -0 1.74724e-05)
(0 -0 1.59116e-05)
(0 -0 1.47848e-05)
(0 -0 1.39582e-05)
(0 -0 1.33368e-05)
(0 -0 1.28539e-05)
(0 -0 1.2463e-05)
(0 -0 1.2132e-05)
(0 -0 1.18387e-05)
(0 -0 1.15684e-05)
(0 -0 1.13118e-05)
(0 -0 1.10641e-05)
(0 -0 1.08226e-05)
(0 -0 1.05833e-05)
(0 -0 -0.000453057)
(0 -0 -0.000451736)
(0 -0 -0.000450336)
(0 -0 -0.000447176)
(0 -0 -0.000443137)
(0 -0 -0.000448344)
(0 -0 -0.000484789)
(0 -0 -0.000578763)
(0 -0 -0.000745076)
(0 -0 -0.000972686)
(0 -0 -0.00122157)
(0 -0 -0.00143363)
(0 -0 -0.0015522)
(0 -0 -0.00154067)
(0 -0 -0.00139259)
(0 -0 -0.00113079)
(0 -0 -0.000797903)
(0 -0 -0.000443407)
(0 -0 -0.000111837)
(0 -0 0.000164781)
(0 -0 0.000369612)
(0 -0 0.000499724)
(0 -0 0.000562465)
(0 -0 0.000571135)
(0 -0 0.000541113)
(0 -0 0.000487028)
(0 -0 0.000421099)
(0 -0 0.000352479)
(0 -0 0.000287298)
(0 -0 0.00022911)
(0 -0 0.000179507)
(0 -0 0.000138722)
(0 -0 0.000106158)
(0 -0 8.07857e-05)
(0 -0 6.14186e-05)
(0 -0 4.68909e-05)
(0 -0 3.61533e-05)
(0 -0 2.83144e-05)
(0 -0 2.26487e-05)
(0 -0 1.85848e-05)
(0 -0 1.56839e-05)
(0 -0 1.36163e-05)
(0 -0 1.21388e-05)
(0 -0 1.10744e-05)
(0 -0 1.02962e-05)
(0 -0 9.714e-06)
(0 -0 9.26446e-06)
(0 -0 8.90337e-06)
(0 -0 8.60017e-06)
(0 -0 8.33392e-06)
(0 -0 8.09054e-06)
(0 -0 7.86132e-06)
(0 -0 7.64193e-06)
(0 -0 7.43016e-06)
(0 -0 7.22292e-06)
(0 -0 -0.000449459)
(0 -0 -0.000448133)
(0 -0 -0.000446743)
(0 -0 -0.000443672)
(0 -0 -0.000439741)
(0 -0 -0.00044466)
(0 -0 -0.000479631)
(0 -0 -0.000570152)
(0 -0 -0.000730835)
(0 -0 -0.000951466)
(0 -0 -0.0011938)
(0 -0 -0.00140189)
(0 -0 -0.00152084)
(0 -0 -0.00151475)
(0 -0 -0.00137671)
(0 -0 -0.00112804)
(0 -0 -0.000809385)
(0 -0 -0.000468234)
(0 -0 -0.000147582)
(0 -0 0.000121433)
(0 -0 0.00032221)
(0 -0 0.000451519)
(0 -0 0.000516075)
(0 -0 0.000528404)
(0 -0 0.000503127)
(0 -0 0.000454221)
(0 -0 0.000393417)
(0 -0 0.000329538)
(0 -0 0.000268527)
(0 -0 0.000213868)
(0 -0 0.000167153)
(0 -0 0.000128672)
(0 -0 9.79033e-05)
(0 -0 7.39023e-05)
(0 -0 5.55657e-05)
(0 -0 4.18016e-05)
(0 -0 3.16231e-05)
(0 -0 2.41901e-05)
(0 -0 1.88173e-05)
(0 -0 1.49641e-05)
(0 -0 1.22152e-05)
(0 -0 1.02582e-05)
(0 -0 8.86229e-06)
(0 -0 7.85971e-06)
(0 -0 7.12989e-06)
(0 -0 6.58724e-06)
(0 -0 6.17155e-06)
(0 -0 5.8408e-06)
(0 -0 5.56595e-06)
(0 -0 5.32708e-06)
(0 -0 5.11082e-06)
(0 -0 4.90895e-06)
(0 -0 4.71756e-06)
(0 -0 4.53494e-06)
(0 -0 4.35895e-06)
(0 -0 -0.000445604)
(0 -0 -0.000444275)
(0 -0 -0.000442895)
(0 -0 -0.000439909)
(0 -0 -0.000436084)
(0 -0 -0.000440736)
(0 -0 -0.000474304)
(0 -0 -0.0005615)
(0 -0 -0.000716705)
(0 -0 -0.000930447)
(0 -0 -0.00116615)
(0 -0 -0.00136995)
(0 -0 -0.00148865)
(0 -0 -0.00148716)
(0 -0 -0.00135816)
(0 -0 -0.00112162)
(0 -0 -0.000816327)
(0 -0 -0.000487879)
(0 -0 -0.000177787)
(0 -0 8.37001e-05)
(0 -0 0.000280246)
(0 -0 0.000408379)
(0 -0 0.000474249)
(0 -0 0.000489675)
(0 -0 0.000468568)
(0 -0 0.000424299)
(0 -0 0.000368129)
(0 -0 0.000308567)
(0 -0 0.000251376)
(0 -0 0.00019996)
(0 -0 0.000155911)
(0 -0 0.00011956)
(0 -0 9.04563e-05)
(0 -0 6.77304e-05)
(0 -0 5.03544e-05)
(0 -0 3.73039e-05)
(0 -0 2.76496e-05)
(0 -0 2.05982e-05)
(0 -0 1.55017e-05)
(0 -0 1.18483e-05)
(0 -0 9.24431e-06)
(0 -0 7.39325e-06)
(0 -0 6.07615e-06)
(0 -0 5.13361e-06)
(0 -0 4.45112e-06)
(0 -0 3.94733e-06)
(0 -0 3.56501e-06)
(0 -0 3.2642e-06)
(0 -0 3.01726e-06)
(0 -0 2.80522e-06)
(0 -0 2.6154e-06)
(0 -0 2.44002e-06)
(0 -0 2.27557e-06)
(0 -0 2.12084e-06)
(0 -0 1.97466e-06)
(0 -0 -0.00044149)
(0 -0 -0.00044016)
(0 -0 -0.00043879)
(0 -0 -0.000435885)
(0 -0 -0.000432164)
(0 -0 -0.00043657)
(0 -0 -0.000468807)
(0 -0 -0.000552815)
(0 -0 -0.000702708)
(0 -0 -0.00090968)
(0 -0 -0.00113872)
(0 -0 -0.00133794)
(0 -0 -0.00145583)
(0 -0 -0.00145812)
(0 -0 -0.0013372)
(0 -0 -0.00111182)
(0 -0 -0.000819024)
(0 -0 -0.00050263)
(0 -0 -0.000202717)
(0 -0 5.13442e-05)
(0 -0 0.000243512)
(0 -0 0.00037013)
(0 -0 0.000436847)
(0 -0 0.000454834)
(0 -0 0.000437348)
(0 -0 0.00039719)
(0 -0 0.00034518)
(0 -0 0.000289526)
(0 -0 0.000235811)
(0 -0 0.00018736)
(0 -0 0.000145756)
(0 -0 0.000111367)
(0 -0 8.37994e-05)
(0 -0 6.22533e-05)
(0 -0 4.57682e-05)
(0 -0 3.33812e-05)
(0 -0 2.42154e-05)
(0 -0 1.75207e-05)
(0 -0 1.26835e-05)
(0 -0 9.21812e-06)
(0 -0 6.75089e-06)
(0 -0 5.00028e-06)
(0 -0 3.75813e-06)
(0 -0 2.87291e-06)
(0 -0 2.23576e-06)
(0 -0 1.76929e-06)
(0 -0 1.41903e-06)
(0 -0 1.14697e-06)
(0 -0 9.26742e-07)
(0 -0 7.40296e-07)
(0 -0 5.75536e-07)
(0 -0 4.25132e-07)
(0 -0 2.85936e-07)
(0 -0 1.57234e-07)
(0 -0 3.89328e-08)
(0 -0 -0.000437118)
(0 -0 -0.000435788)
(0 -0 -0.000434429)
(0 -0 -0.000431601)
(0 -0 -0.000427981)
(0 -0 -0.00043216)
(0 -0 -0.00046314)
(0 -0 -0.000544098)
(0 -0 -0.000688861)
(0 -0 -0.000889205)
(0 -0 -0.00111158)
(0 -0 -0.00130599)
(0 -0 -0.00142258)
(0 -0 -0.0014279)
(0 -0 -0.00131415)
(0 -0 -0.001099)
(0 -0 -0.000817861)
(0 -0 -0.000512877)
(0 -0 -0.000222753)
(0 -0 2.40084e-05)
(0 -0 0.000211686)
(0 -0 0.000336489)
(0 -0 0.000403625)
(0 -0 0.000423677)
(0 -0 0.000409299)
(0 -0 0.000372759)
(0 -0 0.000324462)
(0 -0 0.000272325)
(0 -0 0.000221759)
(0 -0 0.000176008)
(0 -0 0.000136639)
(0 -0 0.000104048)
(0 -0 7.78933e-05)
(0 -0 5.74349e-05)
(0 -0 4.1773e-05)
(0 -0 3.00005e-05)
(0 -0 2.12882e-05)
(0 -0 1.49255e-05)
(0 -0 1.03299e-05)
(0 -0 7.04035e-06)
(0 -0 4.70126e-06)
(0 -0 3.04485e-06)
(0 -0 1.87307e-06)
(0 -0 1.04174e-06)
(0 -0 4.47246e-07)
(0 -0 1.59044e-08)
(0 -0 -3.0418e-07)
(0 -0 -5.49266e-07)
(0 -0 -7.44495e-07)
(0 -0 -9.07116e-07)
(0 -0 -1.04867e-06)
(0 -0 -1.17608e-06)
(0 -0 -1.29216e-06)
(0 -0 -1.39708e-06)
(0 -0 -1.4898e-06)
(0 -0 -0.000432487)
(0 -0 -0.000431159)
(0 -0 -0.000429811)
(0 -0 -0.000427057)
(0 -0 -0.000423535)
(0 -0 -0.000427507)
(0 -0 -0.000457299)
(0 -0 -0.000535348)
(0 -0 -0.000675167)
(0 -0 -0.000869049)
(0 -0 -0.00108481)
(0 -0 -0.00127424)
(0 -0 -0.00138908)
(0 -0 -0.00139676)
(0 -0 -0.00128936)
(0 -0 -0.00108356)
(0 -0 -0.00081328)
(0 -0 -0.000519084)
(0 -0 -0.000238356)
(0 -0 1.25238e-06)
(0 -0 0.000184363)
(0 -0 0.000307094)
(0 -0 0.000374269)
(0 -0 0.000395937)
(0 -0 0.000384197)
(0 -0 0.00035082)
(0 -0 0.000305821)
(0 -0 0.00025684)
(0 -0 0.000209118)
(0 -0 0.000165819)
(0 -0 0.000128488)
(0 -0 9.75417e-05)
(0 -0 7.26828e-05)
(0 -0 5.32245e-05)
(0 -0 3.83216e-05)
(0 -0 2.71166e-05)
(0 -0 1.88241e-05)
(0 -0 1.27693e-05)
(0 -0 8.39833e-06)
(0 -0 5.27219e-06)
(0 -0 3.05222e-06)
(0 -0 1.48328e-06)
(0 -0 3.76792e-07)
(0 -0 -4.04559e-07)
(0 -0 -9.59497e-07)
(0 -0 -1.35827e-06)
(0 -0 -1.65043e-06)
(0 -0 -1.87061e-06)
(0 -0 -2.04288e-06)
(0 -0 -2.18374e-06)
(0 -0 -2.30422e-06)
(0 -0 -2.41091e-06)
(0 -0 -2.50623e-06)
(0 -0 -2.58988e-06)
(0 -0 -2.65953e-06)
(0 -0 -0.000427597)
(0 -0 -0.000426273)
(0 -0 -0.000424936)
(0 -0 -0.000422252)
(0 -0 -0.000418826)
(0 -0 -0.000422607)
(0 -0 -0.00045128)
(0 -0 -0.000526559)
(0 -0 -0.000661625)
(0 -0 -0.000849225)
(0 -0 -0.00105844)
(0 -0 -0.00124277)
(0 -0 -0.00135552)
(0 -0 -0.00136497)
(0 -0 -0.00126316)
(0 -0 -0.00106591)
(0 -0 -0.00080575)
(0 -0 -0.00052175)
(0 -0 -0.000250031)
(0 -0 -1.7413e-05)
(0 -0 0.000161085)
(0 -0 0.000281532)
(0 -0 0.000348415)
(0 -0 0.000371302)
(0 -0 0.000361779)
(0 -0 0.000331155)
(0 -0 0.000289077)
(0 -0 0.000242921)
(0 -0 0.000197766)
(0 -0 0.00015669)
(0 -0 0.000121215)
(0 -0 9.17723e-05)
(0 -0 6.81013e-05)
(0 -0 4.95621e-05)
(0 -0 3.53579e-05)
(0 -0 2.46767e-05)
(0 -0 1.67722e-05)
(0 -0 1.10023e-05)
(0 -0 6.83945e-06)
(0 -0 3.86459e-06)
(0 -0 1.7546e-06)
(0 -0 2.66193e-07)
(0 -0 -7.80305e-07)
(0 -0 -1.51574e-06)
(0 -0 -2.0343e-06)
(0 -0 -2.40313e-06)
(0 -0 -2.66965e-06)
(0 -0 -2.86709e-06)
(0 -0 -3.01851e-06)
(0 -0 -3.13977e-06)
(0 -0 -3.24144e-06)
(0 -0 -3.32975e-06)
(0 -0 -3.40681e-06)
(0 -0 -3.47174e-06)
(0 -0 -3.52088e-06)
(0 -0 -0.000422449)
(0 -0 -0.000421129)
(0 -0 -0.000419804)
(0 -0 -0.000417187)
(0 -0 -0.000413854)
(0 -0 -0.000417461)
(0 -0 -0.00044508)
(0 -0 -0.000517722)
(0 -0 -0.000648228)
(0 -0 -0.000829739)
(0 -0 -0.00103252)
(0 -0 -0.00121169)
(0 -0 -0.00132204)
(0 -0 -0.00133276)
(0 -0 -0.00123589)
(0 -0 -0.00104647)
(0 -0 -0.000795741)
(0 -0 -0.000521379)
(0 -0 -0.000258295)
(0 -0 -3.24937e-05)
(0 -0 0.000141378)
(0 -0 0.00025937)
(0 -0 0.00032568)
(0 -0 0.00034944)
(0 -0 0.000341763)
(0 -0 0.000313529)
(0 -0 0.000274035)
(0 -0 0.000230409)
(0 -0 0.000187569)
(0 -0 0.000148509)
(0 -0 0.000114726)
(0 -0 8.66578e-05)
(0 -0 6.4076e-05)
(0 -0 4.63817e-05)
(0 -0 3.28211e-05)
(0 -0 2.26231e-05)
(0 -0 1.50771e-05)
(0 -0 9.57083e-06)
(0 -0 5.60047e-06)
(0 -0 2.76498e-06)
(0 -0 7.55895e-07)
(0 -0 -6.58758e-07)
(0 -0 -1.65026e-06)
(0 -0 -2.34346e-06)
(0 -0 -2.82846e-06)
(0 -0 -3.16967e-06)
(0 -0 -3.41266e-06)
(0 -0 -3.58936e-06)
(0 -0 -3.722e-06)
(0 -0 -3.82579e-06)
(0 -0 -3.91088e-06)
(0 -0 -3.98316e-06)
(0 -0 -4.04442e-06)
(0 -0 -4.09316e-06)
(0 -0 -4.12431e-06)
(0 -0 -0.000417042)
(0 -0 -0.000415729)
(0 -0 -0.000414417)
(0 -0 -0.000411864)
(0 -0 -0.00040862)
(0 -0 -0.000412067)
(0 -0 -0.000438692)
(0 -0 -0.000508828)
(0 -0 -0.000634963)
(0 -0 -0.000810585)
(0 -0 -0.00100706)
(0 -0 -0.00118105)
(0 -0 -0.00128879)
(0 -0 -0.00130035)
(0 -0 -0.00120785)
(0 -0 -0.00102561)
(0 -0 -0.000783695)
(0 -0 -0.000518455)
(0 -0 -0.000263648)
(0 -0 -4.44831e-05)
(0 -0 0.000124772)
(0 -0 0.000240178)
(0 -0 0.000305681)
(0 -0 0.000330018)
(0 -0 0.000323866)
(0 -0 0.000297702)
(0 -0 0.000260495)
(0 -0 0.000219136)
(0 -0 0.000178388)
(0 -0 0.000141161)
(0 -0 0.000108921)
(0 -0 8.21122e-05)
(0 -0 6.05308e-05)
(0 -0 4.3614e-05)
(0 -0 3.0647e-05)
(0 -0 2.08951e-05)
(0 -0 1.36805e-05)
(0 -0 8.41805e-06)
(0 -0 4.62552e-06)
(0 -0 1.91734e-06)
(0 -0 6.08666e-10)
(0 -0 -1.34584e-06)
(0 -0 -2.28596e-06)
(0 -0 -2.93942e-06)
(0 -0 -3.39281e-06)
(0 -0 -3.70813e-06)
(0 -0 -3.92932e-06)
(0 -0 -4.08714e-06)
(0 -0 -4.20296e-06)
(0 -0 -4.29138e-06)
(0 -0 -4.36212e-06)
(0 -0 -4.4207e-06)
(0 -0 -4.46857e-06)
(0 -0 -4.50363e-06)
(0 -0 -4.51925e-06)
(0 -0 -0.000411378)
(0 -0 -0.000410073)
(0 -0 -0.000408774)
(0 -0 -0.000406282)
(0 -0 -0.000403125)
(0 -0 -0.000406425)
(0 -0 -0.000432113)
(0 -0 -0.000499864)
(0 -0 -0.000621812)
(0 -0 -0.00079175)
(0 -0 -0.000982069)
(0 -0 -0.00115089)
(0 -0 -0.00125587)
(0 -0 -0.00126793)
(0 -0 -0.00117929)
(0 -0 -0.00100366)
(0 -0 -0.000770003)
(0 -0 -0.000513413)
(0 -0 -0.000266544)
(0 -0 -5.38337e-05)
(0 -0 0.000110835)
(0 -0 0.000223558)
(0 -0 0.000288061)
(0 -0 0.000312723)
(0 -0 0.000307818)
(0 -0 0.000283446)
(0 -0 0.000248267)
(0 -0 0.000208943)
(0 -0 0.000170088)
(0 -0 0.00013453)
(0 -0 0.000103701)
(0 -0 7.80479e-05)
(0 -0 5.73866e-05)
(0 -0 4.11864e-05)
(0 -0 2.87671e-05)
(0 -0 1.94274e-05)
(0 -0 1.25189e-05)
(0 -0 7.48166e-06)
(0 -0 3.85281e-06)
(0 -0 1.25812e-06)
(0 -0 -5.7342e-07)
(0 -0 -1.8533e-06)
(0 -0 -2.74216e-06)
(0 -0 -3.35609e-06)
(0 -0 -3.77853e-06)
(0 -0 -4.06917e-06)
(0 -0 -4.2702e-06)
(0 -0 -4.41112e-06)
(0 -0 -4.51232e-06)
(0 -0 -4.58775e-06)
(0 -0 -4.6466e-06)
(0 -0 -4.69405e-06)
(0 -0 -4.7312e-06)
(0 -0 -4.75532e-06)
(0 -0 -4.75806e-06)
(0 -0 -0.000405457)
(0 -0 -0.000404162)
(0 -0 -0.000402876)
(0 -0 -0.000400444)
(0 -0 -0.000397371)
(0 -0 -0.000400535)
(0 -0 -0.000425337)
(0 -0 -0.00049082)
(0 -0 -0.000608761)
(0 -0 -0.00077322)
(0 -0 -0.000957551)
(0 -0 -0.00112127)
(0 -0 -0.00122338)
(0 -0 -0.00123565)
(0 -0 -0.00115047)
(0 -0 -0.000980962)
(0 -0 -0.000755065)
(0 -0 -0.000506692)
(0 -0 -0.000267443)
(0 -0 -6.10021e-05)
(0 -0 9.91315e-05)
(0 -0 0.000209108)
(0 -0 0.000272463)
(0 -0 0.000297245)
(0 -0 0.000293355)
(0 -0 0.00027054)
(0 -0 0.000237167)
(0 -0 0.000199679)
(0 -0 0.000162547)
(0 -0 0.000128516)
(0 -0 9.89847e-05)
(0 -0 7.43957e-05)
(0 -0 5.45842e-05)
(0 -0 3.90471e-05)
(0 -0 2.7135e-05)
(0 -0 1.8177e-05)
(0 -0 1.1552e-05)
(0 -0 6.72319e-06)
(0 -0 3.24515e-06)
(0 -0 7.44363e-07)
(0 -0 -1.04298e-06)
(0 -0 -2.24794e-06)
(0 -0 -3.07933e-06)
(0 -0 -3.65112e-06)
(0 -0 -4.04273e-06)
(0 -0 -4.31044e-06)
(0 -0 -4.49399e-06)
(0 -0 -4.62116e-06)
(0 -0 -4.71118e-06)
(0 -0 -4.77715e-06)
(0 -0 -4.82772e-06)
(0 -0 -4.86771e-06)
(0 -0 -4.89795e-06)
(0 -0 -4.91503e-06)
(0 -0 -4.90847e-06)
(0 -0 -0.000399281)
(0 -0 -0.000397997)
(0 -0 -0.000396726)
(0 -0 -0.000394351)
(0 -0 -0.000391359)
(0 -0 -0.000394397)
(0 -0 -0.000418357)
(0 -0 -0.000481671)
(0 -0 -0.000595766)
(0 -0 -0.000754943)
(0 -0 -0.000933463)
(0 -0 -0.00109217)
(0 -0 -0.00119136)
(0 -0 -0.00120367)
(0 -0 -0.00112162)
(0 -0 -0.000957829)
(0 -0 -0.000739272)
(0 -0 -0.000498737)
(0 -0 -0.000266811)
(0 -0 -6.64518e-05)
(0 -0 8.92229e-05)
(0 -0 0.000196429)
(0 -0 0.000258534)
(0 -0 0.000283285)
(0 -0 0.00028023)
(0 -0 0.000258784)
(0 -0 0.000227036)
(0 -0 0.00019122)
(0 -0 0.000155668)
(0 -0 0.000123045)
(0 -0 9.47141e-05)
(0 -0 7.11136e-05)
(0 -0 5.20933e-05)
(0 -0 3.71748e-05)
(0 -0 2.57371e-05)
(0 -0 1.71368e-05)
(0 -0 1.07781e-05)
(0 -0 6.14613e-06)
(0 -0 2.81299e-06)
(0 -0 4.37441e-07)
(0 -0 -1.31552e-06)
(0 -0 -2.56699e-06)
(0 -0 -3.32414e-06)
(0 -0 -3.85044e-06)
(0 -0 -4.21308e-06)
(0 -0 -4.46199e-06)
(0 -0 -4.63309e-06)
(0 -0 -4.7519e-06)
(0 -0 -4.83622e-06)
(0 -0 -4.8983e-06)
(0 -0 -4.94623e-06)
(0 -0 -4.98454e-06)
(0 -0 -5.014e-06)
(0 -0 -5.0305e-06)
(0 -0 -5.02131e-06)
(0 -0 -0.000392851)
(0 -0 -0.00039158)
(0 -0 -0.000390325)
(0 -0 -0.000388005)
(0 -0 -0.000385092)
(0 -0 -0.000388011)
(0 -0 -0.000411168)
(0 -0 -0.000472404)
(0 -0 -0.0005828)
(0 -0 -0.000736876)
(0 -0 -0.000909757)
(0 -0 -0.00106356)
(0 -0 -0.00115984)
(0 -0 -0.00117205)
(0 -0 -0.00109288)
(0 -0 -0.000934491)
(0 -0 -0.000722926)
(0 -0 -0.000489902)
(0 -0 -0.000265037)
(0 -0 -7.05813e-05)
(0 -0 8.07229e-05)
(0 -0 0.000185164)
(0 -0 0.000245959)
(0 -0 0.00027057)
(0 -0 0.000268215)
(0 -0 0.000247993)
(0 -0 0.000217726)
(0 -0 0.00018345)
(0 -0 0.000149362)
(0 -0 0.000118049)
(0 -0 9.08378e-05)
(0 -0 6.81618e-05)
(0 -0 4.98834e-05)
(0 -0 3.55463e-05)
(0 -0 2.45556e-05)
(0 -0 1.62938e-05)
(0 -0 1.01883e-05)
(0 -0 5.74645e-06)
(0 -0 2.56635e-06)
(0 -0 2.82858e-07)
(0 -0 -1.34255e-06)
(0 -0 -2.56479e-06)
(0 -0 -3.42143e-06)
(0 -0 -3.90203e-06)
(0 -0 -4.23977e-06)
(0 -0 -4.47332e-06)
(0 -0 -4.63445e-06)
(0 -0 -4.74653e-06)
(0 -0 -4.82622e-06)
(0 -0 -4.88508e-06)
(0 -0 -4.93082e-06)
(0 -0 -4.96789e-06)
(0 -0 -4.99734e-06)
(0 -0 -5.01388e-06)
(0 -0 -5.01181e-06)
(0 -0 -1.2591e-06)
(0 -0 -2.40619e-06)
(0 -0 -3.21392e-06)
(0 -0 -3.75586e-06)
(0 -0 -4.0803e-06)
(0 -0 -4.30046e-06)
(0 -0 -4.44858e-06)
(0 -0 -4.54805e-06)
(0 -0 -4.61531e-06)
(0 -0 -4.66173e-06)
(0 -0 -4.69487e-06)
(0 -0 -4.71911e-06)
(0 -0 -4.73471e-06)
(0 -0 -4.74801e-06)
(0 -0 -4.73096e-06)
(0 -0 -1.06937e-05)
(0 -0 -1.06793e-05)
(0 -0 -1.06515e-05)
(0 -0 -1.0551e-05)
(0 -0 -1.04365e-05)
(0 -0 -1.07259e-05)
(0 -0 -1.22506e-05)
(0 -0 -1.59211e-05)
(0 -0 -2.21206e-05)
(0 -0 -3.02115e-05)
(0 -0 -3.85033e-05)
(0 -0 -4.47453e-05)
(0 -0 -4.68984e-05)
(0 -0 -4.38186e-05)
(0 -0 -3.55789e-05)
(0 -0 -2.33599e-05)
(0 -0 -9.02896e-06)
(0 -0 5.38955e-06)
(0 -0 1.81681e-05)
(0 -0 2.81486e-05)
(0 -0 3.48163e-05)
(0 -0 3.82196e-05)
(0 -0 3.88041e-05)
(0 -0 3.72278e-05)
(0 -0 3.42005e-05)
(0 -0 3.0371e-05)
(0 -0 2.62641e-05)
(0 -0 2.22596e-05)
(0 -0 1.85998e-05)
(0 -0 1.54124e-05)
(0 -0 1.27402e-05)
(0 -0 1.05688e-05)
(0 -0 8.84981e-06)
(0 -0 7.51938e-06)
(0 -0 6.50967e-06)
(0 -0 5.75656e-06)
(0 -0 5.20355e-06)
(0 -0 4.80324e-06)
(0 -0 4.51731e-06)
(0 -0 4.31566e-06)
(0 -0 4.17523e-06)
(0 -0 4.07868e-06)
(0 -0 4.01318e-06)
(0 -0 3.96939e-06)
(0 -0 3.94057e-06)
(0 -0 3.92191e-06)
(0 -0 3.91001e-06)
(0 -0 3.90249e-06)
(0 -0 3.89767e-06)
(0 -0 3.89439e-06)
(0 -0 3.89185e-06)
(0 -0 3.88949e-06)
(0 -0 3.88692e-06)
(0 -0 3.88389e-06)
(0 -0 3.88019e-06)
(0 -0 -3.18914e-05)
(0 -0 -3.18338e-05)
(0 -0 -3.17445e-05)
(0 -0 -3.14437e-05)
(0 -0 -3.10993e-05)
(0 -0 -3.19434e-05)
(0 -0 -3.64402e-05)
(0 -0 -4.73025e-05)
(0 -0 -6.5698e-05)
(0 -0 -8.97772e-05)
(0 -0 -0.000114563)
(0 -0 -0.000133395)
(0 -0 -0.000140207)
(0 -0 -0.000131562)
(0 -0 -0.000107614)
(0 -0 -7.1804e-05)
(0 -0 -2.96203e-05)
(0 -0 1.29598e-05)
(0 -0 5.08167e-05)
(0 -0 8.05004e-05)
(0 -0 0.000100457)
(0 -0 0.000110797)
(0 -0 0.00011281)
(0 -0 0.000108422)
(0 -0 9.97169e-05)
(0 -0 8.86059e-05)
(0 -0 7.66392e-05)
(0 -0 6.49409e-05)
(0 -0 5.42309e-05)
(0 -0 4.48919e-05)
(0 -0 3.70547e-05)
(0 -0 3.06809e-05)
(0 -0 2.56321e-05)
(0 -0 2.17222e-05)
(0 -0 1.87534e-05)
(0 -0 1.6538e-05)
(0 -0 1.49105e-05)
(0 -0 1.37319e-05)
(0 -0 1.28897e-05)
(0 -0 1.22954e-05)
(0 -0 1.18814e-05)
(0 -0 1.15965e-05)
(0 -0 1.14032e-05)
(0 -0 1.12738e-05)
(0 -0 1.11886e-05)
(0 -0 1.11333e-05)
(0 -0 1.10981e-05)
(0 -0 1.10758e-05)
(0 -0 1.10615e-05)
(0 -0 1.10518e-05)
(0 -0 1.10444e-05)
(0 -0 1.10375e-05)
(0 -0 1.10301e-05)
(0 -0 1.10214e-05)
(0 -0 1.10109e-05)
(0 -0 -5.26606e-05)
(0 -0 -5.25538e-05)
(0 -0 -5.24017e-05)
(0 -0 -5.19075e-05)
(0 -0 -5.13337e-05)
(0 -0 -5.26775e-05)
(0 -0 -5.99677e-05)
(0 -0 -7.76805e-05)
(0 -0 -0.000107814)
(0 -0 -0.000147459)
(0 -0 -0.00018857)
(0 -0 -0.000220285)
(0 -0 -0.000232631)
(0 -0 -0.000219853)
(0 -0 -0.000182032)
(0 -0 -0.000124624)