/*--------------------------------*- C++ -*----------------------------------*\
| =========                 |                                                 |
| \\      /  F ield         | OpenFOAM: The Open Source CFD Toolbox           |
|  \\    /   O peration     | Version:  2412                                  |
|   \\  /    A nd           | Website:  www.openfoam.com                      |
|    \\/     M anipulation  |                                                 |
\*---------------------------------------------------------------------------*/
FoamFile
{
    version     2.0;
    format      ascii;
    arch        "LSB;label=32;scalar=64";
    class       surfaceScalarField;
    location    "2";
    object      phi;
}
// * * * * * * * * * * * * * * * * * * * * * * * * * * * * * * * * * * * * * //

dimensions      [0 3 -1 0 0 0 0];

oriented        oriented;

internalField   nonuniform List<scalar> 
10387
(
0.00488456
6.32698e-06
-2.58854e-09
0.00487667
7.89365e-06
-2.61676e-09
0.00486713
9.54975e-06
-2.73831e-09
0.00485581
1.13208e-05
-2.85772e-09
0.00484258
1.32337e-05
-2.89686e-09
0.00482726
1.53178e-05
-2.80053e-09
0.00480966
1.76067e-05
-2.54636e-09
0.00478952
2.0137e-05
-2.17664e-09
0.00476658
2.29483e-05
-1.75517e-09
0.0047405
2.60819e-05
-1.33984e-09
0.00471091
2.95838e-05
-9.71126e-10
0.00467741
3.35087e-05
-6.74497e-10
0.00463948
3.79265e-05
-4.62838e-10
0.00459655
4.29271e-05
-3.37639e-10
0.00454793
4.86229e-05
-2.94391e-10
0.00449278
5.51504e-05
-3.18678e-10
0.00443011
6.26736e-05
-3.81283e-10
0.00435872
7.13921e-05
-4.45401e-10
0.00427716
8.15568e-05
-4.7438e-10
0.00418367
9.34894e-05
-4.40422e-10
0.00407606
0.000107607
-3.35329e-10
0.00395162
0.000124448
-1.70462e-10
0.0038069
0.000144713
3.599e-11
0.00363759
0.000169311
2.6518e-10
0.00343818
0.000199411
5.06763e-10
0.00320172
0.000236461
7.51575e-10
0.00291966
0.000282056
9.85842e-10
0.00258228
0.000337376
1.18143e-09
0.00218066
0.000401625
1.30831e-09
0.00171189
0.000468768
1.33098e-09
0.00118938
0.000522505
1.23687e-09
0.000658132
0.000531249
1.00845e-09
0.000211976
0.000446155
6.15274e-10
0.000211976
1.25678e-10
0.00485747
1.41479e-05
0.00484809
1.72649e-05
0.00483708
2.05658e-05
0.0048243
2.41007e-05
0.00480961
2.79224e-05
0.00479284
3.20896e-05
0.00477378
3.66687e-05
0.00475218
4.17336e-05
0.00472776
4.73629e-05
0.00470021
5.36397e-05
0.00466914
6.06553e-05
0.00463412
6.85194e-05
0.00459468
7.73724e-05
0.00455021
8.73944e-05
0.00450002
9.881e-05
0.00444328
0.000111891
0.00437899
0.000126965
0.00430595
0.00014443
0.00422272
0.000164786
0.00412754
0.000188673
0.00401823
0.000216919
0.00389208
0.000250594
0.00374571
0.000291082
0.00357485
0.000340178
0.00337407
0.000400188
0.00313658
0.000473947
0.00285411
0.00056453
0.00251742
0.000674071
0.00211842
0.000800623
0.00165546
0.000931727
0.00114332
0.00103465
0.000627361
0.00104721
0.000197881
0.000875636
0.000409856
0.00480376
2.49279e-05
0.00479146
2.95654e-05
0.00477754
3.44911e-05
0.00476186
3.97776e-05
0.00474428
4.55017e-05
0.00472462
5.17502e-05
0.00470266
5.86226e-05
0.00467817
6.62298e-05
0.00465084
7.46901e-05
0.00462035
8.41279e-05
0.00458633
9.468e-05
0.00454834
0.000106512
0.00450587
0.000119834
0.00445835
0.000134919
0.00440506
0.000152102
0.00434516
0.00017179
0.00427766
0.000194468
0.00420135
0.000220734
0.00411481
0.000251332
0.00401626
0.000287215
0.00390358
0.000329608
0.00377408
0.000380088
0.00362447
0.000440693
0.00345059
0.000514055
0.00324724
0.000603535
0.00300797
0.000713225
0.00272507
0.00084743
0.00239034
0.0010088
0.00199738
0.00119358
0.00154682
0.00138229
0.00105566
0.0015258
0.000570147
0.00153272
0.000175796
0.00126999
0.000585652
0.00472483
4.00523e-05
0.00470822
4.61732e-05
0.00469001
5.2699e-05
0.00467007
5.97219e-05
0.00464823
6.73412e-05
0.00462431
7.56703e-05
0.00459809
8.48413e-05
0.00456932
9.50028e-05
0.00453769
0.000106313
0.00450288
0.000118938
0.0044645
0.000133059
0.00442212
0.0001489
0.00437521
0.000166743
0.00432318
0.000186951
0.00426531
0.00020997
0.00420076
0.000236338
0.00412853
0.0002667
0.00404742
0.000301845
0.00395599
0.000342757
0.00385252
0.000390689
0.00373489
0.00044724
0.00360051
0.000514461
0.00344622
0.000594984
0.00326808
0.000692193
0.00306125
0.000810365
0.00281987
0.000954608
0.00253725
0.00113005
0.00220683
0.00133922
0.00182473
0.00157569
0.00139461
0.00181241
0.000935703
0.0019847
0.000493309
0.00197512
0.00014453
0.00161877
0.000730182
0.00462337
6.07892e-05
0.00460119
6.83538e-05
0.00457743
7.64537e-05
0.00455195
8.51977e-05
0.00452459
9.47054e-05
0.00449514
0.000105116
0.00446339
0.000116594
0.00442907
0.000129326
0.00439187
0.000143511
0.00435145
0.000159354
0.00430743
0.000177087
0.00425934
0.000196988
0.00420667
0.000219415
0.0041488
0.000244821
0.004085
0.000273763
0.00401443
0.000306906
0.00393608
0.000345051
0.00384876
0.000389172
0.00375103
0.000440484
0.0036412
0.00050052
0.00351722
0.000571221
0.00337663
0.000655052
0.00321646
0.000755154
0.00303314
0.000875513
0.00282242
0.00102109
0.00257942
0.00119761
0.00229905
0.00141042
0.00197725
0.00166102
0.00161346
0.00193947
0.00121484
0.00221103
0.000801878
0.00239766
0.000414508
0.00236249
0.000112806
0.00192047
0.000842987
0.00450335
8.82629e-05
0.00447447
9.72337e-05
0.00444404
0.000106882
0.00441191
0.000117333
0.00437789
0.000128724
0.00434178
0.000141221
0.00430336
0.000155019
0.00426234
0.000170343
0.00421842
0.000187432
0.00417124
0.000206534
0.0041204
0.000227927
0.00406544
0.00025195
0.00400581
0.000279039
0.0039409
0.000309737
0.00386995
0.00034471
0.00379211
0.000384751
0.00370635
0.00043081
0.00361147
0.000484044
0.00350608
0.00054588
0.00338849
0.000618106
0.00325676
0.000702955
0.00310859
0.000803224
0.00294133
0.000922408
0.00275201
0.00106484
0.00253739
0.0012357
0.00229436
0.00144064
0.00202061
0.00168416
0.0017161
0.00196553
0.00138519
0.00227038
0.00103896
0.00255726
0.000697385
0.00273924
0.000387588
0.00267228
0.000131671
0.00217639
0.000974659
0.0043694
0.000123406
0.00433289
0.000133739
0.00429487
0.000144902
0.00425517
0.000157033
0.0042136
0.00017029
0.00416996
0.000184863
0.004124
0.00020098
0.00407544
0.000218903
0.00402397
0.000238906
0.00396922
0.00026128
0.00391079
0.000286353
0.00384822
0.000314528
0.00378094
0.00034632
0.00370831
0.000382367
0.00362957
0.000423444
0.00354386
0.000470467
0.00345013
0.000524533
0.0033472
0.000586973
0.00323367
0.000659418
0.00310789
0.000743881
0.002968
0.000842844
0.00281188
0.000959344
0.00263723
0.00109706
0.00244171
0.00126036
0.00222333
0.00145409
0.00198116
0.00168281
0.00171665
0.00194868
0.00143544
0.00224675
0.00114939
0.00255643
0.000877657
0.00282899
0.000642531
0.00297437
0.000454336
0.00286048
0.000285562
0.00234516
0.00126022
-3.0445e-05
3.04455e-05
-5.88948e-10
-2.00002e-05
-1.0444e-05
-8.07337e-10
8.4569e-05
-0.000104569
-3.9046e-10
0.000301831
-0.000217263
3.06447e-10
0.000619806
-0.000317975
1.01445e-09
0.00100694
-0.000387136
1.65779e-09
0.00142583
-0.000418893
2.25226e-09
0.0018437
-0.000417875
2.80324e-09
0.00223735
-0.000393654
3.26921e-09
0.00259362
-0.00035627
3.60737e-09
0.00290741
-0.000313794
3.78471e-09
0.00317904
-0.000271632
3.81132e-09
0.00341185
-0.000232814
3.7159e-09
0.0036105
-0.000198653
3.52623e-09
0.00377989
-0.000169396
3.26431e-09
0.00392461
-0.000144719
2.94174e-09
0.00404866
-0.000124057
2.56785e-09
0.00415545
-0.000106787
2.15088e-09
0.00424777
-9.23266e-05
1.71469e-09
0.00432793
-8.0164e-05
1.29905e-09
0.00439781
-6.98739e-05
1.01461e-09
-6.1111e-05
9.29139e-10
-1.65281e-05
4.69736e-05
1.76996e-05
-4.46716e-05
0.000139483
-0.000226352
0.000362364
-0.000440144
0.000674539
-0.000630151
0.00104793
-0.000760529
0.00144957
-0.000820529
0.00185024
-0.000818548
0.00222889
-0.0007723
0.00257322
-0.0007006
0.00287818
-0.000618756
0.00314369
-0.000537148
0.00337256
-0.000461683
0.00356891
-0.000394999
0.00373718
-0.000337666
0.0038816
-0.00028914
0.00400593
-0.000248381
0.00411336
-0.000214222
0.00420658
-0.000185551
0.00428781
-0.000161392
0.00435886
-0.000140921
-0.000123467
1.32012e-05
3.37725e-05
8.63055e-05
-0.000117776
0.000239445
-0.000379491
0.000472484
-0.000673183
0.000773258
-0.000930925
0.00112041
-0.00110768
0.00148928
-0.00118939
0.00185735
-0.00118662
0.0022076
-0.00112255
0.00252939
-0.00102239
0.00281772
-0.000907092
0.00307177
-0.000791192
0.00329328
-0.000683197
0.00348537
-0.000587085
0.00365161
-0.000503912
0.00379557
-0.000433099
0.00392051
-0.000373313
0.00402927
-0.000322983
0.0041243
-0.000280581
0.00420765
-0.00024474
0.00428102
-0.000214297
-0.000188288
4.71447e-05
-1.33723e-05
0.000173036
-0.000243667
0.000365345
-0.0005718
0.000609502
-0.00091734
0.000893411
-0.00121483
0.00120442
-0.00141869
0.00152875
-0.00151373
0.00185278
-0.00151065
0.00216481
-0.00143458
0.00245638
-0.00131395
0.00272253
-0.00117324
0.00296136
-0.00103002
0.00317321
-0.000895051
0.00335981
-0.000773683
0.00352358
-0.00066768
0.00366717
-0.000576691
0.00379318
-0.000499323
0.003904
-0.000433799
0.00400173
-0.000378317
0.00408822
-0.000331227
0.00416502
-0.000291098
-0.000256724
8.11242e-05
-9.44965e-05
0.000263525
-0.000426068
0.000493377
-0.000801652
0.000743573
-0.00116754
0.00100384
-0.0014751
0.00127141
-0.00168626
0.00154426
-0.00178658
0.00181822
-0.00178461
0.00208726
-0.00170363
0.00234516
-0.00157185
0.00258687
-0.00141496
0.00280924
-0.00125239
0.00301093
-0.00109674
0.00319208
-0.000954828
0.00335377
-0.000829375
0.00349765
-0.000720568
0.00362556
-0.000627232
0.00373936
-0.000547599
0.0038408
-0.00047976
0.00393148
-0.0004219
0.00401278
-0.000372399
0.00408592
-0.000329869
-0.000293153
0.000134764
-0.00022926
0.000363557
-0.000654861
0.000609361
-0.00104746
0.000846621
-0.0014048
0.00107078
-0.00169926
0.00128823
-0.00190371
0.0015068
-0.00200515
0.00173015
-0.00200796
0.00195692
-0.00193039
0.00218253
-0.00179746
0.00240156
-0.00163398
0.00260936
-0.0014602
0.00280283
-0.00129021
0.00298043
-0.00113242
0.00314186
-0.000990811
0.00328773
-0.000866434
0.00341912
-0.000758624
0.00353738
-0.000665857
0.00364391
-0.000586288
0.00374006
-0.000518053
0.00382709
-0.00045943
0.00390612
-0.000408901
-0.000365174
0.000202732
-0.000431992
0.000442663
-0.000894792
0.000669687
-0.00127448
0.000870763
-0.00160587
0.00104952
-0.00187802
0.00121825
-0.00207244
0.00138993
-0.00217684
0.00157222
-0.00219025
0.001766
-0.00212416
0.00196722
-0.00199868
0.00216972
-0.00183649
0.00236756
-0.00165804
0.00255616
-0.00147882
0.00273266
-0.00130892
0.00289569
-0.00115384
0.003045
-0.00101574
0.00318108
-0.000894703
0.00330484
-0.000789625
0.00341742
-0.000698859
0.00351996
-0.000620593
0.0036136
-0.00055307
0.00369938
-0.000494687
-0.000444047
0.00132748
-0.00127452
-0.000484954
0.00200573
-0.00157304
0.00255677
-0.00182553
0.00298606
-0.00203516
0.00330489
-0.00219685
0.00353082
-0.00229836
0.00368492
-0.00233094
0.00378878
-0.0022941
0.00386142
-0.00219681
0.00391753
-0.00205479
0.00396699
-0.00188595
0.00401552
-0.00170656
0.00406569
-0.001529
0.00411812
-0.00136135
0.00417233
-0.00120804
0.00422736
-0.00107077
0.0042822
-0.00094955
0.00433598
-0.000843405
0.00438801
-0.000750889
0.00443782
-0.000670402
0.00448512
-0.000600366
0.00452976
-0.000539327
0.00457171
-0.000486001
0.0023869
-0.00189905
-0.00176237
0.00290787
-0.00209401
0.0033272
-0.00224485
0.00364511
-0.00235307
0.00386931
-0.00242105
0.00401504
-0.00244409
0.00410121
-0.00241712
0.00414723
-0.00234012
0.00417028
-0.00221986
0.00418361
-0.00206811
0.00419605
-0.0018984
0.00421253
-0.00172303
0.004235
-0.00155147
0.00426355
-0.00138991
0.00429724
-0.00124173
0.00433472
-0.00110825
0.0043746
-0.00098943
0.00441565
-0.000884456
0.00445688
-0.000792112
0.00449751
-0.000711037
0.00453702
-0.000639874
0.00457504
-0.000577351
-0.000522323
0.00360476
-0.00228191
-0.0032219
0.00391327
-0.00240252
0.00415494
-0.00248652
0.00432875
-0.00252688
0.00443779
-0.00253009
0.00449193
-0.00249823
0.00450506
-0.00243025
0.00449227
-0.00232733
0.00446726
-0.00219485
0.00444063
-0.00204149
0.00441932
-0.00187708
0.00440688
-0.0017106
0.00440437
-0.00154896
0.00441122
-0.00139676
0.00442604
-0.00125655
0.00444712
-0.00112932
0.00447277
-0.00101508
0.00450151
-0.000913193
0.00453209
-0.000822698
0.00456356
-0.000742502
0.00459517
-0.000671482
0.00462638
-0.00060857
-0.000552781
0.00472483
-0.00243349
-0.00457325
0.00483415
-0.00251184
0.00490565
-0.00255802
0.00494037
-0.0025616
0.00493965
-0.00252937
0.00490891
-0.00246749
0.00485698
-0.00237832
0.00479406
-0.00226441
0.00472968
-0.00213047
0.0046712
-0.001983
0.00462321
-0.00182909
0.00458777
-0.00167516
0.00456501
-0.0015262
0.00455383
-0.00138558
0.00455253
-0.00125524
0.00455921
-0.001136
0.00457205
-0.00102792
0.00458943
-0.000930578
0.00461001
-0.000843272
0.00463267
-0.000765168
0.00465657
-0.000695382
0.00468105
-0.00063305
-0.000577356
0.0056142
-0.00240238
-0.00564531
0.00556808
-0.00246572
0.00550654
-0.00249647
0.00543145
-0.00248651
0.00534395
-0.00244187
0.0052468
-0.00237034
0.00514499
-0.00227651
0.00504463
-0.00216406
0.00495154
-0.00203737
0.00487009
-0.00190155
0.00480278
-0.00176178
0.00475033
-0.00162272
0.00471214
-0.001488
0.00468674
-0.00136019
0.00467229
-0.00124079
0.00466686
-0.00113057
0.00466861
-0.00102968
0.00467593
-0.000937896
0.00468743
-0.000854769
0.00470196
-0.000779701
0.00471861
-0.000712034
0.00473666
-0.000651095
-0.000596232
0.00623682
-0.00225089
-0.00638832
0.0060879
-0.00231681
0.00593868
-0.00234725
0.00579082
-0.00233865
0.00564559
-0.00229665
0.00550447
-0.00222922
0.00537002
-0.00214206
0.00524554
-0.00203957
0.00513409
-0.00192593
0.00503784
-0.0018053
0.00495773
-0.00168167
0.00489352
-0.00155851
0.00484414
-0.00143862
0.00480796
-0.00132401
0.00478314
-0.00121597
0.00476782
-0.00111525
0.00476025
-0.00102211
0.00475889
-0.000936534
0.00476239
-0.000858264
0.00476961
-0.000786925
0.00477963
-0.000722057
0.0047917
-0.000663162
-0.000609741
0.00661947
-0.00203663
-0.00683372
0.00641549
-0.00211283
0.00621924
-0.002151
0.00603222
-0.00215163
0.00585593
-0.00212036
0.00569136
-0.00206464
0.00553978
-0.00199049
0.0054028
-0.00190258
0.00528177
-0.0018049
0.00517746
-0.00170099
0.00508983
-0.00159404
0.00501813
-0.00148681
0.00496106
-0.00138155
0.00491702
-0.00127996
0.00488425
-0.00118321
0.00486107
-0.00109206
0.00484585
-0.0010069
0.00483718
-0.000927858
0.00483378
-0.000854867
0.00483458
-0.000787729
0.00483868
-0.000726155
0.00484532
-0.000669803
-0.000618307
0.00681708
-0.00180287
-0.00705084
0.00659413
-0.00188989
0.00638138
-0.00193825
0.00618065
-0.0019509
0.00599365
-0.00193337
0.00582137
-0.00189235
0.00566455
-0.00183367
0.00552393
-0.00176196
0.00539996
-0.00168093
0.00529267
-0.0015937
0.00520157
-0.00150293
0.00512568
-0.00141093
0.00506372
-0.00131959
0.00501419
-0.00123043
0.00497554
-0.00114457
0.00494626
-0.00106278
0.00492491
-0.000985553
0.0049102
-0.00091315
0.00490099
-0.00084565
0.00489626
-0.000783002
0.00489517
-0.000725059
0.00489697
-0.000671612
-0.00062241
0.00688774
-0.00157658
-0.00711402
0.00666915
-0.0016713
0.00645977
-0.00172887
0.00626198
-0.00175311
0.0060778
-0.00174919
0.00590836
-0.00172292
0.00575434
-0.00167965
0.00561612
-0.00162374
0.00549381
-0.00155862
0.00538713
-0.00148702
0.00529546
-0.00141127
0.00521787
-0.00133333
0.00515318
-0.0012549
0.0051001
-0.00117735
0.00505728
-0.00110175
0.00502343
-0.00102892
0.00499728
-0.00095941
0.00497771
-0.000893578
0.00496368
-0.000831619
0.00495428
-0.000773601
0.00494871
-0.000719492
0.00494629
-0.000669193
-0.000622551
0.00687974
-0.0013714
-0.00708492
0.00667815
-0.00146971
0.00648322
-0.00153394
0.00629786
-0.00156774
0.00612431
-0.00157564
0.00596396
-0.00156257
0.00581756
-0.00153325
0.00568546
-0.00149165
0.00556771
-0.00144087
0.00546403
-0.00138334
0.00537385
-0.00132109
0.00529637
-0.00125585
0.00523061
-0.00118914
0.00517551
-0.00112224
0.00512994
-0.00105618
0.0050928
-0.00099178
0.00506303
-0.000929636
0.00503963
-0.00087018
0.0050217
-0.00081369
0.00500842
-0.000760323
0.00499907
-0.000710141
0.00499301
-0.000663131
-0.000619226
0.00682783
-0.00119205
-0.00700718
0.00664842
-0.00129029
0.00647284
-0.00135836
0.00630429
-0.00139919
0.00614516
-0.00141652
0.00599701
-0.00141441
0.00586073
-0.00139697
0.00573679
-0.00136771
0.0056253
-0.00132938
0.00552611
-0.00128414
0.00543878
-0.00123376
0.00536273
-0.00117979
0.00529717
-0.00112359
0.00524126
-0.00106634
0.0051941
-0.00100902
0.00515476
-0.00095244
0.00512235
-0.000897233
0.00509604
-0.000843867
0.00507503
-0.00079268
0.0050586
-0.000743895
0.00504611
-0.000697643
0.00503696
-0.000653983
-0.000612915
0.00675445
-0.00103823
-0.00690827
0.00659793
-0.00113377
0.0064428
-0.00120323
0.00629227
-0.00124867
0.00614877
-0.00127301
0.00601392
-0.00127956
0.00588876
-0.00127181
0.00577387
-0.00125282
0.00566952
-0.00122503
0.00557567
-0.0011903
0.0054921
-0.0011502
0.00541839
-0.00110608
0.00535398
-0.00105918
0.00529822
-0.00101057
0.00525038
-0.000961182
0.00520974
-0.000911798
0.00517556
-0.000863048
0.00514712
-0.000815428
0.00512375
-0.000769311
0.00510482
-0.000724967
0.00508976
-0.000682581
0.00507804
-0.000642264
-0.000604069
0.00667289
-0.000907378
-0.00680375
0.00653772
-0.000998595
0.00640207
-0.00106759
0.00626902
-0.00111562
0.00614086
-0.00114485
0.00601924
-0.00115794
0.00590527
-0.00115784
0.00579964
-0.0011472
0.00570274
-0.00112812
0.00561469
-0.00110225
0.00553542
-0.00107093
0.00546469
-0.00103535
0.00540211
-0.000996607
0.00534722
-0.000955676
0.00529946
-0.000913423
0.00525825
-0.000870589
0.00522299
-0.000827792
0.0051931
-0.000785534
0.005168
-0.000744209
0.00514715
-0.000704117
0.00513004
-0.000665477
0.00511622
-0.000628441
-0.000593106
0.00659047
-0.00079624
-0.00670161
0.00647417
-0.000882298
0.00635615
-0.000949562
0.00623915
-0.000998619
0.00612531
-0.001031
0.00601621
-0.00104884
0.00591299
-0.00105462
0.0058164
-0.00105061
0.00572693
-0.00103865
0.00564483
-0.00102014
0.00557015
-0.000996249
0.0055028
-0.000968005
0.00544256
-0.000936363
0.00538908
-0.000902204
0.00534198
-0.000866319
0.0053008
-0.000829404
0.00526505
-0.000792051
0.00523427
-0.000754754
0.00520798
-0.000717914
0.00518571
-0.000681846
0.00516703
-0.000646795
0.00515152
-0.00061294
-0.000580408
0.00651087
-0.00070166
-0.00660545
0.00641083
-0.000782259
0.00630827
-0.000847001
0.0062056
-0.000895952
0.00610474
-0.000930146
0.00600717
-0.000951275
0.005914
-0.00096144
0.005826
-0.000962618
0.00574373
-0.000956381
0.00566753
-0.000943937
0.00559755
-0.000926275
0.00553383
-0.00090428
0.00547624
-0.000878779
0.00542459
-0.000850552
0.00537859
-0.000820316
0.0053379
-0.000788713
0.00530215
-0.000756302
0.00527096
-0.000723559
0.00524392
-0.000690881
0.00522067
-0.000658589
0.00520081
-0.000626941
0.00518401
-0.000596135
-0.00056632
0.00643575
-0.000620866
-0.00651654
0.00634953
-0.00069604
0.00626034
-0.000757816
0.00617027
-0.000805875
0.00608098
-0.000840863
0.00599384
-0.000864136
0.00590989
-0.000877491
0.00582992
-0.000882645
0.0057545
-0.000880959
0.00568402
-0.000873462
0.00561874
-0.000860987
0.00555874
-0.000844283
0.00550402
-0.00082406
0.00545447
-0.000801
0.0054099
-0.000775745
0.00537007
-0.000748881
0.00533469
-0.000720928
0.00530347
-0.000692338
0.00527608
-0.000663494
0.00525221
-0.000634717
0.00523154
-0.000606269
0.00521376
-0.000578358
-0.000551149
0.00636571
-0.000551541
-0.00643504
0.00629118
-0.000621506
0.00621348
-0.000680113
0.00613436
-0.000726762
0.00605531
-0.000761804
0.00597751
-0.00078634
0.00590195
-0.000801928
0.00582938
-0.000810074
0.00576038
-0.000811959
0.00569538
-0.000808461
0.00563466
-0.000800275
0.00557841
-0.000788024
0.00552666
-0.000772311
0.00547938
-0.000753728
0.00543648
-0.000732842
0.00539778
-0.000710183
0.00536308
-0.000686229
0.00533215
-0.000661402
0.00530472
-0.00063607
0.00528055
-0.000610542
0.00525936
-0.000585081
0.0052409
-0.000559898
-0.000535168
0.00630082
-0.000491781
-0.00636058
0.00623617
-0.000556852
0.0061683
-0.000612245
0.00609869
-0.000657159
0.00602862
-0.00069173
0.00595914
-0.000716863
0.00589115
-0.000733933
0.00582535
-0.000744276
0.00576232
-0.000748928
0.00570249
-0.000748632
0.00564618
-0.000743965
0.00559359
-0.000735439
0.00554484
-0.000723562
0.00549995
-0.000708838
0.00545888
-0.000691767
0.00542152
-0.000672821
0.00538772
-0.000652435
0.00535732
-0.000631002
0.00533012
-0.000608865
0.0053059
-0.000586324
0.00528445
-0.000563633
0.00526556
-0.000541003
-0.000518612
0.00624087
-0.000440038
-0.00629262
0.00618459
-0.000500564
0.00612514
-0.000552798
0.00606377
-0.000595795
0.00600157
-0.000629529
0.00593947
-0.000654765
0.00587828
-0.000672736
0.00581864
-0.000684642
0.00576111
-0.0006914
0.00570613
-0.000693642
0.005654
-0.000691842
0.00560498
-0.000686416
0.0055592
-0.000677783
0.00551673
-0.000666371
0.00547758
-0.000652615
0.00544169
-0.000636933
0.00540898
-0.000619718
0.0053793
-0.000601329
0.00535253
-0.000582089
0.00532848
-0.000562277
0.00530699
-0.00054214
0.00528787
-0.000521885
-0.000501688
0.00618557
-0.000395046
-0.00623056
0.00613639
-0.000451384
0.00608417
-0.000500575
0.00602994
-0.000541568
0.00597463
-0.000574223
0.00591907
-0.0005992
0.00586396
-0.000617625
0.00580991
-0.000630592
0.00575743
-0.000638921
0.00570694
-0.000643151
0.00565876
-0.000643669
0.00561315
-0.000640806
0.00557027
-0.000634903
0.00553022
-0.000626321
0.00549304
-0.000615433
0.00545872
-0.000602608
0.0054272
-0.000588199
0.0053984
-0.000572531
0.00537221
-0.000555901
0.00534851
-0.000538574
0.00532715
-0.000520781
0.00530799
-0.000502723
-0.000484572
0.00613456
-0.000355768
-0.00617384
0.00609144
-0.000408266
0.00604543
-0.000454564
0.0059974
-0.000493534
0.00594813
-0.000524955
0.00589834
-0.000549414
0.00584867
-0.000567954
0.00579967
-0.000581588
0.0057518
-0.000591055
0.00570547
-0.00059682
0.005661
-0.000599193
0.00561863
-0.000598435
0.00557854
-0.000594819
0.00554087
-0.000588644
0.00550566
-0.000580229
0.00547295
-0.000569896
0.00544271
-0.000557959
0.00541489
-0.000544713
0.00538942
-0.000530429
0.0053662
-0.000515352
0.00534512
-0.0004997
0.00532606
-0.000483665
-0.000467414
0.00608751
-0.00032135
-0.00612192
0.00604958
-0.000370336
0.00600892
-0.000413907
0.00596627
-0.000450882
0.00592229
-0.000480981
0.00587762
-0.00050474
0.00583281
-0.00052314
0.00578835
-0.000537132
0.00574469
-0.000547391
0.00570218
-0.000554319
0.00566115
-0.000558162
0.00562184
-0.000559121
0.00558443
-0.000557409
0.00554906
-0.000553272
0.00551581
-0.00054698
0.00548472
-0.000538812
0.00545581
-0.000529046
0.00542905
-0.000517948
0.00540438
-0.000505763
0.00538175
-0.000492717
0.00536106
-0.000479014
0.00534223
-0.000464835
-0.000450338
0.00604407
-0.000291085
-0.00607434
0.0060106
-0.000336864
0.00597458
-0.000377881
0.00593661
-0.000412916
0.00589728
-0.000441652
0.00585713
-0.000464587
0.00581665
-0.000482661
0.00577629
-0.000496773
0.00573644
-0.000507546
0.00569746
-0.000515333
0.00565962
-0.000520325
0.00562317
-0.000522673
0.0055883
-0.000522537
0.00555515
-0.000520118
0.00552381
-0.000515641
0.00549434
-0.000509347
0.00546678
-0.000501482
0.00544111
-0.000492282
0.00541732
-0.00048197
0.00539535
-0.000470751
0.00537516
-0.000458815
0.00535665
-0.000446331
-0.000433449
0.00600395
-0.000264384
-0.00603065
0.00597432
-0.000307235
0.00594231
-0.00034587
0.00590844
-0.000379041
0.00587319
-0.000406405
0.00583704
-0.00042844
0.00580043
-0.00044605
0.00576376
-0.000460099
0.00572738
-0.000471167
0.00569161
-0.000479564
0.00565673
-0.00048544
0.00562295
-0.000488899
0.00559048
-0.00049006
0.00555944
-0.000489081
0.00552995
-0.00048615
0.00550207
-0.000481474
0.00547586
-0.000475267
0.00545132
-0.00046774
0.00542844
-0.000459092
0.0054072
-0.000449512
0.00538756
-0.000439173
0.00536946
-0.000428232
-0.000416831
0.00596685
-0.000240754
-0.00599048
0.00594055
-0.000280933
0.00591203
-0.000317352
0.00588174
-0.000348745
0.00585009
-0.000374753
0.00581749
-0.000395842
0.00578433
-0.000412893
0.00575097
-0.000426739
0.00571773
-0.000437929
0.00568491
-0.000446736
0.00565274
-0.000453276
0.00562145
-0.000457613
0.00559123
-0.000459833
0.0055622
-0.000460055
0.00553449
-0.000458435
0.00550816
-0.000455149
0.00548328
-0.000450385
0.00545987
-0.000444327
0.00543793
-0.000437155
0.00541746
-0.00042904
0.00539842
-0.00042014
0.00538079
-0.0004106
-0.000400553
0.00593251
-0.000219781
-0.00595349
0.0059091
-0.000257521
0.00588363
-0.000291881
0.00585647
-0.000321587
0.00582799
-0.000346272
0.00579855
-0.000366394
0.00576847
-0.000382821
0.0057381
-0.000396361
0.0057077
-0.000407536
0.00567756
-0.000416592
0.0056479
-0.000423613
0.00561892
-0.000428635
0.00559079
-0.00043171
0.00556367
-0.000432928
0.00553765
-0.000432414
0.00551282
-0.00043032
0.00548924
-0.000426805
0.00546695
-0.000422035
0.00544596
-0.000416169
0.00542628
-0.00040936
0.00540789
-0.000401753
0.00539077
-0.000393482
-0.000384668
0.0059007
-0.000201117
-0.00591936
0.0058798
-0.000236627
0.005857
-0.000269078
0.0058326
-0.000297189
0.00580692
-0.000320593
0.00578028
-0.000339747
0.00575296
-0.000355507
0.00572526
-0.000368665
0.00569745
-0.000379719
0.00566975
-0.000388894
0.00564238
-0.000396248
0.00561554
-0.000401792
0.00558938
-0.00040555
0.00556404
-0.000407587
0.00553963
-0.000408003
0.00551623
-0.000406925
0.00549392
-0.000404491
0.00547273
-0.000400845
0.00545269
-0.00039613
0.00543381
-0.000390483
0.0054161
-0.000384036
0.00539952
-0.00037691
-0.000369218
0.00587118
-0.000184466
-0.00588783
0.00585249
-0.000217936
0.00583203
-0.000248616
0.00581006
-0.000275223
0.00578687
-0.000297395
0.00576271
-0.000315591
0.00573786
-0.000330661
0.00571258
-0.000343381
0.0056871
-0.000354234
0.00566163
-0.000363424
0.00563637
-0.00037099
0.00561149
-0.000376919
0.00558716
-0.000381216
0.00556349
-0.000383921
0.00554061
-0.000385114
0.00551858
-0.000384899
0.00549748
-0.000383395
0.00547737
-0.000380729
0.00545827
-0.000377027
0.00544019
-0.000372412
0.00542316
-0.000367002
0.00540716
-0.000360907
-0.000354233
0.00584377
-0.000169577
-0.00585866
0.00582702
-0.000201178
0.00580861
-0.000230214
0.0057888
-0.000255406
0.0057678
-0.000276399
0.00574587
-0.000293657
0.00572323
-0.000308026
0.00570012
-0.00032027
0.00567675
-0.00033086
0.00565331
-0.000339983
0.00562998
-0.000347661
0.00560692
-0.000353864
0.00558428
-0.000358577
0.00556218
-0.000361822
0.00554073
-0.000363658
0.00552
-0.000364174
0.00550008
-0.000363469
0.005481
-0.000361654
0.00546282
-0.000358841
0.00544554
-0.000355139
0.0054292
-0.000350654
0.00541378
-0.000345487
-0.000339734
0.0058183
-0.000156237
-0.00583164
0.00580324
-0.000186123
0.00578666
-0.000213632
0.00576875
-0.000237494
0.00574971
-0.00025736
0.00572976
-0.000273706
0.0057091
-0.000287372
0.00568795
-0.000299117
0.00566648
-0.000309398
0.00564489
-0.000318388
0.00562333
-0.000326098
0.00560195
-0.000332482
0.00558088
-0.000337508
0.00556024
-0.000341183
0.00554013
-0.000343551
0.00552064
-0.00034468
0.00550183
-0.000344659
0.00548375
-0.000343582
0.00546646
-0.000341546
0.00544997
-0.000338651
0.00543431
-0.000334991
0.00541948
-0.000330656
-0.000325735
0.00579459
-0.00580656
0.00578104
-0.00017257
0.00576607
-0.000198661
0.00574984
-0.000221271
0.00573255
-0.000240065
0.00571437
-0.000255526
0.00569549
-0.000268497
0.0056761
-0.000279727
0.00565637
-0.000289665
0.00563646
-0.000298474
0.00561651
-0.00030615
0.00559667
-0.000312638
0.00557705
-0.000317892
0.00555777
-0.000321905
0.00553893
-0.000324705
0.00552059
-0.000326349
0.00550285
-0.00032691
0.00548573
-0.00032647
0.0054693
-0.000325114
0.00545358
-0.00032293
0.00543859
-0.000320003
0.00542435
-0.000316414
-0.000312242
0.00576029
0.00574675
0.00573203
0.00571629
0.0056997
0.00568242
0.00566462
0.00564645
0.00562807
0.0056096
0.00559117
0.00557289
0.00555488
0.00553722
0.00551998
0.00550324
0.00548704
0.00547144
0.00545646
0.00544214
0.00542848
0.00143321
0.000110755
-0.00154396
0.00128854
0.000144665
0.00111763
0.000170912
0.000930738
0.000186893
0.000739783
0.000190955
0.000568816
0.000170966
8.38619e-05
0.00390941
0.000294763
-0.00409342
0.00365616
0.000397919
0.00334127
0.000485798
0.00297771
0.000550452
0.00258273
0.00058594
0.00218115
0.000572545
0.000502641
0.00575103
0.00046468
-0.00592094
0.00549521
0.000653737
0.00515765
0.000823361
0.00474838
0.000959722
0.00428162
0.0010527
0.0037727
0.00108147
0.00105343
0.00689821
0.000577726
-0.00701125
0.00670211
0.000849829
0.00642265
0.00110282
0.00606283
0.00131955
0.00562947
0.00148606
0.00512848
0.00158245
0.00160867
0.00745801
0.000628642
-0.00750893
0.00733838
0.00096946
0.00714725
0.00129395
0.00688196
0.00158484
0.00654205
0.00182596
0.00612564
0.00199886
0.002089
0.00761785
0.000632606
-0.00762181
0.00756359
0.00102372
0.00745574
0.0014018
0.00728913
0.00175145
0.00705868
0.00205641
0.0067573
0.00230025
0.00245799
0.00755325
0.000608753
-0.0075294
0.00754388
0.00103308
0.00749863
0.00144706
0.00741231
0.00183777
0.00727826
0.00219046
0.00708741
0.0024911
0.00271167
0.00738761
0.000572304
-0.00735116
0.00740424
0.00101645
0.00739934
0.00145195
0.00736892
0.00186819
0.00730685
0.00225253
0.00720459
0.00259336
0.00286542
0.00719158
0.000532655
-0.00715193
0.007221
0.00098704
0.00723927
0.00143368
0.00724377
0.00186369
0.00722984
0.00226647
0.00719065
0.00263255
0.00294205
0.00699889
0.000494476
-0.00696071
0.00703338
0.000952545
0.00706377
0.00140329
0.00708854
0.00183892
0.00710449
0.00225052
0.00710676
0.00263028
0.00296388
0.00682243
0.000459455
-0.00678741
0.00685811
0.00091687
0.00689436
0.00136704
0.00693035
0.00180293
0.00696407
0.0022168
0.00699225
0.00260209
0.00294895
0.00666533
0.000427996
-0.00663387
0.00670045
0.000881745
0.00673928
0.00132822
0.00678137
0.00176083
0.00682549
0.00217268
0.00686952
0.00255806
0.0029102
0.00652671
0.000399944
-0.00649866
0.00656062
0.00084784
0.0066004
0.00128843
0.00664582
0.00171541
0.00669608
0.00212242
0.00674982
0.00250433
0.00285627
0.00640447
0.000374862
-0.00637939
0.00643699
0.000815317
0.00647697
0.00124846
0.00652423
0.00166815
0.00657821
0.00206844
0.00663801
0.00244453
0.00279267
0.00629637
0.000352311
-0.00627382
0.00632755
0.000784134
0.00636735
0.00120865
0.00641563
0.00161988
0.00647194
0.00201212
0.00653562
0.00238085
0.00272285
0.00620039
0.000331908
-0.00617998
0.00623034
0.000754182
0.0062698
0.00116919