/*--------------------------------*- C++ -*----------------------------------*\
| =========                 |                                                 |
| \\      /  F ield         | OpenFOAM: The Open Source CFD Toolbox           |
|  \\    /   O peration     | Version:  2412                                  |
|   \\  /    A nd           | Website:  www.openfoam.com                      |
|    \\/     M anipulation  |                                                 |
\*---------------------------------------------------------------------------*/
FoamFile
{
    version     2.0;
    format      ascii;
    arch        "LSB;label=32;scalar=64";
    class       volScalarField;
    location    "17.5";
    object      p;
}
// * * * * * * * * * * * * * * * * * * * * * * * * * * * * * * * * * * * * * //

dimensions      [0 2 -2 0 0 0 0];

internalField   nonuniform List<scalar> 
63420
(
0.000952033
0.000952291
0.000953114
0.000954383
0.000956083
0.000958201
0.000960719
0.000963625
0.000966906
0.000970551
0.000974552
0.000978896
0.000983577
0.000988588
0.000993923
0.000999581
0.00100556
0.00101186
0.00101848
0.00102543
0.00103269
0.00104029
0.0010482
0.00105645
0.00106502
0.00107393
0.00108317
0.00109275
0.00110266
0.00111291
0.00112351
0.00113446
0.00114575
0.0011574
0.00116941
0.00118177
0.0011945
0.0012076
0.00122107
0.00123492
0.00124915
0.00126376
0.00127876
0.00129416
0.00130995
0.00132614
0.00134275
0.00135976
0.00137719
0.00139504
0.00141331
0.00143201
0.00145115
0.00147073
0.00149076
0.000951973
0.000952232
0.000953053
0.000954322
0.000956021
0.000958137
0.000960653
0.000963557
0.000966835
0.000970478
0.000974475
0.000978817
0.000983494
0.000988501
0.000993832
0.000999485
0.00100546
0.00101175
0.00101837
0.00102531
0.00103257
0.00104015
0.00104806
0.0010563
0.00106487
0.00107377
0.00108299
0.00109256
0.00110246
0.0011127
0.00112329
0.00113422
0.0011455
0.00115714
0.00116912
0.00118147
0.00119419
0.00120727
0.00122072
0.00123454
0.00124875
0.00126334
0.00127831
0.00129368
0.00130944
0.00132561
0.00134218
0.00135915
0.00137655
0.00139436
0.00141259
0.00143125
0.00145034
0.00146987
0.00148985
0.000951854
0.000952112
0.000952933
0.000954199
0.000955896
0.000958009
0.000960522
0.000963421
0.000966695
0.000970332
0.000974323
0.000978658
0.000983328
0.000988326
0.000993649
0.000999293
0.00100526
0.00101154
0.00101815
0.00102507
0.00103232
0.00103989
0.00104778
0.00105601
0.00106456
0.00107343
0.00108264
0.00109219
0.00110207
0.00111229
0.00112285
0.00113375
0.001145
0.00115661
0.00116856
0.00118088
0.00119356
0.0012066
0.00122001
0.00123379
0.00124795
0.00126249
0.00127741
0.00129273
0.00130843
0.00132453
0.00134104
0.00135795
0.00137527
0.001393
0.00141115
0.00142972
0.00144872
0.00146816
0.00148803
0.000951676
0.000951933
0.000952752
0.000954016
0.000955709
0.000957817
0.000960325
0.000963217
0.000966484
0.000970113
0.000974095
0.000978419
0.000983078
0.000988065
0.000993375
0.000999005
0.00100495
0.00101122
0.00101781
0.00102472
0.00103194
0.00103949
0.00104737
0.00105556
0.00106409
0.00107294
0.00108212
0.00109163
0.00110148
0.00111166
0.00112218
0.00113305
0.00114426
0.00115581
0.00116772
0.00117999
0.00119261
0.00120559
0.00121894
0.00123266
0.00124675
0.00126122
0.00127607
0.0012913
0.00130692
0.00132293
0.00133934
0.00135614
0.00137335
0.00139097
0.001409
0.00142744
0.00144631
0.00146559
0.0014853
0.000951438
0.000951695
0.000952511
0.000953772
0.00095546
0.000957562
0.000960062
0.000962946
0.000966203
0.000969821
0.00097379
0.000978102
0.000982746
0.000987717
0.00099301
0.000998621
0.00100455
0.0010108
0.00101736
0.00102424
0.00103145
0.00103897
0.00104681
0.00105497
0.00106346
0.00107228
0.00108142
0.00109089
0.00110069
0.00111083
0.0011213
0.00113211
0.00114326
0.00115476
0.00116661
0.0011788
0.00119135
0.00120426
0.00121753
0.00123116
0.00124516
0.00125953
0.00127428
0.0012894
0.00130491
0.0013208
0.00133708
0.00135375
0.00137081
0.00138828
0.00140614
0.00142442
0.0014431
0.00146219
0.00148169
0.000951141
0.000951398
0.00095221
0.000953466
0.000955149
0.000957243
0.000959734
0.000962608
0.000965852
0.000969456
0.000973411
0.000977705
0.000982331
0.000987283
0.000992554
0.000998143
0.00100405
0.00101027
0.0010168
0.00102365
0.00103082
0.00103831
0.00104611
0.00105424
0.00106268
0.00107145
0.00108054
0.00108996
0.00109971
0.00110979
0.0011202
0.00113094
0.00114202
0.00115345
0.00116521
0.00117733
0.00118979
0.0012026
0.00121577
0.0012293
0.00124318
0.00125744
0.00127206
0.00128705
0.00130241
0.00131815
0.00133427
0.00135077
0.00136766
0.00138493
0.0014026
0.00142066
0.00143911
0.00145796
0.00147721
0.000950785
0.000951041
0.00095185
0.000953101
0.000954776
0.000956861
0.000959341
0.000962202
0.000965432
0.00096902
0.000972956
0.00097723
0.000981835
0.000986762
0.000992008
0.000997569
0.00100344
0.00100963
0.00101613
0.00102295
0.00103008
0.00103752
0.00104528
0.00105336
0.00106175
0.00107046
0.0010795
0.00108886
0.00109854
0.00110854
0.00111888
0.00112954
0.00114054
0.00115188
0.00116355
0.00117556
0.00118792
0.00120062
0.00121367
0.00122707
0.00124082
0.00125493
0.0012694
0.00128423
0.00129943
0.00131499
0.00133092
0.00134722
0.0013639
0.00138095
0.00139838
0.00141618
0.00143437
0.00145294
0.00147188
0.00151129
0.00153255
0.00155472
0.00157786
0.00160203
0.00162727
0.00165368
0.0016813
0.00171022
0.00174053
0.00177231
0.00180567
0.0018407
0.00187752
0.00191626
0.00195705
0.00200005
0.00204541
0.00209332
0.00214396
0.00219755
0.00225433
0.00231455
0.00237851
0.0024465
0.00251889
0.00259605
0.0026784
0.00276642
0.00286062
0.00296158
0.00306993
0.00318635
0.00331159
0.00344647
0.00359184
0.00374857
0.0039175
0.00409935
0.00429463
0.00450335
0.0047248
0.00495718
0.00519736
0.00544119
0.00568431
0.00592261
0.00616223
0.00646987
0.00693762
0.00151035
0.00153161
0.00155379
0.00157692
0.00160108
0.00162633
0.00165272
0.00168034
0.00170926
0.00173956
0.00177134
0.00180468
0.0018397
0.00187651
0.00191524
0.00195601
0.00199898
0.00204432
0.00209218
0.00214278
0.00219631
0.00225302
0.00231316
0.002377
0.00244486
0.00251708
0.00259404
0.00267614
0.00276384
0.00285765
0.00295811
0.00306583
0.00318146
0.0033057
0.0034393
0.00358301
0.0037376
0.00390375
0.00408198
0.00427252
0.00447503
0.00468835
0.00491008
0.00513636
0.00536214
0.00558213
0.00579167
0.00599605
0.0062577
0.00666178
0.00150849
0.00152974
0.0015519
0.00157503
0.00159918
0.00162442
0.00165081
0.00167843
0.00170734
0.00173763
0.00176939
0.00180272
0.00183772
0.0018745
0.00191319
0.00195393
0.00199685
0.00204213
0.00208992
0.00214042
0.00219384
0.00225041
0.00231038
0.00237401
0.00244161
0.0025135
0.00259005
0.00267166
0.00275874
0.00285177
0.00295126
0.00305775
0.00317182
0.00329408
0.00342514
0.00356559
0.00371595
0.00387659
0.00404764
0.00422875
0.00441887
0.00461587
0.00481618
0.00501444
0.00520377
0.005377
0.00552856
0.00566226
0.0058278
0.00611721
0.00150567
0.00152692
0.00154908
0.00157219
0.00159634
0.00162157
0.00164794
0.00167554
0.00170443
0.00173471
0.00176644
0.00179975
0.00183471
0.00187145
0.00191009
0.00195077
0.00199361
0.00203879
0.00208646
0.00213682
0.00219006
0.00224641
0.00230611
0.00236941
0.0024366
0.00250799
0.00258392
0.00266476
0.00275088
0.00284273
0.00294073
0.00304535
0.00315706
0.00327632
0.00340355
0.00353907
0.00368308
0.00383549
0.0039958
0.00416284
0.00433447
0.00450717
0.00467553
0.00483198
0.00496695
0.00507026
0.00513497
0.0051661
0.00519789
0.0052851
0.00150194
0.00152319
0.00154533
0.00156844
0.00159258
0.00161779
0.00164416
0.00167175
0.00170062
0.00173088
0.00176259
0.00179587
0.0018308
0.00186749
0.00190608
0.00194668
0.00198943
0.00203449
0.00208202
0.0021322
0.00218522
0.00224129
0.00230064
0.00236351
0.00243018
0.00250092
0.00257603
0.00265585
0.00274072
0.00283098
0.002927
0.00302912
0.00313766
0.00325287
0.00337493
0.0035038
0.0036392
0.00378043
0.00392615
0.0040741
0.00422072
0.0043606
0.004486
0.00458649
0.0046491
0.00465974
0.00460864
0.00450386
0.00436854
0.00414349
0.00149732
0.00151856
0.00154071
0.00156383
0.00158798
0.00161322
0.00163961
0.00166722
0.00169613
0.00172641
0.00175816
0.00179147
0.00182643
0.00186316
0.00190177
0.00194239
0.00198516
0.00203022
0.00207773
0.00212787
0.00218082
0.00223679
0.00229598
0.00235863
0.00242499
0.00249533
0.0025699
0.002649
0.00273292
0.00282193
0.0029163
0.00301625
0.00312192
0.00323332
0.00335027
0.00347229
0.00359841
0.00372702
0.00385549
0.0039798
0.004094
0.00418961
0.00425504
0.00427525
0.00423211
0.00410624
0.00388328
0.00357214
0.00318787
0.0025411
0.00149177
0.00151295
0.00153504
0.00155811
0.00158221
0.0016074
0.00163374
0.0016613
0.00169016
0.0017204
0.0017521
0.00178535
0.00182026
0.00185693
0.00189547
0.00193602
0.00197871
0.00202367
0.00207107
0.00212107
0.00217386
0.00222962
0.00228857
0.00235091
0.00241689
0.00248674
0.0025607
0.00263903
0.00272196
0.0028097
0.00290242
0.00300022
0.00310307
0.00321073
0.00332267
0.0034379
0.00355472
0.0036704
0.00378072
0.00387935
0.00395709
0.00400109
0.00399418
0.00391482
0.00373798
0.00343669
0.00299291
0.00242008
0.0016826
0.000486081
-0.00347731
-0.00354677
-0.00356037
-0.00353272
-0.00347631
-0.00339402
-0.00328862
-0.003163
-0.00301913
-0.00285987
-0.00268817
-0.00250705
-0.00231955
-0.00212865
-0.00193715
-0.00174766
-0.00156252
-0.00138376
-0.0012131
-0.00105194
-0.000901321
-0.000761962
-0.000634302
-0.000518521
-0.000414549
-0.000322094
-0.000240693
-0.000169766
-0.000108636
-5.65559e-05
-1.27414e-05
2.36079e-05
5.32858e-05
7.70635e-05
9.56766e-05
0.000109815
0.000120118
0.000127168
0.00013149
0.000133553
0.000133769
0.000132498
0.000130052
0.000126696
0.000122654
0.000118115
0.000113235
0.00010814
0.000102935
9.7702e-05
-0.00356391
-0.00360924
-0.00360845
-0.00357246
-0.00351069
-0.00342495
-0.0033179
-0.00319113
-0.00304679
-0.00288728
-0.0027154
-0.00253419
-0.00234652
-0.00215531
-0.00196335
-0.00177323
-0.00158731
-0.00140763
-0.00123593
-0.00107363
-0.000921802
-0.000781192
-0.000652259
-0.000535204
-0.000429982
-0.000336313
-0.000253744
-0.000181705
-0.000119526
-6.64627e-05
-2.17331e-05
1.54628e-05
4.59203e-05
7.04127e-05
8.96785e-05
0.000104412
0.000115254
0.000122793
0.000127557
0.000130019
0.000130594
0.000129648
0.000127492
0.000124398
0.00012059
0.000116262
0.00011157
0.000106645
0.000101591
9.64952e-05
-0.00373649
-0.00373174
-0.00370269
-0.00365015
-0.00357731
-0.00348381
-0.0033738
-0.00324474
-0.00309975
-0.00293938
-0.00276748
-0.00258624
-0.00239836
-0.00220668
-0.00201394
-0.00182273
-0.00163538
-0.00145399
-0.00128035
-0.0011159
-0.000961774
-0.000818773
-0.000687395
-0.000567886
-0.000460238
-0.000364213
-0.000279375
-0.00020517
-0.000140941
-8.59556e-05
-3.94346e-05
-5.78993e-07
3.14082e-05
5.73044e-05
7.78535e-05
9.37557e-05
0.000105661
0.000114162
0.000119797
0.000123045
0.00012433
0.000124021
0.000122439
0.00011986
0.000116515
0.000112601
0.000108281
0.000103689
9.89328e-05
9.4107e-05
-0.00400094
-0.00390561
-0.00383984
-0.00376227
-0.00367178
-0.00356355
-0.00345326
-0.00331788
-0.00317282
-0.00301287
-0.00284092
-0.00265967
-0.00247163
-0.00227945
-0.00208576
-0.00189312
-0.00170389
-0.00152019
-0.00134387
-0.00117645
-0.00101912
-0.000872768
-0.000737945
-0.000614963
-0.000503873
-0.000404484
-0.000316405
-0.0002391
-0.000171934
-0.000114189
-6.50918e-05
-2.38466e-05
1.03456e-05
3.82673e-05
6.06697e-05
7.8262e-05
9.17034e-05
0.000101598
0.000108494
0.000112881
0.000115193
0.000115809
0.000115059
0.000113226
0.000110552
0.000107239
0.000103457
9.93475e-05
9.50235e-05
9.05898e-05
-0.00433237
-0.00413183
-0.00401625
-0.00390331
-0.00379106
-0.00367986
-0.00354948
-0.00341113
-0.00326224
-0.00310097
-0.0029289
-0.00274783
-0.00255987
-0.0023674
-0.00217293
-0.00197894
-0.0017878
-0.00160164
-0.00142238
-0.00125161
-0.00109062
-0.000940358
-0.000801483
-0.00067436
-0.000559125
-0.000455656
-0.000363607
-0.000282481
-0.000211672
-0.000150482
-9.81534e-05
-5.38944e-05
-1.69077e-05
1.35926e-05
3.83643e-05
5.81254e-05
7.35456e-05
8.52409e-05
9.37706e-05
9.96367e-05
0.000103285
0.000105106
0.000105441
0.000104584
0.000102785
0.000100257
9.71781e-05
9.36969e-05
8.99357e-05
8.60113e-05
-0.00468148
-0.00440944
-0.00423073
-0.00406985
-0.00392299
-0.00379055
-0.00365037
-0.00350536
-0.00335228
-0.0031898
-0.00301818
-0.00283834
-0.00265183
-0.00246063
-0.00226697
-0.00207317
-0.00188148
-0.00169404
-0.00151279
-0.00133938
-0.00117518
-0.00102127
-0.000878389
-0.000747006
-0.000627341
-0.000519368
-0.000422832
-0.000337291
-0.00026219
-0.000196872
-0.000140608
-9.26275e-05
-5.21459e-05
-1.83832e-05
9.41752e-06
3.19775e-05
4.99726e-05
6.40274e-05
7.47114e-05
8.25376e-05
8.79634e-05
9.13923e-05
9.3177e-05
9.3623e-05
9.29929e-05
9.15104e-05
8.93646e-05
8.67139e-05
8.36923e-05
8.04259e-05
-0.00501632
-0.00475387
-0.00451234
-0.00428532
-0.00410978
-0.00394185
-0.00378231
-0.0036252
-0.00346499
-0.00329914
-0.00312651
-0.00294701
-0.00276143
-0.00257118
-0.00237808
-0.00218419
-0.00199163
-0.00180249
-0.00161871
-0.00144203
-0.00127392
-0.00111557
-0.000967837
-0.000831315
-0.000706333
-0.000592968
-0.000491059
-0.000400254
-0.000320051
-0.000249842
-0.000188933
-0.00013658
-9.2009e-05
-5.44473e-05
-2.31372e-05
2.64805e-06
2.35936e-05
4.03361e-05
5.3459e-05
6.34905e-05
7.09039e-05
7.61187e-05
7.95037e-05
8.13798e-05
8.20246e-05
8.16761e-05
8.05367e-05
7.87771e-05
7.65435e-05
7.39642e-05
9.24944e-05
8.7279e-05
8.20855e-05
7.69649e-05
7.19468e-05
6.70552e-05
6.23107e-05
5.7729e-05
5.33216e-05
4.90969e-05
4.50602e-05
4.12145e-05
3.7561e-05
3.4099e-05
3.08264e-05
2.77402e-05
2.48361e-05
2.21095e-05
1.95549e-05
1.71669e-05
1.49395e-05
1.28667e-05
1.09427e-05
9.16168e-06
7.51798e-06
6.00605e-06
4.62045e-06
3.35574e-06
2.20648e-06
1.16715e-06
2.32094e-07
-6.04457e-07
-1.34833e-06
-2.00541e-06
-2.58152e-06
-3.08239e-06
-3.51357e-06
-3.88039e-06
-4.18793e-06
-4.44095e-06
-4.64399e-06
-4.80127e-06
-4.91687e-06
-4.99437e-06
-5.03774e-06
-5.04964e-06
-5.03368e-06
-4.9928e-06
-4.92968e-06
-4.84694e-06
-4.74703e-06
-4.63224e-06
-4.50475e-06
-4.36654e-06
-4.21943e-06
-4.06516e-06
-3.90532e-06
-3.74135e-06
-3.57452e-06
-3.40608e-06
-3.23718e-06
-3.06869e-06
-2.90156e-06
-2.73659e-06
-2.5744e-06
-2.41566e-06
-2.26089e-06
-2.11057e-06
-1.96511e-06
-1.82477e-06
-1.68979e-06
-1.56039e-06
-1.43676e-06
-1.31891e-06
-1.2069e-06
-1.10075e-06
-1.00034e-06
-9.05644e-07
-8.16554e-07
-7.33046e-07
-6.548e-07
-5.81862e-07
-5.13896e-07
-4.50988e-07
-3.92332e-07
-3.39133e-07
-2.88071e-07
-2.44808e-07
-1.98546e-07
-1.68434e-07
-1.19442e-07
-1.11885e-07
-4.31199e-08
-8.11488e-08
4.33491e-08
-8.76829e-08
1.56861e-07
-1.45681e-07
3.10729e-07
-2.57736e-07
4.98611e-07
-3.94401e-07
6.69062e-07
-4.77419e-07
7.2712e-07
-4.01122e-07
5.84069e-07
-1.13005e-07
2.55162e-07
2.87916e-07
-6.99016e-08
5.39912e-07
-9.65948e-08
3.58598e-07
3.7868e-07
9.14314e-05
8.63042e-05
8.11901e-05
7.61488e-05
7.1205e-05
6.63815e-05
6.16992e-05
5.71744e-05
5.28189e-05
4.86413e-05
4.46475e-05
4.08409e-05
3.72228e-05
3.37929e-05
3.05495e-05
2.74897e-05
2.46098e-05
2.1905e-05
1.93704e-05
1.70006e-05
1.47897e-05
1.2732e-05
1.08217e-05
9.05314e-06
7.4208e-06
5.91918e-06
4.54291e-06
3.28664e-06
2.14498e-06
1.11248e-06
1.83547e-07
-6.47527e-07
-1.38651e-06
-2.03922e-06
-2.61145e-06
-3.10884e-06
-3.53691e-06
-3.90097e-06
-4.20603e-06
-4.45683e-06
-4.65788e-06
-4.81339e-06
-4.9274e-06
-5.00349e-06
-5.04559e-06
-5.05637e-06
-5.03941e-06
-4.99765e-06
-4.93376e-06
-4.85034e-06
-4.74982e-06
-4.63451e-06
-4.50656e-06
-4.36796e-06
-4.22052e-06
-4.06595e-06
-3.90587e-06
-3.74168e-06
-3.57466e-06
-3.40608e-06
-3.23706e-06
-3.06847e-06
-2.90126e-06
-2.73623e-06
-2.574e-06
-2.41522e-06
-2.26043e-06
-2.11009e-06
-1.96463e-06
-1.82429e-06
-1.68931e-06
-1.55993e-06
-1.43631e-06
-1.31847e-06
-1.20648e-06
-1.10036e-06
-9.99967e-07
-9.05292e-07
-8.16224e-07
-7.32745e-07
-6.54517e-07
-5.81602e-07
-5.1366e-07
-4.50768e-07
-3.92135e-07
-3.38953e-07
-2.87909e-07
-2.4466e-07
-1.98421e-07
-1.68311e-07
-1.19339e-07
-1.11775e-07
-4.30373e-08
-8.10449e-08
4.34001e-08
-8.75894e-08
1.56879e-07
-1.45589e-07
3.10721e-07
-2.5765e-07
4.98581e-07
-3.94341e-07
6.69043e-07
-4.77395e-07
7.27149e-07
-4.01151e-07
5.84132e-07
-1.13064e-07
2.55241e-07
2.87854e-07
-6.98209e-08
5.39852e-07
-9.64518e-08
3.58423e-07
3.7892e-07
8.93173e-05
8.43662e-05
7.94115e-05
7.45281e-05
6.97316e-05
6.50429e-05
6.0484e-05
5.6072e-05
5.18193e-05
4.77354e-05
4.38267e-05
4.00974e-05
3.65496e-05
3.31835e-05
2.99981e-05
2.69911e-05
2.4159e-05
2.14979e-05
1.90029e-05
1.66692e-05
1.44912e-05
1.24634e-05
1.05804e-05
8.83678e-06
7.22705e-06
5.74594e-06
4.38827e-06
3.1488e-06
2.0223e-06
1.00341e-06
8.66826e-08
-7.33472e-07
-1.4627e-06
-2.10672e-06
-2.67118e-06
-3.16165e-06
-3.58354e-06
-3.94207e-06
-4.24217e-06
-4.48854e-06
-4.68562e-06
-4.83758e-06
-4.94842e-06
-5.02169e-06
-5.06127e-06
-5.06981e-06
-5.05086e-06
-5.00734e-06
-4.9419e-06
-4.85711e-06
-4.7554e-06
-4.63905e-06
-4.5102e-06
-4.37081e-06
-4.22268e-06
-4.06754e-06
-3.90695e-06
-3.74233e-06
-3.57497e-06
-3.4061e-06
-3.23681e-06
-3.06803e-06
-2.90066e-06
-2.7355e-06
-2.57318e-06
-2.41434e-06
-2.25951e-06
-2.10915e-06
-1.96367e-06
-1.82333e-06
-1.68837e-06
-1.55901e-06
-1.43541e-06
-1.31761e-06
-1.20566e-06
-1.09956e-06
-9.99218e-07
-9.0459e-07
-8.15577e-07
-7.32126e-07
-6.53959e-07
-5.81092e-07
-5.1318e-07
-4.50345e-07
-3.91733e-07
-3.38579e-07
-2.87583e-07
-2.4439e-07
-1.98158e-07
-1.68076e-07
-1.19136e-07
-1.11553e-07
-4.28673e-08
-8.08401e-08
4.35087e-08
-8.7409e-08
1.56889e-07
-1.45388e-07
3.10708e-07
-2.5747e-07
4.98498e-07
-3.94209e-07
6.69003e-07
-4.77343e-07
7.27202e-07
-4.01198e-07
5.84243e-07
-1.13187e-07
2.55391e-07
2.87759e-07
-6.96939e-08
5.39744e-07
-9.62032e-08
3.58114e-07
3.79393e-07
8.6178e-05
8.14889e-05
7.67746e-05
7.21255e-05
6.75467e-05
6.30571e-05
5.86806e-05
5.44352e-05
5.03346e-05
4.6389e-05
4.26063e-05
3.89916e-05
3.55479e-05
3.22765e-05
2.91772e-05
2.62484e-05
2.34876e-05
2.08912e-05
1.84553e-05
1.61752e-05
1.40461e-05
1.2063e-05
1.02207e-05
8.51398e-06
6.93791e-06
5.48738e-06
4.1574e-06
2.94298e-06
1.83905e-06
8.40454e-07
-5.80764e-08
-8.61939e-07
-1.57662e-06
-2.20764e-06
-2.76051e-06
-3.24064e-06
-3.65328e-06
-4.00352e-06
-4.29622e-06
-4.53596e-06
-4.72712e-06
-4.87378e-06
-4.97987e-06
-5.0489e-06
-5.08471e-06
-5.08989e-06
-5.06798e-06
-5.02183e-06
-4.95407e-06
-4.86724e-06
-4.76375e-06
-4.64584e-06
-4.51563e-06
-4.37506e-06
-4.22592e-06
-4.0699e-06
-3.90857e-06
-3.74331e-06
-3.57542e-06
-3.40611e-06
-3.23644e-06
-3.06737e-06
-2.89976e-06
-2.73441e-06
-2.57196e-06
-2.41302e-06
-2.25813e-06
-2.10774e-06
-1.96223e-06
-1.82189e-06
-1.68695e-06
-1.55763e-06
-1.43406e-06
-1.31631e-06
-1.20442e-06
-1.09838e-06
-9.98102e-07
-9.03542e-07
-8.14604e-07
-7.31211e-07
-6.53122e-07
-5.80322e-07
-5.12466e-07
-4.49701e-07
-3.91134e-07
-3.38025e-07
-2.87095e-07
-2.43963e-07
-1.97766e-07
-1.67714e-07
-1.1883e-07
-1.11227e-07
-4.26276e-08
-8.05426e-08
4.36564e-08
-8.71391e-08
1.56913e-07
-1.45102e-07
3.10681e-07
-2.57212e-07
4.98399e-07
-3.94025e-07
6.68961e-07
-4.77283e-07
7.27287e-07
-4.01288e-07
5.84419e-07
-1.13379e-07
2.5561e-07
2.87603e-07
-6.95141e-08
5.39592e-07
-9.58343e-08
3.57639e-07
3.80107e-07
8.20535e-05
7.77093e-05
7.33162e-05
6.89743e-05
6.46794e-05
6.04498e-05
5.63113e-05
5.22835e-05
4.83814e-05
4.46169e-05
4.0999e-05
3.75344e-05
3.42273e-05
3.10802e-05
2.8094e-05
2.52681e-05
2.26009e-05
2.00898e-05
1.77316e-05
1.55223e-05
1.34577e-05
1.15334e-05
9.7447e-06
8.08685e-06
6.55519e-06
5.14501e-06
3.85161e-06
2.67026e-06
1.59616e-06
6.24393e-07
-2.50065e-07
-1.03237e-06
-1.72778e-06
-2.34159e-06
-2.87909e-06
-3.34548e-06
-3.74585e-06
-4.08511e-06
-4.36798e-06
-4.59892e-06
-4.78221e-06
-4.92182e-06
-5.02163e-06
-5.08504e-06
-5.11583e-06
-5.11656e-06
-5.0907e-06
-5.04107e-06
-4.97023e-06
-4.88069e-06
-4.77482e-06
-4.65485e-06
-4.52283e-06
-4.38069e-06
-4.2302e-06
-4.07303e-06
-3.9107e-06
-3.7446e-06
-3.576e-06
-3.4061e-06
-3.23595e-06
-3.06648e-06
-2.89856e-06
-2.73296e-06
-2.57033e-06
-2.41127e-06
-2.25629e-06
-2.10585e-06
-1.96032e-06
-1.81997e-06
-1.68506e-06
-1.55578e-06
-1.43227e-06
-1.31459e-06
-1.20277e-06
-1.0968e-06
-9.96619e-07
-9.02151e-07
-8.13306e-07
-7.29997e-07
-6.52004e-07
-5.79295e-07
-5.11517e-07
-4.48837e-07
-3.90336e-07
-3.37291e-07
-2.86445e-07
-2.43383e-07
-1.97245e-07
-1.67228e-07
-1.18422e-07
-1.108e-07
-4.23155e-08
-8.01564e-08
4.3849e-08
-8.67882e-08
1.56963e-07
-1.44747e-07
3.10659e-07
-2.569e-07
4.98315e-07
-3.93822e-07
6.68956e-07
-4.77255e-07
7.27443e-07
-4.01453e-07
5.84687e-07
-1.13657e-07
2.55902e-07
2.87392e-07
-6.92932e-08
5.39408e-07
-9.53561e-08
3.57001e-07
3.81076e-07
7.69936e-05
7.3079e-05
6.90855e-05
6.51184e-05
6.11682e-05
5.72545e-05
5.34052e-05
4.9642e-05
4.59817e-05
4.24378e-05
3.90212e-05
3.574e-05
3.26001e-05
2.96053e-05
2.67578e-05
2.40583e-05
2.15062e-05
1.91e-05
1.68374e-05
1.47153e-05
1.27302e-05
1.08784e-05
9.15574e-06
7.55812e-06
6.08125e-06
4.72085e-06
3.4726e-06
2.3321e-06
1.29485e-06
3.56263e-07
-4.88412e-07
-1.24403e-06
-1.91557e-06
-2.50804e-06
-3.02646e-06
-3.47579e-06
-3.86091e-06
-4.18653e-06
-4.45717e-06
-4.67718e-06
-4.85069e-06
-4.98154e-06
-5.07352e-06
-5.12995e-06
-5.1545e-06
-5.14972e-06
-5.11896e-06
-5.06498e-06
-4.9903e-06
-4.8974e-06
-4.78858e-06
-4.66603e-06
-4.53177e-06
-4.38767e-06
-4.23551e-06
-4.07689e-06
-3.91333e-06
-3.74618e-06
-3.57671e-06
-3.40607e-06
-3.23531e-06
-3.06536e-06
-2.89706e-06
-2.73115e-06
-2.5683e-06
-2.40907e-06
-2.25399e-06
-2.10348e-06
-1.95792e-06
-1.81758e-06
-1.6827e-06
-1.55348e-06
-1.43003e-06
-1.31243e-06
-1.20071e-06
-1.09484e-06
-9.94768e-07
-9.00414e-07
-8.11685e-07
-7.28484e-07
-6.50608e-07
-5.78008e-07
-5.10332e-07
-4.47754e-07
-3.89341e-07
-3.36379e-07
-2.85632e-07
-2.4265e-07
-1.96593e-07
-1.66617e-07
-1.17913e-07
-1.10268e-07
-4.19332e-08
-7.96782e-08
4.40808e-08
-8.63481e-08
1.57025e-07
-1.44306e-07
3.1062e-07
-2.56508e-07
4.9821e-07
-3.93562e-07
6.68945e-07
-4.77212e-07
7.27625e-07
-4.01654e-07
5.85014e-07
-1.13999e-07
2.56258e-07
2.87119e-07
-6.90124e-08
5.39167e-07
-9.47414e-08
3.56185e-07
3.82315e-07
7.107e-05
6.76628e-05
6.41448e-05
6.06105e-05
5.7058e-05
5.35099e-05
4.99959e-05
4.65398e-05
4.31605e-05
3.98736e-05
3.66917e-05
3.36248e-05
3.06805e-05
2.78642e-05
2.51794e-05
2.26283e-05
2.02116e-05
1.79289e-05
1.57789e-05
1.37595e-05
1.18682e-05
1.01019e-05
8.4573e-06
6.93079e-06
5.51866e-06
4.21712e-06
3.02226e-06
1.93009e-06
9.36473e-07
3.71878e-08
-7.72167e-07
-1.49612e-06
-2.1393e-06
-2.70639e-06
-3.20211e-06
-3.63115e-06
-3.9981e-06
-4.30745e-06
-4.56354e-06
-4.77051e-06
-4.93233e-06
-5.05274e-06
-5.13538e-06
-5.18348e-06
-5.2006e-06
-5.18924e-06
-5.15263e-06
-5.09348e-06
-5.01423e-06
-4.9173e-06
-4.80497e-06
-4.67934e-06
-4.5424e-06
-4.39598e-06
-4.24181e-06
-4.08147e-06
-3.91643e-06
-3.74804e-06
-3.57752e-06
-3.40602e-06
-3.23454e-06
-3.06401e-06
-2.89524e-06
-2.72897e-06
-2.56585e-06
-2.40643e-06
-2.25122e-06
-2.10063e-06
-1.95504e-06
-1.81471e-06
-1.67987e-06
-1.55071e-06
-1.42735e-06
-1.30985e-06
-1.19824e-06
-1.0925e-06
-9.92552e-07
-8.98333e-07
-8.0974e-07
-7.26672e-07
-6.48933e-07
-5.76463e-07
-5.0891e-07
-4.46452e-07
-3.8815e-07
-3.35287e-07
-2.84658e-07
-2.41764e-07
-1.95816e-07
-1.65876e-07
-1.17313e-07
-1.09616e-07
-4.15094e-08
-7.9064e-08
4.42854e-08
-8.57226e-08
1.56965e-07
-1.43595e-07
3.10324e-07
-2.55731e-07
4.97718e-07
-3.92822e-07
6.68463e-07
-4.76676e-07
7.27371e-07
-4.01486e-07
5.85088e-07
-1.14215e-07
2.56625e-07
2.86711e-07
-6.84975e-08
5.38644e-07
-9.37882e-08
3.55085e-07
3.83838e-07
6.41648e-05
6.13711e-05
5.84227e-05
5.53846e-05
5.22855e-05
4.91556e-05
4.60261e-05
4.29228e-05
3.9867e-05
3.68766e-05
3.39662e-05
3.11477e-05
2.84304e-05
2.58216e-05
2.33264e-05
2.09484e-05
1.86898e-05
1.65514e-05
1.45332e-05
1.26341e-05
1.08527e-05
9.18675e-06
7.63365e-06
6.1906e-06
4.8545e-06
3.6221e-06
2.49e-06
1.45467e-06
5.12427e-07
-3.40559e-07
-1.10827e-06
-1.79484e-06
-2.40451e-06
-2.9416e-06
-3.41045e-06
-3.81544e-06
-4.16086e-06
-4.45093e-06
-4.68974e-06
-4.88124e-06
-5.02921e-06
-5.13723e-06
-5.20878e-06
-5.24701e-06
-5.25531e-06
-5.23613e-06
-5.19258e-06
-5.12727e-06
-5.0426e-06
-4.9409e-06
-4.82439e-06
-4.69511e-06
-4.55499e-06
-4.40581e-06
-4.24926e-06
-4.08687e-06
-3.92009e-06
-3.75022e-06
-3.57846e-06
-3.40592e-06
-3.23359e-06
-3.06237e-06
-2.89305e-06
-2.72636e-06
-2.56291e-06
-2.40326e-06
-2.2479e-06
-2.09722e-06
-1.95159e-06
-1.81127e-06
-1.67649e-06
-1.54741e-06
-1.42415e-06
-1.30677e-06
-1.1953e-06
-1.0897e-06
-9.89909e-07
-8.9585e-07
-8.07419e-07
-7.2451e-07
-6.46932e-07
-5.74617e-07
-5.07214e-07
-4.44896e-07
-3.86729e-07
-3.33985e-07
-2.83498e-07
-2.40699e-07
-1.94894e-07
-1.64978e-07
-1.16616e-07
-1.08807e-07
-4.10595e-08
-7.82559e-08
4.44059e-08
-8.4804e-08
1.5665e-07
-1.42419e-07
3.09533e-07
-2.54258e-07
4.96471e-07
-3.91173e-07
6.6705e-07
-4.75172e-07
7.26231e-07
-4.00558e-07
5.84617e-07
-1.14141e-07
2.56976e-07
2.8606e-07
-6.7541e-08
5.37585e-07
-9.22528e-08
3.53554e-07
3.85728e-07
5.64367e-05
5.42967e-05
5.1952e-05
4.94619e-05
4.68671e-05
4.42035e-05
4.1504e-05
3.87966e-05
3.61048e-05
3.34487e-05
3.08451e-05
2.83079e-05
2.58484e-05
2.34755e-05
2.11963e-05
1.90157e-05
1.69377e-05
1.49644e-05
1.30971e-05
1.1336e-05
9.68058e-06
8.12975e-06
6.6818e-06
5.33466e-06
4.08597e-06
2.93312e-06
1.87329e-06
9.03441e-07
2.04229e-08
-7.79126e-07
-1.49874e-06
-2.14207e-06
-2.71293e-06
-3.21522e-06
-3.6529e-06
-4.02994e-06
-4.35032e-06
-4.61796e-06
-4.83667e-06
-5.01015e-06
-5.14199e-06
-5.23557e-06
-5.29422e-06
-5.32094e-06
-5.31898e-06
-5.29069e-06
-5.23904e-06
-5.16657e-06
-5.07558e-06
-4.96832e-06
-4.84693e-06
-4.71339e-06
-4.56957e-06
-4.41718e-06
-4.25785e-06
-4.09308e-06
-3.92426e-06
-3.75267e-06
-3.57947e-06
-3.40573e-06
-3.23241e-06
-3.06039e-06
-2.89043e-06
-2.72324e-06
-2.55942e-06
-2.39951e-06
-2.24397e-06
-2.0932e-06
-1.94753e-06
-1.80722e-06
-1.6725e-06
-1.54351e-06
-1.42038e-06
-1.30315e-06
-1.19183e-06
-1.08641e-06
-9.868e-07
-8.92929e-07
-8.04688e-07
-7.21966e-07
-6.44578e-07
-5.72445e-07
-5.05217e-07
-4.43065e-07
-3.85058e-07
-3.32457e-07
-2.8213e-07
-2.3945e-07
-1.93797e-07
-1.6394e-07
-1.15765e-07
-1.07911e-07
-4.04528e-08
-7.74328e-08
4.4725e-08
-8.39831e-08
1.56636e-07
-1.41514e-07
3.09211e-07
-2.53287e-07
4.95914e-07
-3.90265e-07
6.66507e-07
-4.74546e-07
7.25984e-07
-4.0043e-07
5.84814e-07
-1.14538e-07
2.57582e-07
2.85355e-07
-6.66666e-08
5.36655e-07
-9.06905e-08
3.51768e-07
3.88242e-07
4.81522e-05
4.66742e-05
4.49507e-05
4.30368e-05
4.09769e-05
3.88098e-05
3.65697e-05
3.42866e-05
3.19863e-05
2.96909e-05
2.74192e-05
2.51871e-05
2.30076e-05
2.08917e-05
1.8848e-05
1.68833e-05
1.50029e-05
1.32105e-05
1.15088e-05
9.89928e-06
8.38251e-06
6.95839e-06
5.62623e-06
4.38481e-06
3.23253e-06
2.16746e-06
1.18742e-06
2.89961e-07
-5.27546e-07
-1.26792e-06
-1.93418e-06
-2.52951e-06
-3.05724e-06
-3.5208e-06
-3.92373e-06
-4.26962e-06
-4.56206e-06
-4.80463e-06
-5.00088e-06
-5.15422e-06
-5.26802e-06
-5.34546e-06
-5.38969e-06
-5.40353e-06
-5.39012e-06
-5.35162e-06
-5.29091e-06
-5.21043e-06
-5.11238e-06
-4.99891e-06
-4.87207e-06
-4.73377e-06
-4.58579e-06
-4.4298e-06
-4.26737e-06
-4.09994e-06
-3.92885e-06
-3.75533e-06
-3.58051e-06
-3.40543e-06
-3.23101e-06
-3.05809e-06
-2.88743e-06
-2.71968e-06
-2.55545e-06
-2.39524e-06
-2.2395e-06
-2.08862e-06
-1.94292e-06
-1.80263e-06
-1.66798e-06
-1.53911e-06
-1.41611e-06
-1.29905e-06
-1.18792e-06
-1.08269e-06
-9.83286e-07
-8.89628e-07
-8.01601e-07
-7.19093e-07
-6.41917e-07
-5.6999e-07
-5.0296e-07
-4.40996e-07
-3.8317e-07
-3.30735e-07
-2.80582e-07
-2.3804e-07
-1.92551e-07
-1.62776e-07
-1.14786e-07
-1.06927e-07
-3.97294e-08
-7.6568e-08
4.51713e-08
-8.3182e-08
1.56792e-07
-1.40719e-07
3.09129e-07
-2.52539e-07
4.95695e-07
-3.89697e-07
6.66386e-07
-4.7434e-07
7.2618e-07
-4.00711e-07
5.85377e-07
-1.15229e-07
2.584e-07
2.84507e-07
-6.56902e-08
5.35623e-07
-8.89047e-08
3.49636e-07
3.91384e-07
3.93911e-05
3.85869e-05
3.75003e-05
3.61832e-05
3.46805e-05
3.30322e-05
3.12742e-05
2.94381e-05
2.75516e-05
2.56384e-05
2.37194e-05
2.18123e-05
1.9932e-05
1.80911e-05
1.63e-05
1.45673e-05
1.28996e-05
1.13024e-05
9.77948e-06
8.3337e-06
6.96689e-06
5.68002e-06
4.47337e-06
3.34661e-06
2.29899e-06
1.32928e-06
4.35994e-07
-3.8269e-07
-1.12882e-06
-1.80465e-06
-2.41266e-06
-2.95549e-06
-3.43598e-06
-3.85708e-06
-4.22187e-06
-4.53352e-06
-4.79523e-06
-5.01023e-06
-5.18174e-06
-5.31291e-06
-5.40683e-06
-5.46649e-06
-5.49482e-06
-5.49447e-06
-5.46843e-06
-5.41868e-06
-5.348e-06
-5.25869e-06
-5.15284e-06
-5.03252e-06
-4.89967e-06
-4.75612e-06
-4.60357e-06
-4.44362e-06
-4.27776e-06
-4.10739e-06
-3.9338e-06
-3.75816e-06
-3.58156e-06
-3.40499e-06
-3.22936e-06
-3.05546e-06
-2.88402e-06
-2.71567e-06
-2.55098e-06
-2.39045e-06
-2.2345e-06
-2.0835e-06
-1.93776e-06
-1.79751e-06
-1.66294e-06
-1.53419e-06
-1.41135e-06
-1.29447e-06
-1.18355e-06
-1.07854e-06
-9.79369e-07
-8.85948e-07
-7.98161e-07
-7.15891e-07
-6.38952e-07
-5.67253e-07
-5.00445e-07
-4.38691e-07
-3.81067e-07
-3.28817e-07
-2.78856e-07
-2.36469e-07
-1.91159e-07
-1.61482e-07
-1.13691e-07
-1.05838e-07
-3.89189e-08
-7.56164e-08
4.56769e-08
-8.23025e-08
1.56977e-07
-1.39846e-07
3.09039e-07
-2.51703e-07
4.95437e-07
-3.89036e-07
6.66212e-07
-4.74064e-07
7.26347e-07
-4.00985e-07
5.85986e-07
-1.16016e-07
2.59372e-07
2.83442e-07
-6.44318e-08
5.34257e-07
-8.66846e-08
3.47049e-07
3.95182e-07
3.02362e-05
3.01177e-05
2.968e-05
2.89732e-05
2.80424e-05
2.69288e-05
2.56695e-05
2.42973e-05
2.28415e-05
2.13276e-05
1.9778e-05
1.82121e-05
1.66467e-05
1.5096e-05
1.35721e-05
1.20851e-05
1.06433e-05
9.25342e-06
7.92085e-06
6.64967e-06
5.44291e-06
4.30267e-06
3.23023e-06
2.22621e-06
1.29068e-06
4.23224e-07
-3.76966e-07
-1.11104e-06
-1.7804e-06
-2.38673e-06
-2.93191e-06
-3.41806e-06
-3.84746e-06
-4.2226e-06
-4.54605e-06
-4.82055e-06
-5.04888e-06
-5.23392e-06
-5.37852e-06
-5.48556e-06
-5.55786e-06
-5.59816e-06
-5.60918e-06
-5.59339e-06
-5.55358e-06
-5.49159e-06
-5.41004e-06
-5.31112e-06
-5.19679e-06
-5.069e-06
-4.9296e-06
-4.78033e-06
-4.6228e-06
-4.45852e-06
-4.28894e-06
-4.11537e-06
-3.93905e-06
-3.7611e-06
-3.58257e-06
-3.4044e-06
-3.22745e-06
-3.05248e-06
-2.88019e-06
-2.71118e-06
-2.546e-06
-2.38512e-06
-2.22895e-06
-2.07783e-06
-1.93205e-06
-1.79183e-06
-1.65736e-06
-1.52875e-06