/*--------------------------------*- C++ -*----------------------------------*\
| =========                 |                                                 |
| \\      /  F ield         | OpenFOAM: The Open Source CFD Toolbox           |
|  \\    /   O peration     | Version:  2412                                  |
|   \\  /    A nd           | Website:  www.openfoam.com                      |
|    \\/     M anipulation  |                                                 |
\*---------------------------------------------------------------------------*/
FoamFile
{
    version     2.0;
    format      ascii;
    arch        "LSB;label=32;scalar=64";
    class       surfaceScalarField;
    location    "17.5";
    object      phi;
}
// * * * * * * * * * * * * * * * * * * * * * * * * * * * * * * * * * * * * * //

dimensions      [0 3 -1 0 0 0 0];

oriented        oriented;

internalField   nonuniform List<scalar> 
126304
(
0.00505063
1.28421e-07
-1.19582e-12
0.00505025
3.75565e-07
1.77789e-11
0.00504965
6.07585e-07
5.3972e-11
0.00504882
8.23442e-07
1.0583e-10
0.00504778
1.03776e-06
1.5107e-10
0.00504649
1.29011e-06
1.2966e-10
0.00504486
1.63215e-06
-3.82117e-11
0.00504277
2.0968e-06
-4.02219e-10
0.00504009
2.6719e-06
-9.34079e-10
0.0050368
3.29726e-06
-1.51862e-09
0.00503291
3.8864e-06
-1.99239e-09
0.00502856
4.35874e-06
-2.20453e-09
0.00502389
4.66519e-06
-2.06709e-09
0.0050191
4.79759e-06
-1.57598e-09
0.00501432
4.78267e-06
-8.00273e-10
0.00500965
4.66721e-06
1.48621e-10
0.00500515
4.5022e-06
1.15127e-09
0.00500081
4.33121e-06
2.106e-09
0.00499663
4.18464e-06
2.94269e-09
0.00499254
4.07913e-06
3.62553e-09
0.00498852
4.01999e-06
4.14734e-09
0.00498451
4.00496e-06
4.52019e-09
0.00498048
4.02771e-06
4.76687e-09
0.00497639
4.08052e-06
4.9139e-09
0.00497223
4.15605e-06
4.98646e-09
0.00496798
4.24816e-06
5.00575e-09
0.00496362
4.35216e-06
4.98839e-09
0.00495915
4.46477e-06
4.94677e-09
0.00495456
4.58383e-06
4.88917e-09
0.00494985
4.70803e-06
4.82078e-09
0.00494501
4.83665e-06
4.745e-09
0.00494003
4.96937e-06
4.66384e-09
0.00493492
5.10606e-06
4.57828e-09
0.00492967
5.24676e-06
4.48876e-09
0.00492427
5.39155e-06
4.39539e-09
0.00491873
5.54051e-06
4.29838e-09
0.00491303
5.69377e-06
4.19774e-09
0.00490718
5.8514e-06
4.0935e-09
0.00490116
6.01349e-06
3.98584e-09
0.00489498
6.18012e-06
3.87477e-09
0.00488862
6.35133e-06
3.7603e-09
0.00488209
6.52717e-06
3.64252e-09
0.00487538
6.70769e-06
3.52166e-09
0.00486848
6.89293e-06
3.39791e-09
0.0048614
7.08292e-06
3.27147e-09
0.00485411
7.2777e-06
3.14264e-09
0.00484663
7.47733e-06
3.01168e-09
0.00483895
7.68186e-06
2.87899e-09
0.00483106
7.89134e-06
2.74487e-09
0.00482295
8.10587e-06
2.60956e-09
0.00481462
8.3256e-06
2.47339e-09
0.00480607
8.55083e-06
2.33669e-09
0.00479728
8.78236e-06
2.19979e-09
0.00478826
9.0225e-06
2.0633e-09
9.27785e-06
0.00477898
1.92831e-09
0.00505063
2.56754e-07
0.00505025
7.50868e-07
0.00504965
1.21482e-06
0.00504882
1.6465e-06
0.00504779
2.07494e-06
0.0050465
2.57878e-06
0.00504487
3.26083e-06
0.00504278
4.18688e-06
0.00504012
5.33314e-06
0.00503683
6.5802e-06
0.00503296
7.75615e-06
0.00502862
8.70053e-06
0.00502397
9.31521e-06
0.00501919
9.58347e-06
0.00501441
9.55803e-06
0.00500975
9.33165e-06
0.00500524
9.00567e-06
0.00500091
8.66683e-06
0.00499672
8.37582e-06
0.00499263
8.16593e-06
0.0049886
8.04797e-06
0.00498459
8.01761e-06
0.00498055
8.06238e-06
0.00497647
8.16706e-06
0.00497231
8.31709e-06
0.00496806
8.50025e-06
0.0049637
8.70724e-06
0.00495923
8.93152e-06
0.00495465
9.16876e-06
0.00494994
9.41634e-06
0.0049451
9.67283e-06
0.00494014
9.93754e-06
0.00493503
1.02102e-05
0.00492979
1.0491e-05
0.0049244
1.07799e-05
0.00491886
1.10771e-05
0.00491317
1.13829e-05
0.00490733
1.16975e-05
0.00490132
1.20209e-05
0.00489515
1.23534e-05
0.0048888
1.2695e-05
0.00488228
1.30459e-05
0.00487559
1.3406e-05
0.0048687
1.37755e-05
0.00486163
1.41545e-05
0.00485437
1.45431e-05
0.0048469
1.49412e-05
0.00483924
1.53491e-05
0.00483136
1.57668e-05
0.00482327
1.61945e-05
0.00481496
1.66325e-05
0.00480643
1.70814e-05
0.00479767
1.75427e-05
0.00478867
1.80208e-05
1.85279e-05
0.00477942
0.00505063
3.84913e-07
0.00505025
1.12561e-06
0.00504965
1.82123e-06
0.00504883
2.46857e-06
0.00504779
3.11065e-06
0.0050465
3.86434e-06
0.00504488
4.88278e-06
0.0050428
6.26456e-06
0.00504016
7.97525e-06
0.0050369
9.83799e-06
0.00503306
1.15971e-05
0.00502875
1.30133e-05
0.00502413
1.39394e-05
0.00501936
1.43493e-05
0.0050146
1.43205e-05
0.00500994
1.39902e-05
0.00500544
1.35092e-05
0.0050011
1.30068e-05
0.0049969
1.25739e-05
0.0049928
1.22605e-05
0.00498877
1.20833e-05
0.00498475
1.20363e-05
0.00498071
1.21012e-05
0.00497662
1.22556e-05
0.00497246
1.2478e-05
0.00496821
1.27501e-05
0.00496386
1.30581e-05
0.0049594
1.33923e-05
0.00495482
1.37461e-05
0.00495012
1.41156e-05
0.0049453
1.44986e-05
0.00494034
1.4894e-05
0.00493525
1.53015e-05
0.00493002
1.57211e-05
0.00492465
1.61529e-05
0.00491913
1.65973e-05
0.00491346
1.70545e-05
0.00490763
1.75248e-05
0.00490164
1.80083e-05
0.00489549
1.85053e-05
0.00488917
1.9016e-05
0.00488267
1.95404e-05
0.004876
2.00786e-05
0.00486915
2.06308e-05
0.0048621
2.11971e-05
0.00485487
2.17775e-05
0.00484744
2.23722e-05
0.0048398
2.29814e-05
0.00483197
2.36051e-05
0.00482392
2.42436e-05
0.00481565
2.48973e-05
0.00480717
2.5567e-05
0.00479846
2.62549e-05
0.00478951
2.69669e-05
2.77207e-05
0.00478032
0.00505063
5.12814e-07
0.00505026
1.49951e-06
0.00504965
2.42642e-06
0.00504883
3.28914e-06
0.0050478
4.14416e-06
0.00504652
5.1453e-06
0.0050449
6.49487e-06
0.00504284
8.32417e-06
0.00504023
1.05896e-05
0.00503701
1.30592e-05
0.00503321
1.53962e-05
0.00502894
1.72838e-05
0.00502435
1.8526e-05
0.00501962
1.90859e-05
0.00501487
1.90638e-05
0.00501022
1.86398e-05
0.00500572
1.80124e-05
0.00500137
1.73528e-05
0.00499717
1.67816e-05
0.00499306
1.6366e-05
0.00498901
1.6129e-05
0.00498499
1.60634e-05
0.00498094
1.61458e-05
0.00497685
1.63468e-05
0.00497269
1.66383e-05
0.00496844
1.69963e-05
0.0049641
1.74024e-05
0.00495965
1.78438e-05
0.00495508
1.83118e-05
0.0049504
1.88011e-05
0.00494559
1.93086e-05
0.00494065
1.98329e-05
0.00493558
2.03734e-05
0.00493037
2.09301e-05
0.00492502
2.15032e-05
0.00491952
2.2093e-05
0.00491388
2.26998e-05
0.00490808
2.3324e-05
0.00490212
2.39657e-05
0.004896
2.46253e-05
0.00488971
2.5303e-05
0.00488325
2.59987e-05
0.00487662
2.67128e-05
0.00486981
2.74452e-05
0.00486281
2.81962e-05
0.00485562
2.89659e-05
0.00484824
2.97543e-05
0.00484066
3.05616e-05
0.00483287
3.1388e-05
0.00482488
3.22337e-05
0.00481668
3.30993e-05
0.00480826
3.39856e-05
0.00479962
3.48952e-05
0.00479075
3.5835e-05
3.68259e-05
0.00478165
0.00505063
6.40375e-07
0.00505026
1.8723e-06
0.00504965
3.02997e-06
0.00504883
4.10772e-06
0.0050478
5.17475e-06
0.00504653
6.42028e-06
0.00504493
8.0943e-06
0.00504289
1.03607e-05
0.00504031
1.31684e-05
0.00503714
1.62338e-05
0.00503339
1.91418e-05
0.00502918
2.15003e-05
0.00502464
2.30642e-05
0.00501994
2.37847e-05
0.00501522
2.37822e-05
0.00501058
2.32774e-05
0.00500608
2.25146e-05
0.00500173
2.17057e-05
0.00499751
2.10009e-05
0.00499339
2.04848e-05
0.00498933
2.01872e-05
0.0049853
2.01006e-05
0.00498125
2.01969e-05
0.00497715
2.04406e-05
0.00497299
2.07971e-05
0.00496875
2.1237e-05
0.00496442
2.17377e-05
0.00495998
2.22829e-05
0.00495543
2.2862e-05
0.00495076
2.34682e-05
0.00494597
2.40976e-05
0.00494106
2.47483e-05
0.00493601
2.54195e-05
0.00493083
2.6111e-05
0.00492551
2.68231e-05
0.00492005
2.7556e-05
0.00491444
2.83102e-05
0.00490867
2.90858e-05
0.00490276
2.98834e-05
0.00489668
3.0703e-05
0.00489044
3.15449e-05
0.00488403
3.24092e-05
0.00487744
3.3296e-05
0.00487068
3.42056e-05
0.00486374
3.51379e-05
0.00485661
3.60931e-05
0.0048493
3.70714e-05
0.00484178
3.80728e-05
0.00483408
3.90976e-05
0.00482616
4.01459e-05
0.00481804
4.12183e-05
0.00480971
4.23157e-05
0.00480117
4.34406e-05
0.0047924
4.46003e-05
4.58162e-05
0.00478341
0.00505063
7.67519e-07
0.00505026
2.24368e-06
0.00504966
3.63147e-06
0.00504884
4.92376e-06
0.00504781
6.20169e-06
0.00504655
7.68801e-06
0.00504496
9.67863e-06
0.00504295
1.23699e-05
0.00504042
1.57053e-05
0.0050373
1.93532e-05
0.00503361
2.28242e-05
0.00502946
2.56526e-05
0.00502498
2.75448e-05
0.00502033
2.8438e-05
0.00501564
2.84704e-05
0.00501102
2.78997e-05
0.00500652
2.70144e-05
0.00500216
2.60656e-05
0.00499793
2.52328e-05
0.00499379
2.46181e-05
0.00498972
2.42591e-05
0.00498567
2.41486e-05
0.00498161
2.42548e-05
0.00497752
2.45364e-05
0.00497336
2.49531e-05
0.00496913
2.54702e-05
0.00496481
2.60609e-05
0.00496038
2.6706e-05
0.00495585
2.73924e-05
0.00495121
2.81121e-05
0.00494645
2.88602e-05
0.00494156
2.96344e-05
0.00493655
3.04334e-05
0.0049314
3.1257e-05
0.00492612
3.21052e-05
0.0049207
3.29785e-05
0.00491513
3.38771e-05
0.00490941
3.48014e-05
0.00490355
3.57516e-05
0.00489752
3.6728e-05
0.00489133
3.77308e-05
0.00488498
3.87601e-05
0.00487846
3.98161e-05
0.00487177
4.08987e-05
0.0048649
4.20083e-05
0.00485785
4.31447e-05
0.00485061
4.43081e-05
0.00484319
4.54987e-05
0.00483557
4.67165e-05
0.00482775
4.79618e-05
0.00481973
4.92348e-05
0.00481151
5.05365e-05
0.00480308
5.18691e-05
0.00479445
5.32388e-05
5.4665e-05
0.0047856
0.00505063
8.94124e-07
0.00505026
2.61344e-06
0.00504966
4.23051e-06
0.00504885
5.73674e-06
0.00504783
7.22427e-06
0.00504657
8.94733e-06
0.005045
1.12458e-05
0.00504302
1.43483e-05
0.00504053
1.81953e-05
0.00503747
2.24109e-05
0.00503386
2.64354e-05
0.00502978
2.97327e-05
0.00502537
3.19604e-05
0.00502077
3.30397e-05
0.00501611
3.31234e-05
0.00501151
3.25037e-05
0.00500701
3.15101e-05
0.00500265
3.04318e-05
0.0049984
2.94771e-05
0.00499425
2.87661e-05
0.00499017
2.83447e-05
0.00498611
2.82071e-05
0.00498205
2.83185e-05
0.00497795
2.86329e-05
0.0049738
2.91043e-05
0.00496958
2.96932e-05
0.00496527
3.0369e-05
0.00496086
3.11092e-05
0.00495636
3.18987e-05
0.00495174
3.27279e-05
0.00494701
3.35911e-05
0.00494216
3.44852e-05
0.00493718
3.54087e-05
0.00493208
3.6361e-05
0.00492684
3.73422e-05
0.00492147
3.83525e-05
0.00491595
3.93922e-05
0.00491029
4.04616e-05
0.00490449
4.15609e-05
0.00489852
4.26904e-05
0.0048924
4.38501e-05
0.00488612
4.50403e-05
0.00487968
4.62609e-05
0.00487306
4.75121e-05
0.00486628
4.87939e-05
0.00485932
5.01064e-05
0.00485218
5.14495e-05
0.00484485
5.28234e-05
0.00483734
5.4228e-05
0.00482964
5.56636e-05
0.00482174
5.71303e-05
0.00481365
5.86286e-05
0.00480536
6.01601e-05
0.00479687
6.17285e-05
0.00478819
6.33449e-05
0.0047797
-7.29142e-07
1.80428e-09
0.00477991
-2.10015e-07
1.69934e-09
0.00477957
3.4351e-07
1.57844e-09
0.00477863
9.33467e-07
1.4628e-09
0.00477707
1.56473e-06
1.33966e-09
0.00477483
2.24013e-06
1.20935e-09
0.00477186
2.96362e-06
1.07229e-09
0.00476812
3.7396e-06
9.28473e-10
0.00476355
4.57296e-06
7.77559e-10
0.00475808
5.46914e-06
6.19473e-10
0.00475164
6.43417e-06
4.54542e-10
0.00474417
7.47475e-06
2.82805e-10
0.00473557
8.59833e-06
1.04477e-10
0.00472576
9.81322e-06
-7.98179e-11
0.00471463
1.11287e-05
-2.70502e-10
0.00470207
1.25551e-05
-4.68651e-10
0.00468797
1.41044e-05
-6.76072e-10
0.00467218
1.579e-05
-8.81077e-10
0.00465455
1.76275e-05
-1.07788e-09
0.00463492
1.96343e-05
-1.26995e-09
0.00461309
2.18311e-05
-1.45617e-09
0.00458885
2.42416e-05
-1.63659e-09
0.00456196
2.68941e-05
-1.80771e-09
0.00453214
2.98216e-05
-1.96691e-09
0.00449908
3.30632e-05
-2.11311e-09
0.00446241
3.66653e-05
-2.24526e-09
0.00442173
4.06835e-05
-2.36337e-09
0.00437655
4.51838e-05
-2.46774e-09
0.00432631
5.02458e-05
-2.55949e-09
0.00427035
5.59651e-05
-2.64013e-09
0.00420789
6.24574e-05
-2.71154e-09
0.00413803
6.98633e-05
-2.77516e-09
0.00405968
7.83543e-05
-2.833e-09
0.00397154
8.814e-05
-2.88687e-09
0.00387207
9.94765e-05
-2.93828e-09
0.0037594
0.000112675
-2.98855e-09
0.00363129
0.000128107
-3.03865e-09
0.00348509
0.000146208
-3.08933e-09
0.00331763
0.00016746
-3.14061e-09
0.00312529
0.000192347
-3.19254e-09
0.00290403
0.000221265
-3.24628e-09
0.00264968
0.000254344
-3.30277e-09
0.00235855
0.000291139
-3.36309e-09
0.00202841
0.000330147
-3.42731e-09
0.00166034
0.000368072
-3.48861e-09
0.00126156
0.000398785
-3.52341e-09
0.000849564
0.000411995
-3.47521e-09
0.000457981
0.000391586
-3.2291e-09
0.000144941
0.000313043
-2.58602e-09
0.000144942
-1.25025e-09
0.00477878
-8.69987e-08
0.00477763
9.46974e-07
0.00477592
2.05159e-06
0.00477362
3.23063e-06
0.00477069
4.49083e-06
0.0047671
5.83923e-06
0.00476278
7.28376e-06
0.00475768
8.83324e-06
0.00475176
1.04975e-05
0.00474494
1.22874e-05
0.00473716
1.4215e-05
0.00472834
1.62939e-05
0.0047184
1.85388e-05
0.00470725
2.09664e-05
0.00469478
2.35954e-05
0.00468089
2.64465e-05
0.00466545
2.95435e-05
0.00464832
3.29136e-05
0.00462936
3.65876e-05
0.0046084
4.0601e-05
0.00458523
4.49948e-05
0.00455966
4.98169e-05
0.00453143
5.51237e-05
0.00450027
6.09814e-05
0.00446586
6.74685e-05
0.00442785
7.4678e-05
0.00438581
8.27206e-05
0.00433927
9.17289e-05
0.00428765
0.000101861
0.00423031
0.000113309
0.00416646
0.000126303
0.00409521
0.000141122
0.00401545
0.000158107
0.00392592
0.000177675
0.00382506
0.000200332
0.00371105
0.000226691
0.00358167
0.000257486
0.00343431
0.000293567
0.0032659
0.000335872
0.00307291
0.000385337
0.00285147
0.000442706
0.00259763
0.00050818
0.00230797
0.000580804
0.0019806
0.000657517
0.00161696
0.00073171
0.00122455
0.000791189
0.000821029
0.00081552
0.000439664
0.000772951
0.000136494
0.000616213
0.000281436
0.00477696
3.27026e-06
0.00477309
4.81867e-06
0.00476867
6.47017e-06
0.00476367
8.23341e-06
0.00475804
1.0118e-05
0.00475174
1.21346e-05
0.00474473
1.42952e-05
0.00473695
1.66133e-05
0.00472835
1.91035e-05
0.00471885
2.17823e-05
0.0047084
2.46678e-05
0.00469691
2.77803e-05
0.00468431
3.1142e-05
0.0046705
3.47782e-05
0.00465538
3.87166e-05
0.00463883
4.29888e-05
0.00462075
4.76303e-05
0.00460098
5.26822e-05
0.00457937
5.8191e-05
0.00455577
6.42099e-05
0.00452996
7.08008e-05
0.00450174
7.80359e-05
0.00447086
8.6e-05
0.00443705
9.47928e-05
0.00439999
0.000104532
0.00435931
0.000115358
0.00431459
0.000127436
0.00426536
0.000140966
0.00421103
0.000156185
0.00415096
0.000173377
0.00408438
0.000192888
0.00401037
0.000215133
0.00392786
0.000240618
0.00383557
0.000269958
0.00373201
0.000303898
0.00361536
0.000343339
0.0034835
0.000389348
0.00333391
0.000443155
0.00316368
0.000506102
0.00296952
0.000579501
0.00274787
0.000664349
0.00249525
0.000760798
0.0022088
0.000867263
0.00188729
0.00097902
0.00153286
0.00108614
0.00115347
0.00117058
0.0007668
0.00120219
0.000405672
0.00113408
0.000123528
0.000898358
0.000404964
0.00477426
1.06615e-05
0.00476636
1.27168e-05
0.00475792
1.49084e-05
0.00474891
1.72482e-05
0.00473928
1.97494e-05
0.00472898
2.24264e-05
0.00471798
2.52953e-05
0.00470622
2.83739e-05
0.00469364
3.16822e-05
0.00468018
3.52419e-05
0.00466578
3.90774e-05
0.00465034
4.32157e-05
0.00463379
4.76868e-05
0.00461605
5.25241e-05
0.004597
5.77649e-05
0.00457654
6.34514e-05
0.00455454
6.96314e-05
0.00453086
7.63596e-05
0.00450535
8.36985e-05
0.00447784
9.17195e-05
0.00444814
0.000100505
0.00441602
0.000110153
0.00438124
0.000120776
0.00434353
0.000132508
0.00430255
0.000145506
0.00425795
0.000159958
0.00420931
0.000176085
0.00415612
0.000194152
0.00409783
0.000214474
0.00403378
0.00023743
0.00396319
0.000263475
0.00388517
0.000293158
0.00379864
0.000327142
0.00370237
0.000366229
0.00359488
0.000411389
0.00347444
0.00046378
0.00333902
0.000524765
0.00318628
0.000595896
0.00301355
0.000678831
0.0028179
0.000775147
0.00259631
0.000885942
0.00234597
0.00101114
0.00206489
0.00114834
0.00175289
0.00129102
0.00141304
0.001426
0.00105383
0.00152978
0.000692511
0.00156351
0.000360035
0.00146655
0.000105114
0.00115328
0.000510077
0.00477073
2.33492e-05
0.00475754
2.59005e-05
0.00474383
2.86212e-05
0.00472955
3.15263e-05
0.00471467
3.46326e-05
0.00469914
3.79584e-05
0.00468291
4.15239e-05
0.00466593
4.53517e-05
0.00464815
4.94664e-05
0.00462949
5.38955e-05
0.0046099
5.86695e-05
0.00458929
6.38221e-05
0.00456759
6.9391e-05
0.00454469
7.5418e-05
0.00452051
8.19502e-05
0.00449492
8.90402e-05
0.0044678
9.67481e-05
0.00443902
0.000105143
0.00440842
0.000114303
0.00437582
0.000124319
0.00434103
0.000135293
0.00430383
0.000147349
0.00426398
0.000160629
0.00422119
0.0001753
0.00417513
0.00019156
0.00412545
0.000209645
0.0040717
0.00022983
0.00401341
0.000252447
0.00394999
0.000277888
0.0038808
0.000306623
0.00380506
0.000339215
0.00372188
0.00037634
0.00363021
0.000418808
0.00352885
0.000467595
0.00341637
0.000523867
0.00329114
0.000589005
0.0031513
0.000664611
0.00299472
0.000752471
0.00281911
0.000854445
0.00262205
0.000972203
0.00240126
0.00110673
0.00215492
0.00125748
0.00188229
0.00142097
0.00158458
0.00158874
0.00126611
0.00174446
0.000935924
0.00185997
0.000609936
0.0018895
0.000314207
0.00176228
8.69841e-05
0.0013805
0.000597061
0.00476642
4.25265e-05
0.00474676
4.55568e-05
0.00472659
4.87902e-05
0.00470588
5.22446e-05
0.00468457
5.59404e-05
0.00466263
5.98995e-05
0.00464001
6.41463e-05
0.00461665
6.87077e-05
0.0045925
7.36134e-05
0.0045675
7.88962e-05
0.00454158
8.45929e-05
0.00451466
9.0744e-05
0.00448665
9.73947e-05
0.00445748
0.000104596
0.00442702
0.000112403
0.00439518
0.000120881
0.00436183
0.000130101
0.00432682
0.000140148
0.00429001
0.000151116
0.00425122
0.000163113
0.00421025
0.000176265
0.00416687
0.00019072
0.00412085
0.000206649
0.0040719
0.000224256
0.00401968
0.000243779
0.00396382
0.0002655
0.0039039
0.000289752
0.00383942
0.000316932
0.0037698
0.000347509
0.00369438
0.000382041
0.0036124
0.000421197
0.00352297
0.000465769
0.00342507
0.000516707
0.00331753
0.000575136
0.00319901
0.000642388
0.003068
0.000720009
0.00292286
0.000809757
0.0027618
0.000913527
0.00258305
0.00103319
0.00238499
0.00117027
0.00216643
0.00132529
0.00192707
0.00149685
0.00166806
0.00167998
0.00139276
0.00186403
0.00110743
0.0020298
0.000821904
0.0021455
0.000549805
0.0021616
0.000307164
0.00200492
0.00010606
0.00158161
0.000703122
0.00476142
6.92927e-05
0.0047342
7.2777e-05
0.00470649
7.65009e-05
0.00467825
8.04835e-05
0.00464945
8.47479e-05
0.00462003
8.93195e-05
0.00458995
9.42265e-05
0.00455915
9.95e-05
0.00452759
0.000105174
0.0044952
0.000111288
0.00446191
0.000117884
0.00442764
0.00012501
0.00439232
0.000132717
0.00435585
0.000141066
0.00431813
0.000150123
0.00427905
0.000159961
0.00423848
0.000170667
0.0041963
0.000182338
0.00415233
0.000195084
0.00410641
0.000209034
0.00405833
0.000224336
0.00400789
0.000241161
0.00395483
0.000259714
0.00389885
0.000280232
0.00383964
0.000302993
0.00377681
0.00032833
0.00370993
0.00035663
0.00363851
0.000388356
0.00356196
0.000424053
0.00347963
0.000464369
0.00339076
0.000510069
0.00329447
0.000562061
0.00318976
0.000621419
0.0030755
0.000689399
0.00295042
0.000767465
0.00281315
0.000857277
0.00266225
0.000960652
0.00249633
0.00107946
0.00231416
0.00121536
0.00211504
0.00136939
0.00189913
0.0015412
0.00166806
0.00172791
0.00142558
0.00192246
0.00117826
0.00211135
0.000936006
0.00227205
0.000711606
0.0023699
0.000518187
0.00235501
0.000360241
0.00216287
0.000218065
0.00172378
0.000921187
-3.05429e-05
3.05436e-05
-7.19866e-10
-8.62013e-05
5.566e-05
-1.65221e-09
-0.000145032
5.88325e-05
-2.24687e-09
-0.000194173
4.91445e-05
-2.60246e-09
-0.000226477
3.23067e-05
-2.75845e-09
-0.000238226
1.17516e-05
-2.73184e-09
-0.000228214
-1.00101e-05
-2.48567e-09
-0.000196557
-3.16545e-05
-2.10238e-09
-0.000143968
-5.25876e-05
-1.54565e-09
-7.17164e-05
-7.22507e-05
-8.22045e-10
1.8604e-05
-9.03204e-05
4.83214e-11
0.000125191
-0.000106588
1.03149e-09
0.000246171
-0.000120982
2.10071e-09
0.000379631
-0.000133463
3.20841e-09
0.000523664
-0.000144038
4.30913e-09
0.000676406
-0.000152747
5.36183e-09
0.000836057
-0.000159657
6.33684e-09
0.0010009
-0.000164851
7.21622e-09
0.00116932
-0.000168429
7.98671e-09
0.00133981
-0.000170501
8.6696e-09
0.00151099
-0.000171186
9.24091e-09
0.00168159
-0.000170606
9.67279e-09
0.00185046
-0.000168884
1.00395e-08
0.00201659
-0.000166142
1.05583e-08
0.00217909
-0.000162507
1.11935e-08
0.00233718
-0.000158105
1.16412e-08
0.00249023
-0.000153056
1.18231e-08
0.00263769
-0.000147475
1.16885e-08
0.00277915
-0.00014147
1.13015e-08
0.00291428
-0.000135141
1.06907e-08
0.00304285
-0.000128581
9.87999e-09
0.00316472
-0.000121877
8.89612e-09
0.00327981
-0.000115104
7.77368e-09
0.00338814
-0.000108333
6.55293e-09
0.00348976
-0.000101623
5.27895e-09
0.00358478
-9.50288e-05
3.9985e-09
0.00367337
-8.85941e-05
2.7551e-09
0.00375573
-8.23568e-05
1.58654e-09
0.00383208
-7.63475e-05
5.24562e-10
0.00390267
-7.05903e-05
-4.08049e-10
0.00396777
-6.5103e-05
-1.19393e-09
0.00402767
-5.98978e-05
-1.82408e-09
0.00408266
-5.49821e-05
-2.29587e-09
0.00413302
-5.03586e-05
-2.61021e-09
0.00417905
-4.60262e-05
-2.7731e-09
0.00422103
-4.19805e-05
-2.79451e-09
0.00425925
-3.82141e-05
-2.68534e-09
0.00429397
-3.47171e-05
-2.45869e-09
0.00432544
-3.14776e-05
-2.12733e-09
-2.84817e-05
0.00435393
-1.70253e-09
-2.67949e-05
5.73385e-05
-7.53765e-05
0.000104242
-0.000126189
0.000109645
-0.000167915
9.08702e-05
-0.000194024
5.84159e-05
-0.00020099
1.87179e-05
-0.000187827
-2.31732e-05
-0.000154291
-6.51899e-05
-0.000101039
-0.00010584
-2.90847e-05
-0.000144205
6.0061e-05
-0.000179466
0.000164825
-0.000211352
0.000283488
-0.000239645
0.000414268
-0.000264244
0.000555377
-0.000285147
0.00070505
-0.000302419
0.000861569
-0.000316177
0.00102329
-0.000326573
0.00118865
-0.000333792
0.0013562
-0.000338045
0.00152457
-0.000339558
0.00169253
-0.000338568
0.00185896
-0.000335312
0.00202285
-0.000330032
0.00218331
-0.000322971
0.00233959
-0.000314377
0.00249102
-0.00030449
0.00263708
-0.000293535
0.00277734
-0.000281726
0.00291146
-0.000269262
0.0030392
-0.000256329
0.00316042
-0.000243097
0.00327504
-0.000229719
0.00338304
-0.000216333
0.00348448
-0.000203061
0.00357946
-0.000190009
0.00366813
-0.000177267
0.00375068
-0.00016491
0.00382734
-0.000153
0.00389833
-0.000141586
0.00396393
-0.000130702
0.00402441
-0.000120376
0.00408005
-0.00011062
0.00413113
-0.000101443
0.00417795
-9.28409e-05
0.00422077
-8.48064e-05
0.00425988
-7.7325e-05
0.00429554
-7.03773e-05
0.004328
-6.39396e-05
-5.79836e-05
0.00435751
-2.01354e-05
7.74739e-05
-5.45769e-05
0.000138683
-9.00681e-05
0.000145136
-0.00011767
0.000118472
-0.000132092
7.28376e-05
-0.00012995
1.65762e-05
-0.000111136
-4.19873e-05
-7.41312e-05
-0.000102195
-1.97703e-05
-0.000160201
5.11331e-05
-0.000215108
0.000137761
-0.000266094
0.000238813
-0.000312404
0.00035284
-0.000353671
0.00047832
-0.000389724
0.000613691
-0.000420518
0.000757378
-0.000446107
0.000907826
-0.000466624
0.00106352
-0.000482267
0.00122301
-0.000493279
0.00138491
-0.000499948
0.00154794
-0.000502587
0.0017109
-0.000501531
0.00187271
-0.000497122
0.00203238
-0.000489704
0.00218904
-0.000479629
0.00234192
-0.000467257
0.00249037
-0.000452941
0.00263385
-0.000437013
0.00277192
-0.000419789
0.00290422
-0.000401563
0.0030305
-0.000382612
0.00315059
-0.000363189
0.0032644
-0.000343522
0.00337188
-0.00032382
0.00347308
-0.000304263
0.00356809
-0.000285011
0.00365702
-0.000266201
0.00374005
-0.000247945
0.00381739
-0.000230338
0.00388926
-0.000213454
0.0039559
-0.000197346
0.00401758
-0.000182055
0.00407457
-0.000167604
0.00412713
-0.000154004
0.00417554
-0.000141252
0.00422007
-0.000129337
0.00426098
-0.000118239
0.00429854
-0.000107929
0.00433297
-9.83735e-05
-8.95273e-05
0.00436451
-8.28218e-06
8.57561e-05
-2.41481e-05
0.000154549
-3.85509e-05
0.000159539
-4.66847e-05
0.000126606
-4.54053e-05
7.15582e-05
-3.06409e-05
1.81178e-06
-3.98464e-06
-6.86435e-05
3.59978e-05
-0.000142177
9.06552e-05
-0.000214858
0.000159649
-0.000284102
0.00024223
-0.000348675
0.000337569
-0.000407743
0.000444658
-0.000460761
0.000562347
-0.000507413
0.000689388
-0.000547558
0.000824471
-0.00058119
0.000966264
-0.000608417
0.00111343
-0.000629435
0.00126467
-0.000644513
0.0014187
-0.00065398
0.00157432
-0.000658213
0.00173041
-0.00065762
0.00188592
-0.000652625
0.00203987
-0.000643661
0.00219142
-0.000631175
0.00233979
-0.000615624
0.00248431
-0.000597468
0.00262444
-0.00057714
0.0027597
-0.00055505
0.00288973
-0.000531588
0.00301423
-0.000507117
0.00313301
-0.000481972
0.00324595
-0.000456457
0.00335298
-0.000430849
0.00345411
-0.000405391
0.00354939
-0.000380295
0.00363894
-0.000355746
0.00372289
-0.000331896
0.00380142
-0.000308872
0.00387474
-0.000286775
0.00394307
-0.000265679
0.00400666
-0.000245641
0.00406575
-0.000226692
0.00412059
-0.000208848
0.00417145
-0.000192111
0.00421858
-0.000176466
0.00426223
-0.000161888
0.00430264
-0.000148341
0.00434005
-0.00013578
-0.000124142
0.00437466
6.84867e-06
7.89074e-05
1.47374e-05
0.00014666
2.598e-05
0.000148296
4.07599e-05
0.000111826
6.10107e-05
5.13074e-05
8.59212e-05
-2.30987e-05
0.00012045
-0.000103172
0.000164789
-0.000186517
0.000219441
-0.00026951
0.000285021
-0.000349682
0.000361668
-0.000425322
0.000449174
-0.00049525
0.000547063
-0.00055865
0.000654638
-0.000614988
0.000771037
-0.000663956
0.000895273
-0.000705426
0.00102628
-0.00073942
0.00116292
-0.000766083
0.00130407
-0.000785663
0.00144859
-0.000798492
0.00159534
-0.000804972
0.00174328
-0.000805556
0.00189139
-0.000800731
0.00203872
-0.000790996
0.00218442
-0.000776875
0.00232771
-0.000758911
0.0024679
-0.000737657
0.0026044
-0.000713642
0.00273672
-0.000687369
0.00286445
-0.000659317
0.00298726
-0.000629934
0.00310493
-0.000599636
0.00321727
-0.000568805
0.00332421
-0.000537785
0.0034257
-0.000506882
0.00352177
-0.000476365
0.00361249
-0.000446467
0.00369798
-0.000417382
0.00377838
-0.000389273
0.00385387
-0.000362267
0.00392466
-0.000336463
0.00399095
-0.000311932
0.00405297
-0.000288719
0.00411097
-0.000266849
0.00416519
-0.000246322
0.00421585
-0.000227127
0.00426319
-0.000209233
0.00430745
-0.000192599
0.00434884
-0.000177167
-0.000162862
0.00438756
2.32273e-05
5.56801e-05
5.92413e-05
0.000110646
9.8743e-05
0.000108795
0.000138649
7.19199e-05
0.000178199
1.17573e-05
0.000216023
-6.09223e-05
0.000257211
-0.00014436
0.000303179
-0.000232485
0.0003555
-0.00032183
0.000415438
-0.000409621
0.000483859
-0.000493742
0.000561224
-0.000572615
0.000647647
-0.000645072
0.000742939
-0.00071028
0.000846665
-0.000767682
0.000958192
-0.000816953
0.00107673
-0.000857963
0.0012014
-0.000890745
0.00133121
-0.000915474
0.00146515
-0.000932437
0.00160221
-0.000942024
0.00174135
-0.000944699
0.0018816
-0.000940983
0.00202203
-0.000931425
0.00216176
-0.000916602
0.00229998
-0.000897132
0.00243598
-0.000873652
0.00256911
-0.000846779
0.00269885
-0.000817104
0.00282472
-0.000785193
0.00294637
-0.000751579
0.0030635
-0.000716762
0.00317589
-0.0006812
0.00328341
-0.000645308
0.00338599
-0.000609459
0.0034836
-0.000573979
0.00357629
-0.000539152
0.00366413
-0.000505219
0.00374723
-0.000472377
0.00382575
-0.000440788
0.00389986
-0.000410574
0.00396976
-0.000381825
0.00403564
-0.000354601
0.00409772
-0.000328934
0.00415623
-0.000304831
0.00421139
-0.00028228
0.0042634
-0.00026125
0.0043125
-0.000241693
0.00435888
-0.000223546
-0.000206716
0.00440273
4.30733e-05
1.26068e-05
0.000112192
4.15277e-05
0.00018045
4.05365e-05
0.000245094
7.27625e-06
0.000297961
-4.11097e-05
0.000345963
-0.000108925
0.000390926
-0.000189323
0.000435799
-0.000277358
0.00048312
-0.000369151
0.000534985
-0.000461487
0.000593015
-0.000551771
0.000658343
-0.000637943
0.000731665
-0.000718395
0.000813291
-0.000791906
0.0009032
-0.000857592
0.0010011
-0.000914854
0.00110648
-0.000963342
0.00121865
-0.00100292
0.00133681
-0.00103363
0.00146004
-0.00105567
0.0015874
-0.00106938
0.0017179
-0.0010752
0.00185058
-0.00107366
0.0019845
-0.00106534
0.00211875
-0.00105085
0.00225249
-0.00103087
0.00238495
-0.00100611
0.00251544
-0.000977271
0.00264336
-0.000945025
0.0027682
-0.000910027
0.00288952
-0.000872897
0.00300697
-0.000834218
0.0031203
-0.000794529
0.00322931
-0.000754319
0.00333388
-0.000714031
0.00343396
-0.000674052
0.00352953
-0.000634722
0.00362064
-0.000596329
0.00370737
-0.000559113
0.00378985
-0.000523268
0.00386823
-0.000488946
0.00394266
-0.000456257
0.00401333
-0.000425277
0.00408045
-0.000396049
0.0041442
-0.000368588
0.00420481
-0.000342883
0.00426246
-0.000318902
0.00431736
-0.000296596
0.00436971
-0.000275895
0.0044197
-0.000256705
0.00438928
-3.53523e-05
-1.20261e-09
0.00442278
-3.3502e-05
-6.39725e-10
0.00445452
-3.17381e-05
-1.06472e-11
0.00448459
-3.00642e-05
6.58331e-10
0.00451307
-2.84806e-05
1.34482e-09
0.00454005
-2.6986e-05
2.03118e-09
0.00456562
-2.55786e-05
2.70408e-09
0.00458988
-2.42557e-05
3.35359e-09
0.00461289
-2.30141e-05
3.97227e-09
0.00463473
-2.18503e-05
4.55752e-09
0.00465549
-2.07605e-05
5.10942e-09
0.00467522
-1.97406e-05
5.62997e-09
0.004694
-1.87863e-05
6.12275e-09
0.00471189
-1.78931e-05
6.59352e-09
0.00472894
-1.70561e-05
7.04743e-09
0.0047452
-1.62701e-05
7.48871e-09
0.00476072
-1.55294e-05
7.92156e-09
0.00477554
-1.48276e-05
8.34795e-09
0.00478969
-1.4158e-05
8.76608e-09
0.0048032
-1.35135e-05
9.17074e-09
0.00481607
-1.28871e-05
9.55452e-09
0.00482834
-1.22726e-05
9.90562e-09
0.00483999
-1.1665e-05
1.02085e-08
0.00485104
-1.10615e-05
1.04467e-08
0.00486149
-1.04622e-05
1.06032e-08
0.00487135
-9.87021e-06
1.06634e-08
0.00488063
-9.29159e-06
1.06152e-08
0.00488936
-8.73452e-06
1.04529e-08
0.00489756
-8.20807e-06
1.01759e-08
0.00490527
-7.72061e-06
9.79036e-09
0.00491254
-7.27839e-06
9.30959e-09
0.00491941
-6.88436e-06
8.74933e-09
0.00492594
-6.53783e-06
8.12892e-09
0.00493217
-6.23469e-06
7.4681e-09
0.00493813
-5.96834e-06
6.78697e-09
0.00494386
-5.7309e-06
6.1004e-09
0.00494936
-5.51446e-06
5.42257e-09
0.00495467
-5.31207e-06
4.76386e-09
0.00495979
-5.11831e-06
4.13053e-09
0.00496471
-4.92951e-06
3.52645e-09
0.00496945
-4.74355e-06
2.95451e-09
0.00497401
-4.55956e-06
2.41649e-09
0.00497838
-4.37746e-06
1.91237e-09
0.00498258
-4.19769e-06
1.44461e-09
0.0049866
-4.02059e-06
1.02885e-09
0.00499045
-3.84711e-06
6.39586e-10
0.00499412
-3.67772e-06
2.8004e-10
0.00499764
-3.51277e-06
-4.89436e-11
0.00500099
-3.35248e-06
-3.48518e-10
0.00500419
-3.19702e-06
-6.25381e-10
0.00500724
-3.04645e-06
-8.87267e-10
0.00501014
-2.90078e-06
-1.14292e-09
0.0050129
-2.75998e-06
-1.40165e-09
0.00501552
-2.624e-06
-1.67146e-09
0.00501802
-2.49273e-06
-1.95839e-09
0.00502039
-2.3661e-06
-2.26646e-09
0.00502263
-2.24398e-06
-2.59361e-09
0.00502476
-2.12629e-06
-2.9322e-09