/*--------------------------------*- C++ -*----------------------------------*\
| =========                 |                                                 |
| \\      /  F ield         | OpenFOAM: The Open Source CFD Toolbox           |
|  \\    /   O peration     | Version:  2412                                  |
|   \\  /    A nd           | Website:  www.openfoam.com                      |
|    \\/     M anipulation  |                                                 |
\*---------------------------------------------------------------------------*/
FoamFile
{
    version     2.0;
    format      ascii;
    arch        "LSB;label=32;scalar=64";
    class       volVectorField;
    location    "17.5";
    object      U;
}
// * * * * * * * * * * * * * * * * * * * * * * * * * * * * * * * * * * * * * //

dimensions      [0 1 -1 0 0 0 0];

internalField   nonuniform List<vector> 
63420
(
(0.0999997 4.34689e-07 0)
(0.099995 1.29664e-06 0)
(0.0999852 2.13952e-06 0)
(0.0999709 2.95742e-06 0)
(0.0999526 3.80171e-06 0)
(0.0999299 4.82151e-06 0)
(0.0999016 6.2239e-06 0)
(0.0998653 8.15888e-06 0)
(0.0998187 1.06079e-05 0)
(0.0997597 1.33547e-05 0)
(0.0996883 1.60559e-05 0)
(0.099606 1.83653e-05 0)
(0.0995158 2.00453e-05 0)
(0.0994214 2.10202e-05 0)
(0.0993259 2.13663e-05 0)
(0.099232 2.12592e-05 0)
(0.0991411 2.09094e-05 0)
(0.0990536 2.051e-05 0)
(0.0989695 2.02061e-05 0)
(0.0988878 2.00859e-05 0)
(0.0988078 2.01878e-05 0)
(0.0987284 2.05133e-05 0)
(0.098649 2.10423e-05 0)
(0.0985688 2.17454e-05 0)
(0.0984872 2.25924e-05 0)
(0.098404 2.35567e-05 0)
(0.0983188 2.46181e-05 0)
(0.0982315 2.57622e-05 0)
(0.0981419 2.69802e-05 0)
(0.0980498 2.82674e-05 0)
(0.0979553 2.96223e-05 0)
(0.0978581 3.10457e-05 0)
(0.0977583 3.25395e-05 0)
(0.0976558 3.41066e-05 0)
(0.0975504 3.57505e-05 0)
(0.0974422 3.74749e-05 0)
(0.0973309 3.92835e-05 0)
(0.0972166 4.11804e-05 0)
(0.0970991 4.31694e-05 0)
(0.0969783 4.52549e-05 0)
(0.0968542 4.74407e-05 0)
(0.0967267 4.97313e-05 0)
(0.0965956 5.2131e-05 0)
(0.096461 5.46442e-05 0)
(0.0963226 5.72757e-05 0)
(0.0961804 6.00302e-05 0)
(0.0960343 6.29129e-05 0)
(0.0958842 6.5929e-05 0)
(0.0957301 6.9084e-05 0)
(0.0955717 7.23842e-05 0)
(0.095409 7.58362e-05 0)
(0.095242 7.94488e-05 0)
(0.0950704 8.32357e-05 0)
(0.0948942 8.72263e-05 0)
(0.0947131 9.14955e-05 0)
(0.0999997 1.30376e-06 0)
(0.099995 3.8892e-06 0)
(0.0999852 6.41787e-06 0)
(0.099971 8.87202e-06 0)
(0.0999526 1.14047e-05 0)
(0.0999299 1.44606e-05 0)
(0.0999017 1.8658e-05 0)
(0.0998655 2.44456e-05 0)
(0.099819 3.17699e-05 0)
(0.0997603 3.99871e-05 0)
(0.0996891 4.80737e-05 0)
(0.0996071 5.49963e-05 0)
(0.0995173 6.00438e-05 0)
(0.099423 6.29885e-05 0)
(0.0993278 6.40555e-05 0)
(0.0992339 6.37669e-05 0)
(0.099143 6.27503e-05 0)
(0.0990556 6.15812e-05 0)
(0.0989713 6.06928e-05 0)
(0.0988896 6.03496e-05 0)
(0.0988095 6.06665e-05 0)
(0.0987301 6.16491e-05 0)
(0.0986506 6.32384e-05 0)
(0.0985703 6.53474e-05 0)
(0.0984888 6.78859e-05 0)
(0.0984056 7.07756e-05 0)
(0.0983204 7.39558e-05 0)
(0.0982331 7.73838e-05 0)
(0.0981436 8.10334e-05 0)
(0.0980516 8.48908e-05 0)
(0.0979571 8.89514e-05 0)
(0.0978601 9.32171e-05 0)
(0.0977604 9.7694e-05 0)
(0.097658 0.000102391 0)
(0.0975528 0.000107318 0)
(0.0974447 0.000112485 0)
(0.0973336 0.000117906 0)
(0.0972194 0.00012359 0)
(0.0971021 0.000129551 0)
(0.0969816 0.0001358 0)
(0.0968577 0.000142349 0)
(0.0967304 0.000149213 0)
(0.0965996 0.000156402 0)
(0.0964652 0.000163932 0)
(0.0963271 0.000171815 0)
(0.0961852 0.000180066 0)
(0.0960395 0.000188701 0)
(0.0958897 0.000197735 0)
(0.0957359 0.000207185 0)
(0.0955779 0.000217068 0)
(0.0954156 0.000227406 0)
(0.095249 0.000238223 0)
(0.0950779 0.000249561 0)
(0.0949022 0.000261504 0)
(0.0947216 0.000274268 0)
(0.0999997 2.17194e-06 0)
(0.099995 6.47886e-06 0)
(0.0999852 1.06919e-05 0)
(0.099971 1.47813e-05 0)
(0.0999527 1.89996e-05 0)
(0.09993 2.4082e-05 0)
(0.0999018 3.1053e-05 0)
(0.0998659 4.06589e-05 0)
(0.0998197 5.28164e-05 0)
(0.0997614 6.64647e-05 0)
(0.0996908 7.99108e-05 0)
(0.0996094 9.14415e-05 0)
(0.0995201 9.9874e-05 0)
(0.0994263 0.000104824 0)
(0.0993314 0.000106657 0)
(0.0992377 0.000106235 0)
(0.0991469 0.000104592 0)
(0.0990594 0.000102685 0)
(0.098975 0.000101231 0)
(0.0988931 0.000100673 0)
(0.0988128 0.000101203 0)
(0.0987333 0.000102833 0)
(0.0986537 0.000105469 0)
(0.0985734 0.000108967 0)
(0.0984918 0.000113179 0)
(0.0984086 0.000117977 0)
(0.0983235 0.000123258 0)
(0.0982364 0.000128954 0)
(0.0981469 0.00013502 0)
(0.0980551 0.000141432 0)
(0.0979609 0.000148184 0)
(0.0978641 0.000155279 0)
(0.0977646 0.000162725 0)
(0.0976625 0.000170537 0)
(0.0975576 0.000178733 0)
(0.0974498 0.000187329 0)
(0.097339 0.000196345 0)
(0.0972252 0.000205801 0)
(0.0971083 0.000215716 0)
(0.0969881 0.000226109 0)
(0.0968647 0.000237003 0)
(0.0967379 0.000248417 0)
(0.0966076 0.000260373 0)
(0.0964737 0.000272893 0)
(0.0963362 0.000286001 0)
(0.0961949 0.00029972 0)
(0.0960497 0.000314074 0)
(0.0959006 0.000329091 0)
(0.0957475 0.000344796 0)
(0.0955903 0.000361221 0)
(0.0954288 0.000378398 0)
(0.0952631 0.000396369 0)
(0.0950929 0.000415198 0)
(0.0949181 0.000435023 0)
(0.0947387 0.000456184 0)
(0.0999997 3.03864e-06 0)
(0.0999951 9.06367e-06 0)
(0.0999852 1.49588e-05 0)
(0.0999711 2.06817e-05 0)
(0.0999528 2.6581e-05 0)
(0.0999302 3.36745e-05 0)
(0.0999021 4.33842e-05 0)
(0.0998664 5.67527e-05 0)
(0.0998207 7.36752e-05 0)
(0.099763 9.26904e-05 0)
(0.0996932 0.000111454 0)
(0.0996127 0.000127584 0)
(0.0995242 0.00013943 0)
(0.0994311 0.000146442 0)
(0.0993366 0.000149116 0)
(0.0992433 0.000148635 0)
(0.0991525 0.000146434 0)
(0.0990649 0.000143839 0)
(0.0989804 0.000141851 0)
(0.0988983 0.00014109 0)
(0.0988178 0.000141829 0)
(0.0987381 0.000144093 0)
(0.0986583 0.000147752 0)
(0.0985779 0.000152612 0)
(0.0984963 0.00015847 0)
(0.0984132 0.000165145 0)
(0.0983282 0.0001725 0)
(0.0982412 0.000180437 0)
(0.098152 0.000188893 0)
(0.0980604 0.000197837 0)
(0.0979664 0.000207257 0)
(0.09787 0.000217157 0)
(0.0977709 0.00022755 0)
(0.0976692 0.000238455 0)
(0.0975647 0.000249895 0)
(0.0974573 0.000261896 0)
(0.0973471 0.000274482 0)
(0.0972338 0.000287682 0)
(0.0971175 0.000301521 0)
(0.0969979 0.000316028 0)
(0.0968752 0.000331232 0)
(0.096749 0.000347161 0)
(0.0966194 0.000363844 0)
(0.0964864 0.000381314 0)
(0.0963496 0.0003996 0)
(0.0962092 0.000418737 0)
(0.096065 0.000438757 0)
(0.095917 0.000459698 0)
(0.0957649 0.000481597 0)
(0.0956088 0.000504493 0)
(0.0954486 0.000528433 0)
(0.0952841 0.000553472 0)
(0.0951152 0.000579696 0)
(0.094942 0.000607282 0)
(0.0947641 0.00063667 0)
(0.0999997 3.90334e-06 0)
(0.0999951 1.16417e-05 0)
(0.0999853 1.92155e-05 0)
(0.0999711 2.65696e-05 0)
(0.0999529 3.41437e-05 0)
(0.0999304 4.32273e-05 0)
(0.0999025 5.5629e-05 0)
(0.0998671 7.26851e-05 0)
(0.0998219 9.42809e-05 0)
(0.0997651 0.000118577 0)
(0.0996963 0.0001426 0)
(0.0996169 0.000163318 0)
(0.0995294 0.000178613 0)
(0.0994372 0.000187764 0)
(0.0993434 0.000191376 0)
(0.0992504 0.00019094 0)
(0.0991597 0.000188271 0)
(0.0990721 0.000185056 0)
(0.0989873 0.000182576 0)
(0.098905 0.000181629 0)
(0.0988242 0.000182573 0)
(0.0987443 0.00018545 0)
(0.0986644 0.000190102 0)
(0.0985839 0.000196287 0)
(0.0985023 0.00020375 0)
(0.0984192 0.000212265 0)
(0.0983344 0.000221655 0)
(0.0982475 0.000231795 0)
(0.0981586 0.000242608 0)
(0.0980674 0.000254049 0)
(0.0979738 0.000266105 0)
(0.0978778 0.000278779 0)
(0.0977792 0.000292087 0)
(0.097678 0.000306053 0)
(0.0975741 0.000320705 0)
(0.0974674 0.000336075 0)
(0.0973578 0.000352196 0)
(0.0972452 0.000369101 0)
(0.0971296 0.000386825 0)
(0.0970109 0.000405403 0)
(0.096889 0.00042487 0)
(0.0967638 0.000445263 0)
(0.0966352 0.00046662 0)
(0.0965031 0.00048898 0)
(0.0963675 0.000512382 0)
(0.0962283 0.000536868 0)
(0.0960854 0.000562481 0)
(0.0959386 0.000589265 0)
(0.095788 0.000617268 0)
(0.0956334 0.000646541 0)
(0.0954747 0.000677138 0)
(0.0953119 0.000709128 0)
(0.0951449 0.000742611 0)
(0.0949736 0.000777788 0)
(0.0947978 0.000815154 0)
(0.0999997 4.76567e-06 0)
(0.0999951 1.4211e-05 0)
(0.0999853 2.34594e-05 0)
(0.0999712 3.24413e-05 0)
(0.0999531 4.16824e-05 0)
(0.0999306 5.27305e-05 0)
(0.0999029 6.77674e-05 0)
(0.099868 8.84199e-05 0)
(0.0998234 0.000114577 0)
(0.0997676 0.000144047 0)
(0.0997 0.00017326 0)
(0.0996219 0.000198551 0)
(0.0995357 0.000217339 0)
(0.0994445 0.00022872 0)
(0.0993514 0.00023339 0)
(0.0992589 0.000233121 0)
(0.0991684 0.000230094 0)
(0.0990807 0.000226341 0)
(0.0989957 0.000223421 0)
(0.0989131 0.000222307 0)
(0.098832 0.000223452 0)
(0.0987518 0.000226916 0)
(0.0986717 0.000232523 0)
(0.0985911 0.000239989 0)
(0.0985096 0.000249009 0)
(0.0984266 0.000259314 0)
(0.0983419 0.000270691 0)
(0.0982554 0.00028299 0)
(0.0981668 0.000296114 0)
(0.098076 0.000310012 0)
(0.0979829 0.000324663 0)
(0.0978875 0.000340071 0)
(0.0977895 0.000356254 0)
(0.0976889 0.00037324 0)
(0.0975858 0.000391063 0)
(0.0974798 0.00040976 0)
(0.0973711 0.000429369 0)
(0.0972594 0.000449931 0)
(0.0971448 0.000471488 0)
(0.0970271 0.000494081 0)
(0.0969062 0.000517752 0)
(0.0967821 0.000542547 0)
(0.0966548 0.000568509 0)
(0.096524 0.000595685 0)
(0.0963898 0.000624122 0)
(0.096252 0.00065387 0)
(0.0961106 0.000684981 0)
(0.0959655 0.000717507 0)
(0.0958166 0.000751503 0)
(0.0956638 0.00078703 0)
(0.0955071 0.000824151 0)
(0.0953464 0.000862943 0)
(0.0951816 0.000903514 0)
(0.0950127 0.000946068 0)
(0.0948395 0.000991104 0)
(0.0999997 5.62489e-06 0)
(0.0999951 1.67703e-05 0)
(0.0999854 2.76877e-05 0)
(0.0999714 3.82933e-05 0)
(0.0999532 4.91921e-05 0)
(0.0999309 6.21753e-05 0)
(0.0999034 7.97824e-05 0)
(0.0998689 0.000103927 0)
(0.0998252 0.000134518 0)
(0.0997704 0.000169042 0)
(0.0997042 0.000203362 0)
(0.0996275 0.000233206 0)
(0.0995427 0.000255535 0)
(0.0994527 0.000269248 0)
(0.0993605 0.00027511 0)
(0.0992685 0.00027515 0)
(0.0991782 0.000271888 0)
(0.0990904 0.000267692 0)
(0.0990053 0.000264389 0)
(0.0989224 0.000263134 0)
(0.098841 0.000264472 0)
(0.0987606 0.000268496 0)
(0.0986803 0.000275014 0)
(0.0985996 0.000283707 0)
(0.0985181 0.000294228 0)
(0.0984353 0.000306266 0)
(0.0983509 0.000319575 0)
(0.0982647 0.000333979 0)
(0.0981766 0.000349364 0)
(0.0980863 0.000365668 0)
(0.0979938 0.000382866 0)
(0.097899 0.00040096 0)
(0.0978017 0.000419971 0)
(0.097702 0.000439928 0)
(0.0975996 0.000460872 0)
(0.0974946 0.000482842 0)
(0.0973869 0.000505885 0)
(0.0972763 0.000530047 0)
(0.0971628 0.000555374 0)
(0.0970463 0.000581915 0)
(0.0969267 0.00060972 0)
(0.096804 0.000638838 0)
(0.096678 0.000669322 0)
(0.0965488 0.000701224 0)
(0.0964162 0.0007346 0)
(0.0962801 0.000769507 0)
(0.0961406 0.000806002 0)
(0.0959974 0.000844146 0)
(0.0958506 0.000884003 0)
(0.0957 0.00092564 0)
(0.0955456 0.000969126 0)
(0.0953874 0.00101454 0)
(0.0952252 0.001062 0)
(0.0950591 0.00111167 0)
(0.094889 0.00116397 0)
(0.0945261 9.62591e-05 -4.53527e-24)
(0.0943314 0.000101286 -4.62305e-24)
(0.094127 0.000106658 -3.17647e-26)
(0.0939122 0.000112409 1.42031e-23)
(0.0936864 0.000118561 -4.70484e-24)
(0.0934489 0.000125147 -4.84177e-24)
(0.0931987 0.000132207 -1.49078e-23)
(0.0929351 0.000139783 1.48026e-23)
(0.092657 0.000147926 5.0649e-24)
(0.0923633 0.00015669 0)
(0.092053 0.000166133 5.23252e-24)
(0.0917246 0.000176323 -5.32274e-24)
(0.0913769 0.000187334 4.3786e-23)
(0.0910082 0.000199248 -9.38423e-23)
(0.0906169 0.000212157 5.01602e-23)
(0.090201 0.000226164 4.06498e-23)
(0.0897586 0.000241388 5.21619e-23)
(0.0892873 0.000257963 -5.97377e-24)
(0.0887846 0.000276041 6.10424e-24)
(0.0882476 0.000295799 -6.24226e-24)
(0.0876732 0.000317439 0)
(0.0870579 0.000341201 6.54335e-24)
(0.0863975 0.000367362 -6.70776e-24)
(0.0856877 0.000396253 0)
(0.0849231 0.000428263 -7.0682e-24)
(0.0840978 0.000463853 0)
(0.0832051 0.000503577 -7.47691e-24)
(0.082237 0.000548092 -1.2531e-22)
(0.0811844 0.00059819 1.33061e-22)
(0.0800366 0.000654823 -1.33587e-22)
(0.0787811 0.000719146 1.33383e-22)
(0.077403 0.000792558 0)
(0.075885 0.00087677 0)
(0.0742061 0.00097387 1.63549e-22)
(0.0723415 0.00108641 -1.53884e-22)
(0.0702615 0.0012175 0)
(0.0679303 0.00137084 0)
(0.065305 0.00155078 0)
(0.0623348 0.00176211 0)
(0.05896 0.00200965 0)
(0.055113 0.00229734 0)
(0.0507206 0.0026264 0)
(0.0457109 0.00299232 0)
(0.0400267 0.00338 0)
(0.0336498 0.0037565 -1.51437e-23)
(0.0266412 0.00406055 -5.19883e-22)
(0.0191851 0.00419002 5.19103e-22)
(0.0116632 0.00398846 5.64105e-22)
(0.00499701 0.00321553 -5.63258e-22)
(0.00101955 0.00149636 0)
(0.0945351 0.000288496 -4.5879e-24)
(0.0943405 0.000303577 -9.3568e-24)
(0.0941363 0.00031968 -4.9039e-24)
(0.0939219 0.000336893 4.56922e-24)
(0.0936964 0.000355304 -4.77001e-24)
(0.0934592 0.000375015 3.41817e-23)
(0.0932094 0.000396147 -5.36821e-23)
(0.0929462 0.00041883 4.98581e-24)
(0.0926686 0.000443209 6.65455e-23)
(0.0923755 0.000469448 -9.19074e-23)
(0.0920658 0.000497725 -8.97515e-23)
(0.0917381 0.00052824 7.90859e-23)
(0.0913912 0.000561214 0)
(0.0910234 0.000596896 5.52289e-24)
(0.0906331 0.00063556 -1.68788e-23)
(0.0902184 0.000677518 -1.91425e-22)
(0.0897772 0.000723122 1.83724e-22)
(0.0893073 0.000772776 -1.95304e-22)
(0.0888062 0.00082694 -1.83393e-23)
(0.088271 0.00088614 6.25595e-24)
(0.0876987 0.000950986 0)
(0.0870856 0.00102219 -6.5603e-24)
(0.0864279 0.0011006 -2.11424e-22)
(0.085721 0.00118719 4.41836e-22)
(0.0849598 0.00128313 2.43764e-22)
(0.0841385 0.00138981 -4.59735e-22)
(0.0832503 0.00150888 4.95144e-22)
(0.0822876 0.00164232 -5.02432e-22)
(0.0812413 0.00179248 -7.97411e-24)
(0.080101 0.00196222 0)
(0.0788545 0.00215499 0)
(0.0774874 0.00237496 0)
(0.0759827 0.00262722 0)
(0.0743204 0.002918 -9.47813e-24)
(0.0724765 0.00325488 -6.4287e-22)
(0.0704225 0.00364707 -2.7272e-23)
(0.0681242 0.00410557 6.684e-22)
(0.065541 0.00464316 7.28161e-22)
(0.0626245 0.00527394 -7.27197e-22)
(0.0593184 0.00601203 -2.41589e-23)
(0.0555584 0.00686869 -2.5241e-23)
(0.0512747 0.00784701 -8.7059e-22)
(0.0463978 0.00893282 8.41912e-22)
(0.0408692 0.0100803 -2.86923e-23)
(0.0346632 0.0111906 1.52496e-23)
(0.0278207 0.012081 -1.05709e-21)
(0.0204889 0.012447 1.05671e-21)
(0.012986 0.0118242 -2.20532e-21)
(0.00610838 0.00950794 2.16845e-21)
(0.00147135 0.00439272 -2.22195e-21)
(0.0945529 0.000479764 -2.71411e-23)
(0.0943588 0.000504823 -9.52209e-24)
(0.0941551 0.000531567 3.67341e-23)
(0.0939411 0.000560137 -7.55608e-23)
(0.0937163 0.000590695 1.61683e-22)
(0.0934798 0.000623417 -7.65917e-23)
(0.0932308 0.000658499 1.41915e-26)
(0.0929685 0.000696161 9.94414e-24)
(0.0926919 0.000736646 1.73389e-22)
(0.0924 0.000780222 -1.631e-22)
(0.0920916 0.000827189 0)
(0.0917654 0.000877879 1.46057e-26)
(0.0914201 0.000932662 0)
(0.0910541 0.000991949 1.8971e-22)
(0.0906659 0.0010562 -1.67222e-22)
(0.0902535 0.00112593 -3.60511e-22)
(0.0898149 0.00120173 2.00281e-23)
(0.0893479 0.00128427 -3.79588e-22)
(0.0888501 0.00137432 1.22714e-23)
(0.0883186 0.00147276 -4.06589e-22)
(0.0877504 0.0015806 4.19045e-22)
(0.087142 0.00169903 -4.27032e-22)
(0.0864896 0.00182946 4.40124e-22)
(0.0857888 0.00197351 1.38528e-23)
(0.0850346 0.00213314 -1.4233e-23)
(0.0842214 0.00231065 1.46372e-23)
(0.0833426 0.00250878 -4.90338e-22)
(0.0823908 0.00273081 5.05434e-22)
(0.0813575 0.00298066 5.37869e-22)
(0.0802326 0.00326305 -5.21361e-22)
(0.0790045 0.00358367 0)
(0.0776597 0.00394941 0)
(0.0761823 0.00436865 1.83261e-23)
(0.0745537 0.00485159 1.26307e-21)
(0.0727517 0.00541065 3.04853e-23)
(0.0707504 0.00606082 -1.27137e-21)
(0.0685188 0.00681993 0)
(0.0660204 0.00770857 -2.22249e-23)
(0.0632123 0.00874927 1.5483e-21)
(0.0600443 0.00996421 -3.09129e-21)
(0.0564593 0.0113705 3.27784e-21)
(0.0523942 0.0129711 9.91969e-23)
(0.0477836 0.0147404 -1.70366e-21)
(0.0425672 0.0166003 -1.84504e-21)
(0.0367032 0.0183862 1.90147e-21)
(0.0301918 0.0197975 1.47258e-24)
(0.0231047 0.0203348 -3.23409e-23)
(0.0156347 0.0192353 2.13026e-21)
(0.00831389 0.0153775 -2.06281e-21)
(0.00233967 0.00703854 -2.06332e-21)
(0.0945796 0.000669393 1.78831e-23)
(0.0943861 0.000704262 -9.07476e-24)
(0.0941831 0.000741468 1.94932e-26)
(0.09397 0.000781217 9.33723e-24)
(0.0937461 0.000823731 -1.96053e-26)
(0.0935107 0.000869258 1.55114e-22)
(0.093263 0.000918074 -2.93108e-22)
(0.0930022 0.000970486 1.57527e-22)
(0.0927272 0.00102683 -1.00849e-23)
(0.0924371 0.00108749 1.86397e-22)
(0.0921307 0.00115288 -1.65799e-22)
(0.0918068 0.00122347 -3.44085e-22)
(0.0914641 0.00129976 6.94762e-22)
(0.091101 0.00138234 -7.08461e-22)
(0.090716 0.00147185 7.22829e-22)
(0.0903072 0.001569 -7.26461e-22)
(0.0898726 0.00167463 -3.84595e-22)
(0.0894102 0.00178968 2.25884e-26)
(0.0889174 0.0019152 0)
(0.0883917 0.00205245 -3.95943e-22)
(0.08783 0.00220282 4.08372e-22)
(0.0872289 0.002368 0)
(0.0865849 0.00254993 -8.82024e-22)
(0.0858937 0.00275091 8.67712e-22)
(0.0851504 0.00297364 1.43685e-23)
(0.0843498 0.00322135 -3.71707e-26)
(0.0834857 0.00349785 1.51875e-23)
(0.0825511 0.0038077 0)
(0.081538 0.00415633 -5.31706e-26)
(0.080437 0.00455029 0)
(0.0792377 0.00499743 -1.72461e-23)
(0.0779275 0.00550724 1.16633e-21)
(0.0764924 0.00609124 -1.16601e-21)
(0.0749157 0.00676337 -1.92907e-23)
(0.0731782 0.0075405 3.99353e-23)
(0.0712576 0.00844292 -1.37698e-21)
(0.0691279 0.00949456 1.33418e-21)
(0.0667588 0.0107228 2.26092e-23)
(0.0641151 0.0121571 -3.57891e-25)
(0.0611564 0.0138258 2.41272e-23)
(0.0578358 0.0157493 -1.65727e-21)
(0.0541004 0.0179279 3.35056e-21)
(0.0498912 0.0203212 -1.74678e-21)
(0.0451445 0.0228173 1.80721e-21)
(0.0397951 0.0251868 -1.89194e-21)
(0.0337813 0.0270196 -3.75996e-21)
(0.0270563 0.0276386 7.67071e-21)
(0.0196245 0.0260005 -3.88325e-21)
(0.0116597 0.020605 0)
(0.00362981 0.00932055 -3.65051e-21)
(0.0946149 0.000856687 -8.86972e-24)
(0.0944222 0.000901162 -3.62328e-23)
(0.0942202 0.000948603 1.0984e-22)
(0.0940083 0.000999279 -1.48315e-22)
(0.0937859 0.00105348 6.53231e-23)
(0.0935521 0.00111153 9.57946e-24)
(0.0933062 0.00117379 -9.73977e-24)
(0.0930474 0.00124064 -2.46418e-26)
(0.0927747 0.00131252 1.00829e-23)
(0.0924872 0.00138992 -2.05089e-23)
(0.0921837 0.00147336 -3.37494e-22)
(0.0918631 0.00156345 3.48308e-22)
(0.091524 0.00166083 -3.40223e-22)
(0.0911649 0.00176626 3.51206e-22)
(0.0907844 0.00188055 0)
(0.0903807 0.00200462 -2.49045e-26)
(0.0899518 0.00213953 0)
(0.0894958 0.00228648 -3.79548e-22)
(0.0890102 0.00244686 4.0421e-22)
(0.0884925 0.00262223 -1.27042e-23)
(0.08794 0.00281441 -8.56483e-22)
(0.0873493 0.00302554 8.4384e-22)
(0.0867171 0.00325812 -1.37279e-23)
(0.0860393 0.00351507 0)
(0.0853115 0.00379988 0)
(0.0845288 0.00411662 -9.84544e-22)
(0.0836854 0.00447018 9.54633e-22)
(0.082775 0.00486633 0)
(0.0817903 0.00531198 -3.27646e-23)
(0.080723 0.00581539 0)
(0.0795639 0.00638645 1.75487e-23)
(0.0783023 0.00703709 -1.8088e-23)
(0.076926 0.00778166 -1.88424e-23)
(0.0754214 0.00863746 1.9424e-23)
(0.073773 0.00962532 1.27859e-21)
(0.0719635 0.01077 -1.31964e-21)
(0.0699732 0.0121005 2.87006e-21)
(0.0677802 0.0136494 -2.87191e-21)
(0.0653599 0.0154514 3.04999e-21)
(0.0626841 0.0175382 8.84995e-23)
(0.05972 0.0199307 -3.21483e-21)
(0.0564281 0.022623 -2.56859e-23)
(0.0527582 0.0255577 1.27154e-24)
(0.0486432 0.0285886 1.68541e-24)
(0.0439892 0.0314266 2.227e-24)
(0.0386568 0.0335668 -5.5617e-23)
(0.0324403 0.0341871 -2.55141e-23)
(0.0250804 0.0320043 -2.42481e-23)
(0.0162832 0.0251547 0)
(0.00536596 0.0112315 7.58172e-24)
(0.0946586 0.00104105 -4.40152e-23)
(0.0944671 0.00109491 2.64768e-23)
(0.0942665 0.00115238 9.05914e-24)
(0.0940563 0.00121378 1.39065e-22)
(0.0938357 0.00127947 -1.39117e-22)
(0.0936041 0.00134986 1.43928e-22)
(0.0933608 0.00142537 -3.19488e-22)
(0.0931047 0.00150648 4.5486e-22)
(0.0928352 0.00159372 -3.18611e-22)
(0.0925511 0.00168768 -3.30531e-22)
(0.0922515 0.00178902 -1.6601e-23)
(0.0919352 0.00189845 6.71245e-22)
(0.091601 0.00201678 -7.07075e-22)
(0.0912473 0.00214491 3.29798e-22)
(0.0908728 0.00228384 3.55948e-22)
(0.0904759 0.0024347 3.72144e-22)
(0.0900546 0.00259879 -2.87003e-23)
(0.089607 0.00277757 7.58464e-22)
(0.0891311 0.00297274 7.83351e-22)
(0.0886242 0.00318621 1.98426e-23)
(0.0880839 0.00342021 -8.30534e-22)
(0.0875071 0.00367736 0)
(0.0868906 0.0039607 0)
(0.0862309 0.00427382 -9.26151e-22)
(0.0855238 0.00462095 9.12849e-22)
(0.084765 0.00500708 9.8357e-22)
(0.0839493 0.00543811 -9.85027e-22)
(0.0830712 0.00592106 0)
(0.0821245 0.00646425 1.10014e-21)
(0.0811022 0.00707761 -1.10226e-21)
(0.0799966 0.00777299 0)
(0.0787991 0.00856453 -2.38669e-21)
(0.0775004 0.00946916 2.40879e-21)
(0.0760904 0.0105071 -1.99141e-23)
(0.0745583 0.0117022 -2.66473e-21)
(0.0728928 0.0130827 2.68946e-21)
(0.0710823 0.0146806 0)
(0.0691152 0.0165312 3.02127e-21)
(0.0669797 0.0186701 -3.00264e-21)
(0.0646633 0.0211273 2.4341e-23)
(0.0621507 0.023917 3.31611e-21)
(0.0594198 0.027019 -6.65371e-21)
(0.0564331 0.0303507 1.87257e-23)
(0.0531236 0.0337257 3.67586e-23)
(0.0493694 0.0367975 3.45259e-21)
(0.0449508 0.0389869 3.85167e-24)
(0.0394864 0.0393767 -2.96196e-21)
(0.0323788 0.0365433 3.03646e-21)
(0.0226315 0.0284213 0)
(0.00779997 0.012478 2.69308e-23)
(0.0947106 0.00122169 8.6687e-24)
(0.0945208 0.00128441 7.98614e-23)
(0.0943223 0.00135141 -7.12195e-23)
(0.0941144 0.00142307 9.1426e-24)
(0.0938964 0.0014998 1.4054e-22)
(0.0936678 0.00158206 -1.40763e-22)
(0.0934278 0.00167038 -3.01578e-22)
(0.0931755 0.0017653 4.50717e-24)
(0.09291 0.00186747 -5.61148e-24)
(0.0926306 0.00197757 3.34948e-22)
(0.0923361 0.00209637 -3.27183e-22)
(0.0920255 0.00222473 6.94285e-22)
(0.0916976 0.00236362 -3.45952e-22)
(0.091351 0.00251409 1.11829e-23)
(0.0909845 0.00267734 1.14444e-23)
(0.0905964 0.00285472 7.57066e-22)
(0.090185 0.00304776 -4.98602e-24)
(0.0897487 0.00325824 7.90309e-22)
(0.0892853 0.00348815 1.26328e-23)
(0.0887926 0.0037398 0)
(0.0882684 0.00401585 0)
(0.0877099 0.00431943 -8.87242e-22)
(0.0871143 0.00465419 8.89484e-22)
(0.0864784 0.00502441 0)
(0.0857987 0.00543514 1.49683e-23)
(0.0850714 0.00589233 0)
(0.0842924 0.00640302 -1.03396e-21)
(0.0834571 0.00697553 2.10519e-21)
(0.0825606 0.00761972 -1.07131e-21)
(0.0815974 0.00834727 -2.27095e-21)
(0.0805619 0.00917206 -7.65219e-23)
(0.0794482 0.0101105 -8.07832e-23)
(0.0782502 0.0111822 -8.4959e-23)
(0.0769619 0.0124099 2.55433e-21)
(0.075578 0.0138204 2.74164e-21)
(0.074094 0.0154441 -2.74817e-21)
(0.0725071 0.0173145 0)
(0.0708167 0.0194661 3.04315e-21)
(0.0690251 0.0219302 -3.05022e-21)
(0.0671361 0.0247264 -3.24051e-21)
(0.0651537 0.0278492 3.22266e-21)
(0.0630752 0.0312459 2.6354e-23)
(0.0608796 0.0347855 3.24053e-21)
(0.0585063 0.0382159 -1.06096e-22)
(0.0558197 0.0411121 -3.20121e-21)
(0.0525453 0.0428227 2.44252e-23)
(0.0481775 0.0424046 0)
(0.0418656 0.0384934 -1.94114e-23)
(0.0317543 0.0292312 -9.08155e-22)
(0.0125726 0.0124176 4.32402e-22)
(-0.000241027 0.000318833 0)
(-0.00101576 0.000580734 3.16903e-22)
(-0.00211231 0.00060857 -3.17379e-22)
(-0.00313553 0.000506601 -3.13467e-22)
(-0.00389103 0.000333038 3.13938e-22)
(-0.00429532 0.000123494 -9.55917e-24)
(-0.00431077 -9.91022e-05 0)
(-0.00392901 -0.000322858 0)
(-0.00315722 -0.000538006 0)
(-0.0020123 -0.000739954 0)
(-0.000518691 -0.000925181 0)
(0.00129394 -0.0010919 0)
(0.00339349 -0.00123941 0)
(0.00574685 -0.00136741 0)
(0.00832039 -0.00147602 0)
(0.0110806 -0.00156569 7.5374e-23)
(0.0139949 -0.00163715 -7.0999e-23)
(0.0170316 -0.00169127 0)
(0.0201608 -0.0017291 0)
(0.023354 -0.00175178 -4.4748e-23)
(0.0265848 -0.00176053 4.48163e-23)
(0.0298287 -0.00175661 -2.98687e-23)
(0.0330635 -0.00174127 1.85074e-24)
(0.036269 -0.00171574 0)
(0.039427 -0.00168129 1.21861e-24)
(0.0425218 -0.0016392 0)
(0.0455397 -0.00159066 0)
(0.0484693 -0.00153682 0)
(0.0513009 -0.00147874 3.31274e-25)
(0.0540271 -0.00141743 0)
(0.0566418 -0.0013538 -5.02325e-26)
(0.059141 -0.0012887 -5.69585e-26)
(0.0615219 -0.00122289 1.44892e-25)
(0.0637832 -0.00115706 -2.23755e-24)
(0.0659248 -0.00109179 2.29651e-24)
(0.0679477 -0.00102762 2.38513e-24)
(0.0698538 -0.000964978 -5.26545e-24)
(0.0716459 -0.000904246 2.91222e-24)
(0.0733273 -0.000845723 3.81922e-25)
(0.0749021 -0.000789646 -3.89198e-25)
(0.0763745 -0.000736192 0)
(0.0777495 -0.000685484 -3.88301e-25)
(0.0790318 -0.000637594 1.90568e-24)
(0.0802266 -0.000592553 -1.89906e-24)
(0.0813391 -0.000550352 3.61994e-25)
(0.0823744 -0.000510948 -1.039e-24)
(0.0833375 -0.00047427 3.55136e-25)
(0.0842334 -0.000440224 6.36739e-25)
(0.0850668 -0.000408693 -3.16089e-25)
(0.0858424 -0.000379546 2.91304e-25)
(-0.000307712 0.000916581 -1.2077e-21)
(-0.00111845 0.00166016 -1.3178e-21)
(-0.00209576 0.00173682 1.2989e-21)
(-0.0029412 0.00143854 -6.1785e-22)
(-0.00350743 0.000931328 6.19048e-22)
(-0.00373078 0.000318449 9.62548e-24)
(-0.00358636 -0.00033243 -1.89179e-23)
(-0.00306994 -0.000989275 -5.83234e-22)
(-0.00218845 -0.00162068 5.65764e-22)
(-0.000958829 -0.00221465 -1.6538e-23)
(0.0005971 -0.00276001 -1.55829e-23)
(0.00245141 -0.00325208 4.44431e-22)
(0.00457439 -0.00368824 -4.45022e-22)
(0.00693557 -0.00406728 -3.76038e-22)
(0.0095036 -0.00438941 3.49306e-23)
(0.0122471 -0.00465585 3.42063e-22)
(0.0151354 -0.00486855 -4.51167e-24)
(0.0181387 -0.00503007 -8.20944e-24)
(0.0212284 -0.00514336 0)
(0.0243775 -0.00521176 0)
(0.0275608 -0.00523881 0)
(0.030755 -0.00522819 -2.22518e-24)
(0.0339386 -0.00518357 1.03998e-22)
(0.0370922 -0.00510858 -1.13062e-22)
(0.0401985 -0.00500701 6.97743e-23)
(0.0432421 -0.00488257 -4.37214e-23)
(0.04621 -0.00473886 -4.76335e-23)
(0.0490909 -0.00457927 2.02532e-23)
(0.0518756 -0.00440697 -3.32126e-25)
(0.0545568 -0.00422495 -4.44555e-25)
(0.0571288 -0.00403594 5.03419e-26)
(0.0595875 -0.00384247 1.00373e-25)
(0.0619303 -0.0036468 -5.36684e-24)
(0.0641559 -0.00345098 1.31781e-23)
(0.0662641 -0.00325679 -7.29745e-24)
(0.0682561 -0.00306579 8.96958e-25)
(0.0701336 -0.00287931 -3.46277e-25)
(0.0718993 -0.00269845 0)
(0.0735565 -0.00252414 6.42727e-24)
(0.0751091 -0.00235707 -5.69853e-24)
(0.0765614 -0.00219779 -5.40505e-24)
(0.0779181 -0.00204666 7.30724e-24)
(0.0791838 -0.0019039 -3.81988e-25)
(0.0803637 -0.00176961 -1.8124e-24)
(0.0814627 -0.00164376 3.25829e-24)
(0.0824859 -0.00152623 3.49043e-25)
(0.0834381 -0.00141682 2.29261e-24)
(0.0843243 -0.00131524 2.47835e-25)
(0.085149 -0.00122115 -6.53108e-25)
(0.0859167 -0.00113414 -8.84034e-25)
(-0.000424969 0.00139923 -1.2614e-21)
(-0.00128333 0.00249681 1.37776e-21)
(-0.00201034 0.00260733 -1.3366e-21)
(-0.00250668 0.00213536 -2.06386e-23)
(-0.0027081 0.00133506 -4.63195e-25)
(-0.00258445 0.000367376 -1.23618e-21)
(-0.00213671 -0.000662115 1.27674e-21)
(-0.00136659 -0.00171114 1.18303e-21)
(-0.000278531 -0.00271822 -3.80946e-23)
(0.00110873 -0.00366818 -2.14341e-21)
(0.00277927 -0.00454522 2.05181e-21)
(0.00470841 -0.00534 -9.71348e-22)
(0.006872 -0.00604671 -1.40371e-23)
(0.00924431 -0.00666282 0)
(0.0117983 -0.00718817 7.20787e-22)
(0.0145068 -0.00762426 -8.07604e-23)
(0.0173425 -0.00797381 -6.3055e-22)
(0.0202792 -0.00824059 1.6901e-23)
(0.0232912 -0.00842912 0)
(0.0263541 -0.00854455 0)
(0.029445 -0.00859246 1.65447e-22)
(0.0325426 -0.00857868 -1.60687e-22)
(0.0356271 -0.00850905 -1.12964e-22)
(0.0386806 -0.00838955 1.20186e-22)
(0.0416869 -0.00822606 2.8114e-24)
(0.044632 -0.00802478 -2.2438e-24)
(0.0475033 -0.00779154 1.74082e-24)
(0.0502906 -0.00753186 -3.10748e-23)
(0.0529851 -0.00725099 3.2405e-23)
(0.0555799 -0.00695379 -1.0717e-23)
(0.0580696 -0.0066448 1.17616e-23)
(0.0604505 -0.00632817 -4.34723e-26)
(0.06272 -0.00600765 -8.44289e-24)
(0.0648768 -0.00568662 2.07808e-23)
(0.066921 -0.00536804 -1.32202e-23)
(0.0688533 -0.0050545 -9.98146e-24)
(0.0706757 -0.00474821 8.82509e-24)
(0.0723906 -0.00445102 0)
(0.0740012 -0.00416445 -5.63703e-26)
(0.0755112 -0.00388968 0)
(0.0769247 -0.00362762 -1.18049e-23)
(0.078246 -0.00337888 1.10191e-23)
(0.0794798 -0.00314386 -7.04132e-25)
(0.0806307 -0.00292271 -3.31699e-26)
(0.0817037 -0.00271541 -5.47466e-24)
(0.0827034 -0.00252176 1.00505e-23)
(0.0836346 -0.00234145 -5.28325e-24)
(0.0845019 -0.002174 2.39271e-24)
(0.0853097 -0.00201885 -1.84387e-24)
(0.0860623 -0.0018753 -6.01019e-25)
(-0.000560049 0.00167048 -2.74576e-21)
(-0.001417 0.00295579 0)
(-0.0017366 0.00308146 2.81948e-21)
(-0.00172956 0.00246918 -5.62245e-21)
(-0.00141769 0.00144534 2.82389e-21)
(-0.000812769 0.00021489 1.27111e-21)
(4.50425e-05 -0.00113388 -1.33389e-21)
(0.00115605 -0.00249808 1.21539e-21)
(0.00252489 -0.00382105 -2.39291e-21)
(0.00411897 -0.00507737 1.15914e-21)
(0.00593483 -0.00624392 1.69054e-23)
(0.00795693 -0.00730603 4.7544e-25)
(0.010167 -0.0082551 1.42782e-23)
(0.0125454 -0.00908675 -8.32847e-22)
(0.0150713 -0.00979959 8.0749e-22)
(0.0177231 -0.0103946 2.22738e-23)
(0.020479 -0.0108745 -9.80522e-24)
(0.0233169 -0.0112436 5.38725e-22)
(0.0262154 -0.0115075 -5.38487e-22)
(0.0291538 -0.0116724 -7.13896e-24)
(0.0321121 -0.0117456 0)
(0.0350718 -0.0117346 3.58712e-25)
(0.0380153 -0.0116471 0)
(0.0409269 -0.011491 3.79685e-24)
(0.043792 -0.0112743 2.91968e-25)
(0.0465977 -0.011005 2.26502e-24)
(0.049333 -0.0106914 -1.06501e-22)
(0.0519884 -0.0103408 1.05011e-22)
(0.0545559 -0.00996036 0)
(0.0570292 -0.00955688 -1.67295e-23)
(0.0594033 -0.00913655 1.74088e-23)
(0.0616747 -0.0087051 0)
(0.063841 -0.00826772 -1.42924e-25)
(0.0659012 -0.0078291 9.633e-24)
(0.0678551 -0.00739337 -2.27821e-23)
(0.0697035 -0.00696412 2.92155e-23)
(0.0714483 -0.00654445 -3.42746e-23)
(0.0730916 -0.00613695 3.81794e-23)
(0.0746364 -0.00574374 -1.99683e-23)
(0.0760861 -0.00536651 -1.08005e-23)
(0.0774446 -0.00500652 9.44844e-24)
(0.0787159 -0.00466468 6.54196e-25)
(0.0799043 -0.00434154 1.08721e-23)
(0.0810143 -0.00403735 -2.27733e-23)
(0.0820502 -0.0037521 1.05746e-23)
(0.0830166 -0.00348555 3.66177e-26)
(0.0839179 -0.00323726 -6.2819e-25)
(0.0847583 -0.00300661 -2.96532e-26)
(0.085542 -0.00279282 5.7584e-25)
(0.086273 -0.00259487 -1.07284e-24)
(-0.000608446 0.00165163 -1.87224e-24)
(-0.00130425 0.00295778 -2.57607e-23)
(-0.00107601 0.00306684 -2.48583e-23)
(-0.00043607 0.00236015 -2.40193e-23)
(0.000506496 0.00120194 -4.5693e-23)
(0.00165467 -0.000210675 -6.84672e-25)
(0.00297596 -0.00177275 2.10626e-23)
(0.00448153 -0.00335185 -2.0796e-23)
(0.0061506 -0.00491248 -1.98794e-23)
(0.00797098 -0.0064075 2.29891e-21)
(0.00994129 -0.0078065 -1.70866e-22)