/*--------------------------------*- C++ -*----------------------------------*\
| =========                 |                                                 |
| \\      /  F ield         | OpenFOAM: The Open Source CFD Toolbox           |
|  \\    /   O peration     | Version:  2412                                  |
|   \\  /    A nd           | Website:  www.openfoam.com                      |
|    \\/     M anipulation  |                                                 |
\*---------------------------------------------------------------------------*/
FoamFile
{
    version     2.0;
    format      ascii;
    arch        "LSB;label=32;scalar=64";
    class       volVectorField;
    location    "17.5";
    object      vorticity;
}
// * * * * * * * * * * * * * * * * * * * * * * * * * * * * * * * * * * * * * //

dimensions      [0 0 -1 0 0 0 0];

internalField   nonuniform List<vector> 
63420
(
(0 0 5.88715e-06)
(0 0 5.84972e-06)
(0 0 5.73942e-06)
(0 0 5.7745e-06)
(0 0 6.53554e-06)
(0 0 8.58207e-06)
(0 0 1.18259e-05)
(0 0 1.52418e-05)
(0 0 1.72303e-05)
(0 0 1.64009e-05)
(0 0 1.2255e-05)
(0 0 5.38729e-06)
(0 0 -2.81931e-06)
(0 0 -1.0757e-05)
(0 0 -1.71138e-05)
(0 0 -2.11632e-05)
(0 0 -2.27935e-05)
(0 0 -2.23559e-05)
(0 0 -2.04441e-05)
(0 0 -1.7695e-05)
(0 0 -1.46547e-05)
(0 0 -1.17174e-05)
(0 0 -9.11951e-06)
(0 0 -6.96635e-06)
(0 0 -5.27091e-06)
(0 0 -3.99114e-06)
(0 0 -3.05941e-06)
(0 0 -2.40232e-06)
(0 0 -1.95218e-06)
(0 0 -1.65222e-06)
(0 0 -1.45781e-06)
(0 0 -1.33558e-06)
(0 0 -1.26148e-06)
(0 0 -1.21871e-06)
(0 0 -1.19586e-06)
(0 0 -1.18532e-06)
(0 0 -1.18213e-06)
(0 0 -1.18309e-06)
(0 0 -1.18615e-06)
(0 0 -1.19003e-06)
(0 0 -1.19393e-06)
(0 0 -1.19735e-06)
(0 0 -1.19994e-06)
(0 0 -1.20151e-06)
(0 0 -1.20191e-06)
(0 0 -1.201e-06)
(0 0 -1.19861e-06)
(0 0 -1.19431e-06)
(0 0 -1.18671e-06)
(0 0 -1.17095e-06)
(0 0 -1.13032e-06)
(0 0 -1.0087e-06)
(0 0 -6.24157e-07)
(0 0 5.94185e-07)
(0 4.5002e-23 4.3768e-06)
(0 0 1.7658e-05)
(0 0 1.75482e-05)
(0 0 1.72204e-05)
(0 0 1.73243e-05)
(0 0 1.95915e-05)
(0 0 2.56957e-05)
(0 0 3.53841e-05)
(0 0 4.561e-05)
(0 0 5.16075e-05)
(0 0 4.92238e-05)
(0 0 3.69567e-05)
(0 0 1.65605e-05)
(0 0 -7.85688e-06)
(0 0 -3.15096e-05)
(0 0 -5.04856e-05)
(0 0 -6.2612e-05)
(0 0 -6.75448e-05)
(0 0 -6.63204e-05)
(0 0 -6.06997e-05)
(0 0 -5.25749e-05)
(0 0 -4.3571e-05)
(0 0 -3.4862e-05)
(0 0 -2.71534e-05)
(0 0 -2.07606e-05)
(0 0 -1.57245e-05)
(0 0 -1.19216e-05)
(0 0 -9.15207e-06)
(0 0 -7.19852e-06)
(0 0 -5.86022e-06)
(0 0 -4.9687e-06)
(0 0 -4.3915e-06)
(0 0 -4.02942e-06)
(0 0 -3.81097e-06)
(0 0 -3.6862e-06)
(0 0 -3.62113e-06)
(0 0 -3.5931e-06)
(0 0 -3.58729e-06)
(0 0 -3.59415e-06)
(0 0 -3.60759e-06)
(0 0 -3.62377e-06)
(0 0 -3.64028e-06)
(0 0 -3.65557e-06)
(0 0 -3.66867e-06)
(0 0 -3.67892e-06)
(0 0 -3.68587e-06)
(0 0 -3.68911e-06)
(0 0 -3.6881e-06)
(0 0 -3.68158e-06)
(0 0 -3.66548e-06)
(0 0 -3.62576e-06)
(0 0 -3.51396e-06)
(0 0 -3.16746e-06)
(0 0 -2.05793e-06)
(0 0 1.4758e-06)
(0 4.54687e-23 1.24784e-05)
(0 0 2.94163e-05)
(0 0 2.92355e-05)
(0 0 2.86937e-05)
(0 0 2.88603e-05)
(0 0 3.25987e-05)
(0 0 4.26939e-05)
(0 0 5.87634e-05)
(0 0 7.58058e-05)
(0 0 8.59547e-05)
(0 0 8.23214e-05)
(0 0 6.23694e-05)
(0 0 2.89357e-05)
(0 0 -1.12398e-05)
(0 0 -5.02713e-05)
(0 0 -8.16894e-05)
(0 0 -0.000101878)
(0 0 -0.000110236)
(0 0 -0.000108442)
(0 0 -9.93773e-05)
(0 0 -8.6152e-05)
(0 0 -7.14417e-05)
(0 0 -5.71842e-05)
(0 0 -4.45476e-05)
(0 0 -3.40582e-05)
(0 0 -2.57885e-05)
(0 0 -1.95402e-05)
(0 0 -1.49874e-05)
(0 0 -1.17745e-05)
(0 0 -9.57267e-06)
(0 0 -8.10543e-06)
(0 0 -7.15526e-06)
(0 0 -6.55917e-06)
(0 0 -6.19963e-06)
(0 0 -5.99448e-06)
(0 0 -5.88779e-06)
(0 0 -5.84225e-06)
(0 0 -5.83348e-06)
(0 0 -5.84574e-06)
(0 0 -5.869e-06)
(0 0 -5.89692e-06)
(0 0 -5.92552e-06)
(0 0 -5.95224e-06)
(0 0 -5.97549e-06)
(0 0 -5.99417e-06)
(0 0 -6.00752e-06)
(0 0 -6.01487e-06)
(0 0 -6.01537e-06)
(0 0 -6.00702e-06)
(0 0 -5.98351e-06)
(0 0 -5.92307e-06)
(0 0 -5.75067e-06)
(0 0 -5.21384e-06)
(0 0 -3.48962e-06)
(0 0 2.02003e-06)
(0 2.68334e-22 1.92365e-05)
(0 0 4.11536e-05)
(0 0 4.09041e-05)
(0 0 4.0154e-05)
(0 0 4.03735e-05)
(0 0 4.55266e-05)
(0 0 5.9505e-05)
(0 0 8.1852e-05)
(0 0 0.000105719)
(0 0 0.000120246)
(0 0 0.000115852)
(0 0 8.89156e-05)
(0 0 4.32344e-05)
(0 0 -1.19699e-05)
(0 0 -6.5837e-05)
(0 0 -0.00010941)
(0 0 -0.000137637)
(0 0 -0.000149615)
(0 0 -0.000147598)
(0 0 -0.000135516)
(0 0 -0.000117632)
(0 0 -9.76292e-05)
(0 0 -7.81828e-05)
(0 0 -6.09129e-05)
(0 0 -4.65569e-05)
(0 0 -3.52266e-05)
(0 0 -2.6658e-05)
(0 0 -2.04098e-05)
(0 0 -1.59976e-05)
(0 0 -1.29719e-05)
(0 0 -1.09544e-05)
(0 0 -9.64711e-06)
(0 0 -8.82639e-06)
(0 0 -8.33095e-06)
(0 0 -8.04796e-06)
(0 0 -7.90056e-06)
(0 0 -7.83748e-06)
(0 0 -7.82516e-06)
(0 0 -7.84196e-06)
(0 0 -7.87408e-06)
(0 0 -7.91277e-06)
(0 0 -7.95255e-06)
(0 0 -7.98993e-06)
(0 0 -8.02267e-06)
(0 0 -8.04929e-06)
(0 0 -8.06872e-06)
(0 0 -8.08008e-06)
(0 0 -8.08222e-06)
(0 0 -8.07259e-06)
(0 0 -8.04327e-06)
(0 0 -7.96711e-06)
(0 0 -7.75063e-06)
(0 0 -7.07862e-06)
(0 0 -4.91827e-06)
(0 0 2.01391e-06)
(0 -1.76171e-22 2.38055e-05)
(0 0 5.28621e-05)
(0 0 5.25465e-05)
(0 0 5.15955e-05)
(0 0 5.1855e-05)
(0 0 5.83479e-05)
(0 0 7.60647e-05)
(0 0 0.000104549)
(0 0 0.000135248)
(0 0 0.000154449)
(0 0 0.000149936)
(0 0 0.000116944)
(0 0 6.00649e-05)
(0 0 -9.19688e-06)
(0 0 -7.71744e-05)
(0 0 -0.000132515)
(0 0 -0.000168743)
(0 0 -0.000184598)
(0 0 -0.000182817)
(0 0 -0.000168282)
(0 0 -0.000146327)
(0 0 -0.000121582)
(0 0 -9.74243e-05)
(0 0 -7.59129e-05)
(0 0 -5.79967e-05)
(0 0 -4.38356e-05)
(0 0 -3.31136e-05)
(0 0 -2.52871e-05)
(0 0 -1.97553e-05)
(0 0 -1.59587e-05)
(0 0 -1.3425e-05)
(0 0 -1.17816e-05)
(0 0 -1.07487e-05)
(0 0 -1.01243e-05)
(0 0 -9.76687e-06)
(0 0 -9.57995e-06)
(0 0 -9.49922e-06)
(0 0 -9.48253e-06)
(0 0 -9.50267e-06)
(0 0 -9.54229e-06)
(0 0 -9.59041e-06)
(0 0 -9.64012e-06)
(0 0 -9.68704e-06)
(0 0 -9.72834e-06)
(0 0 -9.76217e-06)
(0 0 -9.78718e-06)
(0 0 -9.80229e-06)
(0 0 -9.80612e-06)
(0 0 -9.79579e-06)
(0 0 -9.76256e-06)
(0 0 -9.67681e-06)
(0 0 -9.4371e-06)
(0 0 -8.70154e-06)
(0 0 -6.34342e-06)
(0 0 1.25967e-06)
(0 8.69696e-23 2.54047e-05)
(0 0 6.45353e-05)
(0 0 6.41546e-05)
(0 0 6.30119e-05)
(0 0 6.32963e-05)
(0 0 7.10385e-05)
(0 0 9.23183e-05)
(0 0 0.000126766)
(0 0 0.000164297)
(0 0 0.000188517)
(0 0 0.000184651)
(0 0 0.00014671)
(0 0 7.98898e-05)
(0 0 -2.26276e-06)
(0 0 -8.34757e-05)
(0 0 -0.000150115)
(0 0 -0.000194292)
(0 0 -0.000214325)
(0 0 -0.000213326)
(0 0 -0.000197012)
(0 0 -0.000171688)
(0 0 -0.000142859)
(0 0 -0.000114563)
(0 0 -8.92806e-05)
(0 0 -6.81719e-05)
(0 0 -5.14564e-05)
(0 0 -3.87812e-05)
(0 0 -2.95173e-05)
(0 0 -2.2962e-05)
(0 0 -1.8458e-05)
(0 0 -1.54489e-05)
(0 0 -1.34948e-05)
(0 0 -1.22649e-05)
(0 0 -1.15198e-05)
(0 0 -1.10919e-05)
(0 0 -1.08669e-05)
(0 0 -1.07683e-05)
(0 0 -1.07462e-05)
(0 0 -1.07682e-05)
(0 0 -1.08137e-05)
(0 0 -1.08696e-05)
(0 0 -1.09277e-05)
(0 0 -1.09827e-05)
(0 0 -1.10314e-05)
(0 0 -1.10715e-05)
(0 0 -1.11014e-05)
(0 0 -1.11198e-05)
(0 0 -1.11253e-05)
(0 0 -1.11149e-05)
(0 0 -1.10797e-05)
(0 0 -1.09908e-05)
(0 0 -1.07504e-05)
(0 0 -1.00319e-05)
(0 0 -7.75884e-06)
(0 0 -4.2246e-07)
(0 4.2912e-22 2.3274e-05)
(0 0 7.61641e-05)
(0 0 7.572e-05)
(0 0 7.43961e-05)
(0 0 7.4689e-05)
(0 0 8.35791e-05)
(0 0 0.000108223)
(0 0 0.000148432)
(0 0 0.000192785)
(0 0 0.000222398)
(0 0 0.00022002)
(0 0 0.000178361)
(0 0 0.000103002)
(0 0 9.26692e-06)
(0 0 -8.41953e-05)
(0 0 -0.000161598)
(0 0 -0.000213656)
(0 0 -0.000238196)
(0 0 -0.000238582)
(0 0 -0.000221238)
(0 0 -0.000193329)
(0 0 -0.000161151)
(0 0 -0.000129357)
(0 0 -0.000100829)
(0 0 -7.69404e-05)
(0 0 -5.79802e-05)
(0 0 -4.35767e-05)
(0 0 -3.30332e-05)
(0 0 -2.55623e-05)
(0 0 -2.04224e-05)
(0 0 -1.69839e-05)
(0 0 -1.47476e-05)
(0 0 -1.33374e-05)
(0 0 -1.24809e-05)
(0 0 -1.19872e-05)
(0 0 -1.17256e-05)
(0 0 -1.16091e-05)
(0 0 -1.15804e-05)
(0 0 -1.16025e-05)
(0 0 -1.16519e-05)
(0 0 -1.17136e-05)
(0 0 -1.17783e-05)
(0 0 -1.18399e-05)
(0 0 -1.18945e-05)
(0 0 -1.19397e-05)
(0 0 -1.19737e-05)
(0 0 -1.1995e-05)
(0 0 -1.20021e-05)
(0 0 -1.19919e-05)
(0 0 -1.19565e-05)
(0 0 -1.18702e-05)
(0 0 -1.16494e-05)
(0 0 -1.10239e-05)
(0 0 -9.13021e-06)
(0 0 -3.17727e-06)
(0 -8.39538e-23 1.65455e-05)
(-1.66205e-23 7.95888e-21 2.52499e-06)
(-1.46705e-22 7.82563e-21 1.94873e-06)
(3.30973e-23 -1.9645e-22 1.16741e-06)
(3.67972e-23 -2.33666e-20 1.39119e-07)
(-9.20738e-23 7.98359e-21 -1.17345e-06)
(3.62179e-22 7.84205e-21 -2.80276e-06)
(-7.90602e-22 2.28632e-20 -4.77774e-06)
(3.09782e-22 -2.32327e-20 -7.12688e-06)
(6.24301e-22 -7.47546e-21 -9.88081e-06)
(-8.92948e-22 -3.70086e-24 -1.30744e-05)
(-8.92941e-22 -7.49164e-21 -1.67479e-05)
(7.82212e-22 7.11624e-21 -2.09479e-05)
(5.61363e-22 -5.86381e-20 -2.57283e-05)
(-1.03531e-21 1.25895e-19 -3.11498e-05)
(3.55092e-22 -6.77335e-20 -3.72758e-05)
(-1.22562e-21 -5.10733e-20 -4.41643e-05)
(2.34533e-21 -6.50338e-20 -5.18653e-05)
(-1.84296e-21 7.66557e-21 -6.04379e-05)
(-1.88612e-22 -7.15192e-21 -6.99506e-05)
(7.27968e-23 7.15742e-21 -8.04577e-05)
(-3.12413e-24 -1.27781e-22 -9.1989e-05)
(-6.78551e-23 -6.90492e-21 -0.00010457)
(-1.99585e-21 6.96577e-21 -0.000118221)
(4.17647e-21 1.28308e-23 -0.000132967)
(1.21953e-21 6.76435e-21 -0.000148841)
(-3.25388e-21 -5.28313e-24 -0.000165901)
(4.68331e-21 7.8592e-21 -0.000184246)
(-5.48009e-21 1.01982e-19 -0.000204043)
(6.69564e-22 -1.09512e-19 -0.000225549)
(-2.10515e-21 1.00071e-19 -0.000249159)
(2.05041e-21 -1.01207e-19 -0.000275462)
(4.8175e-23 1.33214e-21 -0.00030535)
(-6.27118e-23 -1.63564e-21 -0.000340192)
(2.74121e-21 -9.58618e-20 -0.000382156)
(-8.58134e-21 9.30342e-20 -0.000434791)
(-3.14184e-22 -1.53746e-21 -0.000504054)
(6.16304e-21 1.34792e-23 -0.000600088)
(6.70144e-21 1.46567e-23 -0.000740202)
(-6.68e-21 -1.46098e-23 -0.000953629)
(-2.21507e-22 -4.84458e-25 -0.00128874)
(-2.30995e-22 -5.0521e-25 -0.0018233)
(-7.95242e-21 -1.73927e-23 -0.00267778)
(7.67614e-21 1.67885e-23 -0.0040307)
(-2.53542e-22 1.50879e-22 -0.00613283)
(-3.14421e-23 7.81049e-21 -0.00931458)
(-2.45878e-20 5.05729e-20 -0.0139776)
(2.36821e-20 -6.66396e-20 -0.0205577)
(-5.55247e-21 -9.48579e-21 -0.0294451)
(6.10361e-21 2.58972e-20 -0.0408554)
(-2.0308e-20 -5.66945e-21 -0.0545698)
(-2.57046e-22 7.971e-21 7.25152e-06)
(-1.0299e-22 1.56803e-20 5.45566e-06)
(3.03063e-22 7.62708e-21 2.99347e-06)
(-8.68011e-22 -7.83875e-21 -2.61207e-07)
(1.61171e-21 7.47721e-21 -4.4141e-06)
(-5.01225e-22 -5.35573e-20 -9.55526e-06)
(-2.11048e-22 8.50471e-20 -1.57672e-05)
(-5.70241e-23 -8.85968e-21 -2.31334e-05)
(2.15546e-21 -9.79511e-20 -3.1746e-05)
(-2.2375e-21 1.38302e-19 -4.1711e-05)
(-8.12964e-22 1.26379e-19 -5.3153e-05)
(5.98268e-22 -1.13701e-19 -6.62173e-05)
(-3.90378e-22 7.31991e-22 -8.10711e-05)
(2.78419e-21 -7.24211e-21 -9.79038e-05)
(-2.16655e-21 2.4085e-20 -0.000116915)
(-5.91163e-21 2.39243e-19 -0.000138287)
(1.59505e-21 -2.25e-19 -0.000162179)
(-5.52916e-21 2.41128e-19 -0.000188778)
(-2.91784e-22 1.9517e-20 -0.000218319)
(-3.81358e-21 -7.31563e-21 -0.000250981)
(4.03066e-21 1.4419e-22 -0.000286879)
(-4.04225e-21 9.08858e-21 -0.000326106)
(1.04682e-21 2.09522e-19 -0.000368757)
(5.81129e-21 -4.43681e-19 -0.000414935)
(4.43889e-21 -2.1199e-19 -0.000464781)
(-6.88327e-21 4.29145e-19 -0.000518514)
(3.52942e-21 -4.28027e-19 -0.000576483)
(-1.86471e-21 4.39185e-19 -0.000639239)
(3.26542e-21 1.45473e-21 -0.000707619)
(-3.69647e-21 -9.6866e-23 -0.000782875)
(-1.24197e-21 -2.71632e-24 -0.000866861)
(0 0 -0.000962337)
(1.83591e-22 9.5279e-23 -0.00107352)
(1.09781e-20 1.23003e-20 -0.00120706)
(-1.55322e-20 3.59173e-19 -0.0013738)
(-1.56727e-20 -2.40395e-20 -0.00159187)
(1.83551e-20 -3.54373e-19 -0.00189214)
(2.62944e-20 -3.06368e-19 -0.00232723)
(-9.19707e-21 3.27282e-19 -0.00298593)
(-3.10071e-20 2.17567e-21 -0.00401508)
(3.02925e-20 1.7274e-20 -0.00565045)
(-4.18456e-20 2.33737e-19 -0.00825693)
(2.25824e-20 -2.43129e-19 -0.0123745)
(-1.79433e-20 1.46194e-20 -0.018761)
(1.98924e-20 7.69975e-21 -0.028414)
(-5.96613e-20 1.13151e-19 -0.0425453)
(5.95885e-20 -1.10753e-19 -0.062466)
(-9.17431e-20 8.2772e-20 -0.08933)
(8.85322e-20 -9.24165e-20 -0.123714)
(-1.87479e-20 -6.34887e-22 -0.163584)
(-3.64969e-23 4.72217e-20 1.16004e-05)
(-8.4207e-23 1.49304e-20 8.36625e-06)
(3.69879e-22 -6.18564e-20 3.84136e-06)
(-7.8389e-22 1.23066e-19 -2.17079e-06)
(1.73114e-21 -2.63467e-19 -9.82285e-06)
(4.03603e-22 1.25289e-19 -1.92426e-05)
(-2.4406e-21 -8.6726e-22 -3.05533e-05)
(1.55663e-21 -1.70312e-20 -4.38894e-05)
(1.43251e-21 -2.57156e-19 -5.94072e-05)
(7.84065e-22 2.45046e-19 -7.72929e-05)
(-8.5539e-22 -1.623e-21 -9.77679e-05)
(-4.20228e-21 -1.5688e-23 -0.000121092)
(6.66712e-21 -1.84648e-21 -0.000147567)
(-3.99731e-21 -2.50915e-19 -0.000177535)
(5.19952e-21 2.28045e-19 -0.000211358)
(-1.1326e-20 4.53171e-19 -0.000249376)
(-4.8418e-21 -1.21062e-20 -0.00029189)
(-4.63066e-21 4.6631e-19 -0.000339266)
(4.06615e-22 -1.41562e-20 -0.000391944)
(-1.22848e-20 4.52939e-19 -0.000450303)
(1.22004e-20 -4.70414e-19 -0.000514599)
(-9.07215e-21 4.49316e-19 -0.000585077)
(2.28513e-21 -4.67356e-19 -0.000662)
(5.22225e-21 -9.31856e-21 -0.000745656)
(-2.59016e-21 1.37001e-20 -0.000836413)
(5.53861e-21 -8.82343e-21 -0.000934787)
(-1.87314e-20 4.2148e-19 -0.00104153)
(1.68225e-20 -4.49246e-19 -0.00115776)
(1.83016e-20 -4.17537e-19 -0.00128509)
(-1.49963e-20 4.19483e-19 -0.00142585)
(-1.08383e-21 -5.1747e-21 -0.0015834)
(1.12188e-20 -1.21412e-22 -0.00176268)
(-1.2845e-20 -2.47886e-20 -0.00197109)
(5.28964e-20 -7.63327e-19 -0.00222017)
(1.6626e-20 5.61791e-20 -0.00252861)
(-6.98629e-20 7.19013e-19 -0.00292752)
(3.96103e-21 -1.23543e-20 -0.00346969)
(-1.14497e-20 -4.87785e-21 -0.00424497)
(1.09871e-19 -6.04303e-19 -0.00540478)
(-2.04389e-19 1.1871e-18 -0.00719924)
(2.08569e-19 -1.18001e-18 -0.0100294)
(7.14664e-20 8.50725e-20 -0.0145149)
(-1.57127e-19 5.17021e-19 -0.0215714)
(-1.65187e-19 3.57035e-19 -0.0324828)
(1.56079e-19 -4.23268e-19 -0.0489394)
(-2.22725e-20 1.95158e-20 -0.0729967)
(5.50262e-20 -1.73776e-20 -0.106879)
(1.65353e-19 -1.02766e-19 -0.152499)
(-1.78975e-19 1.60353e-19 -0.210627)
(-2.54419e-20 -4.10854e-20 -0.2733)
(4.01695e-22 -3.11414e-20 1.52188e-05)
(-3.64206e-22 1.57483e-20 1.00355e-05)
(6.90446e-22 -1.71525e-22 2.63747e-06)
(-6.18539e-22 -1.5495e-20 -7.18027e-06)
(-9.64326e-22 -1.44659e-21 -1.95601e-05)
(3.30539e-21 -2.43226e-19 -3.46347e-05)
(-4.64082e-21 4.60614e-19 -5.25555e-05)
(2.2622e-21 -2.48021e-19 -7.35104e-05)
(-1.8251e-21 1.49632e-20 -9.77332e-05)
(4.81569e-21 -2.71623e-19 -0.000125511)
(-5.81592e-21 2.47862e-19 -0.00015719)
(-4.04519e-21 4.73226e-19 -0.000193176)
(1.06535e-20 -9.57482e-19 -0.000233943)
(-1.28533e-20 9.56515e-19 -0.000280027)
(1.71035e-20 -9.52115e-19 -0.000332006)
(-1.11851e-20 9.43688e-19 -0.000390432)
(-9.85191e-21 4.80025e-19 -0.000455817)
(-7.081e-22 -3.77972e-21 -0.000528775)
(4.52303e-21 3.92613e-21 -0.000610061)
(-7.5562e-21 4.42963e-19 -0.000700339)
(-2.06331e-21 -4.6522e-19 -0.000800144)
(1.48445e-20 1.27919e-20 -0.000910019)
(-3.34914e-20 8.93439e-19 -0.00103056)
(2.53139e-20 -8.96435e-19 -0.00116243)
(2.27511e-21 -5.34017e-21 -0.00130646)
(-9.78938e-21 -9.13318e-23 -0.0014637)
(1.48724e-20 -1.35551e-20 -0.00163561)
(-4.83621e-21 1.24015e-22 -0.00182418)
(-5.31395e-21 -6.51995e-23 -0.00203218)
(5.05761e-21 1.9658e-22 -0.00226343)
(-3.73209e-21 1.42693e-21 -0.00252328)
(6.29491e-20 -7.92934e-19 -0.00281937)
(-5.70147e-20 8.15524e-19 -0.00316289)
(-1.61375e-20 1.96908e-22 -0.00357101)
(1.87903e-20 -1.03367e-20 -0.00407112)
(-9.88232e-20 7.28589e-19 -0.00470846)
(1.15461e-19 -7.3184e-19 -0.00555941)
(-2.28286e-20 2.21946e-21 -0.0067536)
(1.61288e-20 -9.21651e-23 -0.00850933)
(3.83489e-20 6.4692e-21 -0.0111869)
(-2.48553e-19 5.47426e-19 -0.0153634)
(3.68438e-19 -1.10998e-18 -0.0219303)
(-1.79905e-19 5.6253e-19 -0.0322042)
(2.6202e-19 -4.30847e-19 -0.0480343)
(-2.53583e-19 5.07597e-19 -0.0718679)
(-5.91987e-19 5.24273e-19 -0.106711)
(1.11813e-18 -1.11113e-18 -0.155864)
(-5.47642e-19 5.61166e-19 -0.222164)
(1.89056e-20 -2.17896e-21 -0.306383)
(4.56009e-21 -3.51926e-20 -0.386991)
(-7.35151e-22 1.58293e-20 1.75875e-05)
(-2.77294e-22 6.06172e-20 9.3423e-06)
(1.97866e-21 -1.84064e-19 -2.47419e-06)
(-1.31972e-21 2.47017e-19 -1.78901e-05)
(-2.6537e-22 -1.09389e-19 -3.69511e-05)
(1.12074e-22 -1.46214e-20 -5.97699e-05)
(-4.73258e-22 1.54156e-20 -8.65361e-05)
(3.03606e-21 -1.87097e-22 -0.000117517)
(-2.88917e-21 -1.50695e-20 -0.000153061)
(-5.25408e-21 3.38035e-20 -0.000193597)
(-6.92569e-21 4.81295e-19 -0.000239642)
(1.84029e-20 -5.00242e-19 -0.000291804)
(-2.27358e-20 4.66716e-19 -0.000350785)
(1.89253e-20 -4.85497e-19 -0.000417383)
(-3.0146e-21 3.40658e-21 -0.000492469)
(1.10176e-20 4.77297e-23 -0.000576898)
(4.18999e-21 3.72553e-21 -0.000671494)
(-5.18297e-21 4.53674e-19 -0.000777247)
(2.01781e-20 -4.90957e-19 -0.000895361)
(6.35984e-21 2.69805e-20 -0.00102696)
(-4.56134e-20 9.35625e-19 -0.00117306)
(2.8915e-20 -9.38317e-19 -0.00133472)
(1.02084e-20 2.26714e-20 -0.00151314)
(-1.80956e-20 -2.33892e-22 -0.00170969)
(1.18408e-20 9.66376e-21 -0.00192598)
(-3.85513e-20 8.99585e-19 -0.00216405)
(3.17545e-20 -8.9116e-19 -0.0024265)
(2.84499e-21 9.64865e-21 -0.00271677)
(9.58443e-21 2.73119e-20 -0.00303938)
(-1.15404e-20 -5.51197e-22 -0.00340034)
(1.17532e-21 -1.30641e-20 -0.00380779)
(-3.74214e-20 1.32677e-20 -0.00427292)
(3.52226e-20 1.2641e-20 -0.00481171)
(-3.13945e-21 -2.53376e-20 -0.00544801)
(8.23031e-20 -7.42095e-19 -0.00621908)
(-7.33044e-20 7.64898e-19 -0.0071856)
(2.69586e-19 -1.47247e-18 -0.00844911)
(-2.47072e-19 1.48674e-18 -0.0101813)
(3.06748e-19 -1.3919e-18 -0.0126708)
(7.20143e-20 1.32185e-19 -0.0163944)
(-3.52984e-19 1.32646e-18 -0.0221169)
(-1.21343e-19 -2.2279e-20 -0.0310213)
(1.65157e-20 3.87545e-22 -0.0448608)
(-1.84249e-20 5.63238e-22 -0.066115)
(5.44142e-20 1.67106e-21 -0.0981144)
(2.61939e-20 1.36525e-20 -0.145077)
(-1.13595e-19 5.163e-21 -0.211895)
(6.46768e-20 5.00667e-21 -0.30315)
(-1.6588e-22 -3.11419e-22 -0.42013)
(3.6206e-20 6.42143e-22 -0.51499)
(-7.05558e-22 7.62974e-20 1.7931e-05)
(1.64752e-21 -4.65247e-20 4.16356e-06)
(-1.67347e-21 -1.64062e-20 -1.48219e-05)
(4.66453e-21 -2.27967e-19 -3.86029e-05)
(-2.27768e-21 2.29846e-19 -6.71257e-05)
(2.02136e-21 -2.27436e-19 -0.000100542)
(-1.09599e-20 5.01544e-19 -0.000139149)
(1.15491e-20 -7.02423e-19 -0.000183362)
(-7.45391e-21 4.96728e-19 -0.00023371)
(-5.89914e-21 4.84233e-19 -0.000290834)
(-2.20329e-21 3.95232e-21 -0.000355492)
(2.43842e-20 -9.51272e-19 -0.000428569)
(-2.12946e-20 9.90023e-19 -0.00051108)
(5.08242e-21 -4.65798e-19 -0.000604184)
(1.20819e-20 -4.68083e-19 -0.000709153)
(2.24233e-20 -4.60595e-19 -0.000827272)
(-3.2401e-21 6.68957e-21 -0.00095983)
(3.83289e-20 -9.55194e-19 -0.00110837)
(2.96309e-20 -9.17114e-19 -0.00127477)
(6.58572e-21 2.12111e-20 -0.00146085)
(-2.66576e-20 9.52595e-19 -0.00166838)
(-2.01743e-20 -8.09893e-21 -0.00189929)
(1.23176e-20 8.96769e-21 -0.0021558)
(-5.07776e-20 9.22521e-19 -0.00244042)
(4.12339e-20 -9.37126e-19 -0.00275612)
(7.28651e-20 -9.00212e-19 -0.00310652)
(-7.40955e-20 9.29893e-19 -0.00349614)
(1.51039e-20 -2.00608e-20 -0.00393065)
(6.77319e-20 -8.97638e-19 -0.00441732)
(-9.55453e-20 9.20563e-19 -0.00496545)
(4.3846e-21 1.23804e-20 -0.00558719)
(-2.07236e-19 1.68639e-18 -0.00629871)
(1.8733e-19 -1.74964e-18 -0.00712224)
(4.86281e-20 6.22106e-20 -0.00808981)
(-2.67436e-19 1.59681e-18 -0.00924999)
(2.45077e-19 -1.66501e-18 -0.01068)
(-3.16843e-20 -3.32463e-21 -0.0125071)
(4.72561e-19 -1.502e-18 -0.0149448)
(-4.42274e-19 1.55123e-18 -0.018352)
(-6.65135e-20 -7.27414e-20 -0.0233225)
(6.80267e-19 -1.31169e-18 -0.0308132)
(-1.19701e-18 2.70546e-18 -0.0423136)
(-6.65194e-20 -1.5562e-19 -0.0600482)
(-8.90695e-20 -1.22044e-19 -0.0872012)
(7.73536e-19 -1.17868e-18 -0.12815)
(3.96734e-20 6.32658e-20 -0.188725)
(-8.74241e-19 7.82e-19 -0.276508)
(8.57222e-19 -8.59917e-19 -0.400596)
(9.35153e-21 2.90884e-20 -0.567499)
(9.40198e-21 -2.74966e-21 -0.682423)
(6.06073e-22 -1.58921e-20 1.52281e-05)
(1.66392e-21 -1.35546e-19 -9.89084e-06)
(-1.78895e-21 1.22247e-19 -4.01454e-05)
(-1.27782e-21 -1.72144e-20 -7.56092e-05)
(5.30852e-21 -2.26559e-19 -0.000116532)
(-4.89648e-21 2.33032e-19 -0.000163286)
(-5.74512e-21 4.70729e-19 -0.000216371)
(-5.11871e-21 -1.94494e-20 -0.000276404)
(2.21969e-21 -4.56314e-21 -0.00034412)
(1.43886e-20 -5.01995e-19 -0.000420383)
(-1.17111e-20 4.69737e-19 -0.000506191)
(1.75651e-20 -9.93821e-19 -0.000602688)
(-3.97341e-21 4.96798e-19 -0.000711183)
(-3.66413e-21 -1.86989e-20 -0.000833154)
(-4.88809e-21 -2.23783e-20 -0.000970223)
(2.83969e-20 -9.75297e-19 -0.00112404)
(-1.61326e-21 -2.01402e-20 -0.00129627)
(2.72729e-20 -9.93465e-19 -0.00148892)
(-5.42638e-21 -7.70475e-21 -0.00170435)
(-1.70109e-22 1.19707e-22 -0.00194492)
(1.14856e-20 8.46407e-21 -0.00221291)
(-5.2949e-20 9.56055e-19 -0.0025108)
(4.71916e-20 -9.76598e-19 -0.00284135)
(1.28191e-20 8.36836e-21 -0.00320766)
(-8.7424e-21 -1.49692e-20 -0.00361326)
(-6.19333e-21 9.93922e-21 -0.0040623)
(-7.41942e-20 9.23174e-19 -0.00455971)
(1.59481e-19 -1.88344e-18 -0.00511149)
(-7.5598e-20 9.82231e-19 -0.00572493)
(-1.92056e-19 1.82068e-18 -0.00640899)
(-3.05083e-20 -4.54268e-20 -0.00717482)
(2.6515e-21 -2.63393e-20 -0.00803665)
(-6.63211e-20 -5.37648e-20 -0.00901349)
(2.59252e-19 -1.82016e-18 -0.0101324)
(3.9959e-19 -1.68549e-18 -0.0114346)
(-3.56674e-19 1.76899e-18 -0.0129882)
(-3.4092e-20 -5.51501e-20 -0.0149101)
(4.73854e-19 -1.61255e-18 -0.017406)
(-4.17871e-19 1.70798e-18 -0.0208374)
(-6.69582e-19 1.51774e-18 -0.0258282)
(5.69119e-19 -1.60289e-18 -0.0334227)
(7.85879e-20 -1.12688e-20 -0.0453041)
(8.71644e-19 -1.41759e-18 -0.064068)
(1.22029e-19 1.22213e-19 -0.093545)
(-1.00763e-18 1.38904e-18 -0.139174)
(-1.63189e-20 -3.98e-20 -0.208502)
(3.37038e-20 5.28918e-22 -0.31253)
(-3.41476e-20 1.56532e-20 -0.47064)
(-5.15749e-19 5.39721e-19 -0.720206)
(5.07127e-19 -5.4888e-19 -0.990246)
(-1.06949e-20 -3.14139e-21 0.0103046)
(-1.06765e-20 -5.97723e-22 0.00486449)
(1.00111e-20 1.00755e-20 0.000268966)
(-7.03839e-21 2.25975e-21 -0.00355723)
(7.55789e-21 -1.16257e-20 -0.00669528)
(3.08309e-23 3.446e-21 -0.00922902)
(-1.67383e-22 -9.52234e-23 -0.0112372)
(-5.31763e-21 1.16302e-23 -0.0127889)
(5.16798e-21 -1.13029e-23 -0.0139456)
(-1.51349e-22 3.31015e-25 -0.0147606)
(-1.42876e-22 3.12484e-25 -0.0152799)
(4.08253e-21 -8.9289e-24 -0.0155447)
(-4.09565e-21 8.95759e-24 -0.0155912)
(-3.46729e-21 7.58331e-24 -0.0154522)
(3.53177e-22 -7.535e-22 -0.0151578)
(5.82676e-21 1.63447e-20 -0.0147352)
(-2.55381e-21 -1.37821e-20 -0.0142088)
(-4.90467e-23 -7.09885e-22 -0.0136007)
(-1.6162e-23 4.46914e-22 -0.0129308)
(-2.60672e-21 -3.18522e-20 -0.0122165)
(2.634e-21 3.13193e-20 -0.0114732)
(-1.98761e-21 -3.68909e-20 -0.0107139)
(9.42189e-22 2.3488e-21 -0.0099501)
(-1.06273e-21 8.66232e-24 -0.00919179)
(7.52057e-22 3.16028e-21 -0.00844837)
(-2.5282e-22 1.30893e-23 -0.00772687)
(-4.50238e-22 9.84715e-25 -0.00703259)
(1.91892e-22 -3.72797e-24 -0.00636985)
(2.29639e-22 4.13073e-21 -0.00574199)
(-4.3213e-24 3.82395e-24 -0.0051514)
(-2.15974e-22 -4.57321e-21 -0.00459963)
(2.08472e-22 4.78107e-21 -0.00408744)
(-2.49932e-22 -4.9618e-21 -0.00361501)
(1.02384e-21 4.71314e-20 -0.0031819)
(-9.58199e-22 -4.74703e-20 -0.00278723)
(-4.44947e-22 -3.91755e-20 -0.00242973)
(1.04059e-21 8.52571e-20 -0.00210779)
(-5.81133e-22 -4.62364e-20 -0.00181958)
(-7.98197e-23 -5.97191e-21 -0.00156303)
(7.74487e-23 6.14957e-21 -0.00133599)
(-5.25044e-23 1.00376e-25 -0.00113618)
(1.87541e-22 6.3853e-21 -0.000961337)
(-3.0044e-22 -3.27729e-20 -0.00080916)
(2.71842e-22 3.29716e-20 -0.000677415)
(-6.24235e-23 -6.74971e-21 -0.000563933)
(1.7315e-22 2.05935e-20 -0.000466641)
(2.26155e-23 -6.86361e-21 -0.000383569)
(-1.06166e-22 -1.40732e-20 -0.000312849)
(2.58766e-23 7.07413e-21 -0.000252695)
(-7.4962e-23 -7.19201e-21 -0.000201415)
(-1.54485e-20 2.52914e-20 0.0298098)
(3.11403e-20 -9.10805e-21 0.0136227)
(-2.51795e-20 -2.2729e-20 -0.000139997)
(7.18356e-21 2.22288e-20 -0.0115099)
(-7.62108e-21 -2.16658e-20 -0.0207691)
(-1.23523e-20 6.10329e-21 -0.0281996)
(1.08832e-20 6.3022e-21 -0.0340553)
(5.23248e-21 7.49117e-21 -0.0385521)
(6.86224e-21 -1.86985e-20 -0.0418802)
(-2.12291e-20 5.86907e-21 -0.044202)
(1.91823e-20 -4.93723e-21 -0.0456543)
(7.6218e-21 2.18477e-20 -0.0463596)
(-1.84849e-20 -9.3781e-21 -0.0464257)
(-2.05084e-20 -4.59459e-20 -0.0459505)
(6.16685e-21 -2.05091e-20 -0.0450228)
(2.11799e-20 5.50437e-20 -0.0437226)
(-5.9454e-21 2.37212e-21 -0.0421221)
(-8.82153e-22 -3.07373e-21 -0.040286)
(9.19318e-24 -8.19149e-23 -0.0382725)
(4.16664e-22 -9.11285e-25 -0.0361332)
(1.14557e-21 1.67053e-23 -0.033913)
(-1.41886e-21 -3.43447e-21 -0.0316498)
(2.36078e-20 1.7359e-19 -0.0293764)
(-2.6184e-20 -1.86694e-19 -0.0271233)
(2.50521e-20 2.09131e-19 -0.0249163)
(-1.3108e-20 -9.78335e-20 -0.0227772)
(-2.41858e-20 -2.37295e-19 -0.0207209)
(1.16971e-20 1.21824e-19 -0.0187598)
(5.44211e-23 -3.93977e-21 -0.0169033)
(-1.00338e-21 -8.86892e-21 -0.0151582)
(3.31456e-22 4.58125e-21 -0.0135289)
(-1.03334e-21 -1.44392e-20 -0.0120173)
(8.53146e-21 1.58047e-19 -0.0106239)
(-1.78757e-20 -3.37923e-19 -0.00934705)
(8.03647e-21 1.64171e-19 -0.00818412)
(-9.43838e-22 -1.67681e-20 -0.00713119)
(2.92656e-22 5.71465e-21 -0.00618342)
(-2.51206e-23 -6.74345e-23 -0.00533526)
(-3.61154e-21 -1.03322e-19 -0.00458061)
(3.07139e-21 9.14634e-20 -0.003913)
(2.19933e-21 8.87592e-20 -0.00332573)
(-3.23973e-21 -1.20984e-19 -0.002812)
(7.67347e-23 6.61182e-21 -0.00236506)
(6.61409e-22 3.34935e-20 -0.00197827)
(-1.45645e-21 -6.03416e-20 -0.00164524)
(2.43636e-23 -6.82337e-21 -0.00135983)
(-8.99981e-22 -4.86615e-20 -0.00111624)
(-1.67657e-22 -7.28968e-21 -0.00090894)
(2.11346e-22 1.40051e-20 -0.000732585)
(2.51074e-22 2.14514e-20 -0.000581955)
(-1.4352e-20 -1.03125e-21 0.0459437)
(-1.43186e-20 -1.59834e-20 0.019254)
(3.65599e-20 3.00088e-20 -0.00357788)
(-4.39762e-20 -1.25843e-20 -0.022117)
(1.81114e-20 1.17805e-20 -0.0369896)
(1.407e-20 1.07359e-20 -0.0487759)
(-5.25066e-21 -4.81816e-20 -0.0579537)
(3.60089e-20 4.34053e-21 -0.0649106)
(-2.56806e-20 4.58551e-20 -0.0699809)
(-5.67479e-20 -4.46615e-20 -0.0734415)
(9.48048e-20 4.62155e-20 -0.0755121)
(-5.76885e-20 -1.64121e-20 -0.0763939)
(5.29701e-21 -1.10219e-20 -0.0762652)
(-2.94987e-21 -7.26466e-21 -0.0752848)
(8.38341e-20 1.36733e-19 -0.0735952)
(-3.13006e-21 3.91021e-20 -0.0713249)
(-7.77841e-20 -1.60396e-19 -0.0685895)
(9.10242e-21 2.56883e-22 -0.0654925)
(-5.22718e-21 1.95853e-22 -0.0621265)
(2.22152e-22 -1.64147e-21 -0.0585736)
(4.37061e-20 1.60466e-19 -0.0549047)
(-4.28488e-20 -1.50884e-19 -0.0511801)
(-4.2828e-20 -1.88125e-19 -0.0474518)
(4.58345e-20 1.96106e-19 -0.0437658)
(7.24391e-22 8.1008e-21 -0.0401644)
(-1.0996e-21 -7.34551e-21 -0.0366804)
(8.73046e-22 8.10572e-21 -0.0333378)
(-3.59058e-20 -2.59083e-19 -0.0301551)
(3.82985e-20 2.67176e-19 -0.0271468)
(-3.31891e-20 -2.76359e-19 -0.0243229)
(3.54764e-20 2.94879e-19 -0.0216895)
(8.03557e-22 9.94968e-21 -0.0192493)
(3.01265e-20 3.31669e-19 -0.0170022)
(-5.82095e-20 -6.65162e-19 -0.0149453)
(2.93633e-20 3.55006e-19 -0.0130737)
(1.3764e-20 1.93211e-19 -0.0113807)
(-1.22208e-20 -1.70953e-19 -0.00985812)
(3.67586e-22 8.61522e-23 -0.0084968)
(-5.22358e-22 -8.72806e-23 -0.00728661)
(-5.78329e-23 1.16868e-22 -0.00621691)
(9.13128e-21 2.03793e-19 -0.00527674)
(-8.83464e-21 -1.91502e-19 -0.00445501)
(7.2229e-22 1.32376e-20 -0.00374074)
(-3.95616e-22 -5.24148e-24 -0.00312317)
(3.36148e-21 1.0847e-19 -0.00259192)
(-6.18761e-21 -2.05095e-19 -0.00213709)
(3.03985e-21 1.10217e-19 -0.00174927)
(-1.53265e-21 -5.63839e-20 -0.00141948)
(1.15691e-21 4.21472e-20 -0.0011389)
(2.74057e-22 1.41466e-20 -0.000898369)
(1.87752e-21 2.70492e-20 0.0554546)
(8.7859e-21 -5.48543e-20 0.0187836)
(-6.7316e-20 1.98824e-20 -0.0127248)
(9.99236e-20 6.83637e-20 -0.0375924)
(-1.66378e-20 -1.00997e-19 -0.0570744)
(8.22044e-22 3.71972e-20 -0.0722146)
(-1.67218e-20 4.34002e-21 -0.0837768)
(1.73002e-20 2.95846e-20 -0.0923612)
(-7.86966e-20 -5.31658e-20 -0.0984541)
(9.71825e-20 1.04424e-20 -0.102432)
(-2.39412e-20 1.2842e-20 -0.104603)
(-1.23034e-20 7.02561e-22 -0.105239)
(1.74341e-20 9.49555e-21 -0.104578)
(-1.15872e-19 -1.53602e-19 -0.102829)
(1.00118e-19 1.32944e-19 -0.100181)
(-6.38324e-21 1.39395e-20 -0.0968016)
(6.02372e-21 -8.20409e-21 -0.0928431)
(1.17108e-19 2.63631e-19 -0.0884403)
(-1.19878e-19 -2.52595e-19 -0.0837135)
(-6.85162e-22 -1.03441e-20 -0.0787689)
(-1.57293e-21 -6.53736e-23 -0.0736989)
(1.92845e-21 4.53577e-22 -0.0685814)
(1.09612e-21 -3.97556e-23 -0.0634827)
(-1.43036e-21 6.92215e-21 -0.0584618)
(2.76007e-21 3.85906e-22 -0.0535713)
(1.36491e-21 8.50204e-21 -0.0488533)
(-1.11256e-19 -5.38575e-19 -0.0443398)
(1.10907e-19 5.29154e-19 -0.0400521)
(-1.22073e-21 1.20588e-21 -0.0360079)
(-4.77002e-20 -3.04653e-19 -0.032219)
(5.05437e-20 3.14576e-19 -0.0286921)
(-8.98753e-23 1.73381e-22 -0.0254295)
(-1.96939e-22 -3.01495e-22 -0.0224298)
(-4.12576e-20 -3.61223e-19 -0.0196883)
(7.91256e-20 7.22786e-19 -0.0171973)
(-7.30539e-20 -7.31385e-19 -0.0149473)
(6.91321e-20 7.50221e-19 -0.0129267)
(-6.4665e-20 -7.67929e-19 -0.0111224)
(3.11025e-20 3.88626e-19 -0.00952069)
(1.34823e-20 2.01561e-19 -0.00810679)
(-1.18659e-20 -1.76579e-19 -0.00686577)
(-9.8268e-22 -1.301e-20 -0.00578259)
(-1.08452e-20 -2.11547e-19 -0.00484237)
(2.26282e-20 4.53424e-19 -0.00403062)
(-1.0373e-20 -2.1517e-19 -0.00333338)
(1.04418e-22 1.68934e-22 -0.00273737)
(4.20751e-22 1.38134e-20 -0.00222998)
(-9.18618e-23 -6.00033e-23 -0.0017991)
(-4.00416e-22 -1.40873e-20 -0.00143254)
(8.60504e-22 2.84982e-20 -0.00111668)
(2.75762e-20 9.78989e-23 0.0540483)
(3.32137e-22 3.85569e-22 0.00796422)
(-6.20846e-20 3.91339e-22 -0.0311704)
(9.13176e-20 -4.11655e-22 -0.0607096)
(-2.74497e-20 -3.11822e-22 -0.0830552)
(-4.31639e-20 -9.04566e-22 -0.0999205)
(1.4541e-20 3.72763e-22 -0.112452)
(-1.11347e-20 -6.46685e-22 -0.12146)
(8.89134e-20 -2.45304e-20 -0.127549)
(1.11277e-19 1.92359e-19 -0.131195)
(7.42181e-21 8.43757e-20 -0.132777)
(-1.50579e-19 -2.57785e-19 -0.132614)
(2.06855e-19 3.26229e-19 -0.130986)
(-2.24129e-19 -3.18869e-19 -0.128139)
(1.12102e-19 2.08572e-19 -0.124291)
(-1.23211e-19 -2.18362e-19 -0.119639)
(5.37291e-21 -3.4694e-21 -0.114359)
(-2.05437e-20 -3.91942e-21 -0.108606)