/*--------------------------------*- C++ -*----------------------------------*\
| =========                 |                                                 |
| \\      /  F ield         | OpenFOAM: The Open Source CFD Toolbox           |
|  \\    /   O peration     | Version:  2412                                  |
|   \\  /    A nd           | Website:  www.openfoam.com                      |
|    \\/     M anipulation  |                                                 |
\*---------------------------------------------------------------------------*/
FoamFile
{
    version     2.0;
    format      ascii;
    arch        "LSB;label=32;scalar=64";
    class       surfaceScalarField;
    location    "4.5";
    object      phi;
}
// * * * * * * * * * * * * * * * * * * * * * * * * * * * * * * * * * * * * * //

dimensions      [0 3 -1 0 0 0 0];

oriented        oriented;

internalField   nonuniform List<scalar> 
10422
(
0.00558873
5.75719e-05
-0.0055903
-5.60033e-05
0.00558678
6.67594e-05
-6.4814e-05
0.00558439
7.54035e-05
-7.30116e-05
0.00558148
8.35481e-05
-8.06343e-05
0.00557798
9.12082e-05
-8.77146e-05
0.00557389
9.83771e-05
-9.42798e-05
0.0055692
0.000105048
-0.000100363
0.00556398
0.000111235
-0.000106012
0.0055583
0.000116978
-0.000111295
0.00555224
0.000122345
-0.000116289
0.0055459
0.000127416
-0.000121074
0.00553935
0.000132266
-0.000125713
0.00553264
0.000136949
-0.000130243
0.00552582
0.000141489
-0.000134674
0.00551893
0.00014588
-0.000138985
0.00551198
0.000150092
-0.000143139
0.00550498
0.000154085
-0.000147091
0.00549796
0.000157814
-0.000150795
0.00549093
0.00016124
-0.00015421
0.00548391
0.000164334
-0.000157309
0.0054769
0.000167076
-0.000160072
0.00546994
0.000169459
-0.000162493
0.00546303
0.000171482
-0.000164571
0.000173151
-0.000166312
0.00559772
5.894e-05
-0.00559909
0.00559597
6.85099e-05
0.00559374
7.76345e-05
0.00559093
8.636e-05
0.00558746
9.46799e-05
0.00558329
0.000102548
0.00557842
0.000109909
0.00557293
0.000116733
0.00556688
0.000123026
0.00556038
0.00012884
0.00555355
0.000134253
0.00554646
0.000139351
0.00553921
0.000144205
0.00553184
0.000148858
0.0055244
0.000153321
0.00551691
0.000157576
0.00550941
0.00016159
0.0055019
0.000165323
0.0054944
0.000168737
0.00548693
0.000171803
0.00547951
0.000174501
0.00547214
0.000176824
0.00546485
0.000178771
0.000180349
0.00560731
6.0212e-05
-0.00560858
0.00560564
7.01798e-05
0.00560345
7.98175e-05
0.00560064
8.91727e-05
0.00559711
9.82157e-05
0.0055928
0.000106857
0.00558772
0.000114989
0.00558192
0.000122531
0.00557549
0.00012945
0.00556856
0.000135776
0.00556123
0.000141581
0.00555362
0.000146962
0.00554582
0.000152008
0.00553789
0.000156781
0.0055299
0.000161313
0.00552188
0.000165599
0.00551385
0.000169618
0.00550584
0.000173335
0.00549786
0.000176716
0.00548993
0.000179731
0.00548207
0.000182364
0.00547429
0.000184604
0.0054666
0.000186453
0.000187919
0.00561753
6.15158e-05
-0.00561884
0.0056158
7.19087e-05
0.00561353
8.20921e-05
0.00561059
9.21156e-05
0.00560688
0.000101926
0.00560234
0.000111391
0.00559698
0.000120349
0.00559085
0.000128664
0.00558403
0.000136265
0.00557666
0.000143151
0.00556885
0.000149392
0.00556072
0.000155088
0.00555238
0.000160347
0.00554391
0.000165252
0.00553537
0.000169853
0.00552681
0.000174165
0.00551825
0.000178176
0.00550972
0.000181861
0.00550125
0.000185189
0.00549285
0.000188134
0.00548453
0.000190678
0.00547632
0.000192815
0.00546823
0.000194544
0.000195875
0.00562843
6.29843e-05
-0.0056299
0.0056265
7.38418e-05
0.00562399
8.46053e-05
0.00562078
9.53268e-05
0.00561677
0.000105932
0.00561192
0.000116246
0.00560621
0.000126058
0.00559969
0.000135179
0.00559246
0.000143493
0.00558464
0.000150975
0.00557635
0.000157681
0.00556772
0.00016372
0.00555886
0.000169212
0.00554985
0.000174261
0.00554076
0.000178937
0.00553165
0.000183273
0.00552256
0.000187269
0.00551351
0.000190908
0.00550454
0.000194167
0.00549565
0.000197022
0.00548687
0.000199459
0.00547821
0.00020147
0.0054697
0.000203057
0.00020423
0.00564005
6.47375e-05
-0.0056418
0.00563778
7.61113e-05
0.00563489
8.74927e-05
0.00563128
9.89368e-05
0.00562686
0.000110351
0.00562158
0.000121523
0.00561545
0.000132194
0.0056085
0.000142129
0.00560082
0.000151169
0.00559253
0.000159264
0.00558376
0.000166456
0.00557462
0.000172857
0.00556523
0.0001786
0.00555568
0.000183807
0.00554605
0.000188566
0.0055364
0.000192926
0.00552677
0.000196902
0.00551719
0.000200487
0.00550769
0.000203663
0.0054983
0.000206411
0.00548904
0.00020872
0.00547993
0.000210583
0.00547098
0.000212006
0.000212998
0.00565239
6.68728e-05
-0.00565453
0.00564968
7.88254e-05
0.0056463
9.08676e-05
0.00564218
0.000103057
0.00563725
0.000115287
0.00563146
0.000127313
0.00562481
0.000138836
0.00561737
0.000149577
0.00560919
0.000159342
0.0056004
0.000168053
0.00559112
0.000175741
0.00558146
0.000182517
0.00557153
0.000188525
0.00556144
0.000193901
0.00555126
0.00019875
0.00554105
0.000203137
0.00553086
0.00020709
0.00552073
0.000210611
0.00551071
0.000213691
0.0055008
0.000216316
0.00549104
0.000218477
0.00548145
0.000220172
0.00547205
0.000221406
0.000222192
0.0056655
6.94622e-05
-0.00566809
0.00566226
8.20655e-05
0.00565831
9.48171e-05
0.00565359
0.000107778
0.00564805
0.000120829
0.00564166
0.000133701
0.00563444
0.000146061
0.00562642
0.000157592
0.0056177
0.00016807
0.00560836
0.000177391
0.00559852
0.000185576
0.00558831
0.000192733
0.00557782
0.000199014
0.00556715
0.000204567
0.00555639
0.000209511
0.0055456
0.000213927
0.00553484
0.000217853
0.00552415
0.000221303
0.00551356
0.000224274
0.00550312
0.000226758
0.00549285
0.000228751
0.00548277
0.000230253
0.0054729
0.000231273
0.000231828
0.00567941
7.25558e-05
-0.00568251
0.00567559
8.58894e-05
0.005671
9.94055e-05
0.00566561
0.000113169
0.00565939
0.000127051
0.00565233
0.000140762
0.00564445
0.000153942
0.00563579
0.000166246
0.00562644
0.000177419
0.0056165
0.00018734
0.00560605
0.000196017
0.00559523
0.000203555
0.00558413
0.000210112
0.00557286
0.000215845
0.00556148
0.000220887
0.00555008
0.000225328
0.00553871
0.000229222
0.00552742
0.00023259
0.00551626
0.000235436
0.00550526
0.00023776
0.00549445
0.000239562
0.00548385
0.000240846
0.0054735
0.000241627
0.000241921
0.00569417
7.61889e-05
-0.0056978
0.00568972
9.03387e-05
0.00568444
0.000104681
0.00567832
0.000119284
0.00567136
0.000134014
0.00566356
0.000148564
0.00565495
0.000162553
0.00564558
0.000175612
0.00563554
0.000187465
0.0056249
0.000197973
0.00561379
0.000207132
0.00560229
0.000215047
0.00559053
0.000221877
0.00557859
0.000227788
0.00556655
0.000232924
0.00555449
0.000237385
0.00554248
0.000241236
0.00553056
0.000244506
0.00551879
0.00024721
0.0055072
0.000249351
0.00549582
0.000250936
0.00548469
0.000251975
0.00547384
0.000252485
0.000252488
0.00570981
8.03897e-05
-0.00571401
0.0057047
9.54472e-05
0.0056987
0.000110685
0.00569181
0.000126174
0.00568405
0.000141775
0.00567544
0.000157173
0.00566603
0.000171967
0.00565587
0.000185771
0.00564504
0.00019829
0.00563365
0.000209371
0.00562178
0.000219002
0.00560954
0.000227285
0.00559704
0.00023438
0.00558436
0.000240461
0.00557161
0.00024568
0.00555884
0.00025015
0.00554614
0.000253941
0.00553355
0.000257094
0.00552113
0.000259631
0.00550892
0.000261563
0.00549695
0.000262902
0.00548526
0.000263664
0.00547388
0.000263869
0.000263546
0.00572642
8.51856e-05
-0.00573122
0.00572062
0.000101248
0.00571385
0.000117457
0.00570614
0.000133887
0.00569752
0.000150395
0.00568804
0.000166656
0.00567774
0.00018226
0.00566671
0.000196803
0.00565502
0.000209979
0.00564277
0.000221622
0.00563006
0.000231713
0.00561699
0.00024035
0.00560368
0.000247698
0.0055902
0.000253935
0.00557666
0.000259222
0.00556313
0.00026368
0.00554968
0.00026739
0.00553637
0.000270401
0.00552326
0.000272742
0.00551039
0.000274432
0.0054978
0.00027549
0.00548553
0.000275938
0.0054736
0.000275802
0.000275114
0.00574408
9.06089e-05
-0.0057495
0.00573755
0.000107781
0.00572996
0.000125045
0.00572137
0.000142477
0.00571183
0.000159936
0.00570139
0.000177088
0.00569014
0.000193514
0.00567814
0.000208799
0.0056655
0.000222627
0.0056523
0.000234821
0.00563865
0.000245358
0.00562467
0.000254335
0.00561045
0.000261917
0.00559609
0.000268291
0.00558169
0.000273623
0.00556733
0.000278043
0.00555308
0.000281642
0.005539
0.000284478
0.00552516
0.000286587
0.00551159
0.000287998
0.00549835
0.000288735
0.00548546
0.000288827
0.00547295
0.000288306
0.000287211
0.00576286
9.66999e-05
-0.00576896
0.00575555
0.000115093
0.00574709
0.000133504
0.00573756
0.000152012
0.00572702
0.000170473
0.00571556
0.000188552
0.00570325
0.000205819
0.0056902
0.000221855
0.00567649
0.000236332
0.00566224
0.000249069
0.00564756
0.000260039
0.00563256
0.000269336
0.00561735
0.00027713
0.00560203
0.000283613
0.00558669
0.00028896
0.00557142
0.000293309
0.0055563
0.00029676
0.0055414
0.00029938
0.00552677
0.000301215
0.00551247
0.0003023
0.00549854
0.00030267
0.00548501
0.000302358
0.00547191
0.000301405
0.000299854
0.00578289
0.000103509
-0.0057897
0.00577474
0.000123245
0.00576534
0.000142904
0.00575478
0.000162568
0.00574316
0.000182094
0.00573057
0.000201142
0.00571711
0.000219278
0.00570289
0.000236077
0.00568801
0.000251206
0.00567261
0.000264478
0.00565678
0.000275862
0.00564066
0.000285457
0.00562436
0.000293435
0.00560797
0.000299994
0.00559162
0.000305317
0.00557537
0.000309553
0.00555932
0.00031281
0.00554354
0.000315166
0.00552807
0.000316676
0.00551299
0.000317384
0.00549833
0.000317332
0.00548413
0.000316562
0.00547041
0.000315122
0.000313061
0.00580426
0.000111101
-0.00581186
0.0057952
0.000132311
0.00578477
0.00015333
0.0057731
0.000174241
0.00576029
0.000194902
0.00574647
0.000214969
0.00573174
0.000234007
0.00571623
0.000251585
0.00570007
0.000267367
0.00568338
0.000281165
0.0056663
0.000292946
0.00564894
0.000302811
0.00563144
0.000310937
0.00561391
0.00031753
0.00559644
0.000322784
0.00557914
0.000326855
0.00556208
0.000329864
0.00554535
0.000331899
0.005529
0.000333024
0.00551309
0.000333293
0.00549767
0.000332757
0.00548276
0.000331468
0.0054684
0.00032948
0.000326849
0.00582712
0.000119551
-0.00583557
0.00581705
0.000142382
0.00580549
0.000164883
0.00579259
0.000187141
0.00577848
0.000209015
0.00576329
0.000230159
0.00574716
0.000250135
0.00573024
0.000268511
0.00571265
0.00028495
0.00569456
0.000299261
0.00567609
0.000311415
0.00565738
0.000321515
0.00563857
0.000329748
0.00561978
0.000336326
0.00560111
0.000341453
0.00558266
0.0003453
0.00556453
0.000347996
0.00554679
0.000349642
0.0055295
0.000350313
0.00551272
0.000350073
0.00549649
0.000348984
0.00548086
0.000347106
0.00546584
0.000344501
0.000341235
0.00585159
-0.00586099
0.00584041
0.00582761
0.00581335
0.00579779
0.00578109
0.00576341
0.00574492
0.00572577
0.00570612
0.00568613
0.00566594
0.0056457
0.00562554
0.000356491
0.00560556
0.000361425
0.00558589
0.000364975
0.0055666
0.000367283
0.00554778
0.000368461
0.0055295
0.000368598
0.0055118
0.00036777
0.00549474
0.000366048
0.00547834
0.000363502
0.00546264
0.000360205
0.00035623
0.00563111
0.00560973
0.00558874
0.00556822
0.00554825
0.00552891
0.00551025
0.00549232
0.00547514
0.00545873
0.00529057
-2.28292e-05
-0.00528324
1.55018e-05
0.00531064
-2.51908e-05
5.1115e-06
0.00534329
-2.72546e-05
-5.38594e-06
0.00538815
-2.90834e-05
-1.57793e-05
0.00544474
-3.07118e-05
-2.58773e-05
0.00551239
-3.21237e-05
-3.5534e-05
-3.32408e-05
-4.46618e-05
0.00529792
-3.01531e-05
-0.0052906
0.00531805
-4.53198e-05
0.00535081
-6.00126e-05
0.00539586
-7.41421e-05
0.00545273
-8.75808e-05
0.00552075
-0.000100143
-0.000111577
0.00530599
-3.75114e-05
-0.00529864
0.00532621
-6.55315e-05
0.00535911
-9.29113e-05
0.00540437
-0.000119406
0.00546151
-0.00014472
0.00552986
-0.000168493
-0.000190297
0.00531489
-4.49512e-05
-0.00530745
0.00533523
-8.5865e-05
0.00536829
-0.000125977
0.00541377
-0.000164881
0.00547116
-0.000202112
0.0055398
-0.000237133
-0.000269335
0.00532466
-5.25209e-05
-0.0053171
0.00534516
-0.00010636
0.00537842
-0.000159233
0.00542411
-0.000210572
0.00548173
-0.000259739
0.00555062
-0.000306016
-0.000348621
0.00533532
-6.02649e-05
-0.00532758
0.00535601
-0.000127051
0.00538948
-0.000192701
0.00543539
-0.000256482
0.00549323
-0.000317581
0.00556232
-0.000375104
-0.000428098
0.00534685
-6.8219e-05
-0.00533889
0.00536776
-0.000147965
0.00540146
-0.000226397
0.00544759
-0.000302613
0.00550563
-0.000375627
0.0055749
-0.00044437
-0.000507727
0.00535921
-7.64091e-05
-0.00535102
0.00538037
-0.000169123
0.0054143
-0.000260331
0.00546066
-0.000348966
0.0055189
-0.000433868
0.00558833
-0.000513802
-0.000587492
0.0053724
-8.48533e-05
-0.00536395
0.00539381
-0.000190536
0.00542799
-0.000294512
0.00547457
-0.000395546
0.00553301
-0.000492308
0.00560261
-0.000583398
-0.000667392
0.0053864
-9.35641e-05
-0.00537769
0.00540808
-0.000212215
0.00544251
-0.000328948
0.00548933
-0.000442359
0.00554797
-0.000550953
0.00561774
-0.000653171
-0.000747447
0.00540123
-0.000102551
-0.00539224
0.00542319
-0.000234169
0.00545788
-0.000363646
0.00550494
-0.000489416
0.00556381
-0.000609819
0.00563378
-0.000723142
-0.000827683
0.00541693
-0.000111826
-0.00540766
0.00543917
-0.000256409
0.00547415
-0.00039862
0.00552146
-0.000536733
0.00558057
-0.000668925
0.00565077
-0.000793339
-0.000908136
0.00543356
-0.000121403
-0.00542399
0.0054561
-0.000278948
0.00549137
-0.000433886
0.00553897
-0.000584329
0.00559834
-0.000728299
0.00566879
-0.000863792
-0.000988845
0.0054512
-0.000131299
-0.0054413
0.00547405
-0.000301806
0.00550963
-0.000469465
0.00555753
-0.00063223
0.0056172
-0.000787968
0.00568795
-0.000934538
-0.00106985
0.00546992
-0.000141538
-0.00545968
0.00549312
-0.000325007
0.00552904
-0.000505383
0.00557727
-0.000680464
0.00563727
-0.000847968
0.00570835
-0.00100562
-0.0011512
0.00548984
-0.000152149
-0.00547923
0.00551341
-0.000348582
0.0055497
-0.000541672
0.0055983
-0.000729066
0.00565867
-0.000908334
0.00573012
-0.00107706
-0.00123293
0.00551107
-0.00016317
-0.00550005
0.00553506
-0.000372566
0.00557175
-0.00057837
0.00562076
-0.000778075
0.00568154
-0.000969108
0.0057534
-0.00114893
-0.0013151
0.00553375
-0.000174643
-0.00552227
0.00555818
-0.000397003
0.00559533
-0.000615519
0.00564479
-0.000827535
0.00570602
-0.00103033
0.00577835
-0.00122126
-0.00139775
0.00555801
-0.000186619
-0.00554603
0.00558295
-0.000421944
0.0056206
0.00567056
0.00573229
0.00580512
0.00558402
-0.00557148
0.00549966
-6.28264e-07
-0.00557483
7.58054e-05
0.00543452
-3.41536e-06
6.855e-05
0.00538025
-6.66339e-06
6.09324e-05
0.00533753
-1.0158e-05
5.28808e-05
0.00530689
-1.36823e-05
4.43247e-05
0.00528871
-1.70466e-05
3.52233e-05
-2.01165e-05
2.55887e-05
0.00550743
7.46179e-05
-0.00558268
0.00544222
6.17972e-05
0.00538787
4.7686e-05
0.00534507
3.26451e-05
0.00531435
1.70366e-05
0.00529611
1.19506e-06
-1.46032e-05
0.00551571
0.000149929
-0.00559102
0.00545044
0.000127067
0.00539604
0.000102089
0.00535318
7.54986e-05
0.00532242
4.77979e-05
0.00530415
1.94633e-05
-9.08734e-06
0.00552451
0.000225278
-0.00559986
0.00545921
0.000192365
0.00540479
0.000156513
0.00536193
0.000118362
0.00533117
7.85565e-05
0.00531292
3.771e-05
-3.61901e-06
0.00553388
0.00030064
-0.00560924
0.00546858
0.000257662
0.00541417
0.00021092
0.00537134
0.000161193
0.00534064
0.000109263
0.00532246
5.58831e-05
1.74861e-06
0.00554383
0.000375987
-0.00561917
0.00547856
0.000322926
0.00542421
0.000265273
0.00538145
0.000203948
0.00535085
0.000139872
0.0053328
7.39326e-05
6.96698e-06
0.00555438
0.000451297
-0.00562969
0.00548918
0.000388129
0.00543491
0.000319539
0.00539227
0.00024659
0.0053618
0.00017034
0.00534392
9.18168e-05
1.19957e-05
0.00556558
0.00052655
-0.00564083
0.00550046
0.000453248
0.00544631
0.000373691
0.00540381
0.000289089
0.00537352
0.000200637
0.00535583
0.000109503
1.68043e-05
0.00557744
0.000601726
-0.00565262
0.00551243
0.000518261
0.00545841
0.000427706
0.00541608
0.00033142
0.00538598
0.000230738
0.00536852
0.000126967
2.1371e-05
0.00559
0.000676812
-0.00566509
0.00552511
0.000583151
0.00547125
0.000481565
0.00542911
0.000373563
0.00539922
0.000260623
0.005382
0.000144192
2.56807e-05
0.00560329
0.00075179
-0.00567826
0.00553854
0.000647903
0.00548485
0.000535251
0.00544291
0.000415502
0.00541326
0.000290277
0.00539628
0.000161164
2.97211e-05
0.00561734
0.000826644
-0.0056922
0.00555275
0.000712499
0.00549925
0.000588747
0.00545753
0.000457221
0.00542812
0.000319684
0.00541142
0.000177868
3.34801e-05
0.00563221
0.000901357
-0.00570692
0.00556778
0.00077692
0.0055145
0.000642035
0.00547302
0.000498702
0.00544387
0.000348828
0.00542745
0.000194289
3.69434e-05
0.00564793
0.000975905
-0.00572248
0.00558371
0.000841145
0.00553065
0.000695093
0.00548943
0.000539922
0.00546057
0.000377688
0.00544445
0.000210409
4.00927e-05
0.00566457
0.00105026
-0.00573893
0.00560057
0.000905147
0.00554777
0.000747893
0.00550684
0.000580856
0.00547829
0.000406239
0.00546249
0.000226202
4.29044e-05
0.0056822
0.0011244
-0.00575633
0.00561845
0.000968895
0.00556594
0.000800405
0.00552532
0.000621473
0.00549711
0.00043445
0.00548167
0.000241639
4.53487e-05
0.00570087
0.00119827
-0.00577474
0.00563741
0.00103235
0.00558523
0.000852589
0.00554497
0.000661733
0.00551713
0.000462282
0.00550209
0.000256682
4.73894e-05
0.00572066
0.00127184
-0.00579422
0.00565754
0.00109546
0.00560574
0.000904397
0.00556588
0.000701589
0.00553847
0.000489691
0.00552387
0.000271286
4.89823e-05
0.00574166
0.00567894
0.00562756
0.00558817
0.00556124
0.00554713
0.000285398
5.0075e-05
0.00557201
0.00537198
-0.000162808
0.000158191
0.00537677
-0.000164733
0.000159941
0.00538174
-0.000166539
0.000161572
0.00538688
-0.000168216
0.000163074
0.0053922
-0.000169749
0.000164433
0.00539769
-0.000171125
0.000165638
0.00540334
-0.000172331
0.000166675
0.00540916
-0.000173352
0.00016753
0.00541514
-0.000174172
0.00016819
0.00542128
-0.000174776
0.00016864
0.00542756
-0.000175148
0.000168865
0.00543398
-0.000175273
0.000168852
0.00544053
-0.000175135
0.000168585
0.0054472
-0.000174717
0.00016805
0.00545397
-0.000174005
0.000167233
0.00546083
-0.000172983
0.000166121
0.00546777
-0.000171636
0.0001647
0.00547476
-0.000169951
0.000162958
0.00548179
-0.000167913
0.000160883
0.00548884
-0.000165513
0.000158465
0.00549588
-0.000162737
0.000155695
0.0055029
-0.000159578
0.000152565
0.00550986
-0.000156028
0.000149068
0.00551674
-0.000152081
0.0001452
0.00552351
-0.000147734
0.00014096
0.00553015
-0.000142986
0.000136346
0.00553663
-0.000137839
0.000131363
0.00554291
-0.000132297
0.000126015
0.00554897
-0.00012637
0.000120311
0.00555477
-0.000120067
0.000114262
0.00556029
-0.000113404
0.000107884
0.0055655
-0.000106394
0.000101189
0.00557036
-9.90491e-05
9.41903e-05
-9.13626e-05
8.68879e-05
0.00537017
-0.000167532
0.00537508
-0.000169643
0.00538018
-0.000171637
0.00538547
-0.000173501
0.00539094
-0.000175221
0.0053966
-0.000176784
0.00540244
-0.000178173
0.00540846
-0.000179374
0.00541466
-0.000180369
0.00542103
-0.000181143
0.00542756
-0.000181678
0.00543424
-0.000181957
0.00544107
-0.000181963
0.00544803
-0.000181678
0.00545511
-0.000181085
0.0054623
-0.000180168
0.00546957
-0.000178909
0.00547691
-0.000177293
0.0054843
-0.000175305
0.00549172
-0.000172932
0.00549915
-0.000170161
0.00550655
-0.000166981
0.0055139
-0.000163383
0.00552118
-0.000159359
0.00552835
-0.000154906
0.00553539
-0.000150021
0.00554225
-0.000144704
0.00554892
-0.00013896
0.00555534
-0.000132796
0.0055615
-0.000126223
0.00556735
-0.000119254
0.00557286
-0.000111902
0.00557798
-0.000104176
-9.60609e-05
0.00536818
-0.000172359
0.00537321
-0.00017467
0.00537844
-0.000176864
0.00538387
-0.00017893
0.0053895
-0.000180852
0.00539533
-0.000182616
0.00540136
-0.000184204
0.00540759
-0.000185601
0.00541401
-0.000186789
0.00542061
-0.000187749
0.0054274
-0.000188464
0.00543436
-0.000188915
0.00544148
-0.000189082
0.00544875
-0.000188947
0.00545615
-0.00018849
0.00546367
-0.000187693
0.0054713
-0.000186538
0.00547902
-0.000185006
0.00548679
-0.000183081
0.00549461
-0.000180748
0.00550244
-0.000177992
0.00551026
-0.000174799
0.00551803
-0.000171159
0.00552574
-0.000167064
0.00553334
-0.000162506
0.0055408
-0.000157483
0.00554809
-0.000151993
0.00555517
-0.000146039
0.005562
-0.000139627
0.00556854
-0.000132767
0.00557476
-0.000125471
0.00558061
-0.000117751
0.00558605
-0.000109613
-0.000101033
0.00536598
-0.000177288
0.00537112
-0.000179811
0.00537648
-0.000182221
0.00538205
-0.000184503
0.00538784
-0.000186642
0.00539385
-0.000188623
0.00540007
-0.000190427
0.00540651
-0.000192038
0.00541316
-0.000193436
0.00542001
-0.000194601
0.00542706
-0.000195515
0.0054343
-0.000196155
0.00544172
-0.000196503
0.00544931
-0.000196536
0.00545705
-0.000196234
0.00546494
-0.000195576
0.00547294
-0.000194542
0.00548105
-0.000193111
0.00548923
-0.000191265
0.00549747
-0.000188986
0.00550573
-0.000186257
0.005514
-0.000183062
0.00552223
-0.00017939
0.00553039
-0.000175229
0.00553846
-0.000170571
0.00554638
-0.000165409
0.00555413
-0.000159743
0.00556167
-0.000153572
0.00556894
-0.000146902
0.00557591
-0.00013974
0.00558254
-0.000132098
0.00558878
-0.000123986
0.00559457
-0.000115407
-0.000106327
0.00536354
-0.000182316
0.0053688
-0.000185065
0.00537428
-0.000187704
0.00538
-0.000190218
0.00538594
-0.000192591
0.00539213
-0.000194806
0.00539855
-0.000196845
0.0054052
-0.000198688
0.00541207
-0.000200315
0.00541918
-0.000201706
0.0054265
-0.000202838
0.00543404
-0.000203689
0.00544177
-0.000204238
0.0054497
-0.00020446
0.0054578
-0.000204334
0.00546605
-0.000203835
0.00547445
-0.000202941
0.00548297
-0.00020163
0.00549159
-0.000199881
0.00550028
-0.000197672
0.005509
-0.000194985
0.00551774
-0.000191803
0.00552646
-0.000188109
0.00553512
-0.00018389
0.00554369
-0.000179136
0.00555212
-0.000173839
0.00556037
-0.000167994
0.0055684
-0.000161602
0.00557616
-0.000154664
0.00558361
-0.000147188
0.0055907
-0.000139183
0.00559737
-0.000130656
0.00560357
-0.000121609
-0.000111997
0.00536085
-0.000187438
0.00536621
-0.000190427
0.00537182
-0.000193311
0.00537768
-0.000196074
0.00538378
-0.000198699
0.00539014
-0.000201167
0.00539676
-0.000203459
0.00540362
-0.000205554
0.00541074
-0.000207432
0.0054181
-0.000209068
0.00542571
-0.000210441
0.00543354
-0.000211527
0.00544161
-0.000212299
0.00544988
-0.000212734
0.00545835
-0.000212805
0.005467
-0.000212488
0.00547582
-0.000211758
0.00548478
-0.000210588
0.00549385
-0.000208955
0.00550302
-0.000206836
0.00551224
-0.000204209
0.00552149
-0.000201053
0.00553073
-0.00019735
0.00553993
-0.000193084
0.00554903
-0.000188242
0.00555801
-0.000182814
0.00556681
-0.000176792
0.00557538
-0.000170175
0.00558368
-0.000162963
0.00559165
-0.000155161
0.00559924
-0.000146776
0.0056064
-0.000137815
0.00561307
-0.000128276
-0.0001181
0.00535789
-0.000192648
0.00536336
-0.000195894
0.00536909
-0.00019904
0.00537508
-0.000202069
0.00538135
-0.000204963
0.00538789
-0.000207704
0.0053947
-0.000210269
0.00540178
-0.000212639
0.00540914
-0.000214789
0.00541677
-0.000216696
0.00542466
-0.000218333
0.00543281
-0.000219677
0.00544121
-0.000220698
0.00544984
-0.00022137
0.0054587
-0.000221665
0.00546777
-0.000221556
0.00547702
-0.000221012
0.00548645
-0.000220008
0.00549601
-0.000218515
0.00550568
-0.000216508
0.00551543
-0.00021396
0.00552522
-0.000210849
0.00553503
-0.000207153
0.0055448
-0.000202854
0.00555449
-0.000197933
0.00556405
-0.00019238
0.00557345
-0.000186185
0.00558261
-0.000179341
0.0055915
-0.000171849
0.00560005
-0.000163711
0.00560821
-0.000154933
0.00561591
-0.00014552
0.0056231
-0.000135465
-0.000124697
0.00535467
-0.000197943
0.00536023
-0.00020146
0.00536608
-0.000204885
0.00537221
-0.000208198
0.00537863
-0.000211382
0.00538534
-0.000214415
0.00539234
-0.000217277
0.00539965
-0.000219944
0.00540725
-0.000222391
0.00541515
-0.000224592
0.00542333
-0.000226521
0.00543181
-0.000228148
0.00544055
-0.000229446
0.00544957
-0.000230384
0.00545883
-0.000230931
0.00546833
-0.000231056
0.00547805
-0.000230728
0.00548796
-0.000229916
0.00549803
-0.000228589
0.00550824
-0.000226718
0.00551856
-0.000224274
0.00552894
-0.000221229
0.00553934
-0.000217559
0.00554973
-0.000213242
0.00556005
-0.000208256
0.00557026
-0.000202587
0.0055803
-0.000196223
0.00559011
-0.000189154
0.00559964
-0.000181378
0.00560883
-0.000172896
0.0056176
-0.000163711
0.00562591
-0.000153828
0.00563368
-0.000143235
-0.000131846
0.00535116
-0.000203313
0.00535682
-0.000207119
0.00536277
-0.00021084
0.00536903
-0.000214457
0.0053756
-0.000217951
0.00538248
-0.0002213
0.00538969
-0.00022448
0.00539721
-0.000227469
0.00540506
-0.000230238
0.00541323
-0.000232762
0.00542172
-0.000235009
0.00543052
-0.000236951
0.00543963
-0.000238555
0.00544903
-0.000239788
0.00545872
-0.000240618
0.00546867
-0.000241009
0.00547887
-0.000240927
0.0054893
-0.000240338
0.00549991
-0.000239208
0.0055107
-0.000237501
0.00552161
-0.000235187
0.00553261
-0.000232234
0.00554367
-0.000228612
0.00555472
-0.000224296
0.00556573
-0.000219261
0.00557663
-0.000213489
0.00558737
-0.000206963
0.00559789
-0.000199672
0.00560812
-0.000191611
0.005618
-0.000182778
0.00562746
-0.000173175
0.00563644
-0.000162804
0.00564486
-0.000151651
-0.00013961
0.00534736
-0.000208751
0.0053531
-0.000212863
0.00535916
-0.0002169
0.00536554
-0.00022084
0.00537226
-0.000224666
0.00537931
-0.000228353
0.00538671
-0.000231877
0.00539445
-0.000235213
0.00540255
-0.000238333
0.00541099
-0.000241207
0.00541979
-0.000243804
0.00542893
-0.000246091
0.00543841
-0.000248034
0.00544822
-0.000249597
0.00545834
-0.000250743
0.00546877
-0.000251435
0.00547947
-0.000251634
0.00549044
-0.000251302
0.00550163
-0.000250401
0.00551302
-0.000248892
0.00552457
-0.000246738
0.00553624
-0.000243905
0.00554799
-0.000240358
0.00555976
-0.000236066
0.0055715
-0.000231002
0.00558315
-0.000225142
0.00559466
-0.000218465
0.00560594
-0.000210958
0.00561694
-0.000202612
0.00562759
-0.000193423
0.0056378
-0.000183391
0.00564752
-0.000172516
0.00565664
-0.000160777
-0.000148053
0.00534325
-0.000214247
0.00534907
-0.000218683
0.00535522
-0.000223054
0.00536172
-0.00022734
0.00536858
-0.000231519
0.00537579
-0.000235569
0.00538338
-0.000239463
0.00539134
-0.000243175
0.00539968
-0.000246675
0.00540841
-0.000249931
0.00541751
-0.00025291
0.005427
-0.000255577
0.00543686
-0.000257894
0.00544708
-0.000259823
0.00545766
-0.000261323
0.00546858
-0.000262353
0.00547982
-0.000262871
0.00549135
-0.000262835
0.00550315
-0.000262201
0.00551518
-0.000260926
0.00552742
-0.000258969
0.0055398
-0.000256289
0.00555229
-0.000252847
0.00556483
-0.000248607
0.00557736
-0.000243537
0.00558983
-0.000237608
0.00560216
-0.000230795
0.00561428
-0.000223081
0.00562612
-0.000214453
0.00563761
-0.000204904
0.00564865
-0.000194432
0.00565917
-0.000183035
0.00566908
-0.000170687
-0.000157242
0.00533882
-0.00021979
0.0053447
-0.000224568
0.00535094
-0.000229293
0.00535755
-0.000233946
0.00536453
-0.000238503
0.00537191
-0.000242941
0.00537968
-0.000247233
0.00538785
-0.00025135
0.00539644
-0.000255262
0.00540544
-0.000258933
0.00541486
-0.00026233
0.00542469
-0.000265413
0.00543494
-0.000268143
0.0054456
-0.000270477
0.00545665
-0.000272372
0.00546808
-0.000273784
0.00547987
-0.000274664
0.005492
-0.000274965
0.00550444
-0.000274641
0.00551716
-0.000273642
0.00553011
-0.000271921
0.00554325
-0.000269433
0.00555654
-0.000266132
0.00556991
-0.000261977
0.0055833
-0.000256929
0.00559665
-0.000250955
0.00560988
-0.000244025
0.00562291
-0.000236115
0.00563567
-0.00022721
0.00564806
-0.000217299
0.00566001
-0.000206378
0.00567142
-0.000194441
0.00568219
-0.000181456
-0.000167252
0.00533405
-0.000225366
0.00533999
-0.000230505
0.0053463
-0.000235606
0.005353
-0.000240648
0.0053601
-0.000245608
0.00536762
-0.000250461
0.00537557
-0.000255179
0.00538395
-0.000259733
0.00539278
-0.000264089
0.00540206
-0.000268212
0.00541179
-0.000272063
0.00542198
-0.000275603
0.00543263
-0.000278787
0.00544372
-0.000281571
0.00545525
-0.000283907
0.00546722
-0.000285745
0.00547959
-0.000287034
0.00549234
-0.000287722
0.00550546
-0.000287755
0.00551889
-0.000287079
0.00553261
-0.000285641
0.00554657
-0.000283388
0.00556071
-0.00028027
0.00557497
-0.000276237
0.00558928
-0.000271246
0.00560358
-0.000265255
0.00561779
-0.00025823
0.00563182
-0.000250141
0.00564557
-0.000240968
0.00565897
-0.000230696
0.00567191
-0.000219317
0.00568429
-0.000206822
0.00569601
-0.000193172
-0.000178165
0.00532892
-0.000230962
0.00533489
-0.000236481
0.00534126
-0.000241978
0.00534805
-0.000247432
0.00535526
-0.00025282
0.00536292
-0.000258116
0.00537103
-0.000263292
0.00537961
-0.000268315
0.00538867
-0.000273151
0.00539822
-0.000277763
0.00540827
-0.00028211
0.00541882
-0.000286149
0.00542986
-0.000289833
0.00544141
-0.000293114
0.00545344
-0.00029594
0.00546595
-0.000298256
0.00547892
-0.000300007
0.00549233
-0.000301134
0.00550616
-0.000301577
0.00552035
-0.000301278
0.00553489
-0.000300175
0.00554971
-0.000298208
0.00556476
-0.00029532
0.00557998
-0.000291455
0.00559529
-0.00028656
0.00561062
-0.000280587
0.00562589
-0.000273495
0.00564099
-0.000265248
0.00565584
-0.000255819
0.00567034
-0.000245189
0.00568436
-0.000233346
0.00569782
-0.000220275
0.00571057
-0.000205929
-0.000190071
0.00532341
-0.00023656
0.00532941
-0.000242478
0.00533582
-0.000248392
0.00534267
-0.000254283
0.00534998
-0.000260126
0.00535776
-0.000265894
0.00536602
-0.000271558
0.00537479
-0.000277085
0.00538408
-0.000282439
0.0053939
-0.00028758
0.00540425
-0.000292466
0.00541515
-0.00029705
0.00542661
-0.000301284
0.0054386
-0.000305113
0.00545115
-0.000308483
0.00546423
-0.000311334
0.00547782
-0.000313603
0.00549192
-0.000315229
0.00550648
-0.000316143
0.00552148
-0.00031628
0.00553688
-0.000315571
0.00555262
-0.000313948
0.00556865
-0.000311346
0.00558489
-0.000307699
0.00560128
-0.000302948
0.00561773
-0.000297035
0.00563414
-0.000289911
0.00565043
-0.000281532
0.00566647
-0.000271865
0.00568217
-0.000260883
0.00569739
-0.000248571
0.00571203
-0.000234907
0.00572593
-0.000219833
-0.000203074
0.0053175
-0.000242141
0.0053235
-0.000248477
0.00532994
-0.000254832
0.00533684
-0.000261183
0.00534422
-0.000267507
0.00535211
-0.000273778
0.00536051
-0.000279963
0.00536946
-0.00028603
0.00537896
-0.000291941
0.00538903
-0.000297654
0.00539969
-0.000303125
0.00541095
-0.000308305