/*--------------------------------*- C++ -*----------------------------------*\
| =========                 |                                                 |
| \\      /  F ield         | OpenFOAM: The Open Source CFD Toolbox           |
|  \\    /   O peration     | Version:  2412                                  |
|   \\  /    A nd           | Website:  www.openfoam.com                      |
|    \\/     M anipulation  |                                                 |
\*---------------------------------------------------------------------------*/
FoamFile
{
    version     2.0;
    format      ascii;
    arch        "LSB;label=32;scalar=64";
    class       surfaceScalarField;
    location    "13";
    object      phi;
}
// * * * * * * * * * * * * * * * * * * * * * * * * * * * * * * * * * * * * * //

dimensions      [0 3 -1 0 0 0 0];

oriented        oriented;

internalField   nonuniform List<scalar> 
10424
(
0.00525766
-0.000295905
-0.00526212
0.00525352
-0.000293198
0.00524972
-0.000290284
-0.000287171
0.00526692
-0.000291248
-0.00527158
0.00526259
-0.000288864
0.00525858
-0.00028627
0.00525488
-0.000283471
0.00525149
-0.000280476
0.0052484
-0.000277292
0.00524561
-0.00027393
0.0052431
-0.000270398
0.00524088
-0.000266704
0.00523892
-0.000262858
0.00523723
-0.000258871
0.00523579
-0.000254751
0.00523459
-0.00025051
0.00523362
-0.000246157
0.00523288
-0.0002417
0.00523234
-0.00023715
0.00523201
-0.000232514
0.00523187
-0.000227801
0.00523191
-0.000223019
0.00523212
-0.000218177
0.00523249
-0.000213284
0.00523301
-0.000208351
0.00523368
-0.00020339
0.00523447
-0.000198414
0.00523539
-0.000193436
0.00523642
-0.000188471
0.00523754
-0.00018353
0.00523876
-0.000178622
0.00524005
-0.000173756
0.00524141
-0.000168936
0.00524283
-0.000164165
0.0052443
-0.000159446
0.00524581
-0.000154778
0.00524735
-0.000150162
0.00524892
-0.0001456
0.00525051
-0.000141091
0.00525211
-0.000136637
0.00525371
-0.000132241
0.00525531
-0.000127902
0.00525691
-0.000123623
0.0052585
-0.000119406
0.00526007
-0.000115253
0.00526162
-0.000111164
-0.000107142
0.00527574
-0.000286431
-0.00528056
0.00527124
-0.000284358
0.00526704
-0.000282071
0.00526315
-0.000279578
0.00525955
-0.000276883
0.00525626
-0.000273994
0.00525325
-0.000270921
0.00525052
-0.000267671
0.00524807
-0.000264253
0.00524588
-0.000260675
0.00524396
-0.000256946
0.00524229
-0.000253078
0.00524085
-0.000249078
0.00523965
-0.000244957
0.00523868
-0.000240723
0.00523791
-0.000236386
0.00523735
-0.000231954
0.00523699
-0.000227435
0.00523681
-0.000222838
0.0052368
-0.000218171
0.00523696
-0.000213444
0.00523728
-0.000208667
0.00523774
-0.000203852
0.00523834
-0.000199012
0.00523906
-0.000194161
0.0052399
-0.000189311
0.00524085
-0.000184475
0.00524189
-0.000179663
0.00524301
-0.000174881
0.00524421
-0.000170136
0.00524548
-0.000165431
0.0052468
-0.000160768
0.00524817
-0.000156147
0.00524958
-0.000151571
0.00525102
-0.00014704
0.00525248
-0.000142555
0.00525397
-0.000138119
0.00525546
-0.000133733
0.00525696
-0.0001294
0.00525845
-0.000125122
0.00525995
-0.0001209
0.00526143
-0.000116737
0.0052629
-0.000112634
-0.000108595
0.00528413
-0.000281482
-0.00528908
0.00527947
-0.000279706
0.00527512
-0.000277715
0.00527105
-0.000275515
0.00526728
-0.000273111
0.0052638
-0.00027051
0.0052606
-0.000267718
0.00525767
-0.000264744
0.00525501
-0.000261596
0.00525262
-0.000258281
0.00525048
-0.000254809
0.00524859
-0.000251189
0.00524694
-0.000247429
0.00524553
-0.00024354
0.00524433
-0.00023953
0.00524335
-0.000235407
0.00524258
-0.00023118
0.005242
-0.000226858
0.00524161
-0.000222448
0.0052414
-0.000217959
0.00524136
-0.000213401
0.00524147
-0.000208784
0.00524174
-0.00020412
0.00524215
-0.000199421
0.00524269
-0.000194701
0.00524335
-0.000189972
0.00524412
-0.000185247
0.00524499
-0.000180535
0.00524596
-0.000175845
0.005247
-0.000171181
0.00524812
-0.000166547
0.0052493
-0.000161946
0.00525053
-0.000157379
0.0052518
-0.000152848
0.00525312
-0.000148354
0.00525446
-0.000143899
0.00525583
-0.000139486
0.00525721
-0.000135117
0.00525861
-0.000130795
0.00526001
-0.000126522
0.00526141
-0.0001223
0.0052628
-0.000118132
0.00526419
-0.000114021
-0.000109969
0.00529208
-0.000276424
-0.00529714
0.00528731
-0.000274932
0.00528282
-0.000273225
0.00527861
-0.000271307
0.00527468
-0.000269184
0.00527103
-0.00026686
0.00526765
-0.000264342
0.00526455
-0.000261638
0.00526171
-0.000258753
0.00525912
-0.000255697
0.00525679
-0.000252477
0.0052547
-0.000249102
0.00525285
-0.00024558
0.00525123
-0.000241922
0.00524984
-0.000238134
0.00524866
-0.000234225
0.00524768
-0.000230205
0.0052469
-0.00022608
0.00524632
-0.000221859
0.00524591
-0.000217551
0.00524567
-0.000213165
0.0052456
-0.000208712
0.00524568
-0.000204202
0.00524591
-0.000199648
0.00524627
-0.000195063
0.00524676
-0.00019046
0.00524736
-0.000185851
0.00524807
-0.000181245
0.00524888
-0.000176651
0.00524977
-0.000172073
0.00525074
-0.000167516
0.00525178
-0.000162983
0.00525288
-0.000158475
0.00525402
-0.000153995
0.00525521
-0.000149544
0.00525644
-0.000145125
0.00525769
-0.000140741
0.00525897
-0.000136394
0.00526026
-0.000132088
0.00526157
-0.000127825
0.00526287
-0.000123608
0.00526418
-0.00011944
0.00526549
-0.000115325
-0.000111264
0.00529962
-0.00027128
-0.00530476
0.00529474
-0.000270058
0.00529014
-0.000268622
0.00528581
-0.000266976
0.00528175
-0.000265123
0.00527795
-0.000263067
0.00527443
-0.000260814
0.00527116
-0.000258371
0.00526815
-0.000255744
0.00526539
-0.00025294
0.00526288
-0.000249967
0.00526062
-0.000246834
0.00525858
-0.000243547
0.00525678
-0.000240117
0.00525519
-0.00023655
0.00525382
-0.000232855
0.00525266
-0.000229041
0.00525169
-0.000225114
0.00525092
-0.000221084
0.00525033
-0.000216959
0.00524991
-0.000212747
0.00524966
-0.000208459
0.00524956
-0.000204107
0.00524961
-0.000199701
0.00524981
-0.000195256
0.00525013
-0.000190782
0.00525057
-0.000186293
0.00525112
-0.000181798
0.00525178
-0.000177304
0.00525252
-0.000172818
0.00525335
-0.000168343
0.00525425
-0.000163883
0.00525521
-0.00015944
0.00525624
-0.000155016
0.00525731
-0.000150614
0.00525842
-0.000146236
0.00525956
-0.000141885
0.00526073
-0.000137565
0.00526192
-0.000133279
0.00526313
-0.000129031
0.00526434
-0.000124824
0.00526557
-0.000120661
0.00526679
-0.000116545
-0.00011248
0.00530675
-0.000266071
-0.00531196
0.0053018
-0.000265106
0.0052971
-0.000263929
0.00529267
-0.000262541
0.00528849
-0.000260947
0.00528458
-0.000259149
0.00528091
-0.000257152
0.00527751
-0.000254962
0.00527435
-0.000252585
0.00527144
-0.000250028
0.00526877
-0.000247297
0.00526633
-0.000244401
0.00526413
-0.000241345
0.00526215
-0.00023814
0.0052604
-0.000234792
0.00525885
-0.00023131
0.00525751
-0.0002277
0.00525637
-0.000223972
0.00525542
-0.000220133
0.00525465
-0.000216191
0.00525406
-0.000212155
0.00525363
-0.000208036
0.00525337
-0.000203842
0.00525326
-0.000199588
0.00525329
-0.000195285
0.00525345
-0.000190945
0.00525374
-0.00018658
0.00525414
-0.000182199
0.00525464
-0.000177811
0.00525525
-0.000173421
0.00525594
-0.000169033
0.0052567
-0.000164651
0.00525754
-0.000160277
0.00525844
-0.000155914
0.00525939
-0.000151565
0.00526039
-0.000147232
0.00526142
-0.00014292
0.00526249
-0.000138632
0.00526358
-0.000134372
0.00526469
-0.000130143
0.00526582
-0.00012595
0.00526695
-0.000121796
0.00526809
-0.000117684
-0.000113618
0.00531349
-0.000260815
-0.00531875
0.00530848
-0.000260094
0.00530371
-0.000259162
0.00529919
-0.000258022
0.00529492
-0.000256676
0.0052909
-0.000255125
0.00528712
-0.000253375
0.00528359
-0.00025143
0.0052803
-0.000249295
0.00527725
-0.000246978
0.00527443
-0.000244483
0.00527185
-0.000241818
0.00526949
-0.000238989
0.00526736
-0.000236006
0.00526544
-0.000232874
0.00526373
-0.000229601
0.00526223
-0.000226196
0.00526092
-0.000222666
0.00525981
-0.000219017
0.00525888
-0.000215259
0.00525812
-0.0002114
0.00525753
-0.000207449
0.00525711
-0.000203418
0.00525684
-0.000199317
0.00525671
-0.000195159
0.00525672
-0.000190955
0.00525686
-0.000186717
0.00525711
-0.000182455
0.00525748
-0.000178176
0.00525794
-0.000173885
0.0052585
-0.000169589
0.00525914
-0.000165289
0.00525985
-0.000160989
0.00526063
-0.000156691
0.00526146
-0.0001524
0.00526235
-0.000148118
0.00526328
-0.000143849
0.00526424
-0.000139597
0.00526524
-0.000135367
0.00526625
-0.000131162
0.00526729
-0.000126986
0.00526834
-0.000122845
0.0052694
-0.000118741
-0.000114679
0.00531985
-0.000255531
-0.00532514
0.0053148
-0.00025504
0.00530998
-0.000254341
0.00530539
-0.000253436
0.00530104
-0.000252326
0.00529693
-0.000251012
0.00529305
-0.000249499
0.00528941
-0.00024779
0.00528601
-0.00024589
0.00528284
-0.000243804
0.00527989
-0.000241539
0.00527717
-0.0002391
0.00527468
-0.000236493
0.0052724
-0.000233727
0.00527033
-0.000230808
0.00526848
-0.000227743
0.00526682
-0.00022454
0.00526536
-0.000221205
0.00526409
-0.000217747
0.005263
-0.000214172
0.00526209
-0.00021049
0.00526135
-0.000206709
0.00526077
-0.00020284
0.00526035
-0.000198895
0.00526008
-0.000194884
0.00525994
-0.000190819
0.00525993
-0.000186712
0.00526005
-0.000182571
0.00526028
-0.000178404
0.00526061
-0.000174217
0.00526104
-0.000170015
0.00526155
-0.000165802
0.00526214
-0.00016158
0.0052628
-0.000157352
0.00526352
-0.000153123
0.0052643
-0.000148895
0.00526513
-0.000144673
0.00526599
-0.000140462
0.00526689
-0.000136265
0.00526781
-0.000132088
0.00526876
-0.000127935
0.00526973
-0.00012381
0.00527071
-0.000119718
-0.000115663
0.00532585
-0.000250233
-0.00533115
0.00532077
-0.000249959
0.00531591
-0.000249481
0.00531127
-0.000248799
0.00530686
-0.000247914
0.00530268
-0.000246827
0.00529872
-0.00024554
0.00529499
-0.000244058
0.00529148
-0.000242384
0.0052882
-0.000240523
0.00528514
-0.00023848
0.0052823
-0.000236261
0.00527968
-0.000233871
0.00527727
-0.000231318
0.00527507
-0.000228607
0.00527307
-0.000225747
0.00527127
-0.000222743
0.00526967
-0.000219602
0.00526826
-0.000216332
0.00526702
-0.00021294
0.00526597
-0.000209435
0.00526508
-0.000205824
0.00526436
-0.000202119
0.0052638
-0.000198329
0.00526338
-0.000194467
0.0052631
-0.000190543
0.00526296
-0.000186568
0.00526294
-0.000182552
0.00526304
-0.000178501
0.00526324
-0.000174421
0.00526355
-0.000170317
0.00526394
-0.000166194
0.00526441
-0.000162053
0.00526496
-0.000157899
0.00526557
-0.000153735
0.00526624
-0.000149566
0.00526696
-0.000145395
0.00526773
-0.000141228
0.00526853
-0.000137069
0.00526937
-0.000132924
0.00527023
-0.000128797
0.00527111
-0.000124692
0.00527201
-0.000120616
-0.000116571
0.0053315
-0.000244936
-0.0053368
0.00532641
-0.000244867
0.00532152
-0.000244596
0.00531685
-0.000244126
0.00531239
-0.000243454
0.00530815
-0.000242583
0.00530412
-0.000241513
0.00530031
-0.000240248
0.00529672
-0.000238792
0.00529334
-0.000237148
0.00529018
-0.00023532
0.00528723
-0.000233314
0.0052845
-0.000231135
0.00528197
-0.00022879
0.00527965
-0.000226284
0.00527752
-0.000223623
0.0052756
-0.000220816
0.00527386
-0.000217867
0.00527231
-0.000214783
0.00527094
-0.000211573
0.00526975
-0.000208243
0.00526873
-0.000204802
0.00526787
-0.000201261
0.00526717
-0.000197628
0.00526662
-0.000193916
0.00526621
-0.000190134
0.00526594
-0.000186294
0.00526579
-0.000182404
0.00526576
-0.000178471
0.00526584
-0.000174501
0.00526602
-0.000170499
0.0052663
-0.000166469
0.00526666
-0.000162413
0.00526709
-0.000158336
0.0052676
-0.000154241
0.00526817
-0.000150134
0.00526879
-0.000146018
0.00526946
-0.000141898
0.00527017
-0.000137781
0.00527092
-0.000133671
0.00527169
-0.000129573
0.00527249
-0.000125492
0.00527331
-0.000121434
-0.000117404
0.00533681
-0.000239654
-0.00534209
0.00533172
-0.000239775
0.00532682
-0.000239701
0.00532213
-0.00023943
0.00531763
-0.000238961
0.00531335
-0.000238294
0.00530926
-0.000237432
0.00530539
-0.000236375
0.00530173
-0.000235127
0.00529827
-0.000233691
0.00529502
-0.000232071
0.00529198
-0.000230272
0.00528914
-0.000228298
0.00528651
-0.000226155
0.00528407
-0.000223848
0.00528183
-0.000221384
0.00527979
-0.000218769
0.00527793
-0.000216009
0.00527625
-0.00021311
0.00527476
-0.000210079
0.00527344
-0.000206924
0.00527229
-0.000203652
0.0052713
-0.000200274
0.00527047
-0.000196799
0.0052698
-0.000193237
0.00526926
-0.000189599
0.00526886
-0.000185895
0.00526859
-0.000182133
0.00526844
-0.00017832
0.0052684
-0.000174463
0.00526847
-0.000170565
0.00526863
-0.00016663
0.00526888
-0.000162662
0.00526921
-0.000158666
0.00526961
-0.000154643
0.00527008
-0.000150601
0.0052706
-0.000146543
0.00527118
-0.000142474
0.0052718
-0.000138402
0.00527246
-0.00013433
0.00527315
-0.000130265
0.00527387
-0.000126212
0.00527461
-0.000122176
-0.000118163
0.0053418
-0.000234397
-0.00534706
0.00533672
-0.000234698
0.00533183
-0.000234807
0.00532712
-0.000234723
0.00532261
-0.000234446
0.00531828
-0.000233974
0.00531416
-0.000233308
0.00531024
-0.00023245
0.00530651
-0.000231402
0.00530299
-0.000230166
0.00529966
-0.000228746
0.00529653
-0.000227146
0.00529361
-0.000225371
0.00529088
-0.000223424
0.00528834
-0.000221312
0.005286
-0.00021904
0.00528384
-0.000216614
0.00528187
-0.000214039
0.00528008
-0.000211321
0.00527847
-0.000208468
0.00527703
-0.000205485
0.00527576
-0.000202382
0.00527465
-0.000199166
0.0052737
-0.000195848
0.0052729
-0.000192437
0.00527225
-0.000188943
0.00527173
-0.000185376
0.00527134
-0.000181744
0.00527107
-0.000178053
0.00527092
-0.00017431
0.00527087
-0.000170519
0.00527093
-0.000166682
0.00527107
-0.000162805
0.0052713
-0.000158891
0.0052716
-0.000154944
0.00527196
-0.00015097
0.00527239
-0.000146973
0.00527288
-0.000142959
0.00527341
-0.000138933
0.00527398
-0.000134903
0.00527459
-0.000130874
0.00527523
-0.000126851
0.0052759
-0.000122841
-0.000118848
0.00534648
-0.000229176
-0.0053517
0.00534143
-0.000229644
0.00533654
-0.000229925
0.00533184
-0.000230018
0.00532731
-0.000229921
0.00532297
-0.000229633
0.00531882
-0.000229154
0.00531485
-0.000228485
0.00531108
-0.000227627
0.0053075
-0.000226583
0.00530411
-0.000225356
0.00530091
-0.000223949
0.0052979
-0.000222365
0.00529509
-0.000220609
0.00529246
-0.000218686
0.00529002
-0.000216601
0.00528777
-0.000214359
0.00528569
-0.000211965
0.0052838
-0.000209426
0.00528208
-0.000206747
0.00528053
-0.000203936
0.00527914
-0.000200999
0.00527792
-0.000197944
0.00527686
-0.000194782
0.00527594
-0.000191522
0.00527517
-0.000188173
0.00527454
-0.000184744
0.00527404
-0.000181242
0.00527366
-0.000177676
0.0052734
-0.000174048
0.00527325
-0.000170365
0.00527319
-0.000166629
0.00527323
-0.000162845
0.00527336
-0.000159016
0.00527356
-0.000155147
0.00527383
-0.000151243
0.00527417
-0.00014731
0.00527456
-0.000143353
0.00527501
-0.000139378
0.0052755
-0.000135393
0.00527603
-0.000131402
0.00527659
-0.000127413
0.00527718
-0.00012343
-0.00011946
0.00535087
-0.000224001
-0.00535604
0.00534585
-0.000224624
0.00534099
-0.000225066
0.0053363
-0.000225324
0.00533177
-0.000225397
0.00532742
-0.000225282
0.00532325
-0.00022498
0.00531925
-0.00022449
0.00531544
-0.000223815
0.00531181
-0.000222954
0.00530837
-0.000221911
0.00530511
-0.000220689
0.00530203
-0.00021929
0.00529914
-0.000217718
0.00529643
-0.000215979
0.00529391
-0.000214075
0.00529156
-0.000212013
0.0052894
-0.000209797
0.0052874
-0.000207433
0.00528558
-0.000204926
0.00528393
-0.000202283
0.00528244
-0.00019951
0.00528111
-0.000196616
0.00527994
-0.00019361
0.00527892
-0.000190499
0.00527804
-0.000187294
0.0052773
-0.000184003
0.00527669
-0.000180634
0.0052762
-0.000177191
0.00527584
-0.000173681
0.00527558
-0.000170108
0.00527543
-0.000166474
0.00527537
-0.000162785
0.00527539
-0.000159043
0.0052755
-0.000155255
0.00527568
-0.000151424
0.00527593
-0.000147556
0.00527623
-0.000143659
0.00527659
-0.000139737
0.005277
-0.000135799
0.00527745
-0.00013185
0.00527793
-0.000127897
0.00527845
-0.000123945
-0.000120001
0.00535498
-0.000218879
-0.0053601
0.00535
-0.000219646
0.00534518
-0.000220238
0.0053405
-0.00022065
0.00533599
-0.000220882
0.00533164
-0.000220931
0.00532745
-0.000220796
0.00532344
-0.000220476
0.0053196
-0.000219974
0.00531593
-0.000219288
0.00531244
-0.000218422
0.00530913
-0.000217377
0.005306
-0.000216156
0.00530304
-0.000214762
0.00530026
-0.0002132
0.00529766
-0.000211473
0.00529523
-0.000209586
0.00529298
-0.000207544
0.0052909
-0.000205351
0.00528898
-0.000203012
0.00528723
-0.000200534
0.00528565
-0.000197924
0.00528422
-0.000195188
0.00528295
-0.000192335
0.00528182
-0.000189374
0.00528084
-0.000186313
0.00528
-0.000183161
0.00527929
-0.000179923
0.0052787
-0.000176605
0.00527823
-0.000173214
0.00527788
-0.000169751
0.00527762
-0.000166222
0.00527747
-0.000162629
0.0052774
-0.000158976
0.00527741
-0.000155269
0.0052775
-0.000151513
0.00527766
-0.000147714
0.00527788
-0.000143879
0.00527816
-0.000140013
0.00527848
-0.000136125
0.00527885
-0.000132219
0.00527926
-0.000128305
0.0052797
-0.000124387
-0.000120472
0.00535883
-0.000213819
-0.00536389
0.00535391
-0.000214719
0.00534912
-0.000215449
0.00534447
-0.000216005
0.00533998
-0.000216386
0.00533563
-0.000216588
0.00533145
-0.00021661
0.00532742
-0.000216452
0.00532356
-0.000216113
0.00531987
-0.000215594
0.00531634
-0.000214896
0.00531299
-0.000214021
0.0053098
-0.000212971
0.00530679
-0.00021175
0.00530395
-0.000210359
0.00530128
-0.000208803
0.00529878
-0.000207086
0.00529645
-0.000205213
0.00529428
-0.000203186
0.00529229
-0.000201013
0.00529045
-0.000198697
0.00528877
-0.000196246
0.00528725
-0.000193667
0.00528588
-0.000190966
0.00528466
-0.000188153
0.00528358
-0.000185235
0.00528264
-0.00018222
0.00528183
-0.000179114
0.00528115
-0.000175922
0.00528059
-0.00017265
0.00528013
-0.000169299
0.00527979
-0.000165874
0.00527954
-0.000162379
0.00527938
-0.000158817
0.0052793
-0.000155194
0.0052793
-0.000151515
0.00527938
-0.000147786
0.00527951
-0.000144015
0.00527971
-0.000140207
0.00527995
-0.00013637
0.00528024
-0.000132512
0.00528058
-0.000128638
0.00528095
-0.000124756
-0.000120872
0.00536244
-0.000208825
-0.00536743
0.00535757
-0.000209848
0.00535282
-0.000210706
0.00534822
-0.000211397
0.00534375
-0.000211916
0.00533942
-0.000212262
0.00533524
-0.000212432
0.00533121
-0.000212426
0.00532734
-0.000212242
0.00532363
-0.000211881
0.00532008
-0.000211344
0.00531669
-0.000210631
0.00531346
-0.000209745
0.0053104
-0.000208688
0.0053075
-0.000207463
0.00530477
-0.000206073
0.00530221
-0.000204521
0.00529981
-0.000202811
0.00529757
-0.000200948
0.00529549
-0.000198935
0.00529357
-0.000196779
0.00529181
-0.000194485
0.0052902
-0.000192059
0.00528874
-0.000189508
0.00528743
-0.000186842
0.00528626
-0.000184066
0.00528523
-0.000181187
0.00528433
-0.000178213
0.00528355
-0.000175147
0.0052829
-0.000171993
0.00528235
-0.000168755
0.00528191
-0.000165436
0.00528157
-0.000162039
0.00528133
-0.000158569
0.00528116
-0.000155031
0.00528108
-0.000151431
0.00528107
-0.000147774
0.00528112
-0.000144068
0.00528123
-0.00014032
0.0052814
-0.000136538
0.00528162
-0.000132728
0.00528188
-0.000128898
0.00528218
-0.000125054
-0.000121204
0.00536581
-0.000203904
-0.00537073
0.005361
-0.000205039
0.00535631
-0.000206016
0.00535175
-0.00020683
0.00534731
-0.000207479
0.00534301
-0.000207959
0.00533884
-0.000208268
0.00533482
-0.000208404
0.00533095
-0.000208367
0.00532722
-0.000208156
0.00532365
-0.000207772
0.00532023
-0.000207214
0.00531697
-0.000206485
0.00531387
-0.000205586
0.00531093
-0.00020452
0.00530814
-0.00020329
0.00530552
-0.000201897
0.00530306
-0.000200347
0.00530075
-0.000198642
0.0052986
-0.000196787
0.00529661
-0.000194786
0.00529477
-0.000192645
0.00529308
-0.00019037
0.00529154
-0.000187967
0.00529014
-0.000185445
0.00528889
-0.00018281
0.00528776
-0.000180067
0.00528678
-0.000177223
0.00528591
-0.000174282
0.00528517
-0.000171247
0.00528453
-0.000168122
0.00528401
-0.000164909
0.00528358
-0.000161612
0.00528324
-0.000158235
0.005283
-0.000154783
0.00528283
-0.000151262
0.00528273
-0.00014768
0.00528271
-0.000144041
0.00528274
-0.000140355
0.00528283
-0.000136629
0.00528297
-0.00013287
0.00528316
-0.000129085
0.00528339
-0.000125282
-0.000121468
0.00536897
-0.00537381
-0.00019906
0.00536423
-0.000200298
0.00535959
-0.000201383
0.00535507
-0.000202312
0.00535068
-0.00020308
0.0053464
-0.000203685
0.00534226
-0.000204124
0.00533825
-0.000204395
0.00533438
-0.000204496
0.00533065
-0.000204427
0.00532706
-0.000204187
0.00532363
-0.000203777
0.00532034
-0.000203198
0.00531721
-0.000202451
0.00531422
-0.000201538
0.00531139
-0.000200461
0.00530872
-0.000199223
0.0053062
-0.000197826
0.00530383
-0.000196275
0.00530162
-0.000194573
0.00529956
-0.000192724
0.00529764
-0.000190733
0.00529588
-0.000188606
0.00529426
-0.000186349
0.00529279
-0.000183969
0.00529145
-0.000181472
0.00529025
-0.000178864
0.00528917
-0.00017615
0.00528822
-0.000173333
0.00528739
-0.000170417
0.00528667
-0.000167404
0.00528606
-0.000164297
0.00528555
-0.0001611
0.00528513
-0.000157817
0.0052848
-0.000154452
0.00528455
-0.000151013
0.00528438
-0.000147505
0.00528427
-0.000143936
0.00528423
-0.000140313
0.00528424
-0.000136645
0.00528431
-0.000132938
0.00528443
-0.000129201
0.00528459
-0.000125441
-0.000121665
0.00565222
-0.000521571
0.00562557
-0.00052296
0.00559973
-0.000522883
0.00557479
-0.000521423
0.00555078
-0.000518671
0.00552775
-0.000514729
0.00550574
-0.000509702
0.00548476
-0.000503698
0.00546483
-0.000496825
0.00544594
-0.000489194
0.00542809
-0.000480911
0.00541126
-0.000472076
0.00539545
-0.000462785
0.00538062
-0.000453127
0.00536675
-0.00044318
0.0053538
-0.000433018
0.00534175
-0.000422703
0.00533056
-0.000412293
0.00532018
-0.000401837
0.00531059
-0.000391378
0.00530174
-0.000380954
0.00529359
-0.000370598
0.00528612
-0.00036034
0.00527927
-0.000350203
0.00527301
-0.000340209
0.00526731
-0.000330377
-0.00032072
0.00565102
-0.000495785
0.00562586
-0.000497799
0.0056014
-0.000498426
0.00557771
-0.000497736
0.00555485
-0.000495809
0.00553286
-0.000492736
0.00551177
-0.000488612
0.0054916
-0.000483534
0.00547238
-0.000477604
0.00545411
-0.000470923
0.00543679
-0.000463588
0.00542041
-0.000455696
0.00540496
-0.000447336
0.00539042
-0.00043859
0.00537678
-0.000429535
0.005364
-0.000420239
0.00535206
-0.000410762
0.00534092
-0.00040116
0.00533057
-0.000391479
0.00532095
-0.000381763
0.00531205
-0.000372048
0.00530381
-0.000362367
0.00529622
-0.000352748
0.00528924
-0.000343217
0.00528282
-0.000333795
0.00527695
-0.000324502
-0.000315353
0.00564919
-0.00047151
0.00562544
-0.00047405
0.0056023
-0.000475278
0.00557981
-0.000475254
0.00555805
-0.000474049
0.00553706
-0.000471742
0.00551687
-0.00046842
0.0054975
-0.000464172
0.00547899
-0.000459091
0.00546134
-0.00045327
0.00544455
-0.0004468
0.00542863
-0.000439772
0.00541356
-0.000432269
0.00539934
-0.000424368
0.00538594
-0.000416141
0.00537336
-0.000407654
0.00536156
-0.000398963
0.00535052
-0.00039012
0.00534021
-0.000381173
0.00533061
-0.00037216
0.00532168
-0.00036312
0.0053134
-0.000354082
0.00530572
-0.000345077
0.00529864
-0.000336128
0.0052921
-0.000327258
0.00528608
-0.000318487
-0.00030983
0.00564684
-0.000448658
0.00562443
-0.000451637
0.00560252
-0.000453374
0.00558119
-0.000453922
0.00556049
-0.000453344
0.00554045
-0.00045171
0.00552113
-0.000449099
0.00550255
-0.000445591
0.00548473
-0.000441273
0.00546769
-0.00043623
0.00545144
-0.000430549
0.00543598
-0.000424311
0.00542131
-0.000417596
0.00540742
-0.000410476
0.0053943
-0.000403019
0.00538193
-0.000395285
0.00537029
-0.00038733
0.00535938
-0.000379202
0.00534915
-0.000370946
0.00533959
-0.0003626
0.00533067
-0.0003542
0.00532236
-0.000345776
0.00531464
-0.000337357
0.00530748
-0.000328967
0.00530085
-0.000320628
0.00529472
-0.00031236
-0.000304181
0.00564404
-0.000427146
0.00562289
-0.000430484
0.00560216
-0.000432648
0.00558192
-0.000433685
0.00556223
-0.000433649
0.00554312
-0.000432603
0.00552464
-0.000430619
0.00550682
-0.000427771
0.00548969
-0.000424137
0.00547325
-0.000419798
0.00545754
-0.000414832
0.00544254
-0.000409317
0.00542827
-0.000403327
0.00541473
-0.000396928
0.00540189
-0.000390184
0.00538976
-0.000383153
0.00537832
-0.000375886
0.00536754
-0.000368429
0.00535742
-0.000360824
0.00534793
-0.000353108
0.00533904
-0.000345315
0.00533074
-0.000337475
0.005323
-0.000329615
0.00531579
-0.00032176
0.0053091
-0.000313932
0.00530289
-0.000306149
-0.000298431
0.00564086
-0.000406892
0.0056209
-0.000410519
0.00560129
-0.000413038
0.00558209
-0.000414488
0.00556336
-0.000414917
0.00554514
-0.000414384
0.00552747
-0.000412951
0.00551039
-0.000410688
0.00549392
-0.000407666
0.00547808
-0.000403961
0.00546289
-0.000399646
0.00544837
-0.000394791
0.00543451
-0.000389465
0.00542131
-0.000383732
0.00540878
-0.00037765
0.0053969
-0.000371273
0.00538566
-0.000364648
0.00537505
-0.00035782
0.00536506
-0.000350828
0.00535565
-0.000343707
0.00534683
-0.00033649
0.00533856
-0.000329205
0.00533082
-0.000321878
0.0053236
-0.000314534
0.00531686
-0.000307194
0.00531059
-0.000299879
-0.000292604
0.00563736
-0.00038782
0.00561852
-0.000391675
0.00559996
-0.000394483
0.00558175
-0.000396279
0.00556394
-0.000397104
0.00554657
-0.000397013
0.00552968
-0.000396063
0.00551331
-0.000394317
0.00549748
-0.000391843
0.00548223
-0.000388709
0.00546757
-0.000384983
0.00545351
-0.000380731
0.00544006
-0.000376015
0.00542722
-0.000370896
0.005415
-0.000365427
0.00540338
-0.000359657
0.00539237
-0.000353633
0.00538194
-0.000347394
0.00537209
-0.000340978
0.0053628
-0.000334418
0.00535406
-0.000327745
0.00534584
-0.000320986
0.00533813
-0.000314167
0.0053309
-0.00030731
0.00532415
-0.000300439
0.00531784
-0.00029357
-0.000286723
0.00563358
-0.000369855
0.00561579
-0.000373885
0.00559823
-0.000376924
0.00558096
-0.000379004
0.00556402
-0.000380164
0.00554746
-0.000380453
0.00553132
-0.000379924
0.00551564
-0.000378635
0.00550045
-0.000376649
0.00548576
-0.000374028
0.00547162
-0.000370836
0.00545802
-0.000367132
0.00544498
-0.000362977
0.00543251
-0.000358423
0.0054206
-0.00035352
0.00540926
-0.000348316
0.00539848
-0.000342852
0.00538825
-0.000337165
0.00537856
-0.00033129
0.0053694
-0.000325258
0.00536075
-0.000319099
0.00535261
-0.000312838
0.00534494
-0.000306501
0.00533774
-0.00030011
0.00533099
-0.000293685
0.00532466
-0.000287245
-0.000280809
0.00562958
-0.000352928
0.00561278
-0.000357083
0.00559616
-0.000360303
0.00557977
-0.000362614
0.00556366
-0.000364054
0.00554787
-0.000364667
0.00553245
-0.000364503
0.00551743
-0.000363617
0.00550285
-0.000362064
0.00548872
-0.000359904
0.00547508
-0.000357195
0.00546194
-0.000353991
0.00544931
-0.000350348
0.00543721
-0.000346315
0.00542562
-0.000341938
0.00541456
-0.000337258
0.00540403
-0.000332315
0.00539401
-0.000327144
0.00538449
-0.000321777
0.00537548
-0.000316242
0.00536695
-0.000310568
0.00535889
-0.000304779
0.00535129
-0.000298899
0.00534413
-0.00029295
0.00533739
-0.000286951
0.00533107
-0.000280921
-0.000274878
0.00562538
-0.000336972
0.00560951
-0.000341211
0.00559377
-0.000344565
0.00557821
-0.00034706
0.00556289
-0.000348731
0.00554784
-0.000349619
0.00553311
-0.000349771
0.00551873
-0.000349237
0.00550474
-0.000348069
0.00549115
-0.000346323
0.00547801
-0.00034405
0.00546532
-0.000341302
0.0054531
-0.000338128
0.00544136
-0.000334574
0.0054301
-0.000330681
0.00541933
-0.000326489
0.00540905
-0.000322032
0.00539925
-0.000317343
0.00538992
-0.000312451
0.00538107
-0.000307384
0.00537266
-0.000302167
0.00536471
-0.000296823
0.00535719
-0.000291376
0.00535008
-0.000285847
0.00534338
-0.000280254
0.00533708
-0.000274615
-0.000268949
0.00562101
-0.000321921
0.00560601
-0.000326208
0.0055911
-0.000329658
0.00557634
-0.000332296
0.00556176
-0.000334155
0.00554742
-0.000335274
0.00553334
-0.000335697
0.00551958
-0.000335471
0.00550615
-0.000334645
0.0054931
-0.000333269
0.00548044
-0.00033139
0.0054682
-0.000329057
0.00545638
-0.000326313
0.00544501
-0.000323199
0.00543408
-0.000319755
0.0054236
-0.000316014
0.00541358
-0.000312009
0.00540401
-0.000307769
0.00539488
-0.000303323
0.00538619
-0.000298694
0.00537793
-0.000293907
0.00537009
-0.000288984
0.00536266
-0.000283947
0.00535563
-0.000278815
0.00534898
-0.000273608
0.00534271
-0.000268342
-0.000263036
0.00561651
-0.000307716
0.00560232
-0.00031202
0.00558819
-0.000315531
0.00557417
-0.000318276
0.0055603
-0.000320286
0.00554663
-0.000321598
0.00553318
-0.000322253
0.00552001
-0.000322297
0.00550714
-0.000321773
0.0054946
-0.000320728
0.00548241
-0.000319206
0.0054706
-0.000317249
0.00545919
-0.000314898
0.00544818
-0.00031219
0.00543758
-0.000309158
0.00542741
-0.000305836
0.00541765
-0.000302251
0.00540831
-0.000298431
0.00539939
-0.0002944
0.00539087
-0.000290182
0.00538277
-0.000285799
0.00537506
-0.000281273
0.00536773
-0.000276622
0.00536078
-0.000271868
0.0053542
-0.000267026
0.00534798
-0.000262116
-0.000257152
0.00561189
-0.000294296
0.00559846
-0.000298591
0.00558506
-0.000302137
0.00557175
-0.000304958
0.00555855
-0.000307087
0.00554551
-0.000308558
0.00553267
-0.000309413
0.00552006
-0.000309691
0.00550772
-0.000309435
0.00549568
-0.000308686
0.00548396
-0.000307486
0.00547258
-0.000305871
0.00546156
-0.000303879
0.00545092
-0.000301543
0.00544065
-0.000298893
0.00543077
-0.000295958
0.00542129
-0.000292763
0.00541219
-0.000289332
0.00540348
-0.00028569
0.00539515
-0.000281857
0.00538721
-0.000277853
0.00537963
-0.000273699
0.00537242
-0.000269414
0.00536557
-0.000265015
0.00535907
-0.000260521
0.0053529
-0.000255947
-0.00025131
0.00560717
-0.000281606
0.00559445
-0.000285871
0.00558174
-0.000289428
0.00556909
-0.000292301
0.00555652
-0.000294522
0.00554409
-0.000296125
0.00553183
-0.000297149
0.00551977
-0.000297632
0.00550794
-0.000297612
0.00549639
-0.000297129
0.00548512
-0.000296219
0.00547416
-0.000294916
0.00546354
-0.000293252
0.00545325
-0.000291257
0.00544332
-0.000288958
0.00543374
-0.00028638
0.00542452
-0.000283546
0.00541567
-0.000280479
0.00540718
-0.000277198
0.00539904
-0.000273724
0.00539127
-0.000270076
0.00538384
-0.000266272
0.00537676
-0.00026233
0.00537001
-0.000258268
0.00536359
-0.000254101
0.00535749
-0.000249847
-0.000245521
0.00560239
-0.000269593
0.00559033
-0.000273812
0.00557826
-0.000277361
0.00556622
-0.000280266
0.00555426
-0.000282557
0.0055424
-0.000284269
0.00553069
-0.000285437
0.00551916
-0.000286098
0.00550783
-0.000286289
0.00549675
-0.000286044
0.00548593