/*--------------------------------*- C++ -*----------------------------------*\
| =========                 |                                                 |
| \\      /  F ield         | OpenFOAM: The Open Source CFD Toolbox           |
|  \\    /   O peration     | Version:  2412                                  |
|   \\  /    A nd           | Website:  www.openfoam.com                      |
|    \\/     M anipulation  |                                                 |
\*---------------------------------------------------------------------------*/
FoamFile
{
    version     2.0;
    format      ascii;
    arch        "LSB;label=32;scalar=64";
    class       volVectorField;
    location    "2";
    object      U;
}
// * * * * * * * * * * * * * * * * * * * * * * * * * * * * * * * * * * * * * //

dimensions      [0 1 -1 0 0 0 0];

internalField   nonuniform List<vector> 
5285
(
(0.0995359 -6.44337e-06 0)
(0.099566 -6.04651e-06 0)
(0.0995948 -5.66974e-06 0)
(0.0996223 -5.3127e-06 0)
(0.0996486 -4.97441e-06 0)
(0.0996737 -4.654e-06 0)
(0.0996977 -4.35108e-06 0)
(0.0997206 -4.06477e-06 0)
(0.0997424 -3.79404e-06 0)
(0.0997632 -3.53819e-06 0)
(0.099783 -3.29654e-06 0)
(0.0998017 -3.06814e-06 0)
(0.0998196 -2.8521e-06 0)
(0.0998365 -2.64807e-06 0)
(0.0998525 -2.45571e-06 0)
(0.0998676 -2.2739e-06 0)
(0.0998819 -2.10424e-06 0)
(0.0998955 -1.9449e-06 0)
(0.0999082 -1.79735e-06 0)
(0.0999202 -1.6568e-06 0)
(0.0999315 -1.52499e-06 0)
(0.0999421 -1.40041e-06 0)
(0.099952 -1.28259e-06 0)
(0.0999613 -1.17199e-06 0)
(0.0999699 -1.06827e-06 0)
(0.099978 -9.73393e-07 0)
(0.0999855 -8.86409e-07 0)
(0.0999925 -8.06192e-07 0)
(0.099999 -7.32653e-07 0)
(0.100005 -6.64199e-07 0)
(0.100011 -6.02895e-07 0)
(0.100016 -5.41643e-07 0)
(0.10002 -4.89934e-07 0)
(0.100025 -4.36045e-07 0)
(0.100029 -3.92336e-07 0)
(0.100032 -3.49265e-07 0)
(0.100036 -3.11292e-07 0)
(0.100039 -2.79977e-07 0)
(0.100041 -2.50116e-07 0)
(0.100044 -2.22762e-07 0)
(0.100046 -2.01983e-07 0)
(0.100048 -1.79708e-07 0)
(0.10005 -1.64201e-07 0)
(0.100052 -1.46998e-07 0)
(0.100054 -1.40061e-07 0)
(0.100056 -1.3067e-07 0)
(0.100057 -1.28205e-07 0)
(0.100059 -1.25325e-07 0)
(0.100061 -1.33119e-07 0)
(0.100062 -1.37103e-07 0)
(0.100064 -1.46743e-07 0)
(0.100066 -1.62174e-07 0)
(0.100069 -1.75298e-07 0)
(0.100071 -2.04139e-07 0)
(0.100074 -2.2787e-07 0)
(0.100078 -2.62742e-07 0)
(0.100082 -3.01803e-07 0)
(0.100086 -3.45756e-07 0)
(0.100092 -4.04061e-07 0)
(0.100098 -4.6048e-07 0)
(0.100106 -5.35196e-07 0)
(0.100114 -6.17105e-07 0)
(0.10013 -6.86851e-07 0)
(0.100123 -8.45076e-07 0)
(0.100192 -7.85283e-07 0)
(0.100073 -1.25516e-06 0)
(0.100378 -6.6003e-07 0)
(0.0998871 -1.84046e-06 0)
(0.100647 -1.54025e-07 0)
(0.09985 -3.96887e-06 0)
(0.100553 -6.1489e-06 0)
(0.0995351 -1.93513e-05 0)
(0.0995652 -1.81655e-05 0)
(0.0995939 -1.70409e-05 0)
(0.0996214 -1.59748e-05 0)
(0.0996477 -1.49641e-05 0)
(0.0996728 -1.40065e-05 0)
(0.0996968 -1.31001e-05 0)
(0.0997197 -1.22426e-05 0)
(0.0997415 -1.14316e-05 0)
(0.0997622 -1.06646e-05 0)
(0.099782 -9.93948e-06 0)
(0.0998008 -9.25411e-06 0)
(0.0998186 -8.60664e-06 0)
(0.0998355 -7.99577e-06 0)
(0.0998515 -7.41959e-06 0)
(0.0998666 -6.87624e-06 0)
(0.0998809 -6.36616e-06 0)
(0.0998944 -5.88648e-06 0)
(0.0999072 -5.43754e-06 0)
(0.0999192 -5.01408e-06 0)
(0.0999304 -4.6169e-06 0)
(0.099941 -4.24364e-06 0)
(0.0999509 -3.89308e-06 0)
(0.0999602 -3.56491e-06 0)
(0.0999689 -3.25817e-06 0)
(0.099977 -2.97345e-06 0)
(0.0999845 -2.70994e-06 0)
(0.0999915 -2.46524e-06 0)
(0.099998 -2.23956e-06 0)
(0.100004 -2.02942e-06 0)
(0.10001 -1.83847e-06 0)
(0.100015 -1.65703e-06 0)
(0.100019 -1.4961e-06 0)
(0.100024 -1.34055e-06 0)
(0.100028 -1.2058e-06 0)
(0.100031 -1.07811e-06 0)
(0.100035 -9.64769e-07 0)
(0.100038 -8.64965e-07 0)
(0.10004 -7.74754e-07 0)
(0.100043 -6.92904e-07 0)
(0.100045 -6.25838e-07 0)
(0.100047 -5.63059e-07 0)
(0.100049 -5.14685e-07 0)
(0.100051 -4.70069e-07 0)
(0.100053 -4.41787e-07 0)
(0.100055 -4.17147e-07 0)
(0.100056 -4.06137e-07 0)
(0.100058 -4.00549e-07 0)
(0.10006 -4.11859e-07 0)
(0.100061 -4.26772e-07 0)
(0.100063 -4.5378e-07 0)
(0.100065 -4.94899e-07 0)
(0.100068 -5.41712e-07 0)
(0.10007 -6.13861e-07 0)
(0.100073 -6.90912e-07 0)
(0.100077 -7.9052e-07 0)
(0.100081 -9.06885e-07 0)
(0.100085 -1.0415e-06 0)
(0.100091 -1.20661e-06 0)
(0.100097 -1.38704e-06 0)
(0.100105 -1.59884e-06 0)
(0.100113 -1.85337e-06 0)
(0.100129 -2.05522e-06 0)
(0.100122 -2.53561e-06 0)
(0.100191 -2.34151e-06 0)
(0.100072 -3.75375e-06 0)
(0.100377 -1.96858e-06 0)
(0.0998862 -5.50138e-06 0)
(0.100646 -4.50267e-07 0)
(0.0998492 -1.18631e-05 0)
(0.100551 -1.83945e-05 0)
(0.0995338 -3.22448e-05 0)
(0.0995638 -3.02715e-05 0)
(0.0995925 -2.84004e-05 0)
(0.09962 -2.66263e-05 0)
(0.0996462 -2.49443e-05 0)
(0.0996713 -2.33505e-05 0)
(0.0996953 -2.18415e-05 0)
(0.0997181 -2.04135e-05 0)
(0.0997399 -1.9063e-05 0)
(0.0997607 -1.77855e-05 0)
(0.0997804 -1.65774e-05 0)
(0.0997991 -1.54356e-05 0)
(0.0998169 -1.43572e-05 0)
(0.0998338 -1.33399e-05 0)
(0.0998498 -1.23803e-05 0)
(0.0998649 -1.14757e-05 0)
(0.0998792 -1.06255e-05 0)
(0.0998927 -9.8258e-06 0)
(0.0999055 -9.07573e-06 0)
(0.0999174 -8.36967e-06 0)
(0.0999287 -7.70734e-06 0)
(0.0999393 -7.08565e-06 0)
(0.0999492 -6.50254e-06 0)
(0.0999585 -5.95696e-06 0)
(0.0999671 -5.44732e-06 0)
(0.0999752 -4.97281e-06 0)
(0.0999827 -4.53288e-06 0)
(0.0999897 -4.12374e-06 0)
(0.0999962 -3.74604e-06 0)
(0.100002 -3.39433e-06 0)
(0.100008 -3.07386e-06 0)
(0.100013 -2.77238e-06 0)
(0.100018 -2.50214e-06 0)
(0.100022 -2.24521e-06 0)
(0.100026 -2.01918e-06 0)
(0.100029 -1.80701e-06 0)
(0.100033 -1.61831e-06 0)
(0.100036 -1.45001e-06 0)
(0.100039 -1.29949e-06 0)
(0.100041 -1.16326e-06 0)
(0.100043 -1.04987e-06 0)
(0.100046 -9.46648e-07 0)
(0.100048 -8.65288e-07 0)
(0.100049 -7.93475e-07 0)
(0.100051 -7.43732e-07 0)
(0.100053 -7.03646e-07 0)
(0.100054 -6.84389e-07 0)
(0.100056 -6.76212e-07 0)
(0.100058 -6.90751e-07 0)
(0.10006 -7.16642e-07 0)
(0.100061 -7.61061e-07 0)
(0.100063 -8.27841e-07 0)
(0.100066 -9.0843e-07 0)
(0.100068 -1.02385e-06 0)
(0.100071 -1.15413e-06 0)
(0.100075 -1.31862e-06 0)
(0.100079 -1.51231e-06 0)
(0.100084 -1.7376e-06 0)
(0.100089 -2.00942e-06 0)
(0.100096 -2.31391e-06 0)
(0.100104 -2.66293e-06 0)
(0.100111 -3.09036e-06 0)
(0.100128 -3.42425e-06 0)
(0.10012 -4.2273e-06 0)
(0.100189 -3.89868e-06 0)
(0.100071 -6.25398e-06 0)
(0.100375 -3.28185e-06 0)
(0.0998847 -9.1465e-06 0)
(0.100644 -7.62215e-07 0)
(0.0998483 -1.96376e-05 0)
(0.100545 -3.04763e-05 0)
(0.0995327 -4.51144e-05 0)
(0.0995626 -4.23559e-05 0)
(0.0995913 -3.97402e-05 0)
(0.0996187 -3.726e-05 0)
(0.0996449 -3.49084e-05 0)
(0.09967 -3.26801e-05 0)
(0.0996939 -3.057e-05 0)
(0.0997167 -2.8573e-05 0)
(0.0997384 -2.66841e-05 0)
(0.0997591 -2.48971e-05 0)
(0.0997788 -2.3207e-05 0)
(0.0997975 -2.16098e-05 0)
(0.0998153 -2.01014e-05 0)
(0.0998322 -1.86782e-05 0)
(0.0998481 -1.73359e-05 0)
(0.0998632 -1.60707e-05 0)
(0.0998775 -1.48808e-05 0)
(0.099891 -1.37616e-05 0)
(0.0999037 -1.27108e-05 0)
(0.0999157 -1.17227e-05 0)
(0.099927 -1.07956e-05 0)
(0.0999375 -9.92578e-06 0)
(0.0999474 -9.11048e-06 0)
(0.0999567 -8.34775e-06 0)
(0.0999654 -7.6354e-06 0)
(0.0999734 -6.97124e-06 0)
(0.099981 -6.35507e-06 0)
(0.0999879 -5.78159e-06 0)
(0.0999944 -5.25204e-06 0)
(0.1 -4.759e-06 0)
(0.100006 -4.30915e-06 0)
(0.100011 -3.88778e-06 0)
(0.100016 -3.50821e-06 0)
(0.10002 -3.15015e-06 0)
(0.100024 -2.83261e-06 0)
(0.100028 -2.53618e-06 0)
(0.100031 -2.27214e-06 0)
(0.100034 -2.03534e-06 0)
(0.100037 -1.82461e-06 0)
(0.100039 -1.6341e-06 0)
(0.100042 -1.47441e-06 0)
(0.100044 -1.33078e-06 0)
(0.100046 -1.21638e-06 0)
(0.100048 -1.11745e-06 0)
(0.100049 -1.04614e-06 0)
(0.100051 -9.9066e-07 0)
(0.100053 -9.63196e-07 0)
(0.100054 -9.52423e-07 0)
(0.100056 -9.70247e-07 0)
(0.100058 -1.00702e-06 0)
(0.10006 -1.06884e-06 0)
(0.100062 -1.16133e-06 0)
(0.100064 -1.27574e-06 0)
(0.100067 -1.43447e-06 0)
(0.10007 -1.61802e-06 0)
(0.100073 -1.84737e-06 0)
(0.100077 -2.11851e-06 0)
(0.100082 -2.43453e-06 0)
(0.100087 -2.81288e-06 0)
(0.100094 -3.24158e-06 0)
(0.100102 -3.72797e-06 0)
(0.100109 -4.32881e-06 0)
(0.100126 -4.79489e-06 0)
(0.100119 -5.92163e-06 0)
(0.100188 -5.45749e-06 0)
(0.100069 -8.75869e-06 0)
(0.100374 -4.60041e-06 0)
(0.0998833 -1.27699e-05 0)
(0.100642 -1.13538e-06 0)
(0.0998488 -2.7117e-05 0)
(0.100534 -4.21671e-05 0)
(0.0995328 -5.79495e-05 0)
(0.0995626 -5.44094e-05 0)
(0.0995912 -5.1052e-05 0)
(0.0996185 -4.78684e-05 0)
(0.0996447 -4.48498e-05 0)
(0.0996697 -4.19894e-05 0)
(0.0996935 -3.92805e-05 0)
(0.0997163 -3.67163e-05 0)
(0.099738 -3.42907e-05 0)
(0.0997586 -3.19957e-05 0)
(0.0997783 -2.98252e-05 0)
(0.099797 -2.77738e-05 0)
(0.0998147 -2.58365e-05 0)
(0.0998315 -2.40086e-05 0)
(0.0998475 -2.22845e-05 0)
(0.0998626 -2.06596e-05 0)
(0.0998768 -1.91307e-05 0)
(0.0998903 -1.76927e-05 0)
(0.099903 -1.6342e-05 0)
(0.099915 -1.50723e-05 0)
(0.0999262 -1.38809e-05 0)
(0.0999368 -1.27635e-05 0)
(0.0999467 -1.17165e-05 0)
(0.0999559 -1.0737e-05 0)
(0.0999646 -9.82222e-06 0)
(0.0999726 -8.96869e-06 0)
(0.0999802 -8.1765e-06 0)
(0.0999871 -7.43891e-06 0)
(0.0999936 -6.75771e-06 0)
(0.0999996 -6.1237e-06 0)
(0.100005 -5.5446e-06 0)
(0.10001 -5.00352e-06 0)
(0.100015 -4.51458e-06 0)
(0.100019 -4.05568e-06 0)
(0.100023 -3.64643e-06 0)
(0.100027 -3.266e-06 0)
(0.10003 -2.92667e-06 0)
(0.100033 -2.62144e-06 0)
(0.100036 -2.35054e-06 0)
(0.100039 -2.10592e-06 0)
(0.100041 -1.89992e-06 0)
(0.100043 -1.71592e-06 0)
(0.100045 -1.56849e-06 0)
(0.100047 -1.44237e-06 0)
(0.100049 -1.34951e-06 0)
(0.10005 -1.27884e-06 0)
(0.100052 -1.24294e-06 0)
(0.100054 -1.22963e-06 0)
(0.100055 -1.25084e-06 0)
(0.100057 -1.29845e-06 0)
(0.100059 -1.37765e-06 0)
(0.100061 -1.49591e-06 0)
(0.100063 -1.64427e-06 0)
(0.100066 -1.84633e-06 0)
(0.100069 -2.0832e-06 0)
(0.100072 -2.37739e-06 0)
(0.100077 -2.72613e-06 0)
(0.100081 -3.13303e-06 0)
(0.100087 -3.61789e-06 0)
(0.100093 -4.17106e-06 0)
(0.100101 -4.79495e-06 0)
(0.100109 -5.57006e-06 0)
(0.100126 -6.1678e-06 0)
(0.100118 -7.6219e-06 0)
(0.100187 -7.01492e-06 0)
(0.100069 -1.12807e-05 0)
(0.100373 -5.90794e-06 0)
(0.0998832 -1.6388e-05 0)
(0.100641 -1.64937e-06 0)
(0.0998525 -3.39845e-05 0)
(0.100518 -5.31194e-05 0)
(0.0995349 -7.07391e-05 0)
(0.0995647 -6.64218e-05 0)
(0.0995931 -6.23268e-05 0)
(0.0996203 -5.84434e-05 0)
(0.0996464 -5.47613e-05 0)
(0.0996713 -5.12719e-05 0)
(0.0996951 -4.79671e-05 0)
(0.0997178 -4.48384e-05 0)
(0.0997394 -4.18783e-05 0)
(0.09976 -3.90774e-05 0)
(0.0997796 -3.64283e-05 0)
(0.0997982 -3.39246e-05 0)
(0.0998159 -3.15601e-05 0)
(0.0998327 -2.93289e-05 0)
(0.0998486 -2.72242e-05 0)
(0.0998637 -2.52407e-05 0)
(0.0998779 -2.33739e-05 0)
(0.0998914 -2.1618e-05 0)
(0.0999041 -1.99681e-05 0)
(0.099916 -1.84177e-05 0)
(0.0999272 -1.69627e-05 0)
(0.0999378 -1.55984e-05 0)
(0.0999477 -1.43201e-05 0)
(0.0999569 -1.31244e-05 0)
(0.0999656 -1.20076e-05 0)
(0.0999736 -1.09652e-05 0)
(0.0999811 -9.99725e-06 0)
(0.0999881 -9.0959e-06 0)
(0.0999946 -8.26333e-06 0)
(0.100001 -7.48875e-06 0)
(0.100006 -6.78052e-06 0)
(0.100011 -6.11993e-06 0)
(0.100016 -5.5216e-06 0)
(0.10002 -4.96214e-06 0)
(0.100024 -4.46109e-06 0)
(0.100028 -3.99695e-06 0)
(0.100031 -3.58241e-06 0)
(0.100034 -3.20885e-06 0)
(0.100037 -2.87781e-06 0)
(0.10004 -2.57927e-06 0)
(0.100042 -2.32697e-06 0)
(0.100044 -2.10268e-06 0)
(0.100046 -1.92215e-06 0)
(0.100048 -1.76872e-06 0)
(0.10005 -1.65446e-06 0)
(0.100051 -1.5688e-06 0)
(0.100053 -1.52417e-06 0)
(0.100055 -1.50841e-06 0)
(0.100056 -1.53313e-06 0)
(0.100058 -1.59153e-06 0)
(0.10006 -1.68818e-06 0)
(0.100062 -1.8323e-06 0)
(0.100065 -2.01474e-06 0)
(0.100067 -2.26017e-06 0)
(0.10007 -2.5505e-06 0)
(0.100074 -2.90955e-06 0)
(0.100078 -3.33599e-06 0)
(0.100083 -3.83398e-06 0)
(0.100088 -4.4256e-06 0)
(0.100095 -5.1036e-06 0)
(0.100103 -5.8652e-06 0)
(0.10011 -6.81582e-06 0)
(0.100127 -7.54386e-06 0)
(0.10012 -9.33241e-06 0)
(0.100189 -8.56751e-06 0)
(0.100071 -1.38346e-05 0)
(0.100375 -7.18603e-06 0)
(0.0998851 -2.0017e-05 0)
(0.100642 -2.41911e-06 0)
(0.0998606 -3.98117e-05 0)
(0.100496 -6.28343e-05 0)
(0.0995391 -8.34715e-05 0)
(0.0995687 -7.83828e-05 0)
(0.099597 -7.35551e-05 0)
(0.0996242 -6.89766e-05 0)
(0.0996501 -6.46353e-05 0)
(0.0996749 -6.05209e-05 0)
(0.0996986 -5.66237e-05 0)
(0.0997212 -5.29338e-05 0)
(0.0997427 -4.94419e-05 0)
(0.0997633 -4.61377e-05 0)
(0.0997828 -4.30126e-05 0)
(0.0998014 -4.00589e-05 0)
(0.099819 -3.72691e-05 0)
(0.0998358 -3.46363e-05 0)
(0.0998516 -3.21528e-05 0)
(0.0998667 -2.98122e-05 0)
(0.0998809 -2.76089e-05 0)
(0.0998943 -2.55362e-05 0)
(0.0999069 -2.35882e-05 0)
(0.0999189 -2.17579e-05 0)
(0.0999301 -2.00401e-05 0)
(0.0999406 -1.84296e-05 0)
(0.0999505 -1.69209e-05 0)
(0.0999597 -1.55095e-05 0)
(0.0999683 -1.41913e-05 0)
(0.0999764 -1.29604e-05 0)
(0.0999839 -1.18172e-05 0)
(0.0999909 -1.07526e-05 0)
(0.0999974 -9.76901e-06 0)
(0.100003 -8.85427e-06 0)
(0.100009 -8.01705e-06 0)
(0.100014 -7.23719e-06 0)
(0.100019 -6.52949e-06 0)
(0.100023 -5.86974e-06 0)
(0.100027 -5.27689e-06 0)
(0.100031 -4.7294e-06 0)
(0.100034 -4.23974e-06 0)
(0.100037 -3.79801e-06 0)
(0.10004 -3.40685e-06 0)
(0.100042 -3.05461e-06 0)
(0.100045 -2.75602e-06 0)
(0.100047 -2.49154e-06 0)
(0.100049 -2.27777e-06 0)
(0.100051 -2.09701e-06 0)
(0.100053 -1.96149e-06 0)
(0.100054 -1.86098e-06 0)
(0.100056 -1.80742e-06 0)
(0.100058 -1.7893e-06 0)
(0.100059 -1.81762e-06 0)
(0.100061 -1.88682e-06 0)
(0.100063 -2.00108e-06 0)
(0.100065 -2.17116e-06 0)
(0.100068 -2.38781e-06 0)
(0.10007 -2.67667e-06 0)
(0.100073 -3.02063e-06 0)
(0.100077 -3.44462e-06 0)
(0.100081 -3.94889e-06 0)
(0.100086 -4.53828e-06 0)
(0.100091 -5.23699e-06 0)
(0.100098 -6.04017e-06 0)
(0.100106 -6.94043e-06 0)
(0.100113 -8.06574e-06 0)
(0.10013 -8.93035e-06 0)
(0.100123 -1.10391e-05 0)
(0.100192 -1.01574e-05 0)
(0.100074 -1.63395e-05 0)
(0.100378 -8.57419e-06 0)
(0.0998889 -2.3491e-05 0)
(0.100645 -3.63942e-06 0)
(0.0998725 -4.43412e-05 0)
(0.10047 -7.04075e-05 0)
(0.0995445 -9.64391e-05 0)
(0.0995739 -9.05673e-05 0)
(0.0996021 -8.49957e-05 0)
(0.0996291 -7.97111e-05 0)
(0.0996549 -7.46999e-05 0)
(0.0996795 -6.99502e-05 0)
(0.0997031 -6.54507e-05 0)
(0.0997256 -6.11899e-05 0)
(0.0997471 -5.71571e-05 0)
(0.0997675 -5.33408e-05 0)
(0.099787 -4.97312e-05 0)
(0.0998055 -4.63193e-05 0)
(0.0998231 -4.30965e-05 0)
(0.0998398 -4.00547e-05 0)
(0.0998556 -3.71853e-05 0)
(0.0998706 -3.44808e-05 0)
(0.0998847 -3.19345e-05 0)
(0.0998981 -2.95389e-05 0)
(0.0999107 -2.72869e-05 0)
(0.0999226 -2.51713e-05 0)
(0.0999338 -2.31853e-05 0)
(0.0999443 -2.13237e-05 0)
(0.0999541 -1.95798e-05 0)
(0.0999634 -1.79484e-05 0)
(0.099972 -1.64245e-05 0)
(0.09998 -1.50015e-05 0)
(0.0999875 -1.36794e-05 0)
(0.0999945 -1.24481e-05 0)
(0.100001 -1.13104e-05 0)
(0.100007 -1.02526e-05 0)
(0.100013 -9.2835e-06 0)
(0.100018 -8.38182e-06 0)
(0.100022 -7.5622e-06 0)
(0.100027 -6.80009e-06 0)
(0.100031 -6.11337e-06 0)
(0.100034 -5.48087e-06 0)
(0.100038 -4.91444e-06 0)
(0.100041 -4.40308e-06 0)
(0.100043 -3.95045e-06 0)
(0.100046 -3.54345e-06 0)
(0.100048 -3.19751e-06 0)
(0.100051 -2.89197e-06 0)
(0.100053 -2.64403e-06 0)
(0.100055 -2.43534e-06 0)
(0.100056 -2.27814e-06 0)
(0.100058 -2.16256e-06 0)
(0.10006 -2.09974e-06 0)
(0.100061 -2.07928e-06 0)
(0.100063 -2.11136e-06 0)
(0.100065 -2.1917e-06 0)
(0.100067 -2.3242e-06 0)
(0.100069 -2.52097e-06 0)
(0.100071 -2.7728e-06 0)
(0.100074 -3.10616e-06 0)
(0.100077 -3.50526e-06 0)
(0.100081 -3.99584e-06 0)
(0.100085 -4.57996e-06 0)
(0.10009 -5.26331e-06 0)
(0.100095 -6.07213e-06 0)
(0.100102 -7.00335e-06 0)
(0.10011 -8.04898e-06 0)
(0.100117 -9.34436e-06 0)
(0.100134 -1.03812e-05 0)
(0.100127 -1.27297e-05 0)
(0.100196 -1.19564e-05 0)
(0.100079 -1.85891e-05 0)
(0.100383 -1.05438e-05 0)
(0.0998937 -2.64193e-05 0)
(0.100649 -5.61653e-06 0)
(0.0998863 -4.78739e-05 0)
(0.100442 -7.45932e-05 0)
(0.0995495 -0.000109625 0)
(0.0995787 -0.00010296 0)
(0.0996067 -9.66345e-05 0)
(0.0996335 -9.06339e-05 0)
(0.0996591 -8.49433e-05 0)
(0.0996837 -7.95491e-05 0)
(0.0997071 -7.44383e-05 0)
(0.0997295 -6.95979e-05 0)
(0.0997508 -6.50157e-05 0)
(0.0997712 -6.06791e-05 0)
(0.0997906 -5.65771e-05 0)
(0.099809 -5.26996e-05 0)
(0.0998265 -4.90366e-05 0)
(0.0998431 -4.5579e-05 0)
(0.0998589 -4.23171e-05 0)
(0.0998738 -3.92424e-05 0)
(0.0998879 -3.6347e-05 0)
(0.0999012 -3.36227e-05 0)
(0.0999138 -3.10611e-05 0)
(0.0999257 -2.86548e-05 0)
(0.0999368 -2.63958e-05 0)
(0.0999473 -2.42783e-05 0)
(0.0999571 -2.22947e-05 0)
(0.0999663 -2.0439e-05 0)
(0.0999749 -1.87056e-05 0)
(0.0999829 -1.70868e-05 0)
(0.0999904 -1.55825e-05 0)
(0.0999974 -1.41813e-05 0)
(0.100004 -1.28864e-05 0)
(0.10001 -1.16828e-05 0)
(0.100015 -1.05789e-05 0)
(0.10002 -9.55302e-06 0)
(0.100025 -8.619e-06 0)
(0.100029 -7.75258e-06 0)
(0.100033 -6.97001e-06 0)
(0.100037 -6.25093e-06 0)
(0.10004 -5.60609e-06 0)
(0.100044 -5.02374e-06 0)
(0.100046 -4.50832e-06 0)
(0.100049 -4.04556e-06 0)
(0.100051 -3.65118e-06 0)
(0.100053 -3.30379e-06 0)
(0.100055 -3.02077e-06 0)
(0.100057 -2.78363e-06 0)
(0.100059 -2.6043e-06 0)
(0.100061 -2.4734e-06 0)
(0.100063 -2.40107e-06 0)
(0.100064 -2.37826e-06 0)
(0.100066 -2.41429e-06 0)
(0.100068 -2.50617e-06 0)
(0.10007 -2.65756e-06 0)
(0.100072 -2.8817e-06 0)
(0.100074 -3.16969e-06 0)
(0.100077 -3.54858e-06 0)
(0.10008 -4.00436e-06 0)
(0.100084 -4.56316e-06 0)
(0.100088 -5.22919e-06 0)
(0.100093 -6.00907e-06 0)
(0.100098 -6.93101e-06 0)
(0.100105 -7.99315e-06 0)
(0.100113 -9.19102e-06 0)
(0.100121 -1.06515e-05 0)
(0.100138 -1.1898e-05 0)
(0.100131 -1.4401e-05 0)
(0.100199 -1.39761e-05 0)
(0.100083 -2.05598e-05 0)
(0.100386 -1.31421e-05 0)
(0.0998975 -2.87394e-05 0)
(0.100652 -8.431e-06 0)
(0.0998982 -5.03143e-05 0)
(0.100415 -7.50744e-05 0)
(0.0995528 -0.000122718 0)
(0.0995818 -0.000115268 0)
(0.0996096 -0.000108197 0)
(0.0996362 -0.000101487 0)
(0.0996617 -9.51239e-05 0)
(0.0996861 -8.90911e-05 0)
(0.0997094 -8.33744e-05 0)
(0.0997316 -7.79593e-05 0)
(0.0997529 -7.28322e-05 0)
(0.0997731 -6.79796e-05 0)
(0.0997923 -6.33891e-05 0)
(0.0998107 -5.90493e-05 0)
(0.0998281 -5.49493e-05 0)
(0.0998446 -5.10787e-05 0)
(0.0998603 -4.74269e-05 0)
(0.0998752 -4.39844e-05 0)
(0.0998892 -4.07421e-05 0)
(0.0999025 -3.7691e-05 0)
(0.099915 -3.48216e-05 0)
(0.0999268 -3.21262e-05 0)
(0.0999379 -2.95955e-05 0)
(0.0999484 -2.72235e-05 0)
(0.0999581 -2.50013e-05 0)
(0.0999673 -2.29223e-05 0)
(0.0999759 -2.09803e-05 0)
(0.0999839 -1.91668e-05 0)
(0.0999914 -1.7481e-05 0)
(0.0999983 -1.59109e-05 0)
(0.100005 -1.44595e-05 0)
(0.100011 -1.31105e-05 0)
(0.100016 -1.18723e-05 0)
(0.100021 -1.07227e-05 0)
(0.100026 -9.67453e-06 0)
(0.10003 -8.70429e-06 0)
(0.100034 -7.8262e-06 0)
(0.100038 -7.02091e-06 0)
(0.100041 -6.29787e-06 0)
(0.100044 -5.64486e-06 0)
(0.100047 -5.0668e-06 0)
(0.10005 -4.54858e-06 0)
(0.100052 -4.10582e-06 0)
(0.100054 -3.71677e-06 0)
(0.100056 -3.39866e-06 0)
(0.100058 -3.13319e-06 0)
(0.10006 -2.9318e-06 0)
(0.100062 -2.78564e-06 0)
(0.100064 -2.70381e-06 0)
(0.100065 -2.67872e-06 0)
(0.100067 -2.71877e-06 0)
(0.100069 -2.82233e-06 0)
(0.100071 -2.99278e-06 0)
(0.100073 -3.2443e-06 0)
(0.100075 -3.56858e-06 0)
(0.100078 -3.99296e-06 0)
(0.100081 -4.50557e-06 0)
(0.100085 -5.13266e-06 0)
(0.100089 -5.88068e-06 0)
(0.100094 -6.7574e-06 0)
(0.100099 -7.79269e-06 0)
(0.100106 -8.98615e-06 0)
(0.100114 -1.03372e-05 0)
(0.100122 -1.19625e-05 0)
(0.100139 -1.34241e-05 0)
(0.100132 -1.607e-05 0)
(0.1002 -1.60309e-05 0)
(0.100084 -2.24863e-05 0)
(0.100387 -1.5852e-05 0)
(0.0998992 -3.08947e-05 0)
(0.100653 -1.17162e-05 0)
(0.0999053 -5.13972e-05 0)
(0.100393 -7.3334e-05 0)
(0.0995547 -0.000135709 0)
(0.0995834 -0.000127484 0)
(0.099611 -0.000119675 0)
(0.0996374 -0.000112265 0)
(0.0996627 -0.000105235 0)
(0.0996869 -9.85699e-05 0)
(0.0997101 -9.2253e-05 0)
(0.0997322 -8.62685e-05 0)
(0.0997533 -8.06015e-05 0)
(0.0997734 -7.52372e-05 0)
(0.0997925 -7.01622e-05 0)
(0.0998107 -6.5364e-05 0)
(0.099828 -6.08304e-05 0)
(0.0998445 -5.65499e-05 0)
(0.0998601 -5.25111e-05 0)
(0.0998748 -4.87033e-05 0)
(0.0998888 -4.51163e-05 0)
(0.099902 -4.17405e-05 0)
(0.0999145 -3.85654e-05 0)
(0.0999262 -3.55825e-05 0)
(0.0999373 -3.27818e-05 0)
(0.0999477 -3.01565e-05 0)
(0.0999574 -2.76971e-05 0)
(0.0999665 -2.5396e-05 0)
(0.0999751 -2.32465e-05 0)
(0.0999831 -2.12393e-05 0)
(0.0999905 -1.9373e-05 0)
(0.0999974 -1.7635e-05 0)
(0.100004 -1.60276e-05 0)
(0.10001 -1.4534e-05 0)
(0.100015 -1.31619e-05 0)
(0.10002 -1.18892e-05 0)
(0.100025 -1.07273e-05 0)
(0.100029 -9.65378e-06 0)
(0.100033 -8.68055e-06 0)
(0.100037 -7.78945e-06 0)
(0.10004 -6.98846e-06 0)
(0.100043 -6.26519e-06 0)
(0.100046 -5.62469e-06 0)
(0.100049 -5.05132e-06 0)
(0.100051 -4.56026e-06 0)
(0.100053 -4.12979e-06 0)
(0.100055 -3.77665e-06 0)
(0.100057 -3.48298e-06 0)
(0.100059 -3.25961e-06 0)
(0.100061 -3.09825e-06 0)
(0.100062 -3.00697e-06 0)
(0.100064 -2.97966e-06 0)
(0.100066 -3.02381e-06 0)
(0.100068 -3.13913e-06 0)
(0.10007 -3.32878e-06 0)
(0.100072 -3.60762e-06 0)
(0.100074 -3.96826e-06 0)
(0.100077 -4.43805e-06 0)
(0.10008 -5.00757e-06 0)
(0.100084 -5.70295e-06 0)
(0.100088 -6.53297e-06 0)
(0.100093 -7.50672e-06 0)
(0.100098 -8.65545e-06 0)
(0.100105 -9.98067e-06 0)
(0.100113 -1.1485e-05 0)
(0.100121 -1.32768e-05 0)
(0.100138 -1.49517e-05 0)
(0.100131 -1.77506e-05 0)
(0.100199 -1.80775e-05 0)
(0.100084 -2.44536e-05 0)
(0.100386 -1.85249e-05 0)
(0.0998987 -3.30683e-05 0)
(0.100651 -1.5209e-05 0)
(0.0999073 -5.14789e-05 0)
(0.100379 -7.04603e-05 0)
(0.0995561 -0.000148588 0)
(0.0995846 -0.000139597 0)
(0.0996119 -0.00013106 0)
(0.0996381 -0.000122957 0)
(0.0996632 -0.000115269 0)
(0.0996872 -0.000107978 0)
(0.0997102 -0.000101067 0)
(0.0997321 -9.45188e-05 0)
(0.099753 -8.8317e-05 0)
(0.099773 -8.2446e-05 0)
(0.099792 -7.68909e-05 0)
(0.0998101 -7.16382e-05 0)
(0.0998273 -6.66747e-05 0)
(0.0998436 -6.19879e-05 0)
(0.0998591 -5.7565e-05 0)
(0.0998738 -5.33947e-05 0)
(0.0998877 -4.94657e-05 0)
(0.0999008 -4.57675e-05 0)
(0.0999132 -4.22887e-05 0)
(0.0999249 -3.90203e-05 0)
(0.0999359 -3.59514e-05 0)
(0.0999462 -3.30745e-05 0)
(0.0999559 -3.03792e-05 0)
(0.0999649 -2.78574e-05 0)
(0.0999734 -2.55017e-05 0)
(0.0999814 -2.3302e-05 0)
(0.0999888 -2.12562e-05 0)
(0.0999956 -1.93512e-05 0)
(0.100002 -1.75886e-05 0)
(0.100008 -1.59514e-05 0)
(0.100013 -1.44459e-05 0)
(0.100018 -1.30508e-05 0)
(0.100023 -1.17757e-05 0)
(0.100027 -1.05995e-05 0)
(0.100031 -9.53153e-06 0)
(0.100035 -8.55508e-06 0)
(0.100038 -7.67647e-06 0)
(0.100041 -6.88336e-06 0)
(0.100044 -6.18067e-06 0)
(0.100047 -5.5525e-06 0)
(0.100049 -5.01327e-06 0)
(0.100051 -4.54167e-06 0)
(0.100053 -4.15361e-06 0)
(0.100055 -3.83191e-06 0)
(0.100057 -3.58666e-06 0)
(0.100059 -3.41018e-06 0)
(0.10006 -3.30951e-06 0)
(0.100062 -3.28005e-06 0)
(0.100064 -3.32837e-06 0)
(0.100066 -3.4555e-06 0)
(0.100068 -3.6644e-06 0)
(0.10007 -3.97047e-06 0)
(0.100072 -4.36753e-06 0)
(0.100075 -4.88261e-06 0)
(0.100078 -5.50902e-06 0)
(0.100081 -6.27264e-06 0)
(0.100086 -7.18458e-06 0)
(0.10009 -8.25542e-06 0)
(0.100096 -9.51758e-06 0)
(0.100103 -1.09748e-05 0)
(0.100111 -1.26326e-05 0)
(0.100118 -1.45921e-05 0)
(0.100135 -1.64794e-05 0)
(0.100129 -1.94381e-05 0)
(0.100197 -2.01196e-05 0)
(0.100082 -2.64467e-05 0)
(0.100384 -2.1181e-05 0)
(0.0998969 -3.5244e-05 0)
(0.100649 -1.87593e-05 0)
(0.0999057 -5.10791e-05 0)
(0.100372 -6.70705e-05 0)
(0.099558 -0.000161344 0)
(0.0995862 -0.000151598 0)
(0.0996133 -0.000142341 0)
(0.0996392 -0.000133554 0)
(0.0996641 -0.000125215 0)
(0.0996879 -0.000117307 0)
(0.0997106 -0.000109809 0)
(0.0997324 -0.000102703 0)
(0.0997531 -9.5972e-05 0)
(0.0997729 -8.95994e-05 0)
(0.0997918 -8.35691e-05 0)
(0.0998097 -7.78664e-05 0)
(0.0998268 -7.24771e-05 0)
(0.099843 -6.73875e-05 0)
(0.0998584 -6.2584e-05 0)
(0.0998729 -5.80543e-05 0)
(0.0998867 -5.3786e-05 0)
(0.0998998 -4.97681e-05 0)
(0.0999121 -4.5988e-05 0)
(0.0999237 -4.24364e-05 0)
(0.0999346 -3.91012e-05 0)
(0.0999448 -3.59744e-05 0)
(0.0999544 -3.30449e-05 0)
(0.0999635 -3.03039e-05 0)
(0.0999719 -2.77433e-05 0)
(0.0999798 -2.53524e-05 0)
(0.0999871 -2.31284e-05 0)
(0.099994 -2.10575e-05 0)
(0.1 -1.91407e-05 0)
(0.100006 -1.73606e-05 0)
(0.100012 -1.57226e-05 0)
(0.100017 -1.42059e-05 0)
(0.100021 -1.28182e-05 0)
(0.100026 -1.15399e-05 0)
(0.100029 -1.03778e-05 0)
(0.100033 -9.31648e-06 0)
(0.100036 -8.36064e-06 0)
(0.100039 -7.4982e-06 0)
(0.100042 -6.73361e-06 0)
(0.100045 -6.05099e-06 0)
(0.100047 -5.46381e-06 0)
(0.100049 -4.95138e-06 0)
(0.100051 -4.52857e-06 0)
(0.100053 -4.17904e-06 0)
(0.100055 -3.91201e-06 0)
(0.100057 -3.72053e-06 0)
(0.100058 -3.61054e-06 0)
(0.10006 -3.57902e-06 0)
(0.100062 -3.63157e-06 0)
(0.100064 -3.77052e-06 0)
(0.100065 -3.99872e-06 0)
(0.100068 -4.33188e-06 0)
(0.10007 -4.76536e-06 0)
(0.100073 -5.32558e-06 0)
(0.100076 -6.00883e-06 0)
(0.100079 -6.84057e-06 0)
(0.100083 -7.8343e-06 0)
(0.100088 -9.00219e-06 0)
(0.100094 -1.03777e-05 0)
(0.1001 -1.19671e-05 0)
(0.100109 -1.37783e-05 0)
(0.100116 -1.59065e-05 0)
(0.100133 -1.80058e-05 0)
(0.100127 -2.11291e-05 0)
(0.100194 -2.21599e-05 0)
(0.10008 -2.84537e-05 0)
(0.100381 -2.38375e-05 0)
(0.0998951 -3.74044e-05 0)
(0.100646 -2.22724e-05 0)
(0.0999024 -5.05687e-05 0)
(0.100369 -6.35854e-05 0)
(0.0995609 -0.000173964 0)
(0.0995888 -0.000163473 0)
(0.0996155 -0.000153508 0)
(0.0996412 -0.000144046 0)
(0.0996658 -0.000135066 0)
(0.0996894 -0.000126547 0)
(0.0997119 -0.00011847 0)
(0.0997334 -0.000110813 0)
(0.099754 -0.00010356 0)
(0.0997736 -9.66912e-05 0)
(0.0997923 -9.01909e-05 0)
(0.0998101 -8.40431e-05 0)
(0.099827 -7.82324e-05 0)
(0.0998431 -7.27442e-05 0)
(0.0998583 -6.75637e-05 0)
(0.0998728 -6.26779e-05 0)
(0.0998865 -5.80734e-05 0)
(0.0998994 -5.37386e-05 0)
(0.0999116 -4.966e-05 0)
(0.0999231 -4.58275e-05 0)
(0.0999339 -4.22284e-05 0)
(0.0999441 -3.88537e-05 0)
(0.0999537 -3.56918e-05 0)
(0.0999626 -3.27333e-05 0)
(0.099971 -2.99692e-05 0)
(0.0999788 -2.73887e-05 0)
(0.0999861 -2.49876e-05 0)
(0.0999929 -2.27521e-05 0)
(0.0999992 -2.06821e-05 0)
(0.100005 -1.87603e-05 0)
(0.10001 -1.69905e-05 0)
(0.100015 -1.53532e-05 0)
(0.10002 -1.38535e-05 0)
(0.100024 -1.24739e-05 0)
(0.100028 -1.12182e-05 0)
(0.100032 -1.00726e-05 0)
(0.100035 -9.04e-06 0)
(0.100038 -8.10875e-06 0)
(0.100041 -7.28262e-06 0)
(0.100043 -6.54596e-06 0)
(0.100046 -5.91108e-06 0)
(0.100048 -5.35815e-06 0)
(0.10005 -4.9008e-06 0)
(0.100052 -4.52367e-06 0)
(0.100053 -4.23498e-06 0)
(0.100055 -4.02863e-06 0)
(0.100057 -3.90943e-06 0)
(0.100058 -3.87593e-06 0)
(0.10006 -3.93277e-06 0)
(0.100062 -4.08352e-06 0)
(0.100064 -4.33104e-06 0)
(0.100066 -4.69116e-06 0)
(0.100068 -5.16104e-06 0)
(0.100071 -5.76623e-06 0)
(0.100074 -6.5062e-06 0)
(0.100078 -7.40591e-06 0)
(0.100082 -8.48123e-06 0)
(0.100086 -9.74609e-06 0)
(0.100092 -1.12347e-05 0)
(0.100099 -1.29564e-05 0)
(0.100107 -1.49212e-05 0)
(0.100114 -1.72188e-05 0)
(0.100131 -1.953e-05 0)
(0.100125 -2.28222e-05 0)
(0.100193 -2.41974e-05 0)
(0.100078 -3.04736e-05 0)
(0.100379 -2.64933e-05 0)
(0.0998936 -3.9557e-05 0)
(0.100644 -2.56921e-05 0)
(0.0998989 -5.01489e-05 0)
(0.10037 -6.02738e-05 0)
(0.0995647 -0.000186436 0)
(0.0995923 -0.000175214 0)
(0.0996188 -0.000164551 0)
(0.0996442 -0.000154425 0)
(0.0996685 -0.000144813 0)
(0.0996918 -0.000135693 0)
(0.0997141 -0.000127043 0)
(0.0997354 -0.000118843 0)
(0.0997557 -0.000111074 0)
(0.0997751 -0.000103716 0)
(0.0997936 -9.67512e-05 0)
(0.0998113 -9.01635e-05 0)
(0.099828 -8.39363e-05 0)
(0.0998439 -7.80537e-05 0)
(0.0998591 -7.25002e-05 0)
(0.0998734 -6.7262e-05 0)
(0.0998869 -6.23247e-05 0)
(0.0998997 -5.76762e-05 0)
(0.0999118 -5.33018e-05 0)
(0.0999233 -4.91912e-05 0)
(0.099934 -4.53304e-05 0)
(0.0999441 -4.17101e-05 0)
(0.0999536 -3.83178e-05 0)
(0.0999624 -3.51436e-05 0)
(0.0999707 -3.21778e-05 0)
(0.0999785 -2.94091e-05 0)
(0.0999857 -2.68324e-05 0)
(0.0999925 -2.44336e-05 0)
(0.0999987 -2.22116e-05 0)
(0.100004 -2.01491e-05 0)
(0.10001 -1.82486e-05 0)
(0.100015 -1.64916e-05 0)
(0.100019 -1.48808e-05 0)
(0.100024 -1.34005e-05 0)
(0.100027 -1.20519e-05 0)
(0.100031 -1.08226e-05 0)
(0.100034 -9.71384e-06 0)
(0.100037 -8.71434e-06 0)
(0.10004 -7.82706e-06 0)
(0.100042 -7.03679e-06 0)
(0.100045 -6.35451e-06 0)
(0.100047 -5.76142e-06 0)
(0.100049 -5.26979e-06 0)
(0.100051 -4.8653e-06 0)
(0.100052 -4.5551e-06 0)
(0.100054 -4.33403e-06 0)
(0.100056 -4.20574e-06 0)
(0.100057 -4.17034e-06 0)
(0.100059 -4.23154e-06 0)
(0.100061 -4.39404e-06 0)
(0.100063 -4.66091e-06 0)
(0.100065 -5.04783e-06 0)
(0.100067 -5.55407e-06 0)
(0.10007 -6.20404e-06 0)
(0.100073 -7.00061e-06 0)
(0.100076 -7.96812e-06 0)
(0.100081 -9.1248e-06 0)
(0.100085 -1.04865e-05 0)
(0.100091 -1.2088e-05 0)
(0.100097 -1.39421e-05 0)
(0.100106 -1.60603e-05 0)
(0.100113 -1.85283e-05 0)
(0.10013 -2.10509e-05 0)
(0.100124 -2.45168e-05 0)
(0.100191 -2.62313e-05 0)
(0.100077 -3.25074e-05 0)
(0.100378 -2.91453e-05 0)
(0.0998926 -4.17142e-05 0)
(0.100643 -2.89974e-05 0)
(0.0998959 -4.99131e-05 0)
(0.100372 -5.7271e-05 0)
(0.0995694 -0.000198751 0)
(0.0995966 -0.00018681 0)
(0.0996228 -0.000175461 0)
(0.0996478 -0.000164682 0)
(0.0996719 -0.000154448 0)
(0.0996949 -0.000144736 0)
(0.0997169 -0.000135523 0)
(0.099738 -0.000126787 0)
(0.0997581 -0.000118509 0)
(0.0997773 -0.000110668 0)
(0.0997956 -0.000103245 0)
(0.0998131 -9.62232e-05 0)
(0.0998296 -8.95845e-05 0)
(0.0998454 -8.33122e-05 0)
(0.0998604 -7.739e-05 0)
(0.0998746 -7.18033e-05 0)
(0.099888 -6.65369e-05 0)
(0.0999007 -6.1578e-05 0)
(0.0999127 -5.69111e-05 0)
(0.099924 -5.2525e-05 0)
(0.0999346 -4.84052e-05 0)
(0.0999446 -4.45415e-05 0)
(0.099954 -4.09211e-05 0)
(0.0999628 -3.75331e-05 0)
(0.099971 -3.43674e-05 0)
(0.0999787 -3.14122e-05 0)
(0.0999859 -2.86614e-05 0)
(0.0999925 -2.61007e-05 0)
(0.0999987 -2.37279e-05 0)
(0.100004 -2.15261e-05 0)
(0.10001 -1.94959e-05 0)
(0.100015 -1.76202e-05 0)
(0.100019 -1.58992e-05 0)
(0.100023 -1.43191e-05 0)
(0.100027 -1.28782e-05 0)
(0.100031 -1.1566e-05 0)
(0.100034 -1.03816e-05 0)
(0.100037 -9.31441e-06 0)
(0.10004 -8.36643e-06 0)
(0.100042 -7.523e-06 0)
(0.100044 -6.79365e-06 0)
(0.100046 -6.16079e-06 0)
(0.100048 -5.63514e-06 0)
(0.10005 -5.20356e-06 0)
(0.100052 -4.87203e-06 0)