/*--------------------------------*- C++ -*----------------------------------*\
| =========                 |                                                 |
| \\      /  F ield         | OpenFOAM: The Open Source CFD Toolbox           |
|  \\    /   O peration     | Version:  2412                                  |
|   \\  /    A nd           | Website:  www.openfoam.com                      |
|    \\/     M anipulation  |                                                 |
\*---------------------------------------------------------------------------*/
FoamFile
{
    version     2.0;
    format      ascii;
    arch        "LSB;label=32;scalar=64";
    class       surfaceScalarField;
    location    "6";
    object      phi;
}
// * * * * * * * * * * * * * * * * * * * * * * * * * * * * * * * * * * * * * //

dimensions      [0 3 -1 0 0 0 0];

oriented        oriented;

internalField   nonuniform List<scalar> 
10424
(
0.00531698
-0.00013255
-0.00531457
0.000130137
0.00531952
-0.000135273
0.000132737
0.00532218
-0.000138011
0.000135347
0.00532498
-0.000140759
0.000137965
0.0053279
-0.000143512
0.000140584
0.00533097
-0.000146266
0.000143201
0.00533417
-0.000149015
0.000145809
0.00533752
-0.000151753
0.000148403
0.00534102
-0.000154474
0.000150977
0.00534467
-0.000157172
0.000153522
0.00534848
-0.000159837
0.00015603
0.00535245
-0.000162461
0.000158492
0.00535658
-0.000165035
0.000160899
0.00536089
-0.000167547
0.000163239
0.00536537
-0.000169987
0.000165504
-0.000172345
0.000167681
0.00531432
-0.000134946
-0.00531192
0.00531684
-0.000137796
0.0053195
-0.000140665
0.00532229
-0.000143548
0.00532522
-0.000146441
0.00532829
-0.000149338
0.0053315
-0.000152233
0.00533487
-0.000155122
0.0053384
-0.000157999
0.00534208
-0.000160857
0.00534593
-0.000163687
0.00534996
-0.000166482
0.00535415
-0.000169232
0.00535853
-0.000171927
0.0053631
-0.000174554
-0.000177102
0.00531155
-0.000137319
-0.00530917
0.00531405
-0.000140299
0.00531669
-0.000143304
0.00531947
-0.000146327
0.00532239
-0.000149364
0.00532546
-0.000152409
0.00532869
-0.000155458
0.00533207
-0.000158506
0.00533562
-0.000161545
0.00533933
-0.000164571
0.00534322
-0.000167576
0.00534729
-0.000170552
0.00535154
-0.000173488
0.00535599
-0.000176375
0.00536064
-0.0001792
-0.000181951
0.00530864
-0.000139662
-0.0053063
0.00531112
-0.000142777
0.00531374
-0.000145921
0.0053165
-0.000149088
0.00531941
-0.000152275
0.00532248
-0.000155475
0.0053257
-0.000158684
0.00532909
-0.000161896
0.00533265
-0.000165107
0.00533639
-0.00016831
0.00534032
-0.000171499
0.00534443
-0.000174664
0.00534874
-0.000177797
0.00535325
-0.000180886
0.00535797
-0.000183921
-0.000186888
0.0053056
-0.000141969
-0.00530329
0.00530805
-0.000145221
0.00531064
-0.000148509
0.00531337
-0.000151826
0.00531627
-0.000155167
0.00531932
-0.000158528
0.00532254
-0.000161903
0.00532593
-0.000165288
0.0053295
-0.000168678
0.00533326
-0.000172067
0.00533721
-0.000175448
0.00534135
-0.000178813
0.00534571
-0.000182153
0.00535028
-0.000185457
0.00535507
-0.000188713
-0.000191907
0.00530241
-0.000144233
-0.00530015
0.00530482
-0.000147627
0.00530737
-0.000151062
0.00531008
-0.000154533
0.00531294
-0.000158034
0.00531598
-0.000161561
0.00531918
-0.000165109
0.00532257
-0.000168674
0.00532614
-0.000172251
0.00532991
-0.000175834
0.00533388
-0.000179417
0.00533806
-0.000182992
0.00534245
-0.00018655
0.00534708
-0.000190079
0.00535193
-0.000193569
-0.000197004
0.00529907
-0.000146448
-0.00529685
0.00530143
-0.000149987
0.00530394
-0.000153573
0.00530661
-0.000157201
0.00530944
-0.000160868
0.00531245
-0.000164567
0.00531563
-0.000168295
0.005319
-0.000172046
0.00532257
-0.000175818
0.00532634
-0.000179603
0.00533032
-0.000183398
0.00533452
-0.000187193
0.00533895
-0.000190979
0.00534362
-0.000194747
0.00534853
-0.000198483
-0.000202173
0.00529557
-0.000148607
-0.00529341
0.00529787
-0.000152293
0.00530033
-0.000156034
0.00530296
-0.000159825
0.00530575
-0.000163661
0.00530872
-0.000167538
0.00531188
-0.000171451
0.00531523
-0.000175397
0.00531878
-0.00017937
0.00532254
-0.000183368
0.00532653
-0.000187382
0.00533074
-0.000191408
0.0053352
-0.000195434
0.0053399
-0.000199451
0.00534487
-0.000203446
-0.000207406
0.00529191
-0.000150703
-0.00528981
0.00529415
-0.000154539
0.00529656
-0.000158437
0.00529913
-0.000162394
0.00530187
-0.000166405
0.0053048
-0.000170465
0.00530792
-0.00017457
0.00531124
-0.000178716
0.00531476
-0.000182899
0.00531851
-0.000187116
0.00532249
-0.000191361
0.00532671
-0.000195627
0.00533118
-0.000199904
0.00533591
-0.000204183
0.00534092
-0.000208451
-0.000212693
0.00528809
-0.000152726
-0.00528607
0.00529027
-0.000156715
0.00529261
-0.000160775
0.00529512
-0.000164902
0.0052978
-0.000169091
0.00530068
-0.000173338
0.00530375
-0.000177641
0.00530703
-0.000181994
0.00531052
-0.000186395
0.00531424
-0.00019084
0.00531821
-0.000195324
0.00532242
-0.00019984
0.00532689
-0.00020438
0.00533164
-0.000208933
0.00533668
-0.000213487
-0.000218027
0.00528412
-0.000154671
-0.00528218
0.00528622
-0.000158814
0.00528849
-0.000163038
0.00529092
-0.000167337
0.00529354
-0.000171709
0.00529635
-0.000176149
0.00529936
-0.000180654
0.00530259
-0.00018522
0.00530604
-0.000189846
0.00530973
-0.000194527
0.00531366
-0.000199259
0.00531786
-0.000204035
0.00532233
-0.000208849
0.00532708
-0.000213688
0.00533214
-0.000218542
-0.000223395
0.00528
-0.000156526
-0.00527814
0.00528201
-0.000160826
0.00528419
-0.000165216
0.00528654
-0.000169692
0.00528908
-0.00017425
0.00529182
-0.000178886
0.00529477
-0.000183598
0.00529793
-0.000188384
0.00530132
-0.00019324
0.00530496
-0.000198165
0.00530886
-0.000203153
0.00531302
-0.0002082
0.00531747
-0.000213298
0.00532222
-0.000218436
0.00532728
-0.000223604
-0.000228785
0.00527571
-0.000158285
-0.00527396
0.00527763
-0.000162743
0.00527972
-0.0001673
0.00528198
-0.000171954
0.00528443
-0.000176701
0.00528708
-0.000181538
0.00528994
-0.000186462
0.00529303
-0.000191472
0.00529636
-0.000196566
0.00529993
-0.000201741
0.00530377
-0.000206994
0.0053079
-0.000212321
0.00531231
-0.000217714
0.00531704
-0.000223164
0.00532209
-0.000228658
-0.000234183
0.00527127
-0.000159937
-0.00526962
0.00527308
-0.000164553
0.00527506
-0.00016928
0.00527722
-0.000174113
0.00527957
-0.000179052
0.00528213
-0.000184092
0.0052849
-0.000189232
0.0052879
-0.000194471
0.00529114
-0.000199808
0.00529464
-0.000205241
0.00529841
-0.000210767
0.00530247
-0.000216383
0.00530684
-0.000222081
0.00531153
-0.000227854
0.00531656
-0.000233689
-0.000239572
0.00526667
-0.000161471
-0.00526514
0.00526837
-0.000166246
0.00527023
-0.000171143
0.00527228
-0.000176158
0.00527451
-0.000181289
0.00527696
-0.000186536
0.00527962
-0.000191895
0.00528252
-0.000197368
0.00528566
-0.000202952
0.00528907
-0.000208649
0.00529276
-0.000214455
0.00529674
-0.000220368
0.00530104
-0.000226383
0.00530568
-0.00023249
0.00531067
-0.000238678
-0.000244936
0.00526192
-0.000162878
-0.00526051
0.00526348
-0.000167812
0.00526522
-0.000172878
0.00526713
-0.000178075
0.00526925
-0.000183401
0.00527157
-0.000188855
0.00527411
-0.000194436
0.00527688
-0.000200145
0.00527991
-0.000205983
0.00528321
-0.000211948
0.0052868
-0.000218042
0.00529069
-0.00022426
0.00529491
-0.0002306
0.00529947
-0.000237052
0.0053044
-0.000243608
-0.000250254
0.005257
-0.000164146
-0.00525573
0.00525843
-0.000169237
0.00526002
-0.000174473
0.0052618
-0.000179851
0.00526377
-0.000185372
0.00526595
-0.000191035
0.00526836
-0.00019684
0.005271
-0.000202789
0.0052739
-0.000208882
0.00527707
-0.000215122
0.00528054
-0.000221508
0.00528432
-0.000228039
0.00528843
-0.000234712
0.0052929
-0.000241521
0.00529775
-0.000248456
-0.000255504
0.00525193
-0.000165265
-0.00525081
0.0052532
-0.000170512
0.00525465
-0.000175915
0.00525627
-0.000181474
0.00525809
-0.000187189
0.00526011
-0.000193061
0.00526236
-0.000199091
0.00526485
-0.000205281
0.00526761
-0.000211633
0.00527063
-0.00021815
0.00527396
-0.000224833
0.0052776
-0.000231684
0.00528159
-0.000238699
0.00528594
-0.000245873
0.00529069
-0.000253198
-0.000260663
0.0052467
-0.000166223
-0.00524575
0.00524781
-0.000171622
0.00524909
-0.00017719
0.00525054
-0.000182929
0.00525219
-0.000188837
0.00525405
-0.000194917
0.00525613
-0.000201172
0.00525845
-0.000207603
0.00526103
-0.000214215
0.00526389
-0.000221012
0.00526706
-0.000227998
0.00527055
-0.000235172
0.00527438
-0.000242536
0.00527859
-0.000250084
0.00528321
-0.00025781
-0.000265704
0.00524132
-0.00524054
0.00524226
0.00524335
0.00524463
0.00524609
0.00524776
0.00524965
0.00525178
0.00525418
0.00525685
0.00525983
0.00526314
0.0052668
0.00527084
0.0052753
0.0052932
6.73439e-07
-9.79513e-07
0.00529076
-4.82405e-05
5.06797e-05
0.00528432
-0.000150314
0.000156756
0.00527548
-0.000242107
0.000250946
0.00526766
-0.000272531
0.000280351
0.00526293
-0.000245616
0.000250343
0.00526143
-0.000193394
0.000194899
0.00526219
-0.000143356
0.000142598
0.00526407
-0.000107547
0.000105664
0.00526625
-8.64452e-05
8.4261e-05
0.0052683
-7.59609e-05
7.39168e-05
0.00527004
-7.18095e-05
7.00717e-05
0.00527145
-7.09863e-05
6.95735e-05
0.00527258
-7.17612e-05
7.06314e-05
0.00527348
-7.32553e-05
7.23511e-05
0.00527422
-7.50583e-05
7.43261e-05
0.00527482
-7.69882e-05
7.63837e-05
0.00527533
-7.89663e-05
7.84547e-05
0.00527578
-8.0958e-05
8.05119e-05
0.00527618
-8.29468e-05
8.25448e-05
0.00527655
-8.4924e-05
8.45491e-05
0.00527692
-8.68842e-05
8.65227e-05
0.00527728
-8.88233e-05
8.84638e-05
0.00527764
-9.0738e-05
9.03711e-05
0.00527802
-9.26253e-05
9.22429e-05
0.00527843
-9.44822e-05
9.40775e-05
0.00527886
-9.63062e-05
9.58731e-05
0.00527933
-9.80943e-05
9.76275e-05
0.00527983
-9.98439e-05
9.93386e-05
0.00528038
-0.000101552
0.000101004
0.00528098
-0.000103217
0.000102622
0.00528162
-0.000104835
0.00010419
0.00528232
-0.000106404
0.000105706
0.00528307
-0.000107922
0.000107167
0.00528389
-0.000109385
0.000108572
0.00528476
-0.000110792
0.000109918
0.0052857
-0.00011214
0.000111202
0.0052867
-0.000113427
0.000112424
0.00528777
-0.000114651
0.000113582
0.00528891
-0.000115811
0.000114672
0.00529012
-0.000116903
0.000115695
0.0052914
-0.000117927
0.000116648
0.00529275
-0.00011888
0.00011753
0.00529417
-0.000119763
0.00011834
0.00529567
-0.000120572
0.000119077
0.00529723
-0.000121308
0.000119739
0.00529888
-0.000121969
0.000120327
0.00530059
-0.000122554
0.00012084
0.00530238
-0.000123064
0.000121277
0.00530424
-0.000123497
0.000121638
0.00530617
-0.000123853
0.000121924
0.00530816
-0.000124132
0.000122133
0.00531023
-0.000124334
0.000122266
0.00531237
-0.000124459
0.000122324
-0.000124506
0.000122306
0.00529318
3.87073e-07
0.00529093
-4.59933e-05
0.00528476
-0.000144142
0.00527618
-0.000233524
0.00526842
-0.000264772
0.00526355
-0.000240748
0.00526179
-0.000191633
0.00526226
-0.00014383
0.00526389
-0.000109178
0.00526588
-8.84289e-05
0.00526777
-7.78558e-05
0.0052694
-7.34379e-05
0.00527073
-7.23171e-05
0.0052718
-7.28265e-05
0.00527265
-7.41055e-05
0.00527333
-7.57421e-05
0.00527389
-7.75472e-05
0.00527436
-7.94338e-05
0.00527476
-8.13601e-05
0.00527512
-8.33045e-05
0.00527545
-8.52539e-05
0.00527576
-8.71998e-05
0.00527607
-8.91359e-05
0.00527639
-9.1057e-05
0.00527673
-9.29587e-05
0.00527708
-9.48372e-05
0.00527746
-9.66886e-05
0.00527788
-9.85097e-05
0.00527833
-0.000100297
0.00527883
-0.000102048
0.00527937
-0.000103758
0.00527996
-0.000105426
0.0052806
-0.000107048
0.00528131
-0.000108622
0.00528206
-0.000110144
0.00528289
-0.000111613
0.00528377
-0.000113024
0.00528472
-0.000114377
0.00528574
-0.000115669
0.00528682
-0.000116898
0.00528798
-0.000118061
0.00528921
-0.000119157
0.00529052
-0.000120183
0.00529189
-0.000121139
0.00529334
-0.000122023
0.00529487
-0.000122834
0.00529647
-0.00012357
0.00529814
-0.00012423
0.0052999
-0.000124814
0.00530172
-0.000125321
0.00530362
-0.000125751
0.00530559
-0.000126103
0.00530763
-0.000126376
0.00530974
-0.000126571
-0.000126687
0.00529316
1.16996e-07
0.00529113
-4.39593e-05
0.00528534
-0.000138348
0.00527711
-0.000225301
0.0052695
-0.000257154
0.00526451
-0.000235768
0.00526248
-0.000189597
0.00526263
-0.000143977
0.00526395
-0.000110505
0.00526569
-9.0167e-05
0.0052674
-7.95642e-05
0.00526889
-7.49282e-05
0.00527012
-7.35445e-05
0.0052711
-7.38114e-05
0.00527189
-7.48894e-05
0.00527251
-7.63684e-05
0.00527302
-7.80535e-05
0.00527344
-7.98511e-05
0.00527379
-8.17133e-05
0.0052741
-8.36135e-05
0.00527438
-8.55349e-05
0.00527465
-8.7466e-05
0.00527491
-8.93983e-05
0.00527518
-9.1325e-05
0.00527546
-9.32403e-05
0.00527576
-9.51392e-05
0.00527609
-9.70174e-05
0.00527645
-9.88706e-05
0.00527685
-0.000100695
0.00527729
-0.000102487
0.00527777
-0.000104244
0.00527831
-0.000105961
0.00527889
-0.000107636
0.00527954
-0.000109265
0.00528024
-0.000110846
0.005281
-0.000112376
0.00528183
-0.000113852
0.00528272
-0.000115271
0.00528368
-0.000116631
0.00528471
-0.000117929
0.00528582
-0.000119164
0.00528699
-0.000120332
0.00528824
-0.000121433
0.00528957
-0.000122464
0.00529097
-0.000123424
0.00529245
-0.000124311
0.005294
-0.000125124
0.00529563
-0.000125861
0.00529734
-0.000126522
0.00529913
-0.000127106
0.00530099
-0.000127612
0.00530292
-0.000128039
0.00530493
-0.000128387
0.00530702
-0.000128655
-0.000128843
0.00529315
-1.3418e-07
0.00529134
-4.21507e-05
0.00528597
-0.000132982
0.00527818
-0.00021751
0.00527076
-0.000249737
0.0052657
-0.00023071
0.0052634
-0.00018729
0.0052632
-0.00014378
0.0052642
-0.000111503
0.00526566
-9.16304e-05
0.00526716
-8.10602e-05
0.00526849
-7.62589e-05
0.0052696
-7.46513e-05
0.00527049
-7.47022e-05
0.00527119
-7.55965e-05
0.00527175
-7.69285e-05
0.0052722
-7.85002e-05
0.00527256
-8.02126e-05
0.00527286
-8.20127e-05
0.00527312
-8.38695e-05
0.00527335
-8.5763e-05
0.00527356
-8.76791e-05
0.00527377
-8.96071e-05
0.00527398
-9.15387e-05
0.00527421
-9.34667e-05
0.00527445
-9.53853e-05
0.00527473
-9.72893e-05
0.00527503
-9.91738e-05
0.00527537
-0.000101035
0.00527575
-0.000102867
0.00527617
-0.000104669
0.00527665
-0.000106435
0.00527717
-0.000108162
0.00527776
-0.000109847
0.0052784
-0.000111486
0.0052791
-0.000113077
0.00527986
-0.000114617
0.0052807
-0.000116103
0.0052816
-0.000117531
0.00528257
-0.0001189
0.00528361
-0.000120207
0.00528473
-0.000121449
0.00528592
-0.000122625
0.00528719
-0.000123733
0.00528853
-0.00012477
0.00528996
-0.000125735
0.00529146
-0.000126626
0.00529304
-0.000127443
0.0052947
-0.000128183
0.00529644
-0.000128845
0.00529826
-0.00012943
0.00530015
-0.000129935
0.00530213
-0.00013036
0.00530418
-0.000130705
-0.000130967
0.00529312
-3.64573e-07
0.00529153
-4.05584e-05
0.00528661
-0.000128056
0.00527928
-0.000210179
0.0052721
-0.000242564
0.005267
-0.00022561
0.00526445
-0.000184734
0.00526391
-0.000143243
0.00526457
-0.000112165
0.00526575
-9.28062e-05
0.00526702
-8.23288e-05
0.00526817
-7.74153e-05
0.00526915
-7.56244e-05
0.00526993
-7.54879e-05
0.00527055
-7.62175e-05
0.00527104
-7.74149e-05
0.00527142
-7.88808e-05
0.00527172
-8.05127e-05
0.00527196
-8.22534e-05
0.00527216
-8.40684e-05
0.00527233
-8.59347e-05
0.00527249
-8.78357e-05
0.00527264
-8.97591e-05
0.0052728
-9.16948e-05
0.00527296
-9.36349e-05
0.00527315
-9.55724e-05
0.00527336
-9.75013e-05
0.0052736
-9.94162e-05
0.00527388
-0.000101312
0.0052742
-0.000103185
0.00527456
-0.000105031
0.00527497
-0.000106845
0.00527543
-0.000108623
0.00527595
-0.000110363
0.00527653
-0.000112061
0.00527716
-0.000113713
0.00527786
-0.000115317
0.00527863
-0.000116869
0.00527946
-0.000118366
0.00528037
-0.000119806
0.00528135
-0.000121185
0.0052824
-0.000122503
0.00528353
-0.000123755
0.00528474
-0.00012494
0.00528602
-0.000126055
0.00528739
-0.0001271
0.00528883
-0.000128071
0.00529036
-0.000128968
0.00529196
-0.000129789
0.00529365
-0.000130533
0.00529542
-0.000131199
0.00529727
-0.000131785
0.0052992
-0.00013229
0.00530121
-0.000132713
-0.000133055
0.0052931
-5.7262e-07
0.0052917
-3.916e-05
0.0052872
-0.000123549
0.00528033
-0.000203308
0.00527342
-0.000235657
0.00526831
-0.000220503
0.00526554
-0.000181961
0.00526469
-0.00014239
0.00526502
-0.000112499
0.00526591
-9.36947e-05
0.00526694
-8.33644e-05
0.00526792
-7.83896e-05
0.00526875
-7.64554e-05
0.00526942
-7.61603e-05
0.00526995
-7.67451e-05
0.00527036
-7.7821e-05
0.00527066
-7.91897e-05
0.0052709
-8.07465e-05
0.00527108
-8.24311e-05
0.00527121
-8.42062e-05
0.00527133
-8.60461e-05
0.00527142
-8.79324e-05
0.00527151
-8.98509e-05
0.00527161
-9.17905e-05
0.00527172
-9.37419e-05
0.00527184
-9.56974e-05
0.00527199
-9.76503e-05
0.00527217
-9.95947e-05
0.00527238
-0.000101525
0.00527263
-0.000103437
0.00527293
-0.000105326
0.00527327
-0.000107187
0.00527367
-0.000109017
0.00527411
-0.000110811
0.00527462
-0.000112567
0.00527519
-0.00011428
0.00527582
-0.000115947
0.00527651
-0.000117565
0.00527728
-0.000119131
0.00527811
-0.000120642
0.00527902
-0.000122095
0.00528001
-0.000123487
0.00528107
-0.000124816
0.00528221
-0.000126079
0.00528343
-0.000127274
0.00528473
-0.0001284
0.00528611
-0.000129453
0.00528757
-0.000130433
0.00528912
-0.000131337
0.00529075
-0.000132164
0.00529246
-0.000132912
0.00529426
-0.000133582
0.00529614
-0.00013417
0.0052981
-0.000134676
-0.000135098
0.00529308
-7.57461e-07
0.00529184
-3.79252e-05
0.00528772
-0.00011942
0.00528128
-0.00019687
0.00527464
-0.000229023
0.00526956
-0.000215421
0.00526661
-0.00017901
0.00526547
-0.000141253
0.0052655
-0.000112529
0.00526611
-9.43065e-05
0.00526692
-8.41698e-05
0.00526771
-7.91792e-05
0.00526839
-7.71394e-05
0.00526895
-7.67137e-05
0.00526937
-7.71736e-05
0.0052697
-7.81415e-05
0.00526993
-7.94221e-05
0.00527009
-8.09096e-05
0.0052702
-8.25419e-05
0.00527027
-8.42792e-05
0.00527032
-8.6094e-05
0.00527036
-8.7966e-05
0.00527038
-8.98797e-05
0.00527042
-9.18226e-05
0.00527046
-9.37847e-05
0.00527052
-9.57574e-05
0.0052706
-9.77334e-05
0.00527071
-9.97064e-05
0.00527086
-0.00010167
0.00527104
-0.00010362
0.00527127
-0.000105551
0.00527154
-0.000107459
0.00527186
-0.000109339
0.00527224
-0.000111187
0.00527267
-0.000113
0.00527316
-0.000114773
0.00527372
-0.000116503
0.00527434
-0.000118187
0.00527503
-0.000119822
0.0052758
-0.000121404
0.00527663
-0.00012293
0.00527754
-0.000124398
0.00527853
-0.000125804
0.0052796
-0.000127146
0.00528074
-0.000128422
0.00528197
-0.00012963
0.00528329
-0.000130766
0.00528468
-0.00013183
0.00528617
-0.000132818
0.00528773
-0.000133731
0.00528939
-0.000134565
0.00529112
-0.00013532
0.00529295
-0.000135994
0.00529486
-0.000136585
-0.000137092
0.00529306
-9.19153e-07
0.00529195
-3.68221e-05
0.00528815
-0.000115618
0.00528211
-0.000190826
0.00527574
-0.000222655
0.00527071
-0.00021039
0.00526762
-0.000175921
0.00526623
-0.000139869
0.00526599
-0.000112282
0.00526634
-9.46589e-05
0.00526692
-8.47529e-05
0.00526753
-7.97863e-05
0.00526807
-7.76748e-05
0.0052685
-7.71449e-05
0.00526882
-7.74988e-05
0.00526905
-7.83722e-05
0.0052692
-7.95739e-05
0.00526929
-8.09983e-05
0.00526933
-8.25822e-05
0.00526934
-8.42843e-05
0.00526932
-8.60754e-05
0.00526929
-8.79337e-05
0.00526925
-8.98425e-05
0.00526922
-9.17885e-05
0.00526919
-9.37607e-05
0.00526918
-9.57498e-05
0.0052692
-9.7748e-05
0.00526924
-9.97484e-05
0.00526932
-0.000101745
0.00526943
-0.000103732
0.00526958
-0.000105704
0.00526978
-0.000107657
0.00527002
-0.000109586
0.00527032
-0.000111487
0.00527068
-0.000113356
0.0052711
-0.000115189
0.00527157
-0.000116982
0.00527212
-0.000118731
0.00527273
-0.000120434
0.00527341
-0.000122087
0.00527417
-0.000123687
0.005275
-0.00012523
0.00527591
-0.000126714
0.0052769
-0.000128136
0.00527797
-0.000129494
0.00527913
-0.000130784
0.00528037
-0.000132005
0.00528169
-0.000133154
0.0052831
-0.000134229
0.0052846
-0.000135229
0.00528618
-0.000136151
0.00528786
-0.000136994
0.00528962
-0.000137755
0.00529147
-0.000138435
-0.000139029
0.00529303
-1.05862e-06
0.00529203
-3.58207e-05
0.0052885
-0.00011209
0.00528281
-0.00018513
0.00527669
-0.00021654
0.00527173
-0.000205427
0.00526854
-0.00017273
0.00526695
-0.000138278
0.00526645
-0.000111789
0.00526657
-9.47728e-05
0.00526694
-8.51255e-05
0.00526737
-8.02158e-05
0.00526776
-7.80624e-05
0.00526807
-7.74522e-05
0.00526829
-7.77182e-05
0.00526842
-7.851e-05
0.00526849
-7.96418e-05
0.0052685
-8.10095e-05
0.00526847
-8.25492e-05
0.0052684
-8.42186e-05
0.00526832
-8.59874e-05
0.00526821
-8.78328e-05
0.00526811
-8.9737e-05
0.00526801
-9.16857e-05
0.00526791
-9.36673e-05
0.00526784
-9.5672e-05
0.00526778
-9.76914e-05
0.00526775
-9.97182e-05
0.00526775
-0.000101746
0.00526779
-0.000103769
0.00526786
-0.000105781
0.00526798
-0.000107778
0.00526815
-0.000109755
0.00526837
-0.000111708
0.00526865
-0.000113632
0.00526898
-0.000115523
0.00526938
-0.000117378
0.00526984
-0.000119193
0.00527037
-0.000120964
0.00527097
-0.000122687
0.00527164
-0.00012436
0.00527239
-0.000125979
0.00527322
-0.000127541
0.00527413
-0.000129043
0.00527512
-0.000130483
0.00527619
-0.000131857
0.00527735
-0.000133163
0.00527859
-0.000134399
0.00527993
-0.000135562
0.00528135
-0.000136651
0.00528286
-0.000137663
0.00528446
-0.000138596
0.00528616
-0.000139448
0.00528794
-0.000140218
-0.000140904
0.00529301
-1.17748e-06
0.00529209
-3.48955e-05
0.00528879
-0.000108789
0.00528339
-0.000179736
0.00527751
-0.000210659
0.00527263
-0.000200544
0.00526936
-0.000169467
0.0052676
-0.000136515
0.00526689
-0.000111081
0.00526679
-9.46698e-05
0.00526697
-8.5301e-05
0.00526722
-8.04747e-05
0.00526747
-7.83049e-05
0.00526765
-7.76357e-05
0.00526776
-7.78303e-05
0.00526781
-7.85528e-05
0.00526779
-7.96235e-05
0.00526772
-8.09405e-05
0.00526761
-8.24402e-05
0.00526747
-8.40797e-05
0.00526731
-8.58278e-05
0.00526714
-8.7661e-05
0.00526696
-8.95607e-05
0.00526679
-9.15119e-05
0.00526662
-9.35023e-05
0.00526647
-9.55216e-05
0.00526634
-9.75611e-05
0.00526624
-9.96131e-05
0.00526616
-0.000101671
0.00526612
-0.000103728
0.00526612
-0.000105779
0.00526616
-0.000107819
0.00526625
-0.000109843
0.00526639
-0.000111846
0.00526658
-0.000113824
0.00526683
-0.000115773
0.00526714
-0.000117689
0.00526752
-0.000119568
0.00526796
-0.000121406
0.00526847
-0.0001232
0.00526906
-0.000124945
0.00526972
-0.00012664
0.00527046
-0.00012828
0.00527127
-0.000129862
0.00527218
-0.000131384
0.00527316
-0.000132843
0.00527423
-0.000134235
0.00527539
-0.000135559
0.00527664
-0.000136812
0.00527798
-0.000137991
0.00527942
-0.000139094
0.00528094
-0.00014012
0.00528256
-0.000141065
0.00528427
-0.000141929
-0.000142708
0.00529299
-1.27776e-06
0.00529213
-3.40265e-05
0.00528901
-0.000105672
0.00528387
-0.0001746
0.0052782
-0.00020499
0.00527341
-0.000195746
0.0052701
-0.000166156
0.00526819
-0.00013461
0.0052673
-0.000110186
0.005267
-9.43711e-05
0.00526699
-8.52933e-05
0.00526709
-8.0571e-05
0.00526719
-7.84061e-05
0.00526725
-7.76964e-05
0.00526725
-7.78345e-05
0.0052672
-7.8499e-05
0.00526709
-7.95171e-05
0.00526694
-8.07893e-05
0.00526675
-8.22531e-05
0.00526654
-8.38653e-05
0.00526631
-8.55944e-05
0.00526606
-8.74162e-05
0.00526581
-8.93115e-05
0.00526557
-9.12648e-05
0.00526533
-9.32634e-05
0.0052651
-9.52965e-05
0.00526489
-9.7355e-05
0.00526471
-9.94309e-05
0.00526456
-0.000101517
0.00526444
-0.000103607
0.00526436
-0.000105696
0.00526431
-0.000107777
0.00526432
-0.000109846
0.00526437
-0.000111899
0.00526447
-0.00011393
0.00526464
-0.000115935
0.00526486
-0.000117911
0.00526514
-0.000119853
0.00526549
-0.000121757
0.00526591
-0.00012362
0.00526641
-0.000125438
0.00526697
-0.000127208
0.00526762
-0.000128925
0.00526835
-0.000130588
0.00526915
-0.000132193
0.00527005
-0.000133736
0.00527103
-0.000135216
0.0052721
-0.000136628
0.00527326
-0.000137971
0.00527451
-0.000139242
0.00527585
-0.000140439
0.00527729
-0.000141558
0.00527882
-0.000142599
0.00528045
-0.000143559
-0.000144434
0.00529298
-1.36165e-06
0.00529215
-3.31988e-05
0.00528918
-0.000102706
0.00528427
-0.000169687
0.00527879
-0.000199511
0.00527408
-0.000191036
0.00527074
-0.000162816
0.00526872
-0.000132588
0.00526766
-0.000109127
0.00526719
-9.38962e-05
0.00526701
-8.51158e-05
0.00526695
-8.05129e-05
0.00526692
-7.83703e-05
0.00526686
-7.76362e-05
0.00526675
-7.77311e-05
0.0052666
-7.83481e-05
0.00526641
-7.93213e-05
0.00526617
-8.05544e-05
0.0052659
-8.19862e-05
0.00526561
-8.35737e-05
0.0052653
-8.52854e-05
0.00526498
-8.70965e-05
0.00526466
-8.89876e-05
0.00526434
-9.09427e-05
0.00526402
-9.29487e-05
0.00526372
-9.49946e-05
0.00526344
-9.70708e-05
0.00526318
-9.91693e-05
0.00526294
-0.000101283
0.00526274
-0.000103404
0.00526257
-0.000105528
0.00526244
-0.000107649
0.00526236
-0.000109762
0.00526232
-0.000111862
0.00526234
-0.000113944
0.00526241
-0.000116005
0.00526254
-0.000118039
0.00526273
-0.000120043
0.00526298
-0.000122012
0.0052633
-0.000123944
0.0052637
-0.000125833
0.00526417
-0.000127677
0.00526472
-0.000129473
0.00526534
-0.000131215
0.00526605
-0.000132903
0.00526685
-0.000134531
0.00526773
-0.000136098
0.0052687
-0.000137599
0.00526976
-0.000139034
0.00527092
-0.000140398
0.00527217
-0.000141689
0.00527352
-0.000142905
0.00527496
-0.000144043
0.0052765
-0.0001451
-0.000146075
0.00529296
-1.4313e-06
0.00529217
-3.24019e-05
0.00528933
-9.98641e-05
0.0052846
-0.000164964
0.00527929
-0.000194204
0.00527467
-0.00018641
0.00527131
-0.000159459
0.00526919
-0.00013047
0.00526799
-0.000107927
0.00526736
-9.3262e-05
0.00526702
-8.4781e-05
0.00526682
-8.03087e-05
0.00526665
-7.82025e-05
0.00526647
-7.74575e-05
0.00526626
-7.75208e-05
0.00526602
-7.80997e-05
0.00526573
-7.90352e-05
0.00526541
-8.02346e-05
0.00526506
-8.1638e-05
0.00526469
-8.32034e-05
0.0052643
-8.48991e-05
0.00526391
-8.67003e-05
0.00526351
-8.85872e-05
0.00526311
-9.05437e-05
0.00526272
-9.25563e-05
0.00526234
-9.46139e-05
0.00526197
-9.67066e-05
0.00526163
-9.8826e-05
0.00526131
-0.000100965
0.00526102
-0.000103116
0.00526077
-0.000105274
0.00526055
-0.000107433
0.00526038
-0.000109588
0.00526025
-0.000111734
0.00526017
-0.000113866
0.00526014
-0.000115979
0.00526018
-0.00011807
0.00526027
-0.000120134
0.00526042
-0.000122168
0.00526065
-0.000124166
0.00526094
-0.000126126
0.00526131
-0.000128044
0.00526175
-0.000129916
0.00526227
-0.000131738
0.00526288
-0.000133508
0.00526357
-0.000135221
0.00526435
-0.000136875
0.00526521
-0.000138467
0.00526617
-0.000139993
0.00526722
-0.000141451
0.00526837
-0.000142838
0.00526962
-0.000144151
0.00527096
-0.000145388
0.00527241
-0.000146545
-0.000147621
0.00529295
-1.48865e-06
0.00529218
-3.16283e-05
0.00528944
-9.71266e-05
0.00528488
-0.000160406
0.00527973
-0.000189049
0.00527518
-0.000181865
0.00527182
-0.000156094
0.00526962
-0.00012827
0.00526829
-0.0001066
0.00526751
-9.24834e-05
0.00526703
-8.43004e-05
0.00526669
-7.99663e-05
0.00526639
-7.79076e-05
0.0052661
-7.71631e-05
0.00526578
-7.72051e-05
0.00526544
-7.77541e-05
0.00526506
-7.86584e-05
0.00526465
-7.98289e-05
0.00526422
-8.12076e-05
0.00526377
-8.27531e-05
0.00526331
-8.44341e-05
0.00526283
-8.6226e-05
0.00526236
-8.81087e-05
0.00526188
-9.00661e-05
0.00526141
-9.20845e-05
0.00526095
-9.41525e-05
0.0052605
-9.62602e-05
0.00526007
-9.83991e-05
0.00525967
-0.000100562
0.00525929
-0.000102741
0.00525895
-0.000104931
0.00525864
-0.000107126
0.00525838
-0.000109321
0.00525815
-0.00011151
0.00525798
-0.00011369
0.00525785
-0.000115855
0.00525778
-0.000118001
0.00525777
-0.000120124
0.00525782
-0.000122219
0.00525794
-0.000124284
0.00525813
-0.000126313
0.00525839
-0.000128303
0.00525872
-0.00013025
0.00525913
-0.000132151
0.00525963
-0.000134003
0.00526021
-0.0001358
0.00526087
-0.000137542
0.00526163
-0.000139223
0.00526248
-0.000140841
0.00526342
-0.000142394
0.00526446
-0.000143877
0.0052656
-0.000145289
0.00526684
-0.000146626
0.00526818
-0.000147886
-0.000149064
0.00529294
-1.53537e-06
0.00529219
-3.08731e-05
0.00528954
-9.44775e-05
0.00528512
-0.000155991
0.0052801
-0.00018403
0.00527563
-0.000177394
0.00527226
-0.000152725
0.00526999
-0.000126001
0.00526855
-0.000105162
0.00526764
-9.15732e-05
0.00526703
-8.36841e-05
0.00526655
-7.9493e-05
0.00526614
-7.74904e-05
0.00526573
-7.67559e-05
0.00526531
-7.67852e-05
0.00526487
-7.73118e-05
0.0052644
-7.81909e-05
0.00526391
-7.9337e-05
0.00526339
-8.0694e-05
0.00526286
-8.22218e-05
0.00526232
-8.38894e-05
0.00526177
-8.56723e-05
0.00526121
-8.75508e-05
0.00526065
-8.95085e-05
0.0052601
-9.15317e-05
0.00525955
-9.36089e-05
0.00525902
-9.573e-05
0.00525851
-9.78866e-05
0.00525802
-0.000100071
0.00525756
-0.000102276
0.00525712
-0.000104496
0.00525672
-0.000106725
0.00525636
-0.000108957
0.00525603
-0.000111189
0.00525576
-0.000113414
0.00525553
-0.000115628
0.00525536
-0.000117827
0.00525524
-0.000120007
0.00525518
-0.000122163
0.00525519
-0.000124291
0.00525527
-0.000126388
0.00525541
-0.000128449
0.00525563
-0.00013047
0.00525593
-0.000132449
0.00525631
-0.000134381
0.00525677
-0.000136263
0.00525732
-0.00013809
0.00525796
-0.000139861
0.00525869
-0.000141572
0.00525951
-0.000143219
0.00526044
-0.0001448
0.00526146
-0.000146311
0.00526258
-0.00014775
0.00526381
-0.000149112
-0.000150396
0.00529293
-1.57284e-06
0.00529219
-3.01325e-05
0.00528962
-9.19048e-05
0.00528533
-0.000151703
0.00528043
-0.000179132
0.00527603
-0.000172992
0.00527266
-0.000149355
0.00527033
-0.00012367
0.00526879
-0.000103622
0.00526776
-9.0542e-05
0.00526702
-8.2941e-05
0.00526642
-7.88955e-05
0.00526588
-7.69556e-05
0.00526537
-7.6239e-05
0.00526484
-7.62631e-05
0.00526431
-7.67737e-05
0.00526375
-7.76328e-05
0.00526317
-7.87584e-05
0.00526257
-8.00968e-05
0.00526196
-8.16086e-05
0.00526133
-8.32639e-05
0.0052607
-8.50383e-05
0.00526006
-8.69123e-05
0.00525942
-8.88696e-05
0.00525879
-9.08965e-05
0.00525816
-9.29814e-05
0.00525754
-9.51143e-05
0.00525694
-9.72866e-05
0.00525636
-9.94907e-05
0.00525581
-0.00010172
0.00525528
-0.000103967
0.00525478
-0.000106228
0.00525432
-0.000108496
0.0052539
-0.000110766
0.00525352
-0.000113034
0.00525318
-0.000115295
0.0052529
-0.000117545
0.00525268
-0.000119779
0.00525251
-0.000121994
0.0052524
-0.000124184
0.00525236
-0.000126346
0.00525239
-0.000128476
0.00525249
-0.000130571
0.00525266
-0.000132626
0.00525292
-0.000134637
0.00525326
-0.000136601
0.00525368
-0.000138515
0.0052542
-0.000140375
0.0052548
-0.000142178
0.0052555
-0.00014392
0.0052563
-0.000145598
0.0052572
-0.000147209
0.0052582
-0.000148749
0.0052593
-0.000150216
-0.000151606
0.00529292
-1.60218e-06
0.00529219
-2.94041e-05
0.00528969