/*--------------------------------*- C++ -*----------------------------------*\
| =========                 |                                                 |
| \\      /  F ield         | OpenFOAM: The Open Source CFD Toolbox           |
|  \\    /   O peration     | Version:  2412                                  |
|   \\  /    A nd           | Website:  www.openfoam.com                      |
|    \\/     M anipulation  |                                                 |
\*---------------------------------------------------------------------------*/
FoamFile
{
    version     2.0;
    format      ascii;
    arch        "LSB;label=32;scalar=64";
    class       volVectorField;
    location    "22";
    object      vorticity;
}
// * * * * * * * * * * * * * * * * * * * * * * * * * * * * * * * * * * * * * //

dimensions      [0 0 -1 0 0 0 0];

internalField   nonuniform List<vector> 
5285
(
(0 -0 5.93367e-07)
(0 -0 3.71061e-07)
(0 -0 2.61387e-07)
(0 -0 2.17811e-07)
(0 -0 2.09498e-07)
(0 -0 2.17425e-07)
(0 -0 2.31288e-07)
(0 -0 2.45928e-07)
(0 -0 2.59046e-07)
(0 -0 2.69775e-07)
(0 -0 2.77945e-07)
(0 -0 2.83694e-07)
(0 -0 2.8723e-07)
(0 -0 2.88718e-07)
(0 -0 2.88246e-07)
(0 -0 2.85833e-07)
(0 -0 2.81514e-07)
(0 -0 2.75427e-07)
(0 -0 2.67869e-07)
(0 -0 2.5928e-07)
(0 -0 2.50138e-07)
(0 -0 2.40759e-07)
(0 -0 2.31163e-07)
(0 -0 2.2111e-07)
(0 -0 2.10316e-07)
(0 -0 1.98742e-07)
(0 -0 1.86824e-07)
(0 -0 1.75396e-07)
(0 -0 1.65271e-07)
(0 -0 1.56627e-07)
(0 -0 1.48757e-07)
(0 -0 1.40414e-07)
(0 -0 1.30421e-07)
(0 -0 1.18402e-07)
(0 -0 1.04983e-07)
(0 -0 9.14278e-08)
(0 -0 7.89186e-08)
(0 -0 6.8133e-08)
(0 -0 5.90771e-08)
(0 -0 5.10437e-08)
(0 -0 4.31175e-08)
(0 -0 3.44843e-08)
(0 -0 2.49794e-08)
(0 -0 1.5088e-08)
(0 -0 5.69649e-09)
(0 -0 -2.61833e-09)
(0 -0 -1.02918e-08)
(0 -0 -1.75829e-08)
(0 -0 -2.57711e-08)
(0 -0 -3.41363e-08)
(0 -0 -4.39449e-08)
(0 -0 -5.32641e-08)
(0 -0 -6.37997e-08)
(0 -0 -7.13384e-08)
(0 -0 -8.12581e-08)
(0 -0 -8.82523e-08)
(0 -0 -1.00768e-07)
(0 -0 -1.07442e-07)
(0 -0 -1.22178e-07)
(0 -0 -1.29483e-07)
(0 -0 -1.45599e-07)
(0 -0 -1.54206e-07)
(0 -0 -1.66437e-07)
(0 -0 -2.15002e-07)
(0 -0 -9.07896e-08)
(0 -0 -5.48472e-07)
(0 -0 4.58787e-07)
(0 -0 -1.31517e-06)
(0 -0 4.17611e-07)
(0 -0 -1.94856e-08)
(0 -0 -7.96018e-07)
(0 -0 1.59365e-06)
(0 -0 9.56698e-07)
(0 -0 6.47284e-07)
(0 -0 5.34628e-07)
(0 -0 5.23387e-07)
(0 -0 5.58649e-07)
(0 -0 6.10096e-07)
(0 -0 6.62356e-07)
(0 -0 7.08391e-07)
(0 -0 7.45574e-07)
(0 -0 7.73477e-07)
(0 -0 7.9264e-07)
(0 -0 8.04019e-07)
(0 -0 8.0858e-07)
(0 -0 8.07083e-07)
(0 -0 8.00203e-07)
(0 -0 7.8851e-07)
(0 -0 7.72596e-07)
(0 -0 7.53201e-07)
(0 -0 7.3106e-07)
(0 -0 7.06945e-07)
(0 -0 6.81388e-07)
(0 -0 6.54555e-07)
(0 -0 6.26428e-07)
(0 -0 5.96873e-07)
(0 -0 5.66033e-07)
(0 -0 5.3449e-07)
(0 -0 5.03183e-07)
(0 -0 4.7299e-07)
(0 -0 4.44197e-07)
(0 -0 4.16206e-07)
(0 -0 3.8789e-07)
(0 -0 3.58215e-07)
(0 -0 3.2674e-07)
(0 -0 2.94049e-07)
(0 -0 2.61281e-07)
(0 -0 2.29617e-07)
(0 -0 1.99805e-07)
(0 -0 1.71995e-07)
(0 -0 1.45531e-07)
(0 -0 1.1948e-07)
(0 -0 9.30795e-08)
(0 -0 6.60833e-08)
(0 -0 3.89476e-08)
(0 -0 1.22768e-08)
(0 -0 -1.32482e-08)
(0 -0 -3.84099e-08)
(0 -0 -6.26373e-08)
(0 -0 -8.81687e-08)
(0 -0 -1.1272e-07)
(0 -0 -1.40069e-07)
(0 -0 -1.6475e-07)
(0 -0 -1.93683e-07)
(0 -0 -2.15714e-07)
(0 -0 -2.46243e-07)
(0 -0 -2.67221e-07)
(0 -0 -3.04279e-07)
(0 -0 -3.24751e-07)
(0 -0 -3.68913e-07)
(0 -0 -3.89926e-07)
(0 -0 -4.40423e-07)
(0 -0 -4.6804e-07)
(0 -0 -5.03558e-07)
(0 -0 -6.49332e-07)
(0 -0 -2.84669e-07)
(0 -0 -1.64041e-06)
(0 -0 1.35355e-06)
(0 -0 -3.90948e-06)
(0 -0 1.23277e-06)
(0 -0 -6.9527e-08)
(0 -0 -2.36885e-06)
(0 -0 2.55754e-06)
(0 -0 1.51749e-06)
(0 -0 1.02393e-06)
(0 -0 8.47375e-07)
(0 -0 8.3527e-07)
(0 -0 8.98272e-07)
(0 -0 9.87042e-07)
(0 -0 1.07642e-06)
(0 -0 1.15486e-06)
(0 -0 1.21814e-06)
(0 -0 1.26557e-06)
(0 -0 1.29807e-06)
(0 -0 1.31739e-06)
(0 -0 1.32523e-06)
(0 -0 1.323e-06)
(0 -0 1.31209e-06)
(0 -0 1.29351e-06)
(0 -0 1.26833e-06)
(0 -0 1.23777e-06)
(0 -0 1.20273e-06)
(0 -0 1.16438e-06)
(0 -0 1.1234e-06)
(0 -0 1.08007e-06)
(0 -0 1.03471e-06)
(0 -0 9.87186e-07)
(0 -0 9.37928e-07)
(0 -0 8.87626e-07)
(0 -0 8.37265e-07)
(0 -0 7.87854e-07)
(0 -0 7.39776e-07)
(0 -0 6.92462e-07)
(0 -0 6.45018e-07)
(0 -0 5.96542e-07)
(0 -0 5.46365e-07)
(0 -0 4.95307e-07)
(0 -0 4.44098e-07)
(0 -0 3.94138e-07)
(0 -0 3.46085e-07)
(0 -0 3.00277e-07)
(0 -0 2.56182e-07)
(0 -0 2.12736e-07)
(0 -0 1.69306e-07)
(0 -0 1.25582e-07)
(0 -0 8.18998e-08)
(0 -0 3.86572e-08)
(0 -0 -3.2958e-09)
(0 -0 -4.5278e-08)
(0 -0 -8.56981e-08)
(0 -0 -1.27902e-07)
(0 -0 -1.67949e-07)
(0 -0 -2.12116e-07)
(0 -0 -2.51416e-07)
(0 -0 -2.98047e-07)
(0 -0 -3.33848e-07)
(0 -0 -3.84246e-07)
(0 -0 -4.185e-07)
(0 -0 -4.79227e-07)
(0 -0 -5.12705e-07)
(0 -0 -5.85245e-07)
(0 -0 -6.19218e-07)
(0 -0 -7.02784e-07)
(0 -0 -7.48427e-07)
(0 -0 -8.06443e-07)
(0 -0 -1.04477e-06)
(0 -0 -4.51758e-07)
(0 -0 -2.66146e-06)
(0 -0 2.21992e-06)
(0 -0 -6.35546e-06)
(0 -0 2.01492e-06)
(0 -0 -9.33526e-08)
(0 -0 -3.84587e-06)
(0 -0 3.43638e-06)
(0 -0 2.03848e-06)
(0 -0 1.37605e-06)
(0 -0 1.14394e-06)
(0 -0 1.13443e-06)
(0 -0 1.2261e-06)
(0 -0 1.3519e-06)
(0 -0 1.47774e-06)
(0 -0 1.58808e-06)
(0 -0 1.67714e-06)
(0 -0 1.744e-06)
(0 -0 1.79008e-06)
(0 -0 1.81774e-06)
(0 -0 1.82942e-06)
(0 -0 1.8273e-06)
(0 -0 1.81323e-06)
(0 -0 1.78882e-06)
(0 -0 1.7556e-06)
(0 -0 1.71505e-06)
(0 -0 1.66853e-06)
(0 -0 1.61734e-06)
(0 -0 1.56237e-06)
(0 -0 1.50417e-06)
(0 -0 1.44304e-06)
(0 -0 1.3792e-06)
(0 -0 1.31312e-06)
(0 -0 1.24563e-06)
(0 -0 1.17784e-06)
(0 -0 1.11079e-06)
(0 -0 1.0449e-06)
(0 -0 9.79858e-07)
(0 -0 9.14824e-07)
(0 -0 8.48924e-07)
(0 -0 7.8174e-07)
(0 -0 7.13649e-07)
(0 -0 6.45597e-07)
(0 -0 5.78693e-07)
(0 -0 5.13836e-07)
(0 -0 4.51429e-07)
(0 -0 3.90976e-07)
(0 -0 3.3151e-07)
(0 -0 2.72384e-07)
(0 -0 2.13146e-07)
(0 -0 1.54274e-07)
(0 -0 9.56878e-08)
(0 -0 3.83985e-08)
(0 -0 -1.9134e-08)
(0 -0 -7.4628e-08)
(0 -0 -1.32244e-07)
(0 -0 -1.86566e-07)
(0 -0 -2.4638e-07)
(0 -0 -2.99226e-07)
(0 -0 -3.62288e-07)
(0 -0 -4.10789e-07)
(0 -0 -4.79815e-07)
(0 -0 -5.26104e-07)
(0 -0 -6.09226e-07)
(0 -0 -6.54342e-07)
(0 -0 -7.53887e-07)
(0 -0 -7.99045e-07)
(0 -0 -9.1444e-07)
(0 -0 -9.75672e-07)
(0 -0 -1.0561e-06)
(0 -0 -1.37819e-06)
(0 -0 -5.77995e-07)
(0 -0 -3.56912e-06)
(0 -0 3.03779e-06)
(0 -0 -8.56324e-06)
(0 -0 2.74042e-06)
(0 -0 -7.65583e-08)
(0 -0 -5.17113e-06)
(0 -0 4.23959e-06)
(0 -0 2.52372e-06)
(0 -0 1.71505e-06)
(0 -0 1.43804e-06)
(0 -0 1.43482e-06)
(0 -0 1.55529e-06)
(0 -0 1.71678e-06)
(0 -0 1.87735e-06)
(0 -0 2.01793e-06)
(0 -0 2.13144e-06)
(0 -0 2.21681e-06)
(0 -0 2.27589e-06)
(0 -0 2.31168e-06)
(0 -0 2.32732e-06)
(0 -0 2.32562e-06)
(0 -0 2.309e-06)
(0 -0 2.27957e-06)
(0 -0 2.23926e-06)
(0 -0 2.18988e-06)
(0 -0 2.13312e-06)
(0 -0 2.07045e-06)
(0 -0 2.00295e-06)
(0 -0 1.93135e-06)
(0 -0 1.85608e-06)
(0 -0 1.77754e-06)
(0 -0 1.69632e-06)
(0 -0 1.61338e-06)
(0 -0 1.52989e-06)
(0 -0 1.44692e-06)
(0 -0 1.365e-06)
(0 -0 1.28395e-06)
(0 -0 1.20305e-06)
(0 -0 1.12153e-06)
(0 -0 1.03897e-06)
(0 -0 9.55637e-07)
(0 -0 8.72401e-07)
(0 -0 7.90298e-07)
(0 -0 7.10322e-07)
(0 -0 6.3295e-07)
(0 -0 5.57802e-07)
(0 -0 4.83906e-07)
(0 -0 4.10652e-07)
(0 -0 3.37492e-07)
(0 -0 2.6495e-07)
(0 -0 1.92545e-07)
(0 -0 1.2153e-07)
(0 -0 4.99624e-08)
(0 -0 -1.90404e-08)
(0 -0 -9.05666e-08)
(0 -0 -1.57686e-07)
(0 -0 -2.31598e-07)
(0 -0 -2.96472e-07)
(0 -0 -3.74411e-07)
(0 -0 -4.34128e-07)
(0 -0 -5.20111e-07)
(0 -0 -5.76939e-07)
(0 -0 -6.80516e-07)
(0 -0 -7.35624e-07)
(0 -0 -8.59913e-07)
(0 -0 -9.1455e-07)
(0 -0 -1.05909e-06)
(0 -0 -1.13365e-06)
(0 -0 -1.23495e-06)
(0 -0 -1.63057e-06)
(0 -0 -6.49436e-07)
(0 -0 -4.32682e-06)
(0 -0 3.7916e-06)
(0 -0 -1.04544e-05)
(0 -0 3.39176e-06)
(0 -0 -5.48659e-09)
(0 -0 -6.29286e-06)
(0 -0 4.94577e-06)
(0 -0 2.96245e-06)
(0 -0 2.0348e-06)
(0 -0 1.72533e-06)
(0 -0 1.73233e-06)
(0 -0 1.88135e-06)
(0 -0 2.07658e-06)
(0 -0 2.26951e-06)
(0 -0 2.43815e-06)
(0 -0 2.57435e-06)
(0 -0 2.67699e-06)
(0 -0 2.74832e-06)
(0 -0 2.79192e-06)
(0 -0 2.8116e-06)
(0 -0 2.81077e-06)
(0 -0 2.79235e-06)
(0 -0 2.7589e-06)
(0 -0 2.71272e-06)
(0 -0 2.65595e-06)
(0 -0 2.59053e-06)
(0 -0 2.51809e-06)
(0 -0 2.43991e-06)
(0 -0 2.35685e-06)
(0 -0 2.26946e-06)
(0 -0 2.17831e-06)
(0 -0 2.08412e-06)
(0 -0 1.98791e-06)
(0 -0 1.89091e-06)
(0 -0 1.79425e-06)
(0 -0 1.69853e-06)
(0 -0 1.60367e-06)
(0 -0 1.50911e-06)
(0 -0 1.41415e-06)
(0 -0 1.31838e-06)
(0 -0 1.22197e-06)
(0 -0 1.12569e-06)
(0 -0 1.03054e-06)
(0 -0 9.37542e-07)
(0 -0 8.47282e-07)
(0 -0 7.59476e-07)
(0 -0 6.73153e-07)
(0 -0 5.8774e-07)
(0 -0 5.0261e-07)
(0 -0 4.18293e-07)
(0 -0 3.33994e-07)
(0 -0 2.51154e-07)
(0 -0 1.67474e-07)
(0 -0 8.68323e-08)
(0 -0 3.28917e-09)
(0 -0 -7.48307e-08)
(0 -0 -1.60923e-07)
(0 -0 -2.36052e-07)
(0 -0 -3.26927e-07)
(0 -0 -3.96104e-07)
(0 -0 -4.97023e-07)
(0 -0 -5.62537e-07)
(0 -0 -6.84328e-07)
(0 -0 -7.47301e-07)
(0 -0 -8.93897e-07)
(0 -0 -9.55579e-07)
(0 -0 -1.12659e-06)
(0 -0 -1.21116e-06)
(0 -0 -1.33228e-06)
(0 -0 -1.78831e-06)
(0 -0 -6.58793e-07)
(0 -0 -4.90703e-06)
(0 -0 4.46415e-06)
(0 -0 -1.19673e-05)
(0 -0 3.94913e-06)
(0 -0 1.27836e-07)
(0 -0 -7.17362e-06)
(0 -0 5.54758e-06)
(0 -0 3.35987e-06)
(0 -0 2.3435e-06)
(0 -0 2.01496e-06)
(0 -0 2.03579e-06)
(0 -0 2.21229e-06)
(0 -0 2.43832e-06)
(0 -0 2.66024e-06)
(0 -0 2.85381e-06)
(0 -0 3.01012e-06)
(0 -0 3.12803e-06)
(0 -0 3.21017e-06)
(0 -0 3.26069e-06)
(0 -0 3.28398e-06)
(0 -0 3.28399e-06)
(0 -0 3.26413e-06)
(0 -0 3.22733e-06)
(0 -0 3.17625e-06)
(0 -0 3.11327e-06)
(0 -0 3.04056e-06)
(0 -0 2.95994e-06)
(0 -0 2.87279e-06)
(0 -0 2.7801e-06)
(0 -0 2.68258e-06)
(0 -0 2.58088e-06)
(0 -0 2.47584e-06)
(0 -0 2.36857e-06)
(0 -0 2.26031e-06)
(0 -0 2.15222e-06)
(0 -0 2.04498e-06)
(0 -0 1.93862e-06)
(0 -0 1.83268e-06)
(0 -0 1.72657e-06)
(0 -0 1.61986e-06)
(0 -0 1.51265e-06)
(0 -0 1.4056e-06)
(0 -0 1.29967e-06)
(0 -0 1.19592e-06)
(0 -0 1.095e-06)
(0 -0 9.96731e-07)
(0 -0 9.00148e-07)
(0 -0 8.04713e-07)
(0 -0 7.09725e-07)
(0 -0 6.15717e-07)
(0 -0 5.21625e-07)
(0 -0 4.29043e-07)
(0 -0 3.35377e-07)
(0 -0 2.45163e-07)
(0 -0 1.5171e-07)
(0 -0 6.45894e-08)
(0 -0 -3.15478e-08)
(0 -0 -1.14972e-07)
(0 -0 -2.16585e-07)
(0 -0 -2.93302e-07)
(0 -0 -4.068e-07)
(0 -0 -4.79017e-07)
(0 -0 -6.16326e-07)
(0 -0 -6.8499e-07)
(0 -0 -8.50809e-07)
(0 -0 -9.1716e-07)
(0 -0 -1.11108e-06)
(0 -0 -1.2025e-06)
(0 -0 -1.3415e-06)
(0 -0 -1.84386e-06)
(0 -0 -6.01683e-07)
(0 -0 -5.2917e-06)
(0 -0 5.0421e-06)
(0 -0 -1.30586e-05)
(0 -0 4.39762e-06)
(0 -0 3.28638e-07)
(0 -0 -7.78991e-06)
(0 -0 6.03061e-06)
(0 -0 3.70822e-06)
(0 -0 2.63879e-06)
(0 -0 2.30572e-06)
(0 -0 2.34521e-06)
(0 -0 2.54907e-06)
(0 -0 2.80361e-06)
(0 -0 3.0516e-06)
(0 -0 3.26729e-06)
(0 -0 3.44133e-06)
(0 -0 3.57265e-06)
(0 -0 3.66427e-06)
(0 -0 3.72087e-06)
(0 -0 3.74737e-06)
(0 -0 3.74824e-06)
(0 -0 3.72729e-06)
(0 -0 3.68782e-06)
(0 -0 3.63276e-06)
(0 -0 3.56476e-06)
(0 -0 3.48615e-06)
(0 -0 3.39889e-06)
(0 -0 3.3045e-06)
(0 -0 3.20405e-06)
(0 -0 3.09836e-06)
(0 -0 2.9882e-06)
(0 -0 2.87448e-06)
(0 -0 2.75835e-06)
(0 -0 2.6411e-06)
(0 -0 2.52388e-06)
(0 -0 2.40742e-06)
(0 -0 2.29186e-06)
(0 -0 2.17687e-06)
(0 -0 2.06191e-06)
(0 -0 1.94656e-06)
(0 -0 1.83086e-06)
(0 -0 1.71536e-06)
(0 -0 1.60096e-06)
(0 -0 1.48875e-06)
(0 -0 1.37944e-06)
(0 -0 1.27293e-06)
(0 -0 1.16828e-06)
(0 -0 1.06499e-06)
(0 -0 9.62288e-07)
(0 -0 8.60719e-07)
(0 -0 7.58963e-07)
(0 -0 6.58774e-07)
(0 -0 5.57255e-07)
(0 -0 4.59591e-07)
(0 -0 3.58327e-07)
(0 -0 2.64296e-07)
(0 -0 1.60218e-07)
(0 -0 7.05698e-08)
(0 -0 -3.96456e-08)
(0 -0 -1.21853e-07)
(0 -0 -2.45643e-07)
(0 -0 -3.22436e-07)
(0 -0 -4.72621e-07)
(0 -0 -5.44695e-07)
(0 -0 -7.2665e-07)
(0 -0 -7.95233e-07)
(0 -0 -1.00844e-06)
(0 -0 -1.10352e-06)
(0 -0 -1.25845e-06)
(0 -0 -1.79251e-06)
(0 -0 -4.75096e-07)
(0 -0 -5.4727e-06)
(0 -0 5.52231e-06)
(0 -0 -1.37109e-05)
(0 -0 4.72923e-06)
(0 -0 6.06222e-07)
(0 -0 -8.14071e-06)
(0 -0 6.38012e-06)
(0 -0 3.99214e-06)
(0 -0 2.90538e-06)
(0 -0 2.58246e-06)
(0 -0 2.64503e-06)
(0 -0 2.87573e-06)
(0 -0 3.1563e-06)
(0 -0 3.42742e-06)
(0 -0 3.66254e-06)
(0 -0 3.85213e-06)
(0 -0 3.9953e-06)
(0 -0 4.09543e-06)
(0 -0 4.15766e-06)
(0 -0 4.18739e-06)
(0 -0 4.18951e-06)
(0 -0 4.16823e-06)
(0 -0 4.12715e-06)
(0 -0 4.06946e-06)
(0 -0 3.99799e-06)
(0 -0 3.91523e-06)
(0 -0 3.82326e-06)
(0 -0 3.72367e-06)
(0 -0 3.61766e-06)
(0 -0 3.50611e-06)
(0 -0 3.38987e-06)
(0 -0 3.26994e-06)
(0 -0 3.14749e-06)
(0 -0 3.0238e-06)
(0 -0 2.90002e-06)
(0 -0 2.77693e-06)
(0 -0 2.65476e-06)
(0 -0 2.53329e-06)
(0 -0 2.41204e-06)
(0 -0 2.29061e-06)
(0 -0 2.16895e-06)
(0 -0 2.04754e-06)
(0 -0 1.92723e-06)
(0 -0 1.80907e-06)
(0 -0 1.69386e-06)
(0 -0 1.58154e-06)
(0 -0 1.47122e-06)
(0 -0 1.36244e-06)
(0 -0 1.25436e-06)
(0 -0 1.14754e-06)
(0 -0 1.04046e-06)
(0 -0 9.34957e-07)
(0 -0 8.27953e-07)
(0 -0 7.25084e-07)
(0 -0 6.18376e-07)
(0 -0 5.1959e-07)
(0 -0 4.09988e-07)
(0 -0 3.16197e-07)
(0 -0 1.99866e-07)
(0 -0 1.14198e-07)
(0 -0 -1.72251e-08)
(0 -0 -9.64484e-08)
(0 -0 -2.5654e-07)
(0 -0 -3.29604e-07)
(0 -0 -5.24394e-07)
(0 -0 -5.92463e-07)
(0 -0 -8.21228e-07)
(0 -0 -9.16349e-07)
(0 -0 -1.08515e-06)
(0 -0 -1.63551e-06)
(0 -0 -2.82168e-07)
(0 -0 -5.44426e-06)
(0 -0 5.88791e-06)
(0 -0 -1.38984e-05)
(0 -0 4.92464e-06)
(0 -0 9.55733e-07)
(0 -0 -8.2151e-06)
(0 -0 6.57917e-06)
(0 -0 4.19254e-06)
(0 -0 3.12261e-06)
(0 -0 2.82528e-06)
(0 -0 2.9153e-06)
(0 -0 3.17198e-06)
(0 -0 3.47563e-06)
(0 -0 3.76646e-06)
(0 -0 4.0179e-06)
(0 -0 4.22053e-06)
(0 -0 4.37372e-06)
(0 -0 4.48118e-06)
(0 -0 4.54847e-06)
(0 -0 4.58138e-06)
(0 -0 4.58519e-06)
(0 -0 4.56441e-06)
(0 -0 4.52288e-06)
(0 -0 4.46402e-06)
(0 -0 4.3908e-06)
(0 -0 4.30583e-06)
(0 -0 4.21126e-06)
(0 -0 4.10878e-06)
(0 -0 3.99962e-06)
(0 -0 3.88475e-06)
(0 -0 3.76508e-06)
(0 -0 3.64165e-06)
(0 -0 3.51565e-06)
(0 -0 3.38834e-06)
(0 -0 3.26084e-06)
(0 -0 3.13398e-06)
(0 -0 3.00805e-06)
(0 -0 2.88292e-06)
(0 -0 2.75819e-06)
(0 -0 2.63345e-06)
(0 -0 2.5086e-06)
(0 -0 2.38406e-06)
(0 -0 2.26058e-06)
(0 -0 2.13923e-06)
(0 -0 2.02082e-06)
(0 -0 1.90535e-06)
(0 -0 1.79198e-06)
(0 -0 1.68027e-06)
(0 -0 1.56937e-06)
(0 -0 1.4598e-06)
(0 -0 1.34991e-06)
(0 -0 1.24161e-06)
(0 -0 1.13167e-06)
(0 -0 1.02607e-06)
(0 -0 9.16443e-07)
(0 -0 8.15308e-07)
(0 -0 7.02708e-07)
(0 -0 6.07116e-07)
(0 -0 4.87254e-07)
(0 -0 4.00438e-07)
(0 -0 2.64157e-07)
(0 -0 1.84924e-07)
(0 -0 1.80603e-08)
(0 -0 -5.33342e-08)
(0 -0 -2.57405e-07)
(0 -0 -3.22008e-07)
(0 -0 -5.62281e-07)
(0 -0 -6.53566e-07)
(0 -0 -8.34018e-07)
(0 -0 -1.38413e-06)
(0 -0 -3.65896e-08)
(0 -0 -5.21193e-06)
(0 -0 6.11708e-06)
(0 -0 -1.36158e-05)
(0 -0 4.96506e-06)
(0 -0 1.36275e-06)
(0 -0 -8.00646e-06)
(0 -0 6.62982e-06)
(0 -0 4.301e-06)
(0 -0 3.2781e-06)
(0 -0 3.01994e-06)
(0 -0 3.14138e-06)
(0 -0 3.42327e-06)
(0 -0 3.74731e-06)
(0 -0 4.05476e-06)
(0 -0 4.31972e-06)
(0 -0 4.53321e-06)
(0 -0 4.69487e-06)
(0 -0 4.80874e-06)
(0 -0 4.88071e-06)
(0 -0 4.91693e-06)
(0 -0 4.92298e-06)
(0 -0 4.90361e-06)
(0 -0 4.86288e-06)
(0 -0 4.80434e-06)
(0 -0 4.73111e-06)
(0 -0 4.64586e-06)
(0 -0 4.5508e-06)
(0 -0 4.44766e-06)
(0 -0 4.33773e-06)
(0 -0 4.22202e-06)
(0 -0 4.1015e-06)
(0 -0 3.97721e-06)
(0 -0 3.85035e-06)
(0 -0 3.72213e-06)
(0 -0 3.59367e-06)
(0 -0 3.46578e-06)
(0 -0 3.33882e-06)
(0 -0 3.21275e-06)
(0 -0 3.08721e-06)
(0 -0 2.96181e-06)
(0 -0 2.83643e-06)
(0 -0 2.71139e-06)
(0 -0 2.58739e-06)
(0 -0 2.46547e-06)
(0 -0 2.34643e-06)
(0 -0 2.23035e-06)
(0 -0 2.11642e-06)
(0 -0 2.00423e-06)
(0 -0 1.8929e-06)
(0 -0 1.78297e-06)
(0 -0 1.67268e-06)
(0 -0 1.56396e-06)
(0 -0 1.45349e-06)
(0 -0 1.34754e-06)
(0 -0 1.23737e-06)
(0 -0 1.13618e-06)
(0 -0 1.02295e-06)
(0 -0 9.27802e-07)
(0 -0 8.06825e-07)
(0 -0 7.21082e-07)
(0 -0 5.82529e-07)
(0 -0 5.0563e-07)
(0 -0 3.34896e-07)
(0 -0 2.67761e-07)
(0 -0 5.76794e-08)
(0 -0 -5.67707e-10)
(0 -0 -2.48636e-07)
(0 -0 -3.32319e-07)
(0 -0 -5.22417e-07)
(0 -0 -1.05666e-06)
(0 -0 2.45928e-07)
(0 -0 -4.80065e-06)
(0 -0 6.2055e-06)
(0 -0 -1.29039e-05)
(0 -0 4.84639e-06)
(0 -0 1.81297e-06)
(0 -0 -7.54244e-06)
(0 -0 6.53249e-06)
(0 -0 4.31289e-06)
(0 -0 3.36336e-06)
(0 -0 3.1559e-06)
(0 -0 3.31198e-06)
(0 -0 3.6182e-06)
(0 -0 3.96015e-06)
(0 -0 4.28143e-06)
(0 -0 4.55742e-06)
(0 -0 4.77981e-06)
(0 -0 4.94859e-06)
(0 -0 5.06808e-06)
(0 -0 5.14445e-06)
(0 -0 5.18414e-06)
(0 -0 5.19297e-06)
(0 -0 5.1759e-06)
(0 -0 5.13712e-06)
(0 -0 5.08031e-06)
(0 -0 5.00867e-06)
(0 -0 4.92493e-06)
(0 -0 4.83131e-06)
(0 -0 4.72958e-06)
(0 -0 4.62104e-06)
(0 -0 4.50676e-06)
(0 -0 4.38772e-06)
(0 -0 4.26499e-06)
(0 -0 4.13971e-06)
(0 -0 4.01306e-06)
(0 -0 3.88613e-06)
(0 -0 3.75971e-06)
(0 -0 3.63423e-06)
(0 -0 3.50967e-06)
(0 -0 3.38577e-06)
(0 -0 3.26213e-06)
(0 -0 3.13861e-06)
(0 -0 3.01546e-06)
(0 -0 2.89334e-06)
(0 -0 2.77322e-06)
(0 -0 2.6559e-06)
(0 -0 2.5415e-06)
(0 -0 2.42926e-06)
(0 -0 2.31881e-06)
(0 -0 2.20925e-06)
(0 -0 2.10112e-06)
(0 -0 1.99259e-06)
(0 -0 1.88564e-06)
(0 -0 1.77683e-06)
(0 -0 1.67267e-06)
(0 -0 1.56411e-06)
(0 -0 1.46496e-06)
(0 -0 1.35325e-06)
(0 -0 1.26059e-06)
(0 -0 1.14066e-06)
(0 -0 1.05803e-06)
(0 -0 9.19533e-07)
(0 -0 8.47129e-07)
(0 -0 6.75129e-07)
(0 -0 6.14637e-07)
(0 -0 4.01486e-07)
(0 -0 3.52242e-07)
(0 -0 9.97349e-08)
(0 -0 2.70588e-08)
(0 -0 -1.70793e-07)
(0 -0 -6.75203e-07)
(0 -0 5.47463e-07)
(0 -0 -4.24277e-06)
(0 -0 6.15297e-06)
(0 -0 -1.18193e-05)
(0 -0 4.56916e-06)
(0 -0 2.29005e-06)
(0 -0 -6.86416e-06)
(0 -0 6.29272e-06)
(0 -0 4.22565e-06)
(0 -0 3.37131e-06)
(0 -0 3.22383e-06)
(0 -0 3.41695e-06)
(0 -0 3.74656e-06)
(0 -0 4.10421e-06)
(0 -0 4.43691e-06)
(0 -0 4.72181e-06)
(0 -0 4.95144e-06)
(0 -0 5.12622e-06)
(0 -0 5.25072e-06)
(0 -0 5.33132e-06)
(0 -0 5.3747e-06)
(0 -0 5.38684e-06)
(0 -0 5.37287e-06)
(0 -0 5.33711e-06)
(0 -0 5.2833e-06)
(0 -0 5.21469e-06)
(0 -0 5.13402e-06)
(0 -0 5.04356e-06)
(0 -0 4.94504e-06)
(0 -0 4.83982e-06)
(0 -0 4.72895e-06)
(0 -0 4.61345e-06)
(0 -0 4.49437e-06)
(0 -0 4.37282e-06)
(0 -0 4.24992e-06)
(0 -0 4.1267e-06)
(0 -0 4.00395e-06)
(0 -0 3.8821e-06)
(0 -0 3.76122e-06)
(0 -0 3.64106e-06)
(0 -0 3.52128e-06)
(0 -0 3.4017e-06)
(0 -0 3.28254e-06)
(0 -0 3.16436e-06)
(0 -0 3.04811e-06)
(0 -0 2.93456e-06)
(0 -0 2.82384e-06)
(0 -0 2.71525e-06)
(0 -0 2.60846e-06)
(0 -0 2.50257e-06)
(0 -0 2.39813e-06)
(0 -0 2.29325e-06)
(0 -0 2.18995e-06)
(0 -0 2.0847e-06)
(0 -0 1.98421e-06)
(0 -0 1.87913e-06)
(0 -0 1.78383e-06)
(0 -0 1.6755e-06)
(0 -0 1.58711e-06)
(0 -0 1.47011e-06)
(0 -0 1.39238e-06)
(0 -0 1.25593e-06)
(0 -0 1.18993e-06)
(0 -0 1.0189e-06)
(0 -0 9.67145e-07)
(0 -0 7.53461e-07)
(0 -0 7.15541e-07)
(0 -0 4.61499e-07)
(0 -0 4.02774e-07)
(0 -0 1.98883e-07)
(0 -0 -2.63794e-07)
(0 -0 8.49213e-07)
(0 -0 -3.57539e-06)
(0 -0 5.96322e-06)
(0 -0 -1.04304e-05)
(0 -0 4.13824e-06)
(0 -0 2.77679e-06)
(0 -0 -6.01944e-06)
(0 -0 5.92071e-06)
(0 -0 4.03962e-06)
(0 -0 3.29719e-06)
(0 -0 3.21653e-06)
(0 -0 3.44821e-06)
(0 -0 3.80023e-06)
(0 -0 4.17167e-06)
(0 -0 4.51378e-06)
(0 -0 4.80587e-06)
(0 -0 5.04146e-06)
(0 -0 5.2214e-06)
(0 -0 5.35046e-06)
(0 -0 5.43524e-06)
(0 -0 5.48255e-06)
(0 -0 5.49853e-06)
(0 -0 5.4884e-06)
(0 -0 5.4566e-06)
(0 -0 5.40688e-06)
(0 -0 5.34253e-06)
(0 -0 5.26629e-06)
(0 -0 5.18042e-06)
(0 -0 5.08666e-06)
(0 -0 4.98636e-06)
(0 -0 4.88058e-06)
(0 -0 4.77035e-06)
(0 -0 4.65668e-06)
(0 -0 4.54065e-06)
(0 -0 4.42331e-06)
(0 -0 4.30563e-06)
(0 -0 4.18837e-06)
(0 -0 4.07197e-06)
(0 -0 3.95655e-06)
(0 -0 3.84191e-06)
(0 -0 3.72772e-06)
(0 -0 3.61381e-06)
(0 -0 3.50034e-06)
(0 -0 3.38784e-06)
(0 -0 3.27717e-06)
(0 -0 3.16907e-06)
(0 -0 3.06369e-06)
(0 -0 2.96038e-06)
(0 -0 2.85884e-06)
(0 -0 2.75819e-06)
(0 -0 2.65899e-06)
(0 -0 2.55931e-06)
(0 -0 2.46123e-06)
(0 -0 2.36112e-06)
(0 -0 2.26584e-06)
(0 -0 2.16578e-06)
(0 -0 2.07585e-06)
(0 -0 1.97243e-06)
(0 -0 1.88978e-06)
(0 -0 1.77724e-06)
(0 -0 1.7059e-06)
(0 -0 1.57316e-06)
(0 -0 1.51513e-06)
(0 -0 1.34692e-06)
(0 -0 1.30565e-06)
(0 -0 1.09349e-06)
(0 -0 1.06885e-06)
(0 -0 8.15639e-07)
(0 -0 7.73296e-07)
(0 -0 5.64843e-07)
(0 -0 1.53475e-07)
(0 -0 1.13299e-06)
(0 -0 -2.83749e-06)
(0 -0 5.64378e-06)
(0 -0 -8.81166e-06)
(0 -0 3.5626e-06)
(0 -0 3.25643e-06)
(0 -0 -5.05893e-06)
(0 -0 5.43043e-06)
(0 -0 3.75848e-06)
(0 -0 3.13931e-06)
(0 -0 3.12986e-06)
(0 -0 3.40079e-06)
(0 -0 3.7742e-06)
(0 -0 4.15783e-06)
(0 -0 4.50774e-06)
(0 -0 4.80571e-06)
(0 -0 5.04631e-06)
(0 -0 5.2308e-06)
(0 -0 5.36418e-06)
(0 -0 5.45316e-06)
(0 -0 5.50467e-06)
(0 -0 5.52497e-06)
(0 -0 5.51935e-06)
(0 -0 5.49229e-06)
(0 -0 5.44758e-06)
(0 -0 5.38849e-06)
(0 -0 5.31778e-06)
(0 -0 5.23767e-06)
(0 -0 5.1499e-06)
(0 -0 5.0558e-06)
(0 -0 4.95645e-06)
(0 -0 4.85285e-06)
(0 -0 4.74599e-06)
(0 -0 4.63689e-06)
(0 -0 4.52655e-06)
(0 -0 4.41584e-06)
(0 -0 4.30551e-06)
(0 -0 4.19599e-06)
(0 -0 4.08742e-06)
(0 -0 3.97967e-06)
(0 -0 3.87242e-06)
(0 -0 3.76553e-06)
(0 -0 3.6591e-06)
(0 -0 3.55361e-06)
(0 -0 3.44985e-06)
(0 -0 3.34852e-06)
(0 -0 3.24976e-06)
(0 -0 3.15298e-06)
(0 -0 3.05793e-06)
(0 -0 2.96374e-06)
(0 -0 2.87099e-06)
(0 -0 2.77773e-06)
(0 -0 2.68608e-06)
(0 -0 2.59232e-06)
(0 -0 2.50346e-06)
(0 -0 2.40962e-06)
(0 -0 2.32624e-06)
(0 -0 2.22889e-06)
(0 -0 2.15315e-06)
(0 -0 2.04624e-06)
(0 -0 1.98245e-06)
(0 -0 1.85467e-06)
(0 -0 1.80588e-06)
(0 -0 1.64187e-06)
(0 -0 1.61247e-06)
(0 -0 1.40342e-06)
(0 -0 1.39358e-06)
(0 -0 1.14301e-06)
(0 -0 1.11894e-06)
(0 -0 9.07123e-07)
(0 -0 5.54207e-07)
(0 -0 1.38257e-06)
(0 -0 -2.06727e-06)
(0 -0 5.20565e-06)
(0 -0 -7.03924e-06)
(0 -0 2.8549e-06)
(0 -0 3.7139e-06)
(0 -0 -4.03274e-06)
(0 -0 4.83895e-06)
(0 -0 3.38931e-06)
(0 -0 2.89955e-06)
(0 -0 2.96334e-06)
(0 -0 3.27337e-06)
(0 -0 3.66709e-06)
(0 -0 4.0616e-06)
(0 -0 4.41814e-06)
(0 -0 4.72104e-06)
(0 -0 4.96599e-06)
(0 -0 5.15468e-06)
(0 -0 5.29225e-06)
(0 -0 5.38552e-06)
(0 -0 5.44152e-06)
(0 -0 5.46656e-06)
(0 -0 5.46599e-06)
(0 -0 5.4443e-06)
(0 -0 5.40531e-06)
(0 -0 5.35227e-06)
(0 -0 5.28791e-06)
(0 -0 5.21443e-06)
(0 -0 5.13356e-06)
(0 -0 5.04662e-06)
(0 -0 4.95467e-06)
(0 -0 4.85869e-06)
(0 -0 4.75966e-06)
(0 -0 4.65853e-06)
(0 -0 4.55621e-06)
(0 -0 4.45353e-06)
(0 -0 4.35115e-06)
(0 -0 4.24954e-06)
(0 -0 4.14884e-06)
(0 -0 4.04896e-06)
(0 -0 3.94962e-06)
(0 -0 3.85068e-06)
(0 -0 3.75224e-06)
(0 -0 3.65471e-06)
(0 -0 3.55882e-06)
(0 -0 3.46519e-06)
(0 -0 3.37398e-06)
(0 -0 3.28462e-06)
(0 -0 3.19694e-06)
(0 -0 3.11006e-06)
(0 -0 3.02462e-06)
(0 -0 2.93863e-06)
(0 -0 2.85428e-06)
(0 -0 2.76773e-06)
(0 -0 2.68614e-06)
(0 -0 2.59937e-06)
(0 -0 2.52336e-06)
(0 -0 2.43292e-06)
(0 -0 2.36489e-06)
(0 -0 2.26445e-06)
(0 -0 2.20903e-06)
(0 -0 2.0871e-06)
(0 -0 2.04845e-06)
(0 -0 1.88961e-06)
(0 -0 1.87308e-06)
(0 -0 1.6682e-06)
(0 -0 1.6743e-06)
(0 -0 1.42759e-06)
(0 -0 1.42314e-06)
(0 -0 1.20887e-06)
(0 -0 9.19143e-07)
(0 -0 1.58482e-06)
(0 -0 -1.29973e-06)
(0 -0 4.66281e-06)
(0 -0 -5.18587e-06)
(0 -0 2.0309e-06)
(0 -0 4.13677e-06)
(0 -0 -2.98747e-06)
(0 -0 4.16558e-06)
(0 -0 2.94236e-06)
(0 -0 2.5834e-06)
(0 -0 2.72024e-06)
(0 -0 3.06847e-06)
(0 -0 3.4814e-06)
(0 -0 3.88575e-06)
(0 -0 4.24806e-06)
(0 -0 4.55527e-06)
(0 -0 4.80419e-06)
(0 -0 4.99689e-06)
(0 -0 5.13866e-06)
(0 -0 5.23637e-06)
(0 -0 5.2971e-06)
(0 -0 5.32722e-06)
(0 -0 5.33212e-06)
(0 -0 5.31627e-06)
(0 -0 5.28349e-06)
(0 -0 5.23703e-06)
(0 -0 5.17957e-06)
(0 -0 5.11331e-06)
(0 -0 5.03994e-06)
(0 -0 4.96077e-06)
(0 -0 4.87685e-06)
(0 -0 4.78915e-06)
(0 -0 4.69858e-06)
(0 -0 4.60607e-06)
(0 -0 4.51243e-06)
(0 -0 4.41843e-06)
(0 -0 4.32467e-06)
(0 -0 4.2316e-06)
(0 -0 4.1394e-06)
(0 -0 4.04799e-06)
(0 -0 3.95715e-06)
(0 -0 3.86675e-06)
(0 -0 3.77687e-06)
(0 -0 3.68788e-06)
(0 -0 3.60042e-06)
(0 -0 3.51507e-06)
(0 -0 3.43196e-06)
(0 -0 3.35057e-06)
(0 -0 3.27078e-06)
(0 -0 3.19175e-06)
(0 -0 3.11412e-06)
(0 -0 3.03592e-06)
(0 -0 2.95938e-06)
(0 -0 2.88057e-06)
(0 -0 2.80678e-06)
(0 -0 2.72758e-06)
(0 -0 2.65945e-06)
(0 -0 2.57641e-06)
(0 -0 2.5166e-06)
(0 -0 2.4231e-06)
(0 -0 2.37656e-06)
(0 -0 2.261e-06)
(0 -0 2.23305e-06)
(0 -0 2.07993e-06)
(0 -0 2.0769e-06)
(0 -0 1.87679e-06)
(0 -0 1.89957e-06)
(0 -0 1.65738e-06)
(0 -0 1.67342e-06)
(0 -0 1.45726e-06)
(0 -0 1.23322e-06)
(0 -0 1.73041e-06)
(0 -0 -5.64854e-07)
(0 -0 4.03159e-06)
(0 -0 -3.31733e-06)
(0 -0 1.10871e-06)
(0 -0 4.51594e-06)
(0 -0 -1.96368e-06)
(0 -0 3.43104e-06)
(0 -0 2.43053e-06)
(0 -0 2.19965e-06)
(0 -0 2.40745e-06)
(0 -0 2.7923e-06)
(0 -0 3.22327e-06)
(0 -0 3.63662e-06)
(0 -0 4.00413e-06)
(0 -0 4.3153e-06)
(0 -0 4.568e-06)
(0 -0 4.76468e-06)
(0 -0 4.91072e-06)
(0 -0 5.01302e-06)
(0 -0 5.07871e-06)
(0 -0 5.11418e-06)
(0 -0 5.12482e-06)
(0 -0 5.1151e-06)
(0 -0 5.08884e-06)
(0 -0 5.04923e-06)
(0 -0 4.99898e-06)
(0 -0 4.94023e-06)
(0 -0 4.87467e-06)
(0 -0 4.80358e-06)
(0 -0 4.72801e-06)
(0 -0 4.64887e-06)
(0 -0 4.56708e-06)
(0 -0 4.48348e-06)
(0 -0 4.39882e-06)
(0 -0 4.3138e-06)
(0 -0 4.22896e-06)
(0 -0 4.14473e-06)
(0 -0 4.06129e-06)
(0 -0 3.97861e-06)
(0 -0 3.89651e-06)
(0 -0 3.81488e-06)
(0 -0 3.7338e-06)
(0 -0 3.65357e-06)
(0 -0 3.57479e-06)
(0 -0 3.49795e-06)
(0 -0 3.42318e-06)
(0 -0 3.34998e-06)
(0 -0 3.27829e-06)
(0 -0 3.20731e-06)
(0 -0 3.1377e-06)
(0 -0 3.06749e-06)
(0 -0 2.99898e-06)
(0 -0 2.92811e-06)
(0 -0 2.86232e-06)
(0 -0 2.7909e-06)
(0 -0 2.73086e-06)
(0 -0 2.65541e-06)
(0 -0 2.604e-06)
(0 -0 2.51762e-06)
(0 -0 2.48018e-06)
(0 -0 2.37118e-06)
(0 -0 2.35417e-06)
(0 -0 2.20697e-06)
(0 -0 2.21773e-06)
(0 -0 2.02256e-06)
(0 -0 2.06238e-06)
(0 -0 1.82488e-06)
(0 -0 1.86179e-06)
(0 -0 1.64404e-06)
(0 -0 1.48617e-06)
(0 -0 1.81414e-06)
(0 -0 1.13697e-07)
(0 -0 3.32985e-06)
(0 -0 -1.48952e-06)
(0 -0 1.07931e-07)
(0 -0 4.8459e-06)
(0 -0 -9.94053e-07)
(0 -0 2.65651e-06)
(0 -0 1.86865e-06)
(0 -0 1.75976e-06)
(0 -0 2.0349e-06)
(0 -0 2.45426e-06)
(0 -0 2.90205e-06)
(0 -0 3.32372e-06)
(0 -0 3.69607e-06)
(0 -0 4.01105e-06)
(0 -0 4.2675e-06)
(0 -0 4.46821e-06)
(0 -0 4.61862e-06)
(0 -0 4.72566e-06)
(0 -0 4.79647e-06)
(0 -0 4.83745e-06)
(0 -0 4.85397e-06)
(0 -0 4.85052e-06)
(0 -0 4.83086e-06)
(0 -0 4.7982e-06)
(0 -0 4.75522e-06)
(0 -0 4.70404e-06)
(0 -0 4.64632e-06)
(0 -0 4.58335e-06)
(0 -0 4.51613e-06)
(0 -0 4.44557e-06)
(0 -0 4.37254e-06)
(0 -0 4.29784e-06)
(0 -0 4.22215e-06)
(0 -0 4.14609e-06)
(0 -0 4.07014e-06)
(0 -0 3.99472e-06)
(0 -0 3.92001e-06)
(0 -0 3.84602e-06)
(0 -0 3.77259e-06)
(0 -0 3.69967e-06)
(0 -0 3.62731e-06)
(0 -0 3.55579e-06)
(0 -0 3.48563e-06)
(0 -0 3.41724e-06)
(0 -0 3.35075e-06)
(0 -0 3.28568e-06)
(0 -0 3.22204e-06)
(0 -0 3.15903e-06)
(0 -0 3.09737e-06)
(0 -0 3.03509e-06)
(0 -0 2.97454e-06)
(0 -0 2.91155e-06)
(0 -0 2.85371e-06)
(0 -0 2.78999e-06)
(0 -0 2.73797e-06)
(0 -0 2.67003e-06)
(0 -0 2.62697e-06)
(0 -0 2.54763e-06)
(0 -0 2.51924e-06)
(0 -0 2.4167e-06)
(0 -0 2.41061e-06)
(0 -0 2.26917e-06)
(0 -0 2.29373e-06)
(0 -0 2.10328e-06)
(0 -0 2.16022e-06)
(0 -0 1.92709e-06)
(0 -0 1.98491e-06)
(0 -0 1.76553e-06)
(0 -0 1.67269e-06)
(0 -0 1.83494e-06)
(0 -0 7.19182e-07)
(0 -0 2.57608e-06)
(0 -0 2.53297e-07)
(0 -0 -9.51273e-07)
(0 -0 5.12474e-06)
(0 -0 -1.02456e-07)
(0 -0 1.86278e-06)
(0 -0 1.27266e-06)
(0 -0 1.27716e-06)
(0 -0 1.61483e-06)
(0 -0 2.06616e-06)
(0 -0 2.52952e-06)
(0 -0 2.95896e-06)
(0 -0 3.33594e-06)
(0 -0 3.65469e-06)
(0 -0 3.91497e-06)
(0 -0 4.11981e-06)
(0 -0 4.27471e-06)
(0 -0 4.38661e-06)
(0 -0 4.46263e-06)
(0 -0 4.50917e-06)
(0 -0 4.5316e-06)
(0 -0 4.53438e-06)
(0 -0 4.52126e-06)
(0 -0 4.49544e-06)
(0 -0 4.45957e-06)
(0 -0 4.4158e-06)
(0 -0 4.36575e-06)
(0 -0 4.31067e-06)
(0 -0 4.25158e-06)
(0 -0 4.18935e-06)
(0 -0 4.12482e-06)
(0 -0 4.05875e-06)
(0 -0 3.99175e-06)
(0 -0 3.92436e-06)
(0 -0 3.85703e-06)
(0 -0 3.79013e-06)
(0 -0 3.72386e-06)
(0 -0 3.65824e-06)
(0 -0 3.59318e-06)
(0 -0 3.52865e-06)
(0 -0 3.46469e-06)
(0 -0 3.40156e-06)
(0 -0 3.33971e-06)
(0 -0 3.27947e-06)
(0 -0 3.22097e-06)
(0 -0 3.16374e-06)
(0 -0 3.10784e-06)
(0 -0 3.05252e-06)
(0 -0 2.99852e-06)
(0 -0 2.94387e-06)
(0 -0 2.891e-06)
(0 -0 2.8356e-06)
(0 -0 2.78541e-06)
(0 -0 2.72911e-06)
(0 -0 2.68484e-06)
(0 -0 2.62412e-06)
(0 -0 2.58913e-06)
(0 -0 2.5165e-06)
(0 -0 2.4969e-06)
(0 -0 2.40049e-06)
(0 -0 2.40507e-06)
(0 -0 2.26897e-06)
(0 -0 2.30709e-06)
(0 -0 2.12083e-06)
(0 -0 2.1947e-06)
(0 -0 1.96527e-06)
(0 -0 2.04373e-06)
(0 -0 1.82242e-06)
(0 -0 1.79215e-06)
(0 -0 1.79548e-06)
(0 -0 1.24184e-06)
(0 -0 1.7886e-06)
(0 -0 1.87925e-06)
(0 -0 -2.0491e-06)
(0 -0 5.35371e-06)
(0 -0 6.9631e-07)
(0 -0 1.06939e-06)
(0 -0 6.58849e-07)
(0 -0 7.66353e-07)
(0 -0 1.16093e-06)
(0 -0 1.64142e-06)
(0 -0 2.11906e-06)
(0 -0 2.55576e-06)
(0 -0 2.93728e-06)
(0 -0 3.25986e-06)
(0 -0 3.52408e-06)
(0 -0 3.73318e-06)
(0 -0 3.89267e-06)
(0 -0 4.00949e-06)
(0 -0 4.09075e-06)
(0 -0 4.14282e-06)
(0 -0 4.17105e-06)
(0 -0 4.17989e-06)
(0 -0 4.17309e-06)
(0 -0 4.15384e-06)
(0 -0 4.12479e-06)
(0 -0 4.08808e-06)
(0 -0 4.04532e-06)
(0 -0 3.99775e-06)
(0 -0 3.94635e-06)
(0 -0 3.89201e-06)
(0 -0 3.83551e-06)
(0 -0 3.77757e-06)
(0 -0 3.71877e-06)
(0 -0 3.65957e-06)
(0 -0 3.60036e-06)
(0 -0 3.54148e-06)
(0 -0 3.48315e-06)
(0 -0 3.4254e-06)
(0 -0 3.36821e-06)
(0 -0 3.31154e-06)
(0 -0 3.25548e-06)
(0 -0 3.20022e-06)
(0 -0 3.14618e-06)
(0 -0 3.09361e-06)
(0 -0 3.04261e-06)
(0 -0 2.99275e-06)
(0 -0 2.94413e-06)
(0 -0 2.89602e-06)
(0 -0 2.84922e-06)
(0 -0 2.80172e-06)
(0 -0 2.75606e-06)
(0 -0 2.70779e-06)
(0 -0 2.6648e-06)
(0 -0 2.61545e-06)
(0 -0 2.57847e-06)
(0 -0 2.5245e-06)
(0 -0 2.49714e-06)
(0 -0 2.43075e-06)
(0 -0 2.41951e-06)
(0 -0 2.3287e-06)
(0 -0 2.34353e-06)
(0 -0 2.21215e-06)
(0 -0 2.26341e-06)
(0 -0 2.08055e-06)
(0 -0 2.17098e-06)
(0 -0 1.94425e-06)
(0 -0 2.04289e-06)
(0 -0 1.81906e-06)
(0 -0 1.84803e-06)
(0 -0 1.70155e-06)
(0 -0 1.6784e-06)
(0 -0 9.84648e-07)
(0 -0 3.36869e-06)
(0 -0 -3.16694e-06)
(0 -0 5.53671e-06)
(0 -0 1.39608e-06)
(0 -0 2.93888e-07)
(0 -0 4.29036e-08)
(0 -0 2.42065e-07)
(0 -0 6.87471e-07)
(0 -0 1.19412e-06)
(0 -0 1.68475e-06)
(0 -0 2.12827e-06)
(0 -0 2.51425e-06)
(0 -0 2.84074e-06)
(0 -0 3.10902e-06)
(0 -0 3.32248e-06)
(0 -0 3.48664e-06)
(0 -0 3.6084e-06)
(0 -0 3.69484e-06)
(0 -0 3.75231e-06)
(0 -0 3.78615e-06)
(0 -0 3.80079e-06)
(0 -0 3.79997e-06)
(0 -0 3.7869e-06)
(0 -0 3.76424e-06)
(0 -0 3.73411e-06)
(0 -0 3.69813e-06)
(0 -0 3.65752e-06)
(0 -0 3.61325e-06)
(0 -0 3.56618e-06)
(0 -0 3.51709e-06)
(0 -0 3.46665e-06)
(0 -0 3.4154e-06)
(0 -0 3.36373e-06)
(0 -0 3.31199e-06)
(0 -0 3.2605e-06)
(0 -0 3.20945e-06)
(0 -0 3.15893e-06)
(0 -0 3.10894e-06)
(0 -0 3.0595e-06)
(0 -0 3.01067e-06)
(0 -0 2.96264e-06)