/*--------------------------------*- C++ -*----------------------------------*\
| =========                 |                                                 |
| \\      /  F ield         | OpenFOAM: The Open Source CFD Toolbox           |
|  \\    /   O peration     | Version:  2412                                  |
|   \\  /    A nd           | Website:  www.openfoam.com                      |
|    \\/     M anipulation  |                                                 |
\*---------------------------------------------------------------------------*/
FoamFile
{
    version     2.0;
    format      ascii;
    arch        "LSB;label=32;scalar=64";
    class       surfaceScalarField;
    location    "17.5";
    object      phi;
}
// * * * * * * * * * * * * * * * * * * * * * * * * * * * * * * * * * * * * * //

dimensions      [0 3 -1 0 0 0 0];

oriented        oriented;

internalField   nonuniform List<scalar> 
10423
(
0.00528288
0.000145234
-0.000145428
0.00528312
0.000140567
-0.000140808
0.0052834
0.000135909
-0.000136189
0.00528372
0.000131263
-0.000131579
0.00528407
0.000126639
-0.000126985
0.00528444
0.000122042
-0.000122413
0.00528483
0.00011748
-0.000117872
0.00528524
0.000112959
-0.000113368
0.00528566
0.000108487
-0.000108908
0.00528609
0.000104069
-0.0001045
0.00528653
9.97115e-05
-0.000100148
0.00528697
9.54203e-05
-9.586e-05
0.00528741
9.12004e-05
-9.16403e-05
0.00528784
8.70566e-05
-8.74942e-05
0.00528828
8.29935e-05
-8.34266e-05
0.0052887
7.9015e-05
-7.94417e-05
0.00528912
7.51251e-05
-7.55434e-05
0.00528953
7.13269e-05
-7.17355e-05
0.00528993
6.76237e-05
-6.8021e-05
0.00529031
6.40181e-05
-6.4403e-05
0.00529068
6.05125e-05
-6.08841e-05
0.00529104
5.71092e-05
-5.74665e-05
0.00529138
5.38101e-05
-5.41525e-05
0.00529171
5.0617e-05
-5.09438e-05
0.00529202
4.75312e-05
-4.78422e-05
0.00529232
4.45541e-05
-4.48489e-05
0.0052926
4.16866e-05
-4.19651e-05
0.00529286
3.89295e-05
-3.91917e-05
0.0052931
3.62833e-05
-3.65292e-05
0.00529333
3.3748e-05
-3.39779e-05
0.00529355
3.13237e-05
-3.15377e-05
0.00529375
2.90101e-05
-2.92085e-05
0.00529393
2.68068e-05
-2.69901e-05
0.0052941
2.47134e-05
-2.48819e-05
0.00529425
2.2729e-05
-2.28834e-05
0.00529439
2.08531e-05
-2.09937e-05
0.00529452
1.90845e-05
-1.92121e-05
0.00529464
1.74223e-05
-1.75374e-05
0.00529474
1.58652e-05
-1.59685e-05
0.00529483
1.44122e-05
-1.45045e-05
0.00529491
1.30624e-05
-1.31442e-05
0.00529498
1.18151e-05
-1.18873e-05
0.00529505
1.06693e-05
-1.07325e-05
0.0052951
9.6257e-06
-9.68088e-06
0.00529515
8.68128e-06
-8.72916e-06
0.00529519
7.84148e-06
-7.88298e-06
0.00529523
7.09603e-06
-7.13181e-06
0.00529526
6.46623e-06
-6.49747e-06
0.00529529
5.91685e-06
-5.94379e-06
0.00529531
5.51879e-06
-5.54352e-06
0.00529533
5.15672e-06
-5.17816e-06
0.00529536
5.04441e-06
-5.06724e-06
0.00529537
4.8401e-06
-4.85936e-06
0.0052954
5.12867e-06
-5.15571e-06
0.00529542
5.00724e-06
-5.02723e-06
0.00529546
5.91759e-06
-5.95759e-06
0.00529549
5.73771e-06
-5.76107e-06
0.00529555
7.63307e-06
-7.6991e-06
0.00529558
7.19622e-06
-7.22597e-06
0.00529569
1.05681e-05
-1.0679e-05
0.00529573
9.71064e-06
-9.75127e-06
0.00529592
1.51031e-05
-1.52888e-05
0.00529597
1.38589e-05
-1.39106e-05
0.0052963
2.18073e-05
-2.21381e-05
0.00529632
2.05801e-05
-2.05981e-05
0.00529698
3.12658e-05
-3.19246e-05
0.00529694
3.28836e-05
-3.28419e-05
0.00529777
4.02874e-05
-4.11254e-05
0.00529889
6.07505e-05
-6.18635e-05
0.00529882
5.0777e-05
-5.07075e-05
8.50241e-05
-8.69999e-05
0.00528154
0.00014496
0.00528186
0.00014025
0.00528221
0.000135553
0.0052826
0.000130875
0.00528302
0.000126223
0.00528345
0.000121604
0.00528391
0.000117024
0.00528438
0.000112489
0.00528486
0.000108007
0.00528534
0.000103583
0.00528583
9.92222e-05
0.00528632
9.49307e-05
0.00528681
9.07131e-05
0.00528729
8.6574e-05
0.00528777
8.25177e-05
0.00528824
7.85481e-05
0.00528869
7.46686e-05
0.00528914
7.08825e-05
0.00528957
6.71925e-05
0.00528998
6.36013e-05
0.00529039
6.0111e-05
0.00529077
5.67238e-05
0.00529114
5.34415e-05
0.00529149
5.02655e-05
0.00529183
4.71972e-05
0.00529214
4.42378e-05
0.00529244
4.13881e-05
0.00529272
3.86487e-05
0.00529298
3.60201e-05
0.00529323
3.35022e-05
0.00529346
3.10949e-05
0.00529367
2.8798e-05
0.00529387
2.66109e-05
0.00529405
2.45332e-05
0.00529421
2.2564e-05
0.00529436
2.07026e-05
0.0052945
1.8948e-05
0.00529462
1.72989e-05
0.00529473
1.57544e-05
0.00529483
1.43132e-05
0.00529492
1.29744e-05
0.005295
1.17374e-05
0.00529507
1.06009e-05
0.00529513
9.56593e-06
0.00529518
8.62924e-06
0.00529522
7.79621e-06
0.00529526
7.05681e-06
0.0052953
6.43186e-06
0.00529533
5.88699e-06
0.00529535
5.49141e-06
0.00529538
5.13266e-06
0.0052954
5.01925e-06
0.00529543
4.81828e-06
0.00529545
5.09951e-06
0.00529548
4.98442e-06
0.00529552
5.87553e-06
0.00529555
5.71085e-06
0.00529561
7.56488e-06
0.00529565
7.16181e-06
0.00529576
1.04547e-05
0.00529581
9.66384e-06
0.005296
1.49137e-05
0.00529606
1.37991e-05
0.0052964
2.14704e-05
0.00529642
2.05503e-05
0.00529709
3.06012e-05
0.00529707
3.29029e-05
0.00529792
3.94411e-05
0.00529904
5.96239e-05
0.00529902
5.07994e-05
8.30216e-05
0.00528018
0.000144605
0.00528058
0.000139854
0.00528101
0.000135122
0.00528147
0.000130415
0.00528195
0.000125739
0.00528246
0.0001211
0.00528298
0.000116504
0.00528351
0.000111959
0.00528405
0.000107469
0.00528459
0.000103041
0.00528513
9.868e-05
0.00528567
9.43907e-05
0.00528621
9.0178e-05
0.00528673
8.60462e-05
0.00528725
8.19992e-05
0.00528776
7.80407e-05
0.00528825
7.4174e-05
0.00528873
7.0402e-05
0.0052892
6.67274e-05
0.00528965
6.31525e-05
0.00529008
5.96795e-05
0.00529049
5.63103e-05
0.00529089
5.30464e-05
0.00529127
4.98893e-05
0.00529162
4.68402e-05
0.00529196
4.39e-05
0.00529228
4.10695e-05
0.00529258
3.83493e-05
0.00529286
3.57395e-05
0.00529312
3.32402e-05
0.00529336
3.08512e-05
0.00529359
2.8572e-05
0.0052938
2.64023e-05
0.00529399
2.43413e-05
0.00529417
2.23883e-05
0.00529433
2.05423e-05
0.00529447
1.88023e-05
0.0052946
1.71673e-05
0.00529472
1.5636e-05
0.00529483
1.42073e-05
0.00529492
1.28801e-05
0.00529501
1.16539e-05
0.00529508
1.05274e-05
0.00529514
9.50145e-06
0.0052952
8.57292e-06
0.00529525
7.74704e-06
0.00529529
7.01403e-06
0.00529533
6.39422e-06
0.00529536
5.8541e-06
0.00529539
5.46121e-06
0.00529542
5.10593e-06
0.00529545
4.99155e-06
0.00529547
4.79392e-06
0.0052955
5.06789e-06
0.00529553
4.95894e-06
0.00529557
5.83092e-06
0.0052956
5.68085e-06
0.00529567
7.49383e-06
0.00529571
7.12335e-06
0.00529583
1.03377e-05
0.00529588
9.61154e-06
0.00529608
1.47196e-05
0.00529614
1.37317e-05
0.00529649
2.11278e-05
0.00529653
2.05072e-05
0.0052972
2.99341e-05
0.00529721
3.28946e-05
0.00529805
3.85918e-05
0.00529919
5.84866e-05
0.00529923
5.07653e-05
8.09991e-05
0.00527881
0.000144167
0.00527929
0.000139379
0.00527979
0.000134615
0.00528033
0.000129881
0.00528088
0.000125183
0.00528145
0.000120528
0.00528204
0.00011592
0.00528263
0.000111367
0.00528323
0.000106873
0.00528382
0.000102444
0.00528442
9.80845e-05
0.00528501
9.38002e-05
0.00528559
8.9595e-05
0.00528617
8.54728e-05
0.00528673
8.14376e-05
0.00528728
7.74926e-05
0.00528781
7.36409e-05
0.00528833
6.98852e-05
0.00528883
6.62281e-05
0.00528931
6.26717e-05
0.00528977
5.92179e-05
0.00529021
5.58685e-05
0.00529063
5.26248e-05
0.00529103
4.94883e-05
0.00529141
4.64599e-05
0.00529177
4.35405e-05
0.00529211
4.07308e-05
0.00529243
3.8031e-05
0.00529273
3.54415e-05
0.00529301
3.29621e-05
0.00529326
3.05924e-05
0.0052935
2.83322e-05
0.00529373
2.61808e-05
0.00529393
2.41376e-05
0.00529412
2.22016e-05
0.00529429
2.0372e-05
0.00529444
1.86476e-05
0.00529458
1.70273e-05
0.00529471
1.55099e-05
0.00529482
1.40943e-05
0.00529492
1.27794e-05
0.00529501
1.15646e-05
0.00529509
1.04486e-05
0.00529516
9.43213e-06
0.00529522
8.51219e-06
0.00529527
7.69385e-06
0.00529532
6.96757e-06
0.00529536
6.3532e-06
0.0052954
5.81808e-06
0.00529543
5.42809e-06
0.00529546
5.07642e-06
0.00529549
4.9612e-06
0.00529552
4.76692e-06
0.00529555
5.03372e-06
0.00529558
4.93069e-06
0.00529562
5.78366e-06
0.00529566
5.64761e-06
0.00529573
7.41984e-06
0.00529577
7.08073e-06
0.0052959
1.02173e-05
0.00529595
9.55361e-06
0.00529615
1.45209e-05
0.00529623
1.36562e-05
0.00529657
2.07801e-05
0.00529663
2.04493e-05
0.0052973
2.92677e-05
0.00529734
3.28543e-05
0.00529819
3.7744e-05
0.00529933
5.73417e-05
0.00529943
5.06666e-05
7.89625e-05
0.00527742
0.000143646
0.00527798
0.000138823
0.00527856
0.00013403
0.00527917
0.000129273
0.0052798
0.000124557
0.00528044
0.000119888
0.00528109
0.000115271
0.00528174
0.000110712
0.0052824
0.000106217
0.00528305
0.00010179
0.0052837
9.74355e-05
0.00528434
9.31588e-05
0.00528497
8.89637e-05
0.00528559
8.48539e-05
0.0052862
8.08328e-05
0.00528679
7.69037e-05
0.00528736
7.30693e-05
0.00528791
6.93322e-05
0.00528844
6.56947e-05
0.00528896
6.21587e-05
0.00528945
5.87261e-05
0.00528992
5.53983e-05
0.00529037
5.21768e-05
0.00529079
4.90625e-05
0.0052912
4.60565e-05
0.00529158
4.31594e-05
0.00529194
4.03718e-05
0.00529227
3.7694e-05
0.00529259
3.5126e-05
0.00529288
3.26677e-05
0.00529316
3.03187e-05
0.00529341
2.80785e-05
0.00529365
2.59465e-05
0.00529386
2.3922e-05
0.00529406
2.2004e-05
0.00529424
2.01916e-05
0.0052944
1.84836e-05
0.00529455
1.68788e-05
0.00529469
1.53761e-05
0.00529481
1.39743e-05
0.00529491
1.26723e-05
0.00529501
1.14694e-05
0.00529509
1.03644e-05
0.00529517
9.35789e-06
0.00529523
8.44697e-06
0.00529529
7.63655e-06
0.00529534
6.91734e-06
0.00529538
6.30871e-06
0.00529542
5.77882e-06
0.00529546
5.39195e-06
0.00529549
5.04402e-06
0.00529552
4.92811e-06
0.00529555
4.73719e-06
0.00529559
4.99689e-06
0.00529562
4.89959e-06
0.00529567
5.73365e-06
0.00529571
5.61105e-06
0.00529579
7.3428e-06
0.00529583
7.03387e-06
0.00529596
1.00932e-05
0.00529602
9.48997e-06
0.00529622
1.43178e-05
0.00529631
1.35723e-05
0.00529666
2.04279e-05
0.00529673
2.03754e-05
0.0052974
2.86045e-05
0.00529747
3.27784e-05
0.00529832
3.69015e-05
0.00529947
5.61917e-05
0.00529964
5.04968e-05
7.69176e-05
0.00527603
0.00014304
0.00527666
0.000138185
0.00527733
0.000133367
0.00527801
0.00012859
0.00527871
0.000123859
0.00527942
0.000119179
0.00528013
0.000114556
0.00528085
0.000109995
0.00528156
0.000105501
0.00528227
0.000101079
0.00528298
9.67327e-05
0.00528367
9.24664e-05
0.00528435
8.82841e-05
0.00528501
8.41892e-05
0.00528566
8.01848e-05
0.00528629
7.6274e-05
0.0052869
7.24592e-05
0.00528749
6.87429e-05
0.00528806
6.51271e-05
0.0052886
6.16136e-05
0.00528913
5.82041e-05
0.00528962
5.48999e-05
0.0052901
5.17021e-05
0.00529055
4.86118e-05
0.00529098
4.56298e-05
0.00529138
4.27566e-05
0.00529176
3.99926e-05
0.00529211
3.73381e-05
0.00529245
3.4793e-05
0.00529276
3.2357e-05
0.00529305
3.00298e-05
0.00529331
2.78108e-05
0.00529356
2.56993e-05
0.00529379
2.36945e-05
0.005294
2.17954e-05
0.00529419
2.0001e-05
0.00529436
1.83102e-05
0.00529452
1.67218e-05
0.00529466
1.52345e-05
0.00529479
1.38471e-05
0.0052949
1.25586e-05
0.005295
1.13682e-05
0.00529509
1.02747e-05
0.00529517
9.27863e-06
0.00529524
8.37716e-06
0.0052953
7.57506e-06
0.00529536
6.86325e-06
0.0052954
6.26066e-06
0.00529545
5.73625e-06
0.00529549
5.35271e-06
0.00529552
5.00867e-06
0.00529556
4.8922e-06
0.00529559
4.70463e-06
0.00529563
4.95734e-06
0.00529566
4.86554e-06
0.00529572
5.68082e-06
0.00529576
5.57109e-06
0.00529584
7.26265e-06
0.00529589
6.9827e-06
0.00529602
9.96547e-06
0.00529608
9.4205e-06
0.00529629
1.41102e-05
0.00529638
1.34799e-05
0.00529674
2.00718e-05
0.00529683
2.02844e-05
0.00529749
2.79468e-05
0.0052976
3.26641e-05
0.00529844
3.60674e-05
0.00529959
5.50389e-05
0.00529984
5.02514e-05
7.487e-05
0.00527462
0.000142348
0.00527534
0.000137465
0.00527608
0.000132624
0.00527684
0.00012783
0.00527761
0.000123088
0.00527839
0.000118401
0.00527917
0.000113775
0.00527995
0.000109216
0.00528072
0.000104726
0.00528149
0.000100312
0.00528225
9.59759e-05
0.00528299
9.17229e-05
0.00528372
8.7556e-05
0.00528443
8.34786e-05
0.00528512
7.94934e-05
0.00528579
7.56033e-05
0.00528644
7.18105e-05
0.00528707
6.81172e-05
0.00528767
6.45253e-05
0.00528824
6.10364e-05
0.0052888
5.76519e-05
0.00528932
5.43731e-05
0.00528982
5.12009e-05
0.0052903
4.81363e-05
0.00529075
4.51799e-05
0.00529117
4.23321e-05
0.00529157
3.95933e-05
0.00529195
3.69634e-05
0.0052923
3.44425e-05
0.00529263
3.20301e-05
0.00529293
2.97259e-05
0.00529321
2.75292e-05
0.00529347
2.54392e-05
0.00529371
2.3455e-05
0.00529393
2.15758e-05
0.00529413
1.98004e-05
0.00529431
1.81276e-05
0.00529448
1.65562e-05
0.00529463
1.50849e-05
0.00529476
1.37127e-05
0.00529488
1.24382e-05
0.00529499
1.12609e-05
0.00529509
1.01794e-05
0.00529517
9.19431e-06
0.00529525
8.30271e-06
0.00529531
7.5093e-06
0.00529537
6.80523e-06
0.00529542
6.20897e-06
0.00529547
5.69029e-06
0.00529551
5.31028e-06
0.00529555
4.97027e-06
0.00529559
4.85339e-06
0.00529562
4.66918e-06
0.00529566
4.91499e-06
0.0052957
4.82848e-06
0.00529576
5.62511e-06
0.0052958
5.52767e-06
0.00529588
7.17934e-06
0.00529594
6.92717e-06
0.00529607
9.83408e-06
0.00529615
9.34515e-06
0.00529636
1.38983e-05
0.00529646
1.33786e-05
0.00529682
1.97122e-05
0.00529693
2.01755e-05
0.00529758
2.72964e-05
0.00529773
3.25095e-05
0.00529856
3.5244e-05
0.00529971
5.38849e-05
0.00530003
4.99276e-05
7.28247e-05
0.0052732
0.000141569
0.005274
0.000136661
0.00527482
0.000131802
0.00527566
0.000126994
0.0052765
0.000122243
0.00527735
0.000117553
0.0052782
0.000112928
0.00527904
0.000108372
0.00527988
0.000103891
0.0052807
9.9487e-05
0.00528151
9.51649e-05
0.00528231
9.0928e-05
0.00528308
8.67794e-05
0.00528384
8.2722e-05
0.00528457
7.87587e-05
0.00528529
7.48916e-05
0.00528597
7.11232e-05
0.00528664
6.74551e-05
0.00528727
6.38892e-05
0.00528788
6.04269e-05
0.00528846
5.70695e-05
0.00528902
5.3818e-05
0.00528955
5.06733e-05
0.00529005
4.7636e-05
0.00529052
4.47068e-05
0.00529097
4.1886e-05
0.00529138
3.91737e-05
0.00529178
3.65699e-05
0.00529215
3.40745e-05
0.00529249
3.1687e-05
0.00529281
2.94069e-05
0.0052931
2.72335e-05
0.00529338
2.51661e-05
0.00529363
2.32036e-05
0.00529386
2.13452e-05
0.00529407
1.95895e-05
0.00529426
1.79355e-05
0.00529444
1.63819e-05
0.00529459
1.49275e-05
0.00529474
1.3571e-05
0.00529486
1.23112e-05
0.00529498
1.11476e-05
0.00529508
1.00786e-05
0.00529517
9.10486e-06
0.00529525
8.22356e-06
0.00529532
7.43922e-06
0.00529538
6.74324e-06
0.00529543
6.15361e-06
0.00529548
5.64089e-06
0.00529553
5.26464e-06
0.00529557
4.92879e-06
0.00529561
4.81163e-06
0.00529565
4.63079e-06
0.00529569
4.86979e-06
0.00529573
4.78837e-06
0.00529579
5.56646e-06
0.00529584
5.48073e-06
0.00529593
7.09283e-06
0.00529599
6.86723e-06
0.00529612
9.69901e-06
0.0052962
9.26385e-06
0.00529642
1.36822e-05
0.00529653
1.32684e-05
0.00529689
1.93496e-05
0.00529702
2.00481e-05
0.00529766
2.66545e-05
0.00529786
3.23132e-05
0.00529867
3.44329e-05
0.00529982
5.27314e-05
0.00530023
4.95244e-05
7.07867e-05
0.00527177
0.000140701
0.00527266
0.000135772
0.00527356
0.000130898
0.00527447
0.000126081
0.00527539
0.000121326
0.00527631
0.000116635
0.00527722
0.000112014
0.00527813
0.000107466
0.00527903
0.000102995
0.00527991
9.86052e-05
0.00528077
9.42997e-05
0.00528162
9.00817e-05
0.00528244
8.59541e-05
0.00528325
8.19196e-05
0.00528403
7.79805e-05
0.00528478
7.41391e-05
0.0052855
7.03973e-05
0.0052862
6.67568e-05
0.00528687
6.32191e-05
0.00528751
5.97855e-05
0.00528813
5.6457e-05
0.00528871
5.32347e-05
0.00528926
5.01191e-05
0.00528979
4.7111e-05
0.00529028
4.42106e-05
0.00529075
4.14183e-05
0.00529119
3.8734e-05
0.0052916
3.61577e-05
0.00529199
3.3689e-05
0.00529235
3.13276e-05
0.00529268
2.90729e-05
0.00529299
2.6924e-05
0.00529328
2.48801e-05
0.00529354
2.29403e-05
0.00529378
2.11035e-05
0.005294
1.93685e-05
0.00529421
1.77341e-05
0.00529439
1.61991e-05
0.00529455
1.47621e-05
0.0052947
1.3422e-05
0.00529484
1.21776e-05
0.00529496
1.10281e-05
0.00529506
9.97216e-06
0.00529516
9.01027e-06
0.00529524
8.13968e-06
0.00529532
7.3648e-06
0.00529538
6.67722e-06
0.00529544
6.09452e-06
0.00529549
5.58802e-06
0.00529554
5.21572e-06
0.00529559
4.88418e-06
0.00529563
4.76688e-06
0.00529567
4.58941e-06
0.00529572
4.82171e-06
0.00529576
4.74515e-06
0.00529583
5.50484e-06
0.00529588
5.43025e-06
0.00529597
7.0031e-06
0.00529603
6.80286e-06
0.00529617
9.56025e-06
0.00529626
9.17658e-06
0.00529648
1.34618e-05
0.0052966
1.31491e-05
0.00529696
1.89844e-05
0.00529711
1.99018e-05
0.00529774
2.60222e-05
0.00529798
3.20751e-05
0.00529878
3.36352e-05
0.00529993
5.15794e-05
0.00530041
4.90425e-05
6.87604e-05
0.00527033
0.000139743
0.00527131
0.000134798
0.00527229
0.000129913
0.00527328
0.00012509
0.00527428
0.000120333
0.00527526
0.000115646
0.00527625
0.000111032
0.00527722
0.000106495
0.00527817
0.000102039
0.00527911
9.76659e-05
0.00528003
9.33801e-05
0.00528093
8.91839e-05
0.0052818
8.50802e-05
0.00528265
8.10711e-05
0.00528347
7.7159e-05
0.00528427
7.33457e-05
0.00528503
6.96329e-05
0.00528577
6.60222e-05
0.00528647
6.25149e-05
0.00528714
5.9112e-05
0.00528779
5.58146e-05
0.0052884
5.26232e-05
0.00528898
4.95387e-05
0.00528953
4.65613e-05
0.00529005
4.36914e-05
0.00529054
4.09291e-05
0.005291
3.82742e-05
0.00529143
3.57268e-05
0.00529183
3.32862e-05
0.00529221
3.09522e-05
0.00529255
2.87239e-05
0.00529288
2.66005e-05
0.00529318
2.45813e-05
0.00529345
2.26651e-05
0.0052937
2.08509e-05
0.00529394
1.91374e-05
0.00529415
1.75234e-05
0.00529434
1.60077e-05
0.00529451
1.45889e-05
0.00529467
1.32658e-05
0.00529481
1.20373e-05
0.00529493
1.09025e-05
0.00529504
9.86009e-06
0.00529514
8.91051e-06
0.00529523
8.05105e-06
0.00529531
7.28601e-06
0.00529538
6.60718e-06
0.00529544
6.0317e-06
0.0052955
5.53164e-06
0.00529555
5.16351e-06
0.0052956
4.83642e-06
0.00529565
4.71912e-06
0.00529569
4.54503e-06
0.00529574
4.77072e-06
0.00529579
4.69882e-06
0.00529586
5.44024e-06
0.00529591
5.37622e-06
0.005296
6.91013e-06
0.00529607
6.73405e-06
0.00529621
9.41782e-06
0.00529631
9.08332e-06
0.00529653
1.32375e-05
0.00529666
1.30205e-05
0.00529703
1.8617e-05
0.00529719
1.97363e-05
0.00529782
2.53999e-05
0.00529809
3.17953e-05
0.00529888
3.28511e-05
0.00530003
5.04296e-05
0.00530059
4.8484e-05
6.67498e-05
0.00526889
0.000138695
0.00526995
0.000133737
0.00527102
0.000128845
0.00527209
0.00012402
0.00527316
0.000119266
0.00527422
0.000114586
0.00527527
0.000109983
0.0052763
0.000105461
0.00527732
0.000101022
0.00527832
9.66692e-05
0.00527929
9.2406e-05
0.00528024
8.82347e-05
0.00528116
8.41576e-05
0.00528206
8.01768e-05
0.00528292
7.62942e-05
0.00528376
7.25115e-05
0.00528456
6.88302e-05
0.00528533
6.52516e-05
0.00528607
6.17768e-05
0.00528677
5.84067e-05
0.00528744
5.51422e-05
0.00528808
5.19838e-05
0.00528869
4.8932e-05
0.00528926
4.59871e-05
0.00528981
4.31493e-05
0.00529032
4.04185e-05
0.0052908
3.77946e-05
0.00529125
3.52773e-05
0.00529167
3.28662e-05
0.00529206
3.05606e-05
0.00529242
2.83599e-05
0.00529276
2.62633e-05
0.00529307
2.42696e-05
0.00529336
2.2378e-05
0.00529362
2.05873e-05
0.00529386
1.88962e-05
0.00529408
1.73034e-05
0.00529428
1.58077e-05
0.00529446
1.44078e-05
0.00529463
1.31024e-05
0.00529477
1.18903e-05
0.00529491
1.07708e-05
0.00529502
9.74242e-06
0.00529513
8.8056e-06
0.00529522
7.95769e-06
0.00529531
7.20284e-06
0.00529538
6.53309e-06
0.00529545
5.96512e-06
0.00529551
5.47175e-06
0.00529556
5.108e-06
0.00529561
4.78549e-06
0.00529566
4.66835e-06
0.00529571
4.49762e-06
0.00529576
4.71681e-06
0.00529581
4.64936e-06
0.00529588
5.37265e-06
0.00529594
5.31862e-06
0.00529603
6.81393e-06
0.00529611
6.6608e-06
0.00529625
9.27175e-06
0.00529635
8.98407e-06
0.00529658
1.30092e-05
0.00529672
1.28828e-05
0.00529709
1.82475e-05
0.00529727
1.95518e-05
0.00529789
2.47878e-05
0.00529821
3.14746e-05
0.00529898
3.20806e-05
0.00530012
4.92826e-05
0.00530076
4.78521e-05
6.47587e-05
0.00526745
0.000137555
0.0052686
0.000132588
0.00526975
0.000127693
0.0052709
0.000122871
0.00527204
0.000118124
0.00527317
0.000113455
0.00527429
0.000108867
0.00527539
0.000104362
0.00527647
9.99437e-05
0.00527752
9.56148e-05
0.00527855
9.13775e-05
0.00527955
8.72341e-05
0.00528052
8.31865e-05
0.00528146
7.92367e-05
0.00528237
7.53863e-05
0.00528324
7.16367e-05
0.00528408
6.79892e-05
0.00528489
6.4445e-05
0.00528566
6.10049e-05
0.0052864
5.76698e-05
0.0052871
5.44402e-05
0.00528777
5.13166e-05
0.0052884
4.82994e-05
0.005289
4.53886e-05
0.00528957
4.25844e-05
0.0052901
3.98867e-05
0.0052906
3.72951e-05
0.00529106
3.48094e-05
0.0052915
3.2429e-05
0.00529191
3.01532e-05
0.00529229
2.79813e-05
0.00529264
2.59123e-05
0.00529296
2.39453e-05
0.00529326
2.20793e-05
0.00529354
2.03129e-05
0.00529379
1.86449e-05
0.00529402
1.70742e-05
0.00529422
1.55992e-05
0.00529441
1.42188e-05
0.00529458
1.29318e-05
0.00529474
1.17367e-05
0.00529488
1.0633e-05
0.005295
9.61915e-06
0.00529511
8.69555e-06
0.00529521
7.85959e-06
0.00529529
7.11532e-06
0.00529537
6.45497e-06
0.00529544
5.8948e-06
0.00529551
5.40835e-06
0.00529557
5.04919e-06
0.00529562
4.7314e-06
0.00529567
4.61454e-06
0.00529572
4.4472e-06
0.00529578
4.65998e-06
0.00529583
4.59677e-06
0.0052959
5.30207e-06
0.00529596
5.25746e-06
0.00529606
6.71451e-06
0.00529614
6.58313e-06
0.00529629
9.12209e-06
0.0052964
8.87885e-06
0.00529663
1.2777e-05
0.00529678
1.27359e-05
0.00529715
1.78762e-05
0.00529735
1.93484e-05
0.00529795
2.41859e-05
0.00529831
3.11145e-05
0.00529907
3.13231e-05
0.00530021
4.81388e-05
0.00530091
4.71512e-05
6.27903e-05
0.005266
0.000136321
0.00526724
0.000131351
0.00526848
0.000126458
0.00526971
0.000121642
0.00527092
0.000116906
0.00527213
0.000112252
0.00527331
0.000107682
0.00527448
0.000103199
0.00527561
9.88049e-05
0.00527673
9.45029e-05
0.00527781
9.02946e-05
0.00527886
8.61821e-05
0.00527988
8.2167e-05
0.00528087
7.8251e-05
0.00528182
7.44353e-05
0.00528273
7.07214e-05
0.00528361
6.71102e-05
0.00528445
6.36026e-05
0.00528526
6.01995e-05
0.00528603
5.69013e-05
0.00528676
5.37087e-05
0.00528745
5.06218e-05
0.00528811
4.76408e-05
0.00528873
4.47659e-05
0.00528932
4.1997e-05
0.00528988
3.93338e-05
0.00529039
3.67761e-05
0.00529088
3.43232e-05
0.00529133
3.19748e-05
0.00529176
2.973e-05
0.00529215
2.75879e-05
0.00529252
2.55478e-05
0.00529285
2.36084e-05
0.00529316
2.17688e-05
0.00529345
2.00277e-05
0.00529371
1.83838e-05
0.00529395
1.68358e-05
0.00529416
1.53823e-05
0.00529436
1.40221e-05
0.00529454
1.2754e-05
0.0052947
1.15766e-05
0.00529484
1.04892e-05
0.00529497
9.49033e-06
0.00529509
8.58039e-06
0.00529519
7.75678e-06
0.00529528
7.02346e-06
0.00529536
6.37284e-06
0.00529544
5.82075e-06
0.0052955
5.34146e-06
0.00529557
4.9871e-06
0.00529562
4.67415e-06
0.00529568
4.55773e-06
0.00529573
4.39376e-06
0.00529579
4.60025e-06
0.00529585
4.54107e-06
0.00529592
5.22853e-06
0.00529599
5.19277e-06
0.00529609
6.61191e-06
0.00529617
6.50108e-06
0.00529633
8.96888e-06
0.00529644
8.76772e-06
0.00529667
1.25412e-05
0.00529683
1.25798e-05
0.0052972
1.75033e-05
0.00529742
1.91263e-05
0.00529802
2.35939e-05
0.00529841
3.07166e-05
0.00529916
3.0578e-05
0.0053003
4.69982e-05
0.00530106
4.63861e-05
6.08475e-05
0.00526456
0.000134994
0.00526589
0.000130025
0.00526721
0.000125138
0.00526851
0.000120333
0.00526981
0.000115612
0.00527108
0.000110976
0.00527234
0.000106429
0.00527356
0.000101971
0.00527476
9.76052e-05
0.00527593
9.33334e-05
0.00527707
8.91574e-05
0.00527817
8.50789e-05
0.00527924
8.10992e-05
0.00528027
7.72197e-05
0.00528127
7.34416e-05
0.00528222
6.97659e-05
0.00528314
6.61933e-05
0.00528402
6.27248e-05
0.00528486
5.93607e-05
0.00528566
5.61016e-05
0.00528642
5.29478e-05
0.00528714
4.98995e-05
0.00528782
4.69567e-05
0.00528847
4.41193e-05
0.00528908
4.13872e-05
0.00528965
3.87601e-05
0.00529019
3.62376e-05
0.0052907
3.3819e-05
0.00529117
3.15038e-05
0.00529161
2.92911e-05
0.00529201
2.71801e-05
0.00529239
2.51698e-05
0.00529274
2.32591e-05
0.00529306
2.14469e-05
0.00529336
1.97319e-05
0.00529363
1.81128e-05
0.00529388
1.65883e-05
0.0052941
1.5157e-05
0.00529431
1.38177e-05
0.00529449
1.25691e-05
0.00529466
1.14099e-05
0.00529481
1.03394e-05
0.00529494
9.35602e-06
0.00529506
8.46017e-06
0.00529517
7.64932e-06
0.00529527
6.9273e-06
0.00529535
6.28672e-06
0.00529543
5.74301e-06
0.0052955
5.2711e-06
0.00529557
4.92174e-06
0.00529563
4.61377e-06
0.00529569
4.49793e-06
0.00529574
4.33733e-06
0.00529581
4.53764e-06
0.00529586
4.48228e-06
0.00529594
5.15205e-06
0.00529601
5.12458e-06
0.00529611
6.50615e-06
0.0052962
6.41467e-06
0.00529636
8.81218e-06
0.00529647
8.65071e-06
0.00529671
1.23017e-05
0.00529688
1.24146e-05
0.00529725
1.7129e-05
0.00529749
1.8886e-05
0.00529808
2.30114e-05
0.00529851
3.02829e-05
0.00529924
2.98442e-05
0.00530038
4.58609e-05
0.00530121
4.55622e-05
5.89327e-05
0.00526312
0.000133572
0.00526453
0.000128609
0.00526594
0.000123733
0.00526733
0.000118943
0.0052687
0.000114241
0.00527005
0.000109629
0.00527137
0.000105107
0.00527266
0.000100679
0.00527392
9.63445e-05
0.00527515
9.21065e-05
0.00527634
8.7966e-05
0.00527749
8.39246e-05
0.00527861
7.99833e-05
0.00527968
7.61433e-05
0.00528072
7.24053e-05
0.00528172
6.87703e-05
0.00528267
6.52389e-05
0.00528358
6.18116e-05
0.00528446
5.84889e-05
0.00528529
5.5271e-05
0.00528608
5.2158e-05
0.00528683
4.91501e-05
0.00528754
4.62471e-05
0.00528821
4.3449e-05
0.00528884
4.07553e-05
0.00528943
3.81658e-05
0.00528999
3.56798e-05
0.00529051
3.32968e-05
0.005291
3.10161e-05
0.00529145
2.88368e-05
0.00529188
2.67579e-05
0.00529227
2.47785e-05
0.00529263
2.28974e-05
0.00529296
2.11135e-05
0.00529327
1.94255e-05
0.00529355
1.78321e-05
0.00529381
1.63319e-05
0.00529404
1.49235e-05
0.00529425
1.36057e-05
0.00529444
1.23773e-05
0.00529462
1.12369e-05
0.00529477
1.01836e-05
0.00529491
9.21626e-06
0.00529504
8.33494e-06
0.00529515
7.53724e-06
0.00529525
6.82688e-06
0.00529534
6.19666e-06
0.00529542
5.6616e-06
0.00529549
5.19731e-06
0.00529556
4.85315e-06
0.00529563
4.55029e-06
0.00529569
4.43516e-06
0.00529575
4.27794e-06
0.00529581
4.47217e-06
0.00529588
4.42042e-06
0.00529596
5.07265e-06
0.00529603
5.05292e-06
0.00529614
6.39728e-06
0.00529623
6.32398e-06
0.00529639
8.65206e-06
0.00529651
8.52789e-06
0.00529675
1.20588e-05
0.00529693
1.22404e-05
0.0052973
1.67533e-05
0.00529756
1.8628e-05
0.00529813
2.24377e-05
0.0052986
2.98155e-05
0.00529933
2.91207e-05
0.00530046
4.47268e-05
0.00530134
4.46851e-05
5.7048e-05
0.00526168
0.000132055
0.00526318
0.000127103
0.00526467
0.000122242
0.00526615
0.000117472
0.00526759
0.000112794
0.00526901
0.000108209
0.0052704
0.000103718
0.00527176
9.93221e-05
0.00527308
9.50231e-05
0.00527436
9.08223e-05
0.00527561
8.67207e-05
0.00527681
8.27195e-05
0.00527798
7.88196e-05
0.0052791
7.50218e-05
0.00528018
7.13267e-05
0.00528121
6.77351e-05
0.00528221
6.42472e-05
0.00528315
6.08635e-05
0.00528406
5.75843e-05
0.00528492
5.44096e-05
0.00528574
5.13394e-05
0.00528651
4.83738e-05
0.00528725
4.55124e-05
0.00528794
4.27551e-05
0.0052886
4.01015e-05
0.00528921
3.7551e-05
0.00528979
3.51031e-05
0.00529033
3.2757e-05
0.00529083
3.0512e-05
0.0052913
2.83672e-05
0.00529174
2.63215e-05
0.00529214
2.43741e-05
0.00529252
2.25236e-05
0.00529286
2.0769e-05
0.00529318
1.91088e-05
0.00529347
1.75418e-05
0.00529373
1.60666e-05
0.00529397
1.46818e-05
0.00529419
1.33862e-05
0.00529439
1.21785e-05
0.00529457
1.10574e-05
0.00529473
1.00221e-05
0.00529488
9.07113e-06
0.00529501
8.20477e-06
0.00529513
7.42061e-06
0.00529523
6.72225e-06
0.00529532
6.10271e-06
0.00529541
5.57657e-06
0.00529549
5.12012e-06
0.00529556
4.78136e-06
0.00529563
4.48374e-06
0.00529569
4.36947e-06
0.00529575
4.21563e-06
0.00529582
4.40388e-06
0.00529589
4.35554e-06
0.00529597
4.99039e-06
0.00529604
4.97784e-06
0.00529616
6.28535e-06
0.00529625
6.22905e-06
0.00529641
8.48859e-06
0.00529654
8.39935e-06
0.00529679
1.18124e-05
0.00529697
1.20574e-05
0.00529735
1.63764e-05
0.00529762
1.83529e-05
0.00529819
2.18723e-05
0.00529869
2.93165e-05
0.0052994
2.84062e-05
0.00530053
4.3596e-05
0.00530146
4.37603e-05
5.51952e-05
0.00526024
0.000130441
0.00526184
0.000125505
0.00526342
0.000120665
0.00526497
0.00011592
0.00526649
0.000111271
0.00526799
0.000106717
0.00526944
0.00010226
0.00527087
9.79012e-05
0.00527225
9.36411e-05
0.00527359
8.9481e-05
0.00527489
8.54216e-05
0.00527614
8.14639e-05
0.00527735
7.76083e-05
0.00527852
7.38556e-05
0.00527964
7.02062e-05
0.00528072
6.66604e-05
0.00528174
6.32185e-05
0.00528273
5.98808e-05
0.00528366
5.66472e-05
0.00528456
5.35178e-05
0.0052854
5.04924e-05
0.00528621
4.75709e-05
0.00528697
4.47529e-05
0.00528768
4.20381e-05
0.00528836
3.9426e-05
0.00528899
3.69161e-05
0.00528959
3.45075e-05
0.00529015
3.21997e-05
0.00529067
2.99917e-05
0.00529115
2.78825e-05
0.0052916
2.58712e-05
0.00529202
2.39567e-05
0.0052924
2.21378e-05
0.00529276
2.04133e-05
0.00529309
1.87818e-05
0.00529339
1.7242e-05
0.00529366
1.57926e-05
0.00529391
1.44321e-05
0.00529414
1.31593e-05
0.00529434
1.1973e-05
0.00529453
1.08717e-05
0.0052947
9.85477e-06
0.00529485
8.92071e-06
0.00529498
8.06973e-06
0.0052951
7.29948e-06
0.00529521
6.61348e-06
0.00529531
6.00491e-06
0.0052954
5.48797e-06
0.00529548
5.03958e-06
0.00529555
4.70643e-06
0.00529562
4.41416e-06
0.00529569
4.30089e-06
0.00529576
4.15042e-06
0.00529583
4.33282e-06
0.0052959
4.28769e-06
0.00529598
4.90531e-06
0.00529606
4.89939e-06
0.00529617
6.17042e-06
0.00529627
6.12994e-06
0.00529644
8.32185e-06
0.00529657
8.26517e-06
0.00529682
1.15628e-05
0.00529701
1.18657e-05
0.00529739
1.59983e-05
0.00529768
1.80611e-05
0.00529824
2.13144e-05
0.00529877
2.87882e-05
0.00529948
2.76997e-05
0.00530061
4.24682e-05
0.00530157
4.27933e-05
5.33756e-05
0.00525882
0.00012873
0.00526051
0.000123816
0.00526217
0.000119002
0.0052638
0.000114287
0.0052654
0.00010967
0.00526697
0.000105152
0.00526849
0.000100734
0.00526998
9.64161e-05
0.00527142
9.21987e-05
0.00527282
8.80829e-05
0.00527417
8.40691e-05
0.00527548
8.0158e-05
0.00527674
7.63499e-05
0.00527795
7.26451e-05
0.00527911
6.9044e-05
0.00528022
6.55467e-05
0.00528129
6.21533e-05
0.00528231
5.88637e-05
0.00528327
5.5678e-05
0.0052842
5.25959e-05
0.00528507
4.96173e-05
0.0052859
4.67417e-05
0.00528668
4.39689e-05
0.00528742
4.12982e-05
0.00528812
3.87293e-05
0.00528878
3.62613e-05
0.00528939
3.38935e-05
0.00528996
3.16252e-05
0.0052905
2.94553e-05
0.005291
2.7383e-05
0.00529146
2.54071e-05
0.00529189
2.35266e-05
0.00529229
2.17402e-05
0.00529266
2.00467e-05
0.005293
1.84448e-05
0.00529331
1.6933e-05
0.00529359