/*--------------------------------*- C++ -*----------------------------------*\
| =========                 |                                                 |
| \\      /  F ield         | OpenFOAM: The Open Source CFD Toolbox           |
|  \\    /   O peration     | Version:  2412                                  |
|   \\  /    A nd           | Website:  www.openfoam.com                      |
|    \\/     M anipulation  |                                                 |
\*---------------------------------------------------------------------------*/
FoamFile
{
    version     2.0;
    format      ascii;
    arch        "LSB;label=32;scalar=64";
    class       surfaceScalarField;
    location    "15";
    object      phi;
}
// * * * * * * * * * * * * * * * * * * * * * * * * * * * * * * * * * * * * * //

dimensions      [0 3 -1 0 0 0 0];

oriented        oriented;

internalField   nonuniform List<scalar> 
10421
(
0.00229336
-0.000174399
2.7626e-09
0.00246185
-0.000168499
3.33886e-09
0.00262373
-0.000161878
4.2487e-09
0.00277842
-0.0001547
5.26728e-09
0.00292553
-0.000147115
6.07752e-09
0.00306478
-0.000139258
6.56736e-09
0.00319602
-0.00013125
6.76864e-09
0.00331922
-0.000123199
6.69538e-09
0.00343441
-0.000115199
6.37686e-09
0.00354173
-0.000107328
5.85374e-09
0.00364138
-9.96554e-05
5.1744e-09
0.00373361
-9.2235e-05
4.39006e-09
0.00381872
-8.51108e-05
3.55078e-09
0.00389703
-7.83158e-05
2.70676e-09
0.0039689
-7.18737e-05
1.90383e-09
0.0040347
-6.57995e-05
1.18088e-09
0.0040948
-6.01009e-05
5.68767e-10
0.00414958
-5.47789e-05
8.80695e-11
0.00419941
-4.98289e-05
-2.49899e-10
0.00424465
-4.5242e-05
-4.43891e-10
0.00428566
-4.10052e-05
-5.00823e-10
0.00432276
-3.7103e-05
-4.3279e-10
0.00435628
-3.35176e-05
-2.56598e-10
0.00438651
-3.02297e-05
9.9868e-12
0.00441373
-2.72196e-05
3.4727e-10
0.0044382
-2.44666e-05
7.37776e-10
0.00446014
-2.19505e-05
1.16546e-09
-1.96508e-05
0.00447979
1.61765e-09
0.00229414
-0.000346473
0.00246056
-0.000334921
0.00262062
-0.000321929
0.00277373
-0.000307817
0.0029195
-0.000292884
0.00305764
-0.000277397
0.00318799
-0.000261598
0.00331049
-0.0002457
0.00342518
-0.000229891
0.00353218
-0.000214329
0.00363167
-0.000199149
0.0037239
-0.00018446
0.00380914
-0.000170352
0.00388772
-0.00015689
0.00395996
-0.000144122
0.00402624
-0.000132079
0.00408692
-0.000120777
0.00414236
-0.000110218
0.00419292
-0.000100395
0.00423897
-9.12893e-05
0.00428084
-8.28767e-05
0.00431887
-7.51263e-05
0.00435335
-6.80035e-05
0.00438459
-6.14705e-05
0.00441286
-5.54878e-05
0.00443841
-5.00153e-05
0.00446147
-4.50121e-05
-4.04376e-05
0.00448226
0.00229271
-0.000514216
0.00245529
-0.000497503
0.00261198
-0.000478625
0.00276222
-0.000458053
0.00290556
-0.000436228
0.00304172
-0.000413548
0.00317049
-0.00039037
0.0032918
-0.000367015
0.00340567
-0.000343759
0.00351218
-0.000320842
0.0036115
-0.000298466
0.00370384
-0.000276796
0.00378945
-0.000255966
0.00386864
-0.000236076
0.00394171
-0.0002172
0.00400902
-0.000199385
0.0040709
-0.000182657
0.0041277
-0.000167022
0.00417978
-0.000152469
0.00422746
-0.000138974
0.00427109
-0.000126501
0.00431097
-0.000115005
0.0043474
-0.000104436
0.00438067
-9.47398e-05
0.00441104
-8.58573e-05
0.00443875
-7.77296e-05
0.00446404
-7.02965e-05
-6.34959e-05
0.00448709
0.00228376
0.00244127
-0.000655018
0.00259359
-0.000630948
0.00274013
-0.00060459
0.00288042
-0.000576516
0.00301412
-0.000547251
0.00314102
-0.000517269
0.003261
-0.000486991
0.00337403
-0.000456787
0.00348016
-0.000426977
0.00357953
-0.00039783
0.0036723
-0.00036957
0.00375871
-0.000342375
0.00383901
-0.000316382
0.00391351
-0.000291694
0.0039825
-0.000268375
0.0040463
-0.000246464
0.00410525
-0.00022597
0.00415967
-0.000206884
0.00420987
-0.000189175
0.00425617
-0.000172799
0.00429886
-0.0001577
0.00433824
-0.000143812
0.00437456
-0.000131065
0.00440809
-0.000119384
0.00443905
-0.000108691
0.00446766
-9.89082e-05
-8.9951e-05
0.00449412
0.00241271
-0.000806888
0.00256027
-0.000778505
0.00270287
-0.000747196
0.00284002
-0.000713664
0.00297133
-0.000678558
0.00309652
-0.000642462
0.00321543
-0.000605903
0.00332799
-0.000569343
0.0034342
-0.000533184
0.00353413
-0.000497765
0.00362793
-0.00046337
0.00371578
-0.000430226
0.00379791
-0.000398511
0.00387457
-0.000368353
0.00394604
-0.000339842
0.0040126
-0.000313029
0.00407457
-0.000287932
0.00413222
-0.000264543
0.00418588
-0.000242827
0.00423581
-0.000222735
0.00428231
-0.000204199
0.00432564
-0.000187143
0.00436606
-0.00017148
0.0044038
-0.000157122
0.00443908
-0.000143974
0.00447211
-0.000131939
-0.000120912
0.00450307
0.00236367
-0.000953213
0.00250671
-0.000921544
0.00264577
-0.000886251
0.00278027
-0.000848162
0.00290975
-0.000808044
0.00303389
-0.000766601
0.00315245
-0.000724462
0.0032653
-0.000682188
0.00337238
-0.000640264
0.00347372
-0.000599105
0.0035694
-0.000559058
0.00365958
-0.000520404
0.00374443
-0.000483362
0.00382417
-0.000448095
0.00389905
-0.000414718
0.00396932
-0.000383299
0.00403526
-0.000353866
0.00409713
-0.000326415
0.00415521
-0.000300913
0.00420978
-0.000277302
0.00426109
-0.00025551
0.0043094
-0.000235447
0.00435493
-0.000217017
0.00439793
-0.000200115
0.00443858
-0.000184632
0.0044771
-0.000170456
-0.000157463
0.00451365
0.00229042
0.00242977
-0.00106089
0.00256616
-0.00102264
0.00269894
-0.000980941
0.00282757
-0.00093668
0.00295165
-0.000890677
0.00307086
-0.000843675
0.00318501
-0.000796333
0.00329397
-0.000749229
0.00339772
-0.000702859
0.0034963
-0.000657638
0.0035898
-0.000613905
0.00367837
-0.000571927
0.00376218
-0.000531906
0.00384145
-0.000493985
0.0039164
-0.000458251
0.00398728
-0.000424748
0.00405434
-0.000393478
0.00411784
-0.000364409
0.00417802
-0.000337482
0.00423513
-0.000312616
0.00428939
-0.000289715
0.00434105
-0.00026867
0.00439029
-0.000249364
0.00443734
-0.000231675
0.00448236
-0.000215478
0.00452553
-0.000200638
0.00450721
-2.74138e-05
2.09699e-09
0.00453324
-2.60372e-05
2.62413e-09
0.00455798
-2.47389e-05
3.1591e-09
0.00458149
-2.35181e-05
3.68151e-09
0.00460386
-2.23717e-05
4.17774e-09
0.00462515
-2.12963e-05
4.64114e-09
0.00464543
-2.0288e-05
5.0707e-09
0.00466477
-1.93433e-05
5.46945e-09
0.00468322
-1.84584e-05
5.84258e-09
0.00470085
-1.76292e-05
6.19652e-09
0.00471769
-1.68518e-05
6.53816e-09
0.00473381
-1.61219e-05
6.87438e-09
0.00474923
-1.54348e-05
7.21113e-09
0.00476401
-1.47849e-05
7.55254e-09
0.00477817
-1.41663e-05
7.90051e-09
0.00479173
-1.3572e-05
8.25363e-09
0.00480472
-1.29948e-05
8.60647e-09
0.00481714
-1.24271e-05
8.94956e-09
0.00482899
-1.18621e-05
9.26985e-09
0.00484028
-1.12946e-05
9.55144e-09
0.00485099
-1.07218e-05
9.77685e-09
0.00486112
-1.01445e-05
9.92875e-09
0.00487068
-9.56706e-06
9.99203e-09
0.00487967
-8.99761e-06
9.95513e-09
0.0048881
-8.44685e-06
9.81154e-09
0.00489602
-7.92649e-06
9.56126e-09
0.00490346
-7.44728e-06
9.21044e-09
0.00491047
-7.01712e-06
8.77086e-09
0.0049171
-6.63976e-06
8.25827e-09
0.00492341
-6.31435e-06
7.69079e-09
0.00492943
-6.03584e-06
7.08699e-09
0.00493522
-5.79622e-06
6.46462e-09
0.0049408
-5.5861e-06
5.83857e-09
0.0049462
-5.39622e-06
5.22036e-09
0.00495141
-5.21863e-06
4.61868e-09
0.00495645
-5.04734e-06
4.03954e-09
0.00496133
-4.87846e-06
3.48615e-09
0.00496603
-4.70994e-06
2.95965e-09
0.00497057
-4.54112e-06
2.46043e-09
0.00497494
-4.37222e-06
1.98893e-09
0.00497915
-4.20395e-06
1.54571e-09
0.00498318
-4.03716e-06
1.13244e-09
0.00498705
-3.87267e-06
7.50809e-10
-3.71122e-06
4.031e-10
0.00450939
-5.45453e-05
0.00453518
-5.18219e-05
0.00455969
-4.92529e-05
0.00458301
-4.68358e-05
0.0046052
-4.4565e-05
0.00462634
-4.24333e-05
0.00464648
-4.04336e-05
0.0046657
-3.85588e-05
0.00468404
-3.68013e-05
0.00470157
-3.51536e-05
0.00471832
-3.36079e-05
0.00473436
-3.21558e-05
0.00474971
-3.0788e-05
0.00476442
-2.94939e-05
0.00477851
-2.82615e-05
0.00479202
-2.70774e-05
0.00480495
-2.59272e-05
0.00481732
-2.47962e-05
0.00482913
-2.36709e-05
0.00484038
-2.25411e-05
0.00485105
-2.14014e-05
0.00486116
-2.02531e-05
0.0048707
-1.9105e-05
0.00487968
-1.79729e-05
0.00488811
-1.68779e-05
0.00489602
-1.58431e-05
0.00490347
-1.48895e-05
0.00491048
-1.40327e-05
0.00491712
-1.32803e-05
0.00492344
-1.26305e-05
0.00492948
-1.20735e-05
0.00493527
-1.15935e-05
0.00494086
-1.11721e-05
0.00494625
-1.07911e-05
0.00495147
-1.04347e-05
0.00495651
-1.00911e-05
0.00496139
-9.75258e-06
0.00496609
-9.41511e-06
0.00497063
-9.07729e-06
0.004975
-8.73955e-06
0.0049792
-8.40322e-06
0.00498323
-8.06997e-06
0.0049871
-7.7414e-06
-7.41893e-06
0.00451368
-8.11311e-05
0.00453898
-7.71203e-05
0.00456306
-7.3335e-05
0.004586
-6.97707e-05
0.00460785
-6.64186e-05
0.00462868
-6.32688e-05
0.00464856
-6.0311e-05
0.00466754
-5.75347e-05
0.00468567
-5.49295e-05
0.004703
-5.24847e-05
0.00471958
-5.01889e-05
0.00473545
-4.80301e-05
0.00475066
-4.59949e-05
0.00476523
-4.40681e-05
0.0047792
-4.22321e-05
0.00479259
-4.04676e-05
0.00480542
-3.87535e-05
0.00481769
-3.70684e-05
0.00482941
-3.53927e-05
0.00484059
-3.37114e-05
0.0048512
-3.20165e-05
0.00486126
-3.031e-05
0.00487076
-2.86044e-05
0.00487971
-2.6923e-05
0.00488813
-2.52963e-05
0.00489604
-2.37579e-05
0.00490349
-2.23388e-05
0.00491052
-2.10617e-05
0.00491718
-1.99377e-05
0.00492351
-1.89646e-05
0.00492956
-1.8128e-05
0.00493538
-1.74051e-05
0.00494097
-1.6769e-05
0.00494637
-1.6193e-05
0.00495159
-1.56543e-05
0.00495664
-1.51353e-05
0.00496151
-1.46247e-05
0.00496621
-1.41165e-05
0.00497074
-1.36084e-05
0.0049751
-1.3101e-05
0.0049793
-1.25962e-05
0.00498332
-1.20963e-05
0.00498719
-1.16037e-05
-1.11204e-05
0.00451992
-0.000106934
0.00454452
-0.000101722
0.00456798
-9.67982e-05
0.00459037
-9.21564e-05
0.00461174
-8.77848e-05
0.00463214
-8.36708e-05
0.00465163
-7.98017e-05
0.00467026
-7.61647e-05
0.00468808
-7.2747e-05
0.00470513
-6.95351e-05
0.00472145
-6.6515e-05
0.00473709
-6.36718e-05
0.00475209
-6.09883e-05
0.00476647
-5.84452e-05
0.00478025
-5.60204e-05
0.00479347
-5.3689e-05
0.00480615
-5.1424e-05
0.00481828
-4.91982e-05
0.00482987
-4.69863e-05
0.00484093
-4.47691e-05
0.00485145
-4.25361e-05
0.00486143
-4.02896e-05
0.00487087
-3.80458e-05
0.00487978
-3.58342e-05
0.00488818
-3.36939e-05
0.00489609
-3.16679e-05
0.00490354
-2.9796e-05
0.00491059
-2.81077e-05
0.00491727
-2.66175e-05
0.00492363
-2.53226e-05
0.0049297
-2.42051e-05
0.00493553
-2.32358e-05
0.00494115
-2.23803e-05
0.00494656
-2.16043e-05
0.00495178
-2.08782e-05
0.00495683
-2.01796e-05
0.00496169
-1.94935e-05
0.00496639
-1.88118e-05
0.00497091
-1.81316e-05
0.00497527
-1.74535e-05
0.00497945
-1.67796e-05
0.00498347
-1.6113e-05
0.00498732
-1.54565e-05
-1.48126e-05
0.0045279
-0.000131759
0.00455163
-0.000125453
0.00457432
-0.000119488
0.00459602
-0.000113855
0.00461677
-0.00010854
0.00463663
-0.000103527
0.00465563
-9.88042e-05
0.00467382
-9.43563e-05
0.00469124
-9.0169e-05
0.00470794
-8.62272e-05
0.00472394
-8.2515e-05
0.00473928
-7.90147e-05
0.004754
-7.57067e-05
0.00476812
-7.25682e-05
0.00478167
-6.95731e-05
0.00479468
-6.6692e-05
0.00480714
-6.38929e-05
0.00481909
-6.11433e-05
0.00483052
-5.84134e-05
0.00484143
-5.56798e-05
0.00485182
-5.29303e-05
0.0048617
-5.01672e-05
0.00487106
-4.74094e-05
0.00487992
-4.46917e-05
0.00488829
-4.20606e-05
0.00489619
-3.95672e-05
0.00490365
-3.7259e-05
0.00491071
-3.51714e-05
0.00491742
-3.33218e-05
0.0049238
-3.17076e-05
0.00492991
-3.03079e-05
0.00493576
-2.90882e-05
0.00494139
-2.80077e-05
0.00494681
-2.70254e-05
0.00495203
-2.61061e-05
0.00495708
-2.52225e-05
0.00496194
-2.43566e-05
0.00496663
-2.34984e-05
0.00497114
-2.2644e-05
0.00497548
-2.17938e-05
0.00497965
-2.09502e-05
0.00498365
-2.01166e-05
0.00498749
-1.92963e-05
-1.84923e-05
0.00453735
-0.00015546
0.00456009
-0.000148186
0.00458189
-0.000141292
0.0046028
-0.000134764
0.00462285
-0.000128587
0.00464207
-0.00012275
0.0046605
-0.000117236
0.00467818
-0.000112033
0.00469513
-0.000107124
0.0047114
-0.000102495
0.00472701
-9.81268e-05
0.004742
-9.40012e-05
0.00475639
-9.00963e-05
0.00477021
-8.63866e-05
0.00478348
-8.2843e-05
0.00479622
-7.94323e-05
0.00480844
-7.61187e-05
0.00482016
-7.28654e-05
0.00483139
-6.96387e-05
0.00484212
-6.6412e-05
0.00485236
-6.31711e-05
0.00486211
-5.99184e-05
0.00487138
-5.66748e-05
0.00488017
-5.34794e-05
0.00488849
-5.03843e-05
0.00489637
-4.74474e-05
0.00490383
-4.47222e-05
0.00491091
-4.22493e-05
0.00491764
-4.00491e-05
0.00492405
-3.81191e-05
0.00493018
-3.64363e-05
0.00493605
-3.49621e-05
0.0049417
-3.36505e-05
0.00494713
-3.24552e-05
0.00495236
-3.13361e-05
0.00495739
-3.02618e-05
0.00496225
-2.92114e-05
0.00496692
-2.81731e-05
0.00497142
-2.71422e-05
0.00497575
-2.61185e-05
0.0049799
-2.51046e-05
0.00498389
-2.41039e-05
0.00498771
-2.31201e-05
-2.21564e-05
0.00454802
-0.000177951
0.00456969
-0.000169848
0.00459053
-0.000162139
0.00461058
-0.000154813
0.00462986
-0.000147861
0.00464838
-0.000141272
0.00466618
-0.000135034
0.00468328
-0.000129134
0.00469971
-0.000123555
0.0047155
-0.000118283
0.00473067
-0.000113298
0.00474525
-0.000108582
0.00475926
-0.00010411
0.00477273
-9.98564e-05
0.00478568
-9.57885e-05
0.00479812
-9.18711e-05
0.00481006
-8.8065e-05
0.00482153
-8.43305e-05
0.00483252
-8.06307e-05
0.00484304
-7.69366e-05
0.00485311
-7.32323e-05
0.00486271
-6.952e-05
0.00487185
-6.58219e-05
0.00488056
-6.218e-05
0.00488882
-5.86506e-05
0.00489667
-5.52964e-05
0.00490412
-5.21762e-05
0.00491121
-4.93343e-05
0.00491795
-4.67936e-05
0.00492439
-4.45525e-05
0.00493054
-4.25863e-05
0.00493643
-4.08539e-05
0.00494208
-3.93054e-05
0.00494752
-3.78904e-05
0.00495275
-3.65647e-05
0.00495778
-3.52938e-05
0.00496262
-3.40542e-05
0.00496728
-3.28324e-05
0.00497176
-3.16225e-05
0.00497607
-3.0424e-05
0.0049802
-2.92391e-05
0.00498417
-2.80713e-05
0.00498797
-2.69244e-05
-2.58018e-05
0.00477854
-0.000200257
-0.00475623
0.00480009
-0.000191394
0.00482088
-0.000182929
0.00484092
-0.000174859
0.00486024
-0.000167179
0.00487885
-0.000159881
0.00489677
-0.000152954
0.00491402
-0.000146385
0.00493063
-0.000140161
0.00494661
-0.000134264
0.00496199
-0.000128678
0.00497679
-0.000123382
0.00499103
-0.000118351
0.00500473
-0.000113558
0.00501791
-0.000108969
0.00503059
-0.000104547
0.00504277
-0.00010025
0.00505448
-9.60376e-05
0.00506572
-9.18696e-05
0.0050765
-8.77152e-05
0.00508682
-8.35573e-05
0.0050967
-7.93975e-05
0.00510614
-7.52586e-05
0.00511514
-7.11842e-05
0.00512372
-6.72335e-05
0.0051319
-6.34726e-05
0.00513969
-5.99636e-05
0.00514711
-5.67542e-05
0.00515418
-5.38694e-05
0.00516094
-5.13084e-05
0.0051674
-4.90464e-05
0.00517359
-4.70405e-05
0.00517952
-4.52382e-05
0.00518521
-4.35863e-05
0.00519069
-4.20374e-05
0.00519595
-4.05544e-05
0.005201
-3.91117e-05
0.00520587
-3.76939e-05
0.00521054
-3.62942e-05
0.00521503
-3.49111e-05
0.00521933
-3.35466e-05
0.00522347
-3.2204e-05
0.00522743
-3.08869e-05
-2.95986e-05
0.00479228
-0.000221298
-0.00477124
0.00481265
-0.000211756
0.00483234
-0.000202619
0.00485137
-0.000193889
0.00486975
-0.000185562
0.0048875
-0.00017763
0.00490463
-0.000170083
0.00492115
-0.000162909
0.00493709
-0.000156096
0.00495245
-0.000149628
0.00496726
-0.000143486
0.00498153
-0.000137651
0.00499527
-0.000132098
0.00500852
-0.000126799
0.00502127
-0.00012172
0.00503354
-0.000116822
0.00504536
-0.000112063
0.00505672
-0.000107401
0.00506764
-0.000102794
0.00507814
-9.82113e-05
0.00508822
-9.36336e-05
0.00509788
-8.90622e-05
0.00510714
-8.45197e-05
0.00511601
-8.00502e-05
0.00512449
-7.57139e-05
0.00513259
-7.15784e-05
0.00514034
-6.77079e-05
0.00514774
-6.4152e-05
0.0051548
-6.09375e-05
0.00516156
-5.80648e-05
0.00516802
-5.55096e-05
0.00517421
-5.32285e-05
0.00518014
-5.11682e-05
0.00518583
-4.92736e-05
0.00519129
-4.74957e-05
0.00519653
-4.57954e-05
0.00520156
-4.41451e-05
0.0052064
-4.25283e-05
0.00521104
-4.09367e-05
0.0052155
-3.93682e-05
0.00521977
-3.78239e-05
0.00522388
-3.6307e-05
0.00522781
-3.48205e-05
-3.33679e-05
0.00480697
-0.000241037
-0.00478723
0.00482612
-0.000230902
0.00484468
-0.000221181
0.00486266
-0.000211874
0.00488008
-0.000202978
0.00489693
-0.000194485
0.00491324
-0.000186386
0.004929
-0.000178671
0.00494423
-0.000171326
0.00495894
-0.000164338
0.00497314
-0.000157688
0.00498685
-0.000151357
0.00500007
-0.000145321
0.00501282
-0.000139551
0.00502511
-0.000134014
0.00503696
-0.00012867
0.00504838
-0.000123479
0.00505937
-0.000118396
0.00506996
-0.000113382
0.00508015
-0.000108402
0.00508996
-0.000103439
0.00509939
-9.84917e-05
0.00510845
-9.35828e-05
0.00511716
-8.87553e-05
0.00512551
-8.40689e-05
0.00513352
-7.95913e-05
0.0051412
-7.5387e-05
0.00514856
-7.15066e-05
0.0051556
-6.79782e-05
0.00516234
-6.48037e-05
0.00516879
-6.19597e-05
0.00517496
-5.94039e-05
0.00518088
-5.70831e-05
0.00518655
-5.49419e-05
0.00519198
-5.29306e-05
0.00519719
-5.10088e-05
0.0052022
-4.91477e-05
0.005207
-4.73295e-05
0.00521161
-4.55448e-05
0.00521603
-4.37903e-05
0.00522027
-4.20666e-05
0.00522434
-4.03761e-05
0.00522824
-3.87216e-05
-3.71061e-05
0.00482257
-0.000259422
-0.00480418
0.00484046
-0.000248794
0.00485786
-0.00023858
0.00487477
-0.000228781
0.00489118
-0.000219395
0.00490711
-0.000210414
0.00492256
-0.000201832
0.00493753
-0.000193638
0.00495202
-0.00018582
0.00496605
-0.000178365
0.00497962
-0.000171255
0.00499273
-0.000164472
0.0050054
-0.000157993
0.00501764
-0.000151788
0.00502945
-0.000145827
0.00504085
-0.00014007
0.00505185
-0.000134477
0.00506246
-0.000129004
0.00507269
-0.000123612
0.00508255
-0.000118268
0.00509207
-0.000112953
0.00510124
-0.000107665
0.00511009
-0.000102426
0.00511861
-9.72769e-05
0.00512681
-9.22751e-05
0.00513471
-8.74872e-05
0.0051423
-8.29768e-05
0.00514959
-7.87946e-05
0.00515658
-7.49693e-05
0.00516328
-7.15043e-05
0.0051697
-6.83782e-05
0.00517584
-6.55502e-05
0.00518173
-6.29686e-05
0.00518737
-6.0579e-05
0.00519277
-5.83316e-05
0.00519794
-5.61857e-05
0.00520291
-5.41119e-05
0.00520767
-5.2091e-05
0.00521224
-5.01125e-05
0.00521662
-4.81724e-05
0.00522082
-4.62701e-05
0.00522485
-4.44073e-05
0.00522872
-4.25863e-05
-4.08097e-05
0.00483903
-0.000276413
-0.00482204
0.00485563
-0.000265393
0.00487183
-0.00025478
0.00488763
-0.000244577
0.00490301
-0.000234782
0.00491799
-0.00022539
0.00493255
-0.000216393
0.0049467
-0.000207784
0.00496043
-0.000199552
0.00497375
-0.000191684
0.00498665
-0.000184164
0.00499916
-0.000176974
0.00501125
-0.000170091
0.00502296
-0.000163491
0.00503427
-0.00015714
0.0050452
-0.000151002
0.00505577
-0.000145039
0.00506597
-0.000139208
0.00507583
-0.00013347
0.00508535
-0.000127793
0.00509456
-0.000122159
0.00510346
-0.000116565
0.00511206
-0.00011103
0.00512038
-0.000105593
0.00512841
-0.000100309
0.00513617
-9.52416e-05
0.00514364
-9.04524e-05
0.00515084
-8.5991e-05
0.00515776
-8.18868e-05
0.0051644
-7.81443e-05
0.00517076
-7.47445e-05
0.00517686
-7.16492e-05
0.0051827
-6.8809e-05
0.00518829
-6.61713e-05
0.00519365
-6.36873e-05
0.00519878
-6.13167e-05
0.0052037
-5.90295e-05
0.00520841
-5.68057e-05
0.00521293
-5.4634e-05
0.00521727
-5.25091e-05
0.00522143
-5.04296e-05
0.00522542
-4.83962e-05
0.00522924
-4.64107e-05
-4.44751e-05
0.00485628
-0.000291977
-0.00484071
0.00487155
-0.00028067
0.00488653
-0.000269753
0.00490119
-0.000259235
0.00491552
-0.000249113
0.00492951
-0.000239385
0.00494316
-0.000230045
0.00495646
-0.000221086
0.00496941
-0.000212499
0.004982
-0.000204272
0.00499423
-0.000196392
0.00500609
-0.000188841
0.0050176
-0.000181599
0.00502875
-0.000174641
0.00503955
-0.000167937
0.00505
-0.000161454
0.00506011
-0.000155153
0.0050699
-0.000148994
0.00507937
-0.000142942
0.00508854
-0.000136964
0.00509743
-0.000131043
0.00510604
-0.000125174
0.00511438
-0.000119376
0.00512247
-0.000113684
0.00513031
-0.000108148
0.0051379
-0.000102831
0.00514524
-9.77886e-05
0.00515232
-9.30707e-05
0.00515914
-8.8706e-05
0.00516569
-8.47004e-05
0.00517199
-8.10374e-05
0.00517802
-7.7682e-05
0.0051838
-7.45878e-05
0.00518933
-7.17048e-05
0.00519463
-6.89859e-05
0.0051997
-6.63916e-05
0.00520457
-6.3892e-05
0.00520923
-6.14666e-05
0.0052137
-5.91031e-05
0.00521798
-5.67951e-05
0.00522209
-5.45403e-05
0.00522604
-5.23386e-05
0.00522982
-5.01909e-05
-4.80988e-05
0.00487421
-0.0003061
-0.00486009
0.00488815
-0.000294605
0.00490188
-0.00028348
0.00491538
-0.000272734
0.00492863
-0.000262367
0.00494163
-0.000252379
0.00495435
-0.000242766
0.00496678
-0.000233522
0.00497892
-0.000224641
0.00499076
-0.000216111
0.00500229
-0.000207922
0.00501351
-0.000200058
0.00502441
-0.0001925
0.005035
-0.000185226
0.00504527
-0.000178207
0.00505522
-0.000171412
0.00506488
-0.000164806
0.00507424
-0.000158353
0.00508331
-0.000152017
0.00509212
-0.000145769
0.00510067
-0.000139591
0.00510897
-0.000133479
0.00511704
-0.000127447
0.00512489
-0.000121529
0.00513251
-0.000115772
0.00513991
-0.000110231
0.00514708
-0.000104962
0.00515402
-0.000100009
0.00516072
-9.54029e-05
0.00516717
-9.11497e-05
0.00517337
-8.72358e-05
0.00517932
-8.36296e-05
0.00518502
-8.02884e-05
0.00519048
-7.71652e-05
0.00519571
-7.42152e-05
0.00520071
-7.14003e-05
0.00520551
-6.86909e-05
0.00521011
-6.60664e-05
0.00521452
-6.35135e-05
0.00521875
-6.1025e-05
0.00522281
-5.85977e-05
0.0052267
-5.62304e-05
0.00523043
-5.39233e-05
-5.16773e-05
0.00489273
-0.000318779
-0.00488005
0.00490532
-0.000307194
0.00491779
-0.000295952
0.00493012
-0.000285063
0.00494228
-0.000274532
0.00495426
-0.000264359
0.00496604
-0.000254542
0.0049776
-0.000245078
0.00498892
-0.000235963
0.00499999
-0.000227187
0.00501081
-0.000218741
0.00502137
-0.000210612
0.00503165
-0.000202783
0.00504166
-0.000195233
0.00505139
-0.000187937
0.00506084
-0.000180868
0.00507003
-0.000173992
0.00507895
-0.000167276
0.00508762
-0.000160687
0.00509605
-0.000154199
0.00510425
-0.000147793
0.00511224
-0.000141466
0.00512002
-0.00013523
0.00512761
-0.000129114
0.005135
-0.000123161
0.00514219
-0.000117422
0.00514918
-0.000111949
0.00515595
-0.000106784
0.0051625
-0.000101955
0.00516882
-9.74705e-05
0.00517491
-9.33195e-05
0.00518075
-8.94738e-05
0.00518636
-8.58945e-05
0.00519173
-8.25383e-05
0.00519688
-7.93632e-05
0.00520181
-7.63326e-05
0.00520654
-7.34177e-05
0.00521107
-7.05977e-05
0.00521541
-6.7859e-05
0.00521958
-6.51935e-05
0.00522358
-6.25969e-05
0.00522742
-6.00672e-05
0.0052311
-5.76039e-05
-5.52073e-05
0.0049117
-0.000330027
-0.00490045
0.00492294
-0.000318443
0.00493416
-0.000307171
0.00494532
-0.000296222
0.00495639
-0.000285604
0.00496735
-0.000275318
0.00497818
-0.000265365
0.00498884
-0.000255746
0.00499934
-0.000246455
0.00500964
-0.000237489
0.00501973
-0.000228838
0.00502962
-0.000220492
0.00503927
-0.000212437
0.00504869
-0.000204654
0.00505788
-0.000197122
0.00506682
-0.000189814
0.00507553
-0.000182702
0.00508401
-0.000175756
0.00509227
-0.000168946
0.00510032
-0.000162246
0.00510817
-0.000155641
0.00511583
-0.000149126
0.00512331
-0.000142711
0.00513062
-0.000136423
0.00513775
-0.000130299
0.00514472
-0.000124386
0.0051515
-0.000118731
0.00515809
-0.000113374
0.00516448
-0.000108341
0.00517065
-0.000103643
0.0051766
-9.92696e-05
0.00518232
-9.51973e-05
0.00518782
-9.13909e-05
0.00519309
-8.7811e-05
0.00519815
-8.44184e-05
0.00520299
-8.11786e-05
0.00520764
-7.80639e-05
0.00521209
-7.50535e-05
0.00521637
-7.21336e-05
0.00522047
-6.92952e-05
0.00522441
-6.65333e-05
0.00522819
-6.3845e-05
0.00523181
-6.12292e-05
-5.86853e-05
0.00493098
-0.000339872
-0.00492114
0.00494092
-0.000328374
0.0049509
-0.000317151
0.00496089
-0.000306219
0.00497087
-0.000295586
0.00498081
-0.000285256
0.00499068
-0.000275234
0.00500046
-0.00026552
0.00501012
-0.000256114
0.00501964
-0.000247012
0.00502901
-0.000238208
0.00503821
-0.000229693
0.00504723
-0.000221457
0.00505606
-0.000213483
0.00506469
-0.000205754
0.00507312
-0.000198245
0.00508135
-0.000190933
0.00508938
-0.000183789
0.00509723
-0.000176787
0.00510488
-0.000169905
0.00511237
-0.000163128
0.0051197
-0.00015645
0.00512687
-0.000149882
0.00513389
-0.000143444
0.00514076
-0.000137172
0.00514748
-0.000131107
0.00515404
-0.000125291
0.00516043
-0.000119761
0.00516663
-0.000114544
0.00517264
-0.000109649
0.00517844
-0.000105069
0.00518402
-0.000100785
0.0051894
-9.67637e-05
0.00519456
-9.29708e-05
0.00519951
-8.93701e-05
0.00520426
-8.59292e-05
0.00520882
-8.26216e-05
0.00521319
-7.9427e-05
0.00521739
-7.63313e-05
0.00522142
-7.3325e-05
0.00522529
-7.04024e-05
0.005229
-6.75598e-05
0.00523257
-6.47954e-05
-6.21082e-05
0.00495047
-0.000348353
-0.00494199
0.00495911
-0.000337016
0.00496788
-0.000325917
0.00497673
-0.000315072
0.00498564
-0.000304492
0.00499456
-0.000294185
0.00500348
-0.000284154
0.00501237
-0.000274405
0.00502119
-0.000264939
0.00502994
-0.000255754
0.00503858
-0.000246847
0.00504709
-0.000238212
0.00505548
-0.00022984
0.00506371
-0.000221718
0.00507179
-0.00021383
0.0050797
-0.000206158
0.00508745
-0.00019868
0.00509503
-0.000191371
0.00510245
-0.000184208
0.00510972
-0.000177172
0.00511684
-0.000170248
0.00512382
-0.000163433
0.00513067
-0.000156733
0.00513739
-0.000150168
0.00514399
-0.000143769
0.00515046
-0.000137571
0.00515678
-0.000131614
0.00516295
-0.000125931
0.00516895
-0.000120548
0.00517478
-0.000115473
0.00518041
-0.000110704
0.00518585
-0.000106222
0.00519108
-0.000102
0.00519612
-9.80066e-05
0.00520096
-9.42084e-05
0.00520561
-9.05757e-05
0.00521007
-8.70833e-05
0.00521435
-8.37116e-05
0.00521847
-8.04465e-05
0.00522242
-7.7278e-05
0.00522622
-7.41998e-05
0.00522987
-7.12077e-05
0.00523337
-6.82992e-05
-6.54727e-05
0.00497002
-0.000355518
-0.00496286
0.00497742
-0.00034441
0.004985
-0.000333501
0.00499274
-0.000322808
0.00500059
-0.000312344
0.00500852
-0.000302118
0.00501651
-0.000292138
0.00502451
-0.00028241
0.00503251
-0.000272937
0.00504048
-0.00026372
0.00504839
-0.000254758
0.00505622
-0.000246049
0.00506397
-0.000237585
0.00507161
-0.000229356
0.00507913
-0.00022135
0.00508652
-0.000213552
0.00509378
-0.000205942
0.00510091
-0.000198499
0.00510791
-0.000191206
0.00511478
-0.000184042
0.00512153
-0.000176998
0.00512817
-0.000170068
0.00513469
-0.000163259
0.00514111
-0.000156587
0.00514742
-0.000150079
0.00515362
-0.000143768
0.00515969
-0.000137688
0.00516563
-0.000131871
0.00517143
-0.00012634
0.00517706
-0.000121104
0.00518251
-0.000116161
0.00518779
-0.000111498
0.00519288
-0.000107089
0.00519778
-0.000102908
0.0052025
-9.89244e-05
0.00520703
-9.51103e-05
0.00521139
-9.14422e-05
0.00521558
-8.79014e-05
0.00521961
-8.44738e-05
0.00522348
-8.11494e-05
0.0052272
-7.79213e-05
0.00523078
-7.4785e-05
0.00523421
-7.1737e-05
-6.87757e-05
0.00498954
-0.000361425
-0.00498363
0.00499573
-0.000350606
0.00500217
-0.000339944
0.00500883
-0.000329461
0.00501565
-0.00031917
0.00502262
-0.000309081
0.00502968
-0.000299204
0.00503682
-0.000289548
0.005044
-0.000280118
0.0050512
-0.000270918
0.00505839
-0.000261949
0.00506555
-0.000253209
0.00507266
-0.000244695
0.00507971
-0.000236401
0.00508667
-0.000228315
0.00509354
-0.000220426
0.00510032
-0.000212718
0.005107
-0.000205175
0.00511357
-0.000197779
0.00512004
-0.000190516
0.00512642
-0.000183375
0.0051327
-0.000176353
0.0051389
-0.000169455
0.00514501
-0.000162696
0.00515103
-0.000156098
0.00515695
-0.000149691
0.00516277
-0.000143506
0.00516847
-0.000137572
0.00517404
-0.00013191
0.00517947
-0.000126529
0.00518473
-0.000121431
0.00518984
-0.000116602
0.00519477
-0.000112022
0.00519953
-0.000107667
0.00520412
-0.00010351
0.00520853
-9.95257e-05
0.00521278
-9.56918e-05
0.00521687
-9.19906e-05
0.00522081
-8.84083e-05
0.00522459
-8.49348e-05
0.00522823
-8.15631e-05
0.00523174
-7.82879e-05
0.0052351
-7.51058e-05
-7.20143e-05
0.0050089
-0.000366137
-0.00500419
0.00501395
-0.000355657
0.0050193
-0.000345295
0.00502491
-0.000335072
0.00503075
-0.000325003
0.00503676
-0.0003151
0.00504294
-0.000305376
0.00504923
-0.00029584
0.00505561
-0.0002865
0.00506205
-0.000277361
0.00506853
-0.000268428
0.00507502
-0.000259701
0.00508151
-0.000251178
0.00508796
-0.000242856
0.00509437
-0.000234727
0.00510073
-0.000226783
0.00510702
-0.000219011
0.00511325
-0.000211397
0.00511939
-0.000203928
0.00512547
-0.000196591
0.00513147
-0.000189378
0.0051374
-0.000182286
0.00514327
-0.000175319
0.00514906
-0.00016849
0.00515478
-0.00016182
0.00516043
-0.000155334
0.00516598
-0.000149061
0.00517144
-0.000143027
0.00517678
-0.00013725
0.00518199
-0.000131742
0.00518706
-0.000126504
0.00519199
-0.000121526
0.00519676
-0.000116791
0.00520137
-0.000112276
0.00520581
-0.000107959
0.0052101
-0.000103816
0.00521424
-9.98266e-05
0.00521822
-9.59741e-05
0.00522206
-9.22453e-05
0.00522576
-8.86301e-05
0.00522931
-8.51212e-05
0.00523274
-8.17133e-05
0.00523604
-7.84023e-05
-7.51857e-05
0.00502802
-0.000369722
-0.00502444
0.00503199
-0.000359624
0.0050363
-0.000349605
0.00504091
-0.000339685
0.00504579
-0.000329882
0.0050509
-0.00032021
0.00505621
-0.000310682
0.00506168
-0.000301309
0.00506728
-0.000292102
0.00507299
-0.000283067
0.00507877
-0.00027421
0.0050846
-0.000265534
0.00509046
-0.000257041
0.00509634
-0.000248729
0.0051022
-0.000240593
0.00510805
-0.000232627
0.00511386
-0.000224822
0.00511963
-0.000217168
0.00512536
-0.000209653
0.00513103
-0.000202268
0.00513666
-0.000195006
0.00514224
-0.000187864
0.00514777
-0.000180848
0.00515325
-0.000173967
0.00515867
-0.000167242
0.00516403
-0.000160694
0.00516932
-0.000154348
0.00517452
-0.000148229
0.00517962
-0.000142355
0.00518462
-0.000136737
0.00518949
-0.000131376
0.00519423
-0.000126265
0.00519883
-0.000121389
0.00520328
-0.000116729
0.00520759
-0.000112265
0.00521175
-0.000107975
0.00521576
-0.000103841
0.00521963
-9.98474e-05
0.00522337
-9.59807e-05
0.00522697
-9.22314e-05
0.00523044
-8.85923e-05
0.00523379
-8.50578e-05
0.00523701
-8.16237e-05
-7.82872e-05
0.00504683
-0.000372251
-0.0050443
0.00504978
-0.00036257
0.0050531
-0.000352929
0.00505677
-0.00034335
0.00506073
-0.000333852
0.00506497
-0.000324448
0.00506944
-0.000315154
0.00507412
-0.000305984
0.00507896
-0.000296947
0.00508395
-0.000288054
0.00508905
-0.000279311
0.00509424
-0.000270724
0.0050995
-0.000262297
0.0051048
-0.000254029
0.00511013
-0.00024592
0.00511546
-0.000237965
0.0051208
-0.000230158
0.00512612
-0.000222492
0.00513143
-0.000214958
0.00513671
-0.000207549
0.00514196
-0.00020026
0.00514719
-0.00019309
0.00515238
-0.000186042
0.00515754
-0.000179128
0.00516266
-0.000172362
0.00516774
-0.000165767
0.00517275
-0.000159365
0.0051777
-0.000153178
0.00518257
-0.000147222