/*--------------------------------*- C++ -*----------------------------------*\
| =========                 |                                                 |
| \\      /  F ield         | OpenFOAM: The Open Source CFD Toolbox           |
|  \\    /   O peration     | Version:  2412                                  |
|   \\  /    A nd           | Website:  www.openfoam.com                      |
|    \\/     M anipulation  |                                                 |
\*---------------------------------------------------------------------------*/
FoamFile
{
    version     2.0;
    format      ascii;
    arch        "LSB;label=32;scalar=64";
    class       surfaceScalarField;
    location    "9.5";
    object      phi;
}
// * * * * * * * * * * * * * * * * * * * * * * * * * * * * * * * * * * * * * //

dimensions      [0 3 -1 0 0 0 0];

oriented        oriented;

internalField   nonuniform List<scalar> 
10387
(
0.00473721
1.18499e-05
-2.32556e-09
0.00472392
1.32879e-05
-2.31936e-09
0.00470904
1.48833e-05
-2.28049e-09
0.00469238
1.66634e-05
-2.27637e-09
0.00467372
1.86575e-05
-2.22119e-09
0.00465283
2.08961e-05
-2.15329e-09
0.00462942
2.34116e-05
-2.08233e-09
0.00460318
2.6239e-05
-2.01178e-09
0.00457377
2.9417e-05
-1.94303e-09
0.00454078
3.29898e-05
-1.87579e-09
0.00450377
3.70091e-05
-1.80865e-09
0.00446224
4.15368e-05
-1.73928e-09
0.00441559
4.66478e-05
-1.66408e-09
0.00436316
5.2434e-05
-1.57943e-09
0.00430415
5.90085e-05
-1.48184e-09
0.00423764
6.65114e-05
-1.36837e-09
0.00416253
7.51165e-05
-1.23736e-09
0.00407749
8.50397e-05
-1.08887e-09
0.00398094
9.65497e-05
-9.25561e-10
0.00387096
0.000109979
-7.50881e-10
0.00374523
0.000125733
-5.70002e-10
0.00360093
0.000144297
-3.89461e-10
0.00343471
0.000166223
-2.16014e-10
0.00324262
0.000192094
-5.61621e-11
0.0030202
0.000222419
8.34373e-11
0.00276275
0.000257451
1.97101e-10
0.0024659
0.000296844
2.78284e-10
0.00212678
0.000339119
3.21038e-10
0.00174594
0.000380846
3.21241e-10
0.00133044
0.000415494
2.80484e-10
0.000898466
0.000431976
2.1394e-10
0.000485626
0.00041284
1.54075e-10
0.000154087
0.000331539
1.37822e-10
0.000154087
1.28255e-10
0.00471462
2.50631e-05
0.00469996
2.79467e-05
0.0046837
3.11456e-05
0.00466565
3.47143e-05
0.0046456
3.87111e-05
0.0046233
4.31969e-05
0.00459847
4.82363e-05
0.00457081
5.38991e-05
0.00453997
6.02629e-05
0.00450554
6.74161e-05
0.00446709
7.54623e-05
0.0044241
8.45253e-05
0.00437599
9.47553e-05
0.00432209
0.000106336
0.0042616
0.000119493
0.00419361
0.000134505
0.00411701
0.000151718
0.00403049
0.000171562
0.00393247
0.000194567
0.00382106
0.000221392
0.00369395
0.000252836
0.0035484
0.00028985
0.00338111
0.000333514
0.00318825
0.000384953
0.00296553
0.00044514
0.00270847
0.000514513
0.002413
0.000592309
0.00207662
0.0006755
0.00170027
0.000757199
0.00129135
0.000824406
0.00086823
0.0008551
0.00046617
0.0008149
0.000145104
0.000652605
0.000299191
0.0046698
4.09818e-05
0.00465242
4.53242e-05
0.00463342
5.01412e-05
0.00461262
5.55141e-05
0.00458981
6.15292e-05
0.00456472
6.82775e-05
0.00453711
7.58557e-05
0.00450664
8.43682e-05
0.00447297
9.39315e-05
0.0044357
0.000104679
0.0043944
0.000116765
0.00434855
0.000130378
0.00429756
0.000145741
0.00424077
0.00016313
0.00417738
0.000182883
0.00410647
0.000205416
0.00402695
0.000231242
0.00393751
0.000260997
0.00383661
0.000295466
0.00372239
0.000335615
0.00359261
0.000382612
0.00344462
0.000437838
0.00327529
0.000502844
0.00308103
0.000579223
0.00285786
0.000668304
0.00260179
0.000770583
0.00230936
0.000884736
0.0019788
0.00100607
0.00161179
0.0011242
0.00121631
0.00121989
0.000810796
0.00126062
0.00043007
0.00119563
0.000131326
0.000951349
0.000430517
0.0046034
6.08941e-05
0.00458201
6.6712e-05
0.00455899
7.31652e-05
0.00453414
8.03612e-05
0.00450726
8.84139e-05
0.00447809
9.74438e-05
0.00444637
0.000107579
0.00441178
0.000118959
0.00437397
0.000131738
0.00433255
0.000146095
0.00428708
0.000162238
0.00423704
0.000180416
0.00418185
0.00020093
0.00412084
0.000224145
0.00405321
0.000250509
0.00397806
0.000280572
0.00389429
0.000315011
0.00380063
0.000354658
0.00369556
0.000400534
0.00357728
0.000453888
0.00344368
0.000516219
0.00329224
0.000589275
0.00312009
0.000674996
0.002924
0.000775316
0.00270054
0.000891761
0.00244643
0.00102469
0.00215918
0.001172
0.00183808
0.00132716
0.00148591
0.00147637
0.00111127
0.00159453
0.000732196
0.00163969
0.000381606
0.00154622
0.000111682
0.00122127
0.0005422
0.00451642
8.60171e-05
0.0044898
9.33263e-05
0.00446153
0.000101434
0.00443142
0.000110472
0.00439925
0.000120582
0.00436479
0.000131912
0.00432774
0.000144622
0.00428782
0.000158885
0.00424466
0.000174897
0.00419787
0.000192879
0.00414702
0.000213094
0.00409158
0.000235853
0.00403098
0.000261532
0.00396454
0.000290587
0.00389147
0.000323574
0.00381087
0.000361172
0.00372167
0.000404213
0.00362262
0.00045371
0.00351225
0.0005109
0.00338887
0.000577276
0.00325048
0.00065461
0.00309482
0.000744934
0.00291937
0.000850446
0.00272143
0.000973251
0.00249835
0.00111484
0.0022479
0.00127514
0.00196887
0.00145102
0.00166212
0.00163392
0.0013318
0.00180669
0.000987159
0.00193917
0.000644941
0.00198191
0.000332964
0.00185819
9.23328e-05
0.0014619
0.000634532
0.00441012
0.00011748
0.00437715
0.000126293
0.00434251
0.00013607
0.00430602
0.000146967
0.00426745
0.000159151
0.00422656
0.000172798
0.00418309
0.000188099
0.00413671
0.000205262
0.00408709
0.00022452
0.00403382
0.000246143
0.00397647
0.000270445
0.00391452
0.000297802
0.00384739
0.000328664
0.0037744
0.000363579
0.00369477
0.000403206
0.00360759
0.000448351
0.00351182
0.000499985
0.00340624
0.00055929
0.00328945
0.000627682
0.00315988
0.000706848
0.00301574
0.000798746
0.00285512
0.000905563
0.002676
0.00102956
0.00247652
0.00117274
0.00225517
0.00133619
0.00201131
0.001519
0.00174581
0.00171652
0.00146182
0.0019179
0.00116563
0.00210289
0.000867412
0.00223738
0.000581612
0.00226771
0.000325523
0.00211428
0.000112559
0.00167487
0.000747091
0.00428636
0.000156258
0.00424608
0.000166575
0.00420413
0.000178022
0.00416032
0.000190779
0.00411443
0.000205037
0.00406623
0.000221001
0.00401543
0.00023889
0.00396175
0.000258947
0.00390482
0.000281446
0.00384427
0.000306699
0.00377963
0.000335078
0.00371042
0.00036702
0.00363603
0.000403054
0.00355579
0.000443813
0.00346894
0.000490063
0.00337456
0.000542727
0.00327163
0.000602913
0.00315898
0.000671947
0.00303526
0.000751399
0.00289901
0.000843094
0.00274867
0.000949088
0.00258266
0.00107158
0.00239956
0.00121265
0.00219843
0.00137388
0.00197917
0.00155545
0.0017432
0.00175496
0.00149419
0.00196553
0.00123879
0.0021733
0.000987298
0.00235438
0.000753177
0.0024715
0.000550372
0.00247052
0.00038383
0.00228082
0.000232736
0.00182596
0.000979827
-2.7076e-05
2.70721e-05
3.86631e-09
-6.3156e-05
3.60723e-05
7.7679e-09
-8.21618e-05
1.89968e-05
9.03726e-09
-7.06867e-05
-1.14839e-05
8.83402e-09
-2.31374e-05
-4.75575e-05
8.10935e-09
6.16119e-05
-8.47563e-05
7.06324e-09
0.000181438
-0.000119832
5.87663e-09
0.000332489
-0.000151056
4.70191e-09
0.000509897
-0.000177411
3.59065e-09
0.000708363
-0.000198469
2.57288e-09
0.000922565
-0.000214203
1.6679e-09
0.00114741
-0.000224849
8.8667e-10
0.00137823
-0.000230818
2.37861e-10
0.00161085
-0.00023262
-2.87141e-10
0.00184167
-0.00023082
-6.86568e-10
0.00206767
-0.000225996
-9.58215e-10
0.00228638
-0.000218714
-1.09312e-09
0.00249589
-0.000209508
-1.07029e-09
0.00269476
-0.000198869
-8.45686e-10
0.002882
-0.000187238
-2.51357e-10
0.003057
-0.000175001
2.7842e-10
-0.000162488
1.62102e-09
-2.34514e-05
5.05235e-05
-5.17943e-05
6.44152e-05
-6.26169e-05
2.98193e-05
-4.45663e-05
-2.95345e-05
8.03971e-06
-0.000100163
9.55174e-05
-0.000172234
0.000216203
-0.000240518
0.000366474
-0.000301327
0.000541748
-0.000352685
0.000737045
-0.000393766
0.00094734
-0.000424498
0.00116782
-0.000445325
0.00139402
-0.000457025
0.00162199
-0.000460585
0.00184826
-0.000457092
0.00206993
-0.000447669
0.00228463
-0.000433415
0.0024905
-0.000415371
0.00268612
-0.000394497
0.00287054
-0.000371655
0.00304314
-0.000347601
-0.000322985
-1.6014e-05
6.65374e-05
-3.017e-05
7.85712e-05
-2.52931e-05
2.49424e-05
5.19971e-06
-6.00272e-05
6.55015e-05
-0.000160465
0.000157449
-0.000264182
0.000279077
-0.000362146
0.000427188
-0.000449438
0.000597824
-0.000523321
0.00078663
-0.000582572
0.000989165
-0.000627033
0.00120112
-0.000657279
0.00141847
-0.00067438
0.0016376
-0.000679713
0.00185533
-0.000674816
0.00206894
-0.000661285
0.00227622
-0.000640696
0.0024754
-0.000614547
0.00266513
-0.000584224
0.00284445
-0.000550977
0.00301275
-0.000515907
-0.000479957
-2.88587e-06
6.94233e-05
2.52567e-06
7.31597e-05
2.57643e-05
1.70371e-06
6.99518e-05
-0.000104215
0.000140742
-0.000231256
0.000237352
-0.000360792
0.000358561
-0.000483355
0.000502098
-0.000592974
0.000664958
-0.000686181
0.000843711
-0.000761325
0.00103474
-0.000818061
0.00123444
-0.000856975
0.00143935
-0.000879294
0.0016463
-0.000886661
0.00185243
-0.000880952
0.00205529
-0.000864145
0.00225281
-0.00083821
0.0024433
-0.000805037
0.00262546
-0.00076639
0.00279835
-0.000723867
0.00296133
-0.000678882
-0.000632655
1.18366e-05
5.75867e-05
3.97076e-05
4.52887e-05
8.24816e-05
-4.10703e-05
0.000144857
-0.00016659
0.000225309
-0.000311707
0.000324443
-0.000459926
0.00044209
-0.000601002
0.000577299
-0.000728183
0.000728398
-0.00083728
0.000893158
-0.000926086
0.00106898
-0.000993885
0.00125308
-0.00104108
0.00144265
-0.00106886
0.00163498
-0.00107898
0.00182754
-0.00107351
0.00201809
-0.00105469
0.00220467
-0.00102479
0.00238566
-0.000986028
0.00255975
-0.000940485
0.00272596
-0.000890074
0.00288357
-0.000836494
0.00303214
-0.000781226
-0.000725526
3.15247e-05
2.6062e-05
8.73054e-05
-1.0492e-05
0.000152262
-0.000106027
0.000228168
-0.000242496
0.000313821
-0.00039736
0.00041032
-0.000556426
0.000518943
-0.000709625
0.00064042
-0.00084966
0.000774696
-0.000971557
0.000920952
-0.00107234
0.00107774
-0.00115067
0.00124315
-0.00120649
0.00141501
-0.00124073
0.00159104
-0.00125501
0.00176898
-0.00125145
0.0019467
-0.00123241
0.00212229
-0.00120038
0.00229409
-0.00115782
0.0024607
-0.0011071
0.00262102
-0.0010504
0.00277422
-0.000989698
0.00291973
-0.00092673
-0.000862976
5.94568e-05
-3.33948e-05
0.000141693
-9.27281e-05
0.000227038
-0.000191371
0.00031027
-0.000325729
0.000393331
-0.000480421
0.000479501
-0.000642596
0.000572205
-0.000802329
0.000674161
-0.000951615
0.000787018
-0.00108441
0.000911333
-0.00119666
0.00104671
-0.00128604
0.00119199
-0.00135177
0.00134551
-0.00139424
0.00150526
-0.00141477
0.00166912
-0.00141531
0.00183496
-0.00139826
0.0020008
-0.00136622
0.00216484
-0.00132186
0.00232553
-0.00126779
0.0024816
-0.00120647
0.00263205
-0.00114014
0.00277612
-0.0010708
-0.00100016
0.000294093
-0.000276012
-5.1476e-05
0.000541461
-0.000340096
0.000785527
-0.000435437
0.00102232
-0.000562517
0.00125032
-0.000708423
0.00146858
-0.000860861
0.00167669
-0.00101044
0.00187473
-0.00114965
0.00206306
-0.00127274
0.00224213
-0.00137573
0.00241242
-0.00145633
0.00257433
-0.00151368
0.0027282
-0.00154811
0.00287431
-0.00156088
0.0030129
-0.00155389
0.00314415
-0.00152952
0.00326829
-0.00149035
0.00338551
-0.00143908
0.00349603
-0.00137831
0.00360008
-0.00131052
0.00369792
-0.00123798
0.0037898
-0.00116269
0.00387601
-0.00108637
0.00075045
-0.000515341
-0.000511122
0.000997072
-0.000586717
0.00123998
-0.000678342
0.00147301
-0.000795551
0.00169405
-0.000929465
0.00190245
-0.00106925
0.00209814
-0.00120613
0.00228149
-0.00133301
0.00245315
-0.0014444
0.00261386
-0.00153644
0.00276441
-0.00160688
0.00290552
-0.0016548
0.00303791
-0.0016805
0.00316219
-0.00168516
0.00327893
-0.00167063
0.00338866
-0.00163924
0.00349184
-0.00159354
0.00358891
-0.00153615
0.00368027
-0.00146967
0.00376628
-0.00139654
0.0038473
-0.00131899
0.00392363
-0.00123902
-0.00115832
0.00141733
-0.000711318
-0.00122135
0.0016242
-0.000793591
0.0018346
-0.000888737
0.00203988
-0.00100084
0.0022355
-0.00112509
0.00241942
-0.00125317
0.00259079
-0.0013775
0.00274957
-0.00149178
0.00289618
-0.00159101
0.00303136
-0.00167162
0.00315598
-0.00173149
0.00327095
-0.00176978
0.00337721
-0.00178676
0.00347565
-0.00178359
0.00356709
-0.00176207
0.00365228
-0.00172444
0.00373193
-0.00167318
0.00380663
-0.00161085
0.00387693
-0.00153997
0.00394329
-0.00146289
0.0040061
-0.00138181
0.0040657
-0.00129862
-0.00121499
0.00221382
-0.000850125
-0.00207501
0.0023659
-0.000945677
0.00252685
-0.00104968
0.00268828
-0.00116227
0.00284431
-0.00128111
0.00299161
-0.00140048
0.00312845
-0.00151434
0.00325409
-0.00161743
0.00336856
-0.00170548
0.00347236
-0.00177543
0.00356629
-0.00182542
0.00365131
-0.00185479
0.00372842
-0.00186388
0.00379865
-0.00185382
0.00386298
-0.0018264
0.00392229
-0.00178376
0.00397741
-0.0017283
0.00402903
-0.00166247
0.00407776
-0.0015887
0.00412411
-0.00150924
0.00416848
-0.00142618
0.00421119
-0.00134133
-0.00125627
0.00306539
-0.000929678
-0.00298584
0.00315938
-0.00103966
0.00326493
-0.00115524
0.00337508
-0.00127242
0.00348383
-0.00138986
0.00358731
-0.00150395
0.00368316
-0.00161019
0.00377017
-0.00170444
0.00384797
-0.00178328
0.00391679
-0.00184425
0.00397729
-0.00188591
0.00403034
-0.00190784
0.00407695
-0.00191049
0.00411818
-0.00189505
0.00415502
-0.00186324
0.00418843
-0.00181717
0.00421925
-0.00175912
0.00424821
-0.00169143
0.00427591
-0.0016164
0.00430284
-0.00153617
0.00432937
-0.00145271
0.00435577
-0.00136773
-0.00128272
0.00390681
-0.000954684
-0.00388181
0.00394645
-0.0010793
0.00399823
-0.00120702
0.00405677
-0.00133096
0.00411675
-0.00144984
0.00417438
-0.00156158
0.00422718
-0.00166299
0.00427372
-0.00175097
0.0043134
-0.00182296
0.00434628
-0.00187713
0.00437286
-0.0019125
0.00439393
-0.00192891
0.00441043
-0.00192699
0.00442336
-0.00190798
0.00443371
-0.00187359
0.00444238
-0.00182584
0.00445019
-0.00176693
0.00445782
-0.00169906
0.00446583
-0.00162441
0.00447466
-0.001545
0.00448459
-0.00146264
0.00449584
-0.00137897
-0.00129536
0.00468605
-0.000934098
-0.00470664
0.00467938
-0.00107263
0.00468387
-0.0012115
0.00469553
-0.00134262
0.00471011
-0.00146442
0.00472432
-0.0015758
0.00473595
-0.00167461
0.00474362
-0.00175864
0.00474673
-0.00182607
0.00474526
-0.00187567
0.00473965
-0.00190688
0.00473059
-0.00191986
0.00471896
-0.00191536
0.00470569
-0.0018947
0.00469167
-0.00185957
0.00467776
-0.00181193
0.00466469
-0.00175385
0.00465307
-0.00168744
0.00464336
-0.00161471
0.00463592
-0.00153756
0.00463097
-0.00145769
0.0046286
-0.0013766
-0.0012956
0.00536653
-0.000879302
-0.00542133
0.00532385
-0.00102995
0.00529027
-0.00117792
0.00526294
-0.00131528
0.00523876
-0.00144024
0.00521521
-0.00155225
0.00519054
-0.00164994
0.00516368
-0.00173178
0.00513417
-0.00179656
0.00510206
-0.00184356
0.00506778
-0.0018726
0.00503199
-0.00188407
0.00499551
-0.00187888
0.00495918
-0.00185838
0.00492384
-0.00182423
0.00489024
-0.00177833
0.00485903
-0.00172264
0.00483071
-0.00165912
0.00480567
-0.00158967
0.00478416
-0.00151605
0.0047663
-0.00143983
0.00475212
-0.00136242
-0.00128502
0.00592756
-0.000802314
-0.00600455
0.00585984
-0.000962228
0.00579842
-0.0011165
0.00574142
-0.00125828
0.00568685
-0.00138568
0.00563304
-0.00149844
0.00557881
-0.00159572
0.00552351
-0.00167648
0.00546695
-0.00174
0.00540933
-0.00178594
0.00535114
-0.00181441
0.00529306
-0.00182599
0.00523587
-0.00182169
0.00518037
-0.00180288
0.00512732
-0.00177118
0.00507738
-0.0017284
0.00503112
-0.00167637
0.00498895
-0.00161695
0.00495117
-0.00155189
0.00491794
-0.00148282
0.0048893
-0.00141119
0.0048652
-0.00133832
-0.00126531
0.00636291
-0.000714208
-0.00645101
0.00628044
-0.000879755
0.0062011
-0.00103717
0.00612384
-0.00118101
0.00604767
-0.00130951
0.00597171
-0.00142249
0.00589541
-0.00151941
0.00581856
-0.00159963
0.00574128
-0.00166272
0.00566397
-0.00170863
0.00558725
-0.00173768
0.00551183
-0.00175057
0.0054385
-0.00174836
0.00536803
-0.00173241
0.00530113
-0.00170428
0.00523839
-0.00166566
0.0051803
-0.00161829
0.00512721
-0.00156386
0.00507933
-0.00150401
0.00503676
-0.00144024
0.00499947
-0.0013739
0.00496734
-0.00130619
-0.00123814
0.00667797
-0.000624008
-0.00676817
0.00658945
-0.000791238
0.00650087
-0.000948593
0.00641187
-0.00109201
0.00632229
-0.00121994
0.00623198
-0.00133218
0.00614093
-0.00142836
0.00604936
-0.00150806
0.00595772
-0.00157108
0.00586661
-0.00161753
0.00577678
-0.00164785
0.00568902
-0.00166281
0.00560413
-0.00166347
0.00552288
-0.00165116
0.00544594
-0.00162733
0.00537386
-0.00159358
0.00530708
-0.00155151
0.00524589
-0.00150267
0.00519046
-0.00144858
0.00514081
-0.00139059
0.00509688
-0.00132998
0.00505852
-0.00126783
-0.00120511
0.00688618
-0.000538197
-0.00697199
0.00679826
-0.000703319
0.00670733
-0.00085766
0.00661363
-0.000998301
0.00651764
-0.00112395
0.00641978
-0.00123432
0.00632051
-0.00132909
0.00622043
-0.00140798
0.00612024
-0.00147089
0.00602077
-0.00151805
0.00592286
-0.00154994
0.0058274
-0.00156734
0.00573521
-0.00157129
0.00564707
-0.00156301
0.00556362
-0.00154389
0.00548541
-0.00151537
0.00541282
-0.00147892
0.00534613
-0.00143598
0.00528546
-0.0013879
0.00523081
-0.00133595
0.0051821
-0.00128127
0.00513914
-0.00122487
-0.00116765
0.00700542
-0.000460715
-0.0070829
0.00692259
-0.000620496
0.00683429
-0.000769354
0.00674121
-0.000905226
0.0066443
-0.00102704
0.00654439
-0.0011344
0.00644229
-0.00122699
0.00633888
-0.00130457
0.0062351
-0.00136711
0.00613191
-0.00141486
0.00603028
-0.00144831
0.00593114
-0.0014682
0.00583536
-0.00147551
0.00574372
-0.00147137
0.00565686
-0.00145703
0.00557532
-0.00143382
0.00549946
-0.00140306
0.00542953
-0.00136606
0.00536566
-0.00132403
0.00530784
-0.00127812
0.00525596
-0.00122939
0.00520985
-0.00117876
-0.00112706
0.00705486
-0.000393361
-0.00712222
0.00697972
-0.000545352
0.00689723
-0.000686868
0.00680844
-0.000816436
0.00671455
-0.000933149
0.00661666
-0.00103652
0.00651584
-0.00112617
0.00641316
-0.00120189
0.0063097
-0.00126365
0.00620653
-0.00131169
0.0061047
-0.00134647
0.00600517
-0.00136868
0.00590885
-0.00137919
0.0058165
-0.00137903
0.0057288
-0.00136933
0.00564624
-0.00135127
0.00556922
-0.00132604
0.00549797
-0.00129481
0.00543261
-0.00125867
0.00537315
-0.00121866
0.00531949
-0.00117573
0.00527146
-0.00113073
-0.00108443
0.00705271
-0.000336376
-0.0071097
0.00698633
-0.000478969
0.00691138
-0.000611921
0.00682909
-0.00073414
0.00674077
-0.000844834
0.00664769
-0.000943432
0.00655103
-0.00102952
0.00645199
-0.00110284
0.00635173
-0.00116339
0.00625137
-0.00121134
0.00615199
-0.0012471
0.00605459
-0.00127128
0.00596008
-0.00128467
0.00586922
-0.00128817
0.00578267
-0.00128278
0.00570095
-0.00126955
0.00562445
-0.00124954
0.0055534
-0.00122376
0.00548794
-0.00119321
0.00542809
-0.00115881
0.00537378
-0.00112142
0.00532485
-0.00108181
-0.00104068
0.00701478
-0.000289023
-0.00706214
0.00695719
-0.000421378
0.0068904
-0.000545125
0.00681567
-0.000659409
0.00673435
-0.000763519
0.00664774
-0.000856822
0.00655708
-0.000938855
0.00646359
-0.00100935
0.00636846
-0.00106826
0.00627284
-0.00111571
0.00617779
-0.00115205
0.00608431
-0.0011778
0.00599329
-0.00119365
0.00590551
-0.00120039
0.00582161
-0.00119888
0.00574211
-0.00119005
0.0056674
-0.00117482
0.00559772
-0.00115409
0.00553323
-0.00112872
0.00547398
-0.00109955
0.0054199
-0.00106734
0.00537089
-0.0010328
-0.000996557
0.00695389
-0.000250071
-0.00699284
0.00690448
-0.000371969
0.0068457
-0.000486348
0.0067788
-0.000592502
0.00670505
-0.000689772
0.00662572
-0.000777492
0.00654203
-0.000855168
0.00645519
-0.00092251
0.00636635
-0.000979423
0.00627664
-0.001026
0.00618711
-0.00106251
0.00609872
-0.00108941
0.00601233
-0.00110727
0.00592871
-0.00111676
0.00584849
-0.00111866
0.00577217
-0.00111374
0.00570015
-0.0011028
0.0056327
-0.00108663
0.00556997
-0.001066
0.00551205
-0.00104163
0.0054589
-0.00101419
0.00541044
-0.000984342
-0.000952651
0.0068798
-0.000218135
-0.00691174
0.00683764
-0.000329812
0.00678631
-0.00043502
0.00672696
-0.000533148
0.00666076
-0.000623576
0.0065889
-0.00070563
0.00651253
-0.000778799
0.0064328
-0.000842775
0.00635081
-0.000897431
0.00626762
-0.000942813
0.00618424
-0.000979135
0.00610159
-0.00100676
0.0060205
-0.00102617
0.00594169
-0.00103796
0.00586578
-0.00104275
0.00579327
-0.00104123
0.00572455
-0.00103408
0.0056599
-0.00102198
0.00559949
-0.0010056
0.00554343
-0.000985559
0.00549171
-0.000962477
0.00544429
-0.000936918
-0.000909416
0.00679956
-0.000191894
-0.0068258
0.00676363
-0.000293883
0.00671896
-0.000390357
0.00666659
-0.000480773
0.00660756
-0.000564547
0.00654294
-0.000641013
0.0064738
-0.000709661
0.0064012
-0.00077017
0.00632616
-0.000822389
0.00624967
-0.000866324
0.00617267
-0.000902136
0.00609603
-0.000930117
0.00602052
-0.000950671
0.00594685
-0.000964282
0.00587559
-0.000971494
0.00580724
-0.000972877
0.00574218
-0.000969014
0.00568069
-0.000960489
0.00562296
-0.000947869
0.00556911
-0.000931709
0.00551917
-0.000912542
0.00547313
-0.000890875
-0.00086719
0.00671795
-0.000170194
-0.00673965
0.00668726
-0.000263193
0.00664842
-0.000351516
0.00660232
-0.000434669
0.00654987
-0.000512103
0.00649203
-0.000583176
0.00642976
-0.00064739
0.00636402
-0.000704422
0.00629573
-0.000754103
0.00622582
-0.000796411
0.00615514
-0.000831456
0.00608449
-0.000859472
0.00601461
-0.000880791
0.00594615
-0.000895816
0.00587965
-0.000904999
0.0058156
-0.00090882
0.00575435
-0.000907771
0.00569621
-0.000902344
0.00564137
-0.000893027
0.00558995
-0.000880297
0.00554203
-0.000864622
0.00549761
-0.000846452
-0.000826221
0.00663805
-0.000152083
-0.00665616
0.00661172
-0.000236865
0.00657789
-0.000317685
0.00653732
-0.000394094
0.00649079
-0.000465579
0.00643915
-0.000531531
0.00638323
-0.000591473
0.0063239
-0.000645088
0.00626199
-0.000692198
0.00619834
-0.000732756
0.00613372
-0.000766838
0.00606887
-0.000794625
0.00600447
-0.000816389
0.00594111
-0.000832459
0.00587933
-0.000843213
0.00581955
-0.000849048
0.00576216
-0.000850375
0.00570742
-0.000847608
0.00565555
-0.000841159
0.0056067
-0.00083144
0.00556093
-0.000818856
0.00551828
-0.000803805
-0.000786676
0.00656166
-0.000136809
-0.00657693
0.00653894
-0.000214151
0.00650939
-0.000288132
0.00647364
-0.000358342
0.00643236
-0.000424304
0.00638628
-0.000485451
0.00633614
-0.000541332
0.00628269
-0.00059164
0.00622669
-0.000636197
0.00616887
-0.000674939
0.00610995
-0.000707913
0.00605058
-0.000735261
0.00599139
-0.000757199
0.00593294
-0.000774001
0.0058757
-0.000785973
0.00582009
-0.000793445
0.00576647
-0.000796755
0.00571511
-0.000796248
0.00566623
-0.000792271
0.00561996
-0.000785174
0.00557641
-0.000775308
0.00553563
-0.000763023
-0.000748665
0.00648971
-0.000123787
-0.00650273
0.00647
-0.000194434
0.00644408
-0.000262219
0.00641251
-0.000326769
0.00637585
-0.000387644
0.00633472
-0.000444319
0.00628976
-0.000496376
0.00624165
-0.000543523
0.00619103
-0.000585584
0.00613858
-0.000622486
0.00608492
-0.000654255
0.00603066
-0.000681001
0.00597636
-0.000702896
0.00592252
-0.000720163
0.0058696
-0.000733052
0.00581798
-0.00074183
0.005768
-0.000746776
0.00571993
-0.000748173
0.00567397
-0.00074631
0.00563027
-0.000741482
0.00558896
-0.000733991
0.00555008
-0.000724145
-0.000712252
0.00642259
-0.000112573
-0.0064338
0.00640536
-0.000177214
0.00638255
-0.000239405
0.00635459
-0.00029881
0.00632197
-0.000355021
0.00628521
-0.000407562
0.00624488
-0.000456043
0.00620155
-0.000500194
0.00615581
-0.000539843
0.00610824
-0.000574916
0.0060594
-0.000605421
0.00600985
-0.000631444
0.00596007
-0.000653122
0.00591054
-0.000670634
0.00586167
-0.000684183
0.00581383
-0.000693984
0.00576732
-0.000700262
0.00572239
-0.000703248
0.00567926
-0.000703179
0.00563808
-0.000700304
0.00559897
-0.00069488
0.005562
-0.000687175
-0.000677463
0.00636029
-0.000102825
-0.00637004
0.00634516
-0.000162085
0.006325
-0.000219236
0.00630016
-0.000273974
0.00627106
-0.000325926
0.00623816
-0.000374658
0.00620193
-0.000419813
0.00616288
-0.000461142
0.00612152
-0.000498483
0.00607836
-0.00053176
0.00603392
-0.000560974
0.00598866
-0.000586188
0.00594305
-0.000607513
0.00589751
-0.000625092
0.00585242
-0.000639087
0.0058081
-0.000649669
0.00576486
-0.000657018
0.00572293
-0.000661317
0.00568251
-0.000662761
0.00564376
-0.000661556
0.0056068
-0.00065792
0.00557171
-0.000652087
-0.000644298
0.00630265
-9.42849e-05
-0.00631119
0.00628929
-0.000148722
0.00627139
-0.000201334
0.00624926
-0.000251843
0.00622324
-0.000299912
0.00619373
-0.000345144
0.00616113
-0.000387217
0.00612589
-0.000425901
0.00608846
-0.000461048
0.00604928
-0.000492583
0.0060088
-0.0005205
0.00596747
-0.00054485
0.00592567
-0.000565718
0.0058838
-0.000583221
0.0058422
-0.000597484
0.00580117
-0.000608643
0.00576099
-0.000616837
0.00572188
-0.000622211
0.00568404
-0.000624921
0.00564762
-0.000625136
0.00561275
-0.000623041
0.0055795
-0.000618837
-0.000612739
0.00624937
-8.67499e-05
-0.00625691
0.00623751
-0.000136861
0.00622156
-0.000185382
0.00620178
-0.000232061
0.00617846
-0.000276591
0.00615193
-0.000318614
0.00612255
-0.000357838
0.0060907
-0.000394053
0.00605677
-0.000427124
0.00602117
-0.000456981
0.00598429
-0.000483617
0.00594651
-0.000507067
0.00590819
-0.000527404
0.00586969
-0.000544716
0.00583131
-0.000559103
0.00579333
-0.000570667
0.00575601
-0.000579515
0.00571955
-0.000585758
0.00568415
-0.000589518
0.00564995
-0.000590934
0.00561707
-0.000590159
0.0055856
-0.000587368
-0.000582749
0.00620011
-8.00619e-05
-0.0062068
0.00618954
-0.000126287
0.00617527
-0.000171117
0.00615754
-0.000214326
0.00613658
-0.000255633
0.00611268
-0.000294715
0.00608615
-0.000331308
0.00605732
-0.000365223
0.00602654
-0.000396339
0.00599415
-0.000424592
0.0059605
-0.000449973
0.00592595
-0.00047251
0.0058908
-0.00049226
0.00585538
-0.000509294
0.00581996
-0.000523686
0.00578481
-0.000535512
0.00575015
-0.000544852
0.00571617
-0.000551786
0.00568307
-0.00055641
0.00565097
-0.000558833
0.00561999
-0.000559184
0.00559023
-0.000557612
-0.000554283
0.00615454
-7.40944e-05
-0.00616051
0.00614507
-0.000116822
0.00613227
-0.000158319
0.00611633
-0.00019838
0.00609745
-0.00023675
0.00607587
-0.000273138
0.00605187
-0.000307305
0.00602573
-0.000339084
0.00599775
-0.000368364
0.00596825
-0.00039509
0.00593753
-0.000419253
0.00590589
-0.000440875
0.00587364
-0.000460003
0.00584103
-0.00047669
0.00580834
-0.000490992
0.00577579
-0.000502963
0.0057436
-0.000512656
0.00571194
-0.000520131
0.00568099
-0.000525456
0.00565087
-0.000528718
0.00562171
-0.000530022
0.00559359
-0.000529497
-0.000527289
0.00611231
-6.8744e-05
-0.00611766
0.00610381
-0.000108319
0.00609229
-0.000146802
0.00607792
-0.000184004
0.00606086
-0.000219697
0.00604134
-0.000253616
0.00601958
-0.000285549
0.00599584
-0.000315344
0.00597039
-0.000342905
0.00594348
-0.000368184
0.0059154
-0.000391173
0.00588642
-0.000411891
0.00585679
-0.000430375
0.00582676
-0.000446665
0.00579657
-0.0004608
0.00576642
-0.000472817
0.00573652
-0.000482749
0.00570702
-0.000490633
0.00567808
-0.000496519
0.00564984
-0.000500473
0.00562239
-0.00050258
0.00559585
-0.000502949
-0.000501709
0.00607315
-0.00607796
0.00606548
-0.000100652
0.00605508
-0.000136404
0.00604209
-0.00017101
0.00602665
-0.000204259
0.00600895
-0.000235917
0.00598919
-0.000265791
0.0059676
-0.000293749
0.0059444
-0.000319704
0.00591983
-0.000343616
0.00589413
-0.000365479
0.00586756
-0.000385311
0.00584032
-0.00040314
0.00581265
-0.000418996
0.00578476
-0.000432906
0.00575683
-0.000444888
0.00572904
-0.000454961
0.00570155
-0.000463144
0.0056745
-0.000469469
0.00564801
-0.000473986
0.0056222
-0.000476762
0.00559714
-0.000477892
-0.000477488
0.00602984
0.00602043
0.00600865
0.00599464
0.00597856
0.00596059
0.00594092
0.00591974
0.00589728
0.00587375
0.00584936
0.00582431
0.0057988
0.00577301
0.00574713
0.0057213
0.00569568
0.00567039
0.00564555
0.00562127
0.00559763
0.000781913
0.000117868
-0.000899782
0.000653056
0.000128857
0.000519466
0.00013359
0.000385662
0.000133804
0.000253972
0.00013169
0.00013338
0.000120591
8.19044e-05
0.00220937
0.000359933
-0.00245144
0.00193936
0.000398866
0.00165173
0.000421224
0.00135512
0.000430415
0.00105861
0.000428196
0.000774938
0.000404265
0.000345721
0.00347055
0.000645668
-0.00375628
0.00313865
0.000730762
0.00277387
0.000786007
0.00238873
0.00081555
0.00199467
0.000822256
0.00160442
0.000794524
0.000728785
0.00453316
0.000915061
-0.00480256
0.00420295
0.00106097
0.00382436
0.00116459
0.00341076
0.00122915
0.00297455
0.00125846
0.00252754
0.00124153
0.00118132
0.00537499
0.0011315
-0.00559143
0.00508974
0.00134623
0.00474442
0.00150991
0.00435035
0.00162323
0.00391935
0.00168946
0.00346171
0.00169918
0.00165719
0.00599744
0.00127916
-0.0061451
0.00578091
0.00156276
0.00549917
0.00179165
0.0051594
0.001963
0.00477083
0.00207803
0.00434146
0.00212855
0.00211684
0.00642246
0.00135829
-0.00650159
0.00628144
0.00170378
0.00607721
0.00199588
0.00581198
0.00222822
0.00549098
0.00239903
0.0051191
0.00250043
0.0025293
0.00668437
0.00137905
-0.00670514
0.00661329
0.00177486
0.00648685
0.00212232
0.00630276
0.00241231
0.00606188
0.00263991
0.00576552
0.00279679
0.00287349
0.00682121
0.00135573
-0.00679788
0.0068076
0.00178846
0.00674997
0.00217996
0.00664286
0.00251942
0.00648341
0.00279936
0.00626949
0.0030107
0.00313844
0.00686874
0.00130285
-0.00681587
0.00689769
0.00175951
0.00689511
0.00218254
0.00685394
0.00256059
0.00676878
0.00288453
0.00663485
0.00314463
0.00332227
0.00685631
0.00123256
-0.00678601
0.00691383
0.00170199
0.00695159
0.00214478
0.00696228
0.0025499
0.00693926
0.00290755
0.00687621
0.00320769
0.00343031
0.00680634
0.00115397
-0.00672775
0.00688093
0.00162741
0.00694571
0.00208
0.00699405
0.00250157
0.00701919
0.0028824
0.00701431
0.00321257
0.00347262
0.0067349
0.00107338
-0.00665431
0.00681793
0.00154438
0.00689895
0.00199898
0.00697243
0.00242809
0.00703226
0.00282257
0.00707188
0.00317295
0.0034616
0.00665283
0.000994756
-0.00657421
0.00673838
0.00145883
0.00682761
0.00190975
0.00691623
0.00233946
0.00699914
0.00273965
0.00707054
0.00310155
0.00340993
0.00656708
0.000920329
-0.00649265
0.00665138
0.00137454
0.0067433
0.00181783
0.00683969
0.00224308
0.00693651
0.00264283
0.00702894
0.00300912
0.00332917
0.00648186
0.000851099
-0.00641263
0.00656276
0.00129363
0.00665387
0.00172672
0.00675294
0.00214401
0.00685694
0.00253884
0.00696201