/*--------------------------------*- C++ -*----------------------------------*\
| =========                 |                                                 |
| \\      /  F ield         | OpenFOAM: The Open Source CFD Toolbox           |
|  \\    /   O peration     | Version:  2412                                  |
|   \\  /    A nd           | Website:  www.openfoam.com                      |
|    \\/     M anipulation  |                                                 |
\*---------------------------------------------------------------------------*/
FoamFile
{
    version     2.0;
    format      ascii;
    arch        "LSB;label=32;scalar=64";
    class       surfaceScalarField;
    location    "23.5";
    object      phi;
}
// * * * * * * * * * * * * * * * * * * * * * * * * * * * * * * * * * * * * * //

dimensions      [0 3 -1 0 0 0 0];

oriented        oriented;

internalField   nonuniform List<scalar> 
10423
(
0.00520663
0.000227654
-0.00520653
0.00520687
0.000234614
0.00520727
0.000241818
0.00520786
0.00024927
0.00520864
0.000256975
0.00520963
0.00026494
0.00521085
0.000273168
0.00521232
0.000281664
0.00521406
0.00029043
0.0052161
0.000299471
0.00521846
0.000308789
0.00522117
0.000318383
0.00522425
0.000328254
0.00522773
0.000338401
0.00523164
0.000348819
0.000359504
0.00521358
0.000227323
-0.00521325
0.00521406
0.000234129
0.00521471
0.000241164
0.00521555
0.000248433
0.00521659
0.000255939
0.00521784
0.000263687
0.00521933
0.00027168
0.00522107
0.000279921
0.00522309
0.000288413
0.0052254
0.000297157
0.00522804
0.000306153
0.00523102
0.000315401
0.00523437
0.000324901
0.00523813
0.000334648
0.00524231
0.000344637
0.000354861
0.00522037
0.00022677
-0.00521982
0.00522108
0.000233416
0.00522197
0.000240278
0.00522304
0.000247359
0.00522432
0.000254661
0.00522582
0.000262189
0.00522755
0.000269945
0.00522955
0.000277929
0.00523182
0.000286144
0.00523438
0.00029459
0.00523727
0.000303266
0.0052405
0.00031217
0.0052441
0.000321301
0.0052481
0.000330652
0.00525252
0.000340218
0.00034999
0.00522701
0.000226005
-0.00522624
0.00522793
0.000232488
0.00522904
0.000239173
0.00523033
0.000246063
0.00523184
0.000253159
0.00523356
0.000260465
0.00523552
0.000267981
0.00523775
0.000275707
0.00524024
0.000283645
0.00524304
0.000291794
0.00524616
0.000300151
0.00524961
0.000308715
0.00525343
0.00031748
0.00525764
0.000326442
0.00526227
0.000335592
0.000344922
0.00523348
0.000225042
-0.00523251
0.00523461
0.000231359
0.00523592
0.000237864
0.00523742
0.000244561
0.00523913
0.000251449
0.00524106
0.000258531
0.00524324
0.000265806
0.00524567
0.000273275
0.00524838
0.000280937
0.00525138
0.00028879
0.0052547
0.000296831
0.00525836
0.000305058
0.00526237
0.000313464
0.00526677
0.000322043
0.00527158
0.000330786
0.000339684
0.00523978
0.000223894
-0.00523863
0.0052411
0.000230042
0.0052426
0.000236365
0.00524429
0.000242867
0.0052462
0.000249546
0.00524832
0.000256403
0.00525069
0.000263439
0.00525332
0.000270651
0.00525621
0.000278039
0.00525941
0.000285599
0.00526291
0.000293328
0.00526674
0.000301222
0.00527093
0.000309275
0.0052755
0.000317479
0.00528046
0.000325825
0.000334302
0.00524592
0.000222571
-0.0052446
0.00524742
0.000228549
0.00524909
0.00023469
0.00525096
0.000240996
0.00525304
0.000247465
0.00525535
0.000254099
0.00525789
0.000260895
0.00526069
0.000267852
0.00526376
0.000274968
0.00526712
0.000282239
0.00527079
0.000289661
0.00527478
0.000297229
0.00527912
0.000304935
0.00528382
0.000312773
0.00528892
0.000320732
0.0003288
0.00525189
0.000221086
-0.00525041
0.00525355
0.000226893
0.00525539
0.000232851
0.00525742
0.000238961
0.00525967
0.000245222
0.00526213
0.000251633
0.00526484
0.000258191
0.00526779
0.000264896
0.00527102
0.000271743
0.00527453
0.00027873
0.00527834
0.000285849
0.00528247
0.000293097
0.00528694
0.000300466
0.00529177
0.000307947
0.00529697
0.000315529
0.0003232
0.00525769
0.000219451
-0.00525606
0.0052595
0.000225086
0.00526149
0.000230861
0.00526368
0.000236776
0.00526607
0.000242829
0.00526868
0.000249019
0.00527153
0.000255343
0.00527463
0.000261798
0.00527799
0.000268381
0.00528163
0.000275087
0.00528557
0.000281911
0.00528982
0.000288846
0.0052944
0.000295885
0.00529933
0.000303018
0.00530463
0.000310235
0.000317523
0.00526333
0.000217676
-0.00526155
0.00526527
0.00022314
0.0052674
0.000228733
0.00526972
0.000234453
0.00527225
0.0002403
0.005275
0.000246271
0.00527798
0.000252363
0.0052812
0.000258573
0.00528469
0.000264897
0.00528845
0.000271328
0.0052925
0.000277863
0.00529685
0.000284493
0.00530152
0.00029121
0.00530654
0.000298006
0.0053119
0.000304869
0.000311787
0.00526879
0.000215772
-0.00526689
0.00527087
0.000221065
0.00527312
0.000226477
0.00527557
0.000232006
0.00527822
0.000237649
0.00528109
0.000243404
0.00528418
0.000249268
0.00528752
0.000255236
0.00529111
0.000261305
0.00529497
0.000267468
0.00529912
0.00027372
0.00530356
0.000280053
0.00530831
0.000286458
0.00531339
0.000292928
0.00531881
0.000299448
0.000306008
0.00527409
0.00021375
-0.00527207
0.00527628
0.000218874
0.00527865
0.000224106
0.00528122
0.000229444
0.00528398
0.000234886
0.00528695
0.000240429
0.00529015
0.000246068
0.00529359
0.0002518
0.00529728
0.000257619
0.00530122
0.00026352
0.00530545
0.000269497
0.00530996
0.000275541
0.00531477
0.000281644
0.0053199
0.000287797
0.00532536
0.000293988
0.000300203
0.00527923
0.000211618
-0.0052771
0.00528153
0.000216575
0.005284
0.000221629
0.00528667
0.00022678
0.00528953
0.000232024
0.0052926
0.000237357
0.00529589
0.000242777
0.00529942
0.000248277
0.00530318
0.000253853
0.0053072
0.000259499
0.00531149
0.000265208
0.00531606
0.000270972
0.00532092
0.000276782
0.00532609
0.000282629
0.00533158
0.000288501
0.000294385
0.00528421
0.000209388
-0.00528197
0.0052866
0.000214178
0.00528917
0.000219058
0.00529193
0.000224024
0.00529488
0.000229073
0.00529804
0.000234202
0.00530141
0.000239406
0.005305
0.00024468
0.00530884
0.000250018
0.00531292
0.000255416
0.00531726
0.000260865
0.00532188
0.000266357
0.00532678
0.000271885
0.00533197
0.000277437
0.00533747
0.000283002
0.000288568
0.00528902
0.000207067
-0.0052867
0.00529151
0.000211694
0.00529417
0.000216402
0.005297
0.000221186
0.00530003
0.000226044
0.00530326
0.000230972
0.0053067
0.000235966
0.00531036
0.000241019
0.00531425
0.000246127
0.00531839
0.000251283
0.00532277
0.00025648
0.00532742
0.00026171
0.00533234
0.000266964
0.00533755
0.000272232
0.00534305
0.000277502
0.000282763
0.00529369
0.000204665
-0.00529129
0.00529625
0.000209131
0.00529899
0.000213669
0.0053019
0.000218276
0.00530499
0.000222947
0.00530829
0.000227679
0.00531179
0.000232467
0.0053155
0.000237305
0.00531944
0.000242189
0.00532361
0.000247111
0.00532803
0.000252063
0.0053327
0.000257039
0.00533763
0.00026203
0.00534284
0.000267024
0.00534833
0.000272012
0.00027698
0.00529821
0.00020219
-0.00529573
0.00530084
0.000206498
0.00530364
0.00021087
0.00530661
0.000215302
0.00530977
0.00021979
0.00531312
0.000224331
0.00531667
0.000228919
0.00532042
0.000233548
0.0053244
0.000238214
0.0053286
0.000242909
0.00533304
0.000247626
0.00533772
0.000252357
0.00534266
0.000257093
0.00534786
0.000261825
0.00535333
0.000266541
0.000271229
0.00530258
0.000199649
-0.00530004
0.00530527
0.000203802
0.00530813
0.000208011
0.00531116
0.000212273
0.00531437
0.000216583
0.00531776
0.000220937
0.00532135
0.00022533
0.00532514
0.000229757
0.00532914
0.000234211
0.00533336
0.000238687
0.00533781
0.000243176
0.0053425
0.000247671
0.00534743
0.000252163
0.00535261
0.000256643
0.00535806
0.000261098
0.000265518
0.0053068
0.000197051
-0.00530421
0.00530955
0.000201052
0.00531246
0.000205102
0.00531554
0.000209197
0.00531879
0.000213333
0.00532222
0.000217505
0.00532584
0.00022171
0.00532966
0.00022594
0.00533368
0.00023019
0.00533791
0.000234453
0.00534237
0.000238723
0.00534705
0.00024299
0.00535196
0.000247248
0.00535712
0.000251485
0.00536253
0.000255691
0.000259855
0.00531089
-0.00530824
0.000194402
0.00531369
0.000198254
0.00531665
0.000202148
0.00531976
0.000206081
0.00532305
0.000210048
0.00532651
0.000214044
0.00533015
0.000218065
0.00533399
0.000222104
0.00533802
0.000226157
0.00534226
0.000230216
0.00534671
0.000234273
0.00535138
0.000238322
0.00535627
0.000242354
0.00536139
0.000246359
0.00536676
0.000250327
0.000254246
0.00529282
4.19587e-06
0.00529259
1.22402e-05
0.00529223
1.98424e-05
0.00529173
2.70589e-05
0.00529111
3.39261e-05
0.00529037
4.04677e-05
0.00528952
4.67449e-05
0.00528856
5.29377e-05
5.93994e-05
0.00529282
4.27053e-06
0.0052926
1.2458e-05
0.00529225
2.0195e-05
0.00529177
2.75388e-05
0.00529117
3.4526e-05
0.00529046
4.11802e-05
0.00528964
4.75638e-05
0.00528871
5.38625e-05
0.00528767
6.04407e-05
0.00528649
6.78052e-05
0.00528512
7.64628e-05
0.00528352
8.67276e-05
0.00528163
9.85651e-05
0.00527944
0.000111544
0.00527693
0.000124914
0.00527412
0.000137775
0.00527106
0.000149273
0.00526783
0.000158759
0.0052645
0.000165885
0.00526115
0.000170612
0.00525784
0.000173158
0.00525463
0.000173918
0.00525156
0.000173371
0.00524864
0.000171996
0.00524588
0.000170223
0.00524329
0.000168394
0.00524086
0.00016676
0.00523856
0.000165482
0.00523638
0.000164646
0.00523432
0.000164282
0.00523235
0.000164379
0.00523046
0.000164902
0.00522865
0.000165801
0.00522691
0.000167024
0.00522523
0.000168518
0.0052236
0.000170233
0.00522204
0.000172127
0.00522053
0.000174161
0.00521908
0.000176305
0.00521769
0.00017853
0.00521637
0.000180814
0.00521511
0.000183138
0.00521392
0.000185486
0.0052128
0.000187845
0.00521176
0.000190202
0.0052108
0.000192548
0.00520993
0.000194873
0.00520915
0.000197169
0.00520846
0.000199429
0.00520787
0.000201646
0.00520738
0.000203814
0.005207
0.000205927
0.00520673
0.000207979
0.00520657
0.000209967
0.000211884
0.00529282
4.34245e-06
0.00529261
1.26678e-05
0.00529227
2.05346e-05
0.00529181
2.80009e-05
0.00529123
3.51034e-05
0.00529055
4.18657e-05
0.00528976
4.83514e-05
0.00528887
5.47519e-05
0.00528787
6.14433e-05
0.00528672
6.89484e-05
0.0052854
7.77897e-05
0.00528384
8.82896e-05
0.00528199
0.00010041
0.00527983
0.000113704
0.00527735
0.000127394
0.00527458
0.000140551
0.00527156
0.000152291
0.00526837
0.000161949
0.00526509
0.000169166
0.0052618
0.000173904
0.00525856
0.000176393
0.00525544
0.000177042
0.00525246
0.000176346
0.00524966
0.000174803
0.00524702
0.000172853
0.00524457
0.000170852
0.00524227
0.000169057
0.00524012
0.000167633
0.0052381
0.000166667
0.00523619
0.00016619
0.00523438
0.000166187
0.00523266
0.000166623
0.00523102
0.000167445
0.00522944
0.000168598
0.00522793
0.000170027
0.00522649
0.00017168
0.0052251
0.000173514
0.00522377
0.000175488
0.00522251
0.000177571
0.0052213
0.000179732
0.00522017
0.000181951
0.0052191
0.000184206
0.0052181
0.000186482
0.00521718
0.000188765
0.00521634
0.000191042
0.00521559
0.000193304
0.00521492
0.00019554
0.00521434
0.000197744
0.00521387
0.000199907
0.00521349
0.000202024
0.00521322
0.000204087
0.00521305
0.000206091
0.005213
0.000208031
0.00521306
0.000209903
0.000211701
0.00529282
4.41159e-06
0.00529262
1.28694e-05
0.0052923
2.0861e-05
0.00529185
2.8445e-05
0.0052913
3.56583e-05
0.00529064
4.2524e-05
0.00528988
4.91074e-05
0.00528903
5.56057e-05
0.00528807
6.24069e-05
0.00528696
7.00508e-05
0.00528568
7.90756e-05
0.00528415
8.98123e-05
0.00528235
0.000102219
0.00528022
0.000115831
0.00527777
0.000129843
0.00527503
0.000143295
0.00527204
0.000155275
0.00526889
0.000165098
0.00526566
0.000172397
0.00526243
0.000177136
0.00525927
0.000179554
0.00525623
0.000180079
0.00525336
0.000179222
0.00525066
0.000177496
0.00524816
0.00017536
0.00524583
0.000173177
0.00524368
0.000171213
0.00524167
0.000169636
0.00523981
0.000168535
0.00523806
0.000167939
0.00523641
0.000167834
0.00523485
0.000168179
0.00523338
0.000168922
0.00523197
0.000170003
0.00523063
0.000171365
0.00522936
0.000172955
0.00522815
0.000174726
0.005227
0.000176638
0.00522591
0.000178657
0.00522489
0.000180754
0.00522394
0.000182904
0.00522305
0.000185088
0.00522225
0.000187289
0.00522152
0.000189493
0.00522087
0.000191688
0.00522031
0.000193863
0.00521984
0.00019601
0.00521947
0.000198119
0.00521919
0.000200183
0.00521902
0.000202197
0.00521895
0.000204154
0.00521899
0.000206048
0.00521915
0.000207875
0.00521942
0.00020963
0.000211308
0.00529283
4.47794e-06
0.00529263
1.30629e-05
0.00529232
2.11743e-05
0.00529189
2.88711e-05
0.00529136
3.61904e-05
0.00529073
4.3155e-05
0.00529001
4.98317e-05
0.00528919
5.64236e-05
0.00528827
6.33316e-05
0.0052872
7.11125e-05
0.00528596
8.03209e-05
0.00528447
9.12965e-05
0.0052827
0.000103993
0.00528061
0.000117926
0.00527819
0.000132263
0.00527547
0.000146009
0.00527252
0.000158227
0.00526941
0.000168209
0.00526622
0.00017558
0.00526305
0.000180308
0.00525996
0.000182643
0.00525701
0.000183029
0.00525424
0.000181996
0.00525166
0.000180076
0.00524928
0.000177741
0.00524709
0.000175367
0.00524508
0.000173226
0.00524322
0.000171489
0.00524151
0.000170248
0.00523992
0.00016953
0.00523843
0.000169319
0.00523704
0.000169572
0.00523573
0.000170233
0.00523449
0.00017124
0.00523332
0.000172534
0.00523222
0.000174058
0.00523118
0.000175766
0.0052302
0.000177614
0.00522929
0.000179568
0.00522845
0.000181597
0.00522767
0.000183678
0.00522697
0.000185789
0.00522635
0.000187913
0.00522581
0.000190037
0.00522535
0.000192147
0.00522498
0.000194234
0.0052247
0.000196288
0.00522452
0.000198301
0.00522443
0.000200266
0.00522446
0.000202176
0.00522458
0.000204025
0.00522482
0.000205809
0.00522518
0.000207521
0.00522565
0.000209159
0.000210716
0.00529283
4.54148e-06
0.00529265
1.32482e-05
0.00529235
2.14742e-05
0.00529194
2.9279e-05
0.00529143
3.66996e-05
0.00529082
4.37586e-05
0.00529013
5.05239e-05
0.00528935
5.72054e-05
0.00528846
6.42171e-05
0.00528744
7.21335e-05
0.00528624
8.15261e-05
0.00528479
9.27429e-05
0.00528305
0.000105732
0.00528099
0.000119991
0.0052786
0.000134655
0.00527591
0.000148697
0.00527299
0.000161149
0.00526991
0.000171283
0.00526677
0.000178717
0.00526366
0.00018342
0.00526065
0.000185658
0.00525778
0.00018589
0.00525511
0.000184668
0.00525265
0.000182541
0.00525039
0.000179996
0.00524834
0.000177421
0.00524647
0.000175095
0.00524476
0.000173193
0.00524321
0.000171807
0.00524177
0.000170963
0.00524045
0.000170643
0.00523922
0.000170802
0.00523807
0.00017138
0.005237
0.000172312
0.005236
0.000173536
0.00523506
0.000174994
0.00523419
0.000176637
0.00523339
0.00017842
0.00523265
0.000180307
0.00523198
0.000182268
0.00523138
0.000184277
0.00523085
0.000186313
0.00523041
0.000188359
0.00523004
0.000190401
0.00522976
0.000192426
0.00522958
0.000194423
0.00522948
0.000196383
0.00522948
0.000198299
0.00522959
0.000200162
0.00522979
0.000201968
0.00523011
0.000203709
0.00523054
0.000205382
0.00523108
0.00020698
0.00523174
0.0002085
0.000209938
0.00529283
4.6022e-06
0.00529266
1.34253e-05
0.00529237
2.17608e-05
0.00529198
2.96687e-05
0.00529149
3.71859e-05
0.00529092
4.43346e-05
0.00529026
5.11841e-05
0.00528951
5.79512e-05
0.00528867
6.50634e-05
0.00528768
7.3114e-05
0.00528652
8.26916e-05
0.00528511
9.41526e-05
0.0052834
0.000107439
0.00528137
0.000122027
0.005279
0.000137022
0.00527634
0.00015136
0.00527344
0.000164043
0.0052704
0.000174322
0.00526731
0.000181808
0.00526426
0.000186474
0.00526132
0.0001886
0.00525854
0.000188664
0.00525597
0.000187237
0.00525362
0.00018489
0.0052515
0.000182124
0.00524958
0.000179339
0.00524786
0.000176819
0.0052463
0.000174746
0.0052449
0.000173211
0.00524362
0.000172238
0.00524246
0.000171808
0.00524139
0.000171871
0.00524041
0.000172364
0.0052395
0.00017322
0.00523866
0.000174373
0.00523789
0.000175765
0.00523718
0.000177342
0.00523654
0.000179059
0.00523597
0.000180878
0.00523547
0.000182769
0.00523504
0.000184706
0.00523469
0.000186667
0.00523441
0.000188634
0.00523422
0.000190592
0.00523412
0.00019253
0.0052341
0.000194437
0.00523419
0.000196303
0.00523436
0.00019812
0.00523464
0.000199882
0.00523503
0.000201583
0.00523552
0.000203216
0.00523613
0.000204777
0.00523685
0.000206262
0.00523768
0.000207665
0.000208984
0.00529284
4.66009e-06
0.00529267
1.35941e-05
0.00529239
2.2034e-05
0.00529202
3.00401e-05
0.00529156
3.76492e-05
0.00529101
4.48829e-05
0.00529038
5.18122e-05
0.00528967
5.86608e-05
0.00528887
6.58706e-05
0.00528793
7.40542e-05
0.0052868
8.38179e-05
0.00528543
9.55264e-05
0.00528375
0.000109115
0.00528174
0.000124038
0.0052794
0.000139366
0.00527676
0.000154
0.00527389
0.00016691
0.00527089
0.000177327
0.00526784
0.000184853
0.00526484
0.000189469
0.00526198
0.000191468
0.00525929
0.000191348
0.00525683
0.000189703
0.00525459
0.000187122
0.0052526
0.000184124
0.00525082
0.000181118
0.00524924
0.000178399
0.00524783
0.000176149
0.00524658
0.00017446
0.00524547
0.000173356
0.00524446
0.000172813
0.00524355
0.000172779
0.00524273
0.000173187
0.00524198
0.000173967
0.00524131
0.00017505
0.0052407
0.000176374
0.00524015
0.000177884
0.00523968
0.000179535
0.00523927
0.000181287
0.00523893
0.000183108
0.00523867
0.000184971
0.00523848
0.000186855
0.00523837
0.000188742
0.00523835
0.000190617
0.00523841
0.000192467
0.00523856
0.000194283
0.00523881
0.000196054
0.00523916
0.000197773
0.00523961
0.000199433
0.00524016
0.000201029
0.00524082
0.000202554
0.00524159
0.000204005
0.00524248
0.000205376
0.00524348
0.000206664
0.000207866
0.00529284
4.71515e-06
0.00529268
1.37547e-05
0.00529242
2.22937e-05
0.00529207
3.03932e-05
0.00529163
3.80895e-05
0.0052911
4.54035e-05
0.00529051
5.24081e-05
0.00528984
5.93342e-05
0.00528907
6.66388e-05
0.00528817
7.49545e-05
0.00528708
8.49056e-05
0.00528574
9.6865e-05
0.00528409
0.000110761
0.00528211
0.000126022
0.00527979
0.000141687
0.00527717
0.000156618
0.00527433
0.000169751
0.00527136
0.000180298
0.00526836
0.000187854
0.00526542
0.000192405
0.00526263
0.000194261
0.00526003
0.000193942
0.00525767
0.000192064
0.00525556
0.000189236
0.00525369
0.000185993
0.00525205
0.000182759
0.00525062
0.000179833
0.00524936
0.000177401
0.00524827
0.000175555
0.00524731
0.000174318
0.00524646
0.000173661
0.00524571
0.000173529
0.00524504
0.000173852
0.00524446
0.000174555
0.00524394
0.000175568
0.00524349
0.000176824
0.0052431
0.000178269
0.00524278
0.000179853
0.00524253
0.000181537
0.00524236
0.000183287
0.00524225
0.000185077
0.00524222
0.000186884
0.00524227
0.000188691
0.00524241
0.000190482
0.00524263
0.000192244
0.00524294
0.000193968
0.00524335
0.000195644
0.00524386
0.000197265
0.00524447
0.000198824
0.00524518
0.000200315
0.005246
0.000201734
0.00524693
0.000203074
0.00524798
0.000204333
0.00524913
0.000205507
0.000206593
0.00529284
4.76737e-06
0.00529269
1.3907e-05
0.00529244
2.25401e-05
0.00529211
3.0728e-05
0.00529169
3.85066e-05
0.0052912
4.58964e-05
0.00529063
5.29717e-05
0.00529
5.99714e-05
0.00528927
6.73681e-05
0.00528841
7.58149e-05
0.00528736
8.59551e-05
0.00528605
9.81693e-05
0.00528444
0.000112377
0.00528248
0.000127983
0.00528018
0.000143988
0.00527758
0.000159214
0.00527476
0.000172567
0.00527183
0.000183236
0.00526887
0.00019081
0.00526599
0.000195282
0.00526328
0.000196979
0.00526077
0.000196445
0.00525852
0.000194318
0.00525652
0.00019123
0.00525479
0.000187733
0.00525328
0.000184261
0.005252
0.000181121
0.00525089
0.000178502
0.00524995
0.000176497
0.00524914
0.000175124
0.00524845
0.000174353
0.00524786
0.000174124
0.00524735
0.000174361
0.00524692
0.000174988
0.00524655
0.00017593
0.00524626
0.00017712
0.00524603
0.000178499
0.00524586
0.000180017
0.00524577
0.000181633
0.00524574
0.000183313
0.00524579
0.000185029
0.00524591
0.00018676
0.00524612
0.000188486
0.00524641
0.000190193
0.00524678
0.000191868
0.00524725
0.000193501
0.00524781
0.000195082
0.00524847
0.000196605
0.00524923
0.000198063
0.0052501
0.000199451
0.00525107
0.000200763
0.00525215
0.000201995
0.00525334
0.000203143
0.00525464
0.000204204
0.000205176
0.00529284
4.81676e-06
0.0052927
1.4051e-05
0.00529247
2.2773e-05
0.00529215
3.10445e-05
0.00529176
3.89007e-05
0.00529129
4.63615e-05
0.00529076
5.35032e-05
0.00529016
6.05725e-05
0.00528947
6.80586e-05
0.00528865
7.66359e-05
0.00528764
8.69668e-05
0.00528637
9.94398e-05
0.00528478
0.000113965
0.00528284
0.00012992
0.00528056
0.000146267
0.00527799
0.00016179
0.0052752
0.000175357
0.00527229
0.000186139
0.00526938
0.000193719
0.00526657
0.000198098
0.00526393
0.000199621
0.00526152
0.000198855
0.00525937
0.000196466
0.00525749
0.000193105
0.00525588
0.000189342
0.00525452
0.000185623
0.00525338
0.000182264
0.00525243
0.000179455
0.00525164
0.000177287
0.00525098
0.000175778
0.00525044
0.000174892
0.00525
0.000174564
0.00524965
0.000174718
0.00524937
0.000175269
0.00524916
0.000176142
0.00524901
0.000177266
0.00524893
0.000178579
0.00524891
0.000180032
0.00524897
0.00018158
0.00524909
0.000183191
0.00524928
0.000184834
0.00524956
0.000186488
0.00524991
0.000188134
0.00525034
0.000189758
0.00525087
0.000191345
0.00525148
0.000192887
0.00525219
0.000194375
0.00525299
0.000195801
0.0052539
0.000197159
0.0052549
0.000198444
0.00525601
0.000199651
0.00525723
0.000200776
0.00525856
0.000201815
0.00526
0.000202766
0.000203625
0.00529285
4.8633e-06
0.00529271
1.41867e-05
0.00529249
2.29925e-05
0.00529219
3.13426e-05
0.00529182
3.92718e-05
0.00529139
4.6799e-05
0.00529089
5.40025e-05
0.00529032
6.11376e-05
0.00528967
6.87104e-05
0.00528889
7.74176e-05
0.00528791
8.7941e-05
0.00528668
0.000100677
0.00528512
0.000115524
0.0052832
0.000131833
0.00528095
0.000148526
0.00527839
0.000164344
0.00527563
0.000178121
0.00527276
0.000189008
0.0052699
0.00019658
0.00526714
0.000200851
0.00526458
0.000202184
0.00526226
0.000201172
0.00526023
0.000198505
0.00525847
0.000194858
0.00525699
0.000190819
0.00525577
0.000186847
0.00525477
0.000183262
0.00525397
0.000180259
0.00525333
0.000177927
0.00525283
0.00017628
0.00525244
0.000175279
0.00525215
0.000174855
0.00525194
0.000174925
0.00525181
0.000175402
0.00525174
0.000176207
0.00525174
0.000177266
0.00525181
0.000178515
0.00525194
0.000179903
0.00525213
0.000181385
0.0052524
0.000182926
0.00525273
0.000184497
0.00525315
0.000186075
0.00525364
0.000187642
0.00525421
0.000189182
0.00525488
0.000190683
0.00525563
0.000192135
0.00525647
0.00019353
0.00525742
0.000194859
0.00525846
0.000196119
0.0052596
0.000197302
0.00526084
0.000198406
0.00526219
0.000199426
0.00526365
0.000200358
0.00526521
0.000201201
0.000201951
0.00529285
4.90701e-06
0.00529272
1.43142e-05
0.00529252
2.31986e-05
0.00529224
3.16224e-05
0.00529189
3.96198e-05
0.00529148
4.72089e-05
0.00529101
5.44698e-05
0.00529048
6.16668e-05
0.00528987
6.93237e-05
0.00528913
7.81602e-05
0.00528819
8.88777e-05
0.00528699
0.00010188
0.00528546
0.000117054
0.00528357
0.000133721
0.00528133
0.000150762
0.0052788
0.000166874
0.00527607
0.000180857
0.00527323
0.000191839
0.00527042
0.000199392
0.00526773
0.00020354
0.00526525
0.000204667
0.00526303
0.000203393
0.0052611
0.000200435
0.00525947
0.000196491
0.00525812
0.000192167
0.00525703
0.000187933
0.00525618
0.000184118
0.00525552
0.000180917
0.00525503
0.000178419
0.00525467
0.000176634
0.00525443
0.000175519
0.00525429
0.000174999
0.00525423
0.000174986
0.00525424
0.000175391
0.00525432
0.000176129
0.00525446
0.000177124
0.00525466
0.000178311
0.00525493
0.000179635
0.00525526
0.000181052
0.00525567
0.000182524
0.00525614
0.000184024
0.00525669
0.000185527
0.00525731
0.000187015
0.00525802
0.000188473
0.00525882
0.000189888
0.0052597
0.000191252
0.00526068
0.000192554
0.00526175
0.000193789
0.00526291
0.000194951
0.00526418
0.000196035
0.00526555
0.000197037
0.00526702
0.000197954
0.0052686
0.000198782
0.00527028
0.000199518
0.000200162
0.00529285
4.9479e-06
0.00529273
1.44334e-05
0.00529254
2.33914e-05
0.00529228
3.1884e-05
0.00529195
3.99449e-05
0.00529157
4.75912e-05
0.00529114
5.49051e-05
0.00529064
6.21603e-05
0.00529007
6.98987e-05
0.00528936
7.88636e-05
0.00528847
8.97768e-05
0.0052873
0.000103048
0.0052858
0.000118554
0.00528393
0.000135583
0.00528172
0.000152974
0.00527922
0.000169379
0.00527651
0.000183562
0.00527372
0.000194629
0.00527096
0.000202151
0.00526834
0.000206161
0.00526594
0.000207068
0.00526382
0.000205518
0.005262
0.000202255
0.00526049
0.000198002
0.00525927
0.000193383
0.00525832
0.000188882
0.00525761
0.000184833
0.00525709
0.000181432
0.00525674
0.000178767
0.00525653
0.000176844
0.00525644
0.000175615
0.00525644
0.000175
0.00525652
0.000174907
0.00525667
0.000175241
0.00525688
0.000175914
0.00525716
0.000176847
0.0052575
0.000177972
0.0052579
0.000179234
0.00525836
0.000180586
0.0052589
0.000181992
0.0052595
0.000183421
0.00526018
0.00018485
0.00526093
0.000186261
0.00526177
0.000187637
0.00526269
0.000188968
0.00526369
0.000190244
0.00526479
0.000191456
0.00526598
0.000192598
0.00526727
0.000193664
0.00526866
0.00019465
0.00527014
0.000195553
0.00527173
0.000196368
0.00527341
0.000197094
0.0052752
0.000197728
0.000198268
0.00529286
4.98597e-06
0.00529274
1.45444e-05
0.00529257
2.35708e-05
0.00529232
3.21275e-05
0.00529202
4.02471e-05
0.00529166
4.79461e-05
0.00529126
5.53087e-05
0.0052908
6.26182e-05
0.00529027
7.04355e-05
0.0052896
7.9528e-05
0.00528874
9.06378e-05
0.00528761
0.000104182
0.00528614
0.000120023
0.00528431
0.000137417
0.00528212
0.000155158
0.00527965
0.000171853
0.00527698
0.00018623
0.00527423
0.000197374
0.00527153
0.000204853
0.00526898
0.000208712
0.00526666
0.000209384
0.00526464
0.000207544
0.00526293
0.000203964
0.00526154
0.000199392
0.00526045
0.000194472
0.00525964
0.000189697
0.00525906
0.000185409
0.00525868
0.000181806
0.00525848
0.000178974
0.00525841
0.000176914
0.00525845
0.000175572
0.00525859
0.000174864
0.0052588
0.000174692
0.00525909
0.000174957
0.00525943
0.000175566
0.00525984
0.000176439
0.00526031
0.000177504
0.00526084
0.000178706
0.00526143
0.000179995
0.00526209
0.000181334
0.00526281
0.000182694
0.00526361
0.000184051
0.00526449
0.000185385
0.00526544
0.000186682
0.00526648
0.00018793
0.00526761
0.000189119
0.00526882
0.000190242
0.00527013
0.000191292
0.00527153
0.000192265
0.00527302
0.000193156
0.00527461
0.000193961
0.0052763
0.000194678
0.00527809
0.000195304
0.00527998
0.000195838
0.000196277
0.00529286
5.02123e-06
0.00529276
1.46472e-05
0.00529259
2.37369e-05
0.00529236
3.23528e-05
0.00529208
4.05266e-05
0.00529176
4.82738e-05
0.00529139
5.56807e-05
0.00529096
6.30408e-05
0.00529046
7.09342e-05
0.00528984
8.0153e-05
0.00528902
9.14602e-05
0.00528792
0.000105279
0.00528649
0.000121457
0.00528468
0.000139218
0.00528253
0.00015731
0.00528009
0.000174293
0.00527746
0.000188858
0.00527477
0.00020007
0.00527213
0.000207493
0.00526965
0.000211188
0.00526742
0.000211612
0.0052655
0.00020947
0.0052639
0.000205562
0.00526263
0.000200662
0.00526167
0.000195433
0.00526099
0.00019038
0.00526055
0.000185851
0.00526031
0.000182045
0.00526024
0.000179045
0.0052603
0.000176848
0.00526048
0.000175395
0.00526075
0.000174596
0.00526109
0.000174347
0.00526151
0.000174544
0.00526198
0.000175092
0.00526251
0.000175906
0.0052631
0.000176914
0.00526375
0.000178055
0.00526447
0.000179283
0.00526524
0.000180558
0.00526609
0.00018185
0.005267
0.000183135
0.00526799
0.000184394
0.00526906
0.000185613
0.00527021
0.000186779
0.00527145
0.000187884
0.00527277
0.00018892
0.00527418
0.00018988
0.00527568
0.000190761
0.00527728
0.000191559
0.00527897
0.000192269
0.00528076
0.00019289
0.00528264
0.00019342
0.00528463
0.000193856
0.000194198
0.00529286
5.0537e-06
0.00529277
1.47419e-05
0.00529261
2.38899e-05
0.00529241
3.25601e-05
0.00529215
4.07835e-05
0.00529185
4.85743e-05
0.00529151
5.60213e-05
0.00529112
6.34282e-05
0.00529066
7.13949e-05
0.00529008
8.07385e-05
0.00528929
9.22429e-05
0.00528823
0.000106337
0.00528684
0.000122855
0.00528507
0.000140983
0.00528296
0.000159424
0.00528056
0.000176692
0.00527798
0.000191438
0.00527534
0.000202708
0.00527277
0.000210065
0.00527037
0.000213585
0.00526824
0.000213749
0.00526641
0.000211293
0.00526493
0.000207048
0.00526377
0.000201813
0.00526294
0.000196269
0.00526238
0.000190935
0.00526207
0.000186162
0.00526196
0.000182152
0.00526202
0.000178985
0.00526222
0.000176652
0.00526253
0.00017509
0.00526292
0.000174201
0.00526339
0.000173877
0.00526392
0.000174009
0.00526452
0.000174498
0.00526517
0.000175255
0.00526588
0.000176206
0.00526664
0.00017729
0.00526747
0.000178458
0.00526836
0.00017967
0.00526931
0.000180895
0.00527034
0.00018211
0.00527144
0.000183296
0.00527261
0.000184437
0.00527387
0.000185524
0.00527521
0.000186546
0.00527663
0.000187496
0.00527814
0.000188369
0.00527974
0.000189161
0.00528143
0.000189867
0.00528322
0.000190486
0.00528509
0.000191014
0.00528706
0.000191449
0.00528913
0.000191792
0.000192039
0.00529286
5.08339e-06
0.00529278
1.48285e-05
0.00529264
2.40297e-05
0.00529245
3.27495e-05
0.00529221
4.10178e-05
0.00529194
4.88479e-05
0.00529163
5.63308e-05
0.00529128
6.37807e-05
0.00529086
7.18175e-05
0.00529031
8.1284e-05
0.00528957
9.29846e-05
0.00528855
0.000107354
0.0052872
0.000124211
0.00528547
0.000142706
0.0052834
0.000161494
0.00528105
0.000179041
0.00527853
0.000193962
0.00527596
0.000205282
0.00527346
0.000212564
0.00527115
0.000215897
0.0052691
0.000215791
0.00526738
0.000213013
0.00526601
0.000208423
0.00526498
0.000202847
0.00526426
0.000196984
0.00526383
0.000191365
0.00526364
0.000186348
0.00526366
0.000182134
0.00526385
0.0001788
0.00526417
0.000176334
0.00526459
0.000174663
0.00526511
0.000173687
0.00526569
0.000173289
0.00526635
0.000173358
0.00526705
0.000173789
0.00526782
0.000174491
0.00526864
0.000175387
0.00526951
0.000176415
0.00527044
0.000177524
0.00527144
0.000178675
0.0052725
0.000179835
0.00527363
0.000180982
0.00527483
0.000182095
0.0052761
0.000183162
0.00527746
0.00018417
0.00527889
0.000185111
0.00528041
0.000185978
0.00528201
0.000186766
0.0052837
0.00018747
0.00528548
0.000188088
0.00528735
0.000188617
0.00528931
0.000189055
0.00529136
0.0001894
0.0052935
0.000189651
0.000189808
0.00529287
5.11032e-06
0.00529279
1.4907e-05
0.00529266
2.41565e-05
0.00529249
3.29211e-05
0.00529228
4.12298e-05
0.00529203
4.90948e-05
0.00529175
5.66094e-05
0.00529143
6.40984e-05
0.00529105
7.22023e-05
0.00529055
8.1789e-05
0.00528985
9.36838e-05
0.00528887
0.000108327
0.00528756
0.000125521
0.00528589
0.00014438
0.00528387
0.000163512
0.00528158
0.000181333
0.00527912
0.000196421
0.00527662
0.000207783
0.0052742
0.00021498
0.00527198