/*--------------------------------*- C++ -*----------------------------------*\
| =========                 |                                                 |
| \\      /  F ield         | OpenFOAM: The Open Source CFD Toolbox           |
|  \\    /   O peration     | Version:  2412                                  |
|   \\  /    A nd           | Website:  www.openfoam.com                      |
|    \\/     M anipulation  |                                                 |
\*---------------------------------------------------------------------------*/
FoamFile
{
    version     2.0;
    format      ascii;
    arch        "LSB;label=32;scalar=64";
    class       volVectorField;
    location    "23.5";
    object      U;
}
// * * * * * * * * * * * * * * * * * * * * * * * * * * * * * * * * * * * * * //

dimensions      [0 1 -1 0 0 0 0];

internalField   nonuniform List<vector> 
5285
(
(0.0983686 0.00430314 0)
(0.0983717 0.00443608 0)
(0.0983778 0.00457375 0)
(0.098387 0.00471625 0)
(0.0983998 0.0048637 0)
(0.0984164 0.00501621 0)
(0.0984372 0.00517387 0)
(0.0984626 0.00533677 0)
(0.0984928 0.00550499 0)
(0.0985285 0.00567861 0)
(0.0985699 0.00585767 0)
(0.0986176 0.00604221 0)
(0.0986721 0.00623224 0)
(0.098734 0.00642774 0)
(0.0988037 0.00662866 0)
(0.0988819 0.0068349 0)
(0.0984976 0.00429908 0)
(0.0985053 0.00442915 0)
(0.098516 0.00456368 0)
(0.09853 0.00470276 0)
(0.0985476 0.00484648 0)
(0.0985691 0.00499493 0)
(0.0985949 0.00514819 0)
(0.0986254 0.00530631 0)
(0.0986608 0.00546935 0)
(0.0987016 0.00563736 0)
(0.0987482 0.00581037 0)
(0.0988012 0.00598837 0)
(0.0988609 0.00617135 0)
(0.0989279 0.00635926 0)
(0.0990027 0.00655201 0)
(0.099086 0.00674949 0)
(0.0986239 0.00429067 0)
(0.0986358 0.00441777 0)
(0.0986508 0.00454906 0)
(0.0986693 0.00468463 0)
(0.0986914 0.00482455 0)
(0.0987175 0.00496887 0)
(0.098748 0.00511765 0)
(0.0987831 0.00527093 0)
(0.0988233 0.00542876 0)
(0.0988689 0.00559114 0)
(0.0989203 0.00575808 0)
(0.0989779 0.00592956 0)
(0.0990424 0.00610553 0)
(0.099114 0.00628592 0)
(0.0991933 0.00647062 0)
(0.099281 0.00665948 0)
(0.0987472 0.00427816 0)
(0.0987631 0.0044022 0)
(0.0987823 0.00453019 0)
(0.0988049 0.00466217 0)
(0.0988312 0.00479821 0)
(0.0988616 0.00493835 0)
(0.0988964 0.00508261 0)
(0.0989359 0.00523104 0)
(0.0989804 0.00538363 0)
(0.0990303 0.00554038 0)
(0.099086 0.00570128 0)
(0.099148 0.00586628 0)
(0.0992166 0.00603531 0)
(0.0992923 0.00620828 0)
(0.0993757 0.00638505 0)
(0.0994671 0.00656545 0)
(0.0988676 0.00426178 0)
(0.0988873 0.00438271 0)
(0.0989103 0.00450732 0)
(0.0989367 0.00463567 0)
(0.098967 0.00476779 0)
(0.0990014 0.00490371 0)
(0.0990401 0.00504343 0)
(0.0990835 0.00518698 0)
(0.099132 0.00533434 0)
(0.0991859 0.00548549 0)
(0.0992455 0.00564039 0)
(0.0993113 0.00579898 0)
(0.0993837 0.00596116 0)
(0.0994631 0.00612683 0)
(0.0995499 0.00629583 0)
(0.0996447 0.00646797 0)
(0.098985 0.00424177 0)
(0.0990082 0.00435953 0)
(0.0990347 0.00448073 0)
(0.0990648 0.00460541 0)
(0.0990988 0.00473359 0)
(0.0991368 0.00486526 0)
(0.0991791 0.00500045 0)
(0.0992262 0.00513913 0)
(0.0992783 0.00528129 0)
(0.0993357 0.00542688 0)
(0.0993989 0.00557584 0)
(0.0994681 0.0057281 0)
(0.0995438 0.00588355 0)
(0.0996264 0.00604205 0)
(0.0997163 0.00620345 0)
(0.0998139 0.00636753 0)
(0.0990993 0.00421837 0)
(0.0991258 0.00433293 0)
(0.0991557 0.00445069 0)
(0.0991891 0.00457167 0)
(0.0992264 0.00469588 0)
(0.0992678 0.00482333 0)
(0.0993135 0.00495398 0)
(0.0993639 0.00508783 0)
(0.0994192 0.00522482 0)
(0.0994799 0.00536491 0)
(0.0995462 0.00550801 0)
(0.0996185 0.00565405 0)
(0.0996971 0.00580289 0)
(0.0997824 0.00595439 0)
(0.0998749 0.00610837 0)
(0.0999749 0.00626461 0)
(0.0992106 0.0041918 0)
(0.0992402 0.00430313 0)
(0.0992731 0.00441743 0)
(0.0993097 0.00453471 0)
(0.09935 0.00465497 0)
(0.0993944 0.00477819 0)
(0.0994432 0.00490434 0)
(0.0994966 0.00503339 0)
(0.0995549 0.00516527 0)
(0.0996185 0.00529993 0)
(0.0996875 0.00543728 0)
(0.0997625 0.0055772 0)
(0.0998436 0.00571958 0)
(0.0999314 0.00586424 0)
(0.100026 0.00601101 0)
(0.100128 0.00615963 0)
(0.0993187 0.00416228 0)
(0.0993512 0.00427036 0)
(0.099387 0.0043812 0)
(0.0994264 0.00449479 0)
(0.0994696 0.00461111 0)
(0.0995168 0.00473013 0)
(0.0995683 0.00485182 0)
(0.0996244 0.00497612 0)
(0.0996854 0.00510297 0)
(0.0997515 0.00523229 0)
(0.099823 0.00536399 0)
(0.0999003 0.00549793 0)
(0.0999837 0.005634 0)
(0.100073 0.005772 0)
(0.10017 0.00591175 0)
(0.100273 0.00605301 0)
(0.0994238 0.00413001 0)
(0.0994589 0.00423485 0)
(0.0994974 0.00434224 0)
(0.0995394 0.00445215 0)
(0.0995851 0.00456456 0)
(0.0996349 0.00467942 0)
(0.0996889 0.0047967 0)
(0.0997475 0.00491632 0)
(0.0998108 0.00503822 0)
(0.0998792 0.0051623 0)
(0.0999528 0.00528846 0)
(0.100032 0.00541657 0)
(0.100117 0.00554648 0)
(0.100209 0.00567802 0)
(0.100307 0.00581098 0)
(0.100412 0.00594511 0)
(0.0995259 0.00409521 0)
(0.0995634 0.00419682 0)
(0.0996043 0.00430077 0)
(0.0996486 0.00440703 0)
(0.0996968 0.00451556 0)
(0.0997488 0.00462632 0)
(0.0998051 0.00473924 0)
(0.0998658 0.00485427 0)
(0.0999312 0.0049713 0)
(0.100002 0.00509026 0)
(0.100077 0.00521101 0)
(0.100158 0.00533343 0)
(0.100245 0.00545736 0)
(0.100338 0.00558262 0)
(0.100437 0.005709 0)
(0.100542 0.00583625 0)
(0.0996249 0.00405807 0)
(0.0996647 0.00415647 0)
(0.0997077 0.00425701 0)
(0.0997543 0.00435966 0)
(0.0998045 0.00446436 0)
(0.0998587 0.00457107 0)
(0.0999169 0.00467971 0)
(0.0999796 0.00479022 0)
(0.100047 0.00490249 0)
(0.100119 0.00501643 0)
(0.100196 0.00513192 0)
(0.100278 0.0052488 0)
(0.100366 0.00536693 0)
(0.10046 0.00548611 0)
(0.10056 0.00560614 0)
(0.100667 0.00572675 0)
(0.0997209 0.00401878 0)
(0.0997627 0.004114 0)
(0.0998078 0.00421117 0)
(0.0998563 0.00431024 0)
(0.0999085 0.00441117 0)
(0.0999645 0.0045139 0)
(0.100025 0.00461834 0)
(0.100089 0.00472442 0)
(0.100158 0.00483204 0)
(0.100231 0.00494109 0)
(0.10031 0.00505145 0)
(0.100393 0.00516295 0)
(0.100482 0.00527545 0)
(0.100577 0.00538876 0)
(0.100678 0.00550266 0)
(0.100784 0.0056169 0)
(0.099814 0.00397754 0)
(0.0998577 0.0040696 0)
(0.0999046 0.00416344 0)
(0.0999548 0.00425899 0)
(0.100009 0.00435621 0)
(0.100066 0.00445502 0)
(0.100128 0.00455535 0)
(0.100194 0.00465711 0)
(0.100264 0.00476019 0)
(0.100339 0.00486448 0)
(0.100418 0.00496984 0)
(0.100503 0.00507614 0)
(0.100593 0.0051832 0)
(0.100688 0.00529083 0)
(0.100789 0.00539883 0)
(0.100896 0.00550693 0)
(0.0999042 0.0039345 0)
(0.0999496 0.00402346 0)
(0.0999981 0.00411401 0)
(0.10005 0.0042061 0)
(0.100105 0.00429968 0)
(0.100164 0.00439466 0)
(0.100227 0.00449096 0)
(0.100294 0.00458849 0)
(0.100366 0.00468715 0)
(0.100441 0.00478681 0)
(0.100522 0.00488734 0)
(0.100607 0.00498859 0)
(0.100697 0.00509039 0)
(0.100793 0.00519256 0)
(0.100894 0.00529487 0)
(0.101001 0.00539708 0)
(0.0999916 0.00388985 0)
(0.100038 0.00397574 0)
(0.100088 0.00406306 0)
(0.100142 0.00415175 0)
(0.100198 0.00424176 0)
(0.100259 0.00433299 0)
(0.100323 0.00442537 0)
(0.100391 0.00451878 0)
(0.100463 0.00461314 0)
(0.10054 0.00470831 0)
(0.100621 0.00480415 0)
(0.100707 0.00490052 0)
(0.100797 0.00499725 0)
(0.100893 0.00509415 0)
(0.100994 0.005191 0)
(0.101101 0.00528757 0)
(0.100076 0.00384374 0)
(0.100124 0.00392661 0)
(0.100176 0.00401076 0)
(0.10023 0.00409613 0)
(0.100288 0.00418264 0)
(0.10035 0.00427021 0)
(0.100415 0.00435875 0)
(0.100484 0.00444817 0)
(0.100557 0.00453834 0)
(0.100634 0.00462916 0)
(0.100715 0.00472047 0)
(0.100802 0.00481213 0)
(0.100892 0.00490396 0)
(0.100988 0.0049958 0)
(0.101089 0.00508741 0)
(0.101195 0.00517857 0)
(0.100158 0.00379632 0)
(0.100208 0.00387623 0)
(0.10026 0.00395727 0)
(0.100316 0.00403938 0)
(0.100375 0.00412248 0)
(0.100437 0.00420648 0)
(0.100503 0.00429129 0)
(0.100572 0.00437682 0)
(0.100646 0.00446294 0)
(0.100724 0.00454954 0)
(0.100806 0.00463647 0)
(0.100892 0.00472358 0)
(0.100983 0.00481072 0)
(0.101078 0.00489768 0)
(0.101178 0.00498427 0)
(0.101284 0.00507025 0)
(0.100238 0.00374774 0)
(0.100288 0.00382475 0)
(0.100342 0.00390275 0)
(0.100398 0.00398167 0)
(0.100458 0.00406144 0)
(0.100521 0.00414197 0)
(0.100587 0.00422316 0)
(0.100658 0.00430491 0)
(0.100732 0.00438711 0)
(0.10081 0.00446962 0)
(0.100892 0.00455233 0)
(0.100978 0.00463506 0)
(0.101068 0.00471767 0)
(0.101164 0.00479997 0)
(0.101263 0.00488175 0)
(0.101368 0.00496278 0)
(0.100314 0.00369813 0)
(0.100366 0.0037723 0)
(0.10042 0.00384733 0)
(0.100477 0.00392315 0)
(0.100538 0.00399967 0)
(0.100602 0.00407682 0)
(0.100669 0.00415449 0)
(0.100739 0.00423258 0)
(0.100814 0.00431098 0)
(0.100892 0.00438956 0)
(0.100974 0.00446819 0)
(0.10106 0.00454671 0)
(0.10115 0.00462497 0)
(0.101245 0.00470279 0)
(0.101344 0.00477996 0)
(0.101447 0.00485627 0)
(0.0999998 2.81425e-05 0)
(0.0999971 8.37417e-05 0)
(0.0999915 0.000138468 0)
(0.0999833 0.000192607 0)
(0.0999727 0.000246322 0)
(0.0999598 0.000299704 0)
(0.0999448 0.000353129 0)
(0.0999277 0.000407917 0)
(0.0999086 0.000466847 0)
(0.0999998 2.86572e-05 0)
(0.0999972 8.52729e-05 0)
(0.0999918 0.000140997 0)
(0.0999839 0.000196118 0)
(0.0999737 0.000250799 0)
(0.0999613 0.000305129 0)
(0.0999468 0.00035949 0)
(0.0999303 0.000415245 0)
(0.0999119 0.000475258 0)
(0.099891 0.000543756 0)
(0.0998671 0.000625298 0)
(0.0998394 0.000723196 0)
(0.0998067 0.000838054 0)
(0.0997683 0.000967073 0)
(0.0997238 0.00110438 0)
(0.0996734 0.00124227 0)
(0.0996177 0.00137279 0)
(0.099558 0.00148931 0)
(0.0994957 0.0015875 0)
(0.0994322 0.00166575 0)
(0.0993689 0.00172492 0)
(0.0993071 0.00176774 0)
(0.0992476 0.00179809 0)
(0.0991909 0.00182024 0)
(0.0991373 0.00183825 0)
(0.0990869 0.00185562 0)
(0.0990394 0.0018751 0)
(0.0989947 0.00189865 0)
(0.0989525 0.00192752 0)
(0.0989125 0.00196235 0)
(0.0988745 0.00200336 0)
(0.0988381 0.00205048 0)
(0.0988032 0.00210343 0)
(0.0987696 0.00216183 0)
(0.0987373 0.00222529 0)
(0.0987061 0.0022934 0)
(0.098676 0.0023658 0)
(0.0986469 0.00244216 0)
(0.098619 0.00252219 0)
(0.0985922 0.00260566 0)
(0.0985665 0.00269236 0)
(0.0985421 0.00278212 0)
(0.0985189 0.00287479 0)
(0.0984971 0.00297026 0)
(0.0984767 0.0030684 0)
(0.0984578 0.00316912 0)
(0.0984405 0.00327232 0)
(0.0984248 0.00337793 0)
(0.0984109 0.00348586 0)
(0.0983988 0.00359602 0)
(0.0983885 0.00370833 0)
(0.0983803 0.00382272 0)
(0.0983741 0.00393909 0)
(0.09837 0.00405737 0)
(0.0983682 0.00417746 0)
(0.0999998 2.91533e-05 0)
(0.0999973 8.67488e-05 0)
(0.0999921 0.000143435 0)
(0.0999845 0.000199501 0)
(0.0999747 0.000255113 0)
(0.0999627 0.000310352 0)
(0.0999488 0.000365614 0)
(0.099933 0.000422298 0)
(0.0999152 0.000483362 0)
(0.0998951 0.000553168 0)
(0.099872 0.000636415 0)
(0.099845 0.000736507 0)
(0.099813 0.000854051 0)
(0.0997753 0.000986132 0)
(0.0997315 0.00112667 0)
(0.0996817 0.00126769 0)
(0.0996267 0.00140099 0)
(0.0995677 0.00151973 0)
(0.0995062 0.00161945 0)
(0.0994437 0.00169851 0)
(0.0993818 0.00175782 0)
(0.0993215 0.00180023 0)
(0.0992637 0.00182975 0)
(0.099209 0.00185079 0)
(0.0991576 0.00186755 0)
(0.0991096 0.00188365 0)
(0.0990647 0.00190192 0)
(0.0990228 0.00192436 0)
(0.0989834 0.00195223 0)
(0.0989464 0.00198622 0)
(0.0989113 0.00202651 0)
(0.098878 0.00207303 0)
(0.0988463 0.00212545 0)
(0.0988159 0.00218341 0)
(0.0987868 0.00224645 0)
(0.0987589 0.00231417 0)
(0.0987321 0.00238617 0)
(0.0987065 0.0024621 0)
(0.0986819 0.00254167 0)
(0.0986586 0.00262462 0)
(0.0986365 0.00271074 0)
(0.0986156 0.00279984 0)
(0.0985961 0.00289176 0)
(0.098578 0.00298638 0)
(0.0985613 0.00308357 0)
(0.0985462 0.00318323 0)
(0.0985328 0.00328525 0)
(0.098521 0.00338955 0)
(0.098511 0.00349604 0)
(0.0985029 0.00360463 0)
(0.0984967 0.00371522 0)
(0.0984926 0.00382775 0)
(0.0984905 0.0039421 0)
(0.0984906 0.00405821 0)
(0.0984929 0.00417597 0)
(0.0999998 2.96307e-05 0)
(0.0999974 8.8169e-05 0)
(0.0999924 0.00014578 0)
(0.0999851 0.000202756 0)
(0.0999756 0.000259261 0)
(0.0999642 0.000315374 0)
(0.0999508 0.000371497 0)
(0.0999356 0.000429075 0)
(0.0999185 0.000491159 0)
(0.0998992 0.000562251 0)
(0.0998769 0.000647193 0)
(0.0998507 0.000749487 0)
(0.0998194 0.000869732 0)
(0.0997824 0.0010049 0)
(0.0997391 0.00114868 0)
(0.0996899 0.00129282 0)
(0.0996355 0.00142887 0)
(0.0995772 0.00154976 0)
(0.0995165 0.00165092 0)
(0.0994551 0.00173067 0)
(0.0993944 0.00178998 0)
(0.0993356 0.00183182 0)
(0.0992796 0.00186035 0)
(0.0992269 0.00188014 0)
(0.0991778 0.00189551 0)
(0.0991322 0.00191021 0)
(0.0990899 0.00192714 0)
(0.0990507 0.00194835 0)
(0.0990142 0.00197514 0)
(0.0989801 0.00200819 0)
(0.0989481 0.00204769 0)
(0.0989179 0.00209351 0)
(0.0988893 0.00214535 0)
(0.0988621 0.00220277 0)
(0.0988362 0.00226533 0)
(0.0988115 0.00233258 0)
(0.098788 0.0024041 0)
(0.0987657 0.00247953 0)
(0.0987445 0.00255855 0)
(0.0987246 0.0026409 0)
(0.0987059 0.00272634 0)
(0.0986886 0.00281468 0)
(0.0986726 0.00290576 0)
(0.0986581 0.00299943 0)
(0.0986451 0.00309556 0)
(0.0986336 0.00319405 0)
(0.0986239 0.00329479 0)
(0.0986159 0.00339767 0)
(0.0986097 0.00350261 0)
(0.0986054 0.00360951 0)
(0.0986031 0.00371828 0)
(0.0986029 0.00382883 0)
(0.0986047 0.00394107 0)
(0.0986088 0.0040549 0)
(0.098615 0.00417023 0)
(0.0999998 3.00893e-05 0)
(0.0999976 8.95332e-05 0)
(0.0999927 0.000148032 0)
(0.0999857 0.000205881 0)
(0.0999766 0.000263243 0)
(0.0999656 0.000320192 0)
(0.0999528 0.000377139 0)
(0.0999383 0.000435573 0)
(0.0999219 0.000498647 0)
(0.0999034 0.000571003 0)
(0.0998818 0.000657634 0)
(0.0998563 0.000762136 0)
(0.0998258 0.000885103 0)
(0.0997894 0.00102337 0)
(0.0997467 0.00117041 0)
(0.099698 0.00131768 0)
(0.0996442 0.00145644 0)
(0.0995865 0.00157942 0)
(0.0995266 0.00168192 0)
(0.0994662 0.00176224 0)
(0.0994068 0.00182141 0)
(0.0993495 0.00186253 0)
(0.0992953 0.00188991 0)
(0.0992446 0.00190828 0)
(0.0991978 0.00192212 0)
(0.0991546 0.00193528 0)
(0.099115 0.00195074 0)
(0.0990785 0.00197062 0)
(0.0990449 0.00199624 0)
(0.0990138 0.00202826 0)
(0.0989848 0.00206688 0)
(0.0989576 0.00211195 0)
(0.0989321 0.00216312 0)
(0.0989081 0.00221995 0)
(0.0988853 0.00228196 0)
(0.0988639 0.00234866 0)
(0.0988436 0.00241963 0)
(0.0988246 0.00249448 0)
(0.0988067 0.00257288 0)
(0.0987901 0.00265454 0)
(0.0987748 0.00273922 0)
(0.0987609 0.00282672 0)
(0.0987484 0.00291686 0)
(0.0987373 0.00300949 0)
(0.0987278 0.00310447 0)
(0.09872 0.0032017 0)
(0.0987138 0.00330104 0)
(0.0987094 0.00340241 0)
(0.0987069 0.00350571 0)
(0.0987063 0.00361083 0)
(0.0987077 0.00371768 0)
(0.0987111 0.00382616 0)
(0.0987167 0.00393619 0)
(0.0987245 0.00404766 0)
(0.0987345 0.00416047 0)
(0.0999998 3.05289e-05 0)
(0.0999977 9.08409e-05 0)
(0.099993 0.000150191 0)
(0.0999863 0.000208877 0)
(0.0999776 0.000267058 0)
(0.0999671 0.000324805 0)
(0.0999548 0.000382538 0)
(0.0999409 0.000441793 0)
(0.0999253 0.000505824 0)
(0.0999075 0.000579426 0)
(0.0998868 0.000667743 0)
(0.099862 0.000774466 0)
(0.0998322 0.000900179 0)
(0.0997963 0.00104158 0)
(0.0997542 0.00119189 0)
(0.099706 0.00134228 0)
(0.0996527 0.00148373 0)
(0.0995956 0.00160872 0)
(0.0995365 0.00171246 0)
(0.0994771 0.00179322 0)
(0.0994189 0.0018521 0)
(0.0993631 0.00189233 0)
(0.0993107 0.0019184 0)
(0.0992621 0.0019352 0)
(0.0992175 0.00194736 0)
(0.0991769 0.00195884 0)
(0.0991399 0.00197273 0)
(0.0991062 0.00199117 0)
(0.0990755 0.00201551 0)
(0.0990473 0.00204643 0)
(0.0990213 0.0020841 0)
(0.0989972 0.00212834 0)
(0.0989748 0.00217879 0)
(0.0989539 0.00223497 0)
(0.0989343 0.00229635 0)
(0.098916 0.00236245 0)
(0.0988989 0.00243281 0)
(0.0988831 0.00250701 0)
(0.0988685 0.00258471 0)
(0.0988551 0.00266561 0)
(0.0988431 0.00274946 0)
(0.0988325 0.00283603 0)
(0.0988233 0.00292515 0)
(0.0988156 0.00301666 0)
(0.0988095 0.00311041 0)
(0.0988051 0.00320628 0)
(0.0988024 0.00330416 0)
(0.0988015 0.00340393 0)
(0.0988024 0.00350549 0)
(0.0988054 0.00360874 0)
(0.0988103 0.00371359 0)
(0.0988173 0.00381993 0)
(0.0988264 0.00392766 0)
(0.0988377 0.00403669 0)
(0.0988512 0.00414692 0)
(0.0999998 3.09495e-05 0)
(0.0999978 9.2092e-05 0)
(0.0999933 0.000152257 0)
(0.0999869 0.000211742 0)
(0.0999786 0.000270705 0)
(0.0999686 0.000329213 0)
(0.0999569 0.000387692 0)
(0.0999436 0.000447731 0)
(0.0999287 0.000512691 0)
(0.0999117 0.00058752 0)
(0.0998917 0.000677521 0)
(0.0998677 0.000786482 0)
(0.0998385 0.000914969 0)
(0.0998032 0.00105953 0)
(0.0997616 0.00121314 0)
(0.0997138 0.00136665 0)
(0.099661 0.00151074 0)
(0.0996045 0.00163769 0)
(0.0995462 0.00174256 0)
(0.0994877 0.00182362 0)
(0.0994308 0.00188205 0)
(0.0993766 0.00192124 0)
(0.0993259 0.00194583 0)
(0.0992794 0.00196089 0)
(0.0992371 0.00197122 0)
(0.099199 0.0019809 0)
(0.0991647 0.00199308 0)
(0.0991338 0.00200998 0)
(0.0991059 0.00203297 0)
(0.0990807 0.0020627 0)
(0.0990577 0.00209935 0)
(0.0990367 0.00214271 0)
(0.0990173 0.00219238 0)
(0.0989995 0.00224784 0)
(0.098983 0.00230855 0)
(0.0989678 0.00237399 0)
(0.0989539 0.00244367 0)
(0.0989412 0.00251717 0)
(0.0989297 0.00259411 0)
(0.0989196 0.00267418 0)
(0.0989107 0.00275712 0)
(0.0989033 0.0028427 0)
(0.0988974 0.00293073 0)
(0.0988929 0.00302104 0)
(0.0988901 0.00311348 0)
(0.098889 0.00320792 0)
(0.0988896 0.00330425 0)
(0.098892 0.00340234 0)
(0.0988963 0.0035021 0)
(0.0989026 0.00360341 0)
(0.0989109 0.00370618 0)
(0.0989212 0.0038103 0)
(0.0989337 0.00391568 0)
(0.0989483 0.00402221 0)
(0.0989652 0.00412979 0)
(0.0999999 3.13509e-05 0)
(0.0999979 9.32862e-05 0)
(0.0999936 0.000154228 0)
(0.0999875 0.000214475 0)
(0.0999796 0.000274184 0)
(0.09997 0.000333414 0)
(0.0999589 0.000392602 0)
(0.0999463 0.000453389 0)
(0.0999321 0.000519248 0)
(0.0999158 0.000595288 0)
(0.0998966 0.000686974 0)
(0.0998733 0.000798192 0)
(0.0998448 0.000929485 0)
(0.0998101 0.00107724 0)
(0.0997689 0.00123417 0)
(0.0997216 0.0013908 0)
(0.0996692 0.0015375 0)
(0.0996133 0.00166632 0)
(0.0995557 0.00177222 0)
(0.0994982 0.00185344 0)
(0.0994425 0.00191127 0)
(0.0993898 0.00194923 0)
(0.099341 0.00197217 0)
(0.0992966 0.00198534 0)
(0.0992566 0.00199369 0)
(0.099221 0.00200142 0)
(0.0991894 0.00201179 0)
(0.0991613 0.00202705 0)
(0.0991363 0.0020486 0)
(0.099114 0.00207708 0)
(0.0990941 0.00211265 0)
(0.099076 0.00215507 0)
(0.0990597 0.0022039 0)
(0.0990449 0.00225859 0)
(0.0990315 0.00231858 0)
(0.0990193 0.00238331 0)
(0.0990085 0.00245227 0)
(0.0989988 0.002525 0)
(0.0989904 0.00260113 0)
(0.0989834 0.00268032 0)
(0.0989777 0.00276229 0)
(0.0989734 0.00284681 0)
(0.0989705 0.00293368 0)
(0.0989692 0.00302273 0)
(0.0989696 0.00311379 0)
(0.0989716 0.00320674 0)
(0.0989754 0.00330145 0)
(0.098981 0.0033978 0)
(0.0989885 0.00349568 0)
(0.0989979 0.00359499 0)
(0.0990094 0.00369562 0)
(0.0990229 0.00379747 0)
(0.0990385 0.00390044 0)
(0.0990563 0.00400442 0)
(0.0990763 0.00410931 0)
(0.0999999 3.17332e-05 0)
(0.099998 9.44234e-05 0)
(0.099994 0.000156104 0)
(0.0999881 0.000217077 0)
(0.0999806 0.000277494 0)
(0.0999715 0.000337408 0)
(0.099961 0.000397267 0)
(0.099949 0.000458765 0)
(0.0999355 0.000525494 0)
(0.09992 0.000602731 0)
(0.0999016 0.000696107 0)
(0.099879 0.000809604 0)
(0.099851 0.000943738 0)
(0.0998168 0.00109473 0)
(0.0997761 0.001255 0)
(0.0997292 0.00141474 0)
(0.0996772 0.00156401 0)
(0.0996219 0.00169464 0)
(0.099565 0.00180144 0)
(0.0995085 0.00188268 0)
(0.099454 0.00193974 0)
(0.0994029 0.0019763 0)
(0.0993559 0.00199742 0)
(0.0993136 0.00200853 0)
(0.099276 0.00201475 0)
(0.0992429 0.00202041 0)
(0.099214 0.00202885 0)
(0.0991887 0.00204239 0)
(0.0991666 0.00206241 0)
(0.0991473 0.00208958 0)
(0.0991303 0.002124 0)
(0.0991153 0.00216543 0)
(0.0991019 0.00221338 0)
(0.0990901 0.00226727 0)
(0.0990797 0.0023265 0)
(0.0990705 0.00239047 0)
(0.0990626 0.00245865 0)
(0.099056 0.00253058 0)
(0.0990506 0.00260584 0)
(0.0990465 0.00268409 0)
(0.0990438 0.00276504 0)
(0.0990425 0.00284845 0)
(0.0990427 0.0029341 0)
(0.0990444 0.00302182 0)
(0.0990478 0.00311145 0)
(0.0990529 0.00320285 0)
(0.0990597 0.00329588 0)
(0.0990683 0.00339043 0)
(0.0990788 0.00348638 0)
(0.0990913 0.00358364 0)
(0.0991058 0.00368208 0)
(0.0991223 0.00378161 0)
(0.0991409 0.00388212 0)
(0.0991617 0.00398352 0)
(0.0991846 0.00408569 0)
(0.0999999 3.20963e-05 0)
(0.0999981 9.55034e-05 0)
(0.0999943 0.000157887 0)
(0.0999888 0.000219548 0)
(0.0999816 0.000280635 0)
(0.099973 0.000341195 0)
(0.099963 0.000401686 0)
(0.0999517 0.00046386 0)
(0.099939 0.000531432 0)
(0.0999242 0.000609852 0)
(0.0999065 0.000704922 0)
(0.0998846 0.000820723 0)
(0.0998572 0.000957736 0)
(0.0998236 0.001112 0)
(0.0997832 0.00127563 0)
(0.0997367 0.00143848 0)
(0.0996852 0.00159029 0)
(0.0996303 0.00172263 0)
(0.0995742 0.00183023 0)
(0.0995186 0.00191134 0)
(0.0994655 0.00196745 0)
(0.0994159 0.00200245 0)
(0.0993708 0.00202157 0)
(0.0993307 0.00203045 0)
(0.0992954 0.00203439 0)
(0.0992649 0.00203786 0)
(0.0992386 0.00204427 0)
(0.0992162 0.00205598 0)
(0.099197 0.00207441 0)
(0.0991806 0.0021002 0)
(0.0991665 0.00213343 0)
(0.0991544 0.00217383 0)
(0.099144 0.00222086 0)
(0.0991351 0.0022739 0)
(0.0991276 0.00233233 0)
(0.0991214 0.00239551 0)
(0.0991164 0.00246288 0)
(0.0991127 0.00253395 0)
(0.0991102 0.0026083 0)
(0.099109 0.00268557 0)
(0.0991092 0.00276546 0)
(0.0991108 0.0028477 0)
(0.0991139 0.00293209 0)
(0.0991185 0.00301844 0)
(0.0991248 0.00310658 0)
(0.0991328 0.00319637 0)
(0.0991425 0.00328767 0)
(0.099154 0.00338038 0)
(0.0991674 0.00347436 0)
(0.0991827 0.00356951 0)
(0.0992 0.00366573 0)
(0.0992194 0.0037629 0)
(0.0992408 0.00386093 0)
(0.0992643 0.0039597 0)
(0.09929 0.00405913 0)
(0.0999999 3.24402e-05 0)
(0.0999982 9.65262e-05 0)
(0.0999946 0.000159574 0)
(0.0999894 0.000221887 0)
(0.0999826 0.000283606 0)
(0.0999745 0.000344775 0)
(0.0999651 0.00040586 0)
(0.0999544 0.000468674 0)
(0.0999424 0.000537061 0)
(0.0999284 0.000616652 0)
(0.0999114 0.000713425 0)
(0.0998902 0.000831556 0)
(0.0998634 0.000971487 0)
(0.0998302 0.00112906 0)
(0.0997903 0.00129608 0)
(0.0997442 0.00146204 0)
(0.099693 0.00161634 0)
(0.0996387 0.00175031 0)
(0.0995833 0.00185857 0)
(0.0995288 0.0019394 0)
(0.0994769 0.0019944 0)
(0.099429 0.00202765 0)
(0.0993858 0.0020446 0)
(0.0993478 0.0020511 0)
(0.0993149 0.00205262 0)
(0.0992869 0.00205376 0)
(0.0992634 0.00205803 0)
(0.0992437 0.00206784 0)
(0.0992274 0.0020846 0)
(0.0992138 0.00210896 0)
(0.0992026 0.00214097 0)
(0.0991935 0.00218029 0)
(0.099186 0.00222636 0)
(0.09918 0.00227854 0)
(0.0991753 0.00233613 0)
(0.099172 0.00239848 0)
(0.0991698 0.00246501 0)
(0.0991689 0.0025352 0)
(0.0991692 0.0026086 0)
(0.0991709 0.00268485 0)
(0.0991739 0.00276362 0)
(0.0991782 0.00284466 0)
(0.0991841 0.00292774 0)
(0.0991915 0.00301267 0)
(0.0992005 0.00309928 0)
(0.0992113 0.00318742 0)
(0.0992237 0.00327696 0)
(0.099238 0.00336777 0)
(0.0992541 0.00345975 0)
(0.0992721 0.00355276 0)
(0.0992921 0.00364672 0)
(0.0993141 0.00374151 0)
(0.0993382 0.00383702 0)
(0.0993643 0.00393317 0)
(0.0993925 0.00402983 0)
(0.0999999 3.27648e-05 0)
(0.0999983 9.74918e-05 0)
(0.0999949 0.000161167 0)
(0.09999 0.000224094 0)
(0.0999836 0.000286409 0)
(0.099976 0.000348147 0)
(0.0999671 0.000409788 0)
(0.0999571 0.000473207 0)
(0.0999458 0.000542383 0)
(0.0999325 0.000623133 0)
(0.0999163 0.000721617 0)
(0.0998957 0.000842106 0)
(0.0998696 0.000984992 0)
(0.0998369 0.00114591 0)
(0.0997974 0.00131635 0)
(0.0997516 0.0014854 0)
(0.0997009 0.00164215 0)
(0.0996472 0.00177767 0)
(0.0995925 0.00188647 0)
(0.099539 0.00196686 0)
(0.0994885 0.00202058 0)
(0.0994421 0.0020519 0)
(0.0994009 0.0020665 0)
(0.099365 0.00207046 0)
(0.0993346 0.00206942 0)
(0.0993092 0.00206812 0)
(0.0992883 0.00207015 0)
(0.0992714 0.00207798 0)
(0.0992579 0.00209302 0)
(0.0992472 0.0021159 0)
(0.0992389 0.00214663 0)
(0.0992325 0.00218485 0)
(0.0992279 0.00222994 0)
(0.0992247 0.00228122 0)
(0.0992228 0.00233795 0)
(0.0992222 0.00239945 0)
(0.0992228 0.0024651 0)
(0.0992246 0.00253438 0)
(0.0992277 0.0026068 0)
(0.099232 0.00268199 0)
(0.0992377 0.00275962 0)
(0.0992447 0.00283942 0)
(0.0992533 0.00292116 0)
(0.0992633 0.00300463 0)
(0.099275 0.00308967 0)
(0.0992883 0.00317613 0)
(0.0993034 0.00326387 0)
(0.0993203 0.00335276 0)
(0.099339 0.00344269 0)
(0.0993596 0.00353355 0)
(0.0993821 0.00362522 0)
(0.0994066 0.00371761 0)
(0.0994331 0.0038106 0)
(0.0994616 0.0039041 0)
(0.0994922 0.003998 0)
(0.0999999 3.30703e-05 0)
(0.0999984 9.84004e-05 0)
(0.0999952 0.000162666 0)
(0.0999906 0.00022617 0)
(0.0999846 0.000289043 0)
(0.0999775 0.000351313 0)
(0.0999692 0.000413472 0)
(0.0999598 0.000477461 0)
(0.0999492 0.000547399 0)
(0.0999367 0.000629298 0)
(0.0999211 0.0007295 0)
(0.0999013 0.000852372 0)
(0.0998757 0.000998252 0)
(0.0998435 0.00116256 0)
(0.0998045 0.00133642 0)
(0.0997591 0.00150857 0)
(0.0997089 0.0016677 0)
(0.0996558 0.00180468 0)
(0.0996019 0.0019139 0)
(0.0995495 0.00199369 0)
(0.0995003 0.00204596 0)
(0.0994556 0.00207518 0)
(0.0994163 0.00208727 0)
(0.0993826 0.00208853 0)
(0.0993546 0.00208479 0)
(0.0993317 0.00208093 0)
(0.0993135 0.00208065 0)
(0.0992993 0.00208642 0)
(0.0992886 0.00209968 0)
(0.0992807 0.00212104 0)
(0.0992752 0.00215047 0)
(0.0992716 0.00218755 0)
(0.0992697 0.00223164 0)
(0.0992693 0.002282 0)
(0.0992701 0.00233784 0)
(0.0992722 0.00239847 0)
(0.0992755 0.00246323 0)
(0.0992799 0.00253156 0)
(0.0992856 0.00260298 0)
(0.0992925 0.00267709 0)
(0.0993007 0.00275355 0)
(0.0993103 0.00283207 0)
(0.0993214 0.00291243 0)
(0.099334 0.00299442 0)
(0.0993482 0.00307786 0)
(0.099364 0.00316261 0)
(0.0993816 0.00324852 0)
(0.0994009 0.00333547 0)
(0.099422 0.00342334 0)
(0.099445 0.00351201 0)
(0.0994698 0.00360139 0)
(0.0994967 0.00369136 0)
(0.0995254 0.00378182 0)
(0.0995562 0.00387268 0)
(0.099589 0.00396382 0)
(0.0999999 3.33566e-05 0)
(0.0999985 9.92519e-05 0)
(0.0999955 0.00016407 0)
(0.0999912 0.000228114 0)
(0.0999856 0.000291509 0)
(0.0999789 0.000354273 0)
(0.0999712 0.000416912 0)
(0.0999625 0.000481436 0)
(0.0999526 0.000552111 0)
(0.0999408 0.000635146 0)
(0.099926 0.000737073 0)
(0.0999069 0.000862354 0)
(0.0998819 0.00101126 0)
(0.0998502 0.00117898 0)
(0.0998116 0.00135629 0)
(0.0997667 0.00153151 0)
(0.099717 0.00169298 0)
(0.0996646 0.00183133 0)
(0.0996116 0.00194083 0)
(0.0995603 0.00201988 0)
(0.0995125 0.00207053 0)
(0.0994695 0.00209747 0)
(0.0994322 0.00210689 0)
(0.0994007 0.0021053 0)
(0.099375 0.00209874 0)
(0.0993547 0.00209223 0)
(0.0993391 0.00208953 0)
(0.0993276 0.00209318 0)
(0.0993196 0.00210462 0)
(0.0993145 0.00212442 0)
(0.0993117 0.00215251 0)
(0.0993108 0.00218845 0)
(0.0993116 0.00223152 0)
(0.0993138 0.00228093 0)
(0.0993172 0.00233588 0)
(0.0993219 0.00239562 0)
(0.0993277 0.00245947 0)
(0.0993347 0.00252684 0)
(0.0993429 0.00259723 0)
(0.0993523 0.00267023 0)
(0.099363 0.00274549 0)
(0.099375 0.00282271 0)
(0.0993885 0.00290167 0)
(0.0994035 0.00298215 0)
(0.0994201 0.00306397 0)
(0.0994383 0.00314698 0)
(0.0994582 0.00323104 0)
(0.0994798 0.00331603 0)
(0.0995032 0.00340182 0)
(0.0995284 0.0034883 0)
(0.0995555 0.00357537 0)
(0.0995845 0.00366292 0)
(0.0996154 0.00375086 0)
(0.0996482 0.00383908 0)
(0.099683 0.00392748 0)
(0.0999999 3.36238e-05 0)
(0.0999986 0.000100047 0)
(0.0999958 0.00016538 0)
(0.0999918 0.000229928 0)
(0.0999866 0.000293807 0)
(0.0999804 0.000357028 0)
(0.0999732 0.000420109 0)
(0.0999652 0.000485134 0)
(0.0999559 0.000556519 0)
(0.0999449 0.000640678 0)
(0.0999309 0.000744335 0)
(0.0999124 0.000872044 0)
(0.0998881 0.00102401 0)
(0.099857 0.00119517 0)
(0.0998189 0.00137593 0)
(0.0997745 0.00155419 0)
(0.0997254 0.00171795 0)
(0.0996737 0.00185757 0)
(0.0996217 0.00196723 0)
(0.0995716 0.00204539 0)
(0.0995253 0.00209425 0)
(0.099484 0.00211876 0)
(0.0994486 0.00212535 0)
(0.0994194 0.00212078 0)
(0.099396 0.00211128 0)
(0.0993782 0.00210201 0)
(0.0993652 0.00209683 0)
(0.0993564 0.00209831 0)
(0.099351 0.00210788 0)
(0.0993485 0.00212608 0)
(0.0993484 0.00215282 0)
(0.0993501 0.00218759 0)
(0.0993535 0.00222962 0)
(0.0993583 0.00227809 0)
(0.0993642 0.00233213 0)
(0.0993714 0.00239097 0)
(0.0993796 0.00245388 0)
(0.099389 0.00252027 0)
(0.0993996 0.00258962 0)
(0.0994114 0.00266149 0)
(0.0994244 0.00273553 0)
(0.0994388 0.00281144 0)
(0.0994546 0.00288897 0)
(0.0994719 0.00296792 0)
(0.0994907 0.0030481 0)
(0.0995111 0.00312936 0)
(0.0995332 0.00321156 0)
(0.099557 0.00329457 0)
(0.0995825 0.00337827 0)
(0.0996098 0.00346256 0)
(0.099639 0.00354732 0)
(0.09967 0.00363246 0)
(0.0997028 0.00371788 0)
(0.0997376 0.00380347 0)
(0.0997742 0.00388915 0)
(0.0999999 3.3872e-05 0)
(0.0999987 0.000100785 0)
(0.0999961 0.000166597 0)
(0.0999924 0.000231611 0)
(0.0999876 0.000295938 0)
(0.0999819 0.000359578 0)
(0.0999753 0.000423065 0)
(0.0999678 0.000488557 0)
(0.0999593 0.000560625 0)
(0.099949 0.000645894 0)
(0.0999357 0.000751282 0)
(0.099918 0.000881433 0)
(0.0998943 0.00103647 0)
(0.0998638 0.00121109 0)
(0.0998263 0.0013953 0)
(0.0997826 0.00157659 0)
(0.0997342 0.00174257 0)
(0.0996833 0.00188336 0)
(0.0996323 0.00199306 0)
(0.0995835 0.00207018 0)
(0.0995387 0.00211711 0)
(0.0994993 0.00213904 0)
(0.0994659 0.00214265 0)
(0.0994388 0.00213498 0)
(0.0994179 0.00212243 0)
(0.0994025 0.00211032 0)
(0.099392 0.00210259 0)
(0.0993857 0.00210183 0)
(0.099383 0.0021095 0)
(0.099383 0.00212609 0)
(0.0993854 0.00215146 0)
(0.0993897 0.00218504 0)
(0.0993956 0.00222603 0)
(0.0994027 0.00227354 0)
(0.0994111 0.00232666 0)
(0.0994206 0.00238458 0)
(0.0994313 0.00244656 0)
(0.099443 0.00251195 0)
(0.0994558 0.00258024 0)
(0.0994698 0.00265097 0)
(0.0994851 0.00272377 0)
(0.0995017 0.00279835 0)
(0.0995197 0.00287444 0)
(0.0995391 0.00295184 0)
(0.0995601 0.00303037 0)
(0.0995826 0.00310987 0)
(0.0996067 0.00319019 0)
(0.0996325 0.00327122 0)
(0.0996601 0.00335284 0)
(0.0996893 0.00343493 0)
(0.0997204 0.00351739 0)
(0.0997532 0.00360012 0)
(0.0997879 0.00368303 0)
(0.0998244 0.00376602 0)
(0.0998628 0.003849 0)
(0.0999999 3.41012e-05 0)
(0.0999988 0.000101466 0)
(0.0999964 0.00016772 0)
(0.099993 0.000233165 0)
(0.0999886 0.000297903 0)
(0.0999833 0.000361925 0)
(0.0999773 0.00042578 0)
(0.0999705 0.000491705 0)
(0.0999626 0.000564428 0)
(0.0999531 0.00065079 0)
(0.0999405 0.000757905 0)
(0.0999235 0.000890506 0)
(0.0999006 0.00104863 0)
(0.0998708 0.00122671 0)
(0.099834 0.00141436 0)
(0.099791 0.00159864 0)
(0.0997434 0.00176678 0)