/*--------------------------------*- C++ -*----------------------------------*\
| =========                 |                                                 |
| \\      /  F ield         | OpenFOAM: The Open Source CFD Toolbox           |
|  \\    /   O peration     | Version:  2412                                  |
|   \\  /    A nd           | Website:  www.openfoam.com                      |
|    \\/     M anipulation  |                                                 |
\*---------------------------------------------------------------------------*/
FoamFile
{
    version     2.0;
    format      ascii;
    arch        "LSB;label=32;scalar=64";
    class       volVectorField;
    location    "23.5";
    object      vorticity;
}
// * * * * * * * * * * * * * * * * * * * * * * * * * * * * * * * * * * * * * //

dimensions      [0 0 -1 0 0 0 0];

internalField   nonuniform List<vector> 
5285
(
(0 -0 4.62454e-06)
(0 -0 4.67993e-06)
(0 -0 4.80369e-06)
(0 -0 4.91633e-06)
(0 -0 5.00758e-06)
(0 -0 5.08646e-06)
(0 -0 5.1741e-06)
(0 -0 5.27156e-06)
(0 -0 5.37922e-06)
(0 -0 5.49598e-06)
(0 -0 5.61687e-06)
(0 -0 5.72583e-06)
(0 -0 5.77402e-06)
(0 -0 5.63507e-06)
(0 -0 5.14225e-06)
(0 -0 4.51394e-06)
(0 -0 5.02013e-06)
(0 -0 5.0956e-06)
(0 -0 5.21066e-06)
(0 -0 5.3553e-06)
(0 -0 5.46505e-06)
(0 -0 5.5596e-06)
(0 -0 5.66285e-06)
(0 -0 5.77588e-06)
(0 -0 5.89909e-06)
(0 -0 6.03141e-06)
(0 -0 6.16777e-06)
(0 -0 6.29164e-06)
(0 -0 6.35164e-06)
(0 -0 6.20805e-06)
(0 -0 5.69269e-06)
(0 -0 4.93397e-06)
(0 -0 4.99967e-06)
(0 -0 5.06811e-06)
(0 -0 5.20839e-06)
(0 -0 5.36375e-06)
(0 -0 5.47957e-06)
(0 -0 5.58022e-06)
(0 -0 5.68983e-06)
(0 -0 5.80933e-06)
(0 -0 5.93906e-06)
(0 -0 6.0779e-06)
(0 -0 6.22066e-06)
(0 -0 6.35064e-06)
(0 -0 6.41546e-06)
(0 -0 6.27492e-06)
(0 -0 5.7306e-06)
(0 -0 5.00944e-06)
(0 -0 4.70902e-06)
(0 -0 4.78616e-06)
(0 -0 4.93234e-06)
(0 -0 5.09054e-06)
(0 -0 5.20817e-06)
(0 -0 5.31037e-06)
(0 -0 5.42162e-06)
(0 -0 5.54276e-06)
(0 -0 5.67413e-06)
(0 -0 5.81452e-06)
(0 -0 5.95878e-06)
(0 -0 6.09016e-06)
(0 -0 6.15619e-06)
(0 -0 6.01795e-06)
(0 -0 5.49383e-06)
(0 -0 4.79152e-06)
(0 -0 4.32053e-06)
(0 -0 4.40255e-06)
(0 -0 4.55385e-06)
(0 -0 4.71673e-06)
(0 -0 4.83822e-06)
(0 -0 4.9439e-06)
(0 -0 5.05858e-06)
(0 -0 5.18315e-06)
(0 -0 5.31794e-06)
(0 -0 5.46175e-06)
(0 -0 5.60948e-06)
(0 -0 5.74443e-06)
(0 -0 5.8143e-06)
(0 -0 5.68113e-06)
(0 -0 5.16885e-06)
(0 -0 4.49951e-06)
(0 -0 3.84082e-06)
(0 -0 3.93035e-06)
(0 -0 4.08996e-06)
(0 -0 4.26117e-06)
(0 -0 4.39034e-06)
(0 -0 4.50341e-06)
(0 -0 4.62548e-06)
(0 -0 4.75748e-06)
(0 -0 4.89978e-06)
(0 -0 5.05125e-06)
(0 -0 5.20682e-06)
(0 -0 5.34989e-06)
(0 -0 5.42836e-06)
(0 -0 5.30452e-06)
(0 -0 4.80346e-06)
(0 -0 4.15059e-06)
(0 -0 3.22009e-06)
(0 -0 3.32063e-06)
(0 -0 3.49201e-06)
(0 -0 3.67514e-06)
(0 -0 3.81581e-06)
(0 -0 3.94019e-06)
(0 -0 4.07368e-06)
(0 -0 4.21729e-06)
(0 -0 4.37142e-06)
(0 -0 4.535e-06)
(0 -0 4.70302e-06)
(0 -0 4.85901e-06)
(0 -0 4.95097e-06)
(0 -0 4.84115e-06)
(0 -0 4.35408e-06)
(0 -0 3.71577e-06)
(0 -0 2.40509e-06)
(0 -0 2.52007e-06)
(0 -0 2.70662e-06)
(0 -0 2.90514e-06)
(0 -0 3.06094e-06)
(0 -0 3.20044e-06)
(0 -0 3.34935e-06)
(0 -0 3.5087e-06)
(0 -0 3.67897e-06)
(0 -0 3.85914e-06)
(0 -0 4.0443e-06)
(0 -0 4.21806e-06)
(0 -0 4.32856e-06)
(0 -0 4.23783e-06)
(0 -0 3.76938e-06)
(0 -0 3.14896e-06)
(0 -0 1.34298e-06)
(0 -0 1.47551e-06)
(0 -0 1.68037e-06)
(0 -0 1.89752e-06)
(0 -0 2.07188e-06)
(0 -0 2.23015e-06)
(0 -0 2.3983e-06)
(0 -0 2.57743e-06)
(0 -0 2.76807e-06)
(0 -0 2.96927e-06)
(0 -0 3.17621e-06)
(0 -0 3.37264e-06)
(0 -0 3.50679e-06)
(0 -0 3.44052e-06)
(0 -0 2.99623e-06)
(0 -0 2.39914e-06)
(0 -0 -1.62191e-08)
(0 -0 1.36638e-07)
(0 -0 3.62621e-07)
(0 -0 6.01398e-07)
(0 -0 7.97526e-07)
(0 -0 9.78019e-07)
(0 -0 1.16906e-06)
(0 -0 1.37183e-06)
(0 -0 1.58694e-06)
(0 -0 1.81352e-06)
(0 -0 2.04684e-06)
(0 -0 2.27081e-06)
(0 -0 2.43378e-06)
(0 -0 2.39749e-06)
(0 -0 1.98333e-06)
(0 -0 1.41593e-06)
(0 -0 -1.7178e-06)
(0 -0 -1.54222e-06)
(0 -0 -1.2926e-06)
(0 -0 -1.02952e-06)
(0 -0 -8.08674e-07)
(0 -0 -6.02799e-07)
(0 -0 -3.85453e-07)
(0 -0 -1.55378e-07)
(0 -0 8.8114e-08)
(0 -0 3.44262e-07)
(0 -0 6.08459e-07)
(0 -0 8.64749e-07)
(0 -0 1.06169e-06)
(0 -0 1.06097e-06)
(0 -0 6.83078e-07)
(0 -0 1.52037e-07)
(0 -0 -3.80066e-06)
(0 -0 -3.60038e-06)
(0 -0 -3.32502e-06)
(0 -0 -3.03535e-06)
(0 -0 -2.7872e-06)
(0 -0 -2.55311e-06)
(0 -0 -2.30639e-06)
(0 -0 -2.04566e-06)
(0 -0 -1.77014e-06)
(0 -0 -1.48049e-06)
(0 -0 -1.18115e-06)
(0 -0 -8.87911e-07)
(0 -0 -6.51986e-07)
(0 -0 -6.11659e-07)
(0 -0 -9.47144e-07)
(0 -0 -1.43519e-06)
(0 -0 -6.29525e-06)
(0 -0 -6.06881e-06)
(0 -0 -5.76611e-06)
(0 -0 -5.44801e-06)
(0 -0 -5.17049e-06)
(0 -0 -4.90583e-06)
(0 -0 -4.62709e-06)
(0 -0 -4.33281e-06)
(0 -0 -4.02206e-06)
(0 -0 -3.69535e-06)
(0 -0 -3.35698e-06)
(0 -0 -3.02253e-06)
(0 -0 -2.74293e-06)
(0 -0 -2.65631e-06)
(0 -0 -2.94344e-06)
(0 -0 -3.38211e-06)
(0 -0 -9.22123e-06)
(0 -0 -8.96774e-06)
(0 -0 -8.63669e-06)
(0 -0 -8.28893e-06)
(0 -0 -7.98056e-06)
(0 -0 -7.6836e-06)
(0 -0 -7.37087e-06)
(0 -0 -7.04075e-06)
(0 -0 -6.69214e-06)
(0 -0 -6.32542e-06)
(0 -0 -5.94468e-06)
(0 -0 -5.56528e-06)
(0 -0 -5.23783e-06)
(0 -0 -5.10014e-06)
(0 -0 -5.33339e-06)
(0 -0 -5.71657e-06)
(0 -0 -1.25849e-05)
(0 -0 -1.23042e-05)
(0 -0 -1.19444e-05)
(0 -0 -1.15665e-05)
(0 -0 -1.12266e-05)
(0 -0 -1.08965e-05)
(0 -0 -1.05486e-05)
(0 -0 -1.01811e-05)
(0 -0 -9.7928e-06)
(0 -0 -9.38384e-06)
(0 -0 -8.95814e-06)
(0 -0 -8.53076e-06)
(0 -0 -8.15198e-06)
(0 -0 -7.95918e-06)
(0 -0 -8.13373e-06)
(0 -0 -8.45587e-06)
(0 -0 -1.63771e-05)
(0 -0 -1.60695e-05)
(0 -0 -1.56815e-05)
(0 -0 -1.52739e-05)
(0 -0 -1.49028e-05)
(0 -0 -1.45395e-05)
(0 -0 -1.41563e-05)
(0 -0 -1.37509e-05)
(0 -0 -1.3322e-05)
(0 -0 -1.28695e-05)
(0 -0 -1.23971e-05)
(0 -0 -1.19196e-05)
(0 -0 -1.14869e-05)
(0 -0 -1.12359e-05)
(0 -0 -1.13479e-05)
(0 -0 -1.16045e-05)
(0 -0 -2.05711e-05)
(0 -0 -2.02376e-05)
(0 -0 -1.98228e-05)
(0 -0 -1.93874e-05)
(0 -0 -1.89867e-05)
(0 -0 -1.85916e-05)
(0 -0 -1.81739e-05)
(0 -0 -1.77311e-05)
(0 -0 -1.72616e-05)
(0 -0 -1.67653e-05)
(0 -0 -1.62454e-05)
(0 -0 -1.57166e-05)
(0 -0 -1.52283e-05)
(0 -0 -1.49171e-05)
(0 -0 -1.49642e-05)
(0 -0 -1.5152e-05)
(0 -0 -2.51221e-05)
(0 -0 -2.47636e-05)
(0 -0 -2.43254e-05)
(0 -0 -2.38658e-05)
(0 -0 -2.34387e-05)
(0 -0 -2.30143e-05)
(0 -0 -2.2564e-05)
(0 -0 -2.20852e-05)
(0 -0 -2.15762e-05)
(0 -0 -2.10365e-05)
(0 -0 -2.04695e-05)
(0 -0 -1.98893e-05)
(0 -0 -1.93452e-05)
(0 -0 -1.8973e-05)
(0 -0 -1.89542e-05)
(0 -0 -1.90721e-05)
(0 -0 -2.99649e-05)
(0 -0 -2.95843e-05)
(0 -0 -2.91293e-05)
(0 -0 -2.86525e-05)
(0 -0 -2.82034e-05)
(0 -0 -2.77528e-05)
(0 -0 -2.72723e-05)
(0 -0 -2.67596e-05)
(0 -0 -2.62128e-05)
(0 -0 -2.56313e-05)
(0 -0 -2.50183e-05)
(0 -0 -2.43879e-05)
(0 -0 -2.37888e-05)
(0 -0 -2.33567e-05)
(0 -0 -2.32735e-05)
(0 -0 -2.33235e-05)
(0 -0 -3.50279e-05)
(0 -0 -3.46219e-05)
(0 -0 -3.41528e-05)
(0 -0 -3.3679e-05)
(0 -0 -3.32112e-05)
(0 -0 -3.27364e-05)
(0 -0 -3.2228e-05)
(0 -0 -3.16837e-05)
(0 -0 -3.11015e-05)
(0 -0 -3.04807e-05)
(0 -0 -2.98242e-05)
(0 -0 -2.91458e-05)
(0 -0 -2.8494e-05)
(0 -0 -2.80049e-05)
(0 -0 -2.78633e-05)
(0 -0 -2.78516e-05)
(0 -0 0.000380398)
(0 -0 0.00037893)
(0 -0 0.00037766)
(0 -0 0.000376248)
(0 -0 0.00037413)
(0 -0 0.000372197)
(0 -0 0.000375307)
(0 -0 0.000393257)
(0 -0 0.000438176)
(0 -0 0.000387355)
(0 -0 0.000385865)
(0 -0 0.000384579)
(0 -0 0.000383143)
(0 -0 0.000380975)
(0 -0 0.000378996)
(0 -0 0.000382228)
(0 -0 0.000400791)
(0 -0 0.000447222)
(0 -0 0.000530389)
(0 -0 0.000649159)
(0 -0 0.000789504)
(0 -0 0.000926826)
(0 -0 0.00103269)
(0 -0 0.00108298)
(0 -0 0.00106436)
(0 -0 0.000976841)
(0 -0 0.000832513)
(0 -0 0.000651364)
(0 -0 0.000456115)
(0 -0 0.000267612)
(0 -0 0.000101737)
(0 -0 -3.18898e-05)
(0 -0 -0.000129696)
(0 -0 -0.000192969)
(0 -0 -0.00022624)
(0 -0 -0.000235705)
(0 -0 -0.000227929)
(0 -0 -0.000208964)
(0 -0 -0.000183845)
(0 -0 -0.000156413)
(0 -0 -0.000129351)
(0 -0 -0.000104346)
(0 -0 -8.23002e-05)
(0 -0 -6.35493e-05)
(0 -0 -4.80528e-05)
(0 -0 -3.55455e-05)
(0 -0 -2.56499e-05)
(0 -0 -1.79526e-05)
(0 -0 -1.20529e-05)
(0 -0 -7.58849e-06)
(0 -0 -4.24827e-06)
(0 -0 -1.77407e-06)
(0 -0 4.23709e-08)
(0 -0 1.36526e-06)
(0 -0 2.32182e-06)
(0 -0 3.00901e-06)
(0 -0 3.49993e-06)
(0 -0 3.84892e-06)
(0 -0 4.09599e-06)
(0 -0 4.27015e-06)
(0 -0 4.39151e-06)
(0 -0 4.47431e-06)
(0 -0 4.52291e-06)
(0 -0 4.55131e-06)
(0 -0 0.000394061)
(0 -0 0.00039255)
(0 -0 0.000391249)
(0 -0 0.00038979)
(0 -0 0.000387572)
(0 -0 0.000385547)
(0 -0 0.000388907)
(0 -0 0.000408111)
(0 -0 0.000456107)
(0 -0 0.00054205)
(0 -0 0.000664744)
(0 -0 0.000809668)
(0 -0 0.000951398)
(0 -0 0.00106056)
(0 -0 0.00111228)
(0 -0 0.00109281)
(0 -0 0.00100224)
(0 -0 0.000853071)
(0 -0 0.000666002)
(0 -0 0.000464509)
(0 -0 0.000270119)
(0 -0 9.92129e-05)
(0 -0 -3.83012e-05)
(0 -0 -0.000138769)
(0 -0 -0.00020355)
(0 -0 -0.000237353)
(0 -0 -0.000246596)
(0 -0 -0.000238077)
(0 -0 -0.000218051)
(0 -0 -0.000191723)
(0 -0 -0.000163061)
(0 -0 -0.000134831)
(0 -0 -0.000108771)
(0 -0 -8.58068e-05)
(0 -0 -6.62809e-05)
(0 -0 -5.01453e-05)
(0 -0 -3.71211e-05)
(0 -0 -2.68138e-05)
(0 -0 -1.87927e-05)
(0 -0 -1.26403e-05)
(0 -0 -7.98008e-06)
(0 -0 -4.48821e-06)
(0 -0 -1.89629e-06)
(0 -0 1.21995e-08)
(0 -0 1.40806e-06)
(0 -0 2.42355e-06)
(0 -0 3.15954e-06)
(0 -0 3.6921e-06)
(0 -0 4.07776e-06)
(0 -0 4.35824e-06)
(0 -0 4.56377e-06)
(0 -0 4.71531e-06)
(0 -0 4.82611e-06)
(0 -0 4.90576e-06)
(0 -0 4.94541e-06)
(0 -0 0.000400515)
(0 -0 0.000398984)
(0 -0 0.000397669)
(0 -0 0.000396188)
(0 -0 0.000393919)
(0 -0 0.000391847)
(0 -0 0.000395342)
(0 -0 0.000415218)
(0 -0 0.000464848)
(0 -0 0.000553671)
(0 -0 0.000680424)
(0 -0 0.000830071)
(0 -0 0.000976321)
(0 -0 0.00108883)
(0 -0 0.00114194)
(0 -0 0.0011215)
(0 -0 0.00102765)
(0 -0 0.000873399)
(0 -0 0.000680143)
(0 -0 0.00047216)
(0 -0 0.000271678)
(0 -0 9.55968e-05)
(0 -0 -4.58862e-05)
(0 -0 -0.000149036)
(0 -0 -0.000215296)
(0 -0 -0.000249563)
(0 -0 -0.000258494)
(0 -0 -0.000249125)
(0 -0 -0.00022793)
(0 -0 -0.00020029)
(0 -0 -0.000170301)
(0 -0 -0.000140819)
(0 -0 -0.000113633)
(0 -0 -8.96937e-05)
(0 -0 -6.93468e-05)
(0 -0 -5.2537e-05)
(0 -0 -3.89698e-05)
(0 -0 -2.82325e-05)
(0 -0 -1.98757e-05)
(0 -0 -1.34642e-05)
(0 -0 -8.60592e-06)
(0 -0 -4.9637e-06)
(0 -0 -2.25823e-06)
(0 -0 -2.64199e-07)
(0 -0 1.19607e-06)
(0 -0 2.26019e-06)
(0 -0 3.03314e-06)
(0 -0 3.594e-06)
(0 -0 4.00163e-06)
(0 -0 4.29944e-06)
(0 -0 4.51885e-06)
(0 -0 4.68175e-06)
(0 -0 4.80175e-06)
(0 -0 4.88551e-06)
(0 -0 4.92813e-06)
(0 -0 0.000406713)
(0 -0 0.000405165)
(0 -0 0.000403837)
(0 -0 0.000402335)
(0 -0 0.000400013)
(0 -0 0.000397894)
(0 -0 0.000401534)
(0 -0 0.000422117)
(0 -0 0.000473452)
(0 -0 0.000565269)
(0 -0 0.00069623)
(0 -0 0.000850748)
(0 -0 0.00100163)
(0 -0 0.00111751)
(0 -0 0.00117194)
(0 -0 0.00115034)
(0 -0 0.00105296)
(0 -0 0.000893302)
(0 -0 0.000693539)
(0 -0 0.000478776)
(0 -0 0.000271974)
(0 -0 9.05641e-05)
(0 -0 -5.49621e-05)
(0 -0 -0.000160796)
(0 -0 -0.000228478)
(0 -0 -0.000263109)
(0 -0 -0.000271599)
(0 -0 -0.000261242)
(0 -0 -0.000238738)
(0 -0 -0.000209653)
(0 -0 -0.000178219)
(0 -0 -0.000147382)
(0 -0 -0.000118984)
(0 -0 -9.39977e-05)
(0 -0 -7.27734e-05)
(0 -0 -5.52452e-05)
(0 -0 -4.11018e-05)
(0 -0 -2.99101e-05)
(0 -0 -2.12001e-05)
(0 -0 -1.45178e-05)
(0 -0 -9.45387e-06)
(0 -0 -5.65722e-06)
(0 -0 -2.83669e-06)
(0 -0 -7.57626e-07)
(0 -0 7.6504e-07)
(0 -0 1.87462e-06)
(0 -0 2.68044e-06)
(0 -0 3.26483e-06)
(0 -0 3.68912e-06)
(0 -0 3.99845e-06)
(0 -0 4.2256e-06)
(0 -0 4.39339e-06)
(0 -0 4.51603e-06)
(0 -0 4.60025e-06)
(0 -0 4.64436e-06)
(0 -0 0.000412655)
(0 -0 0.000411091)
(0 -0 0.000409752)
(0 -0 0.000408228)
(0 -0 0.000405852)
(0 -0 0.000403685)
(0 -0 0.000407481)
(0 -0 0.00042881)
(0 -0 0.000481934)
(0 -0 0.000576877)
(0 -0 0.000712203)
(0 -0 0.000871739)
(0 -0 0.00102733)
(0 -0 0.00114659)
(0 -0 0.00120219)
(0 -0 0.00117918)
(0 -0 0.00107793)
(0 -0 0.000912489)
(0 -0 0.000705843)
(0 -0 0.000483972)
(0 -0 0.000270602)
(0 -0 8.37103e-05)
(0 -0 -6.59163e-05)
(0 -0 -0.000174407)
(0 -0 -0.000243415)
(0 -0 -0.000278268)
(0 -0 -0.000286148)
(0 -0 -0.000274622)
(0 -0 -0.000250633)
(0 -0 -0.000219937)
(0 -0 -0.00018691)
(0 -0 -0.00015459)
(0 -0 -0.00012487)
(0 -0 -9.8749e-05)
(0 -0 -7.65756e-05)
(0 -0 -5.82722e-05)
(0 -0 -4.3508e-05)
(0 -0 -3.18274e-05)
(0 -0 -2.27378e-05)
(0 -0 -1.57642e-05)
(0 -0 -1.04793e-05)
(0 -0 -6.51626e-06)
(0 -0 -3.57144e-06)
(0 -0 -1.40003e-06)
(0 -0 1.90963e-07)
(0 -0 1.35096e-06)
(0 -0 2.19393e-06)
(0 -0 2.80572e-06)
(0 -0 3.25024e-06)
(0 -0 3.57457e-06)
(0 -0 3.81287e-06)
(0 -0 3.989e-06)
(0 -0 4.11793e-06)
(0 -0 4.20712e-06)
(0 -0 4.25678e-06)
(0 -0 0.00041834)
(0 -0 0.00041676)
(0 -0 0.000415412)
(0 -0 0.000413868)
(0 -0 0.000411436)
(0 -0 0.000409221)
(0 -0 0.000413184)
(0 -0 0.0004353)
(0 -0 0.000490301)
(0 -0 0.000588504)
(0 -0 0.000728351)
(0 -0 0.000893041)
(0 -0 0.00105342)
(0 -0 0.00117598)
(0 -0 0.00123258)
(0 -0 0.00120785)
(0 -0 0.00110233)
(0 -0 0.000930658)
(0 -0 0.000716705)
(0 -0 0.000487368)
(0 -0 0.000267167)
(0 -0 7.46435e-05)
(0 -0 -7.91248e-05)
(0 -0 -0.000190217)
(0 -0 -0.000260424)
(0 -0 -0.000295319)
(0 -0 -0.000302382)
(0 -0 -0.00028947)
(0 -0 -0.000263783)
(0 -0 -0.000231281)
(0 -0 -0.000196486)
(0 -0 -0.000162532)
(0 -0 -0.000131365)
(0 -0 -0.000104005)
(0 -0 -8.07979e-05)
(0 -0 -6.16527e-05)
(0 -0 -4.62154e-05)
(0 -0 -3.40051e-05)
(0 -0 -2.45044e-05)
(0 -0 -1.72154e-05)
(0 -0 -1.16906e-05)
(0 -0 -7.5467e-06)
(0 -0 -4.46612e-06)
(0 -0 -2.19319e-06)
(0 -0 -5.26361e-07)
(0 -0 6.90381e-07)
(0 -0 1.57602e-06)
(0 -0 2.22015e-06)
(0 -0 2.68948e-06)
(0 -0 3.03314e-06)
(0 -0 3.28681e-06)
(0 -0 3.47547e-06)
(0 -0 3.61498e-06)
(0 -0 3.71371e-06)
(0 -0 3.77386e-06)
(0 -0 0.000423767)
(0 -0 0.000422173)
(0 -0 0.000420816)
(0 -0 0.000419252)
(0 -0 0.000416763)
(0 -0 0.000414499)
(0 -0 0.000418642)
(0 -0 0.000441589)
(0 -0 0.00049856)
(0 -0 0.000600161)
(0 -0 0.000744686)
(0 -0 0.000914657)
(0 -0 0.00107985)
(0 -0 0.00120565)
(0 -0 0.001263)
(0 -0 0.00123619)
(0 -0 0.00112592)
(0 -0 0.000947535)
(0 -0 0.000725807)
(0 -0 0.000488614)
(0 -0 0.000261307)
(0 -0 6.29996e-05)
(0 -0 -9.49395e-05)
(0 -0 -0.000208558)
(0 -0 -0.000279805)
(0 -0 -0.000314531)
(0 -0 -0.000320535)
(0 -0 -0.000305988)
(0 -0 -0.000278363)
(0 -0 -0.000243833)
(0 -0 -0.000207073)
(0 -0 -0.000171316)
(0 -0 -0.000138561)
(0 -0 -0.000109844)
(0 -0 -8.55112e-05)
(0 -0 -6.54501e-05)
(0 -0 -4.92818e-05)
(0 -0 -3.64972e-05)
(0 -0 -2.6551e-05)
(0 -0 -1.89202e-05)
(0 -0 -1.31355e-05)
(0 -0 -8.79516e-06)
(0 -0 -5.56682e-06)
(0 -0 -3.18291e-06)
(0 -0 -1.43264e-06)
(0 -0 -1.52867e-07)
(0 -0 7.80792e-07)
(0 -0 1.46197e-06)
(0 -0 1.96038e-06)
(0 -0 2.32739e-06)
(0 -0 2.60029e-06)
(0 -0 2.80528e-06)
(0 -0 2.95916e-06)
(0 -0 3.07131e-06)
(0 -0 3.14585e-06)
(0 -0 0.000428934)
(0 -0 0.000427328)
(0 -0 0.000425964)
(0 -0 0.00042438)
(0 -0 0.000421832)
(0 -0 0.000419518)
(0 -0 0.000423855)
(0 -0 0.00044768)
(0 -0 0.000506716)
(0 -0 0.000611855)
(0 -0 0.000761212)
(0 -0 0.000936578)
(0 -0 0.00110661)
(0 -0 0.00123551)
(0 -0 0.00129332)
(0 -0 0.00126399)
(0 -0 0.00114847)
(0 -0 0.000962812)
(0 -0 0.000732798)
(0 -0 0.000487332)
(0 -0 0.000252627)
(0 -0 4.83884e-05)
(0 -0 -0.000113734)
(0 -0 -0.000229777)
(0 -0 -0.000301875)
(0 -0 -0.000336184)
(0 -0 -0.000340853)
(0 -0 -0.00032439)
(0 -0 -0.000294554)
(0 -0 -0.000257747)
(0 -0 -0.000218802)
(0 -0 -0.000181053)
(0 -0 -0.000146552)
(0 -0 -0.000116351)
(0 -0 -9.07885e-05)
(0 -0 -6.97304e-05)
(0 -0 -5.27678e-05)
(0 -0 -3.936e-05)
(0 -0 -2.89311e-05)
(0 -0 -2.09301e-05)
(0 -0 -1.4864e-05)
(0 -0 -1.0311e-05)
(0 -0 -6.9224e-06)
(0 -0 -4.41786e-06)
(0 -0 -2.57654e-06)
(0 -0 -1.22759e-06)
(0 -0 -2.40804e-07)
(0 -0 4.81815e-07)
(0 -0 1.01323e-06)
(0 -0 1.40718e-06)
(0 -0 1.70273e-06)
(0 -0 1.92736e-06)
(0 -0 2.09888e-06)
(0 -0 2.22775e-06)
(0 -0 2.31989e-06)
(0 -0 0.000433842)
(0 -0 0.000432224)
(0 -0 0.000430855)
(0 -0 0.000429251)
(0 -0 0.000426642)
(0 -0 0.000424278)
(0 -0 0.000428824)
(0 -0 0.000453577)
(0 -0 0.000514774)
(0 -0 0.000623592)
(0 -0 0.000777929)
(0 -0 0.000958788)
(0 -0 0.00113365)
(0 -0 0.00126546)
(0 -0 0.0013234)
(0 -0 0.00129106)
(0 -0 0.00116969)
(0 -0 0.000976159)
(0 -0 0.000737306)
(0 -0 0.000483121)
(0 -0 0.000240721)
(0 -0 3.04074e-05)
(0 -0 -0.000135894)
(0 -0 -0.000254229)
(0 -0 -0.000326955)
(0 -0 -0.000360564)
(0 -0 -0.000363584)
(0 -0 -0.000344886)
(0 -0 -0.000312537)
(0 -0 -0.000273175)
(0 -0 -0.000231802)
(0 -0 -0.000191854)
(0 -0 -0.000155433)
(0 -0 -0.000123607)
(0 -0 -9.67026e-05)
(0 -0 -7.45588e-05)
(0 -0 -5.67332e-05)
(0 -0 -4.26495e-05)
(0 -0 -3.16977e-05)
(0 -0 -2.32964e-05)
(0 -0 -1.69261e-05)
(0 -0 -1.21432e-05)
(0 -0 -8.58148e-06)
(0 -0 -5.94649e-06)
(0 -0 -4.00654e-06)
(0 -0 -2.58244e-06)
(0 -0 -1.53769e-06)
(0 -0 -7.69569e-07)
(0 -0 -2.01618e-07)
(0 -0 2.22479e-07)
(0 -0 5.43654e-07)
(0 -0 7.90769e-07)
(0 -0 9.82741e-07)
(0 -0 1.1311e-06)
(0 -0 1.24352e-06)
(0 -0 0.00043849)
(0 -0 0.000436863)
(0 -0 0.000435489)
(0 -0 0.000433865)
(0 -0 0.000431193)
(0 -0 0.00042878)
(0 -0 0.000433549)
(0 -0 0.000459281)
(0 -0 0.00052274)
(0 -0 0.000635375)
(0 -0 0.000794829)
(0 -0 0.000981258)
(0 -0 0.00116089)
(0 -0 0.00129541)
(0 -0 0.00135307)
(0 -0 0.00131716)
(0 -0 0.00118931)
(0 -0 0.000987237)
(0 -0 0.000738951)
(0 -0 0.000475582)
(0 -0 0.00022518)
(0 -0 8.65833e-06)
(0 -0 -0.000161794)
(0 -0 -0.000282263)
(0 -0 -0.000355358)
(0 -0 -0.000387946)
(0 -0 -0.000388967)
(0 -0 -0.000367681)
(0 -0 -0.000332483)
(0 -0 -0.000290263)
(0 -0 -0.000246196)
(0 -0 -0.000203821)
(0 -0 -0.000165293)
(0 -0 -0.00013169)
(0 -0 -0.000103321)
(0 -0 -7.99963e-05)
(0 -0 -6.12339e-05)
(0 -0 -4.64179e-05)
(0 -0 -3.49006e-05)
(0 -0 -2.60669e-05)
(0 -0 -1.93685e-05)
(0 -0 -1.4338e-05)
(0 -0 -1.05899e-05)
(0 -0 -7.81455e-06)
(0 -0 -5.76847e-06)
(0 -0 -4.26346e-06)
(0 -0 -3.15618e-06)
(0 -0 -2.33883e-06)
(0 -0 -1.73118e-06)
(0 -0 -1.27414e-06)
(0 -0 -9.24782e-07)
(0 -0 -6.52742e-07)
(0 -0 -4.37943e-07)
(0 -0 -2.67743e-07)
(0 -0 -1.32818e-07)
(0 -0 0.000442879)
(0 -0 0.000441243)
(0 -0 0.000439867)
(0 -0 0.000438223)
(0 -0 0.000435484)
(0 -0 0.000433021)
(0 -0 0.000438032)
(0 -0 0.000464794)
(0 -0 0.000530614)
(0 -0 0.0006472)
(0 -0 0.000811899)
(0 -0 0.00100395)
(0 -0 0.00118827)
(0 -0 0.00132523)
(0 -0 0.00138214)
(0 -0 0.00134206)
(0 -0 0.00120701)
(0 -0 0.00099571)
(0 -0 0.000737369)
(0 -0 0.000464332)
(0 -0 0.000205621)
(0 -0 -1.72301e-05)
(0 -0 -0.000191785)
(0 -0 -0.000314196)
(0 -0 -0.000387366)
(0 -0 -0.000418575)
(0 -0 -0.000417213)
(0 -0 -0.000392955)
(0 -0 -0.000354546)
(0 -0 -0.00030914)
(0 -0 -0.000262091)
(0 -0 -0.000217046)
(0 -0 -0.00017621)
(0 -0 -0.000140666)
(0 -0 -0.000110704)
(0 -0 -8.60962e-05)
(0 -0 -6.63188e-05)
(0 -0 -5.07109e-05)
(0 -0 -3.85833e-05)
(0 -0 -2.92838e-05)
(0 -0 -2.22326e-05)
(0 -0 -1.69362e-05)
(0 -0 -1.29883e-05)
(0 -0 -1.00628e-05)
(0 -0 -7.90327e-06)
(0 -0 -6.31184e-06)
(0 -0 -5.13783e-06)
(0 -0 -4.26791e-06)
(0 -0 -3.61781e-06)
(0 -0 -3.12548e-06)
(0 -0 -2.7458e-06)
(0 -0 -2.44682e-06)
(0 -0 -2.20723e-06)
(0 -0 -2.01326e-06)
(0 -0 -1.85398e-06)
(0 -0 0.000447008)
(0 -0 0.000445365)
(0 -0 0.000443987)
(0 -0 0.000442323)
(0 -0 0.000439517)
(0 -0 0.000437005)
(0 -0 0.000442273)
(0 -0 0.000470119)
(0 -0 0.000538396)
(0 -0 0.000659061)
(0 -0 0.000829115)
(0 -0 0.00102682)
(0 -0 0.00121571)
(0 -0 0.00135479)
(0 -0 0.00141045)
(0 -0 0.00136552)
(0 -0 0.00122255)
(0 -0 0.00100127)
(0 -0 0.000732227)
(0 -0 0.00044903)
(0 -0 0.000181708)
(0 -0 -4.75776e-05)
(0 -0 -0.00022616)
(0 -0 -0.000350295)
(0 -0 -0.000423215)
(0 -0 -0.000452658)
(0 -0 -0.000448496)
(0 -0 -0.000420854)
(0 -0 -0.000378847)
(0 -0 -0.000329905)
(0 -0 -0.000279571)
(0 -0 -0.0002316)
(0 -0 -0.000188243)
(0 -0 -0.000150587)
(0 -0 -0.000118896)
(0 -0 -9.28999e-05)
(0 -0 -7.20261e-05)
(0 -0 -5.55647e-05)
(0 -0 -4.27805e-05)
(0 -0 -3.29808e-05)
(0 -0 -2.55516e-05)
(0 -0 -1.9971e-05)
(0 -0 -1.581e-05)
(0 -0 -1.27246e-05)
(0 -0 -1.04447e-05)
(0 -0 -8.76178e-06)
(0 -0 -7.51727e-06)
(0 -0 -6.59194e-06)
(0 -0 -5.89714e-06)
(0 -0 -5.36765e-06)
(0 -0 -4.95601e-06)
(0 -0 -4.62856e-06)
(0 -0 -4.36269e-06)
(0 -0 -4.14347e-06)
(0 -0 -3.95844e-06)
(0 -0 0.000450878)
(0 -0 0.000449229)
(0 -0 0.000447852)
(0 -0 0.000446168)
(0 -0 0.00044329)
(0 -0 0.00044073)
(0 -0 0.000446274)
(0 -0 0.000475254)
(0 -0 0.000546082)
(0 -0 0.000670941)
(0 -0 0.000846445)
(0 -0 0.00104981)
(0 -0 0.00124311)
(0 -0 0.00138395)
(0 -0 0.00143782)
(0 -0 0.00138734)
(0 -0 0.00123566)
(0 -0 0.00100365)
(0 -0 0.00072325)
(0 -0 0.000429404)
(0 -0 0.000153182)
(0 -0 -8.26257e-05)
(0 -0 -0.000265139)
(0 -0 -0.00039075)
(0 -0 -0.000463069)
(0 -0 -0.000490331)
(0 -0 -0.000482933)
(0 -0 -0.000451475)
(0 -0 -0.000405465)
(0 -0 -0.000352625)
(0 -0 -0.000298691)
(0 -0 -0.000247527)
(0 -0 -0.000201431)
(0 -0 -0.000161486)
(0 -0 -0.000127926)
(0 -0 -0.000100433)
(0 -0 -7.83798e-05)
(0 -0 -6.10021e-05)
(0 -0 -4.75145e-05)
(0 -0 -3.71803e-05)
(0 -0 -2.93479e-05)
(0 -0 -2.3465e-05)
(0 -0 -1.9078e-05)
(0 -0 -1.58236e-05)
(0 -0 -1.34168e-05)
(0 -0 -1.1638e-05)
(0 -0 -1.03198e-05)
(0 -0 -9.33685e-06)
(0 -0 -8.59574e-06)
(0 -0 -8.02782e-06)
(0 -0 -7.58317e-06)
(0 -0 -7.2263e-06)
(0 -0 -6.93321e-06)
(0 -0 -6.6878e-06)
(0 -0 -6.47615e-06)
(0 -0 0.00045449)
(0 -0 0.000452837)
(0 -0 0.00045146)
(0 -0 0.000449756)
(0 -0 0.000446806)
(0 -0 0.000444197)
(0 -0 0.000450034)
(0 -0 0.000480198)
(0 -0 0.000553664)
(0 -0 0.000682822)
(0 -0 0.000863847)
(0 -0 0.00107284)
(0 -0 0.00127037)
(0 -0 0.00141259)
(0 -0 0.00146407)
(0 -0 0.00140733)
(0 -0 0.00124615)
(0 -0 0.00100265)
(0 -0 0.000710249)
(0 -0 0.000405277)
(0 -0 0.000119882)
(0 -0 -0.000122512)
(0 -0 -0.000308836)
(0 -0 -0.000435657)
(0 -0 -0.000507004)
(0 -0 -0.000531655)
(0 -0 -0.000520567)
(0 -0 -0.00048485)
(0 -0 -0.000434425)
(0 -0 -0.000377317)
(0 -0 -0.000319462)
(0 -0 -0.000264838)
(0 -0 -0.000215781)
(0 -0 -0.00017337)
(0 -0 -0.000137801)
(0 -0 -0.000108702)
(0 -0 -8.53866e-05)
(0 -0 -6.70302e-05)
(0 -0 -5.27929e-05)
(0 -0 -4.18903e-05)
(0 -0 -3.36303e-05)
(0 -0 -2.74278e-05)
(0 -0 -2.28026e-05)
(0 -0 -1.93709e-05)
(0 -0 -1.68317e-05)
(0 -0 -1.49532e-05)
(0 -0 -1.3559e-05)
(0 -0 -1.25169e-05)
(0 -0 -1.17286e-05)
(0 -0 -1.11218e-05)
(0 -0 -1.06437e-05)
(0 -0 -1.02572e-05)
(0 -0 -9.9366e-06)
(0 -0 -9.66471e-06)
(0 -0 -9.42615e-06)
(0 -0 0.000457845)
(0 -0 0.000456188)
(0 -0 0.000454814)
(0 -0 0.000453089)
(0 -0 0.000450065)
(0 -0 0.00044741)
(0 -0 0.000453555)
(0 -0 0.000484948)
(0 -0 0.000561129)
(0 -0 0.000694674)
(0 -0 0.000881272)
(0 -0 0.00109584)
(0 -0 0.00129738)
(0 -0 0.00144057)
(0 -0 0.00148909)
(0 -0 0.00142535)
(0 -0 0.0012539)
(0 -0 0.000998169)
(0 -0 0.000693135)
(0 -0 0.00037659)
(0 -0 8.17781e-05)
(0 -0 -0.000167244)
(0 -0 -0.00035724)
(0 -0 -0.000484988)
(0 -0 -0.000554982)
(0 -0 -0.000576586)
(0 -0 -0.000561355)
(0 -0 -0.000520937)
(0 -0 -0.000465685)
(0 -0 -0.000403944)
(0 -0 -0.000341853)
(0 -0 -0.000283502)
(0 -0 -0.000231267)
(0 -0 -0.000186216)
(0 -0 -0.000148501)
(0 -0 -0.000117691)
(0 -0 -9.30323e-05)
(0 -0 -7.36368e-05)
(0 -0 -5.86055e-05)
(0 -0 -4.71022e-05)
(0 -0 -3.83917e-05)
(0 -0 -3.18535e-05)
(0 -0 -2.69792e-05)
(0 -0 -2.33629e-05)
(0 -0 -2.06867e-05)
(0 -0 -1.87058e-05)
(0 -0 -1.72342e-05)
(0 -0 -1.61325e-05)
(0 -0 -1.52969e-05)
(0 -0 -1.46514e-05)
(0 -0 -1.41405e-05)
(0 -0 -1.37247e-05)
(0 -0 -1.33771e-05)
(0 -0 -1.30792e-05)
(0 -0 -1.28141e-05)
(0 -0 0.000460944)
(0 -0 0.000459285)
(0 -0 0.000457914)
(0 -0 0.000456169)
(0 -0 0.000453069)
(0 -0 0.000450368)
(0 -0 0.000456836)
(0 -0 0.000489499)
(0 -0 0.00056846)
(0 -0 0.000706463)
(0 -0 0.000898659)
(0 -0 0.00111873)
(0 -0 0.00132404)
(0 -0 0.00146779)
(0 -0 0.00151275)
(0 -0 0.00144132)
(0 -0 0.00125885)
(0 -0 0.00099019)
(0 -0 0.000671948)
(0 -0 0.000343422)
(0 -0 3.89838e-05)
(0 -0 -0.000216681)
(0 -0 -0.000410194)
(0 -0 -0.000538582)
(0 -0 -0.000606845)
(0 -0 -0.000624973)
(0 -0 -0.000605156)
(0 -0 -0.000559608)
(0 -0 -0.000499134)
(0 -0 -0.000432407)
(0 -0 -0.000365778)
(0 -0 -0.000303447)
(0 -0 -0.000247827)
(0 -0 -0.00019997)
(0 -0 -0.000159979)
(0 -0 -0.000127357)
(0 -0 -0.00010128)
(0 -0 -8.07891e-05)
(0 -0 -6.49225e-05)
(0 -0 -5.27889e-05)
(0 -0 -4.36071e-05)
(0 -0 -3.67189e-05)
(0 -0 -3.15862e-05)
(0 -0 -2.77795e-05)
(0 -0 -2.4963e-05)
(0 -0 -2.28781e-05)
(0 -0 -2.13287e-05)
(0 -0 -2.01676e-05)
(0 -0 -1.92857e-05)
(0 -0 -1.86027e-05)
(0 -0 -1.80603e-05)
(0 -0 -1.76167e-05)
(0 -0 -1.72434e-05)
(0 -0 -1.69206e-05)
(0 -0 -1.663e-05)
(0 -0 0.000463787)
(0 -0 0.000462128)
(0 -0 0.000460762)
(0 -0 0.000458996)
(0 -0 0.000455818)
(0 -0 0.000453073)
(0 -0 0.000459879)
(0 -0 0.000493844)
(0 -0 0.000575638)
(0 -0 0.000718144)
(0 -0 0.000915938)
(0 -0 0.00114141)
(0 -0 0.00135025)
(0 -0 0.00149415)
(0 -0 0.001535)
(0 -0 0.00145522)
(0 -0 0.00126105)
(0 -0 0.000978827)
(0 -0 0.000646864)
(0 -0 0.000306008)
(0 -0 -8.22353e-06)
(0 -0 -0.00027052)
(0 -0 -0.000467384)
(0 -0 -0.000596127)
(0 -0 -0.000662294)
(0 -0 -0.00067654)
(0 -0 -0.000651722)
(0 -0 -0.000600643)
(0 -0 -0.00053458)
(0 -0 -0.000462541)
(0 -0 -0.000391095)
(0 -0 -0.000324551)
(0 -0 -0.000265357)
(0 -0 -0.000214543)
(0 -0 -0.000172158)
(0 -0 -0.000137634)
(0 -0 -0.000110069)
(0 -0 -8.84321e-05)
(0 -0 -7.16935e-05)
(0 -0 -5.89036e-05)
(0 -0 -4.92327e-05)
(0 -0 -4.19827e-05)
(0 -0 -3.65841e-05)
(0 -0 -3.25828e-05)
(0 -0 -2.9624e-05)
(0 -0 -2.74348e-05)
(0 -0 -2.58084e-05)
(0 -0 -2.45895e-05)
(0 -0 -2.36632e-05)
(0 -0 -2.29449e-05)
(0 -0 -2.23731e-05)
(0 -0 -2.19039e-05)
(0 -0 -2.1507e-05)
(0 -0 -2.11611e-05)
(0 -0 -2.08469e-05)
(0 -0 0.000466377)
(0 -0 0.000464719)
(0 -0 0.000463359)
(0 -0 0.000461573)
(0 -0 0.000458317)
(0 -0 0.000455529)
(0 -0 0.000462682)
(0 -0 0.000497975)
(0 -0 0.000582635)
(0 -0 0.000729668)
(0 -0 0.000933034)
(0 -0 0.00116378)
(0 -0 0.00137592)
(0 -0 0.00151958)
(0 -0 0.0015558)
(0 -0 0.00146709)
(0 -0 0.00126063)
(0 -0 0.000964316)
(0 -0 0.000618207)
(0 -0 0.000264744)
(0 -0 -5.93974e-05)
(0 -0 -0.000328287)
(0 -0 -0.000528331)
(0 -0 -0.000657158)
(0 -0 -0.000720892)
(0 -0 -0.000730888)
(0 -0 -0.000700697)
(0 -0 -0.000643731)
(0 -0 -0.000571752)
(0 -0 -0.000494116)
(0 -0 -0.000417607)
(0 -0 -0.000346648)
(0 -0 -0.000283714)
(0 -0 -0.000229811)
(0 -0 -0.00018493)
(0 -0 -0.000148425)
(0 -0 -0.000119315)
(0 -0 -9.6489e-05)
(0 -0 -7.88477e-05)
(0 -0 -6.53803e-05)
(0 -0 -5.5206e-05)
(0 -0 -4.75853e-05)
(0 -0 -4.19156e-05)
(0 -0 -3.77174e-05)
(0 -0 -3.46159e-05)
(0 -0 -3.23234e-05)
(0 -0 -3.06218e-05)
(0 -0 -2.93476e-05)
(0 -0 -2.83797e-05)
(0 -0 -2.76292e-05)
(0 -0 -2.70312e-05)
(0 -0 -2.65395e-05)
(0 -0 -2.61217e-05)
(0 -0 -2.57552e-05)
(0 -0 -2.54197e-05)
(0 -0 0.000468716)
(0 -0 0.000467059)
(0 -0 0.000465706)
(0 -0 0.0004639)
(0 -0 0.000460566)
(0 -0 0.000457738)
(0 -0 0.000465246)
(0 -0 0.000501881)
(0 -0 0.000589423)
(0 -0 0.000740978)
(0 -0 0.000949863)
(0 -0 0.00118576)
(0 -0 0.00140094)
(0 -0 0.00154402)
(0 -0 0.00157519)
(0 -0 0.00147707)
(0 -0 0.00125784)
(0 -0 0.000947017)
(0 -0 0.000586446)
(0 -0 0.000220185)
(0 -0 -0.000113924)
(0 -0 -0.00038934)
(0 -0 -0.000592395)
(0 -0 -0.000721058)
(0 -0 -0.000782067)
(0 -0 -0.000787498)
(0 -0 -0.000751618)
(0 -0 -0.000688469)
(0 -0 -0.000610306)
(0 -0 -0.000526836)
(0 -0 -0.000445064)
(0 -0 -0.000369523)
(0 -0 -0.000302716)
(0 -0 -0.000245619)
(0 -0 -0.000198159)
(0 -0 -0.000159612)
(0 -0 -0.00012891)
(0 -0 -0.000104863)
(0 -0 -8.62953e-05)
(0 -0 -7.21347e-05)
(0 -0 -6.14469e-05)
(0 -0 -5.34497e-05)
(0 -0 -4.75065e-05)
(0 -0 -4.31108e-05)
(0 -0 -3.98679e-05)
(0 -0 -3.74744e-05)
(0 -0 -3.57007e-05)
(0 -0 -3.43747e-05)
(0 -0 -3.33691e-05)
(0 -0 -3.25902e-05)
(0 -0 -3.19699e-05)
(0 -0 -3.14593e-05)
(0 -0 -3.10241e-05)
(0 -0 -3.06394e-05)
(0 -0 -3.02868e-05)
(0 -0 0.000470805)
(0 -0 0.000469151)
(0 -0 0.000467805)
(0 -0 0.00046598)
(0 -0 0.000462568)
(0 -0 0.000459701)
(0 -0 0.000467568)
(0 -0 0.00050555)
(0 -0 0.000595968)
(0 -0 0.000752014)
(0 -0 0.000966338)
(0 -0 0.00120723)
(0 -0 0.00142524)
(0 -0 0.00156744)
(0 -0 0.00159323)
(0 -0 0.00148534)
(0 -0 0.00125302)
(0 -0 0.00092741)
(0 -0 0.000552188)
(0 -0 0.000173037)
(0 -0 -0.000171032)
(0 -0 -0.000452882)
(0 -0 -0.000658784)
(0 -0 -0.000787074)
(0 -0 -0.000845118)
(0 -0 -0.000845736)
(0 -0 -0.000803928)
(0 -0 -0.000734372)
(0 -0 -0.000649824)
(0 -0 -0.000560348)
(0 -0 -0.000473168)
(0 -0 -0.000392925)
(0 -0 -0.000322149)
(0 -0 -0.000261783)
(0 -0 -0.000211688)
(0 -0 -0.000171055)
(0 -0 -0.00013873)
(0 -0 -0.000113438)
(0 -0 -9.39303e-05)
(0 -0 -7.9067e-05)
(0 -0 -6.78605e-05)
(0 -0 -5.94846e-05)
(0 -0 -5.32677e-05)
(0 -0 -4.86764e-05)
(0 -0 -4.52948e-05)
(0 -0 -4.28038e-05)
(0 -0 -4.0962e-05)
(0 -0 -3.95886e-05)
(0 -0 -3.85497e-05)
(0 -0 -3.7747e-05)
(0 -0 -3.71089e-05)
(0 -0 -3.65838e-05)
(0 -0 -3.61344e-05)
(0 -0 -3.57384e-05)
(0 -0 -3.536e-05)
(0 -0 0.000472611)
(0 -0 0.000470959)
(0 -0 0.000469621)
(0 -0 0.000467777)
(0 -0 0.00046429)
(0 -0 0.000461387)
(0 -0 0.000469606)
(0 -0 0.000508899)
(0 -0 0.000602106)
(0 -0 0.000762489)
(0 -0 0.000982037)
(0 -0 0.00122768)
(0 -0 0.00144826)
(0 -0 0.00158939)
(0 -0 0.00160968)
(0 -0 0.00149203)
(0 -0 0.00124673)
(0 -0 0.000906533)
(0 -0 0.00051692)
(0 -0 0.000125165)
(0 -0 -0.000228587)
(0 -0 -0.000516621)
(0 -0 -0.000725166)
(0 -0 -0.000852928)
(0 -0 -0.000907903)
(0 -0 -0.000903648)
(0 -0 -0.000855884)
(0 -0 -0.000779919)
(0 -0 -0.000689003)
(0 -0 -0.000593548)
(0 -0 -0.000500992)
(0 -0 -0.000416082)
(0 -0 -0.000341369)
(0 -0 -0.000277763)
(0 -0 -0.000225057)
(0 -0 -0.000182361)
(0 -0 -0.000148433)
(0 -0 -0.000121913)
(0 -0 -0.000101478)
(0 -0 -8.59233e-05)
(0 -0 -7.42079e-05)
(0 -0 -6.54618e-05)
(0 -0 -5.89786e-05)
(0 -0 -5.41981e-05)
(0 -0 -5.06835e-05)
(0 -0 -4.81002e-05)
(0 -0 -4.61949e-05)
(0 -0 -4.47782e-05)
(0 -0 -4.37099e-05)
(0 -0 -4.28869e-05)
(0 -0 -4.22343e-05)
(0 -0 -4.16974e-05)
(0 -0 -4.1238e-05)
(0 -0 -4.0823e-05)
(0 -0 -4.04402e-05)
(0 -0 0.000474167)
(0 -0 0.000472519)
(0 -0 0.000471189)
(0 -0 0.000469328)
(0 -0 0.000465769)
(0 -0 0.000462832)
(0 -0 0.000471395)
(0 -0 0.000511966)
(0 -0 0.000607885)
(0 -0 0.000772473)
(0 -0 0.000997062)
(0 -0 0.00124724)
(0 -0 0.00147022)
(0 -0 0.00161015)
(0 -0 0.0016249)
(0 -0 0.00149756)
(0 -0 0.00123942)
(0 -0 0.000884866)
(0 -0 0.000481123)
(0 -0 7.70289e-05)