/*--------------------------------*- C++ -*----------------------------------*\
| =========                 |                                                 |
| \\      /  F ield         | OpenFOAM: The Open Source CFD Toolbox           |
|  \\    /   O peration     | Version:  2412                                  |
|   \\  /    A nd           | Website:  www.openfoam.com                      |
|    \\/     M anipulation  |                                                 |
\*---------------------------------------------------------------------------*/
FoamFile
{
    version     2.0;
    format      ascii;
    arch        "LSB;label=32;scalar=64";
    class       volScalarField;
    location    "4";
    object      p;
}
// * * * * * * * * * * * * * * * * * * * * * * * * * * * * * * * * * * * * * //

dimensions      [0 2 -2 0 0 0 0];

internalField   nonuniform List<scalar> 
63420
(
0.00117193
0.00126493
0.00116961
0.00122414
0.00120966
0.00121159
0.00121709
0.00121912
0.00122265
0.00122674
0.00123105
0.00123576
0.00124087
0.00124634
0.00125218
0.00125839
0.00126496
0.00127188
0.00127917
0.00128681
0.00129481
0.00130317
0.00131188
0.00132096
0.00133039
0.00134019
0.00135036
0.00136089
0.00137179
0.00138307
0.00139472
0.00140675
0.00141917
0.00143197
0.00144517
0.00145876
0.00147275
0.00148715
0.00150195
0.00151717
0.00153281
0.00154887
0.00156536
0.00158229
0.00159965
0.00161745
0.00163571
0.00165442
0.00167359
0.00169322
0.00171332
0.0017339
0.00175496
0.0017765
0.00179854
0.00117179
0.00126489
0.00116955
0.00122402
0.00120962
0.0012115
0.00121702
0.00121904
0.00122257
0.00122666
0.00123096
0.00123567
0.00124078
0.00124625
0.00125208
0.00125829
0.00126485
0.00127177
0.00127905
0.00128668
0.00129467
0.00130302
0.00131173
0.0013208
0.00133022
0.00134001
0.00135017
0.00136069
0.00137158
0.00138284
0.00139448
0.0014065
0.0014189
0.00143169
0.00144487
0.00145844
0.00147241
0.00148679
0.00150157
0.00151677
0.00153238
0.00154842
0.00156488
0.00158177
0.0015991
0.00161688
0.0016351
0.00165377
0.0016729
0.00169249
0.00171254
0.00173308
0.00175408
0.00177558
0.00179755
0.00117153
0.00126481
0.00116943
0.0012238
0.00120954
0.00121134
0.00121687
0.0012189
0.00122241
0.0012265
0.0012308
0.0012355
0.0012406
0.00124606
0.00125189
0.00125808
0.00126463
0.00127154
0.0012788
0.00128642
0.0012944
0.00130274
0.00131143
0.00132048
0.00132988
0.00133965
0.00134979
0.00136028
0.00137115
0.00138239
0.001394
0.00140599
0.00141836
0.00143112
0.00144426
0.0014578
0.00147173
0.00148607
0.00150081
0.00151596
0.00153152
0.0015475
0.00156391
0.00158075
0.00159802
0.00161572
0.00163387
0.00165247
0.00167152
0.00169103
0.001711
0.00173143
0.00175234
0.00177372
0.00179559
0.00117113
0.00126471
0.00116924
0.00122347
0.00120942
0.00121108
0.00121665
0.00121869
0.00122218
0.00122626
0.00123055
0.00123524
0.00124033
0.00124578
0.00125159
0.00125777
0.0012643
0.00127119
0.00127844
0.00128604
0.001294
0.00130231
0.00131097
0.00132
0.00132938
0.00133912
0.00134922
0.00135968
0.00137051
0.00138171
0.00139328
0.00140523
0.00141756
0.00143026
0.00144336
0.00145684
0.00147071
0.00148499
0.00149966
0.00151474
0.00153023
0.00154614
0.00156246
0.00157921
0.00159639
0.001614
0.00163204
0.00165053
0.00166946
0.00168884
0.00170868
0.00172898
0.00174974
0.00177096
0.00179265
0.00117058
0.00126462
0.00116895
0.00122303
0.00120927
0.00121075
0.00121636
0.0012184
0.00122187
0.00122595
0.00123022
0.0012349
0.00123997
0.0012454
0.00125119
0.00125735
0.00126386
0.00127073
0.00127795
0.00128553
0.00129346
0.00130174
0.00131037
0.00131936
0.0013287
0.0013384
0.00134846
0.00135888
0.00136966
0.00138081
0.00139233
0.00140422
0.00141648
0.00142913
0.00144215
0.00145556
0.00146936
0.00148355
0.00149814
0.00151313
0.00152852
0.00154432
0.00156054
0.00157717
0.00159422
0.0016117
0.00162961
0.00164795
0.00166673
0.00168595
0.00170561
0.00172572
0.00174628
0.0017673
0.00178876
0.0011699
0.00126457
0.0011686
0.00122247
0.00120909
0.00121032
0.001216
0.00121805
0.00122148
0.00122555
0.00122981
0.00123447
0.00123952
0.00124493
0.0012507
0.00125683
0.00126332
0.00127016
0.00127735
0.00128489
0.00129278
0.00130103
0.00130962
0.00131856
0.00132786
0.00133751
0.00134752
0.00135788
0.00136861
0.00137969
0.00139114
0.00140296
0.00141515
0.00142771
0.00144065
0.00145397
0.00146767
0.00148176
0.00149624
0.00151112
0.00152639
0.00154207
0.00155814
0.00157463
0.00159153
0.00160885
0.00162659
0.00164475
0.00166333
0.00168235
0.0017018
0.00172168
0.001742
0.00176275
0.00178394
0.00116918
0.00126431
0.00116839
0.00122167
0.00120893
0.00120981
0.00121556
0.00121762
0.00122102
0.00122507
0.00122932
0.00123395
0.00123898
0.00124437
0.00125011
0.00125621
0.00126267
0.00126947
0.00127663
0.00128413
0.00129198
0.00130018
0.00130872
0.00131761
0.00132685
0.00133645
0.00134639
0.00135669
0.00136734
0.00137835
0.00138972
0.00140146
0.00141355
0.00142602
0.00143886
0.00145207
0.00146566
0.00147963
0.00149398
0.00150872
0.00152385
0.00153937
0.00155529
0.0015716
0.00158832
0.00160545
0.00162298
0.00164093
0.00165928
0.00167806
0.00169725
0.00171687
0.0017369
0.00175736
0.00177822
0.00182115
0.00184455
0.00186896
0.00189444
0.00192108
0.00194892
0.001978
0.00200842
0.00204027
0.00207354
0.00210838
0.00214518
0.00218381
0.00222445
0.00226729
0.00231249
0.00236023
0.00241069
0.00246409
0.00252066
0.00258064
0.00264431
0.00271199
0.00278403
0.00286081
0.00294275
0.00303035
0.00312414
0.00322472
0.00333277
0.00344905
0.00357441
0.00370981
0.0038563
0.00401511
0.00418754
0.00437507
0.00457927
0.00480175
0.00504407
0.00530751
0.0055926
0.00589849
0.00622207
0.00655734
0.00689547
0.00722475
0.00754454
0.00793124
0.00850037
0.00182013
0.00184353
0.00186792
0.00189335
0.00191991
0.00194776
0.00197676
0.00200712
0.00203911
0.00207253
0.00210761
0.00214425
0.00218283
0.00222347
0.00226631
0.0023115
0.00235922
0.00240967
0.00246304
0.00251956
0.00257949
0.0026431
0.0027107
0.00278263
0.00285928
0.00294107
0.00302847
0.00312201
0.00322228
0.00332995
0.00344573
0.00357046
0.00370505
0.00385052
0.004008
0.00417872
0.00436401
0.00456527
0.00478388
0.0050211
0.00527774
0.00555378
0.0058476
0.00615504
0.0064688
0.00677854
0.00707163
0.00734643
0.00767449
0.00816394
0.0018181
0.0018415
0.00186593
0.00189145
0.00191811
0.00194588
0.00197502
0.00200548
0.00203717
0.00207051
0.00210548
0.0021422
0.00218083
0.00222149
0.00226433
0.00230952
0.00235722
0.00240762
0.00246093
0.00251737
0.0025772
0.00264068
0.00270812
0.00277986
0.00285626
0.00293774
0.00302476
0.00311782
0.00321749
0.00332438
0.0034392
0.00356271
0.00369573
0.00383918
0.00399406
0.00416141
0.0043423
0.00453778
0.00474876
0.00497585
0.005219
0.00547698
0.00574659
0.00602157
0.0062919
0.00654424
0.00676435
0.00694892
0.00715492
0.00750026
0.00181508
0.00183848
0.00186288
0.00188834
0.00191492
0.00194268
0.00197174
0.00200214
0.00203395
0.00206733
0.00210236
0.00213914
0.00217781
0.00221849
0.00226132
0.00230649
0.00235414
0.00240447
0.00245769
0.00251401
0.00257368
0.00263697
0.00270417
0.0027756
0.00285162
0.00293263
0.00301906
0.00311139
0.00321014
0.00331587
0.00342923
0.00355087
0.00368152
0.00382194
0.00397291
0.00413519
0.00430949
0.00449634
0.00469596
0.004908
0.0051311
0.00536224
0.00559581
0.00582236
0.00602782
0.00619417
0.00630466
0.00635792
0.00639421
0.00648653
0.00181106
0.00183445
0.00185883
0.00188427
0.00191083
0.0019386
0.00196765
0.00199805
0.0020299
0.00206331
0.00209837
0.00213519
0.00217388
0.00221457
0.00225741
0.00230255
0.00235016
0.00240042
0.00245353
0.00250971
0.0025692
0.00263225
0.00269915
0.0027702
0.00284575
0.00292617
0.00301185
0.00310323
0.00320078
0.003305
0.00341642
0.0035356
0.00366311
0.00379949
0.00394524
0.00410076
0.00426623
0.0044415
0.00462584
0.00481762
0.00501373
0.00520879
0.00539396
0.00555566
0.00567456
0.00572655
0.00569045
0.00556905
0.00539305
0.00509836
0.00180608
0.00182946
0.00185385
0.00187929
0.00190587
0.00193365
0.00196272
0.00199317
0.00202509
0.00205858
0.00209374
0.00213067
0.00216949
0.0022103
0.00225324
0.00229848
0.00234616
0.00239648
0.00244963
0.00250582
0.0025653
0.00262831
0.00269513
0.00276605
0.00284139
0.0029215
0.00300675
0.00309753
0.00319425
0.00329735
0.00340727
0.00352444
0.00364924
0.00378199
0.00392285
0.00407177
0.00422825
0.0043912
0.0045585
0.00472651
0.00488924
0.00503725
0.00515626
0.00522585
0.00521879
0.00510275
0.00485055
0.00446674
0.00397767
0.00316395
0.00180013
0.00182345
0.00184778
0.00187317
0.00189969
0.00192741
0.00195642
0.00198682
0.00201872
0.0020522
0.00208736
0.00212431
0.00216313
0.00220395
0.00224689
0.0022921
0.00233974
0.00239
0.00244306
0.00249916
0.0025585
0.00262134
0.00268795
0.00275861
0.00283361
0.00291329
0.00299798
0.00308804
0.00318382
0.0032857
0.00339401
0.00350906
0.00363107
0.00376012
0.00389604
0.00403828
0.00418566
0.00433599
0.00448552
0.00462805
0.00475365
0.00484711
0.00488612
0.00484024
0.00467147
0.0043372
0.00380439
0.00308735
0.00216375
0.000696092
-0.00309343
-0.00302599
-0.00286688
-0.00263166
-0.00234162
-0.00202051
-0.00169192
-0.00137698
-0.00109195
-0.000846936
-0.000646022
-0.000488388
-0.000369896
-0.000284631
-0.000226147
-0.00018831
-0.000165768
-0.000154131
-0.000149967
-0.000150692
-0.00015442
-0.000159824
-0.000165995
-0.000172326
-0.00017841
-0.000184007
-0.000189002
-0.000193337
-0.000196992
-0.000199982
-0.000202337
-0.0002041
-0.000205318
-0.000206038
-0.000206308
-0.000206173
-0.000205676
-0.000204857
-0.000203752
-0.000202395
-0.000200817
-0.000199044
-0.000197103
-0.000195016
-0.000192803
-0.000190484
-0.000188074
-0.000185591
-0.000183047
-0.000180456
-0.0032567
-0.00314022
-0.00295988
-0.00271362
-0.0024167
-0.00209126
-0.0017592
-0.00144056
-0.00115118
-0.000901174
-0.000694814
-0.000531576
-0.000407594
-0.000317168
-0.000253986
-0.00021198
-0.000185809
-0.00017106
-0.000164255
-0.000162753
-0.000164616
-0.000168459
-0.000173329
-0.000178573
-0.000183749
-0.000188586
-0.000192942
-0.000196739
-0.00019994
-0.000202542
-0.000204568
-0.000206049
-0.000207024
-0.000207535
-0.000207623
-0.000207329
-0.000206694
-0.000205752
-0.00020454
-0.000203087
-0.000201424
-0.000199576
-0.000197567
-0.00019542
-0.000193153
-0.000190784
-0.000188331
-0.000185808
-0.000183228
-0.000180606
-0.00357267
-0.00334977
-0.00313711
-0.00286987
-0.00255965
-0.0022261
-0.00188774
-0.00156247
-0.00126527
-0.00100613
-0.000789672
-0.000615903
-0.000481492
-0.000381169
-0.00030891
-0.000258797
-0.000225532
-0.00020467
-0.000192657
-0.000186755
-0.000184919
-0.000185664
-0.000187941
-0.00019102
-0.000194387
-0.000197707
-0.000200788
-0.00020351
-0.000205802
-0.000207633
-0.000209001
-0.000209919
-0.00021041
-0.000210503
-0.000210229
-0.00020962
-0.000208708
-0.000207524
-0.000206098
-0.000204456
-0.000202625
-0.000200627
-0.000198484
-0.000196217
-0.000193842
-0.000191377
-0.000188836
-0.000186235
-0.000183585
-0.0001809
-0.00398237
-0.00365764
-0.0033905
-0.00309096
-0.00276119
-0.00241557
-0.00206805
-0.00173364
-0.00142592
-0.00115451
-0.000924362
-0.000736146
-0.000587269
-0.000473083
-0.000388004
-0.000326368
-0.00028297
-0.000253342
-0.000233838
-0.000221591
-0.000214413
-0.000210673
-0.000209197
-0.000209133
-0.00020987
-0.000210989
-0.000212215
-0.000213374
-0.000214343
-0.000215051
-0.000215461
-0.00021556
-0.000215346
-0.00021483
-0.000214028
-0.000212959
-0.000211645
-0.000210108
-0.00020837
-0.000206452
-0.000204376
-0.000202159
-0.000199822
-0.000197379
-0.000194847
-0.00019224
-0.000189572
-0.000186856
-0.000184104
-0.000181327
-0.00449384
-0.00404834
-0.00370556
-0.00335993
-0.00300259
-0.00264061
-0.00228203
-0.00193793
-0.00161958
-0.0013356
-0.00109091
-0.000886739
-0.000721308
-0.000590762
-0.000490153
-0.000414249
-0.000358077
-0.00031724
-0.00028805
-0.000267527
-0.000253335
-0.000243687
-0.000237246
-0.000233022
-0.00023028
-0.000228479
-0.000227254
-0.000226346
-0.000225568
-0.000224795
-0.000223943
-0.000222962
-0.000221821
-0.000220504
-0.000219008
-0.000217335
-0.000215492
-0.000213491
-0.000211343
-0.000209063
-0.000206665
-0.000204161
-0.000201566
-0.000198893
-0.000196154
-0.00019336
-0.000190525
-0.000187657
-0.000184768
-0.000181869
-0.00489198
-0.00442232
-0.00401503
-0.00362284
-0.00324067
-0.00286788
-0.00250561
-0.0021601
-0.00183922
-0.00154958
-0.00129544
-0.00107835
-0.000897403
-0.000749799
-0.000631614
-0.000538458
-0.000465979
-0.000410181
-0.000367585
-0.000335274
-0.000310871
-0.000292477
-0.00027861
-0.000268118
-0.00026011
-0.000253899
-0.000248973
-0.000244957
-0.000241566
-0.000238589
-0.000235872
-0.000233305
-0.00023081
-0.000228333
-0.000225836
-0.000223297
-0.000220701
-0.000218043
-0.000215319
-0.000212531
-0.000209684
-0.000206783
-0.000203835
-0.000200846
-0.000197825
-0.000194779
-0.000191716
-0.000188646
-0.000185576
-0.000182515
-0.00515656
-0.00482503
-0.0044032
-0.00396715
-0.00355373
-0.00316083
-0.00278466
-0.0024283
-0.00209711
-0.00179595
-0.00152821
-0.00129535
-0.00109691
-0.0009308
-0.000793764
-0.000682054
-0.000591846
-0.000519538
-0.000461902
-0.000416148
-0.000379919
-0.000351259
-0.000328568
-0.000310557
-0.000296178
-0.000284591
-0.000275137
-0.000267308
-0.000260704
-0.000255015
-0.000250003
-0.00024549
-0.000241337
-0.000237444
-0.000233733
-0.000230148
-0.000226649
-0.000223208
-0.000219802
-0.00021642
-0.000213053
-0.000209695
-0.000206344
-0.000202999
-0.000199663
-0.000196337
-0.000193026
-0.000189734
-0.000186466
-0.000183231
-0.000177824
-0.000175134
-0.00017237
-0.000169541
-0.000166654
-0.000163712
-0.000160718
-0.000157671
-0.000154571
-0.000151421
-0.000148223
-0.000144982
-0.000141705
-0.000138397
-0.000135067
-0.000131721
-0.000128366
-0.000125008
-0.000121651
-0.000118301
-0.000114963
-0.000111639
-0.000108334
-0.000105051
-0.000101794
-9.85654e-05
-9.53683e-05
-9.22055e-05
-8.90797e-05
-8.59936e-05
-8.29494e-05
-7.99495e-05
-7.6996e-05
-7.40909e-05
-7.12361e-05
-6.84333e-05
-6.56842e-05
-6.29903e-05
-6.0353e-05
-5.77735e-05
-5.5253e-05
-5.27923e-05
-5.03927e-05
-4.80543e-05
-4.57784e-05
-4.35658e-05
-4.14157e-05
-3.93291e-05
-3.73063e-05
-3.53473e-05
-3.34519e-05
-3.16202e-05
-2.98519e-05
-2.81465e-05
-2.65039e-05
-2.49233e-05
-2.34041e-05
-2.19458e-05
-2.05474e-05
-1.92081e-05
-1.79269e-05
-1.67029e-05
-1.55349e-05
-1.4422e-05
-1.33629e-05
-1.23563e-05
-1.14009e-05
-1.04952e-05
-9.6379e-06
-8.82761e-06
-8.06267e-06
-7.34183e-06
-6.6634e-06
-6.02593e-06
-5.42771e-06
-4.86708e-06
-4.34251e-06
-3.85255e-06
-3.39532e-06
-2.96949e-06
-2.57341e-06
-2.20571e-06
-1.86424e-06
-1.54824e-06
-1.25513e-06
-9.84042e-07
-7.33441e-07
-5.01162e-07
-2.86685e-07
-8.76172e-08
9.7086e-08
2.68868e-07
4.30197e-07
5.81131e-07
7.24821e-07
8.61484e-07
9.94217e-07
1.12202e-06
1.25484e-06
1.36955e-06
1.54639e-06
1.5548e-06
2.05157e-06
1.30924e-06
3.60508e-06
-8.56214e-07
8.5767e-06
-7.6436e-06
1.82447e-05
-1.51744e-05
1.94404e-05
-5.91001e-07
-1.08915e-05
3.92797e-05
-3.82371e-05
-0.000177952
-0.000175243
-0.000172461
-0.000169617
-0.000166715
-0.00016376
-0.000160753
-0.000157694
-0.000154584
-0.000151424
-0.000148218
-0.00014497
-0.000141688
-0.000138376
-0.000135043
-0.000131695
-0.000128339
-0.000124979
-0.000121621
-0.000118271
-0.000114932
-0.000111608
-0.000108302
-0.00010502
-0.000101762
-9.85338e-05
-9.53369e-05
-9.21745e-05
-8.90491e-05
-8.59635e-05
-8.29199e-05
-7.99206e-05
-7.69678e-05
-7.40634e-05
-7.12093e-05
-6.84073e-05
-6.5659e-05
-6.29659e-05
-6.03295e-05
-5.77508e-05
-5.52311e-05
-5.27714e-05
-5.03726e-05
-4.8035e-05
-4.576e-05
-4.35481e-05
-4.13988e-05
-3.93131e-05
-3.72911e-05
-3.53328e-05
-3.34382e-05
-3.16072e-05
-2.98395e-05
-2.81349e-05
-2.64928e-05
-2.49128e-05
-2.33943e-05
-2.19365e-05
-2.05387e-05
-1.91999e-05
-1.79193e-05
-1.66958e-05
-1.55283e-05
-1.44158e-05
-1.33571e-05
-1.23509e-05
-1.13959e-05
-1.04905e-05
-9.63358e-06
-8.82362e-06
-8.05898e-06
-7.33842e-06
-6.66026e-06
-6.02304e-06
-5.42507e-06
-4.86465e-06
-4.34029e-06
-3.85053e-06
-3.39348e-06
-2.96783e-06
-2.5719e-06
-2.20435e-06
-1.86302e-06
-1.54714e-06
-1.25415e-06
-9.8315e-07
-7.32663e-07
-5.00471e-07
-2.86074e-07
-8.70847e-08
9.75623e-08
2.69259e-07
4.30568e-07
5.81387e-07
7.25073e-07
8.61648e-07
9.94345e-07
1.12212e-06
1.25489e-06
1.36953e-06
1.54633e-06
1.55484e-06
2.05119e-06
1.3096e-06
3.60394e-06
-8.54941e-07
8.57466e-06
-7.64231e-06
1.82445e-05
-1.51776e-05
1.94458e-05
-5.96645e-07
-1.08911e-05
3.92858e-05
-3.8253e-05
-0.000178202
-0.000175454
-0.000172638
-0.000169763
-0.000166833
-0.000163852
-0.00016082
-0.000157738
-0.000154607
-0.000151429
-0.000148207
-0.000144946
-0.000141653
-0.000138334
-0.000134996
-0.000131643
-0.000128283
-0.000124921
-0.000121562
-0.00011821
-0.00011487
-0.000111545
-0.000108239
-0.000104956
-0.000101699
-9.84706e-05
-9.52742e-05
-9.21124e-05
-8.89879e-05
-8.59032e-05
-8.28607e-05
-7.98627e-05
-7.69112e-05
-7.40083e-05
-7.11557e-05
-6.83553e-05
-6.56086e-05
-6.29172e-05
-6.02824e-05
-5.77054e-05
-5.51874e-05
-5.27294e-05
-5.03323e-05
-4.79964e-05
-4.5723e-05
-4.35128e-05
-4.13651e-05
-3.9281e-05
-3.72605e-05
-3.53037e-05
-3.34106e-05
-3.1581e-05
-2.98148e-05
-2.81115e-05
-2.64707e-05
-2.4892e-05
-2.33747e-05
-2.19181e-05
-2.05213e-05
-1.91836e-05
-1.7904e-05
-1.66815e-05
-1.55149e-05
-1.44034e-05
-1.33455e-05
-1.23401e-05
-1.13858e-05
-1.04812e-05
-9.62494e-06
-8.81561e-06
-8.0516e-06
-7.3316e-06
-6.65399e-06
-6.01726e-06
-5.41974e-06
-4.85978e-06
-4.33585e-06
-3.84646e-06
-3.3898e-06
-2.96452e-06
-2.56889e-06
-2.20165e-06
-1.86057e-06
-1.54491e-06
-1.25216e-06
-9.81374e-07
-7.31092e-07
-4.99074e-07
-2.84884e-07
-8.60134e-08
9.848e-08
2.7007e-07
4.31233e-07
5.81932e-07
7.25529e-07
8.61962e-07
9.94599e-07
1.12228e-06
1.25497e-06
1.36957e-06
1.54611e-06
1.55491e-06
2.05043e-06
1.31033e-06
3.60171e-06
-8.5249e-07
8.57054e-06
-7.63977e-06
1.82441e-05
-1.51838e-05
1.94565e-05
-6.07929e-07
-1.08901e-05
3.92979e-05
-3.82842e-05
-0.000178559
-0.000175757
-0.000172892
-0.000169972
-0.000167001
-0.000163981
-0.000160913
-0.000157798
-0.000154637
-0.000151432
-0.000148187
-0.000144909
-0.000141601
-0.000138271
-0.000134924
-0.000131566
-0.000128201
-0.000124835
-0.000121473
-0.000118119
-0.000114777
-0.000111451
-0.000108144
-0.000104861
-0.000101604
-9.83756e-05
-9.51799e-05
-9.20191e-05
-8.88959e-05
-8.58127e-05
-8.27719e-05
-7.97758e-05
-7.68263e-05
-7.39255e-05
-7.10752e-05
-6.82772e-05
-6.55329e-05
-6.2844e-05
-6.02117e-05
-5.76373e-05
-5.51219e-05
-5.26664e-05
-5.02719e-05
-4.79385e-05
-4.56677e-05
-4.34599e-05
-4.13146e-05
-3.92328e-05
-3.72147e-05
-3.52602e-05
-3.33693e-05
-3.15419e-05
-2.97777e-05
-2.80764e-05
-2.64376e-05
-2.48607e-05
-2.33452e-05
-2.18903e-05
-2.04953e-05
-1.91592e-05
-1.78811e-05
-1.666e-05
-1.54949e-05
-1.43847e-05
-1.33281e-05
-1.23239e-05
-1.13707e-05
-1.04672e-05
-9.61198e-06
-8.8036e-06
-8.04052e-06
-7.32137e-06
-6.64457e-06
-6.00858e-06
-5.41177e-06
-4.85248e-06
-4.3292e-06
-3.84038e-06
-3.38428e-06
-2.95953e-06
-2.56436e-06
-2.19757e-06
-1.85688e-06
-1.54157e-06
-1.24918e-06
-9.78707e-07
-7.28734e-07
-4.96982e-07
-2.83075e-07
-8.44082e-08
9.98618e-08
2.71275e-07
4.32234e-07
5.82755e-07
7.26206e-07
8.62448e-07
9.94979e-07
1.12251e-06
1.25507e-06
1.3696e-06
1.5458e-06
1.55499e-06
2.04931e-06
1.3114e-06
3.59837e-06
-8.48844e-07
8.56442e-06
-7.63613e-06
1.82438e-05
-1.51935e-05
1.94729e-05
-6.25065e-07
-1.08887e-05
3.93164e-05
-3.83307e-05
-0.000179008
-0.000176136
-0.00017321
-0.000170233
-0.000167209
-0.00016414
-0.000161026
-0.000157868
-0.000154669
-0.000151431
-0.000148158
-0.000144856
-0.000141531
-0.000138187
-0.000134829
-0.000131462
-0.000128091
-0.00012472
-0.000121354
-0.000117997
-0.000114652
-0.000111325
-0.000108017
-0.000104733
-0.000101476
-9.82488e-05
-9.5054e-05
-9.18946e-05
-8.87731e-05
-8.56919e-05
-8.26534e-05
-7.96598e-05
-7.67131e-05
-7.38152e-05
-7.09679e-05
-6.8173e-05
-6.5432e-05
-6.27464e-05
-6.01175e-05
-5.75466e-05
-5.50346e-05
-5.25825e-05
-5.01913e-05
-4.78613e-05
-4.55938e-05
-4.33893e-05
-4.12473e-05
-3.91687e-05
-3.71536e-05
-3.52022e-05
-3.33142e-05
-3.14896e-05
-2.97282e-05
-2.80296e-05
-2.63934e-05
-2.48191e-05
-2.3306e-05
-2.18534e-05
-2.04606e-05
-1.91266e-05
-1.78506e-05
-1.66315e-05
-1.54682e-05
-1.43598e-05
-1.33049e-05
-1.23023e-05
-1.13507e-05
-1.04486e-05
-9.59471e-06
-8.78761e-06
-8.02575e-06
-7.30774e-06
-6.63203e-06
-5.99703e-06
-5.40116e-06
-4.84277e-06
-4.32033e-06
-3.83227e-06
-3.37693e-06
-2.95288e-06
-2.55833e-06
-2.19211e-06
-1.85196e-06
-1.53712e-06
-1.2452e-06
-9.75152e-07
-7.25588e-07
-4.94196e-07
-2.8065e-07
-8.22692e-08
1.01707e-07
2.72874e-07
4.33569e-07
5.83853e-07
7.27103e-07
8.63106e-07
9.95482e-07
1.12282e-06
1.2552e-06
1.36965e-06
1.5454e-06
1.55509e-06
2.04782e-06
1.31278e-06
3.594e-06
-8.44175e-07
8.55665e-06
-7.63196e-06
1.82443e-05
-1.52078e-05
1.94959e-05
-6.48476e-07
-1.08874e-05
3.93429e-05
-3.83931e-05
-0.000179529
-0.000176578
-0.000173579
-0.000170534
-0.000167446
-0.000164318
-0.000161149
-0.000157942
-0.000154698
-0.000151422
-0.000148116
-0.000144788
-0.000141441
-0.00013808
-0.000134709
-0.000131332
-0.000127953
-0.000124576
-0.000121205
-0.000117844
-0.000114496
-0.000111167
-0.000107858
-0.000104574
-0.000101317
-9.809e-05
-9.48965e-05
-9.17388e-05
-8.86194e-05
-8.55408e-05
-8.25052e-05
-7.95147e-05
-7.65714e-05
-7.36772e-05
-7.08338e-05
-6.80428e-05
-6.53059e-05
-6.26245e-05
-5.99998e-05
-5.74331e-05
-5.49254e-05
-5.24776e-05
-5.00907e-05
-4.77649e-05
-4.55016e-05
-4.33012e-05
-4.11632e-05
-3.90885e-05
-3.70773e-05
-3.51296e-05
-3.32454e-05
-3.14244e-05
-2.96665e-05
-2.79712e-05
-2.63383e-05
-2.4767e-05
-2.32569e-05
-2.18073e-05
-2.04172e-05
-1.90859e-05
-1.78124e-05
-1.65958e-05
-1.54349e-05
-1.43287e-05
-1.32759e-05
-1.22753e-05
-1.13256e-05
-1.04253e-05
-9.57312e-06
-8.76763e-06
-8.0073e-06
-7.29072e-06
-6.61636e-06
-5.98261e-06
-5.38793e-06
-4.83064e-06
-4.30926e-06
-3.82216e-06
-3.36775e-06
-2.94455e-06
-2.55079e-06
-2.1853e-06
-1.84582e-06
-1.53157e-06
-1.24024e-06
-9.70711e-07
-7.21657e-07
-4.90714e-07
-2.77609e-07
-7.95968e-08
1.04016e-07
2.74865e-07
4.35239e-07
5.85227e-07
7.28222e-07
8.63937e-07
9.96108e-07
1.12321e-06
1.25535e-06
1.3697e-06
1.54491e-06
1.55521e-06
2.04595e-06
1.3145e-06
3.58849e-06
-8.38285e-07
8.54685e-06
-7.62667e-06
1.8245e-05
-1.52257e-05
1.95249e-05
-6.77827e-07
-1.08857e-05
3.9376e-05
-3.84674e-05
-0.000180104
-0.000177065
-0.000173985
-0.000170864
-0.000167704
-0.000164509
-0.000161279
-0.000158016
-0.000154723
-0.000151403
-0.000148062
-0.000144704
-0.000141333
-0.000137953
-0.000134566
-0.000131177
-0.000127788
-0.000124403
-0.000121026
-0.00011766
-0.000114309
-0.000110977
-0.000107667
-0.000104382
-0.000101125
-9.7899e-05
-9.4707e-05
-9.15515e-05
-8.84348e-05
-8.53592e-05
-8.23271e-05
-7.93405e-05
-7.64014e-05
-7.35115e-05
-7.06727e-05
-6.78866e-05
-6.51546e-05
-6.24782e-05
-5.98586e-05
-5.7297e-05
-5.47944e-05
-5.23518e-05
-4.997e-05
-4.76493e-05
-4.53909e-05
-4.31955e-05
-4.10623e-05
-3.89924e-05
-3.69859e-05
-3.50427e-05
-3.31628e-05
-3.13462e-05
-2.95924e-05
-2.79012e-05
-2.62721e-05
-2.47046e-05
-2.31981e-05
-2.17519e-05
-2.03652e-05
-1.90371e-05
-1.77667e-05
-1.6553e-05
-1.5395e-05
-1.42914e-05
-1.32412e-05
-1.2243e-05
-1.12955e-05
-1.03974e-05
-9.54724e-06
-8.74368e-06
-7.98518e-06
-7.27031e-06
-6.59756e-06
-5.96532e-06
-5.37207e-06
-4.8161e-06
-4.29599e-06
-3.81004e-06
-3.35674e-06
-2.93456e-06
-2.54174e-06
-2.17711e-06
-1.83844e-06
-1.52491e-06
-1.23429e-06
-9.65387e-07
-7.1694e-07
-4.86539e-07
-2.73954e-07
-7.63919e-08
1.06786e-07
2.77249e-07
4.37241e-07
5.86875e-07
7.29562e-07
8.64939e-07
9.96856e-07
1.12367e-06
1.25552e-06
1.36976e-06
1.5443e-06
1.55542e-06
2.0435e-06
1.31705e-06
3.58078e-06
-8.28966e-07
8.53088e-06
-7.61336e-06
1.82358e-05
-1.52354e-05
1.95497e-05
-7.09878e-07
-1.08756e-05
3.93971e-05
-3.85286e-05
-0.000180738
-0.0001776
-0.000174426
-0.000171219
-0.000167979
-0.00016471
-0.000161413
-0.00015809
-0.000154744
-0.000151379
-0.000147999
-0.000144607
-0.000141208
-0.000137804
-0.000134399
-0.000130994
-0.000127592
-0.000124197
-0.000120812
-0.00011744
-0.000114084
-0.000110749
-0.000107437
-0.000104151
-0.000100895
-9.76703e-05
-9.44803e-05
-9.13273e-05
-8.82138e-05
-8.51421e-05
-8.21142e-05
-7.91322e-05
-7.61981e-05
-7.33135e-05
-7.04803e-05
-6.76999e-05
-6.49738e-05
-6.23034e-05
-5.96899e-05
-5.71344e-05
-5.4638e-05
-5.22015e-05
-4.98258e-05
-4.75112e-05
-4.52588e-05
-4.30692e-05
-4.09419e-05
-3.88776e-05
-3.68766e-05
-3.49389e-05
-3.30643e-05
-3.12527e-05
-2.95039e-05
-2.78175e-05
-2.61931e-05
-2.46301e-05
-2.31279e-05
-2.16859e-05
-2.03031e-05
-1.89789e-05
-1.77122e-05
-1.6502e-05
-1.53472e-05
-1.42469e-05
-1.31996e-05
-1.22043e-05
-1.12596e-05
-1.0364e-05
-9.51634e-06
-8.71508e-06
-7.95877e-06
-7.24594e-06
-6.57513e-06
-5.94467e-06
-5.35313e-06
-4.79875e-06
-4.28014e-06
-3.79558e-06
-3.34359e-06
-2.92262e-06
-2.53094e-06
-2.16734e-06
-1.82963e-06
-1.51697e-06
-1.22719e-06
-9.59031e-07
-7.11307e-07
-4.81553e-07
-2.69583e-07
-7.2565e-08
1.10096e-07
2.80093e-07
4.39631e-07
5.88845e-07
7.31159e-07
8.66141e-07
9.97745e-07
1.12423e-06
1.25572e-06
1.36985e-06
1.54353e-06
1.55578e-06
2.04027e-06
1.32085e-06
3.56976e-06
-8.14e-07
8.50443e-06
-7.58496e-06
1.82064e-05
-1.5225e-05
1.95599e-05
-7.41751e-07
-1.08484e-05
3.93871e-05
-3.85521e-05
-0.000181427
-0.000178177
-0.0001749
-0.000171596
-0.000168267
-0.000164916
-0.000161545
-0.000158155
-0.00015475
-0.000151334
-0.00014791
-0.000144482
-0.000141052
-0.000137623
-0.000134196
-0.000130774
-0.000127358
-0.000123952
-0.000120557
-0.000117179
-0.000113819
-0.00011048
-0.000107166
-0.00010388
-0.000100623
-9.74003e-05
-9.42126e-05
-9.10629e-05
-8.79533e-05
-8.48861e-05
-8.18633e-05
-7.88869e-05
-7.59586e-05
-7.30804e-05
-7.02537e-05
-6.74801e-05
-6.4761e-05
-6.20977e-05
-5.94914e-05
-5.69432e-05
-5.4454e-05
-5.20248e-05
-4.96562e-05
-4.73488e-05
-4.51034e-05
-4.29208e-05
-4.08003e-05
-3.87427e-05
-3.67483e-05
-3.48169e-05
-3.29485e-05
-3.1143e-05
-2.94e-05
-2.77193e-05
-2.61003e-05
-2.45426e-05
-2.30454e-05
-2.16083e-05
-2.02302e-05
-1.89105e-05
-1.7648e-05
-1.6442e-05
-1.52912e-05
-1.41945e-05
-1.31509e-05
-1.21589e-05
-1.12173e-05
-1.03249e-05
-9.48003e-06
-8.68148e-06
-7.92773e-06
-7.21731e-06
-6.54877e-06
-5.92042e-06
-5.33089e-06
-4.77836e-06
-4.26153e-06
-3.77859e-06
-3.32815e-06
-2.9086e-06
-2.51824e-06
-2.15585e-06
-1.81928e-06
-1.50763e-06
-1.21884e-06
-9.51564e-07
-7.04685e-07
-4.75692e-07
-2.6444e-07
-6.80662e-08
1.13988e-07
2.83433e-07
4.42442e-07
5.91161e-07
7.33036e-07
8.67558e-07
9.9879e-07
1.12488e-06
1.25597e-06
1.3699e-06
1.54274e-06
1.55589e-06
2.03724e-06
1.32356e-06
3.56048e-06
-8.03391e-07
8.48521e-06
-7.56932e-06
1.81944e-05
-1.52357e-05
1.95878e-05
-7.79781e-07
-1.08345e-05
3.94077e-05
-3.86165e-05
-0.000182141
-0.000178771
-0.000175383
-0.000171976
-0.000168554
-0.000165117
-0.000161667
-0.000158208
-0.000154742
-0.000151273
-0.000147803
-0.000144335
-0.000140872
-0.000137414
-0.000133964
-0.000130522
-0.000127091
-0.000123672
-0.000120268
-0.000116882
-0.000113516
-0.000110174
-0.000106858
-0.000103571
-0.000100315
-9.7094e-05
-9.39092e-05
-9.07632e-05
-8.76582e-05
-8.45962e-05
-8.15793e-05
-7.86092e-05
-7.56878e-05
-7.28167e-05
-6.99975e-05
-6.72317e-05
-6.45205e-05
-6.18653e-05
-5.92672e-05
-5.67272e-05
-5.42462e-05
-5.18251e-05
-4.94648e-05
-4.71654e-05
-4.4928e-05
-4.27532e-05
-4.06404e-05
-3.85903e-05
-3.66033e-05
-3.46791e-05
-3.28177e-05
-3.1019e-05
-2.92826e-05
-2.76083e-05
-2.59955e-05
-2.44437e-05
-2.29523e-05
-2.15206e-05
-2.01479e-05
-1.88332e-05
-1.75757e-05
-1.63742e-05
-1.52279e-05
-1.41355e-05
-1.30958e-05
-1.21076e-05
-1.11697e-05
-1.02806e-05
-9.43903e-06
-8.64355e-06
-7.8927e-06
-7.18499e-06
-6.51901e-06
-5.89305e-06
-5.30578e-06
-4.75535e-06
-4.24051e-06
-3.75941e-06
-3.31071e-06
-2.89276e-06
-2.50389e-06
-2.14287e-06
-1.80758e-06
-1.4971e-06
-1.20942e-06
-9.43135e-07
-6.97209e-07
-4.69075e-07
-2.58629e-07
-6.29864e-08
1.18383e-07
2.872e-07
4.45617e-07
5.93775e-07
7.35154e-07
8.69162e-07
9.99968e-07
1.12561e-06
1.25625e-06
1.36993e-06
1.54195e-06
1.55578e-06
2.03433e-06
1.3255e-06
3.55219e-06
-7.95315e-07
8.46962e-06
-7.55985e-06
1.81898e-05
-1.52547e-05
1.96216e-05
-8.19445e-07
-1.08253e-05
3.94378e-05
-3.86938e-05
-0.000182863
-0.000179367
-0.000175863
-0.000172351
-0.000168831
-0.000165305
-0.000161776
-0.000158246
-0.000154717
-0.000151192
-0.000147674
-0.000144165
-0.000140666
-0.000137178
-0.000133702
-0.000130239
-0.00012679
-0.000123357
-0.000119942
-0.000116548
-0.000113176
-0.00010983
-0.000106512
-0.000103224
-9.99701e-05
-9.6751e-05
-9.35696e-05
-9.0428e-05
-8.73282e-05
-8.42723e-05
-8.1262e-05
-7.82991e-05
-7.53854e-05
-7.25225e-05
-6.97117e-05
-6.69546e-05
-6.42523e-05
-6.16061e-05
-5.90171e-05
-5.64863e-05
-5.40145e-05
-5.16026e-05
-4.92514e-05
-4.6961e-05
-4.47325e-05
-4.25664e-05
-4.04622e-05
-3.84206e-05
-3.64418e-05
-3.45257e-05
-3.26721e-05
-3.08809e-05
-2.91519e-05
-2.74847e-05
-2.58788e-05
-2.43336e-05
-2.28486e-05
-2.14231e-05
-2.00562e-05
-1.87472e-05
-1.74951e-05
-1.62988e-05
-1.51574e-05
-1.40696e-05
-1.30344e-05
-1.20505e-05
-1.11166e-05
-1.02314e-05
-9.39338e-06
-8.6013e-06
-7.85369e-06
-7.149e-06
-6.48588e-06
-5.86257e-06
-5.27781e-06
-4.72972e-06
-4.21711e-06
-3.73805e-06
-3.29129e-06
-2.87512e-06
-2.48791e-06
-2.12842e-06
-1.79456e-06
-1.48537e-06
-1.19892e-06
-9.3375e-07
-6.88882e-07
-4.61704e-07
-2.52153e-07
-5.73277e-08
1.23281e-07
2.91395e-07
4.49153e-07
5.96689e-07
7.37513e-07
8.70951e-07
1.00128e-06
1.12643e-06
1.25656e-06
1.36994e-06
1.5411e-06
1.55554e-06
2.03133e-06
1.32715e-06
3.54378e-06
-7.87525e-07
8.45342e-06
-7.54953e-06
1.81824e-05
-1.52701e-05
1.96509e-05
-8.57323e-07
-1.08128e-05
3.94587e-05
-3.8758e-05
-0.00018358
-0.000179954
-0.00017633
-0.000172709
-0.00016909
-0.000165475
-0.000161865
-0.000158262
-0.000154669
-0.000151087
-0.000147519
-0.000143966
-0.00014043
-0.00013691
-0.000133407
-0.000129921
-0.000126454
-0.000123006
-0.000119579
-0.000116176
-0.000112798
-0.000109448
-0.000106128
-0.00010284
-9.95872e-05
-9.63709e-05
-9.31935e-05
-9.0057e-05
-8.69632e-05
-8.39141e-05
-8.09113e-05
-7.79565e-05
-7.50515e-05
-7.21976e-05
-6.93962e-05
-6.66487e-05
-6.39563e-05
-6.13202e-05
-5.87413e-05
-5.62207e-05
-5.37591e-05
-5.13573e-05
-4.90161e-05
-4.67357e-05