/*--------------------------------*- C++ -*----------------------------------*\
| =========                 |                                                 |
| \\      /  F ield         | OpenFOAM: The Open Source CFD Toolbox           |
|  \\    /   O peration     | Version:  2412                                  |
|   \\  /    A nd           | Website:  www.openfoam.com                      |
|    \\/     M anipulation  |                                                 |
\*---------------------------------------------------------------------------*/
FoamFile
{
    version     2.0;
    format      ascii;
    arch        "LSB;label=32;scalar=64";
    class       surfaceScalarField;
    location    "4";
    object      phi;
}
// * * * * * * * * * * * * * * * * * * * * * * * * * * * * * * * * * * * * * //

dimensions      [0 3 -1 0 0 0 0];

oriented        oriented;

internalField   nonuniform List<scalar> 
126304
(
0.00505025
5.08701e-07
-5.8423e-10
0.0050433
6.95145e-06
-4.84062e-09
0.0050349
8.40611e-06
-8.06773e-09
0.00502782
7.08856e-06
-6.01176e-09
0.00502416
3.66e-06
-1.67532e-09
0.00502275
1.40872e-06
2.41237e-09
0.00502224
5.04963e-07
4.9641e-09
0.00502181
4.30587e-07
6.23268e-09
0.00502108
7.17239e-07
6.72158e-09
0.00502002
1.05886e-06
6.77705e-09
0.00501866
1.34666e-06
6.63275e-09
0.00501709
1.56577e-06
6.44725e-09
0.00501535
1.72921e-06
6.3087e-09
0.00501349
1.85461e-06
6.21756e-09
0.00501153
1.95626e-06
6.16827e-09
0.00500948
2.04399e-06
6.13164e-09
0.00500735
2.1242e-06
6.08513e-09
0.00500514
2.201e-06
5.99887e-09
0.00500286
2.27694e-06
5.89601e-09
0.0050005
2.35369e-06
5.79507e-09
0.00499806
2.43231e-06
5.68788e-09
0.00499554
2.51351e-06
5.55273e-09
0.00499294
2.59775e-06
5.38855e-09
0.00499025
2.68529e-06
5.20548e-09
0.00498747
2.77633e-06
5.02526e-09
0.00498459
2.87101e-06
4.84475e-09
0.00498162
2.96944e-06
4.66054e-09
0.00497854
3.07172e-06
4.45854e-09
0.00497536
3.17792e-06
4.23972e-09
0.00497207
3.28814e-06
3.99921e-09
0.00496866
3.40245e-06
3.74658e-09
0.00496514
3.52093e-06
3.48439e-09
0.00496149
3.64367e-06
3.22351e-09
0.00495772
3.7708e-06
2.96486e-09
0.00495381
3.90245e-06
2.70855e-09
0.00494977
4.03879e-06
2.45024e-09
0.00494559
4.18e-06
2.18317e-09
0.00494126
4.3263e-06
1.90502e-09
0.00493678
4.47795e-06
1.61261e-09
0.00493215
4.63524e-06
1.30854e-09
0.00492735
4.79852e-06
9.95585e-10
0.00492238
4.96821e-06
6.78976e-10
0.00491723
5.1448e-06
3.63142e-10
0.0049119
5.32892e-06
4.89646e-11
0.00490638
5.52128e-06
-2.65598e-10
0.00490066
5.7228e-06
-5.83961e-10
0.00489473
5.93457e-06
-9.06637e-10
0.00488857
6.15796e-06
-1.23073e-09
0.00488218
6.39463e-06
-1.54925e-09
0.00487553
6.64654e-06
-1.85291e-09
0.00486862
6.9157e-06
-2.1319e-09
0.00486142
7.20348e-06
-2.37872e-09
0.00485391
7.50929e-06
-2.58824e-09
0.00484608
7.82899e-06
-2.75813e-09
8.1548e-06
0.00483793
-2.88779e-09
0.00505027
9.97744e-07
0.00504344
1.37817e-05
0.00503521
1.66365e-05
0.00502819
1.41027e-05
0.00502452
7.3306e-06
0.00502305
2.88524e-06
0.00502246
1.09096e-06
0.00502196
9.30916e-07
0.00502119
1.48714e-06
0.00502009
2.15492e-06
0.00501872
2.719e-06
0.00501714
3.14946e-06
0.0050154
3.47134e-06
0.00501353
3.71895e-06
0.00501157
3.92021e-06
0.00500952
4.09433e-06
0.00500739
4.25383e-06
0.00500518
4.40672e-06
0.0050029
4.55805e-06
0.00500054
4.71108e-06
0.00499811
4.86791e-06
0.00499559
5.02992e-06
0.00499299
5.19798e-06
0.0049903
5.37265e-06
0.00498753
5.55432e-06
0.00498465
5.74325e-06
0.00498168
5.93967e-06
0.00497861
6.14376e-06
0.00497543
6.35568e-06
0.00497215
6.57558e-06
0.00496874
6.80361e-06
0.00496523
7.03996e-06
0.00496158
7.28481e-06
0.00495782
7.5384e-06
0.00495392
7.80099e-06
0.00494988
8.07291e-06
0.00494571
8.35451e-06
0.00494139
8.64622e-06
0.00493692
8.94855e-06
0.00493229
9.26207e-06
0.0049275
9.58747e-06
0.00492255
9.92556e-06
0.00491741
1.02773e-05
0.0049121
1.0644e-05
0.00490659
1.10269e-05
0.00490089
1.14279e-05
0.00489497
1.1849e-05
0.00488884
1.2293e-05
0.00488247
1.27629e-05
0.00487585
1.32627e-05
0.00486897
1.37962e-05
0.00486181
1.4366e-05
0.00485435
1.49708e-05
0.00484658
1.56029e-05
1.62471e-05
0.00483848
0.00505031
1.44171e-06
0.00504373
2.03676e-05
0.00503583
2.45294e-05
0.00502895
2.09868e-05
0.00502525
1.10332e-05
0.00502364
4.49712e-06
0.0050229
1.83061e-06
0.00502227
1.55794e-06
0.00502141
2.34794e-06
0.00502025
3.31083e-06
0.00501884
4.12864e-06
0.00501724
4.75549e-06
0.00501548
5.22625e-06
0.00501361
5.59001e-06
0.00501164
5.887e-06
0.00500959
6.14497e-06
0.00500747
6.38203e-06
0.00500526
6.60978e-06
0.00500298
6.83559e-06
0.00500063
7.06419e-06
0.0049982
7.29865e-06
0.00499569
7.54095e-06
0.0049931
7.79235e-06
0.00499041
8.05368e-06
0.00498764
8.3255e-06
0.00498478
8.60821e-06
0.00498182
8.90213e-06
0.00497875
9.20751e-06
0.00497558
9.52458e-06
0.00497231
9.85356e-06
0.00496891
1.01947e-05
0.00496541
1.05482e-05
0.00496178
1.09144e-05
0.00495802
1.12936e-05
0.00495414
1.16862e-05
0.00495012
1.20927e-05
0.00494596
1.25136e-05
0.00494165
1.29496e-05
0.0049372
1.34012e-05
0.00493259
1.38695e-05
0.00492783
1.43553e-05
0.00492289
1.48599e-05
0.00491778
1.53846e-05
0.0049125
1.59313e-05
0.00490702
1.65018e-05
0.00490135
1.70988e-05
0.00489547
1.77253e-05
0.00488938
1.83849e-05
0.00488306
1.90822e-05
0.0048765
1.98226e-05
0.00486969
2.06115e-05
0.0048626
2.14525e-05
0.00485523
2.23439e-05
0.00484756
2.32743e-05
2.42224e-05
0.00483958
0.00505039
1.8052e-06
0.0050442
2.65636e-05
0.00503681
3.19182e-05
0.00503011
2.76896e-05
0.00502634
1.47989e-05
0.00502452
6.31951e-06
0.00502355
2.8018e-06
0.00502273
2.37283e-06
0.00502174
3.34205e-06
0.00502049
4.55379e-06
0.00501903
5.59216e-06
0.00501739
6.39361e-06
0.00501562
6.99936e-06
0.00501374
7.47048e-06
0.00501177
7.85757e-06
0.00500972
8.19569e-06
0.00500759
8.5078e-06
0.00500539
8.80863e-06
0.00500312
9.10759e-06
0.00500077
9.41073e-06
0.00499835
9.72195e-06
0.00499585
1.00438e-05
0.00499326
1.03778e-05
0.00499059
1.07251e-05
0.00498783
1.10863e-05
0.00498498
1.14621e-05
0.00498203
1.18528e-05
0.00497898
1.22587e-05
0.00497582
1.26801e-05
0.00497256
1.31172e-05
0.00496918
1.35705e-05
0.00496569
1.40401e-05
0.00496208
1.45265e-05
0.00495834
1.50301e-05
0.00495447
1.55514e-05
0.00495048
1.6091e-05
0.00494634
1.66496e-05
0.00494206
1.72279e-05
0.00493764
1.78269e-05
0.00493306
1.84477e-05
0.00492832
1.90914e-05
0.00492342
1.97596e-05
0.00491835
2.04542e-05
0.00491311
2.11771e-05
0.00490768
2.1931e-05
0.00490206
2.2719e-05
0.00489624
2.35449e-05
0.00489021
2.44131e-05
0.00488396
2.53293e-05
0.00487749
2.62999e-05
0.00487077
2.73315e-05
0.00486379
2.84284e-05
0.00485655
2.95883e-05
0.00484902
3.07972e-05
3.2029e-05
0.00484122
0.00505051
2.04851e-06
0.00504486
3.22137e-05
0.00503813
3.8653e-05
0.00503165
3.41713e-05
0.00502778
1.8668e-05
0.00502567
8.4272e-06
0.00502439
4.07745e-06
0.00502334
3.43093e-06
0.00502217
4.50671e-06
0.00502082
5.9072e-06
0.00501929
7.12356e-06
0.00501761
8.07183e-06
0.00501581
8.79498e-06
0.00501392
9.36232e-06
0.00501195
9.83236e-06
0.0050099
1.02459e-05
0.00500777
1.06299e-05
0.00500558
1.10015e-05
0.00500332
1.13719e-05
0.00500098
1.17482e-05
0.00499857
1.21351e-05
0.00499608
1.25354e-05
0.0049935
1.29511e-05
0.00499084
1.33834e-05
0.0049881
1.38332e-05
0.00498526
1.43011e-05
0.00498232
1.47876e-05
0.00497929
1.52929e-05
0.00497615
1.58175e-05
0.00497291
1.63617e-05
0.00496955
1.69258e-05
0.00496608
1.75102e-05
0.00496249
1.81153e-05
0.00495878
1.87416e-05
0.00495494
1.93898e-05
0.00495097
2.00606e-05
0.00494687
2.07546e-05
0.00494262
2.1473e-05
0.00493823
2.22166e-05
0.00493369
2.29869e-05
0.004929
2.37853e-05
0.00492415
2.46135e-05
0.00491913
2.54736e-05
0.00491394
2.63681e-05
0.00490857
2.72998e-05
0.00490301
2.82724e-05
0.00489727
2.929e-05
0.00489132
3.03579e-05
0.00488517
3.14821e-05
0.0048788
3.267e-05
0.0048722
3.39285e-05
0.00486537
3.52623e-05
0.00485829
3.66685e-05
0.00485096
3.81308e-05
3.96188e-05
0.00484337
0.00505068
2.1303e-06
0.0050457
3.71881e-05
0.00503975
4.46009e-05
0.00503351
4.0413e-05
0.0050295
2.26761e-05
0.00502705
1.08844e-05
0.00502541
5.71717e-06
0.00502406
4.77591e-06
0.0050227
5.87087e-06
0.00502122
7.38891e-06
0.00501961
8.73335e-06
0.00501788
9.79604e-06
0.00501606
1.06161e-05
0.00501416
1.12667e-05
0.00501218
1.18113e-05
0.00501013
1.22948e-05
0.00500801
1.27468e-05
0.00500583
1.31865e-05
0.00500357
1.36263e-05
0.00500125
1.40742e-05
0.00499885
1.45352e-05
0.00499637
1.50128e-05
0.00499381
1.5509e-05
0.00499117
1.60253e-05
0.00498844
1.65625e-05
0.00498562
1.71214e-05
0.0049827
1.77024e-05
0.00497969
1.83059e-05
0.00497658
1.89323e-05
0.00497336
1.9582e-05
0.00497003
2.02553e-05
0.00496658
2.09527e-05
0.00496302
2.16746e-05
0.00495934
2.24217e-05
0.00495554
2.31946e-05
0.00495161
2.3994e-05
0.00494754
2.48209e-05
0.00494334
2.56763e-05
0.00493899
2.65614e-05
0.0049345
2.74777e-05
0.00492986
2.84267e-05
0.00492506
2.94103e-05
0.00492011
3.04309e-05
0.00491498
3.14911e-05
0.00490969
3.2594e-05
0.00490422
3.37435e-05
0.00489856
3.4944e-05
0.00489272
3.62009e-05
0.00488668
3.75208e-05
0.00488044
3.89108e-05
0.00487399
4.03782e-05
0.00486733
4.19274e-05
0.00486044
4.35546e-05
0.00485333
4.52414e-05
4.69536e-05
0.00484599
0.0050508
2.08496e-06
0.00504674
4.12554e-05
0.00504153
4.98092e-05
0.0050356
4.63419e-05
0.00503141
2.6861e-05
0.00502856
1.37342e-05
0.00502653
7.75336e-06
0.00502487
6.43496e-06
0.00502329
7.45208e-06
0.00502167
9.00945e-06
0.00501997
1.04278e-05
0.0050182
1.15697e-05
0.00501635
1.24642e-05
0.00501443
1.31838e-05
0.00501245
1.37939e-05
0.0050104
1.43412e-05
0.00500829
1.4857e-05
0.00500612
1.53617e-05
0.00500388
1.58685e-05
0.00500156
1.6386e-05
0.00499918
1.69197e-05
0.00499672
1.74731e-05
0.00499418
1.80484e-05
0.00499156
1.86472e-05
0.00498885
1.92705e-05
0.00498605
1.99189e-05
0.00498316
2.0593e-05
0.00498017
2.12932e-05
0.00497709
2.20198e-05
0.0049739
2.27732e-05
0.0049706
2.35539e-05
0.00496719
2.43622e-05
0.00496366
2.51987e-05
0.00496002
2.60641e-05
0.00495626
2.69589e-05
0.00495237
2.78842e-05
0.00494835
2.88407e-05
0.00494419
2.98297e-05
0.0049399
3.08525e-05
0.00493547
3.19104e-05
0.00493089
3.30053e-05
0.00492616
3.41392e-05
0.00492128
3.53143e-05
0.00491624
3.65336e-05
0.00491103
3.78001e-05
0.00490566
3.91178e-05
0.00490011
4.04911e-05
0.00489439
4.19254e-05
0.00488848
4.3427e-05
0.00488239
4.50029e-05
0.0048761
4.666e-05
0.00486963
4.84018e-05
0.00486296
5.02234e-05
0.0048561
5.21042e-05
0.00484905
5.4003e-05
0.00483989
-1.95265e-06
-2.99604e-09
0.00484137
-1.48411e-06
-3.11541e-09
0.00484246
-1.08487e-06
-3.2054e-09
0.00484326
-7.89835e-07
-3.25144e-09
0.00484388
-6.17229e-07
-3.21827e-09
0.00484445
-5.66251e-07
-3.27564e-09
0.00484503
-5.84809e-07
-3.28565e-09
0.00484564
-6.02579e-07
-3.29538e-09
0.00484619
-5.41831e-07
-3.40192e-09
0.00484651
-3.23965e-07
-3.41557e-09
0.00484636
1.53752e-07
-2.9005e-09
0.00484556
8.07055e-07
-3.30509e-09
0.00484383
1.73286e-06
-3.32854e-09
0.00484095
2.88101e-06
-3.26867e-09
0.00483674
4.21853e-06
-3.18974e-09
0.00483102
5.71519e-06
-3.13791e-09
0.00482368
7.34819e-06
-3.06225e-09
0.00481458
9.1052e-06
-2.9899e-09
0.00480359
1.09852e-05
-2.98189e-09
0.0047906
1.29973e-05
-2.99175e-09
0.00477544
1.51592e-05
-3.03875e-09
0.00475795
1.74958e-05
-3.09453e-09
0.00473792
2.0038e-05
-3.11905e-09
0.0047151
2.28227e-05
-3.08826e-09
0.00468921
2.58928e-05
-2.98778e-09
0.00465991
2.92977e-05
-2.81611e-09
0.00462682
3.30946e-05
-2.58472e-09
0.00458947
3.73504e-05
-2.31378e-09
0.00454733
4.21438e-05
-2.02741e-09
0.00449976
4.75692e-05
-1.74983e-09
0.00444602
5.37413e-05
-1.50176e-09
0.00438522
6.08013e-05
-1.29605e-09
0.0043163
6.89242e-05
-1.13763e-09
0.00423797
7.83288e-05
-1.02516e-09
0.00414868
8.92909e-05
-9.49512e-10
0.00404652
0.00010216
-8.9581e-10
0.00392914
0.000117381
-8.47692e-10
0.00379362
0.00013552
-7.91805e-10
0.00363634
0.000157285
-7.18775e-10
0.00345281
0.00018353
-6.26905e-10
0.00323761
0.000215202
-5.2261e-10
0.00298445
0.000253158
-4.19916e-10
0.0026867
0.00029775
-3.29889e-10
0.00233865
0.000348048
-2.5537e-10
0.00193805
0.0004006
-1.84072e-10
0.00149031
0.000447743
-9.55604e-11
0.00101462
0.000475688
2.10349e-11
0.000552034
0.000462587
1.27392e-10
0.000175996
0.000376038
1.33182e-10
0.000175996
2.38062e-11
0.0048391
-2.56443e-06
0.00483924
-1.62702e-06
0.00483898
-8.23626e-07
0.00483841
-2.20669e-07
0.00483763
1.60589e-07
0.00483677
2.90723e-07
0.00483589
2.98706e-07
0.00483497
3.16336e-07
0.00483394
4.88097e-07
0.00483265
9.64301e-07
0.00483093
1.87382e-06
0.00482849
3.24963e-06
0.00482512
5.10226e-06
0.00482061
7.38651e-06
0.00481479
1.00427e-05
0.00480749
1.30133e-05
0.00479859
1.62555e-05
0.00478794
1.97468e-05
0.00477544
2.34868e-05
0.00476094
2.74945e-05
0.0047443
3.18056e-05
0.00472532
3.64699e-05
0.00470381
4.15491e-05
0.00467952
4.71167e-05
0.00465215
5.32583e-05
0.00462138
6.00727e-05
0.0045868
6.76741e-05
0.00454795
7.6196e-05
0.0045043
8.57958e-05
0.00445521
9.6662e-05
0.00439993
0.000109024
0.00433757
0.000123162
0.00426706
0.000139426
0.00418714
0.00015825
0.00409625
0.000180183
0.00399249
0.000205917
0.00387354
0.000236332
0.00373652
0.000272545
0.00357785
0.00031595
0.00339316
0.000368217
0.00317718
0.000431183
0.00292387
0.000506475
0.00262694
0.00059468
0.00228118
0.0006938
0.00188495
0.000796832
0.00144423
0.000888469
0.000978579
0.000941337
0.000528705
0.000912462
0.000165301
0.000739442
0.000341296
0.00483752
-5.03643e-07
0.00483499
9.06152e-07
0.00483203
2.13102e-06
0.00482874
3.07459e-06
0.00482521
3.68381e-06
0.00482153
3.97724e-06
0.00481774
4.08636e-06
0.00481385
4.20874e-06
0.00480977
4.56923e-06
0.00480535
5.38065e-06
0.00480042
6.80148e-06
0.00479477
8.90162e-06
0.00478819
1.16794e-05
0.0047805
1.50787e-05
0.00477153
1.90186e-05
0.00476112
2.3421e-05
0.00474915
2.82282e-05
0.00473548
3.3412e-05
0.00471999
3.8975e-05
0.00470254
4.49478e-05
0.00468296
5.13847e-05
0.00466107
5.83603e-05
0.00463665
6.59671e-05
0.00460945
7.43146e-05
0.00457918
8.35308e-05
0.00454549
9.37633e-05
0.00450798
0.000105183
0.00446619
0.000117991
0.00441956
0.000132421
0.00436747
0.000148757
0.00430915
0.000167341
0.00424372
0.000188593
0.00417011
0.000213032
0.00408706
0.000241306
0.00399301
0.000274224
0.00388612
0.000312812
0.00376409
0.000358363
0.00362412
0.000412512
0.00346279
0.000477287
0.00327591
0.000555097
0.00305854
0.000648547
0.00280516
0.000759861
0.00251021
0.000889628
0.00216947
0.00103453
0.00178244
0.00118387
0.00135608
0.00131483
0.000910364
0.00138705
0.000485539
0.00133729
0.00014883
0.00107615
0.000490126
0.00483519
5.52298e-06
0.00482869
7.40157e-06
0.00482176
9.06245e-06
0.00481446
1.03816e-05
0.00480685
1.12925e-05
0.00479899
1.1829e-05
0.00479094
1.21451e-05
0.00478266
1.24874e-05
0.00477409
1.31411e-05
0.0047651
1.43697e-05
0.00475554
1.63628e-05
0.00474523
1.92093e-05
0.004734
2.29079e-05
0.00472168
2.7393e-05
0.00470813
3.25699e-05
0.00469321
3.83479e-05
0.00467677
4.46617e-05
0.0046587
5.14825e-05
0.00463886
5.88197e-05
0.00461709
6.67173e-05
0.00459322
7.52491e-05
0.00456707
8.45144e-05
0.0045384
9.46361e-05
0.00450696
0.000105759
0.00447243
0.000118054
0.00443448
0.000131716
0.00439269
0.000146974
0.00434659
0.000164093
0.00429562
0.000183387
0.00423915
0.000205232
0.00417641
0.000230082
0.0041065
0.000258494
0.00402838
0.000291154
0.00394078
0.000328913
0.00384217
0.000372832
0.00373073
0.000424246
0.00360426
0.000484831
0.00346009
0.000556687
0.00329498
0.000642392
0.00310512
0.000744965
0.00288608
0.000867582
0.00263315
0.00101279
0.00234193
0.00118085
0.00200967
0.0013668
0.00163745
0.00155608
0.00123345
0.00171884
0.000817537
0.00180296
0.000427837
0.00172699
0.000125412
0.00137858
0.000615539
0.00483213
1.67624e-05
0.00482043
1.91029e-05
0.00480828
2.12105e-05
0.00479572
2.29435e-05
0.00478278
2.42268e-05
0.00476951
2.5101e-05
0.00475591
2.57411e-05
0.00474197
2.64287e-05
0.00472762
2.74907e-05
0.00471277
2.92264e-05
0.00469728
3.18506e-05
0.00468102
3.54669e-05
0.00466385
4.00772e-05
0.00464563
4.56121e-05
0.00462623
5.19717e-05
0.00460552
5.90612e-05
0.00458336
6.68155e-05
0.00455963
7.52109e-05
0.00453419
8.42672e-05
0.00450686
9.40441e-05
0.00447747
0.000104636
0.00444582
0.000116166
0.00441167
0.000128788
0.00437475
0.000142682
0.00433474
0.000158059
0.0042913
0.000175163
0.00424399
0.000194279
0.00419234
0.000215739
0.0041358
0.000239934
0.0040737
0.000267332
0.00400528
0.000298499
0.00392965
0.000334124
0.00384575
0.000375054
0.00375233
0.000422333
0.0036479
0.000477257
0.00353071
0.00054144
0.00339865
0.000616892
0.00324924
0.000706097
0.00307958
0.000812057
0.00288634
0.000938203
0.00266592
0.001088
0.00241477
0.00126394
0.00213012
0.0014655
0.00181122
0.00168569
0.00146121
0.0019061
0.00108946
0.00209058
0.000714831
0.00217759
0.000369726
0.00207209
0.000102184
0.00164612
0.000717722
0.00482836
3.43985e-05
0.00481028
3.71854e-05
0.00479174
3.97439e-05
0.00477276
4.19218e-05
0.00475335
4.36396e-05
0.00473351
4.49423e-05
0.00471323
4.60181e-05
0.00469249
4.71702e-05
0.00467123
4.87499e-05
0.00464938
5.10792e-05
0.00462684
5.43897e-05
0.00460351
5.87961e-05
0.00457928
6.43058e-05
0.00455404
7.08525e-05
0.00452768
7.83392e-05
0.00450006
8.66757e-05
0.00447107
9.58042e-05
0.00444057
0.000105712
0.00440841
0.000116432
0.00437441
0.000128042
0.00433839
0.000140658
0.00430012
0.000154428
0.00425938
0.000169536
0.00421586
0.000186196
0.00416926
0.000204661
0.0041192
0.000225223
0.00406526
0.000248223
0.00400693
0.000274059
0.00394367
0.0003032
0.00387479
0.000336207
0.00379954
0.000373753
0.003717
0.00041666
0.00362613
0.000465926
0.00352569
0.000522779
0.00341422
0.000588724
0.00329005
0.000665612
0.00315123
0.000755713
0.00299555
0.000861773
0.00282059
0.000987016
0.00262382
0.00113497
0.00240289
0.00130893
0.0021561
0.00151073
0.00188319
0.00173841
0.00158645
0.00198243
0.00127191
0.00222063
0.000950481
0.00241201
0.000638791
0.00248928
0.000357524
0.00235336
0.000123246
0.0018804
0.000840968
0.00482392
5.95308e-05
0.00479836
6.27396e-05
0.00477236
6.57425e-05
0.0047459
6.83826e-05
0.00471896
7.05792e-05
0.00469153
7.238e-05
0.00466356
7.39801e-05
0.00463504
7.56924e-05
0.00460591
7.78794e-05
0.00457612
8.08733e-05
0.00454559
8.49145e-05
0.00451426
9.01251e-05
0.00448205
9.65196e-05
0.00444886
0.00010404
0.0044146
0.000112598
0.00437916
0.000122117
0.00434241
0.000132552
0.00430422
0.000143906
0.00426442
0.000156229
0.00422285
0.000169619
0.00417929
0.000184213
0.00413354
0.000200185
0.00408532
0.000217747
0.00403437
0.000237151
0.00398034
0.000258689
0.00392286
0.000282702
0.0038615
0.000309586
0.00379575
0.000339805
0.00372505
0.000373905
0.00364871
0.00041254
0.00356598
0.000456492
0.00347593
0.000506709
0.00337751
0.000564339
0.00326952
0.000630778
0.00315052
0.000707721
0.00301892
0.000797215
0.00287291
0.000901718
0.00271057
0.00102411
0.00252999
0.0011676
0.00232951
0.00133545
0.00210826
0.00153018
0.00186685
0.00175214
0.00160841
0.00199685
0.00133966
0.00225119
0.00107182
0.00248847
0.000820439
0.00266339
0.00060189
0.00270783
0.000422519
0.00253273
0.000258887
0.00204403
0.00109986
-1.68081e-05
1.6808e-05
1.00107e-10
-4.83859e-06
-1.19704e-05
8.70015e-10
6.23115e-05
-6.71518e-05
1.73851e-09
0.000194252
-0.000131943
2.34993e-09
0.000389121
-0.000194871
2.62288e-09
0.000637646
-0.000248529
2.59205e-09
0.000926567
-0.000288923
2.36611e-09
0.00124121
-0.000314648
2.09181e-09
0.00156738
-0.000326168
1.90449e-09
0.0018926
-0.00032522
1.90254e-09
0.00220686
-0.000314263
2.11372e-09
0.00250287
-0.00029601
2.50565e-09
0.00277593
-0.000273067
3.00489e-09
0.00302363
-0.000247706
3.51839e-09
0.00324537
-0.000221743
3.9608e-09
0.00344187
-0.000196507
4.26533e-09
0.00361474
-0.000172876
4.39176e-09
0.00376609
-0.000151351
4.32878e-09
0.00389823
-0.000132143
4.08452e-09
0.00401348
-0.000115254
3.66545e-09
0.00411403
-0.000100554
3.16252e-09
0.00420187
-8.78428e-05
2.39747e-09
0.00427876
-7.68863e-05
1.77498e-09
0.0043462
-6.74486e-05
1.52116e-09
0.00440551
-5.93082e-05
1.73084e-09
0.00445777
-5.22667e-05
2.60174e-09
0.00450392
-4.6153e-05
3.68189e-09
0.00454474
-4.08218e-05
4.86736e-09
0.00458089
-3.6152e-05
6.11511e-09
0.00461292
-3.20431e-05
7.31284e-09
0.00464133
-2.84121e-05
8.35446e-09
0.00466651
-2.51904e-05
9.16593e-09
0.00468882
-2.23211e-05
9.71741e-09
0.00470856
-1.97568e-05
1.00189e-08
0.00472601
-1.74581e-05
1.01087e-08
0.00474139
-1.53917e-05
1.00413e-08
0.00475491
-1.35298e-05
9.87199e-09
0.00476675
-1.18488e-05
9.64944e-09
0.00477707
-1.03287e-05
9.4106e-09
0.00478602
-8.9525e-06
9.17942e-09
0.00479371
-7.7059e-06
8.97046e-09
0.00480028
-6.57679e-06
8.7918e-09
0.00480583
-5.55526e-06
8.64548e-09
0.00481045
-4.63336e-06
8.53078e-09
0.00481425
-3.80502e-06
8.44663e-09
0.00481731
-3.0658e-06
8.39122e-09
0.00481971
-2.41225e-06
8.36288e-09
0.00482154
-1.84043e-06
8.36057e-09
0.00482288
-1.34333e-06
8.38304e-09
-9.06867e-07
0.00482378
8.42815e-09
-9.4033e-06
2.62113e-05
1.61766e-05
-3.75503e-05
9.61016e-05
-0.000147077
0.000237101
-0.000272942
0.000436049
-0.000393819
0.000683616
-0.000496096
0.000967336
-0.000572643
0.00127375
-0.000621066
0.00158997
-0.000642379
0.00190467
-0.000639927
0.00220878
-0.000618374
0.00249563
-0.000582851
0.00276086
-0.000538299
0.00300219
-0.000489037
0.00321898
-0.000438537
0.00341183
-0.000389358
0.00358217
-0.000343208
0.00373189
-0.000301076
0.00386314
-0.000263391
0.00397807
-0.000230181
0.00407873
-0.000201214
0.004167
-0.000176114
0.00424455
-0.000154438
0.00431284
-0.000135737
0.00437311
-0.000119581
0.00442643
-0.000105588
0.0044737
-9.34253e-05
0.00451569
-8.28101e-05
0.00455304
-7.35048e-05
0.00458631
-6.53123e-05
0.00461597
-5.80694e-05
0.00464242
-5.16406e-05
0.00466601
-4.59134e-05
0.00468705
-4.07941e-05
0.0047058
-3.62041e-05
0.00472248
-3.20777e-05
0.00473731
-2.83593e-05
0.00475047
-2.5002e-05
0.0047621
-2.19659e-05
0.00477237
-1.92171e-05
0.00478139
-1.67268e-05
0.00478928
-1.44708e-05
0.00479616
-1.24292e-05
0.00480211
-1.05858e-05
0.00480723
-8.92841e-06
0.00481161
-7.44781e-06
0.00481534
-6.13679e-06
0.00481849
-4.9873e-06
0.00482113
-3.98525e-06
-3.10283e-06
0.00482332
6.48211e-06
1.97292e-05
5.3742e-05
-8.48102e-05
0.000155524
-0.000248859
0.000311811
-0.000429229
0.000516908
-0.000598916
0.000761576
-0.000740763
0.00103491
-0.00084598
0.00132571
-0.000911861
0.00162341
-0.000940085
0.00191882
-0.00093533
0.00220444
-0.000903995
0.00247469
-0.000853101
0.00272582
-0.00078943
0.00295574
-0.000718958
0.00316373
-0.00064653
0.00335014
-0.000575766
0.00351605
-0.000509119
0.00366302
-0.000448046
0.00379284
-0.000393212
0.00390737
-0.000344711
0.00400842
-0.000302261
0.00409766
-0.000265357
0.00417662
-0.000233395
0.00424662
-0.000205744
0.00430885
-0.000181803
0.00436428
-0.000161026
0.0044138
-0.000142936
0.00445811
-0.000127127
0.00449786
-0.000113253
0.00453357
-0.000101027
0.00456572
-9.02107e-05
0.00459468
-8.06047e-05
0.00462081
-7.20432e-05
0.0046444
-6.43876e-05
0.00466572
-5.75219e-05
0.00468499
-5.13484e-05
0.00470242
-4.57846e-05
0.00471818
-4.07605e-05
0.00473243
-3.62166e-05
0.00474531
-3.21022e-05
0.00475696
-2.8374e-05
0.00476748
-2.49957e-05
0.00477699
-2.19369e-05
0.00478558
-1.91734e-05
0.00479334
-1.6686e-05
0.00480035
-1.44603e-05
0.0048067
-1.24849e-05
0.00481246
-1.07472e-05
0.0048177
-9.22593e-06
-7.8802e-06
0.00482248
2.37432e-05
-4.01397e-06
9.92735e-05
-0.000160341
0.000226912
-0.000376498
0.000399673
-0.00060199
0.000609416
-0.000808659
0.000847466
-0.000978813
0.0011052
-0.00110372
0.00137439
-0.00118105
0.00164744
-0.00121314
0.0019177
-0.00120559
0.00217962
-0.00116591
0.00242886
-0.00110234
0.00266233
-0.0010229
0.00287811
-0.000934744
0.00307535
-0.000843766
0.00325403
-0.000754443
0.00341479
-0.000669883
0.00355873
-0.000591988
0.00368721
-0.000521693
0.00380172
-0.000459213
0.00390373
-0.000404276
0.00399469
-0.000356315
0.00407591
-0.000314616
0.00414859
-0.000278421
0.00421377
-0.00024699
0.00427239
-0.000219645
0.00432525
-0.000195788
0.00437302
-0.000174903
0.00441632
-0.00015655
0.00445565
-0.000140359
0.00449146
-0.000126023
0.00452414
-0.000113282
0.00455402
-0.000101921
0.00458139
-9.17572e-05
0.00460651
-8.26394e-05
0.0046296
-7.44388e-05
0.00465086
-6.70469e-05
0.00467047
-6.03712e-05
0.00468859
-5.43328e-05
0.00470535
-4.88643e-05
0.00472088
-4.3908e-05
0.0047353
-3.94151e-05
0.00474871
-3.5345e-05
0.0047612
-3.16643e-05
0.00477286
-2.83469e-05
0.00478377
-2.53725e-05
0.00479401
-2.27245e-05
0.00480365
-2.03852e-05
0.00481275
-1.83266e-05
-1.64953e-05
0.00482137
4.11075e-05
-4.51215e-05
0.000146499
-0.000265732
0.000297642
-0.000527641
0.000481891
-0.000786239
0.000690039
-0.00101681
0.000915111
-0.00120389
0.00115149
-0.0013401
0.00139426
-0.00142382
0.00163891
-0.00145779
0.0018813
-0.00144797
0.00211766
-0.00140228
0.00234477
-0.00132945
0.00256005
-0.00123818
0.00276163
-0.00113632
0.00294837
-0.00103051
0.00311983
-0.000925903
0.00327614
-0.00082619
0.00341787
-0.000733721
0.00354592
-0.000649742
0.00366136
-0.000574655
0.00376536
-0.000508269
0.00385907
-0.000450026
0.00394362
-0.000399163
0.00402004
-0.000354842
0.00408927
-0.000316229
0.00415217
-0.000282542
0.00420947
-0.000253087
0.00426182
-0.000227253
0.00430979
-0.000204518
0.00435387
-0.00018444
0.00439449
-0.000166646
0.00443203
-0.000150821
0.00446681
-0.000136701
0.00449912
-0.000124065
0.00452921
-0.000112726
0.00455729
-0.000102525
0.00458357
-9.33287e-05
0.00460823
-8.50224e-05
0.0046314
-7.75081e-05
0.00465324
-7.07018e-05
0.00467386
-6.45315e-05
0.00469338
-5.89359e-05
0.0047119
-5.38634e-05
0.00472951
-4.92717e-05
0.00474629
-4.51265e-05
0.00476232
-4.1401e-05
0.00477766
-3.80728e-05
0.0047924
-3.51186e-05
0.00480658
-3.25034e-05
-3.01632e-05
0.00482024
7.15887e-05
-0.00011671
0.000203519
-0.000397662
0.000365748
-0.000689869
0.000546978
-0.00096747
0.000740422
-0.00121025
0.000942182
-0.00140564
0.00114995
-0.00154786
0.00136189
-0.00163576
0.00157608
-0.00167199
0.0017903
-0.00166219
0.00200206
-0.00161404
0.00220879
-0.00153618
0.00240806
-0.00143745
0.0025978
-0.00132606
0.00277644
-0.00120915
0.00294299
-0.00109246
0.00309702
-0.000980218
0.00323856
-0.000875261
0.00336803
-0.000779211
0.00348611
-0.000692734
0.00359364
-0.000615806
0.00369156
-0.000547941
0.00378079
-0.000488393
0.00386224
-0.000436293
0.00393676
-0.000390747
0.00400512
-0.000350904
0.00406802
-0.000315987
0.00412608
-0.00028531
0.00417984
-0.000258278
0.00422978
-0.00023438
0.00427631
-0.000213184
0.00431982
-0.000194323
0.0043606
-0.000177488
0.00439896
-0.000162418
0.00443512
-0.000148891
0.00446932
-0.000136721
0.00450174
-0.000125748
0.00453255
-0.000115837
0.00456191
-0.00010687
0.00458996
-9.87462e-05
0.00461681
-9.13801e-05
0.00464257
-8.46974e-05
0.00466734
-7.86352e-05
0.00469121
-7.31416e-05
0.00471426
-6.8174e-05
0.00473655
-6.36979e-05
0.00475817
-5.96845e-05
0.00477915
-5.6104e-05
0.00479956
-5.29152e-05
-5.00456e-05
0.00481945
0.000114821
-0.000231531
0.000259193
-0.000542035
0.000411111
-0.000841787
0.000569028
-0.00112539
0.000732682
-0.00137391
0.00090195
-0.00157491
0.00107706
-0.00172297
0.00125803
-0.00181673
0.00144426
-0.00185821
0.00163435
-0.00185229
0.00182625
-0.00180593
0.00201746
-0.00172739
0.00220534
-0.00162533
0.00238742
-0.00150814
0.00256163
-0.00138336
0.00272643
-0.00125726
0.00288086
-0.00113464
0.00302447
-0.00101887
0.00315728
-0.000912023
0.00327965
-0.000815106
0.00339218
-0.000728331
0.00349559
-0.000651352
0.00359068
-0.000583488
0.00367826
-0.000523877
0.00375912
-0.000471598
0.00383396
-0.000425747
0.00390346
-0.000385486
0.00396821
-0.000350061
0.00402874
-0.000318809
0.00408552
-0.000291159
0.00413896
-0.000266621
0.00418941
-0.000244779
0.0042372
-0.000225278
0.0042826
-0.000207818
0.00432586
-0.000192145
0.00436718
-0.000178044
0.00440676
-0.000165329
0.00444477
-0.000153845
0.00448135
-0.000143455
0.00451665
-0.000134041
0.00455077
-0.000125503
0.00458383
-0.000117755
0.00461591
-0.000110721
0.00464711
-0.00010434
0.0046775
-9.85598e-05
0.00470714
-9.33384e-05
0.00473609
-8.86392e-05
0.00476441
-8.44259e-05
0.00479215
-8.06515e-05
0.00481935
-7.72399e-05
0.00483479
-1.1025e-05
8.54057e-09
0.00484564
-1.08606e-05
8.79383e-09
0.00485627
-1.06319e-05
9.06266e-09
0.00486653
-1.02743e-05
9.33287e-09
0.00487625
-9.72798e-06
9.58202e-09
0.0048852
-8.96204e-06
9.78011e-09
0.00489319
-7.99694e-06
9.89235e-09
0.00490009
-6.91135e-06
9.88553e-09
0.00490591
-5.82613e-06
9.73673e-09
0.00491077
-4.86974e-06
9.4418e-09
0.0049149
-4.1399e-06
9.01951e-09
0.00491857
-3.67867e-06
8.50727e-09
0.00492203
-3.46959e-06
7.95115e-09
0.00492548
-3.45434e-06
7.39257e-09
0.00492903
-3.55783e-06
6.85817e-09
0.00493273
-3.71049e-06
6.35659e-09
0.00493659
-3.86112e-06
5.88319e-09
0.00494056
-3.97987e-06
5.42832e-09
0.00494461
-4.05471e-06
4.98602e-09
0.00494869
-4.08529e-06
4.55937e-09
0.00495277
-4.07732e-06
4.15795e-09
0.0049568
-4.03855e-06
3.7885e-09
0.00496077
-3.9765e-06
3.44838e-09
0.00496467
-3.89757e-06
3.12765e-09
0.00496847
-3.80676e-06
2.81563e-09
0.00497218
-3.70788e-06
2.50675e-09
0.00497578
-3.60377e-06
2.20337e-09
0.00497927
-3.4965e-06
1.91161e-09
0.00498266
-3.3876e-06
1.63244e-09
0.00498594
-3.27818e-06
1.35951e-09
0.0049891
-3.16905e-06
1.08502e-09
0.00499216
-3.06082e-06
8.07375e-10
0.00499512
-2.95394e-06
5.33349e-10
0.00499797
-2.84876e-06
2.78042e-10
0.00500071
-2.74552e-06
5.99761e-11
0.00500336
-2.64442e-06
-1.11018e-10
0.0050059
-2.54554e-06
-2.42016e-10
0.00500835
-2.44896e-06
-3.54397e-10
0.00501071
-2.3547e-06
-4.74412e-10
0.00501297
-2.26276e-06
-6.18707e-10
0.00501514
-2.17318e-06
-7.78715e-10
0.00501723
-2.08595e-06
-9.36553e-10
0.00501923
-2.00109e-06
-1.07835e-09
0.00502115
-1.91854e-06
-1.21139e-09
0.00502299
-1.83825e-06
-1.37206e-09
0.00502475
-1.76011e-06
-1.58047e-09
0.00502644
-1.68409e-06
-1.84237e-09
0.00502805
-1.61021e-06
-2.14067e-09
0.00502959
-1.53845e-06
-2.45391e-09
0.00503106
-1.46878e-06
-2.77031e-09
0.00503247
-1.40118e-06
-3.07239e-09
0.00503381
-1.33564e-06
-3.32635e-09
0.00503508
-1.27213e-06
-3.52654e-09
0.0050363
-1.21062e-06
-3.68717e-09
0.00503745
-1.15105e-06
-3.79328e-09
0.00503855
-1.09336e-06
-3.86546e-09
0.00503959
-1.03751e-06
-3.93128e-09
0.00504058
-9.83432e-07
-4.04119e-09
0.00504151
-9.31108e-07
-4.19431e-09
0.0050424
-8.80513e-07