/*--------------------------------*- C++ -*----------------------------------*\
| =========                 |                                                 |
| \\      /  F ield         | OpenFOAM: The Open Source CFD Toolbox           |
|  \\    /   O peration     | Version:  2412                                  |
|   \\  /    A nd           | Website:  www.openfoam.com                      |
|    \\/     M anipulation  |                                                 |
\*---------------------------------------------------------------------------*/
FoamFile
{
    version     2.0;
    format      ascii;
    arch        "LSB;label=32;scalar=64";
    class       volVectorField;
    location    "4";
    object      U;
}
// * * * * * * * * * * * * * * * * * * * * * * * * * * * * * * * * * * * * * //

dimensions      [0 1 -1 0 0 0 0];

internalField   nonuniform List<vector> 
63420
(
(0.101073 1.73847e-06 0)
(0.099207 2.41096e-05 0)
(0.100122 2.97734e-05 0)
(0.0994993 2.55436e-05 0)
(0.0994954 1.34037e-05 0)
(0.0994668 5.19513e-06 0)
(0.0994327 1.83355e-06 0)
(0.0994325 1.58784e-06 0)
(0.0994221 2.77156e-06 0)
(0.0994034 4.22402e-06 0)
(0.0993793 5.50808e-06 0)
(0.0993501 6.54898e-06 0)
(0.0993171 7.38724e-06 0)
(0.0992814 8.08769e-06 0)
(0.0992434 8.70568e-06 0)
(0.0992037 9.28093e-06 0)
(0.0991623 9.84035e-06 0)
(0.0991193 1.04021e-05 0)
(0.0990749 1.09782e-05 0)
(0.099029 1.15769e-05 0)
(0.0989815 1.22046e-05 0)
(0.0989324 1.28661e-05 0)
(0.0988817 1.35652e-05 0)
(0.0988294 1.43048e-05 0)
(0.0987752 1.50875e-05 0)
(0.0987192 1.59161e-05 0)
(0.0986614 1.6793e-05 0)
(0.0986015 1.7721e-05 0)
(0.0985396 1.87026e-05 0)
(0.0984755 1.97407e-05 0)
(0.0984092 2.08379e-05 0)
(0.0983407 2.19974e-05 0)
(0.0982697 2.32221e-05 0)
(0.0981963 2.45155e-05 0)
(0.0981203 2.58814e-05 0)
(0.0980417 2.73239e-05 0)
(0.0979603 2.88476e-05 0)
(0.0978761 3.04572e-05 0)
(0.0977889 3.21583e-05 0)
(0.0976987 3.39568e-05 0)
(0.0976054 3.58594e-05 0)
(0.0975087 3.78735e-05 0)
(0.0974086 4.00078e-05 0)
(0.097305 4.22722e-05 0)
(0.0971977 4.46784e-05 0)
(0.0970864 4.72399e-05 0)
(0.0969711 4.99729e-05 0)
(0.0968515 5.2897e-05 0)
(0.0967274 5.60354e-05 0)
(0.0965984 5.94157e-05 0)
(0.0964643 6.30674e-05 0)
(0.0963247 6.70165e-05 0)
(0.0961792 7.12709e-05 0)
(0.0960275 7.58041e-05 0)
(0.0958694 8.05503e-05 0)
(0.101073 5.15e-06 0)
(0.0992081 7.18674e-05 0)
(0.100126 8.86236e-05 0)
(0.0995068 7.62901e-05 0)
(0.0995028 4.02238e-05 0)
(0.0994735 1.58607e-05 0)
(0.0994377 5.86396e-06 0)
(0.0994361 5.10726e-06 0)
(0.0994246 8.60423e-06 0)
(0.0994052 1.29057e-05 0)
(0.0993806 1.67131e-05 0)
(0.0993511 1.98043e-05 0)
(0.099318 2.22988e-05 0)
(0.0992821 2.43876e-05 0)
(0.0992442 2.62343e-05 0)
(0.0992044 2.79557e-05 0)
(0.099163 2.96313e-05 0)
(0.0991201 3.13142e-05 0)
(0.0990757 3.30403e-05 0)
(0.0990298 3.48349e-05 0)
(0.0989823 3.67163e-05 0)
(0.0989333 3.86988e-05 0)
(0.0988827 4.07932e-05 0)
(0.0988304 4.30088e-05 0)
(0.0987763 4.53538e-05 0)
(0.0987204 4.78359e-05 0)
(0.0986626 5.04628e-05 0)
(0.0986028 5.32422e-05 0)
(0.0985409 5.61819e-05 0)
(0.098477 5.929e-05 0)
(0.0984108 6.25749e-05 0)
(0.0983423 6.60457e-05 0)
(0.0982715 6.97118e-05 0)
(0.0981982 7.35837e-05 0)
(0.0981223 7.76723e-05 0)
(0.0980438 8.19901e-05 0)
(0.0979626 8.65502e-05 0)
(0.0978785 9.13672e-05 0)
(0.0977916 9.64572e-05 0)
(0.0977015 0.000101838 0)
(0.0976084 0.000107529 0)
(0.0975119 0.000113554 0)
(0.0974121 0.000119937 0)
(0.0973087 0.000126708 0)
(0.0972017 0.000133902 0)
(0.0970908 0.000141559 0)
(0.0969758 0.000149726 0)
(0.0968566 0.000158462 0)
(0.0967329 0.000167834 0)
(0.0966045 0.000177925 0)
(0.096471 0.000188821 0)
(0.0963321 0.000200599 0)
(0.0961874 0.000213282 0)
(0.0960367 0.000226794 0)
(0.0958796 0.000240942 0)
(0.101073 8.36558e-06 0)
(0.0992105 0.000118387 0)
(0.100135 0.000145715 0)
(0.0995224 0.0001263 0)
(0.0995177 6.71865e-05 0)
(0.0994869 2.72657e-05 0)
(0.0994478 1.07658e-05 0)
(0.0994433 9.36733e-06 0)
(0.0994297 1.49826e-05 0)
(0.0994088 2.19555e-05 0)
(0.0993833 2.8153e-05 0)
(0.0993532 3.32038e-05 0)
(0.0993198 3.72949e-05 0)
(0.0992837 4.07333e-05 0)
(0.0992457 4.37831e-05 0)
(0.0992059 4.66334e-05 0)
(0.0991645 4.94129e-05 0)
(0.0991216 5.22079e-05 0)
(0.0990773 5.50771e-05 0)
(0.0990315 5.80617e-05 0)
(0.0989841 6.11918e-05 0)
(0.0989352 6.44904e-05 0)
(0.0988847 6.79756e-05 0)
(0.0988325 7.16625e-05 0)
(0.0987786 7.55648e-05 0)
(0.0987228 7.96954e-05 0)
(0.0986651 8.40669e-05 0)
(0.0986055 8.86919e-05 0)
(0.0985438 9.35833e-05 0)
(0.09848 9.87544e-05 0)
(0.098414 0.000104219 0)
(0.0983458 0.000109993 0)
(0.0982751 0.000116091 0)
(0.0982021 0.000122531 0)
(0.0981265 0.000129331 0)
(0.0980482 0.000136512 0)
(0.0979673 0.000144094 0)
(0.0978836 0.000152102 0)
(0.0977969 0.000160563 0)
(0.0977073 0.000169505 0)
(0.0976145 0.000178962 0)
(0.0975185 0.00018897 0)
(0.0974192 0.000199571 0)
(0.0973163 0.000210813 0)
(0.0972098 0.000222752 0)
(0.0970996 0.000235453 0)
(0.0969853 0.000248995 0)
(0.0968669 0.000263468 0)
(0.0967441 0.000278984 0)
(0.0966167 0.000295672 0)
(0.0964844 0.000313673 0)
(0.0963469 0.000333108 0)
(0.0962039 0.000354015 0)
(0.096055 0.000376273 0)
(0.0959001 0.000399575 0)
(0.101073 1.11763e-05 0)
(0.0992146 0.000162738 0)
(0.100149 0.000199831 0)
(0.0995463 0.000175176 0)
(0.0995404 9.44731e-05 0)
(0.099507 3.99566e-05 0)
(0.0994629 1.71384e-05 0)
(0.099454 1.48565e-05 0)
(0.0994373 2.22572e-05 0)
(0.0994143 3.16054e-05 0)
(0.0993874 3.99734e-05 0)
(0.0993566 4.68352e-05 0)
(0.0993226 5.2426e-05 0)
(0.0992864 5.71509e-05 0)
(0.0992482 6.13624e-05 0)
(0.0992083 6.53136e-05 0)
(0.099167 6.91772e-05 0)
(0.0991242 7.30696e-05 0)
(0.0990799 7.70703e-05 0)
(0.0990342 8.12354e-05 0)
(0.098987 8.56057e-05 0)
(0.0989383 9.02126e-05 0)
(0.0988879 9.50808e-05 0)
(0.0988359 0.000100231 0)
(0.0987822 0.000105683 0)
(0.0987266 0.000111453 0)
(0.0986692 0.00011756 0)
(0.0986098 0.000124021 0)
(0.0985484 0.000130854 0)
(0.0984849 0.000138076 0)
(0.0984192 0.000145709 0)
(0.0983512 0.000153771 0)
(0.0982809 0.000162286 0)
(0.0982082 0.000171277 0)
(0.098133 0.000180769 0)
(0.0980552 0.000190791 0)
(0.0979747 0.000201372 0)
(0.0978914 0.000212545 0)
(0.0978053 0.000224346 0)
(0.0977162 0.000236817 0)
(0.097624 0.00025 0)
(0.0975287 0.000263947 0)
(0.09743 0.000278715 0)
(0.097328 0.000294368 0)
(0.0972223 0.000310983 0)
(0.097113 0.000328647 0)
(0.0969998 0.000347463 0)
(0.0968826 0.000367554 0)
(0.0967612 0.000389066 0)
(0.0966353 0.000412172 0)
(0.0965047 0.000437054 0)
(0.0963692 0.00046387 0)
(0.0962286 0.000492673 0)
(0.0960824 0.000523304 0)
(0.0959307 0.000555368 0)
(0.101072 1.32504e-05 0)
(0.0992207 0.000204043 0)
(0.100168 0.000249663 0)
(0.0995785 0.000222669 0)
(0.0995702 0.000122341 0)
(0.0995333 5.45041e-05 0)
(0.0994826 2.55757e-05 0)
(0.099468 2.20367e-05 0)
(0.0994473 3.07494e-05 0)
(0.0994215 4.20638e-05 0)
(0.099393 5.23024e-05 0)
(0.0993611 6.07746e-05 0)
(0.0993266 6.77344e-05 0)
(0.09929 7.36613e-05 0)
(0.0992517 7.89786e-05 0)
(0.0992118 8.39927e-05 0)
(0.0991705 8.89136e-05 0)
(0.0991278 9.38835e-05 0)
(0.0990837 9.9e-05 0)
(0.0990382 0.000104332 0)
(0.0989912 0.000109931 0)
(0.0989426 0.000115835 0)
(0.0988925 0.000122076 0)
(0.0988408 0.000128679 0)
(0.0987873 0.000135669 0)
(0.098732 0.000143068 0)
(0.0986749 0.000150898 0)
(0.0986158 0.000159181 0)
(0.0985547 0.000167939 0)
(0.0984916 0.000177197 0)
(0.0984263 0.000186979 0)
(0.0983587 0.000197311 0)
(0.0982889 0.000208221 0)
(0.0982167 0.000219739 0)
(0.098142 0.000231897 0)
(0.0980647 0.00024473 0)
(0.0979848 0.000258276 0)
(0.0979022 0.000272577 0)
(0.0978167 0.000287678 0)
(0.0977284 0.000303629 0)
(0.097637 0.000320486 0)
(0.0975425 0.000338311 0)
(0.0974448 0.000357176 0)
(0.0973438 0.000377159 0)
(0.0972393 0.000398354 0)
(0.0971312 0.000420868 0)
(0.0970195 0.000444824 0)
(0.0969038 0.000470372 0)
(0.0967841 0.000497686 0)
(0.0966602 0.000526967 0)
(0.0965319 0.000558433 0)
(0.096399 0.000592268 0)
(0.0962613 0.000628532 0)
(0.0961187 0.00066704 0)
(0.0959709 0.000707329 0)
(0.101072 1.41988e-05 0)
(0.0992286 0.000241443 0)
(0.100192 0.000294068 0)
(0.0996179 0.000268597 0)
(0.099606 0.000151099 0)
(0.0995648 7.14391e-05 0)
(0.099506 3.66048e-05 0)
(0.0994846 3.13059e-05 0)
(0.0994593 4.0728e-05 0)
(0.0994304 5.35012e-05 0)
(0.0993999 6.52432e-05 0)
(0.0993669 7.50812e-05 0)
(0.0993317 8.3252e-05 0)
(0.0992947 9.02782e-05 0)
(0.0992563 9.66336e-05 0)
(0.0992164 0.000102664 0)
(0.0991752 0.00010861 0)
(0.0991326 0.000114632 0)
(0.0990887 0.000120845 0)
(0.0990433 0.000127328 0)
(0.0989966 0.000134141 0)
(0.0989483 0.000141329 0)
(0.0988985 0.000148928 0)
(0.098847 0.00015697 0)
(0.0987939 0.000165483 0)
(0.098739 0.000174495 0)
(0.0986822 0.000184032 0)
(0.0986236 0.000194119 0)
(0.0985629 0.000204785 0)
(0.0985002 0.000216058 0)
(0.0984354 0.000227966 0)
(0.0983684 0.000240542 0)
(0.0982991 0.000253819 0)
(0.0982275 0.000267833 0)
(0.0981534 0.000282623 0)
(0.0980769 0.00029823 0)
(0.0979977 0.0003147 0)
(0.0979159 0.000332081 0)
(0.0978313 0.000350428 0)
(0.0977439 0.0003698 0)
(0.0976535 0.000390263 0)
(0.0975601 0.00041189 0)
(0.0974636 0.000434763 0)
(0.0973638 0.000458975 0)
(0.0972608 0.000484632 0)
(0.0971542 0.000511856 0)
(0.0970441 0.000540789 0)
(0.0969304 0.000571597 0)
(0.0968128 0.000604473 0)
(0.0966913 0.000639641 0)
(0.0965657 0.000677336 0)
(0.0964359 0.000717758 0)
(0.0963018 0.000760968 0)
(0.0961633 0.000806752 0)
(0.0960202 0.000854591 0)
(0.101073 1.42364e-05 0)
(0.0992376 0.000272883 0)
(0.100219 0.000333439 0)
(0.0996623 0.000312239 0)
(0.0996454 0.000181152 0)
(0.0995997 9.11957e-05 0)
(0.099532 5.05727e-05 0)
(0.0995031 4.29575e-05 0)
(0.0994727 5.23842e-05 0)
(0.0994404 6.60345e-05 0)
(0.0994078 7.88665e-05 0)
(0.0993735 8.97952e-05 0)
(0.0993376 9.89986e-05 0)
(0.0993003 0.000107008 0)
(0.0992617 0.000114325 0)
(0.0992218 0.000121319 0)
(0.0991807 0.000128251 0)
(0.0991383 0.000135298 0)
(0.0990945 0.000142584 0)
(0.0990495 0.000150198 0)
(0.099003 0.000158207 0)
(0.0989551 0.000166661 0)
(0.0989056 0.000175602 0)
(0.0988545 0.000185067 0)
(0.0988018 0.000195087 0)
(0.0987473 0.000205693 0)
(0.098691 0.000216916 0)
(0.0986329 0.000228787 0)
(0.0985728 0.000241337 0)
(0.0985106 0.000254599 0)
(0.0984464 0.000268606 0)
(0.09838 0.000283396 0)
(0.0983114 0.000299006 0)
(0.0982405 0.000315479 0)
(0.0981672 0.000332859 0)
(0.0980915 0.000351194 0)
(0.0980132 0.000370536 0)
(0.0979323 0.000390941 0)
(0.0978488 0.000412471 0)
(0.0977624 0.000435192 0)
(0.0976733 0.00045918 0)
(0.0975812 0.000484516 0)
(0.097486 0.000511292 0)
(0.0973878 0.000539612 0)
(0.0972864 0.000569592 0)
(0.0971817 0.000601365 0)
(0.0970736 0.000635083 0)
(0.0969621 0.000670925 0)
(0.096847 0.000709094 0)
(0.0967282 0.000749823 0)
(0.0966058 0.000793354 0)
(0.0964795 0.000839887 0)
(0.0963495 0.000889475 0)
(0.0962155 0.000941872 0)
(0.0960777 0.000996464 0)
(0.0957042 8.54705e-05 -5.46531e-24)
(0.0955313 9.00336e-05 -5.56081e-24)
(0.0953503 9.38777e-05 -3.49607e-26)
(0.0951632 9.66497e-05 1.70458e-23)
(0.0949722 9.81681e-05 -5.64886e-24)
(0.09478 9.84722e-05 -5.79875e-24)
(0.0945886 9.80617e-05 -1.78161e-23)
(0.0943988 9.76554e-05 1.76982e-23)
(0.0942098 9.80381e-05 6.04232e-24)
(0.0940192 9.99252e-05 0)
(0.0938229 0.000103884 6.22528e-24)
(0.0936166 0.000110769 -6.3239e-24)
(0.093396 0.000120109 5.1912e-23)
(0.0931563 0.000131629 -1.11182e-22)
(0.0928936 0.000145022 5.93843e-23)
(0.0926048 0.00015999 4.79962e-23)
(0.0922873 0.000176302 6.1591e-23)
(0.0919388 0.000193835 -7.04098e-24)
(0.0915572 0.000212576 7.18584e-24)
(0.0911404 0.000232617 -7.33946e-24)
(0.0906859 0.000254135 0)
(0.0901909 0.00027738 7.67576e-24)
(0.0896523 0.000302662 -7.86006e-24)
(0.089066 0.000330352 0)
(0.0884274 0.000360879 -8.26572e-24)
(0.0877311 0.000394739 0)
(0.0869707 0.000432505 -8.72842e-24)
(0.0861387 0.000474845 -1.46116e-22)
(0.0852264 0.000522548 1.55152e-22)
(0.0842235 0.000576558 -1.55604e-22)
(0.083118 0.000638022 1.55367e-22)
(0.0818955 0.000708351 0)
(0.080539 0.000789296 0)
(0.0790279 0.000883046 1.90492e-22)
(0.0773375 0.000992359 -1.79235e-22)
(0.0754377 0.00112073 0)
(0.0732914 0.00127261 0)
(0.0708527 0.00145366 0)
(0.0680647 0.00167095 0)
(0.0648569 0.00193303 0)
(0.0611425 0.00224934 0)
(0.0568179 0.00262841 0)
(0.0517664 0.00307369 0)
(0.0458721 0.00357579 0)
(0.0390513 0.00410001 -1.82597e-23)
(0.0313111 0.00456939 -6.32455e-22)
(0.0228192 0.00484644 6.31507e-22)
(0.0140158 0.00471818 6.91095e-22)
(0.00605323 0.00386673 -6.90058e-22)
(0.00124359 0.00181818 0)
(0.0957156 0.00025563 -5.52242e-24)
(0.0955435 0.000269303 -1.1242e-23)
(0.0953634 0.000280849 -5.86855e-24)
(0.0951768 0.000289143 5.49904e-24)
(0.0949859 0.000293607 -5.71993e-24)
(0.0947929 0.000294725 4.09052e-23)
(0.0945998 0.000293741 -6.42395e-23)
(0.0944073 0.000292828 5.95563e-24)
(0.0942144 0.00029458 7.93214e-23)
(0.0940192 0.000301254 -1.09563e-22)
(0.0938185 0.000314351 -1.06717e-22)
(0.0936078 0.000334996 9.40355e-23)
(0.0933823 0.000362818 0)
(0.0931382 0.000397113 6.54372e-24)
(0.0928716 0.000436981 -1.99737e-23)
(0.0925797 0.000481545 -2.26073e-22)
(0.0922596 0.000530138 2.1669e-22)
(0.0919093 0.000582405 -2.3035e-22)
(0.0915265 0.000638325 -2.15912e-23)
(0.091109 0.000698178 7.35555e-24)
(0.0906543 0.000762497 0)
(0.0901597 0.00083203 -7.69564e-24)
(0.0896218 0.000907708 -2.47626e-22)
(0.0890368 0.000990635 5.17234e-22)
(0.0883999 0.0010821 2.84708e-22)
(0.087706 0.00118358 -5.37414e-22)
(0.0869485 0.00129679 5.77853e-22)
(0.0861203 0.00142372 -5.86352e-22)
(0.0852126 0.00156675 -9.29595e-24)
(0.0842155 0.00172868 0)
(0.0831171 0.00191295 0)
(0.0819035 0.00212378 0)
(0.0805581 0.00236638 0)
(0.0790611 0.0026473 -1.10387e-23)
(0.0773886 0.00297473 -7.49467e-22)
(0.0755117 0.00335908 -3.25479e-23)
(0.073395 0.00381358 7.79982e-22)
(0.0709952 0.00435501 8.52479e-22)
(0.0682583 0.00500432 -8.5135e-22)
(0.0651181 0.00578669 -2.84094e-23)
(0.0614931 0.00672983 -2.97899e-23)
(0.0572858 0.00785841 -1.03412e-21)
(0.0523856 0.00918155 9.99939e-22)
(0.0466794 0.0106696 -3.44189e-23)
(0.0400786 0.0122176 1.83874e-23)
(0.0325684 0.0135953 -1.28719e-21)
(0.0242703 0.0143931 1.28694e-21)
(0.0155413 0.0139797 -2.70337e-21)
(0.00736943 0.0114242 2.65812e-21)
(0.001787 0.00533273 -2.72299e-21)
(0.0957382 0.000423832 -3.26997e-23)
(0.0955678 0.000446624 -1.14217e-23)
(0.0953891 0.000466158 4.41919e-23)
(0.0952035 0.000480654 -9.0687e-23)
(0.0950127 0.000489178 1.93924e-22)
(0.0948186 0.000492391 -9.18089e-23)
(0.0946225 0.000492335 1.49073e-26)
(0.0944253 0.000492465 1.18822e-23)
(0.0942263 0.000496891 2.06751e-22)
(0.0940235 0.00050932 -1.94478e-22)
(0.0938139 0.000532271 0)
(0.0935939 0.000566666 1.509e-26)
(0.0933597 0.000612568 0)
(0.0931075 0.000668978 2.24687e-22)
(0.0928341 0.000734477 -1.98053e-22)
(0.0925364 0.000807691 -4.25834e-22)
(0.092212 0.00088759 2.30788e-23)
(0.0918584 0.000973652 -4.47808e-22)
(0.0914736 0.00106589 1.44482e-23)
(0.0910551 0.00116478 -4.77911e-22)
(0.0906005 0.00127124 4.92545e-22)
(0.0901068 0.00138649 -5.00813e-22)
(0.0895708 0.00151207 5.16162e-22)
(0.0889886 0.00164983 1.62243e-23)
(0.0883556 0.00180186 -1.66537e-23)
(0.0876666 0.00197065 1.71116e-23)
(0.0869154 0.00215901 -5.72425e-22)
(0.0860949 0.00237027 5.90038e-22)
(0.0851969 0.00260834 6.27165e-22)
(0.0842117 0.00287789 -6.07907e-22)
(0.083128 0.0031846 0)
(0.0819326 0.00353545 0)
(0.08061 0.00393904 2.13618e-23)
(0.0791416 0.00440614 1.47248e-21)
(0.0775055 0.00495024 3.65771e-23)
(0.0756751 0.00558838 -1.48316e-21)
(0.0736186 0.00634217 0)
(0.0712971 0.00723892 -2.60349e-23)
(0.0686634 0.00831257 1.81919e-21)
(0.0656595 0.0096036 -3.63843e-21)
(0.0622147 0.0111559 3.87256e-21)
(0.0582439 0.0130075 1.28063e-22)
(0.0536481 0.0151694 -2.0272e-21)
(0.04832 0.0175877 -2.22354e-21)
(0.0421594 0.0200845 2.29158e-21)
(0.0351063 0.0222795 1.68116e-24)
(0.0271876 0.0235011 -3.95298e-23)
(0.0185962 0.0227164 2.615e-21)
(0.00997826 0.0184472 -2.53216e-21)
(0.00282966 0.00853015 -2.52986e-21)
(0.0957717 0.000588895 2.15583e-23)
(0.095604 0.000620809 -1.09253e-23)
(0.0954279 0.000648683 2.10697e-26)
(0.095244 0.000670278 1.12139e-23)
(0.0950538 0.000684405 -2.15944e-26)
(0.0948583 0.000691603 1.85708e-22)
(0.0946587 0.00069471 -3.50693e-22)
(0.0944554 0.000698193 1.88356e-22)
(0.094248 0.000707204 -1.2036e-23)
(0.094035 0.000726521 2.22006e-22)
(0.0938141 0.000759604 -1.97457e-22)
(0.0935825 0.000807991 -4.08701e-22)
(0.0933372 0.00087165 8.24674e-22)
(0.0930749 0.000949333 -8.39821e-22)
(0.0927928 0.00103926 8.55735e-22)
(0.0924882 0.00113971 -8.58919e-22)
(0.0921584 0.00124943 -4.5442e-22)
(0.0918013 0.00136784 2.12914e-26)
(0.0914145 0.00149504 0)
(0.0909955 0.00163175 -4.6555e-22)
(0.0905417 0.00177925 4.80183e-22)
(0.0900503 0.00193925 0)
(0.0895178 0.00211389 -1.03373e-21)
(0.0889405 0.00230569 1.01698e-21)
(0.088314 0.0025176 1.68122e-23)
(0.0876332 0.00275301 -3.41693e-26)
(0.0868923 0.00301588 1.77511e-23)
(0.0860844 0.00331079 0)
(0.0852018 0.00364318 -4.93125e-26)
(0.0842355 0.00401955 0)
(0.083175 0.00444775 -2.01203e-23)
(0.0820083 0.00493742 1.36e-21)
(0.0807212 0.00550046 -1.35961e-21)
(0.0792974 0.00615163 -2.2493e-23)
(0.0777175 0.00690943 4.66209e-23)
(0.0759588 0.00779711 -1.61003e-21)
(0.0739945 0.008844 1.55997e-21)
(0.0717929 0.0100869 2.6485e-23)
(0.0693164 0.0115714 -3.62048e-25)
(0.0665197 0.0133508 2.84884e-23)
(0.0633484 0.0154821 -1.96685e-21)
(0.0597359 0.0180119 3.98767e-21)
(0.0556004 0.0209475 -2.08468e-21)
(0.0508423 0.0242048 2.1856e-21)
(0.0453431 0.0275312 -2.28833e-21)
(0.0389724 0.0304039 -4.60537e-21)
(0.0316072 0.031913 9.41261e-21)
(0.0231964 0.0306535 -4.77381e-21)
(0.0139275 0.0246578 0)
(0.00437449 0.0112644 -4.48051e-21)
(0.0958159 0.000749671 -1.06938e-23)
(0.0956516 0.000790586 -4.36098e-23)
(0.0954787 0.000826999 1.32091e-22)
(0.0952976 0.000856293 -1.78178e-22)
(0.0951087 0.000877076 7.8435e-23)
(0.0949125 0.000890076 1.14778e-23)
(0.0947096 0.000898557 -1.16548e-23)
(0.0945003 0.000907748 -2.6591e-26)
(0.0942842 0.000923708 1.20337e-23)
(0.0940605 0.000952004 -2.4448e-23)
(0.0938277 0.000996637 -4.01522e-22)
(0.093584 0.00105952 4.14377e-22)
(0.093327 0.00114064 -4.03703e-22)
(0.0930544 0.00123864 4.16751e-22)
(0.0927635 0.00135159 0)
(0.092452 0.00147761 -2.38182e-26)
(0.0921174 0.00161539 0)
(0.0917574 0.00176439 -4.47534e-22)
(0.0913696 0.0019249 4.76614e-22)
(0.0909515 0.0020979 -1.49501e-23)
(0.0905003 0.00228504 -1.00643e-21)
(0.0900132 0.00248852 9.91565e-22)
(0.0894868 0.00271102 -1.61016e-23)
(0.0889175 0.00295575 0)
(0.088301 0.00322642 0)
(0.0876327 0.00352734 -1.15152e-21)
(0.0869069 0.00386354 1.11655e-21)
(0.0861175 0.00424083 0)
(0.0852573 0.00466612 -3.82647e-23)
(0.0843183 0.00514764 0)
(0.0832911 0.00569533 2.04733e-23)
(0.0821652 0.00632136 -2.1124e-23)
(0.0809285 0.00704065 -2.19851e-23)
(0.0795673 0.00787171 2.27041e-23)
(0.0780659 0.00883752 1.49557e-21)
(0.0764067 0.00996684 -1.54356e-21)
(0.0745697 0.0112957 3.36823e-21)
(0.0725326 0.0128689 -3.37052e-21)
(0.0702707 0.0147413 3.60024e-21)
(0.067756 0.0169761 1.19898e-22)
(0.0649555 0.0196389 -3.81047e-21)
(0.0618276 0.0227794 -3.07831e-23)
(0.0583134 0.0263951 1.32864e-24)
(0.0543227 0.030368 1.80536e-24)
(0.0497139 0.0343728 2.45146e-24)
(0.0442651 0.0377609 -6.84221e-23)
(0.037653 0.0394265 -3.16796e-23)
(0.0294868 0.0376512 -3.01412e-23)
(0.0193675 0.0300071 0)
(0.00644238 0.0135183 9.17982e-24)
(0.0958698 0.000905114 -5.30674e-23)
(0.0957096 0.000954817 3.19212e-23)
(0.0955409 0.000999995 1.08986e-23)
(0.0953635 0.00103778 1.67e-22)
(0.0951771 0.00106667 -1.67077e-22)
(0.0949815 0.00108752 1.72393e-22)
(0.0947767 0.00110389 -3.82445e-22)
(0.0945627 0.00112149 5.43656e-22)
(0.0943394 0.00114696 -3.8065e-22)
(0.0941066 0.00118636 -3.93874e-22)
(0.0938635 0.00124406 -1.92614e-23)
(0.0936091 0.00132219 7.98329e-22)
(0.093342 0.00142082 -8.39869e-22)
(0.0930605 0.00153861 3.91506e-22)
(0.0927624 0.00167363 4.21451e-22)
(0.0924457 0.00182406 4.39537e-22)
(0.0921081 0.0019887 -3.28118e-23)
(0.0917471 0.00216718 8.95837e-22)
(0.0913605 0.00236002 9.22998e-22)
(0.0909455 0.00256855 2.2265e-23)
(0.0904997 0.0027948 -9.77493e-22)
(0.0900199 0.00304145 0)
(0.0895032 0.00331175 0)
(0.0889459 0.00360955 -1.08564e-21)
(0.0883442 0.00393936 1.07005e-21)
(0.0876937 0.00430639 1.15114e-21)
(0.0869895 0.0047167 -1.15285e-21)
(0.0862259 0.00517736 0)
(0.0853969 0.00569672 1.28564e-21)
(0.0844954 0.00628473 -1.28813e-21)
(0.0835137 0.00695338 0)
(0.0824431 0.00771724 -2.7893e-21)
(0.0812743 0.00859414 2.81512e-21)
(0.0799967 0.00960596 -2.32769e-23)
(0.0785995 0.0107797 -3.1225e-21)
(0.0770712 0.0121486 3.15143e-21)
(0.0754003 0.0137539 0)
(0.0735765 0.0156458 3.56588e-21)
(0.0715908 0.017884 -3.54398e-21)
(0.0694367 0.0205353 2.89742e-23)
(0.0671088 0.0236641 3.97358e-21)
(0.0645967 0.0273109 -8.00306e-21)
(0.0618713 0.0314491 -1.10882e-23)
(0.0588583 0.0359148 8.6401e-24)
(0.0553938 0.040308 4.2395e-21)
(0.0511601 0.0438772 4.37697e-24)
(0.0456087 0.0453861 -3.70249e-21)
(0.0379178 0.042929 3.79548e-21)
(0.0268227 0.0338177 0)
(0.00932724 0.0149549 3.36352e-23)
(0.0959325 0.00105426 1.04584e-23)
(0.0957771 0.00111219 9.61958e-23)
(0.0956135 0.00116598 -8.57825e-23)
(0.0954409 0.00121264 1.09891e-23)
(0.0952584 0.00125065 1.68624e-22)
(0.0950652 0.00128091 -1.68907e-22)
(0.0948609 0.00130714 -3.60901e-22)
(0.0946451 0.00133532 5.87899e-24)
(0.0944178 0.00137233 -6.20767e-24)
(0.0941791 0.0014245 3.99794e-22)
(0.0939291 0.00149635 -3.89541e-22)
(0.0936675 0.00159016 8.26096e-22)
(0.0933936 0.00170612 -4.11377e-22)
(0.0931064 0.00184304 1.32698e-23)
(0.0928043 0.00199913 1.3563e-23)
(0.0924854 0.0021728 8.95758e-22)
(0.0921478 0.00236309 -4.7856e-24)
(0.091789 0.00256993 9.33933e-22)
(0.0914068 0.00279418 1.48981e-23)
(0.0909988 0.00303756 0)
(0.0905621 0.00330254 0)
(0.0900943 0.00359231 -1.04261e-21)
(0.0895922 0.00391072 1.04524e-21)
(0.0890526 0.00426232 0)
(0.0884722 0.00465242 1.75442e-23)
(0.0878471 0.00508722 0)
(0.087173 0.00557388 -1.21022e-21)
(0.0864455 0.00612081 2.46349e-21)
(0.0856594 0.00673792 -1.25336e-21)
(0.0848094 0.00743701 -2.6557e-21)
(0.0838895 0.00823226 -8.97134e-23)
(0.0828936 0.00914083 -9.5448e-23)
(0.0818155 0.0101836 -1.01328e-22)
(0.080649 0.0113858 2.9903e-21)
(0.0793885 0.0127785 3.21773e-21)
(0.0780297 0.014399 -3.2254e-21)
(0.0765709 0.0162925 0)
(0.0750144 0.0185121 3.60295e-21)
(0.0733686 0.0211175 -3.61131e-21)
(0.0716494 0.0241694 -3.87942e-21)
(0.0698801 0.0277157 3.85817e-21)
(0.0680842 0.0317629 3.18071e-23)
(0.0662673 0.0362265 3.98533e-21)
(0.0643802 0.0408564 -8.88965e-23)
(0.0622573 0.0451424 -3.97828e-21)
(0.0595217 0.0482236 3.05718e-23)
(0.0554631 0.0488164 0)
(0.0489218 0.0450933 -2.44751e-23)
(0.0375706 0.0346452 -1.19739e-21)
(0.0149928 0.0148119 5.29904e-22)
(-0.000231604 0.000182902 0)
(-0.000392275 -9.81004e-05 2.62756e-22)
(0.000283879 -0.000664852 -2.6315e-22)
(0.00209927 -0.0013326 -2.22417e-22)
(0.00510896 -0.00198273 2.22751e-22)
(0.00920029 -0.00253802 -5.76445e-24)
(0.0141602 -0.00295663 0)
(0.0197311 -0.00322384 0)
(0.0256491 -0.00334464 0)
(0.0316714 -0.00333735 0)
(0.0375935 -0.00322771 0)
(0.0432583 -0.00304391 0)
(0.0485567 -0.00281284 0)
(0.0534242 -0.00255776 0)
(0.057833 -0.00229712 0)
(0.0617841 -0.00204432 8.06256e-24)
(0.0652983 -0.00180813 -7.57359e-24)
(0.0684089 -0.00159349 0)
(0.0711555 -0.00140237 0)
(0.0735797 -0.0012347 -6.99022e-24)
(0.0757217 -0.00108909 7.0009e-24)
(0.0776188 -0.000963426 -7.01593e-24)
(0.0793045 -0.00085533 4.88142e-25)
(0.080808 -0.000762397 0)
(0.0821543 -0.000682385 5.22575e-25)
(0.0833648 -0.000613294 0)
(0.0844575 -0.000553396 0)
(0.0854476 -0.000501237 0)
(0.0863479 -0.000455606 5.76264e-25)
(0.0871695 -0.000415503 0)
(0.0879215 -0.000380099 -5.92561e-25)
(0.0886118 -0.000348715 5.98205e-25)
(0.0892473 -0.000320787 -6.02331e-25)
(0.0898339 -0.000295846 5.43116e-24)
(0.0903766 -0.000273504 -5.44009e-24)
(0.0908799 -0.000253435 -4.22838e-24)
(0.0913478 -0.000235364 9.06383e-24)
(0.0917837 -0.000219061 -4.83472e-24)
(0.0921906 -0.00020433 -6.01974e-25)
(0.0925714 -0.000191006 5.98761e-25)
(0.0929285 -0.000178948 0)
(0.0932641 -0.000168039 5.9046e-25)
(0.0935803 -0.000158184 -2.91245e-24)
(0.0938789 -0.000149305 2.9107e-24)
(0.0941617 -0.000141345 -5.74379e-25)
(0.0944304 -0.000134262 1.69678e-24)
(0.0946867 -0.000128026 -5.68343e-25)
(0.094932 -0.000122599 -1.10649e-24)
(0.0951679 -0.000117913 5.52045e-25)
(0.0953956 -0.000113828 -5.41604e-25)
(-0.000182254 0.000464244 -1.10401e-21)
(-5.02355e-05 -0.000449289 -1.11453e-21)
(0.00113982 -0.00213064 1.09775e-21)
(0.00345503 -0.00408836 -4.46493e-22)
(0.00686817 -0.00598149 4.48793e-22)
(0.0112309 -0.00759042 5.80421e-24)
(0.0163214 -0.00879857 -1.03126e-23)
(0.0218955 -0.00956601 -2.4324e-22)
(0.0277155 -0.00990859 2.35049e-22)
(0.0335691 -0.00987981 -5.41585e-24)
(0.0392814 -0.00955413 -4.22118e-24)
(0.0447201 -0.0090129 8.55157e-23)
(0.0497951 -0.00833385 -8.563e-23)
(0.0544546 -0.00758432 -5.21457e-23)
(0.0586782 -0.00681789 9.61614e-24)
(0.06247 -0.00607366 4.26563e-23)
(0.0658507 -0.0053774 -5.03689e-25)
(0.0688518 -0.0047437 -1.07854e-24)
(0.0715101 -0.00417861 0)
(0.0738638 -0.00368209 0)
(0.07595 -0.00325027 0)
(0.0778033 -0.0028771 -4.73404e-25)
(0.0794545 -0.00255568 3.09849e-23)
(0.0809307 -0.00227903 -3.36309e-23)
(0.0822555 -0.00204056 3.39745e-23)
(0.0834488 -0.00183444 -1.6846e-23)
(0.0845276 -0.0016556 -3.58242e-23)
(0.0855065 -0.00149976 1.81257e-23)
(0.0863977 -0.00136335 -5.77751e-25)
(0.0872117 -0.0012434 -1.19571e-24)
(0.0879574 -0.00113748 5.93855e-25)
(0.0886425 -0.00104356 -1.81522e-24)
(0.0892735 -0.000959966 1.87943e-23)
(0.0898562 -0.000885309 -3.95116e-23)
(0.0903956 -0.000818428 1.88741e-23)
(0.090896 -0.000758347 -1.83279e-24)
(0.0913613 -0.000704249 6.06701e-25)
(0.091795 -0.000655441 0)
(0.0921999 -0.000611339 -1.02307e-23)
(0.0925789 -0.000571444 9.03542e-24)
(0.0929343 -0.000535336 8.29522e-24)
(0.0932683 -0.000502664 -1.12794e-23)
(0.0935831 -0.000473137 5.85379e-25)
(0.0938803 -0.000446525 2.87369e-24)
(0.0941618 -0.000422652 -5.20025e-24)
(0.0944291 -0.000401392 -5.67801e-25)
(0.0946839 -0.000382647 -3.91799e-24)
(0.0949277 -0.000366304 -5.26051e-25)
(0.0951619 -0.000352159 1.11921e-24)
(0.0953878 -0.000339796 1.63029e-24)
(-5.46078e-05 0.000493161 -1.2069e-21)
(0.000703755 -0.0011948 1.20235e-21)
(0.00288832 -0.00395349 -1.1663e-21)
(0.00612857 -0.00708088 -1.59565e-23)
(0.0102754 -0.0100577 -9.90346e-25)
(0.0151195 -0.012562 -7.40285e-22)
(0.0204293 -0.0144279 7.64748e-22)
(0.0259899 -0.0156019 5.2759e-22)
(0.0316136 -0.0161128 -9.44718e-23)
(0.0371447 -0.016045 -7.42406e-22)
(0.0424619 -0.0155138 5.9352e-22)
(0.0474777 -0.0146448 -2.55065e-22)
(0.0521361 -0.0135583 -3.084e-24)
(0.056408 -0.0123589 0)
(0.0602862 -0.0111306 1.06914e-22)
(0.0637801 -0.00993496 -1.71144e-23)
(0.0669106 -0.00881334 -8.81926e-23)
(0.0697057 -0.00778949 2.4166e-24)
(0.0721972 -0.00687373 0)
(0.0744172 -0.00606671 0)
(0.0763973 -0.00536281 3.4436e-23)
(0.0781665 -0.0047529 -3.33161e-23)
(0.0797512 -0.00422625 -3.42303e-23)
(0.0811747 -0.00377195 3.63918e-23)
(0.0824575 -0.00337958 1.1788e-24)
(0.0836172 -0.00303983 -1.1928e-24)
(0.0846689 -0.00274464 1.20645e-24)
(0.0856257 -0.0024871 -3.70698e-23)
(0.0864988 -0.00226144 3.83249e-23)
(0.0872977 -0.00206286 -3.6608e-23)
(0.0880308 -0.00188738 3.90844e-23)
(0.0887052 -0.0017317 1.22064e-24)
(0.0893272 -0.00159309 3.9536e-23)
(0.0899021 -0.00146925 -7.79283e-23)
(0.0904348 -0.00135827 4.08478e-23)
(0.0909293 -0.00125856 2.09426e-23)
(0.0913895 -0.00116876 -1.84938e-23)
(0.0918185 -0.00108773 0)
(0.0922194 -0.0010145 -1.13256e-26)
(0.0925946 -0.00094825 0)
(0.0929467 -0.000888271 1.90852e-23)
(0.0932776 -0.000833979 -1.79266e-23)
(0.0935894 -0.000784889 1.18098e-24)
(0.0938839 -0.000740612 -5.81735e-27)
(0.0941626 -0.000700848 9.14957e-24)
(0.0944273 -0.000665377 -1.70668e-23)
(0.0946792 -0.000634025 9.04906e-24)
(0.09492 -0.000606598 -4.40994e-24)
(0.0951509 -0.000582754 3.33371e-24)
(0.0953731 -0.000561812 1.09457e-24)
(0.000269001 0.000216036 -2.73384e-21)
(0.00205972 -0.00247602 0)
(0.0055892 -0.00627478 2.40322e-21)
(0.0100542 -0.0103869 -4.61101e-21)
(0.0151324 -0.0142083 2.22106e-21)
(0.0205545 -0.0173759 8.10345e-22)
(0.0260959 -0.0197095 -8.51761e-22)
(0.0315906 -0.0211577 5.91481e-22)
(0.0369201 -0.0217636 -1.08285e-21)
(0.0420023 -0.0216352 4.83447e-22)
(0.0467835 -0.0209171 5.91163e-24)
(0.0512326 -0.019766 7.97033e-25)
(0.0553352 -0.0183329 3.13679e-24)
(0.0590906 -0.0167501 -1.64711e-22)
(0.0625075 -0.015125 1.59603e-22)
(0.0656023 -0.0135377 3.89741e-24)
(0.0683958 -0.0120425 -1.49483e-24)
(0.0709121 -0.0106718 9.18965e-23)
(0.073176 -0.00944057 -9.15995e-23)
(0.0752125 -0.0083509 -1.43952e-24)
(0.0770454 -0.00739662 0)
(0.0786973 -0.00656659 1.71247e-25)
(0.0801883 -0.00584741 0)
(0.0815371 -0.00522502 1.30228e-24)
(0.0827598 -0.00468603 1.06006e-25)
(0.0838709 -0.00421821 1.2041e-24)
(0.0848831 -0.00381091 -8.14706e-23)
(0.0858075 -0.00345497 8.03494e-23)
(0.0866538 -0.00314266 0)
(0.0874303 -0.00286751 -4.05831e-23)
(0.0881446 -0.00262415 4.19448e-23)
(0.088803 -0.00240809 0)
(0.0894113 -0.00221559 -3.37561e-26)
(0.0899745 -0.00204352 -4.17903e-23)
(0.0904969 -0.00188926 8.21986e-23)
(0.0909826 -0.00175061 -8.05446e-23)
(0.0914348 -0.00162571 8.00972e-23)
(0.0918569 -0.00151298 -7.95249e-23)
(0.0922514 -0.00141108 3.96055e-23)
(0.092621 -0.00131886 1.94551e-23)
(0.0929679 -0.00123534 -1.70397e-23)
(0.0932941 -0.00115971 -1.20345e-24)
(0.0936015 -0.00109127 -1.882e-23)
(0.0938917 -0.00102947 3.97762e-23)
(0.0941664 -0.000973892 -1.86129e-23)
(0.0944269 -0.000924194 5.88415e-27)
(0.0946747 -0.000880121 1.12268e-24)
(0.0949111 -0.000841385 -4.22042e-27)
(0.0951372 -0.000807507 -1.09162e-24)
(0.0953541 -0.000777564 2.15405e-24)
(0.000857589 -0.000504262 -2.49129e-24)
(0.00422203 -0.00442233 -2.55535e-23)
(0.0093722 -0.00912671 -2.32762e-23)
(0.0151797 -0.0139557 -2.10398e-23)
(0.0212007 -0.0183227 -3.61583e-23)
(0.0271484 -0.0218848 -1.36477e-24)
(0.0328373 -0.0244792 1.30889e-23)
(0.0381707 -0.0260669 -1.23306e-23)
(0.0431101 -0.0267022 -1.04053e-23)
(0.0476518 -0.0265055 9.23729e-22)