/*--------------------------------*- C++ -*----------------------------------*\
| =========                 |                                                 |
| \\      /  F ield         | OpenFOAM: The Open Source CFD Toolbox           |
|  \\    /   O peration     | Version:  2412                                  |
|   \\  /    A nd           | Website:  www.openfoam.com                      |
|    \\/     M anipulation  |                                                 |
\*---------------------------------------------------------------------------*/
FoamFile
{
    version     2.0;
    format      ascii;
    arch        "LSB;label=32;scalar=64";
    class       volVectorField;
    location    "4";
    object      vorticity;
}
// * * * * * * * * * * * * * * * * * * * * * * * * * * * * * * * * * * * * * //

dimensions      [0 0 -1 0 0 0 0];

internalField   nonuniform List<vector> 
63420
(
(0 0 8.95891e-05)
(0 0 8.57684e-05)
(0 0 -3.69881e-05)
(0 0 -0.000134127)
(0 0 -0.000147511)
(0 0 -0.000108997)
(0 0 -6.36285e-05)
(0 0 -3.17734e-05)
(0 0 -1.4465e-05)
(0 0 -6.54131e-06)
(0 0 -3.35526e-06)
(0 0 -2.20816e-06)
(0 0 -1.84097e-06)
(0 0 -1.74441e-06)
(0 0 -1.73297e-06)
(0 0 -1.74381e-06)
(0 0 -1.75716e-06)
(0 0 -1.77098e-06)
(0 0 -1.7847e-06)
(0 0 -1.79516e-06)
(0 0 -1.79962e-06)
(0 0 -1.79839e-06)
(0 0 -1.79389e-06)
(0 0 -1.78779e-06)
(0 0 -1.77883e-06)
(0 0 -1.76534e-06)
(0 0 -1.74527e-06)
(0 0 -1.7182e-06)
(0 0 -1.68354e-06)
(0 0 -1.64202e-06)
(0 0 -1.59345e-06)
(0 0 -1.53817e-06)
(0 0 -1.47487e-06)
(0 0 -1.40224e-06)
(0 0 -1.31844e-06)
(0 0 -1.222e-06)
(0 0 -1.11193e-06)
(0 0 -9.87183e-07)
(0 0 -8.4698e-07)
(0 0 -6.901e-07)
(0 0 -5.14975e-07)
(0 0 -3.19053e-07)
(0 0 -9.84886e-08)
(0 0 1.51608e-07)
(0 0 4.3744e-07)
(0 0 7.6635e-07)
(0 0 1.14763e-06)
(0 0 1.59145e-06)
(0 0 2.10146e-06)
(0 0 2.64722e-06)
(0 0 3.09727e-06)
(0 0 3.10367e-06)
(0 0 1.99359e-06)
(0 0 -1.12383e-06)
(0 5.42305e-23 -6.55594e-06)
(0 0 0.000266898)
(0 0 0.000252245)
(0 0 -0.000114948)
(0 0 -0.000403652)
(0 0 -0.000442155)
(0 0 -0.000326453)
(0 0 -0.000190827)
(0 0 -9.5758e-05)
(0 0 -4.41578e-05)
(0 0 -2.05653e-05)
(0 0 -1.10942e-05)
(0 0 -7.68996e-06)
(0 0 -6.60457e-06)
(0 0 -6.32609e-06)
(0 0 -6.30473e-06)
(0 0 -6.3551e-06)
(0 0 -6.41973e-06)
(0 0 -6.48357e-06)
(0 0 -6.5411e-06)
(0 0 -6.58745e-06)
(0 0 -6.6201e-06)
(0 0 -6.64013e-06)
(0 0 -6.64979e-06)
(0 0 -6.64942e-06)
(0 0 -6.63685e-06)
(0 0 -6.60947e-06)
(0 0 -6.56495e-06)
(0 0 -6.50162e-06)
(0 0 -6.4181e-06)
(0 0 -6.31375e-06)
(0 0 -6.18778e-06)
(0 0 -6.03924e-06)
(0 0 -5.8661e-06)
(0 0 -5.66587e-06)
(0 0 -5.43558e-06)
(0 0 -5.1722e-06)
(0 0 -4.87274e-06)
(0 0 -4.53384e-06)
(0 0 -4.15173e-06)
(0 0 -3.72154e-06)
(0 0 -3.23684e-06)
(0 0 -2.68897e-06)
(0 0 -2.06675e-06)
(0 0 -1.35643e-06)
(0 0 -5.40748e-07)
(0 0 4.02272e-07)
(0 0 1.50116e-06)
(0 0 2.78799e-06)
(0 0 4.27531e-06)
(0 0 5.87514e-06)
(0 0 7.20259e-06)
(0 0 7.23874e-06)
(0 0 4.01387e-06)
(0 0 -5.08255e-06)
(0 5.47304e-23 -2.09671e-05)
(0 0 0.000438966)
(0 0 0.000406696)
(0 0 -0.000201205)
(0 0 -0.000674113)
(0 0 -0.00073417)
(0 0 -0.000541441)
(0 0 -0.000317181)
(0 0 -0.000160383)
(0 0 -7.54085e-05)
(0 0 -3.66219e-05)
(0 0 -2.10941e-05)
(0 0 -1.55478e-05)
(0 0 -1.38128e-05)
(0 0 -1.34028e-05)
(0 0 -1.34146e-05)
(0 0 -1.35445e-05)
(0 0 -1.36986e-05)
(0 0 -1.38492e-05)
(0 0 -1.39865e-05)
(0 0 -1.41043e-05)
(0 0 -1.4201e-05)
(0 0 -1.42782e-05)
(0 0 -1.43375e-05)
(0 0 -1.4378e-05)
(0 0 -1.43966e-05)
(0 0 -1.43902e-05)
(0 0 -1.4356e-05)
(0 0 -1.42917e-05)
(0 0 -1.41952e-05)
(0 0 -1.40646e-05)
(0 0 -1.38985e-05)
(0 0 -1.36948e-05)
(0 0 -1.34508e-05)
(0 0 -1.3163e-05)
(0 0 -1.28275e-05)
(0 0 -1.24398e-05)
(0 0 -1.19952e-05)
(0 0 -1.14883e-05)
(0 0 -1.09126e-05)
(0 0 -1.026e-05)
(0 0 -9.51958e-06)
(0 0 -8.67726e-06)
(0 0 -7.71526e-06)
(0 0 -6.61189e-06)
(0 0 -5.34011e-06)
(0 0 -3.86496e-06)
(0 0 -2.14098e-06)
(0 0 -1.17051e-07)
(0 0 2.22664e-06)
(0 0 4.75025e-06)
(0 0 6.84353e-06)
(0 0 6.89245e-06)
(0 0 1.77563e-06)
(0 0 -1.26552e-05)
(0 3.23289e-22 -3.79087e-05)
(0 0 0.000601231)
(0 0 0.000545926)
(0 0 -0.000290934)
(0 0 -0.000935842)
(0 0 -0.00101405)
(0 0 -0.000747373)
(0 0 -0.000439044)
(0 0 -0.000223952)
(0 0 -0.000107557)
(0 0 -5.45236e-05)
(0 0 -3.33624e-05)
(0 0 -2.58662e-05)
(0 0 -2.35817e-05)
(0 0 -2.31059e-05)
(0 0 -2.32037e-05)
(0 0 -2.34611e-05)
(0 0 -2.37499e-05)
(0 0 -2.40312e-05)
(0 0 -2.42912e-05)
(0 0 -2.45239e-05)
(0 0 -2.47283e-05)
(0 0 -2.49063e-05)
(0 0 -2.50589e-05)
(0 0 -2.5184e-05)
(0 0 -2.52777e-05)
(0 0 -2.53364e-05)
(0 0 -2.53574e-05)
(0 0 -2.5338e-05)
(0 0 -2.52755e-05)
(0 0 -2.51674e-05)
(0 0 -2.50112e-05)
(0 0 -2.48041e-05)
(0 0 -2.45427e-05)
(0 0 -2.4223e-05)
(0 0 -2.38401e-05)
(0 0 -2.33885e-05)
(0 0 -2.28621e-05)
(0 0 -2.22536e-05)
(0 0 -2.15547e-05)
(0 0 -2.07543e-05)
(0 0 -1.98381e-05)
(0 0 -1.87875e-05)
(0 0 -1.75794e-05)
(0 0 -1.61859e-05)
(0 0 -1.4572e-05)
(0 0 -1.26926e-05)
(0 0 -1.0489e-05)
(0 0 -7.89561e-06)
(0 0 -4.88822e-06)
(0 0 -1.65029e-06)
(0 0 1.02475e-06)
(0 0 1.04185e-06)
(0 0 -5.65501e-06)
(0 0 -2.4487e-05)
(0 -2.12376e-22 -5.75571e-05)
(0 0 0.000747281)
(0 0 0.000672529)
(0 0 -0.000369096)
(0 0 -0.00116873)
(0 0 -0.00126471)
(0 0 -0.000932812)
(0 0 -0.000549694)
(0 0 -0.000282608)
(0 0 -0.000138171)
(0 0 -7.24459e-05)
(0 0 -4.63022e-05)
(0 0 -3.71189e-05)
(0 0 -3.43981e-05)
(0 0 -3.39153e-05)
(0 0 -3.41394e-05)
(0 0 -3.45581e-05)
(0 0 -3.50128e-05)
(0 0 -3.54551e-05)
(0 0 -3.58684e-05)
(0 0 -3.62471e-05)
(0 0 -3.65914e-05)
(0 0 -3.69032e-05)
(0 0 -3.71826e-05)
(0 0 -3.74264e-05)
(0 0 -3.76304e-05)
(0 0 -3.77909e-05)
(0 0 -3.79053e-05)
(0 0 -3.79709e-05)
(0 0 -3.79847e-05)
(0 0 -3.79436e-05)
(0 0 -3.78445e-05)
(0 0 -3.7684e-05)
(0 0 -3.74582e-05)
(0 0 -3.71628e-05)
(0 0 -3.67923e-05)
(0 0 -3.63404e-05)
(0 0 -3.57999e-05)
(0 0 -3.51625e-05)
(0 0 -3.44184e-05)
(0 0 -3.35547e-05)
(0 0 -3.25545e-05)
(0 0 -3.13962e-05)
(0 0 -3.00533e-05)
(0 0 -2.84935e-05)
(0 0 -2.66766e-05)
(0 0 -2.45509e-05)
(0 0 -2.20492e-05)
(0 0 -1.90975e-05)
(0 0 -1.56709e-05)
(0 0 -1.19872e-05)
(0 0 -8.97241e-06)
(0 0 -9.06568e-06)
(0 0 -1.70021e-05)
(0 0 -3.91808e-05)
(0 1.04855e-22 -7.83604e-05)
(0 0 0.00086972)
(0 0 0.000793114)
(0 0 -0.000413564)
(0 0 -0.0013466)
(0 0 -0.0014647)
(0 0 -0.00108358)
(0 0 -0.000640615)
(0 0 -0.000331132)
(0 0 -0.000163617)
(0 0 -8.74107e-05)
(0 0 -5.71615e-05)
(0 0 -4.66086e-05)
(0 0 -4.35569e-05)
(0 0 -4.30987e-05)
(0 0 -4.34564e-05)
(0 0 -4.40365e-05)
(0 0 -4.46555e-05)
(0 0 -4.52573e-05)
(0 0 -4.58237e-05)
(0 0 -4.63501e-05)
(0 0 -4.68377e-05)
(0 0 -4.72881e-05)
(0 0 -4.77005e-05)
(0 0 -4.80713e-05)
(0 0 -4.83961e-05)
(0 0 -4.86714e-05)
(0 0 -4.88948e-05)
(0 0 -4.90637e-05)
(0 0 -4.91752e-05)
(0 0 -4.92259e-05)
(0 0 -4.92123e-05)
(0 0 -4.91306e-05)
(0 0 -4.89767e-05)
(0 0 -4.87461e-05)
(0 0 -4.84331e-05)
(0 0 -4.8031e-05)
(0 0 -4.75319e-05)
(0 0 -4.69273e-05)
(0 0 -4.62063e-05)
(0 0 -4.53552e-05)
(0 0 -4.43558e-05)
(0 0 -4.31853e-05)
(0 0 -4.18153e-05)
(0 0 -4.02117e-05)
(0 0 -3.83321e-05)
(0 0 -3.61219e-05)
(0 0 -3.3511e-05)
(0 0 -3.04233e-05)
(0 0 -2.68381e-05)
(0 0 -2.29972e-05)
(0 0 -1.9906e-05)
(0 0 -2.02048e-05)
(0 0 -2.90512e-05)
(0 0 -5.35701e-05)
(0 5.17373e-22 -9.73502e-05)
(0 0 0.000964597)
(0 0 0.00091607)
(0 0 -0.000402711)
(0 0 -0.00144502)
(0 0 -0.00159437)
(0 0 -0.00118676)
(0 0 -0.000703973)
(0 0 -0.000364582)
(0 0 -0.000180326)
(0 0 -9.63927e-05)
(0 0 -6.30902e-05)
(0 0 -5.15149e-05)
(0 0 -4.82159e-05)
(0 0 -4.77755e-05)
(0 0 -4.82323e-05)
(0 0 -4.89323e-05)
(0 0 -4.96731e-05)
(0 0 -5.03935e-05)
(0 0 -5.10747e-05)
(0 0 -5.17133e-05)
(0 0 -5.23108e-05)
(0 0 -5.28687e-05)
(0 0 -5.33858e-05)
(0 0 -5.38579e-05)
(0 0 -5.42811e-05)
(0 0 -5.4652e-05)
(0 0 -5.49686e-05)
(0 0 -5.52285e-05)
(0 0 -5.54291e-05)
(0 0 -5.55668e-05)
(0 0 -5.5638e-05)
(0 0 -5.56388e-05)
(0 0 -5.55653e-05)
(0 0 -5.54128e-05)
(0 0 -5.51755e-05)
(0 0 -5.48467e-05)
(0 0 -5.44186e-05)
(0 0 -5.38823e-05)
(0 0 -5.32273e-05)
(0 0 -5.24394e-05)
(0 0 -5.15007e-05)
(0 0 -5.0388e-05)
(0 0 -4.90736e-05)
(0 0 -4.75234e-05)
(0 0 -4.56958e-05)
(0 0 -4.35372e-05)
(0 0 -4.09795e-05)
(0 0 -3.7951e-05)
(0 0 -3.44389e-05)
(0 0 -3.06993e-05)
(0 0 -2.7765e-05)
(0 0 -2.83409e-05)
(0 0 -3.77835e-05)
(0 0 -6.38546e-05)
(0 -1.01286e-22 -0.000111445)
(-1.48378e-23 8.0669e-21 -2.36202e-05)
(-1.73572e-22 7.91754e-21 -4.73022e-05)
(4.30721e-23 -2.33133e-22 -7.80389e-05)
(3.10573e-23 -2.36724e-20 -0.000111722)
(-1.10915e-22 8.1252e-21 -0.000141114)
(4.41965e-22 7.9722e-21 -0.000157328)
(-9.34292e-22 2.31812e-20 -0.000152394)
(3.60309e-22 -2.36216e-20 -0.000121844)
(7.31274e-22 -7.57377e-21 -6.62202e-05)
(-1.06449e-21 -4.24324e-24 9.06851e-06)
(-1.07698e-21 -7.62631e-21 9.54676e-05)
(9.46082e-22 7.19899e-21 0.000183673)
(5.98109e-22 -5.98347e-20 0.000265649)
(-1.07388e-21 1.28856e-19 0.000335953)
(3.35036e-22 -6.96017e-20 0.000392102)
(-1.5002e-21 -5.24828e-20 0.000434111)
(2.67966e-21 -6.67482e-20 0.000463612)
(-2.15594e-21 7.96026e-21 0.000483105)
(-2.40106e-22 -7.37295e-21 0.000495061)
(1.04063e-22 7.39863e-21 0.000501723)
(-3.66882e-24 -1.50064e-22 0.000504807)
(-9.92398e-23 -7.14192e-21 0.000505571)
(-2.31719e-21 7.23397e-21 0.000504859)
(4.88916e-21 1.48576e-23 0.000503189)
(1.44572e-21 7.0415e-21 0.000500819)
(-3.80385e-21 -6.32648e-24 0.000497815)
(5.49017e-21 8.36473e-21 0.000494115)
(-6.18003e-21 1.06773e-19 0.000489598)
(5.38937e-22 -1.14832e-19 0.00048415)
(-2.20894e-21 1.05443e-19 0.00047771)
(2.14572e-21 -1.06787e-19 0.000470261)
(5.61152e-23 1.55171e-21 0.000461781)
(-7.30427e-23 -1.90508e-21 0.000452167)
(2.82588e-21 -1.02118e-19 0.000441125)
(-9.67439e-21 9.94253e-20 0.000428029)
(-3.73178e-22 -1.79075e-21 0.000411587)
(7.19189e-21 1.57294e-23 0.000389029)
(7.84557e-21 1.7159e-23 0.000354109)
(-7.82047e-21 -1.71041e-23 0.000292513)
(-2.60479e-22 -5.69693e-25 0.000172152)
(-2.72626e-22 -5.9626e-25 -7.53264e-05)
(-9.44617e-21 -2.06597e-23 -0.000585313)
(9.11694e-21 1.99397e-23 -0.00160271)
(-3.04099e-22 1.81927e-22 -0.00352514)
(3.02813e-23 9.34977e-21 -0.00692116)
(-2.91644e-20 5.95491e-20 -0.0124888)
(2.80635e-20 -7.91454e-20 -0.0209287)
(-7.11194e-21 -1.12504e-20 -0.0327382)
(7.78355e-21 3.13125e-20 -0.0479653)
(-2.48873e-20 -6.94576e-21 -0.0658454)
(-2.99058e-22 8.09012e-21 -7.0634e-05)
(-1.05912e-22 1.5887e-20 -0.000140115)
(3.8523e-22 7.71081e-21 -0.000230532)
(-1.04613e-21 -7.93869e-21 -0.000329983)
(1.9405e-21 7.52745e-21 -0.000417398)
(-6.86681e-22 -5.42527e-20 -0.000466859)
(-9.31073e-23 8.6349e-20 -0.00045509)
(-7.96297e-23 -9.21285e-21 -0.000369024)
(2.30955e-21 -9.94826e-20 -0.000210194)
(-2.28875e-21 1.40961e-19 5.78017e-06)
(-5.77394e-22 1.28574e-19 0.000254094)
(3.84827e-22 -1.16093e-19 0.000507676)
(-4.62706e-22 8.70593e-22 0.00074326)
(3.28098e-21 -7.38325e-21 0.000945174)
(-2.48117e-21 2.49817e-20 0.00110625)
(-6.09607e-21 2.45359e-19 0.0012265)
(1.04716e-21 -2.31389e-19 0.00131074)
(-5.62574e-21 2.48271e-19 0.00136592)
(-2.53906e-22 1.98104e-20 0.00139935)
(-4.50105e-21 -7.58187e-21 0.00141731)
(4.73763e-21 1.69351e-22 0.00142479)
(-4.72125e-21 9.69623e-21 0.00142543)
(2.21477e-21 2.16856e-19 0.00142165)
(4.75533e-21 -4.61443e-19 0.00141489)
(4.01277e-21 -2.20024e-19 0.00140586)
(-5.85315e-21 4.46617e-19 0.00139469)
(1.65307e-21 -4.47454e-19 0.00138116)
(3.62902e-22 4.59781e-19 0.00136483)
(3.83479e-21 9.393e-22 0.00134532)
(-4.31156e-21 -1.1293e-22 0.00132238)
(-1.44668e-21 -3.16403e-24 0.00129589)
(0 0 0.00126573)
(2.13991e-22 1.10967e-22 0.00123151)
(1.28395e-20 1.37475e-20 0.00119229)
(-1.37962e-20 3.84336e-19 0.00114608)
(-1.78982e-20 -2.53239e-20 0.00108887)
(1.67231e-20 -3.81601e-19 0.00101208)
(2.51554e-20 -3.31726e-19 0.00089635)
(-5.0909e-21 3.56234e-19 0.000697484)
(-3.62226e-20 1.851e-21 0.000316703)
(3.60819e-20 1.9794e-20 -0.00045548)
(-4.24342e-20 2.61893e-19 -0.00203193)
(1.9921e-20 -2.73521e-19 -0.00515556)
(-2.13441e-20 1.70425e-20 -0.0110264)
(2.39287e-20 9.53644e-21 -0.021353)
(-6.77978e-20 1.32652e-19 -0.0382254)
(6.78142e-20 -1.29668e-19 -0.0637366)
(-1.08775e-19 9.89458e-20 -0.0993539)
(1.04881e-19 -1.10889e-19 -0.145149)
(-2.2986e-20 -7.7115e-22 -0.197184)
(3.94949e-23 4.78362e-20 -0.000115868)
(-7.48865e-23 1.50135e-20 -0.000226712)
(3.45415e-22 -6.25338e-20 -0.000371689)
(-6.55752e-22 1.24517e-19 -0.000532346)
(1.44754e-21 -2.67117e-19 -0.000675653)
(8.11433e-22 1.27353e-19 -0.000760831)
(-2.90161e-21 -1.03961e-21 -0.000751152)
(1.79552e-21 -1.76005e-20 -0.00062588)
(6.014e-22 -2.61236e-19 -0.00038717)
(2.01267e-21 2.49527e-19 -5.9183e-05)
(-1.02053e-21 -1.93522e-21 0.000319558)
(-4.96346e-21 -2.74005e-23 0.000706857)
(7.91418e-21 -2.18684e-21 0.00106655)
(-6.17615e-21 -2.56466e-19 0.00137437)
(7.42065e-21 2.34202e-19 0.00161924)
(-1.07051e-20 4.64661e-19 0.00180116)
(-5.87549e-21 -1.3056e-20 0.00192743)
(-2.64191e-21 4.79074e-19 0.00200879)
(4.0472e-22 -1.45587e-20 0.00205625)
(-1.14487e-20 4.66728e-19 0.00207943)
(1.12389e-20 -4.85318e-19 0.00208593)
(-7.42903e-21 4.64943e-19 0.00208122)
(-6.43789e-22 -4.84237e-19 0.00206893)
(5.99898e-21 -9.03922e-21 0.00205119)
(-2.8921e-21 1.42202e-20 0.00202899)
(6.33282e-21 -8.57077e-21 0.00200236)
(-1.77813e-20 4.39383e-19 0.00197076)
(1.5454e-20 -4.70247e-19 0.00193331)
(1.65712e-20 -4.36503e-19 0.00188916)
(-1.2888e-20 4.40408e-19 0.00183767)
(-1.26386e-21 -6.0337e-21 0.00177842)
(1.30818e-20 -1.41499e-22 0.00171092)
(-1.51975e-20 -2.75692e-20 0.00163425)
(4.81284e-20 -8.11717e-19 0.00154652)
(1.84847e-20 5.93895e-20 0.00144411)
(-6.7341e-20 7.67536e-19 0.00131984)
(4.65283e-21 -1.44111e-20 0.00115852)
(-1.30809e-20 -6.75612e-21 0.000926101)
(1.08074e-19 -6.55835e-19 0.000545034)
(-1.98047e-19 1.29656e-18 -0.000157046)
(2.00334e-19 -1.30284e-18 -0.00154315)
(8.45246e-20 9.27726e-20 -0.00432283)
(-1.63022e-19 5.79192e-19 -0.00976161)
(-1.7662e-19 4.0552e-19 -0.0198863)
(1.65035e-19 -4.84307e-19 -0.0375616)
(-2.73302e-20 2.34604e-20 -0.0662764)
(6.77917e-20 -2.14942e-20 -0.10952)
(1.96065e-19 -1.21904e-19 -0.169712)
(-2.13092e-19 1.92716e-19 -0.246793)
(-3.12589e-20 -5.04045e-20 -0.328781)
(4.11928e-22 -3.15168e-20 -0.000157283)
(-4.06743e-22 1.59844e-20 -0.000302822)
(8.41754e-22 -2.05323e-22 -0.000494686)
(-7.81906e-22 -1.5705e-20 -0.000709717)
(-1.1694e-21 -1.73263e-21 -0.0009058)
(2.98079e-21 -2.46272e-19 -0.00103063)
(-3.55263e-21 4.67518e-19 -0.00103685)
(1.54634e-21 -2.5232e-19 -0.000897392)
(-2.08031e-21 1.51636e-20 -0.000614394)
(3.9966e-21 -2.7617e-19 -0.000218054)
(-5.36924e-21 2.5316e-19 0.000243145)
(-1.30929e-21 4.81218e-19 0.000716096)
(5.6102e-21 -9.76519e-19 0.00115533)
(-8.02708e-21 9.77239e-19 0.00153031)
(1.28677e-20 -9.73909e-19 0.00182703)
(-5.85066e-21 9.68229e-19 0.00204531)
(-7.74735e-21 4.90817e-19 0.00219405)
(-8.02002e-22 -4.48854e-21 0.00228634)
(5.33134e-21 4.61636e-21 0.00233561)
(-4.86137e-21 4.55764e-19 0.00235357)
(-6.62165e-21 -4.79807e-19 0.00234934)
(1.74293e-20 1.50078e-20 0.00232951)
(-2.99171e-20 9.23263e-19 0.00229834)
(2.04247e-20 -9.28704e-19 0.00225825)
(2.53e-21 -4.39808e-21 0.00221016)
(-1.14949e-20 -7.44539e-23 0.00215378)
(1.71851e-20 -1.40818e-20 0.00208793)
(-5.64573e-21 1.44858e-22 0.00201098)
(-6.25068e-21 -3.97319e-23 0.00192128)
(5.89724e-21 2.2945e-22 0.00181739)
(-4.09632e-21 1.40659e-22 0.0016981)
(5.7326e-20 -8.34332e-19 0.00156206)
(-5.04855e-20 8.60759e-19 0.00140727)
(-1.85704e-20 -1.05965e-21 0.00123039)
(2.1348e-20 -9.52939e-21 0.00102551)
(-9.2774e-20 7.76948e-19 0.000781601)
(1.1303e-19 -7.83098e-19 0.000475775)
(-2.71606e-20 3.58103e-21 5.71916e-05)
(1.89979e-20 -3.48533e-23 -0.000589466)
(4.48113e-20 8.70815e-21 -0.00171925)
(-2.61225e-19 5.98942e-19 -0.0038658)
(3.70731e-19 -1.22539e-18 -0.00806352)
(-1.79642e-19 6.24801e-19 -0.0161406)
(2.84789e-19 -4.87581e-19 -0.031)
(-2.72729e-19 5.79683e-19 -0.0567204)
(-6.77988e-19 6.02312e-19 -0.0982697)
(1.28927e-18 -1.29551e-18 -0.160668)
(-6.38198e-19 6.62859e-19 -0.24746)
(2.31773e-20 -2.74968e-21 -0.358296)
(5.60701e-21 -4.32126e-20 -0.464136)
(-8.45312e-22 1.60964e-20 -0.000191913)
(-1.33808e-22 6.11975e-20 -0.000364099)
(1.76034e-21 -1.86327e-19 -0.000593414)
(-6.74833e-22 2.50491e-19 -0.000854238)
(-7.42171e-22 -1.11199e-19 -0.00109897)
(7.02305e-23 -1.46973e-20 -0.00126789)
(-4.93413e-22 1.5664e-20 -0.0013065)
(3.61013e-21 -2.22331e-22 -0.00118303)
(-3.54765e-21 -1.52834e-20 -0.000898691)
(-6.02984e-21 3.49602e-20 -0.00048647)
(-4.13122e-21 4.89478e-19 -9.30068e-08)
(1.76603e-20 -5.09396e-19 0.000501372)
(-2.2686e-20 4.76155e-19 0.00096724)
(1.79704e-20 -4.95839e-19 0.00136334)
(-3.56691e-21 4.04235e-21 0.00167377)
(1.29937e-20 7.64022e-23 0.00189781)
(4.96022e-21 4.39301e-21 0.00204473)
(-1.228e-21 4.64819e-19 0.00212833)
(1.86015e-20 -5.04207e-19 0.00216285)
(7.61487e-21 2.95749e-20 0.00216052)
(-4.239e-20 9.62287e-19 0.00213087)
(2.2894e-20 -9.67478e-19 0.00208059)
(1.21349e-20 2.45963e-20 0.00201389)
(-2.12103e-20 -2.74255e-22 0.0019329)
(1.38733e-20 1.13028e-20 0.00183803)
(-3.07816e-20 9.32191e-19 0.00172816)
(2.32179e-20 -9.25919e-19 0.00160104)
(3.32736e-21 1.12846e-20 0.00145375)
(1.17138e-20 2.84765e-20 0.00128318)
(-1.34863e-20 -6.43562e-22 0.00108638)
(1.10913e-21 -1.36731e-20 0.000860504)
(-4.33532e-20 1.392e-20 0.000602402)
(4.14407e-20 1.32994e-20 0.000307992)
(-4.08402e-21 -2.81609e-20 -2.86176e-05)
(6.99925e-20 -7.85205e-19 -0.00041663)
(-5.86882e-20 8.08959e-19 -0.000872052)
(2.51148e-19 -1.57075e-18 -0.0014266)
(-2.24337e-19 1.58727e-18 -0.00214952)
(2.85136e-19 -1.50336e-18 -0.00319688)
(8.14465e-20 1.40778e-19 -0.00491296)
(-3.33368e-19 1.43844e-18 -0.008016)
(-1.44473e-19 -2.73284e-20 -0.0138927)
(1.9483e-20 3.31666e-22 -0.0249824)
(-2.25346e-20 5.4142e-22 -0.0451462)
(6.65958e-20 1.90426e-21 -0.0798203)
(3.3201e-20 1.56704e-20 -0.135733)
(-1.39646e-19 5.91085e-21 -0.22)
(8.04828e-20 5.88136e-21 -0.338224)
(-2.049e-22 -3.84712e-22 -0.490375)
(4.44593e-20 7.72821e-22 -0.615201)
(-5.56837e-22 7.72372e-20 -0.000216245)
(1.81771e-21 -4.7222e-20 -0.000406952)
(-2.07055e-21 -1.68303e-20 -0.000663585)
(4.51817e-21 -2.30913e-19 -0.000960331)
(-1.65853e-21 2.33077e-19 -0.00124801)
(1.02992e-21 -2.30525e-19 -0.00146406)
(-9.84776e-21 5.08619e-19 -0.0015506)
(8.57862e-21 -7.13503e-19 -0.00147289)
(-5.12485e-21 5.05988e-19 -0.00123023)
(-2.49165e-21 4.92009e-19 -0.000854922)
(-2.1658e-21 2.69407e-21 -0.000401029)
(1.92883e-20 -9.67474e-19 7.14559e-05)
(-1.4832e-20 1.00943e-18 0.000510697)
(1.10626e-21 -4.76555e-19 0.000881372)
(8.93042e-21 -4.78103e-19 0.00116647)
(2.08222e-20 -4.70752e-19 0.00136427)
(-3.29127e-21 7.26089e-21 0.00148302)
(3.37219e-20 -9.78686e-19 0.00153556)
(2.28024e-20 -9.39491e-19 0.00153514)
(7.2597e-21 2.29752e-20 0.00149311)
(-1.83938e-20 9.78156e-19 0.00141806)
(-2.37107e-20 -9.53185e-21 0.00131583)
(1.44663e-20 1.05121e-20 0.00118971)
(-4.3918e-20 9.51019e-19 0.00104084)
(3.29764e-20 -9.69894e-19 0.0008684)
(6.78447e-20 -9.29563e-19 0.000669801)
(-6.92449e-20 9.64062e-19 0.000440956)
(1.76804e-20 -2.346e-20 0.000176781)
(5.77877e-20 -9.32943e-19 -0.000128284)
(-9.02043e-20 9.595e-19 -0.000479948)
(5.12181e-21 1.44696e-20 -0.000884115)
(-1.9004e-19 1.7636e-18 -0.00134734)
(1.66271e-19 -1.83545e-18 -0.00187756)
(5.7348e-20 7.12698e-20 -0.00248505)
(-2.45927e-19 1.68279e-18 -0.00318414)
(2.19118e-19 -1.76082e-18 -0.00399727)
(-3.73067e-20 -4.14357e-21 -0.00496572)
(4.67551e-19 -1.59881e-18 -0.00617635)
(-4.32441e-19 1.65789e-18 -0.00782289)
(-8.04211e-20 -8.51647e-20 -0.0103333)
(7.01e-19 -1.41331e-18 -0.0146051)
(-1.20834e-18 2.94568e-18 -0.0223811)
(-8.6627e-20 -1.64002e-19 -0.0367456)
(-1.20641e-19 -1.24315e-19 -0.062619)
(8.29838e-19 -1.31436e-18 -0.107035)
(4.9213e-20 7.81571e-20 -0.179027)
(-1.01852e-18 9.06349e-19 -0.289156)
(9.95466e-19 -1.00207e-18 -0.448344)
(1.09769e-20 3.63575e-20 -0.66227)
(1.14079e-20 -3.27209e-21 -0.812371)
(6.69311e-22 -1.62417e-20 -0.000227277)
(1.36458e-21 -1.37225e-19 -0.000430525)
(-1.57738e-21 1.24025e-19 -0.000704359)
(-1.60852e-21 -1.78336e-20 -0.0010255)
(4.94125e-21 -2.29631e-19 -0.00134725)
(-4.4488e-21 2.37227e-19 -0.00160875)
(-3.14378e-21 4.77798e-19 -0.00175255)
(-5.79138e-21 -2.00561e-20 -0.00174273)
(3.08561e-21 -4.95685e-21 -0.00157587)
(1.22891e-20 -5.09729e-19 -0.00128051)
(-8.64934e-21 4.77406e-19 -0.000906666)
(9.52121e-21 -1.01155e-18 -0.000510816)
(1.03023e-21 5.06945e-19 -0.000142408)
(-4.53097e-21 -1.96432e-20 0.000164213)
(-5.97118e-21 -2.39905e-20 0.000391684)
(2.03961e-20 -9.96063e-19 0.000536886)
(-1.67944e-21 -1.97043e-20 0.00060608)
(1.8341e-20 -1.0156e-18 0.000609941)
(-6.59609e-21 -6.7116e-21 0.000559689)
(-1.88803e-22 1.41212e-22 0.000464852)
(1.35127e-20 9.94628e-21 0.000332557)
(-4.54379e-20 9.81399e-19 0.000167431)
(3.86092e-20 -1.005e-18 -2.8156e-05)
(1.50357e-20 9.8341e-21 -0.000253822)
(-1.05269e-20 -1.54534e-20 -0.000511055)
(-7.24797e-21 1.16338e-20 -0.000803097)
(-6.45499e-20 9.5277e-19 -0.00113463)
(1.40445e-19 -1.95087e-18 -0.00151121)
(-6.45404e-20 1.02379e-18 -0.00193856)
(-1.7018e-19 1.89288e-18 -0.00242198)
(-3.15821e-20 -4.62898e-20 -0.00296609)
(7.66883e-21 -2.3569e-20 -0.00357475)
(-7.24516e-20 -5.5284e-20 -0.00425115)
(2.3355e-19 -1.90864e-18 -0.00499771)
(3.85727e-19 -1.76663e-18 -0.00581637)
(-3.35069e-19 1.86372e-18 -0.00671069)
(-4.01992e-20 -6.50252e-20 -0.00769441)
(4.51015e-19 -1.70749e-18 -0.0088169)
(-3.84021e-19 1.82007e-18 -0.0102272)
(-6.69569e-19 1.61652e-18 -0.0123151)
(5.49929e-19 -1.71882e-18 -0.0159858)
(9.27704e-20 -1.3191e-20 -0.023119)
(9.21156e-19 -1.55156e-18 -0.0372138)
(1.64476e-19 1.24084e-19 -0.0640955)
(-1.0983e-18 1.53896e-18 -0.112437)
(-2.11832e-20 -4.84644e-20 -0.193905)
(4.21321e-20 6.6354e-22 -0.323684)
(-4.16278e-20 1.95851e-20 -0.525152)
(-6.12698e-19 6.39831e-19 -0.840738)
(6.0133e-19 -6.51842e-19 -1.17795)
(-9.79148e-21 -2.60263e-21 0.000763062)
(-6.92739e-21 2.52076e-21 -0.0118388)
(6.38162e-21 4.9573e-21 -0.0214271)
(-9.81142e-21 -1.36305e-20 -0.0280252)
(1.02234e-20 6.62451e-21 -0.031731)
(-3.96797e-22 1.44634e-21 -0.0328458)
(-9.09677e-23 -5.74441e-23 -0.0318447)
(-2.21775e-21 4.85043e-24 -0.0293002)
(2.14706e-21 -4.69584e-24 -0.025798)
(-4.95637e-23 1.08401e-25 -0.0218639)
(-3.87029e-23 8.46472e-26 -0.0179169)
(7.85544e-22 -1.71806e-24 -0.0142505)
(-7.88074e-22 1.7236e-24 -0.0110384)
(-4.80814e-22 1.05159e-24 -0.00835438)
(9.20951e-23 -8.07187e-23 -0.00619912)
(2.86872e-21 7.9346e-20 -0.00452631)
(-2.21325e-21 -7.42273e-20 -0.00326531)
(-7.11625e-24 -7.57207e-23 -0.00233795)
(-2.52472e-24 6.98138e-23 -0.00166956)
(-1.52344e-21 -9.39575e-20 -0.00119507)
(1.52918e-21 9.40789e-20 -0.000861418)
(-1.00735e-21 -9.28846e-20 -0.0006275)
(3.5345e-22 6.20715e-21 -0.000462858)
(-3.16047e-22 3.54017e-25 -0.000345262)
(3.44821e-22 6.52739e-21 -0.000259685)
(-8.03543e-23 5.5738e-24 -0.000195459)
(-3.38614e-22 7.40584e-25 -0.000146001)
(1.71809e-22 -6.13065e-24 -0.000106907)
(6.19701e-23 6.91588e-21 -7.52375e-05)
(-1.16532e-23 1.1706e-23 -4.90466e-05)
(-4.96474e-23 -7.07656e-21 -2.70155e-05)
(3.3125e-23 7.14083e-21 -8.21981e-06)
(1.34706e-22 -7.25539e-21 8.00892e-06)
(-1.07208e-22 6.56396e-20 2.21643e-05)
(-8.99234e-23 -6.56757e-20 3.46149e-05)
(-1.84966e-22 -5.19825e-20 4.56396e-05)
(3.73348e-22 1.11556e-19 5.54544e-05)
(-1.96326e-22 -5.96701e-20 6.42324e-05)
(-1.2576e-22 -7.59222e-21 7.21175e-05)
(1.13138e-22 7.57898e-21 7.92316e-05)
(8.05787e-23 -8.48752e-26 8.56794e-05)
(-8.82161e-23 7.70366e-21 9.15505e-05)
(-8.77808e-23 -3.86555e-20 9.69259e-05)
(1.20798e-22 3.8716e-20 0.000101893)
(-6.8774e-23 -7.78551e-21 0.000106581)
(3.2861e-23 2.35316e-20 0.000111238)
(-4.47403e-23 -7.82568e-21 0.00011638)
(-3.55047e-23 -1.58456e-20 0.000122999)
(2.65587e-23 7.93365e-21 0.000132792)
(2.48706e-24 -7.97962e-21 0.00014819)
(-1.45555e-20 2.21903e-20 -0.00104815)
(-2.74466e-22 -2.7402e-20 -0.0380881)
(5.23403e-21 -1.27301e-21 -0.0658682)
(-2.30351e-20 -1.81847e-20 -0.0845563)
(2.21941e-20 1.96131e-20 -0.0946397)
(-7.11345e-21 5.3978e-21 -0.0971683)
(4.92175e-21 -3.89969e-22 -0.0936343)
(-4.49103e-20 -1.29079e-19 -0.0857546)
(4.77595e-20 1.20747e-19 -0.0752396)
(-9.26672e-21 -3.08028e-21 -0.0635988)
(3.70125e-21 -7.29257e-21 -0.0520188)
(4.07726e-20 2.366e-19 -0.0413213)
(-4.35453e-20 -2.34819e-19 -0.0319843)
(-3.59246e-20 -2.84163e-19 -0.024203)
(4.90707e-21 -2.10497e-20 -0.017966)
(3.21325e-20 3.04449e-19 -0.0131313)
(-1.09443e-21 -4.7175e-21 -0.00948979)
(-9.65835e-22 -1.09216e-20 -0.00681282)
(1.20778e-24 -1.07618e-23 -0.00488336)
(6.50884e-23 -1.42355e-25 -0.0035129)
(2.60136e-22 3.53177e-24 -0.00254802)
(-3.7227e-22 -6.47362e-21 -0.00187011)
(1.12574e-20 3.89318e-19 -0.0013912)
(-1.2451e-20 -4.21619e-19 -0.00104732)
(9.80205e-21 4.16264e-19 -0.000795228)
(-5.51736e-21 -2.08273e-19 -0.000605346)
(-8.46859e-21 -4.33316e-19 -0.000458149)
(3.72183e-21 2.17844e-19 -0.000340893)
(2.73526e-22 -6.74852e-21 -0.00024526)
(-6.16805e-22 -1.40569e-20 -0.000165724)
(4.42119e-22 7.09587e-21 -9.85199e-05)
(-2.62848e-22 -2.1668e-20 -4.09818e-05)
(2.59734e-21 2.25098e-19 8.83462e-06)
(-5.45475e-21 -4.73491e-19 5.23766e-05)
(2.54962e-21 2.26535e-19 9.07323e-05)
(2.81808e-23 -2.20107e-20 0.000124731)
(-2.27399e-22 7.43021e-21 0.00015502)
(4.18802e-23 1.07889e-22 0.000182124)
(-8.64277e-22 -1.2859e-19 0.000206482)
(7.45417e-22 1.13403e-19 0.000228468)
(7.44093e-22 1.07272e-19 0.000248402)
(-1.00415e-21 -1.45506e-19 0.00026656)
(6.99757e-23 7.57261e-21 0.000283188)
(1.3465e-22 3.89147e-20 0.000298547)
(-2.62462e-22 -6.99878e-20 0.000313018)
(-2.06367e-22 -7.83938e-21 0.000327323)
(-1.35237e-22 -5.50817e-20 0.000342952)
(-8.76622e-23 -8.02673e-21 0.000362788)
(8.97199e-23 1.5785e-20 0.000391771)
(9.28859e-23 2.38905e-20 0.000437033)
(-1.56188e-20 1.16705e-22 -0.0130283)
(3.59667e-20 1.75885e-20 -0.0722081)
(-1.5247e-20 -5.32217e-21 -0.115174)
(-3.75403e-20 -1.21131e-20 -0.142611)
(1.45169e-20 6.44119e-21 -0.156017)
(-1.23614e-19 -1.83685e-19 -0.157593)
(1.32742e-19 1.69422e-19 -0.150015)
(1.67583e-19 3.02799e-19 -0.136118)
(-1.03232e-20 7.4417e-20 -0.118586)
(-3.13638e-19 -7.514e-19 -0.099711)
(3.15514e-19 8.59912e-19 -0.0812449)
(-1.52208e-19 -4.42112e-19 -0.0643711)
(-1.1418e-21 -1.10626e-20 -0.049753)
(-8.64871e-22 -1.08525e-21 -0.037634)
(1.10647e-19 6.41111e-19 -0.0279562)
(-1.4427e-20 2.53821e-20 -0.0204737)
(-9.39072e-20 -6.5596e-19 -0.0148476)
(3.54349e-21 2.13964e-20 -0.0107157)
(-8.88313e-22 2.87631e-23 -0.00773793)
(4.66863e-23 -3.41655e-22 -0.00562103)
(2.58628e-20 3.96466e-19 -0.00412736)
(-2.51522e-20 -3.83373e-19 -0.003074)
(-2.01798e-20 -4.01388e-19 -0.00232466)
(2.14454e-20 4.26682e-19 -0.00178319)
(2.70992e-22 1.36741e-20 -0.0013804)
(-4.13838e-22 -1.35004e-20 -0.00107385)
(3.0425e-23 1.40418e-20 -0.00083297)
(-1.11358e-20 -4.31579e-19 -0.000638413)
(1.22973e-20 4.4562e-19 -0.000477702)
(-9.9529e-21 -4.26211e-19 -0.000342504)
(1.06968e-20 4.54698e-19 -0.000227118)
(2.41097e-22 1.4399e-20 -0.000127497)
(7.60141e-21 4.67163e-19 -4.06744e-05)
(-1.50819e-20 -9.22222e-19 3.55769e-05)
(8.26618e-21 4.8423e-19 0.000102953)
(2.51029e-21 2.53562e-19 0.000162774)
(-2.1829e-21 -2.23285e-19 0.000216104)
(-7.6566e-22 -1.79282e-22 0.000263831)
(4.22502e-22 -6.72688e-24 0.00030672)
(1.14882e-22 -1.90073e-22 0.00034543)
(1.94751e-21 2.44972e-19 0.000380529)
(-2.06787e-21 -2.29589e-19 0.0004125)
(-2.793e-23 1.52421e-20 0.000441771)
(3.18871e-22 -8.19534e-23 0.000468783)
(7.18973e-22 1.24765e-19 0.000494145)
(-1.62668e-21 -2.34239e-19 0.000518992)
(8.72398e-22 1.25137e-19 0.000545642)
(-4.29925e-22 -6.29741e-20 0.00057859)
(2.99096e-22 4.7224e-20 0.000625597)
(8.40429e-23 1.5853e-20 0.000698052)
(1.29811e-21 2.68453e-20 -0.0406595)
(8.76535e-21 -5.06381e-20 -0.119662)
(1.63553e-19 2.06529e-19 -0.172685)
(-4.25912e-19 -4.20623e-19 -0.203274)
(2.78314e-19 2.12204e-19 -0.215097)
(1.81836e-19 2.65056e-19 -0.212086)
(-2.03337e-19 -2.44226e-19 -0.19825)
(2.16339e-19 3.57341e-19 -0.177408)
(-4.49831e-19 -7.68872e-19 -0.15294)
(2.44874e-19 3.98529e-19 -0.127587)
(-5.31498e-21 1.28062e-20 -0.103366)
(-4.40271e-21 7.21386e-22 -0.0815813)
(7.08389e-21 1.03288e-20 -0.0629136)
(-1.73144e-19 -6.43241e-19 -0.0475572)
(1.64727e-19 6.20513e-19 -0.0353628)
(2.30596e-21 2.2959e-20 -0.0259731)
(-5.89513e-22 -1.1875e-20 -0.0189334)
(1.04852e-19 7.51214e-19 -0.0137727)
(-1.04992e-19 -7.49529e-19 -0.010056)
(-1.28891e-21 -1.32331e-20 -0.00741156)
(-3.2727e-22 -1.41017e-23 -0.00554032)
(5.80681e-22 9.75747e-23 -0.00421331)
(3.32343e-22 -1.2926e-23 -0.0032617)
(-2.76607e-22 1.33466e-20 -0.00256415)
(1.0651e-21 5.34641e-23 -0.00203882)
(4.42697e-22 1.44781e-20 -0.00163045)
(-3.83633e-20 -9.06903e-19 -0.00130391)
(3.86414e-20 8.91914e-19 -0.00103531)
(-1.44185e-21 1.19912e-21 -0.000809633)
(-1.29721e-20 -4.59931e-19 -0.000616902)
(1.45373e-20 4.73789e-19 -0.000450276)
(-4.85362e-22 4.16253e-22 -0.000304874)
(-1.10506e-22 3.9466e-22 -0.000177092)
(-9.72772e-21 -4.88778e-19 -6.41972e-05)
(1.97663e-20 9.64759e-19 3.59381e-05)
(-1.8619e-20 -9.55054e-19 0.000125032)
(1.69568e-20 9.60276e-19 0.000204532)
(-1.55494e-20 -9.64765e-19 0.000275701)
(7.33083e-21 4.82897e-19 0.000339657)
(3.70228e-21 2.44553e-19 0.000397386)
(-3.18107e-21 -2.13334e-19 0.000449733)
(-2.91368e-23 -1.5332e-20 0.000497418)
(-2.72885e-21 -2.47244e-19 0.000541064)
(5.75929e-21 5.25576e-19 0.000581288)
(-2.7822e-21 -2.47426e-19 0.000618902)
(1.16549e-22 -1.94321e-22 0.000655357)
(2.14617e-22 1.56093e-20 0.000693575)
(-1.27589e-22 2.35737e-23 0.00073925)
(-1.03744e-22 -1.57227e-20 0.000802337)
(2.45422e-22 3.14761e-20 0.000897825)
(2.73619e-20 -3.03084e-23 -0.0927718)
(-1.05696e-21 -8.09453e-22 -0.187103)
(-5.74165e-20 -1.76548e-21 -0.241607)
(7.54944e-20 -3.41783e-21 -0.267239)
(-2.8039e-20 -7.31488e-21 -0.271077)
(-3.07087e-20 -1.49649e-21 -0.259147)
(1.50657e-20 5.01031e-21 -0.236653)
(-7.61898e-21 -6.77224e-21 -0.208036)
(4.08019e-20 -1.71822e-20 -0.176931)
(5.3531e-19 1.06171e-18 -0.146109)
(-3.95784e-20 8.45579e-20 -0.117496)
(-5.27719e-19 -1.16815e-18 -0.0922591)
(4.52284e-19 1.28819e-18 -0.0709291)
(-4.59632e-19 -1.2868e-18 -0.0535576)
(1.85197e-19 7.08635e-19 -0.0398666)
(-1.91673e-19 -7.32337e-19 -0.0293854)
(3.37869e-21 1.01738e-20 -0.0215624)
(-6.09631e-21 -1.19013e-20 -0.0158459)
(1.91959e-21 -1.25851e-20 -0.0117363)