/*--------------------------------*- C++ -*----------------------------------*\
| =========                 |                                                 |
| \\      /  F ield         | OpenFOAM: The Open Source CFD Toolbox           |
|  \\    /   O peration     | Version:  2412                                  |
|   \\  /    A nd           | Website:  www.openfoam.com                      |
|    \\/     M anipulation  |                                                 |
\*---------------------------------------------------------------------------*/
FoamFile
{
    version     2.0;
    format      ascii;
    arch        "LSB;label=32;scalar=64";
    class       volScalarField;
    location    "3.5";
    object      p;
}
// * * * * * * * * * * * * * * * * * * * * * * * * * * * * * * * * * * * * * //

dimensions      [0 2 -2 0 0 0 0];

internalField   nonuniform List<scalar> 
63420
(
0.00119185
0.00136174
0.00118526
0.00128609
0.00125624
0.00125807
0.00126579
0.00126691
0.0012703
0.00127445
0.00127871
0.00128341
0.00128852
0.00129401
0.00129989
0.00130615
0.00131278
0.00131978
0.00132715
0.0013349
0.00134301
0.0013515
0.00136035
0.00136958
0.00137918
0.00138915
0.00139949
0.00141022
0.00142133
0.00143282
0.0014447
0.00145697
0.00146963
0.00148269
0.00149615
0.00151002
0.00152429
0.00153898
0.00155409
0.00156963
0.00158559
0.00160198
0.00161882
0.00163609
0.00165382
0.00167199
0.00169063
0.00170973
0.0017293
0.00174934
0.00176986
0.00179087
0.00181237
0.00183436
0.00185686
0.00119166
0.0013617
0.0011852
0.00128594
0.00125622
0.00125798
0.00126571
0.00126684
0.00127022
0.00127437
0.00127863
0.00128332
0.00128843
0.00129392
0.00129979
0.00130604
0.00131266
0.00131966
0.00132703
0.00133477
0.00134287
0.00135135
0.0013602
0.00136941
0.001379
0.00138896
0.0013993
0.00141001
0.00142111
0.00143259
0.00144445
0.00145671
0.00146935
0.0014824
0.00149584
0.00150969
0.00152395
0.00153862
0.0015537
0.00156921
0.00158515
0.00160152
0.00161832
0.00163557
0.00165326
0.0016714
0.00169
0.00170907
0.00172859
0.00174859
0.00176907
0.00179003
0.00181148
0.00183341
0.00185585
0.00119128
0.00136162
0.00118508
0.00128564
0.00125617
0.00125779
0.00126555
0.00126669
0.00127006
0.0012742
0.00127846
0.00128314
0.00128824
0.00129372
0.00129958
0.00130582
0.00131244
0.00131942
0.00132678
0.0013345
0.0013426
0.00135106
0.00135989
0.00136909
0.00137865
0.0013886
0.00139891
0.0014096
0.00142067
0.00143213
0.00144396
0.00145619
0.0014688
0.00148181
0.00149522
0.00150903
0.00152325
0.00153788
0.00155292
0.00156839
0.00158427
0.00160059
0.00161734
0.00163452
0.00165215
0.00167023
0.00168876
0.00170774
0.00172719
0.00174711
0.00176749
0.00178836
0.0018097
0.00183153
0.00185384
0.0011907
0.00136153
0.00118489
0.0012852
0.00125611
0.0012575
0.00126531
0.00126648
0.00126982
0.00127395
0.0012782
0.00128287
0.00128796
0.00129343
0.00129928
0.0013055
0.0013121
0.00131907
0.00132641
0.00133411
0.00134218
0.00135062
0.00135942
0.00136859
0.00137814
0.00138805
0.00139833
0.00140899
0.00142002
0.00143143
0.00144323
0.00145541
0.00146798
0.00148094
0.0014943
0.00150805
0.00152221
0.00153678
0.00155175
0.00156715
0.00158296
0.00159919
0.00161586
0.00163296
0.00165049
0.00166847
0.00168689
0.00170576
0.00172509
0.00174488
0.00176513
0.00178585
0.00180705
0.00182871
0.00185085
0.0011899
0.00136151
0.00118459
0.00128463
0.00125604
0.0012571
0.001265
0.00126619
0.00126949
0.00127362
0.00127786
0.00128252
0.00128759
0.00129304
0.00129887
0.00130507
0.00131165
0.0013186
0.00132591
0.00133358
0.00134163
0.00135003
0.0013588
0.00136794
0.00137744
0.00138731
0.00139756
0.00140817
0.00141915
0.00143051
0.00144226
0.00145438
0.00146689
0.00147978
0.00149307
0.00150675
0.00152083
0.00153531
0.0015502
0.0015655
0.00158121
0.00159734
0.0016139
0.00163088
0.00164829
0.00166613
0.00168441
0.00170314
0.00172231
0.00174193
0.00176201
0.00178254
0.00180353
0.00182498
0.00184689
0.0011889
0.00136155
0.00118421
0.00128389
0.00125598
0.0012566
0.00126462
0.00126583
0.00126909
0.00127321
0.00127743
0.00128207
0.00128713
0.00129256
0.00129836
0.00130454
0.00131109
0.001318
0.00132529
0.00133293
0.00134093
0.0013493
0.00135803
0.00136712
0.00137658
0.0013864
0.00139659
0.00140714
0.00141807
0.00142937
0.00144104
0.00145309
0.00146552
0.00147833
0.00149153
0.00150512
0.00151911
0.00153349
0.00154827
0.00156345
0.00157904
0.00159504
0.00161145
0.00162829
0.00164554
0.00166322
0.00168133
0.00169987
0.00171885
0.00173826
0.00175812
0.00177842
0.00179917
0.00182035
0.00184198
0.00118789
0.00136128
0.00118415
0.00128276
0.001256
0.00125599
0.00126414
0.0012654
0.0012686
0.00127271
0.00127692
0.00128154
0.00128657
0.00129197
0.00129775
0.0013039
0.00131042
0.0013173
0.00132454
0.00133214
0.00134011
0.00134843
0.00135711
0.00136615
0.00137555
0.00138531
0.00139543
0.00140592
0.00141677
0.001428
0.00143959
0.00145155
0.00146389
0.00147661
0.0014897
0.00150318
0.00151705
0.00153131
0.00154595
0.001561
0.00157644
0.00159229
0.00160854
0.0016252
0.00164227
0.00165975
0.00167766
0.00169598
0.00171472
0.0017339
0.00175349
0.00177352
0.00179398
0.00181486
0.00183616
0.00187993
0.00190382
0.00192874
0.00195475
0.00198192
0.00201029
0.00203994
0.00207093
0.00210332
0.00213722
0.00217276
0.00221016
0.00224976
0.00229131
0.00233505
0.0023812
0.00242993
0.00248144
0.00253594
0.00259366
0.00265486
0.00271982
0.00278886
0.00286235
0.00294067
0.00302426
0.00311363
0.00320933
0.00331196
0.00342224
0.00354093
0.00366892
0.0038072
0.00395688
0.0041192
0.00429557
0.00448751
0.00469671
0.00492492
0.0051739
0.00544514
0.00573951
0.00605656
0.00639351
0.0067445
0.00710019
0.00744742
0.00778362
0.00818583
0.00877302
0.00187889
0.00190278
0.00192769
0.0019537
0.00198086
0.00200925
0.00203892
0.00206993
0.00210233
0.00213618
0.00217151
0.00220949
0.00224887
0.00229034
0.00233408
0.00238021
0.00242893
0.00248042
0.00253488
0.00259256
0.0026537
0.0027186
0.00278756
0.00286095
0.00293914
0.00302259
0.00311176
0.00320721
0.00330954
0.00341943
0.00353763
0.003665
0.00380248
0.00395113
0.00411213
0.00428678
0.00447649
0.00468275
0.00490709
0.00515094
0.00541536
0.00570063
0.00600549
0.00632613
0.00665524
0.0069819
0.00729189
0.00758157
0.00792305
0.00842779
0.00187682
0.0019007
0.00192562
0.00195162
0.00197877
0.00200712
0.00203676
0.00206778
0.00210028
0.00213443
0.0021705
0.00220763
0.00224692
0.00228839
0.00233212
0.00237824
0.00242692
0.00247836
0.00253276
0.00259036
0.0026514
0.00271618
0.00278499
0.00285818
0.00293613
0.00301927
0.00310807
0.00320305
0.00330478
0.00341391
0.00353116
0.0036573
0.00379322
0.00393987
0.00409828
0.00426957
0.00445487
0.00465536
0.00487206
0.00510576
0.00535663
0.00562375
0.00590422
0.00619202
0.00647701
0.00674497
0.00697985
0.00717624
0.00739138
0.007747
0.00187374
0.00189763
0.00192253
0.00194852
0.00197566
0.00200403
0.00203369
0.00206473
0.00209725
0.00213133
0.00216708
0.0022045
0.0022439
0.0022854
0.00232911
0.0023752
0.00242384
0.0024752
0.00252951
0.00258699
0.00264788
0.00271246
0.00278103
0.00285393
0.00293151
0.00301419
0.00310242
0.00319667
0.00329749
0.00340548
0.00352127
0.00364557
0.00377914
0.00392276
0.00407728
0.00424352
0.00442225
0.00461411
0.00481944
0.00503806
0.00526882
0.00550898
0.00575315
0.005992
0.00621107
0.00639107
0.00651309
0.00657368
0.00661321
0.00670746
0.00186965
0.00189352
0.0019184
0.00194437
0.00197149
0.00199983
0.00202946
0.00206049
0.00209302
0.00212714
0.00216294
0.0022005
0.00223997
0.00228149
0.0023252
0.00237127
0.00241985
0.00247114
0.00252534
0.00258268
0.00264339
0.00270774
0.00277603
0.00284856
0.00292569
0.00300779
0.00309527
0.0031886
0.00328824
0.00339473
0.00350861
0.00363048
0.00376092
0.00390054
0.00404987
0.00420937
0.0043793
0.0045596
0.00474967
0.00494802
0.00515177
0.00535571
0.00555119
0.00572451
0.00585562
0.00591859
0.00588962
0.00576948
0.00558937
0.00528454
0.00186458
0.00188844
0.00191333
0.0019393
0.00196642
0.00199477
0.00202444
0.00205553
0.00208815
0.00212237
0.00215829
0.00219599
0.00223559
0.00227723
0.00232104
0.00236719
0.00241584
0.00246719
0.00252143
0.00257879
0.00263951
0.00270383
0.00277205
0.00284446
0.0029214
0.00300322
0.00309029
0.00318304
0.00328189
0.00338729
0.0034997
0.00361958
0.00374736
0.00388339
0.00402788
0.00418084
0.00434187
0.00450997
0.00468316
0.00485797
0.00502859
0.00518571
0.00531501
0.00539554
0.00539871
0.00528962
0.00503798
0.0046465
0.00414304
0.00330407
0.00185853
0.00188233
0.00190716
0.00193306
0.00196012
0.00198842
0.00201805
0.00204912
0.00208173
0.00211595
0.00215188
0.0021896
0.00222922
0.00227086
0.00231466
0.00236078
0.00240938
0.00246067
0.00251483
0.00257209
0.00263268
0.00269685
0.00276487
0.00283704
0.00291365
0.00299506
0.0030816
0.00317364
0.00327157
0.00337576
0.00348659
0.00360439
0.00372941
0.00386176
0.00400135
0.00414769
0.00429968
0.00445529
0.00461092
0.00476055
0.00489447
0.00499745
0.00504678
0.00501079
0.00484917
0.00451597
0.00397446
0.00323806
0.00228753
0.000780749
-0.00312045
-0.0030446
-0.00287027
-0.00261745
-0.00230762
-0.00196824
-0.00162638
-0.00130545
-0.00102235
-0.000786226
-0.000599116
-0.000457797
-0.000355964
-0.000286116
-0.000240869
-0.00021372
-0.000199343
-0.000193612
-0.00019346
-0.000196687
-0.000201759
-0.000207642
-0.000213667
-0.00021941
-0.000224617
-0.00022915
-0.000232958
-0.000236036
-0.000238403
-0.000240098
-0.000241172
-0.000241677
-0.000241668
-0.000241198
-0.000240316
-0.00023907
-0.000237502
-0.000235652
-0.000233556
-0.000231246
-0.000228752
-0.000226101
-0.000223315
-0.000220417
-0.000217425
-0.000214356
-0.000211228
-0.000208053
-0.000204845
-0.000201618
-0.00329501
-0.00316407
-0.00296892
-0.00270429
-0.0023875
-0.0020438
-0.0016982
-0.00137294
-0.00108462
-0.000842524
-0.000649047
-0.000501351
-0.000393451
-0.000318053
-0.000267882
-0.000236462
-0.000218443
-0.00020964
-0.000206918
-0.000208005
-0.000211302
-0.000215713
-0.000220515
-0.000225243
-0.000229603
-0.000233428
-0.000236643
-0.000239221
-0.000241164
-0.000242499
-0.000243265
-0.000243506
-0.000243269
-0.000242602
-0.000241548
-0.000240152
-0.000238452
-0.000236487
-0.000234288
-0.000231888
-0.000229313
-0.000226588
-0.000223738
-0.000220781
-0.000217737
-0.000214621
-0.00021145
-0.000208237
-0.000204995
-0.000201738
-0.00362876
-0.00338669
-0.00315538
-0.00286901
-0.00253903
-0.00218733
-0.00183504
-0.00150215
-0.00120449
-0.000951513
-0.000746227
-0.00058653
-0.000467072
-0.000381001
-0.000321287
-0.000281536
-0.000256371
-0.000241517
-0.000233716
-0.000230563
-0.00023033
-0.00023181
-0.000234174
-0.000236874
-0.000239543
-0.000241956
-0.000243983
-0.00024556
-0.000246657
-0.000247272
-0.000247423
-0.000247137
-0.000246447
-0.000245386
-0.000243991
-0.000242296
-0.000240335
-0.000238139
-0.000235737
-0.000233156
-0.00023042
-0.000227552
-0.000224572
-0.0002215
-0.000218352
-0.000215143
-0.000211887
-0.000208599
-0.00020529
-0.000201972
-0.0040652
-0.00371014
-0.00342056
-0.00310087
-0.00275135
-0.00238775
-0.00202601
-0.00168291
-0.00137295
-0.00110551
-0.000884287
-0.00070814
-0.000572624
-0.000471563
-0.00039833
-0.000346701
-0.000311301
-0.000287748
-0.000272623
-0.000263344
-0.000258006
-0.000255235
-0.000254064
-0.000253816
-0.000254026
-0.000254381
-0.000254681
-0.000254801
-0.000254663
-0.00025423
-0.000253486
-0.000252432
-0.000251079
-0.000249446
-0.000247552
-0.000245423
-0.00024308
-0.000240548
-0.000237849
-0.000235004
-0.000232033
-0.000228956
-0.000225788
-0.000222547
-0.000219247
-0.000215902
-0.000212523
-0.000209124
-0.000205715
-0.00020231
-0.00458137
-0.0041135
-0.00374659
-0.00337997
-0.00300324
-0.00262399
-0.0022515
-0.0018982
-0.0015762
-0.00129409
-0.0010559
-0.000861435
-0.00070733
-0.000588339
-0.000498497
-0.00043196
-0.000383493
-0.00034869
-0.000324004
-0.000306669
-0.000294586
-0.000286189
-0.000280327
-0.00027617
-0.000273122
-0.00027075
-0.000268763
-0.000266956
-0.00026519
-0.000263373
-0.000261449
-0.000259383
-0.00025716
-0.000254773
-0.000252225
-0.000249523
-0.000246679
-0.000243705
-0.000240615
-0.000237423
-0.000234144
-0.00023079
-0.000227375
-0.000223912
-0.000220411
-0.000216885
-0.000213344
-0.000209798
-0.000206258
-0.000202735
-0.00497546
-0.00448709
-0.00405871
-0.00364798
-0.00324924
-0.002862
-0.00248794
-0.00213419
-0.00180931
-0.00152002
-0.00127006
-0.00105995
-0.000887614
-0.000749142
-0.000639753
-0.000554506
-0.000488768
-0.000438464
-0.000400166
-0.000371078
-0.000348976
-0.000332114
-0.00031915
-0.000309055
-0.000301047
-0.000294541
-0.000289097
-0.000284393
-0.000280191
-0.000276319
-0.000272652
-0.000269103
-0.00026561
-0.000262131
-0.00025864
-0.000255119
-0.000251561
-0.000247961
-0.000244322
-0.000240645
-0.000236935
-0.0002332
-0.000229444
-0.000225677
-0.000221903
-0.000218132
-0.000214372
-0.000210629
-0.000206913
-0.000203234
-0.00519959
-0.00487781
-0.0044463
-0.0039962
-0.00356898
-0.00316356
-0.00277671
-0.00241242
-0.00207681
-0.00177491
-0.00150976
-0.00128204
-0.00109033
-0.000931545
-0.000801713
-0.000696621
-0.000612204
-0.000544779
-0.000491131
-0.000448533
-0.000414717
-0.000387818
-0.000366323
-0.000349027
-0.000334964
-0.000323373
-0.000313662
-0.000305375
-0.000298158
-0.000291741
-0.000285921
-0.000280543
-0.00027549
-0.000270676
-0.000266037
-0.000261527
-0.000257112
-0.000252768
-0.00024848
-0.000244236
-0.000240029
-0.000235856
-0.000231714
-0.000227605
-0.000223528
-0.000219487
-0.000215486
-0.000211529
-0.000207621
-0.000203772
-0.000198373
-0.000195088
-0.000191741
-0.00018834
-0.000184891
-0.000181397
-0.000177856
-0.000174268
-0.000170633
-0.000166953
-0.000163235
-0.000159485
-0.000155709
-0.000151917
-0.000148114
-0.000144308
-0.000140505
-0.00013671
-0.000132928
-0.000129163
-0.00012542
-0.000121703
-0.000118013
-0.000114356
-0.000110734
-0.000107149
-0.000103606
-0.000100106
-9.66523e-05
-9.32471e-05
-8.98927e-05
-8.65913e-05
-8.33449e-05
-8.01554e-05
-7.70246e-05
-7.39542e-05
-7.09456e-05
-6.80002e-05
-6.51193e-05
-6.23041e-05
-5.95554e-05
-5.68743e-05
-5.42615e-05
-5.17173e-05
-4.92428e-05
-4.68384e-05
-4.45037e-05
-4.22393e-05
-4.00453e-05
-3.79216e-05
-3.5868e-05
-3.38843e-05
-3.197e-05
-3.01248e-05
-2.83481e-05
-2.66391e-05
-2.49973e-05
-2.34216e-05
-2.19112e-05
-2.04652e-05
-1.90823e-05
-1.77616e-05
-1.65017e-05
-1.53013e-05
-1.41592e-05
-1.30739e-05
-1.2044e-05
-1.10679e-05
-1.01442e-05
-9.27121e-06
-8.44727e-06
-7.67084e-06
-6.94012e-06
-6.25351e-06
-5.60918e-06
-5.00557e-06
-4.44068e-06
-3.91309e-06
-3.42073e-06
-2.96219e-06
-2.53534e-06
-2.13903e-06
-1.77063e-06
-1.42967e-06
-1.11304e-06
-8.20198e-07
-5.49035e-07
-2.97293e-07
-6.46584e-08
1.52124e-07
3.53644e-07
5.41682e-07
7.18922e-07
8.85427e-07
1.0449e-06
1.19756e-06
1.34658e-06
1.49277e-06
1.64139e-06
1.78406e-06
1.96009e-06
2.05202e-06
2.43324e-06
2.03289e-06
3.75963e-06
3.31374e-07
8.53375e-06
-6.73714e-06
2.01745e-05
-1.80252e-05
2.63267e-05
-5.49175e-06
-8.73655e-06
4.70553e-05
-4.8729e-05
-0.000198475
-0.000195171
-0.000191807
-0.000188392
-0.00018493
-0.000181422
-0.000177869
-0.00017427
-0.000170625
-0.000166937
-0.000163212
-0.000159456
-0.000155677
-0.000151882
-0.000148077
-0.00014427
-0.000140466
-0.000136671
-0.000132889
-0.000129124
-0.000125381
-0.000121663
-0.000117974
-0.000114317
-0.000110695
-0.000107111
-0.000103569
-0.000100069
-9.66164e-05
-9.32119e-05
-8.98584e-05
-8.65579e-05
-8.33124e-05
-8.01239e-05
-7.69941e-05
-7.39247e-05
-7.09171e-05
-6.79728e-05
-6.50929e-05
-6.22787e-05
-5.95311e-05
-5.68509e-05
-5.42391e-05
-5.1696e-05
-4.92224e-05
-4.68189e-05
-4.44851e-05
-4.22217e-05
-4.00285e-05
-3.79057e-05
-3.58529e-05
-3.387e-05
-3.19565e-05
-3.01121e-05
-2.8336e-05
-2.66278e-05
-2.49866e-05
-2.34116e-05
-2.19018e-05
-2.04563e-05
-1.90741e-05
-1.77538e-05
-1.64944e-05
-1.52946e-05
-1.41529e-05
-1.3068e-05
-1.20385e-05
-1.10629e-05
-1.01395e-05
-9.2669e-06
-8.44329e-06
-7.66717e-06
-6.93674e-06
-6.25041e-06
-5.60633e-06
-5.00295e-06
-4.4383e-06
-3.91091e-06
-3.41875e-06
-2.9604e-06
-2.53371e-06
-2.13756e-06
-1.7693e-06
-1.42847e-06
-1.11198e-06
-8.19236e-07
-5.48196e-07
-2.96534e-07
-6.40113e-08
1.52715e-07
3.54119e-07
5.42124e-07
7.19262e-07
8.85717e-07
1.04515e-06
1.1977e-06
1.34673e-06
1.49282e-06
1.64142e-06
1.78404e-06
1.95998e-06
2.05198e-06
2.43286e-06
2.03312e-06
3.75852e-06
3.32601e-07
8.53124e-06
-6.73512e-06
2.01731e-05
-1.8028e-05
2.6333e-05
-5.50001e-06
-8.73426e-06
4.70627e-05
-4.87485e-05
-0.000198671
-0.000195331
-0.000191934
-0.00018849
-0.000185002
-0.00018147
-0.000177893
-0.000174272
-0.000170607
-0.000166903
-0.000163165
-0.000159399
-0.000155613
-0.000151812
-0.000148005
-0.000144195
-0.000140389
-0.000136593
-0.00013281
-0.000129045
-0.000125302
-0.000121584
-0.000117896
-0.000114239
-0.000110618
-0.000107035
-0.000103494
-9.99959e-05
-9.65444e-05
-9.31416e-05
-8.97898e-05
-8.64911e-05
-8.32475e-05
-8.00609e-05
-7.69331e-05
-7.38657e-05
-7.08601e-05
-6.79179e-05
-6.50401e-05
-6.22279e-05
-5.94823e-05
-5.68042e-05
-5.41944e-05
-5.16532e-05
-4.91816e-05
-4.678e-05
-4.4448e-05
-4.21864e-05
-3.9995e-05
-3.78738e-05
-3.58227e-05
-3.38414e-05
-3.19295e-05
-3.00865e-05
-2.83119e-05
-2.66051e-05
-2.49652e-05
-2.33915e-05
-2.1883e-05
-2.04387e-05
-1.90575e-05
-1.77383e-05
-1.648e-05
-1.52811e-05
-1.41403e-05
-1.30564e-05
-1.20277e-05
-1.10528e-05
-1.01302e-05
-9.25827e-06
-8.43532e-06
-7.65982e-06
-6.92998e-06
-6.24419e-06
-5.60063e-06
-4.99772e-06
-4.43354e-06
-3.90655e-06
-3.4148e-06
-2.9568e-06
-2.53045e-06
-2.13462e-06
-1.76665e-06
-1.42608e-06
-1.10986e-06
-8.17322e-07
-5.46509e-07
-2.95032e-07
-6.27041e-08
1.53869e-07
3.55095e-07
5.42972e-07
7.19961e-07
8.86286e-07
1.04561e-06
1.19802e-06
1.34698e-06
1.49292e-06
1.64145e-06
1.78399e-06
1.95975e-06
2.05189e-06
2.43213e-06
2.03353e-06
3.7563e-06
3.35029e-07
8.52621e-06
-6.73108e-06
2.01704e-05
-1.80334e-05
2.63457e-05
-5.51652e-06
-8.72963e-06
4.70774e-05
-4.8787e-05
-0.000198947
-0.000195556
-0.000192112
-0.000188627
-0.0001851
-0.000181531
-0.00017792
-0.000174268
-0.000170576
-0.000166848
-0.000163092
-0.000159312
-0.000155516
-0.000151708
-0.000147895
-0.000144082
-0.000140274
-0.000136476
-0.000132692
-0.000128927
-0.000125183
-0.000121466
-0.000117778
-0.000114122
-0.000110503
-0.000106921
-0.000103382
-9.98857e-05
-9.64364e-05
-9.3036e-05
-8.96868e-05
-8.63908e-05
-8.315e-05
-7.99664e-05
-7.68416e-05
-7.37772e-05
-7.07747e-05
-6.78355e-05
-6.49608e-05
-6.21517e-05
-5.94092e-05
-5.67341e-05
-5.41273e-05
-5.1589e-05
-4.91203e-05
-4.67215e-05
-4.43924e-05
-4.21334e-05
-3.99447e-05
-3.78261e-05
-3.57775e-05
-3.37985e-05
-3.18889e-05
-3.00482e-05
-2.82758e-05
-2.6571e-05
-2.49332e-05
-2.33614e-05
-2.18547e-05
-2.04121e-05
-1.90327e-05
-1.77151e-05
-1.64583e-05
-1.52608e-05
-1.41215e-05
-1.30388e-05
-1.20114e-05
-1.10377e-05
-1.01162e-05
-9.24532e-06
-8.42337e-06
-7.64879e-06
-6.91984e-06
-6.23486e-06
-5.59209e-06
-4.98988e-06
-4.42639e-06
-3.90002e-06
-3.40886e-06
-2.95141e-06
-2.52556e-06
-2.13021e-06
-1.76268e-06
-1.4225e-06
-1.10667e-06
-8.14458e-07
-5.43982e-07
-2.92788e-07
-6.07439e-08
1.55589e-07
3.56561e-07
5.44235e-07
7.21009e-07
8.87138e-07
1.0463e-06
1.1985e-06
1.34735e-06
1.49309e-06
1.64149e-06
1.78391e-06
1.9594e-06
2.05174e-06
2.43104e-06
2.03414e-06
3.753e-06
3.38629e-07
8.51874e-06
-6.72518e-06
2.01666e-05
-1.80419e-05
2.63652e-05
-5.54162e-06
-8.72268e-06
4.70998e-05
-4.88445e-05
-0.000199284
-0.000195829
-0.000192327
-0.000188789
-0.000185212
-0.000181597
-0.000177943
-0.000174252
-0.000170527
-0.000166771
-0.000162992
-0.000159196
-0.000155386
-0.00015157
-0.00014775
-0.000143932
-0.000140121
-0.000136321
-0.000132535
-0.000128769
-0.000125025
-0.000121308
-0.000117621
-0.000113966
-0.000110348
-0.000106769
-0.000103232
-9.97386e-05
-9.62923e-05
-9.28952e-05
-8.95494e-05
-8.62571e-05
-8.30201e-05
-7.98403e-05
-7.67195e-05
-7.36592e-05
-7.06608e-05
-6.77257e-05
-6.48551e-05
-6.20501e-05
-5.93117e-05
-5.66407e-05
-5.40378e-05
-5.15035e-05
-4.90387e-05
-4.66437e-05
-4.43182e-05
-4.20628e-05
-3.98776e-05
-3.77624e-05
-3.57171e-05
-3.37414e-05
-3.18349e-05
-2.99972e-05
-2.82277e-05
-2.65257e-05
-2.48905e-05
-2.33212e-05
-2.1817e-05
-2.03768e-05
-1.89996e-05
-1.76842e-05
-1.64294e-05
-1.52339e-05
-1.40964e-05
-1.30155e-05
-1.19897e-05
-1.10176e-05
-1.00975e-05
-9.22807e-06
-8.40744e-06
-7.6341e-06
-6.90632e-06
-6.22243e-06
-5.5807e-06
-4.97944e-06
-4.41687e-06
-3.89131e-06
-3.40096e-06
-2.94422e-06
-2.51906e-06
-2.12433e-06
-1.75739e-06
-1.41773e-06
-1.10242e-06
-8.10645e-07
-5.40614e-07
-2.89801e-07
-5.8132e-08
1.57874e-07
3.58516e-07
5.45913e-07
7.22405e-07
8.88273e-07
1.04722e-06
1.19915e-06
1.34783e-06
1.49332e-06
1.64154e-06
1.7838e-06
1.95894e-06
2.05152e-06
2.4296e-06
2.03491e-06
3.74865e-06
3.43271e-07
8.5091e-06
-6.71795e-06
2.01626e-05
-1.80549e-05
2.63929e-05
-5.57613e-06
-8.71387e-06
4.71319e-05
-4.89224e-05
-0.000199663
-0.000196134
-0.000192566
-0.000188965
-0.000185329
-0.000181659
-0.000177956
-0.00017422
-0.000170456
-0.000166669
-0.000162864
-0.000159048
-0.000155224
-0.000151396
-0.000147569
-0.000143745
-0.000139929
-0.000136126
-0.000132338
-0.000128571
-0.000124827
-0.00012111
-0.000117424
-0.000113771
-0.000110155
-0.000106579
-0.000103044
-9.95546e-05
-9.61121e-05
-9.27191e-05
-8.93777e-05
-8.60899e-05
-8.28577e-05
-7.96828e-05
-7.65669e-05
-7.35117e-05
-7.05184e-05
-6.75885e-05
-6.4723e-05
-6.19232e-05
-5.91899e-05
-5.65239e-05
-5.39261e-05
-5.13967e-05
-4.89366e-05
-4.65464e-05
-4.42255e-05
-4.19746e-05
-3.97938e-05
-3.76829e-05
-3.56417e-05
-3.367e-05
-3.17674e-05
-2.99334e-05
-2.81675e-05
-2.6469e-05
-2.48371e-05
-2.32711e-05
-2.17699e-05
-2.03327e-05
-1.89582e-05
-1.76455e-05
-1.63932e-05
-1.52002e-05
-1.4065e-05
-1.29863e-05
-1.19626e-05
-1.09924e-05
-1.00742e-05
-9.20652e-06
-8.38754e-06
-7.61575e-06
-6.88944e-06
-6.2069e-06
-5.56647e-06
-4.96639e-06
-4.40497e-06
-3.88044e-06
-3.39108e-06
-2.93525e-06
-2.51093e-06
-2.11698e-06
-1.75078e-06
-1.41177e-06
-1.09711e-06
-8.05886e-07
-5.36407e-07
-2.86074e-07
-5.487e-08
1.60724e-07
3.6096e-07
5.48005e-07
7.24148e-07
8.8969e-07
1.04835e-06
1.19997e-06
1.34842e-06
1.49361e-06
1.6416e-06
1.78366e-06
1.95837e-06
2.05124e-06
2.4278e-06
2.03588e-06
3.7432e-06
3.49114e-07
8.49698e-06
-6.70884e-06
2.01576e-05
-1.80711e-05
2.64278e-05
-5.61945e-06
-8.70266e-06
4.71721e-05
-4.90161e-05
-0.000200064
-0.000196455
-0.000192815
-0.000189143
-0.000185442
-0.000181711
-0.000177953
-0.000174169
-0.000170363
-0.000166541
-0.000162709
-0.000158871
-0.00015503
-0.000151189
-0.000147352
-0.000143521
-0.0001397
-0.000135892
-0.000132102
-0.000128333
-0.000124588
-0.000120872
-0.000117187
-0.000113536
-0.000109923
-0.00010635
-0.000102819
-9.93336e-05
-9.58957e-05
-9.25077e-05
-8.91715e-05
-8.58892e-05
-8.26627e-05
-7.94937e-05
-7.63839e-05
-7.33347e-05
-7.03476e-05
-6.74239e-05
-6.45646e-05
-6.1771e-05
-5.90438e-05
-5.63839e-05
-5.3792e-05
-5.12685e-05
-4.88143e-05
-4.64297e-05
-4.41144e-05
-4.18689e-05
-3.96933e-05
-3.75876e-05
-3.55513e-05
-3.35844e-05
-3.16865e-05
-2.9857e-05
-2.80954e-05
-2.6401e-05
-2.47732e-05
-2.32109e-05
-2.17135e-05
-2.02797e-05
-1.89087e-05
-1.75991e-05
-1.63499e-05
-1.51598e-05
-1.40274e-05
-1.29513e-05
-1.193e-05
-1.09623e-05
-1.00463e-05
-9.18068e-06
-8.36368e-06
-7.59375e-06
-6.86919e-06
-6.18829e-06
-5.54941e-06
-4.95076e-06
-4.3907e-06
-3.86741e-06
-3.37924e-06
-2.92448e-06
-2.50118e-06
-2.10817e-06
-1.74285e-06
-1.40463e-06
-1.09075e-06
-8.00183e-07
-5.31363e-07
-2.81607e-07
-5.09585e-08
1.64136e-07
3.6389e-07
5.5051e-07
7.26237e-07
8.91389e-07
1.04972e-06
1.20095e-06
1.34913e-06
1.49396e-06
1.64166e-06
1.7835e-06
1.95766e-06
2.05095e-06
2.42552e-06
2.03735e-06
3.73586e-06
3.57927e-07
8.47871e-06
-6.69115e-06
2.01409e-05
-1.80767e-05
2.64561e-05
-5.66483e-06
-8.68205e-06
4.71988e-05
-4.90941e-05
-0.000200485
-0.00019679
-0.000193067
-0.000189319
-0.000185546
-0.000181751
-0.000177934
-0.000174099
-0.00017025
-0.000166392
-0.000162529
-0.000158665
-0.000154804
-0.000150947
-0.000147096
-0.000143255
-0.000139426
-0.000135613
-0.00013182
-0.000128048
-0.000124303
-0.000120587
-0.000116904
-0.000113255
-0.000109645
-0.000106076
-0.00010255
-9.90693e-05
-9.5637e-05
-9.22549e-05
-8.8925e-05
-8.56494e-05
-8.24297e-05
-7.92678e-05
-7.61652e-05
-7.31233e-05
-7.01436e-05
-6.72273e-05
-6.43754e-05
-6.15892e-05
-5.88693e-05
-5.62166e-05
-5.36319e-05
-5.11155e-05
-4.86682e-05
-4.62903e-05
-4.39817e-05
-4.17427e-05
-3.95734e-05
-3.74737e-05
-3.54434e-05
-3.34823e-05
-3.15898e-05
-2.97657e-05
-2.80093e-05
-2.63199e-05
-2.46968e-05
-2.31391e-05
-2.16461e-05
-2.02165e-05
-1.88495e-05
-1.75438e-05
-1.62982e-05
-1.51116e-05
-1.39824e-05
-1.29095e-05
-1.18912e-05
-1.09263e-05
-1.00129e-05
-9.14982e-06
-8.3352e-06
-7.56748e-06
-6.84503e-06
-6.16606e-06
-5.52905e-06
-4.93209e-06
-4.37367e-06
-3.85185e-06
-3.3651e-06
-2.91163e-06
-2.48955e-06
-2.09764e-06
-1.73339e-06
-1.3961e-06
-1.08315e-06
-7.93376e-07
-5.25341e-07
-2.76278e-07
-4.62885e-08
1.68206e-07
3.6739e-07
5.53496e-07
7.28731e-07
8.93418e-07
1.05134e-06
1.20213e-06
1.34996e-06
1.49438e-06
1.64172e-06
1.7833e-06
1.95681e-06
2.05065e-06
2.42262e-06
2.0396e-06
3.72582e-06
3.71452e-07
8.45052e-06
-6.65805e-06
2.01014e-05
-1.80573e-05
2.64635e-05
-5.70569e-06
-8.64418e-06
4.7189e-05
-4.91256e-05
-0.000200931
-0.000197138
-0.000193323
-0.000189489
-0.000185637
-0.000181769
-0.000177888
-0.000173997
-0.000170101
-0.000166202
-0.000162306
-0.000158415
-0.000154531
-0.000150656
-0.000146791
-0.000142939
-0.000139102
-0.000135283
-0.000131486
-0.000127712
-0.000123966
-0.000120251
-0.000116569
-0.000112924
-0.000109317
-0.000105753
-0.000102232
-9.87578e-05
-9.53321e-05
-9.19572e-05
-8.86348e-05
-8.53671e-05
-8.21556e-05
-7.9002e-05
-7.59079e-05
-7.28747e-05
-6.99037e-05
-6.69961e-05
-6.4153e-05
-6.13754e-05
-5.86641e-05
-5.602e-05
-5.34438e-05
-5.09356e-05
-4.84965e-05
-4.61266e-05
-4.38257e-05
-4.15943e-05
-3.94324e-05
-3.73399e-05
-3.53166e-05
-3.33622e-05
-3.14763e-05
-2.96584e-05
-2.79081e-05
-2.62245e-05
-2.4607e-05
-2.30548e-05
-2.15669e-05
-2.01422e-05
-1.87799e-05
-1.74787e-05
-1.62375e-05
-1.50549e-05
-1.39296e-05
-1.28604e-05
-1.18456e-05
-1.08839e-05
-9.97375e-06
-9.11357e-06
-8.30173e-06
-7.53661e-06
-6.81663e-06
-6.13995e-06
-5.50512e-06
-4.91015e-06
-4.35365e-06
-3.83357e-06
-3.34848e-06
-2.89653e-06
-2.47588e-06
-2.08528e-06
-1.72227e-06
-1.38609e-06
-1.07421e-06
-7.8538e-07
-5.18265e-07
-2.70018e-07
-4.08019e-08
1.72986e-07
3.71503e-07
5.57003e-07
7.31661e-07
8.95801e-07
1.05324e-06
1.20351e-06
1.35094e-06
1.49488e-06
1.6418e-06
1.78305e-06
1.95587e-06
2.0501e-06
2.41973e-06
2.04096e-06
3.71692e-06
3.81279e-07
8.42866e-06
-6.63753e-06
2.00806e-05
-1.80629e-05
2.64946e-05
-5.75844e-06
-8.61836e-06
4.72153e-05
-4.92082e-05
-0.000201377
-0.000197477
-0.000193565
-0.00018964
-0.000185706
-0.000181764
-0.000177817
-0.000173868
-0.000169921
-0.000165981
-0.000162049
-0.000158128
-0.00015422
-0.000150325
-0.000146444
-0.00014258
-0.000138734
-0.000134908
-0.000131106
-0.00012733
-0.000123584
-0.000119869
-0.00011619
-0.000112548
-0.000108946
-0.000105387
-0.000101872
-9.84052e-05
-9.49872e-05
-9.16203e-05
-8.83066e-05
-8.50478e-05
-8.18456e-05
-7.87015e-05
-7.56171e-05
-7.25937e-05
-6.96325e-05
-6.67348e-05
-6.39016e-05
-6.11339e-05
-5.84325e-05
-5.5798e-05
-5.32313e-05
-5.07325e-05
-4.83025e-05
-4.59417e-05
-4.36496e-05
-4.14268e-05
-3.92732e-05
-3.71889e-05
-3.51734e-05
-3.32266e-05
-3.13481e-05
-2.95374e-05
-2.77938e-05
-2.61169e-05
-2.45057e-05
-2.29595e-05
-2.14774e-05
-2.00584e-05
-1.87014e-05
-1.74053e-05
-1.61689e-05
-1.49909e-05
-1.38701e-05
-1.28049e-05
-1.17941e-05
-1.08362e-05
-9.9295e-06
-9.07264e-06
-8.26394e-06
-7.50176e-06
-6.78457e-06
-6.11047e-06
-5.4781e-06
-4.8854e-06
-4.33105e-06
-3.81294e-06
-3.32972e-06
-2.87949e-06
-2.46045e-06
-2.07133e-06
-1.70972e-06
-1.37478e-06
-1.06413e-06
-7.76357e-07
-5.10277e-07
-2.62953e-07
-3.46085e-08
1.78379e-07
3.76146e-07
5.60958e-07
7.34969e-07
8.9849e-07
1.05539e-06
1.20507e-06
1.35204e-06
1.49544e-06
1.64189e-06
1.78275e-06
1.95486e-06
2.04933e-06
2.41681e-06
2.04166e-06
3.70871e-06
3.88776e-07
8.41015e-06
-6.62346e-06
2.00679e-05
-1.80785e-05
2.65333e-05
-5.81413e-06
-8.59755e-06
4.72527e-05
-4.93064e-05
-0.000201808
-0.000197797
-0.000193783
-0.000189766
-0.000185748
-0.00018173
-0.000177716
-0.000173709
-0.000169711
-0.000165727
-0.000161757
-0.000157805
-0.00015387
-0.000149953
-0.000146055
-0.000142177
-0.000138321
-0.000134488
-0.000130681
-0.000126902
-0.000123155
-0.000119442
-0.000115765
-0.000112127
-0.000108531
-0.000104978
-0.000101471
-9.80113e-05
-9.46019e-05
-9.12443e-05
-8.79403e-05
-8.46915e-05
-8.14997e-05
-7.83663e-05
-7.52928e-05
-7.22803e-05
-6.93303e-05
-6.64437e-05
-6.36215e-05
-6.08648e-05
-5.81743e-05
-5.55506e-05
-5.29945e-05
-5.05062e-05
-4.80865e-05
-4.57357e-05
-4.34534e-05
-4.12402e-05
-3.9096e-05
-3.70206e-05
-3.50139e-05
-3.30756e-05
-3.12053e-05
-2.94025e-05
-2.76666e-05
-2.5997e-05
-2.43929e-05
-2.28535e-05
-2.13779e-05
-1.9965e-05
-1.8614e-05
-1.73235e-05
-1.60925e-05
-1.49197e-05
-1.38037e-05
-1.27432e-05
-1.17368e-05
-1.0783e-05
-9.88022e-06
-9.02706e-06
-8.22186e-06
-7.46295e-06
-6.74886e-06
-6.07765e-06
-5.44801e-06
-4.85783e-06
-4.30588e-06
-3.78997e-06
-3.30883e-06
-2.8605e-06
-2.44327e-06
-2.05579e-06
-1.69574e-06
-1.36219e-06
-1.05289e-06
-7.66309e-07
-5.0138e-07
-2.55087e-07
-2.77105e-08
1.84383e-07
3.81318e-07
5.65361e-07
7.38652e-07
9.01485e-07
1.05778e-06
1.20682e-06
1.35325e-06
1.49607e-06
1.64199e-06
1.78241e-06
1.95376e-06
2.0484e-06
2.41375e-06
2.04199e-06
3.70038e-06
3.9574e-07
8.39129e-06
-6.60904e-06
2.00524e-05
-1.809e-05
2.65656e-05
-5.86569e-06
-8.57465e-06
4.72791e-05
-4.93879e-05
-0.000202211
-0.000198087
-0.000193969
-0.000189858
-0.000185755
-0.000181662
-0.00017758
-0.000173513
-0.000169464
-0.000165434
-0.000161426
-0.000157441
-0.000153478
-0.000149538
-0.000145621
-0.000141728
-0.000137861
-0.00013402
-0.000130208
-0.000126427
-0.00012268
-0.000118968
-0.000115295
-0.000111662
-0.000108071
-0.000104525
-0.000101026
-9.75758e-05
-9.41762e-05
-9.08289e-05
-8.75357e-05
-8.42982e-05
-8.1118e-05
-7.79965e-05
-7.4935e-05
-7.19347e-05
-6.89969e-05
-6.61226e-05
-6.33127e-05
-6.05682e-05
-5.78897e-05
-5.52779e-05
-5.27336e-05
-5.02568e-05
-4.78485e-05
-4.55087e-05