/*--------------------------------*- C++ -*----------------------------------*\
| =========                 |                                                 |
| \\      /  F ield         | OpenFOAM: The Open Source CFD Toolbox           |
|  \\    /   O peration     | Version:  2412                                  |
|   \\  /    A nd           | Website:  www.openfoam.com                      |
|    \\/     M anipulation  |                                                 |
\*---------------------------------------------------------------------------*/
FoamFile
{
    version     2.0;
    format      ascii;
    arch        "LSB;label=32;scalar=64";
    class       surfaceScalarField;
    location    "3.5";
    object      phi;
}
// * * * * * * * * * * * * * * * * * * * * * * * * * * * * * * * * * * * * * //

dimensions      [0 3 -1 0 0 0 0];

oriented        oriented;

internalField   nonuniform List<scalar> 
126304
(
0.00504962
1.13773e-06
-1.18178e-09
0.0050405
9.13034e-06
-6.35876e-09
0.00503186
8.6495e-06
-8.73116e-09
0.00502557
6.29311e-06
-4.96526e-09
0.00502318
2.38687e-06
7.74113e-12
0.00502264
5.36074e-07
3.85634e-09
0.00502252
1.1187e-07
5.84368e-09
0.0050222
3.14302e-07
6.68306e-09
0.00502148
7.13876e-07
6.92896e-09
0.0050204
1.07644e-06
6.84975e-09
0.00501904
1.35032e-06
6.63912e-09
0.00501749
1.5494e-06
6.45167e-09
0.00501578
1.69603e-06
6.33229e-09
0.00501397
1.80929e-06
6.26503e-09
0.00501206
1.90263e-06
6.23043e-09
0.00501007
1.98474e-06
6.20514e-09
0.005008
2.06109e-06
6.14629e-09
0.00500586
2.13513e-06
6.03832e-09
0.00500364
2.20899e-06
5.92793e-09
0.00500135
2.28406e-06
5.83085e-09
0.00499899
2.36126e-06
5.72022e-09
0.00499654
2.4412e-06
5.57051e-09
0.00499401
2.52422e-06
5.38472e-09
0.0049914
2.61056e-06
5.19184e-09
0.00498869
2.70038e-06
5.00797e-09
0.00498589
2.7938e-06
4.82665e-09
0.004983
2.89095e-06
4.63576e-09
0.00498
2.99191e-06
4.42288e-09
0.0049769
3.09677e-06
4.18973e-09
0.00497369
3.20561e-06
3.93396e-09
0.00497037
3.31852e-06
3.66865e-09
0.00496693
3.43558e-06
3.39819e-09
0.00496337
3.55691e-06
3.13454e-09
0.00495968
3.68263e-06
2.87701e-09
0.00495587
3.81292e-06
2.62106e-09
0.00495192
3.94795e-06
2.35935e-09
0.00494783
4.08795e-06
2.08355e-09
0.00494359
4.23318e-06
1.79372e-09
0.00493921
4.38392e-06
1.48639e-09
0.00493466
4.54052e-06
1.16659e-09
0.00492996
4.7034e-06
8.39168e-10
0.00492509
4.87307e-06
5.1132e-10
0.00492004
5.05011e-06
1.87048e-10
0.0049148
5.23529e-06
-1.36126e-10
0.00490937
5.4295e-06
-4.62094e-10
0.00490374
5.63386e-06
-7.95598e-10
0.00489789
5.84975e-06
-1.13595e-09
0.00489181
6.0789e-06
-1.47622e-09
0.00488549
6.32343e-06
-1.80391e-09
0.00487891
6.58596e-06
-2.10658e-09
0.00487204
6.86919e-06
-2.37385e-09
0.00486487
7.1749e-06
-2.5991e-09
0.00485737
7.50153e-06
-2.77877e-09
0.00484953
7.84088e-06
-2.91277e-09
8.17628e-06
0.00484136
-3.00305e-09
0.00504965
2.24445e-06
0.00504065
1.81327e-05
0.00503219
1.71121e-05
0.00502594
1.25419e-05
0.00502352
4.80483e-06
0.0050229
1.15095e-06
0.00502271
3.05706e-07
0.00502233
6.93713e-07
0.00502157
1.47497e-06
0.00502046
2.1856e-06
0.00501909
2.72312e-06
0.00501752
3.11464e-06
0.00501581
3.4037e-06
0.005014
3.62758e-06
0.00501209
3.81257e-06
0.0050101
3.97566e-06
0.00500803
4.12756e-06
0.00500589
4.27499e-06
0.00500368
4.4222e-06
0.00500139
4.57192e-06
0.00499902
4.72595e-06
0.00499658
4.88541e-06
0.00499405
5.05104e-06
0.00499144
5.2233e-06
0.00498874
5.40252e-06
0.00498594
5.58896e-06
0.00498305
5.78282e-06
0.00498006
5.98428e-06
0.00497696
6.19349e-06
0.00497376
6.41062e-06
0.00497044
6.63584e-06
0.00496701
6.86935e-06
0.00496345
7.11136e-06
0.00495977
7.36214e-06
0.00495596
7.622e-06
0.00495202
7.8913e-06
0.00494794
8.17047e-06
0.00494371
8.46e-06
0.00493933
8.76047e-06
0.0049348
9.07257e-06
0.00493011
9.39711e-06
0.00492525
9.73507e-06
0.00492021
1.00876e-05
0.00491499
1.04563e-05
0.00490957
1.08427e-05
0.00490396
1.12491e-05
0.00489813
1.16782e-05
0.00489208
1.21332e-05
0.00488578
1.26184e-05
0.00487923
1.31386e-05
0.0048724
1.36992e-05
0.00486527
1.43035e-05
0.00485782
1.49485e-05
0.00485004
1.56184e-05
1.62812e-05
0.00484194
0.00504973
3.27472e-06
0.00504099
2.68689e-05
0.00503289
2.5216e-05
0.0050267
1.8725e-05
0.00502421
7.29787e-06
0.00502344
1.92365e-06
0.00502309
6.54884e-07
0.00502259
1.19039e-06
0.00502175
2.31603e-06
0.00502059
3.3457e-06
0.00501919
4.12693e-06
0.0050176
4.69813e-06
0.00501589
5.12162e-06
0.00501406
5.45104e-06
0.00501215
5.72444e-06
0.00501016
5.96637e-06
0.00500809
6.19234e-06
0.00500596
6.41211e-06
0.00500375
6.63187e-06
0.00500146
6.85561e-06
0.0049991
7.08592e-06
0.00499667
7.32444e-06
0.00499414
7.57221e-06
0.00499154
7.82994e-06
0.00498884
8.09812e-06
0.00498605
8.3771e-06
0.00498317
8.66719e-06
0.00498019
8.96863e-06
0.0049771
9.28164e-06
0.0049739
9.60648e-06
0.00497059
9.94338e-06
0.00496717
1.02926e-05
0.00496363
1.06546e-05
0.00495996
1.10296e-05
0.00495616
1.14181e-05
0.00495223
1.18206e-05
0.00494817
1.22379e-05
0.00494396
1.26705e-05
0.0049396
1.31193e-05
0.00493508
1.35853e-05
0.00493041
1.40697e-05
0.00492557
1.45739e-05
0.00492056
1.50997e-05
0.00491537
1.5649e-05
0.00490999
1.62244e-05
0.00490441
1.68291e-05
0.00489862
1.74666e-05
0.00489261
1.81419e-05
0.00488637
1.88607e-05
0.00487988
1.963e-05
0.00487312
2.04571e-05
0.00486608
2.13467e-05
0.00485873
2.22945e-05
0.00485107
2.32783e-05
2.42529e-05
0.0048431
0.00504987
4.15827e-06
0.00504158
3.5158e-05
0.00503402
3.27854e-05
0.00502791
2.48348e-05
0.00502527
9.9299e-06
0.00502425
2.94695e-06
0.00502366
1.24138e-06
0.00502299
1.86237e-06
0.00502203
3.2748e-06
0.0050208
4.57996e-06
0.00501935
5.57546e-06
0.00501774
6.30771e-06
0.00501601
6.85397e-06
0.00501418
7.28161e-06
0.00501226
7.63871e-06
0.00501027
7.95636e-06
0.00500821
8.25426e-06
0.00500608
8.54482e-06
0.00500387
8.83597e-06
0.0050016
9.1328e-06
0.00499924
9.4386e-06
0.00499681
9.75545e-06
0.0049943
1.00847e-05
0.0049917
1.04272e-05
0.00498902
1.07837e-05
0.00498624
1.11545e-05
0.00498337
1.15401e-05
0.0049804
1.19408e-05
0.00497732
1.23568e-05
0.00497414
1.27884e-05
0.00497085
1.32361e-05
0.00496744
1.37e-05
0.00496391
1.41808e-05
0.00496026
1.46787e-05
0.00495649
1.51946e-05
0.00495258
1.57289e-05
0.00494853
1.62825e-05
0.00494435
1.68563e-05
0.00494002
1.74514e-05
0.00493553
1.8069e-05
0.00493089
1.87106e-05
0.00492609
1.93781e-05
0.00492111
2.00736e-05
0.00491596
2.07996e-05
0.00491063
2.15593e-05
0.0049051
2.23565e-05
0.00489937
2.31959e-05
0.00489343
2.40832e-05
0.00488726
2.50255e-05
0.00488086
2.60315e-05
0.00487421
2.71098e-05
0.00486729
2.8266e-05
0.00486009
2.94947e-05
0.0048526
3.07688e-05
3.20338e-05
0.00484482
0.00505011
4.81032e-06
0.00504247
4.27902e-05
0.00503559
3.96654e-05
0.00502955
3.0878e-05
0.0050267
1.278e-05
0.00502533
4.31667e-06
0.00502443
2.14423e-06
0.00502353
2.76329e-06
0.00502242
4.38486e-06
0.00502109
5.90842e-06
0.00501958
7.08024e-06
0.00501794
7.94974e-06
0.00501619
8.60398e-06
0.00501435
9.12054e-06
0.00501244
9.55535e-06
0.00501045
9.94476e-06
0.00500839
1.03118e-05
0.00500626
1.06712e-05
0.00500407
1.10323e-05
0.0050018
1.1401e-05
0.00499946
1.17812e-05
0.00499704
1.21755e-05
0.00499454
1.25853e-05
0.00499195
1.30118e-05
0.00498928
1.34556e-05
0.00498652
1.39174e-05
0.00498366
1.43976e-05
0.0049807
1.48965e-05
0.00497765
1.54144e-05
0.00497448
1.59517e-05
0.00497121
1.65087e-05
0.00496782
1.7086e-05
0.00496432
1.76841e-05
0.0049607
1.83034e-05
0.00495695
1.89447e-05
0.00495307
1.96088e-05
0.00494905
2.02965e-05
0.0049449
2.10091e-05
0.0049406
2.17478e-05
0.00493616
2.25139e-05
0.00493156
2.33094e-05
0.0049268
2.41362e-05
0.00492188
2.49969e-05
0.00491678
2.58944e-05
0.00491151
2.68323e-05
0.00490605
2.78149e-05
0.0049004
2.88475e-05
0.00489455
2.99366e-05
0.00488848
3.109e-05
0.0048822
3.23172e-05
0.00487568
3.36277e-05
0.00486892
3.50274e-05
0.0048619
3.651e-05
0.00485462
3.80447e-05
3.95709e-05
0.00484709
0.00505043
5.14098e-06
0.00504363
4.95864e-05
0.00503758
4.57112e-05
0.00503158
3.68857e-05
0.00502844
1.59183e-05
0.00502664
6.11781e-06
0.00502535
3.42992e-06
0.00502418
3.93624e-06
0.00502289
5.67259e-06
0.00502145
7.34643e-06
0.00501988
8.64985e-06
0.0050182
9.62877e-06
0.00501643
1.03737e-05
0.00501459
1.09683e-05
0.00501267
1.14739e-05
0.00501068
1.19304e-05
0.00500863
1.23634e-05
0.00500651
1.27893e-05
0.00500433
1.32184e-05
0.00500207
1.36575e-05
0.00499974
1.41109e-05
0.00499733
1.45814e-05
0.00499485
1.50707e-05
0.00499228
1.55801e-05
0.00498963
1.61103e-05
0.00498688
1.66619e-05
0.00498404
1.72354e-05
0.00498111
1.78312e-05
0.00497807
1.84496e-05
0.00497493
1.90911e-05
0.00497169
1.97561e-05
0.00496833
2.0445e-05
0.00496485
2.11585e-05
0.00496126
2.18971e-05
0.00495754
2.26616e-05
0.0049537
2.3453e-05
0.00494972
2.42723e-05
0.00494561
2.51206e-05
0.00494136
2.59995e-05
0.00493696
2.69105e-05
0.00493242
2.78555e-05
0.00492772
2.88369e-05
0.00492286
2.98573e-05
0.00491783
3.09201e-05
0.00491263
3.20289e-05
0.00490726
3.31884e-05
0.0049017
3.44042e-05
0.00489596
3.56831e-05
0.00489001
3.70331e-05
0.00488387
3.8464e-05
0.00487751
3.99852e-05
0.00487093
4.16024e-05
0.00486414
4.33082e-05
0.00485711
4.50697e-05
4.6822e-05
0.00484986
0.0050507
5.20025e-06
0.00504512
5.5163e-05
0.00503977
5.10662e-05
0.00503389
4.2764e-05
0.00503038
1.94215e-05
0.00502809
8.41119e-06
0.00502639
5.13343e-06
0.00502491
5.40933e-06
0.00502343
7.15448e-06
0.00502188
8.903e-06
0.00502024
1.02894e-05
0.00501852
1.13474e-05
0.00501673
1.21641e-05
0.00501487
1.28249e-05
0.00501295
1.33934e-05
0.00501097
1.39118e-05
0.00500893
1.44071e-05
0.00500682
1.48968e-05
0.00500465
1.53919e-05
0.0050024
1.58997e-05
0.00500009
1.64248e-05
0.0049977
1.69702e-05
0.00499523
1.75377e-05
0.00499269
1.81287e-05
0.00499005
1.87439e-05
0.00498733
1.9384e-05
0.00498452
2.00494e-05
0.00498161
2.07407e-05
0.0049786
2.1458e-05
0.00497549
2.2202e-05
0.00497227
2.29729e-05
0.00496894
2.37714e-05
0.0049655
2.4598e-05
0.00496195
2.54535e-05
0.00495827
2.63386e-05
0.00495447
2.72544e-05
0.00495054
2.82019e-05
0.00494648
2.91825e-05
0.00494228
3.01976e-05
0.00493794
3.1249e-05
0.00493346
3.23387e-05
0.00492883
3.34692e-05
0.00492404
3.46431e-05
0.0049191
3.58639e-05
0.00491399
3.71354e-05
0.00490872
3.84623e-05
0.00490327
3.98501e-05
0.00489765
4.13055e-05
0.00489184
4.28364e-05
0.00488586
4.44519e-05
0.00487968
4.6161e-05
0.00487331
4.79684e-05
0.00486676
4.98656e-05
0.00486001
5.1818e-05
0.00485308
5.37551e-05
0.00484331
-1.95309e-06
-3.07106e-09
0.00484486
-1.54103e-06
-3.15121e-09
0.00484612
-1.25794e-06
-3.20848e-09
0.00484727
-1.1446e-06
-3.24889e-09
0.00484847
-1.20409e-06
-3.27696e-09
0.00484987
-1.38882e-06
-3.29721e-09
0.00485148
-1.60677e-06
-3.31306e-09
0.00485323
-1.74547e-06
-3.3256e-09
0.00485493
-1.70081e-06
-3.32933e-09
0.00485633
-1.39585e-06
-3.3209e-09
0.00485713
-7.93017e-07
-3.29625e-09
0.00485702
1.13194e-07
-3.20566e-09
0.00485585
1.16507e-06
-3.12371e-09
0.00485339
2.4647e-06
-3.06724e-09
0.00484948
3.91106e-06
-3.00789e-09
0.00484402
5.47147e-06
-2.96434e-09
0.00483689
7.12861e-06
-2.90785e-09
0.00482801
8.87911e-06
-2.85736e-09
0.00481728
1.07312e-05
-2.86812e-09
0.00480459
1.27021e-05
-2.90547e-09
0.00478977
1.48151e-05
-2.96695e-09
0.00477268
1.70988e-05
-3.02142e-09
0.00475309
1.95863e-05
-3.02061e-09
0.00473078
2.23155e-05
-2.94068e-09
0.00470546
2.53295e-05
-2.77557e-09
0.00467678
2.86772e-05
-2.53511e-09
0.00464437
3.24146e-05
-2.24226e-09
0.00460776
3.66068e-05
-1.92706e-09
0.00456643
4.13306e-05
-1.61994e-09
0.00451976
4.66787e-05
-1.34578e-09
0.00446699
5.27641e-05
-1.12009e-09
0.00440727
5.97267e-05
-9.50273e-10
0.00433953
6.774e-05
-8.35778e-10
0.00426251
7.70209e-05
-7.66848e-10
0.00417467
8.78426e-05
-7.27177e-10
0.00407412
0.000100551
-6.97606e-10
0.00395853
0.000115589
-6.59177e-10
0.00382501
0.000133523
-5.96724e-10
0.00366993
0.000155073
-5.03803e-10
0.00348881
0.000181125
-3.82494e-10
0.0032761
0.000212704
-2.47025e-10
0.00302529
0.000250818
-1.1651e-10
0.00272923
0.000296056
-1.00518e-11
0.00238146
0.000347773
6.33022e-11
0.00197874
0.000402722
1.14398e-10
0.00152562
0.000453117
1.74706e-10
0.00104114
0.00048448
2.62287e-10
0.000567513
0.000473625
3.44201e-10
0.000181131
0.000386381
3.1476e-10
0.000181131
1.17573e-10
0.00484256
-2.57173e-06
0.00484276
-1.74254e-06
0.00484266
-1.16111e-06
0.00484242
-9.05471e-07
0.0048422
-9.81805e-07
0.00484211
-1.29708e-06
0.00484218
-1.67207e-06
0.00484232
-1.89044e-06
0.00484238
-1.75701e-06
0.00484211
-1.12898e-06
0.00484115
1.64328e-07
0.00483944
1.82086e-06
0.0048366
4.00649e-06
0.00483249
6.57562e-06
0.00482697
9.43637e-06
0.00481991
1.25256e-05
0.00481123
1.58108e-05
0.00480082
1.92867e-05
0.00478858
2.29706e-05
0.00477439
2.68967e-05
0.00475809
3.11116e-05
0.00473952
3.56719e-05
0.00471846
4.06436e-05
0.00469468
4.61021e-05
0.00466787
5.21332e-05
0.00463771
5.88346e-05
0.00460381
6.63183e-05
0.0045657
7.47144e-05
0.00452286
8.41764e-05
0.00447465
9.48893e-05
0.00442033
0.000107079
0.00435903
0.000121025
0.0042897
0.000137072
0.00421107
0.000155652
0.00412161
0.000177307
0.00401943
0.000202726
0.00390224
0.000232782
0.00376717
0.000268596
0.00361065
0.000311584
0.00342829
0.000363488
0.0032147
0.0004263
0.00296357
0.000501947
0.00266814
0.000591482
0.00232246
0.000693456
0.00192395
0.000801234
0.00147783
0.000899237
0.0010036
0.000958709
0.000543151
0.00093407
0.000169982
0.000759551
0.000351113
0.00484106
-5.3055e-07
0.00483859
7.26018e-07
0.00483579
1.63335e-06
0.0048328
2.08397e-06
0.00482975
2.06976e-06
0.00482673
1.7253e-06
0.00482375
1.30784e-06
0.00482073
1.1249e-06
0.00481754
1.44055e-06
0.00481395
2.46211e-06
0.00480981
4.29992e-06
0.00480476
6.87198e-06
0.00479865
1.01185e-05
0.00479131
1.39097e-05
0.00478262
1.81276e-05
0.00477246
2.26878e-05
0.00476072
2.75478e-05
0.00474731
3.27033e-05
0.0047321
3.81818e-05
0.00471496
4.40347e-05
0.00469574
5.03313e-05
0.00467425
5.71557e-05
0.00465029
6.46058e-05
0.0046236
7.27939e-05
0.00459388
8.18481e-05
0.0045608
9.19147e-05
0.00452396
0.000103162
0.00448289
0.000115783
0.00443706
0.000130011
0.00438583
0.00014612
0.00432846
0.000164451
0.00426406
0.000185419
0.00419159
0.000209539
0.00410979
0.000237453
0.00401714
0.000269965
0.00391177
0.000308092
0.00379143
0.000353123
0.00365332
0.0004067
0.00349402
0.000470889
0.0033093
0.00054821
0.00309409
0.000641505
0.00284259
0.000753445
0.00254878
0.000885291
0.00220775
0.0010345
0.00181816
0.00119082
0.00138641
0.00133099
0.000932562
0.00141256
0.000498085
0.00136855
0.00015278
0.00110486
0.000503893
0.00483883
5.46163e-06
0.0048324
7.15362e-06
0.0048256
8.42872e-06
0.00481854
9.14957e-06
0.0048113
9.30777e-06
0.00480396
9.06674e-06
0.00479653
8.73928e-06
0.00478895
8.70541e-06
0.00478108
9.31069e-06
0.00477274
1.08008e-05
0.00476376
1.32798e-05
0.00475393
1.67053e-05
0.00474308
2.09647e-05
0.00473108
2.5912e-05
0.00471779
3.14113e-05
0.00470311
3.73667e-05
0.00468693
4.37317e-05
0.00466913
5.05069e-05
0.00464958
5.77314e-05
0.00462814
6.54739e-05
0.00460464
7.38259e-05
0.0045789
8.28979e-05
0.00455069
9.28188e-05
0.00451975
0.000103737
0.00448577
0.000115823
0.00444841
0.00012927
0.00440727
0.000144303
0.00436188
0.000161181
0.00431168
0.00018021
0.00425604
0.000201761
0.0041942
0.000226282
0.0041253
0.000254324
0.00404827
0.00028657
0.00396185
0.000323865
0.00386456
0.000367261
0.00375456
0.000418086
0.00362967
0.000478013
0.00348722
0.000549157
0.00332395
0.000634153
0.00313599
0.000736174
0.00291877
0.000858721
0.0026673
0.00100492
0.00237671
0.00117588
0.00204366
0.00136755
0.00166859
0.00156588
0.00125931
0.00174026
0.000835962
0.00183591
0.000437883
0.00176663
0.000128359
0.00141438
0.000632253
0.0048359
1.6646e-05
0.00482428
1.87807e-05
0.00481224
2.04611e-05
0.00479986
2.15305e-05
0.00478719
2.19788e-05
0.00477427
2.19892e-05
0.00476109
2.1914e-05
0.00474762
2.21834e-05
0.00473373
2.31935e-05
0.00471932
2.5219e-05
0.00470422
2.83732e-05
0.00468831
3.26205e-05
0.00467144
3.78367e-05
0.00465348
4.38642e-05
0.00463433
5.05603e-05
0.00461387
5.78264e-05
0.00459199
6.56193e-05
0.00456855
7.39478e-05
0.00454341
8.28644e-05
0.00451643
9.24551e-05
0.00448742
0.000102833
0.00445619
0.000114134
0.00442249
0.000126517
0.00438606
0.000140166
0.00434659
0.000155293
0.00430372
0.00017214
0.00425704
0.000190984
0.00420607
0.000212152
0.00415025
0.000236027
0.00408894
0.000263069
0.00402139
0.000293837
0.0039467
0.000329016
0.00386382
0.000369448
0.00377151
0.000416171
0.0036683
0.000470473
0.00355243
0.000533962
0.00342179
0.00060865
0.0032739
0.000697047
0.00310581
0.000802239
0.00291413
0.000927858
0.00269508
0.00107777
0.00244483
0.00125517
0.00216021
0.00146049
0.00184
0.00168776
0.0014869
0.00191898
0.00111018
0.00211698
0.000729095
0.002217
0.000377158
0.00211856
0.000104078
0.00168746
0.000736331
0.00483231
3.42015e-05
0.00481431
3.67755e-05
0.00479588
3.88908e-05
0.00477703
4.03793e-05
0.00475778
4.12295e-05
0.00473814
4.16349e-05
0.00471808
4.19681e-05
0.00469758
4.26865e-05
0.00467656
4.42119e-05
0.00465494
4.68369e-05
0.00463263
5.06851e-05
0.00460952
5.57285e-05
0.00458551
6.18442e-05
0.0045605
6.88761e-05
0.00453438
7.66849e-05
0.00450703
8.51788e-05
0.00447832
9.43236e-05
0.00444813
0.00010414
0.0044163
0.000114695
0.00438266
0.000126093
0.00434703
0.000138467
0.00430918
0.000151979
0.00426888
0.000166817
0.00422585
0.000183199
0.00417976
0.000201379
0.00413026
0.000221645
0.00407691
0.000244333
0.00401923
0.000269832
0.00395665
0.000298603
0.00388852
0.000331198
0.00381408
0.000368285
0.00373241
0.00041068
0.00364248
0.000459377
0.00354305
0.000515599
0.00343268
0.000580844
0.00330968
0.000656964
0.00317209
0.00074624
0.00301768
0.000851461
0.00284395
0.000975966
0.00264828
0.00112353
0.00242813
0.00129792
0.00218156
0.00150174
0.001908
0.00173405
0.00160945
0.00198631
0.00129182
0.00223662
0.000966083
0.00244272
0.000649394
0.00253369
0.000363278
0.00240468
0.00012505
0.00192569
0.000861381
0.00482805
5.92239e-05
0.00480261
6.22215e-05
0.00477671
6.47852e-05
0.00475035
6.67426e-05
0.0047235
6.80809e-05
0.00469614
6.89955e-05
0.00466824
6.98637e-05
0.00463978
7.11495e-05
0.00461071
7.32822e-05
0.00458098
7.65613e-05
0.00455055
8.11181e-05
0.00451935
8.69343e-05
0.00448729
9.38973e-05
0.00445431
0.000101863
0.00442028
0.000110706
0.00438512
0.000120348
0.00434867
0.000130769
0.0043108
0.000142006
0.00427136
0.000154141
0.00423015
0.000167297
0.004187
0.000181627
0.00414166
0.000197317
0.00409389
0.000214585
0.0040434
0.000233685
0.00398987
0.000254908
0.00393293
0.000278592
0.00387213
0.000305128
0.00380699
0.000334971
0.00373694
0.000368657
0.0036613
0.000406831
0.00357932
0.000450271
0.00349008
0.00049992
0.00339253
0.000556922
0.00328546
0.000622671
0.00316745
0.000698859
0.00303687
0.000787541
0.00289191
0.000891199
0.00273059
0.00101278
0.0025509
0.00115566
0.00235106
0.00132337
0.00212999
0.00151899
0.00188809
0.00174365
0.00162827
0.00199387
0.0013572
0.00225738
0.00108629
0.00250752
0.000831628
0.00269738
0.000610262
0.00275506
0.000428951
0.00258599
0.000263662
0.00209098
0.00112504
-1.69915e-05
1.69913e-05
2.56028e-10
-1.03247e-06
-1.59601e-05
1.0565e-09
7.58972e-05
-7.69315e-05
1.83659e-09
0.000223985
-0.00014809
2.32024e-09
0.000440298
-0.000216316
2.46328e-09
0.000713361
-0.000273065
2.31579e-09
0.00102714
-0.00031378
2.01834e-09
0.00136425
-0.000337112
1.74629e-09
0.00170836
-0.000344113
1.64747e-09
0.00204576
-0.0003374
1.79222e-09
0.00236611
-0.000320358
2.16967e-09
0.00266258
-0.000296471
2.7003e-09
0.00293144
-0.000268864
3.27e-09
0.00317149
-0.00024005
3.77205e-09
0.00338334
-0.000211857
4.1279e-09
0.00356881
-0.000185473
4.29374e-09
0.00373036
-0.000161552
4.26036e-09
0.0038707
-0.000140349
4.04467e-09
0.00399255
-0.000121852
3.67639e-09
0.00409843
-0.00010588
3.1869e-09
0.0041906
-9.21718e-05
2.6538e-09
0.00427103
-8.04355e-05
1.98058e-09
0.00434142
-7.03856e-05
1.4625e-09
0.00440317
-6.17606e-05
1.37285e-09
0.0044575
-5.4331e-05
1.83599e-09
0.0045054
-4.79023e-05
2.93534e-09
0.00454771
-4.23122e-05
4.27817e-09
0.00458513
-3.74274e-05
5.67599e-09
0.00461826
-3.31384e-05
7.03528e-09
0.00464761
-2.93555e-05
8.22624e-09
0.00467361
-2.60052e-05
9.1538e-09
0.00469662
-2.30265e-05
9.77691e-09
0.00471698
-2.03689e-05
1.01074e-08
0.00473496
-1.79902e-05
1.01955e-08
0.00475081
-1.5855e-05
1.01089e-08
0.00476473
-1.39336e-05
9.91367e-09
0.00477692
-1.22012e-05
9.66589e-09
0.00478755
-1.06365e-05
9.40565e-09
0.00479676
-9.22149e-06
9.15848e-09
0.00480469
-7.94105e-06
8.93901e-09
0.00481147
-6.7824e-06
8.75303e-09
0.00481719
-5.735e-06
8.60151e-09
0.00482198
-4.79044e-06
8.48402e-09
0.00482591
-3.94243e-06
8.39865e-09
0.00482909
-3.1867e-06
8.3426e-09
0.0048316
-2.52081e-06
8.31446e-09
0.00483354
-1.94326e-06
8.31374e-09
0.00483498
-1.45116e-06
8.33972e-09
0.00483601
-1.03585e-06
8.39099e-09
-6.76304e-07
0.00483667
8.4647e-09
-8.40141e-06
2.53927e-05
2.24647e-05
-4.68262e-05
0.000113524
-0.000167991
0.000270999
-0.000305564
0.000490604
-0.000435921
0.000761069
-0.00054353
0.00106757
-0.000620281
0.00139437
-0.000663917
0.00172679
-0.000676531
0.00205247
-0.000663082
0.00236206
-0.000629939
0.00264925
-0.000583667
0.00291057
-0.00053018
0.00314478
-0.000474266
0.00335236
-0.000419436
0.00353488
-0.000367992
0.00369456
-0.000321226
0.00383387
-0.000279665
0.00395533
-0.000243313
0.0040613
-0.000211848
0.00415391
-0.000184781
0.00423504
-0.00016156
0.00430629
-0.00014164
0.00436905
-0.000124518
0.00442447
-0.000109749
0.00447352
-9.69546e-05
0.00451703
-8.58193e-05
0.00455568
-7.60815e-05
0.00459007
-6.75263e-05
0.00462069
-5.99773e-05
0.00464797
-5.3289e-05
0.00467229
-4.73411e-05
0.00469395
-4.20331e-05
0.00471324
-3.72814e-05
0.0047304
-3.30158e-05
0.00474565
-2.91772e-05
0.00475916
-2.57159e-05
0.00477112
-2.25895e-05
0.00478166
-1.97621e-05
0.00479092
-1.72034e-05
0.00479902
-1.48876e-05
0.00480608
-1.27935e-05
0.0048122
-1.09042e-05
0.00481746
-9.20682e-06
0.00482197
-7.69244e-06
0.0048258
-6.35576e-06
0.00482905
-5.19326e-06
0.0048318
-4.19888e-06
0.00483412
-3.35533e-06
-2.62144e-06
0.00483606
8.99092e-06
1.64018e-05
6.47047e-05
-0.00010254
0.000179789
-0.000283075
0.000353038
-0.000478813
0.00057739
-0.000660273
0.000842049
-0.000808189
0.00113448
-0.000912716
0.00144198
-0.000971409
0.0017528
-0.000987352
0.00205702
-0.000967308
0.00234699
-0.000919904
0.00261738
-0.000854062
0.00286509
-0.000777888
0.00308885
-0.000698022
0.00328881
-0.000619397
0.00346612
-0.000545309
0.00362256
-0.000477661
0.00376017
-0.00041728
0.00388111
-0.000364244
0.00398742
-0.000318158
0.004081
-0.00027837
0.00416357
-0.000244126
0.0042366
-0.000214666
0.00430136
-0.000189281
0.00435895
-0.00016734
0.00441029
-0.000148299
0.00445618
-0.000131704
0.00449727
-0.000117176
0.00453415
-0.000104401
0.00456729
-9.31208e-05
0.00459712
-8.31209e-05
0.00462401
-7.42237e-05
0.00464825
-6.6281e-05
0.00467014
-5.91688e-05
0.00468991
-5.27828e-05
0.00470777
-4.70355e-05
0.0047239
-4.18524e-05
0.00473848
-3.71707e-05
0.00475166
-3.29363e-05
0.00476356
-2.91036e-05
0.0047743
-2.56339e-05
0.00478401
-2.24951e-05
0.00479276
-1.96612e-05
0.00480067
-1.71122e-05
0.00480781
-1.48342e-05
0.00481427
-1.2818e-05
0.00482014
-1.10572e-05
0.00482548
-9.54205e-06
0.00483037
-8.24675e-06
-7.11159e-06
0.00483486
2.81515e-05
-1.17498e-05
0.000115678
-0.000190066
0.000259153
-0.000426551
0.000449344
-0.000669004
0.000676536
-0.000887465
0.000930999
-0.00106265
0.00120336
-0.00118507
0.00148478
-0.00125283
0.00176721
-0.00126979
0.00204371
-0.0012438
0.00230862
-0.00118482
0.00255777
-0.00110321
0.00278843
-0.00100855
0.00299923
-0.000908816
0.00318989
-0.000810059
0.00336101
-0.000716428
0.00351375
-0.000630408
0.00364965
-0.000553172
0.00377035
-0.00048495
0.00387755
-0.000425358
0.00397285
-0.000373668
0.00405772
-0.000328993
0.00413347
-0.000290417
0.00420126
-0.000257073
0.0042621
-0.000228177
0.00431685
-0.000203048
0.00436625
-0.000181109
0.00441095
-0.000161876
0.0044515
-0.000144945
0.00448836
-0.000129982
0.00452195
-0.000116709
0.00455262
-0.000104893
0.00458067
-9.43395e-05
0.00460639
-8.48865e-05
0.00463001
-7.63968e-05
0.00465173
-6.87548e-05
0.00467174
-6.18625e-05
0.0046902
-5.56362e-05
0.00470727
-5.00043e-05
0.00472307
-4.49055e-05
0.00473773
-4.02881e-05
0.00475134
-3.61086e-05
0.00476401
-3.23318e-05
0.00477583
-2.89299e-05
0.00478688
-2.58828e-05
0.00479723
-2.31766e-05
0.00480698
-2.0801e-05
0.00481618
-1.87414e-05
0.00482489
-1.69641e-05
-1.53932e-05
0.00483318
4.82315e-05
-5.99813e-05
0.000168426
-0.00031026
0.000337144
-0.000595269
0.000538577
-0.000870437
0.000761921
-0.00111081
0.000999655
-0.00130039
0.00124621
-0.00143163
0.00149692
-0.00150353
0.00174745
-0.00152032
0.0019937
-0.00149006
0.00223192
-0.00142303
0.00245888
-0.00133018
0.00267212
-0.00122179
0.00287
-0.0011067
0.00305173
-0.000991785
0.00321724
-0.000881939
0.00336705
-0.000780221
0.00350209
-0.000688208
0.00362351
-0.000606374
0.0037326
-0.000534446
0.00383064
-0.000471708
0.00391886
-0.000417217
0.00399842
-0.000369968
0.00407032
-0.000328982
0.00413551
-0.00029336
0.00419477
-0.000262309
0.00424881
-0.000235149
0.00429824
-0.000211305
0.00434358
-0.00019029
0.0043853
-0.000171702
0.00442379
-0.000155201
0.0044594
-0.000140504
0.00449244
-0.000127371
0.00452315
-0.000115604
0.00455179
-0.000105034
0.00457855
-9.55176e-05
0.00460363
-8.69342e-05
0.00462717
-7.91795e-05
0.00464933
-7.21642e-05
0.00467024
-6.58116e-05
0.00469
-6.00565e-05
0.00470874
-5.48439e-05
0.00472654
-5.01285e-05
0.00474348
-4.58745e-05
0.00475965
-4.20544e-05
0.00477512
-3.86485e-05
0.00478996
-3.56411e-05
0.00480423
-3.30123e-05
0.00481799
-3.07208e-05
-2.86779e-05
0.00483128
8.1722e-05
-0.000141703
0.000230474
-0.000459013
0.000409989
-0.000774784
0.000606568
-0.00106702
0.00081225
-0.00131649
0.00102306
-0.0015112
0.00123729
-0.00164586
0.00145386
-0.00172011
0.00167143
-0.00173789
0.00188804
-0.00170666
0.00210119
-0.00163619
0.00230819
-0.00153718
0.00250648
-0.00142008
0.00269397
-0.00129418
0.0028692
-0.00116701
0.00303139
-0.00104413
0.00318038
-0.000929212
0.00331649
-0.000824321
0.0034404
-0.00073028
0.00355299
-0.000647036
0.00365526
-0.000573976
0.00374823
-0.000510185
0.00383288
-0.000454624
0.00391015
-0.00040625
0.00398087
-0.000364082
0.0040458
-0.000327242
0.00410562
-0.00029496
0.00416089
-0.000266581
0.00421215
-0.000241545
0.00425983
-0.000219383
0.00430432
-0.000199698
0.00434598
-0.000182157
0.00438508
-0.000166479
0.00442191
-0.000152428
0.00445668
-0.000139804
0.0044896
-0.000128439
0.00452085
-0.000118187
0.0045506
-0.000108924
0.00457898
-0.000100544
0.00460612
-9.29542e-05
0.00463214
-8.60752e-05
0.00465714
-7.98406e-05
0.0046812
-7.41948e-05
0.00470442
-6.90925e-05
0.00472686
-6.44986e-05
0.0047486
-6.0386e-05
0.00476969
-5.67326e-05
0.00479019
-5.35121e-05
0.00481015
-5.06769e-05
-4.81294e-05
0.0048296
0.000128503
-0.000270206
0.000287683
-0.000618192
0.000453761
-0.000940863
0.000623805
-0.00123706
0.000796844
-0.00148953
0.000972761
-0.00168712
0.0011524
-0.0018255
0.0013366
-0.00190431
0.00152541
-0.00192669
0.00171774
-0.00189899
0.00191149
-0.00182995
0.00210393
-0.00172961
0.0022921
-0.00160826
0.00247337
-0.00147545
0.00264561
-0.00133926
0.0028074
-0.00120592
0.00295798
-0.00107979
0.00309718
-0.000963518
0.00322526
-0.000858364
0.00334281
-0.000764588
0.0034506
-0.000681764
0.00354948
-0.000609067
0.00364033
-0.000545473
0.00372399
-0.000489912
0.00380126
-0.000441348
0.00387285
-0.000398828
0.0039394
-0.000361513
0.00400149
-0.000328672
0.00405962
-0.000299677
0.00411423
-0.000273995
0.00416571
-0.000251176
0.00421439
-0.000230837
0.00426057
-0.000212655
0.0043045
-0.000196359
0.00434641
-0.000181717
0.00438651
-0.000168535
0.00442497
-0.000156644
0.00446194
-0.000145902
0.00449758
-0.000136182
0.004532
-0.000127377
0.00456532
-0.000119394
0.00459764
-0.000112154
0.00462903
-0.000105591
0.00465959
-9.96497e-05
0.00468938
-9.42863e-05
0.00471846
-8.94655e-05
0.00474688
-8.51574e-05
0.0047747
-8.1329e-05
0.00480195
-7.79273e-05
0.00482867
-7.48522e-05
0.00484755
-1.08793e-05
8.60403e-09
0.00485827
-1.07311e-05
8.8808e-09
0.00486871
-1.04536e-05
9.16448e-09
0.00487866
-9.96041e-06
9.434e-09
0.00488785
-9.19368e-06
9.65894e-09
0.004896
-8.15961e-06
9.80194e-09
0.00490293
-6.94571e-06
9.82445e-09
0.00490863
-5.70384e-06
9.69717e-09
0.00491322
-4.60281e-06
9.4116e-09
0.00491698
-3.77305e-06
8.98636e-09
0.00492025
-3.27031e-06
8.46339e-09
0.00492331
-3.07224e-06
7.89575e-09
0.00492641
-3.10262e-06
7.33198e-09
0.00492967
-3.26638e-06
6.80339e-09
0.00493314
-3.47872e-06
6.31833e-09
0.00493681
-3.68021e-06
5.86701e-09
0.00494065
-3.83863e-06
5.43297e-09
0.00494458
-3.94296e-06
5.00521e-09
0.00494857
-3.99514e-06
4.58433e-09
0.00495257
-4.00315e-06
4.1813e-09
0.00495655
-3.97652e-06
3.80968e-09
0.00496047
-3.924e-06
3.47453e-09
0.00496432
-3.85276e-06
3.16664e-09
0.00496808
-3.76832e-06
2.8692e-09
0.00497175
-3.67482e-06
2.57152e-09
0.00497533
-3.57532e-06
2.27501e-09
0.0049788
-3.47205e-06
1.9877e-09
0.00498216
-3.36667e-06
1.71446e-09
0.00498542
-3.26039e-06
1.45171e-09
0.00498857
-3.15407e-06
1.18934e-09
0.00499162
-3.04837e-06
9.19381e-10
0.00499456
-2.94379e-06
6.44675e-10
0.0049974
-2.84069e-06
3.79055e-10
0.00500014
-2.73936e-06
1.42445e-10
0.00500278
-2.64001e-06
-4.80171e-11
0.00500533
-2.54277e-06
-1.89282e-10
0.00500777
-2.44772e-06
-2.97352e-10
0.00501013
-2.35488e-06
-3.99981e-10
0.00501239
-2.26427e-06
-5.24315e-10
0.00501457
-2.17591e-06
-6.79963e-10
0.00501666
-2.08982e-06
-8.44716e-10
0.00501867
-2.00601e-06
-9.96884e-10
0.00502059
-1.92447e-06
-1.12585e-09
0.00502244
-1.84514e-06
-1.25146e-09
0.00502421
-1.76795e-06
-1.42202e-09
0.0050259
-1.69279e-06
-1.64913e-09
0.00502753
-1.61968e-06
-1.93068e-09
0.00502908
-1.54862e-06
-2.24233e-09
0.00503056
-1.4796e-06
-2.55795e-09
0.00503197
-1.41258e-06
-2.87004e-09
0.00503333
-1.34755e-06
-3.15945e-09
0.00503461
-1.28451e-06
-3.3883e-09
0.00503584
-1.22343e-06
-3.5657e-09
0.00503701
-1.16424e-06
-3.71064e-09
0.00503812
-1.10691e-06
-3.79805e-09
0.00503917
-1.05138e-06
-3.86191e-09
0.00504018
-9.97603e-07
-3.92895e-09
0.00504113
-9.45523e-07
-4.05483e-09
0.00504202
-8.95131e-07
-4.21308e-09
0.00504288
-8.46395e-07
-4.40711e-09
0.00504368
-7.99373e-07
-4.55868e-09
0.00504444