/*--------------------------------*- C++ -*----------------------------------*\
| =========                 |                                                 |
| \\      /  F ield         | OpenFOAM: The Open Source CFD Toolbox           |
|  \\    /   O peration     | Version:  2412                                  |
|   \\  /    A nd           | Website:  www.openfoam.com                      |
|    \\/     M anipulation  |                                                 |
\*---------------------------------------------------------------------------*/
FoamFile
{
    version     2.0;
    format      ascii;
    arch        "LSB;label=32;scalar=64";
    class       volVectorField;
    location    "3.5";
    object      U;
}
// * * * * * * * * * * * * * * * * * * * * * * * * * * * * * * * * * * * * * //

dimensions      [0 1 -1 0 0 0 0];

internalField   nonuniform List<vector> 
63420
(
(0.101958 3.87754e-06 0)
(0.0985447 3.16374e-05 0)
(0.100362 3.06412e-05 0)
(0.099349 2.26594e-05 0)
(0.0994681 8.71717e-06 0)
(0.0994695 1.92138e-06 0)
(0.0994319 3.32435e-07 0)
(0.0994401 1.1391e-06 0)
(0.0994307 2.7631e-06 0)
(0.099411 4.29948e-06 0)
(0.0993867 5.52647e-06 0)
(0.0993577 6.48226e-06 0)
(0.0993252 7.24609e-06 0)
(0.0992902 7.8899e-06 0)
(0.0992533 8.46645e-06 0)
(0.0992147 9.01102e-06 0)
(0.0991745 9.54702e-06 0)
(0.0991328 1.00899e-05 0)
(0.0990897 1.06496e-05 0)
(0.0990451 1.12334e-05 0)
(0.098999 1.18471e-05 0)
(0.0989514 1.2495e-05 0)
(0.0989022 1.31804e-05 0)
(0.0988513 1.39059e-05 0)
(0.0987986 1.4674e-05 0)
(0.0987442 1.54874e-05 0)
(0.0986878 1.63485e-05 0)
(0.0986295 1.726e-05 0)
(0.0985692 1.82246e-05 0)
(0.0985067 1.92449e-05 0)
(0.0984421 2.03238e-05 0)
(0.0983752 2.14641e-05 0)
(0.098306 2.26691e-05 0)
(0.0982343 2.39424e-05 0)
(0.09816 2.52878e-05 0)
(0.0980832 2.67096e-05 0)
(0.0980036 2.82127e-05 0)
(0.0979213 2.98022e-05 0)
(0.097836 3.14839e-05 0)
(0.0977476 3.3264e-05 0)
(0.0976562 3.515e-05 0)
(0.0975614 3.71499e-05 0)
(0.0974632 3.92735e-05 0)
(0.0973614 4.1532e-05 0)
(0.0972559 4.39387e-05 0)
(0.0971465 4.65094e-05 0)
(0.0970329 4.92634e-05 0)
(0.096915 5.22236e-05 0)
(0.0967923 5.54187e-05 0)
(0.0966647 5.88831e-05 0)
(0.0965317 6.26547e-05 0)
(0.0963928 6.67649e-05 0)
(0.0962477 7.1215e-05 0)
(0.096096 7.59403e-05 0)
(0.0959374 8.07848e-05 0)
(0.101959 1.15318e-05 0)
(0.0985461 9.44189e-05 0)
(0.100366 9.11834e-05 0)
(0.0993572 6.7748e-05 0)
(0.099475 2.6252e-05 0)
(0.0994757 6.09325e-06 0)
(0.0994363 1.37227e-06 0)
(0.0994431 3.74749e-06 0)
(0.0994327 8.55939e-06 0)
(0.0994124 1.31146e-05 0)
(0.0993877 1.6755e-05 0)
(0.0993585 1.95954e-05 0)
(0.0993258 2.18702e-05 0)
(0.0992908 2.37917e-05 0)
(0.0992539 2.55157e-05 0)
(0.0992152 2.71463e-05 0)
(0.099175 2.87519e-05 0)
(0.0991334 3.0378e-05 0)
(0.0990903 3.20552e-05 0)
(0.0990458 3.38054e-05 0)
(0.0989997 3.56449e-05 0)
(0.0989522 3.75863e-05 0)
(0.098903 3.96394e-05 0)
(0.0988521 4.18126e-05 0)
(0.0987995 4.41137e-05 0)
(0.0987451 4.65501e-05 0)
(0.0986889 4.91296e-05 0)
(0.0986306 5.18595e-05 0)
(0.0985704 5.47476e-05 0)
(0.098508 5.78021e-05 0)
(0.0984435 6.10315e-05 0)
(0.0983767 6.44448e-05 0)
(0.0983075 6.80518e-05 0)
(0.098236 7.1863e-05 0)
(0.0981619 7.58901e-05 0)
(0.0980852 8.01457e-05 0)
(0.0980057 8.46439e-05 0)
(0.0979235 8.93999e-05 0)
(0.0978384 9.44309e-05 0)
(0.0977503 9.97558e-05 0)
(0.097659 0.000105396 0)
(0.0975644 0.000111377 0)
(0.0974665 0.000117727 0)
(0.097365 0.000124479 0)
(0.0972598 0.000131673 0)
(0.0971507 0.000139355 0)
(0.0970375 0.000147581 0)
(0.0969199 0.000156421 0)
(0.0967978 0.000165958 0)
(0.0966707 0.000176294 0)
(0.0965383 0.000187539 0)
(0.0964003 0.000199788 0)
(0.0962561 0.000213043 0)
(0.0961055 0.000227116 0)
(0.0959482 0.000241552 0)
(0.101959 1.88737e-05 0)
(0.0985494 0.000155881 0)
(0.100376 0.000149868 0)
(0.0993742 0.000112413 0)
(0.0994893 4.41424e-05 0)
(0.0994881 1.11158e-05 0)
(0.0994452 3.28544e-06 0)
(0.0994492 7.03802e-06 0)
(0.099437 1.48346e-05 0)
(0.0994154 2.22429e-05 0)
(0.09939 2.8179e-05 0)
(0.0993602 3.28266e-05 0)
(0.0993273 3.65623e-05 0)
(0.0992922 3.97291e-05 0)
(0.0992551 4.25791e-05 0)
(0.0992165 4.5281e-05 0)
(0.0991763 4.79459e-05 0)
(0.0991347 5.06474e-05 0)
(0.0990917 5.34359e-05 0)
(0.0990472 5.63472e-05 0)
(0.0990013 5.94078e-05 0)
(0.0989538 6.26382e-05 0)
(0.0989047 6.60546e-05 0)
(0.098854 6.9671e-05 0)
(0.0988015 7.35003e-05 0)
(0.0987473 7.7555e-05 0)
(0.0986911 8.18475e-05 0)
(0.0986331 8.639e-05 0)
(0.098573 9.11956e-05 0)
(0.0985108 9.62774e-05 0)
(0.0984465 0.00010165 0)
(0.0983799 0.000107328 0)
(0.0983109 0.000113327 0)
(0.0982396 0.000119666 0)
(0.0981657 0.000126364 0)
(0.0980893 0.00013344 0)
(0.0980102 0.000140919 0)
(0.0979282 0.000148825 0)
(0.0978435 0.000157187 0)
(0.0977557 0.000166036 0)
(0.0976648 0.000175406 0)
(0.0975707 0.00018534 0)
(0.0974732 0.000195883 0)
(0.0973722 0.00020709 0)
(0.0972676 0.000219024 0)
(0.0971592 0.000231761 0)
(0.0970467 0.000245391 0)
(0.09693 0.000260025 0)
(0.0968088 0.000275798 0)
(0.0966829 0.000292872 0)
(0.0965518 0.000311423 0)
(0.0964153 0.0003316 0)
(0.096273 0.000353408 0)
(0.0961245 0.00037655 0)
(0.0959697 0.000400307 0)
(0.101959 2.55066e-05 0)
(0.0985557 0.00021493 0)
(0.100393 0.000205395 0)
(0.0994011 0.000156553 0)
(0.0995114 6.27756e-05 0)
(0.0995071 1.76506e-05 0)
(0.0994588 6.69309e-06 0)
(0.0994585 1.14692e-05 0)
(0.0994435 2.18993e-05 0)
(0.0994201 3.18821e-05 0)
(0.0993935 3.99191e-05 0)
(0.0993631 4.62469e-05 0)
(0.0993298 5.13622e-05 0)
(0.0992945 5.57216e-05 0)
(0.0992574 5.96629e-05 0)
(0.0992187 6.34124e-05 0)
(0.0991786 6.71194e-05 0)
(0.0991371 7.08835e-05 0)
(0.0990941 7.47731e-05 0)
(0.0990498 7.88369e-05 0)
(0.099004 8.31109e-05 0)
(0.0989567 8.76229e-05 0)
(0.0989077 9.23952e-05 0)
(0.0988572 9.74474e-05 0)
(0.0988049 0.000102797 0)
(0.0987509 0.000108462 0)
(0.0986949 0.000114459 0)
(0.0986371 0.000120804 0)
(0.0985773 0.000127517 0)
(0.0985154 0.000134615 0)
(0.0984513 0.000142118 0)
(0.098385 0.000150046 0)
(0.0983164 0.000158423 0)
(0.0982454 0.000167273 0)
(0.0981719 0.000176621 0)
(0.0980959 0.000186498 0)
(0.0980172 0.000196933 0)
(0.0979357 0.000207962 0)
(0.0978515 0.000219624 0)
(0.0977642 0.000231961 0)
(0.0976739 0.000245022 0)
(0.0975805 0.000258862 0)
(0.0974837 0.000273544 0)
(0.0973836 0.000289141 0)
(0.0972798 0.000305739 0)
(0.0971723 0.00032344 0)
(0.097061 0.000342363 0)
(0.0969455 0.000362655 0)
(0.0968258 0.000384494 0)
(0.0967014 0.000408091 0)
(0.0965723 0.000433679 0)
(0.0964381 0.000461449 0)
(0.0962984 0.00049141 0)
(0.096153 0.000523181 0)
(0.0960018 0.000555838 0)
(0.10196 3.07633e-05 0)
(0.0985656 0.000270511 0)
(0.100417 0.000256281 0)
(0.0994382 0.000200321 0)
(0.0995412 8.26658e-05 0)
(0.0995325 2.64142e-05 0)
(0.0994768 1.22338e-05 0)
(0.0994708 1.74839e-05 0)
(0.0994523 3.0041e-05 0)
(0.0994265 4.22105e-05 0)
(0.0993985 5.2081e-05 0)
(0.0993673 5.99171e-05 0)
(0.0993336 6.63022e-05 0)
(0.099298 7.17833e-05 0)
(0.0992608 7.67691e-05 0)
(0.0992221 8.1534e-05 0)
(0.0991821 8.62601e-05 0)
(0.0991406 9.10694e-05 0)
(0.0990979 9.60461e-05 0)
(0.0990537 0.000101251 0)
(0.0990081 0.000106727 0)
(0.0989609 0.00011251 0)
(0.0989122 0.000118629 0)
(0.0988619 0.000125106 0)
(0.0988099 0.000131966 0)
(0.0987561 0.000139229 0)
(0.0987005 0.000146918 0)
(0.098643 0.000155053 0)
(0.0985835 0.000163658 0)
(0.098522 0.000172756 0)
(0.0984583 0.000182372 0)
(0.0983924 0.000192532 0)
(0.0983242 0.000203265 0)
(0.0982537 0.000214601 0)
(0.0981807 0.000226574 0)
(0.0981052 0.00023922 0)
(0.0980271 0.000252579 0)
(0.0979463 0.000266694 0)
(0.0978627 0.000281613 0)
(0.0977762 0.000297391 0)
(0.0976867 0.000314086 0)
(0.0975941 0.000331768 0)
(0.0974983 0.000350514 0)
(0.0973992 0.000370415 0)
(0.0972966 0.000391574 0)
(0.0971904 0.000414114 0)
(0.0970805 0.00043818 0)
(0.0969667 0.000463947 0)
(0.0968488 0.000491625 0)
(0.0967266 0.000521463 0)
(0.0965999 0.000553733 0)
(0.0964685 0.000588657 0)
(0.0963322 0.000626248 0)
(0.0961908 0.000666064 0)
(0.0960441 0.000707048 0)
(0.101961 3.38449e-05 0)
(0.0985789 0.000321518 0)
(0.100448 0.000301206 0)
(0.0994848 0.000243934 0)
(0.0995774 0.000104405 0)
(0.0995633 3.80913e-05 0)
(0.0994985 2.04901e-05 0)
(0.0994858 2.54728e-05 0)
(0.0994631 3.95029e-05 0)
(0.0994346 5.33746e-05 0)
(0.0994049 6.47496e-05 0)
(0.0993728 7.38837e-05 0)
(0.0993385 8.14054e-05 0)
(0.0993027 8.79223e-05 0)
(0.0992654 9.38954e-05 0)
(0.0992267 9.96365e-05 0)
(0.0991868 0.000105353 0)
(0.0991455 0.000111186 0)
(0.0991029 0.000117233 0)
(0.099059 0.000123563 0)
(0.0990136 0.000130228 0)
(0.0989667 0.00013727 0)
(0.0989183 0.000144721 0)
(0.0988683 0.000152611 0)
(0.0988166 0.000160966 0)
(0.0987632 0.000169813 0)
(0.098708 0.000179178 0)
(0.0986509 0.000189087 0)
(0.0985918 0.000199565 0)
(0.0985307 0.000210643 0)
(0.0984675 0.000222349 0)
(0.0984021 0.000234716 0)
(0.0983345 0.000247777 0)
(0.0982646 0.000261569 0)
(0.0981922 0.000276133 0)
(0.0981174 0.000291511 0)
(0.09804 0.00030775 0)
(0.09796 0.000324903 0)
(0.0978772 0.000343026 0)
(0.0977917 0.000362182 0)
(0.0977032 0.000382442 0)
(0.0976117 0.000403885 0)
(0.0975171 0.000426602 0)
(0.0974192 0.000450697 0)
(0.0973181 0.000476289 0)
(0.0972135 0.000503516 0)
(0.0971053 0.000532542 0)
(0.0969935 0.000563561 0)
(0.0968778 0.000596805 0)
(0.0967582 0.000632547 0)
(0.0966345 0.00067108 0)
(0.0965065 0.000712642 0)
(0.0963742 0.000757242 0)
(0.0962374 0.000804402 0)
(0.0960959 0.000852979 0)
(0.101964 3.50417e-05 0)
(0.0985944 0.000364612 0)
(0.100484 0.0003414 0)
(0.0995381 0.000286472 0)
(0.0996175 0.000128781 0)
(0.0995979 5.32711e-05 0)
(0.0995228 3.18321e-05 0)
(0.0995025 3.57351e-05 0)
(0.0994753 5.04624e-05 0)
(0.0994439 6.54739e-05 0)
(0.0994125 7.79824e-05 0)
(0.0993793 8.81772e-05 0)
(0.0993445 9.66847e-05 0)
(0.0993084 0.00010414 0)
(0.099271 0.000111036 0)
(0.0992324 0.000117708 0)
(0.0991925 0.000124383 0)
(0.0991514 0.000131214 0)
(0.0991091 0.000138309 0)
(0.0990654 0.000145747 0)
(0.0990203 0.000153585 0)
(0.0989738 0.000161869 0)
(0.0989257 0.000170638 0)
(0.0988761 0.000179924 0)
(0.0988248 0.000189758 0)
(0.0987718 0.000200172 0)
(0.0987171 0.000211193 0)
(0.0986604 0.000222853 0)
(0.0986019 0.000235183 0)
(0.0985413 0.000248215 0)
(0.0984787 0.000261984 0)
(0.098414 0.000276527 0)
(0.098347 0.000291883 0)
(0.0982778 0.000308094 0)
(0.0982062 0.000325207 0)
(0.0981322 0.000343271 0)
(0.0980557 0.000362339 0)
(0.0979766 0.000382472 0)
(0.0978949 0.000403733 0)
(0.0978104 0.000426194 0)
(0.0977231 0.000449934 0)
(0.0976329 0.000475043 0)
(0.0975397 0.000501621 0)
(0.0974434 0.000529782 0)
(0.097344 0.000559656 0)
(0.0972413 0.000591393 0)
(0.0971352 0.000625168 0)
(0.0970256 0.000661186 0)
(0.0969126 0.00069969 0)
(0.0967959 0.00074096 0)
(0.0966755 0.000785293 0)
(0.0965514 0.000832927 0)
(0.0964235 0.000883862 0)
(0.0962918 0.000937588 0)
(0.0961562 0.000992887 0)
(0.0957719 8.55621e-05 -5.64175e-24)
(0.095599 8.95525e-05 -5.73909e-24)
(0.0954199 9.22204e-05 -3.57055e-26)
(0.0952375 9.31594e-05 1.75876e-23)
(0.0950554 9.23482e-05 -5.82847e-24)
(0.0948769 9.02753e-05 -5.98158e-24)
(0.0947035 8.78729e-05 -1.83714e-23)
(0.094535 8.62758e-05 1.82508e-23)
(0.0943685 8.65275e-05 6.22936e-24)
(0.0941997 8.93841e-05 0)
(0.0940229 9.51647e-05 6.41469e-24)
(0.0938321 0.000103294 -6.51588e-24)
(0.0936231 0.000114518 5.34759e-23)
(0.0933921 0.000127677 -1.14523e-22)
(0.0931357 0.000142225 6.11636e-23)
(0.0928515 0.00015787 4.94173e-23)
(0.0925377 0.000174451 6.34149e-23)
(0.0921928 0.000191935 -7.24767e-24)
(0.0918152 0.00021041 7.39541e-24)
(0.091403 0.000230048 -7.55206e-24)
(0.090954 0.000251087 0)
(0.0904654 0.000273814 7.89497e-24)
(0.0899342 0.000298563 -8.08289e-24)
(0.0893563 0.000325714 0)
(0.0887271 0.000355699 -8.49653e-24)
(0.0880413 0.000389009 0)
(0.0872924 0.000426204 -8.96839e-24)
(0.086473 0.000467938 -1.50084e-22)
(0.0855745 0.000514978 1.59365e-22)
(0.0845867 0.000568251 -1.59765e-22)
(0.0834977 0.000628889 1.59522e-22)
(0.0822933 0.000698292 0)
(0.0809567 0.000778195 0)
(0.0794676 0.000870771 1.95446e-22)
(0.0778016 0.00097875 -1.83895e-22)
(0.0759288 0.0011056 0)
(0.0738124 0.00125574 0)
(0.0714071 0.00143485 0)
(0.0686563 0.00165011 0)
(0.0654895 0.00191039 0)
(0.061819 0.00222593 0)
(0.0575385 0.00260677 0)
(0.0525254 0.00305876 0)
(0.0466525 0.00357537 0)
(0.0398199 0.00412397 -1.87834e-23)
(0.0320162 0.00462635 -6.51598e-22)
(0.0233957 0.00493795 6.50621e-22)
(0.0144017 0.00483244 7.1314e-22)
(0.00622863 0.00397432 -7.1207e-22)
(0.00128047 0.00187168 0)
(0.0957839 0.000255827 -5.69994e-24)
(0.0956121 0.000267834 -1.1601e-23)
(0.0954337 0.000275983 -6.05332e-24)
(0.0952515 0.000279083 5.67618e-24)
(0.0950688 0.000277087 -5.90129e-24)
(0.0948885 0.000271435 4.21939e-23)
(0.094712 0.000264864 -6.62608e-23)
(0.0945391 0.000260684 6.1415e-24)
(0.0943674 0.000261881 8.17669e-23)
(0.0941927 0.000270531 -1.12944e-22)
(0.0940093 0.000287485 -1.09959e-22)
(0.0938129 0.000313242 9.68901e-23)
(0.0935993 0.000346554 0)
(0.0933637 0.000385481 6.74047e-24)
(0.0931033 0.000428645 -2.05711e-23)
(0.092816 0.000475138 -2.32773e-22)
(0.0924999 0.000524474 2.23071e-22)
(0.0921534 0.000576572 -2.37134e-22)
(0.0917747 0.00063169 -2.22212e-23)
(0.091362 0.000690347 7.56863e-24)
(0.090913 0.000753248 0)
(0.0904249 0.00082125 -7.91542e-24)
(0.0898945 0.00089535 -2.5462e-22)
(0.0893178 0.000976683 5.31789e-22)
(0.0886904 0.00106654 2.92574e-22)
(0.0880068 0.00116639 -5.52366e-22)
(0.0872608 0.0012779 5.93684e-22)
(0.0864451 0.00140303 -6.02413e-22)
(0.085551 0.00154409 -9.54756e-24)
(0.0845688 0.00170383 0)
(0.0834867 0.00188564 0)
(0.0822909 0.00209371 0)
(0.0809651 0.00233321 0)
(0.0794896 0.00261063 -1.13268e-23)
(0.077841 0.0029341 -7.68892e-22)
(0.0759904 0.00331394 -3.3311e-23)
(0.0739029 0.00376331 8.00118e-22)
(0.0715354 0.00429902 8.74426e-22)
(0.0688345 0.00494238 -8.73268e-22)
(0.0657337 0.0057196 -2.91476e-23)
(0.062151 0.00666075 -3.05711e-23)
(0.0579866 0.00779502 -1.06176e-21)
(0.0531246 0.00913859 1.02665e-21)
(0.047442 0.0106702 -3.53844e-23)
(0.0408353 0.0122907 1.89148e-23)
(0.0332722 0.0137657 -1.32655e-21)
(0.0248595 0.0146645 1.32633e-21)
(0.0159536 0.0143163 -2.79043e-21)
(0.00757625 0.0117395 2.7437e-21)
(0.00183884 0.0054881 -2.81099e-21)
(0.0958078 0.000423909 -3.37543e-23)
(0.095638 0.000444043 -1.17836e-23)
(0.0954611 0.000458142 4.56089e-23)
(0.0952794 0.00046427 -9.35632e-23)
(0.0950957 0.000462297 2.00058e-22)
(0.0949121 0.000454474 -9.47052e-23)
(0.0947301 0.000445169 1.55088e-26)
(0.0945491 0.000439826 1.22524e-23)
(0.0943672 0.000443516 2.13146e-22)
(0.0941811 0.000459544 -2.00494e-22)
(0.0939873 0.000489058 0)
(0.093781 0.000532361 1.47692e-26)
(0.0935574 0.000586764 0)
(0.0933132 0.00065022 2.31435e-22)
(0.0930459 0.000720735 -2.04001e-22)
(0.0927531 0.00079685 -4.38464e-22)
(0.092433 0.000877807 2.36791e-23)
(0.0920836 0.000963511 -4.61008e-22)
(0.0917033 0.00105441 1.48698e-23)
(0.0912899 0.00115135 -4.91719e-22)
(0.0908411 0.0012555 5.06775e-22)
(0.0903541 0.00136828 -5.15079e-22)
(0.0898256 0.00149131 5.30863e-22)
(0.0892517 0.00162647 1.66818e-23)
(0.0886281 0.00177589 -1.71199e-23)
(0.0879493 0.00194201 1.7587e-23)
(0.0872093 0.0021276 -5.88131e-22)
(0.0864011 0.00233591 6.06225e-22)
(0.0855164 0.00257074 6.4412e-22)
(0.0845456 0.00283669 -6.24338e-22)
(0.0834777 0.00313937 0)
(0.0822995 0.00348569 0)
(0.0809957 0.00388421 2.19268e-23)
(0.079548 0.00434559 1.511e-21)
(0.0779345 0.00488322 3.7356e-23)
(0.0761291 0.00551402 -1.52178e-21)
(0.0741 0.00625951 0)
(0.0718088 0.0071471 -2.67132e-23)
(0.0692084 0.00821136 1.86656e-21)
(0.066241 0.00949455 -3.73355e-21)
(0.0628354 0.0110446 3.97487e-21)
(0.0589051 0.0129069 1.3258e-22)
(0.0543475 0.0151038 -2.08217e-21)
(0.0490477 0.0175947 -2.28777e-21)
(0.0428937 0.02021 2.35779e-21)
(0.0358089 0.0225614 1.69975e-24)
(0.0278031 0.0239425 -4.07751e-23)
(0.019061 0.0232572 2.70102e-21)
(0.0102459 0.0189479 -2.61545e-21)
(0.00290944 0.00877376 -2.61309e-21)
(0.0958433 0.000588542 2.22551e-23)
(0.0956764 0.000617032 -1.12767e-23)
(0.0955018 0.000637848 2.14116e-26)
(0.0953211 0.000648468 1.1571e-23)
(0.0951361 0.00064871 -2.15943e-26)
(0.0949483 0.000641507 1.91557e-22)
(0.094759 0.00063254 -3.61712e-22)
(0.0945681 0.00062887 1.9426e-22)
(0.094374 0.000637092 -1.24105e-23)
(0.0941742 0.000661662 2.2886e-22)
(0.0939658 0.000704265 -2.03553e-22)
(0.0937452 0.000763588 -4.21146e-22)
(0.0935089 0.000837802 8.49702e-22)
(0.0932539 0.000924222 -8.65149e-22)
(0.0929778 0.00102031 8.81385e-22)
(0.0926783 0.00112424 -8.84506e-22)
(0.0923533 0.00123512 -4.67914e-22)
(0.0920009 0.00135289 2.13556e-26)
(0.091619 0.00147821 0)
(0.0912054 0.00161228 -4.79015e-22)
(0.0907577 0.00175669 4.94074e-22)
(0.090273 0.00191337 0)
(0.089748 0.00208457 -1.06301e-21)
(0.0891791 0.00227288 1.04578e-21)
(0.0885617 0.00248125 1.72828e-23)
(0.0878909 0.00271304 -3.39151e-26)
(0.0871607 0.00297213 1.8242e-23)
(0.0863646 0.00326301 0)
(0.0854947 0.00359099 -4.88e-26)
(0.0845421 0.00396243 0)
(0.0834966 0.00438513 -2.06619e-23)
(0.082346 0.00486863 1.39617e-21)
(0.0810766 0.00542475 -1.39576e-21)
(0.0796719 0.00606816 -2.30846e-23)
(0.0781129 0.00681721 4.78465e-23)
(0.0763769 0.007695 -1.65217e-21)
(0.0744374 0.00873079 1.6008e-21)
(0.0722628 0.00996165 2.7175e-23)
(0.0698156 0.011434 -3.60496e-25)
(0.0670509 0.0132039 2.92515e-23)
(0.0639144 0.015334 -2.02016e-21)
(0.0603393 0.017881 4.09708e-21)
(0.0562428 0.0208671 -2.14255e-21)
(0.0515212 0.0242254 2.25069e-21)
(0.046048 0.0277123 -2.35653e-21)
(0.039677 0.030792 -4.75478e-21)
(0.0322643 0.0325074 9.72302e-21)
(0.0237387 0.0313696 -4.93378e-21)
(0.0142839 0.0253096 0)
(0.00449378 0.0115763 -4.63317e-21)
(0.0958901 0.000748492 -1.10396e-23)
(0.0957269 0.000785533 -4.50108e-23)
(0.0955556 0.000813901 1.36321e-22)
(0.0953768 0.000830697 -1.83861e-22)
(0.0951912 0.000835746 8.09318e-23)
(0.0949998 0.000832487 1.18402e-23)
(0.0948031 0.000827511 -1.20209e-23)
(0.0946014 0.000828856 -2.72386e-26)
(0.0943938 0.000843889 1.24081e-23)
(0.094179 0.000877767 -2.52048e-23)
(0.093955 0.000932626 -4.13839e-22)
(0.0937196 0.00100762 4.27087e-22)
(0.09347 0.00110045 -4.15936e-22)
(0.0932039 0.00120806 4.29382e-22)
(0.092919 0.00132767 0)
(0.0926129 0.00145732 -2.38223e-26)
(0.0922835 0.00159612 0)
(0.0919287 0.00174413 -4.60675e-22)
(0.0915463 0.00190226 4.90609e-22)
(0.0911339 0.00207201 -1.53844e-23)
(0.090689 0.00225539 -1.03539e-21)
(0.0902086 0.00245482 1.0201e-21)
(0.0896897 0.00267314 -1.65598e-23)
(0.0891285 0.00291359 0)
(0.0885208 0.00317991 0)
(0.087862 0.00347637 -1.18353e-21)
(0.0871465 0.00380789 1.14758e-21)
(0.0863681 0.00418018 0)
(0.0855198 0.00459998 -3.93103e-23)
(0.0845935 0.00507539 0)
(0.08358 0.00561625 2.10244e-23)
(0.0824689 0.00623464 -2.16925e-23)
(0.081248 0.00694539 -2.25701e-23)
(0.0799039 0.00776688 2.33104e-23)
(0.0784209 0.00872197 1.5352e-21)
(0.0767815 0.00983927 -1.58446e-21)
(0.0749656 0.0111548 3.45763e-21)
(0.0729511 0.0127138 -3.45999e-21)
(0.0707133 0.0145723 3.69716e-21)
(0.0682248 0.0167973 1.24576e-22)
(0.0654536 0.0194614 -3.91452e-21)
(0.0623598 0.0226268 -3.1671e-23)
(0.0588866 0.0263091 1.32427e-24)
(0.0549449 0.0304093 1.80507e-24)
(0.0503886 0.0346104 2.46142e-24)
(0.0449811 0.0382457 -7.07344e-23)
(0.038371 0.0401507 -3.28437e-23)
(0.0301328 0.0385081 -3.12856e-23)
(0.0198395 0.030772 0)
(0.00661083 0.0138757 9.40299e-24)
(0.0959472 0.00090259 -5.47832e-23)
(0.0957887 0.000948226 3.29532e-23)
(0.0956217 0.000984913 1.12481e-23)
(0.0954459 0.00100949 1.72318e-22)
(0.0952611 0.00102176 -1.72399e-22)
(0.0950675 0.00102542 1.77827e-22)
(0.0948651 0.00102757 -3.94472e-22)
(0.0946541 0.0010369 5.60653e-22)
(0.0944347 0.0010614 -3.92531e-22)
(0.0942064 0.00110661 -4.06049e-22)
(0.0939686 0.00117483 -1.97891e-23)
(0.0937199 0.00126545 8.22798e-22)
(0.0934587 0.00137603 -8.65457e-22)
(0.093183 0.0015035 4.03401e-22)
(0.0928908 0.00164508 4.34089e-22)
(0.0925798 0.00179889 4.52549e-22)
(0.0922478 0.00196418 -3.36123e-23)
(0.0918925 0.00214124 9.22358e-22)
(0.0915116 0.00233122 9.49961e-22)
(0.0911027 0.00253599 2.27261e-23)
(0.0906632 0.00275795 -1.00586e-21)
(0.0901903 0.00299999 0)
(0.0896808 0.0032655 0)
(0.0891314 0.00355839 -1.11631e-21)
(0.088538 0.00388318 1.10028e-21)
(0.0878965 0.00424503 1.18323e-21)
(0.0872018 0.00464991 -1.18498e-21)
(0.0864485 0.00510472 0)
(0.0856303 0.00561767 1.32081e-21)
(0.0847403 0.00619854 -1.32336e-21)
(0.0837708 0.00685922 0)
(0.0827132 0.0076142 -2.86444e-21)
(0.0815581 0.00848122 2.89095e-21)
(0.0802952 0.00948204 -2.38984e-23)
(0.0789133 0.0106436 -3.20612e-21)
(0.0774011 0.011999 3.23582e-21)
(0.075747 0.0135897 0)
(0.0739403 0.0154665 3.66284e-21)
(0.0719725 0.0176912 -3.64036e-21)
(0.0698379 0.0203348 2.9792e-23)
(0.067533 0.0234704 4.08874e-21)
(0.0650518 0.0271527 -8.23975e-21)
(0.0623717 0.0313745 -1.75686e-23)
(0.0594242 0.0359909 1.24622e-24)
(0.0560458 0.0406074 4.38152e-21)
(0.0519039 0.0444482 4.41901e-24)
(0.0464137 0.0462109 -3.84858e-21)
(0.0387005 0.0438822 3.94523e-21)
(0.027443 0.0346483 0)
(0.00955776 0.0153289 3.51752e-23)
(0.0960134 0.00104978 1.07973e-23)
(0.0958603 0.00110366 9.9295e-23)
(0.0956987 0.00114897 -8.85456e-23)
(0.0955275 0.00118244 1.13402e-23)
(0.0953456 0.00120384 1.73975e-22)
(0.0951523 0.00121695 -1.74268e-22)
(0.0949473 0.00122904 -3.72244e-22)
(0.0947309 0.00124902 6.1178e-24)
(0.0945036 0.00128509 -6.34558e-24)
(0.0942659 0.00134296 4.12242e-22)
(0.0940182 0.00142506 -4.01547e-22)
(0.0937601 0.00153092 8.51483e-22)
(0.0934908 0.00165826 -4.23983e-22)
(0.0932088 0.0018042 1.36722e-23)
(0.0929124 0.00196618 1.39716e-23)
(0.0925994 0.0021426 9.22509e-22)
(0.0922678 0.00233298 -4.75032e-24)
(0.0919152 0.00253791 9.61639e-22)
(0.0915392 0.00275886 1.53353e-23)
(0.0911374 0.00299805 0)
(0.0907073 0.00325831 0)
(0.0902462 0.00354302 -1.07254e-21)
(0.0897511 0.00385616 1.07525e-21)
(0.089219 0.00420233 0)
(0.0886465 0.00458686 1.80391e-23)
(0.0880297 0.00501586 0)
(0.0873644 0.00549641 -1.24387e-21)
(0.0866461 0.00603675 2.53179e-21)
(0.0858698 0.0066466 -1.28801e-21)
(0.0850299 0.00733763 -2.72833e-21)
(0.0841206 0.0081239 -9.18274e-23)
(0.0831359 0.00902251 -9.77647e-23)
(0.0820693 0.0100542 -1.03879e-22)
(0.0809147 0.0112443 3.07122e-21)
(0.0796664 0.0126237 3.30483e-21)
(0.0783199 0.0142298 -3.3127e-21)
(0.0768733 0.0161083 0)
(0.0753288 0.0183135 3.70291e-21)
(0.0736949 0.0209078 -3.7115e-21)
(0.071989 0.0239577 -3.99244e-21)
(0.0702373 0.0275208 3.9706e-21)
(0.06847 0.0316187 3.27696e-23)
(0.066703 0.0361856 4.12113e-21)
(0.0648983 0.0409867 -8.18446e-23)
(0.062895 0.0455108 -4.12388e-21)
(0.0603037 0.0488635 3.1758e-23)
(0.0563731 0.0496891 0)
(0.0498752 0.0460579 -2.55491e-23)
(0.0383932 0.0354529 -1.28464e-21)
(0.0153392 0.0151564 5.43669e-22)
(-0.000242783 0.000186162 0)
(-0.000385629 -0.000136281 2.63737e-22)
(0.000413032 -0.000762224 -2.64133e-22)
(0.00247229 -0.00149644 -2.2026e-22)
(0.00583248 -0.00220271 2.20591e-22)
(0.010353 -0.00279106 -5.62467e-24)
(0.0157739 -0.00321358 0)
(0.0217855 -0.00345624 0)
(0.0280789 -0.00353035 0)
(0.0343802 -0.00346361 0)
(0.040471 -0.00329144 0)
(0.0461957 -0.00304999 0)
(0.0514589 -0.00277141 0)
(0.0562166 -0.00248133 0)
(0.0604639 -0.00219824 0)
(0.0642229 -0.00193402 9.40577e-24)
(0.0675325 -0.00169509 -8.82449e-24)
(0.0704391 -0.00148386 0)
(0.0729916 -0.00130005 0)
(0.0752367 -0.00114171 -9.12853e-24)
(0.0772172 -0.00100612 9.14247e-24)
(0.0789708 -0.000890286 -9.07379e-24)
(0.0805301 -0.000791296 6.2459e-25)
(0.0819228 -0.000706501 0)
(0.0831721 -0.000633587 6.55407e-25)
(0.0842975 -0.000570596 0)
(0.0853153 -0.000515901 0)
(0.0862394 -0.000468165 0)
(0.0870812 -0.000426298 6.9623e-25)
(0.0878505 -0.00038941 0)
(0.0885558 -0.000356768 -7.05465e-25)
(0.0892042 -0.000327769 7.07641e-25)
(0.0898019 -0.000301916 -7.08374e-25)
(0.0903542 -0.00027879 6.34344e-24)
(0.0908659 -0.000258047 -6.35042e-24)
(0.091341 -0.000239394 -4.89179e-24)
(0.0917832 -0.000222586 1.04677e-23)
(0.0921956 -0.000207417 -5.57217e-24)
(0.0925811 -0.000193711 -6.89776e-25)
(0.0929423 -0.00018132 6.83892e-25)
(0.0932814 -0.00017012 0)
(0.0936007 -0.00016001 6.7055e-25)
(0.0939019 -0.000150907 -3.29645e-24)
(0.0941871 -0.000142753 3.29289e-24)
(0.0944578 -0.000135508 -6.47606e-25)
(0.0947157 -0.000129151 1.90808e-24)
(0.0949626 -0.00012367 -6.3967e-25)
(0.0952 -0.000119041 -1.23979e-24)
(0.0954296 -0.000115177 6.18326e-25)
(0.0956527 -0.000111869 -6.05044e-25)
(-0.000181915 0.000462407 -1.11703e-21)
(1.25043e-05 -0.000576982 -1.12061e-21)
(0.00138222 -0.00243563 1.10366e-21)
(0.0039821 -0.00458222 -4.43047e-22)
(0.00776499 -0.00663156 4.45454e-22)
(0.0125486 -0.00833051 5.66345e-24)
(0.0180679 -0.00954584 -9.99145e-24)
(0.0240355 -0.0102399 -2.30724e-22)
(0.0301786 -0.0104463 2.22879e-22)
(0.0362626 -0.0102451 -5.09451e-24)
(0.0421043 -0.00973825 -3.96772e-24)
(0.0475757 -0.0090298 8.14761e-23)
(0.0526003 -0.00821256 -8.15851e-23)
(0.0571451 -0.00736087 -5.34956e-23)
(0.0612099 -0.00652857 7.4588e-24)
(0.0648173 -0.00575045 4.61701e-23)
(0.0680038 -0.00504561 -5.98516e-25)
(0.0708124 -0.0044214 -1.29486e-24)
(0.0732876 -0.00387725 0)
(0.0754723 -0.00340777 0)
(0.0774058 -0.00300512 0)
(0.0791228 -0.00266065 -6.1049e-25)
(0.0806535 -0.00236592 3.92512e-23)
(0.0820237 -0.00211316 -4.2583e-23)
(0.0832553 -0.00189559 4.22447e-23)
(0.0843666 -0.00170746 -2.11533e-23)
(0.085373 -0.00154399 -4.39405e-23)
(0.0862878 -0.00140124 2.21344e-23)
(0.087122 -0.00127598 -6.98026e-25)
(0.0878851 -0.00116558 -1.42772e-24)
(0.0885851 -0.00106786 7.07006e-25)
(0.089229 -0.000981042 -2.14313e-24)
(0.0898229 -0.000903629 2.20283e-23)
(0.090372 -0.000834384 -4.61934e-23)
(0.0908808 -0.000772269 2.20146e-23)
(0.0913535 -0.000716413 -2.12182e-24)
(0.0917934 -0.000666082 7.00249e-25)
(0.0922039 -0.000620656 0)
(0.0925876 -0.00057961 -1.17e-23)
(0.0929472 -0.000542497 1.03341e-23)
(0.0932849 -0.000508946 9.42984e-24)
(0.0936027 -0.000478648 -1.28204e-23)
(0.0939027 -0.00045136 6.63073e-25)
(0.0941865 -0.000426899 3.24129e-24)
(0.0944558 -0.000405145 -5.86734e-24)
(0.0947124 -0.000386028 -6.38852e-25)
(0.0949578 -0.000369509 -4.39639e-24)
(0.0951935 -0.000355507 -5.84717e-25)
(0.0954211 -0.000343769 1.25526e-24)
(0.0956419 -0.000333671 1.8221e-24)
(-2.16737e-05 0.000459968 -1.22594e-21)
(0.000886366 -0.00145846 1.21259e-21)
(0.00335223 -0.00450169 -1.17624e-21)
(0.00695464 -0.00791009 -1.59275e-23)
(0.0115021 -0.0111104 -1.04597e-24)
(0.0167475 -0.0137364 -7.23711e-22)
(0.0224245 -0.0156001 7.47642e-22)
(0.028291 -0.0166523 5.04993e-22)
(0.034142 -0.0169483 -9.37488e-23)
(0.0398146 -0.0166115 -7.03477e-22)
(0.0451891 -0.0157982 5.61811e-22)
(0.0501873 -0.0146682 -2.41814e-22)
(0.0547666 -0.013365 -3.00025e-24)
(0.0589137 -0.0120043 0)
(0.0626369 -0.0106708 1.13469e-22)
(0.0659597 -0.00942004 -1.38242e-23)
(0.0689143 -0.00828311 -9.79415e-23)
(0.0715371 -0.00727274 2.8412e-24)
(0.0738653 -0.00638895 0)
(0.0759345 -0.00562397 0)
(0.0777776 -0.00496593 4.29439e-23)
(0.0794239 -0.00440146 -4.15685e-23)
(0.0808991 -0.00391729 -4.2532e-23)
(0.0822255 -0.00350124 4.52429e-23)
(0.0834222 -0.00314247 1.43912e-24)
(0.0845055 -0.00283177 -1.44849e-24)
(0.0854894 -0.00256147 1.4566e-24)
(0.0863857 -0.0023252 -4.4581e-23)
(0.0872047 -0.00211771 4.60875e-23)
(0.0879551 -0.00193471 -4.346e-23)
(0.0886445 -0.00177266 4.64073e-23)
(0.0892794 -0.00162861 1.43975e-24)
(0.0898656 -0.00150013 4.6203e-23)
(0.090408 -0.00138518 -9.08536e-23)
(0.0909111 -0.00128203 4.7511e-23)
(0.0913787 -0.00118927 2.4166e-23)
(0.0918141 -0.00110567 -2.13412e-23)
(0.0922206 -0.00103021 0)
(0.0926007 -0.000962013 -1.05294e-26)
(0.092957 -0.000900339 0)
(0.0932917 -0.000844564 2.16769e-23)
(0.0936067 -0.000794173 -2.03602e-23)
(0.0939039 -0.000748753 1.33532e-24)
(0.0941851 -0.000707991 -5.24488e-27)
(0.0944518 -0.000671674 1.02974e-23)
(0.0947057 -0.000639672 -1.91878e-23)
(0.0949481 -0.000611902 1.01643e-23)
(0.0951805 -0.000588218 -4.93458e-24)
(0.0954043 -0.000568199 3.73338e-24)
(0.0956207 -0.00055084 1.22439e-24)
(0.000355873 9.50522e-05 -2.79073e-21)
(0.00243637 -0.00295301 0)
(0.00638572 -0.00711691 2.41799e-21)
(0.0113038 -0.0115589 -4.6259e-21)
(0.0168093 -0.0156248 2.22092e-21)
(0.0225964 -0.0189096 7.97586e-22)
(0.0284189 -0.0212132 -8.38462e-22)
(0.0341038 -0.0224913 5.72059e-22)
(0.0395369 -0.0228182 -1.04399e-21)
(0.0446466 -0.0223472 4.64339e-22)
(0.049393 -0.0212711 5.69202e-24)
(0.0537593 -0.019788 8.0905e-25)
(0.0577447 -0.0180773 3.0516e-24)
(0.0613605 -0.0162857 -1.66353e-22)
(0.0646256 -0.0145225 1.6119e-22)
(0.0675645 -0.0128607 4.13525e-24)
(0.0702042 -0.0113426 -1.66845e-24)
(0.072573 -0.00998669 1.05638e-22)
(0.0746985 -0.00879489 -1.05362e-22)
(0.0766072 -0.00775856 -1.67716e-24)
(0.0783234 -0.00686334 0)
(0.0798696 -0.00609245 1.60494e-25)
(0.0812654 -0.00542902 0)
(0.0825286 -0.00485719 1.56074e-24)
(0.0836746 -0.00436289 9.91683e-26)
(0.0847169 -0.00393393 1.46222e-24)
(0.0856673 -0.0035601 -9.75429e-23)
(0.0865361 -0.00323288 9.61705e-23)
(0.0873322 -0.0029452 0)
(0.0880635 -0.00269124 -4.78731e-23)
(0.0887367 -0.00246618 4.9457e-23)
(0.0893579 -0.002266 0)
(0.0899324 -0.00208736 -3.16934e-26)
(0.0904646 -0.00192746 -4.8436e-23)
(0.0909588 -0.00178394 9.50777e-23)
(0.0914185 -0.00165482 -9.28297e-23)
(0.0918471 -0.00153844 9.19961e-23)
(0.0922473 -0.00143337 -9.10524e-23)
(0.0926219 -0.00133839 4.52798e-23)
(0.0929732 -0.00125247 2.21169e-23)
(0.0933032 -0.00117472 -1.9375e-23)
(0.0936139 -0.00110443 -1.36168e-24)
(0.093907 -0.00104101 -2.12448e-23)
(0.0941842 -0.000984 4.48499e-23)
(0.0944469 -0.000933079 -2.09635e-23)
(0.0946966 -0.000888041 5.16819e-27)
(0.0949347 -0.000848734 1.25916e-24)
(0.0951623 -0.000814933 -3.55871e-27)
(0.0953807 -0.000786057 -1.22022e-24)
(0.0955909 -0.000760765 2.4032e-24)
(0.0010468 -0.000748377 -2.49234e-24)
(0.00490865 -0.00517486 -2.59445e-23)
(0.0106151 -0.0103062 -2.35309e-23)
(0.0169467 -0.0154685 -2.11756e-23)
(0.0233955 -0.0200528 -3.61587e-23)
(0.0296468 -0.0236913 -1.43085e-24)
(0.0355112 -0.0262108 1.28711e-23)
(0.0409061 -0.0275825 -1.21342e-23)
(0.045817 -0.027892 -1.01861e-23)
(0.050267 -0.0273048 8.94524e-22)
(0.0542958 -0.0260286 -1.79014e-22)