/*--------------------------------*- C++ -*----------------------------------*\
| =========                 |                                                 |
| \\      /  F ield         | OpenFOAM: The Open Source CFD Toolbox           |
|  \\    /   O peration     | Version:  2412                                  |
|   \\  /    A nd           | Website:  www.openfoam.com                      |
|    \\/     M anipulation  |                                                 |
\*---------------------------------------------------------------------------*/
FoamFile
{
    version     2.0;
    format      ascii;
    arch        "LSB;label=32;scalar=64";
    class       volVectorField;
    location    "3.5";
    object      vorticity;
}
// * * * * * * * * * * * * * * * * * * * * * * * * * * * * * * * * * * * * * //

dimensions      [0 0 -1 0 0 0 0];

internalField   nonuniform List<vector> 
63420
(
(0 0 0.000120367)
(0 0 7.81112e-05)
(0 0 -7.70752e-05)
(0 0 -0.000159359)
(0 0 -0.000144487)
(0 0 -9.17251e-05)
(0 0 -4.65515e-05)
(0 0 -2.02311e-05)
(0 0 -7.92354e-06)
(0 0 -2.99348e-06)
(0 0 -1.24312e-06)
(0 0 -6.82258e-07)
(0 0 -5.21724e-07)
(0 0 -4.8277e-07)
(0 0 -4.76735e-07)
(0 0 -4.74703e-07)
(0 0 -4.71181e-07)
(0 0 -4.68905e-07)
(0 0 -4.67021e-07)
(0 0 -4.60252e-07)
(0 0 -4.45487e-07)
(0 0 -4.25378e-07)
(0 0 -4.0408e-07)
(0 0 -3.8166e-07)
(0 0 -3.56554e-07)
(0 0 -3.25371e-07)
(0 0 -2.87116e-07)
(0 0 -2.4074e-07)
(0 0 -1.86766e-07)
(0 0 -1.25434e-07)
(0 0 -5.74619e-08)
(0 0 1.78547e-08)
(0 0 1.01928e-07)
(0 0 1.97229e-07)
(0 0 3.05455e-07)
(0 0 4.28213e-07)
(0 0 5.66039e-07)
(0 0 7.20312e-07)
(0 0 8.91796e-07)
(0 0 1.08202e-06)
(0 0 1.29299e-06)
(0 0 1.52825e-06)
(0 0 1.79282e-06)
(0 0 2.09313e-06)
(0 0 2.43662e-06)
(0 0 2.83255e-06)
(0 0 3.29318e-06)
(0 0 3.8345e-06)
(0 0 4.46844e-06)
(0 0 5.16519e-06)
(0 0 5.74606e-06)
(0 0 5.6713e-06)
(0 0 3.78656e-06)
(0 0 -1.65971e-06)
(0 5.59813e-23 -1.20488e-05)
(0 0 0.000358678)
(0 0 0.000225579)
(0 0 -0.000239326)
(0 0 -0.000482659)
(0 0 -0.000435523)
(0 0 -0.000276406)
(0 0 -0.000140865)
(0 0 -6.20597e-05)
(0 0 -2.52705e-05)
(0 0 -1.05693e-05)
(0 0 -5.36589e-06)
(0 0 -3.70828e-06)
(0 0 -3.24269e-06)
(0 0 -3.14368e-06)
(0 0 -3.14656e-06)
(0 0 -3.16979e-06)
(0 0 -3.19302e-06)
(0 0 -3.21313e-06)
(0 0 -3.22575e-06)
(0 0 -3.22472e-06)
(0 0 -3.20851e-06)
(0 0 -3.18066e-06)
(0 0 -3.14427e-06)
(0 0 -3.09796e-06)
(0 0 -3.03852e-06)
(0 0 -2.9625e-06)
(0 0 -2.86793e-06)
(0 0 -2.75268e-06)
(0 0 -2.61564e-06)
(0 0 -2.45618e-06)
(0 0 -2.27393e-06)
(0 0 -2.06717e-06)
(0 0 -1.83324e-06)
(0 0 -1.56874e-06)
(0 0 -1.27042e-06)
(0 0 -9.3487e-07)
(0 0 -5.58896e-07)
(0 0 -1.38436e-07)
(0 0 3.31064e-07)
(0 0 8.55737e-07)
(0 0 1.44389e-06)
(0 0 2.10686e-06)
(0 0 2.85879e-06)
(0 0 3.71691e-06)
(0 0 4.70241e-06)
(0 0 5.84345e-06)
(0 0 7.17902e-06)
(0 0 8.75902e-06)
(0 0 1.06201e-05)
(0 0 1.26753e-05)
(0 0 1.44013e-05)
(0 0 1.42202e-05)
(0 0 8.76094e-06)
(0 0 -7.0905e-06)
(0 5.64897e-23 -3.73731e-05)
(0 0 0.000590215)
(0 0 0.000352033)
(0 0 -0.000420035)
(0 0 -0.000815296)
(0 0 -0.000730344)
(0 0 -0.000463325)
(0 0 -0.000237712)
(0 0 -0.000107005)
(0 0 -4.61383e-05)
(0 0 -2.18964e-05)
(0 0 -1.3373e-05)
(0 0 -1.07085e-05)
(0 0 -1.001e-05)
(0 0 -9.91518e-06)
(0 0 -9.98689e-06)
(0 0 -1.0093e-05)
(0 0 -1.01987e-05)
(0 0 -1.02948e-05)
(0 0 -1.03744e-05)
(0 0 -1.04314e-05)
(0 0 -1.04661e-05)
(0 0 -1.04823e-05)
(0 0 -1.04817e-05)
(0 0 -1.04613e-05)
(0 0 -1.04168e-05)
(0 0 -1.03446e-05)
(0 0 -1.02422e-05)
(0 0 -1.01068e-05)
(0 0 -9.93591e-06)
(0 0 -9.728e-06)
(0 0 -9.48145e-06)
(0 0 -9.19362e-06)
(0 0 -8.8609e-06)
(0 0 -8.47913e-06)
(0 0 -8.0437e-06)
(0 0 -7.54952e-06)
(0 0 -6.99091e-06)
(0 0 -6.36136e-06)
(0 0 -5.65306e-06)
(0 0 -4.85578e-06)
(0 0 -3.95532e-06)
(0 0 -2.93327e-06)
(0 0 -1.76724e-06)
(0 0 -4.30405e-07)
(0 0 1.11077e-06)
(0 0 2.90122e-06)
(0 0 5.00344e-06)
(0 0 7.497e-06)
(0 0 1.04399e-05)
(0 0 1.36941e-05)
(0 0 1.64328e-05)
(0 0 1.61666e-05)
(0 0 7.57866e-06)
(0 0 -1.74003e-05)
(0 3.33716e-22 -6.51689e-05)
(0 0 0.000808833)
(0 0 0.000453945)
(0 0 -0.00061359)
(0 0 -0.00114777)
(0 0 -0.00102085)
(0 0 -0.000647669)
(0 0 -0.000334915)
(0 0 -0.00015439)
(0 0 -7.05529e-05)
(0 0 -3.72917e-05)
(0 0 -2.56975e-05)
(0 0 -2.21654e-05)
(0 0 -2.1332e-05)
(0 0 -2.13236e-05)
(0 0 -2.15397e-05)
(0 0 -2.18005e-05)
(0 0 -2.20582e-05)
(0 0 -2.22978e-05)
(0 0 -2.25107e-05)
(0 0 -2.26926e-05)
(0 0 -2.2845e-05)
(0 0 -2.29714e-05)
(0 0 -2.30719e-05)
(0 0 -2.31422e-05)
(0 0 -2.31772e-05)
(0 0 -2.31735e-05)
(0 0 -2.31284e-05)
(0 0 -2.30386e-05)
(0 0 -2.29009e-05)
(0 0 -2.27129e-05)
(0 0 -2.24716e-05)
(0 0 -2.21737e-05)
(0 0 -2.18151e-05)
(0 0 -2.13908e-05)
(0 0 -2.08953e-05)
(0 0 -2.03219e-05)
(0 0 -1.9663e-05)
(0 0 -1.89102e-05)
(0 0 -1.80531e-05)
(0 0 -1.70778e-05)
(0 0 -1.59656e-05)
(0 0 -1.46922e-05)
(0 0 -1.32288e-05)
(0 0 -1.15409e-05)
(0 0 -9.58497e-06)
(0 0 -7.30281e-06)
(0 0 -4.61364e-06)
(0 0 -1.41515e-06)
(0 0 2.36581e-06)
(0 0 6.54836e-06)
(0 0 1.00629e-05)
(0 0 9.69886e-06)
(0 0 -1.3999e-06)
(0 0 -3.36559e-05)
(0 -2.19241e-22 -9.54104e-05)
(0 0 0.00100554)
(0 0 0.000539936)
(0 0 -0.000796087)
(0 0 -0.00145428)
(0 0 -0.00128818)
(0 0 -0.000818141)
(0 0 -0.000426214)
(0 0 -0.000200542)
(0 0 -9.5955e-05)
(0 0 -5.4611e-05)
(0 0 -4.03263e-05)
(0 0 -3.6095e-05)
(0 0 -3.52207e-05)
(0 0 -3.5367e-05)
(0 0 -3.57866e-05)
(0 0 -3.62575e-05)
(0 0 -3.67205e-05)
(0 0 -3.71559e-05)
(0 0 -3.75546e-05)
(0 0 -3.79146e-05)
(0 0 -3.82386e-05)
(0 0 -3.85292e-05)
(0 0 -3.87851e-05)
(0 0 -3.90008e-05)
(0 0 -3.91712e-05)
(0 0 -3.9293e-05)
(0 0 -3.93637e-05)
(0 0 -3.93802e-05)
(0 0 -3.93388e-05)
(0 0 -3.92362e-05)
(0 0 -3.90685e-05)
(0 0 -3.8832e-05)
(0 0 -3.85221e-05)
(0 0 -3.81336e-05)
(0 0 -3.76601e-05)
(0 0 -3.70938e-05)
(0 0 -3.6426e-05)
(0 0 -3.5647e-05)
(0 0 -3.47446e-05)
(0 0 -3.37026e-05)
(0 0 -3.24988e-05)
(0 0 -3.11054e-05)
(0 0 -2.94894e-05)
(0 0 -2.76111e-05)
(0 0 -2.54204e-05)
(0 0 -2.28507e-05)
(0 0 -1.98096e-05)
(0 0 -1.61817e-05)
(0 0 -1.18872e-05)
(0 0 -7.14132e-06)
(0 0 -3.18425e-06)
(0 0 -3.72112e-06)
(0 0 -1.66646e-05)
(0 0 -5.40934e-05)
(0 1.08245e-22 -0.000125861)
(0 0 0.00116957)
(0 0 0.000627344)
(0 0 -0.000930694)
(0 0 -0.00169879)
(0 0 -0.00150665)
(0 0 -0.000959299)
(0 0 -0.0005026)
(0 0 -0.000239627)
(0 0 -0.000117832)
(0 0 -6.9804e-05)
(0 0 -5.33302e-05)
(0 0 -4.85697e-05)
(0 0 -4.77123e-05)
(0 0 -4.80349e-05)
(0 0 -4.86693e-05)
(0 0 -4.93587e-05)
(0 0 -5.00346e-05)
(0 0 -5.0674e-05)
(0 0 -5.12688e-05)
(0 0 -5.1819e-05)
(0 0 -5.23285e-05)
(0 0 -5.27985e-05)
(0 0 -5.32266e-05)
(0 0 -5.3607e-05)
(0 0 -5.39346e-05)
(0 0 -5.42065e-05)
(0 0 -5.44206e-05)
(0 0 -5.45742e-05)
(0 0 -5.46636e-05)
(0 0 -5.46849e-05)
(0 0 -5.46337e-05)
(0 0 -5.4506e-05)
(0 0 -5.4297e-05)
(0 0 -5.40016e-05)
(0 0 -5.36129e-05)
(0 0 -5.31226e-05)
(0 0 -5.25216e-05)
(0 0 -5.17997e-05)
(0 0 -5.09438e-05)
(0 0 -4.99365e-05)
(0 0 -4.87544e-05)
(0 0 -4.73681e-05)
(0 0 -4.5743e-05)
(0 0 -4.38371e-05)
(0 0 -4.15979e-05)
(0 0 -3.89556e-05)
(0 0 -3.58147e-05)
(0 0 -3.20566e-05)
(0 0 -2.76052e-05)
(0 0 -2.27022e-05)
(0 0 -1.86835e-05)
(0 0 -1.95124e-05)
(0 0 -3.36652e-05)
(0 0 -7.42034e-05)
(0 5.34101e-22 -0.000152144)
(0 0 0.00129596)
(0 0 0.000735947)
(0 0 -0.000981048)
(0 0 -0.00184693)
(0 0 -0.00165192)
(0 0 -0.00105643)
(0 0 -0.000555271)
(0 0 -0.000265721)
(0 0 -0.000131437)
(0 0 -7.85098e-05)
(0 0 -6.04301e-05)
(0 0 -5.52873e-05)
(0 0 -5.44488e-05)
(0 0 -5.49063e-05)
(0 0 -5.57034e-05)
(0 0 -5.65578e-05)
(0 0 -5.73939e-05)
(0 0 -5.81878e-05)
(0 0 -5.89325e-05)
(0 0 -5.96301e-05)
(0 0 -6.02845e-05)
(0 0 -6.08963e-05)
(0 0 -6.14621e-05)
(0 0 -6.19763e-05)
(0 0 -6.24342e-05)
(0 0 -6.28335e-05)
(0 0 -6.31725e-05)
(0 0 -6.34489e-05)
(0 0 -6.36592e-05)
(0 0 -6.37993e-05)
(0 0 -6.38648e-05)
(0 0 -6.38514e-05)
(0 0 -6.37548e-05)
(0 0 -6.35698e-05)
(0 0 -6.32894e-05)
(0 0 -6.29055e-05)
(0 0 -6.24091e-05)
(0 0 -6.17903e-05)
(0 0 -6.10361e-05)
(0 0 -6.0129e-05)
(0 0 -5.9046e-05)
(0 0 -5.77584e-05)
(0 0 -5.62323e-05)
(0 0 -5.44267e-05)
(0 0 -5.22904e-05)
(0 0 -4.97556e-05)
(0 0 -4.67312e-05)
(0 0 -4.31062e-05)
(0 0 -3.8817e-05)
(0 0 -3.41246e-05)
(0 0 -3.03885e-05)
(0 0 -3.16077e-05)
(0 0 -4.63769e-05)
(0 0 -8.82571e-05)
(0 -1.04569e-22 -0.000169394)
(-1.48605e-23 8.07435e-21 -3.74802e-05)
(-1.78787e-22 7.92152e-21 -7.24675e-05)
(4.49204e-23 -2.40231e-22 -0.00011496)
(2.97011e-23 -2.36899e-20 -0.000156284)
(-1.14589e-22 8.13861e-21 -0.000184042)
(4.57707e-22 7.98395e-21 -0.000185914)
(-9.6117e-22 2.32059e-20 -0.000154129)
(3.6929e-22 -2.36593e-20 -8.83864e-05)
(7.51495e-22 -7.58102e-21 4.10196e-06)
(-1.09733e-21 -4.34148e-24 0.000111238)
(-1.11168e-21 -7.64047e-21 0.000219789)
(9.76553e-22 7.20249e-21 0.000318896)
(6.10536e-22 -5.99543e-20 0.000401886)
(-1.09439e-21 1.29179e-19 0.00046625)
(3.39045e-22 -6.98239e-20 0.000512784)
(-1.54807e-21 -5.2625e-20 0.000544337)
(2.75302e-21 -6.69125e-20 0.000564418)
(-2.2182e-21 7.99635e-21 0.000576417)
(-2.48467e-22 -7.3933e-21 0.00058301)
(1.08582e-22 7.42146e-21 0.000586206)
(-3.77432e-24 -1.5438e-22 0.000587332)
(-1.0392e-22 -7.1613e-21 0.000587242)
(-2.38061e-21 7.25817e-21 0.000586449)
(5.02675e-21 1.52413e-23 0.000585212)
(1.48787e-21 7.06515e-21 0.000583586)
(-3.90971e-21 -6.5396e-24 0.000581476)
(5.64345e-21 8.42987e-21 0.000578714)
(-6.32286e-21 1.0716e-19 0.000575149)
(5.23885e-22 -1.15288e-19 0.000570727)
(-2.23653e-21 1.05911e-19 0.000565512)
(2.17171e-21 -1.07296e-19 0.000559634)
(5.76157e-23 1.5932e-21 0.000553185)
(-7.49423e-23 -1.95463e-21 0.000546121)
(2.84717e-21 -1.02671e-19 0.000538195)
(-9.8788e-21 1.00038e-19 0.000528895)
(-3.82112e-22 -1.83731e-21 0.000517262)
(7.37756e-21 1.61355e-23 0.00050132)
(8.04755e-21 1.76008e-23 0.000476528)
(-8.02181e-21 -1.75445e-23 0.000431964)
(-2.67247e-22 -5.84496e-25 0.000341619)
(-2.79775e-22 -6.11896e-25 0.000146285)
(-9.69865e-21 -2.12119e-23 -0.000279613)
(9.36047e-21 2.04723e-23 -0.00117873)
(-3.12623e-22 1.87146e-22 -0.00296927)
(4.58748e-23 9.59952e-21 -0.00627897)
(-2.98842e-20 6.09162e-20 -0.0119031)
(2.875e-20 -8.11175e-20 -0.0206433)
(-7.41002e-21 -1.15236e-20 -0.0330361)
(8.10206e-21 3.22157e-20 -0.0490503)
(-2.56915e-20 -7.16735e-21 -0.0677106)
(-3.07629e-22 8.0994e-21 -0.000111392)
(-1.06778e-22 1.58988e-20 -0.000213868)
(4.01408e-22 7.71255e-21 -0.000338646)
(-1.0795e-21 -7.94423e-21 -0.0004605)
(2.00333e-21 7.5235e-21 -0.000543293)
(-7.2645e-22 -5.42955e-20 -0.000551092)
(-6.22918e-23 8.64562e-20 -0.000461226)
(-8.44148e-23 -9.26843e-21 -0.000272805)
(2.33852e-21 -9.96246e-20 -6.78528e-06)
(-2.29711e-21 1.41259e-19 0.000301673)
(-5.48154e-22 1.28788e-19 0.000614348)
(3.56851e-22 -1.16369e-19 0.000899811)
(-4.76636e-22 8.97041e-22 0.00113857)
(3.37824e-21 -7.39576e-21 0.00132346)
(-2.54986e-21 2.51056e-20 0.001457)
(-6.21875e-21 2.45926e-19 0.00154735)
(1.02084e-21 -2.31997e-19 0.0016047)
(-5.73046e-21 2.48986e-19 0.00163859)
(-2.54507e-22 1.97997e-20 0.00165685)
(-4.6326e-21 -7.60947e-21 0.00166515)
(4.8745e-21 1.74224e-22 0.00166733)
(-4.85393e-21 9.78713e-21 0.00166588)
(2.37907e-21 2.17398e-19 0.00166226)
(4.67462e-21 -4.63033e-19 0.00165718)
(3.98863e-21 -2.20534e-19 0.00165077)
(-5.77133e-21 4.48047e-19 0.00164269)
(1.40429e-21 -4.49092e-19 0.00163238)
(6.75609e-22 4.61612e-19 0.00161935)
(3.94152e-21 8.07037e-22 0.00160339)
(-4.42851e-21 -1.15987e-22 0.00158463)
(-1.48536e-21 -3.24863e-24 0.0015634)
(0 0 0.00153991)
(2.19647e-22 1.13864e-22 0.00151398)
(1.3181e-20 1.39768e-20 0.0014848)
(-1.35275e-20 3.8668e-19 0.00145076)
(-1.82849e-20 -2.55808e-20 0.00140886)
(1.64526e-20 -3.84297e-19 0.00135291)
(2.49062e-20 -3.34096e-19 0.00126876)
(-4.32173e-21 3.59247e-19 0.00112242)
(-3.7124e-20 1.72986e-21 0.000833354)
(3.70865e-20 2.01657e-20 0.000219172)
(-4.21641e-20 2.65192e-19 -0.00110455)
(1.91135e-20 -2.77245e-19 -0.00387579)
(-2.19012e-20 1.74162e-20 -0.00935821)
(2.46089e-20 9.8633e-21 -0.0194377)
(-6.88029e-20 1.3556e-19 -0.0364921)
(6.88433e-20 -1.32466e-19 -0.0629094)
(-1.11446e-19 1.01529e-19 -0.100269)
(1.07437e-19 -1.13882e-19 -0.148405)
(-2.3743e-20 -7.99424e-22 -0.20271)
(4.85981e-23 4.78748e-20 -0.000181362)
(-7.24948e-23 1.50011e-20 -0.000344319)
(3.44701e-22 -6.25557e-20 -0.00054382)
(-6.25552e-22 1.24575e-19 -0.000740423)
(1.37278e-21 -2.67352e-19 -0.000877348)
(9.0347e-22 1.2753e-19 -0.000898036)
(-2.98896e-21 -1.07349e-21 -0.00076672)
(1.83872e-21 -1.76831e-20 -0.000481811)
(4.34227e-22 -2.6159e-19 -7.59162e-05)
(2.25511e-21 2.4998e-19 0.000396184)
(-1.05255e-21 -1.99507e-21 0.000875117)
(-5.11147e-21 -3.16555e-23 0.00131215)
(8.15442e-21 -2.25251e-21 0.0016771)
(-6.46787e-21 -2.56986e-19 0.00195905)
(7.73569e-21 2.34904e-19 0.00216198)
(-1.08433e-20 4.657e-19 0.00229848)
(-6.06768e-21 -1.31072e-20 0.00238409)
(-2.52269e-21 4.80233e-19 0.00243347)
(4.10715e-22 -1.45913e-20 0.00245846)
(-1.15212e-20 4.67825e-19 0.00246763)
(1.12952e-20 -4.86582e-19 0.00246686)
(-7.32572e-21 4.66238e-19 0.00245989)
(-9.87704e-22 -4.85722e-19 0.00244891)
(6.15629e-21 -8.92826e-21 0.00243495)
(-2.95727e-21 1.42616e-20 0.00241809)
(6.49256e-21 -8.46232e-21 0.00239764)
(-1.778e-20 4.4077e-19 0.00237255)
(1.5377e-20 -4.72163e-19 0.00234181)
(1.6416e-20 -4.37905e-19 0.00230486)
(-1.26543e-20 4.42251e-19 0.00226173)
(-1.298e-21 -6.19678e-21 0.00221271)
(1.34296e-20 -1.45231e-22 0.00215791)
(-1.56309e-20 -2.80128e-20 0.00209675)
(4.74553e-20 -8.16042e-19 0.00202765)
(1.87758e-20 5.99794e-20 0.00194763)
(-6.70244e-20 7.71965e-19 0.00185129)
(4.77766e-21 -1.47864e-20 0.00172757)
(-1.3366e-20 -7.14971e-21 0.00155121)
(1.07396e-19 -6.60688e-19 0.00126197)
(-1.95974e-19 1.30771e-18 0.000717814)
(1.97375e-19 -1.31649e-18 -0.000400145)
(8.6415e-20 9.38441e-20 -0.00275716)
(-1.62808e-19 5.8662e-19 -0.00761606)
(-1.76944e-19 4.11568e-19 -0.0171152)
(1.6489e-19 -4.92417e-19 -0.0344145)
(-2.82344e-20 2.4124e-20 -0.0634696)
(7.00979e-20 -2.22398e-20 -0.108238)
(2.00864e-19 -1.24845e-19 -0.171309)
(-2.18533e-19 1.98024e-19 -0.252232)
(-3.23516e-20 -5.2063e-20 -0.337798)
(4.18796e-22 -3.1537e-20 -0.000244143)
(-4.16505e-22 1.60029e-20 -0.000457114)
(8.7006e-22 -2.11719e-22 -0.000720175)
(-8.13182e-22 -1.57178e-20 -0.000983333)
(-1.20843e-21 -1.78687e-21 -0.00117401)
(2.87189e-21 -2.46414e-19 -0.00121964)
(-3.25532e-21 4.68016e-19 -0.00107406)
(1.36099e-21 -2.52703e-19 -0.00073465)
(-2.12808e-21 1.51733e-20 -0.00024222)
(3.87336e-21 -2.76542e-19 0.000334532)
(-5.31604e-21 2.53732e-19 0.000921173)
(-1.00546e-21 4.81787e-19 0.00145641)
(5.14089e-21 -9.78193e-19 0.00190238)
(-7.69811e-21 9.79114e-19 0.0022455)
(1.27193e-20 -9.75846e-19 0.00249067)
(-5.50925e-21 9.70581e-19 0.00265336)
(-7.70538e-21 4.91608e-19 0.00275262)
(-8.22532e-22 -4.626e-21 0.00280636)
(5.48758e-21 4.74989e-21 0.00282893)
(-4.64632e-21 4.56711e-19 0.00283075)
(-7.18332e-21 -4.81053e-19 0.0028188)
(1.79288e-20 1.54357e-20 0.00279756)
(-2.97899e-20 9.25434e-19 0.00276961)
(2.00378e-20 -9.31406e-19 0.00273604)
(2.58651e-21 -4.15659e-21 0.00269668)
(-1.18198e-20 -7.21714e-23 0.00265027)
(1.76371e-20 -1.41206e-20 0.002595)
(-5.8006e-21 1.48852e-22 0.00252903)
(-6.42664e-21 -3.60188e-23 0.00245115)
(6.05663e-21 2.35647e-22 0.0023608)
(-4.17163e-21 -1.66336e-22 0.00225779)
(5.66521e-20 -8.37591e-19 0.00214163)
(-4.96408e-20 8.64735e-19 0.00201086)
(-1.90234e-20 -1.36672e-21 0.00186262)
(2.18246e-20 -9.24509e-21 0.00169206)
(-9.17825e-20 7.81104e-19 0.00149078)
(1.12682e-19 -7.87921e-19 0.00124189)
(-2.79386e-20 3.89897e-21 0.000907225)
(1.9505e-20 -2.40278e-23 0.000396098)
(4.59135e-20 9.15839e-21 -0.000504119)
(-2.62135e-19 6.03925e-19 -0.00226712)
(3.68136e-19 -1.23777e-18 -0.00587079)
(-1.77842e-19 6.31795e-19 -0.0131492)
(2.86456e-19 -4.94538e-19 -0.0271711)
(-2.73648e-19 5.89189e-19 -0.0524269)
(-6.89419e-19 6.12442e-19 -0.0945147)
(1.31292e-18 -1.3219e-18 -0.159071)
(-6.51418e-19 6.78402e-19 -0.24985)
(2.39492e-20 -2.81704e-21 -0.365974)
(5.78334e-21 -4.46917e-20 -0.476443)
(-8.68976e-22 1.61219e-20 -0.000295531)
(-1.15074e-22 6.12028e-20 -0.000545996)
(1.73438e-21 -1.86437e-19 -0.000859298)
(-5.55712e-22 2.50716e-19 -0.00117951)
(-8.35562e-22 -1.11351e-19 -0.00142435)
(5.95733e-23 -1.4684e-20 -0.00151087)
(-4.93969e-22 1.56835e-20 -0.00138559)
(3.7205e-21 -2.27262e-22 -0.00104399)
(-3.67492e-21 -1.5296e-20 -0.000530488)
(-6.18242e-21 3.51222e-20 7.90258e-05)
(-3.78541e-21 4.9004e-19 0.000702109)
(1.77162e-20 -5.10112e-19 0.00127092)
(-2.30115e-20 4.76903e-19 0.00174349)
(1.81346e-20 -4.96724e-19 0.00210444)
(-3.67357e-21 4.16487e-21 0.00235864)
(1.33775e-20 8.32083e-23 0.00252249)
(5.10901e-21 4.52203e-21 0.00261621)
(-8.72176e-22 4.65574e-19 0.00265873)
(1.87312e-20 -5.05279e-19 0.00266518)
(7.84607e-21 3.00277e-20 0.00264639)
(-4.25347e-20 9.64073e-19 0.00260954)
(2.24878e-20 -9.69794e-19 0.00255912)
(1.24966e-20 2.49126e-20 0.00249761)
(-2.18102e-20 -2.82039e-22 0.00242578)
(1.42639e-20 1.1617e-20 0.00234283)
(-2.99542e-20 9.34424e-19 0.00224657)
(2.22255e-20 -9.28687e-19 0.00213394)
(3.41979e-21 1.15981e-20 0.0020018)
(1.20988e-20 2.85658e-20 0.00184754)
(-1.38551e-20 -6.61067e-22 0.00166933)
(1.10434e-21 -1.37184e-20 0.00146561)
(-4.44689e-20 1.39728e-20 0.00123433)
(4.25949e-20 1.33504e-20 0.00097217)
(-4.25027e-21 -2.86068e-20 0.000674009)
(6.79885e-20 -7.88591e-19 0.000332147)
(-5.62707e-20 8.12387e-19 -6.58498e-05)
(2.4771e-19 -1.57908e-18 -0.000543699)
(-2.20131e-19 1.596e-18 -0.00115391)
(2.79996e-19 -1.51399e-18 -0.00202036)
(8.22335e-20 1.42232e-19 -0.00343283)
(-3.27702e-19 1.44897e-18 -0.00603459)
(-1.48473e-19 -2.82826e-20 -0.0111459)
(1.99831e-20 3.14002e-22 -0.0212248)
(-2.32614e-20 5.27573e-22 -0.0403561)
(6.87689e-20 1.93421e-21 -0.0745038)
(3.45249e-20 1.59332e-20 -0.131179)
(-1.44399e-19 6.00191e-21 -0.21825)
(8.34933e-20 6.00834e-21 -0.341581)
(-2.12016e-22 -3.98093e-22 -0.500497)
(4.59833e-20 7.93387e-22 -0.630758)
(-5.46722e-22 7.72909e-20 -0.000330386)
(1.86046e-21 -4.72794e-20 -0.000605287)
(-2.14405e-21 -1.68847e-20 -0.000954344)
(4.4901e-21 -2.31061e-19 -0.0013206)
(-1.54198e-21 2.33279e-19 -0.00161879)
(8.07012e-22 -2.30675e-19 -0.00176177)
(-9.56426e-21 5.08985e-19 -0.00169198)
(7.95075e-21 -7.142e-19 -0.00140197)
(-4.65047e-21 5.0676e-19 -0.00093471)
(-1.97542e-21 4.92437e-19 -0.000365876)
(-2.26414e-21 2.38576e-21 0.000221528)
(1.88643e-20 -9.68388e-19 0.000758812)
(-1.43298e-20 1.01081e-18 0.001203)
(7.16341e-22 -4.77519e-19 0.00153762)
(8.79084e-21 -4.78793e-19 0.00176633)
(2.10051e-20 -4.71357e-19 0.0019043)
(-3.31315e-21 7.2129e-21 0.00197052)
(3.38081e-20 -9.80456e-19 0.00198275)
(2.23998e-20 -9.40844e-19 0.00195504)
(7.35966e-21 2.34425e-20 0.00189728)
(-1.77176e-20 9.79891e-19 0.0018158)
(-2.4393e-20 -9.80846e-21 0.00171435)
(1.48801e-20 1.08091e-20 0.00159462)
(-4.34203e-20 9.52783e-19 0.0014565)
(3.21984e-20 -9.72529e-19 0.00129799)
(6.76691e-20 -9.31219e-19 0.00111534)
(-6.91019e-20 9.66633e-19 0.00090356)
(1.81717e-20 -2.41075e-20 0.000657264)
(5.6627e-20 -9.35266e-19 0.000371453)
(-8.9917e-20 9.62502e-19 4.16743e-05)
(5.26097e-21 1.48542e-20 -0.00033647)
(-1.8798e-19 1.76892e-18 -0.000768226)
(1.63512e-19 -1.84229e-18 -0.00126054)
(5.89553e-20 7.2868e-20 -0.00182266)
(-2.42584e-19 1.68905e-18 -0.00246696)
(2.14968e-19 -1.76879e-18 -0.00321141)
(-3.83049e-20 -4.26877e-21 -0.00408741)
(4.65834e-19 -1.60626e-18 -0.00516119)
(-4.29849e-19 1.66715e-18 -0.00658692)
(-8.28876e-20 -8.72781e-20 -0.0087258)
(7.0059e-19 -1.42096e-18 -0.0123842)
(-1.20091e-18 2.9675e-18 -0.0192257)
(-8.90623e-20 -1.65141e-19 -0.0323609)
(-1.25657e-19 -1.24139e-19 -0.0569876)
(8.32407e-19 -1.32847e-18 -0.100784)
(5.1019e-20 8.09487e-20 -0.173735)
(-1.03945e-18 9.22834e-19 -0.287332)
(1.01502e-18 -1.02187e-18 -0.452883)
(1.09503e-20 3.77884e-20 -0.675426)
(1.17026e-20 -3.34463e-21 -0.831776)
(6.85332e-22 -1.62838e-20 -0.000343921)
(1.33848e-21 -1.37317e-19 -0.000631938)
(-1.56448e-21 1.24159e-19 -0.0010015)
(-1.67025e-21 -1.79246e-20 -0.00139989)
(4.86385e-21 -2.29789e-19 -0.00174563)
(-4.35738e-21 2.37599e-19 -0.00195356)
(-2.61512e-21 4.7818e-19 -0.00196534)
(-5.96354e-21 -2.01796e-20 -0.00176975)
(3.17683e-21 -5.06987e-21 -0.00140379)
(1.19752e-20 -5.10087e-19 -0.00093633)
(-8.33708e-21 4.77749e-19 -0.000444398)
(8.64391e-21 -1.01255e-18 7.33795e-06)
(1.61576e-21 5.0769e-19 0.000377492)
(-4.68363e-21 -1.97864e-20 0.000648945)
(-6.16441e-21 -2.42612e-20 0.000823221)
(1.99497e-20 -9.97322e-19 0.00091254)
(-1.67241e-21 -1.96689e-20 0.000932828)
(1.77361e-20 -1.01697e-18 0.000899112)
(-6.80596e-21 -6.47264e-21 0.000823243)
(-1.92345e-22 1.45363e-22 0.000713372)
(1.39039e-20 1.02319e-20 0.000574578)
(-4.4981e-20 9.82828e-19 0.000409662)
(3.79495e-20 -1.00701e-18 0.000219642)
(1.54622e-20 1.01165e-20 3.81293e-06)
(-1.08562e-20 -1.54866e-20 -0.000240426)
(-7.45034e-21 1.19574e-20 -0.000517527)
(-6.36065e-20 9.54325e-19 -0.000833218)
(1.38594e-19 -1.95539e-18 -0.00119348)
(-6.33155e-20 1.02745e-18 -0.00160356)
(-1.67649e-19 1.89767e-18 -0.00206755)
(-3.16985e-20 -4.67122e-20 -0.00258857)
(8.71953e-21 -2.33029e-20 -0.00316922)
(-7.3441e-20 -5.58085e-20 -0.00381176)
(2.29997e-19 -1.91549e-18 -0.00451765)
(3.83866e-19 -1.77161e-18 -0.00528686)
(-3.31788e-19 1.87116e-18 -0.00611818)
(-4.13019e-20 -6.68085e-20 -0.00701445)
(4.45852e-19 -1.71406e-18 -0.00800166)
(-3.76893e-19 1.82965e-18 -0.00918295)
(-6.66188e-19 1.62281e-18 -0.0108687)
(5.43168e-19 -1.72819e-18 -0.0138503)
(9.51876e-20 -1.34798e-20 -0.019897)
(9.22378e-19 -1.56296e-18 -0.0325059)
(1.71517e-19 1.24336e-19 -0.0577853)
(-1.10606e-18 1.55309e-18 -0.105139)
(-2.21621e-20 -4.9998e-20 -0.187377)
(4.37952e-20 6.9056e-22 -0.320888)
(-4.27975e-20 2.05761e-20 -0.529813)
(-6.27043e-19 6.54036e-19 -0.856725)
(6.14848e-19 -6.66894e-19 -1.20461)
(-9.90814e-21 -2.61217e-21 0.000313369)
(-6.80952e-21 2.69552e-21 -0.013428)
(6.26209e-21 4.78031e-21 -0.0239057)
(-1.02291e-20 -1.49547e-20 -0.030963)
(1.06412e-20 7.9832e-21 -0.0346038)
(-4.36295e-22 1.3303e-21 -0.0351731)
(-8.81146e-23 -5.60526e-23 -0.0333029)
(-2.10363e-21 4.60084e-24 -0.0297728)
(2.03589e-21 -4.45269e-24 -0.0253591)
(-4.6623e-23 1.01969e-25 -0.0207173)
(-3.63791e-23 7.95646e-26 -0.0163221)
(7.48436e-22 -1.6369e-24 -0.0124601)
(-7.50847e-22 1.64218e-24 -0.00925734)
(-4.93261e-22 1.07881e-24 -0.00672332)
(7.2709e-23 -9.40905e-23 -0.00479521)
(2.77375e-21 8.22733e-20 -0.0033753)
(-2.10571e-21 -7.69633e-20 -0.0023574)
(-8.64637e-24 -8.82264e-23 -0.00164304)
(-3.29703e-24 9.11698e-23 -0.00114926)
(-1.43182e-21 -9.59613e-20 -0.000810808)
(1.4382e-21 9.60646e-20 -0.00057901)
(-9.35363e-22 -9.43867e-20 -0.000419022)
(3.9981e-22 6.28227e-21 -0.00030681)
(-4.00179e-22 5.75992e-25 -0.000225917)
(3.93965e-22 6.60733e-21 -0.00016596)
(-1.01185e-22 6.99111e-24 -0.000119906)
(-4.15331e-22 9.0837e-25 -8.35737e-05)
(2.09804e-22 -7.41179e-24 -5.42666e-05)
(5.50149e-23 6.97423e-21 -3.01836e-05)
(-1.39159e-23 1.40381e-23 -1.00881e-05)
(-4.37297e-23 -7.12839e-21 6.91142e-06)
(2.55891e-23 7.18827e-21 2.14844e-05)
(1.69847e-22 -7.30804e-21 3.41371e-05)
(-1.77924e-22 6.60165e-20 4.52456e-05)
(-5.38177e-23 -6.6027e-20 5.50829e-05)
(-1.89108e-22 -5.22596e-20 6.38483e-05)
(3.74905e-22 1.12089e-19 7.1693e-05)
(-1.95684e-22 -5.99317e-20 7.87402e-05)
(-1.37278e-22 -7.63223e-21 8.5095e-05)
(1.23334e-22 7.60836e-21 9.08492e-05)
(9.15997e-23 -5.7434e-26 9.60822e-05)
(-1.05351e-22 7.73513e-21 0.000100862)
(-8.57421e-23 -3.87888e-20 0.000105251)
(1.23306e-22 3.88424e-20 0.000109324)
(-7.36387e-23 -7.80822e-21 0.000113218)
(2.98322e-23 2.36018e-20 0.000117249)
(-5.00777e-23 -7.84604e-21 0.000122163)
(-3.52087e-23 -1.58913e-20 0.000129506)
(2.82952e-23 7.95507e-21 0.000142002)
(5.3485e-24 -8.00036e-21 0.000163534)
(-1.47631e-20 2.2379e-20 -0.00284846)
(-2.30871e-21 -2.91067e-20 -0.0431229)
(7.29135e-21 1.31378e-22 -0.0733446)
(-2.57818e-20 -2.14912e-20 -0.0932042)
(2.48957e-20 2.29942e-20 -0.102964)
(-6.91729e-21 5.45598e-21 -0.103825)
(4.63315e-21 -8.04842e-22 -0.0977388)
(-4.8275e-20 -1.40701e-19 -0.08701)
(5.07568e-20 1.32292e-19 -0.0738834)
(-8.95938e-21 -3.62236e-21 -0.060228)
(3.36318e-21 -7.67972e-21 -0.0473815)
(4.06413e-20 2.50683e-19 -0.0361406)
(-4.32805e-20 -2.48992e-19 -0.0268448)
(-3.46486e-20 -2.97174e-19 -0.019504)
(5.22491e-21 -2.0238e-20 -0.0139256)
(3.06143e-20 3.16685e-19 -0.00982064)
(-1.16144e-21 -4.85244e-21 -0.00687887)
(-8.95476e-22 -1.12213e-20 -0.00481396)
(1.45002e-24 -1.29203e-23 -0.00338552)
(8.49988e-23 -1.85901e-25 -0.00240485)
(3.20543e-22 4.61331e-24 -0.00173136)
(-4.11593e-22 -6.66171e-21 -0.00126457)
(1.03134e-20 3.94953e-19 -0.000935096)
(-1.14253e-20 -4.2763e-19 -0.00069578)
(9.12053e-21 4.21032e-19 -0.000516434)
(-5.1433e-21 -2.10759e-19 -0.000377954)
(-7.88384e-21 -4.37741e-19 -0.000267912)
(3.38657e-21 2.19852e-19 -0.00017844)
(3.48153e-22 -6.76506e-21 -0.000104432)
(-6.65774e-22 -1.41661e-20 -4.23505e-05)
(5.09758e-22 7.14741e-21 1.03917e-05)
(-2.42985e-22 -2.18405e-20 5.5759e-05)
(2.52873e-21 2.26497e-19 9.52478e-05)
(-5.32025e-21 -4.76212e-19 0.000129973)
(2.5076e-21 2.27733e-19 0.00016075)
(7.5472e-23 -2.20916e-20 0.00018818)
(-2.70466e-22 7.46282e-21 0.000212728)
(4.83075e-23 1.23447e-22 0.000234778)
(-8.17972e-22 -1.29129e-19 0.000254663)
(7.07347e-22 1.13843e-19 0.000272673)
(7.41027e-22 1.07693e-19 0.000289056)
(-9.89287e-22 -1.46028e-19 0.000304025)
(7.45718e-23 7.57999e-21 0.000317772)
(1.23886e-22 3.90449e-20 0.000330521)
(-2.35372e-22 -7.0206e-20 0.000342668)
(-2.28404e-22 -7.86474e-21 0.000355134)
(-1.15912e-22 -5.52394e-20 0.000370061)
(-9.04264e-23 -8.05199e-21 0.000391917)
(9.10414e-23 1.58272e-20 0.000428601)
(9.32452e-23 2.39561e-20 0.000491424)
(-1.60698e-20 1.99778e-22 -0.0174017)
(4.01411e-20 2.0754e-20 -0.0814785)
(-1.91465e-20 -8.363e-21 -0.127768)
(-3.77912e-20 -1.23167e-20 -0.156474)
(1.4529e-20 6.21526e-21 -0.16891)
(-1.35375e-19 -2.01455e-19 -0.167598)
(1.44744e-19 1.88356e-19 -0.155936)
(1.76978e-19 3.27331e-19 -0.137632)
(-1.19859e-20 7.60714e-20 -0.116141)
(-3.25223e-19 -8.04223e-19 -0.094258)
(3.21358e-19 9.15449e-19 -0.0739355)
(-1.53657e-19 -4.6957e-19 -0.056301)
(-1.17394e-21 -1.13302e-20 -0.0418003)
(-8.54486e-22 -1.14944e-21 -0.0303934)
(1.05645e-19 6.64482e-19 -0.0217478)
(-1.47549e-20 2.3447e-20 -0.0153966)
(-8.86795e-20 -6.76964e-19 -0.0108486)
(3.53359e-21 2.18798e-20 -0.00765579)
(-1.02189e-21 3.36956e-23 -0.00544411)
(5.93605e-23 -4.26073e-22 -0.00392121)
(2.39294e-20 4.03309e-19 -0.00286994)
(-2.33238e-20 -3.89781e-19 -0.00213577)
(-1.87798e-20 -4.07019e-19 -0.00161153)
(2.00186e-20 4.32426e-19 -0.0012264)
(1.33266e-22 1.39162e-20 -0.000932472)
(-3.30641e-22 -1.36402e-20 -0.00070202)
(-9.34033e-23 1.42438e-20 -0.000516082)
(-1.02502e-20 -4.35324e-19 -0.000362656)
(1.15074e-20 4.49409e-19 -0.000234077)
(-9.43369e-21 -4.29289e-19 -0.000124951)
(1.01462e-20 4.57927e-19 -3.13009e-05)
(2.29621e-22 1.44999e-20 4.9908e-05)
(7.10158e-21 4.70014e-19 0.000120996)
(-1.42192e-20 -9.27421e-19 0.000183709)
(7.94839e-21 4.8671e-19 0.000239352)
(2.20218e-21 2.54872e-19 0.000288928)
(-1.90886e-21 -2.24328e-19 0.000333255)
(-8.76515e-22 -2.06948e-22 0.000373039)
(4.95821e-22 -5.67281e-24 0.000408897)
(1.29981e-22 -2.15858e-22 0.00044137)
(1.8051e-21 2.45884e-19 0.000470915)
(-1.95098e-21 -2.30397e-19 0.000497915)
(-5.85271e-23 1.52691e-20 0.000522707)
(3.67793e-22 -9.09275e-23 0.000545667)
(6.6731e-22 1.25162e-19 0.000567426)
(-1.56322e-21 -2.34931e-19 0.000589405)
(8.48692e-22 1.25484e-19 0.000614905)
(-4.17278e-22 -6.31362e-20 0.000650828)
(2.86871e-22 4.73463e-20 0.000709468)
(8.2662e-23 1.59e-20 0.000808643)
(1.25269e-21 2.73931e-20 -0.0499751)
(8.95061e-21 -5.13448e-20 -0.134543)
(1.84297e-19 2.27731e-19 -0.19057)
(-4.73582e-19 -4.71919e-19 -0.221504)
(3.05571e-19 2.43022e-19 -0.231092)
(1.96967e-19 2.86857e-19 -0.223819)
(-2.19199e-19 -2.67175e-19 -0.204602)
(2.29026e-19 3.83672e-19 -0.178261)
(-4.71542e-19 -8.23164e-19 -0.149015)
(2.53251e-19 4.26207e-19 -0.120134)
(-4.82298e-21 1.30283e-20 -0.0938151)
(-4.29733e-21 6.88732e-22 -0.0712589)
(6.97963e-21 1.07542e-20 -0.0528672)
(-1.6745e-19 -6.66407e-19 -0.0384847)
(1.59259e-19 6.42944e-19 -0.0276294)
(1.99976e-21 2.36125e-20 -0.0196776)
(-3.57694e-22 -1.23184e-20 -0.0139932)
(9.78536e-20 7.67892e-19 -0.0100039)
(-9.80955e-20 -7.65971e-19 -0.00723655)
(-1.1442e-21 -1.35845e-20 -0.00532368)
(-4.08547e-22 -1.58986e-23 -0.00399366)
(6.36235e-22 8.21171e-23 -0.00305419)
(4.12937e-22 -1.60108e-23 -0.00237341)
(-5.9535e-22 1.35041e-20 -0.00186253)
(1.20985e-21 4.35316e-23 -0.00146553)
(3.72966e-22 1.4778e-20 -0.0011464)
(-3.58254e-20 -9.15095e-19 -0.000883665)
(3.62566e-20 8.99661e-19 -0.000662752)
(-1.70677e-21 1.42822e-21 -0.000474421)
(-1.1879e-20 -4.63218e-19 -0.00031217)
(1.35705e-20 4.77021e-19 -0.000171149)
(-5.6509e-22 4.90682e-22 -4.76312e-05)
(-1.09079e-22 4.63392e-22 6.12454e-05)
(-8.98711e-21 -4.91484e-19 0.000157671)
(1.85655e-20 9.69742e-19 0.000243353)
(-1.7643e-20 -9.59627e-19 0.00031969)
(1.60045e-20 9.64601e-19 0.000387905)
(-1.46574e-20 -9.68812e-19 0.000449098)
(6.89468e-21 4.8476e-19 0.00050425)
(3.58226e-21 2.45535e-19 0.00055421)
(-3.06469e-21 -2.141e-19 0.000599689)
(6.75044e-24 -1.53827e-20 0.000641269)
(-2.60346e-21 -2.48085e-19 0.000679452)
(5.50317e-21 5.27213e-19 0.000714763)
(-2.67891e-21 -2.48129e-19 0.000748023)
(1.24431e-22 -2.20609e-22 0.000781014)
(2.20659e-22 1.56528e-20 0.000817834)
(-1.36757e-22 2.80927e-23 0.000867108)
(-9.95799e-23 -1.57661e-20 0.000944377)
(2.38514e-22 3.15527e-20 0.0010726)
(2.79101e-20 -5.07882e-23 -0.109758)
(-1.20965e-21 -9.59164e-22 -0.209296)
(-5.80732e-20 -2.02232e-21 -0.264779)
(7.56534e-20 -3.76937e-21 -0.28852)
(-2.86159e-20 -8.05693e-21 -0.288157)
(-3.05228e-20 -1.56994e-21 -0.270487)
(1.52917e-20 5.42887e-21 -0.241652)
(-7.64117e-21 -7.25325e-21 -0.207016)
(3.95985e-20 -1.73498e-20 -0.170939)
(5.48452e-19 1.11599e-18 -0.136611)
(-4.79188e-20 8.01812e-20 -0.106058)
(-5.32268e-19 -1.22011e-18 -0.080282)
(4.43219e-19 1.33295e-18 -0.0594938)
(-4.50498e-19 -1.33146e-18 -0.0433661)
(1.76903e-19 7.27981e-19 -0.0312666)
(-1.83197e-19 -7.52089e-19 -0.0224439)
(3.24838e-21 1.03732e-20 -0.0161576)
(-6.35471e-21 -1.21571e-20 -0.0117533)
(2.44612e-21 -1.28044e-20 -0.00869629)
(1.46284e-21 1.28271e-20 -0.0065748)