/*--------------------------------*- C++ -*----------------------------------*\
| =========                 |                                                 |
| \\      /  F ield         | OpenFOAM: The Open Source CFD Toolbox           |
|  \\    /   O peration     | Version:  2412                                  |
|   \\  /    A nd           | Website:  www.openfoam.com                      |
|    \\/     M anipulation  |                                                 |
\*---------------------------------------------------------------------------*/
FoamFile
{
    version     2.0;
    format      ascii;
    arch        "LSB;label=32;scalar=64";
    class       volVectorField;
    location    "27.5";
    object      U;
}
// * * * * * * * * * * * * * * * * * * * * * * * * * * * * * * * * * * * * * //

dimensions      [0 1 -1 0 0 0 0];

internalField   nonuniform List<vector> 
5285
(
(0.0999997 4.40815e-07 0)
(0.099995 1.31106e-06 0)
(0.099985 2.16868e-06 0)
(0.0999705 3.01789e-06 0)
(0.0999518 3.86345e-06 0)
(0.0999288 4.70917e-06 0)
(0.0999019 5.55789e-06 0)
(0.0998711 6.41295e-06 0)
(0.0998366 7.28182e-06 0)
(0.0997984 8.18101e-06 0)
(0.0997565 9.1394e-06 0)
(0.0997107 1.01969e-05 0)
(0.0996606 1.13975e-05 0)
(0.0996057 1.27777e-05 0)
(0.0995451 1.43547e-05 0)
(0.0994785 1.61183e-05 0)
(0.0994052 1.80294e-05 0)
(0.099325 2.00256e-05 0)
(0.099238 2.20317e-05 0)
(0.0991447 2.3973e-05 0)
(0.0990457 2.57867e-05 0)
(0.0989418 2.74304e-05 0)
(0.0988341 2.88853e-05 0)
(0.0987233 3.0156e-05 0)
(0.0986104 3.12661e-05 0)
(0.0984959 3.22525e-05 0)
(0.0983804 3.31592e-05 0)
(0.098264 3.40313e-05 0)
(0.098147 3.49112e-05 0)
(0.0980292 3.58356e-05 0)
(0.0979107 3.68338e-05 0)
(0.0977911 3.7928e-05 0)
(0.0976703 3.91335e-05 0)
(0.0975479 4.04601e-05 0)
(0.0974237 4.19129e-05 0)
(0.0972975 4.34941e-05 0)
(0.097169 4.52039e-05 0)
(0.0970379 4.70412e-05 0)
(0.0969042 4.90047e-05 0)
(0.0967675 5.10932e-05 0)
(0.0966278 5.33059e-05 0)
(0.0964848 5.56425e-05 0)
(0.0963384 5.81038e-05 0)
(0.0961886 6.0691e-05 0)
(0.0960352 6.34062e-05 0)
(0.095878 6.6252e-05 0)
(0.095717 6.92318e-05 0)
(0.095552 7.23496e-05 0)
(0.095383 7.56099e-05 0)
(0.0952099 7.90179e-05 0)
(0.0950325 8.25798e-05 0)
(0.0948508 8.63037e-05 0)
(0.0946646 9.02036e-05 0)
(0.0944738 9.431e-05 0)
(0.0942782 9.86997e-05 0)
(0.0999997 1.32244e-06 0)
(0.099995 3.9331e-06 0)
(0.099985 6.50589e-06 0)
(0.0999706 9.05332e-06 0)
(0.0999518 1.15896e-05 0)
(0.0999289 1.41264e-05 0)
(0.099902 1.6672e-05 0)
(0.0998712 1.92367e-05 0)
(0.0998367 2.18428e-05 0)
(0.0997986 2.45396e-05 0)
(0.0997567 2.74134e-05 0)
(0.099711 3.05837e-05 0)
(0.0996609 3.41817e-05 0)
(0.099606 3.83168e-05 0)
(0.0995455 4.30406e-05 0)
(0.099479 4.8323e-05 0)
(0.0994058 5.40475e-05 0)
(0.0993257 6.00277e-05 0)
(0.0992389 6.60395e-05 0)
(0.0991457 7.18594e-05 0)
(0.0990468 7.72999e-05 0)
(0.0989431 8.22337e-05 0)
(0.0988355 8.66048e-05 0)
(0.0987249 9.04261e-05 0)
(0.0986121 9.37678e-05 0)
(0.0984977 9.67397e-05 0)
(0.0983822 9.94728e-05 0)
(0.098266 0.000102102 0)
(0.098149 0.000104754 0)
(0.0980314 0.000107537 0)
(0.0979129 0.000110541 0)
(0.0977934 0.00011383 0)
(0.0976727 0.000117452 0)
(0.0975504 0.000121435 0)
(0.0974264 0.000125794 0)
(0.0973003 0.000130538 0)
(0.0971719 0.000135665 0)
(0.097041 0.000141174 0)
(0.0969074 0.000147061 0)
(0.096771 0.000153321 0)
(0.0966314 0.000159953 0)
(0.0964887 0.000166956 0)
(0.0963426 0.000174332 0)
(0.096193 0.000182085 0)
(0.0960398 0.000190221 0)
(0.095883 0.000198748 0)
(0.0957223 0.000207676 0)
(0.0955577 0.000217017 0)
(0.095389 0.000226784 0)
(0.0952163 0.000236994 0)
(0.0950393 0.000247663 0)
(0.094858 0.000258817 0)
(0.0946723 0.000270497 0)
(0.094482 0.000282792 0)
(0.0942869 0.000295932 0)
(0.0999997 2.20319e-06 0)
(0.099995 6.55234e-06 0)
(0.099985 1.08386e-05 0)
(0.0999706 1.50824e-05 0)
(0.0999519 1.93076e-05 0)
(0.099929 2.35334e-05 0)
(0.0999021 2.77741e-05 0)
(0.0998714 3.20464e-05 0)
(0.099837 3.63875e-05 0)
(0.0997989 4.08793e-05 0)
(0.0997571 4.5665e-05 0)
(0.0997114 5.09429e-05 0)
(0.0996614 5.69314e-05 0)
(0.0996066 6.38121e-05 0)
(0.0995463 7.16715e-05 0)
(0.0994799 8.04604e-05 0)
(0.0994069 8.99858e-05 0)
(0.0993271 9.99388e-05 0)
(0.0992405 0.000109947 0)
(0.0991476 0.00011964 0)
(0.0990491 0.000128704 0)
(0.0989456 0.000136929 0)
(0.0988383 0.000144219 0)
(0.0987279 0.000150596 0)
(0.0986154 0.000156175 0)
(0.0985012 0.000161138 0)
(0.098386 0.000165702 0)
(0.0982699 0.000170092 0)
(0.0981531 0.000174516 0)
(0.0980357 0.000179157 0)
(0.0979174 0.000184161 0)
(0.0977981 0.000189639 0)
(0.0976775 0.000195668 0)
(0.0975555 0.000202295 0)
(0.0974317 0.000209548 0)
(0.0973059 0.000217438 0)
(0.0971778 0.000225967 0)
(0.0970472 0.000235129 0)
(0.096914 0.000244918 0)
(0.0967779 0.000255329 0)
(0.0966388 0.000266357 0)
(0.0964964 0.000278002 0)
(0.0963508 0.000290267 0)
(0.0962018 0.000303158 0)
(0.0960491 0.000316685 0)
(0.0958929 0.000330862 0)
(0.0957328 0.000345704 0)
(0.0955689 0.000361232 0)
(0.0954009 0.000377467 0)
(0.095229 0.000394435 0)
(0.0950528 0.000412165 0)
(0.0948724 0.000430697 0)
(0.0946876 0.000450097 0)
(0.0944983 0.000470507 0)
(0.0943043 0.000492293 0)
(0.0999997 3.08248e-06 0)
(0.099995 9.16688e-06 0)
(0.0999851 1.51636e-05 0)
(0.0999707 2.11007e-05 0)
(0.099952 2.70118e-05 0)
(0.0999291 3.29236e-05 0)
(0.0999023 3.88561e-05 0)
(0.0998717 4.48327e-05 0)
(0.0998373 5.09052e-05 0)
(0.0997993 5.71876e-05 0)
(0.0997576 6.38793e-05 0)
(0.099712 7.12565e-05 0)
(0.0996622 7.96237e-05 0)
(0.0996076 8.92349e-05 0)
(0.0995475 0.000100212 0)
(0.0994814 0.000112487 0)
(0.0994087 0.000125793 0)
(0.0993292 0.0001397 0)
(0.099243 0.00015369 0)
(0.0991505 0.000167245 0)
(0.0990524 0.000179929 0)
(0.0989494 0.000191444 0)
(0.0988425 0.000201659 0)
(0.0987325 0.0002106 0)
(0.0986203 0.000218425 0)
(0.0985064 0.000225389 0)
(0.0983915 0.000231792 0)
(0.0982757 0.000237946 0)
(0.0981592 0.000244144 0)
(0.098042 0.000250639 0)
(0.097924 0.000257637 0)
(0.097805 0.000265292 0)
(0.0976848 0.000273712 0)
(0.0975631 0.000282965 0)
(0.0974396 0.000293089 0)
(0.0973142 0.000304101 0)
(0.0971865 0.000316002 0)
(0.0970565 0.000328786 0)
(0.0969238 0.000342445 0)
(0.0967882 0.000356971 0)
(0.0966497 0.000372357 0)
(0.0965081 0.000388604 0)
(0.0963632 0.000405715 0)
(0.0962149 0.000423698 0)
(0.0960631 0.000442567 0)
(0.0959077 0.000462341 0)
(0.0957486 0.000483042 0)
(0.0955856 0.000504696 0)
(0.0954188 0.000527333 0)
(0.0952479 0.000550988 0)
(0.095073 0.000575701 0)
(0.0948938 0.000601525 0)
(0.0947104 0.000628546 0)
(0.0945226 0.000656947 0)
(0.0943302 0.000687194 0)
(0.0999997 3.95979e-06 0)
(0.099995 1.17748e-05 0)
(0.0999851 1.94781e-05 0)
(0.0999707 2.71042e-05 0)
(0.0999521 3.46968e-05 0)
(0.0999293 4.22901e-05 0)
(0.0999026 4.991e-05 0)
(0.099872 5.75864e-05 0)
(0.0998378 6.53853e-05 0)
(0.0997999 7.34521e-05 0)
(0.0997583 8.20416e-05 0)
(0.0997129 9.15066e-05 0)
(0.0996633 0.000102237 0)
(0.0996089 0.000114558 0)
(0.0995491 0.000128627 0)
(0.0994833 0.000144361 0)
(0.099411 0.000161419 0)
(0.099332 0.000179255 0)
(0.0992463 0.000197205 0)
(0.0991544 0.000214609 0)
(0.0990568 0.000230906 0)
(0.0989543 0.000245713 0)
(0.0988479 0.000258858 0)
(0.0987384 0.000270373 0)
(0.0986267 0.000280458 0)
(0.0985133 0.000289434 0)
(0.0983987 0.000297684 0)
(0.0982833 0.000305609 0)
(0.0981672 0.000313581 0)
(0.0980504 0.000321927 0)
(0.0979328 0.000330908 0)
(0.0978141 0.000340724 0)
(0.0976943 0.000351513 0)
(0.0975731 0.000363365 0)
(0.0974501 0.00037633 0)
(0.0973252 0.000390428 0)
(0.0971982 0.000405662 0)
(0.0970687 0.000422027 0)
(0.0969367 0.000439509 0)
(0.0968019 0.000458101 0)
(0.0966642 0.000477793 0)
(0.0965235 0.000498586 0)
(0.0963795 0.000520483 0)
(0.0962323 0.000543495 0)
(0.0960816 0.000567638 0)
(0.0959273 0.000592937 0)
(0.0957695 0.000619418 0)
(0.0956078 0.000647114 0)
(0.0954424 0.000676063 0)
(0.0952731 0.000706306 0)
(0.0950997 0.000737895 0)
(0.0949223 0.000770892 0)
(0.0947407 0.000805398 0)
(0.0945549 0.000841619 0)
(0.0943646 0.000880079 0)
(0.0999997 4.83474e-06 0)
(0.099995 1.43743e-05 0)
(0.0999852 2.37791e-05 0)
(0.0999709 3.30888e-05 0)
(0.0999523 4.23572e-05 0)
(0.0999296 5.16265e-05 0)
(0.0999029 6.0928e-05 0)
(0.0998725 7.02982e-05 0)
(0.0998384 7.98171e-05 0)
(0.0998006 8.96607e-05 0)
(0.0997592 0.000100138 0)
(0.099714 0.000111676 0)
(0.0996646 0.000124749 0)
(0.0996105 0.000139754 0)
(0.099551 0.000156884 0)
(0.0994856 0.000176042 0)
(0.0994139 0.000196818 0)
(0.0993354 0.000218551 0)
(0.0992504 0.000240436 0)
(0.0991591 0.00026167 0)
(0.0990621 0.000281571 0)
(0.0989604 0.00029967 0)
(0.0988546 0.000315753 0)
(0.0987457 0.000329853 0)
(0.0986346 0.000342212 0)
(0.0985217 0.000353214 0)
(0.0984077 0.000363325 0)
(0.0982928 0.000373026 0)
(0.0981771 0.000382774 0)
(0.0980607 0.000392962 0)
(0.0979436 0.000403913 0)
(0.0978254 0.000415869 0)
(0.0977061 0.000429001 0)
(0.0975854 0.000443419 0)
(0.0974631 0.000459183 0)
(0.0973389 0.000476323 0)
(0.0972126 0.000494841 0)
(0.0970839 0.000514732 0)
(0.0969528 0.00053598 0)
(0.096819 0.000558575 0)
(0.0966823 0.000582507 0)
(0.0965426 0.000607774 0)
(0.0963999 0.000634381 0)
(0.0962539 0.000662341 0)
(0.0961045 0.000691673 0)
(0.0959517 0.000722404 0)
(0.0957954 0.000754566 0)
(0.0956355 0.000788199 0)
(0.0954718 0.000823344 0)
(0.0953043 0.000860053 0)
(0.0951329 0.000898382 0)
(0.0949576 0.000938402 0)
(0.0947783 0.000980219 0)
(0.0945949 0.00102404 0)
(0.0944072 0.0010704 0)
(0.0999997 5.70662e-06 0)
(0.099995 1.6964e-05 0)
(0.0999852 2.80637e-05 0)
(0.099971 3.90503e-05 0)
(0.0999525 4.99879e-05 0)
(0.0999299 6.09263e-05 0)
(0.0999033 7.19024e-05 0)
(0.099873 8.29592e-05 0)
(0.0998391 9.41902e-05 0)
(0.0998015 0.000105801 0)
(0.0997603 0.000118153 0)
(0.0997153 0.000131748 0)
(0.0996661 0.00014714 0)
(0.0996124 0.000164799 0)
(0.0995533 0.000184954 0)
(0.0994884 0.000207495 0)
(0.0994172 0.000231948 0)
(0.0993394 0.000257539 0)
(0.0992551 0.000283328 0)
(0.0991646 0.000308371 0)
(0.0990684 0.000331864 0)
(0.0989674 0.000353254 0)
(0.0988624 0.000372282 0)
(0.0987543 0.000388982 0)
(0.0986438 0.00040363 0)
(0.0985316 0.000416674 0)
(0.0984182 0.000428656 0)
(0.0983038 0.000440142 0)
(0.0981887 0.000451663 0)
(0.0980729 0.000463687 0)
(0.0979563 0.00047659 0)
(0.0978388 0.000490661 0)
(0.0977201 0.000506102 0)
(0.0976001 0.000523043 0)
(0.0974785 0.000541561 0)
(0.0973551 0.000561688 0)
(0.0972297 0.000583431 0)
(0.097102 0.000606782 0)
(0.0969719 0.000631727 0)
(0.0968392 0.000658249 0)
(0.0967038 0.000686341 0)
(0.0965655 0.000715997 0)
(0.0964241 0.000747224 0)
(0.0962796 0.000780035 0)
(0.0961319 0.000814452 0)
(0.0959808 0.000850504 0)
(0.0958263 0.000888229 0)
(0.0956683 0.000927671 0)
(0.0955067 0.000968877 0)
(0.0953415 0.0010119 0)
(0.0951725 0.00105681 0)
(0.0949996 0.00110368 0)
(0.094823 0.0011526 0)
(0.0946424 0.00120376 0)
(0.0944579 0.0012576 0)
(0.0940767 0.000103599 -4.43209e-24)
(0.0938672 0.000108786 -4.52012e-24)
(0.0936478 0.000114315 -3.17458e-26)
(0.0934178 0.000120211 1.3895e-23)
(0.0931766 0.000126506 -4.60233e-24)
(0.0929233 0.000133235 -4.73919e-24)
(0.0926571 0.000140437 -1.45996e-23)
(0.0923773 0.000148154 1.44951e-23)
(0.0920826 0.000156436 4.96211e-24)
(0.0917723 0.000165336 0)
(0.0914449 0.000174914 5.12927e-24)
(0.0910994 0.000185238 -5.21914e-24)
(0.0907342 0.000196383 4.29508e-23)
(0.0903479 0.000208436 -9.20639e-23)
(0.0899386 0.000221493 4.92164e-23)
(0.0895046 0.000235662 3.99034e-23)
(0.0940858 0.000310601 -4.48493e-24)
(0.0938765 0.000326127 -9.15116e-24)
(0.0936573 0.000342674 -4.80107e-24)
(0.0934276 0.000360324 4.46673e-24)
(0.0931866 0.000379171 -4.66749e-24)
(0.0929336 0.000399318 3.34634e-23)
(0.0926678 0.000420881 -5.25548e-23)
(0.0923883 0.000443989 4.88317e-24)
(0.0920942 0.000468789 6.52064e-23)
(0.0917843 0.00049544 -9.00562e-23)
(0.0914576 0.000524125 -8.79915e-23)
(0.0911127 0.000555046 7.75351e-23)
(0.0907483 0.00058843 0)
(0.0903628 0.000624534 5.41821e-24)
(0.0899545 0.000663646 -1.65628e-23)
(0.0895215 0.000706095 -1.87905e-22)
(0.094104 0.000516606 -2.65251e-23)
(0.093895 0.000542381 -9.31712e-24)
(0.0936763 0.000569848 3.59148e-23)
(0.093447 0.000599148 -7.39222e-23)
(0.0932066 0.000630435 1.58203e-22)
(0.0929542 0.000663881 -7.49546e-23)
(0.0926892 0.000699682 1.41876e-26)
(0.0924106 0.000738053 9.73898e-24)
(0.0921174 0.000779236 1.69889e-22)
(0.0918086 0.0008235 -1.59809e-22)
(0.0914831 0.000871147 0)
(0.0911396 0.000922514 1.4568e-26)
(0.0907767 0.000977982 0)
(0.090393 0.00103797 1.86132e-22)
(0.0899866 0.00110298 -1.64068e-22)
(0.0895558 0.00117353 -3.53879e-22)
(0.0941311 0.000720905 1.74745e-23)
(0.0939227 0.000756778 -8.87061e-24)
(0.0937046 0.000794994 1.95189e-26)
(0.0934761 0.000835755 9.13313e-24)
(0.0932366 0.000879279 -1.96165e-26)
(0.0929853 0.000925811 1.51841e-22)
(0.0927214 0.000975624 -2.86968e-22)
(0.0924441 0.00102902 1.5425e-22)
(0.0921525 0.00108634 -9.87939e-24)
(0.0918454 0.00114796 1.8268e-22)
(0.0915219 0.0012143 -1.62495e-22)
(0.0911806 0.00128583 -3.37415e-22)
(0.0908201 0.00136308 6.81386e-22)
(0.0904391 0.00144665 -6.95001e-22)
(0.0900358 0.00153721 7.09269e-22)
(0.0896085 0.00163552 -7.12999e-22)
(0.0941671 0.00092286 -8.66686e-24)
(0.0939594 0.000968602 -3.54206e-23)
(0.0937422 0.00101732 1.07403e-22)
(0.0935148 0.00106927 -1.45063e-22)
(0.0932766 0.00112475 6.3899e-23)
(0.0930268 0.00118407 9.37561e-24)
(0.0927647 0.00124759 -9.53549e-24)
(0.0924894 0.00131569 -2.46203e-26)
(0.0921999 0.0013888 9.8775e-24)
(0.0918953 0.00146742 -2.00965e-23)
(0.0915745 0.00155208 -3.3085e-22)
(0.0912363 0.00164337 3.41452e-22)
(0.0908793 0.00174199 -3.33706e-22)
(0.0905022 0.0018487 3.44477e-22)
(0.0901032 0.00196434 0)
(0.0896807 0.0020899 -2.47809e-26)
(0.0942117 0.00112184 -4.30091e-23)
(0.0940051 0.00117721 2.58716e-23)
(0.0937892 0.00123619 8.85721e-24)
(0.0935634 0.00129912 1.36029e-22)
(0.0933269 0.00136634 -1.36078e-22)
(0.0930793 0.00143824 1.40877e-22)
(0.0928195 0.00151526 -3.12761e-22)
(0.0925468 0.00159787 4.45447e-22)
(0.0922604 0.0016866 -3.12049e-22)
(0.0919592 0.00178204 -3.23917e-22)
(0.0916421 0.00188484 -1.63647e-23)
(0.0913081 0.00199574 6.58094e-22)
(0.0909558 0.00211557 -6.93411e-22)
(0.0905838 0.00224525 3.23465e-22)
(0.0901907 0.00238584 3.49292e-22)
(0.0897748 0.00253853 3.65353e-22)
(0.0942648 0.00131701 8.46906e-24)
(0.0940597 0.00138146 7.8057e-23)
(0.0938458 0.0014502 -6.96114e-23)
(0.0936222 0.00152361 8.94104e-24)
(0.0933883 0.0016021 1.37505e-22)
(0.0931435 0.00168612 -1.3772e-22)
(0.092887 0.00177618 -2.95254e-22)
(0.092618 0.00187285 4.31697e-24)
(0.0923355 0.00197675 -5.59293e-24)
(0.0920388 0.00208857 3.28129e-22)
(0.0917267 0.00220909 -3.20711e-22)
(0.0913982 0.00233919 6.80646e-22)
(0.0910521 0.00247985 -3.39204e-22)
(0.090687 0.00263217 1.09695e-23)
(0.0903016 0.0027974 1.12287e-23)
(0.0898943 0.00297696 7.43054e-22)
(0.0943272 0.00151169 0)
(0.094125 0.00158363 0)
(0.093914 0.00166043 0)
(0.0936939 0.00174248 0)
(0.0934637 0.00183021 0)
(0.0932231 0.00192413 0)
(0.0929711 0.00202477 0)
(0.0927071 0.00213276 0)
(0.0924302 0.00224878 0)
(0.0921396 0.0023736 0)
(0.0918343 0.00250807 0)
(0.0915134 0.00265315 0)
(0.0911756 0.00280992 0)
(0.0908199 0.00297961 0)
(0.0904448 0.00316356 0)
(0.0900491 0.00336335 0)
(0.0944001 0.00170804 0)
(0.094202 0.00178819 0)
(0.0939955 0.00187373 0)
(0.0937799 0.00196509 0)
(0.0935549 0.00206274 0)
(0.0933197 0.00216721 0)
(0.0930738 0.0022791 0)
(0.0928163 0.00239907 0)
(0.0925467 0.00252785 0)
(0.092264 0.00266627 0)
(0.0919674 0.00281524 0)
(0.0916561 0.0029758 0)
(0.0913289 0.0031491 0)
(0.0909849 0.00333642 0)
(0.0906229 0.00353923 0)
(0.0902417 0.00375916 0)
(0.0944816 0.00189995 0)
(0.0942885 0.00198821 0)
(0.0940872 0.00208233 0)
(0.0938773 0.00218278 0)
(0.0936583 0.00229009 0)
(0.0934296 0.00240481 0)
(0.0931908 0.00252759 0)
(0.092941 0.00265914 0)
(0.0926798 0.00280023 0)
(0.0924063 0.00295175 0)
(0.0921198 0.00311467 0)
(0.0918196 0.00329007 0)
(0.0915046 0.00347917 0)
(0.091174 0.00368333 0)
(0.0908269 0.00390407 0)
(0.0904621 0.0041431 0)
(0.0945711 0.00208669 0)
(0.0943835 0.00218272 0)
(0.0941882 0.00228502 0)
(0.0939847 0.00239412 0)
(0.0937726 0.00251056 0)
(0.0935513 0.00263496 0)
(0.0933205 0.00276798 0)
(0.0930794 0.00291038 0)
(0.0928277 0.00306298 0)
(0.0925645 0.0032267 0)
(0.0922893 0.00340255 0)
(0.0920013 0.00359166 0)
(0.0916999 0.00379531 0)
(0.0913843 0.00401489 0)
(0.0910535 0.00425199 0)
(0.0907068 0.00450836 0)
(0.0946681 0.00226775 0)
(0.0944866 0.00237114 0)
(0.0942978 0.00248119 0)
(0.0941013 0.00259844 0)
(0.0938967 0.00272347 0)
(0.0936836 0.00285693 0)
(0.0934616 0.00299951 0)
(0.09323 0.00315199 0)
(0.0929886 0.00331524 0)
(0.0927367 0.0034902 0)
(0.0924737 0.00367791 0)
(0.0921992 0.00387955 0)
(0.0919124 0.0040964 0)
(0.0916128 0.00432991 0)
(0.0912996 0.00458168 0)
(0.0909724 0.0048535 0)
(0.0947722 0.00244272 0)
(0.0945972 0.00255301 0)
(0.0944154 0.00267032 0)
(0.0942264 0.0027952 0)
(0.0940299 0.00292824 0)
(0.0938255 0.00307011 0)
(0.0936128 0.00322153 0)
(0.0933915 0.00338331 0)
(0.0931611 0.00355632 0)
(0.0929212 0.00374153 0)
(0.0926713 0.00394002 0)
(0.092411 0.00415296 0)
(0.0921397 0.00438166 0)
(0.0918571 0.00462758 0)
(0.0915626 0.00489233 0)
(0.0912557 0.0051777 0)
(0.0948828 0.00261122 0)
(0.0947146 0.00272795 0)
(0.0945402 0.00285199 0)
(0.0943591 0.00298392 0)
(0.0941712 0.00312434 0)
(0.093976 0.00327394 0)
(0.0937733 0.00343345 0)
(0.0935627 0.00360369 0)
(0.093344 0.00378555 0)
(0.0931166 0.00398 0)
(0.0928804 0.00418813 0)
(0.092635 0.00441112 0)
(0.0923799 0.00465029 0)
(0.0921149 0.00490709 0)
(0.0918397 0.0051831 0)
(0.0915539 0.0054801 0)
(0.0949994 0.00277294 0)
(0.0948384 0.00289559 0)
(0.0946717 0.00302582 0)
(0.0944989 0.0031642 0)
(0.0943198 0.00331136 0)
(0.0941342 0.00346798 0)
(0.0939419 0.0036348 0)
(0.0937425 0.00381265 0)
(0.0935358 0.00400241 0)
(0.0933215 0.00420506 0)
(0.0930995 0.00442169 0)
(0.0928694 0.00465347 0)
(0.092631 0.0049017 0)
(0.0923842 0.00516781 0)
(0.0921287 0.00545337 0)
(0.0918645 0.00576011 0)
(0.0951215 0.00292761 0)
(0.094968 0.00305567 0)
(0.0948092 0.00319152 0)
(0.0946449 0.00333575 0)
(0.0944751 0.00348898 0)
(0.0942994 0.00365188 0)
(0.0941177 0.00382522 0)
(0.0939297 0.0040098 0)
(0.0937354 0.00420651 0)
(0.0935346 0.00441632 0)
(0.093327 0.00464029 0)
(0.0931126 0.0048796 0)
(0.0928912 0.0051355 0)
(0.0926628 0.0054094 0)
(0.0924274 0.00570282 0)
(0.0921849 0.00601742 0)
(0.0952487 0.00307502 0)
(0.0951028 0.00320796 0)
(0.0949521 0.00334886 0)
(0.0947966 0.00349831 0)
(0.0946362 0.00365693 0)
(0.0944706 0.00382539 0)
(0.0942997 0.00400444 0)
(0.0941235 0.00419488 0)
(0.0939418 0.00439759 0)
(0.0937545 0.00461351 0)
(0.0935616 0.00484369 0)
(0.0933631 0.00508927 0)
(0.0931588 0.00535148 0)
(0.092949 0.00563166 0)
(0.0927337 0.00593129 0)
(0.092513 0.00625197 0)
(0.0953804 0.00321499 0)
(0.0952422 0.00335227 0)
(0.0950999 0.00349765 0)
(0.0949533 0.0036517 0)
(0.0948024 0.00381504 0)
(0.0946471 0.00398832 0)
(0.0944872 0.00417229 0)
(0.0943228 0.00436773 0)
(0.0941538 0.00457549 0)
(0.0939803 0.0047965 0)
(0.0938021 0.00503177 0)
(0.0936194 0.00528241 0)
(0.0934324 0.00554959 0)
(0.093241 0.00583461 0)
(0.0930457 0.00613887 0)
(0.0928466 0.00646388 0)
(0.0955161 0.00334737 0)
(0.0953858 0.00348848 0)
(0.0952518 0.00363776 0)
(0.0951143 0.0037958 0)
(0.094973 0.00396318 0)
(0.094828 0.00414057 0)
(0.0946792 0.00432868 0)
(0.0945267 0.00452826 0)
(0.0943705 0.00474015 0)
(0.0942106 0.00496526 0)
(0.0940472 0.00520454 0)
(0.0938803 0.00545904 0)
(0.0937103 0.00572992 0)
(0.0935372 0.00601839 0)
(0.0933616 0.00632577 0)
(0.0931838 0.00665348 0)
(0.0956552 0.00347209 0)
(0.0955328 0.00361649 0)
(0.0954074 0.00376912 0)
(0.0952789 0.00393054 0)
(0.0951473 0.00410132 0)
(0.0950127 0.0042821 0)
(0.094875 0.00447357 0)
(0.0947343 0.00467648 0)
(0.0945908 0.00489162 0)
(0.0944445 0.00511984 0)
(0.0942957 0.00536208 0)
(0.0941445 0.00561934 0)
(0.0939912 0.00589269 0)
(0.0938362 0.00618329 0)
(0.0936799 0.00649237 0)
(0.0935228 0.00682126 0)
(0.0957973 0.00358908 0)
(0.095683 0.00373627 0)
(0.095566 0.0038917 0)
(0.0954466 0.00405589 0)
(0.0953247 0.00422943 0)
(0.0952003 0.00441292 0)
(0.0950737 0.00460703 0)
(0.0949448 0.00481246 0)
(0.0948138 0.00502998 0)
(0.094681 0.0052604 0)
(0.0945465 0.00550461 0)
(0.0944107 0.00576355 0)
(0.0942739 0.00603822 0)
(0.0941365 0.00632972 0)
(0.093999 0.00663917 0)
(0.0938621 0.00696781 0)
(0.095942 0.00369832 0)
(0.0958356 0.0038478 0)
(0.0957271 0.00400549 0)
(0.0956167 0.0041719 0)
(0.0955044 0.00434758 0)
(0.0953903 0.00453312 0)
(0.0952745 0.00472914 0)
(0.0951573 0.00493634 0)
(0.0950387 0.00515542 0)
(0.0949191 0.00538717 0)
(0.0947987 0.00563241 0)
(0.0946779 0.00589202 0)
(0.0945571 0.00616694 0)
(0.0944368 0.00645818 0)
(0.0943176 0.00676678 0)
(0.0942001 0.00709387 0)
(0.0960887 0.00379984 0)
(0.0959902 0.00395113 0)
(0.0958902 0.00411056 0)
(0.0957887 0.00427863 0)
(0.0956859 0.00445586 0)
(0.0955819 0.00464281 0)
(0.0954768 0.00484008 0)
(0.095371 0.00504831 0)
(0.0952646 0.00526819 0)
(0.0951579 0.00550043 0)
(0.0950512 0.00574582 0)
(0.094945 0.00600517 0)
(0.0948398 0.00627934 0)
(0.094736 0.00656926 0)
(0.0946343 0.00687589 0)
(0.0945355 0.00720024 0)
(0.0962369 0.00389367 0)
(0.0961463 0.0040463 0)
(0.0960546 0.00420699 0)
(0.095962 0.00437618 0)
(0.0958685 0.0045544 0)
(0.0957744 0.00474216 0)
(0.0956799 0.00494004 0)
(0.0955852 0.00514863 0)
(0.0954907 0.00536857 0)
(0.0953965 0.00560055 0)
(0.0953032 0.00584526 0)
(0.0952112 0.00610348 0)
(0.0951209 0.00637599 0)
(0.0950331 0.00666363 0)
(0.0949482 0.00696726 0)
(0.0948673 0.0072878 0)
(0.0963863 0.0039799 0)
(0.0963034 0.00413343 0)
(0.0962199 0.00429489 0)
(0.096136 0.00446472 0)
(0.0960517 0.00464339 0)
(0.0959674 0.0048314 0)
(0.0958832 0.00502927 0)
(0.0957994 0.00523758 0)
(0.0957163 0.00545692 0)
(0.0956343 0.0056879 0)
(0.0955539 0.00593119 0)
(0.0954755 0.00618748 0)
(0.0953997 0.00645749 0)
(0.095327 0.00674198 0)
(0.0952583 0.00704171 0)
(0.0951942 0.00735749 0)
(0.0965364 0.00405863 0)
(0.0964612 0.00421264 0)
(0.0963857 0.00437443 0)
(0.0963103 0.00454441 0)
(0.096235 0.00472303 0)
(0.0961601 0.00491075 0)
(0.0960859 0.00510807 0)
(0.0960127 0.0053155 0)
(0.0959408 0.0055336 0)
(0.0958706 0.00576294 0)
(0.0958025 0.00600412 0)
(0.0957372 0.00625776 0)
(0.0956751 0.00652452 0)
(0.095617 0.00680506 0)
(0.0955635 0.00710008 0)
(0.0955155 0.00741027 0)
(0.0966868 0.00412998 0)
(0.0966191 0.00428408 0)
(0.0965515 0.00444577 0)
(0.0964844 0.00461546 0)
(0.0964178 0.00479356 0)
(0.0963522 0.0049805 0)
(0.0962877 0.00517673 0)
(0.0962246 0.00538275 0)
(0.0961635 0.00559904 0)
(0.0961046 0.00582613 0)
(0.0960484 0.00606457 0)
(0.0959956 0.00631491 0)
(0.0959466 0.00657774 0)
(0.0959023 0.00685365 0)
(0.0958632 0.00714324 0)
(0.0958302 0.00744712 0)
(0.0968372 0.00419412 0)
(0.0967768 0.00434792 0)
(0.0967169 0.00450912 0)
(0.0966578 0.0046781 0)
(0.0965998 0.00485525 0)
(0.096543 0.00504094 0)
(0.0964879 0.00523562 0)
(0.0964347 0.00543971 0)
(0.0963838 0.00565367 0)
(0.0963358 0.00587798 0)
(0.096291 0.00611311 0)
(0.09625 0.00635958 0)
(0.0962135 0.00661789 0)
(0.0961821 0.00688856 0)
(0.0961566 0.00717211 0)
(0.0961379 0.00746905 0)
(0.0969872 0.0042512 0)
(0.0969339 0.00440435 0)
(0.0968815 0.0045647 0)
(0.0968302 0.00473259 0)
(0.0967804 0.00490837 0)
(0.0967322 0.00509241 0)
(0.0966861 0.00528508 0)
(0.0966424 0.0054868 0)
(0.0966014 0.00569796 0)
(0.0965637 0.00591899 0)
(0.0965297 0.00615032 0)
(0.0965 0.0063924 0)
(0.0964753 0.00664566 0)
(0.0964561 0.00691057 0)
(0.0964433 0.00718755 0)
(0.0964378 0.00747704 0)
(0.0971364 0.00430142 0)
(0.09709 0.0044536 0)
(0.0970449 0.00461275 0)
(0.0970012 0.0047792 0)
(0.0969593 0.00495324 0)
(0.0969194 0.00513523 0)
(0.0968819 0.00532551 0)
(0.0968472 0.00552444 0)
(0.0968157 0.00573237 0)
(0.0967878 0.00594969 0)
(0.096764 0.00617679 0)
(0.096745 0.00641403 0)
(0.0967313 0.00666181 0)
(0.0967237 0.0069205 0)
(0.0967228 0.00719047 0)
(0.0967295 0.00747207 0)
(0.0972846 0.00434498 0)
(0.0972449 0.00449588 0)
(0.0972068 0.00465353 0)
(0.0971704 0.00481819 0)
(0.0971361 0.00499018 0)
(0.0971042 0.00516977 0)
(0.097075 0.0053573 0)
(0.0970489 0.00555306 0)
(0.0970263 0.0057574 0)
(0.0970077 0.00597064 0)
(0.0969936 0.0061931 0)
(0.0969846 0.00642513 0)
(0.0969813 0.00666703 0)
(0.0969844 0.00691914 0)
(0.0969946 0.00718174 0)
(0.0970127 0.00745512 0)
(0.0974315 0.00438209 0)
(0.0973983 0.00453144 0)
(0.0973669 0.00468729 0)
(0.0973375 0.00484989 0)
(0.0973105 0.0050195 0)
(0.0972862 0.00519639 0)
(0.0972649 0.00538084 0)
(0.0972469 0.00557312 0)
(0.0972329 0.00577354 0)
(0.0972231 0.00598236 0)
(0.0972181 0.00619987 0)
(0.0972185 0.00642635 0)
(0.0972249 0.00666207 0)
(0.097238 0.00690728 0)
(0.0972584 0.00716223 0)
(0.097287 0.00742711 0)
(0.0975769 0.00441297 0)
(0.0975499 0.00456052 0)
(0.0975249 0.00471431 0)
(0.0975023 0.00487457 0)
(0.0974823 0.00504154 0)
(0.0974652 0.00521545 0)
(0.0974513 0.00539654 0)
(0.0974412 0.00558507 0)
(0.0974351 0.00578127 0)
(0.0974336 0.00598539 0)
(0.0974372 0.00619767 0)
(0.0974464 0.00641833 0)
(0.0974619 0.00664761 0)
(0.0974842 0.00688569 0)
(0.097514 0.00713276 0)
(0.0975523 0.00738895 0)
(0.0977204 0.00443785 0)
(0.0976994 0.00458338 0)
(0.0976807 0.00473488 0)
(0.0976645 0.00489257 0)
(0.0976511 0.00505665 0)
(0.0976408 0.00522733 0)
(0.0976341 0.00540482 0)
(0.0976313 0.00558934 0)
(0.0976328 0.00578109 0)
(0.0976391 0.00598027 0)
(0.0976507 0.00618709 0)
(0.0976681 0.00640172 0)
(0.0976919 0.00662435 0)
(0.0977228 0.00685512 0)
(0.0977613 0.00709414 0)
(0.0978084 0.00734152 0)
(0.0978619 0.00445698 0)
(0.0978467 0.00460027 0)
(0.0978339 0.00474928 0)
(0.0978238 0.00490418 0)
(0.0978167 0.00506517 0)
(0.097813 0.0052324 0)
(0.097813 0.00540608 0)
(0.0978171 0.00558638 0)
(0.0978257 0.00577348 0)
(0.0978393 0.00596753 0)
(0.0978583 0.0061687 0)
(0.0978833 0.00637713 0)
(0.0979149 0.00659296 0)
(0.0979536 0.00681628 0)
(0.0980001 0.00704716 0)
(0.0980552 0.00728566 0)
(0.0980013 0.0044706 0)
(0.0979915 0.00461147 0)
(0.0979843 0.0047578 0)
(0.09798 0.00490973 0)
(0.097979 0.00506743 0)
(0.0979814 0.00523105 0)
(0.0979878 0.00540074 0)
(0.0979983 0.00557664 0)
(0.0980136 0.00575891 0)
(0.098034 0.00594768 0)
(0.0980599 0.00614306 0)
(0.098092 0.00634516 0)
(0.0981307 0.00655408 0)
(0.0981766 0.00676987 0)
(0.0982304 0.00699256 0)
(0.0982927 0.00722215 0)
(0.0981382 0.00447894 0)
(0.0981337 0.00461724 0)
(0.0981319 0.00476072 0)
(0.0981331 0.00490953 0)
(0.0981377 0.00506379 0)
(0.098146 0.00522363 0)
(0.0981582 0.00538917 0)
(0.0981749 0.00556055 0)
(0.0981964 0.00573786 0)
(0.0982231 0.00592122 0)
(0.0982554 0.0061107 0)
(0.098294 0.00630639 0)
(0.0983392 0.00650833 0)
(0.0983917 0.00671655 0)
(0.0984521 0.00693104 0)
(0.098521 0.00715176 0)
(0.0999997 6.59406e-06 0)
(0.0999951 1.96045e-05 0)
(0.0999853 3.24304e-05 0)
(0.0999711 4.51262e-05 0)
(0.0999527 5.77649e-05 0)
(0.0999302 7.0404e-05 0)
(0.0999038 8.30865e-05 0)
(0.0998737 9.58616e-05 0)
(0.0998399 0.000108836 0)
(0.0998025 0.000122246 0)
(0.0997615 0.000136503 0)
(0.0997168 0.000152183 0)
(0.099668 0.000169923 0)
(0.0996146 0.000190264 0)
(0.099556 0.000213474 0)
(0.0994917 0.000239433 0)
(0.0994212 0.000267603 0)
(0.0993441 0.000297101 0)
(0.0992606 0.000326852 0)
(0.099171 0.000355769 0)
(0.0990758 0.000382927 0)
(0.0989757 0.000407684 0)
(0.0988716 0.000429735 0)
(0.0987643 0.00044911 0)
(0.0986546 0.000466118 0)
(0.0985432 0.000481269 0)
(0.0984304 0.00049518 0)
(0.0983168 0.000508497 0)
(0.0982024 0.000521833 0)
(0.0980872 0.000535723 0)
(0.0979713 0.000550605 0)
(0.0978545 0.00056681 0)
(0.0977366 0.000584574 0)
(0.0976174 0.000604052 0)
(0.0974968 0.000625332 0)
(0.0973743 0.000648454 0)
(0.09725 0.000673428 0)
(0.0971234 0.000700246 0)
(0.0969946 0.000728891 0)
(0.0968632 0.000759347 0)
(0.0967292 0.000791602 0)
(0.0965925 0.000825652 0)
(0.0964528 0.000861501 0)
(0.0963101 0.000899163 0)
(0.0961643 0.000938664 0)
(0.0960153 0.000980035 0)
(0.095863 0.00102332 0)
(0.0957073 0.00106855 0)
(0.0955481 0.0011158 0)
(0.0953855 0.00116513 0)
(0.0952192 0.00121658 0)
(0.0950493 0.00127025 0)
(0.0948757 0.00132623 0)
(0.0946984 0.00138464 0)
(0.0945174 0.0014457 0)
(0.0999997 7.49595e-06 0)
(0.0999951 2.22927e-05 0)
(0.0999854 3.68739e-05 0)
(0.0999713 5.13091e-05 0)
(0.099953 6.56788e-05 0)
(0.0999306 8.00482e-05 0)
(0.0999044 9.44665e-05 0)
(0.0998745 0.000108989 0)
(0.0998409 0.000123737 0)
(0.0998037 0.000138974 0)
(0.099763 0.000155164 0)
(0.0997186 0.000172954 0)
(0.0996702 0.000193064 0)
(0.0996172 0.000216108 0)
(0.0995592 0.000242395 0)
(0.0994955 0.000271797 0)
(0.0994257 0.000303715 0)
(0.0993495 0.00033716 0)
(0.099267 0.00037092 0)
(0.0991783 0.00040377 0)
(0.0990841 0.000434661 0)
(0.0989851 0.000462859 0)
(0.098882 0.000488009 0)
(0.0987757 0.000510136 0)
(0.0986669 0.000529577 0)
(0.0985564 0.0005469 0)
(0.0984445 0.000562796 0)
(0.0983316 0.000577992 0)
(0.098218 0.00059318 0)
(0.0981037 0.000608965 0)
(0.0979886 0.000625843 0)
(0.0978727 0.000644193 0)
(0.0977557 0.000664287 0)
(0.0976375 0.0006863 0)
(0.0975179 0.000710337 0)
(0.0973966 0.000736447 0)
(0.0972735 0.000764641 0)
(0.0971483 0.000794914 0)
(0.0970209 0.000827246 0)
(0.0968912 0.000861619 0)
(0.0967589 0.000898019 0)
(0.0966239 0.000936441 0)
(0.0964862 0.000976889 0)
(0.0963456 0.00101938 0)
(0.096202 0.00106393 0)
(0.0960554 0.00111059 0)
(0.0959056 0.00115938 0)
(0.0957526 0.00121037 0)
(0.0955963 0.00126362 0)
(0.0954366 0.00131917 0)
(0.0952736 0.00137711 0)
(0.0951071 0.00143751 0)
(0.094937 0.00150045 0)
(0.0947635 0.00156605 0)
(0.0945864 0.00163444 0)
(0.0999997 8.3925e-06 0)
(0.0999951 2.49641e-05 0)
(0.0999855 4.12895e-05 0)
(0.0999715 5.74528e-05 0)
(0.0999533 7.35421e-05 0)
(0.0999311 8.96302e-05 0)
(0.0999051 0.000105772 0)
(0.0998753 0.000122031 0)
(0.099842 0.000138538 0)
(0.0998051 0.000155587 0)
(0.0997647 0.00017369 0)
(0.0997206 0.000193564 0)
(0.0996726 0.00021601 0)
(0.0996201 0.000241712 0)
(0.0995627 0.000271023 0)
(0.0994997 0.000303809 0)
(0.0994307 0.000339415 0)
(0.0993555 0.00037675 0)
(0.0992739 0.000414473 0)
(0.0991864 0.000451222 0)
(0.0990933 0.000485824 0)