/*--------------------------------*- C++ -*----------------------------------*\
| =========                 |                                                 |
| \\      /  F ield         | OpenFOAM: The Open Source CFD Toolbox           |
|  \\    /   O peration     | Version:  2412                                  |
|   \\  /    A nd           | Website:  www.openfoam.com                      |
|    \\/     M anipulation  |                                                 |
\*---------------------------------------------------------------------------*/
FoamFile
{
    version     2.0;
    format      ascii;
    arch        "LSB;label=32;scalar=64";
    class       volVectorField;
    location    "11.5";
    object      vorticity;
}
// * * * * * * * * * * * * * * * * * * * * * * * * * * * * * * * * * * * * * //

dimensions      [0 0 -1 0 0 0 0];

internalField   nonuniform List<vector> 
5285
(
(0 -3.83602e-23 -6.29657e-05)
(0 2.17197e-21 -5.66163e-05)
(0 -0 -2.92519e-05)
(0 -0 -2.95738e-05)
(0 -0 -2.42494e-05)
(0 -0 -1.15635e-05)
(0 -0 8.93677e-06)
(0 -0 3.66386e-05)
(0 -0 6.96002e-05)
(0 -0 0.000104666)
(0 -0 0.000137746)
(0 -0 0.000164345)
(0 -0 0.000180264)
(0 -0 0.000182348)
(0 -0 0.000169112)
(0 -0 0.000141115)
(0 -0 0.000100982)
(0 -0 5.30424e-05)
(0 -0 2.6707e-06)
(0 -0 -4.45577e-05)
(0 -0 -8.3718e-05)
(0 -0 -0.000111242)
(0 -0 -0.000125376)
(0 -0 -0.000126268)
(0 -4.25135e-21 -5.31096e-05)
(0 -0 -3.0849e-05)
(0 -0 -3.05573e-05)
(0 -0 -2.44487e-05)
(0 -0 -1.09497e-05)
(0 -0 1.03881e-05)
(0 -0 3.87663e-05)
(0 -0 7.21401e-05)
(0 -0 0.000107265)
(0 -0 0.000140003)
(0 -0 0.000165874)
(0 -0 0.000180763)
(0 -0 0.000181655)
(0 -0 0.000167235)
(0 -0 0.000138235)
(0 -0 9.74154e-05)
(0 -0 4.91872e-05)
(0 -0 -1.06253e-06)
(0 -0 -4.78103e-05)
(0 -0 -8.62327e-05)
(0 -0 -0.000112887)
(0 -0 -0.000126138)
(0 -0 -0.000126217)
(0 2.01285e-21 -5.0946e-05)
(0 -0 -3.30744e-05)
(0 -0 -3.25959e-05)
(0 -0 -2.614e-05)
(0 -0 -1.22712e-05)
(0 -0 9.38368e-06)
(0 -0 3.79654e-05)
(0 -0 7.1371e-05)
(0 -0 0.000106315)
(0 -0 0.000138655)
(0 -0 0.000163962)
(0 -0 0.000178217)
(0 -0 0.00017854)
(0 -0 0.000163763)
(0 -0 0.000134741)
(0 -0 9.43159e-05)
(0 -0 4.69126e-05)
(0 -0 -2.13596e-06)
(0 -0 -4.74201e-05)
(0 -0 -8.42679e-05)
(0 -0 -0.000109399)
(0 -0 -0.000121312)
(0 -0 -0.00012031)
(0 -2.68948e-23 -4.98249e-05)
(0 -0 -3.60691e-05)
(0 -0 -3.56803e-05)
(0 -0 -2.9316e-05)
(0 -0 -1.55503e-05)
(0 -0 5.947e-06)
(0 -0 3.42932e-05)
(0 -0 6.73733e-05)
(0 -0 0.000101913)
(0 -0 0.000133819)
(0 -0 0.000158746)
(0 -0 0.000172797)
(0 -0 0.00017322)
(0 -0 0.000158967)
(0 -0 0.000130973)
(0 -0 9.20925e-05)
(0 -0 4.66942e-05)
(0 -0 -1.70326e-08)
(0 -0 -4.2812e-05)
(0 -0 -7.72251e-05)
(0 -0 -0.000100176)
(0 -0 -0.000110321)
(0 -0 -0.000108048)
(0 -2.45465e-23 -5.02764e-05)
(0 -0 -4.04518e-05)
(0 -0 -4.06637e-05)
(0 -0 -3.48946e-05)
(0 -0 -2.17678e-05)
(0 -0 -9.63477e-07)
(0 -0 2.66547e-05)
(0 -0 5.9012e-05)
(0 -0 9.29029e-05)
(0 -0 0.000124335)
(0 -0 0.000149092)
(0 -0 0.000163413)
(0 -0 0.000164676)
(0 -0 0.00015192)
(0 -0 0.000126105)
(0 -0 9.00299e-05)
(0 -0 4.79255e-05)
(0 -0 4.78739e-06)
(0 -0 -3.44091e-05)
(0 -0 -6.54635e-05)
(0 -0 -8.55362e-05)
(0 -0 -9.34683e-05)
(0 -0 -8.97483e-05)
(0 -7.03555e-22 -5.27852e-05)
(0 -0 -4.69116e-05)
(0 -0 -4.83137e-05)
(0 -0 -4.37832e-05)
(0 -0 -3.19628e-05)
(0 -0 -1.25027e-05)
(0 -0 1.38018e-05)
(0 -0 4.49737e-05)
(0 -0 7.79374e-05)
(0 -0 0.000108857)
(0 -0 0.000133683)
(0 -0 0.000148813)
(0 -0 0.000151744)
(0 -0 0.000141568)
(0 -0 0.000119207)
(0 -0 8.7326e-05)
(0 -0 4.99288e-05)
(0 -0 1.17125e-05)
(0 -0 -2.26817e-05)
(0 -0 -4.93819e-05)
(0 -0 -6.58309e-05)
(0 -0 -7.10745e-05)
(0 -0 -6.571e-05)
(0 1.32023e-21 -5.7641e-05)
(0 -0 -5.5857e-05)
(0 -0 -5.91225e-05)
(0 -0 -5.65714e-05)
(0 -0 -4.68237e-05)
(0 -0 -2.94495e-05)
(0 -0 -5.11681e-06)
(0 -0 2.43602e-05)
(0 -0 5.61003e-05)
(0 -0 8.64805e-05)
(0 -0 0.000111659)
(0 -0 0.000128207)
(0 -0 0.000133727)
(0 -0 0.00012732)
(0 -0 0.000109805)
(0 -0 8.36233e-05)
(0 -0 5.24538e-05)
(0 -0 2.05997e-05)
(0 -0 -7.71697e-06)
(0 -0 -2.90187e-05)
(0 -0 -4.10728e-05)
(0 -0 -4.31452e-05)
(0 -0 -3.59346e-05)
(0 -1.23658e-21 -6.49556e-05)
(0 -0 -6.7485e-05)
(0 -0 -7.33221e-05)
(0 -0 -7.35325e-05)
(0 -0 -6.66673e-05)
(0 -0 -5.21595e-05)
(0 -0 -3.04853e-05)
(0 -0 -3.226e-06)
(0 -0 2.70002e-05)
(0 -0 5.68405e-05)
(0 -0 8.26997e-05)
(0 -0 0.000101335)
(0 -0 0.000110437)
(0 -0 0.000109067)
(0 -0 9.78641e-05)
(0 -0 7.89549e-05)
(0 -0 5.55899e-05)
(0 -0 3.15783e-05)
(0 -0 1.06359e-05)
(0 -0 -4.22043e-06)
(0 -0 -1.1122e-05)
(0 -0 -9.56741e-06)
(0 -0 -3.42684e-07)
(0 5.61662e-22 -7.47141e-05)
(0 -0 -8.18289e-05)
(0 -0 -9.09409e-05)
(0 -0 -9.46872e-05)
(0 -0 -9.15041e-05)
(0 -0 -8.06311e-05)
(0 -0 -6.22859e-05)
(0 -0 -3.77453e-05)
(0 -0 -9.29642e-06)
(0 -0 2.00351e-05)
(0 -0 4.69371e-05)
(0 -0 6.83615e-05)
(0 -0 8.2064e-05)
(0 -0 8.70163e-05)
(0 -0 8.35988e-05)
(0 -0 7.35257e-05)
(0 -0 5.95176e-05)
(0 -0 4.47899e-05)
(0 -0 3.24676e-05)
(0 -0 2.50445e-05)
(0 -0 2.39894e-05)
(0 -0 2.95638e-05)
(0 -0 4.09122e-05)
(0 -0 -8.67922e-05)
(0 -0 -9.87675e-05)
(0 -0 -0.000111807)
(0 -0 -0.000119806)
(0 -0 -0.000121043)
(0 -0 -0.00011451)
(0 -0 -0.000100104)
(0 -0 -7.87292e-05)
(0 -0 -5.2277e-05)
(0 -0 -2.33939e-05)
(0 -0 4.92252e-06)
(0 -0 2.9824e-05)
(0 -0 4.91079e-05)
(0 -0 6.16018e-05)
(0 -0 6.73509e-05)
(0 -0 6.75646e-05)
(0 -0 6.43355e-05)
(0 -0 6.01937e-05)
(0 -0 5.75963e-05)
(0 -0 5.846e-05)
(0 -0 6.38254e-05)
(0 -0 7.37123e-05)
(0 -0 8.72178e-05)
(0 4.12558e-22 -0.00010094)
(0 -0 -0.000118)
(0 -0 -0.000135518)
(0 -0 -0.000148373)
(0 -0 -0.00015465)
(0 -0 -0.000153048)
(0 -0 -0.000143086)
(0 -0 -0.000125239)
(0 -0 -0.000100946)
(0 -0 -7.24312e-05)
(0 -0 -4.23527e-05)
(0 -0 -1.33579e-05)
(0 -0 1.23667e-05)
(0 -0 3.34543e-05)
(0 -0 4.95445e-05)
(0 -0 6.12597e-05)
(0 -0 6.99793e-05)
(0 -0 7.74707e-05)
(0 -0 8.54611e-05)
(0 -0 9.52486e-05)
(0 -0 0.000107429)
(0 -0 0.000121784)
(0 -0 0.000137391)
(0 -4.36383e-22 -0.000116754)
(0 -0 -0.000139013)
(0 -0 -0.000161399)
(0 -0 -0.000179542)
(0 -0 -0.000191304)
(0 -0 -0.000195055)
(0 -0 -0.000189895)
(0 -0 -0.000175823)
(0 -0 -0.000153787)
(0 -0 -0.000125557)
(0 -0 -9.34337e-05)
(0 -0 -5.98685e-05)
(0 -0 -2.70554e-05)
(0 -0 3.40068e-06)
(0 -0 3.06765e-05)
(0 -0 5.47425e-05)
(0 -0 7.62012e-05)
(0 -0 9.60011e-05)
(0 -0 0.000115098)
(0 -0 0.00013415)
(0 -0 0.000153302)
(0 -0 0.000172116)
(0 -0 0.000189671)
(0 -1.80237e-22 -0.000133649)
(0 -0 -0.000161057)
(0 -0 -0.000188487)
(0 -0 -0.000212122)
(0 -0 -0.000229586)
(0 -0 -0.000238895)
(0 -0 -0.000238709)
(0 -0 -0.000228524)
(0 -0 -0.000208774)
(0 -0 -0.000180758)
(0 -0 -0.000146416)
(0 -0 -0.000108009)
(0 -0 -6.77608e-05)
(0 -0 -2.75443e-05)
(0 -0 1.13154e-05)
(0 -0 4.80965e-05)
(0 -0 8.25888e-05)
(0 -0 0.000114895)
(0 -0 0.000145186)
(0 -0 0.000173477)
(0 -0 0.000199477)
(0 -0 0.000222546)
(0 -0 0.000241797)
(0 1.78257e-22 -0.000150858)
(0 -0 -0.000183156)
(0 -0 -0.00021555)
(0 -0 -0.000244613)
(0 -0 -0.000267723)
(0 -0 -0.000282544)
(0 -0 -0.000287289)
(0 -0 -0.000280951)
(0 -0 -0.000263448)
(0 -0 -0.00023561)
(0 -0 -0.000199022)
(0 -0 -0.000155767)
(0 -0 -0.00010811)
(0 -0 -5.82102e-05)
(0 -0 -7.9076e-06)
(0 -0 4.13747e-05)
(0 -0 8.86118e-05)
(0 -0 0.000133068)
(0 -0 0.000174145)
(0 -0 0.00021124)
(0 -0 0.000243654)
(0 -0 0.000270576)
(0 -0 0.000291181)
(0 -8.33903e-24 -0.000167444)
(0 -0 -0.000204142)
(0 -0 -0.000241148)
(0 -0 -0.000275284)
(0 -0 -0.000303696)
(0 -0 -0.000323711)
(0 -0 -0.000333117)
(0 -0 -0.000330429)
(0 -0 -0.000315071)
(0 -0 -0.000287426)
(0 -0 -0.000248742)
(0 -0 -0.000200935)
(0 -0 -0.000146319)
(0 -0 -8.73335e-05)
(0 -0 -2.63207e-05)
(0 -0 3.46205e-05)
(0 -0 9.36864e-05)
(0 -0 0.000149347)
(0 -0 0.000200284)
(0 -0 0.000245326)
(0 -0 0.00028341)
(0 -0 0.00031359)
(0 -0 0.000335128)
(0 -5.68738e-23 -0.00018234)
(0 -0 -0.000222735)
(0 -0 -0.000263744)
(0 -0 -0.00030232)
(0 -0 -0.000335402)
(0 -0 -0.000360022)
(0 -0 -0.000373598)
(0 -0 -0.000374214)
(0 -0 -0.000360847)
(0 -0 -0.000333474)
(0 -0 -0.000293033)
(0 -0 -0.000241287)
(0 -0 -0.000180592)
(0 -0 -0.000113645)
(0 -0 -4.32471e-05)
(0 -0 2.78883e-05)
(0 -0 9.7252e-05)
(0 -0 0.0001626)
(0 -0 0.000221975)
(0 -0 0.000273709)
(0 -0 0.000316435)
(0 -0 0.000349115)
(0 -0 0.000371112)
(0 5.04329e-23 -0.000194367)
(0 -0 -0.000237676)
(0 -0 -0.000281883)
(0 -0 -0.00032401)
(0 -0 -0.00036086)
(0 -0 -0.000389249)
(0 -0 -0.0004063)
(0 -0 -0.000409743)
(0 -0 -0.000398177)
(0 -0 -0.000371223)
(0 -0 -0.000329548)
(0 -0 -0.000274771)
(0 -0 -0.000209276)
(0 -0 -0.000135973)
(0 -0 -5.8049e-05)
(0 -0 2.12607e-05)
(0 -0 9.88492e-05)
(0 -0 0.000171872)
(0 -0 0.000237839)
(0 -0 0.00029468)
(0 -0 0.000340793)
(0 -0 0.000375088)
(0 -0 0.000397042)
(0 -5.21519e-24 -0.000202071)
(0 -0 -0.000247999)
(0 -0 -0.000294447)
(0 -0 -0.000338952)
(0 -0 -0.000378412)
(0 -0 -0.000409521)
(0 -0 -0.000429194)
(0 -0 -0.000434893)
(0 -0 -0.000424917)
(0 -0 -0.000398597)
(0 -0 -0.000356365)
(0 -0 -0.00029971)
(0 -0 -0.000231016)
(0 -0 -0.000153344)
(0 -0 -7.01716e-05)
(0 -0 1.48628e-05)
(0 -0 9.81907e-05)
(0 -0 0.000176505)
(0 -0 0.000246911)
(0 -0 0.000307041)
(0 -0 0.000355137)
(0 -0 0.000390094)
(0 -0 0.000411511)
(-3.20486e-22 9.20233e-21 8.58355e-05)
(1.29904e-21 -8.18423e-21 3.74114e-05)
(2.86336e-22 -9.61695e-21 7.34478e-05)
(-9.82188e-21 3.20826e-19 2.92869e-05)
(7.46231e-22 -1.80626e-20 -1.67189e-05)
(1.22127e-21 -1.25382e-21 -6.92759e-05)
(-7.3059e-21 5.87701e-19 -0.000148517)
(1.19492e-20 -1.19513e-18 -0.000328149)
(2.18983e-21 -2.26449e-20 -0.0002608)
(-3.52857e-22 9.92049e-21 6.21755e-05)
(1.5751e-20 -5.76066e-19 2.18485e-05)
(1.45801e-20 -5.89605e-19 -2.00775e-05)
(9.4006e-22 1.15475e-21 -6.7016e-05)
(1.55427e-20 -1.22568e-18 -0.000135086)
(-1.06813e-20 1.23322e-18 -0.000283682)
(-7.03646e-21 1.22192e-18 -0.000223557)
(2.46541e-21 -8.20466e-20 5.24468e-05)
(-7.18057e-21 3.0032e-19 1.55462e-05)
(-2.45543e-20 1.15734e-18 -2.26365e-05)
(-1.15071e-20 6.1083e-19 -6.48243e-05)
(-5.38214e-21 6.04944e-19 -0.00012363)
(1.64198e-20 -2.40072e-18 -0.000246288)
(5.93899e-21 -2.48376e-18 -0.000192957)
(-2.21995e-21 8.17701e-20 4.4088e-05)
(-5.45694e-22 1.00269e-20 1.03981e-05)
(1.05451e-20 -6.04013e-19 -2.44465e-05)
(1.93528e-20 -1.20025e-18 -6.23637e-05)
(-1.02705e-21 -2.55939e-21 -0.000113182)
(4.84026e-23 6.22163e-19 -0.000214092)
(1.15051e-21 1.22264e-18 -0.000166867)
(-1.88204e-21 6.31919e-20 3.67665e-05)
(-6.28419e-22 2.76697e-20 5.99792e-06)
(6.85105e-21 -3.11449e-19 -2.57749e-05)
(-1.71114e-20 1.176e-18 -5.98727e-05)
(6.6849e-22 4.37897e-22 -0.000103774)
(-4.31803e-21 6.18334e-19 -0.000186406)
(-1.87136e-21 -1.74999e-20 -0.0001447)
(3.47551e-21 -1.35567e-19 3.0181e-05)
(1.85189e-22 -9.47657e-21 2.04246e-06)
(-4.73747e-21 2.75109e-19 -2.69889e-05)
(1.55006e-20 -1.17244e-18 -5.77253e-05)
(-6.50355e-21 5.86618e-19 -9.57185e-05)
(-5.93737e-21 6.31428e-19 -0.000163106)
(-5.79333e-22 -1.78008e-20 -0.00012651)
(-1.66466e-21 7.23412e-20 2.41671e-05)
(1.25581e-22 5.36518e-23 -1.64031e-06)
(-2.98782e-22 -6.04483e-22 -2.82844e-05)
(-6.63179e-21 5.85735e-19 -5.61613e-05)
(5.74292e-21 -6.04593e-19 -8.92444e-05)
(7.15198e-21 -1.16323e-18 -0.000144125)
(2.42531e-21 -5.95541e-19 -0.000112449)
(-2.57926e-22 8.92108e-21 1.86546e-05)
(-2.96768e-21 1.53498e-19 -5.11715e-06)
(6.19273e-23 1.33934e-22 -2.97345e-05)
(-7.98234e-22 -4.41076e-22 -5.52681e-05)
(-4.77616e-21 5.63934e-19 -8.44153e-05)
(-5.16576e-21 1.19208e-18 -0.000129272)
(-2.63681e-21 1.16417e-18 -0.000102521)
(1.73587e-22 -8.92323e-21 1.36049e-05)
(2.3678e-21 -1.35671e-19 -8.41369e-06)
(-1.92803e-22 1.44452e-22 -3.13553e-05)
(3.55647e-21 -2.89213e-19 -5.50513e-05)
(4.60643e-21 -5.83292e-19 -8.11898e-05)
(-1.68356e-21 1.71596e-20 -0.000118265)
(1.40062e-21 -1.19079e-18 -9.65897e-05)
(1.20647e-24 7.21787e-23 8.96554e-06)
(2.37427e-21 -1.25847e-19 -1.15622e-05)
(4.2933e-21 -2.88814e-19 -3.31574e-05)
(-2.70094e-21 2.53478e-19 -5.54935e-05)
(2.44537e-22 3.69396e-20 -7.94846e-05)
(2.59152e-21 -5.82376e-19 -0.000110789)
(2.51072e-22 5.64195e-19 -9.44334e-05)
(1.81042e-22 -9.10691e-21 4.64756e-06)
(-2.82753e-21 1.71181e-19 -1.46251e-05)
(-3.60692e-21 2.70971e-19 -3.51722e-05)
(-2.08243e-22 1.82448e-20 -5.65828e-05)
(1.32946e-22 -1.75752e-20 -7.92057e-05)
(3.8231e-21 -5.77112e-19 -0.000106517)
(-1.40251e-22 -4.28699e-22 -9.57645e-05)
(-8.17537e-22 4.49249e-20 5.20052e-07)
(6.43023e-23 -8.96444e-21 -1.77015e-05)
(2.96324e-23 -1.81696e-20 -3.74565e-05)
(-3.2604e-21 2.87554e-19 -5.83171e-05)
(-2.59333e-23 -5.28001e-22 -8.02498e-05)
(-3.96426e-21 8.98375e-19 -0.000105104)
(-1.25024e-21 5.56148e-19 -0.000100217)
(7.83268e-22 -4.50041e-20 -3.58852e-06)
(-3.85492e-22 2.69625e-20 -2.09209e-05)
(1.32165e-24 3.59545e-22 -4.00835e-05)
(5.91916e-21 -6.10518e-19 -6.06922e-05)
(-1.57625e-22 1.79553e-20 -8.24884e-05)
(1.91812e-21 -5.53778e-19 -0.000106167)
(3.50704e-22 -5.89462e-19 -0.00010732)
(-1.24722e-22 8.98896e-21 -7.88306e-06)
(-1.04742e-22 9.05496e-21 -2.44247e-05)
(1.79734e-21 -1.4359e-19 -4.31209e-05)
(-2.34655e-21 2.86993e-19 -6.3678e-05)
(2.01919e-22 -1.79051e-20 -8.57433e-05)
(-1.02736e-21 3.03074e-19 -0.00010925)
(1.05119e-21 -3.00628e-19 -0.000116468)
(1.28378e-22 -8.99044e-21 -1.25282e-05)
(-1.22035e-22 8.87988e-21 -2.83227e-05)
(-3.04614e-21 2.69007e-19 -4.65973e-05)
(-1.97174e-22 2.2198e-23 -6.71886e-05)
(-1.13046e-21 1.60238e-19 -8.97594e-05)
(1.08897e-21 -3.00905e-19 -0.000113806)
(-2.82598e-22 2.99499e-19 -0.000126909)
(1.3211e-22 -9.00681e-21 -1.76709e-05)
(-7.98999e-22 6.28573e-20 -3.2671e-05)
(1.54011e-21 -1.43454e-19 -5.04642e-05)
(1.72612e-22 -1.7771e-20 -7.10462e-05)
(1.71954e-21 -2.84203e-19 -9.41786e-05)
(-9.86047e-22 3.00047e-19 -0.000119181)
(-1.85286e-22 -1.73363e-20 -0.000137751)
(-2.48047e-22 1.79648e-20 -2.33336e-05)
(-7.96113e-23 8.89444e-21 -3.73946e-05)
(-6.51595e-22 7.15292e-20 -5.4539e-05)
(4.93624e-23 -3.06821e-23 -7.49398e-05)
(-6.82308e-22 1.41778e-19 -9.85193e-05)
(-3.36472e-23 -1.74398e-20 -0.000124625)
(2.38059e-22 -1.39026e-19 -0.000148013)
(1.26094e-22 -8.99171e-21 -2.93342e-05)
(2.25044e-22 -1.7984e-20 -4.22249e-05)
(8.61156e-22 -8.951e-20 -5.84489e-05)
(-1.63252e-22 1.77516e-20 -7.83915e-05)
(-2.51989e-22 3.52425e-20 -0.000102179)
(-2.85958e-22 8.73224e-20 -0.000129342)
(-8.86096e-23 1.21264e-19 -0.000156701)
(-1.096e-22 8.99429e-21 -3.52213e-05)
(3.22654e-22 -2.69377e-20 -4.66201e-05)
(-1.29681e-22 1.788e-20 -6.16161e-05)
(2.57373e-22 -3.55041e-20 -8.07649e-05)
(7.12656e-23 -1.7633e-20 -0.000104485)
(1.67821e-22 -5.23221e-20 -0.000132629)
(-1.03541e-23 -1.72151e-20 -0.00016296)
(-1.36028e-20 2.84754e-19 0.000179214)
(-4.10986e-22 9.48907e-21 0.00013293)
(6.92057e-22 -2.01185e-20 0.000464616)
(-7.931e-20 1.23843e-18 0.000317108)
(3.45285e-20 -6.09249e-19 0.000279284)
(-6.40545e-22 -5.56842e-22 0.000240028)
(6.41227e-22 -1.83644e-20 0.000199766)
(-1.29986e-21 2.73231e-20 0.000158605)
(3.7365e-22 -9.06074e-21 0.00011652)
(7.47966e-20 -1.2222e-18 0.000402682)
(6.64843e-20 -1.17232e-18 0.000279507)
(-3.15555e-20 5.72339e-19 0.000247066)
(-4.73881e-22 -1.79869e-22 0.000212701)
(-2.68791e-20 5.81899e-19 0.000176904)
(-1.26423e-20 3.00005e-19 0.000139805)
(-2.75018e-22 9.3712e-21 0.000101529)
(-1.39448e-19 2.37596e-18 0.000347968)
(-1.30985e-19 2.39087e-18 0.000245806)
(-4.27177e-22 1.61666e-21 0.000218101)
(2.66344e-20 -5.63912e-19 0.00018811)
(5.08504e-20 -1.18204e-18 0.000156381)
(2.22029e-20 -5.72851e-19 0.000123052)
(-2.17898e-21 6.2947e-20 8.83274e-05)
(6.69739e-20 -1.19166e-18 0.000299725)
(3.09607e-20 -5.7482e-19 0.000215631)
(5.92338e-23 -1.05798e-21 0.000192116)
(-5.12676e-20 1.1465e-18 0.000166074)
(-2.24003e-20 5.64108e-19 0.000138037)
(-1.07541e-20 2.99977e-19 0.000108184)
(1.99005e-21 -6.33922e-20 7.67634e-05)
(1.3514e-21 -1.81491e-20 0.00025722)
(2.88443e-20 -5.69316e-19 0.00018861)
(-2.10847e-22 4.02911e-22 0.000168782)
(4.86523e-20 -1.16205e-18 0.000146262)
(-1.07937e-20 2.70323e-19 0.000121562)
(-1.23954e-21 2.73361e-20 9.48809e-05)
(2.65005e-21 -8.12956e-20 6.64977e-05)
(9.46845e-22 -1.82048e-20 0.000219809)
(2.50868e-20 -5.46289e-19 0.000164399)
(2.45737e-20 -5.81064e-19 0.000147794)
(-4.58154e-20 1.15876e-18 0.000128394)
(1.13186e-20 -3.07043e-19 0.000106684)
(2.57414e-22 -9.34761e-21 8.28704e-05)
(-4.47899e-21 1.53641e-19 5.72444e-05)
(-2.6627e-20 5.82566e-19 0.000186944)
(-5.17802e-20 1.18028e-18 0.00014273)
(-2.3459e-20 5.62745e-19 0.000128926)
(4.31187e-20 -1.15559e-18 0.000112277)
(1.9336e-22 -4.81929e-22 9.32292e-05)
(-6.26877e-23 5.01575e-23 7.19873e-05)
(1.93169e-21 -7.23418e-20 4.88404e-05)
(5.21772e-20 -1.17803e-18 0.000158153)
(4.70152e-20 -1.13879e-18 0.00012338)
(2.22631e-20 -5.94958e-19 0.000112003)
(-2.0602e-20 5.7718e-19 9.7771e-05)
(-5.37262e-23 2.64692e-22 8.10853e-05)
(3.88524e-21 -1.34859e-19 6.2139e-05)
(-1.99715e-22 8.92971e-21 4.12065e-05)
(-2.40463e-20 5.59187e-19 0.000133014)
(-1.73627e-21 1.93408e-20 0.000106148)
(-2.15047e-20 5.76066e-19 9.68632e-05)
(-9.75741e-21 2.87312e-19 8.47484e-05)
(8.34698e-23 5.29178e-24 7.0154e-05)
(-4.22869e-21 1.53111e-19 5.3251e-05)
(2.3147e-22 -8.91348e-21 3.42878e-05)
(2.29094e-20 -5.90443e-19 0.000111124)
(-2.20758e-20 5.73936e-19 9.08229e-05)
(-1.38233e-21 3.59677e-20 8.33326e-05)
(1.05238e-20 -3.23284e-19 7.3065e-05)
(-8.3209e-21 2.86665e-19 6.0317e-05)
(-4.31998e-21 1.61592e-19 4.52293e-05)
(1.37493e-24 5.84304e-23 2.8011e-05)
(-1.16203e-21 1.2652e-21 9.20868e-05)
(-1.9721e-20 5.70163e-19 7.71748e-05)
(5.6255e-22 -1.789e-20 7.12084e-05)
(-5.0732e-22 1.79749e-20 6.25423e-05)
(8.58234e-21 -3.05108e-19 5.14173e-05)
(2.95384e-21 -1.16987e-19 3.79386e-05)
(2.04189e-22 -9.02256e-21 2.22629e-05)
(-5.6594e-22 -1.65495e-20 7.54944e-05)
(2.77342e-20 -8.17346e-19 6.49419e-05)
(4.4819e-23 7.39193e-23 6.02521e-05)
(8.12696e-21 -2.85465e-19 5.29607e-05)
(5.82159e-22 -1.79135e-20 4.32493e-05)
(2.66346e-22 -8.96861e-21 3.11886e-05)
(5.53622e-22 -2.69345e-20 1.68889e-05)
(-1.92572e-20 5.46345e-19 6.09258e-05)
(-1.87072e-20 5.83643e-19 5.38272e-05)
(-5.10536e-22 1.76887e-20 5.01843e-05)
(-1.47034e-20 5.3496e-19 4.40598e-05)
(-3.08038e-23 -2.32143e-24 3.55852e-05)
(-2.21726e-21 9.85235e-20 2.47722e-05)
(-5.41902e-22 2.703e-20 1.16881e-05)
(-8.18756e-21 2.62311e-19 4.79437e-05)
(8.25441e-21 -2.64627e-19 4.34967e-05)
(4.98157e-22 -1.76848e-20 4.06797e-05)
(7.57061e-21 -2.85155e-19 3.55275e-05)
(-3.38414e-21 1.42787e-19 2.81172e-05)
(1.34659e-21 -6.28225e-20 1.84032e-05)
(-1.9103e-22 8.95855e-21 6.40143e-06)
(8.38253e-21 -2.61381e-19 3.60948e-05)
(-7.39083e-21 2.63018e-19 3.35755e-05)
(3.22143e-21 -1.23588e-19 3.13664e-05)
(5.20085e-23 5.00029e-23 2.69968e-05)
(6.92704e-21 -3.03535e-19 2.04972e-05)
(-1.6103e-22 8.94892e-21 1.17951e-05)
(-1.51721e-22 8.96667e-21 8.12447e-07)
(3.91189e-22 -1.73855e-20 2.48965e-05)
(7.47681e-21 -2.62442e-19 2.36261e-05)
(-7.23342e-21 2.82033e-19 2.18234e-05)
(4.00536e-22 -1.77957e-20 1.80948e-05)
(-3.19578e-21 1.42863e-19 1.24245e-05)
(1.49209e-22 -8.91998e-21 4.68586e-06)
(4.86204e-22 -2.69472e-20 -5.29035e-06)
(-3.73102e-21 1.37708e-19 1.37759e-05)
(4.09605e-22 -1.751e-20 1.31117e-05)
(5.20864e-21 -2.1104e-19 1.15596e-05)
(-3.60406e-23 1.30447e-23 8.41552e-06)
(1.40471e-21 -7.1273e-20 3.58408e-06)
(-2.26394e-22 9.01693e-21 -3.14839e-06)
(-8.57422e-24 3.42229e-24 -1.20293e-05)
(4.26017e-21 -1.54394e-19 1.83701e-06)
(1.22135e-21 -5.19393e-20 1.25002e-06)
(-1.71965e-21 7.02297e-20 2.29103e-08)
(-3.57776e-22 1.76884e-20 -2.37015e-06)
(-3.97941e-22 1.79243e-20 -6.18354e-06)
(-3.44361e-22 1.79607e-20 -1.17249e-05)
(-1.4655e-22 8.99097e-21 -1.93201e-05)
(3.71897e-22 -1.70355e-20 -1.29199e-05)
(-2.14051e-21 8.65e-20 -1.29687e-05)
(-3.61739e-22 1.74715e-20 -1.3172e-05)
(7.29609e-22 -3.53412e-20 -1.42854e-05)
(-1.03969e-21 5.34646e-20 -1.67108e-05)
(-1.68935e-22 8.96144e-21 -2.07596e-05)
(-1.45012e-22 8.97845e-21 -2.67858e-05)
(0 -0 -8.15589e-06)
(0 -0 -9.70586e-06)
(0 -0 -1.08678e-05)
(0 -0 -1.16278e-05)
(0 -0 -1.1933e-05)
(0 -0 -1.18038e-05)
(0 -0 -1.12872e-05)
(0 -0 -1.04611e-05)
(0 -0 -9.41811e-06)
(0 -0 -8.25348e-06)
(0 -0 -7.05572e-06)
(0 -0 -5.89907e-06)
(0 -0 -4.83946e-06)
(0 -0 -3.91351e-06)
(0 -0 -3.13948e-06)
(0 -0 -2.52008e-06)
(0 -0 -2.04654e-06)
(0 -0 -1.70281e-06)
(0 -0 -1.46903e-06)
(0 -0 -1.32459e-06)
(0 -0 -1.25036e-06)
(0 -0 -1.23018e-06)
(0 -0 -1.2512e-06)
(0 -0 -1.30443e-06)
(0 -0 -1.38628e-06)
(0 -0 -1.50477e-06)
(0 -0 -1.70356e-06)
(0 -0 -2.1539e-06)
(0 -0 -3.50065e-06)
(0 -0 -8.16619e-06)
(0 -0 -2.53016e-05)
(0 -0 -8.97314e-05)
(0 -0 -0.000334684)
(0 1.20315e-23 -0.0013748)
(0 -0 -7.36887e-06)
(0 -0 -8.86042e-06)
(0 -0 -1.00145e-05)
(0 -0 -1.0724e-05)
(0 -0 -1.09765e-05)
(0 -0 -1.08196e-05)
(0 -0 -1.02993e-05)
(0 -0 -9.48969e-06)
(0 -0 -8.47862e-06)
(0 -0 -7.35632e-06)
(0 -0 -6.20659e-06)
(0 -0 -5.09971e-06)
(0 -0 -4.08851e-06)
(0 -0 -3.20734e-06)
(0 -0 -2.47314e-06)
(0 -0 -1.88821e-06)
(0 -0 -1.44401e-06)
(0 -0 -1.12515e-06)
(0 -0 -9.12891e-07)
(0 -0 -7.87933e-07)
(0 -0 -7.3238e-07)
(0 -0 -7.31072e-07)
(0 -0 -7.72169e-07)
(0 -0 -8.47353e-07)
(0 -0 -9.53236e-07)
(0 -0 -1.09695e-06)
(0 -0 -1.31742e-06)
(0 -0 -1.76658e-06)
(0 -0 -3.01527e-06)
(0 -0 -7.20324e-06)
(0 -0 -2.2392e-05)
(0 -0 -7.91612e-05)
(0 -0 -0.000294063)
(0 5.43128e-22 -0.00119863)
(0 -0 -6.78217e-06)
(0 -0 -8.24157e-06)
(0 -0 -9.35179e-06)
(0 -0 -9.98781e-06)
(0 -0 -1.01845e-05)
(0 -0 -9.99637e-06)
(0 -0 -9.46879e-06)
(0 -0 -8.6723e-06)
(0 -0 -7.69007e-06)
(0 -0 -6.6075e-06)
(0 -0 -5.50367e-06)
(0 -0 -4.44472e-06)
(0 -0 -3.48015e-06)
(0 -0 -2.64184e-06)
(0 -0 -1.94533e-06)
(0 -0 -1.3924e-06)
(0 -0 -9.74588e-07)
(0 -0 -6.77034e-07)
(0 -0 -4.81923e-07)
(0 -0 -3.71096e-07)
(0 -0 -3.27793e-07)
(0 -0 -3.37816e-07)
(0 -0 -3.90169e-07)
(0 -0 -4.77258e-07)
(0 -0 -5.95944e-07)
(0 -0 -7.52337e-07)
(0 -0 -9.80777e-07)
(0 -0 -1.41589e-06)
(0 -0 -2.56209e-06)
(0 -0 -6.3064e-06)
(0 -0 -1.97393e-05)
(0 -0 -6.96689e-05)
(0 -0 -0.000257889)
(0 -9.61796e-22 -0.00104324)
(0 -0 -6.30993e-06)
(0 -0 -7.7169e-06)
(0 -0 -8.76435e-06)
(0 -0 -9.34556e-06)
(0 -0 -9.5038e-06)
(0 -0 -9.29701e-06)
(0 -0 -8.77031e-06)
(0 -0 -7.99199e-06)
(0 -0 -7.04164e-06)
(0 -0 -6.00056e-06)
(0 -0 -4.94349e-06)
(0 -0 -3.93265e-06)
(0 -0 -3.01427e-06)
(0 -0 -2.21788e-06)
(0 -0 -1.55748e-06)
(0 -0 -1.03414e-06)
(0 -0 -6.39369e-07)
(0 -0 -3.58818e-07)
(0 -0 -1.75487e-07)
(0 -0 -7.2161e-08)
(0 -0 -3.30359e-08)
(0 -0 -4.47803e-08)
(0 -0 -9.71313e-08)
(0 -0 -1.83023e-07)
(0 -0 -2.99353e-07)
(0 -0 -4.51282e-07)
(0 -0 -6.68989e-07)
(0 -0 -1.07124e-06)
(0 -0 -2.10281e-06)
(0 -0 -5.42434e-06)
(0 -0 -1.72592e-05)
(0 -0 -6.10612e-05)
(0 -0 -0.000225557)
(0 4.38175e-22 -0.000905924)
(0 -0 -5.79502e-06)
(0 -0 -7.13936e-06)
(0 -0 -8.13514e-06)
(0 -0 -8.67825e-06)
(0 -0 -8.81451e-06)
(0 -0 -8.60292e-06)
(0 -0 -8.08801e-06)
(0 -0 -7.33615e-06)
(0 -0 -6.42394e-06)
(0 -0 -5.42897e-06)
(0 -0 -4.42208e-06)
(0 -0 -3.46187e-06)
(0 -0 -2.59155e-06)
(0 -0 -1.83829e-06)
(0 -0 -1.21451e-06)
(0 -0 -7.2053e-07)
(0 -0 -3.47837e-07)
(0 -0 -8.24898e-08)
(0 -0 9.18292e-08)
(0 -0 1.91503e-07)
(0 -0 2.31444e-07)
(0 -0 2.24171e-07)
(0 -0 1.79335e-07)
(0 -0 1.03631e-07)
(0 -0 1.69852e-10)
(0 -0 -1.35292e-07)
(0 -0 -3.29163e-07)
(0 -0 -6.85812e-07)
(0 -0 -1.59634e-06)
(0 -0 -4.51837e-06)
(0 -0 -1.48999e-05)
(0 -0 -5.32078e-05)
(0 -0 -0.000196584)
(0 5.93546e-24 -0.000784421)
(0 -0 -5.12425e-06)
(0 -0 -6.40544e-06)
(0 -0 -7.35329e-06)
(0 -0 -7.86528e-06)
(0 -0 -7.98789e-06)
(0 -0 -7.77989e-06)
(0 -0 -7.28463e-06)
(0 -0 -6.56625e-06)
(0 -0 -5.69823e-06)
(0 -0 -4.75455e-06)
(0 -0 -3.80237e-06)
(0 -0 -2.89674e-06)
(0 -0 -2.07786e-06)
(0 -0 -1.37062e-06)
(0 -0 -7.85933e-07)
(0 -0 -3.23364e-07)
(0 -0 2.56848e-08)
(0 -0 2.74784e-07)
(0 -0 4.3961e-07)
(0 -0 5.3574e-07)
(0 -0 5.77235e-07)
(0 -0 5.75821e-07)
(0 -0 5.40565e-07)
(0 -0 4.77837e-07)
(0 -0 3.90675e-07)
(0 -0 2.75653e-07)
(0 -0 1.09791e-07)
(0 -0 -1.98348e-07)
(0 -0 -9.91586e-07)
(0 -0 -3.54526e-06)
(0 -0 -1.26136e-05)
(0 -0 -4.59999e-05)
(0 -0 -0.000170565)
(0 4.66289e-24 -0.000676786)
(0 -0 -4.22832e-06)
(0 -0 -5.44279e-06)
(0 -0 -6.34054e-06)
(0 -0 -6.82103e-06)
(0 -0 -6.93132e-06)
(0 -0 -6.72965e-06)
(0 -0 -6.25771e-06)
(0 -0 -5.57696e-06)
(0 -0 -4.75754e-06)
(0 -0 -3.86964e-06)
(0 -0 -2.97655e-06)
(0 -0 -2.12966e-06)
(0 -0 -1.36614e-06)
(0 -0 -7.08594e-07)
(0 -0 -1.66454e-07)
(0 -0 2.61467e-07)
(0 -0 5.8389e-07)
(0 -0 8.14022e-07)
(0 -0 9.66876e-07)
(0 -0 1.05721e-06)
(0 -0 1.09823e-06)
(0 -0 1.10085e-06)
(0 -0 1.07354e-06)
(0 -0 1.02226e-06)
(0 -0 9.49903e-07)
(0 -0 8.53666e-07)
(0 -0 7.13632e-07)
(0 -0 4.49931e-07)
(0 -0 -2.36845e-07)
(0 -0 -2.45829e-06)
(0 -0 -1.0347e-05)
(0 -0 -3.93289e-05)
(0 -0 -0.000147126)
(0 -6.36957e-23 -0.000581309)
(0 -0 -3.0711e-06)
(0 -0 -4.21236e-06)
(0 -0 -5.05435e-06)
(0 -0 -5.49914e-06)
(0 -0 -5.5946e-06)
(0 -0 -5.39842e-06)
(0 -0 -4.95052e-06)
(0 -0 -4.30941e-06)
(0 -0 -3.54149e-06)
(0 -0 -2.71289e-06)
(0 -0 -1.88266e-06)
(0 -0 -1.0984e-06)
(0 -0 -3.94115e-07)
(0 -0 2.09926e-07)
(0 -0 7.05853e-07)
(0 -0 1.09563e-06)
(0 -0 1.38808e-06)
(0 -0 1.59603e-06)
(0 -0 1.73379e-06)
(0 -0 1.81526e-06)
(0 -0 1.85277e-06)
(0 -0 1.85638e-06)
(0 -0 1.83388e-06)
(0 -0 1.7907e-06)
(0 -0 1.72954e-06)
(0 -0 1.648e-06)
(0 -0 1.52883e-06)
(0 -0 1.3025e-06)
(0 -0 7.08662e-07)
(0 -0 -1.2171e-06)
(0 -0 -8.05e-06)
(0 -0 -3.30914e-05)
(0 -0 -0.000125934)
(0 9.66173e-23 -0.000496492)
(0 -0 -1.64433e-06)
(0 -0 -2.70334e-06)
(0 -0 -3.48182e-06)
(0 -0 -3.88478e-06)
(0 -0 -3.96109e-06)
(0 -0 -3.76798e-06)
(0 -0 -3.34348e-06)
(0 -0 -2.74294e-06)
(0 -0 -2.02867e-06)
(0 -0 -1.26228e-06)
(0 -0 -4.98332e-07)
(0 -0 2.19636e-07)
(0 -0 8.60943e-07)
(0 -0 1.40783e-06)
(0 -0 1.85406e-06)
(0 -0 2.20239e-06)
(0 -0 2.46172e-06)
(0 -0 2.64445e-06)
(0 -0 2.76415e-06)
(0 -0 2.83384e-06)
(0 -0 2.86485e-06)
(0 -0 2.86635e-06)
(0 -0 2.84536e-06)
(0 -0 2.80668e-06)
(0 -0 2.75267e-06)
(0 -0 2.68121e-06)
(0 -0 2.57731e-06)
(0 -0 2.38068e-06)
(0 -0 1.86611e-06)
(0 -0 2.01606e-07)
(0 -0 -5.68775e-06)
(0 -0 -2.72033e-05)
(0 -0 -0.000106697)
(0 -2.93655e-23 -0.00042103)
(0 -0 3.11243e-08)
(0 -0 -9.34006e-07)
(0 -0 -1.63933e-06)
(0 -0 -1.99304e-06)
(0 -0 -2.04504e-06)
(0 -0 -1.85207e-06)
(0 -0 -1.45006e-06)
(0 -0 -8.90881e-07)
(0 -0 -2.3239e-07)
(0 -0 4.68778e-07)
(0 -0 1.1629e-06)
(0 -0 1.81079e-06)
(0 -0 2.38535e-06)
(0 -0 2.87151e-06)
(0 -0 3.26474e-06)
(0 -0 3.56859e-06)
(0 -0 3.79202e-06)
(0 -0 3.94695e-06)
(0 -0 4.04614e-06)
(0 -0 4.1016e-06)
(0 -0 4.12362e-06)
(0 -0 4.12036e-06)
(0 -0 4.09795e-06)
(0 -0 4.06048e-06)
(0 -0 4.00985e-06)
(0 -0 3.94407e-06)
(0 -0 3.85007e-06)
(0 -0 3.67577e-06)
(0 -0 3.22762e-06)
(0 -0 1.7928e-06)
(0 -0 -3.25416e-06)
(0 -0 -2.16138e-05)
(0 -0 -8.91845e-05)
(0 -2.82897e-23 -0.000353807)
(0 -0 1.89988e-06)
(0 -0 1.04323e-06)
(0 -0 4.2275e-07)
(0 -0 1.26931e-07)
(0 -0 1.04925e-07)
(0 -0 3.00731e-07)
(0 -0 6.80813e-07)
(0 -0 1.19727e-06)
(0 -0 1.79719e-06)
(0 -0 2.4294e-06)
(0 -0 3.04947e-06)
(0 -0 3.62293e-06)
(0 -0 4.12659e-06)
(0 -0 4.54826e-06)
(0 -0 4.88516e-06)
(0 -0 5.14165e-06)
(0 -0 5.32671e-06)
(0 -0 5.45169e-06)
(0 -0 5.52841e-06)
(0 -0 5.56776e-06)
(0 -0 5.57884e-06)
(0 -0 5.5687e-06)
(0 -0 5.54245e-06)
(0 -0 5.50335e-06)
(0 -0 5.45273e-06)
(0 -0 5.38861e-06)
(0 -0 5.29948e-06)
(0 -0 5.14061e-06)
(0 -0 4.7469e-06)
(0 -0 3.51293e-06)
(0 -0 -7.82826e-07)
(0 -0 -1.63174e-05)
(0 -0 -7.32313e-05)
(0 -2.70393e-23 -0.000293887)
(0 -0 3.86744e-06)
(0 -0 3.13702e-06)
(0 -0 2.61524e-06)
(0 -0 2.38721e-06)
(0 -0 2.40128e-06)
(0 -0 2.60264e-06)
(0 -0 2.96068e-06)
(0 -0 3.432e-06)
(0 -0 3.96937e-06)
(0 -0 4.52761e-06)
(0 -0 5.06821e-06)
(0 -0 5.56191e-06)
(0 -0 5.98973e-06)
(0 -0 6.34258e-06)
(0 -0 6.61952e-06)
(0 -0 6.82567e-06)
(0 -0 6.96998e-06)
(0 -0 7.06312e-06)
(0 -0 7.11581e-06)
(0 -0 7.1376e-06)
(0 -0 7.13625e-06)
(0 -0 7.11754e-06)
(0 -0 7.08544e-06)
(0 -0 7.04227e-06)
(0 -0 6.98866e-06)
(0 -0 6.92245e-06)
(0 -0 6.83344e-06)
(0 -0 6.68343e-06)
(0 -0 6.33292e-06)
(0 -0 5.27327e-06)
(0 -0 1.64615e-06)
(0 -0 -1.13599e-05)
(0 -0 -5.87445e-05)
(0 -2.6835e-23 -0.000240501)
(0 -0 5.80086e-06)
(0 -0 5.21728e-06)
(0 -0 4.81004e-06)
(0 -0 4.66076e-06)
(0 -0 4.71725e-06)
(0 -0 4.92644e-06)
(0 -0 5.2613e-06)
(0 -0 5.68371e-06)
(0 -0 6.15289e-06)
(0 -0 6.63054e-06)
(0 -0 7.08471e-06)
(0 -0 7.4919e-06)
(0 -0 7.8378e-06)
(0 -0 8.11658e-06)
(0 -0 8.32926e-06)
(0 -0 8.48172e-06)
(0 -0 8.58277e-06)
(0 -0 8.64221e-06)
(0 -0 8.66941e-06)
(0 -0 8.67241e-06)
(0 -0 8.65743e-06)
(0 -0 8.62879e-06)
(0 -0 8.58915e-06)
(0 -0 8.53973e-06)
(0 -0 8.48036e-06)
(0 -0 8.40854e-06)
(0 -0 8.31512e-06)
(0 -0 8.16767e-06)
(0 -0 7.84971e-06)
(0 -0 6.9398e-06)
(0 -0 3.90624e-06)
(0 -0 -6.83788e-06)
(0 -0 -4.5699e-05)
(0 7.82376e-23 -0.000193036)
(0 -0 7.53688e-06)
(0 -0 7.12308e-06)
(0 -0 6.84777e-06)
(0 -0 6.78888e-06)
(0 -0 6.89411e-06)
(0 -0 7.11269e-06)
(0 -0 7.42194e-06)
(0 -0 7.79002e-06)
(0 -0 8.18356e-06)
(0 -0 8.57208e-06)
(0 -0 8.93101e-06)
(0 -0 9.24329e-06)
(0 -0 9.49971e-06)
(0 -0 9.69798e-06)
(0 -0 9.84116e-06)
(0 -0 9.93593e-06)
(0 -0 9.99077e-06)
(0 -0 1.00144e-05)
(0 -0 1.00145e-05)
(0 -0 9.99755e-06)
(0 -0 9.96783e-06)
(0 -0 9.92803e-06)
(0 -0 9.87934e-06)
(0 -0 9.82172e-06)
(0 -0 9.75403e-06)
(0 -0 9.67332e-06)
(0 -0 9.57122e-06)
(0 -0 9.42039e-06)
(0 -0 9.12502e-06)
(0 -0 8.3421e-06)
(0 -0 5.83354e-06)
(0 -0 -2.88948e-06)
(0 -0 -3.41277e-05)
(0 6.03353e-23 -0.000151011)
(0 -0 8.89891e-06)
(0 -0 8.67927e-06)
(0 -0 8.55404e-06)
(0 -0 8.59737e-06)
(0 -0 8.75719e-06)
(0 -0 8.9857e-06)
(0 -0 9.26548e-06)
(0 -0 9.57206e-06)
(0 -0 9.88061e-06)
(0 -0 1.01695e-05)
(0 -0 1.04225e-05)
(0 -0 1.06296e-05)
(0 -0 1.07874e-05)
(0 -0 1.08973e-05)
(0 -0 1.09647e-05)
(0 -0 1.09969e-05)
(0 -0 1.10018e-05)
(0 -0 1.0987e-05)
(0 -0 1.09583e-05)
(0 -0 1.09199e-05)
(0 -0 1.08743e-05)
(0 -0 1.08221e-05)
(0 -0 1.0763e-05)
(0 -0 1.06954e-05)
(0 -0 1.06171e-05)
(0 -0 1.05246e-05)
(0 -0 1.041e-05)
(0 -0 1.02505e-05)
(0 -0 9.9687e-06)
(0 -0 9.29189e-06)
(0 -0 7.24527e-06)
(0 -0 3.23686e-07)
(0 -0 -2.41036e-05)
(0 -5.93623e-23 -0.000114055)
(0 -0 9.72151e-06)
(0 -0 9.72054e-06)
(0 -0 9.76332e-06)
(0 -0 9.92014e-06)
(0 -0 1.01395e-05)
(0 -0 1.03772e-05)
(0 -0 1.06222e-05)
(0 -0 1.08585e-05)
(0 -0 1.1071e-05)
(0 -0 1.1248e-05)
(0 -0 1.13825e-05)
(0 -0 1.14727e-05)
(0 -0 1.15211e-05)