/*--------------------------------*- C++ -*----------------------------------*\
| =========                 |                                                 |
| \\      /  F ield         | OpenFOAM: The Open Source CFD Toolbox           |
|  \\    /   O peration     | Version:  2412                                  |
|   \\  /    A nd           | Website:  www.openfoam.com                      |
|    \\/     M anipulation  |                                                 |
\*---------------------------------------------------------------------------*/
FoamFile
{
    version     2.0;
    format      ascii;
    arch        "LSB;label=32;scalar=64";
    class       volScalarField;
    location    "10";
    object      p;
}
// * * * * * * * * * * * * * * * * * * * * * * * * * * * * * * * * * * * * * //

dimensions      [0 2 -2 0 0 0 0];

internalField   nonuniform List<scalar> 
63420
(
0.00101342
0.00101375
0.00101452
0.00101582
0.00101752
0.00101964
0.00102217
0.00102506
0.00102831
0.00103192
0.00103587
0.00104018
0.00104483
0.00104981
0.00105514
0.00106079
0.00106678
0.0010731
0.00107975
0.00108672
0.00109402
0.00110165
0.00110961
0.0011179
0.00112653
0.00113548
0.00114478
0.00115441
0.00116438
0.00117469
0.00118536
0.00119637
0.00120774
0.00121947
0.00123155
0.001244
0.00125682
0.00127002
0.00128359
0.00129754
0.00131188
0.00132662
0.00134174
0.00135727
0.0013732
0.00138954
0.0014063
0.00142347
0.00144107
0.0014591
0.00147757
0.00149648
0.00151583
0.00153563
0.00155589
0.00101336
0.00101369
0.00101445
0.00101576
0.00101746
0.00101958
0.0010221
0.00102499
0.00102824
0.00103184
0.0010358
0.0010401
0.00104474
0.00104973
0.00105505
0.0010607
0.00106668
0.001073
0.00107964
0.0010866
0.0010939
0.00110152
0.00110947
0.00111776
0.00112637
0.00113532
0.0011446
0.00115422
0.00116418
0.00117449
0.00118514
0.00119614
0.00120749
0.0012192
0.00123127
0.00124371
0.00125651
0.00126968
0.00128323
0.00129717
0.00131148
0.00132619
0.00134129
0.00135679
0.00137269
0.001389
0.00140573
0.00142287
0.00144043
0.00145842
0.00147684
0.00149571
0.00151501
0.00153476
0.00155497
0.00101324
0.00101357
0.00101433
0.00101563
0.00101733
0.00101945
0.00102197
0.00102485
0.0010281
0.0010317
0.00103565
0.00103994
0.00104458
0.00104955
0.00105486
0.00106051
0.00106648
0.00107278
0.00107941
0.00108637
0.00109365
0.00110126
0.0011092
0.00111746
0.00112606
0.00113499
0.00114425
0.00115385
0.00116379
0.00117407
0.00118469
0.00119567
0.00120699
0.00121867
0.00123071
0.00124311
0.00125588
0.00126901
0.00128252
0.00129641
0.00131068
0.00132534
0.00134039
0.00135583
0.00137168
0.00138793
0.00140458
0.00142166
0.00143915
0.00145706
0.0014754
0.00149417
0.00151338
0.00153303
0.00155313
0.00101306
0.00101339
0.00101415
0.00101545
0.00101714
0.00101926
0.00102177
0.00102465
0.00102789
0.00103148
0.00103542
0.0010397
0.00104433
0.00104929
0.00105459
0.00106022
0.00106618
0.00107247
0.00107908
0.00108601
0.00109328
0.00110086
0.00110878
0.00111702
0.00112559
0.00113449
0.00114372
0.00115329
0.0011632
0.00117344
0.00118403
0.00119496
0.00120624
0.00121788
0.00122987
0.00124222
0.00125493
0.00126801
0.00128146
0.00129528
0.00130948
0.00132407
0.00133904
0.0013544
0.00137016
0.00138632
0.00140288
0.00141984
0.00143722
0.00145502
0.00147324
0.00149188
0.00151095
0.00153045
0.00155039
0.00101282
0.00101316
0.00101391
0.0010152
0.00101689
0.001019
0.0010215
0.00102437
0.0010276
0.00103118
0.00103511
0.00103939
0.001044
0.00104895
0.00105423
0.00105984
0.00106578
0.00107204
0.00107863
0.00108554
0.00109278
0.00110034
0.00110822
0.00111643
0.00112496
0.00113383
0.00114302
0.00115255
0.00116241
0.00117261
0.00118314
0.00119402
0.00120525
0.00121682
0.00122875
0.00124103
0.00125367
0.00126667
0.00128004
0.00129378
0.00130789
0.00132238
0.00133725
0.0013525
0.00136814
0.00138418
0.00140061
0.00141744
0.00143467
0.00145231
0.00147037
0.00148883
0.00150772
0.00152703
0.00154676
0.00101253
0.00101286
0.00101361
0.0010149
0.00101658
0.00101868
0.00102117
0.00102403
0.00102725
0.00103082
0.00103473
0.00103899
0.00104359
0.00104852
0.00105378
0.00105936
0.00106528
0.00107151
0.00107807
0.00108495
0.00109216
0.00109968
0.00110753
0.00111569
0.00112419
0.001133
0.00114215
0.00115162
0.00116143
0.00117157
0.00118204
0.00119286
0.00120401
0.00121551
0.00122736
0.00123955
0.0012521
0.00126501
0.00127828
0.00129191
0.00130591
0.00132027
0.00133502
0.00135013
0.00136563
0.00138152
0.00139779
0.00141445
0.0014315
0.00144895
0.0014668
0.00148505
0.00150371
0.00152278
0.00154224
0.00101217
0.0010125
0.00101325
0.00101453
0.00101621
0.00101829
0.00102078
0.00102362
0.00102683
0.00103038
0.00103428
0.00103852
0.00104309
0.001048
0.00105323
0.00105879
0.00106468
0.00107088
0.00107741
0.00108425
0.00109141
0.00109889
0.00110669
0.00111481
0.00112326
0.00113202
0.00114111
0.00115052
0.00116026
0.00117033
0.00118073
0.00119146
0.00120253
0.00121394
0.00122569
0.00123779
0.00125023
0.00126302
0.00127617
0.00128967
0.00130354
0.00131776
0.00133235
0.00134731
0.00136264
0.00137834
0.00139442
0.00141088
0.00142772
0.00144495
0.00146256
0.00148056
0.00149894
0.00151772
0.00153688
0.00157667
0.00159819
0.00162064
0.00164407
0.00166856
0.00169416
0.00172093
0.00174896
0.00177831
0.00180908
0.00184137
0.00187526
0.00191087
0.00194832
0.00198774
0.00202927
0.00207307
0.00211931
0.00216819
0.00221989
0.00227467
0.00233278
0.0023945
0.00246014
0.00253005
0.0026046
0.00268421
0.00276936
0.00286054
0.00295835
0.00306339
0.00317638
0.00329807
0.00342931
0.00357102
0.00372416
0.00388977
0.00406885
0.00426232
0.00447088
0.00469472
0.00493326
0.00518467
0.00544551
0.00571094
0.00597553
0.00623367
0.00649063
0.00681649
0.00730982
0.00157572
0.00159724
0.00161969
0.00164314
0.00166761
0.0016932
0.00171997
0.00174799
0.00177734
0.00180811
0.00184038
0.00187427
0.00190987
0.0019473
0.0019867
0.00202821
0.00207199
0.00211821
0.00216705
0.00221872
0.00227345
0.0023315
0.00239314
0.00245868
0.00252846
0.00260285
0.00268227
0.00276717
0.00285804
0.00295545
0.00306
0.00317235
0.00329324
0.00342345
0.00356384
0.00371529
0.00387869
0.0040549
0.00424462
0.00444826
0.00466563
0.00489566
0.00513586
0.00538201
0.00562826
0.00586812
0.0060954
0.00631447
0.00659099
0.00701653
0.00157383
0.00159535
0.00161781
0.00164123
0.0016657
0.00169128
0.00171805
0.00174606
0.0017754
0.00180615
0.00183841
0.00187227
0.00190785
0.00194526
0.00198464
0.00202611
0.00206984
0.00211601
0.00216478
0.00221637
0.002271
0.00232893
0.00239042
0.00245576
0.0025253
0.00259939
0.00267842
0.00276283
0.0028531
0.00294973
0.0030533
0.00316441
0.00328371
0.00341191
0.00354969
0.00369779
0.00385684
0.00402738
0.00420966
0.00440351
0.00460798
0.00482094
0.00503862
0.00525515
0.00546266
0.00565254
0.00581759
0.00596064
0.00613415
0.00643735
0.00157101
0.00159252
0.00161495
0.00163837
0.00166283
0.0016884
0.00171515
0.00174314
0.00177246
0.0018032
0.00183543
0.00186926
0.00190481
0.00194218
0.0019815
0.00202291
0.00206657
0.00211265
0.00216132
0.00221278
0.00226726
0.00232499
0.00238623
0.00245128
0.00252044
0.00259405
0.00267249
0.00275615
0.00284547
0.00294092
0.00304299
0.00315221
0.00326911
0.00339424
0.00352811
0.00367115
0.00382368
0.00398572
0.00415689
0.00433615
0.00452137
0.00470891
0.004893
0.0050653
0.00521498
0.00533009
0.00540182
0.00543448
0.00546459
0.00555192
0.00156725
0.00158875
0.00161118
0.00163458
0.00165904
0.0016846
0.00171133
0.00173931
0.00176862
0.00179933
0.00183153
0.00186534
0.00190084
0.00193816
0.00197743
0.00201877
0.00206235
0.00210833
0.00215688
0.00220818
0.00226247
0.00231995
0.00238089
0.00244555
0.00251423
0.00258722
0.00266488
0.00274756
0.00283563
0.00292951
0.00302959
0.00313628
0.00324996
0.00337098
0.00349957
0.0036358
0.00377949
0.00393002
0.00408614
0.00424562
0.00440481
0.00455802
0.00469692
0.00481
0.00488265
0.00489854
0.00484575
0.00473192
0.00458266
0.00433721
0.00156259
0.00158409
0.00160652
0.00162994
0.00165441
0.00167999
0.00170674
0.00173474
0.00176407
0.0017948
0.00182704
0.00186086
0.00189639
0.00193373
0.00197302
0.00201439
0.00205799
0.00210398
0.00215254
0.00220384
0.0022581
0.00231554
0.00237639
0.0024409
0.00250934
0.002582
0.00265917
0.00274119
0.00282836
0.00292102
0.00301947
0.003124
0.00323481
0.00335199
0.00347543
0.00360474
0.00373904
0.00387675
0.00401526
0.00415048
0.00427618
0.00438334
0.00445938
0.00448774
0.00444805
0.00431819
0.00408123
0.00374578
0.00332986
0.0026349
0.00155701
0.00157844
0.00160081
0.00162418
0.00164859
0.00167412
0.00170082
0.00172877
0.00175805
0.00178872
0.00182089
0.00185466
0.00189012
0.00192739
0.0019666
0.00200789
0.00205141
0.00209731
0.00214577
0.00219696
0.00225109
0.00230836
0.00236901
0.00243325
0.00250135
0.00257356
0.00265016
0.00273141
0.0028176
0.00290898
0.00300576
0.0031081
0.00321603
0.00332939
0.00344773
0.00357013
0.00369495
0.00381951
0.00393951
0.00404839
0.00413648
0.00418996
0.00419012
0.00411318
0.00393112
0.00361354
0.00313935
0.00252268
0.00173019
0.000452724
-0.00327297
-0.00330728
-0.00326936
-0.00317315
-0.00303483
-0.00285842
-0.00265113
-0.00242146
-0.00217805
-0.00192922
-0.00168255
-0.00144452
-0.00122034
-0.00101382
-0.000827446
-0.000662469
-0.000519115
-0.000396779
-0.000294243
-0.00020988
-0.000141806
-8.79585e-05
-4.62899e-05
-1.49836e-05
7.57629e-06
2.30129e-05
3.2867e-05
3.8355e-05
4.04504e-05
3.99861e-05
3.76498e-05
3.39924e-05
2.94487e-05
2.43569e-05
1.89757e-05
1.34994e-05
8.07036e-06
2.79039e-06
-2.27047e-06
-7.06639e-06
-1.15699e-05
-1.57672e-05
-1.96542e-05
-2.32343e-05
-2.65154e-05
-2.95091e-05
-3.22286e-05
-3.46888e-05
-3.69049e-05
-3.88918e-05
-0.00338263
-0.00338943
-0.00333502
-0.00323061
-0.00308613
-0.00290556
-0.00269618
-0.00246496
-0.00222019
-0.00196998
-0.00172174
-0.00148191
-0.00125569
-0.00104694
-0.000858205
-0.000690802
-0.000545019
-0.000420302
-0.000315476
-0.000228945
-0.000158845
-0.000103135
-5.97522e-05
-2.68805e-05
-2.91976e-06
1.37675e-05
2.47317e-05
3.12052e-05
3.41723e-05
3.44756e-05
3.28132e-05
2.97464e-05
2.57193e-05
2.1079e-05
1.6092e-05
1.09598e-05
5.83109e-06
8.13308e-07
-4.01849e-06
-8.61411e-06
-1.29422e-05
-1.69857e-05
-2.07376e-05
-2.41987e-05
-2.73748e-05
-3.02755e-05
-3.29126e-05
-3.52994e-05
-3.74501e-05
-3.93781e-05
-0.00360473
-0.003549
-0.00346304
-0.00334332
-0.00318305
-0.00299635
-0.00278281
-0.00254857
-0.00230137
-0.00204868
-0.00179759
-0.00155444
-0.00132443
-0.00111149
-0.000918289
-0.00074626
-0.000595812
-0.0004665
-0.000357235
-0.000266488
-0.000192443
-0.000133079
-8.63572e-05
-5.04176e-05
-2.36649e-05
-4.51548e-06
8.63413e-06
1.70531e-05
2.17439e-05
2.35663e-05
2.32381e-05
2.13408e-05
1.83371e-05
1.45913e-05
1.03855e-05
5.93509e-06
1.4014e-06
-3.09701e-06
-7.4752e-06
-1.16743e-05
-1.56553e-05
-1.93945e-05
-2.28792e-05
-2.61051e-05
-2.90737e-05
-3.17908e-05
-3.42652e-05
-3.65072e-05
-3.85289e-05
-4.03405e-05
-0.0039409
-0.00377961
-0.00364293
-0.00349744
-0.00332393
-0.0031263
-0.00290594
-0.00266741
-0.00241678
-0.00216065
-0.00190566
-0.00165795
-0.0014227
-0.00120395
-0.00100448
-0.000825938
-0.000668889
-0.00053305
-0.000417458
-0.000320682
-0.00024098
-0.000176394
-0.000124852
-8.4518e-05
-5.37644e-05
-3.10123e-05
-1.47058e-05
-3.47682e-06
3.70753e-06
7.7287e-06
9.33242e-06
9.129e-06
7.60825e-06
5.15883e-06
2.08539e-06
-1.37655e-06
-5.04747e-06
-8.79268e-06
-1.2513e-05
-1.61369e-05
-1.96144e-05
-2.29121e-05
-2.6009e-05
-2.88934e-05
-3.15608e-05
-3.40115e-05
-3.62494e-05
-3.82813e-05
-4.01155e-05
-4.17578e-05
-0.00435144
-0.00406596
-0.00388817
-0.0037004
-0.00349951
-0.00328554
-0.00305558
-0.00281102
-0.00255599
-0.0022959
-0.00203668
-0.00178409
-0.00154316
-0.00131798
-0.00111147
-0.00092545
-0.000760705
-0.000617136
-0.00049395
-0.000389852
-0.000303201
-0.000232124
-0.00017461
-0.000128732
-9.28951e-05
-6.55735e-05
-4.51744e-05
-3.03146e-05
-1.98969e-05
-1.30146e-05
-8.88954e-06
-6.87682e-06
-6.45385e-06
-7.2016e-06
-8.78737e-06
-1.095e-05
-1.34867e-05
-1.6242e-05
-1.9098e-05
-2.19667e-05
-2.47836e-05
-2.75025e-05
-3.00914e-05
-3.25289e-05
-3.48022e-05
-3.69044e-05
-3.88337e-05
-4.05913e-05
-4.2181e-05
-4.36028e-05
-0.00478203
-0.00440105
-0.00416709
-0.00392419
-0.00368859
-0.00345282
-0.00320985
-0.0029583
-0.00269991
-0.00243822
-0.00217777
-0.00192343
-0.00167976
-0.0014506
-0.0012389
-0.00104664
-0.0008748
-0.000723558
-0.000592367
-0.000480156
-0.000385491
-0.000306665
-0.000241785
-0.000188983
-0.000146613
-0.000113236
-8.73592e-05
-6.75485e-05
-5.26759e-05
-4.18123e-05
-3.41488e-05
-2.90053e-05
-2.58235e-05
-2.41489e-05
-2.36145e-05
-2.39262e-05
-2.48503e-05
-2.62025e-05
-2.78387e-05
-2.96471e-05
-3.15419e-05
-3.34581e-05
-3.5347e-05
-3.71731e-05
-3.8911e-05
-4.05434e-05
-4.20592e-05
-4.34523e-05
-4.47197e-05
-4.58559e-05
-0.00519924
-0.0048767
-0.00453523
-0.00422486
-0.00394377
-0.00367655
-0.00341299
-0.00314871
-0.00288264
-0.00261603
-0.00235173
-0.00209344
-0.00184502
-0.00161001
-0.00139129
-0.00119095
-0.00101021
-0.000849493
-0.000708527
-0.000586486
-0.000482156
-0.000394027
-0.000320341
-0.000259259
-0.000209183
-0.000168674
-0.000136284
-0.000110623
-9.05048e-05
-7.49638e-05
-6.31524e-05
-5.43485e-05
-4.79502e-05
-4.34598e-05
-4.04686e-05
-3.86424e-05
-3.77102e-05
-3.74531e-05
-3.76954e-05
-3.82969e-05
-3.91464e-05
-4.01566e-05
-4.12591e-05
-4.24017e-05
-4.35442e-05
-4.46569e-05
-4.57181e-05
-4.6713e-05
-4.76311e-05
-4.84648e-05
-4.06681e-05
-4.22758e-05
-4.37239e-05
-4.50123e-05
-4.61467e-05
-4.71329e-05
-4.79763e-05
-4.86829e-05
-4.92587e-05
-4.971e-05
-5.00427e-05
-5.02627e-05
-5.03756e-05
-5.03865e-05
-5.02998e-05
-5.01198e-05
-4.98503e-05
-4.94951e-05
-4.9058e-05
-4.8543e-05
-4.79546e-05
-4.72975e-05
-4.65768e-05
-4.57979e-05
-4.49662e-05
-4.40871e-05
-4.31658e-05
-4.22075e-05
-4.1217e-05
-4.01986e-05
-3.91567e-05
-3.80952e-05
-3.70177e-05
-3.59276e-05
-3.48283e-05
-3.37227e-05
-3.26139e-05
-3.15045e-05
-3.03971e-05
-2.92942e-05
-2.8198e-05
-2.7111e-05
-2.60342e-05
-2.49723e-05
-2.39234e-05
-2.28886e-05
-2.18749e-05
-2.08798e-05
-1.99045e-05
-1.89508e-05
-1.80197e-05
-1.71121e-05
-1.62287e-05
-1.53704e-05
-1.45375e-05
-1.37307e-05
-1.29503e-05
-1.21966e-05
-1.14698e-05
-1.077e-05
-1.00972e-05
-9.45147e-06
-8.8326e-06
-8.24041e-06
-7.67465e-06
-7.13501e-06
-6.62108e-06
-6.13244e-06
-5.66859e-06
-5.22897e-06
-4.81302e-06
-4.42012e-06
-4.04961e-06
-3.70081e-06
-3.37304e-06
-3.06553e-06
-2.77757e-06
-2.50838e-06
-2.2572e-06
-2.02326e-06
-1.80571e-06
-1.60387e-06
-1.41684e-06
-1.24389e-06
-1.08424e-06
-9.37076e-07
-8.01671e-07
-6.77357e-07
-5.63159e-07
-4.5903e-07
-3.62595e-07
-2.77123e-07
-1.92788e-07
-1.29447e-07
-4.18825e-08
-2.34209e-08
1.17995e-07
6.81964e-09
3.54958e-07
-1.28072e-07
8.01731e-07
-5.76078e-07
1.60891e-06
-1.41028e-06
2.69735e-06
-2.27203e-06
3.3624e-06
-2.10211e-06
2.36932e-06
1.68322e-07
-6.95628e-07
3.84609e-06
-3.85989e-06
5.95084e-06
-3.90529e-06
-4.10954e-05
-4.26637e-05
-4.4077e-05
-4.5332e-05
-4.64357e-05
-4.73939e-05
-4.82118e-05
-4.88951e-05
-4.94496e-05
-4.98813e-05
-5.01961e-05
-5.03998e-05
-5.04976e-05
-5.04946e-05
-5.03952e-05
-5.02036e-05
-4.99235e-05
-4.95587e-05
-4.91129e-05
-4.85903e-05
-4.7995e-05
-4.73319e-05
-4.66059e-05
-4.58224e-05
-4.49866e-05
-4.4104e-05
-4.31797e-05
-4.22187e-05
-4.12257e-05
-4.02053e-05
-3.91615e-05
-3.80983e-05
-3.70193e-05
-3.5928e-05
-3.48276e-05
-3.37211e-05
-3.26114e-05
-3.15013e-05
-3.03934e-05
-2.929e-05
-2.81934e-05
-2.71061e-05
-2.6029e-05
-2.49669e-05
-2.39179e-05
-2.28831e-05
-2.18693e-05
-2.08742e-05
-1.98989e-05
-1.89454e-05
-1.80144e-05
-1.71069e-05
-1.62237e-05
-1.53654e-05
-1.45327e-05
-1.37261e-05
-1.29459e-05
-1.21924e-05
-1.14657e-05
-1.07661e-05
-1.00936e-05
-9.44801e-06
-8.82933e-06
-8.23732e-06
-7.67174e-06
-7.13228e-06
-6.61851e-06
-6.13004e-06
-5.66635e-06
-5.22688e-06
-4.81108e-06
-4.41831e-06
-4.04793e-06
-3.69926e-06
-3.37162e-06
-3.06421e-06
-2.77636e-06
-2.50728e-06
-2.25618e-06
-2.02233e-06
-1.80487e-06
-1.6031e-06
-1.41615e-06
-1.24326e-06
-1.08367e-06
-9.36565e-07
-8.01212e-07
-6.76947e-07
-5.62792e-07
-4.58705e-07
-3.62304e-07
-2.76868e-07
-1.92564e-07
-1.29248e-07
-4.17216e-08
-2.3258e-08
1.18091e-07
6.98038e-09
3.54951e-07
-1.27853e-07
8.01582e-07
-5.75794e-07
1.60869e-06
-1.41003e-06
2.69718e-06
-2.27199e-06
3.36256e-06
-2.10247e-06
2.36979e-06
1.67827e-07
-6.95207e-07
3.84589e-06
-3.85993e-06
5.95094e-06
-3.90755e-06
-4.19444e-05
-4.34343e-05
-4.47782e-05
-4.5967e-05
-4.70097e-05
-4.79124e-05
-4.86797e-05
-4.93166e-05
-4.98288e-05
-5.02217e-05
-5.0501e-05
-5.06721e-05
-5.07399e-05
-5.07094e-05
-5.05848e-05
-5.03701e-05
-5.0069e-05
-4.96852e-05
-4.92223e-05
-4.86843e-05
-4.80754e-05
-4.74003e-05
-4.66639e-05
-4.58712e-05
-4.50274e-05
-4.41378e-05
-4.32073e-05
-4.22409e-05
-4.12432e-05
-4.02185e-05
-3.9171e-05
-3.81045e-05
-3.70227e-05
-3.59288e-05
-3.48262e-05
-3.37178e-05
-3.26065e-05
-3.1495e-05
-3.03858e-05
-2.92815e-05
-2.81841e-05
-2.70962e-05
-2.60186e-05
-2.49562e-05
-2.39069e-05
-2.2872e-05
-2.18582e-05
-2.08631e-05
-1.98879e-05
-1.89345e-05
-1.80037e-05
-1.70965e-05
-1.62135e-05
-1.53556e-05
-1.45232e-05
-1.37169e-05
-1.29371e-05
-1.21839e-05
-1.14577e-05
-1.07585e-05
-1.00863e-05
-9.4411e-06
-8.82279e-06
-8.23115e-06
-7.66593e-06
-7.12681e-06
-6.61339e-06
-6.12525e-06
-5.66187e-06
-5.2227e-06
-4.8072e-06
-4.41471e-06
-4.04459e-06
-3.69618e-06
-3.36876e-06
-3.06159e-06
-2.77396e-06
-2.50507e-06
-2.25417e-06
-2.02049e-06
-1.8032e-06
-1.60157e-06
-1.41476e-06
-1.242e-06
-1.08253e-06
-9.35545e-07
-8.003e-07
-6.76131e-07
-5.62062e-07
-4.58059e-07
-3.61726e-07
-2.76359e-07
-1.92123e-07
-1.2885e-07
-4.14079e-08
-2.29228e-08
1.18263e-07
7.32315e-09
3.5492e-07
-1.27424e-07
8.01294e-07
-5.75222e-07
1.60821e-06
-1.40949e-06
2.69685e-06
-2.27192e-06
3.36286e-06
-2.10315e-06
2.37073e-06
1.66819e-07
-6.94361e-07
3.84545e-06
-3.86e-06
5.95115e-06
-3.91198e-06
-4.32027e-05
-4.45772e-05
-4.58174e-05
-4.6908e-05
-4.78605e-05
-4.86811e-05
-4.93734e-05
-4.99418e-05
-5.03912e-05
-5.07268e-05
-5.09534e-05
-5.10761e-05
-5.10996e-05
-5.10283e-05
-5.08663e-05
-5.06174e-05
-5.02852e-05
-4.98731e-05
-4.93849e-05
-4.88242e-05
-4.81952e-05
-4.75024e-05
-4.67503e-05
-4.5944e-05
-4.50883e-05
-4.41881e-05
-4.32485e-05
-4.2274e-05
-4.12691e-05
-4.02381e-05
-3.91851e-05
-3.81137e-05
-3.70275e-05
-3.59299e-05
-3.48239e-05
-3.37127e-05
-3.25989e-05
-3.14854e-05
-3.03745e-05
-2.92687e-05
-2.81702e-05
-2.70813e-05
-2.6003e-05
-2.49401e-05
-2.38904e-05
-2.28553e-05
-2.18414e-05
-2.08464e-05
-1.98714e-05
-1.89182e-05
-1.79877e-05
-1.70808e-05
-1.61983e-05
-1.53408e-05
-1.4509e-05
-1.37032e-05
-1.29239e-05
-1.21713e-05
-1.14456e-05
-1.0747e-05
-1.00753e-05
-9.43073e-06
-8.81298e-06
-8.2219e-06
-7.65722e-06
-7.11862e-06
-6.60571e-06
-6.11806e-06
-5.65515e-06
-5.21644e-06
-4.80137e-06
-4.4093e-06
-4.03959e-06
-3.69155e-06
-3.36449e-06
-3.05767e-06
-2.77035e-06
-2.50177e-06
-2.25115e-06
-2.01772e-06
-1.80069e-06
-1.59928e-06
-1.41269e-06
-1.24012e-06
-1.08084e-06
-9.34018e-07
-7.98933e-07
-6.74908e-07
-5.60972e-07
-4.57088e-07
-3.60866e-07
-2.75595e-07
-1.91466e-07
-1.28251e-07
-4.0941e-08
-2.24207e-08
1.18517e-07
7.83161e-09
3.54878e-07
-1.26787e-07
8.00876e-07
-5.74384e-07
1.60752e-06
-1.40871e-06
2.69639e-06
-2.27185e-06
3.36334e-06
-2.10423e-06
2.37218e-06
1.65291e-07
-6.93105e-07
3.84483e-06
-3.86012e-06
5.95149e-06
-3.91837e-06
-4.48527e-05
-4.60769e-05
-4.718e-05
-4.81419e-05
-4.89765e-05
-4.96897e-05
-5.02838e-05
-5.07624e-05
-5.11297e-05
-5.13899e-05
-5.15475e-05
-5.16068e-05
-5.15721e-05
-5.14474e-05
-5.12364e-05
-5.09427e-05
-5.05697e-05
-5.01207e-05
-4.95991e-05
-4.90087e-05
-4.83533e-05
-4.76371e-05
-4.68645e-05
-4.60402e-05
-4.51687e-05
-4.42547e-05
-4.33028e-05
-4.23176e-05
-4.13032e-05
-4.02639e-05
-3.92035e-05
-3.81255e-05
-3.70336e-05
-3.5931e-05
-3.48207e-05
-3.37057e-05
-3.25888e-05
-3.14724e-05
-3.03593e-05
-2.92516e-05
-2.81515e-05
-2.70614e-05
-2.59822e-05
-2.49185e-05
-2.38684e-05
-2.2833e-05
-2.18191e-05
-2.08241e-05
-1.98493e-05
-1.88964e-05
-1.79663e-05
-1.70599e-05
-1.6178e-05
-1.53211e-05
-1.449e-05
-1.36849e-05
-1.29063e-05
-1.21544e-05
-1.14295e-05
-1.07316e-05
-1.00608e-05
-9.41692e-06
-8.79991e-06
-8.20956e-06
-7.6456e-06
-7.1077e-06
-6.59547e-06
-6.10847e-06
-5.6462e-06
-5.2081e-06
-4.79361e-06
-4.4021e-06
-4.03292e-06
-3.68539e-06
-3.35881e-06
-3.05243e-06
-2.76554e-06
-2.49736e-06
-2.24712e-06
-2.01404e-06
-1.79734e-06
-1.59623e-06
-1.40992e-06
-1.23762e-06
-1.07858e-06
-9.31985e-07
-7.97112e-07
-6.73278e-07
-5.59519e-07
-4.55794e-07
-3.59722e-07
-2.74578e-07
-1.90592e-07
-1.27453e-07
-4.03192e-08
-2.17547e-08
1.18859e-07
8.49732e-09
3.54839e-07
-1.25965e-07
8.00365e-07
-5.7334e-07
1.6067e-06
-1.40782e-06
2.69596e-06
-2.27197e-06
3.36421e-06
-2.10586e-06
2.37424e-06
1.63211e-07
-6.915e-07
3.84418e-06
-3.86051e-06
5.95218e-06
-3.9266e-06
-4.68741e-05
-4.79134e-05
-4.8847e-05
-4.96518e-05
-5.0343e-05
-5.09251e-05
-5.13993e-05
-5.17682e-05
-5.20349e-05
-5.22031e-05
-5.22762e-05
-5.2258e-05
-5.2152e-05
-5.19618e-05
-5.16909e-05
-5.13424e-05
-5.09195e-05
-5.04253e-05
-4.9863e-05
-4.92362e-05
-4.85484e-05
-4.78035e-05
-4.70057e-05
-4.61591e-05
-4.5268e-05
-4.43369e-05
-4.33699e-05
-4.23714e-05
-4.13453e-05
-4.02955e-05
-3.92259e-05
-3.81399e-05
-3.70409e-05
-3.59321e-05
-3.48164e-05
-3.36967e-05
-3.25757e-05
-3.1456e-05
-3.034e-05
-2.923e-05
-2.81279e-05
-2.70363e-05
-2.5956e-05
-2.48915e-05
-2.38408e-05
-2.28052e-05
-2.17911e-05
-2.07962e-05
-1.98216e-05
-1.88692e-05
-1.79396e-05
-1.70338e-05
-1.61526e-05
-1.52965e-05
-1.44662e-05
-1.3662e-05
-1.28843e-05
-1.21334e-05
-1.14094e-05
-1.07125e-05
-1.00426e-05
-9.39965e-06
-8.78358e-06
-8.19415e-06
-7.63109e-06
-7.09407e-06
-6.58269e-06
-6.0965e-06
-5.63502e-06
-5.19768e-06
-4.78392e-06
-4.3931e-06
-4.02459e-06
-3.67768e-06
-3.3517e-06
-3.04589e-06
-2.75953e-06
-2.49185e-06
-2.24208e-06
-2.00944e-06
-1.79315e-06
-1.59242e-06
-1.40647e-06
-1.23449e-06
-1.07576e-06
-9.29448e-07
-7.94838e-07
-6.71243e-07
-5.57706e-07
-4.54178e-07
-3.58295e-07
-2.73308e-07
-1.89502e-07
-1.26455e-07
-3.95435e-08
-2.09228e-08
1.19284e-07
9.32859e-09
3.54787e-07
-1.24934e-07
7.99719e-07
-5.72025e-07
1.60566e-06
-1.40669e-06
2.6954e-06
-2.27208e-06
3.36527e-06
-2.10787e-06
2.3768e-06
1.60625e-07
-6.89484e-07
3.84332e-06
-3.86086e-06
5.95288e-06
-3.93593e-06
-4.92376e-05
-5.00615e-05
-5.07956e-05
-5.1418e-05
-5.19428e-05
-5.23724e-05
-5.27067e-05
-5.29474e-05
-5.30968e-05
-5.31573e-05
-5.31315e-05
-5.30225e-05
-5.28331e-05
-5.25665e-05
-5.22254e-05
-5.18128e-05
-5.13316e-05
-5.07845e-05
-5.01746e-05
-4.9505e-05
-4.87792e-05
-4.80005e-05
-4.71729e-05
-4.63e-05
-4.53858e-05
-4.44342e-05
-4.34493e-05
-4.24349e-05
-4.13948e-05
-4.03326e-05
-3.92521e-05
-3.81565e-05
-3.7049e-05
-3.59328e-05
-3.48107e-05
-3.36855e-05
-3.25598e-05
-3.14361e-05
-3.03167e-05
-2.92038e-05
-2.80995e-05
-2.70061e-05
-2.59244e-05
-2.48589e-05
-2.38076e-05
-2.27716e-05
-2.17574e-05
-2.07626e-05
-1.97884e-05
-1.88364e-05
-1.79075e-05
-1.70025e-05
-1.61221e-05
-1.5267e-05
-1.44376e-05
-1.36345e-05
-1.28579e-05
-1.21081e-05
-1.13853e-05
-1.06895e-05
-1.00207e-05
-9.37894e-06
-8.764e-06
-8.17567e-06
-7.61369e-06
-7.07771e-06
-6.56735e-06
-6.08215e-06
-5.62161e-06
-5.18519e-06
-4.7723e-06
-4.38231e-06
-4.01459e-06
-3.66845e-06
-3.34318e-06
-3.03805e-06
-2.75233e-06
-2.48525e-06
-2.23604e-06
-2.00393e-06
-1.78813e-06
-1.58785e-06
-1.40233e-06
-1.23075e-06
-1.07238e-06
-9.26406e-07
-7.92111e-07
-6.68803e-07
-5.55531e-07
-4.52241e-07
-3.56586e-07
-2.71784e-07
-1.88198e-07
-1.25253e-07
-3.86289e-08
-1.98964e-08
1.19736e-07
1.04266e-08
3.54543e-07
-1.23393e-07
7.98459e-07
-5.69714e-07
1.60336e-06
-1.40391e-06
2.69295e-06
-2.2702e-06
3.36444e-06
-2.10842e-06
2.3786e-06
1.57867e-07
-6.86281e-07
3.84041e-06
-3.85851e-06
5.95067e-06
-3.94316e-06
-5.1994e-05
-5.25613e-05
-5.30557e-05
-5.34684e-05
-5.38016e-05
-5.40552e-05
-5.42279e-05
-5.43203e-05
-5.43336e-05
-5.42692e-05
-5.41287e-05
-5.39143e-05
-5.36281e-05
-5.32726e-05
-5.28502e-05
-5.23632e-05
-5.18143e-05
-5.12058e-05
-5.05405e-05
-4.98212e-05
-4.9051e-05
-4.82328e-05
-4.73701e-05
-4.64663e-05
-4.55247e-05
-4.4549e-05
-4.35428e-05
-4.25095e-05
-4.14528e-05
-4.0376e-05
-3.92825e-05
-3.81755e-05
-3.7058e-05
-3.5933e-05
-3.48034e-05
-3.36716e-05
-3.25403e-05
-3.14118e-05
-3.02884e-05
-2.91723e-05
-2.80654e-05
-2.69699e-05
-2.58866e-05
-2.48198e-05
-2.37678e-05
-2.27315e-05
-2.17171e-05
-2.07225e-05
-1.97487e-05
-1.87973e-05
-1.78692e-05
-1.6965e-05
-1.60857e-05
-1.52317e-05
-1.44035e-05
-1.36016e-05
-1.28264e-05
-1.20779e-05
-1.13564e-05
-1.0662e-05
-9.99463e-06
-9.35421e-06
-8.74061e-06
-8.1536e-06
-7.59291e-06
-7.05818e-06
-6.54904e-06
-6.06501e-06
-5.60561e-06
-5.17027e-06
-4.75843e-06
-4.36944e-06
-4.00267e-06
-3.65742e-06
-3.33301e-06
-3.02869e-06
-2.74373e-06
-2.47737e-06
-2.22883e-06
-1.99735e-06
-1.78214e-06
-1.58241e-06
-1.39739e-06
-1.22628e-06
-1.06835e-06
-9.22777e-07
-7.88856e-07
-6.6589e-07
-5.52935e-07
-4.49928e-07
-3.54547e-07
-2.69964e-07
-1.86649e-07
-1.23805e-07
-3.75627e-08
-1.8622e-08
1.20178e-07
1.19126e-08
3.53938e-07
-1.21024e-07
7.96103e-07
-5.65655e-07
1.59874e-06
-1.39807e-06
2.68684e-06
-2.26427e-06
3.35965e-06
-2.10571e-06
2.37847e-06
1.55152e-07
-6.80968e-07
3.83342e-06
-3.85063e-06
5.94249e-06
-3.94536e-06
-5.51062e-05
-5.53891e-05
-5.5622e-05
-5.57981e-05
-5.59152e-05
-5.59699e-05
-5.59597e-05
-5.58841e-05
-5.57431e-05
-5.55369e-05
-5.52661e-05
-5.49319e-05
-5.45357e-05
-5.40792e-05
-5.35643e-05
-5.29928e-05
-5.23668e-05
-5.16885e-05
-5.09601e-05
-5.01841e-05
-4.93631e-05
-4.84998e-05
-4.75969e-05
-4.66575e-05
-4.56844e-05
-4.46808e-05
-4.36499e-05
-4.25948e-05
-4.15188e-05
-4.0425e-05
-3.93164e-05
-3.81962e-05
-3.70672e-05
-3.59321e-05
-3.47937e-05
-3.36543e-05
-3.25165e-05
-3.13826e-05
-3.02546e-05
-2.91347e-05
-2.80247e-05
-2.69268e-05
-2.58417e-05
-2.47736e-05
-2.37208e-05
-2.26841e-05
-2.16696e-05
-2.06752e-05
-1.97019e-05
-1.87512e-05
-1.78239e-05
-1.69209e-05
-1.60428e-05
-1.51901e-05
-1.43634e-05
-1.3563e-05
-1.27893e-05
-1.20424e-05
-1.13225e-05
-1.06297e-05
-9.96394e-06
-9.32513e-06
-8.7131e-06
-8.12765e-06
-7.56847e-06
-7.03522e-06
-6.52751e-06
-6.04487e-06
-5.5868e-06
-5.15274e-06
-4.74212e-06
-4.3543e-06
-3.98865e-06
-3.64447e-06
-3.32106e-06
-3.01769e-06
-2.73362e-06
-2.4681e-06
-2.22036e-06
-1.98961e-06
-1.77509e-06
-1.576e-06
-1.39158e-06
-1.22103e-06
-1.06361e-06
-9.18513e-07
-7.85031e-07
-6.62467e-07
-5.49883e-07
-4.47211e-07
-3.52149e-07
-2.67832e-07
-1.84817e-07
-1.22129e-07
-3.62608e-08
-1.72197e-08
1.20871e-07
1.3348e-08
3.53752e-07
-1.19092e-07
7.9465e-07
-5.62814e-07
1.59597e-06
-1.39466e-06
2.68384e-06
-2.26195e-06
3.35864e-06
-2.10647e-06
2.38087e-06
1.51378e-07
-6.76393e-07
3.82897e-06
-3.84647e-06
5.93836e-06
-3.9519e-06
-5.84664e-05
-5.84519e-05
-5.84092e-05
-5.83321e-05
-5.82163e-05
-5.80562e-05
-5.78482e-05
-5.75906e-05
-5.72822e-05
-5.69219e-05
-5.65094e-05
-5.60449e-05
-5.5529e-05
-5.49627e-05
-5.4347e-05
-5.36834e-05
-5.29736e-05
-5.22191e-05
-5.14219e-05
-5.05839e-05
-4.97073e-05
-4.87943e-05
-4.78472e-05
-4.68684e-05
-4.58605e-05
-4.4826e-05
-4.37676e-05
-4.26883e-05
-4.15908e-05
-4.0478e-05
-3.93528e-05
-3.82179e-05
-3.70759e-05
-3.59296e-05
-3.47814e-05
-3.36337e-05
-3.24887e-05
-3.13487e-05
-3.02156e-05
-2.90916e-05
-2.79782e-05
-2.68777e-05
-2.57906e-05
-2.47211e-05
-2.36673e-05
-2.26302e-05
-2.16156e-05
-2.06215e-05
-1.96488e-05
-1.86989e-05
-1.77728e-05
-1.6871e-05
-1.59942e-05
-1.51431e-05
-1.4318e-05
-1.35193e-05
-1.27473e-05
-1.20022e-05
-1.12842e-05
-1.05932e-05
-9.92927e-06
-9.29227e-06
-8.68203e-06
-8.09833e-06
-7.54087e-06
-7.00929e-06
-6.50319e-06
-6.02212e-06
-5.56555e-06
-5.13294e-06
-4.72371e-06
-4.33721e-06
-3.97282e-06
-3.62983e-06
-3.30756e-06
-3.00526e-06
-2.72221e-06
-2.45764e-06
-2.21079e-06
-1.98088e-06
-1.76713e-06
-1.56877e-06
-1.38503e-06
-1.2151e-06
-1.05826e-06
-9.13699e-07
-7.80713e-07
-6.58603e-07
-5.46439e-07
-4.44146e-07
-3.49441e-07
-2.65428e-07
-1.82742e-07
-1.20252e-07
-3.47627e-08
-1.56908e-08
1.2175e-07
1.47993e-08
3.5382e-07
-1.17349e-07
7.93667e-07
-5.60539e-07
1.59409e-06
-1.39237e-06
2.68227e-06
-2.26125e-06
3.35933e-06
-2.10884e-06
2.38453e-06
1.46903e-07
-6.71774e-07
3.82514e-06
-3.84326e-06
5.93528e-06
-3.95939e-06
-6.20408e-05
-6.17168e-05
-6.13859e-05
-6.10419e-05
-6.06795e-05
-6.02917e-05
-5.98735e-05
-5.94222e-05
-5.89352e-05
-5.84104e-05
-5.78465e-05
-5.72427e-05
-5.65987e-05
-5.59148e-05
-5.51913e-05
-5.44292e-05
-5.36294e-05
-5.27932e-05
-5.19221e-05
-5.10174e-05
-5.00808e-05
-4.91141e-05
-4.8119e-05
-4.70974e-05
-4.60514e-05
-4.49831e-05
-4.38948e-05
-4.27889e-05
-4.16679e-05
-4.05343e-05
-3.93907e-05
-3.82397e-05
-3.70837e-05
-3.59251e-05
-3.47662e-05
-3.36093e-05
-3.24565e-05
-3.13099e-05
-3.01713e-05
-2.90427e-05
-2.79258e-05
-2.68223e-05
-2.57332e-05
-2.46621e-05
-2.36074e-05
-2.25699e-05
-2.15552e-05
-2.05615e-05
-1.95895e-05
-1.86406e-05
-1.77156e-05
-1.68152e-05
-1.59401e-05
-1.50906e-05
-1.42673e-05
-1.34706e-05
-1.27006e-05
-1.19575e-05
-1.12415e-05
-1.05525e-05
-9.89063e-06
-9.25565e-06
-8.6474e-06
-8.06566e-06
-7.51011e-06
-6.98039e-06
-6.4761e-06
-5.99676e-06
-5.54188e-06
-5.11088e-06
-4.70319e-06
-4.31817e-06
-3.95519e-06
-3.61354e-06
-3.29253e-06
-2.99143e-06
-2.7095e-06
-2.44599e-06
-2.20013e-06
-1.97115e-06
-1.75827e-06
-1.56072e-06
-1.37773e-06
-1.20849e-06
-1.0523e-06
-9.08338e-07
-7.75903e-07
-6.54299e-07
-5.42602e-07
-4.40732e-07
-3.46425e-07
-2.62754e-07
-1.80428e-07
-1.18167e-07
-3.30843e-08
-1.40065e-08
1.22758e-07
1.63697e-08
3.53959e-07
-1.1549e-07
7.92662e-07
-5.58085e-07
1.59203e-06
-1.38975e-06
2.68031e-06
-2.26011e-06
3.3596e-06
-2.11093e-06
2.38815e-06
1.42072e-07
-6.66314e-07
3.82003e-06
-3.83824e-06
5.9302e-06
-3.96445e-06
-6.57964e-05
-6.51511e-05
-6.45209e-05
-6.38993e-05
-6.32796e-05
-6.26537e-05
-6.20154e-05
-6.13607e-05
-6.0686e-05
-5.99881e-05
-5.92647e-05
-5.8514e-05
-5.7735e-05
-5.69269e-05
-5.60896e-05
-5.52234e-05
-5.43286e-05
-5.34059e-05
-5.24563e-05
-5.14808e-05
-5.04804e-05
-4.94563e-05
-4.84098e-05
-4.73423e-05
-4.62554e-05
-4.51506e-05
-4.40299e-05
-4.28953e-05
-4.17488e-05
-4.05928e-05
-3.94294e-05
-3.8261e-05
-3.70897e-05
-3.59179e-05
-3.47475e-05
-3.35807e-05
-3.24195e-05
-3.12658e-05
-3.01213e-05
-2.89879e-05
-2.78671e-05
-2.67606e-05
-2.56692e-05