/*--------------------------------*- C++ -*----------------------------------*\
| =========                 |                                                 |
| \\      /  F ield         | OpenFOAM: The Open Source CFD Toolbox           |
|  \\    /   O peration     | Version:  2412                                  |
|   \\  /    A nd           | Website:  www.openfoam.com                      |
|    \\/     M anipulation  |                                                 |
\*---------------------------------------------------------------------------*/
FoamFile
{
    version     2.0;
    format      ascii;
    arch        "LSB;label=32;scalar=64";
    class       surfaceScalarField;
    location    "10";
    object      phi;
}
// * * * * * * * * * * * * * * * * * * * * * * * * * * * * * * * * * * * * * //

dimensions      [0 3 -1 0 0 0 0];

oriented        oriented;

internalField   nonuniform List<scalar> 
126304
(
0.00505064
1.2006e-07
5.59955e-11
0.0050503
3.32143e-07
1.55332e-10
0.00504949
8.17558e-07
-1.04316e-10
0.00504765
1.83564e-06
-1.05249e-09
0.00504445
3.2095e-06
-2.47067e-09
0.00504001
4.44132e-06
-3.66239e-09
0.00503491
5.10271e-06
-3.97183e-09
0.00502982
5.08917e-06
-3.19403e-09
0.00502524
4.58835e-06
-1.59056e-09
0.00502134
3.89621e-06
3.59264e-10
0.00501808
3.25599e-06
2.21759e-09
0.00501528
2.79365e-06
3.71971e-09
0.00501275
2.53177e-06
4.78097e-09
0.00501031
2.43434e-06
5.44007e-09
0.00500785
2.4474e-06
5.79206e-09
0.00500533
2.52283e-06
5.93928e-09
0.00500269
2.6269e-06
5.96596e-09
0.00499995
2.73989e-06
5.93097e-09
0.00499709
2.85231e-06
5.86992e-09
0.00499412
2.96089e-06
5.80087e-09
0.00499105
3.06553e-06
5.73053e-09
0.00498788
3.16749e-06
5.65961e-09
0.0049846
3.26831e-06
5.58649e-09
0.00498123
3.36945e-06
5.50893e-09
0.00497775
3.47206e-06
5.42484e-09
0.00497417
3.57702e-06
5.33284e-09
0.00497048
3.68497e-06
5.23235e-09
0.00496668
3.79635e-06
5.12341e-09
0.00496276
3.91148e-06
5.00636e-09
0.00495873
4.03057e-06
4.88165e-09
0.00495457
4.15379e-06
4.74962e-09
0.00495028
4.28123e-06
4.61032e-09
0.00494586
4.41299e-06
4.46353e-09
0.00494131
4.54912e-06
4.30902e-09
0.00493662
4.68969e-06
4.14689e-09
0.00493178
4.83473e-06
3.97768e-09
0.00492679
4.98431e-06
3.80216e-09
0.00492165
5.13846e-06
3.62116e-09
0.00491635
5.29725e-06
3.43546e-09
0.00491088
5.46074e-06
3.24567e-09
0.00490525
5.62898e-06
3.05235e-09
0.00489945
5.80206e-06
2.85594e-09
0.00489346
5.98005e-06
2.65683e-09
0.0048873
6.16306e-06
2.45543e-09
0.00488094
6.35119e-06
2.25213e-09
0.0048744
6.54456e-06
2.04726e-09
0.00486765
6.74331e-06
1.8413e-09
0.0048607
6.9476e-06
1.63482e-09
0.00485354
7.15762e-06
1.4283e-09
0.00484617
7.37357e-06
1.22227e-09
0.00483857
7.59576e-06
1.01731e-09
0.00483075
7.82461e-06
8.13969e-10
0.00482269
8.06099e-06
6.12907e-10
0.00481438
8.30713e-06
4.14914e-10
8.56916e-06
0.00480581
2.20692e-10
0.00505064
2.4047e-07
0.0050503
6.64881e-07
0.00504949
1.62892e-06
0.00504768
3.64892e-06
0.00504451
6.3783e-06
0.00504012
8.83214e-06
0.00503506
1.01592e-05
0.00503
1.01479e-05
0.00502543
9.16673e-06
0.00502152
7.80079e-06
0.00501824
6.53278e-06
0.00501542
5.61402e-06
0.00501287
5.09104e-06
0.00501041
4.89379e-06
0.00500794
4.91609e-06
0.0050054
5.06289e-06
0.00500276
5.26738e-06
0.00500001
5.49036e-06
0.00499715
5.71285e-06
0.00499418
5.9282e-06
0.00499111
6.13613e-06
0.00498794
6.339e-06
0.00498466
6.53983e-06
0.00498129
6.74143e-06
0.00497782
6.94607e-06
0.00497424
7.15546e-06
0.00497055
7.37086e-06
0.00496676
7.59313e-06
0.00496285
7.8229e-06
0.00495882
8.0606e-06
0.00495466
8.30652e-06
0.00495038
8.56087e-06
0.00494597
8.82383e-06
0.00494143
9.09551e-06
0.00493674
9.37601e-06
0.00493191
9.66545e-06
0.00492693
9.9639e-06
0.0049218
1.02715e-05
0.00491651
1.05883e-05
0.00491105
1.09144e-05
0.00490543
1.125e-05
0.00489964
1.15953e-05
0.00489367
1.19503e-05
0.00488752
1.23152e-05
0.00488118
1.26904e-05
0.00487464
1.3076e-05
0.00486792
1.34722e-05
0.00486098
1.38794e-05
0.00485384
1.4298e-05
0.00484649
1.47284e-05
0.00483891
1.5171e-05
0.00483111
1.56268e-05
0.00482307
1.60975e-05
0.00481479
1.65872e-05
1.71077e-05
0.00480626
0.00505064
3.61447e-07
0.0050503
9.98467e-07
0.0050495
2.42841e-06
0.00504773
5.42069e-06
0.00504464
9.47258e-06
0.00504034
1.31316e-05
0.00503536
1.5133e-05
0.00503036
1.51534e-05
0.0050258
1.37286e-05
0.00502188
1.17207e-05
0.00501856
9.8456e-06
0.0050157
8.47907e-06
0.0050131
7.69446e-06
0.0050106
7.39146e-06
0.0050081
7.41491e-06
0.00500554
7.62492e-06
0.00500288
7.92266e-06
0.00500012
8.24981e-06
0.00499726
8.57789e-06
0.00499429
8.89664e-06
0.00499122
9.20533e-06
0.00498805
9.5072e-06
0.00498478
9.80655e-06
0.00498142
1.01074e-05
0.00497795
1.04131e-05
0.00497438
1.07261e-05
0.0049707
1.10481e-05
0.00496692
1.13805e-05
0.00496301
1.17242e-05
0.004959
1.20798e-05
0.00495485
1.24476e-05
0.00495059
1.28281e-05
0.00494619
1.32215e-05
0.00494166
1.36278e-05
0.00493699
1.40473e-05
0.00493217
1.44802e-05
0.00492721
1.49265e-05
0.00492209
1.53864e-05
0.00491682
1.586e-05
0.00491139
1.63475e-05
0.00490579
1.68492e-05
0.00490002
1.73651e-05
0.00489407
1.78956e-05
0.00488795
1.84409e-05
0.00488164
1.90012e-05
0.00487514
1.95771e-05
0.00486844
2.01687e-05
0.00486154
2.07766e-05
0.00485444
2.14013e-05
0.00484713
2.20433e-05
0.00483959
2.27035e-05
0.00483184
2.3383e-05
0.00482385
2.4084e-05
0.00481562
2.48126e-05
2.5585e-05
0.00480715
0.00505064
4.83225e-07
0.0050503
1.33323e-06
0.00504952
3.21087e-06
0.00504781
7.13295e-06
0.00504482
1.246e-05
0.00504065
1.72999e-05
0.0050358
1.9988e-05
0.00503087
2.00818e-05
0.00502633
1.8266e-05
0.00502239
1.56622e-05
0.00501902
1.32096e-05
0.0050161
1.14079e-05
0.00501343
1.0361e-05
0.00501088
9.94384e-06
0.00500833
9.95684e-06
0.00500574
1.02183e-05
0.00500306
1.0599e-05
0.00500029
1.1022e-05
0.00499742
1.14492e-05
0.00499445
1.18664e-05
0.00499138
1.22722e-05
0.00498822
1.26703e-05
0.00498496
1.3066e-05
0.0049816
1.34644e-05
0.00497815
1.38697e-05
0.00497459
1.42849e-05
0.00497093
1.47125e-05
0.00496715
1.51539e-05
0.00496327
1.56104e-05
0.00495926
1.60827e-05
0.00495514
1.65714e-05
0.00495089
1.70768e-05
0.00494651
1.75993e-05
0.004942
1.81391e-05
0.00493735
1.86963e-05
0.00493256
1.92711e-05
0.00492762
1.98637e-05
0.00492254
2.04742e-05
0.00491729
2.11029e-05
0.00491189
2.175e-05
0.00490632
2.24156e-05
0.00490059
2.31001e-05
0.00489468
2.38037e-05
0.0048886
2.45268e-05
0.00488233
2.52697e-05
0.00487587
2.60329e-05
0.00486922
2.68168e-05
0.00486238
2.7622e-05
0.00485533
2.84491e-05
0.00484807
2.92989e-05
0.00484061
3.01722e-05
0.00483292
3.10704e-05
0.00482501
3.19964e-05
0.00481686
3.29569e-05
3.39713e-05
0.00480847
0.00505063
6.05977e-07
0.0050503
1.6694e-06
0.00504954
3.97207e-06
0.0050479
8.77086e-06
0.00504505
1.53136e-05
0.00504104
2.13035e-05
0.00503634
2.46935e-05
0.00503151
2.49127e-05
0.005027
2.27717e-05
0.00502303
1.96293e-05
0.00501961
1.66367e-05
0.0050166
1.44158e-05
0.00501385
1.31061e-05
0.00501123
1.25644e-05
0.00500864
1.25525e-05
0.005006
1.28508e-05
0.0050033
1.33015e-05
0.00500051
1.38098e-05
0.00499763
1.43279e-05
0.00499466
1.48374e-05
0.0049916
1.53356e-05
0.00498844
1.58263e-05
0.00498519
1.63156e-05
0.00498185
1.68093e-05
0.00497841
1.73122e-05
0.00497486
1.78281e-05
0.00497122
1.83596e-05
0.00496746
1.89086e-05
0.0049636
1.94765e-05
0.00495961
2.00641e-05
0.00495551
2.06721e-05
0.00495129
2.1301e-05
0.00494694
2.1951e-05
0.00494246
2.26224e-05
0.00493784
2.33154e-05
0.00493308
2.40303e-05
0.00492817
2.47671e-05
0.00492312
2.55261e-05
0.00491792
2.63076e-05
0.00491256
2.71116e-05
0.00490703
2.79386e-05
0.00490134
2.87888e-05
0.00489548
2.96625e-05
0.00488945
3.05601e-05
0.00488324
3.14821e-05
0.00487684
3.24289e-05
0.00487026
3.3401e-05
0.00486348
3.43991e-05
0.00485651
3.54239e-05
0.00484933
3.64761e-05
0.00484194
3.75568e-05
0.00483435
3.86675e-05
0.00482653
3.9811e-05
0.0048185
4.09944e-05
4.22377e-05
0.00481023
0.00505063
7.298e-07
0.0050503
2.00707e-06
0.00504956
4.70885e-06
0.00504801
1.03235e-05
0.00504531
1.80134e-05
0.00504149
2.51175e-05
0.00503696
2.92258e-05
0.00503224
2.96298e-05
0.00502778
2.72388e-05
0.00502378
2.36242e-05
0.00502028
2.0135e-05
0.00501718
1.75136e-05
0.00501435
1.59408e-05
0.00501165
1.52629e-05
0.00500899
1.52096e-05
0.00500632
1.55279e-05
0.00500359
1.60336e-05
0.00500078
1.66149e-05
0.00499789
1.72144e-05
0.00499492
1.7809e-05
0.00499186
1.8394e-05
0.00498872
1.89731e-05
0.00498548
1.95527e-05
0.00498215
2.01389e-05
0.00497873
2.07373e-05
0.0049752
2.13517e-05
0.00497158
2.19853e-05
0.00496784
2.264e-05
0.004964
2.33175e-05
0.00496005
2.40186e-05
0.00495598
2.47441e-05
0.00495178
2.54944e-05
0.00494746
2.627e-05
0.00494302
2.70709e-05
0.00493843
2.78976e-05
0.00493371
2.87501e-05
0.00492885
2.96286e-05
0.00492385
3.05334e-05
0.00491869
3.14647e-05
0.00491338
3.24227e-05
0.00490791
3.34077e-05
0.00490228
3.44201e-05
0.00489648
3.54601e-05
0.00489051
3.65283e-05
0.00488437
3.7625e-05
0.00487805
3.87507e-05
0.00487154
3.99061e-05
0.00486485
4.10917e-05
0.00485796
4.23083e-05
0.00485088
4.35567e-05
0.0048436
4.48379e-05
0.00483612
4.61534e-05
0.00482842
4.75056e-05
0.00482052
4.89008e-05
5.03571e-05
0.0048124
0.00505063
8.54699e-07
0.00505029
2.34617e-06
0.00504958
5.41944e-06
0.00504812
1.17842e-05
0.00504559
2.05471e-05
0.00504198
2.87256e-05
0.00503764
3.35692e-05
0.00503305
3.42212e-05
0.00502862
3.16614e-05
0.0050246
2.76463e-05
0.00502103
2.37079e-05
0.00501783
2.07071e-05
0.0050149
1.88713e-05
0.00501212
1.80449e-05
0.0050094
1.79326e-05
0.00500667
1.82526e-05
0.00500391
1.87972e-05
0.00500109
1.94381e-05
0.00499819
2.01085e-05
0.00499522
2.078e-05
0.00499217
2.14457e-05
0.00498904
2.21084e-05
0.00498581
2.27744e-05
0.0049825
2.34501e-05
0.0049791
2.41412e-05
0.0049756
2.48518e-05
0.004972
2.55853e-05
0.00496829
2.63437e-05
0.00496448
2.71286e-05
0.00496056
2.79411e-05
0.00495652
2.87819e-05
0.00495237
2.96514e-05
0.00494809
3.055e-05
0.00494368
3.14781e-05
0.00493914
3.24356e-05
0.00493447
3.34229e-05
0.00492966
3.44402e-05
0.0049247
3.54876e-05
0.0049196
3.65653e-05
0.00491435
3.76736e-05
0.00490895
3.88128e-05
0.00490338
3.99832e-05
0.00489766
4.11851e-05
0.00489177
4.2419e-05
0.00488571
4.36853e-05
0.00487947
4.49845e-05
0.00487306
4.63173e-05
0.00486647
4.76841e-05
0.00485969
4.90858e-05
0.00485273
5.05231e-05
0.00484557
5.19969e-05
0.00483821
5.35084e-05
0.00483066
5.50594e-05
0.0048229
5.66539e-05
0.00481496
5.8302e-05
0.0048073
-1.49567e-06
3.00874e-11
0.00480829
-9.85006e-07
-1.62713e-10
0.00480873
-4.38391e-07
-3.58384e-10
0.00480858
1.4956e-07
-5.48742e-10
0.00480781
7.69371e-07
-7.52109e-10
0.00480638
1.43527e-06
-9.46472e-10
0.00480423
2.14423e-06
-1.13232e-09
0.00480134
2.89758e-06
-1.3084e-09
0.00479764
3.69641e-06
-1.47209e-09
0.0047931
4.54196e-06
-1.62121e-09
0.00478767
5.43606e-06
-1.75372e-09
0.00478129
6.38179e-06
-1.86766e-09
0.00477391
7.38403e-06
-1.96144e-09
0.00476546
8.45024e-06
-2.02923e-09
0.00475587
9.59092e-06
-2.08417e-09
0.00474505
1.082e-05
-2.07476e-09
0.0047329
1.21549e-05
-2.088e-09
0.00471928
1.3616e-05
-2.08888e-09
0.00470406
1.52272e-05
-2.05648e-09
0.00468705
1.70152e-05
-2.05253e-09
0.00466804
1.90093e-05
-1.99737e-09
0.0046468
2.12412e-05
-1.92729e-09
0.00462306
2.37447e-05
-1.85177e-09
0.0045965
2.65566e-05
-1.7746e-09
0.00456679
2.97177e-05
-1.69785e-09
0.00453351
3.32741e-05
-1.62226e-09
0.00449624
3.72792e-05
-1.54728e-09
0.00445444
4.17957e-05
-1.47141e-09
0.00440754
4.68996e-05
-1.39207e-09
0.00435486
5.26827e-05
-1.30636e-09
0.0042956
5.92579e-05
-1.21118e-09
0.00422884
6.67646e-05
-1.10373e-09
0.00415347
7.53757e-05
-9.81859e-10
0.00406816
8.53058e-05
-8.45074e-10
0.00397134
9.68218e-05
-6.94797e-10
0.00386109
0.000110253
-5.33719e-10
0.00373509
0.000126002
-3.659e-10
0.00359054
0.000144547
-1.97374e-10
0.00342411
0.000166433
-3.4908e-11
0.00323188
0.00019223
1.14767e-10
0.00300944
0.000222435
2.44725e-10
0.00275216
0.000257285
3.47192e-10
0.00245573
0.000296421
4.15447e-10
0.00211737
0.000338362
4.42698e-10
0.00173768
0.00037969
4.24517e-10
0.00132376
0.000413922
3.62648e-10
0.000893705
0.000430054
2.72119e-10
0.000482932
0.000410773
1.84941e-10
0.000153197
0.000329735
1.39248e-10
0.000153197
1.1038e-10
0.00480638
-1.62294e-06
0.004806
-6.03204e-07
0.00480507
4.89791e-07
0.00480357
1.65336e-06
0.00480144
2.89767e-06
0.00479865
4.22589e-06
0.00479515
5.64071e-06
0.00479091
7.14448e-06
0.00478586
8.73949e-06
0.00477998
1.04283e-05
0.0047732
1.2215e-05
0.00476548
1.41056e-05
0.00475675
1.61103e-05
0.00474696
1.8244e-05
0.00473602
2.05279e-05
0.00472385
2.29899e-05
0.00471034
2.56645e-05
0.00469536
2.85929e-05
0.00467877
3.18223e-05
0.00466038
3.54061e-05
0.00463998
3.94028e-05
0.00461735
4.38752e-05
0.0045922
4.88908e-05
0.00456424
5.45234e-05
0.0045331
6.08544e-05
0.0044984
6.79759e-05
0.00445968
7.59946e-05
0.00441644
8.50366e-05
0.00436809
9.52532e-05
0.00431394
0.000106828
0.00425321
0.000119987
0.00418497
0.000135007
0.00410811
0.000152232
0.00402133
0.000172089
0.00392305
0.000195106
0.00381136
0.000221934
0.003684
0.000253366
0.00353821
0.000290341
0.00337072
0.000333923
0.00317773
0.000385215
0.00295501
0.00044516
0.00269812
0.000514168
0.00240309
0.000591453
0.00206747
0.000673981
0.00169227
0.000754895
0.0012849
0.000821285
0.000863657
0.0008513
0.000463601
0.000810829
0.000144271
0.000649064
0.000297468
0.00480455
9.70044e-07
0.00480146
2.49346e-06
0.00479782
4.12306e-06
0.00479361
5.86419e-06
0.00478879
7.72453e-06
0.0047833
9.70974e-06
0.00477712
1.18247e-05
0.00477019
1.40733e-05
0.00476247
1.64593e-05
0.00475391
1.89871e-05
0.00474446
2.16629e-05
0.00473407
2.44967e-05
0.00472268
2.75037e-05
0.00471022
3.07069e-05
0.00469661
3.41382e-05
0.00468176
3.78397e-05
0.00466556
4.1863e-05
0.00464788
4.62694e-05
0.00462857
5.11297e-05
0.00460746
5.65234e-05
0.00458432
6.25375e-05
0.00455893
6.92659e-05
0.00453101
7.68095e-05
0.00450026
8.52785e-05
0.00446632
9.47949e-05
0.0044288
0.000105497
0.00438724
0.000117545
0.00434115
0.000131128
0.00428993
0.000146474
0.0042329
0.000163856
0.00416928
0.000183613
0.00409813
0.000206158
0.00401836
0.000232002
0.00392867
0.000261776
0.00382752
0.000296261
0.00371304
0.000336413
0.00358302
0.000383389
0.0034348
0.000438552
0.0032653
0.000503431
0.00307093
0.000579584
0.00284779
0.0006683
0.00259192
0.000770033
0.00229995
0.000883427
0.00197015
0.00100378
0.00160428
0.00112077
0.0012103
0.00121527
0.000806576
0.00125502
0.000427731
0.00118967
0.000130582
0.000946212
0.00042805
0.00480185
7.59704e-06
0.00479472
9.61723e-06
0.00478707
1.17773e-05
0.00477885
1.40865e-05
0.00477002
1.65536e-05
0.00476054
1.91867e-05
0.00475037
2.19926e-05
0.00473947
2.49772e-05
0.00472778
2.8146e-05
0.00471526
3.15055e-05
0.00470186
3.50648e-05
0.00468752
3.88377e-05
0.00467218
4.28455e-05
0.00465577
4.71194e-05
0.0046382
5.17024e-05
0.00461939
5.66506e-05
0.00459922
6.20328e-05
0.00457756
6.79303e-05
0.00455425
7.44368e-05
0.00452912
8.16576e-05
0.00450195
8.97077e-05
0.0044725
9.87112e-05
0.00444051
0.000108802
0.00440566
0.000120127
0.00436761
0.000132848
0.00432596
0.000147149
0.00428026
0.000163246
0.00423
0.000181389
0.00417459
0.000201883
0.00411335
0.000225091
0.0040455
0.000251463
0.00397012
0.000281543
0.00388612
0.000316005
0.00379222
0.000355676
0.00368691
0.000401569
0.0035684
0.000454923
0.00343457
0.000517219
0.00328293
0.000590186
0.00311064
0.000675729
0.00291448
0.000775741
0.00269108
0.000891696
0.00243722
0.0010239
0.00215044
0.00117021
0.00183012
0.0013241
0.00147906
0.00147183
0.00110585
0.00158847
0.000728445
0.00163243
0.000379572
0.00153855
0.000111068
0.00121472
0.000539118
0.0047983
1.95233e-05
0.00478589
2.20292e-05
0.00477296
2.47083e-05
0.00475947
2.75727e-05
0.00474539
3.06338e-05
0.00473068
3.39018e-05
0.00471529
3.73859e-05
0.00469917
4.10939e-05
0.00468228
4.50336e-05
0.00466457
4.9214e-05
0.00464599
5.36475e-05
0.00462648
5.83526e-05
0.00460596
6.33569e-05
0.00458438
6.87002e-05
0.00456165
7.44368e-05
0.00453766
8.06372e-05
0.00451231
8.73872e-05
0.00448545
9.4788e-05
0.00445693
0.000102956
0.00442657
0.00011202
0.00439415
0.000122125
0.00435944
0.000133422
0.00432216
0.000146079
0.00428201
0.000160279
0.00423864
0.000176223
0.00419164
0.000194143
0.00414058
0.000214306
0.00408494
0.000237028
0.00402414
0.000262687
0.00395749
0.000291738
0.00388422
0.000324736
0.00380341
0.000362357
0.00371399
0.000405425
0.00361471
0.000454949
0.00350413
0.000512155
0.00338053
0.000578522
0.00324194
0.000655804
0.00308612
0.000746005
0.00291057
0.000851283
0.00271262
0.000973694
0.00248965
0.00111467
0.00223947
0.00127407
0.00196096
0.00144872
0.00165498
0.00163008
0.00132572
0.00180109
0.000982406
0.00193179
0.000641697
0.00197313
0.000331236
0.00184901
9.18488e-05
0.0014541
0.000630967
0.00479398
3.79441e-05
0.00477509
4.09185e-05
0.00475569
4.40999e-05
0.00473576
4.75027e-05
0.00471526
5.11409e-05
0.00469413
5.50271e-05
0.00467235
5.91726e-05
0.00464985
6.35876e-05
0.0046266
6.82824e-05
0.00460255
7.32689e-05
0.00457763
7.85633e-05
0.0045518
8.41892e-05
0.00452497
9.01813e-05
0.00449708
9.65885e-05
0.00446804
0.000103477
0.00443775
0.000110931
0.00440608
0.000119054
0.0043729
0.000127967
0.00433805
0.000137807
0.00430134
0.00014873
0.00426256
0.000160905
0.00422147
0.000174513
0.0041778
0.000189755
0.00413123
0.000206847
0.00408142
0.000226032
0.00402797
0.000247589
0.00397044
0.000271837
0.00390831
0.000299158
0.00384099
0.000330003
0.00376781
0.000364918
0.00368799
0.000404562
0.00360061
0.000449732
0.00350464
0.000501398
0.00339886
0.000560728
0.00328188
0.000629131
0.00315213
0.000708275
0.00300784
0.000800096
0.0028471
0.000906747
0.00266793
0.00103045
0.00246849
0.00117314
0.00224731
0.00133585
0.00200379
0.00151759
0.00173881
0.00171369
0.00145558
0.00191332
0.00116035
0.00209631
0.000863286
0.00222885
0.000578739
0.00225768
0.000323877
0.00210387
0.000111985
0.001666
0.000742952
0.00478894
6.39616e-05
0.00476248
6.73802e-05
0.00473554
7.10417e-05
0.00470808
7.49612e-05
0.00468007
7.91549e-05
0.00465146
8.36375e-05
0.00462221
8.84225e-05
0.00459227
9.35224e-05
0.0045616
9.89502e-05
0.00453015
0.000104721
0.00449786
0.000110855
0.00446467
0.000117382
0.0044305
0.000124344
0.00439529
0.000131799
0.00435894
0.000139825
0.00432135
0.000148523
0.0042824
0.000158011
0.00424193
0.00016843
0.0041998
0.000179941
0.00415581
0.000192721
0.00410975
0.000206965
0.00406138
0.000222884
0.00401042
0.000240708
0.00395658
0.00026069
0.0038995
0.000283113
0.00383879
0.0003083
0.003774
0.000336627
0.00370462
0.000368537
0.00363006
0.000404559
0.00354966
0.000445324
0.00346262
0.000491596
0.00336807
0.00054429
0.00326496
0.000604508
0.00315212
0.000673565
0.00302823
0.000753017
0.00289184
0.00084467
0.00274138
0.000950554
0.0025753
0.00107283
0.00239221
0.00121353
0.00219118
0.00137417
0.00197216
0.00155487
0.00173659
0.00175317
0.00148813
0.00196216
0.00123344
0.002168
0.000982765
0.00234699
0.000749511
0.0024621
0.000547533
0.00245966
0.000381735
0.00226967
0.000231407
0.00181632
0.000974359
-2.77828e-05
2.77787e-05
4.05172e-09
-6.66719e-05
3.88808e-05
8.3128e-09
-9.0787e-05
2.41053e-05
9.86071e-09
-8.62045e-05
-4.59229e-06
9.77753e-09
-4.73715e-05
-3.88422e-05
9.20266e-09
2.7457e-05
-7.48366e-05
8.19483e-09
0.000136588
-0.000109139
7.01188e-09
0.000276666
-0.000140083
5.7902e-09
0.000443282
-0.000166621
4.59107e-09
0.00063154
-0.000188261
3.45546e-09
0.000836447
-0.000204909
2.40598e-09
0.00105317
-0.000216725
1.45489e-09
0.00127721
-0.00022404
6.11918e-10
0.0015045
-0.000227293
-1.17975e-10
0.00173148
-0.000226981
-7.37746e-10
0.00195511
-0.000223627
-1.22911e-09
0.00217286
-0.000217747
-1.57465e-09
0.0023827
-0.00020984
-1.74052e-09
0.00258307
-0.000200369
-1.66986e-09
0.00277283
-0.000189757
-1.14724e-09
0.00295121
-0.000178381
-6.54328e-10
0.00311778
-0.000166565
7.57914e-10
0.00327237
-0.000154592
1.43366e-09
0.00341506
-0.000142696
1.89756e-09
0.00354612
-0.000131064
3.01051e-09
0.00366597
-0.000119846
3.16169e-09
0.00377512
-0.000109158
3.65982e-09
0.0038742
-9.90809e-05
3.82359e-09
0.00396386
-8.9666e-05
3.65268e-09
0.0040448
-8.09397e-05
3.266e-09
0.0041177
-7.29074e-05
2.79272e-09
0.00418326
-6.5558e-05
2.34335e-09
0.00424212
-5.88674e-05
1.98771e-09
0.00429492
-5.28018e-05
1.76554e-09
0.00434224
-4.7321e-05
1.68767e-09
0.00438462
-4.23809e-05
1.74587e-09
0.00442255
-3.79355e-05
1.9233e-09
0.00445649
-3.39393e-05
2.19519e-09
0.00448684
-3.03479e-05
2.53507e-09
0.00451395
-2.71193e-05
2.91793e-09
0.00453816
-2.42146e-05
3.31758e-09
0.00455976
-2.15981e-05
3.71322e-09
0.00457899
-1.92376e-05
4.08952e-09
0.00459609
-1.71044e-05
4.43282e-09
0.00461126
-1.51731e-05
4.73686e-09
0.00462468
-1.34213e-05
5.00063e-09
0.0046365
-1.18292e-05
5.22458e-09
0.00464688
-1.03798e-05
5.41375e-09
0.00465593
-9.05774e-06
5.57454e-09
-7.84945e-06
0.00466377
5.70946e-09
-2.4139e-05
5.19178e-05
-5.53766e-05
7.01184e-05
-7.14035e-05
4.01321e-05
-6.02869e-05
-1.57088e-05
-1.62677e-05
-8.28615e-05
6.13994e-05
-0.000152504
0.00017156
-0.000219299
0.000311075
-0.000279598
0.000475797
-0.000331342
0.000661131
-0.000373595
0.000862373
-0.000406151
0.00107495
-0.000429301
0.00129458
-0.000443671
0.00151739
-0.000450101
0.00173996
-0.000449549
0.00195935
-0.000443025
0.00217314
-0.000431537
0.00237936
-0.000416054
0.00257647
-0.000397483
0.00276336
-0.000376649
0.00293927
-0.00035429
0.00310376
-0.000331049
0.00325664
-0.000307472
0.00339797
-0.00028403
0.00352801
-0.0002611
0.00364713
-0.000238969
0.00375584
-0.000217867
0.00385471
-0.000197957
0.00394439
-0.000179345
0.00402554
-0.000162083
0.00409881
-0.000146184
0.00416488
-0.000131628
0.00422439
-0.00011837
0.00427793
-0.000106343
0.00432607
-9.54691e-05
0.00436936
-8.5663e-05
0.00440826
-7.68348e-05
0.00444321
-6.88949e-05
0.00447462
-6.17561e-05
0.00450284
-5.53361e-05
0.00452818
-4.9558e-05
0.00455093
-4.43516e-05
0.00457135
-3.96535e-05
0.00458965
-3.54068e-05
0.00460604
-3.15613e-05
0.00462069
-2.80725e-05
0.00463376
-2.49016e-05
0.0046454
-2.20143e-05
0.00465572
-1.93803e-05
-1.69722e-05
0.00466484
-1.67913e-05
6.87091e-05
-3.38245e-05
8.71515e-05
-3.45061e-05
4.08138e-05
-1.08025e-05
-3.94125e-05
4.12547e-05
-0.000134919
0.000123734
-0.000234983
0.000235247
-0.000330811
0.000373042
-0.000417394
0.000533584
-0.000491884
0.000712885
-0.000552896
0.0009068
-0.000600066
0.00111125
-0.000633748
0.00132236
-0.000654787
0.00153661
-0.000664346
0.00175083
-0.000663773
0.00196231
-0.000654502
0.00216875
-0.000637973
0.00236827
-0.00061558
0.00255942
-0.000588634
0.00274111
-0.000558332
0.00291256
-0.000525748
0.00307333
-0.000491814
0.0032232
-0.000457344
0.00336218
-0.000423015
0.00349048
-0.000389393
0.00360843
-0.000356917
0.00371647
-0.000325909
0.00381513
-0.000296622
0.003905
-0.000269213
0.00398669
-0.000243768
0.00406081
-0.000220309
0.004128
-0.000198811
0.00418884
-0.00017921
0.00424391
-0.000161414
0.00429375
-0.000145311
0.00433886
-0.000130778
0.00437971
-0.000117684
0.00441672
-0.000105899
0.00445026
-9.52959e-05
0.00448068
-8.57551e-05
0.00450828
-7.71638e-05
0.00453335
-6.9419e-05
0.00455612
-6.24275e-05
0.00457682
-5.61056e-05
0.00459564
-5.03792e-05
0.00461275
-4.51827e-05
0.00462831
-4.04587e-05
0.00464245
-3.61564e-05
0.0046553
-3.22305e-05
-2.86393e-05
0.00466697
-3.65669e-06
7.23658e-05
-9.25961e-07
8.44207e-05
1.66464e-05
2.32414e-05
5.45747e-05
-7.73408e-05
0.0001174
-0.000197744
0.000205099
-0.000322682
0.000316816
-0.000442528
0.000450689
-0.000551267
0.000604099
-0.000645294
0.000773948
-0.000722746
0.000956895
-0.000783013
0.00114954
-0.000826393
0.00134858
-0.000853825
0.00155091
-0.000866678
0.00175372
-0.000866581
0.00195452
-0.0008553
0.00215118
-0.000834633
0.00234193
-0.000806335
0.00252537
-0.000772069
0.0027004
-0.000733369
0.00286627
-0.000691613
0.00302246
-0.000648008
0.00316871
-0.000603594
0.00330497
-0.000559276
0.00343136
-0.000515785
0.00354814
-0.000473698
0.00365569
-0.00043346
0.00375447
-0.000395393
0.00384497
-0.000359719
0.00392776
-0.000326553
0.00400338
-0.000295936
0.00407242
-0.000267843
0.0041354
-0.000242199
0.00419288
-0.000218889
0.00424534
-0.000197774
0.00429326
-0.000178697
0.00433707
-0.000161493
0.00437717
-0.000145996
0.00441391
-0.000132042
0.00444764
-0.000119477
0.00447863
-0.000108155
0.00450715
-9.79427e-05
0.00453344
-8.87192e-05
0.00455771
-8.03756e-05
0.00458015
-7.28152e-05
0.00460092
-6.59525e-05
0.00462017
-5.97121e-05
0.00463804
-5.40274e-05
0.00465465
-4.88386e-05
-4.4089e-05
0.0046701
1.07069e-05
6.16589e-05
3.53135e-05
5.98141e-05
7.53307e-05
-1.67758e-05
0.000131091
-0.000133101
0.000204246
-0.000270899
0.000295289
-0.000413725
0.000404335
-0.000551574
0.000530756
-0.000677689
0.000673204
-0.000787742
0.000829744
-0.000879286
0.000998035
-0.000951304
0.0011755
-0.00100385
0.00135946
-0.00103779
0.00154732
-0.00105453
0.00173658
-0.00105584
0.00192498
-0.00104371
0.00211054
-0.00102019
0.00229155
-0.000987345
0.00246661
-0.000947128
0.00263461
-0.000901369
0.00279472
-0.000851725
0.00294638
-0.00079966
0.00308922
-0.000746443
0.00322311
-0.000693163
0.00334806
-0.000640738
0.00346426
-0.00058989
0.00357196
-0.000541169
0.00367156
-0.000494992
0.00376348
-0.000451638
0.0038482
-0.000411267
0.0039262
-0.000373938
0.00399799
-0.000339636
0.00406407
-0.000308279
0.00412492
-0.000279739
0.004181
-0.000253855
0.00423275
-0.000230443
0.00428056
-0.000209306
0.00432481
-0.000190249
0.00436585
-0.000173074
0.00440397
-0.000157596
0.00443945
-0.000143641
0.00447255
-0.000131045
0.0045035
-0.000119663
0.00453249
-0.000109363
0.0045597
-0.000100026
0.00458529
-9.15474e-05
0.00460941
-8.3836e-05
0.0046322
-7.68098e-05
0.00465375
-7.03948e-05
-6.45192e-05
0.00467418
3.02941e-05
3.13648e-05
8.47085e-05
5.39973e-06
0.000145781
-7.78484e-05
0.000216753
-0.000204073
0.000296444
-0.00035059
0.000386207
-0.000503488
0.000487521
-0.000652889
0.000601358
-0.000791525
0.00072793
-0.000914314
0.000866688
-0.00101804
0.00101643
-0.00110105
0.00117548
-0.0011629
0.00134182
-0.00120413
0.00151329
-0.001226
0.00168771
-0.00123026
0.00186297
-0.00121897
0.00203713
-0.00119436
0.00220848
-0.0011587
0.00237556
-0.0011142
0.00253715
-0.00106296
0.00269231
-0.00100689
0.00284036
-0.000947707
0.00298082
-0.000886902
0.00311342
-0.000825764
0.00323806
-0.000765374
0.00335479
-0.000706617
0.00346379
-0.000650175
0.00356535
-0.000596551
0.00365981
-0.000546097
0.00374756
-0.000499021
0.00382904
-0.000455415
0.00390468
-0.000415278
0.00397494
-0.000378532
0.00404024
-0.000345041
0.00410101
-0.000314626
0.00415765
-0.000287084
0.00421054
-0.000262194
0.00426002
-0.000239729
0.00430641
-0.000219468
0.00435001
-0.000201194
0.00439108
-0.000184707
0.00442985
-0.000169819
0.00446654
-0.000156358
0.00450135
-0.000144172
0.00453445
-0.000133122
0.00456599
-0.000123085
0.00459611
-0.000113955
0.00462493
-0.000105634
0.00465257
-9.80362e-05
-9.10753e-05
0.00467913
5.81198e-05
-2.6755e-05
0.000138217
-7.46973e-05
0.0002217
-0.000161331
0.000302189
-0.000284562
0.000381449
-0.00042985
0.00046281
-0.000584849
0.000549833
-0.000739911
0.000645441
-0.000887134
0.000751537
-0.00102041
0.000868956
-0.00113546
0.000997578
-0.00122967
0.00113651
-0.00130183
0.0012843
-0.00135192
0.00143912
-0.00138082
0.00159894
-0.00139009
0.00176173
-0.00138175
0.00192549
-0.00135812
0.00208841
-0.00132162
0.00224889
-0.00127468
0.00240556
-0.00121963
0.00255731
-0.00115865
0.0027033
-0.0010937
0.00284291
-0.00102651
0.00297571
-0.000958564
0.00310147
-0.000891141
0.00322014
-0.000825281
0.00333177
-0.00076181
0.00343657
-0.000701348
0.00353479
-0.000644318
0.00362676
-0.000590991
0.00371285
-0.000541501
0.00379344
-0.000495869
0.00386893
-0.000454028
0.00393974
-0.000415842
0.00400623
-0.000381121
0.00406879
-0.000349644
0.00412777
-0.000321171
0.00418349
-0.000295451
0.00423626
-0.000272237
0.00428635
-0.000251287
0.00433402
-0.000232374
0.00437949
-0.000215288
0.00442297
-0.000199834
0.00446463
-0.000185839
0.00450466
-0.000173146
0.00454319
-0.000161614
0.00458035
-0.000151122
0.00461628
-0.000141559
0.00465107
-0.000132828
0.00468483
-0.000124834
0.00468071
-1.69484e-05
5.85039e-09
0.00469699
-1.62784e-05
6.04815e-09
0.00471263
-1.56486e-05
6.21958e-09
0.00472768
-1.50581e-05
6.37506e-09
0.00474218
-1.45048e-05
6.53317e-09
0.00475616
-1.39855e-05
6.70836e-09
0.00476965
-1.34961e-05
6.90834e-09
0.00478267
-1.30307e-05
7.13698e-09
0.00479524
-1.25817e-05
7.39476e-09
0.00480738
-1.21393e-05
7.67483e-09
0.00481906
-1.16925e-05
7.9651e-09
0.00483028
-1.12298e-05
8.25446e-09
0.00484101
-1.07408e-05
8.52713e-09
0.00485122
-1.02187e-05
8.76246e-09
0.00486088
-9.66236e-06
8.94068e-09
0.00486995
-9.0778e-06
9.04516e-09
0.00487842
-8.47865e-06
9.05926e-09
0.00488629
-7.88474e-06
8.97132e-09
0.0048936
-7.31902e-06
8.78005e-09
0.0049004
-6.80351e-06
8.49086e-09
0.00490674
-6.35522e-06
8.11353e-09
0.00491272
-5.9831e-06
7.66562e-09
0.0049184
-5.68699e-06
7.16929e-09
0.00492385
-5.45854e-06
6.64327e-09
0.00492913
-5.2838e-06
6.10357e-09
0.00493427
-5.14642e-06
5.56572e-09
0.0049393
-5.03077e-06
5.04035e-09
0.00494422
-4.92402e-06
4.53204e-09
0.00494903
-4.81713e-06
4.04438e-09
0.00495373
-4.70488e-06
3.57963e-09
0.00495831
-4.58512e-06
3.13574e-09
0.00496277
-4.45785e-06
2.71073e-09
0.00496709
-4.3243e-06
2.30512e-09
0.00497127
-4.18622e-06
1.91728e-09
0.00497532
-4.0454e-06
1.5444e-09
0.00497922
-3.90344e-06
1.18727e-09
0.00498298
-3.76165e-06
8.47269e-10
0.0049866
-3.62105e-06
5.25329e-10
0.00499008
-3.48238e-06
2.26567e-10
0.00499343
-3.34621e-06
-4.26976e-11
0.00499664
-3.2129e-06
-2.81467e-10
0.00499973
-3.08272e-06
-4.91818e-10
0.00500268
-2.95583e-06
-6.78631e-10
0.00500551
-2.83233e-06
-8.45104e-10
0.00500823
-2.71226e-06
-1.01901e-09
0.00501083
-2.59558e-06
-1.19778e-09
0.00501331
-2.48231e-06
-1.36921e-09
0.00501568
-2.37244e-06
-1.55189e-09
0.00501795
-2.2659e-06
-1.74997e-09
0.00502011
-2.16262e-06
-1.97248e-09
0.00502218
-2.06253e-06
-2.22321e-09
0.00502415
-1.96557e-06
-2.50335e-09
0.00502602
-1.8717e-06
-2.80589e-09
0.00502781
-1.78085e-06
-3.11559e-09
0.0050295
-1.69299e-06
-3.41461e-09
0.00503111
-1.60807e-06
-3.68355e-09
0.00503264
-1.52604e-06
-3.90559e-09
0.0050341
-1.44685e-06
-4.07646e-09
0.00503547
-1.37043e-06
-4.20573e-09
0.00503677
-1.29669e-06
-4.3149e-09
0.005038