/*--------------------------------*- C++ -*----------------------------------*\
| =========                 |                                                 |
| \\      /  F ield         | OpenFOAM: The Open Source CFD Toolbox           |
|  \\    /   O peration     | Version:  2412                                  |
|   \\  /    A nd           | Website:  www.openfoam.com                      |
|    \\/     M anipulation  |                                                 |
\*---------------------------------------------------------------------------*/
FoamFile
{
    version     2.0;
    format      ascii;
    arch        "LSB;label=32;scalar=64";
    class       volVectorField;
    location    "10";
    object      U;
}
// * * * * * * * * * * * * * * * * * * * * * * * * * * * * * * * * * * * * * //

dimensions      [0 1 -1 0 0 0 0];

internalField   nonuniform List<vector> 
63420
(
(0.1 4.05893e-07 0)
(0.0999952 1.14564e-06 0)
(0.0999868 2.88449e-06 0)
(0.0999633 6.61584e-06 0)
(0.0999142 1.18018e-05 0)
(0.0998366 1.66531e-05 0)
(0.0997387 1.95035e-05 0)
(0.0996348 1.98229e-05 0)
(0.0995373 1.8208e-05 0)
(0.099453 1.57481e-05 0)
(0.0993828 1.34032e-05 0)
(0.0993239 1.17147e-05 0)
(0.099272 1.08207e-05 0)
(0.0992234 1.06111e-05 0)
(0.0991754 1.08847e-05 0)
(0.0991263 1.145e-05 0)
(0.0990752 1.21665e-05 0)
(0.099022 1.29489e-05 0)
(0.0989665 1.37542e-05 0)
(0.0989089 1.45669e-05 0)
(0.0988491 1.53863e-05 0)
(0.0987873 1.62184e-05 0)
(0.0987235 1.70714e-05 0)
(0.0986576 1.79536e-05 0)
(0.0985898 1.88721e-05 0)
(0.09852 1.98332e-05 0)
(0.098448 2.08421e-05 0)
(0.0983739 2.19032e-05 0)
(0.0982975 2.30205e-05 0)
(0.0982188 2.41977e-05 0)
(0.0981377 2.5438e-05 0)
(0.0980541 2.67447e-05 0)
(0.097968 2.81211e-05 0)
(0.0978793 2.95704e-05 0)
(0.0977877 3.10959e-05 0)
(0.0976934 3.2701e-05 0)
(0.0975962 3.43892e-05 0)
(0.0974959 3.61641e-05 0)
(0.0973926 3.80297e-05 0)
(0.0972861 3.99899e-05 0)
(0.0971763 4.20489e-05 0)
(0.0970631 4.42112e-05 0)
(0.0969464 4.64816e-05 0)
(0.0968262 4.88649e-05 0)
(0.0967023 5.13665e-05 0)
(0.0965747 5.39919e-05 0)
(0.0964431 5.67473e-05 0)
(0.0963076 5.96389e-05 0)
(0.096168 6.26738e-05 0)
(0.0960242 6.58595e-05 0)
(0.095876 6.92046e-05 0)
(0.0957234 7.27194e-05 0)
(0.0955662 7.64189e-05 0)
(0.0954042 8.03328e-05 0)
(0.0952373 8.45316e-05 0)
(0.1 1.21944e-06 0)
(0.0999952 3.44061e-06 0)
(0.0999868 8.63026e-06 0)
(0.0999635 1.97549e-05 0)
(0.0999151 3.52274e-05 0)
(0.0998383 4.97273e-05 0)
(0.0997414 5.82868e-05 0)
(0.0996382 5.9312e-05 0)
(0.099541 5.45655e-05 0)
(0.0994567 4.72832e-05 0)
(0.0993863 4.0324e-05 0)
(0.0993269 3.53049e-05 0)
(0.0992745 3.26431e-05 0)
(0.0992255 3.20157e-05 0)
(0.0991771 3.28275e-05 0)
(0.0991278 3.45102e-05 0)
(0.0990766 3.66463e-05 0)
(0.0990232 3.89813e-05 0)
(0.0989677 4.13876e-05 0)
(0.09891 4.38182e-05 0)
(0.0988502 4.62708e-05 0)
(0.0987884 4.87629e-05 0)
(0.0987246 5.13188e-05 0)
(0.0986589 5.39625e-05 0)
(0.0985911 5.67155e-05 0)
(0.0985213 5.95963e-05 0)
(0.0984494 6.26203e-05 0)
(0.0983754 6.58008e-05 0)
(0.0982991 6.91497e-05 0)
(0.0982205 7.26777e-05 0)
(0.0981396 7.63947e-05 0)
(0.0980561 8.03106e-05 0)
(0.0979701 8.4435e-05 0)
(0.0978815 8.87774e-05 0)
(0.0977901 9.33479e-05 0)
(0.0976959 9.81564e-05 0)
(0.0975989 0.000103214 0)
(0.0974988 0.00010853 0)
(0.0973956 0.000114118 0)
(0.0972893 0.000119989 0)
(0.0971797 0.000126156 0)
(0.0970667 0.000132631 0)
(0.0969503 0.00013943 0)
(0.0968304 0.000146567 0)
(0.0967068 0.000154057 0)
(0.0965794 0.000161918 0)
(0.0964482 0.000170167 0)
(0.096313 0.000178823 0)
(0.0961737 0.000187908 0)
(0.0960303 0.000197443 0)
(0.0958825 0.000207454 0)
(0.0957303 0.000217972 0)
(0.0955736 0.000229041 0)
(0.0954122 0.000240748 0)
(0.0952458 0.000253298 0)
(0.1 2.03596e-06 0)
(0.0999951 5.74011e-06 0)
(0.0999868 1.4312e-05 0)
(0.0999639 3.26652e-05 0)
(0.0999167 5.82346e-05 0)
(0.0998417 8.22786e-05 0)
(0.0997466 9.65884e-05 0)
(0.0996448 9.84846e-05 0)
(0.0995484 9.08237e-05 0)
(0.0994641 7.89149e-05 0)
(0.099393 6.74736e-05 0)
(0.0993328 5.91841e-05 0)
(0.0992795 5.47566e-05 0)
(0.0992296 5.36773e-05 0)
(0.0991806 5.4977e-05 0)
(0.0991307 5.77241e-05 0)
(0.0990791 6.12317e-05 0)
(0.0990256 6.50796e-05 0)
(0.0989699 6.90549e-05 0)
(0.0989121 7.30788e-05 0)
(0.0988524 7.71453e-05 0)
(0.0987906 8.12823e-05 0)
(0.0987269 8.55287e-05 0)
(0.0986613 8.99236e-05 0)
(0.0985937 9.45021e-05 0)
(0.098524 9.92941e-05 0)
(0.0984523 0.000104325 0)
(0.0983784 0.000109617 0)
(0.0983023 0.000115189 0)
(0.098224 0.00012106 0)
(0.0981432 0.000127245 0)
(0.09806 0.00013376 0)
(0.0979743 0.000140622 0)
(0.0978859 0.000147847 0)
(0.0977948 0.00015545 0)
(0.0977009 0.00016345 0)
(0.0976042 0.000171862 0)
(0.0975045 0.000180705 0)
(0.0974017 0.000189999 0)
(0.0972957 0.000199762 0)
(0.0971866 0.000210017 0)
(0.0970741 0.000220784 0)
(0.0969581 0.000232088 0)
(0.0968387 0.000243952 0)
(0.0967156 0.000256402 0)
(0.0965888 0.000269467 0)
(0.0964582 0.000283176 0)
(0.0963237 0.00029756 0)
(0.0961851 0.000312652 0)
(0.0960425 0.000328491 0)
(0.0958955 0.000345117 0)
(0.0957442 0.00036258 0)
(0.0955884 0.000380951 0)
(0.095428 0.000400367 0)
(0.0952628 0.000421154 0)
(0.1 2.85719e-06 0)
(0.0999951 8.04675e-06 0)
(0.0999867 1.98905e-05 0)
(0.0999645 4.52079e-05 0)
(0.099919 8.05684e-05 0)
(0.0998466 0.000113988 0)
(0.0997541 0.000134113 0)
(0.0996544 0.000137145 0)
(0.0995589 0.000126919 0)
(0.0994746 0.000110699 0)
(0.0994027 9.49888e-05 0)
(0.0993413 8.35263e-05 0)
(0.0992867 7.73371e-05 0)
(0.0992357 7.57515e-05 0)
(0.0991856 7.74581e-05 0)
(0.099135 8.11844e-05 0)
(0.0990829 8.59864e-05 0)
(0.099029 9.12824e-05 0)
(0.0989732 9.67754e-05 0)
(0.0989154 0.000102352 0)
(0.0988556 0.000108002 0)
(0.0987939 0.000113759 0)
(0.0987304 0.000119676 0)
(0.0986649 0.000125805 0)
(0.0985975 0.000132194 0)
(0.098528 0.000138883 0)
(0.0984566 0.000145908 0)
(0.098383 0.000153298 0)
(0.0983072 0.00016108 0)
(0.0982291 0.000169279 0)
(0.0981487 0.000177917 0)
(0.0980658 0.000187016 0)
(0.0979805 0.000196599 0)
(0.0978925 0.000206688 0)
(0.0978018 0.000217305 0)
(0.0977084 0.000228473 0)
(0.0976122 0.000240217 0)
(0.097513 0.000252562 0)
(0.0974107 0.000265533 0)
(0.0973054 0.000279159 0)
(0.0971968 0.000293469 0)
(0.097085 0.000308492 0)
(0.0969698 0.000324262 0)
(0.0968511 0.000340811 0)
(0.0967288 0.000358175 0)
(0.0966029 0.000376393 0)
(0.0964732 0.000395505 0)
(0.0963397 0.000415554 0)
(0.0962022 0.000436586 0)
(0.0960606 0.000458652 0)
(0.0959149 0.000481807 0)
(0.0957649 0.000506119 0)
(0.0956105 0.000531682 0)
(0.0954517 0.000558671 0)
(0.0952881 0.000587506 0)
(0.1 3.68451e-06 0)
(0.099995 1.03626e-05 0)
(0.0999867 2.53323e-05 0)
(0.0999653 5.72635e-05 0)
(0.0999219 0.000102009 0)
(0.0998526 0.000144577 0)
(0.0997635 0.000170602 0)
(0.0996664 0.00017512 0)
(0.0995722 0.00016279 0)
(0.0994879 0.000142678 0)
(0.099415 0.000122983 0)
(0.099352 0.000108478 0)
(0.0992958 0.000100534 0)
(0.0992433 9.83709e-05 0)
(0.0991921 0.000100378 0)
(0.0991405 0.00010497 0)
(0.0990878 0.000110964 0)
(0.0990335 0.000117622 0)
(0.0989775 0.000124563 0)
(0.0989196 0.000131639 0)
(0.0988598 0.000138829 0)
(0.0987983 0.000146173 0)
(0.0987349 0.000153733 0)
(0.0986696 0.000161574 0)
(0.0986024 0.000169752 0)
(0.0985333 0.00017832 0)
(0.0984622 0.00018732 0)
(0.0983889 0.00019679 0)
(0.0983135 0.000206764 0)
(0.0982358 0.000217271 0)
(0.0981559 0.000228341 0)
(0.0980735 0.000240003 0)
(0.0979886 0.000252283 0)
(0.0979012 0.00026521 0)
(0.0978111 0.000278812 0)
(0.0977183 0.00029312 0)
(0.0976227 0.000308163 0)
(0.0975242 0.000323974 0)
(0.0974227 0.000340585 0)
(0.0973181 0.000358033 0)
(0.0972104 0.000376352 0)
(0.0970994 0.000395582 0)
(0.0969852 0.000415763 0)
(0.0968675 0.000436937 0)
(0.0967463 0.00045915 0)
(0.0966215 0.00048245 0)
(0.0964931 0.000506887 0)
(0.0963608 0.000532515 0)
(0.0962247 0.000559392 0)
(0.0960847 0.000587581 0)
(0.0959406 0.000617149 0)
(0.0957923 0.000648178 0)
(0.0956398 0.000680779 0)
(0.0954829 0.000715154 0)
(0.0953215 0.000751775 0)
(0.1 4.51894e-06 0)
(0.099995 1.2689e-05 0)
(0.0999867 3.06111e-05 0)
(0.0999662 6.87382e-05 0)
(0.0999252 0.000122383 0)
(0.0998596 0.000173827 0)
(0.0997744 0.000205848 0)
(0.0996802 0.000212265 0)
(0.0995876 0.000198381 0)
(0.0995032 0.000174878 0)
(0.0994293 0.00015154 0)
(0.0993646 0.000134152 0)
(0.0993066 0.000124463 0)
(0.0992523 0.000121639 0)
(0.0991997 0.000123819 0)
(0.0991471 0.000129142 0)
(0.0990937 0.000136204 0)
(0.0990389 0.00014412 0)
(0.0989826 0.000152427 0)
(0.0989246 0.000160937 0)
(0.098865 0.000169615 0)
(0.0988036 0.000178505 0)
(0.0987404 0.000187674 0)
(0.0986754 0.000197197 0)
(0.0986085 0.000207139 0)
(0.0985398 0.000217562 0)
(0.098469 0.000228514 0)
(0.0983962 0.00024004 0)
(0.0983213 0.000252181 0)
(0.0982442 0.000264972 0)
(0.0981647 0.000278448 0)
(0.0980829 0.000292643 0)
(0.0979987 0.000307591 0)
(0.0979119 0.000323324 0)
(0.0978226 0.000339877 0)
(0.0977305 0.000357286 0)
(0.0976357 0.000375587 0)
(0.097538 0.000394819 0)
(0.0974375 0.000415022 0)
(0.0973339 0.000436237 0)
(0.0972272 0.000458508 0)
(0.0971173 0.000481881 0)
(0.0970042 0.000506404 0)
(0.0968878 0.000532129 0)
(0.0967679 0.000559109 0)
(0.0966446 0.000587401 0)
(0.0965176 0.000617064 0)
(0.096387 0.000648163 0)
(0.0962527 0.000680766 0)
(0.0961144 0.000714944 0)
(0.0959723 0.000750778 0)
(0.0958262 0.000788358 0)
(0.0956759 0.000827806 0)
(0.0955215 0.000869329 0)
(0.0953628 0.000913402 0)
(0.1 5.36104e-06 0)
(0.0999949 1.50258e-05 0)
(0.0999866 3.57098e-05 0)
(0.0999672 7.95685e-05 0)
(0.0999288 0.00014157 0)
(0.0998671 0.000201582 0)
(0.0997861 0.000239698 0)
(0.0996952 0.000248469 0)
(0.0996043 0.000233642 0)
(0.09952 0.000207306 0)
(0.0994449 0.000180709 0)
(0.0993785 0.000160618 0)
(0.0993184 0.000149199 0)
(0.0992624 0.000145623 0)
(0.0992082 0.000147836 0)
(0.0991545 0.000153741 0)
(0.0991004 0.000161733 0)
(0.0990451 0.00017079 0)
(0.0989886 0.000180368 0)
(0.0989305 0.000190236 0)
(0.0988709 0.000200344 0)
(0.0988097 0.000210731 0)
(0.0987468 0.00022147 0)
(0.0986822 0.000232641 0)
(0.0986157 0.000244317 0)
(0.0985474 0.000256564 0)
(0.0984771 0.000269441 0)
(0.0984049 0.000282996 0)
(0.0983305 0.000297275 0)
(0.098254 0.000312319 0)
(0.0981752 0.00032817 0)
(0.0980941 0.000344865 0)
(0.0980106 0.000362443 0)
(0.0979246 0.000380942 0)
(0.0978361 0.000400404 0)
(0.097745 0.000420868 0)
(0.0976511 0.000442377 0)
(0.0975545 0.000464976 0)
(0.097455 0.000488711 0)
(0.0973525 0.000513629 0)
(0.0972471 0.000539782 0)
(0.0971385 0.000567222 0)
(0.0970268 0.000596006 0)
(0.0969119 0.00062619 0)
(0.0967936 0.000657838 0)
(0.0966719 0.000691014 0)
(0.0965468 0.000725785 0)
(0.0964181 0.000762226 0)
(0.0962858 0.000800411 0)
(0.0961497 0.000840423 0)
(0.0960099 0.000882349 0)
(0.0958663 0.000926286 0)
(0.0957187 0.000972355 0)
(0.0955672 0.00102074 0)
(0.0954117 0.00107183 0)
(0.0950644 8.92183e-05 -4.73152e-24)
(0.0948837 9.41913e-05 -4.82004e-24)
(0.0946934 9.95027e-05 -3.2153e-26)
(0.0944929 0.000105167 1.47971e-23)
(0.0942814 0.000111275 -4.90218e-24)
(0.0940582 0.000117797 -5.04082e-24)
(0.0938226 0.000124737 -1.55098e-23)
(0.0935738 0.00013211 1.54025e-23)
(0.093311 0.00013993 5.26659e-24)
(0.0930334 0.000148207 0)
(0.0927402 0.000156962 5.43643e-24)
(0.0924305 0.000166223 -5.52792e-24)
(0.0921034 0.00017604 4.54462e-23)
(0.0917578 0.000186488 -9.73809e-23)
(0.0913926 0.00019767 5.20403e-23)
(0.0910064 0.000209727 4.21406e-23)
(0.0905974 0.000222832 5.40753e-23)
(0.0901636 0.000237191 -6.18965e-24)
(0.0897025 0.000253041 6.32262e-24)
(0.0892113 0.000270651 -6.46342e-24)
(0.0886866 0.000290313 0)
(0.0881242 0.000312341 6.77116e-24)
(0.0875198 0.000337075 -6.93957e-24)
(0.0868681 0.000364881 0)
(0.0861634 0.000396165 -7.30971e-24)
(0.0853989 0.000431386 0)
(0.0845672 0.000471074 -7.73103e-24)
(0.0836599 0.000515855 -1.29569e-22)
(0.0826672 0.000566483 1.37585e-22)
(0.0815781 0.000623874 -1.38165e-22)
(0.0803797 0.000689152 1.37954e-22)
(0.0790568 0.000763707 0)
(0.0775916 0.000849261 0)
(0.075963 0.000947956 1.6941e-22)
(0.0741457 0.00106245 -1.594e-22)
(0.072109 0.00119604 0)
(0.0698161 0.00135274 0)
(0.0672223 0.00153731 0)
(0.0642741 0.0017552 0)
(0.0609077 0.00201208 0)
(0.0570497 0.00231287 0)
(0.0526194 0.00265988 0)
(0.0475355 0.00304945 0)
(0.0417298 0.00346664 0)
(0.035174 0.00387726 -1.58949e-23)
(0.0279227 0.00421644 -5.46859e-22)
(0.0201613 0.00437491 5.46039e-22)
(0.0122873 0.00418458 5.94249e-22)
(0.00527692 0.00338724 -5.93357e-22)
(0.00107956 0.00158154 0)
(0.0950734 0.0002673 -4.78454e-24)
(0.094893 0.00028217 -9.75169e-24)
(0.094703 0.000298077 -5.10425e-24)
(0.0945028 0.000315114 4.76488e-24)
(0.0942918 0.00033337 -4.96817e-24)
(0.0940691 0.000352857 3.55786e-23)
(0.093834 0.000373612 -5.58749e-23)
(0.0935858 0.000395674 5.18649e-24)
(0.0933237 0.000419079 6.91782e-23)
(0.0930468 0.000443864 -9.55462e-23)
(0.0927543 0.000470085 -9.32318e-23)
(0.0924454 0.000497836 8.21526e-23)
(0.0921191 0.000527263 0)
(0.0917743 0.00055859 5.7312e-24)
(0.0914099 0.000592134 -1.75087e-23)
(0.0910245 0.000628313 -1.98454e-22)
(0.0906163 0.000667644 1.90398e-22)
(0.0901833 0.000710742 -2.02399e-22)
(0.0897231 0.000758316 -1.89957e-23)
(0.0892328 0.000811167 6.4776e-24)
(0.088709 0.000870171 0)
(0.0881479 0.000936267 -6.7887e-24)
(0.087545 0.00101047 -2.18711e-22)
(0.0868951 0.00109387 4.57021e-22)
(0.0861926 0.00118768 2.52052e-22)
(0.0854309 0.00129329 -4.75427e-22)
(0.0846027 0.00141227 5.11986e-22)
(0.0836998 0.0015465 -5.19523e-22)
(0.0827126 0.00169825 -8.24565e-24)
(0.0816302 0.00187025 0)
(0.0804401 0.00206586 0)
(0.0791276 0.00228923 0)
(0.0776754 0.0025455 0)
(0.076063 0.00284105 -9.81539e-24)
(0.074266 0.00318379 -6.6638e-22)
(0.0722553 0.0035835 -2.87849e-23)
(0.0699955 0.00405205 6.93359e-22)
(0.0674443 0.00460358 7.56773e-22)
(0.0645508 0.00525407 -7.55771e-22)
(0.0612549 0.00602014 -2.5155e-23)
(0.0574871 0.00691604 -2.63186e-23)
(0.0531704 0.007948 -9.09872e-22)
(0.0482262 0.00910433 8.79874e-22)
(0.0425858 0.0103396 -3.00671e-23)
(0.0362131 0.0115511 1.60061e-23)
(0.0291418 0.0125452 -1.11188e-21)
(0.0215183 0.0129964 1.11152e-21)
(0.0136722 0.0124055 -2.32262e-21)
(0.0064458 0.0100154 2.28379e-21)
(0.0015561 0.0046429 -2.34027e-21)
(0.0950912 0.000444333 -2.83133e-23)
(0.0949114 0.000469031 -9.91851e-24)
(0.0947221 0.000495469 3.83014e-23)
(0.0945227 0.000523786 -7.87205e-23)
(0.0943125 0.000554043 1.68408e-22)
(0.0940908 0.000586343 -7.97611e-23)
(0.0938568 0.000620766 1.43206e-26)
(0.0936098 0.000657375 1.03451e-23)
(0.093349 0.000696229 1.80265e-22)
(0.0930736 0.000737394 -1.69567e-22)
(0.0927826 0.00078097 0)
(0.0924753 0.000827117 1.47881e-26)
(0.0921507 0.000876084 0)
(0.0918076 0.000928249 1.96835e-22)
(0.0914449 0.000984139 -1.73503e-22)
(0.0910611 0.00104445 -3.73756e-22)
(0.0906546 0.00111004 2.06175e-23)
(0.0902234 0.00118192 -3.93392e-22)
(0.089765 0.00126127 1.27108e-23)
(0.0892767 0.00134941 -4.20952e-22)
(0.0887552 0.00144779 4.33846e-22)
(0.0881967 0.00155796 -4.41877e-22)
(0.0875969 0.00168159 4.55423e-22)
(0.0869509 0.00182051 1.43307e-23)
(0.0862532 0.00197673 -1.47218e-23)
(0.0854975 0.00215252 1.51384e-23)
(0.0846767 0.00235054 -5.07069e-22)
(0.0837829 0.0025739 5.22679e-22)
(0.0828069 0.00282635 5.56306e-22)
(0.0817385 0.00311242 -5.39232e-22)
(0.0805655 0.0034377 0)
(0.0792742 0.00380902 0)
(0.0778483 0.00423485 1.89746e-23)
(0.0762689 0.00472569 1.30862e-21)
(0.0745135 0.00529448 3.24247e-23)
(0.0725553 0.00595717 -1.31805e-21)
(0.0703626 0.00673307 0)
(0.0678973 0.007645 -2.30924e-23)
(0.0651143 0.00871859 1.61128e-21)
(0.0619604 0.0099801 -3.21927e-21)
(0.0583738 0.0114515 3.41836e-21)
(0.0542854 0.0131408 1.0649e-22)
(0.0496217 0.0150261 -1.78086e-21)
(0.0443128 0.0170298 -1.93528e-21)
(0.0383067 0.0189804 1.99447e-21)
(0.0315943 0.0205594 1.54787e-24)
(0.0242419 0.0212324 -3.40346e-23)
(0.0164458 0.02018 2.24239e-21)
(0.00876563 0.0161971 -2.17139e-21)
(0.00247213 0.00743964 -2.17131e-21)
(0.0951179 0.000619635 1.86592e-23)
(0.0949389 0.000654007 -9.46431e-24)
(0.0947506 0.000690787 1.96712e-26)
(0.0945523 0.000730123 9.72995e-24)
(0.0943434 0.000772166 -1.97672e-26)
(0.0941232 0.000817057 1.61472e-22)
(0.0938909 0.000864911 -3.0506e-22)
(0.0936458 0.000915823 1.63917e-22)
(0.0933871 0.000969883 -1.04877e-23)
(0.0931139 0.0010272 1.9372e-22)
(0.0928253 0.00108791 -1.72309e-22)
(0.0925205 0.00115226 -3.57303e-22)
(0.0921985 0.00122061 7.21304e-22)
(0.0918581 0.00129349 -7.35232e-22)
(0.0914981 0.00137163 7.49849e-22)
(0.0911171 0.00145602 -7.53327e-22)
(0.0907134 0.00154783 -3.98741e-22)
(0.0902851 0.00164848 2.27123e-26)
(0.0898298 0.00175959 0)
(0.0893449 0.00188298 -4.09956e-22)
(0.0888273 0.00202066 4.22829e-22)
(0.0882734 0.00217477 0)
(0.087679 0.00234762 -9.12582e-22)
(0.0870395 0.00254176 8.97778e-22)
(0.0863498 0.00275997 1.48619e-23)
(0.0856038 0.00300544 -3.59308e-26)
(0.0847949 0.00328184 1.57097e-23)
(0.0839157 0.00359353 0)
(0.0829576 0.00394571 -5.15401e-26)
(0.081911 0.00434468 0)
(0.0807649 0.00479817 -1.78482e-23)
(0.0795068 0.00531562 1.20749e-21)
(0.0781219 0.00590868 -1.20716e-21)
(0.0765936 0.00659172 -1.99828e-23)
(0.074902 0.0073824 4.13978e-23)
(0.0730245 0.00830232 -1.42896e-21)
(0.0709342 0.00937751 1.38454e-21)
(0.0685999 0.0106384 2.34917e-23)
(0.0659848 0.0121188 -3.6384e-25)
(0.0630461 0.0138525 2.51374e-23)
(0.0597337 0.0158664 -1.73011e-21)
(0.0559899 0.0181675 3.50075e-21)
(0.0517491 0.0207201 -1.82656e-21)
(0.0469393 0.0234121 1.89602e-21)
(0.0414844 0.0260042 -1.98494e-21)
(0.0353108 0.028061 -3.95408e-21)
(0.0283588 0.0288583 8.06808e-21)
(0.0206242 0.0272755 -4.08511e-21)
(0.0122852 0.0217001 0)
(0.00383353 0.00985099 -3.83479e-21)
(0.0951531 0.000792523 -9.25499e-24)
(0.0949752 0.000836313 -3.77845e-23)
(0.0947883 0.000883145 1.14511e-22)
(0.0945916 0.000933229 -1.5457e-22)
(0.0943845 0.000986767 6.80659e-23)
(0.0941663 0.00104394 9.97466e-24)
(0.0939364 0.0011049 -1.01373e-23)
(0.0936939 0.00116978 -2.48749e-26)
(0.093438 0.00123872 1.04857e-23)
(0.0931678 0.00131185 -2.132e-23)
(0.0928826 0.0013894 -3.50621e-22)
(0.0925813 0.00147168 3.61853e-22)
(0.092263 0.00155916 -3.53166e-22)
(0.0919264 0.00165254 3.64569e-22)
(0.0915704 0.00175277 0)
(0.0911935 0.00186108 -2.53515e-26)
(0.0907941 0.001979 0)
(0.0903703 0.00210829 -3.93256e-22)
(0.0899199 0.00225102 4.18809e-22)
(0.0894404 0.00240949 -1.31564e-23)
(0.0889289 0.00258622 -8.86649e-22)
(0.088382 0.00278392 8.7356e-22)
(0.0877959 0.00300553 -1.42058e-23)
(0.0871663 0.00325426 0)
(0.0864884 0.00353367 0)
(0.0857568 0.00384781 -1.01851e-21)
(0.0849653 0.00420136 9.87566e-22)
(0.0841072 0.00459987 0)
(0.0831747 0.00504996 -3.38996e-23)
(0.0821594 0.00555961 0)
(0.0810514 0.00613858 1.81613e-23)
(0.0798399 0.00679877 -1.8731e-23)
(0.0785124 0.00755474 -1.9514e-23)
(0.0770551 0.00842438 2.01331e-23)
(0.0754521 0.00942952 1.32631e-21)
(0.0736857 0.0105967 -1.36887e-21)
(0.0717359 0.0119574 2.98217e-21)
(0.0695802 0.0135483 -2.98413e-21)
(0.0671933 0.0154092 3.1764e-21)
(0.0645459 0.0175789 9.67228e-23)
(0.0616035 0.020086 -3.35269e-21)
(0.0583237 0.0229324 -2.68614e-23)
(0.0546517 0.0260662 1.31113e-24)
(0.0505133 0.0293398 1.7484e-24)
(0.0458033 0.0324508 2.32419e-24)
(0.0403661 0.0348629 -5.84733e-23)
(0.0339739 0.0356956 -2.68219e-23)
(0.0263411 0.0335711 -2.54542e-23)
(0.0171495 0.0264866 0)
(0.00566541 0.0118679 8.05968e-24)
(0.0951966 0.000962354 -4.59268e-23)
(0.0950202 0.00101532 2.76265e-23)
(0.094835 0.00107197 9.44562e-24)
(0.0946404 0.00113257 1.4491e-22)
(0.0944357 0.00119737 -1.44969e-22)
(0.0942202 0.00126659 1.4985e-22)
(0.0939933 0.00134043 -3.32568e-22)
(0.0937542 0.00141908 4.73245e-22)
(0.093502 0.0015027 -3.31444e-22)
(0.0932359 0.0015915 -3.43552e-22)
(0.0929551 0.00168576 -1.71049e-23)
(0.0926585 0.0017859 6.97243e-22)
(0.092345 0.00189252 -7.34156e-22)
(0.0920137 0.00200648 3.42364e-22)
(0.0916631 0.00212896 3.69209e-22)
(0.091292 0.00226146 3.85721e-22)
(0.0908988 0.00240583 -2.94749e-23)
(0.0904815 0.00256421 7.86154e-22)
(0.0900383 0.00273908 8.11429e-22)
(0.0895667 0.0029332 2.03192e-23)
(0.0890641 0.0031496 -8.60072e-22)
(0.0885275 0.00339154 0)
(0.0879535 0.00366257 0)
(0.0873381 0.00396655 -9.58405e-22)
(0.086677 0.00430781 9.44639e-22)
(0.0859655 0.00469126 1.01773e-21)
(0.0851982 0.00512261 -1.01924e-21)
(0.084369 0.00560858 0)
(0.0834715 0.00615718 1.13865e-21)
(0.0824983 0.00677807 -1.14086e-21)
(0.0814415 0.00748296 0)
(0.0802921 0.00828603 -2.47248e-21)
(0.0790407 0.00920455 2.49537e-21)
(0.0776769 0.0102595 -2.06411e-23)
(0.0761897 0.0114761 -2.76535e-21)
(0.0745677 0.0128845 2.791e-21)
(0.0727993 0.0145202 0)
(0.070873 0.0164229 3.14456e-21)
(0.0687773 0.0186344 -3.1252e-21)
(0.0665002 0.0211926 2.53935e-23)
(0.0640268 0.0241203 3.46657e-21)
(0.0613346 0.0274056 -6.96165e-21)
(0.058384 0.0309709 1.37854e-23)
(0.0551024 0.0346267 3.34899e-23)
(0.0513565 0.0380096 3.62662e-21)
(0.0469059 0.0405028 4.04717e-24)
(0.0413358 0.0411229 -3.10971e-21)
(0.0340004 0.0383391 3.18788e-21)
(0.0238352 0.0299287 0)
(0.00823527 0.0131843 2.78859e-23)
(0.0952482 0.00112833 9.04718e-24)
(0.0950738 0.00118993 8.33022e-23)
(0.094891 0.00125589 -7.42868e-23)
(0.0946991 0.00132651 9.52969e-24)
(0.0944975 0.00140207 1.46404e-22)
(0.0942856 0.00148284 -1.4664e-22)
(0.0940626 0.00156908 -3.13892e-22)
(0.0938277 0.001661 4.83096e-24)
(0.0935803 0.00175884 -5.69257e-24)
(0.0933194 0.00186288 3.48323e-22)
(0.0930442 0.00197346 -3.39955e-22)
(0.0927536 0.00209112 7.21237e-22)
(0.0924467 0.00221661 -3.59306e-22)
(0.0921223 0.00235098 1.1607e-23)
(0.0917792 0.00249564 1.18735e-23)
(0.091416 0.00265238 7.85027e-22)
(0.0910313 0.00282338 -4.88905e-24)
(0.0906234 0.00301117 8.19207e-22)
(0.0901904 0.00321863 1.30881e-23)
(0.0897303 0.00344902 0)
(0.0892407 0.00370586 0)
(0.0887188 0.00399298 -9.18507e-22)
(0.0881619 0.00431454 9.20828e-22)
(0.0875665 0.00467511 0)
(0.0869289 0.00507982 1.54903e-23)
(0.0862451 0.00553451 0)
(0.0855108 0.00604598 -1.07012e-21)
(0.0847209 0.00662222 2.17894e-21)
(0.0838704 0.00727277 -1.10889e-21)
(0.0829535 0.00800907 -2.35153e-21)
(0.0819644 0.0088449 -7.99755e-23)
(0.0808969 0.00979685 -8.46571e-23)
(0.0797447 0.0108849 -8.93108e-23)
(0.0785019 0.012133 2.64806e-21)
(0.0771629 0.0135696 2.846e-21)
(0.0757236 0.0152276 -2.85277e-21)
(0.0741815 0.0171445 0)
(0.0725371 0.0193601 3.16891e-21)
(0.0707938 0.0219125 -3.17626e-21)
(0.0689578 0.0248298 -3.38456e-21)
(0.0670357 0.0281153 3.36593e-21)
(0.0650272 0.0317237 2.7585e-23)
(0.0629126 0.0355262 3.40205e-21)
(0.0606285 0.0392632 -1.07259e-22)
(0.058029 0.0424861 -3.36484e-21)
(0.0548166 0.0444982 2.56828e-23)
(0.0504425 0.0442856 0)
(0.0439871 0.040379 -2.03026e-23)
(0.0334708 0.0307756 -9.14041e-22)
(0.0132836 0.0131209 4.62055e-22)
(-0.000246885 0.000289888 0)
(-0.000882192 0.000407084 2.93248e-22)
(-0.00151577 0.000253632 -2.93688e-22)
(-0.00172933 -3.71852e-05 -2.7764e-22)
(-0.00133974 -0.000393938 2.78057e-22)
(-0.00029535 -0.000764293 -8.08037e-24)
(0.00139714 -0.00111679 0)
(0.00369068 -0.00143433 0)
(0.00651548 -0.00170651 0)
(0.0097881 -0.0019285 0)
(0.0134197 -0.00209945 0)
(0.0173222 -0.00222114 0)
(0.0214114 -0.00229708 0)
(0.0256101 -0.00233186 0)
(0.0298489 -0.00233061 0)
(0.0340677 -0.0022987 2.69046e-23)
(0.0382151 -0.00224142 -2.54287e-23)
(0.0422492 -0.00216382 0)
(0.0461364 -0.00207061 0)
(0.0498509 -0.00196603 -8.05662e-24)
(0.0533744 -0.00185385 8.06893e-24)
(0.0566949 -0.00173735 -2.81019e-24)
(0.0598058 -0.00161931 1.52601e-25)
(0.0627053 -0.00150204 0)
(0.0653953 -0.00138741 -6.67261e-27)
(0.0678817 -0.00127691 0)
(0.070172 -0.00117168 0)
(0.0722756 -0.00107252 0)
(0.0742039 -0.000979924 -1.08311e-25)
(0.0759685 -0.000894142 0)
(0.0775816 -0.00081523 1.02595e-25)
(0.0790555 -0.000743072 -9.29489e-26)
(0.0804021 -0.000677427 8.05751e-26)
(0.0816329 -0.000617958 -5.73604e-25)
(0.0827586 -0.000564264 5.59301e-25)
(0.0837896 -0.000515905 2.17323e-25)
(0.084735 -0.000472427 -3.60859e-25)
(0.0856034 -0.000433376 1.27881e-25)
(0.0864025 -0.000398312 -9.27529e-27)
(0.0871393 -0.000366819 2.31571e-26)
(0.0878201 -0.00033851 0)
(0.0884503 -0.000313034 4.85167e-26)
(0.0890349 -0.000290071 -3.14444e-25)
(0.0895784 -0.000269338 3.25396e-25)
(0.0900846 -0.000250584 -8.01997e-26)
(0.0905571 -0.000233587 2.73156e-25)
(0.0909988 -0.000218156 -8.70871e-26)
(0.0914126 -0.000204118 -2.11693e-25)
(0.091801 -0.000191327 1.07215e-25)
(0.0921661 -0.000179648 -1.17407e-25)
(-0.000288628 0.000831221 -1.14642e-21)
(-0.000893147 0.00113539 -1.22802e-21)
(-0.00132136 0.000672937 1.21013e-21)
(-0.0012791 -0.000184332 -5.50614e-22)
(-0.000638334 -0.00123523 5.52201e-22)
(0.000634035 -0.00231998 8.13632e-24)
(0.00251309 -0.0033558 -1.54905e-23)
(0.0049463 -0.00428983 -4.38551e-22)
(0.00786615 -0.00509068 4.2492e-22)
(0.0111927 -0.00574421 -1.14073e-23)
(0.0148422 -0.00624778 -1.00033e-23)
(0.0187321 -0.00660645 2.49276e-22)
(0.0227839 -0.00683035 -2.49608e-22)
(0.0269259 -0.00693286 -1.73937e-22)
(0.0310939 -0.00692902 3.25588e-23)
(0.035232 -0.00683456 1.418e-22)
(0.0392928 -0.00666505 -1.52432e-24)
(0.0432375 -0.00643537 -2.54479e-24)
(0.0470352 -0.00615934 0)
(0.0506622 -0.00584952 0)
(0.0541017 -0.00551706 0)
(0.0573429 -0.00517164 -2.75616e-25)
(0.0603802 -0.00482147 7.42888e-24)
(0.0632115 -0.00447349 -8.23915e-24)
(0.0658398 -0.00413328 -9.98852e-25)
(0.0682706 -0.00380519 -7.79197e-25)
(0.0705113 -0.00349261 4.38692e-24)
(0.072571 -0.00319792 -2.60192e-24)
(0.0744607 -0.00292264 1.08591e-25)
(0.0761917 -0.00266753 1.69035e-25)
(0.0777756 -0.00243277 -1.02819e-25)
(0.0792243 -0.00221802 2.42344e-25)
(0.0805492 -0.00202257 -2.14322e-24)
(0.0817613 -0.00184544 4.00375e-24)
(0.0828711 -0.00168544 -1.71903e-24)
(0.0838883 -0.00154129 8.553e-26)
(0.084822 -0.00141164 -2.04476e-26)
(0.0856804 -0.00129515 0)
(0.0864709 -0.00119051 -3.22861e-25)
(0.0872003 -0.0010965 2.75443e-25)
(0.0878746 -0.00101198 6.23723e-25)
(0.0884992 -0.000935889 -8.65598e-25)
(0.0890789 -0.000867292 5.99105e-26)
(0.0896181 -0.000805345 3.92915e-25)
(0.0901205 -0.000749301 -7.01383e-25)
(0.0905896 -0.000698503 -8.9034e-26)
(0.0910284 -0.000652376 -7.04396e-25)
(0.0914395 -0.000610412 -1.37045e-25)
(0.0918254 -0.000572167 2.05371e-25)
(0.0921884 -0.00053724 3.47294e-25)
(-0.000363539 0.00125029 -1.21728e-21)
(-0.000884253 0.00161262 1.29951e-21)
(-0.000888977 0.000840275 -1.26065e-21)
(-0.000350601 -0.000541971 -1.87859e-23)
(0.00077203 -0.00221317 -6.8386e-25)
(0.00247524 -0.0039448 -1.0412e-21)
(0.00469767 -0.00560347 1.07544e-21)
(0.00738719 -0.00709995 9.04569e-22)
(0.0104786 -0.00838451 -7.82931e-23)
(0.0138989 -0.00943445 -1.49571e-21)
(0.0175743 -0.0102448 1.33512e-21)
(0.0214332 -0.0108229 -6.08346e-22)
(0.0254085 -0.0111844 -7.92021e-24)
(0.0294387 -0.0113502 0)
(0.0334688 -0.0113442 3.13121e-22)
(0.0374515 -0.0111915 -6.41896e-23)
(0.0413464 -0.010917 -2.44795e-22)
(0.0451207 -0.0105445 5.46525e-24)
(0.0487481 -0.0100964 0)
(0.0522089 -0.00959289 0)
(0.0554892 -0.0090521 3.02467e-23)
(0.0585803 -0.00848967 -2.93748e-23)
(0.0614774 -0.00791901 -1.23073e-23)
(0.0641806 -0.00735137 1.29705e-23)
(0.0666914 -0.00679603 2.26506e-25)
(0.0690167 -0.00626016 -1.04339e-25)
(0.0711631 -0.00574914 1.83055e-26)
(0.0731395 -0.00526698 3.59005e-24)
(0.0749558 -0.00481622 -3.6327e-24)
(0.0766226 -0.00439817 4.12535e-24)
(0.0781508 -0.00401317 -4.39066e-24)
(0.0795512 -0.00366071 -1.498e-25)
(0.0808345 -0.0033397 -3.14805e-24)
(0.0820109 -0.00304855 5.3894e-24)
(0.08309 -0.00278538 -2.4297e-24)
(0.0840809 -0.00254811 -3.95415e-25)
(0.084992 -0.00233456 3.56859e-25)
(0.085831 -0.00214257 0)
(0.0866048 -0.00197002 -2.51194e-26)
(0.0873197 -0.00181491 0)
(0.0879815 -0.00167538 1.63989e-24)
(0.0885952 -0.00154971 -1.55344e-24)
(0.0891654 -0.00143638 1.4497e-25)
(0.0896962 -0.001334 -1.39396e-26)
(0.0901913 -0.00124134 1.434e-24)
(0.0906538 -0.00115734 -2.82345e-24)
(0.0910867 -0.00108103 1.56285e-24)
(0.0914926 -0.0010116 -9.03027e-25)
(0.0918738 -0.000948306 6.59139e-25)
(0.0922324 -0.000890469 2.2576e-25)
(-0.000431106 0.00143565 -2.70498e-21)
(-0.000756745 0.0016999 0)
(-0.000116379 0.00066421 2.64807e-21)
(0.00114014 -0.00117567 -5.22041e-21)
(0.00292601 -0.00337717 2.5905e-21)
(0.00519349 -0.00566014 1.09193e-21)
(0.00786839 -0.00784492 -1.14645e-21)
(0.0108885 -0.0098192 9.51924e-22)
(0.0141925 -0.0115189 -1.82345e-21)
(0.0177197 -0.0129125 8.57682e-22)
(0.0214112 -0.0139917 1.15541e-23)
(0.0252114 -0.0147642 6.75711e-25)
(0.0290681 -0.0152494 8.05593e-24)
(0.0329341 -0.0154738 -4.21825e-22)
(0.0367672 -0.0154682 4.08938e-22)
(0.0405308 -0.0152654 9.76065e-24)
(0.0441941 -0.0148982 -3.71516e-24)
(0.0477317 -0.0143983 1.79082e-22)
(0.0511239 -0.0137954 -1.78705e-22)
(0.0543557 -0.0131167 -2.09118e-24)
(0.0574169 -0.0123864 0)
(0.0603014 -0.0116257 2.92262e-25)
(0.0630069 -0.0108527 0)
(0.0655327 -0.0100828 6.29306e-25)
(0.0678833 -0.0093285 2.04437e-25)
(0.070063 -0.00859983 1.05327e-25)
(0.0720796 -0.00790421 -3.4469e-24)
(0.0739407 -0.00724707 3.56963e-24)
(0.0756554 -0.00663203 0)
(0.0772333 -0.00606098 1.71844e-24)
(0.078684 -0.00553447 -1.61168e-24)
(0.0800172 -0.00505194 0)
(0.0812424 -0.00461199 -7.33391e-26)
(0.0823686 -0.00421256 7.42845e-25)
(0.0834046 -0.00385114 -7.31875e-25)
(0.0843584 -0.00352497 -5.40599e-25)
(0.0852375 -0.00323114 1.9614e-24)
(0.0860489 -0.00296674 -3.32647e-24)
(0.0867989 -0.00272892 1.98279e-24)
(0.0874932 -0.00251497 1.69304e-24)
(0.0881371 -0.00232238 -1.45766e-24)
(0.0887352 -0.00214882 -1.49358e-25)
(0.0892918 -0.0019922 -2.58125e-24)
(0.0898105 -0.00185065 5.81539e-24)
(0.0902949 -0.00172249 -2.88476e-24)
(0.0907479 -0.00160624 1.51692e-26)
(0.0911723 -0.00150062 2.09207e-25)
(0.0915706 -0.00140448 -1.21206e-26)
(0.091945 -0.00131679 -2.33483e-25)
(0.0922973 -0.00123661 4.97234e-25)
(-0.000374394 0.00132238 -2.31385e-24)
(-0.000236265 0.00135858 -2.55417e-23)
(0.00122438 6.94649e-05 -2.42855e-23)
(0.00330251 -0.00214499 -2.29731e-23)
(0.0058575 -0.00474903 -4.21904e-23)
(0.00876578 -0.00743831 -9.85982e-25)
(0.0119326 -0.0100195 1.79327e-23)
(0.0152957 -0.0123646 -1.73498e-23)
(0.0188055 -0.0143955 -1.57995e-23)
(0.0224181 -0.016071 1.6509e-21)
(0.0260937 -0.017377 -2.21118e-22)