/*--------------------------------*- C++ -*----------------------------------*\
| =========                 |                                                 |
| \\      /  F ield         | OpenFOAM: The Open Source CFD Toolbox           |
|  \\    /   O peration     | Version:  2412                                  |
|   \\  /    A nd           | Website:  www.openfoam.com                      |
|    \\/     M anipulation  |                                                 |
\*---------------------------------------------------------------------------*/
FoamFile
{
    version     2.0;
    format      ascii;
    arch        "LSB;label=32;scalar=64";
    class       volVectorField;
    location    "10";
    object      vorticity;
}
// * * * * * * * * * * * * * * * * * * * * * * * * * * * * * * * * * * * * * //

dimensions      [0 0 -1 0 0 0 0];

internalField   nonuniform List<vector> 
63420
(
(0 0 5.23021e-06)
(0 0 8.75334e-06)
(0 0 1.94525e-05)
(0 0 2.98772e-05)
(0 0 2.85594e-05)
(0 0 1.1552e-05)
(0 0 -1.45636e-05)
(0 0 -3.88531e-05)
(0 0 -5.34401e-05)
(0 0 -5.64808e-05)
(0 0 -5.07424e-05)
(0 0 -4.0612e-05)
(0 0 -2.98226e-05)
(0 0 -2.05702e-05)
(0 0 -1.36427e-05)
(0 0 -8.945e-06)
(0 0 -6.00017e-06)
(0 0 -4.27309e-06)
(0 0 -3.31975e-06)
(0 0 -2.82488e-06)
(0 0 -2.5864e-06)
(0 0 -2.48424e-06)
(0 0 -2.45119e-06)
(0 0 -2.4514e-06)
(0 0 -2.46652e-06)
(0 0 -2.48751e-06)
(0 0 -2.51004e-06)
(0 0 -2.53212e-06)
(0 0 -2.55278e-06)
(0 0 -2.57153e-06)
(0 0 -2.58804e-06)
(0 0 -2.60207e-06)
(0 0 -2.61346e-06)
(0 0 -2.62205e-06)
(0 0 -2.62774e-06)
(0 0 -2.6304e-06)
(0 0 -2.62992e-06)
(0 0 -2.62615e-06)
(0 0 -2.61891e-06)
(0 0 -2.60797e-06)
(0 0 -2.59309e-06)
(0 0 -2.57397e-06)
(0 0 -2.55027e-06)
(0 0 -2.52166e-06)
(0 0 -2.48773e-06)
(0 0 -2.44802e-06)
(0 0 -2.40202e-06)
(0 0 -2.34905e-06)
(0 0 -2.28784e-06)
(0 0 -2.21473e-06)
(0 0 -2.11671e-06)
(0 0 -1.94726e-06)
(0 0 -1.54776e-06)
(0 0 -4.03189e-07)
(0 4.69494e-23 3.08348e-06)
(0 0 1.57117e-05)
(0 0 2.6163e-05)
(0 0 5.80087e-05)
(0 0 8.91904e-05)
(0 0 8.55931e-05)
(0 0 3.53561e-05)
(0 0 -4.20881e-05)
(0 0 -0.000114288)
(0 0 -0.000157798)
(0 0 -0.000167065)
(0 0 -0.000150244)
(0 0 -0.000120335)
(0 0 -8.84172e-05)
(0 0 -6.1019e-05)
(0 0 -4.04925e-05)
(0 0 -2.65657e-05)
(0 0 -1.78309e-05)
(0 0 -1.27047e-05)
(0 0 -9.8726e-06)
(0 0 -8.40071e-06)
(0 0 -7.69033e-06)
(0 0 -7.3855e-06)
(0 0 -7.28676e-06)
(0 0 -7.28759e-06)
(0 0 -7.33334e-06)
(0 0 -7.39696e-06)
(0 0 -7.46542e-06)
(0 0 -7.53253e-06)
(0 0 -7.59534e-06)
(0 0 -7.65233e-06)
(0 0 -7.70264e-06)
(0 0 -7.74565e-06)
(0 0 -7.78086e-06)
(0 0 -7.80782e-06)
(0 0 -7.82611e-06)
(0 0 -7.83533e-06)
(0 0 -7.83507e-06)
(0 0 -7.82483e-06)
(0 0 -7.80405e-06)
(0 0 -7.77209e-06)
(0 0 -7.7282e-06)
(0 0 -7.67156e-06)
(0 0 -7.6012e-06)
(0 0 -7.51604e-06)
(0 0 -7.4148e-06)
(0 0 -7.29601e-06)
(0 0 -7.15798e-06)
(0 0 -6.99855e-06)
(0 0 -6.81389e-06)
(0 0 -6.59328e-06)
(0 0 -6.29899e-06)
(0 0 -5.79628e-06)
(0 0 -4.62479e-06)
(0 0 -1.28698e-06)
(0 4.74175e-23 8.8694e-06)
(0 0 2.6226e-05)
(0 0 4.33054e-05)
(0 0 9.57065e-05)
(0 0 0.000147559)
(0 0 0.000142814)
(0 0 6.15497e-05)
(0 0 -6.48232e-05)
(0 0 -0.000183248)
(0 0 -0.000255139)
(0 0 -0.000271121)
(0 0 -0.000244328)
(0 0 -0.000195935)
(0 0 -0.000144067)
(0 0 -9.94474e-05)
(0 0 -6.59738e-05)
(0 0 -4.32404e-05)
(0 0 -2.89713e-05)
(0 0 -2.05917e-05)
(0 0 -1.59592e-05)
(0 0 -1.355e-05)
(0 0 -1.23862e-05)
(0 0 -1.18863e-05)
(0 0 -1.1724e-05)
(0 0 -1.17251e-05)
(0 0 -1.18e-05)
(0 0 -1.19045e-05)
(0 0 -1.20171e-05)
(0 0 -1.21277e-05)
(0 0 -1.22313e-05)
(0 0 -1.23255e-05)
(0 0 -1.2409e-05)
(0 0 -1.24807e-05)
(0 0 -1.25397e-05)
(0 0 -1.25855e-05)
(0 0 -1.26173e-05)
(0 0 -1.26344e-05)
(0 0 -1.26362e-05)
(0 0 -1.26218e-05)
(0 0 -1.25903e-05)
(0 0 -1.25407e-05)
(0 0 -1.24718e-05)
(0 0 -1.23823e-05)
(0 0 -1.22707e-05)
(0 0 -1.2135e-05)
(0 0 -1.19733e-05)
(0 0 -1.17832e-05)
(0 0 -1.15618e-05)
(0 0 -1.13058e-05)
(0 0 -1.10091e-05)
(0 0 -1.06552e-05)
(0 0 -1.0186e-05)
(0 0 -9.39329e-06)
(0 0 -7.56163e-06)
(0 0 -2.35175e-06)
(0 2.79923e-22 1.35358e-05)
(0 0 3.67914e-05)
(0 0 6.00181e-05)
(0 0 0.000132026)
(0 0 0.000204414)
(0 0 0.000200339)
(0 0 9.15832e-05)
(0 0 -7.98688e-05)
(0 0 -0.000241816)
(0 0 -0.000341222)
(0 0 -0.000364706)
(0 0 -0.000329719)
(0 0 -0.000264918)
(0 0 -0.000194991)
(0 0 -0.000134633)
(0 0 -8.92577e-05)
(0 0 -5.83958e-05)
(0 0 -3.90026e-05)
(0 0 -2.76032e-05)
(0 0 -2.12958e-05)
(0 0 -1.80127e-05)
(0 0 -1.64252e-05)
(0 0 -1.57422e-05)
(0 0 -1.55196e-05)
(0 0 -1.55201e-05)
(0 0 -1.56219e-05)
(0 0 -1.57643e-05)
(0 0 -1.59181e-05)
(0 0 -1.60695e-05)
(0 0 -1.62117e-05)
(0 0 -1.63415e-05)
(0 0 -1.64569e-05)
(0 0 -1.65567e-05)
(0 0 -1.66397e-05)
(0 0 -1.6705e-05)
(0 0 -1.67518e-05)
(0 0 -1.6779e-05)
(0 0 -1.67858e-05)
(0 0 -1.67711e-05)
(0 0 -1.67336e-05)
(0 0 -1.66719e-05)
(0 0 -1.65846e-05)
(0 0 -1.64699e-05)
(0 0 -1.63256e-05)
(0 0 -1.61494e-05)
(0 0 -1.59384e-05)
(0 0 -1.56895e-05)
(0 0 -1.5399e-05)
(0 0 -1.50623e-05)
(0 0 -1.46719e-05)
(0 0 -1.42075e-05)
(0 0 -1.35976e-05)
(0 0 -1.25841e-05)
(0 0 -1.02729e-05)
(0 0 -3.71369e-06)
(0 -1.83816e-22 1.63776e-05)
(0 0 4.74228e-05)
(0 0 7.61618e-05)
(0 0 0.000166524)
(0 0 0.000259257)
(0 0 0.000258236)
(0 0 0.000126639)
(0 0 -8.4816e-05)
(0 0 -0.000286716)
(0 0 -0.000412482)
(0 0 -0.000444495)
(0 0 -0.000403654)
(0 0 -0.000325177)
(0 0 -0.000239681)
(0 0 -0.000165539)
(0 0 -0.00010964)
(0 0 -7.15421e-05)
(0 0 -4.75648e-05)
(0 0 -3.34527e-05)
(0 0 -2.56353e-05)
(0 0 -2.15611e-05)
(0 0 -1.9588e-05)
(0 0 -1.87367e-05)
(0 0 -1.84572e-05)
(0 0 -1.84552e-05)
(0 0 -1.85795e-05)
(0 0 -1.87548e-05)
(0 0 -1.89449e-05)
(0 0 -1.91324e-05)
(0 0 -1.93092e-05)
(0 0 -1.94711e-05)
(0 0 -1.96156e-05)
(0 0 -1.97413e-05)
(0 0 -1.98469e-05)
(0 0 -1.99313e-05)
(0 0 -1.99932e-05)
(0 0 -2.00317e-05)
(0 0 -2.00455e-05)
(0 0 -2.00334e-05)
(0 0 -1.99937e-05)
(0 0 -1.9925e-05)
(0 0 -1.98253e-05)
(0 0 -1.96924e-05)
(0 0 -1.95238e-05)
(0 0 -1.93165e-05)
(0 0 -1.90673e-05)
(0 0 -1.87721e-05)
(0 0 -1.84266e-05)
(0 0 -1.80254e-05)
(0 0 -1.75601e-05)
(0 0 -1.7009e-05)
(0 0 -1.62963e-05)
(0 0 -1.51455e-05)
(0 0 -1.25884e-05)
(0 0 -5.38129e-06)
(0 9.07472e-23 1.68542e-05)
(0 0 5.81291e-05)
(0 0 9.16288e-05)
(0 0 0.000198855)
(0 0 0.000311692)
(0 0 0.000316528)
(0 0 0.000167584)
(0 0 -7.78687e-05)
(0 0 -0.000315489)
(0 0 -0.000466238)
(0 0 -0.000507981)
(0 0 -0.000464044)
(0 0 -0.00037512)
(0 0 -0.000277)
(0 0 -0.000191385)
(0 0 -0.000126589)
(0 0 -8.23124e-05)
(0 0 -5.43897e-05)
(0 0 -3.79277e-05)
(0 0 -2.87943e-05)
(0 0 -2.40261e-05)
(0 0 -2.17116e-05)
(0 0 -2.07086e-05)
(0 0 -2.03751e-05)
(0 0 -2.0367e-05)
(0 0 -2.05074e-05)
(0 0 -2.07084e-05)
(0 0 -2.09274e-05)
(0 0 -2.11442e-05)
(0 0 -2.13491e-05)
(0 0 -2.15372e-05)
(0 0 -2.17059e-05)
(0 0 -2.18533e-05)
(0 0 -2.19779e-05)
(0 0 -2.20786e-05)
(0 0 -2.21539e-05)
(0 0 -2.22027e-05)
(0 0 -2.22235e-05)
(0 0 -2.22149e-05)
(0 0 -2.21752e-05)
(0 0 -2.21024e-05)
(0 0 -2.19944e-05)
(0 0 -2.18487e-05)
(0 0 -2.16624e-05)
(0 0 -2.14322e-05)
(0 0 -2.11541e-05)
(0 0 -2.08237e-05)
(0 0 -2.04361e-05)
(0 0 -1.99853e-05)
(0 0 -1.9463e-05)
(0 0 -1.88485e-05)
(0 0 -1.80715e-05)
(0 0 -1.68743e-05)
(0 0 -1.43438e-05)
(0 0 -7.35837e-06)
(0 4.47756e-22 1.44453e-05)
(0 0 6.89136e-05)
(0 0 0.00010635)
(0 0 0.00022879)
(0 0 0.000361427)
(0 0 0.00037514)
(0 0 0.000214838)
(0 0 -5.80317e-05)
(0 0 -0.00032671)
(0 0 -0.000500898)
(0 0 -0.00055366)
(0 0 -0.000509626)
(0 0 -0.000413779)
(0 0 -0.000306253)
(0 0 -0.000211693)
(0 0 -0.000139788)
(0 0 -9.0489e-05)
(0 0 -5.93204e-05)
(0 0 -4.0906e-05)
(0 0 -3.06688e-05)
(0 0 -2.53123e-05)
(0 0 -2.27037e-05)
(0 0 -2.15662e-05)
(0 0 -2.11807e-05)
(0 0 -2.11615e-05)
(0 0 -2.13101e-05)
(0 0 -2.15277e-05)
(0 0 -2.17666e-05)
(0 0 -2.20039e-05)
(0 0 -2.22287e-05)
(0 0 -2.24357e-05)
(0 0 -2.26218e-05)
(0 0 -2.27851e-05)
(0 0 -2.29238e-05)
(0 0 -2.30367e-05)
(0 0 -2.31223e-05)
(0 0 -2.31793e-05)
(0 0 -2.3206e-05)
(0 0 -2.32009e-05)
(0 0 -2.31621e-05)
(0 0 -2.30875e-05)
(0 0 -2.29748e-05)
(0 0 -2.2821e-05)
(0 0 -2.26231e-05)
(0 0 -2.23774e-05)
(0 0 -2.20796e-05)
(0 0 -2.17249e-05)
(0 0 -2.13079e-05)
(0 0 -2.08226e-05)
(0 0 -2.02612e-05)
(0 0 -1.96064e-05)
(0 0 -1.8802e-05)
(0 0 -1.76451e-05)
(0 0 -1.5425e-05)
(0 0 -9.69498e-06)
(0 -8.76193e-23 8.4174e-06)
(-1.54426e-23 8.00589e-21 1.26726e-06)
(-1.51954e-22 7.87039e-21 4.91382e-07)
(3.55758e-23 -2.03765e-22 -7.0216e-07)
(3.4374e-23 -2.35107e-20 -2.45583e-06)
(-9.59264e-23 8.03968e-21 -4.92324e-06)
(3.79059e-22 7.89661e-21 -8.26239e-06)
(-8.20605e-22 2.30123e-20 -1.26168e-05)
(3.20186e-22 -2.33963e-20 -1.80829e-05)
(6.46704e-22 -7.52328e-21 -2.46827e-05)
(-9.28301e-22 -3.80325e-24 -3.23329e-05)
(-9.3014e-22 -7.54602e-21 -4.08203e-05)
(8.15312e-22 7.15951e-21 -4.97922e-05)
(5.7001e-22 -5.90865e-20 -5.87678e-05)
(-1.04454e-21 1.26931e-19 -6.71727e-05)
(3.50937e-22 -6.83426e-20 -7.43996e-05)
(-1.28352e-21 -5.15417e-20 -7.99284e-05)
(2.40945e-21 -6.56166e-20 -8.33358e-05)
(-1.90506e-21 7.75308e-21 -8.44605e-05)
(-2.0065e-22 -7.22579e-21 -8.31928e-05)
(8.10913e-23 7.23702e-21 -7.98152e-05)
(-3.23381e-24 -1.32268e-22 -7.47821e-05)
(-7.67219e-23 -6.98782e-21 -6.87754e-05)
(-2.05778e-21 7.05737e-21 -6.25834e-05)
(4.32001e-21 1.32451e-23 -5.70399e-05)
(1.26832e-21 6.86292e-21 -5.29546e-05)
(-3.36499e-21 -5.47693e-24 -5.10577e-05)
(4.85044e-21 8.00971e-21 -5.19681e-05)
(-5.60137e-21 1.03772e-19 -5.61855e-05)
(6.19161e-22 -1.1146e-19 -6.4109e-05)
(-2.10924e-21 1.02049e-19 -7.60793e-05)
(2.05275e-21 -1.03227e-19 -9.24491e-05)
(4.9826e-23 1.3778e-21 -0.000113693)
(-6.49589e-23 -1.69424e-21 -0.000140582)
(2.75271e-21 -9.81692e-20 -0.00017449)
(-8.81609e-21 9.53136e-20 -0.000217946)
(-3.30392e-22 -1.59258e-21 -0.000275646)
(6.39317e-21 1.39825e-23 -0.000356276)
(6.96477e-21 1.52326e-23 -0.000475676)
(-6.94248e-21 -1.51839e-23 -0.000662067)
(-2.3064e-22 -5.04432e-25 -0.000964188)
(-2.40857e-22 -5.26779e-25 -0.00146305)
(-8.31125e-21 -1.81775e-23 -0.00228736)
(8.02226e-21 1.75455e-23 -0.00363138)
(-2.65677e-22 1.58364e-22 -0.00577133)
(-2.24255e-23 8.19779e-21 -0.00907377)
(-2.57565e-20 5.30507e-20 -0.0139855)
(2.48039e-20 -6.99597e-20 -0.0209906)
(-5.86547e-21 -1.00174e-20 -0.0305189)
(6.44576e-21 2.72977e-20 -0.0427971)
(-2.13895e-20 -5.9724e-21 -0.0575528)
(-2.64323e-22 8.02102e-21 3.75775e-06)
(-1.01343e-22 1.5776e-20 1.40593e-06)
(3.22151e-22 7.67319e-21 -2.23368e-06)
(-9.06146e-22 -7.88474e-21 -7.58391e-06)
(1.6808e-21 7.51483e-21 -1.51003e-05)
(-5.41094e-22 -5.38955e-20 -2.5248e-05)
(-1.83904e-22 8.56217e-20 -3.84426e-05)
(-6.15447e-23 -8.96048e-21 -5.49741e-05)
(2.19584e-21 -9.86238e-20 -7.49155e-05)
(-2.26012e-21 1.39344e-19 -9.80304e-05)
(-7.77806e-22 1.27284e-19 -0.000123701)
(5.65748e-22 -1.14591e-19 -0.0001509)
(-4.05149e-22 7.60434e-22 -0.000178221)
(2.88559e-21 -7.29664e-21 -0.000203979)
(-2.22974e-21 2.43467e-20 -0.000226416)
(-5.91384e-21 2.41373e-19 -0.000243954)
(1.43293e-21 -2.27157e-19 -0.00025555)
(-5.49314e-21 2.43492e-19 -0.000260414)
(-2.75927e-22 1.96662e-20 -0.000258545)
(-3.95402e-21 -7.40037e-21 -0.000250514)
(4.17303e-21 1.49257e-22 -0.000237821)
(-4.17631e-21 9.24621e-21 -0.000222494)
(1.41392e-21 2.12219e-19 -0.000206868)
(5.32483e-21 -4.49854e-19 -0.00019342)
(4.20797e-21 -2.15161e-19 -0.000184561)
(-6.39523e-21 4.35506e-19 -0.000182481)
(2.87758e-21 -4.35166e-19 -0.000189048)
(-1.1336e-21 4.46611e-19 -0.000205795)
(3.3861e-21 1.40222e-21 -0.000233969)
(-3.82318e-21 -1.00168e-22 -0.000274662)
(-1.28454e-21 -2.80941e-24 -0.000329025)
(0 0 -0.000398585)
(1.90089e-22 9.86692e-23 -0.000485784)
(1.13843e-20 1.26742e-20 -0.000594902)
(-1.51204e-20 3.68285e-19 -0.00073373)
(-1.62143e-20 -2.43197e-20 -0.000916652)
(1.80202e-20 -3.63946e-19 -0.00117018)
(2.62036e-20 -3.15404e-19 -0.00154257)
(-8.41793e-21 3.37133e-19 -0.00211969)
(-3.22389e-20 2.19656e-21 -0.00304965)
(3.16449e-20 1.79599e-20 -0.00457827)
(-4.25048e-20 2.4259e-19 -0.00709557)
(2.24453e-20 -2.52451e-19 -0.0111892)
(-1.8778e-20 1.52544e-20 -0.0176936)
(2.08606e-20 8.11778e-21 -0.0277147)
(-6.20856e-20 1.18615e-19 -0.0425993)
(6.20281e-20 -1.16079e-19 -0.063803)
(-9.64117e-20 8.72001e-20 -0.0925985)
(9.30278e-20 -9.73683e-20 -0.129595)
(-1.97292e-20 -6.69953e-22 -0.172521)
(-7.93772e-24 4.74964e-20 6.05195e-06)
(-7.95361e-23 1.50021e-20 1.972e-06)
(3.50954e-22 -6.22002e-20 -4.37896e-06)
(-7.3248e-22 1.23795e-19 -1.36826e-05)
(1.62884e-21 -2.65143e-19 -2.66678e-05)
(5.05965e-22 1.26154e-19 -4.40746e-05)
(-2.53582e-21 -9.02946e-22 -6.65731e-05)
(1.6066e-21 -1.7205e-20 -9.46447e-05)
(1.29145e-21 -2.58948e-19 -0.000128431)
(1.0078e-21 2.46864e-19 -0.000167585)
(-8.8944e-22 -1.68735e-21 -0.000211149)
(-4.35845e-21 -1.59805e-23 -0.000257509)
(6.92192e-21 -1.91581e-21 -0.000304442)
(-4.44695e-21 -2.52982e-19 -0.000349283)
(5.65639e-21 2.30123e-19 -0.000389227)
(-1.1085e-20 4.57268e-19 -0.000421837)
(-5.1152e-21 -1.2415e-20 -0.000445341)
(-4.04963e-21 4.70775e-19 -0.000458746)
(3.99545e-22 -1.42993e-20 -0.000461798)
(-1.17742e-20 4.57891e-19 -0.000455631)
(1.16514e-20 -4.75659e-19 -0.000442666)
(-8.32163e-21 4.54908e-19 -0.000426224)
(1.26008e-21 -4.73277e-19 -0.000410125)
(5.36195e-21 -9.34718e-21 -0.000398437)
(-2.63429e-21 1.38945e-20 -0.000395147)
(5.68229e-21 -8.86516e-21 -0.000403911)
(-1.80993e-20 4.28327e-19 -0.000427909)
(1.60945e-20 -4.56824e-19 -0.00046982)
(1.75481e-20 -4.25002e-19 -0.000531913)
(-1.41803e-20 4.2724e-19 -0.000616258)
(-1.12109e-21 -5.35207e-21 -0.000725079)
(1.16147e-20 -1.25713e-22 -0.000861298)
(-1.3355e-20 -2.55062e-20 -0.00102942)
(5.1623e-20 -7.81344e-19 -0.0012371)
(1.71807e-20 5.69165e-20 -0.001498)
(-6.92359e-20 7.36891e-19 -0.00183702)
(4.11583e-21 -1.28073e-20 -0.00229975)
(-1.18351e-20 -5.20986e-21 -0.0029689)
(1.1033e-19 -6.2269e-19 -0.00399132)
(-2.04938e-19 1.22474e-18 -0.00561983)
(2.09302e-19 -1.22027e-18 -0.0082732)
(7.48523e-20 8.73313e-20 -0.0126144)
(-1.6024e-19 5.36505e-19 -0.0196398)
(-1.69833e-19 3.71947e-19 -0.0307623)
(1.60192e-19 -4.41278e-19 -0.0478529)
(-2.34185e-20 2.04645e-20 -0.0731915)
(5.78911e-20 -1.83026e-20 -0.109242)
(1.7379e-19 -1.08182e-19 -0.158118)
(-1.88119e-19 1.68796e-19 -0.22064)
(-2.66922e-20 -4.32414e-20 -0.288209)
(3.9305e-22 -3.13152e-20 7.90902e-06)
(-3.68543e-22 1.58471e-20 1.70882e-06)
(7.23641e-22 -1.78957e-22 -7.96752e-06)
(-6.56754e-22 -1.55912e-20 -2.19869e-05)
(-1.0082e-21 -1.50576e-21 -4.128e-05)
(3.20994e-21 -2.44743e-19 -6.68126e-05)
(-4.38164e-21 4.63716e-19 -9.94868e-05)
(2.10668e-21 -2.4981e-19 -0.000139978)
(-1.87891e-21 1.50625e-20 -0.000188533)
(4.69095e-21 -2.73589e-19 -0.000244761)
(-5.76295e-21 2.49867e-19 -0.000307472)
(-3.54347e-21 4.76707e-19 -0.000374613)
(9.70186e-21 -9.65071e-19 -0.000443324)
(-1.18566e-20 9.64468e-19 -0.000510153)
(1.61082e-20 -9.60332e-19 -0.000571468)
(-9.83317e-21 9.52468e-19 -0.000624105)
(-9.24483e-21 4.84227e-19 -0.000665874)
(-7.23936e-22 -3.91925e-21 -0.000695449)
(4.68597e-21 4.06508e-21 -0.000712651)
(-6.55367e-21 4.47774e-19 -0.000719054)
(-3.46049e-21 -4.70465e-19 -0.000717992)
(1.53646e-20 1.32382e-20 -0.000714008)
(-3.15525e-20 9.04859e-19 -0.000712343)
(2.31231e-20 -9.08262e-19 -0.000718606)
(2.30917e-21 -5.24119e-21 -0.000738353)
(-1.01412e-20 -8.96811e-23 -0.000776773)
(1.53216e-20 -1.37634e-20 -0.000838503)
(-5.00123e-21 1.28252e-22 -0.000927606)
(-5.51153e-21 -6.09133e-23 -0.00104771)
(5.23101e-21 2.0346e-22 -0.00120228)
(-3.79464e-21 1.26639e-21 -0.00139517)
(6.10899e-20 -8.09247e-19 -0.00163127)
(-5.49654e-20 8.32648e-19 -0.00191788)
(-1.66587e-20 5.02753e-23 -0.00226681)
(1.93429e-20 -1.03878e-20 -0.00269855)
(-9.76364e-20 7.46973e-19 -0.00324972)
(1.15087e-19 -7.50633e-19 -0.00398676)
(-2.37966e-20 2.40798e-21 -0.00502953)
(1.67848e-20 -8.37215e-23 -0.0065904)
(3.98958e-20 6.89085e-21 -0.00903444)
(-2.53592e-19 5.65584e-19 -0.0129656)
(3.73459e-19 -1.14867e-18 -0.0193385)
(-1.82319e-19 5.82863e-19 -0.0295868)
(2.70105e-19 -4.48462e-19 -0.0457434)
(-2.60968e-19 5.28974e-19 -0.0705109)
(-6.16848e-19 5.48246e-19 -0.107211)
(1.16722e-18 -1.16417e-18 -0.159483)
(-5.73081e-19 5.89037e-19 -0.230453)
(1.98791e-20 -2.34627e-21 -0.320964)
(4.81703e-21 -3.6965e-20 -0.408033)
(-7.52334e-22 1.59323e-20 9.05006e-06)
(-2.20384e-22 6.09351e-20 -1.93864e-07)
(1.85773e-21 -1.8514e-19 -1.44559e-05)
(-1.09161e-21 2.48566e-19 -3.45939e-05)
(-4.0413e-22 -1.10132e-19 -6.163e-05)
(1.00422e-22 -1.46915e-20 -9.6707e-05)
(-4.7605e-22 1.55227e-20 -0.000140949)
(3.15407e-21 -1.94788e-22 -0.000195249)
(-3.02409e-21 -1.5171e-20 -0.000260016)
(-5.41729e-21 3.41584e-20 -0.000334918)
(-6.4189e-21 4.84889e-19 -0.000418681)
(1.83186e-20 -5.04096e-19 -0.000509007)
(-2.27214e-20 4.7055e-19 -0.000602638)
(1.87246e-20 -4.89582e-19 -0.000695608)
(-3.12739e-21 3.5362e-21 -0.000783723)
(1.14155e-20 4.94849e-23 -0.000863358)
(4.34651e-21 3.86011e-21 -0.000932083)
(-3.96359e-21 4.5811e-19 -0.0009885)
(1.94098e-20 -4.9596e-19 -0.00103254)
(6.6283e-21 2.75759e-20 -0.00106629)
(-4.3593e-20 9.46212e-19 -0.001094)
(2.63492e-20 -9.49333e-19 -0.0011214)
(1.06177e-20 2.31438e-20 -0.00115512)
(-1.87243e-20 -2.42027e-22 -0.00120232)
(1.22524e-20 9.99713e-21 -0.00127021)
(-3.53818e-20 9.12812e-19 -0.0013657)
(2.84723e-20 -9.04628e-19 -0.00149517)
(2.94315e-21 9.98155e-21 -0.00166454)
(1.00689e-20 2.77749e-20 -0.00187934)
(-1.19445e-20 -5.70359e-22 -0.00214522)
(1.14584e-21 -1.33091e-20 -0.00246845)
(-3.86689e-20 1.35261e-20 -0.00285696)
(3.65569e-20 1.29033e-20 -0.00332189)
(-3.35495e-21 -2.60793e-20 -0.00388045)
(7.95007e-20 -7.59249e-19 -0.00456123)
(-6.99903e-20 7.82487e-19 -0.005414)
(2.66658e-19 -1.51032e-18 -0.00652764)
(-2.4318e-19 1.5251e-18 -0.00806147)
(3.04909e-19 -1.43242e-18 -0.0102971)
(7.52467e-20 1.34546e-19 -0.0137186)
(-3.52715e-19 1.36711e-18 -0.0191277)
(-1.26728e-19 -2.33333e-20 -0.0277936)
(1.72291e-20 3.87658e-22 -0.0416268)
(-1.93645e-20 5.72947e-22 -0.0633518)
(5.71498e-20 1.73982e-21 -0.0966378)
(2.76916e-20 1.42596e-20 -0.146122)
(-1.19372e-19 5.4015e-21 -0.217159)
(6.7988e-20 5.2579e-21 -0.314739)
(-1.74665e-22 -3.27895e-22 -0.44026)
(3.80285e-20 6.77264e-22 -0.542884)
(-6.33035e-22 7.67268e-20 8.9263e-06)
(1.65964e-21 -4.68109e-20 -5.48329e-06)
(-1.7641e-21 -1.65441e-20 -2.67214e-05)
(4.53511e-21 -2.29354e-19 -5.52649e-05)
(-2.04805e-21 2.31292e-19 -9.22138e-05)
(1.75905e-21 -2.28898e-19 -0.000138905)
(-1.06301e-20 5.04843e-19 -0.00019672)
(1.08866e-20 -7.07351e-19 -0.000266828)
(-6.95503e-21 5.00494e-19 -0.000349887)
(-5.23851e-21 4.87775e-19 -0.000445754)
(-2.19351e-21 3.79422e-21 -0.000553256)
(2.33849e-20 -9.58554e-19 -0.000670088)
(-1.99363e-20 9.98172e-19 -0.000792884)
(4.23037e-21 -4.69947e-19 -0.000917493)
(1.12349e-20 -4.72237e-19 -0.00103949)
(2.16858e-20 -4.64896e-19 -0.00115509)
(-3.02203e-21 7.00659e-21 -0.00126187)
(3.65579e-20 -9.6453e-19 -0.00135868)
(2.70104e-20 -9.26476e-19 -0.00144568)
(6.53621e-21 2.13743e-20 -0.00152558)
(-2.35208e-20 9.62964e-19 -0.00160363)
(-2.08857e-20 -8.38694e-21 -0.00168677)
(1.27505e-20 9.28001e-21 -0.00178309)
(-4.7502e-20 9.34471e-19 -0.00190145)
(3.77025e-20 -9.49855e-19 -0.00205096)
(6.99812e-20 -9.12909e-19 -0.00224062)
(-7.12458e-20 9.43583e-19 -0.00247916)
(1.56342e-20 -2.07605e-20 -0.00277505)
(6.40975e-20 -9.12528e-19 -0.00313673)
(-9.2868e-20 9.36227e-19 -0.00357312)
(4.5388e-21 1.28353e-20 -0.00409433)
(-2.01654e-19 1.71873e-18 -0.00471281)
(1.80888e-19 -1.78397e-18 -0.00544526)
(5.05181e-20 6.43008e-20 -0.00631598)
(-2.62535e-19 1.63222e-18 -0.00736326)
(2.39194e-19 -1.70274e-18 -0.00865122)
(-3.29648e-20 -3.5394e-21 -0.0102918)
(4.74042e-19 -1.54081e-18 -0.0124833)
(-4.4268e-19 1.59217e-18 -0.0155756)
(-6.9638e-20 -7.57061e-20 -0.020172)
(6.91568e-19 -1.35161e-18 -0.0272768)
(-1.21391e-18 2.79317e-18 -0.0384903)
(-7.20117e-20 -1.5853e-19 -0.0562413)
(-9.66925e-20 -1.23705e-19 -0.0840335)
(7.95911e-19 -1.22436e-18 -0.126688)
(4.16719e-20 6.64273e-20 -0.190595)
(-9.15099e-19 8.19733e-19 -0.283979)
(8.97179e-19 -9.01519e-19 -0.416612)
(1.02717e-20 3.05443e-20 -0.595358)
(9.98978e-21 -2.90906e-21 -0.71955)
(6.10799e-22 -1.60107e-20 6.75087e-06)
(1.5186e-21 -1.36322e-19 -1.81277e-05)
(-1.67056e-21 1.22998e-19 -4.99444e-05)
(-1.35484e-21 -1.73939e-20 -8.97355e-05)
(5.13235e-21 -2.27982e-19 -0.000138883)
(-4.70137e-21 2.34691e-19 -0.000199073)
(-5.10178e-21 4.73928e-19 -0.000271991)
(-5.31231e-21 -1.95803e-20 -0.000359109)
(2.35929e-21 -4.59068e-21 -0.000461374)
(1.39368e-20 -5.05575e-19 -0.000578903)
(-1.10738e-20 4.73296e-19 -0.00071074)
(1.58657e-20 -1.00168e-18 -0.000854743)
(-2.90717e-21 5.00993e-19 -0.00100765)
(-3.84418e-21 -1.89594e-20 -0.00116538)
(-5.11346e-21 -2.27736e-20 -0.00132352)
(2.59679e-20 -9.84283e-19 -0.00147823)
(-1.40494e-21 -1.9993e-20 -0.00162714)
(2.43973e-20 -1.00297e-18 -0.00176937)
(-5.68204e-21 -7.58481e-21 -0.0019054)
(-1.73759e-22 1.24029e-22 -0.00203822)
(1.18932e-20 8.76234e-21 -0.0021736)
(-4.93953e-20 9.67103e-19 -0.00231912)
(4.34146e-20 -9.88285e-19 -0.00248358)
(1.32668e-20 8.66329e-21 -0.00267666)
(-9.13578e-21 -1.51693e-20 -0.00290828)
(-6.40739e-21 1.02869e-20 -0.00318823)
(-7.01674e-20 9.3643e-19 -0.00352589)
(1.51576e-19 -1.91196e-18 -0.00393019)
(-7.1377e-20 9.9828e-19 -0.00440971)
(-1.84336e-19 1.85149e-18 -0.00497295)
(-3.11518e-20 -4.51013e-20 -0.00562883)
(3.23495e-21 -2.52725e-20 -0.00638744)
(-6.8193e-20 -5.36458e-20 -0.00726146)
(2.52101e-19 -1.85626e-18 -0.00826893)
(3.9643e-19 -1.72088e-18 -0.00943895)
(-3.51827e-19 1.80742e-18 -0.0108232)
(-3.54489e-20 -5.73437e-20 -0.0125187)
(4.7192e-19 -1.65231e-18 -0.0147096)
(-4.13473e-19 1.75167e-18 -0.0177404)
(-6.75832e-19 1.55933e-18 -0.0222364)
(5.71009e-19 -1.64828e-18 -0.0292856)
(8.19345e-20 -1.17879e-20 -0.0406902)
(8.93137e-19 -1.46696e-18 -0.059283)
(1.32026e-19 1.23191e-19 -0.0892866)
(-1.03922e-18 1.44171e-18 -0.136707)
(-1.72469e-20 -4.17623e-20 -0.209832)
(3.53846e-20 5.54942e-22 -0.32058)
(-3.61636e-20 1.60629e-20 -0.489639)
(-5.43595e-19 5.69223e-19 -0.756586)
(5.34914e-19 -5.78461e-19 -1.04545)
(-1.01564e-20 -2.90633e-21 0.00798433)
(-9.42331e-21 4.97466e-23 0.000445425)
(8.80959e-21 8.59528e-21 -0.00573088)
(-7.68893e-21 -1.96703e-21 -0.0106381)
(8.16358e-21 -6.4506e-21 -0.0143781)
(-1.12914e-22 2.76746e-21 -0.0170758)
(-1.3693e-22 -8.05024e-23 -0.0188651)
(-3.99849e-21 8.74509e-24 -0.0198744)
(3.88144e-21 -8.4891e-24 -0.0202306)
(-1.04395e-22 2.28323e-25 -0.0200552)
(-9.17182e-23 2.00597e-25 -0.0194604)
(2.28984e-21 -5.00811e-24 -0.0185475)
(-2.2972e-21 5.02421e-24 -0.0174059)
(-1.60381e-21 3.50768e-24 -0.0161127)
(3.11661e-22 -2.69367e-22 -0.0147329)
(4.38101e-21 4.53402e-20 -0.0133199)
(-2.77539e-21 -4.1883e-20 -0.0119167)
(-1.38922e-23 -2.54257e-22 -0.0105565)
(-2.90988e-24 8.04643e-23 -0.0092644)
(-2.47374e-21 -6.49938e-20 -0.00805831)
(2.4836e-21 6.49929e-20 -0.00694947)
(-1.85402e-21 -6.89808e-20 -0.0059442)
(2.95438e-22 4.72442e-21 -0.00504377)
(-7.74793e-23 1.76213e-24 -0.00424696)
(2.16817e-22 5.21091e-21 -0.00355039)
(-1.3994e-23 -5.0655e-26 -0.00295038)
(4.14657e-23 -9.06897e-26 -0.00243793)
(-2.46696e-23 1.13561e-24 -0.0020046)
(1.58492e-22 5.95179e-21 -0.00164183)
(1.65859e-24 -2.11135e-24 -0.00134094)
(-1.32698e-22 -6.24466e-21 -0.00109345)
(1.22607e-22 6.37654e-21 -0.000891367)
(-1.30467e-22 -6.49264e-21 -0.000727341)
(5.16596e-22 5.9807e-20 -0.000594777)
(-4.86668e-22 -6.00357e-20 -0.000487899)
(-2.34124e-22 -4.79477e-20 -0.000401743)
(5.36034e-22 1.03457e-19 -0.000332134)
(-2.94327e-22 -5.55951e-20 -0.000275625)
(-6.80416e-23 -7.06621e-21 -0.000229417)
(6.24281e-23 7.1422e-21 -0.000191277)
(6.06188e-24 -2.66185e-25 -0.00015945)
(4.24749e-23 7.28322e-21 -0.000132575)
(-1.41274e-22 -3.68031e-20 -0.000109607)
(1.42527e-22 3.69214e-20 -8.97498e-05)
(-4.75002e-23 -7.46109e-21 -7.23976e-05)
(7.44247e-23 2.25842e-20 -5.70861e-05)
(-9.27021e-24 -7.52544e-21 -4.345e-05)
(-5.17913e-23 -1.52574e-20 -3.11838e-05)
(1.96038e-23 7.65078e-21 -2.00048e-05)
(-2.54059e-23 -7.71497e-21 -9.64478e-06)
(-1.48181e-20 2.37771e-20 0.0227013)
(2.24734e-20 -1.25592e-20 0.000179694)
(-1.69146e-20 -1.75951e-20 -0.0182507)
(-2.08757e-21 1.11561e-20 -0.0327545)
(1.50172e-21 -1.03032e-20 -0.0436974)
(-1.03167e-20 5.71743e-21 -0.0514972)
(8.61565e-21 3.85271e-21 -0.0565818)
(-1.50277e-20 -3.7125e-20 -0.0593546)
(2.31083e-20 2.75396e-20 -0.0602088)
(-1.57178e-20 2.44538e-21 -0.0595126)
(1.15135e-20 -5.1739e-21 -0.0576024)
(2.74918e-20 1.0598e-19 -0.0547797)
(-3.4171e-20 -9.95293e-20 -0.0513086)
(-3.43182e-20 -1.48063e-19 -0.0474154)
(3.56956e-21 -2.399e-20 -0.0432892)
(3.36665e-20 1.66968e-19 -0.039085)
(-2.58928e-21 -1.59878e-21 -0.0349257)
(-1.28676e-21 -6.97773e-21 -0.0309066)
(2.84973e-24 -2.53923e-23 -0.0270985)
(7.5018e-23 -1.64072e-25 -0.023551)
(2.10723e-22 1.74408e-24 -0.0202959)
(-5.19398e-22 -4.59719e-21 -0.0173487)
(2.22447e-20 2.99981e-19 -0.0147124)
(-2.45113e-20 -3.24988e-19 -0.0123869)
(2.00527e-20 3.37033e-19 -0.0103514)
(-1.09657e-20 -1.65559e-19 -0.00859743)
(-1.79194e-20 -3.6103e-19 -0.00710103)
(8.61644e-21 1.83651e-19 -0.00583681)
(-1.88599e-22 -5.99989e-21 -0.00477921)
(-5.2998e-22 -1.22986e-20 -0.00390248)
(8.79791e-23 6.2633e-21 -0.00318166)
(-5.9702e-22 -1.91996e-20 -0.00259327)
(4.65486e-21 2.0359e-19 -0.00211578)
(-9.64043e-21 -4.30757e-19 -0.00172993)
(4.2857e-21 2.07246e-19 -0.00141883)
(-4.21805e-22 -2.05078e-20 -0.00116802)
(8.3746e-23 6.91229e-21 -0.000965336)
(-1.36375e-24 3.01569e-24 -0.000800743)
(-1.69078e-21 -1.20775e-19 -0.0006661)
(1.4399e-21 1.06737e-19 -0.000554917)
(1.07455e-21 1.01447e-19 -0.000462095)
(-1.55391e-21 -1.37937e-19 -0.000383681)
(5.25496e-23 7.32834e-21 -0.000316639)
(2.88951e-22 3.71731e-20 -0.000258659)
(-6.23073e-22 -6.6942e-20 -0.00020798)
(-6.90653e-23 -7.50745e-21 -0.000163253)
(-3.73579e-22 -5.29872e-20 -0.000123412)
(-9.44554e-23 -7.75492e-21 -8.75566e-05)
(1.10156e-22 1.52088e-20 -5.4826e-05)
(1.25967e-22 2.30672e-20 -2.43177e-05)
(-1.46434e-20 -7.01115e-22 0.0333476)
(-1.65059e-21 -8.63469e-21 -0.00386382)
(2.29821e-20 2.18124e-20 -0.0341642)
(-4.13096e-20 -1.21454e-20 -0.0575344)
(1.67933e-20 9.75624e-21 -0.0748015)
(-3.39383e-20 -4.62269e-20 -0.0867928)
(4.26137e-20 1.74423e-20 -0.0943108)
(8.90658e-20 1.02483e-19 -0.0980944)
(-1.37432e-20 5.87771e-20 -0.0988244)
(-1.76436e-19 -2.94482e-19 -0.0971208)
(2.09564e-19 3.50546e-19 -0.0935409)
(-1.09967e-19 -1.80666e-19 -0.0885767)
(1.6487e-21 -1.0377e-20 -0.0826532)
(-1.7554e-21 -3.17128e-21 -0.0761295)
(1.20217e-19 3.67014e-19 -0.0693023)
(-6.63229e-21 3.94615e-20 -0.0624109)
(-1.10531e-19 -3.95762e-19 -0.0556431)
(5.5729e-21 1.20217e-20 -0.0491419)
(-1.73445e-21 6.35705e-23 -0.0430114)
(3.30227e-23 -3.00049e-22 -0.0373232)
(4.49026e-20 2.92644e-19 -0.03212)
(-4.34603e-20 -2.82763e-19 -0.027422)
(-3.82098e-20 -3.135e-19 -0.0232343)
(4.03389e-20 3.3339e-19 -0.0195412)
(1.29122e-21 1.09634e-20 -0.016329)
(-1.19121e-21 -1.12083e-20 -0.0135529)
(1.03306e-21 1.1524e-20 -0.0111892)
(-2.50049e-20 -3.71007e-19 -0.00919496)
(2.61047e-20 3.83409e-19 -0.00752839)
(-2.03689e-20 -3.76363e-19 -0.00614794)
(2.18126e-20 4.01767e-19 -0.00501366)
(4.7722e-22 1.28827e-20 -0.00408812)
(1.64383e-20 4.23643e-19 -0.00333717)
(-3.12839e-20 -8.41093e-19 -0.0027303)
(1.55886e-20 4.44312e-19 -0.00224086)
(6.70766e-21 2.3451e-19 -0.00184605)
(-5.91041e-21 -2.07199e-19 -0.00152674)
(-3.29262e-23 3.96758e-24 -0.00126714)
(-1.03535e-22 -2.70291e-23 -0.00105448)
(1.49636e-23 -1.65925e-23 -0.00087861)
(4.11038e-21 2.32108e-19 -0.000731537)
(-4.03413e-21 -2.1783e-19 -0.000607083)
(2.57223e-22 1.46844e-20 -0.000500513)
(-3.22692e-23 -2.89508e-23 -0.000408216)
(1.48186e-21 1.19492e-19 -0.000327448)
(-2.83796e-21 -2.24861e-19 -0.000256097)
(1.42192e-21 1.20351e-19 -0.000192488)
(-7.14759e-22 -6.08107e-20 -0.000135177)
(5.2932e-22 4.55696e-20 -8.26857e-05)
(1.30371e-22 1.52747e-20 -3.31869e-05)
(1.59058e-21 2.66349e-20 0.035862)
(8.69192e-21 -5.27643e-20 -0.0152303)
(-4.06389e-21 6.21263e-20 -0.0564507)
(-5.07799e-20 -5.21017e-20 -0.0872139)
(7.05061e-20 -1.9182e-20 -0.109129)
(6.38482e-20 1.02697e-19 -0.123692)
(-8.15995e-20 -6.78338e-20 -0.132204)
(9.92118e-20 1.367e-19 -0.135784)
(-2.38065e-19 -2.96564e-19 -0.135413)
(1.63295e-19 1.47249e-19 -0.13196)
(-1.52063e-20 1.23972e-20 -0.126187)
(-8.30806e-21 7.70488e-22 -0.118752)
(1.17752e-20 8.52854e-21 -0.110212)
(-1.73142e-19 -3.71782e-19 -0.101031)
(1.60723e-19 3.52388e-19 -0.0915851)
(3.66954e-22 1.73246e-20 -0.0821718)
(7.53167e-22 -8.64029e-21 -0.0730203)
(1.46776e-19 5.16827e-19 -0.0643009)
(-1.47302e-19 -5.13081e-19 -0.0561339)
(-1.92519e-21 -1.08266e-20 -0.0485981)
(-2.8507e-22 -2.19389e-23 -0.0417375)
(7.47513e-22 3.08746e-22 -0.0355662)
(1.19317e-22 -3.96039e-24 -0.0300854)
(1.30293e-21 1.08269e-20 -0.0252727)
(8.13608e-22 2.18544e-22 -0.0210926)
(1.20859e-21 1.13913e-20 -0.0174959)
(-8.03116e-20 -7.75046e-19 -0.0144346)
(7.95233e-20 7.63775e-19 -0.0118567)
(-3.07087e-23 1.84321e-23 -0.00970565)
(-3.00645e-20 -4.07959e-19 -0.00792603)
(3.14281e-20 4.21223e-19 -0.00646512)
(-7.65982e-24 -1.51049e-23 -0.00527387)
(-1.59618e-22 -8.27873e-23 -0.00430767)
(-2.17931e-20 -4.48146e-19 -0.00352689)
(4.12427e-20 8.88708e-19 -0.002897)
(-3.70839e-20 -8.85452e-19 -0.00238854)
(3.41246e-20 8.95159e-19 -0.00197685)
(-3.12148e-20 -9.04043e-19 -0.00164165)
(1.48141e-20 4.54197e-19 -0.00136655)
(6.39526e-21 2.30938e-19 -0.00113855)
(-5.62091e-21 -2.02007e-19 -0.000947453)
(-3.85187e-22 -1.46001e-20 -0.00078538)
(-4.96678e-21 -2.35831e-19 -0.000646299)
(1.03744e-20 5.02712e-19 -0.000525621)
(-4.80158e-21 -2.37299e-19 -0.000419852)
(8.20527e-23 -1.27415e-23 -0.000326306)
(2.33858e-22 1.5025e-20 -0.00024283)
(-8.35668e-23 -1.0298e-23 -0.000167512)
(-1.83638e-22 -1.51726e-20 -9.82134e-05)
(4.05409e-22 3.04766e-20 -3.17525e-05)
(2.71705e-20 8.01035e-23 0.0255258)
(4.43565e-23 1.47999e-22 -0.0387918)
(-6.00426e-20 -9.19565e-23 -0.0889342)
(8.56344e-20 -1.13096e-21 -0.124381)
(-2.71373e-20 -2.12948e-21 -0.14825)
(-3.83845e-20 -1.05863e-21 -0.162995)
(1.48432e-20 1.75538e-21 -0.170495)
(-9.31131e-21 -2.64379e-21 -0.172259)
(6.78078e-20 -2.02722e-20 -0.169552)
(3.24985e-19 5.19045e-19 -0.163455)
(5.32218e-21 1.00959e-19 -0.154888)
(-3.64793e-19 -6.17071e-19 -0.144628)
(3.916e-19 7.47506e-19 -0.13332)
(-4.03662e-19 -7.44085e-19 -0.121488)