/*--------------------------------*- C++ -*----------------------------------*\
| =========                 |                                                 |
| \\      /  F ield         | OpenFOAM: The Open Source CFD Toolbox           |
|  \\    /   O peration     | Version:  2412                                  |
|   \\  /    A nd           | Website:  www.openfoam.com                      |
|    \\/     M anipulation  |                                                 |
\*---------------------------------------------------------------------------*/
FoamFile
{
    version     2.0;
    format      ascii;
    arch        "LSB;label=32;scalar=64";
    class       volVectorField;
    location    "16";
    object      vorticity;
}
// * * * * * * * * * * * * * * * * * * * * * * * * * * * * * * * * * * * * * //

dimensions      [0 0 -1 0 0 0 0];

internalField   nonuniform List<vector> 
5285
(
(0 -0 5.93484e-06)
(0 -0 6.13521e-06)
(0 -0 6.42947e-06)
(0 -0 6.72984e-06)
(0 -0 6.99879e-06)
(0 -0 7.23899e-06)
(0 -0 7.46368e-06)
(0 -0 7.65911e-06)
(0 -0 7.80884e-06)
(0 -0 7.89259e-06)
(0 -0 7.88361e-06)
(0 -0 7.7397e-06)
(0 -0 7.37469e-06)
(0 -0 6.59934e-06)
(0 -0 5.18048e-06)
(0 -0 3.41249e-06)
(0 -0 6.1325e-06)
(0 -0 6.32636e-06)
(0 -0 6.60029e-06)
(0 -0 6.91048e-06)
(0 -0 7.17449e-06)
(0 -0 7.40745e-06)
(0 -0 7.62567e-06)
(0 -0 7.81524e-06)
(0 -0 7.96017e-06)
(0 -0 8.04077e-06)
(0 -0 8.03095e-06)
(0 -0 7.88906e-06)
(0 -0 7.52692e-06)
(0 -0 6.73969e-06)
(0 -0 5.29207e-06)
(0 -0 3.37759e-06)
(0 -0 6.34056e-06)
(0 -0 6.52422e-06)
(0 -0 6.80802e-06)
(0 -0 7.11647e-06)
(0 -0 7.37556e-06)
(0 -0 7.60331e-06)
(0 -0 7.81676e-06)
(0 -0 8.00231e-06)
(0 -0 8.14424e-06)
(0 -0 8.22357e-06)
(0 -0 8.21492e-06)
(0 -0 8.07719e-06)
(0 -0 7.72207e-06)
(0 -0 6.94434e-06)
(0 -0 5.45938e-06)
(0 -0 3.58369e-06)
(0 -0 6.54664e-06)
(0 -0 6.72784e-06)
(0 -0 7.01043e-06)
(0 -0 7.31799e-06)
(0 -0 7.57445e-06)
(0 -0 7.79898e-06)
(0 -0 8.00932e-06)
(0 -0 8.19235e-06)
(0 -0 8.33276e-06)
(0 -0 8.41222e-06)
(0 -0 8.40617e-06)
(0 -0 8.27434e-06)
(0 -0 7.92936e-06)
(0 -0 7.16826e-06)
(0 -0 5.7284e-06)
(0 -0 3.86115e-06)
(0 -0 6.73256e-06)
(0 -0 6.91126e-06)
(0 -0 7.19378e-06)
(0 -0 7.5014e-06)
(0 -0 7.75702e-06)
(0 -0 7.98025e-06)
(0 -0 8.18948e-06)
(0 -0 8.3719e-06)
(0 -0 8.51281e-06)
(0 -0 8.59442e-06)
(0 -0 8.59299e-06)
(0 -0 8.4693e-06)
(0 -0 8.13726e-06)
(0 -0 7.39642e-06)
(0 -0 5.99269e-06)
(0 -0 4.20411e-06)
(0 -0 6.87963e-06)
(0 -0 7.05892e-06)
(0 -0 7.34329e-06)
(0 -0 7.653e-06)
(0 -0 7.91027e-06)
(0 -0 8.13494e-06)
(0 -0 8.34598e-06)
(0 -0 8.53087e-06)
(0 -0 8.67538e-06)
(0 -0 8.76242e-06)
(0 -0 8.769e-06)
(0 -0 8.65698e-06)
(0 -0 8.34157e-06)
(0 -0 7.62444e-06)
(0 -0 6.255e-06)
(0 -0 4.51818e-06)
(0 -0 6.96187e-06)
(0 -0 7.14575e-06)
(0 -0 7.43555e-06)
(0 -0 7.75101e-06)
(0 -0 8.0137e-06)
(0 -0 8.24388e-06)
(0 -0 8.46097e-06)
(0 -0 8.65281e-06)
(0 -0 8.80562e-06)
(0 -0 8.90294e-06)
(0 -0 8.92263e-06)
(0 -0 8.82751e-06)
(0 -0 8.53414e-06)
(0 -0 7.84578e-06)
(0 -0 6.51338e-06)
(0 -0 4.8234e-06)
(0 -0 6.94207e-06)
(0 -0 7.13561e-06)
(0 -0 7.43591e-06)
(0 -0 7.76231e-06)
(0 -0 8.03582e-06)
(0 -0 8.27718e-06)
(0 -0 8.50624e-06)
(0 -0 8.71122e-06)
(0 -0 8.87885e-06)
(0 -0 8.99323e-06)
(0 -0 9.03313e-06)
(0 -0 8.96226e-06)
(0 -0 8.6985e-06)
(0 -0 8.04646e-06)
(0 -0 6.75779e-06)
(0 -0 5.11871e-06)
(0 -0 6.76882e-06)
(0 -0 6.97833e-06)
(0 -0 7.29564e-06)
(0 -0 7.63969e-06)
(0 -0 7.9311e-06)
(0 -0 8.19102e-06)
(0 -0 8.43981e-06)
(0 -0 8.66606e-06)
(0 -0 8.857e-06)
(0 -0 8.99742e-06)
(0 -0 9.0668e-06)
(0 -0 9.02992e-06)
(0 -0 8.80581e-06)
(0 -0 8.2004e-06)
(0 -0 6.9658e-06)
(0 -0 5.38708e-06)
(0 -0 6.37498e-06)
(0 -0 6.60804e-06)
(0 -0 6.95026e-06)
(0 -0 7.32015e-06)
(0 -0 7.63815e-06)
(0 -0 7.92575e-06)
(0 -0 8.20385e-06)
(0 -0 8.46146e-06)
(0 -0 8.68629e-06)
(0 -0 8.86385e-06)
(0 -0 8.97439e-06)
(0 -0 8.98366e-06)
(0 -0 8.81184e-06)
(0 -0 8.26625e-06)
(0 -0 7.09941e-06)
(0 -0 5.59466e-06)
(0 -0 5.67856e-06)
(0 -0 5.94385e-06)
(0 -0 6.32003e-06)
(0 -0 6.72537e-06)
(0 -0 7.08008e-06)
(0 -0 7.40609e-06)
(0 -0 7.72477e-06)
(0 -0 8.02561e-06)
(0 -0 8.29692e-06)
(0 -0 8.5248e-06)
(0 -0 8.6904e-06)
(0 -0 8.76037e-06)
(0 -0 8.65611e-06)
(0 -0 8.1863e-06)
(0 -0 7.10394e-06)
(0 -0 5.69031e-06)
(0 -0 4.58611e-06)
(0 -0 4.89318e-06)
(0 -0 5.31334e-06)
(0 -0 5.76477e-06)
(0 -0 6.16747e-06)
(0 -0 6.54386e-06)
(0 -0 6.91584e-06)
(0 -0 7.27335e-06)
(0 -0 7.60534e-06)
(0 -0 7.89862e-06)
(0 -0 8.13515e-06)
(0 -0 8.28254e-06)
(0 -0 8.26341e-06)
(0 -0 7.88787e-06)
(0 -0 6.90949e-06)
(0 -0 5.60726e-06)
(0 -0 2.99895e-06)
(0 -0 3.3578e-06)
(0 -0 3.83256e-06)
(0 -0 4.34132e-06)
(0 -0 4.80408e-06)
(0 -0 5.24365e-06)
(0 -0 5.68256e-06)
(0 -0 6.1113e-06)
(0 -0 6.51941e-06)
(0 -0 6.89454e-06)
(0 -0 7.21942e-06)
(0 -0 7.46269e-06)
(0 -0 7.54817e-06)
(0 -0 7.28744e-06)
(0 -0 6.43481e-06)
(0 -0 5.26668e-06)
(0 -0 8.21876e-07)
(0 -0 1.24251e-06)
(0 -0 1.78251e-06)
(0 -0 2.35995e-06)
(0 -0 2.89496e-06)
(0 -0 3.41081e-06)
(0 -0 3.93065e-06)
(0 -0 4.44564e-06)
(0 -0 4.94602e-06)
(0 -0 5.42022e-06)
(0 -0 5.85186e-06)
(0 -0 6.21058e-06)
(0 -0 6.42139e-06)
(0 -0 6.29744e-06)
(0 -0 5.59387e-06)
(0 -0 4.58423e-06)
(0 -0 -2.02652e-06)
(0 -0 -1.53465e-06)
(0 -0 -9.19288e-07)
(0 -0 -2.62293e-07)
(0 -0 3.56625e-07)
(0 -0 9.61399e-07)
(0 -0 1.57589e-06)
(0 -0 2.19193e-06)
(0 -0 2.80063e-06)
(0 -0 3.3912e-06)
(0 -0 3.9482e-06)
(0 -0 4.44226e-06)
(0 -0 4.79958e-06)
(0 -0 4.83496e-06)
(0 -0 4.30446e-06)
(0 -0 3.47853e-06)
(0 -0 -5.60263e-06)
(0 -0 -5.03111e-06)
(0 -0 -4.33146e-06)
(0 -0 -3.58535e-06)
(0 -0 -2.8721e-06)
(0 -0 -2.16698e-06)
(0 -0 -1.44527e-06)
(0 -0 -7.14306e-07)
(0 -0 1.78671e-08)
(0 -0 7.41361e-07)
(0 -0 1.44167e-06)
(0 -0 2.09038e-06)
(0 -0 2.61494e-06)
(0 -0 2.83177e-06)
(0 -0 2.49791e-06)
(0 -0 1.88061e-06)
(0 -0 -9.92723e-06)
(0 -0 -9.26909e-06)
(0 -0 -8.47824e-06)
(0 -0 -7.6357e-06)
(0 -0 -6.81983e-06)
(0 -0 -6.00491e-06)
(0 -0 -5.16524e-06)
(0 -0 -4.30722e-06)
(0 -0 -3.43805e-06)
(0 -0 -2.56666e-06)
(0 -0 -1.70666e-06)
(0 -0 -8.85495e-07)
(0 -0 -1.74507e-07)
(0 -0 2.44311e-07)
(0 -0 1.29001e-07)
(0 -0 -2.5647e-07)
(0 -0 -1.49767e-05)
(0 -0 -1.42267e-05)
(0 -0 -1.33413e-05)
(0 -0 -1.23984e-05)
(0 -0 -1.14745e-05)
(0 -0 -1.05429e-05)
(0 -0 -9.57687e-06)
(0 -0 -8.582e-06)
(0 -0 -7.56458e-06)
(0 -0 -6.5327e-06)
(0 -0 -5.49908e-06)
(0 -0 -4.49015e-06)
(0 -0 -3.57617e-06)
(0 -0 -2.93763e-06)
(0 -0 -2.8156e-06)
(0 -0 -2.9492e-06)
(0 -0 -2.06774e-05)
(0 -0 -1.98313e-05)
(0 -0 -1.88558e-05)
(0 -0 -1.78134e-05)
(0 -0 -1.67791e-05)
(0 -0 -1.57263e-05)
(0 -0 -1.46279e-05)
(0 -0 -1.3489e-05)
(0 -0 -1.2315e-05)
(0 -0 -1.11132e-05)
(0 -0 -9.89521e-06)
(0 -0 -8.68669e-06)
(0 -0 -7.55681e-06)
(0 -0 -6.68488e-06)
(0 -0 -6.31185e-06)
(0 -0 -6.17943e-06)
(0 -0 -2.69131e-05)
(0 -0 -2.59691e-05)
(0 -0 -2.48967e-05)
(0 -0 -2.3778e-05)
(0 -0 -2.26312e-05)
(0 -0 -2.14536e-05)
(0 -0 -2.02192e-05)
(0 -0 -1.89321e-05)
(0 -0 -1.75966e-05)
(0 -0 -1.6219e-05)
(0 -0 -1.48101e-05)
(0 -0 -1.33944e-05)
(0 -0 -1.20403e-05)
(0 -0 -1.09268e-05)
(0 -0 -1.02975e-05)
(0 -0 -9.89399e-06)
(0 -0 0.000377591)
(0 -0 0.000374222)
(0 -0 0.000368015)
(0 -0 0.000383046)
(0 -0 0.000465051)
(0 -0 0.000645652)
(0 -0 0.000903843)
(0 -0 0.00116264)
(0 -0 0.00132597)
(0 -0 0.000384496)
(0 -0 0.000381031)
(0 -0 0.000374631)
(0 -0 0.00039016)
(0 -0 0.000474855)
(0 -0 0.000661359)
(0 -0 0.000927963)
(0 -0 0.00119516)
(0 -0 0.0013638)
(0 -0 0.00136486)
(0 -0 0.00118909)
(0 -0 0.000883645)
(0 -0 0.000524553)
(0 -0 0.000185605)
(0 -0 -8.25664e-05)
(0 -0 -0.000258945)
(0 -0 -0.000347283)
(0 -0 -0.000366141)
(0 -0 -0.000339083)
(0 -0 -0.000287803)
(0 -0 -0.000228729)
(0 -0 -0.000172332)
(0 -0 -0.000124016)
(0 -0 -8.55816e-05)
(0 -0 -5.66679e-05)
(0 -0 -3.58601e-05)
(0 -0 -2.14234e-05)
(0 -0 -1.17126e-05)
(0 -0 -5.35375e-06)
(0 -0 -1.28776e-06)
(0 -0 1.25621e-06)
(0 -0 2.81535e-06)
(0 -0 3.75121e-06)
(0 -0 4.30042e-06)
(0 -0 4.61433e-06)
(0 -0 4.78783e-06)
(0 -0 4.87945e-06)
(0 -0 4.92492e-06)
(0 -0 4.94589e-06)
(0 -0 4.95538e-06)
(0 -0 4.96125e-06)
(0 -0 4.9683e-06)
(0 -0 4.9795e-06)
(0 -0 4.99674e-06)
(0 -0 5.02135e-06)
(0 -0 5.05426e-06)
(0 -0 5.09613e-06)
(0 -0 5.14755e-06)
(0 -0 5.2089e-06)
(0 -0 5.28043e-06)
(0 -0 5.362e-06)
(0 -0 5.45244e-06)
(0 -0 5.55088e-06)
(0 -0 5.64932e-06)
(0 -0 5.76188e-06)
(0 -0 0.000391153)
(0 -0 0.000387589)
(0 -0 0.000380987)
(0 -0 0.000397037)
(0 -0 0.000484523)
(0 -0 0.000677151)
(0 -0 0.000952476)
(0 -0 0.00122837)
(0 -0 0.00140246)
(0 -0 0.00140355)
(0 -0 0.00122213)
(0 -0 0.000906905)
(0 -0 0.00053644)
(0 -0 0.000186938)
(0 -0 -8.93679e-05)
(0 -0 -0.00027084)
(0 -0 -0.00036141)
(0 -0 -0.000380289)
(0 -0 -0.000351833)
(0 -0 -0.000298456)
(0 -0 -0.000237115)
(0 -0 -0.000178617)
(0 -0 -0.000128527)
(0 -0 -8.86938e-05)
(0 -0 -5.8732e-05)
(0 -0 -3.71707e-05)
(0 -0 -2.22108e-05)
(0 -0 -1.21468e-05)
(0 -0 -5.55528e-06)
(0 -0 -1.3391e-06)
(0 -0 1.3002e-06)
(0 -0 2.91905e-06)
(0 -0 3.89199e-06)
(0 -0 4.46418e-06)
(0 -0 4.79236e-06)
(0 -0 4.97486e-06)
(0 -0 5.0724e-06)
(0 -0 5.12198e-06)
(0 -0 5.14596e-06)
(0 -0 5.15785e-06)
(0 -0 5.16579e-06)
(0 -0 5.17471e-06)
(0 -0 5.18768e-06)
(0 -0 5.20666e-06)
(0 -0 5.233e-06)
(0 -0 5.26764e-06)
(0 -0 5.31122e-06)
(0 -0 5.36431e-06)
(0 -0 5.42732e-06)
(0 -0 5.50047e-06)
(0 -0 5.58361e-06)
(0 -0 5.67556e-06)
(0 -0 5.7732e-06)
(0 -0 5.87665e-06)
(0 -0 5.96609e-06)
(0 -0 0.00039756)
(0 -0 0.000393893)
(0 -0 0.000387081)
(0 -0 0.000403671)
(0 -0 0.000494066)
(0 -0 0.000693067)
(0 -0 0.00097746)
(0 -0 0.00126239)
(0 -0 0.00144211)
(0 -0 0.00144312)
(0 -0 0.00125576)
(0 -0 0.000930394)
(0 -0 0.000548152)
(0 -0 0.000187735)
(0 -0 -9.69597e-05)
(0 -0 -0.000283652)
(0 -0 -0.000376469)
(0 -0 -0.0003953)
(0 -0 -0.000365332)
(0 -0 -0.000309721)
(0 -0 -0.000245981)
(0 -0 -0.000185264)
(0 -0 -0.000133304)
(0 -0 -9.19966e-05)
(0 -0 -6.09304e-05)
(0 -0 -3.85751e-05)
(0 -0 -2.30631e-05)
(0 -0 -1.26262e-05)
(0 -0 -5.78844e-06)
(0 -0 -1.41286e-06)
(0 -0 1.32809e-06)
(0 -0 3.01108e-06)
(0 -0 4.02432e-06)
(0 -0 4.62192e-06)
(0 -0 4.96635e-06)
(0 -0 5.15954e-06)
(0 -0 5.26442e-06)
(0 -0 5.31937e-06)
(0 -0 5.34759e-06)
(0 -0 5.36306e-06)
(0 -0 5.3742e-06)
(0 -0 5.3861e-06)
(0 -0 5.40193e-06)
(0 -0 5.42371e-06)
(0 -0 5.45278e-06)
(0 -0 5.49009e-06)
(0 -0 5.53631e-06)
(0 -0 5.59199e-06)
(0 -0 5.65753e-06)
(0 -0 5.73316e-06)
(0 -0 5.81869e-06)
(0 -0 5.91285e-06)
(0 -0 6.01213e-06)
(0 -0 6.11104e-06)
(0 -0 6.19887e-06)
(0 -0 0.000403716)
(0 -0 0.000399941)
(0 -0 0.000392909)
(0 -0 0.00041007)
(0 -0 0.000503514)
(0 -0 0.00070918)
(0 -0 0.00100302)
(0 -0 0.00129733)
(0 -0 0.00148277)
(0 -0 0.00148358)
(0 -0 0.00128998)
(0 -0 0.000953986)
(0 -0 0.000559465)
(0 -0 0.000187715)
(0 -0 -0.000105641)
(0 -0 -0.000297669)
(0 -0 -0.000392714)
(0 -0 -0.000411386)
(0 -0 -0.000379741)
(0 -0 -0.00032172)
(0 -0 -0.000255417)
(0 -0 -0.000192338)
(0 -0 -0.000138394)
(0 -0 -9.55249e-05)
(0 -0 -6.32906e-05)
(0 -0 -4.00963e-05)
(0 -0 -2.40015e-05)
(0 -0 -1.31707e-05)
(0 -0 -6.07294e-06)
(0 -0 -1.52884e-06)
(0 -0 1.3198e-06)
(0 -0 3.07099e-06)
(0 -0 4.12734e-06)
(0 -0 4.75234e-06)
(0 -0 5.11454e-06)
(0 -0 5.31961e-06)
(0 -0 5.43284e-06)
(0 -0 5.49402e-06)
(0 -0 5.52723e-06)
(0 -0 5.54692e-06)
(0 -0 5.56183e-06)
(0 -0 5.57722e-06)
(0 -0 5.59635e-06)
(0 -0 5.62128e-06)
(0 -0 5.65337e-06)
(0 -0 5.69358e-06)
(0 -0 5.74259e-06)
(0 -0 5.80094e-06)
(0 -0 5.86903e-06)
(0 -0 5.94705e-06)
(0 -0 6.03481e-06)
(0 -0 6.13098e-06)
(0 -0 6.23183e-06)
(0 -0 6.33079e-06)
(0 -0 6.41663e-06)
(0 -0 0.000409618)
(0 -0 0.000405729)
(0 -0 0.000398467)
(0 -0 0.000416232)
(0 -0 0.000512885)
(0 -0 0.000725531)
(0 -0 0.00102923)
(0 -0 0.00133324)
(0 -0 0.00152455)
(0 -0 0.00152499)
(0 -0 0.00132465)
(0 -0 0.000977431)
(0 -0 0.000570043)
(0 -0 0.000186499)
(0 -0 -0.000115794)
(0 -0 -0.000313245)
(0 -0 -0.000410451)
(0 -0 -0.000428795)
(0 -0 -0.000395259)
(0 -0 -0.000334606)
(0 -0 -0.000265535)
(0 -0 -0.000199924)
(0 -0 -0.00014386)
(0 -0 -9.93288e-05)
(0 -0 -6.58532e-05)
(0 -0 -4.17685e-05)
(0 -0 -2.50558e-05)
(0 -0 -1.38078e-05)
(0 -0 -6.43445e-06)
(0 -0 -1.71158e-06)
(0 -0 1.25157e-06)
(0 -0 3.07561e-06)
(0 -0 4.17834e-06)
(0 -0 4.8332e-06)
(0 -0 5.21507e-06)
(0 -0 5.43363e-06)
(0 -0 5.55661e-06)
(0 -0 5.6253e-06)
(0 -0 5.66468e-06)
(0 -0 5.68972e-06)
(0 -0 5.70946e-06)
(0 -0 5.72936e-06)
(0 -0 5.75276e-06)
(0 -0 5.78177e-06)
(0 -0 5.81779e-06)
(0 -0 5.86176e-06)
(0 -0 5.91438e-06)
(0 -0 5.97619e-06)
(0 -0 6.04755e-06)
(0 -0 6.12867e-06)
(0 -0 6.21931e-06)
(0 -0 6.31812e-06)
(0 -0 6.42131e-06)
(0 -0 6.52212e-06)
(0 -0 6.60957e-06)
(0 -0 0.000415266)
(0 -0 0.000411257)
(0 -0 0.000403752)
(0 -0 0.000422162)
(0 -0 0.000522198)
(0 -0 0.000742169)
(0 -0 0.00105615)
(0 -0 0.0013702)
(0 -0 0.00156745)
(0 -0 0.00156725)
(0 -0 0.00135961)
(0 -0 0.00100045)
(0 -0 0.000579516)
(0 -0 0.000183665)
(0 -0 -0.000127854)
(0 -0 -0.000330793)
(0 -0 -0.000430051)
(0 -0 -0.000447848)
(0 -0 -0.00041215)
(0 -0 -0.00034859)
(0 -0 -0.000276503)
(0 -0 -0.000208152)
(0 -0 -0.000149806)
(0 -0 -0.000103489)
(0 -0 -6.8684e-05)
(0 -0 -4.36471e-05)
(0 -0 -2.62741e-05)
(0 -0 -1.45804e-05)
(0 -0 -6.91255e-06)
(0 -0 -1.99829e-06)
(0 -0 1.08788e-06)
(0 -0 2.99067e-06)
(0 -0 4.14405e-06)
(0 -0 4.83203e-06)
(0 -0 5.23622e-06)
(0 -0 5.47055e-06)
(0 -0 5.60533e-06)
(0 -0 5.68345e-06)
(0 -0 5.73082e-06)
(0 -0 5.76299e-06)
(0 -0 5.78931e-06)
(0 -0 5.81541e-06)
(0 -0 5.84475e-06)
(0 -0 5.87951e-06)
(0 -0 5.92108e-06)
(0 -0 5.97046e-06)
(0 -0 6.02831e-06)
(0 -0 6.09516e-06)
(0 -0 6.17139e-06)
(0 -0 6.25717e-06)
(0 -0 6.35227e-06)
(0 -0 6.45531e-06)
(0 -0 6.56252e-06)
(0 -0 6.66733e-06)
(0 -0 6.7598e-06)
(0 -0 0.000420659)
(0 -0 0.00041652)
(0 -0 0.000408762)
(0 -0 0.000427862)
(0 -0 0.00053148)
(0 -0 0.000759147)
(0 -0 0.00108385)
(0 -0 0.00140825)
(0 -0 0.00161144)
(0 -0 0.00161022)
(0 -0 0.00139458)
(0 -0 0.00102263)
(0 -0 0.000587384)
(0 -0 0.000178661)
(0 -0 -0.000142377)
(0 -0 -0.00035084)
(0 -0 -0.000451984)
(0 -0 -0.000468942)
(0 -0 -0.000430739)
(0 -0 -0.000363932)
(0 -0 -0.000288524)
(0 -0 -0.000217181)
(0 -0 -0.000156356)
(0 -0 -0.000108107)
(0 -0 -7.1865e-05)
(0 -0 -4.58014e-05)
(0 -0 -2.77175e-05)
(0 -0 -1.55438e-05)
(0 -0 -7.55868e-06)
(0 -0 -2.43778e-06)
(0 -0 7.81773e-07)
(0 -0 2.77058e-06)
(0 -0 3.97994e-06)
(0 -0 4.70519e-06)
(0 -0 5.13516e-06)
(0 -0 5.38827e-06)
(0 -0 5.53763e-06)
(0 -0 5.62781e-06)
(0 -0 5.68573e-06)
(0 -0 5.72753e-06)
(0 -0 5.7629e-06)
(0 -0 5.79769e-06)
(0 -0 5.83546e-06)
(0 -0 5.87845e-06)
(0 -0 5.92809e-06)
(0 -0 5.98536e-06)
(0 -0 6.05097e-06)
(0 -0 6.12543e-06)
(0 -0 6.20908e-06)
(0 -0 6.3021e-06)
(0 -0 6.40426e-06)
(0 -0 6.51418e-06)
(0 -0 6.62816e-06)
(0 -0 6.73995e-06)
(0 -0 6.84082e-06)
(0 -0 0.000425796)
(0 -0 0.000421519)
(0 -0 0.000413494)
(0 -0 0.00043334)
(0 -0 0.000540758)
(0 -0 0.000776522)
(0 -0 0.0011124)
(0 -0 0.00144742)
(0 -0 0.00165646)
(0 -0 0.00165368)
(0 -0 0.00142916)
(0 -0 0.00104345)
(0 -0 0.000593008)
(0 -0 0.000170796)
(0 -0 -0.000160052)
(0 -0 -0.000374025)
(0 -0 -0.000476811)
(0 -0 -0.000492552)
(0 -0 -0.000451412)
(0 -0 -0.000380938)
(0 -0 -0.000301839)
(0 -0 -0.0002272)
(0 -0 -0.000163658)
(0 -0 -0.000113299)
(0 -0 -7.54948e-05)
(0 -0 -4.83162e-05)
(0 -0 -2.94608e-05)
(0 -0 -1.67668e-05)
(0 -0 -8.43735e-06)
(0 -0 -3.09177e-06)
(0 -0 2.73444e-07)
(0 -0 2.35689e-06)
(0 -0 3.62861e-06)
(0 -0 4.39612e-06)
(0 -0 4.85605e-06)
(0 -0 5.13167e-06)
(0 -0 5.29907e-06)
(0 -0 5.40463e-06)
(0 -0 5.47635e-06)
(0 -0 5.53101e-06)
(0 -0 5.57868e-06)
(0 -0 5.62542e-06)
(0 -0 5.67491e-06)
(0 -0 5.72946e-06)
(0 -0 5.79056e-06)
(0 -0 5.85917e-06)
(0 -0 5.93602e-06)
(0 -0 6.0216e-06)
(0 -0 6.11628e-06)
(0 -0 6.22021e-06)
(0 -0 6.33314e-06)
(0 -0 6.45374e-06)
(0 -0 6.5784e-06)
(0 -0 6.70119e-06)
(0 -0 6.81467e-06)
(0 -0 0.000430677)
(0 -0 0.00042625)
(0 -0 0.000417945)
(0 -0 0.000438602)
(0 -0 0.000550064)
(0 -0 0.000794351)
(0 -0 0.00114185)
(0 -0 0.00148771)
(0 -0 0.00170237)
(0 -0 0.00169732)
(0 -0 0.00146288)
(0 -0 0.00106224)
(0 -0 0.000595609)
(0 -0 0.000159242)
(0 -0 -0.000181692)
(0 -0 -0.000401097)
(0 -0 -0.000505188)
(0 -0 -0.000519225)
(0 -0 -0.000474613)
(0 -0 -0.000399959)
(0 -0 -0.000316722)
(0 -0 -0.000238422)
(0 -0 -0.000171881)
(0 -0 -0.000119204)
(0 -0 -7.96874e-05)
(0 -0 -5.12898e-05)
(0 -0 -3.15926e-05)
(0 -0 -1.8331e-05)
(0 -0 -9.62606e-06)
(0 -0 -4.03496e-06)
(0 -0 -5.1e-07)
(0 -0 1.67794e-06)
(0 -0 3.01927e-06)
(0 -0 3.83476e-06)
(0 -0 4.32943e-06)
(0 -0 4.63182e-06)
(0 -0 4.82127e-06)
(0 -0 4.94609e-06)
(0 -0 5.03545e-06)
(0 -0 5.10682e-06)
(0 -0 5.17069e-06)
(0 -0 5.23333e-06)
(0 -0 5.29859e-06)
(0 -0 5.36883e-06)
(0 -0 5.44557e-06)
(0 -0 5.52983e-06)
(0 -0 5.62232e-06)
(0 -0 5.72354e-06)
(0 -0 5.83384e-06)
(0 -0 5.95338e-06)
(0 -0 6.08192e-06)
(0 -0 6.21813e-06)
(0 -0 6.35854e-06)
(0 -0 6.49754e-06)
(0 -0 6.62886e-06)
(0 -0 0.000435302)
(0 -0 0.000430713)
(0 -0 0.000422114)
(0 -0 0.000443657)
(0 -0 0.00055943)
(0 -0 0.000812691)
(0 -0 0.00117225)
(0 -0 0.00152909)
(0 -0 0.001749)
(0 -0 0.00174076)
(0 -0 0.00149511)
(0 -0 0.00107822)
(0 -0 0.000594281)
(0 -0 0.000143051)
(0 -0 -0.000208216)
(0 -0 -0.000432894)
(0 -0 -0.000537839)
(0 -0 -0.000549564)
(0 -0 -0.000500828)
(0 -0 -0.000421379)
(0 -0 -0.000333472)
(0 -0 -0.00025108)
(0 -0 -0.00018121)
(0 -0 -0.000125971)
(0 -0 -8.45686e-05)
(0 -0 -5.48324e-05)
(0 -0 -3.42124e-05)
(0 -0 -2.03294e-05)
(0 -0 -1.12134e-05)
(0 -0 -5.35342e-06)
(0 -0 -1.65307e-06)
(0 -0 6.50195e-07)
(0 -0 2.06901e-06)
(0 -0 2.93859e-06)
(0 -0 3.47313e-06)
(0 -0 3.80688e-06)
(0 -0 4.02268e-06)
(0 -0 4.17097e-06)
(0 -0 4.28218e-06)
(0 -0 4.37453e-06)
(0 -0 4.45895e-06)
(0 -0 4.54197e-06)
(0 -0 4.62758e-06)
(0 -0 4.71824e-06)
(0 -0 4.8155e-06)
(0 -0 4.92042e-06)
(0 -0 5.03371e-06)
(0 -0 5.15589e-06)
(0 -0 5.28729e-06)
(0 -0 5.42809e-06)
(0 -0 5.57804e-06)
(0 -0 5.73585e-06)
(0 -0 5.89813e-06)
(0 -0 6.05964e-06)
(0 -0 6.21518e-06)
(0 -0 0.000439671)
(0 -0 0.000434905)
(0 -0 0.000426)
(0 -0 0.000448514)
(0 -0 0.000568889)
(0 -0 0.000831587)
(0 -0 0.00120362)
(0 -0 0.00157149)
(0 -0 0.00179608)
(0 -0 0.00178353)
(0 -0 0.00152517)
(0 -0 0.00109051)
(0 -0 0.000588027)
(0 -0 0.000121193)
(0 -0 -0.000240614)
(0 -0 -0.000470308)
(0 -0 -0.000575533)
(0 -0 -0.000584203)
(0 -0 -0.000530564)
(0 -0 -0.000445595)
(0 -0 -0.000352398)
(0 -0 -0.000265416)
(0 -0 -0.000191836)
(0 -0 -0.000133756)
(0 -0 -9.02704e-05)
(0 -0 -5.90598e-05)
(0 -0 -3.74258e-05)
(0 -0 -2.28614e-05)
(0 -0 -1.32952e-05)
(0 -0 -7.14079e-06)
(0 -0 -3.24824e-06)
(0 -0 -8.18298e-07)
(0 -0 6.86093e-07)
(0 -0 1.61593e-06)
(0 -0 2.19543e-06)
(0 -0 2.56507e-06)
(0 -0 2.8115e-06)
(0 -0 2.98747e-06)
(0 -0 3.12477e-06)
(0 -0 3.24247e-06)
(0 -0 3.35196e-06)
(0 -0 3.46005e-06)
(0 -0 3.57088e-06)
(0 -0 3.68702e-06)
(0 -0 3.81009e-06)
(0 -0 3.94114e-06)
(0 -0 4.08092e-06)
(0 -0 4.22996e-06)
(0 -0 4.38859e-06)
(0 -0 4.55699e-06)
(0 -0 4.73491e-06)
(0 -0 4.92111e-06)
(0 -0 5.11228e-06)
(0 -0 5.30351e-06)
(0 -0 5.4906e-06)
(0 -0 0.000443784)
(0 -0 0.000438826)
(0 -0 0.000429602)
(0 -0 0.000453183)
(0 -0 0.000578469)
(0 -0 0.000851075)
(0 -0 0.00123596)
(0 -0 0.00161478)
(0 -0 0.00184334)
(0 -0 0.00182509)
(0 -0 0.0015523)
(0 -0 0.00109816)
(0 -0 0.000575806)
(0 -0 9.2609e-05)
(0 -0 -0.000279888)
(0 -0 -0.000514238)
(0 -0 -0.000619033)
(0 -0 -0.000623768)
(0 -0 -0.000564319)
(0 -0 -0.000472997)
(0 -0 -0.000373801)
(0 -0 -0.000281665)
(0 -0 -0.000203944)
(0 -0 -0.000142711)
(0 -0 -9.6922e-05)
(0 -0 -6.40864e-05)
(0 -0 -4.13381e-05)
(0 -0 -2.60267e-05)
(0 -0 -1.5968e-05)
(0 -0 -9.49221e-06)
(0 -0 -5.39012e-06)
(0 -0 -2.8221e-06)
(0 -0 -1.22433e-06)
(0 -0 -2.28497e-07)
(0 -0 4.00557e-07)
(0 -0 8.10122e-07)
(0 -0 1.091e-06)
(0 -0 1.29845e-06)
(0 -0 1.46576e-06)
(0 -0 1.61289e-06)
(0 -0 1.75172e-06)
(0 -0 1.88941e-06)
(0 -0 2.03027e-06)
(0 -0 2.17693e-06)
(0 -0 2.3311e-06)
(0 -0 2.49388e-06)
(0 -0 2.66602e-06)
(0 -0 2.84806e-06)
(0 -0 3.04035e-06)
(0 -0 3.24306e-06)
(0 -0 3.45596e-06)
(0 -0 3.67784e-06)
(0 -0 3.90549e-06)
(0 -0 4.13428e-06)
(0 -0 4.36091e-06)
(0 -0 0.000447642)
(0 -0 0.000442475)
(0 -0 0.000432922)
(0 -0 0.000457674)
(0 -0 0.000588191)
(0 -0 0.000871173)
(0 -0 0.00126923)
(0 -0 0.00165881)
(0 -0 0.00189041)
(0 -0 0.00186488)
(0 -0 0.00157572)
(0 -0 0.00110023)
(0 -0 0.000556601)
(0 -0 5.62813e-05)
(0 -0 -0.00032699)
(0 -0 -0.000565523)
(0 -0 -0.000669048)
(0 -0 -0.000668833)
(0 -0 -0.000602545)
(0 -0 -0.000503933)
(0 -0 -0.000397951)
(0 -0 -0.000300033)
(0 -0 -0.000217701)
(0 -0 -0.00015297)
(0 -0 -0.000104638)
(0 -0 -7.00148e-05)
(0 -0 -4.60444e-05)
(0 -0 -2.99163e-05)
(0 -0 -1.9321e-05)
(0 -0 -1.24962e-05)
(0 -0 -8.16735e-06)
(0 -0 -5.4505e-06)
(0 -0 -3.7524e-06)
(0 -0 -2.68581e-06)
(0 -0 -2.0036e-06)
(0 -0 -1.55105e-06)
(0 -0 -1.23284e-06)
(0 -0 -9.9098e-07)
(0 -0 -7.90554e-07)
(0 -0 -6.10659e-07)
(0 -0 -4.38827e-07)
(0 -0 -2.67601e-07)
(0 -0 -9.24683e-08)
(0 -0 8.93304e-08)
(0 -0 2.79551e-07)
(0 -0 4.79336e-07)
(0 -0 6.89459e-07)
(0 -0 9.10468e-07)
(0 -0 1.14274e-06)
(0 -0 1.38644e-06)
(0 -0 1.64136e-06)
(0 -0 1.90631e-06)
(0 -0 2.17818e-06)
(0 -0 2.45261e-06)
(0 -0 2.72711e-06)
(0 -0 0.000451245)
(0 -0 0.000445853)
(0 -0 0.00043596)
(0 -0 0.000461995)
(0 -0 0.00059807)
(0 -0 0.000891876)
(0 -0 0.00130336)
(0 -0 0.00170339)
(0 -0 0.00193692)
(0 -0 0.00190234)
(0 -0 0.00159469)
(0 -0 0.00109588)
(0 -0 0.000529505)
(0 -0 1.13235e-05)
(0 -0 -0.000382731)
(0 -0 -0.000624866)
(0 -0 -0.000726158)
(0 -0 -0.000719861)
(0 -0 -0.000645603)
(0 -0 -0.000538679)
(0 -0 -0.000425055)
(0 -0 -0.000320682)
(0 -0 -0.00023323)
(0 -0 -0.000164637)
(0 -0 -0.000113507)
(0 -0 -7.69243e-05)
(0 -0 -5.16191e-05)
(0 -0 -3.46025e-05)
(0 -0 -2.34258e-05)
(0 -0 -1.62247e-05)
(0 -0 -1.1653e-05)
(0 -0 -8.77785e-06)
(0 -0 -6.97397e-06)
(0 -0 -5.83338e-06)
(0 -0 -5.09592e-06)
(0 -0 -4.59881e-06)
(0 -0 -4.24179e-06)
(0 -0 -3.96395e-06)
(0 -0 -3.72858e-06)
(0 -0 -3.51378e-06)
(0 -0 -3.30644e-06)
(0 -0 -3.09879e-06)
(0 -0 -2.88609e-06)
(0 -0 -2.66547e-06)
(0 -0 -2.4351e-06)
(0 -0 -2.1938e-06)
(0 -0 -1.94076e-06)
(0 -0 -1.67543e-06)
(0 -0 -1.39743e-06)
(0 -0 -1.10656e-06)
(0 -0 -8.03023e-07)
(0 -0 -4.87974e-07)
(0 -0 -1.64424e-07)
(0 -0 1.63499e-07)
(0 -0 4.94047e-07)
(0 -0 0.000454595)
(0 -0 0.000448959)
(0 -0 0.000438719)
(0 -0 0.000466152)
(0 -0 0.000608106)
(0 -0 0.000913152)
(0 -0 0.00133825)
(0 -0 0.00174828)
(0 -0 0.00198251)
(0 -0 0.00193693)
(0 -0 0.00160858)
(0 -0 0.0010844)
(0 -0 0.000493812)
(0 -0 -4.29262e-05)
(0 -0 -0.000447693)
(0 -0 -0.000692752)
(0 -0 -0.000790751)
(0 -0 -0.000777151)
(0 -0 -0.000693714)
(0 -0 -0.000577398)
(0 -0 -0.000455233)
(0 -0 -0.000343699)
(0 -0 -0.000250601)
(0 -0 -0.000177767)
(0 -0 -0.000123577)
(0 -0 -8.48586e-05)
(0 -0 -5.81048e-05)
(0 -0 -4.01277e-05)
(0 -0 -2.8326e-05)
(0 -0 -2.0723e-05)
(0 -0 -1.58941e-05)
(0 -0 -1.28533e-05)
(0 -0 -1.09402e-05)
(0 -0 -9.72446e-06)
(0 -0 -8.93166e-06)
(0 -0 -8.39033e-06)
(0 -0 -7.99491e-06)
(0 -0 -7.68128e-06)
(0 -0 -7.41087e-06)
(0 -0 -7.16064e-06)
(0 -0 -6.91687e-06)
(0 -0 -6.67139e-06)
(0 -0 -6.41927e-06)
(0 -0 -6.15749e-06)
(0 -0 -5.88417e-06)
(0 -0 -5.59808e-06)
(0 -0 -5.29838e-06)
(0 -0 -4.9845e-06)
(0 -0 -4.65604e-06)
(0 -0 -4.31282e-06)
(0 -0 -3.95499e-06)
(0 -0 -3.58367e-06)
(0 -0 -3.20177e-06)
(0 -0 -2.8132e-06)
(0 -0 -2.41909e-06)
(0 -0 0.000457693)
(0 -0 0.000451796)
(0 -0 0.000441204)
(0 -0 0.000470148)
(0 -0 0.000618284)
(0 -0 0.00093494)
(0 -0 0.00137374)
(0 -0 0.00179324)
(0 -0 0.00202682)
(0 -0 0.00196823)
(0 -0 0.00161691)
(0 -0 0.00106533)
(0 -0 0.000449109)
(0 -0 -0.000106809)
(0 -0 -0.000522139)
(0 -0 -0.000769368)
(0 -0 -0.00086295)
(0 -0 -0.000840776)
(0 -0 -0.000746917)
(0 -0 -0.000620106)
(0 -0 -0.000488487)
(0 -0 -0.000369081)
(0 -0 -0.000269806)
(0 -0 -0.000192353)
(0 -0 -0.000134842)
(0 -0 -9.38152e-05)
(0 -0 -6.55014e-05)
(0 -0 -4.64951e-05)
(0 -0 -3.40275e-05)
(0 -0 -2.59998e-05)
(0 -0 -2.09023e-05)
(0 -0 -1.7691e-05)
(0 -0 -1.56679e-05)
(0 -0 -1.43782e-05)
(0 -0 -1.35323e-05)
(0 -0 -1.29494e-05)
(0 -0 -1.25182e-05)
(0 -0 -1.21711e-05)
(0 -0 -1.18676e-05)
(0 -0 -1.15834e-05)
(0 -0 -1.13042e-05)
(0 -0 -1.10214e-05)
(0 -0 -1.07298e-05)
(0 -0 -1.04263e-05)
(0 -0 -1.01089e-05)
(0 -0 -9.77643e-06)
(0 -0 -9.42792e-06)
(0 -0 -9.06281e-06)
(0 -0 -8.6807e-06)
(0 -0 -8.28137e-06)
(0 -0 -7.86496e-06)
(0 -0 -7.43254e-06)
(0 -0 -6.98691e-06)
(0 -0 -6.53175e-06)
(0 -0 -6.06762e-06)
(0 -0 0.00046054)
(0 -0 0.000454367)
(0 -0 0.000443419)
(0 -0 0.000473982)
(0 -0 0.000628574)
(0 -0 0.000957145)
(0 -0 0.00140967)
(0 -0 0.00183801)
(0 -0 0.00206954)
(0 -0 0.00199595)
(0 -0 0.00161945)
(0 -0 0.00103853)
(0 -0 0.000395366)
(0 -0 -0.000180258)
(0 -0 -0.000605929)
(0 -0 -0.000854531)
(0 -0 -0.000942553)
(0 -0 -0.000910537)
(0 -0 -0.000805031)
(0 -0 -0.000666643)
(0 -0 -0.000524683)
(0 -0 -0.000396714)
(0 -0 -0.000290751)
(0 -0 -0.000208315)
(0 -0 -0.000147235)
(0 -0 -0.000103736)
(0 -0 -7.37586e-05)
(0 -0 -5.36602e-05)
(0 -0 -4.04906e-05)
(0 -0 -3.20196e-05)
(0 -0 -2.66453e-05)
(0 -0 -2.3262e-05)
(0 -0 -2.11308e-05)
(0 -0 -1.97711e-05)
(0 -0 -1.88771e-05)
(0 -0 -1.82577e-05)
(0 -0 -1.77957e-05)
(0 -0 -1.74198e-05)
(0 -0 -1.70875e-05)
(0 -0 -1.67731e-05)
(0 -0 -1.64617e-05)
(0 -0 -1.61441e-05)
(0 -0 -1.58151e-05)
(0 -0 -1.54714e-05)
(0 -0 -1.51109e-05)
(0 -0 -1.47323e-05)
(0 -0 -1.43348e-05)
(0 -0 -1.39177e-05)
(0 -0 -1.34806e-05)
(0 -0 -1.30233e-05)
(0 -0 -1.25458e-05)
(0 -0 -1.20492e-05)
(0 -0 -1.15362e-05)
(0 -0 -1.101e-05)
(0 -0 -1.0471e-05)
(0 -0 0.000463136)
(0 -0 0.000456673)
(0 -0 0.000445369)
(0 -0 0.000477648)
(0 -0 0.000638926)
(0 -0 0.000979639)
(0 -0 0.00144581)
(0 -0 0.00188234)
(0 -0 0.00211045)
(0 -0 0.00201997)
(0 -0 0.00161625)
(0 -0 0.00100425)
(0 -0 0.000332998)
(0 -0 -0.000262737)
(0 -0 -0.000698465)
(0 -0 -0.000947637)
(0 -0 -0.001029)
(0 -0 -0.000985934)
(0 -0 -0.000867629)
(0 -0 -0.000716655)
(0 -0 -0.000563532)
(0 -0 -0.000426364)
(0 -0 -0.000313244)
(0 -0 -0.000225495)
(0 -0 -0.000160622)
(0 -0 -0.000114504)
(0 -0 -8.27717e-05)
(0 -0 -6.15271e-05)
(0 -0 -4.76262e-05)
(0 -0 -3.86982e-05)
(0 -0 -3.30431e-05)
(0 -0 -2.94895e-05)
(0 -0 -2.72554e-05)
(0 -0 -2.58325e-05)
(0 -0 -2.48977e-05)
(0 -0 -2.42495e-05)
(0 -0 -2.37641e-05)
(0 -0 -2.33665e-05)
(0 -0 -2.30118e-05)
(0 -0 -2.26733e-05)
(0 -0 -2.2335e-05)
(0 -0 -2.19876e-05)
(0 -0 -2.16254e-05)
(0 -0 -2.12452e-05)
(0 -0 -2.08447e-05)
(0 -0 -2.04226e-05)
(0 -0 -1.9978e-05)
(0 -0 -1.95103e-05)
(0 -0 -1.9019e-05)
(0 -0 -1.8504e-05)
(0 -0 -1.79651e-05)
(0 -0 -1.74034e-05)
(0 -0 -1.68211e-05)
(0 -0 -1.62214e-05)
(0 -0 -1.56045e-05)
(0 -0 0.000465484)
(0 -0 0.000458721)
(0 -0 0.000447063)
(0 -0 0.000481135)
(0 -0 0.00064927)
(0 -0 0.00100226)
(0 -0 0.00148193)
(0 -0 0.00192597)
(0 -0 0.00214941)
(0 -0 0.00204036)
(0 -0 0.00160769)
(0 -0 0.000963144)
(0 -0 0.000262898)
(0 -0 -0.000353207)
(0 -0 -0.00079866)
(0 -0 -0.00104764)
(0 -0 -0.00112133)
(0 -0 -0.00106615)
(0 -0 -0.000934027)
(0 -0 -0.00076959)
(0 -0 -0.000604589)
(0 -0 -0.000457676)
(0 -0 -0.000337)
(0 -0 -0.000243657)
(0 -0 -0.000174802)
(0 -0 -0.000125944)
(0 -0 -9.23816e-05)
(0 -0 -6.99487e-05)
(0 -0 -5.52955e-05)
(0 -0 -4.59027e-05)
(0 -0 -3.99674e-05)
(0 -0 -3.62488e-05)
(0 -0 -3.39197e-05)
(0 -0 -3.24429e-05)
(0 -0 -3.14772e-05)
(0 -0 -3.081e-05)
(0 -0 -3.03108e-05)
(0 -0 -2.99007e-05)
(0 -0 -2.95324e-05)
(0 -0 -2.91778e-05)
(0 -0 -2.88202e-05)
(0 -0 -2.845e-05)
(0 -0 -2.80611e-05)
(0 -0 -2.76502e-05)
(0 -0 -2.7215e-05)
(0 -0 -2.67541e-05)
(0 -0 -2.62667e-05)
(0 -0 -2.5752e-05)
(0 -0 -2.52096e-05)
(0 -0 -2.46393e-05)
(0 -0 -2.4041e-05)
(0 -0 -2.34153e-05)
(0 -0 -2.27641e-05)
(0 -0 -2.20897e-05)
(0 -0 -2.13952e-05)
(0 -0 0.000467585)
(0 -0 0.000460516)
(0 -0 0.000448507)
(0 -0 0.000484429)
(0 -0 0.000659521)
(0 -0 0.00102483)
(0 -0 0.00151778)
(0 -0 0.00196868)
(0 -0 0.00218638)
(0 -0 0.00205742)
(0 -0 0.00159445)
(0 -0 0.000916292)
(0 -0 0.00018644)
(0 -0 -0.000450131)
(0 -0 -0.00090495)
(0 -0 -0.00115306)
(0 -0 -0.00121823)
(0 -0 -0.00115005)
(0 -0 -0.0010033)
(0 -0 -0.000824703)
(0 -0 -0.000647266)
(0 -0 -0.000490183)
(0 -0 -0.000361642)
(0 -0 -0.000262491)
(0 -0 -0.000189513)
(0 -0 -0.000137826)
(0 -0 -0.000102382)
(0 -0 -7.87331e-05)
(0 -0 -6.3316e-05)
(0 -0 -5.34572e-05)
(0 -0 -4.72466e-05)
(0 -0 -4.33716e-05)
(0 -0 -4.0958e-05)
(0 -0 -3.94387e-05)
(0 -0 -3.84539e-05)
(0 -0 -3.77793e-05)
(0 -0 -3.72776e-05)
(0 -0 -3.68659e-05)
(0 -0 -3.64944e-05)
(0 -0 -3.61336e-05)
(0 -0 -3.57663e-05)
(0 -0 -3.5382e-05)
(0 -0 -3.49748e-05)
(0 -0 -3.4541e-05)
(0 -0 -3.40783e-05)
(0 -0 -3.35855e-05)
(0 -0 -3.30614e-05)
(0 -0 -3.25054e-05)
(0 -0 -3.19172e-05)
(0 -0 -3.12963e-05)
(0 -0 -3.06427e-05)
(0 -0 -2.99566e-05)
(0 -0 -2.92384e-05)
(0 -0 -2.84947e-05)
(0 -0 -2.77104e-05)
(0 -0 0.000469405)
(0 -0 0.000462031)
(0 -0 0.000449686)
(0 -0 0.000487446)
(0 -0 0.000669372)
(0 -0 0.00104667)
(0 -0 0.00155234)
(0 -0 0.00200942)
(0 -0 0.00222071)
(0 -0 0.00207138)
(0 -0 0.00157792)
(0 -0 0.000866253)
(0 -0 0.000107155)
(0 -0 -0.000549375)
(0 -0 -0.00101301)
(0 -0 -0.00125973)
(0 -0 -0.00131595)
(0 -0 -0.00123444)
(0 -0 -0.00107282)
(0 -0 -0.000879906)
(0 -0 -0.000689938)
(0 -0 -0.000522631)
(0 -0 -0.000386203)
(0 -0 -0.000281239)
(0 -0 -0.000204141)
(0 -0 -0.000149636)
(0 -0 -0.000112323)
(0 -0 -8.74734e-05)
(0 -0 -7.13075e-05)
(0 -0 -6.09976e-05)
(0 -0 -5.45262e-05)
(0 -0 -5.05089e-05)
(0 -0 -4.80244e-05)
(0 -0 -4.64756e-05)
(0 -0 -4.5484e-05)
(0 -0 -4.4814e-05)
(0 -0 -4.43213e-05)
(0 -0 -4.39189e-05)
(0 -0 -4.35546e-05)
(0 -0 -4.31977e-05)
(0 -0 -4.283e-05)
(0 -0 -4.24408e-05)
(0 -0 -4.20238e-05)
(0 -0 -4.15752e-05)
(0 -0 -4.10928e-05)
(0 -0 -4.05752e-05)
(0 -0 -4.00213e-05)
(0 -0 -3.94305e-05)
(0 -0 -3.88023e-05)
(0 -0 -3.81364e-05)
(0 -0 -3.74325e-05)
(0 -0 -3.66904e-05)
(0 -0 -3.59112e-05)
(0 -0 -3.509e-05)
(0 -0 -3.4241e-05)
(0 -0 0.000470978)
(0 -0 0.000463304)
(0 -0 0.000450635)
(0 -0 0.00049021)
(0 -0 0.000678835)
(0 -0 0.00106781)
(0 -0 0.00158574)
(0 -0 0.0020485)
(0 -0 0.00225298)
(0 -0 0.00208307)
(0 -0 0.00155919)
(0 -0 0.00081432)
(0 -0 2.64072e-05)
(0 -0 -0.000649605)
(0 -0 -0.00112162)
(0 -0 -0.00136659)
(0 -0 -0.00141361)
(0 -0 -0.0013186)
(0 -0 -0.00114203)
(0 -0 -0.00093476)
(0 -0 -0.000732257)
(0 -0 -0.000554743)
(0 -0 -0.000410449)
(0 -0 -0.000299697)
(0 -0 -0.000218505)
(0 -0 -0.000161203)
(0 -0 -0.000122043)
(0 -0 -9.60104e-05)
(0 -0 -7.91129e-05)