/*--------------------------------*- C++ -*----------------------------------*\
| =========                 |                                                 |
| \\      /  F ield         | OpenFOAM: The Open Source CFD Toolbox           |
|  \\    /   O peration     | Version:  2412                                  |
|   \\  /    A nd           | Website:  www.openfoam.com                      |
|    \\/     M anipulation  |                                                 |
\*---------------------------------------------------------------------------*/
FoamFile
{
    version     2.0;
    format      ascii;
    arch        "LSB;label=32;scalar=64";
    class       volScalarField;
    location    "15";
    object      p;
}
// * * * * * * * * * * * * * * * * * * * * * * * * * * * * * * * * * * * * * //

dimensions      [0 2 -2 0 0 0 0];

internalField   nonuniform List<scalar> 
5285
(
-0.000772001
-0.000714265
-0.000736878
-0.000748838
-0.000759369
-0.00076762
-0.000772566
-0.000774343
-0.00077324
-0.000769448
-0.000763141
-0.000754515
-0.000743773
-0.000731125
-0.000716776
-0.000700932
-0.000683795
-0.00066556
-0.000646415
-0.000626539
-0.000606104
-0.000585267
-0.000564176
-0.000542968
-0.000660829
-0.000682516
-0.000694734
-0.000705574
-0.000714281
-0.000719953
-0.000722704
-0.000722788
-0.000720368
-0.000715599
-0.000708651
-0.000699707
-0.000688951
-0.000676567
-0.000662741
-0.000647653
-0.000631482
-0.000614399
-0.000596567
-0.000578143
-0.000559273
-0.000540095
-0.000520736
-0.000611284
-0.000632093
-0.000644484
-0.000655546
-0.00066461
-0.000670883
-0.000674465
-0.000675573
-0.000674351
-0.000670933
-0.00066547
-0.000658124
-0.000649057
-0.000638437
-0.000626428
-0.000613195
-0.000598897
-0.000583691
-0.000567726
-0.000551146
-0.000534086
-0.000516673
-0.000499027
-0.000565273
-0.000585247
-0.000597744
-0.000608957
-0.000618296
-0.000625065
-0.000629351
-0.000631343
-0.000631165
-0.000628935
-0.000624785
-0.00061886
-0.000611304
-0.000602266
-0.000591894
-0.000580337
-0.000567738
-0.000554241
-0.000539982
-0.000525092
-0.000509696
-0.000493912
-0.00047785
-0.00052247
-0.000541653
-0.000554202
-0.000565507
-0.000575052
-0.000582229
-0.000587112
-0.000589865
-0.000590597
-0.000589411
-0.000586423
-0.000581761
-0.000575555
-0.000567936
-0.000559039
-0.000548997
-0.000537941
-0.000526
-0.000513298
-0.000499957
-0.000486091
-0.000471808
-0.000457213
-0.000482583
-0.000501018
-0.000513574
-0.000524925
-0.000534618
-0.000542126
-0.000547514
-0.000550923
-0.000552448
-0.000552178
-0.000550218
-0.00054668
-0.00054168
-0.000535336
-0.000527768
-0.000519096
-0.00050944
-0.000498915
-0.000487637
-0.000475715
-0.000463255
-0.000450358
-0.00043712
-0.000445357
-0.000463084
-0.00047561
-0.000486966
-0.000496759
-0.000504535
-0.000510347
-0.00051432
-0.000516534
-0.00051707
-0.000516019
-0.000513481
-0.000509559
-0.00050436
-0.00049799
-0.000490558
-0.000482172
-0.000472938
-0.00046296
-0.00045234
-0.000441173
-0.000429554
-0.000417571
-0.000410561
-0.000427619
-0.000440085
-0.000451413
-0.000461266
-0.000469253
-0.000475422
-0.000479877
-0.000482692
-0.000483935
-0.000483689
-0.000482041
-0.000479083
-0.000474911
-0.000469621
-0.000463311
-0.000456079
-0.000448021
-0.000439232
-0.000429804
-0.000419827
-0.000409386
-0.000398565
-0.000377992
-0.000394416
-0.000406797
-0.00041807
-0.000427949
-0.000436101
-0.000442566
-0.000447435
-0.000450771
-0.000452635
-0.0004531
-0.000452244
-0.000450149
-0.0004469
-0.000442584
-0.00043729
-0.000431105
-0.000424118
-0.000416416
-0.000408082
-0.000399198
-0.000389845
-0.000380098
-0.000347464
-0.000363289
-0.000375564
-0.000386762
-0.000396638
-0.000404914
-0.000411624
-0.000416845
-0.000420633
-0.000423042
-0.000424136
-0.000423984
-0.00042266
-0.000420241
-0.000416804
-0.000412429
-0.000407196
-0.000401186
-0.000394476
-0.000387145
-0.000379268
-0.000370917
-0.000362164
-0.000318812
-0.00033407
-0.000346224
-0.000357327
-0.000367178
-0.000375543
-0.000382453
-0.000387974
-0.000392153
-0.000395039
-0.000396689
-0.000397164
-0.00039653
-0.000394856
-0.000392212
-0.000388669
-0.000384302
-0.000379181
-0.00037338
-0.000366968
-0.000360016
-0.00035259
-0.000344756
-0.000291888
-0.000306609
-0.000318629
-0.000329623
-0.000339428
-0.000347853
-0.000354925
-0.000360698
-0.000365216
-0.00036852
-0.00037066
-0.000371693
-0.000371676
-0.000370671
-0.000368742
-0.000365954
-0.000362372
-0.000358063
-0.000353092
-0.000347524
-0.000341422
-0.00033485
-0.000327867
-0.000266556
-0.000280769
-0.000292644
-0.000303518
-0.000313261
-0.000321721
-0.000328921
-0.000334907
-0.000339715
-0.000343384
-0.000345957
-0.000347486
-0.000348021
-0.000347618
-0.000346334
-0.000344229
-0.000341361
-0.000337792
-0.00033358
-0.000328786
-0.000323468
-0.000317683
-0.000311487
-0.000242695
-0.000256427
-0.000268149
-0.000278894
-0.000288561
-0.000297035
-0.000304333
-0.000310496
-0.000315553
-0.00031954
-0.000322496
-0.000324465
-0.000325493
-0.000325631
-0.00032493
-0.000323444
-0.000321226
-0.000318331
-0.000314814
-0.00031073
-0.000306132
-0.000301073
-0.000295606
-0.000220193
-0.000233471
-0.000245034
-0.000255642
-0.000265223
-0.000273692
-0.000281064
-0.000287372
-0.000292642
-0.000296906
-0.000300199
-0.000302558
-0.000304028
-0.000304652
-0.000304476
-0.00030355
-0.000301923
-0.000299644
-0.000296763
-0.00029333
-0.000289395
-0.000285007
-0.000280213
-0.00019895
-0.000211799
-0.000223198
-0.000233665
-0.00024315
-0.000251598
-0.000259022
-0.000265448
-0.0002709
-0.000275404
-0.000278992
-0.000281699
-0.000283562
-0.000284622
-0.000284922
-0.000284504
-0.000283413
-0.000281696
-0.000279396
-0.000276562
-0.000273237
-0.000269467
-0.000265297
-0.000178879
-0.000191321
-0.000202553
-0.000212872
-0.000222254
-0.000230669
-0.000238126
-0.000244646
-0.00025025
-0.000254962
-0.00025881
-0.000261824
-0.000264039
-0.000265492
-0.000266219
-0.000266262
-0.00026566
-0.000264454
-0.000262688
-0.000260402
-0.000257639
-0.00025444
-0.000250846
-0.000159903
-0.00017196
-0.000183014
-0.000193181
-0.000202455
-0.000210825
-0.000218298
-0.000224892
-0.000230623
-0.000235514
-0.000239589
-0.000242876
-0.000245405
-0.00024721
-0.000248324
-0.000248783
-0.000248626
-0.000247888
-0.000246609
-0.000244827
-0.000242581
-0.00023991
-0.00023685
-0.000554662
-0.0005953
-0.000510254
-0.000548514
-0.000585753
-0.000621906
-0.000657023
-0.000690512
-0.000720919
-0.000468963
-0.000505055
-0.000540153
-0.000574197
-0.000607216
-0.000638676
-0.000667351
-0.000430516
-0.000464625
-0.000497764
-0.000529877
-0.000560985
-0.000590602
-0.000617695
-0.000394669
-0.000426958
-0.000458302
-0.000488646
-0.000518006
-0.000545941
-0.000571585
-0.000361194
-0.000391812
-0.000421508
-0.00045023
-0.000477989
-0.000504387
-0.000528696
-0.000329887
-0.000358966
-0.000387145
-0.000414377
-0.000440665
-0.000465656
-0.000488735
-0.000300565
-0.000328223
-0.000355004
-0.000380863
-0.000405798
-0.000429494
-0.000451438
-0.000273066
-0.000299409
-0.000324898
-0.000349488
-0.000373175
-0.000395681
-0.000416573
-0.000247242
-0.000272367
-0.000296659
-0.000320076
-0.00034261
-0.000364017
-0.000383935
-0.000222955
-0.000246952
-0.000270136
-0.000292466
-0.000313933
-0.000334325
-0.000353338
-0.000200084
-0.000223038
-0.000245193
-0.000266515
-0.000286991
-0.000306443
-0.000324615
-0.000178535
-0.000200513
-0.000221709
-0.000242092
-0.000261649
-0.000280227
-0.000297617
-0.000158209
-0.000179272
-0.000199573
-0.000219081
-0.000237782
-0.000255549
-0.000272208
-0.000139011
-0.000159219
-0.000178684
-0.000197376
-0.000215279
-0.000232289
-0.000248267
-0.000120858
-0.000140268
-0.000158951
-0.000176879
-0.000194037
-0.000210341
-0.000225682
-0.000103677
-0.000122338
-0.000140289
-0.000157503
-0.000173965
-0.000189609
-0.000204353
-8.73993e-05
-0.000105358
-0.000122621
-0.000139166
-0.000154975
-0.000170002
-0.000184187
-7.19646e-05
-8.92606e-05
-0.000105877
-0.000121793
-0.000136992
-0.000151444
-0.000165109
-5.73189e-05
-7.39996e-05
-9.00139e-05
-0.000105342
-0.000119968
-0.000133877
-0.000147044
-0.00047061
-0.000513071
-0.000219712
-0.00026692
-0.000307472
-0.000348592
-0.00039013
-0.000431024
-0.000471064
-0.00019431
-0.000238709
-0.000277207
-0.00031619
-0.000355483
-0.000394137
-0.000431968
-0.000170377
-0.000212224
-0.000248847
-0.000285873
-0.000323111
-0.000359718
-0.000395523
-0.000147817
-0.000187343
-0.000222251
-0.000257481
-0.000292834
-0.000327563
-0.000361514
-0.000126541
-0.000163949
-0.000197283
-0.00023086
-0.000264482
-0.000297484
-0.00032973
-0.000106459
-0.000141932
-0.000173816
-0.00020587
-0.000237895
-0.000269306
-0.000299979
-8.74915e-05
-0.00012119
-0.000151736
-0.000182381
-0.000212932
-0.000242874
-0.000272096
-6.95637e-05
-0.000101633
-0.000130939
-0.000160279
-0.000189467
-0.000218051
-0.000245929
-5.26072e-05
-8.31758e-05
-0.000111331
-0.000139457
-0.00016738
-0.000194703
-0.00022134
-3.65582e-05
-6.57431e-05
-9.28262e-05
-0.000119823
-0.000146566
-0.000172712
-0.000198194
-2.13582e-05
-4.92643e-05
-7.5347e-05
-0.000101288
-0.000126935
-0.000152006
-0.000176386
-6.95264e-06
-3.36747e-05
-5.88221e-05
-8.37769e-05
-0.000108397
-0.000132439
-0.000155825
6.70877e-06
-1.89151e-05
-4.31863e-05
-6.72181e-05
-9.08823e-05
-0.000113975
-0.000136428
1.96726e-05
-4.93117e-06
-2.838e-05
-5.15456e-05
-7.43121e-05
-9.65223e-05
-0.000118098
3.19821e-05
8.32795e-06
-1.43469e-05
-3.67021e-05
-5.86447e-05
-8.00067e-05
-0.000100758
4.3677e-05
2.09087e-05
-1.03334e-06
-2.26264e-05
-4.37727e-05
-6.43573e-05
-8.43375e-05
5.47924e-05
3.28458e-05
1.15854e-05
-9.27125e-06
-2.9671e-05
-4.95216e-05
-6.8776e-05
6.53712e-05
4.4197e-05
2.35911e-05
3.41339e-06
-1.62891e-05
-3.54468e-05
-5.40164e-05
7.54424e-05
5.50036e-05
3.50264e-05
1.54937e-05
-3.55436e-06
-2.2065e-05
-3.99976e-05
0.000999357
0.000989838
0.000979265
0.000967568
0.000954675
0.000940513
0.000925004
0.000908073
0.000889642
0.000869634
0.000847974
0.000824586
0.0007994
0.000772348
0.00074337
0.00071241
0.000679423
0.000644372
0.000607236
0.000568003
0.000526682
0.000483297
0.000437892
0.000390536
0.000341317
0.000290351
0.00023778
0.000183771
0.000128521
7.22534e-05
1.52114e-05
-4.23746e-05
-9.99216e-05
-0.000156521
0.000976951
0.000967023
0.00095607
0.000944029
0.000930833
0.000916415
0.000900707
0.00088364
0.000865144
0.000845153
0.000823599
0.000800418
0.00077555
0.000748937
0.000720529
0.000690282
0.000658162
0.000624143
0.00058821
0.000550365
0.00051062
0.000469009
0.000425579
0.000380401
0.000333564
0.00028518
0.000235386
0.000184341
0.000132226
7.92492e-05
2.56346e-05
-2.84084e-05
-8.23502e-05
-0.000135365
0.000955424
0.000945143
0.000933868
0.000921542
0.000908103
0.00089349
0.000877642
0.000860498
0.000841996
0.000822076
0.000800681
0.000777755
0.000753247
0.000727108
0.000699299
0.000669785
0.000638539
0.000605546
0.000570799
0.000534305
0.000496086
0.000456176
0.000414629
0.000371515
0.000326923
0.000280962
0.000233761
0.000185469
0.000136258
8.63191e-05
3.58572e-05
-1.49361e-05
-6.55806e-05
-0.000115328
0.000934755
0.000924172
0.000912629
0.00090007
0.000886441
0.000871688
0.000855754
0.000838584
0.000820126
0.000800326
0.000779134
0.000756503
0.000732389
0.000706753
0.000679563
0.000650793
0.000620423
0.000588444
0.000554858
0.000519678
0.000482928
0.000444649
0.000404894
0.000363735
0.000321258
0.000277568
0.000232788
0.000187059
0.000140539
9.34057e-05
4.58473e-05
-1.96115e-06
-4.95849e-05
-9.63476e-05
0.000914919
0.000904083
0.000892319
0.000879576
0.000865806
0.000850959
0.000834986
0.000817838
0.000799466
0.000779827
0.000758876
0.000736572
0.000712881
0.000687769
0.000661212
0.00063319
0.000603691
0.000572712
0.00054026
0.000506351
0.000471016
0.000434295
0.000396245
0.000356935
0.000316449
0.000274889
0.000232371
0.000189026
0.000145003
0.000100464
5.55825e-05
1.05195e-05
-3.43324e-05
-7.83637e-05
0.000895894
0.000884848
0.000872906
0.000860023
0.000846156
0.000831259
0.000815288
0.000798201
0.000779955
0.000760511
0.000739831
0.000717883
0.000694635
0.000670063
0.000644147
0.000616873
0.000588236
0.000558237
0.000526888
0.000494209
0.000460231
0.000424999
0.000388568
0.000351006
0.000312396
0.000272834
0.000232429
0.000191304
0.000149598
0.000107461
6.50513e-05
2.25172e-05
-1.97872e-05
-6.13141e-05
0.000877655
0.000866438
0.000854358
0.000841376
0.00082745
0.000812541
0.000796609
0.000779618
0.000761529
0.00074231
0.000721929
0.000700356
0.000677569
0.000653547
0.000628275
0.000601746
0.000573958
0.000544917
0.000514638
0.000483144
0.000450468
0.000416656
0.000381762
0.000345854
0.000309009
0.000271321
0.000232891
0.000193836
0.000154282
0.000114371
7.42464e-05
3.40449e-05
-5.91445e-06
-4.51411e-05
0.000860177
0.000848825
0.000836643
0.000823596
0.000809646
0.000794759
0.000778899
0.000762034
0.000744131
0.000725162
0.000705099
0.000683919
0.000661604
0.000638138
0.000613511
0.000587718
0.000560764
0.000532656
0.000503413
0.00047306
0.000441631
0.000409172
0.000375737
0.000341391
0.000306209
0.000270278
0.000233696
0.00019657
0.000159019
0.000121172
8.31626e-05
4.51157e-05
7.31829e-06
-2.9792e-05
0.000843433
0.000831979
0.000819728
0.000806648
0.000792706
0.00077787
0.00076211
0.000745397
0.000727703
0.000709003
0.000689276
0.000668503
0.000646667
0.000623759
0.000599772
0.000574706
0.000548567
0.000521367
0.000493124
0.000463868
0.000433632
0.000402462
0.00037041
0.00033754
0.000303924
0.000269643
0.00023479
0.000199465
0.000163778
0.000127848
9.1798e-05
5.5744e-05
1.99425e-05
-1.52171e-05
0.000827398
0.000815871
0.00080358
0.000790496
0.000776588
0.00076183
0.000746194
0.000729655
0.00071219
0.000693778
0.000674399
0.00065404
0.000632689
0.000610338
0.000586986
0.000562633
0.000537289
0.000510969
0.000483692
0.000455489
0.000426393
0.000396449
0.00036571
0.000334235
0.000302093
0.000269361
0.000236127
0.000202483
0.000168532
0.000134384
0.000100153
6.59445e-05
3.19886e-05
-1.37025e-06
0.000812045
0.000800473
0.000788168
0.000775104
0.000761256
0.000746598
0.000731107
0.000714762
0.000697541
0.000679429
0.000660409
0.000640471
0.000619606
0.000597809
0.000575081
0.000551427
0.000526858
0.000501389
0.000475043
0.000447849
0.000419842
0.000391066
0.00036157
0.000331412
0.000300659
0.000269384
0.000237666
0.000205594
0.000173262
0.000140772
0.00010823
7.57327e-05
4.34857e-05
1.17919e-05
0.000797349
0.000785755
0.00077346
0.000760439
0.000746671
0.000732133
0.000716806
0.000700669
0.000683707
0.000665905
0.000647251
0.000627737
0.000607356
0.000586108
0.000563995
0.000541023
0.000517206
0.000492561
0.00046711
0.000440883
0.000413915
0.000386249
0.000357932
0.00032902
0.000299576
0.000269668
0.000239372
0.000208769
0.000177949
0.000147004
0.000116032
8.51241e-05
5.44614e-05
2.43098e-05
0.000783284
0.00077169
0.000759425
0.000746468
0.000732798
0.000718398
0.000703248
0.000687334
0.000670641
0.000653157
0.000634873
0.000615783
0.000595885
0.000575177
0.000553666
0.00053136
0.000508273
0.000484422
0.000459832
0.000434531
0.000408555
0.000381944
0.000354744
0.00032701
0.000298799
0.000270177
0.000241214
0.000211988
0.000182579
0.000153075
0.000123565
9.41339e-05
6.49423e-05
3.6221e-05
0.000769825
0.00075825
0.000746033
0.000733157
0.000719603
0.000705354
0.000690395
0.000674714
0.000658297
0.000641137
0.000623226
0.00060456
0.000585138
0.000564963
0.000544041
0.000522382
0.000500001
0.000476917
0.000453153
0.000428738
0.000403708
0.0003781
0.00035196
0.000325338
0.00029829
0.000270878
0.000243167
0.00021523
0.000187141
0.000158981
0.000130834
0.000102778
7.49535e-05
4.75607e-05
0.000756947
0.000745408
0.000733257
0.000720476
0.000707051
0.000692966
0.000678209
0.000662768
0.000646635
0.000629802
0.000612264
0.000594019
0.000575068
0.000555415
0.000535068
0.000514038
0.00049234
0.000469993
0.000447023
0.000423456
0.000399326
0.000374672
0.000349536
0.000323967
0.000298017
0.000271743
0.000245208
0.000218478
0.000191625
0.000164721
0.000137845
0.00011107
8.45189e-05
5.83617e-05
0.000744625
0.000733139
0.000721067
0.000708396
0.000695111
0.0006812
0.000666653
0.00065146
0.000635614
0.00061911
0.000601944
0.000584116
0.000565628
0.000546487
0.000526699
0.000506279
0.000485241
0.000463605
0.000441394
0.000418638
0.000395368
0.00037162
0.000347437
0.000322863
0.000297948
0.000272746
0.000247317
0.00022172
0.000196024
0.000170295
0.000144606
0.000119026
9.36609e-05
6.86545e-05
0.000732838
0.000721416
0.000709437
0.000696886
0.000683751
0.000670024
0.000655694
0.000640753
0.000625197
0.000609022
0.000592225
0.000574809
0.000556776
0.000538134
0.000518892
0.000499062
0.00047866
0.000457707
0.000436226
0.000414245
0.000391793
0.000368908
0.000345627
0.000321995
0.000298057
0.000273866
0.000249476
0.000224944
0.000200332
0.000175704
0.000151125
0.00012666
0.000102401
7.84674e-05
0.000721561
0.000710217
0.00069834
0.000685919
0.000672944
0.000659406
0.000645298
0.000630613
0.000615349
0.000599501
0.000583071
0.00056606
0.000548473
0.000530318
0.000511605
0.000492346
0.000472559
0.000452262
0.00043148
0.000410238
0.000388568
0.000366502
0.000344077
0.000321336
0.000298323
0.000275084
0.000251672
0.00022814
0.000204546
0.000180948
0.000157407
0.000133985
0.00011076
8.78294e-05
0.000710773
0.000699516
0.000687751
0.000675469
0.00066266
0.000649317
0.000635435
0.000621009
0.000606035
0.000590513
0.000574445
0.000557832
0.000540681
0.000523001
0.0005048
0.000486094
0.000466899
0.000447233
0.00042712
0.000406586
0.000385659
0.000364372
0.00034276
0.000320863
0.000298722
0.000276382
0.000253892
0.000231301
0.000208662
0.00018603
0.000163462
0.000141015
0.000118753
9.67618e-05
0.000700663
0.000689501
0.000677854
0.000665714
0.000653073
0.000639926
0.000626268
0.000612094
0.000597405
0.000582199
0.00056648
0.00055025
0.000533516
0.000516287
0.000498574
0.00048039
0.000461753
0.00044268
0.000423195
0.000403322
0.00038309
0.000362529
0.000341673
0.000320558
0.000299226
0.000277717
0.000256077
0.000234353
0.000212594
0.000190851
0.000169176
0.000147623
0.000126244
0.000105102
0.000691081
0.00068002
0.000668496
0.000656503
0.000644033
0.000631082
0.000617646
0.000603724
0.000589314
0.000574417
0.000559037
0.000543178
0.000526846
0.000510052
0.000492806
0.000475122
0.000457016
0.000438508
0.000419618
0.000400372
0.000380795
0.000360918
0.000340772
0.000320394
0.000299819
0.000279088
0.000258244
0.000237329
0.000216391
0.000195476
0.000174633
0.000153911
0.000133361
0.000113034
0.000681722
0.00067077
0.000659377
0.000647537
0.000635245
0.000622496
0.000609288
0.000595621
0.000581493
0.000566907
0.000551867
0.000536377
0.000520446
0.000504082
0.000487298
0.000470106
0.000452522
0.000434567
0.000416259
0.000397624
0.000378685
0.000359473
0.000340016
0.00032035
0.000300508
0.000280528
0.00026045
0.000240315
0.000220166
0.000200047
0.000180003
0.000160081
0.000140327
0.000120788
0.000672586
0.000661752
0.000650497
0.000638818
0.000626709
0.000614167
0.000601192
0.000587783
0.00057394
0.000559666
0.000544966
0.000529844
0.00051431
0.000498372
0.000482042
0.000465334
0.000448264
0.000430849
0.00041311
0.00039507
0.000376752
0.000358185
0.000339396
0.000320419
0.000301284
0.000282029
0.00026269
0.000243305
0.000223915
0.000204561
0.000185284
0.000166129
0.000147137
0.000128354
0.000663677
0.000652966
0.000641857
0.000630344
0.000618424
0.000606095
0.000593356
0.000580208
0.000566651
0.00055269
0.000538328
0.000523573
0.000508432
0.000492915
0.000477033
0.000460801
0.000444233
0.000427347
0.000410162
0.000392701
0.000374987
0.000357046
0.000338904
0.000320593
0.000302142
0.000283585
0.000264958
0.000246295
0.000227634
0.000209014
0.000190474
0.000172053
0.000153793
0.000135733
0.000654993
0.000644415
0.000633457
0.000622116
0.00061039
0.000598277
0.000585777
0.000572892
0.000559622
0.000545973
0.00053195
0.000517558
0.000502806
0.000487704
0.000472263
0.000456497
0.000440421
0.000424051
0.000407408
0.000390511
0.000373382
0.000356048
0.000338532
0.000320864
0.000303073
0.00028519
0.000267247
0.000249279
0.000231319
0.000213403
0.000195569
0.000177853
0.000160293
0.000142926
0.000656622
0.000646538
0.000636096
0.000625296
0.000614132
0.000602604
0.00059071
0.000578452
0.000565831
0.00055285
0.000539512
0.000525824
0.000511792
0.000497425
0.000482731
0.000467724
0.000452415
0.00043682
0.000420955
0.000404838
0.000388489
0.000371929
0.000355182
0.000338273
0.000321227
0.000304072
0.000286837
0.000269553
0.000252252
0.000234965
0.000217726
0.000200569
0.000183528
0.000166638
0.000149933
0.000648268
0.00063831
0.000628012
0.000617373
0.000606391
0.000595064
0.000583393
0.000571379
0.000559023
0.000546329
0.000533302
0.000519947
0.000506271
0.000492282
0.000477991
0.000463409
0.000448548
0.000433423
0.000418049
0.000402445
0.000386628
0.00037062
0.000354442
0.000338118
0.000321672
0.000305131
0.000288521
0.000271871
0.000255211
0.00023857
0.000221979
0.000205471
0.000189076
0.000172828
0.000156758
0.000640138
0.00063031
0.000620161
0.000609689
0.000598891
0.000587769
0.000576322
0.000564552
0.000552462
0.000540055
0.000527336
0.000514311
0.000500986
0.000487372
0.000473476
0.00045931
0.000444888
0.000430221
0.000415327
0.00040022
0.000384921
0.000369447
0.000353819
0.000338061
0.000322194
0.000306244
0.000290235
0.000274195
0.00025815
0.000242129
0.000226161
0.000210274
0.000194499
0.000178864
0.0001634
0.00063223
0.000622538
0.000612542
0.00060224
0.00059163
0.000580715
0.000569494
0.00055797
0.000546145
0.000534023
0.00052161
0.000508911
0.000495934
0.000482686
0.000469179
0.000455421
0.000441426
0.000427207
0.000412779
0.000398157
0.000383358
0.000368402
0.000353307
0.000338094
0.000322786
0.000307405
0.000291974
0.00027652
0.000261066
0.00024564
0.000230268
0.000214977
0.000199794
0.000184747
0.000169864
0.000624544
0.000614993
0.000605153
0.000595024
0.000584606
0.000573899
0.000562905
0.000551626
0.000540066
0.000528228
0.000516117
0.000503741
0.000491105
0.000478219
0.000465092
0.000451734
0.000438157
0.000424373
0.000410398
0.000396246
0.000381933
0.000367477
0.000352897
0.000338211
0.000323441
0.000308608
0.000293734
0.000278842
0.000263956
0.0002491
0.0002343
0.000219579
0.000204963
0.000190479
0.00017615
0.00061708
0.000607673
0.000597994
0.000588041
0.000577816
0.000567319
0.000556552
0.000545518
0.000534221
0.000522664
0.000510853
0.000498794
0.000486495
0.000473963
0.000461208
0.00044824
0.000435071
0.000421712
0.000408177
0.000394481
0.000380638
0.000366667
0.000352583
0.000338406
0.000324154
0.000309848
0.000295508
0.000281157
0.000266815
0.000252506
0.000238253
0.000224078
0.000210006
0.000196059
0.000182261
0.000609837
0.000600578
0.000591061
0.000581287
0.000571256
0.000560969
0.00055043
0.00053964
0.000528604
0.000517326
0.000505811
0.000494065
0.000482096
0.000469912
0.000457521
0.000444934
0.000432161
0.000419215
0.000406108
0.000392853
0.000379466
0.000365962
0.000352358
0.000338671
0.000324918
0.000311119
0.000297293
0.00028346
0.000269641
0.000255856
0.000242127
0.000228475
0.000214922
0.000201489
0.000188199
0.000602814
0.000593705
0.000584353
0.000574759
0.000564923
0.000554848
0.000544535
0.000533989
0.000523211
0.000512208
0.000500985
0.000489547
0.000477902
0.000466058
0.000454023
0.000441807
0.000429421
0.000416875
0.000404183
0.000391356
0.00037841
0.000365358
0.000352216
0.000339
0.000325728
0.000312417
0.000299084
0.000285749
0.00027243
0.000259147
0.00024592
0.000232768
0.000219712
0.000206771
0.000193966
0.000596008
0.000587052
0.000577868
0.000568455
0.000558815
0.00054895
0.000538864
0.000528558
0.000518037
0.000507305
0.000496369
0.000485233
0.000473906
0.000462395
0.000450707
0.000438853
0.000426842
0.000414686
0.000402395
0.000389983
0.000377462
0.000364846
0.00035215
0.000339389
0.000326579
0.000313735
0.000300876
0.000288018
0.000275179
0.000262377
0.000249631
0.000236957
0.000224377
0.000211906
0.000199565
0.000589419
0.000580618
0.000571602
0.000562371
0.000552927
0.000543272
0.00053341
0.000523342
0.000513075
0.000502611
0.000491957
0.000481118
0.000470102
0.000458915
0.000447566
0.000436064
0.000424418
0.000412639
0.000400738
0.000388726
0.000376616
0.000364421
0.000352154
0.000339831
0.000327464
0.000315071
0.000302666
0.000290266
0.000277886
0.000265545
0.000253258
0.000241043
0.000228916
0.000216895
0.000204997
0.000583044
0.000574399
0.000565552
0.000556504
0.000547255
0.00053781
0.000528169
0.000518338
0.00050832
0.00049812
0.000487742
0.000477194
0.000466482
0.000455612
0.000444593
0.000433433
0.000422142
0.000410728
0.000399204
0.000387579
0.000375866
0.000364076
0.000352223
0.00034032
0.000328381
0.000316419
0.00030445
0.000292488
0.000280549
0.000268648
0.000256801
0.000245024
0.000233332
0.00022174
0.000210266
0.00057688
0.000568393
0.000559716
0.00055085
0.000541796
0.000532557
0.000523137
0.000513539
0.000503767
0.000493825
0.00048372
0.000473456
0.00046304
0.000452479
0.000441781
0.000430953
0.000420006
0.000408947
0.000397786
0.000386536
0.000375205
0.000363806
0.000352351
0.000340852
0.000329322
0.000317775
0.000306224
0.000294682
0.000283165
0.000271686
0.000260259
0.0002489
0.000237623
0.000226443
0.000215373
0.000570926
0.000562597
0.00055409
0.000545405
0.000536544
0.000527511
0.000518309
0.00050894
0.00049941
0.000489722
0.000479882
0.000469896
0.00045977
0.00044951
0.000439123
0.000428619
0.000418004
0.000407287
0.000396479
0.000385589
0.000374627
0.000363604
0.000352532
0.000341422
0.000330285
0.000319135
0.000307984
0.000296845
0.000285731
0.000274656
0.000263632
0.000252673
0.000241792
0.000231004
0.000220321
0.000565178
0.000557008
0.000548669
0.000540165
0.000531496
0.000522666
0.000513678
0.000504536
0.000495243
0.000485804
0.000476224
0.000466509
0.000456665
0.000446697
0.000436614
0.000426422
0.000416129
0.000405744
0.000395276
0.000384734
0.000374127
0.000363466
0.000352762
0.000342024
0.000331265
0.000320496
0.000309729
0.000298975
0.000288247
0.000277557
0.000266918
0.000256341
0.00024584
0.000235426
0.000225112
0.000559634
0.000551621
0.000543451
0.000535126
0.000526647
0.000518018
0.000509241
0.000500321
0.00049126
0.000482065
0.000472739
0.000463288
0.000453718
0.000444035
0.000434245
0.000424356
0.000414375
0.000404311
0.00039417
0.000383963
0.000373698
0.000363386
0.000353034
0.000342655
0.000332258
0.000321854
0.000311454
0.000301069
0.00029071
0.000280389
0.000270117
0.000259906
0.000249766
0.00023971
0.000229749
0.000554289
0.000546434
0.000538432
0.000530284
0.000521992
0.000513561
0.000504992
0.000496289
0.000487457
0.0004785
0.000469421
0.000460228
0.000450924
0.000441517
0.000432012
0.000422416
0.000412736
0.000402981
0.000393156
0.000383272
0.000373336
0.000363358
0.000353346
0.00034331
0.00033326
0.000323206
0.000313158
0.000303125
0.000293119
0.000283151
0.00027323
0.000263367
0.000253573
0.000243858
0.000234234
0.000549142
0.000541443
0.000533607
0.000525634
0.000517527
0.00050929
0.000500925
0.000492436
0.000483827
0.000475101
0.000466265
0.000457321
0.000448277
0.000439137
0.000429908
0.000420595
0.000411206
0.000401749
0.000392229
0.000382655
0.000373036
0.000363379
0.000353692
0.000343986
0.000334268
0.000324548
0.000314836
0.000305141
0.000295473
0.000285841
0.000276255
0.000266725
0.000257261
0.000247872
0.000238569
0.000544188
0.000536645
0.000528972
0.000521172
0.000513248
0.000505201
0.000497036
0.000488756
0.000480364
0.000471865
0.000463263
0.000454563
0.00044577
0.000436889
0.000427926
0.000418887
0.000409779
0.000400609
0.000391382
0.000382107
0.000372792
0.000363443
0.000354068
0.000344677
0.000335278
0.000325879
0.000316488
0.000307115
0.000297769
0.000288459
0.000279193
0.000269981
0.000260831
0.000251754
0.000242756
0.000539425
0.000532035
0.000524524
0.000516894
0.000509148
0.000501289
0.00049332
0.000485243
0.000477064
0.000468785
0.000460411
0.000451947
0.000443397
0.000434767
0.000426061
0.000417287
0.00040845
0.000399555
0.000390611
0.000381623
0.000372599
0.000363546
0.000354471
0.000345382
0.000336287
0.000327194
0.000318111
0.000309046
0.000300007
0.000291004
0.000282043
0.000273134
0.000264285
0.000255504
0.000246799
0.000534847
0.000527609
0.000520258
0.000512795
0.000505225
0.000497549
0.000489771
0.000481893
0.00047392
0.000465855
0.000457703
0.000449467
0.000441153
0.000432765
0.000424308
0.000415789
0.000407212
0.000398584
0.00038991
0.000381198
0.000372453
0.000363683
0.000354895
0.000346095
0.000337292
0.000328491
0.000319702
0.000310931
0.000302186
0.000293475
0.000284806
0.000276186
0.000267623
0.000259125
0.000250699
0.000530453
0.000523364
0.000516169
0.000508871
0.000501473
0.000493976
0.000486384
0.0004787
0.000470928
0.000463071
0.000455133
0.000447118
0.000439032
0.000430878
0.000422661
0.000414387
0.000406061
0.000397688
0.000389275
0.000380827
0.000372351
0.000363852
0.000355338
0.000346815
0.00033829
0.000329769
0.00032126
0.00031277
0.000304305
0.000295874
0.000287482
0.000279138
0.000270847
0.000262619
0.000254458
0.000526238
0.000519296
0.000512255
0.000505118
0.000497887
0.000490564
0.000483154
0.000475659
0.000468081
0.000460426
0.000452696
0.000444895
0.000437028
0.0004291
0.000421114
0.000413077
0.000404991
0.000396864
0.000388701
0.000380506
0.000372287
0.000364048
0.000355796
0.000347538
0.000339278
0.000331025
0.000322783
0.00031456
0.000306363
0.000298198
0.000290071
0.000281989
0.000273959
0.000265986
0.000258079
0.000522198
0.0005154
0.00050851
0.00050153
0.000494463
0.000487311
0.000480077
0.000472764
0.000465376
0.000457915
0.000450386
0.000442792
0.000435138
0.000427427
0.000419663
0.000411853
0.000403999
0.000396108
0.000388183
0.000380232
0.000372258
0.000364268
0.000356267
0.00034826
0.000340255
0.000332256
0.000324269
0.000316302
0.000308359
0.000300447
0.000292572
0.00028474
0.000276958
0.00026923
0.000261563
0.000518331
0.000511673
0.00050493
0.000498104
0.000491196
0.00048421
0.000477147
0.000470012
0.000462807
0.000455535
0.0004482
0.000440805
0.000433355
0.000425853
0.000418303
0.00041071
0.000403079
0.000395413
0.000387718
0.000379999
0.00037226
0.000364507
0.000356746
0.00034898
0.000341217
0.000333461
0.000325718
0.000317993
0.000310293
0.000302622
0.000294987
0.000287393
0.000279846
0.000272351
0.000264914
0.000514631
0.000508112
0.000501512
0.000494835
0.000488082
0.000481257
0.000474361
0.000467397
0.000460368
0.000453279
0.000446131
0.000438928
0.000431674
0.000424373