/*--------------------------------*- C++ -*----------------------------------*\
| =========                 |                                                 |
| \\      /  F ield         | OpenFOAM: The Open Source CFD Toolbox           |
|  \\    /   O peration     | Version:  2412                                  |
|   \\  /    A nd           | Website:  www.openfoam.com                      |
|    \\/     M anipulation  |                                                 |
\*---------------------------------------------------------------------------*/
FoamFile
{
    version     2.0;
    format      ascii;
    arch        "LSB;label=32;scalar=64";
    class       volScalarField;
    location    "8";
    object      p;
}
// * * * * * * * * * * * * * * * * * * * * * * * * * * * * * * * * * * * * * //

dimensions      [0 2 -2 0 0 0 0];

internalField   nonuniform List<scalar> 
5285
(
0.00104535
0.00104644
0.00104657
0.00104826
0.00104994
0.00105208
0.00105465
0.00105756
0.00106085
0.0010645
0.00106852
0.00107288
0.0010776
0.00108266
0.00108806
0.00109379
0.00109986
0.00110626
0.00111299
0.00112006
0.00112745
0.00113517
0.00114323
0.00115162
0.00116035
0.00116941
0.00117882
0.00118856
0.00119865
0.00120909
0.00121988
0.00123102
0.00124252
0.00125438
0.0012666
0.0012792
0.00129217
0.00130551
0.00131924
0.00133335
0.00134785
0.00136275
0.00137805
0.00139376
0.00140987
0.0014264
0.00144335
0.00146072
0.00147852
0.00149676
0.00151544
0.00153456
0.00155413
0.00157417
0.00159466
0.00104529
0.00104638
0.00104651
0.0010482
0.00104987
0.00105202
0.00105458
0.00105749
0.00106078
0.00106443
0.00106844
0.0010728
0.00107752
0.00108257
0.00108796
0.00109369
0.00109976
0.00110615
0.00111288
0.00111994
0.00112732
0.00113504
0.00114309
0.00115147
0.00116019
0.00116925
0.00117864
0.00118837
0.00119845
0.00120888
0.00121965
0.00123078
0.00124227
0.00125411
0.00126632
0.0012789
0.00129185
0.00130517
0.00131888
0.00133297
0.00134745
0.00136232
0.0013776
0.00139327
0.00140936
0.00142585
0.00144277
0.00146011
0.00147787
0.00149607
0.00151471
0.00153378
0.00155331
0.00157329
0.00159373
0.00104518
0.00104626
0.00104639
0.00104808
0.00104975
0.00105189
0.00105445
0.00105735
0.00106064
0.00106428
0.00106829
0.00107264
0.00107735
0.0010824
0.00108778
0.0010935
0.00109956
0.00110594
0.00111265
0.0011197
0.00112707
0.00113478
0.00114281
0.00115118
0.00115988
0.00116891
0.00117829
0.001188
0.00119805
0.00120846
0.00121921
0.00123031
0.00124176
0.00125358
0.00126575
0.0012783
0.00129121
0.0013045
0.00131816
0.00133221
0.00134664
0.00136147
0.00137669
0.00139231
0.00140833
0.00142477
0.00144162
0.00145889
0.00147658
0.0014947
0.00151325
0.00153224
0.00155167
0.00157155
0.00159188
0.001045
0.00104609
0.00104621
0.00104789
0.00104956
0.00105169
0.00105425
0.00105715
0.00106042
0.00106406
0.00106806
0.00107241
0.0010771
0.00108213
0.00108751
0.00109321
0.00109925
0.00110562
0.00111232
0.00111934
0.00112669
0.00113438
0.00114239
0.00115073
0.0011594
0.00116841
0.00117776
0.00118744
0.00119746
0.00120782
0.00121854
0.0012296
0.00124101
0.00125278
0.00126491
0.0012774
0.00129026
0.00130348
0.00131709
0.00133107
0.00134543
0.00136019
0.00137533
0.00139087
0.0014068
0.00142315
0.0014399
0.00145706
0.00147464
0.00149264
0.00151107
0.00152992
0.00154922
0.00156895
0.00158912
0.00104477
0.00104585
0.00104597
0.00104764
0.00104931
0.00105143
0.00105398
0.00105687
0.00106014
0.00106377
0.00106775
0.00107209
0.00107677
0.00108179
0.00108714
0.00109283
0.00109885
0.00110519
0.00111187
0.00111887
0.00112619
0.00113385
0.00114183
0.00115014
0.00115878
0.00116775
0.00117705
0.00118669
0.00119667
0.00120698
0.00121764
0.00122865
0.00124001
0.00125171
0.00126378
0.0012762
0.00128899
0.00130214
0.00131566
0.00132955
0.00134383
0.00135848
0.00137352
0.00138895
0.00140477
0.00142099
0.00143761
0.00145463
0.00147207
0.00148991
0.00150817
0.00152686
0.00154596
0.00156549
0.00158545
0.00104448
0.00104556
0.00104567
0.00104733
0.00104899
0.0010511
0.00105365
0.00105653
0.00105979
0.0010634
0.00106737
0.00107169
0.00107635
0.00108135
0.00108668
0.00109235
0.00109834
0.00110466
0.0011113
0.00111827
0.00112557
0.00113318
0.00114113
0.0011494
0.00115799
0.00116692
0.00117617
0.00118576
0.00119568
0.00120594
0.00121653
0.00122747
0.00123876
0.00125039
0.00126237
0.00127471
0.00128741
0.00130046
0.00131388
0.00132767
0.00134183
0.00135636
0.00137127
0.00138656
0.00140224
0.00141831
0.00143476
0.00145162
0.00146887
0.00148652
0.00150458
0.00152305
0.00154192
0.00156121
0.0015809
0.00104414
0.00104521
0.00104531
0.00104696
0.00104862
0.00105071
0.00105325
0.00105612
0.00105936
0.00106296
0.00106692
0.00107121
0.00107585
0.00108083
0.00108614
0.00109177
0.00109774
0.00110402
0.00111063
0.00111756
0.00112482
0.00113239
0.00114029
0.00114851
0.00115705
0.00116592
0.00117512
0.00118464
0.0011945
0.00120468
0.00121521
0.00122607
0.00123726
0.00124881
0.00126069
0.00127293
0.00128552
0.00129846
0.00131176
0.00132542
0.00133944
0.00135383
0.00136859
0.00138372
0.00139922
0.00141511
0.00143137
0.00144802
0.00146506
0.00148248
0.0015003
0.00151851
0.00153711
0.00155611
0.00157549
0.00161568
0.00163745
0.00166016
0.00168385
0.00170865
0.00173455
0.00176164
0.00179
0.0018197
0.00185084
0.0018835
0.00191779
0.00195382
0.00199172
0.0020316
0.00207364
0.00161473
0.00163649
0.00165918
0.00168294
0.0017077
0.00173359
0.00176067
0.00178902
0.00181872
0.00184985
0.00188251
0.00191679
0.00195281
0.0019907
0.00203057
0.00207259
0.00161282
0.0016346
0.00165733
0.00168101
0.00170576
0.00173165
0.00175873
0.00178707
0.00181675
0.00184787
0.00188052
0.00191478
0.00195079
0.00198865
0.00202851
0.0020705
0.00160998
0.00163173
0.00165443
0.00167812
0.00170287
0.00172874
0.0017558
0.00178413
0.0018138
0.00184489
0.00187751
0.00191175
0.00194773
0.00198556
0.00202537
0.00206732
0.00160619
0.00162794
0.00165062
0.0016743
0.00169904
0.0017249
0.00175195
0.00178026
0.00180991
0.00184099
0.00187358
0.00190779
0.00194374
0.00198153
0.00202131
0.0020632
0.00160149
0.00162324
0.00164593
0.00166962
0.00169438
0.00172025
0.00174732
0.00177564
0.00180531
0.0018364
0.00186902
0.00190326
0.00193923
0.00197706
0.00201688
0.00205883
0.00159586
0.00161754
0.00164018
0.00166382
0.00168852
0.00171434
0.00174135
0.00176962
0.00179923
0.00183026
0.00186281
0.00189699
0.0019329
0.00197067
0.00201043
0.00205233
0.00158917
0.00161049
0.00163273
0.00165594
0.00168019
0.00170552
0.00173199
0.00175969
0.00178867
0.00181903
0.00185082
0.00188415
0.00191911
0.00195579
0.00199429
0.00203473
0.00158135
0.00160221
0.00162395
0.00164663
0.00167029
0.00169499
0.00172078
0.00174773
0.0017759
0.00180535
0.00183617
0.00186843
0.00190221
0.00193759
0.00197466
0.00201353
0.0015726
0.00159292
0.00161408
0.00163613
0.0016591
0.00168306
0.00170804
0.0017341
0.00176131
0.00178971
0.00181938
0.00185038
0.00188278
0.00191666
0.00195208
0.00198912
0.001563
0.00158273
0.00160326
0.00162462
0.00164685
0.00167
0.00169411
0.00171922
0.00174539
0.00177267
0.00180112
0.00183077
0.0018617
0.00189397
0.00192762
0.00196271
0.00155258
0.00157169
0.00159154
0.00161217
0.00163361
0.0016559
0.00167908
0.00170319
0.00172827
0.00175436
0.0017815
0.00180975
0.00183913
0.0018697
0.0019015
0.00193456
0.00154139
0.00155983
0.00157897
0.00159882
0.00161943
0.00164082
0.00166302
0.00168607
0.00171
0.00173484
0.00176063
0.0017874
0.00181517
0.00184398
0.00187385
0.00190481
0.00152948
0.00154723
0.00156561
0.00158465
0.00160439
0.00162483
0.00164601
0.00166796
0.00169069
0.00171424
0.00173862
0.00176386
0.00178997
0.00181697
0.00184487
0.00187367
0.00151691
0.00153392
0.00155152
0.00156972
0.00158855
0.00160802
0.00162814
0.00164895
0.00167045
0.00169267
0.0017156
0.00173928
0.00176369
0.00178884
0.00181473
0.00184135
0.00150371
0.00151997
0.00153676
0.0015541
0.00157199
0.00159045
0.0016095
0.00162914
0.00164939
0.00167024
0.00169171
0.00171379
0.00173649
0.00175978
0.00178365
0.00180807
0.00148995
0.00150544
0.0015214
0.00153785
0.00155479
0.00157223
0.00159017
0.00160863
0.0016276
0.00164708
0.00166707
0.00168755
0.00170851
0.00172994
0.00175179
0.00177402
0.00147568
0.00149038
0.0015055
0.00152104
0.00153701
0.00155341
0.00157025
0.00158751
0.00160519
0.00162329
0.00164179
0.00166068
0.00167992
0.00169948
0.00171933
0.00173941
0.00146094
0.00147484
0.00148911
0.00150374
0.00151873
0.00153409
0.00154981
0.00156587
0.00158227
0.00159899
0.00161601
0.00163331
0.00165084
0.00166857
0.00168645
0.00170441
0.0014458
0.00145889
0.0014723
0.00148601
0.00150003
0.00151434
0.00152894
0.0015438
0.00155893
0.00157428
0.00158984
0.00160556
0.00162142
0.00163735
0.0016533
0.00166919
0.0014303
0.00144258
0.00145513
0.00146792
0.00148096
0.00149423
0.00150772
0.0015214
0.00153526
0.00154926
0.00156337
0.00157756
0.00159177
0.00160595
0.00162003
0.00163392
0.00141449
0.00142597
0.00143765
0.00144954
0.0014616
0.00147384
0.00148623
0.00149874
0.00151135
0.00152403
0.00153673
0.00154942
0.00156203
0.0015745
0.00158677
0.00159873
0.00139842
0.0014091
0.00141993
0.00143091
0.00144202
0.00145323
0.00146454
0.0014759
0.00148729
0.00149868
0.00151
0.00152123
0.00153229
0.00154312
0.00155364
0.00156376
0.00138214
0.00139202
0.00140201
0.0014121
0.00142226
0.00143248
0.00144272
0.00145296
0.00146316
0.00147328
0.00148328
0.00149309
0.00150266
0.00151191
0.00152076
0.00152913
0.0013657
0.00137479
0.00138395
0.00139316
0.0014024
0.00141163
0.00142084
0.00142999
0.00143903
0.00144793
0.00145664
0.00146509
0.00147323
0.00148097
0.00148823
0.00149493
0.00134913
0.00135745
0.0013658
0.00137415
0.00138248
0.00139076
0.00139896
0.00140704
0.00141497
0.00142269
0.00143016
0.00143731
0.00144408
0.00145038
0.00145614
0.00146126
0.00133249
0.00134005
0.0013476
0.00135511
0.00136256
0.00136991
0.00137713
0.00138419
0.00139104
0.00139763
0.00140391
0.00140982
0.00141528
0.00142022
0.00142456
0.00142819
0.0013158
0.00132262
0.00132939
0.00133609
0.00134268
0.00134913
0.00135541
0.00136149
0.0013673
0.00137281
0.00137795
0.00138268
0.0013869
0.00139056
0.00139356
0.0013958
0.00129911
0.00130521
0.00131122
0.00131713
0.00132289
0.00132848
0.00133385
0.00133897
0.0013438
0.00134827
0.00135234
0.00135594
0.001359
0.00136145
0.00136319
0.00136415
0.00128244
0.00128785
0.00129313
0.00129827
0.00130323
0.00130798
0.00131249
0.0013167
0.00132058
0.00132407
0.00132712
0.00132966
0.00133162
0.00133294
0.00133351
0.00133326
0.00126584
0.00127057
0.00127514
0.00127955
0.00128374
0.00128769
0.00129137
0.00129471
0.00129769
0.00130025
0.00130234
0.00130388
0.00130481
0.00130507
0.00130456
0.0013032
0.00124933
0.0012534
0.0012573
0.00126099
0.00126445
0.00126764
0.00127052
0.00127304
0.00127517
0.00127685
0.00127802
0.00127863
0.0012786
0.00127787
0.00127635
0.00127397
0.00123294
0.00123638
0.00123962
0.00124264
0.00124539
0.00124785
0.00124997
0.00125172
0.00125304
0.00125389
0.00125421
0.00125394
0.00125302
0.00125137
0.00124893
0.0012456
0.00121669
0.00121953
0.00122214
0.00122451
0.00122659
0.00122835
0.00122976
0.00123077
0.00123133
0.0012314
0.00123092
0.00122984
0.00122809
0.0012256
0.0012223
0.00121811
0.00120061
0.00120287
0.00120488
0.00120663
0.00120807
0.00120918
0.0012099
0.00121022
0.00121007
0.00120941
0.00120818
0.00120634
0.00120382
0.00120056
0.00119648
0.00119151
0.00118472
0.00118642
0.00118786
0.00118902
0.00118985
0.00119034
0.00119043
0.00119008
0.00118927
0.00118792
0.00118601
0.00118346
0.00118024
0.00117626
0.00117146
0.00116578
0.00116903
0.0011702
0.0011711
0.0011717
0.00117196
0.00117185
0.00117134
0.00117039
0.00116894
0.00116697
0.00116441
0.00116122
0.00115734
0.00115271
0.00114726
0.00114094
0.00104372
0.00104478
0.00104488
0.00104652
0.00104817
0.00105025
0.00105277
0.00105563
0.00105886
0.00106244
0.00106637
0.00107065
0.00107526
0.00108021
0.00108548
0.00109109
0.00109701
0.00110326
0.00110983
0.00111672
0.00112392
0.00113145
0.00113929
0.00114745
0.00115593
0.00116474
0.00117386
0.00118331
0.00119309
0.00120319
0.00121362
0.00122439
0.00123549
0.00124692
0.0012587
0.00127081
0.00128327
0.00129608
0.00130923
0.00132274
0.0013366
0.00135082
0.0013654
0.00138034
0.00139564
0.00141131
0.00142735
0.00144376
0.00146054
0.0014777
0.00149523
0.00151314
0.00153143
0.00155009
0.00156913
0.00104323
0.00104428
0.00104438
0.00104599
0.00104764
0.00104971
0.00105222
0.00105506
0.00105826
0.00106183
0.00106573
0.00106998
0.00107456
0.00107948
0.00108472
0.00109028
0.00109617
0.00110237
0.00110889
0.00111572
0.00112287
0.00113034
0.00113812
0.00114621
0.00115462
0.00116335
0.00117239
0.00118176
0.00119144
0.00120145
0.00121177
0.00122243
0.00123341
0.00124472
0.00125636
0.00126834
0.00128065
0.0012933
0.00130628
0.00131961
0.00133329
0.00134731
0.00136168
0.00137639
0.00139146
0.00140688
0.00142266
0.00143879
0.00145528
0.00147212
0.00148933
0.00150689
0.00152481
0.0015431
0.00156174
0.00104268
0.00104372
0.00104381
0.00104541
0.00104705
0.00104909
0.00105159
0.00105441
0.0010576
0.00106113
0.00106501
0.00106923
0.00107378
0.00107865
0.00108386
0.00108938
0.00109521
0.00110136
0.00110783
0.00111461
0.00112169
0.00112909
0.0011368
0.00114482
0.00115315
0.00116179
0.00117074
0.00118001
0.00118959
0.00119948
0.00120969
0.00122022
0.00123107
0.00124224
0.00125374
0.00126556
0.0012777
0.00129017
0.00130297
0.00131611
0.00132957
0.00134337
0.0013575
0.00137197
0.00138678
0.00140192
0.00141741
0.00143323
0.00144939
0.00146589
0.00148273
0.00149991
0.00151743
0.00153529
0.00155348
0.00104206
0.0010431
0.00104317
0.00104476
0.00104638
0.00104841
0.00105089
0.00105369
0.00105685
0.00106036
0.00106421
0.00106839
0.0010729
0.00107774
0.0010829
0.00108837
0.00109415
0.00110025
0.00110665
0.00111336
0.00112038
0.00112771
0.00113534
0.00114327
0.00115151
0.00116006
0.00116891
0.00117807
0.00118753
0.0011973
0.00120739
0.00121778
0.00122849
0.0012395
0.00125083
0.00126248
0.00127444
0.00128672
0.00129931
0.00131223
0.00132546
0.00133902
0.0013529
0.00136709
0.00138161
0.00139645
0.00141162
0.0014271
0.00144291
0.00145903
0.00147547
0.00149224
0.00150931
0.00152671
0.00154441
0.00104137
0.00104241
0.00104247
0.00104404
0.00104565
0.00104767
0.00105012
0.0010529
0.00105603
0.00105951
0.00106333
0.00106747
0.00107194
0.00107673
0.00108184
0.00108726
0.00109299
0.00109902
0.00110536
0.001112
0.00111894
0.00112619
0.00113373
0.00114157
0.00114972
0.00115816
0.0011669
0.00117594
0.00118528
0.00119492
0.00120486
0.0012151
0.00122565
0.0012365
0.00124765
0.00125911
0.00127087
0.00128294
0.00129531
0.00130799
0.00132098
0.00133427
0.00134786
0.00136177
0.00137598
0.00139049
0.0014053
0.00142042
0.00143584
0.00145156
0.00146758
0.00148389
0.00150049
0.00151738
0.00153456
0.00104062
0.00104165
0.0010417
0.00104326
0.00104486
0.00104685
0.00104928
0.00105204
0.00105514
0.00105859
0.00106237
0.00106647
0.0010709
0.00107564
0.00108069
0.00108605
0.00109172
0.00109768
0.00110395
0.00111052
0.00111738
0.00112453
0.00113198
0.00113973
0.00114776
0.00115609
0.00116471
0.00117362
0.00118283
0.00119233
0.00120212
0.0012122
0.00122257
0.00123324
0.0012442
0.00125546
0.00126701
0.00127885
0.00129098
0.0013034
0.00131612
0.00132913
0.00134243
0.00135601
0.00136989
0.00138405
0.00139849
0.00141322
0.00142823
0.00144351
0.00145907
0.0014749
0.001491
0.00150736
0.00152398
0.0010398
0.00104083
0.00104087
0.00104241
0.001044
0.00104597
0.00104838
0.00105111
0.00105418
0.00105759
0.00106133
0.00106539
0.00106976
0.00107445
0.00107945
0.00108475
0.00109035
0.00109624
0.00110243
0.00110891
0.00111569
0.00112275
0.0011301
0.00113773
0.00114566
0.00115386
0.00116236
0.00117113
0.00118019
0.00118954
0.00119916
0.00120907
0.00121927
0.00122974
0.0012405
0.00125153
0.00126285
0.00127445
0.00128632
0.00129848
0.00131091
0.00132362
0.0013366
0.00134985
0.00136337
0.00137715
0.00139121
0.00140552
0.00142009
0.00143492
0.00144999
0.00146532
0.00148088
0.00149668
0.00151271
0.00103892
0.00103994
0.00103998
0.00104151
0.00104307
0.00104502
0.0010474
0.0010501
0.00105314
0.00105652
0.00106021
0.00106422
0.00106855
0.00107318
0.00107811
0.00108335
0.00108887
0.00109469
0.0011008
0.00110719
0.00111387
0.00112083
0.00112808
0.0011356
0.0011434
0.00115148
0.00115983
0.00116846
0.00117737
0.00118655
0.001196
0.00120573
0.00121573
0.001226
0.00123653
0.00124734
0.00125842
0.00126976
0.00128136
0.00129323
0.00130536
0.00131775
0.00133039
0.00134329
0.00135643
0.00136983
0.00138347
0.00139734
0.00141146
0.0014258
0.00144037
0.00145516
0.00147017
0.00148538
0.0015008
0.00103798
0.001039
0.00103903
0.00104053
0.00104208
0.00104401
0.00104636
0.00104903
0.00105203
0.00105537
0.00105902
0.00106298
0.00106725
0.00107182
0.00107669
0.00108185
0.0010873
0.00109304
0.00109906
0.00110536
0.00111194
0.00111879
0.00112592
0.00113332
0.001141
0.00114894
0.00115715
0.00116562
0.00117437
0.00118337
0.00119264
0.00120218
0.00121197
0.00122202
0.00123233
0.00124289
0.00125371
0.00126478
0.0012761
0.00128767
0.00129948
0.00131153
0.00132382
0.00133635
0.00134911
0.00136209
0.0013753
0.00138872
0.00140236
0.0014162
0.00143024
0.00144448
0.00145891
0.00147351
0.00148829
0.00103698
0.00103799
0.00103801
0.0010395
0.00104103
0.00104293
0.00104526
0.00104789
0.00105086
0.00105415
0.00105775
0.00106166
0.00106587
0.00107037
0.00107517
0.00108026
0.00108563
0.00109128
0.00109721
0.00110341
0.00110989
0.00111663
0.00112364
0.00113091
0.00113845
0.00114625
0.0011543
0.00116262
0.00117119
0.00118002
0.00118909
0.00119842
0.001208
0.00121782
0.00122789
0.0012382
0.00124875
0.00125954
0.00127056
0.00128181
0.00129329
0.001305
0.00131692
0.00132906
0.00134141
0.00135397
0.00136672
0.00137967
0.00139281
0.00140614
0.00141964
0.0014333
0.00144713
0.00146111
0.00147524
0.00103591
0.00103692
0.00103693
0.00103841
0.00103992
0.00104179
0.00104409
0.00104669
0.00104961
0.00105285
0.0010564
0.00106025
0.0010644
0.00106885
0.00107357
0.00107858
0.00108387
0.00108943
0.00109526
0.00110136
0.00110772
0.00111434
0.00112123
0.00112837
0.00113576
0.00114341
0.00115131
0.00115945
0.00116784
0.00117648
0.00118535
0.00119447
0.00120382
0.00121341
0.00122322
0.00123327
0.00124354
0.00125403
0.00126475
0.00127567
0.00128681
0.00129815
0.00130969
0.00132143
0.00133336
0.00134548
0.00135777
0.00137023
0.00138287
0.00139566
0.00140859
0.00142168
0.00143489
0.00144823
0.00146169
0.00103478
0.00103579
0.00103579
0.00103725
0.00103874
0.00104058
0.00104285
0.00104541
0.00104829
0.00105149
0.00105499
0.00105878
0.00106286
0.00106723
0.00107188
0.00107681
0.00108201
0.00108748
0.00109321
0.00109919
0.00110544
0.00111194
0.00111869
0.00112569
0.00113294
0.00114043
0.00114816
0.00115613
0.00116433
0.00117277
0.00118143
0.00119033
0.00119945
0.00120879
0.00121834
0.00122811
0.0012381
0.00124828
0.00125867
0.00126926
0.00128004
0.00129101
0.00130216
0.00131349
0.00132499
0.00133665
0.00134846
0.00136043
0.00137254
0.00138478
0.00139715
0.00140963
0.00142222
0.00143491
0.00144768
0.0010336
0.0010346
0.0010346
0.00103604
0.0010375
0.00103932
0.00104155
0.00104407
0.00104691
0.00105006
0.0010535
0.00105723
0.00106124
0.00106554
0.00107011
0.00107495
0.00108006
0.00108543
0.00109105
0.00109693
0.00110305
0.00110943
0.00111604
0.00112289
0.00112999
0.00113731
0.00114487
0.00115265
0.00116066
0.00116889
0.00117734
0.00118601
0.00119488
0.00120397
0.00121325
0.00122274
0.00123242
0.0012423
0.00125236
0.0012626
0.00127301
0.0012836
0.00129435
0.00130525
0.0013163
0.0013275
0.00133883
0.00135029
0.00136187
0.00137355
0.00138534
0.00139721
0.00140917
0.0014212
0.00143328
0.00103235
0.00103336
0.00103334
0.00103476
0.00103621
0.00103799
0.00104019
0.00104267
0.00104546
0.00104855
0.00105194
0.0010556
0.00105955
0.00106377
0.00106826
0.00107301
0.00107802
0.00108329
0.0010888
0.00109456
0.00110056
0.0011068
0.00111327
0.00111997
0.00112691
0.00113406
0.00114144
0.00114903
0.00115684
0.00116486
0.00117308
0.00118151
0.00119014
0.00119896
0.00120797
0.00121717
0.00122654
0.00123609
0.00124581
0.0012557
0.00126574
0.00127593
0.00128627
0.00129674
0.00130734
0.00131807
0.0013289
0.00133984
0.00135088
0.001362
0.0013732
0.00138446
0.00139577
0.00140713
0.00141852
0.00103105
0.00103206
0.00103203
0.00103343
0.00103485
0.00103661
0.00103877
0.00104121
0.00104395
0.00104699
0.00105031
0.00105391
0.00105778
0.00106192
0.00106633
0.00107099
0.0010759
0.00108105
0.00108645
0.00109209
0.00109796
0.00110406
0.00111039
0.00111693
0.0011237
0.00113068
0.00113787
0.00114527
0.00115287
0.00116067
0.00116867
0.00117685
0.00118522
0.00119377
0.0012025
0.00121139
0.00122046
0.00122968
0.00123905
0.00124857
0.00125823
0.00126802
0.00127794
0.00128797
0.00129812
0.00130836
0.0013187
0.00132912
0.0013396
0.00135016
0.00136076
0.0013714
0.00138208
0.00139277
0.00140346
0.0010297
0.0010307
0.00103066
0.00103204
0.00103344
0.00103516
0.00103729
0.00103968
0.00104237
0.00104535
0.00104861
0.00105214
0.00105594
0.00106
0.00106431
0.00106888
0.00107369
0.00107873
0.00108401
0.00108953
0.00109526
0.00110122
0.00110739
0.00111378
0.00112038
0.00112718
0.00113418
0.00114138
0.00114876
0.00115634
0.0011641
0.00117203
0.00118014
0.00118841
0.00119685
0.00120544
0.00121418
0.00122307
0.00123209
0.00124124
0.00125051
0.00125989
0.00126939
0.00127898
0.00128866
0.00129842
0.00130825
0.00131814
0.00132808
0.00133805
0.00134806
0.00135809
0.00136811
0.00137814
0.00138814
0.00102829
0.00102929
0.00102924
0.0010306
0.00103197
0.00103366
0.00103575
0.00103809
0.00104073
0.00104365
0.00104685
0.00105031
0.00105403
0.001058
0.00106223
0.00106669
0.00107139
0.00107633
0.00108149
0.00108687
0.00109247
0.00109828
0.0011043
0.00111052
0.00111694
0.00112356
0.00113036
0.00113735
0.00114452
0.00115187
0.00115938
0.00116706
0.0011749
0.0011829
0.00119104
0.00119932
0.00120773
0.00121627
0.00122494
0.00123371
0.00124259
0.00125156
0.00126063
0.00126977
0.00127898
0.00128825
0.00129757
0.00130693
0.00131632
0.00132573
0.00133514
0.00134454
0.00135393
0.00136328
0.0013726
0.00102682
0.00102782
0.00102776
0.0010291
0.00103045
0.00103211
0.00103415
0.00103645
0.00103903
0.00104189
0.00104502
0.00104841
0.00105205
0.00105593
0.00106006
0.00106443
0.00106902
0.00107384
0.00107887
0.00108412
0.00108958
0.00109524
0.0011011
0.00110715
0.00111339
0.00111982
0.00112643
0.00113321
0.00114015
0.00114727
0.00115453
0.00116196
0.00116952
0.00117723
0.00118507
0.00119303
0.00120112
0.00120931
0.00121761
0.00122601
0.00123449
0.00124305
0.00125168
0.00126037
0.00126911
0.00127789
0.0012867
0.00129553
0.00130437
0.0013132
0.00132202
0.00133081
0.00133956
0.00134825
0.00135688
0.00102531
0.0010263
0.00102623
0.00102755
0.00102887
0.00103049
0.00103249
0.00103474
0.00103727
0.00104007
0.00104313
0.00104644
0.00105
0.0010538
0.00105783
0.00106209
0.00106657
0.00107127
0.00107617
0.00108129
0.0010866
0.00109211
0.0010978
0.00110368
0.00110974
0.00111598
0.00112238
0.00112894
0.00113566
0.00114254
0.00114956
0.00115671
0.001164
0.00117142
0.00117895
0.0011866
0.00119435
0.00120219
0.00121013
0.00121814
0.00122622
0.00123437
0.00124256
0.0012508
0.00125907
0.00126736
0.00127566
0.00128396
0.00129225
0.00130052
0.00130874
0.00131692
0.00132504
0.00133308
0.00134103
0.00102374
0.00102473
0.00102464
0.00102595
0.00102724
0.00102882
0.00103078
0.00103298
0.00103546
0.00103819
0.00104118
0.00104441
0.00104788
0.00105159
0.00105552
0.00105968
0.00106404
0.00106862
0.00107339
0.00107837
0.00108353
0.00108888
0.00109441
0.00110012
0.00110599
0.00111203
0.00111822
0.00112457
0.00113106
0.00113769
0.00114446
0.00115135
0.00115835
0.00116548
0.0011727
0.00118003
0.00118744
0.00119493
0.0012025
0.00121013
0.00121781
0.00122554
0.0012333
0.00124108
0.00124888
0.00125668
0.00126448
0.00127225
0.00127999
0.00128769
0.00129533
0.00130291
0.0013104
0.0013178
0.00132509
0.00102212
0.00102311
0.00102301
0.00102429
0.00102555
0.0010271
0.00102902
0.00103117
0.00103358
0.00103625
0.00103917
0.00104232
0.00104571
0.00104932
0.00105315
0.00105719
0.00106144
0.00106589
0.00107054
0.00107537
0.00108038
0.00108557
0.00109093
0.00109646
0.00110214
0.00110798
0.00111397
0.00112009
0.00112635
0.00113273
0.00113924
0.00114586
0.00115259
0.00115941
0.00116633
0.00117333
0.0011804
0.00118754
0.00119474
0.00120198
0.00120926
0.00121657
0.0012239
0.00123123
0.00123856
0.00124588
0.00125317
0.00126042
0.00126762
0.00127476
0.00128183
0.00128881
0.00129569
0.00130245
0.00130909
0.00102045
0.00102144
0.00102133
0.00102258
0.00102382
0.00102533
0.0010272
0.0010293
0.00103165
0.00103426
0.0010371
0.00104017
0.00104347
0.00104698
0.00105071
0.00105464
0.00105877
0.0010631
0.00106761
0.00107229
0.00107715
0.00108218
0.00108737
0.00109271
0.00109821
0.00110384
0.00110961
0.00111551
0.00112154
0.00112767
0.00113392
0.00114027
0.00114671
0.00115324
0.00115984
0.00116651
0.00117325
0.00118003
0.00118686
0.00119372
0.0012006
0.00120749
0.00121438
0.00122127
0.00122813
0.00123497
0.00124176
0.00124849
0.00125516
0.00126175
0.00126825
0.00127464
0.00128092
0.00128707
0.00129307
0.00101874
0.00101972
0.00101959
0.00102083
0.00102203
0.00102351
0.00102533
0.00102738
0.00102967
0.00103221
0.00103497
0.00103796
0.00104117
0.00104459
0.00104821
0.00105203
0.00105604
0.00106023
0.0010646
0.00106914
0.00107385
0.00107871
0.00108373
0.00108889
0.00109418
0.00109961
0.00110517
0.00111084
0.00111663
0.00112252
0.0011285
0.00113458
0.00114073
0.00114696
0.00115325
0.0011596
0.00116599
0.00117242
0.00117887
0.00118535
0.00119183
0.00119831
0.00120477
0.00121121
0.00121761
0.00122397
0.00123027
0.00123649
0.00124264
0.00124869
0.00125463
0.00126045
0.00126614
0.00127168
0.00127706
0.00101698
0.00101796
0.00101781
0.00101903
0.0010202
0.00102164
0.00102342
0.00102541
0.00102764
0.0010301
0.00103279
0.0010357
0.00103881
0.00104213
0.00104565
0.00104935
0.00105324
0.0010573
0.00106153
0.00106592
0.00107047
0.00107517
0.00108
0.00108498
0.00109008
0.0010953
0.00110064
0.00110609
0.00111163
0.00111727
0.00112299
0.00112879
0.00113466
0.00114059
0.00114656
0.00115258
0.00115864
0.00116471
0.0011708
0.00117689
0.00118298
0.00118904
0.00119508
0.00120108
0.00120703
0.00121291
0.00121872
0.00122445
0.00123007
0.00123559
0.00124099
0.00124625
0.00125136
0.00125631
0.0012611
0.00101517
0.00101614
0.00101599
0.00101718
0.00101832
0.00101972
0.00102145
0.00102339
0.00102555
0.00102795
0.00103056
0.00103338
0.0010364
0.00103962
0.00104302
0.00104661
0.00105037
0.0010543
0.00105839
0.00106263
0.00106702
0.00107155
0.00107621
0.001081
0.0010859
0.00109092
0.00109604
0.00110125
0.00110656
0.00111194
0.0011174
0.00112292
0.0011285
0.00113413
0.00113979
0.00114549
0.0011512
0.00115692
0.00116265
0.00116836
0.00117405
0.00117971
0.00118532
0.00119089
0.00119639
0.00120181
0.00120714
0.00121237
0.00121749
0.00122249
0.00122735
0.00123207
0.00123662
0.001241
0.0012452
0.00101332
0.00101429
0.00101412
0.00101529
0.0010164
0.00101776
0.00101944
0.00102132
0.00102342
0.00102574
0.00102827
0.00103101
0.00103393
0.00103705
0.00104035
0.00104382
0.00104745
0.00105125
0.00105519
0.00105928
0.00106351
0.00106787
0.00107235
0.00107694
0.00108165
0.00108646
0.00109136
0.00109634
0.0011014
0.00110654
0.00111173
0.00111698
0.00112227
0.0011276
0.00113295
0.00113832
0.00114369
0.00114907
0.00115443
0.00115976
0.00116506
0.00117032
0.00117552
0.00118065
0.00118571
0.00119067
0.00119554
0.00120029
0.00120492
0.00120941
0.00121375
0.00121793
0.00122194
0.00122577
0.0012294
0.00101142
0.00101239
0.0010122
0.00101335
0.00101443
0.00101575
0.00101738
0.0010192
0.00102124
0.00102349
0.00102594
0.00102858
0.00103142
0.00103443
0.00103761
0.00104097
0.00104447
0.00104813
0.00105193
0.00105587
0.00105994
0.00106412
0.00106842
0.00107283
0.00107733
0.00108193
0.00108661
0.00109136
0.00109618
0.00110106
0.00110599
0.00111097
0.00111597
0.001121
0.00112604
0.00113109
0.00113613
0.00114115
0.00114615
0.00115112
0.00115603
0.00116089
0.00116568
0.00117039
0.00117501
0.00117953
0.00118394
0.00118822
0.00119236
0.00119636
0.00120019
0.00120386
0.00120735
0.00121064
0.00121373
0.00100948
0.00101045
0.00101025
0.00101137
0.00101241
0.00101369
0.00101528
0.00101704
0.00101901
0.00102119
0.00102356
0.00102611
0.00102885
0.00103176
0.00103483
0.00103806
0.00104144
0.00104496
0.00104862
0.0010524
0.0010563
0.00106032
0.00106443
0.00106865
0.00107295
0.00107734
0.0010818
0.00108632
0.0010909
0.00109553
0.00110019
0.00110489
0.00110961
0.00111434
0.00111907
0.0011238
0.00112851
0.00113319
0.00113784
0.00114243
0.00114697
0.00115144
0.00115583
0.00116012
0.00116432
0.0011684
0.00117235
0.00117618
0.00117985
0.00118337
0.00118671
0.00118988
0.00119286
0.00119563
0.0011982
0.00100751
0.00100847
0.00100825
0.00100935
0.00101036
0.0010116
0.00101313
0.00101484
0.00101674
0.00101885
0.00102113
0.0010236
0.00102623
0.00102904
0.001032
0.00103511
0.00103836
0.00104174
0.00104525
0.00104888
0.00105261
0.00105645
0.00106039
0.00106441
0.00106852
0.00107269
0.00107693
0.00108122
0.00108556
0.00108993
0.00109434
0.00109876
0.0011032
0.00110763
0.00111206
0.00111647
0.00112085
0.00112519
0.00112949
0.00113372
0.00113789
0.00114197
0.00114596
0.00114985
0.00115363
0.00115729
0.0011608
0.00116418
0.0011674
0.00117045
0.00117332
0.001176
0.00117849
0.00118077
0.00118283
0.00101646
0.00101866
0.00102104
0.00102357
0.00102627
0.00102912
0.0010321
0.00103522
0.00103847
0.00104183
0.0010453
0.00104887
0.00105254
0.0010563
0.00106013
0.00106403
0.00106799
0.00107201
0.00107607
0.00108017
0.00108429
0.00108844
0.00109259
0.00109674
0.00110089
0.00110501
0.00110911
0.00111316
0.00111717
0.00112112
0.001125
0.00112879
0.0011325
0.00113611
0.0011396
0.00114297
0.00114621
0.0011493
0.00115224
0.00115502
0.00115762
0.00116003
0.00116225
0.00116427
0.00116607
0.00116765
0.00104414
0.00104521
0.00104531
0.00104696
0.00104862
0.00105071
0.00105325
0.00105612
0.00105936
0.00106296
0.00106692
0.00107121
0.00107585
0.00108083
0.00108614
0.00109177
0.00109773
0.00110402
0.00111063
0.00111756
0.00112482
0.00113239
0.00114029
0.00114851
0.00115705
0.00116592
0.00117512
0.00118464
0.0011945
0.00120468
0.00121521
0.00122606
0.00123726
0.00124881
0.00126069
0.00127293
0.00128552
0.00129846
0.00131176
0.00132542
0.00133944
0.00135383
0.00136859
0.00138372
0.00139922
0.00141511
0.00143137
0.00144802
0.00146506
0.00148248
0.0015003
0.00151851
0.00153711
0.00155611
0.00157549