/*--------------------------------*- C++ -*----------------------------------*\
| =========                 |                                                 |
| \\      /  F ield         | OpenFOAM: The Open Source CFD Toolbox           |
|  \\    /   O peration     | Version:  2412                                  |
|   \\  /    A nd           | Website:  www.openfoam.com                      |
|    \\/     M anipulation  |                                                 |
\*---------------------------------------------------------------------------*/
FoamFile
{
    version     2.0;
    format      ascii;
    arch        "LSB;label=32;scalar=64";
    class       volVectorField;
    location    "8";
    object      vorticity;
}
// * * * * * * * * * * * * * * * * * * * * * * * * * * * * * * * * * * * * * //

dimensions      [0 0 -1 0 0 0 0];

internalField   nonuniform List<vector> 
5285
(
(0 -0 6.77662e-06)
(0 -0 2.28169e-05)
(0 -0 3.99402e-05)
(0 -0 3.44847e-05)
(0 -0 2.4459e-06)
(0 -0 -3.84034e-05)
(0 -0 -6.77439e-05)
(0 -0 -7.70164e-05)
(0 -0 -6.96674e-05)
(0 -0 -5.41207e-05)
(0 -0 -3.76928e-05)
(0 -0 -2.43227e-05)
(0 -0 -1.50385e-05)
(0 -0 -9.28971e-06)
(0 -0 -6.03949e-06)
(0 -0 -4.34001e-06)
(0 -0 -3.51538e-06)
(0 -0 -3.14813e-06)
(0 -0 -3.00508e-06)
(0 -0 -2.96561e-06)
(0 -0 -2.97112e-06)
(0 -0 -2.99448e-06)
(0 -0 -3.0237e-06)
(0 -0 -3.05359e-06)
(0 -0 -3.08215e-06)
(0 -0 -3.10859e-06)
(0 -0 -3.13263e-06)
(0 -0 -3.154e-06)
(0 -0 -3.17244e-06)
(0 -0 -3.1876e-06)
(0 -0 -3.19922e-06)
(0 -0 -3.20707e-06)
(0 -0 -3.21102e-06)
(0 -0 -3.21094e-06)
(0 -0 -3.2067e-06)
(0 -0 -3.1981e-06)
(0 -0 -3.18482e-06)
(0 -0 -3.16651e-06)
(0 -0 -3.14273e-06)
(0 -0 -3.11302e-06)
(0 -0 -3.07687e-06)
(0 -0 -3.03378e-06)
(0 -0 -2.98316e-06)
(0 -0 -2.92434e-06)
(0 -0 -2.85651e-06)
(0 -0 -2.77867e-06)
(0 -0 -2.68972e-06)
(0 -0 -2.58861e-06)
(0 -0 -2.47457e-06)
(0 -0 -2.3466e-06)
(0 -0 -2.19902e-06)
(0 -0 -2.00138e-06)
(0 -0 -1.6263e-06)
(0 -0 -6.15013e-07)
(0 4.81113e-23 2.53236e-06)
(0 -0 2.02852e-05)
(0 -0 6.79397e-05)
(0 -0 0.000119048)
(0 -0 0.000103301)
(0 -0 8.54715e-06)
(0 -0 -0.000112626)
(0 -0 -0.00019989)
(0 -0 -0.000227715)
(0 -0 -0.000206208)
(0 -0 -0.000160308)
(0 -0 -0.000111714)
(0 -0 -7.21322e-05)
(0 -0 -4.46327e-05)
(0 -0 -2.7598e-05)
(0 -0 -1.79623e-05)
(0 -0 -1.29203e-05)
(0 -0 -1.04709e-05)
(0 -0 -9.37827e-06)
(0 -0 -8.952e-06)
(0 -0 -8.83463e-06)
(0 -0 -8.85201e-06)
(0 -0 -8.92336e-06)
(0 -0 -9.01276e-06)
(0 -0 -9.10479e-06)
(0 -0 -9.19309e-06)
(0 -0 -9.27507e-06)
(0 -0 -9.34956e-06)
(0 -0 -9.41581e-06)
(0 -0 -9.47314e-06)
(0 -0 -9.52085e-06)
(0 -0 -9.55832e-06)
(0 -0 -9.58493e-06)
(0 -0 -9.60016e-06)
(0 -0 -9.60348e-06)
(0 -0 -9.59432e-06)
(0 -0 -9.57203e-06)
(0 -0 -9.53579e-06)
(0 -0 -9.48468e-06)
(0 -0 -9.41759e-06)
(0 -0 -9.3333e-06)
(0 -0 -9.23042e-06)
(0 -0 -9.10736e-06)
(0 -0 -8.96227e-06)
(0 -0 -8.79291e-06)
(0 -0 -8.59658e-06)
(0 -0 -8.37011e-06)
(0 -0 -8.11007e-06)
(0 -0 -7.81321e-06)
(0 -0 -7.47716e-06)
(0 -0 -7.09901e-06)
(0 -0 -6.66244e-06)
(0 -0 -6.07978e-06)
(0 -0 -4.98227e-06)
(0 -0 -2.03752e-06)
(0 4.85831e-23 7.12058e-06)
(0 -0 3.36675e-05)
(0 -0 0.000111731)
(0 -0 0.00019634)
(0 -0 0.000172232)
(0 -0 1.85873e-05)
(0 -0 -0.000179243)
(0 -0 -0.000322547)
(0 -0 -0.000369114)
(0 -0 -0.000335018)
(0 -0 -0.000260795)
(0 -0 -0.000181884)
(0 -0 -0.000117478)
(0 -0 -7.26787e-05)
(0 -0 -4.49045e-05)
(0 -0 -2.91843e-05)
(0 -0 -2.09543e-05)
(0 -0 -1.69544e-05)
(0 -0 -1.51697e-05)
(0 -0 -1.44736e-05)
(0 -0 -1.42827e-05)
(0 -0 -1.43125e-05)
(0 -0 -1.44309e-05)
(0 -0 -1.45791e-05)
(0 -0 -1.47319e-05)
(0 -0 -1.48788e-05)
(0 -0 -1.50156e-05)
(0 -0 -1.51402e-05)
(0 -0 -1.52513e-05)
(0 -0 -1.5348e-05)
(0 -0 -1.54292e-05)
(0 -0 -1.54939e-05)
(0 -0 -1.55413e-05)
(0 -0 -1.55704e-05)
(0 -0 -1.55803e-05)
(0 -0 -1.55701e-05)
(0 -0 -1.55387e-05)
(0 -0 -1.54849e-05)
(0 -0 -1.5407e-05)
(0 -0 -1.53036e-05)
(0 -0 -1.51726e-05)
(0 -0 -1.50119e-05)
(0 -0 -1.48188e-05)
(0 -0 -1.45904e-05)
(0 -0 -1.4323e-05)
(0 -0 -1.40121e-05)
(0 -0 -1.36525e-05)
(0 -0 -1.32389e-05)
(0 -0 -1.27659e-05)
(0 -0 -1.22299e-05)
(0 -0 -1.16269e-05)
(0 -0 -1.09331e-05)
(0 -0 -1.00154e-05)
(0 -0 -8.30482e-06)
(0 -0 -3.72542e-06)
(0 2.86842e-22 1.05655e-05)
(0 -0 4.68333e-05)
(0 -0 0.000153383)
(0 -0 0.00027075)
(0 -0 0.000241466)
(0 -0 3.51395e-05)
(0 -0 -0.000233427)
(0 -0 -0.000429757)
(0 -0 -0.000495404)
(0 -0 -0.000451278)
(0 -0 -0.00035203)
(0 -0 -0.000245793)
(0 -0 -0.000158809)
(0 -0 -9.81883e-05)
(0 -0 -6.05563e-05)
(0 -0 -3.92363e-05)
(0 -0 -2.80666e-05)
(0 -0 -2.26351e-05)
(0 -0 -2.02109e-05)
(0 -0 -1.92657e-05)
(0 -0 -1.90075e-05)
(0 -0 -1.90495e-05)
(0 -0 -1.92124e-05)
(0 -0 -1.94162e-05)
(0 -0 -1.96268e-05)
(0 -0 -1.98297e-05)
(0 -0 -2.00191e-05)
(0 -0 -2.01923e-05)
(0 -0 -2.03475e-05)
(0 -0 -2.04834e-05)
(0 -0 -2.05987e-05)
(0 -0 -2.06923e-05)
(0 -0 -2.07628e-05)
(0 -0 -2.08091e-05)
(0 -0 -2.083e-05)
(0 -0 -2.08241e-05)
(0 -0 -2.07901e-05)
(0 -0 -2.07263e-05)
(0 -0 -2.06308e-05)
(0 -0 -2.05013e-05)
(0 -0 -2.03354e-05)
(0 -0 -2.01301e-05)
(0 -0 -1.98821e-05)
(0 -0 -1.95872e-05)
(0 -0 -1.92406e-05)
(0 -0 -1.88363e-05)
(0 -0 -1.83675e-05)
(0 -0 -1.7827e-05)
(0 -0 -1.72078e-05)
(0 -0 -1.65057e-05)
(0 -0 -1.57168e-05)
(0 -0 -1.48149e-05)
(0 -0 -1.36406e-05)
(0 -0 -1.14918e-05)
(0 -0 -5.76361e-06)
(0 -1.88376e-22 1.22271e-05)
(0 -0 5.97001e-05)
(0 -0 0.000192187)
(0 -0 0.000341396)
(0 -0 0.000311241)
(0 -0 6.05409e-05)
(0 -0 -0.000270882)
(0 -0 -0.000516254)
(0 -0 -0.00060147)
(0 -0 -0.000550752)
(0 -0 -0.000430887)
(0 -0 -0.000301314)
(0 -0 -0.00019474)
(0 -0 -0.000120264)
(0 -0 -7.39446e-05)
(0 -0 -4.76669e-05)
(0 -0 -3.38853e-05)
(0 -0 -2.71778e-05)
(0 -0 -2.41817e-05)
(0 -0 -2.30128e-05)
(0 -0 -2.26931e-05)
(0 -0 -2.27451e-05)
(0 -0 -2.29472e-05)
(0 -0 -2.32004e-05)
(0 -0 -2.34626e-05)
(0 -0 -2.37159e-05)
(0 -0 -2.39532e-05)
(0 -0 -2.41708e-05)
(0 -0 -2.43669e-05)
(0 -0 -2.45397e-05)
(0 -0 -2.46879e-05)
(0 -0 -2.481e-05)
(0 -0 -2.49045e-05)
(0 -0 -2.497e-05)
(0 -0 -2.5005e-05)
(0 -0 -2.50081e-05)
(0 -0 -2.49773e-05)
(0 -0 -2.49108e-05)
(0 -0 -2.48063e-05)
(0 -0 -2.46611e-05)
(0 -0 -2.44723e-05)
(0 -0 -2.42363e-05)
(0 -0 -2.3949e-05)
(0 -0 -2.36054e-05)
(0 -0 -2.31998e-05)
(0 -0 -2.27249e-05)
(0 -0 -2.21727e-05)
(0 -0 -2.15343e-05)
(0 -0 -2.0802e-05)
(0 -0 -1.99712e-05)
(0 -0 -1.90398e-05)
(0 -0 -1.79855e-05)
(0 -0 -1.66486e-05)
(0 -0 -1.42864e-05)
(0 -0 -8.06086e-06)
(0 9.29999e-23 1.17002e-05)
(0 -0 7.21809e-05)
(0 -0 0.000227601)
(0 -0 0.000407628)
(0 -0 0.000381827)
(0 -0 9.67253e-05)
(0 -0 -0.000288148)
(0 -0 -0.000577848)
(0 -0 -0.000683265)
(0 -0 -0.000630096)
(0 -0 -0.000494896)
(0 -0 -0.000346761)
(0 -0 -0.000224168)
(0 -0 -0.000138181)
(0 -0 -8.45675e-05)
(0 -0 -5.40951e-05)
(0 -0 -3.80894e-05)
(0 -0 -3.02887e-05)
(0 -0 -2.67989e-05)
(0 -0 -2.54338e-05)
(0 -0 -2.50574e-05)
(0 -0 -2.51144e-05)
(0 -0 -2.53468e-05)
(0 -0 -2.56396e-05)
(0 -0 -2.59436e-05)
(0 -0 -2.62383e-05)
(0 -0 -2.65149e-05)
(0 -0 -2.67696e-05)
(0 -0 -2.7e-05)
(0 -0 -2.72044e-05)
(0 -0 -2.73811e-05)
(0 -0 -2.75284e-05)
(0 -0 -2.76449e-05)
(0 -0 -2.77288e-05)
(0 -0 -2.77786e-05)
(0 -0 -2.77925e-05)
(0 -0 -2.77685e-05)
(0 -0 -2.77043e-05)
(0 -0 -2.75973e-05)
(0 -0 -2.74447e-05)
(0 -0 -2.72431e-05)
(0 -0 -2.69883e-05)
(0 -0 -2.66759e-05)
(0 -0 -2.63001e-05)
(0 -0 -2.58544e-05)
(0 -0 -2.53308e-05)
(0 -0 -2.47203e-05)
(0 -0 -2.4013e-05)
(0 -0 -2.32005e-05)
(0 -0 -2.22787e-05)
(0 -0 -2.12491e-05)
(0 -0 -2.01001e-05)
(0 -0 -1.87022e-05)
(0 -0 -1.6388e-05)
(0 -0 -1.04739e-05)
(0 4.58872e-22 8.647e-06)
(0 -0 8.42354e-05)
(0 -0 0.000259282)
(0 -0 0.000469029)
(0 -0 0.000453371)
(0 -0 0.000144884)
(0 -0 -0.000283065)
(0 -0 -0.000611905)
(0 -0 -0.000738234)
(0 -0 -0.000687191)
(0 -0 -0.000542491)
(0 -0 -0.00038106)
(0 -0 -0.000246382)
(0 -0 -0.000151467)
(0 -0 -9.20944e-05)
(0 -0 -5.82653e-05)
(0 -0 -4.046e-05)
(0 -0 -3.17646e-05)
(0 -0 -2.78642e-05)
(0 -0 -2.63307e-05)
(0 -0 -2.59e-05)
(0 -0 -2.59537e-05)
(0 -0 -2.62041e-05)
(0 -0 -2.65232e-05)
(0 -0 -2.68558e-05)
(0 -0 -2.71792e-05)
(0 -0 -2.74836e-05)
(0 -0 -2.77646e-05)
(0 -0 -2.80199e-05)
(0 -0 -2.82473e-05)
(0 -0 -2.84452e-05)
(0 -0 -2.86119e-05)
(0 -0 -2.87457e-05)
(0 -0 -2.88448e-05)
(0 -0 -2.89075e-05)
(0 -0 -2.89319e-05)
(0 -0 -2.89158e-05)
(0 -0 -2.88568e-05)
(0 -0 -2.87521e-05)
(0 -0 -2.85985e-05)
(0 -0 -2.83923e-05)
(0 -0 -2.81292e-05)
(0 -0 -2.78041e-05)
(0 -0 -2.74111e-05)
(0 -0 -2.6943e-05)
(0 -0 -2.63913e-05)
(0 -0 -2.57464e-05)
(0 -0 -2.49981e-05)
(0 -0 -2.41376e-05)
(0 -0 -2.31618e-05)
(0 -0 -2.20769e-05)
(0 -0 -2.08882e-05)
(0 -0 -1.95256e-05)
(0 -0 -1.753e-05)
(0 -0 -1.28934e-05)
(0 -8.98028e-23 2.51197e-06)
(-1.51328e-23 8.02262e-21 2.21645e-07)
(-1.5531e-22 7.88519e-21 -1.47093e-06)
(3.68384e-23 -2.08354e-22 -4.1386e-06)
(3.376e-23 -2.35588e-20 -8.07314e-06)
(-9.82527e-23 8.06073e-21 -1.3531e-05)
(3.88866e-22 7.91601e-21 -2.06626e-05)
(-8.39035e-22 2.30598e-20 -2.94341e-05)
(3.26843e-22 -2.3453e-20 -3.9545e-05)
(6.6052e-22 -7.53774e-21 -5.03921e-05)
(-9.49812e-22 -3.87025e-24 -6.10807e-05)
(-9.52936e-22 -7.56439e-21 -7.04982e-05)
(8.35754e-22 7.17122e-21 -7.74513e-05)
(5.73588e-22 -5.92473e-20 -8.08411e-05)
(-1.04595e-21 1.27328e-19 -7.98432e-05)
(3.45804e-22 -6.85923e-20 -7.40523e-05)
(-1.32064e-21 -5.17403e-20 -6.36253e-05)
(-2.6947e-22 8.03921e-21 5.56772e-07)
(-1.01644e-22 1.58085e-20 -4.48576e-06)
(3.32296e-22 7.68708e-21 -1.24568e-05)
(-9.28677e-22 -7.90053e-21 -2.42237e-05)
(1.72199e-21 7.52434e-21 -4.05476e-05)
(-5.6185e-22 -5.40033e-20 -6.18859e-05)
(-1.73708e-22 8.58174e-20 -8.81356e-05)
(-6.40036e-23 -9.00729e-21 -0.000118428)
(2.22234e-21 -9.88417e-20 -0.000151008)
(-2.27699e-21 1.39714e-19 -0.000183256)
(-7.5254e-22 1.27585e-19 -0.000211917)
(5.42814e-22 -1.14913e-19 -0.00023349)
(-4.14199e-22 7.77797e-22 -0.000244752)
(2.94732e-21 -7.31593e-21 -0.000243279)
(-2.26598e-21 2.44657e-20 -0.000227903)
(-5.89059e-21 2.42248e-19 -0.000199)
(2.88864e-24 4.75925e-20 7.61357e-07)
(-7.85333e-23 1.50193e-20 -7.61476e-06)
(3.46955e-22 -6.2311e-20 -2.08969e-05)
(-7.19058e-22 1.24029e-19 -4.04953e-05)
(1.60251e-21 -2.65711e-19 -6.76472e-05)
(5.50844e-22 1.26464e-19 -0.000103094)
(-2.59411e-21 -9.24308e-22 -0.000146707)
(1.63854e-21 -1.72821e-20 -0.000197141)
(1.21657e-21 -2.59539e-19 -0.000251632)
(1.13359e-21 2.47502e-19 -0.00030604)
(-9.10146e-22 -1.72649e-21 -0.000355194)
(-4.45369e-21 -1.6387e-23 -0.000393529)
(7.07793e-21 -1.95835e-21 -0.00041591)
(-4.76177e-21 -2.5376e-19 -0.000418471)
(5.97151e-21 2.30967e-19 -0.000399331)
(-1.08684e-20 4.58934e-19 -0.000359158)
(3.93186e-22 -3.13747e-20 6.97002e-07)
(-3.73499e-22 1.58831e-20 -1.11333e-05)
(7.42761e-22 -1.83246e-22 -2.99195e-05)
(-6.77179e-22 -1.56241e-20 -5.75253e-05)
(-1.03389e-21 -1.54173e-21 -9.55914e-05)
(3.19267e-21 -2.45226e-19 -0.000145128)
(-4.29645e-21 4.64769e-19 -0.00020603)
(2.04835e-21 -2.50447e-19 -0.000276618)
(-1.91326e-21 1.50937e-20 -0.000353356)
(4.6182e-21 -2.74253e-19 -0.000430892)
(-5.73292e-21 2.50614e-19 -0.000502507)
(-3.18436e-21 4.77874e-19 -0.000560948)
(8.99132e-21 -9.67796e-19 -0.000599509)
(-1.10794e-20 9.67432e-19 -0.000613128)
(1.53114e-20 -9.63481e-19 -0.000599334)
(-8.82471e-21 9.5602e-19 -0.000558972)
(-7.65561e-22 1.5972e-20 2.61887e-07)
(-2.00463e-22 6.1033e-20 -1.55878e-05)
(1.82752e-21 -1.85501e-19 -4.05941e-05)
(-1.01245e-21 2.49106e-19 -7.68492e-05)
(-4.61788e-22 -1.10405e-19 -0.000126273)
(9.6428e-23 -1.47075e-20 -0.00019013)
(-4.80433e-22 1.55603e-20 -0.000268427)
(3.22619e-21 -1.99716e-22 -0.000359342)
(-3.10431e-21 -1.52039e-20 -0.000458868)
(-5.5185e-21 3.43159e-20 -0.000560848)
(-6.08738e-21 4.86117e-19 -0.000657489)
(1.82438e-20 -5.05452e-19 -0.000740334)
(-2.26326e-20 4.71946e-19 -0.000801541)
(1.85196e-20 -4.91099e-19 -0.000835176)
(-3.19646e-21 3.61567e-21 -0.00083833)
(1.16611e-20 5.205e-23 -0.000811996)
(-6.10228e-22 7.68746e-20 -9.00137e-07)
(1.67869e-21 -4.69165e-20 -2.24474e-05)
(-1.81446e-21 -1.66037e-20 -5.54253e-05)
(4.5215e-21 -2.2982e-19 -0.000101723)
(-1.97439e-21 2.31795e-19 -0.000163507)
(1.659e-21 -2.29387e-19 -0.000242338)
(-1.05525e-20 5.05956e-19 -0.000338465)
(1.06204e-20 -7.09062e-19 -0.000450164)
(-6.73955e-21 5.0188e-19 -0.000573319)
(-4.85862e-21 4.88985e-19 -0.000701438)
(-2.14967e-21 3.65123e-21 -0.000826192)
(2.27088e-20 -9.6107e-19 -0.000938483)
(-1.89717e-20 1.00113e-18 -0.00102983)
(3.63394e-21 -4.71541e-19 -0.00109382)
(1.06197e-20 -4.73783e-19 -0.00112728)
(2.11746e-20 -4.66507e-19 -0.00113133)
(6.17854e-22 -1.60605e-20 -3.37385e-06)
(1.4745e-21 -1.36586e-19 -3.53838e-05)
(-1.63827e-21 1.2327e-19 -7.92279e-05)
(-1.3965e-21 -1.74781e-20 -0.000137445)
(5.09874e-21 -2.28467e-19 -0.000212585)
(-4.65698e-21 2.35316e-19 -0.000306671)
(-4.83676e-21 4.75037e-19 -0.000420326)
(-5.40057e-21 -1.96542e-20 -0.000552137)
(2.47675e-21 -4.62977e-21 -0.000698203)
(1.37362e-20 -5.06804e-19 -0.000852127)
(-1.06803e-20 4.74524e-19 -0.00100556)
(1.47815e-20 -1.00448e-18 -0.00114927)
(-2.21396e-21 5.02552e-19 -0.00127463)
(-3.95725e-21 -1.90864e-20 -0.00137505)
(-5.25549e-21 -2.29846e-20 -0.00144726)
(2.43584e-20 -9.8758e-19 -0.00149229)
(-8.98252e-23 -0 -3.54154e-06)
(-8.28276e-22 -0 4.31468e-06)
(7.3988e-22 -0 6.60432e-06)
(-9.50461e-23 -0 6.52784e-07)
(-1.46229e-21 -0 -1.60058e-05)
(1.46716e-21 -0 -4.51339e-05)
(3.14465e-21 -0 -8.70075e-05)
(-4.91197e-23 -0 -0.000139781)
(5.6542e-23 -0 -0.000199031)
(-3.50612e-21 -0 -0.000257722)
(3.42642e-21 -0 -0.000306714)
(-7.28117e-21 -0 -0.000335809)
(3.63324e-21 -0 -0.000335143)
(-1.17536e-22 -0 -0.000296648)
(-1.20422e-22 -0 -0.000215268)
(-7.97399e-21 -0 -8.97823e-05)
(0 -0 -1.19346e-05)
(0 -0 -1.19997e-05)
(0 -0 -1.69358e-05)
(0 -0 -2.96887e-05)
(0 -0 -5.30761e-05)
(0 -0 -8.91015e-05)
(0 -0 -0.000138368)
(0 -0 -0.000199425)
(0 -0 -0.000268315)
(0 -0 -0.000338517)
(0 -0 -0.000401407)
(0 -0 -0.000447238)
(0 -0 -0.000466477)
(0 -0 -0.000451215)
(0 -0 -0.000396356)
(0 -0 -0.000300377)
(0 -0 -1.32264e-05)
(0 -0 -1.72656e-05)
(0 -0 -2.62622e-05)
(0 -0 -4.29542e-05)
(0 -0 -7.00008e-05)
(0 -0 -0.000109468)
(0 -0 -0.000162179)
(0 -0 -0.000227084)
(0 -0 -0.000300801)
(0 -0 -0.000377539)
(0 -0 -0.000449486)
(0 -0 -0.000507689)
(0 -0 -0.000543275)
(0 -0 -0.000548758)
(0 -0 -0.000519156)
(0 -0 -0.000452721)
(0 -0 -1.07198e-05)
(0 -0 -1.63292e-05)
(0 -0 -2.69882e-05)
(0 -0 -4.50664e-05)
(0 -0 -7.29901e-05)
(0 -0 -0.000112745)
(0 -0 -0.000165272)
(0 -0 -0.000229869)
(0 -0 -0.00030376)
(0 -0 -0.000381984)
(0 -0 -0.000457717)
(0 -0 -0.000523018)
(0 -0 -0.000569904)
(0 -0 -0.000591512)
(0 -0 -0.000583118)
(0 -0 -0.00054281)
(0 -0 -6.27471e-06)
(0 -0 -1.21649e-05)
(0 -0 -2.28945e-05)
(0 -0 -4.05395e-05)
(0 -0 -6.72653e-05)
(0 -0 -0.000104909)
(0 -0 -0.000154449)
(0 -0 -0.000215472)
(0 -0 -0.000285783)
(0 -0 -0.000361273)
(0 -0 -0.000436172)
(0 -0 -0.000503666)
(0 -0 -0.000556803)
(0 -0 -0.000589491)
(0 -0 -0.000597389)
(0 -0 -0.00057852)
(0 -0 -1.17068e-06)
(0 -0 -6.64551e-06)
(0 -0 -1.65226e-05)
(0 -0 -3.26069e-05)
(0 -0 -5.67954e-05)
(0 -0 -9.07379e-05)
(0 -0 -0.000135392)
(0 -0 -0.000190568)
(0 -0 -0.000254585)
(0 -0 -0.000324145)
(0 -0 -0.000394515)
(0 -0 -0.000460023)
(0 -0 -0.000514801)
(0 -0 -0.000553612)
(0 -0 -0.0005726)
(0 -0 -0.000569835)
(0 -0 3.72466e-06)
(0 -0 -1.0037e-06)
(0 -0 -9.57218e-06)
(0 -0 -2.35214e-05)
(0 -0 -4.44762e-05)
(0 -0 -7.38756e-05)
(0 -0 -0.000112609)
(0 -0 -0.000160642)
(0 -0 -0.000216723)
(0 -0 -0.000278272)
(0 -0 -0.000341511)
(0 -0 -0.000401851)
(0 -0 -0.000454481)
(0 -0 -0.000495039)
(0 -0 -0.00052022)
(0 -0 -0.000528238)
(0 -0 7.86859e-06)
(0 -0 3.99594e-06)
(0 -0 -3.11902e-06)
(0 -0 -1.47614e-05)
(0 -0 -3.22884e-05)
(0 -0 -5.69173e-05)
(0 -0 -8.94342e-05)
(0 -0 -0.000129892)
(0 -0 -0.000177378)
(0 -0 -0.000229911)
(0 -0 -0.000284543)
(0 -0 -0.000337652)
(0 -0 -0.000385402)
(0 -0 -0.00042427)
(0 -0 -0.000451519)
(0 -0 -0.000465587)
(0 -0 1.09998e-05)
(0 -0 7.95946e-06)
(0 -0 2.2469e-06)
(0 -0 -7.18594e-06)
(0 -0 -2.1444e-05)
(0 -0 -4.15252e-05)
(0 -0 -6.80904e-05)
(0 -0 -0.000101227)
(0 -0 -0.000140264)
(0 -0 -0.0001837)
(0 -0 -0.00022927)
(0 -0 -0.000274172)
(0 -0 -0.000315426)
(0 -0 -0.000350262)
(0 -0 -0.000376498)
(0 -0 -0.000392838)
(0 -0 1.30829e-05)
(0 -0 1.07784e-05)
(0 -0 6.30568e-06)
(0 -0 -1.17362e-06)
(0 -0 -1.25382e-05)
(0 -0 -2.85813e-05)
(0 -0 -4.98308e-05)
(0 -0 -7.63667e-05)
(0 -0 -0.000107685)
(0 -0 -0.00014264)
(0 -0 -0.000179507)
(0 -0 -0.000216151)
(0 -0 -0.000250299)
(0 -0 -0.000279836)
(0 -0 -0.000303078)
(0 -0 -0.000319011)
(0 -0 1.4239e-05)
(0 -0 1.25412e-05)
(0 -0 9.09569e-06)
(0 -0 3.24055e-06)
(0 -0 -5.70937e-06)
(0 -0 -1.83669e-05)
(0 -0 -3.51315e-05)
(0 -0 -5.60509e-05)
(0 -0 -8.0723e-05)
(0 -0 -0.000108261)
(0 -0 -0.000137343)
(0 -0 -0.000166353)
(0 -0 -0.000193584)
(0 -0 -0.000217456)
(0 -0 -0.000236714)
(0 -0 -0.000250612)
(0 -0 1.46734e-05)
(0 -0 1.34478e-05)
(0 -0 1.08085e-05)
(0 -0 6.23595e-06)
(0 -0 -7.97055e-07)
(0 -0 -1.07522e-05)
(0 -0 -2.39141e-05)
(0 -0 -4.02863e-05)
(0 -0 -5.95237e-05)
(0 -0 -8.09152e-05)
(0 -0 -0.000103434)
(0 -0 -0.000125849)
(0 -0 -0.000146886)
(0 -0 -0.000165385)
(0 -0 -0.000180443)
(0 -0 -0.000191547)
(0 -0 1.46134e-05)
(0 -0 1.37364e-05)
(0 -0 1.17003e-05)
(0 -0 8.09578e-06)
(0 -0 2.51927e-06)
(0 -0 -5.37017e-06)
(0 -0 -1.57611e-05)
(0 -0 -2.86108e-05)
(0 -0 -4.36016e-05)
(0 -0 -6.01387e-05)
(0 -0 -7.73995e-05)
(0 -0 -9.44319e-05)
(0 -0 -0.000110278)
(0 -0 -0.000124098)
(0 -0 -0.000135259)
(0 -0 -0.000143444)
(0 -0 1.42638e-05)
(0 -0 1.36315e-05)
(0 -0 1.20273e-05)
(0 -0 9.12419e-06)
(0 -0 4.61189e-06)
(0 -0 -1.75821e-06)
(0 -0 -1.00986e-05)
(0 -0 -2.03249e-05)
(0 -0 -3.213e-05)
(0 -0 -4.49925e-05)
(0 -0 -5.82289e-05)
(0 -0 -7.10804e-05)
(0 -0 -8.28159e-05)
(0 -0 -9.28248e-05)
(0 -0 -0.000100679)
(0 -0 -0.00010621)
(0 -0 1.37842e-05)
(0 -0 1.33147e-05)
(0 -0 1.2007e-05)
(0 -0 9.59379e-06)
(0 -0 5.83273e-06)
(0 -0 5.43075e-07)
(0 -0 -6.3304e-06)
(0 -0 -1.46695e-05)
(0 -0 -2.41688e-05)
(0 -0 -3.43532e-05)
(0 -0 -4.46312e-05)
(0 -0 -5.4375e-05)
(0 -0 -6.30098e-05)
(0 -0 -7.00864e-05)
(0 -0 -7.5321e-05)
(0 -0 -7.8658e-05)
(0 -0 1.32823e-05)
(0 -0 1.29148e-05)
(0 -0 1.18025e-05)
(0 -0 9.72052e-06)
(0 -0 6.47451e-06)
(0 -0 1.93199e-06)
(0 -0 -3.92109e-06)
(0 -0 -1.09412e-05)
(0 -0 -1.88218e-05)
(0 -0 -2.71169e-05)
(0 -0 -3.52954e-05)
(0 -0 -4.28171e-05)
(0 -0 -4.92121e-05)
(0 -0 -5.41406e-05)
(0 -0 -5.74186e-05)
(0 -0 -5.90683e-05)
(0 -0 1.28195e-05)
(0 -0 1.25113e-05)
(0 -0 1.15229e-05)
(0 -0 9.65867e-06)
(0 -0 6.75812e-06)
(0 -0 2.72198e-06)
(0 -0 -2.43549e-06)
(0 -0 -8.55318e-06)
(0 -0 -1.53237e-05)
(0 -0 -2.23201e-05)
(0 -0 -2.90515e-05)
(0 -0 -3.50358e-05)
(0 -0 -3.98727e-05)
(0 -0 -4.32948e-05)
(0 -0 -4.5184e-05)
(0 -0 -4.56139e-05)
(0 -0 1.24225e-05)
(0 -0 1.2145e-05)
(0 -0 1.12318e-05)
(0 -0 9.50826e-06)
(0 -0 6.83683e-06)
(0 -0 3.14088e-06)
(0 -0 -1.54663e-06)
(0 -0 -7.05351e-06)
(0 -0 -1.30727e-05)
(0 -0 -1.91912e-05)
(0 -0 -2.49458e-05)
(0 -0 -2.98936e-05)
(0 -0 -3.36802e-05)
(0 -0 -3.60855e-05)
(0 -0 -3.70332e-05)
(0 -0 -3.66293e-05)
(0 -0 1.20951e-05)
(0 -0 1.183e-05)
(0 -0 1.09608e-05)
(0 -0 9.32752e-06)
(0 -0 6.80874e-06)
(0 -0 3.34297e-06)
(0 -0 -1.02482e-06)
(0 -0 -6.11628e-06)
(0 -0 -1.16263e-05)
(0 -0 -1.71534e-05)
(0 -0 -2.22546e-05)
(0 -0 -2.65144e-05)
(0 -0 -2.96095e-05)
(0 -0 -3.13502e-05)
(0 -0 -3.16863e-05)
(0 -0 -3.07426e-05)
(0 -0 1.18286e-05)
(0 -0 1.1565e-05)
(0 -0 1.07204e-05)
(0 -0 9.14584e-06)
(0 -0 6.73144e-06)
(0 -0 3.42594e-06)
(0 -0 -7.18255e-07)
(0 -0 -5.52004e-06)
(0 -0 -1.06779e-05)
(0 -0 -1.58004e-05)
(0 -0 -2.04611e-05)
(0 -0 -2.42647e-05)
(0 -0 -2.69098e-05)
(0 -0 -2.82266e-05)
(0 -0 -2.81808e-05)
(0 -0 -2.69069e-05)
(0 -0 1.16092e-05)
(0 -0 1.13407e-05)
(0 -0 1.05094e-05)
(0 -0 8.97467e-06)
(0 -0 6.63533e-06)
(0 -0 3.44733e-06)
(0 -0 -5.32459e-07)
(0 -0 -5.12252e-06)
(0 -0 -1.0026e-05)
(0 -0 -1.48613e-05)
(0 -0 -1.92159e-05)
(0 -0 -2.2711e-05)
(0 -0 -2.50614e-05)
(0 -0 -2.61113e-05)
(0 -0 -2.58357e-05)
(0 -0 -2.43734e-05)
(0 -0 1.14221e-05)
(0 -0 1.11453e-05)
(0 -0 1.0321e-05)
(0 -0 8.81519e-06)
(0 -0 6.53381e-06)
(0 -0 3.43808e-06)
(0 -0 -4.12487e-07)
(0 -0 -4.83738e-06)
(0 -0 -9.54513e-06)
(0 -0 -1.4164e-05)
(0 -0 -1.82943e-05)
(0 -0 -2.15712e-05)
(0 -0 -2.37228e-05)
(0 -0 -2.46038e-05)
(0 -0 -2.41948e-05)
(0 -0 -2.26353e-05)
(0 -0 1.12536e-05)
(0 -0 1.09669e-05)
(0 -0 1.0146e-05)
(0 -0 8.66321e-06)
(0 -0 6.43019e-06)
(0 -0 3.41234e-06)
(0 -0 -3.2918e-07)
(0 -0 -4.61573e-06)
(0 -0 -9.16181e-06)
(0 -0 -1.36054e-05)
(0 -0 -1.7559e-05)
(0 -0 -2.06709e-05)
(0 -0 -2.26808e-05)
(0 -0 -2.34515e-05)
(0 -0 -2.29674e-05)
(0 -0 -2.13669e-05)
(0 -0 1.10907e-05)
(0 -0 1.07933e-05)
(0 -0 9.97428e-06)
(0 -0 8.5113e-06)
(0 -0 6.32139e-06)
(0 -0 3.37351e-06)
(0 -0 -2.70153e-07)
(0 -0 -4.43332e-06)
(0 -0 -8.83678e-06)
(0 -0 -1.31282e-05)
(0 -0 -1.69321e-05)
(0 -0 -1.9909e-05)
(0 -0 -2.18094e-05)
(0 -0 -2.25036e-05)
(0 -0 -2.19787e-05)
(0 -0 -2.03708e-05)
(0 -0 1.09187e-05)
(0 -0 1.06101e-05)
(0 -0 9.79203e-06)
(0 -0 8.34724e-06)
(0 -0 6.19765e-06)
(0 -0 3.31549e-06)
(0 -0 -2.36376e-07)
(0 -0 -4.28432e-06)
(0 -0 -8.55549e-06)
(0 -0 -1.27072e-05)
(0 -0 -1.63759e-05)
(0 -0 -1.92342e-05)
(0 -0 -2.10429e-05)
(0 -0 -2.16794e-05)
(0 -0 -2.11332e-05)
(0 -0 -1.95372e-05)
(0 -0 1.0711e-05)
(0 -0 1.03908e-05)
(0 -0 9.57314e-06)
(0 -0 8.14567e-06)
(0 -0 6.03488e-06)
(0 -0 3.21602e-06)
(0 -0 -2.47475e-07)
(0 -0 -4.18469e-06)
(0 -0 -8.32917e-06)
(0 -0 -1.2348e-05)
(0 -0 -1.58892e-05)
(0 -0 -1.86374e-05)
(0 -0 -2.03639e-05)
(0 -0 -2.09531e-05)
(0 -0 -2.03966e-05)
(0 -0 -1.88227e-05)
(0 -0 1.041e-05)
(0 -0 1.00772e-05)
(0 -0 9.25992e-06)
(0 -0 7.84909e-06)
(0 -0 5.77569e-06)
(0 -0 3.01812e-06)
(0 -0 -3.59567e-07)
(0 -0 -4.18913e-06)
(0 -0 -8.2105e-06)
(0 -0 -1.21004e-05)
(0 -0 -1.55184e-05)
(0 -0 -1.81612e-05)
(0 -0 -1.98106e-05)
(0 -0 -2.03587e-05)
(0 -0 -1.97994e-05)
(0 -0 -1.82508e-05)
(0 -0 9.99081e-06)
(0 -0 9.63976e-06)
(0 -0 8.82402e-06)
(0 -0 7.42917e-06)
(0 -0 5.39111e-06)
(0 -0 2.69232e-06)
(0 -0 -6.02291e-07)
(0 -0 -4.32711e-06)
(0 -0 -8.22839e-06)
(0 -0 -1.19923e-05)
(0 -0 -1.52902e-05)
(0 -0 -1.78307e-05)
(0 -0 -1.94067e-05)
(0 -0 -1.9919e-05)
(0 -0 -1.93656e-05)
(0 -0 -1.78448e-05)
(0 -0 9.63802e-06)
(0 -0 9.30025e-06)
(0 -0 8.47498e-06)
(0 -0 7.09931e-06)
(0 -0 5.09528e-06)
(0 -0 2.45403e-06)
(0 -0 -7.58592e-07)
(0 -0 -4.37978e-06)
(0 -0 -8.16209e-06)
(0 -0 -1.18013e-05)
(0 -0 -1.49803e-05)
(0 -0 -1.742e-05)
(0 -0 -1.89249e-05)
(0 -0 -1.94079e-05)
(0 -0 -1.88752e-05)
(0 -0 -1.74272e-05)
(0 -0 9.73576e-06)
(0 -0 9.37418e-06)
(0 -0 8.57367e-06)
(0 -0 7.21275e-06)
(0 -0 5.24941e-06)
(0 -0 2.66908e-06)
(0 -0 -4.57769e-07)
(0 -0 -3.97165e-06)
(0 -0 -7.63163e-06)
(0 -0 -1.1143e-05)
(0 -0 -1.42005e-05)
(0 -0 -1.65371e-05)
(0 -0 -1.79697e-05)
(0 -0 -1.84251e-05)
(0 -0 -1.79258e-05)
(0 -0 -1.65869e-05)
(0 -0 9.61865e-05)
(0 -0 0.000287772)
(0 -0 0.000526781)
(0 -0 0.000527674)
(0 -0 0.000206984)
(0 -0 -0.000253982)
(0 -0 -0.00061732)
(0 -0 -0.000765778)
(0 -0 -0.000721769)
(0 -0 -0.000573557)
(0 -0 -0.000404138)
(0 -0 -0.000261306)
(0 -0 -0.000160027)
(0 -0 -9.64122e-05)
(0 -0 -6.00556e-05)
(0 -0 -4.08716e-05)
(0 -0 -3.14793e-05)
(0 -0 -2.72517e-05)
(0 -0 -2.55775e-05)
(0 -0 -2.50947e-05)
(0 -0 -2.51361e-05)
(0 -0 -2.5391e-05)
(0 -0 -2.57212e-05)
(0 -0 -2.60672e-05)
(0 -0 -2.64044e-05)
(0 -0 -2.67224e-05)
(0 -0 -2.70166e-05)
(0 -0 -2.72843e-05)
(0 -0 -2.75235e-05)
(0 -0 -2.77324e-05)
(0 -0 -2.79093e-05)
(0 -0 -2.80524e-05)
(0 -0 -2.816e-05)
(0 -0 -2.82301e-05)
(0 -0 -2.82607e-05)
(0 -0 -2.82497e-05)
(0 -0 -2.81943e-05)
(0 -0 -2.80917e-05)
(0 -0 -2.79384e-05)
(0 -0 -2.77306e-05)
(0 -0 -2.74636e-05)
(0 -0 -2.71322e-05)
(0 -0 -2.67299e-05)
(0 -0 -2.62494e-05)
(0 -0 -2.56819e-05)
(0 -0 -2.50173e-05)
(0 -0 -2.42452e-05)
(0 -0 -2.33572e-05)
(0 -0 -2.23511e-05)
(0 -0 -2.1238e-05)
(0 -0 -2.00427e-05)
(0 -0 -1.87722e-05)
(0 -0 -1.72916e-05)
(0 -0 -1.50995e-05)
(0 -0 -1.22077e-05)
(0 -0 0.000108001)
(0 -0 0.000312822)
(0 -0 0.000580335)
(0 -0 0.000604084)
(0 -0 0.000282603)
(0 -0 -0.000200973)
(0 -0 -0.000593908)
(0 -0 -0.000765628)
(0 -0 -0.000733623)
(0 -0 -0.000588009)
(0 -0 -0.000416025)
(0 -0 -0.000269042)
(0 -0 -0.000163998)
(0 -0 -9.7666e-05)
(0 -0 -5.96027e-05)
(0 -0 -3.94468e-05)
(0 -0 -2.95407e-05)
(0 -0 -2.50565e-05)
(0 -0 -2.32594e-05)
(0 -0 -2.27189e-05)
(0 -0 -2.27331e-05)
(0 -0 -2.29747e-05)
(0 -0 -2.32977e-05)
(0 -0 -2.36395e-05)
(0 -0 -2.3974e-05)
(0 -0 -2.42902e-05)
(0 -0 -2.45832e-05)
(0 -0 -2.48504e-05)
(0 -0 -2.50896e-05)
(0 -0 -2.5299e-05)
(0 -0 -2.5477e-05)
(0 -0 -2.56217e-05)
(0 -0 -2.57314e-05)
(0 -0 -2.58041e-05)
(0 -0 -2.58378e-05)
(0 -0 -2.58301e-05)
(0 -0 -2.57785e-05)
(0 -0 -2.56799e-05)
(0 -0 -2.55307e-05)
(0 -0 -2.5327e-05)
(0 -0 -2.50641e-05)
(0 -0 -2.47364e-05)
(0 -0 -2.43377e-05)
(0 -0 -2.38605e-05)
(0 -0 -2.32959e-05)
(0 -0 -2.26341e-05)
(0 -0 -2.1865e-05)
(0 -0 -2.09804e-05)
(0 -0 -1.99798e-05)
(0 -0 -1.88782e-05)
(0 -0 -1.77159e-05)
(0 -0 -1.65571e-05)
(0 -0 -1.5459e-05)
(0 -0 -1.44323e-05)
(0 -0 -1.35417e-05)
(0 -0 0.00011939)
(0 -0 0.000334106)
(0 -0 0.000628563)
(0 -0 0.000680169)
(0 -0 0.000368238)
(0 -0 -0.000127825)
(0 -0 -0.000545)
(0 -0 -0.000740294)
(0 -0 -0.000724434)
(0 -0 -0.000586894)
(0 -0 -0.000417362)
(0 -0 -0.000270013)
(0 -0 -0.0001637)
(0 -0 -9.61381e-05)
(0 -0 -5.71803e-05)
(0 -0 -3.64622e-05)
(0 -0 -2.62316e-05)
(0 -0 -2.15676e-05)
(0 -0 -1.96701e-05)
(0 -0 -1.90702e-05)
(0 -0 -1.90451e-05)
(0 -0 -1.92573e-05)
(0 -0 -1.95561e-05)
(0 -0 -1.98766e-05)
(0 -0 -2.01919e-05)
(0 -0 -2.04906e-05)
(0 -0 -2.07677e-05)
(0 -0 -2.10203e-05)
(0 -0 -2.12466e-05)
(0 -0 -2.14446e-05)
(0 -0 -2.16126e-05)
(0 -0 -2.1749e-05)
(0 -0 -2.18518e-05)
(0 -0 -2.19192e-05)
(0 -0 -2.19491e-05)
(0 -0 -2.19392e-05)
(0 -0 -2.18869e-05)
(0 -0 -2.1789e-05)
(0 -0 -2.1642e-05)
(0 -0 -2.14417e-05)
(0 -0 -2.11835e-05)
(0 -0 -2.0862e-05)
(0 -0 -2.04708e-05)
(0 -0 -2.00025e-05)
(0 -0 -1.94487e-05)
(0 -0 -1.87997e-05)
(0 -0 -1.8046e-05)
(0 -0 -1.71802e-05)
(0 -0 -1.62025e-05)
(0 -0 -1.51306e-05)
(0 -0 -1.40138e-05)
(0 -0 -1.29476e-05)
(0 -0 -1.2084e-05)
(0 -0 -1.16433e-05)
(0 -0 -1.1968e-05)
(0 -0 0.00013043)
(0 -0 0.000352192)
(0 -0 0.000671853)
(0 -0 0.000754814)
(0 -0 0.000460527)
(0 -0 -3.97282e-05)
(0 -0 -0.000476478)
(0 -0 -0.000695239)
(0 -0 -0.000698615)
(0 -0 -0.000573435)
(0 -0 -0.000410363)
(0 -0 -0.0002657)
(0 -0 -0.00016015)
(0 -0 -9.25738e-05)
(0 -0 -5.33889e-05)
(0 -0 -3.24467e-05)
(0 -0 -2.20485e-05)
(0 -0 -1.72686e-05)
(0 -0 -1.52901e-05)
(0 -0 -1.46296e-05)
(0 -0 -1.45555e-05)
(0 -0 -1.47254e-05)
(0 -0 -1.4986e-05)
(0 -0 -1.52715e-05)
(0 -0 -1.55541e-05)
(0 -0 -1.58224e-05)
(0 -0 -1.60712e-05)
(0 -0 -1.62977e-05)
(0 -0 -1.65e-05)
(0 -0 -1.66762e-05)
(0 -0 -1.68247e-05)
(0 -0 -1.69437e-05)
(0 -0 -1.70314e-05)
(0 -0 -1.7086e-05)
(0 -0 -1.71054e-05)
(0 -0 -1.70872e-05)
(0 -0 -1.70289e-05)
(0 -0 -1.69273e-05)
(0 -0 -1.67788e-05)
(0 -0 -1.65793e-05)
(0 -0 -1.63242e-05)
(0 -0 -1.6008e-05)
(0 -0 -1.56246e-05)
(0 -0 -1.51669e-05)
(0 -0 -1.46266e-05)
(0 -0 -1.39949e-05)
(0 -0 -1.32626e-05)
(0 -0 -1.24232e-05)
(0 -0 -1.14776e-05)
(0 -0 -1.04442e-05)
(0 -0 -9.37528e-06)
(0 -0 -8.3785e-06)
(0 -0 -7.64351e-06)
(0 -0 -7.47506e-06)
(0 -0 -8.34351e-06)
(0 -0 0.000141234)
(0 -0 0.000367798)
(0 -0 0.000710761)
(0 -0 0.000826825)
(0 -0 0.000555585)
(0 -0 5.72062e-05)
(0 -0 -0.000395326)
(0 -0 -0.000636986)
(0 -0 -0.000661442)
(0 -0 -0.000551488)
(0 -0 -0.00039766)
(0 -0 -0.000257857)
(0 -0 -0.000154535)
(0 -0 -8.78329e-05)
(0 -0 -4.89128e-05)
(0 -0 -2.79979e-05)
(0 -0 -1.75501e-05)
(0 -0 -1.27036e-05)
(0 -0 -1.06598e-05)
(0 -0 -9.93945e-06)
(0 -0 -9.81048e-06)
(0 -0 -9.92963e-06)
(0 -0 -1.0143e-05)
(0 -0 -1.03841e-05)
(0 -0 -1.0625e-05)
(0 -0 -1.08541e-05)
(0 -0 -1.10661e-05)
(0 -0 -1.12584e-05)
(0 -0 -1.1429e-05)
(0 -0 -1.15761e-05)
(0 -0 -1.1698e-05)
(0 -0 -1.17931e-05)
(0 -0 -1.18595e-05)
(0 -0 -1.18954e-05)
(0 -0 -1.18988e-05)
(0 -0 -1.18674e-05)
(0 -0 -1.17985e-05)
(0 -0 -1.16889e-05)
(0 -0 -1.15352e-05)
(0 -0 -1.13331e-05)
(0 -0 -1.10782e-05)
(0 -0 -1.07651e-05)
(0 -0 -1.03878e-05)
(0 -0 -9.93956e-06)
(0 -0 -9.41262e-06)
(0 -0 -8.79859e-06)
(0 -0 -8.0892e-06)
(0 -0 -7.27845e-06)
(0 -0 -6.36761e-06)
(0 -0 -5.37468e-06)
(0 -0 -4.35048e-06)
(0 -0 -3.40226e-06)
(0 -0 -2.72517e-06)
(0 -0 -2.64222e-06)
(0 -0 -3.65741e-06)
(0 -0 0.000151905)
(0 -0 0.000381702)
(0 -0 0.000745988)
(0 -0 0.000895155)
(0 -0 0.000649592)
(0 -0 0.0001568)
(0 -0 -0.000308697)
(0 -0 -0.000572259)
(0 -0 -0.000618374)
(0 -0 -0.000525038)
(0 -0 -0.000381965)
(0 -0 -0.000248267)
(0 -0 -0.000148045)
(0 -0 -8.27568e-05)
(0 -0 -4.44077e-05)
(0 -0 -2.36799e-05)
(0 -0 -1.32594e-05)
(0 -0 -8.38004e-06)
(0 -0 -6.28362e-06)
(0 -0 -5.5061e-06)
(0 -0 -5.32074e-06)
(0 -0 -5.38588e-06)
(0 -0 -5.54799e-06)
(0 -0 -5.74061e-06)
(0 -0 -5.93572e-06)
(0 -0 -6.12159e-06)
(0 -0 -6.29302e-06)
(0 -0 -6.44726e-06)
(0 -0 -6.58241e-06)
(0 -0 -6.69676e-06)
(0 -0 -6.78862e-06)
(0 -0 -6.85629e-06)
(0 -0 -6.89804e-06)
(0 -0 -6.91204e-06)
(0 -0 -6.89626e-06)
(0 -0 -6.84839e-06)
(0 -0 -6.76574e-06)
(0 -0 -6.64521e-06)
(0 -0 -6.48326e-06)
(0 -0 -6.27584e-06)
(0 -0 -6.0184e-06)
(0 -0 -5.70583e-06)
(0 -0 -5.33235e-06)
(0 -0 -4.89145e-06)
(0 -0 -4.37591e-06)
(0 -0 -3.77797e-06)
(0 -0 -3.09004e-06)
(0 -0 -2.30676e-06)
(0 -0 -1.42942e-06)
(0 -0 -4.7466e-07)
(0 -0 5.10699e-07)
(0 -0 1.42704e-06)
(0 -0 2.09095e-06)
(0 -0 2.19517e-06)
(0 -0 1.25692e-06)
(0 -0 0.000162522)
(0 -0 0.000394653)
(0 -0 0.00077833)
(0 -0 0.000959098)
(0 -0 0.000739312)
(0 -0 0.000253595)
(0 -0 -0.000223034)
(0 -0 -0.000507176)
(0 -0 -0.000574402)
(0 -0 -0.000497727)
(0 -0 -0.00036574)
(0 -0 -0.000238527)
(0 -0 -0.000141714)
(0 -0 -7.80539e-05)
(0 -0 -4.04056e-05)
(0 -0 -1.99373e-05)
(0 -0 -9.58205e-06)
(0 -0 -4.68861e-06)
(0 -0 -2.54872e-06)
(0 -0 -1.71857e-06)
(0 -0 -1.47921e-06)
(0 -0 -1.49179e-06)
(0 -0 -1.60367e-06)
(0 -0 -1.74859e-06)
(0 -0 -1.89854e-06)
(0 -0 -2.04172e-06)
(0 -0 -2.17293e-06)
(0 -0 -2.28943e-06)
(0 -0 -2.38932e-06)
(0 -0 -2.47093e-06)
(0 -0 -2.53259e-06)
(0 -0 -2.57262e-06)
(0 -0 -2.58931e-06)
(0 -0 -2.5808e-06)
(0 -0 -2.54508e-06)
(0 -0 -2.47982e-06)
(0 -0 -2.38235e-06)
(0 -0 -2.24957e-06)
(0 -0 -2.07796e-06)
(0 -0 -1.86355e-06)
(0 -0 -1.60189e-06)
(0 -0 -1.28798e-06)
(0 -0 -9.16292e-07)
(0 -0 -4.80659e-07)