/*--------------------------------*- C++ -*----------------------------------*\
| =========                 |                                                 |
| \\      /  F ield         | OpenFOAM: The Open Source CFD Toolbox           |
|  \\    /   O peration     | Version:  2412                                  |
|   \\  /    A nd           | Website:  www.openfoam.com                      |
|    \\/     M anipulation  |                                                 |
\*---------------------------------------------------------------------------*/
FoamFile
{
    version     2.0;
    format      ascii;
    arch        "LSB;label=32;scalar=64";
    class       surfaceScalarField;
    location    "11.5";
    object      phi;
}
// * * * * * * * * * * * * * * * * * * * * * * * * * * * * * * * * * * * * * //

dimensions      [0 3 -1 0 0 0 0];

oriented        oriented;

internalField   nonuniform List<scalar> 
10424
(
0.00505063
1.29715e-07
1.93673e-11
0.00505028
3.46185e-07
1.30247e-10
0.00504966
6.18266e-07
1.41827e-10
0.0050485
1.16526e-06
-2.39874e-10
0.00504641
2.08732e-06
-1.14466e-09
0.0050432
3.21879e-06
-2.31919e-09
0.00503897
4.2265e-06
-3.248e-09
0.00503415
4.82877e-06
-3.4781e-09
0.00502921
4.93737e-06
-2.85808e-09
0.00502456
4.65171e-06
-1.5529e-09
0.0050204
4.16203e-06
1.00142e-10
0.00501675
3.64921e-06
1.76026e-09
0.00501352
3.23016e-06
3.18901e-09
0.00501056
2.95098e-06
4.27732e-09
0.00500775
2.80713e-06
5.01993e-09
0.00500497
2.76917e-06
5.47182e-09
0.00500217
2.80239e-06
5.70926e-09
0.00499928
2.87742e-06
5.80487e-09
0.0049963
2.9736e-06
5.81574e-09
0.00499322
3.07848e-06
5.7813e-09
0.00499003
3.18565e-06
5.72558e-09
0.00498673
3.29253e-06
5.66112e-09
0.00498332
3.39866e-06
5.5928e-09
0.00497981
3.50459e-06
5.52136e-09
0.0049762
3.61119e-06
5.44606e-09
0.00497247
3.71935e-06
5.36593e-09
0.00496864
3.82983e-06
5.28017e-09
0.00496469
3.94325e-06
5.18797e-09
0.00496062
4.06006e-06
5.08872e-09
0.00495644
4.18058e-06
4.98218e-09
0.00495213
4.30507e-06
4.86865e-09
0.00494769
4.43369e-06
4.74862e-09
0.00494312
4.56657e-06
4.62227e-09
0.00493841
4.70379e-06
4.4894e-09
0.00493356
4.84543e-06
4.34978e-09
0.00492857
4.99155e-06
4.20358e-09
0.00492342
5.14218e-06
4.05129e-09
0.00491812
5.29738e-06
3.89345e-09
0.00491266
5.45719e-06
3.7304e-09
0.00490703
5.62166e-06
3.56245e-09
0.00490124
5.79083e-06
3.39019e-09
0.00489527
5.96476e-06
3.21448e-09
0.00488912
6.14351e-06
3.03615e-09
0.00488279
6.32715e-06
2.85566e-09
0.00487627
6.51575e-06
2.67313e-09
0.00486956
6.7094e-06
2.48878e-09
0.00486265
6.90819e-06
2.30317e-09
0.00485554
7.11225e-06
2.11701e-09
0.00484821
7.32171e-06
1.93081e-09
0.00484068
7.53672e-06
1.74482e-09
0.00483292
7.75751e-06
1.55926e-09
0.00482493
7.98446e-06
1.37455e-09
0.00481671
8.21841e-06
1.19135e-09
0.00480825
8.46159e-06
1.01018e-09
8.72024e-06
0.00479953
8.31112e-10
0.00505063
2.59398e-07
0.00505028
6.92849e-07
0.00504966
1.23557e-06
0.00504851
2.32264e-06
0.00504644
4.1546e-06
0.00504325
6.40515e-06
0.00503906
8.41411e-06
0.00503427
9.62124e-06
0.00502936
9.84888e-06
0.00502472
9.29184e-06
0.00502056
8.32633e-06
0.00501689
7.31123e-06
0.00501365
6.47934e-06
0.00501067
5.92329e-06
0.00500785
5.63507e-06
0.00500506
5.557e-06
0.00500224
5.62062e-06
0.00499935
5.76779e-06
0.00499636
5.95757e-06
0.00499328
6.16517e-06
0.00499009
6.37775e-06
0.00498679
6.59011e-06
0.00498339
6.80127e-06
0.00497988
7.01224e-06
0.00497626
7.2247e-06
0.00497254
7.44038e-06
0.00496871
7.66078e-06
0.00496477
7.88708e-06
0.00496071
8.12017e-06
0.00495653
8.3607e-06
0.00495222
8.60916e-06
0.00494779
8.86587e-06
0.00494323
9.13107e-06
0.00493853
9.40493e-06
0.00493368
9.68761e-06
0.0049287
9.97919e-06
0.00492356
1.02798e-05
0.00491827
1.05895e-05
0.00491282
1.09083e-05
0.0049072
1.12365e-05
0.00490142
1.1574e-05
0.00489546
1.19209e-05
0.00488933
1.22775e-05
0.00488301
1.26438e-05
0.00487651
1.30199e-05
0.00486981
1.34061e-05
0.00486292
1.38024e-05
0.00485582
1.42093e-05
0.00484851
1.46268e-05
0.004841
1.50554e-05
0.00483326
1.54954e-05
0.00482529
1.59475e-05
0.0048171
1.64135e-05
0.00480866
1.68974e-05
1.74113e-05
0.00479997
0.00505063
3.88975e-07
0.00505028
1.04018e-06
0.00504967
1.85071e-06
0.00504852
3.46512e-06
0.00504649
6.18506e-06
0.00504336
9.53279e-06
0.00503925
1.25322e-05
0.00503452
1.43496e-05
0.00502965
1.47153e-05
0.00502503
1.39122e-05
0.00502086
1.24946e-05
0.00501718
1.09946e-05
0.0050139
9.75922e-06
0.00501089
8.92871e-06
0.00500804
8.4937e-06
0.00500522
8.37047e-06
0.00500238
8.45852e-06
0.00499948
8.67205e-06
0.00499649
8.95035e-06
0.0049934
9.25647e-06
0.0049902
9.57114e-06
0.00498691
9.88638e-06
0.00498351
1.02005e-05
0.00498
1.05149e-05
0.0049764
1.08319e-05
0.00497268
1.1154e-05
0.00496886
1.14834e-05
0.00496493
1.18217e-05
0.00496088
1.21702e-05
0.00495671
1.253e-05
0.00495241
1.29016e-05
0.00494799
1.32855e-05
0.00494344
1.36822e-05
0.00493876
1.40918e-05
0.00493393
1.45146e-05
0.00492896
1.49507e-05
0.00492384
1.54002e-05
0.00491856
1.58632e-05
0.00491313
1.634e-05
0.00490754
1.68305e-05
0.00490178
1.7335e-05
0.00489585
1.78535e-05
0.00488974
1.83864e-05
0.00488345
1.89336e-05
0.00487697
1.94956e-05
0.0048703
2.00724e-05
0.00486344
2.06643e-05
0.00485638
2.12718e-05
0.00484911
2.1895e-05
0.00484163
2.25346e-05
0.00483394
2.3191e-05
0.00482602
2.38653e-05
0.00481787
2.45597e-05
0.00480949
2.52801e-05
2.60431e-05
0.00480086
0.00505063
5.18389e-07
0.00505028
1.38842e-06
0.00504967
2.46271e-06
0.00504855
4.58621e-06
0.00504657
8.1626e-06
0.00504353
1.2576e-05
0.00503951
1.655e-05
0.00503487
1.89854e-05
0.00503007
1.95165e-05
0.00502548
1.85035e-05
0.00502131
1.66681e-05
0.00501759
1.47081e-05
0.00501427
1.30828e-05
0.00501122
1.19814e-05
0.00500831
1.13962e-05
0.00500546
1.12206e-05
0.0050026
1.13245e-05
0.00499967
1.15961e-05
0.00499667
1.19556e-05
0.00499357
1.23542e-05
0.00499038
1.27661e-05
0.00498708
1.31805e-05
0.00498369
1.35946e-05
0.00498019
1.40101e-05
0.00497659
1.44297e-05
0.00497289
1.48566e-05
0.00496908
1.52935e-05
0.00496516
1.57424e-05
0.00496113
1.62052e-05
0.00495697
1.66829e-05
0.0049527
1.71765e-05
0.0049483
1.76865e-05
0.00494377
1.82133e-05
0.0049391
1.87574e-05
0.0049343
1.93189e-05
0.00492935
1.98979e-05
0.00492425
2.04948e-05
0.00491901
2.11096e-05
0.00491361
2.17424e-05
0.00490804
2.23935e-05
0.00490231
2.30629e-05
0.00489642
2.3751e-05
0.00489035
2.44578e-05
0.0048841
2.51836e-05
0.00487766
2.59287e-05
0.00487104
2.66934e-05
0.00486423
2.74779e-05
0.00485722
2.82827e-05
0.00485
2.91082e-05
0.00484258
2.99549e-05
0.00483495
3.08236e-05
0.0048271
3.17155e-05
0.00481903
3.26331e-05
0.00481072
3.35835e-05
3.45862e-05
0.00480218
0.00505063
6.47577e-07
0.00505028
1.73774e-06
0.00504967
3.07072e-06
0.00504858
5.68046e-06
0.00504667
1.00738e-05
0.00504373
1.55132e-05
0.00503984
2.04419e-05
0.00503532
2.35044e-05
0.0050306
2.42349e-05
0.00502604
2.30574e-05
0.00502187
2.0847e-05
0.00501812
1.84585e-05
0.00501474
1.64606e-05
0.00501163
1.5093e-05
0.00500867
1.43534e-05
0.00500577
1.41164e-05
0.00500287
1.42255e-05
0.00499992
1.45446e-05
0.0049969
1.4976e-05
0.0049938
1.54595e-05
0.0049906
1.59625e-05
0.00498731
1.64711e-05
0.00498392
1.69815e-05
0.00498044
1.7495e-05
0.00497685
1.80148e-05
0.00497317
1.85443e-05
0.00496937
1.90868e-05
0.00496547
1.96448e-05
0.00496146
2.02201e-05
0.00495732
2.08143e-05
0.00495307
2.14282e-05
0.0049487
2.20626e-05
0.00494419
2.27179e-05
0.00493955
2.33946e-05
0.00493478
2.4093e-05
0.00492987
2.48131e-05
0.0049248
2.55552e-05
0.00491959
2.63195e-05
0.00491423
2.71062e-05
0.00490871
2.79153e-05
0.00490303
2.87471e-05
0.00489717
2.96018e-05
0.00489115
3.04796e-05
0.00488496
3.13807e-05
0.00487858
3.23056e-05
0.00487202
3.32544e-05
0.00486527
3.42276e-05
0.00485833
3.52255e-05
0.00485118
3.62487e-05
0.00484384
3.72977e-05
0.00483629
3.83733e-05
0.00482853
3.94767e-05
0.00482055
4.06108e-05
0.00481235
4.17825e-05
4.30124e-05
0.00480393
0.00505063
7.76474e-07
0.00505028
2.08816e-06
0.00504967
3.67403e-06
0.00504861
6.74376e-06
0.00504678
1.19085e-05
0.00504396
1.83279e-05
0.00504022
2.41877e-05
0.00503583
2.78876e-05
0.00503121
2.88562e-05
0.0050267
2.75664e-05
0.00502252
2.50306e-05
0.00501873
2.22502e-05
0.00501529
1.98998e-05
0.00501211
1.82715e-05
0.00500909
1.7373e-05
0.00500614
1.70644e-05
0.0050032
1.71662e-05
0.00500023
1.75207e-05
0.00499719
1.80134e-05
0.00499407
1.85727e-05
0.00499088
1.91597e-05
0.00498759
1.97569e-05
0.00498421
2.0359e-05
0.00498074
2.09669e-05
0.00497717
2.15838e-05
0.0049735
2.22134e-05
0.00496973
2.28593e-05
0.00496585
2.35242e-05
0.00496186
2.42101e-05
0.00495776
2.49186e-05
0.00495353
2.56509e-05
0.00494919
2.64077e-05
0.00494472
2.71895e-05
0.00494012
2.79967e-05
0.00493538
2.88296e-05
0.0049305
2.96884e-05
0.00492549
3.05732e-05
0.00492032
3.14843e-05
0.00491501
3.24219e-05
0.00490954
3.3386e-05
0.00490391
3.43768e-05
0.00489811
3.53947e-05
0.00489215
3.64398e-05
0.00488602
3.75123e-05
0.00487971
3.86127e-05
0.00487323
3.97411e-05
0.00486656
4.08981e-05
0.0048597
4.20839e-05
0.00485265
4.32992e-05
0.0048454
4.45445e-05
0.00483795
4.58204e-05
0.0048303
4.71283e-05
0.00482244
4.84705e-05
0.00481437
4.98532e-05
5.1295e-05
0.00480609
0.00505063
9.04962e-07
0.00505028
2.43965e-06
0.00504968
4.27209e-06
0.00504865
7.77345e-06
0.0050469
1.36602e-05
0.00504422
2.10094e-05
0.00504063
2.77741e-05
0.0050364
3.21215e-05
0.00503188
3.33698e-05
0.00502742
3.20241e-05
0.00502324
2.92168e-05
0.0050194
2.60846e-05
0.0050159
2.34041e-05
0.00501265
2.15217e-05
0.00500956
2.04595e-05
0.00500656
2.00682e-05
0.00500358
2.01495e-05
0.00500057
2.05261e-05
0.00499752
2.10683e-05
0.0049944
2.16936e-05
0.0049912
2.23565e-05
0.00498792
2.30359e-05
0.00498455
2.37246e-05
0.0049811
2.44227e-05
0.00497755
2.51333e-05
0.0049739
2.58601e-05
0.00497015
2.66067e-05
0.0049663
2.7376e-05
0.00496234
2.81702e-05
0.00495827
2.89908e-05
0.00495408
2.98392e-05
0.00494977
3.07159e-05
0.00494534
3.16217e-05
0.00494078
3.25568e-05
0.00493609
3.35215e-05
0.00493126
3.45161e-05
0.00492629
3.55406e-05
0.00492118
3.65953e-05
0.00491592
3.76804e-05
0.00491052
3.87958e-05
0.00490495
3.99419e-05
0.00489923
4.11188e-05
0.00489334
4.23268e-05
0.00488729
4.3566e-05
0.00488106
4.48369e-05
0.00487466
4.61397e-05
0.00486809
4.74748e-05
0.00486133
4.88425e-05
0.00485438
5.02434e-05
0.00484725
5.16779e-05
0.00483992
5.31467e-05
0.0048324
5.46507e-05
0.00482468
5.61916e-05
0.00481676
5.77734e-05
0.00480865
5.94066e-05
0.00480086
-1.33322e-06
6.56499e-10
0.00480168
-8.22894e-07
4.87074e-10
0.00480196
-2.76733e-07
3.09929e-10
0.00480165
3.07594e-07
1.25307e-10
0.00480072
9.30254e-07
-6.16127e-11
0.00479912
1.59853e-06
-2.50689e-10
0.00479681
2.31372e-06
-4.39407e-10
0.00479373
3.07882e-06
-6.25075e-10
0.00478984
3.8969e-06
-8.05031e-10
0.00478507
4.77108e-06
-9.76762e-10
0.00477936
5.70475e-06
-1.13804e-09
0.00477266
6.70181e-06
-1.28675e-09
0.0047649
7.76697e-06
-1.42104e-09
0.00475599
8.90622e-06
-1.53955e-09
0.00474587
1.01273e-05
-1.63865e-09
1.14402e-05
-1.7195e-09
0.00479994
-1.2973e-06
0.00479939
-2.76535e-07
0.0047983
8.11353e-07
0.00479663
1.97514e-06
0.00479434
3.22089e-06
0.00479139
4.55459e-06
0.00478772
5.9821e-06
0.00478329
7.50943e-06
0.00477804
9.14271e-06
0.00477193
1.08883e-05
0.00476488
1.27532e-05
0.00475683
1.47451e-05
0.00474773
1.68737e-05
0.00473748
1.9151e-05
0.00472602
2.15927e-05
2.42189e-05
0.0047981
1.46015e-06
0.00479484
2.9829e-06
0.00479104
4.60999e-06
0.00478667
6.3504e-06
0.00478168
8.2131e-06
0.00477602
1.0207e-05
0.00476966
1.23414e-05
0.00476255
1.46254e-05
0.00475462
1.70683e-05
0.00474583
1.968e-05
0.00473611
2.2471e-05
0.0047254
2.54534e-05
0.00471364
2.86418e-05
0.00470073
3.20547e-05
0.00468661
3.57158e-05
3.96557e-05
0.00479539
8.25271e-06
0.0047881
1.02723e-05
0.00478028
1.2431e-05
0.00477189
1.474e-05
0.00476289
1.72112e-05
0.00475324
1.98569e-05
0.00474289
2.26893e-05
0.0047318
2.57211e-05
0.0047199
2.8965e-05
0.00470715
3.24343e-05
0.00469347
3.61433e-05
0.00467882
4.01088e-05
0.00466311
4.43506e-05
0.00464627
4.88941e-05
0.00462821
5.37715e-05
5.90239e-05
0.00479184
2.03457e-05
0.00477926
2.2852e-05
0.00476616
2.55309e-05
0.0047525
2.83967e-05
0.00473825
3.14645e-05
0.00472335
3.47496e-05
0.00470777
3.82678e-05
0.00469146
4.20349e-05
0.00467436
4.60673e-05
0.00465641
5.03818e-05
0.00463756
5.49971e-05
0.00461773
5.99345e-05
0.00459686
6.52198e-05
0.00457487
7.08853e-05
0.00455167
7.69723e-05
8.3533e-05
0.0047875
3.89342e-05
0.00476844
4.19106e-05
0.00474888
4.50936e-05
0.00472878
4.85001e-05
0.00470809
5.21484e-05
0.00468678
5.60569e-05
0.00466481
6.02447e-05
0.00464211
6.47309e-05
0.00461864
6.95353e-05
0.00459435
7.46788e-05
0.00456916
8.01843e-05
0.00454302
8.60781e-05
0.00451584
9.23923e-05
0.00448756
9.91669e-05
0.00445808
0.000106452
0.000114312
0.00478246
6.51198e-05
0.00475583
6.85424e-05
0.00472872
7.22078e-05
0.00470108
7.6134e-05
0.00467289
8.03418e-05
0.00464409
8.48527e-05
0.00461465
8.96884e-05
0.00458451
9.48716e-05
0.00455362
0.000100425
0.00452192
0.000106375
0.00448936
0.000112747
0.00445586
0.000119574
0.00442136
0.000126893
0.00438578
0.000134754
0.00434901
0.000143216
0.000152355
0.00503325
7.41731e-05
-0.0050423
0.00502378
7.80156e-05
0.00501385
8.213e-05
0.00500345
8.65369e-05
0.00499253
9.12584e-05
0.00498107
9.6318e-05
0.00496902
0.00010174
0.00495634
0.000107549
0.00494299
0.000113772
0.00492893
0.000120436
0.00491411
0.000127571
0.00489847
0.000135215
0.00488195
0.000143407
0.0048645
0.000152202
0.00484606
0.000161664
0.000171874
0.00503707
8.30059e-05
-0.0050459
0.00502783
8.72552e-05
0.00501816
9.18013e-05
0.00500803
9.66675e-05
0.00499741
0.000101878
0.00498627
0.000107458
0.00497457
0.000113435
0.00496229
0.000119836
0.00494937
0.000126689
0.00493578
0.000134026
0.00492147
0.00014188
0.0049064
0.00015029
0.0048905
0.000159302
0.00487373
0.000168971
0.00485603
0.000179368
0.000190576
0.00504133
9.15802e-05
-0.00504991
0.00503237
9.62188e-05
0.00502299
0.000101176
0.00501318
0.000106478
0.00500291
0.00011215
0.00499215
0.000118221
0.00498086
0.000124718
0.00496903
0.000131671
0.00495661
0.000139113
0.00494356
0.000147076
0.00492984
0.000155597
0.00491541
0.000164718
0.00490023
0.000174487
0.00488423
0.000184964
0.00486738
0.000196221
0.000208346
0.00504599
9.98677e-05
-0.00505428
0.00503734
0.000104874
0.00502829
0.00011022
0.00501884
0.00011593
0.00500896
0.000122034
0.00499862
0.000128561
0.0049878
0.00013554
0.00497646
0.000143005
0.00496458
0.000150989
0.00495213
0.000159528
0.00493907
0.00016866
0.00492536
0.00017843
0.00491095
0.00018889
0.00489582
0.000200102
0.0048799
0.000212138
0.000225089
0.00505102
0.000107846
-0.005059
0.0050427
0.000113196
0.00503402
0.000118903
0.00502496
0.000124993
0.00501549
0.000131496
0.00500561
0.000138443
0.00499529
0.000145865
0.00498449
0.000153798
0.00497321
0.000162275
0.0049614
0.000171336
0.00494904
0.00018102
0.00493609
0.000191376
0.00492253
0.000202455
0.00490831
0.000214322
0.0048934
0.000227051
0.000240734
0.00505639
0.000115496
-0.00506405
0.00504843
0.000121164
0.00504013
0.000127203
0.00503148
0.000133642
0.00502246
0.00014051
0.00501307
0.000147839
0.00500327
0.000155663
0.00499305
0.000164017
0.00498239
0.000172938
0.00497126
0.000182464
0.00495964
0.00019264
0.0049475
0.000203513
0.00493482
0.000215138
0.00492156
0.000227579
0.0049077
0.000240912
0.000255226
0.00506208
0.000122803
-0.00506939
0.00505448
0.000128761
0.00504658
0.000135104
0.00503836
0.000141858
0.00502982
0.000149056
0.00502093
0.000156729
0.00501168
0.000164912
0.00500206
0.00017364
0.00499204
0.000182952
0.00498162
0.000192888
0.00497077
0.000203492
0.00495947
0.000214814
0.00494769
0.000226909
0.00493543
0.000239842
0.00492266
0.000253687
0.000268532
0.00506805
0.000129753
-0.005075
0.00506083
0.000135975
0.00505335
0.00014259
0.00504558
0.000149627
0.00503751
0.000157119
0.00502915
0.000165096
0.00502046
0.000173595
0.00501145
0.00018265
0.00500211
0.000192302
0.0049924
0.00020259
0.00498233
0.000213561
0.00497189
0.000225263
0.00496104
0.000237752
0.00494979
0.000251093
0.00493812
0.000265358
0.000280635
0.00507427
0.000136338
-0.00508086
0.00506745
0.000142794
0.00506039
0.000149651
0.00505308
0.000156939
0.00504551
0.000164688
0.00503768
0.00017293
0.00502957
0.000181701
0.00502118
0.000191037
0.00501251
0.000200977
0.00500354
0.000211561
0.00499426
0.000222836
0.00498467
0.00023485
0.00497477
0.00024766
0.00496453
0.000261326
0.00495397
0.000275922
0.000291531
0.00508072
0.000142548
-0.00508693
0.00507431
0.000149211
0.00506768
0.000156281
0.00506083
0.000163785
0.00505376
0.000171756
0.00504647
0.000180225
0.00503894
0.000189226
0.00503119
0.000198796
0.00502319
0.000208973
0.00501495
0.000219798
0.00500647
0.000231317
0.00499774
0.000243578
0.00498877
0.000256634
0.00497955
0.000270547
0.00497008
0.000285387
0.000301231
0.00508738
0.000148379
-0.00509321
0.00508137
0.000155222
0.00507518
0.000162473
0.0050688
0.000170163
0.00506224
0.00017832
0.00505548
0.000186977
0.00504854
0.000196167
0.00504141
0.000205926
0.00503409
0.000216292
0.00502659
0.000227305
0.0050189
0.000239009
0.00501102
0.000251452
0.00500297
0.000264686
0.00499475
0.000278769
0.00498637
0.000293768
0.000309757
0.00509421
0.000153828
-0.00509966
0.00508861
0.000160822
0.00508286
0.000168227
0.00507695
0.00017607
0.00507089
0.000184379
0.00506468
0.000193187
0.00505832
0.000202526
0.00505182
0.000212431
0.00504517
0.000222939
0.00503838
0.000234088
0.00503147
0.000245922
0.00502444
0.000258486
0.00501729
0.000271831
0.00501005
0.000286012
0.00500272
0.000301092
0.000317141
0.00510119
0.000158892
-0.00510626
0.005096
0.000166013
0.00509069
0.000173542
0.00508525
0.000181507
0.00507969
0.000189937
0.00507402
0.00019886
0.00506824
0.00020831
0.00506235
0.000218319
0.00505636
0.000228923
0.00505029
0.000240161
0.00504414
0.000252071
0.00503793
0.0002647
0.00503167
0.000278093
0.00502538
0.000292304
0.00501908
0.000307392
0.00032342
0.0051083
0.000163573
-0.00511298
0.00510352
0.000170794
0.00509864
0.000178421
0.00509367
0.000186479
0.00508861
0.000194996
0.00508347
0.000204002
0.00507825
0.000213525
0.00507297
0.000223599
0.00506764
0.000234258
0.00506226
0.000245537
0.00505685
0.000257475
0.00505144
0.000270114
0.00504604
0.000283498
0.00504066
0.000297677
0.00503535
0.000312704
0.000328638
0.0051155
0.000167874
-0.0051198
0.00511113
0.00017517
0.00510668
0.000182867
0.00510217
0.00019099
0.0050976
0.000199566
0.00509298
0.00020862
0.00508832
0.000218183
0.00508364
0.000228285
0.00507894
0.000238958
0.00507424
0.000250236
0.00506956
0.000262156
0.00506492
0.000274755
0.00506034
0.000288077
0.00505585
0.000302165
0.00505148
0.00031707
0.000332845
0.00512278
0.000171797
-0.00512671
0.00511881
0.000179145
0.00511479
0.000186888
0.00511073
0.000195049
0.00510664
0.000203653
0.00510253
0.000212727
0.00509842
0.000222297
0.00509431
0.000232391
0.00509023
0.000243042
0.00508619
0.000254279
0.00508221
0.000266137
0.00507831
0.000278652
0.00507452
0.000291862
0.00507088
0.000305808
0.00506741
0.000320536
0.000336092
0.00513011
0.000175348
-0.00513367
0.00512653
0.000182726
0.00512293
0.000190491
0.00511932
0.000198664
0.0051157
0.000207271
0.00511209
0.000216334
0.00510851
0.00022588
0.00510496
0.000235936
0.00510148
0.000246529
0.00509807
0.000257689
0.00509476
0.000269447
0.00509157
0.000281835
0.00508855
0.00029489
0.00508571
0.000308647
0.0050831
0.000323147
0.000338432
0.00513748
0.000178535
-0.00514066
0.00513428
0.00018592
0.00513109
0.000193684
0.0051279
0.000201847
0.00512475
0.00021043
0.00512162
0.000219457
0.00511855
0.000228951
0.00511555
0.000238937
0.00511264
0.000249441
0.00510984
0.00026049
0.00510717
0.000272112
0.00510467
0.000284337
0.00510236
0.000297197
0.00510029
0.000310724
0.00509848
0.000324953
0.000339922
0.00514484
0.000181364
-0.00514767
0.00514203
0.000188738
0.00513923
0.00019648
0.00513647
0.000204609
0.00513376
0.000213145
0.0051311
0.00022211
0.00512853
0.000231526
0.00512605
0.000241415
0.00512369
0.000251802
0.00512147
0.000262709
0.00511942
0.000274164
0.00511756
0.000286192
0.00511594
0.000298822
0.00511458
0.000312081
0.00511353
0.000326002
0.000340616
0.0051522
0.000183845
-0.00515468
0.00514975
0.000191188
0.00514734
0.000198888
0.00514499
0.000206963
0.0051427
0.000215431
0.0051405
0.000224311
0.0051384
0.000233625
0.00513643
0.000243393
0.00513459
0.000253635
0.00513293
0.000264374
0.00513146
0.000275633
0.00513022
0.000287435
0.00512923
0.000299804
0.00512855
0.000312765
0.00512821
0.000326345
0.00034057
0.00515953
0.000185988
-0.00516167
0.00515743
0.000193283
0.0051554
0.000200923
0.00515344
0.000208924
0.00515157
0.000217303
0.0051498
0.000226078
0.00514816
0.000235268
0.00514666
0.000244891
0.00514533
0.000254966
0.00514419
0.000265513
0.00514327
0.00027655
0.0051426
0.0002881
0.00514223
0.000300182
0.00514217
0.000312818
0.00514249
0.00032603
0.000339841
0.00516681
0.000187803
-0.00516862
0.00516506
0.000195034
0.00516338
0.000202597
0.0051618
0.000210506
0.00516032
0.000218779
0.00515897
0.00022743
0.00515776
0.000236476
0.00515672
0.000245935
0.00515586
0.000255821
0.00515522
0.000266154
0.00515483
0.000276949
0.0051547
0.000288224
0.00515489
0.000299997
0.00515542
0.000312285
0.00515634
0.000325107
0.00033848
0.00517402
0.000189303
-0.00517552
0.0051726
0.000196454
0.00517127
0.000203924
0.00517005
0.000211726
0.00516896
0.000219875
0.005168
0.000228385
0.00516721
0.000237271
0.00516659
0.000246547
0.00516619
0.000256227
0.00516602
0.000266326
0.0051661
0.00027686
0.00516649
0.000287842
0.0051672
0.000299287
0.00516827
0.000311209
0.00516976
0.000323623
0.000336543
0.00518115
0.000190498
-0.00518235
0.00518005
0.000197556
0.00517906
0.000204919
0.00517818
0.0002126
0.00517745
0.000220611
0.00517687
0.000228965
0.00517646
0.000237674
0.00517626
0.000246751
0.00517628
0.000256209
0.00517654
0.00026606
0.00517709
0.000276316
0.00517794
0.00028699
0.00517913
0.000298092
0.00518071
0.000309634
0.00518271
0.000321626
0.000334079
0.00518819
0.000191401
-0.0051891
0.0051874
0.000198354
0.00518672
0.000205598
0.00518617
0.000213144
0.00518578
0.000221004
0.00518556
0.000229188
0.00518553
0.000237707
0.0051857
0.000246573
0.00518612
0.000255795
0.00518679
0.000265384
0.00518776
0.00027535
0.00518905
0.000285702
0.00519069
0.000296449
0.00519273
0.000307599
0.00519519
0.00031916
0.000331139
0.00519513
0.000192025
-0.00519575
0.00519462
0.000198861
0.00519425
0.000205975
0.00519401
0.000213375
0.00519395
0.000221072
0.00519406
0.000229074
0.00519437
0.000237392
0.00519491
0.000246035
0.0051957
0.00025501
0.00519675
0.000264327
0.00519811
0.000273992
0.0051998
0.000284013
0.00520185
0.000294396
0.00520431
0.000305147
0.0052072
0.00031627
0.00032777
0.00520195
0.000192383
-0.00520231
0.00520172
0.000199093
0.00520163
0.000206066
0.00520169
0.00021331
0.00520193
0.000220834
0.00520236
0.000228645
0.005203
0.000236752
0.00520387
0.000245162
0.005205
0.000253881
0.00520641
0.000262916
0.00520813
0.000272273
0.00521019
0.000281955
0.00521262
0.000291969
0.00521545
0.000302315
0.00521872
0.000312998
0.000324016
0.00520864
0.000192487
-0.00520875
0.00520867
0.000199063
0.00520885
0.000205887
0.0052092
0.000212966
0.00520972
0.000220308
0.00521045
0.00022792
0.00521139
0.000235808
0.00521258
0.000243977
0.00521402
0.000252433
0.00521576
0.00026118
0.00521781
0.000270222
0.0052202
0.000279562
0.00522297
0.000289201
0.00522615
0.000299142
0.00522976
0.000309382
0.000319922
0.0052152
0.000192352
-0.00521506
0.00521548
0.000198785
0.00521591
0.000205452
0.00521652
0.00021236
0.00521731
0.000219513
0.00521831
0.000226919
0.00521954
0.00023458
0.00522102
0.000242503
0.00522276
0.00025069
0.00522479
0.000259145
0.00522715
0.000267868
0.00522985
0.000276863
0.00523292
0.000286127
0.0052364
0.000295661
0.00524032
0.000305462
0.000315526
0.00522161
-0.00522125
0.00522212
0.0052228
0.00522365
0.0052247
0.00522596
0.00522744
0.00522919
0.0052312
0.00523351
0.00523613
0.00523911
0.00524246
0.00524621
0.0052504
0.00529276
1.03882e-06
0.00529239
2.80916e-06
0.00529177
4.89284e-06
0.00529073
8.81516e-06
0.00528898
1.54038e-05
0.00528632
2.36712e-05
0.00528274
3.13541e-05
0.00527847
3.63905e-05
0.00527387
3.7977e-05
0.00526926
3.66349e-05
0.00526487
3.36032e-05
0.00526081
3.01472e-05
0.00525706
2.71461e-05
0.00525358
2.50051e-05
0.00525027
2.37666e-05
0.00524707
2.32768e-05
0.00524389
2.33217e-05
0.00524071
2.37068e-05
0.00523749
2.42874e-05
0.00523422
2.49707e-05
0.00523087
2.57041e-05
0.00522744
2.64622e-05
0.00522393
2.72358e-05
0.00522033
2.80236e-05
0.00521664
2.88283e-05
0.00521284
2.96534e-05
0.00520895
3.05024e-05
0.00520494
3.13781e-05
0.00520083
3.22828e-05
0.0051966
3.32182e-05
0.00519226
3.41852e-05
0.00518779
3.51848e-05
0.00518319
3.62174e-05
0.00517847
3.72833e-05
0.00517361
3.83829e-05
0.00516861
3.95162e-05
0.00516346
4.06834e-05
0.00515817
4.18847e-05
0.00515273
4.312e-05
0.00514714
4.43896e-05
0.00514139
4.56936e-05
0.00513547
4.70321e-05
0.0051294
4.84054e-05
0.00512315
4.98136e-05
0.00511673
5.12571e-05
0.00511013
5.27361e-05
0.00510336
5.42508e-05
0.0050964
5.58018e-05
0.00508925
5.73893e-05
0.00508192
5.90138e-05
0.00507439
6.06757e-05
0.00506666
6.23757e-05
0.00505874
6.41149e-05
0.00505062
6.58952e-05
6.77207e-05
0.00529276
1.172e-06
0.00529239
3.17923e-06
0.00529178
5.50718e-06
0.00529077
9.81916e-06
0.00528912
1.70544e-05
0.00528661
2.61826e-05
0.00528321
3.47521e-05
0.00527912
4.04862e-05
0.00527464
4.24555e-05
0.00527009
4.11794e-05
0.00526571
3.7984e-05
0.00526161
3.42503e-05
0.0052578
3.09551e-05
0.00525424
2.85643e-05
0.00525086
2.71452e-05
0.00524759
2.65449e-05
0.00524438
2.65385e-05
0.00524117
2.6917e-05
0.00523793
2.75225e-05
0.00523465
2.8252e-05
0.00523131
2.90463e-05
0.0052279
2.98754e-05
0.0052244
3.07274e-05
0.00522083
3.15997e-05
0.00521716
3.2494e-05
0.0052134
3.34134e-05
0.00520954
3.43611e-05
0.00520558
3.53399e-05
0.00520151
3.63519e-05
0.00519733
3.73986e-05
0.00519304
3.84811e-05
0.00518862
3.96001e-05
0.00518408
4.0756e-05
0.00517942
4.19491e-05
0.00517462
4.31796e-05
0.00516969
4.44476e-05
0.00516462
4.57532e-05
0.00515941
4.70963e-05
0.00515405
4.84772e-05
0.00514854
4.98957e-05
0.00514289
5.13521e-05
0.00513707
5.28464e-05
0.0051311
5.43788e-05
0.00512496
5.59495e-05
0.00511866
5.75585e-05
0.00511219
5.92062e-05
0.00510555
6.08928e-05
0.00509873
6.26186e-05
0.00509174
6.43838e-05
0.00508456
6.61887e-05
0.0050772
6.80337e-05
0.00506966
6.99192e-05
0.00506193
7.18458e-05
0.00505401
7.38146e-05
7.58271e-05
0.00529276
1.30439e-06
0.00529239
3.54935e-06
0.00529178
6.11504e-06
0.00529082
1.07875e-05
0.00528925
1.86171e-05
0.00528688
2.85511e-05
0.00528366
3.79758e-05
0.00527973
4.44142e-05
0.00527538
4.68066e-05
0.00527091
4.56547e-05
0.00526654
4.23533e-05
0.0052624
3.83861e-05
0.00525853
3.48229e-05
0.00525491
3.21913e-05
0.00525146
3.05882e-05
0.00524814
2.98668e-05
0.00524488
2.97951e-05
0.00524165
3.01524e-05
0.0052384
3.07695e-05
0.00523512
3.15339e-05
0.00523179
3.23795e-05
0.00522839
3.32717e-05
0.00522492
3.41956e-05
0.00522138
3.51469e-05
0.00521774
3.61261e-05
0.00521402
3.71356e-05
0.0052102
3.81782e-05
0.00520629
3.92564e-05
0.00520227
4.03721e-05
0.00519814
4.15266e-05
0.0051939
4.27209e-05
0.00518954
4.39555e-05
0.00518507
4.52308e-05
0.00518047
4.6547e-05
0.00517575
4.79042e-05
0.00517089
4.93023e-05
0.0051659
5.07414e-05
0.00516078
5.22214e-05
0.00515551
5.37423e-05
0.00515011
5.53041e-05
0.00514455
5.69069e-05
0.00513885
5.85505e-05
0.00513299
6.02352e-05
0.00512698
6.1961e-05
0.00512081
6.3728e-05
0.00511448
6.55363e-05
0.00510799
6.7386e-05
0.00510133
6.92774e-05
0.0050945
7.12105e-05
0.0050875
7.31856e-05
0.00508033
7.52029e-05
0.00507299
7.72625e-05
0.00506547
7.93647e-05
0.00505778
8.151e-05
8.36988e-05
0.00529276
1.43582e-06
0.00529239
3.91891e-06
0.00529179
6.71645e-06
0.00529086
1.17233e-05
0.00528937
2.01004e-05
0.00528713
3.07897e-05
0.00528407
4.10392e-05
0.0052803
4.81853e-05
0.00527607
5.10357e-05
0.00527167
5.00596e-05
0.00526731
4.67044e-05
0.00526316
4.25446e-05
0.00525924
3.87381e-05
0.00525556
3.5875e-05
0.00525206
3.40857e-05
0.00524869
3.32336e-05
0.0052454
3.3084e-05
0.00524215
3.3407e-05
0.0052389
3.40234e-05
0.00523562
3.48118e-05
0.0052323
3.56994e-05
0.00522892
3.66469e-05
0.00522548
3.76363e-05
0.00522197
3.8661e-05
0.00521837
3.97202e-05
0.00521469
4.08154e-05
0.00521092
4.19489e-05
0.00520706
4.31225e-05
0.00520309
4.4338e-05
0.00519902
4.55965e-05
0.00519484
4.68986e-05
0.00519055
4.82448e-05
0.00518615
4.96352e-05
0.00518163
5.10701e-05
0.00517698
5.25492e-05
0.00517221
5.40725e-05
0.00516731
5.56399e-05
0.00516228
5.72512e-05
0.00515712
5.89064e-05
0.00515182
6.06052e-05
0.00514638
6.23477e-05
0.00514079
6.41338e-05
0.00513507
6.59634e-05
0.00512919
6.78365e-05
0.00512316
6.9753e-05
0.00511699
7.17131e-05
0.00511066
7.37167e-05
0.00510417
7.57638e-05
0.00509753
7.78545e-05
0.00509072
7.99887e-05
0.00508376
8.21666e-05
0.00507663
8.4388e-05
0.00506935
8.66531e-05
0.00506189
8.89617e-05
9.13138e-05
0.00529276
1.56616e-06
0.0052924
4.28724e-06
0.0052918
7.31154e-06
0.00529089
1.26309e-05
0.00528948
2.1515e-05
0.00528735
3.29151e-05
0.00528443
4.39611e-05
0.0052808
5.18152e-05
0.00527669
5.51511e-05
0.00527235
5.43944e-05
0.00526802
5.10302e-05
0.00526386
4.6714e-05
0.00525991
4.26868e-05
0.00525618
3.96015e-05
0.00525264
3.76248e-05
0.00524924
3.66347e-05
0.00524593
3.63963e-05
0.00524266
3.66734e-05
0.00523941
3.72778e-05
0.00523614
3.80802e-05
0.00523284
3.90012e-05
0.00522949
3.99967e-05
0.00522608
4.10453e-05
0.0052226
4.21378e-05
0.00521905
4.32721e-05
0.00521542
4.44485e-05
0.0052117
4.56685e-05
0.00520789
4.69335e-05
0.00520398
4.82446e-05
0.00519997
4.96028e-05
0.00519586
5.10085e-05
0.00519165
5.24619e-05
0.00518732
5.3963e-05
0.00518288
5.55116e-05
0.00517832
5.71077e-05
0.00517364
5.87508e-05
0.00516884
6.04409e-05
0.00516391
6.21776e-05
0.00515886
6.39607e-05
0.00515367
6.579e-05
0.00514836
6.76652e-05
0.0051429
6.95861e-05
0.00513731
7.15527e-05
0.00513159
7.35647e-05
0.00512572
7.5622e-05
0.00511971
7.77245e-05
0.00511355
7.9872e-05
0.00510725
8.20644e-05
0.0051008
8.43016e-05
0.00509421
8.65834e-05
0.00508746
8.89096e-05
0.00508057
9.128e-05
0.00507353
9.36943e-05
0.00506634
9.61522e-05