/*--------------------------------*- C++ -*----------------------------------*\
| =========                 |                                                 |
| \\      /  F ield         | OpenFOAM: The Open Source CFD Toolbox           |
|  \\    /   O peration     | Version:  2412                                  |
|   \\  /    A nd           | Website:  www.openfoam.com                      |
|    \\/     M anipulation  |                                                 |
\*---------------------------------------------------------------------------*/
FoamFile
{
    version     2.0;
    format      ascii;
    arch        "LSB;label=32;scalar=64";
    class       volScalarField;
    location    "22.5";
    object      p;
}
// * * * * * * * * * * * * * * * * * * * * * * * * * * * * * * * * * * * * * //

dimensions      [0 2 -2 0 0 0 0];

internalField   nonuniform List<scalar> 
63420
(
0.000929149
0.00092941
0.000930237
0.000931515
0.000933226
0.000935358
0.000937893
0.000940818
0.000944121
0.000947793
0.000951825
0.000956209
0.000960938
0.000966007
0.00097141
0.000977141
0.000983197
0.000989575
0.000996272
0.00100329
0.00101062
0.00101828
0.00102625
0.00103455
0.00104318
0.00105214
0.00106142
0.00107104
0.001081
0.0010913
0.00110194
0.00111293
0.00112427
0.00113596
0.00114801
0.00116042
0.00117319
0.00118633
0.00119984
0.00121372
0.00122799
0.00124264
0.00125767
0.0012731
0.00128892
0.00130514
0.00132177
0.0013388
0.00135625
0.00137412
0.0013924
0.00141112
0.00143026
0.00144984
0.00146987
0.000929089
0.00092935
0.000930176
0.000931453
0.000933163
0.000935293
0.000937827
0.000940749
0.00094405
0.00094772
0.000951748
0.000956129
0.000960855
0.00096592
0.000971318
0.000977044
0.000983095
0.000989467
0.000996158
0.00100317
0.0010105
0.00101814
0.00102611
0.0010344
0.00104302
0.00105197
0.00106124
0.00107086
0.0010808
0.00109109
0.00110172
0.00111269
0.00112402
0.00113569
0.00114773
0.00116012
0.00117287
0.00118599
0.00119948
0.00121335
0.00122759
0.00124221
0.00125722
0.00127262
0.00128841
0.00130461
0.0013212
0.0013382
0.00135561
0.00137344
0.00139168
0.00141035
0.00142945
0.00144898
0.00146895
0.00092897
0.000929229
0.000930055
0.00093133
0.000933038
0.000935165
0.000937694
0.000940613
0.000943909
0.000947573
0.000951595
0.000955969
0.000960687
0.000965744
0.000971134
0.000976851
0.000982891
0.000989252
0.000995932
0.00100293
0.00101024
0.00101788
0.00102583
0.00103411
0.00104271
0.00105163
0.00106089
0.00107048
0.0010804
0.00109067
0.00110127
0.00111222
0.00112352
0.00113516
0.00114716
0.00115952
0.00117224
0.00118532
0.00119877
0.00121259
0.00122678
0.00124136
0.00125632
0.00127166
0.0012874
0.00130353
0.00132006
0.00133699
0.00135433
0.00137208
0.00139024
0.00140882
0.00142783
0.00144726
0.00146713
0.00092879
0.000929049
0.000929873
0.000931145
0.000932849
0.000934972
0.000937496
0.000940408
0.000943697
0.000947352
0.000951366
0.000955729
0.000960437
0.000965481
0.000970858
0.00097656
0.000982586
0.00098893
0.000995592
0.00100257
0.00100986
0.00101748
0.00102541
0.00103366
0.00104223
0.00105113
0.00106036
0.00106992
0.00107981
0.00109004
0.0011006
0.00111151
0.00112276
0.00113436
0.00114632
0.00115862
0.00117129
0.00118431
0.0011977
0.00121145
0.00122558
0.00124009
0.00125497
0.00127023
0.00128588
0.00130192
0.00131835
0.00133518
0.00135241
0.00137004
0.00138808
0.00140654
0.0014254
0.00144469
0.0014644
0.000928551
0.00092881
0.000929631
0.000930899
0.000932599
0.000934715
0.000937232
0.000940136
0.000943415
0.000947059
0.00095106
0.00095541
0.000960103
0.000965131
0.00097049
0.000976174
0.000982179
0.000988502
0.00099514
0.00100209
0.00100936
0.00101694
0.00102484
0.00103306
0.0010416
0.00105047
0.00105965
0.00106917
0.00107902
0.0010892
0.00109971
0.00111057
0.00112176
0.0011333
0.00114519
0.00115743
0.00117002
0.00118297
0.00119628
0.00120995
0.00122399
0.00123839
0.00125317
0.00126833
0.00128386
0.00129978
0.00131608
0.00133278
0.00134986
0.00136734
0.00138522
0.00140351
0.00142219
0.00144128
0.00146078
0.000928252
0.00092851
0.000929328
0.000930592
0.000932286
0.000934394
0.000936902
0.000939795
0.000943062
0.000946693
0.000950679
0.000955012
0.000959686
0.000964694
0.000970031
0.000975692
0.000981671
0.000987967
0.000994576
0.0010015
0.00100873
0.00101628
0.00102414
0.00103232
0.00104082
0.00104963
0.00105877
0.00106824
0.00107803
0.00108815
0.0010986
0.00110939
0.00112052
0.00113198
0.00114379
0.00115594
0.00116845
0.0011813
0.00119451
0.00120807
0.001222
0.00123628
0.00125094
0.00126596
0.00128135
0.00129712
0.00131327
0.00132979
0.0013467
0.00136399
0.00138167
0.00139974
0.0014182
0.00143705
0.0014563
0.000927894
0.000928151
0.000928966
0.000930225
0.00093191
0.00093401
0.000936507
0.000939387
0.00094264
0.000946254
0.000950222
0.000954535
0.000959187
0.000964171
0.000969482
0.000975114
0.000981063
0.000987326
0.0009939
0.00100079
0.00100798
0.00101548
0.0010233
0.00103143
0.00103988
0.00104864
0.00105772
0.00106712
0.00107685
0.0010869
0.00109728
0.00110798
0.00111903
0.0011304
0.00114212
0.00115417
0.00116657
0.00117931
0.00119239
0.00120583
0.00121962
0.00123377
0.00124827
0.00126313
0.00127836
0.00129395
0.0013099
0.00132623
0.00134293
0.00136
0.00137744
0.00139526
0.00141345
0.00143202
0.00145096
0.00149039
0.00151163
0.00153378
0.0015569
0.00158102
0.00160623
0.00163258
0.00166014
0.00168898
0.0017192
0.00175088
0.00178412
0.00181901
0.00185568
0.00189424
0.00193483
0.0019776
0.0020227
0.00207031
0.00212062
0.00217384
0.0022302
0.00228994
0.00235336
0.00242074
0.00249243
0.0025688
0.00265026
0.00273726
0.00283029
0.0029299
0.0030367
0.00315133
0.00327452
0.00340702
0.00354965
0.00370321
0.00386849
0.00404616
0.00423666
0.00443995
0.00465532
0.004881
0.00511399
0.00535037
0.00558618
0.00581773
0.00605143
0.00635265
0.00681114
0.00148945
0.0015107
0.00153284
0.00155595
0.00158008
0.00160528
0.00163162
0.00165918
0.00168802
0.00171824
0.00174991
0.00178314
0.00181802
0.00185468
0.00189322
0.00193379
0.00197654
0.00202161
0.00206919
0.00211945
0.00217261
0.0022289
0.00228856
0.00235186
0.00241911
0.00249064
0.0025668
0.00264801
0.00273468
0.00282732
0.00292643
0.0030326
0.00314645
0.00326863
0.00339985
0.00354083
0.00369227
0.0038548
0.0040289
0.00421472
0.00441191
0.00461929
0.00483454
0.00505394
0.00527271
0.00548598
0.00568956
0.005889
0.00614544
0.00654171
0.00148757
0.00150881
0.00153096
0.00155406
0.00157818
0.00160338
0.00162972
0.00165727
0.0016861
0.00171631
0.00174797
0.00178118
0.00181604
0.00185267
0.00189119
0.00193172
0.00197442
0.00201943
0.00206693
0.00211711
0.00217015
0.0022263
0.00228579
0.00234888
0.00241587
0.00248707
0.00256283
0.00264353
0.00272959
0.00282144
0.00291958
0.00302452
0.00313681
0.00325701
0.00338571
0.00352344
0.00367069
0.00382777
0.00399477
0.0041713
0.0043563
0.00454767
0.00474192
0.00493393
0.00511714
0.00528486
0.00543205
0.00556276
0.00572563
0.00600996
0.00148476
0.001506
0.00152813
0.00155123
0.00157534
0.00160052
0.00162685
0.00165438
0.0016832
0.00171339
0.00174503
0.00177821
0.00181304
0.00184963
0.00188809
0.00192857
0.00197119
0.00201611
0.00206349
0.00211352
0.00216639
0.00222232
0.00228154
0.0023443
0.00241088
0.00248158
0.00255672
0.00263665
0.00272175
0.00281241
0.00290906
0.00301212
0.00312205
0.00323926
0.00336414
0.00349699
0.00363794
0.00378687
0.00394326
0.00410593
0.00427275
0.00444027
0.00460324
0.00475438
0.00488457
0.00498423
0.00504697
0.00507804
0.0051107
0.00519778
0.00148103
0.00150226
0.00152439
0.00154747
0.00157158
0.00159675
0.00162307
0.00165059
0.0016794
0.00170957
0.00174118
0.00177434
0.00180914
0.00184568
0.00188409
0.00192449
0.00196702
0.00201183
0.00205907
0.00210892
0.00216157
0.00221722
0.0022761
0.00233844
0.00240449
0.00247453
0.00254885
0.00262776
0.00271159
0.00280066
0.00289532
0.00299587
0.00310263
0.0032158
0.00333553
0.00346176
0.00359418
0.00373205
0.00387404
0.00401791
0.00416015
0.00429548
0.0044164
0.00451288
0.00457253
0.004582
0.00453221
0.00443129
0.0043014
0.00408379
0.0014764
0.00149763
0.00151977
0.00154287
0.00156698
0.00159218
0.00161852
0.00164607
0.00167491
0.00170511
0.00173676
0.00176995
0.00180478
0.00184136
0.0018798
0.00192022
0.00196277
0.00200758
0.00205481
0.00210462
0.00215721
0.00221276
0.00227148
0.0023336
0.00239934
0.00246897
0.00254274
0.00262092
0.00270378
0.00279158
0.00288456
0.00298291
0.00308676
0.00319609
0.00331071
0.00343008
0.00355327
0.00367861
0.00380353
0.00392405
0.00403437
0.00412621
0.00418836
0.00420635
0.0041628
0.00403928
0.00382225
0.00352068
0.00314854
0.00251976
0.00147085
0.00149202
0.0015141
0.00153714
0.00156121
0.00158636
0.00161266
0.00164016
0.00166895
0.00169911
0.00173071
0.00176385
0.00179863
0.00183516
0.00187353
0.00191389
0.00195636
0.00200109
0.00204821
0.0020979
0.00215033
0.00220569
0.00226417
0.00232599
0.00239136
0.00246051
0.00253367
0.00261107
0.00269294
0.00277946
0.00287078
0.00296698
0.003068
0.0031736
0.00328321
0.00339583
0.00350976
0.0036223
0.00372926
0.00382444
0.00389886
0.00394003
0.00393131
0.00385201
0.0036781
0.0033838
0.00295214
0.00239627
0.00167993
0.00051443
-0.00349772
-0.0035674
-0.00358873
-0.0035756
-0.00353999
-0.00348479
-0.00341157
-0.00332216
-0.00321997
-0.00310484
-0.00297857
-0.00284289
-0.00269929
-0.00254862
-0.00239417
-0.00223672
-0.00207771
-0.00191859
-0.00176074
-0.00160545
-0.00145388
-0.00130701
-0.00116577
-0.001031
-0.000903357
-0.000783277
-0.000671052
-0.000566905
-0.000470945
-0.000383157
-0.000303426
-0.000231552
-0.000167258
-0.000110207
-6.00139e-05
-1.62547e-05
2.15185e-05
5.37692e-05
8.09662e-05
0.000103576
0.000122055
0.000136843
0.000148363
0.000157009
0.000163152
0.000167135
0.000169268
0.000169837
0.000169092
0.000167264
-0.0035732
-0.00362107
-0.00362931
-0.00360841
-0.00356762
-0.00350901
-0.00343372
-0.00334356
-0.00324041
-0.0031249
-0.00299862
-0.00286324
-0.00272062
-0.00256767
-0.00241418
-0.00225687
-0.00209773
-0.00193835
-0.00178015
-0.0016244
-0.00147229
-0.0013248
-0.00118287
-0.00104734
-0.000918923
-0.000798037
-0.000684987
-0.000580007
-0.000483217
-0.000394613
-0.000314085
-0.000241439
-0.000176404
-0.000118647
-6.77839e-05
-2.33931e-05
1.49729e-05
4.77772e-05
7.54895e-05
9.85769e-05
0.000117497
0.000132693
0.000144587
0.000153577
0.000160036
0.000164307
0.000166705
0.000167514
0.00016699
0.000165365
-0.0037233
-0.00372675
-0.00370905
-0.00367272
-0.00362141
-0.00355589
-0.00347625
-0.00338422
-0.00327943
-0.00316321
-0.00303683
-0.00290148
-0.00275781
-0.0026077
-0.00245343
-0.00229584
-0.00213641
-0.00197658
-0.00181773
-0.00166116
-0.00150805
-0.0013594
-0.00121617
-0.00107922
-0.000949284
-0.000826853
-0.000712221
-0.000605635
-0.000507241
-0.000417053
-0.000334977
-0.000260832
-0.000194355
-0.00013522
-8.3049e-05
-3.74239e-05
2.10114e-06
3.59892e-05
6.47107e-05
8.87345e-05
0.000108521
0.000124516
0.000137145
0.00014681
0.000153888
0.000158725
0.000161642
0.000162925
0.000162834
0.000161611
-0.00395387
-0.00387696
-0.00382522
-0.00376558
-0.00369837
-0.00362252
-0.00353555
-0.00344099
-0.00333433
-0.00321671
-0.00309002
-0.00295498
-0.00281206
-0.00266273
-0.00250856
-0.00235093
-0.00219123
-0.00203086
-0.00187119
-0.00171353
-0.00155907
-0.00140887
-0.00126384
-0.00112492
-0.000992874
-0.000868251
-0.00075139
-0.000642536
-0.000541868
-0.000449431
-0.000365152
-0.000288867
-0.000220328
-0.000159221
-0.000105176
-5.77789e-05
-1.65878e-05
1.88598e-05
4.90349e-05
7.44087e-05
9.54449e-05
0.000112593
0.000126284
0.000136925
0.000144898
0.000150555
0.000154221
0.00015619
0.000156726
0.000156086
-0.00424474
-0.00407269
-0.00397505
-0.00388187
-0.00379329
-0.00370316
-0.00360417
-0.00350811
-0.00339921
-0.0032811
-0.00315439
-0.0030195
-0.00287721
-0.00272859
-0.00257493
-0.00241755
-0.0022578
-0.00209704
-0.00193662
-0.00177787
-0.00162199
-0.00147008
-0.00132308
-0.0011819
-0.0010474
-0.000920211
-0.000800691
-0.00068912
-0.000585707
-0.000490533
-0.000403558
-0.000324638
-0.000253547
-0.000189986
-0.000133596
-8.39724e-05
-4.06787e-05
-3.25516e-06
2.87688e-05
5.58659e-05
7.85025e-05
9.71325e-05
0.000112191
0.000124092
0.000133221
0.000139939
0.000144577
0.000147434
0.000148784
0.000148901
-0.00455106
-0.00431447
-0.00416002
-0.00402553
-0.00390671
-0.00379722
-0.00369682
-0.00358243
-0.00346699
-0.00334668
-0.00321942
-0.00308508
-0.00294403
-0.00279694
-0.00264478
-0.00248868
-0.00232989
-0.00216969
-0.00200939
-0.00185028
-0.00169361
-0.00154049
-0.00139189
-0.00124874
-0.00111191
-0.000982125
-0.000859854
-0.000745386
-0.000638977
-0.000540757
-0.000450724
-0.000368769
-0.000294695
-0.000228229
-0.000169031
-0.000116713
-7.08495e-05
-3.09892e-05
3.33356e-06
3.25892e-05
5.72443e-05
7.77543e-05
9.45578e-05
0.000108072
0.000118689
0.000126775
0.000132666
0.000136669
0.000139069
0.000140152
-0.00484503
-0.00461702
-0.00440866
-0.00422147
-0.00405912
-0.00391838
-0.00379624
-0.00367349
-0.00355159
-0.00342707
-0.00329795
-0.00316339
-0.00302311
-0.00287728
-0.00272651
-0.00257166
-0.0024138
-0.00225409
-0.00209378
-0.00193413
-0.00177639
-0.00162173
-0.00147114
-0.00132556
-0.00118593
-0.00105304
-0.000927441
-0.000809514
-0.000699547
-0.000597724
-0.00050409
-0.000418578
-0.000341025
-0.000271185
-0.000208743
-0.000153328
-0.000104527
-6.18983e-05
-2.49793e-05
6.69904e-06
3.36048e-05
5.61971e-05
7.49201e-05
9.01976e-05
0.000102429
0.000111989
0.000119221
0.000124442
0.000127947
0.00013002
0.000164544
0.000161009
0.000156816
0.000152105
0.000146983
0.000141544
0.000135874
0.000130051
0.000124141
0.000118203
0.000112288
0.000106437
0.000100687
9.50675e-05
8.9602e-05
8.43091e-05
7.9203e-05
7.42937e-05
6.9588e-05
6.50897e-05
6.08e-05
5.67184e-05
5.28425e-05
4.91688e-05
4.56925e-05
4.24085e-05
3.93107e-05
3.63932e-05
3.36494e-05
3.1073e-05
2.86576e-05
2.63968e-05
2.42841e-05
2.23131e-05
2.04775e-05
1.87707e-05
1.71861e-05
1.57174e-05
1.43578e-05
1.3101e-05
1.19407e-05
1.08705e-05
9.88568e-06
8.9769e-06
8.14352e-06
7.38187e-06
6.67921e-06
6.0364e-06
5.44931e-06
4.9131e-06
4.42411e-06
3.97887e-06
3.57404e-06
3.20653e-06
2.8734e-06
2.57192e-06
2.29952e-06
2.05379e-06
1.83249e-06
1.63351e-06
1.45491e-06
1.29489e-06
1.15174e-06
1.02391e-06
9.09957e-07
8.08547e-07
7.18462e-07
6.38571e-07
5.67843e-07
5.05339e-07
4.50193e-07
4.01625e-07
3.58939e-07
3.2148e-07
2.88667e-07
2.5998e-07
2.34933e-07
2.13081e-07
1.94098e-07
1.77516e-07
1.63278e-07
1.50642e-07
1.40253e-07
1.30338e-07
1.23491e-07
1.14693e-07
1.12137e-07
1.0163e-07
1.06247e-07
8.85431e-08
1.07364e-07
7.18252e-08
1.18671e-07
4.66576e-08
1.44319e-07
8.18845e-09
1.87398e-07
-4.50053e-08
2.45821e-07
-1.06283e-07
3.07236e-07
-1.57716e-07
3.49074e-07
-1.74058e-07
3.48069e-07
-1.38474e-07
3.00857e-07
-6.51362e-08
2.44599e-07
-1.315e-08
2.58439e-07
-7.34736e-08
4.34045e-07
-3.31546e-07
8.27569e-07
0.000162863
0.000159445
0.000155361
0.000150769
0.00014576
0.000140426
0.000134855
0.000129124
0.000123298
0.000117438
0.000111593
0.000105807
0.000100117
9.45508e-05
8.91342e-05
8.38859e-05
7.88202e-05
7.39476e-05
6.92751e-05
6.48069e-05
6.05446e-05
5.64878e-05
5.26343e-05
4.8981e-05
4.55232e-05
4.22559e-05
3.91733e-05
3.62695e-05
3.35383e-05
3.09732e-05
2.85681e-05
2.63165e-05
2.42122e-05
2.22488e-05
2.042e-05
1.87192e-05
1.71402e-05
1.56763e-05
1.43211e-05
1.30683e-05
1.19115e-05
1.08444e-05
9.86241e-06
8.95616e-06
8.12506e-06
7.36543e-06
6.66459e-06
6.02342e-06
5.4378e-06
4.9029e-06
4.41509e-06
3.9709e-06
3.56702e-06
3.20034e-06
2.86796e-06
2.56714e-06
2.29533e-06
2.05012e-06
1.82928e-06
1.63071e-06
1.45247e-06
1.29277e-06
1.14989e-06
1.02231e-06
9.08577e-07
8.07356e-07
7.17437e-07
6.3769e-07
5.67087e-07
5.04693e-07
4.49642e-07
4.01156e-07
3.5854e-07
3.21143e-07
2.88381e-07
2.59739e-07
2.3473e-07
2.12909e-07
1.93953e-07
1.77394e-07
1.63177e-07
1.50557e-07
1.40182e-07
1.3028e-07
1.23441e-07
1.14653e-07
1.12101e-07
1.01604e-07
1.0622e-07
8.85299e-08
1.07344e-07
7.18218e-08
1.18649e-07
4.66616e-08
1.44293e-07
8.20211e-09
1.87369e-07
-4.49837e-08
2.45789e-07
-1.06264e-07
3.0721e-07
-1.5771e-07
3.4906e-07
-1.74065e-07
3.4806e-07
-1.38483e-07
3.00847e-07
-6.51462e-08
2.44578e-07
-1.31351e-08
2.58398e-07
-7.34591e-08
4.34077e-07
-3.31604e-07
8.2783e-07
0.000159518
0.000156335
0.000152475
0.000148116
0.000143332
0.000138208
0.000132833
0.000127282
0.000121624
0.000115917
0.000110212
0.000104555
9.89815e-05
9.35226e-05
8.82033e-05
8.30433e-05
7.80579e-05
7.32581e-05
6.86518e-05
6.42436e-05
6.00356e-05
5.60281e-05
5.22194e-05
4.86065e-05
4.51855e-05
4.19516e-05
3.88993e-05
3.6023e-05
3.33167e-05
3.07742e-05
2.83895e-05
2.61564e-05
2.40688e-05
2.21205e-05
2.03052e-05
1.86166e-05
1.70485e-05
1.55943e-05
1.42479e-05
1.30029e-05
1.18531e-05
1.07923e-05
9.81595e-06
8.91475e-06
8.08817e-06
7.33259e-06
6.6354e-06
5.99751e-06
5.41481e-06
4.88254e-06
4.39708e-06
3.95499e-06
3.55298e-06
3.18797e-06
2.85708e-06
2.55759e-06
2.28695e-06
2.04279e-06
1.82287e-06
1.62512e-06
1.4476e-06
1.28853e-06
1.14622e-06
1.01912e-06
9.0582e-07
8.04978e-07
7.15388e-07
6.35929e-07
5.65578e-07
5.03399e-07
4.48537e-07
4.00217e-07
3.57741e-07
3.20464e-07
2.87809e-07
2.59252e-07
2.3432e-07
2.12563e-07
1.93661e-07
1.7715e-07
1.6297e-07
1.50389e-07
1.4004e-07
1.30162e-07
1.23341e-07
1.14571e-07
1.12026e-07
1.01552e-07
1.06167e-07
8.85021e-08
1.07303e-07
7.18131e-08
1.18605e-07
4.6668e-08
1.44241e-07
8.22606e-09
1.87317e-07
-4.495e-08
2.45731e-07
-1.06235e-07
3.07162e-07
-1.57697e-07
3.49028e-07
-1.74076e-07
3.48045e-07
-1.38511e-07
3.00836e-07
-6.51687e-08
2.44539e-07
-1.31126e-08
2.58325e-07
-7.34231e-08
4.34126e-07
-3.31717e-07
8.28344e-07
0.00015455
0.00015172
0.000148201
0.000144189
0.000139737
0.000134923
0.000129836
0.000124552
0.00011914
0.000113659
0.000108162
0.000102695
9.72943e-05
9.19934e-05
8.68181e-05
8.17891e-05
7.69227e-05
7.22312e-05
6.7723e-05
6.34039e-05
5.92768e-05
5.53426e-05
5.16005e-05
4.8048e-05
4.46817e-05
4.14975e-05
3.84903e-05
3.56549e-05
3.29857e-05
3.04769e-05
2.81227e-05
2.59172e-05
2.38545e-05
2.19286e-05
2.01335e-05
1.84631e-05
1.69113e-05
1.54718e-05
1.41384e-05
1.29051e-05
1.17658e-05
1.07144e-05
9.74642e-06
8.85278e-06
8.03298e-06
7.28345e-06
6.59172e-06
5.95872e-06
5.3804e-06
4.85206e-06
4.37012e-06
3.93117e-06
3.53196e-06
3.16946e-06
2.84079e-06
2.54328e-06
2.27441e-06
2.03181e-06
1.81327e-06
1.61674e-06
1.44031e-06
1.28218e-06
1.14071e-06
1.01435e-06
9.01692e-07
8.01416e-07
7.1232e-07
6.33291e-07
5.63315e-07
5.01462e-07
4.46883e-07
3.98808e-07
3.56542e-07
3.19447e-07
2.86949e-07
2.58522e-07
2.33704e-07
2.12043e-07
1.93224e-07
1.76783e-07
1.62661e-07
1.50134e-07
1.39825e-07
1.29985e-07
1.2319e-07
1.14448e-07
1.11915e-07
1.01472e-07
1.06086e-07
8.84584e-08
1.07239e-07
7.17978e-08
1.18538e-07
4.66764e-08
1.44165e-07
8.25927e-09
1.87238e-07
-4.49032e-08
2.45647e-07
-1.06195e-07
3.07093e-07
-1.5768e-07
3.48984e-07
-1.74096e-07
3.48029e-07
-1.38557e-07
3.00824e-07
-6.52034e-08
2.44485e-07
-1.30819e-08
2.58222e-07
-7.33751e-08
4.34203e-07
-3.31894e-07
8.29108e-07
0.000148021
0.000145665
0.000142606
0.000139052
0.000135031
0.00013062
0.000125908
0.000120971
0.000115879
0.000110693
0.000105466
0.000100246
9.50726e-05
8.99785e-05
8.49918e-05
8.01346e-05
7.54245e-05
7.08751e-05
6.64961e-05
6.22943e-05
5.82737e-05
5.44361e-05
5.07817e-05
4.73088e-05
4.40148e-05
4.08962e-05
3.79486e-05
3.51673e-05
3.25471e-05
3.00828e-05
2.7769e-05
2.55999e-05
2.35702e-05
2.1674e-05
1.99057e-05
1.82594e-05
1.67291e-05
1.53089e-05
1.39929e-05
1.27751e-05
1.16498e-05
1.06108e-05
9.65401e-06
8.77041e-06
7.95961e-06
7.21812e-06
6.53366e-06
5.90715e-06
5.33466e-06
4.81154e-06
4.33427e-06
3.8995e-06
3.50402e-06
3.14484e-06
2.81914e-06
2.52427e-06
2.25773e-06
2.0172e-06
1.80051e-06
1.60561e-06
1.43061e-06
1.27374e-06
1.13338e-06
1.008e-06
8.96202e-07
7.96678e-07
7.08238e-07
6.29782e-07
5.60304e-07
4.98883e-07
4.4468e-07
3.96932e-07
3.54946e-07
3.18092e-07
2.85801e-07
2.57549e-07
2.32883e-07
2.11351e-07
1.92641e-07
1.76294e-07
1.6225e-07
1.49793e-07
1.39538e-07
1.29749e-07
1.22989e-07
1.14284e-07
1.11768e-07
1.01364e-07
1.05978e-07
8.83975e-08
1.07153e-07
7.17738e-08
1.18453e-07
4.66828e-08
1.4407e-07
8.2948e-09
1.8714e-07
-4.4854e-08
2.45548e-07
-1.06157e-07
3.07018e-07
-1.57678e-07
3.48947e-07
-1.74142e-07
3.48028e-07
-1.38633e-07
3.00822e-07
-6.52598e-08
2.44423e-07
-1.30504e-08
2.58095e-07
-7.3326e-08
4.34322e-07
-3.32151e-07
8.30132e-07
0.000140014
0.000138258
0.00013578
0.000132784
0.000129287
0.000125363
0.000121104
0.000116587
0.000111882
0.000107053
0.000102155
9.72368e-05
9.23392e-05
8.74976e-05
8.27413e-05
7.80944e-05
7.35759e-05
6.92009e-05
6.49805e-05
6.09228e-05
5.70332e-05
5.33147e-05
4.97683e-05
4.63936e-05
4.31889e-05
4.01512e-05
3.72772e-05
3.45627e-05
3.20032e-05
2.9594e-05
2.733e-05
2.52061e-05
2.32171e-05
2.13578e-05
1.96226e-05
1.80061e-05
1.65026e-05
1.51065e-05
1.3812e-05
1.26134e-05
1.15054e-05
1.04819e-05
9.53898e-06
8.66788e-06
7.86828e-06
7.13677e-06
6.46136e-06
5.84294e-06
5.2777e-06
4.76108e-06
4.28962e-06
3.86005e-06
3.46922e-06
3.11418e-06
2.79217e-06
2.50057e-06
2.23695e-06
1.99901e-06
1.7846e-06
1.59173e-06
1.41851e-06
1.26323e-06
1.12425e-06
1.00009e-06
8.8936e-07
7.90773e-07
7.0315e-07
6.25407e-07
5.5655e-07
4.95669e-07
4.41934e-07
3.94591e-07
3.52955e-07
3.16402e-07
2.84369e-07
2.56337e-07
2.31859e-07
2.10487e-07
1.91914e-07
1.75683e-07
1.61737e-07
1.49367e-07
1.3918e-07
1.29453e-07
1.22738e-07
1.1408e-07
1.11586e-07
1.01229e-07
1.05844e-07
8.83204e-08
1.07044e-07
7.17432e-08
1.18344e-07
4.66915e-08
1.43951e-07
8.34e-09
1.87014e-07
-4.47906e-08
2.45422e-07
-1.06107e-07
3.06921e-07
-1.5767e-07
3.48897e-07
-1.74193e-07
3.48021e-07
-1.38723e-07
3.00817e-07
-6.53265e-08
2.44344e-07
-1.30127e-08
2.5794e-07
-7.32689e-08
4.34469e-07
-3.32466e-07
8.31363e-07
0.00013063
0.000129608
0.000127832
0.000125482
0.000122586
0.000119224
0.000115487
0.000111454
0.000107197
0.000102782
9.82647e-05
9.36963e-05
8.912e-05
8.45729e-05
8.0086e-05
7.56851e-05
7.13912e-05
6.72208e-05
6.31868e-05
5.92988e-05
5.55635e-05
5.19853e-05
4.85665e-05
4.53078e-05
4.22084e-05
3.92665e-05
3.64796e-05
3.38442e-05
3.13565e-05
2.90124e-05
2.68075e-05
2.47372e-05
2.27966e-05
2.0981e-05
1.92852e-05
1.77041e-05
1.62324e-05
1.48649e-05
1.3596e-05
1.24204e-05
1.1333e-05
1.0328e-05
9.4016e-06
8.54543e-06
7.75919e-06
7.03958e-06
6.37499e-06
5.76623e-06
5.20964e-06
4.70078e-06
4.23626e-06
3.8129e-06
3.42761e-06
3.07752e-06
2.75992e-06
2.47224e-06
2.21211e-06
1.97725e-06
1.76558e-06
1.57513e-06
1.40405e-06
1.25065e-06
1.11333e-06
9.9063e-07
8.81175e-07
7.83706e-07
6.97061e-07
6.20171e-07
5.52057e-07
4.91821e-07
4.38646e-07
3.91788e-07
3.5057e-07
3.14377e-07
2.82652e-07
2.54884e-07
2.30632e-07
2.09452e-07
1.91043e-07
1.74952e-07
1.61123e-07
1.48855e-07
1.3875e-07
1.29098e-07
1.22434e-07
1.13836e-07
1.11365e-07
1.01072e-07
1.05675e-07
8.8238e-08
1.06895e-07
7.17299e-08
1.18179e-07
4.67494e-08
1.43743e-07
8.47741e-09
1.86756e-07
-4.45841e-08
2.45115e-07
-1.05865e-07
3.06603e-07
-1.57445e-07
3.48617e-07
-1.74038e-07
3.47814e-07
-1.38654e-07
3.00664e-07
-6.52918e-08
2.44164e-07
-1.28977e-08
2.57682e-07
-7.30997e-08
4.34479e-07
-3.32592e-07
8.3247e-07
0.000119678
0.000119587
0.000118665
0.000117054
0.00011484
0.000112115
0.000108972
0.00010549
0.000101746
9.78038e-05
9.37242e-05
8.95591e-05
8.53539e-05
8.11474e-05
7.69729e-05
7.28578e-05
6.88251e-05
6.48932e-05
6.10768e-05
5.7387e-05
5.38322e-05
5.04184e-05
4.71491e-05
4.40264e-05
4.10508e-05
3.82216e-05
3.5537e-05
3.29946e-05
3.05915e-05
2.83242e-05
2.6189e-05
2.41818e-05
2.22984e-05
2.05343e-05
1.8885e-05
1.73458e-05
1.59118e-05
1.4578e-05
1.33395e-05
1.21912e-05
1.11281e-05
1.0145e-05
9.2383e-06
8.39987e-06
7.62948e-06
6.924e-06
6.27227e-06
5.67498e-06
5.12867e-06
4.62904e-06
4.17278e-06
3.75679e-06
3.3781e-06
3.0339e-06
2.72153e-06
2.43852e-06
2.18253e-06
1.95135e-06
1.74293e-06
1.55536e-06
1.38682e-06
1.23566e-06
1.10032e-06
9.79355e-07
8.71421e-07
7.75284e-07
6.89804e-07
6.1393e-07
5.467e-07
4.87233e-07
4.34725e-07
3.88444e-07
3.47724e-07
3.1196e-07
2.80603e-07
2.53149e-07
2.29166e-07
2.08216e-07
1.90002e-07
1.74078e-07
1.60389e-07
1.48243e-07
1.38235e-07
1.28674e-07
1.22069e-07
1.13548e-07
1.11096e-07
1.00892e-07
1.05459e-07
8.81582e-08
1.06685e-07
7.17557e-08
1.17919e-07
4.69025e-08
1.43381e-07
8.78902e-09
1.86256e-07
-4.41059e-08
2.4447e-07
-1.05258e-07
3.05867e-07
-1.56798e-07
3.47893e-07
-1.73474e-07
3.47214e-07
-1.38264e-07
3.0023e-07
-6.50563e-08
2.43804e-07
-1.26462e-08
2.57252e-07
-7.27252e-08
4.34205e-07
-3.32307e-07
8.33199e-07
0.000107602
0.000108433
0.000108378
0.000107566
0.000106098
0.000104074
0.000101587
9.87182e-05
9.55434e-05
9.2131e-05
8.8542e-05
8.48303e-05
8.10432e-05
7.72216e-05
7.34005e-05
6.96098e-05
6.5874e-05
6.22138e-05
5.86455e-05
5.51822e-05
5.18341e-05
4.86085e-05
4.55109e-05
4.25445e-05
3.97112e-05
3.70115e-05
3.44448e-05
3.20097e-05
2.97042e-05
2.75255e-05
2.54707e-05
2.35364e-05
2.1719e-05
2.00146e-05
1.84192e-05
1.69285e-05
1.55381e-05
1.42436e-05
1.30404e-05
1.19237e-05
1.08891e-05
9.93153e-06
9.04769e-06
8.22991e-06
7.47798e-06
6.78904e-06
6.1523e-06
5.56839e-06
5.0341e-06
4.54522e-06
4.0986e-06
3.69124e-06
3.32025e-06
2.98291e-06
2.67667e-06
2.3991e-06
2.14795e-06
1.92107e-06
1.71646e-06
1.53224e-06
1.36668e-06
1.21815e-06
1.08511e-06
9.6617e-07
8.60015e-07
7.65436e-07
6.81316e-07
6.0663e-07
5.40435e-07
4.81867e-07
4.30139e-07
3.84533e-07
3.44395e-07
3.09131e-07
2.78205e-07
2.5112e-07
2.27451e-07
2.06771e-07
1.88784e-07
1.73056e-07
1.5953e-07
1.47526e-07
1.37633e-07
1.28176e-07
1.21645e-07
1.13206e-07
1.1079e-07
1.00668e-07
1.05227e-07
8.80331e-08
1.06484e-07
7.17203e-08
1.17706e-07
4.69583e-08
1.43121e-07
8.94232e-09
1.85936e-07
-4.38691e-08
2.44096e-07
-1.04982e-07
3.05488e-07
-1.56551e-07
3.47571e-07
-1.73326e-07
3.46994e-07
-1.38238e-07
3.00091e-07
-6.50888e-08
2.43646e-07
-1.2599e-08
2.57021e-07
-7.26379e-08
4.3436e-07
-3.32636e-07
8.34884e-07
9.47824e-05
9.65147e-05
9.73296e-05
9.73413e-05
9.6653e-05
9.53655e-05
9.35707e-05
9.13513e-05
8.87836e-05
8.59369e-05
8.28737e-05
7.96496e-05
7.63134e-05
7.2908e-05
6.94702e-05
6.60318e-05
6.26194e-05
5.92555e-05
5.59585e-05
5.27433e-05
4.96218e-05
4.66031e-05
4.36942e-05
4.08999e-05
3.82235e-05
3.56668e-05
3.32303e-05
3.09138e-05
2.87162e-05
2.66356e-05
2.46699e-05
2.28165e-05
2.10723e-05
1.94342e-05
1.78986e-05
1.64619e-05
1.51201e-05
1.38694e-05
1.27054e-05
1.16241e-05
1.06212e-05
9.69225e-06
8.83404e-06
8.03935e-06
7.3081e-06
6.63771e-06
6.01772e-06
5.44883e-06
4.92799e-06
4.45118e-06
4.01536e-06
3.61766e-06
3.2553e-06
2.92567e-06
2.6263e-06
2.35484e-06
2.10912e-06
1.88705e-06
1.68671e-06
1.50628e-06
1.34406e-06
1.19846e-06
1.06802e-06
9.51355e-07
8.47197e-07
7.54368e-07
6.71777e-07
5.98426e-07
5.33392e-07
4.75835e-07
4.24983e-07
3.80135e-07
3.40652e-07
3.05951e-07
2.75508e-07
2.48837e-07
2.25523e-07
2.05145e-07
1.87415e-07
1.71905e-07
1.58565e-07
1.4672e-07
1.36957e-07
1.27615e-07
1.21169e-07
1.12819e-07
1.10451e-07
1.0041e-07
1.04976e-07
8.78763e-08
1.06279e-07
7.16482e-08
1.17508e-07
4.69621e-08
1.42906e-07
9.01562e-09
1.85697e-07
-4.37515e-08
2.43849e-07
-1.04869e-07
3.05277e-07
-1.56505e-07
3.47446e-07
-1.73394e-07
3.46969e-07
-1.38413e-07
3.00118e-07
-6.52886e-08
2.43619e-07
-1.27003e-08
2.56932e-07
-7.27492e-08
4.34788e-07
-3.3334e-07
8.37196e-07
8.13358e-05
8.39692e-05
8.56589e-05
8.65093e-05
8.66206e-05
8.60922e-05
8.50151e-05
8.34716e-05
8.15382e-05
7.9285e-05
7.67755e-05
7.40663e-05
7.12078e-05
6.82444e-05
6.52149e-05
6.21527e-05
5.90865e-05
5.60405e-05
5.30351e-05
5.0087e-05
4.721e-05
4.44149e-05
4.17102e-05
3.91024e-05
3.65963e-05
3.41948e-05
3.19e-05
2.97125e-05
2.76324e-05
2.56588e-05
2.37903e-05
2.20251e-05
2.0361e-05
1.87953e-05
1.73252e-05
1.59476e-05
1.46592e-05
1.34565e-05
1.23358e-05
1.12934e-05
1.03255e-05
9.42791e-06
8.59795e-06
7.82871e-06
7.12029e-06
6.47041e-06
5.8689e-06
5.31658e-06
4.81061e-06
4.34713e-06
3.92325e-06
3.53623e-06
3.18342e-06
2.86231e-06
2.57053e-06
2.30583e-06
2.06612e-06
1.84938e-06
1.65377e-06
1.47752e-06
1.31899e-06
1.17665e-06
1.04908e-06
9.34935e-07
8.3299e-07
7.42098e-07
6.61202e-07
5.89329e-07
5.25583e-07
4.69145e-07
4.19265e-07
3.75257e-07
3.36499e-07
3.02422e-07
2.72515e-07
2.46304e-07
2.23382e-07
2.0334e-07
1.85896e-07
1.70629e-07
1.57494e-07
1.45824e-07
1.36205e-07
1.26991e-07
1.20642e-07
1.12389e-07
1.10075e-07
1.00122e-07
1.04699e-07
8.76994e-08
1.06054e-07
7.15641e-08
1.17293e-07
4.6962e-08
1.4267e-07
9.09345e-09
1.85432e-07
-4.36209e-08
2.43571e-07
-1.04738e-07
3.05035e-07
-1.56444e-07
3.47296e-07
-1.73461e-07
3.46938e-07
-1.38612e-07
3.00164e-07
-6.55412e-08
2.43637e-07
-1.28782e-08
2.56908e-07
-7.29536e-08
4.35322e-07
-3.34167e-07
8.39789e-07
6.74049e-05
7.09375e-05
7.35016e-05
7.51951e-05
7.61145e-05
7.6357e-05
7.60122e-05
7.51613e-05
7.38808e-05
7.22408e-05
7.03052e-05
6.81316e-05
6.57715e-05
6.32709e-05
6.06698e-05
5.80035e-05
5.53024e-05
5.25925e-05
4.98961e-05
4.72316e-05
4.46146e-05
4.20577e-05
3.95711e-05
3.71627e-05
3.48388e-05
3.26038e-05
3.04609e-05
2.8412e-05
2.64582e-05
2.45996e-05
2.28358e-05
2.11658e-05
1.9588e-05
1.81006e-05
1.67013e-05
1.53877e-05
1.41571e-05
1.30065e-05
1.19327e-05
1.09325e-05
1.00026e-05
9.13932e-06
8.34014e-06
7.59863e-06
6.91511e-06
6.28759e-06
5.70625e-06
5.17201e-06
4.68227e-06
4.23334e-06
3.82251e-06
3.44716e-06
3.10477e-06
2.79297e-06
2.50949e-06
2.25219e-06
2.01904e-06
1.80814e-06
1.61769e-06
1.44602e-06
1.29153e-06
1.15276e-06
1.02833e-06
9.16945e-07
8.17422e-07
7.28652e-07
6.49612e-07
5.79358e-07
5.17023e-07
4.61812e-07
4.12995e-07
3.69907e-07
3.31944e-07
2.98551e-07
2.69232e-07
2.43525e-07
2.21034e-07
2.0136e-07
1.84228e-07
1.69228e-07
1.56318e-07
1.4484e-07
1.3538e-07
1.26306e-07
1.20062e-07
1.11916e-07
1.09664e-07
9.98044e-08
1.04395e-07
8.75036e-08
1.05807e-07
7.14703e-08
1.17056e-07
4.69621e-08
1.4241e-07
9.18296e-09
1.85134e-07
-4.34661e-08
2.4325e-07
-1.04573e-07
3.04744e-07
-1.56348e-07
3.47102e-07
-1.73507e-07
3.46881e-07
-1.38817e-07
3.00215e-07
-6.58356e-08
2.4369e-07
-1.31281e-08
2.56946e-07
-7.32445e-08
4.35944e-07
-3.35088e-07
8.42593e-07
5.3142e-05
5.75601e-05
6.09877e-05
6.35178e-05
6.52434e-05
6.62588e-05
6.66513e-05
6.65011e-05
6.58836e-05
6.48686e-05
6.35203e-05
6.18966e-05
6.005e-05
5.80273e-05
5.58702e-05
5.36153e-05
5.12946e-05
4.89358e-05