/*--------------------------------*- C++ -*----------------------------------*\
| =========                 |                                                 |
| \\      /  F ield         | OpenFOAM: The Open Source CFD Toolbox           |
|  \\    /   O peration     | Version:  2412                                  |
|   \\  /    A nd           | Website:  www.openfoam.com                      |
|    \\/     M anipulation  |                                                 |
\*---------------------------------------------------------------------------*/
FoamFile
{
    version     2.0;
    format      ascii;
    arch        "LSB;label=32;scalar=64";
    class       surfaceScalarField;
    location    "22.5";
    object      phi;
}
// * * * * * * * * * * * * * * * * * * * * * * * * * * * * * * * * * * * * * //

dimensions      [0 3 -1 0 0 0 0];

oriented        oriented;

internalField   nonuniform List<scalar> 
126304
(
0.00505063
1.29207e-07
1.59233e-11
0.00505025
3.76868e-07
2.69403e-11
0.00504964
6.11525e-07
2.8801e-11
0.0050488
8.34629e-07
3.32449e-11
0.00504776
1.04694e-06
4.57387e-11
0.00504651
1.24962e-06
6.71421e-11
0.00504506
1.44774e-06
9.05442e-11
0.00504341
1.65356e-06
9.68666e-11
0.00504152
1.886e-06
5.57319e-11
0.00503936
2.1651e-06
-6.50153e-11
0.00503685
2.50356e-06
-2.84263e-10
0.00503395
2.8996e-06
-5.9374e-10
0.00503062
3.33486e-06
-9.52874e-10
0.00502684
3.7783e-06
-1.29604e-09
0.00502265
4.19416e-06
-1.54936e-09
0.0050181
4.55074e-06
-1.64963e-09
0.00501328
4.82706e-06
-1.5586e-09
0.00500826
5.01569e-06
-1.26934e-09
0.00500314
5.12199e-06
-8.04512e-10
0.00499798
5.16069e-06
-2.08517e-10
0.00499283
5.15151e-06
4.63707e-10
0.00498771
5.115e-06
1.15724e-09
0.00498264
5.06947e-06
1.82483e-09
0.00497761
5.02925e-06
2.43118e-09
0.0049726
5.00414e-06
2.95443e-09
0.0049676
4.99976e-06
3.385e-09
0.00496258
5.01829e-06
3.72287e-09
0.00495751
5.05953e-06
3.97465e-09
0.00495239
5.12174e-06
4.15091e-09
0.00494718
5.20245e-06
4.26393e-09
0.00494188
5.29898e-06
4.32611e-09
0.00493646
5.40878e-06
4.34862e-09
0.00493093
5.52965e-06
4.34093e-09
0.00492527
5.65977e-06
4.31071e-09
0.00491946
5.79772e-06
4.26395e-09
0.00491352
5.94245e-06
4.20519e-09
0.00490742
6.0932e-06
4.13776e-09
0.00490117
6.24945e-06
4.06403e-09
0.00489475
6.41083e-06
3.98559e-09
0.00488817
6.57713e-06
3.9035e-09
0.00488142
6.74823e-06
3.81847e-09
0.00487449
6.92404e-06
3.73098e-09
0.00486738
7.10454e-06
3.64138e-09
0.00486009
7.28973e-06
3.54987e-09
0.00485261
7.47962e-06
3.45654e-09
0.00484493
7.67425e-06
3.36153e-09
0.00483705
7.87363e-06
3.26488e-09
0.00482897
8.07783e-06
3.1667e-09
0.00482068
8.28689e-06
3.06703e-09
0.00481218
8.50091e-06
2.966e-09
0.00480345
8.72002e-06
2.86373e-09
0.00479451
8.94453e-06
2.76034e-09
0.00478533
9.17526e-06
2.65589e-09
0.00477591
9.4146e-06
2.5506e-09
9.6693e-06
0.00476624
2.44474e-09
0.00505063
2.58345e-07
0.00505025
7.53492e-07
0.00504964
1.22265e-06
0.00504881
1.6687e-06
0.00504776
2.09319e-06
0.00504651
2.49843e-06
0.00504506
2.89453e-06
0.00504341
3.30586e-06
0.00504153
3.77012e-06
0.00503937
4.32729e-06
0.00503687
5.00272e-06
0.00503397
5.79298e-06
0.00503065
6.66164e-06
0.00502688
7.54695e-06
0.00502269
8.37766e-06
0.00501815
9.09059e-06
0.00501334
9.64378e-06
0.00500833
1.00223e-05
0.00500322
1.02367e-05
0.00499806
1.03161e-05
0.00499291
1.02998e-05
0.0049878
1.02286e-05
0.00498273
1.0139e-05
0.0049777
1.00597e-05
0.00497269
1.00103e-05
0.00496769
1.00018e-05
0.00496267
1.00389e-05
0.00495761
1.01212e-05
0.00495249
1.02452e-05
0.00494728
1.0406e-05
0.00494198
1.05984e-05
0.00493657
1.08173e-05
0.00493105
1.10583e-05
0.00492539
1.13177e-05
0.00491959
1.15928e-05
0.00491365
1.18815e-05
0.00490756
1.21822e-05
0.00490132
1.24939e-05
0.00489491
1.28158e-05
0.00488834
1.31476e-05
0.0048816
1.3489e-05
0.00487469
1.38397e-05
0.00486759
1.41998e-05
0.00486031
1.45692e-05
0.00485284
1.4948e-05
0.00484518
1.53362e-05
0.00483732
1.57339e-05
0.00482926
1.61412e-05
0.00482099
1.65581e-05
0.0048125
1.69848e-05
0.0048038
1.74216e-05
0.00479488
1.78691e-05
0.00478572
1.83288e-05
0.00477633
1.88054e-05
1.93117e-05
0.00476669
0.00505063
3.87311e-07
0.00505025
1.12957e-06
0.00504964
1.8329e-06
0.00504881
2.50158e-06
0.00504776
3.13795e-06
0.00504652
3.74548e-06
0.00504507
4.3392e-06
0.00504342
4.95545e-06
0.00504154
5.65042e-06
0.00503939
6.48382e-06
0.0050369
7.4937e-06
0.00503401
8.67523e-06
0.0050307
9.97435e-06
0.00502695
1.12991e-05
0.00502278
1.25432e-05
0.00501826
1.36122e-05
0.00501346
1.44432e-05
0.00500847
1.50135e-05
0.00500337
1.53384e-05
0.00499822
1.54614e-05
0.00499308
1.54405e-05
0.00498797
1.53369e-05
0.00498291
1.52051e-05
0.00497788
1.50877e-05
0.00497288
1.50143e-05
0.00496788
1.50017e-05
0.00496286
1.50567e-05
0.0049578
1.5179e-05
0.00495268
1.53636e-05
0.00494749
1.56032e-05
0.00494219
1.589e-05
0.00493679
1.62165e-05
0.00493128
1.6576e-05
0.00492563
1.69634e-05
0.00491985
1.73742e-05
0.00491393
1.78053e-05
0.00490785
1.82545e-05
0.00490163
1.87202e-05
0.00489524
1.92013e-05
0.00488869
1.9697e-05
0.00488197
2.02071e-05
0.00487508
2.07312e-05
0.00486801
2.12693e-05
0.00486076
2.18212e-05
0.00485332
2.23872e-05
0.00484569
2.29671e-05
0.00483786
2.35611e-05
0.00482984
2.41692e-05
0.0048216
2.47917e-05
0.00481316
2.54288e-05
0.0048045
2.60807e-05
0.00479562
2.67483e-05
0.00478651
2.74338e-05
0.00477718
2.81435e-05
2.88954e-05
0.00476759
0.00505063
5.16023e-07
0.00505025
1.50484e-06
0.00504964
2.44187e-06
0.00504881
3.33268e-06
0.00504777
4.18049e-06
0.00504653
4.98989e-06
0.00504508
5.78073e-06
0.00504344
6.60099e-06
0.00504156
7.52502e-06
0.00503942
8.63201e-06
0.00503694
9.97268e-06
0.00503407
1.15412e-05
0.00503078
1.32664e-05
0.00502705
1.5027e-05
0.00502291
1.66823e-05
0.00501842
1.81069e-05
0.00501364
1.9217e-05
0.00500868
1.99819e-05
0.00500359
2.04211e-05
0.00499846
2.05915e-05
0.00499333
2.05701e-05
0.00498823
2.04373e-05
0.00498317
2.02656e-05
0.00497815
2.01117e-05
0.00497315
2.00148e-05
0.00496815
1.99978e-05
0.00496314
2.00699e-05
0.00495809
2.02308e-05
0.00495298
2.04742e-05
0.00494779
2.07906e-05
0.00494251
2.11697e-05
0.00493712
2.16015e-05
0.00493162
2.20775e-05
0.00492599
2.25905e-05
0.00492023
2.31348e-05
0.00491433
2.37063e-05
0.00490829
2.43019e-05
0.00490209
2.49194e-05
0.00489573
2.55574e-05
0.00488921
2.62149e-05
0.00488253
2.68914e-05
0.00487567
2.75866e-05
0.00486864
2.83002e-05
0.00486143
2.90322e-05
0.00485404
2.97826e-05
0.00484645
3.05514e-05
0.00483867
3.13388e-05
0.0048307
3.21448e-05
0.00482252
3.29695e-05
0.00481414
3.38133e-05
0.00480554
3.46765e-05
0.00479673
3.55601e-05
0.0047877
3.64665e-05
0.00477844
3.74031e-05
3.83913e-05
0.00476894
0.00505063
6.44399e-07
0.00505025
1.87903e-06
0.00504965
3.04911e-06
0.00504882
4.16141e-06
0.00504778
5.22008e-06
0.00504654
6.2308e-06
0.0050451
7.21807e-06
0.00504346
8.24116e-06
0.00504159
9.39214e-06
0.00503946
1.07693e-05
0.00503699
1.24361e-05
0.00503415
1.43859e-05
0.00503088
1.65317e-05
0.00502719
1.87236e-05
0.00502308
2.07872e-05
0.00501862
2.25668e-05
0.00501388
2.39577e-05
0.00500894
2.49205e-05
0.00500388
2.54787e-05
0.00499877
2.57018e-05
0.00499366
2.56846e-05
0.00498857
2.55269e-05
0.00498352
2.53183e-05
0.0049785
2.51298e-05
0.0049735
2.50103e-05
0.00496851
2.49885e-05
0.00496351
2.50765e-05
0.00495846
2.52742e-05
0.00495336
2.5574e-05
0.00494819
2.59646e-05
0.00494293
2.64332e-05
0.00493756
2.69676e-05
0.00493208
2.75571e-05
0.00492648
2.81929e-05
0.00492074
2.88679e-05
0.00491487
2.95769e-05
0.00490886
3.0316e-05
0.0049027
3.10825e-05
0.00489638
3.18745e-05
0.0048899
3.2691e-05
0.00488326
3.3531e-05
0.00487646
3.43941e-05
0.00486948
3.528e-05
0.00486232
3.61887e-05
0.00485498
3.71201e-05
0.00484746
3.80742e-05
0.00483975
3.9051e-05
0.00483184
4.00507e-05
0.00482374
4.10734e-05
0.00481543
4.21192e-05
0.00480692
4.31887e-05
0.0047982
4.42826e-05
0.00478926
4.54037e-05
0.0047801
4.65593e-05
4.77716e-05
0.00477072
0.00505063
7.72364e-07
0.00505026
2.25186e-06
0.00504965
3.65421e-06
0.00504883
4.98719e-06
0.00504779
6.25597e-06
0.00504655
7.46731e-06
0.00504512
8.65018e-06
0.00504349
9.87469e-06
0.00504163
1.12501e-05
0.00503951
1.28933e-05
0.00503706
1.48806e-05
0.00503424
1.72052e-05
0.00503101
1.9765e-05
0.00502735
2.23825e-05
0.00502329
2.48511e-05
0.00501887
2.69849e-05
0.00501417
2.86583e-05
0.00500926
2.98232e-05
0.00500424
3.05058e-05
0.00499915
3.07875e-05
0.00499406
3.07803e-05
0.00498898
3.06025e-05
0.00498394
3.03608e-05
0.00497893
3.01398e-05
0.00497394
2.99985e-05
0.00496896
2.99715e-05
0.00496396
3.00739e-05
0.00495893
3.03062e-05
0.00495384
3.06598e-05
0.00494868
3.11214e-05
0.00494344
3.16761e-05
0.0049381
3.23096e-05
0.00493265
3.30091e-05
0.00492708
3.37641e-05
0.00492138
3.45663e-05
0.00491555
3.54093e-05
0.00490957
3.62885e-05
0.00490345
3.72006e-05
0.00489719
3.81432e-05
0.00489076
3.91149e-05
0.00488418
4.01147e-05
0.00487743
4.1142e-05
0.00487051
4.21964e-05
0.00486343
4.32776e-05
0.00485616
4.43857e-05
0.00484871
4.55205e-05
0.00484108
4.66821e-05
0.00483326
4.78705e-05
0.00482525
4.90857e-05
0.00481704
5.0328e-05
0.00480863
5.15976e-05
0.00480002
5.28952e-05
0.0047912
5.42232e-05
0.00478217
5.55879e-05
5.70095e-05
0.00477293
0.00505063
8.99795e-07
0.00505026
2.6231e-06
0.00504966
4.25673e-06
0.00504883
5.80943e-06
0.0050478
7.28743e-06
0.00504657
8.69858e-06
0.00504515
1.0076e-05
0.00504352
1.15003e-05
0.00504167
1.30972e-05
0.00503956
1.5002e-05
0.00503714
1.73033e-05
0.00503435
1.99953e-05
0.00503115
2.29615e-05
0.00502754
2.59985e-05
0.00502352
2.8868e-05
0.00501915
3.13549e-05
0.0050145
3.33128e-05
0.00500964
3.46841e-05
0.00500464
3.54971e-05
0.00499959
3.58442e-05
0.00499451
3.58535e-05
0.00498946
3.5661e-05
0.00498443
3.53902e-05
0.00497943
3.51392e-05
0.00497445
3.49769e-05
0.00496948
3.49442e-05
0.00496449
3.50594e-05
0.00495947
3.53236e-05
0.00495441
3.57277e-05
0.00494927
3.62567e-05
0.00494405
3.68936e-05
0.00493874
3.76221e-05
0.00493332
3.84276e-05
0.00492779
3.92979e-05
0.00492213
4.02232e-05
0.00491634
4.11962e-05
0.00491042
4.22114e-05
0.00490436
4.32649e-05
0.00489815
4.4354e-05
0.00489178
4.54767e-05
0.00488527
4.6632e-05
0.00487859
4.7819e-05
0.00487175
4.90371e-05
0.00486474
5.02861e-05
0.00485756
5.15658e-05
0.00485021
5.28761e-05
0.00484267
5.42168e-05
0.00483495
5.5588e-05
0.00482705
5.69896e-05
0.00481896
5.84216e-05
0.00481067
5.98843e-05
0.00480219
6.1378e-05
0.00479351
6.29041e-05
0.00478463
6.44667e-05
0.00477556
6.60771e-05
0.00476654
-3.07014e-07
2.35017e-09
0.00476632
2.21528e-07
2.27926e-09
0.00476553
7.83023e-07
2.21493e-09
0.00476415
1.38266e-06
2.14261e-09
0.00476213
2.02281e-06
2.06459e-09
0.00475942
2.70698e-06
1.98161e-09
0.00475598
3.4391e-06
1.89329e-09
0.00475175
4.22356e-06
1.79932e-09
0.00474668
5.06524e-06
1.69915e-09
0.00474071
5.96962e-06
1.59259e-09
0.00473377
6.9428e-06
1.47955e-09
0.00472577
7.99165e-06
1.35992e-09
0.00471665
9.12383e-06
1.23358e-09
0.0047063
1.0348e-05
1.10267e-09
0.00469463
1.16738e-05
9.59661e-10
0.00468151
1.31124e-05
8.24369e-10
0.00466684
1.4676e-05
6.51895e-10
0.00465046
1.63789e-05
4.65542e-10
0.00463222
1.82371e-05
2.86636e-10
0.00461195
2.0269e-05
8.73378e-11
0.00458945
2.24959e-05
-9.96355e-11
0.00456451
2.4942e-05
-2.90321e-10
0.00453688
2.76357e-05
-4.87687e-10
0.00450627
3.06099e-05
-6.91475e-10
0.00447237
3.39031e-05
-9.00581e-10
0.00443481
3.75604e-05
-1.11375e-09
0.00439317
4.16357e-05
-1.32932e-09
0.00434698
4.61928e-05
-1.54588e-09
0.00429567
5.13082e-05
-1.76205e-09
0.0042386
5.7074e-05
-1.97633e-09
0.004175
6.36022e-05
-2.18767e-09
0.00410398
7.10286e-05
-2.3953e-09
0.00402446
7.95199e-05
-2.59867e-09
0.00393518
8.928e-05
-2.79778e-09
0.00383463
0.000100558
-2.99283e-09
0.00372097
0.000113658
-3.1846e-09
0.00359203
0.000128941
-3.37421e-09
0.00344521
0.000146828
-3.56301e-09
0.00327743
0.000167784
-3.75246e-09
0.00308516
0.000192272
-3.94422e-09
0.0028645
0.000220661
-4.14014e-09
0.00261146
0.000253051
-4.34111e-09
0.00232249
0.000288975
-4.54534e-09
0.00199556
0.000326928
-4.74441e-09
0.00163191
0.000363654
-4.91502e-09
0.00123878
0.000393142
-5.00616e-09
0.000833437
0.000405345
-4.92048e-09
0.000448876
0.000384565
-4.49256e-09
0.000141929
0.000306951
-3.47723e-09
0.000141931
-1.57282e-09
0.00476563
7.55689e-07
0.00476404
1.80918e-06
0.00476189
2.93137e-06
0.00475915
4.12833e-06
0.00475576
5.40625e-06
0.0047517
6.77214e-06
0.0047469
8.23389e-06
0.00474133
9.80029e-06
0.00473491
1.14812e-05
0.00472759
1.32874e-05
0.0047193
1.52314e-05
0.00470997
1.73268e-05
0.0046995
1.9589e-05
0.00468782
2.20353e-05
0.00467481
2.46851e-05
0.00466036
2.75605e-05
0.00464435
3.06864e-05
0.00462663
3.4091e-05
0.00460707
3.78066e-05
0.00458546
4.18701e-05
0.00456164
4.63239e-05
0.00453536
5.1217e-05
0.00450639
5.66058e-05
0.00447444
6.25564e-05
0.0044392
6.91456e-05
0.0044003
7.64643e-05
0.00435731
8.46197e-05
0.00430977
9.37395e-05
0.0042571
0.000103977
0.00419866
0.000115515
0.00413368
0.000128577
0.00406128
0.000143435
0.00398038
0.000160417
0.00388973
0.00017993
0.00378782
0.000202467
0.00367285
0.000228625
0.00354268
0.000259117
0.00339474
0.000294767
0.00322605
0.000336478
0.00303318
0.000385141
0.00281239
0.00044145
0.00255989
0.000505547
0.00227243
0.000576437
0.0019483
0.000651054
0.00158908
0.000722874
0.00120229
0.00077994
0.000805329
0.000802303
0.000430851
0.000759042
0.000133628
0.000604174
0.000275558
0.00476381
4.53404e-06
0.00475951
6.10924e-06
0.00475466
7.7873e-06
0.00474921
9.57699e-06
0.00474313
1.14878e-05
0.00473637
1.35304e-05
0.00472889
1.57167e-05
0.00472063
1.80599e-05
0.00471153
2.05749e-05
0.00470154
2.32781e-05
0.00469059
2.6188e-05
0.00467859
2.93253e-05
0.00466546
3.2713e-05
0.00465112
3.63771e-05
0.00463546
4.0347e-05
0.00461837
4.46558e-05
0.00459971
4.93408e-05
0.00457936
5.44446e-05
0.00455715
6.00158e-05
0.00453291
6.61098e-05
0.00450644
7.27905e-05
0.00447753
8.01314e-05
0.00444592
8.82176e-05
0.00441132
9.7148e-05
0.00437343
0.000107039
0.00433187
0.000118025
0.00428622
0.000130269
0.004236
0.000143962
0.00418064
0.000159332
0.0041195
0.000176655
0.00405182
0.000196262
0.0039767
0.000218557
0.00389308
0.00024403
0.00379973
0.000273279
0.00369517
0.000307031
0.00357764
0.00034616
0.00344505
0.000391706
0.00329495
0.000444858
0.00312453
0.000506905
0.00293057
0.000579096
0.00270967
0.00066235
0.00245848
0.00075674
0.0021743
0.000860621
0.00185608
0.000969271
0.00150606
0.0010729
0.00113219
0.00115381
0.000751919
0.00118257
0.000397411
0.00111355
0.000120877
0.000880708
0.000396436
0.00476113
1.23427e-05
0.00475281
1.44327e-05
0.00474394
1.66591e-05
0.00473448
1.90336e-05
0.0047244
2.15692e-05
0.00471365
2.42802e-05
0.00470218
2.71827e-05
0.00468995
3.02945e-05
0.00467689
3.36353e-05
0.00466294
3.72273e-05
0.00464803
4.10952e-05
0.00463209
4.52664e-05
0.00461503
4.9772e-05
0.00459676
5.46467e-05
0.00457718
5.99297e-05
0.00455617
6.56652e-05
0.00453361
7.19033e-05
0.00450935
7.8701e-05
0.00448324
8.61232e-05
0.00445511
9.42442e-05
0.00442475
0.000103149
0.00439194
0.000112937
0.00435644
0.000123721
0.00431796
0.000135634
0.00427616
0.00014883
0.0042307
0.000163491
0.00418114
0.000179832
0.00412699
0.000198108
0.0040677
0.000218624
0.00400261
0.000241742
0.00393097
0.000267904
0.00385189
0.00029764
0.00376432
0.000331593
0.00366706
0.000370545
0.00355865
0.000415436
0.00343741
0.000467396
0.00330137
0.000527747
0.00314825
0.000597987
0.00297544
0.000679709
0.00278013
0.000774403
0.00255941
0.000883071
0.00231062
0.00100554
0.00203191
0.00113933
0.00172324
0.00127794
0.00138776
0.00140838
0.00103394
0.00150763
0.000678757
0.00153776
0.000352528
0.00143978
0.000102806
0.00113043
0.000499242
0.00475762
2.54436e-05
0.00474402
2.80373e-05
0.00472988
3.08003e-05
0.00471516
3.37476e-05
0.00469984
3.68959e-05
0.00468385
4.02633e-05
0.00466717
4.387e-05
0.00464972
4.77382e-05
0.00463146
5.1893e-05
0.00461233
5.63619e-05
0.00459225
6.11758e-05
0.00457115
6.63693e-05
0.00454894
7.19812e-05
0.00452553
7.8055e-05
0.00450082
8.46399e-05
0.00447469
9.17914e-05
0.00444702
9.95722e-05
0.00441767
0.000108054
0.00438648
0.000117319
0.00435326
0.000127459
0.00431783
0.000138581
0.00427996
0.00015081
0.00423939
0.000164288
0.00419584
0.000179181
0.00414899
0.000195683
0.00409846
0.000214022
0.00404382
0.000234465
0.0039846
0.000257331
0.00392023
0.000282999
0.00385005
0.00031192
0.00377331
0.000344639
0.00368914
0.000381809
0.00359652
0.000424216
0.00349426
0.000472809
0.00338097
0.000528721
0.00325507
0.000593294
0.00311474
0.000668081
0.00295792
0.000754803
0.00278239
0.000855239
0.00258584
0.000970958
0.00236608
0.00110283
0.00212142
0.00125019
0.00185126
0.00140949
0.0015569
0.0015723
0.00124271
0.00172256
0.000917666
0.00183267
0.000597413
0.00185801
0.00030744
0.00172975
8.50107e-05
0.00135286
0.000584253
0.00475335
4.50288e-05
0.00473328
4.81082e-05
0.00471269
5.13906e-05
0.00469154
5.4894e-05
0.0046698
5.86386e-05
0.00464742
6.26461e-05
0.00462434
6.69409e-05
0.00460053
7.15496e-05
0.00457592
7.65022e-05
0.00455045
8.18319e-05
0.00452405
8.75757e-05
0.00449665
9.37753e-05
0.00446815
0.000100477
0.00443847
0.000107734
0.00440751
0.000115605
0.00437514
0.000124156
0.00434125
0.000133465
0.00430569
0.000143616
0.0042683
0.000154709
0.0042289
0.000166855
0.0041873
0.000180183
0.00414327
0.000194844
0.00409655
0.000211007
0.00404685
0.000228875
0.00399386
0.000248679
0.00393719
0.000270693
0.00387641
0.000295241
0.00381104
0.000322702
0.00374051
0.00035353
0.00366417
0.000388262
0.00358127
0.000427541
0.00349094
0.000472137
0.00339219
0.000522968
0.00328387
0.000581128
0.00316468
0.00064791
0.00303316
0.000724815
0.0028877
0.000813542
0.00272659
0.000915911
0.00254812
0.0010337
0.00235076
0.00116832
0.00213342
0.00132018
0.00189588
0.00148773
0.00163939
0.00166598
0.00136736
0.00184433
0.00108602
0.00200389
0.000805119
0.00211358
0.000538003
0.00212513
0.000300291
0.00196747
0.000103592
0.00154956
0.000687845
0.00474839
7.21962e-05
0.00472076
7.57349e-05
0.00469264
7.95134e-05
0.00466399
8.35508e-05
0.00463475
8.78698e-05
0.0046049
9.24959e-05
0.00457439
9.74568e-05
0.00454315
0.000102784
0.00451114
0.000108511
0.0044783
0.000114678
0.00444455
0.000121328
0.00440981
0.000128509
0.00437401
0.000136276
0.00433706
0.000144689
0.00429884
0.00015382
0.00425926
0.000163744
0.00421817
0.000174552
0.00417544
0.000186345
0.00413091
0.000199237
0.00408441
0.000213361
0.00403572
0.000228867
0.00398464
0.000245929
0.00393089
0.000264751
0.0038742
0.000285564
0.00381424
0.000308644
0.00375062
0.000334309
0.00368293
0.000362936
0.00361066
0.000394968
0.00353326
0.00043093
0.00345008
0.000471446
0.00336037
0.000517254
0.00326327
0.000569233
0.00315782
0.000628421
0.00304291
0.00069604
0.00291731
0.000773508
0.00277969
0.000862431
0.00262867
0.000964564
0.00246289
0.00108169
0.00228123
0.00121537
0.00208303
0.00136652
0.00186854
0.00153467
0.00163943
0.00171684
0.00139948
0.00190593
0.00115522
0.00208859
0.000916446
0.00224267
0.000695719
0.0023343
0.000505905
0.00231494
0.000351335
0.00212203
0.000212665
0.00168823
0.00090051
-2.85004e-05
2.85009e-05
-4.95427e-10
-8.25245e-05
5.40257e-05
-1.5919e-09
-0.000142835
6.03132e-05
-2.7615e-09
-0.000198156
5.53253e-05
-3.89907e-09
-0.000242211
4.40593e-05
-4.9277e-09
-0.000271744
2.95386e-05
-5.80835e-09
-0.000285287
1.35496e-05
-6.48858e-09
-0.000282332
-2.94794e-06
-6.80369e-09
-0.000263717
-1.86077e-05
-7.20315e-09
-0.000229823
-3.38862e-05
-7.27739e-09
-0.000181494
-4.83221e-05
-7.04908e-09
-0.000119703
-6.17842e-05
-6.52207e-09
-4.55004e-05
-7.41974e-05
-5.67604e-09
4.01759e-05
-8.56718e-05
-4.47877e-09
0.000136124
-9.59457e-05
-2.90306e-09
0.000241306
-0.000105181
-9.03761e-10
0.000354674
-0.000113369
1.55748e-09
0.000475191
-0.000120522
4.51737e-09
0.000601847
-0.000126663
7.98259e-09
0.000733657
-0.000131822
1.20566e-08
0.000869675
-0.000136034
1.6018e-08
0.00100899
-0.000139331
2.02855e-08
0.00115071
-0.000141749
2.35957e-08
0.00129401
-0.000143323
2.57386e-08
0.00143808
-0.000144098
2.73742e-08
0.00158218
-0.000144125
2.75091e-08
0.00172561
-0.00014346
2.69352e-08
0.00186774
-0.000142156
2.57466e-08
0.00200798
-0.000140268
2.41934e-08
0.00214581
-0.000137847
2.24575e-08
0.00228074
-0.000134949
2.06441e-08
0.00241234
-0.000131627
1.88054e-08
0.00254026
-0.000127933
1.69602e-08
0.00266416
-0.00012392
1.51135e-08
0.00278379
-0.000119639
1.32612e-08
0.00289892
-0.000115137
1.14022e-08
0.00300937
-0.000110462
9.53755e-09
0.00311502
-0.000105659
7.67395e-09
0.00321578
-0.000100768
5.82323e-09
0.00331161
-9.58302e-05
4.00013e-09
0.00340249
-9.08803e-05
2.22602e-09
0.00348844
-8.59516e-05
5.2499e-10
0.00356951
-8.10741e-05
-1.07946e-09
0.00364579
-7.62744e-05
-2.562e-09
0.00371737
-7.1576e-05
-3.89903e-09
0.00378437
-6.69993e-05
-5.07017e-09
0.00384694
-6.25615e-05
-6.05668e-09
0.00390522
-5.82763e-05
-6.84367e-09
0.00395939
-5.41539e-05
-7.42098e-09
-5.02006e-05
0.00400959
-7.78617e-09
-2.50074e-05
5.35083e-05
-7.24436e-05
0.000101462
-0.000125115
0.000112984
-0.000173147
0.000103358
-0.00021085
8.17624e-05
-0.000235219
5.39072e-05
-0.000244794
2.31253e-05
-0.000239241
-8.50136e-06
-0.000218936
-3.89128e-05
-0.000184253
-6.85691e-05
-0.000135897
-9.66784e-05
-7.46922e-05
-0.000122989
-1.4677e-06
-0.000147422
8.25187e-05
-0.000169658
0.000176564
-0.000189991
0.000279632
-0.000208249
0.000390721
-0.000224458
0.00050885
-0.000238651
0.000633057
-0.00025087
0.000762403
-0.000261169
0.000895976
-0.000269606
0.00103289
-0.000276247
0.0011723
-0.000281155
0.00131338
-0.000284401
0.00145535
-0.000286067
0.00159747
-0.00028625
0.00173907
-0.000285058
0.00187951
-0.000282596
0.00201821
-0.000278969
0.00215464
-0.000274281
0.00228833
-0.000268637
0.00241885
-0.000262144
0.00254582
-0.000254906
0.00266893
-0.000247026
0.00278789
-0.000238603
0.00290249
-0.000229736
0.00301255
-0.000220516
0.00311792
-0.000211034
0.00321852
-0.000201371
0.0033143
-0.000191606
0.00340523
-0.000181812
0.00349133
-0.000172053
0.00357265
-0.000162391
0.00364925
-0.000152879
0.00372124
-0.000143564
0.00378873
-0.000134486
0.00385185
-0.000125681
0.00391075
-0.000117176
0.00396558
-0.000108991
-0.000101137
0.00401652
-1.8868e-05
7.23764e-05
-5.31004e-05
0.000135694
-9.11162e-05
0.000151
-0.000125214
0.000137456
-0.000150823
0.000107371
-0.000165439
6.85234e-05
-0.000167576
2.52622e-05
-0.000157124
-1.89538e-05
-0.000133797
-6.22398e-05
-9.77694e-05
-0.000104596
-4.95104e-05
-0.000144937
1.03702e-05
-0.000182869
8.10988e-05
-0.000218151
0.000162126
-0.000250685
0.000252525
-0.000280389
0.00035148
-0.000307204
0.00045814
-0.000331119
0.000571644
-0.000352155
0.000691126
-0.000370352
0.000815729
-0.000385771
0.00094461
-0.000398487
0.00107694
-0.00040858
0.00121193
-0.00041614
0.00134878
-0.000421256
0.00148676
-0.000424042
0.00162514
-0.000424637
0.00176328
-0.000423189
0.00190053
-0.000419854
0.00203634
-0.000414779
0.00217018
-0.000408118
0.00230157
-0.000400024
0.00243007
-0.000390651
0.00255532
-0.000380153
0.00267698
-0.000368682
0.00279476
-0.000356387
0.00290844
-0.00034341
0.00301781
-0.000329892
0.00312274
-0.000315965
0.00322312
-0.000301752
0.00331889
-0.000287371
0.00341001
-0.00027293
0.00349648
-0.000258529
0.00357835
-0.000244258
0.00365567
-0.000230197
0.00372852
-0.000216417
0.00379702
-0.000202981
0.00386128
-0.000189941
0.00392144
-0.000177339
0.00397766
-0.000165205
-0.000153554
0.00403007
-8.11721e-06
8.04936e-05
-2.49106e-05
0.000152488
-4.27512e-05
0.000168841
-5.7554e-05
0.000152258
-6.66093e-05
0.000116427
-6.80772e-05
6.99913e-05
-6.01893e-05
1.73743e-05
-4.32888e-05
-3.58542e-05
-1.61232e-05
-8.94054e-05
2.12116e-05
-0.000141931
6.87524e-05
-0.000192478
0.000126332
-0.000240449
0.00019359
-0.000285408
0.000270021
-0.000327116
0.000355052
-0.000365421
0.000448062
-0.000400214
0.000548382
-0.000431439
0.000655305
-0.000459078
0.000768102
-0.000483149
0.000886028
-0.000503698
0.00100834
-0.000520795
0.00113428
-0.000534525
0.00126313
-0.000544984
0.00139415
-0.000552276
0.00152663
-0.000556529
0.0016599
-0.000557906
0.00179332
-0.000556603
0.00192627
-0.000552806
0.00205819
-0.000546706
0.00218857
-0.000538495
0.00231692
-0.000528371
0.0024428
-0.000516532
0.00256582
-0.000503179
0.00268565
-0.000488509
0.00280198
-0.000472718
0.00291457
-0.000455996
0.0030232
-0.000438526
0.00312772
-0.000420482
0.003228
-0.00040203
0.00332395
-0.000383327
0.00341554
-0.000364517
0.00350274
-0.000345733
0.00358558
-0.000327095
0.0036641
-0.000308713
0.00373836
-0.000290683
0.00380847
-0.000273087
0.00387452
-0.000255998
0.00393666
-0.000239471
0.003995
-0.000223548
-0.000208242
0.00404969
5.96704e-06
7.45265e-05
1.15741e-05
0.000146881
1.85117e-05
0.000161903
2.64291e-05
0.000144341
3.64487e-05
0.000106407
4.97239e-05
5.67161e-05
6.8761e-05
-1.66276e-06
9.22379e-05
-5.93311e-05
0.000122913
-0.00012008
0.000161177
-0.000180195
0.000207376
-0.000238677
0.000261675
-0.000294749
0.000324098
-0.000347831
0.000394509
-0.000397527
0.000472638
-0.00044355
0.000558116
-0.000485692
0.000650493
-0.000523815
0.000749249
-0.000557834
0.000853813
-0.000587714
0.000963577
-0.000613461
0.0010779
-0.000635119
0.00119614
-0.000652761
0.00131762
-0.000666472
0.0014417
-0.00067635
0.00156769
-0.000682524
0.00169497
-0.000685177
0.00182289
-0.000684528
0.00195088
-0.000680798
0.00207838
-0.000674206
0.00220487
-0.000664979
0.00232985
-0.000653351
0.00245288
-0.000639562
0.00257355
-0.000623855
0.00269151
-0.000606471
0.00280645
-0.00058765
0.00291807
-0.000567625
0.00302617
-0.000546624
0.00313055
-0.000524863
0.00323107
-0.000502551
0.00332763
-0.000479881
0.00342015
-0.000457036
0.0035086
-0.000434182
0.00359297
-0.000411472
0.0036733
-0.000389044
0.00374964
-0.000367018
0.00382206
-0.000345503
0.00389064
-0.000324587
0.00395552
-0.000304344
0.00401679
-0.000284825
-0.000266045
0.0040746
2.08029e-05
5.37237e-05
5.27274e-05
0.000114956
8.69542e-05
0.000127676
0.00011998
0.000111315
0.000150822
7.55649e-05
0.000180611
2.69265e-05
0.000208206
-2.9257e-05
0.000238798
-8.99234e-05
0.000272441
-0.000153723
0.000310546
-0.000218301
0.000354082
-0.000282214
0.000403728
-0.000344394
0.000459932
-0.000404035
0.000522932
-0.000460527
0.000592785
-0.000513403
0.000669402
-0.00056231
0.00075257
-0.000606983
0.000841971
-0.000647236
0.000937206
-0.000682948
0.00103781
-0.000714061
0.00114325
-0.000740567
0.001253
-0.000762501
0.00136645
-0.000779925
0.00148301
-0.000792914
0.00160206
-0.000801576
0.00172299
-0.0008061
0.00184518
-0.000806724
0.00196807
-0.000803687
0.0020911
-0.000797231
0.00221373
-0.000787609
0.00233546
-0.000775086
0.00245584
-0.00075994
0.00257444
-0.000742452
0.00269087
-0.000722903
0.0028048
-0.000701576
0.00291592
-0.000678748
0.00302398
-0.000654688
0.00312878
-0.000629657
0.00323013
-0.000603902
0.00332791
-0.000577659
0.00342202
-0.000551147
0.0035124
-0.000524568
0.00359904
-0.000498108
0.00368193
-0.000471934
0.00376111
-0.000446195
0.00383663
-0.000421022
0.00390856
-0.000396526
0.00397702
-0.000372797
0.00404209
-0.0003499
-0.000327853
0.0041039
3.80236e-05
1.57001e-05
0.000100846
5.21332e-05
0.000163495
6.50278e-05
0.000219928
5.48818e-05
0.000269194
2.62989e-05
0.000311962
-1.58408e-05
0.000348542
-6.58376e-05
0.000383248
-0.000124629
0.000417824
-0.000188299
0.000454071
-0.000254547
0.000493463
-0.000321606
0.000537154
-0.000388085
0.000586004
-0.000452885
0.000640611
-0.000515133
0.000701346
-0.000574139
0.000768391
-0.000629354
0.000841761
-0.000680353
0.000921336
-0.000726811
0.00100688
-0.000768493
0.00109806
-0.000805243
0.00119447
-0.000836979
0.00129565
-0.00086368
0.00140109
-0.000885363
0.00151024
-0.000902065
0.00162253
-0.000913866
0.00173737
-0.000920936
0.00185416
-0.000923516
0.00197234
-0.000921862
0.00209133
-0.000916225
0.0022106
-0.000906881
0.00232964
-0.000894122
0.00244795
-0.000878254
0.00256509
-0.000859595
0.00268066
-0.000838465
0.00279427
-0.000815187
0.0029056
-0.000790081
0.00301437
-0.000763458
0.00312034
-0.000735621
0.00322329
-0.000706861
0.00332309
-0.000677454
0.0034196
-0.000647656
0.00351274
-0.000617709
0.00360246
-0.000587832
0.00368875
-0.000558223
0.00377162
-0.000529062
0.0038511
-0.000500503
0.00392726
-0.000472682
0.00400017
-0.000445707
0.00406993
-0.00041966
0.00413665
-0.00039458
0.00406503
-5.54254e-05
-8.00187e-09
0.00411797
-5.29359e-05
-8.17894e-09
0.00416844
-5.04633e-05
-8.22998e-09
0.00421648
-4.80252e-05
-8.14872e-09
0.00426212
-4.56336e-05
-7.91957e-09
0.00430542
-4.32981e-05
-7.53747e-09
0.00434646
-4.10278e-05
-7.0063e-09
0.0043853
-3.88307e-05
-6.33992e-09
0.00442201
-3.67135e-05
-5.55757e-09
0.0044567
-3.46821e-05
-4.68018e-09
0.00448945
-3.27409e-05
-3.72923e-09
0.00452034
-3.08935e-05
-2.72739e-09
0.00454949
-2.9142e-05
-1.69626e-09
0.00457697
-2.74872e-05
-6.54494e-10
0.0046029
-2.59291e-05
3.81534e-10
0.00462737
-2.44661e-05
1.39521e-09
0.00465046
-2.30959e-05
2.3768e-09
0.00467227
-2.18151e-05
3.31953e-09
0.00469289
-2.06197e-05
4.21816e-09
0.00471239
-1.95046e-05
5.0713e-09
0.00473085
-1.84643e-05
5.88073e-09
0.00474833
-1.74926e-05
6.64774e-09
0.00476491
-1.65825e-05
7.37323e-09
0.00478063
-1.5727e-05
8.05834e-09
0.00479554
-1.49186e-05
8.70112e-09
0.00480968
-1.41497e-05
9.29555e-09
0.00482308
-1.34134e-05
9.83311e-09
0.00483577
-1.27035e-05
1.03027e-08
0.00484778
-1.20156e-05
1.06891e-08
0.00485911
-1.1347e-05
1.09759e-08
0.0048698
-1.06975e-05
1.11491e-08
0.00487986
-1.00694e-05
1.11954e-08
0.00488931
-9.46666e-06
1.11054e-08
0.0048982
-8.89488e-06
1.08775e-08
0.00490655
-8.35971e-06
1.05167e-08
0.0049144
-7.86591e-06
1.00331e-08
0.00492181
-7.41636e-06
9.44424e-09
0.00492881
-7.01141e-06
8.7729e-09
0.00493545
-6.64884e-06
8.04192e-09
0.00494177
-6.32416e-06
7.27419e-09
0.00494779
-6.03144e-06
6.49163e-09
0.00495355
-5.76419e-06
5.71342e-09
0.00495906
-5.51622e-06
4.9535e-09
0.00496434
-5.28233e-06
4.23087e-09
0.0049694
-5.05819e-06
3.54702e-09
0.00497424
-4.8415e-06
2.88507e-09
0.00497886
-4.6307e-06
2.27754e-09
0.00498329
-4.425e-06
1.71469e-09
0.00498751
-4.22421e-06
1.1988e-09
0.00499154
-4.02852e-06
7.27132e-10
0.00499538
-3.83817e-06
2.9884e-10
0.00499903
-3.65345e-06
-9.02734e-11
0.00500251
-3.47454e-06
-4.46893e-10
0.00500581
-3.30157e-06
-7.78683e-10
0.00500894
-3.13458e-06
-1.09523e-09
0.00501192
-2.97356e-06
-1.40721e-09