/*--------------------------------*- C++ -*----------------------------------*\
| =========                 |                                                 |
| \\      /  F ield         | OpenFOAM: The Open Source CFD Toolbox           |
|  \\    /   O peration     | Version:  2412                                  |
|   \\  /    A nd           | Website:  www.openfoam.com                      |
|    \\/     M anipulation  |                                                 |
\*---------------------------------------------------------------------------*/
FoamFile
{
    version     2.0;
    format      ascii;
    arch        "LSB;label=32;scalar=64";
    class       volVectorField;
    location    "22.5";
    object      U;
}
// * * * * * * * * * * * * * * * * * * * * * * * * * * * * * * * * * * * * * //

dimensions      [0 1 -1 0 0 0 0];

internalField   nonuniform List<vector> 
63420
(
(0.0999997 4.37292e-07 0)
(0.099995 1.3011e-06 0)
(0.0999851 2.1535e-06 0)
(0.0999708 2.99796e-06 0)
(0.0999521 3.83574e-06 0)
(0.0999293 4.66979e-06 0)
(0.0999027 5.51832e-06 0)
(0.0998721 6.42901e-06 0)
(0.0998372 7.47991e-06 0)
(0.0997974 8.75968e-06 0)
(0.0997515 1.03333e-05 0)
(0.0996984 1.22092e-05 0)
(0.0996368 1.43245e-05 0)
(0.0995664 1.6555e-05 0)
(0.0994874 1.87448e-05 0)
(0.0994005 2.07442e-05 0)
(0.0993073 2.24415e-05 0)
(0.0992095 2.37814e-05 0)
(0.0991087 2.47668e-05 0)
(0.0990067 2.5448e-05 0)
(0.0989044 2.59055e-05 0)
(0.0988027 2.62311e-05 0)
(0.0987018 2.65127e-05 0)
(0.0986018 2.68241e-05 0)
(0.0985026 2.72206e-05 0)
(0.0984036 2.77382e-05 0)
(0.0983044 2.83962e-05 0)
(0.0982047 2.92013e-05 0)
(0.0981039 3.01514e-05 0)
(0.0980017 3.12395e-05 0)
(0.0978978 3.24564e-05 0)
(0.0977918 3.37927e-05 0)
(0.0976835 3.52403e-05 0)
(0.0975727 3.67925e-05 0)
(0.0974592 3.84447e-05 0)
(0.0973429 4.01943e-05 0)
(0.0972237 4.204e-05 0)
(0.0971015 4.39821e-05 0)
(0.0969761 4.60221e-05 0)
(0.0968475 4.81622e-05 0)
(0.0967156 5.04052e-05 0)
(0.0965802 5.27547e-05 0)
(0.0964413 5.52146e-05 0)
(0.0962988 5.77889e-05 0)
(0.0961525 6.04822e-05 0)
(0.0960025 6.32993e-05 0)
(0.0958486 6.6245e-05 0)
(0.0956906 6.93246e-05 0)
(0.0955286 7.25436e-05 0)
(0.0953624 7.59081e-05 0)
(0.0951919 7.94246e-05 0)
(0.095017 8.31019e-05 0)
(0.0948377 8.6954e-05 0)
(0.0946536 9.10109e-05 0)
(0.0944648 9.5349e-05 0)
(0.0999997 1.3118e-06 0)
(0.099995 3.90273e-06 0)
(0.0999851 6.45937e-06 0)
(0.0999708 8.99221e-06 0)
(0.0999521 1.15052e-05 0)
(0.0999294 1.40071e-05 0)
(0.0999027 1.65523e-05 0)
(0.0998721 1.92832e-05 0)
(0.0998373 2.2433e-05 0)
(0.0997976 2.62664e-05 0)
(0.0997518 3.0978e-05 0)
(0.0996987 3.65937e-05 0)
(0.0996373 4.29264e-05 0)
(0.099567 4.96054e-05 0)
(0.0994881 5.61657e-05 0)
(0.0994015 6.21601e-05 0)
(0.0993084 6.72546e-05 0)
(0.0992108 7.12831e-05 0)
(0.0991102 7.42533e-05 0)
(0.0990083 7.63148e-05 0)
(0.0989061 7.77071e-05 0)
(0.0988044 7.87038e-05 0)
(0.0987036 7.95673e-05 0)
(0.0986036 8.05181e-05 0)
(0.0985044 8.1721e-05 0)
(0.0984054 8.3284e-05 0)
(0.0983063 8.52653e-05 0)
(0.0982066 8.76851e-05 0)
(0.0981059 9.05376e-05 0)
(0.0980037 9.38021e-05 0)
(0.0978998 9.74515e-05 0)
(0.0977939 0.000101458 0)
(0.0976857 0.000105797 0)
(0.097575 0.00011045 0)
(0.0974617 0.000115402 0)
(0.0973456 0.000120645 0)
(0.0972265 0.000126177 0)
(0.0971045 0.000131997 0)
(0.0969793 0.00013811 0)
(0.0968509 0.000144523 0)
(0.0967191 0.000151245 0)
(0.096584 0.000158286 0)
(0.0964453 0.000165656 0)
(0.0963031 0.00017337 0)
(0.0961571 0.00018144 0)
(0.0960074 0.00018988 0)
(0.0958538 0.000198705 0)
(0.0956962 0.000207931 0)
(0.0955345 0.000217573 0)
(0.0953687 0.000227651 0)
(0.0951986 0.000238184 0)
(0.0950242 0.000249197 0)
(0.0948452 0.000260731 0)
(0.0946617 0.000272876 0)
(0.0944734 0.000285854 0)
(0.0999997 2.18543e-06 0)
(0.099995 6.50156e-06 0)
(0.0999851 1.07607e-05 0)
(0.0999708 1.49801e-05 0)
(0.0999522 1.91665e-05 0)
(0.0999295 2.33345e-05 0)
(0.0999029 2.75743e-05 0)
(0.0998723 3.21216e-05 0)
(0.0998376 3.73631e-05 0)
(0.0997979 4.37386e-05 0)
(0.0997522 5.15718e-05 0)
(0.0996994 6.09073e-05 0)
(0.0996382 7.14366e-05 0)
(0.0995683 8.25462e-05 0)
(0.0994897 9.34649e-05 0)
(0.0994034 0.00010345 0)
(0.0993107 0.000111946 0)
(0.0992134 0.000118674 0)
(0.0991131 0.000123646 0)
(0.0990114 0.000127106 0)
(0.0989094 0.000129452 0)
(0.0988078 0.000131137 0)
(0.0987071 0.000132595 0)
(0.0986072 0.000134193 0)
(0.098508 0.000136205 0)
(0.098409 0.000138812 0)
(0.09831 0.000142111 0)
(0.0982104 0.000146137 0)
(0.0981097 0.00015088 0)
(0.0980077 0.000156308 0)
(0.0979039 0.000162375 0)
(0.0977982 0.000169036 0)
(0.0976902 0.000176251 0)
(0.0975797 0.000183987 0)
(0.0974666 0.000192222 0)
(0.0973508 0.000200941 0)
(0.0972321 0.000210141 0)
(0.0971104 0.00021982 0)
(0.0969856 0.000229987 0)
(0.0968576 0.000240653 0)
(0.0967263 0.000251831 0)
(0.0965916 0.00026354 0)
(0.0964534 0.000275797 0)
(0.0963117 0.000288623 0)
(0.0961663 0.000302041 0)
(0.0960171 0.000316074 0)
(0.0958641 0.000330746 0)
(0.0957072 0.000346082 0)
(0.0955463 0.00036211 0)
(0.0953812 0.000378859 0)
(0.095212 0.000396361 0)
(0.0950384 0.000414658 0)
(0.0948604 0.000433816 0)
(0.0946779 0.000453976 0)
(0.0944907 0.00047549 0)
(0.0999997 3.05761e-06 0)
(0.099995 9.0957e-06 0)
(0.0999852 1.50544e-05 0)
(0.0999709 2.09572e-05 0)
(0.0999523 2.68142e-05 0)
(0.0999296 3.26455e-05 0)
(0.0999031 3.85762e-05 0)
(0.0998726 4.49337e-05 0)
(0.0998379 5.22553e-05 0)
(0.0997984 6.1154e-05 0)
(0.0997529 7.20819e-05 0)
(0.0997003 8.51047e-05 0)
(0.0996395 9.97969e-05 0)
(0.0995701 0.000115307 0)
(0.099492 0.000130565 0)
(0.0994062 0.000144533 0)
(0.0993141 0.000156436 0)
(0.0992172 0.000165883 0)
(0.0991174 0.000172882 0)
(0.099016 0.000177773 0)
(0.0989142 0.000181104 0)
(0.0988129 0.000183502 0)
(0.0987123 0.000185575 0)
(0.0986125 0.000187833 0)
(0.0985133 0.00019066 0)
(0.0984145 0.000194308 0)
(0.0983155 0.000198915 0)
(0.0982159 0.000204532 0)
(0.0981154 0.000211148 0)
(0.0980136 0.000218717 0)
(0.09791 0.000227178 0)
(0.0978045 0.000236469 0)
(0.0976968 0.000246532 0)
(0.0975867 0.000257324 0)
(0.097474 0.000268813 0)
(0.0973586 0.00028098 0)
(0.0972404 0.000293817 0)
(0.0971192 0.000307325 0)
(0.0969949 0.000321513 0)
(0.0968675 0.000336397 0)
(0.0967369 0.000351996 0)
(0.0966029 0.000368334 0)
(0.0964655 0.000385437 0)
(0.0963245 0.000403333 0)
(0.0961799 0.000422052 0)
(0.0960317 0.000441627 0)
(0.0958797 0.000462091 0)
(0.0957238 0.000483479 0)
(0.0955639 0.000505828 0)
(0.0954 0.000529178 0)
(0.0952319 0.000553573 0)
(0.0950596 0.00057907 0)
(0.094883 0.000605754 0)
(0.094702 0.000633805 0)
(0.0945164 0.000663679 0)
(0.0999997 3.92781e-06 0)
(0.099995 1.16833e-05 0)
(0.0999852 1.93375e-05 0)
(0.099971 2.69195e-05 0)
(0.0999524 3.44429e-05 0)
(0.0999298 4.19336e-05 0)
(0.0999033 4.95501e-05 0)
(0.099873 5.77091e-05 0)
(0.0998384 6.70952e-05 0)
(0.0997991 7.84911e-05 0)
(0.0997539 9.24774e-05 0)
(0.0997016 0.000109143 0)
(0.0996413 0.000127953 0)
(0.0995724 0.000147824 0)
(0.099495 0.000167392 0)
(0.0994099 0.000185334 0)
(0.0993185 0.000200653 0)
(0.0992222 0.000212842 0)
(0.0991229 0.000221905 0)
(0.099022 0.000228268 0)
(0.0989206 0.000232623 0)
(0.0988195 0.000235772 0)
(0.098719 0.000238487 0)
(0.0986194 0.000241422 0)
(0.0985203 0.000245069 0)
(0.0984215 0.000249754 0)
(0.0983227 0.000255657 0)
(0.0982233 0.000262845 0)
(0.098123 0.000271307 0)
(0.0980214 0.000280988 0)
(0.0979181 0.00029181 0)
(0.097813 0.000303694 0)
(0.0977057 0.00031657 0)
(0.097596 0.00033038 0)
(0.0974838 0.000345085 0)
(0.097369 0.000360658 0)
(0.0972514 0.000377091 0)
(0.0971309 0.000394384 0)
(0.0970074 0.000412548 0)
(0.0968808 0.000431603 0)
(0.096751 0.000451573 0)
(0.0966179 0.000472488 0)
(0.0964815 0.000494379 0)
(0.0963415 0.000517284 0)
(0.0961981 0.00054124 0)
(0.096051 0.000566287 0)
(0.0959003 0.000592468 0)
(0.0957457 0.000619826 0)
(0.0955872 0.000648407 0)
(0.0954248 0.000678262 0)
(0.0952584 0.000709445 0)
(0.0950878 0.000742023 0)
(0.094913 0.000776097 0)
(0.0947339 0.000811873 0)
(0.0945504 0.00084986 0)
(0.0999997 4.79568e-06 0)
(0.0999951 1.42624e-05 0)
(0.0999853 2.36071e-05 0)
(0.0999711 3.28628e-05 0)
(0.0999526 4.20474e-05 0)
(0.0999301 5.11922e-05 0)
(0.0999037 6.04883e-05 0)
(0.0998734 7.04379e-05 0)
(0.099839 8.18689e-05 0)
(0.0997999 9.57303e-05 0)
(0.099755 0.00011273 0)
(0.0997032 0.000132985 0)
(0.0996434 0.000155854 0)
(0.0995752 0.000180037 0)
(0.0994986 0.000203882 0)
(0.0994144 0.000225783 0)
(0.0993237 0.000244527 0)
(0.0992283 0.000259488 0)
(0.0991296 0.000270658 0)
(0.0990292 0.000278542 0)
(0.0989283 0.000283973 0)
(0.0988275 0.000287915 0)
(0.0987273 0.000291306 0)
(0.0986278 0.000294938 0)
(0.0985289 0.000299412 0)
(0.0984302 0.000305128 0)
(0.0983315 0.000312311 0)
(0.0982324 0.000321045 0)
(0.0981323 0.000331321 0)
(0.098031 0.000343076 0)
(0.0979281 0.000356217 0)
(0.0978234 0.000370651 0)
(0.0977166 0.000386293 0)
(0.0976075 0.000403073 0)
(0.097496 0.000420944 0)
(0.0973819 0.000439873 0)
(0.0972651 0.000459849 0)
(0.0971454 0.000480872 0)
(0.0970229 0.000502956 0)
(0.0968972 0.000526121 0)
(0.0967685 0.000550398 0)
(0.0966366 0.000575822 0)
(0.0965013 0.00060243 0)
(0.0963627 0.000630267 0)
(0.0962207 0.000659377 0)
(0.0960751 0.000689808 0)
(0.0959258 0.00072161 0)
(0.0957729 0.000754835 0)
(0.0956162 0.000789537 0)
(0.0954557 0.000825775 0)
(0.0952912 0.000863612 0)
(0.0951227 0.000903123 0)
(0.0949502 0.000944417 0)
(0.0947736 0.000987701 0)
(0.0945927 0.00103349 0)
(0.0999997 5.66047e-06 0)
(0.0999951 1.68318e-05 0)
(0.0999853 2.78603e-05 0)
(0.0999712 3.8783e-05 0)
(0.0999528 4.96224e-05 0)
(0.0999304 6.04151e-05 0)
(0.0999041 7.13829e-05 0)
(0.099874 8.31104e-05 0)
(0.0998398 9.65636e-05 0)
(0.0998009 0.000112853 0)
(0.0997563 0.000132815 0)
(0.099705 0.000156595 0)
(0.0996459 0.000183459 0)
(0.0995785 0.000211895 0)
(0.0995028 0.000239976 0)
(0.0994195 0.000265821 0)
(0.0993298 0.000288 0)
(0.0992353 0.000305765 0)
(0.0991374 0.00031909 0)
(0.0990376 0.000328553 0)
(0.0989371 0.000335115 0)
(0.0988367 0.000339901 0)
(0.0987368 0.000344003 0)
(0.0986376 0.000348355 0)
(0.0985389 0.000353664 0)
(0.0984404 0.000360406 0)
(0.098342 0.000368848 0)
(0.098243 0.000379097 0)
(0.0981433 0.000391149 0)
(0.0980424 0.000404933 0)
(0.0979399 0.000420344 0)
(0.0978358 0.000437276 0)
(0.0977296 0.000455628 0)
(0.0976212 0.000475321 0)
(0.0975105 0.000496298 0)
(0.0973973 0.000518523 0)
(0.0972814 0.000541979 0)
(0.0971627 0.000566666 0)
(0.0970413 0.000592599 0)
(0.0969168 0.000619803 0)
(0.0967894 0.000648311 0)
(0.0966588 0.000678162 0)
(0.096525 0.000709401 0)
(0.096388 0.000742077 0)
(0.0962475 0.000776242 0)
(0.0961037 0.00081195 0)
(0.0959563 0.000849258 0)
(0.0958053 0.000888226 0)
(0.0956507 0.000928916 0)
(0.0954924 0.000971392 0)
(0.0953303 0.00101572 0)
(0.0951643 0.00106199 0)
(0.0949944 0.0011103 0)
(0.0948206 0.00116084 0)
(0.0946428 0.00121401 0)
(0.0942701 0.000100189 -4.47252e-24)
(0.0940675 0.000105301 -4.56037e-24)
(0.093855 0.000110762 -3.17297e-26)
(0.0936321 0.000116592 1.40152e-23)
(0.093398 0.000122821 -4.64234e-24)
(0.093152 0.000129483 -4.77913e-24)
(0.0928933 0.000136617 -1.47193e-23)
(0.092621 0.000144268 1.46146e-23)
(0.092334 0.000152482 5.00198e-24)
(0.0920314 0.000161316 0)
(0.091712 0.000170829 5.16924e-24)
(0.0913744 0.00018109 -5.25921e-24)
(0.0910174 0.000192174 4.32735e-23)
(0.0906392 0.000204167 -9.27507e-23)
(0.0902383 0.000217167 4.95807e-23)
(0.0898127 0.000231281 4.01913e-23)
(0.0893603 0.000246635 5.15734e-23)
(0.0888787 0.000263367 -5.90744e-24)
(0.0883655 0.000281638 6.03715e-24)
(0.0878176 0.00030163 -6.17431e-24)
(0.0872318 0.000323555 0)
(0.0866044 0.000347655 6.47329e-24)
(0.0859315 0.00037421 -6.63643e-24)
(0.0852081 0.000403548 0)
(0.0844293 0.000436052 -6.99376e-24)
(0.0835888 0.000472172 0)
(0.0826798 0.000512441 -7.39844e-24)
(0.0816945 0.000557497 -1.23991e-22)
(0.0806237 0.000608099 1.31661e-22)
(0.0794568 0.000665166 -1.32164e-22)
(0.0781815 0.000729811 1.31962e-22)
(0.0767831 0.000803389 0)
(0.0752447 0.000887559 0)
(0.0735457 0.000984353 1.61698e-22)
(0.0716618 0.00109626 -1.52141e-22)
(0.069564 0.0012263 0)
(0.0672172 0.00137808 0)
(0.0645796 0.00155581 0)
(0.0616017 0.00176411 0)
(0.0582254 0.00200759 0)
(0.0543851 0.0022899 0)
(0.0500102 0.002612 0)
(0.045032 0.00296916 0)
(0.0393964 0.00334626 0)
(0.0330885 0.00371076 -1.48911e-23)
(0.0261713 0.00400262 -5.10789e-22)
(0.0188283 0.0041221 5.10023e-22)
(0.0114354 0.00391686 5.53922e-22)
(0.00489487 0.00315299 -5.53091e-22)
(0.000997626 0.00146533 0)
(0.0942791 0.000300333 -4.52523e-24)
(0.0940767 0.000315655 -9.23148e-24)
(0.0938645 0.000332002 -4.84104e-24)
(0.0936418 0.000349453 4.50683e-24)
(0.093408 0.000368098 -4.70745e-24)
(0.0931623 0.000388042 3.37428e-23)
(0.092904 0.000409402 -5.29933e-23)
(0.092632 0.000432307 4.92304e-24)
(0.0923456 0.000456905 6.57256e-23)
(0.0920435 0.000483357 -9.0774e-23)
(0.0917247 0.000511846 -8.86726e-23)
(0.0913878 0.000542575 7.81353e-23)
(0.0910315 0.000575773 0)
(0.0906542 0.000611697 5.45864e-24)
(0.0902543 0.000650636 -1.66848e-23)
(0.0898297 0.000692919 -1.89263e-22)
(0.0893785 0.000738914 1.81673e-22)
(0.0888984 0.000789043 -1.93123e-22)
(0.0883867 0.000843784 -1.81377e-23)
(0.0878405 0.000903687 6.18785e-24)
(0.0872567 0.000969384 0)
(0.0866316 0.0010416 -6.49006e-24)
(0.0859612 0.00112118 -2.09182e-22)
(0.0852409 0.0012091 4.37161e-22)
(0.0844655 0.00130652 2.41207e-22)
(0.083629 0.00141477 -4.54899e-22)
(0.0827247 0.00153546 4.89943e-22)
(0.0817448 0.00167049 -4.97154e-22)
(0.0806804 0.00182214 -7.89002e-24)
(0.0795212 0.00199315 0)
(0.078255 0.00218685 0)
(0.0768677 0.00240728 0)
(0.0753428 0.00265939 0)
(0.0736604 0.00294922 -9.37193e-24)
(0.0717973 0.00328416 -6.35398e-22)
(0.0697254 0.00367318 -2.67342e-23)
(0.0674115 0.00412697 6.60411e-22)
(0.0648157 0.00465792 7.18858e-22)
(0.061891 0.00527961 -7.17906e-22)
(0.0585825 0.00600549 -2.38314e-23)
(0.054828 0.00684605 -2.48842e-23)
(0.0505602 0.00780356 -8.57475e-22)
(0.0457122 0.00886321 8.29239e-22)
(0.0402291 0.00997919 -2.82317e-23)
(0.0340881 0.0110539 1.49952e-23)
(0.0273326 0.0119081 -1.03867e-21)
(0.0201097 0.0122448 1.03828e-21)
(0.0127336 0.0116115 -2.16585e-21)
(0.00598436 0.00932259 2.12963e-21)
(0.00144019 0.00430132 -2.1819e-21)
(0.0942971 0.000499482 -2.67664e-23)
(0.0940951 0.000524937 -9.39703e-24)
(0.0938833 0.000552077 3.62352e-23)
(0.0936611 0.000581045 -7.45615e-23)
(0.0934279 0.000611998 1.59559e-22)
(0.0931829 0.000645108 -7.55924e-23)
(0.0929253 0.000680572 1.41795e-26)
(0.0926543 0.000718607 9.81867e-24)
(0.0923688 0.000759456 1.71246e-22)
(0.0920679 0.00080339 -1.61085e-22)
(0.0917503 0.000850712 0)
(0.0914148 0.000901762 1.45751e-26)
(0.0910601 0.00095692 0)
(0.0906846 0.00101661 1.87514e-22)
(0.0902866 0.00108133 -1.65286e-22)
(0.0898643 0.0011516 -3.56438e-22)
(0.0894156 0.00122806 1.98507e-23)
(0.0889382 0.0013114 -3.75346e-22)
(0.0884297 0.00140241 1.21365e-23)
(0.0878871 0.00150202 -4.02179e-22)
(0.0873074 0.00161127 4.14501e-22)
(0.086687 0.00173138 -4.22472e-22)
(0.0860219 0.00186374 4.35425e-22)
(0.0853077 0.00200999 1.37061e-23)
(0.0845393 0.00217203 -1.40829e-23)
(0.083711 0.00235212 1.44832e-23)
(0.0828162 0.00255289 -4.85181e-22)
(0.0818475 0.00277752 5.00118e-22)
(0.0807962 0.00302978 5.32168e-22)
(0.0796526 0.0033142 -5.15835e-22)
(0.0784052 0.00363629 0)
(0.0770405 0.00400271 0)
(0.0755431 0.00442159 1.81233e-23)
(0.0738945 0.00490286 1.24869e-21)
(0.0720734 0.0054586 2.9774e-23)
(0.0700541 0.00610339 -1.25654e-21)
(0.0678065 0.00685458 0)
(0.065295 0.0077321 -2.19441e-23)
(0.0624776 0.00875762 1.52766e-21)
(0.0593056 0.00995225 -3.04921e-21)
(0.0557236 0.0113318 3.23135e-21)
(0.0516708 0.012898 9.66623e-23)
(0.0470843 0.0146241 -1.67794e-21)
(0.0419068 0.0164323 -1.81485e-21)
(0.0360999 0.0181601 1.87036e-21)
(0.0296667 0.0195128 1.44347e-24)
(0.0226805 0.020003 -3.17734e-23)
(0.015333 0.018888 2.09288e-21)
(0.00814616 0.0150766 -2.02661e-21)
(0.00229061 0.00689105 -2.02714e-21)
(0.0943241 0.000696952 1.76347e-23)
(0.0941226 0.000732381 -8.95052e-24)
(0.0939115 0.000770145 1.94913e-26)
(0.0936901 0.000810449 9.21281e-24)
(0.0934578 0.000853512 -1.95971e-26)
(0.0932139 0.000899581 1.53115e-22)
(0.0929575 0.000948928 -2.89356e-22)
(0.0926879 0.00100186 1.55524e-22)
(0.0924039 0.00105872 -9.95914e-24)
(0.0921047 0.00111988 1.8412e-22)
(0.0917891 0.00118577 -1.63775e-22)
(0.0914559 0.00125686 -3.39995e-22)
(0.0911036 0.00133369 6.86556e-22)
(0.0907309 0.00141684 -7.002e-22)
(0.090336 0.001507 7.14504e-22)
(0.0899172 0.00160493 -7.18194e-22)
(0.0894724 0.00171148 -3.80245e-22)
(0.0889995 0.00182764 2.24954e-26)
(0.0884959 0.00195452 0)
(0.087959 0.0020934 -3.91646e-22)
(0.0873857 0.00224574 4.03939e-22)
(0.0867726 0.00241324 0)
(0.0861158 0.00259785 -8.72654e-22)
(0.0854112 0.00280185 8.58493e-22)
(0.0846538 0.0030279 1.42169e-23)
(0.0838382 0.00327912 -3.70422e-26)
(0.0829583 0.00355922 1.50275e-23)
(0.082007 0.00387258 0)
(0.0809763 0.00422444 -5.31189e-26)
(0.079857 0.00462109 0)
(0.0786386 0.00507011 -1.70599e-23)
(0.0773089 0.00558071 1.1535e-21)
(0.075854 0.00616402 -1.15319e-21)
(0.0742577 0.00683363 -1.90731e-23)
(0.072501 0.00760594 3.94727e-23)
(0.0705623 0.0085007 -1.36036e-21)
(0.0684161 0.00954112 1.31807e-21)
(0.0660328 0.0107537 2.23236e-23)
(0.0633782 0.0121667 -3.55623e-25)
(0.0604129 0.0138071 2.37959e-23)
(0.0570915 0.0156935 -1.63316e-21)
(0.0533629 0.0178244 3.30077e-21)
(0.0491701 0.0201584 -1.72029e-21)
(0.0444525 0.0225837 1.7777e-21)
(0.0391481 0.0248743 -1.86103e-21)
(0.0331992 0.0266284 -3.69581e-21)
(0.0265632 0.0271852 7.5397e-21)
(0.0192477 0.0255287 -3.81685e-21)
(0.011425 0.0201998 0)
(0.00355371 0.0091237 -3.59021e-21)
(0.0943597 0.000892092 -8.74638e-24)
(0.094159 0.000937274 -3.57384e-23)
(0.0939489 0.000985421 1.08356e-22)
(0.0937287 0.0010368 -1.46333e-22)
(0.0934978 0.0010917 6.44549e-23)
(0.0932554 0.00115044 9.455e-24)
(0.0930008 0.00121337 -9.61495e-24)
(0.0927331 0.00128088 -2.46136e-26)
(0.0924514 0.00135342 9.95722e-24)
(0.0921547 0.00143146 -2.02564e-23)
(0.0918419 0.00151555 -3.33422e-22)
(0.0915118 0.00160629 3.44106e-22)
(0.091163 0.00170437 -3.36225e-22)
(0.0907942 0.00181054 3.47078e-22)
(0.0904037 0.00192568 0)
(0.0899898 0.00205075 -2.48088e-26)
(0.0895506 0.00218686 0)
(0.0890839 0.00233526 -3.75343e-22)
(0.0885874 0.00249737 3.99732e-22)
(0.0880584 0.00267483 -1.25656e-23)
(0.0874941 0.00286952 -8.47251e-22)
(0.0868913 0.00308359 8.34745e-22)
(0.0862463 0.00331955 -1.35816e-23)
(0.0855552 0.00358031 0)
(0.0848133 0.00386926 0)
(0.0840158 0.00419038 -9.74156e-22)
(0.0831568 0.00454838 9.4456e-22)
(0.0822299 0.00494884 0)
(0.081228 0.0053984 -3.24164e-23)
(0.0801428 0.00590501 0)
(0.0789651 0.00647822 1.73592e-23)
(0.0776843 0.00712957 -1.78888e-23)
(0.0762885 0.00787298 -1.86328e-23)
(0.0747645 0.00872526 1.92015e-23)
(0.0730969 0.00970667 1.26345e-21)
(0.0712689 0.0108413 -1.30402e-21)
(0.0692613 0.0121572 2.83394e-21)
(0.0670528 0.0136859 -2.83575e-21)
(0.0646192 0.0154606 3.0087e-21)
(0.0619332 0.0175113 8.55831e-23)
(0.058963 0.0198567 -3.16956e-21)
(0.0556702 0.0224888 -2.52997e-23)
(0.0520063 0.0253492 1.25457e-24)
(0.0479067 0.028292 1.65908e-24)
(0.0432811 0.0310326 2.18739e-24)
(0.0379953 0.0330767 -5.46891e-23)
(0.0318515 0.0336221 -2.51011e-23)
(0.0245994 0.0314197 -2.38761e-23)
(0.0159548 0.0246569 0)
(0.00525299 0.0109924 7.39942e-24)
(0.0944039 0.00108428 -4.34035e-23)
(0.0942043 0.00113898 2.61088e-23)
(0.0939956 0.0011973 8.93618e-24)
(0.093777 0.00125954 1.37214e-22)
(0.0935479 0.00132607 -1.37264e-22)
(0.0933076 0.00139728 1.42065e-22)
(0.0930554 0.0014736 -3.15379e-22)
(0.0927905 0.00155552 4.49104e-22)
(0.0925118 0.00164355 -3.14598e-22)
(0.0922185 0.0017383 -3.2648e-22)
(0.0919095 0.00184042 -1.64537e-23)
(0.0915836 0.00195066 6.63183e-22)
(0.0912396 0.00206984 -6.98694e-22)
(0.090876 0.0021989 3.25913e-22)
(0.0904914 0.00233888 3.51862e-22)
(0.0900841 0.00249099 3.67974e-22)
(0.0896523 0.00265655 -2.84764e-23)
(0.089194 0.0028371 7.49959e-22)
(0.0887069 0.00303439 7.74753e-22)
(0.0881886 0.00325041 1.97098e-23)
(0.0876364 0.00348745 -8.21502e-22)
(0.0870474 0.00374814 0)
(0.0864181 0.00403554 0)
(0.085745 0.00435318 -9.16338e-22)
(0.085024 0.0047052 9.03177e-22)
(0.0842505 0.00509645 9.73179e-22)
(0.0834195 0.00553263 -9.74621e-22)
(0.0825253 0.00602049 0)
(0.0815617 0.00656806 1.08836e-21)
(0.0805218 0.00718487 -1.09045e-21)
(0.079398 0.00788237 0)
(0.0781817 0.00867423 -2.36006e-21)
(0.0768638 0.00957686 2.38192e-21)
(0.0754345 0.0106099 -1.9686e-23)
(0.073883 0.0117966 -2.6328e-21)
(0.0721985 0.0131642 2.65723e-21)
(0.0703696 0.0147438 0)
(0.068385 0.0165693 2.98129e-21)
(0.0662331 0.0186747 -2.96289e-21)
(0.0639017 0.021088 2.39982e-23)
(0.061376 0.023821 3.26686e-21)
(0.0586341 0.0268514 -6.55301e-21)
(0.0556396 0.0300956 2.00888e-23)
(0.0523273 0.0333683 3.73637e-23)
(0.0485792 0.0363285 3.39646e-21)
(0.0441823 0.0384097 3.77324e-24)
(0.0387668 0.0387176 -2.91726e-21)
(0.031753 0.0358672 2.99063e-21)
(0.0221698 0.027852 0)
(0.00763359 0.0122089 2.67317e-23)
(0.0944566 0.00127269 8.54738e-24)
(0.0942586 0.00133638 7.87636e-23)
(0.0940518 0.00140436 -7.02411e-23)
(0.0938354 0.00147699 9.01979e-24)
(0.093609 0.00155469 1.38689e-22)
(0.0933716 0.00163792 -1.38907e-22)
(0.0931227 0.00172718 -2.97714e-22)
(0.0928614 0.00182305 4.39404e-24)
(0.0925868 0.00192615 -5.59714e-24)
(0.092298 0.00203717 3.30775e-22)
(0.091994 0.00215691 -3.23217e-22)
(0.0916737 0.00228624 6.85925e-22)
(0.0913359 0.00242615 -3.41815e-22)
(0.0909793 0.00257774 1.1052e-23)
(0.0906024 0.00274226 1.1312e-23)
(0.0902039 0.00292114 7.48464e-22)
(0.0897818 0.00311596 -5.0332e-24)
(0.0893345 0.00332856 7.81437e-22)
(0.0888598 0.00356101 1.24934e-23)
(0.0883556 0.00381569 0)
(0.0878194 0.00409533 0)
(0.0872485 0.00440307 -8.77749e-22)
(0.0866401 0.00474255 8.79966e-22)
(0.0859908 0.005118 0)
(0.0852973 0.00553434 1.481e-23)
(0.0845555 0.00599735 0)
(0.0837613 0.00651381 -1.02302e-21)
(0.0829102 0.00709172 2.08287e-21)
(0.081997 0.00774058 -1.05992e-21)
(0.0810166 0.00847164 -2.24634e-21)
(0.0799632 0.00929828 -7.53157e-23)
(0.078831 0.0102364 -7.94036e-23)
(0.0776139 0.0113049 -8.33878e-23)
(0.0763062 0.012526 2.52512e-21)
(0.0749025 0.0139255 2.70857e-21)
(0.0733985 0.015533 -2.71502e-21)
(0.0717916 0.0173808 0)
(0.0700812 0.0195018 3.00248e-21)
(0.0682691 0.0219254 -3.00946e-21)
(0.0663593 0.0246692 -3.19374e-21)
(0.064355 0.0277254 3.17615e-21)
(0.0622532 0.0310397 2.59536e-23)
(0.0600328 0.0344807 3.18906e-21)
(0.0576343 0.037799 -1.04864e-22)
(0.0549254 0.0405775 -3.14993e-21)
(0.0516393 0.0421801 2.40381e-23)
(0.0472853 0.0416884 0)
(0.0410376 0.0377762 -1.91698e-23)
(0.0310881 0.028641 -9.18941e-22)
(0.0122967 0.0121454 4.20953e-22)
(-0.000220093 0.000297681 0)
(-0.000954982 0.000563843 3.19088e-22)
(-0.00204313 0.000624096 -3.19567e-22)
(-0.00313154 0.000570533 -3.18234e-22)
(-0.00404875 0.000453961 3.18712e-22)
(-0.00472308 0.000304722 -9.8042e-24)
(-0.00511745 0.000141577 0)
(-0.00521512 -2.41595e-05 0)
(-0.00501963 -0.000187958 0)
(-0.00454151 -0.000345163 0)
(-0.00379065 -0.000493293 0)
(-0.00278213 -0.000631284 0)
(-0.00153334 -0.000758659 0)
(-6.09627e-05 -0.000876172 0)
(0.00161659 -0.000981619 0)
(0.00347974 -0.00107645 9.82418e-23)
(0.00551048 -0.00116068 -9.24397e-23)
(0.0076906 -0.00123445 0)
(0.010002 -0.00129802 0)
(0.012427 -0.0013517 -7.00877e-23)
(0.0149484 -0.00139584 7.01947e-23)
(0.0175496 -0.00143081 -5.30432e-23)
(0.0202141 -0.00145694 3.37847e-24)
(0.0229263 -0.00147461 0)
(0.0256711 -0.00148428 2.62936e-24)
(0.0284344 -0.00148646 0)
(0.0312026 -0.00148174 0)
(0.0339633 -0.00147063 0)
(0.0367049 -0.00145369 1.38525e-24)
(0.0394168 -0.00143144 0)
(0.0420891 -0.00140443 -8.99271e-25)
(0.0447131 -0.00137318 6.89875e-25)
(0.047281 -0.00133823 -5.02023e-25)
(0.0497858 -0.00130009 2.32687e-24)
(0.0522215 -0.00125925 -2.1824e-24)
(0.0545831 -0.0012162 1.20153e-25)
(0.0568662 -0.0011714 -8.93818e-25)
(0.0590676 -0.00112528 8.86764e-25)
(0.0611845 -0.00107826 2.30662e-25)
(0.0632153 -0.00103072 -2.98501e-25)
(0.0651588 -0.000983017 0)
(0.0670145 -0.000935472 -3.99245e-25)
(0.0687827 -0.000888381 2.24676e-24)
(0.070464 -0.000842008 -2.27647e-24)
(0.0720596 -0.000796585 4.80964e-25)
(0.0735711 -0.000752313 -1.49685e-24)
(0.0750007 -0.000709364 5.02843e-25)
(0.0763506 -0.000667873 1.01116e-24)
(0.0776235 -0.000627945 -5.07554e-25)
(0.0788221 -0.000589647 4.9896e-25)
(-0.00028531 0.000855721 -1.21078e-21)
(-0.00106336 0.00161509 -1.3237e-21)
(-0.00205408 0.00178724 1.30479e-21)
(-0.00299016 0.00163115 -6.26056e-22)
(-0.00374212 0.00129178 6.27145e-22)
(-0.00425658 0.000856983 9.87223e-24)
(-0.00450578 0.000380796 -1.95346e-23)
(-0.00447932 -0.000103928 -6.15408e-22)
(-0.00418087 -0.000583448 5.97154e-22)
(-0.00361801 -0.00104472 -1.78473e-23)
(-0.00280034 -0.00148025 -1.7153e-23)
(-0.00174153 -0.00188694 5.08464e-22)
(-0.000458217 -0.00226376 -5.0914e-22)
(0.00103707 -0.00260834 -4.54853e-22)
(0.00272729 -0.00292111 2.84142e-23)
(0.00459213 -0.00320252 4.27613e-22)
(0.00661647 -0.00345256 -5.98066e-24)
(0.00878319 -0.00367178 -1.12307e-23)
(0.0110752 -0.0038609 0)
(0.0134758 -0.00402081 0)
(0.0159686 -0.00415253 0)
(0.0185377 -0.00425709 -3.79491e-24)
(0.0211676 -0.00433548 1.95761e-22)
(0.0238428 -0.00438878 -2.12505e-22)
(0.0265493 -0.00441835 1.5644e-22)
(0.0292731 -0.0044257 -9.04975e-23)
(0.0320013 -0.00441246 -1.27645e-22)
(0.0347216 -0.00438022 5.88373e-23)
(0.037423 -0.00433056 -1.38881e-24)
(0.040095 -0.00426507 -2.36622e-24)
(0.0427281 -0.00418534 9.01231e-25)
(0.0453137 -0.00409295 -2.15948e-24)
(0.0478442 -0.00398944 1.3233e-23)
(0.0503128 -0.00387636 -2.29103e-23)
(0.0527136 -0.00375517 8.49747e-24)
(0.0550415 -0.00362733 -2.37111e-25)
(0.0572925 -0.00349421 -5.36731e-26)
(0.0594632 -0.0033571 0)
(0.0615511 -0.00321725 4.29148e-24)
(0.0635543 -0.00307579 -3.81564e-24)
(0.0654717 -0.00293379 -5.25279e-24)
(0.067303 -0.00279222 7.09055e-24)
(0.0690481 -0.00265197 -4.34499e-25)
(0.0707079 -0.00251381 -2.37273e-24)
(0.0722835 -0.00237846 4.1844e-24)
(0.0737764 -0.0022465 4.93594e-25)
(0.0751887 -0.00211846 3.47394e-24)
(0.0765226 -0.00199473 4.84825e-25)
(0.0777806 -0.00187564 -1.0068e-24)
(0.0789656 -0.00176137 -1.49345e-24)
(-0.000399316 0.00130742 -1.2568e-21)
(-0.00124058 0.00243976 1.37803e-21)
(-0.0020254 0.00270304 -1.33688e-21)
(-0.00266092 0.00245822 -2.08054e-23)
(-0.0030929 0.00192691 -3.75973e-25)
(-0.00330088 0.00124509 -1.2678e-21)
(-0.00327363 0.000495184 1.30938e-21)
(-0.0030111 -0.000270884 1.24247e-21)
(-0.00251806 -0.00103171 -2.16182e-23)
(-0.00179653 -0.00176723 -2.30703e-21)
(-0.000854423 -0.00246452 2.25184e-21)
(0.000296739 -0.00311822 -1.07732e-21)
(0.00164632 -0.00372528 -1.60535e-23)
(0.00318278 -0.00428188 0)
(0.00489148 -0.00479031 8.91925e-22)
(0.00675793 -0.00524862 -7.20686e-23)
(0.00876806 -0.00565693 -8.08053e-22)
(0.0109071 -0.00601592 2.29423e-23)
(0.0131601 -0.00632654 0)
(0.0155122 -0.00659002 0)
(0.0179486 -0.00680783 2.66446e-22)
(0.0204549 -0.00698151 -2.58651e-22)
(0.0230167 -0.00711259 -2.06714e-22)
(0.0256203 -0.00720281 2.20091e-22)
(0.0282519 -0.00725408 5.66227e-24)
(0.0308991 -0.00726896 -4.94673e-24)
(0.0335495 -0.00724997 4.27527e-24)
(0.0361917 -0.00719968 -1.00448e-22)
(0.0388151 -0.00712065 1.04196e-22)
(0.0414099 -0.00701544 -6.55616e-23)
(0.0439672 -0.00688663 7.05442e-23)
(0.0464786 -0.00673679 1.47403e-24)
(0.0489368 -0.00656846 3.08446e-23)
(0.0513354 -0.00638415 -5.06696e-23)
(0.0536686 -0.00618631 2.09958e-23)
(0.0559317 -0.0059773 1.84349e-24)
(0.0581205 -0.00575939 -1.62285e-24)
(0.060232 -0.00553473 0)
(0.0622635 -0.00530536 -7.82291e-26)
(0.0642134 -0.00507318 0)
(0.0660805 -0.00483995 -1.10997e-23)
(0.0678644 -0.0046073 1.02829e-23)
(0.0695651 -0.00437668 -7.80994e-25)
(0.0711832 -0.0041494 -4.94423e-26)
(0.07272 -0.00392663 -7.47412e-24)
(0.0741768 -0.00370937 1.41372e-23)
(0.0755555 -0.00349848 -7.66499e-24)
(0.0768583 -0.00329464 3.84805e-24)
(0.0780877 -0.00309835 -2.90346e-24)
(0.0792462 -0.00290989 -9.8844e-25)
(-0.000531771 0.00156636 -2.71327e-21)
(-0.0013997 0.00291079 0)
(-0.00184346 0.00323793 2.81528e-21)
(-0.00204277 0.0029241 -5.62944e-21)
(-0.00202201 0.00225042 2.8354e-21)
(-0.00180445 0.00138332 1.29695e-21)
(-0.00139726 0.000423616 -1.36076e-21)
(-0.000812214 -0.000564693 1.26871e-21)
(-5.66984e-05 -0.00155466 -2.51574e-21)
(0.00087659 -0.00251653 1.22764e-21)
(0.00198398 -0.00343508 1.82948e-23)
(0.00325716 -0.00430211 3.47279e-25)
(0.00469015 -0.00511118 1.63295e-23)
(0.00627602 -0.00585892 -9.86342e-22)
(0.00800532 -0.00654355 9.56328e-22)
(0.00986777 -0.00716351 2.76355e-23)
(0.0118524 -0.00771839 -1.27066e-23)
(0.0139477 -0.00820841 7.33752e-22)
(0.0161415 -0.00863432 -7.33664e-22)
(0.0184216 -0.00899734 -1.02637e-23)
(0.0207753 -0.0092991 0)
(0.0231903 -0.00954139 3.26514e-25)
(0.0256542 -0.00972612 0)
(0.0281543 -0.00985523 6.79142e-24)
(0.0306791 -0.00993141 2.89682e-25)
(0.0332166 -0.00995762 4.99354e-24)
(0.0357561 -0.00993739 -2.67152e-22)
(0.038287 -0.0098741 2.63179e-22)
(0.0407996 -0.00977112 0)
(0.0432849 -0.0096319 -7.6663e-23)
(0.0457344 -0.00945989 7.91763e-23)
(0.0481405 -0.00925859 0)
(0.0504963 -0.00903147 -1.7509e-25)
(0.0527956 -0.00878194 -2.58586e-23)
(0.055033 -0.00851338 4.11097e-23)
(0.0572041 -0.00822902 -2.24449e-23)
(0.0593049 -0.007932 6.94709e-24)
(0.0613323 -0.0076253 6.64137e-24)
(0.063284 -0.00731174 -6.53476e-24)
(0.0651582 -0.00699398 -8.0435e-24)
(0.0669538 -0.00667445 6.92767e-24)
(0.0686703 -0.00635541 6.21012e-25)
(0.0703078 -0.0060389 1.25512e-23)
(0.0718668 -0.00572677 -2.74602e-23)
(0.0733482 -0.00542063 1.33075e-23)
(0.0747536 -0.00512189 5.57273e-26)
(0.0760845 -0.00483176 -9.37108e-25)
(0.077343 -0.00455119 -4.59735e-26)
(0.0785314 -0.00428089 9.48746e-25)
(0.0796521 -0.00402113 -1.84898e-24)
(-0.000589191 0.00155784 -1.64291e-24)
(-0.0013441 0.00295133 -2.52929e-23)
(-0.00132051 0.00330362 -2.45185e-23)
(-0.00097033 0.00295343 -2.38194e-23)
(-0.000400059 0.0022041 -4.5735e-23)
(0.000319711 0.00123389 -5.28331e-25)
(0.00116647 0.000156626 2.14735e-23)
(0.00211958 -0.000990844 -2.13184e-23)
(0.00317354 -0.00214756 -2.06347e-23)