/*--------------------------------*- C++ -*----------------------------------*\
| =========                 |                                                 |
| \\      /  F ield         | OpenFOAM: The Open Source CFD Toolbox           |
|  \\    /   O peration     | Version:  2412                                  |
|   \\  /    A nd           | Website:  www.openfoam.com                      |
|    \\/     M anipulation  |                                                 |
\*---------------------------------------------------------------------------*/
FoamFile
{
    version     2.0;
    format      ascii;
    arch        "LSB;label=32;scalar=64";
    class       volVectorField;
    location    "22.5";
    object      vorticity;
}
// * * * * * * * * * * * * * * * * * * * * * * * * * * * * * * * * * * * * * //

dimensions      [0 0 -1 0 0 0 0];

internalField   nonuniform List<vector> 
63420
(
(0 0 5.91075e-06)
(0 0 5.89015e-06)
(0 0 5.87042e-06)
(0 0 5.83686e-06)
(0 0 5.78779e-06)
(0 0 5.79216e-06)
(0 0 6.02614e-06)
(0 0 6.72346e-06)
(0 0 8.03731e-06)
(0 0 9.89044e-06)
(0 0 1.19144e-05)
(0 0 1.35285e-05)
(0 0 1.41265e-05)
(0 0 1.32835e-05)
(0 0 1.08933e-05)
(0 0 7.19045e-06)
(0 0 2.66743e-06)
(0 0 -2.06853e-06)
(0 0 -6.4416e-06)
(0 0 -1.00151e-05)
(0 0 -1.25426e-05)
(0 0 -1.39667e-05)
(0 0 -1.43803e-05)
(0 0 -1.39718e-05)
(0 0 -1.29716e-05)
(0 0 -1.16076e-05)
(0 0 -1.00773e-05)
(0 0 -8.53382e-06)
(0 0 -7.0829e-06)
(0 0 -5.78787e-06)
(0 0 -4.67799e-06)
(0 0 -3.75784e-06)
(0 0 -3.01607e-06)
(0 0 -2.43236e-06)
(0 0 -1.98273e-06)
(0 0 -1.64295e-06)
(0 0 -1.39068e-06)
(0 0 -1.20649e-06)
(0 0 -1.07419e-06)
(0 0 -9.80734e-07)
(0 0 -9.1589e-07)
(0 0 -8.71812e-07)
(0 0 -8.42584e-07)
(0 0 -8.23813e-07)
(0 0 -8.1228e-07)
(0 0 -8.05639e-07)
(0 0 -8.02127e-07)
(0 0 -8.00186e-07)
(0 0 -7.97571e-07)
(0 0 -7.88634e-07)
(0 0 -7.55409e-07)
(0 0 -6.38829e-07)
(0 0 -2.48737e-07)
(0 0 1.0088e-06)
(0 4.43794e-23 4.92694e-06)
(0 0 1.77302e-05)
(0 0 1.76671e-05)
(0 0 1.76077e-05)
(0 0 1.75079e-05)
(0 0 1.73622e-05)
(0 0 1.73757e-05)
(0 0 1.80743e-05)
(0 0 2.01564e-05)
(0 0 2.40811e-05)
(0 0 2.96207e-05)
(0 0 3.56784e-05)
(0 0 4.05222e-05)
(0 0 4.23423e-05)
(0 0 3.98668e-05)
(0 0 3.27736e-05)
(0 0 2.17575e-05)
(0 0 8.28325e-06)
(0 0 -5.8402e-06)
(0 0 -1.88952e-05)
(0 0 -2.95774e-05)
(0 0 -3.71494e-05)
(0 0 -4.14359e-05)
(0 0 -4.27104e-05)
(0 0 -4.15327e-05)
(0 0 -3.85868e-05)
(0 0 -3.45515e-05)
(0 0 -3.00153e-05)
(0 0 -2.54343e-05)
(0 0 -2.11244e-05)
(0 0 -1.72751e-05)
(0 0 -1.39743e-05)
(0 0 -1.12364e-05)
(0 0 -9.02805e-06)
(0 0 -7.28946e-06)
(0 0 -5.9495e-06)
(0 0 -4.93632e-06)
(0 0 -4.18358e-06)
(0 0 -3.63352e-06)
(0 0 -3.238e-06)
(0 0 -2.95819e-06)
(0 0 -2.76365e-06)
(0 0 -2.63099e-06)
(0 0 -2.54256e-06)
(0 0 -2.48525e-06)
(0 0 -2.44942e-06)
(0 0 -2.42807e-06)
(0 0 -2.41589e-06)
(0 0 -2.40823e-06)
(0 0 -2.39845e-06)
(0 0 -2.37011e-06)
(0 0 -2.27111e-06)
(0 0 -1.9301e-06)
(0 0 -7.94758e-07)
(0 0 2.86303e-06)
(0 4.48476e-23 1.42696e-05)
(0 0 2.95375e-05)
(0 0 2.94318e-05)
(0 0 2.93327e-05)
(0 0 2.91672e-05)
(0 0 2.89255e-05)
(0 0 2.89467e-05)
(0 0 3.01016e-05)
(0 0 3.35506e-05)
(0 0 4.00618e-05)
(0 0 4.92686e-05)
(0 0 5.93641e-05)
(0 0 6.74842e-05)
(0 0 7.06267e-05)
(0 0 6.6673e-05)
(0 0 5.5071e-05)
(0 0 3.69526e-05)
(0 0 1.4728e-05)
(0 0 -8.61599e-06)
(0 0 -3.02367e-05)
(0 0 -4.79696e-05)
(0 0 -6.05846e-05)
(0 0 -6.77806e-05)
(0 0 -6.99997e-05)
(0 0 -6.81596e-05)
(0 0 -6.3386e-05)
(0 0 -5.67982e-05)
(0 0 -4.9368e-05)
(0 0 -4.18502e-05)
(0 0 -3.47685e-05)
(0 0 -2.84377e-05)
(0 0 -2.3005e-05)
(0 0 -1.84962e-05)
(0 0 -1.48578e-05)
(0 0 -1.19922e-05)
(0 0 -9.78276e-06)
(0 0 -8.11163e-06)
(0 0 -6.8697e-06)
(0 0 -5.96193e-06)
(0 0 -5.30905e-06)
(0 0 -4.84714e-06)
(0 0 -4.52598e-06)
(0 0 -4.30701e-06)
(0 0 -4.16111e-06)
(0 0 -4.06665e-06)
(0 0 -4.00775e-06)
(0 0 -3.97281e-06)
(0 0 -3.95312e-06)
(0 0 -3.94106e-06)
(0 0 -3.92612e-06)
(0 0 -3.88265e-06)
(0 0 -3.72981e-06)
(0 0 -3.20155e-06)
(0 0 -1.43749e-06)
(0 0 4.2652e-06)
(0 2.64629e-22 2.21131e-05)
(0 0 4.13244e-05)
(0 0 4.11761e-05)
(0 0 4.10371e-05)
(0 0 4.08068e-05)
(0 0 4.04703e-05)
(0 0 4.04965e-05)
(0 0 4.20945e-05)
(0 0 4.68814e-05)
(0 0 5.59395e-05)
(0 0 6.87822e-05)
(0 0 8.29222e-05)
(0 0 9.43934e-05)
(0 0 9.90209e-05)
(0 0 9.38381e-05)
(0 0 7.80413e-05)
(0 0 5.3162e-05)
(0 0 2.25124e-05)
(0 0 -9.78163e-06)
(0 0 -3.97795e-05)
(0 0 -6.44686e-05)
(0 0 -8.21239e-05)
(0 0 -9.23053e-05)
(0 0 -9.56043e-05)
(0 0 -9.32747e-05)
(0 0 -8.68641e-05)
(0 0 -7.79158e-05)
(0 0 -6.77732e-05)
(0 0 -5.74819e-05)
(0 0 -4.77693e-05)
(0 0 -3.90749e-05)
(0 0 -3.16064e-05)
(0 0 -2.5403e-05)
(0 0 -2.03938e-05)
(0 0 -1.64463e-05)
(0 0 -1.34014e-05)
(0 0 -1.10974e-05)
(0 0 -9.38468e-06)
(0 0 -8.13257e-06)
(0 0 -7.23203e-06)
(0 0 -6.59502e-06)
(0 0 -6.15239e-06)
(0 0 -5.85095e-06)
(0 0 -5.65055e-06)
(0 0 -5.52138e-06)
(0 0 -5.44154e-06)
(0 0 -5.39501e-06)
(0 0 -5.36985e-06)
(0 0 -5.35575e-06)
(0 0 -5.33904e-06)
(0 0 -5.28735e-06)
(0 0 -5.09972e-06)
(0 0 -4.44388e-06)
(0 0 -2.23996e-06)
(0 0 4.92833e-06)
(0 -1.73724e-22 2.75138e-05)
(0 0 5.30836e-05)
(0 0 5.28918e-05)
(0 0 5.27127e-05)
(0 0 5.24186e-05)
(0 0 5.1989e-05)
(0 0 5.2017e-05)
(0 0 5.40402e-05)
(0 0 6.0126e-05)
(0 0 7.16771e-05)
(0 0 8.81121e-05)
(0 0 0.000106303)
(0 0 0.000121222)
(0 0 0.000127548)
(0 0 0.000121467)
(0 0 0.000101894)
(0 0 7.07093e-05)
(0 0 3.20703e-05)
(0 0 -8.81054e-06)
(0 0 -4.69313e-05)
(0 0 -7.84477e-05)
(0 0 -0.000101137)
(0 0 -0.000114403)
(0 0 -0.000118961)
(0 0 -0.000116372)
(0 0 -0.000108578)
(0 0 -9.7525e-05)
(0 0 -8.49119e-05)
(0 0 -7.20646e-05)
(0 0 -5.99094e-05)
(0 0 -4.90088e-05)
(0 0 -3.96324e-05)
(0 0 -3.18357e-05)
(0 0 -2.55345e-05)
(0 0 -2.0565e-05)
(0 0 -1.67294e-05)
(0 0 -1.38256e-05)
(0 0 -1.1666e-05)
(0 0 -1.00866e-05)
(0 0 -8.95049e-06)
(0 0 -8.14678e-06)
(0 0 -7.58843e-06)
(0 0 -7.20844e-06)
(0 0 -6.95621e-06)
(0 0 -6.79414e-06)
(0 0 -6.69461e-06)
(0 0 -6.63743e-06)
(0 0 -6.60758e-06)
(0 0 -6.5924e-06)
(0 0 -6.57594e-06)
(0 0 -6.52227e-06)
(0 0 -6.32138e-06)
(0 0 -5.61249e-06)
(0 0 -3.21742e-06)
(0 0 4.6327e-06)
(0 8.57602e-23 2.96437e-05)
(0 0 6.48085e-05)
(0 0 6.45707e-05)
(0 0 6.4351e-05)
(0 0 6.39947e-05)
(0 0 6.34741e-05)
(0 0 6.35e-05)
(0 0 6.59266e-05)
(0 0 7.32636e-05)
(0 0 8.72416e-05)
(0 0 0.000107214)
(0 0 0.00012946)
(0 0 0.000147943)
(0 0 0.000156224)
(0 0 0.000149642)
(0 0 0.000126797)
(0 0 8.98582e-05)
(0 0 4.37575e-05)
(0 0 -5.2693e-06)
(0 0 -5.12033e-05)
(0 0 -8.9389e-05)
(0 0 -0.000117103)
(0 0 -0.000133572)
(0 0 -0.000139603)
(0 0 -0.00013703)
(0 0 -0.00012816)
(0 0 -0.000115311)
(0 0 -0.00010052)
(0 0 -8.53797e-05)
(0 0 -7.10091e-05)
(0 0 -5.80925e-05)
(0 0 -4.69626e-05)
(0 0 -3.7695e-05)
(0 0 -3.01966e-05)
(0 0 -2.42772e-05)
(0 0 -1.97045e-05)
(0 0 -1.62401e-05)
(0 0 -1.36618e-05)
(0 0 -1.17751e-05)
(0 0 -1.0417e-05)
(0 0 -9.45581e-06)
(0 0 -8.78772e-06)
(0 0 -8.33286e-06)
(0 0 -8.0309e-06)
(0 0 -7.83693e-06)
(0 0 -7.71797e-06)
(0 0 -7.64992e-06)
(0 0 -7.61494e-06)
(0 0 -7.59835e-06)
(0 0 -7.58286e-06)
(0 0 -7.53232e-06)
(0 0 -7.33991e-06)
(0 0 -6.66027e-06)
(0 0 -4.3674e-06)
(0 0 3.18845e-06)
(0 4.23157e-22 2.77127e-05)
(0 0 7.64904e-05)
(0 0 7.62037e-05)
(0 0 7.59437e-05)
(0 0 7.5527e-05)
(0 0 7.49181e-05)
(0 0 7.49373e-05)
(0 0 7.77427e-05)
(0 0 8.62764e-05)
(0 0 0.000102604)
(0 0 0.00012605)
(0 0 0.000152353)
(0 0 0.000174522)
(0 0 0.000185043)
(0 0 0.000178406)
(0 0 0.000152857)
(0 0 0.000110788)
(0 0 5.78245e-05)
(0 0 1.15403e-06)
(0 0 -5.22384e-05)
(0 0 -9.69095e-05)
(0 0 -0.000129633)
(0 0 -0.000149434)
(0 0 -0.000157178)
(0 0 -0.000154933)
(0 0 -0.00014533)
(0 0 -0.000131035)
(0 0 -0.000114395)
(0 0 -9.72595e-05)
(0 0 -8.0931e-05)
(0 0 -6.62135e-05)
(0 0 -5.35052e-05)
(0 0 -4.29056e-05)
(0 0 -3.43174e-05)
(0 0 -2.75298e-05)
(0 0 -2.22809e-05)
(0 0 -1.83004e-05)
(0 0 -1.53354e-05)
(0 0 -1.31638e-05)
(0 0 -1.15994e-05)
(0 0 -1.04911e-05)
(0 0 -9.72002e-06)
(0 0 -9.1945e-06)
(0 0 -8.84522e-06)
(0 0 -8.62054e-06)
(0 0 -8.48254e-06)
(0 0 -8.4035e-06)
(0 0 -8.363e-06)
(0 0 -8.34471e-06)
(0 0 -8.33086e-06)
(0 0 -8.28797e-06)
(0 0 -8.12344e-06)
(0 0 -7.55057e-06)
(0 0 -5.66495e-06)
(0 0 4.3835e-07)
(0 -8.27788e-23 2.08058e-05)
(-1.7281e-23 7.93683e-21 2.97474e-06)
(-1.45188e-22 7.80388e-21 2.34807e-06)
(3.21469e-23 -1.94275e-22 1.50687e-06)
(3.81939e-23 -2.32966e-20 4.08972e-07)
(-9.08527e-23 7.95784e-21 -9.81554e-07)
(3.5654e-22 7.81619e-21 -2.6936e-06)
(-7.81528e-22 2.27886e-20 -4.751e-06)
(3.06867e-22 -2.31539e-20 -7.17509e-06)
(6.17665e-22 -7.45078e-21 -9.98683e-06)
(-8.81936e-22 -3.67224e-24 -1.32087e-05)
(-8.81104e-22 -7.46431e-21 -1.68661e-05)
(7.71684e-22 7.09207e-21 -2.09882e-05)
(5.59455e-22 -5.84106e-20 -2.56096e-05)
(-1.03389e-21 1.25385e-19 -3.07701e-05)
(3.5696e-22 -6.74443e-20 -3.65137e-05)
(-1.20795e-21 -5.08496e-20 -4.29028e-05)
(2.32542e-21 -6.47523e-20 -4.99862e-05)
(-1.82372e-21 7.6274e-21 -5.78666e-05)
(-1.85144e-22 -7.11814e-21 -6.65871e-05)
(7.05455e-23 7.12216e-21 -7.62638e-05)
(-3.09041e-24 -1.26402e-22 -8.69828e-05)
(-6.55067e-23 -6.8693e-21 -9.88625e-05)
(-1.9764e-21 6.92786e-21 -0.000112031)
(4.13228e-21 1.27022e-23 -0.000126631)
(1.20481e-21 6.72498e-21 -0.000142821)
(-3.21965e-21 -5.22493e-24 -0.000160777)
(4.63186e-21 7.80426e-21 -0.000180709)
(-5.44235e-21 1.01299e-19 -0.000202864)
(6.84886e-22 -1.08773e-19 -0.000227552)
(-2.10518e-21 9.93279e-20 -0.000255178)
(2.05098e-21 -1.00451e-19 -0.000286307)
(4.76619e-23 1.31795e-21 -0.000321767)
(-6.20021e-23 -1.61713e-21 -0.000362843)
(2.7408e-21 -9.499e-20 -0.000411613)
(-8.50962e-21 9.21799e-20 -0.000471552)
(-3.08511e-22 -1.52004e-21 -0.000548586)
(6.08937e-21 1.33181e-23 -0.000652875)
(6.61583e-21 1.44695e-23 -0.000801771)
(-6.59466e-21 -1.44232e-23 -0.00102448)
(-2.18504e-22 -4.7789e-25 -0.00136908)
(-2.27731e-22 -4.98069e-25 -0.00191235)
(-7.83263e-21 -1.71307e-23 -0.00277251)
(7.56059e-21 1.65358e-23 -0.00412364)
(-2.49477e-22 1.48362e-22 -0.00620905)
(-3.3695e-23 7.67612e-21 -0.00934776)
(-2.41809e-20 4.96576e-20 -0.0139262)
(2.3291e-20 -6.54402e-20 -0.0203624)
(-5.46009e-21 -9.27619e-21 -0.0290303)
(6.00133e-21 2.53943e-20 -0.0401378)
(-1.9942e-20 -5.56711e-21 -0.0534813)
(-2.55298e-22 7.94774e-21 8.76692e-06)
(-1.04447e-22 1.56343e-20 6.82588e-06)
(2.96026e-22 7.60363e-21 4.1865e-06)
(-8.55663e-22 -7.8168e-21 7.23394e-07)
(1.58957e-21 7.45697e-21 -3.6643e-06)
(-4.85613e-22 -5.33887e-20 -9.05673e-06)
(-2.25307e-22 8.47687e-20 -1.55208e-05)
(-5.52644e-23 -8.81874e-21 -2.31181e-05)
(2.14916e-21 -9.76118e-20 -3.1912e-05)
(-2.23971e-21 1.37798e-19 -4.19718e-05)
(-8.31025e-22 1.25919e-19 -5.33778e-05)
(6.14398e-22 -1.13267e-19 -6.6224e-05)
(-3.8582e-22 7.23171e-22 -8.062e-05)
(2.75309e-21 -7.21407e-21 -9.66926e-05)
(-2.14754e-21 2.39703e-20 -0.000114593)
(-5.90971e-21 2.3821e-19 -0.000134493)
(1.63972e-21 -2.23985e-19 -0.000156637)
(-5.53456e-21 2.40027e-19 -0.000181185)
(-2.95544e-22 1.94377e-20 -0.000208433)
(-3.77076e-21 -7.27876e-21 -0.000238626)
(3.98695e-21 1.42633e-22 -0.000272111)
(-4.0007e-21 9.02993e-21 -0.000309264)
(9.51467e-22 2.08392e-19 -0.000350495)
(5.92674e-21 -4.41172e-19 -0.000396256)
(4.49852e-21 -2.10724e-19 -0.000447056)
(-7.00604e-21 4.26609e-19 -0.000503469)
(3.71852e-21 -4.25266e-19 -0.000566164)
(-2.07828e-21 4.36328e-19 -0.000635939)
(3.22809e-21 1.46264e-21 -0.000713784)
(-3.65735e-21 -9.58437e-23 -0.000800991)
(-1.22875e-21 -2.68739e-24 -0.000899334)
(0 0 -0.0010114)
(1.81558e-22 9.42116e-23 -0.00114115)
(1.08494e-20 1.21733e-20 -0.00129497)
(-1.56955e-20 3.55711e-19 -0.00148349)
(-1.54948e-20 -2.3969e-20 -0.00172476)
(1.84876e-20 -3.50745e-19 -0.00204971)
(2.63268e-20 -3.02894e-19 -0.00251106)
(-9.45456e-21 3.23546e-19 -0.00319751)
(-3.06014e-20 2.15156e-21 -0.00425493)
(2.98464e-20 1.70307e-20 -0.00591606)
(-4.15717e-20 2.30393e-19 -0.00853884)
(2.25756e-20 -2.39641e-19 -0.0126499)
(-1.7661e-20 1.43962e-20 -0.0189843)
(1.95675e-20 7.56318e-21 -0.0285057)
(-5.87586e-20 1.11117e-19 -0.0423797)
(5.86805e-20 -1.08767e-19 -0.0618643)
(-9.00129e-20 8.11256e-20 -0.0880643)
(8.68633e-20 -9.0598e-20 -0.121534)
(-1.84189e-20 -6.20847e-22 -0.160312)
(-5.01306e-23 4.70915e-20 1.4061e-05)
(-8.69993e-23 1.48912e-20 1.05725e-05)
(3.81209e-22 -6.16875e-20 5.73275e-06)
(-8.13427e-22 1.22706e-19 -6.52836e-07)
(1.79108e-21 -2.62656e-19 -8.72603e-06)
(3.57676e-22 1.24882e-19 -1.8597e-05)
(-2.41137e-21 -8.55936e-22 -3.03631e-05)
(1.54298e-21 -1.69583e-20 -4.41227e-05)
(1.50419e-21 -2.56262e-19 -5.99846e-05)
(6.87434e-22 2.44163e-19 -7.80754e-05)
(-8.44773e-22 -1.60295e-21 -9.85443e-05)
(-4.15446e-21 -1.54848e-23 -0.000121568)
(6.58834e-21 -1.82511e-21 -0.000147352)
(-3.84723e-21 -2.49894e-19 -0.000176137)
(5.04873e-21 2.27066e-19 -0.000208201)
(-1.13967e-20 4.51199e-19 -0.000243893)
(-4.771e-21 -1.19891e-20 -0.000283592)
(-4.79293e-21 4.64204e-19 -0.000327724)
(4.07907e-22 -1.40897e-20 -0.000376705)
(-1.23931e-20 4.50714e-19 -0.000431085)
(1.23186e-20 -4.68077e-19 -0.000491492)
(-9.2454e-21 4.46929e-19 -0.000558634)
(2.54053e-21 -4.64847e-19 -0.000633283)
(5.17768e-21 -9.28922e-21 -0.0007163)
(-2.57484e-21 1.36203e-20 -0.000808655)
(5.49304e-21 -8.79108e-21 -0.000911449)
(-1.89099e-20 4.1878e-19 -0.00102596)
(1.70304e-20 -4.46303e-19 -0.00115371)
(1.85503e-20 -4.14626e-19 -0.00129656)
(-1.52639e-20 4.16502e-19 -0.00145692)
(-1.07231e-21 -5.11984e-21 -0.00163805)
(1.10954e-20 -1.20065e-22 -0.00184457)
(-1.26835e-20 -2.45432e-20 -0.00208351)
(5.3417e-20 -7.56395e-19 -0.00236599)
(1.64396e-20 5.59701e-20 -0.00271037)
(-7.01651e-20 7.12124e-19 -0.00314763)
(3.91133e-21 -1.22104e-20 -0.00373065)
(-1.13245e-20 -4.78764e-21 -0.00454942)
(1.09678e-19 -5.97134e-19 -0.00575512)
(-2.04071e-19 1.17255e-18 -0.00759605)
(2.08085e-19 -1.16462e-18 -0.0104679)
(7.02909e-20 8.42845e-20 -0.0149782)
(-1.55903e-19 5.09632e-19 -0.0220197)
(-1.63374e-19 3.51335e-19 -0.032838)
(1.54435e-19 -4.1651e-19 -0.0490659)
(-2.18956e-20 1.91965e-20 -0.0726823)
(5.40906e-20 -1.70754e-20 -0.105822)
(1.6222e-19 -1.00711e-19 -0.150315)
(-1.75627e-19 1.57296e-19 -0.206892)
(-2.50409e-20 -4.03649e-20 -0.267805)
(4.08305e-22 -3.10582e-20 1.84223e-05)
(-3.64529e-22 1.57024e-20 1.28436e-05)
(6.79325e-22 -1.691e-22 4.95118e-06)
(-6.04553e-22 -1.54488e-20 -5.45075e-06)
(-9.49886e-22 -1.42808e-21 -1.84871e-05)
(3.37171e-21 -2.4247e-19 -3.42642e-05)
(-4.79192e-21 4.59105e-19 -5.28975e-05)
(2.34902e-21 -2.4717e-19 -7.45253e-05)
(-1.81098e-21 1.49129e-20 -9.93173e-05)
(4.89353e-21 -2.70646e-19 -0.00012748)
(-5.86706e-21 2.46913e-19 -0.000159261)
(-4.2557e-21 4.71456e-19 -0.000194954)
(1.10457e-20 -9.53735e-19 -0.000234904)
(-1.32339e-20 9.52628e-19 -0.000279506)
(1.74542e-20 -9.48126e-19 -0.000329221)
(-1.16126e-20 9.39534e-19 -0.000384605)
(-1.00358e-20 4.77969e-19 -0.000446309)
(-7.03167e-22 -3.73701e-21 -0.000514987)
(4.47305e-21 3.88351e-21 -0.00059138)
(-7.80287e-21 4.40781e-19 -0.000676384)
(-1.6981e-21 -4.62881e-19 -0.000771025)
(1.46851e-20 1.26551e-20 -0.000876477)
(-3.39434e-20 8.88554e-19 -0.000994027)
(2.58449e-20 -8.91446e-19 -0.00112512)
(2.263e-21 -5.35006e-21 -0.0012714)
(-9.68189e-21 -9.04217e-23 -0.00143473)
(1.47339e-20 -1.34698e-20 -0.00161727)
(-4.78535e-21 1.22712e-22 -0.0018216)
(-5.25255e-21 -6.48026e-23 -0.00205082)
(5.00399e-21 1.94457e-22 -0.00230889)
(-3.71462e-21 1.45594e-21 -0.00260102)
(6.36828e-20 -7.86512e-19 -0.00293446)
(-5.78068e-20 8.08851e-19 -0.0033199)
(-1.59757e-20 2.2159e-22 -0.00377398)
(1.86204e-20 -1.02792e-20 -0.00432366)
(-9.93188e-20 7.21315e-19 -0.00501402)
(1.1569e-19 -7.24479e-19 -0.00592156)
(-2.25158e-20 2.18044e-21 -0.00717607)
(1.59148e-20 -9.25688e-23 -0.00899529)
(3.78357e-20 6.35016e-21 -0.0117365)
(-2.46675e-19 5.40234e-19 -0.0159688)
(3.66281e-19 -1.09488e-18 -0.0225654)
(-1.78817e-19 5.54651e-19 -0.0328096)
(2.5894e-19 -4.24072e-19 -0.0484954)
(-2.50715e-19 4.99531e-19 -0.071988)
(-5.82779e-19 5.14933e-19 -0.106184)
(1.09986e-18 -1.09103e-18 -0.154257)
(-5.38182e-19 5.50826e-19 -0.218921)
(1.8582e-20 -2.12081e-21 -0.300897)
(4.4722e-21 -3.46147e-20 -0.379162)
(-7.3182e-22 1.57827e-20 2.13014e-05)
(-3.0573e-22 6.04579e-20 1.24609e-05)
(2.04819e-21 -1.83542e-19 -9.68781e-08)
(-1.43549e-21 2.46277e-19 -1.63761e-05)
(-2.01822e-22 -1.09044e-19 -3.63962e-05)
(1.18313e-22 -1.45824e-20 -6.02361e-05)
(-4.7499e-22 1.53642e-20 -8.80401e-05)
(2.99975e-21 -1.8484e-22 -0.000120015)
(-2.84434e-21 -1.50186e-20 -0.000156431)
(-5.20897e-21 3.36534e-20 -0.000197618)
(-7.16344e-21 4.79512e-19 -0.000243975)
(1.85118e-20 -4.98357e-19 -0.000295968)
(-2.2794e-20 4.64845e-19 -0.000354143)
(1.90439e-20 -4.83527e-19 -0.000419124)
(-2.97987e-21 3.36653e-21 -0.000491628)
(1.08953e-20 4.71777e-23 -0.000572514)
(4.14173e-21 3.68424e-21 -0.000662781)
(-5.51717e-21 4.51577e-19 -0.000763478)
(2.03714e-20 -4.88637e-19 -0.000875778)
(6.27965e-21 2.67746e-20 -0.00100108)
(-4.60671e-20 9.3085e-19 -0.00114101)
(2.95378e-20 -9.33432e-19 -0.0012974)
(1.00854e-20 2.25041e-20 -0.0014723)
(-1.79037e-20 -2.31404e-22 -0.00166803)
(1.17154e-20 9.56179e-21 -0.00188725)
(-3.94524e-20 8.94057e-19 -0.00213297)
(3.26921e-20 -8.85601e-19 -0.00240871)
(2.81496e-21 9.54681e-21 -0.00271861)
(9.43407e-21 2.7124e-20 -0.00306768)
(-1.14168e-20 -5.45305e-22 -0.00346209)
(1.18662e-21 -1.29662e-20 -0.00390983)
(-3.7037e-20 1.3163e-20 -0.00442168)
(3.48047e-20 1.25364e-20 -0.00501304)
(-3.06736e-21 -2.50779e-20 -0.0057071)
(8.33759e-20 -7.3514e-19 -0.00654066)
(-7.45453e-20 7.57762e-19 -0.00757422)
(2.70685e-19 -1.45713e-18 -0.00890946)
(-2.48483e-19 1.47124e-18 -0.0107181)
(3.0715e-19 -1.37564e-18 -0.013288)
(7.07577e-20 1.31389e-19 -0.0170913)
(-3.52676e-19 1.3101e-18 -0.0228812)
(-1.19569e-19 -2.19574e-20 -0.0318156)
(1.62775e-20 3.83985e-22 -0.0456022)
(-1.81158e-20 5.5637e-22 -0.0666458)
(5.35253e-20 1.64471e-21 -0.098167)
(2.57198e-20 1.34188e-20 -0.144237)
(-1.11719e-19 5.06793e-21 -0.209572)
(6.36428e-20 4.91063e-21 -0.298578)
(-1.62986e-22 -3.05995e-22 -0.412467)
(3.5612e-20 6.29166e-22 -0.504483)
(-7.43798e-22 7.60922e-20 2.18794e-05)
(1.65231e-21 -4.63924e-20 7.21555e-06)
(-1.64175e-21 -1.63478e-20 -1.28732e-05)
(4.75489e-21 -2.27293e-19 -3.78846e-05)
(-2.39975e-21 2.29153e-19 -6.77488e-05)
(2.15611e-21 -2.26719e-19 -0.00010258)
(-1.118e-20 4.99931e-19 -0.000142626)
(1.19192e-20 -7.00038e-19 -0.000188234)
(-7.72335e-21 4.94956e-19 -0.000239844)
(-6.21068e-21 4.82492e-19 -0.000297984)
(-2.20054e-21 3.96242e-21 -0.000363276)
(2.48724e-20 -9.47687e-19 -0.000436445)
(-2.18702e-20 9.86089e-19 -0.000518325)
(5.41074e-21 -4.63854e-19 -0.000609873)
(1.23687e-20 -4.66085e-19 -0.000712174)
(2.26295e-20 -4.58529e-19 -0.000826501)
(-3.25855e-21 6.54993e-21 -0.000954349)
(3.88336e-20 -9.5081e-19 -0.00109738)
(3.03122e-20 -9.12721e-19 -0.00125737)
(6.57009e-21 2.11661e-20 -0.00143646)
(-2.74622e-20 9.47834e-19 -0.00163714)
(-1.99573e-20 -8.01086e-21 -0.00186222)
(1.21861e-20 8.87267e-21 -0.0021149)
(-5.16378e-20 9.17269e-19 -0.00239881)
(4.21733e-20 -9.3166e-19 -0.00271811)
(7.36974e-20 -8.94721e-19 -0.00307761)
(-7.4918e-20 9.24096e-19 -0.00348289)
(1.4944e-20 -1.98474e-20 -0.0039405)
(6.89835e-20 -8.91392e-19 -0.00445828)
(-9.65079e-20 9.14075e-19 -0.0050458)
(4.33748e-21 1.22375e-20 -0.00571508)
(-2.09501e-19 1.67293e-18 -0.00648185)
(1.89872e-19 -1.73553e-18 -0.00736772)
(4.80327e-20 6.15278e-20 -0.00840402)
(-2.69443e-19 1.58205e-18 -0.0096388)
(2.47401e-19 -1.64948e-18 -0.0111491)
(-3.12681e-20 -3.2482e-21 -0.0130624)
(4.72041e-19 -1.48578e-18 -0.0155922)
(-4.42097e-19 1.53433e-18 -0.0190959)
(-6.54982e-20 -7.17447e-20 -0.0241612)
(6.75774e-19 -1.295e-18 -0.0317294)
(-1.18963e-18 2.66962e-18 -0.0432565)
(-6.44796e-20 -1.54492e-19 -0.0609065)
(-8.63535e-20 -1.21315e-19 -0.0877648)
(7.64631e-19 -1.16041e-18 -0.128064)
(3.905e-20 6.22689e-20 -0.187438)
(-8.58901e-19 7.6725e-19 -0.273217)
(8.4208e-19 -8.43913e-19 -0.394216)
(8.92857e-21 2.86465e-20 -0.55676)
(9.17716e-21 -2.68687e-21 -0.668232)
(6.0769e-22 -1.5841e-20 1.90829e-05)
(1.74197e-21 -1.35173e-19 -7.50185e-06)
(-1.85525e-21 1.21895e-19 -3.93323e-05)
(-1.24993e-21 -1.71423e-20 -7.64977e-05)
(5.42344e-21 -2.25868e-19 -0.000119217)
(-5.01761e-21 2.32267e-19 -0.00016785)
(-6.07391e-21 4.6918e-19 -0.000222843)
(-5.05315e-21 -1.94088e-20 -0.000284745)
(2.17966e-21 -4.57345e-21 -0.000354198)
(1.46616e-20 -5.00247e-19 -0.000431944)
(-1.20178e-20 4.67995e-19 -0.000518834)
(1.83066e-20 -9.90022e-19 -0.000615842)
(-4.40267e-21 4.94815e-19 -0.00072408)
(-3.6064e-21 -1.85959e-20 -0.00084481)
(-4.8173e-21 -2.22335e-20 -0.000979449)
(2.9162e-20 -9.71004e-19 -0.00112959)
(-1.62405e-21 -2.01871e-20 -0.00129709)
(2.81209e-20 -9.8895e-19 -0.00148412)
(-5.34984e-21 -7.71657e-21 -0.00169302)
(-1.69127e-22 1.18383e-22 -0.00192642)
(1.13612e-20 8.3735e-21 -0.00218737)
(-5.38612e-20 9.50984e-19 -0.0024793)
(4.8171e-20 -9.71327e-19 -0.00280606)
(1.26829e-20 8.2788e-21 -0.00317196)
(-8.62445e-21 -1.48815e-20 -0.00358186)
(-6.12796e-21 9.83409e-21 -0.00404124)
(-7.54809e-20 9.17325e-19 -0.00455625)
(1.62083e-19 -1.87109e-18 -0.00513391)
(-7.70176e-20 9.75492e-19 -0.00578222)
(-1.94951e-19 1.80746e-18 -0.00651052)
(-3.04152e-20 -4.56215e-20 -0.00732993)
(2.404e-21 -2.67744e-20 -0.0082544)
(-6.57567e-20 -5.39159e-20 -0.00930241)
(2.62175e-19 -1.8049e-18 -0.0105005)
(4.01126e-19 -1.67018e-18 -0.0118899)
(-3.58744e-19 1.75271e-18 -0.013539)
(-3.36571e-20 -5.44471e-20 -0.0155656)
(4.74373e-19 -1.59543e-18 -0.0181768)
(-4.19188e-19 1.68957e-18 -0.0217341)
(-6.66829e-19 1.49978e-18 -0.0268565)
(5.67786e-19 -1.58372e-18 -0.0345728)
(7.74779e-20 -1.10766e-20 -0.0465286)
(8.62982e-19 -1.39717e-18 -0.0652481)
(1.1852e-19 1.21806e-19 -0.0944399)
(-9.95365e-19 1.36757e-18 -0.139357)
(-1.60488e-20 -3.91517e-20 -0.207286)
(3.31954e-20 5.21247e-22 -0.30888)
(-3.34091e-20 1.56179e-20 -0.46298)
(-5.05076e-19 5.28269e-19 -0.706034)
(4.96354e-19 -5.37523e-19 -0.968819)
(-1.07214e-20 -3.16315e-21 0.00986447)
(-1.07098e-20 -4.18067e-22 0.00525517)
(1.00394e-20 9.98688e-21 0.00135578)
(-6.92641e-21 2.37764e-21 -0.00190332)
(7.45078e-21 -1.18588e-20 -0.00459832)
(6.04383e-23 3.5302e-21 -0.00680731)
(-1.72872e-22 -9.76616e-23 -0.00860356)
(-5.61098e-21 1.22718e-23 -0.0100494)
(5.45472e-21 -1.193e-23 -0.0111953)
(-1.63332e-22 3.57223e-25 -0.0120849)
(-1.57271e-22 3.43968e-25 -0.0127544)
(4.67074e-21 -1.02154e-23 -0.0132331)
(-4.68574e-21 1.02482e-23 -0.0135454)
(-4.19401e-21 9.17271e-24 -0.0137123)
(3.02229e-22 -9.8176e-22 -0.0137526)
(6.21735e-21 6.52352e-21 -0.0136827)
(-2.27085e-21 -4.1637e-21 -0.013517)
(-6.88944e-23 -9.2425e-22 -0.013269)
(-2.53141e-23 6.9999e-22 -0.0129509)
(-2.35119e-21 -1.79169e-20 -0.0125737)
(2.38828e-21 1.70797e-20 -0.0121466)
(-1.69029e-21 -2.17526e-20 -0.0116783)
(1.52001e-21 1.10204e-21 -0.0111763)
(-1.99732e-21 1.18954e-23 -0.0106487)
(1.31796e-21 2.07037e-21 -0.0101043)
(-4.88169e-22 2.81632e-23 -0.00955011)
(-1.20651e-21 2.63876e-24 -0.00899103)
(5.57576e-22 -1.50533e-23 -0.00843194)
(2.05557e-22 2.96781e-21 -0.00787741)
(-2.30569e-23 2.2884e-23 -0.00733141)
(-2.07672e-22 -3.41674e-21 -0.00679743)
(1.93346e-22 3.62286e-21 -0.00627846)
(-8.36203e-23 -3.85679e-21 -0.00577704)
(8.33824e-22 3.70795e-20 -0.00529528)
(-9.69575e-22 -3.73141e-20 -0.00483487)
(-5.81023e-22 -3.17795e-20 -0.00439714)
(1.32545e-21 6.93979e-20 -0.00398305)
(-7.40835e-22 -3.78476e-20 -0.00359324)
(-1.36581e-22 -5.00583e-21 -0.00322805)
(1.34187e-22 5.19587e-21 -0.00288754)
(-5.10375e-23 1.1135e-24 -0.00257154)
(2.26546e-22 5.50352e-21 -0.00227967)
(-4.22383e-22 -2.86285e-20 -0.00201134)
(3.88131e-22 2.88642e-20 -0.0017658)
(-9.51423e-23 -5.98462e-21 -0.00154216)
(2.55436e-22 1.8444e-20 -0.0013394)
(3.52246e-23 -6.13618e-21 -0.00115638)
(-1.6019e-22 -1.27775e-20 -0.000991805)
(3.91541e-23 6.43574e-21 -0.000844185)
(-1.18079e-22 -6.60915e-21 -0.000711762)
(-1.54325e-20 2.53771e-20 0.0285768)
(3.11574e-20 -9.67945e-21 0.0148633)
(-2.51932e-20 -2.22308e-20 0.00317025)
(8.55064e-21 2.28889e-20 -0.00652391)
(-8.94101e-21 -2.24013e-20 -0.0144826)
(-1.26838e-20 6.15463e-21 -0.0209674)
(1.12829e-20 6.78321e-21 -0.0262144)
(1.07782e-20 1.58337e-20 -0.0304193)
(2.28453e-21 -2.74491e-20 -0.0337385)
(-2.25595e-20 6.63662e-21 -0.036302)
(2.13975e-20 -5.04881e-21 -0.0382185)
(-4.17203e-22 -5.38821e-22 -0.0395753)
(-1.17097e-20 1.51008e-20 -0.0404445)
(-1.30966e-20 -1.47912e-20 -0.0408889)
(7.96137e-21 -1.77499e-20 -0.0409629)
(1.37067e-20 1.87395e-20 -0.0407144)
(-7.44693e-21 3.93085e-21 -0.0401867)
(-5.40385e-22 -1.61321e-21 -0.0394191)
(1.25764e-23 -1.12061e-22 -0.0384474)
(6.5261e-22 -1.42732e-24 -0.0373041)
(1.86314e-21 2.89691e-23 -0.0360171)
(-1.98874e-21 -3.37384e-21 -0.0346107)
(1.88375e-20 1.1142e-19 -0.0331071)
(-2.10858e-20 -1.18249e-19 -0.0315325)
(2.24711e-20 1.39198e-19 -0.0299068)
(-1.16026e-20 -6.15734e-20 -0.0282543)
(-2.24075e-20 -1.65447e-19 -0.0265897)
(1.04209e-20 8.43667e-20 -0.024927)
(7.04783e-22 -2.37148e-21 -0.0232794)
(-1.53635e-21 -6.58129e-21 -0.0216584)
(9.12354e-22 3.41493e-21 -0.0200742)
(-1.08113e-21 -1.11751e-20 -0.0185354)
(9.83466e-21 1.23326e-19 -0.0170494)
(-2.08274e-20 -2.64996e-19 -0.0156224)
(9.55029e-21 1.2929e-19 -0.0142593)
(-9.67325e-22 -1.34058e-20 -0.0129639)
(1.83297e-22 4.65103e-21 -0.0117389)
(-6.65848e-24 -4.32771e-23 -0.0105862)
(-4.64588e-21 -8.69644e-20 -0.00950664)
(3.95787e-21 7.69427e-20 -0.00850046)
(3.01876e-21 7.63214e-20 -0.00756704)
(-4.42552e-21 -1.0409e-19 -0.00670517)
(1.13762e-22 5.77511e-21 -0.00591307)
(9.49839e-22 2.96414e-20 -0.0051885)
(-2.08698e-21 -5.33762e-20 -0.00452878)
(2.92028e-23 -6.10026e-21 -0.00393087)
(-1.34754e-21 -4.39517e-20 -0.00339134)
(-2.61317e-22 -6.78846e-21 -0.00290633)
(3.18266e-22 1.26782e-20 -0.00247128)
(3.87188e-22 1.96687e-20 -0.00208066)
(-1.40058e-20 -1.08188e-21 0.0442124)
(-1.4464e-20 -1.57889e-20 0.0215825)
(3.66389e-20 2.98651e-20 0.00212975)
(-4.39257e-20 -1.25718e-20 -0.0137097)
(1.81e-20 1.21216e-20 -0.0265146)
(2.44821e-20 1.96011e-20 -0.0368214)
(-1.56807e-20 -5.85822e-20 -0.0450772)
(2.0807e-20 -1.53325e-20 -0.0516343)
(-3.03217e-20 4.13303e-20 -0.0567654)
(-1.75908e-20 1.21458e-20 -0.0606859)
(5.27235e-20 -2.87436e-20 -0.0635747)
(-3.73266e-20 2.56536e-20 -0.0655745)
(6.58314e-21 -1.12283e-20 -0.0668022)
(-3.32572e-21 -8.97834e-21 -0.0673574)
(6.0573e-20 6.09677e-20 -0.067327)
(-3.72321e-21 3.53143e-20 -0.0667885)
(-5.42733e-20 -7.84885e-20 -0.0658111)
(1.06454e-20 -4.50607e-21 -0.0644571)
(-7.12164e-21 2.66001e-22 -0.0627836)
(3.69676e-22 -2.64358e-21 -0.0608422)
(3.48548e-20 1.00995e-19 -0.0586778)
(-3.47709e-20 -9.03521e-20 -0.0563298)
(-3.69047e-20 -1.26166e-19 -0.0538354)
(4.01452e-20 1.26987e-19 -0.0512291)
(-4.42567e-22 6.98637e-21 -0.0485515)
(-4.83099e-22 -5.15923e-21 -0.0458321)
(-1.21513e-22 6.55101e-21 -0.0431002)
(-3.35054e-20 -1.88929e-19 -0.0403771)
(3.71246e-20 1.93845e-19 -0.0376832)
(-3.45353e-20 -2.07517e-19 -0.0350366)
(3.69187e-20 2.20933e-19 -0.0324532)
(8.543e-22 7.84965e-21 -0.0299469)
(3.31098e-20 2.6123e-19 -0.0275291)
(-6.53035e-20 -5.26275e-19 -0.0252094)
(3.39741e-20 2.82091e-19 -0.0229955)
(1.5876e-20 1.58249e-19 -0.0208933)
(-1.41618e-20 -1.39539e-19 -0.018907)
(6.63553e-23 -1.56857e-23 -0.0170393)
(-4.41484e-22 -1.41653e-22 -0.0152915)
(-4.8595e-23 1.09585e-22 -0.0136635)
(1.22364e-20 1.75849e-19 -0.0121543)
(-1.18834e-20 -1.65284e-19 -0.0107617)
(9.81129e-22 1.16233e-20 -0.00948274)
(-5.15023e-22 -2.78934e-23 -0.00831357)
(4.88836e-21 9.68211e-20 -0.00724977)
(-9.09324e-21 -1.83911e-19 -0.00628628)
(4.5036e-21 9.9209e-20 -0.00541745)
(-2.33617e-21 -5.14992e-20 -0.00463682)
(1.75657e-21 3.83785e-20 -0.00393664)
(4.19373e-22 1.29192e-20 -0.00330681)
(1.95511e-21 2.67293e-20 0.0538599)
(8.6413e-21 -5.44923e-20 0.0227003)
(-7.36372e-20 1.56173e-20 -0.00426036)
(1.19351e-19 8.2047e-20 -0.0255762)
(-2.98233e-20 -1.11021e-19 -0.0423915)
(-1.27611e-20 2.52997e-20 -0.0556712)
(-2.5203e-21 1.6942e-20 -0.0661455)
(-5.38246e-21 6.95612e-21 -0.0743462)
(-3.16485e-20 8.59726e-22 -0.0806708)
(7.56414e-20 -2.10089e-20 -0.0854166)
(-2.62591e-20 1.28571e-20 -0.0888236)
(-1.3328e-20 6.52239e-22 -0.0910806)
(1.9118e-20 1.01242e-20 -0.0923421)
(-8.36826e-20 -8.47035e-20 -0.0927389)
(6.72634e-20 6.31848e-20 -0.092385)
(-9.60685e-21 1.28944e-20 -0.0913808)
(8.71454e-21 -8.68513e-21 -0.0898162)
(8.55753e-20 1.64314e-19 -0.0877724)
(-8.96056e-20 -1.49377e-19 -0.0853234)
(3.36953e-22 -1.05364e-20 -0.0825361)
(-2.53678e-21 -9.06415e-23 -0.0794709)
(2.71453e-21 4.89628e-22 -0.0761773)
(2.00624e-21 -7.44599e-23 -0.072706)
(-4.61929e-21 4.88707e-21 -0.0691006)
(4.53461e-21 4.39186e-22 -0.0654104)
(9.24058e-22 7.87204e-21 -0.0616775)
(-1.04467e-19 -3.95263e-19 -0.05794)
(1.05425e-19 3.84981e-19 -0.0542244)
(-3.66197e-21 3.36759e-21 -0.0505571)
(-4.67651e-20 -2.33444e-19 -0.0469615)
(5.11467e-20 2.40015e-19 -0.0434581)
(-6.65888e-22 7.85369e-22 -0.0400647)
(-1.66735e-22 -3.42098e-23 -0.036796)
(-4.60437e-20 -2.91687e-19 -0.0336644)
(9.06689e-20 5.86445e-19 -0.0306794)
(-8.64161e-20 -6.00026e-19 -0.0278485)
(8.36408e-20 6.2263e-19 -0.0251767)
(-8.00808e-20 -6.4415e-19 -0.0226673)
(3.90016e-20 3.27475e-19 -0.0203214)
(1.79027e-20 1.73558e-19 -0.0181386)
(-1.5666e-20 -1.51821e-19 -0.0161172)
(-1.28612e-21 -1.1434e-20 -0.0142539)
(-1.52316e-20 -1.86765e-19 -0.0125444)
(3.20683e-20 4.02209e-19 -0.0109832)
(-1.48512e-20 -1.91748e-19 -0.00956412)
(1.57803e-22 2.48142e-22 -0.00828024)
(6.26844e-22 1.25021e-20 -0.00712368)
(-1.37377e-22 -1.09509e-22 -0.00608547)
(-6.15066e-22 -1.29054e-20 -0.00515445)
(1.33362e-21 2.63198e-20 -0.00431492)
(2.72458e-20 9.65471e-23 0.053601)
(3.39161e-22 4.01053e-22 0.0143433)
(-6.15185e-20 4.49523e-22 -0.0193212)
(9.10071e-20 -2.91481e-22 -0.0447488)
(-2.72283e-20 3.11024e-26 -0.0641017)
(-4.36006e-20 -8.44238e-22 -0.078978)
(1.42143e-20 1.05287e-22 -0.0904667)
(-1.15198e-20 -1.94868e-22 -0.0992749)
(9.32509e-20 -2.55319e-20 -0.105905)
(3.95748e-20 1.07424e-19 -0.110731)
(1.14343e-21 7.4265e-20 -0.114029)
(-7.03919e-20 -1.59091e-19 -0.11602)
(1.20955e-19 1.96722e-19 -0.116882)
(-1.39545e-19 -1.87933e-19 -0.116766)
(6.47682e-20 1.26537e-19 -0.115803)
(-7.63046e-20 -1.33067e-19 -0.114107)
(5.25557e-21 -6.50739e-21 -0.111781)
(-2.58773e-20 -2.27064e-21 -0.108919)
(2.24665e-20 -4.03442e-21 -0.105605)