/*--------------------------------*- C++ -*----------------------------------*\
| =========                 |                                                 |
| \\      /  F ield         | OpenFOAM: The Open Source CFD Toolbox           |
|  \\    /   O peration     | Version:  2412                                  |
|   \\  /    A nd           | Website:  www.openfoam.com                      |
|    \\/     M anipulation  |                                                 |
\*---------------------------------------------------------------------------*/
FoamFile
{
    version     2.0;
    format      ascii;
    arch        "LSB;label=32;scalar=64";
    class       volVectorField;
    location    "29.5";
    object      vorticity;
}
// * * * * * * * * * * * * * * * * * * * * * * * * * * * * * * * * * * * * * //

dimensions      [0 0 -1 0 0 0 0];

internalField   nonuniform List<vector> 
5285
(
(0 -0 5.1948e-05)
(0 -0 4.83286e-05)
(0 -0 4.5343e-05)
(0 -0 4.2934e-05)
(0 -0 4.09815e-05)
(0 -0 3.94136e-05)
(0 -0 3.81325e-05)
(0 -0 3.70756e-05)
(0 -0 3.61914e-05)
(0 -0 3.54384e-05)
(0 -0 3.47859e-05)
(0 -0 3.42186e-05)
(0 -0 3.3756e-05)
(0 -0 3.34949e-05)
(0 -0 3.35839e-05)
(0 -0 3.38056e-05)
(0 -0 4.70168e-05)
(0 -0 4.35564e-05)
(0 -0 4.0702e-05)
(0 -0 3.83528e-05)
(0 -0 3.64773e-05)
(0 -0 3.49699e-05)
(0 -0 3.37362e-05)
(0 -0 3.2717e-05)
(0 -0 3.18631e-05)
(0 -0 3.11354e-05)
(0 -0 3.05046e-05)
(0 -0 2.99572e-05)
(0 -0 2.95135e-05)
(0 -0 2.92721e-05)
(0 -0 2.93691e-05)
(0 -0 2.96193e-05)
(0 -0 4.22201e-05)
(0 -0 3.89117e-05)
(0 -0 3.61596e-05)
(0 -0 3.39034e-05)
(0 -0 3.21037e-05)
(0 -0 3.06573e-05)
(0 -0 2.94727e-05)
(0 -0 2.84933e-05)
(0 -0 2.76725e-05)
(0 -0 2.69728e-05)
(0 -0 2.63668e-05)
(0 -0 2.58421e-05)
(0 -0 2.54204e-05)
(0 -0 2.52008e-05)
(0 -0 2.53228e-05)
(0 -0 2.55872e-05)
(0 -0 3.75846e-05)
(0 -0 3.44292e-05)
(0 -0 3.17952e-05)
(0 -0 2.9634e-05)
(0 -0 2.79111e-05)
(0 -0 2.65271e-05)
(0 -0 2.53933e-05)
(0 -0 2.44559e-05)
(0 -0 2.36703e-05)
(0 -0 2.30012e-05)
(0 -0 2.24226e-05)
(0 -0 2.19233e-05)
(0 -0 2.15263e-05)
(0 -0 2.13316e-05)
(0 -0 2.14792e-05)
(0 -0 2.17716e-05)
(0 -0 3.31749e-05)
(0 -0 3.01712e-05)
(0 -0 2.76583e-05)
(0 -0 2.55942e-05)
(0 -0 2.39499e-05)
(0 -0 2.26296e-05)
(0 -0 2.15483e-05)
(0 -0 2.06545e-05)
(0 -0 1.99062e-05)
(0 -0 1.92697e-05)
(0 -0 1.87205e-05)
(0 -0 1.82487e-05)
(0 -0 1.78784e-05)
(0 -0 1.77106e-05)
(0 -0 1.78858e-05)
(0 -0 1.82062e-05)
(0 -0 2.90388e-05)
(0 -0 2.61843e-05)
(0 -0 2.37919e-05)
(0 -0 2.18255e-05)
(0 -0 2.02603e-05)
(0 -0 1.90047e-05)
(0 -0 1.79769e-05)
(0 -0 1.71281e-05)
(0 -0 1.64184e-05)
(0 -0 1.58158e-05)
(0 -0 1.52974e-05)
(0 -0 1.48546e-05)
(0 -0 1.45124e-05)
(0 -0 1.43727e-05)
(0 -0 1.45762e-05)
(0 -0 1.49247e-05)
(0 -0 2.52099e-05)
(0 -0 2.25004e-05)
(0 -0 2.02263e-05)
(0 -0 1.83561e-05)
(0 -0 1.68696e-05)
(0 -0 1.56788e-05)
(0 -0 1.47047e-05)
(0 -0 1.39015e-05)
(0 -0 1.3231e-05)
(0 -0 1.26633e-05)
(0 -0 1.21766e-05)
(0 -0 1.17636e-05)
(0 -0 1.14502e-05)
(0 -0 1.1339e-05)
(0 -0 1.15709e-05)
(0 -0 1.19471e-05)
(0 -0 2.17086e-05)
(0 -0 1.91391e-05)
(0 -0 1.69796e-05)
(0 -0 1.52035e-05)
(0 -0 1.37942e-05)
(0 -0 1.26671e-05)
(0 -0 1.17464e-05)
(0 -0 1.09885e-05)
(0 -0 1.03574e-05)
(0 -0 9.8246e-06)
(0 -0 9.36985e-06)
(0 -0 8.98676e-06)
(0 -0 8.70226e-06)
(0 -0 8.61954e-06)
(0 -0 8.87926e-06)
(0 -0 9.28235e-06)
(0 -0 1.85445e-05)
(0 -0 1.61092e-05)
(0 -0 1.40601e-05)
(0 -0 1.23747e-05)
(0 -0 1.10402e-05)
(0 -0 9.97526e-06)
(0 -0 9.10677e-06)
(0 -0 8.3934e-06)
(0 -0 7.80104e-06)
(0 -0 7.30267e-06)
(0 -0 6.87936e-06)
(0 -0 6.52577e-06)
(0 -0 6.26963e-06)
(0 -0 6.21462e-06)
(0 -0 6.5011e-06)
(0 -0 6.92962e-06)
(0 -0 1.57175e-05)
(0 -0 1.341e-05)
(0 -0 1.14662e-05)
(0 -0 9.86785e-06)
(0 -0 8.60516e-06)
(0 -0 7.59991e-06)
(0 -0 6.78174e-06)
(0 -0 6.11139e-06)
(0 -0 5.55651e-06)
(0 -0 5.09149e-06)
(0 -0 4.69861e-06)
(0 -0 4.37348e-06)
(0 -0 4.14462e-06)
(0 -0 4.11607e-06)
(0 -0 4.42771e-06)
(0 -0 4.8798e-06)
(0 -0 1.32188e-05)
(0 -0 1.10321e-05)
(0 -0 9.18828e-06)
(0 -0 7.67253e-06)
(0 -0 6.47809e-06)
(0 -0 5.52968e-06)
(0 -0 4.75943e-06)
(0 -0 4.13006e-06)
(0 -0 3.61085e-06)
(0 -0 3.17757e-06)
(0 -0 2.81358e-06)
(0 -0 2.51538e-06)
(0 -0 2.31224e-06)
(0 -0 2.30846e-06)
(0 -0 2.64335e-06)
(0 -0 3.11699e-06)
(0 -0 1.10324e-05)
(0 -0 8.95951e-06)
(0 -0 7.20974e-06)
(0 -0 5.77182e-06)
(0 -0 4.64167e-06)
(0 -0 3.74675e-06)
(0 -0 3.02159e-06)
(0 -0 2.43073e-06)
(0 -0 1.945e-06)
(0 -0 1.54141e-06)
(0 -0 1.20435e-06)
(0 -0 9.31189e-07)
(0 -0 7.5183e-07)
(0 -0 7.7085e-07)
(0 -0 1.12692e-06)
(0 -0 1.62018e-06)
(0 -0 9.13711e-06)
(0 -0 7.17051e-06)
(0 -0 5.50875e-06)
(0 -0 4.14363e-06)
(0 -0 3.07352e-06)
(0 -0 2.22848e-06)
(0 -0 1.54527e-06)
(0 -0 9.90169e-07)
(0 -0 5.35415e-07)
(0 -0 1.59178e-07)
(0 -0 -1.53192e-07)
(0 -0 -4.03506e-07)
(0 -0 -5.61224e-07)
(0 -0 -5.21451e-07)
(0 -0 -1.45952e-07)
(0 -0 3.65676e-07)
(0 -0 7.50767e-06)
(0 -0 5.63982e-06)
(0 -0 4.05986e-06)
(0 -0 2.76239e-06)
(0 -0 1.74796e-06)
(0 -0 9.49037e-07)
(0 -0 3.04525e-07)
(0 -0 -2.17719e-07)
(0 -0 -6.44145e-07)
(0 -0 -9.95513e-07)
(0 -0 -1.28558e-06)
(0 -0 -1.5154e-06)
(0 -0 -1.65367e-06)
(0 -0 -1.59495e-06)
(0 -0 -1.20078e-06)
(0 -0 -6.69908e-07)
(0 -0 6.11659e-06)
(0 -0 4.33996e-06)
(0 -0 2.83564e-06)
(0 -0 1.60073e-06)
(0 -0 6.37672e-07)
(0 -0 -1.18804e-07)
(0 -0 -7.27836e-07)
(0 -0 -1.22009e-06)
(0 -0 -1.62084e-06)
(0 -0 -1.94985e-06)
(0 -0 -2.22004e-06)
(0 -0 -2.43169e-06)
(0 -0 -2.55268e-06)
(0 -0 -2.47636e-06)
(0 -0 -2.06192e-06)
(0 -0 -1.50491e-06)
(0 -0 4.9354e-06)
(0 -0 3.24263e-06)
(0 -0 1.80808e-06)
(0 -0 6.30997e-07)
(0 -0 -2.84657e-07)
(0 -0 -1.00211e-06)
(0 -0 -1.57867e-06)
(0 -0 -2.04366e-06)
(0 -0 -2.42126e-06)
(0 -0 -2.73029e-06)
(0 -0 -2.98291e-06)
(0 -0 -3.17868e-06)
(0 -0 -3.2845e-06)
(0 -0 -3.19138e-06)
(0 -0 -2.75044e-06)
(0 -0 -2.14351e-06)
(0 -0 3.9356e-06)
(0 -0 2.31949e-06)
(0 -0 9.49619e-07)
(0 -0 -1.73619e-07)
(0 -0 -1.04528e-06)
(0 -0 -1.72673e-06)
(0 -0 -2.2735e-06)
(0 -0 -2.71371e-06)
(0 -0 -3.07045e-06)
(0 -0 -3.36168e-06)
(0 -0 -3.59886e-06)
(0 -0 -3.78095e-06)
(0 -0 -3.87399e-06)
(0 -0 -3.76524e-06)
(0 -0 -3.28317e-06)
(0 -0 -2.61921e-06)
(0 -0 3.1289e-06)
(0 -0 1.58079e-06)
(0 -0 2.7343e-07)
(0 -0 -7.97348e-07)
(0 -0 -1.6264e-06)
(0 -0 -2.27303e-06)
(0 -0 -2.791e-06)
(0 -0 -3.20718e-06)
(0 -0 -3.54362e-06)
(0 -0 -3.81746e-06)
(0 -0 -4.03956e-06)
(0 -0 -4.20857e-06)
(0 -0 -4.2905e-06)
(0 -0 -4.169e-06)
(0 -0 -3.68042e-06)
(0 -0 -2.95012e-06)
(0 -0 2.61589e-06)
(0 -0 1.15692e-06)
(0 -0 -9.64739e-08)
(0 -0 -1.10874e-06)
(0 -0 -1.89156e-06)
(0 -0 -2.49969e-06)
(0 -0 -2.98478e-06)
(0 -0 -3.37245e-06)
(0 -0 -3.68383e-06)
(0 -0 -3.93532e-06)
(0 -0 -4.13723e-06)
(0 -0 -4.28833e-06)
(0 -0 -4.35667e-06)
(0 -0 -4.23499e-06)
(0 -0 -3.78118e-06)
(0 -0 -3.11253e-06)
(0 -0 2.51593e-06)
(0 -0 1.1242e-06)
(0 -0 -3.2223e-08)
(0 -0 -9.93031e-07)
(0 -0 -1.72214e-06)
(0 -0 -2.28557e-06)
(0 -0 -2.73068e-06)
(0 -0 -3.08215e-06)
(0 -0 -3.36034e-06)
(0 -0 -3.58112e-06)
(0 -0 -3.75444e-06)
(0 -0 -3.87931e-06)
(0 -0 -3.92709e-06)
(0 -0 -3.80954e-06)
(0 -0 -3.4044e-06)
(0 -0 -2.92058e-06)
(0 -0 -0.000476016)
(0 -0 -0.000474049)
(0 -0 -0.000472154)
(0 -0 -0.000470375)
(0 -0 -0.00046873)
(0 -0 -0.000467083)
(0 -0 -0.000465166)
(0 -0 -0.000463111)
(0 -0 -0.000462537)
(0 -0 -0.000467711)
(0 -0 -0.000485858)
(0 -0 -0.000525919)
(0 -0 -0.000595737)
(0 -0 -0.000698582)
(0 -0 -0.000830369)
(0 -0 -0.000978787)
(0 -0 -0.00112483)
(0 -0 -0.00124628)
(0 -0 -0.00132219)
(0 -0 -0.00133696)
(0 -0 -0.0012831)
(0 -0 -0.00116211)
(0 -0 -0.000983637)
(0 -0 -0.000763219)
(0 -0 -0.000519479)
(0 -0 -0.000271283)
(0 -0 -3.54238e-05)
(0 -0 0.00017493)
(0 -0 0.000350952)
(0 -0 0.000488162)
(0 -0 0.000585902)
(0 -0 0.000646514)
(0 -0 0.000674398)
(0 -0 0.000675117)
(0 -0 0.00065464)
(0 -0 0.000618762)
(0 -0 0.000572714)
(0 -0 0.000520941)
(0 -0 0.000467013)
(0 -0 0.000413644)
(0 -0 0.000362763)
(0 -0 0.000315633)
(0 -0 0.000272976)
(0 -0 0.000235095)
(0 -0 0.000201986)
(0 -0 0.00017344)
(0 -0 0.000149111)
(0 -0 0.000128584)
(0 -0 0.000111414)
(0 -0 9.71605e-05)
(0 -0 8.54039e-05)
(0 -0 7.57605e-05)
(0 -0 6.78846e-05)
(0 -0 6.14798e-05)
(0 -0 5.62402e-05)
(0 -0 -0.000473891)
(0 -0 -0.000471926)
(0 -0 -0.000470034)
(0 -0 -0.000468255)
(0 -0 -0.00046661)
(0 -0 -0.000464965)
(0 -0 -0.000463063)
(0 -0 -0.000461027)
(0 -0 -0.000460423)
(0 -0 -0.000465388)
(0 -0 -0.000482948)
(0 -0 -0.000521829)
(0 -0 -0.000589738)
(0 -0 -0.000689983)
(0 -0 -0.000818749)
(0 -0 -0.000964222)
(0 -0 -0.00110802)
(0 -0 -0.00122859)
(0 -0 -0.00130547)
(0 -0 -0.00132333)
(0 -0 -0.00127463)
(0 -0 -0.00116059)
(0 -0 -0.000990291)
(0 -0 -0.000778621)
(0 -0 -0.00054352)
(0 -0 -0.000303243)
(0 -0 -7.41014e-05)
(0 -0 0.000131048)
(0 -0 0.000303523)
(0 -0 0.000438833)
(0 -0 0.000536192)
(0 -0 0.00059773)
(0 -0 0.000627589)
(0 -0 0.000631062)
(0 -0 0.00061386)
(0 -0 0.000581544)
(0 -0 0.000539152)
(0 -0 0.000490975)
(0 -0 0.000440473)
(0 -0 0.000390281)
(0 -0 0.000342285)
(0 -0 0.000297726)
(0 -0 0.000257324)
(0 -0 0.000221394)
(0 -0 0.000189955)
(0 -0 0.000162821)
(0 -0 0.000139675)
(0 -0 0.000120132)
(0 -0 0.000103775)
(0 -0 9.01862e-05)
(0 -0 7.89717e-05)
(0 -0 6.97678e-05)
(0 -0 6.22498e-05)
(0 -0 5.61219e-05)
(0 -0 5.11435e-05)
(0 -0 -0.000471514)
(0 -0 -0.000469553)
(0 -0 -0.000467664)
(0 -0 -0.000465887)
(0 -0 -0.000464241)
(0 -0 -0.0004626)
(0 -0 -0.000460713)
(0 -0 -0.000458698)
(0 -0 -0.000458065)
(0 -0 -0.00046282)
(0 -0 -0.000479791)
(0 -0 -0.000517483)
(0 -0 -0.000583464)
(0 -0 -0.000681072)
(0 -0 -0.000806763)
(0 -0 -0.00094921)
(0 -0 -0.00109067)
(0 -0 -0.00121022)
(0 -0 -0.00128793)
(0 -0 -0.00130872)
(0 -0 -0.00126505)
(0 -0 -0.00115782)
(0 -0 -0.000995576)
(0 -0 -0.000792565)
(0 -0 -0.000566045)
(0 -0 -0.00033366)
(0 -0 -0.000111243)
(0 -0 8.86677e-05)
(0 -0 0.000257534)
(0 -0 0.000390865)
(0 -0 0.000487749)
(0 -0 0.000550109)
(0 -0 0.000581836)
(0 -0 0.000587956)
(0 -0 0.000573922)
(0 -0 0.000545068)
(0 -0 0.00050624)
(0 -0 0.000461576)
(0 -0 0.000414424)
(0 -0 0.000367344)
(0 -0 0.000322175)
(0 -0 0.000280138)
(0 -0 0.00024195)
(0 -0 0.000207937)
(0 -0 0.000178138)
(0 -0 0.000152392)
(0 -0 0.000130412)
(0 -0 0.000111837)
(0 -0 9.62795e-05)
(0 -0 8.33473e-05)
(0 -0 7.26678e-05)
(0 -0 6.38982e-05)
(0 -0 5.67312e-05)
(0 -0 5.08943e-05)
(0 -0 4.6138e-05)
(0 -0 -0.000468882)
(0 -0 -0.000466927)
(0 -0 -0.000465042)
(0 -0 -0.000463268)
(0 -0 -0.000461623)
(0 -0 -0.000459986)
(0 -0 -0.000458115)
(0 -0 -0.000456121)
(0 -0 -0.00045546)
(0 -0 -0.000460008)
(0 -0 -0.000476391)
(0 -0 -0.000512895)
(0 -0 -0.000576939)
(0 -0 -0.00067189)
(0 -0 -0.00079446)
(0 -0 -0.000933809)
(0 -0 -0.00107282)
(0 -0 -0.00119121)
(0 -0 -0.00126957)
(0 -0 -0.0012931)
(0 -0 -0.00125425)
(0 -0 -0.00115361)
(0 -0 -0.000999233)
(0 -0 -0.000804719)
(0 -0 -0.000586656)
(0 -0 -0.000362084)
(0 -0 -0.000146356)
(0 -0 4.83036e-05)
(0 -0 0.000213512)
(0 -0 0.000344778)
(0 -0 0.000441076)
(0 -0 0.00050413)
(0 -0 0.000537585)
(0 -0 0.000546207)
(0 -0 0.000535199)
(0 -0 0.00050967)
(0 -0 0.000474277)
(0 -0 0.000433008)
(0 -0 0.0003891)
(0 -0 0.000345037)
(0 -0 0.000302613)
(0 -0 0.000263027)
(0 -0 0.000226992)
(0 -0 0.000194846)
(0 -0 0.000166645)
(0 -0 0.000142253)
(0 -0 0.000121409)
(0 -0 0.000103781)
(0 -0 8.90054e-05)
(0 -0 7.67153e-05)
(0 -0 6.65601e-05)
(0 -0 5.82166e-05)
(0 -0 5.13949e-05)
(0 -0 4.58381e-05)
(0 -0 4.13157e-05)
(0 -0 -0.000465994)
(0 -0 -0.000464046)
(0 -0 -0.000462167)
(0 -0 -0.000460396)
(0 -0 -0.000458753)
(0 -0 -0.000457121)
(0 -0 -0.000455267)
(0 -0 -0.000453295)
(0 -0 -0.000452608)
(0 -0 -0.000456952)
(0 -0 -0.000472753)
(0 -0 -0.000508074)
(0 -0 -0.000570185)
(0 -0 -0.00066247)
(0 -0 -0.000781889)
(0 -0 -0.000918075)
(0 -0 -0.00105453)
(0 -0 -0.00117161)
(0 -0 -0.00125041)
(0 -0 -0.00127644)
(0 -0 -0.00124214)
(0 -0 -0.00114783)
(0 -0 -0.00100107)
(0 -0 -0.000814825)
(0 -0 -0.000605037)
(0 -0 -0.000388148)
(0 -0 -0.00017904)
(0 -0 1.03826e-05)
(0 -0 0.000171893)
(0 -0 0.000301009)
(0 -0 0.0003966)
(0 -0 0.0004602)
(0 -0 0.000495218)
(0 -0 0.000506169)
(0 -0 0.000498013)
(0 -0 0.000475641)
(0 -0 0.000443522)
(0 -0 0.000405501)
(0 -0 0.000364704)
(0 -0 0.00032354)
(0 -0 0.000283757)
(0 -0 0.000246533)
(0 -0 0.000212576)
(0 -0 0.000182233)
(0 -0 0.000155577)
(0 -0 0.000132496)
(0 -0 0.000112753)
(0 -0 9.60423e-05)
(0 -0 8.20257e-05)
(0 -0 7.03598e-05)
(0 -0 6.07152e-05)
(0 -0 5.27873e-05)
(0 -0 4.63029e-05)
(0 -0 4.10198e-05)
(0 -0 3.67214e-05)
(0 -0 -0.000462849)
(0 -0 -0.000460908)
(0 -0 -0.000459036)
(0 -0 -0.000457271)
(0 -0 -0.00045563)
(0 -0 -0.000454004)
(0 -0 -0.000452167)
(0 -0 -0.000450218)
(0 -0 -0.000449506)
(0 -0 -0.000453652)
(0 -0 -0.000468879)
(0 -0 -0.000503031)
(0 -0 -0.000563222)
(0 -0 -0.000652844)
(0 -0 -0.000769094)
(0 -0 -0.000902062)
(0 -0 -0.00103585)
(0 -0 -0.00115146)
(0 -0 -0.00123049)
(0 -0 -0.00125875)
(0 -0 -0.0012287)
(0 -0 -0.0011404)
(0 -0 -0.00100094)
(0 -0 -0.00082269)
(0 -0 -0.000620945)
(0 -0 -0.00041157)
(0 -0 -0.000208979)
(0 -0 -2.47591e-05)
(0 -0 0.000133024)
(0 -0 0.000259907)
(0 -0 0.000354662)
(0 -0 0.000418645)
(0 -0 0.000455042)
(0 -0 0.000468127)
(0 -0 0.000462625)
(0 -0 0.000443215)
(0 -0 0.000414188)
(0 -0 0.000379245)
(0 -0 0.000341405)
(0 -0 0.000303003)
(0 -0 0.000265742)
(0 -0 0.000230776)
(0 -0 0.000198808)
(0 -0 0.000170192)
(0 -0 0.000145019)
(0 -0 0.000123197)
(0 -0 0.000104513)
(0 -0 8.86867e-05)
(0 -0 7.54021e-05)
(0 -0 6.43389e-05)
(0 -0 5.51879e-05)
(0 -0 4.76625e-05)
(0 -0 4.15053e-05)
(0 -0 3.64882e-05)
(0 -0 3.2407e-05)
(0 -0 -0.000459445)
(0 -0 -0.000457513)
(0 -0 -0.00045565)
(0 -0 -0.00045389)
(0 -0 -0.000452253)
(0 -0 -0.000450634)
(0 -0 -0.000448815)
(0 -0 -0.000446889)
(0 -0 -0.000446154)
(0 -0 -0.000450107)
(0 -0 -0.000464774)
(0 -0 -0.000497775)
(0 -0 -0.000556067)
(0 -0 -0.000643042)
(0 -0 -0.000756118)
(0 -0 -0.000885824)
(0 -0 -0.00101686)
(0 -0 -0.00113083)
(0 -0 -0.00120986)
(0 -0 -0.00124006)
(0 -0 -0.00121392)
(0 -0 -0.00113128)
(0 -0 -0.000998774)
(0 -0 -0.000828189)
(0 -0 -0.000634218)
(0 -0 -0.000432153)
(0 -0 -0.000235949)
(0 -0 -5.68773e-05)
(0 -0 9.71611e-05)
(0 -0 0.000221731)
(0 -0 0.000315517)
(0 -0 0.000379713)
(0 -0 0.000417293)
(0 -0 0.000432301)
(0 -0 0.000429237)
(0 -0 0.000412578)
(0 -0 0.000386442)
(0 -0 0.000354389)
(0 -0 0.000319336)
(0 -0 0.000283544)
(0 -0 0.000248671)
(0 -0 0.000215847)
(0 -0 0.00018577)
(0 -0 0.000158798)
(0 -0 0.000135038)
(0 -0 0.000114417)
(0 -0 9.67453e-05)
(0 -0 8.17636e-05)
(0 -0 6.91801e-05)
(0 -0 5.86949e-05)
(0 -0 5.00179e-05)
(0 -0 4.28797e-05)
(0 -0 3.70379e-05)
(0 -0 3.22774e-05)
(0 -0 2.8406e-05)
(0 -0 -0.000455781)
(0 -0 -0.00045386)
(0 -0 -0.000452005)
(0 -0 -0.000450252)
(0 -0 -0.00044862)
(0 -0 -0.000447009)
(0 -0 -0.000445209)
(0 -0 -0.000443306)
(0 -0 -0.000442552)
(0 -0 -0.000446318)
(0 -0 -0.000460438)
(0 -0 -0.000492313)
(0 -0 -0.000548735)
(0 -0 -0.000633089)
(0 -0 -0.000742997)
(0 -0 -0.00086941)
(0 -0 -0.000997596)
(0 -0 -0.00110977)
(0 -0 -0.00118857)
(0 -0 -0.0012204)
(0 -0 -0.00119783)
(0 -0 -0.00112046)
(0 -0 -0.000994528)
(0 -0 -0.000831262)
(0 -0 -0.000644764)
(0 -0 -0.000449777)
(0 -0 -0.000259808)
(0 -0 -8.58126e-05)
(0 -0 6.44753e-05)
(0 -0 0.000186656)
(0 -0 0.000279343)
(0 -0 0.000343577)
(0 -0 0.000382135)
(0 -0 0.000398845)
(0 -0 0.000397993)
(0 -0 0.000383861)
(0 -0 0.0003604)
(0 -0 0.000331039)
(0 -0 0.000298591)
(0 -0 0.000265246)
(0 -0 0.000232618)
(0 -0 0.000201812)
(0 -0 0.000173518)
(0 -0 0.000148102)
(0 -0 0.000125679)
(0 -0 0.000106197)
(0 -0 8.94851e-05)
(0 -0 7.53066e-05)
(0 -0 6.33903e-05)
(0 -0 5.34559e-05)
(0 -0 4.52313e-05)
(0 -0 3.84632e-05)
(0 -0 3.29234e-05)
(0 -0 2.84092e-05)
(0 -0 2.47396e-05)
(0 -0 -0.000451857)
(0 -0 -0.000449947)
(0 -0 -0.000448102)
(0 -0 -0.000446358)
(0 -0 -0.000444732)
(0 -0 -0.000443129)
(0 -0 -0.000441348)
(0 -0 -0.00043947)
(0 -0 -0.000438697)
(0 -0 -0.000442284)
(0 -0 -0.000455874)
(0 -0 -0.00048665)
(0 -0 -0.00054124)
(0 -0 -0.000623008)
(0 -0 -0.000729765)
(0 -0 -0.000852865)
(0 -0 -0.000978125)
(0 -0 -0.00108835)
(0 -0 -0.00116668)
(0 -0 -0.00119985)
(0 -0 -0.00118047)
(0 -0 -0.00110799)
(0 -0 -0.000988228)
(0 -0 -0.000831907)
(0 -0 -0.000652561)
(0 -0 -0.000464401)
(0 -0 -0.000280495)
(0 -0 -0.00011149)
(0 -0 3.50516e-05)
(0 -0 0.000154776)
(0 -0 0.000246235)
(0 -0 0.000310333)
(0 -0 0.000349663)
(0 -0 0.000367848)
(0 -0 0.000368975)
(0 -0 0.00035714)
(0 -0 0.000336134)
(0 -0 0.000309258)
(0 -0 0.000279226)
(0 -0 0.00024816)
(0 -0 0.000217627)
(0 -0 0.00018871)
(0 -0 0.00016209)
(0 -0 0.000138133)
(0 -0 0.000116969)
(0 -0 9.856e-05)
(0 -0 8.27545e-05)
(0 -0 6.93351e-05)
(0 -0 5.80501e-05)
(0 -0 4.86376e-05)
(0 -0 4.08424e-05)
(0 -0 3.44261e-05)
(0 -0 2.91738e-05)
(0 -0 2.48945e-05)
(0 -0 2.14179e-05)
(0 -0 -0.000447671)
(0 -0 -0.000445773)
(0 -0 -0.00044394)
(0 -0 -0.000442205)
(0 -0 -0.000440587)
(0 -0 -0.000438994)
(0 -0 -0.000437232)
(0 -0 -0.000435378)
(0 -0 -0.000434589)
(0 -0 -0.000438005)
(0 -0 -0.000451084)
(0 -0 -0.000480792)
(0 -0 -0.000533591)
(0 -0 -0.000612817)
(0 -0 -0.000716453)
(0 -0 -0.000836231)
(0 -0 -0.000958499)
(0 -0 -0.00106663)
(0 -0 -0.00114428)
(0 -0 -0.00117848)
(0 -0 -0.00116194)
(0 -0 -0.00109393)
(0 -0 -0.00097994)
(0 -0 -0.000830181)
(0 -0 -0.000657651)
(0 -0 -0.000476051)
(0 -0 -0.000298025)
(0 -0 -0.000133914)
(0 -0 8.89732e-06)
(0 -0 0.000126106)
(0 -0 0.000216216)
(0 -0 0.000280007)
(0 -0 0.000319904)
(0 -0 0.000339342)
(0 -0 0.000342215)
(0 -0 0.000332444)
(0 -0 0.000313671)
(0 -0 0.000289071)
(0 -0 0.000261265)
(0 -0 0.000232306)
(0 -0 0.000203718)
(0 -0 0.000176558)
(0 -0 0.000151497)
(0 -0 0.000128905)
(0 -0 0.000108919)
(0 -0 9.15158e-05)
(0 -0 7.65611e-05)
(0 -0 6.38554e-05)
(0 -0 5.31647e-05)
(0 -0 4.42444e-05)
(0 -0 3.68545e-05)
(0 -0 3.07709e-05)
(0 -0 2.57908e-05)
(0 -0 2.17343e-05)
(0 -0 1.84413e-05)
(0 -0 -0.000443223)
(0 -0 -0.000441339)
(0 -0 -0.000439519)
(0 -0 -0.000437795)
(0 -0 -0.000436185)
(0 -0 -0.000434603)
(0 -0 -0.00043286)
(0 -0 -0.000431032)
(0 -0 -0.000430229)
(0 -0 -0.000433482)
(0 -0 -0.000446068)
(0 -0 -0.000474742)
(0 -0 -0.000525797)
(0 -0 -0.000602532)
(0 -0 -0.000703085)
(0 -0 -0.000819547)
(0 -0 -0.00093877)
(0 -0 -0.00104469)
(0 -0 -0.00112143)
(0 -0 -0.00115638)
(0 -0 -0.00114232)
(0 -0 -0.0010784)
(0 -0 -0.000969769)
(0 -0 -0.000826184)
(0 -0 -0.000660131)
(0 -0 -0.000484819)
(0 -0 -0.00031248)
(0 -0 -0.000153154)
(0 -0 -1.4049e-05)
(0 -0 0.000100594)
(0 -0 0.000189241)
(0 -0 0.000252564)
(0 -0 0.000292832)
(0 -0 0.000313302)
(0 -0 0.000317693)
(0 -0 0.000309759)
(0 -0 0.000292999)
(0 -0 0.000270469)
(0 -0 0.0002447)
(0 -0 0.000217678)
(0 -0 0.000190884)
(0 -0 0.00016535)
(0 -0 0.000141736)
(0 -0 0.000120412)
(0 -0 0.000101524)
(0 -0 8.50588e-05)
(0 -0 7.08994e-05)
(0 -0 5.88617e-05)
(0 -0 4.87283e-05)
(0 -0 4.02699e-05)
(0 -0 3.32611e-05)
(0 -0 2.74905e-05)
(0 -0 2.2767e-05)
(0 -0 1.89208e-05)
(0 -0 1.58015e-05)
(0 -0 -0.000438513)
(0 -0 -0.000436644)
(0 -0 -0.000434838)
(0 -0 -0.000433126)
(0 -0 -0.000431526)
(0 -0 -0.000429955)
(0 -0 -0.000428233)
(0 -0 -0.00042643)
(0 -0 -0.000425616)
(0 -0 -0.000428714)
(0 -0 -0.000440828)
(0 -0 -0.000468503)
(0 -0 -0.000517865)
(0 -0 -0.000592165)
(0 -0 -0.000689684)
(0 -0 -0.000802846)
(0 -0 -0.000918988)
(0 -0 -0.00102258)
(0 -0 -0.00109823)
(0 -0 -0.00113365)
(0 -0 -0.00112173)
(0 -0 -0.00106152)
(0 -0 -0.000957849)
(0 -0 -0.000820058)
(0 -0 -0.000660143)
(0 -0 -0.000490845)
(0 -0 -0.000323995)
(0 -0 -0.00016934)
(0 -0 -3.39063e-05)
(0 -0 7.81311e-05)
(0 -0 0.000165213)
(0 -0 0.000227916)
(0 -0 0.000268366)
(0 -0 0.000289661)
(0 -0 0.00029535)
(0 -0 0.000289034)
(0 -0 0.000274073)
(0 -0 0.000253413)
(0 -0 0.000229496)
(0 -0 0.000204246)
(0 -0 0.000179099)
(0 -0 0.000155062)
(0 -0 0.000132785)
(0 -0 0.000112635)
(0 -0 9.47644e-05)
(0 -0 7.91722e-05)
(0 -0 6.57533e-05)
(0 -0 5.43387e-05)
(0 -0 4.47258e-05)
(0 -0 3.66994e-05)
(0 -0 3.00473e-05)
(0 -0 2.45701e-05)
(0 -0 2.00872e-05)
(0 -0 1.64387e-05)
(0 -0 1.3483e-05)
(0 -0 -0.00043354)
(0 -0 -0.000431688)
(0 -0 -0.000429897)
(0 -0 -0.000428198)
(0 -0 -0.000426609)
(0 -0 -0.000425051)
(0 -0 -0.00042335)
(0 -0 -0.000421572)
(0 -0 -0.000420749)
(0 -0 -0.000423701)
(0 -0 -0.000435363)
(0 -0 -0.000462076)
(0 -0 -0.000509797)
(0 -0 -0.000581726)
(0 -0 -0.000676266)
(0 -0 -0.000786157)
(0 -0 -0.000899195)
(0 -0 -0.00100037)
(0 -0 -0.00107476)
(0 -0 -0.00111039)
(0 -0 -0.0011003)
(0 -0 -0.00104343)
(0 -0 -0.000944339)
(0 -0 -0.000811972)
(0 -0 -0.000657863)
(0 -0 -0.000494306)
(0 -0 -0.000332747)
(0 -0 -0.000182642)
(0 -0 -5.08389e-05)
(0 -0 5.85629e-05)
(0 -0 0.000143989)
(0 -0 0.000205931)
(0 -0 0.000246391)
(0 -0 0.000268313)
(0 -0 0.000275093)
(0 -0 0.000270185)
(0 -0 0.000256821)
(0 -0 0.00023784)
(0 -0 0.000215599)
(0 -0 0.000191961)
(0 -0 0.000168319)
(0 -0 0.000145655)
(0 -0 0.000124607)
(0 -0 0.000105541)
(0 -0 8.86124e-05)
(0 -0 7.38291e-05)
(0 -0 6.10979e-05)
(0 -0 5.02629e-05)
(0 -0 4.11346e-05)
(0 -0 3.35109e-05)
(0 -0 2.71917e-05)
(0 -0 2.19885e-05)
(0 -0 1.77306e-05)
(0 -0 1.42669e-05)
(0 -0 1.14646e-05)
(0 -0 -0.000428306)
(0 -0 -0.000426471)
(0 -0 -0.000424697)
(0 -0 -0.000423012)
(0 -0 -0.000421436)
(0 -0 -0.000419891)
(0 -0 -0.000418211)
(0 -0 -0.000416459)
(0 -0 -0.00041563)
(0 -0 -0.000418444)
(0 -0 -0.000429674)
(0 -0 -0.000455462)
(0 -0 -0.000501598)
(0 -0 -0.000571222)
(0 -0 -0.000662846)
(0 -0 -0.000769504)
(0 -0 -0.000879431)
(0 -0 -0.000978114)
(0 -0 -0.00105109)
(0 -0 -0.00108671)
(0 -0 -0.00107815)
(0 -0 -0.00102427)
(0 -0 -0.000929409)
(0 -0 -0.000802113)
(0 -0 -0.000653491)
(0 -0 -0.00049541)
(0 -0 -0.000338944)
(0 -0 -0.000193266)
(0 -0 -6.50444e-05)
(0 -0 4.17021e-05)
(0 -0 0.000125393)
(0 -0 0.000186451)
(0 -0 0.000226759)
(0 -0 0.000249126)
(0 -0 0.000256803)
(0 -0 0.000253107)
(0 -0 0.00024115)
(0 -0 0.000223667)
(0 -0 0.000202936)
(0 -0 0.000180758)
(0 -0 0.000158486)
(0 -0 0.000137077)
(0 -0 0.000117158)
(0 -0 9.90899e-05)
(0 -0 8.30308e-05)
(0 -0 6.89961e-05)
(0 -0 5.69023e-05)
(0 -0 4.66051e-05)
(0 -0 3.79271e-05)
(0 -0 3.06779e-05)
(0 -0 2.46683e-05)
(0 -0 1.97202e-05)
(0 -0 1.56718e-05)
(0 -0 1.23803e-05)
(0 -0 9.72123e-06)
(0 -0 -0.00042281)
(0 -0 -0.000420994)
(0 -0 -0.000419238)
(0 -0 -0.000417569)
(0 -0 -0.000416006)
(0 -0 -0.000414476)
(0 -0 -0.000412818)
(0 -0 -0.000411092)
(0 -0 -0.000410258)
(0 -0 -0.000412943)
(0 -0 -0.000423761)
(0 -0 -0.000448662)
(0 -0 -0.000493268)
(0 -0 -0.000560655)
(0 -0 -0.000649432)
(0 -0 -0.000752906)
(0 -0 -0.000859729)
(0 -0 -0.000955865)
(0 -0 -0.0010273)
(0 -0 -0.00106271)
(0 -0 -0.0010554)
(0 -0 -0.00100422)
(0 -0 -0.000913236)
(0 -0 -0.000790676)
(0 -0 -0.000647237)
(0 -0 -0.000494376)
(0 -0 -0.000342809)
(0 -0 -0.000201435)
(0 -0 -7.67411e-05)
(0 -0 2.73397e-05)
(0 -0 0.00010923)
(0 -0 0.000169291)
(0 -0 0.000209303)
(0 -0 0.000231948)
(0 -0 0.000240345)
(0 -0 0.000237681)
(0 -0 0.000226953)
(0 -0 0.000210801)
(0 -0 0.000191424)
(0 -0 0.000170563)
(0 -0 0.000149533)
(0 -0 0.000129269)
(0 -0 0.000110385)
(0 -0 9.32345e-05)
(0 -0 7.79779e-05)
(0 -0 6.46352e-05)
(0 -0 5.31315e-05)
(0 -0 4.33327e-05)
(0 -0 3.50722e-05)
(0 -0 2.81704e-05)
(0 -0 2.24482e-05)
(0 -0 1.77367e-05)
(0 -0 1.38827e-05)
(0 -0 1.07511e-05)
(0 -0 8.22526e-06)
(0 -0 -0.000417053)
(0 -0 -0.000415258)
(0 -0 -0.00041352)
(0 -0 -0.000411869)
(0 -0 -0.00041032)
(0 -0 -0.000408806)
(0 -0 -0.000407171)
(0 -0 -0.000405472)
(0 -0 -0.000404634)
(0 -0 -0.000407198)
(0 -0 -0.000417624)
(0 -0 -0.000441675)
(0 -0 -0.000484807)
(0 -0 -0.000550027)
(0 -0 -0.000636029)
(0 -0 -0.000736377)
(0 -0 -0.000840114)
(0 -0 -0.000933668)
(0 -0 -0.00100346)
(0 -0 -0.00103847)
(0 -0 -0.00103219)
(0 -0 -0.0009834)
(0 -0 -0.000895993)
(0 -0 -0.00077786)
(0 -0 -0.000639316)
(0 -0 -0.000491431)
(0 -0 -0.000344577)
(0 -0 -0.000207383)
(0 -0 -8.61573e-05)
(0 -0 1.52562e-05)
(0 -0 9.52912e-05)
(0 -0 0.000154258)
(0 -0 0.000193846)
(0 -0 0.00021662)
(0 -0 0.000225574)
(0 -0 0.000223776)
(0 -0 0.000214115)
(0 -0 0.000199139)
(0 -0 0.000180972)
(0 -0 0.000161293)
(0 -0 0.000141384)
(0 -0 0.000122165)
(0 -0 0.00010423)
(0 -0 8.79258e-05)
(0 -0 7.34102e-05)
(0 -0 6.07071e-05)
(0 -0 4.97492e-05)
(0 -0 4.04115e-05)
(0 -0 3.25373e-05)
(0 -0 2.5957e-05)
(0 -0 2.05009e-05)
(0 -0 1.60084e-05)
(0 -0 1.23343e-05)
(0 -0 9.35048e-06)
(0 -0 6.94817e-06)
(0 -0 -0.000411037)
(0 -0 -0.000409262)
(0 -0 -0.000407545)
(0 -0 -0.000405912)
(0 -0 -0.00040438)
(0 -0 -0.000402882)
(0 -0 -0.00040127)
(0 -0 -0.000399598)
(0 -0 -0.00039876)
(0 -0 -0.00040121)
(0 -0 -0.000411262)
(0 -0 -0.000434499)
(0 -0 -0.000476213)
(0 -0 -0.00053934)
(0 -0 -0.000622646)
(0 -0 -0.000719932)
(0 -0 -0.00082062)
(0 -0 -0.000911576)
(0 -0 -0.00097964)
(0 -0 -0.00101412)
(0 -0 -0.00100865)
(0 -0 -0.000962008)
(0 -0 -0.000877894)
(0 -0 -0.000763904)
(0 -0 -0.00062999)
(0 -0 -0.000486852)
(0 -0 -0.00034453)
(0 -0 -0.000211392)
(0 -0 -9.3569e-05)
(0 -0 5.18792e-06)
(0 -0 8.33299e-05)
(0 -0 0.000141126)
(0 -0 0.000180181)
(0 -0 0.000202955)
(0 -0 0.000212326)
(0 -0 0.00021125)
(0 -0 0.000202513)
(0 -0 0.000188577)
(0 -0 0.000171493)
(0 -0 0.000152868)
(0 -0 0.000133957)
(0 -0 0.000115695)
(0 -0 9.86377e-05)
(0 -0 8.31162e-05)
(0 -0 6.92855e-05)
(0 -0 5.71732e-05)
(0 -0 4.67189e-05)
(0 -0 3.78068e-05)
(0 -0 3.02893e-05)
(0 -0 2.40058e-05)
(0 -0 1.87953e-05)
(0 -0 1.45051e-05)
(0 -0 1.09967e-05)
(0 -0 8.14915e-06)
(0 -0 5.86116e-06)
(0 -0 -0.000404762)
(0 -0 -0.00040301)
(0 -0 -0.000401315)
(0 -0 -0.000399701)
(0 -0 -0.000398186)
(0 -0 -0.000396706)
(0 -0 -0.000395118)
(0 -0 -0.000393474)
(0 -0 -0.000392636)
(0 -0 -0.000394978)
(0 -0 -0.000404674)
(0 -0 -0.000427129)
(0 -0 -0.000467477)
(0 -0 -0.000528579)
(0 -0 -0.000609265)
(0 -0 -0.000703562)
(0 -0 -0.000801247)
(0 -0 -0.000889612)
(0 -0 -0.000955904)
(0 -0 -0.000989747)
(0 -0 -0.000984931)
(0 -0 -0.000940222)
(0 -0 -0.000859167)
(0 -0 -0.000749075)
(0 -0 -0.000619557)
(0 -0 -0.000480957)
(0 -0 -0.000343)
(0 -0 -0.000213796)
(0 -0 -9.93026e-05)
(0 -0 -3.17687e-06)
(0 -0 7.30549e-05)
(0 -0 0.000129627)
(0 -0 0.00016807)
(0 -0 0.000190744)
(0 -0 0.00020042)
(0 -0 0.00019995)
(0 -0 0.000192022)
(0 -0 0.000179014)
(0 -0 0.000162914)
(0 -0 0.000145305)
(0 -0 0.000127275)
(0 -0 0.000109801)
(0 -0 9.35755e-05)
(0 -0 7.87835e-05)
(0 -0 6.55868e-05)
(0 -0 5.40197e-05)
(0 -0 4.40303e-05)
(0 -0 3.5511e-05)
(0 -0 2.83231e-05)
(0 -0 2.23142e-05)
(0 -0 1.7331e-05)
(0 -0 1.3228e-05)
(0 -0 9.87292e-06)
(0 -0 7.1511e-06)
(0 -0 4.96884e-06)
(0 -0 -0.00039823)
(0 -0 -0.000396502)
(0 -0 -0.000394829)
(0 -0 -0.000393237)
(0 -0 -0.000391741)
(0 -0 -0.00039028)
(0 -0 -0.000388715)
(0 -0 -0.000387099)
(0 -0 -0.000386264)
(0 -0 -0.000388504)
(0 -0 -0.000397859)
(0 -0 -0.000419562)
(0 -0 -0.000458592)
(0 -0 -0.000517732)
(0 -0 -0.000595873)
(0 -0 -0.00068725)
(0 -0 -0.000781984)
(0 -0 -0.000867775)
(0 -0 -0.000932268)
(0 -0 -0.000965393)
(0 -0 -0.000961101)
(0 -0 -0.000918162)
(0 -0 -0.00083997)
(0 -0 -0.000733571)
(0 -0 -0.000608247)
(0 -0 -0.000474006)
(0 -0 -0.000340261)
(0 -0 -0.000214879)
(0 -0 -0.000103644)
(0 -0 -1.01163e-05)
(0 -0 6.4202e-05)
(0 -0 0.000119516)
(0 -0 0.000157288)
(0 -0 0.000179787)
(0 -0 0.000189683)
(0 -0 0.000189725)
(0 -0 0.000182512)
(0 -0 0.000170346)
(0 -0 0.000155162)
(0 -0 0.000138445)
(0 -0 0.000121382)
(0 -0 0.000104688)
(0 -0 8.90554e-05)
(0 -0 7.49518e-05)
(0 -0 6.23439e-05)
(0 -0 5.12836e-05)
(0 -0 4.17282e-05)
(0 -0 3.3578e-05)
(0 -0 2.67017e-05)
(0 -0 2.09543e-05)
(0 -0 1.61894e-05)
(0 -0 1.22677e-05)
(0 -0 9.06243e-06)
(0 -0 6.46511e-06)
(0 -0 4.37934e-06)
(0 -0 0.000116057)
(0 -0 0.000100143)
(0 -0 8.5228e-05)
(0 -0 7.16321e-05)
(0 -0 5.95633e-05)
(0 -0 4.89757e-05)
(0 -0 3.98315e-05)
(0 -0 3.20358e-05)
(0 -0 2.54631e-05)
(0 -0 1.99744e-05)
(0 -0 1.54293e-05)
(0 -0 1.16943e-05)
(0 -0 8.6483e-06)
(0 -0 6.17708e-06)
(0 -0 4.20941e-06)
(0 -0 -1.08782e-05)
(0 -0 -1.08454e-05)
(0 -0 -1.08115e-05)
(0 -0 -1.07791e-05)
(0 -0 -1.07494e-05)
(0 -0 -1.07182e-05)
(0 -0 -1.06779e-05)
(0 -0 -1.06339e-05)
(0 -0 -1.0637e-05)
(0 -0 -1.0818e-05)
(0 -0 -1.13948e-05)
(0 -0 -1.26343e-05)
(0 -0 -1.47667e-05)
(0 -0 -1.78823e-05)
(0 -0 -2.18491e-05)
(0 -0 -2.62881e-05)
(0 -0 -3.06197e-05)
(0 -0 -3.41699e-05)
(0 -0 -3.63039e-05)
(0 -0 -3.65493e-05)
(0 -0 -3.46798e-05)
(0 -0 -3.07438e-05)
(0 -0 -2.5038e-05)
(0 -0 -1.8042e-05)
(0 -0 -1.03326e-05)
(0 -0 -2.49699e-06)
(0 -0 4.93866e-06)
(0 -0 1.15581e-05)
(0 -0 1.70789e-05)
(0 -0 2.13541e-05)
(0 -0 2.43576e-05)
(0 -0 2.6159e-05)
(0 -0 2.68956e-05)
(0 -0 2.67438e-05)
(0 -0 2.58953e-05)
(0 -0 2.45381e-05)
(0 -0 2.28437e-05)
(0 -0 2.09595e-05)
(0 -0 1.90048e-05)
(0 -0 1.70717e-05)
(0 -0 1.52263e-05)
(0 -0 1.35126e-05)
(0 -0 1.19566e-05)
(0 -0 1.05696e-05)
(0 -0 9.35248e-06)
(0 -0 8.29879e-06)
(0 -0 7.39714e-06)
(0 -0 6.63342e-06)
(0 -0 5.99229e-06)
(0 -0 5.45834e-06)
(0 -0 5.01676e-06)
(0 -0 4.65386e-06)
(0 -0 4.35729e-06)
(0 -0 4.1161e-06)
(0 -0 3.92059e-06)
(0 -0 -3.24414e-05)
(0 -0 -3.23289e-05)
(0 -0 -3.22206e-05)
(0 -0 -3.21203e-05)
(0 -0 -3.20294e-05)
(0 -0 -3.19353e-05)
(0 -0 -3.18148e-05)
(0 -0 -3.16831e-05)
(0 -0 -3.1691e-05)
(0 -0 -3.22257e-05)
(0 -0 -3.39348e-05)
(0 -0 -3.76119e-05)
(0 -0 -4.39445e-05)
(0 -0 -5.32063e-05)
(0 -0 -6.50118e-05)
(0 -0 -7.82416e-05)
(0 -0 -9.11793e-05)
(0 -0 -0.000101825)
(0 -0 -0.000108289)
(0 -0 -0.000109163)
(0 -0 -0.000103765)
(0 -0 -9.22282e-05)
(0 -0 -7.54236e-05)
(0 -0 -5.47664e-05)
(0 -0 -3.19626e-05)
(0 -0 -8.7526e-06)
(0 -0 1.33018e-05)
(0 -0 3.29628e-05)
(0 -0 4.9388e-05)
(0 -0 6.21361e-05)
(0 -0 7.11239e-05)
(0 -0 7.65535e-05)
(0 -0 7.8827e-05)
(0 -0 7.84641e-05)
(0 -0 7.60306e-05)
(0 -0 7.20825e-05)
(0 -0 6.71272e-05)
(0 -0 6.16008e-05)
(0 -0 5.58579e-05)
(0 -0 5.01713e-05)
(0 -0 4.47379e-05)
(0 -0 3.96889e-05)
(0 -0 3.51017e-05)
(0 -0 3.10109e-05)
(0 -0 2.74199e-05)
(0 -0 2.43099e-05)
(0 -0 2.16479e-05)
(0 -0 1.93925e-05)
(0 -0 1.74987e-05)
(0 -0 1.59211e-05)
(0 -0 1.46161e-05)
(0 -0 1.35434e-05)
(0 -0 1.26666e-05)
(0 -0 1.19533e-05)
(0 -0 1.13751e-05)
(0 -0 -5.3568e-05)
(0 -0 -5.3371e-05)
(0 -0 -5.31851e-05)
(0 -0 -5.30151e-05)
(0 -0 -5.28625e-05)
(0 -0 -5.27056e-05)
(0 -0 -5.25062e-05)
(0 -0 -5.22881e-05)
(0 -0 -5.22972e-05)
(0 -0 -5.31666e-05)
(0 -0 -5.59591e-05)
(0 -0 -6.19805e-05)
(0 -0 -7.23696e-05)
(0 -0 -8.75912e-05)
(0 -0 -0.000107032)
(0 -0 -0.000128875)
(0 -0 -0.000150316)