/*--------------------------------*- C++ -*----------------------------------*\
| =========                 |                                                 |
| \\      /  F ield         | OpenFOAM: The Open Source CFD Toolbox           |
|  \\    /   O peration     | Version:  2412                                  |
|   \\  /    A nd           | Website:  www.openfoam.com                      |
|    \\/     M anipulation  |                                                 |
\*---------------------------------------------------------------------------*/
FoamFile
{
    version     2.0;
    format      ascii;
    arch        "LSB;label=32;scalar=64";
    class       volVectorField;
    location    "29";
    object      U;
}
// * * * * * * * * * * * * * * * * * * * * * * * * * * * * * * * * * * * * * //

dimensions      [0 1 -1 0 0 0 0];

internalField   nonuniform List<vector> 
5285
(
(0.0977893 -2.88796e-05 0)
(0.0979224 -2.67645e-05 0)
(0.0980484 -2.48606e-05 0)
(0.098168 -2.31348e-05 0)
(0.0982816 -2.15569e-05 0)
(0.0983896 -2.01013e-05 0)
(0.0984924 -1.87476e-05 0)
(0.0985903 -1.74808e-05 0)
(0.0986833 -1.62904e-05 0)
(0.0987717 -1.51694e-05 0)
(0.0988557 -1.41131e-05 0)
(0.0989354 -1.31179e-05 0)
(0.0990109 -1.21813e-05 0)
(0.0990824 -1.13007e-05 0)
(0.09915 -1.04739e-05 0)
(0.099214 -9.69823e-06 0)
(0.0992744 -8.97135e-06 0)
(0.0993313 -8.29074e-06 0)
(0.099385 -7.65396e-06 0)
(0.0994355 -7.05864e-06 0)
(0.0994831 -6.50253e-06 0)
(0.0995277 -5.98348e-06 0)
(0.0995697 -5.49942e-06 0)
(0.099609 -5.04837e-06 0)
(0.0996458 -4.62841e-06 0)
(0.0996802 -4.23769e-06 0)
(0.0997123 -3.8745e-06 0)
(0.0997423 -3.53723e-06 0)
(0.0997702 -3.22443e-06 0)
(0.0997961 -2.93473e-06 0)
(0.0998202 -2.66674e-06 0)
(0.0998425 -2.41903e-06 0)
(0.0998632 -2.19017e-06 0)
(0.0998823 -1.97883e-06 0)
(0.0998998 -1.78389e-06 0)
(0.099916 -1.60452e-06 0)
(0.0999308 -1.44e-06 0)
(0.0999444 -1.28973e-06 0)
(0.0999568 -1.15284e-06 0)
(0.0999681 -1.02849e-06 0)
(0.0999784 -9.15498e-07 0)
(0.0999877 -8.13093e-07 0)
(0.0999962 -7.1996e-07 0)
(0.100004 -6.36103e-07 0)
(0.100011 -5.60073e-07 0)
(0.100017 -4.92944e-07 0)
(0.100023 -4.3218e-07 0)
(0.100027 -3.80218e-07 0)
(0.100032 -3.32271e-07 0)
(0.100036 -2.93683e-07 0)
(0.10004 -2.56394e-07 0)
(0.100042 -2.30455e-07 0)
(0.100047 -2.02534e-07 0)
(0.100048 -1.89532e-07 0)
(0.100053 -1.70315e-07 0)
(0.100052 -1.70084e-07 0)
(0.100058 -1.58869e-07 0)
(0.100056 -1.70979e-07 0)
(0.100064 -1.69258e-07 0)
(0.100061 -1.92534e-07 0)
(0.100071 -2.0427e-07 0)
(0.100066 -2.38123e-07 0)
(0.100079 -2.66839e-07 0)
(0.100074 -3.13246e-07 0)
(0.100091 -3.65305e-07 0)
(0.100085 -4.11291e-07 0)
(0.100106 -5.41647e-07 0)
(0.100103 -5.17611e-07 0)
(0.100127 -7.41004e-07 0)
(0.100127 -8.03137e-07 0)
(0.10016 -9.40858e-07 0)
(0.0977905 -8.64956e-05 0)
(0.0979235 -8.01689e-05 0)
(0.0980495 -7.44743e-05 0)
(0.0981691 -6.93124e-05 0)
(0.0982826 -6.4593e-05 0)
(0.0983906 -6.02393e-05 0)
(0.0984934 -5.61902e-05 0)
(0.0985911 -5.24009e-05 0)
(0.0986841 -4.88398e-05 0)
(0.0987725 -4.54859e-05 0)
(0.0988564 -4.23248e-05 0)
(0.098936 -3.93465e-05 0)
(0.0990115 -3.6543e-05 0)
(0.0990829 -3.39071e-05 0)
(0.0991505 -3.14317e-05 0)
(0.0992144 -2.91097e-05 0)
(0.0992748 -2.69337e-05 0)
(0.0993317 -2.48964e-05 0)
(0.0993853 -2.29904e-05 0)
(0.0994358 -2.12087e-05 0)
(0.0994834 -1.95444e-05 0)
(0.099528 -1.79909e-05 0)
(0.0995699 -1.65419e-05 0)
(0.0996092 -1.51914e-05 0)
(0.099646 -1.39336e-05 0)
(0.0996804 -1.27631e-05 0)
(0.0997125 -1.16748e-05 0)
(0.0997424 -1.06639e-05 0)
(0.0997703 -9.72575e-06 0)
(0.0997963 -8.85628e-06 0)
(0.0998203 -8.0513e-06 0)
(0.0998426 -7.30689e-06 0)
(0.0998633 -6.61916e-06 0)
(0.0998823 -5.98448e-06 0)
(0.0998999 -5.39959e-06 0)
(0.099916 -4.86157e-06 0)
(0.0999309 -4.36775e-06 0)
(0.0999444 -3.91572e-06 0)
(0.0999569 -3.50279e-06 0)
(0.0999682 -3.12669e-06 0)
(0.0999785 -2.78435e-06 0)
(0.0999878 -2.47406e-06 0)
(0.0999963 -2.1923e-06 0)
(0.100004 -1.93905e-06 0)
(0.100011 -1.70969e-06 0)
(0.100017 -1.50707e-06 0)
(0.100023 -1.32339e-06 0)
(0.100027 -1.16612e-06 0)
(0.100032 -1.02132e-06 0)
(0.100036 -9.04958e-07 0)
(0.10004 -7.92896e-07 0)
(0.100042 -7.14938e-07 0)
(0.100047 -6.30871e-07 0)
(0.100048 -5.90709e-07 0)
(0.100053 -5.31509e-07 0)
(0.100052 -5.28719e-07 0)
(0.100058 -4.93128e-07 0)
(0.100056 -5.26791e-07 0)
(0.100064 -5.1935e-07 0)
(0.100061 -5.86656e-07 0)
(0.100071 -6.19179e-07 0)
(0.100066 -7.17693e-07 0)
(0.100079 -8.02348e-07 0)
(0.100074 -9.39723e-07 0)
(0.100091 -1.09411e-06 0)
(0.100085 -1.232e-06 0)
(0.100106 -1.62161e-06 0)
(0.100103 -1.55067e-06 0)
(0.100127 -2.21642e-06 0)
(0.100127 -2.4005e-06 0)
(0.10016 -2.81076e-06 0)
(0.097793 -0.000144071 0)
(0.0979259 -0.000133539 0)
(0.0980518 -0.000124057 0)
(0.0981712 -0.00011546 0)
(0.0982846 -0.000107599 0)
(0.0983925 -0.000100346 0)
(0.0984952 -9.36014e-05 0)
(0.0985928 -8.72895e-05 0)
(0.0986857 -8.13582e-05 0)
(0.098774 -7.57723e-05 0)
(0.0988578 -7.0508e-05 0)
(0.0989373 -6.55484e-05 0)
(0.0990126 -6.088e-05 0)
(0.099084 -5.64908e-05 0)
(0.0991515 -5.23688e-05 0)
(0.0992153 -4.85023e-05 0)
(0.0992756 -4.4879e-05 0)
(0.0993324 -4.14866e-05 0)
(0.099386 -3.8313e-05 0)
(0.0994365 -3.53463e-05 0)
(0.0994839 -3.25751e-05 0)
(0.0995285 -2.99883e-05 0)
(0.0995704 -2.75753e-05 0)
(0.0996096 -2.53263e-05 0)
(0.0996463 -2.32315e-05 0)
(0.0996807 -2.1282e-05 0)
(0.0997128 -1.94693e-05 0)
(0.0997427 -1.77852e-05 0)
(0.0997706 -1.62223e-05 0)
(0.0997965 -1.47736e-05 0)
(0.0998205 -1.34321e-05 0)
(0.0998428 -1.21913e-05 0)
(0.0998634 -1.10451e-05 0)
(0.0998825 -9.98742e-06 0)
(0.0999 -9.01287e-06 0)
(0.0999162 -8.11647e-06 0)
(0.099931 -7.29358e-06 0)
(0.0999445 -6.54003e-06 0)
(0.0999569 -5.85125e-06 0)
(0.0999682 -5.22358e-06 0)
(0.0999785 -4.65202e-06 0)
(0.0999878 -4.134e-06 0)
(0.0999963 -3.66373e-06 0)
(0.100004 -3.24121e-06 0)
(0.100011 -2.85862e-06 0)
(0.100017 -2.52058e-06 0)
(0.100023 -2.21406e-06 0)
(0.100027 -1.95155e-06 0)
(0.100032 -1.70997e-06 0)
(0.100036 -1.51588e-06 0)
(0.10004 -1.32909e-06 0)
(0.100042 -1.19915e-06 0)
(0.100047 -1.05897e-06 0)
(0.100048 -9.9168e-07 0)
(0.100053 -8.92509e-07 0)
(0.100052 -8.87189e-07 0)
(0.100058 -8.27214e-07 0)
(0.100056 -8.82465e-07 0)
(0.100064 -8.69278e-07 0)
(0.100061 -9.80626e-07 0)
(0.100071 -1.03399e-06 0)
(0.100066 -1.1969e-06 0)
(0.100079 -1.33817e-06 0)
(0.100074 -1.56507e-06 0)
(0.100091 -1.82408e-06 0)
(0.100085 -2.05138e-06 0)
(0.100106 -2.70089e-06 0)
(0.100103 -2.58654e-06 0)
(0.100127 -3.68865e-06 0)
(0.100127 -3.99754e-06 0)
(0.10016 -4.68274e-06 0)
(0.0977967 -0.000201575 0)
(0.0979295 -0.000186851 0)
(0.0980552 -0.000173587 0)
(0.0981744 -0.000161557 0)
(0.0982877 -0.000150553 0)
(0.0983955 -0.000140401 0)
(0.0984979 -0.000130959 0)
(0.0985954 -0.000122125 0)
(0.0986881 -0.000113825 0)
(0.0987762 -0.000106009 0)
(0.0988598 -9.86438e-05 0)
(0.0989392 -9.17059e-05 0)
(0.0990144 -8.51758e-05 0)
(0.0990856 -7.90366e-05 0)
(0.099153 -7.32714e-05 0)
(0.0992166 -6.78635e-05 0)
(0.0992768 -6.27958e-05 0)
(0.0993335 -5.80511e-05 0)
(0.099387 -5.36123e-05 0)
(0.0994374 -4.9463e-05 0)
(0.0994848 -4.55869e-05 0)
(0.0995293 -4.19687e-05 0)
(0.0995711 -3.85936e-05 0)
(0.0996102 -3.54475e-05 0)
(0.0996469 -3.25172e-05 0)
(0.0996812 -2.97899e-05 0)
(0.0997132 -2.72538e-05 0)
(0.0997431 -2.48977e-05 0)
(0.099771 -2.2711e-05 0)
(0.0997968 -2.06838e-05 0)
(0.0998208 -1.88065e-05 0)
(0.0998431 -1.70701e-05 0)
(0.0998637 -1.5466e-05 0)
(0.0998827 -1.39858e-05 0)
(0.0999002 -1.26221e-05 0)
(0.0999163 -1.13678e-05 0)
(0.0999311 -1.02162e-05 0)
(0.0999447 -9.16149e-06 0)
(0.0999571 -8.19719e-06 0)
(0.0999683 -7.31823e-06 0)
(0.0999786 -6.51774e-06 0)
(0.0999879 -5.7922e-06 0)
(0.0999964 -5.13364e-06 0)
(0.100004 -4.54201e-06 0)
(0.100011 -4.00638e-06 0)
(0.100017 -3.53306e-06 0)
(0.100023 -3.10384e-06 0)
(0.100027 -2.73621e-06 0)
(0.100032 -2.39793e-06 0)
(0.100036 -2.12621e-06 0)
(0.10004 -1.86477e-06 0)
(0.100042 -1.68292e-06 0)
(0.100047 -1.48666e-06 0)
(0.100048 -1.39232e-06 0)
(0.100053 -1.25318e-06 0)
(0.100052 -1.24539e-06 0)
(0.100058 -1.16099e-06 0)
(0.100056 -1.23792e-06 0)
(0.100064 -1.21892e-06 0)
(0.100061 -1.37435e-06 0)
(0.100071 -1.44863e-06 0)
(0.100066 -1.67553e-06 0)
(0.100079 -1.8745e-06 0)
(0.100074 -2.18857e-06 0)
(0.100091 -2.55595e-06 0)
(0.100086 -2.86861e-06 0)
(0.100106 -3.77902e-06 0)
(0.100103 -3.62703e-06 0)
(0.100127 -5.15565e-06 0)
(0.100127 -5.59409e-06 0)
(0.10016 -6.55807e-06 0)
(0.0978018 -0.000258976 0)
(0.0979343 -0.000240076 0)
(0.0980598 -0.000223039 0)
(0.0981788 -0.000207579 0)
(0.0982919 -0.000193434 0)
(0.0983994 -0.000180381 0)
(0.0985016 -0.000168242 0)
(0.0985988 -0.000156886 0)
(0.0986913 -0.000146218 0)
(0.0987791 -0.000136175 0)
(0.0988626 -0.000126713 0)
(0.0989417 -0.000117801 0)
(0.0990167 -0.000109414 0)
(0.0990877 -0.000101529 0)
(0.0991549 -9.41256e-05 0)
(0.0992184 -8.71807e-05 0)
(0.0992784 -8.06728e-05 0)
(0.099335 -7.45796e-05 0)
(0.0993884 -6.88793e-05 0)
(0.0994386 -6.35505e-05 0)
(0.0994859 -5.85725e-05 0)
(0.0995303 -5.39255e-05 0)
(0.099572 -4.95906e-05 0)
(0.0996111 -4.55496e-05 0)
(0.0996477 -4.17857e-05 0)
(0.0996819 -3.82824e-05 0)
(0.0997139 -3.50246e-05 0)
(0.0997437 -3.19978e-05 0)
(0.0997715 -2.91886e-05 0)
(0.0997973 -2.6584e-05 0)
(0.0998212 -2.4172e-05 0)
(0.0998435 -2.19409e-05 0)
(0.099864 -1.98797e-05 0)
(0.099883 -1.79779e-05 0)
(0.0999005 -1.62257e-05 0)
(0.0999166 -1.4614e-05 0)
(0.0999313 -1.31344e-05 0)
(0.0999449 -1.1779e-05 0)
(0.0999572 -1.05396e-05 0)
(0.0999685 -9.40977e-06 0)
(0.0999787 -8.38069e-06 0)
(0.099988 -7.44798e-06 0)
(0.0999965 -6.6014e-06 0)
(0.100004 -5.84094e-06 0)
(0.100011 -5.15248e-06 0)
(0.100017 -4.5441e-06 0)
(0.100023 -3.99236e-06 0)
(0.100027 -3.51979e-06 0)
(0.100032 -3.08492e-06 0)
(0.100036 -2.73573e-06 0)
(0.10004 -2.39968e-06 0)
(0.100042 -2.16608e-06 0)
(0.100047 -1.91374e-06 0)
(0.100048 -1.79251e-06 0)
(0.100053 -1.61332e-06 0)
(0.100052 -1.60326e-06 0)
(0.100058 -1.49428e-06 0)
(0.100056 -1.59312e-06 0)
(0.100064 -1.56811e-06 0)
(0.100061 -1.76779e-06 0)
(0.100071 -1.86294e-06 0)
(0.100066 -2.1534e-06 0)
(0.100079 -2.41141e-06 0)
(0.100074 -2.80961e-06 0)
(0.100091 -3.29028e-06 0)
(0.100086 -3.68296e-06 0)
(0.100106 -4.85546e-06 0)
(0.100103 -4.6739e-06 0)
(0.100127 -6.61537e-06 0)
(0.100127 -7.19018e-06 0)
(0.10016 -8.43778e-06 0)
(0.0978082 -0.000316236 0)
(0.0979403 -0.000293183 0)
(0.0980655 -0.000272386 0)
(0.0981843 -0.0002535 0)
(0.098297 -0.000236215 0)
(0.0984043 -0.000220261 0)
(0.0985062 -0.000205426 0)
(0.0986031 -0.000191548 0)
(0.0986953 -0.000178516 0)
(0.0987829 -0.00016625 0)
(0.098866 -0.000154696 0)
(0.0989448 -0.000143816 0)
(0.0990196 -0.000133578 0)
(0.0990904 -0.000123954 0)
(0.0991573 -0.000114918 0)
(0.0992206 -0.000106441 0)
(0.0992804 -9.84986e-05 0)
(0.0993369 -9.10619e-05 0)
(0.09939 -8.41045e-05 0)
(0.0994401 -7.76004e-05 0)
(0.0994873 -7.15242e-05 0)
(0.0995316 -6.58518e-05 0)
(0.0995731 -6.05602e-05 0)
(0.0996121 -5.56272e-05 0)
(0.0996486 -5.10321e-05 0)
(0.0996828 -4.67551e-05 0)
(0.0997146 -4.27776e-05 0)
(0.0997444 -3.9082e-05 0)
(0.0997721 -3.56518e-05 0)
(0.0997978 -3.24715e-05 0)
(0.0998218 -2.95261e-05 0)
(0.0998439 -2.68015e-05 0)
(0.0998644 -2.42843e-05 0)
(0.0998834 -2.19617e-05 0)
(0.0999008 -1.98219e-05 0)
(0.0999169 -1.78538e-05 0)
(0.0999316 -1.60467e-05 0)
(0.0999451 -1.43913e-05 0)
(0.0999574 -1.28775e-05 0)
(0.0999687 -1.14973e-05 0)
(0.0999789 -1.02401e-05 0)
(0.0999881 -9.1006e-06 0)
(0.0999966 -8.06637e-06 0)
(0.100004 -7.13744e-06 0)
(0.100011 -6.29643e-06 0)
(0.100017 -5.55328e-06 0)
(0.100023 -4.87921e-06 0)
(0.100027 -4.30196e-06 0)
(0.100032 -3.77063e-06 0)
(0.100036 -3.3442e-06 0)
(0.10004 -2.93359e-06 0)
(0.100042 -2.64848e-06 0)
(0.100047 -2.34e-06 0)
(0.100048 -2.19215e-06 0)
(0.100053 -1.97275e-06 0)
(0.100052 -1.96072e-06 0)
(0.100058 -1.82692e-06 0)
(0.100056 -1.94801e-06 0)
(0.100064 -1.91665e-06 0)
(0.100061 -2.16089e-06 0)
(0.100071 -2.27678e-06 0)
(0.100066 -2.63036e-06 0)
(0.100079 -2.94897e-06 0)
(0.100074 -3.42761e-06 0)
(0.100091 -4.02758e-06 0)
(0.100086 -4.49379e-06 0)
(0.100106 -5.92968e-06 0)
(0.100103 -5.72871e-06 0)
(0.100127 -8.06591e-06 0)
(0.100127 -8.78581e-06 0)
(0.10016 -1.03228e-05 0)
(0.097816 -0.000373313 0)
(0.0979477 -0.000346136 0)
(0.0980725 -0.000321594 0)
(0.0981909 -0.000299292 0)
(0.0983033 -0.000278869 0)
(0.0984102 -0.000260016 0)
(0.0985117 -0.000242485 0)
(0.0986083 -0.00022609 0)
(0.0987001 -0.000210696 0)
(0.0987873 -0.000196212 0)
(0.0988701 -0.000182573 0)
(0.0989486 -0.000169732 0)
(0.099023 -0.000157651 0)
(0.0990935 -0.000146295 0)
(0.0991602 -0.000135634 0)
(0.0992233 -0.000125633 0)
(0.0992829 -0.000116262 0)
(0.0993391 -0.000107488 0)
(0.0993921 -9.92788e-05 0)
(0.099442 -9.16044e-05 0)
(0.0994889 -8.44346e-05 0)
(0.0995331 -7.77411e-05 0)
(0.0995745 -7.14964e-05 0)
(0.0996134 -6.56748e-05 0)
(0.0996498 -6.02516e-05 0)
(0.0996838 -5.52036e-05 0)
(0.0997156 -5.05088e-05 0)
(0.0997452 -4.61467e-05 0)
(0.0997728 -4.20976e-05 0)
(0.0997985 -3.83432e-05 0)
(0.0998224 -3.48661e-05 0)
(0.0998445 -3.16495e-05 0)
(0.0998649 -2.86776e-05 0)
(0.0998838 -2.59355e-05 0)
(0.0999012 -2.34092e-05 0)
(0.0999172 -2.10855e-05 0)
(0.0999319 -1.8952e-05 0)
(0.0999454 -1.69974e-05 0)
(0.0999577 -1.52097e-05 0)
(0.0999689 -1.35798e-05 0)
(0.0999791 -1.20951e-05 0)
(0.0999883 -1.07493e-05 0)
(0.0999967 -9.52795e-06 0)
(0.100004 -8.43091e-06 0)
(0.100011 -7.43776e-06 0)
(0.100017 -6.56012e-06 0)
(0.100023 -5.76409e-06 0)
(0.100028 -5.0823e-06 0)
(0.100032 -4.45488e-06 0)
(0.100036 -3.95122e-06 0)
(0.10004 -3.46645e-06 0)
(0.100042 -3.12968e-06 0)
(0.100047 -2.76553e-06 0)
(0.100048 -2.59075e-06 0)
(0.100053 -2.33167e-06 0)
(0.100052 -2.31724e-06 0)
(0.100058 -2.15918e-06 0)
(0.100056 -2.30202e-06 0)
(0.100064 -2.26488e-06 0)
(0.100061 -2.55306e-06 0)
(0.100071 -2.69052e-06 0)
(0.100066 -3.1057e-06 0)
(0.100079 -3.48775e-06 0)
(0.100074 -4.04147e-06 0)
(0.10009 -4.76887e-06 0)
(0.100086 -5.29973e-06 0)
(0.100106 -7.00212e-06 0)
(0.100103 -6.79161e-06 0)
(0.100127 -9.50705e-06 0)
(0.100127 -1.03793e-05 0)
(0.100159 -1.22159e-05 0)
(0.0978256 -0.000431523 0)
(0.0979567 -0.00040016 0)
(0.098081 -0.000371805 0)
(0.0981989 -0.000346016 0)
(0.0983108 -0.000322386 0)
(0.0984172 -0.000300568 0)
(0.0985184 -0.00028028 0)
(0.0986145 -0.000261311 0)
(0.0987058 -0.000243505 0)
(0.0987926 -0.000226757 0)
(0.098875 -0.000210991 0)
(0.0989531 -0.000196151 0)
(0.0990272 -0.000182191 0)
(0.0990973 -0.000169072 0)
(0.0991637 -0.000156755 0)
(0.0992265 -0.000145202 0)
(0.0992858 -0.000134376 0)
(0.0993417 -0.000124239 0)
(0.0993945 -0.000114756 0)
(0.0994442 -0.000105889 0)
(0.0994909 -9.76048e-05 0)
(0.0995349 -8.98705e-05 0)
(0.0995762 -8.26545e-05 0)
(0.0996149 -7.5927e-05 0)
(0.0996511 -6.96595e-05 0)
(0.099685 -6.38253e-05 0)
(0.0997167 -5.83992e-05 0)
(0.0997462 -5.33571e-05 0)
(0.0997738 -4.86768e-05 0)
(0.0997993 -4.43368e-05 0)
(0.0998231 -4.03171e-05 0)
(0.0998451 -3.65984e-05 0)
(0.0998655 -3.31626e-05 0)
(0.0998843 -2.99925e-05 0)
(0.0999017 -2.70716e-05 0)
(0.0999176 -2.43851e-05 0)
(0.0999323 -2.19183e-05 0)
(0.0999457 -1.96582e-05 0)
(0.099958 -1.75911e-05 0)
(0.0999691 -1.57062e-05 0)
(0.0999793 -1.39892e-05 0)
(0.0999885 -1.24329e-05 0)
(0.0999969 -1.10205e-05 0)
(0.100004 -9.75163e-06 0)
(0.100011 -8.60339e-06 0)
(0.100017 -7.58807e-06 0)
(0.100023 -6.66799e-06 0)
(0.100028 -5.87884e-06 0)
(0.100032 -5.15411e-06 0)
(0.100036 -4.57056e-06 0)
(0.10004 -4.01135e-06 0)
(0.100042 -3.62026e-06 0)
(0.100047 -3.20115e-06 0)
(0.100048 -2.99671e-06 0)
(0.100053 -2.69961e-06 0)
(0.100052 -2.68e-06 0)
(0.100058 -2.50017e-06 0)
(0.100056 -2.66213e-06 0)
(0.100064 -2.62241e-06 0)
(0.100061 -2.95209e-06 0)
(0.100071 -3.11541e-06 0)
(0.100066 -3.58907e-06 0)
(0.100079 -4.04222e-06 0)
(0.100074 -4.66367e-06 0)
(0.10009 -5.53415e-06 0)
(0.100086 -6.11729e-06 0)
(0.100105 -8.10061e-06 0)
(0.100103 -7.88606e-06 0)
(0.100127 -1.09758e-05 0)
(0.100127 -1.20037e-05 0)
(0.100159 -1.41689e-05 0)
(0.0978371 -0.000490783 0)
(0.0979675 -0.000455183 0)
(0.0980911 -0.000422957 0)
(0.0982084 -0.000393616 0)
(0.0983198 -0.000366715 0)
(0.0984256 -0.000341868 0)
(0.0985262 -0.000318765 0)
(0.0986218 -0.000297168 0)
(0.0987126 -0.000276902 0)
(0.0987989 -0.000257847 0)
(0.0988808 -0.000239915 0)
(0.0989584 -0.00022304 0)
(0.0990321 -0.000207169 0)
(0.0991018 -0.000192256 0)
(0.0991678 -0.000178256 0)
(0.0992302 -0.000165125 0)
(0.0992892 -0.00015282 0)
(0.0993448 -0.000141299 0)
(0.0993973 -0.000130518 0)
(0.0994468 -0.000120439 0)
(0.0994933 -0.000111022 0)
(0.099537 -0.000102228 0)
(0.0995781 -9.40238e-05 0)
(0.0996166 -8.63742e-05 0)
(0.0996527 -7.92472e-05 0)
(0.0996865 -7.26126e-05 0)
(0.099718 -6.64416e-05 0)
(0.0997474 -6.07071e-05 0)
(0.0997748 -5.53837e-05 0)
(0.0998003 -5.04472e-05 0)
(0.099824 -4.58746e-05 0)
(0.0998459 -4.16444e-05 0)
(0.0998662 -3.77357e-05 0)
(0.099885 -3.41292e-05 0)
(0.0999022 -3.08063e-05 0)
(0.0999181 -2.77498e-05 0)
(0.0999327 -2.49433e-05 0)
(0.0999461 -2.23718e-05 0)
(0.0999583 -2.00198e-05 0)
(0.0999694 -1.78749e-05 0)
(0.0999796 -1.59211e-05 0)
(0.0999887 -1.41498e-05 0)
(0.0999971 -1.25428e-05 0)
(0.100005 -1.10986e-05 0)
(0.100011 -9.79242e-06 0)
(0.100017 -8.63634e-06 0)
(0.100023 -7.59023e-06 0)
(0.100028 -6.69093e-06 0)
(0.100033 -5.86781e-06 0)
(0.100036 -5.20169e-06 0)
(0.10004 -4.56793e-06 0)
(0.100042 -4.11979e-06 0)
(0.100047 -3.64661e-06 0)
(0.100048 -3.40962e-06 0)
(0.100053 -3.07638e-06 0)
(0.100052 -3.04864e-06 0)
(0.100058 -2.84976e-06 0)
(0.100056 -3.02799e-06 0)
(0.100064 -2.98912e-06 0)
(0.100061 -3.35764e-06 0)
(0.100071 -3.55135e-06 0)
(0.100066 -4.07998e-06 0)
(0.100079 -4.61256e-06 0)
(0.100074 -5.29314e-06 0)
(0.10009 -6.32416e-06 0)
(0.100086 -6.9452e-06 0)
(0.100105 -9.22475e-06 0)
(0.100103 -9.01337e-06 0)
(0.100127 -1.24702e-05 0)
(0.100126 -1.36584e-05 0)
(0.100159 -1.6184e-05 0)
(0.0978503 -0.000549662 0)
(0.0979798 -0.000509882 0)
(0.0981026 -0.000473819 0)
(0.0982192 -0.00044095 0)
(0.0983299 -0.000410793 0)
(0.0984351 -0.00038293 0)
(0.0985351 -0.000357021 0)
(0.09863 -0.000332805 0)
(0.0987203 -0.000310091 0)
(0.0988059 -0.000288741 0)
(0.0988873 -0.000268656 0)
(0.0989644 -0.00024976 0)
(0.0990376 -0.000231993 0)
(0.0991068 -0.000215299 0)
(0.0991724 -0.000199629 0)
(0.0992344 -0.000184932 0)
(0.099293 -0.000171159 0)
(0.0993484 -0.000158262 0)
(0.0994005 -0.000146195 0)
(0.0994497 -0.000134911 0)
(0.099496 -0.000124368 0)
(0.0995395 -0.000114523 0)
(0.0995803 -0.000105336 0)
(0.0996186 -9.67702e-05 0)
(0.0996545 -8.87889e-05 0)
(0.0996881 -8.13585e-05 0)
(0.0997195 -7.44468e-05 0)
(0.0997488 -6.80237e-05 0)
(0.099776 -6.20606e-05 0)
(0.0998014 -5.65306e-05 0)
(0.099825 -5.1408e-05 0)
(0.0998468 -4.66687e-05 0)
(0.099867 -4.22895e-05 0)
(0.0998857 -3.82486e-05 0)
(0.0999029 -3.45255e-05 0)
(0.0999187 -3.11008e-05 0)
(0.0999332 -2.7956e-05 0)
(0.0999465 -2.50744e-05 0)
(0.0999587 -2.24387e-05 0)
(0.0999698 -2.00349e-05 0)
(0.0999799 -1.78453e-05 0)
(0.099989 -1.586e-05 0)
(0.0999973 -1.40592e-05 0)
(0.100005 -1.24402e-05 0)
(0.100012 -1.09768e-05 0)
(0.100018 -9.68048e-06 0)
(0.100023 -8.50892e-06 0)
(0.100028 -7.4998e-06 0)
(0.100033 -6.57883e-06 0)
(0.100036 -5.83029e-06 0)
(0.10004 -5.12251e-06 0)
(0.100042 -4.61727e-06 0)
(0.100047 -4.09056e-06 0)
(0.100048 -3.82082e-06 0)
(0.100053 -3.45199e-06 0)
(0.100052 -3.41577e-06 0)
(0.100058 -3.19838e-06 0)
(0.100056 -3.39247e-06 0)
(0.100064 -3.35492e-06 0)
(0.100061 -3.76174e-06 0)
(0.100071 -3.98662e-06 0)
(0.100066 -4.5685e-06 0)
(0.100079 -5.18398e-06 0)
(0.100074 -5.91672e-06 0)
(0.10009 -7.11899e-06 0)
(0.100086 -7.76616e-06 0)
(0.100105 -1.03457e-05 0)
(0.100103 -1.01516e-05 0)
(0.100127 -1.39508e-05 0)
(0.100126 -1.53104e-05 0)
(0.100159 -1.82102e-05 0)
(0.0978653 -0.000608085 0)
(0.0979938 -0.000564189 0)
(0.0981157 -0.000524336 0)
(0.0982314 -0.000487969 0)
(0.0983413 -0.000454577 0)
(0.0984458 -0.000423713 0)
(0.098545 -0.000395013 0)
(0.0986392 -0.000368193 0)
(0.0987288 -0.000343044 0)
(0.0988138 -0.000319414 0)
(0.0988945 -0.000297191 0)
(0.0989711 -0.00027629 0)
(0.0990437 -0.000256642 0)
(0.0991125 -0.000238183 0)
(0.0991776 -0.000220857 0)
(0.0992391 -0.000204607 0)
(0.0992973 -0.000189378 0)
(0.0993523 -0.000175118 0)
(0.0994041 -0.000161774 0)
(0.099453 -0.000149296 0)
(0.0994989 -0.000137636 0)
(0.0995422 -0.000126746 0)
(0.0995828 -0.000116585 0)
(0.0996209 -0.000107109 0)
(0.0996566 -9.82789e-05 0)
(0.0996899 -9.00579e-05 0)
(0.0997211 -8.24103e-05 0)
(0.0997503 -7.53027e-05 0)
(0.0997774 -6.87038e-05 0)
(0.0998026 -6.25838e-05 0)
(0.0998261 -5.69143e-05 0)
(0.0998478 -5.16687e-05 0)
(0.0998679 -4.68215e-05 0)
(0.0998864 -4.23486e-05 0)
(0.0999036 -3.82272e-05 0)
(0.0999193 -3.44361e-05 0)
(0.0999338 -3.09548e-05 0)
(0.099947 -2.77646e-05 0)
(0.0999591 -2.48466e-05 0)
(0.0999701 -2.21851e-05 0)
(0.0999802 -1.97609e-05 0)
(0.0999893 -1.75625e-05 0)
(0.0999976 -1.55688e-05 0)
(0.100005 -1.37759e-05 0)
(0.100012 -1.21559e-05 0)
(0.100018 -1.072e-05 0)
(0.100023 -9.4235e-06 0)
(0.100028 -8.30513e-06 0)
(0.100033 -7.28665e-06 0)
(0.100036 -6.45617e-06 0)
(0.10004 -5.67455e-06 0)
(0.100042 -5.11266e-06 0)
(0.100047 -4.53246e-06 0)
(0.100048 -4.23039e-06 0)
(0.100053 -3.82583e-06 0)
(0.100052 -3.78161e-06 0)
(0.100058 -3.54536e-06 0)
(0.100056 -3.75587e-06 0)
(0.100064 -3.7191e-06 0)
(0.100061 -4.16474e-06 0)
(0.100071 -4.42047e-06 0)
(0.100066 -5.05495e-06 0)
(0.100079 -5.75571e-06 0)
(0.100074 -6.53467e-06 0)
(0.10009 -7.91783e-06 0)
(0.100086 -8.58054e-06 0)
(0.100105 -1.14623e-05 0)
(0.100103 -1.13018e-05 0)
(0.100126 -1.54159e-05 0)
(0.100126 -1.69612e-05 0)
(0.100159 -2.0246e-05 0)
(0.0978822 -0.000665972 0)
(0.0980095 -0.000618037 0)
(0.0981303 -0.000574446 0)
(0.098245 -0.00053462 0)
(0.098354 -0.00049802 0)
(0.0984576 -0.000464177 0)
(0.0985559 -0.000432703 0)
(0.0986494 -0.000403298 0)
(0.0987382 -0.000375732 0)
(0.0988225 -0.00034984 0)
(0.0989025 -0.000325498 0)
(0.0989784 -0.00030261 0)
(0.0990504 -0.000281098 0)
(0.0991186 -0.000260891 0)
(0.0991832 -0.000241924 0)
(0.0992443 -0.000224137 0)
(0.0993021 -0.000207467 0)
(0.0993566 -0.000191856 0)
(0.0994081 -0.000177247 0)
(0.0994566 -0.000163584 0)
(0.0995022 -0.000150816 0)
(0.0995451 -0.000138892 0)
(0.0995855 -0.000127763 0)
(0.0996233 -0.000117384 0)
(0.0996588 -0.000107712 0)
(0.099692 -9.87058e-05 0)
(0.099723 -9.03274e-05 0)
(0.0997519 -8.25402e-05 0)
(0.0997789 -7.53097e-05 0)
(0.099804 -6.86034e-05 0)
(0.0998273 -6.23905e-05 0)
(0.0998489 -5.66417e-05 0)
(0.0998688 -5.13292e-05 0)
(0.0998873 -4.64269e-05 0)
(0.0999043 -4.19096e-05 0)
(0.09992 -3.77542e-05 0)
(0.0999344 -3.39381e-05 0)
(0.0999475 -3.04411e-05 0)
(0.0999596 -2.72423e-05 0)
(0.0999705 -2.43245e-05 0)
(0.0999805 -2.16668e-05 0)
(0.0999896 -1.92565e-05 0)
(0.0999978 -1.70707e-05 0)
(0.100005 -1.51048e-05 0)
(0.100012 -1.33291e-05 0)
(0.100018 -1.17543e-05 0)
(0.100023 -1.03335e-05 0)
(0.100028 -9.10643e-06 0)
(0.100033 -7.99088e-06 0)
(0.100036 -7.07895e-06 0)
(0.10004 -6.22377e-06 0)
(0.100042 -5.60565e-06 0)
(0.100047 -4.97205e-06 0)
(0.100048 -4.63806e-06 0)
(0.100053 -4.1977e-06 0)
(0.100052 -4.1459e-06 0)
(0.100058 -3.89053e-06 0)
(0.100056 -4.11796e-06 0)
(0.100064 -4.08149e-06 0)
(0.10006 -4.5664e-06 0)
(0.100071 -4.85271e-06 0)
(0.100066 -5.53909e-06 0)
(0.100079 -6.32749e-06 0)
(0.100074 -7.14677e-06 0)
(0.10009 -8.72037e-06 0)
(0.100086 -9.38801e-06 0)
(0.100104 -1.25743e-05 0)
(0.100103 -1.24634e-05 0)
(0.100126 -1.68655e-05 0)
(0.100125 -1.86104e-05 0)
(0.100159 -2.22918e-05 0)
(0.097901 -0.00072324 0)
(0.0980269 -0.000671349 0)
(0.0981464 -0.000624083 0)
(0.09826 -0.000580843 0)
(0.098368 -0.000541071 0)
(0.0984705 -0.000504277 0)
(0.098568 -0.000470056 0)
(0.0986605 -0.000438086 0)
(0.0987485 -0.000408126 0)
(0.098832 -0.000379993 0)
(0.0989113 -0.000353553 0)
(0.0989865 -0.000328698 0)
(0.0990578 -0.000305342 0)
(0.0991254 -0.000283405 0)
(0.0991894 -0.000262817 0)
(0.09925 -0.000243508 0)
(0.0993072 -0.000225411 0)
(0.0993613 -0.000208463 0)
(0.0994124 -0.000192602 0)
(0.0994605 -0.000177767 0)
(0.0995058 -0.000163902 0)
(0.0995484 -0.000150951 0)
(0.0995884 -0.000138863 0)
(0.099626 -0.000127589 0)
(0.0996612 -0.000117082 0)
(0.0996942 -0.000107297 0)
(0.099725 -9.81939e-05 0)
(0.0997537 -8.9732e-05 0)
(0.0997805 -8.18745e-05 0)
(0.0998054 -7.45862e-05 0)
(0.0998286 -6.78335e-05 0)
(0.0998501 -6.1585e-05 0)
(0.0998699 -5.58104e-05 0)
(0.0998883 -5.04813e-05 0)
(0.0999052 -4.55706e-05 0)
(0.0999207 -4.10531e-05 0)
(0.099935 -3.69044e-05 0)
(0.0999481 -3.31024e-05 0)
(0.0999601 -2.96245e-05 0)
(0.099971 -2.64518e-05 0)
(0.0999809 -2.3562e-05 0)
(0.0999899 -2.0941e-05 0)
(0.0999981 -1.85643e-05 0)
(0.100005 -1.64264e-05 0)
(0.100012 -1.44957e-05 0)
(0.100018 -1.27828e-05 0)
(0.100024 -1.12383e-05 0)
(0.100028 -9.90324e-06 0)
(0.100033 -8.69112e-06 0)
(0.100036 -7.69823e-06 0)
(0.10004 -6.76984e-06 0)
(0.100043 -6.09589e-06 0)
(0.100047 -5.40911e-06 0)
(0.100048 -5.04352e-06 0)
(0.100053 -4.56741e-06 0)
(0.100052 -4.50837e-06 0)
(0.100058 -4.23372e-06 0)
(0.100056 -4.47845e-06 0)
(0.100064 -4.44191e-06 0)
(0.10006 -4.96646e-06 0)
(0.100071 -5.2831e-06 0)
(0.100066 -6.0207e-06 0)
(0.100079 -6.89899e-06 0)
(0.100074 -7.75283e-06 0)
(0.100089 -9.52612e-06 0)
(0.100086 -1.01884e-05 0)
(0.100104 -1.36816e-05 0)
(0.100103 -1.36355e-05 0)
(0.100126 -1.82997e-05 0)
(0.100125 -2.02577e-05 0)
(0.100159 -2.43478e-05 0)
(0.0979217 -0.000779801 0)
(0.098046 -0.000724048 0)
(0.0981641 -0.00067318 0)
(0.0982765 -0.000626581 0)
(0.0983832 -0.00058368 0)
(0.0984846 -0.00054397 0)
(0.098581 -0.000507031 0)
(0.0986726 -0.000472525 0)
(0.0987596 -0.000440195 0)
(0.0988423 -0.000409847 0)
(0.0989207 -0.000381333 0)
(0.0989952 -0.000354535 0)
(0.0990658 -0.000329356 0)
(0.0991327 -0.000305711 0)
(0.0991961 -0.000283519 0)
(0.0992561 -0.000262706 0)
(0.0993129 -0.0002432 0)
(0.0993665 -0.00022493 0)
(0.0994171 -0.00020783 0)
(0.0994648 -0.000191835 0)
(0.0995097 -0.000176884 0)
(0.099552 -0.000162917 0)
(0.0995917 -0.00014988 0)
(0.099629 -0.000137719 0)
(0.0996639 -0.000126384 0)
(0.0996966 -0.000115827 0)
(0.0997272 -0.000106005 0)
(0.0997557 -9.68741e-05 0)
(0.0997823 -8.83946e-05 0)
(0.0998071 -8.05288e-05 0)
(0.09983 -7.32405e-05 0)
(0.0998514 -6.64959e-05 0)
(0.0998711 -6.02625e-05 0)
(0.0998893 -5.45097e-05 0)
(0.0999061 -4.92084e-05 0)
(0.0999216 -4.43312e-05 0)
(0.0999358 -3.98521e-05 0)
(0.0999488 -3.57471e-05 0)
(0.0999607 -3.19918e-05 0)
(0.0999715 -2.85659e-05 0)
(0.0999814 -2.54455e-05 0)
(0.0999903 -2.2615e-05 0)
(0.0999984 -2.00487e-05 0)
(0.100006 -1.77397e-05 0)
(0.100012 -1.56551e-05 0)
(0.100018 -1.38049e-05 0)
(0.100024 -1.21375e-05 0)
(0.100028 -1.06951e-05 0)
(0.100033 -9.38695e-06 0)
(0.100036 -8.31363e-06 0)
(0.10004 -7.31243e-06 0)
(0.100043 -6.58307e-06 0)
(0.100047 -5.84333e-06 0)
(0.100048 -5.44652e-06 0)
(0.100053 -4.9347e-06 0)
(0.100052 -4.86878e-06 0)
(0.100058 -4.57469e-06 0)
(0.100056 -4.83715e-06 0)
(0.100064 -4.8001e-06 0)
(0.10006 -5.36473e-06 0)
(0.10007 -5.71133e-06 0)
(0.100066 -6.49962e-06 0)
(0.100079 -7.46974e-06 0)
(0.100074 -8.35286e-06 0)
(0.100089 -1.03344e-05 0)
(0.100085 -1.09815e-05 0)
(0.100103 -1.47839e-05 0)
(0.100102 -1.48169e-05 0)
(0.100126 -1.97191e-05 0)
(0.100124 -2.19031e-05 0)
(0.100158 -2.6414e-05 0)
(0.0979444 -0.000835566 0)
(0.0980669 -0.000776056 0)
(0.0981834 -0.000721666 0)
(0.0982943 -0.000671773 0)
(0.0983997 -0.000625793 0)
(0.0984999 -0.00058321 0)
(0.0985951 -0.000543589 0)
(0.0986856 -0.000506579 0)
(0.0987716 -0.000471911 0)
(0.0988533 -0.000439376 0)
(0.0989309 -0.000408814 0)
(0.0990045 -0.000380099 0)
(0.0990744 -0.000353122 0)
(0.0991406 -0.00032779 0)
(0.0992033 -0.000304017 0)
(0.0992627 -0.00028172 0)
(0.0993189 -0.000260821 0)
(0.099372 -0.000241245 0)
(0.0994221 -0.000222921 0)
(0.0994694 -0.000205779 0)
(0.0995139 -0.000189754 0)
(0.0995558 -0.000174783 0)
(0.0995952 -0.000160806 0)
(0.0996321 -0.000147767 0)
(0.0996668 -0.000135612 0)
(0.0996992 -0.000124291 0)
(0.0997295 -0.000113756 0)
(0.0997579 -0.000103962 0)
(0.0997842 -9.48664e-05 0)
(0.0998088 -8.64279e-05 0)
(0.0998316 -7.86084e-05 0)
(0.0998528 -7.13717e-05 0)
(0.0998723 -6.46831e-05 0)
(0.0998904 -5.85098e-05 0)
(0.0999071 -5.28208e-05 0)
(0.0999225 -4.75867e-05 0)
(0.0999366 -4.27796e-05 0)
(0.0999495 -3.83737e-05 0)
(0.0999613 -3.4343e-05 0)
(0.099972 -3.06657e-05 0)
(0.0999818 -2.73162e-05 0)
(0.0999907 -2.42777e-05 0)
(0.0999988 -2.15229e-05 0)
(0.100006 -1.90442e-05 0)
(0.100013 -1.68066e-05 0)
(0.100018 -1.48201e-05 0)
(0.100024 -1.30306e-05 0)
(0.100028 -1.14814e-05 0)
(0.100033 -1.00779e-05 0)
(0.100036 -8.92476e-06 0)
(0.100041 -7.85116e-06 0)
(0.100043 -7.06686e-06 0)
(0.100047 -6.27441e-06 0)
(0.100048 -5.84677e-06 0)
(0.100052 -5.29931e-06 0)
(0.100052 -5.22689e-06 0)
(0.100058 -4.91318e-06 0)
(0.100056 -5.19383e-06 0)
(0.100064 -5.15578e-06 0)
(0.10006 -5.761e-06 0)
(0.10007 -6.13706e-06 0)
(0.100066 -6.97572e-06 0)
(0.100078 -8.03921e-06 0)
(0.100073 -8.94692e-06 0)
(0.100089 -1.11443e-05 0)
(0.100085 -1.17675e-05 0)
(0.100103 -1.58809e-05 0)
(0.100102 -1.60064e-05 0)
(0.100126 -2.11243e-05 0)
(0.100124 -2.35462e-05 0)
(0.100158 -2.84898e-05 0)
(0.097969 -0.000890447 0)
(0.0980895 -0.000827291 0)
(0.0982043 -0.000769471 0)
(0.0983135 -0.000716356 0)
(0.0984174 -0.000667357 0)
(0.0985163 -0.000621951 0)
(0.0986103 -0.00057969 0)
(0.0986996 -0.000540216 0)
(0.0987845 -0.000503243 0)
(0.0988652 -0.000468554 0)
(0.0989418 -0.000435975 0)
(0.0990145 -0.00040537 0)
(0.0990836 -0.000376622 0)
(0.099149 -0.000349628 0)
(0.0992111 -0.000324295 0)
(0.0992698 -0.000300535 0)
(0.0993254 -0.000278262 0)
(0.0993779 -0.000257398 0)
(0.0994275 -0.000237866 0)
(0.0994743 -0.000219591 0)
(0.0995184 -0.000202505 0)
(0.0995599 -0.00018654 0)
(0.0995989 -0.000171634 0)
(0.0996355 -0.000157727 0)
(0.0996699 -0.000144761 0)
(0.099702 -0.000132684 0)
(0.0997321 -0.000121444 0)
(0.0997602 -0.000110993 0)
(0.0997863 -0.000101286 0)
(0.0998107 -9.22803e-05 0)
(0.0998333 -8.39343e-05 0)
(0.0998543 -7.62098e-05 0)
(0.0998737 -6.90698e-05 0)
(0.0998917 -6.24796e-05 0)
(0.0999082 -5.64059e-05 0)
(0.0999234 -5.08178e-05 0)