/*--------------------------------*- C++ -*----------------------------------*\
| =========                 |                                                 |
| \\      /  F ield         | OpenFOAM: The Open Source CFD Toolbox           |
|  \\    /   O peration     | Version:  2412                                  |
|   \\  /    A nd           | Website:  www.openfoam.com                      |
|    \\/     M anipulation  |                                                 |
\*---------------------------------------------------------------------------*/
FoamFile
{
    version     2.0;
    format      ascii;
    arch        "LSB;label=32;scalar=64";
    class       volScalarField;
    location    "5.5";
    object      p;
}
// * * * * * * * * * * * * * * * * * * * * * * * * * * * * * * * * * * * * * //

dimensions      [0 2 -2 0 0 0 0];

internalField   nonuniform List<scalar> 
5285
(
-0.000142854
-0.000138552
-0.000134352
-0.000130251
-0.000140371
-0.000136165
-0.000132053
-0.000128036
-0.000124114
-0.000120284
-0.000116546
-0.000112899
-0.000109341
-0.000105871
-0.000102488
-9.91891e-05
-9.59737e-05
-9.28396e-05
-8.9785e-05
-8.6808e-05
-8.39067e-05
-8.10791e-05
-7.83232e-05
-7.56374e-05
-7.30195e-05
-7.0468e-05
-6.79811e-05
-6.5557e-05
-6.31943e-05
-6.08912e-05
-5.86465e-05
-5.64586e-05
-5.43264e-05
-5.22484e-05
-5.02235e-05
-4.82507e-05
-4.63289e-05
-4.44572e-05
-4.26345e-05
-4.08602e-05
-3.91334e-05
-3.74534e-05
-3.58196e-05
-3.42312e-05
-3.26876e-05
-3.11884e-05
-2.97329e-05
-2.83208e-05
-0.000137718
-0.000133614
-0.0001296
-0.000125675
-0.000121838
-0.00011809
-0.000114428
-0.000110854
-0.000107364
-0.000103959
-0.000100638
-9.73977e-05
-9.4238e-05
-9.11571e-05
-8.81535e-05
-8.52254e-05
-8.23711e-05
-7.95888e-05
-7.68768e-05
-7.42334e-05
-7.16568e-05
-6.91455e-05
-6.66978e-05
-6.43121e-05
-6.19869e-05
-5.97207e-05
-5.75121e-05
-5.53599e-05
-5.32626e-05
-5.12191e-05
-4.92282e-05
-4.72888e-05
-4.54e-05
-4.35607e-05
-4.17701e-05
-4.00273e-05
-3.83316e-05
-3.66821e-05
-3.50782e-05
-3.35193e-05
-3.20047e-05
-3.05338e-05
-2.91061e-05
-2.77212e-05
-0.000134902
-0.000130909
-0.000126999
-0.000123172
-0.000119429
-0.000115768
-0.00011219
-0.000108695
-0.00010528
-0.000101946
-9.86913e-05
-9.55153e-05
-9.24166e-05
-8.9394e-05
-8.6446e-05
-8.35713e-05
-8.07682e-05
-7.80353e-05
-7.5371e-05
-7.27736e-05
-7.02417e-05
-6.77738e-05
-6.53682e-05
-6.30237e-05
-6.07386e-05
-5.85117e-05
-5.63417e-05
-5.42271e-05
-5.21668e-05
-5.01597e-05
-4.82045e-05
-4.63003e-05
-4.4446e-05
-4.26406e-05
-4.08834e-05
-3.91734e-05
-3.75098e-05
-3.5892e-05
-3.43191e-05
-3.27906e-05
-3.13059e-05
-2.98642e-05
-2.84651e-05
-2.71082e-05
-0.000131932
-0.000128056
-0.000124257
-0.000120535
-0.000116891
-0.000113325
-0.000109837
-0.000106425
-0.000103091
-9.98335e-05
-9.66516e-05
-9.35447e-05
-9.05119e-05
-8.75522e-05
-8.46644e-05
-8.18473e-05
-7.90996e-05
-7.642e-05
-7.38069e-05
-7.12591e-05
-6.87751e-05
-6.63536e-05
-6.39932e-05
-6.16925e-05
-5.94502e-05
-5.7265e-05
-5.51356e-05
-5.30609e-05
-5.10396e-05
-4.90707e-05
-4.71529e-05
-4.52854e-05
-4.34671e-05
-4.16971e-05
-3.99746e-05
-3.82986e-05
-3.66684e-05
-3.50833e-05
-3.35425e-05
-3.20455e-05
-3.05915e-05
-2.91799e-05
-2.78102e-05
-2.6482e-05
-0.000128816
-0.000125063
-0.000121381
-0.00011777
-0.000114232
-0.000110765
-0.000107372
-0.000104051
-0.000100802
-9.7626e-05
-9.45217e-05
-9.14887e-05
-8.85265e-05
-8.56341e-05
-8.28108e-05
-8.00555e-05
-7.7367e-05
-7.47442e-05
-7.2186e-05
-6.9691e-05
-6.72581e-05
-6.4886e-05
-6.25735e-05
-6.03193e-05
-5.81222e-05
-5.59811e-05
-5.38946e-05
-5.18618e-05
-4.98814e-05
-4.79525e-05
-4.60739e-05
-4.42447e-05
-4.24639e-05
-4.07307e-05
-3.90441e-05
-3.74034e-05
-3.58078e-05
-3.42565e-05
-3.27488e-05
-3.12841e-05
-2.98618e-05
-2.84812e-05
-2.71417e-05
-2.58429e-05
-0.000125563
-0.000121939
-0.000118379
-0.000114884
-0.000111456
-0.000108094
-0.000104801
-0.000101575
-9.84169e-05
-9.5327e-05
-9.23049e-05
-8.93504e-05
-8.6463e-05
-8.36422e-05
-8.08873e-05
-7.81976e-05
-7.5572e-05
-7.30097e-05
-7.05096e-05
-6.80707e-05
-6.56919e-05
-6.33721e-05
-6.11102e-05
-5.8905e-05
-5.67556e-05
-5.46607e-05
-5.26194e-05
-5.06304e-05
-4.86929e-05
-4.68057e-05
-4.49679e-05
-4.31786e-05
-4.14368e-05
-3.97417e-05
-3.80924e-05
-3.64882e-05
-3.49282e-05
-3.34118e-05
-3.19382e-05
-3.05068e-05
-2.9117e-05
-2.77682e-05
-2.64598e-05
-2.51913e-05
-0.000122182
-0.000118691
-0.000115257
-0.000111883
-0.00010857
-0.000105318
-0.000102129
-9.90026e-05
-9.59397e-05
-9.29403e-05
-9.00047e-05
-8.71328e-05
-8.43243e-05
-8.1579e-05
-7.88963e-05
-7.62758e-05
-7.37166e-05
-7.12181e-05
-6.87793e-05
-6.63995e-05
-6.40777e-05
-6.18129e-05
-5.96042e-05
-5.74506e-05
-5.53511e-05
-5.33048e-05
-5.13105e-05
-4.93674e-05
-4.74745e-05
-4.56309e-05
-4.38355e-05
-4.20876e-05
-4.03863e-05
-3.87306e-05
-3.71199e-05
-3.55533e-05
-3.40301e-05
-3.25496e-05
-3.11111e-05
-2.9714e-05
-2.83576e-05
-2.70414e-05
-2.57648e-05
-2.45272e-05
-0.000118682
-0.000115327
-0.000112024
-0.000108774
-0.00010558
-0.000102442
-9.93614e-05
-9.63388e-05
-9.33749e-05
-9.04702e-05
-8.76249e-05
-8.48393e-05
-8.21135e-05
-7.94472e-05
-7.68403e-05
-7.42923e-05
-7.18028e-05
-6.93712e-05
-6.69968e-05
-6.4679e-05
-6.24169e-05
-6.02097e-05
-5.80568e-05
-5.59571e-05
-5.39098e-05
-5.1914e-05
-4.99689e-05
-4.80736e-05
-4.62271e-05
-4.44287e-05
-4.26773e-05
-4.09723e-05
-3.93127e-05
-3.76979e-05
-3.61269e-05
-3.45992e-05
-3.31139e-05
-3.16703e-05
-3.02679e-05
-2.89059e-05
-2.75839e-05
-2.63011e-05
-2.5057e-05
-2.38511e-05
-0.000115072
-0.000111856
-0.000108686
-0.000105565
-0.000102493
-9.94725e-05
-9.65039e-05
-9.35886e-05
-9.07273e-05
-8.79206e-05
-8.51693e-05
-8.24735e-05
-7.98337e-05
-7.72498e-05
-7.47218e-05
-7.22496e-05
-6.98328e-05
-6.74711e-05
-6.51639e-05
-6.29107e-05
-6.07109e-05
-5.85639e-05
-5.6469e-05
-5.44255e-05
-5.24326e-05
-5.04895e-05
-4.85955e-05
-4.67497e-05
-4.49514e-05
-4.31997e-05
-4.14939e-05
-3.98332e-05
-3.82168e-05
-3.6644e-05
-3.51141e-05
-3.36263e-05
-3.21799e-05
-3.07743e-05
-2.94089e-05
-2.8083e-05
-2.67961e-05
-2.55475e-05
-2.43367e-05
-2.31632e-05
-0.00011136
-0.000108286
-0.000105253
-0.000102262
-9.93158e-05
-9.64152e-05
-9.35619e-05
-9.07569e-05
-8.80013e-05
-8.5296e-05
-8.26417e-05
-8.00389e-05
-7.74882e-05
-7.49897e-05
-7.25437e-05
-7.01501e-05
-6.78089e-05
-6.55197e-05
-6.32824e-05
-6.10964e-05
-5.89614e-05
-5.68769e-05
-5.48424e-05
-5.28571e-05
-5.09206e-05
-4.90321e-05
-4.7191e-05
-4.53965e-05
-4.3648e-05
-4.19447e-05
-4.0286e-05
-3.8671e-05
-3.70991e-05
-3.55696e-05
-3.40818e-05
-3.26351e-05
-3.12287e-05
-2.98621e-05
-2.85345e-05
-2.72456e-05
-2.59946e-05
-2.4781e-05
-2.36042e-05
-2.24638e-05
-0.000107555
-0.000104625
-0.00010173
-9.88725e-05
-9.60541e-05
-9.32764e-05
-9.05409e-05
-8.7849e-05
-8.52019e-05
-8.26007e-05
-8.00462e-05
-7.75392e-05
-7.50804e-05
-7.26701e-05
-7.03087e-05
-6.79965e-05
-6.57333e-05
-6.35193e-05
-6.13542e-05
-5.92379e-05
-5.717e-05
-5.51502e-05
-5.31781e-05
-5.12532e-05
-4.9375e-05
-4.7543e-05
-4.57565e-05
-4.4015e-05
-4.23179e-05
-4.06645e-05
-3.90542e-05
-3.74863e-05
-3.59602e-05
-3.44752e-05
-3.30307e-05
-3.16261e-05
-3.02607e-05
-2.89339e-05
-2.76453e-05
-2.63941e-05
-2.51798e-05
-2.40019e-05
-2.28599e-05
-2.17532e-05
-0.000103665
-0.000100881
-9.81259e-05
-9.54033e-05
-9.27147e-05
-9.00619e-05
-8.74465e-05
-8.487e-05
-8.23338e-05
-7.9839e-05
-7.73868e-05
-7.49781e-05
-7.26136e-05
-7.0294e-05
-6.80198e-05
-6.57912e-05
-6.36086e-05
-6.14721e-05
-5.93815e-05
-5.7337e-05
-5.53384e-05
-5.33853e-05
-5.14776e-05
-4.9615e-05
-4.77969e-05
-4.60231e-05
-4.4293e-05
-4.26061e-05
-4.09619e-05
-3.93599e-05
-3.77994e-05
-3.62798e-05
-3.48007e-05
-3.33614e-05
-3.19613e-05
-3.05998e-05
-2.92764e-05
-2.79904e-05
-2.67414e-05
-2.55288e-05
-2.43521e-05
-2.32107e-05
-2.21041e-05
-2.10318e-05
-9.96991e-05
-9.7061e-05
-9.44477e-05
-9.18613e-05
-8.93041e-05
-8.67778e-05
-8.42842e-05
-8.1825e-05
-7.94017e-05
-7.70155e-05
-7.46677e-05
-7.23594e-05
-7.00915e-05
-6.78647e-05
-6.56798e-05
-6.35372e-05
-6.14372e-05
-5.93802e-05
-5.73664e-05
-5.53957e-05
-5.34682e-05
-5.15839e-05
-4.97425e-05
-4.79439e-05
-4.61877e-05
-4.44737e-05
-4.28016e-05
-4.11708e-05
-3.95809e-05
-3.80316e-05
-3.65222e-05
-3.50523e-05
-3.36213e-05
-3.22288e-05
-3.08741e-05
-2.95568e-05
-2.82762e-05
-2.7032e-05
-2.58235e-05
-2.46503e-05
-2.35118e-05
-2.24076e-05
-2.13371e-05
-2.02999e-05
-9.56652e-05
-9.31739e-05
-9.07024e-05
-8.82532e-05
-8.58284e-05
-8.34299e-05
-8.10596e-05
-7.87192e-05
-7.64103e-05
-7.41345e-05
-7.18929e-05
-6.96868e-05
-6.75174e-05
-6.53854e-05
-6.32917e-05
-6.1237e-05
-5.92216e-05
-5.72462e-05
-5.53108e-05
-5.34159e-05
-5.15614e-05
-4.97475e-05
-4.79742e-05
-4.62412e-05
-4.45486e-05
-4.2896e-05
-4.12833e-05
-3.971e-05
-3.81759e-05
-3.66805e-05
-3.52235e-05
-3.38044e-05
-3.24227e-05
-3.1078e-05
-2.97697e-05
-2.84975e-05
-2.72608e-05
-2.60592e-05
-2.4892e-05
-2.3759e-05
-2.26595e-05
-2.15931e-05
-2.05593e-05
-1.95578e-05
-9.15711e-05
-8.92265e-05
-8.68972e-05
-8.45857e-05
-8.22939e-05
-8.0024e-05
-7.7778e-05
-7.55576e-05
-7.33645e-05
-7.12004e-05
-6.90665e-05
-6.69643e-05
-6.48949e-05
-6.28594e-05
-6.08586e-05
-5.88934e-05
-5.69644e-05
-5.50722e-05
-5.32171e-05
-5.13996e-05
-4.96198e-05
-4.7878e-05
-4.61742e-05
-4.45085e-05
-4.28809e-05
-4.12912e-05
-3.97392e-05
-3.82248e-05
-3.67477e-05
-3.53076e-05
-3.39041e-05
-3.25369e-05
-3.12055e-05
-2.99097e-05
-2.86489e-05
-2.74227e-05
-2.62307e-05
-2.50724e-05
-2.39474e-05
-2.28552e-05
-2.17954e-05
-2.07675e-05
-1.97711e-05
-1.88058e-05
-8.74243e-05
-8.52261e-05
-8.30389e-05
-8.0865e-05
-7.87067e-05
-7.6566e-05
-7.44449e-05
-7.23453e-05
-7.0269e-05
-6.82175e-05
-6.61926e-05
-6.41955e-05
-6.22275e-05
-6.02899e-05
-5.83835e-05
-5.65094e-05
-5.46682e-05
-5.28607e-05
-5.10874e-05
-4.93488e-05
-4.76452e-05
-4.59769e-05
-4.43442e-05
-4.27472e-05
-4.11859e-05
-3.96604e-05
-3.81706e-05
-3.67163e-05
-3.52974e-05
-3.39136e-05
-3.25648e-05
-3.12506e-05
-2.99706e-05
-2.87246e-05
-2.75121e-05
-2.63328e-05
-2.51863e-05
-2.40722e-05
-2.299e-05
-2.19394e-05
-2.092e-05
-1.99313e-05
-1.89728e-05
-1.80443e-05
-8.32322e-05
-8.11797e-05
-7.9134e-05
-7.70976e-05
-7.50726e-05
-7.30612e-05
-7.10654e-05
-6.90872e-05
-6.71282e-05
-6.51904e-05
-6.32752e-05
-6.13842e-05
-5.95188e-05
-5.76802e-05
-5.58694e-05
-5.40876e-05
-5.23356e-05
-5.06142e-05
-4.8924e-05
-4.72656e-05
-4.56395e-05
-4.40461e-05
-4.24858e-05
-4.09587e-05
-3.94651e-05
-3.8005e-05
-3.65785e-05
-3.51855e-05
-3.38259e-05
-3.24997e-05
-3.12065e-05
-2.99462e-05
-2.87186e-05
-2.75233e-05
-2.636e-05
-2.52285e-05
-2.41283e-05
-2.30591e-05
-2.20205e-05
-2.10122e-05
-2.00337e-05
-1.90847e-05
-1.81649e-05
-1.72737e-05
-7.9002e-05
-7.7094e-05
-7.51891e-05
-7.32895e-05
-7.13975e-05
-6.95153e-05
-6.76448e-05
-6.57881e-05
-6.39469e-05
-6.21231e-05
-6.03184e-05
-5.85343e-05
-5.67722e-05
-5.50335e-05
-5.33194e-05
-5.1631e-05
-4.99692e-05
-4.8335e-05
-4.67291e-05
-4.51521e-05
-4.36047e-05
-4.20874e-05
-4.06007e-05
-3.91447e-05
-3.77199e-05
-3.63264e-05
-3.49643e-05
-3.36336e-05
-3.23344e-05
-3.10666e-05
-2.98301e-05
-2.86247e-05
-2.74503e-05
-2.63066e-05
-2.51934e-05
-2.41103e-05
-2.30571e-05
-2.20336e-05
-2.10392e-05
-2.00738e-05
-1.9137e-05
-1.82284e-05
-1.73476e-05
-1.64943e-05
-7.47404e-05
-7.29756e-05
-7.12103e-05
-6.94467e-05
-6.76871e-05
-6.59335e-05
-6.41881e-05
-6.24528e-05
-6.07296e-05
-5.90201e-05
-5.73262e-05
-5.56494e-05
-5.39913e-05
-5.23532e-05
-5.07365e-05
-4.91424e-05
-4.75717e-05
-4.60257e-05
-4.4505e-05
-4.30105e-05
-4.15429e-05
-4.01027e-05
-3.86905e-05
-3.73067e-05
-3.59517e-05
-3.46258e-05
-3.33291e-05
-3.20618e-05
-3.08239e-05
-2.96155e-05
-2.84365e-05
-2.72869e-05
-2.61666e-05
-2.50752e-05
-2.40128e-05
-2.2979e-05
-2.19736e-05
-2.09963e-05
-2.00469e-05
-1.9125e-05
-1.82303e-05
-1.73626e-05
-1.65214e-05
-1.57066e-05
-0.000388403
-0.000373705
-0.000359421
-0.000345579
-0.000332204
-0.000319311
-0.000306906
-0.000294992
-0.000283568
-0.000272627
-0.000262162
-0.000252161
-0.000242612
-0.000233499
-0.000224809
-0.000216523
-0.000208627
-0.000201102
-0.000193932
-0.000187101
-0.00018059
-0.000174386
-0.000168471
-0.000162831
-0.000157451
-0.000152318
-0.000147417
-0.000373052
-0.000359554
-0.000346381
-0.000333565
-0.000321135
-0.00030911
-0.000297501
-0.000286315
-0.000275555
-0.000265221
-0.000255307
-0.000245808
-0.000236715
-0.000228016
-0.0002197
-0.000211755
-0.000204167
-0.000196921
-0.000190004
-0.000183402
-0.0001771
-0.000171084
-0.00016534
-0.000159856
-0.000154617
-0.000149612
-0.000144829
-0.000357639
-0.000345283
-0.000333174
-0.000321345
-0.000309829
-0.000298647
-0.000287815
-0.000277344
-0.00026724
-0.000257507
-0.000248143
-0.000239147
-0.000230512
-0.000222232
-0.000214298
-0.000206701
-0.000199429
-0.000192472
-0.000185818
-0.000179455
-0.00017337
-0.000167553
-0.000161991
-0.000156672
-0.000151585
-0.000146719
-0.000142062
-0.000342223
-0.000330953
-0.000319858
-0.000308977
-0.000298341
-0.000287976
-0.0002779
-0.000268127
-0.000258668
-0.000249528
-0.000240709
-0.000232214
-0.000224039
-0.00021618
-0.000208632
-0.000201387
-0.000194439
-0.000187777
-0.000181393
-0.000175278
-0.00016942
-0.00016381
-0.000158438
-0.000153293
-0.000148366
-0.000143647
-0.000139125
-0.000326859
-0.000316616
-0.000306488
-0.000296512
-0.000286722
-0.000277145
-0.000267802
-0.00025871
-0.00024988
-0.000241323
-0.000233043
-0.000225044
-0.000217326
-0.000209889
-0.000202728
-0.00019584
-0.000189219
-0.000182858
-0.000176751
-0.000170889
-0.000165265
-0.000159869
-0.000154694
-0.000149731
-0.000144971
-0.000140406
-0.000136027
-0.00031159
-0.00030232
-0.00029311
-0.000283997
-0.000275017
-0.000266199
-0.000257564
-0.000249132
-0.000240917
-0.00023293
-0.000225179
-0.00021767
-0.000210406
-0.000203387
-0.000196614
-0.000190083
-0.000183792
-0.000177736
-0.000171909
-0.000166306
-0.000160921
-0.000155746
-0.000150774
-0.000145999
-0.000141412
-0.000137008
-0.000132777
-0.000296456
-0.000288104
-0.000279763
-0.000271473
-0.000263267
-0.000255177
-0.000247225
-0.000239431
-0.000231813
-0.000224382
-0.00021715
-0.000210123
-0.000203306
-0.000196703
-0.000190315
-0.000184141
-0.000178181
-0.000172431
-0.000166887
-0.000161547
-0.000156404
-0.000151454
-0.00014669
-0.000142108
-0.0001377
-0.000133461
-0.000129385
-0.000281491
-0.000274004
-0.000266486
-0.000258976
-0.000251509
-0.000244116
-0.00023682
-0.000229643
-0.000222602
-0.000215713
-0.000208986
-0.000202431
-0.000196055
-0.000189862
-0.000183855
-0.000178036
-0.000172406
-0.000166962
-0.000161704
-0.000156627
-0.00015173
-0.000147008
-0.000142457
-0.000138071
-0.000133847
-0.000129778
-0.00012586
-0.000266723
-0.000260049
-0.000253309
-0.000246539
-0.000239775
-0.000233048
-0.000226381
-0.000219797
-0.000213315
-0.00020695
-0.000200716
-0.000194622
-0.000188677
-0.000182888
-0.000177258
-0.00017179
-0.000166488
-0.00016135
-0.000156376
-0.000151565
-0.000146915
-0.000142423
-0.000138086
-0.000133901
-0.000129863
-0.000125968
-0.000122212
-0.000252176
-0.000246267
-0.00024026
-0.000234191
-0.000228095
-0.000222002
-0.000215938
-0.000209924
-0.00020398
-0.000198122
-0.000192366
-0.000186721
-0.000181198
-0.000175803
-0.000170544
-0.000165424
-0.000160445
-0.000155611
-0.000150921
-0.000146375
-0.000141973
-0.000137712
-0.000133592
-0.000129608
-0.000125759
-0.000122041
-0.000118451
-0.00023787
-0.000232679
-0.000227362
-0.000221956
-0.000216493
-0.000211005
-0.000205515
-0.000200048
-0.000194621
-0.000189254
-0.000183959
-0.000178751
-0.000173639
-0.000168631
-0.000163735
-0.000158956
-0.000154298
-0.000149764
-0.000145355
-0.000141073
-0.000136918
-0.00013289
-0.000128986
-0.000125206
-0.000121548
-0.000118008
-0.000114586
-0.000223822
-0.000219304
-0.000214636
-0.000209855
-0.000204993
-0.000200079
-0.000195138
-0.000190193
-0.000185263
-0.000180367
-0.000175519
-0.000170733
-0.000166021
-0.00016139
-0.000156849
-0.000152405
-0.000148062
-0.000143824
-0.000139694
-0.000135675
-0.000131766
-0.000127968
-0.000124281
-0.000120705
-0.000117238
-0.000113879
-0.000110625
-0.000210045
-0.000206157
-0.0002021
-0.000197908
-0.000193613
-0.000189244
-0.000184825
-0.000180379
-0.000175925
-0.000171482
-0.000167065
-0.000162688
-0.000158363
-0.000154099
-0.000149905
-0.000145788
-0.000141754
-0.000137808
-0.000133953
-0.000130192
-0.000126527
-0.000122959
-0.000119489
-0.000116117
-0.000112842
-0.000109663
-0.000106579
-0.00019655
-0.000193251
-0.000189767
-0.000186129
-0.000182371
-0.000178518
-0.000174596
-0.000170625
-0.000166627
-0.000162619
-0.000158616
-0.000154633
-0.000150683
-0.000146775
-0.000142918
-0.000139121
-0.00013539
-0.00013173
-0.000128145
-0.00012464
-0.000121216
-0.000117876
-0.000114621
-0.000111451
-0.000108368
-0.00010537
-0.000102457
-0.000183345
-0.000180596
-0.000177649
-0.000174534
-0.000171281
-0.000167917
-0.000164465
-0.000160948
-0.000157384
-0.000153792
-0.000150188
-0.000146585
-0.000142997
-0.000139434
-0.000135905
-0.000132419
-0.000128983
-0.000125603
-0.000122284
-0.00011903
-0.000115845
-0.00011273
-0.000109687
-0.000106719
-0.000103826
-0.000101008
-9.82656e-05
-0.000170435
-0.0001682
-0.000165756
-0.000163131
-0.000160355
-0.000157453
-0.000154448
-0.000151362
-0.000148213
-0.000145019
-0.000141796
-0.000138559
-0.00013532
-0.00013209
-0.000128879
-0.000125696
-0.000122548
-0.000119442
-0.000116382
-0.000113375
-0.000110423
-0.00010753
-0.000104699
-0.00010193
-9.92259e-05
-9.65873e-05
-9.40146e-05
-0.000157824
-0.000156068
-0.000154095
-0.000151931
-0.000149603
-0.000147138
-0.000144556
-0.000141879
-0.000139125
-0.000136311
-0.000133455
-0.000130568
-0.000127665
-0.000124757
-0.000121854
-0.000118964
-0.000116096
-0.000113256
-0.000110451
-0.000107686
-0.000104964
-0.000102289
-9.96649e-05
-9.70934e-05
-9.45765e-05
-9.21155e-05
-8.97116e-05
-0.000145514
-0.000144206
-0.000142673
-0.00014094
-0.000139035
-0.000136981
-0.0001348
-0.000132511
-0.000130132
-0.000127682
-0.000125175
-0.000122625
-0.000120045
-0.000117447
-0.000114841
-0.000112235
-0.000109639
-0.000107059
-0.000104502
-0.000101972
-9.94756e-05
-9.70154e-05
-9.45953e-05
-9.22181e-05
-8.9886e-05
-8.7601e-05
-8.53644e-05
-0.000133506
-0.000132615
-0.000131493
-0.000130165
-0.000128657
-0.000126991
-0.000125188
-0.000123267
-0.000121245
-0.000119141
-0.000116968
-0.00011474
-0.000112471
-0.000110171
-0.000107851
-0.000105521
-0.000103188
-0.00010086
-9.85441e-05
-9.62451e-05
-9.39684e-05
-9.17184e-05
-8.94987e-05
-8.73126e-05
-8.51628e-05
-8.30514e-05
-8.09803e-05
-0.0001218
-0.000121296
-0.000120558
-0.00011961
-0.000118474
-0.000117174
-0.000115728
-0.000114155
-0.000112473
-0.000110697
-0.000108843
-0.000106924
-0.000104952
-0.000102939
-0.000100896
-9.88307e-05
-9.67528e-05
-9.46696e-05
-9.25878e-05
-9.05133e-05
-8.84514e-05
-8.64068e-05
-8.43836e-05
-8.23852e-05
-8.04146e-05
-7.84744e-05
-7.65667e-05
-0.000110625
-0.000110476
-0.000110089
-0.000109488
-0.000108696
-0.000107732
-0.000106617
-0.000105367
-0.000104
-0.000102531
-0.000100974
-9.93434e-05
-9.76509e-05
-9.59079e-05
-9.41246e-05
-9.23105e-05
-9.04741e-05
-8.86229e-05
-8.67639e-05
-8.49033e-05
-8.30465e-05
-8.11984e-05
-7.93634e-05
-7.75452e-05
-7.5747e-05
-7.39717e-05
-7.22217e-05
-9.98538e-05
-0.00010003
-9.99685e-05
-9.96899e-05
-9.92162e-05
-9.8567e-05
-9.77602e-05
-9.6813e-05
-9.57415e-05
-9.45608e-05
-9.32851e-05
-9.19272e-05
-9.04993e-05
-8.90125e-05
-8.7477e-05
-8.5902e-05
-8.42962e-05
-8.26672e-05
-8.10221e-05
-7.9367e-05
-7.77077e-05
-7.60493e-05
-7.43962e-05
-7.27524e-05
-7.11215e-05
-6.95065e-05
-6.791e-05
-8.915e-05
-8.96362e-05
-8.9884e-05
-8.99134e-05
-8.9745e-05
-8.93975e-05
-8.88879e-05
-8.82326e-05
-8.74472e-05
-8.65462e-05
-8.55433e-05
-8.44512e-05
-8.32815e-05
-8.20453e-05
-8.07526e-05
-7.94126e-05
-7.80337e-05
-7.66239e-05
-7.519e-05
-7.37384e-05
-7.22751e-05
-7.0805e-05
-6.9333e-05
-6.78632e-05
-6.63993e-05
-6.49446e-05
-6.3502e-05
-7.85228e-05
-7.93028e-05
-7.9845e-05
-8.01681e-05
-8.02915e-05
-8.02331e-05
-8.00091e-05
-7.9635e-05
-7.91258e-05
-7.84956e-05
-7.77574e-05
-7.69236e-05
-7.60055e-05
-7.5014e-05
-7.39588e-05
-7.28492e-05
-7.16934e-05
-7.04992e-05
-6.92737e-05
-6.80232e-05
-6.67538e-05
-6.54707e-05
-6.41786e-05
-6.2882e-05
-6.15846e-05
-6.029e-05
-5.90012e-05
-6.79808e-05
-6.90389e-05
-6.98605e-05
-7.04631e-05
-7.08652e-05
-7.10834e-05
-7.11333e-05
-7.10296e-05
-7.07867e-05
-7.0418e-05
-6.99361e-05
-6.93529e-05
-6.86796e-05
-6.79266e-05
-6.71034e-05
-6.62192e-05
-6.52821e-05
-6.42998e-05
-6.32795e-05
-6.22274e-05
-6.11497e-05
-6.00515e-05
-5.89379e-05
-5.78133e-05
-5.66817e-05
-5.55466e-05
-5.44114e-05
-5.75322e-05
-5.8853e-05
-5.99393e-05
-6.08076e-05
-6.1475e-05
-6.19575e-05
-6.22696e-05
-6.24255e-05
-6.24388e-05
-6.23223e-05
-6.20881e-05
-6.17478e-05
-6.13121e-05
-6.0791e-05
-6.01941e-05
-5.953e-05
-5.8807e-05
-5.80327e-05
-5.72139e-05
-5.63572e-05
-5.54684e-05
-5.45531e-05
-5.36162e-05
-5.26621e-05
-5.16951e-05
-5.07188e-05
-4.97367e-05
-4.7185e-05
-4.87536e-05
-5.00902e-05
-5.12104e-05
-5.21301e-05
-5.28645e-05
-5.34272e-05
-5.38318e-05
-5.40911e-05
-5.42173e-05
-5.42222e-05
-5.41167e-05
-5.39112e-05
-5.36155e-05
-5.32387e-05
-5.27894e-05
-5.22755e-05
-5.17047e-05
-5.10837e-05
-5.04189e-05
-4.97163e-05
-4.89813e-05
-4.82189e-05
-4.74337e-05
-4.66299e-05
-4.58112e-05
-4.49813e-05
-3.6947e-05
-3.87485e-05
-4.03214e-05
-4.16799e-05
-4.28392e-05
-4.38132e-05
-4.46151e-05
-4.52575e-05
-4.57526e-05
-4.61121e-05
-4.63471e-05
-4.64683e-05
-4.64855e-05
-4.64081e-05
-4.62452e-05
-4.60049e-05
-4.56951e-05
-4.53231e-05
-4.48957e-05
-4.44192e-05
-4.38995e-05
-4.3342e-05
-4.27518e-05
-4.21333e-05
-4.1491e-05
-4.08287e-05
-4.015e-05
-2.68255e-05
-2.88458e-05
-3.06412e-05
-3.22248e-05
-3.36108e-05
-3.48125e-05
-3.5842e-05
-3.67113e-05
-3.74321e-05
-3.80153e-05
-3.84716e-05
-3.88111e-05
-3.90433e-05
-3.91773e-05
-3.92216e-05
-3.91844e-05
-3.90732e-05
-3.88952e-05
-3.8657e-05
-3.83649e-05
-3.80246e-05
-3.76416e-05
-3.72208e-05
-3.67668e-05
-3.62841e-05
-3.57764e-05
-3.52474e-05
-1.68279e-05
-1.90531e-05
-2.10574e-05
-2.28532e-05
-2.44535e-05
-2.58708e-05
-2.71167e-05
-2.82022e-05
-2.91384e-05
-2.99358e-05
-3.06044e-05
-3.11538e-05
-3.15931e-05
-3.19312e-05
-3.21762e-05
-3.23359e-05
-3.24177e-05
-3.24286e-05
-3.23749e-05
-3.2263e-05
-3.20983e-05
-3.18864e-05
-3.16321e-05
-3.134e-05
-3.10145e-05
-3.06595e-05
-3.02787e-05
-6.96108e-06
-9.37759e-06
-1.15778e-05
-1.3573e-05
-1.53754e-05
-1.69967e-05
-1.84476e-05
-1.97387e-05
-2.08802e-05
-2.18822e-05
-2.2754e-05
-2.35049e-05
-2.41435e-05
-2.46783e-05
-2.5117e-05
-2.54674e-05
-2.57363e-05
-2.59307e-05
-2.60568e-05
-2.61205e-05
-2.61276e-05
-2.60831e-05
-2.59921e-05
-2.58591e-05
-2.56884e-05
-2.54839e-05
-2.52493e-05
2.76837e-06
1.73601e-07
-2.20965e-06
-4.3919e-06
-6.38446e-06
-8.1982e-06
-9.84316e-06
-1.13292e-05
-1.2666e-05
-1.3863e-05
-1.4929e-05
-1.58729e-05
-1.67028e-05
-1.74268e-05
-1.80524e-05
-1.85868e-05
-1.9037e-05
-1.94093e-05
-1.971e-05
-1.99449e-05
-2.01194e-05
-2.02386e-05
-2.03074e-05
-2.03304e-05
-2.03116e-05
-2.02552e-05
-2.01647e-05
1.23541e-05
9.59378e-06
7.03983e-06
4.68259e-06
2.5116e-06
5.16709e-07
-1.31143e-06
-2.98203e-06
-4.50416e-06
-5.88661e-06
-7.1379e-06
-8.26621e-06
-9.27942e-06
-1.01851e-05
-1.09905e-05
-1.17024e-05
-1.23276e-05
-1.28723e-05
-1.33424e-05
-1.37435e-05
-1.40809e-05
-1.43598e-05
-1.45848e-05
-1.47604e-05
-1.48906e-05
-1.49796e-05
-1.50309e-05
2.17903e-05
1.88766e-05
1.61639e-05
1.36434e-05
1.13054e-05
9.14036e-06
7.1397e-06
5.29481e-06
3.59719e-06
2.03859e-06
6.11027e-07
-6.93244e-07
-1.88168e-06
-2.96145e-06
-3.93944e-06
-4.82228e-06
-5.61625e-06
-6.32738e-06
-6.96141e-06
-7.52378e-06
-8.01964e-06
-8.4539e-06
-8.83116e-06
-9.1558e-06
-9.43191e-06
-9.66335e-06
-9.85376e-06
3.10712e-05
2.80159e-05
2.51562e-05
2.24837e-05
1.99897e-05
1.76653e-05
1.55026e-05
1.34935e-05
1.163e-05
9.90457e-06
8.30959e-06
6.83781e-06
5.48219e-06
4.23593e-06
3.09249e-06
2.04557e-06
1.08917e-06
2.17494e-07
-5.74948e-07
-1.29341e-06
-1.94288e-06
-2.52811e-06
-3.05359e-06
-3.52357e-06
-3.94208e-06
-4.31292e-06
-4.63966e-06
4.01916e-05
3.70061e-05
3.40104e-05
3.1197e-05
2.85578e-05
2.60845e-05
2.37698e-05
2.16063e-05
1.95866e-05
1.77034e-05
1.59498e-05
1.43189e-05
1.28041e-05
1.13989e-05
1.00972e-05
8.89304e-06
7.78061e-06
6.75444e-06
5.80924e-06
4.93997e-06
4.14181e-06
3.41019e-06
2.74073e-06
2.12931e-06
1.57198e-06
1.06505e-06
6.04987e-07
4.91466e-05
4.58418e-05
4.27209e-05
3.97771e-05
3.7003e-05
3.4391e-05
3.19343e-05
2.9626e-05
2.74593e-05
2.54274e-05
2.35237e-05
2.1742e-05
2.00759e-05
1.85194e-05
1.70667e-05
1.57121e-05
1.44501e-05
1.32756e-05
1.21833e-05
1.11686e-05
1.02269e-05
9.35354e-06
8.5445e-06
7.7957e-06
7.10333e-06
6.46377e-06
5.87357e-06
5.79317e-05
5.45179e-05
5.12821e-05
4.82181e-05
4.53192e-05
4.25783e-05
3.99892e-05
3.75454e-05
3.52408e-05
3.30689e-05
3.10238e-05
2.90994e-05
2.72899e-05
2.55896e-05
2.3993e-05
2.24948e-05
2.10898e-05
1.9773e-05
1.85395e-05
1.73849e-05
1.63046e-05
1.52944e-05
1.43503e-05
1.34684e-05
1.26449e-05
1.18763e-05
1.11593e-05
6.65425e-05
6.30296e-05
5.96888e-05
5.65144e-05
5.35003e-05
5.064e-05
4.79277e-05
4.53577e-05
4.29239e-05
4.06208e-05
3.84425e-05
3.63834e-05
3.44383e-05
3.26016e-05
3.08683e-05
2.92333e-05
2.76917e-05
2.62388e-05
2.487e-05
2.3581e-05
2.23674e-05
2.12253e-05
2.01507e-05
1.914e-05
1.81894e-05
1.72956e-05
1.64553e-05
7.49753e-05
7.13727e-05
6.79362e-05
6.46608e-05
6.15407e-05
5.85702e-05
5.57437e-05
5.30561e-05
5.0502e-05
4.80758e-05
4.57725e-05
4.35867e-05
4.15135e-05
3.95478e-05
3.76848e-05
3.59198e-05
3.42481e-05
3.26653e-05
3.1167e-05
2.97492e-05
2.84076e-05
2.71386e-05
2.59383e-05
2.48031e-05
2.37296e-05
2.27145e-05
2.17546e-05
8.32262e-05
7.95429e-05
7.60197e-05
7.26522e-05
6.94351e-05
6.6363e-05
6.34311e-05
6.06345e-05
5.79681e-05
5.54272e-05
5.30067e-05
5.0702e-05
4.85082e-05
4.64207e-05
4.4435e-05
4.25466e-05
4.07512e-05
3.90447e-05
3.74228e-05
3.58817e-05
3.44176e-05
3.30266e-05
3.17054e-05
3.04503e-05
2.92581e-05
2.81257e-05
2.705e-05
9.1292e-05
8.75365e-05
8.39351e-05
8.04839e-05
7.71782e-05
7.4013e-05
7.0984e-05
6.80865e-05
6.53161e-05
6.26683e-05
6.01384e-05
5.77222e-05
5.54151e-05
5.32129e-05
5.11113e-05
4.91062e-05
4.71935e-05
4.53693e-05
4.36297e-05
4.1971e-05
4.03895e-05
3.88818e-05
3.74444e-05
3.60741e-05
3.47676e-05
3.3522e-05
3.23343e-05
9.91696e-05
9.53498e-05
9.16783e-05
8.81516e-05
8.47653e-05
8.15151e-05
7.83968e-05
7.54064e-05
7.25397e-05
6.97926e-05
6.71608e-05
6.46404e-05
6.22272e-05
5.99171e-05
5.77064e-05
5.55911e-05
5.35674e-05
5.16316e-05
4.97801e-05
4.80094e-05
4.6316e-05
4.46966e-05
4.31479e-05
4.16669e-05
4.02506e-05
3.88959e-05
3.76001e-05
0.000106856
0.00010298
9.92455e-05
9.56509e-05
9.21918e-05
8.88642e-05
8.56643e-05
8.25885e-05
7.9633e-05
7.6794e-05
7.40676e-05
7.145e-05
6.89376e-05
6.65265e-05
6.42132e-05
6.19941e-05
5.98655e-05
5.78241e-05
5.58665e-05
5.39892e-05
5.21892e-05
5.04632e-05
4.88082e-05
4.72213e-05
4.56995e-05
4.424e-05
4.28402e-05
0.000114349
0.000110423
0.000106633
0.000102978
9.94533e-05
9.60556e-05
9.27814e-05
8.96275e-05
8.65903e-05
8.36664e-05
8.08523e-05
7.81445e-05
7.55396e-05
7.30341e-05
7.06247e-05
6.83079e-05
6.60806e-05
6.39395e-05
6.18814e-05
5.99031e-05
5.80018e-05
5.61743e-05
5.44178e-05
5.27296e-05
5.11068e-05
4.95468e-05
4.80471e-05
0.000121646
0.000117676
0.000113838
0.000110129
0.000106546
0.000103085
9.97433e-05
9.65181e-05
9.34061e-05
9.04042e-05
8.75091e-05
8.47177e-05
8.20267e-05
7.94332e-05
7.69338e-05
7.45256e-05
7.22055e-05
6.99704e-05
6.78174e-05
6.57436e-05
6.37461e-05
6.18222e-05
5.99692e-05
5.81843e-05
5.6465e-05
5.48089e-05
5.32133e-05
0.000128744
0.000124738
0.000120857
0.000117101
0.000113465
0.000109948
0.000106545
0.000103255
0.000100075
9.70016e-05
9.4032e-05
9.11633e-05
8.83927e-05
8.57172e-05
8.3134e-05
8.06402e-05
7.8233e-05
7.59097e-05
7.36673e-05
7.15033e-05
6.94149e-05
6.73996e-05
6.54548e-05
6.35779e-05
6.17667e-05
6.00186e-05
5.83313e-05
0.000135642
0.000131605
0.000127688
0.00012389
0.000120208
0.00011664
0.000113183
0.000109834
0.000106592
0.000103453
0.000100415
9.74755e-05
9.46312e-05
9.18798e-05
8.92186e-05
8.6645e-05
8.41564e-05
8.17502e-05
7.94239e-05
7.71749e-05
7.50007e-05
7.28989e-05
7.08671e-05
6.89029e-05
6.70041e-05
6.51684e-05
6.33936e-05
0.000142338
0.000138274
0.000134327
0.000130493
0.000126771
0.000123158
0.000119652
0.000116251
0.000112952
0.000109754
0.000106654
0.000103648
0.000100736
9.79147e-05
9.51812e-05
9.25334e-05
8.99688e-05
8.74852e-05
8.50801e-05
8.27512e-05
8.04961e-05
7.83127e-05
7.61987e-05
7.41517e-05
7.21698e-05
7.02508e-05
6.83927e-05
0.000148829
0.000144745
0.000140771
0.000136907
0.000133149
0.000129497
0.000125948
0.0001225
0.000119151
0.000115899
0.000112741
0.000109677
0.000106702
0.000103816
0.000101015
9.82987e-05
9.56635e-05
9.31076e-05
9.06289e-05
8.82251e-05
8.58941e-05
8.36338e-05
8.14421e-05
7.9317e-05
7.72564e-05
7.52583e-05
7.33208e-05
0.000155114
0.000151014
0.000147019
0.000143129
0.000139341
0.000135655
0.000132068
0.000128578
0.000125183
0.000121883
0.000118674
0.000115554
0.000112523
0.000109577
0.000106715
0.000103935
0.000101234
9.86108e-05
9.60633e-05
9.35895e-05
9.11873e-05
8.88548e-05
8.65901e-05
8.43911e-05
8.22561e-05
8.01832e-05
7.81705e-05
0.000161192
0.00015708
0.000153068
0.000149156
0.000145343
0.000141627
0.000138007
0.00013448
0.000131045
0.000127701
0.000124445
0.000121276
0.000118193
0.000115193
0.000112274
0.000109435
0.000106673
0.000103988
0.000101377
9.88374e-05
9.63687e-05
9.39685e-05
9.16351e-05
8.93668e-05
8.71616e-05
8.5018e-05
8.29341e-05
0.000167061
0.00016294
0.000158915
0.000154986
0.000151152
0.000147411
0.000143761
0.000140202
0.000136731
0.000133348
0.000130051
0.000126837
0.000123707
0.000120657
0.000117686
0.000114793
0.000111976
0.000109232
0.000106562
0.000103962
0.000101431
9.89677e-05
9.657e-05
9.42364e-05
9.19653e-05
8.97551e-05
8.7604e-05
0.000172719
0.000168592
0.000164558
0.000160616
0.000156764
0.000153002
0.000149327
0.00014574
0.000142238
0.00013882
0.000135486
0.000132232
0.000129059
0.000125964
0.000122945
0.000120003
0.000117134
0.000114338
0.000111612
0.000108956
0.000106367
0.000103845
0.000101387
9.89927e-05
9.66597e-05
9.43868e-05
9.21725e-05
0.000178164
0.000174035
0.000169995
0.000166043