/*--------------------------------*- C++ -*----------------------------------*\
| =========                 |                                                 |
| \\      /  F ield         | OpenFOAM: The Open Source CFD Toolbox           |
|  \\    /   O peration     | Version:  2412                                  |
|   \\  /    A nd           | Website:  www.openfoam.com                      |
|    \\/     M anipulation  |                                                 |
\*---------------------------------------------------------------------------*/
FoamFile
{
    version     2.0;
    format      ascii;
    arch        "LSB;label=32;scalar=64";
    class       volScalarField;
    location    "2";
    object      p;
}
// * * * * * * * * * * * * * * * * * * * * * * * * * * * * * * * * * * * * * //

dimensions      [0 2 -2 0 0 0 0];

internalField   nonuniform List<scalar> 
5285
(
-0.000359238
-0.00031113
-0.000338841
-0.000358514
-0.000376592
-0.000392559
-0.000405727
-0.000416222
-0.000424319
-0.000430221
-0.000434104
-0.000436154
-0.000436559
-0.0004355
-0.000433147
-0.000429665
-0.000425205
-0.000419909
-0.000413909
-0.000407323
-0.000400261
-0.00039282
-0.000385087
-0.000377139
-0.000266502
-0.0002936
-0.000313545
-0.000331965
-0.000348405
-0.000362254
-0.000373616
-0.000382731
-0.000389775
-0.000394901
-0.000398272
-0.000400056
-0.000400413
-0.000399498
-0.000397459
-0.000394434
-0.000390554
-0.00038594
-0.000380705
-0.000374949
-0.000368767
-0.000362242
-0.000355448
-0.000225027
-0.000251496
-0.0002716
-0.000290247
-0.000307034
-0.000321421
-0.000333494
-0.000343461
-0.000351476
-0.000357673
-0.000362194
-0.000365188
-0.000366799
-0.000367166
-0.000366421
-0.000364691
-0.000362095
-0.000358747
-0.00035475
-0.0003502
-0.000345185
-0.000339785
-0.000334071
-0.000186419
-0.000212252
-0.000232423
-0.000251199
-0.000268228
-0.000283031
-0.000295681
-0.000306358
-0.000315197
-0.000322314
-0.000327834
-0.000331889
-0.000334608
-0.000336115
-0.000336529
-0.000335966
-0.000334536
-0.000332341
-0.000329479
-0.000326039
-0.000322104
-0.000317749
-0.000313045
-0.000150424
-0.000175618
-0.000195781
-0.000214607
-0.000231789
-0.000246905
-0.000260017
-0.000271282
-0.000280816
-0.00028872
-0.000295107
-0.000300091
-0.000303788
-0.000306308
-0.000307759
-0.000308247
-0.000307871
-0.000306726
-0.000304902
-0.000302483
-0.000299545
-0.000296161
-0.000292397
-0.000116813
-0.000141372
-0.000161465
-0.000180275
-0.000197536
-0.000212879
-0.000226354
-0.0002381
-0.000248218
-0.000256795
-0.00026393
-0.000269726
-0.000274283
-0.000277703
-0.000280082
-0.000281514
-0.000282092
-0.000281902
-0.000281026
-0.000279544
-0.000277526
-0.000275042
-0.000272154
-8.53822e-05
-0.000109314
-0.000129287
-0.000148026
-0.000165304
-0.000180799
-0.000194555
-0.000206691
-0.000217296
-0.000226445
-0.000234225
-0.000240727
-0.000246043
-0.00025026
-0.000253466
-0.000255747
-0.000257185
-0.000257862
-0.000257853
-0.000257229
-0.00025606
-0.000254408
-0.000252333
-5.59503e-05
-7.92648e-05
-9.90758e-05
-0.0001177
-0.000134944
-0.00015053
-0.000164494
-0.000176941
-0.000187948
-0.00019758
-0.000205915
-0.000213032
-0.000219012
-0.000223935
-0.000227878
-0.00023092
-0.000233136
-0.000234599
-0.000235378
-0.000235542
-0.000235152
-0.000234269
-0.000232949
-2.83531e-05
-5.10627e-05
-7.06791e-05
-8.91523e-05
-0.000106319
-0.000121942
-0.000136053
-0.000148744
-0.00016008
-0.000170119
-0.000178927
-0.000186577
-0.00019314
-0.000198686
-0.000203286
-0.000207009
-0.000209925
-0.000212099
-0.000213597
-0.000214481
-0.000214808
-0.000214635
-0.000214014
-2.44301e-06
-2.45622e-05
-4.39569e-05
-6.22486e-05
-7.93026e-05
-9.49192e-05
-0.000109126
-0.000122001
-0.000133603
-0.000143981
-0.000153193
-0.000161304
-0.000168375
-0.00017447
-0.000179653
-0.000183986
-0.000187531
-0.00019035
-0.000192501
-0.000194042
-0.000195027
-0.000195508
-0.000195534
2.19125e-05
3.6801e-07
-1.87823e-05
-3.68683e-05
-5.37811e-05
-6.93543e-05
-8.36116e-05
-9.66223e-05
-0.000108435
-0.000119093
-0.000128647
-0.000137153
-0.000144668
-0.000151247
-0.000156946
-0.000161823
-0.000165934
-0.000169335
-0.000172079
-0.00017422
-0.000175807
-0.00017689
-0.000177515
4.48332e-05
2.38468e-05
4.96027e-06
-1.29006e-05
-2.96491e-05
-4.51485e-05
-5.94197e-05
-7.25226e-05
-8.44986e-05
-9.53847e-05
-0.000105226
-0.000114072
-0.000121971
-0.000128973
-0.00013513
-0.000140492
-0.00014511
-0.000149036
-0.000152318
-0.000155005
-0.000157145
-0.000158781
-0.000159958
6.64272e-05
4.59821e-05
2.73759e-05
9.7553e-06
-6.811e-06
-2.22118e-05
-3.64657e-05
-4.96241e-05
-6.17224e-05
-7.2792e-05
-8.28723e-05
-9.20066e-05
-0.000100238
-0.000107611
-0.000114171
-0.000119964
-0.000125036
-0.000129434
-0.000133203
-0.000136388
-0.000139032
-0.000141177
-0.000142862
8.67936e-05
6.68727e-05
4.85601e-05
3.11909e-05
1.48203e-05
-4.61942e-07
-1.46724e-05
-2.78552e-05
-4.00401e-05
-5.12539e-05
-6.15306e-05
-7.09083e-05
-7.94252e-05
-8.71204e-05
-9.40347e-05
-0.00010021
-0.000105688
-0.000110511
-0.000114721
-0.000118358
-0.000121462
-0.000124073
-0.000126227
0.000106025
8.66104e-05
6.8599e-05
5.14884e-05
3.53235e-05
2.01758e-05
6.03067e-06
-7.1498e-06
-1.93903e-05
-3.07134e-05
-4.11489e-05
-5.07299e-05
-5.94901e-05
-6.74643e-05
-7.46893e-05
-8.12026e-05
-8.70423e-05
-9.22466e-05
-9.68536e-05
-0.000100901
-0.000104425
-0.000107463
-0.000110048
0.00012421
0.000105281
8.75703e-05
7.07218e-05
5.47698e-05
3.97697e-05
2.57081e-05
1.2553e-05
2.84131e-07
-1.11176e-05
-2.16781e-05
-3.14265e-05
-4.03923e-05
-4.86067e-05
-5.61025e-05
-6.29137e-05
-6.90747e-05
-7.46202e-05
-7.95852e-05
-8.4004e-05
-8.79108e-05
-9.13389e-05
-9.43207e-05
0.000141426
0.000122961
0.000105544
8.89582e-05
7.32246e-05
5.83823e-05
4.44197e-05
3.131e-05
1.90366e-05
7.58342e-06
-3.07218e-06
-1.29557e-05
-2.20933e-05
-3.05128e-05
-3.82435e-05
-4.53161e-05
-5.17617e-05
-5.7612e-05
-6.28988e-05
-6.76538e-05
-7.19082e-05
-7.5693e-05
-7.90382e-05
0.000157735
0.000139711
0.000122584
0.000106261
9.07494e-05
7.60736e-05
6.22231e-05
4.91761e-05
3.69191e-05
2.54383e-05
1.47141e-05
4.72394e-06
-4.55529e-06
-1.31483e-05
-2.10816e-05
-2.83826e-05
-3.50796e-05
-4.12013e-05
-4.67769e-05
-5.18353e-05
-5.64054e-05
-6.05155e-05
-6.41938e-05
-0.00010634
-0.000152364
-6.94324e-05
-0.000113285
-0.000155868
-0.000197137
-0.00023709
-0.000275382
-0.000311823
-3.52626e-05
-7.71025e-05
-0.000117739
-0.000157129
-0.000195266
-0.00023184
-0.00026667
-3.56572e-06
-4.35345e-05
-8.23619e-05
-0.000120004
-0.000156448
-0.000191422
-0.000224749
2.58924e-05
-1.23344e-05
-4.9476e-05
-8.54883e-05
-0.000120357
-0.000153837
-0.000185763
5.33183e-05
1.67164e-05
-1.88523e-05
-5.33441e-05
-8.67413e-05
-0.000118827
-0.000149445
7.88952e-05
4.38114e-05
9.71273e-06
-2.33582e-05
-5.5381e-05
-8.61647e-05
-0.000115559
0.000102786
6.91228e-05
3.64e-05
4.65865e-06
-2.60787e-05
-5.56445e-05
-8.3895e-05
0.000125135
9.28039e-05
6.13707e-05
3.08753e-05
1.34144e-06
-2.70842e-05
-5.42649e-05
0.000146073
0.000114992
8.4769e-05
5.54425e-05
2.7037e-05
-3.20195e-07
-2.64994e-05
0.000165714
0.000135808
0.000106723
7.84954e-05
5.11495e-05
2.4795e-05
-4.45418e-07
0.000184163
0.000155363
0.000127349
0.000100155
7.3806e-05
4.83948e-05
2.40366e-05
0.000201511
0.000173753
0.000146749
0.00012053
9.51209e-05
7.06005e-05
4.70753e-05
0.000217843
0.000191067
0.000165016
0.000139718
0.000115198
9.15223e-05
6.87898e-05
0.000233233
0.000207384
0.000182233
0.000157806
0.000134129
0.00011126
8.92885e-05
0.000247751
0.000222776
0.000198476
0.000174875
0.000152
0.000129903
0.000108666
0.00026146
0.000237312
0.000213818
0.000191001
0.000168889
0.00014753
0.000126996
0.000274422
0.000251057
0.000228328
0.000206256
0.000184868
0.000164209
0.000144338
0.000286696
0.000264073
0.000242072
0.000220709
0.000200007
0.000180002
0.000160736
0.000298334
0.000276414
0.000255095
0.000234402
0.000214351
0.000194964
0.000176257
-1.06651e-05
-5.90678e-05
0.000264862
0.000211667
0.000164453
0.000116702
6.87878e-05
2.16903e-05
-2.44027e-05
0.000283283
0.000232926
0.00018779
0.000142212
9.65439e-05
5.16458e-05
7.68959e-06
0.000300439
0.000252669
0.000209455
0.000165888
0.000122296
7.94331e-05
3.74581e-05
0.000316438
0.000271034
0.000229603
0.0001879
0.000146231
0.000105257
6.51222e-05
0.000331376
0.000288142
0.000248369
0.000208399
0.000168515
0.000129297
9.0876e-05
0.00034534
0.000304103
0.000265875
0.000227519
0.000189297
0.000151713
0.000114891
0.00035841
0.000319013
0.000282229
0.000245379
0.000208706
0.000172649
0.000137322
0.000370658
0.000332961
0.000297527
0.000262087
0.000226861
0.000192232
0.000158303
0.000382147
0.000346025
0.000311858
0.000277738
0.000243867
0.000210574
0.000177956
0.000392937
0.000358276
0.000325299
0.000292419
0.000259816
0.000227777
0.000196391
0.000403081
0.00036978
0.000337922
0.000306206
0.000274794
0.000243933
0.000213704
0.000412627
0.000380593
0.000349789
0.000319169
0.000288877
0.000259123
0.000229984
0.000421619
0.000390768
0.000360959
0.000331372
0.000302134
0.000273423
0.000245309
0.000430094
0.000400351
0.000371483
0.000342872
0.000314627
0.000286897
0.000259751
0.000438088
0.000409384
0.000381407
0.00035372
0.000326412
0.000299609
0.000273373
0.000445632
0.000417902
0.000390774
0.000363962
0.000337541
0.000311612
0.000286238
0.000452756
0.00042594
0.00039962
0.00037364
0.000348059
0.00032296
0.0002984
0.0004595
0.00043354
0.00040799
0.000382799
0.000358013
0.0003337
0.000309913
0.000465883
0.000440751
0.00041595
0.000391511
0.000367476
0.0003439
0.000320839
0.00159091
0.00158153
0.00157099
0.0015592
0.00154607
0.00153153
0.00151548
0.00149784
0.00147852
0.00145743
0.00143448
0.00140958
0.00138266
0.00135363
0.00132242
0.00128897
0.00125323
0.00121516
0.00117472
0.00113191
0.00108673
0.00103922
0.000989424
0.000937421
0.000883316
0.000827242
0.000769363
0.000709872
0.000648994
0.000586983
0.00052412
0.000460658
0.00039726
0.000334966
0.00156229
0.00155233
0.00154124
0.00152894
0.00151534
0.00150038
0.00148397
0.00146603
0.00144649
0.00142526
0.00140227
0.00137744
0.00135071
0.001322
0.00129127
0.00125845
0.0012235
0.0011864
0.00114713
0.00110569
0.00106209
0.00101637
0.000968591
0.000918826
0.000867182
0.000813787
0.000758795
0.000702389
0.000644774
0.000586186
0.000526879
0.000467083
0.000407389
0.000348714
0.00153469
0.00152423
0.00151266
0.00149991
0.00148592
0.00147061
0.0014539
0.00143574
0.00141605
0.00139476
0.0013718
0.00134711
0.00132063
0.0012923
0.00126207
0.00122991
0.00119577
0.00115965
0.00112154
0.00108144
0.00103937
0.000995378
0.000949521
0.000901879
0.000852553
0.000801667
0.000749367
0.000695823
0.000641226
0.000585791
0.00052975
0.000473311
0.000417001
0.00036163
0.0015081
0.00149719
0.00148521
0.00147208
0.00145776
0.00144216
0.00142524
0.00140692
0.00138715
0.00136585
0.00134298
0.00131848
0.00129229
0.00126438
0.00123469
0.00120321
0.0011699
0.00113476
0.00109779
0.00105899
0.0010184
0.000976066
0.000932041
0.000886408
0.000839265
0.00079073
0.000740942
0.000690058
0.000638254
0.000585728
0.000532691
0.000479332
0.00042612
0.000373773
0.00148249
0.00147119
0.00145885
0.00144541
0.00143081
0.001415
0.00139791
0.0013795
0.00135969
0.00133845
0.00131572
0.00129145
0.0012656
0.00123813
0.00120901
0.00117822
0.00114575
0.00111158
0.00107572
0.00103819
0.000999031
0.000958278
0.000915997
0.000872265
0.000827177
0.000780846
0.000733401
0.00068499
0.000635774
0.000585936
0.000535667
0.000485139
0.000434771
0.000385195
0.00145783
0.0014462
0.00143356
0.00141986
0.00140504
0.00138906
0.00137186
0.0013534
0.00133362
0.00131247
0.00128992
0.00126592
0.00124044
0.00121344
0.00118491
0.00115482
0.00112317
0.00108996
0.0010552
0.0010189
0.000981111
0.000941874
0.00090125
0.000859316
0.000816163
0.000771898
0.000726642
0.000680531
0.000633717
0.000586365
0.00053865
0.00049073
0.000442977
0.000395949
0.0014341
0.00142218
0.00140929
0.00139537
0.00138039
0.00136429
0.00134703
0.00132856
0.00130884
0.00128784
0.0012655
0.0012418
0.00121672
0.00119021
0.00116228
0.0011329
0.00110207
0.00106979
0.00103609
0.00100099
0.000964517
0.000926726
0.000887677
0.000847443
0.000806112
0.000763784
0.000720573
0.000676606
0.000632022
0.000586973
0.000541619
0.000496105
0.000450762
0.00040608
0.00141126
0.0013991
0.001386
0.00137192
0.00135681
0.00134064
0.00132336
0.00130493
0.00128531
0.00126447
0.00124238
0.00121902
0.00119434
0.00116834
0.00114101
0.00111234
0.00108232
0.00105096
0.0010183
0.00098434
0.000949132
0.000912722
0.000875168
0.000836541
0.000796925
0.000756414
0.000715116
0.000673147
0.000630637
0.000587724
0.000544557
0.000501267
0.000458148
0.000415631
0.0013893
0.00137694
0.00136367
0.00134946
0.00133427
0.00131806
0.00130079
0.00128243
0.00126295
0.00124231
0.00122049
0.00119747
0.00117323
0.00114775
0.00112102
0.00109304
0.00106382
0.00103337
0.0010017
0.000968849
0.000934852
0.000899758
0.000863623
0.000826515
0.000788515
0.00074971
0.000710201
0.000670098
0.000629518
0.00058859
0.00054745
0.000506218
0.000465155
0.00042464
0.00136817
0.00135565
0.00134225
0.00132795
0.00131271
0.00129649
0.00127927
0.00126102
0.00124169
0.00122128
0.00119975
0.0011771
0.00115329
0.00112833
0.00110221
0.00107492
0.00104648
0.0010169
0.000986206
0.000954419
0.000921582
0.000887742
0.000852953
0.000817282
0.000780804
0.000743602
0.000705769
0.000667408
0.000628627
0.000589546
0.000550287
0.000510963
0.000471805
0.000433144
0.00134786
0.0013352
0.00132171
0.00130735
0.00129209
0.0012759
0.00125876
0.00124063
0.00122149
0.00120132
0.0011801
0.00115782
0.00113446
0.00111002
0.0010845
0.0010579
0.00103022
0.00100149
0.000971729
0.000940965
0.000909237
0.000876591
0.00084308
0.000808768
0.000773724
0.000738028
0.000701766
0.000665034
0.000627932
0.00059057
0.000553061
0.000515508
0.000478117
0.000441175
0.00132832
0.00131557
0.00130201
0.00128762
0.00127237
0.00125624
0.00123919
0.00122121
0.00120228
0.00118237
0.00116147
0.00113957
0.00111667
0.00109275
0.00106782
0.00104188
0.00101496
0.000987049
0.000958189
0.000928407
0.000897739
0.00086623
0.000833932
0.000800904
0.000767213
0.000732934
0.000698146
0.000662939
0.000627405
0.000591646
0.000555766
0.00051986
0.000484109
0.000448763
0.00130954
0.00129672
0.00128312
0.00126873
0.00125351
0.00123746
0.00122053
0.00120272
0.001184
0.00116437
0.0011438
0.00112229
0.00109984
0.00107644
0.0010521
0.00102682
0.00100061
0.000973503
0.000945513
0.000916672
0.000887018
0.000856592
0.000825444
0.000793632
0.000761218
0.000728271
0.000694868
0.000661089
0.000627022
0.000592759
0.000558398
0.000524025
0.000489799
0.000455937
0.00129149
0.00127862
0.00126501
0.00125063
0.00123547
0.00121951
0.00120272
0.0011851
0.00116661
0.00114726
0.00112703
0.00110592
0.00108392
0.00106103
0.00103726
0.00101262
0.000987126
0.000960788
0.000933635
0.000905697
0.00087701
0.000847615
0.00081756
0.000786898
0.000755689
0.000723998
0.000691896
0.000659457
0.000626763
0.000593899
0.000560955
0.000528012
0.000495207
0.000462725
0.00127413
0.00126124
0.00124763
0.0012333
0.00121821
0.00120236
0.00118573
0.0011683
0.00115006
0.001131
0.00111112
0.0010904
0.00106885
0.00104647
0.00102327
0.000999249
0.000974434
0.000948841
0.000922493
0.00089542
0.000867658
0.000839245
0.000810227
0.000780655
0.000750584
0.000720076
0.000689197
0.000658018
0.000626611
0.000595057
0.000563437
0.000531829
0.000500349
0.000469154
0.00125745
0.00124455
0.00123097
0.00121669
0.0012017
0.00118598
0.00116951
0.00115229
0.0011343
0.00111554
0.001096
0.00107568
0.00105457
0.00103269
0.00101004
0.000986633
0.000962481
0.000937606
0.000912032
0.000885789
0.000858909
0.000831431
0.000803398
0.000774858
0.000745864
0.000716472
0.000686745
0.000656749
0.00062655
0.000596224
0.000565845
0.000535485
0.000505244
0.000475253
0.00124141
0.00122852
0.00121498
0.00120078
0.00118589
0.00117031
0.00115402
0.00113702
0.00111929
0.00110083
0.00108164
0.00106171
0.00104104
0.00101965
0.000997543
0.000974724
0.000951214
0.000927032
0.000902202
0.000876752
0.000850715
0.000824127
0.00079703
0.000769468
0.000741492
0.000713155
0.000684514
0.000655631
0.000626568
0.000597394
0.000568179
0.000538989
0.000509909
0.000481049
0.00122598
0.00121313
0.00119964
0.00118553
0.00117076
0.00115533
0.00113923
0.00112245
0.00110499
0.00108683
0.00106799
0.00104845
0.00102822
0.0010073
0.00098572
0.000963474
0.000940585
0.00091707
0.000892955
0.000868265
0.000843033
0.000817293
0.000791085
0.000764451
0.000737439
0.000710098
0.000682481
0.000654646
0.000626653
0.000598562
0.00057044
0.000542349
0.000514361
0.00048657
0.00121115
0.00119834
0.00118493
0.00117091
0.00115627
0.00114101
0.0011251
0.00110855
0.00109136
0.0010735
0.001055
0.00103585
0.00101604
0.000995601
0.000974529
0.000952839
0.000930549
0.000907677
0.000884247
0.000860286
0.000835822
0.00081089
0.000785528
0.000759774
0.000733674
0.000707275
0.000680626
0.00065378
0.000626793
0.000599722
0.000572628
0.00054557
0.000518609
0.000491831
0.00119718
0.00118443
0.0011711
0.00115718
0.00114268
0.00112758
0.00111187
0.00109555
0.00107862
0.00106107
0.0010429
0.00102411
0.00100472
0.000984729
0.000964144
0.000942982
0.000921259
0.000898993
0.000876208
0.000852929
0.000829184
0.000805007
0.000780431
0.000755496
0.000730243
0.000704717
0.000678963
0.000653032
0.000626974
0.000600844
0.000574698
0.000548591
0.000522576
0.000496723
0.00118388
0.00117119
0.00115795
0.00114415
0.00112979
0.00111486
0.00109935
0.00108326
0.00106658
0.00104932
0.00103148
0.00101306
0.000994067
0.000974507
0.000954392
0.000933736
0.000912554
0.000890866
0.000868694
0.000846062
0.000822997
0.000799532
0.000775699
0.000751534
0.000727077
0.000702369
0.000677454
0.000652379
0.000627191
0.00060194
0.00057668
0.000551459
0.000526328
0.000501348
0.00117082
0.0011582
0.00114506
0.00113138
0.00111717
0.00110242
0.00108712
0.00107126
0.00105485
0.00103789
0.00102038
0.00100232
0.000983725
0.000964596
0.000944946
0.000924789
0.000904141
0.00088302
0.000861448
0.000839449
0.000817049
0.000794276
0.000771164
0.000747747
0.000724061
0.000700145
0.000676041
0.000651792
0.000627443
0.00060304
0.000578632
0.000554265
0.000529985
0.000505849
0.001158
0.00114546
0.00113243
0.00111889
0.00110484
0.00109027
0.00107518
0.00105957
0.00104343
0.00102677
0.00100959
0.000991894
0.000973692
0.00095499
0.000935801
0.000916136
0.000896013
0.000875449
0.000854465
0.000833083
0.00081133
0.000789232
0.000766821
0.000744128
0.000721189
0.00069804
0.000674719
0.000651267
0.000627727
0.00060414
0.000580552
0.000557007
0.000533547
0.000510224
0.00114542
0.00113299
0.00112007
0.00110667
0.00109279
0.00107841
0.00106354
0.00104817
0.00103231
0.00101595
0.000999103
0.000981771
0.000963962
0.000945684
0.000926949
0.000907771
0.000888163
0.000868145
0.000847736
0.000826957
0.000805834
0.000784392
0.000762661
0.000740671
0.000718454
0.000696046
0.000673481
0.000650799
0.000628037
0.000605237
0.00058244
0.000559685
0.000537012
0.000514471
0.0011331
0.00112077
0.00110798
0.00109473
0.00108102
0.00106684
0.00105219
0.00103707
0.00102148
0.00100543
0.000988918
0.000971948
0.00095453
0.000936672
0.000918386
0.000899685
0.000880584
0.0008611
0.000841253
0.000821062
0.000800553
0.000779749
0.000758677
0.000737367
0.00071585
0.000694157
0.000672323
0.000650382
0.000628371
0.000606327
0.00058429
0.000562296
0.00054038
0.000518591
0.00113282
0.00112103
0.00110881
0.00109615
0.00108306
0.00106953
0.00105555
0.00104113
0.00102627
0.00101096
0.000995212
0.000979031
0.000962421
0.00094539
0.000927947
0.000910103
0.000891872
0.000873268
0.000854307
0.000835008
0.000815391
0.000795478
0.000775293
0.000754861
0.00073421
0.000713369
0.000692367
0.000671237
0.000650011
0.000628723
0.000607408
0.000586102
0.000564838
0.00054365
0.000522582
0.0011209
0.00110921
0.00109711
0.0010846
0.00107167
0.00105832
0.00104455
0.00103036
0.00101575
0.00100073
0.000985285
0.000969436
0.000953183
0.000936536
0.000919503
0.000902095
0.000884325
0.000866207
0.000847757
0.000828994
0.000809935
0.000790602
0.000771017
0.000751206
0.000731192
0.000711004
0.00069067
0.000670219
0.000649682
0.00062909
0.000608475
0.000587872
0.00056731
0.000546821
0.000526446
0.00110923
0.00109765
0.00108568
0.00107331
0.00106055
0.00104739
0.00103383
0.00101988
0.00100553
0.000990782
0.000975647
0.000960128
0.00094423
0.000927962
0.000911333
0.000894353
0.000877036
0.000859394
0.000841444
0.000823202
0.000804686
0.000785917
0.000766915
0.000747704
0.000728307
0.000708751
0.000689061
0.000669264
0.00064939
0.000629468
0.000609527
0.0005896
0.000569713
0.000549895
0.000530186
0.00109781
0.00108634
0.00107451
0.00106229
0.0010497
0.00103674
0.0010234
0.00100968
0.000995587
0.000981124
0.000966294
0.000951102
0.000935555
0.000919662
0.000903431
0.000886872
0.000869998
0.000852822
0.000835359
0.000817625
0.000799638
0.000781416
0.000762979
0.000744349
0.000725549
0.000706602
0.000687533
0.000668368
0.000649133
0.000629855
0.000610563
0.000591285
0.000572046
0.000552873
0.000533804
0.00108664
0.0010753
0.0010636
0.00105154
0.00103913
0.00102636
0.00101324
0.00099976
0.000985928
0.000971746
0.00095722
0.000942353
0.000927154
0.00091163
0.00089579
0.000879644
0.000863205
0.000846484
0.000829496
0.000812257
0.000794783
0.000777091
0.000759202
0.000741135
0.000722911
0.000704552
0.000686083
0.000667525
0.000648906
0.000630248
0.000611579
0.000592926
0.00057431
0.000555757
0.000537303
0.00107572
0.00106451
0.00105295
0.00104106
0.00102883
0.00101626
0.00100336
0.000990119
0.000976547
0.000962645
0.00094842
0.000933876
0.00091902
0.000903859
0.000888404
0.000872663
0.000856648
0.000840372
0.000823847
0.000807089
0.000790113
0.000772937
0.000755577
0.000738054
0.000720387
0.000702597
0.000684705
0.000666734
0.000648706
0.000630645
0.000612576
0.000594523
0.000576506
0.000558549
0.000540686
0.00106506
0.00105397
0.00104257
0.00103084
0.0010188
0.00100643
0.00099375
0.000980751
0.000967439
0.000953817
0.00093989
0.000925665
0.000911147
0.000896344
0.000881266
0.000865922
0.000850322
0.000834479
0.000818405
0.000802115
0.000785623
0.000768946
0.0007521
0.000735103
0.000717973
0.000700731
0.000683396
0.000665989
0.000648531
0.000631045
0.000613552
0.000596076
0.000578635
0.00056125
0.000543955
0.00105465
0.0010437
0.00103245
0.00102089
0.00100903
0.000996872
0.000984412
0.000971653
0.0009586
0.000945255
0.000931625
0.000917714
0.00090353
0.000889079
0.000874371
0.000859414
0.00084422
0.000828799
0.000813164
0.000797328
0.000781306
0.000765112
0.000748762
0.000732274
0.000715663
0.00069895
0.000682151
0.000665288
0.000648379
0.000631444
0.000614506
0.000597585
0.000580697
0.000563863
0.000547114
0.00104449
0.00103368
0.00102258
0.0010112
0.000999532
0.000987578
0.00097534
0.000962822
0.000950026
0.000936957
0.000923619
0.000910019
0.000896162
0.000882056
0.00086771
0.000853133
0.000838334
0.000823325
0.000808117
0.000792722
0.000777155
0.000761429
0.00074556
0.000729562
0.000713453
0.000697249
0.000680968
0.000664628
0.000648246
0.000631843
0.000615438
0.000599049
0.000582694
0.000566388
0.000550164
0.00103458
0.00102392
0.00101298
0.00100177
0.000990294
0.000978547
0.000966532
0.000954253
0.000941713
0.000928916
0.000915867
0.000902573
0.000889038
0.000875271
0.00086128
0.000847073
0.000832659
0.00081805
0.000803257
0.000788291
0.000773164
0.000757892
0.000742486
0.000726963
0.000711337
0.000695625
0.000679842
0.000664005
0.000648132
0.000632239
0.000616346
0.00060047
0.000584626
0.000568828
0.000553109
0.00102492
0.00101441
0.00100363
0.000992603
0.000981316
0.000969776
0.000957984
0.000945943
0.000933656
0.000921129
0.000908365
0.000895371
0.000882153
0.000868717
0.000855072
0.000841226
0.000827189
0.000812969
0.000798578
0.000784027
0.000769328
0.000754493
0.000739537
0.000724471
0.000709312
0.000694073
0.000678769
0.000663417
0.000648033
0.000632631
0.000617231
0.000601847
0.000586494
0.000571185
0.00055595
0.00101552
0.00100515
0.000994542
0.00098369
0.000972596
0.000961262
0.000949691
0.000937886
0.000925851
0.000913589
0.000901106
0.000888408
0.000875499
0.000862388
0.000849082
0.000835588
0.000821916
0.000808075
0.000794074
0.000779926
0.00076564
0.000751229
0.000736706
0.000722082
0.000707372
0.000692589
0.000677748
0.000662862
0.000647947
0.000633018
0.000618091
0.000603181
0.000588299
0.000573459
0.00055869
0.00100636
0.000996148
0.000985704
0.000975031
0.000964129
0.000953001
0.000941651
0.00093008
0.000918293
0.000906293
0.000894086
0.000881677
0.000869073
0.000856279
0.000843302
0.000830152
0.000816835
0.000803361
0.00078974
0.000775981
0.000762096
0.000748094
0.000733989
0.000719792
0.000705515
0.000691171
0.000676774
0.000662337
0.000647874
0.000633398
0.000618926
0.00060447
0.000590041
0.000575652
0.00056133
0.000997454
0.000987395
0.000977117
0.000966623
0.000955913
0.000944991
0.000933859
0.000922519
0.000910977
0.000899235
0.0008873
0.000875175
0.000862867
0.000850383
0.000837728
0.000824912
0.00081194
0.000798823
0.000785569
0.000772188
0.000758689
0.000745083
0.000731382
0.000717595
0.000703735
0.000689815
0.000675845
0.00066184
0.000647811
0.000633771
0.000619735
0.000605716
0.000591722
0.000577766
0.000563874
0.000988795
0.00097889
0.000968779
0.000958464
0.000947946
0.000937227
0.000926311
0.0009152
0.000903899
0.000892411
0.000880741
0.000868895
0.000856877
0.000844695
0.000832354
0.000819862
0.000807226
0.000794455
0.000781556
0.00076854
0.000755415
0.000742191
0.000728879
0.000715488
0.000702031
0.000688517
0.000674959
0.000661368
0.000647756
0.000634135
0.000620519
0.000606919
0.000593343
0.000579801
0.000566322
0.00098038
0.000970631
0.000960688
0.000950551
0.000940223
0.000929706
0.000919004
0.000908119
0.000897055
0.000885816
0.000874406
0.000862832
0.000851098
0.000839209
0.000827174
0.000814997
0.000802687
0.000790251
0.000777697
0.000765033
0.000752269
0.000739414
0.000726477
0.000713468
0.000700397
0.000687275
0.000674112
0.00066092
0.000647709
0.00063449
0.000621277
0.000608079
0.000594903
0.000581761
0.000568677
0.00097221
0.000962617
0.00095284
0.000942881
0.000932741
0.000922425
0.000911933
0.00090127
0.000890439
0.000879444
0.00086829
0.000856981
0.000845523
0.000833921
0.000822182
0.000810312
0.000798317
0.000786206
0.000773985
0.000761662
0.000749247
0.000736747
0.000724171
0.000711529
0.000698831
0.000686086
0.000673303
0.000660494
0.000647667
0.000634835
0.000622008
0.000609196
0.000596405
0.000583645
0.000570941
0.000964282
0.000954844
0.000945234
0.000935451
0.000925498
0.000915379
0.000905095
0.00089465
0.000884048
0.000873292
0.000862387
0.000851337
0.000840148
0.000828826
0.000817374
0.000805801
0.000794112
0.000782315
0.000770416
0.000758422
0.000746343
0.000734186
0.000721958
0.00070967
0.00069733
0.000684946
0.000672529
0.000660087
0.00064763
0.000635168
0.000622712
0.00061027
0.000597848
0.000585455
0.000573115
0.000956594
0.000947312
0.000937866
0.000928258
0.00091849
0.000908565
0.000898485
0.000888255
0.000877877
0.000867354
0.000856693
0.000845896
0.000834969
0.000823917
0.000812745
0.00080146
0.000790067
0.000778573
0.000766985
0.000755309
0.000743554
0.000731727
0.000719835
0.000707886
0.00069589
0.000683854
0.000671788
0.000659699
0.000647596
0.00063549
0.000623389
0.000611303
0.000599235
0.000587193
0.000575202
0.000949145
0.000940017
0.000930734
0.000921299
0.000911713
0.00090198
0.000892101
0.00088208
0.000871921
0.000861627
0.000851203
0.000840652
0.00082998
0.00081919
0.00080829
0.000797283
0.000786177
0.000774976
0.000763688
0.000752319
0.000740876
0.000729366
0.000717797
0.000706175
0.00069451
0.000682808
0.000671078
0.000659327
0.000647565
0.000635799
0.00062404
0.000612294
0.000600564
0.00058886
0.000577204
0.000941932
0.000932957
0.000923836
0.000914572
0.000905165
0.00089562
0.000885938
0.000876123
0.000866178
0.000856107
0.000845913
0.000835601
0.000825176
0.000814642
0.000804004
0.000793267
0.000782437
0.000771519
0.000760521
0.000749447
0.000738305
0.0007271
0.000715841
0.000704534
0.000693186
0.000681804
0.000670397
0.000658971
0.000647535
0.000636096
0.000624663
0.000613243
0.000601839
0.000590457
0.000579122
0.000934954
0.000926131
0.00091717
0.000908073
0.000898843
0.000889482
0.000879992
0.000870378
0.000860642
0.000850788
0.000840819
0.00083074
0.000820554
0.000810267
0.000799882
0.000789406
0.000778843
0.000768199
0.000757479
0.00074669
0.000735837
0.000724926
0.000713965
0.000702959
0.000691916
0.000680842
0.000669744
0.00065863
0.000647505
0.000636379
0.000625259
0.000614152
0.000603058
0.000591986
0.000580959
0.00092821
0.000919536
0.000910732
0.0009018
0.000892743
0.000883562
0.000874261
0.000864843
0.000855311
0.000845667
0.000835916
0.000826062
0.000816109
0.000806061
0.000795922
0.000785697
0.000775392
0.000765011
0.00075456
0.000744044
0.000733469
0.00072284
0.000712165
0.000701449
0.000690698
0.000679918
0.000669117
0.000658301
0.000647476
0.000636649
0.000625829
0.00061502
0.000604224
0.000593448
0.000582715
0.000921696
0.000913169
0.00090452
0.00089575
0.000886862
0.000877858
0.000868741
0.000859514
0.000850179
0.000840741
0.000831202
0.000821566
0.000811838
0.00080202
0.000792118
0.000782137
0.000772079
0.000761952
0.000751759
0.000741506
0.000731198
0.00072084
0.000710439
0.0007
0.000689529
0.000679032
0.000668515
0.000657984
0.000647445
0.000636905
0.000626371
0.000615849
0.000605338
0.000594844
0.000584393
0.000915412
0.00090703
0.000898533
0.000889922
0.000881199
0.000872367
0.000863429
0.000854388
0.000845245
0.000836006
0.000826672
0.000817247
0.000807736
0.000798141
0.000788468
0.00077872
0.000768902
0.000759018
0.000749073
0.000739073
0.000729021
0.000718923
0.000708785
0.000698612
0.000688409
0.000678182
0.000667937
0.000657679
0.000647413
0.000637147
0.000626888
0.000616638
0.000606399
0.000596176
0.000585994
0.000909356
0.000901116
0.000892767
0.000884311
0.00087575
0.000867086
0.000858323
0.000849461
0.000840505
0.000831458
0.000822322
0.000813102
0.0008038
0.000794421
0.000784967
0.000775445
0.000765856
0.000756206
0.0007465
0.000736741
0.000726935
0.000717087
0.0007072
0.000697281
0.000687335
0.000677367
0.000667381
0.000657384
0.00064738
0.000637376
0.000627378
0.000617389
0.00060741
0.000597446
0.00058752
0.000903527
0.000895426
0.000887223
0.000878918
0.000870514
0.000862013
0.000853418
0.000844732
0.000835956
0.000827095
0.000818151
0.000809127