/*--------------------------------*- C++ -*----------------------------------*\
| =========                 |                                                 |
| \\      /  F ield         | OpenFOAM: The Open Source CFD Toolbox           |
|  \\    /   O peration     | Version:  2412                                  |
|   \\  /    A nd           | Website:  www.openfoam.com                      |
|    \\/     M anipulation  |                                                 |
\*---------------------------------------------------------------------------*/
FoamFile
{
    version     2.0;
    format      ascii;
    arch        "LSB;label=32;scalar=64";
    class       surfaceScalarField;
    location    "29.5";
    object      phi;
}
// * * * * * * * * * * * * * * * * * * * * * * * * * * * * * * * * * * * * * //

dimensions      [0 3 -1 0 0 0 0];

oriented        oriented;

internalField   nonuniform List<scalar> 
10424
(
0.0055267
0.000316104
-0.00553628
-0.000306525
0.00551709
0.000321894
-0.00031229
0.00550748
0.000327434
-0.00031782
0.00549787
0.000332697
-0.000323091
0.00548829
0.000337661
-0.000328079
0.00547875
0.000342302
-0.000332763
0.00546928
0.000346599
-0.000337122
0.00545988
0.000350534
-0.000341137
0.00545058
0.00035409
-0.000344792
0.0054414
0.000357252
-0.000348073
0.00543236
0.00036001
-0.000350967
0.00542347
0.000362352
-0.000353465
0.00541476
0.000364272
-0.00035556
0.00540624
0.000365766
-0.000357245
0.00539793
0.00036683
-0.000358519
0.00538984
0.000367464
-0.000359378
0.005382
0.000367669
-0.000359822
0.0053744
0.000367445
-0.000359853
0.00536708
0.000366796
-0.000359471
0.00536003
0.000365725
-0.00035868
0.00535328
0.000364237
-0.000357481
0.00534682
0.000362338
-0.000355879
0.00534067
0.000360032
-0.000353878
0.00533482
0.000357328
-0.000351483
0.00532929
0.000354232
-0.000348702
0.00532408
0.000350755
-0.000345541
0.00531918
0.000346908
-0.00034201
0.0053146
0.000342703
-0.000338122
0.00531033
0.000338155
-0.000333887
0.00530637
0.00033328
-0.000329322
0.00530272
0.000328095
-0.000324444
0.00529937
0.000322621
-0.000319269
0.00529631
0.000316877
-0.000313819
0.00529354
0.000310886
-0.000308113
0.00529104
0.00030467
-0.000302173
0.00528881
0.000298251
-0.000296021
0.00528684
0.000291652
-0.00028968
0.00528511
0.000284896
-0.00028317
0.00528362
0.000278005
-0.000276514
0.00528236
0.000271002
-0.000269734
0.0052813
0.000263905
-0.000262848
0.00528044
0.000256736
-0.000255877
0.00527977
0.00024951
-0.000248836
0.000242247
-0.000241744
0.00552613
0.000325998
-0.00553603
0.00551622
0.000331807
0.00550631
0.000337347
0.00549641
0.000342593
0.00548655
0.000347521
0.00547674
0.000352108
0.00546701
0.000356332
0.00545737
0.000360175
0.00544784
0.000363618
0.00543844
0.000366649
0.0054292
0.000369255
0.00542012
0.000371427
0.00541124
0.000373159
0.00540256
0.000374445
0.0053941
0.000375285
0.00538589
0.000375677
0.00537793
0.000375624
0.00537025
0.000375129
0.00536285
0.000374196
0.00535574
0.000372829
0.00534895
0.000371036
0.00534246
0.000368822
0.0053363
0.000366196
0.00533046
0.000363166
0.00532495
0.000359742
0.00531977
0.000355935
0.00531492
0.000351757
0.0053104
0.000347224
0.00530621
0.000342351
0.00530233
0.000337154
0.00529877
0.000331655
0.00529552
0.000325873
0.00529257
0.000319829
0.00528991
0.000313546
0.00528753
0.000307048
0.00528542
0.000300358
0.00528357
0.000293499
0.00528198
0.000286495
0.00528061
0.000279368
0.00527947
0.00027214
0.00527855
0.000264833
0.00527782
0.000257466
0.00527727
0.000250057
0.000242624
0.00552538
0.000336221
-0.0055356
0.00551515
0.000342038
0.00550492
0.000347569
0.00549473
0.000352788
0.00548458
0.000357669
0.0054745
0.00036219
0.0054645
0.000366328
0.00545461
0.000370065
0.00544485
0.000373382
0.00543523
0.000376267
0.00542578
0.000378707
0.00541652
0.000380693
0.00540746
0.000382219
0.00539862
0.000383281
0.00539003
0.000383879
0.00538169
0.000384013
0.00537363
0.000383685
0.00536586
0.000382901
0.00535839
0.000381665
0.00535123
0.000379985
0.0053444
0.000377868
0.0053379
0.000375324
0.00533173
0.00037236
0.00532591
0.000368989
0.00532043
0.000365221
0.0053153
0.000361069
0.00531051
0.000356548
0.00530605
0.000351674
0.00530194
0.000346464
0.00529816
0.000340937
0.0052947
0.000335114
0.00529156
0.000329015
0.00528872
0.000322665
0.00528618
0.000316085
0.00528393
0.000309301
0.00528195
0.000302336
0.00528024
0.000295214
0.00527877
0.00028796
0.00527754
0.000280595
0.00527654
0.000273143
0.00527575
0.000265626
0.00527515
0.000258062
0.00527474
0.000250471
0.000242871
0.00552442
0.000346784
-0.00553498
0.00551386
0.000352601
0.00550331
0.000358112
0.00549281
0.000363291
0.00548237
0.000368113
0.005472
0.000372554
0.00546174
0.000376593
0.00545159
0.000380209
0.00544159
0.000383385
0.00543175
0.000386108
0.00542209
0.000388365
0.00541264
0.000390148
0.00540341
0.000391451
0.00539441
0.000392272
0.00538568
0.00039261
0.00537723
0.000392466
0.00536907
0.000391845
0.00536122
0.000390753
0.00535369
0.000389197
0.00534649
0.000387185
0.00533963
0.000384727
0.00533312
0.000381834
0.00532696
0.000378516
0.00532116
0.000374787
0.00531572
0.000370659
0.00531065
0.000366149
0.00530592
0.000361271
0.00530155
0.000356044
0.00529753
0.000350486
0.00529385
0.000344618
0.0052905
0.000338462
0.00528748
0.00033204
0.00528477
0.000325376
0.00528236
0.000318494
0.00528024
0.000311419
0.0052784
0.000304176
0.00527683
0.00029679
0.0052755
0.000289283
0.00527442
0.000281681
0.00527355
0.000274005
0.0052729
0.000266278
0.00527244
0.00025852
0.00527217
0.000250749
0.000242984
0.00552323
0.0003577
-0.00553415
0.00551233
0.000363505
0.00550146
0.000368984
0.00549064
0.000374112
0.00547989
0.000378862
0.00546923
0.000383209
0.00545869
0.000387133
0.00544829
0.000390612
0.00543805
0.000393631
0.00542798
0.000396174
0.00541811
0.000398231
0.00540847
0.000399793
0.00539907
0.000400855
0.00538992
0.000401414
0.00538106
0.000401473
0.00537249
0.000401032
0.00536424
0.000400099
0.00535631
0.000398679
0.00534873
0.000396783
0.00534149
0.00039442
0.00533462
0.000391602
0.00532811
0.000388342
0.00532197
0.000384652
0.00531621
0.000380548
0.00531083
0.000376046
0.00530581
0.000371162
0.00530117
0.000365914
0.00529689
0.000360321
0.00529297
0.000354404
0.00528941
0.000348185
0.00528618
0.000341688
0.00528329
0.000334935
0.00528071
0.000327952
0.00527844
0.000320763
0.00527647
0.000313394
0.00527477
0.000305871
0.00527334
0.000298217
0.00527217
0.000290458
0.00527123
0.000282618
0.00527052
0.000274719
0.00527001
0.000266784
0.0052697
0.000258833
0.00526956
0.000250885
0.000242958
0.0055218
0.000368982
-0.00553309
0.00551055
0.000374764
0.00549933
0.000380199
0.00548818
0.000385261
0.00547712
0.000389923
0.00546617
0.000394161
0.00545535
0.000397953
0.00544468
0.000401279
0.00543419
0.000404122
0.0054239
0.000406467
0.00541382
0.000408304
0.00540399
0.000409625
0.00539442
0.000410426
0.00538513
0.000410705
0.00537614
0.000410463
0.00536747
0.000409705
0.00535913
0.000408438
0.00535113
0.000406671
0.0053435
0.000404414
0.00533624
0.00040168
0.00532936
0.000398483
0.00532287
0.000394836
0.00531676
0.000390757
0.00531105
0.000386262
0.00530573
0.000381369
0.00530079
0.000376096
0.00529624
0.000370464
0.00529207
0.000364493
0.00528827
0.000358207
0.00528482
0.000351628
0.00528173
0.000344781
0.00527898
0.000337691
0.00527655
0.000330382
0.00527443
0.000322882
0.0052726
0.000315216
0.00527106
0.00030741
0.00526979
0.000299489
0.00526877
0.000291477
0.00526799
0.0002834
0.00526743
0.000275279
0.00526708
0.000267138
0.00526691
0.000258997
0.00526692
0.000250875
0.00024279
0.00552011
0.000380644
-0.00553177
0.00550848
0.000386389
0.00549691
0.000391766
0.00548543
0.000396747
0.00547404
0.000401306
0.00546279
0.000405418
0.00545168
0.000409061
0.00544074
0.000412214
0.00543
0.000414862
0.00541948
0.000416989
0.0054092
0.000418586
0.00539918
0.000419645
0.00538944
0.000420162
0.00538001
0.000420138
0.0053709
0.000419574
0.00536213
0.000418477
0.00535371
0.000416855
0.00534566
0.000414718
0.005338
0.000412079
0.00533073
0.000408953
0.00532385
0.000405356
0.00531738
0.000401305
0.00531132
0.000396818
0.00530567
0.000391915
0.00530042
0.000386614
0.00529558
0.000380938
0.00529114
0.000374909
0.00528708
0.000368549
0.00528341
0.000361882
0.0052801
0.000354934
0.00527715
0.00034773
0.00527455
0.000340295
0.00527227
0.000332657
0.00527031
0.000324842
0.00526865
0.000316876
0.00526728
0.000308786
0.00526617
0.000300596
0.00526532
0.000292332
0.0052647
0.000284019
0.0052643
0.000275679
0.0052641
0.000267334
0.00526409
0.000259007
0.00526425
0.000250714
0.000242474
0.00551811
0.000392699
-0.00553017
0.00550611
0.000398394
0.00549418
0.000403698
0.00548234
0.000408582
0.00547063
0.00041302
0.00545906
0.000416987
0.00544766
0.00042046
0.00543645
0.000423421
0.00542546
0.000425852
0.00541471
0.00042774
0.00540422
0.000429074
0.00539402
0.000429848
0.00538412
0.00043006
0.00537455
0.000429709
0.00536533
0.0004288
0.00535647
0.000427339
0.00534798
0.000425338
0.00533989
0.000422809
0.0053322
0.000419767
0.00532493
0.000416228
0.00531807
0.000412211
0.00531164
0.000407735
0.00530564
0.000402821
0.00530006
0.000397492
0.00529491
0.000391768
0.00529017
0.000385674
0.00528585
0.000379234
0.00528192
0.000372473
0.00527839
0.000365416
0.00527523
0.00035809
0.00527244
0.000350521
0.00527
0.000342737
0.00526789
0.000334765
0.0052661
0.000326631
0.00526462
0.000318364
0.00526341
0.000309988
0.00526248
0.00030153
0.0052618
0.000293016
0.00526135
0.000284468
0.00526111
0.000275911
0.00526108
0.000267366
0.00526123
0.000258855
0.00526155
0.000250396
0.000242007
0.0055158
0.000405162
-0.00552826
0.0055034
0.000410791
0.00549109
0.000416004
0.0054789
0.000420773
0.00546685
0.000425072
0.00545496
0.000428874
0.00544327
0.000432157
0.00543179
0.000434903
0.00542054
0.000437095
0.00540956
0.000438719
0.00539887
0.000439767
0.00538849
0.000440231
0.00537843
0.000440112
0.00536873
0.00043941
0.0053594
0.00043813
0.00535046
0.000436283
0.00534192
0.000433879
0.0053338
0.000430933
0.0053261
0.000427464
0.00531884
0.000423489
0.00531202
0.000419031
0.00530564
0.00041411
0.00529971
0.000408751
0.00529423
0.000402978
0.00528918
0.000396815
0.00528456
0.000390289
0.00528037
0.000383426
0.00527659
0.000376252
0.00527322
0.000368795
0.00527022
0.000361082
0.0052676
0.000353143
0.00526533
0.000345004
0.00526341
0.000336693
0.0052618
0.000328239
0.00526049
0.000319669
0.00525947
0.000311008
0.00525872
0.000302283
0.00525822
0.000293519
0.00525794
0.00028474
0.00525789
0.000275969
0.00525802
0.000267228
0.00525834
0.000258538
0.00525882
0.000249917
0.000241384
0.00551313
0.000418046
-0.00552602
0.00550033
0.000423593
0.00548764
0.000428697
0.00547508
0.000433332
0.00546268
0.000437469
0.00545047
0.000441085
0.00543847
0.000444155
0.00542671
0.000446663
0.00541522
0.00044859
0.00540401
0.000449926
0.00539312
0.000450661
0.00538256
0.00045079
0.00537236
0.000450313
0.00536253
0.000449233
0.00535311
0.000447557
0.00534409
0.000445296
0.00533551
0.000442463
0.00532737
0.000439077
0.00531967
0.000435156
0.00531244
0.000430723
0.00530567
0.000425801
0.00529937
0.000420415
0.00529353
0.000414591
0.00528815
0.000408357
0.00528322
0.000401739
0.00527875
0.000394766
0.00527471
0.000387467
0.00527109
0.000379869
0.00526788
0.000372003
0.00526506
0.000363897
0.00526263
0.00035558
0.00526055
0.000347082
0.00525881
0.000338431
0.0052574
0.000329655
0.00525628
0.000320781
0.00525546
0.000311836
0.00525489
0.000302845
0.00525458
0.000293834
0.00525449
0.000284827
0.00525461
0.000275846
0.00525493
0.000266913
0.00525542
0.00025805
0.00525606
0.000249273
0.000240601
0.00551008
0.000431364
-0.0055234
0.00549686
0.00043681
0.00548377
0.000441787
0.00547084
0.000446266
0.00545809
0.00045022
0.00544555
0.000453625
0.00543324
0.000456458
0.0054212
0.000458701
0.00540946
0.000460338
0.00539803
0.000461357
0.00538693
0.000461752
0.00537621
0.000461517
0.00536587
0.000460654
0.00535593
0.000459168
0.00534642
0.000457068
0.00533735
0.000454365
0.00532874
0.000451077
0.00532059
0.000447224
0.00531292
0.000442827
0.00530573
0.000437911
0.00529903
0.000432503
0.00529281
0.000426631
0.00528708
0.000420324
0.00528182
0.00041361
0.00527704
0.000406522
0.00527272
0.000399088
0.00526884
0.000391341
0.0052654
0.000383309
0.00526238
0.000375025
0.00525976
0.000366519
0.00525752
0.00035782
0.00525564
0.000348959
0.00525411
0.000339965
0.0052529
0.000330866
0.00525199
0.000321689
0.00525136
0.000312461
0.005251
0.000303208
0.00525088
0.000293953
0.00525099
0.000284721
0.0052513
0.000275535
0.0052518
0.000266416
0.00525246
0.000257384
0.00525328
0.000248457
0.000239653
0.0055066
0.00044513
-0.00552036
0.00549295
0.000450455
0.00547946
0.000455282
0.00546614
0.000459583
0.00545303
0.00046333
0.00544016
0.000466498
0.00542755
0.000469067
0.00541523
0.000471018
0.00540323
0.000472335
0.00539158
0.00047301
0.0053803
0.000473034
0.00536941
0.000472405
0.00535894
0.000471127
0.0053489
0.000469205
0.00533932
0.00046665
0.00533021
0.000463477
0.00532158
0.000459706
0.00531345
0.000455358
0.00530581
0.000450459
0.00529869
0.000445037
0.00529207
0.00043912
0.00528596
0.00043274
0.00528036
0.00042593
0.00527525
0.00041872
0.00527062
0.000411145
0.00526647
0.000403237
0.00526278
0.00039503
0.00525954
0.000386555
0.00525672
0.000377845
0.0052543
0.000368932
0.00525228
0.000359848
0.00525062
0.000350621
0.0052493
0.000341283
0.0052483
0.000331861
0.00524761
0.000322382
0.0052472
0.000312874
0.00524704
0.000303361
0.00524713
0.000293867
0.00524744
0.000284416
0.00524794
0.000275029
0.00524863
0.00026573
0.00524948
0.000256536
0.00525047
0.000247465
0.000238536
0.00550264
0.000459354
-0.00551687
0.00548856
0.000464537
0.00547465
0.000469191
0.00546095
0.000473289
0.00544747
0.000476802
0.00543426
0.000479707
0.00542135
0.000481983
0.00540876
0.000483611
0.00539651
0.000484579
0.00538464
0.000484877
0.00537318
0.000484499
0.00536214
0.000483445
0.00535155
0.000481718
0.00534143
0.000479328
0.00533179
0.000476288
0.00532265
0.000472615
0.00531402
0.000468331
0.00530592
0.000463461
0.00529835
0.000458034
0.00529131
0.000452079
0.00528479
0.00044563
0.00527881
0.000438722
0.00527335
0.000431388
0.00526841
0.000423665
0.00526397
0.000415589
0.00526001
0.000407194
0.00525652
0.000398515
0.00525349
0.000389588
0.00525089
0.000380446
0.0052487
0.000371121
0.0052469
0.000361647
0.00524547
0.000352053
0.00524438
0.000342371
0.00524362
0.000332627
0.00524315
0.000322849
0.00524296
0.000313064
0.00524303
0.000303295
0.00524333
0.000293567
0.00524384
0.000283902
0.00524455
0.000274322
0.00524543
0.000264848
0.00524646
0.000255499
0.00524764
0.000246293
0.000237245
0.00549817
0.000474048
-0.00551286
0.00548364
0.000479065
0.00546931
0.000483522
0.00545521
0.000487389
0.00544137
0.00049064
0.00542783
0.000493252
0.00541461
0.000495203
0.00540174
0.000496478
0.00538926
0.000497063
0.00537718
0.00049695
0.00536555
0.000496136
0.00535437
0.000494623
0.00534367
0.000492415
0.00533348
0.000489524
0.0053238
0.000485965
0.00531465
0.00048176
0.00530605
0.000476933
0.005298
0.000471512
0.00529051
0.000465528
0.00528357
0.000459016
0.00527719
0.000452012
0.00527136
0.000444553
0.00526607
0.000436678
0.00526131
0.000428424
0.00525707
0.000419831
0.00525332
0.000410936
0.00525006
0.000401777
0.00524726
0.000392389
0.0052449
0.000382808
0.00524295
0.000373068
0.0052414
0.000363202
0.00524021
0.000353241
0.00523936
0.000343215
0.00523884
0.000333152
0.00523861
0.000323078
0.00523865
0.00031302
0.00523895
0.000303001
0.00523947
0.000293044
0.0052402
0.000283172
0.00524112
0.000273406
0.0052422
0.000263765
0.00524343
0.000254269
0.00524479
0.000244935
0.000235777
0.00549312
0.00048922
-0.00550829
0.00547814
0.000494046
0.00546338
0.000498277
0.00544889
0.000501885
0.00543468
0.000504844
0.0054208
0.000507131
0.00540728
0.000508725
0.00539415
0.000509611
0.00538143
0.000509778
0.00536916
0.00050922
0.00535737
0.000507934
0.00534606
0.000505925
0.00533528
0.0005032
0.00532503
0.000499772
0.00531533
0.000495662
0.0053062
0.000490892
0.00529764
0.00048549
0.00528967
0.000479487
0.00528228
0.00047292
0.00527547
0.000465824
0.00526924
0.000458241
0.00526358
0.00045021
0.00525849
0.000441774
0.00525394
0.000432974
0.00524992
0.00042385
0.00524641
0.000414444
0.00524339
0.000404794
0.00524085
0.000394939
0.00523874
0.000384914
0.00523705
0.000374756
0.00523576
0.000364497
0.00523483
0.000354169
0.00523424
0.000343801
0.00523397
0.000333422
0.00523399
0.000323057
0.00523428
0.000312732
0.00523481
0.000302469
0.00523557
0.000292291
0.00523652
0.000282219
0.00523765
0.000272274
0.00523894
0.000262475
0.00524037
0.00025284
0.00524192
0.000243385
0.000234127
0.00548742
0.000504875
-0.00550308
0.00547198
0.000509483
0.0054568
0.000513459
0.00544191
0.000516778
0.00542734
0.000519411
0.00541314
0.000521338
0.00539932
0.000522539
0.00538593
0.000523001
0.005373
0.000522713
0.00536054
0.000521672
0.0053486
0.000519876
0.00533719
0.000517333
0.00532634
0.000514053
0.00531606
0.000510054
0.00530636
0.000505356
0.00529727
0.000499986
0.00528878
0.000493977
0.00528091
0.000487362
0.00527365
0.000480182
0.00526699
0.000472477
0.00526094
0.000464291
0.00525549
0.000455668
0.00525061
0.000446652
0.00524629
0.000437289
0.00524252
0.000427621
0.00523927
0.000417693
0.00523652
0.000407545
0.00523424
0.000397216
0.00523241
0.000386744
0.005231
0.000376166
0.00522999
0.000365515
0.00522934
0.000354821
0.00522902
0.000344116
0.00522902
0.000333425
0.0052293
0.000322775
0.00522984
0.000312189
0.00523062
0.00030169
0.00523162
0.000291298
0.0052328
0.000281035
0.00523415
0.000270919
0.00523566
0.00026097
0.00523729
0.000251206
0.00523904
0.000241641
0.00023229
0.005481
0.000521017
-0.00549714
0.00546511
0.000525376
0.0054495
0.000529066
0.00543422
0.000532061
0.00541929
0.000534335
0.00540477
0.000535865
0.00539067
0.000536636
0.00537704
0.000536634
0.0053639
0.000535852
0.00535128
0.000534288
0.00533922
0.000531943
0.00532772
0.000528827
0.00531682
0.000524953
0.00530653
0.000520343
0.00529687
0.00051502
0.00528784
0.000509016
0.00527945
0.000502366
0.0052717
0.000495109
0.0052646
0.000487287
0.00525813
0.000478947
0.00525228
0.000470134
0.00524706
0.000460897
0.00524242
0.000451284
0.00523837
0.000441343
0.00523487
0.00043112
0.0052319
0.000420659
0.00522944
0.000410005
0.00522746
0.000399199
0.00522593
0.000388278
0.00522481
0.00037728
0.00522409
0.000366237
0.00522373
0.000355182
0.0052237
0.000344144
0.00522398
0.000333148
0.00522454
0.000322219
0.00522534
0.00031138
0.00522638
0.000300653
0.00522762
0.000290056
0.00522905
0.000279611
0.00523063
0.000269335
0.00523236
0.000259246
0.0052342
0.000249362
0.00523614
0.000239697
0.000230264
0.00547377
0.000537642
-0.0054904
0.00545743
0.000541721
0.0054414
0.000545091
0.00542574
0.000547727
0.00541047
0.000549603
0.00539564
0.000550699
0.00538127
0.000550999
0.00536741
0.000550494
0.00535409
0.000549176
0.00534133
0.000547046
0.00532916
0.00054411
0.00531761
0.000540379
0.00530669
0.000535872
0.00529642
0.000530611
0.00528682
0.000524627
0.00527788
0.000517952
0.00526962
0.000510627
0.00526203
0.000502696
0.00525512
0.000494204
0.00524886
0.000485202
0.00524326
0.000475739
0.00523829
0.000465869
0.00523393
0.000455642
0.00523016
0.000445108
0.00522696
0.000434318
0.00522431
0.000423318
0.00522216
0.000412153
0.00522049
0.000400865
0.00521928
0.000389494
0.00521848
0.000378077
0.00521807
0.000366647
0.00521802
0.000355235
0.00521829
0.00034387
0.00521886
0.000332576
0.0052197
0.000321377
0.00522079
0.000310295
0.00522209
0.000299349
0.00522359
0.000288558
0.00522526
0.00027794
0.00522708
0.000267514
0.00522903
0.000257297
0.00523109
0.000247303
0.00523324
0.000237548
0.000228044
0.00546564
0.000554744
-0.00548274
0.00544885
0.000558508
0.00543242
0.000561522
0.00541639
0.00056376
0.00540079
0.000565199
0.00538567
0.00056582
0.00537106
0.000565608
0.005357
0.000564555
0.00534352
0.000562658
0.00533065
0.000559919
0.00531841
0.000556349
0.00530683
0.000551961
0.00529592
0.000546778
0.0052857
0.000540827
0.00527619
0.000534141
0.00526738
0.00052676
0.00525928
0.000518727
0.00525189
0.000510089
0.00524519
0.000500899
0.00523919
0.000491209
0.00523385
0.000481075
0.00522917
0.000470551
0.00522512
0.000459693
0.00522167
0.000448555
0.0052188
0.000437188
0.00521648
0.000425641
0.00521467
0.000413961
0.00521334
0.000402191
0.00521247
0.000390371
0.00521201
0.000378538
0.00521193
0.000366725
0.0052122
0.000354963
0.00521279
0.000343279
0.00521367
0.000331696
0.00521481
0.000320237
0.00521618
0.000308922
0.00521776
0.000297768
0.00521953
0.000286794
0.00522145
0.000276016
0.00522351
0.000265451
0.0052257
0.000255115
0.00522798
0.000245024
0.00523033
0.00023519
0.000225626
0.0054565
-0.00547406
0.00543929
0.00542247
0.00540609
0.00539019
0.00537481
0.00535998
0.00534575
0.00533214
0.00531918
0.0053069
0.00529533
0.00528447
0.00527434
0.00526496
0.00525631
0.00524841
0.00524125
0.00523482
0.00522909
0.00522406
0.0052197
0.00521599
0.00521289
0.00521038
0.00520842
0.00520698
0.00520602
0.0052055
0.0052054
0.00520567
0.00520628
0.0052072
0.0052084
0.00520985
0.00521153
0.00521339
0.00521543
0.00521762
0.00521993
0.00522235
0.00522485
0.00522742
0.00579476
0.000191874
-0.00018392
0.00578643
0.000203048
-0.00019471
0.00577773
0.00021379
-0.000205093
0.0057687
0.000224091
-0.000215061
0.00575936
0.000233945
-0.000224608
0.00574975
0.000243343
-0.000233725
0.00573987
0.00025228
-0.000242407
0.00572977
0.00026075
-0.000250647
0.00571946
0.00026875
-0.000258443
0.00570898
0.000276275
-0.000265791
0.00569834
0.000283325
-0.000272689
0.00568758
0.000289898
-0.000279135
0.00567671
0.000295995
-0.00028513
0.00566577
0.000301615
-0.000290672
0.00565477
0.000306759
-0.000295762
0.00564375
0.00031143
-0.000300402
0.00563271
0.000315629
-0.000304592
0.00562168
0.000319359
-0.000308335
0.00561069
0.000322624
-0.000311634
0.00559976
0.000325429
-0.000314492
0.0055889
0.000327777
-0.000316914
0.00557812
0.000329677
-0.000318905
0.00556746
0.000331135
-0.000320471
0.00555692
0.00033216
-0.000321621
0.00554652
0.000332762
-0.000322363
0.000332954
-0.000322708
0.00580586
0.000200254
0.00579708
0.000211827
0.00578793
0.00022294
0.00577843
0.000233586
0.00576862
0.000243757
0.00575852
0.000253445
0.00574815
0.000262644
0.00573756
0.000271348
0.00572675
0.000279553
0.00571577
0.000287258
0.00570464
0.00029446
0.00569338
0.000301158
0.00568202
0.000307353
0.00567059
0.000313046
0.00565911
0.000318239
0.0056476
0.000322933
0.0056361
0.000327132
0.00562462
0.000330839
0.00561319
0.000334059
0.00560182
0.000336798
0.00559053
0.00033906
0.00557936
0.000340855
0.0055683
0.000342191
0.00555738
0.000343077
0.00554662
0.000343525
0.000343547
0.00581735
0.000209086
0.00580811
0.000221074
0.00579847
0.000232573
0.00578849
0.000243575
0.00577817
0.000254072
0.00576756
0.000264058
0.00575668
0.000273525
0.00574556
0.000282467
0.00573423
0.000290882
0.00572272
0.000298766
0.00571106
0.000306119
0.00569928
0.000312941
0.0056874
0.000319231
0.00567546
0.000324991
0.00566347
0.000330225
0.00565147
0.000334934
0.00563948
0.000339123
0.00562752
0.000342797
0.00561562
0.00034596
0.0056038
0.00034862
0.00559208
0.000350783
0.00558047
0.000352458
0.00556901
0.000353656
0.0055577
0.000354388
0.00554656
0.000354665
0.000354502
0.00582927
0.000218399
0.00581952
0.000230816
0.00580938
0.000242715
0.00579887
0.000254085
0.00578802
0.00026492
0.00577687
0.000275211
0.00576544
0.000284952
0.00575377
0.000294137
0.00574189
0.000302764
0.00572983
0.000310829
0.00571762
0.000318332
0.00570528
0.000325273
0.00569286
0.000331654
0.00568038
0.000337476
0.00566786
0.000342743
0.00565533
0.000347458
0.00564283
0.000351627
0.00563037
0.000355255
0.00561798
0.000358349
0.00560569
0.000360915
0.00559351
0.000362964
0.00558146
0.000364505
0.00556957
0.000365549
0.00555785
0.000366109
0.00554631
0.000366198
0.000365832
0.00584161
0.000228222
0.00583134
0.000241086
0.00582066
0.000253397
0.0058096
0.000265148
0.00579819
0.00027633
0.00578646
0.000286935
0.00577446
0.000296957
0.0057622
0.000306389
0.00574974
0.000315229
0.00573709
0.000323476
0.0057243
0.000331127
0.00571139
0.000338185
0.00569839
0.000344651
0.00568534
0.000350528
0.00567226
0.00035582
0.00565919
0.000360531
0.00564615
0.000364668
0.00563316
0.000368238
0.00562026
0.000371248
0.00560747
0.000373707
0.00559481
0.000375626
0.0055823
0.000377015
0.00556996
0.000377887
0.00555781
0.000378257
0.00554587
0.00037814
0.000377553
0.0058544
0.000238587
0.00584357
0.000251914
0.00583232
0.000264654
0.00582067
0.000276797
0.00580866
0.000288337
0.00579633
0.000299264
0.00578372
0.000309571
0.00577085
0.000319255
0.00575777
0.000328311
0.00574451
0.000336738
0.0057311
0.000344536
0.00571758
0.000351706
0.00570398
0.000358252
0.00569033
0.000364176
0.00567667
0.000369483
0.00566302
0.00037418
0.00564941
0.000378273
0.00563588
0.000381771
0.00562245
0.000384682
0.00560913
0.000387018
0.00559597
0.000388789
0.00558298
0.000390008
0.00557017
0.000390691
0.00555758
0.000390852
0.00554521
0.000390508
0.000389679
0.00586765
0.000249528
0.00585623
0.000263335
0.00584437
0.000276518
0.0058321
0.000289067
0.00581946
0.000300974
0.00580649
0.000312231
0.00579323
0.000322831
0.00577972
0.000332769
0.00576599
0.000342042
0.00575207
0.000350649
0.00573802
0.000358591
0.00572386
0.00036587
0.00570962
0.000372488
0.00569534
0.00037845
0.00568106
0.000383763
0.00566681
0.000388434
0.00565262
0.000392469
0.00563851
0.00039588
0.00562451
0.000398677
0.00561066
0.000400871
0.00559697
0.000402476
0.00558347
0.000403507
0.00557018
0.000403979
0.00555713
0.00040391
0.00554431
0.000403319
0.000402226
0.00588137
0.000261082
0.00586932
0.000275387
0.00585681
0.000289028
0.00584388
0.000301994
0.00583058
0.00031428
0.00581693
0.000325875
0.00580299
0.000336772
0.00578879
0.000346968
0.00577438
0.000356459
0.00575978
0.000365246
0.00574504
0.000373328
0.0057302
0.000380709
0.0057153
0.000387392
0.00570037
0.000393384
0.00568544
0.000398691
0.00567055
0.000403322
0.00565573
0.000407286
0.00564102
0.000410594
0.00562644
0.000413258
0.00561202
0.000415292
0.00559778
0.000416712
0.00558376
0.000417532
0.00556997
0.000417773
0.00555642
0.000417452
0.00554315
0.00041659
0.00041521
0.00589557
0.000273287
0.00588285
0.000288108
0.00586966
0.000302223
0.00585603
0.00031562
0.00584202
0.000328294
0.00582766
0.000340234
0.005813
0.000351435
0.00579807
0.000361891
0.00578293
0.000371601
0.00576761
0.000380564
0.00575216
0.000388782
0.00573661
0.000396259
0.005721
0.000402999
0.00570538
0.00040901
0.00568977
0.000414298
0.00567422
0.000418875
0.00565875
0.000422751
0.0056434
0.000425939
0.00562821
0.000428452
0.0056132
0.000430307
0.00559839
0.000431519
0.00558381
0.000432108
0.00556949
0.000432093
0.00555545
0.000431496
0.0055417
0.000430339
0.000428648
0.00591027
0.000286187
0.00589683
0.000301542
0.00588291
0.000316146
0.00586854
0.000329987
0.00585378
0.000343058
0.00583866
0.000355352
0.00582324
0.00036686
0.00580755
0.000377579
0.00579164
0.000387507
0.00577556
0.000396644
0.00575935
0.000404993
0.00574305
0.000412558
0.00572671
0.000419345
0.00571035
0.000425363
0.00569403
0.00043062
0.00567778
0.000435127
0.00566163
0.000438898
0.00564563
0.000441947
0.00562979
0.000444289
0.00561416
0.000445941
0.00559875
0.000446923
0.0055836
0.000447256
0.00556873
0.000446961
0.00555417
0.000446062
0.00553992
0.000444585
0.000442555
0.00592545
0.000299827
0.00591126
0.000315735
0.00589656
0.000330842
0.00588141
0.00034514
0.00586585
0.000358619
0.00584993
0.000371272
0.0058337
0.000383092
0.0058172
0.000394075
0.00580049
0.000404219
0.0057836
0.000413527
0.0057666
0.000422001
0.00574951
0.000429646
0.00573239
0.000436469
0.00571527
0.00044248
0.0056982
0.00044769
0.00568121
0.000452112
0.00566435
0.000455758
0.00564765
0.000458647
0.00563115
0.000460795
0.00561487
0.000462222
0.00559884
0.00046295
0.00558309
0.000463001
0.00556766
0.000462399
0.00555255
0.000461171
0.00553779
0.000459344
0.000456947
0.00594113
0.000314256
0.00592613
0.000330735
0.00591061
0.000346363
0.00589462
0.000361128
0.00587821
0.000375025
0.00586144
0.000388043
0.00584435
0.000400178
0.005827
0.000411425
0.00580944
0.000421784
0.00579171
0.000431257
0.00577386
0.000439848
0.00575594
0.000447563
0.005738
0.00045441
0.00572008
0.0004604
0.00570223
0.000465546
0.00568448
0.000469862
0.00566687
0.000473364
0.00564945
0.000476071
0.00563224
0.000478001
0.00561528
0.000479178
0.00559861
0.000479624
0.00558225
0.000479365
0.00556622
0.000478428
0.00555055
0.000476841
0.00553526
0.000474635
0.000471841
0.00595728
0.000329527
0.00594142
0.000346596
0.00592502
0.000362759
0.00590814
0.000378004
0.00589084
0.000392326
0.00587317
0.000405716
0.00585518
0.000418168
0.00583692
0.000429679
0.00581846
0.000440249
0.00579984
0.000449881
0.0057811
0.00045858
0.00576231
0.000466352
0.00574352
0.000473209
0.00572475
0.000479162
0.00570607
0.000484226
0.00568752
0.000488416
0.00566913
0.00049175
0.00565096
0.00049425
0.00563302
0.000495937
0.00561536
0.000496835
0.00559802
0.000496971
0.00558101
0.000496373
0.00556437
0.000495069
0.00554812
0.000493092
0.00553228
0.000490474
0.000487249
0.00597388
0.000345699
0.0059571
0.000363376
0.00593977
0.000380087
0.00592195
0.000395824
0.0059037
0.00041058
0.00588507
0.000424345
0.00586612
0.000437116
0.00584691
0.000448888
0.0058275
0.000459664
0.00580793
0.000469446
0.00578827
0.000478242
0.00576857
0.000486059
0.00574887
0.000492909
0.00572922
0.000498806
0.00570968
0.000503766
0.00569029
0.000507808
0.00567109
0.00051095
0.00565212
0.000513216
0.00563343
0.000514631
0.00561504
0.000515221
0.005597
0.000515016
0.00557933
0.000514045
0.00556205
0.000512342
0.0055452
0.000509941
0.0055288
0.000506877
0.000503187
0.0059909
0.000362832
0.00597314
0.000381135
0.00595482
0.00039841
0.00593599
0.000414648
0.00591673
0.000429843
0.00589709
0.000443987
0.00587713
0.000457075
0.00585691
0.000469106
0.00583649
0.00048008
0.00581594
0.000490003
0.0057953
0.000498882
0.00577463
0.000506728
0.00575398
0.000513553
0.00573342
0.000519373
0.00571298
0.000524207
0.00569271
0.000528074
0.00567266
0.000530997
0.00565288
0.000533
0.0056334
0.000534112
0.00561426
0.000534362
0.00559549
0.000533781
0.00557713