/*--------------------------------*- C++ -*----------------------------------*\
| =========                 |                                                 |
| \\      /  F ield         | OpenFOAM: The Open Source CFD Toolbox           |
|  \\    /   O peration     | Version:  2412                                  |
|   \\  /    A nd           | Website:  www.openfoam.com                      |
|    \\/     M anipulation  |                                                 |
\*---------------------------------------------------------------------------*/
FoamFile
{
    version     2.0;
    format      ascii;
    arch        "LSB;label=32;scalar=64";
    class       volScalarField;
    location    "5";
    object      p;
}
// * * * * * * * * * * * * * * * * * * * * * * * * * * * * * * * * * * * * * //

dimensions      [0 2 -2 0 0 0 0];

internalField   nonuniform List<scalar> 
5285
(
-2.88987e-05
-2.7479e-05
-2.61035e-05
-2.47716e-05
-2.34827e-05
-2.22367e-05
-2.10329e-05
-1.98711e-05
-1.87507e-05
-1.76713e-05
-1.66323e-05
-1.56331e-05
-1.46734e-05
-1.37524e-05
-1.28696e-05
-1.20244e-05
-1.1216e-05
-1.04438e-05
-9.70707e-06
-9.005e-06
-8.33678e-06
-7.70175e-06
-7.09879e-06
-6.52719e-06
-5.98615e-06
-5.47468e-06
-4.99183e-06
-4.53674e-06
-4.10846e-06
-3.70586e-06
-3.32813e-06
-2.82973e-05
-2.69053e-05
-2.55567e-05
-2.4251e-05
-2.29876e-05
-2.17663e-05
-2.05865e-05
-1.94479e-05
-1.83499e-05
-1.72922e-05
-1.62741e-05
-1.52952e-05
-1.43548e-05
-1.34525e-05
-1.25877e-05
-1.17597e-05
-1.09677e-05
-1.02113e-05
-9.48958e-06
-8.80185e-06
-8.1473e-06
-7.52523e-06
-6.93462e-06
-6.37474e-06
-5.84477e-06
-5.34378e-06
-4.87083e-06
-4.42506e-06
-4.00554e-06
-3.61121e-06
-3.2412e-06
-2.89455e-06
-2.57022e-06
-2.26738e-06
-1.98476e-06
-1.72162e-06
-1.47686e-06
-1.24964e-06
-1.03894e-06
-8.43815e-07
-6.63338e-07
-4.96456e-07
-3.4247e-07
-2.00069e-07
-6.87524e-08
5.26938e-08
1.65079e-07
2.69304e-07
3.66305e-07
4.56861e-07
5.42401e-07
6.22749e-07
7.01846e-07
7.72769e-07
8.59838e-07
8.97923e-07
1.07144e-06
9.02598e-07
1.5801e-06
3.40639e-07
3.2135e-06
-2.00089e-06
7.44549e-06
-7.02591e-06
1.31711e-05
-9.56083e-06
1.02714e-05
3.21985e-06
-9.51133e-06
2.54165e-05
-2.17191e-05
-2.76825e-05
-2.63189e-05
-2.49979e-05
-2.3719e-05
-2.24817e-05
-2.12857e-05
-2.01305e-05
-1.90156e-05
-1.79406e-05
-1.69051e-05
-1.59084e-05
-1.49501e-05
-1.40296e-05
-1.31464e-05
-1.22999e-05
-1.14894e-05
-1.07143e-05
-9.97392e-06
-9.26757e-06
-8.59448e-06
-7.95388e-06
-7.34505e-06
-6.76705e-06
-6.21913e-06
-5.70046e-06
-5.21017e-06
-4.74732e-06
-4.31107e-06
-3.9005e-06
-3.5146e-06
-3.15248e-06
-2.81325e-06
-2.49583e-06
-2.19945e-06
-1.92287e-06
-1.66535e-06
-1.42584e-06
-1.20346e-06
-9.97252e-07
-8.06279e-07
-6.29636e-07
-4.6631e-07
-3.15582e-07
-1.7622e-07
-4.768e-08
7.11919e-08
1.81197e-07
2.83223e-07
3.78183e-07
4.66869e-07
5.50614e-07
6.29356e-07
7.06841e-07
7.76355e-07
8.61858e-07
8.98992e-07
1.07008e-06
9.02659e-07
1.57272e-06
3.45109e-07
3.19134e-06
-1.97899e-06
7.39468e-06
-6.97741e-06
1.31019e-05
-9.52322e-06
1.02576e-05
3.16424e-06
-9.39456e-06
2.52471e-05
-2.14692e-05
-2.70546e-05
-2.572e-05
-2.44274e-05
-2.31759e-05
-2.19654e-05
-2.07952e-05
-1.96651e-05
-1.85745e-05
-1.7523e-05
-1.65101e-05
-1.55353e-05
-1.45981e-05
-1.36979e-05
-1.28341e-05
-1.20063e-05
-1.12138e-05
-1.04558e-05
-9.73184e-06
-9.04114e-06
-8.38299e-06
-7.75661e-06
-7.1613e-06
-6.59616e-06
-6.06043e-06
-5.5533e-06
-5.07391e-06
-4.62137e-06
-4.19482e-06
-3.79338e-06
-3.41608e-06
-3.06201e-06
-2.73034e-06
-2.41997e-06
-2.13017e-06
-1.85976e-06
-1.60798e-06
-1.3738e-06
-1.15636e-06
-9.54735e-07
-7.67999e-07
-5.95266e-07
-4.35567e-07
-2.88163e-07
-1.519e-07
-2.61931e-08
9.0054e-08
1.9763e-07
2.97417e-07
3.90292e-07
4.77071e-07
5.58985e-07
6.36083e-07
7.11928e-07
7.80002e-07
8.63897e-07
9.00073e-07
1.06864e-06
9.0274e-07
1.56503e-06
3.49858e-07
3.16821e-06
-1.95596e-06
7.34158e-06
-6.92664e-06
1.30298e-05
-9.48415e-06
1.02431e-05
3.10683e-06
-9.27524e-06
2.50743e-05
-2.12127e-05
-2.64137e-05
-2.5109e-05
-2.38452e-05
-2.2622e-05
-2.14387e-05
-2.0295e-05
-1.91905e-05
-1.81247e-05
-1.70972e-05
-1.61075e-05
-1.5155e-05
-1.42392e-05
-1.33597e-05
-1.25159e-05
-1.17071e-05
-1.09328e-05
-1.01924e-05
-9.48512e-06
-8.81039e-06
-8.16746e-06
-7.55558e-06
-6.97406e-06
-6.42201e-06
-5.89871e-06
-5.40333e-06
-4.93507e-06
-4.49302e-06
-4.07637e-06
-3.68422e-06
-3.31569e-06
-2.96982e-06
-2.64584e-06
-2.34267e-06
-2.05959e-06
-1.79546e-06
-1.54951e-06
-1.32077e-06
-1.10837e-06
-9.1141e-07
-7.28993e-07
-5.60244e-07
-4.04241e-07
-2.60225e-07
-1.27118e-07
-4.30099e-09
1.09272e-07
2.14372e-07
3.11879e-07
4.02627e-07
4.87462e-07
5.67511e-07
6.42928e-07
7.17104e-07
7.83705e-07
8.65955e-07
9.01164e-07
1.06713e-06
9.02846e-07
1.55703e-06
3.54906e-07
3.14406e-06
-1.93175e-06
7.28613e-06
-6.87354e-06
1.29546e-05
-9.44367e-06
1.0228e-05
3.04755e-06
-9.1536e-06
2.48984e-05
-2.09501e-05
-2.57603e-05
-2.4486e-05
-2.32519e-05
-2.20573e-05
-2.09019e-05
-1.97853e-05
-1.8707e-05
-1.76665e-05
-1.66635e-05
-1.56973e-05
-1.47676e-05
-1.38738e-05
-1.30153e-05
-1.21917e-05
-1.14024e-05
-1.06467e-05
-9.92411e-06
-9.23389e-06
-8.57542e-06
-7.948e-06
-7.35089e-06
-6.7834e-06
-6.24469e-06
-5.73404e-06
-5.25064e-06
-4.79369e-06
-4.36233e-06
-3.95576e-06
-3.57308e-06
-3.21347e-06
-2.87596e-06
-2.55981e-06
-2.26396e-06
-1.98772e-06
-1.72998e-06
-1.48998e-06
-1.26678e-06
-1.05951e-06
-8.67295e-07
-6.89276e-07
-5.24585e-07
-3.72345e-07
-2.31782e-07
-1.01886e-07
1.79871e-08
1.28836e-07
2.31414e-07
3.26601e-07
4.15181e-07
4.98036e-07
5.76187e-07
6.49889e-07
7.22365e-07
7.87464e-07
8.6803e-07
9.02265e-07
1.06555e-06
9.02981e-07
1.5487e-06
3.60275e-07
3.11886e-06
-1.90629e-06
7.22824e-06
-6.81806e-06
1.28765e-05
-9.40187e-06
1.02124e-05
2.98634e-06
-9.02992e-06
2.472e-05
-2.06822e-05
-2.50945e-05
-2.38513e-05
-2.26474e-05
-2.14823e-05
-2.03553e-05
-1.92663e-05
-1.82147e-05
-1.72e-05
-1.62219e-05
-1.52798e-05
-1.43733e-05
-1.35018e-05
-1.26648e-05
-1.18619e-05
-1.10923e-05
-1.03556e-05
-9.65112e-06
-8.97824e-06
-8.33633e-06
-7.72469e-06
-7.14261e-06
-6.58941e-06
-6.06428e-06
-5.5665e-06
-5.09528e-06
-4.64985e-06
-4.22936e-06
-3.83304e-06
-3.46001e-06
-3.10946e-06
-2.78045e-06
-2.47228e-06
-2.18388e-06
-1.9146e-06
-1.66336e-06
-1.42941e-06
-1.21184e-06
-1.00978e-06
-8.22409e-07
-6.48865e-07
-4.88305e-07
-3.39893e-07
-2.02845e-07
-7.62161e-08
4.06611e-08
1.48738e-07
2.48751e-07
3.41578e-07
4.27951e-07
5.0879e-07
5.85009e-07
6.56961e-07
7.27707e-07
7.91278e-07
8.7012e-07
9.03374e-07
1.06387e-06
9.03149e-07
1.54002e-06
3.65985e-07
3.09257e-06
-1.87954e-06
7.16784e-06
-6.76014e-06
1.27952e-05
-9.35884e-06
1.01965e-05
2.92313e-06
-8.90446e-06
2.45395e-05
-2.04097e-05
-2.44166e-05
-2.32053e-05
-2.20323e-05
-2.0897e-05
-1.97992e-05
-1.87382e-05
-1.77138e-05
-1.67255e-05
-1.57728e-05
-1.48552e-05
-1.39723e-05
-1.31235e-05
-1.23084e-05
-1.15264e-05
-1.0777e-05
-1.00596e-05
-9.37353e-06
-8.7183e-06
-8.09322e-06
-7.49764e-06
-6.93085e-06
-6.39217e-06
-5.88084e-06
-5.39616e-06
-4.93732e-06
-4.50361e-06
-4.09417e-06
-3.70828e-06
-3.34504e-06
-3.00372e-06
-2.68335e-06
-2.38329e-06
-2.10247e-06
-1.84026e-06
-1.59563e-06
-1.36783e-06
-1.15598e-06
-9.59231e-07
-7.76773e-07
-6.07779e-07
-4.51419e-07
-3.069e-07
-1.73427e-07
-5.01188e-08
6.37112e-08
1.6897e-07
2.66374e-07
3.56801e-07
4.4093e-07
5.19717e-07
5.93973e-07
6.64143e-07
7.3313e-07
7.95144e-07
8.72223e-07
9.04492e-07
1.06212e-06
9.03355e-07
1.53099e-06
3.72058e-07
3.06514e-06
-1.85144e-06
7.10485e-06
-6.69973e-06
1.27109e-05
-9.31468e-06
1.01802e-05
2.85786e-06
-8.77757e-06
2.43576e-05
-2.01335e-05
-2.3727e-05
-2.25481e-05
-2.14066e-05
-2.03019e-05
-1.92336e-05
-1.82013e-05
-1.72047e-05
-1.62431e-05
-1.53162e-05
-1.44236e-05
-1.35647e-05
-1.2739e-05
-1.19462e-05
-1.11855e-05
-1.04566e-05
-9.75873e-06
-9.09147e-06
-8.45417e-06
-7.84621e-06
-7.26694e-06
-6.71569e-06
-6.19178e-06
-5.69447e-06
-5.22309e-06
-4.77683e-06
-4.35502e-06
-3.95682e-06
-3.58151e-06
-3.22824e-06
-2.89628e-06
-2.5847e-06
-2.29287e-06
-2.01975e-06
-1.76473e-06
-1.52682e-06
-1.30526e-06
-1.09923e-06
-9.07867e-07
-7.30405e-07
-5.66035e-07
-4.13943e-07
-2.73379e-07
-1.43542e-07
-2.36059e-08
8.71273e-08
1.89521e-07
2.84276e-07
3.72265e-07
4.54112e-07
5.30814e-07
6.03074e-07
6.71431e-07
7.38628e-07
7.9906e-07
8.74337e-07
9.05618e-07
1.06027e-06
9.03603e-07
1.52158e-06
3.78514e-07
3.03653e-06
-1.82193e-06
7.0392e-06
-6.6368e-06
1.26235e-05
-9.26951e-06
1.01638e-05
2.79044e-06
-8.64956e-06
2.41749e-05
-1.98547e-05
-2.3026e-05
-2.18801e-05
-2.07707e-05
-1.96971e-05
-1.8659e-05
-1.76559e-05
-1.66874e-05
-1.57531e-05
-1.48525e-05
-1.39852e-05
-1.31507e-05
-1.23486e-05
-1.15783e-05
-1.08393e-05
-1.01312e-05
-9.45326e-06
-8.80505e-06
-8.18596e-06
-7.59539e-06
-7.0327e-06
-6.49722e-06
-5.98831e-06
-5.50525e-06
-5.04736e-06
-4.61389e-06
-4.20416e-06
-3.81736e-06
-3.45281e-06
-3.10965e-06
-2.7872e-06
-2.48454e-06
-2.20106e-06
-1.93577e-06
-1.68804e-06
-1.45695e-06
-1.24174e-06
-1.04161e-06
-8.55715e-07
-6.83327e-07
-5.2365e-07
-3.75894e-07
-2.39346e-07
-1.132e-07
3.31103e-09
1.10899e-07
2.10384e-07
3.02449e-07
3.87961e-07
4.67493e-07
5.42075e-07
6.1231e-07
6.78821e-07
7.442e-07
8.03023e-07
8.7646e-07
9.06751e-07
1.05832e-06
9.03898e-07
1.5118e-06
3.85373e-07
3.00671e-06
-1.79097e-06
6.97082e-06
-6.57129e-06
1.25331e-05
-9.22346e-06
1.01473e-05
2.72077e-06
-8.52082e-06
2.39921e-05
-1.95745e-05
-2.23138e-05
-2.12017e-05
-2.01249e-05
-1.9083e-05
-1.80755e-05
-1.7102e-05
-1.61622e-05
-1.52556e-05
-1.43818e-05
-1.35402e-05
-1.27306e-05
-1.19523e-05
-1.12049e-05
-1.0488e-05
-9.80094e-06
-9.14326e-06
-8.51441e-06
-7.91381e-06
-7.34089e-06
-6.79501e-06
-6.27555e-06
-5.78186e-06
-5.31324e-06
-4.86906e-06
-4.44856e-06
-4.05109e-06
-3.67586e-06
-3.32222e-06
-2.98933e-06
-2.67653e-06
-2.38292e-06
-2.10792e-06
-1.85055e-06
-1.61024e-06
-1.38607e-06
-1.17728e-06
-9.83144e-07
-8.02798e-07
-6.35557e-07
-4.80644e-07
-3.37289e-07
-2.04816e-07
-8.24172e-08
3.06202e-08
1.35017e-07
2.3155e-07
3.20886e-07
4.03884e-07
4.81066e-07
5.53494e-07
6.21675e-07
6.86309e-07
7.49843e-07
8.07032e-07
8.7859e-07
9.0789e-07
1.05628e-06
9.04243e-07
1.50162e-06
3.92656e-07
2.97563e-06
-1.75849e-06
6.89963e-06
-6.50318e-06
1.24396e-05
-9.17669e-06
1.0131e-05
2.64877e-06
-8.39175e-06
2.38099e-05
-1.92944e-05
-2.15908e-05
-2.0513e-05
-1.94694e-05
-1.84597e-05
-1.74834e-05
-1.65401e-05
-1.56294e-05
-1.47509e-05
-1.39042e-05
-1.30889e-05
-1.23044e-05
-1.15503e-05
-1.08263e-05
-1.01317e-05
-9.46604e-06
-8.82888e-06
-8.21967e-06
-7.63783e-06
-7.08281e-06
-6.55399e-06
-6.05077e-06
-5.57251e-06
-5.11855e-06
-4.68826e-06
-4.28091e-06
-3.89588e-06
-3.53238e-06
-3.1898e-06
-2.86732e-06
-2.5643e-06
-2.27987e-06
-2.01346e-06
-1.76415e-06
-1.53134e-06
-1.31419e-06
-1.11192e-06
-9.23858e-07
-7.49137e-07
-5.87118e-07
-4.37035e-07
-2.98144e-07
-1.69802e-07
-5.1205e-08
5.831e-08
1.5947e-07
2.53008e-07
3.39578e-07
4.20026e-07
4.94825e-07
5.65068e-07
6.31165e-07
6.93893e-07
7.55554e-07
8.11083e-07
8.80724e-07
9.09036e-07
1.05414e-06
9.04642e-07
1.49104e-06
4.00384e-07
2.94327e-06
-1.72445e-06
6.82558e-06
-6.43243e-06
1.23431e-05
-9.12937e-06
1.0115e-05
2.57431e-06
-8.26276e-06
2.3629e-05
-1.90159e-05
-2.08574e-05
-1.98144e-05
-1.88046e-05
-1.78276e-05
-1.6883e-05
-1.59703e-05
-1.50892e-05
-1.42393e-05
-1.34201e-05
-1.26313e-05
-1.18724e-05
-1.11429e-05
-1.04425e-05
-9.77051e-06
-9.12661e-06
-8.51026e-06
-7.92095e-06
-7.35813e-06
-6.82126e-06
-6.30973e-06
-5.82297e-06
-5.36036e-06
-4.92126e-06
-4.50505e-06
-4.11102e-06
-3.73859e-06
-3.38698e-06
-3.05562e-06
-2.74368e-06
-2.45058e-06
-2.17545e-06
-1.91775e-06
-1.6766e-06
-1.4514e-06
-1.24135e-06
-1.04569e-06
-8.63777e-07
-6.94758e-07
-5.3803e-07
-3.92842e-07
-2.58476e-07
-1.3432e-07
-1.95773e-08
8.63684e-08
1.84248e-07
2.74751e-07
3.58518e-07
4.3638e-07
5.08764e-07
5.76789e-07
6.40776e-07
7.01568e-07
7.61328e-07
8.15174e-07
8.82861e-07
9.10187e-07
1.05189e-06
9.051e-07
1.48005e-06
4.08575e-07
2.90957e-06
-1.6888e-06
6.7486e-06
-6.35901e-06
1.22437e-05
-9.08169e-06
1.00996e-05
2.49727e-06
-8.13433e-06
2.34504e-05
-1.8741e-05
-2.01138e-05
-1.91063e-05
-1.81308e-05
-1.7187e-05
-1.62745e-05
-1.53929e-05
-1.45418e-05
-1.37209e-05
-1.29297e-05
-1.21678e-05
-1.14347e-05
-1.07302e-05
-1.00537e-05
-9.40468e-06
-8.7828e-06
-8.18754e-06
-7.6184e-06
-7.07485e-06
-6.55635e-06
-6.06235e-06
-5.59226e-06
-5.1455e-06
-4.72144e-06
-4.31949e-06
-3.93896e-06
-3.57929e-06
-3.23973e-06
-2.91972e-06
-2.61846e-06
-2.3354e-06
-2.06969e-06
-1.82082e-06
-1.58792e-06
-1.37043e-06
-1.16758e-06
-9.78611e-07
-8.02927e-07
-6.39682e-07
-4.88313e-07
-3.48083e-07
-2.18301e-07
-9.83863e-08
1.24527e-08
1.14784e-07
2.09341e-07
2.96769e-07
3.77697e-07
4.5294e-07
5.22878e-07
5.88655e-07
6.50504e-07
7.09331e-07
7.67165e-07
8.19304e-07
8.84998e-07
9.11342e-07
1.04954e-06
9.0562e-07
1.46863e-06
4.1725e-07
2.8745e-06
-1.65147e-06
6.66862e-06
-6.28291e-06
1.21413e-05
-9.03386e-06
1.00849e-05
2.41749e-06
-8.00692e-06
2.32748e-05
-1.84719e-05
-1.93604e-05
-1.83889e-05
-1.74483e-05
-1.65382e-05
-1.56583e-05
-1.48082e-05
-1.39875e-05
-1.31959e-05
-1.2433e-05
-1.16984e-05
-1.09916e-05
-1.03123e-05
-9.66005e-06
-9.03434e-06
-8.43476e-06
-7.86085e-06
-7.31213e-06
-6.78809e-06
-6.28821e-06
-5.81195e-06
-5.35874e-06
-4.92802e-06
-4.51918e-06
-4.13167e-06
-3.7648e-06
-3.41805e-06
-3.09068e-06
-2.78216e-06
-2.49172e-06
-2.21882e-06
-1.96265e-06
-1.72271e-06
-1.49817e-06
-1.28848e-06
-1.09291e-06
-9.10714e-07
-7.41335e-07
-5.83934e-07
-4.37989e-07
-3.02778e-07
-1.77638e-07
-6.20146e-08
4.48714e-08
1.43544e-07
2.34737e-07
3.19053e-07
3.97107e-07
4.69697e-07
5.37161e-07
6.00658e-07
6.60343e-07
7.17177e-07
7.73059e-07
8.23469e-07
8.87133e-07
9.12501e-07
1.04707e-06
9.06206e-07
1.45676e-06
4.26426e-07
2.83802e-06
-1.61244e-06
6.58558e-06
-6.20412e-06
1.20361e-05
-8.98615e-06
1.00713e-05
2.33481e-06
-7.88106e-06
2.31034e-05
-1.82111e-05
-1.85977e-05
-1.76626e-05
-1.67573e-05
-1.58814e-05
-1.50345e-05
-1.42164e-05
-1.34265e-05
-1.26647e-05
-1.19305e-05
-1.12235e-05
-1.05433e-05
-9.88954e-06
-9.2618e-06
-8.65964e-06
-8.08264e-06
-7.53034e-06
-7.00229e-06
-6.49799e-06
-6.01695e-06
-5.55863e-06
-5.1225e-06
-4.70801e-06
-4.31458e-06
-3.94166e-06
-3.58862e-06
-3.25494e-06
-2.9399e-06
-2.64301e-06
-2.36351e-06
-2.10089e-06
-1.85437e-06
-1.62346e-06
-1.40738e-06
-1.20557e-06
-1.01738e-06
-8.42028e-07
-6.79027e-07
-5.27538e-07
-3.8708e-07
-2.56947e-07
-1.36502e-07
-2.52208e-08
7.76653e-08
1.72636e-07
2.60427e-07
3.41593e-07
4.16741e-07
4.86645e-07
5.51605e-07
6.12794e-07
6.70289e-07
7.25104e-07
7.79009e-07
8.27666e-07
8.89263e-07
9.13663e-07
1.04449e-06
9.0686e-07
1.44445e-06
4.36119e-07
2.80011e-06
-1.57165e-06
6.49945e-06
-6.12266e-06
1.19282e-05
-8.93883e-06
1.00591e-05
2.24905e-06
-7.75731e-06
2.2937e-05
-1.79615e-05
-1.78258e-05
-1.69277e-05
-1.60582e-05
-1.52169e-05
-1.44035e-05
-1.36177e-05
-1.28591e-05
-1.21274e-05
-1.14222e-05
-1.07432e-05
-1.00899e-05
-9.46199e-06
-8.85908e-06
-8.28075e-06
-7.72658e-06
-7.19614e-06
-6.689e-06
-6.20467e-06
-5.74268e-06
-5.3025e-06
-4.88364e-06
-4.48556e-06
-4.10771e-06
-3.74956e-06
-3.41049e-06
-3.09002e-06
-2.78745e-06
-2.50232e-06
-2.23388e-06
-1.98166e-06
-1.74489e-06
-1.52312e-06
-1.31559e-06
-1.12176e-06
-9.41006e-07
-7.72582e-07
-6.16028e-07
-4.70517e-07
-3.35607e-07
-2.10608e-07
-9.49116e-08
1.19797e-08
1.10821e-07
2.0205e-07
2.86399e-07
3.6438e-07
4.36589e-07
5.03777e-07
5.66205e-07
6.25057e-07
6.80339e-07
7.33107e-07
7.8501e-07
8.31895e-07
8.91386e-07
9.14826e-07
1.0418e-06
9.07587e-07
1.43168e-06
4.46359e-07
2.7607e-06
-1.52902e-06
6.41008e-06
-6.03837e-06
1.18174e-05
-8.89199e-06
1.00484e-05
2.16004e-06
-7.63608e-06
2.27765e-05
-1.77258e-05
-1.70452e-05
-1.61846e-05
-1.53513e-05
-1.45451e-05
-1.37656e-05
-1.30125e-05
-1.22855e-05
-1.15843e-05
-1.09084e-05
-1.02577e-05
-9.63159e-06
-9.02985e-06
-8.45206e-06
-7.89782e-06
-7.36674e-06
-6.85841e-06
-6.3724e-06
-5.90825e-06
-5.46551e-06
-5.04367e-06
-4.64226e-06
-4.26077e-06
-3.89866e-06
-3.55543e-06
-3.23049e-06
-2.92337e-06
-2.63341e-06
-2.36015e-06
-2.10289e-06
-1.86118e-06
-1.63427e-06
-1.42172e-06
-1.22283e-06
-1.03706e-06
-8.63833e-07
-7.02405e-07
-5.52365e-07
-4.12894e-07
-2.83591e-07
-1.63781e-07
-5.28837e-08
4.95715e-08
1.44324e-07
2.31772e-07
3.12643e-07
3.87405e-07
4.56644e-07
5.21084e-07
5.80954e-07
6.37442e-07
6.90486e-07
7.41182e-07
7.9106e-07
8.3615e-07
8.935e-07
9.15991e-07
1.03898e-06
9.08397e-07
1.41842e-06
4.57195e-07
2.71969e-06
-1.48436e-06
6.31719e-06
-5.95092e-06
1.17034e-05
-8.8454e-06
1.00392e-05
2.0676e-06
-7.51749e-06
2.26221e-05
-1.75064e-05
-1.62563e-05
-1.54336e-05
-1.4637e-05
-1.38663e-05
-1.3121e-05
-1.2401e-05
-1.1706e-05
-1.10355e-05
-1.03894e-05
-9.7672e-06
-9.16864e-06
-8.59333e-06
-8.04092e-06
-7.51103e-06
-7.00328e-06
-6.51727e-06
-6.05261e-06
-5.60885e-06
-5.18556e-06
-4.78225e-06
-4.39847e-06
-4.03373e-06
-3.68752e-06
-3.35937e-06
-3.04869e-06
-2.75506e-06
-2.47782e-06
-2.21657e-06
-1.9706e-06
-1.73949e-06
-1.52254e-06
-1.31931e-06
-1.12915e-06
-9.51514e-07
-7.85888e-07
-6.31527e-07
-4.88064e-07
-3.54696e-07
-2.31054e-07
-1.16486e-07
-1.04358e-08
8.75388e-08
1.78161e-07
2.6179e-07
3.39147e-07
4.10657e-07
4.76897e-07
5.38561e-07
5.95847e-07
6.49943e-07
7.00726e-07
7.49325e-07
7.97155e-07
8.40431e-07
8.95602e-07
9.17154e-07
1.03604e-06
9.0928e-07
1.40469e-06
4.68586e-07
2.67716e-06
-1.43787e-06
6.22112e-06
-5.86091e-06
1.15871e-05
-8.80028e-06
1.00326e-05
1.9713e-06
-7.40265e-06
2.2476e-05
-1.73082e-05
-1.54594e-05
-1.4675e-05
-1.39155e-05
-1.31807e-05
-1.24701e-05
-1.17836e-05
-1.11208e-05
-1.04815e-05
-9.86531e-06
-9.27201e-06
-8.70122e-06
-8.15262e-06
-7.62584e-06
-7.12054e-06
-6.63635e-06
-6.17289e-06
-5.72979e-06
-5.30662e-06
-4.90295e-06
-4.51835e-06
-4.15237e-06
-3.80454e-06
-3.47439e-06
-3.16145e-06
-2.86517e-06
-2.58515e-06
-2.32076e-06
-2.07162e-06
-1.83705e-06
-1.61666e-06
-1.40975e-06
-1.21593e-06
-1.03458e-06
-8.65162e-07
-7.07207e-07
-5.59978e-07
-4.23155e-07
-2.95946e-07
-1.7802e-07
-6.8743e-08
3.24131e-08
1.25865e-07
2.12317e-07
2.9209e-07
3.65901e-07
4.34127e-07
4.97338e-07
5.56198e-07
6.10875e-07
6.62554e-07
7.11054e-07
7.57533e-07
8.03292e-07
8.44733e-07
8.97696e-07
9.18301e-07
1.03301e-06
9.10148e-07
1.39069e-06
4.80079e-07
2.63404e-06
-1.39127e-06
6.12483e-06
-5.77289e-06
1.14746e-05
-8.76327e-06
1.00336e-05
1.8703e-06
-7.29703e-06
2.23485e-05
-1.71444e-05
-1.46714e-05
-1.3925e-05
-1.32023e-05
-1.25029e-05
-1.18266e-05
-1.11731e-05
-1.05423e-05
-9.93379e-06
-9.34731e-06
-8.78257e-06
-8.23926e-06
-7.71705e-06
-7.21562e-06
-6.73463e-06
-6.27372e-06
-5.83256e-06
-5.41076e-06
-5.00794e-06
-4.62368e-06
-4.25757e-06
-3.90917e-06
-3.57806e-06
-3.26377e-06
-2.96586e-06
-2.68382e-06
-2.41725e-06
-2.16556e-06
-1.92839e-06
-1.70508e-06
-1.49527e-06
-1.2983e-06
-1.11378e-06
-9.41133e-07
-7.7983e-07
-6.29454e-07
-4.89274e-07
-3.59012e-07
-2.37891e-07
-1.25613e-07
-2.15647e-08
7.47552e-08
1.63737e-07
2.46068e-07
3.22031e-07
3.92336e-07
4.57317e-07
5.17535e-07
5.73622e-07
6.25719e-07
6.75009e-07
7.21251e-07
7.6563e-07
8.0934e-07
8.48963e-07
8.99738e-07
9.19404e-07
1.02997e-06
9.10956e-07
1.37679e-06
4.91266e-07
2.5916e-06
-1.34629e-06
6.03173e-06
-5.69099e-06
1.13714e-05
-8.73885e-06
1.00452e-05
1.7662e-06
-7.20614e-06
2.22485e-05
-1.70253e-05
-1.38856e-05
-1.31771e-05
-1.2491e-05
-1.1827e-05
-1.11849e-05
-1.05645e-05
-9.96554e-06
-9.38774e-06
-8.83086e-06
-8.29461e-06
-7.7787e-06
-7.28282e-06
-6.80667e-06
-6.34991e-06
-5.91223e-06
-5.49329e-06
-5.09274e-06
-4.71019e-06
-4.34529e-06
-3.9976e-06
-3.66675e-06
-3.3523e-06
-3.05382e-06
-2.7709e-06
-2.50304e-06
-2.24988e-06
-2.01085e-06
-1.78561e-06
-1.57353e-06
-1.37427e-06
-1.1872e-06
-1.01195e-06
-8.47977e-07
-6.94766e-07
-5.51946e-07
-4.18792e-07
-2.95069e-07
-1.80017e-07
-7.33682e-08
2.54663e-08
1.16965e-07
2.01491e-07
2.79713e-07
3.51879e-07
4.18688e-07
4.80433e-07
5.37667e-07
5.90988e-07
6.40515e-07
6.87417e-07
7.31409e-07
7.73692e-07
8.15353e-07
8.53173e-07
9.01717e-07
9.20561e-07
1.02667e-06
9.12237e-07
1.36168e-06
5.0475e-07
2.54458e-06
-1.29371e-06
5.92661e-06
-5.5936e-06
1.12505e-05
-8.7005e-06
1.00495e-05
1.65839e-06
-7.10709e-06
2.21367e-05
-1.69063e-05
-1.30775e-05
-1.2408e-05
-1.17596e-05
-1.11321e-05
-1.05252e-05
-9.93877e-06
-9.37258e-06
-8.82638e-06
-8.29994e-06
-7.79299e-06
-7.30525e-06
-6.83645e-06
-6.38628e-06
-5.95445e-06
-5.54065e-06
-5.14455e-06
-4.76584e-06
-4.40415e-06
-4.05913e-06
-3.73039e-06
-3.41756e-06
-3.12024e-06
-2.83802e-06
-2.5705e-06
-2.31723e-06
-2.07785e-06
-1.85184e-06
-1.63886e-06
-1.43832e-06
-1.2499e-06
-1.07301e-06
-9.07277e-07
-7.52224e-07
-6.07332e-07
-4.72276e-07
-3.46346e-07
-2.29342e-07
-1.20529e-07
-1.96666e-08
7.38087e-08
1.60352e-07
2.40298e-07
3.14296e-07
3.82558e-07
4.45774e-07
5.04191e-07
5.58357e-07
6.08835e-07
6.55718e-07
7.00165e-07
7.41841e-07
7.81967e-07
8.21517e-07
8.57488e-07
9.03706e-07
9.2177e-07
1.02311e-06
9.13814e-07
1.34538e-06
5.19954e-07
2.49342e-06
-1.23532e-06
5.81173e-06
-5.48573e-06
1.11184e-05
-8.65735e-06
1.00539e-05
1.54326e-06
-7.00586e-06
2.20253e-05
-1.68014e-05
-1.22469e-05
-1.16175e-05
-1.10079e-05
-1.04178e-05
-9.84715e-06
-9.29567e-06
-8.76319e-06
-8.24948e-06
-7.75433e-06
-7.2775e-06
-6.81874e-06
-6.37776e-06
-5.95431e-06
-5.54809e-06
-5.15882e-06
-4.78621e-06
-4.42994e-06
-4.08968e-06
-3.7651e-06
-3.45583e-06
-3.16152e-06
-2.8818e-06
-2.61628e-06
-2.3646e-06
-2.12631e-06
-1.90109e-06
-1.68844e-06
-1.48807e-06
-1.29939e-06
-1.12211e-06
-9.55667e-07
-7.99726e-07
-6.53836e-07
-5.17492e-07
-3.90414e-07
-2.71906e-07
-1.61807e-07
-5.94054e-08
3.55128e-08
1.23481e-07
2.04932e-07
2.80172e-07
3.4983e-07
4.1408e-07
4.73603e-07
5.28601e-07
5.79614e-07
6.27167e-07
6.71334e-07
7.13254e-07
7.52552e-07
7.90457e-07
8.27834e-07
8.61903e-07
9.05715e-07
9.22997e-07
1.01934e-06
9.15502e-07
1.32826e-06
5.36051e-07
2.43966e-06
-1.17385e-06
5.69139e-06
-5.37354e-06
1.09825e-05
-8.61718e-06
1.00637e-05
1.42032e-06
-6.90901e-06
2.19258e-05
-1.67244e-05
-1.13935e-05
-1.08053e-05
-1.02355e-05
-9.68401e-06
-9.15055e-06
-8.63499e-06
-8.13715e-06
-7.65684e-06
-7.19385e-06
-6.74797e-06
-6.31897e-06
-5.90659e-06
-5.51058e-06
-5.13068e-06
-4.76662e-06
-4.41813e-06
-4.08492e-06
-3.76667e-06
-3.46309e-06
-3.17381e-06
-2.89853e-06
-2.63689e-06
-2.38853e-06
-2.1531e-06
-1.9302e-06
-1.71953e-06
-1.52062e-06
-1.33318e-06
-1.15668e-06
-9.90843e-07
-8.35142e-07
-6.89255e-07
-5.52775e-07
-4.25212e-07
-3.06328e-07
-1.95444e-07
-9.24369e-08
3.37836e-09
9.21907e-08
1.74502e-07
2.50722e-07
3.21129e-07
3.86327e-07
4.46458e-07
5.02185e-07
5.53671e-07
6.01445e-07
6.45992e-07
6.87368e-07
7.26691e-07
7.63543e-07
7.99163e-07
8.34305e-07
8.66415e-07
9.07747e-07
9.24229e-07
1.01541e-06
9.1724e-07
1.31043e-06
5.52856e-07
2.38354e-06
-1.10962e-06
5.56578e-06
-5.25708e-06
1.08424e-05
-8.57941e-06
1.00784e-05
1.28969e-06
-6.81629e-06
2.18371e-05
-1.66749e-05
-1.0517e-05
-9.97116e-06
-9.44236e-06
-8.93042e-06
-8.43519e-06
-7.95653e-06
-7.49428e-06
-7.04826e-06
-6.61831e-06
-6.20423e-06
-5.80579e-06
-5.42278e-06
-5.05495e-06
-4.70208e-06
-4.36391e-06
-4.04019e-06
-3.73066e-06
-3.43502e-06
-3.15299e-06
-2.88425e-06
-2.62851e-06
-2.38543e-06
-2.15468e-06
-1.93595e-06
-1.72885e-06
-1.53312e-06
-1.3483e-06
-1.17415e-06
-1.01015e-06
-8.56064e-07
-7.11389e-07
-5.75824e-07
-4.49008e-07
-3.3046e-07
-2.1999e-07
-1.16936e-07
-2.12091e-08
6.78428e-08
1.50386e-07
2.26888e-07
2.97739e-07
3.63182e-07
4.23801e-07
4.797e-07
5.31531e-07
5.79409e-07
6.23856e-07
6.65316e-07
7.03826e-07
7.40478e-07
7.74819e-07
8.08087e-07
8.40932e-07
8.71024e-07
9.09804e-07
9.25452e-07
1.01131e-06
9.18983e-07
1.29193e-06
5.70267e-07
2.32511e-06
-1.04262e-06
5.43451e-06
-5.13541e-06
1.06964e-05
-8.54193e-06
1.00958e-05
1.1518e-06
-6.72641e-06
2.1756e-05
-1.66484e-05
-9.61715e-06
-9.11486e-06
-8.62812e-06
-8.15683e-06
-7.70086e-06
-7.26009e-06
-6.83438e-06
-6.42358e-06
-6.02755e-06
-5.6461e-06
-5.27905e-06
-4.92619e-06
-4.5873e-06
-4.26217e-06
-3.95057e-06
-3.65228e-06
-3.36705e-06
-3.09461e-06
-2.83471e-06
-2.58705e-06
-2.35136e-06
-2.12734e-06
-1.91467e-06
-1.71307e-06
-1.52219e-06
-1.34179e-06
-1.17144e-06
-1.01092e-06
-8.59763e-07
-7.17729e-07
-5.84371e-07
-4.59401e-07
-3.42503e-07
-2.33209e-07
-1.31373e-07
-3.6356e-08
5.1898e-08
1.34007e-07
2.10117e-07
2.80656e-07
3.45995e-07
4.06343e-07
4.62261e-07
5.13819e-07
5.61649e-07
6.05823e-07
6.46855e-07
6.85145e-07
7.20711e-07
7.5462e-07
7.86382e-07
8.17231e-07
8.47717e-07
8.75726e-07
9.1189e-07
9.26655e-07
1.00706e-06
9.20676e-07
1.27285e-06
5.88122e-07
2.26457e-06
-9.73027e-07
5.29752e-06
-5.0081e-06
1.05433e-05
-8.50321e-06
1.01145e-05
1.00714e-06
-6.63852e-06
2.16797e-05
-1.66406e-05
-8.69385e-06
-8.23622e-06
-7.79265e-06
-7.36308e-06
-6.9474e-06
-6.54551e-06
-6.1573e-06
-5.78265e-06
-5.42142e-06
-5.07347e-06
-4.73861e-06
-4.41669e-06
-4.10749e-06
-3.81083e-06
-3.5265e-06
-3.2543e-06
-2.994e-06
-2.74537e-06
-2.50817e-06
-2.28214e-06
-2.06702e-06
-1.86255e-06
-1.66843e-06
-1.48441e-06
-1.31017e-06
-1.14549e-06
-9.89988e-07
-8.43461e-07
-7.05468e-07
-5.75801e-07
-4.54053e-07
-3.39953e-07
-2.3323e-07
-1.33432e-07
-4.04549e-08
4.63158e-08
1.26904e-07
2.01889e-07
2.71398e-07
3.3582e-07
3.95503e-07
4.50625e-07
5.01719e-07
5.48822e-07
5.92545e-07
6.32919e-07
6.70446e-07
7.05482e-07
7.38027e-07
7.69118e-07
7.98233e-07
8.26594e-07
8.54659e-07
8.8052e-07
9.14004e-07
9.27824e-07
1.00269e-06
9.22262e-07
1.25327e-06
6.06239e-07
2.20213e-06
-9.01152e-07
5.15493e-06
-4.87497e-06
1.03822e-05
-8.46192e-06
1.0133e-05
8.56261e-07
-6.55193e-06
2.16056e-05
-1.66465e-05
-7.74692e-06
-7.3351e-06
-6.93581e-06
-6.54902e-06
-6.17467e-06
-5.81266e-06
-5.46292e-06
-5.12534e-06
-4.79981e-06
-4.4862e-06
-4.18437e-06
-3.89418e-06
-3.61543e-06
-3.34797e-06
-3.09161e-06
-2.84616e-06
-2.61144e-06
-2.38722e-06
-2.1733e-06
-1.96945e-06
-1.77543e-06
-1.591e-06
-1.4159e-06
-1.24991e-06
-1.09274e-06
-9.44183e-07
-8.03906e-07
-6.71723e-07
-5.47231e-07
-4.30248e-07
-3.20406e-07
-2.17454e-07
-1.21166e-07
-3.11067e-08
5.27858e-08
1.31098e-07
2.03825e-07
2.71504e-07
3.34244e-07
3.92392e-07
4.46275e-07
4.96037e-07
5.42183e-07
5.84716e-07
6.24228e-07
6.60704e-07
6.94635e-07
7.26332e-07
7.55778e-07
7.83976e-07
8.10374e-07
8.36179e-07
8.61759e-07
8.85403e-07
9.16149e-07
9.28944e-07
9.98213e-07
9.23681e-07
1.23329e-06
6.24425e-07
2.13804e-06
-8.27323e-07
5.00691e-06
-4.73586e-06
1.02123e-05
-8.41669e-06
1.01495e-05
6.99792e-07
-6.46588e-06
2.15309e-05
-1.66603e-05
-6.77626e-06
-6.41139e-06
-6.05749e-06
-5.71457e-06
-5.38257e-06
-5.06144e-06
-4.75113e-06
-4.45154e-06
-4.16261e-06
-3.88421e-06
-3.61624e-06
-3.35857e-06
-3.11104e-06
-2.87351e-06
-2.64581e-06
-2.4278e-06
-2.21929e-06
-2.02009e-06
-1.83004e-06
-1.64892e-06
-1.47652e-06
-1.31264e-06
-1.15705e-06
-1.00954e-06
-8.69853e-07
-7.3783e-07
-6.13158e-07
-4.95678e-07
-3.85026e-07
-2.81042e-07
-1.83405e-07
-9.18806e-08
-6.28989e-09
7.37854e-08
1.48366e-07
2.18007e-07
2.82675e-07
3.42864e-07
3.98666e-07
4.50382e-07
4.98319e-07
5.42587e-07
5.83659e-07
6.21508e-07
6.56701e-07
6.89181e-07
7.19424e-07
7.47697e-07
7.73966e-07
7.99194e-07
8.22807e-07
8.45984e-07
8.69017e-07
8.90372e-07
9.18325e-07
9.30002e-07
9.9364e-07
9.24877e-07
1.21299e-06
6.42485e-07
2.07257e-06
-7.51908e-07
4.85367e-06
-4.5907e-06
1.00326e-05
-8.36607e-06
1.01624e-05
5.38514e-07
-6.37964e-06
2.14524e-05
-1.66755e-05
-5.78183e-06
-5.46505e-06
-5.15764e-06
-4.85965e-06
-4.57104e-06
-4.29179e-06
-4.02187e-06
-3.76121e-06
-3.50976e-06
-3.26744e-06
-3.03416e-06
-2.80981e-06
-2.59426e-06
-2.38739e-06
-2.18907e-06
-1.99915e-06
-1.8175e-06
-1.64394e-06
-1.47834e-06
-1.32051e-06
-1.17027e-06
-1.02745e-06
-8.91831e-07
-7.63253e-07
-6.41492e-07
-5.26405e-07
-4.1772e-07
-3.15303e-07
-2.1883e-07
-1.28165e-07
-4.30326e-08
3.67821e-08
1.11413e-07
1.81258e-07
2.46297e-07
3.07053e-07
3.63465e-07
4.15979e-07
4.64672e-07
5.09797e-07
5.51641e-07
5.9028e-07
6.26153e-07
6.59203e-07
6.89969e-07
7.18354e-07
7.44818e-07
7.69581e-07
7.92592e-07
8.14774e-07
8.35531e-07
8.56009e-07
8.76431e-07
8.95423e-07
9.20531e-07
9.30986e-07
9.88989e-07
9.25793e-07
1.19247e-06
6.60221e-07
2.00598e-06
-6.75312e-07
4.69549e-06
-4.43949e-06
9.84244e-06
-8.30861e-06
1.01696e-05
3.73348e-07
-6.29254e-06
2.13667e-05
-1.66854e-05
-4.76366e-06
-4.49609e-06
-4.23627e-06
-3.98426e-06
-3.74008e-06
-3.5037e-06
-3.27512e-06
-3.05432e-06
-2.84125e-06
-2.63587e-06
-2.43811e-06
-2.24787e-06
-2.06507e-06
-1.8896e-06
-1.72135e-06
-1.56021e-06
-1.40605e-06
-1.25875e-06
-1.11819e-06
-9.84202e-07
-8.56658e-07
-7.3539e-07
-6.20233e-07
-5.11043e-07
-4.07635e-07
-3.09892e-07
-2.17577e-07
-1.30585e-07
-4.86311e-08
2.8394e-08
1.00721e-07
1.68544e-07
2.31951e-07
2.91318e-07
3.46588e-07
3.98243e-07
4.46201e-07
4.90854e-07
5.32266e-07
5.70642e-07
6.06247e-07
6.3912e-07
6.69668e-07
6.97802e-07
7.24033e-07
7.48225e-07
7.70816e-07
7.91984e-07
8.11657e-07
8.30716e-07
8.48547e-07
8.66254e-07
8.84002e-07
9.00554e-07
9.22768e-07
9.31885e-07
9.84272e-07
9.26377e-07
1.1718e-06
6.7743e-07
1.93857e-06
-5.97979e-07
4.53272e-06
-4.28234e-06
9.641e-06
-8.2429e-06
1.01692e-05
2.05364e-07
-6.20401e-06
2.12704e-05
-1.66829e-05
-3.72183e-06
-3.50458e-06
-3.29344e-06
-3.08847e-06
-2.88972e-06
-2.6972e-06
-2.51092e-06
-2.33089e-06
-2.1571e-06
-1.98952e-06
-1.82809e-06
-1.67277e-06
-1.52348e-06
-1.38014e-06
-1.24266e-06
-1.11096e-06
-9.84945e-07
-8.64513e-07
-7.49571e-07
-6.39994e-07
-5.35671e-07
-4.36469e-07
-3.42251e-07
-2.52905e-07
-1.6828e-07
-8.82865e-08
-1.27272e-08
5.84799e-08
1.25573e-07
1.88638e-07
2.47858e-07
3.03407e-07
3.55326e-07
4.03969e-07
4.49239e-07
4.91579e-07
5.30883e-07
5.6749e-07
6.01451e-07
6.32918e-07
6.62135e-07
6.89107e-07
7.14204e-07
7.37307e-07
7.58895e-07
7.78794e-07
7.97419e-07
8.14905e-07
8.3116e-07
8.47019e-07
8.61853e-07
8.76716e-07
8.91726e-07
9.05762e-07
9.25033e-07
9.32686e-07
9.795e-07
9.26578e-07
1.15106e-06
6.93916e-07
1.87063e-06
-5.2039e-07
4.36582e-06
-4.11949e-06
9.42772e-06
-8.16758e-06
1.01591e-05
3.57848e-08
-6.11363e-06
2.11597e-05
-1.66613e-05
-2.6565e-06
-2.49068e-06
-2.32927e-06
-2.17238e-06
-2.02007e-06
-1.87238e-06
-1.72935e-06
-1.59101e-06
-1.45737e-06
-1.32843e-06
-1.20417e-06
-1.08455e-06
-9.69517e-07
-8.59031e-07
-7.53025e-07
-6.51435e-07
-5.54204e-07
-4.61252e-07