/*--------------------------------*- C++ -*----------------------------------*\
| =========                 |                                                 |
| \\      /  F ield         | OpenFOAM: The Open Source CFD Toolbox           |
|  \\    /   O peration     | Version:  2412                                  |
|   \\  /    A nd           | Website:  www.openfoam.com                      |
|    \\/     M anipulation  |                                                 |
\*---------------------------------------------------------------------------*/
FoamFile
{
    version     2.0;
    format      ascii;
    arch        "LSB;label=32;scalar=64";
    class       surfaceScalarField;
    location    "5";
    object      phi;
}
// * * * * * * * * * * * * * * * * * * * * * * * * * * * * * * * * * * * * * //

dimensions      [0 3 -1 0 0 0 0];

oriented        oriented;

internalField   nonuniform List<scalar> 
10424
(
0.00527562
-6.36653e-05
0.00527663
-6.12829e-05
0.00527761
-5.89397e-05
0.00527857
-5.66367e-05
0.0052795
-5.43752e-05
0.0052804
-5.2156e-05
0.00528128
-4.998e-05
0.00528212
-4.7848e-05
0.00528294
-4.57608e-05
0.00528373
-4.37192e-05
0.00528448
-4.17239e-05
0.00528521
-3.97755e-05
0.00528591
-3.78748e-05
0.00528658
-3.60221e-05
0.00528721
-3.42182e-05
0.00528782
-3.24635e-05
0.0052884
-3.07585e-05
0.00528895
-2.91034e-05
0.00528947
-2.74986e-05
0.00528997
-2.59446e-05
0.00529044
-2.44414e-05
0.00529088
-2.29893e-05
0.0052913
-2.15884e-05
0.00529169
-2.02389e-05
0.00529205
-1.89407e-05
0.00529239
-1.76941e-05
0.00529271
-1.64988e-05
0.00529301
-1.53551e-05
0.00529329
-1.42625e-05
0.00529354
-1.32214e-05
-1.2231e-05
0.0052763
-6.46549e-05
0.00527727
-6.22505e-05
0.00527822
-5.9884e-05
0.00527914
-5.75568e-05
0.00528003
-5.52701e-05
0.0052809
-5.3025e-05
0.00528174
-5.08224e-05
0.00528256
-4.86632e-05
0.00528335
-4.65483e-05
0.00528411
-4.44787e-05
0.00528484
-4.24551e-05
0.00528554
-4.04783e-05
0.00528621
-3.8549e-05
0.00528686
-3.6668e-05
0.00528748
-3.48358e-05
0.00528807
-3.3053e-05
0.00528863
-3.132e-05
0.00528916
-2.96375e-05
0.00528967
-2.80056e-05
0.00529015
-2.64248e-05
0.0052906
-2.48955e-05
0.00529103
-2.34178e-05
0.00529144
-2.19919e-05
0.00529181
-2.06181e-05
0.00529217
-1.92963e-05
0.0052925
-1.80268e-05
0.00529281
-1.68093e-05
0.0052931
-1.56442e-05
0.00529337
-1.45311e-05
0.00529362
-1.34701e-05
0.00529385
-1.24608e-05
0.00529406
-1.15037e-05
0.00529426
-1.05979e-05
0.00529443
-9.74378e-06
0.0052946
-8.94071e-06
0.00529475
-8.18935e-06
0.00529488
-7.48904e-06
0.00529501
-6.84048e-06
0.00529512
-6.24349e-06
0.00529522
-5.69896e-06
0.00529531
-5.20706e-06
0.00529539
-4.76897e-06
0.00529547
-4.38573e-06
0.00529554
-4.05919e-06
0.0052956
-3.79104e-06
0.00529566
-3.58446e-06
0.00529572
-3.44261e-06
0.00529578
-3.36985e-06
0.00529584
-3.37218e-06
0.0052959
-3.45558e-06
0.00529596
-3.63043e-06
0.00529603
-3.90469e-06
0.00529611
-4.29408e-06
0.0052962
-4.81318e-06
0.00529631
-5.48066e-06
0.00529643
-6.32506e-06
0.00529658
-7.36147e-06
0.00529675
-8.66225e-06
0.00529696
-1.01687e-05
0.00529722
-1.21821e-05
0.00529752
-1.41582e-05
0.00529792
-1.75125e-05
0.00529833
-1.94877e-05
0.00529899
-2.56326e-05
0.00529955
-2.63003e-05
0.00530064
-3.69986e-05
0.00530149
-3.5973e-05
0.00530314
-4.79335e-05
0.00530485
-5.24378e-05
0.00530682
-4.70798e-05
-5.43279e-05
0.005277
-6.55993e-05
0.00527793
-6.31752e-05
0.00527883
-6.07876e-05
0.00527971
-5.84384e-05
0.00528057
-5.61287e-05
0.0052814
-5.38596e-05
0.00528221
-5.16322e-05
0.005283
-4.94475e-05
0.00528376
-4.73067e-05
0.00528449
-4.52106e-05
0.00528519
-4.31602e-05
0.00528587
-4.11565e-05
0.00528652
-3.92002e-05
0.00528715
-3.72921e-05
0.00528774
-3.54328e-05
0.00528831
-3.36231e-05
0.00528886
-3.18635e-05
0.00528938
-3.01545e-05
0.00528987
-2.84965e-05
0.00529033
-2.68901e-05
0.00529077
-2.53355e-05
0.00529119
-2.38332e-05
0.00529158
-2.23832e-05
0.00529195
-2.09858e-05
0.00529229
-1.96411e-05
0.00529261
-1.83493e-05
0.00529291
-1.71104e-05
0.00529319
-1.59245e-05
0.00529345
-1.47914e-05
0.0052937
-1.37113e-05
0.00529392
-1.26836e-05
0.00529412
-1.1709e-05
0.00529431
-1.07865e-05
0.00529449
-9.91663e-06
0.00529464
-9.09871e-06
0.00529479
-8.33338e-06
0.00529492
-7.62e-06
0.00529504
-6.9593e-06
0.00529514
-6.35114e-06
0.00529524
-5.7964e-06
0.00529533
-5.29532e-06
0.00529541
-4.84907e-06
0.00529548
-4.45867e-06
0.00529555
-4.12614e-06
0.00529561
-3.8531e-06
0.00529567
-3.64282e-06
0.00529573
-3.49858e-06
0.00529578
-3.42483e-06
0.00529584
-3.42772e-06
0.0052959
-3.51326e-06
0.00529596
-3.69209e-06
0.00529602
-3.97247e-06
0.0052961
-4.3703e-06
0.00529619
-4.90067e-06
0.00529629
-5.58255e-06
0.00529641
-6.44533e-06
0.00529655
-7.50416e-06
0.00529673
-8.83432e-06
0.00529693
-1.03731e-05
0.00529718
-1.24368e-05
0.00529748
-1.44504e-05
0.00529787
-1.79077e-05
0.00529828
-1.98932e-05
0.00529893
-2.62842e-05
0.00529948
-2.68496e-05
0.00530057
-3.80943e-05
0.00530141
-3.68045e-05
0.0053031
-4.96282e-05
0.00530482
-5.4155e-05
0.00530689
-4.91539e-05
-5.75916e-05
0.00527771
-6.64985e-05
0.00527859
-6.40569e-05
0.00527945
-6.16506e-05
0.00528029
-5.92813e-05
0.00528112
-5.69505e-05
0.00528192
-5.46594e-05
0.00528269
-5.2409e-05
0.00528345
-5.02007e-05
0.00528417
-4.80355e-05
0.00528488
-4.59147e-05
0.00528556
-4.38391e-05
0.00528621
-4.18099e-05
0.00528684
-3.98279e-05
0.00528744
-3.78941e-05
0.00528802
-3.60091e-05
0.00528857
-3.41737e-05
0.00528909
-3.23886e-05
0.00528959
-3.06542e-05
0.00529007
-2.89713e-05
0.00529052
-2.73401e-05
0.00529094
-2.57613e-05
0.00529134
-2.42352e-05
0.00529172
-2.27619e-05
0.00529208
-2.13417e-05
0.00529241
-1.99749e-05
0.00529273
-1.86616e-05
0.00529302
-1.74019e-05
0.00529329
-1.6196e-05
0.00529354
-1.50435e-05
0.00529377
-1.39447e-05
0.00529399
-1.28993e-05
0.00529419
-1.19076e-05
0.00529437
-1.09689e-05
0.00529454
-1.00837e-05
0.00529469
-9.25135e-06
0.00529483
-8.47242e-06
0.00529496
-7.74634e-06
0.00529507
-7.07383e-06
0.00529517
-6.45481e-06
0.00529527
-5.89013e-06
0.00529535
-5.38011e-06
0.00529543
-4.92593e-06
0.0052955
-4.52858e-06
0.00529556
-4.19023e-06
0.00529562
-3.91245e-06
0.00529568
-3.69859e-06
0.00529573
-3.55205e-06
0.00529578
-3.47736e-06
0.00529584
-3.48084e-06
0.00529589
-3.56851e-06
0.00529595
-3.75127e-06
0.00529602
-4.03769e-06
0.00529609
-4.44383e-06
0.00529618
-4.98528e-06
0.00529627
-5.68133e-06
0.00529639
-6.56221e-06
0.00529653
-7.64307e-06
0.0052967
-9.00225e-06
0.0052969
-1.05727e-05
0.00529715
-1.26865e-05
0.00529743
-1.47359e-05
0.00529782
-1.82983e-05
0.00529822
-2.02886e-05
0.00529887
-2.6935e-05
0.0052994
-2.73821e-05
0.00530051
-3.92022e-05
0.00530132
-3.76127e-05
0.00530306
-5.13702e-05
0.00530478
-5.58734e-05
0.00530696
-5.13389e-05
-6.11154e-05
0.00527842
-6.73523e-05
0.00527926
-6.48955e-05
0.00528008
-6.24726e-05
0.00528088
-6.00854e-05
0.00528167
-5.77355e-05
0.00528243
-5.54242e-05
0.00528318
-5.31528e-05
0.0052839
-5.09225e-05
0.0052846
-4.87348e-05
0.00528527
-4.65907e-05
0.00528593
-4.44915e-05
0.00528655
-4.24383e-05
0.00528716
-4.04321e-05
0.00528774
-3.84739e-05
0.00528829
-3.65644e-05
0.00528882
-3.47046e-05
0.00528933
-3.2895e-05
0.00528981
-3.11365e-05
0.00529027
-2.94296e-05
0.00529071
-2.77748e-05
0.00529112
-2.61726e-05
0.00529151
-2.46236e-05
0.00529187
-2.31278e-05
0.00529222
-2.16858e-05
0.00529254
-2.02976e-05
0.00529284
-1.89635e-05
0.00529312
-1.76837e-05
0.00529338
-1.64583e-05
0.00529363
-1.52871e-05
0.00529385
-1.41703e-05
0.00529406
-1.31076e-05
0.00529425
-1.20994e-05
0.00529443
-1.1145e-05
0.00529459
-1.02449e-05
0.00529474
-9.39854e-06
0.00529487
-8.6064e-06
0.00529499
-7.86798e-06
0.0052951
-7.18399e-06
0.0052952
-6.55443e-06
0.00529529
-5.98008e-06
0.00529537
-5.46137e-06
0.00529545
-4.9995e-06
0.00529551
-4.5954e-06
0.00529558
-4.25141e-06
0.00529563
-3.96904e-06
0.00529569
-3.75173e-06
0.00529574
-3.60296e-06
0.00529579
-3.5274e-06
0.00529584
-3.5315e-06
0.00529589
-3.62129e-06
0.00529595
-3.80792e-06
0.00529601
-4.10031e-06
0.00529608
-4.51461e-06
0.00529616
-5.06694e-06
0.00529626
-5.77693e-06
0.00529637
-6.67564e-06
0.00529651
-7.77812e-06
0.00529667
-9.16596e-06
0.00529686
-1.07673e-05
0.00529711
-1.29313e-05
0.00529739
-1.50146e-05
0.00529777
-1.86841e-05
0.00529816
-2.06733e-05
0.00529881
-2.75847e-05
0.00529932
-2.78969e-05
0.00530044
-4.03223e-05
0.00530123
-3.83953e-05
0.00530302
-5.31609e-05
0.00530473
-5.75863e-05
0.00530703
-5.36418e-05
-6.49187e-05
0.00527914
-6.81609e-05
0.00527993
-6.56911e-05
0.00528071
-6.32537e-05
0.00528148
-6.08506e-05
0.00528223
-5.84836e-05
0.00528296
-5.6154e-05
0.00528367
-5.38633e-05
0.00528436
-5.16129e-05
0.00528503
-4.94041e-05
0.00528567
-4.72385e-05
0.0052863
-4.51172e-05
0.0052869
-4.30415e-05
0.00528748
-4.10125e-05
0.00528804
-3.90312e-05
0.00528857
-3.70985e-05
0.00528908
-3.52154e-05
0.00528957
-3.33827e-05
0.00529004
-3.16011e-05
0.00529048
-2.98712e-05
0.0052909
-2.81938e-05
0.00529129
-2.65693e-05
0.00529167
-2.49982e-05
0.00529202
-2.34809e-05
0.00529235
-2.20177e-05
0.00529267
-2.0609e-05
0.00529296
-1.92549e-05
0.00529323
-1.79556e-05
0.00529348
-1.67114e-05
0.00529372
-1.55221e-05
0.00529393
-1.43879e-05
0.00529414
-1.33084e-05
0.00529432
-1.22842e-05
0.00529449
-1.13147e-05
0.00529465
-1.04002e-05
0.00529479
-9.54019e-06
0.00529492
-8.73522e-06
0.00529503
-7.98484e-06
0.00529514
-7.28972e-06
0.00529523
-6.64992e-06
0.00529532
-6.06619e-06
0.0052954
-5.53905e-06
0.00529547
-5.06971e-06
0.00529553
-4.65908e-06
0.00529559
-4.30963e-06
0.00529564
-4.02282e-06
0.00529569
-3.80219e-06
0.00529574
-3.65129e-06
0.00529579
-3.5749e-06
0.00529584
-3.57965e-06
0.00529589
-3.67155e-06
0.00529594
-3.86201e-06
0.005296
-4.16027e-06
0.00529607
-4.58259e-06
0.00529615
-5.14562e-06
0.00529624
-5.86928e-06
0.00529635
-6.78552e-06
0.00529648
-7.90923e-06
0.00529664
-9.32533e-06
0.00529683
-1.09569e-05
0.00529707
-1.31709e-05
0.00529734
-1.52863e-05
0.00529772
-1.90647e-05
0.0052981
-2.10471e-05
0.00529875
-2.82332e-05
0.00529924
-2.83932e-05
0.00530037
-4.14544e-05
0.00530113
-3.91501e-05
0.00530297
-5.50022e-05
0.00530467
-5.92854e-05
0.0053071
-5.60706e-05
-6.90228e-05
0.00527986
-6.89242e-05
0.00528061
-6.64437e-05
0.00528135
-6.39938e-05
0.00528208
-6.15769e-05
0.00528279
-5.91946e-05
0.00528348
-5.68486e-05
0.00528416
-5.45404e-05
0.00528482
-5.22715e-05
0.00528546
-5.00435e-05
0.00528608
-4.78579e-05
0.00528668
-4.57161e-05
0.00528726
-4.36193e-05
0.00528781
-4.15688e-05
0.00528835
-3.95658e-05
0.00528886
-3.76113e-05
0.00528935
-3.57062e-05
0.00528982
-3.38514e-05
0.00529026
-3.20478e-05
0.00529069
-3.02961e-05
0.00529109
-2.8597e-05
0.00529147
-2.69511e-05
0.00529184
-2.53589e-05
0.00529218
-2.38209e-05
0.0052925
-2.23375e-05
0.0052928
-2.09089e-05
0.00529308
-1.95355e-05
0.00529334
-1.82175e-05
0.00529358
-1.69552e-05
0.00529381
-1.57484e-05
0.00529402
-1.45973e-05
0.00529421
-1.35017e-05
0.00529439
-1.24621e-05
0.00529455
-1.14778e-05
0.0052947
-1.05494e-05
0.00529484
-9.67622e-06
0.00529496
-8.85882e-06
0.00529507
-8.09685e-06
0.00529517
-7.39093e-06
0.00529526
-6.74122e-06
0.00529535
-6.1484e-06
0.00529542
-5.61309e-06
0.00529549
-5.13651e-06
0.00529555
-4.71957e-06
0.0052956
-4.36483e-06
0.00529565
-4.07373e-06
0.0052957
-3.84991e-06
0.00529575
-3.69698e-06
0.00529579
-3.61982e-06
0.00529584
-3.62523e-06
0.00529589
-3.71925e-06
0.00529594
-3.91348e-06
0.00529599
-4.21752e-06
0.00529606
-4.64771e-06
0.00529614
-5.22124e-06
0.00529622
-5.95832e-06
0.00529633
-6.89179e-06
0.00529646
-8.03632e-06
0.00529661
-9.48028e-06
0.0052968
-1.11413e-05
0.00529703
-1.34052e-05
0.0052973
-1.55509e-05
0.00529767
-1.94401e-05
0.00529803
-2.14096e-05
0.00529868
-2.88802e-05
0.00529916
-2.887e-05
0.0053003
-4.25983e-05
0.00530103
-3.98745e-05
0.00530292
-5.68958e-05
0.0053046
-6.09607e-05
0.00530716
-5.8634e-05
-7.34511e-05
0.00528059
-6.96424e-05
0.0052813
-6.71532e-05
0.005282
-6.4693e-05
0.00528269
-6.22641e-05
0.00528336
-5.98685e-05
0.00528402
-5.75079e-05
0.00528466
-5.51839e-05
0.00528529
-5.28983e-05
0.0052859
-5.06527e-05
0.00528649
-4.84487e-05
0.00528706
-4.62878e-05
0.00528761
-4.41715e-05
0.00528815
-4.2101e-05
0.00528866
-4.00776e-05
0.00528915
-3.81024e-05
0.00528962
-3.61765e-05
0.00529007
-3.43009e-05
0.0052905
-3.24764e-05
0.0052909
-3.0704e-05
0.00529129
-2.89842e-05
0.00529166
-2.73179e-05
0.00529201
-2.57056e-05
0.00529233
-2.41477e-05
0.00529264
-2.26448e-05
0.00529293
-2.11972e-05
0.0052932
-1.98053e-05
0.00529345
-1.84693e-05
0.00529368
-1.71895e-05
0.0052939
-1.59658e-05
0.0052941
-1.47985e-05
0.00529429
-1.36874e-05
0.00529446
-1.26328e-05
0.00529462
-1.16344e-05
0.00529476
-1.06924e-05
0.00529489
-9.80654e-06
0.00529501
-8.97712e-06
0.00529511
-8.20392e-06
0.00529521
-7.48757e-06
0.0052953
-6.82825e-06
0.00529538
-6.22664e-06
0.00529545
-5.68342e-06
0.00529551
-5.19984e-06
0.00529557
-4.7768e-06
0.00529562
-4.41696e-06
0.00529567
-4.12173e-06
0.00529571
-3.89486e-06
0.00529575
-3.73998e-06
0.0052958
-3.66212e-06
0.00529584
-3.6682e-06
0.00529589
-3.76434e-06
0.00529593
-3.9623e-06
0.00529599
-4.27202e-06
0.00529605
-4.70992e-06
0.00529612
-5.29375e-06
0.00529621
-6.04398e-06
0.00529631
-6.99438e-06
0.00529643
-8.15929e-06
0.00529658
-9.6307e-06
0.00529676
-1.13204e-05
0.00529699
-1.36341e-05
0.00529725
-1.5808e-05
0.00529762
-1.981e-05
0.00529797
-2.17603e-05
0.00529862
-2.95253e-05
0.00529907
-2.93266e-05
0.00530023
-4.37535e-05
0.00530092
-4.0566e-05
0.00530287
-5.88434e-05
0.00530451
-6.26005e-05
0.00530721
-6.13413e-05
-7.82301e-05
0.00528132
-7.03156e-05
0.00528199
-6.78199e-05
0.00528265
-6.53513e-05
0.0052833
-6.29124e-05
0.00528393
-6.05053e-05
0.00528456
-5.81319e-05
0.00528517
-5.5794e-05
0.00528576
-5.34933e-05
0.00528634
-5.12317e-05
0.0052869
-4.90109e-05
0.00528745
-4.68325e-05
0.00528798
-4.4698e-05
0.00528848
-4.26088e-05
0.00528897
-4.05664e-05
0.00528944
-3.85718e-05
0.00528989
-3.66264e-05
0.00529032
-3.47311e-05
0.00529073
-3.28869e-05
0.00529112
-3.10947e-05
0.00529149
-2.93554e-05
0.00529185
-2.76696e-05
0.00529218
-2.6038e-05
0.00529249
-2.44611e-05
0.00529279
-2.29396e-05
0.00529306
-2.14738e-05
0.00529332
-2.00641e-05
0.00529356
-1.87108e-05
0.00529379
-1.74142e-05
0.005294
-1.61744e-05
0.00529419
-1.49914e-05
0.00529437
-1.38653e-05
0.00529453
-1.27964e-05
0.00529468
-1.17842e-05
0.00529482
-1.08292e-05
0.00529494
-9.93107e-06
0.00529505
-9.09002e-06
0.00529516
-8.30599e-06
0.00529525
-7.57954e-06
0.00529533
-6.91095e-06
0.00529541
-6.30085e-06
0.00529547
-5.74999e-06
0.00529553
-5.25965e-06
0.00529559
-4.83074e-06
0.00529564
-4.46598e-06
0.00529568
-4.16678e-06
0.00529572
-3.93699e-06
0.00529576
-3.78026e-06
0.0052958
-3.70176e-06
0.00529584
-3.70852e-06
0.00529588
-3.80677e-06
0.00529593
-4.00842e-06
0.00529598
-4.32371e-06
0.00529604
-4.76917e-06
0.00529611
-5.3631e-06
0.00529619
-6.1262e-06
0.00529629
-7.09319e-06
0.00529641
-8.27807e-06
0.00529656
-9.77648e-06
0.00529673
-1.14941e-05
0.00529695
-1.38573e-05
0.0052972
-1.60576e-05
0.00529757
-2.01742e-05
0.00529791
-2.20988e-05
0.00529855
-3.01683e-05
0.00529898
-2.97621e-05
0.00530015
-4.49196e-05
0.00530081
-4.12221e-05
0.00530281
-6.0847e-05
0.0053044
-6.41905e-05
0.00530726
-6.42032e-05
-8.33891e-05
0.00528206
-7.09441e-05
0.00528269
-6.84438e-05
0.00528331
-6.59688e-05
0.00528391
-6.35218e-05
0.00528451
-6.11051e-05
0.0052851
-5.87206e-05
0.00528568
-5.63704e-05
0.00528624
-5.40563e-05
0.00528679
-5.17803e-05
0.00528732
-4.95443e-05
0.00528784
-4.73498e-05
0.00528834
-4.51986e-05
0.00528883
-4.30922e-05
0.00528929
-4.1032e-05
0.00528974
-3.90194e-05
0.00529017
-3.70556e-05
0.00529058
-3.51418e-05
0.00529097
-3.3279e-05
0.00529134
-3.14681e-05
0.0052917
-2.97102e-05
0.00529204
-2.80059e-05
0.00529235
-2.6356e-05
0.00529265
-2.47611e-05
0.00529294
-2.32217e-05
0.0052932
-2.17385e-05
0.00529345
-2.03118e-05
0.00529368
-1.89419e-05
0.00529389
-1.76293e-05
0.00529409
-1.63738e-05
0.00529428
-1.51759e-05
0.00529445
-1.40353e-05
0.0052946
-1.29526e-05
0.00529475
-1.19273e-05
0.00529488
-1.09598e-05
0.005295
-1.00497e-05
0.0052951
-9.19747e-06
0.0052952
-8.40297e-06
0.00529529
-7.66679e-06
0.00529537
-6.98925e-06
0.00529544
-6.37096e-06
0.0052955
-5.81274e-06
0.00529556
-5.31588e-06
0.00529561
-4.88133e-06
0.00529565
-4.51184e-06
0.00529569
-4.20883e-06
0.00529573
-3.97624e-06
0.00529577
-3.81777e-06
0.00529581
-3.73868e-06
0.00529585
-3.74614e-06
0.00529589
-3.84651e-06
0.00529593
-4.05178e-06
0.00529598
-4.37254e-06
0.00529603
-4.82541e-06
0.0052961
-5.42923e-06
0.00529618
-6.20491e-06
0.00529627
-7.18816e-06
0.00529639
-8.39256e-06
0.00529653
-9.91754e-06
0.0052967
-1.16622e-05
0.00529691
-1.40748e-05
0.00529716
-1.62994e-05
0.00529751
-2.05325e-05
0.00529784
-2.24249e-05
0.00529848
-3.08088e-05
0.00529889
-3.01756e-05
0.00530007
-4.60961e-05
0.00530069
-4.184e-05
0.00530275
-6.29087e-05
0.00530427
-6.5714e-05
0.0053073
-6.72316e-05
-8.89618e-05
0.00528281
-7.15281e-05
0.00528339
-6.90252e-05
0.00528396
-6.65457e-05
0.00528453
-6.40924e-05
0.0052851
-6.16678e-05
0.00528565
-5.9274e-05
0.00528619
-5.69132e-05
0.00528672
-5.45874e-05
0.00528724
-5.22986e-05
0.00528775
-5.00488e-05
0.00528824
-4.78397e-05
0.00528871
-4.56732e-05
0.00528917
-4.35509e-05
0.00528961
-4.14744e-05
0.00529004
-3.9445e-05
0.00529045
-3.7464e-05
0.00529084
-3.55328e-05
0.00529121
-3.36525e-05
0.00529157
-3.18241e-05
0.00529191
-3.00486e-05
0.00529223
-2.83268e-05
0.00529253
-2.66595e-05
0.00529282
-2.50473e-05
0.00529309
-2.34911e-05
0.00529334
-2.19912e-05
0.00529358
-2.05482e-05
0.0052938
-1.91625e-05
0.005294
-1.78345e-05
0.00529419
-1.65641e-05
0.00529437
-1.53518e-05
0.00529453
-1.41974e-05
0.00529468
-1.31014e-05
0.00529481
-1.20635e-05
0.00529494
-1.10839e-05
0.00529505
-1.01624e-05
0.00529515
-9.29938e-06
0.00529525
-8.49481e-06
0.00529533
-7.74926e-06
0.0052954
-7.06309e-06
0.00529547
-6.43692e-06
0.00529553
-5.87161e-06
0.00529558
-5.36849e-06
0.00529563
-4.92851e-06
0.00529567
-4.55448e-06
0.00529571
-4.24782e-06
0.00529574
-4.01257e-06
0.00529578
-3.85245e-06
0.00529581
-3.77283e-06
0.00529585
-3.78102e-06
0.00529588
-3.88349e-06
0.00529593
-4.09233e-06
0.00529597
-4.41845e-06
0.00529602
-4.87857e-06
0.00529609
-5.49207e-06
0.00529616
-6.28006e-06
0.00529625
-7.27922e-06
0.00529636
-8.50267e-06
0.0052965
-1.00538e-05
0.00529666
-1.18246e-05
0.00529687
-1.42864e-05
0.00529711
-1.65332e-05
0.00529746
-2.08845e-05
0.00529777
-2.2738e-05
0.00529841
-3.14464e-05
0.0052988
-3.05662e-05
0.00529999
-4.72821e-05
0.00530056
-4.24172e-05
0.00530269
-6.50306e-05
0.00530412
-6.71509e-05
0.00530733
-7.04398e-05
-9.4986e-05
0.00528355
-7.20679e-05
0.00528409
-6.95642e-05
0.00528462
-6.7082e-05
0.00528516
-6.46243e-05
0.00528568
-6.21936e-05
0.0052862
-5.97922e-05
0.00528671
-5.74225e-05
0.00528721
-5.50865e-05
0.0052877
-5.27865e-05
0.00528817
-5.05244e-05
0.00528863
-4.83022e-05
0.00528908
-4.61219e-05
0.00528952
-4.3985e-05
0.00528994
-4.18934e-05
0.00529034
-3.98484e-05
0.00529073
-3.78516e-05
0.0052911
-3.59042e-05
0.00529145
-3.40075e-05
0.00529179
-3.21626e-05
0.00529211
-3.03704e-05
0.00529242
-2.86321e-05
0.00529271
-2.69483e-05
0.00529298
-2.53199e-05
0.00529324
-2.37475e-05
0.00529348
-2.22318e-05
0.0052937
-2.07733e-05
0.00529391
-1.93725e-05
0.00529411
-1.80297e-05
0.00529429
-1.67451e-05
0.00529446
-1.5519e-05
0.00529461
-1.43515e-05
0.00529475
-1.32427e-05
0.00529488
-1.21927e-05
0.005295
-1.12015e-05
0.00529511
-1.02691e-05
0.0052952
-9.39568e-06
0.00529529
-8.58143e-06
0.00529537
-7.82686e-06
0.00529544
-7.1324e-06
0.0052955
-6.49866e-06
0.00529555
-5.92655e-06
0.0052956
-5.4174e-06
0.00529564
-4.97223e-06
0.00529568
-4.59386e-06
0.00529572
-4.28371e-06
0.00529575
-4.04593e-06
0.00529578
-3.88426e-06
0.00529582
-3.80419e-06
0.00529585
-3.81312e-06
0.00529588
-3.91768e-06
0.00529592
-4.13004e-06
0.00529596
-4.46141e-06
0.00529601
-4.9286e-06
0.00529607
-5.55158e-06
0.00529614
-6.35156e-06
0.00529623
-7.36627e-06
0.00529634
-8.60832e-06
0.00529647
-1.0185e-05
0.00529662
-1.19813e-05
0.00529683
-1.4492e-05
0.00529706
-1.67588e-05
0.0052974
-2.12302e-05
0.0052977
-2.30379e-05
0.00529834
-3.20808e-05
0.0052987
-3.09331e-05
0.0052999
-4.84769e-05
0.00530043
-4.2951e-05
0.00530262
-6.72151e-05
0.00530394
-6.84778e-05
0.00530735
-7.38428e-05
-0.000101504
0.00528429
-7.25639e-05
0.00528479
-7.00612e-05
0.00528528
-6.75782e-05
0.00528578
-6.51177e-05
0.00528626
-6.26826e-05
0.00528675
-6.02753e-05
0.00528722
-5.78982e-05
0.00528769
-5.55537e-05
0.00528815
-5.32439e-05
0.00528859
-5.09711e-05
0.00528903
-4.87373e-05
0.00528945
-4.65444e-05
0.00528986
-4.43944e-05
0.00529026
-4.22889e-05
0.00529064
-4.02296e-05
0.00529101
-3.82181e-05
0.00529136
-3.62556e-05
0.00529169
-3.43437e-05
0.00529201
-3.24833e-05
0.00529232
-3.06756e-05
0.00529261
-2.89217e-05
0.00529288
-2.72224e-05
0.00529314
-2.55785e-05
0.00529338
-2.39909e-05
0.00529361
-2.24602e-05
0.00529383
-2.0987e-05
0.00529403
-1.95718e-05
0.00529421
-1.8215e-05
0.00529438
-1.69168e-05
0.00529454
-1.56775e-05
0.00529469
-1.44973e-05
0.00529482
-1.33765e-05
0.00529494
-1.23148e-05
0.00529505
-1.13125e-05
0.00529515
-1.03696e-05
0.00529525
-9.4863e-06
0.00529533
-8.66276e-06
0.0052954
-7.89955e-06
0.00529546
-7.19713e-06
0.00529552
-6.55613e-06
0.00529557
-5.97749e-06
0.00529562
-5.46259e-06
0.00529566
-5.01246e-06
0.00529569
-4.62994e-06
0.00529573
-4.31646e-06
0.00529576
-4.07629e-06
0.00529579
-3.91316e-06
0.00529581
-3.83269e-06
0.00529584
-3.84239e-06
0.00529587
-3.94903e-06
0.00529591
-4.16485e-06
0.00529595
-4.50136e-06
0.005296
-4.97546e-06
0.00529605
-5.60768e-06
0.00529612
-6.41937e-06
0.0052962
-7.44927e-06
0.0052963
-8.70942e-06
0.00529643
-1.03113e-05
0.00529658
-1.2132e-05
0.00529678
-1.46913e-05
0.005297
-1.69761e-05
0.00529734
-2.15692e-05
0.00529762
-2.33242e-05
0.00529825
-3.27114e-05
0.0052986
-3.12755e-05
0.0052998
-4.96796e-05
0.00530029
-4.3439e-05
0.00530254
-6.94645e-05
0.00530373
-6.96683e-05
0.00530734
-7.74567e-05
-0.000108563
0.00528502
-7.30164e-05
0.00528548
-7.05165e-05
0.00528593
-6.80343e-05
0.00528639
-6.55729e-05
0.00528684
-6.3135e-05
0.00528729
-6.07234e-05
0.00528773
-5.83406e-05
0.00528817
-5.5989e-05
0.00528859
-5.3671e-05
0.00528901
-5.13889e-05
0.00528942
-4.91448e-05
0.00528981
-4.69408e-05
0.0052902
-4.47789e-05
0.00529057
-4.26609e-05
0.00529093
-4.05886e-05
0.00529128
-3.85635e-05
0.00529161
-3.65872e-05
0.00529192
-3.4661e-05
0.00529223
-3.27863e-05
0.00529252
-3.09641e-05
0.00529279
-2.91955e-05
0.00529305
-2.74816e-05
0.00529329
-2.58232e-05
0.00529352
-2.42212e-05
0.00529374
-2.26763e-05
0.00529394
-2.11891e-05
0.00529413
-1.97603e-05
0.00529431
-1.83901e-05
0.00529447
-1.7079e-05
0.00529462
-1.58272e-05
0.00529476
-1.4635e-05
0.00529488
-1.35026e-05
0.005295
-1.24298e-05
0.0052951
-1.1417e-05
0.0052952
-1.0464e-05
0.00529528
-9.5712e-06
0.00529536
-8.73877e-06
0.00529542
-7.96727e-06
0.00529548
-7.25724e-06
0.00529554
-6.60929e-06
0.00529558
-6.02442e-06
0.00529563
-5.50401e-06
0.00529566
-5.04914e-06
0.00529569
-4.66268e-06
0.00529572
-4.34605e-06
0.00529575
-4.1036e-06
0.00529578
-3.93912e-06
0.0052958
-3.85832e-06
0.00529583
-3.86881e-06
0.00529586
-3.97752e-06
0.00529589
-4.19673e-06
0.00529593
-4.53827e-06
0.00529597
-5.0191e-06
0.00529602
-5.66034e-06
0.00529609
-6.48342e-06
0.00529617
-7.52813e-06
0.00529626
-8.80589e-06
0.00529638
-1.04323e-05
0.00529653
-1.22768e-05
0.00529672
-1.48843e-05
0.00529693
-1.71847e-05
0.00529726
-2.19013e-05
0.00529753
-2.35964e-05
0.00529816
-3.33379e-05
0.00529848
-3.15927e-05
0.00529969
-5.08888e-05
0.00530013
-4.38788e-05
0.00530244
-7.17809e-05
0.00530347
-7.06936e-05
0.00530731
-8.12977e-05
-0.000116209
0.00528574
-7.34259e-05
0.00528615
-7.09306e-05
0.00528657
-6.84509e-05
0.00528698
-6.599e-05
0.0052874
-6.35511e-05
0.00528781
-6.11367e-05
0.00528822
-5.87497e-05
0.00528863
-5.63926e-05
0.00528902
-5.40679e-05
0.00528941
-5.17779e-05
0.00528979
-4.9525e-05
0.00529016
-4.73112e-05
0.00529052
-4.51387e-05
0.00529087
-4.30095e-05
0.00529121
-4.09253e-05
0.00529153
-3.88879e-05
0.00529184
-3.68988e-05
0.00529214
-3.49596e-05
0.00529243
-3.30715e-05
0.0052927
-3.12358e-05
0.00529296
-2.94536e-05
0.0052932
-2.77259e-05
0.00529343
-2.60539e-05
0.00529365
-2.44383e-05
0.00529385
-2.288e-05
0.00529404
-2.13797e-05
0.00529422
-1.99379e-05
0.00529439
-1.85552e-05
0.00529454
-1.72318e-05
0.00529468
-1.59681e-05
0.00529481
-1.47644e-05
0.00529493
-1.3621e-05
0.00529504
-1.25377e-05
0.00529513
-1.15148e-05
0.00529522
-1.05522e-05
0.0052953
-9.65036e-06
0.00529537
-8.80943e-06
0.00529543
-8.03002e-06
0.00529549
-7.3127e-06
0.00529554
-6.65812e-06
0.00529558
-6.0673e-06
0.00529562
-5.54165e-06
0.00529565
-5.08228e-06
0.00529568
-4.69207e-06
0.00529571
-4.37245e-06
0.00529573
-4.12787e-06
0.00529576
-3.96212e-06
0.00529578
-3.88105e-06
0.0052958
-3.89236e-06
0.00529583
-4.00312e-06
0.00529586
-4.22566e-06
0.00529589
-4.57211e-06
0.00529593
-5.0595e-06
0.00529598
-5.70952e-06
0.00529604
-6.54368e-06
0.00529611
-7.60282e-06
0.00529621
-8.89769e-06
0.00529632
-1.05482e-05
0.00529646
-1.24154e-05
0.00529665
-1.50707e-05
0.00529685
-1.73847e-05
0.00529717
-2.22262e-05
0.00529743
-2.38543e-05
0.00529805
-3.39598e-05
0.00529834
-3.18839e-05
0.00529956
-5.21035e-05
0.00529995
-4.42687e-05
0.00530233
-7.41655e-05
0.00530316
-7.15249e-05
0.00530725
-8.53802e-05
-0.000124487
0.00528643
-7.37928e-05
0.00528681
-7.13036e-05
0.00528718
-6.88281e-05
0.00528756
-6.63695e-05
0.00528794
-6.3931e-05
0.00528832
-6.15155e-05
0.0052887
-5.91258e-05
0.00528907
-5.67646e-05
0.00528944
-5.44346e-05
0.0052898
-5.21382e-05
0.00529015
-4.98777e-05
0.00529049
-4.76556e-05
0.00529083
-4.54738e-05
0.00529115
-4.33345e-05
0.00529147
-4.12397e-05
0.00529177
-3.91911e-05
0.00529206
-3.71905e-05
0.00529234
-3.52392e-05
0.00529261
-3.33389e-05
0.00529287
-3.14906e-05
0.00529311
-2.96958e-05
0.00529334
-2.79554e-05
0.00529355
-2.62706e-05
0.00529376
-2.46423e-05
0.00529395
-2.30714e-05
0.00529413
-2.15586e-05
0.0052943
-2.01047e-05
0.00529445
-1.871e-05
0.00529459
-1.7375e-05
0.00529473
-1.61001e-05
0.00529485
-1.48856e-05
0.00529496
-1.37317e-05
0.00529506
-1.26384e-05
0.00529515
-1.16059e-05
0.00529523
-1.06343e-05
0.0052953
-9.72377e-06
0.00529537
-8.87475e-06
0.00529543
-8.08779e-06
0.00529548
-7.36354e-06
0.00529552
-6.70263e-06
0.00529556
-6.10616e-06
0.0052956
-5.57553e-06
0.00529563
-5.11188e-06
0.00529565
-4.71813e-06
0.00529567
-4.39568e-06
0.0052957
-4.1491e-06
0.00529572
-3.98219e-06
0.00529574
-3.90092e-06
0.00529576
-3.91306e-06
0.00529578
-4.02586e-06
0.00529581
-4.25166e-06
0.00529584
-4.60289e-06
0.00529587
-5.09665e-06
0.00529592
-5.75521e-06
0.00529598
-6.60015e-06
0.00529605
-7.67331e-06
0.00529613
-8.98477e-06
0.00529624
-1.06588e-05
0.00529638
-1.25478e-05
0.00529656
-1.52506e-05
0.00529675
-1.75759e-05
0.00529706
-2.25438e-05
0.00529731
-2.40977e-05
0.00529792
-3.45766e-05
0.00529819
-3.21487e-05
0.00529941
-5.33222e-05
0.00529975
-4.46073e-05
0.0053022
-7.66179e-05
0.00530281
-7.2137e-05
0.00530714
-8.97131e-05
-0.000133428
0.00528711
-7.41176e-05
0.00528744
-7.16362e-05
0.00528778
-6.91663e-05
0.00528812
-6.67115e-05
0.00528846
-6.4275e-05
0.00528881
-6.18598e-05
0.00528915
-5.9469e-05
0.00528949
-5.71052e-05
0.00528983
-5.47713e-05
0.00529016
-5.24699e-05
0.00529049
-5.02033e-05
0.0052908
-4.7974e-05
0.00529111
-4.57843e-05
0.00529142
-4.36362e-05
0.00529171
-4.1532e-05
0.00529199
-3.94734e-05
0.00529226
-3.74622e-05
0.00529252
-3.55001e-05
0.00529277
-3.35885e-05
0.00529301
-3.17288e-05
0.00529324
-2.99222e-05
0.00529345
-2.817e-05
0.00529365
-2.64733e-05
0.00529385
-2.48331e-05
0.00529402
-2.32504e-05
0.00529419
-2.17261e-05
0.00529435
-2.02606e-05
0.00529449
-1.88548e-05
0.00529463
-1.75089e-05
0.00529475
-1.62234e-05
0.00529486
-1.49986e-05
0.00529497
-1.38348e-05
0.00529506
-1.27321e-05
0.00529514
-1.16905e-05
0.00529522
-1.07102e-05
0.00529529
-9.79151e-06
0.00529535
-8.93479e-06
0.0052954
-8.14066e-06
0.00529545
-7.40981e-06
0.00529549
-6.7429e-06
0.00529552
-6.14105e-06
0.00529555
-5.60571e-06
0.00529558
-5.13802e-06
0.0052956
-4.74092e-06
0.00529562
-4.41582e-06
0.00529564
-4.16737e-06
0.00529566
-3.99939e-06
0.00529567
-3.91796e-06
0.00529569
-3.93097e-06
0.00529571
-4.04578e-06
0.00529574
-4.27478e-06
0.00529576
-4.63067e-06
0.0052958
-5.13061e-06
0.00529584
-5.79747e-06
0.00529589
-6.65285e-06
0.00529596
-7.73965e-06
0.00529604
-9.06718e-06
0.00529615
-1.07642e-05
0.00529627
-1.2674e-05
0.00529645
-1.54239e-05
0.00529663
-1.77582e-05
0.00529694
-2.2854e-05
0.00529717
-2.43263e-05
0.00529778
-3.51882e-05
0.00529802
-3.23866e-05
0.00529924
-5.45435e-05
0.00529952
-4.48942e-05
0.00530204
-7.91351e-05
0.00530242
-7.25132e-05
0.005307
-9.42955e-05
-0.00014304
0.00528776
-7.44007e-05
0.00528805
-7.19286e-05
0.00528835
-6.9466e-05
0.00528865
-6.70165e-05
0.00528896
-6.45835e-05
0.00528927
-6.21701e-05
0.00528958
-5.97795e-05
0.00528989
-5.74147e-05
0.0052902
-5.50783e-05
0.0052905
-5.27732e-05
0.0052908
-5.05018e-05
0.00529109
-4.82667e-05
0.00529138
-4.60702e-05
0.00529166
-4.39146e-05
0.00529193
-4.18021e-05
0.00529219
-3.97347e-05
0.00529244
-3.77142e-05
0.00529268
-3.57423e-05
0.00529291
-3.38205e-05
0.00529314
-3.19503e-05
0.00529335
-3.0133e-05
0.00529355
-2.83699e-05
0.00529374
-2.66621e-05
0.00529391
-2.5011e-05
0.00529408
-2.34173e-05
0.00529424
-2.18821e-05
0.00529438
-2.04059e-05
0.00529452
-1.89896e-05
0.00529464
-1.76334e-05
0.00529476
-1.63379e-05
0.00529486
-1.51035e-05
0.00529496
-1.39304e-05
0.00529504
-1.28187e-05
0.00529512
-1.17686e-05
0.00529519
-1.07802e-05
0.00529525
-9.8537e-06
0.00529531
-8.98967e-06
0.00529536
-8.18874e-06
0.0052954
-7.45164e-06
0.00529543
-6.77904e-06
0.00529547
-6.17211e-06
0.00529549
-5.6323e-06
0.00529551
-5.1608e-06
0.00529553
-4.76056e-06
0.00529555
-4.43298e-06
0.00529557
-4.18278e-06
0.00529558
-4.01382e-06
0.0052956
-3.9323e-06
0.00529561
-3.9462e-06
0.00529563
-4.06299e-06
0.00529565
-4.29511e-06
0.00529567
-4.65554e-06
0.0052957
-5.16149e-06
0.00529574
-5.8364e-06
0.00529579
-6.7019e-06
0.00529585
-7.80193e-06
0.00529593
-9.14499e-06
0.00529603
-1.08644e-05
0.00529615
-1.27942e-05
0.00529632
-1.55906e-05
0.00529649
-1.79317e-05
0.0052968
-2.31566e-05
0.00529701
-2.454e-05