/*--------------------------------*- C++ -*----------------------------------*\
| =========                 |                                                 |
| \\      /  F ield         | OpenFOAM: The Open Source CFD Toolbox           |
|  \\    /   O peration     | Version:  2412                                  |
|   \\  /    A nd           | Website:  www.openfoam.com                      |
|    \\/     M anipulation  |                                                 |
\*---------------------------------------------------------------------------*/
FoamFile
{
    version     2.0;
    format      ascii;
    arch        "LSB;label=32;scalar=64";
    class       volScalarField;
    location    "25";
    object      p;
}
// * * * * * * * * * * * * * * * * * * * * * * * * * * * * * * * * * * * * * //

dimensions      [0 2 -2 0 0 0 0];

internalField   nonuniform List<scalar> 
5285
(
0.00102417
0.00102469
0.00102492
0.00102482
0.00102438
0.00102355
0.00102229
0.00102058
0.00101837
0.00101561
0.00101226
0.00100826
0.00100357
0.000998127
0.00099187
0.000984736
0.00100894
0.00100899
0.00100872
0.00100813
0.00100717
0.00100582
0.00100404
0.00100179
0.000999037
0.000995731
0.00099183
0.000987285
0.000982046
0.00097606
0.000969268
0.000961612
0.000993965
0.000993552
0.000992826
0.00099176
0.000990324
0.000988484
0.000986208
0.00098346
0.0009802
0.000976388
0.000971981
0.000966932
0.000961194
0.000954716
0.000947443
0.000939321
0.00097924
0.000978398
0.000977235
0.000975723
0.000973835
0.000971538
0.000968801
0.000965587
0.000961861
0.000957582
0.00095271
0.000947202
0.00094101
0.000934088
0.000926385
0.000917848
0.00096478
0.000963532
0.000961956
0.000960026
0.000957714
0.000954991
0.000951823
0.000948178
0.000944021
0.000939313
0.000934016
0.000928089
0.000921487
0.000914166
0.000906079
0.000897177
0.000950594
0.000948962
0.000946998
0.000944676
0.000941968
0.000938846
0.000935279
0.000931236
0.000926681
0.00092158
0.000915896
0.000909588
0.000902617
0.000894941
0.000886514
0.000877291
0.000936687
0.000934694
0.000932366
0.000929677
0.0009266
0.000923107
0.000919171
0.000914759
0.00090984
0.00090438
0.000898344
0.000891693
0.000884392
0.000876398
0.000867673
0.000858172
0.000923067
0.000920735
0.000918065
0.000915032
0.000911612
0.000907776
0.000903498
0.000898748
0.000893496
0.000887708
0.000881353
0.000874395
0.000866798
0.000858526
0.000849539
0.000839799
0.000909736
0.000907087
0.000904097
0.000900745
0.000897005
0.000892852
0.00088826
0.0008832
0.000877643
0.000871559
0.000864916
0.000857683
0.000849825
0.000841308
0.000832095
0.000822151
0.000896699
0.000893752
0.000890465
0.000886815
0.00088278
0.000878334
0.000873452
0.000868109
0.000862275
0.000855924
0.000849024
0.000841546
0.000833458
0.000824728
0.000815322
0.000805208
0.000883957
0.000880732
0.000877168
0.000873243
0.000868934
0.000864219
0.000859073
0.000853471
0.000847387
0.000840795
0.000833666
0.000825971
0.000817682
0.000808769
0.000799201
0.000788946
0.000871511
0.000868028
0.000864206
0.000860026
0.000855466
0.000850503
0.000845116
0.00083928
0.000832971
0.000826163
0.00081883
0.000810946
0.000802484
0.000793415
0.000783711
0.000773344
0.000859363
0.000855638
0.000851579
0.000847163
0.000842371
0.000837183
0.000831576
0.000825529
0.000819017
0.000812017
0.000804506
0.000796457
0.000787846
0.000778646
0.000768833
0.000758379
0.00084751
0.000843563
0.000839282
0.00083465
0.000829647
0.000824253
0.000818447
0.000812209
0.000805517
0.000798348
0.00079068
0.000782489
0.000773753
0.000764447
0.000754547
0.000744029
0.000835952
0.000831798
0.000827315
0.000822484
0.000817288
0.000811707
0.000805722
0.000799314
0.000792461
0.000785144
0.00077734
0.000769029
0.000760188
0.000750797
0.000740832
0.000730272
0.000824688
0.000820343
0.000815673
0.000810661
0.000805288
0.000799538
0.000793393
0.000786832
0.000779839
0.000772392
0.000764473
0.000756061
0.000747136
0.000737679
0.000727668
0.000717085
0.000813714
0.000809193
0.000804352
0.000799174
0.000793642
0.00078774
0.000781451
0.000774757
0.00076764
0.000760082
0.000752065
0.00074357
0.00073458
0.000725074
0.000715036
0.000704446
0.000803027
0.000798346
0.000793348
0.00078802
0.000782344
0.000776306
0.000769889
0.000763077
0.000755853
0.000748201
0.000740103
0.000731543
0.000722503
0.000712966
0.000702916
0.000692335
0.000792624
0.000787795
0.000782656
0.000777191
0.000771386
0.000765227
0.000758698
0.000751783
0.000744468
0.000736737
0.000728574
0.000719963
0.000710889
0.000701335
0.000691288
0.000680731
0.000782502
0.000777538
0.00077227
0.000766682
0.000760762
0.000754496
0.000747868
0.000740866
0.000733474
0.000725678
0.000717464
0.000708816
0.000699722
0.000690166
0.000680134
0.000669614
0.000880508
0.000880658
0.000881131
0.000881862
0.000882837
0.000884046
0.000885478
0.000887119
0.00088896
0.000878463
0.000878609
0.000879065
0.00087977
0.00088071
0.000881876
0.000883255
0.000884837
0.00088661
0.000888564
0.00089069
0.000892979
0.00089542
0.000898006
0.000900727
0.000903572
0.000906535
0.000909605
0.000912775
0.000916036
0.000919381
0.000922803
0.000926295
0.000929851
0.000933462
0.000937123
0.000940826
0.000944564
0.000948328
0.000952109
0.000955899
0.000959689
0.000963469
0.000967229
0.000970959
0.000974649
0.000978289
0.000981869
0.000985377
0.000988804
0.000992139
0.000995372
0.000998491
0.00100149
0.00100435
0.00100707
0.00100963
0.00101203
0.00101425
0.00101629
0.00101814
0.00101978
0.00102121
0.00102242
0.0010234
0.000876383
0.000876523
0.000876962
0.000877641
0.000878546
0.000879668
0.000880995
0.000882516
0.00088422
0.000886098
0.000888139
0.000890335
0.000892675
0.000895152
0.000897755
0.000900476
0.000903305
0.000906233
0.000909252
0.000912354
0.000915532
0.000918778
0.000922086
0.000925447
0.000928857
0.000932307
0.00093579
0.000939299
0.000942824
0.000946358
0.000949892
0.000953416
0.00095692
0.000960395
0.000963831
0.000967217
0.000970544
0.0009738
0.000976977
0.000980062
0.000983047
0.00098592
0.000988672
0.000991292
0.00099377
0.000996096
0.000998261
0.00100025
0.00100207
0.00100369
0.00100511
0.00100632
0.00100732
0.00100809
0.00100864
0.000874267
0.000874402
0.000874824
0.000875477
0.000876347
0.000877425
0.000878699
0.000880159
0.000881794
0.000883594
0.00088555
0.000887652
0.000889891
0.000892259
0.000894744
0.000897339
0.000900034
0.00090282
0.000905689
0.000908632
0.000911642
0.000914713
0.000917836
0.000921005
0.000924213
0.000927453
0.000930718
0.000933999
0.000937289
0.000940578
0.000943857
0.000947118
0.00095035
0.000953544
0.000956689
0.000959776
0.000962795
0.000965735
0.000968585
0.000971337
0.000973979
0.000976502
0.000978895
0.000981149
0.000983254
0.0009852
0.000986979
0.000988579
0.000989993
0.000991212
0.000992227
0.00099303
0.000993613
0.000993969
0.00099409
0.000872118
0.000872247
0.000872652
0.000873278
0.000874113
0.000875147
0.000876368
0.000877766
0.000879332
0.000881054
0.000882924
0.000884933
0.00088707
0.000889328
0.000891696
0.000894165
0.000896725
0.000899369
0.000902087
0.000904872
0.000907715
0.00091061
0.00091355
0.000916527
0.000919535
0.000922567
0.000925615
0.00092867
0.000931726
0.000934772
0.000937801
0.000940801
0.000943765
0.000946682
0.000949542
0.000952335
0.000955051
0.00095768
0.000960212
0.000962636
0.000964944
0.000967125
0.00096917
0.000971068
0.000972811
0.00097439
0.000975794
0.000977016
0.000978047
0.000978878
0.000979502
0.000979911
0.000980098
0.000980056
0.000979778
0.000869937
0.00087006
0.000870448
0.000871047
0.000871846
0.000872835
0.000874004
0.00087534
0.000876836
0.000878481
0.000880265
0.000882179
0.000884215
0.000886362
0.000888612
0.000890955
0.000893382
0.000895883
0.000898451
0.000901078
0.000903755
0.000906475
0.000909232
0.000912019
0.000914828
0.000917652
0.000920485
0.000923317
0.000926141
0.000928947
0.000931728
0.000934472
0.000937172
0.000939816
0.000942395
0.000944899
0.000947319
0.000949644
0.000951864
0.00095397
0.000955952
0.0009578
0.000959506
0.000961059
0.000962452
0.000963674
0.000964718
0.000965575
0.000966237
0.000966697
0.000966946
0.000966978
0.000966787
0.000966365
0.000965708
0.000867724
0.000867842
0.000868213
0.000868786
0.000869548
0.000870493
0.000871608
0.000872883
0.000874308
0.000875875
0.000877573
0.000879393
0.000881327
0.000883364
0.000885496
0.000887713
0.000890006
0.000892366
0.000894784
0.000897252
0.000899764
0.00090231
0.000904886
0.000907483
0.000910094
0.000912713
0.000915333
0.000917944
0.000920539
0.000923109
0.000925645
0.000928137
0.000930576
0.000932952
0.000935256
0.000937477
0.000939606
0.000941634
0.00094355
0.000945345
0.00094701
0.000948535
0.000949912
0.000951131
0.000952184
0.000953063
0.000953759
0.000954265
0.000954574
0.000954677
0.000954568
0.000954241
0.000953689
0.000952908
0.000951891
0.000865482
0.000865595
0.000865948
0.000866494
0.000867221
0.00086812
0.000869182
0.000870395
0.00087175
0.000873238
0.00087485
0.000876576
0.000878408
0.000880336
0.00088235
0.000884441
0.000886601
0.000888819
0.000891088
0.000893399
0.000895745
0.000898119
0.000900514
0.000902923
0.000905339
0.000907755
0.000910164
0.000912556
0.000914925
0.000917262
0.000919557
0.000921801
0.000923984
0.000926097
0.000928131
0.000930075
0.000931921
0.000933658
0.000935277
0.00093677
0.000938126
0.000939338
0.000940396
0.000941292
0.000942018
0.000942566
0.000942928
0.000943097
0.000943066
0.000942828
0.000942377
0.000941707
0.000940814
0.00093969
0.000938334
0.000863212
0.000863319
0.000863655
0.000864174
0.000864865
0.000865719
0.000866727
0.000867878
0.000869164
0.000870573
0.000872099
0.000873731
0.000875461
0.000877279
0.000879175
0.000881142
0.000883168
0.000885245
0.000887366
0.000889521
0.000891703
0.000893906
0.000896122
0.000898344
0.000900567
0.000902781
0.000904982
0.000907159
0.000909305
0.000911412
0.00091347
0.000915469
0.000917402
0.000919258
0.000921027
0.000922701
0.000924269
0.000925723
0.000927054
0.000928252
0.000929309
0.000930217
0.000930967
0.000931551
0.000931961
0.00093219
0.000932231
0.000932076
0.00093172
0.000931157
0.00093038
0.000929385
0.000928166
0.00092672
0.000925042
0.000860915
0.000861016
0.000861335
0.000861827
0.000862482
0.000863292
0.000864246
0.000865335
0.00086655
0.000867882
0.000869321
0.000870859
0.000872487
0.000874196
0.000875975
0.000877817
0.000879711
0.000881648
0.000883621
0.000885621
0.00088764
0.000889673
0.000891712
0.00089375
0.00089578
0.000897797
0.000899791
0.000901756
0.000903683
0.000905563
0.000907388
0.000909149
0.000910835
0.000912439
0.00091395
0.000915359
0.000916657
0.000917836
0.000918886
0.000919798
0.000920566
0.000921179
0.000921631
0.000921914
0.00092202
0.000921943
0.000921675
0.000921211
0.000920545
0.000919671
0.000918584
0.00091728
0.000915753
0.000914001
0.00091202
0.000858592
0.000858688
0.000858989
0.000859455
0.000860073
0.000860838
0.000861739
0.000862766
0.000863911
0.000865165
0.000866518
0.000867963
0.000869489
0.000871089
0.000872752
0.000874469
0.000876231
0.00087803
0.000879856
0.000881702
0.00088356
0.000885424
0.000887287
0.000889143
0.000890984
0.000892804
0.000894596
0.000896352
0.000898063
0.000899721
0.000901318
0.000902844
0.000904289
0.000905646
0.000906905
0.000908056
0.000909091
0.000910002
0.000910779
0.000911415
0.000911901
0.000912231
0.000912395
0.000912388
0.000912202
0.00091183
0.000911268
0.000910508
0.000909546
0.000908376
0.000906995
0.000905397
0.00090358
0.000901539
0.000899273
0.000856245
0.000856336
0.00085662
0.000857058
0.000857641
0.000858361
0.000859208
0.000860174
0.000861249
0.000862424
0.000863692
0.000865044
0.000866469
0.00086796
0.000869507
0.000871101
0.000872732
0.000874392
0.000876073
0.000877766
0.000879465
0.000881162
0.000882852
0.000884527
0.000886182
0.000887809
0.000889401
0.000890951
0.00089245
0.00089389
0.000895263
0.000896559
0.000897769
0.000898885
0.000899897
0.000900798
0.000901577
0.000902227
0.00090274
0.000903108
0.000903323
0.000903377
0.000903265
0.000902979
0.000902512
0.000901859
0.000901014
0.000899972
0.000898728
0.000897277
0.000895616
0.000893741
0.000891649
0.000889337
0.000886803
0.000853876
0.000853961
0.000854228
0.000854639
0.000855186
0.000855861
0.000856655
0.000857559
0.000858564
0.000859662
0.000860845
0.000862103
0.000863428
0.000864812
0.000866243
0.000867715
0.000869216
0.000870739
0.000872276
0.000873818
0.000875358
0.00087689
0.000878409
0.000879906
0.000881376
0.000882813
0.000884209
0.000885557
0.000886848
0.000888075
0.000889228
0.000890299
0.000891279
0.00089216
0.000892933
0.000893589
0.000894119
0.000894517
0.000894774
0.000894882
0.000894835
0.000894625
0.000894246
0.000893692
0.000892956
0.000892033
0.000890919
0.000889607
0.000888095
0.000886377
0.000884452
0.000882314
0.000879963
0.000877396
0.000874611
0.000851485
0.000851565
0.000851815
0.000852199
0.00085271
0.000853341
0.000854081
0.000854924
0.000855859
0.00085688
0.000857978
0.000859144
0.000860369
0.000861645
0.000862963
0.000864312
0.000865685
0.000867073
0.000868466
0.000869858
0.000871242
0.000872612
0.000873961
0.000875283
0.000876572
0.000877822
0.000879025
0.000880174
0.000881261
0.000882278
0.000883217
0.000884069
0.000884825
0.000885476
0.000886015
0.000886434
0.000886723
0.000886876
0.000886885
0.000886743
0.000886443
0.000885978
0.000885343
0.000884532
0.000883538
0.000882358
0.000880986
0.000879418
0.000877651
0.000875681
0.000873505
0.00087112
0.000868526
0.000865719
0.0008627
0.000849075
0.000849149
0.000849381
0.000849739
0.000850215
0.0008508
0.000851488
0.000852269
0.000853136
0.00085408
0.000855094
0.000856168
0.000857294
0.000858463
0.000859667
0.000860896
0.000862142
0.000863395
0.000864647
0.000865891
0.000867121
0.00086833
0.000869512
0.000870661
0.000871772
0.000872837
0.000873851
0.000874805
0.000875693
0.000876505
0.000877234
0.000877872
0.000878409
0.000878838
0.00087915
0.000879338
0.000879393
0.000879309
0.000879079
0.000878695
0.000878151
0.000877442
0.000876561
0.000875502
0.000874263
0.000872836
0.000871219
0.000869408
0.000867399
0.00086519
0.000862778
0.000860161
0.000857337
0.000854306
0.000851068
0.000846646
0.000846715
0.00084693
0.000847261
0.000847701
0.000848242
0.000848877
0.000849598
0.000850396
0.000851264
0.000852193
0.000853176
0.000854204
0.000855268
0.000856359
0.000857469
0.000858588
0.000859708
0.000860821
0.000861919
0.000862996
0.000864046
0.000865064
0.000866043
0.000866979
0.000867863
0.000868691
0.000869455
0.000870147
0.000870759
0.000871284
0.000871712
0.000872036
0.000872248
0.00087234
0.000872304
0.000872133
0.00087182
0.000871359
0.000870742
0.000869964
0.000869019
0.000867902
0.000866608
0.000865133
0.000863472
0.000861622
0.00085958
0.000857342
0.000854907
0.000852272
0.000849436
0.000846398
0.000843158
0.000839715
0.0008442
0.000844263
0.000844461
0.000844766
0.00084517
0.000845668
0.00084625
0.00084691
0.00084764
0.000848432
0.000849278
0.00085017
0.000851101
0.00085206
0.000853041
0.000854032
0.000855026
0.000856015
0.00085699
0.000857944
0.000858871
0.000859765
0.00086062
0.000861433
0.000862196
0.000862903
0.000863549
0.000864126
0.000864627
0.000865044
0.000865369
0.000865593
0.00086571
0.000865712
0.00086559
0.000865337
0.000864948
0.000864413
0.000863729
0.000862887
0.000861884
0.000860714
0.000859371
0.000857852
0.000856152
0.000854268
0.000852197
0.000849935
0.000847481
0.000844833
0.000841989
0.000838947
0.000835709
0.000832273
0.00082864
0.000841738
0.000841795
0.000841977
0.000842255
0.000842624
0.000843078
0.000843609
0.000844208
0.00084487
0.000845587
0.000846351
0.000847153
0.000847987
0.000848843
0.000849713
0.000850588
0.000851459
0.000852318
0.000853156
0.000853968
0.000854747
0.000855487
0.000856184
0.000856832
0.000857426
0.00085796
0.000858428
0.000858822
0.000859136
0.000859362
0.000859493
0.000859519
0.000859435
0.000859232
0.000858903
0.000858441
0.000857839
0.000857092
0.000856192
0.000855135
0.000853916
0.000852529
0.00085097
0.000849236
0.000847322
0.000845226
0.000842945
0.000840476
0.000837818
0.000834969
0.000831928
0.000828694
0.000825268
0.00082165
0.000817841
0.000839261
0.000839314
0.000839478
0.000839731
0.000840065
0.000840475
0.000840954
0.000841494
0.000842089
0.000842731
0.000843412
0.000844126
0.000844864
0.000845618
0.000846379
0.000847139
0.000847888
0.000848618
0.000849323
0.000849995
0.000850628
0.000851217
0.000851757
0.000852244
0.000852672
0.000853036
0.000853329
0.000853546
0.000853677
0.000853718
0.000853659
0.000853493
0.000853213
0.000852812
0.000852282
0.000851617
0.000850811
0.000849858
0.000848752
0.000847488
0.000846061
0.000844467
0.000842702
0.000840763
0.000838646
0.000836348
0.000833868
0.000831203
0.000828352
0.000825315
0.000822089
0.000818676
0.000815076
0.000811289
0.000807316
0.000836772
0.000836819
0.000836966
0.000837193
0.000837492
0.000837859
0.000838287
0.000838768
0.000839296
0.000839864
0.000840465
0.000841091
0.000841734
0.000842387
0.00084304
0.000843686
0.000844315
0.000844919
0.000845492
0.000846026
0.000846515
0.000846956
0.000847343
0.000847671
0.000847937
0.000848135
0.000848258
0.0008483
0.000848254
0.000848113
0.00084787
0.000847517
0.000847048
0.000846455
0.000845731
0.00084487
0.000843867
0.000842716
0.000841411
0.000839948
0.000838323
0.000836531
0.000834569
0.000832435
0.000830124
0.000827636
0.000824967
0.000822118
0.000819086
0.000815871
0.000812473
0.000808892
0.000805129
0.000801185
0.000797062
0.00083427
0.000834312
0.000834443
0.000834644
0.000834909
0.000835233
0.00083561
0.000836032
0.000836494
0.000836989
0.00083751
0.000838049
0.000838599
0.000839151
0.000839699
0.000840232
0.000840743
0.000841223
0.000841665
0.000842063
0.000842412
0.000842706
0.000842943
0.000843117
0.000843224
0.000843258
0.000843215
0.000843087
0.000842868
0.000842552
0.00084213
0.000841595
0.000840942
0.000840163
0.000839252
0.000838202
0.000837009
0.000835667
0.000834172
0.000832519
0.000830703
0.000828723
0.000826573
0.000824253
0.000821759
0.000819089
0.000816243
0.000813219
0.000810017
0.000806636
0.000803077
0.00079934
0.000795427
0.000791338
0.000787076
0.00083181
0.000831847
0.000831962
0.000832138
0.000832369
0.000832652
0.000832979
0.000833345
0.000833743
0.000834167
0.00083461
0.000835064
0.000835524
0.00083598
0.000836424
0.000836849
0.000837246
0.000837606
0.000837923
0.00083819
0.000838403
0.000838558
0.00083865
0.000838676
0.00083863
0.000838509
0.000838307
0.000838017
0.000837634
0.000837149
0.000836557
0.00083585
0.000835023
0.000834068
0.000832979
0.000831751
0.000830379
0.000828858
0.000827183
0.000825351
0.000823358
0.000821201
0.000818877
0.000816383
0.000813719
0.000810882
0.000807872
0.000804687
0.000801329
0.000797796
0.000794089
0.00079021
0.00078616
0.000781941
0.000777554
0.000829369
0.0008294
0.0008295
0.000829651
0.00082985
0.000830092
0.000830371
0.000830681
0.000831017
0.000831371
0.000831738
0.00083211
0.000832481
0.000832843
0.000833188
0.000833507
0.000833792
0.000834035
0.00083423
0.000834371
0.000834453
0.000834472
0.000834424
0.000834305
0.000834113
0.000833841
0.000833486
0.00083304
0.000832497
0.000831851
0.000831096
0.000830224
0.000829229
0.000828106
0.000826848
0.00082545
0.000823907
0.000822216
0.000820371
0.00081837
0.000816208
0.000813884
0.000811395
0.00080874
0.000805916
0.000802922
0.000799758
0.000796425
0.000792921
0.000789247
0.000785405
0.000781395
0.000777219
0.00077288
0.00076838
0.000826871
0.000826898
0.000826981
0.000827108
0.000827274
0.000827475
0.000827705
0.000827959
0.000828231
0.000828516
0.000828806
0.000829096
0.000829378
0.000829645
0.000829889
0.000830101
0.000830275
0.000830402
0.000830474
0.000830488
0.000830438
0.000830321
0.000830133
0.000829872
0.000829533
0.000829111
0.000828603
0.000828002
0.000827302
0.000826496
0.000825579
0.000824544
0.000823384
0.000822095
0.00082067
0.000819105
0.000817396
0.000815537
0.000813526
0.000811359
0.000809034
0.000806548
0.0008039
0.000801087
0.000798108
0.000794964
0.000791653
0.000788176
0.000784533
0.000780726
0.000776754
0.000772621
0.000768328
0.000763877
0.000759271
0.000824317
0.000824339
0.000824406
0.000824507
0.00082464
0.000824799
0.000824981
0.000825178
0.000825387
0.000825601
0.000825814
0.00082602
0.000826213
0.000826385
0.000826528
0.000826634
0.000826696
0.000826705
0.000826656
0.000826542
0.000826361
0.000826108
0.000825781
0.000825377
0.000824891
0.000824321
0.000823662
0.000822906
0.00082205
0.000821087
0.00082001
0.000818813
0.000817491
0.000816039
0.00081445
0.000812722
0.000810848
0.000808827
0.000806653
0.000804326
0.000801842
0.000799199
0.000796395
0.000793431
0.000790304
0.000787015
0.000783563
0.000779949
0.000776174
0.000772239
0.000768146
0.000763896
0.000759492
0.000754937
0.000750233
0.000821706
0.000821723
0.000821773
0.00082185
0.000821949
0.000822067
0.000822198
0.000822339
0.000822483
0.000822627
0.000822762
0.000822885
0.000822988
0.000823064
0.000823106
0.000823105
0.000823055
0.000822947
0.000822775
0.000822535
0.000822222
0.000821834
0.000821368
0.000820822
0.000820192
0.000819474
0.000818664
0.000817756
0.000816746
0.000815626
0.000814391
0.000813036
0.000811554
0.000809941
0.000808192
0.000806303
0.00080427
0.000802089
0.000799758
0.000797274
0.000794636
0.000791841
0.000788888
0.000785777
0.000782508
0.00077908
0.000775493
0.000771749
0.000767849
0.000763794
0.000759586
0.000755227
0.00075072
0.000746068
0.000741273
0.000819039
0.00081905
0.000819085
0.000819136
0.000819201
0.000819277
0.000819358
0.000819442
0.000819522
0.000819594
0.000819652
0.00081969
0.000819703
0.000819683
0.000819623
0.000819516
0.000819353
0.000819128
0.000818834
0.000818468
0.000818024
0.000817501
0.000816897
0.00081621
0.000815435
0.000814571
0.000813612
0.000812554
0.000811391
0.000810117
0.000808727
0.000807215
0.000805577
0.000803807
0.000801901
0.000799855
0.000797665
0.000795329
0.000792845
0.00079021
0.000787422
0.00078448
0.000781384
0.000778133
0.000774727
0.000771166
0.000767451
0.000763584
0.000759565
0.000755397
0.000751081
0.00074662
0.000742018
0.000737276
0.000732399
0.000816315
0.000816321
0.000816339
0.000816365
0.000816396
0.000816429
0.000816461
0.000816487
0.000816502
0.000816502
0.000816482
0.000816437
0.000816359
0.000816243
0.000816082
0.000815867
0.000815592
0.00081525
0.000814835
0.000814342
0.000813768
0.000813112
0.000812371
0.000811543
0.000810626
0.000809616
0.00080851
0.000807303
0.000805989
0.000804564
0.000803021
0.000801356
0.000799564
0.00079764
0.00079558
0.000793381
0.000791039
0.000788553
0.00078592
0.000783138
0.000780206
0.000777123
0.000773889
0.000770503
0.000766966
0.000763279
0.000759443
0.000755459
0.000751328
0.000747054
0.000742638
0.000738083
0.000733392
0.000728568
0.000723615
0.000813536
0.000813536
0.000813537
0.000813538
0.000813535
0.000813525
0.000813507
0.000813475
0.000813425
0.000813353
0.000813255
0.000813125
0.000812957
0.000812745
0.000812482
0.00081216
0.000811773
0.000811315
0.000810778
0.00081016
0.000809457
0.000808668
0.00080779
0.000806824
0.000805765
0.000804613
0.000803361
0.000802007
0.000800545
0.00079897
0.000797277
0.000795462
0.000793519
0.000791444
0.000789234
0.000786886
0.000784397
0.000781765
0.000778988
0.000776064
0.000772993
0.000769775
0.000766408
0.000762894
0.000759233
0.000755427
0.000751475
0.000747381
0.000743146
0.000738772
0.000734263
0.00072962
0.000724848
0.00071995
0.00071493
0.0008107
0.000810695
0.00081068
0.000810655
0.000810617
0.000810565
0.000810496
0.000810406
0.000810291
0.000810148
0.000809971
0.000809756
0.000809497
0.000809189
0.000808825
0.000808397
0.000807898
0.000807323
0.000806666
0.000805923
0.000805092
0.000804171
0.000803159
0.000802055
0.000800857
0.000799563
0.000798168
0.000796669
0.000795062
0.00079334
0.0007915
0.000789537
0.000787447
0.000785225
0.00078287
0.000780377
0.000777745
0.000774971
0.000772055
0.000768995
0.000765791
0.000762442
0.000758949
0.000755313
0.000751534
0.000747614
0.000743554
0.000739357
0.000735024
0.000730558
0.000725963
0.00072124
0.000716395
0.00071143
0.000706349
0.000807809
0.000807799
0.000807767
0.000807716
0.000807644
0.00080755
0.00080743
0.000807281
0.000807101
0.000806886
0.000806631
0.000806331
0.000805982
0.000805578
0.000805112
0.000804578
0.000803969
0.000803278
0.000802501
0.000801635
0.000800676
0.000799625
0.00079848
0.000797241
0.000795905
0.000794471
0.000792935
0.000791294
0.000789543
0.000787678
0.000785693
0.000783586
0.000781352
0.000778988
0.00077649
0.000773857
0.000771086
0.000768176
0.000765126
0.000761935
0.000758603
0.000755131
0.000751518
0.000747765
0.000743875
0.000739848
0.000735686
0.000731392
0.000726969
0.000722418
0.000717744
0.000712949
0.000708037
0.000703012
0.000697877
0.000804864
0.000804848
0.0008048
0.000804723
0.000804617
0.000804479
0.000804309
0.000804102
0.000803857
0.00080357
0.000803236
0.000802852
0.000802413
0.000801913
0.000801346
0.000800706
0.000799986
0.000799181
0.000798286
0.000797297
0.000796213
0.000795033
0.000793756
0.000792383
0.000790912
0.00078934
0.000787666
0.000785885
0.000783993
0.000781987
0.000779862
0.000777614
0.00077524
0.000772737
0.000770102
0.000767333
0.000764428
0.000761387
0.000758208
0.000754892
0.000751438
0.000747847
0.000744119
0.000740257
0.000736262
0.000732135
0.000727878
0.000723495
0.000718987
0.000714359
0.000709612
0.000704752
0.000699781
0.000694703
0.000689522
0.000801866
0.000801844
0.00080178
0.000801677
0.000801536
0.000801355
0.000801134
0.00080087
0.000800559
0.0008002
0.000799788
0.00079932
0.000798791
0.000798196
0.000797528
0.000796783
0.000795954
0.000795035
0.000794022
0.000792912
0.000791704
0.000790397
0.000788991
0.000787486
0.000785881
0.000784175
0.000782364
0.000780446
0.000778417
0.000776273
0.000774011
0.000771626
0.000769116
0.000766478
0.00076371
0.00076081
0.000757776
0.000754608
0.000751306
0.00074787
0.0007443
0.000740596
0.000736761
0.000732796
0.000728701
0.000724481
0.000720136
0.00071567
0.000711086
0.000706386
0.000701575
0.000696656
0.000691632
0.000686508
0.000681289
0.000798815
0.000798788
0.000798707
0.000798578
0.000798402
0.000798179
0.000797907
0.000797585
0.000797209
0.000796778
0.000796289
0.000795737
0.000795118
0.000794428
0.000793661
0.000792811
0.000791873
0.000790841
0.000789712
0.000788483
0.000787152
0.00078572
0.000784187
0.000782553
0.000780817
0.000778978
0.000777034
0.000774982
0.000772819
0.000770541
0.000768144
0.000765627
0.000762985
0.000760216
0.000757319
0.000754293
0.000751135
0.000747847
0.000744427
0.000740876
0.000737196
0.000733386
0.000729449
0.000725386
0.0007212
0.000716892
0.000712466
0.000707924
0.00070327
0.000698506
0.000693637
0.000688666
0.000683597
0.000678434
0.000673183
0.000795713
0.00079568
0.000795583
0.000795428
0.000795218
0.000794952
0.00079463
0.000794249
0.000793809
0.000793307
0.000792739
0.000792104
0.000791396
0.000790612
0.000789746
0.000788793
0.000787747
0.000786604
0.00078536
0.000784013
0.000782562
0.000781007
0.000779349
0.000777588
0.000775724
0.000773755
0.000771681
0.000769498
0.000767204
0.000764795
0.000762268
0.000759621
0.000756852
0.000753957
0.000750936
0.000747788
0.000744512
0.000741108
0.000737576
0.000733917
0.000730132
0.000726222
0.000722189
0.000718036
0.000713764
0.000709376
0.000704874
0.000700263
0.000695546
0.000690725
0.000685804
0.000680788
0.000675681
0.000670486
0.000665209
0.000792561
0.000792523
0.000792409
0.000792228
0.000791984
0.000791676
0.000791303
0.000790865
0.00079036
0.000789787
0.000789142
0.000788424
0.000787628
0.00078675
0.000785786
0.000784731
0.000783579
0.000782326
0.000780969
0.000779506
0.000777937
0.000776261
0.000774481
0.000772595
0.000770605
0.00076851
0.000766309
0.000763998
0.000761576
0.00075904
0.000756387
0.000753616
0.000750723
0.000747707
0.000744567
0.000741302
0.000737912
0.000734398
0.000730759
0.000726998
0.000723114
0.00071911
0.000714988
0.00071075
0.000706399
0.000701937
0.000697368
0.000692694
0.000687919
0.000683048
0.000678083
0.000673028
0.000667889
0.000662669
0.000657372
0.000789361
0.000789317
0.000789187
0.000788981
0.000788702
0.000788351
0.000787929
0.000787433
0.000786865
0.000786221
0.0007855
0.000784699
0.000783815
0.000782845
0.000781784
0.000780628
0.000779371
0.00077801
0.000776542
0.000774966
0.00077328
0.000771487
0.000769586
0.000767579
0.000765466
0.000763248
0.000760922
0.000758487
0.000755941
0.000753282
0.000750507
0.000747615
0.000744603
0.00074147
0.000738216
0.00073484
0.000731342
0.000727723
0.000723984
0.000720125
0.000716149
0.000712057
0.000707852
0.000703536
0.000699112
0.000694582
0.000689951
0.000685221
0.000680397
0.000675481
0.000670478
0.000665392
0.000660226
0.000654987
0.000649677
0.000786115
0.000786065
0.000785919
0.000785687
0.000785375
0.000784982
0.000784509
0.000783957
0.000783325
0.000782611
0.000781814
0.000780932
0.000779962
0.0007789
0.000777744
0.000776487
0.000775127
0.00077366
0.000772083
0.000770395
0.000768596
0.000766687
0.000764669
0.000762543
0.000760311
0.000757972
0.000755526
0.000752971
0.000750305
0.000747527
0.000744634
0.000741625
0.000738499
0.000735254
0.000731891
0.000728409
0.000724808
0.00072109
0.000717255
0.000713305
0.000709242
0.000705069
0.000700787
0.000696399
0.000691908
0.000687318
0.000682631
0.000677852
0.000672983
0.000668029
0.000662995
0.000657883
0.000652698
0.000647445
0.000642128
0.000782825
0.000782769
0.000782607
0.00078235
0.000782003
0.000781569
0.000781047
0.000780439
0.000779743
0.00077896
0.000778088
0.000777126
0.00077607
0.000774918
0.000773667
0.000772313
0.000770851
0.00076928
0.000767596
0.000765798
0.000763888
0.000761866
0.000759734
0.000757493
0.000755145
0.000752689
0.000750126
0.000747454
0.000744672
0.000741778
0.000738772
0.000735651
0.000732415
0.000729064
0.000725596
0.000722013
0.000718315
0.000714503
0.000710579
0.000706544
0.000702401
0.000698151
0.000693799
0.000689345
0.000684794
0.000680149
0.000675413
0.00067059
0.000665684
0.000660699
0.000655639
0.000650507
0.000645309
0.000640048
0.00063473
0.000779492
0.000779431
0.000779254
0.000778971
0.000778591
0.000778116
0.000777545
0.000776881
0.000776123
0.000775271
0.000774325
0.000773283
0.000772143
0.000770903
0.000769559
0.000768108
0.000766547
0.000764873
0.000763084
0.00076118
0.000759162
0.00075703
0.000754787
0.000752434
0.000749972
0.000747404
0.000744727
0.000741942
0.000739048
0.000736044