/*--------------------------------*- C++ -*----------------------------------*\
| =========                 |                                                 |
| \\      /  F ield         | OpenFOAM: The Open Source CFD Toolbox           |
|  \\    /   O peration     | Version:  2412                                  |
|   \\  /    A nd           | Website:  www.openfoam.com                      |
|    \\/     M anipulation  |                                                 |
\*---------------------------------------------------------------------------*/
FoamFile
{
    version     2.0;
    format      ascii;
    arch        "LSB;label=32;scalar=64";
    class       volVectorField;
    location    "27.5";
    object      U;
}
// * * * * * * * * * * * * * * * * * * * * * * * * * * * * * * * * * * * * * //

dimensions      [0 1 -1 0 0 0 0];

internalField   nonuniform List<vector> 
5285
(
(0.0982726 0.00448226 0)
(0.098273 0.00461785 0)
(0.0982763 0.00475835 0)
(0.0982828 0.00490389 0)
(0.0982927 0.00505457 0)
(0.0983065 0.00521051 0)
(0.0983243 0.00537179 0)
(0.0983467 0.00553852 0)
(0.0983739 0.00571078 0)
(0.0984064 0.00588864 0)
(0.0984447 0.00607216 0)
(0.0984892 0.00626138 0)
(0.0985404 0.00645631 0)
(0.0985989 0.00665696 0)
(0.0986653 0.00686328 0)
(0.0987401 0.00707519 0)
(0.0984044 0.00448081 0)
(0.0984095 0.00461356 0)
(0.0984176 0.00475097 0)
(0.098429 0.00489313 0)
(0.0984439 0.00504013 0)
(0.0984628 0.00519205 0)
(0.0984858 0.00534898 0)
(0.0985135 0.00551098 0)
(0.098546 0.00567811 0)
(0.098584 0.00585042 0)
(0.0986277 0.00602793 0)
(0.0986776 0.00621066 0)
(0.0987343 0.0063986 0)
(0.0987982 0.00659171 0)
(0.0988699 0.00678993 0)
(0.09895 0.00699312 0)
(0.0985333 0.00447482 0)
(0.0985429 0.00460464 0)
(0.0985555 0.00473885 0)
(0.0985715 0.00487754 0)
(0.0985912 0.00502077 0)
(0.0986148 0.00516861 0)
(0.0986428 0.00532111 0)
(0.0986753 0.00547832 0)
(0.0987128 0.00564028 0)
(0.0987557 0.005807 0)
(0.0988044 0.0059785 0)
(0.0988593 0.00615475 0)
(0.0989209 0.00633573 0)
(0.0989897 0.00652136 0)
(0.0990662 0.00671156 0)
(0.0991509 0.00690617 0)
(0.0986594 0.00446455 0)
(0.0986732 0.00459135 0)
(0.0986901 0.00472229 0)
(0.0987105 0.00485743 0)
(0.0987346 0.00499683 0)
(0.0987627 0.00514052 0)
(0.0987951 0.00528855 0)
(0.0988321 0.00544093 0)
(0.0988742 0.00559769 0)
(0.0989217 0.00575883 0)
(0.0989749 0.00592432 0)
(0.0990343 0.00609413 0)
(0.0991004 0.0062682 0)
(0.0991735 0.00644645 0)
(0.0992543 0.00662875 0)
(0.0993431 0.00681494 0)
(0.0987826 0.00445024 0)
(0.0988004 0.00457395 0)
(0.0988213 0.00470155 0)
(0.0988457 0.00483309 0)
(0.0988739 0.00496861 0)
(0.0989062 0.00510812 0)
(0.0989427 0.00525164 0)
(0.098984 0.00539919 0)
(0.0990302 0.00555075 0)
(0.0990819 0.00570631 0)
(0.0991392 0.00586584 0)
(0.0992027 0.00602926 0)
(0.0992728 0.00619652 0)
(0.0993498 0.00636749 0)
(0.0994343 0.00654204 0)
(0.0995266 0.00671998 0)
(0.0989029 0.00443211 0)
(0.0989243 0.00455268 0)
(0.098949 0.00467691 0)
(0.0989773 0.00480481 0)
(0.0990093 0.00493641 0)
(0.0990453 0.00507172 0)
(0.0990858 0.00521073 0)
(0.0991309 0.00535344 0)
(0.0991809 0.00549983 0)
(0.0992363 0.00564986 0)
(0.0992974 0.00580347 0)
(0.0993646 0.00596059 0)
(0.0994382 0.00612113 0)
(0.0995186 0.00628496 0)
(0.0996064 0.00645192 0)
(0.0997018 0.00662181 0)
(0.0990201 0.0044104 0)
(0.0990451 0.0045278 0)
(0.0990733 0.00464861 0)
(0.099105 0.00477286 0)
(0.0991406 0.00490053 0)
(0.0991802 0.00503163 0)
(0.0992242 0.00516614 0)
(0.0992728 0.00530404 0)
(0.0993263 0.00544528 0)
(0.0993851 0.00558983 0)
(0.0994496 0.00573761 0)
(0.09952 0.00588852 0)
(0.0995967 0.00604246 0)
(0.0996802 0.00619929 0)
(0.0997708 0.00635884 0)
(0.0998689 0.00652089 0)
(0.0991344 0.00438534 0)
(0.0991625 0.00449954 0)
(0.099194 0.00461693 0)
(0.0992291 0.0047375 0)
(0.0992679 0.00486124 0)
(0.0993108 0.00498815 0)
(0.099358 0.00511818 0)
(0.0994098 0.0052513 0)
(0.0994665 0.00538746 0)
(0.0995284 0.0055266 0)
(0.0995958 0.00566862 0)
(0.0996691 0.00581344 0)
(0.0997486 0.00596092 0)
(0.0998347 0.00611092 0)
(0.0999277 0.00626324 0)
(0.100028 0.00641767 0)
(0.0992456 0.00435715 0)
(0.0992768 0.00446814 0)
(0.0993113 0.00458209 0)
(0.0993494 0.00469899 0)
(0.0993912 0.00481883 0)
(0.0994371 0.00494155 0)
(0.0994872 0.00506714 0)
(0.0995419 0.00519554 0)
(0.0996015 0.00532668 0)
(0.0996662 0.00546049 0)
(0.0997363 0.00559687 0)
(0.0998121 0.00573571 0)
(0.099894 0.00587688 0)
(0.0999823 0.00602021 0)
(0.100077 0.00616551 0)
(0.10018 0.00631255 0)
(0.0993538 0.00432603 0)
(0.0993878 0.00443382 0)
(0.0994251 0.00454434 0)
(0.099466 0.00465759 0)
(0.0995106 0.00477354 0)
(0.0995592 0.00489213 0)
(0.099612 0.00501332 0)
(0.0996693 0.00513705 0)
(0.0997314 0.00526325 0)
(0.0997986 0.00539183 0)
(0.099871 0.00552268 0)
(0.0999491 0.00565568 0)
(0.100033 0.00579069 0)
(0.100123 0.00592754 0)
(0.10022 0.00606602 0)
(0.100324 0.00620591 0)
(0.0994589 0.00429221 0)
(0.0994956 0.00439679 0)
(0.0995355 0.00450391 0)
(0.0995789 0.00461353 0)
(0.099626 0.00472562 0)
(0.0996771 0.00484012 0)
(0.0997324 0.00495698 0)
(0.0997921 0.00507612 0)
(0.0998564 0.00519747 0)
(0.0999257 0.00532092 0)
(0.1 0.00544636 0)
(0.10008 0.00557366 0)
(0.100166 0.00570268 0)
(0.100258 0.00583323 0)
(0.100356 0.00596511 0)
(0.100461 0.00609808 0)
(0.0995611 0.00425588 0)
(0.0996002 0.00435727 0)
(0.0996425 0.00446101 0)
(0.0996882 0.00456704 0)
(0.0997377 0.00467532 0)
(0.099791 0.00478579 0)
(0.0998484 0.00489838 0)
(0.0999102 0.00501301 0)
(0.0999766 0.0051296 0)
(0.100048 0.00524803 0)
(0.100124 0.0053682 0)
(0.100206 0.00548995 0)
(0.100293 0.00561314 0)
(0.100386 0.00573759 0)
(0.100485 0.00586309 0)
(0.100591 0.00598939 0)
(0.0996604 0.00421723 0)
(0.0997016 0.00431547 0)
(0.0997461 0.00441585 0)
(0.099794 0.00451834 0)
(0.0998455 0.00462286 0)
(0.0999009 0.00472936 0)
(0.0999602 0.00483776 0)
(0.100024 0.00494798 0)
(0.100092 0.00505991 0)
(0.100165 0.00517345 0)
(0.100243 0.00528847 0)
(0.100326 0.00540483 0)
(0.100414 0.00552237 0)
(0.100508 0.00564091 0)
(0.100608 0.00576024 0)
(0.100714 0.00588012 0)
(0.0997568 0.00417645 0)
(0.0998 0.00427157 0)
(0.0998465 0.00436865 0)
(0.0998963 0.00446763 0)
(0.0999497 0.00456846 0)
(0.100007 0.00467106 0)
(0.100068 0.00477535 0)
(0.100133 0.00488124 0)
(0.100203 0.00498863 0)
(0.100277 0.0050974 0)
(0.100356 0.00520742 0)
(0.10044 0.00531855 0)
(0.10053 0.00543062 0)
(0.100625 0.00554345 0)
(0.100725 0.00565683 0)
(0.100832 0.00577052 0)
(0.0998503 0.00413373 0)
(0.0998954 0.00422576 0)
(0.0999436 0.00431958 0)
(0.0999952 0.00441512 0)
(0.10005 0.00451233 0)
(0.100109 0.0046111 0)
(0.100172 0.00471137 0)
(0.100238 0.00481304 0)
(0.100309 0.004916 0)
(0.100385 0.00502012 0)
(0.100465 0.00512529 0)
(0.10055 0.00523134 0)
(0.10064 0.00533813 0)
(0.100735 0.00544545 0)
(0.100836 0.0055531 0)
(0.100943 0.00566084 0)
(0.099941 0.00408923 0)
(0.0999878 0.00417822 0)
(0.100038 0.00426884 0)
(0.100091 0.004361 0)
(0.100147 0.00445465 0)
(0.100207 0.00454968 0)
(0.100271 0.00464603 0)
(0.100339 0.00474357 0)
(0.100411 0.00484222 0)
(0.100488 0.00494184 0)
(0.100569 0.00504229 0)
(0.100655 0.00514344 0)
(0.100745 0.00524511 0)
(0.100841 0.00534712 0)
(0.100942 0.00544927 0)
(0.101048 0.0055513 0)
(0.100029 0.00404312 0)
(0.100077 0.00412913 0)
(0.100129 0.00421659 0)
(0.100183 0.00430545 0)
(0.100241 0.00439561 0)
(0.100302 0.00448699 0)
(0.100367 0.0045795 0)
(0.100436 0.00467304 0)
(0.100509 0.00476749 0)
(0.100587 0.00486274 0)
(0.100668 0.00495864 0)
(0.100754 0.00505504 0)
(0.100845 0.00515178 0)
(0.100941 0.00524868 0)
(0.101042 0.00534552 0)
(0.101148 0.00544208 0)
(0.100114 0.00399557 0)
(0.100164 0.00407864 0)
(0.100217 0.00416302 0)
(0.100272 0.00424863 0)
(0.100331 0.00433538 0)
(0.100394 0.0044232 0)
(0.10046 0.00451198 0)
(0.10053 0.00460162 0)
(0.100603 0.00469201 0)
(0.100681 0.00478301 0)
(0.100763 0.0048745 0)
(0.10085 0.00496633 0)
(0.100941 0.00505832 0)
(0.101037 0.0051503 0)
(0.101137 0.00524206 0)
(0.101243 0.00533337 0)
(0.100197 0.00394672 0)
(0.100248 0.00402691 0)
(0.100302 0.00410827 0)
(0.100358 0.0041907 0)
(0.100418 0.00427414 0)
(0.100482 0.00435848 0)
(0.100549 0.00444363 0)
(0.100619 0.00452949 0)
(0.100693 0.00461593 0)
(0.100772 0.00470284 0)
(0.100854 0.00479006 0)
(0.100941 0.00487747 0)
(0.101032 0.00496489 0)
(0.101127 0.00505214 0)
(0.101228 0.00513903 0)
(0.101333 0.00522532 0)
(0.100277 0.00389672 0)
(0.100329 0.00397409 0)
(0.100384 0.00405249 0)
(0.100442 0.00413183 0)
(0.100502 0.00421203 0)
(0.100567 0.00429299 0)
(0.100634 0.00437462 0)
(0.100705 0.0044568 0)
(0.10078 0.00453942 0)
(0.100858 0.00462236 0)
(0.100941 0.00470548 0)
(0.101028 0.00478863 0)
(0.101118 0.00487165 0)
(0.101214 0.00495437 0)
(0.101314 0.00503658 0)
(0.101418 0.00511807 0)
(0.0999998 2.83398e-05 0)
(0.0999971 8.43154e-05 0)
(0.0999914 0.000139377 0)
(0.0999832 0.000193801 0)
(0.0999725 0.000247838 0)
(0.0999595 0.000301705 0)
(0.0999444 0.000355557 0)
(0.0999272 0.000409562 0)
(0.099908 0.000464084 0)
(0.0999998 2.88586e-05 0)
(0.0999972 8.58587e-05 0)
(0.0999917 0.000141925 0)
(0.0999838 0.000197336 0)
(0.0999735 0.000252347 0)
(0.099961 0.000307175 0)
(0.0999464 0.000361976 0)
(0.0999298 0.000416919 0)
(0.0999113 0.000472375 0)
(0.099891 0.000529217 0)
(0.099869 0.000589057 0)
(0.0998449 0.000654247 0)
(0.0998186 0.000727541 0)
(0.0997895 0.000811457 0)
(0.0997571 0.000907547 0)
(0.0997207 0.00101581 0)
(0.09968 0.00113446 0)
(0.0996346 0.00126009 0)
(0.0995847 0.00138821 0)
(0.0995307 0.00151398 0)
(0.0994732 0.00163296 0)
(0.0994131 0.00174164 0)
(0.0993514 0.00183787 0)
(0.0992891 0.0019209 0)
(0.099227 0.00199123 0)
(0.099166 0.00205041 0)
(0.0991066 0.00210061 0)
(0.0990494 0.00214436 0)
(0.0989947 0.0021842 0)
(0.0989424 0.00222247 0)
(0.0988928 0.00226121 0)
(0.0988457 0.00230206 0)
(0.098801 0.00234623 0)
(0.0987586 0.00239458 0)
(0.0987183 0.00244765 0)
(0.09868 0.00250569 0)
(0.0986436 0.00256878 0)
(0.0986089 0.00263686 0)
(0.0985759 0.00270975 0)
(0.0985445 0.00278724 0)
(0.0985147 0.00286908 0)
(0.0984863 0.00295503 0)
(0.0984596 0.00304483 0)
(0.0984344 0.00313824 0)
(0.0984108 0.00323507 0)
(0.0983888 0.00333509 0)
(0.0983686 0.00343815 0)
(0.09835 0.00354406 0)
(0.0983333 0.00365269 0)
(0.0983185 0.00376389 0)
(0.0983056 0.00387754 0)
(0.0982947 0.00399351 0)
(0.0982859 0.00411168 0)
(0.0982793 0.00423195 0)
(0.0982748 0.0043542 0)
(0.0999998 2.93587e-05 0)
(0.0999973 8.73463e-05 0)
(0.099992 0.000144381 0)
(0.0999844 0.000200743 0)
(0.0999745 0.000256692 0)
(0.0999624 0.000312443 0)
(0.0999484 0.000368157 0)
(0.0999324 0.000423999 0)
(0.0999147 0.00048035 0)
(0.0998952 0.000538108 0)
(0.099874 0.000598935 0)
(0.0998509 0.000665256 0)
(0.0998255 0.000739908 0)
(0.0997974 0.000825484 0)
(0.099766 0.000923575 0)
(0.0997307 0.00103417 0)
(0.0996909 0.00115539 0)
(0.0996466 0.00128373 0)
(0.0995977 0.00141453 0)
(0.0995447 0.0015428 0)
(0.0994884 0.00166394 0)
(0.0994295 0.00177436 0)
(0.0993691 0.00187183 0)
(0.0993083 0.00195558 0)
(0.099248 0.00202616 0)
(0.0991889 0.00208517 0)
(0.0991317 0.00213486 0)
(0.0990768 0.00217785 0)
(0.0990245 0.00221674 0)
(0.098975 0.00225398 0)
(0.0989282 0.00229164 0)
(0.0988841 0.00233141 0)
(0.0988425 0.00237454 0)
(0.0988034 0.00242191 0)
(0.0987664 0.00247403 0)
(0.0987316 0.0025312 0)
(0.0986986 0.00259345 0)
(0.0986675 0.00266072 0)
(0.0986381 0.00273283 0)
(0.0986104 0.00280953 0)
(0.0985843 0.00289056 0)
(0.0985598 0.00297567 0)
(0.0985369 0.00306457 0)
(0.0985157 0.00315704 0)
(0.098496 0.00325283 0)
(0.0984781 0.00335173 0)
(0.0984619 0.00345357 0)
(0.0984475 0.00355815 0)
(0.0984349 0.00366534 0)
(0.0984242 0.00377496 0)
(0.0984156 0.0038869 0)
(0.098409 0.00400103 0)
(0.0984045 0.00411721 0)
(0.0984021 0.00423533 0)
(0.0984021 0.00435528 0)
(0.0999998 2.984e-05 0)
(0.0999974 8.87779e-05 0)
(0.0999923 0.000146744 0)
(0.099985 0.000204021 0)
(0.0999755 0.00026087 0)
(0.0999639 0.000317509 0)
(0.0999504 0.000374097 0)
(0.0999351 0.0004308 0)
(0.099918 0.000488007 0)
(0.0998994 0.000546642 0)
(0.099879 0.000608419 0)
(0.0998568 0.000675839 0)
(0.0998325 0.000751824 0)
(0.0998054 0.000839043 0)
(0.099775 0.000939125 0)
(0.0997407 0.00105204 0)
(0.0997019 0.00117584 0)
(0.0996585 0.00130687 0)
(0.0996106 0.00144034 0)
(0.0995587 0.00157106 0)
(0.0995034 0.00169431 0)
(0.0994457 0.00180638 0)
(0.0993867 0.00190498 0)
(0.0993274 0.00198934 0)
(0.0992688 0.00206005 0)
(0.0992116 0.00211874 0)
(0.0991565 0.00216778 0)
(0.0991039 0.00220985 0)
(0.0990542 0.00224766 0)
(0.0990074 0.00228372 0)
(0.0989634 0.00232017 0)
(0.0989223 0.00235874 0)
(0.0988839 0.00240071 0)
(0.0988479 0.00244697 0)
(0.0988143 0.00249806 0)
(0.0987828 0.00255423 0)
(0.0987534 0.00261555 0)
(0.0987258 0.00268192 0)
(0.0987 0.00275314 0)
(0.0986759 0.00282895 0)
(0.0986535 0.00290908 0)
(0.0986327 0.00299324 0)
(0.0986136 0.00308116 0)
(0.0985962 0.00317256 0)
(0.0985804 0.00326722 0)
(0.0985663 0.0033649 0)
(0.0985541 0.00346541 0)
(0.0985436 0.00356856 0)
(0.098535 0.00367419 0)
(0.0985284 0.00378213 0)
(0.0985238 0.00389226 0)
(0.0985213 0.00400443 0)
(0.0985209 0.00411851 0)
(0.0985227 0.00423439 0)
(0.0985267 0.00435194 0)
(0.0999998 3.03024e-05 0)
(0.0999975 9.01531e-05 0)
(0.0999927 0.000149013 0)
(0.0999856 0.000207168 0)
(0.0999765 0.000264881 0)
(0.0999654 0.000322371 0)
(0.0999524 0.000379795 0)
(0.0999377 0.00043732 0)
(0.0999214 0.000495344 0)
(0.0999036 0.000554818 0)
(0.0998841 0.000617508 0)
(0.0998628 0.000685994 0)
(0.0998395 0.000763288 0)
(0.0998134 0.000852135 0)
(0.099784 0.000954199 0)
(0.0997506 0.00106943 0)
(0.0997129 0.00119581 0)
(0.0996704 0.00132953 0)
(0.0996235 0.00146563 0)
(0.0995725 0.00159878 0)
(0.0995183 0.00172407 0)
(0.0994618 0.00183771 0)
(0.0994041 0.00193735 0)
(0.0993463 0.0020222 0)
(0.0992894 0.00209289 0)
(0.0992341 0.00215113 0)
(0.0991811 0.00219936 0)
(0.0991309 0.00224037 0)
(0.0990837 0.00227696 0)
(0.0990395 0.0023117 0)
(0.0989984 0.00234681 0)
(0.0989603 0.00238405 0)
(0.098925 0.00242474 0)
(0.0988922 0.00246979 0)
(0.0988619 0.00251973 0)
(0.0988338 0.00257483 0)
(0.0988078 0.00263511 0)
(0.0987837 0.00270048 0)
(0.0987614 0.00277072 0)
(0.0987409 0.00284556 0)
(0.0987221 0.00292469 0)
(0.098705 0.00300782 0)
(0.0986895 0.00309466 0)
(0.0986758 0.00318491 0)
(0.0986638 0.00327834 0)
(0.0986535 0.0033747 0)
(0.098645 0.00347379 0)
(0.0986384 0.00357541 0)
(0.0986337 0.00367938 0)
(0.098631 0.00378555 0)
(0.0986302 0.00389377 0)
(0.0986316 0.00400389 0)
(0.0986351 0.00411579 0)
(0.0986408 0.00422933 0)
(0.0986488 0.00434439 0)
(0.0999998 3.07456e-05 0)
(0.0999976 9.14715e-05 0)
(0.099993 0.000151189 0)
(0.0999862 0.000210185 0)
(0.0999775 0.000268725 0)
(0.0999668 0.000327028 0)
(0.0999545 0.00038525 0)
(0.0999404 0.000443559 0)
(0.0999248 0.000502361 0)
(0.0999078 0.000562634 0)
(0.0998892 0.000626201 0)
(0.0998689 0.000695723 0)
(0.0998465 0.000774303 0)
(0.0998214 0.000864762 0)
(0.099793 0.000968806 0)
(0.0997606 0.00108636 0)
(0.0997238 0.00121531 0)
(0.0996823 0.00135171 0)
(0.0996363 0.00149044 0)
(0.0995863 0.00162597 0)
(0.0995331 0.00175325 0)
(0.0994778 0.00186838 0)
(0.0994214 0.00196895 0)
(0.0993651 0.00205416 0)
(0.0993098 0.0021247 0)
(0.0992564 0.00218234 0)
(0.0992056 0.00222962 0)
(0.0991577 0.00226942 0)
(0.099113 0.00230463 0)
(0.0990715 0.00233792 0)
(0.0990333 0.00237155 0)
(0.0989981 0.00240735 0)
(0.0989659 0.00244665 0)
(0.0989363 0.00249038 0)
(0.0989092 0.00253908 0)
(0.0988845 0.002593 0)
(0.0988618 0.00265217 0)
(0.0988411 0.00271646 0)
(0.0988223 0.00278564 0)
(0.0988053 0.00285941 0)
(0.0987901 0.00293747 0)
(0.0987765 0.00301949 0)
(0.0987647 0.00310515 0)
(0.0987545 0.00319418 0)
(0.0987461 0.00328629 0)
(0.0987395 0.00338125 0)
(0.0987347 0.00347883 0)
(0.0987318 0.00357883 0)
(0.0987308 0.00368107 0)
(0.0987317 0.00378538 0)
(0.0987347 0.00389161 0)
(0.0987398 0.0039996 0)
(0.0987471 0.00410923 0)
(0.0987565 0.00422036 0)
(0.0987682 0.00433286 0)
(0.0999998 3.11697e-05 0)
(0.0999977 9.27329e-05 0)
(0.0999933 0.00015327 0)
(0.0999868 0.00021307 0)
(0.0999785 0.000272399 0)
(0.0999683 0.000331478 0)
(0.0999565 0.000390461 0)
(0.0999431 0.000449514 0)
(0.0999283 0.000509054 0)
(0.099912 0.000570089 0)
(0.0998943 0.000634497 0)
(0.0998749 0.000705024 0)
(0.0998535 0.000784867 0)
(0.0998294 0.000876929 0)
(0.099802 0.000982947 0)
(0.0997706 0.00110282 0)
(0.0997347 0.00123435 0)
(0.0996941 0.00137344 0)
(0.099649 0.00151477 0)
(0.0996 0.00165264 0)
(0.0995478 0.00178185 0)
(0.0994936 0.00189838 0)
(0.0994385 0.00199977 0)
(0.0993837 0.00208523 0)
(0.0993301 0.00215547 0)
(0.0992786 0.00221236 0)
(0.0992299 0.00225854 0)
(0.0991843 0.00229698 0)
(0.0991421 0.00233068 0)
(0.0991033 0.00236237 0)
(0.0990679 0.00239441 0)
(0.0990357 0.00242864 0)
(0.0990065 0.00246645 0)
(0.0989801 0.00250876 0)
(0.0989563 0.00255612 0)
(0.0989348 0.00260878 0)
(0.0989155 0.00266675 0)
(0.0988982 0.00272988 0)
(0.0988828 0.00279793 0)
(0.0988692 0.00287057 0)
(0.0988574 0.00294747 0)
(0.0988473 0.00302831 0)
(0.0988389 0.00311273 0)
(0.0988323 0.00320045 0)
(0.0988274 0.00329118 0)
(0.0988243 0.00338466 0)
(0.0988231 0.00348066 0)
(0.0988237 0.00357897 0)
(0.0988262 0.0036794 0)
(0.0988307 0.00378178 0)
(0.0988373 0.00388594 0)
(0.0988459 0.00399174 0)
(0.0988567 0.00409904 0)
(0.0988697 0.0042077 0)
(0.0988849 0.00431759 0)
(0.0999999 3.15746e-05 0)
(0.0999978 9.39371e-05 0)
(0.0999936 0.000155256 0)
(0.0999874 0.000215823 0)
(0.0999795 0.000275905 0)
(0.0999698 0.000335722 0)
(0.0999586 0.000395427 0)
(0.0999458 0.000455186 0)
(0.0999317 0.000515425 0)
(0.0999162 0.000577182 0)
(0.0998994 0.000642396 0)
(0.099881 0.000713898 0)
(0.0998605 0.000794985 0)
(0.0998375 0.000888637 0)
(0.099811 0.00099663 0)
(0.0997806 0.00111883 0)
(0.0997456 0.00125294 0)
(0.0997059 0.00139471 0)
(0.0996617 0.00153862 0)
(0.0996136 0.0016788 0)
(0.0995624 0.00180988 0)
(0.0995093 0.00192773 0)
(0.0994555 0.00202983 0)
(0.0994021 0.00211541 0)
(0.0993502 0.00218521 0)
(0.0993006 0.00224121 0)
(0.099254 0.00228613 0)
(0.0992107 0.00232307 0)
(0.0991711 0.00235511 0)
(0.099135 0.00238508 0)
(0.0991024 0.00241539 0)
(0.0990731 0.00244794 0)
(0.099047 0.00248415 0)
(0.0990237 0.00252495 0)
(0.0990031 0.0025709 0)
(0.0989848 0.00262221 0)
(0.0989688 0.00267891 0)
(0.0989548 0.00274081 0)
(0.0989427 0.00280765 0)
(0.0989325 0.00287909 0)
(0.098924 0.00295478 0)
(0.0989173 0.00303436 0)
(0.0989123 0.00311748 0)
(0.0989091 0.00320383 0)
(0.0989076 0.00329311 0)
(0.0989079 0.00338505 0)
(0.09891 0.0034794 0)
(0.098914 0.00357596 0)
(0.09892 0.00367452 0)
(0.0989279 0.0037749 0)
(0.0989378 0.00387695 0)
(0.0989498 0.00398049 0)
(0.0989639 0.0040854 0)
(0.0989802 0.00419154 0)
(0.0989987 0.00429877 0)
(0.0999999 3.19602e-05 0)
(0.0999979 9.50838e-05 0)
(0.0999939 0.000157148 0)
(0.099988 0.000218444 0)
(0.0999805 0.000279241 0)
(0.0999713 0.000339758 0)
(0.0999606 0.000400147 0)
(0.0999485 0.000460574 0)
(0.0999351 0.000521473 0)
(0.0999205 0.000583913 0)
(0.0999045 0.000649897 0)
(0.0998871 0.000722346 0)
(0.0998676 0.000804657 0)
(0.0998455 0.000899892 0)
(0.09982 0.00100986 0)
(0.0997905 0.0011344 0)
(0.0997564 0.00127109 0)
(0.0997176 0.00141553 0)
(0.0996743 0.00156202 0)
(0.0996271 0.00170447 0)
(0.0995769 0.00183735 0)
(0.0995249 0.00195643 0)
(0.0994724 0.00205914 0)
(0.0994205 0.0021447 0)
(0.0993702 0.00221393 0)
(0.0993226 0.00226888 0)
(0.099278 0.0023124 0)
(0.0992371 0.00234768 0)
(0.0991999 0.00237792 0)
(0.0991665 0.00240604 0)
(0.0991367 0.0024345 0)
(0.0991104 0.00246527 0)
(0.0990873 0.00249978 0)
(0.0990671 0.00253898 0)
(0.0990496 0.00258343 0)
(0.0990345 0.00263333 0)
(0.0990217 0.00268868 0)
(0.099011 0.00274929 0)
(0.0990021 0.00281486 0)
(0.0989952 0.00288504 0)
(0.09899 0.00295946 0)
(0.0989865 0.00303773 0)
(0.0989848 0.0031195 0)
(0.0989849 0.00320442 0)
(0.0989866 0.00329219 0)
(0.0989902 0.00338252 0)
(0.0989956 0.00347518 0)
(0.0990028 0.00356993 0)
(0.099012 0.00366657 0)
(0.0990231 0.00376491 0)
(0.0990363 0.00386478 0)
(0.0990515 0.00396603 0)
(0.0990688 0.00406851 0)
(0.0990882 0.00417209 0)
(0.0991098 0.00427662 0)
(0.0999999 3.23265e-05 0)
(0.0999981 9.61731e-05 0)
(0.0999942 0.000158944 0)
(0.0999887 0.000220932 0)
(0.0999815 0.000282407 0)
(0.0999728 0.000343587 0)
(0.0999627 0.000404623 0)
(0.0999512 0.000465678 0)
(0.0999386 0.000527197 0)
(0.0999247 0.000590282 0)
(0.0999097 0.000657002 0)
(0.0998931 0.00073037 0)
(0.0998746 0.000813885 0)
(0.0998535 0.000910694 0)
(0.099829 0.00102264 0)
(0.0998004 0.00114952 0)
(0.0997672 0.0012888 0)
(0.0997293 0.00143592 0)
(0.0996868 0.00158496 0)
(0.0996405 0.00172964 0)
(0.0995914 0.00186427 0)
(0.0995405 0.00198448 0)
(0.0994892 0.00208768 0)
(0.0994388 0.0021731 0)
(0.0993902 0.00224161 0)
(0.0993444 0.00229537 0)
(0.099302 0.00233733 0)
(0.0992634 0.00237082 0)
(0.0992287 0.00239912 0)
(0.099198 0.00242526 0)
(0.099171 0.00245176 0)
(0.0991475 0.00248064 0)
(0.0991274 0.00251336 0)
(0.0991103 0.00255088 0)
(0.0990959 0.00259375 0)
(0.0990839 0.00264217 0)
(0.0990743 0.00269612 0)
(0.0990667 0.00275538 0)
(0.099061 0.00281963 0)
(0.0990572 0.0028885 0)
(0.0990552 0.00296159 0)
(0.0990549 0.00303851 0)
(0.0990564 0.00311886 0)
(0.0990596 0.00320231 0)
(0.0990645 0.00328852 0)
(0.0990712 0.00337721 0)
(0.0990797 0.00346812 0)
(0.09909 0.00356102 0)
(0.0991023 0.00365569 0)
(0.0991165 0.00375195 0)
(0.0991327 0.00384961 0)
(0.0991509 0.00394853 0)
(0.0991712 0.00404856 0)
(0.0991935 0.00414955 0)
(0.0992181 0.00425137 0)
(0.0999999 3.26734e-05 0)
(0.0999982 9.72048e-05 0)
(0.0999945 0.000160645 0)
(0.0999893 0.000223288 0)
(0.0999825 0.000285403 0)
(0.0999743 0.000347209 0)
(0.0999647 0.000408853 0)
(0.0999539 0.000470497 0)
(0.099942 0.000532597 0)
(0.099929 0.000596291 0)
(0.0999148 0.000663711 0)
(0.0998992 0.00073797 0)
(0.0998816 0.000822672 0)
(0.0998615 0.000921048 0)
(0.0998379 0.00103497 0)
(0.0998103 0.0011642 0)
(0.099778 0.00130608 0)
(0.0997409 0.00145587 0)
(0.0996994 0.00160744 0)
(0.099654 0.00175431 0)
(0.0996058 0.00189062 0)
(0.0995561 0.00201188 0)
(0.0995061 0.00211546 0)
(0.0994571 0.00220061 0)
(0.0994102 0.00226826 0)
(0.0993664 0.00232068 0)
(0.0993261 0.00236094 0)
(0.0992898 0.00239249 0)
(0.0992576 0.00241872 0)
(0.0992294 0.00244275 0)
(0.0992052 0.00246719 0)
(0.0991846 0.00249408 0)
(0.0991674 0.00252492 0)
(0.0991533 0.00256068 0)
(0.0991419 0.00260191 0)
(0.0991331 0.00264879 0)
(0.0991265 0.00270128 0)
(0.099122 0.00275914 0)
(0.0991194 0.00282202 0)
(0.0991187 0.00288954 0)
(0.0991197 0.00296126 0)
(0.0991225 0.00303678 0)
(0.099127 0.00311568 0)
(0.0991332 0.00319761 0)
(0.0991411 0.00328223 0)
(0.0991508 0.00336924 0)
(0.0991623 0.00345836 0)
(0.0991756 0.00354937 0)
(0.0991908 0.00364204 0)
(0.0992079 0.00373618 0)
(0.099227 0.00383161 0)
(0.099248 0.00392818 0)
(0.0992711 0.00402572 0)
(0.0992962 0.0041241 0)
(0.0993235 0.00422319 0)
(0.0999999 3.3001e-05 0)
(0.0999983 9.8179e-05 0)
(0.0999948 0.000162251 0)
(0.0999899 0.000225511 0)
(0.0999835 0.000288229 0)
(0.0999758 0.000350624 0)
(0.0999668 0.000412837 0)
(0.0999566 0.000475033 0)
(0.0999454 0.000537675 0)
(0.0999332 0.000601938 0)
(0.0999199 0.000670026 0)
(0.0999052 0.000745149 0)
(0.0998886 0.00083102 0)
(0.0998695 0.000930955 0)
(0.0998469 0.00104686 0)
(0.0998201 0.00117844 0)
(0.0997888 0.00132293 0)
(0.0997526 0.00147538 0)
(0.0997119 0.00162947 0)
(0.0996674 0.00177848 0)
(0.0996203 0.0019164 0)
(0.0995717 0.00203863 0)
(0.099523 0.00214248 0)
(0.0994755 0.00222722 0)
(0.0994304 0.00229387 0)
(0.0993884 0.00234481 0)
(0.0993502 0.00238323 0)
(0.0993162 0.00241269 0)
(0.0992865 0.00243673 0)
(0.099261 0.00245853 0)
(0.0992395 0.00248079 0)
(0.0992217 0.00250561 0)
(0.0992074 0.00253449 0)
(0.0991962 0.00256843 0)
(0.0991878 0.00260795 0)
(0.099182 0.00265324 0)
(0.0991784 0.00270422 0)
(0.0991768 0.00276063 0)
(0.0991773 0.00282211 0)
(0.0991795 0.00288823 0)
(0.0991835 0.00295855 0)
(0.0991893 0.00303263 0)
(0.0991967 0.00311005 0)
(0.0992058 0.00319043 0)
(0.0992166 0.00327342 0)
(0.0992292 0.00335871 0)
(0.0992435 0.00344603 0)
(0.0992596 0.00353512 0)
(0.0992776 0.00362576 0)
(0.0992974 0.00371776 0)
(0.0993192 0.00381094 0)
(0.0993429 0.00390513 0)
(0.0993686 0.00400018 0)
(0.0993963 0.00409595 0)
(0.0994261 0.00419231 0)
(0.0999999 3.33092e-05 0)
(0.0999984 9.90958e-05 0)
(0.0999952 0.000163762 0)
(0.0999905 0.000227602 0)
(0.0999845 0.000290886 0)
(0.0999773 0.000353831 0)
(0.0999688 0.000416577 0)
(0.0999593 0.000479286 0)
(0.0999489 0.000542432 0)
(0.0999374 0.000607227 0)
(0.099925 0.000675948 0)
(0.0999112 0.000751907 0)
(0.0998956 0.000838928 0)
(0.0998774 0.000940414 0)
(0.0998558 0.0010583 0)
(0.09983 0.00119224 0)
(0.0997995 0.00133933 0)
(0.0997642 0.00149445 0)
(0.0997245 0.00165102 0)
(0.099681 0.00180214 0)
(0.0996348 0.0019416 0)
(0.0995874 0.0020647 0)
(0.0995401 0.00216871 0)
(0.0994941 0.00225292 0)
(0.0994507 0.00231844 0)
(0.0994107 0.00236775 0)
(0.0993746 0.00240418 0)
(0.0993429 0.00243143 0)
(0.0993156 0.00245315 0)
(0.0992927 0.00247263 0)
(0.0992739 0.00249262 0)
(0.0992589 0.00251527 0)
(0.0992475 0.00254212 0)
(0.0992391 0.00257416 0)
(0.0992336 0.00261192 0)
(0.0992307 0.00265557 0)
(0.09923 0.002705 0)
(0.0992314 0.00275993 0)
(0.0992347 0.00281997 0)
(0.0992398 0.00288467 0)
(0.0992467 0.00295355 0)
(0.0992552 0.00302616 0)
(0.0992654 0.00310207 0)
(0.0992773 0.00318087 0)
(0.0992909 0.00326221 0)
(0.0993062 0.00334576 0)
(0.0993232 0.00343124 0)
(0.0993419 0.00351839 0)
(0.0993625 0.00360699 0)
(0.099385 0.00369684 0)
(0.0994093 0.00378775 0)
(0.0994355 0.00387956 0)
(0.0994637 0.00397211 0)
(0.0994938 0.00406527 0)
(0.0995259 0.00415891 0)
(0.0999999 3.35982e-05 0)
(0.0999985 9.99551e-05 0)
(0.0999955 0.000165177 0)
(0.0999911 0.00022956 0)
(0.0999855 0.000293373 0)
(0.0999787 0.000356832 0)
(0.0999709 0.000420073 0)
(0.099962 0.000483256 0)
(0.0999523 0.000546868 0)
(0.0999417 0.000612159 0)
(0.0999301 0.000681479 0)
(0.0999172 0.000758246 0)
(0.0999026 0.000846399 0)
(0.0998853 0.000949426 0)
(0.0998647 0.00106929 0)
(0.0998398 0.00120559 0)
(0.0998103 0.00135529 0)
(0.0997759 0.00151305 0)
(0.0997371 0.00167209 0)
(0.0996946 0.00182527 0)
(0.0996496 0.0019662 0)
(0.0996034 0.00209008 0)
(0.0995574 0.00219413 0)
(0.099513 0.00227769 0)
(0.0994713 0.00234195 0)
(0.0994332 0.0023895 0)
(0.0993993 0.00242381 0)
(0.0993699 0.00244873 0)
(0.0993451 0.00246801 0)
(0.0993247 0.00248505 0)
(0.0993085 0.00250268 0)
(0.0992963 0.00252308 0)
(0.0992876 0.00254784 0)
(0.0992821 0.00257793 0)
(0.0992794 0.00261388 0)
(0.0992792 0.00265585 0)
(0.0992813 0.00270369 0)
(0.0992855 0.00275711 0)
(0.0992916 0.00281568 0)
(0.0992995 0.00287893 0)
(0.0993091 0.00294635 0)
(0.0993204 0.00301748 0)
(0.0993332 0.00309185 0)
(0.0993478 0.00316905 0)
(0.099364 0.00324872 0)
(0.0993818 0.00333051 0)
(0.0994014 0.00341414 0)
(0.0994227 0.00349934 0)
(0.0994457 0.00358589 0)
(0.0994706 0.00367357 0)
(0.0994973 0.0037622 0)
(0.0995259 0.00385163 0)
(0.0995563 0.00394169 0)
(0.0995887 0.00403225 0)
(0.099623 0.00412317 0)
(0.0999999 3.3868e-05 0)
(0.0999986 0.000100757 0)
(0.0999958 0.000166499 0)
(0.0999917 0.000231387 0)
(0.0999865 0.000295692 0)
(0.0999802 0.000359628 0)
(0.0999729 0.000423326 0)
(0.0999647 0.000486946 0)
(0.0999557 0.000550985 0)
(0.0999459 0.000616734 0)
(0.0999351 0.00068662 0)
(0.0999232 0.000764168 0)
(0.0999095 0.000853431 0)
(0.0998932 0.000957988 0)
(0.0998736 0.00107982 0)
(0.0998497 0.00121848 0)
(0.0998211 0.00137078 0)
(0.0997877 0.00153118 0)
(0.0997499 0.00169265 0)
(0.0997084 0.00184783 0)
(0.0996646 0.00199017 0)
(0.0996196 0.00211474 0)
(0.0995751 0.00221873 0)
(0.0995323 0.00230152 0)
(0.0994924 0.00236438 0)
(0.0994563 0.00241004 0)
(0.0994245 0.00244212 0)
(0.0993974 0.00246459 0)
(0.0993749 0.00248133 0)
(0.0993571 0.00249584 0)
(0.0993435 0.00251102 0)
(0.0993339 0.00252911 0)
(0.0993279 0.0025517 0)
(0.0993251 0.0025798 0)
(0.0993251 0.0026139 0)
(0.0993277 0.00265414 0)
(0.0993325 0.00270037 0)
(0.0993394 0.00275225 0)
(0.0993482 0.00280933 0)
(0.0993587 0.0028711 0)
(0.0993709 0.00293705 0)
(0.0993847 0.00300667 0)
(0.0994002 0.00307949 0)
(0.0994172 0.00315508 0)
(0.0994359 0.00323306 0)
(0.0994562 0.00331309 0)
(0.0994781 0.00339485 0)
(0.0995018 0.00347809 0)
(0.0995272 0.00356258 0)
(0.0995543 0.00364809 0)
(0.0995833 0.00373446 0)
(0.099614 0.00382151 0)
(0.0996466 0.00390908 0)
(0.099681 0.00399705 0)
(0.0997174 0.00408528 0)
(0.0999999 3.41185e-05 0)
(0.0999987 0.000101502 0)
(0.0999961 0.000167726 0)
(0.0999923 0.000233083 0)
(0.0999875 0.000297843 0)
(0.0999817 0.000362218 0)
(0.099975 0.000426337 0)
(0.0999674 0.000490356 0)
(0.0999591 0.000554785 0)
(0.09995 0.000620955 0)
(0.0999402 0.000691373 0)
(0.0999292 0.000769673 0)
(0.0999164 0.000860025 0)
(0.0999011 0.000966095 0)
(0.0998824 0.00108989 0)
(0.0998596 0.0012309 0)
(0.099832 0.00138579 0)
(0.0997996 0.0015488 0)
(0.0997629 0.00171267 0)
(0.0997225 0.00186981 0)
(0.0996799 0.00201348 0)
(0.0996363 0.00213865 0)
(0.0995933 0.00224248 0)
(0.0995521 0.00232438 0)
(0.0995141 0.00238573 0)
(0.0994799 0.00242939 0)
(0.0994503 0.00245911 0)
(0.0994254 0.00247902 0)
(0.0994053 0.00249312 0)
(0.0993899 0.00250501 0)
(0.0993789 0.00251767 0)
(0.0993719 0.00253339 0)
(0.0993685 0.00255377 0)
(0.0993683 0.00257982 0)
(0.0993709 0.00261204 0)
(0.0993761 0.00265053 0)
(0.0993835 0.00269512 0)
(0.099393 0.00274544 0)
(0.0994043 0.00280101 0)
(0.0994174 0.00286129 0)
(0.099432 0.00292574 0)
(0.0994483 0.00299384 0)
(0.0994662 0.0030651 0)
(0.0994856 0.00313907 0)
(0.0995066 0.00321536 0)
(0.0995292 0.0032936 0)
(0.0995535 0.0033735 0)
(0.0995793 0.00345478 0)
(0.0996069 0.0035372 0)
(0.0996362 0.00362056 0)
(0.0996672 0.00370466 0)
(0.0997 0.00378934 0)
(0.0997345 0.00387445 0)
(0.0997709 0.00395985 0)
(0.099809 0.0040454 0)
(0.0999999 3.435e-05 0)
(0.0999988 0.000102191 0)
(0.0999964 0.000168859 0)
(0.099993 0.000234648 0)
(0.0999885 0.000299826 0)
(0.0999832 0.000364605 0)
(0.099977 0.000429107 0)
(0.09997 0.000493488 0)
(0.0999624 0.000558269 0)
(0.0999542 0.000624825 0)
(0.0999452 0.00069574 0)
(0.0999351 0.000774762 0)
(0.0999233 0.000866178 0)
(0.099909 0.000973742 0)
(0.0998913 0.00109949 0)