/*--------------------------------*- C++ -*----------------------------------*\
| =========                 |                                                 |
| \\      /  F ield         | OpenFOAM: The Open Source CFD Toolbox           |
|  \\    /   O peration     | Version:  2412                                  |
|   \\  /    A nd           | Website:  www.openfoam.com                      |
|    \\/     M anipulation  |                                                 |
\*---------------------------------------------------------------------------*/
FoamFile
{
    version     2.0;
    format      ascii;
    arch        "LSB;label=32;scalar=64";
    class       volVectorField;
    location    "4";
    object      vorticity;
}
// * * * * * * * * * * * * * * * * * * * * * * * * * * * * * * * * * * * * * //

dimensions      [0 0 -1 0 0 0 0];

internalField   nonuniform List<vector> 
5285
(
(0 -0 -5.33294e-05)
(0 -0 -5.33953e-05)
(0 -0 -5.33937e-05)
(0 -0 -5.33131e-05)
(0 -0 -5.31733e-05)
(0 -0 -5.29967e-05)
(0 -0 -5.27969e-05)
(0 -0 -5.25791e-05)
(0 -0 -5.2344e-05)
(0 -0 -5.20903e-05)
(0 -0 -5.18175e-05)
(0 -0 -5.15262e-05)
(0 -0 -5.1218e-05)
(0 -0 -5.08957e-05)
(0 -0 -5.05616e-05)
(0 -0 -5.0217e-05)
(0 -0 -4.98614e-05)
(0 -0 -4.9495e-05)
(0 -0 -4.9119e-05)
(0 -0 -4.87362e-05)
(0 -0 -4.83479e-05)
(0 -0 -4.79586e-05)
(0 -0 -4.75696e-05)
(0 -0 -4.7182e-05)
(0 -0 -4.67965e-05)
(0 -0 -4.64115e-05)
(0 -0 -4.60267e-05)
(0 -0 -4.56414e-05)
(0 -0 -4.52549e-05)
(0 -0 -4.48699e-05)
(0 -0 -4.44901e-05)
(0 -0 -4.41178e-05)
(0 -0 -4.37506e-05)
(0 -0 -4.33909e-05)
(0 -0 -4.30354e-05)
(0 -0 -4.26825e-05)
(0 -0 -4.23353e-05)
(0 -0 -4.19884e-05)
(0 -0 -4.16482e-05)
(0 -0 -4.1308e-05)
(0 -0 -4.0984e-05)
(0 -0 -4.06572e-05)
(0 -0 -4.03499e-05)
(0 -0 -4.00416e-05)
(0 -0 -3.97429e-05)
(0 -0 -3.94548e-05)
(0 -0 -3.91599e-05)
(0 -0 -3.8879e-05)
(0 -0 -3.86017e-05)
(0 -0 -3.83208e-05)
(0 -0 -3.80529e-05)
(0 -0 -3.77789e-05)
(0 -0 -3.74963e-05)
(0 -0 -3.72148e-05)
(0 -0 -3.69278e-05)
(0 -0 -3.66338e-05)
(0 -0 -3.63345e-05)
(0 -0 -3.60218e-05)
(0 -0 -3.56882e-05)
(0 -0 -3.53589e-05)
(0 -0 -3.49716e-05)
(0 -0 -3.46047e-05)
(0 -0 -3.4052e-05)
(0 -0 -3.37337e-05)
(0 -0 -3.27382e-05)
(0 -0 -3.28144e-05)
(0 -0 -3.00259e-05)
(0 -0 -3.36826e-05)
(0 -0 -2.63143e-05)
(0 -0 -2.97184e-05)
(0 -0 0.000216)
(0 -0 -5.1145e-05)
(0 -0 -5.11695e-05)
(0 -0 -5.11444e-05)
(0 -0 -5.10601e-05)
(0 -0 -5.09333e-05)
(0 -0 -5.07813e-05)
(0 -0 -5.06151e-05)
(0 -0 -5.04391e-05)
(0 -0 -5.02539e-05)
(0 -0 -5.00581e-05)
(0 -0 -4.98508e-05)
(0 -0 -4.96316e-05)
(0 -0 -4.94015e-05)
(0 -0 -4.9163e-05)
(0 -0 -4.89182e-05)
(0 -0 -4.86681e-05)
(0 -0 -4.84125e-05)
(0 -0 -4.8152e-05)
(0 -0 -4.78859e-05)
(0 -0 -4.76165e-05)
(0 -0 -4.7345e-05)
(0 -0 -4.70754e-05)
(0 -0 -4.68056e-05)
(0 -0 -4.65377e-05)
(0 -0 -4.62723e-05)
(0 -0 -4.60078e-05)
(0 -0 -4.57454e-05)
(0 -0 -4.54842e-05)
(0 -0 -4.52229e-05)
(0 -0 -4.49624e-05)
(0 -0 -4.47099e-05)
(0 -0 -4.44635e-05)
(0 -0 -4.42224e-05)
(0 -0 -4.39872e-05)
(0 -0 -4.3753e-05)
(0 -0 -4.35213e-05)
(0 -0 -4.3296e-05)
(0 -0 -4.30733e-05)
(0 -0 -4.28558e-05)
(0 -0 -4.26379e-05)
(0 -0 -4.24324e-05)
(0 -0 -4.22218e-05)
(0 -0 -4.20255e-05)
(0 -0 -4.18261e-05)
(0 -0 -4.16353e-05)
(0 -0 -4.14531e-05)
(0 -0 -4.12694e-05)
(0 -0 -4.10947e-05)
(0 -0 -4.09224e-05)
(0 -0 -4.07464e-05)
(0 -0 -4.05796e-05)
(0 -0 -4.0414e-05)
(0 -0 -4.02445e-05)
(0 -0 -4.00763e-05)
(0 -0 -3.99047e-05)
(0 -0 -3.97266e-05)
(0 -0 -3.95472e-05)
(0 -0 -3.9364e-05)
(0 -0 -3.91666e-05)
(0 -0 -3.89779e-05)
(0 -0 -3.87441e-05)
(0 -0 -3.85432e-05)
(0 -0 -3.81928e-05)
(0 -0 -3.80796e-05)
(0 -0 -3.73739e-05)
(0 -0 -3.76702e-05)
(0 -0 -3.56551e-05)
(0 -0 -3.92291e-05)
(0 -0 -2.41593e-05)
(0 -0 -9.84351e-05)
(0 -0 0.0002836)
(0 -0 -4.34165e-05)
(0 -0 -4.34212e-05)
(0 -0 -4.33888e-05)
(0 -0 -4.3312e-05)
(0 -0 -4.32052e-05)
(0 -0 -4.30822e-05)
(0 -0 -4.29522e-05)
(0 -0 -4.28185e-05)
(0 -0 -4.26815e-05)
(0 -0 -4.25396e-05)
(0 -0 -4.23921e-05)
(0 -0 -4.22374e-05)
(0 -0 -4.20767e-05)
(0 -0 -4.19117e-05)
(0 -0 -4.17445e-05)
(0 -0 -4.15757e-05)
(0 -0 -4.14052e-05)
(0 -0 -4.12344e-05)
(0 -0 -4.10609e-05)
(0 -0 -4.08865e-05)
(0 -0 -4.07126e-05)
(0 -0 -4.05426e-05)
(0 -0 -4.03718e-05)
(0 -0 -4.02031e-05)
(0 -0 -4.00371e-05)
(0 -0 -3.98718e-05)
(0 -0 -3.97099e-05)
(0 -0 -3.955e-05)
(0 -0 -3.93911e-05)
(0 -0 -3.92322e-05)
(0 -0 -3.90833e-05)
(0 -0 -3.89389e-05)
(0 -0 -3.87995e-05)
(0 -0 -3.86641e-05)
(0 -0 -3.85274e-05)
(0 -0 -3.83925e-05)
(0 -0 -3.82642e-05)
(0 -0 -3.81398e-05)
(0 -0 -3.80193e-05)
(0 -0 -3.78985e-05)
(0 -0 -3.77866e-05)
(0 -0 -3.76687e-05)
(0 -0 -3.75595e-05)
(0 -0 -3.74465e-05)
(0 -0 -3.73403e-05)
(0 -0 -3.72403e-05)
(0 -0 -3.71441e-05)
(0 -0 -3.70521e-05)
(0 -0 -3.69609e-05)
(0 -0 -3.68671e-05)
(0 -0 -3.6778e-05)
(0 -0 -3.66952e-05)
(0 -0 -3.66129e-05)
(0 -0 -3.65309e-05)
(0 -0 -3.64472e-05)
(0 -0 -3.63573e-05)
(0 -0 -3.62692e-05)
(0 -0 -3.61852e-05)
(0 -0 -3.60917e-05)
(0 -0 -3.60085e-05)
(0 -0 -3.58915e-05)
(0 -0 -3.5817e-05)
(0 -0 -3.56208e-05)
(0 -0 -3.56619e-05)
(0 -0 -3.51781e-05)
(0 -0 -3.56323e-05)
(0 -0 -3.42022e-05)
(0 -0 -3.76537e-05)
(0 -0 -1.78462e-05)
(0 -0 -0.000137513)
(0 -0 0.000326434)
(0 -0 -3.21747e-05)
(0 -0 -3.21817e-05)
(0 -0 -3.21589e-05)
(0 -0 -3.21009e-05)
(0 -0 -3.20214e-05)
(0 -0 -3.19318e-05)
(0 -0 -3.18398e-05)
(0 -0 -3.17476e-05)
(0 -0 -3.16554e-05)
(0 -0 -3.15616e-05)
(0 -0 -3.14654e-05)
(0 -0 -3.13653e-05)
(0 -0 -3.12622e-05)
(0 -0 -3.11577e-05)
(0 -0 -3.10532e-05)
(0 -0 -3.09489e-05)
(0 -0 -3.08453e-05)
(0 -0 -3.07441e-05)
(0 -0 -3.06418e-05)
(0 -0 -3.05403e-05)
(0 -0 -3.04406e-05)
(0 -0 -3.03456e-05)
(0 -0 -3.02494e-05)
(0 -0 -3.01548e-05)
(0 -0 -3.00631e-05)
(0 -0 -2.99714e-05)
(0 -0 -2.98839e-05)
(0 -0 -2.97984e-05)
(0 -0 -2.9715e-05)
(0 -0 -2.96309e-05)
(0 -0 -2.95577e-05)
(0 -0 -2.94869e-05)
(0 -0 -2.94209e-05)
(0 -0 -2.93568e-05)
(0 -0 -2.92899e-05)
(0 -0 -2.92243e-05)
(0 -0 -2.91644e-05)
(0 -0 -2.91093e-05)
(0 -0 -2.9057e-05)
(0 -0 -2.90045e-05)
(0 -0 -2.89582e-05)
(0 -0 -2.89062e-05)
(0 -0 -2.88577e-05)
(0 -0 -2.88057e-05)
(0 -0 -2.87585e-05)
(0 -0 -2.8715e-05)
(0 -0 -2.86794e-05)
(0 -0 -2.86444e-05)
(0 -0 -2.86084e-05)
(0 -0 -2.85715e-05)
(0 -0 -2.85355e-05)
(0 -0 -2.8508e-05)
(0 -0 -2.84844e-05)
(0 -0 -2.84597e-05)
(0 -0 -2.84342e-05)
(0 -0 -2.8403e-05)
(0 -0 -2.83754e-05)
(0 -0 -2.83574e-05)
(0 -0 -2.83328e-05)
(0 -0 -2.83175e-05)
(0 -0 -2.82776e-05)
(0 -0 -2.82852e-05)
(0 -0 -2.81916e-05)
(0 -0 -2.83293e-05)
(0 -0 -2.79958e-05)
(0 -0 -2.85384e-05)
(0 -0 -2.75014e-05)
(0 -0 -3.07849e-05)
(0 -0 -8.92056e-06)
(0 -0 -0.000150582)
(0 -0 0.000345784)
(0 -0 -2.02935e-05)
(0 -0 -2.03179e-05)
(0 -0 -2.03152e-05)
(0 -0 -2.02827e-05)
(0 -0 -2.02337e-05)
(0 -0 -2.01781e-05)
(0 -0 -2.01222e-05)
(0 -0 -2.00673e-05)
(0 -0 -2.00133e-05)
(0 -0 -1.99588e-05)
(0 -0 -1.99032e-05)
(0 -0 -1.98451e-05)
(0 -0 -1.9786e-05)
(0 -0 -1.97267e-05)
(0 -0 -1.96681e-05)
(0 -0 -1.96104e-05)
(0 -0 -1.95543e-05)
(0 -0 -1.95018e-05)
(0 -0 -1.94487e-05)
(0 -0 -1.93972e-05)
(0 -0 -1.9348e-05)
(0 -0 -1.9303e-05)
(0 -0 -1.92566e-05)
(0 -0 -1.92111e-05)
(0 -0 -1.91685e-05)
(0 -0 -1.91251e-05)
(0 -0 -1.90862e-05)
(0 -0 -1.9049e-05)
(0 -0 -1.90148e-05)
(0 -0 -1.89793e-05)
(0 -0 -1.89544e-05)
(0 -0 -1.89302e-05)
(0 -0 -1.891e-05)
(0 -0 -1.889e-05)
(0 -0 -1.88668e-05)
(0 -0 -1.88444e-05)
(0 -0 -1.88264e-05)
(0 -0 -1.88135e-05)
(0 -0 -1.88024e-05)
(0 -0 -1.87916e-05)
(0 -0 -1.87848e-05)
(0 -0 -1.87734e-05)
(0 -0 -1.87614e-05)
(0 -0 -1.87469e-05)
(0 -0 -1.8735e-05)
(0 -0 -1.8725e-05)
(0 -0 -1.87254e-05)
(0 -0 -1.87237e-05)
(0 -0 -1.872e-05)
(0 -0 -1.87167e-05)
(0 -0 -1.87115e-05)
(0 -0 -1.87152e-05)
(0 -0 -1.87245e-05)
(0 -0 -1.87315e-05)
(0 -0 -1.87382e-05)
(0 -0 -1.874e-05)
(0 -0 -1.87456e-05)
(0 -0 -1.87637e-05)
(0 -0 -1.87767e-05)
(0 -0 -1.87972e-05)
(0 -0 -1.87991e-05)
(0 -0 -1.88495e-05)
(0 -0 -1.88122e-05)
(0 -0 -1.89964e-05)
(0 -0 -1.875e-05)
(0 -0 -1.93196e-05)
(0 -0 -1.8517e-05)
(0 -0 -2.15882e-05)
(0 -0 2.96217e-07)
(0 -0 -0.000145478)
(0 -0 0.000346126)
(0 -0 -1.02036e-05)
(0 -0 -1.02507e-05)
(0 -0 -1.02712e-05)
(0 -0 -1.02644e-05)
(0 -0 -1.02439e-05)
(0 -0 -1.02182e-05)
(0 -0 -1.01926e-05)
(0 -0 -1.01674e-05)
(0 -0 -1.01426e-05)
(0 -0 -1.01166e-05)
(0 -0 -1.00894e-05)
(0 -0 -1.00603e-05)
(0 -0 -1.0031e-05)
(0 -0 -1.00018e-05)
(0 -0 -9.97309e-06)
(0 -0 -9.945e-06)
(0 -0 -9.91855e-06)
(0 -0 -9.89577e-06)
(0 -0 -9.87234e-06)
(0 -0 -9.85077e-06)
(0 -0 -9.83112e-06)
(0 -0 -9.81475e-06)
(0 -0 -9.79684e-06)
(0 -0 -9.77925e-06)
(0 -0 -9.76416e-06)
(0 -0 -9.74778e-06)
(0 -0 -9.73588e-06)
(0 -0 -9.72517e-06)
(0 -0 -9.71814e-06)
(0 -0 -9.70968e-06)
(0 -0 -9.71037e-06)
(0 -0 -9.71051e-06)
(0 -0 -9.71376e-06)
(0 -0 -9.71617e-06)
(0 -0 -9.71548e-06)
(0 -0 -9.71534e-06)
(0 -0 -9.71829e-06)
(0 -0 -9.7261e-06)
(0 -0 -9.73502e-06)
(0 -0 -9.74486e-06)
(0 -0 -9.7571e-06)
(0 -0 -9.76594e-06)
(0 -0 -9.77173e-06)
(0 -0 -9.77626e-06)
(0 -0 -9.78119e-06)
(0 -0 -9.78706e-06)
(0 -0 -9.80417e-06)
(0 -0 -9.81759e-06)
(0 -0 -9.82869e-06)
(0 -0 -9.84105e-06)
(0 -0 -9.84998e-06)
(0 -0 -9.86689e-06)
(0 -0 -9.88956e-06)
(0 -0 -9.90937e-06)
(0 -0 -9.92903e-06)
(0 -0 -9.94467e-06)
(0 -0 -9.96351e-06)
(0 -0 -9.99543e-06)
(0 -0 -1.00227e-05)
(0 -0 -1.00559e-05)
(0 -0 -1.00736e-05)
(0 -0 -1.0138e-05)
(0 -0 -1.01233e-05)
(0 -0 -1.03164e-05)
(0 -0 -1.01129e-05)
(0 -0 -1.0664e-05)
(0 -0 -9.98408e-06)
(0 -0 -1.28176e-05)
(0 -0 7.82393e-06)
(0 -0 -0.000130834)
(0 -0 0.000333307)
(0 -0 -3.15404e-06)
(0 -0 -3.22175e-06)
(0 -0 -3.26203e-06)
(0 -0 -3.27632e-06)
(0 -0 -3.27833e-06)
(0 -0 -3.27565e-06)
(0 -0 -3.27232e-06)
(0 -0 -3.26803e-06)
(0 -0 -3.26249e-06)
(0 -0 -3.25434e-06)
(0 -0 -3.24421e-06)
(0 -0 -3.23225e-06)
(0 -0 -3.22027e-06)
(0 -0 -3.2083e-06)
(0 -0 -3.19596e-06)
(0 -0 -3.18382e-06)
(0 -0 -3.17283e-06)
(0 -0 -3.16504e-06)
(0 -0 -3.15625e-06)
(0 -0 -3.14934e-06)
(0 -0 -3.14365e-06)
(0 -0 -3.1401e-06)
(0 -0 -3.13498e-06)
(0 -0 -3.12967e-06)
(0 -0 -3.12643e-06)
(0 -0 -3.1218e-06)
(0 -0 -3.12125e-06)
(0 -0 -3.12162e-06)
(0 -0 -3.126e-06)
(0 -0 -3.12903e-06)
(0 -0 -3.13943e-06)
(0 -0 -3.1486e-06)
(0 -0 -3.1598e-06)
(0 -0 -3.16978e-06)
(0 -0 -3.17711e-06)
(0 -0 -3.18514e-06)
(0 -0 -3.19494e-06)
(0 -0 -3.20908e-06)
(0 -0 -3.22392e-06)
(0 -0 -3.24011e-06)
(0 -0 -3.25788e-06)
(0 -0 -3.27316e-06)
(0 -0 -3.28439e-06)
(0 -0 -3.29546e-06)
(0 -0 -3.3053e-06)
(0 -0 -3.31569e-06)
(0 -0 -3.33684e-06)
(0 -0 -3.3536e-06)
(0 -0 -3.3684e-06)
(0 -0 -3.38458e-06)
(0 -0 -3.39715e-06)
(0 -0 -3.41606e-06)
(0 -0 -3.43994e-06)
(0 -0 -3.46084e-06)
(0 -0 -3.48165e-06)
(0 -0 -3.49966e-06)
(0 -0 -3.51945e-06)
(0 -0 -3.55141e-06)
(0 -0 -3.57876e-06)
(0 -0 -3.61121e-06)
(0 -0 -3.62925e-06)
(0 -0 -3.69039e-06)
(0 -0 -3.678e-06)
(0 -0 -3.85814e-06)
(0 -0 -3.67124e-06)
(0 -0 -4.17792e-06)
(0 -0 -3.55652e-06)
(0 -0 -6.14414e-06)
(0 -0 1.26605e-05)
(0 -0 -0.000113501)
(0 -0 0.000312965)
(0 -0 8.09426e-07)
(0 -0 7.2704e-07)
(0 -0 6.7311e-07)
(0 -0 6.44415e-07)
(0 -0 6.26952e-07)
(0 -0 6.14249e-07)
(0 -0 6.03303e-07)
(0 -0 5.95122e-07)
(0 -0 5.90028e-07)
(0 -0 5.89067e-07)
(0 -0 5.91028e-07)
(0 -0 5.94852e-07)
(0 -0 5.98741e-07)
(0 -0 6.02977e-07)
(0 -0 6.08504e-07)
(0 -0 6.14214e-07)
(0 -0 6.19353e-07)
(0 -0 6.21986e-07)
(0 -0 6.25958e-07)
(0 -0 6.28116e-07)
(0 -0 6.29777e-07)
(0 -0 6.30288e-07)
(0 -0 6.32354e-07)
(0 -0 6.35017e-07)
(0 -0 6.35911e-07)
(0 -0 6.38046e-07)
(0 -0 6.36691e-07)
(0 -0 6.34498e-07)
(0 -0 6.28307e-07)
(0 -0 6.23074e-07)
(0 -0 6.12271e-07)
(0 -0 6.02823e-07)
(0 -0 5.92502e-07)
(0 -0 5.83164e-07)
(0 -0 5.76066e-07)
(0 -0 5.67766e-07)
(0 -0 5.5875e-07)
(0 -0 5.46262e-07)
(0 -0 5.3323e-07)
(0 -0 5.18508e-07)
(0 -0 5.02573e-07)
(0 -0 4.88577e-07)
(0 -0 4.78503e-07)
(0 -0 4.67797e-07)
(0 -0 4.59368e-07)
(0 -0 4.50434e-07)
(0 -0 4.3199e-07)
(0 -0 4.17973e-07)
(0 -0 4.05155e-07)
(0 -0 3.91327e-07)
(0 -0 3.80431e-07)
(0 -0 3.64937e-07)
(0 -0 3.45813e-07)
(0 -0 3.29299e-07)
(0 -0 3.12986e-07)
(0 -0 2.98064e-07)
(0 -0 2.8308e-07)
(0 -0 2.5745e-07)
(0 -0 2.36752e-07)
(0 -0 2.10676e-07)
(0 -0 1.99316e-07)
(0 -0 1.48855e-07)
(0 -0 1.6808e-07)
(0 -0 1.02968e-08)
(0 -0 1.92086e-07)
(0 -0 -2.60586e-07)
(0 -0 3.3104e-07)
(0 -0 -2.01872e-06)
(0 -0 1.48253e-05)
(0 -0 -9.75509e-05)
(0 -0 0.00028959)
(0 -0 2.39812e-06)
(0 -0 2.30746e-06)
(0 -0 2.24612e-06)
(0 -0 2.20925e-06)
(0 -0 2.18262e-06)
(0 -0 2.16089e-06)
(0 -0 2.14216e-06)
(0 -0 2.12791e-06)
(0 -0 2.11844e-06)
(0 -0 2.11433e-06)
(0 -0 2.11386e-06)
(0 -0 2.11523e-06)
(0 -0 2.11682e-06)
(0 -0 2.11915e-06)
(0 -0 2.12358e-06)
(0 -0 2.12835e-06)
(0 -0 2.13306e-06)
(0 -0 2.13591e-06)
(0 -0 2.14034e-06)
(0 -0 2.14302e-06)
(0 -0 2.14575e-06)
(0 -0 2.14801e-06)
(0 -0 2.15184e-06)
(0 -0 2.1566e-06)
(0 -0 2.15973e-06)
(0 -0 2.16377e-06)
(0 -0 2.16509e-06)
(0 -0 2.1655e-06)
(0 -0 2.16213e-06)
(0 -0 2.15912e-06)
(0 -0 2.15202e-06)
(0 -0 2.14598e-06)
(0 -0 2.14028e-06)
(0 -0 2.1349e-06)
(0 -0 2.13156e-06)
(0 -0 2.12626e-06)
(0 -0 2.12105e-06)
(0 -0 2.1135e-06)
(0 -0 2.10529e-06)
(0 -0 2.0952e-06)
(0 -0 2.08386e-06)
(0 -0 2.07437e-06)
(0 -0 2.06796e-06)
(0 -0 2.06043e-06)
(0 -0 2.05577e-06)
(0 -0 2.05062e-06)
(0 -0 2.03729e-06)
(0 -0 2.02805e-06)
(0 -0 2.01913e-06)
(0 -0 2.0099e-06)
(0 -0 2.00239e-06)
(0 -0 1.9918e-06)
(0 -0 1.97912e-06)
(0 -0 1.96841e-06)
(0 -0 1.95812e-06)
(0 -0 1.94777e-06)
(0 -0 1.93906e-06)
(0 -0 1.92112e-06)
(0 -0 1.90867e-06)
(0 -0 1.88979e-06)
(0 -0 1.88657e-06)
(0 -0 1.84797e-06)
(0 -0 1.87575e-06)
(0 -0 1.74159e-06)
(0 -0 1.92054e-06)
(0 -0 1.52095e-06)
(0 -0 2.08999e-06)
(0 -0 -4.00798e-08)
(0 -0 1.49797e-05)
(0 -0 -8.45776e-05)
(0 -0 0.000266177)
(0 -0 2.5467e-06)
(0 -0 2.4528e-06)
(0 -0 2.38888e-06)
(0 -0 2.34839e-06)
(0 -0 2.31697e-06)
(0 -0 2.29058e-06)
(0 -0 2.26837e-06)
(0 -0 2.25212e-06)
(0 -0 2.24201e-06)
(0 -0 2.23799e-06)
(0 -0 2.23799e-06)
(0 -0 2.23973e-06)
(0 -0 2.2419e-06)
(0 -0 2.24515e-06)
(0 -0 2.25114e-06)
(0 -0 2.2574e-06)
(0 -0 2.26392e-06)
(0 -0 2.26909e-06)
(0 -0 2.27605e-06)
(0 -0 2.28127e-06)
(0 -0 2.28681e-06)
(0 -0 2.29224e-06)
(0 -0 2.29938e-06)
(0 -0 2.30777e-06)
(0 -0 2.31451e-06)
(0 -0 2.32171e-06)
(0 -0 2.32714e-06)
(0 -0 2.33149e-06)
(0 -0 2.33233e-06)
(0 -0 2.3328e-06)
(0 -0 2.33019e-06)
(0 -0 2.32807e-06)
(0 -0 2.32763e-06)
(0 -0 2.32657e-06)
(0 -0 2.32764e-06)
(0 -0 2.32583e-06)
(0 -0 2.3248e-06)
(0 -0 2.32265e-06)
(0 -0 2.31951e-06)
(0 -0 2.3145e-06)
(0 -0 2.3077e-06)
(0 -0 2.30317e-06)
(0 -0 2.30059e-06)
(0 -0 2.29662e-06)
(0 -0 2.29589e-06)
(0 -0 2.29491e-06)
(0 -0 2.2866e-06)
(0 -0 2.28184e-06)
(0 -0 2.27664e-06)
(0 -0 2.27201e-06)
(0 -0 2.26764e-06)
(0 -0 2.26128e-06)
(0 -0 2.25447e-06)
(0 -0 2.24893e-06)
(0 -0 2.24409e-06)
(0 -0 2.23776e-06)
(0 -0 2.23461e-06)
(0 -0 2.22306e-06)
(0 -0 2.2178e-06)
(0 -0 2.20467e-06)
(0 -0 2.2083e-06)
(0 -0 2.1797e-06)
(0 -0 2.21403e-06)
(0 -0 2.10074e-06)
(0 -0 2.27487e-06)
(0 -0 1.92231e-06)
(0 -0 2.46622e-06)
(0 -0 5.33375e-07)
(0 -0 1.39662e-05)
(0 -0 -7.4603e-05)
(0 -0 0.000244351)
(0 -0 2.0455e-06)
(0 -0 1.95163e-06)
(0 -0 1.88821e-06)
(0 -0 1.84683e-06)
(0 -0 1.81307e-06)
(0 -0 1.7844e-06)
(0 -0 1.76102e-06)
(0 -0 1.74482e-06)
(0 -0 1.73574e-06)
(0 -0 1.73303e-06)
(0 -0 1.73439e-06)
(0 -0 1.73739e-06)
(0 -0 1.74107e-06)
(0 -0 1.74608e-06)
(0 -0 1.75426e-06)
(0 -0 1.76251e-06)
(0 -0 1.77117e-06)
(0 -0 1.7788e-06)
(0 -0 1.78854e-06)
(0 -0 1.79646e-06)
(0 -0 1.8047e-06)
(0 -0 1.81293e-06)
(0 -0 1.8232e-06)
(0 -0 1.83512e-06)
(0 -0 1.84521e-06)
(0 -0 1.8552e-06)
(0 -0 1.86453e-06)
(0 -0 1.87252e-06)
(0 -0 1.8773e-06)
(0 -0 1.88082e-06)
(0 -0 1.88185e-06)
(0 -0 1.88264e-06)
(0 -0 1.88664e-06)
(0 -0 1.88887e-06)
(0 -0 1.89368e-06)
(0 -0 1.89454e-06)
(0 -0 1.89697e-06)
(0 -0 1.89941e-06)
(0 -0 1.90037e-06)
(0 -0 1.89969e-06)
(0 -0 1.89601e-06)
(0 -0 1.89557e-06)
(0 -0 1.89599e-06)
(0 -0 1.89486e-06)
(0 -0 1.89737e-06)
(0 -0 1.90025e-06)
(0 -0 1.89575e-06)
(0 -0 1.89425e-06)
(0 -0 1.89169e-06)
(0 -0 1.89072e-06)
(0 -0 1.88844e-06)
(0 -0 1.88481e-06)
(0 -0 1.88254e-06)
(0 -0 1.8809e-06)
(0 -0 1.88028e-06)
(0 -0 1.87679e-06)
(0 -0 1.87775e-06)
(0 -0 1.87029e-06)
(0 -0 1.87026e-06)
(0 -0 1.86095e-06)
(0 -0 1.86935e-06)
(0 -0 1.84805e-06)
(0 -0 1.88581e-06)
(0 -0 1.78942e-06)
(0 -0 1.95579e-06)
(0 -0 1.64285e-06)
(0 -0 2.15699e-06)
(0 -0 3.98584e-07)
(0 -0 1.24883e-05)
(0 -0 -6.69726e-05)
(0 -0 0.000224735)
(0 -0 1.40036e-06)
(0 -0 1.30832e-06)
(0 -0 1.24721e-06)
(0 -0 1.20624e-06)
(0 -0 1.17112e-06)
(0 -0 1.14103e-06)
(0 -0 1.1173e-06)
(0 -0 1.10179e-06)
(0 -0 1.09411e-06)
(0 -0 1.09274e-06)
(0 -0 1.09525e-06)
(0 -0 1.0994e-06)
(0 -0 1.10449e-06)
(0 -0 1.11105e-06)
(0 -0 1.12098e-06)
(0 -0 1.13073e-06)
(0 -0 1.14094e-06)
(0 -0 1.15034e-06)
(0 -0 1.16226e-06)
(0 -0 1.17233e-06)
(0 -0 1.18241e-06)
(0 -0 1.19249e-06)
(0 -0 1.20509e-06)
(0 -0 1.21987e-06)
(0 -0 1.23254e-06)
(0 -0 1.24435e-06)
(0 -0 1.25665e-06)
(0 -0 1.2674e-06)
(0 -0 1.27519e-06)
(0 -0 1.28072e-06)
(0 -0 1.28404e-06)
(0 -0 1.28632e-06)
(0 -0 1.29356e-06)
(0 -0 1.29775e-06)
(0 -0 1.30529e-06)
(0 -0 1.3076e-06)
(0 -0 1.31258e-06)
(0 -0 1.31849e-06)
(0 -0 1.32234e-06)
(0 -0 1.32498e-06)
(0 -0 1.32255e-06)
(0 -0 1.32488e-06)
(0 -0 1.32728e-06)
(0 -0 1.32806e-06)
(0 -0 1.33302e-06)
(0 -0 1.33942e-06)
(0 -0 1.33733e-06)
(0 -0 1.33772e-06)
(0 -0 1.33663e-06)
(0 -0 1.33808e-06)
(0 -0 1.33674e-06)
(0 -0 1.33435e-06)
(0 -0 1.33536e-06)
(0 -0 1.33652e-06)
(0 -0 1.339e-06)
(0 -0 1.33729e-06)
(0 -0 1.34088e-06)
(0 -0 1.33529e-06)
(0 -0 1.33846e-06)
(0 -0 1.3316e-06)
(0 -0 1.34286e-06)
(0 -0 1.32653e-06)
(0 -0 1.3648e-06)
(0 -0 1.28158e-06)
(0 -0 1.43789e-06)
(0 -0 1.15789e-06)
(0 -0 1.63914e-06)
(0 -0 3.40423e-08)
(0 -0 1.099e-05)
(0 -0 -6.09423e-05)
(0 -0 0.000207354)
(0 -0 8.54449e-07)
(0 -0 7.65176e-07)
(0 -0 7.07318e-07)
(0 -0 6.67262e-07)
(0 -0 6.30873e-07)
(0 -0 5.99336e-07)
(0 -0 5.75158e-07)
(0 -0 5.60184e-07)
(0 -0 5.53607e-07)
(0 -0 5.53094e-07)
(0 -0 5.56141e-07)
(0 -0 5.6101e-07)
(0 -0 5.67056e-07)
(0 -0 5.74526e-07)
(0 -0 5.85292e-07)
(0 -0 5.95727e-07)
(0 -0 6.06743e-07)
(0 -0 6.17096e-07)
(0 -0 6.30397e-07)
(0 -0 6.41982e-07)
(0 -0 6.52997e-07)
(0 -0 6.64055e-07)
(0 -0 6.78161e-07)
(0 -0 6.95139e-07)
(0 -0 7.09647e-07)
(0 -0 7.22286e-07)
(0 -0 7.36436e-07)
(0 -0 7.48936e-07)
(0 -0 7.58779e-07)
(0 -0 7.65249e-07)
(0 -0 7.69655e-07)
(0 -0 7.72236e-07)
(0 -0 7.81633e-07)
(0 -0 7.86709e-07)
(0 -0 7.96071e-07)
(0 -0 7.987e-07)
(0 -0 8.05534e-07)
(0 -0 8.13893e-07)
(0 -0 8.19649e-07)
(0 -0 8.24701e-07)
(0 -0 8.21877e-07)
(0 -0 8.25568e-07)
(0 -0 8.29137e-07)
(0 -0 8.31103e-07)
(0 -0 8.37834e-07)
(0 -0 8.47561e-07)
(0 -0 8.46787e-07)
(0 -0 8.4794e-07)
(0 -0 8.47418e-07)
(0 -0 8.50062e-07)
(0 -0 8.48787e-07)
(0 -0 8.46548e-07)
(0 -0 8.49935e-07)
(0 -0 8.532e-07)
(0 -0 8.58101e-07)
(0 -0 8.57502e-07)
(0 -0 8.62431e-07)
(0 -0 8.57022e-07)
(0 -0 8.61595e-07)
(0 -0 8.56823e-07)
(0 -0 8.69442e-07)
(0 -0 8.56543e-07)
(0 -0 8.93134e-07)
(0 -0 8.19915e-07)
(0 -0 9.65067e-07)
(0 -0 7.12773e-07)
(0 -0 1.16049e-06)
(0 -0 -3.10141e-07)
(0 -0 9.67838e-06)
(0 -0 -5.59369e-05)
(0 -0 0.000191959)
(0 -0 4.76621e-07)
(0 -0 3.90482e-07)
(0 -0 3.36319e-07)
(0 -0 2.97268e-07)
(0 -0 2.59416e-07)
(0 -0 2.26081e-07)
(0 -0 2.00974e-07)
(0 -0 1.86084e-07)
(0 -0 1.80115e-07)
(0 -0 1.79906e-07)
(0 -0 1.82916e-07)
(0 -0 1.88087e-07)
(0 -0 1.94603e-07)
(0 -0 2.02338e-07)
(0 -0 2.12921e-07)
(0 -0 2.23282e-07)
(0 -0 2.34566e-07)
(0 -0 2.45309e-07)
(0 -0 2.5925e-07)
(0 -0 2.7198e-07)
(0 -0 2.83312e-07)
(0 -0 2.9483e-07)
(0 -0 3.09786e-07)
(0 -0 3.28433e-07)
(0 -0 3.44224e-07)
(0 -0 3.56932e-07)
(0 -0 3.7183e-07)
(0 -0 3.85145e-07)
(0 -0 3.96255e-07)
(0 -0 4.02811e-07)
(0 -0 4.07545e-07)
(0 -0 4.09743e-07)
(0 -0 4.20432e-07)
(0 -0 4.25881e-07)
(0 -0 4.36344e-07)
(0 -0 4.38454e-07)
(0 -0 4.46697e-07)
(0 -0 4.5668e-07)
(0 -0 4.63712e-07)
(0 -0 4.70355e-07)
(0 -0 4.66212e-07)
(0 -0 4.69818e-07)
(0 -0 4.74068e-07)
(0 -0 4.76822e-07)
(0 -0 4.84722e-07)
(0 -0 4.97586e-07)
(0 -0 4.97605e-07)
(0 -0 4.9869e-07)
(0 -0 4.98275e-07)
(0 -0 5.00925e-07)
(0 -0 4.99322e-07)
(0 -0 4.9675e-07)
(0 -0 5.01949e-07)
(0 -0 5.06985e-07)
(0 -0 5.13901e-07)
(0 -0 5.14096e-07)
(0 -0 5.19258e-07)
(0 -0 5.13095e-07)
(0 -0 5.17396e-07)
(0 -0 5.15463e-07)
(0 -0 5.28327e-07)
(0 -0 5.1816e-07)
(0 -0 5.51568e-07)
(0 -0 4.85694e-07)
(0 -0 6.19701e-07)
(0 -0 3.91391e-07)
(0 -0 8.06911e-07)
(0 -0 -5.45766e-07)
(0 -0 8.60463e-06)
(0 -0 -5.15954e-05)
(0 -0 0.000178229)
(0 -0 2.48662e-07)
(0 -0 1.65638e-07)
(0 -0 1.15156e-07)
(0 -0 7.70668e-08)
(0 -0 3.77105e-08)
(0 -0 2.40522e-09)
(0 -0 -2.40048e-08)
(0 -0 -3.92184e-08)
(0 -0 -4.50272e-08)
(0 -0 -4.53416e-08)
(0 -0 -4.27529e-08)
(0 -0 -3.75643e-08)
(0 -0 -3.09356e-08)
(0 -0 -2.34299e-08)
(0 -0 -1.39087e-08)
(0 -0 -4.12637e-09)
(0 -0 7.22842e-09)
(0 -0 1.82135e-08)
(0 -0 3.21627e-08)
(0 -0 4.59775e-08)
(0 -0 5.73467e-08)
(0 -0 6.91865e-08)
(0 -0 8.44982e-08)
(0 -0 1.04296e-07)
(0 -0 1.20891e-07)
(0 -0 1.33299e-07)
(0 -0 1.47993e-07)
(0 -0 1.61277e-07)
(0 -0 1.73064e-07)
(0 -0 1.79143e-07)
(0 -0 1.83922e-07)
(0 -0 1.85618e-07)
(0 -0 1.96874e-07)
(0 -0 2.02873e-07)
(0 -0 2.1373e-07)
(0 -0 2.14971e-07)
(0 -0 2.24277e-07)
(0 -0 2.35144e-07)
(0 -0 2.43107e-07)
(0 -0 2.50427e-07)
(0 -0 2.45254e-07)
(0 -0 2.47258e-07)
(0 -0 2.52049e-07)
(0 -0 2.55424e-07)
(0 -0 2.6375e-07)
(0 -0 2.79259e-07)
(0 -0 2.80207e-07)
(0 -0 2.80673e-07)
(0 -0 2.80402e-07)
(0 -0 2.81991e-07)
(0 -0 2.80219e-07)
(0 -0 2.77494e-07)
(0 -0 2.8407e-07)
(0 -0 2.90654e-07)
(0 -0 2.99182e-07)
(0 -0 3.00032e-07)
(0 -0 3.04478e-07)
(0 -0 2.97486e-07)
(0 -0 2.9985e-07)
(0 -0 3.02393e-07)
(0 -0 3.1454e-07)
(0 -0 3.07143e-07)
(0 -0 3.36427e-07)
(0 -0 2.75593e-07)
(0 -0 3.99236e-07)
(0 -0 1.92504e-07)
(0 -0 5.78024e-07)
(0 -0 -6.70798e-07)
(0 -0 7.74378e-06)
(0 -0 -4.77215e-05)
(0 -0 0.000165878)
(0 -0 1.2427e-07)
(0 -0 4.41339e-08)
(0 -0 -3.1928e-09)
(0 -0 -4.04433e-08)
(0 -0 -8.09252e-08)
(0 -0 -1.17828e-07)
(0 -0 -1.45458e-07)
(0 -0 -1.61132e-07)
(0 -0 -1.67063e-07)
(0 -0 -1.67717e-07)
(0 -0 -1.65727e-07)
(0 -0 -1.60693e-07)
(0 -0 -1.54175e-07)
(0 -0 -1.47138e-07)
(0 -0 -1.39218e-07)
(0 -0 -1.30173e-07)
(0 -0 -1.18695e-07)
(0 -0 -1.0727e-07)
(0 -0 -9.38309e-08)
(0 -0 -7.88487e-08)
(0 -0 -6.74682e-08)
(0 -0 -5.51929e-08)
(0 -0 -3.99391e-08)
(0 -0 -1.96924e-08)
(0 -0 -2.84991e-09)
(0 -0 9.32386e-09)
(0 -0 2.31608e-08)
(0 -0 3.56924e-08)
(0 -0 4.77037e-08)
(0 -0 5.30161e-08)
(0 -0 5.79307e-08)
(0 -0 5.94966e-08)
(0 -0 7.06171e-08)
(0 -0 7.7946e-08)
(0 -0 8.8359e-08)
(0 -0 8.90078e-08)
(0 -0 9.89472e-08)
(0 -0 1.09913e-07)
(0 -0 1.18615e-07)
(0 -0 1.25478e-07)
(0 -0 1.20981e-07)
(0 -0 1.1995e-07)
(0 -0 1.25431e-07)
(0 -0 1.29307e-07)
(0 -0 1.37072e-07)
(0 -0 1.54124e-07)
(0 -0 1.56696e-07)
(0 -0 1.56245e-07)
(0 -0 1.56619e-07)
(0 -0 1.56351e-07)
(0 -0 1.55079e-07)
(0 -0 1.5294e-07)
(0 -0 1.6037e-07)
(0 -0 1.68134e-07)
(0 -0 1.77518e-07)
(0 -0 1.78888e-07)
(0 -0 1.81932e-07)
(0 -0 1.74894e-07)
(0 -0 1.73744e-07)
(0 -0 1.82688e-07)
(0 -0 1.93104e-07)
(0 -0 1.89104e-07)
(0 -0 2.13739e-07)
(0 -0 1.56169e-07)
(0 -0 2.7051e-07)
(0 -0 8.39709e-08)
(0 -0 4.41489e-07)
(0 -0 -7.15161e-07)
(0 -0 7.04803e-06)
(0 -0 -4.42185e-05)
(0 -0 0.000154678)
(0 -0 5.9644e-08)
(0 -0 -1.74176e-08)
(0 -0 -6.27141e-08)
(0 -0 -9.94929e-08)
(0 -0 -1.40302e-07)
(0 -0 -1.77783e-07)
(0 -0 -2.0595e-07)
(0 -0 -2.21899e-07)
(0 -0 -2.281e-07)
(0 -0 -2.29241e-07)
(0 -0 -2.27908e-07)
(0 -0 -2.23188e-07)
(0 -0 -2.16929e-07)
(0 -0 -2.10332e-07)
(0 -0 -2.04072e-07)
(0 -0 -1.95592e-07)
(0 -0 -1.83912e-07)
(0 -0 -1.71718e-07)
(0 -0 -1.59214e-07)
(0 -0 -1.43124e-07)
(0 -0 -1.3167e-07)
(0 -0 -1.18803e-07)
(0 -0 -1.04019e-07)
(0 -0 -8.43373e-08)
(0 -0 -6.79595e-08)
(0 -0 -5.56073e-08)
(0 -0 -4.28632e-08)
(0 -0 -3.15858e-08)
(0 -0 -1.97246e-08)
(0 -0 -1.52331e-08)
(0 -0 -9.91856e-09)
(0 -0 -7.80442e-09)
(0 -0 2.4621e-09)
(0 -0 1.21619e-08)
(0 -0 2.11706e-08)
(0 -0 2.21415e-08)
(0 -0 3.21033e-08)
(0 -0 4.22875e-08)
(0 -0 5.15193e-08)
(0 -0 5.66785e-08)
(0 -0 5.56165e-08)
(0 -0 5.06391e-08)
(0 -0 5.70899e-08)
(0 -0 6.12531e-08)
(0 -0 6.73375e-08)
(0 -0 8.40864e-08)
(0 -0 8.91726e-08)
(0 -0 8.77892e-08)
(0 -0 8.95929e-08)
(0 -0 8.71537e-08)
(0 -0 8.73522e-08)
(0 -0 8.6805e-08)
(0 -0 9.43343e-08)
(0 -0 1.02609e-07)
(0 -0 1.1158e-07)
(0 -0 1.13297e-07)
(0 -0 1.14681e-07)
(0 -0 1.09077e-07)
(0 -0 1.03287e-07)
(0 -0 1.19964e-07)
(0 -0 1.27393e-07)
(0 -0 1.27922e-07)
(0 -0 1.47568e-07)
(0 -0 9.26256e-08)
(0 -0 1.98378e-07)
(0 -0 3.12641e-08)
(0 -0 3.62146e-07)
(0 -0 -7.12291e-07)
(0 -0 6.4736e-06)
(0 -0 -4.10396e-05)
(0 -0 0.000144467)
(0 -0 2.20837e-08)
(0 -0 -5.49334e-08)
(0 -0 -9.9885e-08)
(0 -0 -1.36817e-07)
(0 -0 -1.76691e-07)
(0 -0 -2.12986e-07)
(0 -0 -2.40249e-07)
(0 -0 -2.55801e-07)
(0 -0 -2.62122e-07)
(0 -0 -2.63673e-07)
(0 -0 -2.62797e-07)
(0 -0 -2.58378e-07)
(0 -0 -2.52287e-07)
(0 -0 -2.45655e-07)
(0 -0 -2.40382e-07)
(0 -0 -2.3185e-07)
(0 -0 -2.19848e-07)
(0 -0 -2.06503e-07)
(0 -0 -1.95048e-07)
(0 -0 -1.78112e-07)
(0 -0 -1.66412e-07)
(0 -0 -1.52799e-07)
(0 -0 -1.38771e-07)
(0 -0 -1.20761e-07)
(0 -0 -1.0549e-07)
(0 -0 -9.23212e-08)
(0 -0 -8.03463e-08)
(0 -0 -7.03544e-08)
(0 -0 -5.88252e-08)
(0 -0 -5.48959e-08)
(0 -0 -4.8849e-08)
(0 -0 -4.53738e-08)
(0 -0 -3.65044e-08)
(0 -0 -2.36347e-08)
(0 -0 -1.67795e-08)
(0 -0 -1.41164e-08)
(0 -0 -4.78589e-09)
(0 -0 3.79972e-09)
(0 -0 1.32285e-08)
(0 -0 1.57737e-08)
(0 -0 2.09209e-08)
(0 -0 1.22467e-08)
(0 -0 1.98536e-08)
(0 -0 2.40268e-08)
(0 -0 2.75512e-08)
(0 -0 4.16206e-08)
(0 -0 4.97377e-08)
(0 -0 4.77738e-08)
(0 -0 5.17144e-08)
(0 -0 4.74418e-08)
(0 -0 5.00181e-08)
(0 -0 5.18856e-08)
(0 -0 5.85168e-08)
(0 -0 6.63718e-08)
(0 -0 7.33238e-08)
(0 -0 7.5267e-08)
(0 -0 7.52625e-08)
(0 -0 7.27271e-08)
(0 -0 6.23394e-08)
(0 -0 8.59419e-08)
(0 -0 9.00572e-08)
(0 -0 9.40716e-08)
(0 -0 1.10409e-07)
(0 -0 5.97114e-08)
(0 -0 1.56396e-07)
(0 -0 7.96222e-09)
(0 -0 3.14035e-07)
(0 -0 -6.89333e-07)
(0 -0 5.99053e-06)
(0 -0 -3.81597e-05)
(0 -0 0.000135127)
(0 -0 -1.04943e-08)
(0 -0 -8.74157e-08)
(0 -0 -1.35082e-07)
(0 -0 -1.73228e-07)
(0 -0 -2.10699e-07)
(0 -0 -2.43609e-07)
(0 -0 -2.68061e-07)
(0 -0 -2.82243e-07)
(0 -0 -2.88313e-07)
(0 -0 -2.90055e-07)
(0 -0 -2.89244e-07)
(0 -0 -2.84991e-07)
(0 -0 -2.78828e-07)
(0 -0 -2.71418e-07)
(0 -0 -2.6589e-07)
(0 -0 -2.56412e-07)
(0 -0 -2.44033e-07)
(0 -0 -2.29341e-07)
(0 -0 -2.18729e-07)
(0 -0 -2.0153e-07)
(0 -0 -1.8944e-07)
(0 -0 -1.75119e-07)
(0 -0 -1.62059e-07)
(0 -0 -1.46697e-07)
(0 -0 -1.32926e-07)
(0 -0 -1.18507e-07)
(0 -0 -1.06651e-07)
(0 -0 -9.74992e-08)
(0 -0 -8.63047e-08)
(0 -0 -8.2439e-08)
(0 -0 -7.54539e-08)
(0 -0 -6.99918e-08)
(0 -0 -6.27351e-08)
(0 -0 -4.67852e-08)
(0 -0 -4.22762e-08)
(0 -0 -3.66423e-08)
(0 -0 -2.84409e-08)
(0 -0 -2.20326e-08)
(0 -0 -1.29578e-08)
(0 -0 -1.31255e-08)
(0 -0 -4.42068e-10)
(0 -0 -1.10455e-08)
(0 -0 -2.47939e-09)
(0 -0 1.46645e-09)
(0 -0 2.19982e-09)
(0 -0 1.12196e-08)
(0 -0 2.19433e-08)
(0 -0 2.01471e-08)
(0 -0 2.63805e-08)
(0 -0 2.12627e-08)
(0 -0 2.66425e-08)
(0 -0 3.11825e-08)
(0 -0 3.58602e-08)
(0 -0 4.23852e-08)
(0 -0 4.59396e-08)
(0 -0 4.82358e-08)
(0 -0 4.75644e-08)
(0 -0 4.94194e-08)
(0 -0 3.58708e-08)
(0 -0 6.34856e-08)
(0 -0 6.42818e-08)
(0 -0 7.00913e-08)
(0 -0 8.60025e-08)
(0 -0 3.85067e-08)
(0 -0 1.30102e-07)
(0 -0 -4.26087e-09)
(0 -0 2.74688e-07)
(0 -0 -6.53225e-07)
(0 -0 5.5604e-06)
(0 -0 -3.55464e-05)
(0 -0 0.000126564)
(0 -0 -4.4905e-08)
(0 -0 -1.21437e-07)
(0 -0 -1.76423e-07)
(0 -0 -2.16157e-07)
(0 -0 -2.49879e-07)
(0 -0 -2.77398e-07)
(0 -0 -2.97346e-07)
(0 -0 -3.09283e-07)
(0 -0 -3.14801e-07)
(0 -0 -3.16571e-07)
(0 -0 -3.15487e-07)
(0 -0 -3.11267e-07)
(0 -0 -3.04665e-07)
(0 -0 -2.95768e-07)
(0 -0 -2.88644e-07)
(0 -0 -2.77293e-07)
(0 -0 -2.64382e-07)
(0 -0 -2.4846e-07)
(0 -0 -2.38199e-07)
(0 -0 -2.21425e-07)
(0 -0 -2.08971e-07)
(0 -0 -1.94205e-07)
(0 -0 -1.82105e-07)
(0 -0 -1.70004e-07)
(0 -0 -1.57849e-07)
(0 -0 -1.42162e-07)
(0 -0 -1.29743e-07)
(0 -0 -1.20768e-07)
(0 -0 -1.09735e-07)
(0 -0 -1.05271e-07)
(0 -0 -9.73009e-08)
(0 -0 -8.95506e-08)
(0 -0 -8.36454e-08)
(0 -0 -6.58234e-08)
(0 -0 -6.29317e-08)
(0 -0 -5.36832e-08)
(0 -0 -4.6701e-08)
(0 -0 -4.26096e-08)
(0 -0 -3.45935e-08)
(0 -0 -3.65707e-08)
(0 -0 -1.74442e-08)
(0 -0 -2.70216e-08)
(0 -0 -1.81694e-08)
(0 -0 -1.44917e-08)
(0 -0 -1.60532e-08)
(0 -0 -1.34877e-08)
(0 -0 -1.71231e-09)
(0 -0 -2.51751e-09)
(0 -0 5.60825e-09)
(0 -0 9.83393e-10)
(0 -0 8.86888e-09)
(0 -0 1.54528e-08)
(0 -0 1.73732e-08)
(0 -0 2.20307e-08)
(0 -0 2.16383e-08)
(0 -0 2.4841e-08)
(0 -0 2.42757e-08)
(0 -0 3.08282e-08)
(0 -0 1.68649e-08)
(0 -0 4.37874e-08)
(0 -0 4.20946e-08)
(0 -0 4.69159e-08)
(0 -0 6.61075e-08)
(0 -0 2.19851e-08)
(0 -0 1.10658e-07)
(0 -0 -1.39139e-08)
(0 -0 2.36446e-07)
(0 -0 -6.14683e-07)
(0 -0 5.17324e-06)
(0 -0 -3.31846e-05)
(0 -0 0.000118717)
(0 -0 4.80863e-08)
(0 -0 7.01411e-09)
(0 -0 9.50857e-08)
(0 -0 -2.48168e-08)
(0 -0 1.97342e-07)
(0 -0 -5.76588e-07)
(0 -0 4.81968e-06)
(0 -0 -3.10536e-05)
(0 -0 0.000111532)
(0 -0 -1.60424e-05)
(0 -0 -1.60273e-05)
(0 -0 -1.6002e-05)
(0 -0 -1.59646e-05)
(0 -0 -1.59157e-05)
(0 -0 -1.58574e-05)
(0 -0 -1.579e-05)
(0 -0 -1.57154e-05)
(0 -0 -1.56358e-05)
(0 -0 -1.55505e-05)
(0 -0 -1.54596e-05)
(0 -0 -1.53636e-05)
(0 -0 -1.52631e-05)
(0 -0 -1.51573e-05)
(0 -0 -1.5045e-05)
(0 -0 -1.49268e-05)
(0 -0 -1.48052e-05)
(0 -0 -1.46823e-05)
(0 -0 -1.45586e-05)
(0 -0 -1.44328e-05)
(0 -0 -1.43037e-05)
(0 -0 -1.41718e-05)
(0 -0 -1.4038e-05)
(0 -0 -1.39024e-05)
(0 -0 -1.37659e-05)
(0 -0 -1.36281e-05)
(0 -0 -1.34908e-05)
(0 -0 -1.33517e-05)
(0 -0 -1.32097e-05)
(0 -0 -1.30696e-05)
(0 -0 -1.29323e-05)
(0 -0 -1.27944e-05)
(0 -0 -1.26539e-05)
(0 -0 -1.25112e-05)
(0 -0 -1.23692e-05)
(0 -0 -1.22333e-05)
(0 -0 -1.20984e-05)
(0 -0 -1.19617e-05)
(0 -0 -1.18274e-05)
(0 -0 -1.16968e-05)
(0 -0 -1.15688e-05)
(0 -0 -1.14411e-05)
(0 -0 -1.13121e-05)
(0 -0 -1.11859e-05)
(0 -0 -1.10645e-05)
(0 -0 -1.09504e-05)
(0 -0 -1.0838e-05)
(0 -0 -1.07248e-05)
(0 -0 -1.06159e-05)
(0 -0 -1.05143e-05)
(0 -0 -1.04199e-05)
(0 -0 -1.0328e-05)
(0 -0 -1.02396e-05)
(0 -0 -1.01587e-05)
(0 -0 -1.00897e-05)
(0 -0 -1.00313e-05)
(0 -0 -9.98478e-06)
(0 -0 -9.95157e-06)
(0 -0 -9.93464e-06)
(0 -0 -9.93486e-06)
(0 -0 -9.95838e-06)
(0 -0 -1.00058e-05)
(0 -0 -1.00918e-05)
(0 -0 -1.01965e-05)
(0 -0 -1.04229e-05)
(0 -0 -1.04335e-05)
(0 -0 -9.99364e-06)
(0 -0 -2.5933e-05)
(0 -0 6.6849e-05)
(0 -0 -0.000130835)