/*--------------------------------*- C++ -*----------------------------------*\
| =========                 |                                                 |
| \\      /  F ield         | OpenFOAM: The Open Source CFD Toolbox           |
|  \\    /   O peration     | Version:  2412                                  |
|   \\  /    A nd           | Website:  www.openfoam.com                      |
|    \\/     M anipulation  |                                                 |
\*---------------------------------------------------------------------------*/
FoamFile
{
    version     2.0;
    format      ascii;
    arch        "LSB;label=32;scalar=64";
    class       volScalarField;
    location    "6.5";
    object      p;
}
// * * * * * * * * * * * * * * * * * * * * * * * * * * * * * * * * * * * * * //

dimensions      [0 2 -2 0 0 0 0];

internalField   nonuniform List<scalar> 
5285
(
0.0011942
0.00119497
0.00119544
0.0011956
0.00119542
0.00119486
0.00119388
0.00119244
0.00119051
0.00118804
0.00118499
0.00118129
0.00117691
0.00117177
0.00116583
0.00115902
0.00117876
0.00117904
0.00117902
0.00117867
0.00117797
0.00117687
0.00117536
0.00117338
0.0011709
0.00116787
0.00116426
0.00116001
0.00115507
0.00114939
0.00114291
0.00113557
0.00116357
0.00116338
0.00116289
0.00116207
0.00116087
0.00115929
0.00115727
0.00115478
0.00115179
0.00114825
0.00114413
0.00113937
0.00113392
0.00112775
0.00112078
0.00111298
0.00114864
0.00114802
0.00114708
0.0011458
0.00114415
0.0011421
0.00113961
0.00113666
0.00113319
0.00112919
0.00112459
0.00111937
0.00111347
0.00110684
0.00109945
0.00109123
0.00113398
0.00113295
0.00113159
0.00112989
0.00112781
0.00112533
0.0011224
0.00111901
0.00111511
0.00111067
0.00110565
0.0011
0.00109369
0.00108666
0.00107889
0.0010703
0.0011196
0.00111818
0.00111643
0.00111433
0.00111185
0.00110896
0.00110564
0.00110184
0.00109754
0.00109271
0.00108729
0.00108126
0.00107458
0.0010672
0.00105908
0.00105018
0.0011055
0.00110372
0.0011016
0.00109913
0.00109628
0.00109302
0.00108932
0.00108515
0.00108049
0.00107529
0.00106952
0.00106314
0.00105613
0.00104843
0.00104002
0.00103084
0.0010917
0.00108957
0.00108711
0.00108429
0.00108109
0.00107749
0.00107344
0.00106893
0.00106393
0.0010584
0.00105232
0.00104563
0.00103832
0.00103035
0.00102168
0.00101226
0.00107819
0.00107574
0.00107296
0.00106982
0.0010663
0.00106237
0.00105801
0.00105319
0.00104788
0.00104205
0.00103568
0.00102872
0.00102115
0.00101293
0.00100403
0.000994416
0.00106498
0.00106223
0.00105915
0.00105571
0.00105189
0.00104766
0.00104301
0.00103791
0.00103232
0.00102622
0.00101959
0.00101239
0.00100459
0.000996161
0.000987071
0.000977287
0.00105207
0.00104904
0.00104567
0.00104195
0.00103786
0.00103336
0.00102845
0.00102308
0.00101724
0.00101091
0.00100404
0.000996628
0.000988629
0.000980019
0.000970768
0.000960847
0.00103946
0.00103617
0.00103254
0.00102856
0.00102422
0.00101947
0.00101431
0.00100871
0.00100265
0.000996094
0.000989028
0.000981422
0.00097325
0.000964486
0.000955102
0.000945071
0.00102715
0.00102361
0.00101974
0.00101553
0.00101095
0.00100598
0.0010006
0.000994783
0.000988516
0.000981772
0.000974526
0.000966756
0.000958437
0.000949543
0.000940052
0.000929937
0.00101513
0.00101137
0.00100728
0.00100285
0.000998055
0.000992877
0.000987296
0.000981291
0.000974843
0.000967929
0.000960527
0.000952615
0.000944171
0.000935172
0.000925596
0.000915419
0.00100342
0.000999445
0.000995152
0.00099052
0.000985529
0.000980162
0.000974401
0.000968225
0.000961616
0.000954553
0.000947016
0.000938984
0.000930436
0.000921353
0.000911712
0.000901495
0.000991993
0.00098783
0.000983349
0.000978533
0.000973365
0.000967828
0.000961904
0.000955576
0.000948825
0.000941632
0.000933979
0.000925846
0.000917215
0.000908066
0.000898381
0.000888141
0.000980862
0.000976522
0.000971868
0.000966885
0.000961556
0.000955865
0.000949797
0.000943334
0.000936458
0.000929154
0.000921402
0.000913186
0.000904489
0.000895293
0.00088558
0.000875334
0.00097002
0.000965517
0.000960705
0.000955569
0.000950095
0.000944267
0.00093807
0.000931488
0.000924505
0.000917105
0.000909272
0.000900989
0.000892242
0.000883014
0.000873289
0.000863053
0.000959463
0.000954811
0.000949854
0.000944581
0.000938976
0.000933025
0.000926714
0.000920028
0.000912952
0.000905472
0.000897573
0.000889239
0.000880457
0.000871211
0.000861489
0.000851275
0.000949187
0.000944397
0.00093931
0.000933912
0.00092819
0.00092213
0.000915719
0.000908944
0.00090179
0.000894244
0.000886292
0.000877921
0.000869117
0.000859867
0.000850159
0.00083998
0.00103974
0.00104477
0.00104074
0.00104365
0.00104445
0.00104551
0.0010472
0.00104888
0.00105078
0.00103764
0.00104268
0.00103863
0.00104151
0.00104228
0.00104331
0.00104495
0.00104657
0.00104839
0.00105043
0.00105262
0.00105498
0.0010575
0.00106017
0.00106299
0.00106593
0.001069
0.00107219
0.00107549
0.00107889
0.00108239
0.00108597
0.00108963
0.00109336
0.00109715
0.00110099
0.00110488
0.0011088
0.00111276
0.00111673
0.00112071
0.00112469
0.00112866
0.00113261
0.00113653
0.00114041
0.00114425
0.00114803
0.00115173
0.00115536
0.0011589
0.00116234
0.00116566
0.00116887
0.00117194
0.00117487
0.00117765
0.00118027
0.00118271
0.00118497
0.00118704
0.00118891
0.00119056
0.001192
0.0011932
0.00103551
0.00104054
0.00103649
0.00103935
0.00104008
0.00104106
0.00104265
0.00104421
0.00104597
0.00104793
0.00105004
0.0010523
0.00105472
0.00105729
0.00105998
0.0010628
0.00106574
0.00106879
0.00107194
0.00107518
0.00107851
0.00108191
0.00108538
0.00108892
0.0010925
0.00109614
0.0010998
0.00110349
0.0011072
0.00111092
0.00111464
0.00111835
0.00112204
0.0011257
0.00112933
0.0011329
0.00113642
0.00113987
0.00114324
0.00114652
0.0011497
0.00115277
0.00115572
0.00115854
0.00116123
0.00116376
0.00116613
0.00116833
0.00117036
0.00117219
0.00117383
0.00117526
0.00117647
0.00117747
0.00117822
0.00103334
0.00103837
0.00103431
0.00103714
0.00103784
0.00103878
0.00104032
0.00104182
0.00104351
0.00104539
0.00104741
0.00104959
0.0010519
0.00105436
0.00105694
0.00105963
0.00106244
0.00106534
0.00106834
0.00107142
0.00107458
0.00107781
0.0010811
0.00108444
0.00108782
0.00109124
0.00109469
0.00109815
0.00110162
0.00110509
0.00110855
0.00111199
0.00111541
0.00111878
0.00112211
0.00112538
0.00112858
0.00113171
0.00113474
0.00113768
0.00114052
0.00114323
0.00114582
0.00114827
0.00115057
0.00115272
0.0011547
0.0011565
0.00115812
0.00115955
0.00116077
0.00116178
0.00116257
0.00116314
0.00116347
0.00103114
0.00103617
0.00103209
0.0010349
0.00103557
0.00103647
0.00103796
0.0010394
0.00104101
0.00104281
0.00104475
0.00104683
0.00104905
0.00105139
0.00105385
0.00105642
0.00105909
0.00106186
0.0010647
0.00106763
0.00107062
0.00107367
0.00107678
0.00107992
0.00108311
0.00108631
0.00108954
0.00109277
0.00109601
0.00109923
0.00110244
0.00110561
0.00110875
0.00111185
0.00111488
0.00111786
0.00112075
0.00112356
0.00112627
0.00112888
0.00113137
0.00113374
0.00113597
0.00113806
0.00113999
0.00114177
0.00114337
0.00114478
0.00114601
0.00114705
0.00114787
0.00114848
0.00114887
0.00114903
0.00114896
0.0010289
0.00103393
0.00102984
0.00103263
0.00103327
0.00103412
0.00103556
0.00103694
0.00103848
0.0010402
0.00104205
0.00104404
0.00104616
0.00104839
0.00105073
0.00105318
0.00105571
0.00105833
0.00106103
0.0010638
0.00106662
0.0010695
0.00107242
0.00107538
0.00107836
0.00108136
0.00108436
0.00108737
0.00109037
0.00109335
0.0010963
0.00109922
0.00110209
0.00110491
0.00110766
0.00111034
0.00111293
0.00111543
0.00111782
0.00112011
0.00112227
0.0011243
0.00112618
0.00112792
0.0011295
0.00113091
0.00113214
0.00113319
0.00113405
0.0011347
0.00113514
0.00113537
0.00113538
0.00113516
0.0011347
0.00102662
0.00103166
0.00102756
0.00103032
0.00103093
0.00103174
0.00103313
0.00103444
0.00103592
0.00103756
0.00103933
0.00104122
0.00104323
0.00104535
0.00104758
0.0010499
0.0010523
0.00105478
0.00105733
0.00105994
0.0010626
0.0010653
0.00106804
0.0010708
0.00107358
0.00107637
0.00107917
0.00108195
0.00108472
0.00108746
0.00109016
0.00109282
0.00109543
0.00109797
0.00110044
0.00110283
0.00110513
0.00110732
0.00110941
0.00111138
0.00111321
0.00111491
0.00111647
0.00111786
0.0011191
0.00112016
0.00112104
0.00112173
0.00112223
0.00112252
0.0011226
0.00112246
0.0011221
0.00112152
0.00112069
0.00102432
0.00102935
0.00102525
0.00102798
0.00102856
0.00102934
0.00103067
0.00103192
0.00103333
0.00103489
0.00103657
0.00103836
0.00104027
0.00104229
0.0010444
0.00104659
0.00104886
0.0010512
0.0010536
0.00105605
0.00105854
0.00106107
0.00106363
0.0010662
0.00106878
0.00107137
0.00107395
0.00107651
0.00107905
0.00108155
0.00108401
0.00108642
0.00108876
0.00109104
0.00109324
0.00109534
0.00109735
0.00109925
0.00110104
0.00110269
0.00110422
0.0011056
0.00110683
0.0011079
0.0011088
0.00110952
0.00111006
0.00111041
0.00111056
0.00111051
0.00111024
0.00110976
0.00110905
0.00110812
0.00110695
0.00102198
0.00102702
0.00102291
0.00102562
0.00102616
0.0010269
0.00102818
0.00102937
0.0010307
0.00103219
0.00103378
0.00103548
0.00103729
0.00103919
0.00104118
0.00104325
0.00104539
0.00104759
0.00104984
0.00105213
0.00105446
0.00105682
0.00105919
0.00106158
0.00106397
0.00106635
0.00106872
0.00107106
0.00107337
0.00107564
0.00107786
0.00108002
0.00108211
0.00108412
0.00108605
0.00108788
0.00108961
0.00109122
0.00109271
0.00109407
0.00109529
0.00109636
0.00109728
0.00109803
0.00109861
0.00109901
0.00109923
0.00109925
0.00109907
0.00109868
0.00109809
0.00109727
0.00109624
0.00109498
0.00109348
0.00101962
0.00102466
0.00102054
0.00102323
0.00102374
0.00102443
0.00102566
0.00102679
0.00102805
0.00102945
0.00103096
0.00103257
0.00103428
0.00103607
0.00103795
0.00103989
0.00104189
0.00104395
0.00104605
0.00104819
0.00105036
0.00105254
0.00105474
0.00105694
0.00105914
0.00106132
0.00106348
0.00106561
0.00106769
0.00106973
0.00107172
0.00107363
0.00107547
0.00107723
0.00107889
0.00108045
0.0010819
0.00108324
0.00108444
0.00108551
0.00108643
0.00108721
0.00108782
0.00108827
0.00108854
0.00108863
0.00108853
0.00108824
0.00108774
0.00108704
0.00108613
0.00108501
0.00108366
0.00108209
0.00108029
0.00101723
0.00102227
0.00101815
0.00102081
0.00102129
0.00102194
0.00102311
0.00102418
0.00102537
0.0010267
0.00102812
0.00102963
0.00103124
0.00103293
0.00103468
0.0010365
0.00103837
0.00104029
0.00104225
0.00104423
0.00104624
0.00104825
0.00105028
0.00105229
0.0010543
0.00105628
0.00105823
0.00106015
0.00106202
0.00106383
0.00106558
0.00106726
0.00106885
0.00107036
0.00107176
0.00107306
0.00107424
0.0010753
0.00107623
0.00107702
0.00107766
0.00107814
0.00107846
0.00107861
0.00107859
0.00107838
0.00107798
0.00107739
0.0010766
0.0010756
0.00107439
0.00107296
0.00107132
0.00106946
0.00106737
0.00101482
0.00101986
0.00101574
0.00101837
0.00101882
0.00101943
0.00102054
0.00102155
0.00102267
0.00102392
0.00102525
0.00102667
0.00102818
0.00102976
0.0010314
0.00103309
0.00103484
0.00103662
0.00103843
0.00104026
0.0010421
0.00104395
0.0010458
0.00104763
0.00104945
0.00105124
0.00105299
0.00105469
0.00105635
0.00105794
0.00105946
0.0010609
0.00106226
0.00106351
0.00106467
0.00106571
0.00106664
0.00106743
0.00106809
0.0010686
0.00106897
0.00106917
0.00106921
0.00106908
0.00106877
0.00106827
0.00106759
0.00106671
0.00106563
0.00106435
0.00106285
0.00106115
0.00105923
0.00105709
0.00105473
0.00101238
0.00101743
0.0010133
0.0010159
0.00101633
0.00101689
0.00101795
0.00101889
0.00101994
0.00102111
0.00102236
0.00102369
0.0010251
0.00102657
0.00102809
0.00102967
0.00103128
0.00103292
0.00103459
0.00103627
0.00103795
0.00103964
0.00104131
0.00104297
0.0010446
0.00104619
0.00104774
0.00104924
0.00105068
0.00105206
0.00105336
0.00105457
0.00105569
0.00105671
0.00105762
0.00105841
0.00105908
0.00105962
0.00106002
0.00106027
0.00106037
0.0010603
0.00106007
0.00105967
0.00105908
0.00105832
0.00105736
0.00105621
0.00105485
0.0010533
0.00105154
0.00104957
0.00104739
0.00104499
0.00104238
0.00100992
0.00101497
0.00101085
0.00101342
0.00101381
0.00101433
0.00101534
0.00101621
0.00101719
0.00101829
0.00101945
0.00102069
0.00102199
0.00102336
0.00102477
0.00102622
0.00102771
0.00102921
0.00103074
0.00103227
0.00103379
0.00103531
0.00103682
0.0010383
0.00103974
0.00104115
0.0010425
0.0010438
0.00104504
0.0010462
0.00104728
0.00104827
0.00104916
0.00104994
0.00105062
0.00105117
0.00105159
0.00105188
0.00105203
0.00105202
0.00105186
0.00105154
0.00105105
0.00105038
0.00104954
0.00104851
0.00104729
0.00104588
0.00104427
0.00104246
0.00104044
0.00103822
0.00103579
0.00103315
0.0010303
0.00100745
0.0010125
0.00100838
0.00101091
0.00101128
0.00101175
0.0010127
0.00101352
0.00101442
0.00101544
0.00101652
0.00101767
0.00101888
0.00102014
0.00102143
0.00102277
0.00102412
0.00102549
0.00102687
0.00102826
0.00102963
0.00103099
0.00103232
0.00103363
0.00103489
0.00103611
0.00103728
0.00103838
0.00103941
0.00104036
0.00104122
0.00104199
0.00104266
0.00104322
0.00104366
0.00104398
0.00104417
0.00104421
0.00104411
0.00104386
0.00104346
0.00104289
0.00104214
0.00104123
0.00104013
0.00103885
0.00103739
0.00103573
0.00103387
0.00103182
0.00102957
0.00102711
0.00102445
0.00102158
0.00101851
0.00100496
0.00101001
0.0010059
0.00100839
0.00100873
0.00100916
0.00101005
0.0010108
0.00101164
0.00101257
0.00101357
0.00101463
0.00101574
0.0010169
0.00101808
0.0010193
0.00102053
0.00102176
0.00102301
0.00102424
0.00102546
0.00102666
0.00102783
0.00102896
0.00103005
0.00103109
0.00103206
0.00103297
0.0010338
0.00103455
0.0010352
0.00103576
0.00103621
0.00103655
0.00103676
0.00103685
0.00103681
0.00103662
0.00103629
0.0010358
0.00103516
0.00103435
0.00103336
0.00103221
0.00103088
0.00102936
0.00102765
0.00102576
0.00102367
0.00102139
0.00101891
0.00101624
0.00101336
0.00101028
0.001007
0.00100245
0.0010075
0.00100341
0.00100585
0.00100617
0.00100654
0.00100737
0.00100806
0.00100883
0.00100969
0.00101061
0.00101158
0.0010126
0.00101365
0.00101472
0.00101582
0.00101692
0.00101803
0.00101913
0.00102022
0.00102129
0.00102233
0.00102334
0.0010243
0.00102522
0.00102607
0.00102686
0.00102758
0.00102821
0.00102876
0.00102922
0.00102956
0.0010298
0.00102993
0.00102993
0.00102979
0.00102953
0.00102911
0.00102855
0.00102784
0.00102696
0.00102592
0.00102471
0.00102333
0.00102177
0.00102002
0.00101809
0.00101598
0.00101367
0.00101117
0.00100848
0.0010056
0.00100252
0.000999243
0.000995774
0.000999935
0.00100498
0.0010009
0.0010033
0.00100359
0.00100391
0.00100468
0.0010053
0.00100601
0.0010068
0.00100763
0.00100852
0.00100944
0.00101039
0.00101135
0.00101233
0.00101331
0.00101429
0.00101525
0.0010162
0.00101712
0.00101801
0.00101885
0.00101965
0.0010204
0.00102107
0.00102168
0.00102221
0.00102266
0.00102301
0.00102327
0.00102341
0.00102345
0.00102336
0.00102315
0.0010228
0.00102232
0.00102169
0.00102091
0.00101998
0.00101888
0.00101762
0.00101619
0.00101459
0.00101281
0.00101085
0.00100871
0.00100638
0.00100387
0.00100117
0.000998278
0.000995198
0.000991928
0.000988469
0.000984821
0.000997412
0.00100245
0.000998397
0.00100074
0.001001
0.00100126
0.00100197
0.00100253
0.00100317
0.00100389
0.00100464
0.00100544
0.00100627
0.00100712
0.00100797
0.00100884
0.0010097
0.00101054
0.00101138
0.00101218
0.00101296
0.00101369
0.00101438
0.00101501
0.00101559
0.0010161
0.00101653
0.00101688
0.00101714
0.0010173
0.00101736
0.00101731
0.00101714
0.00101685
0.00101644
0.00101589
0.00101519
0.00101435
0.00101336
0.00101222
0.00101091
0.00100944
0.0010078
0.00100599
0.00100401
0.00100184
0.000999499
0.000996974
0.000994265
0.000991373
0.000988295
0.000985033
0.000981586
0.000977956
0.000974142
0.000994884
0.00099992
0.000995884
0.000998162
0.000998398
0.000998602
0.000999241
0.000999744
0.00100032
0.00100096
0.00100165
0.00100236
0.00100309
0.00100384
0.00100459
0.00100534
0.00100608
0.0010068
0.0010075
0.00100817
0.0010088
0.00100938
0.00100992
0.00101039
0.0010108
0.00101114
0.0010114
0.00101157
0.00101165
0.00101162
0.0010115
0.00101126
0.0010109
0.00101041
0.00100979
0.00100904
0.00100815
0.00100711
0.00100592
0.00100457
0.00100306
0.00100139
0.000999549
0.00099754
0.000995357
0.000993
0.000990465
0.000987752
0.00098486
0.000981787
0.000978535
0.000975103
0.000971491
0.000967702
0.000963736
0.000992346
0.000997394
0.000993358
0.000995578
0.000995788
0.000995928
0.000996501
0.000996944
0.000997451
0.000998032
0.000998638
0.000999268
0.000999912
0.00100056
0.00100121
0.00100184
0.00100246
0.00100306
0.00100363
0.00100416
0.00100465
0.00100508
0.00100547
0.00100579
0.00100603
0.00100621
0.00100629
0.00100629
0.00100619
0.00100599
0.00100568
0.00100525
0.00100471
0.00100403
0.00100322
0.00100228
0.00100119
0.000999957
0.00099857
0.000997028
0.000995327
0.000993462
0.000991432
0.000989234
0.000986865
0.000984324
0.000981608
0.000978718
0.000975653
0.000972412
0.000968996
0.000965405
0.000961641
0.000957704
0.000953598
0.000989847
0.000994939
0.000990868
0.000993039
0.000993224
0.000993295
0.000993805
0.000994191
0.000994638
0.000995153
0.000995687
0.000996237
0.000996793
0.000997346
0.000997889
0.000998417
0.000998922
0.000999398
0.00099984
0.00100024
0.00100059
0.00100089
0.00100112
0.00100129
0.00100139
0.0010014
0.00100133
0.00100116
0.00100089
0.00100052
0.00100003
0.00099943
0.000998703
0.000997849
0.00099686
0.000995733
0.000994463
0.000993046
0.000991476
0.000989752
0.000987869
0.000985825
0.000983617
0.000981243
0.000978701
0.000975989
0.000973107
0.000970054
0.00096683
0.000963434
0.000959868
0.000956133
0.00095223
0.00094816
0.000943927
0.000987389
0.000992491
0.000988436
0.000990503
0.000990689
0.000990686
0.000991128
0.000991461
0.000991848
0.000992299
0.000992764
0.000993235
0.000993706
0.000994166
0.00099461
0.000995031
0.000995425
0.000995784
0.000996102
0.000996374
0.000996594
0.000996754
0.000996848
0.000996871
0.000996815
0.000996675
0.000996445
0.000996118
0.000995688
0.000995149
0.000994497
0.000993725
0.000992828
0.000991801
0.000990639
0.000989338
0.000987894
0.000986302
0.00098456
0.000982663
0.000980609
0.000978395
0.000976019
0.000973479
0.000970774
0.000967903
0.000964865
0.00096166
0.000958288
0.000954749
0.000951045
0.000947177
0.000943146
0.000938955
0.000934606
0.000984882
0.000989994
0.00098597
0.000987896
0.000988104
0.000988018
0.000988389
0.000988671
0.000988997
0.000989385
0.00098978
0.000990172
0.000990556
0.000990923
0.000991267
0.000991582
0.000991863
0.000992104
0.0009923
0.000992444
0.00099253
0.000992553
0.000992506
0.000992384
0.000992179
0.000991887
0.0009915
0.000991014
0.000990423
0.000989721
0.000988903
0.000987963
0.000986898
0.000985701
0.000984369
0.000982897
0.000981282
0.00097952
0.000977608
0.000975542
0.000973321
0.000970942
0.000968404
0.000965704
0.000962842
0.000959817
0.000956629
0.000953278
0.000949764
0.000946089
0.000942254
0.000938259
0.000934108
0.000929803
0.000925346
0.000982322
0.00098746
0.000983455
0.000985224
0.000985465
0.000985292
0.00098559
0.000985823
0.000986088
0.000986411
0.000986735
0.000987049
0.000987346
0.000987618
0.000987861
0.000988069
0.000988238
0.000988361
0.000988433
0.000988449
0.000988403
0.000988289
0.000988101
0.000987833
0.00098748
0.000987036
0.000986495
0.000985851
0.0009851
0.000984236
0.000983254
0.00098215
0.000980917
0.000979554
0.000978054
0.000976415
0.000974632
0.000972704
0.000970626
0.000968396
0.000966013
0.000963473
0.000960777
0.000957922
0.000954909
0.000951736
0.000948404
0.000944914
0.000941266
0.000937461
0.000933501
0.000929387
0.000925124
0.000920711
0.000916154
0.00097971
0.000984887
0.000980892
0.000982487
0.000982772
0.000982511
0.000982735
0.000982918
0.000983122
0.000983378
0.000983631
0.000983865
0.000984074
0.000984252
0.000984394
0.000984495
0.00098455
0.000984555
0.000984503
0.000984391
0.000984212
0.000983962
0.000983633
0.000983221
0.00098272
0.000982125
0.00098143
0.000980631
0.000979722
0.000978697
0.000977554
0.000976286
0.00097489
0.000973362
0.000971698
0.000969895
0.000967949
0.000965857
0.000963618
0.000961229
0.000958688
0.000955993
0.000953145
0.000950141
0.000946982
0.000943667
0.000940198
0.000936574
0.000932798
0.00092887
0.000924793
0.000920568
0.000916198
0.000911687
0.000907036
0.000977046
0.000982271
0.000978281
0.000979685
0.000980025
0.000979677
0.000979824
0.000979959
0.0009801
0.000980289
0.00098047
0.000980622
0.000980743
0.000980826
0.000980865
0.000980858
0.0009808
0.000980687
0.000980512
0.000980272
0.000979961
0.000979573
0.000979105
0.000978549
0.000977902
0.000977157
0.00097631
0.000975356
0.00097429
0.000973108
0.000971805
0.000970377
0.000968821
0.000967131
0.000965306
0.000963342
0.000961236
0.000958986
0.00095659
0.000954046
0.000951352
0.000948508
0.000945512
0.000942365
0.000939066
0.000935616
0.000932015
0.000928266
0.000924368
0.000920324
0.000916136
0.000911807
0.000907339
0.000902735
0.000897999
0.00097433
0.000979608
0.000975625
0.00097682
0.000977222
0.000976794
0.00097686
0.000976949
0.000977026
0.000977145
0.000977251
0.000977322
0.000977353
0.00097734
0.000977277
0.000977162
0.000976991
0.000976758
0.00097646
0.000976092
0.000975649
0.000975126
0.000974518
0.00097382
0.000973027
0.000972134
0.000971137
0.00097003
0.00096881
0.000967472
0.000966012
0.000964427
0.000962712
0.000960865
0.000958882
0.000956761
0.0009545
0.000952096
0.000949547
0.000946853
0.000944012
0.000941023
0.000937886
0.000934601
0.000931168
0.000927589
0.000923864
0.000919994
0.000915981
0.000911828
0.000907537
0.000903111
0.000898551
0.000893863
0.000889049
0.000971561
0.000976896
0.000972925
0.000973893
0.000974364
0.000973864
0.000973846
0.000973887
0.0009739
0.000973946
0.000973977
0.000973965
0.000973905
0.000973795
0.00097363
0.000973407
0.000973122
0.000972771
0.00097235
0.000971855
0.000971281
0.000970623
0.000969876
0.000969036
0.000968099
0.000967059
0.000965913
0.000964656
0.000963283
0.000961792
0.000960178
0.000958438
0.000956569
0.000954567
0.000952431
0.000950157
0.000947745
0.000945191
0.000942495
0.000939655
0.000936672
0.000933544
0.000930271
0.000926855
0.000923295
0.000919592
0.000915749
0.000911766
0.000907646
0.00090339
0.000899003
0.000894486
0.000889843
0.000885077
0.000880192
0.00096874
0.000974134
0.000970179
0.000970907
0.000971452
0.000970888
0.000970784
0.000970778
0.000970725
0.000970696
0.000970649
0.000970552
0.000970402
0.000970194
0.000969926
0.000969595
0.000969196
0.000968727
0.000968184
0.000967562
0.000966857
0.000966064
0.000965181
0.000964201
0.000963121
0.000961936
0.000960643
0.000959237
0.000957715
0.000956073
0.000954308
0.000952416
0.000950396
0.000948243
0.000945957
0.000943535
0.000940975
0.000938277
0.000935438
0.000932459
0.000929338
0.000926077
0.000922675
0.000919132
0.000915451
0.000911632
0.000907677
0.000903588
0.000899366
0.000895016
0.000890539
0.000885939
0.000881219
0.000876383
0.000871434
0.000965865
0.00097132
0.000967391
0.000967863
0.000968485
0.00096787
0.000967676
0.00096762
0.000967502
0.000967395
0.000967268
0.000967086
0.000966843
0.000966538
0.000966167
0.000965727
0.000965215
0.000964628
0.000963962
0.000963214
0.00096238
0.000961455
0.000960435
0.000959316
0.000958095
0.000956767
0.000955329
0.000953777
0.000952108
0.000950318
0.000948405
0.000946365
0.000944197
0.000941898
0.000939466
0.0009369
0.000934198
0.000931359
0.000928383
0.000925269
0.000922017
0.000918628
0.000915102
0.00091144
0.000907644
0.000903715
0.000899654
0.000895465
0.00089115
0.000886711
0.000882152
0.000877476
0.000872686
0.000867787
0.000862782
0.000962935
0.000968454
0.00096456
0.000964764
0.000965464
0.000964809
0.000964522
0.000964416
0.000964232
0.000964044
0.000963836
0.000963567
0.000963231
0.000962828
0.000962354
0.000961805
0.00096118
0.000960476
0.000959689
0.000958816
0.000957853
0.000956796
0.000955641
0.000954386
0.000953025
0.000951556
0.000949976
0.00094828
0.000946466
0.000944532
0.000942474
0.00094029
0.000937978
0.000935536
0.000932963
0.000930257
0.000927417
0.000924443
0.000921335
0.000918092
0.000914714
0.000911203
0.00090756
0.000903785
0.00089988
0.000895847
0.000891688
0.000887406
0.000883003
0.000878483
0.000873848
0.000869103
0.00086425
0.000859294
0.00085424
0.00095995
0.000965535
0.000961689
0.000961613
0.000962389
0.000961708
0.000961323
0.000961165
0.000960916
0.000960646
0.000960354
0.000959997
0.000959568
0.000959067
0.000958489
0.000957832
0.000957095
0.000956274
0.000955366
0.000954369
0.000953278
0.000952091
0.000950803
0.000949412
0.000947915
0.000946307
0.000944587
0.00094275
0.000940795
0.000938719
0.00093652
0.000934195
0.000931743
0.000929163
0.000926452
0.000923612
0.000920639
0.000917535
0.0009143
0.000910933
0.000907436
0.000903809
0.000900054
0.000896171
0.000892164
0.000888034
0.000883783
0.000879415
0.000874931
0.000870336
0.000865633
0.000860825
0.000855917
0.000850911
0.000845813
0.00095691
0.000962562
0.000958776
0.000958412
0.00095926
0.000958566
0.000958082
0.000957868
0.000957554
0.000957201
0.000956824
0.000956379
0.000955856
0.000955255
0.000954574
0.00095381
0.000952961
0.000952024
0.000950996
0.000949876
0.000948659
0.000947343
0.000945924
0.0009444
0.000942768
0.000941024
0.000939166
0.000937192
0.000935099
0.000932885
0.000930547
0.000928086
0.000925498
0.000922783
0.000919941
0.00091697
0.00091387
0.000910641
0.000907284
0.0009038
0.000900188
0.000896451
0.00089259
0.000888607
0.000884504
0.000880283
0.000875947
0.000871498
0.000866941
0.000862278
0.000857513
0.000852649
0.000847691
0.000842643
0.000837509
0.000953815
0.000959536
0.000955824
0.000955165
0.000956077
0.000955384
0.000954797
0.000954525
0.000954149
0.000953711
0.000953247
0.000952713
0.000952096
0.000951397
0.000950613
0.000949741
0.00094878
0.000947728
0.000946582
0.00094534
0.000943999
0.000942556
0.000941008
0.000939353
0.000937588
0.000935711
0.000933718
0.000931609
0.000929381
0.000927033
0.000924562
0.000921967
0.000919248
0.000916403
0.000913433
0.000910337
0.000907114
0.000903766
0.000900293
0.000896696
0.000892977
0.000889136
0.000885175
0.000881097
0.000876904
0.000872599
0.000868184
0.000863663
0.000859038
0.000854313
0.000849493
0.00084458
0.000839579
0.000834495
0.00082933
0.000950664
0.000956458
0.000952833
0.000951872
0.000952841
0.000952162
0.000951471
0.000951137
0.000950699
0.000950178
0.000949625
0.000949003
0.000948292
0.000947493
0.000946606
0.000945628
0.000944557
0.000943391
0.000942128
0.000940765
0.000939301
0.000937733
0.000936058
0.000934275
0.00093238
0.000930371
0.000928248
0.000926007
0.000923648
0.000921168
0.000918567
0.000915844
0.000912998
0.000910028
0.000906935
0.000903719
0.000900379
0.000896917
0.000893334
0.00088963
0.000885808
0.000881869
0.000877815
0.000873649
0.000869372
0.000864989
0.000860502
0.000855913
0.000851228
0.000846448
0.000841579
0.000836623
0.000831586
0.000826471
0.000821283
0.000947459
0.000953329
0.000949805
0.000948538
0.000949552
0.0009489
0.000948104
0.000947704
0.000947208
0.000946602
0.000945961
0.000945249
0.000944444
0.000943547
0.000942558
0.000941474
0.000940293
0.000939015
0.000937636
0.000936155
0.00093457
0.000932879
0.000931079
0.000929169
0.000927147
0.000925011
0.000922759
0.000920391
0.000917903
0.000915297
0.00091257
0.000909723
0.000906754
0.000903664
0.000900453
0.000897121
0.000893669
0.000890099
0.000886411
0.000882606
0.000878688
0.000874657
0.000870516
0.000866267
0.000861914
0.000857459
0.000852905
0.000848257
0.000843516
0.000838688
0.000833776
0.000828784
0.000823716
0.000818577
0.00081337
0.000944201
0.000950149
0.000946739
0.000945163
0.000946211
0.0009456
0.000944698
0.000944228
0.000943674
0.000942987
0.000942256
0.000941455
0.000940557
0.000939562
0.000938471
0.000937282
0.000935993
0.000934603
0.00093311
0.000931512
0.000929808
0.000927996
0.000926074
0.000924041
0.000921895
0.000919634
0.000917258
0.000914764
0.000912153
0.000909424
0.000906575
0.000903608
0.000900521
0.000897316
0.000893992
0.00089055
0.000886992
0.000883318
0.000879531
0.000875632
0.000871622
0.000867505
0.000863283
0.000858958
0.000854534
0.000850014
0.0008454
0.000840697
0.000835909
0.000831038
0.000826089
0.000821067
0.000815974
0.000810817
0.000805598
0.000940892
0.000946922
0.000943637
0.000941751
0.00094282
0.000942261
0.000941255
0.00094071
0.000940101
0.000939333
0.000938513
0.000937623
0.000936632
0.00093554
0.000934348
0.000933056
0.00093166
0.00093016
0.000928554
0.000926842
0.000925021
0.000923091
0.000921049
0.000918895
0.000916628
0.000914245
0.000911748
0.000909134
0.000906402
0.000903554
0.000900589
0.000897506
0.000894306
0.00089099
0.000887558
0.000884012
0.000880352
0.000876581
0.0008727
0.000868712
0.000864618
0.000860421
0.000856123
0.000851729
0.00084724
0.00084266
0.000837993
0.000833242
0.00082841
0.000823503
0.000818524
0.000813477
0.000808366
0.000803195
0.000797969
0.000937535
0.000943648
0.0009405
0.000938304
0.000939379
0.000938885
0.000937778
0.000937152
0.00093649
0.000935644
0.000934734
0.000933755
0.000932672
0.000931484
0.000930193
0.000928798
0.000927297
0.000925688
0.000923972
0.000922147
0.000920212
0.000918166
0.000916008
0.000913736
0.00091135
0.00090885
0.000906235
0.000903504
0.000900657
0.000897694
0.000894616
0.000891422
0.000888114
0.000884692
0.000881158
0.000877512
0.000873757
0.000869894
0.000865925
0.000861853
0.00085768
0.000853409
0.000849042
0.000844584
0.000840036
0.000835403
0.000830688
0.000825894
0.000821027
0.000816089
0.000811084
0.000806018
0.000800894
0.000795716
0.000790488
0.000934132
0.000940331
0.00093733
0.000934824
0.000935892
0.000935473
0.000934268
0.000933556
0.000932843
0.000931921
0.000930923
0.000929855
0.000928682
0.000927399
0.00092601
0.000924513
0.000922908
0.000921194
0.000919369
0.000917434
0.000915387
0.000913227
0.000910955
0.000908569
0.000906069
0.000903454
0.000900725
0.000897881
0.000894922
0.000891849
0.000888662
0.000885363
0.000881951
0.000878428
0.000874797
0.000871057
0.000867211
0.000863262
0.000859211
0.000855061
0.000850815
0.000846476
0.000842046
0.000837529
0.000832928
0.000828248
0.000823491
0.000818661
0.000813762
0.000808799
0.000803775
0.000798695
0.000793563
0.000788382
0.000783158
0.000930686
0.000936973
0.000934129
0.000931315
0.000932359
0.000932027
0.000930728
0.000929925
0.000929162
0.000928169
0.000927082
0.000925927
0.000924664
0.000923287
0.000921801
0.000920205
0.000918498
0.000916679
0.000914749
0.000912705
0.000910549