/*--------------------------------*- C++ -*----------------------------------*\
| =========                 |                                                 |
| \\      /  F ield         | OpenFOAM: The Open Source CFD Toolbox           |
|  \\    /   O peration     | Version:  2412                                  |
|   \\  /    A nd           | Website:  www.openfoam.com                      |
|    \\/     M anipulation  |                                                 |
\*---------------------------------------------------------------------------*/
FoamFile
{
    version     2.0;
    format      ascii;
    arch        "LSB;label=32;scalar=64";
    class       volScalarField;
    location    "19";
    object      p;
}
// * * * * * * * * * * * * * * * * * * * * * * * * * * * * * * * * * * * * * //

dimensions      [0 2 -2 0 0 0 0];

internalField   nonuniform List<scalar> 
5285
(
-0.000151792
-0.000143129
-0.000134811
-0.00012684
-0.000153243
-0.000144718
-0.000136516
-0.000128639
-0.000121086
-0.00011386
-0.000106953
-0.000100366
-9.40924e-05
-8.81272e-05
-8.24647e-05
-7.7098e-05
-7.20196e-05
-6.72214e-05
-6.26947e-05
-5.84304e-05
-5.4419e-05
-5.06508e-05
-4.71157e-05
-4.38036e-05
-4.07043e-05
-3.78077e-05
-3.51036e-05
-3.2582e-05
-3.02331e-05
-2.80471e-05
-2.60148e-05
-2.41268e-05
-2.23744e-05
-2.0749e-05
-1.92424e-05
-1.78466e-05
-1.65541e-05
-1.53577e-05
-1.42504e-05
-1.32259e-05
-1.22779e-05
-1.14008e-05
-1.05891e-05
-9.83771e-06
-9.14205e-06
-8.49773e-06
-7.90065e-06
-7.3472e-06
-0.000154302
-0.000145932
-0.000137862
-0.000130096
-0.000122634
-0.000115477
-0.000108626
-0.000102077
-9.58272e-05
-8.98727e-05
-8.42089e-05
-7.88299e-05
-7.37295e-05
-6.89005e-05
-6.43356e-05
-6.00265e-05
-5.59648e-05
-5.21418e-05
-4.85483e-05
-4.5175e-05
-4.20125e-05
-3.90513e-05
-3.62818e-05
-3.36947e-05
-3.12806e-05
-2.90302e-05
-2.69346e-05
-2.49848e-05
-2.31723e-05
-2.14888e-05
-1.99262e-05
-1.84768e-05
-1.7133e-05
-1.58878e-05
-1.47344e-05
-1.36663e-05
-1.26773e-05
-1.17617e-05
-1.09141e-05
-1.01293e-05
-9.4026e-06
-8.72958e-06
-8.10608e-06
-7.52829e-06
-0.00015498
-0.000146778
-0.000138855
-0.000131215
-0.000123861
-0.000116793
-0.000110012
-0.000103518
-9.73083e-05
-9.138e-05
-8.57298e-05
-8.0353e-05
-7.52446e-05
-7.03985e-05
-6.58083e-05
-6.14671e-05
-5.73671e-05
-5.35007e-05
-4.98596e-05
-4.64352e-05
-4.3219e-05
-4.02021e-05
-3.73757e-05
-3.47308e-05
-3.22586e-05
-2.99505e-05
-2.77976e-05
-2.57916e-05
-2.39242e-05
-2.21873e-05
-2.0573e-05
-1.90738e-05
-1.76824e-05
-1.63916e-05
-1.51949e-05
-1.40857e-05
-1.30581e-05
-1.21061e-05
-1.12244e-05
-1.04079e-05
-9.65163e-06
-8.95124e-06
-8.30247e-06
-7.70137e-06
-0.000155291
-0.00014727
-0.000139508
-0.000132009
-0.000124776
-0.000117811
-0.000111117
-0.000104693
-9.85375e-05
-9.265e-05
-8.70277e-05
-8.16672e-05
-7.65644e-05
-7.17144e-05
-6.71119e-05
-6.27506e-05
-5.86242e-05
-5.47256e-05
-5.10474e-05
-4.75821e-05
-4.43216e-05
-4.12579e-05
-3.83828e-05
-3.56879e-05
-3.31649e-05
-3.08057e-05
-2.86018e-05
-2.65453e-05
-2.46282e-05
-2.28426e-05
-2.1181e-05
-1.96361e-05
-1.82005e-05
-1.68675e-05
-1.56305e-05
-1.4483e-05
-1.3419e-05
-1.24329e-05
-1.15191e-05
-1.06725e-05
-9.88829e-06
-9.16192e-06
-8.48911e-06
-7.86584e-06
-0.000155258
-0.00014743
-0.000139839
-0.000132492
-0.000125392
-0.000118544
-0.000111948
-0.000105607
-9.95201e-05
-9.36869e-05
-8.81059e-05
-8.27748e-05
-7.76906e-05
-7.28493e-05
-6.82464e-05
-6.3877e-05
-5.97354e-05
-5.58154e-05
-5.21106e-05
-4.86141e-05
-4.53187e-05
-4.22169e-05
-3.93013e-05
-3.65641e-05
-3.39975e-05
-3.15938e-05
-2.93452e-05
-2.72439e-05
-2.52823e-05
-2.3453e-05
-2.17485e-05
-2.01618e-05
-1.86859e-05
-1.73141e-05
-1.60398e-05
-1.48567e-05
-1.3759e-05
-1.2741e-05
-1.17971e-05
-1.09223e-05
-1.01117e-05
-9.36084e-06
-8.66531e-06
-8.02104e-06
-0.000154903
-0.000147275
-0.000139865
-0.00013268
-0.000125725
-0.000119004
-0.000112519
-0.000106273
-0.000100266
-9.44991e-05
-8.89716e-05
-8.3682e-05
-7.86282e-05
-7.38072e-05
-6.92155e-05
-6.4849e-05
-6.07029e-05
-5.67718e-05
-5.30502e-05
-4.95319e-05
-4.62104e-05
-4.30791e-05
-4.01309e-05
-3.73589e-05
-3.47557e-05
-3.23141e-05
-3.00267e-05
-2.78862e-05
-2.58854e-05
-2.40172e-05
-2.22743e-05
-2.065e-05
-1.91375e-05
-1.77301e-05
-1.64217e-05
-1.52059e-05
-1.4077e-05
-1.30294e-05
-1.20575e-05
-1.11564e-05
-1.03212e-05
-9.5473e-06
-8.83039e-06
-8.16636e-06
-0.000154245
-0.000146824
-0.000139604
-0.00013259
-0.000125789
-0.000119204
-0.000112841
-0.0001067
-0.000100784
-9.50952e-05
-8.96323e-05
-8.43953e-05
-7.9383e-05
-7.45933e-05
-7.00234e-05
-6.56702e-05
-6.15296e-05
-5.75972e-05
-5.38681e-05
-5.03369e-05
-4.69979e-05
-4.38451e-05
-4.08722e-05
-3.80725e-05
-3.54395e-05
-3.29664e-05
-3.06462e-05
-2.84722e-05
-2.64373e-05
-2.45348e-05
-2.2758e-05
-2.11001e-05
-1.95546e-05
-1.81153e-05
-1.67757e-05
-1.55301e-05
-1.43726e-05
-1.32976e-05
-1.22999e-05
-1.13744e-05
-1.05163e-05
-9.72093e-06
-8.98405e-06
-8.30151e-06
-0.000153302
-0.000146095
-0.00013907
-0.000132236
-0.000125597
-0.000119158
-0.000112925
-0.000106899
-0.000101085
-9.54832e-05
-9.00951e-05
-8.4921e-05
-7.99603e-05
-7.52119e-05
-7.06739e-05
-6.63436e-05
-6.22181e-05
-5.82936e-05
-5.45659e-05
-5.10305e-05
-4.76822e-05
-4.45157e-05
-4.15254e-05
-3.87052e-05
-3.6049e-05
-3.35505e-05
-3.12035e-05
-2.90012e-05
-2.69374e-05
-2.50055e-05
-2.31989e-05
-2.15115e-05
-1.99368e-05
-1.84688e-05
-1.71014e-05
-1.58287e-05
-1.46451e-05
-1.35453e-05
-1.25239e-05
-1.15759e-05
-1.06965e-05
-9.88133e-06
-9.12589e-06
-8.42611e-06
-0.000152092
-0.000145104
-0.000138282
-0.000131632
-0.000125162
-0.000118877
-0.000112782
-0.000106881
-0.000101176
-9.56711e-05
-9.03672e-05
-8.52653e-05
-8.03657e-05
-7.56679e-05
-7.11709e-05
-6.68729e-05
-6.27713e-05
-5.88634e-05
-5.51457e-05
-5.16141e-05
-4.82644e-05
-4.50917e-05
-4.20911e-05
-3.92571e-05
-3.65842e-05
-3.40665e-05
-3.16982e-05
-2.94731e-05
-2.73853e-05
-2.54285e-05
-2.35967e-05
-2.18837e-05
-2.02835e-05
-1.87902e-05
-1.73979e-05
-1.61011e-05
-1.48941e-05
-1.37717e-05
-1.27287e-05
-1.17603e-05
-1.08615e-05
-1.00281e-05
-9.25551e-06
-8.5398e-06
-0.000150635
-0.000143869
-0.000137253
-0.000130794
-0.000124499
-0.000118374
-0.000112425
-0.000106654
-0.000101068
-9.56674e-05
-9.04559e-05
-8.54347e-05
-8.06048e-05
-7.59664e-05
-7.1519e-05
-6.72616e-05
-6.31925e-05
-5.93094e-05
-5.56094e-05
-5.20895e-05
-4.87458e-05
-4.55741e-05
-4.25701e-05
-3.97289e-05
-3.70454e-05
-3.45144e-05
-3.21304e-05
-2.98877e-05
-2.77807e-05
-2.58037e-05
-2.39508e-05
-2.22161e-05
-2.05941e-05
-1.90789e-05
-1.76649e-05
-1.63468e-05
-1.5119e-05
-1.39765e-05
-1.29142e-05
-1.19272e-05
-1.10108e-05
-1.01607e-05
-9.37254e-06
-8.64224e-06
-0.000148947
-0.000142406
-0.000135999
-0.000129735
-0.00012362
-0.000117661
-0.000111863
-0.000106231
-0.000100769
-9.54805e-05
-9.03689e-05
-8.54362e-05
-8.06839e-05
-7.61127e-05
-7.17229e-05
-6.7514e-05
-6.3485e-05
-5.96343e-05
-5.59598e-05
-5.24588e-05
-4.91281e-05
-4.59643e-05
-4.29635e-05
-4.01213e-05
-3.74333e-05
-3.48946e-05
-3.25002e-05
-3.02451e-05
-2.81237e-05
-2.61309e-05
-2.4261e-05
-2.25087e-05
-2.08683e-05
-1.93346e-05
-1.79021e-05
-1.65654e-05
-1.53195e-05
-1.41592e-05
-1.30797e-05
-1.20762e-05
-1.11441e-05
-1.0279e-05
-9.47667e-06
-8.73311e-06
-0.000147045
-0.000140731
-0.000134536
-0.00012847
-0.000122539
-0.00011675
-0.000111109
-0.00010562
-0.000100289
-9.51189e-05
-9.0114e-05
-8.52767e-05
-8.06089e-05
-7.61122e-05
-7.17872e-05
-6.76342e-05
-6.36526e-05
-5.98416e-05
-5.61995e-05
-5.27242e-05
-4.94134e-05
-4.62639e-05
-4.32725e-05
-4.04353e-05
-3.77485e-05
-3.52076e-05
-3.28082e-05
-3.05454e-05
-2.84143e-05
-2.641e-05
-2.45273e-05
-2.27611e-05
-2.11061e-05
-1.95571e-05
-1.8109e-05
-1.67567e-05
-1.54952e-05
-1.43195e-05
-1.3225e-05
-1.2207e-05
-1.12609e-05
-1.03825e-05
-9.5676e-06
-8.81216e-06
-0.000144947
-0.000138859
-0.000132878
-0.000127012
-0.000121268
-0.000115653
-0.000110172
-0.000104832
-9.96367e-05
-9.45911e-05
-8.96988e-05
-8.49631e-05
-8.03864e-05
-7.59706e-05
-7.17171e-05
-6.76266e-05
-6.36992e-05
-5.99344e-05
-5.63313e-05
-5.28884e-05
-4.96036e-05
-4.64746e-05
-4.34985e-05
-4.06722e-05
-3.79921e-05
-3.54543e-05
-3.30547e-05
-3.0789e-05
-2.86528e-05
-2.66413e-05
-2.47498e-05
-2.29733e-05
-2.13071e-05
-1.97461e-05
-1.82855e-05
-1.69203e-05
-1.56458e-05
-1.44572e-05
-1.33499e-05
-1.23193e-05
-1.13612e-05
-1.04711e-05
-9.64509e-06
-8.87914e-06
-0.000142666
-0.000136806
-0.000131039
-0.000125375
-0.00011982
-0.000114382
-0.000109065
-0.000103877
-9.88223e-05
-9.39056e-05
-8.91311e-05
-8.45025e-05
-8.00226e-05
-7.56937e-05
-7.15178e-05
-6.7496e-05
-6.36288e-05
-5.99165e-05
-5.63585e-05
-5.29538e-05
-4.97011e-05
-4.65984e-05
-4.36433e-05
-4.08332e-05
-3.8165e-05
-3.56354e-05
-3.32405e-05
-3.09766e-05
-2.88395e-05
-2.68249e-05
-2.49284e-05
-2.31455e-05
-2.14714e-05
-1.99016e-05
-1.84315e-05
-1.70562e-05
-1.57712e-05
-1.4572e-05
-1.34541e-05
-1.2413e-05
-1.14445e-05
-1.05445e-05
-9.7089e-06
-8.93383e-06
-0.000140219
-0.000134585
-0.000129033
-0.000123572
-0.000118207
-0.000112947
-0.000107798
-0.000102765
-9.78545e-05
-9.30709e-05
-8.84188e-05
-8.3902e-05
-7.9524e-05
-7.52874e-05
-7.11944e-05
-6.72468e-05
-6.34457e-05
-5.97914e-05
-5.62842e-05
-5.29235e-05
-4.97084e-05
-4.66374e-05
-4.37087e-05
-4.092e-05
-3.82687e-05
-3.5752e-05
-3.33665e-05
-3.11087e-05
-2.8975e-05
-2.69613e-05
-2.50636e-05
-2.32777e-05
-2.15991e-05
-2.00237e-05
-1.85469e-05
-1.71642e-05
-1.58713e-05
-1.46638e-05
-1.35374e-05
-1.24878e-05
-1.15109e-05
-1.06025e-05
-9.75887e-06
-8.97607e-06
-0.000137619
-0.00013221
-0.000126872
-0.000121614
-0.000116441
-0.000111361
-0.000106381
-0.000101506
-9.67424e-05
-9.20953e-05
-8.75694e-05
-8.31687e-05
-7.8897e-05
-7.47574e-05
-7.07524e-05
-6.68841e-05
-6.3154e-05
-5.95631e-05
-5.61119e-05
-5.28004e-05
-4.9628e-05
-4.65938e-05
-4.36964e-05
-4.09341e-05
-3.83045e-05
-3.58053e-05
-3.34335e-05
-3.11862e-05
-2.90598e-05
-2.70509e-05
-2.51556e-05
-2.33702e-05
-2.16904e-05
-2.01124e-05
-1.86317e-05
-1.72444e-05
-1.5946e-05
-1.47326e-05
-1.35998e-05
-1.25436e-05
-1.156e-05
-1.0645e-05
-9.79484e-06
-9.00571e-06
-0.000134881
-0.000129695
-0.00012457
-0.000119513
-0.000114532
-0.000109633
-0.000104823
-0.000100109
-9.54947e-05
-9.09871e-05
-8.65906e-05
-8.23096e-05
-7.81482e-05
-7.41096e-05
-7.01969e-05
-6.64125e-05
-6.27582e-05
-5.92354e-05
-5.58451e-05
-5.25875e-05
-4.94627e-05
-4.64701e-05
-4.36088e-05
-4.08773e-05
-3.82739e-05
-3.57966e-05
-3.34428e-05
-3.12098e-05
-2.90947e-05
-2.70943e-05
-2.5205e-05
-2.34233e-05
-2.17456e-05
-2.01678e-05
-1.86862e-05
-1.72967e-05
-1.59954e-05
-1.47782e-05
-1.36412e-05
-1.25804e-05
-1.15919e-05
-1.06719e-05
-9.81671e-06
-9.02262e-06
-0.000132018
-0.000127052
-0.000122138
-0.000117282
-0.000112492
-0.000107775
-0.000103136
-9.85825e-05
-9.41201e-05
-8.97541e-05
-8.54898e-05
-8.13316e-05
-7.72838e-05
-7.335e-05
-6.95335e-05
-6.58369e-05
-6.22626e-05
-5.88123e-05
-5.54871e-05
-5.22881e-05
-4.92153e-05
-4.62687e-05
-4.34478e-05
-4.07515e-05
-3.81786e-05
-3.57272e-05
-3.33953e-05
-3.11807e-05
-2.90806e-05
-2.70921e-05
-2.52122e-05
-2.34376e-05
-2.17648e-05
-2.01903e-05
-1.87104e-05
-1.73214e-05
-1.60194e-05
-1.48007e-05
-1.36615e-05
-1.2598e-05
-1.16064e-05
-1.06831e-05
-9.82437e-06
-9.02672e-06
-0.000129041
-0.000124293
-0.000119588
-0.000114932
-0.000110332
-0.000105795
-0.000101328
-9.69367e-05
-9.2627e-05
-8.84045e-05
-8.42745e-05
-8.02416e-05
-7.63102e-05
-7.24843e-05
-6.87674e-05
-6.51624e-05
-6.16718e-05
-5.82978e-05
-5.50419e-05
-5.19053e-05
-4.88887e-05
-4.59923e-05
-4.32158e-05
-4.05588e-05
-3.80202e-05
-3.55987e-05
-3.32926e-05
-3.10999e-05
-2.90183e-05
-2.70453e-05
-2.5178e-05
-2.34135e-05
-2.17487e-05
-2.01802e-05
-1.87047e-05
-1.73185e-05
-1.60183e-05
-1.48003e-05
-1.36609e-05
-1.25966e-05
-1.16036e-05
-1.06786e-05
-9.81781e-06
-9.01796e-06
-0.000671365
-0.000643829
-0.000616423
-0.000589273
-0.000562495
-0.000536187
-0.000510437
-0.00048532
-0.000460901
-0.000437231
-0.000414353
-0.000392298
-0.00037109
-0.000350744
-0.000331266
-0.000312659
-0.000294916
-0.000278029
-0.000261981
-0.000246755
-0.00023233
-0.000218682
-0.000205783
-0.000193608
-0.000182127
-0.00017131
-0.000161129
-0.000644994
-0.000619643
-0.00059434
-0.000569204
-0.000544344
-0.000519855
-0.000495823
-0.000472321
-0.000449412
-0.00042715
-0.000405577
-0.000384729
-0.000364631
-0.000345301
-0.00032675
-0.000308985
-0.000292004
-0.000275802
-0.000260368
-0.00024569
-0.00023175
-0.00021853
-0.000206007
-0.000194159
-0.000182961
-0.000172387
-0.000162411
-0.00061935
-0.000596029
-0.000572685
-0.000549431
-0.000526369
-0.000503591
-0.00048118
-0.000459207
-0.000437734
-0.000416814
-0.000396492
-0.000376803
-0.000357776
-0.000339432
-0.000321785
-0.000304844
-0.000288613
-0.000273089
-0.000258267
-0.000244138
-0.000230689
-0.000217905
-0.000205768
-0.000194259
-0.000183357
-0.00017304
-0.000163286
-0.000594429
-0.000572994
-0.000551475
-0.000529978
-0.000508602
-0.000487432
-0.000466549
-0.000446021
-0.00042591
-0.000406269
-0.000387142
-0.000368566
-0.000350571
-0.000333181
-0.000316412
-0.000300276
-0.00028478
-0.000269926
-0.000255711
-0.00024213
-0.000229174
-0.00021683
-0.000205086
-0.000193926
-0.000183331
-0.000173284
-0.000163765
-0.000570225
-0.000550542
-0.000530723
-0.000510868
-0.000491069
-0.00047141
-0.000451966
-0.000432805
-0.000413985
-0.00039556
-0.000377574
-0.000360064
-0.000343062
-0.000326593
-0.000310675
-0.000295324
-0.000280548
-0.000266352
-0.000252737
-0.0002397
-0.000227236
-0.000215336
-0.00020399
-0.000193185
-0.000182907
-0.000173139
-0.000163866
-0.000546732
-0.000528676
-0.00051044
-0.000492117
-0.000473796
-0.000455555
-0.000437466
-0.000419595
-0.000402
-0.000384731
-0.000367832
-0.000351343
-0.000335295
-0.000319714
-0.00030462
-0.000290032
-0.000275958
-0.000262408
-0.000249384
-0.000236886
-0.000224912
-0.000213457
-0.000202512
-0.000192067
-0.000182111
-0.000172632
-0.000163614
-0.000523941
-0.000507396
-0.000490633
-0.000473741
-0.000456802
-0.000439891
-0.000423079
-0.000406426
-0.000389989
-0.000373818
-0.000357957
-0.000342444
-0.000327311
-0.000312585
-0.000298288
-0.000284439
-0.00027105
-0.000258132
-0.000245688
-0.000233723
-0.000222236
-0.000211223
-0.00020068
-0.000190599
-0.000180971
-0.000171785
-0.000163031
-0.000501842
-0.000486698
-0.000471306
-0.000455749
-0.000440104
-0.000424442
-0.00040883
-0.000393326
-0.000377986
-0.000362858
-0.000347984
-0.000333403
-0.000319147
-0.000305244
-0.000291716
-0.000278584
-0.000265861
-0.000253559
-0.000241685
-0.000230244
-0.000219238
-0.000208665
-0.000198523
-0.000188807
-0.00017951
-0.000170623
-0.000162137
-0.00048042
-0.000466578
-0.000452462
-0.00043815
-0.000423715
-0.000409225
-0.000394741
-0.000380322
-0.00036602
-0.00035188
-0.000337946
-0.000324255
-0.000310839
-0.000297725
-0.000284939
-0.0002725
-0.000260423
-0.000248722
-0.000237405
-0.000226479
-0.000215947
-0.00020581
-0.000196068
-0.000186716
-0.000177751
-0.000169166
-0.000160954
-0.000459662
-0.000447028
-0.0004341
-0.00042095
-0.000407647
-0.000394256
-0.000380834
-0.000367437
-0.000354115
-0.000340913
-0.000327873
-0.00031503
-0.000302417
-0.000290062
-0.000277989
-0.000266219
-0.000254768
-0.000243651
-0.000232878
-0.000222456
-0.00021239
-0.000202684
-0.000193338
-0.00018435
-0.000175718
-0.000167436
-0.0001595
-0.000439555
-0.000428043
-0.000416219
-0.000404154
-0.000391909
-0.000379547
-0.000367124
-0.00035469
-0.000342295
-0.000329981
-0.000317789
-0.000305755
-0.00029391
-0.000282281
-0.000270895
-0.00025977
-0.000248926
-0.000238376
-0.000228132
-0.000218203
-0.000208596
-0.000199313
-0.000190359
-0.000181732
-0.000173431
-0.000165454
-0.000157796
-0.000420082
-0.000409611
-0.000398817
-0.000387762
-0.000376508
-0.000365111
-0.000353625
-0.000342099
-0.000330579
-0.000319107
-0.000307721
-0.000296457
-0.000285344
-0.000274412
-0.000263684
-0.000253182
-0.000242923
-0.000232923
-0.000223194
-0.000213746
-0.000204587
-0.000195721
-0.000187153
-0.000178883
-0.000170912
-0.000163238
-0.000155859
-0.000401229
-0.000391724
-0.000381887
-0.000371775
-0.000361447
-0.000350955
-0.00034035
-0.000329679
-0.000318985
-0.00030831
-0.000297689
-0.000287157
-0.000276744
-0.000266478
-0.000256382
-0.000246478
-0.000236785
-0.000227317
-0.000218088
-0.000209109
-0.000200387
-0.00019193
-0.000183742
-0.000175825
-0.000168181
-0.000160809
-0.000153708
-0.000382978
-0.000374372
-0.000365425
-0.000356193
-0.00034673
-0.000337086
-0.000327308
-0.000317442
-0.000307529
-0.000297607
-0.000287712
-0.000277877
-0.000268131
-0.000258501
-0.000249012
-0.000239683
-0.000230534
-0.000221581
-0.000212837
-0.000204313
-0.000196019
-0.000187962
-0.000180147
-0.000172577
-0.000165256
-0.000158184
-0.000151359
-0.000365315
-0.000357542
-0.000349424
-0.000341013
-0.000332359
-0.000323509
-0.000314509
-0.0003054
-0.000296223
-0.000287014
-0.000277807
-0.000268634
-0.000259524
-0.000250503
-0.000241593
-0.000232817
-0.000224193
-0.000215737
-0.000207462
-0.000199381
-0.000191503
-0.000183836
-0.000176386
-0.000169158
-0.000162156
-0.000155379
-0.00014883
-0.000348223
-0.000341224
-0.000333877
-0.000326231
-0.000318333
-0.000310228
-0.000301957
-0.000293562
-0.000285079
-0.000276544
-0.00026799
-0.000259446
-0.000250941
-0.0002425
-0.000234147
-0.000225901
-0.000217781
-0.000209804
-0.000201983
-0.000194331
-0.000186857
-0.000179571
-0.000172479
-0.000165586
-0.000158897
-0.000152413
-0.000146136
-0.000331684
-0.000325404
-0.000318775
-0.000311843
-0.000304652
-0.000297245
-0.00028966
-0.000281935
-0.000274107
-0.000266209
-0.000258273
-0.000250327
-0.000242398
-0.000234511
-0.000226689
-0.000218951
-0.000211317
-0.000203801
-0.000196418
-0.000189182
-0.000182101
-0.000175186
-0.000168442
-0.000161878
-0.000155495
-0.0001493
-0.000143292
-0.000315684
-0.000310071
-0.000304111
-0.000297845
-0.000291315
-0.00028456
-0.000277619
-0.000270526
-0.000263315
-0.00025602
-0.000248668
-0.000241289
-0.000233909
-0.00022655
-0.000219236
-0.000211985
-0.000204816
-0.000197744
-0.000190785
-0.00018395
-0.00017725
-0.000170695
-0.000164292
-0.000158048
-0.000151967
-0.000146054
-0.000140312
-0.000300205
-0.000295213
-0.000289874
-0.00028423
-0.000278318
-0.000272175
-0.000265838
-0.000259339
-0.000252711
-0.000245984
-0.000239186
-0.000232346
-0.000225486
-0.000218631
-0.000211801
-0.000205017
-0.000198294
-0.00019165
-0.000185099
-0.000178652
-0.000172321
-0.000166116
-0.000160044
-0.000154112
-0.000148327
-0.000142691
-0.00013721
-0.000285232
-0.000280815
-0.000276056
-0.000270991
-0.000265657
-0.000260088
-0.000254317
-0.000248377
-0.000242298
-0.000236108
-0.000229836
-0.000223505
-0.000217141
-0.000210765
-0.000204399
-0.00019806
-0.000191766
-0.000185532
-0.000179373
-0.000173301
-0.000167327
-0.000161461
-0.000155711
-0.000150084
-0.000144587
-0.000139223
-0.000133998
-0.000271044
-0.000267152
-0.000262921
-0.000258386
-0.000253581
-0.000248538
-0.000243289
-0.000237864
-0.000232291
-0.000226598
-0.000220812
-0.000214955
-0.000209052
-0.000203124
-0.00019719
-0.000191268
-0.000185376
-0.000179529
-0.00017374
-0.000168022
-0.000162386
-0.000156842
-0.000151398
-0.000146062
-0.000140839
-0.000135737
-0.000130757
-0.000257458
-0.00025405
-0.000250307
-0.000246262
-0.000241947
-0.000237393
-0.000232629
-0.000227683
-0.000222584
-0.000217356
-0.000212025
-0.000206614
-0.000201145
-0.000195638
-0.000190112
-0.000184586
-0.000179075
-0.000173594
-0.000168158
-0.000162778
-0.000157465
-0.000152229
-0.000147079
-0.000142022
-0.000137065
-0.000132214
-0.000127473
-0.000244045
-0.000241095
-0.000237816
-0.000234239
-0.000230393
-0.000226306
-0.000222007
-0.000217523
-0.000212878
-0.000208099
-0.000203208
-0.000198228
-0.000193179
-0.000188082
-0.000182954
-0.000177812
-0.000172674
-0.000167552
-0.000162461
-0.000157413
-0.000152418
-0.000147486
-0.000142627
-0.000137847
-0.000133154
-0.000128553
-0.000124049
-0.00023081
-0.000228296
-0.000225458
-0.000222326
-0.000218926
-0.000215287
-0.000211433
-0.000207391
-0.000203184
-0.000198837
-0.00019437
-0.000189806
-0.000185164
-0.000180464
-0.000175723
-0.000170956
-0.000166181
-0.00016141
-0.000156658
-0.000151935
-0.000147253
-0.000142621
-0.000138048
-0.000133543
-0.000129111
-0.000124759
-0.000120492
-0.00021776
-0.000215658
-0.000213239
-0.00021053
-0.000207556
-0.000204343
-0.000200916
-0.000197297
-0.000193511
-0.000189578
-0.000185521
-0.000181358
-0.00017711
-0.000172795
-0.000168428
-0.000164027
-0.000159605
-0.000155177
-0.000150755
-0.000146352
-0.000141977
-0.00013764
-0.00013335
-0.000129115
-0.000124942
-0.000120837
-0.000116805
-0.000204901
-0.000203189
-0.000201167
-0.00019886
-0.000196291
-0.000193485
-0.000190464
-0.000187251
-0.000183867
-0.000180333
-0.000176669
-0.000172894
-0.000169026
-0.000165083
-0.00016108
-0.000157032
-0.000152955
-0.000148861
-0.000144762
-0.000140671
-0.000136597
-0.000132549
-0.000128538
-0.00012457
-0.000120652
-0.000116792
-0.000112993
-0.000192239
-0.000190895
-0.000189249
-0.000187323
-0.000185139
-0.00018272
-0.000180087
-0.000177262
-0.000174263
-0.000171111
-0.000167825
-0.000164423
-0.000160922
-0.000157338
-0.000153686
-0.000149982
-0.000146239
-0.00014247
-0.000138686
-0.0001349
-0.00013112
-0.000127357
-0.000123619
-0.000119914
-0.000116249
-0.00011263
-0.000109063
-0.000179778
-0.000178782
-0.000177491
-0.000175926
-0.000174107
-0.000172057
-0.000169793
-0.000167337
-0.000164707
-0.000161922
-0.000158998
-0.000155954
-0.000152806
-0.000149569
-0.000146257
-0.000142886
-0.000139467
-0.000136013
-0.000132537
-0.000129047
-0.000125556
-0.000122071
-0.000118601
-0.000115154
-0.000111738
-0.000108357
-0.000105019
-0.000167524
-0.000166855
-0.000165899
-0.000164675
-0.000163203
-0.000161502
-0.00015959
-0.000157487
-0.000155208
-0.000152773
-0.000150197
-0.000147497
-0.000144688
-0.000141785
-0.000138802
-0.000135751
-0.000132647
-0.0001295
-0.000126321
-0.000123122
-0.000119911
-0.000116698
-0.000113491
-0.000110298
-0.000107126
-0.00010398
-0.000100867
-0.000155481
-0.00015512
-0.00015448
-0.000153578
-0.000152434
-0.000151064
-0.000149487
-0.000147718
-0.000145775
-0.000143674
-0.000141431
-0.000139061
-0.000136578
-0.000133996
-0.000131329
-0.000128589
-0.000125788
-0.000122937
-0.000120049
-0.000117131
-0.000114194
-0.000111247
-0.000108297
-0.000105352
-0.00010242
-9.95054e-05
-9.66153e-05
-0.000143653
-0.000143581
-0.000143238
-0.000142641
-0.000141806
-0.00014075
-0.000139489
-0.000138039
-0.000136416
-0.000134634
-0.000132709
-0.000130654
-0.000128484
-0.00012621
-0.000123847
-0.000121406
-0.000118899
-0.000116336
-0.000113728
-0.000111084
-0.000108413
-0.000105725
-0.000103026
-0.000100325
-9.76272e-05
-9.494e-05
-9.22687e-05
-0.000132045
-0.000132243
-0.00013218
-0.000131869
-0.000131326
-0.000130567
-0.000129606
-0.000128459
-0.000127139
-0.000125661
-0.000124039
-0.000122286
-0.000120414
-0.000118438
-0.000116367
-0.000114214
-0.00011199
-0.000109704
-0.000107368
-0.000104989
-0.000102577
-0.000100141
-9.76868e-05
-9.52229e-05
-9.27555e-05
-9.02909e-05
-8.78347e-05
-0.000120659
-0.000121111
-0.000121309
-0.000121267
-0.000121
-0.000120521
-0.000119844
-0.000118983
-0.000117952
-0.000116763
-0.00011543
-0.000113964
-0.000112379
-0.000110686
-0.000108896
-0.00010702
-0.000105068
-0.000103051
-0.000100977
-9.88551e-05
-9.66944e-05
-9.45026e-05
-9.2287e-05
-9.00547e-05
-8.78122e-05
-8.55655e-05
-8.33203e-05
-0.000109498
-0.000110188
-0.000110631
-0.000110842
-0.000110833
-0.000110618
-0.00011021
-0.00010962
-0.000108862
-0.000107948
-0.000106889
-0.000105699
-0.000104387
-0.000102965
-0.000101444
-9.98337e-05
-9.8144e-05
-9.63844e-05
-9.45638e-05
-9.26907e-05
-9.07731e-05
-8.88188e-05
-8.6835e-05
-8.48283e-05
-8.28051e-05
-8.07715e-05
-7.87328e-05
-9.85668e-05
-9.94769e-05
-0.00010015
-0.000100597
-0.000100832
-0.000100865
-0.000100709
-0.000100376
-9.98765e-05
-9.92227e-05
-9.84256e-05
-9.74962e-05
-9.64452e-05
-9.52828e-05
-9.4019e-05
-9.26635e-05
-9.12256e-05
-8.97142e-05
-8.81378e-05
-8.65046e-05
-8.48222e-05
-8.3098e-05
-8.1339e-05
-7.95517e-05
-7.77422e-05
-7.59164e-05
-7.40795e-05
-8.78666e-05
-8.89822e-05
-8.98691e-05
-9.05382e-05
-9.10007e-05
-9.12674e-05
-9.13495e-05
-9.12578e-05
-9.10031e-05
-9.05959e-05
-9.00466e-05
-8.93656e-05
-8.85627e-05
-8.76477e-05
-8.66298e-05
-8.55183e-05
-8.43219e-05
-8.30489e-05
-8.17075e-05
-8.03055e-05
-7.88502e-05
-7.73487e-05
-7.58076e-05
-7.42332e-05
-7.26315e-05
-7.10081e-05
-6.93683e-05
-7.74e-05
-7.87065e-05
-7.97927e-05
-8.06686e-05
-8.13444e-05
-8.18302e-05
-8.2136e-05
-8.2272e-05
-8.22481e-05
-8.20741e-05
-8.17597e-05
-8.13144e-05
-8.07476e-05
-8.00681e-05
-7.9285e-05
-7.84066e-05
-7.74414e-05
-7.63971e-05
-7.52816e-05
-7.41022e-05
-7.28659e-05
-7.15794e-05
-7.02491e-05
-6.88811e-05
-6.74812e-05
-6.60547e-05
-6.46068e-05
-6.7169e-05
-6.86525e-05
-6.9924e-05
-7.09926e-05
-7.18677e-05
-7.25586e-05
-7.30744e-05
-7.34246e-05
-7.36182e-05
-7.36644e-05
-7.35722e-05
-7.33503e-05
-7.30075e-05
-7.25522e-05
-7.19927e-05
-7.13369e-05
-7.05927e-05
-6.97676e-05
-6.88688e-05
-6.79033e-05
-6.68778e-05
-6.57987e-05
-6.46721e-05
-6.35038e-05
-6.22994e-05
-6.10642e-05
-5.9803e-05
-5.71754e-05
-5.88226e-05
-6.0266e-05
-6.15139e-05
-6.25749e-05
-6.34575e-05
-6.41701e-05
-6.47213e-05
-6.51196e-05
-6.53734e-05
-6.5491e-05
-6.54806e-05
-6.53502e-05
-6.51078e-05
-6.4761e-05
-6.43174e-05
-6.37843e-05
-6.31687e-05
-6.24776e-05
-6.17174e-05
-6.08946e-05
-6.00152e-05
-5.9085e-05
-5.81098e-05
-5.70947e-05
-5.60448e-05
-5.49649e-05
-4.74207e-05
-4.9219e-05
-5.08215e-05
-5.22359e-05
-5.347e-05
-5.45314e-05
-5.54281e-05
-5.61679e-05
-5.67584e-05
-5.72076e-05
-5.75231e-05
-5.77124e-05
-5.77832e-05
-5.77426e-05
-5.7598e-05
-5.73563e-05
-5.70244e-05
-5.6609e-05
-5.61165e-05
-5.5553e-05
-5.49248e-05
-5.42374e-05
-5.34965e-05
-5.27074e-05
-5.18752e-05
-5.10047e-05
-5.01005e-05
-3.79063e-05
-3.98436e-05
-4.15932e-05
-4.31619e-05
-4.45567e-05
-4.57848e-05
-4.68534e-05
-4.77695e-05
-4.85404e-05
-4.91732e-05
-4.9675e-05
-5.00528e-05
-5.03136e-05
-5.04643e-05
-5.05114e-05
-5.04616e-05
-5.03213e-05
-5.00967e-05
-4.97939e-05
-4.94187e-05
-4.89769e-05
-4.84739e-05
-4.79149e-05
-4.73051e-05
-4.66494e-05
-4.59522e-05
-4.52182e-05
-2.86333e-05
-3.06983e-05
-3.25834e-05
-3.42947e-05
-3.58387e-05
-3.72217e-05
-3.84504e-05
-3.95313e-05
-4.0471e-05
-4.12761e-05
-4.19531e-05
-4.25085e-05
-4.29487e-05
-4.32801e-05
-4.35088e-05
-4.36411e-05
-4.36829e-05
-4.364e-05
-4.35181e-05
-4.33228e-05
-4.30594e-05
-4.27331e-05
-4.23488e-05
-4.19115e-05
-4.14256e-05
-4.08957e-05
-4.03261e-05
-1.96026e-05
-2.17847e-05
-2.37944e-05
-2.56372e-05
-2.73191e-05
-2.8846e-05
-3.02237e-05
-3.14583e-05
-3.25558e-05
-3.35222e-05
-3.43636e-05
-3.50859e-05
-3.56952e-05
-3.61972e-05
-3.65977e-05
-3.69025e-05
-3.7117e-05
-3.72469e-05
-3.72973e-05
-3.72736e-05
-3.71806e-05
-3.70234e-05
-3.68065e-05
-3.65347e-05
-3.62123e-05
-3.58435e-05
-3.54324e-05
-1.08151e-05
-1.31041e-05
-1.5228e-05
-1.7192e-05
-1.90013e-05
-2.06613e-05
-2.21773e-05
-2.3555e-05
-2.47997e-05
-2.5917e-05
-2.69124e-05
-2.77915e-05
-2.85597e-05
-2.92225e-05
-2.97853e-05
-3.02532e-05
-3.06315e-05
-3.09253e-05
-3.11395e-05
-3.12791e-05
-3.13488e-05
-3.13531e-05
-3.12965e-05
-3.11834e-05
-3.10179e-05
-3.0804e-05
-3.05456e-05
-2.2714e-06
-4.65778e-06
-6.88627e-06
-8.96146e-06
-1.08881e-05
-1.26711e-05
-1.43154e-05
-1.58259e-05
-1.72076e-05
-1.84658e-05
-1.96053e-05
-2.06313e-05
-2.15489e-05
-2.2363e-05
-2.30786e-05
-2.37006e-05
-2.42338e-05
-2.46829e-05
-2.50527e-05
-2.53476e-05
-2.55721e-05
-2.57305e-05
-2.58271e-05
-2.58658e-05
-2.58507e-05
-2.57854e-05
-2.56739e-05
6.02787e-06
3.55309e-06
1.22925e-06
-9.47781e-07
-2.9823e-06
-4.87872e-06
-6.64152e-06
-8.27522e-06
-9.78442e-06
-1.11737e-05
-1.24478e-05
-1.36113e-05
-1.46689e-05
-1.56251e-05
-1.64845e-05
-1.72518e-05
-1.79313e-05
-1.85274e-05
-1.90445e-05
-1.94869e-05
-1.98587e-05
-2.01638e-05
-2.04064e-05
-2.05902e-05
-2.07189e-05
-2.07962e-05
-2.08255e-05
1.40823e-05
1.15275e-05
9.11698e-06
6.84693e-06
4.71351e-06
2.71275e-06
8.4057e-07
-9.07129e-07
-2.53452e-06
-4.04582e-06
-5.44529e-06
-6.73717e-06
-7.92573e-06
-9.01521e-06
-1.00098e-05
-1.09138e-05
-1.17312e-05
-1.24662e-05
-1.31227e-05
-1.37048e-05
-1.42164e-05
-1.46611e-05
-1.50427e-05
-1.53648e-05
-1.5631e-05
-1.58446e-05
-1.60089e-05
2.18915e-05
1.92646e-05
1.67755e-05
1.44207e-05
1.21969e-05
1.01003e-05
8.12746e-06
6.27451e-06
4.5377e-06
2.91319e-06
1.39709e-06
-1.44862e-08
-1.32543e-06
-2.53965e-06
-3.66103e-06
-4.69344e-06
-5.64069e-06
-6.50657e-06
-7.29482e-06
-8.00911e-06
-8.65306e-06
-9.23022e-06
-9.74404e-06
-1.01979e-05
-1.05951e-05
-1.09389e-05
-1.12324e-05
2.94551e-05
2.67635e-05
2.42033e-05
2.17717e-05
1.94654e-05
1.72812e-05
1.52158e-05
1.32659e-05
1.1428e-05
9.69867e-06
8.07429e-06
6.55135e-06
5.12628e-06
3.79551e-06
2.55546e-06
1.40258e-06
3.33343e-07
-6.5575e-07
-1.56816e-06
-2.4073e-06
-3.17654e-06
-3.87917e-06
-4.51844e-06
-5.0975e-06
-5.61947e-06
-6.08736e-06
-6.5041e-06
3.67729e-05
3.40234e-05
3.13993e-05
2.8898e-05
2.65168e-05
2.42526e-05
2.21025e-05
2.00635e-05
1.81324e-05
1.63062e-05
1.45815e-05
1.29551e-05
1.14238e-05
9.98434e-06
8.6334e-06
7.36773e-06
6.18408e-06
5.07922e-06
4.04995e-06
3.09311e-06
2.20557e-06
1.38426e-06
6.26161e-07
-7.16886e-08
-7.12191e-07
-1.29818e-06
-1.83242e-06
4.38445e-05
4.10435e-05
3.83621e-05
3.57981e-05
3.33489e-05
3.10119e-05
2.87844e-05
2.66637e-05
2.46469e-05
2.27313e-05
2.09138e-05
1.91916e-05
1.75617e-05
1.6021e-05
1.45667e-05
1.31956e-05
1.19048e-05
1.06914e-05
9.55235e-06
8.48475e-06
7.4857e-06
6.55234e-06
5.68188e-06
4.87154e-06
4.11862e-06
3.42045e-06
2.77444e-06
5.06696e-05
4.78231e-05
4.50906e-05
4.24702e-05
3.99596e-05
3.75565e-05
3.52584e-05
3.3063e-05
3.09676e-05
2.89698e-05
2.70667e-05
2.52559e-05
2.35345e-05
2.18999e-05
2.03492e-05
1.88799e-05
1.7489e-05
1.6174e-05
1.4932e-05
1.37603e-05
1.26564e-05
1.16174e-05
1.06409e-05
9.72425e-06
8.86489e-06
8.06037e-06
7.30824e-06
5.7248e-05
5.43613e-05
5.15834e-05
4.89126e-05
4.63467e-05
4.38838e-05
4.15217e-05
3.92581e-05
3.70908e-05
3.50174e-05
3.30357e-05
3.1143e-05
2.9337e-05
2.76153e-05
2.59752e-05
2.44143e-05
2.29302e-05
2.15202e-05
2.01818e-05
1.89126e-05
1.77101e-05
1.65719e-05
1.54955e-05
1.44785e-05
1.35186e-05