/*--------------------------------*- C++ -*----------------------------------*\
| =========                 |                                                 |
| \\      /  F ield         | OpenFOAM: The Open Source CFD Toolbox           |
|  \\    /   O peration     | Version:  2412                                  |
|   \\  /    A nd           | Website:  www.openfoam.com                      |
|    \\/     M anipulation  |                                                 |
\*---------------------------------------------------------------------------*/
FoamFile
{
    version     2.0;
    format      ascii;
    arch        "LSB;label=32;scalar=64";
    class       volScalarField;
    location    "9.5";
    object      p;
}
// * * * * * * * * * * * * * * * * * * * * * * * * * * * * * * * * * * * * * //

dimensions      [0 2 -2 0 0 0 0];

internalField   nonuniform List<scalar> 
5285
(
-2.52268e-05
-2.41209e-05
-2.30388e-05
-2.19783e-05
-2.09403e-05
-1.99267e-05
-1.89383e-05
-1.79758e-05
-1.70401e-05
-1.61317e-05
-1.52511e-05
-1.43987e-05
-1.35749e-05
-1.278e-05
-1.20139e-05
-1.12768e-05
-1.05687e-05
-9.88926e-06
-9.23859e-06
-8.61619e-06
-8.02187e-06
-7.45534e-06
-6.91595e-06
-6.40342e-06
-5.91706e-06
-5.45615e-06
-5.02029e-06
-4.60857e-06
-4.22033e-06
-3.85491e-06
-3.51167e-06
-3.18949e-06
-2.88781e-06
-2.60588e-06
-2.34282e-06
-2.09813e-06
-1.8704e-06
-1.65947e-06
-1.46387e-06
-1.28304e-06
-1.11616e-06
-9.62236e-07
-8.20532e-07
-6.90309e-07
-5.71021e-07
-4.61643e-07
-3.61141e-07
-2.7069e-07
-1.83583e-07
-1.13932e-07
-2.76703e-08
2.48704e-09
1.3208e-07
4.7347e-08
3.63052e-07
-6.89896e-08
8.07681e-07
-5.17472e-07
1.65552e-06
-1.42666e-06
2.89099e-06
-2.47952e-06
3.7903e-06
-2.494e-06
2.87581e-06
-7.25632e-08
-5.74695e-07
4.22413e-06
-4.40832e-06
6.89489e-06
-4.68048e-06
-2.52205e-05
-2.41145e-05
-2.30326e-05
-2.1972e-05
-2.09342e-05
-1.99207e-05
-1.89324e-05
-1.79701e-05
-1.70346e-05
-1.61263e-05
-1.5246e-05
-1.43938e-05
-1.35702e-05
-1.27755e-05
-1.20096e-05
-1.12727e-05
-1.05648e-05
-9.88557e-06
-9.23512e-06
-8.61291e-06
-8.01878e-06
-7.45246e-06
-6.91322e-06
-6.40088e-06
-5.91469e-06
-5.45394e-06
-5.01824e-06
-4.60666e-06
-4.21856e-06
-3.85328e-06
-3.51017e-06
-3.1881e-06
-2.88654e-06
-2.60473e-06
-2.34176e-06
-2.09718e-06
-1.86952e-06
-1.65868e-06
-1.46314e-06
-1.28237e-06
-1.11557e-06
-9.61701e-07
-8.20053e-07
-6.89878e-07
-5.70649e-07
-4.6129e-07
-3.6085e-07
-2.70418e-07
-1.83359e-07
-1.13737e-07
-2.75132e-08
2.64139e-09
1.3219e-07
4.74973e-08
3.6305e-07
-6.87711e-08
8.07511e-07
-5.17162e-07
1.65525e-06
-1.42637e-06
2.89077e-06
-2.47942e-06
3.79042e-06
-2.49438e-06
2.87635e-06
-7.31676e-08
-5.74231e-07
4.22388e-06
-4.4084e-06
6.89512e-06
-4.68316e-06
-2.52078e-05
-2.41019e-05
-2.302e-05
-2.19596e-05
-2.09219e-05
-1.99087e-05
-1.89207e-05
-1.79587e-05
-1.70235e-05
-1.61157e-05
-1.52357e-05
-1.43839e-05
-1.35608e-05
-1.27664e-05
-1.2001e-05
-1.12645e-05
-1.0557e-05
-9.87824e-06
-9.22817e-06
-8.60638e-06
-8.01264e-06
-7.44665e-06
-6.90781e-06
-6.39579e-06
-5.90992e-06
-5.44953e-06
-5.01411e-06
-4.60283e-06
-4.21503e-06
-3.85004e-06
-3.50715e-06
-3.18535e-06
-2.88404e-06
-2.60244e-06
-2.33971e-06
-2.09525e-06
-1.86783e-06
-1.65706e-06
-1.46169e-06
-1.28106e-06
-1.11437e-06
-9.60617e-07
-8.19092e-07
-6.89055e-07
-5.69854e-07
-4.60658e-07
-3.6021e-07
-2.69902e-07
-1.82887e-07
-1.1337e-07
-2.71811e-08
2.94486e-09
1.32389e-07
4.78702e-08
3.63031e-07
-6.83439e-08
8.07157e-07
-5.16531e-07
1.65469e-06
-1.42573e-06
2.89032e-06
-2.47926e-06
3.79069e-06
-2.49513e-06
2.8774e-06
-7.43679e-08
-5.73207e-07
4.22336e-06
-4.40857e-06
6.89553e-06
-4.68842e-06
-2.51888e-05
-2.40829e-05
-2.30011e-05
-2.19409e-05
-2.09035e-05
-1.98906e-05
-1.89031e-05
-1.79416e-05
-1.70069e-05
-1.60996e-05
-1.52203e-05
-1.43691e-05
-1.35466e-05
-1.27529e-05
-1.1988e-05
-1.12522e-05
-1.05453e-05
-9.86722e-06
-9.21775e-06
-8.59657e-06
-8.00342e-06
-7.43796e-06
-6.89969e-06
-6.38818e-06
-5.9028e-06
-5.44291e-06
-5.00794e-06
-4.59711e-06
-4.20975e-06
-3.84517e-06
-3.50264e-06
-3.18123e-06
-2.88028e-06
-2.599e-06
-2.3366e-06
-2.09236e-06
-1.86524e-06
-1.65466e-06
-1.45953e-06
-1.27909e-06
-1.11257e-06
-9.59006e-07
-8.17659e-07
-6.87799e-07
-5.68692e-07
-4.59677e-07
-3.59287e-07
-2.69119e-07
-1.82193e-07
-1.1279e-07
-2.66925e-08
3.42395e-09
1.32678e-07
4.84009e-08
3.63009e-07
-6.77106e-08
8.06675e-07
-5.15625e-07
1.65388e-06
-1.42482e-06
2.8897e-06
-2.47908e-06
3.79115e-06
-2.49632e-06
2.87903e-06
-7.61743e-08
-5.71714e-07
4.22265e-06
-4.40887e-06
6.89618e-06
-4.696e-06
-2.51635e-05
-2.40575e-05
-2.29758e-05
-2.19159e-05
-2.0879e-05
-1.98666e-05
-1.88796e-05
-1.79188e-05
-1.69848e-05
-1.60783e-05
-1.51997e-05
-1.43494e-05
-1.35277e-05
-1.27348e-05
-1.19708e-05
-1.12358e-05
-1.05298e-05
-9.85253e-06
-9.20386e-06
-8.58349e-06
-7.99112e-06
-7.4264e-06
-6.88886e-06
-6.37805e-06
-5.89334e-06
-5.43411e-06
-4.99974e-06
-4.5895e-06
-4.20272e-06
-3.83867e-06
-3.49664e-06
-3.17574e-06
-2.87525e-06
-2.59441e-06
-2.33242e-06
-2.08853e-06
-1.86177e-06
-1.65147e-06
-1.45664e-06
-1.27647e-06
-1.1102e-06
-9.5687e-07
-8.15753e-07
-6.86114e-07
-5.67162e-07
-4.5835e-07
-3.58075e-07
-2.68069e-07
-1.81278e-07
-1.11997e-07
-2.6045e-08
4.07446e-09
1.33058e-07
4.90837e-08
3.62993e-07
-6.68917e-08
8.06098e-07
-5.14501e-07
1.65292e-06
-1.42376e-06
2.88907e-06
-2.47908e-06
3.792e-06
-2.49812e-06
2.88138e-06
-7.864e-08
-5.69807e-07
4.22191e-06
-4.40951e-06
6.89731e-06
-4.70575e-06
-2.51317e-05
-2.40258e-05
-2.29442e-05
-2.18847e-05
-2.08482e-05
-1.98365e-05
-1.88502e-05
-1.78902e-05
-1.69571e-05
-1.60516e-05
-1.5174e-05
-1.43247e-05
-1.35041e-05
-1.27122e-05
-1.19493e-05
-1.12154e-05
-1.05104e-05
-9.83417e-06
-9.18652e-06
-8.56715e-06
-7.97575e-06
-7.41197e-06
-6.87535e-06
-6.3654e-06
-5.88153e-06
-5.42311e-06
-4.98951e-06
-4.58001e-06
-4.19393e-06
-3.83056e-06
-3.48915e-06
-3.16887e-06
-2.86896e-06
-2.58866e-06
-2.32718e-06
-2.08373e-06
-1.85742e-06
-1.64749e-06
-1.45303e-06
-1.2732e-06
-1.10724e-06
-9.54209e-07
-8.13377e-07
-6.84001e-07
-5.65261e-07
-4.56682e-07
-3.56574e-07
-2.66756e-07
-1.80141e-07
-1.10996e-07
-2.52391e-08
4.89635e-09
1.33526e-07
4.99269e-08
3.62969e-07
-6.58619e-08
8.05385e-07
-5.13096e-07
1.65171e-06
-1.42243e-06
2.88826e-06
-2.47905e-06
3.79303e-06
-2.50035e-06
2.88428e-06
-8.17002e-08
-5.67432e-07
4.22094e-06
-4.41018e-06
6.89854e-06
-4.71684e-06
-2.50934e-05
-2.39876e-05
-2.29062e-05
-2.18472e-05
-2.08113e-05
-1.98003e-05
-1.8815e-05
-1.78559e-05
-1.69239e-05
-1.60195e-05
-1.51431e-05
-1.42951e-05
-1.34757e-05
-1.26851e-05
-1.19235e-05
-1.11908e-05
-1.04871e-05
-9.81214e-06
-9.16571e-06
-8.54754e-06
-7.95732e-06
-7.39467e-06
-6.85914e-06
-6.35024e-06
-5.86737e-06
-5.40992e-06
-4.97724e-06
-4.56863e-06
-4.1834e-06
-3.82083e-06
-3.48018e-06
-3.16063e-06
-2.86141e-06
-2.58176e-06
-2.32088e-06
-2.07798e-06
-1.85219e-06
-1.64273e-06
-1.4487e-06
-1.26929e-06
-1.1037e-06
-9.51026e-07
-8.1053e-07
-6.81463e-07
-5.62988e-07
-4.54674e-07
-3.54783e-07
-2.65179e-07
-1.78785e-07
-1.09782e-07
-2.42859e-08
5.91134e-09
1.34036e-07
5.1018e-08
3.62777e-07
-6.43473e-08
8.04082e-07
-5.107e-07
1.64921e-06
-1.41937e-06
2.88543e-06
-2.4768e-06
3.79191e-06
-2.50084e-06
2.8862e-06
-8.4812e-08
-5.63851e-07
4.21773e-06
-4.40784e-06
6.89648e-06
-4.72551e-06
-2.50476e-05
-2.39419e-05
-2.28608e-05
-2.18023e-05
-2.07672e-05
-1.97571e-05
-1.87728e-05
-1.7815e-05
-1.68843e-05
-1.59812e-05
-1.51062e-05
-1.42597e-05
-1.34418e-05
-1.26527e-05
-1.18926e-05
-1.11615e-05
-1.04593e-05
-9.78583e-06
-9.14087e-06
-8.52414e-06
-7.93532e-06
-7.37402e-06
-6.8398e-06
-6.33215e-06
-5.85048e-06
-5.39418e-06
-4.9626e-06
-4.55505e-06
-4.17083e-06
-3.80922e-06
-3.46948e-06
-3.15079e-06
-2.8524e-06
-2.57351e-06
-2.31335e-06
-2.07111e-06
-1.84594e-06
-1.63704e-06
-1.44354e-06
-1.26462e-06
-1.09948e-06
-9.47231e-07
-8.07133e-07
-6.7843e-07
-5.60278e-07
-4.52273e-07
-3.52651e-07
-2.63295e-07
-1.77173e-07
-1.08318e-07
-2.31682e-08
7.16676e-09
1.34561e-07
5.24646e-08
3.62269e-07
-6.20549e-08
8.01734e-07
-5.06581e-07
1.64435e-06
-1.41311e-06
2.87866e-06
-2.4701e-06
3.78628e-06
-2.49748e-06
2.88565e-06
-8.7559e-08
-5.58174e-07
4.2101e-06
-4.3993e-06
6.8876e-06
-4.72833e-06
-2.49935e-05
-2.38879e-05
-2.28072e-05
-2.17493e-05
-2.07152e-05
-1.97062e-05
-1.87232e-05
-1.77668e-05
-1.68376e-05
-1.59361e-05
-1.50629e-05
-1.4218e-05
-1.34019e-05
-1.26147e-05
-1.18564e-05
-1.11271e-05
-1.04266e-05
-9.75489e-06
-9.11165e-06
-8.49662e-06
-7.90945e-06
-7.34975e-06
-6.81707e-06
-6.31089e-06
-5.83063e-06
-5.37569e-06
-4.9454e-06
-4.53909e-06
-4.15605e-06
-3.79557e-06
-3.4569e-06
-3.13923e-06
-2.84179e-06
-2.56381e-06
-2.3045e-06
-2.06303e-06
-1.83859e-06
-1.63035e-06
-1.43748e-06
-1.25913e-06
-1.09453e-06
-9.42775e-07
-8.03142e-07
-6.74865e-07
-5.57095e-07
-4.4945e-07
-3.50149e-07
-2.61086e-07
-1.75271e-07
-1.06614e-07
-2.18151e-08
8.56628e-09
1.35324e-07
5.38856e-08
3.62149e-07
-6.01558e-08
8.00247e-07
-5.03651e-07
1.64135e-06
-1.40937e-06
2.87518e-06
-2.46733e-06
3.78488e-06
-2.49814e-06
2.88816e-06
-9.17464e-08
-5.5314e-07
4.20525e-06
-4.39506e-06
6.88352e-06
-4.73637e-06
-2.49321e-05
-2.38267e-05
-2.27464e-05
-2.16894e-05
-2.06563e-05
-1.96486e-05
-1.8667e-05
-1.77122e-05
-1.67848e-05
-1.58852e-05
-1.50138e-05
-1.41709e-05
-1.33569e-05
-1.25717e-05
-1.18154e-05
-1.10881e-05
-1.03897e-05
-9.71994e-06
-9.07866e-06
-8.46554e-06
-7.88023e-06
-7.32234e-06
-6.79139e-06
-6.28687e-06
-5.80822e-06
-5.3548e-06
-4.92598e-06
-4.52107e-06
-4.13938e-06
-3.78017e-06
-3.4427e-06
-3.12617e-06
-2.82982e-06
-2.55286e-06
-2.29449e-06
-2.05391e-06
-1.83028e-06
-1.6228e-06
-1.43064e-06
-1.25294e-06
-1.08894e-06
-9.37749e-07
-7.98638e-07
-6.70838e-07
-5.53503e-07
-4.46261e-07
-3.47327e-07
-2.58596e-07
-1.7312e-07
-1.04698e-07
-2.02639e-08
1.01027e-08
1.36268e-07
5.53341e-08
3.62267e-07
-5.84267e-08
7.99215e-07
-5.01278e-07
1.63924e-06
-1.40679e-06
2.87321e-06
-2.46633e-06
3.78537e-06
-2.50063e-06
2.89214e-06
-9.67947e-08
-5.48014e-07
4.2011e-06
-4.39198e-06
6.88075e-06
-4.74565e-06
-2.48634e-05
-2.37582e-05
-2.26785e-05
-2.16224e-05
-2.05905e-05
-1.95842e-05
-1.86043e-05
-1.76513e-05
-1.67258e-05
-1.58283e-05
-1.49591e-05
-1.41184e-05
-1.33066e-05
-1.25237e-05
-1.17697e-05
-1.10447e-05
-1.03485e-05
-9.68098e-06
-9.04188e-06
-8.4309e-06
-7.84767e-06
-7.29179e-06
-6.76278e-06
-6.26012e-06
-5.78325e-06
-5.33154e-06
-4.90436e-06
-4.50101e-06
-4.12081e-06
-3.76301e-06
-3.42689e-06
-3.11163e-06
-2.81648e-06
-2.54065e-06
-2.28334e-06
-2.04374e-06
-1.82103e-06
-1.6144e-06
-1.42302e-06
-1.24605e-06
-1.08272e-06
-9.32152e-07
-7.9362e-07
-6.66352e-07
-5.49503e-07
-4.42708e-07
-3.44186e-07
-2.55824e-07
-1.70723e-07
-1.02568e-07
-1.85266e-08
1.17991e-08
1.37344e-07
5.6899e-08
3.62464e-07
-5.65885e-08
7.98175e-07
-4.98741e-07
1.63696e-06
-1.40389e-06
2.87083e-06
-2.46484e-06
3.78534e-06
-2.50274e-06
2.89598e-06
-1.02142e-07
-5.42045e-07
4.19557e-06
-4.38691e-06
6.87577e-06
-4.75223e-06
-2.47872e-05
-2.36823e-05
-2.26033e-05
-2.15482e-05
-2.05177e-05
-1.95131e-05
-1.8535e-05
-1.75841e-05
-1.66607e-05
-1.57655e-05
-1.48987e-05
-1.40605e-05
-1.32512e-05
-1.24708e-05
-1.17193e-05
-1.09968e-05
-1.03031e-05
-9.63803e-06
-9.00134e-06
-8.39271e-06
-7.81178e-06
-7.25811e-06
-6.73123e-06
-6.23062e-06
-5.75572e-06
-5.3059e-06
-4.88053e-06
-4.4789e-06
-4.10035e-06
-3.74412e-06
-3.40947e-06
-3.09561e-06
-2.80178e-06
-2.52719e-06
-2.27104e-06
-2.03253e-06
-1.81083e-06
-1.60513e-06
-1.41463e-06
-1.23846e-06
-1.07587e-06
-9.25986e-07
-7.88092e-07
-6.61409e-07
-5.45095e-07
-4.38793e-07
-3.40726e-07
-2.52772e-07
-1.6808e-07
-1.00222e-07
-1.66047e-08
1.36567e-08
1.38548e-07
5.85875e-08
3.62725e-07
-5.46188e-08
7.97089e-07
-4.95981e-07
1.63441e-06
-1.40055e-06
2.86789e-06
-2.46267e-06
3.7846e-06
-2.50427e-06
2.89953e-06
-1.0772e-07
-5.35184e-07
4.1885e-06
-4.37952e-06
6.86819e-06
-4.75514e-06
-2.47034e-05
-2.3599e-05
-2.25208e-05
-2.14669e-05
-2.04379e-05
-1.94351e-05
-1.84591e-05
-1.75104e-05
-1.65895e-05
-1.56968e-05
-1.48326e-05
-1.39972e-05
-1.31906e-05
-1.2413e-05
-1.16643e-05
-1.09445e-05
-1.02535e-05
-9.59109e-06
-8.95704e-06
-8.35099e-06
-7.77255e-06
-7.2213e-06
-6.69676e-06
-6.1984e-06
-5.72565e-06
-5.2779e-06
-4.8545e-06
-4.45477e-06
-4.07801e-06
-3.72349e-06
-3.39045e-06
-3.07812e-06
-2.78573e-06
-2.51249e-06
-2.25762e-06
-2.02029e-06
-1.79969e-06
-1.59502e-06
-1.40546e-06
-1.23016e-06
-1.06839e-06
-9.19254e-07
-7.82055e-07
-6.5601e-07
-5.40283e-07
-4.34518e-07
-3.36949e-07
-2.4944e-07
-1.65193e-07
-9.76618e-08
-1.44978e-08
1.56732e-08
1.39884e-07
6.03931e-08
3.63062e-07
-5.25391e-08
7.95992e-07
-4.93054e-07
1.63169e-06
-1.39689e-06
2.86455e-06
-2.46002e-06
3.78336e-06
-2.50544e-06
2.90295e-06
-1.13585e-07
-5.27488e-07
4.18004e-06
-4.37003e-06
6.85824e-06
-4.75412e-06
-2.4612e-05
-2.35081e-05
-2.24309e-05
-2.13784e-05
-2.03511e-05
-1.93504e-05
-1.83766e-05
-1.74304e-05
-1.65121e-05
-1.56222e-05
-1.47609e-05
-1.39284e-05
-1.31248e-05
-1.23502e-05
-1.16045e-05
-1.08877e-05
-1.01997e-05
-9.54018e-06
-8.90899e-06
-8.30573e-06
-7.73001e-06
-7.18138e-06
-6.65938e-06
-6.16346e-06
-5.69306e-06
-5.24755e-06
-4.8263e-06
-4.42862e-06
-4.05381e-06
-3.70113e-06
-3.36984e-06
-3.05916e-06
-2.76834e-06
-2.49657e-06
-2.24306e-06
-2.00701e-06
-1.78762e-06
-1.58405e-06
-1.39552e-06
-1.22117e-06
-1.06028e-06
-9.11956e-07
-7.7551e-07
-6.50157e-07
-5.35066e-07
-4.29884e-07
-3.32855e-07
-2.4583e-07
-1.62061e-07
-9.48886e-08
-1.22062e-08
1.7848e-08
1.41351e-07
6.23146e-08
3.63476e-07
-5.03541e-08
7.9489e-07
-4.89976e-07
1.62882e-06
-1.39295e-06
2.86084e-06
-2.45695e-06
3.78167e-06
-2.50629e-06
2.90627e-06
-1.19762e-07
-5.18962e-07
4.17023e-06
-4.35844e-06
6.84593e-06
-4.74883e-06
-2.45129e-05
-2.34096e-05
-2.23335e-05
-2.12825e-05
-2.02572e-05
-1.92587e-05
-1.82875e-05
-1.7344e-05
-1.64286e-05
-1.55417e-05
-1.46835e-05
-1.38542e-05
-1.30539e-05
-1.22825e-05
-1.154e-05
-1.08265e-05
-1.01416e-05
-9.48531e-06
-8.8572e-06
-8.25695e-06
-7.68415e-06
-7.13836e-06
-6.61909e-06
-6.12581e-06
-5.65794e-06
-5.21485e-06
-4.79592e-06
-4.40045e-06
-4.02775e-06
-3.67706e-06
-3.34765e-06
-3.03875e-06
-2.7496e-06
-2.47941e-06
-2.22738e-06
-1.99271e-06
-1.7746e-06
-1.57223e-06
-1.38481e-06
-1.21149e-06
-1.05154e-06
-9.04096e-07
-7.6846e-07
-6.43853e-07
-5.29448e-07
-4.24893e-07
-3.28447e-07
-2.41941e-07
-1.58686e-07
-9.19028e-08
-9.73059e-09
2.01808e-08
1.42949e-07
6.43527e-08
3.63965e-07
-4.80614e-08
7.93779e-07
-4.86739e-07
1.62578e-06
-1.38871e-06
2.85677e-06
-2.45344e-06
3.77953e-06
-2.50681e-06
2.9095e-06
-1.26254e-07
-5.09597e-07
4.15905e-06
-4.3447e-06
6.8312e-06
-4.73893e-06
-2.44058e-05
-2.33034e-05
-2.22285e-05
-2.11794e-05
-2.01562e-05
-1.91601e-05
-1.81916e-05
-1.72511e-05
-1.63389e-05
-1.54553e-05
-1.46005e-05
-1.37746e-05
-1.29777e-05
-1.22098e-05
-1.14709e-05
-1.07608e-05
-1.00794e-05
-9.42648e-06
-8.80168e-06
-8.20466e-06
-7.635e-06
-7.09225e-06
-6.57592e-06
-6.08546e-06
-5.62031e-06
-5.17983e-06
-4.76339e-06
-4.37029e-06
-3.99984e-06
-3.65128e-06
-3.32389e-06
-3.0169e-06
-2.72954e-06
-2.46104e-06
-2.21059e-06
-1.9774e-06
-1.76066e-06
-1.55957e-06
-1.37334e-06
-1.20111e-06
-1.04218e-06
-8.95676e-07
-7.60909e-07
-6.371e-07
-5.2343e-07
-4.19548e-07
-3.23725e-07
-2.37777e-07
-1.55067e-07
-8.87048e-08
-7.07173e-09
2.26713e-08
1.44676e-07
6.6508e-08
3.64526e-07
-4.56591e-08
7.92653e-07
-4.83339e-07
1.62256e-06
-1.38417e-06
2.85231e-06
-2.44949e-06
3.77691e-06
-2.50702e-06
2.91262e-06
-1.3306e-07
-4.99388e-07
4.14649e-06
-4.32875e-06
6.81398e-06
-4.72419e-06
-2.42908e-05
-2.31893e-05
-2.2116e-05
-2.10688e-05
-2.0048e-05
-1.90546e-05
-1.80891e-05
-1.71518e-05
-1.6243e-05
-1.53629e-05
-1.45117e-05
-1.36896e-05
-1.28964e-05
-1.21323e-05
-1.13971e-05
-1.06908e-05
-1.00131e-05
-9.36372e-06
-8.74246e-06
-8.14888e-06
-7.58257e-06
-7.04307e-06
-6.52987e-06
-6.04244e-06
-5.58019e-06
-5.14249e-06
-4.7287e-06
-4.33813e-06
-3.97008e-06
-3.6238e-06
-3.29856e-06
-2.9936e-06
-2.70817e-06
-2.44146e-06
-2.19269e-06
-1.96107e-06
-1.7458e-06
-1.54607e-06
-1.3611e-06
-1.19005e-06
-1.0322e-06
-8.867e-07
-7.52858e-07
-6.29901e-07
-5.17015e-07
-4.13849e-07
-3.18691e-07
-2.33336e-07
-1.51207e-07
-8.52954e-08
-4.23046e-09
2.5319e-08
1.46532e-07
6.87809e-08
3.65159e-07
-4.3146e-08
7.91509e-07
-4.79774e-07
1.61917e-06
-1.37932e-06
2.84746e-06
-2.44509e-06
3.77383e-06
-2.50689e-06
2.91563e-06
-1.40183e-07
-4.88335e-07
4.13256e-06
-4.31059e-06
6.79426e-06
-4.70447e-06
-2.41676e-05
-2.30674e-05
-2.19958e-05
-2.09507e-05
-1.99326e-05
-1.89421e-05
-1.79799e-05
-1.7046e-05
-1.61408e-05
-1.52646e-05
-1.44173e-05
-1.35991e-05
-1.281e-05
-1.20499e-05
-1.13187e-05
-1.06163e-05
-9.94253e-06
-9.29704e-06
-8.67953e-06
-8.08962e-06
-7.52687e-06
-6.99083e-06
-6.48098e-06
-5.99676e-06
-5.53759e-06
-5.10284e-06
-4.69188e-06
-4.30399e-06
-3.9385e-06
-3.59463e-06
-3.27168e-06
-2.96888e-06
-2.68547e-06
-2.42067e-06
-2.17369e-06
-1.94373e-06
-1.73002e-06
-1.53174e-06
-1.34811e-06
-1.17831e-06
-1.02161e-06
-8.7717e-07
-7.44312e-07
-6.22259e-07
-5.10205e-07
-4.07799e-07
-3.13345e-07
-2.28622e-07
-1.47105e-07
-8.16757e-08
-1.20779e-09
2.81235e-08
1.48515e-07
7.11715e-08
3.6586e-07
-4.0521e-08
7.90344e-07
-4.76039e-07
1.61559e-06
-1.37416e-06
2.84222e-06
-2.44023e-06
3.77027e-06
-2.50645e-06
2.91855e-06
-1.47623e-07
-4.76445e-07
4.11726e-06
-4.29019e-06
6.77203e-06
-4.67972e-06
-2.40362e-05
-2.29374e-05
-2.18678e-05
-2.08252e-05
-1.98098e-05
-1.88226e-05
-1.78639e-05
-1.69337e-05
-1.60325e-05
-1.51603e-05
-1.43172e-05
-1.35032e-05
-1.27184e-05
-1.19626e-05
-1.12356e-05
-1.05375e-05
-9.86785e-06
-9.22645e-06
-8.61293e-06
-8.0269e-06
-7.46794e-06
-6.93556e-06
-6.42924e-06
-5.94842e-06
-5.49252e-06
-5.0609e-06
-4.65292e-06
-4.26788e-06
-3.90509e-06
-3.56379e-06
-3.24326e-06
-2.94274e-06
-2.66148e-06
-2.39869e-06
-2.15359e-06
-1.9254e-06
-1.71333e-06
-1.51658e-06
-1.33437e-06
-1.16588e-06
-1.01041e-06
-8.67092e-07
-7.35273e-07
-6.14177e-07
-5.03002e-07
-4.01401e-07
-3.07692e-07
-2.23634e-07
-1.42764e-07
-7.78467e-08
1.99503e-09
3.1084e-08
1.50623e-07
7.368e-08
3.66628e-07
-3.77828e-08
7.89153e-07
-4.72132e-07
1.61183e-06
-1.36869e-06
2.83657e-06
-2.43492e-06
3.76624e-06
-2.50568e-06
2.92135e-06
-1.55381e-07
-4.63724e-07
4.1006e-06
-4.26758e-06
6.7473e-06
-4.64997e-06
-2.38964e-05
-2.27993e-05
-2.17319e-05
-2.0692e-05
-1.96798e-05
-1.86961e-05
-1.77411e-05
-1.6815e-05
-1.59179e-05
-1.505e-05
-1.42114e-05
-1.3402e-05
-1.26216e-05
-1.18704e-05
-1.1148e-05
-1.04543e-05
-9.78905e-06
-9.15196e-06
-8.54267e-06
-7.96076e-06
-7.40579e-06
-6.87728e-06
-6.37469e-06
-5.89746e-06
-5.445e-06
-5.01668e-06
-4.61185e-06
-4.22982e-06
-3.86987e-06
-3.53127e-06
-3.2133e-06
-2.91518e-06
-2.63619e-06
-2.37552e-06
-2.13241e-06
-1.90607e-06
-1.69574e-06
-1.5006e-06
-1.31989e-06
-1.15279e-06
-9.98597e-07
-8.5647e-07
-7.25747e-07
-6.05659e-07
-4.95411e-07
-3.94656e-07
-3.01731e-07
-2.18376e-07
-1.38185e-07
-7.38098e-08
5.37656e-09
3.41996e-08
1.52856e-07
7.63064e-08
3.67461e-07
-3.49302e-08
7.87933e-07
-4.6805e-07
1.60787e-06
-1.36289e-06
2.83052e-06
-2.42916e-06
3.76174e-06
-2.50459e-06
2.92405e-06
-1.63456e-07
-4.50183e-07
4.08261e-06
-4.24276e-06
6.72008e-06
-4.61528e-06
-2.37482e-05
-2.2653e-05
-2.15881e-05
-2.05512e-05
-1.95424e-05
-1.85624e-05
-1.76115e-05
-1.66897e-05
-1.57971e-05
-1.49339e-05
-1.40999e-05
-1.32953e-05
-1.25198e-05
-1.17733e-05
-1.10557e-05
-1.03667e-05
-9.70614e-06
-9.07361e-06
-8.46877e-06
-7.89119e-06
-7.34044e-06
-6.816e-06
-6.31734e-06
-5.84389e-06
-5.39505e-06
-4.9702e-06
-4.56868e-06
-4.1898e-06
-3.83285e-06
-3.49709e-06
-3.18181e-06
-2.88623e-06
-2.60961e-06
-2.35117e-06
-2.11015e-06
-1.88576e-06
-1.67725e-06
-1.4838e-06
-1.30467e-06
-1.13903e-06
-9.86188e-07
-8.4531e-07
-7.15738e-07
-5.96708e-07
-4.87434e-07
-3.87568e-07
-2.95466e-07
-2.12849e-07
-1.33371e-07
-6.95667e-08
8.93512e-09
3.74692e-08
1.55212e-07
7.90506e-08
3.68356e-07
-3.19618e-08
7.86679e-07
-4.63788e-07
1.60372e-06
-1.35677e-06
2.82406e-06
-2.42293e-06
3.75675e-06
-2.50318e-06
2.92665e-06
-1.71847e-07
-4.35836e-07
4.0633e-06
-4.21578e-06
6.69043e-06
-4.57575e-06
-2.35913e-05
-2.24983e-05
-2.14362e-05
-2.04026e-05
-1.93975e-05
-1.84217e-05
-1.74751e-05
-1.65578e-05
-1.567e-05
-1.48117e-05
-1.39828e-05
-1.31832e-05
-1.24128e-05
-1.16714e-05
-1.09588e-05
-1.02748e-05
-9.61913e-06
-8.99141e-06
-8.39125e-06
-7.81824e-06
-7.2719e-06
-6.75174e-06
-6.25721e-06
-5.78772e-06
-5.34268e-06
-4.92147e-06
-4.52343e-06
-4.14786e-06
-3.79405e-06
-3.46127e-06
-3.1488e-06
-2.85588e-06
-2.58176e-06
-2.32565e-06
-2.08682e-06
-1.86448e-06
-1.65787e-06
-1.46621e-06
-1.28872e-06
-1.12461e-06
-9.73185e-07
-8.33615e-07
-7.05249e-07
-5.87329e-07
-4.79074e-07
-3.8014e-07
-2.88899e-07
-2.07055e-07
-1.28322e-07
-6.51193e-08
1.26688e-08
4.08918e-08
1.57689e-07
8.19124e-08
3.69311e-07
-2.88764e-08
7.85389e-07
-4.59343e-07
1.59935e-06
-1.35031e-06
2.81717e-06
-2.41624e-06
3.75127e-06
-2.50146e-06
2.92913e-06
-1.80551e-07
-4.20699e-07
4.04272e-06
-4.18667e-06
6.65837e-06
-4.5315e-06
-2.34256e-05
-2.23353e-05
-2.12763e-05
-2.02463e-05
-1.92452e-05
-1.82737e-05
-1.73318e-05
-1.64195e-05
-1.55367e-05
-1.46836e-05
-1.386e-05
-1.30658e-05
-1.23007e-05
-1.15646e-05
-1.08573e-05
-1.01786e-05
-9.52806e-06
-8.90537e-06
-8.31014e-06
-7.74191e-06
-7.20021e-06
-6.68453e-06
-6.19431e-06
-5.72897e-06
-5.28791e-06
-4.87051e-06
-4.47611e-06
-4.104e-06
-3.75348e-06
-3.42382e-06
-3.1143e-06
-2.82415e-06
-2.55264e-06
-2.29898e-06
-2.06243e-06
-1.84223e-06
-1.63762e-06
-1.44781e-06
-1.27205e-06
-1.10954e-06
-9.59595e-07
-8.21392e-07
-6.94286e-07
-5.77525e-07
-4.70335e-07
-3.72374e-07
-2.82034e-07
-2.00998e-07
-1.23043e-07
-6.04699e-08
1.65754e-08
4.44658e-08
1.60285e-07
8.48916e-08
3.70323e-07
-2.56726e-08
7.84056e-07
-4.5471e-07
1.59477e-06
-1.34352e-06
2.80986e-06
-2.40909e-06
3.74531e-06
-2.49942e-06
2.9315e-06
-1.89565e-07
-4.04793e-07
4.02088e-06
-4.15549e-06
6.62398e-06
-4.48268e-06
-2.32511e-05
-2.21637e-05
-2.11081e-05
-2.00821e-05
-1.90854e-05
-1.81186e-05
-1.71816e-05
-1.62745e-05
-1.53972e-05
-1.45496e-05
-1.37316e-05
-1.29429e-05
-1.21835e-05
-1.1453e-05
-1.07513e-05
-1.00781e-05
-9.43293e-06
-8.81553e-06
-8.22545e-06
-7.66223e-06
-7.12538e-06
-6.61438e-06
-6.12867e-06
-5.66766e-06
-5.23076e-06
-4.81733e-06
-4.42673e-06
-4.05823e-06
-3.71115e-06
-3.38474e-06
-3.0783e-06
-2.79105e-06
-2.52226e-06
-2.27115e-06
-2.037e-06
-1.81902e-06
-1.6165e-06
-1.42863e-06
-1.25467e-06
-1.09383e-06
-9.45423e-07
-8.08647e-07
-6.82854e-07
-5.67301e-07
-4.61222e-07
-3.64275e-07
-2.74873e-07
-1.94681e-07
-1.17535e-07
-5.56206e-08
2.06528e-08
4.81896e-08
1.62999e-07
8.79878e-08
3.7139e-07
-2.23489e-08
7.82678e-07
-4.49887e-07
1.58998e-06
-1.33639e-06
2.80212e-06
-2.40146e-06
3.73885e-06
-2.49707e-06
2.93376e-06
-1.98885e-07
-3.88139e-07
3.99783e-06
-4.1223e-06
6.58733e-06
-4.42943e-06
-2.30675e-05
-2.19834e-05
-2.09317e-05
-1.99099e-05
-1.8918e-05
-1.79562e-05
-1.70246e-05
-1.6123e-05
-1.52514e-05
-1.44096e-05
-1.35975e-05
-1.28147e-05
-1.20612e-05
-1.13366e-05
-1.06408e-05
-9.97327e-06
-9.33379e-06
-8.72191e-06
-8.13721e-06
-7.57921e-06
-7.04742e-06
-6.54131e-06
-6.06029e-06
-5.6038e-06
-5.17124e-06
-4.76197e-06
-4.37532e-06
-4.01059e-06
-3.66708e-06
-3.34406e-06
-3.04082e-06
-2.75659e-06
-2.49064e-06
-2.24219e-06
-2.01052e-06
-1.79487e-06
-1.59452e-06
-1.40866e-06
-1.23658e-06
-1.07747e-06
-9.30677e-07
-7.95384e-07
-6.70957e-07
-5.56661e-07
-4.51737e-07
-3.55847e-07
-2.67421e-07
-1.88106e-07
-1.11802e-07
-5.05742e-08
2.48983e-08
5.20617e-08
1.65827e-07
9.12005e-08
3.72509e-07
-1.89039e-08
7.81249e-07
-4.44868e-07
1.58495e-06
-1.3289e-06
2.79394e-06
-2.39336e-06
3.73191e-06
-2.4944e-06
2.9359e-06
-2.08508e-07
-3.70762e-07
3.97361e-06
-4.08716e-06
6.54848e-06
-4.37192e-06
-2.28749e-05
-2.17945e-05
-2.07469e-05
-1.97298e-05
-1.8743e-05
-1.77866e-05
-1.68606e-05
-1.59649e-05
-1.50993e-05
-1.42637e-05
-1.34577e-05
-1.26812e-05
-1.19339e-05
-1.12155e-05
-1.05257e-05
-9.86422e-06
-9.23063e-06
-8.62452e-06
-8.04543e-06
-7.49288e-06
-6.96636e-06
-6.46533e-06
-5.98922e-06
-5.53743e-06
-5.10939e-06
-4.70443e-06
-4.32189e-06
-3.96108e-06
-3.62128e-06
-3.30179e-06
-3.00187e-06
-2.72078e-06
-2.45778e-06
-2.2121e-06
-1.98302e-06
-1.76979e-06
-1.57168e-06
-1.38793e-06
-1.21779e-06
-1.06049e-06
-9.15362e-07
-7.81609e-07
-6.586e-07
-5.45609e-07
-4.41886e-07
-3.47093e-07
-2.5968e-07
-1.81277e-07
-1.05848e-07
-4.53334e-08
2.93093e-08
5.60801e-08
1.68768e-07
9.45294e-08
3.73676e-07
-1.53359e-08
7.79766e-07
-4.39649e-07
1.5797e-06
-1.32106e-06
2.7853e-06
-2.38478e-06
3.72446e-06
-2.49143e-06
2.93792e-06
-2.18429e-07
-3.52691e-07
3.94825e-06
-4.05016e-06
6.50754e-06
-4.3103e-06
-2.2673e-05
-2.15967e-05
-2.05537e-05
-1.95417e-05
-1.85603e-05
-1.76097e-05
-1.66897e-05
-1.58002e-05
-1.4941e-05
-1.41118e-05
-1.33123e-05
-1.25423e-05
-1.18015e-05
-1.10895e-05
-1.04062e-05
-9.75094e-06
-9.1235e-06
-8.52339e-06
-7.95014e-06
-7.40325e-06
-6.88222e-06
-6.38648e-06
-5.91546e-06
-5.46857e-06
-5.04521e-06
-4.64474e-06
-4.26647e-06
-3.90972e-06
-3.57379e-06
-3.25794e-06
-2.96148e-06
-2.68365e-06
-2.42371e-06
-2.18089e-06
-1.95449e-06
-1.74377e-06
-1.54801e-06
-1.36643e-06
-1.19831e-06
-1.04288e-06
-8.99484e-07
-7.67328e-07
-6.4579e-07
-5.34152e-07
-4.31673e-07
-3.38017e-07
-2.51656e-07
-1.74198e-07
-9.96743e-08
-3.99009e-08
3.38833e-08
6.02428e-08
1.71819e-07
9.79739e-08
3.74891e-07
-1.16436e-08
7.78224e-07
-4.34225e-07
1.5742e-06
-1.31286e-06
2.77621e-06
-2.37572e-06
3.71651e-06
-2.48816e-06
2.93982e-06
-2.28642e-07
-3.33955e-07
3.92181e-06
-4.01139e-06
6.4646e-06
-4.24473e-06
-2.24618e-05
-2.139e-05
-2.03521e-05
-1.93455e-05
-1.837e-05
-1.74255e-05
-1.65119e-05
-1.5629e-05
-1.47764e-05
-1.3954e-05
-1.31613e-05
-1.23981e-05
-1.16641e-05
-1.09589e-05
-1.02821e-05
-9.63346e-06
-9.01242e-06
-8.41854e-06
-7.85136e-06
-7.31036e-06
-6.79502e-06
-6.30477e-06
-5.83904e-06
-5.39723e-06
-4.97875e-06
-4.58292e-06
-4.20908e-06
-3.85654e-06
-3.5246e-06
-3.21254e-06
-2.91966e-06
-2.6452e-06
-2.38843e-06
-2.14858e-06
-1.92497e-06
-1.71685e-06
-1.52351e-06
-1.34418e-06
-1.17815e-06
-1.02466e-06
-8.83051e-07
-7.52547e-07
-6.3253e-07
-5.22293e-07
-4.21103e-07
-3.28626e-07
-2.43351e-07
-1.66872e-07
-9.32858e-08
-3.42797e-08
3.86172e-08
6.45479e-08
1.74978e-07
1.01534e-07
3.76148e-07
-7.82515e-09
7.76618e-07
-4.28592e-07
1.56845e-06
-1.30429e-06
2.76666e-06
-2.36618e-06
3.70805e-06
-2.48458e-06
2.94159e-06
-2.39142e-07
-3.14588e-07
3.89434e-06
-3.97094e-06
6.41977e-06
-4.17537e-06
-2.22411e-05
-2.11743e-05
-2.01419e-05
-1.91412e-05
-1.81719e-05
-1.72339e-05
-1.63271e-05
-1.54511e-05
-1.46056e-05
-1.37902e-05
-1.30047e-05
-1.22486e-05
-1.15217e-05
-1.08235e-05
-1.01537e-05
-9.5118e-06
-8.8974e-06
-8.31e-06
-7.74912e-06
-7.21423e-06
-6.70479e-06
-6.22024e-06
-5.76e-06
-5.32345e-06
-4.91001e-06
-4.51899e-06
-4.14974e-06
-3.80156e-06
-3.47375e-06
-3.16561e-06
-2.87642e-06
-2.60545e-06
-2.35195e-06
-2.11519e-06
-1.89445e-06
-1.68902e-06
-1.49818e-06
-1.32119e-06
-1.15732e-06
-1.00583e-06
-8.66068e-07
-7.37272e-07
-6.18827e-07
-5.10038e-07
-4.10181e-07
-3.18922e-07
-2.34771e-07
-1.59304e-07
-8.66856e-08
-2.84725e-08
4.35085e-08
6.89933e-08
1.78242e-07
1.05208e-07
3.77446e-07
-3.87904e-09
7.74943e-07
-4.22745e-07
1.56245e-06
-1.29534e-06
2.75663e-06
-2.35614e-06
3.69909e-06
-2.4807e-06
2.94323e-06
-2.49922e-07
-2.94625e-07
3.86589e-06
-3.92892e-06
6.37316e-06
-4.10237e-06
-2.20108e-05
-2.09496e-05
-1.9923e-05
-1.89287e-05
-1.79661e-05
-1.70351e-05
-1.61354e-05
-1.52666e-05
-1.44285e-05
-1.36206e-05
-1.28425e-05
-1.20939e-05
-1.13743e-05
-1.06835e-05
-1.00208e-05
-9.38599e-06
-8.77848e-06
-8.1978e-06
-7.64344e-06
-7.11488e-06
-6.61157e-06
-6.13292e-06
-5.67835e-06
-5.24726e-06
-4.83903e-06
-4.45298e-06
-4.08847e-06
-3.74479e-06
-3.42125e-06
-3.11715e-06
-2.83178e-06
-2.56441e-06
-2.31431e-06
-2.08072e-06
-1.86295e-06
-1.66029e-06
-1.47204e-06
-1.29746e-06
-1.13582e-06
-9.86393e-07
-8.48542e-07
-7.21509e-07
-6.04687e-07
-4.97392e-07
-3.98912e-07
-3.08911e-07
-2.2592e-07
-1.51496e-07
-7.98772e-08
-2.24824e-08
4.85541e-08
7.35771e-08
1.8161e-07
1.08996e-07
3.78782e-07
1.96407e-10
7.73195e-07
-4.16679e-07
1.55619e-06
-1.28601e-06
2.74612e-06
-2.34562e-06
3.68962e-06
-2.47653e-06
2.94474e-06
-2.60977e-07
-2.74103e-07
3.83652e-06
-3.88543e-06
6.32491e-06
-4.02592e-06
-2.17709e-05
-2.07157e-05
-1.96955e-05
-1.8708e-05
-1.77524e-05
-1.68288e-05
-1.59366e-05
-1.50756e-05
-1.42452e-05
-1.3445e-05
-1.26748e-05
-1.19339e-05
-1.1222e-05
-1.05388e-05
-9.88359e-06
-9.25607e-06
-8.65569e-06
-8.08197e-06
-7.53437e-06
-7.01236e-06
-6.51537e-06
-6.04283e-06
-5.59413e-06
-5.16867e-06
-4.76582e-06
-4.38492e-06
-4.02529e-06
-3.68626e-06
-3.36712e-06
-3.0672e-06
-2.78577e-06
-2.52211e-06
-2.2755e-06
-2.04518e-06
-1.83048e-06
-1.63069e-06
-1.44511e-06
-1.273e-06
-1.11366e-06
-9.66362e-07
-8.3048e-07
-7.05265e-07
-5.90115e-07
-4.84361e-07
-3.87302e-07
-2.98597e-07
-2.168e-07
-1.43453e-07
-7.28641e-08
-1.63121e-08
5.37515e-08
7.8297e-08
1.85079e-07
1.12898e-07
3.80152e-07
4.40286e-09
7.71369e-07
-4.10389e-07
1.54966e-06
-1.27629e-06
2.73512e-06
-2.3346e-06
3.67963e-06
-2.47207e-06
2.94612e-06
-2.723e-07
-2.53064e-07
3.80629e-06
-3.8406e-06
6.27514e-06
-3.94618e-06
-2.15212e-05
-2.04725e-05
-1.94593e-05
-1.84791e-05
-1.75311e-05
-1.66152e-05
-1.5731e-05
-1.48779e-05
-1.40556e-05
-1.32636e-05
-1.25015e-05
-1.17687e-05
-1.10648e-05
-1.03894e-05
-9.742e-06
-9.12205e-06
-8.52907e-06
-7.96255e-06
-7.42194e-06
-6.90669e-06
-6.41625e-06
-5.95001e-06
-5.50737e-06
-5.08771e-06
-4.69042e-06
-4.31482e-06
-3.96022e-06
-3.62599e-06
-3.31139e-06
-3.01576e-06
-2.7384e-06
-2.47856e-06
-2.23555e-06
-2.0086e-06
-1.79706e-06
-1.60021e-06
-1.41738e-06
-1.24783e-06
-1.09085e-06
-9.45745e-07
-8.1189e-07
-6.88545e-07
-5.75117e-07
-4.7095e-07
-3.75355e-07
-2.87986e-07
-2.07418e-07
-1.35179e-07
-6.56496e-08
-9.96431e-09
5.90979e-08
8.31511e-08
1.88646e-07
1.16913e-07
3.81554e-07
8.74198e-09
7.69459e-07
-4.03871e-07
1.54284e-06
-1.26617e-06
2.72363e-06
-2.32308e-06
3.66913e-06
-2.46733e-06
2.94736e-06
-2.83885e-07
-2.3155e-07
3.77527e-06
-3.79457e-06
6.22401e-06
-3.86332e-06
-2.12617e-05
-2.02201e-05
-1.92144e-05
-1.82419e-05
-1.73018e-05
-1.63942e-05
-1.55183e-05
-1.46737e-05
-1.38599e-05
-1.30764e-05
-1.23227e-05
-1.15983e-05
-1.09027e-05
-1.02355e-05