/*--------------------------------*- C++ -*----------------------------------*\
| =========                 |                                                 |
| \\      /  F ield         | OpenFOAM: The Open Source CFD Toolbox           |
|  \\    /   O peration     | Version:  2412                                  |
|   \\  /    A nd           | Website:  www.openfoam.com                      |
|    \\/     M anipulation  |                                                 |
\*---------------------------------------------------------------------------*/
FoamFile
{
    version     2.0;
    format      ascii;
    arch        "LSB;label=32;scalar=64";
    class       surfaceScalarField;
    location    "9.5";
    object      phi;
}
// * * * * * * * * * * * * * * * * * * * * * * * * * * * * * * * * * * * * * //

dimensions      [0 3 -1 0 0 0 0];

oriented        oriented;

internalField   nonuniform List<scalar> 
10424
(
0.00500952
-2.63479e-06
-1.03034e-09
0.00501204
-2.52158e-06
-1.20939e-09
0.00501446
-2.41169e-06
-1.38289e-09
0.00501676
-2.30508e-06
-1.56917e-09
0.00501897
-2.20168e-06
-1.77373e-09
0.00502107
-2.10143e-06
-2.00468e-09
0.00502308
-2.00426e-06
-2.26584e-09
0.00502499
-1.91012e-06
-2.55516e-09
0.00502681
-1.81895e-06
-2.86357e-09
0.00502854
-1.73072e-06
-3.17286e-09
0.00503019
-1.64539e-06
-3.46472e-09
0.00503176
-1.5629e-06
-3.72071e-09
0.00503325
-1.48322e-06
-3.92589e-09
0.00503466
-1.40627e-06
-4.08041e-09
0.00503599
-1.332e-06
-4.19832e-09
0.00503726
-1.26032e-06
-4.30445e-09
0.00503845
-1.19117e-06
-4.42747e-09
0.00503958
-1.12448e-06
-4.57786e-09
0.00504065
-1.06022e-06
-4.73867e-09
0.00504165
-9.98412e-07
-4.85869e-09
0.0050426
-9.3906e-07
-4.87902e-09
0.00504348
-8.82129e-07
-4.79261e-09
0.00504431
-8.27548e-07
-4.63163e-09
0.00504509
-7.75201e-07
-4.46815e-09
0.00504582
-7.24968e-07
-4.39889e-09
0.0050465
-6.76729e-07
-4.51333e-09
0.00504714
-6.30458e-07
-4.79336e-09
0.00504773
-5.86225e-07
-5.12814e-09
0.00504828
-5.44149e-07
-5.35128e-09
0.00504879
-5.04248e-07
-5.41066e-09
0.00504926
-4.66579e-07
-5.21285e-09
0.0050497
-4.31034e-07
-4.85742e-09
0.0050501
-3.97536e-07
-4.4024e-09
0.00505047
-3.65886e-07
-4.0247e-09
0.00505081
-3.36009e-07
-3.76107e-09
0.00505112
-3.07841e-07
-3.63654e-09
0.00505141
-2.81372e-07
-3.63375e-09
0.00505167
-2.56588e-07
-3.72353e-09
0.0050519
-2.33683e-07
-3.72643e-09
0.00505212
-2.12602e-07
-3.66251e-09
0.00505232
-1.93364e-07
-3.49507e-09
0.0050525
-1.75902e-07
-3.2898e-09
0.00505266
-1.6017e-07
-3.15125e-09
0.00505281
-1.46029e-07
-3.21884e-09
0.00505295
-1.33656e-07
-3.33951e-09
0.00505307
-1.23058e-07
-3.53471e-09
0.00505319
-1.14484e-07
-3.5565e-09
0.0050533
-1.07867e-07
-3.60679e-09
0.00505341
-1.03513e-07
-3.4018e-09
0.00505351
-1.01515e-07
-3.16986e-09
0.00505362
-1.01735e-07
-2.77401e-09
0.00505373
-1.0509e-07
-2.37616e-09
0.00505384
-1.09837e-07
-2.19859e-09
0.00505396
-1.20327e-07
-1.93692e-09
0.00505409
-1.29733e-07
-1.5011e-09
0.00505424
-1.52331e-07
-1.08404e-09
0.00505441
-1.63245e-07
-6.81786e-10
0.00505462
-2.07401e-07
-4.292e-10
0.00505483
-2.12219e-07
1.2922e-10
0.00505512
-2.94823e-07
2.54505e-10
0.0050554
-2.81476e-07
1.88792e-10
0.00505582
-4.20892e-07
5.76455e-10
0.00505621
-3.868e-07
8.34714e-10
0.00505679
-5.8229e-07
5.7525e-10
0.00505734
-5.46809e-07
7.33254e-10
0.00505813
-7.88878e-07
2.1256e-09
0.00505881
-6.91633e-07
2.95592e-09
0.00506002
-1.20809e-06
2.69746e-09
0.00506069
-6.76814e-07
4.47752e-09
0.00506159
-8.96233e-07
2.55777e-09
-2.28352e-06
4.29706e-09
0.00500955
-5.26836e-06
0.00501207
-5.04227e-06
0.00501448
-4.82282e-06
0.00501679
-4.60993e-06
0.00501899
-4.40347e-06
0.00502109
-4.20332e-06
0.00502309
-4.00936e-06
0.00502501
-3.82148e-06
0.00502683
-3.63956e-06
0.00502856
-3.46351e-06
0.00503021
-3.29322e-06
0.00503177
-3.12858e-06
0.00503326
-2.9695e-06
0.00503467
-2.81584e-06
0.005036
-2.66748e-06
0.00503727
-2.52429e-06
0.00503846
-2.38616e-06
0.00503959
-2.25297e-06
0.00504066
-2.12468e-06
0.00504166
-2.00122e-06
0.0050426
-1.88258e-06
0.00504349
-1.76867e-06
0.00504432
-1.65938e-06
0.0050451
-1.55456e-06
0.00504583
-1.45406e-06
0.00504651
-1.35772e-06
0.00504715
-1.26549e-06
0.00504774
-1.17738e-06
0.00504829
-1.09347e-06
0.0050488
-1.01375e-06
0.00504927
-9.38241e-07
0.0050497
-8.66804e-07
0.0050501
-7.99369e-07
0.00505047
-7.35704e-07
0.00505081
-6.75697e-07
0.00505113
-6.19262e-07
0.00505141
-5.6632e-07
0.00505167
-5.16871e-07
0.00505191
-4.71063e-07
0.00505212
-4.28847e-07
0.00505232
-3.90214e-07
0.0050525
-3.55092e-07
0.00505266
-3.23492e-07
0.00505281
-2.9528e-07
0.00505295
-2.70677e-07
0.00505308
-2.49661e-07
0.00505319
-2.32558e-07
0.00505331
-2.19367e-07
0.00505341
-2.10468e-07
0.00505352
-2.06229e-07
0.00505362
-2.06286e-07
0.00505373
-2.12595e-07
0.00505384
-2.21916e-07
0.00505396
-2.42656e-07
0.0050541
-2.61012e-07
0.00505425
-3.0581e-07
0.00505441
-3.27215e-07
0.00505462
-4.15323e-07
0.00505483
-4.2436e-07
0.00505513
-5.89511e-07
0.00505541
-5.62812e-07
0.00505583
-8.41364e-07
0.00505622
-7.72863e-07
0.0050568
-1.16418e-06
0.00505734
-1.09341e-06
0.00505813
-1.57471e-06
0.00505882
-1.38515e-06
0.00506002
-2.40254e-06
0.00506071
-1.36719e-06
0.0050616
-1.79278e-06
-4.52849e-06
0.00500961
-7.89745e-06
0.00501212
-7.55879e-06
0.00501453
-7.23009e-06
0.00501683
-6.91119e-06
0.00501903
-6.60194e-06
0.00502113
-6.30214e-06
0.00502313
-6.01163e-06
0.00502504
-5.73022e-06
0.00502686
-5.45776e-06
0.00502859
-5.19407e-06
0.00503023
-4.939e-06
0.0050318
-4.69239e-06
0.00503328
-4.45406e-06
0.00503469
-4.22382e-06
0.00503602
-4.0015e-06
0.00503729
-3.78693e-06
0.00503848
-3.57993e-06
0.00503961
-3.38036e-06
0.00504067
-3.18812e-06
0.00504167
-3.00311e-06
0.00504262
-2.82526e-06
0.0050435
-2.65445e-06
0.00504433
-2.49051e-06
0.00504511
-2.33329e-06
0.00504584
-2.18257e-06
0.00504652
-2.0382e-06
0.00504715
-1.90006e-06
0.00504775
-1.76813e-06
0.00504829
-1.64244e-06
0.0050488
-1.52294e-06
0.00504928
-1.40962e-06
0.00504971
-1.30233e-06
0.00505011
-1.20099e-06
0.00505048
-1.10534e-06
0.00505082
-1.01524e-06
0.00505113
-9.30549e-07
0.00505142
-8.5117e-07
0.00505168
-7.77064e-07
0.00505192
-7.08381e-07
0.00505213
-6.45045e-07
0.00505233
-5.87032e-07
0.00505251
-5.34269e-07
0.00505267
-4.86817e-07
0.00505282
-4.44552e-07
0.00505296
-4.07717e-07
0.00505308
-3.76308e-07
0.0050532
-3.50668e-07
0.00505331
-3.30928e-07
0.00505342
-3.17481e-07
0.00505352
-3.11014e-07
0.00505363
-3.10901e-07
0.00505374
-3.2018e-07
0.00505385
-3.3408e-07
0.00505397
-3.65074e-07
0.0050541
-3.92404e-07
0.00505426
-4.59406e-07
0.00505442
-4.91301e-07
0.00505463
-6.23388e-07
0.00505484
-6.36615e-07
0.00505514
-8.84409e-07
0.00505542
-8.44246e-07
0.00505584
-1.26215e-06
0.00505622
-1.15912e-06
0.00505681
-1.74639e-06
0.00505735
-1.64104e-06
0.00505814
-2.35873e-06
0.00505884
-2.08807e-06
0.00506001
-3.5757e-06
0.00506074
-2.09272e-06
0.00506164
-2.69488e-06
-6.70663e-06
0.00500969
-1.05198e-05
0.0050122
-1.00691e-05
0.0050146
-9.63155e-06
0.0050169
-9.20708e-06
0.00501909
-8.79543e-06
0.00502119
-8.39637e-06
0.00502318
-8.00965e-06
0.00502509
-7.63505e-06
0.0050269
-7.27234e-06
0.00502863
-6.92131e-06
0.00503027
-6.58173e-06
0.00503183
-6.25338e-06
0.00503332
-5.93602e-06
0.00503472
-5.62942e-06
0.00503605
-5.33334e-06
0.00503731
-5.04756e-06
0.00503851
-4.77187e-06
0.00503963
-4.50608e-06
0.00504069
-4.25003e-06
0.00504169
-4.0036e-06
0.00504264
-3.76667e-06
0.00504352
-3.53907e-06
0.00504435
-3.3206e-06
0.00504513
-3.11106e-06
0.00504586
-2.91023e-06
0.00504654
-2.71791e-06
0.00504717
-2.53394e-06
0.00504776
-2.35826e-06
0.00504831
-2.19085e-06
0.00504882
-2.03163e-06
0.00504929
-1.88057e-06
0.00504972
-1.73749e-06
0.00505012
-1.60229e-06
0.00505049
-1.4747e-06
0.00505083
-1.35453e-06
0.00505114
-1.24163e-06
0.00505143
-1.13585e-06
0.00505169
-1.03712e-06
0.00505193
-9.4559e-07
0.00505214
-8.61162e-07
0.00505234
-7.83796e-07
0.00505252
-7.1342e-07
0.00505268
-6.50136e-07
0.00505283
-5.93837e-07
0.00505297
-5.44787e-07
0.00505309
-5.02997e-07
0.00505321
-4.68832e-07
0.00505332
-4.42557e-07
0.00505343
-4.24574e-07
0.00505354
-4.15887e-07
0.00505364
-4.15612e-07
0.00505375
-4.27872e-07
0.00505386
-4.46361e-07
0.00505398
-4.87631e-07
0.00505411
-5.23936e-07
0.00505427
-6.13166e-07
0.00505443
-6.5553e-07
0.00505464
-8.31663e-07
0.00505485
-8.49013e-07
0.00505515
-1.17961e-06
0.00505543
-1.12581e-06
0.00505585
-1.68337e-06
0.00505624
-1.54563e-06
0.00505682
-2.32906e-06
0.00505737
-2.19014e-06
0.00505815
-3.14014e-06
0.00505887
-2.80455e-06
0.00506001
-4.7183e-06
0.00506079
-2.86876e-06
0.0050617
-3.60488e-06
-8.78873e-06
0.0050098
-1.31333e-05
0.0050123
-1.2571e-05
0.0050147
-1.20253e-05
0.00501699
-1.14958e-05
0.00501917
-1.09823e-05
0.00502126
-1.04845e-05
0.00502325
-1.0002e-05
0.00502515
-9.53466e-06
0.00502696
-9.08211e-06
0.00502869
-8.64411e-06
0.00503032
-8.22036e-06
0.00503188
-7.8106e-06
0.00503336
-7.41452e-06
0.00503476
-7.03184e-06
0.00503609
-6.66226e-06
0.00503735
-6.30552e-06
0.00503854
-5.96136e-06
0.00503966
-5.62955e-06
0.00504072
-5.30989e-06
0.00504172
-5.00222e-06
0.00504266
-4.70636e-06
0.00504354
-4.42212e-06
0.00504437
-4.14927e-06
0.00504515
-3.88755e-06
0.00504588
-3.63673e-06
0.00504655
-3.39656e-06
0.00504719
-3.16687e-06
0.00504778
-2.94753e-06
0.00504832
-2.7385e-06
0.00504883
-2.53965e-06
0.0050493
-2.35092e-06
0.00504974
-2.17212e-06
0.00505014
-2.00313e-06
0.00505051
-1.84365e-06
0.00505085
-1.69348e-06
0.00505116
-1.55241e-06
0.00505144
-1.42028e-06
0.0050517
-1.29698e-06
0.00505194
-1.18264e-06
0.00505215
-1.07715e-06
0.00505235
-9.80471e-07
0.00505253
-8.92517e-07
0.00505269
-8.1343e-07
0.00505284
-7.4312e-07
0.00505298
-6.81878e-07
0.00505311
-6.29722e-07
0.00505322
-5.87052e-07
0.00505334
-5.54259e-07
0.00505344
-5.31753e-07
0.00505355
-5.20854e-07
0.00505365
-5.20431e-07
0.00505376
-5.35687e-07
0.00505387
-5.5878e-07
0.005054
-6.10348e-07
0.00505413
-6.55631e-07
0.00505428
-7.67115e-07
0.00505445
-8.19927e-07
0.00505465
-1.04018e-06
0.00505487
-1.06158e-06
0.00505516
-1.47514e-06
0.00505544
-1.40753e-06
0.00505587
-2.10511e-06
0.00505625
-1.93246e-06
0.00505684
-2.91227e-06
0.00505739
-2.7411e-06
0.00505817
-3.91826e-06
0.0050589
-3.53811e-06
0.00506
-5.82264e-06
0.00506084
-3.70805e-06
0.00506176
-4.52468e-06
-1.07503e-05
0.00500994
-1.57357e-05
0.00501243
-1.50627e-05
0.00501482
-1.44095e-05
0.0050171
-1.37757e-05
0.00501928
-1.31609e-05
0.00502136
-1.25649e-05
0.00502334
-1.19873e-05
0.00502523
-1.14277e-05
0.00502704
-1.08859e-05
0.00502876
-1.03614e-05
0.00503039
-9.85388e-06
0.00503194
-9.36311e-06
0.00503342
-8.88869e-06
0.00503481
-8.43026e-06
0.00503614
-7.98751e-06
0.00503739
-7.5601e-06
0.00503858
-7.14775e-06
0.0050397
-6.75018e-06
0.00504076
-6.36716e-06
0.00504175
-5.99847e-06
0.00504269
-5.64389e-06
0.00504357
-5.3032e-06
0.0050444
-4.97613e-06
0.00504517
-4.6624e-06
0.0050459
-4.36173e-06
0.00504658
-4.07387e-06
0.00504721
-3.79858e-06
0.0050478
-3.53571e-06
0.00504834
-3.28516e-06
0.00504885
-3.04679e-06
0.00504932
-2.82049e-06
0.00504975
-2.60606e-06
0.00505015
-2.40336e-06
0.00505052
-2.21208e-06
0.00505086
-2.03197e-06
0.00505117
-1.8628e-06
0.00505146
-1.70437e-06
0.00505172
-1.55655e-06
0.00505195
-1.41945e-06
0.00505217
-1.29296e-06
0.00505236
-1.177e-06
0.00505254
-1.07152e-06
0.00505271
-9.76663e-07
0.00505286
-8.92372e-07
0.00505299
-8.18963e-07
0.00505312
-7.56463e-07
0.00505324
-7.0531e-07
0.00505335
-6.6602e-07
0.00505346
-6.39009e-07
0.00505356
-6.25912e-07
0.00505367
-6.25353e-07
0.00505377
-6.43625e-07
0.00505389
-6.71339e-07
0.00505401
-7.33227e-07
0.00505414
-7.87493e-07
0.0050543
-9.21261e-07
0.00505446
-9.84492e-07
0.00505467
-1.24894e-06
0.00505488
-1.27431e-06
0.00505518
-1.77106e-06
0.00505546
-1.68938e-06
0.00505588
-2.52742e-06
0.00505627
-2.31959e-06
0.00505685
-3.4961e-06
0.00505741
-3.29417e-06
0.00505818
-4.69254e-06
0.00505893
-4.29146e-06
0.00505999
-6.88295e-06
0.00506091
-4.62023e-06
0.00506184
-5.45553e-06
-1.25727e-05
0.00501011
-1.83248e-05
0.00501259
-1.7542e-05
0.00501496
-1.67822e-05
0.00501723
-1.60449e-05
0.0050194
-1.53297e-05
0.00502147
-1.46363e-05
0.00502344
-1.39642e-05
0.00502533
-1.3313e-05
0.00502713
-1.26824e-05
0.00502884
-1.20719e-05
0.00503046
-1.14813e-05
0.00503201
-1.09099e-05
0.00503348
-1.03576e-05
0.00503487
-9.82387e-06
0.00503619
-9.30832e-06
0.00503745
-8.81061e-06
0.00503863
-8.33041e-06
0.00503974
-7.86739e-06
0.0050408
-7.42128e-06
0.00504179
-6.99183e-06
0.00504273
-6.57879e-06
0.00504361
-6.18188e-06
0.00504443
-5.80079e-06
0.0050452
-5.43524e-06
0.00504593
-5.08491e-06
0.0050466
-4.74952e-06
0.00504723
-4.42879e-06
0.00504782
-4.12253e-06
0.00504836
-3.83061e-06
0.00504887
-3.55283e-06
0.00504934
-3.28908e-06
0.00504977
-3.03914e-06
0.00505017
-2.80283e-06
0.00505054
-2.57983e-06
0.00505088
-2.36986e-06
0.00505119
-2.17266e-06
0.00505147
-1.98801e-06
0.00505173
-1.81573e-06
0.00505197
-1.65594e-06
0.00505218
-1.5085e-06
0.00505238
-1.37333e-06
0.00505256
-1.25036e-06
0.00505272
-1.13978e-06
0.00505287
-1.04155e-06
0.00505301
-9.56001e-07
0.00505313
-8.83184e-07
0.00505325
-8.23576e-07
0.00505336
-7.77809e-07
0.00505347
-7.46319e-07
0.00505358
-7.31026e-07
0.00505368
-7.30376e-07
0.00505379
-7.5163e-07
0.0050539
-7.84092e-07
0.00505402
-8.56108e-07
0.00505416
-9.19767e-07
0.00505431
-1.07512e-06
0.00505448
-1.14999e-06
0.00505468
-1.45668e-06
0.0050549
-1.48906e-06
0.00505519
-2.06464e-06
0.00505548
-1.97485e-06
0.0050559
-2.94607e-06
0.00505629
-2.71161e-06
0.00505687
-4.07623e-06
0.00505743
-3.85272e-06
0.0050582
-5.46143e-06
0.00505897
-5.06488e-06
0.00505999
-7.90005e-06
0.00506097
-5.60476e-06
0.00506192
-6.40561e-06
-1.42369e-05
0.0052505
-2.10216e-05
0.00525308
-2.01249e-05
0.00525555
-1.92545e-05
0.00525792
-1.84097e-05
0.00526018
-1.75902e-05
0.00526234
-1.67956e-05
0.0052644
-1.60253e-05
0.00526637
-1.52789e-05
0.00526824
-1.45561e-05
0.00527002
-1.38562e-05
0.00527172
-1.31789e-05
0.00527334
-1.25238e-05
0.00527487
-1.18904e-05
0.00527632
-1.12782e-05
0.0052777
-1.06869e-05
0.00527901
-1.01159e-05
0.00528024
-9.56504e-06
0.00528141
-9.03382e-06
0.00528251
-8.52195e-06
0.00528355
-8.02916e-06
0.00528452
-7.55515e-06
0.00528544
-7.0996e-06
0.0052863
-6.66219e-06
0.00528711
-6.24257e-06
0.00528786
-5.84042e-06
0.00528857
-5.45543e-06
0.00528923
-5.08728e-06
0.00528984
-4.73573e-06
0.00529041
-4.40061e-06
0.00529094
-4.08171e-06
0.00529143
-3.77886e-06
0.00529188
-3.49183e-06
0.0052923
-3.22043e-06
0.00529268
-2.9643e-06
0.00529304
-2.72315e-06
0.00529336
-2.49667e-06
0.00529366
-2.28462e-06
0.00529393
-2.08681e-06
0.00529418
-1.90332e-06
0.0052944
-1.73398e-06
0.00529461
-1.57875e-06
0.00529479
-1.43752e-06
0.00529497
-1.31052e-06
0.00529512
-1.19772e-06
0.00529527
-1.0995e-06
0.0052954
-1.0159e-06
0.00529552
-9.4747e-07
0.00529564
-8.94928e-07
0.00529575
-8.58804e-07
0.00529586
-8.41151e-07
0.00529597
-8.40599e-07
0.00529608
-8.64635e-07
0.0052962
-9.02839e-07
0.00529633
-9.84032e-07
0.00529647
-1.06028e-06
0.00529663
-1.23334e-06
0.00529681
-1.32884e-06
0.00529702
-1.6661e-06
0.00529726
-1.72697e-06
0.00529755
-2.35454e-06
0.00529787
-2.29783e-06
0.00529828
-3.35663e-06
0.00529872
-3.15389e-06
0.0052993
-4.65539e-06
0.00529991
-4.46235e-06
0.0053007
-6.25438e-06
0.00530153
-5.88939e-06
0.00530257
-8.94272e-06
0.00530365
-6.67927e-06
0.0053047
-7.46455e-06
-1.57643e-05
0.00525074
-2.36991e-05
0.0052533
-2.26899e-05
0.00525576
-2.171e-05
0.00525811
-2.0759e-05
0.00526035
-1.98363e-05
0.0052625
-1.89415e-05
0.00526455
-1.8074e-05
0.0052665
-1.72334e-05
0.00526836
-1.64191e-05
0.00527014
-1.56307e-05
0.00527183
-1.48676e-05
0.00527343
-1.41293e-05
0.00527496
-1.34155e-05
0.00527641
-1.27255e-05
0.00527778
-1.20589e-05
0.00527908
-1.14152e-05
0.00528031
-1.07941e-05
0.00528147
-1.01951e-05
0.00528256
-9.61788e-06
0.0052836
-9.06213e-06
0.00528457
-8.52751e-06
0.00528548
-8.01365e-06
0.00528634
-7.52021e-06
0.00528714
-7.04682e-06
0.0052879
-6.59312e-06
0.0052886
-6.15876e-06
0.00528926
-5.74341e-06
0.00528987
-5.34678e-06
0.00529044
-4.96867e-06
0.00529096
-4.60883e-06
0.00529145
-4.26706e-06
0.0052919
-3.94311e-06
0.00529232
-3.63676e-06
0.0052927
-3.34763e-06
0.00529305
-3.07542e-06
0.00529338
-2.81978e-06
0.00529367
-2.58044e-06
0.00529394
-2.35719e-06
0.00529419
-2.15008e-06
0.00529442
-1.95895e-06
0.00529462
-1.78372e-06
0.00529481
-1.62431e-06
0.00529498
-1.48096e-06
0.00529513
-1.35365e-06
0.00529528
-1.24279e-06
0.00529541
-1.14845e-06
0.00529553
-1.07124e-06
0.00529565
-1.01195e-06
0.00529576
-9.71227e-07
0.00529587
-9.51225e-07
0.00529598
-9.5082e-07
0.0052961
-9.77608e-07
0.00529621
-1.02169e-06
0.00529634
-1.11185e-06
0.00529648
-1.20111e-06
0.00529664
-1.39114e-06
0.00529682
-1.50855e-06
0.00529703
-1.87426e-06
0.00529727
-1.96691e-06
0.00529756
-2.64174e-06
0.00529788
-2.62457e-06
0.00529829
-3.76297e-06
0.00529874
-3.6014e-06
0.00529931
-5.23026e-06
0.00529993
-5.07811e-06
0.00530071
-7.04104e-06
0.00530156
-6.73688e-06
0.00530256
-9.93779e-06
0.00530371
-7.83409e-06
0.00530479
-8.54393e-06
-1.7115e-05
0.005251
-2.63551e-05
0.00525355
-2.52348e-05
0.00525598
-2.41469e-05
0.00525832
-2.30909e-05
0.00526055
-2.20663e-05
0.00526268
-2.10725e-05
0.00526471
-2.01089e-05
0.00526665
-1.9175e-05
0.0052685
-1.82702e-05
0.00527027
-1.7394e-05
0.00527195
-1.65459e-05
0.00527354
-1.57254e-05
0.00527506
-1.49318e-05
0.0052765
-1.41646e-05
0.00527786
-1.34233e-05
0.00527915
-1.27075e-05
0.00528038
-1.20167e-05
0.00528153
-1.13505e-05
0.00528262
-1.07084e-05
0.00528365
-1.00901e-05
0.00528462
-9.49527e-06
0.00528553
-8.92348e-06
0.00528638
-8.37435e-06
0.00528718
-7.8475e-06
0.00528793
-7.34254e-06
0.00528863
-6.8591e-06
0.00528929
-6.3968e-06
0.00528989
-5.95534e-06
0.00529046
-5.53446e-06
0.00529099
-5.13388e-06
0.00529147
-4.75339e-06
0.00529192
-4.3927e-06
0.00529234
-4.05156e-06
0.00529272
-3.7296e-06
0.00529307
-3.42645e-06
0.00529339
-3.14178e-06
0.00529369
-2.87527e-06
0.00529396
-2.62669e-06
0.0052942
-2.39607e-06
0.00529443
-2.18324e-06
0.00529463
-1.98811e-06
0.00529482
-1.81061e-06
0.00529499
-1.65097e-06
0.00529514
-1.50921e-06
0.00529529
-1.38576e-06
0.00529542
-1.28074e-06
0.00529554
-1.19479e-06
0.00529566
-1.12879e-06
0.00529577
-1.08349e-06
0.00529588
-1.06117e-06
0.00529599
-1.06093e-06
0.0052961
-1.0905e-06
0.00529622
-1.14046e-06
0.00529635
-1.23963e-06
0.00529649
-1.34187e-06
0.00529665
-1.54893e-06
0.00529683
-1.68813e-06
0.00529704
-2.08247e-06
0.00529728
-2.20661e-06
0.00529756
-2.92913e-06
0.00529789
-2.95091e-06
0.0052983
-4.1698e-06
0.00529874
-4.04863e-06
0.00529932
-5.8057e-06
0.00529994
-5.69607e-06
0.00530072
-7.82296e-06
0.00530159
-7.60796e-06
0.00530254
-1.08839e-05
0.00530377
-9.07136e-06
0.00530486
-9.63364e-06
-1.83081e-05
0.00525129
-2.89872e-05
0.00525382
-2.77575e-05
0.00525623
-2.65631e-05
0.00525855
-2.54036e-05
0.00526076
-2.42783e-05
0.00526287
-2.31868e-05
0.00526489
-2.21282e-05
0.00526682
-2.11022e-05
0.00526866
-2.0108e-05
0.00527041
-1.91451e-05
0.00527207
-1.82129e-05
0.00527366
-1.73108e-05
0.00527517
-1.64382e-05
0.0052766
-1.55946e-05
0.00527795
-1.47794e-05
0.00527924
-1.39921e-05
0.00528045
-1.32322e-05
0.0052816
-1.24992e-05
0.00528269
-1.17928e-05
0.00528371
-1.11124e-05
0.00528467
-1.04578e-05
0.00528558
-9.82851e-06
0.00528643
-9.22408e-06
0.00528722
-8.64413e-06
0.00528797
-8.08824e-06
0.00528866
-7.55601e-06
0.00528931
-7.04706e-06
0.00528992
-6.56102e-06
0.00529048
-6.09762e-06
0.00529101
-5.65654e-06
0.00529149
-5.23754e-06
0.00529194
-4.84032e-06
0.00529235
-4.46458e-06
0.00529273
-4.10994e-06
0.00529308
-3.77603e-06
0.0052934
-3.46246e-06
0.0052937
-3.16891e-06
0.00529396
-2.89514e-06
0.00529421
-2.64113e-06
0.00529443
-2.4067e-06
0.00529464
-2.19177e-06
0.00529482
-1.99626e-06
0.00529499
-1.82042e-06
0.00529515
-1.66428e-06
0.00529529
-1.52831e-06
0.00529542
-1.41264e-06
0.00529554
-1.318e-06
0.00529566
-1.24533e-06
0.00529577
-1.1955e-06
0.00529588
-1.17088e-06
0.00529599
-1.17083e-06
0.0052961
-1.20321e-06
0.00529622
-1.25906e-06
0.00529635
-1.36725e-06
0.00529649
-1.48243e-06
0.00529665
-1.70658e-06
0.00529683
-1.86744e-06
0.00529704
-2.29058e-06
0.00529728
-2.44589e-06
0.00529756
-3.21657e-06
0.00529789
-3.27664e-06
0.0052983
-4.57698e-06
0.00529874
-4.4953e-06
0.00529932
-6.3816e-06
0.00529994
-6.31586e-06
0.00530072
-8.6005e-06
0.00530161
-8.50068e-06
0.00530251
-1.17868e-05
0.00530382
-1.03825e-05
0.00530492
-1.07317e-05
-1.93602e-05
0.00525161
-3.15933e-05
0.00525411
-3.02558e-05
0.00525651
-2.89566e-05
0.0052588
-2.76951e-05
0.00526099
-2.64707e-05
0.00526309
-2.52828e-05
0.00526509
-2.41306e-05
0.005267
-2.30136e-05
0.00526882
-2.19312e-05
0.00527056
-2.08826e-05
0.00527221
-1.98672e-05
0.00527379
-1.88845e-05
0.00527528
-1.79339e-05
0.0052767
-1.70146e-05
0.00527805
-1.61262e-05
0.00527933
-1.5268e-05
0.00528053
-1.44397e-05
0.00528168
-1.36406e-05
0.00528275
-1.28704e-05
0.00528377
-1.21285e-05
0.00528473
-1.14146e-05
0.00528563
-1.07282e-05
0.00528647
-1.00689e-05
0.00528726
-9.43619e-06
0.005288
-8.82973e-06
0.0052887
-8.24906e-06
0.00528934
-7.69376e-06
0.00528995
-7.16345e-06
0.00529051
-6.65779e-06
0.00529103
-6.17647e-06
0.00529151
-5.71921e-06
0.00529195
-5.28566e-06
0.00529236
-4.87554e-06
0.00529274
-4.48841e-06
0.00529309
-4.1239e-06
0.00529341
-3.7816e-06
0.0052937
-3.46116e-06
0.00529397
-3.16232e-06
0.00529421
-2.88505e-06
0.00529444
-2.62914e-06
0.00529464
-2.39452e-06
0.00529482
-2.18111e-06
0.00529499
-1.98915e-06
0.00529515
-1.81871e-06
0.00529529
-1.67028e-06
0.00529542
-1.54404e-06
0.00529554
-1.44076e-06
0.00529566
-1.36146e-06
0.00529577
-1.30712e-06
0.00529588
-1.28023e-06
0.00529599
-1.2804e-06
0.0052961
-1.31561e-06
0.00529622
-1.37734e-06
0.00529635
-1.49459e-06
0.00529649
-1.62266e-06
0.00529664
-1.86395e-06
0.00529682
-2.04632e-06
0.00529703
-2.49844e-06
0.00529727
-2.68454e-06
0.00529756
-3.5039e-06
0.00529788
-3.60146e-06
0.00529829
-4.98436e-06
0.00529873
-4.94105e-06
0.00529931
-6.95788e-06
0.00529993
-6.93699e-06
0.00530071
-9.37417e-06
0.00530162
-9.41245e-06
0.00530248
-1.26534e-05
0.00530386
-1.1757e-05
0.00530496
-1.18359e-05
-2.02929e-05
0.00525196
-3.4171e-05
0.00525443
-3.27277e-05
0.0052568
-3.13254e-05
0.00525907
-2.99637e-05
0.00526124
-2.86418e-05
0.00526332
-2.73589e-05
0.0052653
-2.61146e-05
0.0052672
-2.49079e-05
0.005269
-2.37384e-05
0.00527072
-2.26052e-05
0.00527237
-2.15078e-05
0.00527393
-2.04455e-05
0.00527541
-1.94176e-05
0.00527682
-1.84236e-05
0.00527816
-1.74627e-05
0.00527942
-1.65345e-05
0.00528062
-1.56384e-05
0.00528175
-1.47739e-05
0.00528282
-1.39404e-05
0.00528383
-1.31376e-05
0.00528478
-1.23649e-05
0.00528568
-1.16219e-05
0.00528652
-1.09082e-05
0.0052873
-1.02232e-05
0.00528804
-9.56656e-06
0.00528873
-8.93781e-06
0.00528937
-8.3365e-06
0.00528997
-7.76221e-06
0.00529053
-7.21461e-06
0.00529104
-6.69333e-06
0.00529152
-6.19806e-06
0.00529197
-5.72844e-06
0.00529237
-5.28414e-06
0.00529275
-4.86474e-06
0.0052931
-4.46981e-06
0.00529341
-4.09895e-06
0.0052937
-3.75179e-06
0.00529397
-3.42804e-06
0.00529421
-3.12765e-06
0.00529443
-2.85039e-06
0.00529464
-2.5962e-06
0.00529482
-2.365e-06
0.00529499
-2.15702e-06
0.00529514
-1.97237e-06
0.00529528
-1.81154e-06
0.00529541
-1.67479e-06
0.00529554
-1.56292e-06
0.00529565
-1.47704e-06
0.00529576
-1.41823e-06
0.00529587
-1.38911e-06
0.00529598
-1.38952e-06
0.00529609
-1.42758e-06
0.00529621
-1.4952e-06
0.00529634
-1.6215e-06
0.00529648
-1.7624e-06
0.00529663
-2.02089e-06
0.00529681
-2.22458e-06
0.00529702
-2.70588e-06
0.00529726
-2.92234e-06
0.00529754
-3.79093e-06
0.00529787
-3.92509e-06
0.00529828
-5.39175e-06
0.00529872
-5.3855e-06
0.0052993
-7.53438e-06
0.00529992
-7.55887e-06
0.00530069
-1.01446e-05
0.00530162
-1.03402e-05
0.00530245
-1.34915e-05
0.00530388
-1.31829e-05
0.00530499
-1.29442e-05
-2.11306e-05
0.00525234
-3.67182e-05
0.00525478
-3.51711e-05
0.00525712
-3.36677e-05
0.00525936
-3.22075e-05
0.00526151
-3.07897e-05
0.00526357
-2.94137e-05
0.00526553
-2.80785e-05
0.00526741
-2.67836e-05
0.0052692
-2.55283e-05
0.0052709
-2.43118e-05
0.00527253
-2.31334e-05
0.00527408
-2.19926e-05
0.00527555
-2.08885e-05
0.00527694
-1.98206e-05
0.00527827
-1.87882e-05
0.00527953
-1.77907e-05
0.00528071
-1.68276e-05
0.00528184
-1.58983e-05
0.0052829
-1.50023e-05
0.0052839
-1.4139e-05
0.00528485
-1.33082e-05
0.00528573
-1.25091e-05
0.00528657
-1.17414e-05
0.00528735
-1.10046e-05
0.00528808
-1.02982e-05
0.00528876
-9.62179e-06
0.0052894
-8.97484e-06
0.00529
-8.35694e-06
0.00529055
-7.7677e-06
0.00529106
-7.20676e-06
0.00529154
-6.67376e-06
0.00529198
-6.16833e-06
0.00529238
-5.69011e-06
0.00529276
-5.23865e-06
0.0052931
-4.81352e-06
0.00529342
-4.41429e-06
0.00529371
-4.04058e-06
0.00529397
-3.69209e-06
0.00529421
-3.36873e-06
0.00529443
-3.07027e-06
0.00529463
-2.79663e-06
0.00529481
-2.54775e-06
0.00529498
-2.32386e-06
0.00529513
-2.12508e-06
0.00529527
-1.95195e-06
0.0052954
-1.80475e-06
0.00529553
-1.68436e-06
0.00529564
-1.59195e-06
0.00529575
-1.52871e-06
0.00529586
-1.49739e-06
0.00529597
-1.49805e-06
0.00529608
-1.53898e-06
0.0052962
-1.61247e-06
0.00529632
-1.74785e-06
0.00529646
-1.90152e-06
0.00529662
-2.17724e-06
0.0052968
-2.40206e-06
0.005297
-2.91272e-06
0.00529724
-3.15908e-06
0.00529753
-4.07746e-06
0.00529785
-4.24727e-06
0.00529826
-5.79896e-06
0.0052987
-5.82829e-06
0.00529928
-8.11099e-06
0.0052999
-8.18091e-06
0.00530066
-1.09124e-05
0.00530161
-1.12808e-05
0.00530242
-1.43091e-05
0.00530389
-1.46482e-05
0.005305
-1.40547e-05
-2.18986e-05
0.00525274
-3.92328e-05
0.00525515
-3.75841e-05
0.00525747
-3.59816e-05
0.00525968
-3.44249e-05
0.00526181
-3.29131e-05
0.00526384
-3.14454e-05
0.00526578
-3.00211e-05
0.00526764
-2.86394e-05
0.00526941
-2.72996e-05
0.0052711
-2.60011e-05
0.00527271
-2.4743e-05
0.00527424
-2.35247e-05
0.0052757
-2.23455e-05
0.00527708
-2.12047e-05
0.00527839
-2.01017e-05
0.00527964
-1.90358e-05
0.00528082
-1.80064e-05
0.00528193
-1.70131e-05
0.00528298
-1.60552e-05
0.00528398
-1.51323e-05
0.00528491
-1.42438e-05
0.00528579
-1.33892e-05
0.00528662
-1.25681e-05
0.0052874
-1.178e-05
0.00528812
-1.10243e-05
0.0052888
-1.03006e-05
0.00528943
-9.60837e-06
0.00529002
-8.94722e-06
0.00529057
-8.31671e-06
0.00529108
-7.71642e-06
0.00529156
-7.146e-06
0.00529199
-6.60504e-06
0.00529239
-6.09315e-06
0.00529277
-5.60988e-06
0.00529311
-5.15477e-06
0.00529342
-4.72738e-06
0.00529371
-4.32732e-06
0.00529397
-3.95426e-06
0.00529421
-3.60809e-06
0.00529443
-3.28858e-06
0.00529463
-2.99564e-06
0.00529481
-2.7292e-06
0.00529497
-2.48952e-06
0.00529512
-2.27671e-06
0.00529526
-2.09136e-06
0.00529539
-1.93379e-06
0.00529551
-1.80495e-06
0.00529563
-1.70605e-06
0.00529574
-1.63843e-06
0.00529585
-1.60494e-06
0.00529595
-1.60587e-06
0.00529606
-1.64969e-06
0.00529618
-1.72904e-06
0.00529631
-1.8735e-06
0.00529644
-2.03984e-06
0.0052966
-2.33284e-06
0.00529678
-2.57859e-06
0.00529698
-3.11879e-06
0.00529722
-3.39455e-06
0.0052975
-4.36329e-06
0.00529782
-4.56771e-06
0.00529823
-6.20578e-06
0.00529867
-6.26903e-06
0.00529925
-8.68756e-06
0.00529987
-8.80246e-06
0.00530064
-1.16784e-05
0.00530159
-1.22311e-05
0.00530239
-1.51142e-05
0.00530388
-1.61417e-05
0.005305
-1.5166e-05
-2.26219e-05
0.00525317
-4.17128e-05
0.00525555
-3.99647e-05
0.00525784
-3.82653e-05
0.00526002
-3.6614e-05
0.00526212
-3.50101e-05
0.00526413
-3.34526e-05
0.00526605
-3.19407e-05
0.00526788
-3.04739e-05
0.00526963
-2.90512e-05
0.00527131
-2.76719e-05
0.0052729
-2.63354e-05
0.00527441
-2.50409e-05
0.00527586
-2.37876e-05
0.00527723
-2.2575e-05
0.00527853
-2.14023e-05
0.00527976
-2.02689e-05
0.00528093
-1.91741e-05
0.00528203
-1.81176e-05
0.00528308
-1.70985e-05
0.00528406
-1.61166e-05
0.00528499
-1.51711e-05
0.00528586
-1.42617e-05
0.00528668
-1.33877e-05
0.00528745
-1.25487e-05
0.00528817
-1.17442e-05
0.00528884
-1.09737e-05
0.00528947
-1.02367e-05
0.00529006
-9.53269e-06
0.0052906
-8.86126e-06
0.00529111
-8.22198e-06
0.00529157
-7.61446e-06
0.00529201
-7.03827e-06
0.00529241
-6.493e-06
0.00529277
-5.97817e-06
0.00529311
-5.49332e-06
0.00529342
-5.03799e-06
0.00529371
-4.61178e-06
0.00529397
-4.21435e-06
0.00529421
-3.84554e-06
0.00529442
-3.50514e-06
0.00529462
-3.19305e-06
0.0052948
-2.90919e-06
0.00529496
-2.65383e-06
0.00529511
-2.42711e-06
0.00529525
-2.22963e-06
0.00529538
-2.06178e-06
0.0052955
-1.92454e-06
0.00529561
-1.81922e-06
0.00529572
-1.74726e-06
0.00529583
-1.71163e-06
0.00529594
-1.71286e-06
0.00529605
-1.75957e-06
0.00529616
-1.84477e-06
0.00529629
-1.9983e-06
0.00529642
-2.17724e-06
0.00529658
-2.48754e-06
0.00529675
-2.75398e-06
0.00529696
-3.3239e-06
0.00529719
-3.62853e-06
0.00529748
-4.64824e-06
0.0052978
-4.88614e-06
0.0052982
-6.61202e-06
0.00529864
-6.70734e-06
0.00529922
-9.26399e-06
0.00529984
-9.42285e-06
0.0053006
-1.24433e-05
0.00530156
-1.31879e-05
0.00530236
-1.59135e-05
0.00530387
-1.76535e-05
0.00530498
-1.62773e-05
-2.33237e-05
0.00525363
-4.4156e-05
0.00525598
-4.2311e-05
0.00525823
-4.05169e-05
0.00526039
-3.87733e-05
0.00526246
-3.70792e-05
0.00526444
-3.54337e-05
0.00526634
-3.38362e-05
0.00526815
-3.22857e-05
0.00526988
-3.07816e-05
0.00527153
-2.93231e-05
0.0052731
-2.79095e-05
0.0052746
-2.654e-05
0.00527603
-2.52139e-05
0.00527739
-2.39305e-05
0.00527867
-2.26891e-05
0.00527989
-2.14892e-05
0.00528105
-2.033e-05
0.00528214
-1.9211e-05
0.00528318
-1.81316e-05
0.00528415
-1.70913e-05
0.00528507
-1.60896e-05
0.00528593
-1.51259e-05
0.00528674
-1.41997e-05
0.00528751
-1.33104e-05
0.00528822
-1.24576e-05
0.00528889
-1.16408e-05
0.00528951
-1.08594e-05
0.00529009
-1.0113e-05
0.00529063
-9.401e-06
0.00529113
-8.7231e-06
0.0052916
-8.07882e-06
0.00529202
-7.46773e-06
0.00529242
-6.88936e-06
0.00529279
-6.34325e-06
0.00529312
-5.82892e-06
0.00529343
-5.3459e-06
0.00529371
-4.89376e-06
0.00529397
-4.47215e-06
0.0052942
-4.08091e-06
0.00529442
-3.71978e-06
0.00529462
-3.38869e-06
0.00529479
-3.08756e-06
0.00529496
-2.81665e-06
0.00529511
-2.57613e-06
0.00529524
-2.36662e-06
0.00529537
-2.18857e-06
0.00529549
-2.04302e-06
0.0052956
-1.93134e-06
0.00529571
-1.85508e-06
0.00529581
-1.81735e-06
0.00529592
-1.81889e-06
0.00529603
-1.86852e-06
0.00529614
-1.95952e-06
0.00529627
-2.12212e-06
0.0052964
-2.31357e-06
0.00529656
-2.64119e-06