/*--------------------------------*- C++ -*----------------------------------*\
| =========                 |                                                 |
| \\      /  F ield         | OpenFOAM: The Open Source CFD Toolbox           |
|  \\    /   O peration     | Version:  2412                                  |
|   \\  /    A nd           | Website:  www.openfoam.com                      |
|    \\/     M anipulation  |                                                 |
\*---------------------------------------------------------------------------*/
FoamFile
{
    version     2.0;
    format      ascii;
    arch        "LSB;label=32;scalar=64";
    class       surfaceScalarField;
    location    "14";
    object      phi;
}
// * * * * * * * * * * * * * * * * * * * * * * * * * * * * * * * * * * * * * //

dimensions      [0 3 -1 0 0 0 0];

oriented        oriented;

internalField   nonuniform List<scalar> 
10387
(
0.00470603
1.35513e-05
-1.44895e-09
0.00469085
1.51838e-05
-1.58823e-09
0.00467389
1.6959e-05
-1.70129e-09
0.00465499
1.8895e-05
-1.78912e-09
0.00463398
2.10135e-05
-1.86185e-09
0.00461064
2.33407e-05
-1.92064e-09
0.00458474
2.59074e-05
-1.96378e-09
0.00455599
2.875e-05
-1.99116e-09
0.00452408
3.19113e-05
-2.00393e-09
0.00448864
3.54415e-05
-2.00442e-09
0.00444924
3.93995e-05
-1.99445e-09
0.00440539
4.38545e-05
-1.97639e-09
0.00435651
4.88886e-05
-1.95303e-09
0.00430191
5.4599e-05
-1.92625e-09
0.00424081
6.11029e-05
-1.89727e-09
0.00417227
6.85415e-05
-1.86731e-09
0.00409518
7.70871e-05
-1.83708e-09
0.00400823
8.69505e-05
-1.80653e-09
0.00390985
9.83901e-05
-1.7754e-09
0.00379813
0.000111722
-1.74362e-09
0.0036708
0.000127326
-1.71112e-09
0.00352515
0.000145649
-1.67838e-09
0.00335796
0.000167192
-1.64648e-09
0.0031655
0.000192465
-1.61715e-09
0.00294361
0.000221896
-1.59298e-09
0.00268796
0.000255645
-1.57717e-09
0.00239467
0.000293297
-1.5734e-09
0.00206131
0.000333355
-1.585e-09
0.00168883
0.000372482
-1.6127e-09
0.00128441
0.000404428
-1.65061e-09
0.000865751
0.000418657
-1.67555e-09
0.000467126
0.000398627
-1.6261e-09
0.00014797
0.000319158
-1.37698e-09
0.00014797
-7.27002e-10
0.0046835
2.84367e-05
0.00466698
3.17014e-05
0.00464869
3.52519e-05
0.00462846
3.9125e-05
0.00460611
4.33642e-05
0.00458143
4.80218e-05
0.00455417
5.31596e-05
0.00452407
5.88505e-05
0.00449081
6.51801e-05
0.004454
7.22489e-05
0.00441322
8.01744e-05
0.00436798
8.90952e-05
0.0043177
9.91748e-05
0.00426169
0.000110608
0.00419916
0.000123627
0.00412919
0.000138513
0.00405067
0.000155609
0.00396229
0.000175334
0.00386248
0.000198198
0.00374938
0.000224825
0.00362074
0.000255963
0.0034739
0.00029249
0.00330571
0.000335379
0.00311256
0.000385618
0.00289044
0.000444011
0.00263527
0.000510823
0.00234341
0.000585153
0.00201282
0.000663948
0.00164478
0.000740516
0.00124679
0.000802421
0.00083671
0.000828736
0.000448467
0.00078687
0.000139357
0.000628268
0.000287328
0.00463878
4.59707e-05
0.00461961
5.08661e-05
0.00459867
5.6192e-05
0.00457579
6.20037e-05
0.00455079
6.83669e-05
0.00452345
7.53603e-05
0.00449354
8.30769e-05
0.00446076
9.16261e-05
0.0044248
0.000101137
0.00438529
0.000111759
0.0043418
0.00012367
0.00429382
0.000137076
0.00424077
0.000152222
0.00418198
0.000169398
0.00411666
0.000188952
0.00404387
0.000211303
0.00396252
0.000236958
0.00387132
0.000266535
0.00376872
0.000300789
0.00365291
0.000340634
0.00352171
0.000387162
0.00337256
0.000441641
0.00320248
0.000505467
0.00300807
0.000580028
0.00278567
0.00066641
0.00253163
0.000764858
0.00224293
0.00087386
0.00191818
0.000988695
0.00155939
0.00109931
0.00117452
0.00118728
0.00078152
0.00122174
0.000413838
0.00115455
0.000126145
0.000915961
0.000413473
0.00457253
6.74207e-05
0.00454946
7.39431e-05
0.00452461
8.10425e-05
0.00449782
8.87928e-05
0.0044689
9.72825e-05
0.00443764
0.000106617
0.0044038
0.00011692
0.00436709
0.00012834
0.00432718
0.000141046
0.0042837
0.00015524
0.00423621
0.000171157
0.00418421
0.000189072
0.00412713
0.00020931
0.00406427
0.000232256
0.00399485
0.000258369
0.00391795
0.000288201
0.00383249
0.000322418
0.0037372
0.000361829
0.00363058
0.000407412
0.00351087
0.000460346
0.003376
0.000522028
0.00322358
0.000594059
0.00305088
0.000678173
0.00285486
0.00077604
0.0026324
0.000888875
0.00238054
0.00101672
0.00209714
0.00115725
0.00178188
0.00130396
0.00143774
0.00144345
0.00107326
0.00155176
0.000705925
0.00158907
0.000367337
0.00149314
0.000107348
0.00117595
0.00052082
0.00448574
9.39898e-05
0.00445755
0.000102132
0.00442759
0.000110999
0.0043957
0.000120684
0.00436168
0.0001313
0.00432532
0.000142977
0.00428637
0.000155874
0.00424454
0.000170172
0.0041995
0.000186087
0.00415087
0.00020387
0.00409821
0.000223814
0.00404102
0.000246262
0.00397871
0.000271617
0.00391061
0.000300358
0.00383593
0.00033305
0.00375376
0.000370374
0.00366303
0.000413145
0.00356251
0.000462345
0.00345077
0.000519155
0.00332613
0.000584981
0.0031867
0.000661466
0.00303029
0.000750461
0.00285455
0.000853913
0.00265698
0.000973611
0.00243518
0.00111068
0.0021872
0.00126469
0.00191219
0.00143227
0.00161124
0.00160491
0.00128863
0.00176606
0.000953461
0.00188693
0.000621925
0.00192061
0.000320653
0.00179441
8.88398e-05
0.00140776
0.00060966
0.00437966
0.000126801
0.00434524
0.00013655
0.00430907
0.000147174
0.00427097
0.000158786
0.00423074
0.000171523
0.00418818
0.000185542
0.00414302
0.000201034
0.00409497
0.000218218
0.00404371
0.000237354
0.00398883
0.000258743
0.00392991
0.000282735
0.00386643
0.000309741
0.00379781
0.000340242
0.00372336
0.000374806
0.00364231
0.000414104
0.00355374
0.000458936
0.00345664
0.000510253
0.00334979
0.000569193
0.00323184
0.000637103
0.00310126
0.000715564
0.00295634
0.00080638
0.00279528
0.000911525
0.00261622
0.00103297
0.00241746
0.00117237
0.00219773
0.00133041
0.00195662
0.0015058
0.00169521
0.00169368
0.0014168
0.00188332
0.00112765
0.00205521
0.000837711
0.00217687
0.000560873
0.00219745
0.000313575
0.00204171
0.000108343
0.00161299
0.000718003
0.00425617
0.000166833
0.00421456
0.000178163
0.00417121
0.000190519
0.00412596
0.000204034
0.00407862
0.000218869
0.00402895
0.00023521
0.0039767
0.000253279
0.00392159
0.000273336
0.00386326
0.000295681
0.00380134
0.000320667
0.00373537
0.000348702
0.00366485
0.000380263
0.00358918
0.000415908
0.00350769
0.000456293
0.00341961
0.000502188
0.00332404
0.000554508
0.00321996
0.000614329
0.00310623
0.000682925
0.00298155
0.000761777
0.00284453
0.000852586
0.00269368
0.000957229
0.00252755
0.00107766
0.00234488
0.00121565
0.00214487
0.00137238
0.00192762
0.00154766
0.0016947
0.00173872
0.00144983
0.00193854
0.00119963
0.00213353
0.00095411
0.00230073
0.000726286
0.00240469
0.000529543
0.00239419
0.000368524
0.00220273
0.000223158
0.00175836
0.000941161
-3.07339e-05
3.07338e-05
1.22988e-10
-8.3221e-05
5.24865e-05
6.43856e-10
-0.000133471
5.02488e-05
1.34549e-09
-0.000167628
3.41545e-05
2.06592e-09
-0.000178094
1.04639e-05
2.7234e-09
-0.00016191
-1.61874e-05
3.2189e-09
-0.000118482
-4.3432e-05
3.67212e-09
-4.85191e-05
-6.99668e-05
4.06275e-09
4.62274e-05
-9.4751e-05
4.42438e-09
0.000163166
-0.000116943
4.75055e-09
0.000299569
-0.000136408
5.02112e-09
0.000452519
-0.000152955
5.21085e-09
0.000619057
-0.000166543
5.29041e-09
0.000796286
-0.000177235
5.22823e-09
0.000981439
-0.000185157
5.00104e-09
0.00117192
-0.000190487
4.59473e-09
0.00136535
-0.000193429
4.01449e-09
0.00155956
-0.000194213
3.28543e-09
0.00175263
-0.000193074
2.44616e-09
0.00194288
-0.000190256
1.55911e-09
0.00212888
-0.000185995
8.18116e-10
-0.000180525
2.65048e-10
-2.69663e-05
5.77001e-05
-7.21884e-05
9.77085e-05
-0.000114446
9.2506e-05
-0.000141468
6.1177e-05
-0.000146141
1.51369e-05
-0.000125975
-3.63538e-05
-8.02385e-05
-8.91681e-05
-9.12952e-06
-0.000141076
8.50572e-05
-0.000188938
0.000200522
-0.000232408
0.000334695
-0.00027058
0.000484825
-0.000303086
0.000648133
-0.000329851
0.000821877
-0.000350978
0.00100342
-0.000366699
0.00119027
-0.00037734
0.00138014
-0.000383294
0.00157092
-0.000384997
0.00176075
-0.000382906
0.00194799
-0.000377491
0.00213121
-0.000369218
-0.000358539
-2.00881e-05
7.77882e-05
-5.08739e-05
0.000128494
-7.79798e-05
0.000119612
-9.16079e-05
7.4805e-05
-8.54498e-05
8.97878e-06
-5.77579e-05
-6.40457e-05
-7.50601e-06
-0.00013942
6.41575e-05
-0.000212739
0.000157189
-0.000281969
0.000269577
-0.000344796
0.000399159
-0.000400163
0.000543612
-0.000447539
0.000700509
-0.000486749
0.000867409
-0.000517878
0.00104192
-0.000541213
0.00122177
-0.000557184
0.0014048
-0.000566327
0.00158905
-0.000569249
0.00177274
-0.000566597
0.00195429
-0.000559041
0.00213232
-0.000547249
-0.000531879
-7.40179e-06
8.519e-05
-1.93186e-05
0.000140411
-2.53922e-05
0.000125686
-2.0026e-05
6.94388e-05
3.4265e-07
-1.13899e-05
3.5732e-05
-9.94351e-05
8.97499e-05
-0.000193438
0.000162556
-0.000285546
0.000253072
-0.000372485
0.000360255
-0.000451978
0.000482652
-0.00052256
0.000618523
-0.00058341
0.000765942
-0.000634167
0.000922889
-0.000674825
0.00108732
-0.000705644
0.00125723
-0.00072709
0.00143068
-0.00073978
0.00160587
-0.000744436
0.00178112
-0.000741851
0.00195494
-0.000732855
0.00212598
-0.000718291
-0.000698994
7.9352e-06
7.72548e-05
1.96836e-05
0.000128663
3.82313e-05
0.000107138
6.47942e-05
4.28759e-05
9.87696e-05
-4.53653e-05
0.000145127
-0.000145792
0.000203643
-0.000251954
0.000275543
-0.000357445
0.000361231
-0.000458173
0.000460545
-0.000551293
0.000572862
-0.000634877
0.00069717
-0.000707718
0.000832166
-0.000769163
0.000976342
-0.000819001
0.00112806
-0.000857366
0.00128564
-0.000884668
0.00144738
-0.000901523
0.00161165
-0.000908703
0.00177689
-0.000907087
0.00194165
-0.000897621
0.00210464
-0.000881284
0.00226471
-0.000859062
-0.000831924
2.5551e-05
5.17038e-05
6.64452e-05
8.77685e-05
0.000112626
6.09569e-05
0.000162224
-6.72244e-06
0.000211173
-9.43134e-05
0.00026491
-0.00019953
0.000324806
-0.00031185
0.000392821
-0.00042546
0.000470439
-0.000535792
0.000558562
-0.000639415
0.000657527
-0.000733843
0.000767164
-0.000817355
0.000886872
-0.000888871
0.00101571
-0.000947841
0.0011525
-0.00099415
0.00129587
-0.00102804
0.00144438
-0.00105003
0.00159654
-0.00106086
0.00175089
-0.00106144
0.00190603
-0.00105276
0.00206067
-0.00103592
0.00221361
-0.001012
-0.000982124
4.87485e-05
2.95528e-06
0.00012421
1.23071e-05
0.00019892
-1.37526e-05
0.000263415
-7.12178e-05
0.000324303
-0.000155202
0.000381537
-0.000256763
0.000438587
-0.0003689
0.000498697
-0.00048557
0.00056459
-0.000601684
0.000638303
-0.000713129
0.000721164
-0.000816703
0.000813834
-0.000910025
0.0009164
-0.000991437
0.00102847
-0.00105991
0.00114926
-0.00111495
0.00127773
-0.00115651
0.00141263
-0.00118493
0.00155259
-0.00120083
0.00169621
-0.00120506
0.0018421
-0.00119865
0.00198891
-0.00118273
0.00213542
-0.0011585
-0.00112719
0.000174806
-0.000155611
-1.624e-05
0.000345261
-0.000158148
0.000514897
-0.000183388
0.000682811
-0.000239132
0.000846753
-0.000319144
0.00100576
-0.000415768
0.0011598
-0.00052294
0.00130935
-0.000635123
0.0014551
-0.000747434
0.00159775
-0.000855783
0.00173794
-0.000956884
0.00187612
-0.00104821
0.00201262
-0.00112793
0.00214756
-0.00119485
0.00228093
-0.00124832
0.00241259
-0.00128816
0.00254228
-0.00131462
0.00266968
-0.00132823
0.00279446
-0.00132983
0.00291623
-0.00132042
0.00303465
-0.00130115
0.00314939
-0.00127324
0.00326017
-0.00123796
0.000547318
-0.0003236
-0.00037933
0.00072399
-0.000334819
0.000900819
-0.000360218
0.00107314
-0.000411449
0.00123902
-0.00048503
0.001398
-0.00057474
0.0015501
-0.000675047
0.00169581
-0.000780834
0.00183582
-0.000887439
0.00197087
-0.000990837
0.00210169
-0.0010877
0.00222889
-0.00117541
0.00235296
-0.001252
0.00247425
-0.00131613
0.00259295
-0.00136702
0.00270914
-0.00140436
0.00282283
-0.0014283
0.0029339
-0.00143931
0.00304221
-0.00143815
0.0031476
-0.00142581
0.00324986
-0.00140342
0.00334882
-0.00137221
-0.00133346
0.00111155
-0.000459175
-0.000975979
0.0012601
-0.000483367
0.0014158
-0.000515912
0.00157157
-0.00056722
0.00172366
-0.000637126
0.00187027
-0.00072135
0.00201057
-0.000815346
0.0021444
-0.000914658
0.002272
-0.00101504
0.00239386
-0.00111269
0.00251053
-0.00120438
0.00262261
-0.00128748
0.00273059
-0.00135999
0.00283494
-0.00142048
0.002936
-0.00146807
0.00303402
-0.00150238
0.00312917
-0.00152346
0.00322157
-0.0015317
0.00331124
-0.00152782
0.00339819
-0.00151276
0.00348241
-0.00148763
0.00356384
-0.00145363
-0.00141206
0.00180606
-0.000549668
-0.00171557
0.0019126
-0.000589905
0.00203193
-0.00063524
0.00215706
-0.000692347
0.00228295
-0.000763019
0.00240653
-0.000844932
0.00252594
-0.000934755
0.00264018
-0.00102889
0.00274886
-0.00112372
0.002852
-0.00121583
0.00294986
-0.00130224
0.00304284
-0.00138046
0.00313138
-0.00144853
0.00321593
-0.00150503
0.00329689
-0.00154904
0.00337464
-0.00158013
0.00344947
-0.00159829
0.00352164
-0.00160387
0.00359133
-0.00159751
0.0036587
-0.00158013
0.00372385
-0.00155278
0.00378686
-0.00151665
-0.00147299
0.00257245
-0.000593057
-0.00252906
0.00263359
-0.000651046
0.00271084
-0.000712484
0.00279825
-0.000779762
0.00289054
-0.000855309
0.00298396
-0.000938352
0.00307592
-0.00102671
0.0031647
-0.00111768
0.00324932
-0.00120835
0.00332933
-0.00129585
0.00340464
-0.00137755
0.0034754
-0.00145122
0.0035419
-0.00151504
0.00360454
-0.00156767
0.00366373
-0.00160823
0.00371987
-0.00163627
0.00377335
-0.00165177
0.0038245
-0.00165502
0.00387364
-0.00164665
0.00392101
-0.0016275
0.00396682
-0.00159859
0.00401124
-0.00156107
-0.00151616
0.00335697
-0.000593361
-0.00335667
0.00337555
-0.000669619
0.00341137
-0.000748312
0.00345982
-0.000828207
0.00351601
-0.000911497
0.00357611
-0.000998455
0.00363722
-0.00108782
0.00369724
-0.00117769
0.00375476
-0.00126587
0.00380895
-0.00135004
0.00385942
-0.00142802
0.00390608
-0.00149788
0.00394909
-0.00155805
0.00398874
-0.00160732
0.0040254
-0.00164488
0.00405948
-0.00167035
0.0040914
-0.00168369
0.00412155
-0.00168518
0.00415031
-0.0016754
0.00417798
-0.00165517
0.00420485
-0.00162546
0.00423115
-0.00158737
-0.00154206
0.00411321
-0.000558228
-0.00414834
0.00409579
-0.000652205
0.00409504
-0.000747562
0.00410751
-0.000840678
0.00412911
-0.000933096
0.00415634
-0.00102568
0.00418636
-0.00111784
0.00421699
-0.00120832
0.00424664
-0.00129552
0.00427428
-0.00137767
0.00429931
-0.00145305
0.00432149
-0.00152007
0.00434084
-0.0015774
0.00435756
-0.00162403
0.00437197
-0.0016593
0.00438446
-0.00168285
0.00439546
-0.00169468
0.00440539
-0.0016951
0.00441463
-0.00168465
0.00442355
-0.0016641
0.00443248
-0.00163438
0.00444166
-0.00159655
-0.00155172
0.00480458
-0.000497273
-0.00486554
0.00475974
-0.000607366
0.00472966
-0.000717484
0.0047119
-0.000822913
0.00470327
-0.000924468
0.00470085
-0.00102326
0.00470214
-0.00111914
0.00470513
-0.00121131
0.00470828
-0.00129867
0.00471051
-0.0013799
0.00471116
-0.0014537
0.00470991
-0.00151881
0.0047067
-0.00157419
0.00470167
-0.001619
0.00469509
-0.00165272
0.00468735
-0.0016751
0.00467884
-0.00168618
0.00467
-0.00168626
0.00466123
-0.00167588
0.00465291
-0.00165578
0.00464537
-0.00162684
0.0046389
-0.00159007
-0.00154653
0.00540593
-0.000420611
-0.00548259
0.00534279
-0.000544229
0.00529161
-0.000666303
0.00525074
-0.000782036
0.00521791
-0.000891643
0.00519089
-0.000996231
0.00516766
-0.00109591
0.00514655
-0.0011902
0.00512623
-0.00127834
0.00510573
-0.00135941
0.00508444
-0.00143241
0.00506204
-0.00149641
0.00503846
-0.0015506
0.00501381
-0.00159435
0.00498836
-0.00162727
0.00496246
-0.0016492
0.00493651
-0.00166023
0.00491093
-0.00166068
0.00488614
-0.00165108
0.00486251
-0.00163215
0.00484038
-0.00160471
0.00482004
-0.00156973
-0.00152821
0.00590366
-0.000337601
-0.00598667
0.00583082
-0.000471386
0.0057666
-0.000602082
0.00571
-0.00072544
0.00565962
-0.000841262
0.0056139
-0.000950508
0.00557137
-0.00105339
0.00553079
-0.00114962
0.00549113
-0.00123868
0.00545163
-0.00131991
0.00541181
-0.00139259
0.00537143
-0.00145603
0.00533046
-0.00150963
0.00528904
-0.00155293
0.00524744
-0.00158567
0.005206
-0.00160777
0.00516513
-0.00161936
0.00512525
-0.0016208
0.00508677
-0.0016126
0.00505006
-0.00159544
0.00501546
-0.00157012
0.00498327
-0.00153754
-0.00149863
0.00629462
-0.000255943
-0.00637627
0.00621934
-0.000396115
0.00614919
-0.000531928
0.0060837
-0.000659946
0.00602218
-0.000779741
0.00596371
-0.000892043
0.00590738
-0.000997064
0.00585236
-0.0010946
0.00579797
-0.00118429
0.00574372
-0.00126566
0.00568931
-0.00133818
0.00563462
-0.00140134
0.00557971
-0.00145472
0.00552477
-0.00149799
0.0054701
-0.001531
0.00541606
-0.00155373
0.00536306
-0.00156637
0.00531153
-0.00156927
0.00526187
-0.00156294
0.00521446
-0.00154803
0.00516965
-0.0015253
0.00512771
-0.00149559
-0.00145978
0.00658399
-0.00018119
-0.00665875
0.00651183
-0.000323953
0.00644142
-0.00046152
0.00637275
-0.000591277
0.00630571
-0.0007127
0.00623993
-0.000826259
0.00617495
-0.000932092
0.00611038
-0.00103003
0.00604585
-0.00111977
0.00598115
-0.00120096
0.00591619
-0.00127321
0.00585098
-0.00133614
0.00578571
-0.00138944
0.00572062
-0.00143291
0.00565606
-0.00146644
0.00559244
-0.0014901
0.00553016
-0.00150409
0.00546967
-0.00150878
0.00541138
-0.00150465
0.00535568
-0.00149232
0.00530289
-0.00147251
0.0052533
-0.001446
-0.00141362
0.00678277
-0.000116693
-0.00684727
0.00671741
-0.000258594
0.00665082
-0.000394934
0.00658335
-0.000523799
0.00651529
-0.000644641
0.00644671
-0.00075768
0.00637755
-0.000862937
0.00630775
-0.000960226
0.00623727
-0.00104928
0.00616611
-0.0011298
0.00609439
-0.00120148
0.00602228
-0.00126403
0.00595005
-0.00131722
0.00587806
-0.00136091
0.00580669
-0.00139507
0.00573637
-0.00141979
0.00566757
-0.00143529
0.00560071
-0.00144192
0.00553623
-0.00144017
0.00547451
-0.0014306
0.00541589
-0.00141389
0.00536065
-0.00139077
-0.00136199
0.00690515
-6.38638e-05
-0.00695798
0.0068486
-0.000202046
0.00678839
-0.000334721
0.00672509
-0.000460504
0.00665931
-0.000578857
0.0065914
-0.000689777
0.00652162
-0.000793158
0.00645017
-0.000888773
0.00637724
-0.000976354
0.00630307
-0.00105563
0.00622791
-0.00112632
0.00615209
-0.00118821
0.00607598
-0.00124111
0.006
-0.00128493
0.00592459
-0.00131966
0.00585023
-0.00134543
0.00577739
-0.00136245
0.00570653
-0.00137106
0.00563808
-0.00137172
0.00557244
-0.00136496
0.00550995
-0.0013514
0.00545089
-0.00133171
-0.0013066
0.00696635
-2.26211e-05
-0.00700759
0.00691925
-0.000154948
0.00686666
-0.000282129
0.00680931
-0.000403152
0.00674795
-0.000517499
0.00668315
-0.000624978
0.00661536
-0.000725368
0.00654498
-0.000818389
0.00647238
-0.000903757
0.00639795
-0.000981198
0.00632209
-0.00105046
0.00624522
-0.00111134
0.00616781
-0.00116369
0.00609032
-0.00120744
0.00601326
-0.0012426
0.00593713
-0.0012693
0.00586243
-0.00128774
0.00578962
-0.00129825
0.00571914
-0.00130125
0.00565141
-0.00129723
0.00558676
-0.00128675
0.0055255
-0.00127044
-0.00124894
0.00698095
8.09703e-06
-0.00701167
0.00694297
-0.000116959
0.00689825
-0.000237419
0.00684762
-0.000352517
0.00679187
-0.000461751
0.00673168
-0.00056479
0.00666763
-0.00066131
0.00660022
-0.000750985
0.00652997
-0.000833506
0.00645736
-0.000908591
0.00638289
-0.000975993
0.00630707
-0.00103552
0.0062304
-0.00108703
0.00615341
-0.00113046
0.00607664
-0.00116583
0.00600061
-0.00119327
0.00592583
-0.00121296
0.00585277
-0.0012252
0.0057819
-0.00123038
0.00571361
-0.00122894
0.00564826
-0.0012214
0.00558614
-0.00120833
-0.0011903
0.00696185
2.98653e-05
-0.00698362
0.00693203
-8.71375e-05
0.00689479
-0.000200179
0.00685092
-0.000308647
0.00680122
-0.000412055
0.00674641
-0.000509971
0.00668709
-0.000601997
0.00662387
-0.000687767
0.00655732
-0.000766948
0.00648797
-0.000839247
0.00641639
-0.000904414
0.00634313
-0.000962254
0.00626874
-0.00101263
0.00619378
-0.00105549
0.00611878
-0.00109084
0.0060443
-0.00111878
0.00597085
-0.0011395
0.00589891
-0.00115326
0.00582893
-0.0011604
0.00576133
-0.00116133
0.00569644
-0.00115652
0.00563459
-0.00114647
-0.00113172
0.00691975
4.44243e-05
-0.0069343
0.00689686
-6.42567e-05
0.0068663
-0.000169611
0.00682878
-0.000271128
0.00678505
-0.000368332
0.00673581
-0.00046073
0.00668169
-0.000547874
0.00662329
-0.00062937
0.00656121
-0.000704868
0.00649603
-0.000774064
0.00642832
-0.000836705
0.00635866
-0.000892591
0.00628761
-0.000941587
0.00621574
-0.000983624
0.00614361
-0.00101871
0.00607175
-0.00104692
0.00600067
-0.00106842
0.00593086
-0.00108345
0.00586277
-0.00109231
0.0057968
-0.00109536
0.0057333
-0.00109302
0.00567258
-0.00108575
-0.00107402
0.00686307
5.34336e-05
-0.00687208
0.00684584
-4.70272e-05
0.00682097
-0.000144748
0.00678913
-0.000239285
0.00675098
-0.000330178
0.00670715
-0.000416902
0.00665826
-0.000498981
0.00660489
-0.000576006
0.00654765
-0.00064762
0.00648709
-0.000713511
0.00642381
-0.000773421
0.00635837
-0.000827148
0.00629133
-0.000874551
0.00622326
-0.000915554
0.0061547
-0.00095015
0.00608618
-0.000978404
0.00601821
-0.00100045
0.00595126
-0.0010165
0.00588576
-0.00102681
0.00582212
-0.00103172
0.00576068
-0.00103158
0.00570174
-0.00102682
-0.00101784
0.00679814
5.8343e-05
-0.00680305
0.00678536
-3.4245e-05
0.00676522
-0.000124607
0.00673828
-0.000212346
0.00670512
-0.000297022
0.00666632
-0.0003781
0.00662243
-0.000455096
0.00657403
-0.000527599
0.00652165
-0.000595248
0.00646588
-0.000657733
0.00640725
-0.000714792
0.00634632
-0.000766223
0.00628365
-0.000811878
0.00621977
-0.000851674
0.00615521
-0.000885591
0.00609048
-0.000913678
0.00602608
-0.000936045
0.00596245
-0.000952869
0.00590002
-0.000964384
0.00583918
-0.000970875
0.00578026
-0.00097267
0.00572358
-0.000970126
-0.000963618
0.0067295
6.034e-05
-0.0067315
0.00672012
-2.48671e-05
0.00670379
-0.000108281
0.00668099
-0.000189543
0.0066522
-0.000268233
0.00661793
-0.000343825
0.00657868
-0.000415845
0.00653496
-0.000483885
0.0064873
-0.00054759
0.00643623
-0.000606654
0.00638225
-0.000660817
0.0063259
-0.000709876
0.00626771
-0.000753681
0.00620817
-0.000792141
0.00614781
-0.000825225
0.00608709
-0.000852963
0.0060265
-0.000875447
0.00596645
-0.000892826
0.00590737
-0.000905302
0.00584962
-0.000913124
0.00579353
-0.00091658
0.00573939
-0.000915985
-0.00091167
0.00666024
6.03492e-05
-0.00666025
0.00665341
-1.8038e-05
0.00664012
-9.49861e-05
0.00662075
-0.00017017
0.00659571
-0.000243193
0.00656543
-0.000313551
0.00653037
-0.000380785
0.00649099
-0.000444503
0.00644776
-0.00050436
0.00640116
-0.000560056
0.00635168
-0.000611338
0.00629981
-0.000658004
0.00624603
-0.000699903
0.00619083
-0.000736939
0.00613468
-0.00076907
0.00607803
-0.000796313
0.00602132
-0.00081874
0.00596497
-0.000836474
0.00590936
-0.000849691
0.00585484
-0.000858607
0.00580173
-0.000863473
0.00575031
-0.000864566
-0.000862177
0.00659239
5.90612e-05
-0.0065911
0.00658743
-1.30841e-05
0.00657652
-8.40754e-05
0.00655997
-0.000153617
0.00653812
-0.000221339
0.00651133
-0.000286765
0.00648001
-0.000349461
0.00644455
-0.000409051
0.0064054
-0.000465206
0.00636298
-0.000517638
0.00631775
-0.0005661
0.00627014
-0.000610396
0.00622061
-0.000650374
0.0061696
-0.000685935
0.00611756
-0.000717029
0.00606491
-0.00074366
0.00601205
-0.000765882
0.00595938
-0.000783801
0.00590725
-0.000797563
0.005856
-0.000807358
0.00580593
-0.000813404
0.00575731
-0.000815942
-0.000815228
0.00652716
5.69739e-05
-0.00652507
0.00652356
-9.49214e-06
0.00651452
-7.50308e-05
0.00650028
-0.000139374
0.00648112
-0.000202178
0.00645735
-0.000263001
0.00642932
-0.000321433
0.0063974
-0.000377124
0.00636195
-0.000429759
0.00632337
-0.000479063
0.00628207
-0.000524801
0.00623846
-0.000566782
0.00619294
-0.000604855
0.00614593
-0.00063892
0.00609782
-0.000668921
0.00604901
-0.000694851
0.00599988
-0.000716752
0.00595079
-0.000734709
0.00590207
-0.000748847
0.00585404
-0.00075933
0.00580699
-0.000766347
0.00576116
-0.00077011
-0.00077084
0.00646522
5.44346e-05
-0.00646268
0.00646261
-6.88071e-06
0.00645502
-6.74476e-05
0.00644267
-0.000127023
0.00642579
-0.000185292
0.00640463
-0.000241845
0.0063795
-0.000296303
0.00635071
-0.000348336
0.00631861
-0.000397651
0.00628353
-0.000443986
0.00624585
-0.000487118
0.00620592
-0.000526861
0.00616414
-0.00056307
0.00612086
-0.000595643
0.00607646
-0.00062452
0.0060313
-0.000649688
0.00598572
-0.000671174
0.00594006
-0.000689048
0.00589463
-0.000703417
0.00584972
-0.000714422
0.0058056
-0.000722227
0.0057625
-0.000727015
-0.000728981
0.00640688
5.16785e-05
-0.00640412
0.00640497
-4.97193e-06
0.00639854
-6.10149e-05
0.00638775
-0.000116232
0.00637279
-0.000170332
0.00635388
-0.000222942
0.00633129
-0.000273712
0.00630529
-0.000322336
0.00627618
-0.000368537
0.00624427
-0.000412072
0.00620988
-0.000452728
0.00617334
-0.000490328
0.006135
-0.00052473
0.00609519
-0.000555834
0.00605425
-0.000583578
0.0060125
-0.00060794
0.00597027
-0.00062894
0.00592786
-0.000646634
0.00588555
-0.000661112
0.00584362
-0.000672496
0.00580232
-0.000680926
0.00576187
-0.000686564
-0.000689578
0.0063522
4.88596e-05
-0.00634938
0.00635079
-3.56616e-06
0.00634527
-5.54958e-05
0.00633577
-0.000106732
0.00632245
-0.000157011
0.0063055
-0.000205991
0.00628514
-0.00025335
0.00626161
-0.000298806
0.00623517
-0.000342102
0.00620611
-0.000383009
0.00617471
-0.000421326
0.00614126
-0.000456885
0.00610608
-0.00048955
0.00606947
-0.000519221
0.00603173
-0.000545836
0.00599316
-0.000569369
0.00595405
-0.00058983
0.00591468
-0.000607266
0.00587532
-0.000621752
0.00583622
-0.000633392
0.0057976
-0.00064231
0.00575968
-0.000648643
-0.000652538
0.0063011
4.60755e-05
-0.00629831
0.00630005
-2.52126e-06
0.00629527
-5.071e-05
0.00628685
-9.83136e-05
0.00627493
-0.000145092
0.00625967
-0.000190734
0.00624127
-0.000234946
0.00621993
-0.000277467
0.00619589
-0.000318059
0.00616939
-0.000356508
0.00614068
-0.000392625
0.00611005
-0.00042625
0.00607775
-0.000457253
0.00604407
-0.000485539
0.00600928
-0.000511043
0.00597364
-0.000533736
0.00593744
-0.000553622
0.00590091
-0.000570739
0.00586431
-0.00058515
0.00582786
-0.000596944
0.00579178
-0.000606228
0.00575625
-0.000613121
-0.000617752
0.00625341
4.33856e-05
-0.00625072
0.00625262
-1.7366e-06
0.00624843
-4.65201e-05
0.00624093
-9.08073e-05
0.00623022
-0.000134381
0.00621644
-0.000176957
0.00619976
-0.000218268
0.00618037
-0.000258074
0.00615846
-0.000296155
0.00613426
-0.000332309
0.006108
-0.000366362
0.00607991
-0.000398162
0.00605025
-0.000427585
0.00601924
-0.000454537
0.00598716
-0.000478956
0.00595423
-0.000500809
0.00592071
-0.000520098
0.00588682
-0.000536849
0.00585278
-0.000551118
0.00581882
-0.00056298
0.00578512
-0.000572528
0.00575186
-0.000579865
-0.000585101
0.00620893
4.08236e-05
-0.00620637
0.00620833
-1.13883e-06
0.00620464
-4.28213e-05
0.00619791
-8.40784e-05
0.00618824
-0.000124716
0.00617576
-0.000164476
0.00616061
-0.000203115
0.00614295
-0.000240412
0.00612295
-0.000276162
0.00610082
-0.00031018
0.00607676
-0.000342301
0.00605098
-0.000372382
0.0060237
-0.000400305
0.00599515
-0.000425981
0.00596554
-0.000449348
0.0059351
-0.000470372
0.00590405
-0.000489049
0.0058726
-0.000505401
0.00584096
-0.000519474
0.00580931
-0.000531333
0.00577784
-0.000541058
0.00574672
-0.000548737
-0.000554467
0.00616744
-0.00616503
0.00616698
-6.77268e-07
0.00616369
-3.95295e-05
0.00615763
-7.80179e-05
0.00614888
-0.000115964
0.00613754
-0.000153138
0.00612374
-0.000189315
0.00610762
-0.000224292
0.00608934
-0.000257882
0.00606907
-0.000289912
0.006047
-0.000320226
0.00602331
-0.000348692
0.0059982
-0.000375198
0.00597187
-0.000399657
0.00594453
-0.000422008
0.00591638
-0.000442219
0.00588761
-0.000460281
0.00585842
-0.00047621
0.00582899
-0.000490046
0.0057995
-0.000501843
0.00577012
-0.000511671
0.00574099
-0.000519606
-0.000525731
0.00612836
0.00612541
0.00611993
0.00611198
0.00610165
0.00608905
0.00607431
0.00605756
0.00603897
0.00601869
0.0059969
0.00597376
0.00594947
0.00592421
0.00589815
0.00587148
0.00584437
0.005817
0.00578951
0.00576207
0.00573481
0.000704218
0.000114909
-0.000819127
0.000580793
0.000123425
0.000454778
0.000126015
0.000330237
0.00012454
0.000208859
0.000121378
9.70559e-05
0.000111803
8.08158e-05
0.00199667
0.000356762
-0.00223853
0.00173168
0.000388422
0.00145364
0.000404049
0.00117068
0.000407507
0.000890763
0.000401291
0.000624804
0.000377763
0.00032629
0.0031526
0.000650181
-0.00344602
0.00281897
0.000722054
0.00245853
0.000764485
0.00208352
0.000782517
0.00170478
0.000780036
0.00133432
0.00074822
0.000684629
0.00414671
0.000937348
-0.00443388
0.00380434
0.00106442
0.00342
0.00114882
0.00300738
0.00119514
0.00257894
0.00120847
0.00214662
0.00118054
0.00111568
0.00495824
0.00118052
-0.0052014
0.00465004
0.00137261
0.00428708
0.00151179
0.00388179
0.00160043
0.0034468
0.00164346
0.0029933
0.00163404
0.00157991
0.00558411
0.00136062
-0.00576422
0.00533623
0.0016205
0.00502611
0.00182191
0.00466273
0.00196381
0.00425687
0.00204933
0.00381818
0.00207272
0.00204143
0.00603772
0.00147382
-0.00615091
0.00586095
0.00179726
0.00562105
0.00206181
0.00532227
0.00226258
0.00497186
0.00239974
0.00457702
0.00246757
0.00247011
0.00634351
0.00152644
-0.00639614
0.00623669
0.00190409
0.0060718
0.0022267
0.00584839
0.002486
0.00556941
0.00267871
0.00523873
0.00279825
0.0028433
0.00653095
0.00153013
-0.00653463
0.00648517
0.00194986
0.00639065
0.00232122
0.00624313
0.00263353
0.00604148
0.00288036
0.00578595
0.00305378
0.00314665
0.00662916
0.00149786
-0.0065969
0.00663193
0.00194709
0.00659737
0.00235578
0.00651884
0.00271206
0.00639203
0.00300717
0.00621397
0.00323184
0.00337395
0.00666369
0.00144156
-0.00660738
0.00670202
0.00190875
0.00671462
0.00234318
0.00669389
0.0027328
0.00663357
0.0030675
0.00652834
0.00333707
0.00352602
0.00665519
0.00137095
-0.00658459
0.00671743
0.00184651
0.00676445
0.00229617
0.00678879
0.00270845
0.00678344
0.00307285
0.00674178
0.00337873
0.00360905
0.00661915
0.00129332
-0.00654152
0.0066959
0.00176977
0.00676616
0.00222591
0.00682334
0.00265127
0.00686056
0.00303563
0.00687086
0.00336843
0.00363264
0.00656666
0.00121367
-0.00648702
0.0066509
0.00168553
0.00673544
0.00214137
0.00681485
0.00257186
0.006883
0.00296748
0.00693328
0.00331816
0.00360794
0.00650535
0.00113528
-0.00642696
0.00659216
0.00159872
0.00668426
0.00204926
0.00677743
0.00247869
0.00686655
0.00287836
0.00694577
0.00323894
0.00354612
0.00644025
0.0010601
-0.00636507
0.00652641
0.00151256
0.00662135
0.00195432