/*--------------------------------*- C++ -*----------------------------------*\
| =========                 |                                                 |
| \\      /  F ield         | OpenFOAM: The Open Source CFD Toolbox           |
|  \\    /   O peration     | Version:  2412                                  |
|   \\  /    A nd           | Website:  www.openfoam.com                      |
|    \\/     M anipulation  |                                                 |
\*---------------------------------------------------------------------------*/
FoamFile
{
    version     2.0;
    format      ascii;
    arch        "LSB;label=32;scalar=64";
    class       volScalarField;
    location    "17";
    object      p;
}
// * * * * * * * * * * * * * * * * * * * * * * * * * * * * * * * * * * * * * //

dimensions      [0 2 -2 0 0 0 0];

internalField   nonuniform List<scalar> 
5285
(
-0.000580425
-0.00046864
-0.00036898
-0.000281034
-0.000204234
-0.000137899
-8.12637e-05
-3.35089e-05
6.20889e-06
3.87333e-05
6.48884e-05
8.54636e-05
0.000101202
0.000112792
0.000120864
0.000125985
0.000128662
0.000129341
0.000128412
0.00012621
0.000123023
0.000119091
0.000114618
0.000109772
0.000104689
9.94805e-05
9.42337e-05
8.90189e-05
-0.000598292
-0.000485186
-0.000384238
-0.000295048
-0.00021706
-0.0001496
-9.19076e-05
-4.31675e-05
-2.53678e-06
3.08289e-05
5.77557e-05
7.9036e-05
9.54162e-05
0.000107589
0.000116188
0.000121786
0.000124893
0.00012596
0.000125378
0.000123489
0.000120582
0.000116902
0.000112654
0.00010801
0.000103108
9.80604e-05
9.2958e-05
8.78738e-05
-0.000633272
-0.000517618
-0.000414168
-0.000322564
-0.000242262
-0.000172607
-0.000112849
-6.21809e-05
-1.97613e-05
1.52548e-05
4.36971e-05
6.63631e-05
8.40059e-05
9.73256e-05
0.000106964
0.000113501
0.000117455
0.000119285
0.00011939
0.000118117
0.000115763
0.000112579
0.000108775
0.000104528
9.99817e-05
9.52527e-05
9.04345e-05
8.56076e-05
-0.000683625
-0.000564357
-0.000457352
-0.000362297
-0.000278688
-0.000205889
-0.000143168
-8.97283e-05
-4.47342e-05
-7.33991e-06
2.32883e-05
4.7955e-05
6.74223e-05
8.24005e-05
9.35423e-05
0.000101439
0.000106621
0.000109556
0.000110656
0.000110277
0.000108725
0.00010626
0.0001031
9.94291e-05
9.53978e-05
9.11296e-05
8.67235e-05
8.227e-05
-0.000623418
-0.000512118
-0.000412862
-0.000325191
-0.000248504
-0.000182097
-0.00012519
-7.69574e-05
-3.6556e-05
-3.15052e-06
2.40693e-05
4.58743e-05
6.29855e-05
7.60674e-05
8.57242e-05
9.24985e-05
9.68722e-05
9.92686e-05
0.000100056
9.95513e-05
9.80255e-05
9.57074e-05
9.27891e-05
8.94305e-05
8.57629e-05
8.18937e-05
7.7925e-05
-0.00069606
-0.000580117
-0.000476178
-0.000383872
-0.000302652
-0.000231863
-0.000170763
-0.000118554
-7.44084e-05
-3.75015e-05
-7.02601e-06
1.77906e-05
3.76747e-05
5.3299e-05
6.52779e-05
7.41656e-05
8.04563e-05
8.45861e-05
8.69361e-05
8.78364e-05
8.75703e-05
8.63788e-05
8.44657e-05
8.20019e-05
7.91289e-05
7.59657e-05
7.26238e-05
-0.000780443
-0.000658924
-0.000549376
-0.000451519
-0.000364892
-0.000288893
-0.000222826
-0.000165922
-0.000117377
-7.63726e-05
-4.21059e-05
-1.38002e-05
9.27908e-06
2.78163e-05
4.244e-05
5.37201e-05
6.21674e-05
6.82352e-05
7.23216e-05
7.47733e-05
7.58898e-05
7.59277e-05
7.51055e-05
7.36074e-05
7.15877e-05
6.91774e-05
6.64908e-05
8.38781e-05
7.87715e-05
7.37209e-05
6.87702e-05
6.39437e-05
5.92606e-05
5.47374e-05
5.03862e-05
4.62156e-05
4.22312e-05
3.84362e-05
3.48319e-05
3.14178e-05
2.81921e-05
2.51517e-05
2.22928e-05
1.96106e-05
1.71e-05
1.47554e-05
1.25709e-05
1.05406e-05
8.65864e-06
6.91924e-06
5.31674e-06
3.84562e-06
2.50051e-06
1.27609e-06
1.67037e-07
-8.32067e-07
-1.72673e-06
-2.52258e-06
-3.22539e-06
-3.84095e-06
-4.37506e-06
-4.83346e-06
-5.22173e-06
-5.54526e-06
-5.80917e-06
-6.01834e-06
-6.17737e-06
-6.2906e-06
-6.36205e-06
-6.39568e-06
-6.39478e-06
8.28697e-05
7.78477e-05
7.28729e-05
6.79977e-05
6.32418e-05
5.86233e-05
5.41591e-05
4.98618e-05
4.57402e-05
4.18004e-05
3.8046e-05
3.44786e-05
3.1098e-05
2.79027e-05
2.489e-05
2.20562e-05
1.93969e-05
1.69071e-05
1.45813e-05
1.2414e-05
1.03995e-05
8.53185e-06
6.8055e-06
5.21486e-06
3.75453e-06
2.41922e-06
1.20365e-06
1.02583e-07
-8.89334e-07
-1.77755e-06
-2.56764e-06
-3.2653e-06
-3.87627e-06
-4.40629e-06
-4.86104e-06
-5.24605e-06
-5.56666e-06
-5.82797e-06
-6.03482e-06
-6.19177e-06
-6.30314e-06
-6.37293e-06
-6.40508e-06
-6.40286e-06
8.08642e-05
7.6011e-05
7.11886e-05
6.64636e-05
6.18476e-05
5.7357e-05
5.30097e-05
4.88192e-05
4.4795e-05
4.09438e-05
3.727e-05
3.37757e-05
3.04616e-05
2.73268e-05
2.4369e-05
2.15851e-05
1.89712e-05
1.65227e-05
1.42346e-05
1.21017e-05
1.01183e-05
8.2792e-06
6.57881e-06
5.0118e-06
3.57295e-06
2.25712e-06
1.05919e-06
-2.59675e-08
-1.00357e-06
-1.87894e-06
-2.65755e-06
-3.34494e-06
-3.94675e-06
-4.46861e-06
-4.91608e-06
-5.29459e-06
-5.6094e-06
-5.86552e-06
-6.06772e-06
-6.22052e-06
-6.32817e-06
-6.39464e-06
-6.42383e-06
-6.41897e-06
7.78865e-05
7.32842e-05
6.86913e-05
6.41892e-05
5.97799e-05
5.54782e-05
5.13038e-05
4.72712e-05
4.33909e-05
3.96707e-05
3.61161e-05
3.27303e-05
2.95148e-05
2.64696e-05
2.35933e-05
2.08836e-05
1.83372e-05
1.59501e-05
1.3718e-05
1.1636e-05
9.69921e-06
7.90247e-06
6.2407e-06
4.70887e-06
3.30201e-06
2.01519e-06
8.43523e-07
-2.17935e-07
-1.17421e-06
-2.03044e-06
-2.7919e-06
-3.46398e-06
-4.05212e-06
-4.56178e-06
-4.99837e-06
-5.36717e-06
-5.6733e-06
-5.92166e-06
-6.11692e-06
-6.2635e-06
-6.3656e-06
-6.42711e-06
-6.45187e-06
-6.44307e-06
7.39743e-05
6.9702e-05
6.54153e-05
6.12055e-05
5.7066e-05
5.3011e-05
4.90622e-05
4.52358e-05
4.15436e-05
3.79948e-05
3.45962e-05
3.13525e-05
2.82664e-05
2.53389e-05
2.25697e-05
1.99575e-05
1.74999e-05
1.51938e-05
1.30354e-05
1.10206e-05
9.14512e-06
7.40429e-06
5.79348e-06
4.30805e-06
2.94338e-06
1.69486e-06
5.57861e-07
-4.72292e-07
-1.40038e-06
-2.2313e-06
-2.97009e-06
-3.6219e-06
-4.19193e-06
-4.68544e-06
-5.1076e-06
-5.46352e-06
-5.75812e-06
-5.99618e-06
-6.18222e-06
-6.32056e-06
-6.41528e-06
-6.4702e-06
-6.48907e-06
-6.47504e-06
6.9175e-05
6.5313e-05
6.14071e-05
5.75538e-05
5.37418e-05
4.99866e-05
4.63123e-05
4.27367e-05
3.92736e-05
3.59338e-05
3.27259e-05
2.96559e-05
2.67281e-05
2.39449e-05
2.13071e-05
1.88147e-05
1.64662e-05
1.42596e-05
1.2192e-05
1.026e-05
8.46005e-06
6.78811e-06
5.24012e-06
3.8119e-06
2.49928e-06
1.298e-06
2.03802e-07
-7.87693e-07
-1.68095e-06
-2.48058e-06
-3.19132e-06
-3.81802e-06
-4.36562e-06
-4.83908e-06
-5.24334e-06
-5.58325e-06
-5.86355e-06
-6.0888e-06
-6.26338e-06
-6.39147e-06
-6.47702e-06
-6.52374e-06
-6.5353e-06
-6.51475e-06
6.35567e-05
6.01783e-05
5.67249e-05
5.32834e-05
4.98494e-05
4.64415e-05
4.30854e-05
3.98011e-05
3.66044e-05
3.35082e-05
3.05227e-05
2.76558e-05
2.49133e-05
2.22991e-05
1.98157e-05
1.7464e-05
1.52439e-05
1.31544e-05
1.11937e-05
9.35932e-06
7.64842e-06
6.05778e-06
4.58393e-06
3.22329e-06
1.97214e-06
8.26706e-07
-2.16897e-07
-1.16266e-06
-2.01468e-06
-2.77723e-06
-3.4547e-06
-4.05161e-06
-4.57255e-06
-5.02217e-06
-5.40512e-06
-5.72597e-06
-5.98921e-06
-6.19921e-06
-6.36013e-06
-6.47599e-06
-6.55061e-06
-6.58756e-06
-6.5904e-06
-6.56208e-06
5.70074e-05
5.4212e-05
5.13004e-05
4.83311e-05
4.53283e-05
4.23178e-05
3.93268e-05
3.63775e-05
3.34878e-05
3.06728e-05
2.79447e-05
2.53132e-05
2.2786e-05
2.03685e-05
1.80648e-05
1.58772e-05
1.38071e-05
1.18546e-05
1.0019e-05
8.29889e-06
6.69238e-06
5.19704e-06
3.81017e-06
2.52881e-06
1.34984e-06
2.69998e-07
-7.14133e-07
-1.6061e-06
-2.40959e-06
-3.12845e-06
-3.76668e-06
-4.32839e-06
-4.81782e-06
-5.23925e-06
-5.59696e-06
-5.89523e-06
-6.13826e-06
-6.33016e-06
-6.47488e-06
-6.57624e-06
-6.63788e-06
-6.66324e-06
-6.65573e-06
-6.61821e-06
4.96688e-05
4.74979e-05
4.51623e-05
4.27152e-05
4.01928e-05
3.76261e-05
3.5044e-05
3.24707e-05
2.99266e-05
2.74289e-05
2.49919e-05
2.26274e-05
2.03446e-05
1.81509e-05
1.6052e-05
1.40518e-05
1.2153e-05
1.03572e-05
8.66485e-06
7.07577e-06
5.58898e-06
4.20304e-06
2.91605e-06
1.7258e-06
6.29817e-07
-3.7458e-07
-1.29025e-06
-2.12025e-06
-2.86777e-06
-3.53621e-06
-4.12909e-06
-4.6501e-06
-5.10302e-06
-5.49174e-06
-5.82015e-06
-6.09218e-06
-6.31171e-06
-6.48255e-06
-6.60841e-06
-6.69288e-06
-6.73941e-06
-6.75127e-06
-6.73171e-06
-6.68346e-06
4.1795e-05
4.02582e-05
3.85165e-05
3.66197e-05
3.46074e-05
3.25137e-05
3.03688e-05
2.81991e-05
2.60272e-05
2.38721e-05
2.17503e-05
1.96753e-05
1.76583e-05
1.57085e-05
1.38331e-05
1.20377e-05
1.03265e-05
8.7025e-06
7.16745e-06
5.72229e-06
4.36717e-06
3.10162e-06
1.92461e-06
8.3475e-07
-1.69738e-07
-1.09089e-06
-1.93097e-06
-2.69247e-06
-3.37807e-06
-3.99065e-06
-4.53324e-06
-5.00904e-06
-5.42137e-06
-5.77367e-06
-6.06943e-06
-6.31218e-06
-6.50547e-06
-6.65279e-06
-6.75757e-06
-6.82317e-06
-6.85282e-06
-6.84958e-06
-6.81655e-06
-6.7563e-06
3.3462e-05
3.25718e-05
3.14401e-05
3.0114e-05
2.86337e-05
2.70349e-05
2.53494e-05
2.36053e-05
2.1827e-05
2.00354e-05
1.82487e-05
1.64825e-05
1.47496e-05
1.30609e-05
1.14254e-05
9.85026e-06
8.34113e-06
6.90237e-06
5.53712e-06
4.24753e-06
3.03487e-06
1.89968e-06
8.41876e-07
-1.39115e-07
-1.0443e-06
-1.87502e-06
-2.63292e-06
-3.31988e-06
-3.93801e-06
-4.48964e-06
-4.97729e-06
-5.40363e-06
-5.7715e-06
-6.08386e-06
-6.34376e-06
-6.55434e-06
-6.71876e-06
-6.84019e-06
-6.92178e-06
-6.96659e-06
-6.97764e-06
-6.95778e-06
-6.9099e-06
-6.83643e-06
2.4748e-05
2.45168e-05
2.40076e-05
2.32659e-05
2.23326e-05
2.12445e-05
2.00347e-05
1.87328e-05
1.73646e-05
1.5953e-05
1.45177e-05
1.30759e-05
1.16422e-05
1.02293e-05
8.8476e-06
7.50586e-06
6.21125e-06
4.96949e-06
3.78506e-06
2.66133e-06
1.60072e-06
6.04793e-07
-3.25551e-07
-1.19003e-06
-1.98885e-06
-2.72263e-06
-3.39233e-06
-3.9992e-06
-4.54476e-06
-5.03075e-06
-5.45913e-06
-5.83205e-06
-6.15182e-06
-6.42092e-06
-6.64194e-06
-6.8176e-06
-6.95067e-06
-7.04397e-06
-7.10032e-06
-7.12253e-06
-7.11333e-06
-7.07538e-06
-7.01136e-06
-6.92349e-06
1.57416e-05
1.61738e-05
1.62922e-05
1.61419e-05
1.5764e-05
1.51963e-05
1.4473e-05
1.36247e-05
1.26787e-05
1.16593e-05
1.05877e-05
9.48261e-06
8.36036e-06
7.23499e-06
6.11854e-06
5.02124e-06
3.95167e-06
2.91693e-06
1.92279e-06
9.73835e-07
7.36245e-08
-7.75208e-07
-1.57081e-06
-2.31199e-06
-2.99815e-06
-3.62914e-06
-4.20522e-06
-4.72698e-06
-5.19532e-06
-5.61136e-06
-5.9765e-06
-6.29233e-06
-6.56062e-06
-6.78336e-06
-6.96267e-06
-7.10082e-06
-7.20019e-06
-7.26323e-06
-7.29244e-06
-7.29031e-06
-7.25932e-06
-7.20188e-06
-7.12046e-06
-7.0171e-06
6.52932e-06
7.62082e-06
8.36501e-06
8.80638e-06
8.98636e-06
8.94322e-06
8.71189e-06
8.32392e-06
7.8077e-06
7.18865e-06
6.48943e-06
5.7301e-06
4.92834e-06
4.09964e-06
3.25746e-06
2.41343e-06
1.57749e-06
7.5803e-07
-3.79112e-08
-8.04557e-07
-1.53724e-06
-2.23226e-06
-2.8868e-06
-3.49879e-06
-4.06675e-06
-4.58979e-06
-5.06744e-06
-5.4996e-06
-5.88652e-06
-6.22872e-06
-6.52699e-06
-6.78236e-06
-6.99608e-06
-7.16959e-06
-7.30456e-06
-7.40279e-06
-7.46627e-06
-7.49706e-06
-7.49732e-06
-7.46922e-06
-7.41498e-06
-7.33674e-06
-7.23674e-06
-7.11683e-06
-2.80744e-06
-1.06759e-06
2.94265e-07
1.32184e-06
2.05653e-06
2.53685e-06
2.79814e-06
2.87261e-06
2.78949e-06
2.57521e-06
2.25351e-06
1.84565e-06
1.37057e-06
8.45019e-07
2.83754e-07
-3.00318e-07
-8.95995e-07
-1.49363e-06
-2.08502e-06
-2.66322e-06
-3.22248e-06
-3.75808e-06
-4.26625e-06
-4.74399e-06
-5.18902e-06
-5.59964e-06
-5.97464e-06
-6.31324e-06
-6.61503e-06
-6.8799e-06
-7.10805e-06
-7.29992e-06
-7.45622e-06
-7.57789e-06
-7.6661e-06
-7.7222e-06
-7.74776e-06
-7.74445e-06
-7.71408e-06
-7.6585e-06
-7.57964e-06
-7.47937e-06
-7.3597e-06
-7.22225e-06
-1.21915e-05
-9.82031e-06
-7.85468e-06
-6.25185e-06
-4.97076e-06
-3.97297e-06
-3.22297e-06
-2.68818e-06
-2.33877e-06
-2.14758e-06
-2.08995e-06
-2.14364e-06
-2.28867e-06
-2.50716e-06
-2.7832e-06
-3.10273e-06
-3.45338e-06
-3.82438e-06
-4.20638e-06
-4.59137e-06
-4.97256e-06
-5.34424e-06
-5.70168e-06
-6.04102e-06
-6.35914e-06
-6.65355e-06
-6.92231e-06
-7.16394e-06
-7.37736e-06
-7.56185e-06
-7.71698e-06
-7.84265e-06
-7.939e-06
-8.00646e-06
-8.04571e-06
-8.05767e-06
-8.04344e-06
-8.00434e-06
-7.94179e-06
-7.85734e-06
-7.75259e-06
-7.62916e-06
-7.48879e-06
-7.33288e-06
-2.15502e-05
-1.85702e-05
-1.60199e-05
-1.38577e-05
-1.20433e-05
-1.05384e-05
-9.3078e-06
-8.31872e-06
-7.54103e-06
-6.94703e-06
-6.51142e-06
-6.21118e-06
-6.02545e-06
-5.9354e-06
-5.92413e-06
-5.97657e-06
-6.0793e-06
-6.22049e-06
-6.38979e-06
-6.57816e-06
-6.77783e-06
-6.98216e-06
-7.18552e-06
-7.38316e-06
-7.57117e-06
-7.74627e-06
-7.9058e-06
-8.04758e-06
-8.16989e-06
-8.27136e-06
-8.35098e-06
-8.40807e-06
-8.44224e-06
-8.45339e-06
-8.44174e-06
-8.40772e-06
-8.35205e-06
-8.27561e-06
-8.17949e-06
-8.06488e-06
-7.93309e-06
-7.78544e-06
-7.62344e-06
-7.44824e-06
-3.08162e-05
-2.72548e-05
-2.41434e-05
-2.14421e-05
-1.91115e-05
-1.7114e-05
-1.54146e-05
-1.39809e-05
-1.27825e-05
-1.17915e-05
-1.09822e-05
-1.0331e-05
-9.81631e-06
-9.41858e-06
-9.12007e-06
-8.9048e-06
-8.75847e-06
-8.66832e-06
-8.62305e-06
-8.61271e-06
-8.62862e-06
-8.66324e-06
-8.71008e-06
-8.76359e-06
-8.81904e-06
-8.87243e-06
-8.92035e-06
-8.95997e-06
-8.9889e-06
-9.00516e-06
-9.00715e-06
-8.99364e-06
-8.96369e-06
-8.91671e-06
-8.85243e-06
-8.77085e-06
-8.67223e-06
-8.5571e-06
-8.42614e-06
-8.28023e-06
-8.12036e-06
-7.94756e-06
-7.76307e-06
-7.56781e-06
-3.99279e-05
-3.58162e-05
-3.21713e-05
-2.8955e-05
-2.6129e-05
-2.36567e-05
-2.15039e-05
-1.96383e-05
-1.80299e-05
-1.66506e-05
-1.54747e-05
-1.44779e-05
-1.36385e-05
-1.29361e-05
-1.23524e-05
-1.18707e-05
-1.14758e-05
-1.11544e-05
-1.08941e-05
-1.06842e-05
-1.05152e-05
-1.03788e-05
-1.02677e-05
-1.01754e-05
-1.00967e-05
-1.00266e-05
-9.96114e-06
-9.89681e-06
-9.83057e-06
-9.75986e-06
-9.68251e-06
-9.59671e-06
-9.50103e-06
-9.39438e-06
-9.27601e-06
-9.14547e-06
-9.00263e-06
-8.84759e-06
-8.6807e-06
-8.50247e-06
-8.31359e-06
-8.1148e-06
-7.90706e-06
-7.69105e-06
-4.88293e-05
-4.42017e-05
-4.0054e-05
-3.63499e-05
-3.30526e-05
-3.01266e-05
-2.75384e-05
-2.52567e-05
-2.32516e-05
-2.14955e-05
-1.99622e-05
-1.86278e-05
-1.74699e-05
-1.64679e-05
-1.5603e-05
-1.48578e-05
-1.42167e-05
-1.36653e-05
-1.31909e-05
-1.27819e-05
-1.24281e-05
-1.21203e-05
-1.18506e-05
-1.16118e-05
-1.13979e-05
-1.12033e-05
-1.10233e-05
-1.08537e-05
-1.0691e-05
-1.0532e-05
-1.0374e-05
-1.02146e-05
-1.00519e-05
-9.8843e-06
-9.71062e-06
-9.52998e-06
-9.34181e-06
-9.14586e-06
-8.94208e-06
-8.73065e-06
-8.51196e-06
-8.28643e-06
-8.05477e-06
-7.81741e-06
-5.74704e-05
-5.23639e-05
-4.77467e-05
-4.35847e-05
-3.98426e-05
-3.64864e-05
-3.34838e-05
-3.08041e-05
-2.84182e-05
-2.62987e-05
-2.44198e-05
-2.27576e-05
-2.12896e-05
-1.99949e-05
-1.88544e-05
-1.78504e-05
-1.69666e-05
-1.61882e-05
-1.55018e-05
-1.48952e-05
-1.43576e-05
-1.38792e-05
-1.34512e-05
-1.30659e-05
-1.27165e-05
-1.23969e-05
-1.21018e-05
-1.18264e-05
-1.15664e-05
-1.13182e-05
-1.10785e-05
-1.08446e-05
-1.06138e-05
-1.03843e-05
-1.01544e-05
-9.92271e-06
-9.68833e-06
-9.45061e-06
-9.20915e-06
-8.96379e-06
-8.7146e-06
-8.46171e-06
-8.20556e-06
-7.94633e-06
-6.58073e-05
-6.02606e-05
-5.52092e-05
-5.06212e-05
-4.64631e-05
-4.27024e-05
-3.93081e-05
-3.62507e-05
-3.35018e-05
-3.10346e-05
-2.88237e-05
-2.68455e-05
-2.50774e-05
-2.34987e-05
-2.20899e-05
-2.08331e-05
-1.97116e-05
-1.87104e-05
-1.78154e-05
-1.70139e-05
-1.62946e-05
-1.5647e-05
-1.50619e-05
-1.45309e-05
-1.40465e-05
-1.36022e-05
-1.31919e-05
-1.28103e-05
-1.24527e-05
-1.21149e-05
-1.1793e-05
-1.14839e-05
-1.11844e-05
-1.08923e-05
-1.06054e-05
-1.0322e-05
-1.00407e-05
-9.76056e-06
-9.48078e-06
-9.2009e-06
-8.92064e-06
-8.63988e-06
-8.35876e-06
-8.07721e-06
-7.38018e-05
-6.78549e-05
-6.24061e-05
-5.74254e-05
-5.28815e-05
-4.87438e-05
-4.49825e-05
-4.15693e-05
-3.8477e-05
-3.56794e-05
-3.31519e-05
-3.08709e-05
-2.88145e-05
-2.69618e-05
-2.52935e-05
-2.37913e-05
-2.24386e-05
-2.12198e-05
-2.01206e-05
-1.9128e-05
-1.82299e-05
-1.74157e-05
-1.66753e-05
-1.6e-05
-1.53818e-05
-1.48135e-05
-1.42886e-05
-1.38012e-05
-1.33461e-05
-1.29186e-05
-1.25144e-05
-1.21297e-05
-1.17612e-05
-1.14061e-05
-1.10617e-05
-1.07261e-05
-1.03974e-05
-1.00744e-05
-9.75582e-06
-9.44095e-06
-9.1292e-06
-8.82015e-06
-8.51368e-06
-8.20947e-06
-8.14219e-05
-7.51154e-05
-6.93065e-05
-6.39675e-05
-5.90694e-05
-5.45831e-05
-5.04808e-05
-4.67353e-05
-4.33205e-05
-4.02114e-05
-3.73838e-05
-3.4815e-05
-3.24832e-05
-3.0368e-05
-2.845e-05
-2.67112e-05
-2.51347e-05
-2.37047e-05
-2.24069e-05
-2.12277e-05
-2.01548e-05
-1.91771e-05
-1.82842e-05
-1.74669e-05
-1.67166e-05
-1.60257e-05
-1.53871e-05
-1.47947e-05
-1.42427e-05
-1.37258e-05
-1.32394e-05
-1.27793e-05
-1.23418e-05
-1.19235e-05
-1.15215e-05
-1.11334e-05
-1.0757e-05
-1.03908e-05
-1.00331e-05
-9.68293e-06
-9.33938e-06
-9.00175e-06
-8.66965e-06
-8.34252e-06
-8.86407e-05
-8.20154e-05
-7.58842e-05
-7.0222e-05
-6.50017e-05
-6.01964e-05
-5.57799e-05
-5.17265e-05
-4.80114e-05
-4.46106e-05
-4.15009e-05
-3.86602e-05
-3.60672e-05
-3.3702e-05
-3.15455e-05
-2.95798e-05
-2.77879e-05
-2.61542e-05
-2.4664e-05
-2.33037e-05
-2.20608e-05
-2.09236e-05
-1.98816e-05
-1.8925e-05
-1.8045e-05
-1.72334e-05
-1.64829e-05
-1.57867e-05
-1.51386e-05
-1.45332e-05
-1.39652e-05
-1.343e-05
-1.29236e-05
-1.24423e-05
-1.19827e-05
-1.15421e-05
-1.1118e-05
-1.07084e-05
-1.03115e-05
-9.92581e-06
-9.55028e-06
-9.18388e-06
-8.82596e-06
-8.47573e-06
-9.54371e-05
-8.85332e-05
-8.21175e-05
-7.61671e-05
-7.06572e-05
-6.55628e-05
-6.08595e-05
-5.65234e-05
-5.25309e-05
-4.88592e-05
-4.54861e-05
-4.23904e-05
-3.95515e-05
-3.69498e-05
-3.45668e-05
-3.23847e-05
-3.0387e-05
-2.85578e-05
-2.68825e-05
-2.53474e-05
-2.39398e-05
-2.26479e-05
-2.14607e-05
-2.03683e-05
-1.93614e-05
-1.84316e-05
-1.75712e-05
-1.67729e-05
-1.60303e-05
-1.53373e-05
-1.46886e-05
-1.40791e-05
-1.35044e-05
-1.29604e-05
-1.24435e-05
-1.19506e-05
-1.14788e-05
-1.10259e-05
-1.05897e-05
-1.01686e-05
-9.76099e-06
-9.36575e-06
-8.98193e-06
-8.60851e-06
-0.000101795
-9.46519e-05
-8.79888e-05
-8.1785e-05
-7.60179e-05
-7.06646e-05
-6.57024e-05
-6.11091e-05
-5.68627e-05
-5.29415e-05
-4.93245e-05
-4.59913e-05
-4.29223e-05
-4.00985e-05
-3.75018e-05
-3.51149e-05
-3.29214e-05
-3.09057e-05
-2.90532e-05
-2.73503e-05
-2.57842e-05
-2.43428e-05
-2.30151e-05
-2.17909e-05
-2.06606e-05
-1.96155e-05
-1.86476e-05
-1.77493e-05
-1.69139e-05
-1.61349e-05
-1.54067e-05
-1.47239e-05
-1.40817e-05
-1.34757e-05
-1.2902e-05
-1.23571e-05
-1.1838e-05
-1.1342e-05
-1.08667e-05
-1.04102e-05
-9.9706e-06
-9.54656e-06
-9.13685e-06
-8.74024e-06
-0.000107702
-0.000100359
-9.34846e-05
-8.70616e-05
-8.10694e-05
-7.5487e-05
-7.02938e-05
-6.54691e-05
-6.09924e-05
-5.68435e-05
-5.30025e-05
-4.94502e-05
-4.61676e-05
-4.31366e-05
-4.03396e-05
-3.77599e-05
-3.53814e-05
-3.31888e-05
-3.11678e-05
-2.93047e-05
-2.75866e-05
-2.60017e-05
-2.45386e-05
-2.31871e-05
-2.19373e-05
-2.07804e-05
-1.97079e-05
-1.87121e-05
-1.7786e-05
-1.69229e-05
-1.61167e-05
-1.53618e-05
-1.46532e-05
-1.3986e-05
-1.33563e-05
-1.27601e-05
-1.21941e-05
-1.16554e-05
-1.11413e-05
-1.06496e-05
-1.01782e-05
-9.72552e-06
-9.29004e-06
-8.87032e-06
-0.000113151
-0.000105645
-9.8595e-05
-9.19863e-05
-8.58004e-05
-8.00185e-05
-7.46217e-05
-6.95912e-05
-6.49081e-05
-6.05535e-05
-5.65087e-05
-5.27556e-05
-4.92763e-05
-4.60535e-05
-4.30702e-05
-4.03103e-05
-3.77582e-05
-3.5399e-05
-3.32185e-05
-3.12032e-05
-2.93405e-05
-2.76184e-05
-2.60256e-05
-2.45517e-05
-2.31867e-05
-2.19217e-05
-2.07479e-05
-1.96576e-05
-1.86433e-05
-1.76981e-05
-1.68158e-05
-1.59904e-05
-1.52166e-05
-1.44895e-05
-1.38046e-05
-1.31578e-05
-1.25457e-05
-1.19648e-05
-1.14123e-05
-1.08858e-05
-1.0383e-05
-9.90186e-06
-9.4408e-06
-8.99813e-06
-0.000118139
-0.000110505
-0.000103314
-9.65514e-05
-9.02024e-05
-8.42498e-05
-7.86767e-05
-7.34658e-05
-6.85998e-05
-6.40613e-05
-5.98331e-05
-5.5898e-05
-5.22391e-05
-4.88401e-05
-4.56848e-05
-4.27577e-05
-4.00437e-05
-3.75285e-05
-3.5198e-05
-3.30392e-05
-3.10395e-05
-2.9187e-05
-2.74705e-05
-2.58795e-05
-2.44042e-05
-2.30352e-05
-2.17639e-05
-2.05822e-05
-1.94824e-05
-1.84576e-05
-1.75012e-05
-1.66072e-05
-1.57699e-05
-1.49841e-05
-1.42452e-05
-1.35489e-05
-1.28913e-05
-1.22689e-05
-1.16787e-05
-1.11179e-05
-1.0584e-05
-1.00748e-05
-9.58844e-06
-9.12308e-06
-0.000122666
-0.000114938
-0.000107637
-0.000100752
-9.42699e-05
-8.81747e-05
-8.24515e-05
-7.70851e-05
-7.20596e-05
-6.7359e-05
-6.29674e-05
-5.88689e-05
-5.50478e-05
-5.14884e-05
-4.81757e-05
-4.50946e-05
-4.22309e-05
-3.95704e-05
-3.70999e-05
-3.48065e-05
-3.26778e-05
-3.07021e-05
-2.88684e-05
-2.71661e-05
-2.55854e-05
-2.4117e-05
-2.27521e-05
-2.14824e-05
-2.03003e-05
-1.91986e-05
-1.81706e-05
-1.72099e-05
-1.63108e-05
-1.54679e-05
-1.46763e-05
-1.39316e-05
-1.32296e-05
-1.25666e-05
-1.19394e-05
-1.13448e-05
-1.07804e-05
-1.02436e-05
-9.73231e-06
-9.24457e-06
-0.000126734
-0.000118944
-0.000111565
-0.000104587
-9.79997e-05
-9.17888e-05
-8.59414e-05
-8.04436e-05
-7.52813e-05
-7.044e-05
-6.5905e-05
-6.16617e-05
-5.76954e-05
-5.39917e-05
-5.0536e-05
-4.73144e-05
-4.43132e-05
-4.15188e-05
-3.89184e-05
-3.64995e-05
-3.42501e-05
-3.21588e-05
-3.02145e-05
-2.8407e-05
-2.67263e-05
-2.51632e-05
-2.3709e-05
-2.23552e-05
-2.10941e-05
-1.99184e-05
-1.88213e-05
-1.77962e-05
-1.68373e-05
-1.59391e-05
-1.50964e-05
-1.43045e-05
-1.35592e-05
-1.28566e-05
-1.21932e-05
-1.15657e-05
-1.09713e-05
-1.04074e-05
-9.87173e-06
-9.36202e-06
-0.00013035
-0.000122527
-0.000115098
-0.000108056
-0.000101391
-9.50902e-05
-8.91432e-05
-8.35375e-05
-7.82606e-05
-7.32994e-05
-6.86406e-05
-6.42708e-05
-6.01764e-05
-5.6344e-05
-5.27601e-05
-4.94115e-05
-4.62851e-05
-4.33682e-05
-4.06482e-05
-3.81133e-05
-3.57518e-05
-3.35524e-05
-3.15046e-05
-2.95981e-05
-2.78231e-05
-2.61705e-05
-2.46313e-05
-2.31974e-05
-2.1861e-05
-2.06145e-05
-1.9451e-05
-1.83641e-05
-1.73476e-05
-1.63959e-05
-1.55037e-05
-1.46662e-05
-1.38789e-05
-1.31378e-05
-1.24391e-05
-1.17795e-05
-1.11559e-05
-1.05656e-05
-1.00061e-05
-9.47486e-06
-0.000133522
-0.000125695
-0.000118244
-0.000111163
-0.000104445
-9.8079e-05
-9.20558e-05
-8.63649e-05
-8.09948e-05
-7.59339e-05
-7.11704e-05
-6.6692e-05
-6.24863e-05
-5.85409e-05
-5.48433e-05
-5.13811e-05
-4.8142e-05
-4.51138e-05
-4.22849e-05
-3.96435e-05
-3.71785e-05
-3.48792e-05
-3.2735e-05
-3.07359e-05
-2.88725e-05
-2.71355e-05
-2.55163e-05
-2.40065e-05
-2.25984e-05
-2.12845e-05
-2.00577e-05
-1.89116e-05
-1.78399e-05
-1.68368e-05
-1.58969e-05
-1.50154e-05
-1.41875e-05
-1.34091e-05
-1.26763e-05
-1.19855e-05
-1.13335e-05
-1.07175e-05
-1.01347e-05
-9.58258e-06
-0.000136264
-0.000128458
-0.00012101
-0.000113916
-0.000107169
-0.000100759
-9.46817e-05
-8.89266e-05
-8.34837e-05
-7.83427e-05
-7.34929e-05
-6.89234e-05
-6.46228e-05
-6.05797e-05
-5.67827e-05
-5.32202e-05
-4.98807e-05
-4.67527e-05
-4.38251e-05
-4.10869e-05
-3.85273e-05
-3.6136e-05
-3.39027e-05
-3.18178e-05
-2.98718e-05
-2.80559e-05
-2.63615e-05
-2.47802e-05
-2.33044e-05
-2.19265e-05
-2.06396e-05
-1.94371e-05
-1.83126e-05
-1.72603e-05
-1.62748e-05
-1.53509e-05
-1.4484e-05
-1.36696e-05
-1.29038e-05
-1.21829e-05
-1.15035e-05
-1.08625e-05
-1.02571e-05
-9.68476e-06
-0.000138584
-0.000130823
-0.000123402
-0.000116317
-0.000109564
-0.000103137
-9.70246e-05
-9.12251e-05
-8.57288e-05
-8.05263e-05
-7.56079e-05
-7.09639e-05
-6.65842e-05
-6.24584e-05
-5.85759e-05
-5.4926e-05
-5.14982e-05
-4.82816e-05
-4.52658e-05
-4.24403e-05
-3.97949e-05
-3.73196e-05
-3.50046e-05
-3.28405e-05
-3.08182e-05
-2.8929e-05
-2.71642e-05
-2.5516e-05
-2.39766e-05
-2.25384e-05
-2.11947e-05
-1.99387e-05
-1.8764e-05
-1.76649e-05
-1.66358e-05
-1.56715e-05
-1.47671e-05
-1.39182e-05
-1.31207e-05
-1.23708e-05
-1.16649e-05
-1.09999e-05
-1.03727e-05
-9.78072e-06
-0.000140484
-0.000132791
-0.000125418
-0.000118366
-0.00011163
-0.000105204
-9.90827e-05
-9.32589e-05
-8.77281e-05
-8.2482e-05
-7.75122e-05
-7.28101e-05
-6.83668e-05
-6.41728e-05
-6.02185e-05
-5.64943e-05
-5.29901e-05
-4.96962e-05
-4.66026e-05
-4.36995e-05
-4.09772e-05
-3.84261e-05
-3.60369e-05
-3.38005e-05
-3.17081e-05
-2.97512e-05
-2.79215e-05
-2.6211e-05
-2.46122e-05
-2.31177e-05
-2.17205e-05
-2.04141e-05
-1.91922e-05
-1.80487e-05
-1.69782e-05
-1.59754e-05
-1.50354e-05
-1.41536e-05
-1.33258e-05
-1.25481e-05
-1.18168e-05
-1.11287e-05
-1.04806e-05
-9.86979e-06
-0.000113371
-0.000106966
-0.000100853
-9.50257e-05
-8.9479e-05
-8.4207e-05
-7.92027e-05
-7.44586e-05
-6.99668e-05
-6.5719e-05
-6.17067e-05
-5.79208e-05
-5.43525e-05
-5.09924e-05
-4.78315e-05
-4.48605e-05
-4.20703e-05
-3.94518e-05
-3.69961e-05
-3.46945e-05
-3.25385e-05
-3.05198e-05
-2.86304e-05
-2.68626e-05
-2.52088e-05
-2.3662e-05
-2.22151e-05
-2.08616e-05
-1.95952e-05
-1.84101e-05
-1.73006e-05
-1.62614e-05
-1.52877e-05
-1.43746e-05
-1.3518e-05
-1.27139e-05
-1.19585e-05
-1.12483e-05
-1.05802e-05
-9.95136e-06
-0.000710484
-0.000593725
-0.000489497
-0.000397299
-0.000316485
-0.000246301
-0.000185921
-0.000134479
-9.10982e-05
-5.49106e-05
-2.50793e-05
-8.11347e-07
1.86326e-05
3.39317e-05
4.57014e-05
5.44931e-05
6.07952e-05
6.50361e-05
6.75876e-05
6.87696e-05
6.88549e-05
6.80743e-05
6.66211e-05
6.46555e-05
6.23069e-05
5.9686e-05
-0.000889535
-0.000758954
-0.000640904
-0.000535133
-0.000441183
-0.000358449
-0.00028622
-0.00022371
-0.00017009
-0.000124514
-8.61445e-05
-5.41687e-05
-2.78148e-05
-6.36025e-06
1.08607e-05
2.4454e-05
3.49646e-05
4.28774e-05
4.86192e-05
5.25628e-05
5.50305e-05
5.62987e-05
5.6603e-05
5.61421e-05
5.50827e-05
5.35627e-05
5.16993e-05
-0.000930028
-0.000799795
-0.000681718
-0.000575565
-0.000480915
-0.000397203
-0.000323761
-0.000259844
-0.000204663
-0.00015741
-0.000117285
-8.35083e-05
-5.53373e-05
-3.20755e-05
-1.30786e-05
2.24124e-06
1.44146e-05
2.39155e-05
3.1163e-05
3.65247e-05
4.03201e-05
4.28252e-05
4.42762e-05
4.48743e-05
4.47898e-05
4.41651e-05
4.31199e-05
-0.000967563
-0.000837768
-0.000719779
-0.000613387
-0.000518203
-0.000433696
-0.000359233
-0.000294107
-0.000237565
-0.000188837
-0.000147155
-0.00011177
-8.19681e-05
-5.70753e-05
-3.64681e-05
-1.95754e-05
-5.87992e-06
5.08175e-06
1.37212e-05
2.04007e-05
2.54368e-05
2.91043e-05
3.16396e-05
3.32453e-05
3.40939e-05
3.43311e-05
3.40797e-05
-0.00100054
-0.000871802
-0.000754468
-0.000648354
-0.0005531
-0.000468212
-0.000393095
-0.000327083
-0.000269463
-0.000219506
-0.00017648
-0.000139669
-0.000108391
-8.19982e-05
-5.98902e-05
-4.15151e-05
-2.63716e-05
-1.40087e-05
-4.02432e-06
3.93705e-06
1.01874e-05
1.49988e-05
1.86067e-05
2.12141e-05
2.29948e-05
2.40969e-05
2.46459e-05
-0.0010278
-0.00090086
-0.000784861
-0.000679641
-0.000584873
-0.000500101
-0.000424772
-0.000358264
-0.000299909
-0.00024902
-0.000204907
-0.000166892
-0.000134327
-0.000106594
-8.31191e-05
-6.33735e-05
-4.6874e-05
-3.31847e-05
-2.19153e-05
-1.27193e-05
-5.29105e-06
6.37202e-07
5.29862e-06
8.89519e-06
1.1601e-05
1.35654e-05
1.4916e-05
-0.00104894
-0.00092451
-0.000810505
-0.000706785
-0.000613053
-0.000528894
-0.0004538
-0.000387195
-0.00032846
-0.000276953
-0.000232029
-0.000193053
-0.00015941
-0.00013052
-0.000105837
-8.48555e-05
-6.7115e-05
-5.21965e-05
-3.97237e-05
-2.93608e-05
-2.08103e-05
-1.38104e-05
-8.13166e-06
-3.57425e-06
3.50572e-08
2.84585e-06
4.98693e-06
-0.00106379
-0.000942561
-0.000831183
-0.000729542
-0.000637378
-0.000554317
-0.000479897
-0.000413591
-0.000354832
-0.000303026
-0.000257574
-0.000217886
-0.000183389
-0.000153536
-0.000127814
-0.000105745
-8.68923e-05
-7.08552e-05
-5.72735e-05
-4.58243e-05
-3.62197e-05
-2.82051e-05
-2.15564e-05
-1.60771e-05
-1.15958e-05
-7.96385e-06
-5.05207e-06
-0.00107245
-0.000955033
-0.000846859
-0.000747834
-0.000657732
-0.000576222
-0.000502892
-0.000437266
-0.000378827
-0.000327034
-0.000281336
-0.000241189
-0.000206062
-0.000175447
-0.000148863
-0.000125864
-0.000106035
-8.89989e-05
-7.44126e-05
-6.19671e-05
-5.13858e-05
-4.24228e-05
-3.48603e-05
-2.85064e-05
-2.3193e-05
-1.87726e-05
-1.51171e-05
-0.00107521
-0.000962138
-0.000857668
-0.000761726
-0.000674125
-0.000594576
-0.000522716
-0.00045812
-0.000400324
-0.000348839
-0.000303165
-0.000262805
-0.00022727
-0.000196092
-0.000168827
-0.000145056
-0.000124394
-0.000106486
-9.10057e-05
-7.76611e-05
-6.6188e-05
-5.63502e-05
-4.79375e-05
-4.07638e-05
-3.46647e-05
-2.94956e-05
-2.51297e-05
-0.00107253
-0.000964238
-0.000863879
-0.000771411
-0.00068668
-0.000609443
-0.000539384
-0.00047613
-0.000419269
-0.000368364
-0.000322967
-0.000282625
-0.000246896
-0.000215351
-0.00018758
-0.000163199
-0.000141848
-0.000123196
-0.000106937
-9.27953e-05
-8.05204e-05
-6.9887e-05
-6.06934e-05
-5.27602e-05
-4.59278e-05
-4.00551e-05
-3.50176e-05
-0.001065
-0.000961795
-0.000865858
-0.000777166
-0.000695602
-0.000620964
-0.000552984
-0.000491339
-0.000435669
-0.000385588
-0.000340696
-0.000300588
-0.000264864
-0.000233137
-0.000205032
-0.000180196
-0.000158299
-0.000139031
-0.00012211
-0.000107276
-9.42922e-05
-8.29459e-05
-7.30448e-05
-6.44166e-05
-5.69075e-05
-5.03807e-05
-4.47147e-05
-0.00105323
-0.000955331
-0.000864027
-0.000779328
-0.000701151
-0.000629336
-0.000563658
-0.000503843
-0.00044958
-0.000400533
-0.000356348
-0.000316668
-0.000281134
-0.000249397
-0.000221119
-0.000195978
-0.000173672
-0.000153916
-0.000136447
-0.000121025
-0.000107427
-9.54527e-05
-8.49197e-05
-7.56639e-05
-6.7538e-05
-6.04099e-05
-5.41619e-05
-0.00103789
-0.000945384
-0.000858832
-0.000778262
-0.000703623
-0.00063479
-0.000571582
-0.000513772
-0.000461094
-0.000413257
-0.000369955
-0.000330873
-0.000295693
-0.000264104
-0.000235803
-0.000210499
-0.000187915
-0.000167792
-0.000149889
-0.000133981
-0.000119863
-0.000107346
-9.62574e-05
-8.64431e-05
-7.77621e-05
-7.00878e-05
-6.33067e-05
-0.00101957
-0.000932483
-0.000850722
-0.000774343
-0.000703324
-0.000637576
-0.000576958
-0.000521282
-0.000470326
-0.000423845
-0.000381573
-0.000343236
-0.000308557
-0.000277258
-0.000249071
-0.000223733
-0.000200995
-0.000180622
-0.000162391
-0.000146098
-0.000131551
-0.000118575
-0.000107008
-9.67047e-05
-8.75312e-05
-7.9367e-05
-7.21033e-05
-0.000998869
-0.000917124
-0.000840121
-0.000767932
-0.000700561
-0.00063795
-0.000579993
-0.000526542
-0.000477413
-0.0004324
-0.000391279
-0.000353812
-0.000319759
-0.000288876
-0.000260925
-0.000235673
-0.000212896
-0.00019238
-0.000173925
-0.000157342
-0.000142456
-0.000129102
-0.000117132
-0.000106408
-9.6805e-05
-8.82077e-05
-8.05127e-05
-0.000976282
-0.000899756
-0.000827423
-0.000759372
-0.000695628
-0.000636162
-0.000580901
-0.000529728
-0.000482498