/*--------------------------------*- C++ -*----------------------------------*\
| =========                 |                                                 |
| \\      /  F ield         | OpenFOAM: The Open Source CFD Toolbox           |
|  \\    /   O peration     | Version:  2412                                  |
|   \\  /    A nd           | Website:  www.openfoam.com                      |
|    \\/     M anipulation  |                                                 |
\*---------------------------------------------------------------------------*/
FoamFile
{
    version     2.0;
    format      ascii;
    arch        "LSB;label=32;scalar=64";
    class       volScalarField;
    location    "3";
    object      p;
}
// * * * * * * * * * * * * * * * * * * * * * * * * * * * * * * * * * * * * * //

dimensions      [0 2 -2 0 0 0 0];

internalField   nonuniform List<scalar> 
5285
(
0.00252183
0.00257471
0.00263064
0.00268986
0.00275265
0.0028193
0.00289013
0.00296551
0.00304586
0.00313162
0.00322331
0.00332149
0.00342681
0.00353998
0.00366181
0.00379321
0.00393522
0.00408899
0.00425584
0.00443723
0.0046348
0.00485036
0.00508581
0.00534314
0.00562416
0.00593013
0.00626112
0.00661493
0.00698606
0.0073648
0.00773621
0.00809499
0.00851858
0.00913021
0.00252082
0.00257367
0.00262956
0.00268875
0.00275149
0.00281807
0.00288883
0.00296411
0.00304434
0.00312995
0.00322144
0.00331939
0.0034244
0.00353719
0.00365854
0.00378932
0.00393054
0.00408329
0.00424882
0.0044285
0.00462384
0.00483646
0.00506804
0.00532022
0.00559438
0.00589119
0.0062099
0.0065472
0.00689607
0.00724503
0.00757791
0.0078882
0.00824829
0.00877377
0.00251879
0.00257159
0.00262742
0.00268653
0.00274917
0.00281564
0.00288624
0.00296134
0.00304133
0.00312665
0.00321778
0.00331526
0.00341968
0.00353173
0.00365212
0.0037817
0.00392137
0.00407213
0.00423508
0.0044114
0.00460235
0.00480919
0.00503313
0.00527515
0.00553572
0.00581428
0.0061084
0.00641249
0.00671646
0.00700522
0.00726038
0.00747345
0.00770155
0.0080712
0.00251567
0.0025684
0.00262414
0.00268313
0.00274563
0.00281191
0.00288229
0.0029571
0.00303674
0.00312161
0.00321217
0.00330894
0.00341248
0.00352339
0.00364235
0.0037701
0.00390743
0.00405519
0.00421426
0.00438556
0.00456994
0.00476817
0.00498074
0.00520765
0.00544805
0.00569953
0.0059571
0.00621171
0.00644862
0.00664714
0.00678545
0.00685694
0.00690163
0.00699881
0.00251166
0.00256431
0.00261995
0.00267881
0.00274113
0.0028072
0.0028773
0.00295177
0.00303096
0.00311527
0.00320512
0.00330098
0.00340336
0.00351279
0.00362987
0.00375522
0.00388946
0.00403323
0.00418716
0.00435175
0.00452737
0.00471407
0.0049114
0.00511806
0.00533141
0.00554658
0.00575519
0.00594359
0.00609104
0.00616942
0.00615129
0.00603422
0.00584959
0.00553169
0.00250762
0.00256034
0.00261603
0.00267492
0.00273726
0.00280332
0.00287337
0.00294774
0.00302677
0.00311082
0.00320029
0.00329561
0.00339722
0.0035056
0.00362125
0.00374465
0.00387627
0.00401651
0.00416566
0.00432379
0.00449061
0.00466523
0.00484587
0.00502925
0.00520983
0.00537854
0.00552114
0.00561625
0.00563372
0.00553532
0.00528631
0.00488626
0.00436474
0.00349284
0.00250109
0.00255375
0.00260937
0.00266817
0.0027304
0.00279632
0.0028662
0.00294034
0.00301907
0.00310273
0.00319168
0.00328632
0.00338703
0.00349424
0.00360833
0.00372968
0.00385858
0.0039952
0.00413949
0.00429106
0.00444892
0.00461119
0.00477449
0.00493307
0.0050775
0.00519273
0.00525571
0.00523346
0.00508277
0.00475317
0.00420244
0.00344206
0.00245693
0.000899754
-0.00316609
-0.0030843
-0.00289398
-0.00262172
-0.00228909
-0.00192842
-0.00157163
-0.00124516
-0.000966301
-0.000742293
-0.000572063
-0.000449237
-0.00036506
-0.000310524
-0.0002776
-0.000259741
-0.000251934
-0.000250511
-0.000252888
-0.000257301
-0.000262582
-0.000267983
-0.0033549
-0.00321138
-0.00300034
-0.00271543
-0.00237575
-0.0020106
-0.00164942
-0.00131751
-0.00103205
-0.000800709
-0.000622942
-0.000492856
-0.000402017
-0.000341585
-0.000303575
-0.00028141
-0.000270002
-0.000265593
-0.000265505
-0.000267887
-0.000271496
-0.000275518
-0.00371267
-0.00345001
-0.00319923
-0.0028919
-0.00253923
-0.00216603
-0.00179726
-0.00145589
-0.0011587
-0.000913973
-0.000722187
-0.000578382
-0.000474798
-0.000402974
-0.000355064
-0.000324464
-0.000305967
-0.000295654
-0.000290676
-0.00028902
-0.000289296
-0.000290566
-0.00418043
-0.00379344
-0.00347983
-0.00313815
-0.0027662
-0.00238134
-0.0020024
-0.00164888
-0.00133654
-0.00107417
-0.000863473
-0.000700804
-0.000579429
-0.000491523
-0.000429521
-0.000386844
-0.000358155
-0.000339328
-0.000327282
-0.000319778
-0.00031522
-0.000312492
-0.00471709
-0.00421578
-0.00382084
-0.0034309
-0.00303227
-0.00263273
-0.00224328
-0.00187845
-0.00155169
-0.00127147
-0.00104048
-0.000856497
-0.000714167
-0.000606674
-0.000527052
-0.000468972
-0.000427089
-0.000397121
-0.000375757
-0.000360507
-0.00034953
-0.000341489
-0.000335422
-0.00510648
-0.00459191
-0.00413846
-0.00370679
-0.00328933
-0.00288514
-0.00249658
-0.00213215
-0.00180157
-0.00151175
-0.00126563
-0.00106238
-0.000898424
-0.000768614
-0.000667309
-0.000589078
-0.000529088
-0.000483256
-0.000448255
-0.000421443
-0.000400759
-0.00038462
-0.000371823
-0.0052824
-0.00496988
-0.00452716
-0.00406087
-0.00361758
-0.00319709
-0.00279689
-0.00242228
-0.00208047
-0.00177672
-0.00151346
-0.00129032
-0.00110465
-0.000952333
-0.000828726
-0.00072923
-0.000649605
-0.000586116
-0.000535572
-0.000495308
-0.000463132
-0.000437268
-0.000416292
-0.00673592
-0.0060408
-0.00547909
-0.00484248
-0.00423962
-0.00368019
-0.00315698
-0.00267547
-0.00224441
-0.0018697
-0.00155315
-0.00129268
-0.00108318
-0.000917752
-0.000788875
-0.000689326
-0.000612737
-0.000553801
-0.000508275
-0.000472858
-0.000445027
-0.000422876
-0.000404976
-0.000390255
-0.00684234
-0.00613555
-0.0055911
-0.00493224
-0.00430925
-0.0037452
-0.00322757
-0.00275655
-0.00233713
-0.00197222
-0.00166177
-0.00140302
-0.00119116
-0.00102014
-0.000883496
-0.000775022
-0.000689162
-0.000621184
-0.000567201
-0.000524095
-0.00048941
-0.00046123
-0.000438071
-0.00688336
-0.00613954
-0.00559336
-0.00493091
-0.00430445
-0.00374594
-0.00324135
-0.002787
-0.00238464
-0.00203467
-0.0017354
-0.00148347
-0.00127425
-0.00110238
-0.00096226
-0.000848581
-0.000756547
-0.000682014
-0.000621512
-0.00057219
-0.000531743
-0.000498328
-0.000470479
-0.00687703
-0.00611165
-0.00554632
-0.00489089
-0.00427215
-0.00372358
-0.00323291
-0.00279451
-0.00240784
-0.00207159
-0.00178301
-0.00153834
-0.00133309
-0.00116236
-0.00102121
-0.000904922
-0.000809279
-0.000730583
-0.000665697
-0.000612004
-0.000567356
-0.000530001
-0.000498523
-0.00671135
-0.00597102
-0.00539364
-0.00476529
-0.00417585
-0.00365252
-0.00318612
-0.00277097
-0.00240518
-0.00208643
-0.00181152
-0.00157666
-0.00137766
-0.00121018
-0.00106988
-0.000952715
-0.000854983
-0.000773438
-0.000705283
-0.000648154
-0.000600073
-0.000559404
-0.000524799
-0.00638774
-0.00571767
-0.00514809
-0.00456478
-0.0040226
-0.00353799
-0.00310508
-0.00271952
-0.00237903
-0.002081
-0.00182227
-0.00159936
-0.00140857
-0.00124616
-0.00110844
-0.000991952
-0.000893534
-0.000810373
-0.000740015
-0.000680353
-0.000629596
-0.000586239
-0.000549022
-0.00594736
-0.00537671
-0.00483823
-0.00431271
-0.00382857
-0.00339127
-0.00299774
-0.00264569
-0.00233317
-0.00205779
-0.00181684
-0.00160735
-0.00142622
-0.00127032
-0.00113661
-0.00102217
-0.000924349
-0.000840742
-0.000769221
-0.000707934
-0.000655283
-0.000609902
-0.000570632
-0.00544087
-0.00497932
-0.00449138
-0.00403074
-0.00360884
-0.00322266
-0.00287133
-0.00255462
-0.0022713
-0.00201956
-0.00179729
-0.00160216
-0.00143173
-0.00128347
-0.0011549
-0.00104367
-0.000947552
-0.000864529
-0.000792785
-0.000730713
-0.000676905
-0.000630139
-0.000589363
-0.00491481
-0.00455695
-0.00413126
-0.00373712
-0.00337655
-0.00304141
-0.00273244
-0.00245108
-0.00219699
-0.00196901
-0.00176572
-0.00158546
-0.00142638
-0.00128656
-0.00116405
-0.00105694
-0.000963454
-0.000881904
-0.000810765
-0.000748664
-0.000694375
-0.000646822
-0.000605062
-0.00440374
-0.00413577
-0.00377593
-0.00344544
-0.00314194
-0.00285508
-0.00258665
-0.0023393
-0.00211348
-0.0019087
-0.00172419
-0.00155888
-0.0014115
-0.00128064
-0.00116483
-0.00106258
-0.000972469
-0.000893137
-0.000823318
-0.000761853
-0.000707693
-0.000659901
-0.000617646
-0.00392876
-0.00373396
-0.00343725
-0.00316462
-0.00291217
-0.00266924
-0.00243832
-0.00222274
-0.00202359
-0.00184097
-0.00167462
-0.00152404
-0.00138842
-0.0012668
-0.00115811
-0.00106125
-0.000975108
-0.0008986
-0.000830699
-0.000770443
-0.000716948
-0.000669409
-0.000627102
-0.00349974
-0.00336192
-0.00312182
-0.00289982
-0.00269178
-0.00248781
-0.00229072
-0.00210419
-0.00192972
-0.00176786
-0.00161881
-0.00148247
-0.00135843
-0.00124611
-0.0011448
-0.00105369
-0.000971946
-0.000898736
-0.000833239
-0.000774672
-0.000722302
-0.000675447
-0.000633486
-0.00311877
-0.00302403
-0.00283246
-0.00265353
-0.00248339
-0.00231332
-0.00214621
-0.0019858
-0.00183383
-0.00169117
-0.00155835
-0.00143557
-0.00132277
-0.00121966
-0.00112579
-0.00104063
-0.000963591
-0.000894031
-0.00083132
-0.000774833
-0.000723971
-0.000678169
-0.000636901
-0.00278346
-0.00272071
-0.00256948
-0.00242649
-0.00228827
-0.00214731
-0.00200642
-0.0018692
-0.00173751
-0.0016124
-0.00149463
-0.00138464
-0.00128259
-0.00118843
-0.00110195
-0.00102283
-0.000950663
-0.000884996
-0.000825354
-0.000771252
-0.000722211
-0.000677771
-0.000637492
-0.00248931
-0.00245009
-0.00233176
-0.00221836
-0.00210678
-0.00199058
-0.0018724
-0.0017556
-0.00164201
-0.0015328
-0.00142886
-0.00133078
-0.00123891
-0.00115336
-0.0010741
-0.00100099
-0.000933769
-0.000872143
-0.000815768
-0.000764279
-0.000717304
-0.000674475
-0.000635433
-0.00223119
-0.00220922
-0.0021174
-0.00202818
-0.0019387
-0.00184343
-0.0017448
-0.00164583
-0.00154829
-0.00145338
-0.00136205
-0.00127499
-0.00119265
-0.00111528
-0.001043
-0.000975774
-0.000913492
-0.000855974
-0.000802987
-0.000754271
-0.000709546
-0.000668524
-0.000630919
-0.00200412
-0.00199481
-0.00192426
-0.0018547
-0.00178347
-0.00170585
-0.00162394
-0.00154047
-0.00145708
-0.00137495
-0.00129504
-0.00121808
-0.0011446
-0.00107495
-0.00100933
-0.000947807
-0.000890383
-0.000836969
-0.000787427
-0.000741583
-0.000699235
-0.000660167
-0.000624157
-0.00180363
-0.00180364
-0.00175011
-0.00169651
-0.00164037
-0.00157754
-0.00150991
-0.00143986
-0.0013689
-0.00129813
-0.00122849
-0.00116075
-0.00109545
-0.00103301
-0.000973694
-0.00091765
-0.000864948
-0.00081558
-0.000769485
-0.00072656
-0.000686669
-0.000649658
-0.00061536
-0.00162588
-0.00163277
-0.00159289
-0.00155224
-0.00150853
-0.00145812
-0.00140264
-0.00134418
-0.00128408
-0.00122337
-0.00116295
-0.00110357
-0.00104578
-0.00099004
-0.000936645
-0.000885806
-0.000837649
-0.000792225
-0.000749535
-0.000709531
-0.000672136
-0.000637247
-0.000604743
-0.00146761
-0.00147959
-0.00145067
-0.00142056
-0.00138709
-0.0013471
-0.00130195
-0.00125346
-0.00120284
-0.00115101
-0.00109883
-0.00104699
-0.000996072
-0.00094651
-0.000898645
-0.00085272
-0.0008089
-0.000767286
-0.000727921
-0.000690807
-0.000655911
-0.000623173
-0.000592515
-0.00132611
-0.00134183
-0.00132175
-0.00130021
-0.00127521
-0.00124394
-0.00120756
-0.00116766
-0.00112529
-0.00108129
-0.00103643
-0.000991392
-0.000946708
-0.000902827
-0.000860096
-0.00081878
-0.000779072
-0.000741105
-0.00070496
-0.000670674
-0.000638251
-0.000607668
-0.000578881
-0.0011991
-0.00121756
-0.00120462
-0.00119007
-0.00117206
-0.0011481
-0.00111918
-0.00108666
-0.00105146
-0.00101433
-0.000975988
-0.00093704
-0.000898009
-0.000859326
-0.000821338
-0.000784322
-0.000748488
-0.000713991
-0.000680938
-0.000649396
-0.000619398
-0.000590949
-0.000564032
-0.00108467
-0.0011051
-0.00109796
-0.00108911
-0.00107688
-0.00105905
-0.00103646
-0.00101028
-0.000981307
-0.000950217
-0.000917641
-0.000884148
-0.000850223
-0.000816279
-0.000782657
-0.000749633
-0.000717429
-0.000686214
-0.000656112
-0.000627213
-0.000599571
-0.000573215
-0.000548152
-0.000981214
-0.00100304
-0.0010006
-0.000996419
-0.000988968
-0.000976281
-0.000959068
-0.00093833
-0.000914762
-0.000888959
-0.000861488
-0.000832865
-0.000803542
-0.000773907
-0.000744287
-0.000714956
-0.000686138
-0.00065801
-0.000630709
-0.000604339
-0.000578971
-0.000554653
-0.000531411
-0.000887379
-0.000910153
-0.000911525
-0.000911164
-0.000907672
-0.000899302
-0.000886655
-0.00087059
-0.00085171
-0.000830537
-0.000807576
-0.000783296
-0.00075811
-0.000732381
-0.00070642
-0.000680494
-0.000654822
-0.000629586
-0.000604929
-0.000580966
-0.00055778
-0.000535433
-0.000513965
-0.00080201
-0.000825385
-0.000829858
-0.000832619
-0.000832403
-0.000827657
-0.00081889
-0.000806837
-0.00079202
-0.000774897
-0.000755918
-0.000735502
-0.000714029
-0.000691835
-0.000669211
-0.000646413
-0.000623655
-0.000601117
-0.000578946
-0.000557262
-0.000536159
-0.000515707
-0.000495957
-0.000724123
-0.000747829
-0.000754819
-0.000760132
-0.000762626
-0.000760923
-0.00075545
-0.000746841
-0.000735546
-0.000721964
-0.000706496
-0.000689516
-0.000671371
-0.000652368
-0.000632781
-0.00061285
-0.000592782
-0.000572753
-0.000552911
-0.000533378
-0.000514252
-0.000495612
-0.000477518
-0.000652869
-0.000676702
-0.00068573
-0.000693124
-0.000697858
-0.000698707
-0.000696033
-0.000690379
-0.000682134
-0.000671648
-0.000659273
-0.000645345
-0.000630178
-0.000614052
-0.000597223
-0.000579914
-0.000562324
-0.000544622
-0.000526953
-0.000509441
-0.000492187
-0.000475273
-0.000458765
-0.000587521
-0.000611319
-0.000621993
-0.000631079
-0.000637661
-0.00064065
-0.000640351
-0.000637233
-0.000631629
-0.000623846
-0.000614195
-0.000602976
-0.00059047
-0.000576936
-0.000562606
-0.000547691
-0.000532377
-0.000516827
-0.000501182
-0.000485563
-0.000470073
-0.000454797
-0.000439804
-0.000527446
-0.000551087
-0.000563082
-0.000573539
-0.000581641
-0.000586421
-0.000588137
-0.000587192
-0.000583875
-0.000578452
-0.000571198
-0.00056238
-0.000552251
-0.000541046
-0.00052898
-0.000516246
-0.00050302
-0.000489455
-0.000475689
-0.00046184
-0.000448008
-0.000434279
-0.000420726
-0.000472095
-0.000495483
-0.000508532
-0.000520094
-0.00052944
-0.000535716
-0.00053914
-0.000540058
-0.000538718
-0.000535354
-0.000530208
-0.000523518
-0.00051551
-0.000506398
-0.000496377
-0.000485628
-0.000474313
-0.000462578
-0.000450553
-0.000438351
-0.000426073
-0.000413803
-0.000401615
-0.000444053
-0.000457932
-0.000470376
-0.000480737
-0.00048826
-0.000493128
-0.00049564
-0.00049601
-0.000494442
-0.000491149
-0.000486342
-0.000480225
-0.000472991
-0.000464818
-0.000455872
-0.000446304
-0.000436251
-0.000425835
-0.000415166
-0.000404341
-0.000393442
-0.000382544
-0.00996332
-0.0104684
-0.0107471
-0.0108247
-0.0107127
-0.0104272
-0.00974355
-0.00946117
-0.00987638
-0.0101198
-0.0102118
-0.010161
-0.0100538
-0.00974726
-0.00879935
-0.00917708
-0.00941819
-0.00954522
-0.00957278
-0.00960322
-0.00958564
-0.0079422
-0.00830634
-0.0085656
-0.00873929
-0.00883898
-0.00895547
-0.00915745
-0.00697413
-0.00732227
-0.00759401
-0.00780422
-0.00796046
-0.00812963
-0.00847179
-0.0060201
-0.00634316
-0.00661244
-0.0068393
-0.00702965
-0.00722414
-0.00762757
-0.00515985
-0.00545181
-0.0057058
-0.00593077
-0.00613219
-0.00633009
-0.00673138
-0.00442279
-0.00468158
-0.00491315
-0.00512427
-0.0053199
-0.00550721
-0.00586638
-0.00380551
-0.00403305
-0.0042405
-0.00443264
-0.00461364
-0.00478397
-0.00508404
-0.0032914
-0.00349176
-0.00367665
-0.00384928
-0.0040129
-0.00416514
-0.00440591
-0.00286193
-0.00303943
-0.00320451
-0.0033593
-0.00350615
-0.00364187
-0.00383218
-0.00250075
-0.00265909
-0.00280722
-0.00294647
-0.00307851
-0.00320013
-0.00335165
-0.00219443
-0.0023367
-0.00247039
-0.00259636
-0.00271575
-0.00282566
-0.00294918
-0.0019324
-0.0020611
-0.0021825
-0.00229714
-0.00240582
-0.00250599
-0.00260992
-0.00170657
-0.00182368
-0.00193456
-0.00203945
-0.002139
-0.00223094
-0.00232119
-0.00151075
-0.00161782
-0.0017195
-0.00181592
-0.00190758
-0.00199246
-0.00207293
-0.00133982
-0.00143812
-0.00153174
-0.00162073
-0.0017055
-0.00178421
-0.00185738
-0.00118965
-0.00128027
-0.0013668
-0.00144925
-0.00152794
-0.00160118
-0.00166861
-0.00105699
-0.00114085
-0.00122111
-0.00129775
-0.00137101
-0.00143938
-0.00150207
-0.0009392
-0.00101708
-0.00109177
-0.00116321
-0.00123161
-0.00129558
-0.0013542
-0.000834141
-0.000906695
-0.000976385
-0.00104316
-0.00110718
-0.00116717
-0.00122221
-0.000740028
-0.00080781
-0.000873012
-0.000935573
-0.000995625
-0.001052
-0.00110383
-0.000655383
-0.000718871
-0.000780022
-0.000838767
-0.000895209
-0.000948287
-0.000997199
-0.000578968
-0.000638577
-0.000696056
-0.000751331
-0.000804481
-0.000854539
-0.000900787
-0.000509741
-0.000565833
-0.000619973
-0.000672082
-0.000722221
-0.00076951
-0.000813309
-0.00044682
-0.000499714
-0.000550807
-0.000600021
-0.000647398
-0.000692141
-0.000733681
-0.000389458
-0.000439431
-0.000487736
-0.000534294
-0.000579133
-0.000621531
-0.000660982
-0.000337012
-0.000384311
-0.000430059
-0.000474175
-0.000516675
-0.000556909
-0.000594425
-0.000288932
-0.000333777
-0.000377172
-0.000419038
-0.00045938
-0.000497613
-0.000533332
-0.000244742
-0.000287329
-0.000328555
-0.000368343
-0.00040669
-0.00044307
-0.000477118
-0.000283756
-0.000321622
-0.000358121
-0.000392782
-0.000425276
0.00342347
0.000243143
-0.00261857
-0.00482393
-0.00663591
-0.00811346
-0.00920037
0.000921831
-0.00171409
-0.00399707
-0.00560436
-0.0069165
-0.00799806
-0.00884234
-0.000120848
-0.00223041
-0.00416192
-0.00550032
-0.00658663
-0.00752701
-0.00825746
-0.000734785
-0.0024641
-0.00404326
-0.00513833
-0.00605885
-0.00681703
-0.00745078
-0.00110744
-0.00249543
-0.00373832
-0.00461038
-0.0053474
-0.00598589
-0.00653289
-0.00128967
-0.00239622
-0.00335411
-0.00404511
-0.00463777
-0.00516623
-0.00563123
-0.00134416
-0.00223134
-0.00296562
-0.00351519
-0.00399702
-0.00443492
-0.00482256
-0.00132039
-0.00203844
-0.00260463
-0.00304606
-0.00344239
-0.00380751
-0.00413207
-0.00125142
-0.00183871
-0.00228116
-0.00264079
-0.00297157
-0.00327794
-0.0035545
-0.00115867
-0.00164418
-0.00199618
-0.00229394
-0.00257422
-0.00283515
-0.00307321
-0.00105566
-0.00146125
-0.00174687
-0.00199743
-0.00223812
-0.00246331
-0.00267045
-0.000950553
-0.0012928
-0.00152917
-0.00174324
-0.00195236
-0.00214897
-0.00233112
-0.000848049
-0.00113965
-0.00133889
-0.0015243
-0.00170784
-0.00188123
-0.00204288
-0.000750663
-0.00100141
-0.00117216
-0.00133471
-0.00149724
-0.00165144
-0.00179597
-0.000659585
-0.000877104
-0.00102561
-0.00116963
-0.00131469
-0.0014529
-0.00158311
-0.00057522
-0.000765489
-0.000896311
-0.00102511
-0.00115553
-0.00128028
-0.00139848
-0.000497524
-0.00066527
-0.000781815
-0.000897928
-0.00101595
-0.00112923
-0.00123697
-0.000426212
-0.000575192
-0.000680036
-0.000785462
-0.000892879
-0.000996319
-0.00109506
-0.000360877
-0.000494102
-0.000589224
-0.000685547
-0.000783828
-0.000878742
-0.000969641
-0.000301063
-0.000420957
-0.000507903
-0.000596399
-0.000686752
-0.000774227
-0.000858251
-0.000246302
-0.000354837
-0.000434828
-0.000516537
-0.000599962
-0.00068091
-0.000758868
-0.000196144
-0.00029493
-0.000368944
-0.000444722
-0.000522057
-0.000597243
-0.000669819
-0.000150163
-0.000240527
-0.000309355
-0.000379915
-0.000451866
-0.000521935
-0.000589712
-0.000107965
-0.000191009
-0.000255298
-0.000321236
-0.000388402
-0.000453907
-0.00051738
-6.9192e-05
-0.000145832
-0.000206119
-0.000267941
-0.000330831
-0.000392244
-0.000451844
-3.35174e-05
-0.000104526
-0.000161258
-0.000219393
-0.000278446
-0.000336174
-0.000392272
-6.47281e-07
-6.6677e-05
-0.000120229
-0.000175046
-0.000230641
-0.000285037
-0.000337958
2.96829e-05
-3.19225e-05
-8.26145e-05
-0.000134432
-0.000186897
-0.000238268
-0.000288295
5.77104e-05
5.45023e-08
-4.80506e-05
-9.7144e-05
-0.000146765
-0.000195381
-0.000242765
8.3648e-05
2.95334e-05
-1.62201e-05
-6.28305e-05
-0.000109859
-0.000155957
-0.000200917
0.000107687
5.67606e-05
1.31542e-05
-3.11842e-05
-7.58412e-05
0.00248032
0.00253114
0.00258469
0.00264112
0.00270063
0.00276341
0.00282966
0.00289959
0.00297343
0.00305137
0.00313363
0.0032204
0.00331184
0.00340804
0.00350902
0.00361467
0.00372467
0.00383846
0.00395504
0.00407284
0.00418948
0.00430141
0.00440349
0.00448847
0.00454643
0.00456434
0.00452599
0.00441294
0.00420709
0.00389583
0.00348484
0.00300476
0.00237093
0.00152855
0.00245559
0.00250432
0.00255552
0.00260935
0.00266593
0.00272543
0.002788
0.00285377
0.00292289
0.00299549
0.00307166
0.00315148
0.00323494
0.00332197
0.00341238
0.00350579
0.00360163
0.00369896
0.00379642
0.00389203
0.00398297
0.00406532
0.00413368
0.00418082
0.00419724
0.00417089
0.00408713
0.00392919
0.00367932
0.00332093
0.00284557
0.00225077
0.00140969
0.000200548
0.002427
0.0024733
0.00252181
0.00257265
0.00262591
0.00268169
0.00274011
0.00280123
0.00286512
0.00293184
0.00300138
0.00307369
0.00314865
0.00322604
0.00330549
0.00338645
0.00346813
0.00354938
0.00362863
0.0037037
0.00377165
0.00382855
0.0038692
0.00388679
0.00387261
0.00381567
0.00370236
0.00351631
0.00323825
0.00284617
0.00231988
0.00164645
0.000736322
-0.000489173
0.00239596
0.00243969
0.00248535
0.00253302
0.00258276
0.00263463
0.00268868
0.00274491
0.00280334
0.00286392
0.00292656
0.00299111
0.00305732
0.00312483
0.00319313
0.00326151
0.00332899
0.00339425
0.00345556
0.0035106
0.00355636
0.00358892
0.00360329
0.00359311
0.00355041
0.00346532
0.00332575
0.00311718
0.00282244
0.00242164
0.00189537
0.0012328
0.000380206
-0.000736429
0.00236283
0.00240388
0.00244658
0.00249098
0.0025371
0.00258494
0.00263452
0.00268578
0.00273866
0.00279306
0.00284879
0.00290561
0.00296317
0.003021
0.00307847
0.00313474
0.0031887
0.00323893
0.00328358
0.0033203
0.00334607
0.00335711
0.00334869
0.00331495
0.00324872
0.00314129
0.00298225
0.00275936
0.00245848
0.00206366
0.00155918
0.000936239
0.000163337
-0.000828094
0.00232777
0.00236606
0.00240573
0.00244677
0.00248919
0.00253295
0.002578
0.00262426
0.00267159
0.00271983
0.00276873
0.00281796
0.0028671
0.00291559
0.0029627
0.00300752
0.00304886
0.00308523
0.00311475
0.0031351
0.00314336
0.00313596
0.00310853
0.00305577
0.00297134
0.00284773
0.00267616
0.00244653
0.0021475
0.00176669
0.00129184
0.000715784
2.15119e-05
-0.000843242
0.00229106
0.00232653
0.00236311
0.00240076
0.00243944
0.0024791
0.00251963
0.00256091
0.00260276
0.00264494
0.00268717
0.00272905
0.00277009
0.00280967
0.002847
0.00288112
0.0029108
0.00293454
0.00295049
0.0029564
0.00294951
0.00292651
0.00288344
0.0028156
0.00271749
0.00258272
0.00240403
0.00217325
0.00188151
0.00151943
0.00107796
0.000551606
-6.756e-05
-0.000814318
0.00225297
0.0022856
0.00231906
0.00235331
0.00238828
0.00242386
0.00245993
0.00249632
0.0025328
0.00256911
0.0026049
0.00263974
0.00267309
0.00270428
0.0027325
0.00275675
0.00277582
0.00278821
0.00279215
0.0027855
0.0027657
0.00272975
0.00267409
0.00259462
0.00248664
0.00234481
0.0021632
0.00193536
0.0016545
0.00131374
0.000906684
0.000429451
-0.000120646
-0.00076399
0.00221375
0.00224354
0.00227391
0.00230479
0.00233609
0.00236767
0.00239937
0.002431
0.00246231
0.00249297
0.00252263
0.0025508
0.00257693
0.00260032
0.00262015
0.00263543
0.00264494
0.00264728
0.00264075
0.00262335
0.00259276
0.00254627
0.00248075
0.00239268
0.00227808
0.00213254
0.00195131
0.00172938
0.00146165
0.00114323
0.000769786
0.000338759
-0.000149537
-0.000704853
0.00217366
0.00220064
0.00222796
0.00225553
0.00228323
0.00231092
0.0023384
0.00236544
0.00239179
0.00241709
0.00244095
0.00246288
0.0024823
0.00249852
0.00251072
0.00251792
0.00251896
0.0025125
0.00249697
0.00247053
0.00243108
0.00237622
0.00230326
0.00220916
0.00209063
0.00194407
0.00176573
0.00155177
0.00129845
0.00100238
0.000660792
0.000272161
-0.00016148
-0.000642658
0.00213294
0.00215714
0.00218147
0.00220582
0.00223004
0.00225396
0.00227739
0.00230006
0.0023217
0.00234195
0.00236039
0.00237653
0.00238979
0.00239948
0.0024048
0.00240481
0.00239842
0.00238437
0.00236122
0.00232729
0.00228073
0.00221944
0.00214108
0.00204313
0.00192284
0.00177736
0.00160373
0.00139909
0.00116074
0.000886444
0.000574552
0.000224341
-0.000161193
-0.000580044
0.00209179
0.00211329
0.00213473
0.00215595
0.00217682
0.00219714
0.0022167
0.00223523
0.00225245
0.00226797
0.00228139
0.00229221
0.00229985
0.00230366
0.00230285
0.00229654
0.00228371
0.00226319
0.00223368
0.00219368
0.00214155
0.00207548
0.00199349
0.00189346
0.00177316
0.00163033
0.00146271
0.00126818
0.00104487
0.00079138
0.000506881
0.000191235
-0.000152064
-0.000518393
0.00205042
0.00206931
0.00208794
0.00210617
0.00212383
0.00214073
0.00215663
0.00217128
0.00218436
0.00219551
0.00220431
0.00221028
0.00221285
0.0022114
0.00220518
0.00219337
0.00217502
0.00214908
0.00211435
0.00206954
0.0020132
0.00194377
0.00185959
0.00175893
0.00163998
0.00150097
0.00134021
0.00115617
0.000947609
0.000713745
0.000454327
0.00016963
-0.000136645
-0.000458534
0.00200902
0.0020254
0.00204134
0.00205671
0.00207132
0.00208499
0.00209746
0.00210848
0.00211773
0.00212485
0.00212944
0.00213102
0.00212906
0.00212295
0.00211201
0.00209546
0.00207245
0.00204202
0.00200311
0.00195458
0.00189518
0.0018236
0.00173844
0.00163828
0.00152171
0.00138736
0.00123397
0.00106048
0.000866145
0.000650613
0.000414035
0.00015696
-0.000116889
-0.000401016
0.00196776
0.00198172
0.00199511
0.00200776
0.00201951
0.00203013
0.00203941
0.00204706
0.00205278
0.00205623
0.002057
0.00205464
0.00204866
0.00203847
0.00202344
0.00200287
0.00197597
0.0019419
0.00189971
0.00184842
0.00178696
0.00171421
0.00162903
0.00153028
0.00141685
0.0012877
0.00114193
0.000978848
0.000798048
0.00059951
0.000383644
0.000151169
-9.42912e-05
-0.000346201
0.00192679
0.00193846
0.00194942
0.00195951
0.00196856
0.00197635
0.00198265
0.00198721
0.00198971
0.00198982
0.00198716
0.0019813
0.00197177
0.00195804
0.00193952
0.00191557
0.00188549
0.00184852
0.00180385
0.00175061
0.00168791
0.00161481
0.00153039
0.00143373
0.00132397
0.00120035
0.00106226
0.000909266
0.000741231
0.000558353
0.000361211
0.000150616
-6.99875e-05
-0.000294306
0.00188624
0.00189573
0.00190441
0.0019121
0.00191863
0.00192379
0.00192736
0.00192908
0.00192865
0.00192576
0.00192004
0.00191109
0.00189847
0.00188168
0.00186021
0.00183347
0.00180082
0.00176162
0.00171514
0.00166066
0.00159741
0.00152462
0.00144155
0.00134748
0.00124176
0.00112384
0.000993325
0.000850002
0.000693911
0.000525401
0.000345146
0.000153995
-4.4828e-05
-0.000245431
0.00184624
0.00185368
0.00186021
0.00186566
0.00186985
0.00187259
0.00187365
0.00187279
0.00186972
0.00186414
0.0018557
0.00184404
0.00182875
0.00180938
0.00178544
0.00175642
0.00172177
0.0016809
0.00163321
0.00157806
0.00151482
0.00144288
0.00136162
0.00127049
0.00116902
0.00105684
0.000933696
0.000799552
0.000654573
0.0004992
0.000334154
0.00016028
-1.94383e-05
-0.000199583
0.00180688
0.0018124
0.00181692
0.00182029
0.00182233
0.00182285
0.00182162
0.00181842
0.00181298
0.00180501
0.00179419
0.00178018
0.0017626
0.00174105
0.00171509
0.00168427
0.00164809
0.00160605
0.00155763
0.0015023
0.00143954
0.00136883
0.00128972
0.00120178
0.00110467
0.000998149
0.000882114
0.000756623
0.000621934
0.000478544
0.000327182
0.000168666
5.73071e-06
-0.0001567
0.00176827
0.00177199
0.00177465
0.00177609
0.00177615
0.00177463
0.00177134
0.00176603
0.00175848
0.0017484
0.0017355
0.00171947
0.00169995
0.0016766
0.00164901
0.00161678
0.0015795
0.00153671
0.00148798
0.00143287
0.00137094
0.0013018
0.00122508
0.00114046
0.00104773
0.000946738
0.000837484
0.000720105
0.000594915
0.000462434
0.000323379
0.000178525
3.0362e-05
-0.000116674
0.00173046
0.00173251
0.00173345
0.00173312
0.00173136
0.001728
0.00172284
0.00171566
0.00170623
0.00169431
0.00167961
0.00166185
0.00164072
0.0016159
0.00158703
0.00155376
0.00151572
0.00147255
0.00142385
0.00136928
0.00130847
0.00124112
0.00116694
0.00108573
0.000997323
0.000901679
0.000798856
0.000689049
0.000572604
0.000450045
0.00032206
0.000189374
5.42401e-05
-7.93658e-05
0.00169354
0.00169404
0.00169338
0.00169143
0.00168803
0.001683
0.00167616
0.00166731
0.00165624
0.00164271
0.00162647
0.00160726
0.0015848
0.0015588
0.00152896
0.00149496
0.00145648
0.00141321
0.00136484
0.00131105
0.00125159
0.00118619
0.00111466
0.00103685
0.000952681
0.000862164
0.000765409
0.000662646
0.000554236
0.000440696
0.000322674
0.000200839
7.72254e-05
-4.46204e-05
0.00165753
0.00165661
0.00165449
0.00165106
0.00164616
0.00163964
0.0016313
0.00162098
0.00160847
0.00159356
0.00157601
0.0015556
0.00153207
0.00150517
0.00147461
0.00144015
0.00140149
0.00135838
0.00131055
0.00125776
0.00119979
0.00113646
0.00106762
0.00099318
0.000913117
0.000827485
0.000736431
0.000640205
0.000539172
0.000433827
0.000324778
0.000212637
9.92344e-05
-1.22748e-05
0.0016225
0.00162025
0.00161681
0.00161204
0.00160579
0.00159792
0.00158827
0.00157666
0.0015629
0.00154681
0.00152817
0.00150678
0.0014824
0.00145481
0.00142379
0.00138908
0.00135046
0.00130771
0.00126062
0.00120898
0.00115262
0.00109142
0.00102527
0.000954135
0.000878023
0.000797026
0.000711312
0.000621141
0.000526873
0.000428978
0.000328019
0.000224553
0.000120225
1.78346e-05
0.00158845
0.00158501
0.00158036
0.00157437
0.00156692
0.00155786
0.00154704
0.0015343
0.00151948
0.00150239
0.00148285
0.00146067
0.00143565
0.00140758
0.00137628
0.00134153
0.00130314
0.00126091
0.00121469
0.00116431
0.00110965
0.00105061
0.000987125
0.000919196
0.000846867
0.000770248
0.000689524
0.000604955
0.000516889
0.00042577
0.000332114
0.000236427
0.000140184
4.58678e-05
0.00155542
0.00155088
0.00154513
0.00153806
0.00152953
0.00151941
0.00150758
0.00149387
0.00147814
0.00146022
0.00143995
0.00141716
0.00139167
0.00136331
0.00133189
0.00129726
0.00125924
0.00121768
0.00117245
0.00112341
0.00107048
0.0010136
0.000952732
0.000887902
0.000819178
0.000746685
0.000670614
0.000591222
0.000508844
0.00042389
0.000336837
0.000248139
0.000159121
7.19782e-05
0.00152342
0.00151789
0.00151115
0.0015031
0.00149361
0.00148257
0.00146985
0.00145532
0.00143882
0.00142023
0.00139938
0.00137614
0.00135033
0.00132182
0.00129044
0.00125606
0.00121854
0.00117775
0.00113358
0.00108594
0.00103476
0.000980017
0.000921698
0.000859846
0.000794544
0.000725929
0.000654192