/*--------------------------------*- C++ -*----------------------------------*\
| =========                 |                                                 |
| \\      /  F ield         | OpenFOAM: The Open Source CFD Toolbox           |
|  \\    /   O peration     | Version:  2412                                  |
|   \\  /    A nd           | Website:  www.openfoam.com                      |
|    \\/     M anipulation  |                                                 |
\*---------------------------------------------------------------------------*/
FoamFile
{
    version     2.0;
    format      ascii;
    arch        "LSB;label=32;scalar=64";
    class       volVectorField;
    location    "3";
    object      U;
}
// * * * * * * * * * * * * * * * * * * * * * * * * * * * * * * * * * * * * * //

dimensions      [0 1 -1 0 0 0 0];

internalField   nonuniform List<vector> 
5285
(
(0.0928113 0.000172761 6.58196e-23)
(0.0924701 0.000189857 -7.5201e-24)
(0.092097 0.000207821 7.67161e-24)
(0.0916905 0.000226891 -7.83222e-24)
(0.0912482 0.000247341 0)
(0.0907676 0.000269477 8.18379e-24)
(0.0902454 0.000293638 -8.37645e-24)
(0.0896776 0.000320205 0)
(0.0890596 0.000349605 -8.80054e-24)
(0.088386 0.000382315 0)
(0.0876506 0.000418877 -9.28439e-24)
(0.0868458 0.000459917 -1.55309e-22)
(0.0859633 0.00050618 1.64911e-22)
(0.0849931 0.000558575 -1.6524e-22)
(0.0839234 0.000618222 1.64988e-22)
(0.0827403 0.000686509 0)
(0.0814272 0.000765156 0)
(0.0799642 0.000856307 2.01951e-22)
(0.078327 0.000962649 -1.90014e-22)
(0.0764862 0.0010876 0)
(0.0744057 0.00123552 0)
(0.0720407 0.00141205 0)
(0.0693353 0.00162442 0)
(0.0662195 0.00188175 0)
(0.0626054 0.002195 0)
(0.0583846 0.00257589 0)
(0.0534285 0.00303331 0)
(0.0475972 0.00356509 0)
(0.0407698 0.00414271 -1.94596e-23)
(0.0329074 0.00468817 -6.76385e-22)
(0.0241402 0.00504858 6.75371e-22)
(0.0149088 0.00497849 7.41905e-22)
(0.00646138 0.0041159 -7.40791e-22)
(0.0013295 0.00194271 0)
(0.0927631 0.000519189 2.31483e-22)
(0.0924206 0.000570135 -2.46076e-22)
(0.0920468 0.000623746 -2.30513e-23)
(0.0916399 0.000680727 7.8494e-24)
(0.0911978 0.00074189 0)
(0.0907177 0.000808145 -8.20499e-24)
(0.0901963 0.000880506 -2.63834e-22)
(0.0896298 0.000960109 5.50963e-22)
(0.0890135 0.00104823 3.02934e-22)
(0.0883422 0.00114629 -5.7206e-22)
(0.0876096 0.00125592 6.14529e-22)
(0.0868084 0.00137899 -6.23562e-22)
(0.0859302 0.00151773 -9.87877e-24)
(0.0849654 0.00167485 0)
(0.0839024 0.00185371 0)
(0.0827276 0.00205845 0)
(0.0814249 0.00229421 0)
(0.079975 0.00256739 -1.17054e-23)
(0.0783545 0.00288599 -7.94379e-22)
(0.0765353 0.00326019 -3.42858e-23)
(0.0744827 0.00370299 8.26511e-22)
(0.0721543 0.0042311 9.03116e-22)
(0.0694972 0.00486598 -9.01919e-22)
(0.0664455 0.00563462 -3.01101e-23)
(0.0629169 0.00656934 -3.15875e-23)
(0.0588099 0.00770432 -1.09758e-21)
(0.0540034 0.00906482 1.06127e-21)
(0.0483635 0.0106423 -3.66326e-23)
(0.0417678 0.0123494 1.95957e-23)
(0.0341584 0.0139516 -1.37757e-21)
(0.0256172 0.0149932 1.37741e-21)
(0.0164931 0.0147469 -2.90416e-21)
(0.00784973 0.0121542 2.85549e-21)
(0.00190772 0.00569414 -2.9264e-21)
(0.0926755 0.000868355 2.44691e-23)
(0.0923307 0.000952179 -4.78404e-22)
(0.0919557 0.00104064 1.54254e-23)
(0.0915484 0.00113489 -5.09912e-22)
(0.0911067 0.00123624 5.25523e-22)
(0.0906278 0.00134618 -5.33872e-22)
(0.0901083 0.00146638 5.5023e-22)
(0.0895446 0.00159872 1.72844e-23)
(0.088932 0.00174531 -1.77338e-23)
(0.0882653 0.00190851 1.82131e-23)
(0.0875386 0.002091 -6.08811e-22)
(0.0867446 0.00229591 6.27539e-22)
(0.0858755 0.00252694 6.66434e-22)
(0.0849216 0.00278858 -6.45963e-22)
(0.0838722 0.0030864 0)
(0.0827144 0.00342726 0)
(0.0814329 0.00381963 2.26693e-23)
(0.0800097 0.00427407 1.56158e-21)
(0.0784231 0.00480374 3.8337e-23)
(0.0766475 0.00542535 -1.57245e-21)
(0.0746513 0.00616019 0)
(0.0723967 0.00703555 -2.76005e-23)
(0.0698369 0.00808631 1.92838e-21)
(0.0669145 0.00935614 -3.85756e-21)
(0.0635585 0.0108968 4.10797e-21)
(0.0596812 0.0127621 1.38286e-22)
(0.0551768 0.0149893 -2.15346e-21)
(0.0499226 0.0175576 -2.37086e-21)
(0.0437921 0.0203153 2.44344e-21)
(0.036686 0.022872 1.72006e-24)
(0.0285877 0.0244789 -4.23942e-23)
(0.0196643 0.0239491 2.81368e-21)
(0.0105978 0.0196057 -2.72453e-21)
(0.00301509 0.00909613 -2.72246e-21)
(0.0925665 0.00122075 -4.85695e-22)
(0.0922192 0.00133597 2.15322e-26)
(0.0918431 0.00145804 0)
(0.091436 0.00158851 -4.96755e-22)
(0.0909955 0.00172918 5.12375e-22)
(0.0905189 0.00188207 0)
(0.0900029 0.00204946 -1.10157e-21)
(0.0894439 0.00223395 1.08372e-21)
(0.0888373 0.00243845 1.79026e-23)
(0.0881783 0.00266626 -3.36088e-26)
(0.0874609 0.00292111 1.88883e-23)
(0.0866785 0.00320734 0)
(0.0858236 0.00353009 -4.81831e-26)
(0.0848871 0.00389564 0)
(0.0838591 0.00431168 -2.13741e-23)
(0.0827277 0.00478771 1.4437e-21)
(0.0814791 0.00533544 -1.44328e-21)
(0.0800972 0.00596938 -2.38617e-23)
(0.078563 0.00670762 4.9455e-23)
(0.0768542 0.00757299 -1.70741e-21)
(0.0749444 0.00859448 1.65432e-21)
(0.0728024 0.0098091 2.80776e-23)
(0.0703908 0.0112638 -3.58545e-25)
(0.0676652 0.013017 3.02464e-23)
(0.0645716 0.0151366 -2.08947e-21)
(0.0610436 0.0176912 4.23916e-21)
(0.0569978 0.0207231 -2.21763e-21)
(0.0523279 0.024191 2.33502e-21)
(0.0468985 0.0278724 -2.44491e-21)
(0.0405445 0.031225 -4.94958e-21)
(0.0330914 0.0332322 1.01287e-20)
(0.0244354 0.0322855 -5.14331e-21)
(0.0147491 0.0261636 0)
(0.00465093 0.0119872 -4.83449e-21)
(0.0924629 0.00157609 0)
(0.0921138 0.00172096 -4.77986e-22)
(0.0917376 0.00187515 5.09045e-22)
(0.0913319 0.00204057 -1.59566e-23)
(0.0908943 0.00221944 -1.07355e-21)
(0.090422 0.00241426 1.05769e-21)
(0.0899118 0.00262792 -1.71633e-23)
(0.0893602 0.00286366 0)
(0.0887629 0.0031252 0)
(0.0881152 0.00341672 -1.22567e-21)
(0.0874118 0.00374296 1.18845e-21)
(0.0866464 0.00410945 0)
(0.085812 0.00452274 -4.06864e-23)
(0.0849006 0.0049908 0)
(0.0839032 0.00552338 2.17491e-23)
(0.0828094 0.00613247 -2.244e-23)
(0.0816073 0.00683282 -2.33389e-23)
(0.0802835 0.0076426 2.41065e-23)
(0.0788224 0.00858439 1.58718e-21)
(0.0772064 0.00968652 -1.63811e-21)
(0.0754158 0.0109848 3.57464e-21)
(0.0734284 0.0125244 -3.5771e-21)
(0.0712195 0.0143625 3.82364e-21)
(0.0687621 0.0165689 1.30442e-22)
(0.0660254 0.0192236 -4.05005e-21)
(0.0629716 0.0224038 -3.28243e-23)
(0.0595478 0.0261489 1.31753e-24)
(0.0556683 0.0303898 1.80187e-24)
(0.0511851 0.034831 2.46897e-24)
(0.0458457 0.0387927 -7.37562e-23)
(0.0392613 0.0410361 -3.43796e-23)
(0.0309537 0.0396022 -3.28045e-23)
(0.0204509 0.0317696 0)
(0.0068313 0.0143436 9.68625e-24)
(0.0923955 0.00193795 -3.46701e-23)
(0.0920466 0.00211137 9.57289e-22)
(0.0916722 0.0022969 9.8548e-22)
(0.0912703 0.00249678 2.33349e-23)
(0.0908381 0.00271362 -1.04323e-21)
(0.090373 0.00295041 0)
(0.089872 0.00321057 0)
(0.0893316 0.00349803 -1.15671e-21)
(0.088748 0.00381727 1.1401e-21)
(0.0881169 0.00417335 1.22548e-21)
(0.0874333 0.00457204 -1.2273e-21)
(0.0866918 0.00502005 0)
(0.0858862 0.00552536 1.36708e-21)
(0.0850096 0.00609761 -1.36972e-21)
(0.0840544 0.00674861 0)
(0.0830119 0.00749277 -2.96319e-21)
(0.081873 0.00834769 2.99061e-21)
(0.0806273 0.00933498 -2.47146e-23)
(0.0792636 0.0104812 -3.31576e-21)
(0.0777704 0.0118195 3.34647e-21)
(0.076136 0.0133909 0)
(0.0743496 0.0152469 3.7895e-21)
(0.0724026 0.0174505 -3.76626e-21)
(0.0702896 0.020077 3.08572e-23)
(0.0680095 0.0232087 4.23842e-21)
(0.0655612 0.0269173 -8.54725e-21)
(0.0629309 0.0312219 -2.61081e-23)
(0.0600611 0.0360083 -8.9055e-24)
(0.0567941 0.0409004 4.56664e-21)
(0.0527833 0.0451009 4.46223e-24)
(0.0473975 0.0472218 -4.04278e-21)
(0.0396851 0.0450963 4.14429e-21)
(0.0282395 0.0357253 0)
(0.00985668 0.0158138 3.72545e-23)
(0.0923929 0.00230002 -4.70984e-24)
(0.092047 0.00250089 9.98125e-22)
(0.0916779 0.00271698 1.59113e-23)
(0.0912832 0.00295088 0)
(0.0908604 0.00320557 0)
(0.0904069 0.00348453 -1.11197e-21)
(0.0899199 0.00379176 1.11478e-21)
(0.0893964 0.0041319 0)
(0.0888328 0.00451021 1.86908e-23)
(0.0882256 0.00493271 0)
(0.0875705 0.00540626 -1.28817e-21)
(0.0868628 0.00593887 2.62168e-21)
(0.0860976 0.00654006 -1.3336e-21)
(0.0852694 0.00722132 -2.82384e-21)
(0.0843724 0.00799667 -9.45673e-23)
(0.0834005 0.00888311 -1.0076e-22)
(0.0823473 0.00990129 -1.07167e-22)
(0.0812065 0.0110763 3.17748e-21)
(0.0799723 0.0124389 3.41901e-21)
(0.0786401 0.0140265 -3.42716e-21)
(0.0772075 0.0158848 0)
(0.0756764 0.0180692 3.83342e-21)
(0.0740553 0.0206446 -3.84232e-21)
(0.0723622 0.0236831 -4.13947e-21)
(0.0706267 0.0272534 4.11686e-21)
(0.0688865 0.0313958 3.40198e-23)
(0.0671709 0.0360707 4.29809e-21)
(0.0654599 0.0410699 -7.16298e-23)
(0.0636059 0.045891 -4.31466e-21)
(0.0612102 0.0496048 3.33249e-23)
(0.0574701 0.0507604 0)
(0.051061 0.0472811 -2.69917e-23)
(0.0394371 0.0364921 -1.40537e-21)
(0.0157823 0.0155977 5.61346e-22)
(-0.000264913 0.000202373 0)
(-0.000416148 -0.000156377 2.66564e-22)
(0.000484242 -0.000857321 -2.66964e-22)
(0.00280063 -0.00168149 -2.19622e-22)
(0.00656899 -0.00246439 2.19952e-22)
(0.0116039 -0.00309466 -5.52236e-24)
(0.0175727 -0.00351525 0)
(0.0240903 -0.00371606 0)
(0.030788 -0.00372131 0)
(0.0373582 -0.0035746 0)
(0.0435756 -0.00332541 0)
(0.049299 -0.00301943 0)
(0.05446 -0.00269331 0)
(0.0590457 -0.00237307 0)
(0.0630805 -0.0020749 0)
(0.0666107 -0.00180715 1.16513e-23)
(0.0696926 -0.00157261 -1.0925e-23)
(0.0723839 -0.00137046 0)
(0.0747395 -0.00119796 0)
(0.0768087 -0.0010515 -1.19107e-23)
(0.0786342 -0.000927291 1.19289e-23)
(0.0802525 -0.000821798 -1.16525e-23)
(-0.000192404 0.000495657 -1.13738e-21)
(4.14015e-05 -0.00065823 -1.13507e-21)
(0.00158087 -0.00273477 1.11783e-21)
(0.00448819 -0.005135 -4.42894e-22)
(0.00869646 -0.00739847 4.45429e-22)
(0.0139743 -0.00921303 5.56041e-24)
(0.0199924 -0.0104199 -9.74708e-24)
(0.0264022 -0.0109923 -2.20654e-22)
(0.0328856 -0.011 2.13084e-22)
(0.039185 -0.0105679 -4.86942e-24)
(0.0451156 -0.00983814 -3.82528e-24)
(0.0505646 -0.00894224 8.1483e-23)
(0.0554802 -0.00798624 -8.15921e-23)
(0.0598566 -0.00704585 -5.89034e-23)
(0.0637193 -0.00616857 5.50097e-24)
(0.0671116 -0.00537922 5.35528e-23)
(0.0700849 -0.00468632 -7.4769e-25)
(0.0726919 -0.00408799 -1.61061e-24)
(0.0749824 -0.00357648 0)
(0.0770016 -0.00314145 0)
(0.0787886 -0.00277199 0)
(0.0803771 -0.00245778 -7.8373e-25)
(-3.9806e-08 0.000471425 -1.25438e-21)
(0.00104654 -0.00166207 1.23246e-21)
(0.00380747 -0.00504371 -1.19551e-21)
(0.00780869 -0.00882502 -1.6025e-23)
(0.0128085 -0.0123331 -1.12235e-24)
(0.0185077 -0.0151195 -7.12958e-22)
(0.0245917 -0.01696 7.36552e-22)
(0.0307827 -0.0178208 4.87802e-22)
(0.0368561 -0.0178095 -9.23813e-23)
(0.0426448 -0.017116 -6.77056e-22)
(0.0480377 -0.0159568 5.44408e-22)
(0.0529728 -0.0145339 -2.35929e-22)
(0.0574283 -0.0130117 -3.04209e-24)
(0.0614118 -0.011509 0)
(0.0649501 -0.0101017 1.27831e-22)
(0.0680813 -0.00883023 -1.11385e-23)
(0.0708482 -0.00770962 -1.14793e-22)
(0.073294 -0.00673821 3.46596e-24)
(0.0754596 -0.00590478 0)
(0.0773822 -0.00519363 0)
(0.0790943 -0.00458791 5.38832e-23)
(0.0806246 -0.00407148 -5.21811e-23)
(0.000438695 2.23769e-05 -2.8699e-21)
(0.00281961 -0.00337294 0)
(0.00723015 -0.00796122 2.45373e-21)
(0.0126541 -0.0128321 -4.68139e-21)
(0.0186331 -0.0172353 2.24054e-21)
(0.0248117 -0.0206819 7.92022e-22)
(0.0309174 -0.0229337 -8.32732e-22)
(0.0367735 -0.0239634 5.5886e-22)
(0.0422768 -0.023904 -1.01785e-21)
(0.0473741 -0.022986 4.51641e-22)
(0.0520457 -0.0214737 5.58621e-24)
(0.0562932 -0.0196175 8.18562e-25)
(0.0601321 -0.0176241 3.09417e-24)
(0.0635865 -0.0156458 -1.76066e-22)
(0.0666854 -0.0137822 1.70604e-22)
(0.0694604 -0.0120884 4.60519e-24)
(0.0719435 -0.0105869 -1.9515e-24)
(0.0741657 -0.00927812 1.25589e-22)
(0.0761563 -0.00814943 -1.25338e-22)
(0.0779421 -0.00718186 -2.00114e-24)
(0.0795474 -0.00635431 0)
(0.0809938 -0.00564619 1.50296e-25)
(0.00124004 -0.00097206 -2.53369e-24)
(0.00564224 -0.00591253 -2.65682e-23)
(0.011982 -0.0115162 -2.39946e-23)
(0.0189043 -0.0170925 -2.15059e-23)
(0.0258172 -0.0219738 -3.64992e-23)
(0.0323703 -0.0257289 -1.5199e-24)
(0.0383747 -0.0281535 1.27761e-23)
(0.0437749 -0.0292337 -1.20699e-23)
(0.0485956 -0.0291104 -1.00904e-23)
(0.0528979 -0.0280246 8.7999e-22)
(0.0567523 -0.0262582 -1.72057e-22)
(0.0602233 -0.0240842 -7.33056e-22)
(0.0633636 -0.021734 5.02121e-22)
(0.0662145 -0.0193835 -5.03481e-22)
(0.0688076 -0.0171512 1.91003e-22)
(0.0711681 -0.0151061 -1.96673e-22)
(0.073317 -0.0132795 2.86927e-24)
(0.0752726 -0.011676 -2.2068e-24)
(0.0770518 -0.0102844 -2.46935e-24)
(0.0786705 -0.0090845 2.03606e-24)
(0.0801434 -0.00805308 0)
(0.0814845 -0.00716665 -4.12678e-24)
(0.0827067 -0.00640347 0)
(0.00264879 -0.00225972 5.69013e-23)
(0.0100138 -0.00876275 -2.37541e-24)
(0.0183085 -0.0151413 -3.09253e-21)
(0.0264509 -0.0210838 3.1621e-21)
(0.0339663 -0.0261196 -1.8418e-24)
(0.0406087 -0.0299451 -2.11107e-21)
(0.046309 -0.0324146 2.99995e-22)
(0.0511327 -0.0335231 3.03169e-22)
(0.0552126 -0.0333961 2.87738e-21)
(0.0587002 -0.0322558 -1.30579e-21)
(0.0617353 -0.0303723 1.57806e-23)
(0.0644314 -0.0280186 7.7571e-22)
(0.0668712 -0.0254366 -7.69639e-22)
(0.0691104 -0.0228183 0)
(0.0711837 -0.0202997 -4.9495e-22)
(0.0731115 -0.0179656 4.9751e-22)
(0.0749058 -0.015859 -2.94112e-24)
(0.0765737 -0.0139928 -3.65398e-22)
(0.078121 -0.0123602 3.67399e-22)
(0.0795532 -0.0109429 -2.80661e-24)
(0.0808759 -0.00971753 1.53371e-22)
(0.0820958 -0.00865942 -1.48425e-22)
(0.0832195 -0.00774493 0)
(0.00522637 -0.00343913 -7.71146e-21)
(0.0164579 -0.0115569 4.33284e-21)
(0.0263135 -0.0185453 -2.83944e-23)
(0.0349995 -0.024624 0)
(0.0425352 -0.029617 2.25334e-23)
(0.0488609 -0.0333804 2.47324e-21)
(0.0540259 -0.0358347 -3.21514e-22)
(0.0581852 -0.0369809 -2.17549e-21)
(0.0615369 -0.0369171 1.25559e-23)
(0.0642797 -0.0358274 -1.3556e-21)
(0.0665885 -0.03395 1.34332e-21)
(0.0686018 -0.0315405 9.81904e-22)
(0.070419 -0.0288389 -9.7946e-22)
(0.0721049 -0.0260462 0)
(0.073697 -0.0233139 6.3396e-22)
(0.0752139 -0.0207434 -6.32371e-22)
(0.076662 -0.0183928 -5.00314e-22)
(0.0780416 -0.0162869 4.60552e-23)
(0.0793503 -0.0144267 3.65831e-23)
(0.0805857 -0.0127991 3.19937e-23)
(0.0817466 -0.0113827 3.84166e-22)
(0.082833 -0.0101533 1.68062e-22)
(0.0838464 -0.00908646 -3.32792e-22)
(0.0110595 -0.0113391 0)
(0.0246895 -0.0178533 0)
(0.0352749 -0.0237546 0)
(0.0436952 -0.0289819 0)
(0.0507076 -0.0332748 0)
(0.0564168 -0.0364586 0)
(0.0609268 -0.038471 0)
(0.0644298 -0.0393208 0)
(0.067144 -0.0390851 0)
(0.0692771 -0.0379092 0)
(0.0710096 -0.0359911 0)
(0.0724852 -0.0335545 0)
(0.0738076 -0.0308186 0)
(0.0750447 -0.0279747 0)
(0.0762352 -0.025172 0)
(0.0773972 -0.0225147 0)
(0.0785354 -0.0200654 0)
(0.0796469 -0.0178535 0)
(0.0807257 -0.0158848 0)
(0.0817653 -0.0141495 0)
(0.0827598 -0.0126289 0)
(0.0837054 -0.0113007 0)
(0.0845997 -0.0101414 0)
(0.0854421 -0.00912883 0)
(0.0287304 -0.0244813 0)
(0.0402341 -0.0291403 0)
(0.0493569 -0.0333519 0)
(0.0562969 -0.0369155 0)
(0.0619143 -0.0396449 0)
(0.0663452 -0.0414213 0)
(0.0696869 -0.0422198 0)
(0.0721304 -0.0420787 0)
(0.0738908 -0.041085 0)
(0.0751693 -0.0393716 0)
(0.0761392 -0.0371053 0)
(0.0769377 -0.0344685 0)
(0.0776625 -0.0316375 0)
(0.0783756 -0.0287648 0)
(0.0791095 -0.0259691 0)
(0.0798759 -0.0233324 0)
(0.0806729 -0.0209035 0)
(0.0814915 -0.0187041 0)
(0.0823194 -0.016737 0)
(0.0831446 -0.0149923 0)
(0.0839563 -0.0134527 0)
(0.0847459 -0.012098 0)
(0.0855072 -0.0109068 0)
(0.0511222 -0.0336382 0)
(0.0592951 -0.0371954 0)
(0.0658342 -0.0402306 0)
(0.0705393 -0.0425235 0)
(0.0741954 -0.0440146 0)
(0.0769352 -0.044683 0)
(0.0788273 -0.0445494 0)
(0.0800309 -0.0436724 0)
(0.0807309 -0.0421414 0)
(0.0811006 -0.0400732 0)
(0.0812885 -0.037605 0)
(0.0814117 -0.0348822 0)
(0.0815519 -0.032044 0)
(0.081758 -0.0292102 0)
(0.0820523 -0.026474 0)
(0.0824374 -0.0238996 0)
(0.0829043 -0.0215248 0)
(0.0834371 -0.0193663 0)
(0.0840181 -0.017425 0)
(0.0846301 -0.0156919 0)
(0.0852579 -0.0141516 0)
(0.085889 -0.0127863 0)
(0.0865135 -0.0115773 0)
(0.0738463 -0.0391382 0)
(0.0785095 -0.0418968 0)
(0.0821449 -0.0441306 0)
(0.0844263 -0.0455663 0)
(0.0859887 -0.0462117 0)
(0.086956 -0.0461265 0)
(0.087374 -0.0453738 0)
(0.0873599 -0.0440298 0)
(0.0870545 -0.0421853 0)
(0.08659 -0.0399441 0)
(0.0860797 -0.0374189 0)
(0.0856112 -0.0347249 0)
(0.085244 -0.0319703 0)
(0.0850104 -0.0292477 0)
(0.0849206 -0.0266293 0)
(0.0849687 -0.0241651 0)
(0.0851388 -0.0218846 0)
(0.0854105 -0.019801 0)
(0.0857619 -0.017915 0)
(0.0861721 -0.0162188 0)
(0.0866229 -0.0147001 0)
(0.087099 -0.0133436 0)
(0.0875881 -0.0121336 0)
(0.0939118 -0.0415619 0)
(0.0954927 -0.0438025 0)
(0.0964603 -0.0455085 0)
(0.0965637 -0.0464122 0)
(0.0962593 -0.0465467 0)
(0.0956524 -0.0460187 0)
(0.0947776 -0.0449204 0)
(0.093715 -0.04334 0)
(0.0925616 -0.0413695 0)
(0.0914077 -0.0391031 0)
(0.0903297 -0.0366355 0)
(0.089385 -0.0340586 0)
(0.08861 -0.0314562 0)
(0.0880206 -0.0288996 0)
(0.0876156 -0.0264442 0)
(0.0873819 -0.0241286 0)
(0.0872989 -0.0219761 0)
(0.0873429 -0.0199974 0)
(0.0874896 -0.0181935 0)
(0.0877166 -0.0165588 0)
(0.0880038 -0.0150835 0)
(0.0883341 -0.0137555 0)
(0.0886938 -0.012562 0)
(0.109768 -0.0413911 0)
(0.108975 -0.0433786 0)
(0.107822 -0.0447929 0)
(0.106229 -0.0454299 0)
(0.104483 -0.0453353 0)
(0.102661 -0.0446325 0)
(0.100793 -0.0434266 0)
(0.0989325 -0.0418115 0)
(0.0971407 -0.0398777 0)
(0.0954728 -0.0377122 0)
(0.093974 -0.0353964 0)
(0.0926761 -0.0330056 0)
(0.0915958 -0.0306061 0)
(0.0907352 -0.0282534 0)
(0.0900846 -0.0259906 0)
(0.0896255 -0.0238484 0)
(0.0893347 -0.0218456 0)
(0.0891869 -0.0199918 0)
(0.0891574 -0.0182887 0)
(0.0892229 -0.016733 0)
(0.0893631 -0.0153177 0)
(0.0895604 -0.0140337 0)
(0.0897999 -0.0128709 0)
(0.121039 -0.0393221 0)
(0.118647 -0.0412523 0)
(0.11603 -0.0425592 0)
(0.113291 -0.0431258 0)
(0.110582 -0.0430082 0)
(0.107947 -0.0423276 0)
(0.105415 -0.0411901 0)
(0.103025 -0.0396886 0)
(0.10081 -0.0379106 0)
(0.0988029 -0.0359366 0)
(0.0970243 -0.0338384 0)
(0.0954878 -0.0316795 0)
(0.0941959 -0.0295141 0)
(0.0931412 -0.027387 0)
(0.0923082 -0.025333 0)
(0.0916757 -0.0233772 0)
(0.0912197 -0.0215361 0)
(0.090915 -0.0198188 0)
(0.0907373 -0.0182284 0)
(0.0906642 -0.0167635 0)
(0.0906754 -0.01542 0)
(0.0907538 -0.0141915 0)
(0.0908843 -0.0130706 0)
(0.128144 -0.0360998 0)
(0.124855 -0.0380784 0)
(0.121395 -0.0393964 0)
(0.118016 -0.040016 0)
(0.114775 -0.0400028 0)
(0.111691 -0.0394662 0)
(0.108795 -0.038505 0)
(0.106114 -0.0372076 0)
(0.103668 -0.0356566 0)
(0.101473 -0.0339264 0)
(0.0995352 -0.0320815 0)
(0.0978572 -0.030177 0)
(0.0964327 -0.0282591 0)
(0.0952488 -0.0263652 0)
(0.0942875 -0.0245246 0)
(0.0935268 -0.0227593 0)
(0.0929434 -0.0210843 0)
(0.0925134 -0.0195087 0)
(0.092214 -0.0180373 0)
(0.092024 -0.0166706 0)
(0.0919244 -0.0154068 0)
(0.0918986 -0.0142422 0)
(0.0919322 -0.0131715 0)
(0.131912 -0.0323603 0)
(0.128276 -0.0344136 0)
(0.124475 -0.0357976 0)
(0.120857 -0.0365306 0)
(0.117424 -0.0366832 0)
(0.114179 -0.0363487 0)
(0.111153 -0.035615 0)
(0.10837 -0.0345634 0)
(0.105843 -0.0332704 0)
(0.103579 -0.0318041 0)
(0.101578 -0.0302234 0)
(0.0998353 -0.0285771 0)
(0.0983409 -0.0269056 0)
(0.0970801 -0.0252415 0)
(0.0960344 -0.0236106 0)
(0.0951833 -0.0220328 0)
(0.0945048 -0.0205223 0)
(0.0939774 -0.019089 0)
(0.0935801 -0.0177385 0)
(0.0932936 -0.0164736 0)
(0.0931005 -0.0152943 0)
(0.092985 -0.014199 0)
(0.0929337 -0.0131846 0)
(0.133273 -0.0285644 0)
(0.129666 -0.0306675 0)
(0.125879 -0.0321244 0)
(0.122302 -0.0329842 0)
(0.118914 -0.0333158 0)
(0.115707 -0.033196 0)
(0.112717 -0.0326999 0)
(0.109968 -0.0319004 0)
(0.107468 -0.0308669 0)
(0.105221 -0.0296617 0)
(0.103226 -0.028338 0)
(0.101475 -0.0269401 0)
(0.0999582 -0.0255039 0)
(0.0986608 -0.0240586 0)
(0.097566 -0.0226276 0)
(0.0966551 -0.0212294 0)
(0.0959088 -0.019878 0)
(0.0953078 -0.0185837 0)
(0.0948337 -0.0173532 0)
(0.0944693 -0.0161907 0)
(0.0941985 -0.0150979 0)
(0.0940072 -0.0140751 0)
(0.0938827 -0.0131209 0)
(0.133063 -0.024995 0)
(0.129705 -0.027101 0)
(0.126147 -0.0286097 0)
(0.122783 -0.0295803 0)
(0.119583 -0.0300747 0)
(0.116541 -0.0301536 0)
(0.113692 -0.0298794 0)
(0.111061 -0.0293159 0)
(0.108658 -0.028525 0)
(0.106487 -0.0275629 0)
(0.104544 -0.0264778 0)
(0.102826 -0.0253098 0)
(0.101321 -0.0240915 0)
(0.100017 -0.0228493 0)
(0.0989006 -0.0216047 0)
(0.0979547 -0.0203753 0)
(0.097163 -0.0191748 0)
(0.0965089 -0.0180137 0)
(0.0959764 -0.0168997 0)
(0.0955503 -0.0158381 0)
(0.0952164 -0.014832 0)
(0.094962 -0.0138829 0)
(0.0947755 -0.0129911 0)
(0.13193 -0.0217919 0)
(0.128924 -0.0238527 0)
(0.125701 -0.0253808 0)
(0.122636 -0.0264324 0)
(0.1197 -0.0270586 0)
(0.116889 -0.0273058 0)
(0.114239 -0.0272244 0)
(0.111776 -0.0268688 0)
(0.109511 -0.0262935 0)
(0.107449 -0.0255486 0)
(0.10559 -0.0246777 0)
(0.10393 -0.0237169 0)
(0.102462 -0.0226957 0)
(0.101175 -0.0216384 0)
(0.100057 -0.0205649 0)
(0.0990955 -0.0194917 0)
(0.0982768 -0.0184321 0)
(0.0975867 -0.017397 0)
(0.0970115 -0.0163944 0)
(0.0965382 -0.0154305 0)
(0.0961543 -0.0145095 0)
(0.0958484 -0.013634 0)
(0.0956102 -0.0128053 0)
(0.130326 -0.018997 0)
(0.127698 -0.0209744 0)
(0.124843 -0.0224896 0)
(0.122106 -0.0235891 0)
(0.119461 -0.0243123 0)
(0.116907 -0.0246928 0)
(0.114481 -0.0247701 0)
(0.112208 -0.02459 0)
(0.110102 -0.0241995 0)
(0.108169 -0.0236431 0)
(0.106411 -0.0229597 0)
(0.104826 -0.0221817 0)
(0.10341 -0.0213359 0)
(0.102155 -0.0204445 0)
(0.101052 -0.0195258 0)
(0.100091 -0.0185953 0)
(0.0992604 -0.017666 0)
(0.0985485 -0.0167484 0)
(0.0979441 -0.0158511 0)
(0.097436 -0.0149807 0)
(0.0970135 -0.0141421 0)
(0.0966666 -0.0133388 0)
(0.0963861 -0.0125729 0)
(0.128539 -0.0165957 0)
(0.126269 -0.0184644 0)
(0.123774 -0.0199403 0)
(0.121359 -0.0210581 0)
(0.119003 -0.0218456 0)
(0.116707 -0.0223256 0)
(0.114508 -0.0225283 0)
(0.11243 -0.0224913 0)
(0.110489 -0.0222551 0)
(0.108692 -0.0218585 0)
(0.107044 -0.021336 0)
(0.105545 -0.0207169 0)
(0.104192 -0.0200252 0)
(0.102981 -0.0192809 0)
(0.101904 -0.0185009 0)
(0.100955 -0.0176997 0)
(0.100124 -0.0168895 0)
(0.0994022 -0.0160807 0)
(0.0987799 -0.0152818 0)
(0.0982478 -0.0144999 0)
(0.0977967 -0.0137401 0)
(0.0974181 -0.0130065 0)
(0.0971037 -0.0123021 0)
(0.126733 -0.0145467 0)
(0.124785 -0.0162938 0)
(0.122618 -0.0177117 0)
(0.120501 -0.0188239 0)
(0.118415 -0.0196479 0)
(0.116365 -0.0201979 0)
(0.114384 -0.020496 0)
(0.112497 -0.0205726 0)
(0.110718 -0.0204623 0)
(0.109059 -0.0201989 0)
(0.107523 -0.0198128 0)
(0.106113 -0.01933 0)
(0.10483 -0.0187721 0)
(0.103669 -0.0181571 0)
(0.102628 -0.0175004 0)
(0.1017 -0.0168152 0)
(0.100878 -0.0161132 0)
(0.100156 -0.0154042 0)
(0.0995252 -0.0146966 0)
(0.0989781 -0.0139975 0)
(0.0985072 -0.0133124 0)
(0.0981049 -0.0126457 0)
(0.0977642 -0.0120008 0)
(0.124997 -0.0128009 0)
(0.123325 -0.0144226 0)
(0.121448 -0.0157709 0)
(0.119597 -0.0168599 0)
(0.117757 -0.0176987 0)
(0.115933 -0.0182943 0)
(0.114155 -0.0186622 0)
(0.112447 -0.0188269 0)
(0.110824 -0.0188175 0)
(0.109297 -0.0186634 0)
(0.107873 -0.0183913 0)
(0.106554 -0.0180244 0)
(0.105343 -0.0175818 0)
(0.104239 -0.0170796 0)
(0.103239 -0.0165316 0)
(0.102338 -0.0159501 0)
(0.101533 -0.0153455 0)
(0.100818 -0.0147275 0)
(0.100187 -0.0141039 0)
(0.0996321 -0.0134818 0)
(0.0991487 -0.0128668 0)
(0.0987299 -0.0122636 0)
(0.0983696 -0.0116758 0)
(0.123369 -0.0113105 0)
(0.121933 -0.0128092 0)
(0.120306 -0.0140822 0)
(0.118689 -0.0151361 0)
(0.117066 -0.0159733 0)
(0.115445 -0.0165952 0)
(0.113853 -0.017012 0)
(0.112311 -0.0172432 0)
(0.110834 -0.0173133 0)
(0.109434 -0.0172478 0)
(0.108117 -0.0170703 0)
(0.106888 -0.016801 0)
(0.10575 -0.016457 0)
(0.104704 -0.0160526 0)
(0.103749 -0.0156 0)
(0.102881 -0.0151102 0)
(0.102099 -0.0145931 0)
(0.101397 -0.0140574 0)
(0.100771 -0.0135107 0)
(0.100215 -0.0129597 0)
(0.0997255 -0.0124101 0)
(0.0992961 -0.0118666 0)
(0.0989219 -0.0113329 0)
(0.121863 -0.0100334 0)
(0.120625 -0.0114153 0)
(0.119213 -0.0126114 0)
(0.117798 -0.0136228 0)
(0.116367 -0.0144466 0)
(0.114927 -0.01508 0)
(0.113502 -0.0155291 0)
(0.112111 -0.0158091 0)
(0.110769 -0.0159408 0)
(0.109487 -0.0159463 0)
(0.108273 -0.0158463 0)
(0.107131 -0.0156587 0)
(0.106066 -0.0153985 0)
(0.10508 -0.0150783 0)
(0.104171 -0.0147089 0)
(0.10334 -0.0143002 0)
(0.102584 -0.013861 0)
(0.101899 -0.0133994 0)
(0.101284 -0.0129225 0)
(0.100733 -0.0124368 0)
(0.100242 -0.0119478 0)
(0.0998071 -0.0114601 0)
(0.0994241 -0.0109775 0)
(0.120479 -0.00893443 0)
(0.119408 -0.0102073 0)
(0.118179 -0.0113277 0)
(0.116938 -0.0122925 0)
(0.115675 -0.0130949 0)
(0.114395 -0.0137288 0)
(0.113119 -0.0141971 0)
(0.111865 -0.0145117 0)
(0.110647 -0.0146901 0)
(0.109475 -0.0147517 0)
(0.108357 -0.0147148 0)
(0.107299 -0.014595 0)
(0.106305 -0.0144056 0)
(0.105377 -0.0141576 0)
(0.104517 -0.0138604 0)
(0.103724 -0.0135228 0)
(0.102997 -0.0131528 0)
(0.102334 -0.0127576 0)
(0.101732 -0.012344 0)
(0.10119 -0.0119179 0)
(0.100702 -0.0114847 0)
(0.100266 -0.0110488 0)
(0.0998787 -0.0106141 0)
(0.11921 -0.00798423 0)
(0.11828 -0.00915679 0)
(0.117206 -0.0102045 0)
(0.116116 -0.0111209 0)
(0.114999 -0.0118966 0)
(0.11386 -0.012523 0)
(0.112717 -0.0130004 0)
(0.111587 -0.0133382 0)
(0.110481 -0.0135512 0)
(0.109411 -0.0136566 0)
(0.108383 -0.0136705 0)
(0.107404 -0.0136068 0)
(0.106478 -0.0134768 0)
(0.105608 -0.0132903 0)
(0.104795 -0.0130556 0)
(0.104041 -0.0127802 0)
(0.103346 -0.0124712 0)
(0.102707 -0.0121353 0)
(0.102123 -0.0117786 0)
(0.101592 -0.0114067 0)
(0.101111 -0.0110246 0)
(0.100678 -0.0106366 0)
(0.100289 -0.0102466 0)
(0.118048 -0.00715898 0)
(0.117236 -0.00823987 0)
(0.116296 -0.00921868 0)
(0.115336 -0.0100868 0)
(0.114346 -0.0108326 0)
(0.11333 -0.0114457 0)
(0.112305 -0.0119247 0)
(0.111286 -0.0122767 0)
(0.110283 -0.0125146 0)
(0.109306 -0.0126536 0)
(0.108361 -0.012708 0)
(0.107456 -0.01269 0)
(0.106595 -0.0126098 0)
(0.105781 -0.0124755 0)
(0.105016 -0.0122944 0)
(0.104302 -0.0120732 0)
(0.103638 -0.011818 0)
(0.103024 -0.0115348 0)
(0.10246 -0.0112292 0)
(0.101943 -0.0109063 0)
(0.101472 -0.0105708 0)
(0.101044 -0.0102269 0)
(0.100658 -0.0098782 0)
(0.116983 -0.00643917 0)
(0.116272 -0.00743667 0)
(0.115446 -0.00835099 0)
(0.114597 -0.00917188 0)
(0.113718 -0.00988602 0)
(0.112812 -0.010482 0)
(0.111892 -0.0109568 0)
(0.110971 -0.0113161 0)
(0.110061 -0.011571 0)
(0.109169 -0.0117352 0)
(0.108302 -0.0118215 0)
(0.107466 -0.0118408 0)
(0.106666 -0.0118017 0)
(0.105906 -0.0117116 0)
(0.105187 -0.0115765 0)
(0.104512 -0.0114022 0)
(0.10388 -0.0111941 0)
(0.103294 -0.0109575 0)
(0.10275 -0.0106976 0)
(0.10225 -0.0104188 0)
(0.10179 -0.0101258 0)
(0.10137 -0.0098222 0)
(0.100988 -0.00951168 0)
(0.116006 -0.0058088 0)
(0.115382 -0.00673062 0)
(0.114653 -0.00758496 0)
(0.113901 -0.00836032 0)
(0.113119 -0.00904227 0)
(0.112308 -0.00961852 0)
(0.111481 -0.010085 0)
(0.11065 -0.0104461 0)
(0.109822 -0.0107119 0)
(0.109008 -0.0108945 0)
(0.108212 -0.0110055 0)
(0.10744 -0.0110546 0)
(0.106698 -0.0110496 0)
(0.105989 -0.0109965 0)
(0.105315 -0.0109006 0)
(0.104678 -0.0107669 0)
(0.104079 -0.0106 0)
(0.103519 -0.0104046 0)
(0.102998 -0.0101852 0)
(0.102515 -0.0099462 0)
(0.102069 -0.00969149 0)
(0.101658 -0.00942475 0)
(0.101283 -0.00914932 0)
(0.115109 -0.00525469 0)
(0.114558 -0.00610789 0)
(0.113914 -0.00690672 0)
(0.113246 -0.00763871 0)
(0.112549 -0.00828861 0)
(0.111822 -0.00884356 0)
(0.111077 -0.00929873 0)
(0.110325 -0.00965762 0)
(0.109573 -0.00992922 0)
(0.108829 -0.0101247 0)
(0.108098 -0.0102545 0)
(0.107387 -0.0103274 0)
(0.106698 -0.0103502 0)
(0.106037 -0.0103281 0)
(0.105406 -0.0102655 0)
(0.104806 -0.0101667 0)
(0.104239 -0.0100356 0)
(0.103706 -0.00987643 0)
(0.103208 -0.00969313 0)
(0.102743 -0.00948961 0)
(0.102311 -0.00926952 0)
(0.101912 -0.00903627 0)
(0.101544 -0.00879296 0)
(0.114284 -0.0047659 0)
(0.113797 -0.00555692 0)
(0.113225 -0.00630452 0)
(0.112631 -0.0069955 0)
(0.112007 -0.00761402 0)
(0.111354 -0.00814684 0)
(0.110683 -0.00858863 0)
(0.110002 -0.00894219 0)
(0.109318 -0.00921574 0)
(0.108637 -0.00941956 0)
(0.107966 -0.00956334 0)
(0.10731 -0.00965495 0)
(0.106672 -0.0097003 0)
(0.106056 -0.0097039 0)
(0.105465 -0.00966948 0)
(0.104901 -0.00960055 0)
(0.104366 -0.00950058 0)
(0.10386 -0.00937312 0)
(0.103384 -0.00922173 0)
(0.102938 -0.0090499 0)
(0.102522 -0.00886097 0)
(0.102135 -0.00865806 0)
(0.101776 -0.00844408 0)
(0.113524 -0.00433335 0)
(0.113092 -0.00506798 0)
(0.112583 -0.00576839 0)
(0.112053 -0.0064208 0)
(0.111494 -0.00700895 0)
(0.110907 -0.00751938 0)
(0.1103 -0.0079464 0)
(0.109683 -0.00829235 0)
(0.10906 -0.00856482 0)
(0.108437 -0.00877341 0)
(0.107821 -0.00892713 0)
(0.107215 -0.00903312 0)
(0.106624 -0.00909661 0)
(0.106051 -0.00912142 0)
(0.105498 -0.00911068 0)
(0.104968 -0.00906728 0)
(0.104463 -0.00899419 0)
(0.103983 -0.00889446 0)
(0.10353 -0.00877123 0)
(0.103103 -0.00862761 0)
(0.102703 -0.00846662 0)
(0.102329 -0.00829114 0)
(0.101981 -0.00810384 0)
(0.112823 -0.00394943 0)
(0.112438 -0.0046329 0)
(0.111985 -0.00528988 0)
(0.11151 -0.00590614 0)
(0.111008 -0.00646513 0)
(0.110479 -0.00695328 0)
(0.109931 -0.00736469 0)
(0.10937 -0.00770135 0)
(0.108802 -0.00797041 0)
(0.108232 -0.00818092 0)
(0.107665 -0.00834131 0)
(0.107106 -0.00845811 0)
(0.106558 -0.00853597 0)
(0.106025 -0.00857814 0)
(0.105508 -0.00858719 0)
(0.105011 -0.00856551 0)
(0.104535 -0.00851557 0)
(0.104081 -0.00843999 0)
(0.103649 -0.00834153 0)
(0.103242 -0.00822295 0)
(0.102858 -0.00808697 0)
(0.102497 -0.00793622 0)
(0.10216 -0.00777314 0)
(0.112175 -0.00360774 0)
(0.111832 -0.00424473 0)
(0.111427 -0.00486176 0)
(0.111001 -0.00544423 0)
(0.110549 -0.00597539 0)
(0.110072 -0.00644164 0)
(0.109575 -0.006837 0)
(0.109065 -0.0071632 0)
(0.108546 -0.00742707 0)
(0.108024 -0.00763722 0)
(0.107503 -0.0078016 0)
(0.106987 -0.00792626 0)
(0.106479 -0.00801532 0)
(0.105982 -0.00807155 0)
(0.1055 -0.00809705 0)
(0.105033 -0.00809374 0)
(0.104585 -0.00806367 0)
(0.104155 -0.00800908 0)
(0.103746 -0.00793235 0)
(0.103357 -0.00783594 0)
(0.102989 -0.00772229 0)
(0.102642 -0.00759376 0)
(0.102317 -0.00745262 0)
(0.111576 -0.00330288 0)
(0.111269 -0.0038976 0)
(0.110906 -0.00447788 0)
(0.110524 -0.0050288 0)
(0.110116 -0.00553351 0)
(0.109684 -0.00597844 0)
(0.109233 -0.00635758 0)