/*--------------------------------*- C++ -*----------------------------------*\
| =========                 |                                                 |
| \\      /  F ield         | OpenFOAM: The Open Source CFD Toolbox           |
|  \\    /   O peration     | Version:  2412                                  |
|   \\  /    A nd           | Website:  www.openfoam.com                      |
|    \\/     M anipulation  |                                                 |
\*---------------------------------------------------------------------------*/
FoamFile
{
    version     2.0;
    format      ascii;
    arch        "LSB;label=32;scalar=64";
    class       volVectorField;
    location    "22";
    object      vorticity;
}
// * * * * * * * * * * * * * * * * * * * * * * * * * * * * * * * * * * * * * //

dimensions      [0 0 -1 0 0 0 0];

internalField   nonuniform List<vector> 
5285
(
(0 -0 -4.09941e-06)
(0 -0 -3.55851e-06)
(0 -0 -2.90032e-06)
(0 -0 -2.20024e-06)
(0 -0 -1.55567e-06)
(0 -0 -9.85126e-07)
(0 -0 -4.85429e-07)
(0 -0 -4.94766e-08)
(0 -0 3.27631e-07)
(0 -0 6.47105e-07)
(0 -0 9.10372e-07)
(0 -0 1.12106e-06)
(0 -0 1.28488e-06)
(0 -0 1.40893e-06)
(0 -0 1.50064e-06)
(0 -0 1.56604e-06)
(0 -0 1.61025e-06)
(0 -0 1.63787e-06)
(0 -0 1.65195e-06)
(0 -0 1.65524e-06)
(0 -0 1.65007e-06)
(0 -0 1.63793e-06)
(0 -0 1.62023e-06)
(0 -0 1.59843e-06)
(0 -0 1.57331e-06)
(0 -0 1.54588e-06)
(0 -0 1.5173e-06)
(0 -0 1.48768e-06)
(0 -0 1.4582e-06)
(0 -0 1.42724e-06)
(0 -0 1.40147e-06)
(0 -0 -3.64608e-06)
(0 -0 -3.07865e-06)
(0 -0 -2.41013e-06)
(0 -0 -1.69538e-06)
(0 -0 -1.04523e-06)
(0 -0 -4.73642e-07)
(0 -0 2.50152e-08)
(0 -0 4.58771e-07)
(0 -0 8.32575e-07)
(0 -0 1.14822e-06)
(0 -0 1.407e-06)
(0 -0 1.61225e-06)
(0 -0 1.77016e-06)
(0 -0 1.88803e-06)
(0 -0 1.973e-06)
(0 -0 2.03165e-06)
(0 -0 2.06932e-06)
(0 -0 2.09001e-06)
(0 -0 2.0972e-06)
(0 -0 2.09378e-06)
(0 -0 2.08143e-06)
(0 -0 2.0622e-06)
(0 -0 2.03752e-06)
(0 -0 2.00839e-06)
(0 -0 1.97625e-06)
(0 -0 1.94188e-06)
(0 -0 1.90625e-06)
(0 -0 1.86981e-06)
(0 -0 1.83395e-06)
(0 -0 1.79622e-06)
(0 -0 1.76564e-06)
(0 -0 1.7296e-06)
(0 -0 1.68715e-06)
(0 -0 1.6528e-06)
(0 -0 1.62153e-06)
(0 -0 1.5917e-06)
(0 -0 1.56337e-06)
(0 -0 1.53634e-06)
(0 -0 1.51061e-06)
(0 -0 1.48627e-06)
(0 -0 1.46262e-06)
(0 -0 1.44044e-06)
(0 -0 1.41849e-06)
(0 -0 1.39875e-06)
(0 -0 1.37824e-06)
(0 -0 1.36146e-06)
(0 -0 1.34088e-06)
(0 -0 1.32884e-06)
(0 -0 1.30473e-06)
(0 -0 1.30196e-06)
(0 -0 1.26844e-06)
(0 -0 1.28351e-06)
(0 -0 1.22701e-06)
(0 -0 1.2769e-06)
(0 -0 1.17427e-06)
(0 -0 1.28695e-06)
(0 -0 1.10558e-06)
(0 -0 1.31677e-06)
(0 -0 1.02025e-06)
(0 -0 1.35701e-06)
(0 -0 9.35947e-07)
(0 -0 1.38615e-06)
(0 -0 8.30139e-07)
(0 -0 1.6619e-06)
(0 -0 -3.61134e-07)
(0 -0 5.23687e-06)
(0 -0 -8.7912e-06)
(0 -0 1.85807e-05)
(0 -0 -1.82278e-05)
(0 -0 6.5256e-06)
(0 -0 1.12309e-05)
(0 -0 -3.06545e-06)
(0 -0 -2.55106e-06)
(0 -0 -1.87353e-06)
(0 -0 -1.15116e-06)
(0 -0 -4.92456e-07)
(0 -0 8.55178e-08)
(0 -0 5.88594e-07)
(0 -0 1.02529e-06)
(0 -0 1.40083e-06)
(0 -0 1.71696e-06)
(0 -0 1.97505e-06)
(0 -0 2.17862e-06)
(0 -0 2.33387e-06)
(0 -0 2.44827e-06)
(0 -0 2.52929e-06)
(0 -0 2.5835e-06)
(0 -0 2.61635e-06)
(0 -0 2.632e-06)
(0 -0 2.63387e-06)
(0 -0 2.62467e-06)
(0 -0 2.60638e-06)
(0 -0 2.58083e-06)
(0 -0 2.54954e-06)
(0 -0 2.51379e-06)
(0 -0 2.47477e-06)
(0 -0 2.43357e-06)
(0 -0 2.39105e-06)
(0 -0 2.34779e-06)
(0 -0 2.30505e-06)
(0 -0 2.26061e-06)
(0 -0 2.22215e-06)
(0 -0 2.1854e-06)
(0 -0 2.14095e-06)
(0 -0 2.09937e-06)
(0 -0 2.06091e-06)
(0 -0 2.02448e-06)
(0 -0 1.98952e-06)
(0 -0 1.95627e-06)
(0 -0 1.92446e-06)
(0 -0 1.89414e-06)
(0 -0 1.86491e-06)
(0 -0 1.83707e-06)
(0 -0 1.80999e-06)
(0 -0 1.78493e-06)
(0 -0 1.75957e-06)
(0 -0 1.73794e-06)
(0 -0 1.71272e-06)
(0 -0 1.69624e-06)
(0 -0 1.66766e-06)
(0 -0 1.66103e-06)
(0 -0 1.62261e-06)
(0 -0 1.63472e-06)
(0 -0 1.57267e-06)
(0 -0 1.62118e-06)
(0 -0 1.51181e-06)
(0 -0 1.62523e-06)
(0 -0 1.4345e-06)
(0 -0 1.65066e-06)
(0 -0 1.33948e-06)
(0 -0 1.68799e-06)
(0 -0 1.24391e-06)
(0 -0 1.71667e-06)
(0 -0 1.12183e-06)
(0 -0 2.00648e-06)
(0 -0 -1.30859e-07)
(0 -0 5.71658e-06)
(0 -0 -8.87695e-06)
(0 -0 1.95131e-05)
(0 -0 -1.85328e-05)
(0 -0 6.64437e-06)
(0 -0 1.23924e-05)
(0 -0 -2.43139e-06)
(0 -0 -1.93413e-06)
(0 -0 -1.26596e-06)
(0 -0 -5.34827e-07)
(0 -0 1.35512e-07)
(0 -0 7.24159e-07)
(0 -0 1.23629e-06)
(0 -0 1.68039e-06)
(0 -0 2.06173e-06)
(0 -0 2.38207e-06)
(0 -0 2.64281e-06)
(0 -0 2.8476e-06)
(0 -0 3.00275e-06)
(0 -0 3.11595e-06)
(0 -0 3.19487e-06)
(0 -0 3.24624e-06)
(0 -0 3.27558e-06)
(0 -0 3.28718e-06)
(0 -0 3.28445e-06)
(0 -0 3.27005e-06)
(0 -0 3.24607e-06)
(0 -0 3.21436e-06)
(0 -0 3.17648e-06)
(0 -0 3.13386e-06)
(0 -0 3.08774e-06)
(0 -0 3.03925e-06)
(0 -0 2.98932e-06)
(0 -0 2.9386e-06)
(0 -0 2.88833e-06)
(0 -0 2.83679e-06)
(0 -0 2.78982e-06)
(0 -0 2.74977e-06)
(0 -0 2.70012e-06)
(0 -0 2.65154e-06)
(0 -0 2.60538e-06)
(0 -0 2.56124e-06)
(0 -0 2.51893e-06)
(0 -0 2.47833e-06)
(0 -0 2.43935e-06)
(0 -0 2.40205e-06)
(0 -0 2.36596e-06)
(0 -0 2.33157e-06)
(0 -0 2.29794e-06)
(0 -0 2.26667e-06)
(0 -0 2.23508e-06)
(0 -0 2.2076e-06)
(0 -0 2.17638e-06)
(0 -0 2.15448e-06)
(0 -0 2.12013e-06)
(0 -0 2.10846e-06)
(0 -0 2.06412e-06)
(0 -0 2.07195e-06)
(0 -0 2.00341e-06)
(0 -0 2.04926e-06)
(0 -0 1.93187e-06)
(0 -0 2.04533e-06)
(0 -0 1.8432e-06)
(0 -0 2.06423e-06)
(0 -0 1.73571e-06)
(0 -0 2.09669e-06)
(0 -0 1.62545e-06)
(0 -0 2.12309e-06)
(0 -0 1.48335e-06)
(0 -0 2.42306e-06)
(0 -0 1.72738e-07)
(0 -0 6.24217e-06)
(0 -0 -8.84526e-06)
(0 -0 2.04245e-05)
(0 -0 -1.87065e-05)
(0 -0 6.79708e-06)
(0 -0 1.36273e-05)
(0 -0 -1.73507e-06)
(0 -0 -1.2206e-06)
(0 -0 -5.43587e-07)
(0 -0 2.0081e-07)
(0 -0 8.85451e-07)
(0 -0 1.48746e-06)
(0 -0 2.01131e-06)
(0 -0 2.4653e-06)
(0 -0 2.8546e-06)
(0 -0 3.18101e-06)
(0 -0 3.44595e-06)
(0 -0 3.65319e-06)
(0 -0 3.80921e-06)
(0 -0 3.92193e-06)
(0 -0 3.9992e-06)
(0 -0 4.04793e-06)
(0 -0 4.07375e-06)
(0 -0 4.08106e-06)
(0 -0 4.07329e-06)
(0 -0 4.05313e-06)
(0 -0 4.02273e-06)
(0 -0 3.98401e-06)
(0 -0 3.93862e-06)
(0 -0 3.88809e-06)
(0 -0 3.83374e-06)
(0 -0 3.77679e-06)
(0 -0 3.71821e-06)
(0 -0 3.65875e-06)
(0 -0 3.59961e-06)
(0 -0 3.53955e-06)
(0 -0 3.48256e-06)
(0 -0 3.437e-06)
(0 -0 3.38032e-06)
(0 -0 3.32331e-06)
(0 -0 3.2682e-06)
(0 -0 3.21509e-06)
(0 -0 3.16389e-06)
(0 -0 3.11453e-06)
(0 -0 3.06689e-06)
(0 -0 3.02109e-06)
(0 -0 2.97669e-06)
(0 -0 2.93417e-06)
(0 -0 2.89255e-06)
(0 -0 2.8535e-06)
(0 -0 2.81424e-06)
(0 -0 2.77933e-06)
(0 -0 2.74067e-06)
(0 -0 2.7118e-06)
(0 -0 2.67024e-06)
(0 -0 2.65208e-06)
(0 -0 2.60033e-06)
(0 -0 2.60251e-06)
(0 -0 2.52596e-06)
(0 -0 2.56787e-06)
(0 -0 2.4408e-06)
(0 -0 2.55326e-06)
(0 -0 2.33773e-06)
(0 -0 2.563e-06)
(0 -0 2.21437e-06)
(0 -0 2.58811e-06)
(0 -0 2.08563e-06)
(0 -0 2.60983e-06)
(0 -0 1.91966e-06)
(0 -0 2.9145e-06)
(0 -0 5.57721e-07)
(0 -0 6.80577e-06)
(0 -0 -8.66845e-06)
(0 -0 2.12819e-05)
(0 -0 -1.87199e-05)
(0 -0 6.99376e-06)
(0 -0 1.4923e-05)
(0 -0 -8.9489e-07)
(0 -0 -3.40977e-07)
(0 -0 3.59196e-07)
(0 -0 1.12305e-06)
(0 -0 1.82527e-06)
(0 -0 2.44283e-06)
(0 -0 2.97997e-06)
(0 -0 3.44486e-06)
(0 -0 3.84268e-06)
(0 -0 4.17524e-06)
(0 -0 4.44406e-06)
(0 -0 4.65308e-06)
(0 -0 4.80899e-06)
(0 -0 4.91991e-06)
(0 -0 4.99395e-06)
(0 -0 5.03821e-06)
(0 -0 5.05846e-06)
(0 -0 5.05922e-06)
(0 -0 5.04398e-06)
(0 -0 5.0155e-06)
(0 -0 4.97604e-06)
(0 -0 4.92758e-06)
(0 -0 4.8719e-06)
(0 -0 4.81064e-06)
(0 -0 4.74523e-06)
(0 -0 4.67696e-06)
(0 -0 4.60691e-06)
(0 -0 4.53588e-06)
(0 -0 4.46504e-06)
(0 -0 4.39361e-06)
(0 -0 4.32436e-06)
(0 -0 4.26183e-06)
(0 -0 4.19453e-06)
(0 -0 4.12704e-06)
(0 -0 4.06116e-06)
(0 -0 3.99723e-06)
(0 -0 3.93525e-06)
(0 -0 3.87522e-06)
(0 -0 3.81703e-06)
(0 -0 3.76084e-06)
(0 -0 3.70625e-06)
(0 -0 3.6537e-06)
(0 -0 3.60224e-06)
(0 -0 3.55351e-06)
(0 -0 3.50472e-06)
(0 -0 3.46051e-06)
(0 -0 3.41258e-06)
(0 -0 3.37486e-06)
(0 -0 3.32433e-06)
(0 -0 3.29789e-06)
(0 -0 3.237e-06)
(0 -0 3.2318e-06)
(0 -0 3.14544e-06)
(0 -0 3.18181e-06)
(0 -0 3.04311e-06)
(0 -0 3.15326e-06)
(0 -0 2.92196e-06)
(0 -0 3.15065e-06)
(0 -0 2.77867e-06)
(0 -0 3.16536e-06)
(0 -0 2.6269e-06)
(0 -0 3.17936e-06)
(0 -0 2.43264e-06)
(0 -0 3.48136e-06)
(0 -0 1.02943e-06)
(0 -0 7.39523e-06)
(0 -0 -8.31836e-06)
(0 -0 2.2043e-05)
(0 -0 -1.85436e-05)
(0 -0 7.24245e-06)
(0 -0 1.62602e-05)
(0 -0 8.47636e-08)
(0 -0 6.90722e-07)
(0 -0 1.42719e-06)
(0 -0 2.21982e-06)
(0 -0 2.94622e-06)
(0 -0 3.58424e-06)
(0 -0 4.13842e-06)
(0 -0 4.61708e-06)
(0 -0 5.02555e-06)
(0 -0 5.36573e-06)
(0 -0 5.63935e-06)
(0 -0 5.85055e-06)
(0 -0 6.00627e-06)
(0 -0 6.11494e-06)
(0 -0 6.1849e-06)
(0 -0 6.22349e-06)
(0 -0 6.23665e-06)
(0 -0 6.22904e-06)
(0 -0 6.20428e-06)
(0 -0 6.16525e-06)
(0 -0 6.11432e-06)
(0 -0 6.05359e-06)
(0 -0 5.98499e-06)
(0 -0 5.91028e-06)
(0 -0 5.83103e-06)
(0 -0 5.74863e-06)
(0 -0 5.66426e-06)
(0 -0 5.5788e-06)
(0 -0 5.49338e-06)
(0 -0 5.40762e-06)
(0 -0 5.32345e-06)
(0 -0 5.24339e-06)
(0 -0 5.16189e-06)
(0 -0 5.08069e-06)
(0 -0 5.00101e-06)
(0 -0 4.92328e-06)
(0 -0 4.84759e-06)
(0 -0 4.77399e-06)
(0 -0 4.70243e-06)
(0 -0 4.6331e-06)
(0 -0 4.56561e-06)
(0 -0 4.50038e-06)
(0 -0 4.43645e-06)
(0 -0 4.37548e-06)
(0 -0 4.31462e-06)
(0 -0 4.25861e-06)
(0 -0 4.19897e-06)
(0 -0 4.15004e-06)
(0 -0 4.0882e-06)
(0 -0 4.05125e-06)
(0 -0 3.97899e-06)
(0 -0 3.96429e-06)
(0 -0 3.866e-06)
(0 -0 3.89473e-06)
(0 -0 3.74242e-06)
(0 -0 3.84815e-06)
(0 -0 3.59923e-06)
(0 -0 3.82911e-06)
(0 -0 3.43203e-06)
(0 -0 3.82942e-06)
(0 -0 3.25309e-06)
(0 -0 3.83173e-06)
(0 -0 3.027e-06)
(0 -0 4.1217e-06)
(0 -0 1.59808e-06)
(0 -0 7.99523e-06)
(0 -0 -7.75726e-06)
(0 -0 2.26608e-05)
(0 -0 -1.81367e-05)
(0 -0 7.55728e-06)
(0 -0 1.76249e-05)
(0 -0 1.19668e-06)
(0 -0 1.86621e-06)
(0 -0 2.65227e-06)
(0 -0 3.485e-06)
(0 -0 4.24453e-06)
(0 -0 4.91005e-06)
(0 -0 5.48683e-06)
(0 -0 5.98363e-06)
(0 -0 6.4061e-06)
(0 -0 6.75645e-06)
(0 -0 7.03667e-06)
(0 -0 7.25122e-06)
(0 -0 7.40736e-06)
(0 -0 7.51385e-06)
(0 -0 7.57934e-06)
(0 -0 7.6114e-06)
(0 -0 7.61623e-06)
(0 -0 7.59867e-06)
(0 -0 7.5625e-06)
(0 -0 7.51078e-06)
(0 -0 7.44603e-06)
(0 -0 7.37052e-06)
(0 -0 7.28634e-06)
(0 -0 7.1954e-06)
(0 -0 7.09944e-06)
(0 -0 6.99998e-06)
(0 -0 6.89828e-06)
(0 -0 6.79536e-06)
(0 -0 6.69229e-06)
(0 -0 6.58903e-06)
(0 -0 6.48692e-06)
(0 -0 6.38761e-06)
(0 -0 6.28849e-06)
(0 -0 6.19012e-06)
(0 -0 6.09334e-06)
(0 -0 5.99859e-06)
(0 -0 5.90599e-06)
(0 -0 5.8157e-06)
(0 -0 5.72768e-06)
(0 -0 5.64218e-06)
(0 -0 5.55881e-06)
(0 -0 5.47797e-06)
(0 -0 5.39866e-06)
(0 -0 5.32258e-06)
(0 -0 5.24681e-06)
(0 -0 5.17622e-06)
(0 -0 5.1021e-06)
(0 -0 5.03928e-06)
(0 -0 4.96348e-06)
(0 -0 4.91349e-06)
(0 -0 4.82732e-06)
(0 -0 4.80068e-06)
(0 -0 4.688e-06)
(0 -0 4.70671e-06)
(0 -0 4.53841e-06)
(0 -0 4.63741e-06)
(0 -0 4.36851e-06)
(0 -0 4.59726e-06)
(0 -0 4.17263e-06)
(0 -0 4.57855e-06)
(0 -0 3.9615e-06)
(0 -0 4.56445e-06)
(0 -0 3.69945e-06)
(0 -0 4.8307e-06)
(0 -0 2.26467e-06)
(0 -0 8.58546e-06)
(0 -0 -6.95644e-06)
(0 -0 2.30782e-05)
(0 -0 -1.74692e-05)
(0 -0 7.9433e-06)
(0 -0 1.89836e-05)
(0 -0 2.43466e-06)
(0 -0 3.18123e-06)
(0 -0 4.03101e-06)
(0 -0 4.9165e-06)
(0 -0 5.71975e-06)
(0 -0 6.42139e-06)
(0 -0 7.02768e-06)
(0 -0 7.54812e-06)
(0 -0 7.98892e-06)
(0 -0 8.35275e-06)
(0 -0 8.64202e-06)
(0 -0 8.86159e-06)
(0 -0 9.01916e-06)
(0 -0 9.12385e-06)
(0 -0 9.18467e-06)
(0 -0 9.20953e-06)
(0 -0 9.20487e-06)
(0 -0 9.1758e-06)
(0 -0 9.12632e-06)
(0 -0 9.05971e-06)
(0 -0 8.9787e-06)
(0 -0 8.88575e-06)
(0 -0 8.78316e-06)
(0 -0 8.67303e-06)
(0 -0 8.55727e-06)
(0 -0 8.43756e-06)
(0 -0 8.31531e-06)
(0 -0 8.19161e-06)
(0 -0 8.06755e-06)
(0 -0 7.94331e-06)
(0 -0 7.81992e-06)
(0 -0 7.6986e-06)
(0 -0 7.57824e-06)
(0 -0 7.45901e-06)
(0 -0 7.34152e-06)
(0 -0 7.22619e-06)
(0 -0 7.11319e-06)
(0 -0 7.00275e-06)
(0 -0 6.8949e-06)
(0 -0 6.78989e-06)
(0 -0 6.68736e-06)
(0 -0 6.58765e-06)
(0 -0 6.48975e-06)
(0 -0 6.39538e-06)
(0 -0 6.30153e-06)
(0 -0 6.21322e-06)
(0 -0 6.12154e-06)
(0 -0 6.0418e-06)
(0 -0 5.94908e-06)
(0 -0 5.88318e-06)
(0 -0 5.78026e-06)
(0 -0 5.7389e-06)
(0 -0 5.60904e-06)
(0 -0 5.61506e-06)
(0 -0 5.42803e-06)
(0 -0 5.51771e-06)
(0 -0 5.22604e-06)
(0 -0 5.45113e-06)
(0 -0 4.99596e-06)
(0 -0 5.40816e-06)
(0 -0 4.74682e-06)
(0 -0 5.37216e-06)
(0 -0 4.44422e-06)
(0 -0 5.60055e-06)
(0 -0 3.02808e-06)
(0 -0 9.14197e-06)
(0 -0 -5.8877e-06)
(0 -0 2.32331e-05)
(0 -0 -1.65117e-05)
(0 -0 8.4043e-06)
(0 -0 2.02992e-05)
(0 -0 3.7933e-06)
(0 -0 4.63254e-06)
(0 -0 5.56121e-06)
(0 -0 6.5131e-06)
(0 -0 7.37177e-06)
(0 -0 8.11925e-06)
(0 -0 8.76298e-06)
(0 -0 9.31345e-06)
(0 -0 9.77763e-06)
(0 -0 1.01588e-05)
(0 -0 1.046e-05)
(0 -0 1.06867e-05)
(0 -0 1.08469e-05)
(0 -0 1.09503e-05)
(0 -0 1.10064e-05)
(0 -0 1.10234e-05)
(0 -0 1.10081e-05)
(0 -0 1.09659e-05)
(0 -0 1.09011e-05)
(0 -0 1.08173e-05)
(0 -0 1.07174e-05)
(0 -0 1.06042e-05)
(0 -0 1.04801e-05)
(0 -0 1.03476e-05)
(0 -0 1.02087e-05)
(0 -0 1.00652e-05)
(0 -0 9.91889e-06)
(0 -0 9.77081e-06)
(0 -0 9.6221e-06)
(0 -0 9.47313e-06)
(0 -0 9.32472e-06)
(0 -0 9.17792e-06)
(0 -0 9.03242e-06)
(0 -0 8.88836e-06)
(0 -0 8.74621e-06)
(0 -0 8.60642e-06)
(0 -0 8.46919e-06)
(0 -0 8.33481e-06)
(0 -0 8.20341e-06)
(0 -0 8.07525e-06)
(0 -0 7.94994e-06)
(0 -0 7.8278e-06)
(0 -0 7.70777e-06)
(0 -0 7.59158e-06)
(0 -0 7.47616e-06)
(0 -0 7.36668e-06)
(0 -0 7.25402e-06)
(0 -0 7.15402e-06)
(0 -0 7.0411e-06)
(0 -0 6.95608e-06)
(0 -0 6.83325e-06)
(0 -0 6.77408e-06)
(0 -0 6.62394e-06)
(0 -0 6.61427e-06)
(0 -0 6.40544e-06)
(0 -0 6.48293e-06)
(0 -0 6.16534e-06)
(0 -0 6.38399e-06)
(0 -0 5.89485e-06)
(0 -0 6.31087e-06)
(0 -0 5.60122e-06)
(0 -0 6.24675e-06)
(0 -0 5.25314e-06)
(0 -0 6.42073e-06)
(0 -0 3.88501e-06)
(0 -0 9.63807e-06)
(0 -0 -4.52472e-06)
(0 -0 2.30607e-05)
(0 -0 -1.52365e-05)
(0 -0 8.9426e-06)
(0 -0 2.15324e-05)
(0 -0 5.26662e-06)
(0 -0 6.21589e-06)
(0 -0 7.23951e-06)
(0 -0 8.2722e-06)
(0 -0 9.19875e-06)
(0 -0 1.00026e-05)
(0 -0 1.06925e-05)
(0 -0 1.128e-05)
(0 -0 1.17731e-05)
(0 -0 1.21761e-05)
(0 -0 1.24924e-05)
(0 -0 1.27284e-05)
(0 -0 1.28926e-05)
(0 -0 1.29955e-05)
(0 -0 1.30468e-05)
(0 -0 1.30553e-05)
(0 -0 1.30281e-05)
(0 -0 1.2971e-05)
(0 -0 1.28888e-05)
(0 -0 1.27852e-05)
(0 -0 1.26637e-05)
(0 -0 1.25271e-05)
(0 -0 1.23783e-05)
(0 -0 1.22199e-05)
(0 -0 1.20542e-05)
(0 -0 1.18834e-05)
(0 -0 1.17092e-05)
(0 -0 1.15328e-05)
(0 -0 1.13555e-05)
(0 -0 1.11777e-05)
(0 -0 1.10003e-05)
(0 -0 1.0824e-05)
(0 -0 1.06492e-05)
(0 -0 1.0476e-05)
(0 -0 1.0305e-05)
(0 -0 1.01366e-05)
(0 -0 9.97095e-06)
(0 -0 9.80856e-06)
(0 -0 9.64959e-06)
(0 -0 9.49431e-06)
(0 -0 9.34232e-06)
(0 -0 9.19387e-06)
(0 -0 9.04787e-06)
(0 -0 8.90605e-06)
(0 -0 8.76524e-06)
(0 -0 8.63083e-06)
(0 -0 8.49348e-06)
(0 -0 8.36958e-06)
(0 -0 8.23287e-06)
(0 -0 8.12524e-06)
(0 -0 7.97906e-06)
(0 -0 7.8987e-06)
(0 -0 7.72488e-06)
(0 -0 7.69625e-06)
(0 -0 7.46227e-06)
(0 -0 7.52443e-06)
(0 -0 7.17745e-06)
(0 -0 7.38665e-06)
(0 -0 6.8598e-06)
(0 -0 7.27691e-06)
(0 -0 6.51461e-06)
(0 -0 7.17773e-06)
(0 -0 6.11595e-06)
(0 -0 7.27848e-06)
(0 -0 4.83e-06)
(0 -0 1.00456e-05)
(0 -0 -2.84455e-06)
(0 -0 2.24965e-05)
(0 -0 -1.36191e-05)
(0 -0 9.55882e-06)
(0 -0 2.26431e-05)
(0 -0 6.84747e-06)
(0 -0 7.92529e-06)
(0 -0 9.06064e-06)
(0 -0 1.0189e-05)
(0 -0 1.11964e-05)
(0 -0 1.20676e-05)
(0 -0 1.28128e-05)
(0 -0 1.34449e-05)
(0 -0 1.39729e-05)
(0 -0 1.44022e-05)
(0 -0 1.47371e-05)
(0 -0 1.49848e-05)
(0 -0 1.51546e-05)
(0 -0 1.52575e-05)
(0 -0 1.5304e-05)
(0 -0 1.53032e-05)
(0 -0 1.52629e-05)
(0 -0 1.51892e-05)
(0 -0 1.50872e-05)
(0 -0 1.49613e-05)
(0 -0 1.48152e-05)
(0 -0 1.46521e-05)
(0 -0 1.44751e-05)
(0 -0 1.42872e-05)
(0 -0 1.4091e-05)
(0 -0 1.38888e-05)
(0 -0 1.36826e-05)
(0 -0 1.34738e-05)
(0 -0 1.32637e-05)
(0 -0 1.30529e-05)
(0 -0 1.2842e-05)
(0 -0 1.26321e-05)
(0 -0 1.24235e-05)
(0 -0 1.22168e-05)
(0 -0 1.20124e-05)
(0 -0 1.18109e-05)
(0 -0 1.16125e-05)
(0 -0 1.14177e-05)
(0 -0 1.12269e-05)
(0 -0 1.10403e-05)
(0 -0 1.08575e-05)
(0 -0 1.06786e-05)
(0 -0 1.05026e-05)
(0 -0 1.0331e-05)
(0 -0 1.01608e-05)
(0 -0 9.99746e-06)
(0 -0 9.83146e-06)
(0 -0 9.67977e-06)
(0 -0 9.51545e-06)
(0 -0 9.38149e-06)
(0 -0 9.20826e-06)
(0 -0 9.10309e-06)
(0 -0 8.90197e-06)
(0 -0 8.85088e-06)
(0 -0 8.58816e-06)
(0 -0 8.63161e-06)
(0 -0 8.25157e-06)
(0 -0 8.44806e-06)
(0 -0 7.87952e-06)
(0 -0 8.29476e-06)
(0 -0 7.47528e-06)
(0 -0 8.15302e-06)
(0 -0 7.02085e-06)
(0 -0 8.15971e-06)
(0 -0 5.85572e-06)
(0 -0 1.03369e-05)
(0 -0 -8.28951e-07)
(0 -0 2.14806e-05)
(0 -0 -1.16403e-05)
(0 -0 1.0252e-05)
(0 -0 2.35926e-05)
(0 -0 8.52783e-06)
(0 -0 9.75331e-06)
(0 -0 1.10175e-05)
(0 -0 1.22566e-05)
(0 -0 1.3358e-05)
(0 -0 1.43078e-05)
(0 -0 1.51177e-05)
(0 -0 1.58019e-05)
(0 -0 1.6371e-05)
(0 -0 1.68313e-05)
(0 -0 1.71884e-05)
(0 -0 1.74501e-05)
(0 -0 1.7627e-05)
(0 -0 1.77307e-05)
(0 -0 1.77722e-05)
(0 -0 1.77615e-05)
(0 -0 1.77066e-05)
(0 -0 1.76144e-05)
(0 -0 1.74904e-05)
(0 -0 1.73395e-05)
(0 -0 1.71657e-05)
(0 -0 1.69727e-05)
(0 -0 1.6764e-05)
(0 -0 1.65428e-05)
(0 -0 1.6312e-05)
(0 -0 1.60744e-05)
(0 -0 1.58321e-05)
(0 -0 1.55867e-05)
(0 -0 1.53394e-05)
(0 -0 1.50911e-05)
(0 -0 1.48424e-05)
(0 -0 1.45943e-05)
(0 -0 1.43475e-05)
(0 -0 1.41025e-05)
(0 -0 1.38602e-05)
(0 -0 1.36209e-05)
(0 -0 1.33852e-05)
(0 -0 1.31536e-05)
(0 -0 1.29265e-05)
(0 -0 1.27042e-05)
(0 -0 1.24862e-05)
(0 -0 1.22727e-05)
(0 -0 1.20623e-05)
(0 -0 1.18568e-05)
(0 -0 1.1653e-05)
(0 -0 1.14565e-05)
(0 -0 1.12577e-05)
(0 -0 1.10742e-05)
(0 -0 1.08783e-05)
(0 -0 1.07141e-05)
(0 -0 1.051e-05)
(0 -0 1.03762e-05)
(0 -0 1.0144e-05)
(0 -0 1.00668e-05)
(0 -0 9.77158e-06)
(0 -0 9.7928e-06)
(0 -0 9.37585e-06)
(0 -0 9.5562e-06)
(0 -0 8.94186e-06)
(0 -0 9.35208e-06)
(0 -0 8.47082e-06)
(0 -0 9.15988e-06)
(0 -0 7.95552e-06)
(0 -0 9.0501e-06)
(0 -0 6.95362e-06)
(0 -0 1.04866e-05)
(0 -0 1.53438e-06)
(0 -0 1.9962e-05)
(0 -0 -9.28679e-06)
(0 -0 1.10198e-05)
(0 -0 2.43465e-05)
(0 -0 1.02997e-05)
(0 -0 1.16919e-05)
(0 -0 1.31018e-05)
(0 -0 1.44666e-05)
(0 -0 1.56749e-05)
(0 -0 1.67144e-05)
(0 -0 1.75982e-05)
(0 -0 1.83422e-05)
(0 -0 1.89584e-05)
(0 -0 1.94543e-05)
(0 -0 1.98369e-05)
(0 -0 2.01151e-05)
(0 -0 2.03005e-05)
(0 -0 2.04055e-05)
(0 -0 2.04419e-05)
(0 -0 2.04204e-05)
(0 -0 2.03495e-05)
(0 -0 2.02369e-05)
(0 -0 2.00885e-05)
(0 -0 1.99098e-05)
(0 -0 1.97053e-05)
(0 -0 1.94791e-05)
(0 -0 1.9235e-05)
(0 -0 1.89766e-05)
(0 -0 1.87074e-05)
(0 -0 1.84302e-05)
(0 -0 1.81476e-05)
(0 -0 1.78612e-05)
(0 -0 1.75724e-05)
(0 -0 1.72821e-05)
(0 -0 1.69911e-05)
(0 -0 1.67002e-05)
(0 -0 1.64105e-05)
(0 -0 1.61228e-05)
(0 -0 1.58378e-05)
(0 -0 1.55562e-05)
(0 -0 1.52785e-05)
(0 -0 1.50055e-05)
(0 -0 1.47376e-05)
(0 -0 1.44753e-05)
(0 -0 1.42178e-05)
(0 -0 1.39652e-05)
(0 -0 1.37162e-05)
(0 -0 1.34724e-05)
(0 -0 1.32307e-05)
(0 -0 1.29968e-05)
(0 -0 1.27611e-05)
(0 -0 1.25416e-05)
(0 -0 1.23101e-05)
(0 -0 1.21117e-05)
(0 -0 1.18727e-05)
(0 -0 1.17066e-05)
(0 -0 1.14394e-05)
(0 -0 1.13323e-05)
(0 -0 1.10008e-05)
(0 -0 1.09962e-05)
(0 -0 1.05385e-05)
(0 -0 1.06992e-05)
(0 -0 1.00349e-05)
(0 -0 1.04369e-05)
(0 -0 9.48924e-06)
(0 -0 1.01861e-05)
(0 -0 8.90818e-06)
(0 -0 9.93644e-06)
(0 -0 8.11476e-06)
(0 -0 1.0474e-05)
(0 -0 4.25084e-06)
(0 -0 1.79031e-05)
(0 -0 -6.55259e-06)
(0 -0 1.18594e-05)
(0 -0 2.48773e-05)
(0 -0 1.2156e-05)
(0 -0 1.37331e-05)
(0 -0 1.5305e-05)
(0 -0 1.68097e-05)
(0 -0 1.81372e-05)
(0 -0 1.92769e-05)
(0 -0 2.02434e-05)
(0 -0 2.10544e-05)
(0 -0 2.17233e-05)
(0 -0 2.22592e-05)
(0 -0 2.26705e-05)
(0 -0 2.29674e-05)
(0 -0 2.31625e-05)
(0 -0 2.32693e-05)
(0 -0 2.33004e-05)
(0 -0 2.32671e-05)
(0 -0 2.31789e-05)
(0 -0 2.30438e-05)
(0 -0 2.28687e-05)
(0 -0 2.26594e-05)
(0 -0 2.24211e-05)
(0 -0 2.21583e-05)
(0 -0 2.18753e-05)
(0 -0 2.1576e-05)
(0 -0 2.12644e-05)
(0 -0 2.09436e-05)
(0 -0 2.06165e-05)
(0 -0 2.02849e-05)
(0 -0 1.99503e-05)
(0 -0 1.96136e-05)
(0 -0 1.92758e-05)
(0 -0 1.89377e-05)
(0 -0 1.86006e-05)
(0 -0 1.82655e-05)
(0 -0 1.79333e-05)
(0 -0 1.76048e-05)
(0 -0 1.72806e-05)
(0 -0 1.69618e-05)
(0 -0 1.66488e-05)
(0 -0 1.63419e-05)
(0 -0 1.60406e-05)
(0 -0 1.57447e-05)
(0 -0 1.54528e-05)
(0 -0 1.51667e-05)
(0 -0 1.48827e-05)
(0 -0 1.46074e-05)
(0 -0 1.43305e-05)
(0 -0 1.4071e-05)
(0 -0 1.37998e-05)
(0 -0 1.35633e-05)
(0 -0 1.32857e-05)
(0 -0 1.30833e-05)
(0 -0 1.27774e-05)
(0 -0 1.26368e-05)
(0 -0 1.22652e-05)
(0 -0 1.22312e-05)
(0 -0 1.17287e-05)
(0 -0 1.18664e-05)
(0 -0 1.11481e-05)
(0 -0 1.15385e-05)
(0 -0 1.05202e-05)
(0 -0 1.12212e-05)
(0 -0 9.86882e-06)
(0 -0 1.08079e-05)
(0 -0 9.33076e-06)
(0 -0 1.02856e-05)
(0 -0 7.31824e-06)
(0 -0 1.5284e-05)
(0 -0 -3.4399e-06)
(0 -0 1.27676e-05)
(0 -0 2.51674e-05)
(0 -0 1.40918e-05)
(0 -0 1.58704e-05)
(0 -0 1.76189e-05)
(0 -0 1.92765e-05)
(0 -0 2.07346e-05)
(0 -0 2.19841e-05)
(0 -0 2.30413e-05)
(0 -0 2.39256e-05)
(0 -0 2.46523e-05)
(0 -0 2.52321e-05)
(0 -0 2.56749e-05)
(0 -0 2.59923e-05)
(0 -0 2.6198e-05)
(0 -0 2.63068e-05)
(0 -0 2.63321e-05)
(0 -0 2.62861e-05)
(0 -0 2.6179e-05)
(0 -0 2.60196e-05)
(0 -0 2.58154e-05)
(0 -0 2.55729e-05)
(0 -0 2.52979e-05)
(0 -0 2.49953e-05)
(0 -0 2.46699e-05)
(0 -0 2.43261e-05)
(0 -0 2.39683e-05)
(0 -0 2.36e-05)
(0 -0 2.32244e-05)
(0 -0 2.28436e-05)
(0 -0 2.24591e-05)
(0 -0 2.20719e-05)
(0 -0 2.1683e-05)
(0 -0 2.12935e-05)
(0 -0 2.09047e-05)
(0 -0 2.05179e-05)
(0 -0 2.01342e-05)
(0 -0 1.97544e-05)
(0 -0 1.93795e-05)
(0 -0 1.90105e-05)
(0 -0 1.86482e-05)
(0 -0 1.82928e-05)
(0 -0 1.79436e-05)
(0 -0 1.76003e-05)
(0 -0 1.72615e-05)
(0 -0 1.69288e-05)
(0 -0 1.65987e-05)
(0 -0 1.62778e-05)
(0 -0 1.59559e-05)
(0 -0 1.56525e-05)
(0 -0 1.53378e-05)
(0 -0 1.50595e-05)
(0 -0 1.47394e-05)
(0 -0 1.44971e-05)
(0 -0 1.41488e-05)
(0 -0 1.39711e-05)
(0 -0 1.35558e-05)
(0 -0 1.3489e-05)
(0 -0 1.29383e-05)
(0 -0 1.30496e-05)
(0 -0 1.22734e-05)
(0 -0 1.26492e-05)
(0 -0 1.1556e-05)
(0 -0 1.22575e-05)
(0 -0 1.08304e-05)
(0 -0 1.16575e-05)
(0 -0 1.05947e-05)
(0 -0 9.91672e-06)
(0 -0 1.07262e-05)
(0 -0 1.21068e-05)
(0 -0 4.0352e-08)
(0 -0 1.3742e-05)
(0 -0 2.52117e-05)
(0 -0 1.61043e-05)
(0 -0 1.80986e-05)
(0 -0 2.00366e-05)
(0 -0 2.18583e-05)
(0 -0 2.34566e-05)
(0 -0 2.4824e-05)
(0 -0 2.59787e-05)
(0 -0 2.69419e-05)
(0 -0 2.77306e-05)
(0 -0 2.83574e-05)
(0 -0 2.88338e-05)
(0 -0 2.9173e-05)
(0 -0 2.93901e-05)
(0 -0 2.95008e-05)
(0 -0 2.95198e-05)
(0 -0 2.946e-05)
(0 -0 2.93325e-05)
(0 -0 2.91468e-05)
(0 -0 2.89113e-05)
(0 -0 2.86331e-05)
(0 -0 2.83185e-05)
(0 -0 2.79732e-05)
(0 -0 2.76022e-05)
(0 -0 2.72106e-05)
(0 -0 2.6803e-05)
(0 -0 2.63838e-05)
(0 -0 2.5956e-05)
(0 -0 2.55223e-05)
(0 -0 2.50841e-05)
(0 -0 2.46426e-05)
(0 -0 2.41988e-05)
(0 -0 2.37539e-05)
(0 -0 2.33095e-05)
(0 -0 2.28671e-05)
(0 -0 2.24279e-05)
(0 -0 2.1993e-05)
(0 -0 2.15634e-05)
(0 -0 2.11405e-05)
(0 -0 2.07249e-05)
(0 -0 2.03171e-05)
(0 -0 1.99163e-05)
(0 -0 1.95219e-05)
(0 -0 1.91325e-05)
(0 -0 1.87495e-05)
(0 -0 1.83696e-05)
(0 -0 1.79995e-05)
(0 -0 1.76289e-05)
(0 -0 1.7278e-05)
(0 -0 1.69164e-05)
(0 -0 1.65927e-05)
(0 -0 1.62269e-05)
(0 -0 1.59413e-05)
(0 -0 1.55472e-05)
(0 -0 1.53292e-05)
(0 -0 1.48669e-05)
(0 -0 1.47641e-05)
(0 -0 1.41617e-05)
(0 -0 1.42435e-05)
(0 -0 1.34061e-05)
(0 -0 1.37643e-05)
(0 -0 1.25926e-05)
(0 -0 1.32914e-05)
(0 -0 1.17895e-05)
(0 -0 1.24827e-05)
(0 -0 1.19017e-05)
(0 -0 9.37315e-06)
(0 -0 1.44561e-05)
(0 -0 8.3974e-06)
(0 -0 3.86815e-06)
(0 -0 1.4781e-05)
(0 -0 2.50194e-05)
(0 -0 1.81937e-05)
(0 -0 2.04146e-05)
(0 -0 2.25521e-05)
(0 -0 2.45469e-05)
(0 -0 2.62933e-05)
(0 -0 2.77851e-05)
(0 -0 2.90425e-05)
(0 -0 3.00885e-05)
(0 -0 3.09424e-05)
(0 -0 3.16184e-05)
(0 -0 3.21299e-05)
(0 -0 3.24916e-05)
(0 -0 3.27202e-05)
(0 -0 3.28326e-05)
(0 -0 3.28445e-05)
(0 -0 3.27697e-05)
(0 -0 3.26202e-05)
(0 -0 3.24065e-05)
(0 -0 3.21376e-05)
(0 -0 3.18214e-05)
(0 -0 3.14648e-05)
(0 -0 3.1074e-05)
(0 -0 3.06546e-05)
(0 -0 3.02122e-05)
(0 -0 2.97519e-05)
(0 -0 2.92784e-05)
(0 -0 2.87954e-05)
(0 -0 2.83055e-05)
(0 -0 2.78104e-05)
(0 -0 2.73112e-05)
(0 -0 2.68091e-05)
(0 -0 2.63056e-05)
(0 -0 2.58022e-05)
(0 -0 2.53008e-05)
(0 -0 2.48027e-05)
(0 -0 2.43092e-05)
(0 -0 2.38216e-05)
(0 -0 2.33412e-05)
(0 -0 2.28691e-05)
(0 -0 2.24057e-05)
(0 -0 2.195e-05)
(0 -0 2.15013e-05)
(0 -0 2.10579e-05)
(0 -0 2.06215e-05)
(0 -0 2.01885e-05)
(0 -0 1.9766e-05)
(0 -0 1.93436e-05)
(0 -0 1.89421e-05)
(0 -0 1.85304e-05)
(0 -0 1.81585e-05)
(0 -0 1.77438e-05)
(0 -0 1.7412e-05)
(0 -0 1.69692e-05)
(0 -0 1.6708e-05)
(0 -0 1.61958e-05)
(0 -0 1.60543e-05)
(0 -0 1.53973e-05)
(0 -0 1.5447e-05)
(0 -0 1.45453e-05)
(0 -0 1.48835e-05)
(0 -0 1.36303e-05)
(0 -0 1.43231e-05)
(0 -0 1.27473e-05)
(0 -0 1.32863e-05)
(0 -0 1.32496e-05)
(0 -0 8.67184e-06)
(0 -0 1.84807e-05)
(0 -0 4.20769e-06)
(0 -0 8.01431e-06)
(0 -0 1.58845e-05)
(0 -0 2.46141e-05)
(0 -0 2.03623e-05)
(0 -0 2.28163e-05)
(0 -0 2.51609e-05)
(0 -0 2.73353e-05)
(0 -0 2.92349e-05)
(0 -0 3.08554e-05)
(0 -0 3.22188e-05)
(0 -0 3.33503e-05)
(0 -0 3.4271e-05)
(0 -0 3.49974e-05)
(0 -0 3.55446e-05)
(0 -0 3.5929e-05)
(0 -0 3.61689e-05)
(0 -0 3.62822e-05)
(0 -0 3.6286e-05)
(0 -0 3.61951e-05)
(0 -0 3.60222e-05)
(0 -0 3.57787e-05)
(0 -0 3.54745e-05)
(0 -0 3.51183e-05)
(0 -0 3.47175e-05)
(0 -0 3.4279e-05)
(0 -0 3.38088e-05)
(0 -0 3.33131e-05)
(0 -0 3.27976e-05)
(0 -0 3.22674e-05)
(0 -0 3.17265e-05)
(0 -0 3.11778e-05)
(0 -0 3.0623e-05)
(0 -0 3.00635e-05)
(0 -0 2.95004e-05)
(0 -0 2.89354e-05)
(0 -0 2.83704e-05)
(0 -0 2.78071e-05)
(0 -0 2.72474e-05)
(0 -0 2.66927e-05)
(0 -0 2.61442e-05)
(0 -0 2.56038e-05)
(0 -0 2.50725e-05)
(0 -0 2.45508e-05)
(0 -0 2.40375e-05)
(0 -0 2.35319e-05)
(0 -0 2.3032e-05)
(0 -0 2.25395e-05)
(0 -0 2.20508e-05)
(0 -0 2.15732e-05)
(0 -0 2.10965e-05)
(0 -0 2.06418e-05)
(0 -0 2.01776e-05)
(0 -0 1.97549e-05)
(0 -0 1.92889e-05)
(0 -0 1.89085e-05)
(0 -0 1.84146e-05)
(0 -0 1.81079e-05)
(0 -0 1.75435e-05)
(0 -0 1.7361e-05)
(0 -0 1.66471e-05)
(0 -0 1.66625e-05)
(0 -0 1.56941e-05)
(0 -0 1.60102e-05)
(0 -0 1.46733e-05)
(0 -0 1.53577e-05)
(0 -0 1.37089e-05)
(0 -0 1.40763e-05)
(0 -0 1.46387e-05)
(0 -0 7.84079e-06)
(0 -0 2.27648e-05)
(0 -0 -3.85563e-07)
(0 -0 1.24406e-05)
(0 -0 1.70536e-05)
(0 -0 2.40345e-05)
(0 -0 2.26142e-05)
(0 -0 2.53026e-05)
(0 -0 2.78588e-05)
(0 -0 3.02162e-05)
(0 -0 3.22715e-05)
(0 -0 3.40224e-05)
(0 -0 3.54932e-05)
(0 -0 3.67109e-05)
(0 -0 3.76989e-05)
(0 -0 3.84756e-05)
(0 -0 3.90581e-05)
(0 -0 3.94647e-05)
(0 -0 3.9715e-05)
(0 -0 3.98284e-05)
(0 -0 3.98229e-05)
(0 -0 3.97145e-05)
(0 -0 3.95168e-05)
(0 -0 3.92421e-05)
(0 -0 3.89011e-05)
(0 -0 3.85032e-05)
(0 -0 3.80565e-05)
(0 -0 3.75684e-05)
(0 -0 3.70457e-05)
(0 -0 3.64949e-05)
(0 -0 3.59223e-05)
(0 -0 3.53334e-05)
(0 -0 3.47327e-05)
(0 -0 3.41233e-05)
(0 -0 3.3507e-05)
(0 -0 3.28852e-05)
(0 -0 3.22593e-05)
(0 -0 3.16308e-05)
(0 -0 3.10021e-05)
(0 -0 3.03752e-05)
(0 -0 2.97519e-05)
(0 -0 2.91338e-05)
(0 -0 2.85226e-05)
(0 -0 2.79202e-05)
(0 -0 2.73278e-05)
(0 -0 2.67459e-05)
(0 -0 2.61732e-05)
(0 -0 2.56088e-05)
(0 -0 2.50505e-05)
(0 -0 2.45001e-05)
(0 -0 2.39537e-05)
(0 -0 2.34192e-05)
(0 -0 2.28862e-05)
(0 -0 2.23766e-05)
(0 -0 2.1858e-05)
(0 -0 2.13827e-05)
(0 -0 2.08636e-05)
(0 -0 2.04329e-05)
(0 -0 1.98861e-05)
(0 -0 1.95322e-05)
(0 -0 1.89138e-05)
(0 -0 1.86887e-05)
(0 -0 1.79162e-05)
(0 -0 1.78958e-05)
(0 -0 1.68591e-05)
(0 -0 1.71517e-05)
(0 -0 1.57295e-05)
(0 -0 1.64036e-05)
(0 -0 1.46836e-05)
(0 -0 1.48652e-05)
(0 -0 1.60715e-05)
(0 -0 6.91806e-06)
(0 -0 2.72649e-05)
(0 -0 -5.28257e-06)
(0 -0 1.70998e-05)
(0 -0 1.82903e-05)
(0 -0 2.3335e-05)
(0 -0 2.48962e-05)
(0 -0 2.78142e-05)
(0 -0 3.05772e-05)
(0 -0 3.31141e-05)
(0 -0 3.53214e-05)
(0 -0 3.71995e-05)
(0 -0 3.87746e-05)
(0 -0 4.0076e-05)
(0 -0 4.1129e-05)
(0 -0 4.19541e-05)
(0 -0 4.25704e-05)
(0 -0 4.29977e-05)
(0 -0 4.32571e-05)
(0 -0 4.33696e-05)
(0 -0 4.33541e-05)
(0 -0 4.32275e-05)
(0 -0 4.30045e-05)
(0 -0 4.26983e-05)
(0 -0 4.23202e-05)
(0 -0 4.18805e-05)
(0 -0 4.1388e-05)
(0 -0 4.08504e-05)
(0 -0 4.02752e-05)
(0 -0 3.96694e-05)
(0 -0 3.90399e-05)
(0 -0 3.83926e-05)
(0 -0 3.77324e-05)
(0 -0 3.70625e-05)
(0 -0 3.6385e-05)
(0 -0 3.57012e-05)
(0 -0 3.50127e-05)
(0 -0 3.43212e-05)
(0 -0 3.36291e-05)
(0 -0 3.29388e-05)
(0 -0 3.22523e-05)
(0 -0 3.15713e-05)
(0 -0 3.08977e-05)
(0 -0 3.02336e-05)
(0 -0 2.95803e-05)
(0 -0 2.89385e-05)
(0 -0 2.83066e-05)
(0 -0 2.76836e-05)
(0 -0 2.70671e-05)
(0 -0 2.64588e-05)
(0 -0 2.58549e-05)
(0 -0 2.52637e-05)
(0 -0 2.46746e-05)
(0 -0 2.41101e-05)
(0 -0 2.35373e-05)
(0 -0 2.30095e-05)
(0 -0 2.24374e-05)
(0 -0 2.19563e-05)
(0 -0 2.13568e-05)
(0 -0 2.09558e-05)
(0 -0 2.02835e-05)
(0 -0 2.00158e-05)
(0 -0 1.91851e-05)
(0 -0 1.91287e-05)
(0 -0 1.80245e-05)
(0 -0 1.82932e-05)
(0 -0 1.67872e-05)
(0 -0 1.745e-05)
(0 -0 1.56621e-05)
(0 -0 1.56522e-05)
(0 -0 1.75205e-05)
(0 -0 5.97026e-06)
(0 -0 3.18324e-05)
(0 -0 -1.02576e-05)
(0 -0 2.18346e-05)
(0 -0 1.95697e-05)
(0 -0 2.25996e-05)
(0 -0 2.72419e-05)
(0 -0 3.03903e-05)
(0 -0 3.33533e-05)
(0 -0 3.60618e-05)
(0 -0 3.84151e-05)
(0 -0 4.04152e-05)
(0 -0 4.20901e-05)
(0 -0 4.34711e-05)
(0 -0 4.45854e-05)
(0 -0 4.54557e-05)
(0 -0 4.61028e-05)
(0 -0 4.65483e-05)
(0 -0 4.68149e-05)
(0 -0 4.69245e-05)
(0 -0 4.68975e-05)
(0 -0 4.67515e-05)
(0 -0 4.65022e-05)
(0 -0 4.61635e-05)
(0 -0 4.57477e-05)
(0 -0 4.52658e-05)
(0 -0 4.4727e-05)
(0 -0 4.41398e-05)
(0 -0 4.3512e-05)
(0 -0 4.28512e-05)
(0 -0 4.21649e-05)
(0 -0 4.14594e-05)
(0 -0 4.07399e-05)
(0 -0 4.00099e-05)
(0 -0 3.92714e-05)
(0 -0 3.85261e-05)
(0 -0 3.77753e-05)
(0 -0 3.70212e-05)
(0 -0 3.62663e-05)
(0 -0 3.55131e-05)
(0 -0 3.47638e-05)
(0 -0 3.40204e-05)
(0 -0 3.32849e-05)
(0 -0 3.25595e-05)
(0 -0 3.18459e-05)
(0 -0 3.11446e-05)
(0 -0 3.0454e-05)
(0 -0 2.97728e-05)
(0 -0 2.90985e-05)
(0 -0 2.84328e-05)
(0 -0 2.77718e-05)
(0 -0 2.71242e-05)
(0 -0 2.64793e-05)
(0 -0 2.58604e-05)
(0 -0 2.52337e-05)
(0 -0 2.46536e-05)
(0 -0 2.40289e-05)
(0 -0 2.34978e-05)
(0 -0 2.28459e-05)
(0 -0 2.23979e-05)
(0 -0 2.16724e-05)
(0 -0 2.13621e-05)
(0 -0 2.04738e-05)
(0 -0 2.03815e-05)
(0 -0 1.92108e-05)
(0 -0 1.94557e-05)
(0 -0 1.78672e-05)
(0 -0 1.85185e-05)
(0 -0 1.66656e-05)
(0 -0 1.64614e-05)
(0 -0 1.90025e-05)
(0 -0 5.03684e-06)
(0 -0 3.64547e-05)
(0 -0 -1.52317e-05)
(0 -0 2.6629e-05)
(0 -0 2.09031e-05)
(0 -0 2.18825e-05)
(0 -0 2.97159e-05)
(0 -0 3.30982e-05)
(0 -0 3.62565e-05)
(0 -0 3.91317e-05)
(0 -0 4.1627e-05)
(0 -0 4.37456e-05)
(0 -0 4.55172e-05)
(0 -0 4.69749e-05)
(0 -0 4.81479e-05)
(0 -0 4.90608e-05)
(0 -0 4.97365e-05)
(0 -0 5.01981e-05)
(0 -0 5.04699e-05)
(0 -0 5.05749e-05)
(0 -0 5.05347e-05)