/*--------------------------------*- C++ -*----------------------------------*\
| =========                 |                                                 |
| \\      /  F ield         | OpenFOAM: The Open Source CFD Toolbox           |
|  \\    /   O peration     | Version:  2412                                  |
|   \\  /    A nd           | Website:  www.openfoam.com                      |
|    \\/     M anipulation  |                                                 |
\*---------------------------------------------------------------------------*/
FoamFile
{
    version     2.0;
    format      ascii;
    arch        "LSB;label=32;scalar=64";
    class       surfaceScalarField;
    location    "2.5";
    object      phi;
}
// * * * * * * * * * * * * * * * * * * * * * * * * * * * * * * * * * * * * * //

dimensions      [0 3 -1 0 0 0 0];

oriented        oriented;

internalField   nonuniform List<scalar> 
10424
(
0.00504677
3.99184e-06
-3.85582e-09
0.00503256
1.42155e-05
-9.88359e-09
0.00502587
6.70494e-06
-8.6568e-09
0.00502224
3.63174e-06
-1.27148e-09
0.00502244
-2.11328e-07
3.62762e-09
0.00502314
-7.05427e-07
6.24238e-09
0.00502334
-2.05899e-07
6.92807e-09
0.00502302
3.19381e-07
7.18317e-09
0.00502223
7.75793e-07
7.14084e-09
0.00502112
1.10264e-06
6.87087e-09
0.00501979
1.32407e-06
6.62585e-09
0.00501831
1.48035e-06
6.48325e-09
0.0050167
1.59715e-06
6.42967e-09
0.00501501
1.69055e-06
6.40721e-09
0.00501323
1.7707e-06
6.3968e-09
0.00501138
1.84386e-06
6.37577e-09
0.00500946
1.91396e-06
6.24929e-09
0.00500747
1.98331e-06
6.08755e-09
0.00500541
2.05339e-06
6.00047e-09
0.00500328
2.12525e-06
5.92753e-09
0.00500107
2.19959e-06
5.79492e-09
0.00499879
2.27683e-06
5.57384e-09
0.00499643
2.35713e-06
5.35097e-09
0.00499398
2.44067e-06
5.14675e-09
0.00499145
2.5276e-06
4.97238e-09
0.00498883
2.61806e-06
4.78851e-09
0.00498611
2.71213e-06
4.57442e-09
0.0049833
2.80993e-06
4.32966e-09
0.00498038
2.91153e-06
4.05527e-09
0.00497736
3.01704e-06
3.76735e-09
0.00497423
3.12655e-06
3.47751e-09
0.00497099
3.24017e-06
3.20533e-09
0.00496762
3.35805e-06
2.95169e-09
0.00496414
3.48037e-06
2.70368e-09
0.00496053
3.60737e-06
2.44226e-09
0.00495679
3.73928e-06
2.15885e-09
0.00495291
3.8764e-06
1.8593e-09
0.00494889
4.01909e-06
1.53681e-09
0.00494472
4.16773e-06
1.19452e-09
0.0049404
4.32283e-06
8.35145e-10
0.00493591
4.48498e-06
4.75619e-10
0.00493126
4.65492e-06
1.26441e-10
0.00492643
4.83357e-06
-2.1539e-10
0.0049214
5.02206e-06
-5.61522e-10
0.00491618
5.22179e-06
-9.26548e-10
0.00491075
5.4345e-06
-1.30987e-09
0.00490509
5.66236e-06
-1.69772e-09
0.00489918
5.90818e-06
-2.06651e-09
0.00489301
6.17562e-06
-2.39467e-09
0.00488654
6.46941e-06
-2.66684e-09
0.00487975
6.79521e-06
-2.87762e-09
0.0048726
7.15744e-06
-3.02874e-09
0.00486505
7.55215e-06
-3.12705e-09
0.0048571
7.95339e-06
-3.17929e-09
8.29998e-06
0.0048488
-3.19283e-09
0.00504679
7.96138e-06
0.00503264
2.83679e-05
0.00502618
1.31641e-05
0.00502252
7.28532e-06
0.0050227
-3.84508e-07
0.00502332
-1.33353e-06
0.00502346
-3.39757e-07
0.00502309
6.89994e-07
0.00502228
1.58758e-06
0.00502115
2.23024e-06
0.00501981
2.66565e-06
0.00501831
2.97355e-06
0.00501671
3.20429e-06
0.00501501
3.38927e-06
0.00501323
3.54838e-06
0.00501138
3.69389e-06
0.00500946
3.83339e-06
0.00500747
3.97152e-06
0.00500541
4.11128e-06
0.00500328
4.25467e-06
0.00500108
4.40299e-06
0.0049988
4.55701e-06
0.00499644
4.71717e-06
0.004994
4.88385e-06
0.00499147
5.05732e-06
0.00498885
5.23782e-06
0.00498613
5.42552e-06
0.00498332
5.62062e-06
0.00498041
5.82329e-06
0.0049774
6.03373e-06
0.00497427
6.25214e-06
0.00497103
6.47875e-06
0.00496768
6.71386e-06
0.0049642
6.95784e-06
0.00496059
7.21109e-06
0.00495686
7.47411e-06
0.00495299
7.74746e-06
0.00494898
8.03182e-06
0.00494482
8.328e-06
0.0049405
8.63694e-06
0.00493603
8.95984e-06
0.00493138
9.29813e-06
0.00492656
9.65362e-06
0.00492156
1.00285e-05
0.00491635
1.04254e-05
0.00491094
1.08478e-05
0.0049053
1.12998e-05
0.00489942
1.1787e-05
0.00489328
1.23162e-05
0.00488686
1.28966e-05
0.00488011
1.35391e-05
0.00487302
1.42519e-05
0.00486554
1.50275e-05
0.00485768
1.5816e-05
1.65003e-05
0.00484948
0.0050469
1.18141e-05
0.00503291
4.23576e-05
0.00502691
1.917e-05
0.00502316
1.10324e-05
0.00502324
-4.57818e-07
0.00502371
-1.80358e-06
0.0050237
-3.37555e-07
0.00502324
1.14989e-06
0.00502237
2.45678e-06
0.00502121
3.39341e-06
0.00501985
4.02841e-06
0.00501834
4.47903e-06
0.00501673
4.81817e-06
0.00501503
5.0912e-06
0.00501325
5.32698e-06
0.0050114
5.54329e-06
0.00500948
5.75109e-06
0.0050075
5.95719e-06
0.00500544
6.16601e-06
0.00500331
6.38041e-06
0.00500112
6.60224e-06
0.00499884
6.83261e-06
0.00499648
7.07222e-06
0.00499405
7.32162e-06
0.00499152
7.5812e-06
0.00498891
7.85131e-06
0.0049862
8.13219e-06
0.0049834
8.42409e-06
0.0049805
8.7273e-06
0.00497749
9.04208e-06
0.00497437
9.36875e-06
0.00497114
9.70766e-06
0.0049678
1.00593e-05
0.00496433
1.0424e-05
0.00496074
1.08026e-05
0.00495702
1.11957e-05
0.00495316
1.16041e-05
0.00494916
1.20288e-05
0.00494502
1.24709e-05
0.00494073
1.29319e-05
0.00493627
1.34135e-05
0.00493165
1.39178e-05
0.00492686
1.44472e-05
0.00492188
1.5005e-05
0.00491671
1.5595e-05
0.00491134
1.62219e-05
0.00490575
1.68917e-05
0.00489992
1.76121e-05
0.00489384
1.83928e-05
0.00488749
1.92467e-05
0.00488085
2.01888e-05
0.00487387
2.12305e-05
0.00486653
2.2361e-05
0.00485884
2.35106e-05
2.45162e-05
0.00485082
0.00504725
1.53247e-05
0.00503362
5.59793e-05
0.00502824
2.45563e-05
0.00502426
1.5012e-05
0.00502412
-3.16163e-07
0.00502432
-2.006e-06
0.0050241
-1.21154e-07
0.00502351
1.74514e-06
0.00502255
3.41076e-06
0.00502134
4.60818e-06
0.00501995
5.42144e-06
0.00501842
6.00177e-06
0.0050168
6.44125e-06
0.00501509
6.79724e-06
0.00501332
7.10636e-06
0.00501147
7.39122e-06
0.00500955
7.66573e-06
0.00500757
7.93863e-06
0.00500552
8.21559e-06
0.0050034
8.50025e-06
0.00500121
8.7949e-06
0.00499894
9.101e-06
0.00499659
9.41944e-06
0.00499416
9.75095e-06
0.00499165
1.0096e-05
0.00498905
1.04551e-05
0.00498635
1.08285e-05
0.00498356
1.12165e-05
0.00498066
1.16194e-05
0.00497767
1.20377e-05
0.00497457
1.24717e-05
0.00497135
1.29219e-05
0.00496802
1.33888e-05
0.00496457
1.38731e-05
0.004961
1.43756e-05
0.0049573
1.48972e-05
0.00495346
1.54388e-05
0.00494949
1.60019e-05
0.00494537
1.65878e-05
0.00494111
1.71983e-05
0.00493669
1.78356e-05
0.0049321
1.85023e-05
0.00492735
1.92016e-05
0.00492241
1.99373e-05
0.0049173
2.07142e-05
0.00491198
2.15383e-05
0.00490645
2.24167e-05
0.00490071
2.33589e-05
0.00489472
2.43768e-05
0.00488848
2.54856e-05
0.00488197
2.67035e-05
0.00487516
2.8044e-05
0.00486802
2.94937e-05
0.00486056
3.09691e-05
3.22756e-05
0.00485281
0.00504792
1.81577e-05
0.00503497
6.89311e-05
0.0050303
2.92328e-05
0.00502589
1.94159e-05
0.00502538
1.98582e-07
0.00502519
-1.81695e-06
0.00502468
3.89031e-07
0.0050239
2.51973e-06
0.00502284
4.47399e-06
0.00502156
5.88816e-06
0.00502013
6.85203e-06
0.00501859
7.54541e-06
0.00501695
8.07502e-06
0.00501524
8.5075e-06
0.00501346
8.88573e-06
0.00501162
9.23627e-06
0.00500971
9.57547e-06
0.00500773
9.91368e-06
0.00500569
1.02576e-05
0.00500358
1.06115e-05
0.0050014
1.09781e-05
0.00499914
1.13591e-05
0.0049968
1.17556e-05
0.00499438
1.21685e-05
0.00499188
1.25982e-05
0.00498929
1.30454e-05
0.00498661
1.35104e-05
0.00498383
1.39935e-05
0.00498096
1.44952e-05
0.00497798
1.50158e-05
0.00497489
1.55559e-05
0.0049717
1.6116e-05
0.00496839
1.66968e-05
0.00496497
1.7299e-05
0.00496142
1.79235e-05
0.00495774
1.85715e-05
0.00495394
1.92442e-05
0.00495
1.99431e-05
0.00494592
2.06698e-05
0.00494169
2.14264e-05
0.00493731
2.22155e-05
0.00493277
2.30401e-05
0.00492807
2.39039e-05
0.00492319
2.48112e-05
0.00491814
2.57675e-05
0.0049129
2.67794e-05
0.00490746
2.7855e-05
0.00490182
2.90049e-05
0.00489595
3.02421e-05
0.00488985
3.15833e-05
0.00488351
3.30482e-05
0.0048769
3.46512e-05
0.00487002
3.63774e-05
0.00486285
3.81356e-05
3.97148e-05
0.00485541
0.00504899
1.99249e-05
0.00503698
8.0943e-05
0.0050331
3.31151e-05
0.00502803
2.44832e-05
0.00502699
1.23449e-06
0.0050263
-1.12003e-06
0.00502542
1.2638e-06
0.00502443
3.50969e-06
0.00502324
5.66572e-06
0.00502188
7.24348e-06
0.00502041
8.32521e-06
0.00501884
9.1121e-06
0.0050172
9.7199e-06
0.00501549
1.02213e-05
0.00501371
1.06637e-05
0.00501187
1.10766e-05
0.00500996
1.14781e-05
0.005008
1.18798e-05
0.00500597
1.22893e-05
0.00500387
1.27113e-05
0.0050017
1.31488e-05
0.00499945
1.36037e-05
0.00499713
1.40773e-05
0.00499473
1.45705e-05
0.00499224
1.50839e-05
0.00498967
1.56182e-05
0.00498701
1.61736e-05
0.00498425
1.67507e-05
0.00498139
1.73498e-05
0.00497844
1.79713e-05
0.00497538
1.8616e-05
0.00497221
1.92843e-05
0.00496893
1.99771e-05
0.00496553
2.06952e-05
0.00496202
2.14396e-05
0.00495838
2.22115e-05
0.00495461
2.30123e-05
0.00495071
2.38438e-05
0.00494667
2.47077e-05
0.00494249
2.56064e-05
0.00493816
2.65426e-05
0.00493368
2.75197e-05
0.00492905
2.85415e-05
0.00492425
2.96129e-05
0.00491927
3.07395e-05
0.00491412
3.19284e-05
0.00490879
3.31881e-05
0.00490327
3.45294e-05
0.00489754
3.59657e-05
0.00489161
3.7514e-05
0.00488547
3.91937e-05
0.0048791
4.10191e-05
0.0048725
4.29741e-05
0.00486567
4.4966e-05
4.67814e-05
0.00485861
0.00504998
2.07022e-05
0.00503991
9.10102e-05
0.00503613
3.68997e-05
0.00503063
2.99771e-05
0.00502886
3.00755e-06
0.00502756
1.79936e-07
0.00502629
2.5314e-06
0.00502506
4.74064e-06
0.00502373
6.99922e-06
0.00502229
8.67963e-06
0.00502077
9.84358e-06
0.00501918
1.07027e-05
0.00501753
1.13755e-05
0.00501581
1.19375e-05
0.00501404
1.24386e-05
0.0050122
1.291e-05
0.00501031
1.33711e-05
0.00500836
1.38343e-05
0.00500634
1.43077e-05
0.00500425
1.47964e-05
0.0050021
1.53035e-05
0.00499987
1.58312e-05
0.00499757
1.63808e-05
0.00499518
1.69532e-05
0.00499272
1.75492e-05
0.00499017
1.81692e-05
0.00498753
1.88138e-05
0.00498479
1.94834e-05
0.00498197
2.01783e-05
0.00497904
2.08992e-05
0.00497601
2.16465e-05
0.00497287
2.24211e-05
0.00496962
2.32236e-05
0.00496626
2.40551e-05
0.00496279
2.49166e-05
0.00495919
2.58095e-05
0.00495547
2.67352e-05
0.00495161
2.76955e-05
0.00494763
2.86924e-05
0.00494351
2.97284e-05
0.00493924
3.08063e-05
0.00493483
3.19295e-05
0.00493027
3.31021e-05
0.00492556
3.4329e-05
0.00492068
3.56159e-05
0.00491564
3.69697e-05
0.00491043
3.8399e-05
0.00490504
3.99141e-05
0.00489948
4.15279e-05
0.00489374
4.32563e-05
0.00488782
4.51173e-05
0.00488171
4.71233e-05
0.00487543
4.92577e-05
0.00486896
5.14302e-05
0.00486231
5.34333e-05
0.00485076
-1.95437e-06
-3.19155e-09
0.00485261
-1.84743e-06
-3.21372e-09
0.00485471
-2.10215e-06
-3.21806e-09
0.00485741
-2.69533e-06
-3.21853e-09
0.00486089
-3.47141e-06
-3.21835e-09
0.00486508
-4.19438e-06
-3.21603e-09
0.00486972
-4.63498e-06
-3.20466e-09
0.00487437
-4.64821e-06
-3.1809e-09
0.00487858
-4.20154e-06
-3.14384e-09
0.00488194
-3.35478e-06
-3.09701e-09
0.00488415
-2.206e-06
-3.03973e-09
0.004885
-8.53158e-07
-2.98237e-09
0.00488443
5.71146e-07
-2.87572e-09
0.00488241
2.03082e-06
-2.85131e-09
0.00487887
3.54288e-06
-2.79674e-09
5.08439e-06
-2.75352e-09
0.00485012
-2.59152e-06
0.00485062
-2.35009e-06
0.00485132
-2.80616e-06
0.00485254
-3.91235e-06
0.00485444
-5.36718e-06
0.00485696
-6.71586e-06
0.00485984
-7.51708e-06
0.00486268
-7.49273e-06
0.00486507
-6.58422e-06
0.00486662
-4.90608e-06
0.00486706
-2.65202e-06
0.00486614
7.46783e-08
0.00486395
2.76045e-06
0.0048603
5.68164e-06
0.00485517
8.66569e-06
1.17143e-05
0.00484883
-5.98557e-07
0.00484665
-1.66328e-07
0.00484456
-7.20191e-07
0.00484283
-2.18265e-06
0.00484159
-4.12477e-06
0.00484079
-5.91915e-06
0.00484021
-6.93522e-06
0.0048395
-6.77977e-06
0.00483829
-5.37507e-06
0.0048363
-2.92047e-06
0.00483316
4.88216e-07
0.00482904
4.19145e-06
0.00482353
8.27245e-06
0.00481668
1.25296e-05
0.00480845
1.69035e-05
2.13935e-05
0.00484689
5.31436e-06
0.00484072
6.0048e-06
0.00483449
5.50777e-06
0.0048284
3.90599e-06
0.00482253
1.75365e-06
0.00481686
-2.51464e-07
0.00481122
-1.29577e-06
0.00480534
-9.0224e-07
0.00479888
1.08304e-06
0.00479174
4.22562e-06
0.00478377
8.45702e-06
0.00477466
1.32976e-05
0.0047644
1.85348e-05
0.00475292
2.40141e-05
0.00474015
2.96733e-05
3.55192e-05
0.00484434
1.63835e-05
0.00483292
1.74261e-05
0.00482126
1.7166e-05
0.00480948
1.56878e-05
0.00479766
1.35709e-05
0.00478574
1.16693e-05
0.00477362
1.08257e-05
0.00476116
1.15612e-05
0.00474825
1.39862e-05
0.00473463
1.78532e-05
0.00472023
2.28542e-05
0.00470492
2.86118e-05
0.0046886
3.48496e-05
0.0046712
4.14134e-05
0.00465263
4.82435e-05
5.53541e-05
0.00484121
3.37744e-05
0.00482339
3.52483e-05
0.00480516
3.53943e-05
0.00478656
3.42874e-05
0.00476762
3.25148e-05
0.00474832
3.09691e-05
0.00472864
3.05087e-05
0.00470853
3.16725e-05
0.00468793
3.4585e-05
0.00466674
3.90445e-05
0.00464488
4.47093e-05
0.00462227
5.12218e-05
0.00459881
5.83134e-05
0.00457439
6.58321e-05
0.00454891
7.37246e-05
8.20126e-05
0.00483753
5.85587e-05
0.00481227
6.05108e-05
0.00478647
6.11901e-05
0.0047601
6.06545e-05
0.00473315
5.94663e-05
0.00470563
5.84935e-05
0.00467756
5.85766e-05
0.00464898
6.02517e-05
0.0046199
6.36613e-05
0.00459031
6.86345e-05
0.00456017
7.48566e-05
0.00452939
8.2001e-05
0.00449788
8.98226e-05
0.00446553
9.81833e-05
0.00443221
0.000107041
0.000116425
0.00509259
6.5741e-05
-0.00509977
0.00508487
6.82324e-05
0.00507643
6.96335e-05
0.00506711
6.99714e-05
0.00505687
6.97114e-05
0.00504576
6.96017e-05
0.00503394
7.03896e-05
0.00502161
7.25809e-05
0.00500892
7.63515e-05
0.00499595
8.16044e-05
0.00498271
8.81016e-05
0.00496913
9.55823e-05
0.00495511
0.000103842
0.00494053
0.000112763
0.00492526
0.000122307
0.000132503
0.00509785
7.23825e-05
-0.00510449
0.00509071
7.53707e-05
0.00508286
7.74882e-05
0.00507408
7.87417e-05
0.0050643
7.94971e-05
0.00505354
8.03649e-05
0.00504195
8.19754e-05
0.00502975
8.47812e-05
0.00501712
8.89765e-05
0.0050042
9.45309e-05
0.00499101
0.000101287
0.00497754
0.000109056
0.0049637
0.000117682
0.00494939
0.000127075
0.00493449
0.000137207
0.000148106
0.00510314
7.84984e-05
-0.00510926
0.0050966
8.19084e-05
0.00508942
8.46746e-05
0.00508136
8.67965e-05
0.00507231
8.85531e-05
0.00506225
9.04204e-05
0.00505132
9.29057e-05
0.00503971
9.63947e-05
0.0050276
0.000101082
0.00501514
0.00010699
0.0050024
0.000114032
0.00498937
0.000122087
0.004976
0.000131051
0.00496221
0.000140862
0.00494791
0.000151507
0.000163016
0.00510827
8.41664e-05
-0.00511394
0.00510226
8.79205e-05
0.00509569
9.12394e-05
0.00508836
9.41282e-05
0.00508012
9.67982e-05
0.00507093
9.96108e-05
0.00506087
0.000102959
0.00505011
0.000107157
0.0050388
0.000112387
0.00502709
0.000118702
0.00501505
0.000126073
0.00500271
0.000134434
0.00499003
0.000143729
0.00497697
0.000153924
0.00496345
0.000165022
0.000177062
0.00511318
8.94846e-05
-0.00511849
0.00510758
9.35213e-05
0.00510152
9.72993e-05
0.00509481
0.000100836
0.00508731
0.000104297
0.00507897
0.000107953
0.00506982
0.000112101
0.00505999
0.000116989
0.0050496
0.000122776
0.00503877
0.000129531
0.00502758
0.000137262
0.00501607
0.00014595
0.00500423
0.000155573
0.00499202
0.000166125
0.00497942
0.000177625
0.000190119
0.00511793
9.45357e-05
-0.00512298
0.00511264
9.88143e-05
0.00510696
0.000102975
0.00510075
0.00010705
0.00509387
0.000111172
0.00508627
0.000115549
0.00507797
0.000120404
0.00506903
0.000125927
0.00505956
0.000132249
0.00504965
0.000139446
0.00503936
0.000147549
0.00502874
0.000156567
0.00501781
0.000166507
0.00500655
0.000177386
0.00499493
0.000189237
0.000202111
0.00512264
9.93697e-05
-0.00512747
0.00511759
0.000103865
0.00511221
0.000108351
0.00510639
0.00011287
0.00510003
0.000117538
0.00509306
0.000122515
0.00508549
0.000127971
0.00507737
0.000134051
0.00506876
0.000140862
0.00505973
0.000148475
0.00505034
0.000156934
0.00504064
0.000166267
0.00503065
0.000176502
0.00502036
0.000187671
0.00500978
0.000199817
0.000212999
0.00512741
0.000104005
-0.00513204
0.00512257
0.000108701
0.00511746
0.000113467
0.00511197
0.000118355
0.00510604
0.000123469
0.00509962
0.000128937
0.0050927
0.000134891
0.0050853
0.000141443
0.00507749
0.000148679
0.0050693
0.000156664
0.00506079
0.000165445
0.00505199
0.000175062
0.00504294
0.000185556
0.00503364
0.000196969
0.0050241
0.000209352
0.000222768
0.0051323
0.000108437
-0.00513673
0.00512768
0.000113319
0.00512282
0.000118329
0.00511765
0.000123525
0.00511212
0.000129001
0.00510619
0.000134868
0.00509985
0.000141227
0.00509313
0.000148168
0.00508604
0.000155761
0.00507865
0.000164061
0.00507097
0.000173118
0.00506306
0.000182976
0.00505493
0.000193683
0.00504662
0.000205287
0.00503812
0.000217845
0.000231421
0.00513734
0.000112651
-0.00514155
0.00513296
0.000117702
0.00512836
0.000122923
0.00512351
0.000128376
0.00511837
0.000134147
0.0051129
0.000140332
0.00510711
0.000147016
0.00510101
0.00015427
0.00509462
0.000162151
0.00508798
0.000170707
0.00508111
0.000179987
0.00507405
0.000190036
0.00506682
0.000200905
0.00505947
0.000212645
0.005052
0.000225314
0.000238976
0.00514254
0.000116629
-0.00514652
0.00513841
0.00012183
0.0051341
0.000127232
0.00512958
0.000132896
0.00512483
0.000138904
0.00511982
0.000145341
0.00511455
0.00015228
0.00510904
0.000159779
0.00510331
0.000167884
0.00509738
0.000176638
0.00509128
0.000186086
0.00508504
0.000196273
0.0050787
0.000207248
0.00507228
0.000219066
0.00506581
0.000231783
0.000245462
0.00514789
0.000120353
-0.00515161
0.00514403
0.000125684
0.00514003
0.000131237
0.00513585
0.000137073
0.00513149
0.000143268
0.00512693
0.000149901
0.00512217
0.000157034
0.00511723
0.000164716
0.00511213
0.000172987
0.00510689
0.000181883
0.00510153
0.000191444
0.00509609
0.000201716
0.00509059
0.000212744
0.00508507
0.000224583
0.00507957
0.000237286
0.000250913
0.00515336
0.00012381
-0.00515681
0.00514979
0.000129249
0.0051461
0.000134925
0.00514228
0.000140895
0.00513832
0.000147235
0.0051342
0.000154014
0.00512995
0.000161289
0.00512556
0.000169101
0.00512107
0.000177484
0.00511648
0.000186469
0.00511183
0.000196093
0.00510715
0.000206397
0.00510247
0.000217426
0.00509782
0.00022923
0.00509325
0.00024186
0.000255373
0.00515894
0.00012699
-0.00516212
0.00515567
0.000132516
0.00515231
0.000138286
0.00514885
0.000144359
0.00514528
0.000150803
0.00514161
0.000157686
0.00513784
0.000165056
0.00513399
0.00017295
0.00513008
0.000181396
0.00512612
0.000190423
0.00512216
0.000200061
0.0051182
0.000210349
0.0051143
0.000221328
0.00511049
0.000233046
0.0051068
0.000245549
0.00025889
0.0051646
0.000129888
-0.0051675
0.00516164
0.000135478
0.00515861
0.000141317
0.00515551
0.00014746
0.00515233
0.000153975
0.0051491
0.000160923
0.0051458
0.000168347
0.00514247
0.000176281
0.00513912
0.000184747
0.00513578
0.00019377
0.00513246
0.000203378
0.0051292
0.000213604
0.00512604
0.000224488
0.00512302
0.000236072
0.00512017
0.000248398
0.000261514
0.00517033
0.000132501
-0.00517294
0.00516767
0.000138134
0.00516497
0.000144016
0.00516223
0.000150203
0.00515945
0.000156757
0.00515663
0.000163734
0.0051538
0.000171177
0.00515097
0.000179112
0.00514816
0.000187559
0.00514539
0.000196539
0.0051427
0.000206075
0.0051401
0.000216199
0.00513765
0.000226945
0.00513537
0.000238351
0.00513331
0.000250455
0.000263299
0.00517609
0.000134829
-0.00517842
0.00517374
0.000140484
0.00517137
0.000146387
0.00516898
0.000152591
0.00516658
0.000159155
0.00516418
0.000166133
0.0051618
0.00017356
0.00515945
0.000181462
0.00515716
0.000189855
0.00515494
0.000198755
0.00515283
0.000208184
0.00515086
0.000218168
0.00514907
0.000228738
0.00514749
0.000239927
0.00514618
0.00025177
0.000264303
0.00518188
0.000136875
-0.00518392
0.00517983
0.000142533
0.00517778
0.000148435
0.00517574
0.000154633
0.00517371
0.000161181
0.00517172
0.00016813
0.00516976
0.000175514
0.00516787
0.000183353
0.00516607
0.00019166
0.00516437
0.000200448
0.00516282
0.000209737
0.00516144
0.000219548
0.00516027
0.000229908
0.00515935
0.000240847
0.00515873
0.000252395
0.000264581
0.00518766
0.000138643
-0.00518943
0.00518591
0.000144286
0.00518418
0.000150168
0.00518247
0.000156337
0.00518081
0.000162846
0.0051792
0.000169743
0.00517765
0.000177056
0.0051762
0.000184804
0.00517486
0.000192998
0.00517367
0.000201646
0.00517264
0.000210766
0.00517181
0.000220375
0.00517122
0.000230497
0.00517091
0.000241156
0.00517093
0.000252379
0.00026419
0.00519343
0.00014014
-0.00519493
0.00519197
0.00014575
0.00519054
0.000151593
0.00518916
0.000157714
0.00518785
0.000164164
0.0051866
0.000170985
0.00518545
0.000178206
0.00518442
0.00018584
0.00518352
0.000193895
0.00518279
0.000202379
0.00518225
0.000211304
0.00518194
0.000220686
0.00518189
0.000230544
0.00518215
0.0002409
0.00518275
0.000251773
0.000263186
0.00519916
0.000141373
-0.0052004
0.00519798
0.000146935
0.00519685
0.000152723
0.00519579
0.000158778
0.0051948
0.000165149
0.00519391
0.000171876
0.00519313
0.000178983
0.00519249
0.000186481
0.00519201
0.000194377
0.00519171
0.000202675
0.00519163
0.000211384
0.0051918
0.000220518
0.00519225
0.000230092
0.00519303
0.000240123
0.00519418
0.000250628
0.000261624
0.00520485
0.00014235
-0.00520583
0.00520393
0.000147851
0.00520309
0.000153568
0.00520232
0.000159541
0.00520166
0.000165817
0.0052011
0.000172432
0.00520068
0.000179408
0.0052004
0.000186753
0.00520031
0.00019447
0.00520042
0.000202564
0.00520077
0.000211039
0.00520138
0.000219907
0.00520229
0.00022918
0.00520354
0.000238871
0.00520518
0.000248993
0.000259558
0.00521047
0.000143082
-0.0052112
0.00520981
0.000148508
0.00520924
0.00015414
0.00520876
0.000160018
0.00520839
0.000166184
0.00520815
0.000172672
0.00520806
0.000179501
0.00520814
0.000186677
0.00520841
0.000194201
0.0052089
0.000202075
0.00520963
0.000210301
0.00521065
0.000218889
0.00521198
0.000227847
0.00521367
0.000237185
0.00521575
0.000246913
0.00025704
0.00521601
0.000143577
-0.0052165
0.0052156
0.000148917
0.00521529
0.000154453
0.00521508
0.000160223
0.005215
0.000166267
0.00521506
0.000172615
0.00521527
0.000179283
0.00521567
0.000186277
0.00521628
0.000193595
0.00521712
0.000201236
0.00521822
0.000209202
0.00521961
0.000217498
0.00522132
0.000226131
0.0052234
0.000235108
0.00522588
0.000244435
0.000254118
0.00522146
0.000143847
-0.00522173
0.00522129
0.000149091
0.00522122
0.000154521
0.00522127
0.000160172
0.00522146
0.000166081
0.00522179
0.000172278
0.0052223
0.000178775
0.005223
0.000185576
0.00522392
0.000192677
0.00522508
0.000200076
0.00522651
0.000207772
0.00522824
0.000215769
0.0052303
0.00022407
0.00523273
0.00023268
0.00523556
0.000241602
0.000250839
0.00522682
0.000143904
-0.00522687
0.00522687
0.000149042
0.00522703
0.000154356
0.00522732
0.000159879
0.00522776
0.000165645
0.00522836
0.000171681
0.00522913
0.000177999
0.00523011
0.000184597
0.00523132
0.000191473
0.00523277
0.000198622
0.0052345
0.000206042
0.00523654
0.000213733
0.00523891
0.000221697
0.00524165
0.000229938
0.0052448
0.000238454
0.000247247
0.00523206
0.000143757
-0.00523192
0.00523232
0.000148782
0.0052327
0.000153972
0.00523322
0.000159359
0.00523389
0.000164975
0.00523473
0.000170843
0.00523576
0.000176973
0.00523699
0.000183363
0.00523846
0.000190007
0.00524018
0.0001969
0.00524218
0.000204039
0.0052445
0.000211421
0.00524715
0.000219047
0.00525017
0.000226918
0.00525359
0.000235031
0.000243383
0.00523719
0.000143419
-0.00523685
0.00523765
0.000148324
0.00523824
0.000153384
0.00523897
0.000158629
0.00523986
0.000164087
0.00524092
0.000169781
0.00524217
0.000175717
0.00524364
0.000181894
0.00524535
0.000188302
0.00524731
0.000194936
0.00524956
0.000201791
0.00525212
0.000208863
0.00525501
0.000216152
0.00525828
0.000223655
0.00526194
0.000231368
0.000239287
0.0052422
0.000142901
-0.00524168
0.00524284
0.000147681
0.00524362
0.000152605
0.00524455
0.000157702
0.00524564
0.000162998
0.00524691
0.000168513
0.00524837
0.000174252
0.00525005
0.000180211
0.00525197
0.000186381
0.00525416
0.000192754
0.00525662
0.000199324
0.0052594
0.000206088
0.00526251
0.000213041
0.00526598
0.00022018
0.00526985
0.0002275
0.000234994
0.00524708
-0.00524639
0.0052479
0.00524885
0.00524996
0.00525124
0.00525269
0.00525435
0.00525622
0.00525834
0.00526072
0.00526338
0.00526634
0.00526964
0.0052733
0.00527734
0.00529078
2.28128e-05
0.00528791
9.38796e-05
0.00527882
4.59958e-05
0.00527558
3.32145e-05
0.00527203
6.55847e-06
0.0052699
2.31073e-06
0.00526828
4.15418e-06
0.0052667
6.32152e-06
0.00526513
8.55981e-06
0.00526354
1.02694e-05
0.0052619
1.14837e-05
0.00526021
1.23952e-05
0.00525847
1.31212e-05
0.00525667
1.37373e-05
0.00525481
1.42936e-05
0.0052529
1.4822e-05
0.00525093
1.53424e-05
0.0052489
1.58676e-05
0.0052468
1.6406e-05
0.00524463
1.69629e-05
0.00524239
1.75415e-05
0.00524008
1.8144e-05
0.00523769
1.87717e-05
0.00523522
1.94257e-05
0.00523266
2.01067e-05
0.00523001
2.08151e-05
0.00522728
2.15515e-05
0.00522444
2.23161e-05
0.00522151
2.31096e-05
0.00521848
2.39324e-05
0.00521534
2.47851e-05
0.00521209
2.56684e-05
0.00520873
2.65832e-05
0.00520526
2.75305e-05
0.00520166
2.85114e-05
0.00519794
2.95273e-05
0.0051941
3.05797e-05
0.00519013
3.16704e-05
0.00518602
3.28015e-05
0.00518177
3.39755e-05
0.00517738
3.51953e-05
0.00517285
3.64642e-05
0.00516816
3.77862e-05
0.00516332
3.91659e-05
0.00515833
4.0609e-05
0.00515318
4.21219e-05
0.00514787
4.37125e-05
0.00514239
4.539e-05
0.00513675
4.7166e-05
0.00513095
4.90542e-05
0.005125
5.10695e-05
0.0051189
5.32212e-05
0.00511267
5.54922e-05
0.0051063
5.78001e-05
5.99578e-05
0.00529183
2.38815e-05
0.005291
9.47e-05
0.00528205
5.49549e-05
0.00527832
3.69409e-05
0.00527406
1.08207e-05
0.00527127
5.10006e-06
0.00526924
6.18657e-06
0.0052674
8.15493e-06
0.00526569
1.02729e-05
0.00526401
1.19463e-05
0.00526232
1.31721e-05
0.00526061
1.41126e-05
0.00525885
1.48769e-05
0.00525705
1.55372e-05
0.0052552
1.61422e-05
0.0052533
1.67228e-05
0.00525134
1.72991e-05
0.00524933
1.78836e-05
0.00524725
1.84849e-05
0.0052451
1.9108e-05
0.00524289
1.97563e-05
0.0052406
2.04319e-05
0.00523824
2.11362e-05
0.00523579
2.18701e-05
0.00523327
2.26342e-05
0.00523065
2.34292e-05
0.00522795
2.42553e-05
0.00522515
2.51129e-05
0.00522226
2.60025e-05
0.00521927
2.69247e-05
0.00521617
2.78801e-05
0.00521297
2.88692e-05
0.00520966
2.98931e-05
0.00520624
3.09526e-05
0.0052027
3.2049e-05
0.00519904
3.31835e-05
0.00519527
3.43579e-05
0.00519136
3.55737e-05
0.00518733
3.68331e-05
0.00518317
3.81386e-05
0.00517887
3.94927e-05
0.00517444
4.08989e-05
0.00516986
4.23607e-05
0.00516515
4.38825e-05
0.00516028
4.54692e-05
0.00515528
4.71265e-05
0.00515013
4.88613e-05
0.00514484
5.06813e-05
0.00513941
5.25958e-05
0.00513385
5.46155e-05
0.00512817
5.67511e-05
0.00512238
5.90076e-05
0.00511651
6.13671e-05
0.00511055
6.37567e-05
6.60179e-05
0.00529289
2.38852e-05
0.00529291
9.46835e-05
0.00528485
6.3009e-05
0.00528044
4.13507e-05
0.00527573
1.55319e-05
0.00527245
8.38241e-06
0.00527006
8.57941e-06
0.00526801
1.02037e-05
0.00526616
1.21192e-05
0.00526441
1.37027e-05
0.00526267
1.49053e-05
0.00526093
1.58529e-05
0.00525917
1.66412e-05
0.00525737
1.73363e-05
0.00525553
1.79832e-05
0.00525364
1.86114e-05
0.0052517
1.92399e-05
0.0052497
1.9881e-05
0.00524764
2.05425e-05
0.00524552
2.12298e-05
0.00524333
2.19458e-05
0.00524107
2.26927e-05
0.00523873
2.34716e-05
0.00523632
2.42835e-05
0.00523383
2.51289e-05
0.00523125
2.60082e-05
0.00522858
2.69217e-05
0.00522582
2.78699e-05
0.00522297
2.88532e-05
0.00522003
2.98719e-05
0.00521698
3.09268e-05
0.00521383
3.20184e-05
0.00521058
3.31477e-05
0.00520721
3.43155e-05
0.00520374
3.55229e-05
0.00520015
3.67714e-05
0.00519645
3.80624e-05
0.00519262
3.93976e-05
0.00518868
4.07789e-05
0.00518461
4.22087e-05
0.00518041
4.36894e-05
0.00517609
4.52239e-05
0.00517163
4.68155e-05
0.00516704
4.8468e-05
0.00516233
5.01856e-05
0.00515748
5.1973e-05
0.00515251
5.38354e-05
0.00514741
5.57789e-05
0.0051422
5.78101e-05
0.00513688
5.9936e-05
0.00513146
6.21627e-05
0.00512598
6.44903e-05
0.00512045
6.6899e-05
0.00511488
6.93255e-05
7.16398e-05
0.00529347
2.33139e-05
0.00529389
9.4256e-05
0.00528668
7.02198e-05
0.00528191
4.6126e-05
0.00527696
2.04748e-05
0.00527336
1.19842e-05
0.00527071
1.12344e-05
0.00526849
1.24199e-05
0.00526654
1.40743e-05
0.00526471
1.55266e-05
0.00526294
1.66772e-05
0.00526118
1.76129e-05
0.00525941
1.84124e-05
0.00525761
1.91333e-05
0.00525578
1.98158e-05
0.0052539
2.04867e-05
0.00525198
2.11637e-05
0.00525
2.18582e-05
0.00524797
2.25777e-05
0.00524587
2.33267e-05
0.00524371
2.41084e-05
0.00524148
2.49244e-05
0.00523917
2.5776e-05
0.00523679
2.66637e-05
0.00523433
2.7588e-05
0.00523179
2.85493e-05
0.00522917
2.95478e-05
0.00522645
3.05838e-05
0.00522365
3.16577e-05
0.00522075
3.277e-05
0.00521775
3.3921e-05
0.00521466
3.51114e-05
0.00521147
3.63421e-05
0.00520817
3.76138e-05
0.00520476
3.89277e-05
0.00520125
4.02849e-05
0.00519763
4.16869e-05
0.00519389
4.31353e-05
0.00519004
4.46317e-05
0.00518607
4.61783e-05
0.00518198
4.77772e-05
0.00517777
4.9431e-05
0.00517344
5.11423e-05
0.005169
5.29144e-05
0.00516443
5.47503e-05
0.00515975
5.66537e-05
0.00515496
5.86284e-05
0.00515006
6.06782e-05
0.00514506
6.2807e-05
0.00513998
6.50182e-05
0.00513483
6.73133e-05
0.00512963
6.96876e-05
0.00512441
7.21197e-05
0.00511918
7.45541e-05
7.68869e-05
0.00529361
2.25937e-05
0.00529401
9.38616e-05
0.00528759
7.66418e-05
0.00528271
5.10071e-05
0.00527776
2.54228e-05
0.00527401
1.57316e-05
0.0052712
1.40492e-05
0.00526887
1.47502e-05
0.00526683
1.61102e-05
0.00526495
1.74036e-05
0.00526315
1.84803e-05
0.00526137
1.93883e-05
0.0052596
2.01878e-05
0.00525781
2.09261e-05
0.00525598
2.16381e-05
0.00525412
2.23471e-05
0.00525222
2.3069e-05
0.00525026
2.3814e-05
0.00524825
2.45886e-05
0.00524618
2.53971e-05
0.00524405
2.6242e-05
0.00524185
2.7125e-05
0.00523958
2.80469e-05
0.00523723
2.90081e-05
0.00523481
3.00089e-05
0.00523231
3.10496e-05
0.00522973
3.21303e-05
0.00522706
3.32513e-05
0.0052243
3.44127e-05
0.00522146
3.5615e-05
0.00521852
3.68585e-05
0.00521549
3.81438e-05
0.00521236
3.94715e-05
0.00520913
4.08425e-05
0.0052058
4.22577e-05
0.00520237
4.37183e-05
0.00519883
4.52254e-05
0.00519518
4.67804e-05
0.00519143
4.83849e-05
0.00518757
5.00406e-05
0.0051836
5.17493e-05
0.00517951
5.35132e-05
0.00517532
5.53342e-05
0.00517102
5.72147e-05
0.00516662
5.91571e-05
0.00516211
6.11636e-05
0.0051575
6.32365e-05
0.0051528
6.53776e-05
0.00514802
6.75883e-05
0.00514317
6.98687e-05
0.00513826