/*--------------------------------*- C++ -*----------------------------------*\
| =========                 |                                                 |
| \\      /  F ield         | OpenFOAM: The Open Source CFD Toolbox           |
|  \\    /   O peration     | Version:  2412                                  |
|   \\  /    A nd           | Website:  www.openfoam.com                      |
|    \\/     M anipulation  |                                                 |
\*---------------------------------------------------------------------------*/
FoamFile
{
    version     2.0;
    format      ascii;
    arch        "LSB;label=32;scalar=64";
    class       volVectorField;
    location    "23.5";
    object      U;
}
// * * * * * * * * * * * * * * * * * * * * * * * * * * * * * * * * * * * * * //

dimensions      [0 1 -1 0 0 0 0];

internalField   nonuniform List<vector> 
5285
(
(0.0997631 0.00155509 0)
(0.0997646 0.00147684 0)
(0.0997675 0.001401 0)
(0.0997718 0.00132756 0)
(0.0997772 0.00125654 0)
(0.0997836 0.00118794 0)
(0.0997909 0.00112179 0)
(0.0997988 0.00105808 0)
(0.0998074 0.000996795 0)
(0.0998164 0.000937935 0)
(0.0998258 0.000881473 0)
(0.0998355 0.000827385 0)
(0.0998453 0.000775639 0)
(0.0998553 0.000726199 0)
(0.0998652 0.000679025 0)
(0.0998752 0.000634073 0)
(0.0998851 0.000591295 0)
(0.0998948 0.000550641 0)
(0.0999043 0.000512056 0)
(0.0999137 0.000475484 0)
(0.0999227 0.000440867 0)
(0.0999315 0.000408145 0)
(0.09994 0.000377256 0)
(0.0999481 0.000348138 0)
(0.0999559 0.000320729 0)
(0.0999633 0.000294967 0)
(0.0999704 0.000270789 0)
(0.0999771 0.000248134 0)
(0.0999834 0.00022694 0)
(0.0999893 0.000207147 0)
(0.0999949 0.000188693 0)
(0.1 0.000171519 0)
(0.100005 0.000155567 0)
(0.100009 0.000140777 0)
(0.100014 0.000127094 0)
(0.100017 0.000114463 0)
(0.100021 0.000102829 0)
(0.100024 9.21421e-05 0)
(0.100027 8.23493e-05 0)
(0.100029 7.34042e-05 0)
(0.100032 6.5256e-05 0)
(0.100034 5.78665e-05 0)
(0.100036 5.11815e-05 0)
(0.100037 4.51824e-05 0)
(0.100039 3.9795e-05 0)
(0.10004 3.50466e-05 0)
(0.100041 3.08001e-05 0)
(0.100042 2.71951e-05 0)
(0.100043 2.39318e-05 0)
(0.100043 2.14148e-05 0)
(0.100044 1.89666e-05 0)
(0.100044 1.75633e-05 0)
(0.100046 1.57375e-05 0)
(0.100044 1.55841e-05 0)
(0.100048 1.41512e-05 0)
(0.100044 1.5511e-05 0)
(0.10005 1.42272e-05 0)
(0.100044 1.74928e-05 0)
(0.100053 1.61613e-05 0)
(0.100043 2.18334e-05 0)
(0.100057 2.0356e-05 0)
(0.100043 2.90824e-05 0)
(0.100064 2.74805e-05 0)
(0.100043 4.00143e-05 0)
(0.100075 3.93927e-05 0)
(0.100041 5.34167e-05 0)
(0.100093 6.40359e-05 0)
(0.100046 6.30642e-05 0)
(0.100103 0.000104544 0)
(0.100083 9.58674e-05 0)
(0.100115 0.000135035 0)
(0.0997289 0.00155439 0)
(0.0997322 0.00147549 0)
(0.0997371 0.00139909 0)
(0.0997431 0.00132519 0)
(0.0997502 0.00125379 0)
(0.0997583 0.0011849 0)
(0.0997671 0.00111851 0)
(0.0997766 0.00105463 0)
(0.0997866 0.000993227 0)
(0.099797 0.000934293 0)
(0.0998078 0.000877799 0)
(0.0998187 0.000823713 0)
(0.0998297 0.000771999 0)
(0.0998408 0.000722616 0)
(0.0998519 0.000675522 0)
(0.0998629 0.000630667 0)
(0.0998737 0.000588001 0)
(0.0998843 0.000547471 0)
(0.0998947 0.000509019 0)
(0.0999049 0.000472587 0)
(0.0999147 0.000438114 0)
(0.0999242 0.000405538 0)
(0.0999333 0.000374798 0)
(0.0999421 0.000345828 0)
(0.0999505 0.000318567 0)
(0.0999585 0.00029295 0)
(0.099966 0.000268914 0)
(0.0999732 0.000246397 0)
(0.0999799 0.000225336 0)
(0.0999863 0.000205671 0)
(0.0999922 0.00018734 0)
(0.0999978 0.000170284 0)
(0.100003 0.000154443 0)
(0.100008 0.000139758 0)
(0.100012 0.000126175 0)
(0.100016 0.000113636 0)
(0.10002 0.000102089 0)
(0.100023 9.14825e-05 0)
(0.100026 8.17644e-05 0)
(0.100029 7.28879e-05 0)
(0.100032 6.48028e-05 0)
(0.100034 5.74708e-05 0)
(0.100036 5.08381e-05 0)
(0.100037 4.48858e-05 0)
(0.100039 3.95407e-05 0)
(0.10004 3.48289e-05 0)
(0.100042 3.06158e-05 0)
(0.100042 2.70372e-05 0)
(0.100044 2.38002e-05 0)
(0.100044 2.12989e-05 0)
(0.100045 1.88727e-05 0)
(0.100045 1.74721e-05 0)
(0.100047 1.56678e-05 0)
(0.100045 1.54989e-05 0)
(0.100049 1.40937e-05 0)
(0.100045 1.54116e-05 0)
(0.100051 1.41707e-05 0)
(0.100045 1.7355e-05 0)
(0.100054 1.60941e-05 0)
(0.100045 2.1623e-05 0)
(0.100059 2.02714e-05 0)
(0.100045 2.87353e-05 0)
(0.100065 2.74051e-05 0)
(0.100044 3.93825e-05 0)
(0.100077 3.93968e-05 0)
(0.100043 5.2401e-05 0)
(0.100095 6.3648e-05 0)
(0.100048 6.25976e-05 0)
(0.100105 0.000102321 0)
(0.100085 9.52717e-05 0)
(0.100119 0.000133097 0)
(0.0996943 0.00155283 0)
(0.0996996 0.00147332 0)
(0.0997062 0.00139641 0)
(0.0997141 0.00132209 0)
(0.099723 0.00125036 0)
(0.0997327 0.00118121 0)
(0.0997432 0.00111463 0)
(0.0997542 0.0010506 0)
(0.0997657 0.000989121 0)
(0.0997775 0.000930149 0)
(0.0997896 0.000873655 0)
(0.0998018 0.000819603 0)
(0.099814 0.000767951 0)
(0.0998263 0.000718655 0)
(0.0998384 0.000671667 0)
(0.0998504 0.000626935 0)
(0.0998622 0.000584406 0)
(0.0998738 0.000544022 0)
(0.099885 0.000505724 0)
(0.099896 0.000469451 0)
(0.0999066 0.000435142 0)
(0.0999168 0.000402731 0)
(0.0999266 0.000372155 0)
(0.099936 0.00034335 0)
(0.0999449 0.000316249 0)
(0.0999535 0.000290791 0)
(0.0999615 0.000266909 0)
(0.0999692 0.000244541 0)
(0.0999764 0.000223625 0)
(0.0999831 0.000204098 0)
(0.0999895 0.000185899 0)
(0.0999954 0.000168968 0)
(0.100001 0.000153246 0)
(0.100006 0.000138674 0)
(0.100011 0.000125196 0)
(0.100015 0.000112756 0)
(0.100019 0.000101301 0)
(0.100022 9.07803e-05 0)
(0.100026 8.11412e-05 0)
(0.100029 7.23377e-05 0)
(0.100031 6.43194e-05 0)
(0.100034 5.70482e-05 0)
(0.100036 5.04708e-05 0)
(0.100038 4.45681e-05 0)
(0.100039 3.92677e-05 0)
(0.100041 3.45946e-05 0)
(0.100042 3.04168e-05 0)
(0.100043 2.68664e-05 0)
(0.100044 2.3657e-05 0)
(0.100044 2.11729e-05 0)
(0.100046 1.87692e-05 0)
(0.100045 1.73726e-05 0)
(0.100048 1.55899e-05 0)
(0.100046 1.5407e-05 0)
(0.100049 1.40284e-05 0)
(0.100046 1.53062e-05 0)
(0.100052 1.4106e-05 0)
(0.100046 1.72109e-05 0)
(0.100055 1.60175e-05 0)
(0.100046 2.14055e-05 0)
(0.10006 2.01757e-05 0)
(0.100046 2.83787e-05 0)
(0.100067 2.7315e-05 0)
(0.100046 3.87396e-05 0)
(0.100078 3.93772e-05 0)
(0.100045 5.13745e-05 0)
(0.100097 6.32287e-05 0)
(0.100051 6.20978e-05 0)
(0.100108 0.000100086 0)
(0.100088 9.46225e-05 0)
(0.100122 0.000131098 0)
(0.0996592 0.0015504 0)
(0.0996665 0.00147031 0)
(0.0996751 0.00139294 0)
(0.0996848 0.00131825 0)
(0.0996955 0.00124622 0)
(0.0997069 0.00117685 0)
(0.099719 0.00111012 0)
(0.0997316 0.001046 0)
(0.0997445 0.000984471 0)
(0.0997578 0.000925496 0)
(0.0997712 0.000869037 0)
(0.0997847 0.000815051 0)
(0.0997981 0.000763492 0)
(0.0998115 0.000714312 0)
(0.0998248 0.000667458 0)
(0.0998378 0.000622875 0)
(0.0998506 0.000580507 0)
(0.0998631 0.000540292 0)
(0.0998752 0.00050217 0)
(0.099887 0.000466077 0)
(0.0998983 0.00043195 0)
(0.0999092 0.000399721 0)
(0.0999197 0.000369327 0)
(0.0999297 0.0003407 0)
(0.0999393 0.000313776 0)
(0.0999484 0.000288489 0)
(0.099957 0.000264774 0)
(0.0999651 0.000242567 0)
(0.0999727 0.000221805 0)
(0.0999799 0.000202426 0)
(0.0999866 0.000184369 0)
(0.0999928 0.000167572 0)
(0.0999986 0.000151976 0)
(0.100004 0.000137523 0)
(0.100009 0.000124157 0)
(0.100014 0.000111823 0)
(0.100018 0.000100465 0)
(0.100021 9.00349e-05 0)
(0.100025 8.04795e-05 0)
(0.100028 7.17529e-05 0)
(0.100031 6.38052e-05 0)
(0.100033 5.65982e-05 0)
(0.100036 5.00792e-05 0)
(0.100038 4.42288e-05 0)
(0.100039 3.89756e-05 0)
(0.100041 3.43434e-05 0)
(0.100042 3.02027e-05 0)
(0.100043 2.66823e-05 0)
(0.100045 2.35019e-05 0)
(0.100045 2.10363e-05 0)
(0.100046 1.86562e-05 0)
(0.100046 1.72645e-05 0)
(0.100048 1.55038e-05 0)
(0.100047 1.53075e-05 0)
(0.10005 1.39556e-05 0)
(0.100047 1.51937e-05 0)
(0.100053 1.40336e-05 0)
(0.100047 1.70597e-05 0)
(0.100056 1.59323e-05 0)
(0.100047 2.11797e-05 0)
(0.100061 2.00692e-05 0)
(0.100047 2.80123e-05 0)
(0.100068 2.72096e-05 0)
(0.100047 3.80873e-05 0)
(0.10008 3.9331e-05 0)
(0.100047 5.03418e-05 0)
(0.100098 6.27751e-05 0)
(0.100053 6.1563e-05 0)
(0.10011 9.7849e-05 0)
(0.10009 9.39134e-05 0)
(0.100125 0.000129041 0)
(0.0996239 0.00154707 0)
(0.0996332 0.00146647 0)
(0.0996437 0.00138867 0)
(0.0996553 0.00131365 0)
(0.0996677 0.00124138 0)
(0.0996809 0.00117183 0)
(0.0996946 0.00110498 0)
(0.0997088 0.00104081 0)
(0.0997232 0.000979273 0)
(0.0997379 0.000920332 0)
(0.0997527 0.000863941 0)
(0.0997674 0.000810055 0)
(0.0997821 0.00075862 0)
(0.0997967 0.000709585 0)
(0.099811 0.000662894 0)
(0.0998251 0.000618487 0)
(0.0998389 0.000576303 0)
(0.0998523 0.000536282 0)
(0.0998653 0.000498357 0)
(0.0998778 0.000462465 0)
(0.0998899 0.000428538 0)
(0.0999016 0.00039651 0)
(0.0999127 0.000366313 0)
(0.0999234 0.000337881 0)
(0.0999335 0.000311147 0)
(0.0999432 0.000286045 0)
(0.0999523 0.000262509 0)
(0.0999609 0.000240474 0)
(0.0999689 0.000219878 0)
(0.0999765 0.000200657 0)
(0.0999836 0.000182749 0)
(0.0999902 0.000166095 0)
(0.0999963 0.000150633 0)
(0.100002 0.000136307 0)
(0.100007 0.000123059 0)
(0.100012 0.000110835 0)
(0.100016 9.95813e-05 0)
(0.10002 8.92462e-05 0)
(0.100024 7.9779e-05 0)
(0.100027 7.11335e-05 0)
(0.10003 6.326e-05 0)
(0.100033 5.61207e-05 0)
(0.100035 4.96631e-05 0)
(0.100037 4.38677e-05 0)
(0.100039 3.86641e-05 0)
(0.100041 3.4075e-05 0)
(0.100042 2.99735e-05 0)
(0.100044 2.64846e-05 0)
(0.100045 2.33347e-05 0)
(0.100045 2.08888e-05 0)
(0.100047 1.85332e-05 0)
(0.100047 1.71474e-05 0)
(0.100049 1.54092e-05 0)
(0.100047 1.52002e-05 0)
(0.100051 1.38751e-05 0)
(0.100048 1.5074e-05 0)
(0.100054 1.39533e-05 0)
(0.100048 1.69011e-05 0)
(0.100057 1.58382e-05 0)
(0.100048 2.09456e-05 0)
(0.100062 1.99517e-05 0)
(0.100048 2.76364e-05 0)
(0.100069 2.70878e-05 0)
(0.100049 3.74271e-05 0)
(0.100081 3.92547e-05 0)
(0.100049 4.93074e-05 0)
(0.1001 6.22838e-05 0)
(0.100056 6.09918e-05 0)
(0.100112 9.56189e-05 0)
(0.100093 9.31395e-05 0)
(0.100129 0.000126924 0)
(0.0995882 0.00154284 0)
(0.0995996 0.00146176 0)
(0.0996121 0.00138359 0)
(0.0996255 0.00130829 0)
(0.0996398 0.00123581 0)
(0.0996547 0.00116613 0)
(0.0996701 0.00109922 0)
(0.0996858 0.00103503 0)
(0.0997018 0.000973522 0)
(0.0997179 0.000914651 0)
(0.099734 0.000858366 0)
(0.0997501 0.000804612 0)
(0.099766 0.000753334 0)
(0.0997817 0.000704474 0)
(0.0997972 0.000657973 0)
(0.0998123 0.000613768 0)
(0.099827 0.000571795 0)
(0.0998414 0.000531989 0)
(0.0998552 0.000494284 0)
(0.0998686 0.000458613 0)
(0.0998815 0.000424906 0)
(0.0998938 0.000393096 0)
(0.0999057 0.000363114 0)
(0.099917 0.000334892 0)
(0.0999277 0.000308363 0)
(0.0999379 0.000283459 0)
(0.0999475 0.000260114 0)
(0.0999565 0.000238263 0)
(0.0999651 0.000217842 0)
(0.0999731 0.000198789 0)
(0.0999805 0.00018104 0)
(0.0999875 0.000164536 0)
(0.0999939 0.000149217 0)
(0.0999999 0.000135024 0)
(0.100005 0.000121902 0)
(0.10001 0.000109794 0)
(0.100015 9.86486e-05 0)
(0.100019 8.8414e-05 0)
(0.100023 7.90395e-05 0)
(0.100027 7.04792e-05 0)
(0.10003 6.26837e-05 0)
(0.100033 5.56153e-05 0)
(0.100035 4.92222e-05 0)
(0.100037 4.34845e-05 0)
(0.100039 3.8333e-05 0)
(0.100041 3.37892e-05 0)
(0.100043 2.97286e-05 0)
(0.100044 2.6273e-05 0)
(0.100045 2.3155e-05 0)
(0.100046 2.07301e-05 0)
(0.100047 1.84001e-05 0)
(0.100047 1.70211e-05 0)
(0.100049 1.53059e-05 0)
(0.100048 1.5085e-05 0)
(0.100052 1.37864e-05 0)
(0.100048 1.4947e-05 0)
(0.100054 1.38648e-05 0)
(0.100049 1.67351e-05 0)
(0.100058 1.57348e-05 0)
(0.100049 2.07033e-05 0)
(0.100063 1.98226e-05 0)
(0.100049 2.72515e-05 0)
(0.100071 2.69487e-05 0)
(0.10005 3.67609e-05 0)
(0.100082 3.91458e-05 0)
(0.100051 4.8275e-05 0)
(0.100101 6.17523e-05 0)
(0.100058 6.03835e-05 0)
(0.100114 9.34037e-05 0)
(0.100095 9.2297e-05 0)
(0.100132 0.000124749 0)
(0.0995522 0.00153767 0)
(0.0995656 0.00145617 0)
(0.0995802 0.00137768 0)
(0.0995956 0.00130214 0)
(0.0996117 0.00122951 0)
(0.0996283 0.00115975 0)
(0.0996454 0.00109281 0)
(0.0996627 0.00102865 0)
(0.0996802 0.000967214 0)
(0.0996978 0.000908452 0)
(0.0997153 0.000852307 0)
(0.0997327 0.00079872 0)
(0.0997498 0.000747631 0)
(0.0997667 0.000698977 0)
(0.0997833 0.000652695 0)
(0.0997994 0.000608718 0)
(0.0998151 0.000566981 0)
(0.0998304 0.000527415 0)
(0.0998451 0.000489952 0)
(0.0998593 0.000454521 0)
(0.099873 0.000421054 0)
(0.099886 0.00038948 0)
(0.0998985 0.000359729 0)
(0.0999104 0.000331733 0)
(0.0999218 0.000305422 0)
(0.0999325 0.00028073 0)
(0.0999426 0.000257588 0)
(0.0999522 0.000235933 0)
(0.0999611 0.000215699 0)
(0.0999695 0.000196823 0)
(0.0999774 0.000179242 0)
(0.0999847 0.000162897 0)
(0.0999915 0.000147727 0)
(0.0999977 0.000133675 0)
(0.100004 0.000120684 0)
(0.100009 0.000108699 0)
(0.100014 9.76674e-05 0)
(0.100018 8.75381e-05 0)
(0.100022 7.82609e-05 0)
(0.100026 6.97897e-05 0)
(0.100029 6.20759e-05 0)
(0.100032 5.50819e-05 0)
(0.100035 4.87563e-05 0)
(0.100037 4.3079e-05 0)
(0.100039 3.7982e-05 0)
(0.100041 3.34856e-05 0)
(0.100043 2.94679e-05 0)
(0.100044 2.60473e-05 0)
(0.100045 2.29626e-05 0)
(0.100046 2.05601e-05 0)
(0.100048 1.82565e-05 0)
(0.100048 1.68853e-05 0)
(0.10005 1.51937e-05 0)
(0.100049 1.49617e-05 0)
(0.100052 1.36895e-05 0)
(0.100049 1.48124e-05 0)
(0.100055 1.37678e-05 0)
(0.100049 1.65614e-05 0)
(0.100059 1.56219e-05 0)
(0.10005 2.04526e-05 0)
(0.100064 1.96816e-05 0)
(0.10005 2.68577e-05 0)
(0.100072 2.67913e-05 0)
(0.100051 3.609e-05 0)
(0.100084 3.90017e-05 0)
(0.100053 4.7248e-05 0)
(0.100102 6.11786e-05 0)
(0.100061 5.97372e-05 0)
(0.100115 9.12099e-05 0)
(0.100097 9.13826e-05 0)
(0.100135 0.000122518 0)
(0.0995159 0.00153156 0)
(0.0995315 0.00144969 0)
(0.099548 0.00137093 0)
(0.0995654 0.00129521 0)
(0.0995834 0.00122248 0)
(0.0996018 0.00115268 0)
(0.0996206 0.00108576 0)
(0.0996395 0.00102167 0)
(0.0996586 0.000960345 0)
(0.0996776 0.000901731 0)
(0.0996965 0.000845764 0)
(0.0997152 0.000792379 0)
(0.0997336 0.00074151 0)
(0.0997516 0.000693093 0)
(0.0997693 0.000647058 0)
(0.0997865 0.000603338 0)
(0.0998031 0.000561862 0)
(0.0998193 0.000522559 0)
(0.0998349 0.000485359 0)
(0.0998499 0.000450191 0)
(0.0998644 0.000416982 0)
(0.0998781 0.000385662 0)
(0.0998913 0.000356159 0)
(0.0999039 0.000328404 0)
(0.0999158 0.000302327 0)
(0.099927 0.000277859 0)
(0.0999377 0.000254934 0)
(0.0999477 0.000233485 0)
(0.0999571 0.000213447 0)
(0.0999659 0.000194758 0)
(0.0999741 0.000177355 0)
(0.0999818 0.000161177 0)
(0.0999889 0.000146165 0)
(0.0999955 0.00013226 0)
(0.100002 0.000119406 0)
(0.100007 0.00010755 0)
(0.100012 9.66376e-05 0)
(0.100017 8.66186e-05 0)
(0.100021 7.7443e-05 0)
(0.100025 6.90652e-05 0)
(0.100028 6.14368e-05 0)
(0.100031 5.45204e-05 0)
(0.100034 4.82652e-05 0)
(0.100037 4.26511e-05 0)
(0.100039 3.7611e-05 0)
(0.100041 3.31642e-05 0)
(0.100043 2.91913e-05 0)
(0.100044 2.58074e-05 0)
(0.100046 2.27574e-05 0)
(0.100046 2.03786e-05 0)
(0.100048 1.81024e-05 0)
(0.100048 1.674e-05 0)
(0.10005 1.50723e-05 0)
(0.100049 1.483e-05 0)
(0.100053 1.35841e-05 0)
(0.10005 1.46701e-05 0)
(0.100056 1.36622e-05 0)
(0.10005 1.638e-05 0)
(0.10006 1.54993e-05 0)
(0.10005 2.01937e-05 0)
(0.100065 1.95284e-05 0)
(0.100051 2.64555e-05 0)
(0.100073 2.66151e-05 0)
(0.100053 3.54157e-05 0)
(0.100085 3.88207e-05 0)
(0.100055 4.62291e-05 0)
(0.100103 6.0561e-05 0)
(0.100064 5.90526e-05 0)
(0.100117 8.90429e-05 0)
(0.100099 9.03943e-05 0)
(0.100138 0.000120232 0)
(0.0994794 0.00152448 0)
(0.0994971 0.0014423 0)
(0.0995158 0.00136333 0)
(0.0995351 0.00128749 0)
(0.099555 0.0012147 0)
(0.0995752 0.00114491 0)
(0.0995957 0.00107806 0)
(0.0996163 0.00101408 0)
(0.0996368 0.000952912 0)
(0.0996573 0.000894485 0)
(0.0996776 0.000838733 0)
(0.0996976 0.000785585 0)
(0.0997172 0.000734971 0)
(0.0997365 0.000686821 0)
(0.0997552 0.000641063 0)
(0.0997735 0.000597626 0)
(0.0997911 0.000556436 0)
(0.0998082 0.000517421 0)
(0.0998247 0.000480507 0)
(0.0998405 0.000445622 0)
(0.0998557 0.000412691 0)
(0.0998702 0.000381642 0)
(0.099884 0.000352404 0)
(0.0998972 0.000324905 0)
(0.0999097 0.000299076 0)
(0.0999215 0.000274846 0)
(0.0999327 0.000252149 0)
(0.0999432 0.000230918 0)
(0.099953 0.000211089 0)
(0.0999622 0.000192596 0)
(0.0999708 0.000175379 0)
(0.0999788 0.000159377 0)
(0.0999863 0.000144529 0)
(0.0999931 0.000130778 0)
(0.0999995 0.000118069 0)
(0.100005 0.000106347 0)
(0.100011 9.55592e-05 0)
(0.100016 8.56554e-05 0)
(0.10002 7.65859e-05 0)
(0.100024 6.83054e-05 0)
(0.100028 6.0766e-05 0)
(0.100031 5.39306e-05 0)
(0.100034 4.77489e-05 0)
(0.100036 4.22007e-05 0)
(0.100039 3.72198e-05 0)
(0.100041 3.28247e-05 0)
(0.100043 2.88986e-05 0)
(0.100044 2.5553e-05 0)
(0.100046 2.25392e-05 0)
(0.100046 2.01853e-05 0)
(0.100048 1.79375e-05 0)
(0.100048 1.6585e-05 0)
(0.100051 1.49417e-05 0)
(0.100049 1.46898e-05 0)
(0.100053 1.34701e-05 0)
(0.10005 1.45199e-05 0)
(0.100056 1.3548e-05 0)
(0.100051 1.61908e-05 0)
(0.10006 1.5367e-05 0)
(0.100051 1.99264e-05 0)
(0.100066 1.93629e-05 0)
(0.100052 2.6045e-05 0)
(0.100074 2.64193e-05 0)
(0.100054 3.47391e-05 0)
(0.100086 3.86014e-05 0)
(0.100056 4.52202e-05 0)
(0.100104 5.98988e-05 0)
(0.100066 5.83296e-05 0)
(0.100118 8.69068e-05 0)
(0.100101 8.93309e-05 0)
(0.100141 0.000117895 0)
(0.0994426 0.00151641 0)
(0.0994626 0.00143399 0)
(0.0994833 0.00135487 0)
(0.0995047 0.00127895 0)
(0.0995264 0.00120616 0)
(0.0995485 0.00113644 0)
(0.0995707 0.0010697 0)
(0.0995929 0.00100588 0)
(0.0996151 0.000944911 0)
(0.099637 0.000886712 0)
(0.0996587 0.000831213 0)
(0.09968 0.000778338 0)
(0.0997009 0.000728012 0)
(0.0997213 0.000680161 0)
(0.0997411 0.00063471 0)
(0.0997604 0.000591583 0)
(0.0997791 0.000550706 0)
(0.0997971 0.000512002 0)
(0.0998144 0.000475396 0)
(0.0998311 0.000440814 0)
(0.099847 0.000408181 0)
(0.0998622 0.000377422 0)
(0.0998767 0.000348465 0)
(0.0998905 0.000321238 0)
(0.0999036 0.000295671 0)
(0.099916 0.000271692 0)
(0.0999276 0.000249236 0)
(0.0999386 0.000228234 0)
(0.0999489 0.000208623 0)
(0.0999585 0.000190337 0)
(0.0999675 0.000173315 0)
(0.0999758 0.000157496 0)
(0.0999836 0.00014282 0)
(0.0999907 0.000129231 0)
(0.0999974 0.000116673 0)
(0.100003 0.00010509 0)
(0.100009 9.44324e-05 0)
(0.100014 8.46486e-05 0)
(0.100019 7.56896e-05 0)
(0.100023 6.75104e-05 0)
(0.100027 6.00637e-05 0)
(0.10003 5.33126e-05 0)
(0.100033 4.72073e-05 0)
(0.100036 4.17276e-05 0)
(0.100038 3.68084e-05 0)
(0.10004 3.24672e-05 0)
(0.100042 2.85896e-05 0)
(0.100044 2.52841e-05 0)
(0.100046 2.23079e-05 0)
(0.100047 1.99803e-05 0)
(0.100049 1.77618e-05 0)
(0.100048 1.64201e-05 0)
(0.100051 1.48017e-05 0)
(0.10005 1.45411e-05 0)
(0.100054 1.33474e-05 0)
(0.100051 1.43618e-05 0)
(0.100057 1.34248e-05 0)
(0.100051 1.59937e-05 0)
(0.100061 1.52248e-05 0)
(0.100052 1.96508e-05 0)
(0.100067 1.91849e-05 0)
(0.100053 2.56266e-05 0)
(0.100075 2.62036e-05 0)
(0.100055 3.4061e-05 0)
(0.100087 3.83427e-05 0)
(0.100058 4.4223e-05 0)
(0.100104 5.91914e-05 0)
(0.100069 5.75685e-05 0)
(0.10012 8.48043e-05 0)
(0.100103 8.81922e-05 0)
(0.100144 0.00011551 0)
(0.0994057 0.00150735 0)
(0.0994279 0.00142474 0)
(0.0994508 0.00134553 0)
(0.0994741 0.0012696 0)
(0.0994978 0.00119687 0)
(0.0995217 0.00112725 0)
(0.0995457 0.00106068 0)
(0.0995696 0.000997069 0)
(0.0995933 0.000936339 0)
(0.0996167 0.00087841 0)
(0.0996398 0.000823202 0)
(0.0996624 0.000770636 0)
(0.0996845 0.000720633 0)
(0.0997061 0.000673113 0)
(0.0997271 0.000627998 0)
(0.0997474 0.00058521 0)
(0.099767 0.00054467 0)
(0.099786 0.000506302 0)
(0.0998042 0.000470027 0)
(0.0998216 0.000435769 0)
(0.0998383 0.000403452 0)
(0.0998542 0.000373001 0)
(0.0998694 0.000344343 0)
(0.0998838 0.000317403 0)
(0.0998975 0.000292112 0)
(0.0999104 0.000268398 0)
(0.0999225 0.000246195 0)
(0.099934 0.000225434 0)
(0.0999447 0.00020605 0)
(0.0999547 0.000187981 0)
(0.0999641 0.000171162 0)
(0.0999728 0.000155535 0)
(0.0999808 0.000141039 0)
(0.0999883 0.000127618 0)
(0.0999952 0.000115217 0)
(0.100002 0.00010378 0)
(0.100007 9.32574e-05 0)
(0.100013 8.35983e-05 0)
(0.100017 7.47542e-05 0)
(0.100022 6.66804e-05 0)
(0.100026 5.933e-05 0)
(0.100029 5.26664e-05 0)
(0.100033 4.66405e-05 0)
(0.100035 4.12319e-05 0)
(0.100038 3.63768e-05 0)
(0.10004 3.20916e-05 0)
(0.100042 2.82644e-05 0)
(0.100044 2.50007e-05 0)
(0.100046 2.20635e-05 0)
(0.100047 1.97633e-05 0)
(0.100049 1.75752e-05 0)
(0.100049 1.62452e-05 0)
(0.100051 1.46522e-05 0)
(0.10005 1.43837e-05 0)
(0.100054 1.3216e-05 0)
(0.100051 1.41958e-05 0)
(0.100057 1.32929e-05 0)
(0.100052 1.57886e-05 0)
(0.100062 1.50726e-05 0)
(0.100052 1.93669e-05 0)
(0.100067 1.89941e-05 0)
(0.100054 2.52005e-05 0)
(0.100075 2.59676e-05 0)
(0.100056 3.3382e-05 0)
(0.100088 3.80443e-05 0)
(0.10006 4.32384e-05 0)
(0.100105 5.84389e-05 0)
(0.100071 5.67697e-05 0)
(0.100121 8.27371e-05 0)
(0.100105 8.69788e-05 0)
(0.100146 0.00011308 0)
(0.0993686 0.00149726 0)
(0.0993931 0.00141454 0)
(0.0994181 0.00133529 0)
(0.0994435 0.00125941 0)
(0.0994692 0.0011868 0)
(0.099495 0.00111735 0)
(0.0995207 0.00105099 0)
(0.0995462 0.000987637 0)
(0.0995715 0.000927193 0)
(0.0995964 0.000869576 0)
(0.0996209 0.0008147 0)
(0.0996448 0.00076248 0)
(0.0996682 0.000712833 0)
(0.0996909 0.000665676 0)
(0.099713 0.000620928 0)
(0.0997344 0.000578506 0)
(0.099755 0.000538331 0)
(0.0997748 0.000500322 0)
(0.0997939 0.0004644 0)
(0.0998121 0.000430488 0)
(0.0998296 0.000398507 0)
(0.0998462 0.000368382 0)
(0.0998621 0.000340037 0)
(0.0998771 0.000313401 0)
(0.0998913 0.0002884 0)
(0.0999048 0.000264964 0)
(0.0999174 0.000243026 0)
(0.0999293 0.000222517 0)
(0.0999405 0.000203372 0)
(0.0999509 0.000185528 0)
(0.0999606 0.000168922 0)
(0.0999697 0.000153495 0)
(0.0999781 0.000139186 0)
(0.0999858 0.00012594 0)
(0.099993 0.000113702 0)
(0.0999996 0.000102417 0)
(0.100006 9.20343e-05 0)
(0.100011 8.25049e-05 0)
(0.100016 7.37799e-05 0)
(0.100021 6.58154e-05 0)
(0.100025 5.85649e-05 0)
(0.100028 5.1992e-05 0)
(0.100032 4.60484e-05 0)
(0.100035 4.07137e-05 0)
(0.100037 3.59249e-05 0)
(0.10004 3.16978e-05 0)
(0.100042 2.7923e-05 0)
(0.100044 2.47026e-05 0)
(0.100046 2.18058e-05 0)
(0.100047 1.95345e-05 0)
(0.100049 1.73776e-05 0)
(0.100049 1.60604e-05 0)
(0.100051 1.44932e-05 0)
(0.10005 1.42177e-05 0)
(0.100054 1.30758e-05 0)
(0.100051 1.40216e-05 0)
(0.100058 1.31519e-05 0)
(0.100052 1.55756e-05 0)
(0.100062 1.49105e-05 0)
(0.100053 1.90748e-05 0)
(0.100068 1.87907e-05 0)
(0.100055 2.47669e-05 0)
(0.100076 2.57112e-05 0)
(0.100057 3.27028e-05 0)
(0.100088 3.77059e-05 0)
(0.100062 4.22667e-05 0)
(0.100106 5.76419e-05 0)
(0.100074 5.59341e-05 0)
(0.100122 8.07057e-05 0)
(0.100107 8.56921e-05 0)
(0.100149 0.00011061 0)
(0.0993314 0.00148614 0)
(0.0993582 0.00140337 0)
(0.0993854 0.00132416 0)
(0.0994129 0.00124839 0)
(0.0994406 0.00117595 0)
(0.0994682 0.00110673 0)
(0.0994957 0.00104064 0)
(0.0995229 0.000977584 0)
(0.0995497 0.000917473 0)
(0.0995761 0.00086021 0)
(0.099602 0.000805705 0)
(0.0996273 0.000753869 0)
(0.0996519 0.000704613 0)
(0.0996758 0.000657852 0)
(0.099699 0.0006135 0)
(0.0997214 0.000571473 0)
(0.099743 0.000531688 0)
(0.0997637 0.000494063 0)
(0.0997836 0.000458517 0)
(0.0998027 0.000424971 0)
(0.0998209 0.000393345 0)
(0.0998382 0.000363564 0)
(0.0998547 0.000335551 0)
(0.0998704 0.000309233 0)
(0.0998852 0.000284536 0)
(0.0998991 0.000261392 0)
(0.0999123 0.00023973 0)
(0.0999246 0.000219484 0)
(0.0999362 0.000200589 0)
(0.0999471 0.00018298 0)
(0.0999571 0.000166595 0)
(0.0999665 0.000151376 0)
(0.0999752 0.000137262 0)
(0.0999833 0.000124198 0)
(0.0999907 0.000112128 0)
(0.0999976 0.000101001 0)
(0.100004 9.07637e-05 0)
(0.10001 8.13685e-05 0)
(0.100015 7.27671e-05 0)
(0.100019 6.49158e-05 0)
(0.100024 5.77686e-05 0)
(0.100028 5.12897e-05 0)
(0.100031 4.54313e-05 0)
(0.100034 4.01729e-05 0)
(0.100037 3.54529e-05 0)
(0.100039 3.1286e-05 0)
(0.100042 2.75653e-05 0)
(0.100043 2.439e-05 0)
(0.100046 2.1535e-05 0)
(0.100047 1.92938e-05 0)
(0.100049 1.71691e-05 0)
(0.100049 1.58657e-05 0)
(0.100052 1.43248e-05 0)
(0.10005 1.40429e-05 0)
(0.100055 1.29267e-05 0)
(0.100052 1.38395e-05 0)
(0.100058 1.30021e-05 0)
(0.100053 1.53546e-05 0)
(0.100063 1.47384e-05 0)
(0.100054 1.87745e-05 0)
(0.100069 1.85744e-05 0)
(0.100055 2.43261e-05 0)
(0.100077 2.54343e-05 0)
(0.100058 3.20235e-05 0)
(0.100089 3.73278e-05 0)
(0.100063 4.13081e-05 0)
(0.100106 5.68013e-05 0)
(0.100076 5.50627e-05 0)
(0.100123 7.87099e-05 0)
(0.100109 8.43344e-05 0)
(0.100151 0.000108104 0)
(0.0992941 0.00147396 0)
(0.0993232 0.00139122 0)
(0.0993527 0.00131212 0)
(0.0993823 0.00123652 0)
(0.0994119 0.00116431 0)
(0.0994414 0.00109537 0)
(0.0994707 0.00102961 0)
(0.0994996 0.000966907 0)
(0.099528 0.000907174 0)
(0.0995559 0.00085031 0)
(0.0995832 0.000796218 0)
(0.0996098 0.000744803 0)
(0.0996357 0.000695974 0)
(0.0996608 0.000649641 0)
(0.099685 0.000605716 0)
(0.0997084 0.000564112 0)
(0.099731 0.000524743 0)
(0.0997527 0.000487527 0)
(0.0997734 0.000452379 0)
(0.0997933 0.00041922 0)
(0.0998122 0.000387969 0)
(0.0998303 0.000358549 0)
(0.0998474 0.000330884 0)
(0.0998637 0.000304899 0)
(0.099879 0.000280522 0)
(0.0998935 0.000257682 0)
(0.0999072 0.000236309 0)
(0.09992 0.000216338 0)
(0.099932 0.000197701 0)
(0.0999432 0.000180337 0)
(0.0999537 0.000164183 0)
(0.0999634 0.000149179 0)
(0.0999724 0.000135267 0)
(0.0999808 0.000122391 0)
(0.0999885 0.000110497 0)
(0.0999955 9.95322e-05 0)
(0.100002 8.94458e-05 0)
(0.100008 8.01896e-05 0)
(0.100013 7.17159e-05 0)
(0.100018 6.39817e-05 0)
(0.100023 5.69414e-05 0)
(0.100027 5.05597e-05 0)
(0.10003 4.47893e-05 0)
(0.100034 3.96099e-05 0)
(0.100036 3.49609e-05 0)
(0.100039 3.08563e-05 0)
(0.100041 2.71915e-05 0)
(0.100043 2.40629e-05 0)
(0.100045 2.12511e-05 0)
(0.100046 1.90412e-05 0)
(0.100049 1.69497e-05 0)
(0.100049 1.56609e-05 0)
(0.100052 1.41468e-05 0)
(0.100051 1.38594e-05 0)
(0.100055 1.27689e-05 0)
(0.100052 1.36492e-05 0)
(0.100059 1.28434e-05 0)
(0.100053 1.51257e-05 0)
(0.100063 1.45563e-05 0)
(0.100054 1.84662e-05 0)
(0.100069 1.83454e-05 0)
(0.100056 2.38782e-05 0)
(0.100078 2.51369e-05 0)
(0.100059 3.13445e-05 0)
(0.10009 3.69107e-05 0)
(0.100065 4.03622e-05 0)
(0.100107 5.59182e-05 0)
(0.100079 5.41567e-05 0)
(0.100124 7.67487e-05 0)
(0.10011 8.29083e-05 0)
(0.100153 0.000105566 0)
(0.0992568 0.00146072 0)
(0.0992883 0.00137807 0)
(0.09932 0.00129915 0)
(0.0993517 0.0012238 0)
(0.0993834 0.00115188 0)
(0.0994148 0.00108329 0)
(0.0994458 0.0010179 0)
(0.0994764 0.000955603 0)
(0.0995064 0.000896298 0)
(0.0995358 0.000839876 0)
(0.0995645 0.000786238 0)
(0.0995924 0.000735283 0)
(0.0996195 0.000686916 0)
(0.0996458 0.000641045 0)
(0.0996711 0.000597577 0)
(0.0996956 0.000556424 0)
(0.0997191 0.000517498 0)
(0.0997417 0.000480714 0)
(0.0997633 0.000445988 0)
(0.0997839 0.000413236 0)
(0.0998036 0.00038238 0)
(0.0998223 0.00035334 0)
(0.0998401 0.000326039 0)
(0.099857 0.000300403 0)
(0.0998729 0.000276359 0)
(0.0998879 0.000253836 0)
(0.0999021 0.000232764 0)
(0.0999153 0.000213078 0)
(0.0999277 0.000194711 0)
(0.0999394 0.0001776 0)
(0.0999502 0.000161685 0)
(0.0999602 0.000146904 0)
(0.0999696 0.000133202 0)
(0.0999782 0.000120521 0)
(0.0999862 0.000108808 0)
(0.0999935 9.80119e-05 0)
(0.1 8.80812e-05 0)
(0.100006 7.89685e-05 0)
(0.100012 7.06268e-05 0)
(0.100017 6.30135e-05 0)
(0.100022 5.60836e-05 0)
(0.100026 4.98021e-05 0)
(0.10003 4.41226e-05 0)
(0.100033 3.90247e-05 0)
(0.100036 3.4449e-05 0)
(0.100038 3.04087e-05 0)
(0.100041 2.68017e-05 0)
(0.100043 2.37214e-05 0)
(0.100045 2.09541e-05 0)
(0.100046 1.87768e-05 0)
(0.100049 1.67193e-05 0)
(0.100049 1.54463e-05 0)
(0.100052 1.39594e-05 0)
(0.100051 1.36673e-05 0)
(0.100055 1.26023e-05 0)
(0.100052 1.34511e-05 0)
(0.100059 1.26758e-05 0)
(0.100053 1.4889e-05 0)
(0.100064 1.43643e-05 0)
(0.100055 1.815e-05 0)
(0.10007 1.81036e-05 0)
(0.100057 2.34236e-05 0)
(0.100078 2.48192e-05 0)
(0.10006 3.06658e-05 0)
(0.10009 3.64552e-05 0)
(0.100067 3.94285e-05 0)
(0.100107 5.49943e-05 0)
(0.100081 5.32173e-05 0)
(0.100125 7.48205e-05 0)
(0.100112 8.1417e-05 0)
(0.100155 0.000103001 0)
(0.0992194 0.00144638 0)
(0.0992534 0.00136392 0)
(0.0992873 0.00128525 0)
(0.0993212 0.00121021 0)
(0.0993549 0.00113866 0)
(0.0993882 0.00107047 0)
(0.099421 0.00100551 0)
(0.0994533 0.000943672 0)
(0.0994849 0.000884842 0)
(0.0995158 0.000828908 0)
(0.0995459 0.000775765 0)
(0.0995751 0.000725309 0)
(0.0996035 0.000677441 0)
(0.0996309 0.000632064 0)
(0.0996573 0.000589084 0)
(0.0996828 0.000548411 0)
(0.0997073 0.000509955 0)
(0.0997308 0.000473628 0)
(0.0997532 0.000439345 0)
(0.0997746 0.000407022 0)
(0.0997951 0.000376579 0)
(0.0998145 0.000347937 0)
(0.0998329 0.000321017 0)
(0.0998503 0.000295745 0)
(0.0998668 0.000272048 0)
(0.0998824 0.000249854 0)
(0.099897 0.000229096 0)
(0.0999107 0.000209706 0)
(0.0999235 0.000191618 0)
(0.0999355 0.000174771 0)
(0.0999467 0.000159102 0)
(0.0999571 0.000144553 0)
(0.0999667 0.000131067 0)
(0.0999757 0.000118588 0)
(0.0999839 0.000107063 0)
(0.0999914 9.64403e-05 0)
(0.0999984 8.66703e-05 0)
(0.100005 7.77058e-05 0)
(0.10001 6.95002e-05 0)
(0.100016 6.20115e-05 0)
(0.100021 5.51955e-05 0)
(0.100025 4.90174e-05 0)
(0.100029 4.34315e-05 0)
(0.100032 3.84177e-05 0)
(0.100035 3.39174e-05 0)
(0.100038 2.99435e-05 0)
(0.100041 2.6396e-05 0)
(0.100043 2.33656e-05 0)
(0.100045 2.06441e-05 0)
(0.100046 1.85008e-05 0)
(0.100048 1.64782e-05 0)
(0.100049 1.52218e-05 0)
(0.100052 1.37627e-05 0)
(0.100051 1.34666e-05 0)
(0.100055 1.24271e-05 0)
(0.100052 1.32449e-05 0)
(0.100059 1.24995e-05 0)
(0.100053 1.46445e-05 0)
(0.100064 1.41625e-05 0)
(0.100055 1.78259e-05 0)
(0.10007 1.78492e-05 0)
(0.100057 2.29623e-05 0)
(0.100079 2.44813e-05 0)
(0.100061 2.99875e-05 0)
(0.100091 3.59624e-05 0)
(0.100068 3.8506e-05 0)
(0.100107 5.40311e-05 0)
(0.100083 5.2246e-05 0)
(0.100126 7.29232e-05 0)
(0.100114 7.9864e-05 0)
(0.100157 0.000100413 0)
(0.0991822 0.00143095 0)
(0.0992185 0.00134876 0)
(0.0992548 0.00127042 0)
(0.0992909 0.00119576 0)
(0.0993266 0.00112463 0)
(0.0993618 0.0010569 0)
(0.0993964 0.000992437 0)
(0.0994304 0.000931111 0)
(0.0994636 0.000872807 0)
(0.0994959 0.000817407 0)
(0.0995274 0.000764802 0)
(0.099558 0.000714884 0)
(0.0995876 0.00066755 0)
(0.0996161 0.000622701 0)
(0.0996437 0.000580241 0)
(0.0996702 0.000540076 0)
(0.0996956 0.000502115 0)
(0.0997199 0.00046627 0)
(0.0997432 0.000432453 0)
(0.0997654 0.00040058 0)