/*--------------------------------*- C++ -*----------------------------------*\
| =========                 |                                                 |
| \\      /  F ield         | OpenFOAM: The Open Source CFD Toolbox           |
|  \\    /   O peration     | Version:  2412                                  |
|   \\  /    A nd           | Website:  www.openfoam.com                      |
|    \\/     M anipulation  |                                                 |
\*---------------------------------------------------------------------------*/
FoamFile
{
    version     2.0;
    format      ascii;
    arch        "LSB;label=32;scalar=64";
    class       volScalarField;
    location    "16";
    object      p;
}
// * * * * * * * * * * * * * * * * * * * * * * * * * * * * * * * * * * * * * //

dimensions      [0 2 -2 0 0 0 0];

internalField   nonuniform List<scalar> 
5285
(
-0.000111799
-0.00010782
-0.00010388
-9.99844e-05
-9.61386e-05
-9.23478e-05
-8.86169e-05
-8.49508e-05
-8.13539e-05
-7.78303e-05
-7.4384e-05
-7.10184e-05
-6.77367e-05
-6.45418e-05
-6.14361e-05
-5.84217e-05
-5.55004e-05
-5.26735e-05
-4.99422e-05
-4.73069e-05
-4.47682e-05
-4.2326e-05
-3.99799e-05
-3.77295e-05
-3.55737e-05
-3.35114e-05
-3.15413e-05
-2.96616e-05
-2.78706e-05
-2.61662e-05
-2.45463e-05
-2.30084e-05
-2.15502e-05
-2.01692e-05
-1.88627e-05
-1.76281e-05
-1.64626e-05
-1.53635e-05
-1.43281e-05
-1.33535e-05
-1.24372e-05
-1.15763e-05
-1.07682e-05
-1.00103e-05
-0.000114765
-0.000110598
-0.000106478
-0.00010241
-9.84004e-05
-9.44531e-05
-9.05738e-05
-8.6767e-05
-8.30372e-05
-7.93884e-05
-7.58244e-05
-7.23485e-05
-6.89637e-05
-6.56726e-05
-6.24775e-05
-5.93802e-05
-5.63822e-05
-5.34846e-05
-5.06882e-05
-4.79933e-05
-4.54001e-05
-4.29081e-05
-4.05168e-05
-3.82252e-05
-3.60323e-05
-3.39365e-05
-3.19361e-05
-3.00293e-05
-2.82139e-05
-2.64876e-05
-2.48481e-05
-2.32927e-05
-2.18188e-05
-2.04237e-05
-1.91046e-05
-1.78586e-05
-1.66828e-05
-1.55744e-05
-1.45305e-05
-1.35481e-05
-1.26246e-05
-1.17569e-05
-1.09425e-05
-1.01786e-05
-0.000117629
-0.000113273
-0.000108972
-0.000104731
-0.000100557
-9.64536e-05
-9.24265e-05
-8.84804e-05
-8.46193e-05
-8.08473e-05
-7.71678e-05
-7.35841e-05
-7.00989e-05
-6.67146e-05
-6.34331e-05
-6.02561e-05
-5.71847e-05
-5.42199e-05
-5.13619e-05
-4.86108e-05
-4.59665e-05
-4.34282e-05
-4.0995e-05
-3.86658e-05
-3.6439e-05
-3.43128e-05
-3.22853e-05
-3.03543e-05
-2.85174e-05
-2.6772e-05
-2.51155e-05
-2.35451e-05
-2.2058e-05
-2.0651e-05
-1.93214e-05
-1.8066e-05
-1.68819e-05
-1.57659e-05
-1.47151e-05
-1.37265e-05
-1.27971e-05
-1.19241e-05
-1.11045e-05
-1.03358e-05
-0.00012038
-0.000115833
-0.00011135
-0.000106937
-0.000102599
-9.83402e-05
-9.41669e-05
-9.00831e-05
-8.60929e-05
-8.22e-05
-7.84078e-05
-7.47192e-05
-7.11368e-05
-6.76626e-05
-6.42983e-05
-6.10452e-05
-5.79042e-05
-5.48758e-05
-5.196e-05
-4.91566e-05
-4.64649e-05
-4.38841e-05
-4.14127e-05
-3.90494e-05
-3.67921e-05
-3.4639e-05
-3.25877e-05
-3.06356e-05
-2.87802e-05
-2.70186e-05
-2.5348e-05
-2.37652e-05
-2.22672e-05
-2.08508e-05
-1.95128e-05
-1.82501e-05
-1.70595e-05
-1.59377e-05
-1.48818e-05
-1.38884e-05
-1.29547e-05
-1.20775e-05
-1.12541e-05
-1.04816e-05
-0.000123006
-0.000118268
-0.000113604
-0.000109018
-0.000104516
-0.000100104
-9.57867e-05
-9.15675e-05
-8.74508e-05
-8.344e-05
-7.95382e-05
-7.57482e-05
-7.20722e-05
-6.85119e-05
-6.50688e-05
-6.17436e-05
-5.85371e-05
-5.54492e-05
-5.24797e-05
-4.9628e-05
-4.68931e-05
-4.42736e-05
-4.1768e-05
-3.93744e-05
-3.70905e-05
-3.49139e-05
-3.28422e-05
-3.08724e-05
-2.90017e-05
-2.72269e-05
-2.55449e-05
-2.39524e-05
-2.24461e-05
-2.10226e-05
-1.96786e-05
-1.84107e-05
-1.72156e-05
-1.60899e-05
-1.50304e-05
-1.40339e-05
-1.30973e-05
-1.22174e-05
-1.13914e-05
-1.06162e-05
-0.000125496
-0.000120567
-0.000115721
-0.000110964
-0.000106301
-0.000101737
-9.72775e-05
-9.29257e-05
-8.86856e-05
-8.45604e-05
-8.05529e-05
-7.66654e-05
-7.28999e-05
-6.92578e-05
-6.57401e-05
-6.23473e-05
-5.90797e-05
-5.59368e-05
-5.29182e-05
-5.00226e-05
-4.72488e-05
-4.4595e-05
-4.20593e-05
-3.96393e-05
-3.73326e-05
-3.51365e-05
-3.30479e-05
-3.10639e-05
-2.91811e-05
-2.73963e-05
-2.57059e-05
-2.41065e-05
-2.25945e-05
-2.11664e-05
-1.98187e-05
-1.85477e-05
-1.73501e-05
-1.62224e-05
-1.51611e-05
-1.4163e-05
-1.32249e-05
-1.23436e-05
-1.15162e-05
-1.07396e-05
-0.000127837
-0.000122717
-0.00011769
-0.000112764
-0.000107942
-0.000103229
-9.86305e-05
-9.41496e-05
-8.97898e-05
-8.55542e-05
-8.14452e-05
-7.74648e-05
-7.36145e-05
-6.98953e-05
-6.63079e-05
-6.28524e-05
-5.95286e-05
-5.63356e-05
-5.32726e-05
-5.03379e-05
-4.75298e-05
-4.48462e-05
-4.22848e-05
-3.98428e-05
-3.75175e-05
-3.53056e-05
-3.32041e-05
-3.12093e-05
-2.93179e-05
-2.75262e-05
-2.58305e-05
-2.42271e-05
-2.27122e-05
-2.1282e-05
-1.99329e-05
-1.86611e-05
-1.7463e-05
-1.6335e-05
-1.52737e-05
-1.42757e-05
-1.33376e-05
-1.24563e-05
-1.16287e-05
-1.08518e-05
-0.000130016
-0.000124706
-0.000119501
-0.000114407
-0.000109428
-0.00010457
-9.98365e-05
-9.52306e-05
-9.07557e-05
-8.64144e-05
-8.22088e-05
-7.81405e-05
-7.42105e-05
-7.04196e-05
-6.67679e-05
-6.3255e-05
-5.98802e-05
-5.66425e-05
-5.35402e-05
-5.05715e-05
-4.77341e-05
-4.50256e-05
-4.24431e-05
-3.99836e-05
-3.76439e-05
-3.54205e-05
-3.33098e-05
-3.13081e-05
-2.94116e-05
-2.76164e-05
-2.59186e-05
-2.4314e-05
-2.27989e-05
-2.13692e-05
-2.00211e-05
-1.87507e-05
-1.75542e-05
-1.64279e-05
-1.53684e-05
-1.4372e-05
-1.34355e-05
-1.25555e-05
-1.1729e-05
-1.09528e-05
-0.000132018
-0.000126521
-0.00012114
-0.000115882
-0.000110751
-0.000105751
-0.000100887
-9.61605e-05
-9.15756e-05
-8.71339e-05
-8.28372e-05
-7.86867e-05
-7.46829e-05
-7.0826e-05
-6.71157e-05
-6.35513e-05
-6.01314e-05
-5.68545e-05
-5.37185e-05
-5.07212e-05
-4.78598e-05
-4.51314e-05
-4.25327e-05
-4.00604e-05
-3.77109e-05
-3.54802e-05
-3.33645e-05
-3.13598e-05
-2.94618e-05
-2.76665e-05
-2.59697e-05
-2.43671e-05
-2.28546e-05
-2.1428e-05
-2.00834e-05
-1.88166e-05
-1.76238e-05
-1.65012e-05
-1.54451e-05
-1.44521e-05
-1.35185e-05
-1.26413e-05
-1.18171e-05
-1.10429e-05
-0.000133831
-0.000128149
-0.000122596
-0.000117177
-0.000111898
-0.000106762
-0.000101772
-9.69309e-05
-9.22417e-05
-8.77057e-05
-8.33242e-05
-7.90977e-05
-7.50264e-05
-7.11099e-05
-6.73474e-05
-6.37377e-05
-6.02788e-05
-5.69688e-05
-5.38051e-05
-5.07849e-05
-4.79051e-05
-4.51622e-05
-4.25525e-05
-4.00724e-05
-3.77176e-05
-3.54841e-05
-3.33676e-05
-3.13638e-05
-2.94682e-05
-2.76764e-05
-2.59839e-05
-2.43863e-05
-2.28793e-05
-2.14585e-05
-2.01197e-05
-1.88589e-05
-1.76719e-05
-1.65549e-05
-1.55041e-05
-1.4516e-05
-1.3587e-05
-1.27137e-05
-1.18931e-05
-1.1122e-05
-0.000135439
-0.000129576
-0.000123855
-0.000118281
-0.000112859
-0.000107592
-0.000102482
-9.75334e-05
-9.27465e-05
-8.81229e-05
-8.36634e-05
-7.93678e-05
-7.5236e-05
-7.12669e-05
-6.74591e-05
-6.38108e-05
-6.03196e-05
-5.6983e-05
-5.37979e-05
-5.07609e-05
-4.78684e-05
-4.51166e-05
-4.25014e-05
-4.00185e-05
-3.76634e-05
-3.54318e-05
-3.33189e-05
-3.132e-05
-2.94306e-05
-2.76458e-05
-2.59611e-05
-2.43717e-05
-2.2873e-05
-2.14607e-05
-2.01304e-05
-1.88777e-05
-1.76987e-05
-1.65892e-05
-1.55455e-05
-1.45639e-05
-1.36409e-05
-1.27731e-05
-1.19573e-05
-1.11904e-05
-0.000136828
-0.000130788
-0.000124905
-0.000119182
-0.000113623
-0.000108231
-0.00010301
-9.79595e-05
-9.30824e-05
-8.83787e-05
-8.38487e-05
-7.94918e-05
-7.5307e-05
-7.12927e-05
-6.7447e-05
-6.37674e-05
-6.0251e-05
-5.68946e-05
-5.36947e-05
-5.06474e-05
-4.77485e-05
-4.49937e-05
-4.23785e-05
-3.98981e-05
-3.75478e-05
-3.53228e-05
-3.32179e-05
-3.12283e-05
-2.9349e-05
-2.7575e-05
-2.59014e-05
-2.43233e-05
-2.2836e-05
-2.14349e-05
-2.01155e-05
-1.88734e-05
-1.77043e-05
-1.66044e-05
-1.55695e-05
-1.45961e-05
-1.36806e-05
-1.28195e-05
-1.20098e-05
-1.12482e-05
-0.000137983
-0.000131773
-0.000125732
-0.000119867
-0.000114178
-0.00010867
-0.000103344
-9.82011e-05
-9.32418e-05
-8.84665e-05
-8.38743e-05
-7.94643e-05
-7.52347e-05
-7.11834e-05
-6.73077e-05
-6.36045e-05
-6.00704e-05
-5.67016e-05
-5.34939e-05
-5.0443e-05
-4.75441e-05
-4.47924e-05
-4.2183e-05
-3.97108e-05
-3.73705e-05
-3.51569e-05
-3.30647e-05
-3.10887e-05
-2.92235e-05
-2.7464e-05
-2.5805e-05
-2.42414e-05
-2.27685e-05
-2.13813e-05
-2.00754e-05
-1.88461e-05
-1.76892e-05
-1.66006e-05
-1.55764e-05
-1.46128e-05
-1.37062e-05
-1.28533e-05
-1.20508e-05
-1.12956e-05
-0.000138887
-0.000132514
-0.000126325
-0.000120324
-0.000114515
-0.000108899
-0.000103477
-9.82499e-05
-9.32177e-05
-8.83797e-05
-8.37345e-05
-7.92803e-05
-7.50148e-05
-7.09352e-05
-6.70379e-05
-6.33195e-05
-5.97757e-05
-5.64021e-05
-5.3194e-05
-5.01465e-05
-4.72543e-05
-4.45122e-05
-4.19147e-05
-3.94562e-05
-3.71313e-05
-3.49342e-05
-3.28594e-05
-3.09013e-05
-2.90543e-05
-2.7313e-05
-2.56722e-05
-2.41264e-05
-2.26708e-05
-2.13004e-05
-2.00103e-05
-1.87962e-05
-1.76536e-05
-1.65784e-05
-1.55665e-05
-1.46143e-05
-1.37181e-05
-1.28746e-05
-1.20805e-05
-1.13328e-05
-0.000139526
-0.000132997
-0.000126668
-0.000120542
-0.000114621
-0.000108907
-0.000103399
-9.80982e-05
-9.3003e-05
-8.81122e-05
-8.34239e-05
-7.89353e-05
-7.46435e-05
-7.05447e-05
-6.6635e-05
-6.291e-05
-5.93648e-05
-5.59945e-05
-5.27938e-05
-4.9757e-05
-4.68785e-05
-4.41525e-05
-4.15731e-05
-3.91344e-05
-3.68303e-05
-3.46548e-05
-3.26022e-05
-3.06664e-05
-2.88418e-05
-2.71226e-05
-2.55034e-05
-2.39788e-05
-2.25434e-05
-2.11924e-05
-1.99209e-05
-1.87242e-05
-1.7598e-05
-1.6538e-05
-1.55402e-05
-1.46009e-05
-1.37166e-05
-1.28837e-05
-1.20992e-05
-1.136e-05
-0.000139884
-0.000133209
-0.00012675
-0.000120509
-0.000114487
-0.000108685
-0.000103102
-9.77383e-05
-9.2591e-05
-8.76584e-05
-8.29375e-05
-7.84249e-05
-7.41168e-05
-7.00089e-05
-6.60963e-05
-6.23739e-05
-5.88362e-05
-5.54777e-05
-5.22923e-05
-4.92739e-05
-4.64163e-05
-4.37133e-05
-4.11584e-05
-3.87453e-05
-3.64676e-05
-3.43191e-05
-3.22934e-05
-3.03846e-05
-2.85865e-05
-2.68933e-05
-2.52993e-05
-2.37989e-05
-2.23869e-05
-2.1058e-05
-1.98075e-05
-1.86305e-05
-1.75227e-05
-1.64798e-05
-1.54979e-05
-1.45731e-05
-1.37019e-05
-1.2881e-05
-1.21072e-05
-1.13776e-05
-0.000139943
-0.000133133
-0.000126556
-0.000120211
-0.0001141
-0.000108223
-0.000102577
-9.71621e-05
-9.19746e-05
-8.70117e-05
-8.22697e-05
-7.77444e-05
-7.34309e-05
-6.93243e-05
-6.54189e-05
-6.17088e-05
-5.8188e-05
-5.485e-05
-5.16883e-05
-4.86962e-05
-4.58671e-05
-4.3194e-05
-4.06702e-05
-3.82889e-05
-3.60434e-05
-3.3927e-05
-3.19333e-05
-3.00559e-05
-2.82886e-05
-2.66252e-05
-2.506e-05
-2.35872e-05
-2.22014e-05
-2.08975e-05
-1.96704e-05
-1.85154e-05
-1.74281e-05
-1.64042e-05
-1.54397e-05
-1.45309e-05
-1.36743e-05
-1.28666e-05
-1.21047e-05
-1.13856e-05
-0.000139685
-0.000132754
-0.00012607
-0.000119636
-0.000113449
-0.00010751
-0.000101814
-9.63613e-05
-9.11466e-05
-8.61661e-05
-8.14155e-05
-7.68893e-05
-7.25822e-05
-6.84881e-05
-6.46006e-05
-6.09131e-05
-5.74188e-05
-5.41106e-05
-5.09814e-05
-4.80239e-05
-4.52309e-05
-4.2595e-05
-4.0109e-05
-3.77658e-05
-3.55583e-05
-3.34795e-05
-3.15228e-05
-2.96815e-05
-2.79491e-05
-2.63195e-05
-2.47866e-05
-2.33446e-05
-2.19881e-05
-2.07117e-05
-1.95105e-05
-1.83798e-05
-1.73149e-05
-1.63118e-05
-1.53665e-05
-1.44752e-05
-1.36345e-05
-1.28411e-05
-1.20921e-05
-1.13845e-05
-0.000139098
-0.000132059
-0.000125284
-0.000118774
-0.000112526
-0.000106539
-0.000100809
-9.53321e-05
-9.0104e-05
-8.51196e-05
-8.03733e-05
-7.58591e-05
-7.15704e-05
-6.75004e-05
-6.3642e-05
-5.99877e-05
-5.65299e-05
-5.3261e-05
-5.01732e-05
-4.72586e-05
-4.45095e-05
-4.19181e-05
-3.94767e-05
-3.71779e-05
-3.50142e-05
-3.29785e-05
-3.10636e-05
-2.92629e-05
-2.75697e-05
-2.59776e-05
-2.44805e-05
-2.30725e-05
-2.17481e-05
-2.05019e-05
-1.9329e-05
-1.82246e-05
-1.71841e-05
-1.62035e-05
-1.52789e-05
-1.44065e-05
-1.35829e-05
-1.2805e-05
-1.207e-05
-1.13748e-05
-0.000138176
-0.000131045
-0.000124194
-0.000117624
-0.000111331
-0.000105311
-9.95607e-05
-9.40747e-05
-8.88476e-05
-8.38731e-05
-7.91447e-05
-7.46553e-05
-7.03975e-05
-6.63635e-05
-6.25454e-05
-5.89349e-05
-5.55238e-05
-5.23037e-05
-4.92661e-05
-4.64028e-05
-4.37054e-05
-4.11657e-05
-3.87756e-05
-3.65274e-05
-3.44133e-05
-3.24258e-05
-3.05577e-05
-2.8802e-05
-2.7152e-05
-2.56011e-05
-2.41432e-05
-2.27723e-05
-2.14828e-05
-2.02693e-05
-1.91269e-05
-1.80508e-05
-1.70367e-05
-1.60802e-05
-1.51777e-05
-1.43255e-05
-1.35203e-05
-1.27591e-05
-1.20388e-05
-1.1357e-05
-0.000242315
-0.000238088
-0.000233602
-0.00022889
-0.000223984
-0.000218915
-0.000213712
-0.000208403
-0.000203012
-0.000197565
-0.000192084
-0.000186588
-0.000181098
-0.000175629
-0.000170198
-0.000164819
-0.000159504
-0.000154263
-0.000149108
-0.000144046
-0.000139083
-0.000134228
-0.000129483
-0.000124855
-0.000120345
-0.000115957
-0.000255587
-0.00025081
-0.000245776
-0.000240522
-0.000235081
-0.000229485
-0.000223766
-0.000217953
-0.000212071
-0.000206148
-0.000200204
-0.000194263
-0.000188343
-0.000182462
-0.000176635
-0.000170877
-0.0001652
-0.000159615
-0.000154132
-0.000148758
-0.000143501
-0.000138366
-0.000133357
-0.00012848
-0.000123735
-0.000119126
-0.00026925
-0.000263883
-0.000258264
-0.00025243
-0.000246419
-0.000240263
-0.000233997
-0.00022765
-0.00022125
-0.000214823
-0.000208395
-0.000201985
-0.000195616
-0.000189303
-0.000183064
-0.000176913
-0.000170861
-0.000164919
-0.000159097
-0.000153403
-0.000147843
-0.000142421
-0.000137143
-0.000132011
-0.000127028
-0.000122195
-0.000283314
-0.000277314
-0.000271067
-0.000264615
-0.000257995
-0.000251244
-0.000244397
-0.000237485
-0.000230537
-0.000223582
-0.000216643
-0.000209743
-0.000202903
-0.000196141
-0.000189472
-0.000182912
-0.000176471
-0.000170161
-0.000163991
-0.000157967
-0.000152096
-0.000146382
-0.000140828
-0.000135438
-0.000130213
-0.000125152
-0.000297784
-0.000291104
-0.000284186
-0.000277073
-0.000269805
-0.000262422
-0.000254959
-0.000247449
-0.000239924
-0.000232411
-0.000224936
-0.000217523
-0.000210191
-0.00020296
-0.000195845
-0.00018886
-0.000182018
-0.000175327
-0.000168798
-0.000162435
-0.000156246
-0.000150233
-0.000144399
-0.000138747
-0.000133276
-0.000127987
-0.000312667
-0.000305257
-0.00029762
-0.000289801
-0.000281844
-0.000273788
-0.000265672
-0.000257531
-0.000249396
-0.000241297
-0.00023326
-0.000225308
-0.000217464
-0.000209744
-0.000202165
-0.000194741
-0.000187483
-0.000180401
-0.000173502
-0.000166793
-0.000160278
-0.00015396
-0.000147842
-0.000141924
-0.000136205
-0.000130686
-0.000327966
-0.000319774
-0.000311367
-0.000302795
-0.000294103
-0.000285333
-0.000276526
-0.000267717
-0.00025894
-0.000250224
-0.000241597
-0.000233083
-0.000224703
-0.000216475
-0.000208415
-0.000200536
-0.000192849
-0.000185364
-0.000178086
-0.000171022
-0.000164176
-0.000157548
-0.000151141
-0.000144954
-0.000138986
-0.000133235
-0.000343686
-0.000334655
-0.000325425
-0.000316049
-0.000306574
-0.000297046
-0.000287506
-0.000277992
-0.000268538
-0.000259175
-0.00024993
-0.000240828
-0.00023189
-0.000223133
-0.000214574
-0.000206226
-0.000198097
-0.000190197
-0.000182532
-0.000175106
-0.000167922
-0.00016098
-0.000154281
-0.000147823
-0.000141605
-0.000135622
-0.000359831
-0.000349898
-0.000339787
-0.000329553
-0.000319246
-0.000308913
-0.000298598
-0.000288339
-0.000278173
-0.00026813
-0.000258238
-0.000248522
-0.000239003
-0.000229698
-0.000220623
-0.000211789
-0.000203207
-0.000194882
-0.00018682
-0.000179025
-0.000171498
-0.000164238
-0.000157244
-0.000150515
-0.000144045
-0.000137832
-0.0003764
-0.000365501
-0.000354448
-0.000343298
-0.000332105
-0.000320919
-0.000309783
-0.000298739
-0.000287823
-0.000277067
-0.000266498
-0.000256142
-0.000246019
-0.000236146
-0.000226538
-0.000217204
-0.000208155
-0.000199396
-0.00019093
-0.000182759
-0.000174884
-0.000167303
-0.000160014
-0.000153012
-0.000146292
-0.000139849
-0.000393395
-0.000381459
-0.000369397
-0.000357271
-0.000345136
-0.000333044
-0.000321041
-0.000309169
-0.000297465
-0.000285962
-0.000274686
-0.000263663
-0.000252913
-0.000242452
-0.000232293
-0.000222446
-0.000212919
-0.000203715
-0.000194838
-0.000186287
-0.000178061
-0.000170157
-0.000162571
-0.000155297
-0.000148329
-0.000141659
-0.000410812
-0.000397764
-0.000384625
-0.000371458
-0.000358321
-0.000345269
-0.00033235
-0.000319606
-0.000307074
-0.000294788
-0.000282774
-0.000271058
-0.000259657
-0.000248588
-0.000237862
-0.000227488
-0.000217472
-0.000207816
-0.000198521
-0.000189586
-0.000181006
-0.000172779
-0.000164897
-0.000157352
-0.000150138
-0.000143245
-0.000428647
-0.000414408
-0.000400116
-0.000385839
-0.000371639
-0.00035757
-0.000343683
-0.00033002
-0.00031662
-0.000303515
-0.000290733
-0.000278295
-0.000266222
-0.000254525
-0.000243217
-0.000232303
-0.000221788
-0.000211672
-0.000201954
-0.000192632
-0.000183698
-0.000175147
-0.00016697
-0.000159159
-0.000151703
-0.000144591
-0.000446894
-0.000431377
-0.000415854
-0.000400395
-0.000385064
-0.000369919
-0.00035501
-0.000340382
-0.000326071
-0.000312111
-0.000298528
-0.000285343
-0.000272573
-0.000260231
-0.000248325
-0.00023686
-0.000225837
-0.000215256
-0.000205112
-0.0001954
-0.000186112
-0.000177239
-0.000168772
-0.000160697
-0.000153005
-0.000145681
-0.000465543
-0.000448657
-0.000431818
-0.0004151
-0.00039857
-0.000382286
-0.0003663
-0.000350656
-0.000335392
-0.00032054
-0.000306125
-0.000292166
-0.000278678
-0.000265672
-0.000253154
-0.000241127
-0.000229589
-0.000218538
-0.000207965
-0.000197864
-0.000188224
-0.000179033
-0.000170279
-0.000161948
-0.000154025
-0.000146497
-0.000484581
-0.000466228
-0.000447984
-0.000429926
-0.000412123
-0.000394635
-0.000377514
-0.000360805
-0.000344544
-0.000328762
-0.000313482
-0.000298723
-0.000284496
-0.00027081
-0.000257669
-0.000245071
-0.000233012
-0.000221487
-0.000210486
-0.000199997
-0.000190008
-0.000180504
-0.00017147
-0.00016289
-0.000154746
-0.000147022
-0.000503991
-0.000484067
-0.000464323
-0.000444839
-0.000425686
-0.000406926
-0.000388611
-0.000370784
-0.000353481
-0.000336732
-0.000320557
-0.000304971
-0.000289986
-0.000275604
-0.000261827
-0.000248652
-0.00023607
-0.000224071
-0.000212642
-0.000201769
-0.000191437
-0.000181628
-0.000172322
-0.000163502
-0.000155147
-0.000147238
-0.000523752
-0.000502147
-0.000480803
-0.000459803
-0.00043922
-0.000419117
-0.000399546
-0.000380549
-0.00036216
-0.000344405
-0.000327304
-0.000310868
-0.000295104
-0.000280012
-0.000265591
-0.00025183
-0.000238723
-0.000226252
-0.000214399
-0.000203149
-0.000192482
-0.000182375
-0.000172809
-0.00016376
-0.000155206
-0.000147125
-0.000543842
-0.000520437
-0.000497387
-0.000474778
-0.000452683
-0.000431165
-0.000410275
-0.000390054
-0.000370534
-0.000351738
-0.000333681
-0.000316372
-0.000299812
-0.000283999
-0.000268923
-0.000254576
-0.00024094
-0.000227999
-0.000215729
-0.00020411
-0.000193116
-0.000182725
-0.00017291
-0.000163646
-0.000154907
-0.000146668
-0.000271788
-0.000256853
-0.000242693
-0.000229286
-0.000216607
-0.000204629
-0.000193323
-0.00018266
-0.000172612
-0.000163148
-0.00015424
-0.000145859
0.000148473
0.000145353
0.000142283
0.000139261
0.000136288
0.000133363
0.000130487
0.00012766
0.000124881
0.00012215
0.000119466
0.00011683
0.000114242
0.0001117
0.000109206
0.000106757
0.000104354
0.000101997
9.96856e-05
9.74185e-05
9.51957e-05
9.30168e-05
9.08813e-05
8.87886e-05
8.67384e-05
8.47301e-05
0.000148095
0.000144975
0.000141904
0.000138883
0.00013591
0.000132986
0.000130111
0.000127285
0.000124507
0.000121777
0.000119096
0.000116462
0.000113875
0.000111336
0.000108844
0.000106398
0.000103998
0.000101644
9.93352e-05
9.70713e-05
9.48519e-05
9.26764e-05
9.05444e-05
8.84554e-05
8.6409e-05
8.44045e-05
0.000147358
0.000144238
0.000141167
0.000138146
0.000135174
0.000132252
0.000129379
0.000126554
0.000123779
0.000121053
0.000118374
0.000115744
0.000113162
0.000110627
0.00010814
0.000105699
0.000103305
0.000100956
9.86534e-05
9.63958e-05
9.41829e-05
9.20141e-05
8.98891e-05
8.78073e-05
8.57682e-05
8.37713e-05
0.000146281
0.00014316
0.000140089
0.000137069
0.000134098
0.000131178
0.000128308
0.000125487
0.000122716
0.000119994
0.00011732
0.000114696
0.00011212
0.000109592
0.000107111
0.000104678
0.000102292
9.9952e-05
9.76581e-05
9.54098e-05
9.32064e-05
9.10476e-05
8.89329e-05
8.68616e-05
8.48334e-05
8.28475e-05
0.000144878
0.000141756
0.000138686
0.000135667
0.000132698
0.000129781
0.000126914
0.000124098
0.000121332
0.000118616
0.00011595
0.000113333
0.000110765
0.000108246
0.000105775
0.000103352
0.000100976
9.86474e-05
9.63652e-05
9.41291e-05
9.19384e-05
8.97927e-05
8.76915e-05
8.56341e-05
8.36201e-05
8.16489e-05
0.000143163
0.000140041
0.000136971
0.000133953
0.000130988
0.000128074
0.000125212
0.000122402
0.000119643
0.000116935
0.000114277
0.000111669
0.000109112
0.000106604
0.000104145
0.000101734
9.93718e-05
9.7057e-05
9.47894e-05
9.25684e-05
9.03935e-05
8.82641e-05
8.61796e-05
8.41394e-05
8.21431e-05
8.01898e-05
0.000141148
0.000138025
0.000134956
0.000131941
0.000128979
0.000126071
0.000123215
0.000120412
0.000117661
0.000114962
0.000112315
0.000109719
0.000107174
0.000104679
0.000102234
9.98387e-05
9.74923e-05
9.51943e-05
9.29442e-05
9.07413e-05
8.85852e-05
8.64752e-05
8.44107e-05
8.23911e-05
8.04157e-05
7.84839e-05
0.000138842
0.00013572
0.000132653
0.000129641
0.000126683
0.000123781
0.000120932
0.000118138
0.000115397
0.000112709
0.000110075
0.000107492
0.000104962
0.000102483
0.000100055
9.76777e-05
9.535e-05
9.30716e-05
9.08419e-05
8.86602e-05
8.6526e-05
8.44387e-05
8.23974e-05
8.04016e-05
7.84507e-05
7.65438e-05
0.000136255
0.000133134
0.000130069
0.000127061
0.00012411
0.000121214
0.000118375
0.000115591
0.000112862
0.000110188
0.000107568
0.000105001
0.000102488
0.000100027
9.76191e-05
9.52621e-05
9.2956e-05
9.07002e-05
8.8494e-05
8.63367e-05
8.42277e-05
8.21662e-05
8.01515e-05
7.8183e-05
7.62599e-05
7.43815e-05
0.000133395
0.000130275
0.000127214
0.000124211
0.000121267
0.00011838
0.000115551
0.00011278
0.000110065
0.000107406
0.000104803
0.000102255
9.97614e-05
9.7322e-05
9.49359e-05
9.26024e-05
9.03209e-05
8.80908e-05
8.59112e-05
8.37815e-05
8.1701e-05
7.96688e-05
7.76842e-05
7.57464e-05
7.38546e-05
7.20082e-05
0.000130267
0.00012715
0.000124093
0.000121097
0.000118162
0.000115286
0.00011247
0.000109713
0.000107014
0.000104373
0.000101789
9.92623e-05
9.67914e-05
9.43759e-05
9.2015e-05
8.97081e-05
8.74544e-05
8.52532e-05
8.31036e-05
8.10048e-05
7.89562e-05
7.69567e-05
7.50057e-05
7.31022e-05
7.12454e-05
6.94345e-05
0.000126879
0.000123765
0.000120715
0.000117727
0.000114802
0.000111939
0.000109138
0.000106397
0.000103717
0.000101096
9.85348e-05
9.60318e-05
9.35863e-05
9.11978e-05
8.88654e-05
8.65882e-05
8.43656e-05
8.21966e-05
8.00804e-05
7.80162e-05
7.6003e-05
7.40399e-05
7.2126e-05
7.02605e-05
6.84424e-05
6.66708e-05
0.000123235
0.000120126
0.000117083
0.000114106
0.000111193
0.000108345
0.000105561
0.00010284
0.000100181
9.75833e-05
9.5047e-05
9.25708e-05
9.0154e-05
8.77957e-05
8.5495e-05
8.32511e-05
8.1063e-05
7.89299e-05
7.68508e-05
7.48246e-05
7.28506e-05
7.09276e-05
6.90547e-05
6.72309e-05
6.54553e-05
6.37268e-05
0.000119339
0.000116237
0.000113204
0.000110239
0.000107341
0.000104511
0.000101746
9.90464e-05
9.64117e-05
9.38407e-05
9.13326e-05
8.88866e-05
8.65018e-05
8.41772e-05
8.19118e-05
7.97047e-05
7.75549e-05
7.54613e-05
7.3423e-05
7.14388e-05
6.95078e-05
6.76288e-05
6.58008e-05
6.40227e-05
6.22934e-05
6.06118e-05
0.000115195
0.000112102
0.000109081
0.000106131
0.000103251
0.00010044
9.76978e-05
9.50234e-05
9.2416e-05
8.98746e-05
8.73982e-05
8.49859e-05
8.26366e-05
8.03493e-05
7.8123e-05
7.59566e-05
7.38489e-05
7.17989e-05
6.98053e-05
6.78671e-05
6.59831e-05
6.41521e-05
6.2373e-05
6.06446e-05
5.89657e-05
5.73352e-05
0.000110807
0.000107725
0.000104719
0.000101786
9.89258e-05
9.61381e-05
9.34218e-05
9.07757e-05
8.81991e-05
8.56908e-05
8.32497e-05
8.08748e-05
7.8565e-05
7.6319e-05
7.41358e-05
7.2014e-05
6.99525e-05
6.79501e-05
6.60055e-05
6.41174e-05
6.22846e-05
6.05058e-05
5.87798e-05
5.71053e-05
5.5481e-05
5.39056e-05
0.000106177
0.00010311
0.00010012
9.72075e-05
9.4371e-05
9.16097e-05
8.89225e-05
8.63083e-05
8.37662e-05
8.12948e-05
7.8893e-05
7.65596e-05
7.42932e-05
7.20927e-05
6.99568e-05
6.7884e-05
6.5873e-05
6.39225e-05
6.20312e-05
6.01976e-05
5.84204e-05
5.66982e-05
5.50296e-05
5.34132e-05
5.18478e-05
5.03318e-05
0.000101309
9.82579e-05
9.52885e-05
9.23995e-05
8.95898e-05
8.68585e-05
8.42042e-05
8.16259e-05
7.91222e-05
7.66919e-05
7.43335e-05
7.20458e-05
6.98274e-05
6.76768e-05
6.55925e-05
6.35732e-05
6.16173e-05
5.97233e-05
5.78898e-05
5.61153e-05
5.43982e-05
5.27371e-05
5.11304e-05
4.95767e-05
4.80745e-05
4.66223e-05
9.62034e-05
9.31725e-05
9.02267e-05
8.7365e-05
8.45859e-05
8.18884e-05
7.92712e-05
7.67328e-05
7.42719e-05
7.1887e-05
6.95767e-05
6.73393e-05
6.51733e-05
6.30773e-05
6.10495e-05
5.90883e-05
5.71923e-05
5.53596e-05
5.35887e-05
5.18779e-05
5.02257e-05
4.86303e-05
4.70902e-05
4.56037e-05
4.41694e-05
4.27855e-05
9.08633e-05
8.78559e-05
8.49375e-05
8.21068e-05
7.93625e-05
7.67031e-05
7.41273e-05
7.16334e-05
6.92199e-05
6.68852e-05
6.46276e-05
6.24454e-05
6.03368e-05
5.83003e-05
5.63339e-05
5.4436e-05
5.26047e-05
5.08382e-05
4.91349e-05
4.74929e-05
4.59104e-05
4.43856e-05
4.29169e-05
4.15024e-05
4.01406e-05
3.88295e-05
8.52902e-05
8.231e-05
7.94231e-05
7.66279e-05
7.39227e-05
7.13061e-05
6.87763e-05
6.63318e-05
6.39707e-05
6.16911e-05
5.94913e-05
5.73694e-05
5.53235e-05
5.33517e-05
5.1452e-05
4.96225e-05
4.78612e-05
4.61662e-05
4.45357e-05
4.29675e-05
4.14598e-05
4.00107e-05
3.86183e-05
3.72807e-05
3.59961e-05
3.47627e-05
7.94854e-05
7.65369e-05
7.36859e-05
7.09307e-05
6.82695e-05
6.57006e-05
6.3222e-05
6.0832e-05
5.85285e-05
5.63095e-05
5.4173e-05
5.21168e-05
5.0139e-05
4.82374e-05
4.64099e-05
4.46543e-05
4.29685e-05
4.13505e-05
3.9798e-05
3.8309e-05
3.68814e-05
3.55132e-05
3.42022e-05
3.29465e-05
3.17441e-05
3.05931e-05
7.34506e-05
7.05383e-05
6.77281e-05
6.50179e-05
6.24059e-05
5.98899e-05
5.7468e-05
5.5138e-05
5.28978e-05
5.0745e-05
4.86775e-05
4.66929e-05
4.47889e-05
4.29633e-05
4.12137e-05
3.95378e-05
3.79333e-05
3.63978e-05
3.4929e-05
3.35247e-05
3.21827e-05
3.09006e-05
2.96763e-05
2.85077e-05
2.73925e-05
2.63288e-05
6.71868e-05
6.43159e-05
6.15517e-05
5.8892e-05
5.63346e-05
5.38774e-05
5.15179e-05
4.92539e-05
4.70829e-05
4.50023e-05
4.30099e-05
4.11029e-05
3.92789e-05
3.75354e-05
3.58698e-05
3.42795e-05
3.27621e-05
3.1315e-05
2.99358e-05
2.86219e-05
2.7371e-05
2.61806e-05
2.50484e-05
2.39721e-05
2.29493e-05
2.19779e-05
6.06955e-05
5.78714e-05
5.51588e-05
5.25554e-05
5.00587e-05
4.76663e-05
4.53754e-05
4.31836e-05
4.10881e-05
3.90862e-05
3.71752e-05
3.53523e-05
3.36146e-05
3.19595e-05
3.03842e-05
2.88859e-05
2.74618e-05
2.61092e-05
2.48255e-05
2.3608e-05
2.2454e-05
2.13609e-05
2.03263e-05
1.93476e-05
1.84225e-05
1.75485e-05
5.39778e-05
5.12063e-05
4.85515e-05
4.60107e-05
4.3581e-05
4.12598e-05
3.90442e-05
3.69312e-05
3.4918e-05
3.30015e-05
3.11786e-05
2.94464e-05
2.78018e-05
2.62418e-05
2.47633e-05
2.33634e-05
2.20391e-05
2.07874e-05
1.96054e-05
1.84902e-05
1.7439e-05
1.64491e-05
1.55178e-05
1.46423e-05
1.382e-05
1.30486e-05
4.70349e-05
4.43224e-05
4.17318e-05
3.92602e-05
3.69044e-05
3.46613e-05
3.25279e-05
3.05009e-05
2.8577e-05
2.67529e-05
2.50253e-05
2.33909e-05
2.18463e-05
2.03883e-05
1.90136e-05
1.77189e-05
1.65009e-05
1.53565e-05
1.42826e-05
1.32761e-05
1.23338e-05
1.1453e-05
1.06306e-05
9.86385e-06
9.14998e-06
8.48631e-06
3.9868e-05
3.72213e-05
3.4702e-05
3.23066e-05
3.00319e-05
2.78744e-05
2.58306e-05
2.38969e-05
2.20698e-05
2.03455e-05
1.87206e-05
1.71913e-05
1.57541e-05
1.44053e-05
1.31414e-05
1.19589e-05
1.08542e-05
9.82389e-06
8.86463e-06
7.9731e-06
7.14604e-06
6.38029e-06
5.67274e-06
5.0204e-06
4.42033e-06
3.86969e-06
3.24784e-05
2.99048e-05
2.74641e-05
2.51527e-05
2.29667e-05
2.09024e-05
1.8956e-05
1.71236e-05
1.5401e-05
1.37845e-05
1.227e-05
1.08536e-05
9.5313e-06
8.29925e-06
7.15355e-06
6.0904e-06
5.10603e-06
4.19673e-06
3.35887e-06
2.58891e-06
1.88337e-06
1.23887e-06
6.52111e-07
1.19904e-07
-3.60855e-07
-7.93163e-07
2.48675e-05
2.23746e-05
2.00206e-05
1.78011e-05
1.5712e-05
1.37492e-05
1.19085e-05
1.01854e-05
8.57571e-06
7.07504e-06
5.67909e-06
4.38353e-06
3.1841e-06
2.07655e-06
1.0567e-06
1.20419e-07
-7.36336e-07
-1.51755e-06
-2.2271e-06
-2.8688e-06
-3.44635e-06
-3.96336e-06
-4.42331e-06
-4.8296e-06
-5.18549e-06
-5.49417e-06
1.70367e-05
1.46329e-05
1.23738e-05
1.02548e-05
8.27124e-06
6.41858e-06
4.69213e-06
3.08715e-06
1.59889e-06
2.22638e-07
-1.04632e-06
-2.21268e-06
-3.28107e-06
-4.25607e-06
-5.14221e-06
-5.94392e-06
-6.66557e-06
-7.31142e-06
-7.88562e-06
-8.39225e-06
-8.83524e-06
-9.21841e-06
-9.54548e-06
-9.82002e-06
-1.00455e-05
-1.02252e-05
8.9875e-06
6.68164e-06
4.52648e-06
2.51696e-06
6.47962e-07
-1.08547e-06
-2.68851e-06
-4.16635e-06
-5.52416e-06
-6.76709e-06
-7.90027e-06
-8.92877e-06
-9.85762e-06
-1.06918e-05
-1.14361e-05
-1.20953e-05
-1.26742e-05
-1.31772e-05
-1.36089e-05
-1.39735e-05
-1.42753e-05
-1.45182e-05
-1.47063e-05
-1.48433e-05
-1.49327e-05
-1.49782e-05
7.21711e-07
-1.47695e-06
-3.51873e-06
-5.40924e-06
-7.15408e-06
-8.75872e-06
-1.02288e-05
-1.157e-05
-1.2788e-05
-1.38883e-05
-1.48766e-05
-1.57583e-05
-1.65388e-05
-1.72235e-05
-1.78176e-05
-1.83263e-05
-1.87546e-05
-1.91072e-05
-1.93891e-05
-1.96047e-05
-1.97585e-05
-1.98547e-05
-1.98977e-05
-1.98912e-05
-1.98391e-05
-1.9745e-05
-7.75885e-06
-9.84043e-06
-1.17589e-05
-1.35203e-05
-1.51309e-05
-1.65967e-05
-1.79239e-05
-1.91186e-05
-2.01869e-05
-2.1135e-05
-2.19689e-05
-2.26945e-05
-2.33176e-05
-2.38441e-05
-2.42795e-05
-2.46293e-05
-2.4899e-05
-2.50935e-05
-2.52181e-05
-2.52776e-05
-2.52766e-05
-2.52197e-05
-2.51113e-05
-2.49556e-05
-2.47564e-05
-2.45177e-05
-1.64522e-05
-1.84062e-05
-2.01908e-05
-2.18126e-05
-2.32785e-05
-2.45949e-05
-2.57687e-05
-2.68065e-05
-2.7715e-05
-2.85009e-05
-2.91706e-05
-2.97305e-05
-3.0187e-05
-3.05462e-05
-3.08141e-05
-3.09966e-05
-3.10994e-05
-3.11281e-05
-3.10879e-05
-3.09841e-05
-3.08215e-05
-3.0605e-05
-3.03392e-05
-3.00283e-05
-2.96766e-05
-2.9288e-05
-2.5356e-05
-2.71715e-05
-2.88111e-05
-3.02822e-05
-3.15922e-05
-3.27483e-05
-3.37578e-05
-3.46281e-05
-3.53662e-05
-3.59795e-05
-3.64749e-05
-3.68593e-05
-3.71396e-05
-3.73222e-05
-3.74136e-05
-3.74202e-05
-3.7348e-05
-3.72028e-05
-3.69903e-05
-3.67159e-05
-3.6385e-05
-3.60024e-05