/*--------------------------------*- C++ -*----------------------------------*\
| =========                 |                                                 |
| \\      /  F ield         | OpenFOAM: The Open Source CFD Toolbox           |
|  \\    /   O peration     | Version:  2412                                  |
|   \\  /    A nd           | Website:  www.openfoam.com                      |
|    \\/     M anipulation  |                                                 |
\*---------------------------------------------------------------------------*/
FoamFile
{
    version     2.0;
    format      ascii;
    arch        "LSB;label=32;scalar=64";
    class       surfaceScalarField;
    location    "15.5";
    object      phi;
}
// * * * * * * * * * * * * * * * * * * * * * * * * * * * * * * * * * * * * * //

dimensions      [0 3 -1 0 0 0 0];

oriented        oriented;

internalField   nonuniform List<scalar> 
10424
(
0.00525943
-0.000115284
0.00526116
-0.000110876
0.00526285
-0.000106558
0.00526451
-0.000102329
0.00526612
-9.81875e-05
0.00526769
-9.41346e-05
0.00526921
-9.0171e-05
0.00527069
-8.62976e-05
0.00527213
-8.25151e-05
0.00527351
-7.88239e-05
0.00527485
-7.52245e-05
0.00527613
-7.17173e-05
0.00527737
-6.83026e-05
0.00527856
-6.49807e-05
0.00527969
-6.17517e-05
0.00528078
-5.86159e-05
0.00528182
-5.55732e-05
0.00528281
-5.26237e-05
0.00528375
-4.97674e-05
0.00528465
-4.70041e-05
0.00528549
-4.43336e-05
0.0052863
-4.17557e-05
0.00528706
-3.92701e-05
0.00528777
-3.68763e-05
0.00528844
-3.45738e-05
0.00528907
-3.23621e-05
0.00528966
-3.02405e-05
0.00529022
-2.82083e-05
0.00529073
-2.62648e-05
0.00529121
-2.44091e-05
-2.26403e-05
0.0052607
-0.000116958
0.00526235
-0.000112523
0.00526396
-0.000108174
0.00526554
-0.00010391
0.00526709
-9.9732e-05
0.00526859
-9.56401e-05
0.00527006
-9.16358e-05
0.00527148
-8.772e-05
0.00527286
-8.38937e-05
0.00527419
-8.01576e-05
0.00527548
-7.65125e-05
0.00527672
-7.29589e-05
0.00527792
-6.94974e-05
0.00527906
-6.61283e-05
0.00528016
-6.28521e-05
0.00528122
-5.96691e-05
0.00528222
-5.65795e-05
0.00528318
-5.35834e-05
0.0052841
-5.06809e-05
0.00528497
-4.78721e-05
0.00528579
-4.51569e-05
0.00528657
-4.25351e-05
0.0052873
-4.00064e-05
0.005288
-3.75706e-05
0.00528865
-3.52271e-05
0.00528927
-3.29756e-05
0.00528984
-3.08154e-05
0.00529038
-2.87459e-05
0.00529088
-2.67663e-05
0.00529135
-2.48758e-05
0.00529178
-2.30737e-05
0.00529218
-2.13588e-05
0.00529255
-1.97303e-05
0.00529289
-1.81871e-05
0.00529321
-1.67282e-05
0.0052935
-1.53523e-05
0.00529376
-1.40582e-05
0.005294
-1.28449e-05
0.00529422
-1.17112e-05
0.00529441
-1.06561e-05
0.00529459
-9.67869e-06
0.00529475
-8.77824e-06
0.0052949
-7.95399e-06
0.00529503
-7.20602e-06
0.00529515
-6.53343e-06
0.00529525
-5.9383e-06
0.00529535
-5.41783e-06
0.00529544
-4.98053e-06
0.00529552
-4.6145e-06
0.00529559
-4.34953e-06
0.00529567
-4.13988e-06
0.00529574
-4.08177e-06
0.00529581
-4.02245e-06
0.00529588
-4.24551e-06
0.00529596
-4.30637e-06
0.00529605
-4.95644e-06
0.00529615
-5.06416e-06
0.00529627
-6.3892e-06
0.00529639
-6.43238e-06
0.00529658
-8.76876e-06
0.00529674
-8.69163e-06
0.00529702
-1.23237e-05
0.00529724
-1.24167e-05
0.00529766
-1.71596e-05
0.00529801
-1.87685e-05
0.00529862
-2.2896e-05
0.00529923
-2.98614e-05
0.00530002
-2.90619e-05
0.00530125
-4.48297e-05
0.00530238
-4.31844e-05
-5.34153e-05
0.00526198
-0.000118546
0.00526355
-0.000114087
0.00526508
-0.000109712
0.00526659
-0.000105418
0.00526807
-0.000101208
0.00526951
-9.70808e-05
0.00527091
-9.30394e-05
0.00527228
-8.90848e-05
0.0052736
-8.52181e-05
0.00527488
-8.14404e-05
0.00527612
-7.77526e-05
0.00527732
-7.41554e-05
0.00527847
-7.06498e-05
0.00527958
-6.72362e-05
0.00528064
-6.39152e-05
0.00528166
-6.06873e-05
0.00528264
-5.75529e-05
0.00528356
-5.45123e-05
0.00528445
-5.15657e-05
0.00528529
-4.87132e-05
0.00528609
-4.5955e-05
0.00528684
-4.32908e-05
0.00528756
-4.07207e-05
0.00528823
-3.82443e-05
0.00528887
-3.58613e-05
0.00528946
-3.35713e-05
0.00529002
-3.13737e-05
0.00529054
-2.92679e-05
0.00529103
-2.72534e-05
0.00529148
-2.53292e-05
0.0052919
-2.34947e-05
0.00529229
-2.17488e-05
0.00529265
-2.00906e-05
0.00529299
-1.85191e-05
0.00529329
-1.70332e-05
0.00529357
-1.56318e-05
0.00529383
-1.43136e-05
0.00529406
-1.30776e-05
0.00529427
-1.19226e-05
0.00529446
-1.08477e-05
0.00529463
-9.8518e-06
0.00529479
-8.93432e-06
0.00529493
-8.09449e-06
0.00529506
-7.33236e-06
0.00529517
-6.64706e-06
0.00529527
-6.04071e-06
0.00529537
-5.51045e-06
0.00529545
-5.065e-06
0.00529553
-4.69215e-06
0.0052956
-4.42252e-06
0.00529567
-4.20899e-06
0.00529574
-4.15067e-06
0.00529581
-4.08993e-06
0.00529588
-4.31939e-06
0.00529595
-4.37969e-06
0.00529604
-5.04753e-06
0.00529613
-5.15168e-06
0.00529626
-6.51476e-06
0.00529637
-6.54433e-06
0.00529655
-8.95328e-06
0.00529671
-8.84295e-06
0.00529698
-1.26014e-05
0.0052972
-1.26328e-05
0.00529762
-1.75785e-05
0.00529795
-1.90998e-05
0.00529856
-2.35114e-05
0.00529916
-3.04524e-05
0.00529996
-2.9863e-05
0.00530118
-4.60532e-05
0.00530229
-4.42891e-05
-5.54281e-05
0.00526327
-0.000120047
0.00526475
-0.000115569
0.00526621
-0.000111172
0.00526765
-0.000106853
0.00526906
-0.000102614
0.00527043
-9.84564e-05
0.00527177
-9.43817e-05
0.00527308
-9.03917e-05
0.00527435
-8.6488e-05
0.00527558
-8.26718e-05
0.00527677
-7.89443e-05
0.00527793
-7.53066e-05
0.00527904
-7.17595e-05
0.0052801
-6.83039e-05
0.00528113
-6.49405e-05
0.00528211
-6.16701e-05
0.00528305
-5.84931e-05
0.00528395
-5.541e-05
0.0052848
-5.24212e-05
0.00528562
-4.9527e-05
0.00528639
-4.67274e-05
0.00528712
-4.40227e-05
0.00528781
-4.14127e-05
0.00528847
-3.88972e-05
0.00528908
-3.6476e-05
0.00528966
-3.41488e-05
0.0052902
-3.19151e-05
0.00529071
-2.97743e-05
0.00529118
-2.77259e-05
0.00529162
-2.57691e-05
0.00529203
-2.39031e-05
0.00529241
-2.2127e-05
0.00529276
-2.044e-05
0.00529308
-1.8841e-05
0.00529337
-1.7329e-05
0.00529364
-1.59027e-05
0.00529389
-1.45611e-05
0.00529412
-1.33031e-05
0.00529432
-1.21274e-05
0.00529451
-1.10331e-05
0.00529468
-1.00192e-05
0.00529483
-9.08519e-06
0.00529496
-8.23017e-06
0.00529508
-7.45426e-06
0.00529519
-6.75657e-06
0.00529529
-6.13931e-06
0.00529538
-5.59952e-06
0.00529546
-5.14617e-06
0.00529554
-4.76667e-06
0.00529561
-4.49255e-06
0.00529567
-4.27524e-06
0.00529574
-4.21679e-06
0.0052958
-4.15461e-06
0.00529587
-4.39055e-06
0.00529595
-4.45007e-06
0.00529603
-5.13581e-06
0.00529612
-5.23581e-06
0.00529624
-6.63729e-06
0.00529635
-6.652e-06
0.00529653
-9.13451e-06
0.00529667
-8.98842e-06
0.00529695
-1.28759e-05
0.00529716
-1.28401e-05
0.00529757
-1.7996e-05
0.00529789
-1.94153e-05
0.00529851
-2.41337e-05
0.00529907
-3.10141e-05
0.00529989
-3.06785e-05
0.00530111
-4.72725e-05
0.00530218
-4.53609e-05
-5.75003e-05
0.00526457
-0.000121461
0.00526597
-0.00011697
0.00526735
-0.000112555
0.00526872
-0.000108215
0.00527005
-0.000103952
0.00527136
-9.97668e-05
0.00527264
-9.56625e-05
0.00527389
-9.16407e-05
0.00527511
-8.77033e-05
0.00527629
-8.38517e-05
0.00527743
-8.00875e-05
0.00527854
-7.64119e-05
0.0052796
-7.28261e-05
0.00528063
-6.93311e-05
0.00528162
-6.59278e-05
0.00528257
-6.26171e-05
0.00528347
-5.93997e-05
0.00528434
-5.62763e-05
0.00528516
-5.32472e-05
0.00528595
-5.03131e-05
0.0052867
-4.7474e-05
0.0052874
-4.47303e-05
0.00528807
-4.2082e-05
0.00528871
-3.95289e-05
0.0052893
-3.7071e-05
0.00528986
-3.4708e-05
0.00529038
-3.24393e-05
0.00529087
-3.02647e-05
0.00529133
-2.81835e-05
0.00529176
-2.61951e-05
0.00529215
-2.42988e-05
0.00529252
-2.24935e-05
0.00529286
-2.07785e-05
0.00529317
-1.91528e-05
0.00529346
-1.76154e-05
0.00529372
-1.6165e-05
0.00529396
-1.48007e-05
0.00529418
-1.35211e-05
0.00529438
-1.23253e-05
0.00529455
-1.12122e-05
0.00529472
-1.01809e-05
0.00529486
-9.23075e-06
0.00529499
-8.36095e-06
0.00529511
-7.57165e-06
0.00529521
-6.86192e-06
0.00529531
-6.23404e-06
0.0052954
-5.68499e-06
0.00529547
-5.22396e-06
0.00529554
-4.83801e-06
0.00529561
-4.55956e-06
0.00529567
-4.33856e-06
0.00529574
-4.2801e-06
0.0052958
-4.21646e-06
0.00529587
-4.45894e-06
0.00529594
-4.51746e-06
0.00529602
-5.22122e-06
0.0052961
-5.31648e-06
0.00529622
-6.75674e-06
0.00529632
-6.7553e-06
0.0052965
-9.31236e-06
0.00529664
-9.12793e-06
0.00529691
-1.31469e-05
0.00529711
-1.30384e-05
0.00529753
-1.84118e-05
0.00529783
-1.97142e-05
0.00529846
-2.47634e-05
0.00529899
-3.15442e-05
0.00529982
-3.15101e-05
0.00530103
-4.84865e-05
0.00530206
-4.6394e-05
-5.96326e-05
0.00526587
-0.00012279
0.00526719
-0.00011829
0.0052685
-0.000113861
0.00526979
-0.000109504
0.00527106
-0.000105221
0.0052723
-0.000101012
0.00527352
-9.68817e-05
0.00527471
-9.28315e-05
0.00527587
-8.88636e-05
0.005277
-8.49799e-05
0.0052781
-8.11819e-05
0.00527915
-7.74713e-05
0.00528018
-7.38494e-05
0.00528116
-7.03175e-05
0.00528211
-6.68767e-05
0.00528302
-6.35281e-05
0.0052839
-6.02725e-05
0.00528473
-5.71107e-05
0.00528553
-5.40435e-05
0.00528629
-5.10712e-05
0.00528701
-4.81945e-05
0.00528769
-4.54135e-05
0.00528834
-4.27284e-05
0.00528895
-4.01393e-05
0.00528952
-3.76461e-05
0.00529006
-3.52485e-05
0.00529057
-3.29463e-05
0.00529104
-3.0739e-05
0.00529149
-2.86262e-05
0.0052919
-2.66072e-05
0.00529228
-2.46814e-05
0.00529264
-2.28479e-05
0.00529296
-2.11058e-05
0.00529326
-1.94543e-05
0.00529354
-1.78922e-05
0.00529379
-1.64185e-05
0.00529403
-1.50321e-05
0.00529424
-1.37317e-05
0.00529443
-1.25164e-05
0.0052946
-1.1385e-05
0.00529476
-1.03368e-05
0.0052949
-9.37093e-06
0.00529502
-8.48677e-06
0.00529513
-7.68444e-06
0.00529524
-6.96302e-06
0.00529533
-6.32484e-06
0.00529541
-5.7668e-06
0.00529548
-5.29834e-06
0.00529555
-4.90613e-06
0.00529561
-4.62351e-06
0.00529568
-4.39892e-06
0.00529574
-4.34055e-06
0.00529579
-4.27542e-06
0.00529586
-4.52453e-06
0.00529592
-4.58182e-06
0.00529601
-5.3037e-06
0.00529608
-5.39364e-06
0.0052962
-6.87302e-06
0.0052963
-6.85416e-06
0.00529647
-9.48675e-06
0.00529661
-9.26137e-06
0.00529687
-1.34143e-05
0.00529706
-1.32275e-05
0.00529748
-1.88259e-05
0.00529776
-1.9996e-05
0.0052984
-2.54014e-05
0.00529889
-3.20401e-05
0.00529974
-3.23599e-05
0.00530095
-4.96936e-05
0.00530194
-4.73817e-05
-6.18251e-05
0.00526718
-0.000124034
0.00526842
-0.000119529
0.00526965
-0.000115091
0.00527087
-0.000110721
0.00527207
-0.00010642
0.00527325
-0.000102192
0.0052744
-9.80393e-05
0.00527554
-9.39641e-05
0.00527664
-8.99689e-05
0.00527772
-8.6056e-05
0.00527876
-8.22273e-05
0.00527978
-7.84844e-05
0.00528076
-7.48292e-05
0.0052817
-7.12629e-05
0.00528261
-6.77871e-05
0.00528349
-6.44028e-05
0.00528433
-6.11111e-05
0.00528513
-5.79131e-05
0.00528589
-5.48096e-05
0.00528662
-5.18012e-05
0.00528732
-4.88885e-05
0.00528798
-4.60719e-05
0.0052886
-4.33517e-05
0.00528919
-4.0728e-05
0.00528974
-3.82009e-05
0.00529027
-3.57702e-05
0.00529075
-3.34356e-05
0.00529121
-3.11969e-05
0.00529164
-2.90536e-05
0.00529204
-2.70052e-05
0.00529241
-2.5051e-05
0.00529275
-2.31901e-05
0.00529307
-2.14219e-05
0.00529336
-1.97454e-05
0.00529362
-1.81595e-05
0.00529387
-1.66632e-05
0.00529409
-1.52553e-05
0.00529429
-1.39348e-05
0.00529448
-1.27005e-05
0.00529465
-1.15514e-05
0.0052948
-1.04867e-05
0.00529493
-9.50564e-06
0.00529505
-8.60756e-06
0.00529516
-7.7926e-06
0.00529526
-7.05983e-06
0.00529534
-6.41166e-06
0.00529542
-5.84491e-06
0.00529549
-5.36925e-06
0.00529556
-4.97097e-06
0.00529562
-4.68435e-06
0.00529567
-4.45628e-06
0.00529573
-4.3981e-06
0.00529579
-4.33147e-06
0.00529585
-4.58726e-06
0.00529591
-4.64309e-06
0.00529599
-5.38322e-06
0.00529607
-5.46724e-06
0.00529618
-6.9861e-06
0.00529627
-6.94851e-06
0.00529644
-9.65759e-06
0.00529657
-9.38865e-06
0.00529683
-1.36781e-05
0.00529701
-1.34073e-05
0.00529743
-1.92382e-05
0.00529769
-2.026e-05
0.00529834
-2.6048e-05
0.0052988
-3.24991e-05
0.00529967
-3.323e-05
0.00530087
-5.08927e-05
0.0053018
-4.83175e-05
-6.40777e-05
0.00526849
-0.000125193
0.00526965
-0.000120687
0.0052708
-0.000116244
0.00527195
-0.000111865
0.00527308
-0.000107552
0.00527419
-0.000103307
0.00527529
-9.91354e-05
0.00527637
-9.50384e-05
0.00527742
-9.10192e-05
0.00527844
-8.70801e-05
0.00527944
-8.32234e-05
0.0052804
-7.94512e-05
0.00528134
-7.57651e-05
0.00528224
-7.21671e-05
0.00528311
-6.86585e-05
0.00528395
-6.52409e-05
0.00528476
-6.19154e-05
0.00528553
-5.86832e-05
0.00528626
-5.55454e-05
0.00528696
-5.25027e-05
0.00528763
-4.95558e-05
0.00528826
-4.67054e-05
0.00528886
-4.39516e-05
0.00528943
-4.12949e-05
0.00528997
-3.87353e-05
0.00529047
-3.62728e-05
0.00529094
-3.39072e-05
0.00529138
-3.16383e-05
0.00529179
-2.94657e-05
0.00529218
-2.73888e-05
0.00529253
-2.54072e-05
0.00529286
-2.352e-05
0.00529317
-2.17266e-05
0.00529345
-2.00258e-05
0.00529371
-1.84169e-05
0.00529394
-1.68987e-05
0.00529416
-1.54702e-05
0.00529435
-1.41301e-05
0.00529453
-1.28775e-05
0.00529469
-1.17113e-05
0.00529483
-1.06306e-05
0.00529496
-9.63483e-06
0.00529508
-8.72325e-06
0.00529518
-7.89605e-06
0.00529527
-7.15229e-06
0.00529536
-6.49446e-06
0.00529543
-5.91927e-06
0.0052955
-5.43666e-06
0.00529556
-5.03251e-06
0.00529562
-4.74206e-06
0.00529567
-4.51061e-06
0.00529573
-4.45272e-06
0.00529578
-4.38456e-06
0.00529584
-4.64711e-06
0.0052959
-4.70124e-06
0.00529597
-5.45974e-06
0.00529604
-5.53722e-06
0.00529615
-7.09592e-06
0.00529624
-7.03829e-06
0.00529641
-9.82482e-06
0.00529653
-9.50969e-06
0.00529679
-1.3938e-05
0.00529696
-1.35776e-05
0.00529737
-1.96484e-05
0.00529762
-2.0506e-05
0.00529827
-2.67038e-05
0.00529869
-3.29188e-05
0.00529959
-3.41225e-05
0.00530078
-5.20821e-05
0.00530165
-4.91943e-05
-6.63897e-05
0.0052698
-0.000126269
0.00527088
-0.000121766
0.00527196
-0.000117322
0.00527303
-0.000112937
0.0052741
-0.000108615
0.00527515
-0.000104358
0.00527618
-0.00010017
0.0052772
-9.60545e-05
0.00527819
-9.20143e-05
0.00527916
-8.80521e-05
0.00528011
-8.41703e-05
0.00528103
-8.03713e-05
0.00528192
-7.66572e-05
0.00528279
-7.30298e-05
0.00528362
-6.94909e-05
0.00528442
-6.60422e-05
0.00528519
-6.26851e-05
0.00528593
-5.94208e-05
0.00528663
-5.62506e-05
0.0052873
-5.31755e-05
0.00528794
-5.01963e-05
0.00528855
-4.73136e-05
0.00528913
-4.4528e-05
0.00528967
-4.18398e-05
0.00529019
-3.92492e-05
0.00529067
-3.67563e-05
0.00529113
-3.43609e-05
0.00529155
-3.2063e-05
0.00529195
-2.98622e-05
0.00529232
-2.7758e-05
0.00529266
-2.57501e-05
0.00529298
-2.38375e-05
0.00529327
-2.20197e-05
0.00529354
-2.02957e-05
0.00529379
-1.86645e-05
0.00529401
-1.71252e-05
0.00529422
-1.56767e-05
0.00529441
-1.43177e-05
0.00529458
-1.30474e-05
0.00529473
-1.18646e-05
0.00529487
-1.07685e-05
0.00529499
-9.75844e-06
0.0052951
-8.8338e-06
0.0052952
-7.99475e-06
0.00529529
-7.24037e-06
0.00529537
-6.57319e-06
0.00529544
-5.98985e-06
0.0052955
-5.50053e-06
0.00529556
-5.09071e-06
0.00529561
-4.79661e-06
0.00529567
-4.56187e-06
0.00529572
-4.50438e-06
0.00529577
-4.43467e-06
0.00529582
-4.70404e-06
0.00529588
-4.75626e-06
0.00529595
-5.53321e-06
0.00529602
-5.60356e-06
0.00529613
-7.20243e-06
0.00529621
-7.12344e-06
0.00529637
-9.98836e-06
0.00529649
-9.62441e-06
0.00529675
-1.4194e-05
0.00529691
-1.37384e-05
0.00529731
-2.00564e-05
0.00529754
-2.07333e-05
0.00529821
-2.73692e-05
0.00529859
-3.32966e-05
0.0052995
-3.50394e-05
0.00530068
-5.32605e-05
0.00530149
-5.00052e-05
-6.876e-05
0.00527111
-0.000127262
0.00527211
-0.000122766
0.00527312
-0.000118324
0.00527412
-0.000113938
0.00527511
-0.00010961
0.0052761
-0.000105343
0.00527707
-0.000101143
0.00527803
-9.70124e-05
0.00527897
-9.29543e-05
0.00527989
-8.89718e-05
0.00528079
-8.50679e-05
0.00528166
-8.12449e-05
0.00528251
-7.75052e-05
0.00528333
-7.38509e-05
0.00528412
-7.02841e-05
0.00528489
-6.68066e-05
0.00528562
-6.34199e-05
0.00528633
-6.01257e-05
0.005287
-5.69252e-05
0.00528764
-5.38195e-05
0.00528826
-5.08097e-05
0.00528884
-4.78965e-05
0.00528939
-4.50806e-05
0.00528992
-4.23624e-05
0.00529041
-3.97423e-05
0.00529087
-3.72203e-05
0.00529131
-3.47965e-05
0.00529172
-3.24708e-05
0.0052921
-3.0243e-05
0.00529245
-2.81127e-05
0.00529278
-2.60794e-05
0.00529309
-2.41424e-05
0.00529337
-2.23011e-05
0.00529363
-2.05547e-05
0.00529386
-1.89022e-05
0.00529408
-1.73425e-05
0.00529428
-1.58747e-05
0.00529446
-1.44975e-05
0.00529462
-1.321e-05
0.00529477
-1.20112e-05
0.0052949
-1.09002e-05
0.00529502
-9.87643e-06
0.00529512
-8.93917e-06
0.00529522
-8.08868e-06
0.0052953
-7.32403e-06
0.00529538
-6.64783e-06
0.00529544
-6.05663e-06
0.0052955
-5.56086e-06
0.00529556
-5.14557e-06
0.00529561
-4.84797e-06
0.00529566
-4.61007e-06
0.00529571
-4.55308e-06
0.00529575
-4.4818e-06
0.00529581
-4.75804e-06
0.00529586
-4.80811e-06
0.00529593
-5.60363e-06
0.00529599
-5.66623e-06
0.0052961
-7.3056e-06
0.00529618
-7.20394e-06
0.00529634
-1.01482e-05
0.00529644
-9.73275e-06
0.0052967
-1.4446e-05
0.00529685
-1.38895e-05
0.00529725
-2.04619e-05
0.00529746
-2.09418e-05
0.00529814
-2.80446e-05
0.00529847
-3.36305e-05
0.00529941
-3.59824e-05
0.00530058
-5.44264e-05
0.00530132
-5.07436e-05
-7.11867e-05
0.00527242
-0.000128172
0.00527334
-0.000123687
0.00527427
-0.000119252
0.0052752
-0.000114867
0.00527613
-0.000110537
0.00527705
-0.000106265
0.00527796
-0.000102055
0.00527886
-9.79122e-05
0.00527975
-9.38392e-05
0.00528061
-8.98395e-05
0.00528146
-8.5916e-05
0.00528229
-8.20717e-05
0.00528309
-7.8309e-05
0.00528387
-7.46304e-05
0.00528463
-7.1038e-05
0.00528535
-6.75339e-05
0.00528605
-6.41199e-05
0.00528673
-6.07977e-05
0.00528737
-5.75688e-05
0.00528798
-5.44344e-05
0.00528857
-5.13958e-05
0.00528913
-4.84538e-05
0.00528966
-4.56093e-05
0.00529016
-4.28627e-05
0.00529063
-4.02144e-05
0.00529107
-3.76648e-05
0.00529149
-3.52139e-05
0.00529188
-3.28617e-05
0.00529225
-3.0608e-05
0.00529259
-2.84526e-05
0.0052929
-2.6395e-05
0.00529319
-2.44346e-05
0.00529346
-2.25709e-05
0.00529371
-2.08029e-05
0.00529394
-1.91298e-05
0.00529415
-1.75505e-05
0.00529434
-1.60641e-05
0.00529451
-1.46695e-05
0.00529466
-1.33655e-05
0.0052948
-1.21512e-05
0.00529493
-1.10258e-05
0.00529504
-9.98876e-06
0.00529514
-9.03933e-06
0.00529523
-8.17781e-06
0.00529531
-7.40326e-06
0.00529538
-6.71837e-06
0.00529544
-6.1196e-06
0.0052955
-5.61762e-06
0.00529555
-5.19706e-06
0.0052956
-4.89616e-06
0.00529565
-4.65518e-06
0.00529569
-4.5988e-06
0.00529574
-4.52592e-06
0.00529579
-4.80911e-06
0.00529584
-4.85679e-06
0.0052959
-5.67097e-06
0.00529596
-5.72521e-06
0.00529606
-7.4054e-06
0.00529614
-7.27974e-06
0.00529629
-1.03042e-05
0.0052964
-9.83467e-06
0.00529664
-1.46938e-05
0.00529678
-1.4031e-05
0.00529719
-2.08647e-05
0.00529738
-2.11311e-05
0.00529806
-2.87299e-05
0.00529835
-3.39187e-05
0.00529932
-3.6953e-05
0.00530047
-5.55783e-05
0.00530113
-5.14035e-05
-7.36671e-05
0.00527373
-0.000129002
0.00527457
-0.000124531
0.00527542
-0.000120106
0.00527628
-0.000115726
0.00527714
-0.000111397
0.005278
-0.000107122
0.00527885
-0.000102906
0.00527969
-9.87543e-05
0.00528052
-9.46693e-05
0.00528134
-9.0655e-05
0.00528214
-8.67149e-05
0.00528292
-8.28518e-05
0.00528368
-7.90687e-05
0.00528441
-7.53681e-05
0.00528513
-7.17525e-05
0.00528582
-6.8224e-05
0.00528648
-6.47849e-05
0.00528712
-6.14367e-05
0.00528774
-5.81814e-05
0.00528832
-5.50203e-05
0.00528888
-5.19546e-05
0.00528941
-4.89855e-05
0.00528992
-4.61139e-05
0.00529039
-4.33404e-05
0.00529085
-4.06656e-05
0.00529127
-3.80897e-05
0.00529167
-3.56129e-05
0.00529204
-3.32355e-05
0.00529239
-3.09571e-05
0.00529272
-2.87777e-05
0.00529302
-2.66969e-05
0.0052933
-2.47142e-05
0.00529356
-2.28288e-05
0.00529379
-2.10401e-05
0.00529401
-1.93473e-05
0.00529421
-1.77492e-05
0.00529439
-1.6245e-05
0.00529456
-1.48335e-05
0.0052947
-1.35136e-05
0.00529484
-1.22845e-05
0.00529496
-1.11453e-05
0.00529506
-1.00954e-05
0.00529516
-9.13427e-06
0.00529524
-8.26213e-06
0.00529532
-7.47806e-06
0.00529538
-6.78481e-06
0.00529544
-6.17875e-06
0.0052955
-5.67082e-06
0.00529554
-5.24521e-06
0.00529559
-4.94116e-06
0.00529563
-4.69722e-06
0.00529567
-4.64155e-06
0.00529571
-4.56706e-06
0.00529576
-4.85723e-06
0.00529581
-4.90231e-06
0.00529587
-5.73522e-06
0.00529593
-5.78049e-06
0.00529602
-7.50182e-06
0.0052961
-7.35083e-06
0.00529625
-1.04563e-05
0.00529634
-9.93014e-06
0.00529659
-1.49373e-05
0.00529672
-1.41628e-05
0.00529712
-2.12646e-05
0.00529729
-2.13013e-05
0.00529798
-2.9425e-05
0.00529822
-3.41597e-05
0.00529922
-3.79517e-05
0.00530036
-5.67149e-05
0.00530094
-5.19797e-05
-7.61977e-05
0.00527502
-0.000129751
0.00527579
-0.000125299
0.00527657
-0.000120886
0.00527736
-0.000116515
0.00527815
-0.00011219
0.00527895
-0.000107916
0.00527974
-0.000103697
0.00528052
-9.95386e-05
0.0052813
-9.54445e-05
0.00528206
-9.14186e-05
0.00528281
-8.74644e-05
0.00528354
-8.35852e-05
0.00528426
-7.97841e-05
0.00528495
-7.6064e-05
0.00528563
-7.24275e-05
0.00528628
-6.88769e-05
0.00528691
-6.54147e-05
0.00528752
-6.20427e-05
0.0052881
-5.87629e-05
0.00528866
-5.55768e-05
0.00528919
-5.2486e-05
0.00528969
-4.94915e-05
0.00529017
-4.65944e-05
0.00529063
-4.37956e-05
0.00529106
-4.10956e-05
0.00529146
-3.84948e-05
0.00529184
-3.59936e-05
0.0052922
-3.35921e-05
0.00529253
-3.12903e-05
0.00529284
-2.9088e-05
0.00529313
-2.69851e-05
0.0052934
-2.49809e-05
0.00529365
-2.30749e-05
0.00529387
-2.12665e-05
0.00529408
-1.95547e-05
0.00529427
-1.79386e-05
0.00529444
-1.64173e-05
0.0052946
-1.49896e-05
0.00529474
-1.36545e-05
0.00529486
-1.24111e-05
0.00529498
-1.12586e-05
0.00529508
-1.01964e-05
0.00529517
-9.224e-06
0.00529525
-8.34165e-06
0.00529532
-7.54844e-06
0.00529538
-6.84717e-06
0.00529544
-6.23412e-06
0.00529549
-5.72049e-06
0.00529553
-5.29003e-06
0.00529557
-4.983e-06
0.00529561
-4.73622e-06
0.00529565
-4.68135e-06
0.00529569
-4.60523e-06
0.00529573
-4.90245e-06
0.00529578
-4.94468e-06
0.00529584
-5.79642e-06
0.00529589
-5.8321e-06
0.00529598
-7.59487e-06
0.00529605
-7.4172e-06
0.0052962
-1.06046e-05
0.00529629
-1.00192e-05
0.00529653
-1.51764e-05
0.00529665
-1.42849e-05
0.00529704
-2.16611e-05
0.0052972
-2.14524e-05
0.0052979
-3.01293e-05
0.00529809
-3.4353e-05
0.00529912
-3.89788e-05
0.00530024
-5.78349e-05
0.00530073
-5.24686e-05
-7.8774e-05
0.00527631
-0.000130422
0.005277
-0.00012599
0.00527771
-0.000121594
0.00527843
-0.000117234
0.00527916
-0.000112917
0.00527989
-0.000108646
0.00528062
-0.000104427
0.00528134
-0.000100266
0.00528207
-9.61652e-05
0.00528278
-9.21303e-05
0.00528348
-8.81647e-05
0.00528416
-8.4272e-05
0.00528484
-8.04554e-05
0.00528549
-7.67182e-05
0.00528613
-7.3063e-05
0.00528674
-6.94926e-05
0.00528734
-6.60094e-05
0.00528791
-6.26156e-05
0.00528846
-5.93132e-05
0.00528899
-5.61041e-05
0.00528949
-5.29898e-05
0.00528997
-4.99716e-05
0.00529043
-4.70508e-05
0.00529086
-4.42281e-05
0.00529127
-4.15044e-05
0.00529165
-3.88802e-05
0.00529202
-3.63558e-05
0.00529235
-3.39315e-05
0.00529267
-3.16074e-05
0.00529297
-2.93834e-05
0.00529324
-2.72594e-05
0.0052935
-2.52348e-05
0.00529373
-2.33092e-05
0.00529395
-2.14818e-05
0.00529414
-1.9752e-05
0.00529432
-1.81187e-05
0.00529449
-1.6581e-05
0.00529463
-1.51378e-05
0.00529477
-1.37881e-05
0.00529489
-1.2531e-05
0.005295
-1.13657e-05
0.00529509
-1.02918e-05
0.00529517
-9.30855e-06
0.00529525
-8.41641e-06
0.00529532
-7.61442e-06
0.00529537
-6.90547e-06
0.00529543
-6.28572e-06
0.00529547
-5.76666e-06
0.00529551
-5.33155e-06
0.00529555
-5.02173e-06
0.00529559
-4.7722e-06
0.00529562
-4.71824e-06
0.00529566
-4.64047e-06
0.0052957
-4.94478e-06
0.00529574
-4.98393e-06
0.0052958
-5.85458e-06
0.00529585
-5.88005e-06
0.00529594
-7.68456e-06
0.005296
-7.47889e-06
0.00529614
-1.07491e-05
0.00529623
-1.01017e-05
0.00529646
-1.5411e-05
0.00529657
-1.43975e-05
0.00529697
-2.20539e-05
0.0052971
-2.15848e-05
0.00529781
-3.0842e-05
0.00529796
-3.44988e-05
0.00529901
-4.00332e-05
0.00530011
-5.89371e-05
0.00530051
-5.28681e-05
-8.13905e-05
0.00527759
-0.000131014
0.00527821
-0.000126607
0.00527884
-0.000122229
0.00527949
-0.000117885
0.00528016
-0.000113578
0.00528082
-0.000109313
0.00528149
-0.000105098
0.00528216
-0.000100935
0.00528283
-9.68316e-05
0.00528349
-9.27904e-05
0.00528414
-8.8816e-05
0.00528478
-8.49123e-05
0.00528541
-8.10827e-05
0.00528602
-7.73306e-05
0.00528662
-7.36591e-05
0.0052872
-7.0071e-05
0.00528775
-6.6569e-05
0.00528829
-6.31554e-05
0.00528881
-5.98324e-05
0.00528931
-5.66021e-05
0.00528979
-5.34661e-05
0.00529024
-5.04259e-05
0.00529067
-4.74829e-05
0.00529108
-4.4638e-05
0.00529147
-4.18921e-05
0.00529184
-3.92458e-05
0.00529218
-3.66995e-05
0.0052925
-3.42537e-05
0.0052928
-3.19085e-05
0.00529308
-2.9664e-05
0.00529335
-2.75199e-05
0.00529359
-2.54759e-05
0.00529381
-2.35316e-05
0.00529401
-2.16862e-05
0.0052942
-1.99391e-05
0.00529437
-1.82894e-05
0.00529453
-1.67361e-05
0.00529467
-1.52781e-05
0.00529479
-1.39145e-05
0.00529491
-1.26443e-05
0.00529501
-1.14668e-05
0.0052951
-1.03815e-05
0.00529518
-9.38795e-06
0.00529525
-8.48645e-06
0.00529531
-7.67607e-06
0.00529536
-6.95977e-06
0.00529541
-6.33362e-06
0.00529545
-5.80938e-06
0.00529549
-5.36983e-06
0.00529553
-5.05739e-06
0.00529556
-4.80523e-06
0.00529559
-4.75227e-06
0.00529563
-4.67283e-06
0.00529567
-4.98427e-06
0.0052957
-5.02013e-06
0.00529576
-5.90974e-06
0.0052958
-5.9244e-06
0.00529589
-7.77092e-06
0.00529595
-7.53592e-06
0.00529609
-1.08897e-05
0.00529616
-1.01779e-05
0.00529639
-1.56411e-05
0.0052965
-1.45007e-05
0.00529688
-2.24427e-05
0.005297
-2.1699e-05
0.00529772
-3.15618e-05
0.00529782
-3.45981e-05
0.0052989
-4.1113e-05
0.00529998
-6.00204e-05
0.00530029
-5.3178e-05
-8.40404e-05
0.00527886
-0.000131529
0.0052794
-0.000127149
0.00527997
-0.000122794
0.00528055
-0.000118467
0.00528115
-0.000114173
0.00528175
-0.000109919
0.00528236
-0.000105708
0.00528297
-0.000101548
0.00528359
-9.74438e-05
0.0052842
-9.3399e-05
0.0052848
-8.94185e-05
0.00528539
-8.55062e-05
0.00528598
-8.1666e-05
0.00528655
-7.79014e-05
0.0052871
-7.42158e-05
0.00528764
-7.06122e-05
0.00528817
-6.70934e-05
0.00528868
-6.3662e-05
0.00528916
-6.03204e-05
0.00528963
-5.70707e-05
0.00529008
-5.39148e-05
0.00529051
-5.08544e-05
0.00529092
-4.78908e-05
0.0052913
-4.50252e-05
0.00529167
-4.22585e-05
0.00529202
-3.95915e-05
0.00529234
-3.70248e-05
0.00529265
-3.45588e-05
0.00529293
-3.21937e-05
0.0052932
-2.99296e-05
0.00529344
-2.77666e-05
0.00529367
-2.57042e-05
0.00529388
-2.37421e-05
0.00529408
-2.18797e-05
0.00529425
-2.01162e-05
0.00529441
-1.84509e-05
0.00529456
-1.68827e-05
0.00529469
-1.54106e-05
0.00529481
-1.40336e-05
0.00529492
-1.27509e-05
0.00529501
-1.15618e-05
0.0052951
-1.04657e-05
0.00529517
-9.46228e-06
0.00529524
-8.55183e-06
0.0052953
-7.73344e-06
0.00529535
-7.01014e-06
0.00529539
-6.37789e-06
0.00529543
-5.84872e-06
0.00529547
-5.40494e-06
0.0052955
-5.09005e-06
0.00529553
-4.83537e-06
0.00529556
-4.78351e-06
0.00529559
-4.70238e-06
0.00529563
-5.021e-06
0.00529566
-5.05333e-06
0.00529571
-5.96198e-06
0.00529575
-5.9652e-06
0.00529583
-7.85401e-06
0.00529589
-7.58834e-06
0.00529602
-1.10265e-05
0.00529609
-1.02478e-05
0.00529632
-1.58665e-05
0.00529641
-1.45946e-05
0.0052968
-2.28268e-05
0.00529689
-2.17956e-05
0.00529762
-3.22867e-05
0.00529767
-3.4653e-05
0.00529878
-4.2215e-05
0.00529984
-6.10839e-05
0.00530006
-5.34006e-05
-8.67158e-05
0.00528012
-0.000131968
0.00528059
-0.000127618
0.00528108
-0.000123288
0.0052816
-0.000118982
0.00528213
-0.000114704
0.00528267
-0.000110462
0.00528322
-0.00010626
0.00528378
-0.000102105
0.00528434
-9.80023e-05
0.00528489
-9.39565e-05
0.00528545
-8.99722e-05
0.005286
-8.60539e-05
0.00528654
-8.22055e-05
0.00528706
-7.84307e-05
0.00528758
-7.47333e-05
0.00528809
-7.11163e-05
0.00528858
-6.75828e-05
0.00528905
-6.41356e-05
0.00528951
-6.07773e-05
0.00528995
-5.75101e-05
0.00529037
-5.43361e-05
0.00529077
-5.1257e-05
0.00529115
-4.82745e-05
0.00529152
-4.53897e-05
0.00529186
-4.26038e-05
0.00529219
-3.99175e-05
0.0052925
-3.73316e-05
0.00529278
-3.48466e-05
0.00529305
-3.24628e-05
0.0052933
-3.01805e-05
0.00529354
-2.79995e-05
0.00529375
-2.59198e-05
0.00529395
-2.39409e-05
0.00529413
-2.20623e-05
0.0052943
-2.02833e-05
0.00529445
-1.86031e-05
0.00529459
-1.70208e-05
0.00529472
-1.55353e-05
0.00529483
-1.41457e-05
0.00529493
-1.28511e-05
0.00529502
-1.16508e-05
0.0052951
-1.05445e-05
0.00529517
-9.53162e-06
0.00529523
-8.61264e-06
0.00529528
-7.78662e-06
0.00529533
-7.05666e-06
0.00529537
-6.41861e-06
0.0052954
-5.88477e-06
0.00529543
-5.43697e-06
0.00529546
-5.1198e-06
0.00529549
-4.86271e-06
0.00529552
-4.81204e-06
0.00529555
-4.72921e-06
0.00529558
-5.05504e-06
0.00529561
-5.08361e-06
0.00529566
-6.01136e-06
0.0052957
-6.00253e-06
0.00529578
-7.93389e-06
0.00529583
-7.63623e-06
0.00529596
-1.11595e-05
0.00529602
-1.03113e-05
0.00529624
-1.60873e-05
0.00529633
-1.46794e-05
0.00529671
-2.32059e-05
0.00529679
-2.18758e-05
0.00529752
-3.30148e-05
0.00529753
-3.46666e-05
0.00529865
-4.33346e-05
0.00529969
-6.21269e-05
0.00529983
-5.35403e-05
-8.94078e-05
0.00528136
-0.000132332
0.00528176
-0.000128015
0.00528218
-0.000123713
0.00528263
-0.00011943
0.0052831
-0.000115171
0.00528358
-0.000110943
0.00528407
-0.000106753
0.00528457
-0.000102606
0.00528508
-9.85074e-05
0.00528559
-9.44631e-05
0.00528609
-9.04776e-05
0.00528659
-8.65556e-05
0.00528709
-8.27013e-05
0.00528758
-7.89187e-05
0.00528806
-7.52116e-05
0.00528852
-7.15834e-05
0.00528898
-6.80373e-05
0.00528942
-6.45763e-05
0.00528984
-6.12031e-05
0.00529025
-5.79202e-05
0.00529065
-5.47299e-05
0.00529102
-5.16339e-05
0.00529138
-4.86341e-05
0.00529173
-4.57317e-05
0.00529205
-4.2928e-05
0.00529236
-4.02238e-05
0.00529264
-3.76201e-05
0.00529292
-3.51173e-05
0.00529317
-3.2716e-05
0.0052934
-3.04165e-05
0.00529362
-2.82188e-05
0.00529383
-2.61227e-05
0.00529401
-2.4128e-05
0.00529419
-2.22341e-05
0.00529434
-2.04405e-05
0.00529449
-1.87462e-05
0.00529462
-1.71505e-05
0.00529473
-1.56523e-05
0.00529484
-1.42507e-05
0.00529493
-1.29448e-05
0.00529501
-1.1734e-05
0.00529509
-1.06179e-05
0.00529515
-9.59606e-06
0.00529521
-8.66899e-06
0.00529526
-7.83573e-06
0.0052953
-7.09944e-06
0.00529534
-6.45589e-06
0.00529537
-5.91763e-06
0.0052954
-5.46603e-06
0.00529543
-5.14675e-06
0.00529545
-4.88736e-06
0.00529548
-4.83798e-06
0.0052955
-4.75341e-06
0.00529553
-5.08649e-06
0.00529556
-5.11108e-06
0.00529561
-6.05798e-06
0.00529564
-6.03649e-06
0.00529572
-8.01066e-06
0.00529576
-7.67966e-06
0.00529589
-1.12888e-05
0.00529595
-1.03687e-05
0.00529616
-1.63033e-05
0.00529624
-1.47554e-05