/*--------------------------------*- C++ -*----------------------------------*\
| =========                 |                                                 |
| \\      /  F ield         | OpenFOAM: The Open Source CFD Toolbox           |
|  \\    /   O peration     | Version:  2412                                  |
|   \\  /    A nd           | Website:  www.openfoam.com                      |
|    \\/     M anipulation  |                                                 |
\*---------------------------------------------------------------------------*/
FoamFile
{
    version     2.0;
    format      ascii;
    arch        "LSB;label=32;scalar=64";
    class       volVectorField;
    location    "15.5";
    object      U;
}
// * * * * * * * * * * * * * * * * * * * * * * * * * * * * * * * * * * * * * //

dimensions      [0 1 -1 0 0 0 0];

internalField   nonuniform List<vector> 
5285
(
(0.0993514 -0.00095213 0)
(0.0993844 -0.000897626 0)
(0.0994167 -0.000845627 0)
(0.0994484 -0.000796025 0)
(0.0994792 -0.000748728 0)
(0.0995093 -0.000703656 0)
(0.0995386 -0.00066073 0)
(0.0995669 -0.000619875 0)
(0.0995945 -0.000581019 0)
(0.0996211 -0.000544087 0)
(0.0996468 -0.00050901 0)
(0.0996715 -0.000475718 0)
(0.0996953 -0.000444144 0)
(0.0997182 -0.000414223 0)
(0.0997402 -0.000385891 0)
(0.0997612 -0.000359086 0)
(0.0997813 -0.000333748 0)
(0.0998004 -0.000309818 0)
(0.0998187 -0.000287239 0)
(0.099836 -0.000265956 0)
(0.0998525 -0.000245915 0)
(0.0998681 -0.000227064 0)
(0.0998828 -0.000209351 0)
(0.0998967 -0.000192727 0)
(0.0999098 -0.000177144 0)
(0.0999221 -0.000162556 0)
(0.0999336 -0.000148917 0)
(0.0999444 -0.000136183 0)
(0.0999545 -0.000124311 0)
(0.0999639 -0.000113261 0)
(0.0999726 -0.000102993 0)
(0.0993762 -0.000966427 0)
(0.0994076 -0.000911393 0)
(0.0994384 -0.000858856 0)
(0.0994686 -0.00080871 0)
(0.0994982 -0.000760866 0)
(0.099527 -0.000715247 0)
(0.099555 -0.000671778 0)
(0.0995823 -0.000630387 0)
(0.0996088 -0.000591002 0)
(0.0996344 -0.000553551 0)
(0.0996592 -0.000517966 0)
(0.0996831 -0.000484178 0)
(0.0997061 -0.000452122 0)
(0.0997282 -0.000421733 0)
(0.0997494 -0.000392948 0)
(0.0997698 -0.000365706 0)
(0.0997892 -0.000339947 0)
(0.0998078 -0.000315612 0)
(0.0998255 -0.000292645 0)
(0.0998423 -0.000270991 0)
(0.0998583 -0.000250596 0)
(0.0998734 -0.000231407 0)
(0.0998877 -0.000213373 0)
(0.0999012 -0.000196445 0)
(0.0999139 -0.000180574 0)
(0.0999259 -0.000165713 0)
(0.0999371 -0.000151816 0)
(0.0999476 -0.000138841 0)
(0.0999574 -0.000126742 0)
(0.0999666 -0.000115479 0)
(0.0999751 -0.000105012 0)
(0.0999829 -9.53004e-05 0)
(0.0999902 -8.63079e-05 0)
(0.0999969 -7.79978e-05 0)
(0.100003 -7.03347e-05 0)
(0.100009 -6.32847e-05 0)
(0.100014 -5.68152e-05 0)
(0.100019 -5.0895e-05 0)
(0.100023 -4.54945e-05 0)
(0.100027 -4.05855e-05 0)
(0.100031 -3.61416e-05 0)
(0.100034 -3.2138e-05 0)
(0.100037 -2.8551e-05 0)
(0.100039 -2.53605e-05 0)
(0.100042 -2.25441e-05 0)
(0.100044 -2.00902e-05 0)
(0.100046 -1.79713e-05 0)
(0.100047 -1.61978e-05 0)
(0.100049 -1.47141e-05 0)
(0.10005 -1.35975e-05 0)
(0.100052 -1.26889e-05 0)
(0.100053 -1.22644e-05 0)
(0.100055 -1.18497e-05 0)
(0.100054 -1.22578e-05 0)
(0.100059 -1.21919e-05 0)
(0.100056 -1.37482e-05 0)
(0.100065 -1.37788e-05 0)
(0.100056 -1.70237e-05 0)
(0.100074 -1.68209e-05 0)
(0.100056 -2.24414e-05 0)
(0.100086 -2.18462e-05 0)
(0.100057 -3.02926e-05 0)
(0.100101 -2.99969e-05 0)
(0.100061 -4.05049e-05 0)
(0.100121 -4.35743e-05 0)
(0.100071 -5.18871e-05 0)
(0.100145 -6.65627e-05 0)
(0.100095 -6.32834e-05 0)
(0.100174 -9.57042e-05 0)
(0.100143 -9.04483e-05 0)
(0.100216 -0.00010906 0)
(0.0994012 -0.000979996 0)
(0.099431 -0.00092449 0)
(0.0994603 -0.000871465 0)
(0.0994891 -0.00082082 0)
(0.0995173 -0.000772473 0)
(0.0995449 -0.000726349 0)
(0.0995717 -0.000682375 0)
(0.0995979 -0.000640482 0)
(0.0996233 -0.0006006 0)
(0.0996479 -0.00056266 0)
(0.0996718 -0.000526594 0)
(0.0996948 -0.000492336 0)
(0.099717 -0.000459822 0)
(0.0997383 -0.000428987 0)
(0.0997588 -0.00039977 0)
(0.0997785 -0.000372109 0)
(0.0997973 -0.000345947 0)
(0.0998152 -0.000321224 0)
(0.0998324 -0.000297884 0)
(0.0998487 -0.000275872 0)
(0.0998641 -0.000255135 0)
(0.0998788 -0.000235621 0)
(0.0998927 -0.000217277 0)
(0.0999058 -0.000200054 0)
(0.0999181 -0.000183904 0)
(0.0999298 -0.000168779 0)
(0.0999406 -0.000154634 0)
(0.0999508 -0.000141423 0)
(0.0999604 -0.000129104 0)
(0.0999692 -0.000117635 0)
(0.0999775 -0.000106975 0)
(0.0999851 -9.70828e-05 0)
(0.0999922 -8.79223e-05 0)
(0.0999988 -7.94562e-05 0)
(0.100005 -7.16486e-05 0)
(0.10001 -6.44652e-05 0)
(0.100015 -5.78729e-05 0)
(0.10002 -5.184e-05 0)
(0.100024 -4.63364e-05 0)
(0.100028 -4.13336e-05 0)
(0.100031 -3.68045e-05 0)
(0.100034 -3.27243e-05 0)
(0.100037 -2.90685e-05 0)
(0.10004 -2.5817e-05 0)
(0.100042 -2.29468e-05 0)
(0.100044 -2.04462e-05 0)
(0.100046 -1.82871e-05 0)
(0.100047 -1.64803e-05 0)
(0.100049 -1.49688e-05 0)
(0.10005 -1.38323e-05 0)
(0.100052 -1.29069e-05 0)
(0.100053 -1.24773e-05 0)
(0.100055 -1.20543e-05 0)
(0.100054 -1.2477e-05 0)
(0.100059 -1.24055e-05 0)
(0.100056 -1.40072e-05 0)
(0.100065 -1.40237e-05 0)
(0.100056 -1.73656e-05 0)
(0.100073 -1.71219e-05 0)
(0.100056 -2.29229e-05 0)
(0.100085 -2.22373e-05 0)
(0.100056 -3.09871e-05 0)
(0.100101 -3.05344e-05 0)
(0.10006 -4.15078e-05 0)
(0.10012 -4.43689e-05 0)
(0.10007 -5.32929e-05 0)
(0.100145 -6.79249e-05 0)
(0.100093 -6.50372e-05 0)
(0.100174 -9.83561e-05 0)
(0.10014 -9.28245e-05 0)
(0.100215 -0.000113186 0)
(0.0994264 -0.000992846 0)
(0.0994546 -0.000936918 0)
(0.0994824 -0.000883455 0)
(0.0995098 -0.000832359 0)
(0.0995366 -0.000783552 0)
(0.0995629 -0.000736962 0)
(0.0995886 -0.000692521 0)
(0.0996136 -0.00065016 0)
(0.099638 -0.000609813 0)
(0.0996616 -0.000571414 0)
(0.0996845 -0.000534895 0)
(0.0997066 -0.000500193 0)
(0.099728 -0.000467244 0)
(0.0997485 -0.000435985 0)
(0.0997683 -0.000406356 0)
(0.0997873 -0.000378296 0)
(0.0998054 -0.000351747 0)
(0.0998228 -0.000326652 0)
(0.0998394 -0.000302954 0)
(0.0998551 -0.000280599 0)
(0.0998701 -0.000259534 0)
(0.0998843 -0.000239705 0)
(0.0998977 -0.000221062 0)
(0.0999104 -0.000203555 0)
(0.0999224 -0.000187135 0)
(0.0999337 -0.000171755 0)
(0.0999442 -0.000157368 0)
(0.0999541 -0.000143931 0)
(0.0999634 -0.000131398 0)
(0.099972 -0.000119728 0)
(0.09998 -0.00010888 0)
(0.0999874 -9.88127e-05 0)
(0.0999943 -8.94891e-05 0)
(0.100001 -8.08715e-05 0)
(0.100006 -7.29235e-05 0)
(0.100012 -6.56104e-05 0)
(0.100017 -5.88986e-05 0)
(0.100021 -5.27561e-05 0)
(0.100025 -4.71522e-05 0)
(0.100029 -4.20581e-05 0)
(0.100032 -3.74462e-05 0)
(0.100035 -3.32913e-05 0)
(0.100038 -2.95687e-05 0)
(0.10004 -2.62578e-05 0)
(0.100042 -2.33353e-05 0)
(0.100044 -2.07893e-05 0)
(0.100046 -1.85911e-05 0)
(0.100048 -1.67521e-05 0)
(0.100049 -1.52136e-05 0)
(0.10005 -1.40578e-05 0)
(0.100052 -1.31162e-05 0)
(0.100053 -1.26819e-05 0)
(0.100055 -1.22507e-05 0)
(0.100054 -1.26883e-05 0)
(0.100059 -1.26107e-05 0)
(0.100055 -1.42583e-05 0)
(0.100064 -1.42594e-05 0)
(0.100056 -1.76995e-05 0)
(0.100073 -1.74117e-05 0)
(0.100055 -2.3396e-05 0)
(0.100084 -2.26137e-05 0)
(0.100056 -3.16736e-05 0)
(0.1001 -3.10506e-05 0)
(0.100059 -4.25072e-05 0)
(0.10012 -4.5127e-05 0)
(0.100068 -5.4714e-05 0)
(0.100144 -6.92242e-05 0)
(0.10009 -6.68207e-05 0)
(0.100174 -0.000101 0)
(0.100137 -9.51368e-05 0)
(0.100214 -0.000117435 0)
(0.0994517 -0.00100497 0)
(0.0994783 -0.000948677 0)
(0.0995046 -0.000894825 0)
(0.0995306 -0.000843324 0)
(0.0995561 -0.0007941 0)
(0.0995811 -0.000747084 0)
(0.0996056 -0.000702211 0)
(0.0996295 -0.000659417 0)
(0.0996528 -0.000618638 0)
(0.0996754 -0.000579808 0)
(0.0996974 -0.000542864 0)
(0.0997186 -0.000507744 0)
(0.0997391 -0.000474383 0)
(0.0997589 -0.000442723 0)
(0.0997779 -0.000412702 0)
(0.0997962 -0.000384262 0)
(0.0998137 -0.000357344 0)
(0.0998304 -0.000331893 0)
(0.0998464 -0.000307853 0)
(0.0998616 -0.000285168 0)
(0.0998761 -0.000263787 0)
(0.0998899 -0.000243656 0)
(0.0999029 -0.000224725 0)
(0.0999151 -0.000206944 0)
(0.0999267 -0.000190264 0)
(0.0999376 -0.000174638 0)
(0.0999478 -0.000160018 0)
(0.0999574 -0.00014636 0)
(0.0999664 -0.000133621 0)
(0.0999747 -0.000121757 0)
(0.0999825 -0.000110727 0)
(0.0999897 -0.00010049 0)
(0.0999963 -9.10081e-05 0)
(0.100002 -8.22433e-05 0)
(0.100008 -7.41591e-05 0)
(0.100013 -6.672e-05 0)
(0.100018 -5.98922e-05 0)
(0.100022 -5.36431e-05 0)
(0.100026 -4.79418e-05 0)
(0.10003 -4.27589e-05 0)
(0.100033 -3.80665e-05 0)
(0.100036 -3.3839e-05 0)
(0.100038 -3.00514e-05 0)
(0.100041 -2.66828e-05 0)
(0.100043 -2.37094e-05 0)
(0.100045 -2.11193e-05 0)
(0.100047 -1.88832e-05 0)
(0.100048 -1.70129e-05 0)
(0.10005 -1.54482e-05 0)
(0.100051 -1.42739e-05 0)
(0.100052 -1.33165e-05 0)
(0.100053 -1.28781e-05 0)
(0.100055 -1.24387e-05 0)
(0.100054 -1.28916e-05 0)
(0.100059 -1.28075e-05 0)
(0.100055 -1.45015e-05 0)
(0.100064 -1.44856e-05 0)
(0.100055 -1.80251e-05 0)
(0.100072 -1.769e-05 0)
(0.100055 -2.38605e-05 0)
(0.100084 -2.29751e-05 0)
(0.100055 -3.23517e-05 0)
(0.100099 -3.1545e-05 0)
(0.100058 -4.35029e-05 0)
(0.100119 -4.58469e-05 0)
(0.100067 -5.61515e-05 0)
(0.100144 -7.04549e-05 0)
(0.100087 -6.86377e-05 0)
(0.100174 -0.000103634 0)
(0.100134 -9.73733e-05 0)
(0.100213 -0.000121808 0)
(0.0994771 -0.00101639 0)
(0.0995021 -0.000959772 0)
(0.099527 -0.000905579 0)
(0.0995515 -0.000853718 0)
(0.0995757 -0.000804118 0)
(0.0995994 -0.000756715 0)
(0.0996227 -0.000711447 0)
(0.0996455 -0.000668254 0)
(0.0996677 -0.000627074 0)
(0.0996893 -0.000587843 0)
(0.0997103 -0.000550502 0)
(0.0997307 -0.000514987 0)
(0.0997504 -0.00048124 0)
(0.0997693 -0.0004492 0)
(0.0997876 -0.000418808 0)
(0.0998052 -0.000390006 0)
(0.099822 -0.000362738 0)
(0.0998382 -0.000336947 0)
(0.0998536 -0.000312579 0)
(0.0998682 -0.000289579 0)
(0.0998822 -0.000267895 0)
(0.0998955 -0.000247474 0)
(0.099908 -0.000228267 0)
(0.0999199 -0.000210222 0)
(0.0999311 -0.000193291 0)
(0.0999416 -0.000177427 0)
(0.0999515 -0.000162582 0)
(0.0999607 -0.000148712 0)
(0.0999694 -0.000135773 0)
(0.0999775 -0.000123721 0)
(0.099985 -0.000112515 0)
(0.0999919 -0.000102113 0)
(0.0999984 -9.24781e-05 0)
(0.100004 -8.35708e-05 0)
(0.10001 -7.53544e-05 0)
(0.100015 -6.77931e-05 0)
(0.100019 -6.08528e-05 0)
(0.100023 -5.45004e-05 0)
(0.100027 -4.87045e-05 0)
(0.100031 -4.34354e-05 0)
(0.100034 -3.86648e-05 0)
(0.100037 -3.43669e-05 0)
(0.100039 -3.05162e-05 0)
(0.100041 -2.70915e-05 0)
(0.100043 -2.40687e-05 0)
(0.100045 -2.14359e-05 0)
(0.100047 -1.91631e-05 0)
(0.100048 -1.72625e-05 0)
(0.10005 -1.56725e-05 0)
(0.100051 -1.44804e-05 0)
(0.100052 -1.35077e-05 0)
(0.100053 -1.30657e-05 0)
(0.100055 -1.26182e-05 0)
(0.100054 -1.30867e-05 0)
(0.100059 -1.29957e-05 0)
(0.100055 -1.47366e-05 0)
(0.100064 -1.47022e-05 0)
(0.100055 -1.83424e-05 0)
(0.100072 -1.79568e-05 0)
(0.100055 -2.43161e-05 0)
(0.100083 -2.33213e-05 0)
(0.100054 -3.30211e-05 0)
(0.100099 -3.20173e-05 0)
(0.100057 -4.44947e-05 0)
(0.100118 -4.65275e-05 0)
(0.100065 -5.76071e-05 0)
(0.100143 -7.16115e-05 0)
(0.100084 -7.04926e-05 0)
(0.100175 -0.000106255 0)
(0.10013 -9.95208e-05 0)
(0.100212 -0.000126307 0)
(0.0995026 -0.00102709 0)
(0.0995261 -0.000970207 0)
(0.0995494 -0.000915719 0)
(0.0995725 -0.000863541 0)
(0.0995954 -0.000813606 0)
(0.0996179 -0.000765854 0)
(0.09964 -0.000720228 0)
(0.0996616 -0.00067667 0)
(0.0996827 -0.000635119 0)
(0.0997034 -0.000595518 0)
(0.0997234 -0.000557805 0)
(0.0997429 -0.000521923 0)
(0.0997617 -0.000487811 0)
(0.0997799 -0.000455413 0)
(0.0997974 -0.000424671 0)
(0.0998143 -0.000395526 0)
(0.0998304 -0.000367925 0)
(0.0998459 -0.000341811 0)
(0.0998608 -0.00031713 0)
(0.0998749 -0.000293829 0)
(0.0998883 -0.000271856 0)
(0.0999011 -0.000251157 0)
(0.0999132 -0.000231684 0)
(0.0999246 -0.000213386 0)
(0.0999354 -0.000196214 0)
(0.0999456 -0.000180121 0)
(0.0999552 -0.000165059 0)
(0.0999641 -0.000150985 0)
(0.0999724 -0.000137852 0)
(0.0999802 -0.000125619 0)
(0.0999875 -0.000114243 0)
(0.0999942 -0.000103682 0)
(0.1 -9.38987e-05 0)
(0.100006 -8.48534e-05 0)
(0.100011 -7.6509e-05 0)
(0.100016 -6.88295e-05 0)
(0.100021 -6.17801e-05 0)
(0.100025 -5.53275e-05 0)
(0.100028 -4.944e-05 0)
(0.100032 -4.40873e-05 0)
(0.100035 -3.9241e-05 0)
(0.100037 -3.48748e-05 0)
(0.10004 -3.09628e-05 0)
(0.100042 -2.74838e-05 0)
(0.100044 -2.44133e-05 0)
(0.100045 -2.17391e-05 0)
(0.100047 -1.94307e-05 0)
(0.100048 -1.75008e-05 0)
(0.10005 -1.58863e-05 0)
(0.100051 -1.46772e-05 0)
(0.100052 -1.36897e-05 0)
(0.100053 -1.32445e-05 0)
(0.100055 -1.27891e-05 0)
(0.100054 -1.32737e-05 0)
(0.100058 -1.31751e-05 0)
(0.100055 -1.49634e-05 0)
(0.100063 -1.49092e-05 0)
(0.100055 -1.86511e-05 0)
(0.100071 -1.82117e-05 0)
(0.100054 -2.47626e-05 0)
(0.100083 -2.3652e-05 0)
(0.100054 -3.36815e-05 0)
(0.100098 -3.24669e-05 0)
(0.100056 -4.54821e-05 0)
(0.100117 -4.71673e-05 0)
(0.100063 -5.9082e-05 0)
(0.100143 -7.26881e-05 0)
(0.100081 -7.239e-05 0)
(0.100175 -0.00010886 0)
(0.100127 -0.000101565 0)
(0.100211 -0.000130931 0)
(0.0995281 -0.00103709 0)
(0.09955 -0.000979984 0)
(0.0995719 -0.000925247 0)
(0.0995936 -0.000872795 0)
(0.0996151 -0.000822566 0)
(0.0996364 -0.000774503 0)
(0.0996573 -0.000728554 0)
(0.0996778 -0.000684663 0)
(0.0996979 -0.000642773 0)
(0.0997175 -0.000602829 0)
(0.0997365 -0.000564773 0)
(0.0997551 -0.000528548 0)
(0.0997731 -0.000494096 0)
(0.0997905 -0.000461362 0)
(0.0998072 -0.000430289 0)
(0.0998234 -0.000400821 0)
(0.0998389 -0.000372904 0)
(0.0998538 -0.000346484 0)
(0.099868 -0.000321506 0)
(0.0998816 -0.000297918 0)
(0.0998945 -0.000275667 0)
(0.0999068 -0.000254704 0)
(0.0999184 -0.000234976 0)
(0.0999294 -0.000216435 0)
(0.0999398 -0.000199032 0)
(0.0999496 -0.000182719 0)
(0.0999588 -0.000167449 0)
(0.0999674 -0.000153177 0)
(0.0999755 -0.000139858 0)
(0.099983 -0.00012745 0)
(0.09999 -0.00011591 0)
(0.0999965 -0.000105196 0)
(0.100002 -9.52692e-05 0)
(0.100008 -8.60906e-05 0)
(0.100013 -7.76225e-05 0)
(0.100018 -6.98286e-05 0)
(0.100022 -6.26737e-05 0)
(0.100026 -5.61242e-05 0)
(0.100029 -5.01479e-05 0)
(0.100032 -4.47144e-05 0)
(0.100035 -3.97947e-05 0)
(0.100038 -3.53623e-05 0)
(0.10004 -3.13912e-05 0)
(0.100042 -2.78596e-05 0)
(0.100044 -2.47428e-05 0)
(0.100046 -2.20286e-05 0)
(0.100047 -1.96858e-05 0)
(0.100049 -1.77278e-05 0)
(0.10005 -1.60896e-05 0)
(0.100051 -1.48641e-05 0)
(0.100052 -1.38623e-05 0)
(0.100053 -1.34145e-05 0)
(0.100055 -1.29513e-05 0)
(0.100054 -1.34522e-05 0)
(0.100058 -1.33456e-05 0)
(0.100055 -1.51819e-05 0)
(0.100063 -1.51063e-05 0)
(0.100054 -1.8951e-05 0)
(0.100071 -1.84547e-05 0)
(0.100054 -2.51999e-05 0)
(0.100082 -2.39669e-05 0)
(0.100053 -3.43326e-05 0)
(0.100097 -3.28937e-05 0)
(0.100055 -4.64649e-05 0)
(0.100116 -4.7765e-05 0)
(0.100061 -6.05775e-05 0)
(0.100142 -7.36789e-05 0)
(0.100077 -7.43345e-05 0)
(0.100175 -0.000111446 0)
(0.100123 -0.000103492 0)
(0.100209 -0.000135679 0)
(0.0995537 -0.00104638 0)
(0.099574 -0.000989108 0)
(0.0995944 -0.000934167 0)
(0.0996148 -0.000881483 0)
(0.0996349 -0.000830999 0)
(0.0996549 -0.000782663 0)
(0.0996746 -0.000736425 0)
(0.099694 -0.000692234 0)
(0.099713 -0.000650036 0)
(0.0997316 -0.000609778 0)
(0.0997497 -0.000571405 0)
(0.0997674 -0.000534862 0)
(0.0997845 -0.000500093 0)
(0.0998011 -0.000467045 0)
(0.0998171 -0.000435662 0)
(0.0998325 -0.00040589 0)
(0.0998474 -0.000377675 0)
(0.0998616 -0.000350964 0)
(0.0998752 -0.000325704 0)
(0.0998883 -0.000301843 0)
(0.0999007 -0.000279329 0)
(0.0999124 -0.000258112 0)
(0.0999236 -0.000238142 0)
(0.0999342 -0.000219369 0)
(0.0999442 -0.000201744 0)
(0.0999536 -0.000185219 0)
(0.0999625 -0.000169749 0)
(0.0999708 -0.000155288 0)
(0.0999785 -0.000141791 0)
(0.0999857 -0.000129214 0)
(0.0999925 -0.000117516 0)
(0.0999987 -0.000106654 0)
(0.100004 -9.6589e-05 0)
(0.10001 -8.72818e-05 0)
(0.100015 -7.86943e-05 0)
(0.100019 -7.07899e-05 0)
(0.100023 -6.35332e-05 0)
(0.100027 -5.68901e-05 0)
(0.10003 -5.0828e-05 0)
(0.100033 -4.53163e-05 0)
(0.100036 -4.03257e-05 0)
(0.100039 -3.58293e-05 0)
(0.100041 -3.18009e-05 0)
(0.100043 -2.82186e-05 0)
(0.100044 -2.50571e-05 0)
(0.100046 -2.23043e-05 0)
(0.100047 -1.99284e-05 0)
(0.100049 -1.79431e-05 0)
(0.10005 -1.62822e-05 0)
(0.100051 -1.50411e-05 0)
(0.100052 -1.40255e-05 0)
(0.100052 -1.35756e-05 0)
(0.100055 -1.31046e-05 0)
(0.100054 -1.36223e-05 0)
(0.100058 -1.35073e-05 0)
(0.100054 -1.53919e-05 0)
(0.100063 -1.52934e-05 0)
(0.100054 -1.92421e-05 0)
(0.10007 -1.86855e-05 0)
(0.100053 -2.56278e-05 0)
(0.100081 -2.42658e-05 0)
(0.100052 -3.49741e-05 0)
(0.100096 -3.32973e-05 0)
(0.100054 -4.74426e-05 0)
(0.100115 -4.83196e-05 0)
(0.10006 -6.20947e-05 0)
(0.100142 -7.45782e-05 0)
(0.100074 -7.63308e-05 0)
(0.100176 -0.000114009 0)
(0.100119 -0.000105287 0)
(0.100207 -0.00014055 0)
(0.0995792 -0.00105499 0)
(0.099598 -0.000997586 0)
(0.099617 -0.000942484 0)
(0.0996359 -0.000889609 0)
(0.0996548 -0.000838908 0)
(0.0996735 -0.000790335 0)
(0.099692 -0.000743843 0)
(0.0997103 -0.000699383 0)
(0.0997282 -0.000656908 0)
(0.0997458 -0.000616364 0)
(0.099763 -0.0005777 0)
(0.0997797 -0.000540864 0)
(0.099796 -0.000505802 0)
(0.0998117 -0.000472461 0)
(0.099827 -0.000440788 0)
(0.0998417 -0.00041073 0)
(0.0998559 -0.000382235 0)
(0.0998695 -0.00035525 0)
(0.0998825 -0.000329723 0)
(0.0998949 -0.000305604 0)
(0.0999068 -0.00028284 0)
(0.0999181 -0.000261382 0)
(0.0999288 -0.00024118 0)
(0.099939 -0.000222185 0)
(0.0999486 -0.000204348 0)
(0.0999576 -0.000187622 0)
(0.0999661 -0.00017196 0)
(0.0999741 -0.000157317 0)
(0.0999815 -0.000143648 0)
(0.0999885 -0.00013091 0)
(0.0999949 -0.000119059 0)
(0.100001 -0.000108055 0)
(0.100006 -9.78576e-05 0)
(0.100012 -8.84265e-05 0)
(0.100016 -7.9724e-05 0)
(0.100021 -7.17131e-05 0)
(0.100024 -6.43582e-05 0)
(0.100028 -5.76248e-05 0)
(0.100031 -5.148e-05 0)
(0.100034 -4.58928e-05 0)
(0.100037 -4.08337e-05 0)
(0.100039 -3.62757e-05 0)
(0.100041 -3.2192e-05 0)
(0.100043 -2.85606e-05 0)
(0.100045 -2.53561e-05 0)
(0.100046 -2.2566e-05 0)
(0.100048 -2.01582e-05 0)
(0.100049 -1.81469e-05 0)
(0.10005 -1.6464e-05 0)
(0.100051 -1.52081e-05 0)
(0.100052 -1.41793e-05 0)
(0.100052 -1.37277e-05 0)
(0.100054 -1.32491e-05 0)
(0.100053 -1.37839e-05 0)
(0.100057 -1.36599e-05 0)
(0.100054 -1.55934e-05 0)
(0.100062 -1.54705e-05 0)
(0.100053 -1.95243e-05 0)
(0.100069 -1.8904e-05 0)
(0.100052 -2.6046e-05 0)
(0.10008 -2.45487e-05 0)
(0.100051 -3.56057e-05 0)
(0.100095 -3.36774e-05 0)
(0.100052 -4.84148e-05 0)
(0.100114 -4.88302e-05 0)
(0.100058 -6.36344e-05 0)
(0.100141 -7.53807e-05 0)
(0.10007 -7.8383e-05 0)
(0.100176 -0.000116547 0)
(0.100115 -0.000106934 0)
(0.100205 -0.000145541 0)
(0.0996046 -0.0010629 0)
(0.099622 -0.00100542 0)
(0.0996395 -0.000950201 0)
(0.099657 -0.000897175 0)
(0.0996746 -0.000846295 0)
(0.0996921 -0.000797521 0)
(0.0997094 -0.000750807 0)
(0.0997265 -0.000706112 0)
(0.0997434 -0.000663388 0)
(0.09976 -0.000622586 0)
(0.0997762 -0.000583658 0)
(0.099792 -0.000546553 0)
(0.0998074 -0.00051122 0)
(0.0998224 -0.000477608 0)
(0.0998369 -0.000445666 0)
(0.0998509 -0.000415341 0)
(0.0998643 -0.000386583 0)
(0.0998773 -0.000359341 0)
(0.0998897 -0.000333563 0)
(0.0999016 -0.000309199 0)
(0.099913 -0.000286199 0)
(0.0999238 -0.000264512 0)
(0.099934 -0.00024409 0)
(0.0999437 -0.000224884 0)
(0.0999529 -0.000206845 0)
(0.0999616 -0.000189926 0)
(0.0999697 -0.000174081 0)
(0.0999773 -0.000159264 0)
(0.0999845 -0.000145431 0)
(0.0999911 -0.000132537 0)
(0.0999973 -0.000120541 0)
(0.100003 -0.0001094 0)
(0.100008 -9.90745e-05 0)
(0.100013 -8.95244e-05 0)
(0.100018 -8.07113e-05 0)
(0.100022 -7.2598e-05 0)
(0.100026 -6.51485e-05 0)
(0.100029 -5.83281e-05 0)
(0.100032 -5.21036e-05 0)
(0.100035 -4.64437e-05 0)
(0.100037 -4.13187e-05 0)
(0.10004 -3.67011e-05 0)
(0.100042 -3.25642e-05 0)
(0.100043 -2.88856e-05 0)
(0.100045 -2.56396e-05 0)
(0.100046 -2.28138e-05 0)
(0.100048 -2.03753e-05 0)
(0.100049 -1.83389e-05 0)
(0.10005 -1.6635e-05 0)
(0.100051 -1.53651e-05 0)
(0.100052 -1.43235e-05 0)
(0.100052 -1.38708e-05 0)
(0.100054 -1.33846e-05 0)
(0.100053 -1.3937e-05 0)
(0.100057 -1.38034e-05 0)
(0.100053 -1.57862e-05 0)
(0.100062 -1.56375e-05 0)
(0.100053 -1.97974e-05 0)
(0.100069 -1.91102e-05 0)
(0.100052 -2.64544e-05 0)
(0.100079 -2.48153e-05 0)
(0.10005 -3.6227e-05 0)
(0.100094 -3.40341e-05 0)
(0.100051 -4.93809e-05 0)
(0.100113 -4.92963e-05 0)
(0.100056 -6.51972e-05 0)
(0.10014 -7.6082e-05 0)
(0.100066 -8.04947e-05 0)
(0.100176 -0.000119056 0)
(0.10011 -0.00010842 0)
(0.100202 -0.000150647 0)
(0.09963 -0.00107014 0)
(0.0996458 -0.00101262 0)
(0.0996619 -0.000957323 0)
(0.0996781 -0.000904185 0)
(0.0996944 -0.000853164 0)
(0.0997106 -0.000804222 0)
(0.0997267 -0.000757321 0)
(0.0997428 -0.000712421 0)
(0.0997586 -0.000669477 0)
(0.0997741 -0.000628446 0)
(0.0997894 -0.000589279 0)
(0.0998043 -0.00055193 0)
(0.0998189 -0.00051635 0)
(0.099833 -0.000482488 0)
(0.0998467 -0.000450296 0)
(0.09986 -0.000419723 0)
(0.0998728 -0.00039072 0)
(0.0998851 -0.000363237 0)
(0.0998969 -0.000337223 0)
(0.0999083 -0.000312628 0)
(0.0999191 -0.000289405 0)
(0.0999294 -0.000267502 0)
(0.0999392 -0.000246871 0)
(0.0999484 -0.000227465 0)
(0.0999572 -0.000209234 0)
(0.0999655 -0.000192131 0)
(0.0999733 -0.000176111 0)
(0.0999805 -0.000161128 0)
(0.0999874 -0.000147137 0)
(0.0999937 -0.000134095 0)
(0.0999997 -0.000121959 0)
(0.100005 -0.000110688 0)
(0.10001 -0.00010024 0)
(0.100015 -9.05751e-05 0)
(0.100019 -8.16558e-05 0)
(0.100023 -7.34442e-05 0)
(0.100027 -6.59039e-05 0)
(0.10003 -5.89999e-05 0)
(0.100033 -5.26987e-05 0)
(0.100036 -4.69689e-05 0)
(0.100038 -4.17804e-05 0)
(0.10004 -3.71057e-05 0)
(0.100042 -3.29176e-05 0)
(0.100044 -2.91936e-05 0)
(0.100045 -2.59078e-05 0)
(0.100046 -2.30476e-05 0)
(0.100048 -2.05796e-05 0)
(0.100049 -1.85193e-05 0)
(0.10005 -1.67952e-05 0)
(0.10005 -1.5512e-05 0)
(0.100052 -1.44582e-05 0)
(0.100052 -1.40048e-05 0)
(0.100054 -1.35113e-05 0)
(0.100053 -1.40814e-05 0)
(0.100056 -1.39379e-05 0)
(0.100053 -1.59704e-05 0)
(0.100061 -1.57943e-05 0)
(0.100052 -2.00615e-05 0)
(0.100068 -1.9304e-05 0)
(0.100051 -2.6853e-05 0)
(0.100078 -2.50657e-05 0)
(0.100049 -3.68378e-05 0)
(0.100093 -3.43671e-05 0)
(0.10005 -5.03401e-05 0)
(0.100112 -4.97174e-05 0)
(0.100053 -6.67827e-05 0)
(0.100139 -7.66783e-05 0)
(0.100062 -8.26683e-05 0)
(0.100177 -0.000121533 0)
(0.100106 -0.000109734 0)
(0.100199 -0.000155862 0)
(0.0996552 -0.00107671 0)
(0.0996696 -0.00101919 0)
(0.0996842 -0.000963856 0)
(0.0996991 -0.000910644 0)
(0.099714 -0.000859517 0)
(0.0997291 -0.000810442 0)
(0.099744 -0.000763386 0)
(0.0997589 -0.000718311 0)
(0.0997737 -0.000675177 0)
(0.0997882 -0.000633943 0)
(0.0998025 -0.000594564 0)
(0.0998165 -0.000556995 0)
(0.0998302 -0.000521189 0)
(0.0998436 -0.000487099 0)
(0.0998565 -0.000454677 0)
(0.0998691 -0.000423875 0)
(0.0998812 -0.000394644 0)
(0.0998929 -0.000366936 0)
(0.0999041 -0.000340701 0)
(0.0999148 -0.000315891 0)
(0.0999251 -0.000292457 0)
(0.0999349 -0.00027035 0)
(0.0999442 -0.000249523 0)
(0.0999531 -0.000229926 0)
(0.0999614 -0.000211513 0)
(0.0999693 -0.000194236 0)
(0.0999767 -0.00017805 0)
(0.0999837 -0.000162908 0)
(0.0999902 -0.000148768 0)
(0.0999963 -0.000135584 0)
(0.100002 -0.000123315 0)
(0.100007 -0.000111918 0)
(0.100012 -0.000101352 0)
(0.100016 -9.15785e-05 0)
(0.100021 -8.25575e-05 0)
(0.100024 -7.42516e-05 0)
(0.100028 -6.66242e-05 0)
(0.100031 -5.964e-05 0)
(0.100034 -5.32653e-05 0)
(0.100036 -4.74684e-05 0)
(0.100038 -4.22189e-05 0)
(0.10004 -3.74893e-05 0)
(0.100042 -3.3252e-05 0)
(0.100044 -2.94845e-05 0)
(0.100045 -2.61604e-05 0)
(0.100046 -2.32673e-05 0)
(0.100048 -2.07712e-05 0)
(0.100048 -1.8688e-05 0)
(0.100049 -1.69447e-05 0)
(0.10005 -1.56489e-05 0)
(0.100051 -1.45834e-05 0)
(0.100051 -1.41299e-05 0)
(0.100053 -1.36291e-05 0)
(0.100052 -1.42174e-05 0)
(0.100056 -1.40634e-05 0)
(0.100052 -1.61461e-05 0)
(0.10006 -1.5941e-05 0)
(0.100052 -2.03164e-05 0)
(0.100067 -1.94853e-05 0)
(0.10005 -2.72417e-05 0)
(0.100077 -2.52996e-05 0)
(0.100048 -3.74378e-05 0)
(0.100091 -3.46765e-05 0)
(0.100048 -5.12919e-05 0)
(0.10011 -5.00937e-05 0)
(0.100051 -6.83902e-05 0)
(0.100138 -7.71676e-05 0)
(0.100058 -8.49047e-05 0)
(0.100177 -0.000123976 0)
(0.100101 -0.000110866 0)
(0.100196 -0.000161176 0)
(0.0996803 -0.00108261 0)
(0.0996932 -0.00102514 0)
(0.0997065 -0.000969806 0)
(0.09972 -0.000916555 0)
(0.0997336 -0.000865358 0)
(0.0997474 -0.000816184 0)
(0.0997612 -0.000769004 0)
(0.099775 -0.000723784 0)
(0.0997887 -0.000680489 0)
(0.0998022 -0.000639079 0)
(0.0998156 -0.000599512 0)
(0.0998287 -0.000561747 0)
(0.0998415 -0.000525738 0)
(0.0998541 -0.000491441 0)
(0.0998663 -0.000458809 0)
(0.0998781 -0.000427796 0)
(0.0998895 -0.000398355 0)
(0.0999006 -0.000370439 0)
(0.0999112 -0.000343998 0)
(0.0999213 -0.000318986 0)
(0.0999311 -0.000295355 0)
(0.0999404 -0.000273057 0)
(0.0999492 -0.000252044 0)
(0.0999576 -0.000232268 0)
(0.0999656 -0.000213683 0)
(0.0999731 -0.000196241 0)
(0.0999801 -0.000179897 0)
(0.0999867 -0.000164605 0)
(0.0999929 -0.000150322 0)
(0.0999987 -0.000137003 0)
(0.100004 -0.000124607 0)
(0.100009 -0.00011309 0)
(0.100014 -0.000102413 0)
(0.100018 -9.25344e-05 0)
(0.100022 -8.34162e-05 0)
(0.100025 -7.50201e-05 0)
(0.100029 -6.73094e-05 0)
(0.100032 -6.02484e-05 0)
(0.100034 -5.38033e-05 0)
(0.100037 -4.79421e-05 0)
(0.100039 -4.26343e-05 0)
(0.100041 -3.7852e-05 0)
(0.100042 -3.35676e-05 0)
(0.100044 -2.97584e-05 0)
(0.100045 -2.63978e-05 0)
(0.100046 -2.34732e-05 0)
(0.100047 -2.09501e-05 0)
(0.100048 -1.88452e-05 0)
(0.100049 -1.70835e-05 0)
(0.10005 -1.57759e-05 0)
(0.100051 -1.46993e-05 0)
(0.100051 -1.42461e-05 0)
(0.100053 -1.37381e-05 0)
(0.100052 -1.43448e-05 0)
(0.100055 -1.41799e-05 0)
(0.100052 -1.63131e-05 0)
(0.100059 -1.60776e-05 0)
(0.100051 -2.05623e-05 0)
(0.100066 -1.96543e-05 0)
(0.100049 -2.76204e-05 0)
(0.100076 -2.55172e-05 0)
(0.100047 -3.80268e-05 0)
(0.10009 -3.49626e-05 0)
(0.100047 -5.22353e-05 0)
(0.100109 -5.04256e-05 0)
(0.100049 -7.00182e-05 0)
(0.100137 -7.75491e-05 0)
(0.100054 -8.72031e-05 0)
(0.100177 -0.000126382 0)
(0.100096 -0.000111809 0)
(0.100193 -0.000166581 0)
(0.0997052 -0.00108787 0)
(0.0997167 -0.00103048 0)
(0.0997285 -0.000975177 0)
(0.0997407 -0.000921925 0)
(0.0997531 -0.000870691 0)
(0.0997657 -0.00082145 0)
(0.0997783 -0.000774178 0)
(0.099791 -0.000728843 0)
(0.0998036 -0.000685414 0)
(0.0998162 -0.000643854 0)
(0.0998286 -0.000604125 0)
(0.0998408 -0.000566187 0)
(0.0998528 -0.000529998 0)
(0.0998645 -0.000495514 0)
(0.0998759 -0.000462693 0)
(0.099887 -0.000431488 0)
(0.0998978 -0.000401854 0)
(0.0999081 -0.000373744 0)
(0.0999182 -0.000347114 0)
(0.0999278 -0.000321914 0)
(0.099937 -0.0002981 0)
(0.0999458 -0.000275622 0)
(0.0999541 -0.000254435 0)
(0.0999621 -0.000234491 0)
(0.0999696 -0.000215743 0)
(0.0999767 -0.000198145 0)
(0.0999834 -0.000181652 0)
(0.0999897 -0.000166218 0)
(0.0999956 -0.000151799 0)
(0.100001 -0.000138352 0)
(0.100006 -0.000125835 0)
(0.100011 -0.000114205 0)
(0.100015 -0.000103421 0)
(0.100019 -9.34429e-05 0)
(0.100023 -8.42319e-05 0)
(0.100026 -7.57498e-05 0)
(0.100029 -6.79595e-05 0)
(0.100032 -6.08253e-05 0)
(0.100035 -5.43129e-05 0)
(0.100037 -4.83902e-05 0)
(0.100039 -4.30265e-05 0)
(0.100041 -3.81939e-05 0)
(0.100042 -3.38645e-05 0)
(0.100044 -3.00154e-05 0)
(0.100045 -2.66199e-05 0)
(0.100046 -2.36653e-05 0)
(0.100047 -2.11165e-05 0)
(0.100048 -1.89909e-05 0)
(0.100049 -1.72118e-05 0)
(0.100049 -1.58931e-05 0)
(0.10005 -1.48059e-05 0)
(0.10005 -1.43535e-05 0)
(0.100052 -1.38385e-05 0)
(0.100051 -1.4464e-05 0)
(0.100054 -1.42876e-05 0)
(0.100051 -1.64717e-05 0)
(0.100058 -1.62043e-05 0)
(0.10005 -2.07992e-05 0)
(0.100065 -1.98109e-05 0)
(0.100048 -2.7989e-05 0)
(0.100075 -2.57184e-05 0)
(0.100046 -3.86045e-05 0)
(0.100089 -3.52254e-05 0)
(0.100045 -5.31694e-05 0)
(0.100107 -5.0714e-05 0)
(0.100047 -7.16642e-05 0)
(0.100136 -7.78242e-05 0)
(0.10005 -8.95604e-05 0)
(0.100177 -0.000128747 0)
(0.100091 -0.000112561 0)
(0.100189 -0.000172063 0)
(0.0997299 -0.00109247 0)
(0.0997399 -0.0010352 0)
(0.0997504 -0.000979976 0)
(0.0997613 -0.000926757 0)
(0.0997724 -0.00087552 0)
(0.0997838 -0.000826245 0)
(0.0997953 -0.00077891 0)
(0.0998069 -0.000733489 0)
(0.0998184 -0.000689954 0)
(0.09983 -0.00064827 0)
(0.0998414 -0.000608404 0)
(0.0998528 -0.000570316 0)
(0.0998639 -0.000533969 0)
(0.0998748 -0.00049932 0)
(0.0998854 -0.000466327 0)
(0.0998958 -0.000434948 0)
(0.0999059 -0.000405139 0)
(0.0999156 -0.000376854 0)
(0.099925 -0.000350047 0)
(0.0999341 -0.000324675 0)
(0.0999427 -0.00030069 0)
(0.099951 -0.000278045 0)
(0.0999589 -0.000256696 0)
(0.0999664 -0.000236594 0)
(0.0999736 -0.000217694 0)
(0.0999803 -0.000199949 0)
(0.0999866 -0.000183315 0)
(0.0999926 -0.000167747 0)
(0.0999981 -0.0001532 0)
(0.100003 -0.000139632 0)
(0.100008 -0.000127 0)
(0.100013 -0.000115262 0)
(0.100017 -0.000104377 0)
(0.100021 -9.4304e-05 0)
(0.100024 -8.50048e-05 0)
(0.100027 -7.64408e-05 0)
(0.10003 -6.85748e-05 0)
(0.100033 -6.13707e-05 0)
(0.100035 -5.47941e-05 0)
(0.100037 -4.88128e-05 0)
(0.100039 -4.33958e-05 0)
(0.100041 -3.85152e-05 0)
(0.100042 -3.41428e-05 0)
(0.100044 -3.02558e-05 0)
(0.100045 -2.6827e-05 0)
(0.100046 -2.38439e-05 0)
(0.100047 -2.12707e-05 0)
(0.100048 -1.91255e-05 0)
(0.100048 -1.73298e-05 0)
(0.100049 -1.60008e-05 0)
(0.10005 -1.49035e-05 0)
(0.10005 -1.44523e-05 0)
(0.100051 -1.39304e-05 0)
(0.10005 -1.4575e-05 0)
(0.100054 -1.43867e-05 0)
(0.10005 -1.66221e-05 0)
(0.100057 -1.6321e-05 0)
(0.100049 -2.10272e-05 0)
(0.100064 -1.99552e-05 0)
(0.100047 -2.83478e-05 0)
(0.100074 -2.59035e-05 0)
(0.100045 -3.91708e-05 0)
(0.100087 -3.54654e-05 0)
(0.100044 -5.40932e-05 0)
(0.100106 -5.09605e-05 0)
(0.100045 -7.33245e-05 0)
(0.100134 -7.79963e-05 0)
(0.100046 -9.19708e-05 0)
(0.100176 -0.000131071 0)
(0.100086 -0.000113124 0)
(0.100186 -0.000177607 0)
(0.0997544 -0.00109644 0)
(0.099763 -0.00103932 0)
(0.0997721 -0.000984209 0)
(0.0997816 -0.000931057 0)
(0.0997915 -0.000879849 0)
(0.0998017 -0.000830571 0)
(0.0998121 -0.000783203 0)
(0.0998226 -0.000737725 0)
(0.0998331 -0.00069411 0)
(0.0998437 -0.000652329 0)
(0.0998542 -0.00061235 0)
(0.0998646 -0.000574136 0)
(0.0998749 -0.000537652 0)