/*--------------------------------*- C++ -*----------------------------------*\
| =========                 |                                                 |
| \\      /  F ield         | OpenFOAM: The Open Source CFD Toolbox           |
|  \\    /   O peration     | Version:  2412                                  |
|   \\  /    A nd           | Website:  www.openfoam.com                      |
|    \\/     M anipulation  |                                                 |
\*---------------------------------------------------------------------------*/
FoamFile
{
    version     2.0;
    format      ascii;
    arch        "LSB;label=32;scalar=64";
    class       volVectorField;
    location    "11";
    object      U;
}
// * * * * * * * * * * * * * * * * * * * * * * * * * * * * * * * * * * * * * //

dimensions      [0 1 -1 0 0 0 0];

internalField   nonuniform List<vector> 
5285
(
(0.101248 0.00368138 0)
(0.101169 0.00362705 0)
(0.101091 0.00357078 0)
(0.101016 0.00351265 0)
(0.100942 0.00345278 0)
(0.100871 0.00339127 0)
(0.100802 0.00332823 0)
(0.100735 0.00326377 0)
(0.100671 0.00319802 0)
(0.100609 0.00313111 0)
(0.10055 0.00306315 0)
(0.100493 0.00299427 0)
(0.100438 0.00292461 0)
(0.100387 0.00285429 0)
(0.100337 0.00278342 0)
(0.100291 0.00271213 0)
(0.100247 0.00264052 0)
(0.100205 0.00256873 0)
(0.100167 0.00249686 0)
(0.10013 0.00242504 0)
(0.100097 0.0023534 0)
(0.100066 0.00228207 0)
(0.100037 0.00221118 0)
(0.100011 0.00214082 0)
(0.0999869 0.0020711 0)
(0.0999654 0.00200207 0)
(0.0999461 0.0019338 0)
(0.099929 0.00186632 0)
(0.0999139 0.00179966 0)
(0.0999008 0.00173387 0)
(0.0998894 0.001669 0)
(0.0998798 0.00160508 0)
(0.0998719 0.00154217 0)
(0.0998654 0.00148034 0)
(0.0998604 0.00141964 0)
(0.0998567 0.00136013 0)
(0.0998542 0.00130186 0)
(0.0998528 0.00124488 0)
(0.0998525 0.00118924 0)
(0.0998531 0.00113498 0)
(0.0998546 0.00108213 0)
(0.0998569 0.00103071 0)
(0.0998598 0.000980757 0)
(0.0998634 0.00093228 0)
(0.10119 0.0037665 0)
(0.10111 0.0037085 0)
(0.101032 0.00364857 0)
(0.100955 0.00358682 0)
(0.100882 0.00352336 0)
(0.10081 0.00345829 0)
(0.100741 0.00339175 0)
(0.100674 0.00332384 0)
(0.10061 0.0032547 0)
(0.100548 0.00318445 0)
(0.100489 0.00311324 0)
(0.100433 0.0030412 0)
(0.100379 0.00296845 0)
(0.100328 0.00289512 0)
(0.100279 0.00282134 0)
(0.100234 0.00274723 0)
(0.100191 0.00267291 0)
(0.10015 0.00259849 0)
(0.100113 0.0025241 0)
(0.100078 0.00244987 0)
(0.100045 0.00237592 0)
(0.100015 0.00230239 0)
(0.099988 0.0022294 0)
(0.0999632 0.00215707 0)
(0.0999409 0.00208548 0)
(0.0999208 0.00201471 0)
(0.099903 0.0019448 0)
(0.0998873 0.00187581 0)
(0.0998737 0.00180777 0)
(0.0998621 0.0017407 0)
(0.0998522 0.00167466 0)
(0.0998441 0.00160967 0)
(0.0998376 0.0015458 0)
(0.0998326 0.0014831 0)
(0.099829 0.00142161 0)
(0.0998267 0.0013614 0)
(0.0998256 0.0013025 0)
(0.0998256 0.00124497 0)
(0.0998266 0.00118885 0)
(0.0998286 0.00113416 0)
(0.0998313 0.00108094 0)
(0.0998348 0.00102921 0)
(0.099839 0.000978988 0)
(0.0998437 0.000930288 0)
(0.101129 0.00385263 0)
(0.101047 0.00379078 0)
(0.100968 0.00372702 0)
(0.100892 0.00366148 0)
(0.100818 0.00359426 0)
(0.100746 0.00352549 0)
(0.100677 0.0034553 0)
(0.10061 0.00338381 0)
(0.100546 0.00331116 0)
(0.100485 0.00323749 0)
(0.100426 0.00316293 0)
(0.10037 0.00308762 0)
(0.100317 0.0030117 0)
(0.100267 0.0029353 0)
(0.100219 0.00285855 0)
(0.100175 0.00278157 0)
(0.100133 0.00270448 0)
(0.100093 0.0026274 0)
(0.100057 0.00255046 0)
(0.100023 0.00247378 0)
(0.0999922 0.0023975 0)
(0.0999638 0.00232175 0)
(0.099938 0.00224666 0)
(0.0999146 0.00217235 0)
(0.0998937 0.00209889 0)
(0.0998752 0.00202638 0)
(0.0998589 0.00195486 0)
(0.0998448 0.00188438 0)
(0.0998328 0.00181496 0)
(0.0998226 0.00174663 0)
(0.0998144 0.00167944 0)
(0.0998078 0.00161341 0)
(0.0998028 0.0015486 0)
(0.0997993 0.00148505 0)
(0.0997972 0.00142281 0)
(0.0997963 0.00136192 0)
(0.0997967 0.00130243 0)
(0.0997981 0.00124437 0)
(0.0998004 0.00118779 0)
(0.0998037 0.00113271 0)
(0.0998077 0.00107915 0)
(0.0998125 0.00102713 0)
(0.0998179 0.000976674 0)
(0.0998238 0.00092778 0)
(0.101063 0.00393968 0)
(0.100981 0.00387378 0)
(0.100901 0.00380601 0)
(0.100824 0.0037365 0)
(0.10075 0.00366537 0)
(0.100678 0.00359275 0)
(0.100609 0.00351878 0)
(0.100543 0.00344358 0)
(0.100479 0.0033673 0)
(0.100418 0.00329009 0)
(0.10036 0.00321209 0)
(0.100305 0.00313343 0)
(0.100253 0.00305426 0)
(0.100203 0.00297472 0)
(0.100157 0.00289494 0)
(0.100113 0.00281504 0)
(0.100073 0.00273514 0)
(0.100035 0.00265536 0)
(0.0999997 0.00257584 0)
(0.0999674 0.00249669 0)
(0.0999378 0.00241807 0)
(0.0999109 0.00234009 0)
(0.0998866 0.0022629 0)
(0.0998649 0.0021866 0)
(0.0998456 0.00211129 0)
(0.0998286 0.00203705 0)
(0.099814 0.00196393 0)
(0.0998015 0.00189197 0)
(0.099791 0.00182119 0)
(0.0997825 0.00175163 0)
(0.0997758 0.00168331 0)
(0.0997708 0.00161627 0)
(0.0997674 0.00155055 0)
(0.0997654 0.00148618 0)
(0.0997648 0.00142321 0)
(0.0997655 0.00136168 0)
(0.0997673 0.00130162 0)
(0.0997701 0.00124307 0)
(0.0997738 0.00118606 0)
(0.0997784 0.00113061 0)
(0.0997838 0.00107675 0)
(0.0997898 0.00102448 0)
(0.0997965 0.000973808 0)
(0.0998036 0.000924748 0)
(0.100993 0.00402751 0)
(0.10091 0.00395737 0)
(0.10083 0.00388541 0)
(0.100753 0.00381177 0)
(0.100679 0.00373657 0)
(0.100607 0.00365995 0)
(0.100538 0.00358205 0)
(0.100472 0.00350302 0)
(0.100409 0.003423 0)
(0.100349 0.00334214 0)
(0.100291 0.0032606 0)
(0.100237 0.00317851 0)
(0.100186 0.00309602 0)
(0.100138 0.00301327 0)
(0.100092 0.0029304 0)
(0.10005 0.00284753 0)
(0.100011 0.00276478 0)
(0.0999743 0.00268228 0)
(0.0999407 0.00260015 0)
(0.0999099 0.00251853 0)
(0.0998819 0.00243754 0)
(0.0998566 0.00235734 0)
(0.099834 0.00227804 0)
(0.0998139 0.00219977 0)
(0.0997963 0.00212262 0)
(0.099781 0.00204666 0)
(0.0997681 0.00197196 0)
(0.0997573 0.00189854 0)
(0.0997485 0.00182643 0)
(0.0997417 0.00175566 0)
(0.0997366 0.00168625 0)
(0.0997333 0.00161822 0)
(0.0997314 0.00155161 0)
(0.0997311 0.00148646 0)
(0.099732 0.00142279 0)
(0.0997342 0.00136065 0)
(0.0997375 0.00130006 0)
(0.0997417 0.00124105 0)
(0.0997469 0.00118365 0)
(0.0997529 0.00112787 0)
(0.0997596 0.00107372 0)
(0.0997669 0.00102123 0)
(0.0997748 0.000970382 0)
(0.0997831 0.000921188 0)
(0.100918 0.00411599 0)
(0.100835 0.00404142 0)
(0.100755 0.00396508 0)
(0.100678 0.00388713 0)
(0.100603 0.00380769 0)
(0.100532 0.00372692 0)
(0.100463 0.00364497 0)
(0.100398 0.00356198 0)
(0.100335 0.0034781 0)
(0.100276 0.0033935 0)
(0.10022 0.00330833 0)
(0.100166 0.00322272 0)
(0.100116 0.00313685 0)
(0.100069 0.00305084 0)
(0.100025 0.00296483 0)
(0.0999846 0.00287894 0)
(0.0999467 0.00279331 0)
(0.0999118 0.00270806 0)
(0.0998798 0.0026233 0)
(0.0998507 0.00253919 0)
(0.0998244 0.00245584 0)
(0.0998009 0.00237341 0)
(0.09978 0.00229201 0)
(0.0997617 0.00221178 0)
(0.0997458 0.0021328 0)
(0.0997324 0.00205516 0)
(0.0997212 0.00197889 0)
(0.0997122 0.00190405 0)
(0.0997052 0.00183064 0)
(0.0997001 0.00175869 0)
(0.0996968 0.00168821 0)
(0.0996951 0.00161923 0)
(0.0996949 0.00155177 0)
(0.0996962 0.00148587 0)
(0.0996987 0.00142154 0)
(0.0997025 0.00135882 0)
(0.0997073 0.00129773 0)
(0.099713 0.0012383 0)
(0.0997196 0.00118053 0)
(0.099727 0.00112445 0)
(0.0997351 0.00107007 0)
(0.0997437 0.00101738 0)
(0.0997528 0.000966389 0)
(0.0997624 0.00091709 0)
(0.100839 0.00420497 0)
(0.100756 0.00412576 0)
(0.100675 0.00404486 0)
(0.100598 0.00396243 0)
(0.100524 0.0038786 0)
(0.100453 0.00379353 0)
(0.100385 0.00370738 0)
(0.10032 0.00362031 0)
(0.100258 0.00353247 0)
(0.1002 0.00344403 0)
(0.100145 0.00335513 0)
(0.100093 0.00326595 0)
(0.100044 0.00317662 0)
(0.0999985 0.00308729 0)
(0.0999561 0.00299809 0)
(0.0999168 0.00290916 0)
(0.0998805 0.00282062 0)
(0.0998473 0.00273259 0)
(0.0998171 0.0026452 0)
(0.0997898 0.00255858 0)
(0.0997653 0.00247288 0)
(0.0997436 0.00238822 0)
(0.0997246 0.00230474 0)
(0.0997082 0.00222256 0)
(0.0996943 0.00214178 0)
(0.0996827 0.00206247 0)
(0.0996734 0.00198468 0)
(0.0996662 0.00190844 0)
(0.099661 0.00183376 0)
(0.0996577 0.00176067 0)
(0.0996562 0.00168916 0)
(0.0996563 0.00161927 0)
(0.0996578 0.001551 0)
(0.0996608 0.00148438 0)
(0.099665 0.00141943 0)
(0.0996703 0.00135617 0)
(0.0996767 0.00129462 0)
(0.099684 0.00123479 0)
(0.099692 0.00117671 0)
(0.0997009 0.00112036 0)
(0.0997103 0.00106577 0)
(0.0997203 0.00101293 0)
(0.0997307 0.000961821 0)
(0.0997415 0.000912451 0)
(0.100755 0.00429428 0)
(0.100671 0.00421023 0)
(0.100591 0.00412458 0)
(0.100514 0.00403749 0)
(0.10044 0.00394911 0)
(0.10037 0.0038596 0)
(0.100302 0.00376913 0)
(0.100238 0.00367785 0)
(0.100178 0.00358594 0)
(0.100121 0.00349356 0)
(0.100067 0.00340087 0)
(0.100016 0.00330803 0)
(0.0999689 0.00321518 0)
(0.0999249 0.00312249 0)
(0.0998842 0.00303007 0)
(0.0998466 0.00293806 0)
(0.0998121 0.00284659 0)
(0.0997808 0.00275577 0)
(0.0997525 0.00266574 0)
(0.0997271 0.00257662 0)
(0.0997046 0.00248856 0)
(0.0996849 0.00240169 0)
(0.0996679 0.00231615 0)
(0.0996534 0.00223206 0)
(0.0996415 0.0021495 0)
(0.0996319 0.00206856 0)
(0.0996246 0.00198927 0)
(0.0996193 0.00191167 0)
(0.0996161 0.00183577 0)
(0.0996147 0.00176157 0)
(0.099615 0.00168907 0)
(0.0996169 0.0016183 0)
(0.0996202 0.00154926 0)
(0.0996249 0.00148197 0)
(0.0996308 0.00141643 0)
(0.0996378 0.00135267 0)
(0.0996457 0.0012907 0)
(0.0996545 0.00123053 0)
(0.0996641 0.00117215 0)
(0.0996744 0.00111559 0)
(0.0996852 0.00106082 0)
(0.0996966 0.00100785 0)
(0.0997083 0.000956671 0)
(0.0997203 0.000907261 0)
(0.100665 0.00438371 0)
(0.100582 0.00429462 0)
(0.100502 0.00420404 0)
(0.100425 0.00411212 0)
(0.100352 0.00401903 0)
(0.100282 0.00392494 0)
(0.100216 0.00383001 0)
(0.100153 0.00373443 0)
(0.100094 0.00363835 0)
(0.100038 0.00354194 0)
(0.0999854 0.00344538 0)
(0.0999364 0.00334881 0)
(0.0998908 0.0032524 0)
(0.0998486 0.00315629 0)
(0.0998097 0.00306062 0)
(0.099774 0.00296551 0)
(0.0997415 0.00287109 0)
(0.0997122 0.00277748 0)
(0.0996859 0.00268481 0)
(0.0996626 0.0025932 0)
(0.0996422 0.0025028 0)
(0.0996246 0.00241374 0)
(0.0996097 0.00232616 0)
(0.0995974 0.00224018 0)
(0.0995876 0.00215588 0)
(0.0995801 0.00207334 0)
(0.0995748 0.0019926 0)
(0.0995716 0.00191369 0)
(0.0995704 0.0018366 0)
(0.0995709 0.00176133 0)
(0.0995731 0.0016879 0)
(0.0995769 0.0016163 0)
(0.0995821 0.00154653 0)
(0.0995885 0.0014786 0)
(0.0995962 0.00141253 0)
(0.0996048 0.00134831 0)
(0.0996144 0.00128596 0)
(0.0996248 0.00122548 0)
(0.099636 0.00116686 0)
(0.0996477 0.00111011 0)
(0.09966 0.00105521 0)
(0.0996727 0.00100215 0)
(0.0996857 0.00095093 0)
(0.099699 0.000901516 0)
(0.10057 0.00447306 0)
(0.100487 0.00437873 0)
(0.100407 0.00428303 0)
(0.100331 0.00418612 0)
(0.100259 0.00408816 0)
(0.10019 0.00398935 0)
(0.100125 0.00388985 0)
(0.100064 0.00378984 0)
(0.100006 0.00368949 0)
(0.0999514 0.00358898 0)
(0.0999007 0.00348848 0)
(0.0998535 0.00338814 0)
(0.0998098 0.00328812 0)
(0.0997695 0.00318856 0)
(0.0997326 0.00308961 0)
(0.099699 0.00299139 0)
(0.0996686 0.00289401 0)
(0.0996415 0.00279761 0)
(0.0996174 0.0027023 0)
(0.0995963 0.00260822 0)
(0.0995782 0.00251549 0)
(0.0995628 0.00242427 0)
(0.0995502 0.00233469 0)
(0.0995401 0.00224685 0)
(0.0995325 0.00216085 0)
(0.0995272 0.00207677 0)
(0.0995241 0.00199462 0)
(0.099523 0.00191443 0)
(0.0995238 0.0018362 0)
(0.0995264 0.00175993 0)
(0.0995307 0.0016856 0)
(0.0995364 0.00161321 0)
(0.0995434 0.00154277 0)
(0.0995518 0.00147426 0)
(0.0995612 0.00140769 0)
(0.0995716 0.00134306 0)
(0.0995828 0.00128038 0)
(0.0995949 0.00121963 0)
(0.0996076 0.00116081 0)
(0.0996208 0.00110391 0)
(0.0996345 0.00104892 0)
(0.0996486 0.000995822 0)
(0.099663 0.000944591 0)
(0.0996776 0.000895208 0)
(0.100469 0.00456209 0)
(0.100386 0.00446233 0)
(0.100308 0.00436132 0)
(0.100233 0.00425925 0)
(0.100161 0.00415628 0)
(0.100094 0.00405261 0)
(0.10003 0.00394842 0)
(0.0999701 0.00384389 0)
(0.0999139 0.00373919 0)
(0.0998614 0.0036345 0)
(0.0998126 0.00352999 0)
(0.0997673 0.00342583 0)
(0.0997257 0.00332216 0)
(0.0996876 0.00321914 0)
(0.0996529 0.00311689 0)
(0.0996215 0.00301555 0)
(0.0995935 0.00291522 0)
(0.0995687 0.00281603 0)
(0.099547 0.0027181 0)
(0.0995283 0.00262156 0)
(0.0995125 0.00252655 0)
(0.0994996 0.0024332 0)
(0.0994893 0.00234164 0)
(0.0994816 0.002252 0)
(0.0994763 0.00216435 0)
(0.0994733 0.00207876 0)
(0.0994725 0.00199525 0)
(0.0994736 0.00191385 0)
(0.0994766 0.00183454 0)
(0.0994813 0.0017573 0)
(0.0994876 0.00168214 0)
(0.0994953 0.00160902 0)
(0.0995044 0.00153794 0)
(0.0995146 0.00146891 0)
(0.0995258 0.0014019 0)
(0.099538 0.00133691 0)
(0.099551 0.00127394 0)
(0.0995647 0.00121297 0)
(0.099579 0.00115399 0)
(0.0995938 0.00109699 0)
(0.099609 0.00104195 0)
(0.0996245 0.000988844 0)
(0.0996402 0.000937647 0)
(0.0996561 0.000888332 0)
(0.100362 0.00465053 0)
(0.10028 0.00454515 0)
(0.100202 0.00443866 0)
(0.100129 0.00433126 0)
(0.100059 0.00422315 0)
(0.0999927 0.0041145 0)
(0.0999306 0.00400551 0)
(0.0998724 0.00389636 0)
(0.0998181 0.00378722 0)
(0.0997676 0.00367829 0)
(0.0997209 0.00356973 0)
(0.0996779 0.0034617 0)
(0.0996386 0.00335436 0)
(0.0996028 0.00324785 0)
(0.0995705 0.00314231 0)
(0.0995417 0.00303784 0)
(0.0995161 0.00293457 0)
(0.0994938 0.00283261 0)
(0.0994747 0.00273209 0)
(0.0994585 0.00263312 0)
(0.0994453 0.00253586 0)
(0.0994349 0.00244042 0)
(0.0994271 0.00234694 0)
(0.0994219 0.00225554 0)
(0.0994191 0.00216629 0)
(0.0994185 0.00207925 0)
(0.09942 0.00199445 0)
(0.0994234 0.00191189 0)
(0.0994287 0.00183155 0)
(0.0994356 0.00175342 0)
(0.0994441 0.00167746 0)
(0.0994539 0.00160368 0)
(0.0994649 0.00153203 0)
(0.0994771 0.00146252 0)
(0.0994902 0.00139512 0)
(0.0995042 0.00132982 0)
(0.0995189 0.00126661 0)
(0.0995343 0.00120548 0)
(0.0995502 0.00114639 0)
(0.0995666 0.00108934 0)
(0.0995833 0.00103429 0)
(0.0996002 0.000981215 0)
(0.0996173 0.00093009 0)
(0.0996345 0.000880881 0)
(0.100249 0.00473812 0)
(0.100168 0.00462691 0)
(0.100092 0.00451477 0)
(0.100019 0.00440191 0)
(0.099951 0.0042885 0)
(0.0998868 0.00417476 0)
(0.0998266 0.00406086 0)
(0.0997705 0.00394701 0)
(0.0997184 0.00383338 0)
(0.0996701 0.00372015 0)
(0.0996258 0.00360749 0)
(0.0995853 0.00349557 0)
(0.0995484 0.00338454 0)
(0.0995152 0.00327454 0)
(0.0994856 0.00316569 0)
(0.0994594 0.00305812 0)
(0.0994366 0.00295192 0)
(0.099417 0.00284723 0)
(0.0994005 0.00274414 0)
(0.0993871 0.0026428 0)
(0.0993765 0.00254332 0)
(0.0993688 0.00244584 0)
(0.0993637 0.0023505 0)
(0.099361 0.00225739 0)
(0.0993608 0.0021666 0)
(0.0993627 0.00207818 0)
(0.0993667 0.00199214 0)
(0.0993726 0.00190848 0)
(0.0993802 0.00182719 0)
(0.0993894 0.00174822 0)
(0.0994 0.00167155 0)
(0.099412 0.00159715 0)
(0.0994251 0.00152499 0)
(0.0994392 0.00145506 0)
(0.0994543 0.00138733 0)
(0.0994702 0.00132178 0)
(0.0994867 0.00125839 0)
(0.0995038 0.00119714 0)
(0.0995214 0.00113799 0)
(0.0995393 0.00108093 0)
(0.0995575 0.00102592 0)
(0.0995759 0.000972925 0)
(0.0995944 0.000921915 0)
(0.099613 0.000872851 0)
(0.100129 0.00482454 0)
(0.10005 0.00470732 0)
(0.0999752 0.00458937 0)
(0.0999045 0.00447088 0)
(0.0998381 0.00435207 0)
(0.099776 0.00423312 0)
(0.099718 0.00411423 0)
(0.0996642 0.0039956 0)
(0.0996145 0.00387741 0)
(0.0995689 0.00375984 0)
(0.0995272 0.00364306 0)
(0.0994893 0.00352724 0)
(0.0994553 0.00341251 0)
(0.0994249 0.00329902 0)
(0.0993981 0.00318689 0)
(0.0993748 0.00307623 0)
(0.0993548 0.00296714 0)
(0.0993381 0.00285974 0)
(0.0993245 0.00275414 0)
(0.0993139 0.00265046 0)
(0.0993062 0.00254883 0)
(0.0993013 0.00244937 0)
(0.099299 0.00235222 0)
(0.0992991 0.00225748 0)
(0.0993015 0.00216521 0)
(0.0993061 0.00207547 0)
(0.0993126 0.00198827 0)
(0.099321 0.00190359 0)
(0.0993311 0.0018214 0)
(0.0993426 0.00174166 0)
(0.0993555 0.00166434 0)
(0.0993697 0.0015894 0)
(0.099385 0.0015168 0)
(0.0994012 0.00144651 0)
(0.0994182 0.00137851 0)
(0.099436 0.00131277 0)
(0.0994544 0.00124926 0)
(0.0994732 0.00118794 0)
(0.0994925 0.00112879 0)
(0.099512 0.00107176 0)
(0.0995318 0.00101684 0)
(0.0995516 0.000963968 0)
(0.0995715 0.000913114 0)
(0.0995914 0.000864236 0)
(0.100003 0.00490944 0)
(0.0999257 0.00478604 0)
(0.0998527 0.00466212 0)
(0.0997841 0.00453789 0)
(0.09972 0.00441354 0)
(0.0996602 0.00428929 0)
(0.0996048 0.00416534 0)
(0.0995536 0.00404187 0)
(0.0995067 0.00391908 0)
(0.0994638 0.00379714 0)
(0.099425 0.00367622 0)
(0.0993902 0.00355648 0)
(0.0993591 0.00343807 0)
(0.0993318 0.00332111 0)
(0.099308 0.00320572 0)
(0.0992878 0.00309201 0)
(0.0992709 0.00298008 0)
(0.0992572 0.00287002 0)
(0.0992467 0.00276196 0)
(0.0992392 0.002656 0)
(0.0992345 0.00255227 0)
(0.0992326 0.00245091 0)
(0.0992332 0.00235202 0)
(0.0992361 0.00225571 0)
(0.0992414 0.00216205 0)
(0.0992487 0.00207106 0)
(0.0992579 0.00198277 0)
(0.0992689 0.00189714 0)
(0.0992814 0.00181413 0)
(0.0992954 0.00173371 0)
(0.0993107 0.00165581 0)
(0.0993272 0.00158039 0)
(0.0993446 0.00150742 0)
(0.0993629 0.00143685 0)
(0.099382 0.00136864 0)
(0.0994017 0.00130277 0)
(0.099422 0.00123919 0)
(0.0994426 0.00117786 0)
(0.0994636 0.00111876 0)
(0.0994847 0.00106183 0)
(0.099506 0.00100704 0)
(0.0995274 0.000954336 0)
(0.0995487 0.000903683 0)
(0.0995699 0.000855033 0)
(0.0998704 0.00499247 0)
(0.099795 0.00486273 0)
(0.0997242 0.0047327 0)
(0.0996581 0.00460259 0)
(0.0995965 0.00447261 0)
(0.0995395 0.00434298 0)
(0.0994869 0.00421389 0)
(0.0994387 0.00408554 0)
(0.0993947 0.00395812 0)
(0.099355 0.00383179 0)
(0.0993194 0.00370673 0)
(0.0992877 0.00358309 0)
(0.0992599 0.00346101 0)
(0.0992359 0.00334062 0)
(0.0992154 0.00322201 0)
(0.0991985 0.0031053 0)
(0.0991849 0.00299057 0)
(0.0991745 0.00287792 0)
(0.0991673 0.00276746 0)
(0.0991629 0.0026593 0)
(0.0991614 0.00255355 0)
(0.0991626 0.00245035 0)
(0.0991662 0.0023498 0)
(0.0991722 0.00225201 0)
(0.0991804 0.00215702 0)
(0.0991905 0.00206489 0)
(0.0992025 0.00197558 0)
(0.0992162 0.00188908 0)
(0.0992313 0.00180534 0)
(0.0992479 0.0017243 0)
(0.0992656 0.00164591 0)
(0.0992844 0.00157009 0)
(0.0993041 0.00149682 0)
(0.0993246 0.00142603 0)
(0.0993457 0.00135769 0)
(0.0993674 0.00129175 0)
(0.0993895 0.00122817 0)
(0.099412 0.00116689 0)
(0.0994347 0.00110789 0)
(0.0994575 0.00105111 0)
(0.0994804 0.000996505 0)
(0.0995032 0.000944023 0)
(0.099526 0.000893617 0)
(0.0995486 0.000845237 0)
(0.0997307 0.00507323 0)
(0.0996577 0.00493699 0)
(0.0995896 0.00480072 0)
(0.0995262 0.00466463 0)
(0.0994676 0.00452894 0)
(0.0994136 0.00439386 0)
(0.0993642 0.00425959 0)
(0.0993193 0.00412633 0)
(0.0992787 0.00399426 0)
(0.0992424 0.00386355 0)
(0.0992103 0.00373436 0)
(0.0991821 0.00360685 0)
(0.0991578 0.00348114 0)
(0.0991373 0.00335735 0)
(0.0991204 0.00323558 0)
(0.099107 0.00311593 0)
(0.0990969 0.00299847 0)
(0.09909 0.00288331 0)
(0.0990861 0.00277052 0)
(0.0990852 0.00266023 0)
(0.099087 0.00255255 0)
(0.0990914 0.00244759 0)
(0.0990983 0.00234548 0)
(0.0991074 0.00224629 0)
(0.0991186 0.00215008 0)
(0.0991317 0.00205687 0)
(0.0991466 0.00196664 0)
(0.099163 0.00187937 0)
(0.0991809 0.00179498 0)
(0.0992 0.00171341 0)
(0.0992202 0.0016346 0)
(0.0992414 0.00155847 0)
(0.0992634 0.00148497 0)
(0.0992861 0.00141405 0)
(0.0993094 0.00134564 0)
(0.0993331 0.0012797 0)
(0.0993571 0.00121618 0)
(0.0993814 0.00115503 0)
(0.0994059 0.00109619 0)
(0.0994303 0.00103961 0)
(0.0994548 0.000985239 0)
(0.0994792 0.000933025 0)
(0.0995033 0.000882912 0)
(0.0995273 0.000834846 0)
(0.0995839 0.0051513 0)
(0.0995138 0.00500842 0)
(0.0994487 0.00486579 0)
(0.0993885 0.00472363 0)
(0.0993332 0.00458216 0)
(0.0992827 0.00444159 0)
(0.0992368 0.00430211 0)
(0.0991955 0.00416393 0)
(0.0991586 0.00402721 0)
(0.0991261 0.00389214 0)
(0.0990977 0.00375885 0)
(0.0990733 0.00362751 0)
(0.0990529 0.00349822 0)
(0.0990361 0.0033711 0)
(0.099023 0.00324625 0)
(0.0990133 0.00312373 0)
(0.0990069 0.00300363 0)
(0.0990037 0.00288602 0)
(0.0990034 0.00277101 0)
(0.0990061 0.00265868 0)
(0.0990114 0.00254916 0)
(0.0990192 0.00244255 0)
(0.0990294 0.00233895 0)
(0.0990417 0.00223846 0)
(0.0990561 0.00214112 0)
(0.0990723 0.00204694 0)
(0.0990901 0.0019559 0)
(0.0991094 0.00186794 0)
(0.0991301 0.001783 0)
(0.0991518 0.00170099 0)
(0.0991746 0.00162185 0)
(0.0991983 0.00154549 0)
(0.0992226 0.00147185 0)
(0.0992476 0.00140087 0)
(0.099273 0.00133247 0)
(0.0992988 0.00126661 0)
(0.0993248 0.00120322 0)
(0.0993509 0.00114224 0)
(0.0993771 0.00108363 0)
(0.0994033 0.00102731 0)
(0.0994294 0.000973232 0)
(0.0994552 0.000921337 0)
(0.0994809 0.000871565 0)
(0.0995062 0.000823858 0)
(0.0994298 0.00522621 0)
(0.099363 0.00507658 0)
(0.0993014 0.0049275 0)
(0.0992449 0.0047792 0)
(0.0991933 0.0046319 0)
(0.0991466 0.0044858 0)
(0.0991047 0.00434111 0)
(0.0990674 0.00419801 0)
(0.0990345 0.00405668 0)
(0.099006 0.00391728 0)
(0.0989817 0.00377995 0)
(0.0989614 0.00364484 0)
(0.098945 0.00351205 0)
(0.0989323 0.00338168 0)
(0.0989232 0.00325382 0)
(0.0989175 0.00312852 0)
(0.0989151 0.00300587 0)
(0.0989157 0.00288593 0)
(0.0989193 0.00276879 0)
(0.0989256 0.00265453 0)
(0.0989345 0.00254327 0)
(0.0989459 0.00243511 0)
(0.0989596 0.00233015 0)
(0.0989753 0.00222846 0)
(0.098993 0.00213009 0)
(0.0990123 0.00203505 0)
(0.0990332 0.00194328 0)
(0.0990555 0.00185474 0)
(0.099079 0.00176935 0)
(0.0991035 0.001687 0)
(0.0991289 0.00160763 0)
(0.0991551 0.00153113 0)
(0.0991818 0.00145744 0)
(0.0992091 0.00138647 0)
(0.0992367 0.00131816 0)
(0.0992645 0.00125245 0)
(0.0992925 0.00118926 0)
(0.0993205 0.00112853 0)
(0.0993485 0.00107021 0)
(0.0993764 0.00101421 0)
(0.0994041 0.000960479 0)
(0.0994315 0.000908955 0)
(0.0994586 0.000859573 0)
(0.0994852 0.000812272 0)
(0.0992685 0.00529748 0)
(0.0992055 0.005141 0)
(0.0991478 0.0049854 0)
(0.0990953 0.00483091 0)
(0.0990479 0.00467776 0)
(0.0990054 0.00452614 0)
(0.0989678 0.00437624 0)
(0.0989348 0.00422826 0)
(0.0989064 0.00408236 0)
(0.0988823 0.00393869 0)
(0.0988624 0.0037974 0)
(0.0988465 0.0036586 0)
(0.0988344 0.00352239 0)
(0.0988261 0.00338887 0)
(0.0988212 0.0032581 0)
(0.0988197 0.00313015 0)
(0.0988214 0.00300506 0)
(0.0988261 0.00288289 0)
(0.0988336 0.00276373 0)
(0.0988439 0.00264766 0)
(0.0988566 0.00253477 0)
(0.0988717 0.00242517 0)
(0.098889 0.00231896 0)
(0.0989082 0.0022162 0)
(0.0989292 0.00211692 0)
(0.0989519 0.00202111 0)
(0.0989759 0.00192874 0)
(0.0990013 0.00183973 0)
(0.0990277 0.00175398 0)
(0.099055 0.0016714 0)
(0.0990831 0.00159189 0)
(0.0991118 0.00151535 0)
(0.099141 0.00144169 0)
(0.0991706 0.00137084 0)
(0.0992004 0.0013027 0)
(0.0992304 0.00123722 0)
(0.0992604 0.0011743 0)
(0.0992903 0.00111389 0)
(0.0993201 0.00105592 0)
(0.0993497 0.0010003 0)
(0.099379 0.000946977 0)
(0.0994079 0.000895878 0)
(0.0994364 0.000846936 0)
(0.0994645 0.000800085 0)
(0.10474 0.00409595 0)
(0.104569 0.00414256 0)
(0.104399 0.0041821 0)
(0.10423 0.00421501 0)
(0.104063 0.00424164 0)
(0.103897 0.0042623 0)
(0.103734 0.00427722 0)
(0.103574 0.00428662 0)
(0.103417 0.00429066 0)
(0.103263 0.00428951 0)
(0.103112 0.00428333 0)
(0.102966 0.00427229 0)
(0.102823 0.00425658 0)
(0.102683 0.00423639 0)
(0.102548 0.00421196 0)
(0.102417 0.00418351 0)
(0.10229 0.0041513 0)
(0.102167 0.00411559 0)
(0.102048 0.00407666 0)
(0.101934 0.00403476 0)
(0.101823 0.00399016 0)
(0.101717 0.00394313 0)
(0.101615 0.00389392 0)
(0.101517 0.00384277 0)
(0.101423 0.00378992 0)
(0.101332 0.00373559 0)
(0.104812 0.0042709 0)
(0.104633 0.00431723 0)
(0.104454 0.00435588 0)
(0.104276 0.00438736 0)
(0.1041 0.00441207 0)
(0.103927 0.00443037 0)
(0.103756 0.00444256 0)
(0.103588 0.00444891 0)
(0.103424 0.00444963 0)
(0.103264 0.00444493 0)
(0.103107 0.00443501 0)
(0.102954 0.00442008 0)
(0.102805 0.00440034 0)
(0.102661 0.00437602 0)
(0.102521 0.00434738 0)
(0.102386 0.00431467 0)
(0.102255 0.00427816 0)
(0.102128 0.00423813 0)
(0.102006 0.00419486 0)
(0.101889 0.00414865 0)
(0.101776 0.00409976 0)
(0.101667 0.00404848 0)
(0.101563 0.00399506 0)
(0.101463 0.00393977 0)
(0.101367 0.00388285 0)
(0.101276 0.00382452 0)
(0.104884 0.00445505 0)
(0.104695 0.00450099 0)
(0.104507 0.0045386 0)
(0.10432 0.00456842 0)
(0.104136 0.00459094 0)
(0.103954 0.00460657 0)
(0.103775 0.00461568 0)
(0.1036 0.00461859 0)
(0.103428 0.00461559 0)
(0.10326 0.00460693 0)
(0.103097 0.00459286 0)
(0.102938 0.00457361 0)
(0.102784 0.00454943 0)
(0.102635 0.00452059 0)
(0.10249 0.00448734 0)
(0.10235 0.00444999 0)
(0.102215 0.00440881 0)
(0.102085 0.0043641 0)
(0.10196 0.00431617 0)
(0.10184 0.00426532 0)
(0.101724 0.00421184 0)
(0.101613 0.00415602 0)
(0.101507 0.00409813 0)
(0.101405 0.00403845 0)
(0.101308 0.00397721 0)
(0.101215 0.00391467 0)
(0.104954 0.00464888 0)
(0.104756 0.0046943 0)
(0.104558 0.00473066 0)
(0.104362 0.00475857 0)
(0.104168 0.00477858 0)
(0.103977 0.00479118 0)
(0.10379 0.00479683 0)
(0.103607 0.0047959 0)
(0.103428 0.00478875 0)
(0.103253 0.00477568 0)
(0.103083 0.00475701 0)
(0.102918 0.004733 0)
(0.102759 0.00470395 0)
(0.102604 0.00467014 0)
(0.102454 0.00463189 0)
(0.10231 0.00458948 0)
(0.102171 0.00454325 0)
(0.102038 0.0044935 0)
(0.101909 0.00444056 0)
(0.101786 0.00438475 0)
(0.101668 0.00432636 0)
(0.101554 0.0042657 0)
(0.101446 0.00420306 0)
(0.101343 0.00413872 0)
(0.101244 0.00407293 0)
(0.10115 0.00400593 0)
(0.105023 0.00485292 0)
(0.104814 0.0048976 0)
(0.104606 0.00493245 0)
(0.1044 0.00495814 0)
(0.104197 0.00497529 0)
(0.103997 0.00498448 0)
(0.103801 0.00498624 0)
(0.10361 0.00498103 0)
(0.103423 0.00496926 0)
(0.103241 0.00495133 0)
(0.103065 0.00492758 0)
(0.102893 0.00489835 0)
(0.102728 0.00486396 0)
(0.102568 0.00482475 0)
(0.102414 0.00478104 0)
(0.102265 0.00473317 0)
(0.102122 0.00468148 0)
(0.101985 0.0046263 0)
(0.101853 0.00456798 0)
(0.101727 0.00450685 0)
(0.101606 0.00444323 0)
(0.101491 0.00437743 0)
(0.101381 0.00430975 0)
(0.101276 0.00424047 0)
(0.101176 0.00416987 0)
(0.101081 0.0040982 0)
(0.105088 0.00506771 0)
(0.104868 0.00511137 0)
(0.10465 0.0051444 0)
(0.104434 0.0051675 0)
(0.104221 0.00518139 0)
(0.104012 0.00518673 0)
(0.103807 0.00518414 0)
(0.103607 0.00517416 0)
(0.103413 0.0051573 0)
(0.103224 0.005134 0)
(0.10304 0.00510467 0)
(0.102863 0.00506972 0)
(0.102691 0.00502951 0)
(0.102526 0.00498442 0)
(0.102367 0.0049348 0)
(0.102214 0.00488102 0)
(0.102067 0.00482345 0)
(0.101926 0.00476245 0)
(0.101792 0.00469837 0)
(0.101663 0.00463156 0)
(0.10154 0.00456236 0)
(0.101422 0.0044911 0)
(0.101311 0.00441808 0)
(0.101204 0.0043436 0)
(0.101103 0.00426793 0)
(0.101007 0.00419134 0)
(0.105151 0.00529383 0)
(0.104919 0.00533613 0)
(0.10469 0.00536692 0)
(0.104463 0.00538701 0)
(0.10424 0.00539718 0)
(0.104021 0.00539819 0)
(0.103808 0.00539074 0)
(0.103599 0.00537548 0)
(0.103397 0.00535299 0)
(0.1032 0.00532379 0)
(0.10301 0.00528836 0)
(0.102826 0.00524717 0)
(0.102649 0.00520063 0)
(0.102478 0.00514916 0)
(0.102314 0.00509315 0)
(0.102157 0.005033 0)
(0.102006 0.00496911 0)
(0.101862 0.00490186 0)
(0.101724 0.00483162 0)
(0.101593 0.00475876 0)
(0.101467 0.00468364 0)
(0.101348 0.00460658 0)
(0.101235 0.00452792 0)
(0.101127 0.00444794 0)
(0.101025 0.00436695 0)
(0.100928 0.00428519 0)
(0.105209 0.00553192 0)
(0.104966 0.0055724 0)
(0.104724 0.00560049 0)
(0.104487 0.00561706 0)
(0.104253 0.00562299 0)
(0.104025 0.00561913 0)
(0.103802 0.00560627 0)
(0.103585 0.00558516 0)
(0.103374 0.00555647 0)
(0.10317 0.0055208 0)
(0.102973 0.00547872 0)
(0.102782 0.00543073 0)
(0.102599 0.00537732 0)
(0.102423 0.00531895 0)
(0.102255 0.00525605 0)
(0.102093 0.00518905 0)
(0.101939 0.00511838 0)
(0.101791 0.00504444 0)
(0.10165 0.00496764 0)
(0.101516 0.00488834 0)
(0.101389 0.00480693 0)
(0.101268 0.00472374 0)
(0.101153 0.00463911 0)
(0.101044 0.00455335 0)
(0.100942 0.00446676 0)
(0.100844 0.00437958 0)
(0.105264 0.00578265 0)
(0.105007 0.00582078 0)
(0.104754 0.0058456 0)
(0.104505 0.00585807 0)
(0.104261 0.00585916 0)
(0.104022 0.00584982 0)
(0.103789 0.00583094 0)
(0.103563 0.00580337 0)
(0.103344 0.00576786 0)
(0.103132 0.00572513 0)
(0.102928 0.00567579 0)
(0.102731 0.00562042 0)
(0.102542 0.00555957 0)
(0.102361 0.00549375 0)
(0.102188 0.00542343 0)
(0.102022 0.00534908 0)
(0.101864 0.00527115 0)
(0.101713 0.00519008 0)
(0.10157 0.00510627 0)
(0.101434 0.00502014 0)
(0.101304 0.00493206 0)
(0.101182 0.00484239 0)
(0.101066 0.00475148 0)
(0.100956 0.00465964 0)
(0.100852 0.00456717 0)
(0.100755 0.00447433 0)
(0.105313 0.00604675 0)
(0.105044 0.00608188 0)
(0.104778 0.00610279 0)
(0.104517 0.00611049 0)
(0.104261 0.00610607 0)
(0.104012 0.00609057 0)
(0.103769 0.00606499 0)
(0.103534 0.00603028 0)
(0.103306 0.00598731 0)
(0.103087 0.00593684 0)
(0.102876 0.00587961 0)
(0.102672 0.00581624 0)
(0.102478 0.00574736 0)
(0.102291 0.0056735 0)
(0.102113 0.00559521 0)
(0.101944 0.00551298 0)
(0.101782 0.00542729 0)
(0.101628 0.00533861 0)
(0.101482 0.00524736 0)
(0.101344 0.00515398 0)
(0.101213 0.00505885 0)
(0.101089 0.00496235 0)
(0.100972 0.00486483 0)
(0.100861 0.0047666 0)
(0.100757 0.00466797 0)
(0.100659 0.00456922 0)
(0.105358 0.006325 0)
(0.105074 0.0063564 0)
(0.104795 0.00637262 0)
(0.104521 0.0063748 0)
(0.104254 0.00636411 0)
(0.103994 0.00634169 0)
(0.103741 0.00630867 0)
(0.103496 0.00626609 0)
(0.10326 0.00621492 0)
(0.103033 0.00615602 0)
(0.102814 0.0060902 0)
(0.102605 0.00601818 0)
(0.102404 0.00594062 0)
(0.102213 0.00585812 0)
(0.10203 0.00577127 0)
(0.101857 0.00568061 0)
(0.101692 0.00558664 0)
(0.101535 0.00548986 0)
(0.101387 0.00539072 0)
(0.101246 0.00528966 0)
(0.101114 0.00518709 0)
(0.100989 0.00508339 0)
(0.100871 0.00497891 0)
(0.10076 0.004874 0)
(0.100656 0.00476894 0)
(0.100558 0.00466401 0)
(0.105397 0.00661825 0)
(0.105099 0.00664504 0)
(0.104805 0.00665573 0)
(0.104518 0.00665152 0)
(0.104239 0.00663369 0)
(0.103967 0.00660352 0)
(0.103704 0.00656223 0)
(0.10345 0.00651097 0)
(0.103205 0.00645082 0)
(0.10297 0.00638273 0)
(0.102744 0.00630759 0)
(0.102528 0.0062262 0)
(0.102322 0.00613928 0)
(0.102126 0.0060475 0)
(0.101939 0.00595148 0)
(0.101761 0.00585181 0)
(0.101593 0.00574902 0)
(0.101434 0.00564363 0)
(0.101283 0.00553612 0)
(0.101141 0.00542694 0)
(0.101007 0.00531652 0)
(0.100881 0.00520525 0)
(0.100763 0.00509348 0)
(0.100652 0.00498157 0)
(0.100548 0.00486979 0)
(0.100451 0.00475844 0)
(0.10543 0.00692736 0)