/*--------------------------------*- C++ -*----------------------------------*\
| =========                 |                                                 |
| \\      /  F ield         | OpenFOAM: The Open Source CFD Toolbox           |
|  \\    /   O peration     | Version:  2412                                  |
|   \\  /    A nd           | Website:  www.openfoam.com                      |
|    \\/     M anipulation  |                                                 |
\*---------------------------------------------------------------------------*/
FoamFile
{
    version     2.0;
    format      ascii;
    arch        "LSB;label=32;scalar=64";
    class       surfaceScalarField;
    location    "18.5";
    object      phi;
}
// * * * * * * * * * * * * * * * * * * * * * * * * * * * * * * * * * * * * * //

dimensions      [0 3 -1 0 0 0 0];

oriented        oriented;

internalField   nonuniform List<scalar> 
10422
(
0.00576993
-5.33398e-05
-0.00576748
5.08882e-05
0.00577171
-3.9381e-05
3.76013e-05
0.00577282
-2.53356e-05
2.42259e-05
0.00577326
-1.12287e-05
1.07916e-05
0.00577302
2.90433e-06
-2.66729e-06
0.00577211
1.7022e-05
-1.61133e-05
0.00577054
3.10841e-05
-2.95094e-05
0.00576831
4.50523e-05
-4.28204e-05
0.00576543
5.88898e-05
-5.60123e-05
0.00576192
7.25611e-05
-6.90527e-05
0.0057578
8.60322e-05
-8.19102e-05
0.00575308
9.92706e-05
-9.45549e-05
0.0057478
0.000112245
-0.000106958
0.00574196
0.000124925
-0.000119091
0.00573561
0.000137281
-0.000130927
0.00572876
0.000149284
-0.000142439
0.00572146
0.000160906
-0.0001536
0.00571372
0.000172118
-0.000164383
0.00570559
0.000182894
-0.000174761
0.00569709
0.000193205
-0.000184709
0.00568827
0.000203025
-0.0001942
0.00567915
0.00021233
-0.00020321
0.00566977
0.000221096
-0.000211716
0.000229304
-0.000219698
0.00578384
-5.59296e-05
-0.00578125
0.00578572
-4.12595e-05
0.00578689
-2.64994e-05
0.00578733
-1.16756e-05
0.00578706
3.17542e-06
0.00578608
1.80085e-05
0.00578438
3.27795e-05
0.00578199
4.7447e-05
0.0057789
6.19707e-05
0.00577515
7.63121e-05
0.00577075
9.04341e-05
0.00576572
0.000104301
0.00576009
0.00011788
0.00575387
0.000131137
0.00574711
0.00014404
0.00573984
0.000156559
0.00573208
0.000168664
0.00572388
0.000180324
0.00571526
0.000191511
0.00570627
0.000202197
0.00569693
0.000212356
0.0056873
0.000221961
0.00567741
0.000230991
0.000239426
0.00579847
-5.86718e-05
-0.00579572
0.00580045
-4.32446e-05
0.00580167
-2.77226e-05
0.00580213
-1.21339e-05
0.00580182
3.48273e-06
0.00580075
1.90782e-05
0.00579893
3.46046e-05
0.00579636
5.00165e-05
0.00579306
6.52702e-05
0.00578905
8.03237e-05
0.00578435
9.51367e-05
0.00577898
0.00010967
0.00577297
0.000123888
0.00576635
0.000137754
0.00575916
0.000151235
0.00575142
0.000164296
0.00574318
0.000176906
0.00573447
0.000189034
0.00572533
0.000200649
0.00571581
0.000211723
0.00570593
0.000222229
0.00569575
0.000232141
0.0056853
0.000241438
0.000250101
0.00581384
-6.15797e-05
-0.00581094
0.00581594
-4.53451e-05
0.00581723
-2.90102e-05
0.0058177
-1.26049e-05
0.00581736
3.8287e-06
0.0058162
2.02374e-05
0.00581423
3.6569e-05
0.00581148
5.2774e-05
0.00580794
6.88048e-05
0.00580365
8.46155e-05
0.00579862
0.000100162
0.00579289
0.000115403
0.00578648
0.000130298
0.00577943
0.000144808
0.00577177
0.000158896
0.00576353
0.000172527
0.00575477
0.000185668
0.00574552
0.000198284
0.00573583
0.000210344
0.00572573
0.00022182
0.00571528
0.000232684
0.00570451
0.00024291
0.00569347
0.000252478
0.000261369
0.00583003
-6.46669e-05
-0.00582694
0.00583225
-4.75702e-05
0.00583361
-3.0367e-05
0.0058341
-1.30897e-05
0.00583371
4.21625e-06
0.00583245
2.1493e-05
0.00583034
3.86835e-05
0.00582738
5.57339e-05
0.00582359
7.25923e-05
0.005819
8.92088e-05
0.00581362
0.000105535
0.0058075
0.000121526
0.00580066
0.000137138
0.00579314
0.000152329
0.00578498
0.000167059
0.00577621
0.000181291
0.00576689
0.000194987
0.00575706
0.000208114
0.00574677
0.000220638
0.00573606
0.000232531
0.00572498
0.000243763
0.00571358
0.000254311
0.0057019
0.000264153
0.000273273
0.00584708
-6.79477e-05
-0.0058438
0.00584944
-4.99296e-05
0.00585087
-3.17985e-05
0.00585137
-1.35892e-05
0.00585094
4.64891e-06
0.00584958
2.28527e-05
0.0058473
4.096e-05
0.00584412
5.89121e-05
0.00584006
7.66526e-05
0.00583514
9.41267e-05
0.0058294
0.000111283
0.00582285
0.00012807
0.00581555
0.000144442
0.00580752
0.000160353
0.00579882
0.000175761
0.00578949
0.000190625
0.00577957
0.000204905
0.00576912
0.000218567
0.00575818
0.000231575
0.00574681
0.0002439
0.00573506
0.000255513
0.00572298
0.00026639
0.00571062
0.000276511
0.00028586
0.00586505
-7.14378e-05
-0.00586156
0.00586755
-5.24338e-05
0.00586906
-3.331e-05
0.00586958
-1.41039e-05
0.0058691
5.13085e-06
0.00586762
2.43254e-05
0.00586517
4.3412e-05
0.00586176
6.23265e-05
0.0058574
8.10074e-05
0.00585213
9.93951e-05
0.00584598
0.000117433
0.00583899
0.000135067
0.00583118
0.000152245
0.00582262
0.000168919
0.00581334
0.000185043
0.00580339
0.000200573
0.00579283
0.000215468
0.0057817
0.00022969
0.00577008
0.000243203
0.005758
0.000255977
0.00574553
0.000267983
0.00573272
0.000279198
0.00571963
0.000289601
0.000299181
0.005884
-7.51539e-05
-0.00588029
0.00588666
-5.50941e-05
0.00588826
-3.49074e-05
0.00588879
-1.46343e-05
0.00588825
5.66706e-06
0.00588666
2.59213e-05
0.00588402
4.60545e-05
0.00588035
6.59968e-05
0.00587567
8.5681e-05
0.00587002
0.000105042
0.00586344
0.000124019
0.00585595
0.000142553
0.00584761
0.000160587
0.00583846
0.000178069
0.00582856
0.00019495
0.00581795
0.000211182
0.00580669
0.000226723
0.00579485
0.000241533
0.00578248
0.000255574
0.00576964
0.000268815
0.00575639
0.000281228
0.0057428
0.000292789
0.00572892
0.00030348
0.00031329
0.00590401
-7.91143e-05
-0.00590005
0.00590684
-5.79226e-05
0.00590853
-3.65966e-05
0.00590907
-1.51802e-05
0.00590848
6.26348e-06
0.00590675
2.7652e-05
0.0059039
4.89047e-05
0.00589995
6.99454e-05
0.00589493
9.07008e-05
0.00588887
0.000111101
0.00588181
0.000131077
0.0058738
0.000150567
0.00586487
0.00016951
0.00585509
0.000187849
0.00584451
0.00020553
0.00583319
0.000222505
0.00582119
0.000238726
0.00580857
0.000254152
0.0057954
0.000268745
0.00578174
0.000282473
0.00576766
0.000295306
0.00575323
0.000307222
0.00573851
0.000318205
0.000328246
0.00592514
-8.33385e-05
-0.00592092
0.00592815
-6.0932e-05
0.00592994
-3.83836e-05
0.0059305
-1.57409e-05
0.00592984
6.9273e-06
0.00592796
2.9531e-05
0.00592488
5.1982e-05
0.00592063
7.41973e-05
0.00591523
9.60971e-05
0.00590873
0.000117605
0.00590116
0.000138647
0.00589257
0.000159155
0.00588302
0.000179063
0.00587256
0.00019831
0.00586125
0.000216839
0.00584916
0.000234596
0.00583635
0.000251534
0.00582289
0.000267608
0.00580886
0.000282778
0.00579432
0.000297011
0.00577935
0.000310279
0.00576401
0.000322561
0.00574837
0.00033384
0.00034411
0.00594749
-8.78476e-05
-0.00594298
0.00595069
-6.41356e-05
0.00595258
-4.02742e-05
0.00595316
-1.63149e-05
0.00595242
7.66719e-06
0.00595037
3.15739e-05
0.00594705
5.53087e-05
0.00594246
7.87811e-05
0.00593665
0.000101904
0.00592966
0.000124595
0.00592154
0.000146773
0.00591233
0.000168364
0.00590209
0.000189298
0.00589089
0.000209509
0.0058788
0.000228935
0.00586587
0.00024752
0.0058522
0.000265212
0.00583784
0.000281965
0.00582288
0.000297739
0.00580739
0.000312499
0.00579145
0.000326218
0.00577514
0.000338873
0.00575853
0.000350452
0.00036095
0.00597113
-9.26639e-05
-0.00596631
0.00597454
-6.75474e-05
0.00597654
-4.22741e-05
0.00597712
-1.68998e-05
0.0059763
8.49368e-06
0.00597407
3.37987e-05
0.00597047
5.89101e-05
0.00596552
8.37289e-05
0.00595927
0.000108161
0.00595175
0.000132115
0.00594301
0.000155505
0.00593313
0.000178251
0.00592215
0.000200276
0.00591015
0.000221509
0.0058972
0.000241885
0.00588338
0.000261344
0.00586876
0.000279831
0.00585343
0.000297298
0.00583746
0.000313703
0.00582095
0.000329011
0.00580397
0.000343194
0.00578661
0.000356233
0.00576895
0.000368115
0.000378837
0.00599616
-9.78114e-05
-0.00599101
0.00599979
-7.11819e-05
0.00600191
-4.43883e-05
0.0060025
-1.74914e-05
0.00600157
9.41954e-06
0.00599914
3.62268e-05
0.00599524
6.28153e-05
0.00598989
8.90773e-05
0.00598314
0.00011491
0.00597504
0.000140215
0.00596565
0.000164899
0.00595502
0.000188875
0.00594324
0.00021206
0.00593037
0.000234379
0.00591649
0.000255761
0.00590169
0.000276143
0.00588606
0.000295467
0.00586967
0.000313684
0.00585263
0.000330749
0.00583501
0.000346626
0.00581692
0.00036129
0.00579843
0.00037472
0.00577964
0.000386906
0.000397849
0.00602269
-0.000103315
-0.00601718
0.00602656
-7.50536e-05
0.00602879
-4.6621e-05
0.00602939
-1.80839e-05
0.00602834
1.04604e-05
0.00602569
3.88829e-05
0.00602145
6.70579e-05
0.00601565
9.4868e-05
0.00600836
0.000122201
0.00599963
0.000148951
0.00598951
0.000175017
0.00597808
0.000200304
0.00596542
0.000224724
0.0059516
0.000248195
0.00593672
0.000270643
0.00592086
0.000292001
0.00590412
0.000312207
0.0058866
0.000331209
0.00586838
0.000348963
0.00584957
0.000365433
0.00583027
0.000380591
0.00581057
0.000394419
0.00579057
0.00040691
0.000418067
0.00605083
-0.000109202
-0.00604494
0.00605495
-7.91768e-05
0.00605731
-4.8975e-05
0.00605789
-1.86689e-05
0.00605672
1.16352e-05
0.0060538
4.17962e-05
0.00604919
7.16767e-05
0.0060429
0.000101149
0.00603502
0.000130091
0.00602558
0.000158387
0.00601467
0.000185928
0.00600236
0.000212613
0.00598873
0.000238347
0.00597389
0.000263043
0.00595791
0.00028662
0.0059409
0.000309008
0.00592297
0.000330143
0.00590421
0.000349969
0.00588473
0.000368442
0.00586464
0.000385525
0.00584404
0.000401191
0.00582303
0.000415424
0.00580172
0.000428218
0.000439578
0.00608071
-0.000115499
-0.00607441
0.0060851
-8.35654e-05
0.00608757
-5.14511e-05
0.00608814
-1.92349e-05
0.00608681
1.29676e-05
0.0060836
4.50016e-05
0.00607856
7.67169e-05
0.00607173
0.000107974
0.00606318
0.000138641
0.00605298
0.000168593
0.00604119
0.000197712
0.00602792
0.000225888
0.00601325
0.000253021
0.00599727
0.000279017
0.0059801
0.00030379
0.00596184
0.000327265
0.00594261
0.000349376
0.00592251
0.000370067
0.00590167
0.000389289
0.00588019
0.000407006
0.00585819
0.000423192
0.00583578
0.000437833
0.00581307
0.000450925
0.000462477
0.00611245
-0.000122234
-0.00610572
0.00611712
-8.82317e-05
0.00611972
-5.40475e-05
0.00612025
-1.97659e-05
0.00611873
1.44866e-05
0.00611519
4.85405e-05
0.00610968
8.22315e-05
0.00610224
0.000115408
0.00609296
0.000147926
0.0060819
0.000179652
0.00606915
0.000210456
0.00605482
0.000240223
0.006039
0.000268844
0.00602179
0.00029622
0.00600332
0.00032226
0.0059837
0.000346883
0.00596306
0.00037002
0.00594151
0.000391614
0.00591919
0.000411615
0.00589621
0.000429986
0.0058727
0.000446703
0.00584878
0.000461753
0.00582457
0.000475135
0.000486863
0.00614621
-0.00613902
0.00615117
0.00615388
0.00615435
0.00615261
0.00614869
0.00614264
0.00613452
0.00612442
0.00611242
0.00609861
0.00608311
0.00606602
0.00604747
0.00031477
0.00602759
0.00034215
0.00600649
0.000367982
0.00598431
0.000392197
0.00596119
0.000414733
0.00593726
0.000435542
0.00591266
0.000454586
0.00588752
0.000471842
0.00586198
0.000487298
0.00583615
0.000500959
0.00051284
0.00607433
0.00605289
0.00603018
0.00600633
0.00598151
0.00595585
0.0059295
0.00590261
0.00587532
0.00584776
0.00543047
-0.0001412
-0.00541752
0.000128258
0.00545646
-0.000143645
0.00011765
0.00549524
-0.000145533
0.000106751
0.00554639
-0.000146733
9.55877e-05
0.00560932
-0.000147118
8.41886e-05
0.00568331
-0.00014657
7.25829e-05
-0.000144973
6.07972e-05
0.00544133
-0.000154536
-0.00542799
0.00546774
-0.000170061
0.00550697
-0.000184764
0.00555859
-0.000198355
0.00562203
-0.000210549
0.00569654
-0.000221082
-0.000229689
0.00545268
-0.000168293
-0.00543892
0.00547954
-0.000196926
0.00551925
-0.000224473
0.00557138
-0.000250482
0.00563535
-0.000274515
0.00571042
-0.000296156
-0.000314991
0.00546455
-0.000182501
-0.00545034
0.0054919
-0.000224273
0.00553212
-0.000264695
0.00558479
-0.000303153
0.00564933
-0.000339055
0.005725
-0.000371833
-0.000400922
0.00547696
-0.000197193
-0.00546227
0.00550483
-0.000252137
0.0055456
-0.000305465
0.00559885
-0.000356406
0.00566401
-0.00040421
0.00574033
-0.000448158
-0.000487532
0.00548995
-0.000212407
-0.00547474
0.00551837
-0.000280557
0.00555974
-0.000346827
0.00561361
-0.000410285
0.00567943
-0.000470027
0.00575646
-0.000525182
-0.000574873
0.00550355
-0.000228183
-0.00548778
0.00553257
-0.000309575
0.00557457
-0.000388824
0.00562912
-0.000464839
0.00569565
-0.000536558
0.00577343
-0.000602958
-0.000663003
0.00551779
-0.000244565
-0.00550141
0.00554746
-0.000339238
0.00559014
-0.000431506
0.00564542
-0.000520118
0.00571272
-0.000603858
0.0057913
-0.000681547
-0.000751985
0.00553271
-0.0002616
-0.00551568
0.00556307
-0.000369596
0.00560649
-0.000474926
0.00566255
-0.000576181
0.00573068
-0.000671987
0.00581015
-0.000761012
-0.000841887
0.00554836
-0.000279341
-0.00553061
0.00557946
-0.000400704
0.00562368
-0.000519143
0.00568059
-0.000633088
0.00574961
-0.000741011
0.00583002
-0.000841424
-0.000932784
0.00556476
-0.000297846
-0.00554626
0.00559668
-0.000432623
0.00564176
-0.000564219
0.00569958
-0.000690908
0.00576957
-0.000811003
0.00585101
-0.000922859
-0.00102476
0.00558199
-0.000317176
-0.00556266
0.00561478
-0.000465419
0.00566079
-0.000610226
0.00571959
-0.000749714
0.00579063
-0.000882039
0.00587317
-0.0010054
-0.00111789
0.00560008
-0.000337402
-0.00557985
0.00563382
-0.000499163
0.00568083
-0.000657238
0.0057407
-0.000809586
0.00581287
-0.000954207
0.00589661
-0.00108914
-0.00121229
0.00561909
-0.000358598
-0.00559789
0.00565386
-0.000533935
0.00570196
-0.000705339
0.00576299
-0.000870613
0.00583638
-0.0010276
0.00592142
-0.00117418
-0.00130806
0.00563909
-0.000380847
-0.00561684
0.00567498
-0.000569822
0.00572426
-0.00075462
0.00578653
-0.000932891
0.00586125
-0.00110232
0.0059477
-0.00126062
-0.0014053
0.00566014
-0.000404236
-0.00563675
0.00569724
-0.000606916
0.0057478
-0.000805181
0.00581143
-0.000996524
0.00588759
-0.00117848
0.00597556
-0.00134859
-0.00150416
0.00568231
-0.000428871
-0.00565768
0.00572072
-0.000645325
0.00577267
-0.000857131
0.00583778
-0.00106163
0.0059155
-0.0012562
0.00600512
-0.00143821
-0.00160475
0.00570569
-0.000454862
-0.0056797
0.00574553
-0.000685164
0.00579899
-0.000910593
0.00586569
-0.00112834
0.00594511
-0.00133561
0.00603653
-0.00152963
-0.00170724
0.00573035
-0.00048233
-0.00570288
0.00577174
-0.000726561
0.00582685
0.0058953
0.00597655
0.00606992
0.00575639
-0.0057273
0.00560829
-0.000120271
-0.00568052
0.000192505
0.00554645
-0.000122687
0.000184519
0.00549587
-0.000125527
0.000176114
0.00545722
-0.00012865
0.000167301
0.00543104
-0.000131919
0.000158091
0.00541774
-0.000135195
0.000148501
-0.000138336
0.00013855
0.00561699
-4.82178e-05
-0.00568904
0.00555537
-6.10714e-05
0.00550504
-7.51892e-05
0.00546667
-9.02802e-05
0.0054408
-0.000106058
0.00542784
-0.000122228
-0.000138489
0.00562603
2.36309e-05
-0.00569788
0.00556464
3.15201e-07
0.00551458
-2.51254e-05
0.00547651
-5.22128e-05
0.00545098
-8.05298e-05
0.00543838
-0.000109624
-0.000139035
0.00563539
9.52632e-05
-0.00570702
0.00557428
6.14233e-05
0.0055245
2.46521e-05
0.00548676
-1.44703e-05
0.00546159
-5.536e-05
0.00544937
-9.74103e-05
-0.000140001
0.00564511
0.000166647
-0.00571649
0.00558427
0.000122257
0.00553482
7.4107e-05
0.00549743
2.29171e-05
0.00547265
-3.05764e-05
0.00546085
-8.56167e-05
-0.000141419
0.00565518
0.000237761
-0.00572629
0.00559465
0.000182784
0.00554554
0.000123215
0.00550854
5.99191e-05
0.00548417
-6.20969e-06
0.00547283
-7.42776e-05
-0.000143325
0.00566561
0.00030858
-0.00573643
0.00560542
0.000242976
0.00555669
0.000171946
0.0055201
9.65074e-05
0.0054962
1.76977e-05
0.00548534
-6.34259e-05
-0.000145757
0.00567643
0.000379074
-0.00574693
0.00561661
0.0003028
0.00556829
0.000220267
0.00553215
0.000132643
0.00550873
4.11151e-05
0.00549841
-5.31042e-05
-0.000148756
0.00568764
0.000449211
-0.00575778
0.00562822
0.000362221
0.00558035
0.00026814
0.0055447
0.000168288
0.00552181
6.40011e-05
0.00551207
-4.33553e-05
-0.000152368
0.00569925
0.000518954
-0.005769
0.00564027
0.000421202
0.00559289
0.000315524
0.00555778
0.000203399
0.00553547
8.63098e-05
0.00552634
-3.42264e-05
-0.000156643
0.00571128
0.000588263
-0.00578059
0.00565279
0.000479699
0.00560593
0.000362375
0.00557141
0.000237928
0.00554972
0.000107991
0.00554127
-2.57689e-05
-0.000161635
0.00572374
0.000657091
-0.00579257
0.00566578
0.000537664
0.00561951
0.000408641
0.00558562
0.000271823
0.00556462
0.00012899
0.00555689
-1.80391e-05
-0.000167405
0.00573664
0.000725388
-0.00580494
0.00567926
0.000595044
0.00563364
0.000454268
0.00560043
0.000305025
0.00558018
0.000149246
0.00557324
-1.10968e-05
-0.000174018
0.00575
0.000793097
-0.00581771
0.00569326
0.000651779
0.00564834
0.000499192
0.00561589
0.000337469
0.00559645
0.000168687
0.00559036
-5.00507e-06
-0.000181551
0.00576382
0.000860152
-0.00583087
0.00570779
0.000707804
0.00566364
0.000543345
0.00563202
0.000369086
0.00561346
0.000187246
0.00560831
1.44705e-07
-0.000190078
0.00577811
0.000926482
-0.00584444
0.00572287
0.000763042
0.00567956
0.000586652
0.00564885
0.000399797
0.00563125
0.000204851
0.00562716
4.23613e-06
-0.000199674
0.00579288
0.000992002
-0.0058584
0.00573851
0.000817411
0.00569614
0.000629023
0.00566643
0.00042951
0.00564989
0.000221392
0.0056469
7.2239e-06
-0.000210454
0.00580814
0.00105662
-0.00587276
0.00575474
0.000870813
0.0057134
0.000670363
0.00568478
0.000458127
0.0056694
0.000236774
0.00566763
8.99653e-06
-0.000222522
0.00582389
0.00577156
0.00573136
0.00570395
0.00568984
0.0056894
9.43689e-06
-0.000235997
0.00571229
0.00537964
-0.00024383
0.000238073
0.00538565
-0.000247453
0.000241452
0.0053919
-0.000250993
0.000244744
0.0053984
-0.000254434
0.000247932
0.00540515
-0.000257758
0.000251002
0.00541216
-0.00026095
0.000253938
0.00541943
-0.000263993
0.000256724
0.00542696
-0.000266871
0.000259345
0.00543474
-0.000269565
0.000261783
0.00544278
-0.000272057
0.000264021
0.00545106
-0.000274327
0.00026604
0.0054596
-0.000276355
0.000267822
0.00546837
-0.00027812
0.000269347
0.00547738
-0.000279602
0.000270596
0.00548661
-0.000280779
0.000271548
0.00549605
-0.000281629
0.000272185
0.0055057
-0.000282132
0.000272486
0.00551553
-0.000282265
0.000272431
0.00552554
-0.000282007
0.000272
0.0055357
-0.000281338
0.000271175
0.005546
-0.000280236
0.000269937
0.00555641
-0.000278682
0.000268267
0.00556692
-0.000276657
0.000266149
0.0055775
-0.000274144
0.000263567
0.00558812
-0.000271126
0.000260506
0.00559875
-0.000267589
0.000256954
0.00560938
-0.000263518
0.000252897
0.00561995
-0.000258904
0.000248328
0.00563045
-0.000253736
0.000243238
0.00564084
-0.000248009
0.000237622
0.00565108
-0.000241716
0.000231476
0.00566113
-0.000234855
0.000224797
0.00567097
-0.00022742
0.000217586
-0.000219388
0.000209836
0.00537599
-0.000249665
0.00538208
-0.000253546
0.00538844
-0.000257349
0.00539506
-0.000261056
0.00540195
-0.00026465
0.00540912
-0.000268114
0.00541656
-0.000271432
0.00542427
-0.000274585
0.00543226
-0.000277553
0.00544052
-0.000280318
0.00544905
-0.000282858
0.00545785
-0.000285153
0.00546691
-0.000287179
0.00547622
-0.000288915
0.00548578
-0.000290337
0.00549557
-0.000291423
0.00550559
-0.000292148
0.00551581
-0.00029249
0.00552623
-0.000292426
0.00553683
-0.000291932
0.00554758
-0.000290987
0.00555846
-0.000289567
0.00556946
-0.000287653
0.00558054
-0.000285226
0.00559168
-0.000282265
0.00560285
-0.000278756
0.00561401
-0.000274682
0.00562514
-0.000270031
0.00563619
-0.000264792
0.00564714
-0.000258958
0.00565795
-0.00025252
0.00566856
-0.000245474
0.00567895
-0.000237807
-0.000229478
0.00537209
-0.000255572
0.00537827
-0.000259725
0.00538473
-0.000263805
0.00539147
-0.000267794
0.00539849
-0.000271674
0.0054058
-0.000275429
0.00541341
-0.000279039
0.00542131
-0.000282485
0.00542951
-0.000285748
0.005438
-0.000288807
0.00544678
-0.000291638
0.00545584
-0.000294221
0.0054652
-0.00029653
0.00547482
-0.000298542
0.00548472
-0.000300233
0.00549487
-0.000301577
0.00550527
-0.000302548
0.00551591
-0.000303123
0.00552675
-0.000303275
0.0055378
-0.000302979
0.00554903
-0.000302211
0.0055604
-0.000300947
0.00557191
-0.000299163
0.00558353
-0.000296838
0.00559521
-0.000293952
0.00560694
-0.000290485
0.00561868
-0.000286421
0.0056304
-0.000281744
0.00564205
-0.000276443
0.00565359
-0.000270506
0.005665
-0.000263926
0.00567622
-0.000256693
0.0056872
-0.00024879
-0.000240152
0.00536793
-0.000261546
0.00537419
-0.000265985
0.00538074
-0.000270357
0.00538759
-0.000274644
0.00539474
-0.000278828
0.00540221
-0.00028289
0.00540998
-0.000286812
0.00541807
-0.000290572
0.00542647
-0.00029415
0.00543519
-0.000297524
0.00544422
-0.00030067
0.00545356
-0.000303563
0.00546321
-0.000306179
0.00547316
-0.000308493
0.0054834
-0.000310476
0.00549393
-0.000312103
0.00550473
-0.000313346
0.00551578
-0.000314178
0.00552708
-0.000314571
0.0055386
-0.000314498
0.00555032
-0.000313931
0.00556222
-0.000312845
0.00557427
-0.000311213
0.00558644
-0.000309012
0.00559871
-0.000306219
0.00561103
-0.000302812
0.00562338
-0.000298771
0.00563572
-0.000294081
0.005648
-0.000288726
0.00566019
-0.000282694
0.00567224
-0.000275974
0.0056841
-0.000268555
0.00569572
-0.000260411
-0.00025145
0.00536349
-0.000267578
0.00536982
-0.000272318
0.00537646
-0.000276998
0.00538342
-0.000281601
0.0053907
-0.000286106
0.0053983
-0.000290495
0.00540624
-0.000294748
0.00541451
-0.000298843
0.00542312
-0.000302758
0.00543206
-0.00030647
0.00544135
-0.000309954
0.00545097
-0.000313184
0.00546092
-0.000316133
0.0054712
-0.000318773
0.0054818
-0.000321076
0.00549271
-0.000323014
0.00550392
-0.000324556
0.00551542
-0.000325672
0.00552718
-0.000326334
0.00553919
-0.00032651
0.00555143
-0.000326171
0.00556387
-0.000325288
0.00557649
-0.000323833
0.00558926
-0.000321778
0.00560214
-0.000319099
0.0056151
-0.00031577
0.0056281
-0.000311771
0.0056411
-0.000307081
0.00565405
-0.000301683
0.00566692
-0.000295564
0.00567966
-0.00028871
0.00569221
-0.000281105
0.00570452
-0.000272716
-0.000263422
0.00535876
-0.000273661
0.00536515
-0.000278716
0.00537188
-0.000283721
0.00537893
-0.000288656
0.00538633
-0.000293502
0.00539407
-0.000298237
0.00540217
-0.000302842
0.00541062
-0.000307295
0.00541943
-0.000311571
0.00542861
-0.000315646
0.00543815
-0.000319493
0.00544805
-0.000323086
0.00545831
-0.000326395
0.00546893
-0.00032939
0.00547989
-0.000332043
0.0054912
-0.00033432
0.00550283
-0.000336191
0.00551478
-0.000337622
0.00552703
-0.000338581
0.00553956
-0.000339036
0.00555234
-0.000338954
0.00556536
-0.000338303
0.00557857
-0.000337051
0.00559197
-0.000335168
0.00560549
-0.000332627
0.00561912
-0.000329398
0.00563281
-0.000325459
0.00564652
-0.000320786
0.00566019
-0.00031536
0.00567379
-0.000309164
0.00568726
-0.000302182
0.00570055
-0.000294394
0.00571359
-0.000285757
-0.000276118
0.00535371
-0.000279785
0.00536017
-0.000285171
0.00536696
-0.000290518
0.00537411
-0.000295804
0.00538162
-0.000301008
0.00538949
-0.000306111
0.00539774
-0.000311091
0.00540637
-0.000315924
0.00541538
-0.000320586
0.00542479
-0.000325049
0.00543458
-0.000329287
0.00544477
-0.000333271
0.00545534
-0.000336969
0.0054663
-0.000340351
0.00547764
-0.000343384
0.00548936
-0.000346033
0.00550143
-0.000348264
0.00551385
-0.000350043
0.0055266
-0.000351334
0.00553967
-0.0003521
0.00555302
-0.000352306
0.00556663
-0.000351918
0.00558048
-0.000350899
0.00559453
-0.000349218
0.00560875
-0.00034684
0.00562309
-0.000343737
0.00563751
-0.00033988
0.00565196
-0.000335244
0.00566641
-0.000329805
0.00568079
-0.000323544
0.00569505
-0.000316442
0.00570913
-0.000308475
0.00572296
-0.000299588
-0.000289593
0.00534834
-0.000285939
0.00535484
-0.000291673
0.0053617
-0.000297378
0.00536893
-0.000303033
0.00537654
-0.000308617
0.00538454
-0.00031411
0.00539294
-0.000319487
0.00540174
-0.000324725
0.00541095
-0.000329798
0.00542058
-0.000334678
0.00543063
-0.000339336
0.0054411
-0.000343741
0.00545199
-0.000347861
0.0054633
-0.000351661
0.00547502
-0.000355107
0.00548715
-0.000358163
0.00549968
-0.000360791
0.00551259
-0.000362952
0.00552586
-0.00036461
0.00553949
-0.000365723
0.00555343
-0.000366254
0.00556768
-0.000366162
0.00558219
-0.000365411
0.00559693
-0.000363962
0.00561187
-0.000361779
0.00562697
-0.000358829
0.00564217
-0.00035508
0.00565742
-0.000350501
0.00567269
-0.000345068
0.0056879
-0.000338757
0.005703
-0.000331546
0.00571793
-0.000323405
0.00573261
-0.000314267
-0.000303906
0.00534263
-0.000292111
0.00534916
-0.000298209
0.00535608
-0.00030429
0.00536338
-0.000310335
0.00537108
-0.000316319
0.00537919
-0.000322223
0.00538773
-0.000328022
0.00539669
-0.000333691
0.0054061
-0.000339203
0.00541595
-0.000344529
0.00542625
-0.000349637
0.00543701
-0.000354496
0.00544822
-0.00035907
0.00545988
-0.000363324
0.00547199
-0.000367221
0.00548455
-0.00037072
0.00549754
-0.000373782
0.00551095
-0.000376366
0.00552477
-0.000378429
0.00553898
-0.000379929
0.00555355
-0.000380823
0.00556845
-0.000381067
0.00558366
-0.00038062
0.00559914
-0.00037944
0.00561485
-0.000377486
0.00563074
-0.00037472
0.00564676
-0.000371107
0.00566288
-0.000366612
0.00567901
-0.000361207
0.00569512
-0.000354863
0.00571113
-0.000347555
0.00572697
-0.000339247
0.00574256
-0.000329859
-0.00031912
0.00533655
-0.000298288
0.00534311
-0.000304767
0.00535006
-0.000311243
0.00535742
-0.000317696
0.00536521
-0.000324103
0.00537342
-0.000330441
0.00538209
-0.000336687
0.00539121
-0.000342814
0.0054008
-0.000348794
0.00541087
-0.000354596
0.00542142
-0.000360187
0.00543246
-0.000365534
0.00544399
-0.000370599
0.00545601
-0.000375345
0.00546852
-0.00037973
0.00548151
-0.000383714
0.00549498
-0.000387252
0.00550891
-0.0003903
0.0055233
-0.000392812
0.00553811
-0.000394741
0.00555333
-0.000396041
0.00556892
-0.000396664
0.00558487
-0.000396562
0.00560112
-0.000395691
0.00561764
-0.000394004
0.00563437
-0.000391458
0.00565128
-0.000388014
0.0056683
-0.000383632
0.00568537
-0.000378279
0.00570243
-0.000371924
0.00571941
-0.000364535
0.00573624
-0.000356069
0.00575281
-0.000346433
-0.000335306
0.00533009
-0.000304456
0.00533666
-0.000311332
0.00534364
-0.000318221
0.00535105
-0.000325103
0.0053589
-0.000331955
0.00536721
-0.000338752
0.00537599
-0.000345471
0.00538526
-0.000352085
0.00539503
-0.000358562
0.00540531
-0.000364873
0.0054161
-0.000370982
0.00542742
-0.000376853
0.00543927
-0.000382447
0.00545165
-0.000387724
0.00546456
-0.000392641
0.005478
-0.000397152
0.00549195
-0.000401211
0.00550642
-0.000404769
0.00552139
-0.000407777
0.00553683
-0.000410183
0.00555273
-0.000411937
0.00556905
-0.000412984
0.00558576
-0.000413275
0.00560283
-0.000412757
0.0056202
-0.000411379
0.00563784
-0.000409095
0.00565568
-0.000405856
0.00567367
-0.000401622
0.00569174
-0.000396351
0.00570983
-0.000390008
0.00572785
-0.000382556
0.00574572
-0.000373945
0.00576336
-0.000364065
-0.000352541
0.00532324
-0.000310598
0.0053298
-0.000317888
0.00533679
-0.00032521
0.00534423
-0.000332541
0.00535213
-0.00033986
0.00536052
-0.000347141
0.00536941
-0.000354361
0.00537881
-0.000361489
0.00538875
-0.000368497
0.00539923
-0.00037535
0.00541026
-0.000382012
0.00542185
-0.000388446
0.00543401
-0.000394611
0.00544675
-0.000400463
0.00546007
-0.000405956
0.00547396
-0.000411042
0.00548842
-0.00041567
0.00550344
-0.000419789
0.005519
-0.000423344
0.0055351
-0.000426279
0.0055517
-0.000428538
0.00556878
-0.000430063
0.0055863
-0.000430796
0.00560422
-0.000430682
0.00562251
-0.000429662
0.0056411
-0.000427684
0.00565994
-0.000424695
0.00567896
-0.000420645
0.0056981
-0.00041549
0.00571728
-0.000409188
0.00573642
-0.000401696
0.00575543
-0.000392956
0.0057742
-0.000382838
-0.000370908
0.00531598
-0.000316696
0.00532251
-0.000324418
0.00532949
-0.00033219
0.00533694
-0.000339993
0.00534488
-0.000347801
0.00535333
-0.000355593
0.00536231
-0.00036334
0.00537184
-0.000371015
0.00538192
-0.000378585
0.00539259
-0.000386016
0.00540385
-0.000393271
0.00541571
-0.000400309
0.00542819
-0.000407087
0.00544128
-0.000413559
0.005455
-0.000419677
0.00546935
-0.000425388
0.00548432
-0.000430639
0.0054999
-0.000435372
0.00551609
-0.00043953
0.00553286
-0.000443051
0.0055502
-0.000445873
0.00556807
-0.000447932
0.00558644
-0.000449167
0.00560526
-0.000449511
0.00562451
-0.000448904
0.00564411
-0.000447284
0.005664
-0.000444591
0.00568413
-0.000440772
0.00570441
-0.000435772
0.00572477
-0.000429545
0.00574511
-0.00042204
0.00576535
-0.00041319
0.00578535
-0.000402843
-0.000390499
0.00530828
-0.000322731
0.00531476
-0.000330901
0.00532171
-0.000339143
0.00532916
-0.000347438
0.00533712
-0.00035576
0.00534561
-0.000364087
0.00535466
-0.000372392
0.00536429
-0.000380644
0.00537452
-0.000388811
0.00538536
-0.000396857
0.00539683
-0.000404744
0.00540895
-0.000412429
0.00542174
-0.000419867
0.00543519
-0.000427009
0.00544931
-0.000433803
0.00546412
-0.000440195
0.0054796
-0.000446124
0.00549576
-0.000451532
0.00551259
-0.000456353
0.00553006
-0.000460522
0.00554816
-0.00046397
0.00556685
-0.000466629
0.00558611
-0.000468427
0.00560589
-0.000469293
0.00562615
-0.000469159
0.00564682
-0.000467955
0.00566784
-0.000465615
0.00568915
-0.000462075
0.00571065
-0.000457277
0.00573227
-0.000451163
0.00575391
-0.000443677
0.00577546
-0.00043474
0.00579679
-0.000424178
-0.000411413
0.00530013
-0.000328681
0.00530655
-0.000337315
0.00531345
-0.000346046
0.00532087
-0.000354854
0.00532882
-0.000363715
0.00533734
-0.000372604
0.00534644
-0.000381495
0.00535615
-0.000390356
0.0053665
-0.000399156
0.0053775
-0.000407857
0.00538917
-0.000416418
0.00540154
-0.000424796
0.00541461
-0.000432942
0.00542841
-0.000440806
0.00544294
-0.000448332
0.00545821
-0.000455462
0.00547421
-0.000462132
0.00549096
-0.000468278
0.00550844
-0.000473829
0.00552663
-0.000478714
0.00554552
-0.000482858
0.00556507
-0.000486186
0.00558527
-0.000488618
0.00560605
-0.000490077
0.00562737
-0.000490484
0.00564918
-0.000489762
0.0056714
-0.000487836
0.00569396
-0.000484635
0.00571678
-0.00048009
0.00573975
-0.000474136
0.00576278
-0.000466708
0.00578575
-0.000457713
0.00580852
-0.000446951
-0.000433761
0.00529152
-0.000334521
0.00529784
-0.000343636
0.00530467
-0.000352875
0.00531203
-0.000362218
0.00531996
-0.00037164
0.00532847
-0.000381118
0.00533761
-0.000390626
0.00534738
-0.000400131
0.00535782