/*--------------------------------*- C++ -*----------------------------------*\
| =========                 |                                                 |
| \\      /  F ield         | OpenFOAM: The Open Source CFD Toolbox           |
|  \\    /   O peration     | Version:  2412                                  |
|   \\  /    A nd           | Website:  www.openfoam.com                      |
|    \\/     M anipulation  |                                                 |
\*---------------------------------------------------------------------------*/
FoamFile
{
    version     2.0;
    format      ascii;
    arch        "LSB;label=32;scalar=64";
    class       volVectorField;
    location    "18.5";
    object      vorticity;
}
// * * * * * * * * * * * * * * * * * * * * * * * * * * * * * * * * * * * * * //

dimensions      [0 0 -1 0 0 0 0];

internalField   nonuniform List<vector> 
5285
(
(0 1.02292e-23 -5.80718e-07)
(0 -0 3.58354e-06)
(0 -0 7.60677e-06)
(0 -0 1.23693e-05)
(0 -0 1.82001e-05)
(0 -0 2.54886e-05)
(0 -0 3.43919e-05)
(0 -0 4.50986e-05)
(0 -0 5.77266e-05)
(0 -0 7.22996e-05)
(0 -0 8.87212e-05)
(0 -0 0.000106751)
(0 -0 0.00012599)
(0 -0 0.000145873)
(0 -0 0.000165677)
(0 -0 0.000184546)
(0 -0 0.00020153)
(0 -0 0.000215637)
(0 -0 0.000225893)
(0 -0 0.000231415)
(0 -0 0.00023148)
(0 -0 0.000225614)
(0 -0 0.00021365)
(0 -0 0.000195563)
(0 1.09756e-22 -1.2029e-06)
(0 -0 1.47308e-06)
(0 -0 5.02089e-06)
(0 -0 9.38279e-06)
(0 -0 1.50643e-05)
(0 -0 2.22289e-05)
(0 -0 3.10007e-05)
(0 -0 4.15541e-05)
(0 -0 5.39967e-05)
(0 -0 6.83443e-05)
(0 -0 8.44934e-05)
(0 -0 0.000102198)
(0 -0 0.000121056)
(0 -0 0.000140502)
(0 -0 0.000159819)
(0 -0 0.000178163)
(0 -0 0.000194602)
(0 -0 0.000208168)
(0 -0 0.000217921)
(0 -0 0.000223014)
(0 -0 0.000222765)
(0 -0 0.000216735)
(0 -0 0.000204788)
(0 -0 0.000186939)
(0 -9.88458e-23 -2.50666e-06)
(0 -0 -4.53122e-07)
(0 -0 2.57106e-06)
(0 -0 6.58228e-06)
(0 -0 1.19791e-05)
(0 -0 1.88762e-05)
(0 -0 2.73643e-05)
(0 -0 3.75977e-05)
(0 -0 4.96688e-05)
(0 -0 6.35811e-05)
(0 -0 7.92218e-05)
(0 -0 9.63398e-05)
(0 -0 0.000114532)
(0 -0 0.000133238)
(0 -0 0.000151755)
(0 -0 0.00016926)
(0 -0 0.000184852)
(0 -0 0.000197604)
(0 -0 0.000206625)
(0 -0 0.000211122)
(0 -0 0.000210467)
(0 -0 0.000204276)
(0 -0 0.000192457)
(0 -0 0.000175056)
(0 1.37284e-23 -4.22082e-06)
(0 -0 -2.64499e-06)
(0 -0 1.03205e-07)
(0 -0 3.81514e-06)
(0 -0 8.90065e-06)
(0 -0 1.54586e-05)
(0 -0 2.35609e-05)
(0 -0 3.33463e-05)
(0 -0 4.48928e-05)
(0 -0 5.8191e-05)
(0 -0 7.3119e-05)
(0 -0 8.94214e-05)
(0 -0 0.000106696)
(0 -0 0.000124394)
(0 -0 0.000141831)
(0 -0 0.000158216)
(0 -0 0.00017269)
(0 -0 0.000184381)
(0 -0 0.000192461)
(0 -0 0.000196205)
(0 -0 0.000195057)
(0 -0 0.000188697)
(0 -0 0.000177089)
(0 -0 0.000160321)
(0 2.4377e-22 -6.05021e-06)
(0 -0 -4.98823e-06)
(0 -0 -2.42824e-06)
(0 -0 1.03049e-06)
(0 -0 5.80748e-06)
(0 -0 1.19931e-05)
(0 -0 1.96459e-05)
(0 -0 2.88929e-05)
(0 -0 3.9799e-05)
(0 -0 5.2343e-05)
(0 -0 6.63946e-05)
(0 -0 8.16949e-05)
(0 -0 9.78463e-05)
(0 -0 0.000114314)
(0 -0 0.000130438)
(0 -0 0.000145468)
(0 -0 0.000158596)
(0 -0 0.000169015)
(0 -0 0.000175972)
(0 -0 0.000178826)
(0 -0 0.000177102)
(0 -0 0.000170557)
(0 -0 0.000159221)
(0 -0 0.000143228)
(0 -2.43488e-22 -7.73816e-06)
(0 -0 -7.33995e-06)
(0 -0 -4.95147e-06)
(0 -0 -1.73202e-06)
(0 -0 2.73632e-06)
(0 -0 8.53075e-06)
(0 -0 1.5695e-05)
(0 -0 2.43444e-05)
(0 -0 3.45308e-05)
(0 -0 4.62216e-05)
(0 -0 5.92783e-05)
(0 -0 7.34401e-05)
(0 -0 8.83156e-05)
(0 -0 0.000103386)
(0 -0 0.000118024)
(0 -0 0.000131519)
(0 -0 0.000143125)
(0 -0 0.000152108)
(0 -0 0.000157799)
(0 -0 0.000159649)
(0 -0 0.000157277)
(0 -0 0.000150525)
(0 -0 0.000139497)
(0 -0 0.000124379)
(0 -5.96155e-22 -9.10936e-06)
(0 -0 -9.57131e-06)
(0 -0 -7.36615e-06)
(0 -0 -4.38991e-06)
(0 -0 -2.34836e-07)
(0 -0 5.15741e-06)
(0 -0 1.18125e-05)
(0 -0 1.9832e-05)
(0 -0 2.9254e-05)
(0 -0 4.00338e-05)
(0 -0 5.20251e-05)
(0 -0 6.49654e-05)
(0 -0 7.84703e-05)
(0 -0 9.204e-05)
(0 -0 0.000105078)
(0 -0 0.000116923)
(0 -0 0.000126892)
(0 -0 0.000134328)
(0 -0 0.000138654)
(0 -0 0.000139419)
(0 -0 0.000136341)
(0 -0 0.000129358)
(0 -0 0.00011865)
(0 -0 0.000104463)
(0 6.36211e-22 -1.00546e-05)
(0 -0 -1.15949e-05)
(0 -0 -9.5872e-06)
(0 -0 -6.85929e-06)
(0 -0 -3.0183e-06)
(0 -0 1.97134e-06)
(0 -0 8.11469e-06)
(0 -0 1.54981e-05)
(0 -0 2.41443e-05)
(0 -0 3.39964e-05)
(0 -0 4.48995e-05)
(0 -0 5.65894e-05)
(0 -0 6.86891e-05)
(0 -0 8.07174e-05)
(0 -0 9.21107e-05)
(0 -0 0.000102256)
(0 -0 0.000110534)
(0 -0 0.00011637)
(0 -0 0.000119279)
(0 -0 0.000118911)
(0 -0 0.00011509)
(0 -0 0.000107849)
(0 -0 9.74506e-05)
(0 -0 8.42065e-05)
(0 -0 -1.05062e-05)
(0 -0 -1.33576e-05)
(0 -0 -1.15509e-05)
(0 -0 -9.0661e-06)
(0 -0 -5.52775e-06)
(0 -0 -9.25166e-07)
(0 -0 4.72502e-06)
(0 -0 1.1493e-05)
(0 -0 1.9386e-05)
(0 -0 2.83338e-05)
(0 -0 3.81731e-05)
(0 -0 4.86372e-05)
(0 -0 5.93555e-05)
(0 -0 6.9865e-05)
(0 -0 7.96335e-05)
(0 -0 8.80949e-05)
(0 -0 9.46936e-05)
(0 -0 9.89327e-05)
(0 -0 0.00010042)
(0 -0 9.89091e-05)
(0 -0 9.43247e-05)
(0 -0 8.67989e-05)
(0 -0 7.66814e-05)
(0 -0 6.43494e-05)
(0 8.0736e-22 -1.04076e-05)
(0 -0 -1.48169e-05)
(0 -0 -1.31976e-05)
(0 -0 -1.0933e-05)
(0 -0 -7.66705e-06)
(0 -0 -3.4146e-06)
(0 -0 1.78595e-06)
(0 -0 7.98903e-06)
(0 -0 1.51863e-05)
(0 -0 2.32942e-05)
(0 -0 3.21403e-05)
(0 -0 4.14549e-05)
(0 -0 5.08727e-05)
(0 -0 5.99461e-05)
(0 -0 6.81717e-05)
(0 -0 7.50272e-05)
(0 -0 8.00163e-05)
(0 -0 8.27169e-05)
(0 -0 8.28257e-05)
(0 -0 8.01923e-05)
(0 -0 7.48443e-05)
(0 -0 6.70097e-05)
(0 -0 5.71241e-05)
(0 -0 4.56338e-05)
(0 -1.61197e-21 -9.68127e-06)
(0 -0 -1.59105e-05)
(0 -0 -1.4443e-05)
(0 -0 -1.23522e-05)
(0 -0 -9.30334e-06)
(0 -0 -5.33692e-06)
(0 -0 -5.12251e-07)
(0 -0 5.21041e-06)
(0 -0 1.18075e-05)
(0 -0 1.91826e-05)
(0 -0 2.71537e-05)
(0 -0 3.54466e-05)
(0 -0 4.3699e-05)
(0 -0 5.14759e-05)
(0 -0 5.82982e-05)
(0 -0 6.36823e-05)
(0 -0 6.71857e-05)
(0 -0 6.84546e-05)
(0 -0 6.7267e-05)
(0 -0 6.35637e-05)
(0 -0 5.74676e-05)
(0 -0 4.92994e-05)
(0 -0 3.95787e-05)
(0 -0 2.88213e-05)
(0 1.79838e-21 -8.19436e-06)
(0 -0 -1.65194e-05)
(0 -0 -1.51393e-05)
(0 -0 -1.31449e-05)
(0 -0 -1.02249e-05)
(0 -0 -6.44505e-06)
(0 -0 -1.88391e-06)
(0 -0 3.48466e-06)
(0 -0 9.62275e-06)
(0 -0 1.64206e-05)
(0 -0 2.36857e-05)
(0 -0 3.1138e-05)
(0 -0 3.84144e-05)
(0 -0 4.50876e-05)
(0 -0 5.06981e-05)
(0 -0 5.47951e-05)
(0 -0 5.69828e-05)
(0 -0 5.69675e-05)
(0 -0 5.45994e-05)
(0 -0 4.99011e-05)
(0 -0 4.30827e-05)
(0 -0 3.45514e-05)
(0 -0 2.49071e-05)
(0 -0 1.47355e-05)
(0 -9.2252e-22 -5.71677e-06)
(0 -0 -1.64205e-05)
(0 -0 -1.50227e-05)
(0 -0 -1.30043e-05)
(0 -0 -1.0079e-05)
(0 -0 -6.33647e-06)
(0 -0 -1.87305e-06)
(0 -0 3.32474e-06)
(0 -0 9.20396e-06)
(0 -0 1.56405e-05)
(0 -0 2.24299e-05)
(0 -0 2.92823e-05)
(0 -0 3.58286e-05)
(0 -0 4.16421e-05)
(0 -0 4.62778e-05)
(0 -0 4.9313e-05)
(0 -0 5.03919e-05)
(0 -0 4.9271e-05)
(0 -0 4.58612e-05)
(0 -0 4.02557e-05)
(0 -0 3.27411e-05)
(0 -0 2.38032e-05)
(0 -0 1.41179e-05)
(0 -0 4.3402e-06)
(0 3.15734e-23 -1.86186e-06)
(0 -0 -1.52185e-05)
(0 -0 -1.36391e-05)
(0 -0 -1.14145e-05)
(0 -0 -8.28115e-06)
(0 -0 -4.35161e-06)
(0 -0 2.60455e-07)
(0 -0 5.55419e-06)
(0 -0 1.14587e-05)
(0 -0 1.78324e-05)
(0 -0 2.44548e-05)
(0 -0 3.10215e-05)
(0 -0 3.71465e-05)
(0 -0 4.23941e-05)
(0 -0 4.63309e-05)
(0 -0 4.85621e-05)
(0 -0 4.87657e-05)
(0 -0 4.67376e-05)
(0 -0 4.24353e-05)
(0 -0 3.60083e-05)
(0 -0 2.78081e-05)
(0 -0 1.83902e-05)
(0 -0 8.50236e-06)
(0 -0 -1.13162e-06)
(0 3.41251e-23 4.00004e-06)
(0 -0 -1.22574e-05)
(0 -0 -1.02557e-05)
(0 -0 -7.55297e-06)
(0 -0 -3.90269e-06)
(0 -0 5.5745e-07)
(0 -0 5.69018e-06)
(0 -0 1.14728e-05)
(0 -0 1.78092e-05)
(0 -0 2.45339e-05)
(0 -0 3.14051e-05)
(0 -0 3.80952e-05)
(0 -0 4.41795e-05)
(0 -0 4.92113e-05)
(0 -0 5.27671e-05)
(0 -0 5.44821e-05)
(0 -0 5.4065e-05)
(0 -0 5.13369e-05)
(0 -0 4.62848e-05)
(0 -0 3.90989e-05)
(0 -0 3.01834e-05)
(0 -0 2.01556e-05)
(0 -0 9.83186e-06)
(0 -0 7.16527e-09)
(0 2.50355e-21 1.28771e-05)
(0 -0 -6.54542e-06)
(0 -0 -3.81236e-06)
(0 -0 -2.27443e-07)
(0 -0 4.42013e-06)
(0 -0 9.94234e-06)
(0 -0 1.61567e-05)
(0 -0 2.30024e-05)
(0 -0 3.03458e-05)
(0 -0 3.79888e-05)
(0 -0 4.5662e-05)
(0 -0 5.30054e-05)
(0 -0 5.94974e-05)
(0 -0 6.47412e-05)
(0 -0 6.8344e-05)
(0 -0 6.99047e-05)
(0 -0 6.91556e-05)
(0 -0 6.59354e-05)
(0 -0 6.02464e-05)
(0 -0 5.23069e-05)
(0 -0 4.25656e-05)
(0 -0 3.16974e-05)
(0 -0 2.05877e-05)
(0 -0 1.01074e-05)
(0 -5.1779e-21 2.5749e-05)
(0 -0 3.25109e-06)
(0 -0 7.11924e-06)
(0 -0 1.22567e-05)
(0 -0 1.86865e-05)
(0 -0 2.60989e-05)
(0 -0 3.42293e-05)
(0 -0 4.29592e-05)
(0 -0 5.21045e-05)
(0 -0 6.14252e-05)
(0 -0 7.06248e-05)
(0 -0 7.93214e-05)
(0 -0 8.71806e-05)
(0 -0 9.2897e-05)
(0 -0 9.66961e-05)
(0 -0 9.87394e-05)
(0 -0 9.80404e-05)
(0 -0 9.45244e-05)
(0 -0 8.82347e-05)
(0 -0 7.94274e-05)
(0 -0 6.86001e-05)
(0 -0 5.64891e-05)
(0 -0 4.40527e-05)
(0 -0 3.22403e-05)
(0 2.75805e-21 4.47769e-05)
(0 -0 1.84426e-05)
(0 -0 2.44914e-05)
(0 -0 3.27112e-05)
(0 -0 4.2294e-05)
(0 -0 5.2888e-05)
(0 -0 6.41656e-05)
(0 -0 7.59499e-05)
(0 -0 8.79994e-05)
(0 -0 0.000100026)
(0 -0 0.000111725)
(0 -0 0.00012281)
(0 -0 0.00013239)
(0 -0 0.000140443)
(0 -0 0.000144862)
(0 -0 0.000146395)
(0 -0 0.000146275)
(0 -0 0.000142575)
(0 -0 0.000135538)
(0 -0 0.000125517)
(0 -0 0.000113082)
(0 -0 9.90425e-05)
(0 -0 8.44353e-05)
(0 -0 7.02965e-05)
(0 -0 0.00021507)
(0 -0 0.00022134)
(0 -0 0.000223936)
(0 -0 0.00022262)
(0 -0 0.000218413)
(0 -0 0.000210096)
(0 -0 0.000198127)
(0 -0 0.000183163)
(0 -0 0.000166091)
(0 -0 0.00014803)
(0 -0 0.000130125)
(-2.11811e-22 -9.07762e-21 1.46874e-05)
(-2.08088e-22 -9.08105e-21 1.349e-05)
(-3.67998e-22 -1.80877e-20 1.14188e-05)
(6.29681e-22 3.59102e-20 8.81595e-06)
(-5.89098e-22 -3.55531e-20 5.99111e-06)
(-1.42033e-21 -1.05843e-19 3.82978e-06)
(3.23372e-22 1.73452e-20 1.98328e-06)
(-2.29342e-22 -9.07046e-21 8.29626e-06)
(-4.4653e-22 -1.81616e-20 9.0957e-06)
(-1.13678e-21 -5.42888e-20 9.07205e-06)
(-3.71832e-22 -1.80195e-20 8.22702e-06)
(6.8411e-22 3.56307e-20 7.44396e-06)
(8.19299e-22 5.29131e-20 8.22233e-06)
(1.81755e-21 1.57814e-19 1.36432e-05)
(1.26275e-23 -1.3255e-23 1.36909e-06)
(-2.14257e-22 -9.19582e-21 3.834e-06)
(1.51047e-21 7.22502e-20 5.37881e-06)
(6.07337e-23 -7.75547e-23 6.28178e-06)
(2.33034e-21 1.43395e-19 7.64961e-06)
(4.6099e-22 1.79719e-20 1.23514e-05)
(-1.79735e-21 -1.4076e-19 2.60353e-05)
(2.42699e-22 9.06977e-21 -5.64906e-06)
(2.19387e-22 9.11998e-21 -1.8004e-06)
(-3.15226e-21 -1.45049e-19 1.19899e-06)
(3.90105e-22 1.81504e-20 3.72574e-06)
(-5.14575e-21 -2.87601e-19 7.36865e-06)
(4.04411e-21 2.67947e-19 1.68081e-05)
(5.86525e-22 1.79511e-20 4.00041e-05)
(2.37626e-22 9.09506e-21 -1.25745e-05)
(-2.58726e-22 -9.26327e-21 -7.47028e-06)
(7.27273e-21 3.08159e-19 -3.13565e-06)
(1.79048e-22 1.3646e-22 9.57979e-07)
(2.48969e-21 1.26184e-19 7.05101e-06)
(-4.22035e-21 -2.68808e-19 2.21342e-05)
(3.45159e-21 2.67722e-19 5.61466e-05)
(-2.82932e-22 -9.07838e-21 -1.94238e-05)
(-2.28666e-22 -9.00334e-21 -1.31303e-05)
(-3.67249e-21 -1.45274e-19 -7.51966e-06)
(6.17813e-21 2.90174e-19 -1.85599e-06)
(2.69892e-22 1.80404e-20 6.93335e-06)
(4.35889e-21 2.70954e-19 2.87136e-05)
(-4.51858e-21 -2.68666e-19 7.50242e-05)
(-8.64168e-22 -2.72237e-20 -2.6319e-05)
(-7.52774e-22 -2.72766e-20 -1.88516e-05)
(1.67074e-22 4.21884e-22 -1.19784e-05)
(-1.26449e-20 -5.44859e-19 -4.69289e-06)
(-4.09182e-22 -1.80023e-20 7.11076e-06)
(-9.94339e-21 -5.96952e-19 3.68221e-05)
(-7.68541e-21 -5.61515e-19 9.71311e-05)
(8.9874e-22 2.7155e-20 -3.3413e-05)
(4.11529e-22 9.08958e-21 -2.47598e-05)
(7.69197e-22 1.79742e-20 -1.66093e-05)
(7.30887e-21 2.90933e-19 -7.61654e-06)
(-2.07376e-23 -6.21824e-22 7.58509e-06)
(1.56397e-20 8.36986e-19 4.66604e-05)
(9.75742e-21 6.00279e-19 0.00012292)
(2.79427e-22 8.99353e-21 -4.08749e-05)
(3.677e-21 1.18207e-19 -3.10074e-05)
(8.74625e-21 3.10377e-19 -2.1548e-05)
(-3.25788e-22 -1.79753e-20 -1.07386e-05)
(3.9843e-22 1.88851e-20 8.3059e-06)
(-1.27208e-20 -5.8462e-19 5.83939e-05)
(1.59646e-22 -6.19305e-22 0.000152837)
(1.76014e-24 1.45416e-22 -4.88678e-05)
(-5.50933e-21 -1.63501e-19 -3.77477e-05)
(-8.74083e-21 -2.92243e-19 -2.69386e-05)
(8.69482e-21 3.29589e-19 -1.41871e-05)
(-1.63072e-21 -3.56371e-20 9.2039e-06)
(-1.17521e-20 -5.90395e-19 7.21895e-05)
(9.21403e-21 6.08696e-19 0.000187359)
(3.18049e-22 9.27377e-21 -5.75279e-05)
(-5.18635e-21 -1.55239e-19 -4.51158e-05)
(2.84863e-22 1.85266e-22 -3.29143e-05)
(-8.39145e-21 -2.92387e-19 -1.80835e-05)
(-1.41718e-20 -5.90539e-19 1.02165e-05)
(1.31404e-21 -1.9407e-20 8.82464e-05)
(-2.01797e-20 -1.17037e-18 0.000227031)
(-2.68471e-22 -9.2621e-21 -6.69658e-05)
(5.02167e-21 1.36718e-19 -5.3225e-05)
(6.05961e-23 1.05903e-22 -3.95881e-05)
(1.21909e-21 -7.12145e-22 -2.25287e-05)
(1.54042e-20 6.07532e-19 1.13077e-05)
(2.4747e-20 1.17037e-18 0.000106824)
(2.38249e-20 1.21841e-18 0.000272502)
(2.91398e-21 7.29682e-20 -7.72745e-05)
(-1.32443e-22 7.57918e-23 -6.21691e-05)
(4.46867e-22 -7.9379e-22 -4.70457e-05)
(1.70288e-20 5.92579e-19 -2.75898e-05)
(-1.60981e-20 -5.74246e-19 1.24861e-05)
(-2.96255e-20 -1.21607e-18 0.000128268)
(-1.34406e-20 -6.04528e-19 0.000324561)
(-6.69769e-21 -1.55033e-19 -8.85617e-05)
(3.39175e-22 8.5273e-21 -7.20244e-05)
(1.1188e-20 3.15251e-19 -5.53333e-05)
(-3.75563e-20 -1.18584e-18 -3.32824e-05)
(1.74675e-20 5.9348e-19 1.38262e-05)
(1.65147e-20 5.64801e-19 0.000153047)
(1.36042e-21 2.00891e-20 0.000384188)
(3.92609e-21 8.21077e-20 -0.000100887)
(-1.1585e-21 -2.70556e-20 -8.28012e-05)
(-1.16099e-20 -2.78328e-19 -6.44227e-05)
(4.03892e-20 1.18929e-18 -3.95471e-05)
(-8.73721e-22 6.51036e-22 1.549e-05)
(1.62312e-20 5.88584e-19 0.00018179)
(2.83003e-21 2.07989e-20 0.000452629)
(2.98861e-21 6.41032e-20 -0.000114215)
(1.75437e-22 -8.17969e-21 -9.44037e-05)
(-2.1078e-20 -5.72785e-19 -7.41799e-05)
(-4.31453e-20 -1.17651e-18 -4.6243e-05)
(1.09061e-21 -2.99464e-21 1.77335e-05)
(1.18497e-20 5.91545e-19 0.000215328)
(2.4667e-20 1.24008e-18 0.000531456)
(-3.26503e-21 -6.43879e-20 -0.000128519)
(1.25421e-20 2.84119e-19 -0.000106625)
(5.06391e-20 1.20598e-18 -8.42644e-05)
(2.3277e-20 5.80473e-19 -5.30749e-05)
(1.84934e-20 6.13276e-19 2.10266e-05)
(-7.0784e-20 -2.46959e-18 0.000254964)
(-6.05291e-20 -2.48126e-18 0.000622473)
(-3.56531e-22 -8.20288e-21 -0.000143802)
(-2.92065e-20 -5.9945e-19 -0.000119719)
(-2.76322e-20 -5.9577e-19 -9.48849e-05)
(-9.19763e-22 1.22913e-21 -5.96672e-05)
(-4.22071e-20 -1.20259e-18 2.61774e-05)
(4.39325e-20 1.21118e-18 0.000302117)
(3.71932e-20 1.27927e-18 0.000728478)
(4.90593e-22 8.77219e-21 -0.000160609)
(1.50746e-20 2.67989e-19 -0.000133748)
(6.50822e-22 1.90797e-20 -0.000106174)
(-1.36758e-21 -1.52669e-21 -6.63197e-05)
(2.22244e-20 6.27531e-19 3.35757e-05)
(4.38308e-20 1.2133e-18 0.000359335)
(-2.03557e-21 2.20833e-20 0.000853433)
(-5.40285e-22 -9.8705e-21 -0.000176609)
(1.65617e-20 3.08418e-19 -0.000148468)
(6.20142e-22 1.71806e-20 2.0266e-05)
(1.26898e-21 3.48769e-20 1.95122e-05)
(3.25606e-23 -2.87099e-23 1.81604e-05)
(1.11461e-21 3.56169e-20 1.70398e-05)
(5.51631e-22 1.79985e-20 1.62343e-05)
(7.61365e-22 2.71256e-20 1.57897e-05)
(-2.40124e-22 -9.0504e-21 1.52808e-05)
(-4.71695e-21 -1.20871e-19 4.1919e-06)
(-3.12203e-21 -8.7287e-20 4.17123e-06)
(2.48059e-21 7.07379e-20 3.95056e-06)
(-5.68978e-22 -1.78528e-20 3.94647e-06)
(1.74073e-21 5.39777e-20 4.58109e-06)
(5.53412e-22 1.81238e-20 5.69435e-06)
(2.46671e-22 9.08043e-21 7.05579e-06)
(5.35493e-21 1.38616e-19 -8.29986e-06)
(6.25273e-22 1.7555e-20 -8.56783e-06)
(-7.7258e-21 -2.12545e-19 -8.77832e-06)
(-2.62922e-23 2.23857e-23 -8.17067e-06)
(-2.27172e-21 -7.18131e-20 -6.58037e-06)
(-2.76172e-22 -8.9503e-21 -4.23652e-06)
(-5.22202e-22 -1.8106e-20 -1.49513e-06)
(7.08622e-22 1.74641e-20 -2.00784e-05)
(-1.20871e-20 -2.99473e-19 -2.01131e-05)
(1.06982e-20 2.84006e-19 -2.03549e-05)
(6.18665e-22 1.7887e-20 -1.93718e-05)
(4.85573e-21 1.44096e-19 -1.70769e-05)
(-1.98711e-21 -6.3146e-20 -1.37657e-05)
(-2.52483e-22 -9.11007e-21 -9.83782e-06)
(-1.31319e-20 -2.98149e-19 -3.22426e-05)
(1.2137e-20 3.00074e-19 -3.13497e-05)
(-6.19097e-21 -1.6002e-19 -3.14479e-05)
(-5.69891e-23 3.55645e-23 -3.00612e-05)
(-9.49209e-21 -2.70017e-19 -2.71046e-05)
(-3.05411e-22 -9.13839e-21 -2.29175e-05)
(8.34549e-22 2.71449e-20 -1.79402e-05)
(1.32956e-20 2.99254e-19 -4.5379e-05)
(-1.32632e-20 -3.01721e-19 -4.28846e-05)
(7.34032e-22 1.7898e-20 -4.26061e-05)
(-1.13016e-20 -2.87278e-19 -4.06628e-05)
(5.23511e-21 1.43937e-19 -3.6972e-05)
(-2.87694e-21 -8.135e-20 -3.18999e-05)
(-2.8672e-22 -9.08481e-21 -2.59073e-05)
(2.82899e-20 5.84851e-19 -5.9856e-05)
(2.47941e-20 5.51982e-19 -5.50584e-05)
(-7.56372e-22 -1.80105e-20 -5.41984e-05)
(2.4941e-20 6.10767e-19 -5.15273e-05)
(-8.46733e-23 2.20115e-22 -4.69872e-05)
(1.60604e-21 4.51098e-20 -4.09616e-05)
(1.54389e-21 4.53883e-20 -3.39228e-05)
(2.18263e-21 1.91303e-20 -7.59877e-05)
(-4.26111e-20 -8.93898e-19 -6.81487e-05)
(5.26183e-23 -1.41407e-22 -6.65048e-05)
(-1.21927e-20 -2.87623e-19 -6.29352e-05)
(5.93557e-22 1.7925e-20 -5.74071e-05)
(1.97718e-22 9.09245e-21 -5.03211e-05)
(-1.60024e-21 -4.52864e-20 -4.21699e-05)
(1.31049e-21 1.00453e-21 -9.40733e-05)
(2.82051e-20 5.73612e-19 -8.2374e-05)
(8.13758e-22 1.8158e-20 -7.9742e-05)
(-8.60242e-22 -1.78443e-20 -7.51e-05)
(-1.16139e-20 -2.71218e-19 -6.84367e-05)
(-6.88828e-21 -1.72312e-19 -6.01741e-05)
(3.74426e-22 8.94357e-21 -5.08326e-05)
(-2.9456e-20 -5.57779e-19 -0.000114413)
(3.05665e-20 5.77156e-19 -9.793e-05)
(-1.50117e-21 -3.57533e-20 -9.40969e-05)
(-1.20397e-20 -2.53369e-19 -8.81997e-05)
(1.2604e-20 2.8883e-19 -8.02513e-05)
(5.31415e-21 1.26798e-19 -7.07012e-05)
(1.12574e-24 8.14663e-23 -6.00853e-05)
(3.46315e-20 5.98189e-19 -0.000137318)
(-1.42834e-22 -1.67894e-20 -0.000115004)
(3.05367e-20 5.79442e-19 -0.00010974)
(1.44192e-20 2.89409e-19 -0.000102394)
(-1.64946e-22 5.95442e-23 -9.30037e-05)
(5.88493e-21 1.36165e-19 -8.20476e-05)
(3.72843e-22 9.16746e-21 -7.00675e-05)
(-6.86883e-20 -1.14678e-18 -0.000163115)
(-6.7057e-20 -1.18128e-18 -0.000133781)
(-2.97668e-20 -5.62681e-19 -0.000126833)
(2.9682e-20 5.80806e-19 -0.000117829)
(-5.45897e-23 5.5151e-22 -0.00010683)
(-7.02332e-21 -1.54e-19 -9.4334e-05)
(-4.84437e-22 -9.18465e-21 -8.08888e-05)
(3.62886e-20 5.84855e-19 -0.000192146)
(6.92711e-20 1.14952e-18 -0.000154441)
(3.51197e-20 6.02754e-19 -0.000145526)
(-6.24945e-20 -1.16259e-18 -0.000134635)
(-2.54251e-22 -7.98991e-22 -0.000121851)
(1.31726e-22 6.87627e-23 -0.000107659)
(-3.17375e-21 -7.29568e-20 -9.26391e-05)
(9.93057e-22 1.8838e-20 -0.000224782)
(-3.9328e-20 -6.21954e-19 -0.000177165)
(-3.4493e-20 -5.84761e-19 -0.000165958)
(6.61996e-20 1.16538e-18 -0.000152909)
(-1.47329e-20 -2.72395e-19 -0.000138125)
(4.14299e-22 8.70915e-21 -0.000122085)
(6.39398e-21 1.3677e-19 -0.000105426)
(5.40429e-22 1.91551e-20 -0.000261422)
(-4.15248e-20 -6.0832e-19 -0.00020214)
(3.65822e-22 5.31411e-22 -0.000188268)
(-6.96527e-20 -1.16859e-18 -0.000172745)
(1.79289e-20 3.08247e-19 -0.000155719)
(-1.11786e-21 -2.69671e-20 -0.000137718)
(-3.29504e-21 -6.38214e-20 -0.000119356)
(-8.80429e-20 -1.19499e-18 -0.000302476)
(-4.36649e-20 -6.14047e-19 -0.000229549)
(6.89072e-23 -1.68935e-21 -0.00021259)
(7.52386e-20 1.18871e-18 -0.000194239)
(3.49742e-20 6.04179e-19 -0.00017472)
(1.53661e-20 2.84006e-19 -0.000154636)
(-4.1908e-21 -8.20217e-20 -0.000134428)
(1.86122e-19 2.419e-18 -0.000348342)
(1.72827e-19 2.36214e-18 -0.000259669)
(6.16237e-22 2.38743e-21 -0.000239112)
(-4.00952e-20 -6.03091e-19 -0.000217503)
(-7.17948e-20 -1.15199e-18 -0.000195286)
(-3.46693e-20 -5.95081e-19 -0.000172946)
(4.49067e-21 8.148e-20 -0.000150685)
(-9.52597e-20 -1.18666e-18 -0.000398505)
(-9.43916e-20 -1.21293e-18 -0.000292051)
(4.5526e-20 6.10892e-19 -0.00026839)
(5.27588e-22 -7.83568e-23 -0.000242847)
(3.87408e-20 5.84967e-19 -0.000217126)
(1.76297e-20 2.83794e-19 -0.000192544)
(-6.40417e-22 -8.76139e-21 -0.000168458)
(2.36803e-21 2.01069e-20 -0.000455597)
(-1.05204e-19 -1.23926e-18 -0.000327547)
(-4.39821e-20 -5.76232e-19 -0.000299086)
(8.39016e-22 -7.59911e-22 -0.000270549)
(1.42782e-21 1.84106e-20 -0.000241246)
(-2.16397e-21 -2.74477e-20 -0.000212707)
(5.71096e-22 9.10326e-21 -0.000186345)
(1.18296e-22 1.01271e-20 -0.00023513)
(-6.19891e-22 -9.14354e-21 -0.000205312)
(0 -0 1.60141e-05)
(0 -0 1.35209e-05)
(0 -0 1.09436e-05)
(0 -0 9.15095e-06)
(0 -0 7.67831e-06)
(0 -0 6.21052e-06)
(0 -0 4.7676e-06)
(0 -0 3.36853e-06)
(0 -0 2.0334e-06)
(0 -0 7.81593e-07)
(0 -0 -3.70201e-07)
(0 -0 -1.40965e-06)
(0 -0 -2.32964e-06)
(0 -0 -3.12825e-06)
(0 -0 -3.80794e-06)
(0 -0 -4.37435e-06)
(0 -0 -4.83488e-06)
(0 -0 -5.1976e-06)
(0 -0 -5.47054e-06)
(0 -0 -5.66139e-06)
(0 -0 -5.77755e-06)
(0 -0 -5.82637e-06)
(0 -0 -5.81536e-06)
(0 -0 -5.75231e-06)
(0 -0 -5.64517e-06)
(0 -0 -5.50146e-06)
(0 -0 -5.3266e-06)
(0 -0 -5.11905e-06)
(0 -0 -4.85511e-06)
(0 -0 -4.44098e-06)
(0 -0 -3.56464e-06)
(0 -0 -1.27167e-06)
(0 -0 5.14958e-06)
(0 1.77041e-24 2.16445e-05)
(0 -0 1.19518e-05)
(0 -0 9.67421e-06)
(0 -0 7.3469e-06)
(0 -0 5.76966e-06)
(0 -0 4.54167e-06)
(0 -0 3.32978e-06)
(0 -0 2.15104e-06)
(0 -0 1.02148e-06)
(0 -0 -4.24804e-08)
(0 -0 -1.02564e-06)
(0 -0 -1.91591e-06)
(0 -0 -2.70566e-06)
(0 -0 -3.39245e-06)
(0 -0 -3.97866e-06)
(0 -0 -4.4705e-06)
(0 -0 -4.87649e-06)
(0 -0 -5.20598e-06)
(0 -0 -5.46787e-06)
(0 -0 -5.66987e-06)
(0 -0 -5.81832e-06)
(0 -0 -5.91832e-06)
(0 -0 -5.97417e-06)
(0 -0 -5.98978e-06)
(0 -0 -5.96905e-06)
(0 -0 -5.91589e-06)
(0 -0 -5.83369e-06)
(0 -0 -5.72332e-06)
(0 -0 -5.5763e-06)
(0 -0 -5.35223e-06)
(0 -0 -4.90352e-06)
(0 -0 -3.72511e-06)
(0 -0 -1.31847e-07)
(0 -0 1.13924e-05)
(0 -1.07433e-23 4.92267e-05)
(0 -0 8.28492e-06)
(0 -0 6.2146e-06)
(0 -0 4.08396e-06)
(0 -0 2.73227e-06)
(0 -0 1.74481e-06)
(0 -0 7.81629e-07)
(0 -0 -1.41806e-07)
(0 -0 -1.01183e-06)
(0 -0 -1.81528e-06)
(0 -0 -2.54081e-06)
(0 -0 -3.18059e-06)
(0 -0 -3.73146e-06)
(0 -0 -4.19537e-06)
(0 -0 -4.57879e-06)
(0 -0 -4.89146e-06)
(0 -0 -5.14463e-06)
(0 -0 -5.34944e-06)
(0 -0 -5.51555e-06)
(0 -0 -5.65033e-06)
(0 -0 -5.75882e-06)
(0 -0 -5.84389e-06)
(0 -0 -5.90691e-06)
(0 -0 -5.94833e-06)
(0 -0 -5.96831e-06)
(0 -0 -5.96687e-06)
(0 -0 -5.94343e-06)
(0 -0 -5.8942e-06)
(0 -0 -5.80304e-06)
(0 -0 -5.60968e-06)
(0 -0 -5.10027e-06)
(0 -0 -3.52879e-06)
(0 -0 1.69191e-06)
(0 -0 1.95175e-05)
(0 1.19727e-23 8.16883e-05)
(0 -0 5.0662e-06)
(0 -0 3.17644e-06)
(0 -0 1.24089e-06)
(0 -0 1.03534e-07)
(0 -0 -6.57376e-07)
(0 -0 -1.38541e-06)
(0 -0 -2.06721e-06)
(0 -0 -2.6917e-06)
(0 -0 -3.24885e-06)
(0 -0 -3.731e-06)
(0 -0 -4.1343e-06)
(0 -0 -4.45981e-06)
(0 -0 -4.71357e-06)
(0 -0 -4.9059e-06)
(0 -0 -5.04982e-06)
(0 -0 -5.15917e-06)
(0 -0 -5.24674e-06)
(0 -0 -5.32285e-06)
(0 -0 -5.39461e-06)
(0 -0 -5.46573e-06)
(0 -0 -5.53703e-06)
(0 -0 -5.60707e-06)
(0 -0 -5.67306e-06)
(0 -0 -5.73159e-06)
(0 -0 -5.77903e-06)
(0 -0 -5.81091e-06)
(0 -0 -5.8188e-06)
(0 -0 -5.77821e-06)
(0 -0 -5.60619e-06)
(0 -0 -5.01168e-06)
(0 -0 -2.96777e-06)
(0 -0 4.15485e-06)
(0 -0 2.91959e-05)
(0 -1.14811e-25 0.000119023)
(0 -0 2.32409e-06)
(0 -0 6.04601e-07)
(0 -0 -1.14774e-06)
(0 -0 -2.08699e-06)
(0 -0 -2.63831e-06)
(0 -0 -3.14823e-06)
(0 -0 -3.60552e-06)
(0 -0 -4.00169e-06)
(0 -0 -4.32976e-06)
(0 -0 -4.58549e-06)
(0 -0 -4.76883e-06)
(0 -0 -4.88474e-06)
(0 -0 -4.94309e-06)
(0 -0 -4.9578e-06)
(0 -0 -4.94493e-06)
(0 -0 -4.9207e-06)
(0 -0 -4.89946e-06)
(0 -0 -4.89217e-06)
(0 -0 -4.90563e-06)
(0 -0 -4.94239e-06)
(0 -0 -5.00128e-06)
(0 -0 -5.07827e-06)
(0 -0 -5.16755e-06)
(0 -0 -5.26239e-06)
(0 -0 -5.35568e-06)
(0 -0 -5.43929e-06)
(0 -0 -5.50009e-06)
(0 -0 -5.50472e-06)
(0 -0 -5.34486e-06)
(0 -0 -4.64231e-06)
(0 -0 -2.05319e-06)
(0 -0 7.22249e-06)
(0 -0 4.03625e-05)
(0 8.52876e-24 0.000161307)
(0 -0 6.68913e-08)
(0 -0 -1.49596e-06)
(0 -0 -3.08027e-06)
(0 -0 -3.83866e-06)
(0 -0 -4.1988e-06)
(0 -0 -4.50953e-06)
(0 -0 -4.76154e-06)
(0 -0 -4.94871e-06)
(0 -0 -5.0669e-06)
(0 -0 -5.11509e-06)
(0 -0 -5.09673e-06)
(0 -0 -5.02038e-06)
(0 -0 -4.89951e-06)
(0 -0 -4.75128e-06)
(0 -0 -4.59464e-06)
(0 -0 -4.448e-06)
(0 -0 -4.32712e-06)
(0 -0 -4.2436e-06)
(0 -0 -4.20395e-06)
(0 -0 -4.20965e-06)
(0 -0 -4.25772e-06)
(0 -0 -4.34174e-06)
(0 -0 -4.45309e-06)
(0 -0 -4.582e-06)
(0 -0 -4.71811e-06)
(0 -0 -4.8498e-06)
(0 -0 -4.95927e-06)
(0 -0 -5.00371e-06)
(0 -0 -4.84693e-06)
(0 -0 -4.01391e-06)
(0 -0 -8.08282e-07)
(0 -0 1.08708e-05)
(0 -0 5.30206e-05)
(0 -9.31154e-24 0.000208821)
(0 -0 -1.72313e-06)
(0 -0 -3.14507e-06)
(0 -0 -4.5779e-06)
(0 -0 -5.17354e-06)
(0 -0 -5.3617e-06)
(0 -0 -5.49305e-06)
(0 -0 -5.55996e-06)
(0 -0 -5.55846e-06)
(0 -0 -5.48697e-06)
(0 -0 -5.34742e-06)
(0 -0 -5.14648e-06)
(0 -0 -4.89602e-06)
(0 -0 -4.61277e-06)
(0 -0 -4.31693e-06)
(0 -0 -4.03003e-06)
(0 -0 -3.77252e-06)
(0 -0 -3.56152e-06)
(0 -0 -3.40917e-06)
(0 -0 -3.32177e-06)
(0 -0 -3.29984e-06)
(0 -0 -3.33873e-06)
(0 -0 -3.42988e-06)
(0 -0 -3.5621e-06)
(0 -0 -3.72279e-06)
(0 -0 -3.89863e-06)
(0 -0 -4.07466e-06)
(0 -0 -4.22845e-06)
(0 -0 -4.30718e-06)
(0 -0 -4.14419e-06)
(0 -0 -3.15777e-06)
(0 -0 7.37909e-07)
(0 -0 1.50831e-05)
(0 -0 6.72183e-05)
(0 -6.63722e-23 0.000261974)
(0 -0 -3.08364e-06)
(0 -0 -4.38101e-06)
(0 -0 -5.67933e-06)
(0 -0 -6.13053e-06)
(0 -0 -6.16601e-06)
(0 -0 -6.13785e-06)
(0 -0 -6.03989e-06)
(0 -0 -5.87011e-06)
(0 -0 -5.62922e-06)
(0 -0 -5.32186e-06)
(0 -0 -4.95754e-06)
(0 -0 -4.55116e-06)
(0 -0 -4.12242e-06)
(0 -0 -3.69425e-06)
(0 -0 -3.29059e-06)
(0 -0 -2.93375e-06)
(0 -0 -2.64208e-06)
(0 -0 -2.42826e-06)
(0 -0 -2.29844e-06)
(0 -0 -2.25223e-06)
(0 -0 -2.28356e-06)
(0 -0 -2.38191e-06)
(0 -0 -2.53376e-06)
(0 -0 -2.72394e-06)
(0 -0 -2.93638e-06)
(0 -0 -3.15299e-06)
(0 -0 -3.3467e-06)
(0 -0 -3.45406e-06)
(0 -0 -3.27526e-06)
(0 -0 -2.1114e-06)
(0 -0 2.55255e-06)
(0 -0 1.9847e-05)
(0 -0 8.30331e-05)
(0 -2.9426e-23 0.000321293)
(0 -0 -4.06588e-06)
(0 -0 -5.25465e-06)
(0 -0 -6.43495e-06)
(0 -0 -6.75944e-06)
(0 -0 -6.66087e-06)
(0 -0 -6.49238e-06)
(0 -0 -6.24914e-06)
(0 -0 -5.93083e-06)
(0 -0 -5.54025e-06)
(0 -0 -5.08438e-06)
(0 -0 -4.57532e-06)
(0 -0 -4.03067e-06)
(0 -0 -3.47277e-06)
(0 -0 -2.92707e-06)
(0 -0 -2.41966e-06)
(0 -0 -1.97457e-06)
(0 -0 -1.61132e-06)
(0 -0 -1.34308e-06)
(0 -0 -1.17588e-06)
(0 -0 -1.1086e-06)
(0 -0 -1.13388e-06)
(0 -0 -1.23943e-06)
(0 -0 -1.40965e-06)
(0 -0 -1.62703e-06)
(0 -0 -1.87298e-06)
(0 -0 -2.12645e-06)
(0 -0 -2.35568e-06)
(0 -0 -2.48597e-06)
(0 -0 -2.2814e-06)
(0 -0 -9.14514e-07)
(0 -0 4.60223e-06)
(0 -0 2.51553e-05)
(0 -0 0.000100566)
(0 -2.7704e-23 0.000387397)
(0 -0 -4.72836e-06)
(0 -0 -5.82326e-06)
(0 -0 -6.90068e-06)
(0 -0 -7.11484e-06)
(0 -0 -6.89959e-06)
(0 -0 -6.60873e-06)
(0 -0 -6.23863e-06)
(0 -0 -5.79043e-06)
(0 -0 -5.26875e-06)
(0 -0 -4.68259e-06)
(0 -0 -4.04635e-06)
(0 -0 -3.37998e-06)
(0 -0 -2.70823e-06)
(0 -0 -2.0588e-06)
(0 -0 -1.45977e-06)
(0 -0 -9.3673e-07)
(0 -0 -5.1025e-07)
(0 -0 -1.94053e-07)
(0 -0 5.92758e-09)
(0 -0 9.14235e-08)
(0 -0 7.09379e-08)
(0 -0 -4.16876e-08)
(0 -0 -2.28938e-07)
(0 -0 -4.71228e-07)
(0 -0 -7.47649e-07)
(0 -0 -1.03431e-06)
(0 -0 -1.2947e-06)
(0 -0 -1.44215e-06)
(0 -0 -1.20142e-06)
(0 -0 3.96009e-07)
(0 -0 6.85779e-06)
(0 -0 3.10097e-05)
(0 -0 0.000119945)
(0 1.14081e-22 0.000461001)
(0 -0 -5.1308e-06)
(0 -0 -6.1445e-06)
(0 -0 -7.13218e-06)
(0 -0 -7.25063e-06)
(0 -0 -6.93446e-06)
(0 -0 -6.53773e-06)
(0 -0 -6.05779e-06)
(0 -0 -5.49701e-06)
(0 -0 -4.86142e-06)
(0 -0 -4.16177e-06)
(0 -0 -3.4144e-06)
(0 -0 -2.6414e-06)
(0 -0 -1.86964e-06)
(0 -0 -1.1289e-06)
(0 -0 -4.49034e-07)
(0 -0 1.42861e-07)
(0 -0 6.25214e-07)
(0 -0 9.83778e-07)
(0 -0 1.21263e-06)
(0 -0 1.31402e-06)
(0 -0 1.29745e-06)
(0 -0 1.17818e-06)
(0 -0 9.75391e-07)
(0 -0 7.10559e-07)
(0 -0 4.06768e-07)
(0 -0 9.06134e-08)
(0 -0 -1.9658e-07)
(0 -0 -3.55289e-07)
(0 -0 -6.7403e-08)
(0 -0 1.79038e-06)
(0 -0 9.29855e-06)
(0 -0 3.74254e-05)
(0 -0 0.000141326)
(0 -1.86105e-22 0.00054293)
(0 -0 -5.32887e-06)
(0 -0 -6.2714e-06)
(0 -0 -7.18019e-06)
(0 -0 -7.21577e-06)
(0 -0 -6.81306e-06)
(0 -0 -6.32579e-06)
(0 -0 -5.75188e-06)
(0 -0 -5.09447e-06)
(0 -0 -4.36067e-06)
(0 -0 -3.56263e-06)
(0 -0 -2.7184e-06)
(0 -0 -1.85193e-06)
(0 -0 -9.92122e-07)
(0 -0 -1.70632e-07)
(0 -0 5.8095e-07)
(0 -0 1.23416e-06)
(0 -0 1.76637e-06)
(0 -0 2.16284e-06)
(0 -0 2.41758e-06)
(0 -0 2.5333e-06)
(0 -0 2.52038e-06)
(0 -0 2.39532e-06)
(0 -0 2.17879e-06)
(0 -0 1.89405e-06)
(0 -0 1.56613e-06)
(0 -0 1.22431e-06)
(0 -0 9.14824e-07)
(0 -0 7.51048e-07)
(0 -0 1.09792e-06)
(0 -0 3.24872e-06)
(0 -0 1.19152e-05)
(0 -0 4.44339e-05)
(0 -0 0.000164905)
(0 3.87353e-22 0.000634133)
(0 -0 -5.36997e-06)
(0 -0 -6.24843e-06)
(0 -0 -7.08755e-06)
(0 -0 -7.05237e-06)
(0 -0 -6.57723e-06)
(0 -0 -6.01439e-06)
(0 -0 -5.36166e-06)
(0 -0 -4.62241e-06)
(0 -0 -3.80447e-06)
(0 -0 -2.92117e-06)
(0 -0 -1.99208e-06)
(0 -0 -1.04302e-06)
(0 -0 -1.04755e-07)
(0 -0 7.89183e-07)
(0 -0 1.6055e-06)
(0 -0 2.31434e-06)
(0 -0 2.89208e-06)
(0 -0 3.32341e-06)
(0 -0 3.60227e-06)
(0 -0 3.73174e-06)
(0 -0 3.723e-06)
(0 -0 3.59363e-06)
(0 -0 3.36569e-06)
(0 -0 3.06407e-06)
(0 -0 2.71565e-06)
(0 -0 2.35228e-06)
(0 -0 2.02541e-06)
(0 -0 1.86326e-06)
(0 -0 2.28205e-06)
(0 -0 4.76199e-06)
(0 -0 1.47109e-05)
(0 -0 5.20851e-05)
(0 -0 0.000190914)
(0 -2.1457e-22 0.000735699)
(0 -0 -5.28934e-06)
(0 -0 -6.10887e-06)
(0 -0 -6.88841e-06)
(0 -0 -6.79663e-06)
(0 -0 -6.26493e-06)
(0 -0 -5.64232e-06)
(0 -0 -4.92562e-06)
(0 -0 -4.11803e-06)
(0 -0 -3.22796e-06)
(0 -0 -2.26994e-06)
(0 -0 -1.26521e-06)
(0 -0 -2.41455e-07)
(0 -0 7.68552e-07)
(0 -0 1.72935e-06)
(0 -0 2.60592e-06)
(0 -0 3.36696e-06)
(0 -0 3.98787e-06)
(0 -0 4.45277e-06)
(0 -0 4.75545e-06)
(0 -0 4.89933e-06)
(0 -0 4.89632e-06)
(0 -0 4.76499e-06)
(0 -0 4.52875e-06)
(0 -0 4.21393e-06)
(0 -0 3.84924e-06)
(0 -0 3.46903e-06)
(0 -0 3.13024e-06)
(0 -0 2.97723e-06)
(0 -0 3.48238e-06)
(0 -0 6.33181e-06)
(0 -0 1.77018e-05)
(0 -0 6.04487e-05)
(0 -0 0.000219633)
(0 -9.46783e-24 0.000848876)
(0 -0 -5.10276e-06)
(0 -0 -5.8703e-06)
(0 -0 -6.60761e-06)
(0 -0 -6.48014e-06)
(0 -0 -5.91182e-06)
(0 -0 -5.24643e-06)
(0 -0 -4.47961e-06)
(0 -0 -3.61471e-06)
(0 -0 -2.66124e-06)
(0 -0 -1.63538e-06)
(0 -0 -5.60403e-07)
(0 -0 5.33832e-07)
(0 -0 1.61239e-06)
(0 -0 2.6377e-06)
(0 -0 3.57296e-06)
(0 -0 4.38541e-06)
(0 -0 5.04945e-06)
(0 -0 5.54861e-06)
(0 -0 5.87657e-06)
(0 -0 6.03706e-06)
(0 -0 6.04261e-06)
(0 -0 5.91283e-06)
(0 -0 5.67235e-06)