/*--------------------------------*- C++ -*----------------------------------*\
| =========                 |                                                 |
| \\      /  F ield         | OpenFOAM: The Open Source CFD Toolbox           |
|  \\    /   O peration     | Version:  2412                                  |
|   \\  /    A nd           | Website:  www.openfoam.com                      |
|    \\/     M anipulation  |                                                 |
\*---------------------------------------------------------------------------*/
FoamFile
{
    version     2.0;
    format      ascii;
    arch        "LSB;label=32;scalar=64";
    class       volScalarField;
    location    "1.5";
    object      p;
}
// * * * * * * * * * * * * * * * * * * * * * * * * * * * * * * * * * * * * * //

dimensions      [0 2 -2 0 0 0 0];

internalField   nonuniform List<scalar> 
63420
(
0.000851017
0.0031851
0.00073698
0.00217796
0.00176859
0.00171876
0.00176724
0.00176397
0.0017618
0.00176396
0.00176649
0.00176952
0.00177324
0.0017776
0.00178257
0.00178813
0.00179428
0.00180101
0.00180829
0.00181613
0.00182451
0.00183344
0.00184289
0.00185288
0.00186339
0.00187442
0.00188598
0.00189805
0.00191064
0.00192375
0.00193738
0.00195153
0.00196619
0.00198138
0.00199709
0.00201332
0.00203008
0.00204737
0.00206519
0.00208356
0.00210246
0.0021219
0.00214189
0.00216244
0.00218354
0.0022052
0.00222742
0.00225022
0.00227358
0.00229753
0.00232206
0.00234717
0.00237286
0.00239917
0.00242607
0.000850219
0.00318474
0.00073722
0.00217705
0.00176892
0.00171861
0.00176705
0.00176385
0.00176168
0.00176384
0.00176636
0.00176939
0.00177311
0.00177746
0.00178242
0.00178798
0.00179413
0.00180085
0.00180812
0.00181595
0.00182433
0.00183324
0.00184269
0.00185266
0.00186316
0.00187419
0.00188573
0.00189779
0.00191037
0.00192346
0.00193707
0.0019512
0.00196585
0.00198102
0.0019967
0.00201291
0.00202965
0.00204692
0.00206472
0.00208305
0.00210192
0.00212134
0.00214129
0.0021618
0.00218287
0.00220449
0.00222667
0.00224942
0.00227274
0.00229664
0.00232112
0.00234617
0.00237181
0.00239804
0.00242487
0.000848538
0.00318406
0.000737711
0.0021752
0.00176961
0.00171829
0.00176666
0.0017636
0.00176143
0.00176358
0.0017661
0.00176913
0.00177284
0.00177718
0.00178214
0.00178769
0.00179382
0.00180052
0.00180779
0.0018156
0.00182396
0.00183286
0.00184228
0.00185224
0.00186272
0.00187372
0.00188523
0.00189727
0.00190982
0.00192288
0.00193646
0.00195055
0.00196516
0.00198029
0.00199594
0.00201211
0.0020288
0.00204602
0.00206376
0.00208204
0.00210085
0.00212021
0.0021401
0.00216054
0.00218153
0.00220307
0.00222517
0.00224784
0.00227106
0.00229486
0.00231923
0.00234417
0.00236969
0.00239581
0.00242249
0.000845787
0.00318328
0.000738409
0.00217237
0.00177073
0.00171777
0.00176607
0.00176325
0.00176106
0.0017632
0.00176572
0.00176874
0.00177243
0.00177677
0.00178171
0.00178724
0.00179336
0.00180004
0.00180728
0.00181507
0.00182341
0.00183228
0.00184168
0.0018516
0.00186205
0.00187301
0.00188449
0.00189648
0.00190899
0.00192201
0.00193554
0.00194958
0.00196414
0.00197921
0.0019948
0.0020109
0.00202752
0.00204467
0.00206234
0.00208053
0.00209926
0.00211852
0.00213831
0.00215865
0.00217953
0.00220095
0.00222293
0.00224546
0.00226855
0.00229221
0.00231642
0.0023412
0.00236654
0.00239247
0.00241895
0.000841675
0.00318287
0.000739063
0.00216858
0.00177236
0.00171699
0.00176528
0.00176278
0.00176057
0.00176269
0.0017652
0.00176821
0.0017719
0.00177621
0.00178114
0.00178665
0.00179274
0.0017994
0.00180661
0.00181437
0.00182267
0.00183151
0.00184087
0.00185075
0.00186115
0.00187207
0.0018835
0.00189544
0.00190789
0.00192085
0.00193432
0.00194829
0.00196278
0.00197777
0.00199328
0.00200929
0.00202582
0.00204287
0.00206044
0.00207852
0.00209713
0.00211627
0.00213594
0.00215613
0.00217687
0.00219814
0.00221996
0.00224232
0.00226522
0.00228868
0.00231269
0.00233725
0.00236236
0.00238805
0.00241426
0.00083626
0.00318289
0.000739621
0.00216369
0.00177477
0.00171588
0.00176426
0.00176222
0.00175996
0.00176205
0.00176456
0.00176756
0.00177123
0.00177552
0.00178042
0.00178591
0.00179197
0.00179859
0.00180577
0.0018135
0.00182176
0.00183055
0.00183986
0.00184969
0.00186004
0.0018709
0.00188227
0.00189414
0.00190652
0.00191941
0.0019328
0.00194669
0.00196108
0.00197598
0.00199138
0.00200729
0.00202371
0.00204063
0.00205807
0.00207602
0.00209449
0.00211347
0.00213298
0.00215301
0.00217356
0.00219464
0.00221625
0.0022384
0.00226108
0.0022843
0.00230806
0.00233234
0.00235718
0.00238258
0.00240845
0.000831439
0.00318011
0.000743551
0.00215549
0.00177865
0.00171451
0.00176293
0.00176158
0.00175923
0.00176128
0.0017638
0.00176678
0.00177043
0.0017747
0.00177957
0.00178502
0.00179105
0.00179763
0.00180477
0.00181245
0.00182066
0.00182939
0.00183865
0.00184842
0.00185871
0.0018695
0.00188079
0.00189259
0.00190489
0.00191768
0.00193097
0.00194476
0.00195905
0.00197383
0.00198912
0.0020049
0.00202118
0.00203796
0.00205525
0.00207303
0.00209133
0.00211013
0.00212945
0.00214927
0.00216961
0.00219046
0.00221184
0.00223373
0.00225614
0.00227908
0.00230254
0.00232651
0.00235102
0.00237608
0.00240157
0.00245365
0.0024822
0.00251197
0.00254298
0.00257529
0.00260902
0.0026443
0.00268125
0.00272
0.0027607
0.00280346
0.00284838
0.00289566
0.00294552
0.00299795
0.00305319
0.00311148
0.00317305
0.00323815
0.00330707
0.00338011
0.00345762
0.00353999
0.00362764
0.00372105
0.00382074
0.00392731
0.00404142
0.00416382
0.00429537
0.00443704
0.00458994
0.0047553
0.00493455
0.00512932
0.00534149
0.00557319
0.00582686
0.00610527
0.00641147
0.00674877
0.00712053
0.00752968
0.00797824
0.00846568
0.00898568
0.00952014
0.010048
0.0106418
0.0114448
0.00245241
0.00248097
0.00251075
0.00254178
0.00257411
0.00260786
0.00264316
0.00268014
0.00271892
0.00275961
0.0028023
0.00284712
0.00289467
0.00294445
0.00299684
0.00305208
0.00311037
0.00317192
0.00323701
0.0033059
0.00337891
0.00345638
0.0035387
0.00362627
0.00371959
0.00381915
0.00392555
0.00403944
0.00416157
0.00429276
0.00443398
0.00458629
0.00475089
0.00492916
0.00512264
0.00533312
0.00556261
0.00581337
0.00608789
0.00638892
0.00671931
0.00708172
0.00747823
0.00790955
0.00837328
0.00886044
0.00935007
0.00981823
0.0103296
0.0110181
0.00244995
0.00247853
0.00250834
0.00253938
0.00257175
0.00260555
0.0026409
0.00267792
0.00271671
0.00275736
0.00279999
0.00284541
0.0028926
0.00294226
0.00299464
0.00304987
0.00310813
0.00316966
0.00323472
0.00330356
0.00337651
0.0034539
0.00353611
0.00362355
0.00371667
0.003816
0.00392208
0.00403555
0.00415712
0.00428762
0.00442795
0.00457912
0.00474224
0.00491857
0.00510952
0.00531669
0.00554184
0.00578686
0.00605375
0.00634458
0.00666122
0.00700505
0.00737626
0.00777298
0.00818898
0.00860982
0.00900902
0.00935718
0.00969784
0.0101789
0.00244629
0.00247488
0.00250472
0.00253579
0.00256821
0.00260207
0.00263746
0.00267451
0.0027133
0.00275398
0.00279727
0.00284211
0.00288923
0.00293893
0.00299131
0.00304652
0.00310476
0.00316626
0.00323126
0.00330004
0.0033729
0.00345017
0.00353222
0.00361946
0.00371231
0.00381126
0.00391685
0.00402969
0.00415046
0.00427994
0.00441894
0.00456839
0.00472927
0.00490266
0.00508981
0.00529204
0.00551071
0.00574717
0.00600271
0.00627835
0.00657457
0.00689077
0.00722442
0.00756967
0.0079145
0.00823589
0.00849866
0.00867129
0.00877465
0.00889886
0.00244144
0.00247007
0.00249993
0.00253096
0.0025635
0.00259742
0.0026328
0.00266992
0.0027091
0.00275015
0.00279279
0.00283764
0.00288489
0.00293465
0.00298705
0.00304226
0.0031005
0.00316199
0.00322696
0.00329569
0.00336847
0.00344563
0.00352752
0.00361452
0.00370704
0.00380553
0.0039105
0.00402253
0.00414226
0.0042704
0.00440768
0.00455487
0.00471279
0.00488233
0.00506446
0.00526014
0.00547019
0.00569524
0.0059356
0.00619092
0.00645985
0.00673921
0.00702286
0.00729973
0.00755009
0.00773921
0.00781842
0.00775537
0.0075627
0.00715119
0.00243543
0.00246407
0.00249401
0.00252529
0.0025578
0.0025919
0.00262768
0.00266503
0.00270395
0.00274482
0.0027877
0.00283278
0.0028802
0.00293009
0.00298262
0.00303798
0.00309637
0.00315801
0.00322314
0.00329202
0.00336495
0.00344225
0.00352425
0.0036113
0.00370378
0.00380214
0.00390685
0.00401848
0.00413762
0.00426491
0.00440096
0.00454641
0.00470192
0.00486816
0.00504579
0.0052353
0.00543688
0.00565027
0.00587446
0.0061073
0.00634468
0.00657936
0.00679906
0.00698348
0.00709956
0.00709456
0.00690084
0.00648182
0.00585898
0.00475384
0.00242831
0.00245687
0.00248671
0.00251784
0.00255038
0.00258452
0.00262026
0.00265761
0.00269668
0.00273765
0.00278064
0.00282577
0.00287321
0.00292312
0.00297568
0.00303106
0.00308948
0.00315113
0.00321627
0.00328516
0.00335807
0.00343534
0.00351728
0.0036042
0.00369647
0.00379452
0.00389883
0.00400992
0.00412834
0.00425464
0.00438932
0.0045329
0.00468589
0.00484874
0.00502177
0.00520499
0.00539792
0.00559933
0.00580684
0.00601611
0.00621958
0.00640435
0.00654877
0.00661767
0.00655682
0.00628947
0.00572878
0.00484564
0.00364253
0.00175713
-0.00343829
-0.00342253
-0.00322186
-0.00286189
-0.00241384
-0.00195533
-0.0015519
-0.00123558
-0.00100786
-0.000854029
-0.000755206
-0.000694424
-0.000658582
-0.00063837
-0.000627503
-0.000621875
-0.000618869
-0.000616875
-0.00061494
-0.000612527
-0.000609361
-0.000605342
-0.000600468
-0.000594788
-0.000588364
-0.000581271
-0.000573599
-0.000565435
-0.000556865
-0.000547971
-0.000538823
-0.000529485
-0.000520009
-0.000510441
-0.000500821
-0.000491185
-0.000481563
-0.000471981
-0.000462463
-0.000453026
-0.000443688
-0.000434462
-0.000425359
-0.000416388
-0.000407557
-0.000398873
-0.000390341
-0.000381971
-0.000373762
-0.00036572
-0.0037284
-0.00361994
-0.0033812
-0.00300913
-0.00255047
-0.00207898
-0.00165994
-0.00132703
-0.00108358
-0.000915943
-0.000805523
-0.000735245
-0.000691729
-0.000665359
-0.000649573
-0.000640021
-0.000633877
-0.000629361
-0.000625389
-0.000621317
-0.000616789
-0.000611647
-0.000605849
-0.000599405
-0.000592344
-0.000584713
-0.000576581
-0.000568023
-0.000559114
-0.000549927
-0.000540525
-0.000530966
-0.000521297
-0.00051156
-0.00050179
-0.000492021
-0.00048228
-0.000472592
-0.000462979
-0.000453456
-0.000444041
-0.000434744
-0.000425578
-0.00041655
-0.000407668
-0.000398937
-0.000390364
-0.000381959
-0.000373721
-0.000365653
-0.0042936
-0.00397416
-0.00367978
-0.0032835
-0.00280625
-0.00231329
-0.00186741
-0.00150477
-0.00123223
-0.00103841
-0.000905635
-0.000816832
-0.000758221
-0.000719656
-0.000694064
-0.00067664
-0.000664174
-0.00065457
-0.000646487
-0.000639068
-0.00063179
-0.000624372
-0.000616689
-0.000608684
-0.000600324
-0.0005916
-0.000582535
-0.000573175
-0.000563578
-0.0005538
-0.000543889
-0.000533888
-0.000523833
-0.000513757
-0.000503687
-0.000493652
-0.000483676
-0.000473779
-0.000463978
-0.000454288
-0.000444721
-0.000435289
-0.000425999
-0.000416861
-0.000407879
-0.000399059
-0.000390406
-0.000381934
-0.00037364
-0.000365524
-0.00499262
-0.0044711
-0.00408359
-0.00364965
-0.00315059
-0.00263398
-0.00215654
-0.00175641
-0.00144517
-0.00121524
-0.0010509
-0.000935597
-0.000855247
-0.000799062
-0.000759261
-0.000730395
-0.000708712
-0.000691673
-0.000677576
-0.000665268
-0.000653975
-0.000643228
-0.000632774
-0.000622457
-0.000612168
-0.000601828
-0.000591389
-0.000580844
-0.000570221
-0.000559557
-0.000548881
-0.00053822
-0.000527593
-0.000517013
-0.000506498
-0.000496069
-0.000485742
-0.000475533
-0.000465454
-0.000455514
-0.000445723
-0.000436089
-0.000426618
-0.000417316
-0.000408187
-0.000399235
-0.000390465
-0.000381893
-0.000373514
-0.000365326
-0.00576759
-0.00505741
-0.00454604
-0.00405743
-0.0035353
-0.00300159
-0.00249968
-0.00206549
-0.00171438
-0.00144374
-0.00124144
-0.00109282
-0.000984353
-0.000904979
-0.000846292
-0.000802133
-0.000768093
-0.000741068
-0.000718891
-0.000700024
-0.000683376
-0.000668223
-0.000654107
-0.000640734
-0.000627894
-0.000615419
-0.000603177
-0.000591088
-0.000579127
-0.000567293
-0.000555595
-0.000544047
-0.00053265
-0.000521396
-0.000510285
-0.000499327
-0.000488531
-0.000477902
-0.000467446
-0.000457168
-0.000447074
-0.000437166
-0.000427447
-0.000417922
-0.000408593
-0.000399461
-0.000390529
-0.000381817
-0.00037332
-0.000365026
-0.00626563
-0.00553736
-0.00495184
-0.00442084
-0.00389201
-0.00336765
-0.00287121
-0.0024285
-0.00205411
-0.00174967
-0.00150863
-0.00132097
-0.00117617
-0.0010647
-0.000978606
-0.000911529
-0.000858582
-0.000816081
-0.000781287
-0.000752155
-0.000727157
-0.000705186
-0.000685465
-0.000667447
-0.000650739
-0.00063504
-0.000620102
-0.000605743
-0.000591848
-0.00057834
-0.000565179
-0.000552355
-0.000539845
-0.00052762
-0.000515656
-0.000503946
-0.000492484
-0.000481263
-0.000470278
-0.000459527
-0.000449008
-0.000438717
-0.000428654
-0.000418819
-0.000409211
-0.000399827
-0.000390667
-0.000381756
-0.000373089
-0.000364635
-0.0062819
-0.00592204
-0.00540162
-0.00483597
-0.00427944
-0.00374451
-0.00324343
-0.00279225
-0.00240072
-0.00207042
-0.00179734
-0.00157475
-0.0013951
-0.00125097
-0.00113557
-0.00104299
-0.00096833
-0.000907586
-0.00085761
-0.000815924
-0.000780589
-0.000750113
-0.000723366
-0.000699516
-0.000677947
-0.000658186
-0.000639853
-0.00062266
-0.000606384
-0.000590847
-0.000575936
-0.000561594
-0.000547769
-0.0005344
-0.000521443
-0.000508867
-0.000496647
-0.00048476
-0.000473189
-0.000461919
-0.000450938
-0.000440238
-0.00042981
-0.000419649
-0.00040975
-0.000400105
-0.000390708
-0.000381588
-0.000372737
-0.000364097
-0.000357867
-0.000350102
-0.000342316
-0.000334499
-0.000326692
-0.000318896
-0.000311083
-0.000303265
-0.000295477
-0.00028773
-0.000280029
-0.000272382
-0.000264796
-0.000257278
-0.000249832
-0.000242461
-0.000235171
-0.000227965
-0.000220846
-0.000213819
-0.000206885
-0.000200049
-0.000193313
-0.000186681
-0.000180154
-0.000173735
-0.000167426
-0.00016123
-0.000155149
-0.000149184
-0.000143337
-0.00013761
-0.000132003
-0.00012652
-0.000121159
-0.000115923
-0.000110812
-0.000105827
-0.000100969
-9.62367e-05
-9.16314e-05
-8.71536e-05
-8.2802e-05
-7.85778e-05
-7.44802e-05
-7.05074e-05
-6.66612e-05
-6.29391e-05
-5.93407e-05
-5.58652e-05
-5.25111e-05
-4.92777e-05
-4.61633e-05
-4.31663e-05
-4.02855e-05
-3.75191e-05
-3.48653e-05
-3.23222e-05
-2.98878e-05
-2.756e-05
-2.53367e-05
-2.32155e-05
-2.11942e-05
-1.92703e-05
-1.7441e-05
-1.57043e-05
-1.40575e-05
-1.24979e-05
-1.10225e-05
-9.62908e-06
-8.31406e-06
-7.0758e-06
-5.9102e-06
-4.81515e-06
-3.78701e-06
-2.82487e-06
-1.922e-06
-1.08023e-06
-2.92107e-07
4.41082e-07
1.126e-06
1.76276e-06
2.35667e-06
2.90703e-06
3.42324e-06
3.89924e-06
4.34534e-06
4.7625e-06
5.15065e-06
5.51931e-06
5.86512e-06
6.19419e-06
6.51194e-06
6.81673e-06
7.11776e-06
7.41631e-06
7.71634e-06
8.02564e-06
8.34614e-06
8.68515e-06
9.05204e-06
9.44922e-06
9.89151e-06
1.03665e-05
1.09897e-05
1.13001e-05
1.32503e-05
9.63328e-06
2.43977e-05
-1.16674e-05
7.03954e-05
-5.99721e-05
6.77607e-05
8.87753e-05
-0.000174776
-0.000357802
-0.000350032
-0.000342235
-0.000334401
-0.000326578
-0.000318771
-0.000310948
-0.000303125
-0.000295335
-0.00028759
-0.000279892
-0.000272248
-0.000264666
-0.000257152
-0.000249709
-0.000242342
-0.000235055
-0.000227852
-0.000220737
-0.000213713
-0.000206783
-0.00019995
-0.000193218
-0.000186588
-0.000180064
-0.000173649
-0.000167343
-0.00016115
-0.000155072
-0.00014911
-0.000143266
-0.000137542
-0.000131939
-0.000126458
-0.0001211
-0.000115867
-0.000110758
-0.000105776
-0.00010092
-9.619e-05
-9.1587e-05
-8.71114e-05
-8.27619e-05
-7.85397e-05
-7.44441e-05
-7.04732e-05
-6.66289e-05
-6.29085e-05
-5.93118e-05
-5.58379e-05
-5.24854e-05
-4.92535e-05
-4.61404e-05
-4.31448e-05
-4.02653e-05
-3.75002e-05
-3.48476e-05
-3.23056e-05
-2.98723e-05
-2.75455e-05
-2.53231e-05
-2.32029e-05
-2.11825e-05
-1.92593e-05
-1.74309e-05
-1.56949e-05
-1.40488e-05
-1.24898e-05
-1.10149e-05
-9.62217e-06
-8.30766e-06
-7.06993e-06
-5.90478e-06
-4.81021e-06
-3.7825e-06
-2.82068e-06
-1.91833e-06
-1.07667e-06
-2.89132e-07
4.43974e-07
1.12857e-06
1.76497e-06
2.35877e-06
2.90889e-06
3.42477e-06
3.90075e-06
4.3466e-06
4.7636e-06
5.1516e-06
5.52016e-06
5.86577e-06
6.19479e-06
6.51231e-06
6.81711e-06
7.11791e-06
7.4164e-06
7.71641e-06
8.02535e-06
8.34601e-06
8.6848e-06
9.05146e-06
9.44867e-06
9.8906e-06
1.03658e-05
1.09884e-05
1.12995e-05
1.32475e-05
9.6358e-06
2.4388e-05
-1.16558e-05
7.03845e-05
-5.99822e-05
6.77905e-05
8.87668e-05
-0.00017481
-0.000357673
-0.000349888
-0.000342064
-0.000334198
-0.000326344
-0.000318514
-0.000310675
-0.000302843
-0.000295052
-0.00028731
-0.000279618
-0.00027198
-0.000264406
-0.000256898
-0.000249462
-0.000242103
-0.000234823
-0.000227627
-0.000220518
-0.000213501
-0.000206578
-0.000199752
-0.000193026
-0.000186403
-0.000179886
-0.000173477
-0.000167178
-0.000160991
-0.000154919
-0.000148963
-0.000143125
-0.000137407
-0.000131809
-0.000126334
-0.000120982
-0.000115754
-0.00011065
-0.000105673
-0.000100821
-9.60967e-05
-9.14982e-05
-8.7027e-05
-8.26818e-05
-7.84637e-05
-7.4372e-05
-7.04049e-05
-6.65642e-05
-6.28474e-05
-5.9254e-05
-5.57834e-05
-5.2434e-05
-4.9205e-05
-4.60948e-05
-4.31019e-05
-4.0225e-05
-3.74624e-05
-3.48121e-05
-3.22724e-05
-2.98412e-05
-2.75164e-05
-2.5296e-05
-2.31775e-05
-2.11589e-05
-1.92374e-05
-1.74105e-05
-1.5676e-05
-1.40312e-05
-1.24736e-05
-1.09999e-05
-9.60833e-06
-8.29489e-06
-7.05818e-06
-5.89397e-06
-4.80031e-06
-3.77346e-06
-2.81231e-06
-1.91092e-06
-1.06966e-06
-2.8305e-07
4.49698e-07
1.13366e-06
1.76949e-06
2.36291e-06
2.91262e-06
3.4279e-06
3.90373e-06
4.34913e-06
4.76581e-06
5.15352e-06
5.52184e-06
5.86706e-06
6.19598e-06
6.51309e-06
6.81778e-06
7.11832e-06
7.41652e-06
7.71647e-06
8.02495e-06
8.34558e-06
8.68408e-06
9.0504e-06
9.44753e-06
9.88888e-06
1.03643e-05
1.09861e-05
1.12982e-05
1.32423e-05
9.64078e-06
2.43689e-05
-1.16329e-05
7.03629e-05
-6.00028e-05
6.78506e-05
8.87495e-05
-0.00017488
-0.000357463
-0.000349646
-0.000341782
-0.000333869
-0.000325974
-0.000318116
-0.000310258
-0.000302416
-0.000294626
-0.000286891
-0.000279207
-0.00027158
-0.000264016
-0.000256519
-0.000249094
-0.000241744
-0.000234475
-0.000227289
-0.000220191
-0.000213184
-0.00020627
-0.000199455
-0.000192739
-0.000186126
-0.000179618
-0.000173219
-0.00016693
-0.000160753
-0.00015469
-0.000148743
-0.000142914
-0.000137204
-0.000131615
-0.000126148
-0.000120804
-0.000115584
-0.000110489
-0.000105519
-0.000100675
-9.59567e-05
-9.1365e-05
-8.69005e-05
-8.25616e-05
-7.83496e-05
-7.42639e-05
-7.03025e-05
-6.64673e-05
-6.27557e-05
-5.91674e-05
-5.57016e-05
-5.23569e-05
-4.91323e-05
-4.60264e-05
-4.30376e-05
-4.01646e-05
-3.74057e-05
-3.47589e-05
-3.22225e-05
-2.97945e-05
-2.74728e-05
-2.52553e-05
-2.31396e-05
-2.11235e-05
-1.92044e-05
-1.738e-05
-1.56476e-05
-1.40049e-05
-1.24492e-05
-1.09774e-05
-9.58755e-06
-8.27575e-06
-7.04055e-06
-5.87778e-06
-4.78545e-06
-3.75992e-06
-2.79978e-06
-1.89973e-06
-1.05921e-06
-2.73842e-07
4.58246e-07
1.1413e-06
1.77634e-06
2.36909e-06
2.91821e-06
3.43266e-06
3.90815e-06
4.35293e-06
4.76913e-06
5.15641e-06
5.52429e-06
5.86905e-06
6.19771e-06
6.51428e-06
6.81876e-06
7.11892e-06
7.41671e-06
7.7165e-06
8.0244e-06
8.3449e-06
8.68299e-06
9.04886e-06
9.4458e-06
9.88644e-06
1.03619e-05
1.09826e-05
1.12962e-05
1.32344e-05
9.64814e-06
2.43405e-05
-1.15989e-05
7.03316e-05
-6.00363e-05
6.79423e-05
8.87241e-05
-0.000174991
-0.00035711
-0.000349247
-0.000341341
-0.000333379
-0.000325442
-0.00031756
-0.000309689
-0.000301842
-0.000294057
-0.000286333
-0.000278662
-0.000271048
-0.000263497
-0.000256014
-0.000248602
-0.000241267
-0.000234011
-0.000226839
-0.000219754
-0.00021276
-0.000205861
-0.000199058
-0.000192356
-0.000185756
-0.000179262
-0.000172875
-0.000166599
-0.000160434
-0.000154384
-0.00014845
-0.000142633
-0.000136935
-0.000131357
-0.000125901
-0.000120568
-0.000115358
-0.000110273
-0.000105313
-0.000100479
-9.57702e-05
-9.11876e-05
-8.67318e-05
-8.24014e-05
-7.81976e-05
-7.41198e-05
-7.0166e-05
-6.63381e-05
-6.26335e-05
-5.90519e-05
-5.55926e-05
-5.22541e-05
-4.90355e-05
-4.59352e-05
-4.29519e-05
-4.0084e-05
-3.733e-05
-3.4688e-05
-3.21561e-05
-2.97323e-05
-2.74147e-05
-2.5201e-05
-2.30889e-05
-2.10764e-05
-1.91605e-05
-1.73392e-05
-1.56098e-05
-1.39699e-05
-1.24168e-05
-1.09474e-05
-9.55984e-06
-8.25023e-06
-7.01703e-06
-5.85619e-06
-4.76562e-06
-3.74185e-06
-2.78311e-06
-1.88476e-06
-1.04535e-06
-2.61495e-07
4.69615e-07
1.15148e-06
1.78551e-06
2.37731e-06
2.92566e-06
3.43905e-06
3.91403e-06
4.35801e-06
4.77357e-06
5.16028e-06
5.52754e-06
5.87173e-06
6.19998e-06
6.51591e-06
6.82006e-06
7.11973e-06
7.41698e-06
7.71651e-06
8.02371e-06
8.34396e-06
8.68155e-06
9.04684e-06
9.44349e-06
9.88331e-06
1.03587e-05
1.09781e-05
1.12935e-05
1.3224e-05
9.65777e-06
2.4303e-05
-1.15552e-05
7.02942e-05
-6.00887e-05
6.807e-05
8.8694e-05
-0.000175153
-0.000356584
-0.000348666
-0.000340717
-0.000332706
-0.000324733
-0.000316837
-0.000308963
-0.000301119
-0.000293345
-0.000285636
-0.000277982
-0.000270384
-0.00026285
-0.000255384
-0.000247989
-0.00024067
-0.000233431
-0.000226276
-0.000219209
-0.000212232
-0.000205349
-0.000198563
-0.000191877
-0.000185294
-0.000178816
-0.000172446
-0.000166186
-0.000160037
-0.000154002
-0.000148083
-0.000142281
-0.000136597
-0.000131034
-0.000125592
-0.000120272
-0.000115076
-0.000110004
-0.000105056
-0.000100234
-9.55372e-05
-9.09659e-05
-8.65211e-05
-8.22013e-05
-7.80077e-05
-7.39397e-05
-6.99954e-05
-6.61766e-05
-6.24808e-05
-5.89077e-05
-5.54564e-05
-5.21257e-05
-4.89145e-05
-4.58213e-05
-4.28448e-05
-3.99834e-05
-3.72355e-05
-3.45994e-05
-3.20731e-05
-2.96547e-05
-2.73421e-05
-2.51332e-05
-2.30257e-05
-2.10174e-05
-1.91057e-05
-1.72883e-05
-1.55625e-05
-1.39261e-05
-1.23762e-05
-1.09099e-05
-9.5252e-06
-8.21835e-06
-6.98764e-06
-5.82922e-06
-4.74084e-06
-3.71925e-06
-2.76229e-06
-1.86601e-06
-1.02806e-06
-2.46008e-07
4.83801e-07
1.16422e-06
1.79699e-06
2.38757e-06
2.93497e-06
3.44709e-06
3.92136e-06
4.36436e-06
4.77912e-06
5.16512e-06
5.53159e-06
5.87509e-06
6.2028e-06
6.51797e-06
6.82166e-06
7.12074e-06
7.41732e-06
7.71652e-06
8.02288e-06
8.34279e-06
8.67976e-06
9.04433e-06
9.44059e-06
9.87949e-06
1.03547e-05
1.09725e-05
1.12902e-05
1.3211e-05
9.66986e-06
2.42561e-05
-1.15007e-05
7.02491e-05
-6.01586e-05
6.82365e-05
8.8659e-05
-0.000175363
-0.00035586
-0.000347897
-0.000339918
-0.000331864
-0.000323862
-0.000315962
-0.000308094
-0.000300259
-0.000292498
-0.000284807
-0.000277171
-0.000269592
-0.000262077
-0.00025463
-0.000247255
-0.000239956
-0.000232737
-0.000225602
-0.000218554
-0.000211598
-0.000204735
-0.00019797
-0.000191304
-0.000184741
-0.000178282
-0.000171931
-0.00016569
-0.00015956
-0.000153544
-0.000147643
-0.000141859
-0.000136193
-0.000130647
-0.000125222
-0.000119918
-0.000114738
-0.000109681
-0.000104748
-9.99405e-05
-9.52579e-05
-9.07002e-05
-8.62686e-05
-8.19614e-05
-7.77801e-05
-7.37239e-05
-6.9791e-05
-6.59831e-05
-6.22978e-05
-5.87347e-05
-5.52932e-05
-5.19717e-05
-4.87694e-05
-4.56847e-05
-4.27163e-05
-3.98627e-05
-3.71223e-05
-3.44931e-05
-3.19735e-05
-2.95615e-05
-2.7255e-05
-2.50519e-05
-2.29499e-05
-2.09468e-05
-1.904e-05
-1.72272e-05
-1.55059e-05
-1.38735e-05
-1.23275e-05
-1.0865e-05
-9.48367e-06
-8.18011e-06
-6.95241e-06
-5.79688e-06
-4.71114e-06
-3.69216e-06
-2.73737e-06
-1.84348e-06
-1.00737e-06
-2.27396e-07
5.00789e-07
1.17949e-06
1.81078e-06
2.39988e-06
2.94611e-06
3.45675e-06
3.93013e-06
4.37197e-06
4.78576e-06
5.17091e-06
5.53644e-06
5.87913e-06
6.20616e-06
6.52045e-06
6.82355e-06
7.12197e-06
7.41773e-06
7.71651e-06
8.02191e-06
8.34135e-06
8.67761e-06
9.04133e-06
9.43707e-06
9.87493e-06
1.03498e-05
1.09657e-05
1.12863e-05
1.31947e-05
9.68649e-06
2.41934e-05
-1.14198e-05
7.01653e-05
-6.02035e-05
6.84178e-05
8.85877e-05
-0.000175524
-0.000354831
-0.000346865
-0.000338899
-0.000330843
-0.000322839
-0.000314951
-0.000307096
-0.000299267
-0.000291514
-0.000283836
-0.000276216
-0.000268654
-0.000261159
-0.000253733
-0.000246381
-0.000239104
-0.000231909
-0.000224797
-0.000217774
-0.000210841
-0.000204003
-0.000197261
-0.000190619
-0.00018408
-0.000177645
-0.000171317
-0.000165099
-0.000158992
-0.000152998
-0.000147118
-0.000141356
-0.000135711
-0.000130185
-0.00012478
-0.000119496
-0.000114334
-0.000109296
-0.000104381
-9.95905e-05
-9.49246e-05
-9.03831e-05
-8.59672e-05
-8.16752e-05
-7.75085e-05
-7.34663e-05
-6.9547e-05
-6.57522e-05
-6.20795e-05
-5.85284e-05
-5.50984e-05
-5.17881e-05
-4.85963e-05
-4.55218e-05
-4.25631e-05
-3.97187e-05
-3.69871e-05
-3.43664e-05
-3.18548e-05
-2.94504e-05
-2.71511e-05
-2.49549e-05
-2.28594e-05
-2.08625e-05
-1.89615e-05
-1.71544e-05
-1.54382e-05
-1.38108e-05
-1.22695e-05
-1.08113e-05
-9.43412e-06
-8.13449e-06
-6.91036e-06
-5.75829e-06
-4.67569e-06
-3.6598e-06
-2.70765e-06
-1.81657e-06
-9.8271e-07
-2.05149e-07
5.21044e-07
1.19772e-06
1.82723e-06
2.41457e-06
2.95939e-06
3.46832e-06
3.94059e-06
4.38105e-06
4.79369e-06
5.1778e-06
5.54222e-06
5.88395e-06
6.21015e-06
6.52343e-06
6.82578e-06
7.12342e-06
7.41822e-06
7.71646e-06
8.02078e-06
8.33961e-06
8.67502e-06
9.03775e-06
9.43285e-06
9.86947e-06
1.0344e-05
1.09576e-05
1.12819e-05
1.31743e-05
9.70945e-06
2.41085e-05
-1.12965e-05
7.00073e-05
-6.01755e-05
6.85745e-05
8.8443e-05
-0.000175534
-0.000353623
-0.000345635
-0.000337663
-0.000329598
-0.000321594
-0.000313723
-0.000305888
-0.000298077
-0.000290342
-0.000282685
-0.000275087
-0.000267549
-0.000260079
-0.000252679
-0.000245352
-0.000238103
-0.000230935
-0.000223852
-0.000216857
-0.000209952
-0.000203142
-0.000196428
-0.000189815
-0.000183303
-0.000176896
-0.000170596
-0.000164404
-0.000158324
-0.000152356
-0.000146502
-0.000140765
-0.000135144
-0.000129643
-0.000124261
-0.000119
-0.00011386
-0.000108843
-0.00010395
-9.91794e-05
-9.45332e-05
-9.00108e-05
-8.56134e-05
-8.13392e-05
-7.71895e-05
-7.31639e-05
-6.92605e-05
-6.5481e-05
-6.18231e-05
-5.82861e-05
-5.48697e-05
-5.15723e-05
-4.8393e-05
-4.53304e-05
-4.23831e-05
-3.95496e-05
-3.68283e-05
-3.42175e-05
-3.17153e-05
-2.93198e-05
-2.70291e-05
-2.4841e-05
-2.27531e-05
-2.07635e-05
-1.88694e-05
-1.70688e-05
-1.53588e-05
-1.37372e-05
-1.22013e-05
-1.07483e-05
-9.37591e-06
-8.08088e-06
-6.86097e-06
-5.71296e-06
-4.63406e-06
-3.62179e-06
-2.67277e-06
-1.78491e-06
-9.53772e-07
-1.78982e-07
5.44822e-07
1.21915e-06
1.84656e-06
2.43184e-06
2.97497e-06
3.48195e-06
3.95284e-06
4.39172e-06
4.80301e-06
5.18589e-06
5.54902e-06
5.88962e-06
6.21482e-06
6.52695e-06
6.82839e-06
7.12514e-06
7.4188e-06
7.71637e-06
8.01946e-06
8.33755e-06
8.67196e-06
9.03354e-06
9.42785e-06
9.86308e-06
1.03371e-05
1.09483e-05
1.12756e-05
1.31539e-05
9.72609e-06
2.40346e-05
-1.12047e-05
6.99031e-05
-6.02154e-05
6.87691e-05
8.83527e-05
-0.000175683
-0.000352361
-0.000344332
-0.000336332
-0.000328243
-0.000320229
-0.000312366
-0.000304545
-0.000296747
-0.000289028
-0.000281392
-0.000273817
-0.000266304
-0.000258861
-0.000251489
-0.000244192
-0.000236974
-0.000229837
-0.000222785
-0.000215821
-0.000208948
-0.00020217
-0.000195489
-0.000188907
-0.000182426
-0.000176051
-0.000169781
-0.00016362
-0.00015757
-0.000151631
-0.000145807
-0.000140098
-0.000134505
-0.00012903
-0.000123675
-0.00011844
-0.000113326
-0.000108333
-0.000103463
-9.87157e-05
-9.40917e-05
-8.95908e-05
-8.52141e-05
-8.096e-05
-7.68297e-05
-7.28228e-05
-6.89374e-05
-6.51751e-05
-6.15338e-05
-5.80128e-05
-5.46116e-05
-5.13289e-05
-4.81636e-05
-4.51144e-05
-4.218e-05
-3.93587e-05
-3.66491e-05
-3.40494e-05
-3.15579e-05
-2.91725e-05
-2.68914e-05
-2.47124e-05
-2.26331e-05
-2.06517e-05
-1.87654e-05
-1.69721e-05
-1.52691e-05
-1.3654e-05
-1.21243e-05
-1.06771e-05
-9.31022e-06
-8.02037e-06
-6.80523e-06
-5.6618e-06
-4.58707e-06
-3.57886e-06
-2.63341e-06
-1.74916e-06
-9.21131e-07
-1.49421e-07
5.71648e-07
1.24334e-06
1.86838e-06
2.45134e-06
2.99252e-06
3.49736e-06
3.96666e-06
4.40376e-06
4.81353e-06
5.19499e-06
5.55669e-06
5.89602e-06
6.22008e-06
6.53095e-06
6.83132e-06
7.12707e-06
7.41946e-06
7.71625e-06
8.018e-06
8.33521e-06
8.66851e-06
9.02881e-06
9.4222e-06
9.85588e-06
1.03292e-05
1.0938e-05
1.12677e-05
1.31334e-05
9.73752e-06
2.39683e-05
-1.11319e-05
6.98208e-05
-6.02721e-05
6.8952e-05
8.82821e-05
-0.000175858
-0.000350913
-0.000342859
-0.000334842
-0.000326742
-0.000318726
-0.00031087
-0.000303061
-0.000295276
-0.000287573
-0.000279957
-0.000272406
-0.000264919
-0.000257505
-0.000250164
-0.0002429
-0.000235715
-0.000228612
-0.000221595
-0.000214667
-0.00020783
-0.000201087
-0.000194441
-0.000187895
-0.00018145
-0.000175109
-0.000168874
-0.000162747
-0.00015673
-0.000150825
-0.000145032
-0.000139355
-0.000133793
-0.000128349
-0.000123023
-0.000117816
-0.00011273
-0.000107765
-0.000102921
-9.81993e-05
-9.36001e-05
-8.91232e-05
-8.47696e-05
-8.05379e-05
-7.64291e-05
-7.2443e-05
-6.85775e-05
-6.48345e-05
-6.12116e-05
-5.77084e-05
-5.43242e-05
-5.10578e-05
-4.79082e-05
-4.48739e-05
-4.19538e-05
-3.91462e-05
-3.64496e-05
-3.38623e-05
-3.13826e-05
-2.90085e-05
-2.6738e-05
-2.45691e-05
-2.24995e-05
-2.05273e-05
-1.86496e-05
-1.68645e-05
-1.51692e-05
-1.35614e-05
-1.20386e-05
-1.05979e-05
-9.23705e-06
-7.95297e-06
-6.74314e-06
-5.6048e-06
-4.53473e-06
-3.53103e-06
-2.58959e-06
-1.7093e-06
-8.84786e-07
-1.16468e-07
6.01523e-07
1.27029e-06
1.89268e-06
2.47307e-06
3.01207e-06
3.51456e-06
3.98203e-06
4.41718e-06
4.82526e-06
5.20513e-06
5.56524e-06
5.90316e-06
6.22592e-06
6.53542e-06
6.83457e-06
7.12922e-06
7.4202e-06
7.7161e-06
8.0164e-06
8.33259e-06
8.66466e-06
9.02355e-06
9.41588e-06
9.8479e-06
1.03203e-05
1.09267e-05
1.12583e-05
1.31122e-05
9.74591e-06
2.39034e-05
-1.10626e-05
6.97298e-05
-6.03032e-05
6.90965e-05
8.81999e-05
-0.000175964
-0.000349244
-0.000341181
-0.000333162
-0.000325065
-0.000317057
-0.000309215
-0.000301421
-0.000293653
-0.000285969
-0.000278376
-0.000270851
-0.000263393
-0.00025601
-0.000248704
-0.000241475
-0.000234327
-0.000227262
-0.000220284
-0.000213395
-0.000206597
-0.000199894
-0.000193288
-0.00018678
-0.000180374
-0.000174072
-0.000167875
-0.000161786
-0.000155805
-0.000149936
-0.00014418
-0.000138537
-0.000133009
-0.000127598
-0.000122305
-0.00011713
-0.000112075
-0.000107139
-0.000102324
-9.76308e-05
-9.30588e-05
-8.86082e-05
-8.42802e-05
-8.0073e-05
-7.5988e-05
-7.20247e-05
-6.81813e-05
-6.44593e-05
-6.08568e-05
-5.73731e-05
-5.40077e-05
-5.07593e-05
-4.76268e-05
-4.46091e-05
-4.17047e-05
-3.89121e-05