/*--------------------------------*- C++ -*----------------------------------*\
| =========                 |                                                 |
| \\      /  F ield         | OpenFOAM: The Open Source CFD Toolbox           |
|  \\    /   O peration     | Version:  2412                                  |
|   \\  /    A nd           | Website:  www.openfoam.com                      |
|    \\/     M anipulation  |                                                 |
\*---------------------------------------------------------------------------*/
FoamFile
{
    version     2.0;
    format      ascii;
    arch        "LSB;label=32;scalar=64";
    class       surfaceScalarField;
    location    "1.5";
    object      phi;
}
// * * * * * * * * * * * * * * * * * * * * * * * * * * * * * * * * * * * * * //

dimensions      [0 3 -1 0 0 0 0];

oriented        oriented;

internalField   nonuniform List<scalar> 
126304
(
0.00503977
1.10031e-05
-1.1024e-08
0.00502179
1.79875e-05
-1.2871e-08
0.00502147
3.22761e-07
-5.64533e-09
0.00502085
6.19638e-07
4.38687e-09
0.00502261
-1.76245e-06
6.53987e-09
0.00502372
-1.11755e-06
7.54525e-09
0.00502385
-1.42874e-07
7.07055e-09
0.00502343
4.15551e-07
7.51743e-09
0.00502263
7.89828e-07
7.22233e-09
0.00502158
1.04367e-06
6.84266e-09
0.00502036
1.21517e-06
6.7095e-09
0.00501901
1.33872e-06
6.61416e-09
0.00501757
1.43453e-06
6.66724e-09
0.00501605
1.51447e-06
6.62856e-09
0.00501446
1.58562e-06
6.63181e-09
0.0050128
1.6525e-06
6.60178e-09
0.00501108
1.71803e-06
6.27843e-09
0.00500929
1.78351e-06
6.14473e-09
0.00500743
1.8501e-06
6.22034e-09
0.0050055
1.91894e-06
6.09304e-09
0.00500351
1.99034e-06
5.84952e-09
0.00500144
2.06451e-06
5.53966e-09
0.00499929
2.14148e-06
5.34496e-09
0.00499706
2.22159e-06
5.11701e-09
0.00499475
2.30485e-06
4.99651e-09
0.00499236
2.39151e-06
4.78227e-09
0.00498987
2.48159e-06
4.50683e-09
0.00498729
2.57521e-06
4.21731e-09
0.00498462
2.67252e-06
3.89386e-09
0.00498184
2.77361e-06
3.55632e-09
0.00497896
2.87852e-06
3.2829e-09
0.00497597
2.98748e-06
3.03937e-09
0.00497286
3.10067e-06
2.84026e-09
0.00496964
3.21843e-06
2.56293e-09
0.0049663
3.34097e-06
2.26104e-09
0.00496283
3.46864e-06
1.94509e-09
0.00495923
3.60184e-06
1.63583e-09
0.00495548
3.74109e-06
1.2718e-09
0.00495159
3.88693e-06
8.62144e-10
0.00494755
4.04008e-06
4.40275e-10
0.00494335
4.20141e-06
5.38779e-11
0.00493898
4.37209e-06
-3.01886e-10
0.00493443
4.55355e-06
-6.60969e-10
0.00492968
4.74754e-06
-1.05892e-09
0.00492473
4.95626e-06
-1.50051e-09
0.00491955
5.18245e-06
-1.95898e-09
0.00491412
5.42971e-06
-2.38332e-09
0.00490842
5.70275e-06
-2.73489e-09
0.00490241
6.00779e-06
-2.99484e-09
0.00489606
6.35348e-06
-3.16654e-09
0.00488931
6.75275e-06
-3.26436e-09
0.0048821
7.22233e-06
-3.30464e-09
0.00487433
7.7704e-06
-3.30615e-09
0.00486599
8.34016e-06
-3.27957e-09
8.69128e-06
0.0048573
-3.23153e-09
0.00503956
2.21974e-05
0.00502147
3.6076e-05
0.0050217
1.01721e-07
0.00502098
1.33441e-06
0.00502274
-3.52454e-06
0.00502381
-2.18428e-06
0.00502389
-2.2808e-07
0.00502344
8.7051e-07
0.00502262
1.60707e-06
0.00502156
2.10689e-06
0.00502033
2.44473e-06
0.00501898
2.68855e-06
0.00501754
2.87825e-06
0.00501601
3.03677e-06
0.00501442
3.17823e-06
0.00501276
3.31137e-06
0.00501104
3.44165e-06
0.00500925
3.57215e-06
0.0050074
3.7052e-06
0.00500547
3.8425e-06
0.00500348
3.98482e-06
0.00500141
4.13265e-06
0.00499926
4.28618e-06
0.00499704
4.44597e-06
0.00499473
4.61217e-06
0.00499234
4.78504e-06
0.00498986
4.9647e-06
0.00498728
5.15141e-06
0.00498461
5.34544e-06
0.00498183
5.54696e-06
0.00497896
5.75619e-06
0.00497597
5.97349e-06
0.00497287
6.19928e-06
0.00496966
6.43405e-06
0.00496632
6.67831e-06
0.00496285
6.93274e-06
0.00495926
7.19815e-06
0.00495552
7.47549e-06
0.00495164
7.76584e-06
0.00494761
8.07059e-06
0.00494342
8.39154e-06
0.00493906
8.73095e-06
0.00493453
9.09155e-06
0.0049298
9.47669e-06
0.00492486
9.8906e-06
0.00491971
1.03386e-05
0.00491431
1.08277e-05
0.00490865
1.13669e-05
0.00490268
1.19681e-05
0.00489639
1.26478e-05
0.00488971
1.34304e-05
0.00488259
1.43477e-05
0.00487494
1.54145e-05
0.00486676
1.65211e-05
1.72057e-05
0.00485825
0.00503938
3.35765e-05
0.0050211
5.43545e-05
0.0050223
-1.10203e-06
0.00502131
2.32338e-06
0.00502305
-5.2623e-06
0.00502402
-3.14752e-06
0.00502399
-2.06449e-07
0.00502347
1.39007e-06
0.00502262
2.46447e-06
0.00502153
3.19517e-06
0.00502028
3.68936e-06
0.00501893
4.04723e-06
0.00501748
4.32688e-06
0.00501595
4.56143e-06
0.00501436
4.77154e-06
0.0050127
4.96979e-06
0.00501098
5.16393e-06
0.00500919
5.35882e-06
0.00500734
5.55785e-06
0.00500542
5.76314e-06
0.00500343
5.97596e-06
0.00500136
6.19703e-06
0.00499922
6.42673e-06
0.004997
6.66581e-06
0.0049947
6.91452e-06
0.00499231
7.17317e-06
0.00498983
7.44199e-06
0.00498726
7.7213e-06
0.0049846
8.01151e-06
0.00498183
8.31287e-06
0.00497896
8.62576e-06
0.00497599
8.9507e-06
0.0049729
9.28827e-06
0.00496969
9.63915e-06
0.00496637
1.00041e-05
0.00496291
1.03842e-05
0.00495933
1.07805e-05
0.00495561
1.11943e-05
0.00495175
1.16274e-05
0.00494774
1.20816e-05
0.00494357
1.25597e-05
0.00493924
1.30647e-05
0.00493473
1.36006e-05
0.00493003
1.41722e-05
0.00492514
1.47854e-05
0.00492003
1.54478e-05
0.00491469
1.61691e-05
0.00490909
1.69621e-05
0.00490322
1.78431e-05
0.00489703
1.88351e-05
0.00489049
1.99716e-05
0.00488354
2.12959e-05
0.00487613
2.28272e-05
0.00486824
2.44105e-05
2.54008e-05
0.00486004
0.00503967
4.46678e-05
0.0050212
7.28183e-05
0.0050236
-3.50318e-06
0.00502199
3.93367e-06
0.00502361
-6.87672e-06
0.00502438
-3.91904e-06
0.00502419
-1.38217e-08
0.00502357
2.00763e-06
0.00502265
3.38115e-06
0.00502153
4.3199e-06
0.00502026
4.95569e-06
0.00501889
5.41848e-06
0.00501743
5.78237e-06
0.00501591
6.0893e-06
0.00501431
6.3656e-06
0.00501265
6.62724e-06
0.00501093
6.88401e-06
0.00500915
7.14238e-06
0.0050073
7.40665e-06
0.00500539
7.67929e-06
0.0050034
7.96197e-06
0.00500134
8.2557e-06
0.00499921
8.56102e-06
0.00499699
8.87883e-06
0.0049947
9.20946e-06
0.00499232
9.55328e-06
0.00498985
9.91061e-06
0.00498729
1.02818e-05
0.00498463
1.06674e-05
0.00498188
1.10678e-05
0.00497902
1.14834e-05
0.00497606
1.19149e-05
0.00497298
1.23631e-05
0.00496979
1.28288e-05
0.00496648
1.3313e-05
0.00496305
1.3817e-05
0.00495949
1.43423e-05
0.00495579
1.48905e-05
0.00495196
1.54636e-05
0.00494797
1.60644e-05
0.00494384
1.66959e-05
0.00493954
1.73622e-05
0.00493507
1.80681e-05
0.00493043
1.88194e-05
0.00492559
1.96236e-05
0.00492055
2.04899e-05
0.00491528
2.14302e-05
0.00490979
2.24597e-05
0.00490403
2.35983e-05
0.00489799
2.48731e-05
0.00489164
2.6324e-05
0.00488494
2.80012e-05
0.00487784
2.99262e-05
0.00487034
3.19106e-05
3.31836e-05
0.00486255
0.00504104
5.43877e-05
0.00502249
9.13664e-05
0.00502595
-6.9623e-06
0.00502319
6.68699e-06
0.00502451
-8.19417e-06
0.00502498
-4.38319e-06
0.00502455
4.17459e-07
0.0050238
2.75573e-06
0.0050228
4.37361e-06
0.00502163
5.49019e-06
0.00502034
6.24847e-06
0.00501896
6.80454e-06
0.00501749
7.24543e-06
0.00501596
7.62015e-06
0.00501437
7.95951e-06
0.00501271
8.28237e-06
0.005011
8.60026e-06
0.00500922
8.92094e-06
0.00500737
9.24948e-06
0.00500547
9.58864e-06
0.00500349
9.94042e-06
0.00500144
1.03061e-05
0.00499931
1.06863e-05
0.00499711
1.10822e-05
0.00499482
1.1494e-05
0.00499245
1.19222e-05
0.00499
1.23672e-05
0.00498745
1.28295e-05
0.00498481
1.33094e-05
0.00498207
1.38077e-05
0.00497923
1.43249e-05
0.00497628
1.48617e-05
0.00497322
1.5419e-05
0.00497006
1.59978e-05
0.00496677
1.65994e-05
0.00496336
1.72252e-05
0.00495983
1.7877e-05
0.00495616
1.85567e-05
0.00495236
1.92668e-05
0.00494841
2.00102e-05
0.00494432
2.07906e-05
0.00494007
2.16127e-05
0.00493565
2.24819e-05
0.00493107
2.34048e-05
0.0049263
2.43898e-05
0.00492134
2.54472e-05
0.00491618
2.65903e-05
0.00491081
2.78358e-05
0.0049052
2.92055e-05
0.00489934
3.07287e-05
0.00489322
3.24482e-05
0.0048868
3.44176e-05
0.00488007
3.6658e-05
0.00487302
3.89655e-05
4.05152e-05
0.00486568
0.00504401
6.11308e-05
0.00502538
0.00011
0.00502956
-1.11397e-05
0.00502499
1.12584e-05
0.00502584
-9.04368e-06
0.00502587
-4.42068e-06
0.00502514
1.15459e-06
0.00502423
3.65935e-06
0.00502315
5.45353e-06
0.00502193
6.71147e-06
0.00502061
7.56963e-06
0.00501921
8.20534e-06
0.00501774
8.71484e-06
0.00501621
9.15198e-06
0.00501462
9.55077e-06
0.00501297
9.93234e-06
0.00501126
1.03096e-05
0.00500949
1.06912e-05
0.00500765
1.10828e-05
0.00500575
1.14875e-05
0.00500379
1.19075e-05
0.00500175
1.23443e-05
0.00499964
1.27986e-05
0.00499745
1.32717e-05
0.00499518
1.37638e-05
0.00499282
1.42755e-05
0.00499038
1.48072e-05
0.00498785
1.53593e-05
0.00498523
1.59325e-05
0.00498251
1.65274e-05
0.00497969
1.71446e-05
0.00497677
1.77851e-05
0.00497374
1.84498e-05
0.0049706
1.91397e-05
0.00496734
1.98564e-05
0.00496396
2.06015e-05
0.00496046
2.13769e-05
0.00495683
2.21848e-05
0.00495307
2.30278e-05
0.00494917
2.39094e-05
0.00494513
2.48334e-05
0.00494094
2.58048e-05
0.00493659
2.68295e-05
0.00493208
2.79146e-05
0.0049274
2.90687e-05
0.00492255
3.03028e-05
0.00491751
3.16305e-05
0.00491227
3.30691e-05
0.00490684
3.46407e-05
0.00490119
3.63748e-05
0.00489533
3.83143e-05
0.00488923
4.05117e-05
0.0048829
4.29877e-05
0.00487633
4.55413e-05
4.73686e-05
0.00486947
0.00504731
6.4579e-05
0.00503082
0.000126488
0.00503326
-1.35748e-05
0.00502755
1.69635e-05
0.00502755
-9.04203e-06
0.00502699
-3.86533e-06
0.00502594
2.20501e-06
0.00502487
4.73218e-06
0.0050237
6.62887e-06
0.00502242
7.98513e-06
0.00502107
8.91829e-06
0.00501966
9.61887e-06
0.00501819
1.01878e-05
0.00501666
1.06814e-05
0.00501507
1.11357e-05
0.00501343
1.15732e-05
0.00501173
1.20078e-05
0.00500998
1.24488e-05
0.00500816
1.29022e-05
0.00500627
1.33713e-05
0.00500432
1.38585e-05
0.0050023
1.43654e-05
0.00500021
1.4893e-05
0.00499804
1.54422e-05
0.00499579
1.60136e-05
0.00499345
1.66076e-05
0.00499104
1.72248e-05
0.00498853
1.78656e-05
0.00498593
1.85306e-05
0.00498324
1.92205e-05
0.00498045
1.99361e-05
0.00497755
2.06782e-05
0.00497456
2.14481e-05
0.00497145
2.22468e-05
0.00496823
2.30759e-05
0.00496489
2.39372e-05
0.00496144
2.48328e-05
0.00495786
2.57648e-05
0.00495415
2.67363e-05
0.00495031
2.77507e-05
0.00494633
2.88121e-05
0.00494221
2.99255e-05
0.00493794
3.1097e-05
0.00493352
3.23335e-05
0.00492895
3.3644e-05
0.00492421
3.50389e-05
0.00491931
3.65317e-05
0.00491424
3.81388e-05
0.004909
3.98813e-05
0.00490359
4.17869e-05
0.00489801
4.38952e-05
0.00489226
4.62539e-05
0.00488637
4.88818e-05
0.00488032
5.15948e-05
0.00487402
5.36671e-05
0.00485936
-2.04964e-06
-3.18224e-09
0.00486243
-3.07367e-06
-3.16153e-09
0.00486732
-4.88193e-06
-3.11334e-09
0.00487415
-6.82661e-06
-3.05246e-09
0.00488236
-8.20523e-06
-2.99568e-09
0.00489101
-8.64792e-06
-2.95609e-09
0.00489919
-8.18311e-06
-2.94245e-09
0.00490627
-7.07407e-06
-2.94709e-09
0.0049119
-5.62513e-06
-2.95936e-09
0.00491596
-4.06384e-06
-2.96626e-09
0.00491849
-2.51742e-06
-2.9782e-09
0.00491952
-1.02748e-06
-2.94703e-09
0.00491913
3.92368e-07
-2.74867e-09
0.00491741
1.71958e-06
-2.66898e-09
0.00491434
3.06765e-06
-2.53371e-09
0.00490991
4.4343e-06
-2.4437e-09
0.00490407
5.84568e-06
-2.44704e-09
0.00489674
7.32667e-06
-2.57201e-09
0.00488785
8.90034e-06
-2.79016e-09
0.00487726
1.059e-05
-2.91759e-09
0.00486484
1.24209e-05
-2.85378e-09
0.00485042
1.44228e-05
-2.58972e-09
0.00483379
1.66296e-05
-2.17943e-09
0.00481472
1.90768e-05
-1.71091e-09
0.00479292
2.17999e-05
-1.25464e-09
0.00476809
2.48346e-05
-8.5279e-10
0.00473987
2.82189e-05
-5.27673e-10
0.00470787
3.20025e-05
-2.9401e-10
0.00467161
3.62567e-05
-1.55912e-10
0.00463053
4.10754e-05
-1.10325e-10
0.00458396
4.65737e-05
-1.49113e-10
0.00453108
5.2885e-05
-2.46689e-10
0.00447092
6.01612e-05
-3.60182e-10
0.00440233
6.85846e-05
-4.42626e-10
0.00432394
7.83914e-05
-4.43712e-10
0.00423405
8.98928e-05
-3.38623e-10
0.00413055
0.000103494
-1.51161e-10
0.00401084
0.000119715
7.53851e-11
0.00387162
0.000139222
3.14166e-10
0.00370873
0.000162882
5.52623e-10
0.0035169
0.000191834
7.95495e-10
0.00328935
0.000227552
1.0516e-09
0.00301749
0.000271857
1.3149e-09
0.00269081
0.000326678
1.54933e-09
0.00229781
0.000393
1.70295e-09
0.00183005
0.000467756
1.72688e-09
0.00129315
0.000536902
1.6022e-09
0.000727745
0.000565401
1.30946e-09
0.000237323
0.000490421
8.22304e-10
0.000237323
1.9862e-10
0.00485903
-2.83402e-06
0.00486076
-4.79643e-06
0.00486414
-8.26615e-06
0.00486929
-1.19793e-05
0.00487567
-1.45801e-05
0.00488239
-1.53669e-05
0.00488861
-1.44086e-05
0.00489376
-1.22205e-05
0.00489752
-9.38897e-06
0.0048998
-6.34656e-06
0.00490062
-3.33103e-06
0.00489996
-3.73401e-07
0.00489805
2.30776e-06
0.00489479
4.97654e-06
0.00489022
7.64163e-06
0.0048843
1.03513e-05
0.00487699
1.3157e-05
0.00486821
1.61069e-05
0.00485786
1.92462e-05
0.00484583
2.26207e-05
0.00483197
2.62803e-05
0.00481611
3.0284e-05
0.00479804
3.47005e-05
0.00477752
3.96008e-05
0.00475426
4.50559e-05
0.00472796
5.11359e-05
0.00469826
5.79161e-05
0.00466477
6.54969e-05
0.004627
7.40227e-05
0.00458439
8.36828e-05
0.00453626
9.47064e-05
0.00448179
0.000107359
0.00442001
0.000121941
0.00434977
0.000138819
0.0042697
0.000158466
0.00417809
0.000181503
0.00407285
0.000208736
0.00395137
0.000241195
0.00381039
0.000280201
0.0036458
0.000327471
0.00345238
0.000385257
0.00322346
0.000456469
0.00295065
0.000544668
0.00262381
0.000653519
0.00223221
0.000784599
0.00176883
0.000931134
0.00124134
0.00106439
0.000691862
0.00111488
0.000220603
0.000961681
0.000457926
0.00485827
-1.06117e-06
0.00485725
-3.77072e-06
0.00485757
-8.59499e-06
0.00485932
-1.37221e-05
0.00486199
-1.72477e-05
0.00486483
-1.8208e-05
0.00486714
-1.67263e-05
0.00486846
-1.35403e-05
0.00486854
-9.46697e-06
0.0048673
-5.10542e-06
0.00486467
-6.96816e-07
0.00486091
3.38787e-06
0.00485584
7.36986e-06
0.00484953
1.12852e-05
0.00484197
1.52078e-05
0.0048331
1.92162e-05
0.00482288
2.33846e-05
0.0048112
2.77818e-05
0.00479797
3.24732e-05
0.00478307
3.75247e-05
0.00476634
4.30091e-05
0.00474761
4.90145e-05
0.00472667
5.56453e-05
0.00470326
6.30089e-05
0.0046771
7.12119e-05
0.00464788
8.03569e-05
0.00461524
9.05556e-05
0.00457878
0.000101961
0.004538
0.000114795
0.00449235
0.000129341
0.00444111
0.000145942
0.00438348
0.000164989
0.00431849
0.000186935
0.00424498
0.000212329
0.00416156
0.000241881
0.00406655
0.000276519
0.00395785
0.000317435
0.00383289
0.000366151
0.00368848
0.000424612
0.0035206
0.000495351
0.00332418
0.000581675
0.00309281
0.000687838
0.00281852
0.000818962
0.00249197
0.000980073
0.00210398
0.00117258
0.00165024
0.00138488
0.00114207
0.00157256
0.000624662
0.00163229
0.000194044
0.0013923
0.00065197
0.00485691
4.58421e-06
0.00485168
1.45525e-06
0.00484733
-4.24636e-06
0.00484387
-1.02625e-05
0.00484094
-1.43138e-05
0.00483799
-1.52565e-05
0.00483453
-1.32641e-05
0.00483022
-9.23803e-06
0.00482492
-4.16448e-06
0.00481847
1.35107e-06
0.00481108
6.68948e-06
0.00480254
1.19278e-05
0.00479288
1.70294e-05
0.00478208
2.20807e-05
0.00477011
2.71821e-05
0.00475689
3.24323e-05
0.00474235
3.79235e-05
0.00472639
4.37418e-05
0.0047089
4.9969e-05
0.00468973
5.6689e-05
0.00466875
6.39951e-05
0.00464576
7.20034e-05
0.00462055
8.0855e-05
0.00459286
9.06958e-05
0.00456241
0.000101667
0.00452886
0.000113904
0.00449186
0.000127555
0.00445099
0.000142831
0.00440576
0.000160028
0.00435557
0.000179529
0.00429973
0.000201783
0.00423742
0.000227304
0.00416766
0.000256693
0.0040893
0.000290688
0.00400094
0.000330236
0.0039009
0.000376559
0.00378712
0.000431215
0.00365709
0.00049618
0.00350772
0.000573983
0.00333517
0.0006679
0.00313465
0.000782194
0.0029002
0.000922296
0.00262457
0.00109459
0.0022998
0.00130484
0.00191916
0.00155322
0.00148215
0.00182189
0.00100447
0.00205024
0.000533216
0.00210354
0.000156226
0.00176929
0.000808196
0.00485483
1.5438e-05
0.00484398
1.23022e-05
0.00483335
6.38837e-06
0.00482296
1.22648e-07
0.00481267
-4.02348e-06
0.00480221
-4.79727e-06
0.00479134
-2.39037e-06
0.00477984
2.26548e-06
0.0047677
7.97545e-06
0.00475486
1.41918e-05
0.00474114
2.04098e-05
0.00472653
2.65383e-05
0.00471096
3.2593e-05
0.00469438
3.86632e-05
0.0046767
4.48595e-05
0.00465784
5.12921e-05
0.0046377
5.80654e-05
0.00461617
6.52777e-05
0.00459311
7.30248e-05
0.00456839
8.14051e-05
0.00454186
9.05306e-05
0.00451332
0.000100544
0.00448255
0.000111626
0.00444928
0.000123963
0.00441322
0.00013773
0.00437403
0.000153093
0.00433134
0.000170241
0.00428473
0.000189443
0.00423368
0.000211078
0.00417759
0.000235619
0.00411575
0.000263619
0.00404734
0.000295717
0.00397137
0.000332666
0.00388667
0.000375385
0.00379186
0.000425044
0.00368528
0.000483146
0.00356491
0.000551584
0.00342834
0.000632743
0.00327267
0.000729658
0.00309433
0.000846239
0.002889
0.000987525
0.00265149
0.00115981
0.00237588
0.00137019
0.0020564
0.00162432
0.00168985
0.00191977
0.00128056
0.00223118
0.000848231
0.00248257
0.000437135
0.00251464
0.000116666
0.00208976
0.000924862
0.00485219
3.27186e-05
0.00483441
3.00897e-05
0.00481615
2.46404e-05
0.00479752
1.87609e-05
0.00477855
1.49452e-05
0.00475932
1.44315e-05
0.00473986
1.70701e-05
0.00472017
2.19499e-05
0.00470009
2.80541e-05
0.00467958
3.47038e-05
0.00465849
4.15028e-05
0.00463671
4.83207e-05
0.00461412
5.51772e-05
0.00459063
6.21577e-05
0.00456612
6.93716e-05
0.00454048
7.69316e-05
0.00451359
8.49484e-05
0.00448534
9.35293e-05
0.00445559
0.000102781
0.00442418
0.000112814
0.00439095
0.000123759
0.00435571
0.000135786
0.00431822
0.000149114
0.00427821
0.000163973
0.00423537
0.000180572
0.00418935
0.00019911
0.00413977
0.000219821
0.00408618
0.000243029
0.00402807
0.000269195
0.0039648
0.000298888
0.00389565
0.000332766
0.00381978
0.000371584
0.0037362
0.000416244
0.00364374
0.000467847
0.00354101
0.00052778
0.00342636
0.000597795
0.00329786
0.00068008
0.00315324
0.000777359
0.00298985
0.000893052
0.0028046
0.00103149
0.00259403
0.0011981
0.00235444
0.0013994
0.00208249
0.00164215
0.00177645
0.00193035
0.00143883
0.00225739
0.00107994
0.00259007
0.00072148
0.00284103
0.000396177
0.00283994
0.000131766
0.00235417
0.00105663
0.00484932
5.74214e-05
0.0048237
5.57039e-05
0.00479705
5.1292e-05
0.00476947
4.63362e-05
0.00474126
4.31562e-05
0.00471274
4.29581e-05
0.00468412
4.56875e-05
0.00465549
5.05829e-05
0.00462676
5.67777e-05
0.00459783
6.36357e-05
0.00456853
7.08029e-05
0.0045387
7.81511e-05
0.00450819
8.56878e-05
0.00447686
9.34864e-05
0.00444459
0.000101647
0.00441124
0.00011028
0.00437669
0.000119498
0.0043408
0.000129413
0.00430344
0.000140141
0.00426445
0.000151807
0.00422365
0.000164561
0.00418083
0.0001786
0.00413576
0.000194186
0.00408814
0.000211592
0.00403767
0.000231047
0.003984
0.000252777
0.00392675
0.000277071
0.00386546
0.000304325
0.00379957
0.00033508
0.00372846
0.000370002
0.00365137
0.000409849
0.00356746
0.000455496
0.00347572
0.00050799
0.00337496
0.000568607
0.0032638
0.000638939
0.00314062
0.00072097
0.00300356
0.000817143
0.00285047
0.000930452
0.00267896
0.00106456
0.00248649
0.00122395
0.00227065
0.00141394
0.00202971
0.00164033
0.00176395
0.00190791
0.00147769
0.00221662
0.00118216
0.00255292
0.000898095
0.00287414
0.000652955
0.00308617
0.000462281
0.00303061
0.000296873
0.00251958
0.0013535
-5.04324e-05
5.04332e-05
-8.56891e-10
-6.03076e-05
9.87648e-06
-1.22833e-09
5.58303e-05
-0.000116137
-6.3872e-10
0.000320743
-0.000264913
2.62306e-10
0.00070529
-0.000384547
1.10775e-09
0.00115559
-0.000450301
1.87521e-09
0.00161963
-0.000464048
2.59646e-09
0.00206048
-0.000440851
3.22993e-09
0.00245797
-0.000397492
3.67047e-09
0.00280489
-0.000346922
3.87701e-09
0.00310201
-0.00029713
3.88208e-09
0.00335411
-0.000252097
3.75092e-09
0.00356733
-0.000213225
3.53381e-09
0.00374784
-0.000180514
3.26509e-09
0.00390117
-0.00015333
2.95225e-09
0.004032
-0.000130835
2.60007e-09
0.0041442
-0.000112203
2.21235e-09
0.00424091
-9.671e-05
1.80203e-09
0.00432466
-8.37508e-05
1.4041e-09
0.00439748
-7.28299e-05
1.072e-09
0.00446104
-6.35555e-05
9.46412e-10
0.00451666
-5.56252e-05
1.1173e-09
0.00456546
-4.88022e-05
1.93381e-09
0.00460836
-4.28973e-05
3.53522e-09
0.00464611
-3.77578e-05
5.62258e-09
0.00467936
-3.32604e-05
7.77621e-09
0.00470866
-2.93075e-05
9.3907e-09
0.00473447
-2.5823e-05
1.02835e-08
0.00475721
-2.27426e-05
1.05984e-08
0.0047772
-2.00087e-05
1.05379e-08
0.00479477
-1.75727e-05
1.0288e-08
0.00481015
-1.53944e-05
9.97681e-09
0.00482358
-1.34412e-05
9.6698e-09
0.00483526
-1.16863e-05
9.38505e-09
0.00484536
-1.01078e-05
9.1223e-09
0.00485404
-8.68666e-06
8.87982e-09
0.00486143
-7.40685e-06
8.66055e-09
0.00486768
-6.25497e-06
8.47553e-09
0.00487289
-5.22016e-06
8.33403e-09
0.00487718
-4.2941e-06
8.23464e-09
0.00488064
-3.47101e-06
8.17195e-09
0.00488338
-2.74798e-06
8.14196e-09
0.0048855
-2.1254e-06
8.14186e-09
0.0048871
-1.60785e-06
8.17162e-09
0.00488829
-1.20593e-06
8.23574e-09
0.00488923
-9.38926e-07
8.33741e-09
0.00489005
-8.3651e-07
8.47621e-09
0.00489097
-9.28319e-07
8.64989e-09
0.00489215
-1.18639e-06
8.85464e-09
-1.38446e-06
0.00489353
9.07678e-09
-3.41459e-05
8.45791e-05
-1.41458e-05
-1.01236e-05
0.000117743
-0.000248026
0.000382162
-0.000529333
0.000753488
-0.000755873
0.00118448
-0.000881294
0.0016287
-0.000908264
0.00205237
-0.000864525
0.00243651
-0.000781632
0.00277385
-0.000684261
0.00306457
-0.000587846
0.00331269
-0.00050022
0.00352372
-0.000424251
0.00370327
-0.000360068
0.00385648
-0.000306537
0.00398774
-0.000262097
0.00410072
-0.000225189
0.00419845
-0.000194431
0.00428335
-0.000168657
0.00435743
-0.000146908
0.00442229
-0.000128419
0.00447927
-0.000112597
0.00452944
-9.89723e-05
0.00457371
-8.7172e-05
0.00461285
-7.68944e-05
0.00464748
-6.78968e-05
0.00467816
-5.99871e-05
0.00470535
-5.30152e-05
0.00472946
-4.68523e-05
0.00475084
-4.13824e-05
0.00476977
-3.65076e-05
0.00478653
-3.2148e-05
0.00480132
-2.82385e-05
0.00481436
-2.47262e-05
0.00482582
-2.15669e-05
0.00483586
-1.87228e-05
0.00484461
-1.61612e-05
0.00485221
-1.3855e-05
0.00485878
-1.17822e-05
0.00486441
-9.92572e-06
0.00486921
-8.27366e-06
0.00487328
-6.81939e-06
0.00487672
-5.56264e-06
0.00487962
-4.51114e-06
0.0048821
-3.68358e-06
0.00488428
-3.11503e-06
0.0048863
-2.85987e-06
0.00488834
-2.9726e-06
0.00489056
-3.39933e-06
-3.70611e-06
0.00489288
6.69603e-06
7.78831e-05
7.18036e-05
-7.52312e-05
0.000233782
-0.000410005
0.000497597
-0.000793147
0.000843449
-0.00110172
0.0012369
-0.00127474
0.00164246
-0.00131383
0.00203271
-0.00125478
0.00239096
-0.00113987
0.00270979
-0.0010031
0.00298821
-0.000866258
0.00322877
-0.000740784
0.00343567
-0.000631148
0.00361348
-0.000537878
0.00376655
-0.000459606
0.00389873
-0.000394278
0.00401332
-0.000339777
0.00411307
-0.000294188
0.00420029
-0.000255874
0.00427686
-0.000223473
0.00434432
-0.000195885
0.00440397
-0.000172244
0.00445686
-0.000151861
0.00450387
-0.000134187
0.00454576
-0.000118779
0.00458314
-0.000105282
0.00461657
-9.34129e-05
0.0046465
-8.29513e-05
0.00467336
-7.3703e-05
0.00469746
-6.5492e-05
0.00471913
-5.81715e-05
0.0047386
-5.1623e-05
0.00475612
-4.57504e-05
0.00477186
-4.04753e-05
0.00478603
-3.57313e-05
0.00479877
-3.14607e-05
0.00481022
-2.76138e-05
0.00482051
-2.41491e-05
0.00482976
-2.10327e-05
0.00483808
-1.82383e-05
0.00484555
-1.57468e-05
0.00485228
-1.35466e-05
0.00485835
-1.16351e-05
0.00486386
-1.002e-05
0.0048689
-8.72418e-06
0.00487358
-7.79151e-06
0.00487801
-7.29166e-06
0.00488233
-7.29499e-06
0.00488666
-7.72505e-06
-7.97694e-06
0.00489093
5.17326e-05
2.61505e-05
0.000184613
-0.000208111
0.000387558
-0.00061295
0.00064977
-0.00105536
0.000959739
-0.00141169
0.00130043
-0.00161543
0.00165165
-0.00166505
0.00199496
-0.00159808
0.00231694
-0.00146186
0.00261
-0.00129616
0.00287138
-0.00112763
0.00310156
-0.000970965
0.00330287
-0.000832457
0.00347841
-0.00071342
0.00363145
-0.00061264
0.00376507
-0.000527898
0.00388205
-0.000456761
0.00398482
-0.000396958
0.00407544
-0.000346498
0.00415567
-0.000303696
0.00422695
-0.000267171
0.00429052
-0.000235814
0.0043474
-0.000208736
0.00439843
-0.000185223
0.00444436
-0.000164703
0.00448579
-0.000146714
0.00452326
-0.00013089
0.00455725
-0.00011694
0.00458815
-0.000104605
0.00461631
-9.36452e-05
0.00464201
-8.38688e-05
0.0046655
-7.51213e-05
0.00468703
-6.72777e-05
0.00470679
-6.02346e-05
0.00472496
-5.39026e-05
0.0047417
-4.82029e-05
0.00475716
-4.30678e-05
0.00477145
-3.84404e-05
0.00478469
-3.42746e-05
0.00479699
-3.05335e-05
0.00480843
-2.719e-05
0.00481911
-2.4226e-05
0.00482911
-2.16341e-05
0.00483851
-1.94188e-05
0.00484738
-1.76011e-05
0.00485582
-1.62258e-05
0.00486389
-1.53655e-05
0.00487169
-1.50941e-05
0.00487928
-1.53164e-05
-1.53113e-05
0.00488662
0.000103189
-7.70383e-05
0.000310854
-0.000415777
0.000555605
-0.0008577
0.000811315
-0.00131107
0.00107659
-0.00167697
0.00135386
-0.0018927
0.00164032
-0.00195151
0.00192794
-0.0018857
0.00220718
-0.0017411
0.00247014
-0.00155913
0.00271191
-0.0013694
0.0029304
-0.00118946
0.00312567
-0.00102773
0.00329906
-0.000886807
0.00345255
-0.000766126
0.00358834
-0.000663687
0.00370861
-0.000577032
0.00381538
-0.000503728
0.00391045
-0.000441571
0.00399541
-0.000388653
0.00407161
-0.000343377
0.00414022
-0.000304424
0.00420221
-0.000270723
0.00425841
-0.000241419
0.00430952
-0.00021582
0.00435617
-0.000193364
0.00439889
-0.000173603
0.00443812
-0.000156177
0.00447427
-0.000140753
0.00450766
-0.000127037
0.00453859
-0.000114795
0.00456731
-0.000103841
0.00459406
-9.40228e-05
0.00461903
-8.52118e-05
0.00464242
-7.72935e-05
0.00466439
-7.01665e-05
0.00468506
-6.37435e-05
0.00470457
-5.7952e-05
0.00472303
-5.27325e-05
0.00474054
-4.80375e-05
0.00475718
-4.38305e-05
0.00477304
-4.00855e-05
0.00478819
-3.67877e-05
0.00480271
-3.39351e-05
0.00481665
-3.15419e-05
0.00483007
-2.9645e-05
0.00484301
-2.83081e-05
0.00485551
-2.75958e-05
0.0048676
-2.74005e-05
-2.69533e-05
0.00487924
0.000173047
-0.000250085
0.000447166
-0.000689896
0.000713447
-0.00112398
0.000946503
-0.00154413
0.00115708
-0.00188755
0.00136512
-0.00210074
0.00158335
-0.00216974
0.00181328
-0.00211564
0.00204887
-0.00197669
0.00228172
-0.00179197
0.00250452
-0.00159219
0.00271242
-0.00139736
0.00290301
-0.00121832
0.0030757
-0.0010595
0.00323111
-0.000921538
0.00337051
-0.000803085
0.00349545
-0.000701971
0.00360755
-0.000615827
0.00370835
-0.000542376
0.00379928
-0.000479579
0.00388158
-0.000425679
0.00395635
-0.000379198
0.00402455
-0.00033892
0.00408699
-0.000303856
0.00414437
-0.0002732
0.0041973
-0.000246296
0.00424632
-0.000222621
0.00429187
-0.000201731
0.00433434
-0.000183218
0.00437404
-0.000166739
0.00441127
-0.000152024
0.00444629
-0.000138861
0.00447934
-0.000127072
0.00451062
-0.0001165
0.00454033
-0.000107003
0.00456862
-9.84548e-05
0.00459563
-9.07484e-05
0.00462147
-8.37949e-05
0.00464626
-7.75214e-05
0.00467009
-7.18689e-05
0.00469305
-6.67905e-05
0.00471522
-6.22509e-05
0.00473665
-5.82264e-05
0.00475742
-5.47053e-05
0.00477757
-5.16909e-05
0.00479713
-4.9206e-05
0.00481612
-4.72965e-05
0.00483454
-4.60089e-05
0.00485237
-4.52325e-05
-4.42261e-05
0.00486964
0.00025929
-0.000509375
0.000555454
-0.000986059
0.000805219
-0.00137375
0.000995803
-0.00173471
0.00114903
-0.00204077
0.00129563
-0.00224733
0.00145723
-0.00233135
0.00164066
-0.00229906
0.00184156
-0.00217759
0.0020507
-0.00200111
0.00225881
-0.00180031
0.00245889
-0.00159744
0.00264659
-0.00140602
0.00281983
-0.00123274
0.00297811
-0.00107982
0.00312191
-0.00094688
0.00325224
-0.0008323
0.00337036
-0.000733946
0.00347758
-0.000649599
0.00357517
-0.000577168
0.00366429
-0.000514797
0.00374597
-0.000460885
0.00382115
-0.000414094
0.00389061
-0.000373322
0.00395507
-0.000337659
0.00401513
-0.000306353
0.0040713
-0.000278793
0.00412402
-0.000254454
0.00417367
-0.00023287
0.00422058
-0.000213645
0.00426503
-0.000196474
0.00430729
-0.000181119
0.00434759
-0.000167376
0.00438615
-0.00015506
0.00442315
-0.000144
0.00445874
-0.000134044
0.00449306
-0.000125067
0.00452622
-0.000116961
0.00455834
-0.00010964
0.00458951
-0.000103033
0.0046198
-9.70829e-05
0.00464929
-9.17433e-05
0.00467804
-8.69799e-05
0.00470611
-8.27699e-05
0.00473352
-7.91033e-05
0.0047603
-7.59855e-05
0.00478644
-7.34399e-05
0.00481193
-7.14932e-05
0.00483673
-7.00363e-05
0.00486093
-6.84286e-05
0.00490522
-1.17048e-05
9.33235e-09
0.00491576
-1.0552e-05
9.64557e-09
0.00492398
-8.23076e-06
9.80358e-09
0.00492929
-5.31341e-06
9.73238e-09
0.00493197
-2.68942e-06
9.4043e-09
0.00493295
-9.92372e-07
8.86173e-09
0.00493329
-3.45709e-07
8.19379e-09
0.00493377
-4.90345e-07
7.50748e-09
0.00493481
-1.04946e-06
6.88425e-09
0.00493653
-1.71883e-06
6.36617e-09
0.00493885
-2.32542e-06
5.96039e-09
0.00494164
-2.80282e-06
5.64613e-09
0.00494478
-3.14545e-06
5.3802e-09
0.00494815
-3.37306e-06
5.10338e-09
0.00495166
-3.51103e-06
4.76004e-09
0.00495524
-3.58217e-06
4.33535e-09
0.00495884
-3.60458e-06
3.87475e-09
0.00496243
-3.59182e-06
3.45811e-09
0.00496598
-3.55384e-06
3.14325e-09
0.00496947
-3.49783e-06
2.92351e-09
0.0049729
-3.42899e-06
2.73399e-09
0.00497625
-3.35113e-06
2.5114e-09
0.00497951
-3.26707e-06
2.24517e-09
0.00498269
-3.17891e-06
1.96818e-09
0.00498577
-3.08823e-06
1.7171e-09
0.00498877
-2.99622e-06
1.50637e-09
0.00499167
-2.9037e-06
1.31688e-09
0.00499448
-2.81125e-06
1.10107e-09
0.0049972
-2.71937e-06
8.32807e-10
0.00499983
-2.62847e-06
5.39392e-10
0.00500237
-2.53886e-06
2.66022e-10
0.00500482
-2.45076e-06
4.62422e-11
0.00500718
-2.36435e-06
-1.09193e-10
0.00500946
-2.27971e-06
-2.19993e-10
0.00501166
-2.19691e-06
-2.92413e-10
0.00501377
-2.11596e-06
-3.40499e-10
0.00501581
-2.03685e-06
-4.19463e-10
0.00501777
-1.95958e-06
-5.66075e-10
0.00501966
-1.88417e-06
-7.63642e-10
0.00502147
-1.81071e-06
-9.60833e-10
0.00502321
-1.73924e-06
-1.09651e-09
0.00502488
-1.66968e-06
-1.17765e-09
0.00502648
-1.60197e-06
-1.22286e-09
0.00502802
-1.53595e-06
-1.37596e-09
0.00502949
-1.47148e-06
-1.64376e-09
0.0050309
-1.40875e-06
-1.9551e-09
0.00503225
-1.34777e-06
-2.36641e-09
0.00503355
-1.28853e-06
-2.70231e-09
0.00503478
-1.23094e-06
-2.97585e-09
0.00503596
-1.17502e-06
-3.23629e-09
0.00503708
-1.12081e-06
-3.39232e-09
0.00503815
-1.06821e-06
-3.5251e-09
0.00503917
-1.01723e-06
-3.67298e-09
0.00504015
-9.67797e-07
-3.73335e-09
0.00504107
-9.19841e-07
-3.77484e-09
0.00504195
-8.73351e-07
-3.82158e-09
0.00504278
-8.28233e-07
-3.96973e-09
0.00504357
-7.84613e-07
-4.12764e-09
0.00504431
-7.4238e-07
-4.26768e-09