/*--------------------------------*- C++ -*----------------------------------*\
| =========                 |                                                 |
| \\      /  F ield         | OpenFOAM: The Open Source CFD Toolbox           |
|  \\    /   O peration     | Version:  2412                                  |
|   \\  /    A nd           | Website:  www.openfoam.com                      |
|    \\/     M anipulation  |                                                 |
\*---------------------------------------------------------------------------*/
FoamFile
{
    version     2.0;
    format      ascii;
    arch        "LSB;label=32;scalar=64";
    class       volVectorField;
    location    "1.5";
    object      U;
}
// * * * * * * * * * * * * * * * * * * * * * * * * * * * * * * * * * * * * * //

dimensions      [0 1 -1 0 0 0 0];

internalField   nonuniform List<vector> 
63420
(
(0.122372 3.71145e-05 0)
(0.0837925 6.20129e-05 0)
(0.107187 1.62712e-06 0)
(0.0971848 2.17359e-06 0)
(0.0994068 -6.49358e-06 0)
(0.099653 -4.23613e-06 0)
(0.099437 -6.15177e-07 0)
(0.0994572 1.55483e-06 0)
(0.0994554 3.08293e-06 0)
(0.099434 4.18042e-06 0)
(0.0994109 4.97724e-06 0)
(0.0993855 5.60038e-06 0)
(0.0993578 6.12547e-06 0)
(0.0993284 6.59955e-06 0)
(0.0992976 7.05006e-06 0)
(0.0992654 7.49639e-06 0)
(0.0992319 7.95288e-06 0)
(0.0991971 8.42306e-06 0)
(0.099161 8.91303e-06 0)
(0.0991236 9.43159e-06 0)
(0.0990848 9.98074e-06 0)
(0.0990446 1.05625e-05 0)
(0.0990029 1.11775e-05 0)
(0.0989596 1.183e-05 0)
(0.0989147 1.25206e-05 0)
(0.0988681 1.32535e-05 0)
(0.0988198 1.40304e-05 0)
(0.0987697 1.48536e-05 0)
(0.0987177 1.57261e-05 0)
(0.0986637 1.66504e-05 0)
(0.0986077 1.76285e-05 0)
(0.0985496 1.86641e-05 0)
(0.0984894 1.97609e-05 0)
(0.0984268 2.09244e-05 0)
(0.0983618 2.21584e-05 0)
(0.0982944 2.34684e-05 0)
(0.0982244 2.48602e-05 0)
(0.0981517 2.63415e-05 0)
(0.0980763 2.792e-05 0)
(0.0979978 2.96049e-05 0)
(0.0979163 3.14073e-05 0)
(0.0978315 3.33416e-05 0)
(0.0977432 3.54252e-05 0)
(0.0976512 3.76794e-05 0)
(0.0975553 4.01302e-05 0)
(0.0974551 4.281e-05 0)
(0.0973502 4.57603e-05 0)
(0.0972402 4.90353e-05 0)
(0.0971246 5.27069e-05 0)
(0.0970025 5.68748e-05 0)
(0.0968732 6.16853e-05 0)
(0.0967353 6.73323e-05 0)
(0.0965874 7.39419e-05 0)
(0.0964279 8.10073e-05 0)
(0.0962574 8.61328e-05 0)
(0.122373 0.000112059 0)
(0.0837839 0.000186235 0)
(0.107184 2.86177e-06 0)
(0.0971927 6.81738e-06 0)
(0.0994079 -1.94369e-05 0)
(0.0996554 -1.24476e-05 0)
(0.0994385 -1.55139e-06 0)
(0.0994577 4.90388e-06 0)
(0.0994554 9.44354e-06 0)
(0.0994337 1.27037e-05 0)
(0.0994104 1.50742e-05 0)
(0.0993848 1.69314e-05 0)
(0.0993571 1.85017e-05 0)
(0.0993277 1.99197e-05 0)
(0.0992968 2.12702e-05 0)
(0.0992646 2.26083e-05 0)
(0.0992312 2.39715e-05 0)
(0.0991964 2.53805e-05 0)
(0.0991603 2.68536e-05 0)
(0.0991229 2.84075e-05 0)
(0.0990842 3.00509e-05 0)
(0.099044 3.17911e-05 0)
(0.0990023 3.36331e-05 0)
(0.0989591 3.55865e-05 0)
(0.0989142 3.76564e-05 0)
(0.0988677 3.98509e-05 0)
(0.0988195 4.21759e-05 0)
(0.0987694 4.46391e-05 0)
(0.0987175 4.72491e-05 0)
(0.0986636 5.00133e-05 0)
(0.0986077 5.29399e-05 0)
(0.0985497 5.60396e-05 0)
(0.0984895 5.93233e-05 0)
(0.098427 6.28043e-05 0)
(0.0983621 6.64957e-05 0)
(0.0982949 7.04136e-05 0)
(0.098225 7.45759e-05 0)
(0.0981525 7.90036e-05 0)
(0.0980771 8.37201e-05 0)
(0.0979989 8.87534e-05 0)
(0.0979176 9.41378e-05 0)
(0.097833 9.99156e-05 0)
(0.097745 0.000106137 0)
(0.0976534 0.000112865 0)
(0.0975578 0.000120174 0)
(0.097458 0.000128161 0)
(0.0973537 0.000136949 0)
(0.0972443 0.000146698 0)
(0.0971294 0.000157618 0)
(0.0970083 0.000169999 0)
(0.0968803 0.000184266 0)
(0.096744 0.00020098 0)
(0.0965982 0.000220501 0)
(0.0964415 0.000241341 0)
(0.0962743 0.000256495 0)
(0.122377 0.000188939 0)
(0.0837726 0.000311353 0)
(0.107184 -1.34876e-06 0)
(0.0972109 1.24843e-05 0)
(0.0994108 -3.24009e-05 0)
(0.0996608 -2.01408e-05 0)
(0.0994417 -1.90645e-06 0)
(0.0994588 8.62425e-06 0)
(0.0994556 1.60436e-05 0)
(0.0994333 2.13803e-05 0)
(0.0994096 2.52654e-05 0)
(0.0993838 2.83187e-05 0)
(0.099356 3.09097e-05 0)
(0.0993265 3.32553e-05 0)
(0.0992956 3.54947e-05 0)
(0.0992634 3.77169e-05 0)
(0.0992299 3.99804e-05 0)
(0.0991952 4.23233e-05 0)
(0.0991592 4.4776e-05 0)
(0.0991219 4.73614e-05 0)
(0.0990831 5.00953e-05 0)
(0.099043 5.29901e-05 0)
(0.0990014 5.60555e-05 0)
(0.0989583 5.93057e-05 0)
(0.0989135 6.27509e-05 0)
(0.0988671 6.64024e-05 0)
(0.098819 7.02709e-05 0)
(0.098769 7.43689e-05 0)
(0.0987172 7.87102e-05 0)
(0.0986635 8.33077e-05 0)
(0.0986077 8.81755e-05 0)
(0.0985499 9.33309e-05 0)
(0.0984899 9.8792e-05 0)
(0.0984276 0.00010458 0)
(0.098363 0.000110716 0)
(0.0982959 0.000117227 0)
(0.0982263 0.000124144 0)
(0.0981541 0.000131498 0)
(0.0980791 0.000139329 0)
(0.0980012 0.000147683 0)
(0.0979203 0.000156616 0)
(0.0978362 0.000166196 0)
(0.0977487 0.000176504 0)
(0.0976577 0.00018764 0)
(0.0975628 0.000199726 0)
(0.0974639 0.000212914 0)
(0.0973605 0.000227403 0)
(0.0972524 0.000243444 0)
(0.097139 0.00026137 0)
(0.0970198 0.000281635 0)
(0.0968941 0.000304903 0)
(0.0967608 0.000332044 0)
(0.0966191 0.000363604 0)
(0.0964675 0.000397208 0)
(0.0963066 0.000421801 0)
(0.122391 0.000266427 0)
(0.0837717 0.000437806 0)
(0.107192 -1.36333e-05 0)
(0.0972439 2.08843e-05 0)
(0.0994168 -4.50195e-05 0)
(0.0996702 -2.67729e-05 0)
(0.0994474 -1.23067e-06 0)
(0.0994612 1.29737e-05 0)
(0.0994567 2.30401e-05 0)
(0.0994335 3.03082e-05 0)
(0.0994093 3.56104e-05 0)
(0.0993832 3.97977e-05 0)
(0.0993552 4.33696e-05 0)
(0.0993256 4.66163e-05 0)
(0.0992947 4.97266e-05 0)
(0.0992625 5.28197e-05 0)
(0.0992291 5.59736e-05 0)
(0.0991944 5.92429e-05 0)
(0.0991584 6.26686e-05 0)
(0.0991212 6.62793e-05 0)
(0.0990826 7.00976e-05 0)
(0.0990426 7.4141e-05 0)
(0.0990011 7.84238e-05 0)
(0.0989581 8.29648e-05 0)
(0.0989134 8.77783e-05 0)
(0.0988672 9.28797e-05 0)
(0.0988192 9.8284e-05 0)
(0.0987695 0.000104008 0)
(0.0987178 0.000110072 0)
(0.0986643 0.000116491 0)
(0.0986088 0.000123288 0)
(0.0985512 0.000130486 0)
(0.0984914 0.000138109 0)
(0.0984294 0.000146186 0)
(0.0983651 0.000154747 0)
(0.0982984 0.000163829 0)
(0.0982292 0.000173472 0)
(0.0981574 0.000183722 0)
(0.0980829 0.00019463 0)
(0.0980055 0.00020626 0)
(0.0979252 0.000218688 0)
(0.0978418 0.000232004 0)
(0.0977551 0.000246318 0)
(0.0976649 0.000261759 0)
(0.0975711 0.000278491 0)
(0.0974734 0.000296715 0)
(0.0973715 0.000316687 0)
(0.0972651 0.000338739 0)
(0.0971538 0.000363296 0)
(0.0970372 0.000390939 0)
(0.0969148 0.000422513 0)
(0.0967857 0.000459109 0)
(0.0966494 0.000501395 0)
(0.0965048 0.000546279 0)
(0.0963522 0.00057959 0)
(0.122422 0.000338292 0)
(0.0837983 0.00056756 0)
(0.107219 -3.60842e-05 0)
(0.0972976 3.59336e-05 0)
(0.0994279 -5.64784e-05 0)
(0.0996854 -3.16691e-05 0)
(0.0994572 1.04602e-06 0)
(0.0994665 1.82228e-05 0)
(0.0994603 3.05798e-05 0)
(0.099436 3.95762e-05 0)
(0.0994111 4.61614e-05 0)
(0.0993846 5.13983e-05 0)
(0.0993564 5.58969e-05 0)
(0.0993267 6.00094e-05 0)
(0.0992958 6.39659e-05 0)
(0.0992636 6.79121e-05 0)
(0.0992302 7.19432e-05 0)
(0.0991956 7.61282e-05 0)
(0.0991598 8.05178e-05 0)
(0.0991227 8.51457e-05 0)
(0.0990842 9.00402e-05 0)
(0.0990443 9.52239e-05 0)
(0.099003 0.000100716 0)
(0.0989602 0.000106539 0)
(0.0989158 0.000112712 0)
(0.0988698 0.000119254 0)
(0.098822 0.000126184 0)
(0.0987725 0.000133523 0)
(0.0987212 0.000141295 0)
(0.0986679 0.000149522 0)
(0.0986127 0.000158232 0)
(0.0985554 0.000167454 0)
(0.098496 0.000177218 0)
(0.0984344 0.000187561 0)
(0.0983705 0.00019852 0)
(0.0983043 0.000210141 0)
(0.0982356 0.000222475 0)
(0.0981644 0.000235578 0)
(0.0980905 0.000249514 0)
(0.0980138 0.000264362 0)
(0.0979342 0.000280214 0)
(0.0978517 0.000297179 0)
(0.097766 0.00031539 0)
(0.0976769 0.000335003 0)
(0.0975844 0.000356212 0)
(0.0974882 0.000379256 0)
(0.0973882 0.000404436 0)
(0.0972839 0.000432137 0)
(0.0971753 0.000462852 0)
(0.097062 0.000497245 0)
(0.0969435 0.00053627 0)
(0.0968194 0.00058115 0)
(0.0966896 0.000632603 0)
(0.0965531 0.000687089 0)
(0.0964098 0.000728619 0)
(0.12248 0.000393494 0)
(0.0838647 0.000702741 0)
(0.107269 -6.97193e-05 0)
(0.0973757 6.43116e-05 0)
(0.0994439 -6.52233e-05 0)
(0.0997081 -3.40668e-05 0)
(0.0994722 5.47344e-06 0)
(0.0994759 2.46187e-05 0)
(0.0994677 3.87789e-05 0)
(0.0994423 4.92456e-05 0)
(0.0994166 5.69481e-05 0)
(0.0993897 6.31311e-05 0)
(0.0993613 6.84912e-05 0)
(0.0993316 7.34266e-05 0)
(0.0993006 7.81989e-05 0)
(0.0992686 8.29764e-05 0)
(0.0992353 8.78686e-05 0)
(0.0992009 9.29562e-05 0)
(0.0991652 9.8298e-05 0)
(0.0991283 0.000103933 0)
(0.09909 0.000109893 0)
(0.0990504 0.000116207 0)
(0.0990094 0.000122899 0)
(0.0989668 0.000129994 0)
(0.0989227 0.000137515 0)
(0.0988769 0.000145485 0)
(0.0988295 0.000153926 0)
(0.0987803 0.000162866 0)
(0.0987293 0.00017233 0)
(0.0986765 0.000182348 0)
(0.0986217 0.00019295 0)
(0.0985648 0.000204173 0)
(0.0985059 0.000216053 0)
(0.0984448 0.000228631 0)
(0.0983815 0.000241955 0)
(0.0983159 0.000256078 0)
(0.0982479 0.000271058 0)
(0.0981773 0.000286962 0)
(0.0981042 0.000303865 0)
(0.0980284 0.000321859 0)
(0.0979498 0.000341048 0)
(0.0978684 0.000361558 0)
(0.0977839 0.000383538 0)
(0.0976962 0.000407163 0)
(0.0976053 0.00043265 0)
(0.097511 0.000460262 0)
(0.0974131 0.000490328 0)
(0.0973114 0.000523264 0)
(0.0972059 0.000559599 0)
(0.0970963 0.000600038 0)
(0.0969824 0.000645578 0)
(0.0968639 0.000697483 0)
(0.0967413 0.000756488 0)
(0.0966135 0.000818947 0)
(0.0964803 0.000868581 0)
(0.122567 0.000428256 0)
(0.0839631 0.000826505 0)
(0.107334 -9.78762e-05 0)
(0.0974765 0.000102777 0)
(0.099461 -6.77413e-05 0)
(0.0997376 -3.2553e-05 0)
(0.0994923 1.21787e-05 0)
(0.0994891 3.23134e-05 0)
(0.0994791 4.77167e-05 0)
(0.0994524 5.93336e-05 0)
(0.0994259 6.79645e-05 0)
(0.0993987 7.49778e-05 0)
(0.0993701 8.11253e-05 0)
(0.0993404 8.68352e-05 0)
(0.0993096 9.23891e-05 0)
(0.0992777 9.79729e-05 0)
(0.0992446 0.000103708 0)
(0.0992104 0.000109683 0)
(0.099175 0.000115963 0)
(0.0991384 0.000122592 0)
(0.0991005 0.000129606 0)
(0.0990611 0.000137039 0)
(0.0990204 0.000144919 0)
(0.0989782 0.000153273 0)
(0.0989345 0.000162128 0)
(0.0988892 0.000171511 0)
(0.0988422 0.000181448 0)
(0.0987934 0.00019197 0)
(0.0987429 0.000203106 0)
(0.0986906 0.000214892 0)
(0.0986363 0.000227362 0)
(0.0985801 0.000240558 0)
(0.0985218 0.000254521 0)
(0.0984614 0.0002693 0)
(0.0983988 0.000284948 0)
(0.0983339 0.000301526 0)
(0.0982667 0.000319099 0)
(0.0981971 0.000337742 0)
(0.098125 0.000357541 0)
(0.0980503 0.000378595 0)
(0.0979729 0.000401021 0)
(0.0978927 0.000424954 0)
(0.0978097 0.000450553 0)
(0.0977238 0.000478009 0)
(0.0976348 0.000507548 0)
(0.0975426 0.000539447 0)
(0.0974473 0.000574044 0)
(0.0973486 0.000611763 0)
(0.0972465 0.000653137 0)
(0.0971411 0.000698868 0)
(0.0970323 0.000749936 0)
(0.09692 0.000807562 0)
(0.0968052 0.000872477 0)
(0.0966869 0.000941274 0)
(0.0965647 0.0009988 0)
(0.0960833 8.51555e-05 -7.36369e-24)
(0.0959214 7.46097e-05 -7.47854e-24)
(0.0957904 5.61102e-05 -4.27067e-26)
(0.0957006 3.62287e-05 2.28713e-23)
(0.0956468 2.21078e-05 -7.5821e-24)
(0.0956118 1.75239e-05 -7.76338e-24)
(0.0955757 2.21992e-05 -2.37947e-23)
(0.095523 3.34507e-05 2.3648e-23)
(0.0954443 4.81678e-05 8.05606e-24)
(0.0953359 6.40101e-05 0)
(0.0951976 7.96533e-05 8.27741e-24)
(0.0950304 9.44676e-05 -8.39686e-24)
(0.094836 0.000108302 6.87861e-23)
(0.0946162 0.000122061 -1.47219e-22)
(0.0943718 0.000135738 7.85714e-23)
(0.0941026 0.000149525 6.33139e-23)
(0.0938081 0.000163717 8.12499e-23)
(0.0934875 0.000178579 -9.26795e-24)
(0.0931393 0.000194353 9.44353e-24)
(0.0927616 0.000211276 -9.62967e-24)
(0.0923524 0.000229608 0)
(0.0919089 0.000249647 1.00371e-23)
(0.0914277 0.000271736 -1.02604e-23)
(0.090905 0.000296232 0)
(0.090336 0.000323493 -1.0752e-23)
(0.0897157 0.00035388 0)
(0.0890382 0.00038778 -1.13129e-23)
(0.088297 0.000425693 -1.88839e-22)
(0.0874845 0.000468333 2.00508e-22)
(0.0865916 0.000516642 -2.00359e-22)
(0.0856074 0.000571774 2.00054e-22)
(0.0845189 0.000635073 0)
(0.0833103 0.00070807 0)
(0.0819632 0.000792591 2.43565e-22)
(0.0804555 0.000891002 -2.29157e-22)
(0.0787605 0.00100643 0)
(0.0768452 0.00114294 0)
(0.0746686 0.00130577 0)
(0.0721793 0.00150161 0)
(0.0693131 0.00173916 0)
(0.0659885 0.00202981 0)
(0.0621011 0.0023883 0)
(0.0575171 0.00283288 0)
(0.0520717 0.00338294 0)
(0.0455657 0.0040485 -2.36045e-23)
(0.0377886 0.00479917 -8.28887e-22)
(0.0286375 0.00549533 8.27646e-22)
(0.0183098 0.00579164 9.23937e-22)
(0.00812607 0.00506545 -9.22551e-22)
(0.00172655 0.00246079 0)
(0.0961035 0.000253822 -7.43216e-24)
(0.0959434 0.000223108 -1.51022e-23)
(0.0958112 0.000169172 -7.85237e-24)
(0.0957165 0.000111398 7.40084e-24)
(0.0956541 7.06886e-05 -7.66839e-24)
(0.0956081 5.79657e-05 5.4725e-23)
(0.0955604 7.22717e-05 -8.59365e-23)
(0.0954967 0.000105685 7.95172e-24)
(0.0954085 0.000149105 1.05674e-22)
(0.0952925 0.000195711 -1.45977e-22)
(0.0951481 0.000241516 -1.41801e-22)
(0.0949761 0.000284651 1.24947e-22)
(0.0947786 0.000326419 0)
(0.0945571 0.000367359 8.66526e-24)
(0.0943113 0.000407923 -2.64131e-23)
(0.0940412 0.000448924 -2.98284e-22)
(0.0937462 0.000491219 2.85449e-22)
(0.0934255 0.000535581 -3.03445e-22)
(0.0930775 0.000582719 -2.8377e-23)
(0.0927004 0.00063334 9.65079e-24)
(0.092292 0.000688214 0)
(0.0918495 0.000748232 -1.00631e-23)
(0.0913697 0.000814425 -3.22971e-22)
(0.0908487 0.000887857 6.7403e-22)
(0.0902819 0.0009696 3.6944e-22)
(0.0896641 0.00106072 -6.98479e-22)
(0.0889896 0.00116236 7.4834e-22)
(0.0882519 0.00127602 -7.59321e-22)
(0.0874436 0.00140386 -1.20044e-23)
(0.0865558 0.00154872 0)
(0.0855779 0.00171405 0)
(0.0844969 0.00190389 0)
(0.0832977 0.00212277 0)
(0.0819623 0.00237619 -1.4128e-23)
(0.0804694 0.00267121 -9.57188e-22)
(0.0787931 0.00301718 -4.02236e-23)
(0.0769018 0.00342623 9.94817e-22)
(0.0747561 0.00391391 1.08518e-21)
(0.0723073 0.00450014 -1.08375e-21)
(0.0694947 0.00521076 -3.61864e-23)
(0.0662415 0.0060796 -3.79745e-23)
(0.0624499 0.00715033 -1.3206e-21)
(0.0579949 0.00847668 1.27681e-21)
(0.0527224 0.0101147 -4.43297e-23)
(0.0464446 0.0120904 2.37696e-23)
(0.0389544 0.0143062 -1.69229e-21)
(0.0301207 0.0163375 1.69258e-21)
(0.0200419 0.0171542 -3.62615e-21)
(0.0097716 0.0149351 3.56509e-21)
(0.00244336 0.00719229 -3.67499e-21)
(0.0961418 0.000418312 -4.40476e-23)
(0.0959843 0.000370366 -1.53176e-23)
(0.0958486 0.000285885 5.94403e-23)
(0.0957427 0.000195911 -1.21673e-22)
(0.0956619 0.000133465 2.60008e-22)
(0.0955933 0.000115444 -1.23016e-22)
(0.0955219 0.000139928 1.69492e-26)
(0.0954362 0.000194183 1.58693e-23)
(0.0953293 0.000263803 2.75535e-22)
(0.0951981 0.000338158 -2.59173e-22)
(0.0950414 0.000410929 0)
(0.0948612 0.00048128 1.48134e-26)
(0.0946585 0.000549544 0)
(0.0944325 0.000616029 2.97384e-22)
(0.0941836 0.000682112 -2.62134e-22)
(0.0939115 0.000749283 -5.61898e-22)
(0.0936155 0.000818885 2.95344e-23)
(0.0932944 0.000892128 -5.90002e-22)
(0.0929466 0.000970148 1.89897e-23)
(0.0925702 0.00105408 -6.26643e-22)
(0.0921631 0.00114516 6.45819e-22)
(0.0917225 0.00124486 -6.5448e-22)
(0.0912452 0.00135491 6.74525e-22)
(0.0907274 0.00147709 2.11527e-23)
(0.0901646 0.00161318 -2.16754e-23)
(0.0895515 0.00176491 2.22328e-23)
(0.0888827 0.00193416 -7.41567e-22)
(0.0881518 0.00212346 7.6436e-22)
(0.0873518 0.00233644 8.09622e-22)
(0.086474 0.00257784 -7.84731e-22)
(0.0855083 0.00285338 0)
(0.0844424 0.00316965 0)
(0.0832619 0.00353414 2.74261e-23)
(0.08195 0.00395598 1.88509e-21)
(0.0804867 0.00444699 4.41646e-23)
(0.078848 0.00502259 -1.8961e-21)
(0.0770048 0.00570273 0)
(0.0749217 0.00651284 -3.32395e-23)
(0.072555 0.0074855 2.31939e-21)
(0.0698512 0.00866294 -4.64025e-21)
(0.0667434 0.0101003 4.94412e-21)
(0.0631471 0.0118684 1.71282e-22)
(0.0589556 0.0140532 -2.59752e-21)
(0.0540364 0.0167412 -2.88263e-21)
(0.0482225 0.0199616 2.97096e-21)
(0.0413087 0.0235318 1.79678e-24)
(0.0330994 0.0267273 -5.24563e-23)
(0.0234929 0.0278469 3.53333e-21)
(0.012999 0.0240094 -3.4213e-21)
(0.00379944 0.0114232 -3.43349e-21)
(0.0961949 0.000577057 2.90559e-23)
(0.0960395 0.000517075 -1.47059e-23)
(0.0958962 0.000410615 2.49629e-26)
(0.0957709 0.000297919 1.50571e-23)
(0.0956609 0.000221285 -2.44682e-26)
(0.0955574 0.000201857 2.48569e-22)
(0.0954507 0.00023657 -4.69091e-22)
(0.095333 0.000308782 2.51785e-22)
(0.0951991 0.000399958 -1.60597e-23)
(0.0950461 0.000497229 2.95586e-22)
(0.0948739 0.000594216 -2.62882e-22)
(0.0946827 0.000688736 -5.42611e-22)
(0.094471 0.000779924 1.09406e-21)
(0.0942385 0.000869394 -1.11253e-21)
(0.0939851 0.000959169 1.13195e-21)
(0.0937101 0.00105113 -1.13447e-21)
(0.0934123 0.00114697 -5.99747e-22)
(0.0930904 0.00124828 2.27053e-26)
(0.0927426 0.00135652 0)
(0.0923669 0.0014732 -6.10588e-22)
(0.0919613 0.0016 6.29807e-22)
(0.091523 0.00173894 0)
(0.091049 0.00189246 -1.34912e-21)
(0.0905355 0.00206307 1.32729e-21)
(0.0899781 0.00225323 2.18816e-23)
(0.0893718 0.0024653 -3.08974e-26)
(0.0887111 0.00270187 2.30387e-23)
(0.0879902 0.00296656 0)
(0.0872022 0.00326453 -4.38472e-26)
(0.086339 0.00360238 0)
(0.0853913 0.00398793 -2.59428e-23)
(0.0843476 0.00443017 1.74835e-21)
(0.0831949 0.00493946 -1.74781e-21)
(0.0819181 0.00552857 -2.88351e-23)
(0.0804993 0.00621401 5.97357e-23)
(0.0789174 0.00701711 -2.05957e-21)
(0.0771474 0.0079651 1.99551e-21)
(0.0751594 0.00909257 3.3814e-23)
(0.072918 0.0104438 -3.47982e-25)
(0.0703806 0.012076 3.65262e-23)
(0.0674958 0.0140639 -2.52387e-21)
(0.0642002 0.0165025 5.12704e-21)
(0.0604152 0.019505 -2.68551e-21)
(0.0560414 0.0231773 2.85578e-21)
(0.0509411 0.0275329 -2.9906e-21)
(0.0449013 0.0322778 -6.16678e-21)
(0.0376058 0.0363768 1.26841e-20)
(0.0286448 0.037492 -6.47372e-21)
(0.0178117 0.0318455 0)
(0.00576882 0.0149084 -6.14756e-21)
(0.0962604 0.000730108 -1.44143e-23)
(0.0961055 0.00066614 -5.86852e-23)
(0.09595 0.000549422 1.77604e-22)
(0.0957976 0.000426133 -2.3933e-22)
(0.0956486 0.000344319 1.05301e-22)
(0.0955006 0.000327085 1.5376e-23)
(0.0953502 0.000370411 -1.55922e-23)
(0.0951935 0.000455835 -2.80731e-26)
(0.0950277 0.000563681 1.60566e-23)
(0.0948512 0.000679043 -3.25847e-23)
(0.0946613 0.000795028 -5.34004e-22)
(0.0944559 0.000907983 5.51086e-22)
(0.0942339 0.00101839 -5.35335e-22)
(0.0939942 0.00112822 5.5266e-22)
(0.0937358 0.00123967 0)
(0.0934574 0.00135483 -2.53804e-26)
(0.0931575 0.00147566 0)
(0.0928346 0.001604 -5.89049e-22)
(0.0924869 0.00174161 6.27326e-22)
(0.0921122 0.00189029 -1.96282e-23)
(0.0917084 0.0020521 -1.31847e-21)
(0.0912731 0.00222958 1.29899e-21)
(0.0908032 0.00242587 -2.10377e-23)
(0.0902953 0.00264421 0)
(0.0897451 0.00288772 0)
(0.0891477 0.00315931 -1.49632e-21)
(0.0884978 0.00346231 1.4509e-21)
(0.0877901 0.00380146 0)
(0.0870181 0.00418346 -4.95197e-23)
(0.0861745 0.00461665 0)
(0.0852507 0.00511081 2.63979e-23)
(0.0842368 0.00567721 -2.72316e-23)
(0.0831216 0.00632914 -2.82636e-23)
(0.0818922 0.00708286 2.91998e-23)
(0.0805336 0.00795918 1.91906e-21)
(0.0790287 0.00898469 -1.98066e-21)
(0.0773579 0.0101931 4.31877e-21)
(0.0754994 0.0116271 -4.3218e-21)
(0.0734285 0.0133412 4.62311e-21)
(0.0711181 0.0154056 1.64068e-22)
(0.0685382 0.0179116 -4.90326e-21)
(0.0656559 0.0209744 -4.0018e-23)
(0.0624324 0.0247275 1.28477e-24)
(0.0588145 0.0292844 1.77285e-24)
(0.0547026 0.0346224 2.468e-24)
(0.0498636 0.0403133 -9.26918e-23)
(0.0437947 0.0450209 -4.42655e-23)
(0.0356398 0.0458601 -4.27946e-23)
(0.0243191 0.0383042 0)
(0.00833576 0.017563 1.14505e-23)
(0.0963392 0.000878226 -7.15281e-23)
(0.0961841 0.000820514 4.3025e-23)
(0.0960146 0.000707784 1.46598e-23)
(0.0958328 0.000587701 2.24252e-22)
(0.0956427 0.000509673 -2.24374e-22)
(0.0954486 0.000497484 2.30925e-22)
(0.0952539 0.000547308 -5.12006e-22)
(0.0950598 0.000640735 7.26717e-22)
(0.0948641 0.000758405 -5.08603e-22)
(0.0946637 0.000885458 -5.24801e-22)
(0.0944558 0.0010137 -2.48867e-23)
(0.0942374 0.00114092 1.06138e-21)
(0.0940062 0.00126768 -1.11498e-21)
(0.0937602 0.00139579 5.19402e-22)
(0.0934977 0.00152741 5.5744e-22)
(0.0932168 0.00166475 5.79646e-22)
(0.0929159 0.00180992 -4.15244e-23)
(0.0925932 0.00196495 1.1814e-21)
(0.0922467 0.00213182 1.21347e-21)
(0.0918744 0.00231261 2.72945e-23)
(0.0914742 0.00250969 -1.28317e-21)
(0.0910438 0.0027261 0)
(0.0905802 0.00296566 0)
(0.0900803 0.0032324 -1.41624e-21)
(0.08954 0.00353014 1.39591e-21)
(0.0889547 0.00386248 1.49692e-21)
(0.0883197 0.00423357 -1.49913e-21)
(0.08763 0.00464924 0)
(0.0868798 0.00511762 1.66409e-21)
(0.0860627 0.0056488 -1.66729e-21)
(0.0851714 0.00625446 0)
(0.0841978 0.00694814 -3.59593e-21)
(0.0831326 0.00774596 3.6292e-21)
(0.0819659 0.00866758 -2.99363e-23)
(0.0806863 0.00973773 -4.01548e-21)
(0.0792817 0.0109877 4.05265e-21)
(0.0777399 0.0124568 0)
(0.0760488 0.0141941 4.59163e-21)
(0.0741977 0.0162618 -4.5635e-21)
(0.0721792 0.0187392 3.75523e-23)
(0.0699921 0.021727 5.17299e-21)
(0.0676443 0.0253488 -1.04622e-20)
(0.0651525 0.0297385 -7.64832e-23)
(0.0625285 0.0349881 -7.54041e-23)
(0.0597252 0.0410011 5.71735e-21)
(0.0564849 0.0471857 4.56894e-24)
(0.0520708 0.0519449 -5.32022e-21)
(0.0450313 0.0520551 5.45398e-21)
(0.0330804 0.0426235 0)
(0.0118065 0.0189917 5.1243e-23)
(0.0964339 0.0010202 1.41053e-23)
(0.0962828 0.000978215 1.29541e-22)
(0.0961057 0.000882949 -1.15513e-22)
(0.0959035 0.000778617 1.47689e-23)
(0.0956833 0.000711888 2.26242e-22)
(0.0954548 0.000706373 -2.26639e-22)
(0.0952268 0.000759842 -4.83048e-22)
(0.0950035 0.0008559 8.51508e-24)
(0.0947843 0.000976301 -7.60053e-24)
(0.0945659 0.00110824 5.3368e-22)
(0.0943447 0.0012445 -5.18536e-22)
(0.0941172 0.00138277 1.09886e-21)
(0.0938799 0.00152336 -5.46816e-22)
(0.0936304 0.00166785 1.75957e-23)
(0.0933663 0.00181829 1.79579e-23)
(0.0930856 0.00197685 1.18366e-21)
(0.0927864 0.00214574 -4.54075e-24)
(0.0924668 0.0023271 1.23226e-21)
(0.0921249 0.00252312 1.96081e-23)
(0.0917586 0.00273612 0)
(0.0913658 0.00296883 0)
(0.0909443 0.00322483 -1.36533e-21)
(0.0904915 0.00350874 1.36878e-21)
(0.0900045 0.00382552 0)
(0.0894801 0.00417956 2.28782e-23)
(0.0889139 0.00457515 0)
(0.0883017 0.00501743 -1.57269e-21)
(0.0876392 0.00551349 3.19895e-21)
(0.0869216 0.00607304 -1.62637e-21)
(0.0861436 0.00670807 -3.43671e-21)
(0.0852998 0.00743238 -1.11766e-22)
(0.0843839 0.00826194 -1.1941e-22)
(0.0833896 0.00921582 -1.27478e-22)
(0.08231 0.0103172 3.8576e-21)
(0.0811385 0.0115951 4.14757e-21)
(0.0798693 0.0130854 -4.15746e-21)
(0.0784986 0.0148327 0)
(0.0770257 0.016892 4.65882e-21)
(0.0754556 0.0193307 -4.66966e-21)
(0.0738029 0.0222317 -5.05964e-21)
(0.0720981 0.0256942 5.03219e-21)
(0.0703943 0.0298268 4.17913e-23)
(0.0687703 0.0347203 5.39598e-21)
(0.0673131 0.0403719 3.29677e-24)
(0.0660431 0.0465135 -5.50996e-21)
(0.0647122 0.0523056 4.3374e-23)
(0.0624334 0.0559333 0)
(0.0572858 0.0542432 -3.67463e-23)
(0.0455587 0.0429534 -2.26039e-21)
(0.0185532 0.018343 6.7614e-22)
(-0.000589191 0.000548184 0)
(-0.00143383 0.000152634 2.96266e-22)
(-0.000621689 -0.00116103 -2.96709e-22)
(0.00293898 -0.00271099 -2.3594e-22)
(0.0090843 -0.00394912 2.36294e-22)
(0.0169041 -0.00462316 -5.65623e-24)
(0.0253892 -0.0047585 0)
(0.0337348 -0.00451601 0)
(0.0414411 -0.00407081 0)
(0.0482801 -0.00355585 0)
(0.0542091 -0.00305188 0)
(0.0592881 -0.00259838 0)
(0.0636204 -0.00220864 0)
(0.0673184 -0.00188197 0)
(0.0704869 -0.00161148 0)
(0.0732168 -0.00138837 2.82532e-23)
(0.0755835 -0.0012041 -2.65105e-23)
(0.0776488 -0.00105125 0)
(0.0794625 -0.000923643 0)
(0.0810648 -0.00081629 -2.79938e-23)
(0.0824881 -0.00072526 2.80366e-23)
(0.0837587 -0.000647526 -2.5962e-23)
(0.084898 -0.000580724 1.73528e-24)
(0.0859241 -0.000522972 0)
(0.0868518 -0.000472752 1.70364e-24)
(0.0876935 -0.000428841 0)
(0.0884597 -0.000390265 0)
(0.0891593 -0.000356269 0)
(0.0898002 -0.00032622 1.62015e-24)
(0.0903891 -0.000299558 0)
(0.0909316 -0.000275812 -1.5718e-24)
(0.0914328 -0.000254592 1.54666e-24)
(0.0918969 -0.000235576 -1.52109e-24)
(0.0923277 -0.000218502 1.3331e-23)
(0.0927286 -0.000203151 -1.33232e-23)
(0.0931025 -0.000189338 -9.97737e-24)
(0.0934521 -0.000176906 2.12334e-23)
(0.0937799 -0.000165727 -1.12295e-23)
(0.0940881 -0.000155697 -1.36444e-24)
(0.0943786 -0.000146736 1.33857e-24)
(0.0946535 -0.000138792 0)
(0.0949146 -0.000131841 1.28752e-24)
(0.0951636 -0.000125891 -6.25755e-24)
(0.0954026 -0.000120997 6.24056e-24)
(0.0956336 -0.000117273 -1.21322e-24)
(0.0958589 -0.000114924 3.54183e-24)
(0.0960814 -0.000114263 -1.19087e-24)
(0.0963046 -0.0001156 -2.27218e-24)
(0.0965327 -0.000118652 1.13173e-24)
(0.0967681 -0.000121114 -1.09708e-24)
(-0.000525881 0.00145795 -1.26446e-21)
(-0.000815512 0.000160823 -1.27958e-21)
(0.00100442 -0.00364229 1.25988e-21)
(0.00537676 -0.00811232 -4.83152e-22)
(0.0119072 -0.0116909 4.86423e-22)
(0.0197156 -0.0136486 5.69509e-24)
(0.0279228 -0.0140487 -9.97671e-24)
(0.0358683 -0.0133481 -2.26348e-22)
(0.0431583 -0.0120516 2.18621e-22)
(0.0496229 -0.0105455 -5.54988e-24)
(0.055242 -0.00906667 -4.8655e-24)
(0.0600773 -0.00773192 1.29938e-22)
(0.0642237 -0.00658166 -1.30112e-22)
(0.0677824 -0.00561509 -1.20057e-22)
(0.0708475 -0.00481284 2.31644e-24)
(0.0735006 -0.00414973 1.18058e-22)
(0.0758102 -0.00360111 -1.79444e-24)
(0.0778325 -0.00314537 -3.68354e-24)
(0.0796136 -0.00276448 0)
(0.0811909 -0.00244377 0)
(0.0825949 -0.00217163 0)
(0.0838504 -0.0019391 -1.75486e-24)
(0.0849779 -0.00173917 1.06102e-22)
(0.0859946 -0.00156624 -1.15017e-22)
(0.0869147 -0.00141578 1.07351e-22)
(0.0877502 -0.00128417 -5.53344e-23)
(0.0885112 -0.00116855 -1.07113e-22)
(0.0892066 -0.00106669 5.32401e-23)
(0.0898439 -0.000976687 -1.62433e-24)
(0.0904298 -0.000896839 -3.21735e-24)
(0.0909698 -0.000825714 1.57524e-24)
(0.0914688 -0.000762139 -4.6621e-24)
(0.091931 -0.000705159 4.68308e-23)
(0.0923602 -0.000653994 -9.74445e-23)
(0.0927595 -0.000607996 4.61005e-23)
(0.0931321 -0.00056661 -4.34105e-24)
(0.0934805 -0.000529365 1.41805e-24)
(0.0938071 -0.000495868 0)
(0.0941141 -0.000465802 -2.30007e-23)
(0.0944036 -0.000438926 2.03212e-23)
(0.0946773 -0.000415074 1.81691e-23)
(0.0949372 -0.000394165 -2.46914e-23)
(0.0951849 -0.000376214 1.26212e-24)
(0.0954223 -0.000361362 6.08042e-24)
(0.0956513 -0.000349929 -1.10198e-23)
(0.095874 -0.000342491 -1.18813e-24)
(0.0960932 -0.000339934 -8.09984e-24)
(0.0963117 -0.00034314 -1.04125e-24)
(0.0965335 -0.000351292 2.30872e-24)
(0.0967604 -0.000357671 3.30949e-24)
(-0.000331593 0.00174527 -1.4515e-21)
(0.000577751 -0.000657105 1.41849e-21)
(0.00434474 -0.00657402 -1.37591e-21)
(0.0102106 -0.0134531 -1.79851e-23)
(0.0174258 -0.0189742 -1.72458e-24)
(0.0251739 -0.0220235 -7.51581e-22)
(0.0328251 -0.0226691 7.76605e-22)
(0.0399902 -0.0215904 5.10421e-22)
(0.0464742 -0.0195593 -7.79747e-23)
(0.052216 -0.0171783 -7.69392e-22)
(0.0572374 -0.0148228 6.79801e-22)
(0.061602 -0.0126832 -3.12307e-22)
(0.0653889 -0.0108285 -4.65339e-24)
(0.0686776 -0.00926158 0)
(0.0715412 -0.00795467 2.57483e-22)
(0.0740442 -0.00686976 -9.59663e-24)
(0.0762415 -0.00596889 -2.44266e-22)
(0.0781791 -0.00521833 7.61779e-24)
(0.0798957 -0.00458964 0)
(0.0814235 -0.00405937 0)
(0.0827891 -0.00360877 1.16728e-22)
(0.0840145 -0.00322327 -1.13155e-22)
(0.0851183 -0.00289143 -1.10527e-22)
(0.086116 -0.00260412 1.17711e-22)
(0.0870209 -0.00235398 3.53468e-24)
(0.087844 -0.00213505 -3.48236e-24)
(0.0885948 -0.00194268 3.42865e-24)
(0.0892817 -0.00177321 -1.02963e-22)
(0.089912 -0.00162349 1.06437e-22)
(0.0904921 -0.00149067 -9.63831e-23)
(0.0910271 -0.00137233 1.02974e-22)
(0.0915217 -0.00126653 3.12467e-24)
(0.0919801 -0.00117168 9.75018e-23)
(0.0924059 -0.00108651 -1.90299e-22)
(0.0928022 -0.00100994 9.87664e-23)
(0.0931721 -0.000941055 4.89618e-23)
(0.093518 -0.000879053 -4.3244e-23)
(0.0938424 -0.000823273 0)
(0.0941472 -0.000773175 -7.31939e-27)
(0.0944346 -0.000728344 0)
(0.0947061 -0.000688484 4.16635e-23)
(0.0949637 -0.000653435 -3.91307e-23)
(0.0952088 -0.000623185 2.528e-24)
(0.0954432 -0.000597915 -2.27461e-27)
(0.0956686 -0.000578071 1.91751e-23)
(0.0958867 -0.00056449 -3.56002e-23)
(0.0960997 -0.000558473 1.87966e-23)
(0.0963097 -0.00056133 -9.0033e-24)
(0.0965199 -0.000571761 6.83178e-24)
(0.0967313 -0.000579232 2.23088e-24)
(0.000293122 0.0011595 -3.42826e-21)
(0.00322937 -0.00272156 0)
(0.0095528 -0.0102339 2.86725e-21)
(0.017318 -0.0187156 -5.43278e-21)
(0.0253392 -0.0255353 2.57978e-21)
(0.0329095 -0.029356 8.65009e-22)
(0.0397409 -0.0302056 -9.09967e-22)
(0.0458018 -0.0288709 5.99288e-22)
(0.0511571 -0.0262897 -1.1056e-21)
(0.055889 -0.0232188 4.98423e-22)
(0.0600734 -0.0201447 6.72453e-24)
(0.0637762 -0.0173235 8.12601e-25)
(0.0670543 -0.0148559 4.73313e-24)
(0.0699577 -0.0127543 -2.97442e-22)
(0.0725316 -0.0109886 2.8829e-22)
(0.0748168 -0.00951344 8.63197e-24)
(0.0768496 -0.00828187 -4.03199e-24)
(0.0786622 -0.00725119 2.57613e-22)
(0.0802831 -0.00638481 -2.57454e-22)
(0.081737 -0.00565213 -4.01414e-24)
(0.0830449 -0.00502831 0)
(0.0842249 -0.00449362 1.29427e-25)
(0.0852926 -0.00403253 0)
(0.0862614 -0.00363269 3.71863e-24)
(0.0871428 -0.00328415 8.14294e-26)
(0.0879467 -0.00297892 3.51538e-24)
(0.0886818 -0.00271058 -2.24509e-22)
(0.0893557 -0.00247412 2.21181e-22)
(0.0899753 -0.00226513 0)
(0.0905463 -0.00207961 -1.0458e-22)
(0.0910735 -0.00191425 1.07916e-22)
(0.0915614 -0.00176638 0)
(0.0920139 -0.00163381 -2.60847e-26)
(0.0924344 -0.00151479 -9.97832e-23)
(0.0928261 -0.0014078 1.94568e-22)
(0.0931918 -0.00131153 -1.87686e-22)
(0.093534 -0.00122485 1.83858e-22)
(0.0938549 -0.00114681 -1.80043e-22)
(0.0941565 -0.00107665 8.90816e-23)
(0.0944407 -0.00101376 4.26789e-23)
(0.0947091 -0.000957692 -3.74137e-23)
(0.0949634 -0.000908187 -2.58639e-24)
(0.0952049 -0.000865162 -4.0002e-23)
(0.0954352 -0.000828768 8.41138e-23)
(0.0956555 -0.000799472 -3.91615e-23)
(0.0958675 -0.000778203 1.19388e-27)
(0.0960723 -0.000766438 2.31672e-24)
(0.0962713 -0.00076567 3.47369e-28)
(0.0964665 -0.00077419 -2.21821e-24)
(0.0966579 -0.000778626 4.33887e-24)
(0.00157159 -0.000499133 -3.47703e-24)
(0.00764898 -0.00636252 -3.19613e-23)
(0.0168314 -0.0147744 -2.86335e-23)
(0.0264533 -0.0238251 -2.5545e-23)
(0.0351068 -0.031128 -4.25044e-23)
(0.0422898 -0.035315 -2.21273e-24)
(0.0480879 -0.0363214 1.40146e-23)
(0.0528353 -0.0348942 -1.35299e-23)