/*--------------------------------*- C++ -*----------------------------------*\
| =========                 |                                                 |
| \\      /  F ield         | OpenFOAM: The Open Source CFD Toolbox           |
|  \\    /   O peration     | Version:  2412                                  |
|   \\  /    A nd           | Website:  www.openfoam.com                      |
|    \\/     M anipulation  |                                                 |
\*---------------------------------------------------------------------------*/
FoamFile
{
    version     2.0;
    format      ascii;
    arch        "LSB;label=32;scalar=64";
    class       volVectorField;
    location    "1.5";
    object      vorticity;
}
// * * * * * * * * * * * * * * * * * * * * * * * * * * * * * * * * * * * * * //

dimensions      [0 0 -1 0 0 0 0];

internalField   nonuniform List<vector> 
63420
(
(0 0 0.000329525)
(0 0 -3.88836e-05)
(0 0 -0.000185953)
(0 0 -0.000107356)
(0 0 -3.38419e-05)
(0 0 -2.13584e-06)
(0 0 7.51308e-06)
(0 0 9.92389e-06)
(0 0 1.05531e-05)
(0 0 1.08062e-05)
(0 0 1.09134e-05)
(0 0 1.1028e-05)
(0 0 1.11271e-05)
(0 0 1.12362e-05)
(0 0 1.13165e-05)
(0 0 1.14446e-05)
(0 0 1.15432e-05)
(0 0 1.15947e-05)
(0 0 1.17096e-05)
(0 0 1.18421e-05)
(0 0 1.1943e-05)
(0 0 1.20431e-05)
(0 0 1.21441e-05)
(0 0 1.22397e-05)
(0 0 1.23415e-05)
(0 0 1.24558e-05)
(0 0 1.25702e-05)
(0 0 1.26988e-05)
(0 0 1.28283e-05)
(0 0 1.29548e-05)
(0 0 1.30832e-05)
(0 0 1.32248e-05)
(0 0 1.33901e-05)
(0 0 1.35655e-05)
(0 0 1.37503e-05)
(0 0 1.39475e-05)
(0 0 1.41707e-05)
(0 0 1.44145e-05)
(0 0 1.46715e-05)
(0 0 1.49449e-05)
(0 0 1.52458e-05)
(0 0 1.55874e-05)
(0 0 1.59818e-05)
(0 0 1.64337e-05)
(0 0 1.69577e-05)
(0 0 1.75747e-05)
(0 0 1.83226e-05)
(0 0 1.92661e-05)
(0 0 2.05307e-05)
(0 0 2.23899e-05)
(0 0 2.52262e-05)
(0 0 2.8076e-05)
(0 0 2.26805e-05)
(0 0 -1.64925e-05)
(0 7.30675e-23 -0.000127135)
(0 0 0.000964173)
(0 0 -0.00018847)
(0 0 -0.000595672)
(0 0 -0.000338736)
(0 0 -0.000108544)
(0 0 -1.01575e-05)
(0 0 1.9826e-05)
(0 0 2.73762e-05)
(0 0 2.93012e-05)
(0 0 2.99988e-05)
(0 0 3.03659e-05)
(0 0 3.07144e-05)
(0 0 3.10283e-05)
(0 0 3.13284e-05)
(0 0 3.16172e-05)
(0 0 3.19385e-05)
(0 0 3.22289e-05)
(0 0 3.24934e-05)
(0 0 3.28134e-05)
(0 0 3.31611e-05)
(0 0 3.34806e-05)
(0 0 3.37895e-05)
(0 0 3.41015e-05)
(0 0 3.44273e-05)
(0 0 3.47638e-05)
(0 0 3.51108e-05)
(0 0 3.54716e-05)
(0 0 3.58692e-05)
(0 0 3.62846e-05)
(0 0 3.67093e-05)
(0 0 3.71507e-05)
(0 0 3.76241e-05)
(0 0 3.81364e-05)
(0 0 3.86792e-05)
(0 0 3.92571e-05)
(0 0 3.98796e-05)
(0 0 4.05579e-05)
(0 0 4.12848e-05)
(0 0 4.20643e-05)
(0 0 4.29243e-05)
(0 0 4.38972e-05)
(0 0 4.5005e-05)
(0 0 4.62662e-05)
(0 0 4.77027e-05)
(0 0 4.93631e-05)
(0 0 5.13262e-05)
(0 0 5.37125e-05)
(0 0 5.67157e-05)
(0 0 6.0702e-05)
(0 0 6.64668e-05)
(0 0 7.51358e-05)
(0 0 8.39279e-05)
(0 0 6.87859e-05)
(0 0 -4.46986e-05)
(0 7.36569e-23 -0.000366013)
(0 0 0.00152301)
(0 0 -0.000551377)
(0 0 -0.00111949)
(0 0 -0.00062062)
(0 0 -0.000206116)
(0 0 -3.1848e-05)
(0 0 2.0981e-05)
(0 0 3.42796e-05)
(0 0 3.7615e-05)
(0 0 3.87302e-05)
(0 0 3.93311e-05)
(0 0 3.98666e-05)
(0 0 4.03523e-05)
(0 0 4.08115e-05)
(0 0 4.12866e-05)
(0 0 4.17601e-05)
(0 0 4.22108e-05)
(0 0 4.26758e-05)
(0 0 4.31774e-05)
(0 0 4.37118e-05)
(0 0 4.42343e-05)
(0 0 4.47435e-05)
(0 0 4.5261e-05)
(0 0 4.5818e-05)
(0 0 4.63969e-05)
(0 0 4.69924e-05)
(0 0 4.76235e-05)
(0 0 4.83121e-05)
(0 0 4.90377e-05)
(0 0 4.97924e-05)
(0 0 5.0589e-05)
(0 0 5.14446e-05)
(0 0 5.2361e-05)
(0 0 5.33361e-05)
(0 0 5.43811e-05)
(0 0 5.5511e-05)
(0 0 5.6736e-05)
(0 0 5.80517e-05)
(0 0 5.94775e-05)
(0 0 6.10637e-05)
(0 0 6.28581e-05)
(0 0 6.48919e-05)
(0 0 6.71951e-05)
(0 0 6.98119e-05)
(0 0 7.28258e-05)
(0 0 7.63715e-05)
(0 0 8.06502e-05)
(0 0 8.59781e-05)
(0 0 9.29475e-05)
(0 0 0.000102838)
(0 0 0.000117478)
(0 0 0.000132592)
(0 0 0.000110483)
(0 0 -6.54906e-05)
(0 4.35482e-22 -0.000565824)
(0 0 0.0019459)
(0 0 -0.00124311)
(0 0 -0.00180256)
(0 0 -0.000975187)
(0 0 -0.000340982)
(0 0 -8.02179e-05)
(0 0 -1.89212e-06)
(0 0 1.76228e-05)
(0 0 2.23004e-05)
(0 0 2.36353e-05)
(0 0 2.42506e-05)
(0 0 2.47382e-05)
(0 0 2.51744e-05)
(0 0 2.55941e-05)
(0 0 2.60494e-05)
(0 0 2.64813e-05)
(0 0 2.69106e-05)
(0 0 2.73968e-05)
(0 0 2.79092e-05)
(0 0 2.84553e-05)
(0 0 2.90078e-05)
(0 0 2.9564e-05)
(0 0 3.01495e-05)
(0 0 3.07984e-05)
(0 0 3.14879e-05)
(0 0 3.22155e-05)
(0 0 3.30038e-05)
(0 0 3.38686e-05)
(0 0 3.47951e-05)
(0 0 3.57815e-05)
(0 0 3.68474e-05)
(0 0 3.80049e-05)
(0 0 3.92511e-05)
(0 0 4.05918e-05)
(0 0 4.20492e-05)
(0 0 4.36413e-05)
(0 0 4.53782e-05)
(0 0 4.72645e-05)
(0 0 4.9335e-05)
(0 0 5.16552e-05)
(0 0 5.42832e-05)
(0 0 5.72617e-05)
(0 0 6.06391e-05)
(0 0 6.4485e-05)
(0 0 6.8917e-05)
(0 0 7.41215e-05)
(0 0 8.03714e-05)
(0 0 8.80884e-05)
(0 0 9.8056e-05)
(0 0 0.000111953)
(0 0 0.000132195)
(0 0 0.00015345)
(0 0 0.000127858)
(0 0 -9.24925e-05)
(0 -2.86237e-22 -0.000721739)
(0 0 0.0021891)
(0 0 -0.00224139)
(0 0 -0.00260627)
(0 0 -0.00138354)
(0 0 -0.000511523)
(0 0 -0.000160017)
(0 0 -5.56729e-05)
(0 0 -3.02553e-05)
(0 0 -2.47154e-05)
(0 0 -2.36699e-05)
(0 0 -2.35502e-05)
(0 0 -2.36083e-05)
(0 0 -2.36966e-05)
(0 0 -2.3772e-05)
(0 0 -2.37946e-05)
(0 0 -2.38292e-05)
(0 0 -2.38379e-05)
(0 0 -2.37516e-05)
(0 0 -2.36358e-05)
(0 0 -2.34834e-05)
(0 0 -2.33019e-05)
(0 0 -2.30842e-05)
(0 0 -2.28008e-05)
(0 0 -2.24345e-05)
(0 0 -2.20061e-05)
(0 0 -2.15076e-05)
(0 0 -2.09258e-05)
(0 0 -2.02489e-05)
(0 0 -1.94809e-05)
(0 0 -1.86151e-05)
(0 0 -1.76324e-05)
(0 0 -1.65289e-05)
(0 0 -1.53088e-05)
(0 0 -1.39549e-05)
(0 0 -1.24347e-05)
(0 0 -1.07315e-05)
(0 0 -8.83539e-06)
(0 0 -6.73143e-06)
(0 0 -4.37256e-06)
(0 0 -1.68726e-06)
(0 0 1.38879e-06)
(0 0 4.9111e-06)
(0 0 8.94677e-06)
(0 0 1.35888e-05)
(0 0 1.89805e-05)
(0 0 2.53465e-05)
(0 0 3.30101e-05)
(0 0 4.24629e-05)
(0 0 5.46125e-05)
(0 0 7.13854e-05)
(0 0 9.55413e-05)
(0 0 0.000121102)
(0 0 9.43925e-05)
(0 0 -0.000149739)
(0 1.41336e-22 -0.000848047)
(0 0 0.0022882)
(0 0 -0.00326706)
(0 0 -0.00335342)
(0 0 -0.00176439)
(0 0 -0.000682716)
(0 0 -0.000251445)
(0 0 -0.000124735)
(0 0 -9.47802e-05)
(0 0 -8.91495e-05)
(0 0 -8.90142e-05)
(0 0 -8.996e-05)
(0 0 -9.10937e-05)
(0 0 -9.22136e-05)
(0 0 -9.32829e-05)
(0 0 -9.42758e-05)
(0 0 -9.524e-05)
(0 0 -9.61486e-05)
(0 0 -9.69324e-05)
(0 0 -9.76756e-05)
(0 0 -9.83735e-05)
(0 0 -9.90142e-05)
(0 0 -9.95843e-05)
(0 0 -0.000100056)
(0 0 -0.000100429)
(0 0 -0.000100723)
(0 0 -0.00010092)
(0 0 -0.000101019)
(0 0 -0.000101009)
(0 0 -0.000100883)
(0 0 -0.000100633)
(0 0 -0.000100245)
(0 0 -9.97201e-05)
(0 0 -9.90602e-05)
(0 0 -9.82379e-05)
(0 0 -9.72176e-05)
(0 0 -9.59916e-05)
(0 0 -9.45508e-05)
(0 0 -9.28707e-05)
(0 0 -9.08998e-05)
(0 0 -8.85703e-05)
(0 0 -8.58175e-05)
(0 0 -8.25783e-05)
(0 0 -7.87757e-05)
(0 0 -7.43061e-05)
(0 0 -6.90178e-05)
(0 0 -6.26759e-05)
(0 0 -5.49466e-05)
(0 0 -4.53274e-05)
(0 0 -3.28909e-05)
(0 0 -1.56815e-05)
(0 0 9.04063e-06)
(0 0 3.49319e-05)
(0 0 6.96074e-06)
(0 0 -0.000242863)
(0 6.97353e-22 -0.000954452)
(0 0 0.00240527)
(0 0 -0.0038564)
(0 0 -0.00380753)
(0 0 -0.00200934)
(0 0 -0.000797425)
(0 0 -0.000313551)
(0 0 -0.000171731)
(0 0 -0.000139038)
(0 0 -0.000133793)
(0 0 -0.000134689)
(0 0 -0.000136731)
(0 0 -0.000138934)
(0 0 -0.000141074)
(0 0 -0.000143134)
(0 0 -0.000145097)
(0 0 -0.000146984)
(0 0 -0.000148797)
(0 0 -0.000150472)
(0 0 -0.000152097)
(0 0 -0.00015367)
(0 0 -0.000155163)
(0 0 -0.000156563)
(0 0 -0.000157853)
(0 0 -0.000159041)
(0 0 -0.000160145)
(0 0 -0.000161139)
(0 0 -0.000162035)
(0 0 -0.000162823)
(0 0 -0.00016349)
(0 0 -0.000164029)
(0 0 -0.000164433)
(0 0 -0.000164705)
(0 0 -0.000164841)
(0 0 -0.000164812)
(0 0 -0.00016459)
(0 0 -0.00016418)
(0 0 -0.000163574)
(0 0 -0.00016274)
(0 0 -0.000161634)
(0 0 -0.000160199)
(0 0 -0.00015838)
(0 0 -0.000156117)
(0 0 -0.000153337)
(0 0 -0.000149945)
(0 0 -0.000145804)
(0 0 -0.000140708)
(0 0 -0.000134363)
(0 0 -0.000126326)
(0 0 -0.000115771)
(0 0 -0.000100957)
(0 0 -7.95569e-05)
(0 0 -5.80845e-05)
(0 0 -8.89988e-05)
(0 0 -0.00033088)
(0 -1.36605e-22 -0.00101217)
(-1.48611e-23 8.11802e-21 -0.000320776)
(-2.28396e-22 7.93327e-21 -0.000515683)
(6.50336e-23 -3.08183e-22 -0.000597795)
(9.58126e-24 -2.37987e-20 -0.000503416)
(-1.4981e-22 8.24786e-21 -0.000264313)
(6.09992e-22 8.08119e-21 3.11203e-05)
(-1.23307e-21 2.33701e-20 0.000300798)
(4.63092e-22 -2.39583e-20 0.000502593)
(9.60758e-22 -7.61372e-21 0.000632219)
(-1.41827e-21 -5.42941e-24 0.000705388)
(-1.44071e-21 -7.71712e-21 0.00074187)
(1.26578e-21 7.16513e-21 0.000757467)
(7.58825e-22 -6.04415e-20 0.000762466)
(-1.34446e-21 1.30851e-19 0.00076264)
(3.99159e-22 -7.11884e-20 0.000760743)
(-2.01159e-21 -5.33484e-20 0.000757917)
(3.47778e-21 -6.76702e-20 0.000754603)
(-2.82765e-21 8.25623e-21 0.000751045)
(-3.2933e-22 -7.49866e-21 0.000747331)
(1.51697e-22 7.5504e-21 0.000743705)
(-4.80519e-24 -1.96552e-22 0.000740436)
(-1.47926e-22 -7.25441e-21 0.000737712)
(-3.00245e-21 7.39678e-21 0.000735371)
(6.37127e-21 1.89914e-23 0.000732789)
(1.89691e-21 7.19408e-21 0.000729129)
(-4.94414e-21 -8.62644e-24 0.000723718)
(7.13729e-21 8.95832e-21 0.000716574)
(-7.75142e-21 1.09085e-19 0.000708886)
(4.14313e-22 -1.17777e-19 0.00070255)
(-2.5444e-21 1.0851e-19 0.000698858)
(2.46387e-21 -1.10289e-19 0.000697632)
(7.2255e-23 1.99801e-21 0.000697332)
(-9.33931e-23 -2.43586e-21 0.000696153)
(3.11369e-21 -1.05631e-19 0.000693824)
(-1.1914e-20 1.03727e-19 0.000692294)
(-4.6428e-22 -2.28951e-21 0.000694223)
(9.17279e-21 2.00618e-23 0.000700982)
(9.98721e-21 2.1843e-23 0.000712046)
(-9.95525e-21 -2.17731e-23 0.00072578)
(-3.31784e-22 -7.25644e-25 0.000739733)
(-3.47527e-22 -7.60077e-25 0.000747658)
(-1.2063e-20 -2.6383e-23 0.00072848)
(1.16413e-20 2.54607e-23 0.000612266)
(-3.91619e-22 2.35183e-22 0.000177004)
(2.34782e-22 1.18066e-20 -0.00120849)
(-3.57737e-20 7.25345e-20 -0.00502961)
(3.43317e-20 -9.84068e-20 -0.013966)
(-1.03792e-20 -1.47269e-20 -0.031164)
(1.12614e-20 4.13832e-20 -0.0573683)
(-3.35834e-20 -9.2866e-21 -0.0872601)
(-3.88635e-22 8.16187e-21 -0.000927877)
(-1.03159e-22 1.59633e-20 -0.00148989)
(5.7528e-22 7.71582e-21 -0.00171534)
(-1.40838e-21 -7.97009e-21 -0.00142017)
(2.6198e-21 7.4669e-21 -0.000702442)
(-1.08378e-21 -5.45812e-20 0.000175354)
(1.79143e-22 8.72876e-20 0.000972397)
(-1.2218e-22 -9.78313e-21 0.00156705)
(2.84841e-21 -1.00432e-19 0.00194884)
(-2.71024e-21 1.43393e-19 0.00216517)
(-5.37013e-22 1.29783e-19 0.00227444)
(3.17513e-22 -1.18107e-19 0.00232322)
(-6.12957e-22 1.15708e-21 0.00234151)
(4.33455e-21 -7.43273e-21 0.00234577)
(-3.23747e-21 2.6066e-20 0.00234387)
(-7.49959e-21 2.48545e-19 0.00233922)
(8.11686e-22 -2.35153e-19 0.00233319)
(-6.80587e-21 2.53022e-19 0.00232626)
(-2.64779e-22 1.94301e-20 0.00231888)
(-5.91699e-21 -7.78481e-21 0.00231167)
(6.2119e-21 2.21841e-22 0.00230552)
(-6.15227e-21 1.05788e-20 0.00230105)
(3.87474e-21 2.19702e-19 0.00229766)
(4.12924e-21 -4.72332e-19 0.00229322)
(3.92471e-21 -2.22103e-19 0.00228502)
(-5.27139e-21 4.55564e-19 0.00227101)
(-6.55482e-22 -4.58136e-19 0.00225152)
(3.34828e-21 4.72462e-19 0.00223052)
(4.9788e-21 -6.00265e-22 0.00221389)
(-5.5704e-21 -1.45834e-22 0.00220521)
(-1.86277e-21 -4.07406e-24 0.00220344)
(0 0 0.00220364)
(2.74689e-22 1.42026e-22 0.00220043)
(1.64906e-20 1.60645e-20 0.00219324)
(-1.1612e-20 4.00368e-19 0.0021879)
(-2.20816e-20 -2.84856e-20 0.00219176)
(1.45625e-20 -4.00994e-19 0.00220795)
(2.32772e-20 -3.46784e-19 0.00223393)
(2.28428e-21 3.78134e-19 0.00226389)
(-4.57447e-20 2.44954e-22 0.00228911)
(4.65849e-20 2.33365e-20 0.00228775)
(-3.88972e-20 2.85786e-19 0.00218954)
(1.08304e-20 -3.02144e-19 0.00176925)
(-2.6942e-20 2.06321e-20 0.000331254)
(3.08647e-20 1.30093e-20 -0.00405832)
(-7.32797e-20 1.59789e-19 -0.015877)
(7.36321e-20 -1.55512e-19 -0.0430995)
(-1.35936e-19 1.27881e-19 -0.0949506)
(1.30809e-19 -1.44054e-19 -0.173383)
(-3.12353e-20 -1.26434e-21 -0.2604)
(1.47752e-22 4.80801e-20 -0.00143957)
(-2.02197e-23 1.48336e-20 -0.00230329)
(2.95602e-22 -6.25537e-20 -0.00261663)
(-2.09238e-22 1.24798e-19 -0.00209619)
(4.91788e-22 -2.68947e-19 -0.000912037)
(1.82203e-21 1.28942e-19 0.000510409)
(-3.8505e-21 -1.40799e-21 0.00178956)
(2.31096e-21 -1.84355e-20 0.00273853)
(-2.23872e-22 -2.63743e-19 0.00334696)
(3.67242e-21 2.53187e-19 0.0036937)
(-1.3615e-21 -2.57893e-21 0.00387287)
(-6.57235e-21 -5.77066e-23 0.00395828)
(1.05e-20 -2.8943e-21 0.0039966)
(-8.96939e-21 -2.59546e-19 0.00401315)
(1.05065e-20 2.39554e-19 0.00402018)
(-1.24329e-20 4.70968e-19 0.00402296)
(-8.01831e-21 -1.33792e-20 0.00402346)
(-1.52712e-21 4.86466e-19 0.00402239)
(4.72847e-22 -1.47379e-20 0.00402029)
(-1.24309e-20 4.73233e-19 0.00401819)
(1.20549e-20 -4.9348e-19 0.00401776)
(-6.62967e-21 4.7341e-19 0.00402024)
(-4.02268e-21 -4.94591e-19 0.00402452)
(7.70919e-21 -7.67694e-21 0.00402643)
(-3.61174e-21 1.4495e-20 0.0040207)
(8.07325e-21 -7.22622e-21 0.00400385)
(-1.8376e-20 4.48049e-19 0.00397723)
(1.52499e-20 -4.84407e-19 0.00394863)
(1.56349e-20 -4.44686e-19 0.00392803)
(-1.1081e-20 4.5354e-19 0.00392035)
(-1.63119e-21 -7.78874e-21 0.00392247)
(1.68173e-20 -1.81551e-22 0.00392562)
(-1.98144e-20 -3.20966e-20 0.00392143)
(4.30638e-20 -8.41695e-19 0.00390963)
(2.17227e-20 6.61968e-20 0.00389928)
(-6.6159e-20 7.98412e-19 0.00390046)
(5.98163e-21 -1.84237e-20 0.00391567)
(-1.6146e-20 -1.11795e-20 0.00393829)
(1.03261e-19 -6.8751e-19 0.00395653)
(-1.80085e-19 1.37527e-18 0.00395208)
(1.71074e-19 -1.40575e-18 0.00387905)
(1.01479e-19 1.04474e-19 0.00359712)
(-1.58211e-19 6.36767e-19 0.00267664)
(-1.68327e-19 4.51557e-19 -0.000148203)
(1.51549e-19 -5.51069e-19 -0.00824839)
(-3.67816e-20 3.02324e-20 -0.0291729)
(9.23389e-20 -2.95428e-20 -0.0760139)
(2.45058e-19 -1.53753e-19 -0.163474)
(-2.6891e-19 2.49997e-19 -0.293998)
(-4.32034e-20 -6.82605e-20 -0.431081)
(4.83413e-22 -3.16191e-20 -0.00182007)
(-5.02568e-22 1.61278e-20 -0.00289157)
(1.14985e-21 -2.77599e-22 -0.00323094)
(-1.13836e-21 -1.57948e-20 -0.00248814)
(-1.59183e-21 -2.30695e-21 -0.000905011)
(2.14996e-21 -2.47084e-19 0.000958526)
(-1.37634e-21 4.71418e-19 0.00261466)
(3.0955e-22 -2.55619e-19 0.00383418)
(-2.67195e-21 1.51993e-20 0.00461394)
(4.00248e-21 -2.78614e-19 0.00506073)
(-5.97782e-21 2.57919e-19 0.00529687)
(2.90856e-22 4.83766e-19 0.00541631)
(3.43383e-21 -9.87063e-19 0.00547747)
(-6.52237e-21 9.89425e-19 0.00551179)
(1.26254e-20 -9.86397e-19 0.00553437)
(-3.02947e-21 9.85036e-19 0.00555153)
(-7.64264e-21 4.94811e-19 0.00556548)
(-1.02518e-21 -5.95076e-21 0.00557683)
(7.01401e-21 6.05463e-21 0.00558606)
(-2.83571e-21 4.61398e-19 0.00559457)
(-1.2368e-20 -4.88539e-19 0.00560501)
(2.28095e-20 1.96177e-20 0.00561984)
(-2.96152e-20 9.36574e-19 0.00563772)
(1.73147e-20 -9.47932e-19 0.00565176)
(3.15658e-21 -1.62265e-21 0.00565312)
(-1.49881e-20 -6.66427e-23 0.00563669)
(2.20826e-20 -1.43314e-20 0.00560573)
(-7.31366e-21 1.87883e-22 0.00557251)
(-8.13644e-21 -1.75911e-23 0.00555048)
(7.61256e-21 2.9609e-22 0.00554427)
(-4.9438e-21 -3.34965e-21 0.00554773)
(5.26073e-20 -8.55629e-19 0.00554911)
(-4.39213e-20 8.89744e-19 0.0055389)
(-2.34641e-20 -4.59676e-21 0.00551754)
(2.65389e-20 -6.0273e-21 0.00549491)
(-8.55562e-20 8.05048e-19 0.00548035)
(1.12544e-19 -8.18826e-19 0.00547325)
(-3.538e-20 7.25449e-21 0.00546206)
(2.43589e-20 5.18719e-23 0.00542851)
(5.64021e-20 1.36736e-20 0.00534178)
(-2.70748e-19 6.3233e-19 0.00512089)
(3.39748e-19 -1.31696e-18 0.00452232)
(-1.56885e-19 6.78266e-19 0.00282632)
(2.86073e-19 -5.4169e-19 -0.00197984)
(-2.65434e-19 6.59372e-19 -0.0149631)
(-7.57519e-19 6.84638e-19 -0.0469358)
(1.4711e-18 -1.53597e-18 -0.115909)
(-7.51579e-19 8.14306e-19 -0.241258)
(3.15988e-20 -3.02288e-21 -0.424914)
(7.45031e-21 -5.93526e-20 -0.60149)
(-1.0987e-21 1.63132e-20 -0.0020708)
(1.35453e-22 6.1021e-20 -0.00326154)
(1.22297e-21 -1.86817e-19 -0.00361227)
(9.57549e-22 2.51994e-19 -0.00274195)
(-1.893e-21 -1.12425e-19 -0.000943028)
(-3.43972e-23 -1.45029e-20 0.00114643)
(-5.39234e-22 1.58197e-20 0.00298546)
(4.80649e-21 -2.6279e-22 0.00432999)
(-4.84044e-21 -1.53498e-20 0.00518632)
(-7.84009e-21 3.654e-20 0.00567767)
(-2.76658e-21 4.92562e-19 0.00594043)
(2.06798e-20 -5.14042e-19 0.00607747)
(-2.753e-20 4.80875e-19 0.00615184)
(2.11382e-20 -5.01937e-19 0.0061972)
(-4.71672e-21 5.36065e-21 0.00622946)
(1.71292e-20 1.37027e-22 0.00625506)
(6.56171e-21 5.78237e-21 0.00627595)
(2.29848e-21 4.68974e-19 0.00629228)
(2.03238e-20 -5.11505e-19 0.00630417)
(1.00958e-20 3.43117e-20 0.0063132)
(-4.49719e-20 9.72519e-19 0.00632336)
(1.9529e-20 -9.83572e-19 0.00633926)
(1.60131e-20 2.78537e-20 0.00636022)
(-2.76754e-20 -3.58128e-22 0.00637607)
(1.80831e-20 1.46876e-20 0.00637283)
(-2.39118e-20 9.45736e-19 0.00634326)
(1.45156e-20 -9.45556e-19 0.00629281)
(4.32312e-21 1.46617e-20 0.00623742)
(1.57807e-20 2.90795e-20 0.00619196)
(-1.74556e-20 -8.31921e-22 0.00615921)
(1.09764e-21 -1.3961e-20 0.00613001)
(-5.53842e-20 1.42919e-20 0.00609149)
(5.37855e-20 1.36321e-20 0.00603532)
(-5.80056e-21 -3.27187e-20 0.00596217)
(5.24104e-20 -8.07333e-19 0.00587904)
(-3.67977e-20 8.31134e-19 0.0057908)
(2.23238e-19 -1.62791e-18 0.00569288)
(-1.88322e-19 1.64877e-18 0.0055705)
(2.38295e-19 -1.58253e-18 0.00540133)
(8.71434e-20 1.57507e-19 0.00514268)
(-2.78799e-19 1.51421e-18 0.0046704)
(-1.86057e-19 -3.76413e-20 0.00360117)
(2.47227e-20 1.43273e-22 0.000818055)
(-3.00616e-20 3.68198e-22 -0.00667489)
(8.91816e-20 2.15638e-21 -0.0260274)
(4.78665e-20 1.77729e-20 -0.0717239)
(-1.90207e-19 6.58097e-21 -0.166838)
(1.13345e-19 7.06942e-21 -0.335223)
(-2.82536e-22 -5.30732e-22 -0.578031)
(6.11331e-20 9.84701e-22 -0.783783)
(-4.2873e-22 7.75165e-20 -0.00221349)
(2.26582e-21 -4.76611e-20 -0.00347868)
(-2.88301e-21 -1.7355e-20 -0.00391906)
(3.95129e-21 -2.31463e-19 -0.00314712)
(-1.26784e-22 2.34213e-19 -0.00145304)
(-9.36161e-22 -2.30996e-19 0.000532361)
(-8.20278e-21 5.09997e-19 0.00227958)
(5.11901e-21 -7.17313e-19 0.00355315)
(-2.54881e-21 5.11704e-19 0.00436123)
(2.34083e-22 4.93829e-19 0.00482311)
(-2.96908e-21 -8.32389e-22 0.00506841)
(1.91541e-20 -9.71434e-19 0.00519395)
(-1.29836e-20 1.01791e-18 0.00525884)
(-1.66877e-21 -4.83916e-19 0.00529438)
(8.12599e-21 -4.82121e-19 0.00531512)
(2.3096e-20 -4.73601e-19 0.00532666)
(-3.35906e-21 6.38126e-21 0.0053302)
(3.55047e-20 -9.90284e-19 0.00532507)
(1.93862e-20 -9.46229e-19 0.00531055)
(8.49754e-21 2.82548e-20 0.00528817)
(-1.22226e-20 9.88479e-19 0.0052635)
(-3.10634e-20 -1.25124e-20 0.00524432)
(1.89273e-20 1.37134e-20 0.0052317)
(-4.05625e-20 9.60508e-19 0.00521142)
(2.65676e-20 -9.88897e-19 0.00516184)
(6.84225e-20 -9.37162e-19 0.00507218)
(-7.01775e-20 9.81508e-19 0.00494938)
(2.2971e-20 -3.04324e-20 0.00481079)
(4.84234e-20 -9.46282e-19 0.00467031)
(-9.02528e-20 9.8012e-19 0.00452799)
(6.61882e-21 1.85898e-20 0.00437154)
(-1.75593e-19 1.79524e-18 0.0041865)
(1.44406e-19 -1.88309e-18 0.00396463)
(7.45034e-20 8.81629e-20 0.00370502)
(-2.19579e-19 1.72131e-18 0.00340966)
(1.84243e-19 -1.81724e-18 0.00307756)
(-4.7874e-20 -5.3859e-21 0.00270056)
(4.59124e-19 -1.64605e-18 0.00226326)
(-4.14627e-19 1.72445e-18 0.00174451)
(-1.06131e-19 -1.07082e-19 0.0010991)
(6.94196e-19 -1.45656e-18 0.000170831)
(-1.11426e-18 3.0958e-18 -0.00156623)
(-9.6448e-20 -1.81056e-19 -0.00568024)
(-1.56084e-19 -1.28064e-19 -0.0163217)
(8.08584e-19 -1.40744e-18 -0.0430966)
(6.86303e-20 1.08051e-19 -0.104814)
(-1.20519e-18 1.04368e-18 -0.230819)
(1.16584e-18 -1.1751e-18 -0.452436)
(9.57277e-21 5.21958e-20 -0.775961)
(1.45683e-20 -4.03394e-21 -1.01445)
(8.42833e-22 -1.66361e-20 -0.0022372)
(9.84034e-22 -1.37627e-19 -0.0035672)
(-1.34705e-21 1.24948e-19 -0.0042269)
(-2.29369e-21 -1.87415e-20 -0.00383216)
(4.21953e-21 -2.30028e-19 -0.00260057)
(-3.55248e-21 2.39925e-19 -0.00106365)
(6.52721e-22 4.79049e-19 0.00032024)
(-8.22805e-21 -2.12812e-20 0.0013381)
(3.77419e-21 -6.12554e-21 0.00198395)
(1.19176e-20 -5.10577e-19 0.00234855)
(-7.70834e-21 4.78297e-19 0.00253443)
(4.69495e-21 -1.01638e-18 0.00261888)
(5.29381e-21 5.12009e-19 0.00264919)
(-6.13225e-21 -2.10821e-20 0.00265035)
(-8.02241e-21 -2.67995e-20 0.00263383)
(1.68627e-20 -1.00271e-18 0.00260371)
(-1.43947e-21 -1.94982e-20 0.00256022)
(1.29772e-20 -1.02294e-18 0.00250179)
(-8.84105e-21 -4.01513e-21 0.00242676)
(-2.27598e-22 1.85925e-22 0.00233644)
(1.77278e-20 1.30251e-20 0.00223808)
(-4.24436e-20 9.87971e-19 0.002143)
(3.3437e-20 -1.01776e-18 0.002055)
(1.96329e-20 1.28788e-20 0.00195571)
(-1.40382e-20 -1.56567e-20 0.00181429)
(-9.42903e-21 1.5119e-20 0.00161583)
(-5.76249e-20 9.58843e-19 0.00136898)
(1.27241e-19 -1.97774e-18 0.00109278)
(-5.48448e-20 1.05212e-18 0.000801796)
(-1.50932e-19 1.9205e-18 0.000496804)
(-3.34525e-20 -5.17261e-20 0.000165948)
(1.8286e-20 -2.16245e-20 -0.000203809)
(-8.37406e-20 -6.18263e-20 -0.000617082)
(2.0551e-19 -1.9551e-18 -0.00106894)
(3.7704e-19 -1.79109e-18 -0.00154738)
(-3.11249e-19 1.91435e-18 -0.00203593)
(-5.19037e-20 -8.39559e-20 -0.00251419)
(4.07077e-19 -1.74556e-18 -0.00295213)
(-3.19467e-19 1.88969e-18 -0.00330005)
(-6.37775e-19 1.64742e-18 -0.00349581)
(4.8276e-19 -1.78214e-18 -0.00355316)
(1.17854e-19 -1.58179e-20 -0.0038681)
(8.98917e-19 -1.6169e-18 -0.00604875)
(2.21328e-19 1.36685e-19 -0.0148391)
(-1.12649e-18 1.62155e-18 -0.0417056)
(-3.19835e-20 -6.40711e-20 -0.109499)
(6.05491e-20 9.63167e-22 -0.255049)
(-5.3518e-20 3.1119e-20 -0.526538)
(-7.60292e-19 7.80051e-19 -0.975923)
(7.38853e-19 -8.02341e-19 -1.44533)
(-1.12171e-20 -2.93415e-21 0.00759288)
(-7.83736e-21 4.97022e-22 -0.0226247)
(7.22296e-21 7.7911e-21 -0.0456849)
(-1.43136e-20 -1.99672e-20 -0.0551234)
(1.47754e-20 1.23655e-20 -0.0520499)
(-7.17707e-22 9.62977e-22 -0.0420408)
(-8.79647e-23 -5.63686e-23 -0.0304992)
(-2.06373e-21 4.51359e-24 -0.0205329)
(1.997e-21 -4.36763e-24 -0.0131451)
(-5.07903e-23 1.11083e-25 -0.00816491)
(-4.46106e-23 9.75678e-26 -0.00500964)
(1.1936e-21 -2.61053e-24 -0.00308916)
(-1.19745e-21 2.61894e-24 -0.00194812)
(-1.10699e-21 2.4211e-24 -0.0012778)
(3.28276e-23 -2.82224e-22 -0.000883641)
(2.9583e-21 9.30806e-20 -0.000648698)
(-1.73649e-21 -8.68089e-20 -0.00050481)
(-2.40571e-23 -2.65053e-22 -0.000412716)
(-1.01108e-23 2.79584e-22 -0.000349975)
(-1.21837e-21 -1.0313e-19 -0.000304553)
(1.23213e-21 1.03038e-19 -0.000270772)
(-7.14096e-22 -9.96143e-20 -0.000245823)
(8.20244e-22 6.45573e-21 -0.00022762)
(-1.08092e-21 2.70371e-24 -0.000213822)
(8.16713e-22 6.8974e-21 -0.000202753)
(-2.68457e-22 1.81796e-23 -0.000193416)
(-1.01245e-21 2.21432e-24 -0.000185933)
(5.0463e-22 -1.72834e-23 -0.000180322)
(2.14603e-23 7.19208e-21 -0.000176087)
(-3.13679e-23 3.19676e-23 -0.000172594)
(-1.40226e-23 -7.32818e-21 -0.000169421)
(-1.82079e-23 7.36779e-21 -0.000166422)
(4.26738e-22 -7.53964e-21 -0.000163622)
(-6.65616e-22 6.74809e-20 -0.000161082)
(1.69383e-22 -6.73026e-20 -0.000158834)
(-2.4728e-22 -5.34079e-20 -0.000156875)
(4.46709e-22 1.14135e-19 -0.000155182)
(-2.23384e-22 -6.08791e-20 -0.000153719)
(-2.32987e-22 -7.81912e-21 -0.00015245)
(2.08252e-22 7.71992e-21 -0.00015134)
(1.76488e-22 1.42708e-25 -0.000150361)
(-2.3183e-22 7.87392e-21 -0.000149493)
(-8.50044e-23 -3.93256e-20 -0.000148736)
(1.57313e-22 3.93291e-20 -0.000148137)
(-1.15637e-22 -7.89313e-21 -0.000147838)
(1.47018e-23 2.3885e-20 -0.000147872)
(-9.1512e-23 -7.91371e-21 -0.000146369)
(-3.89458e-23 -1.60866e-20 -0.000132943)
(4.37794e-23 8.04185e-21 -7.64906e-05)
(2.35244e-23 -8.08874e-21 7.45618e-05)
(-1.71502e-20 2.54932e-20 0.0161189)
(-2.36509e-21 -2.61448e-20 -0.0717556)
(8.22188e-21 -6.9694e-21 -0.138079)
(-4.62716e-20 -3.36052e-20 -0.164464)
(4.4975e-20 3.54644e-20 -0.154464)
(-6.96142e-21 6.39499e-21 -0.124407)
(4.01158e-21 -2.415e-21 -0.0900599)
(-6.0531e-20 -2.03947e-19 -0.0604955)
(6.25926e-20 1.93914e-19 -0.0386244)
(-9.63571e-21 -5.65391e-21 -0.0239081)
(4.65758e-21 -1.01309e-20 -0.0146029)
(3.26079e-20 3.11341e-19 -0.00894989)
(-3.61197e-20 -3.08132e-19 -0.00559569)
(-2.59192e-20 -3.48362e-19 -0.00362554)
(6.38318e-21 -1.6724e-20 -0.00246542)
(2.21448e-20 3.62671e-19 -0.00177186)
(-2.38583e-21 -4.72956e-21 -0.0013454)
(-5.85959e-22 -1.23095e-20 -0.0010713)
(4.12493e-24 -3.67548e-23 -0.000883805)
(2.6066e-22 -5.7009e-25 -0.000747375)
(8.41469e-22 1.35559e-23 -0.000645036)
(-8.27996e-22 -7.70301e-21 -0.000568326)
(6.76298e-21 4.15741e-19 -0.000511141)
(-7.62788e-21 -4.49378e-19 -0.000466996)
(6.88164e-21 4.38336e-19 -0.000431073)
(-3.98311e-21 -2.19152e-19 -0.000401597)
(-5.8729e-21 -4.54505e-19 -0.000378751)
(1.96555e-21 2.27005e-19 -0.000362122)
(9.08053e-22 -6.65781e-21 -0.00034961)
(-1.11476e-21 -1.45909e-20 -0.000338894)
(1.04814e-21 7.34437e-21 -0.000328696)
(-1.60401e-22 -2.26216e-20 -0.000318837)
(2.54135e-21 2.32114e-19 -0.000309642)
(-5.39751e-21 -4.86692e-19 -0.00030141)
(2.67588e-21 2.32113e-19 -0.000294228)
(3.92467e-22 -2.22942e-20 -0.000288034)
(-5.9289e-22 7.57858e-21 -0.000282701)
(9.76017e-23 2.4309e-22 -0.000278098)
(-6.46188e-22 -1.31308e-19 -0.000274104)
(5.71511e-22 1.15481e-19 -0.000270621)
(8.31732e-22 1.09471e-19 -0.000267566)
(-1.04066e-21 -1.48072e-19 -0.00026488)
(1.15142e-22 7.53802e-21 -0.000262553)
(7.20507e-23 3.95982e-20 -0.000260717)
(-9.40637e-23 -7.10787e-20 -0.000259788)
(-4.03095e-22 -7.97407e-21 -0.000259919)
(-9.9142e-24 -5.58986e-20 -0.00025591)
(-1.23511e-22 -8.18998e-21 -0.000218109)
(1.13274e-22 1.59937e-20 -5.67022e-05)
(1.12067e-22 2.42461e-20 0.000378301)
(-2.07753e-20 4.01356e-22 0.00245346)
(4.787e-20 2.38269e-20 -0.133669)
(-2.27889e-20 -9.4153e-21 -0.23384)
(-4.52831e-20 -1.46205e-20 -0.27072)
(1.7125e-20 6.10819e-21 -0.251181)
(-2.10428e-19 -2.94997e-19 -0.201048)
(2.22401e-19 2.8446e-19 -0.144948)
(2.1587e-19 4.50515e-19 -0.0970164)
(-3.43016e-20 8.22174e-20 -0.0617025)
(-3.3857e-19 -1.05187e-18 -0.0380187)
(3.04155e-19 1.16003e-18 -0.0230884)
(-1.3971e-19 -5.85605e-19 -0.0140406)
(-9.20954e-23 -1.36114e-20 -0.00867649)
(-1.1871e-21 -2.59099e-21 -0.00551877)
(7.96037e-20 7.52198e-19 -0.0036478)
(-1.34524e-20 1.70792e-20 -0.00251794)
(-6.4281e-20 -7.54459e-19 -0.00181424)
(4.65345e-21 2.25236e-20 -0.00135583)
(-2.49828e-21 8.9043e-23 -0.00103833)
(1.66611e-22 -1.15816e-21 -0.000804149)
(1.7297e-20 4.28628e-19 -0.000624805)
(-1.72562e-20 -4.12296e-19 -0.0004863)
(-1.43605e-20 -4.28598e-19 -0.000378103)
(1.57629e-20 4.53222e-19 -0.00029234)
(-7.49914e-22 1.52273e-20 -0.00022107)
(1.47552e-22 -1.41697e-20 -0.000163199)
(-9.20906e-22 1.53009e-20 -0.000119695)
(-6.6487e-21 -4.49936e-19 -8.87271e-05)
(8.81056e-21 4.63861e-19 -6.48995e-05)
(-7.92545e-21 -4.41183e-19 -4.31141e-05)
(8.57482e-21 4.70151e-19 -2.1346e-05)
(1.97395e-22 1.49166e-20 -1.06265e-07)
(5.14459e-21 4.81722e-19 1.94006e-05)
(-1.11588e-20 -9.47944e-19 3.64846e-05)
(7.27794e-21 4.95925e-19 5.11269e-05)
(5.75813e-22 2.60463e-19 6.36465e-05)
(-4.57962e-22 -2.28383e-19 7.44146e-05)
(-1.73236e-21 -4.19715e-22 8.37434e-05)
(1.0476e-21 -9.09063e-24 9.18732e-05)
(2.47027e-22 -4.14747e-22 9.89901e-05)
(1.15154e-21 2.49713e-19 0.000105243)
(-1.48476e-21 -2.33637e-19 0.000110749)
(-2.64984e-22 1.52982e-20 0.000115549)
(7.37336e-22 -1.70352e-22 0.000119471)
(4.2799e-22 1.26909e-19 0.000121877)
(-1.37686e-21 -2.37863e-19 0.000122367)
(8.17911e-22 1.26907e-19 0.000128296)
(-4.03165e-22 -6.38249e-20 0.000184141)
(2.53454e-22 4.78546e-20 0.000427726)
(8.84675e-23 1.61198e-20 0.00109247)
(9.5692e-22 3.36054e-20 -0.048346)
(1.12624e-20 -6.20605e-20 -0.218507)
(2.88668e-19 3.30289e-19 -0.334881)
(-7.56517e-19 -7.16482e-19 -0.370085)
(4.88452e-19 3.87745e-19 -0.336212)
(2.92952e-19 3.99738e-19 -0.266286)
(-3.2182e-19 -3.80779e-19 -0.190863)
(2.80039e-19 5.04413e-19 -0.127267)
(-5.45742e-19 -1.06459e-18 -0.0807172)
(2.77875e-19 5.44163e-19 -0.0496293)
(-5.95452e-21 1.49865e-20 -0.0300931)
(-5.29096e-21 4.55108e-22 -0.0182745)
(8.38006e-21 1.365e-20 -0.0112589)
(-1.31952e-19 -7.54677e-19 -0.00710224)
(1.23392e-19 7.26038e-19 -0.00460658)
(-9.05756e-22 2.72424e-20 -0.0030688)
(1.90651e-21 -1.49157e-20 -0.00208617)
(7.04578e-20 8.3004e-19 -0.00142798)
(-7.16856e-20 -8.2525e-19 -0.000959961)
(-3.48339e-22 -1.58809e-20 -0.000605393)
(-1.11258e-21 -3.48182e-23 -0.000323925)
(1.21448e-21 3.19671e-23 -9.50056e-05)
(1.07301e-21 -4.11192e-23 9.30788e-05)
(-2.90847e-21 1.41046e-20 0.000250467)
(2.4885e-21 8.38482e-24 0.000382079)
(5.09843e-24 1.65654e-20 0.000488841)
(-2.70588e-20 -9.47304e-19 0.00056928)
(2.85772e-20 9.28899e-19 0.000628348)
(-3.78887e-21 3.22957e-21 0.000677097)
(-7.08862e-21 -4.76433e-19 0.000724069)
(9.94004e-21 4.89458e-19 0.000771098)
(-1.1868e-21 1.06998e-21 0.000815794)
(-1.13983e-22 9.79644e-22 0.000855659)
(-5.75423e-21 -5.02856e-19 0.000889932)
(1.3978e-20 9.90089e-19 0.00091921)
(-1.42791e-20 -9.78187e-19 0.000944491)
(1.2459e-20 9.82273e-19 0.000966628)
(-1.12251e-20 -9.8525e-19 0.000986218)
(5.16194e-21 4.91948e-19 0.00100367)
(3.34722e-21 2.4992e-19 0.00101931)
(-2.77414e-21 -2.17206e-19 0.00103337)
(2.4069e-22 -1.55933e-20 0.00104607)
(-2.16305e-21 -2.51845e-19 0.00105753)
(4.62448e-21 5.34212e-19 0.00106761)
(-2.38687e-21 -2.50977e-19 0.00107553)
(1.92509e-22 -4.17041e-22 0.00108051)
(2.90905e-22 1.58409e-20 0.00109041)
(-2.14319e-22 5.69034e-23 0.00115763)
(-8.95425e-23 -1.59668e-20 0.00145022)
(2.33217e-22 3.18906e-20 0.00225893)
(3.41436e-20 -1.64116e-22 -0.153955)
(-1.61917e-21 -1.64632e-21 -0.336952)
(-7.03451e-20 -3.35904e-21 -0.440726)
(8.92462e-20 -5.77416e-21 -0.455791)
(-3.58159e-20 -1.20328e-20 -0.401127)
(-3.49386e-20 -2.01209e-21 -0.312788)
(1.84897e-20 7.43791e-21 -0.222528)
(-8.57769e-21 -9.27145e-21 -0.14792)
(4.42587e-20 -2.04632e-20 -0.0937946)
(5.46488e-19 1.32282e-18 -0.0578261)
(-9.07621e-20 6.28506e-20 -0.0352981)
(-4.87224e-19 -1.41507e-18 -0.0216939)
(3.57914e-19 1.49533e-18 -0.0136068)
(-3.66831e-19 -1.49212e-18 -0.00877956)
(1.29505e-19 7.97087e-19 -0.00583439)
(-1.35963e-19 -8.22735e-19 -0.00397213)
(3.10009e-21 9.91083e-21 -0.00273971)
(-1.04532e-20 -1.30464e-20 -0.00187955)
(7.59838e-21 -1.36609e-20 -0.00124169)
(1.07727e-21 1.36198e-20 -0.000737764)
(2.85069e-21 1.03217e-22 -0.000318523)
(-4.70334e-21 -2.81298e-20 4.08067e-05)
(-6.84375e-22 2.32687e-21 0.000351591)
(-4.43884e-20 -9.41215e-19 0.000620046)
(4.43638e-20 9.07032e-19 0.000848489)