/*--------------------------------*- C++ -*----------------------------------*\
| =========                 |                                                 |
| \\      /  F ield         | OpenFOAM: The Open Source CFD Toolbox           |
|  \\    /   O peration     | Version:  2412                                  |
|   \\  /    A nd           | Website:  www.openfoam.com                      |
|    \\/     M anipulation  |                                                 |
\*---------------------------------------------------------------------------*/
FoamFile
{
    version     2.0;
    format      ascii;
    arch        "LSB;label=32;scalar=64";
    class       volVectorField;
    location    "1.5";
    object      U;
}
// * * * * * * * * * * * * * * * * * * * * * * * * * * * * * * * * * * * * * //

dimensions      [0 1 -1 0 0 0 0];

internalField   nonuniform List<vector> 
5285
(
(0.099768 -0.000392889 0)
(0.0997826 -0.000370697 0)
(0.0997968 -0.000349452 0)
(0.0998106 -0.000329128 0)
(0.0998241 -0.000309698 0)
(0.0998371 -0.000291136 0)
(0.0998497 -0.000273414 0)
(0.0998619 -0.000256509 0)
(0.0998736 -0.000240396 0)
(0.0998849 -0.000225049 0)
(0.0998958 -0.000210445 0)
(0.0999063 -0.00019656 0)
(0.0999163 -0.00018337 0)
(0.0999259 -0.000170851 0)
(0.099935 -0.000158982 0)
(0.0999438 -0.00014774 0)
(0.0999521 -0.000137104 0)
(0.09996 -0.000127047 0)
(0.0999674 -0.000117556 0)
(0.0999745 -0.000108605 0)
(0.0999812 -0.000100175 0)
(0.0999875 -9.22453e-05 0)
(0.0999934 -8.47983e-05 0)
(0.099999 -7.78141e-05 0)
(0.100004 -7.12742e-05 0)
(0.100009 -6.51603e-05 0)
(0.100014 -5.94523e-05 0)
(0.100018 -5.41435e-05 0)
(0.100022 -4.92001e-05 0)
(0.100025 -4.46271e-05 0)
(0.100029 -4.03853e-05 0)
(0.099778 -0.000399249 0)
(0.099792 -0.000376787 0)
(0.0998056 -0.000355272 0)
(0.0998189 -0.000334677 0)
(0.0998318 -0.000314979 0)
(0.0998444 -0.000296154 0)
(0.0998565 -0.000278174 0)
(0.0998682 -0.000261016 0)
(0.0998796 -0.000244657 0)
(0.0998905 -0.000229071 0)
(0.099901 -0.000214235 0)
(0.0999111 -0.000200125 0)
(0.0999208 -0.000186718 0)
(0.0999301 -0.00017399 0)
(0.0999389 -0.000161919 0)
(0.0999474 -0.000150484 0)
(0.0999554 -0.000139661 0)
(0.099963 -0.000129427 0)
(0.0999703 -0.000119765 0)
(0.0999772 -0.000110654 0)
(0.0999836 -0.00010207 0)
(0.0999897 -9.39944e-05 0)
(0.0999955 -8.64095e-05 0)
(0.100001 -7.92944e-05 0)
(0.100006 -7.26309e-05 0)
(0.100011 -6.64009e-05 0)
(0.100015 -6.05853e-05 0)
(0.100019 -5.51744e-05 0)
(0.100023 -5.01349e-05 0)
(0.100026 -4.5473e-05 0)
(0.10003 -4.11493e-05 0)
(0.100033 -3.71725e-05 0)
(0.100035 -3.35048e-05 0)
(0.100038 -3.01508e-05 0)
(0.10004 -2.70831e-05 0)
(0.100042 -2.43062e-05 0)
(0.100044 -2.17883e-05 0)
(0.100046 -1.9538e-05 0)
(0.100047 -1.75325e-05 0)
(0.100049 -1.57731e-05 0)
(0.10005 -1.42385e-05 0)
(0.100051 -1.29414e-05 0)
(0.100052 -1.18565e-05 0)
(0.100053 -1.10006e-05 0)
(0.100054 -1.03564e-05 0)
(0.100055 -9.93309e-06 0)
(0.100056 -9.73537e-06 0)
(0.100057 -9.75825e-06 0)
(0.100058 -1.00289e-05 0)
(0.100059 -1.05375e-05 0)
(0.10006 -1.13327e-05 0)
(0.100061 -1.23951e-05 0)
(0.100063 -1.3799e-05 0)
(0.100065 -1.55379e-05 0)
(0.100067 -1.7682e-05 0)
(0.100069 -2.02716e-05 0)
(0.100072 -2.33623e-05 0)
(0.100076 -2.70424e-05 0)
(0.10008 -3.13608e-05 0)
(0.100086 -3.64503e-05 0)
(0.100092 -4.23709e-05 0)
(0.100099 -4.92519e-05 0)
(0.100111 -5.71366e-05 0)
(0.100114 -6.62183e-05 0)
(0.100158 -7.58603e-05 0)
(0.100088 -8.77885e-05 0)
(0.100338 -9.54935e-05 0)
(0.0998776 -0.00011178 0)
(0.100737 -0.000104868 0)
(0.0997748 -0.0001093 0)
(0.100565 -7.51905e-05 0)
(0.0997882 -0.000405332 0)
(0.0998016 -0.000382618 0)
(0.0998146 -0.00036085 0)
(0.0998273 -0.000340002 0)
(0.0998397 -0.000320052 0)
(0.0998517 -0.000300978 0)
(0.0998634 -0.000282753 0)
(0.0998747 -0.000265357 0)
(0.0998856 -0.000248764 0)
(0.0998961 -0.00023295 0)
(0.0999063 -0.000217893 0)
(0.099916 -0.000203568 0)
(0.0999254 -0.000189953 0)
(0.0999343 -0.000177024 0)
(0.0999429 -0.00016476 0)
(0.099951 -0.000153138 0)
(0.0999588 -0.000142136 0)
(0.0999662 -0.000131732 0)
(0.0999732 -0.000121905 0)
(0.0999798 -0.000112638 0)
(0.0999861 -0.000103906 0)
(0.099992 -9.56893e-05 0)
(0.0999976 -8.79709e-05 0)
(0.100003 -8.07289e-05 0)
(0.100008 -7.39456e-05 0)
(0.100012 -6.76033e-05 0)
(0.100017 -6.1683e-05 0)
(0.10002 -5.61727e-05 0)
(0.100024 -5.10403e-05 0)
(0.100027 -4.62919e-05 0)
(0.100031 -4.18888e-05 0)
(0.100033 -3.78367e-05 0)
(0.100036 -3.41022e-05 0)
(0.100038 -3.06848e-05 0)
(0.100041 -2.75614e-05 0)
(0.100043 -2.47309e-05 0)
(0.100044 -2.2167e-05 0)
(0.100046 -1.98734e-05 0)
(0.100048 -1.78313e-05 0)
(0.100049 -1.60384e-05 0)
(0.10005 -1.44769e-05 0)
(0.100051 -1.3155e-05 0)
(0.100052 -1.20509e-05 0)
(0.100053 -1.11806e-05 0)
(0.100054 -1.05244e-05 0)
(0.100055 -1.0095e-05 0)
(0.100056 -9.89562e-06 0)
(0.100057 -9.92112e-06 0)
(0.100058 -1.01995e-05 0)
(0.100059 -1.07207e-05 0)
(0.10006 -1.15341e-05 0)
(0.100061 -1.26217e-05 0)
(0.100063 -1.40567e-05 0)
(0.100064 -1.58363e-05 0)
(0.100066 -1.80285e-05 0)
(0.100069 -2.06765e-05 0)
(0.100072 -2.38386e-05 0)
(0.100075 -2.76045e-05 0)
(0.10008 -3.20267e-05 0)
(0.100085 -3.72408e-05 0)
(0.100091 -4.33149e-05 0)
(0.100098 -5.03809e-05 0)
(0.10011 -5.84929e-05 0)
(0.100113 -6.78706e-05 0)
(0.100156 -7.78305e-05 0)
(0.100087 -9.03387e-05 0)
(0.100337 -9.82903e-05 0)
(0.099877 -0.000116033 0)
(0.100737 -0.000108737 0)
(0.0997758 -0.000115154 0)
(0.100574 -8.06772e-05 0)
(0.0997985 -0.000411138 0)
(0.0998112 -0.000388189 0)
(0.0998237 -0.000366186 0)
(0.0998358 -0.0003451 0)
(0.0998477 -0.000324914 0)
(0.0998592 -0.000305607 0)
(0.0998704 -0.000287152 0)
(0.0998812 -0.00026953 0)
(0.0998917 -0.000252715 0)
(0.0999019 -0.000236685 0)
(0.0999116 -0.000221417 0)
(0.099921 -0.000206887 0)
(0.09993 -0.000193074 0)
(0.0999386 -0.000179953 0)
(0.0999469 -0.000167503 0)
(0.0999548 -0.000155702 0)
(0.0999623 -0.000144528 0)
(0.0999694 -0.00013396 0)
(0.0999762 -0.000123975 0)
(0.0999826 -0.000114557 0)
(0.0999886 -0.000105682 0)
(0.0999944 -9.73292e-05 0)
(0.0999997 -8.94816e-05 0)
(0.100005 -8.21168e-05 0)
(0.10001 -7.52177e-05 0)
(0.100014 -6.87667e-05 0)
(0.100018 -6.27445e-05 0)
(0.100022 -5.7138e-05 0)
(0.100025 -5.1916e-05 0)
(0.100029 -4.70836e-05 0)
(0.100032 -4.26035e-05 0)
(0.100034 -3.8478e-05 0)
(0.100037 -3.46785e-05 0)
(0.100039 -3.11998e-05 0)
(0.100041 -2.80222e-05 0)
(0.100043 -2.51395e-05 0)
(0.100045 -2.25314e-05 0)
(0.100047 -2.01957e-05 0)
(0.100048 -1.8118e-05 0)
(0.100049 -1.62921e-05 0)
(0.10005 -1.47051e-05 0)
(0.100051 -1.33588e-05 0)
(0.100052 -1.22366e-05 0)
(0.100053 -1.13521e-05 0)
(0.100054 -1.06846e-05 0)
(0.100055 -1.02497e-05 0)
(0.100056 -1.00481e-05 0)
(0.100057 -1.00769e-05 0)
(0.100058 -1.03631e-05 0)
(0.100059 -1.08967e-05 0)
(0.10006 -1.17279e-05 0)
(0.100061 -1.28406e-05 0)
(0.100062 -1.43063e-05 0)
(0.100064 -1.61256e-05 0)
(0.100066 -1.83658e-05 0)
(0.100068 -2.10714e-05 0)
(0.100071 -2.43039e-05 0)
(0.100075 -2.81546e-05 0)
(0.100079 -3.26798e-05 0)
(0.100084 -3.80172e-05 0)
(0.10009 -4.42436e-05 0)
(0.100097 -5.14944e-05 0)
(0.100109 -5.98332e-05 0)
(0.100112 -6.95105e-05 0)
(0.100155 -7.97876e-05 0)
(0.100085 -9.29066e-05 0)
(0.100335 -0.000101079 0)
(0.0998764 -0.000120434 0)
(0.100737 -0.00011267 0)
(0.0997766 -0.000121432 0)
(0.100583 -8.67562e-05 0)
(0.0998089 -0.000416665 0)
(0.099821 -0.000393499 0)
(0.0998328 -0.000371276 0)
(0.0998445 -0.000349971 0)
(0.0998558 -0.000329565 0)
(0.0998668 -0.000310039 0)
(0.0998775 -0.000291368 0)
(0.0998879 -0.000273533 0)
(0.0998979 -0.00025651 0)
(0.0999076 -0.000240274 0)
(0.099917 -0.000224806 0)
(0.099926 -0.000210081 0)
(0.0999347 -0.000196078 0)
(0.099943 -0.000182774 0)
(0.0999509 -0.000170146 0)
(0.0999585 -0.000158174 0)
(0.0999658 -0.000146835 0)
(0.0999726 -0.000136109 0)
(0.0999792 -0.000125973 0)
(0.0999854 -0.000116411 0)
(0.0999912 -0.000107398 0)
(0.0999967 -9.8913e-05 0)
(0.100002 -9.09406e-05 0)
(0.100007 -8.34573e-05 0)
(0.100011 -7.64466e-05 0)
(0.100016 -6.98905e-05 0)
(0.10002 -6.37693e-05 0)
(0.100023 -5.80697e-05 0)
(0.100027 -5.27614e-05 0)
(0.10003 -4.78478e-05 0)
(0.100033 -4.32929e-05 0)
(0.100035 -3.90965e-05 0)
(0.100038 -3.52338e-05 0)
(0.10004 -3.16957e-05 0)
(0.100042 -2.8465e-05 0)
(0.100044 -2.55319e-05 0)
(0.100046 -2.2881e-05 0)
(0.100047 -2.05047e-05 0)
(0.100048 -1.83924e-05 0)
(0.10005 -1.65346e-05 0)
(0.100051 -1.49225e-05 0)
(0.100052 -1.35528e-05 0)
(0.100053 -1.24132e-05 0)
(0.100054 -1.15147e-05 0)
(0.100054 -1.08367e-05 0)
(0.100055 -1.03966e-05 0)
(0.100056 -1.01928e-05 0)
(0.100057 -1.02256e-05 0)
(0.100058 -1.05194e-05 0)
(0.100059 -1.10655e-05 0)
(0.10006 -1.19145e-05 0)
(0.100061 -1.30521e-05 0)
(0.100062 -1.45478e-05 0)
(0.100064 -1.64059e-05 0)
(0.100066 -1.86933e-05 0)
(0.100068 -2.1456e-05 0)
(0.100071 -2.47577e-05 0)
(0.100074 -2.86921e-05 0)
(0.100078 -3.33194e-05 0)
(0.100083 -3.87789e-05 0)
(0.100089 -4.51561e-05 0)
(0.100096 -5.25914e-05 0)
(0.100108 -6.11564e-05 0)
(0.100111 -7.1137e-05 0)
(0.100154 -8.17298e-05 0)
(0.100084 -9.54921e-05 0)
(0.100334 -0.000103854 0)
(0.0998757 -0.000124989 0)
(0.100737 -0.000116659 0)
(0.0997772 -0.000128167 0)
(0.100593 -9.34801e-05 0)
(0.0998193 -0.000421914 0)
(0.0998308 -0.000398547 0)
(0.0998421 -0.000376122 0)
(0.0998531 -0.000354613 0)
(0.0998639 -0.000334004 0)
(0.0998744 -0.000314274 0)
(0.0998847 -0.000295402 0)
(0.0998946 -0.000277367 0)
(0.0999042 -0.000260146 0)
(0.0999135 -0.000243717 0)
(0.0999225 -0.000228059 0)
(0.0999311 -0.000213149 0)
(0.0999394 -0.000198966 0)
(0.0999474 -0.000185487 0)
(0.0999551 -0.00017269 0)
(0.0999624 -0.000160554 0)
(0.0999693 -0.000149057 0)
(0.0999759 -0.00013818 0)
(0.0999822 -0.000127899 0)
(0.0999882 -0.000118197 0)
(0.0999938 -0.000109051 0)
(0.0999991 -0.00010044 0)
(0.100004 -9.23472e-05 0)
(0.100009 -8.47499e-05 0)
(0.100013 -7.76315e-05 0)
(0.100017 -7.09739e-05 0)
(0.100021 -6.47571e-05 0)
(0.100025 -5.89676e-05 0)
(0.100028 -5.35758e-05 0)
(0.100031 -4.85837e-05 0)
(0.100034 -4.39564e-05 0)
(0.100036 -3.96917e-05 0)
(0.100039 -3.57676e-05 0)
(0.100041 -3.21718e-05 0)
(0.100043 -2.88895e-05 0)
(0.100044 -2.59081e-05 0)
(0.100046 -2.32154e-05 0)
(0.100048 -2.08e-05 0)
(0.100049 -1.86542e-05 0)
(0.10005 -1.67658e-05 0)
(0.100051 -1.51288e-05 0)
(0.100052 -1.37368e-05 0)
(0.100053 -1.25804e-05 0)
(0.100054 -1.16683e-05 0)
(0.100054 -1.09807e-05 0)
(0.100055 -1.05353e-05 0)
(0.100056 -1.033e-05 0)
(0.100057 -1.0367e-05 0)
(0.100058 -1.06681e-05 0)
(0.100058 -1.12269e-05 0)
(0.100059 -1.20937e-05 0)
(0.100061 -1.32557e-05 0)
(0.100062 -1.47809e-05 0)
(0.100063 -1.6677e-05 0)
(0.100065 -1.90109e-05 0)
(0.100068 -2.183e-05 0)
(0.10007 -2.52e-05 0)
(0.100074 -2.9217e-05 0)
(0.100078 -3.39451e-05 0)
(0.100082 -3.95253e-05 0)
(0.100089 -4.60519e-05 0)
(0.100095 -5.36711e-05 0)
(0.100106 -6.24616e-05 0)
(0.100109 -7.27492e-05 0)
(0.100152 -8.36552e-05 0)
(0.100083 -9.80939e-05 0)
(0.100332 -0.00010661 0)
(0.0998749 -0.000129702 0)
(0.100737 -0.000120693 0)
(0.0997776 -0.000135392 0)
(0.100603 -0.000100908 0)
(0.0998299 -0.000426884 0)
(0.0998408 -0.000403334 0)
(0.0998514 -0.000380723 0)
(0.0998619 -0.000359027 0)
(0.0998722 -0.00033823 0)
(0.0998822 -0.000318311 0)
(0.0998919 -0.000299251 0)
(0.0999014 -0.000281029 0)
(0.0999105 -0.000263623 0)
(0.0999194 -0.000247012 0)
(0.099928 -0.000231175 0)
(0.0999363 -0.000216091 0)
(0.0999443 -0.000201737 0)
(0.0999519 -0.000188091 0)
(0.0999592 -0.000175133 0)
(0.0999662 -0.000162841 0)
(0.0999729 -0.000151194 0)
(0.0999793 -0.000140172 0)
(0.0999853 -0.000129751 0)
(0.099991 -0.000119916 0)
(0.0999965 -0.000110642 0)
(0.100002 -0.000101909 0)
(0.100006 -9.37008e-05 0)
(0.100011 -8.59939e-05 0)
(0.100015 -7.87719e-05 0)
(0.100019 -7.20164e-05 0)
(0.100023 -6.57074e-05 0)
(0.100026 -5.9831e-05 0)
(0.100029 -5.43589e-05 0)
(0.100032 -4.92908e-05 0)
(0.100035 -4.45936e-05 0)
(0.100037 -4.02633e-05 0)
(0.10004 -3.62797e-05 0)
(0.100042 -3.2628e-05 0)
(0.100043 -2.92958e-05 0)
(0.100045 -2.62676e-05 0)
(0.100047 -2.35343e-05 0)
(0.100048 -2.10813e-05 0)
(0.100049 -1.8903e-05 0)
(0.10005 -1.69853e-05 0)
(0.100051 -1.53243e-05 0)
(0.100052 -1.39107e-05 0)
(0.100053 -1.27384e-05 0)
(0.100054 -1.18129e-05 0)
(0.100055 -1.11164e-05 0)
(0.100055 -1.06663e-05 0)
(0.100056 -1.04595e-05 0)
(0.100057 -1.05006e-05 0)
(0.100057 -1.08091e-05 0)
(0.100058 -1.13808e-05 0)
(0.100059 -1.22649e-05 0)
(0.10006 -1.34508e-05 0)
(0.100062 -1.50052e-05 0)
(0.100063 -1.69389e-05 0)
(0.100065 -1.93184e-05 0)
(0.100067 -2.21932e-05 0)
(0.10007 -2.56307e-05 0)
(0.100073 -2.97288e-05 0)
(0.100077 -3.45563e-05 0)
(0.100082 -4.0256e-05 0)
(0.100088 -4.69308e-05 0)
(0.100094 -5.47329e-05 0)
(0.100105 -6.37478e-05 0)
(0.100108 -7.4346e-05 0)
(0.10015 -8.55613e-05 0)
(0.100081 -0.000100711 0)
(0.10033 -0.00010934 0)
(0.099874 -0.000134578 0)
(0.100737 -0.000124759 0)
(0.0997777 -0.000143147 0)
(0.100614 -0.000109106 0)
(0.0998405 -0.000431573 0)
(0.0998507 -0.000407858 0)
(0.0998608 -0.000385079 0)
(0.0998707 -0.000363212 0)
(0.0998805 -0.000342242 0)
(0.0998899 -0.00032215 0)
(0.0998992 -0.000302915 0)
(0.0999082 -0.000284519 0)
(0.099917 -0.00026694 0)
(0.0999254 -0.000250158 0)
(0.0999336 -0.000234153 0)
(0.0999415 -0.000218904 0)
(0.0999491 -0.000204388 0)
(0.0999564 -0.000190585 0)
(0.0999635 -0.000177473 0)
(0.0999702 -0.000165034 0)
(0.0999766 -0.000153243 0)
(0.0999827 -0.000142083 0)
(0.0999885 -0.000131529 0)
(0.0999939 -0.000121566 0)
(0.0999991 -0.00011217 0)
(0.100004 -0.000103321 0)
(0.100009 -9.50008e-05 0)
(0.100013 -8.71887e-05 0)
(0.100017 -7.9867e-05 0)
(0.100021 -7.30174e-05 0)
(0.100024 -6.66197e-05 0)
(0.100028 -6.06596e-05 0)
(0.100031 -5.51101e-05 0)
(0.100033 -4.99687e-05 0)
(0.100036 -4.52042e-05 0)
(0.100038 -4.08107e-05 0)
(0.10004 -3.67696e-05 0)
(0.100042 -3.3064e-05 0)
(0.100044 -2.96835e-05 0)
(0.100046 -2.66103e-05 0)
(0.100047 -2.38377e-05 0)
(0.100048 -2.13484e-05 0)
(0.10005 -1.91387e-05 0)
(0.100051 -1.71929e-05 0)
(0.100052 -1.55086e-05 0)
(0.100052 -1.40744e-05 0)
(0.100053 -1.28869e-05 0)
(0.100054 -1.19486e-05 0)
(0.100055 -1.12436e-05 0)
(0.100055 -1.07894e-05 0)
(0.100056 -1.05812e-05 0)
(0.100057 -1.06263e-05 0)
(0.100057 -1.09421e-05 0)
(0.100058 -1.15269e-05 0)
(0.100059 -1.2428e-05 0)
(0.10006 -1.36373e-05 0)
(0.100061 -1.52208e-05 0)
(0.100063 -1.71913e-05 0)
(0.100065 -1.96156e-05 0)
(0.100067 -2.25454e-05 0)
(0.100069 -2.60493e-05 0)
(0.100072 -3.02272e-05 0)
(0.100076 -3.51528e-05 0)
(0.100081 -4.09706e-05 0)
(0.100087 -4.77922e-05 0)
(0.100093 -5.57763e-05 0)
(0.100104 -6.50142e-05 0)
(0.100107 -7.59263e-05 0)
(0.100149 -8.74455e-05 0)
(0.10008 -0.000103344 0)
(0.100328 -0.000112038 0)
(0.099873 -0.000139623 0)
(0.100736 -0.000128841 0)
(0.0997775 -0.000151474 0)
(0.100626 -0.000118147 0)
(0.0998512 -0.000435983 0)
(0.0998608 -0.000412122 0)
(0.0998703 -0.00038919 0)
(0.0998797 -0.000367169 0)
(0.0998888 -0.000346041 0)
(0.0998978 -0.000325789 0)
(0.0999066 -0.000306393 0)
(0.0999151 -0.000287836 0)
(0.0999234 -0.000270096 0)
(0.0999315 -0.000253155 0)
(0.0999393 -0.000236993 0)
(0.0999468 -0.000221588 0)
(0.0999541 -0.00020692 0)
(0.099961 -0.000192968 0)
(0.0999677 -0.000179711 0)
(0.0999741 -0.000167131 0)
(0.0999803 -0.000155204 0)
(0.0999861 -0.000143912 0)
(0.0999916 -0.000133232 0)
(0.0999969 -0.000123147 0)
(0.100002 -0.000113634 0)
(0.100007 -0.000104673 0)
(0.100011 -9.62468e-05 0)
(0.100015 -8.83338e-05 0)
(0.100019 -8.09165e-05 0)
(0.100023 -7.39765e-05 0)
(0.100026 -6.74936e-05 0)
(0.100029 -6.1453e-05 0)
(0.100032 -5.58289e-05 0)
(0.100035 -5.06171e-05 0)
(0.100037 -4.57878e-05 0)
(0.100039 -4.13337e-05 0)
(0.100041 -3.72369e-05 0)
(0.100043 -3.34795e-05 0)
(0.100045 -3.00523e-05 0)
(0.100046 -2.69358e-05 0)
(0.100048 -2.41251e-05 0)
(0.100049 -2.16011e-05 0)
(0.10005 -1.93611e-05 0)
(0.100051 -1.73883e-05 0)
(0.100052 -1.56817e-05 0)
(0.100053 -1.42279e-05 0)
(0.100053 -1.30256e-05 0)
(0.100054 -1.20751e-05 0)
(0.100055 -1.13622e-05 0)
(0.100055 -1.09042e-05 0)
(0.100056 -1.06949e-05 0)
(0.100057 -1.07441e-05 0)
(0.100057 -1.10672e-05 0)
(0.100058 -1.1665e-05 0)
(0.100059 -1.25828e-05 0)
(0.10006 -1.38153e-05 0)
(0.100061 -1.54273e-05 0)
(0.100062 -1.74343e-05 0)
(0.100064 -1.99025e-05 0)
(0.100066 -2.28863e-05 0)
(0.100069 -2.64554e-05 0)
(0.100072 -3.07119e-05 0)
(0.100075 -3.57341e-05 0)
(0.10008 -4.16687e-05 0)
(0.100086 -4.86353e-05 0)
(0.100092 -5.68004e-05 0)
(0.100103 -6.62596e-05 0)
(0.100105 -7.74889e-05 0)
(0.100147 -8.93055e-05 0)
(0.100078 -0.00010599 0)
(0.100326 -0.000114694 0)
(0.099872 -0.000144842 0)
(0.100735 -0.000132921 0)
(0.0997769 -0.000160419 0)
(0.100638 -0.000128112 0)
(0.0998619 -0.000440114 0)
(0.0998709 -0.000416124 0)
(0.0998798 -0.000393058 0)
(0.0998886 -0.000370898 0)
(0.0998973 -0.000349627 0)
(0.0999057 -0.000329229 0)
(0.099914 -0.000309686 0)
(0.0999221 -0.000290979 0)
(0.09993 -0.000273091 0)
(0.0999376 -0.000256002 0)
(0.099945 -0.000239692 0)
(0.0999521 -0.000224142 0)
(0.099959 -0.000209331 0)
(0.0999657 -0.000195239 0)
(0.0999721 -0.000181846 0)
(0.0999782 -0.000169133 0)
(0.099984 -0.000157077 0)
(0.0999896 -0.00014566 0)
(0.0999948 -0.00013486 0)
(0.0999999 -0.000124658 0)
(0.100005 -0.000115033 0)
(0.100009 -0.000105966 0)
(0.100013 -9.7438e-05 0)
(0.100017 -8.94286e-05 0)
(0.100021 -8.19197e-05 0)
(0.100024 -7.4893e-05 0)
(0.100028 -6.83284e-05 0)
(0.100031 -6.22107e-05 0)
(0.100033 -5.65151e-05 0)
(0.100036 -5.12356e-05 0)
(0.100038 -4.63441e-05 0)
(0.10004 -4.18318e-05 0)
(0.100042 -3.76814e-05 0)
(0.100044 -3.38743e-05 0)
(0.100046 -3.0402e-05 0)
(0.100047 -2.72441e-05 0)
(0.100048 -2.43966e-05 0)
(0.10005 -2.18391e-05 0)
(0.100051 -1.957e-05 0)
(0.100051 -1.75715e-05 0)
(0.100052 -1.58432e-05 0)
(0.100053 -1.43709e-05 0)
(0.100054 -1.31543e-05 0)
(0.100054 -1.21924e-05 0)
(0.100055 -1.1472e-05 0)
(0.100055 -1.10105e-05 0)
(0.100056 -1.08004e-05 0)
(0.100057 -1.08539e-05 0)
(0.100057 -1.11844e-05 0)
(0.100058 -1.17951e-05 0)
(0.100059 -1.27294e-05 0)
(0.10006 -1.39847e-05 0)
(0.100061 -1.56248e-05 0)
(0.100062 -1.76675e-05 0)
(0.100064 -2.01788e-05 0)
(0.100066 -2.32156e-05 0)
(0.100068 -2.68488e-05 0)
(0.100071 -3.11826e-05 0)
(0.100075 -3.63001e-05 0)
(0.100079 -4.23498e-05 0)
(0.100085 -4.94597e-05 0)
(0.100091 -5.78044e-05 0)
(0.100101 -6.7483e-05 0)
(0.100104 -7.90326e-05 0)
(0.100145 -9.11385e-05 0)
(0.100077 -0.000108649 0)
(0.100323 -0.0001173 0)
(0.0998708 -0.000150239 0)
(0.100734 -0.000136974 0)
(0.0997758 -0.000170035 0)
(0.100652 -0.000139091 0)
(0.0998727 -0.000443967 0)
(0.0998811 -0.000419866 0)
(0.0998895 -0.000396682 0)
(0.0998977 -0.000374399 0)
(0.0999058 -0.000353 0)
(0.0999137 -0.00033247 0)
(0.0999215 -0.000312792 0)
(0.0999291 -0.000293949 0)
(0.0999366 -0.000275924 0)
(0.0999438 -0.000258698 0)
(0.0999508 -0.000242251 0)
(0.0999576 -0.000226566 0)
(0.0999641 -0.000211621 0)
(0.0999704 -0.000197398 0)
(0.0999764 -0.000183877 0)
(0.0999822 -0.000171038 0)
(0.0999878 -0.00015886 0)
(0.0999931 -0.000147325 0)
(0.0999981 -0.00013641 0)
(0.100003 -0.000126098 0)
(0.100007 -0.000116368 0)
(0.100012 -0.000107199 0)
(0.100016 -9.85739e-05 0)
(0.100019 -9.04725e-05 0)
(0.100023 -8.28762e-05 0)
(0.100026 -7.57667e-05 0)
(0.100029 -6.91239e-05 0)
(0.100032 -6.29323e-05 0)
(0.100035 -5.71681e-05 0)
(0.100037 -5.18239e-05 0)
(0.100039 -4.68727e-05 0)
(0.100041 -4.23046e-05 0)
(0.100043 -3.81027e-05 0)
(0.100045 -3.42479e-05 0)
(0.100046 -3.07323e-05 0)
(0.100048 -2.75347e-05 0)
(0.100049 -2.46518e-05 0)
(0.10005 -2.20624e-05 0)
(0.100051 -1.97653e-05 0)
(0.100052 -1.77421e-05 0)
(0.100053 -1.59931e-05 0)
(0.100053 -1.45032e-05 0)
(0.100054 -1.3273e-05 0)
(0.100054 -1.23003e-05 0)
(0.100055 -1.1573e-05 0)
(0.100056 -1.11082e-05 0)
(0.100056 -1.08977e-05 0)
(0.100057 -1.09555e-05 0)
(0.100057 -1.12934e-05 0)
(0.100058 -1.19169e-05 0)
(0.100059 -1.28675e-05 0)
(0.100059 -1.41454e-05 0)
(0.100061 -1.58129e-05 0)
(0.100062 -1.78907e-05 0)
(0.100063 -2.04442e-05 0)
(0.100065 -2.35332e-05 0)
(0.100068 -2.72293e-05 0)
(0.10007 -3.16389e-05 0)
(0.100074 -3.68502e-05 0)
(0.100078 -4.30134e-05 0)
(0.100084 -5.02646e-05 0)
(0.10009 -5.87877e-05 0)
(0.1001 -6.86833e-05 0)
(0.100102 -8.0556e-05 0)
(0.100143 -9.2942e-05 0)
(0.100075 -0.00011132 0)
(0.100321 -0.000119846 0)
(0.0998697 -0.000155819 0)
(0.100733 -0.000140975 0)
(0.0997742 -0.000180379 0)
(0.100667 -0.000151181 0)
(0.0998837 -0.000447544 0)
(0.0998914 -0.000423349 0)
(0.0998992 -0.000400064 0)
(0.0999068 -0.000377672 0)
(0.0999144 -0.000356159 0)
(0.0999218 -0.000335511 0)
(0.0999292 -0.000315712 0)
(0.0999363 -0.000296746 0)
(0.0999433 -0.000278595 0)
(0.0999501 -0.000261243 0)
(0.0999567 -0.00024467 0)
(0.0999631 -0.000228859 0)
(0.0999693 -0.00021379 0)
(0.0999752 -0.000199444 0)
(0.0999809 -0.000185803 0)
(0.0999864 -0.000172846 0)
(0.0999917 -0.000160554 0)
(0.0999967 -0.000148907 0)
(0.100001 -0.000137884 0)
(0.100006 -0.000127467 0)
(0.10001 -0.000117636 0)
(0.100014 -0.000108371 0)
(0.100018 -9.96541e-05 0)
(0.100022 -9.14651e-05 0)
(0.100025 -8.37854e-05 0)
(0.100028 -7.65969e-05 0)
(0.100031 -6.98795e-05 0)
(0.100034 -6.36173e-05 0)
(0.100036 -5.77877e-05 0)
(0.100039 -5.23815e-05 0)
(0.100041 -4.73733e-05 0)
(0.100043 -4.27519e-05 0)
(0.100044 -3.85006e-05 0)
(0.100046 -3.46003e-05 0)
(0.100047 -3.1043e-05 0)
(0.100049 -2.78075e-05 0)
(0.10005 -2.48906e-05 0)
(0.100051 -2.22707e-05 0)
(0.100052 -1.99467e-05 0)
(0.100052 -1.79001e-05 0)
(0.100053 -1.61312e-05 0)
(0.100054 -1.46248e-05 0)
(0.100054 -1.33816e-05 0)
(0.100055 -1.23988e-05 0)
(0.100055 -1.16649e-05 0)
(0.100056 -1.11971e-05 0)
(0.100056 -1.09866e-05 0)
(0.100057 -1.10488e-05 0)
(0.100057 -1.13943e-05 0)
(0.100058 -1.20304e-05 0)
(0.100058 -1.29971e-05 0)
(0.100059 -1.42971e-05 0)
(0.10006 -1.59915e-05 0)
(0.100062 -1.81039e-05 0)
(0.100063 -2.06987e-05 0)
(0.100065 -2.38388e-05 0)
(0.100067 -2.75965e-05 0)
(0.10007 -3.20807e-05 0)
(0.100073 -3.7384e-05 0)
(0.100077 -4.36591e-05 0)
(0.100083 -5.10496e-05 0)
(0.100088 -5.97494e-05 0)
(0.100099 -6.98595e-05 0)
(0.100101 -8.2058e-05 0)
(0.100142 -9.47128e-05 0)
(0.100074 -0.000114002 0)
(0.100318 -0.000122322 0)
(0.0998684 -0.000161585 0)
(0.100732 -0.00014489 0)
(0.0997721 -0.000191514 0)
(0.100682 -0.000164492 0)
(0.0998947 -0.000450846 0)
(0.0999019 -0.000426574 0)
(0.0999091 -0.000403203 0)
(0.0999162 -0.000380717 0)
(0.0999232 -0.000359105 0)
(0.0999301 -0.000338353 0)
(0.099937 -0.000318446 0)
(0.0999436 -0.000299368 0)
(0.0999502 -0.000281104 0)
(0.0999566 -0.000263636 0)
(0.0999628 -0.000246947 0)
(0.0999688 -0.00023102 0)
(0.0999746 -0.000215836 0)
(0.0999802 -0.000201377 0)
(0.0999856 -0.000187623 0)
(0.0999908 -0.000174557 0)
(0.0999958 -0.000162156 0)
(0.1 -0.000150404 0)
(0.100005 -0.00013928 0)
(0.100009 -0.000128765 0)
(0.100013 -0.000118838 0)
(0.100017 -0.000109482 0)
(0.100021 -0.000100678 0)
(0.100024 -9.24058e-05 0)
(0.100027 -8.46469e-05 0)
(0.10003 -7.73832e-05 0)
(0.100033 -7.05947e-05 0)
(0.100036 -6.42655e-05 0)
(0.100038 -5.83735e-05 0)
(0.10004 -5.29083e-05 0)
(0.100042 -4.78456e-05 0)
(0.100044 -4.31733e-05 0)
(0.100045 -3.88747e-05 0)
(0.100047 -3.49309e-05 0)
(0.100048 -3.13339e-05 0)
(0.100049 -2.80622e-05 0)
(0.10005 -2.51127e-05 0)
(0.100051 -2.24638e-05 0)
(0.100052 -2.01141e-05 0)
(0.100053 -1.80453e-05 0)
(0.100054 -1.62575e-05 0)
(0.100054 -1.47354e-05 0)
(0.100055 -1.34799e-05 0)
(0.100055 -1.24876e-05 0)
(0.100056 -1.17477e-05 0)
(0.100056 -1.12773e-05 0)
(0.100056 -1.1067e-05 0)
(0.100057 -1.11337e-05 0)
(0.100057 -1.14868e-05 0)
(0.100058 -1.21354e-05 0)
(0.100059 -1.31179e-05 0)
(0.100059 -1.44397e-05 0)
(0.10006 -1.61605e-05 0)
(0.100061 -1.83068e-05 0)
(0.100063 -2.0942e-05 0)
(0.100065 -2.41322e-05 0)
(0.100067 -2.79503e-05 0)
(0.100069 -3.25076e-05 0)
(0.100073 -3.79012e-05 0)
(0.100077 -4.42863e-05 0)
(0.100082 -5.1814e-05 0)
(0.100087 -6.06887e-05 0)
(0.100097 -7.10103e-05 0)
(0.100099 -8.35371e-05 0)
(0.10014 -9.64482e-05 0)
(0.100072 -0.000116694 0)
(0.100315 -0.000124716 0)
(0.0998672 -0.000167541 0)
(0.10073 -0.000148684 0)
(0.0997693 -0.000203511 0)
(0.100699 -0.000179145 0)
(0.0999061 -0.000453875 0)
(0.0999127 -0.000429543 0)
(0.0999193 -0.0004061 0)
(0.0999258 -0.000383537 0)
(0.0999323 -0.000361839 0)
(0.0999387 -0.000340996 0)
(0.0999451 -0.000320993 0)
(0.0999513 -0.000301816 0)
(0.0999574 -0.000283449 0)
(0.0999633 -0.000265877 0)
(0.0999691 -0.000249083 0)
(0.0999748 -0.00023305 0)
(0.0999802 -0.00021776 0)
(0.0999855 -0.000203195 0)
(0.0999906 -0.000189338 0)
(0.0999954 -0.000176169 0)
(0.1 -0.000163668 0)
(0.100005 -0.000151817 0)
(0.100009 -0.000140598 0)
(0.100013 -0.00012999 0)
(0.100017 -0.000119974 0)
(0.10002 -0.000110532 0)
(0.100024 -0.000101645 0)
(0.100027 -9.32942e-05 0)
(0.10003 -8.54602e-05 0)
(0.100033 -7.81251e-05 0)
(0.100035 -7.12693e-05 0)
(0.100038 -6.48764e-05 0)
(0.10004 -5.8925e-05 0)
(0.100042 -5.34038e-05 0)
(0.100044 -4.82893e-05 0)
(0.100045 -4.35684e-05 0)
(0.100047 -3.92249e-05 0)
(0.100048 -3.52397e-05 0)
(0.100049 -3.16047e-05 0)
(0.100051 -2.82986e-05 0)
(0.100052 -2.5318e-05 0)
(0.100052 -2.26416e-05 0)
(0.100053 -2.02673e-05 0)
(0.100054 -1.81775e-05 0)
(0.100054 -1.63716e-05 0)
(0.100055 -1.48348e-05 0)
(0.100055 -1.35677e-05 0)
(0.100056 -1.25666e-05 0)
(0.100056 -1.18212e-05 0)
(0.100056 -1.13485e-05 0)
(0.100057 -1.11388e-05 0)
(0.100057 -1.12101e-05 0)
(0.100058 -1.15708e-05 0)
(0.100058 -1.22318e-05 0)
(0.100059 -1.32299e-05 0)
(0.10006 -1.45731e-05 0)
(0.10006 -1.63197e-05 0)
(0.100061 -1.84992e-05 0)
(0.100063 -2.11739e-05 0)
(0.100064 -2.44132e-05 0)
(0.100067 -2.82903e-05 0)
(0.100069 -3.29193e-05 0)
(0.100072 -3.84015e-05 0)
(0.100076 -4.48947e-05 0)
(0.100081 -5.25571e-05 0)
(0.100087 -6.16049e-05 0)
(0.100096 -7.21346e-05 0)
(0.100098 -8.49921e-05 0)
(0.100138 -9.81448e-05 0)
(0.100071 -0.000119394 0)
(0.100313 -0.000127016 0)
(0.0998662 -0.000173688 0)
(0.100729 -0.00015231 0)
(0.0997659 -0.000216454 0)
(0.100718 -0.000195281 0)
(0.0999179 -0.000456632 0)
(0.0999239 -0.000432255 0)
(0.0999299 -0.000408758 0)
(0.0999359 -0.00038613 0)
(0.0999418 -0.000364362 0)
(0.0999477 -0.000343441 0)
(0.0999536 -0.000323355 0)
(0.0999593 -0.00030409 0)
(0.099965 -0.000285632 0)
(0.0999705 -0.000267966 0)
(0.0999759 -0.000251077 0)
(0.0999812 -0.000234947 0)
(0.0999863 -0.000219561 0)
(0.0999912 -0.000204899 0)
(0.0999959 -0.000190946 0)
(0.1 -0.000177682 0)
(0.100005 -0.000165087 0)
(0.100009 -0.000153146 0)
(0.100013 -0.000141836 0)
(0.100017 -0.000131142 0)
(0.10002 -0.000121042 0)
(0.100024 -0.00011152 0)
(0.100027 -0.000102555 0)
(0.10003 -9.41295e-05 0)
(0.100033 -8.62247e-05 0)
(0.100035 -7.88222e-05 0)
(0.100038 -7.19027e-05 0)
(0.10004 -6.54494e-05 0)
(0.100042 -5.94419e-05 0)
(0.100044 -5.38675e-05 0)
(0.100046 -4.87038e-05 0)
(0.100047 -4.39369e-05 0)
(0.100049 -3.95507e-05 0)
(0.10005 -3.55262e-05 0)
(0.100051 -3.1855e-05 0)
(0.100052 -2.85163e-05 0)
(0.100053 -2.55061e-05 0)
(0.100054 -2.28036e-05 0)
(0.100054 -2.0406e-05 0)
(0.100055 -1.82964e-05 0)
(0.100056 -1.64734e-05 0)
(0.100056 -1.4923e-05 0)
(0.100056 -1.36448e-05 0)
(0.100057 -1.26357e-05 0)
(0.100057 -1.18852e-05 0)
(0.100057 -1.14106e-05 0)
(0.100058 -1.12017e-05 0)
(0.100058 -1.12778e-05 0)
(0.100058 -1.16462e-05 0)
(0.100059 -1.23194e-05 0)
(0.100059 -1.33329e-05 0)
(0.10006 -1.4697e-05 0)
(0.100061 -1.64688e-05 0)
(0.100062 -1.86809e-05 0)
(0.100063 -2.13941e-05 0)
(0.100065 -2.46814e-05 0)
(0.100067 -2.86162e-05 0)
(0.100069 -3.33154e-05 0)
(0.100072 -3.88842e-05 0)
(0.100076 -4.54836e-05 0)
(0.100081 -5.32784e-05 0)
(0.100086 -6.24969e-05 0)
(0.100096 -7.32311e-05 0)
(0.100097 -8.64212e-05 0)
(0.100137 -9.97993e-05 0)
(0.10007 -0.000122101 0)
(0.10031 -0.00012921 0)
(0.0998654 -0.000180028 0)
(0.100727 -0.00015571 0)
(0.0997617 -0.000230445 0)
(0.100739 -0.000213072 0)
(0.09993 -0.00045912 0)
(0.0999354 -0.000434714 0)
(0.0999408 -0.000411176 0)
(0.0999462 -0.000388498 0)
(0.0999517 -0.000366672 0)
(0.0999571 -0.000345686 0)
(0.0999624 -0.000325529 0)
(0.0999677 -0.000306189 0)
(0.0999729 -0.000287651 0)
(0.099978 -0.000269902 0)
(0.099983 -0.000252928 0)
(0.0999879 -0.000236711 0)
(0.0999926 -0.000221237 0)
(0.0999972 -0.000206487 0)
(0.100002 -0.000192446 0)
(0.100006 -0.000179094 0)
(0.10001 -0.000166414 0)
(0.100014 -0.000154387 0)
(0.100018 -0.000142995 0)
(0.100021 -0.00013222 0)
(0.100024 -0.000122042 0)
(0.100028 -0.000112444 0)
(0.100031 -0.000103406 0)
(0.100033 -9.49109e-05 0)
(0.100036 -8.69394e-05 0)
(0.100038 -7.94735e-05 0)
(0.100041 -7.24939e-05 0)
(0.100043 -6.59839e-05 0)
(0.100045 -5.99233e-05 0)
(0.100046 -5.42987e-05 0)
(0.100048 -4.90885e-05 0)
(0.100049 -4.4278e-05 0)
(0.100051 -3.98515e-05 0)
(0.100052 -3.57897e-05 0)
(0.100053 -3.20844e-05 0)
(0.100054 -2.87149e-05 0)
(0.100055 -2.56765e-05 0)
(0.100055 -2.29494e-05 0)
(0.100056 -2.05298e-05 0)
(0.100056 -1.84016e-05 0)
(0.100057 -1.65625e-05 0)
(0.100057 -1.49993e-05 0)
(0.100058 -1.37109e-05 0)
(0.100058 -1.26943e-05 0)
(0.100058 -1.19393e-05 0)
(0.100058 -1.14631e-05 0)
(0.100059 -1.12555e-05 0)
(0.100059 -1.13364e-05 0)
(0.100059 -1.17127e-05 0)
(0.10006 -1.23979e-05 0)
(0.10006 -1.34264e-05 0)
(0.100061 -1.48112e-05 0)
(0.100062 -1.66075e-05 0)
(0.100063 -1.88514e-05 0)
(0.100064 -2.16023e-05 0)
(0.100065 -2.49364e-05 0)
(0.100067 -2.89275e-05 0)
(0.100069 -3.36952e-05 0)
(0.100072 -3.93488e-05 0)
(0.100076 -4.60522e-05 0)
(0.100081 -5.39766e-05 0)
(0.100086 -6.33636e-05 0)
(0.100095 -7.42979e-05 0)
(0.100097 -8.78225e-05 0)
(0.100135 -0.000101407 0)
(0.100069 -0.000124812 0)
(0.100308 -0.000131283 0)
(0.0998647 -0.000186559 0)
(0.100725 -0.000158805 0)
(0.0997561 -0.000245623 0)
(0.100763 -0.000232745 0)
(0.0999416 -0.000461339 0)
(0.0999464 -0.000436919 0)
(0.0999513 -0.000413355 0)
(0.0999562 -0.000390642 0)
(0.0999611 -0.000368771 0)
(0.099966 -0.000347733 0)
(0.0999709 -0.000327518 0)
(0.0999757 -0.000308113 0)
(0.0999804 -0.000289506 0)
(0.0999851 -0.000271685 0)
(0.0999897 -0.000254636 0)
(0.0999942 -0.000238341 0)
(0.0999985 -0.000222788 0)
(0.100003 -0.000207959 0)
(0.100007 -0.000193837 0)
(0.100011 -0.000180406 0)
(0.100015 -0.000167647 0)
(0.100018 -0.000155542 0)