/*--------------------------------*- C++ -*----------------------------------*\
| =========                 |                                                 |
| \\      /  F ield         | OpenFOAM: The Open Source CFD Toolbox           |
|  \\    /   O peration     | Version:  2412                                  |
|   \\  /    A nd           | Website:  www.openfoam.com                      |
|    \\/     M anipulation  |                                                 |
\*---------------------------------------------------------------------------*/
FoamFile
{
    version     2.0;
    format      ascii;
    arch        "LSB;label=32;scalar=64";
    class       volVectorField;
    location    "15.5";
    object      U;
}
// * * * * * * * * * * * * * * * * * * * * * * * * * * * * * * * * * * * * * //

dimensions      [0 1 -1 0 0 0 0];

internalField   nonuniform List<vector> 
5285
(
(0.0988179 -1.51656e-05 0)
(0.0988885 -1.42226e-05 0)
(0.098956 -1.33279e-05 0)
(0.0990204 -1.248e-05 0)
(0.099082 -1.16774e-05 0)
(0.0991407 -1.09185e-05 0)
(0.0991968 -1.02014e-05 0)
(0.0992501 -9.52428e-06 0)
(0.099301 -8.88531e-06 0)
(0.0993493 -8.28261e-06 0)
(0.0993953 -7.71441e-06 0)
(0.099439 -7.17901e-06 0)
(0.0994804 -6.67482e-06 0)
(0.0995197 -6.20035e-06 0)
(0.099557 -5.75419e-06 0)
(0.0995923 -5.33499e-06 0)
(0.0996256 -4.94139e-06 0)
(0.0996571 -4.57203e-06 0)
(0.0996869 -4.22556e-06 0)
(0.0997149 -3.90068e-06 0)
(0.0997413 -3.59623e-06 0)
(0.0997661 -3.31122e-06 0)
(0.0997894 -3.04481e-06 0)
(0.0998113 -2.79621e-06 0)
(0.0998318 -2.56453e-06 0)
(0.0998509 -2.34873e-06 0)
(0.0998688 -2.14764e-06 0)
(0.0998855 -1.96005e-06 0)
(0.099901 -1.78507e-06 0)
(0.0999154 -1.62216e-06 0)
(0.0999288 -1.4711e-06 0)
(0.0999412 -1.3317e-06 0)
(0.0999527 -1.20369e-06 0)
(0.0999632 -1.08646e-06 0)
(0.0999729 -9.7914e-07 0)
(0.0999819 -8.80752e-07 0)
(0.09999 -7.90486e-07 0)
(0.0999975 -7.076e-07 0)
(0.100004 -6.31628e-07 0)
(0.100011 -5.62386e-07 0)
(0.100016 -4.99735e-07 0)
(0.100021 -4.43576e-07 0)
(0.100026 -3.93606e-07 0)
(0.10003 -3.49258e-07 0)
(0.100034 -3.09928e-07 0)
(0.100038 -2.75357e-07 0)
(0.100041 -2.45105e-07 0)
(0.100044 -2.19994e-07 0)
(0.100046 -1.98488e-07 0)
(0.100049 -1.83563e-07 0)
(0.100052 -1.69917e-07 0)
(0.100053 -1.66466e-07 0)
(0.100057 -1.58607e-07 0)
(0.100056 -1.6825e-07 0)
(0.100063 -1.62539e-07 0)
(0.100059 -1.90764e-07 0)
(0.100071 -1.84046e-07 0)
(0.100062 -2.36898e-07 0)
(0.100081 -2.26179e-07 0)
(0.100064 -3.08906e-07 0)
(0.100096 -2.97241e-07 0)
(0.100068 -4.05866e-07 0)
(0.100114 -4.09051e-07 0)
(0.100077 -5.34966e-07 0)
(0.100134 -5.59434e-07 0)
(0.100095 -7.32416e-07 0)
(0.10016 -7.00949e-07 0)
(0.100121 -9.8299e-07 0)
(0.100192 -1.10804e-06 0)
(0.100164 -7.07749e-07 0)
(0.100216 -1.36179e-06 0)
(0.0988187 -4.54796e-05 0)
(0.0988892 -4.26564e-05 0)
(0.0989566 -3.99777e-05 0)
(0.0990211 -3.74389e-05 0)
(0.0990826 -3.50356e-05 0)
(0.0991413 -3.27628e-05 0)
(0.0991973 -3.06153e-05 0)
(0.0992506 -2.85878e-05 0)
(0.0993014 -2.66747e-05 0)
(0.0993497 -2.48705e-05 0)
(0.0993957 -2.317e-05 0)
(0.0994393 -2.15679e-05 0)
(0.0994807 -2.00594e-05 0)
(0.09952 -1.86398e-05 0)
(0.0995572 -1.73047e-05 0)
(0.0995925 -1.60499e-05 0)
(0.0996258 -1.48711e-05 0)
(0.0996573 -1.37645e-05 0)
(0.099687 -1.27261e-05 0)
(0.0997151 -1.17525e-05 0)
(0.0997414 -1.084e-05 0)
(0.0997662 -9.98578e-06 0)
(0.0997895 -9.18682e-06 0)
(0.0998114 -8.44042e-06 0)
(0.0998319 -7.74388e-06 0)
(0.099851 -7.09443e-06 0)
(0.0998689 -6.48924e-06 0)
(0.0998856 -5.92557e-06 0)
(0.0999011 -5.401e-06 0)
(0.0999155 -4.91356e-06 0)
(0.0999289 -4.46163e-06 0)
(0.0999413 -4.04371e-06 0)
(0.0999527 -3.6583e-06 0)
(0.0999633 -3.30363e-06 0)
(0.099973 -2.97775e-06 0)
(0.0999819 -2.67867e-06 0)
(0.0999901 -2.40453e-06 0)
(0.0999976 -2.15362e-06 0)
(0.100004 -1.92452e-06 0)
(0.100011 -1.71622e-06 0)
(0.100016 -1.52776e-06 0)
(0.100021 -1.35828e-06 0)
(0.100026 -1.20673e-06 0)
(0.10003 -1.07208e-06 0)
(0.100034 -9.52915e-07 0)
(0.100038 -8.49045e-07 0)
(0.100041 -7.58451e-07 0)
(0.100044 -6.83512e-07 0)
(0.100046 -6.18783e-07 0)
(0.100049 -5.73269e-07 0)
(0.100052 -5.30936e-07 0)
(0.100053 -5.18117e-07 0)
(0.100057 -4.92155e-07 0)
(0.100056 -5.19095e-07 0)
(0.100063 -5.00034e-07 0)
(0.100059 -5.82145e-07 0)
(0.100071 -5.59526e-07 0)
(0.100062 -7.15766e-07 0)
(0.100081 -6.81635e-07 0)
(0.100064 -9.26602e-07 0)
(0.100096 -8.91276e-07 0)
(0.100068 -1.21633e-06 0)
(0.100114 -1.22447e-06 0)
(0.100078 -1.60098e-06 0)
(0.100134 -1.67643e-06 0)
(0.100095 -2.19177e-06 0)
(0.10016 -2.09678e-06 0)
(0.100121 -2.9356e-06 0)
(0.100192 -3.30766e-06 0)
(0.100164 -2.12016e-06 0)
(0.100217 -4.06466e-06 0)
(0.0988203 -7.57559e-05 0)
(0.0988907 -7.1055e-05 0)
(0.098958 -6.65948e-05 0)
(0.0990223 -6.23677e-05 0)
(0.0990837 -5.83662e-05 0)
(0.0991424 -5.45819e-05 0)
(0.0991983 -5.10063e-05 0)
(0.0992515 -4.76305e-05 0)
(0.0993022 -4.44452e-05 0)
(0.0993505 -4.14413e-05 0)
(0.0993964 -3.861e-05 0)
(0.09944 -3.59427e-05 0)
(0.0994813 -3.34313e-05 0)
(0.0995206 -3.10678e-05 0)
(0.0995578 -2.88449e-05 0)
(0.099593 -2.67554e-05 0)
(0.0996263 -2.47924e-05 0)
(0.0996577 -2.29494e-05 0)
(0.0996874 -2.12199e-05 0)
(0.0997154 -1.95981e-05 0)
(0.0997417 -1.80784e-05 0)
(0.0997665 -1.66554e-05 0)
(0.0997898 -1.53244e-05 0)
(0.0998116 -1.40807e-05 0)
(0.0998321 -1.29197e-05 0)
(0.0998512 -1.18369e-05 0)
(0.0998691 -1.0828e-05 0)
(0.0998857 -9.88853e-06 0)
(0.0999012 -9.01466e-06 0)
(0.0999157 -8.20294e-06 0)
(0.099929 -7.45038e-06 0)
(0.0999414 -6.75416e-06 0)
(0.0999528 -6.11152e-06 0)
(0.0999634 -5.51957e-06 0)
(0.0999731 -4.9753e-06 0)
(0.099982 -4.47564e-06 0)
(0.0999902 -4.01775e-06 0)
(0.0999976 -3.59892e-06 0)
(0.100004 -3.21681e-06 0)
(0.100011 -2.86953e-06 0)
(0.100016 -2.55534e-06 0)
(0.100021 -2.27261e-06 0)
(0.100026 -2.01953e-06 0)
(0.10003 -1.79465e-06 0)
(0.100034 -1.59569e-06 0)
(0.100038 -1.42256e-06 0)
(0.100041 -1.27166e-06 0)
(0.100044 -1.14693e-06 0)
(0.100047 -1.03901e-06 0)
(0.100049 -9.62926e-07 0)
(0.100052 -8.91921e-07 0)
(0.100053 -8.69747e-07 0)
(0.100057 -8.25691e-07 0)
(0.100057 -8.69944e-07 0)
(0.100063 -8.37543e-07 0)
(0.100059 -9.73556e-07 0)
(0.100071 -9.35022e-07 0)
(0.100062 -1.19468e-06 0)
(0.100082 -1.13709e-06 0)
(0.100064 -1.54438e-06 0)
(0.100096 -1.4853e-06 0)
(0.100069 -2.02686e-06 0)
(0.100114 -2.04009e-06 0)
(0.100078 -2.66646e-06 0)
(0.100134 -2.79587e-06 0)
(0.100095 -3.6455e-06 0)
(0.100159 -3.50551e-06 0)
(0.100121 -4.87323e-06 0)
(0.100192 -5.51102e-06 0)
(0.100164 -3.56099e-06 0)
(0.100217 -6.75595e-06 0)
(0.0988227 -0.000105969 0)
(0.0988929 -9.93947e-05 0)
(0.0989601 -9.31574e-05 0)
(0.0990242 -8.72464e-05 0)
(0.0990855 -8.16508e-05 0)
(0.099144 -7.63591e-05 0)
(0.0991997 -7.13592e-05 0)
(0.0992529 -6.66385e-05 0)
(0.0993035 -6.21842e-05 0)
(0.0993516 -5.79836e-05 0)
(0.0993974 -5.40243e-05 0)
(0.0994409 -5.02943e-05 0)
(0.0994822 -4.67821e-05 0)
(0.0995214 -4.34768e-05 0)
(0.0995585 -4.03679e-05 0)
(0.0995937 -3.74454e-05 0)
(0.0996269 -3.46997e-05 0)
(0.0996583 -3.21216e-05 0)
(0.0996879 -2.97023e-05 0)
(0.0997159 -2.74336e-05 0)
(0.0997422 -2.53075e-05 0)
(0.0997669 -2.33168e-05 0)
(0.0997902 -2.14545e-05 0)
(0.099812 -1.97142e-05 0)
(0.0998324 -1.80895e-05 0)
(0.0998515 -1.65741e-05 0)
(0.0998694 -1.51619e-05 0)
(0.099886 -1.38472e-05 0)
(0.0999015 -1.26245e-05 0)
(0.0999159 -1.14889e-05 0)
(0.0999292 -1.04361e-05 0)
(0.0999416 -9.46195e-06 0)
(0.099953 -8.5624e-06 0)
(0.0999635 -7.73346e-06 0)
(0.0999732 -6.97103e-06 0)
(0.0999821 -6.27103e-06 0)
(0.0999903 -5.62959e-06 0)
(0.0999978 -5.04302e-06 0)
(0.100005 -4.50805e-06 0)
(0.100011 -4.02195e-06 0)
(0.100016 -3.58215e-06 0)
(0.100022 -3.18629e-06 0)
(0.100026 -2.8318e-06 0)
(0.10003 -2.51677e-06 0)
(0.100034 -2.2381e-06 0)
(0.100038 -1.99579e-06 0)
(0.100041 -1.78464e-06 0)
(0.100044 -1.61017e-06 0)
(0.100047 -1.4591e-06 0)
(0.100049 -1.35249e-06 0)
(0.100052 -1.25283e-06 0)
(0.100053 -1.22133e-06 0)
(0.100057 -1.15918e-06 0)
(0.100057 -1.2208e-06 0)
(0.100063 -1.17503e-06 0)
(0.10006 -1.36504e-06 0)
(0.100071 -1.31049e-06 0)
(0.100062 -1.67372e-06 0)
(0.100082 -1.59248e-06 0)
(0.100064 -2.16234e-06 0)
(0.100096 -2.07923e-06 0)
(0.100069 -2.83757e-06 0)
(0.100114 -2.85596e-06 0)
(0.100078 -3.73111e-06 0)
(0.100134 -3.91924e-06 0)
(0.100095 -5.09009e-06 0)
(0.100159 -4.93516e-06 0)
(0.100122 -6.78656e-06 0)
(0.100191 -7.72054e-06 0)
(0.100165 -5.04778e-06 0)
(0.100217 -9.42852e-06 0)
(0.0988259 -0.000136094 0)
(0.0988959 -0.000127652 0)
(0.0989628 -0.000119644 0)
(0.0990268 -0.000112055 0)
(0.0990878 -0.000104871 0)
(0.0991461 -9.80777e-05 0)
(0.0992017 -9.16587e-05 0)
(0.0992547 -8.5598e-05 0)
(0.0993052 -7.98792e-05 0)
(0.0993532 -7.4486e-05 0)
(0.0993988 -6.94024e-05 0)
(0.0994422 -6.46131e-05 0)
(0.0994834 -6.01033e-05 0)
(0.0995225 -5.58591e-05 0)
(0.0995595 -5.18668e-05 0)
(0.0995946 -4.81137e-05 0)
(0.0996277 -4.45874e-05 0)
(0.0996591 -4.12762e-05 0)
(0.0996887 -3.81688e-05 0)
(0.0997165 -3.52547e-05 0)
(0.0997428 -3.25237e-05 0)
(0.0997675 -2.99665e-05 0)
(0.0997907 -2.75743e-05 0)
(0.0998125 -2.53385e-05 0)
(0.0998328 -2.32509e-05 0)
(0.0998519 -2.13037e-05 0)
(0.0998697 -1.94892e-05 0)
(0.0998863 -1.77999e-05 0)
(0.0999018 -1.6229e-05 0)
(0.0999161 -1.47702e-05 0)
(0.0999295 -1.34176e-05 0)
(0.0999418 -1.2166e-05 0)
(0.0999532 -1.101e-05 0)
(0.0999637 -9.94443e-06 0)
(0.0999734 -8.9642e-06 0)
(0.0999823 -8.06417e-06 0)
(0.0999905 -7.23946e-06 0)
(0.0999979 -6.4854e-06 0)
(0.100005 -5.7978e-06 0)
(0.100011 -5.17309e-06 0)
(0.100017 -4.60786e-06 0)
(0.100022 -4.09905e-06 0)
(0.100026 -3.64329e-06 0)
(0.100031 -3.23825e-06 0)
(0.100034 -2.87998e-06 0)
(0.100038 -2.56858e-06 0)
(0.100041 -2.29726e-06 0)
(0.100044 -2.07313e-06 0)
(0.100047 -1.87896e-06 0)
(0.100049 -1.74192e-06 0)
(0.100052 -1.61358e-06 0)
(0.100053 -1.57289e-06 0)
(0.100057 -1.49252e-06 0)
(0.100057 -1.57176e-06 0)
(0.100063 -1.51232e-06 0)
(0.10006 -1.7568e-06 0)
(0.100071 -1.68562e-06 0)
(0.100062 -2.15322e-06 0)
(0.100082 -2.04734e-06 0)
(0.100064 -2.78095e-06 0)
(0.100096 -2.67255e-06 0)
(0.100069 -3.64888e-06 0)
(0.100114 -3.67181e-06 0)
(0.100078 -4.79482e-06 0)
(0.100135 -5.04779e-06 0)
(0.100095 -6.52231e-06 0)
(0.100159 -6.39309e-06 0)
(0.100123 -8.66705e-06 0)
(0.10019 -9.93876e-06 0)
(0.100166 -6.59586e-06 0)
(0.100218 -1.20762e-05 0)
(0.0988299 -0.000166106 0)
(0.0988996 -0.000155804 0)
(0.0989662 -0.000146033 0)
(0.0990299 -0.000136774 0)
(0.0990907 -0.000128009 0)
(0.0991488 -0.000119721 0)
(0.0992042 -0.00011189 0)
(0.099257 -0.000104495 0)
(0.0993073 -9.75178e-05 0)
(0.0993551 -9.09372e-05 0)
(0.0994006 -8.47342e-05 0)
(0.0994439 -7.889e-05 0)
(0.0994849 -7.33867e-05 0)
(0.0995239 -6.82071e-05 0)
(0.0995608 -6.33348e-05 0)
(0.0995957 -5.8754e-05 0)
(0.0996288 -5.44499e-05 0)
(0.09966 -5.0408e-05 0)
(0.0996895 -4.66148e-05 0)
(0.0997174 -4.30573e-05 0)
(0.0997435 -3.97233e-05 0)
(0.0997682 -3.66013e-05 0)
(0.0997913 -3.36806e-05 0)
(0.099813 -3.09506e-05 0)
(0.0998334 -2.84015e-05 0)
(0.0998524 -2.60236e-05 0)
(0.0998702 -2.38077e-05 0)
(0.0998867 -2.17448e-05 0)
(0.0999021 -1.98265e-05 0)
(0.0999165 -1.80452e-05 0)
(0.0999298 -1.63936e-05 0)
(0.0999421 -1.48651e-05 0)
(0.0999535 -1.34532e-05 0)
(0.099964 -1.21516e-05 0)
(0.0999736 -1.0954e-05 0)
(0.0999825 -9.85435e-06 0)
(0.0999907 -8.84673e-06 0)
(0.0999981 -7.92552e-06 0)
(0.100005 -7.08559e-06 0)
(0.100011 -6.32253e-06 0)
(0.100017 -5.63212e-06 0)
(0.100022 -5.01056e-06 0)
(0.100026 -4.45373e-06 0)
(0.100031 -3.95885e-06 0)
(0.100035 -3.52113e-06 0)
(0.100038 -3.14078e-06 0)
(0.100041 -2.80938e-06 0)
(0.100044 -2.53572e-06 0)
(0.100047 -2.29847e-06 0)
(0.100049 -2.13114e-06 0)
(0.100052 -1.97405e-06 0)
(0.100053 -1.92441e-06 0)
(0.100057 -1.82556e-06 0)
(0.100057 -1.9229e-06 0)
(0.100063 -1.8492e-06 0)
(0.10006 -2.14902e-06 0)
(0.100071 -2.0601e-06 0)
(0.100062 -2.6335e-06 0)
(0.100082 -2.50123e-06 0)
(0.100065 -3.4006e-06 0)
(0.100096 -3.26476e-06 0)
(0.100069 -4.46114e-06 0)
(0.100114 -4.48735e-06 0)
(0.100078 -5.85745e-06 0)
(0.100135 -6.18255e-06 0)
(0.100095 -7.93935e-06 0)
(0.100159 -7.88545e-06 0)
(0.100123 -1.05076e-05 0)
(0.100189 -1.21679e-05 0)
(0.100167 -8.21808e-06 0)
(0.100218 -1.46938e-05 0)
(0.0988347 -0.000195979 0)
(0.098904 -0.000183827 0)
(0.0989703 -0.000172302 0)
(0.0990337 -0.000161383 0)
(0.0990942 -0.000151047 0)
(0.099152 -0.000141273 0)
(0.0992071 -0.000132038 0)
(0.0992597 -0.000123317 0)
(0.0993097 -0.000115088 0)
(0.0993574 -0.000107326 0)
(0.0994027 -0.000100009 0)
(0.0994458 -9.31157e-05 0)
(0.0994867 -8.66237e-05 0)
(0.0995255 -8.05132e-05 0)
(0.0995623 -7.47649e-05 0)
(0.0995971 -6.93602e-05 0)
(0.0996301 -6.42815e-05 0)
(0.0996612 -5.9512e-05 0)
(0.0996906 -5.50357e-05 0)
(0.0997183 -5.08373e-05 0)
(0.0997444 -4.69025e-05 0)
(0.099769 -4.32178e-05 0)
(0.0997921 -3.97703e-05 0)
(0.0998137 -3.65479e-05 0)
(0.099834 -3.35388e-05 0)
(0.099853 -3.07316e-05 0)
(0.0998707 -2.81155e-05 0)
(0.0998872 -2.56801e-05 0)
(0.0999026 -2.34155e-05 0)
(0.0999169 -2.13126e-05 0)
(0.0999301 -1.93628e-05 0)
(0.0999424 -1.75582e-05 0)
(0.0999538 -1.58911e-05 0)
(0.0999643 -1.4354e-05 0)
(0.0999739 -1.29396e-05 0)
(0.0999827 -1.16408e-05 0)
(0.0999909 -1.04508e-05 0)
(0.0999983 -9.3628e-06 0)
(0.100005 -8.37091e-06 0)
(0.100011 -7.46983e-06 0)
(0.100017 -6.65453e-06 0)
(0.100022 -5.92048e-06 0)
(0.100027 -5.26283e-06 0)
(0.100031 -4.67831e-06 0)
(0.100035 -4.16134e-06 0)
(0.100038 -3.71217e-06 0)
(0.100041 -3.32086e-06 0)
(0.100044 -2.99771e-06 0)
(0.100047 -2.71761e-06 0)
(0.100049 -2.51987e-06 0)
(0.100052 -2.33442e-06 0)
(0.100053 -2.27538e-06 0)
(0.100057 -2.15886e-06 0)
(0.100057 -2.27323e-06 0)
(0.100063 -2.18687e-06 0)
(0.10006 -2.53995e-06 0)
(0.100071 -2.43601e-06 0)
(0.100062 -3.11184e-06 0)
(0.100082 -2.95711e-06 0)
(0.100065 -4.01792e-06 0)
(0.100096 -3.85909e-06 0)
(0.100069 -5.27122e-06 0)
(0.100114 -5.30503e-06 0)
(0.100078 -6.91711e-06 0)
(0.100135 -7.3248e-06 0)
(0.100096 -9.33979e-06 0)
(0.100159 -9.41513e-06 0)
(0.100124 -1.23053e-05 0)
(0.100188 -1.44071e-05 0)
(0.100168 -9.92664e-06 0)
(0.100219 -1.72758e-05 0)
(0.0988403 -0.000226401 0)
(0.0989092 -0.000212366 0)
(0.0989751 -0.000199058 0)
(0.0990381 -0.00018645 0)
(0.0990983 -0.000174517 0)
(0.0991558 -0.000163232 0)
(0.0992106 -0.000152568 0)
(0.0992629 -0.000142498 0)
(0.0993127 -0.000132996 0)
(0.0993601 -0.000124033 0)
(0.0994052 -0.000115583 0)
(0.0994481 -0.000107621 0)
(0.0994888 -0.000100122 0)
(0.0995274 -9.30638e-05 0)
(0.0995641 -8.64232e-05 0)
(0.0995987 -8.01792e-05 0)
(0.0996316 -7.43115e-05 0)
(0.0996626 -6.88005e-05 0)
(0.0996919 -6.36279e-05 0)
(0.0997195 -5.87763e-05 0)
(0.0997455 -5.4229e-05 0)
(0.0997699 -4.99706e-05 0)
(0.0997929 -4.5986e-05 0)
(0.0998145 -4.22613e-05 0)
(0.0998347 -3.87829e-05 0)
(0.0998536 -3.55378e-05 0)
(0.0998713 -3.25135e-05 0)
(0.0998877 -2.9698e-05 0)
(0.0999031 -2.708e-05 0)
(0.0999173 -2.46489e-05 0)
(0.0999306 -2.23948e-05 0)
(0.0999428 -2.03084e-05 0)
(0.0999541 -1.83808e-05 0)
(0.0999646 -1.66034e-05 0)
(0.0999742 -1.49677e-05 0)
(0.099983 -1.34656e-05 0)
(0.0999911 -1.20892e-05 0)
(0.0999985 -1.0831e-05 0)
(0.100005 -9.68395e-06 0)
(0.100011 -8.64194e-06 0)
(0.100017 -7.69912e-06 0)
(0.100022 -6.85021e-06 0)
(0.100027 -6.08961e-06 0)
(0.100031 -5.41354e-06 0)
(0.100035 -4.8157e-06 0)
(0.100038 -4.29614e-06 0)
(0.100041 -3.84387e-06 0)
(0.100044 -3.46979e-06 0)
(0.100047 -3.14659e-06 0)
(0.100049 -2.91672e-06 0)
(0.100052 -2.70406e-06 0)
(0.100053 -2.63273e-06 0)
(0.100057 -2.5023e-06 0)
(0.100057 -2.62816e-06 0)
(0.100063 -2.53729e-06 0)
(0.10006 -2.93357e-06 0)
(0.100071 -2.82896e-06 0)
(0.100062 -3.59151e-06 0)
(0.100082 -3.43511e-06 0)
(0.100065 -4.63751e-06 0)
(0.100096 -4.47979e-06 0)
(0.100069 -6.0891e-06 0)
(0.100114 -6.15179e-06 0)
(0.100078 -7.99414e-06 0)
(0.100135 -8.50399e-06 0)
(0.100096 -1.07573e-05 0)
(0.100158 -1.10177e-05 0)
(0.100125 -1.41058e-05 0)
(0.100187 -1.67041e-05 0)
(0.10017 -1.17776e-05 0)
(0.100219 -1.98765e-05 0)
(0.0988469 -0.000257328 0)
(0.0989153 -0.000241381 0)
(0.0989808 -0.000226263 0)
(0.0990434 -0.000211941 0)
(0.0991032 -0.000198387 0)
(0.0991603 -0.000185568 0)
(0.0992147 -0.000173455 0)
(0.0992667 -0.000162016 0)
(0.0993162 -0.00015122 0)
(0.0993633 -0.000141037 0)
(0.0994082 -0.000131436 0)
(0.0994508 -0.000122389 0)
(0.0994913 -0.000113867 0)
(0.0995297 -0.000105845 0)
(0.0995661 -9.82978e-05 0)
(0.0996006 -9.12002e-05 0)
(0.0996333 -8.45298e-05 0)
(0.0996642 -7.82645e-05 0)
(0.0996933 -7.23835e-05 0)
(0.0997208 -6.6867e-05 0)
(0.0997467 -6.16963e-05 0)
(0.0997711 -5.68536e-05 0)
(0.0997939 -5.23222e-05 0)
(0.0998154 -4.8086e-05 0)
(0.0998355 -4.41296e-05 0)
(0.0998544 -4.04383e-05 0)
(0.099872 -3.69981e-05 0)
(0.0998884 -3.37952e-05 0)
(0.0999036 -3.08171e-05 0)
(0.0999178 -2.80515e-05 0)
(0.099931 -2.54872e-05 0)
(0.0999432 -2.31136e-05 0)
(0.0999545 -2.09204e-05 0)
(0.0999649 -1.8898e-05 0)
(0.0999745 -1.70367e-05 0)
(0.0999833 -1.53273e-05 0)
(0.0999914 -1.37609e-05 0)
(0.0999987 -1.23291e-05 0)
(0.100005 -1.10238e-05 0)
(0.100012 -9.83802e-06 0)
(0.100017 -8.76515e-06 0)
(0.100022 -7.79908e-06 0)
(0.100027 -6.93352e-06 0)
(0.100031 -6.16403e-06 0)
(0.100035 -5.48378e-06 0)
(0.100038 -4.89229e-06 0)
(0.100041 -4.37805e-06 0)
(0.100044 -3.95164e-06 0)
(0.100047 -3.58517e-06 0)
(0.100049 -3.3214e-06 0)
(0.100052 -3.08282e-06 0)
(0.100053 -2.99615e-06 0)
(0.100057 -2.85587e-06 0)
(0.100057 -2.98725e-06 0)
(0.100063 -2.90067e-06 0)
(0.10006 -3.32921e-06 0)
(0.100071 -3.23942e-06 0)
(0.100062 -4.0715e-06 0)
(0.100082 -3.93596e-06 0)
(0.100065 -5.25818e-06 0)
(0.100096 -5.12763e-06 0)
(0.100069 -6.91365e-06 0)
(0.100114 -7.02823e-06 0)
(0.100078 -9.08758e-06 0)
(0.100135 -9.72117e-06 0)
(0.100096 -1.21893e-05 0)
(0.100158 -1.26985e-05 0)
(0.100126 -1.59033e-05 0)
(0.100186 -1.90604e-05 0)
(0.100171 -1.37844e-05 0)
(0.10022 -2.24903e-05 0)
(0.0988544 -0.000288019 0)
(0.0989223 -0.000270177 0)
(0.0989872 -0.000253266 0)
(0.0990493 -0.000237247 0)
(0.0991086 -0.000222087 0)
(0.0991653 -0.00020775 0)
(0.0992194 -0.000194201 0)
(0.0992709 -0.000181406 0)
(0.0993201 -0.000169329 0)
(0.0993669 -0.000157936 0)
(0.0994115 -0.000147194 0)
(0.0994538 -0.00013707 0)
(0.0994941 -0.000127534 0)
(0.0995323 -0.000118556 0)
(0.0995685 -0.000110108 0)
(0.0996028 -0.000102163 0)
(0.0996353 -9.46952e-05 0)
(0.099666 -8.76806e-05 0)
(0.0996949 -8.10958e-05 0)
(0.0997223 -7.49186e-05 0)
(0.0997481 -6.91282e-05 0)
(0.0997723 -6.37048e-05 0)
(0.0997951 -5.86296e-05 0)
(0.0998164 -5.38847e-05 0)
(0.0998365 -4.94529e-05 0)
(0.0998552 -4.53179e-05 0)
(0.0998727 -4.14638e-05 0)
(0.0998891 -3.78755e-05 0)
(0.0999043 -3.4539e-05 0)
(0.0999184 -3.14405e-05 0)
(0.0999315 -2.85675e-05 0)
(0.0999437 -2.59079e-05 0)
(0.0999549 -2.34504e-05 0)
(0.0999653 -2.11839e-05 0)
(0.0999748 -1.9098e-05 0)
(0.0999836 -1.71822e-05 0)
(0.0999916 -1.54266e-05 0)
(0.099999 -1.38218e-05 0)
(0.100006 -1.23589e-05 0)
(0.100012 -1.103e-05 0)
(0.100017 -9.82759e-06 0)
(0.100022 -8.74481e-06 0)
(0.100027 -7.77471e-06 0)
(0.100031 -6.91217e-06 0)
(0.100035 -6.14985e-06 0)
(0.100038 -5.48668e-06 0)
(0.100042 -4.91075e-06 0)
(0.100044 -4.43214e-06 0)
(0.100047 -4.02268e-06 0)
(0.100049 -3.72498e-06 0)
(0.100052 -3.46091e-06 0)
(0.100054 -3.35849e-06 0)
(0.100057 -3.20919e-06 0)
(0.100057 -3.34508e-06 0)
(0.100063 -3.26435e-06 0)
(0.10006 -3.72312e-06 0)
(0.100071 -3.65079e-06 0)
(0.100062 -4.54913e-06 0)
(0.100082 -4.43817e-06 0)
(0.100065 -5.87607e-06 0)
(0.100096 -5.77686e-06 0)
(0.100069 -7.73553e-06 0)
(0.100114 -7.90614e-06 0)
(0.100078 -1.0177e-05 0)
(0.100135 -1.0947e-05 0)
(0.100096 -1.36001e-05 0)
(0.100158 -1.44254e-05 0)
(0.100127 -1.76483e-05 0)
(0.100184 -2.14311e-05 0)
(0.100172 -1.58972e-05 0)
(0.10022 -2.50615e-05 0)
(0.0988627 -0.000318444 0)
(0.0989299 -0.000298728 0)
(0.0989943 -0.000280043 0)
(0.0990558 -0.000262346 0)
(0.0991146 -0.000245598 0)
(0.0991708 -0.000229758 0)
(0.0992245 -0.000214789 0)
(0.0992757 -0.000200652 0)
(0.0993245 -0.000187307 0)
(0.0993709 -0.000174716 0)
(0.0994151 -0.000162844 0)
(0.0994572 -0.000151654 0)
(0.0994972 -0.000141112 0)
(0.0995351 -0.000131186 0)
(0.0995711 -0.000121845 0)
(0.0996052 -0.00011306 0)
(0.0996374 -0.000104801 0)
(0.0996679 -9.70429e-05 0)
(0.0996968 -8.97594e-05 0)
(0.0997239 -8.29262e-05 0)
(0.0997496 -7.65204e-05 0)
(0.0997737 -7.05201e-05 0)
(0.0997963 -6.49046e-05 0)
(0.0998176 -5.96542e-05 0)
(0.0998375 -5.47499e-05 0)
(0.0998561 -5.01736e-05 0)
(0.0998736 -4.5908e-05 0)
(0.0998898 -4.19366e-05 0)
(0.099905 -3.82435e-05 0)
(0.099919 -3.4814e-05 0)
(0.0999321 -3.16338e-05 0)
(0.0999442 -2.86898e-05 0)
(0.0999554 -2.59692e-05 0)
(0.0999657 -2.346e-05 0)
(0.0999752 -2.11504e-05 0)
(0.0999839 -1.90292e-05 0)
(0.0999919 -1.70853e-05 0)
(0.0999992 -1.53084e-05 0)
(0.100006 -1.36886e-05 0)
(0.100012 -1.22172e-05 0)
(0.100018 -1.08858e-05 0)
(0.100023 -9.68687e-06 0)
(0.100027 -8.61269e-06 0)
(0.100031 -7.65752e-06 0)
(0.100035 -6.81349e-06 0)
(0.100038 -6.07896e-06 0)
(0.100042 -5.4416e-06 0)
(0.100044 -4.91104e-06 0)
(0.100047 -4.45874e-06 0)
(0.100049 -4.12736e-06 0)
(0.100052 -3.83777e-06 0)
(0.100054 -3.71998e-06 0)
(0.100057 -3.56136e-06 0)
(0.100057 -3.70239e-06 0)
(0.100063 -3.62674e-06 0)
(0.10006 -4.11688e-06 0)
(0.100071 -4.0605e-06 0)
(0.100062 -5.02698e-06 0)
(0.100082 -4.9382e-06 0)
(0.100065 -6.4945e-06 0)
(0.100096 -6.42349e-06 0)
(0.100069 -8.55783e-06 0)
(0.100114 -8.78238e-06 0)
(0.100078 -1.12641e-05 0)
(0.100135 -1.21804e-05 0)
(0.100096 -1.49895e-05 0)
(0.100157 -1.61983e-05 0)
(0.100128 -1.93406e-05 0)
(0.100183 -2.38194e-05 0)
(0.100173 -1.811e-05 0)
(0.100221 -2.75938e-05 0)
(0.0988718 -0.000348577 0)
(0.0989383 -0.000327008 0)
(0.0990021 -0.000306572 0)
(0.099063 -0.000287217 0)
(0.0991213 -0.0002689 0)
(0.099177 -0.000251577 0)
(0.0992301 -0.000235205 0)
(0.0992809 -0.00021974 0)
(0.0993292 -0.000205141 0)
(0.0993753 -0.000191366 0)
(0.0994192 -0.000178375 0)
(0.0994609 -0.00016613 0)
(0.0995006 -0.000154592 0)
(0.0995382 -0.000143728 0)
(0.0995739 -0.000133502 0)
(0.0996078 -0.000123884 0)
(0.0996398 -0.000114841 0)
(0.0996701 -0.000106345 0)
(0.0996988 -9.83689e-05 0)
(0.0997258 -9.08849e-05 0)
(0.0997512 -8.38683e-05 0)
(0.0997752 -7.72954e-05 0)
(0.0997977 -7.11435e-05 0)
(0.0998188 -6.5391e-05 0)
(0.0998386 -6.00174e-05 0)
(0.0998572 -5.50028e-05 0)
(0.0998745 -5.03284e-05 0)
(0.0998906 -4.59761e-05 0)
(0.0999057 -4.19287e-05 0)
(0.0999197 -3.817e-05 0)
(0.0999327 -3.46845e-05 0)
(0.0999447 -3.14576e-05 0)
(0.0999558 -2.84755e-05 0)
(0.0999661 -2.57249e-05 0)
(0.0999755 -2.3193e-05 0)
(0.0999842 -2.08674e-05 0)
(0.0999922 -1.87362e-05 0)
(0.0999994 -1.67879e-05 0)
(0.100006 -1.50121e-05 0)
(0.100012 -1.33989e-05 0)
(0.100018 -1.19392e-05 0)
(0.100023 -1.06246e-05 0)
(0.100027 -9.44692e-06 0)
(0.100031 -8.3996e-06 0)
(0.100035 -7.47425e-06 0)
(0.100039 -6.66872e-06 0)
(0.100042 -5.97021e-06 0)
(0.100044 -5.388e-06 0)
(0.100047 -4.89304e-06 0)
(0.100049 -4.52822e-06 0)
(0.100052 -4.21317e-06 0)
(0.100054 -4.08027e-06 0)
(0.100057 -3.91219e-06 0)
(0.100057 -4.05879e-06 0)
(0.100063 -3.98775e-06 0)
(0.10006 -4.51e-06 0)
(0.100071 -4.46857e-06 0)
(0.100062 -5.50444e-06 0)
(0.100082 -5.43611e-06 0)
(0.100065 -7.11277e-06 0)
(0.100096 -7.06756e-06 0)
(0.100069 -9.37991e-06 0)
(0.100114 -9.65673e-06 0)
(0.100078 -1.23484e-05 0)
(0.100134 -1.34203e-05 0)
(0.100096 -1.63586e-05 0)
(0.100157 -1.80139e-05 0)
(0.100129 -2.09842e-05 0)
(0.100182 -2.62249e-05 0)
(0.100174 -2.04164e-05 0)
(0.100221 -3.00909e-05 0)
(0.0988817 -0.000378389 0)
(0.0989475 -0.000354993 0)
(0.0990105 -0.000332829 0)
(0.0990709 -0.000311839 0)
(0.0991285 -0.000291975 0)
(0.0991836 -0.000273188 0)
(0.0992363 -0.00025543 0)
(0.0992865 -0.000238656 0)
(0.0993344 -0.000222819 0)
(0.0993801 -0.000207874 0)
(0.0994236 -0.000193777 0)
(0.099465 -0.000180488 0)
(0.0995043 -0.000167966 0)
(0.0995416 -0.000156172 0)
(0.0995771 -0.000145071 0)
(0.0996106 -0.000134628 0)
(0.0996424 -0.000124809 0)
(0.0996725 -0.000115582 0)
(0.0997009 -0.000106919 0)
(0.0997278 -9.87897e-05 0)
(0.099753 -9.11675e-05 0)
(0.0997768 -8.40265e-05 0)
(0.0997992 -7.73424e-05 0)
(0.0998202 -7.10918e-05 0)
(0.0998398 -6.52523e-05 0)
(0.0998583 -5.98026e-05 0)
(0.0998755 -5.47222e-05 0)
(0.0998915 -4.99917e-05 0)
(0.0999065 -4.55924e-05 0)
(0.0999204 -4.15066e-05 0)
(0.0999333 -3.77177e-05 0)
(0.0999453 -3.42098e-05 0)
(0.0999563 -3.09677e-05 0)
(0.0999665 -2.79772e-05 0)
(0.0999759 -2.52243e-05 0)
(0.0999845 -2.26955e-05 0)
(0.0999924 -2.03781e-05 0)
(0.0999997 -1.82596e-05 0)
(0.100006 -1.63285e-05 0)
(0.100012 -1.45743e-05 0)
(0.100018 -1.2987e-05 0)
(0.100023 -1.15575e-05 0)
(0.100027 -1.02768e-05 0)
(0.100031 -9.13789e-06 0)
(0.100035 -8.13167e-06 0)
(0.100039 -7.25554e-06 0)
(0.100042 -6.49621e-06 0)
(0.100044 -5.86264e-06 0)
(0.100047 -5.32524e-06 0)
(0.100049 -4.92722e-06 0)
(0.100052 -4.58683e-06 0)
(0.100053 -4.43903e-06 0)
(0.100057 -4.26149e-06 0)
(0.100057 -4.4139e-06 0)
(0.100063 -4.34727e-06 0)
(0.10006 -4.90198e-06 0)
(0.100071 -4.87496e-06 0)
(0.100062 -5.98087e-06 0)
(0.100082 -5.93193e-06 0)
(0.100065 -7.73011e-06 0)
(0.100096 -7.70904e-06 0)
(0.100069 -1.0201e-05 0)
(0.100114 -1.05289e-05 0)
(0.100078 -1.34296e-05 0)
(0.100134 -1.46657e-05 0)
(0.100096 -1.7709e-05 0)
(0.100156 -1.98673e-05 0)
(0.100129 -2.25849e-05 0)
(0.10018 -2.86471e-05 0)
(0.100175 -2.28076e-05 0)
(0.100221 -3.25577e-05 0)
(0.0988924 -0.000407852 0)
(0.0989574 -0.000382657 0)
(0.0990197 -0.000358791 0)
(0.0990793 -0.000336192 0)
(0.0991364 -0.000314804 0)
(0.0991909 -0.000294574 0)
(0.099243 -0.000275451 0)
(0.0992927 -0.000257385 0)
(0.0993401 -0.000240326 0)
(0.0993853 -0.000224226 0)
(0.0994284 -0.000209039 0)
(0.0994694 -0.000194719 0)
(0.0995083 -0.000181223 0)
(0.0995453 -0.000168511 0)
(0.0995805 -0.000156544 0)
(0.0996138 -0.000145285 0)
(0.0996453 -0.000134697 0)
(0.0996751 -0.000124748 0)
(0.0997033 -0.000115404 0)
(0.0997299 -0.000106636 0)
(0.099755 -9.84134e-05 0)
(0.0997786 -9.07095e-05 0)
(0.0998008 -8.34978e-05 0)
(0.0998216 -7.67531e-05 0)
(0.0998412 -7.04516e-05 0)
(0.0998595 -6.45701e-05 0)
(0.0998765 -5.90869e-05 0)
(0.0998925 -5.3981e-05 0)
(0.0999073 -4.92323e-05 0)
(0.0999212 -4.48219e-05 0)
(0.099934 -4.07317e-05 0)
(0.0999459 -3.69447e-05 0)
(0.0999568 -3.34445e-05 0)
(0.099967 -3.02157e-05 0)
(0.0999763 -2.72432e-05 0)
(0.0999849 -2.45126e-05 0)
(0.0999927 -2.20101e-05 0)
(0.0999999 -1.97223e-05 0)
(0.100007 -1.7637e-05 0)
(0.100012 -1.57427e-05 0)
(0.100018 -1.40286e-05 0)
(0.100023 -1.24849e-05 0)
(0.100027 -1.11019e-05 0)
(0.100031 -9.87185e-06 0)
(0.100035 -8.78526e-06 0)
(0.100039 -7.83896e-06 0)
(0.100042 -7.01917e-06 0)
(0.100044 -6.33458e-06 0)
(0.100047 -5.755e-06 0)
(0.100049 -5.32402e-06 0)
(0.100052 -4.95843e-06 0)
(0.100053 -4.79594e-06 0)
(0.100057 -4.60895e-06 0)
(0.100057 -4.7674e-06 0)
(0.100063 -4.70497e-06 0)
(0.10006 -5.29249e-06 0)
(0.100071 -5.27934e-06 0)
(0.100062 -6.45592e-06 0)
(0.100082 -6.4253e-06 0)
(0.100064 -8.34619e-06 0)
(0.100096 -8.34749e-06 0)
(0.100068 -1.10209e-05 0)
(0.100114 -1.13983e-05 0)
(0.100077 -1.45077e-05 0)
(0.100134 -1.59149e-05 0)
(0.100096 -1.90428e-05 0)
(0.100156 -2.17533e-05 0)
(0.100129 -2.41487e-05 0)
(0.100179 -3.10854e-05 0)
(0.100175 -2.52728e-05 0)
(0.100221 -3.50006e-05 0)
(0.0989039 -0.000436939 0)
(0.0989681 -0.000409975 0)
(0.0990296 -0.000384437 0)
(0.0990885 -0.000360255 0)
(0.0991448 -0.000337367 0)
(0.0991987 -0.000315718 0)
(0.0992501 -0.000295251 0)
(0.0992993 -0.000275913 0)
(0.0993462 -0.000257651 0)
(0.0993909 -0.000240413 0)
(0.0994335 -0.000224149 0)
(0.0994741 -0.000208812 0)
(0.0995127 -0.000194355 0)
(0.0995493 -0.000180737 0)
(0.0995841 -0.000167915 0)
(0.0996171 -0.000155849 0)
(0.0996484 -0.000144501 0)
(0.0996779 -0.000133836 0)
(0.0997059 -0.000123819 0)
(0.0997322 -0.000114418 0)
(0.0997571 -0.000105602 0)
(0.0997805 -9.73403e-05 0)
(0.0998025 -8.96058e-05 0)
(0.0998232 -8.23716e-05 0)
(0.0998426 -7.5612e-05 0)
(0.0998607 -6.93026e-05 0)
(0.0998777 -6.34199e-05 0)
(0.0998935 -5.79417e-05 0)
(0.0999083 -5.28464e-05 0)
(0.099922 -4.81139e-05 0)
(0.0999347 -4.37248e-05 0)
(0.0999465 -3.96607e-05 0)
(0.0999574 -3.59043e-05 0)
(0.0999675 -3.24389e-05 0)
(0.0999767 -2.92484e-05 0)
(0.0999852 -2.63174e-05 0)
(0.099993 -2.36311e-05 0)
(0.1 -2.11753e-05 0)
(0.100007 -1.89368e-05 0)
(0.100013 -1.69033e-05 0)
(0.100018 -1.50633e-05 0)
(0.100023 -1.34061e-05 0)
(0.100027 -1.19214e-05 0)
(0.100032 -1.06009e-05 0)
(0.100035 -9.43453e-06 0)
(0.100039 -8.41852e-06 0)
(0.100042 -7.53868e-06 0)
(0.100044 -6.80341e-06 0)
(0.100047 -6.18194e-06 0)
(0.100049 -5.71827e-06 0)
(0.100052 -5.32763e-06 0)
(0.100053 -5.15068e-06 0)
(0.100057 -4.95425e-06 0)
(0.100057 -5.11899e-06 0)
(0.100063 -5.06054e-06 0)
(0.10006 -5.68124e-06 0)
(0.100071 -5.68134e-06 0)
(0.100062 -6.92929e-06 0)
(0.100081 -6.91576e-06 0)
(0.100064 -8.96068e-06 0)
(0.100096 -8.98234e-06 0)
(0.100068 -1.18391e-05 0)
(0.100113 -1.2264e-05 0)
(0.100077 -1.55826e-05 0)
(0.100134 -1.71663e-05 0)
(0.100095 -2.03622e-05 0)
(0.100155 -2.36659e-05 0)
(0.100129 -2.56823e-05 0)
(0.100178 -3.35393e-05 0)
(0.100176 -2.78004e-05 0)
(0.100221 -3.74266e-05 0)
(0.0989163 -0.000465623 0)
(0.0989795 -0.000436924 0)
(0.0990402 -0.000409745 0)
(0.0990982 -0.000384008 0)
(0.0991538 -0.000359648 0)
(0.099207 -0.000336604 0)
(0.0992578 -0.000314816 0)
(0.0993064 -0.000294227 0)
(0.0993527 -0.00027478 0)
(0.0993969 -0.000256421 0)
(0.0994391 -0.000239097 0)
(0.0994792 -0.000222757 0)
(0.0995174 -0.000207354 0)
(0.0995536 -0.000192841 0)
(0.0995881 -0.000179174 0)
(0.0996207 -0.000166312 0)
(0.0996517 -0.000154213 0)
(0.0996809 -0.000142841 0)
(0.0997086 -0.000132159 0)
(0.0997348 -0.000122132 0)
(0.0997594 -0.000112728 0)
(0.0997826 -0.000103915 0)
(0.0998044 -9.56628e-05 0)
(0.0998249 -8.79438e-05 0)
(0.0998441 -8.07306e-05 0)
(0.0998621 -7.39971e-05 0)
(0.099879 -6.77186e-05 0)
(0.0998946 -6.18713e-05 0)
(0.0999093 -5.64325e-05 0)
(0.0999229 -5.13806e-05 0)
(0.0999355 -4.6695e-05 0)
(0.0999472 -4.23562e-05 0)
(0.099958 -3.83456e-05 0)
(0.099968 -3.46455e-05 0)
(0.0999772 -3.12387e-05 0)
(0.0999856 -2.81088e-05 0)
(0.0999934 -2.52401e-05 0)
(0.1 -2.26176e-05 0)