/*--------------------------------*- C++ -*----------------------------------*\
| =========                 |                                                 |
| \\      /  F ield         | OpenFOAM: The Open Source CFD Toolbox           |
|  \\    /   O peration     | Version:  2412                                  |
|   \\  /    A nd           | Website:  www.openfoam.com                      |
|    \\/     M anipulation  |                                                 |
\*---------------------------------------------------------------------------*/
FoamFile
{
    version     2.0;
    format      ascii;
    arch        "LSB;label=32;scalar=64";
    class       volScalarField;
    location    "26.5";
    object      p;
}
// * * * * * * * * * * * * * * * * * * * * * * * * * * * * * * * * * * * * * //

dimensions      [0 2 -2 0 0 0 0];

internalField   nonuniform List<scalar> 
5285
(
-0.000280857
-0.000295345
-0.000308785
-0.00032129
-0.000332845
-0.000343422
-0.000353017
-0.000361634
-0.000369277
-0.000375956
-0.000381683
-0.000386475
-0.000390352
-0.000393336
-0.000395453
-0.000396732
-0.000397201
-0.000396895
-0.000395847
-0.000394093
-0.000391669
-0.000388612
-0.00038496
-0.000380751
-0.000301855
-0.000316908
-0.000330696
-0.000343526
-0.000355362
-0.000366156
-0.000375902
-0.000384609
-0.000392282
-0.000398933
-0.000404575
-0.000409228
-0.000412914
-0.000415658
-0.000417488
-0.000418436
-0.000418534
-0.000417819
-0.000416328
-0.000414099
-0.000411173
-0.000407589
-0.000403388
-0.000398612
-0.000324002
-0.000339655
-0.000353794
-0.000366958
-0.000379085
-0.000390097
-0.000399993
-0.000408782
-0.000416475
-0.000423082
-0.00042862
-0.000433111
-0.000436579
-0.000439053
-0.000440564
-0.000441146
-0.000440836
-0.000439674
-0.000437699
-0.000434954
-0.000431483
-0.000427328
-0.000422535
-0.000417147
-0.00034737
-0.000363659
-0.000378162
-0.000391671
-0.000404095
-0.00041533
-0.000425371
-0.000434236
-0.000441934
-0.00044848
-0.000453892
-0.000458195
-0.000461416
-0.000463587
-0.000464742
-0.000464921
-0.000464163
-0.00046251
-0.000460007
-0.000456701
-0.000452638
-0.000447866
-0.000442432
-0.000436385
-0.000372046
-0.000389011
-0.00040389
-0.000417754
-0.000430485
-0.000441943
-0.000452125
-0.000461055
-0.000468743
-0.000475208
-0.000480469
-0.000484554
-0.000487496
-0.000489327
-0.000490089
-0.000489821
-0.00048857
-0.00048638
-0.000483302
-0.000479384
-0.000474679
-0.000469238
-0.000463112
-0.000456355
-0.000398126
-0.00041581
-0.000431078
-0.000445308
-0.000458353
-0.000470034
-0.000480352
-0.000489333
-0.000496995
-0.000503354
-0.000508436
-0.000512272
-0.000514897
-0.000516349
-0.000516672
-0.000515912
-0.000514118
-0.000511341
-0.000507634
-0.000503052
-0.000497651
-0.000491485
-0.000484612
-0.000477087
-0.000425719
-0.000444165
-0.000459834
-0.000474442
-0.000487806
-0.00049971
-0.000510155
-0.000519174
-0.000526787
-0.000533015
-0.000537887
-0.000541436
-0.000543703
-0.000544731
-0.000544568
-0.000543264
-0.000540874
-0.000537454
-0.000533061
-0.000527755
-0.000521597
-0.000514648
-0.000506967
-0.000498615
-0.00045494
-0.000474195
-0.000490277
-0.000505272
-0.000518963
-0.000531087
-0.000541648
-0.000550687
-0.000558228
-0.000564294
-0.000568918
-0.00057214
-0.000574004
-0.000574558
-0.000573855
-0.000571951
-0.000568906
-0.000564781
-0.00055964
-0.000553547
-0.000546568
-0.000538769
-0.000530215
-0.000520972
-0.000485918
-0.000506031
-0.000522538
-0.000537929
-0.000551951
-0.000564291
-0.000574954
-0.000583992
-0.000591433
-0.000597302
-0.000601639
-0.000604487
-0.000605896
-0.00060592
-0.000604618
-0.000602053
-0.000598288
-0.000593392
-0.000587433
-0.000580483
-0.000572613
-0.000563894
-0.000554397
-0.000544193
-0.000518793
-0.000539818
-0.000556758
-0.000572555
-0.00058691
-0.000599459
-0.000610208
-0.00061922
-0.000626527
-0.00063216
-0.000636163
-0.000638585
-0.000639482
-0.000638916
-0.00063695
-0.000633653
-0.000629098
-0.000623357
-0.000616507
-0.000608624
-0.000599787
-0.000590071
-0.000579555
-0.000568313
-0.000553721
-0.000575712
-0.000593096
-0.000609304
-0.000623994
-0.000636741
-0.000647556
-0.000656512
-0.000663648
-0.000668999
-0.000672615
-0.000674552
-0.000674874
-0.000673648
-0.000670946
-0.000666843
-0.000661419
-0.000654753
-0.00064693
-0.000638032
-0.000628144
-0.00061735
-0.000605731
-0.000593371
-0.000590871
-0.00061389
-0.000631723
-0.000648348
-0.00066337
-0.000676301
-0.000687156
-0.000696021
-0.00070294
-0.000707958
-0.000711128
-0.000712515
-0.000712191
-0.000710229
-0.000706711
-0.000701718
-0.000695339
-0.000687662
-0.000678776
-0.000668773
-0.000657744
-0.000645781
-0.000632971
-0.000619405
-0.000630434
-0.000654542
-0.00067283
-0.000689873
-0.000705222
-0.000718319
-0.000729183
-0.000737914
-0.000744567
-0.00074919
-0.000751847
-0.00075261
-0.000751559
-0.000748778
-0.000744354
-0.000738381
-0.000730953
-0.000722167
-0.000712122
-0.000700916
-0.000688649
-0.00067542
-0.000661323
-0.000646455
-0.000672619
-0.000697883
-0.000716627
-0.000734085
-0.000749751
-0.000762989
-0.000773824
-0.000782373
-0.000788699
-0.00079286
-0.000794927
-0.000794983
-0.000793116
-0.000789421
-0.000783995
-0.00077694
-0.000768359
-0.00075836
-0.000747049
-0.000734534
-0.000720923
-0.000706322
-0.000690834
-0.000674563
-0.000717659
-0.00074415
-0.000763345
-0.000781212
-0.000797179
-0.000810528
-0.000821287
-0.000829596
-0.000835526
-0.000839146
-0.000840536
-0.000839791
-0.000837009
-0.000832295
-0.000825758
-0.000817509
-0.000807662
-0.000796335
-0.000783643
-0.000769703
-0.000754633
-0.000738546
-0.000721555
-0.00070377
-0.000765816
-0.000793605
-0.000813243
-0.000831505
-0.000847752
-0.000861171
-0.0008718
-0.000879798
-0.000885254
-0.000888242
-0.000888857
-0.000887205
-0.000883397
-0.000877549
-0.000869779
-0.000860212
-0.000848975
-0.000836193
-0.000821994
-0.000806504
-0.00078985
-0.000772154
-0.000753538
-0.000734121
-0.000817379
-0.000846539
-0.000866603
-0.000885238
-0.000901733
-0.000915171
-0.000925601
-0.00093321
-0.000938096
-0.000940351
-0.00094008
-0.000937403
-0.000932444
-0.000925332
-0.000916202
-0.000905182
-0.000892416
-0.000878043
-0.000862199
-0.000845022
-0.000826648
-0.000807211
-0.000786839
-0.000765662
-0.000872666
-0.00090327
-0.000923732
-0.000942707
-0.000959406
-0.0009728
-0.000982951
-0.000990072
-0.000994283
-0.000995685
-0.000994401
-0.000990565
-0.000984317
-0.0009758
-0.000965161
-0.000952547
-0.000938104
-0.000921989
-0.000904352
-0.00088534
-0.0008651
-0.000843777
-0.000821508
-0.000798434
-0.00102912
-0.00101681
-0.00100244
-0.000986156
-0.000968137
-0.000948544
-0.000927537
-0.000905273
-0.000881909
-0.000857593
-0.000832474
-0.00016201
-0.000180953
-0.000199255
-0.000216892
-0.000233842
-0.000250084
-0.000265586
-0.000177595
-0.000197286
-0.000216331
-0.000234702
-0.000252378
-0.000269321
-0.00028548
-0.000193954
-0.00021445
-0.000234291
-0.000253447
-0.000271896
-0.000289584
-0.000306436
-0.000211137
-0.000232487
-0.000253175
-0.000273167
-0.000292443
-0.00031093
-0.000328526
-0.000229199
-0.000251458
-0.000273046
-0.000293931
-0.000314089
-0.000333432
-0.000351822
-0.0002482
-0.000271427
-0.000293978
-0.000315815
-0.000336917
-0.000357176
-0.000376415
-0.000268206
-0.000292468
-0.000316046
-0.000338901
-0.000361014
-0.000382254
-0.000402402
-0.000289289
-0.000314656
-0.000339333
-0.000363279
-0.000386474
-0.000408768
-0.000429889
-0.000311529
-0.000338078
-0.000363932
-0.000389046
-0.000413403
-0.000436829
-0.000458994
-0.000335011
-0.000362827
-0.000389942
-0.00041631
-0.000441915
-0.000466558
-0.000489843
-0.000359829
-0.000389004
-0.000417473
-0.000445188
-0.000472136
-0.000498091
-0.00052258
-0.000386089
-0.000416723
-0.000446647
-0.000475811
-0.000504204
-0.000531575
-0.000557359
-0.000413904
-0.000446107
-0.000477597
-0.000508322
-0.000538274
-0.000567175
-0.000594352
-0.0004434
-0.000477293
-0.000510471
-0.000542879
-0.000574516
-0.000605071
-0.000633752
-0.000474717
-0.000510433
-0.000545433
-0.000579659
-0.000613117
-0.000645467
-0.000675771
-0.000508009
-0.000545694
-0.000582665
-0.000618859
-0.00065429
-0.000688588
-0.000720649
-0.00054345
-0.000583266
-0.00062237
-0.000660698
-0.00069827
-0.000734687
-0.00076865
-0.000581229
-0.000623355
-0.000664773
-0.000705416
-0.000745313
-0.000784038
-0.000820069
-0.000621554
-0.000666187
-0.000710117
-0.000753275
-0.000795706
-0.000836952
-0.000875236
-0.000664653
-0.000712016
-1.4647e-05
-3.69986e-05
-5.89579e-05
-8.05334e-05
-0.000101679
-0.000122337
-0.00014246
-2.49062e-05
-4.80687e-05
-7.07529e-05
-9.30793e-05
-0.000114989
-0.000136409
-0.00015729
-3.56288e-05
-5.96449e-05
-8.30687e-05
-0.000106185
-0.000128911
-0.000151145
-0.000172839
-4.68358e-05
-7.18047e-05
-9.59939e-05
-0.00011993
-0.000143512
-0.000166609
-0.000189164
-5.85154e-05
-8.44022e-05
-0.000109541
-0.000134359
-0.000158834
-0.000182842
-0.000206313
-7.07569e-05
-9.77201e-05
-0.000123699
-0.00014948
-0.000174919
-0.000199898
-0.000224341
-8.35431e-05
-0.000111629
-0.000138556
-0.000165314
-0.000191809
-0.000217829
-0.000243309
-9.69147e-05
-0.000126201
-0.000154147
-0.000181969
-0.000209571
-0.000236695
-0.000263283
-0.000110915
-0.000141493
-0.000170524
-0.000199485
-0.000228269
-0.000256566
-0.000284338
-0.000125579
-0.000157549
-0.000187737
-0.000217908
-0.000247958
-0.000277515
-0.000306553
-0.000140945
-0.000174415
-0.000205841
-0.000237295
-0.000268648
-0.000299611
-0.000330013
-0.000157056
-0.000192147
-0.000224902
-0.000257742
-0.000290555
-0.000322958
-0.000354814
-0.000173957
-0.000210801
-0.000244985
-0.000279312
-0.000313679
-0.000347639
-0.000381059
-0.000191695
-0.000230441
-0.000266162
-0.000302087
-0.000338122
-0.000373762
-0.000408867
-0.000210324
-0.000251132
-0.000288514
-0.000326158
-0.000363992
-0.000401443
-0.000438364
-0.000229899
-0.000272952
-0.000312129
-0.000351628
-0.000391403
-0.000430811
-0.000469691
-0.000250479
-0.000295981
-0.000337104
-0.000378609
-0.000420483
-0.000462008
-0.000503006
-0.000272125
-0.0003203
-0.000363541
-0.00040722
-0.000451369
-0.000495187
-0.000538483
-0.000294903
-0.000346004
-0.000391548
-0.000437588
-0.000484208
-0.000530517
-0.000576304
-0.000568186
-0.000616684
0.00065325
0.000641682
0.000629586
0.00061695
0.000603766
0.000590024
0.000575717
0.000560839
0.000545384
0.000529351
0.000512738
0.000495547
0.000477781
0.000459447
0.000440552
0.000421107
0.000401128
0.000380631
0.000359636
0.000338167
0.00031625
0.000293916
0.000271197
0.000248131
0.000224756
0.000201116
0.000177258
0.000153229
0.000129081
0.000104869
8.0648e-05
5.64752e-05
3.2416e-05
8.55446e-06
0.000664359
0.000652712
0.000640511
0.000627745
0.000614402
0.000600473
0.000585947
0.000570817
0.000555078
0.000538725
0.000521756
0.000504171
0.000485973
0.000467167
0.00044776
0.000427763
0.000407191
0.000386059
0.00036439
0.000342205
0.000319534
0.000296407
0.000272859
0.000248928
0.000224656
0.000200089
0.000175276
0.000150269
0.000125122
9.98941e-05
7.46453e-05
4.94365e-05
2.43442e-05
-5.32184e-07
0.000675969
0.000664252
0.000651958
0.00063907
0.000625577
0.000611466
0.000596727
0.000581349
0.000565327
0.000548653
0.000531325
0.000513341
0.000494703
0.000475414
0.000455481
0.000434915
0.000413729
0.000391939
0.000369567
0.000346637
0.000323177
0.000299219
0.0002748
0.000249959
0.000224741
0.000199195
0.000173372
0.000147327
0.00012112
9.48128e-05
6.84701e-05
4.21564e-05
1.59595e-05
-1.00028e-05
0.000688099
0.000676327
0.00066395
0.000650952
0.000637318
0.000623034
0.000608087
0.000592467
0.000576164
0.00055917
0.000541481
0.000523094
0.000504007
0.000484225
0.000463753
0.000442601
0.00042078
0.000398309
0.000375207
0.000351498
0.000327213
0.000302384
0.00027705
0.000251251
0.000225035
0.000198454
0.000171561
0.000144417
0.000117084
8.96287e-05
6.21211e-05
3.46293e-05
7.25364e-06
-1.98681e-05
0.000700773
0.00068896
0.000676514
0.000663418
0.000649654
0.000635207
0.000620061
0.000604204
0.000587625
0.000570313
0.000552262
0.000533467
0.000513927
0.000493643
0.000472618
0.000450862
0.000428387
0.000405209
0.000381347
0.000356828
0.00033168
0.000305938
0.000279642
0.000252834
0.000225566
0.000197889
0.000169864
0.000141552
0.000113023
8.43462e-05
5.55973e-05
2.6849e-05
-1.78498e-06
-3.01439e-05
0.000714013
0.000702175
0.000689676
0.000676496
0.000662615
0.000648016
0.000632682
0.000616596
0.000599746
0.00058212
0.000563708
0.000544504
0.000524505
0.000503709
0.00048212
0.000459744
0.000436594
0.000412683
0.000388033
0.000362668
0.000336619
0.00030992
0.000282613
0.000254743
0.000226362
0.000197527
0.000168301
0.000138751
0.000108948
7.89709e-05
4.88982e-05
1.88081e-05
-1.11711e-05
-4.08552e-05
0.000727844
0.000715999
0.000703464
0.000690216
0.000676233
0.000661497
0.000645985
0.000629681
0.000612568
0.000594632
0.000575862
0.000556249
0.000535786
0.000514471
0.000492305
0.000469294
0.000445448
0.00042078
0.000395311
0.000369066
0.000342074
0.000314372
0.000286003
0.000257013
0.000227458
0.000197398
0.000166898
0.000136031
0.000104874
7.351e-05
4.20243e-05
1.05002e-05
-2.09176e-05
-5.20187e-05
0.000742289
0.000730457
0.000717905
0.000704608
0.000690541
0.000675682
0.000660008
0.000643497
0.000626131
0.000607894
0.00058877
0.000568747
0.000547818
0.000525978
0.000503226
0.000479564
0.000455002
0.000429553
0.000403234
0.000376072
0.000348096
0.000319343
0.000289856
0.000259687
0.000228892
0.000197533
0.000165683
0.000133416
0.000100816
6.79725e-05
3.49772e-05
1.91953e-06
-3.10384e-05
-6.36575e-05
0.000757371
0.000745575
0.000733029
0.000719703
0.000705572
0.000690609
0.000674788
0.000658086
0.00064048
0.00062195
0.000602478
0.000582051
0.000560656
0.000538285
0.000514937
0.000490611
0.000465313
0.000439057
0.000411858
0.000383741
0.000354737
0.000324883
0.000294224
0.000262811
0.000230704
0.000197971
0.000164686
0.00013093
9.67926e-05
6.2369e-05
2.77594e-05
-6.94042e-06
-4.15496e-05
-7.57989e-05
0.000773117
0.000761382
0.000748865
0.000735534
0.000721361
0.000706315
0.000690368
0.000673491
0.000655659
0.000636849
0.000617039
0.000596212
0.000574352
0.00055145
0.000527497
0.000502494
0.000476443
0.000449354
0.000421245
0.000392136
0.000362059
0.000331052
0.000299159
0.000266436
0.000232943
0.000198753
0.000163944
0.000128603
9.28245e-05
5.67126e-05
2.03749e-05
-1.60854e-05
-5.24672e-05
-8.84696e-05
0.000789551
0.000777904
0.000765443
0.000752134
0.000737944
0.00072284
0.000706787
0.000689757
0.000671717
0.000652643
0.000632507
0.000611288
0.000588968
0.000565532
0.000540971
0.000515279
0.000488457
0.000460513
0.000431461
0.000401322
0.000370126
0.000337911
0.000304723
0.000270618
0.000235661
0.000199926
0.000163497
0.000126467
8.8937e-05
5.10191e-05
1.28295e-05
-2.55202e-05
-6.38073e-05
-0.000101697
0.000806698
0.000795169
0.000782795
0.000769537
0.000755358
0.000740222
0.000724091
0.00070693
0.000688705
0.000669384
0.000648938
0.000627339
0.000604566
0.0005806
0.000555426
0.000529036
0.000501428
0.000472606
0.000442581
0.000411373
0.000379012
0.000345533
0.000310984
0.000275423
0.000238917
0.000201543
0.000163391
0.00012456
8.51591e-05
4.53074e-05
5.13126e-06
-3.52487e-05
-7.55861e-05
-0.00011551
0.000824582
0.000813205
0.00080095
0.000787776
0.000773642
0.000758505
0.000742325
0.000725061
0.000706675
0.00068713
0.000666392
0.000644429
0.000621214
0.000596722
0.000570936
0.000543842
0.000515433
0.000485711
0.000454684
0.000422369
0.000388793
0.000353993
0.000318016
0.00028092
0.000242775
0.000203664
0.000163679
0.000122927
8.15245e-05
3.96001e-05
-2.70931e-06
-4.52733e-05
-8.78201e-05
-0.000129941
0.000843227
0.000832039
0.000819941
0.000806887
0.000792832
0.00077773
0.000761534
0.000744199
0.000725682
0.00070594
0.000684934
0.000662626
0.000638982
0.000613975
0.000587579
0.000559777
0.000530557
0.000499916
0.000467858
0.000434398
0.00039956
0.000363378
0.000325901
0.000287188
0.000247311
0.000206355
0.00016442
0.000121617
7.80721e-05
3.39243e-05
-1.06786e-05
-5.55949e-05
-0.000100526
-0.000145022
0.000862659
0.000851699
0.000839798
0.000826904
0.000812968
0.000797939
0.000781766
0.000764397
0.000745783
0.000725876
0.000704629
0.000681999
0.000657947
0.000632438
0.00060544
0.00057693
0.000546891
0.000515313
0.000482198
0.000447555
0.000411405
0.000373782
0.000334732
0.000294315
0.000252606
0.000209692
0.000165679
0.000120686
7.48466e-05
2.83113e-05
-1.876e-05
-6.6213e-05
-0.000113719
-0.000160787
0.000882899
0.000872212
0.000860551
0.000847862
0.00083409
0.000819178
0.00080307
0.000785708
0.000767036
0.000747
0.000725546
0.000702625
0.000678189
0.000652195
0.000624608
0.000595394
0.000564531
0.000532004
0.000497807
0.000461945
0.000424435
0.000385309
0.00034461
0.000302399
0.000258752
0.00021376
0.000167533
0.000120199
7.18996e-05
2.27978e-05
-2.69331e-05
-7.71252e-05
-0.000127418
-0.000177275
0.000903971
0.000893603
0.000882231
0.000869796
0.000856237
0.000841491
0.000825496
0.000808187
0.000789503
0.000769381
0.00074776
0.000724582
0.000699792
0.00067334
0.000645179
0.000615272
0.000583586
0.000550099
0.000514798
0.000477684
0.000438767
0.000398075
0.00035565
0.000311551
0.000265855
0.000218656
0.000170071
0.000120232
6.9294e-05
1.74307e-05
-3.51694e-05
-8.8323e-05
-0.000141635
-0.000194522
0.000925894
0.000915898
0.000904869
0.000892741
0.000879449
0.000864924
0.000849096
0.000831894
0.000813249
0.00079309
0.000771348
0.000747955
0.000722849
0.000695969
0.000667261
0.000636675
0.000604172
0.00056972
0.000533299
0.000494901
0.000454531
0.000412211
0.000367981
0.000321896
0.000274034
0.000224493
0.000173393
0.000120875
6.71037e-05
1.22665e-05
-4.34322e-05
-9.97921e-05
-0.00015638
-0.000212565
0.000404756
0.000400022
0.000395268
0.000390494
0.000385703
0.000380895
0.000376072
0.000371234
0.000366384
0.000361523
0.000356651
0.000351772
0.000346885
0.000341993
0.000337097
0.000332198
0.000327298
0.000322399
0.000317502
0.000312608
0.00030772
0.000302838
0.000297964
0.0002931
0.000288248
0.000283408
0.000278582
0.000273772
0.00026898
0.000264206
0.000259453
0.000254722
0.000250014
0.000245331
0.000404911
0.000400169
0.000395405
0.000390622
0.000385821
0.000381003
0.000376169
0.000371321
0.00036646
0.000361588
0.000356706
0.000351815
0.000346918
0.000342014
0.000337107
0.000332197
0.000327286
0.000322375
0.000317467
0.000312561
0.000307661
0.000302768
0.000297883
0.000293007
0.000288143
0.000283291
0.000278454
0.000273633
0.000268829
0.000264045
0.00025928
0.000254538
0.000249819
0.000245125
0.000405216
0.000400455
0.000395672
0.00039087
0.00038605
0.000381212
0.000376359
0.00037149
0.000366609
0.000361716
0.000356813
0.000351901
0.000346982
0.000342057
0.000337128
0.000332196
0.000327262
0.000322329
0.000317398
0.000312471
0.000307548
0.000302632
0.000297724
0.000292826
0.000287939
0.000283065
0.000278206
0.000273362
0.000268536
0.00026373
0.000258944
0.00025418
0.00024944
0.000244725
0.000405662
0.000400875
0.000396065
0.000391235
0.000386387
0.00038152
0.000376637
0.00037174
0.000366828
0.000361905
0.000356971
0.000352028
0.000347077
0.00034212
0.000337159
0.000332194
0.000327229
0.000322263
0.000317299
0.000312338
0.000307383
0.000302433
0.000297492
0.000292561
0.000287641
0.000282735
0.000277842
0.000272966
0.000268108
0.000263269
0.000258451
0.000253656
0.000248885
0.000244139
0.000406246
0.000401424
0.000396578
0.000391712
0.000386827
0.000381924
0.000377003
0.000372066
0.000367116
0.000362153
0.000357178
0.000352195
0.000347203
0.000342204
0.000337201
0.000332195
0.000327186
0.000322178
0.000317171
0.000312168
0.000307169
0.000302176
0.000297192
0.000292218
0.000287255
0.000282305
0.00027737
0.000272451
0.000267551
0.00026267
0.00025781
0.000252973
0.000248161
0.000243375
0.000406963
0.000402098
0.00039721
0.0003923
0.00038737
0.00038242
0.000377453
0.000372469
0.000367471
0.000362459
0.000357435
0.000352402
0.00034736
0.00034231
0.000337256
0.000332198
0.000327137
0.000322077
0.000317017
0.000311961
0.000306909
0.000301864
0.000296827
0.000291799
0.000286783
0.000281781
0.000276793
0.000271822
0.000266869
0.000261937
0.000257026
0.000252139
0.000247276
0.000242441
0.000407811
0.000402896
0.000397957
0.000392995
0.000388012
0.000383009
0.000377987
0.000372947
0.000367893
0.000362824
0.000357742
0.00035265
0.000347548
0.000342439
0.000337324
0.000332205
0.000327084
0.000321961
0.00031684
0.000311721
0.000306607
0.000301499
0.000296399
0.000291309
0.000286231
0.000281166
0.000276116
0.000271083
0.000266069
0.000261076
0.000256105
0.000251157
0.000246236
0.000241341
0.000408787
0.000403815
0.000398818
0.000393797
0.000388754
0.000383689
0.000378604
0.000373501
0.000368382
0.000363247
0.000358099
0.00035294
0.00034777
0.000342592
0.000337408
0.000332219
0.000327027
0.000321833
0.000316641
0.000311451
0.000306265
0.000301085
0.000295913
0.000290751
0.000285601
0.000280464
0.000275343
0.000270239
0.000265154
0.000260091
0.00025505
0.000250034
0.000245044
0.000240082
0.00040989
0.000404855
0.000399793
0.000394706
0.000389594
0.000384461
0.000379305
0.000374131
0.000368939
0.000363731
0.000358508
0.000353273
0.000348027
0.000342771
0.000337509
0.000332241
0.000326969
0.000321696
0.000316423
0.000311152
0.000305885
0.000300624
0.000295371
0.000290128
0.000284897
0.000279679
0.000274477
0.000269293
0.000264129
0.000258986
0.000253866
0.000248772
0.000243705
0.000238668
0.000411121
0.000406016
0.000400882
0.000395721
0.000390535
0.000385324
0.000380091
0.000374838
0.000369565
0.000364275
0.00035897
0.00035365
0.000348319
0.000342978
0.000337629
0.000332273
0.000326913
0.000321551
0.000316189
0.000310828
0.000305471
0.00030012
0.000294777
0.000289443
0.000284121
0.000278814
0.000273522
0.000268248
0.000262995
0.000257764
0.000252557
0.000247376
0.000242223
0.000237101
0.000412479
0.000407297
0.000402084
0.000396843
0.000391575
0.000386281
0.000380963
0.000375623
0.000370262
0.000364882
0.000359486
0.000354075
0.00034865
0.000343215
0.00033777
0.000332318
0.000326862
0.000321402
0.000315941
0.000310482
0.000305026
0.000299575
0.000294132
0.000288699
0.000283278
0.000277871
0.00027248
0.000267108
0.000261757
0.000256428
0.000251125
0.000245848
0.000240601
0.000235385
0.000413964
0.000408699
0.000403402
0.000398074
0.000392717
0.000387332
0.000381922
0.000376488
0.000371031
0.000365554
0.000360059
0.000354548
0.000349022
0.000343484
0.000337935
0.000332379
0.000326816
0.00032125
0.000315682
0.000310115
0.000304551
0.000298992
0.00029344
0.000287898
0.000282369
0.000276853
0.000271355
0.000265875
0.000260416
0.000254981
0.000249572
0.000244191
0.000238841
0.000233523
0.000415578
0.000410224
0.000404836
0.000399414
0.000393962
0.00038848
0.000382971
0.000377435
0.000371875
0.000366293
0.000360692
0.000355072
0.000349437
0.000343788
0.000338127
0.000332457
0.00032678
0.000321099
0.000315415
0.000309731
0.00030405
0.000298373
0.000292704
0.000287044
0.000281397
0.000275764
0.000270147
0.000264551
0.000258976
0.000253426
0.000247902
0.000242408
0.000236945
0.000231516
0.000417322
0.000411874
0.000406388
0.000400867
0.000395313
0.000389727
0.000384111
0.000378467
0.000372797
0.000367103
0.000361387
0.000355651
0.000349898
0.00034413
0.000338348
0.000332557
0.000326757
0.000320951
0.000315143
0.000309333
0.000303526
0.000297722
0.000291926
0.000286139
0.000280364
0.000274604
0.000268861
0.000263139
0.000257438
0.000251763
0.000246116
0.000240499
0.000234915
0.000229367
0.000419199
0.00041365
0.000408062
0.000402435
0.000396773
0.000391076
0.000385346
0.000379587
0.000373799
0.000367985
0.000362147
0.000356287
0.000350408
0.000344513
0.000338602
0.00033268
0.000326749
0.00032081
0.000314868
0.000308924
0.000302981
0.000297041
0.000291109
0.000285185
0.000279274
0.000273377
0.000267499
0.00026164
0.000255805
0.000249996
0.000244216
0.000238467
0.000232753
0.000227076
0.000421211
0.000415556
0.000409858
0.00040412
0.000398343
0.000392529
0.000386679
0.000380797
0.000374884
0.000368943
0.000362975
0.000356984
0.000350971
0.00034494
0.000338892
0.000332831
0.000326759
0.000320679
0.000314594
0.000308506
0.000302418
0.000296333
0.000290255
0.000284185
0.000278128
0.000272086
0.000266061
0.000260058
0.000254078
0.000248126
0.000242203
0.000236313
0.000230459
0.000224644
0.00042336
0.000417594
0.000411781
0.000405925
0.000400028
0.00039409
0.000388114
0.000382102
0.000376057
0.000369981
0.000363876
0.000357745
0.00035159
0.000345415
0.000339222
0.000333013
0.000326792
0.000320561
0.000314323
0.000308082
0.00030184
0.000295601
0.000289367
0.000283142
0.000276929
0.000270731
0.000264551
0.000258393
0.000252259
0.000246153
0.000240078
0.000234038
0.000228035
0.000222072
0.000425649
0.000419766
0.000413834
0.000407855
0.00040183
0.000395762
0.000389653
0.000383505
0.00037732
0.000371102
0.000364852
0.000358574
0.00035227
0.000345942
0.000339594
0.000333229
0.00032685
0.000320459
0.00031406
0.000307656
0.000301251
0.000294847
0.000288448
0.000282058
0.000275679
0.000269315
0.00026297
0.000256647
0.000250349
0.00024408
0.000237844
0.000231643
0.000225481
0.000219361
0.000428082
0.000422078
0.00041602
0.000409911
0.000403754
0.00039755
0.000391301
0.00038501
0.000378679
0.000372311
0.000365909
0.000359475
0.000353013
0.000346525
0.000340014
0.000333484
0.000326937
0.000320377
0.000313808
0.000307232
0.000300653
0.000294075
0.000287502
0.000280936
0.000274381
0.000267842
0.000261321
0.000254823
0.000248351
0.000241908
0.000235499
0.000229128
0.000222797
0.000216511
0.000430662
0.000424531
0.000418342
0.000412099
0.000405803
0.000399457
0.000393062
0.000386621
0.000380136
0.000373612
0.00036705
0.000360453
0.000353824
0.000347167
0.000340485
0.00033378
0.000327057
0.000320319
0.00031357
0.000306812
0.00030005
0.000293288
0.000286529
0.000279778
0.000273037
0.000266311
0.000259605
0.000252921
0.000246264
0.000239638
0.000233047
0.000226494
0.000219985
0.000213522
0.000433392
0.00042713
0.000420806
0.000414422
0.000407982
0.000401487
0.00039494
0.000388342
0.000381698
0.000375009
0.000368279
0.000361511
0.000354708
0.000347874
0.000341011
0.000334124
0.000327215
0.000320289
0.00031335
0.000306401
0.000299446
0.000292489
0.000285535
0.000278587
0.00027165
0.000264727
0.000257824
0.000250944
0.000244092
0.000237271
0.000230487
0.000223743
0.000217044
0.000210393
0.000436277
0.000429879
0.000423414
0.000416885
0.000410296
0.000403646
0.00039694
0.000390179
0.000383367
0.000376507
0.000369602
0.000362655
0.00035567
0.000348649
0.000341597
0.000334518
0.000327414
0.000320291
0.000313152
0.000306001
0.000298843
0.000291682
0.000284521
0.000277366
0.000270222
0.000263092
0.000255981
0.000248893
0.000241834
0.000234808
0.00022782
0.000220873
0.000213974
0.000207125
0.00043932
0.000432781
0.000426171
0.000419492
0.000412747
0.000405938
0.000399066
0.000392136
0.00038515
0.000378111
0.000371023
0.00036389
0.000356713
0.000349498
0.000342248
0.000334967
0.00032766
0.000320329
0.000312981
0.000305618
0.000298246
0.000290869
0.000283491
0.000276119
0.000268755
0.000261406
0.000254076
0.00024677
0.000239494
0.000232251
0.000225047
0.000217886
0.000210775
0.000203717
0.000442525
0.000435842
0.000429082
0.000422248
0.000415342
0.000408367
0.000401324
0.000394218
0.000387051
0.000379827
0.000372548
0.000365219
0.000357844
0.000350426
0.000342969
0.000335477
0.000327956
0.000320408
0.00031284
0.000305255
0.000297658
0.000290054
0.000282449
0.000274847
0.000267254
0.000259674
0.000252114
0.000244577
0.000237071
0.000229599
0.000222168
0.000214782
0.000207448
0.00020017
0.000445897
0.000439066
0.000432152
0.000425157
0.000418086
0.000410939
0.000403719
0.00039643
0.000389076
0.000381658
0.000374182
0.00036665
0.000359067
0.000351437
0.000343764
0.000336053
0.000328307
0.000320532
0.000312734
0.000304915
0.000297083
0.000289242
0.000281397
0.000273555
0.00026572
0.000257898
0.000250094
0.000242316
0.000234567
0.000226855
0.000219184
0.000211561
0.000203992
0.000196481
0.00044944
0.000442456
0.000435384
0.000428225
0.000420982
0.000413658
0.000406256
0.000398778
0.000391229
0.000383612
0.00037593
0.000368187
0.000360388
0.000352538
0.000344639
0.000336698
0.000328719
0.000320707
0.000312667
0.000304605
0.000296526
0.000288436
0.00028034
0.000272245
0.000264156
0.000256079
0.000248021
0.000239988
0.000231985
0.000224019
0.000216097
0.000208224
0.000200406
0.000192651
0.000453158
0.000446018
0.000438783
0.000431455
0.000424037
0.000416531
0.00040894
0.000401268
0.000393517
0.000385692
0.000377797
0.000369836
0.000361813
0.000353733
0.0003456
0.000337419
0.000329197
0.000320937
0.000312645
0.000304328
0.000295991
0.00028764
0.000279281
0.000270921
0.000262566
0.000254222
0.000245896
0.000237595
0.000229325
0.000221093
0.000212905
0.000204769
0.000196692
0.000188679
0.000457055
0.000449757
0.000442355
0.000434854
0.000427256
0.000419562
0.000411777
0.000403903
0.000395945
0.000387906
0.000379791
0.000371603
0.000363347
0.000355028
0.000346652
0.000338222
0.000329745
0.000321227
0.000312673
0.000304089
0.000295482
0.000286859
0.000278224
0.000269587
0.000260952
0.000252328
0.000243721
0.000235139
0.000226588
0.000218077
0.000209611
0.000201199
0.000192848
0.000184564
0.000461136
0.000453676
0.000446105
0.000438426
0.000430643
0.000422757
0.000414772
0.000406692
0.00039852
0.00039026
0.000381916
0.000373493
0.000364996
0.00035643
0.0003478
0.000339112
0.000330371
0.000321583
0.000312755
0.000303894
0.000295005
0.000286096
0.000277174
0.000268246
0.000259319
0.000250401
0.0002415
0.000232623
0.000223778
0.000214972
0.000206215
0.000197512
0.000188874
0.000180306
0.000465405
0.00045778
0.000450036
0.000442177
0.000434204
0.000426121
0.000417932
0.000409639
0.000401246
0.000392758
0.000384179
0.000375514
0.000366767
0.000357945
0.000349052
0.000340094
0.000331078
0.000322011
0.000312898
0.000303746
0.000294563
0.000285357
0.000276134
0.000266902
0.000257669
0.000248444
0.000239234
0.000230048
0.000220894
0.000211781
0.000202717
0.00019371
0.000184769
0.000175903
0.000469867
0.000462074
0.000454154
0.00044611
0.000437945
0.000429661
0.000421261
0.00041275
0.00040413
0.000395407
0.000386586
0.00037767
0.000368665
0.000359577
0.000350412
0.000341176
0.000331875
0.000322516
0.000313106
0.000303652
0.000294163
0.000284646
0.000275108
0.000265559
0.000256007
0.00024646
0.000236927
0.000227418
0.00021794
0.000208504
0.000199118
0.000189792
0.000180535
0.000171355
0.000474525
0.000466562
0.000458464