/*--------------------------------*- C++ -*----------------------------------*\
| =========                 |                                                 |
| \\      /  F ield         | OpenFOAM: The Open Source CFD Toolbox           |
|  \\    /   O peration     | Version:  2412                                  |
|   \\  /    A nd           | Website:  www.openfoam.com                      |
|    \\/     M anipulation  |                                                 |
\*---------------------------------------------------------------------------*/
FoamFile
{
    version     2.0;
    format      ascii;
    arch        "LSB;label=32;scalar=64";
    class       volVectorField;
    location    "7";
    object      U;
}
// * * * * * * * * * * * * * * * * * * * * * * * * * * * * * * * * * * * * * //

dimensions      [0 1 -1 0 0 0 0];

internalField   nonuniform List<vector> 
5285
(
(0.112801 -0.00205462 0)
(0.11221 -0.00191374 0)
(0.112057 -0.00246247 0)
(0.111852 -0.00298609 0)
(0.111619 -0.00348449 0)
(0.111354 -0.00395772 0)
(0.111057 -0.00440582 0)
(0.110733 -0.00482913 0)
(0.110384 -0.0052279 0)
(0.110014 -0.00560174 0)
(0.109628 -0.00594943 0)
(0.109227 -0.00626901 0)
(0.108817 -0.00655812 0)
(0.108399 -0.00681445 0)
(0.107976 -0.00703619 0)
(0.107552 -0.00722239 0)
(0.107129 -0.00737315 0)
(0.106709 -0.00748958 0)
(0.106295 -0.00757365 0)
(0.105888 -0.00762789 0)
(0.10549 -0.00765512 0)
(0.105102 -0.0076582 0)
(0.104727 -0.00763985 0)
(0.104364 -0.00760252 0)
(0.11166 -0.00178639 0)
(0.111521 -0.00229638 0)
(0.111336 -0.00278355 0)
(0.111125 -0.00324799 0)
(0.110885 -0.00369002 0)
(0.110616 -0.00410995 0)
(0.11032 -0.00450829 0)
(0.110003 -0.00488538 0)
(0.109665 -0.0052408 0)
(0.109312 -0.00557328 0)
(0.108945 -0.00588077 0)
(0.108567 -0.00616077 0)
(0.108181 -0.00641085 0)
(0.10779 -0.00662905 0)
(0.107396 -0.00681426 0)
(0.107002 -0.00696642 0)
(0.10661 -0.00708645 0)
(0.106222 -0.00717611 0)
(0.10584 -0.00723773 0)
(0.105465 -0.00727391 0)
(0.105099 -0.00728728 0)
(0.104743 -0.00728034 0)
(0.104398 -0.00725535 0)
(0.111146 -0.00167104 0)
(0.111021 -0.00214597 0)
(0.110853 -0.00260005 0)
(0.110662 -0.00303357 0)
(0.110444 -0.00344707 0)
(0.1102 -0.00384106 0)
(0.109931 -0.00421623 0)
(0.109641 -0.00457296 0)
(0.109334 -0.00491084 0)
(0.10901 -0.00522856 0)
(0.108673 -0.005524 0)
(0.108325 -0.0057946 0)
(0.107969 -0.00603781 0)
(0.107607 -0.0062516 0)
(0.107241 -0.00643474 0)
(0.106874 -0.00658705 0)
(0.106508 -0.0067093 0)
(0.106144 -0.00680309 0)
(0.105785 -0.00687056 0)
(0.105431 -0.00691412 0)
(0.105085 -0.0069362 0)
(0.104748 -0.0069391 0)
(0.10442 -0.00692488 0)
(0.110667 -0.00156637 0)
(0.110553 -0.00200956 0)
(0.110401 -0.00243364 0)
(0.110227 -0.00283903 0)
(0.11003 -0.00322645 0)
(0.109807 -0.00359659 0)
(0.109563 -0.00395027 0)
(0.109299 -0.0042879 0)
(0.109018 -0.0046091 0)
(0.108721 -0.00491251 0)
(0.108412 -0.005196 0)
(0.108092 -0.00545695 0)
(0.107763 -0.00569279 0)
(0.107427 -0.00590142 0)
(0.107088 -0.00608157 0)
(0.106745 -0.00623294 0)
(0.106403 -0.00635622 0)
(0.106061 -0.00645286 0)
(0.105723 -0.00652485 0)
(0.10539 -0.00657443 0)
(0.105063 -0.00660384 0)
(0.104743 -0.00661519 0)
(0.104431 -0.00661038 0)
(0.110217 -0.00147124 0)
(0.110114 -0.00188572 0)
(0.109976 -0.00228262 0)
(0.109819 -0.00266246 0)
(0.109639 -0.00302607 0)
(0.109437 -0.00337432 0)
(0.109215 -0.00370807 0)
(0.108975 -0.0040278 0)
(0.108718 -0.00433311 0)
(0.108446 -0.00462267 0)
(0.108162 -0.00489431 0)
(0.107867 -0.00514544 0)
(0.107563 -0.00537348 0)
(0.107252 -0.00557631 0)
(0.106936 -0.00575265 0)
(0.106616 -0.00590215 0)
(0.106296 -0.00602542 0)
(0.105975 -0.00612381 0)
(0.105657 -0.00619917 0)
(0.105343 -0.00625357 0)
(0.105033 -0.0062891 0)
(0.10473 -0.00630769 0)
(0.104434 -0.00631106 0)
(0.109796 -0.00138461 0)
(0.109702 -0.00177317 0)
(0.109577 -0.0021455 0)
(0.109434 -0.00250218 0)
(0.109271 -0.00284413 0)
(0.109088 -0.00317229 0)
(0.108886 -0.00348759 0)
(0.108667 -0.00379053 0)
(0.108432 -0.00408072 0)
(0.108184 -0.00435684 0)
(0.107923 -0.00461675 0)
(0.107651 -0.0048579 0)
(0.10737 -0.00507775 0)
(0.107081 -0.00527422 0)
(0.106787 -0.00544603 0)
(0.106488 -0.00559285 0)
(0.106188 -0.00571522 0)
(0.105887 -0.00581439 0)
(0.105587 -0.00589212 0)
(0.10529 -0.00595031 0)
(0.104997 -0.00599092 0)
(0.104709 -0.00601569 0)
(0.104428 -0.00602619 0)
(0.109401 -0.0013056 0)
(0.109315 -0.00167081 0)
(0.109202 -0.00202099 0)
(0.109072 -0.00235674 0)
(0.108924 -0.00267901 0)
(0.108758 -0.00298879 0)
(0.108574 -0.00328703 0)
(0.108375 -0.00357421 0)
(0.108161 -0.00384999 0)
(0.107934 -0.00411306 0)
(0.107694 -0.00436134 0)
(0.107443 -0.00459236 0)
(0.107183 -0.00480366 0)
(0.106915 -0.00499326 0)
(0.10664 -0.00515993 0)
(0.106361 -0.00530334 0)
(0.106079 -0.00542402 0)
(0.105796 -0.00552316 0)
(0.105514 -0.00560239 0)
(0.105233 -0.00566351 0)
(0.104956 -0.00570829 0)
(0.104682 -0.00573833 0)
(0.104415 -0.00575503 0)
(0.109029 -0.0012334 0)
(0.108951 -0.00157764 0)
(0.108848 -0.00190792 0)
(0.108731 -0.00222483 0)
(0.108597 -0.00252929 0)
(0.108446 -0.00282228 0)
(0.108279 -0.00310474 0)
(0.108098 -0.00337715 0)
(0.107903 -0.00363916 0)
(0.107695 -0.00388952 0)
(0.107474 -0.00412625 0)
(0.107243 -0.00434699 0)
(0.107002 -0.00454943 0)
(0.106753 -0.00473169 0)
(0.106497 -0.00489265 0)
(0.106236 -0.00503203 0)
(0.105971 -0.00515036 0)
(0.105704 -0.00524877 0)
(0.105438 -0.00532878 0)
(0.105172 -0.00539207 0)
(0.104909 -0.00544025 0)
(0.10465 -0.00547478 0)
(0.104395 -0.00549687 0)
(0.10868 -0.00116731 0)
(0.108608 -0.00149276 0)
(0.108515 -0.00180524 0)
(0.108409 -0.00210525 0)
(0.108287 -0.00239364 0)
(0.108151 -0.00267133 0)
(0.108 -0.00293922 0)
(0.107835 -0.00319774 0)
(0.107657 -0.00344657 0)
(0.107466 -0.00368454 0)
(0.107264 -0.00390978 0)
(0.107051 -0.00412011 0)
(0.106827 -0.00431338 0)
(0.106595 -0.0044879 0)
(0.106356 -0.00464267 0)
(0.106111 -0.00477748 0)
(0.105862 -0.00489289 0)
(0.105611 -0.00498997 0)
(0.105359 -0.00507016 0)
(0.105108 -0.005135 0)
(0.104858 -0.00518594 0)
(0.104612 -0.00522427 0)
(0.10437 -0.00525107 0)
(0.108352 -0.00110666 0)
(0.108286 -0.00141534 0)
(0.108202 -0.00171196 0)
(0.108105 -0.00199687 0)
(0.107995 -0.0022708 0)
(0.107871 -0.00253458 0)
(0.107735 -0.00278901 0)
(0.107585 -0.00303447 0)
(0.107423 -0.00327067 0)
(0.107248 -0.00349651 0)
(0.107062 -0.00371032 0)
(0.106865 -0.00391011 0)
(0.106657 -0.00409395 0)
(0.106441 -0.00426038 0)
(0.106217 -0.00440854 0)
(0.105987 -0.00453835 0)
(0.105753 -0.00465037 0)
(0.105516 -0.00474565 0)
(0.105278 -0.00482552 0)
(0.10504 -0.00489139 0)
(0.104803 -0.00494455 0)
(0.104569 -0.00498613 0)
(0.104339 -0.00501704 0)
(0.108044 -0.00105088 0)
(0.107984 -0.00134461 0)
(0.107907 -0.00162712 0)
(0.107819 -0.00189857 0)
(0.107719 -0.00215954 0)
(0.107607 -0.00241067 0)
(0.107483 -0.00265265 0)
(0.107347 -0.00288581 0)
(0.107199 -0.00310986 0)
(0.107039 -0.00332386 0)
(0.106867 -0.0035263 0)
(0.106685 -0.00371545 0)
(0.106492 -0.00388968 0)
(0.10629 -0.00404773 0)
(0.10608 -0.00418899 0)
(0.105864 -0.00431345 0)
(0.105643 -0.00442172 0)
(0.10542 -0.00451483 0)
(0.105194 -0.00459399 0)
(0.104969 -0.00466047 0)
(0.104745 -0.0047154 0)
(0.104522 -0.00475974 0)
(0.104303 -0.00479425 0)
(0.107756 -0.000999421 0)
(0.1077 -0.00127982 0)
(0.10763 -0.00154977 0)
(0.10755 -0.00180925 0)
(0.107459 -0.00205856 0)
(0.107357 -0.00229818 0)
(0.107244 -0.00252864 0)
(0.10712 -0.00275019 0)
(0.106984 -0.00296258 0)
(0.106837 -0.00316499 0)
(0.106679 -0.00335617 0)
(0.10651 -0.00353467 0)
(0.10633 -0.00369917 0)
(0.106141 -0.00384869 0)
(0.105944 -0.00398282 0)
(0.105741 -0.00410171 0)
(0.105533 -0.00420599 0)
(0.105322 -0.00429665 0)
(0.105109 -0.00437481 0)
(0.104895 -0.00444157 0)
(0.104682 -0.00449791 0)
(0.104471 -0.0045446 0)
(0.104263 -0.00458226 0)
(0.107487 -0.000951775 0)
(0.107435 -0.00122022 0)
(0.107371 -0.00147898 0)
(0.107297 -0.00172773 0)
(0.107214 -0.00196654 0)
(0.107121 -0.00219564 0)
(0.107018 -0.0024154 0)
(0.106904 -0.00262597 0)
(0.106779 -0.00282716 0)
(0.106643 -0.0030183 0)
(0.106496 -0.0031984 0)
(0.106338 -0.00336634 0)
(0.106171 -0.00352111 0)
(0.105994 -0.00366206 0)
(0.105809 -0.003789 0)
(0.105617 -0.00390221 0)
(0.105421 -0.00400238 0)
(0.105222 -0.00409043 0)
(0.10502 -0.00416737 0)
(0.104818 -0.00423416 0)
(0.104616 -0.00429159 0)
(0.104416 -0.00434028 0)
(0.104218 -0.00438068 0)
(0.107236 -0.000907472 0)
(0.107188 -0.00116511 0)
(0.107128 -0.00141375 0)
(0.107061 -0.00165282 0)
(0.106984 -0.00188207 0)
(0.106898 -0.00210151 0)
(0.106803 -0.00231128 0)
(0.106697 -0.00251148 0)
(0.106582 -0.00270194 0)
(0.106455 -0.00288218 0)
(0.106318 -0.00305149 0)
(0.106171 -0.00320907 0)
(0.106014 -0.00335428 0)
(0.105847 -0.00348678 0)
(0.105673 -0.00360661 0)
(0.105493 -0.00371419 0)
(0.105308 -0.00381022 0)
(0.10512 -0.00389559 0)
(0.104929 -0.00397119 0)
(0.104738 -0.0040378 0)
(0.104547 -0.00409607 0)
(0.104358 -0.00414644 0)
(0.10417 -0.00418919 0)
(0.107002 -0.000866074 0)
(0.106957 -0.00111377 0)
(0.106902 -0.00135313 0)
(0.106839 -0.0015833 0)
(0.106767 -0.00180375 0)
(0.106687 -0.00201419 0)
(0.106598 -0.0022146 0)
(0.1065 -0.00240499 0)
(0.106391 -0.00258524 0)
(0.106273 -0.00275504 0)
(0.106145 -0.00291396 0)
(0.106006 -0.00306157 0)
(0.105858 -0.00319756 0)
(0.105702 -0.00332191 0)
(0.105538 -0.00343486 0)
(0.105368 -0.00353697 0)
(0.105194 -0.00362898 0)
(0.105016 -0.00371168 0)
(0.104837 -0.00378586 0)
(0.104656 -0.00385216 0)
(0.104476 -0.00391103 0)
(0.104296 -0.00396277 0)
(0.104118 -0.00400754 0)
(0.106786 -0.000827171 0)
(0.106744 -0.00106552 0)
(0.106692 -0.00129618 0)
(0.106632 -0.00151799 0)
(0.106564 -0.00173016 0)
(0.106488 -0.00193214 0)
(0.106404 -0.00212372 0)
(0.106311 -0.00230484 0)
(0.106208 -0.00247542 0)
(0.106096 -0.00263534 0)
(0.105975 -0.00278445 0)
(0.105844 -0.00292263 0)
(0.105705 -0.00304993 0)
(0.105557 -0.00316659 0)
(0.105403 -0.00327306 0)
(0.105243 -0.00337001 0)
(0.105079 -0.00345819 0)
(0.104911 -0.00353833 0)
(0.104742 -0.00361108 0)
(0.104572 -0.00367693 0)
(0.104402 -0.0037362 0)
(0.104232 -0.00378903 0)
(0.104064 -0.00383545 0)
(0.106585 -0.000790419 0)
(0.106545 -0.00101975 0)
(0.106495 -0.00124201 0)
(0.106438 -0.00145579 0)
(0.106373 -0.00166001 0)
(0.1063 -0.00185391 0)
(0.106219 -0.00203712 0)
(0.10613 -0.0022095 0)
(0.106032 -0.00237102 0)
(0.105925 -0.00252173 0)
(0.10581 -0.00266172 0)
(0.105686 -0.0027912 0)
(0.105553 -0.00291049 0)
(0.105414 -0.00302008 0)
(0.105269 -0.00312062 0)
(0.105118 -0.00321283 0)
(0.104964 -0.00329746 0)
(0.104806 -0.00337518 0)
(0.104647 -0.00344652 0)
(0.104487 -0.00351184 0)
(0.104327 -0.00357131 0)
(0.104167 -0.00362495 0)
(0.104008 -0.00367268 0)
(0.106398 -0.000755569 0)
(0.106359 -0.000975944 0)
(0.106312 -0.0011899 0)
(0.106257 -0.00139575 0)
(0.106193 -0.00159219 0)
(0.106122 -0.00177828 0)
(0.106044 -0.0019535 0)
(0.105957 -0.00211766 0)
(0.105863 -0.00227077 0)
(0.10576 -0.00241302 0)
(0.105649 -0.00254474 0)
(0.105531 -0.00266636 0)
(0.105405 -0.00277846 0)
(0.105274 -0.00288174 0)
(0.105136 -0.00297698 0)
(0.104995 -0.00306495 0)
(0.104849 -0.00314639 0)
(0.104702 -0.00322189 0)
(0.104552 -0.00329187 0)
(0.104402 -0.00335657 0)
(0.104251 -0.00341604 0)
(0.104101 -0.00347021 0)
(0.103951 -0.00351892 0)
(0.11267 0.00214396 1.17287e-24)
(0.112838 0.00154099 -1.17565e-24)
(0.112122 0.00199268 -1.05184e-24)
(0.112274 0.00142998 3.68057e-23)
(0.112411 0.000857581 -2.31211e-24)
(0.112531 0.000277951 0)
(0.112635 -0.000306084 8.27214e-23)
(0.112723 -0.00089121 -1.95939e-22)
(0.112816 -0.00147482 -3.11904e-24)
(0.11161 0.00185507 9.39727e-25)
(0.111747 0.00132909 -6.22738e-23)
(0.11187 0.000794481 -6.55422e-23)
(0.111978 0.000253702 1.72889e-25)
(0.11207 -0.000290338 -1.65442e-22)
(0.112146 -0.000834298 1.69101e-22)
(0.112227 -0.00137535 1.74525e-22)
(0.11113 0.00172971 -6.78074e-24)
(0.111255 0.00123733 3.07839e-23)
(0.111366 0.000737181 1.22582e-22)
(0.111462 0.000231769 6.63848e-23)
(0.111542 -0.000275988 7.73745e-23)
(0.111609 -0.000782715 -3.13848e-22)
(0.111677 -0.00128544 -3.40114e-22)
(0.110681 0.00161541 6.69314e-24)
(0.110794 0.00115383 9.08091e-25)
(0.110893 0.000685171 -6.05342e-23)
(0.110979 0.000211986 -1.23978e-22)
(0.11105 -0.000262795 -1.5002e-25)
(0.111107 -0.000735803 8.44927e-23)
(0.111165 -0.00120397 1.60239e-22)
(0.110259 0.00151127 3.88325e-24)
(0.110361 0.00107786 2.10954e-24)
(0.11045 0.000638015 -2.46858e-23)
(0.110526 0.000194243 1.09027e-22)
(0.110588 -0.000250537 0)
(0.110638 -0.000692978 6.97425e-23)
(0.110686 -0.00112997 -2.08501e-24)
(0.109862 0.00141623 -7.86937e-24)
(0.109955 0.00100875 -5.65435e-25)
(0.110035 0.000595339 2.18088e-23)
(0.110102 0.000178452 -9.70856e-23)
(0.110156 -0.000239005 4.99808e-23)
(0.110198 -0.000653719 5.81182e-23)
(0.110238 -0.00106256 -1.87222e-24)
(0.109489 0.00132949 3.90111e-24)
(0.109573 0.00094596 0)
(0.109644 0.000556832 0)
(0.109704 0.000164555 4.55626e-23)
(0.10975 -0.000227996 -5.16298e-23)
(0.109785 -0.000617552 -1.01478e-22)
(0.109817 -0.001001 -5.2548e-23)
(0.109138 0.00125048 4.1213e-25)
(0.109213 0.000889016 7.15385e-24)
(0.109277 0.000522232 1.35866e-25)
(0.109329 0.00015251 1.30744e-25)
(0.109369 -0.000217321 3.78703e-23)
(0.109397 -0.000584051 9.3022e-23)
(0.109423 -0.000944597 9.76961e-23)
(0.108807 0.00117851 -3.42822e-25)
(0.108875 0.000837475 -6.26636e-24)
(0.108932 0.000491295 0)
(0.108977 0.000142279 -1.51184e-23)
(0.10901 -0.000206812 -3.90891e-23)
(0.109033 -0.000552835 -3.80287e-24)
(0.109052 -0.000892753 -8.93553e-23)
(0.108495 0.00111299 0)
(0.108557 0.000790914 -3.78437e-24)
(0.108607 0.000463782 -1.0822e-23)
(0.108646 0.000133808 1.33794e-23)
(0.108673 -0.000196329 1.97994e-24)
(0.108691 -0.000523569 -3.76858e-23)
(0.108703 -0.000844934 4.01197e-23)
(0.108202 0.00105336 -2.164e-25)
(0.108257 0.000748917 5.25042e-24)
(0.108301 0.000439438 1.03993e-23)
(0.108334 0.000127016 7.94071e-25)
(0.108356 -0.000185776 -7.93954e-25)
(0.108369 -0.000495974 -2.84632e-23)
(0.108376 -0.000800669 0)
(0.107925 0.000999037 5.63115e-25)
(0.107975 0.000711047 -1.58605e-25)
(0.108013 0.000417975 -5.53629e-25)
(0.108041 0.000121773 8.68661e-24)
(0.108059 -0.000175112 -1.05989e-25)
(0.108066 -0.00046983 4.21619e-23)
(0.108069 -0.000759551 2.63688e-23)
(0.107665 0.000949443 -5.0923e-25)
(0.107709 0.000676837 4.28548e-25)
(0.107743 0.000399056 1.1176e-25)
(0.107767 0.000117891 -1.67126e-23)
(0.10778 -0.000164363 5.41505e-25)
(0.107783 -0.000444985 -2.14507e-23)
(0.107781 -0.000721233 -2.79041e-23)
(0.10742 0.000903973 5.26089e-26)
(0.10746 0.000645779 1.64826e-25)
(0.10749 0.000382289 -1.65589e-24)
(0.107509 0.000115114 7.03952e-24)
(0.107519 -0.000153623 -4.26382e-25)
(0.107519 -0.000421351 1.07049e-23)
(0.107512 -0.000685424 -1.02284e-23)
(0.107189 0.000862003 -3.87122e-27)
(0.107226 0.00061733 3.86798e-27)
(0.107253 0.000367229 2.50726e-24)
(0.107269 0.000113122 -9.95076e-26)
(0.107275 -0.000143057 2.83332e-24)
(0.107272 -0.000398905 -6.9564e-24)
(0.107262 -0.000651883 1.00878e-23)
(0.106973 0.000822911 4.22994e-26)
(0.107007 0.000590926 -1.73187e-25)
(0.107031 0.000353397 -8.62334e-25)
(0.107044 0.000111549 -1.20415e-25)
(0.107048 -0.00013288 -4.22028e-24)
(0.107042 -0.000377672 6.83836e-24)
(0.107029 -0.000620413 -3.89661e-25)
(0.106769 0.000786084 -2.18333e-25)
(0.106801 0.000566013 -1.58065e-25)
(0.106823 0.000340313 -1.60793e-25)
(0.106834 0.000110019 9.27921e-26)
(0.106836 -0.000123329 1.79344e-24)
(0.106829 -0.000357707 -2.05854e-25)
(0.106813 -0.000590843 -2.23328e-24)
(0.106578 0.000750972 1.32447e-25)
(0.106608 0.000542094 8.04661e-26)
(0.106628 0.000327548 3.20514e-25)
(0.106638 0.000108193 -6.20168e-26)
(0.106639 -0.000114628 5.45892e-26)
(0.10663 -0.000339087 6.25953e-25)
(0.106613 -0.000563071 2.0364e-24)
(0.106398 0.000717119 -1.67275e-25)
(0.106427 0.000518717 4.1232e-25)
(0.106446 0.000314675 -1.46794e-25)
(0.106455 0.000105692 2.05243e-25)
(0.106455 -0.000107075 -1.13356e-25)
(0.106445 -0.000321999 -3.3145e-25)
(0.106426 -0.000537125 -1.00205e-25)
(0.112288 0.00331008 2.98894e-23)
(0.112486 0.00273411 9.58304e-25)
(0.110697 0.00554983 -6.19504e-25)
(0.110939 0.00508628 5.46372e-23)
(0.111157 0.0046081 -2.86514e-23)
(0.111373 0.00411466 0)
(0.11158 0.00360567 -1.49199e-24)
(0.111774 0.00308175 2.33594e-24)
(0.111955 0.00254375 -8.48039e-25)
(0.110299 0.0051823 -1.74266e-23)
(0.110523 0.00474885 -3.16897e-23)
(0.110725 0.00430158 2.69082e-23)
(0.110924 0.00383997 -2.115e-25)
(0.111115 0.00336379 3.51435e-23)
(0.111293 0.00287367 2.13632e-23)
(0.111458 0.00237047 7.45694e-25)
(0.109922 0.00484579 2.48634e-23)
(0.11013 0.00444003 5.51169e-23)
(0.110318 0.0040212 0)
(0.110502 0.00358885 -2.2801e-23)
(0.110677 0.00314281 -6.61902e-23)
(0.110841 0.0026837 -3.8149e-23)
(0.110992 0.00221235 4.57315e-24)
(0.109565 0.00453724 -8.23101e-24)
(0.109758 0.00415699 -1.533e-23)
(0.109933 0.00376436 1.92469e-25)
(0.110103 0.00335897 4.20423e-23)
(0.110266 0.00294069 2.89718e-23)
(0.110416 0.0025101 1.83582e-23)
(0.110555 0.00206791 -4.66971e-24)
(0.109226 0.00425395 -4.64993e-26)
(0.109406 0.00389723 -6.91562e-24)
(0.109569 0.00352878 0)
(0.109728 0.00314827 -3.32466e-23)
(0.109878 0.00275561 9.23604e-24)
(0.110017 0.00235137 1.26642e-24)
(0.110144 0.00193632 -4.35428e-24)
(0.108904 0.0039935 7.23242e-26)
(0.109073 0.00365852 9.61683e-25)
(0.109226 0.00331243 -4.44315e-24)
(0.109373 0.00295492 2.46816e-23)
(0.109513 0.00258593 -1.05002e-23)
(0.109641 0.002206 -4.04419e-25)
(0.109757 0.00181586 7.55191e-24)
(0.108599 0.00375375 -1.04792e-23)
(0.108757 0.0034389 -5.38549e-24)
(0.108901 0.00311351 4.61961e-24)
(0.109039 0.0027773 -1.63286e-23)
(0.109168 0.00243023 0)
(0.109286 0.00207276 0)
(0.109393 0.00170549 -3.27277e-24)
(0.10831 0.00353278 2.42714e-23)
(0.108458 0.00323659 1.19665e-23)
(0.108593 0.00293041 2.5876e-24)
(0.108722 0.00261398 6.0259e-24)
(0.108843 0.00228726 -1.59545e-25)
(0.108952 0.00195067 -3.00666e-24)
(0.109051 0.00160477 2.63939e-25)
(0.108035 0.00332886 -1.31156e-23)
(0.108175 0.00305001 2.73569e-24)
(0.108302 0.00276169 -2.63838e-24)
(0.108423 0.00246365 -4.98679e-25)
(0.108535 0.00215587 0)
(0.108637 0.0018387 3.32025e-24)
(0.108728 0.00151264 -2.00414e-25)
(0.107774 0.00314045 1.95246e-23)
(0.107907 0.00287772 -1.10361e-23)
(0.108027 0.00260602 -4.70942e-25)
(0.10814 0.00232514 6.6788e-25)
(0.108245 0.00203501 6.30935e-26)
(0.108339 0.00173594 1.38462e-24)
(0.108423 0.00142837 0)
(0.107527 0.00296612 2.5439e-24)
(0.107652 0.00271841 -1.65251e-23)
(0.107766 0.00246223 2.55811e-25)
(0.107873 0.00219734 -2.55878e-25)
(0.107971 0.0019237 -2.41527e-25)
(0.108058 0.00164155 -1.13304e-24)
(0.108136 0.00135123 -8.4488e-26)
(0.107292 0.0028046 3.02539e-24)
(0.10741 0.0025709 2.4924e-23)
(0.107519 0.00232919 1.41167e-25)
(0.10762 0.00207926 5.25719e-24)
(0.107711 0.00182105 2.07057e-25)
(0.107793 0.00155472 -3.14762e-26)
(0.107865 0.00128055 -1.23317e-25)
(0.107068 0.00265469 -2.3107e-23)
(0.107181 0.00243407 -2.09762e-23)
(0.107284 0.00220589 -4.3112e-25)
(0.10738 0.00196995 -1.08733e-23)
(0.107466 0.00172618 -1.32062e-25)
(0.107543 0.00147467 -7.69948e-25)
(0.107609 0.00121564 1.73601e-25)
(0.106856 0.00251532 -1.32788e-23)
(0.106964 0.0023069 9.94979e-24)
(0.107062 0.00209136 5.1116e-25)
(0.107153 0.00186852 6.35504e-24)
(0.107235 0.00163826 -3.00469e-24)
(0.107307 0.00140065 3.96588e-25)
(0.107368 0.0011558 -6.58607e-26)
(0.106654 0.00238549 1.31766e-23)
(0.106758 0.00218846 -1.20878e-23)
(0.106852 0.00198473 4.89092e-24)
(0.106938 0.00177411 1.25936e-25)
(0.107016 0.0015565 6.86692e-24)
(0.107084 0.0013319 -1.10539e-25)
(0.107142 0.00110035 -9.4673e-26)
(0.106462 0.00226427 9.01901e-25)
(0.106562 0.00207787 1.20087e-23)
(0.106652 0.00188515 -1.14913e-23)
(0.106735 0.00168595 5.38691e-25)
(0.106809 0.00148015 -3.64587e-24)
(0.106873 0.00126773 2.29096e-25)
(0.106928 0.00104862 3.58703e-25)
(0.10628 0.00215082 -8.38048e-24)
(0.106376 0.00197431 8.39992e-25)
(0.106463 0.00179184 9.15586e-24)
(0.106542 0.00160329 -1.18038e-25)
(0.106613 0.00140851 2.24203e-24)
(0.106675 0.00120743 -1.53652e-25)
(0.106727 0.000999959 -8.32521e-27)
(0.106107 0.0020444 9.36975e-24)
(0.106199 0.00187707 2.92223e-24)
(0.106284 0.00170412 -3.26101e-24)
(0.10636 0.00152542 -6.78772e-25)
(0.106428 0.00134088 -3.61591e-25)
(0.106488 0.00115036 -4.07092e-25)
(0.106538 0.00095376 -1.85297e-25)
(0.105942 0.00194437 1.0607e-24)
(0.106032 0.00178562 -4.99961e-24)
(0.106113 0.00162147 -8.4872e-25)
(0.106187 0.00145189 1.59805e-24)
(0.106253 0.00127681 -2.06556e-24)
(0.106311 0.00109609 -2.84595e-25)
(0.106359 0.000909582 -2.68099e-25)
(0.0999152 0.00528914 0)
(0.100024 0.00544431 0)
(0.100143 0.00560171 0)
(0.100272 0.00576094 0)
(0.100412 0.00592153 0)
(0.100564 0.00608295 0)
(0.100727 0.0062446 0)
(0.100904 0.00640581 0)
(0.101094 0.00656581 0)
(0.101298 0.00672375 0)
(0.101516 0.00687869 0)
(0.10175 0.00702957 0)
(0.102 0.00717525 0)
(0.102265 0.00731444 0)
(0.102547 0.00744578 0)
(0.102846 0.00756776 0)
(0.103162 0.00767878 0)
(0.103495 0.00777712 0)
(0.103845 0.00786096 0)
(0.104211 0.00792838 0)
(0.104593 0.0079774 0)
(0.104991 0.00800596 0)
(0.105404 0.00801196 0)
(0.105829 0.00799328 0)
(0.106266 0.00794782 0)
(0.106714 0.00787353 0)
(0.107169 0.00776843 0)
(0.10763 0.00763068 0)
(0.108094 0.0074586 0)
(0.108559 0.00725069 0)
(0.109019 0.00700559 0)
(0.109473 0.00672169 0)
(0.109916 0.00639569 0)
(0.110364 0.00601587 0)
(0.100065 0.00518328 0)
(0.100176 0.00532926 0)
(0.100297 0.0054769 0)
(0.100427 0.00562577 0)
(0.100568 0.00577541 0)
(0.100719 0.00592528 0)
(0.100883 0.00607479 0)
(0.101058 0.00622326 0)
(0.101246 0.00636994 0)
(0.101447 0.00651402 0)
(0.101662 0.00665457 0)
(0.101891 0.00679059 0)
(0.102134 0.00692097 0)
(0.102392 0.00704453 0)
(0.102666 0.00715996 0)
(0.102954 0.00726587 0)
(0.103258 0.00736077 0)
(0.103578 0.00744308 0)
(0.103912 0.00751114 0)
(0.104261 0.00756321 0)
(0.104625 0.0075975 0)
(0.105001 0.00761216 0)
(0.105391 0.00760533 0)
(0.105791 0.00757515 0)
(0.106202 0.00751978 0)
(0.10662 0.00743744 0)
(0.107045 0.00732643 0)
(0.107474 0.00718519 0)
(0.107905 0.00701233 0)
(0.108334 0.00680661 0)
(0.108759 0.00656694 0)
(0.109177 0.006292 0)
(0.109584 0.00597907 0)
(0.109993 0.00561802 0)
(0.100206 0.00507557 0)
(0.100319 0.0052127 0)
(0.10044 0.00535096 0)
(0.100571 0.00548992 0)
(0.100712 0.00562913 0)
(0.100863 0.00576804 0)
(0.101026 0.00590606 0)
(0.101199 0.00604254 0)
(0.101385 0.00617674 0)
(0.101582 0.00630786 0)
(0.101793 0.00643503 0)
(0.102017 0.00655728 0)
(0.102254 0.00667357 0)
(0.102504 0.00678279 0)
(0.102769 0.0068837 0)
(0.103047 0.00697503 0)
(0.103339 0.00705538 0)
(0.103645 0.00712332 0)
(0.103965 0.00717733 0)
(0.104297 0.00721584 0)
(0.104642 0.00723722 0)
(0.104999 0.00723984 0)
(0.105367 0.00722204 0)
(0.105744 0.00718219 0)
(0.106129 0.00711867 0)
(0.106521 0.00702994 0)
(0.106917 0.00691456 0)
(0.107316 0.00677121 0)
(0.107716 0.00659872 0)
(0.108114 0.00639609 0)
(0.108507 0.00616245 0)
(0.108891 0.00589673 0)
(0.109265 0.00559666 0)
(0.109641 0.00525357 0)
(0.100339 0.0049665 0)
(0.100452 0.00509513 0)
(0.100574 0.00522441 0)
(0.100705 0.00535393 0)
(0.100846 0.00548322 0)
(0.100996 0.00561175 0)
(0.101157 0.00573894 0)
(0.101329 0.00586414 0)
(0.101511 0.00598665 0)
(0.101705 0.00610569 0)
(0.101911 0.00622044 0)
(0.102129 0.00632997 0)
(0.10236 0.0064333 0)
(0.102602 0.00652938 0)
(0.102858 0.00661708 0)
(0.103126 0.00669519 0)
(0.103407 0.00676245 0)
(0.1037 0.00681753 0)
(0.104005 0.00685905 0)
(0.104321 0.0068856 0)
(0.104649 0.00689571 0)
(0.104986 0.00688794 0)
(0.105333 0.0068608 0)
(0.105688 0.00681285 0)
(0.10605 0.00674271 0)
(0.106416 0.00664903 0)
(0.106787 0.00653059 0)
(0.107158 0.00638626 0)
(0.10753 0.00621508 0)
(0.107898 0.00601625 0)
(0.108261 0.00578906 0)
(0.108616 0.00553268 0)
(0.108961 0.00524521 0)
(0.109305 0.00491923 0)
(0.100463 0.00485654 0)
(0.100577 0.00497701 0)
(0.100699 0.00509773 0)
(0.10083 0.00521826 0)
(0.10097 0.00533815 0)
(0.101119 0.00545687 0)
(0.101278 0.00557385 0)
(0.101447 0.00568848 0)
(0.101626 0.00580006 0)
(0.101816 0.00590787 0)
(0.102017 0.0060111 0)
(0.10223 0.00610889 0)
(0.102453 0.00620032 0)
(0.102688 0.0062844 0)
(0.102935 0.00636007 0)
(0.103193 0.00642623 0)
(0.103462 0.00648171 0)
(0.103742 0.00652531 0)
(0.104033 0.00655576 0)
(0.104334 0.00657179 0)
(0.104645 0.0065721 0)
(0.104964 0.00655538 0)
(0.105292 0.00652033 0)
(0.105626 0.00646569 0)
(0.105965 0.00639023 0)
(0.106309 0.00629283 0)
(0.106655 0.00617241 0)
(0.107001 0.00602805 0)
(0.107346 0.00585894 0)
(0.107688 0.00566444 0)
(0.108024 0.00544401 0)
(0.108352 0.00519698 0)
(0.10867 0.00492179 0)
(0.108986 0.00461209 0)
(0.10058 0.00474608 0)
(0.100694 0.00485876 0)
(0.100816 0.00497131 0)
(0.100946 0.00508331 0)
(0.101085 0.0051943 0)
(0.101232 0.00530377 0)
(0.101389 0.00541116 0)
(0.101555 0.00551589 0)
(0.101731 0.00561728 0)
(0.101916 0.00571465 0)
(0.102112 0.00580723 0)
(0.102318 0.00589421 0)
(0.102535 0.00597472 0)
(0.102762 0.00604784 0)
(0.103 0.0061126 0)
(0.103248 0.00616797 0)
(0.103506 0.00621289 0)
(0.103774 0.00624624 0)
(0.104051 0.0062669 0)
(0.104338 0.00627371 0)
(0.104632 0.00626551 0)
(0.104935 0.00624112 0)
(0.105244 0.00619942 0)
(0.105558 0.00613929 0)
(0.105877 0.00605967 0)
(0.106199 0.00595957 0)
(0.106522 0.0058381 0)
(0.106845 0.00569448 0)
(0.107166 0.00552805 0)
(0.107484 0.0053383 0)
(0.107795 0.00512481 0)
(0.108098 0.00488706 0)
(0.108391 0.00462379 0)
(0.108682 0.00432958 0)
(0.100689 0.00463549 0)
(0.100803 0.00474075 0)
(0.100924 0.00484554 0)
(0.101053 0.00494945 0)
(0.101191 0.00505203 0)
(0.101336 0.00515279 0)
(0.10149 0.00525119 0)
(0.101653 0.00534666 0)
(0.101825 0.00543857 0)
(0.102006 0.00552625 0)
(0.102197 0.00560899 0)
(0.102397 0.00568602 0)
(0.102607 0.00575654 0)
(0.102826 0.00581968 0)
(0.103055 0.00587454 0)
(0.103293 0.00592018 0)
(0.10354 0.00595563 0)
(0.103796 0.00597987 0)
(0.104061 0.00599189 0)
(0.104333 0.00599064 0)
(0.104612 0.00597508 0)
(0.104898 0.00594417 0)
(0.10519 0.00589692 0)
(0.105486 0.00583234 0)
(0.105786 0.00574953 0)
(0.106087 0.00564763 0)
(0.10639 0.00552588 0)
(0.106691 0.00538364 0)
(0.10699 0.00522037 0)
(0.107285 0.00503566 0)
(0.107574 0.0048292 0)
(0.107855 0.00460062 0)
(0.108125 0.00434888 0)
(0.108393 0.00406938 0)
(0.100791 0.00452511 0)
(0.100904 0.0046233 0)
(0.101025 0.00472072 0)
(0.101153 0.00481697 0)
(0.101288 0.00491163 0)
(0.101431 0.0050042 0)
(0.101583 0.00509418 0)
(0.101742 0.00518101 0)
(0.10191 0.0052641 0)
(0.102087 0.00534281 0)
(0.102272 0.00541648 0)
(0.102466 0.00548438 0)
(0.102669 0.00554575 0)
(0.10288 0.00559981 0)
(0.1031 0.00564572 0)
(0.103329 0.0056826 0)
(0.103566 0.00570958 0)
(0.10381 0.00572574 0)
(0.104062 0.00573015 0)
(0.104321 0.00572187 0)
(0.104586 0.00569998 0)
(0.104857 0.00566355 0)
(0.105132 0.00561171 0)
(0.105411 0.0055436 0)
(0.105692 0.00545843 0)
(0.105975 0.00535548 0)
(0.106258 0.00523409 0)
(0.10654 0.00509374 0)
(0.106819 0.004934 0)
(0.107093 0.00475455 0)
(0.107361 0.00455516 0)
(0.107621 0.00433557 0)
(0.107872 0.00409495 0)
(0.108118 0.00382942 0)
(0.100886 0.00441523 0)
(0.100999 0.00450669 0)
(0.101118 0.00459714 0)
(0.101245 0.00468616 0)
(0.101378 0.00477335 0)
(0.101519 0.00485825 0)
(0.101667 0.00494035 0)
(0.101823 0.00501913 0)
(0.101987 0.00509403 0)
(0.102159 0.00516445 0)
(0.102339 0.00522975 0)
(0.102526 0.00528927 0)
(0.102722 0.00534231 0)
(0.102926 0.00538811 0)
(0.103138 0.00542592 0)
(0.103357 0.00545494 0)
(0.103583 0.00547437 0)
(0.103817 0.00548336 0)
(0.104057 0.00548109 0)
(0.104303 0.0054667 0)
(0.104554 0.00543939 0)
(0.10481 0.00539833 0)
(0.10507 0.00534274 0)
(0.105333 0.00527189 0)
(0.105598 0.00518508 0)
(0.105863 0.0050817 0)
(0.106128 0.00496121 0)
(0.106391 0.00482317 0)
(0.106651 0.00466723 0)
(0.106907 0.00449317 0)
(0.107156 0.00430084 0)
(0.107397 0.00409004 0)
(0.107629 0.00386013 0)
(0.107856 0.00360786 0)
(0.100975 0.00430609 0)
(0.101087 0.00439119 0)
(0.101205 0.00447503 0)
(0.101329 0.00455724 0)
(0.10146 0.00463742 0)
(0.101598 0.00471512 0)
(0.101744 0.00478986 0)
(0.101896 0.00486115 0)
(0.102056 0.00492846 0)
(0.102223 0.00499122 0)
(0.102397 0.00504883 0)
(0.102579 0.00510068 0)
(0.102768 0.0051461 0)
(0.102964 0.00518442 0)
(0.103167 0.00521492 0)
(0.103377 0.00523689 0)
(0.103594 0.00524958 0)
(0.103817 0.00525225 0)
(0.104045 0.00524412 0)
(0.104279 0.00522446 0)
(0.104518 0.00519253 0)
(0.10476 0.00514761 0)
(0.105005 0.00508901 0)
(0.105253 0.00501609 0)
(0.105502 0.00492826 0)
(0.105751 0.00482499 0)
(0.106 0.00470583 0)
(0.106246 0.00457043 0)
(0.106489 0.00441851 0)
(0.106727 0.00424991 0)
(0.106959 0.00406455 0)
(0.107183 0.0038623 0)
(0.107398 0.00364269 0)
(0.107608 0.00340302 0)
(0.101057 0.00419794 0)
(0.101168 0.004277 0)
(0.101284 0.00435461 0)
(0.101407 0.00443041 0)
(0.101536 0.004504 0)
(0.101671 0.00457496 0)
(0.101813 0.00464285 0)
(0.101961 0.00470718 0)
(0.102117 0.00476745 0)
(0.102279 0.00482314 0)
(0.102448 0.00487369 0)
(0.102623 0.00491851 0)
(0.102806 0.00495701 0)
(0.102995 0.00498854 0)
(0.10319 0.00501247 0)
(0.103391 0.00502812 0)
(0.103598 0.00503483 0)
(0.103811 0.00503191 0)
(0.104029 0.00501869 0)
(0.104251 0.00499448 0)
(0.104477 0.00495865 0)
(0.104707 0.00491054 0)
(0.104938 0.00484957 0)
(0.105172 0.00477517 0)
(0.105406 0.00468683 0)
(0.10564 0.00458411 0)
(0.105873 0.00446665 0)
(0.106104 0.00433413 0)
(0.106331 0.00418638 0)
(0.106553 0.00402327 0)
(0.106769 0.00384477 0)
(0.106977 0.00365083 0)
(0.107177 0.0034411 0)
(0.107371 0.00321338 0)
(0.101134 0.00409097 0)
(0.101243 0.00416432 0)
(0.101358 0.00423606 0)
(0.101478 0.00430582 0)
(0.101605 0.00437324 0)
(0.101737 0.00443791 0)
(0.101875 0.0044994 0)
(0.10202 0.00455727 0)
(0.102171 0.00461104 0)
(0.102328 0.00466022 0)
(0.102492 0.00470428 0)
(0.102662 0.00474269 0)
(0.102837 0.00477489 0)
(0.103019 0.00480028 0)
(0.103206 0.00481829 0)
(0.103399 0.0048283 0)
(0.103597 0.0048297 0)
(0.1038 0.00482188 0)
(0.104008 0.00480422 0)
(0.104219 0.00477613 0)
(0.104433 0.00473701 0)
(0.10465 0.00468632 0)
(0.10487 0.00462353 0)
(0.10509 0.00454815 0)
(0.105311 0.00445975 0)
(0.105531 0.00435795 0)
(0.105749 0.00424246 0)