/*--------------------------------*- C++ -*----------------------------------*\
| =========                 |                                                 |
| \\      /  F ield         | OpenFOAM: The Open Source CFD Toolbox           |
|  \\    /   O peration     | Version:  2412                                  |
|   \\  /    A nd           | Website:  www.openfoam.com                      |
|    \\/     M anipulation  |                                                 |
\*---------------------------------------------------------------------------*/
FoamFile
{
    version     2.0;
    format      ascii;
    arch        "LSB;label=32;scalar=64";
    class       volVectorField;
    location    "28.5";
    object      U;
}
// * * * * * * * * * * * * * * * * * * * * * * * * * * * * * * * * * * * * * //

dimensions      [0 1 -1 0 0 0 0];

internalField   nonuniform List<vector> 
5285
(
(0.10428 0.00611801 0)
(0.104102 0.00610222 0)
(0.103925 0.00607987 0)
(0.103747 0.00605089 0)
(0.10357 0.00601531 0)
(0.103395 0.00597315 0)
(0.10322 0.0059245 0)
(0.103047 0.00586948 0)
(0.102876 0.00580828 0)
(0.102708 0.00574109 0)
(0.102542 0.00566814 0)
(0.102379 0.0055897 0)
(0.102219 0.00550606 0)
(0.102063 0.00541752 0)
(0.101911 0.00532438 0)
(0.101763 0.00522697 0)
(0.101619 0.00512559 0)
(0.101481 0.00502056 0)
(0.101347 0.0049122 0)
(0.101218 0.0048008 0)
(0.101095 0.00468666 0)
(0.100977 0.00457009 0)
(0.100865 0.00445138 0)
(0.100759 0.00433082 0)
(0.100658 0.00420873 0)
(0.100563 0.00408539 0)
(0.100474 0.00396111 0)
(0.10039 0.00383622 0)
(0.100312 0.003711 0)
(0.10024 0.00358579 0)
(0.100174 0.00346087 0)
(0.100113 0.00333656 0)
(0.100057 0.00321314 0)
(0.100006 0.00309088 0)
(0.099961 0.00297005 0)
(0.0999203 0.0028509 0)
(0.0998844 0.00273364 0)
(0.099853 0.00261847 0)
(0.0998258 0.00250559 0)
(0.0998028 0.00239514 0)
(0.0997835 0.00228726 0)
(0.0997679 0.00218206 0)
(0.0997557 0.00207961 0)
(0.0997466 0.00198 0)
(0.104266 0.00630772 0)
(0.104083 0.00628833 0)
(0.1039 0.0062621 0)
(0.103717 0.00622903 0)
(0.103536 0.00618911 0)
(0.103355 0.00614239 0)
(0.103176 0.00608898 0)
(0.102998 0.006029 0)
(0.102823 0.00596265 0)
(0.102651 0.00589014 0)
(0.102481 0.00581174 0)
(0.102315 0.00572771 0)
(0.102152 0.00563838 0)
(0.101993 0.00554405 0)
(0.101838 0.00544507 0)
(0.101688 0.00534177 0)
(0.101542 0.00523449 0)
(0.101402 0.00512357 0)
(0.101267 0.00500934 0)
(0.101137 0.00489214 0)
(0.101014 0.00477228 0)
(0.100895 0.00465009 0)
(0.100783 0.00452588 0)
(0.100677 0.00439996 0)
(0.100576 0.00427265 0)
(0.100482 0.00414427 0)
(0.100394 0.00401514 0)
(0.100312 0.00388557 0)
(0.100235 0.00375589 0)
(0.100165 0.00362641 0)
(0.1001 0.00349745 0)
(0.100041 0.0033693 0)
(0.0999871 0.00324226 0)
(0.0999387 0.00311661 0)
(0.0998955 0.00299259 0)
(0.0998571 0.00287046 0)
(0.0998235 0.00275044 0)
(0.0997945 0.00263271 0)
(0.0997697 0.00251747 0)
(0.099749 0.00240486 0)
(0.0997322 0.00229502 0)
(0.099719 0.00218803 0)
(0.0997091 0.00208399 0)
(0.0997023 0.00198295 0)
(0.104249 0.00650357 0)
(0.10406 0.00648027 0)
(0.103871 0.00644989 0)
(0.103683 0.00641241 0)
(0.103496 0.00636785 0)
(0.10331 0.00631626 0)
(0.103127 0.00625777 0)
(0.102945 0.00619252 0)
(0.102765 0.00612071 0)
(0.102589 0.00604259 0)
(0.102415 0.00595842 0)
(0.102245 0.0058685 0)
(0.102079 0.00577317 0)
(0.101918 0.00567276 0)
(0.101761 0.00556764 0)
(0.101608 0.00545817 0)
(0.101461 0.00534471 0)
(0.101319 0.00522763 0)
(0.101183 0.00510729 0)
(0.101052 0.00498404 0)
(0.100928 0.00485823 0)
(0.10081 0.0047302 0)
(0.100697 0.00460028 0)
(0.100591 0.00446881 0)
(0.100492 0.00433612 0)
(0.100398 0.00420255 0)
(0.100311 0.00406843 0)
(0.10023 0.00393407 0)
(0.100156 0.00379983 0)
(0.100087 0.00366601 0)
(0.100024 0.00353293 0)
(0.0999669 0.00340089 0)
(0.0999154 0.00327019 0)
(0.0998693 0.00314111 0)
(0.0998283 0.00301389 0)
(0.0997924 0.00288878 0)
(0.0997613 0.00276599 0)
(0.0997347 0.00264572 0)
(0.0997125 0.00252814 0)
(0.0996943 0.0024134 0)
(0.09968 0.00230161 0)
(0.0996693 0.00219288 0)
(0.0996618 0.00208727 0)
(0.0996575 0.00198484 0)
(0.104228 0.00670578 0)
(0.104033 0.00667825 0)
(0.103838 0.00664338 0)
(0.103645 0.00660117 0)
(0.103452 0.00655164 0)
(0.103261 0.00649486 0)
(0.103072 0.00643096 0)
(0.102886 0.00636011 0)
(0.102702 0.00628252 0)
(0.102522 0.00619844 0)
(0.102344 0.00610818 0)
(0.102171 0.00601205 0)
(0.102002 0.0059104 0)
(0.101838 0.0058036 0)
(0.101678 0.00569204 0)
(0.101524 0.0055761 0)
(0.101375 0.00545618 0)
(0.101231 0.00533266 0)
(0.101094 0.00520594 0)
(0.100963 0.00507639 0)
(0.100838 0.00494439 0)
(0.10072 0.00481029 0)
(0.100608 0.00467446 0)
(0.100502 0.00453726 0)
(0.100404 0.00439902 0)
(0.100311 0.00426011 0)
(0.100226 0.00412086 0)
(0.100146 0.00398161 0)
(0.100073 0.0038427 0)
(0.100006 0.00370445 0)
(0.0999457 0.00356719 0)
(0.0998909 0.00343122 0)
(0.0998417 0.00329683 0)
(0.099798 0.0031643 0)
(0.0997596 0.00303386 0)
(0.0997263 0.00290577 0)
(0.0996978 0.00278023 0)
(0.0996738 0.00265743 0)
(0.0996542 0.00253753 0)
(0.0996387 0.00242068 0)
(0.099627 0.00230699 0)
(0.0996188 0.00219655 0)
(0.0996139 0.00208941 0)
(0.099612 0.00198564 0)
(0.104202 0.00691457 0)
(0.104001 0.00688248 0)
(0.1038 0.00684278 0)
(0.103601 0.00679548 0)
(0.103403 0.00674063 0)
(0.103207 0.0066783 0)
(0.103013 0.00660864 0)
(0.102822 0.00653182 0)
(0.102633 0.00644809 0)
(0.102449 0.00635772 0)
(0.102268 0.00626102 0)
(0.102091 0.00615833 0)
(0.101919 0.00605003 0)
(0.101752 0.00593651 0)
(0.10159 0.00581819 0)
(0.101434 0.00569547 0)
(0.101283 0.00556878 0)
(0.101139 0.00543854 0)
(0.101001 0.00530517 0)
(0.100869 0.00516906 0)
(0.100744 0.00503062 0)
(0.100626 0.00489024 0)
(0.100514 0.0047483 0)
(0.10041 0.00460517 0)
(0.100312 0.00446122 0)
(0.100221 0.00431681 0)
(0.100137 0.00417231 0)
(0.100059 0.00402805 0)
(0.0999882 0.00388439 0)
(0.0999236 0.00374164 0)
(0.0998651 0.00360014 0)
(0.0998127 0.0034602 0)
(0.099766 0.00332208 0)
(0.099725 0.00318608 0)
(0.0996893 0.00305243 0)
(0.0996587 0.00292137 0)
(0.0996329 0.00279309 0)
(0.0996117 0.00266778 0)
(0.0995949 0.00254559 0)
(0.0995821 0.00242667 0)
(0.0995731 0.00231111 0)
(0.0995676 0.002199 0)
(0.0995653 0.00209039 0)
(0.099566 0.00198532 0)
(0.104172 0.00713019 0)
(0.103964 0.00709316 0)
(0.103757 0.00704826 0)
(0.103552 0.0069955 0)
(0.103348 0.00693495 0)
(0.103146 0.00686668 0)
(0.102947 0.00679088 0)
(0.102751 0.00670772 0)
(0.102559 0.00661748 0)
(0.10237 0.00652043 0)
(0.102186 0.00641692 0)
(0.102006 0.00630731 0)
(0.101831 0.00619201 0)
(0.101661 0.00607142 0)
(0.101497 0.005946 0)
(0.101339 0.00581618 0)
(0.101187 0.00568241 0)
(0.101041 0.00554515 0)
(0.100902 0.00540484 0)
(0.10077 0.00526191 0)
(0.100645 0.00511679 0)
(0.100527 0.0049699 0)
(0.100417 0.00482163 0)
(0.100313 0.00467239 0)
(0.100216 0.00452256 0)
(0.100127 0.00437252 0)
(0.100045 0.00422264 0)
(0.0999692 0.00407327 0)
(0.0999004 0.00392476 0)
(0.0998381 0.00377745 0)
(0.0997822 0.00363166 0)
(0.0997324 0.0034877 0)
(0.0996884 0.00334585 0)
(0.0996502 0.00320637 0)
(0.0996173 0.00306951 0)
(0.0995896 0.00293548 0)
(0.0995667 0.00280448 0)
(0.0995484 0.00267669 0)
(0.0995345 0.00255226 0)
(0.0995245 0.0024313 0)
(0.0995184 0.00231392 0)
(0.0995156 0.00220019 0)
(0.0995161 0.00209016 0)
(0.0995194 0.00198385 0)
(0.104136 0.00735288 0)
(0.103921 0.00731052 0)
(0.103708 0.00726002 0)
(0.103496 0.00720139 0)
(0.103287 0.00713472 0)
(0.10308 0.00706012 0)
(0.102876 0.00697775 0)
(0.102675 0.00688785 0)
(0.102478 0.00679069 0)
(0.102285 0.00668657 0)
(0.102097 0.00657586 0)
(0.101914 0.00645895 0)
(0.101736 0.00633626 0)
(0.101563 0.00620824 0)
(0.101397 0.00607537 0)
(0.101237 0.0059381 0)
(0.101084 0.00579694 0)
(0.100938 0.00565235 0)
(0.100798 0.00550481 0)
(0.100666 0.00535479 0)
(0.100542 0.00520274 0)
(0.100424 0.0050491 0)
(0.100315 0.0048943 0)
(0.100212 0.00473877 0)
(0.100117 0.0045829 0)
(0.10003 0.00442708 0)
(0.0999494 0.00427169 0)
(0.0998761 0.00411711 0)
(0.0998097 0.00396368 0)
(0.09975 0.00381175 0)
(0.0996968 0.00366163 0)
(0.0996498 0.00351363 0)
(0.0996088 0.00336802 0)
(0.0995736 0.00322506 0)
(0.0995437 0.003085 0)
(0.099519 0.00294803 0)
(0.0994992 0.00281434 0)
(0.099484 0.00268411 0)
(0.0994731 0.00255746 0)
(0.0994661 0.00243452 0)
(0.0994629 0.00231537 0)
(0.099463 0.00220008 0)
(0.0994662 0.00208868 0)
(0.0994723 0.00198119 0)
(0.104094 0.00758289 0)
(0.103873 0.00753478 0)
(0.103653 0.00747823 0)
(0.103435 0.00741331 0)
(0.103219 0.00734008 0)
(0.103007 0.0072587 0)
(0.102797 0.00716934 0)
(0.102592 0.00707226 0)
(0.10239 0.00696774 0)
(0.102193 0.00685612 0)
(0.102001 0.00673779 0)
(0.101815 0.00661317 0)
(0.101634 0.0064827 0)
(0.10146 0.00634687 0)
(0.101292 0.00620617 0)
(0.10113 0.00606111 0)
(0.100976 0.00591221 0)
(0.100829 0.00575997 0)
(0.100689 0.00560491 0)
(0.100557 0.00544752 0)
(0.100433 0.00528828 0)
(0.100317 0.00512767 0)
(0.100208 0.00496614 0)
(0.100107 0.00480413 0)
(0.100014 0.00464205 0)
(0.0999287 0.00448032 0)
(0.0998506 0.00431932 0)
(0.0997798 0.00415944 0)
(0.0997161 0.00400102 0)
(0.0996593 0.0038444 0)
(0.099609 0.00368992 0)
(0.0995651 0.00353785 0)
(0.0995273 0.00338848 0)
(0.0994952 0.00324206 0)
(0.0994685 0.00309881 0)
(0.0994471 0.00295893 0)
(0.0994305 0.00282259 0)
(0.0994184 0.00268996 0)
(0.0994107 0.00256115 0)
(0.0994068 0.00243628 0)
(0.0994066 0.00231542 0)
(0.0994097 0.00219862 0)
(0.0994159 0.00208591 0)
(0.0994247 0.0019773 0)
(0.104046 0.00782047 0)
(0.103818 0.00776614 0)
(0.103591 0.0077031 0)
(0.103367 0.0076314 0)
(0.103145 0.00755116 0)
(0.102926 0.00746252 0)
(0.102712 0.0073657 0)
(0.102501 0.00726096 0)
(0.102295 0.00714863 0)
(0.102094 0.00702906 0)
(0.101899 0.00690267 0)
(0.101709 0.0067699 0)
(0.101526 0.00663123 0)
(0.101349 0.00648718 0)
(0.101179 0.00633827 0)
(0.101017 0.00618505 0)
(0.100861 0.00602806 0)
(0.100714 0.00586785 0)
(0.100574 0.00570496 0)
(0.100443 0.00553992 0)
(0.100319 0.00537324 0)
(0.100204 0.00520543 0)
(0.100097 0.00503696 0)
(0.0999981 0.00486829 0)
(0.099907 0.00469985 0)
(0.0998239 0.00453208 0)
(0.0997484 0.00436536 0)
(0.0996804 0.00420008 0)
(0.0996197 0.00403661 0)
(0.0995659 0.00387527 0)
(0.0995189 0.00371639 0)
(0.0994782 0.00356025 0)
(0.0994437 0.00340713 0)
(0.099415 0.00325725 0)
(0.0993918 0.00311084 0)
(0.0993737 0.00296809 0)
(0.0993605 0.00282915 0)
(0.0993518 0.00269417 0)
(0.0993473 0.00256326 0)
(0.0993466 0.00243651 0)
(0.0993496 0.002314 0)
(0.0993558 0.00219577 0)
(0.0993649 0.00208182 0)
(0.0993766 0.00197215 0)
(0.103992 0.00806586 0)
(0.103755 0.00800483 0)
(0.103522 0.00793479 0)
(0.103291 0.00785582 0)
(0.103063 0.00776805 0)
(0.102839 0.00767165 0)
(0.102618 0.00756686 0)
(0.102403 0.00745398 0)
(0.102193 0.00733334 0)
(0.101988 0.00720534 0)
(0.101789 0.00707041 0)
(0.101596 0.00692903 0)
(0.10141 0.00678173 0)
(0.101231 0.00662903 0)
(0.10106 0.00647151 0)
(0.100896 0.00630973 0)
(0.10074 0.0061443 0)
(0.100593 0.00597578 0)
(0.100454 0.00580475 0)
(0.100323 0.00563178 0)
(0.1002 0.00545741 0)
(0.100087 0.00528216 0)
(0.0999813 0.00510655 0)
(0.0998844 0.00493104 0)
(0.0997958 0.0047561 0)
(0.0997153 0.00458216 0)
(0.0996427 0.00440962 0)
(0.0995778 0.00423888 0)
(0.0995202 0.00407029 0)
(0.0994698 0.0039042 0)
(0.0994262 0.00374091 0)
(0.0993891 0.0035807 0)
(0.0993582 0.00342383 0)
(0.099333 0.00327054 0)
(0.0993134 0.00312101 0)
(0.0992989 0.00297542 0)
(0.0992892 0.00283393 0)
(0.099284 0.00269666 0)
(0.0992829 0.00256371 0)
(0.0992857 0.00243517 0)
(0.0992919 0.00231108 0)
(0.0993012 0.00219148 0)
(0.0993134 0.00207636 0)
(0.0993282 0.00196572 0)
(0.103929 0.00831931 0)
(0.103685 0.00825106 0)
(0.103444 0.00817348 0)
(0.103207 0.0080867 0)
(0.102972 0.00799086 0)
(0.102742 0.00788616 0)
(0.102517 0.00777287 0)
(0.102296 0.0076513 0)
(0.102081 0.00752183 0)
(0.101873 0.00738488 0)
(0.10167 0.00724092 0)
(0.101475 0.00709045 0)
(0.101286 0.00693404 0)
(0.101106 0.00677225 0)
(0.100933 0.00660569 0)
(0.100769 0.00643497 0)
(0.100613 0.00626072 0)
(0.100465 0.00608354 0)
(0.100326 0.00590406 0)
(0.100197 0.00572287 0)
(0.100076 0.00554055 0)
(0.0999638 0.00535764 0)
(0.0998607 0.00517469 0)
(0.0997662 0.00499218 0)
(0.0996803 0.00481059 0)
(0.0996028 0.00463036 0)
(0.0995334 0.00445192 0)
(0.0994718 0.00427565 0)
(0.0994178 0.00410191 0)
(0.099371 0.00393104 0)
(0.0993311 0.00376333 0)
(0.0992978 0.00359906 0)
(0.0992706 0.00343848 0)
(0.0992493 0.0032818 0)
(0.0992335 0.0031292 0)
(0.0992227 0.00298084 0)
(0.0992168 0.00283686 0)
(0.0992152 0.00269737 0)
(0.0992177 0.00256245 0)
(0.0992239 0.00243218 0)
(0.0992335 0.00230659 0)
(0.0992461 0.0021857 0)
(0.0992615 0.0020695 0)
(0.0992793 0.00195796 0)
(0.103858 0.00858106 0)
(0.103607 0.00850501 0)
(0.103359 0.00841933 0)
(0.103114 0.00832416 0)
(0.102873 0.00821967 0)
(0.102637 0.00810609 0)
(0.102406 0.00798372 0)
(0.102181 0.0078529 0)
(0.101962 0.00771405 0)
(0.101749 0.0075676 0)
(0.101543 0.00741407 0)
(0.101345 0.00725401 0)
(0.101155 0.007088 0)
(0.100972 0.00691666 0)
(0.100799 0.00674062 0)
(0.100634 0.00656054 0)
(0.100478 0.00637709 0)
(0.100331 0.00619091 0)
(0.100193 0.00600265 0)
(0.100065 0.00581295 0)
(0.0999454 0.00562242 0)
(0.0998356 0.00543163 0)
(0.099735 0.00524114 0)
(0.0996434 0.00505147 0)
(0.0995606 0.0048631 0)
(0.0994864 0.00467649 0)
(0.0994205 0.00449206 0)
(0.0993626 0.00431021 0)
(0.0993124 0.00413128 0)
(0.0992695 0.00395562 0)
(0.0992336 0.00378351 0)
(0.0992043 0.0036152 0)
(0.0991812 0.00345094 0)
(0.0991639 0.00329092 0)
(0.099152 0.00313531 0)
(0.0991452 0.00298424 0)
(0.0991431 0.00283785 0)
(0.0991454 0.00269621 0)
(0.0991516 0.00255941 0)
(0.0991614 0.0024275 0)
(0.0991745 0.00230049 0)
(0.0991905 0.0021784 0)
(0.0992091 0.00206119 0)
(0.09923 0.00194883 0)
(0.103779 0.00885132 0)
(0.103519 0.00876687 0)
(0.103263 0.00867247 0)
(0.103012 0.0085683 0)
(0.102764 0.00845454 0)
(0.102522 0.00833147 0)
(0.102286 0.00819941 0)
(0.102056 0.00805873 0)
(0.101832 0.0079099 0)
(0.101616 0.00775338 0)
(0.101407 0.00758973 0)
(0.101207 0.00741953 0)
(0.101014 0.00724341 0)
(0.100831 0.00706203 0)
(0.100656 0.00687606 0)
(0.100491 0.0066862 0)
(0.100335 0.00649315 0)
(0.100189 0.0062976 0)
(0.100053 0.00610025 0)
(0.0999261 0.00590176 0)
(0.0998092 0.00570276 0)
(0.0997019 0.00550387 0)
(0.0996042 0.00530566 0)
(0.0995158 0.00510867 0)
(0.0994364 0.00491339 0)
(0.0993659 0.00472031 0)
(0.0993039 0.00452983 0)
(0.09925 0.00434235 0)
(0.0992039 0.00415823 0)
(0.0991653 0.00397778 0)
(0.0991336 0.00380128 0)
(0.0991086 0.00362898 0)
(0.0990898 0.00346109 0)
(0.0990767 0.00329779 0)
(0.0990691 0.00313923 0)
(0.0990664 0.00298554 0)
(0.0990684 0.00283681 0)
(0.0990745 0.00269312 0)
(0.0990846 0.00255453 0)
(0.0990982 0.00242106 0)
(0.0991149 0.00229273 0)
(0.0991344 0.00216952 0)
(0.0991563 0.0020514 0)
(0.0991804 0.00193832 0)
(0.103689 0.00913027 0)
(0.103421 0.00903678 0)
(0.103158 0.00893301 0)
(0.102899 0.00881917 0)
(0.102645 0.00869549 0)
(0.102397 0.00856227 0)
(0.102155 0.00841987 0)
(0.101921 0.0082687 0)
(0.101693 0.00810926 0)
(0.101473 0.00794206 0)
(0.101261 0.0077677 0)
(0.101059 0.00758681 0)
(0.100865 0.00740004 0)
(0.10068 0.00720811 0)
(0.100505 0.00701174 0)
(0.10034 0.00681166 0)
(0.100185 0.00660861 0)
(0.10004 0.00640334 0)
(0.0999056 0.00619657 0)
(0.0997811 0.00598899 0)
(0.0996668 0.00578128 0)
(0.0995626 0.00557408 0)
(0.0994681 0.00536797 0)
(0.0993833 0.00516352 0)
(0.0993078 0.00496123 0)
(0.0992413 0.00476159 0)
(0.0991836 0.00456501 0)
(0.0991341 0.00437189 0)
(0.0990925 0.00418256 0)
(0.0990583 0.00399734 0)
(0.0990312 0.00381649 0)
(0.0990107 0.00364024 0)
(0.0989964 0.00346879 0)
(0.0989879 0.00330229 0)
(0.0989846 0.00314087 0)
(0.0989863 0.00298464 0)
(0.0989925 0.00283367 0)
(0.0990028 0.00268802 0)
(0.0990168 0.00254772 0)
(0.0990343 0.0024128 0)
(0.0990547 0.00228324 0)
(0.0990778 0.00215903 0)
(0.0991032 0.00204009 0)
(0.0991306 0.00192637 0)
(0.103588 0.00941808 0)
(0.103312 0.00931485 0)
(0.103041 0.00920102 0)
(0.102775 0.00907682 0)
(0.102515 0.00894252 0)
(0.102261 0.00879845 0)
(0.102014 0.00864502 0)
(0.101774 0.00848269 0)
(0.101543 0.00831197 0)
(0.10132 0.00813346 0)
(0.101105 0.00794778 0)
(0.100901 0.00775559 0)
(0.100705 0.00755763 0)
(0.10052 0.00735463 0)
(0.100345 0.00714736 0)
(0.100181 0.00693661 0)
(0.100027 0.00672317 0)
(0.0998837 0.0065078 0)
(0.0997513 0.00629128 0)
(0.0996294 0.00607434 0)
(0.0995182 0.00585767 0)
(0.0994173 0.00564195 0)
(0.0993267 0.00542778 0)
(0.0992459 0.00521574 0)
(0.0991747 0.00500635 0)
(0.0991127 0.00480008 0)
(0.0990595 0.00459737 0)
(0.0990147 0.00439859 0)
(0.0989779 0.00420407 0)
(0.0989487 0.00401411 0)
(0.0989264 0.00382897 0)
(0.0989108 0.00364884 0)
(0.0989012 0.0034739 0)
(0.0988974 0.00330428 0)
(0.0988988 0.0031401 0)
(0.098905 0.00298143 0)
(0.0989156 0.00282833 0)
(0.0989301 0.00268082 0)
(0.0989483 0.00253894 0)
(0.0989697 0.00240266 0)
(0.098994 0.00227199 0)
(0.0990208 0.00214687 0)
(0.0990497 0.00202722 0)
(0.0990805 0.00191297 0)
(0.103475 0.00971485 0)
(0.103191 0.00960116 0)
(0.102912 0.00947653 0)
(0.102639 0.00934122 0)
(0.102372 0.00919556 0)
(0.102112 0.0090399 0)
(0.10186 0.00887472 0)
(0.101616 0.0087005 0)
(0.101381 0.00851783 0)
(0.101155 0.00832733 0)
(0.100938 0.00812968 0)
(0.100732 0.0079256 0)
(0.100536 0.00771586 0)
(0.100351 0.00750125 0)
(0.100176 0.00728259 0)
(0.100013 0.00706072 0)
(0.0998603 0.00683646 0)
(0.0997193 0.00661064 0)
(0.0995895 0.00638405 0)
(0.0994708 0.00615746 0)
(0.0993631 0.00593161 0)
(0.0992662 0.00570717 0)
(0.0991797 0.00548479 0)
(0.0991034 0.00526505 0)
(0.0990369 0.00504847 0)
(0.0989798 0.00483553 0)
(0.0989317 0.00462667 0)
(0.0988921 0.00442223 0)
(0.0988604 0.00422256 0)
(0.0988363 0.00402792 0)
(0.0988192 0.00383855 0)
(0.0988087 0.00365462 0)
(0.0988042 0.00347629 0)
(0.0988053 0.00330366 0)
(0.0988116 0.00313682 0)
(0.0988225 0.00297583 0)
(0.0988377 0.0028207 0)
(0.0988567 0.00267146 0)
(0.0988791 0.0025281 0)
(0.0989047 0.0023906 0)
(0.0989329 0.00225892 0)
(0.0989634 0.002133 0)
(0.098996 0.00201275 0)
(0.0990302 0.00189807 0)
(0.103348 0.0100206 0)
(0.103056 0.00989572 0)
(0.102769 0.00975949 0)
(0.102489 0.0096123 0)
(0.102216 0.00945448 0)
(0.101951 0.00928647 0)
(0.101694 0.00910877 0)
(0.101446 0.00892193 0)
(0.101207 0.00872658 0)
(0.100978 0.00852339 0)
(0.10076 0.0083131 0)
(0.100552 0.00809649 0)
(0.100356 0.00787438 0)
(0.100171 0.00764761 0)
(0.099997 0.00741706 0)
(0.0998351 0.0071836 0)
(0.099685 0.00694812 0)
(0.0995467 0.00671147 0)
(0.0994201 0.0064745 0)
(0.0993051 0.00623799 0)
(0.0992015 0.00600273 0)
(0.0991089 0.0057694 0)
(0.0990272 0.00553867 0)
(0.0989559 0.00531112 0)
(0.0988946 0.0050873 0)
(0.0988428 0.00486767 0)
(0.0988001 0.00465265 0)
(0.098766 0.0044426 0)
(0.0987399 0.00423782 0)
(0.0987213 0.00403857 0)
(0.0987097 0.00384505 0)
(0.0987046 0.00365742 0)
(0.0987055 0.00347581 0)
(0.0987118 0.00330029 0)
(0.0987231 0.00313092 0)
(0.0987389 0.00296773 0)
(0.0987588 0.00281071 0)
(0.0987824 0.00265986 0)
(0.0988093 0.00251515 0)
(0.0988391 0.00237654 0)
(0.0988714 0.00224398 0)
(0.0989058 0.00211738 0)
(0.0989421 0.00199664 0)
(0.0989798 0.00188165 0)
(0.103206 0.0103354 0)
(0.102905 0.0101985 0)
(0.102611 0.0100498 0)
(0.102325 0.0098899 0)
(0.102046 0.00971911 0)
(0.101775 0.00953793 0)
(0.101513 0.00934691 0)
(0.101262 0.00914666 0)
(0.10102 0.00893787 0)
(0.100789 0.00872128 0)
(0.100569 0.00849766 0)
(0.100361 0.00826787 0)
(0.100164 0.00803278 0)
(0.0999799 0.00779329 0)
(0.0998078 0.00755033 0)
(0.099648 0.00730483 0)
(0.0995006 0.00705771 0)
(0.0993656 0.00680988 0)
(0.0992428 0.00656221 0)
(0.099132 0.00631553 0)
(0.099033 0.00607065 0)
(0.0989455 0.00582827 0)
(0.098869 0.00558907 0)
(0.0988032 0.00535364 0)
(0.0987476 0.00512253 0)
(0.0987017 0.0048962 0)
(0.0986648 0.00467505 0)
(0.0986366 0.00445943 0)
(0.0986165 0.00424962 0)
(0.0986038 0.00404585 0)
(0.098598 0.0038483 0)
(0.0985986 0.00365709 0)
(0.098605 0.00347233 0)
(0.0986168 0.00329405 0)
(0.0986333 0.00312229 0)
(0.0986543 0.00295703 0)
(0.0986791 0.00279826 0)
(0.0987075 0.00264594 0)
(0.0987389 0.00250002 0)
(0.0987731 0.00236043 0)
(0.0988095 0.00222712 0)
(0.0988479 0.00209997 0)
(0.098888 0.00197887 0)
(0.0989293 0.00186368 0)
(0.103047 0.0106591 0)
(0.102739 0.0105092 0)
(0.102437 0.0103473 0)
(0.102144 0.0101738 0)
(0.101859 0.00998915 0)
(0.101584 0.00979395 0)
(0.101318 0.00958878 0)
(0.101063 0.00937432 0)
(0.100818 0.00915131 0)
(0.100586 0.00892055 0)
(0.100365 0.00868291 0)
(0.100157 0.00843928 0)
(0.0999609 0.00819059 0)
(0.0997779 0.00793781 0)
(0.0996079 0.00768193 0)
(0.0994509 0.00742392 0)
(0.0993069 0.00716476 0)
(0.0991758 0.00690539 0)
(0.0990574 0.00664673 0)
(0.0989515 0.00638965 0)
(0.0988577 0.00613495 0)
(0.0987758 0.00588338 0)
(0.0987052 0.00563562 0)
(0.0986454 0.00539226 0)
(0.098596 0.00515385 0)
(0.0985563 0.00492083 0)
(0.0985258 0.0046936 0)
(0.098504 0.00447248 0)
(0.0984901 0.00425774 0)
(0.0984837 0.00404956 0)
(0.098484 0.0038481 0)
(0.0984906 0.00365346 0)
(0.0985029 0.00346569 0)
(0.0985204 0.00328481 0)
(0.0985424 0.0031108 0)
(0.0985687 0.00294364 0)
(0.0985987 0.00278327 0)
(0.0986319 0.00262963 0)
(0.098668 0.00248264 0)
(0.0987067 0.00234223 0)
(0.0987474 0.00220829 0)
(0.0987899 0.00208072 0)
(0.0988338 0.00195939 0)
(0.0988787 0.00184413 0)
(0.102869 0.0109915 0)
(0.102553 0.0108277 0)
(0.102245 0.0106515 0)
(0.101946 0.0104635 0)
(0.101656 0.0102642 0)
(0.101376 0.0100541 0)
(0.101106 0.00983391 0)
(0.100848 0.00960441 0)
(0.100602 0.00936638 0)
(0.100368 0.00912071 0)
(0.100147 0.00886832 0)
(0.0999395 0.00861017 0)
(0.0997451 0.00834726 0)
(0.0995642 0.00808063 0)
(0.099397 0.00781132 0)
(0.0992434 0.00754035 0)
(0.0991035 0.00726875 0)
(0.098977 0.00699752 0)
(0.0988637 0.00672759 0)
(0.0987633 0.00645988 0)
(0.0986755 0.0061952 0)
(0.0985997 0.00593432 0)
(0.0985355 0.00567792 0)
(0.0984824 0.00542661 0)
(0.0984397 0.0051809 0)
(0.0984068 0.00494124 0)
(0.0983832 0.00470801 0)
(0.0983681 0.0044815 0)
(0.098361 0.00426194 0)
(0.0983611 0.0040495 0)
(0.098368 0.00384428 0)
(0.0983809 0.00364637 0)
(0.0983993 0.00345576 0)
(0.0984227 0.00327244 0)
(0.0984505 0.00309636 0)
(0.0984822 0.00292746 0)
(0.0985175 0.00276565 0)
(0.0985558 0.00261085 0)
(0.0985967 0.00246295 0)
(0.09864 0.00232186 0)
(0.0986851 0.00218745 0)
(0.0987317 0.00205961 0)
(0.0987795 0.00193816 0)
(0.0988282 0.00182296 0)
(0.109349 0.00365284 0)
(0.10919 0.00385525 0)
(0.109025 0.00404955 0)
(0.108853 0.0042356 0)
(0.108675 0.00441328 0)
(0.108492 0.00458246 0)
(0.108305 0.00474302 0)
(0.108113 0.00489488 0)
(0.107917 0.00503795 0)
(0.107718 0.00517219 0)
(0.107517 0.00529755 0)
(0.107313 0.005414 0)
(0.107107 0.00552154 0)
(0.1069 0.00562015 0)
(0.106692 0.00570986 0)
(0.106484 0.00579066 0)
(0.106275 0.00586262 0)
(0.106067 0.00592577 0)
(0.10586 0.00598018 0)
(0.105655 0.00602596 0)
(0.10545 0.00606322 0)
(0.105248 0.00609209 0)
(0.105048 0.00611275 0)
(0.10485 0.00612541 0)
(0.104655 0.00613028 0)
(0.104463 0.00612764 0)
(0.109557 0.00381197 0)
(0.10939 0.00402154 0)
(0.109216 0.00422249 0)
(0.109035 0.00441467 0)
(0.108848 0.00459797 0)
(0.108656 0.00477224 0)
(0.108459 0.00493737 0)
(0.108258 0.00509327 0)
(0.108052 0.00523987 0)
(0.107844 0.00537712 0)
(0.107633 0.00550498 0)
(0.107419 0.00562344 0)
(0.107204 0.00573249 0)
(0.106988 0.00583214 0)
(0.106771 0.00592242 0)
(0.106553 0.00600335 0)
(0.106336 0.00607499 0)
(0.10612 0.00613741 0)
(0.105904 0.0061907 0)
(0.10569 0.00623497 0)
(0.105478 0.00627036 0)
(0.105268 0.00629703 0)
(0.105061 0.00631518 0)
(0.104856 0.00632502 0)
(0.104654 0.00632681 0)
(0.104456 0.00632083 0)
(0.109773 0.00397969 0)
(0.109597 0.0041967 0)
(0.109413 0.00440455 0)
(0.109223 0.00460306 0)
(0.109026 0.00479214 0)
(0.108825 0.00497163 0)
(0.108618 0.00514143 0)
(0.108406 0.00530143 0)
(0.108191 0.00545158 0)
(0.107972 0.00559184 0)
(0.107751 0.00572217 0)
(0.107528 0.00584256 0)
(0.107303 0.00595303 0)
(0.107077 0.00605359 0)
(0.10685 0.00614428 0)
(0.106623 0.00622515 0)
(0.106397 0.00629628 0)
(0.106171 0.00635775 0)
(0.105947 0.00640967 0)
(0.105724 0.00645217 0)
(0.105504 0.00648542 0)
(0.105286 0.00650961 0)
(0.105071 0.00652494 0)
(0.104859 0.00653167 0)
(0.10465 0.00653007 0)
(0.104445 0.00652045 0)
(0.109997 0.00415654 0)
(0.109811 0.00438128 0)
(0.109617 0.00459626 0)
(0.109417 0.00480132 0)
(0.109211 0.00499634 0)
(0.108998 0.00518119 0)
(0.108781 0.00535574 0)
(0.108559 0.00551991 0)
(0.108333 0.00567364 0)
(0.108104 0.00581688 0)
(0.107872 0.00594963 0)
(0.107638 0.00607188 0)
(0.107402 0.00618365 0)
(0.107166 0.00628498 0)
(0.106929 0.00637592 0)
(0.106693 0.00645654 0)
(0.106456 0.00652693 0)
(0.106221 0.0065872 0)
(0.105988 0.00663749 0)
(0.105756 0.00667795 0)
(0.105527 0.00670877 0)
(0.105301 0.00673017 0)
(0.105078 0.00674237 0)
(0.104858 0.00674567 0)
(0.104642 0.00674035 0)
(0.10443 0.00672676 0)
(0.110229 0.00434309 0)
(0.110033 0.00457584 0)
(0.109829 0.0047982 0)
(0.109618 0.00501001 0)
(0.1094 0.00521116 0)
(0.109177 0.00540149 0)
(0.108948 0.00558089 0)
(0.108715 0.00574928 0)
(0.108478 0.0059066 0)
(0.108238 0.00605282 0)
(0.107995 0.00618793 0)
(0.10775 0.00631194 0)
(0.107503 0.00642489 0)
(0.107256 0.00652683 0)
(0.107009 0.00661783 0)
(0.106762 0.00669798 0)
(0.106515 0.00676739 0)
(0.10627 0.00682621 0)
(0.106027 0.00687458 0)
(0.105786 0.0069127 0)
(0.105548 0.00694078 0)
(0.105313 0.00695905 0)
(0.105082 0.00696779 0)
(0.104854 0.00696731 0)
(0.104631 0.00695792 0)
(0.104411 0.00694 0)
(0.110469 0.00453994 0)
(0.110262 0.00478099 0)
(0.110047 0.00501099 0)
(0.109825 0.00522977 0)
(0.109596 0.00543721 0)
(0.109361 0.00563316 0)
(0.109121 0.0058175 0)
(0.108876 0.00599015 0)
(0.108627 0.00615107 0)
(0.108375 0.00630023 0)
(0.10812 0.00643763 0)
(0.107863 0.00656331 0)
(0.107605 0.00667729 0)
(0.107347 0.00677967 0)
(0.107088 0.00687053 0)
(0.10683 0.00694998 0)
(0.106573 0.00701816 0)
(0.106318 0.00707524 0)
(0.106064 0.00712139 0)
(0.105814 0.00715684 0)
(0.105566 0.00718183 0)
(0.105322 0.00719663 0)
(0.105082 0.00720155 0)
(0.104846 0.00719691 0)
(0.104615 0.00718307 0)
(0.104388 0.00716044 0)
(0.110718 0.00474774 0)
(0.1105 0.0049974 0)
(0.110274 0.0052353 0)
(0.110039 0.00546126 0)
(0.109798 0.00567516 0)
(0.109551 0.00587685 0)
(0.109298 0.00606621 0)
(0.109041 0.00624318 0)
(0.108779 0.0064077 0)
(0.108514 0.00655975 0)
(0.108247 0.00669937 0)
(0.107978 0.00682658 0)
(0.107708 0.00694146 0)
(0.107438 0.00704408 0)
(0.107167 0.00713457 0)
(0.106898 0.00721307 0)
(0.106629 0.00727974 0)
(0.106363 0.00733477 0)
(0.106099 0.00737838 0)
(0.105838 0.00741081 0)
(0.105581 0.00743235 0)
(0.105328 0.0074433 0)
(0.105078 0.00744399 0)
(0.104834 0.0074348 0)
(0.104594 0.00741611 0)
(0.104359 0.00738835 0)
(0.110977 0.00496717 0)
(0.110746 0.00522576 0)
(0.110507 0.00547182 0)
(0.11026 0.00570518 0)
(0.110006 0.00592572 0)
(0.109746 0.00613327 0)
(0.10948 0.00632773 0)
(0.109209 0.00650904 0)
(0.108935 0.00667715 0)
(0.108657 0.00683205 0)
(0.108376 0.00697379 0)
(0.108094 0.0071024 0)
(0.107812 0.00721799 0)
(0.107528 0.00732066 0)
(0.107246 0.00741054 0)
(0.106964 0.00748781 0)
(0.106684 0.00755267 0)
(0.106406 0.00760532 0)
(0.106131 0.00764603 0)
(0.10586 0.00767507 0)
(0.105592 0.00769276 0)
(0.105329 0.00769945 0)
(0.10507 0.0076955 0)
(0.104816 0.00768132 0)
(0.104568 0.00765734 0)
(0.104325 0.00762402 0)
(0.111244 0.00519898 0)
(0.111001 0.00546682 0)
(0.110748 0.00572132 0)
(0.110488 0.00596229 0)
(0.11022 0.00618963 0)
(0.109946 0.00640316 0)
(0.109666 0.0066028 0)
(0.109382 0.00678847 0)
(0.109093 0.00696014 0)
(0.108801 0.00711783 0)
(0.108507 0.00726157 0)
(0.108212 0.00739144 0)
(0.107915 0.00750754 0)
(0.107619 0.00761002 0)
(0.107323 0.00769904 0)
(0.107029 0.00777478 0)
(0.106736 0.00783749 0)
(0.106447 0.00788741 0)
(0.10616 0.00792483 0)
(0.105877 0.00795008 0)
(0.105599 0.00796351 0)
(0.105325 0.00796549 0)
(0.105056 0.00795644 0)
(0.104793 0.00793682 0)
(0.104536 0.00790707 0)
(0.104285 0.00786771 0)
(0.111521 0.00544397 0)
(0.111264 0.00572139 0)
(0.110998 0.00598459 0)
(0.110723 0.00623339 0)
(0.110441 0.00646769 0)
(0.110152 0.00668733 0)
(0.109857 0.0068922 0)
(0.109558 0.00708224 0)
(0.109254 0.00725744 0)
(0.108948 0.00741782 0)
(0.108639 0.00756344 0)
(0.108329 0.00769439 0)
(0.108019 0.0078108 0)
(0.107708 0.00791284 0)
(0.107399 0.00800069 0)
(0.107091 0.00807459 0)
(0.106786 0.00813479 0)
(0.106484 0.00818159 0)
(0.106185 0.00821532 0)
(0.10589 0.00823634 0)
(0.105601 0.00824504 0)
(0.105316 0.00824185 0)
(0.105037 0.00822722 0)
(0.104764 0.00820165 0)
(0.104498 0.00816564 0)
(0.104238 0.00811973 0)
(0.111808 0.00570301 0)
(0.111536 0.00599032 0)
(0.111254 0.0062625 0)
(0.110964 0.00651935 0)
(0.110667 0.00676077 0)
(0.110362 0.0069866 0)
(0.110052 0.00719676 0)
(0.109737 0.00739117 0)
(0.109418 0.00756985 0)
(0.109096 0.00773282 0)
(0.108772 0.00788017 0)
(0.108447 0.008012 0)
(0.108122 0.00812848 0)
(0.107797 0.00822979 0)
(0.107473 0.00831616 0)
(0.107151 0.00838785 0)
(0.106832 0.00844516 0)
(0.106517 0.00848843 0)
(0.106205 0.00851802 0)
(0.105899 0.00853434 0)
(0.105597 0.00853782 0)
(0.105301 0.00852895 0)
(0.105012 0.00850822 0)
(0.104729 0.00847616 0)
(0.104453 0.00843334 0)
(0.104184 0.00838034 0)
(0.112104 0.005977 0)
(0.111816 0.00627455 0)
(0.111519 0.00655597 0)
(0.111213 0.00682108 0)
(0.110899 0.00706977 0)
(0.110578 0.0073019 0)
(0.110251 0.00751737 0)
(0.109919 0.00771614 0)
(0.109584 0.00789821 0)
(0.109246 0.00806365 0)
(0.108906 0.00821255 0)
(0.108565 0.00834504 0)
(0.108223 0.00846132 0)
(0.107883 0.00856159 0)
(0.107544 0.00864613 0)
(0.107208 0.00871523 0)
(0.106875 0.00876923 0)
(0.106545 0.00880851 0)
(0.106221 0.00883347 0)
(0.105901 0.00884458 0)
(0.105587 0.00884232 0)
(0.10528 0.00882722 0)
(0.104979 0.00879982 0)
(0.104686 0.00876072 0)
(0.1044 0.0087105 0)
(0.104122 0.00864982 0)
(0.112409 0.00626697 0)
(0.112105 0.00657508 0)
(0.11179 0.006866 0)
(0.111467 0.00713957 0)
(0.111136 0.00739567 0)
(0.110797 0.00763417 0)
(0.110453 0.00785497 0)
(0.110104 0.00805805 0)
(0.109751 0.00824343 0)
(0.109396 0.00841118 0)
(0.109039 0.00856142 0)
(0.108681 0.00869432 0)
(0.108323 0.00881009 0)