/*--------------------------------*- C++ -*----------------------------------*\
| =========                 |                                                 |
| \\      /  F ield         | OpenFOAM: The Open Source CFD Toolbox           |
|  \\    /   O peration     | Version:  2412                                  |
|   \\  /    A nd           | Website:  www.openfoam.com                      |
|    \\/     M anipulation  |                                                 |
\*---------------------------------------------------------------------------*/
FoamFile
{
    version     2.0;
    format      ascii;
    arch        "LSB;label=32;scalar=64";
    class       surfaceScalarField;
    location    "27.5";
    object      phi;
}
// * * * * * * * * * * * * * * * * * * * * * * * * * * * * * * * * * * * * * //

dimensions      [0 3 -1 0 0 0 0];

oriented        oriented;

internalField   nonuniform List<scalar> 
10423
(
0.00527924
0.000218098
-0.00021791
0.00527917
0.000211289
-0.000211222
0.00527922
0.000204478
-0.00020452
0.00527935
0.00019767
-0.000197809
0.00527958
0.000190875
-0.000191098
0.00527987
0.000184103
-0.0001844
0.00528023
0.000177363
-0.000177724
0.00528065
0.000170668
-0.000171082
0.00528111
0.000164027
-0.000164487
0.00528161
0.000157453
-0.00015795
0.00528213
0.000150956
-0.000151483
0.00528268
0.000144547
-0.000145096
0.00528325
0.000138234
-0.0001388
0.00528383
0.000132027
-0.000132604
0.00528441
0.000125934
-0.000126517
0.00528499
0.000119962
-0.000120547
0.00528558
0.000114119
-0.000114702
0.00528615
0.000108411
-0.000108988
0.00528672
0.000102844
-0.000103412
0.00528728
9.7422e-05
-9.79779e-05
0.00528782
9.215e-05
-9.26919e-05
0.00528834
8.70318e-05
-8.75577e-05
0.00528885
8.20704e-05
-8.25786e-05
0.00528934
7.72684e-05
-7.77576e-05
0.00528981
7.26279e-05
-7.30969e-05
0.00529026
6.81504e-05
-6.85984e-05
0.00529068
6.38371e-05
-6.42634e-05
0.00529109
5.96887e-05
-6.00929e-05
0.00529147
5.57056e-05
-5.60874e-05
0.00529183
5.18877e-05
-5.22472e-05
0.00529217
4.82348e-05
-4.85719e-05
0.00529248
4.47462e-05
-4.50612e-05
0.00529278
4.14208e-05
-4.17141e-05
0.00529305
3.82573e-05
-3.85292e-05
0.0052933
3.52539e-05
-3.55051e-05
0.00529353
3.24087e-05
-3.26398e-05
0.00529374
2.97194e-05
-2.99311e-05
0.00529393
2.7184e-05
-2.73771e-05
0.00529411
2.47993e-05
-2.49746e-05
0.00529427
2.25638e-05
-2.27222e-05
0.00529441
2.04728e-05
-2.06152e-05
0.00529454
1.85266e-05
-1.86539e-05
0.00529465
1.6717e-05
-1.68302e-05
0.00529475
1.50502e-05
-1.51503e-05
0.00529484
1.35091e-05
-1.3597e-05
0.00529492
1.21154e-05
-1.21924e-05
0.00529498
1.08287e-05
-1.08953e-05
0.00529504
9.70757e-06
-9.7657e-06
0.00529509
8.65778e-06
-8.70707e-06
0.00529513
7.81921e-06
-7.86295e-06
0.00529517
6.98307e-06
-7.01898e-06
0.0052952
6.45557e-06
-6.48966e-06
0.00529523
5.80354e-06
-5.82988e-06
0.00529526
5.64332e-06
-5.67312e-06
0.00529528
5.1401e-06
-5.16075e-06
0.00529531
5.43839e-06
-5.47024e-06
0.00529533
5.04796e-06
-5.06698e-06
0.00529537
5.94112e-06
-5.98325e-06
0.00529539
5.63802e-06
-5.65936e-06
0.00529546
7.32762e-06
-7.39319e-06
0.00529548
7.0995e-06
-7.12386e-06
0.0052956
9.88282e-06
-9.99905e-06
0.00529562
9.78246e-06
-9.79809e-06
0.00529583
1.38724e-05
-1.40895e-05
0.00529585
1.48114e-05
-1.4824e-05
0.00529613
1.85564e-05
-1.8838e-05
0.0052964
2.52883e-05
-2.55653e-05
0.00529644
2.38257e-05
-2.38655e-05
0.00529718
3.87454e-05
-3.94834e-05
0.00529762
4.07279e-05
-4.11658e-05
5.54531e-05
-5.6145e-05
0.00527716
0.000218169
0.00527721
0.000211242
0.00527736
0.000204325
0.00527761
0.000197425
0.00527794
0.000190548
0.00527833
0.000183705
0.00527879
0.000176906
0.0052793
0.00017016
0.00527985
0.000163478
0.00528043
0.000156871
0.00528104
0.000150349
0.00528166
0.00014392
0.0052823
0.000137595
0.00528295
0.00013138
0.0052836
0.000125285
0.00528424
0.000119315
0.00528489
0.000113478
0.00528552
0.000107779
0.00528614
0.000102224
0.00528674
9.6817e-05
0.00528733
9.1562e-05
0.0052879
8.64626e-05
0.00528845
8.15216e-05
0.00528897
7.67413e-05
0.00528948
7.21235e-05
0.00528996
6.76694e-05
0.00529042
6.338e-05
0.00529085
5.92559e-05
0.00529126
5.52971e-05
0.00529164
5.15037e-05
0.005292
4.7875e-05
0.00529234
4.44102e-05
0.00529265
4.11082e-05
0.00529294
3.79675e-05
0.00529321
3.49863e-05
0.00529345
3.21626e-05
0.00529368
2.9494e-05
0.00529389
2.69783e-05
0.00529407
2.46126e-05
0.00529424
2.2395e-05
0.00529439
2.0321e-05
0.00529453
1.83907e-05
0.00529465
1.65961e-05
0.00529476
1.49431e-05
0.00529485
1.3415e-05
0.00529493
1.20327e-05
0.00529501
1.07571e-05
0.00529507
9.64492e-06
0.00529512
8.60439e-06
0.00529517
7.77186e-06
0.00529521
6.94378e-06
0.00529525
6.41854e-06
0.00529527
5.7743e-06
0.00529531
5.61106e-06
0.00529533
5.11676e-06
0.00529536
5.40432e-06
0.00529539
5.02622e-06
0.00529543
5.89675e-06
0.00529545
5.61367e-06
0.00529552
7.2594e-06
0.00529555
7.07151e-06
0.00529567
9.76313e-06
0.00529569
9.76186e-06
0.00529591
1.3651e-05
0.00529593
1.47912e-05
0.00529622
1.82687e-05
0.00529651
2.50023e-05
0.00529656
2.37721e-05
0.00529731
3.79977e-05
0.00529776
4.02744e-05
5.4737e-05
0.00527506
0.000218121
0.00527522
0.000211078
0.00527549
0.000204059
0.00527584
0.000197069
0.00527628
0.000190115
0.00527678
0.000183206
0.00527733
0.000176351
0.00527793
0.000169559
0.00527857
0.00016284
0.00527924
0.000156204
0.00527993
0.00014966
0.00528063
0.000143216
0.00528135
0.000136882
0.00528206
0.000130664
0.00528278
0.000124569
0.00528349
0.000118606
0.00528419
0.000112778
0.00528487
0.000107092
0.00528555
0.000101552
0.0052862
9.61627e-05
0.00528684
9.09277e-05
0.00528745
8.58501e-05
0.00528804
8.09323e-05
0.0052886
7.61763e-05
0.00528914
7.15836e-05
0.00528966
6.71553e-05
0.00529014
6.28922e-05
0.00529061
5.87944e-05
0.00529104
5.48622e-05
0.00529145
5.1095e-05
0.00529183
4.74923e-05
0.00529219
4.40531e-05
0.00529252
4.07762e-05
0.00529283
3.76599e-05
0.00529311
3.47023e-05
0.00529337
3.19014e-05
0.00529361
2.92547e-05
0.00529383
2.67601e-05
0.00529403
2.44144e-05
0.00529421
2.22157e-05
0.00529437
2.01597e-05
0.00529452
1.82462e-05
0.00529464
1.64674e-05
0.00529476
1.4829e-05
0.00529486
1.33145e-05
0.00529495
1.19444e-05
0.00529502
1.06803e-05
0.00529509
9.57767e-06
0.00529515
8.54683e-06
0.0052952
7.72075e-06
0.00529524
6.90105e-06
0.00529528
6.37842e-06
0.00529531
5.74212e-06
0.00529535
5.57613e-06
0.00529538
5.09075e-06
0.00529541
5.3678e-06
0.00529544
5.00183e-06
0.00529548
5.84988e-06
0.00529551
5.58638e-06
0.00529558
7.18829e-06
0.00529561
7.03989e-06
0.00529574
9.63994e-06
0.00529576
9.73594e-06
0.00529599
1.34259e-05
0.00529602
1.47623e-05
0.00529631
1.79758e-05
0.0052966
2.47075e-05
0.00529667
2.37027e-05
0.00529743
3.72437e-05
0.0052979
3.98047e-05
5.39971e-05
0.00527293
0.000217949
0.00527321
0.000210795
0.0052736
0.000203678
0.00527406
0.000196602
0.0052746
0.000189575
0.00527521
0.000182603
0.00527586
0.000175696
0.00527656
0.000168863
0.00527729
0.000162111
0.00527804
0.00015545
0.00527881
0.000148888
0.00527959
0.000142434
0.00528038
0.000136094
0.00528117
0.000129877
0.00528195
0.000123788
0.00528272
0.000117833
0.00528348
0.000112018
0.00528423
0.000106348
0.00528495
0.000100827
0.00528566
9.5459e-05
0.00528634
9.02471e-05
0.00528699
8.51942e-05
0.00528762
8.03023e-05
0.00528822
7.55732e-05
0.0052888
7.10082e-05
0.00528935
6.66082e-05
0.00528987
6.23735e-05
0.00529036
5.83044e-05
0.00529082
5.44006e-05
0.00529125
5.06616e-05
0.00529166
4.70868e-05
0.00529203
4.36749e-05
0.00529239
4.04246e-05
0.00529271
3.73343e-05
0.00529301
3.44017e-05
0.00529329
3.1625e-05
0.00529354
2.90016e-05
0.00529377
2.65291e-05
0.00529398
2.42045e-05
0.00529417
2.20259e-05
0.00529434
1.99888e-05
0.0052945
1.8093e-05
0.00529463
1.63308e-05
0.00529475
1.47077e-05
0.00529486
1.32076e-05
0.00529496
1.18503e-05
0.00529504
1.05983e-05
0.00529511
9.50571e-06
0.00529517
8.48501e-06
0.00529523
7.66581e-06
0.00529527
6.8548e-06
0.00529532
6.33511e-06
0.00529535
5.70692e-06
0.00529539
5.53847e-06
0.00529542
5.06199e-06
0.00529546
5.32876e-06
0.00529548
4.97468e-06
0.00529553
5.80043e-06
0.00529556
5.55605e-06
0.00529564
7.11428e-06
0.00529567
7.00445e-06
0.0052958
9.51343e-06
0.00529583
9.70425e-06
0.00529606
1.31976e-05
0.0052961
1.47237e-05
0.00529639
1.76788e-05
0.0052967
2.44039e-05
0.00529679
2.36158e-05
0.00529754
3.64861e-05
0.00529803
3.93189e-05
5.32331e-05
0.00527078
0.000217651
0.00527119
0.00021039
0.00527169
0.000203178
0.00527227
0.000196021
0.00527292
0.000188924
0.00527362
0.000181895
0.00527438
0.000174941
0.00527517
0.00016807
0.00527599
0.00016129
0.00527683
0.000154608
0.00527769
0.000148033
0.00527855
0.000141572
0.00527941
0.000135232
0.00528027
0.000129019
0.00528112
0.000122939
0.00528195
0.000116997
0.00528277
0.000111199
0.00528357
0.000105548
0.00528435
0.00010005
0.0052851
9.47059e-05
0.00528583
8.95201e-05
0.00528653
8.44947e-05
0.0052872
7.96316e-05
0.00528784
7.49322e-05
0.00528845
7.03974e-05
0.00528903
6.60279e-05
0.00528958
6.1824e-05
0.0052901
5.77856e-05
0.00529059
5.39124e-05
0.00529105
5.02037e-05
0.00529148
4.66585e-05
0.00529187
4.32757e-05
0.00529225
4.00537e-05
0.00529259
3.69907e-05
0.00529291
3.40847e-05
0.0052932
3.13335e-05
0.00529346
2.87345e-05
0.00529371
2.62855e-05
0.00529393
2.39831e-05
0.00529413
2.18255e-05
0.00529431
1.98082e-05
0.00529447
1.7931e-05
0.00529462
1.61863e-05
0.00529475
1.45793e-05
0.00529486
1.30942e-05
0.00529496
1.17503e-05
0.00529505
1.0511e-05
0.00529512
9.42897e-06
0.00529519
8.41885e-06
0.00529525
7.60695e-06
0.0052953
6.80495e-06
0.00529534
6.28853e-06
0.00529538
5.66863e-06
0.00529542
5.49798e-06
0.00529545
5.0304e-06
0.0052955
5.28711e-06
0.00529553
4.94472e-06
0.00529558
5.74835e-06
0.00529561
5.5226e-06
0.00529569
7.03734e-06
0.00529573
6.96505e-06
0.00529586
9.38375e-06
0.0052959
9.66632e-06
0.00529613
1.2967e-05
0.00529618
1.46743e-05
0.00529648
1.73785e-05
0.00529679
2.40916e-05
0.00529689
2.35099e-05
0.00529765
3.57276e-05
0.00529815
3.88169e-05
5.24451e-05
0.00526861
0.000217224
0.00526914
0.000209859
0.00526976
0.000202558
0.00527045
0.000195324
0.00527122
0.000188163
0.00527203
0.000181081
0.00527289
0.000174084
0.00527378
0.00016718
0.00527469
0.000160376
0.00527562
0.000153679
0.00527656
0.000147095
0.0052775
0.000140632
0.00527844
0.000134295
0.00527937
0.00012809
0.00528028
0.000122023
0.00528118
0.000116098
0.00528206
0.00011032
0.00528291
0.000104693
0.00528374
9.92194e-05
0.00528455
9.39032e-05
0.00528532
8.87467e-05
0.00528606
8.37518e-05
0.00528678
7.89203e-05
0.00528745
7.42531e-05
0.0052881
6.97511e-05
0.00528871
6.54146e-05
0.00528929
6.12438e-05
0.00528984
5.72383e-05
0.00529036
5.33977e-05
0.00529084
4.9721e-05
0.00529129
4.62074e-05
0.00529171
4.28553e-05
0.0052921
3.96632e-05
0.00529246
3.66292e-05
0.0052928
3.37512e-05
0.0052931
3.10269e-05
0.00529338
2.84536e-05
0.00529364
2.60291e-05
0.00529387
2.375e-05
0.00529408
2.16145e-05
0.00529427
1.9618e-05
0.00529444
1.77603e-05
0.0052946
1.60338e-05
0.00529473
1.44436e-05
0.00529485
1.29742e-05
0.00529496
1.16444e-05
0.00529505
1.04184e-05
0.00529513
9.34739e-06
0.0052952
8.34829e-06
0.00529527
7.54411e-06
0.00529532
6.75143e-06
0.00529537
6.23862e-06
0.00529541
5.62718e-06
0.00529545
5.4546e-06
0.00529549
4.99591e-06
0.00529553
5.24279e-06
0.00529557
4.91186e-06
0.00529562
5.69358e-06
0.00529566
5.48593e-06
0.00529574
6.95748e-06
0.00529578
6.92152e-06
0.00529591
9.25104e-06
0.00529596
9.62177e-06
0.00529619
1.27345e-05
0.00529625
1.46135e-05
0.00529655
1.70758e-05
0.00529688
2.37705e-05
0.005297
2.33838e-05
0.00529776
3.49705e-05
0.00529828
3.82987e-05
5.16333e-05
0.00526641
0.000216665
0.00526707
0.000209201
0.00526782
0.000201815
0.00526863
0.000194509
0.00526951
0.000187288
0.00527043
0.000180158
0.00527139
0.000173124
0.00527238
0.000166192
0.00527338
0.000159369
0.0052744
0.00015266
0.00527542
0.000146073
0.00527644
0.000139611
0.00527746
0.000133282
0.00527846
0.00012709
0.00527944
0.00012104
0.0052804
0.000115136
0.00528134
0.000109382
0.00528225
0.000103781
0.00528314
9.83365e-05
0.00528399
9.30511e-05
0.00528481
8.79269e-05
0.00528559
8.29655e-05
0.00528635
7.81683e-05
0.00528706
7.35361e-05
0.00528774
6.90694e-05
0.00528839
6.47683e-05
0.005289
6.06328e-05
0.00528958
5.66624e-05
0.00529012
5.28564e-05
0.00529063
4.92138e-05
0.0052911
4.57335e-05
0.00529154
4.24139e-05
0.00529195
3.92533e-05
0.00529233
3.62498e-05
0.00529268
3.34012e-05
0.005293
3.0705e-05
0.0052933
2.81588e-05
0.00529357
2.576e-05
0.00529381
2.35053e-05
0.00529403
2.13929e-05
0.00529423
1.94181e-05
0.00529441
1.75807e-05
0.00529457
1.58733e-05
0.00529472
1.43007e-05
0.00529484
1.28477e-05
0.00529495
1.15326e-05
0.00529505
1.03203e-05
0.00529514
9.2609e-06
0.00529521
8.27327e-06
0.00529528
7.47722e-06
0.00529534
6.69418e-06
0.00529539
6.18531e-06
0.00529544
5.5825e-06
0.00529548
5.40825e-06
0.00529552
4.95846e-06
0.00529557
5.19574e-06
0.0052956
4.87604e-06
0.00529566
5.63607e-06
0.0052957
5.44597e-06
0.00529578
6.87466e-06
0.00529583
6.87374e-06
0.00529597
9.11543e-06
0.00529602
9.57026e-06
0.00529625
1.25008e-05
0.00529632
1.45403e-05
0.00529663
1.67715e-05
0.00529696
2.34407e-05
0.00529711
2.32365e-05
0.00529786
3.42167e-05
0.00529839
3.77645e-05
5.07981e-05
0.0052642
0.000215969
0.00526499
0.000208412
0.00526586
0.000200946
0.00526679
0.000193573
0.00526778
0.000186299
0.00526882
0.000179126
0.00526988
0.000172059
0.00527097
0.000165105
0.00527207
0.000158267
0.00527318
0.000151553
0.00527428
0.000144965
0.00527539
0.000138511
0.00527647
0.000132194
0.00527755
0.000126019
0.0052786
0.00011999
0.00527962
0.00011411
0.00528062
0.000108384
0.00528159
0.000102813
0.00528252
9.74009e-05
0.00528342
9.21495e-05
0.00528429
8.70607e-05
0.00528512
8.21358e-05
0.00528591
7.73758e-05
0.00528667
7.27812e-05
0.00528739
6.83523e-05
0.00528806
6.40891e-05
0.00528871
5.99912e-05
0.00528931
5.6058e-05
0.00528988
5.22887e-05
0.00529041
4.86821e-05
0.00529091
4.52369e-05
0.00529137
4.19515e-05
0.0052918
3.88241e-05
0.0052922
3.58525e-05
0.00529256
3.30347e-05
0.0052929
3.03681e-05
0.00529321
2.785e-05
0.00529349
2.54781e-05
0.00529375
2.3249e-05
0.00529398
2.11606e-05
0.00529419
1.92085e-05
0.00529438
1.73923e-05
0.00529454
1.57047e-05
0.00529469
1.41504e-05
0.00529483
1.27145e-05
0.00529495
1.14147e-05
0.00529505
1.02168e-05
0.00529514
9.16947e-06
0.00529522
8.19374e-06
0.00529529
7.40624e-06
0.00529535
6.63314e-06
0.00529541
6.12855e-06
0.00529546
5.53454e-06
0.00529551
5.3589e-06
0.00529555
4.918e-06
0.0052956
5.1459e-06
0.00529564
4.83721e-06
0.0052957
5.57577e-06
0.00529574
5.40265e-06
0.00529583
6.78891e-06
0.00529588
6.82158e-06
0.00529602
8.97706e-06
0.00529607
9.51149e-06
0.00529631
1.22662e-05
0.00529639
1.44543e-05
0.0052967
1.64662e-05
0.00529704
2.31024e-05
0.00529721
2.30672e-05
0.00529796
3.34679e-05
0.00529851
3.72144e-05
4.99399e-05
0.00526197
0.000215135
0.00526289
0.000207489
0.00526389
0.000199949
0.00526495
0.000192516
0.00526605
0.000185192
0.0052672
0.000177982
0.00526837
0.000170889
0.00526956
0.000163917
0.00527075
0.000157071
0.00527195
0.000150355
0.00527314
0.000143773
0.00527432
0.00013733
0.00527549
0.00013103
0.00527663
0.000124876
0.00527775
0.000118872
0.00527884
0.000113021
0.0052799
0.000107326
0.00528092
0.000101789
0.00528191
9.64125e-05
0.00528286
9.11986e-05
0.00528377
8.61484e-05
0.00528465
8.12629e-05
0.00528548
7.65428e-05
0.00528627
7.19885e-05
0.00528702
6.76001e-05
0.00528774
6.33771e-05
0.00528841
5.93191e-05
0.00528904
5.54253e-05
0.00528963
5.16947e-05
0.00529019
4.8126e-05
0.00529071
4.47177e-05
0.00529119
4.14682e-05
0.00529164
3.83755e-05
0.00529206
3.54375e-05
0.00529244
3.26518e-05
0.00529279
3.0016e-05
0.00529311
2.75275e-05
0.00529341
2.51835e-05
0.00529368
2.2981e-05
0.00529392
2.09177e-05
0.00529414
1.89892e-05
0.00529434
1.71951e-05
0.00529451
1.55282e-05
0.00529467
1.39929e-05
0.00529481
1.25746e-05
0.00529493
1.12907e-05
0.00529504
1.01078e-05
0.00529514
9.07305e-06
0.00529522
8.10966e-06
0.0052953
7.33112e-06
0.00529536
6.56829e-06
0.00529542
6.0683e-06
0.00529548
5.48325e-06
0.00529553
5.30649e-06
0.00529557
4.87448e-06
0.00529562
5.09324e-06
0.00529567
4.79532e-06
0.00529573
5.51266e-06
0.00529578
5.35593e-06
0.00529586
6.70021e-06
0.00529592
6.76497e-06
0.00529606
8.83602e-06
0.00529613
9.44522e-06
0.00529636
1.20311e-05
0.00529646
1.43551e-05
0.00529677
1.61602e-05
0.00529712
2.27556e-05
0.00529731
2.28754e-05
0.00529805
3.27252e-05
0.00529862
3.66484e-05
4.90596e-05
0.00525972
0.000214158
0.00526078
0.00020643
0.00526191
0.000198822
0.00526309
0.000191334
0.00526432
0.000183968
0.00526557
0.000176726
0.00526685
0.000169612
0.00526814
0.000162628
0.00526943
0.000155778
0.00527072
0.000149066
0.005272
0.000142495
0.00527326
0.000136068
0.0052745
0.000129789
0.00527572
0.000123661
0.0052769
0.000117686
0.00527805
0.000111868
0.00527917
0.000106208
0.00528025
0.000100709
0.00528129
9.53716e-05
0.00528229
9.01984e-05
0.00528325
8.51898e-05
0.00528417
8.03468e-05
0.00528504
7.56696e-05
0.00528587
7.11583e-05
0.00528666
6.68127e-05
0.0052874
6.26324e-05
0.00528811
5.86166e-05
0.00528877
5.47643e-05
0.00528939
5.10744e-05
0.00528997
4.75455e-05
0.00529051
4.4176e-05
0.00529101
4.0964e-05
0.00529148
3.79076e-05
0.00529191
3.50046e-05
0.00529231
3.22526e-05
0.00529268
2.9649e-05
0.00529302
2.71911e-05
0.00529332
2.48763e-05
0.0052936
2.27014e-05
0.00529386
2.06641e-05
0.00529409
1.87602e-05
0.00529429
1.6989e-05
0.00529448
1.53435e-05
0.00529464
1.3828e-05
0.00529479
1.24281e-05
0.00529492
1.11608e-05
0.00529503
9.99323e-06
0.00529513
8.97163e-06
0.00529522
8.021e-06
0.0052953
7.25184e-06
0.00529537
6.49958e-06
0.00529544
6.00452e-06
0.00529549
5.42861e-06
0.00529555
5.25099e-06
0.00529559
4.82787e-06
0.00529565
5.03772e-06
0.00529569
4.75035e-06
0.00529576
5.44671e-06
0.00529581
5.30576e-06
0.0052959
6.60858e-06
0.00529596
6.7038e-06
0.0052961
8.69244e-06
0.00529618
9.37128e-06
0.00529641
1.17958e-05
0.00529653
1.42422e-05
0.00529683
1.5854e-05
0.00529719
2.24005e-05
0.0052974
2.2661e-05
0.00529814
3.19897e-05
0.00529872
3.60668e-05
4.81578e-05
0.00525747
0.000213035
0.00525866
0.000205232
0.00525992
0.000197563
0.00526123
0.000190026
0.00526258
0.000182623
0.00526395
0.000175356
0.00526533
0.000168227
0.00526672
0.000161237
0.00526811
0.000154389
0.00526949
0.000147686
0.00527085
0.00014113
0.0052722
0.000134725
0.00527351
0.000128472
0.0052748
0.000122374
0.00527605
0.000116433
0.00527727
0.000110651
0.00527845
0.00010503
0.00527958
9.95724e-05
0.00528068
9.42783e-05
0.00528173
8.9149e-05
0.00528273
8.41854e-05
0.00528369
7.93878e-05
0.0052846
7.47562e-05
0.00528547
7.02906e-05
0.00528629
6.59906e-05
0.00528707
6.18553e-05
0.0052878
5.78839e-05
0.00528849
5.40753e-05
0.00528914
5.04281e-05
0.00528974
4.69409e-05
0.00529031
4.36119e-05
0.00529083
4.04392e-05
0.00529132
3.74207e-05
0.00529177
3.45542e-05
0.00529219
3.18371e-05
0.00529257
2.9267e-05
0.00529292
2.6841e-05
0.00529324
2.45565e-05
0.00529353
2.24103e-05
0.00529379
2.04001e-05
0.00529403
1.85216e-05
0.00529425
1.67742e-05
0.00529444
1.51508e-05
0.00529461
1.36558e-05
0.00529476
1.2275e-05
0.0052949
1.10247e-05
0.00529502
9.87319e-06
0.00529513
8.8652e-06
0.00529522
7.92777e-06
0.0052953
7.16838e-06
0.00529538
6.427e-06
0.00529544
5.93719e-06
0.0052955
5.3706e-06
0.00529556
5.19238e-06
0.00529561
4.77815e-06
0.00529567
4.97932e-06
0.00529572
4.70226e-06
0.00529579
5.37791e-06
0.00529584
5.2521e-06
0.00529593
6.51403e-06
0.005296
6.63804e-06
0.00529615
8.54639e-06
0.00529623
9.28954e-06
0.00529646
1.15606e-05
0.00529659
1.41155e-05
0.00529689
1.55479e-05
0.00529726
2.20371e-05
0.0052975
2.2424e-05
0.00529822
3.12619e-05
0.00529882
3.54698e-05
4.72356e-05
0.00525519
0.000211764
0.00525653
0.000203892
0.00525793
0.000196168
0.00525936
0.000188589
0.00526083
0.000181157
0.00526231
0.000173871
0.00526381
0.000166733
0.0052653
0.000159743
0.00526679
0.000152903
0.00526826
0.000146215
0.00526971
0.00013968
0.00527114
0.0001333
0.00527253
0.000127078
0.00527389
0.000121015
0.00527521
0.000115112
0.00527649
0.000109371
0.00527773
0.000103794
0.00527892
9.83805e-05
0.00528006
9.31327e-05
0.00528116
8.80508e-05
0.00528221
8.31352e-05
0.00528321
7.8386e-05
0.00528417
7.3803e-05
0.00528507
6.93858e-05
0.00528593
6.51337e-05
0.00528674
6.10458e-05
0.0052875
5.71212e-05
0.00528822
5.33584e-05
0.00528889
4.9756e-05
0.00528952
4.63123e-05
0.0052901
4.30256e-05
0.00529065
3.98938e-05
0.00529116
3.69148e-05
0.00529162
3.40862e-05
0.00529206
3.14055e-05
0.00529245
2.88701e-05
0.00529282
2.64772e-05
0.00529315
2.42242e-05
0.00529345
2.21077e-05
0.00529373
2.01255e-05
0.00529397
1.82733e-05
0.0052942
1.65505e-05
0.0052944
1.49502e-05
0.00529458
1.34763e-05
0.00529474
1.21152e-05
0.00529488
1.08827e-05
0.005295
9.74765e-06
0.00529512
8.75377e-06
0.00529521
7.82994e-06
0.0052953
7.08074e-06
0.00529538
6.35054e-06
0.00529545
5.86631e-06
0.00529551
5.30919e-06
0.00529557
5.13065e-06
0.00529563
4.7253e-06
0.00529569
4.91803e-06
0.00529574
4.65104e-06
0.00529581
5.30626e-06
0.00529587
5.19495e-06
0.00529596
6.41659e-06
0.00529603
6.56763e-06
0.00529618
8.39797e-06
0.00529627
9.19993e-06
0.00529651
1.13255e-05
0.00529665
1.39751e-05
0.00529695
1.52419e-05
0.00529733
2.16656e-05
0.00529758
2.21645e-05
0.0052983
3.05424e-05
0.00529892
3.48577e-05
4.62941e-05
0.00525291
0.000210342
0.00525439
0.000202408
0.00525593
0.000194636
0.00525749
0.000187023
0.00525908
0.000179568
0.00526068
0.00017227
0.00526229
0.000165129
0.00526389
0.000158145
0.00526547
0.000151319
0.00526703
0.000144651
0.00526857
0.000138143
0.00527008
0.000131795
0.00527155
0.000125608
0.00527298
0.000119584
0.00527437
0.000113724
0.00527571
0.000108028
0.005277
0.000102497
0.00527825
9.7133e-05
0.00527945
9.1935e-05
0.0052806
8.69039e-05
0.00528169
8.20395e-05
0.00528274
7.73417e-05
0.00528373
7.28101e-05
0.00528467
6.84439e-05
0.00528556
6.42424e-05
0.0052864
6.02044e-05
0.0052872
5.63286e-05
0.00528794
5.26137e-05
0.00528864
4.90581e-05
0.00528929
4.56599e-05
0.0052899
4.24173e-05
0.00529047
3.93281e-05
0.00529099
3.63901e-05
0.00529148
3.36009e-05
0.00529192
3.09579e-05
0.00529234
2.84585e-05
0.00529271
2.60999e-05
0.00529306
2.38794e-05
0.00529337
2.17937e-05
0.00529366
1.98405e-05
0.00529391
1.80156e-05
0.00529415
1.63182e-05
0.00529435
1.47416e-05
0.00529454
1.32896e-05
0.00529471
1.19488e-05
0.00529486
1.07346e-05
0.00529499
9.61662e-06
0.0052951
8.63733e-06
0.00529521
7.72755e-06
0.0052953
6.98893e-06
0.00529538
6.27021e-06
0.00529545
5.79188e-06
0.00529552
5.2444e-06
0.00529558
5.06578e-06
0.00529564
4.66933e-06
0.0052957
4.85384e-06
0.00529576
4.59668e-06
0.00529583
5.23176e-06
0.00529589
5.13429e-06
0.00529599
6.31629e-06
0.00529607
6.49255e-06
0.00529622
8.24724e-06
0.00529632
9.10241e-06
0.00529655
1.10908e-05
0.0052967
1.3821e-05
0.00529701
1.49361e-05
0.00529739
2.12862e-05
0.00529767
2.18829e-05
0.00529838
2.98311e-05
0.00529901
3.42309e-05
4.53345e-05
0.00525062
0.000208764
0.00525225
0.000200777
0.00525392
0.000192965
0.00525562
0.000185325
0.00525733
0.000177854
0.00525905
0.000170551
0.00526077
0.000163414
0.00526247
0.000156443
0.00526415
0.000149637
0.00526581
0.000142995
0.00526743
0.000136519
0.00526902
0.000130207
0.00527057
0.000124061
0.00527207
0.000118082
0.00527353
0.000112268
0.00527493
0.000106621
0.00527629
0.000101142
0.00527759
9.58301e-05
0.00527884
9.06856e-05
0.00528003
8.57086e-05
0.00528118
8.08986e-05
0.00528226
7.62553e-05
0.00528329
7.17778e-05
0.00528427
6.74654e-05
0.0052852
6.33169e-05
0.00528607
5.93311e-05
0.00528689
5.55066e-05
0.00528767
5.18417e-05
0.00528839
4.83348e-05
0.00528906
4.49839e-05
0.0052897
4.17871e-05
0.00529028
3.87422e-05
0.00529082
3.58467e-05
0.00529133
3.30983e-05
0.00529179
3.04944e-05
0.00529222
2.80324e-05
0.00529261
2.57092e-05
0.00529296
2.35224e-05
0.00529329
2.14684e-05
0.00529358
1.95452e-05
0.00529385
1.77483e-05
0.00529409
1.60772e-05
0.00529431
1.45251e-05
0.0052945
1.30957e-05
0.00529468
1.17759e-05
0.00529483
1.05806e-05
0.00529497
9.48015e-06
0.00529509
8.51594e-06
0.0052952
7.6206e-06
0.00529529
6.89295e-06
0.00529538
6.18601e-06
0.00529545
5.7139e-06
0.00529552
5.17623e-06
0.00529559
4.9978e-06
0.00529565
4.61023e-06
0.00529572
4.78677e-06
0.00529577
4.5392e-06
0.00529585
5.15443e-06
0.00529591
5.07012e-06
0.00529602
6.21316e-06
0.0052961
6.4128e-06
0.00529625
8.09428e-06
0.00529636
8.99701e-06
0.00529659
1.08563e-05
0.00529676
1.36533e-05
0.00529706
1.46305e-05
0.00529745
2.08989e-05
0.00529775
2.15799e-05
0.00529846
2.91279e-05
0.0052991
3.35897e-05
4.43581e-05
0.00524832
0.000207029
0.0052501
0.000198996
0.00525192
0.000191152
0.00525375
0.000183493
0.00525559
0.000176014
0.00525743
0.000168713
0.00525925
0.000161588
0.00526106
0.000154636
0.00526284
0.000147856
0.00526459
0.000141247
0.0052663
0.000134808
0.00526797
0.000128538
0.00526959
0.000122438
0.00527117
0.000116507
0.00527269
0.000110745
0.00527416
0.000105152
0.00527557
9.97279e-05
0.00527693
9.44722e-05
0.00527823
8.93848e-05
0.00527948
8.44652e-05
0.00528066
7.97129e-05
0.00528179
7.5127e-05
0.00528286
7.07066e-05
0.00528388
6.64506e-05
0.00528484
6.23577e-05
0.00528574
5.84264e-05
0.00528659
5.46553e-05
0.00528739
5.10425e-05
0.00528814
4.75863e-05
0.00528884
4.42846e-05
0.00528949
4.11354e-05
0.0052901
3.81362e-05
0.00529066
3.52849e-05
0.00529118
3.25788e-05
0.00529166
3.00153e-05
0.0052921
2.75918e-05
0.0052925
2.53053e-05
0.00529287
2.31531e-05
0.00529321
2.1132e-05
0.00529351
1.92396e-05
0.00529379
1.74718e-05
0.00529404
1.58277e-05
0.00529426
1.43008e-05
0.00529446
1.28947e-05
0.00529464
1.15965e-05
0.0052948
1.04206e-05
0.00529494
9.33827e-06
0.00529507
8.3896e-06
0.00529518
7.50912e-06
0.00529528
6.79284e-06
0.00529537
6.09797e-06
0.00529545
5.63239e-06
0.00529552
5.10469e-06
0.00529559
4.92671e-06
0.00529566
4.54802e-06
0.00529573
4.71682e-06
0.00529579
4.4786e-06
0.00529587
5.07428e-06
0.00529594
5.00245e-06
0.00529604
6.10723e-06
0.00529613
6.3284e-06
0.00529628
7.93914e-06
0.00529639
8.88379e-06
0.00529663
1.06223e-05
0.00529681
1.34723e-05
0.00529711
1.43251e-05
0.00529751
2.05041e-05
0.00529783
2.12562e-05
0.00529853
2.84327e-05
0.00529918
3.29346e-05
4.33662e-05
0.00524602
0.000205133
0.00524796
0.000197064
0.00524991
0.000189196
0.00525188
0.000181525
0.00525385
0.000174047
0.0052558
0.000166756
0.00525774
0.000159649
0.00525966
0.000152723
0.00526154
0.000145976
0.00526338
0.000139405
0.00526518
0.00013301
0.00526693
0.000126788
0.00526863
0.000120739
0.00527027
0.000114862
0.00527186
0.000109156
0.00527339
0.00010362
0.00527487
9.82553e-05
0.00527628
9.30596e-05
0.00527763
8.80329e-05
0.00527892
8.31741e-05
0.00528015
7.84826e-05
0.00528132
7.39572e-05
0.00528243
6.95966e-05
0.00528348
6.53997e-05
0.00528447
6.13649e-05
0.00528541
5.74905e-05
0.00528629
5.3775e-05
0.00528712
5.02165e-05
0.00528789
4.68129e-05
0.00528861
4.35622e-05
0.00528929
4.04622e-05
0.00528991
3.75106e-05
0.00529049
3.47048e-05
0.00529103
3.20424e-05
0.00529152
2.95207e-05
0.00529198
2.7137e-05
0.00529239
2.48882e-05
0.00529278
2.27719e-05
0.00529312
2.07845e-05
0.00529344
1.89239e-05
0.00529372
1.71859e-05
0.00529398
1.55697e-05
0.00529421
1.40688e-05
0.00529442
1.26867e-05
0.00529461
1.14106e-05
0.00529477
1.02548e-05
0.00529492
9.19103e-06
0.00529505
8.25839e-06
0.00529517
7.39316e-06
0.00529527
6.68863e-06
0.00529536
6.00613e-06
0.00529545
5.54738e-06
0.00529552
5.02981e-06
0.0052956
4.85253e-06
0.00529566
4.48272e-06
0.00529574
4.64402e-06
0.0052958
4.4149e-06
0.00529588
4.99133e-06
0.00529595
4.93131e-06
0.00529606
5.99856e-06
0.00529615
6.23936e-06
0.00529631
7.78187e-06
0.00529643
8.76283e-06
0.00529666
1.03885e-05
0.00529686
1.32784e-05
0.00529716
1.40198e-05
0.00529757
2.01019e-05
0.00529791
2.09125e-05
0.0052986
2.77449e-05
0.00529927
3.22659e-05
4.23602e-05
0.00524372
0.000203074
0.00524581
0.000194977
0.00524791
0.000187095
0.00525002
0.000179421
0.00525211
0.000171951
0.00525419
0.000164678
0.00525624
0.000157597
0.00525826
0.000150705
0.00526024
0.000143997
0.00526217
0.000137471
0.00526406
0.000131125
0.00526589
0.000124956
0.00526766
0.000118963
0.00526938
0.000113145
0.00527104
0.000107499
0.00527263
0.000102026
0.00527416
9.67245e-05
0.00527563
9.15928e-05
0.00527703
8.66303e-05
0.00527837
8.18358e-05
0.00527964
7.72082e-05
0.00528086
7.27462e-05
0.005282
6.84484e-05
0.00528309
6.43132e-05
0.00528412
6.03389e-05
0.00528508
5.65239e-05
0.00528599
5.28662e-05
0.00528684
4.93639e-05
0.00528764
4.60149e-05
0.00528839
4.28171e-05
0.00528908
3.97681e-05
0.00528973
3.68655e-05
0.00529032
3.41068e-05
0.00529088
3.14895e-05
0.00529139
2.90108e-05
0.00529186
2.6668e-05
0.00529229
2.44583e-05
0.00529268
2.23787e-05
0.00529304
2.04262e-05
0.00529336
1.85983e-05
0.00529366
1.6891e-05
0.00529393
1.53034e-05
0.00529416
1.38292e-05
0.00529438
1.24716e-05
0.00529457
1.12184e-05
0.00529474
1.00831e-05
0.0052949
9.0385e-06
0.00529503
8.12234e-06
0.00529515
7.27277e-06
0.00529526
6.58036e-06
0.00529536
5.91051e-06
0.00529544
5.4589e-06
0.00529552
4.95162e-06
0.0052956
4.7753e-06
0.00529567
4.41436e-06
0.00529574
4.56839e-06
0.00529581
4.34814e-06
0.0052959
4.90564e-06
0.00529597
4.85672e-06
0.00529608
5.88717e-06
0.00529618
6.14574e-06
0.00529634
7.62252e-06
0.00529646
8.63427e-06
0.0052967
1.0155e-05
0.0052969
1.30719e-05
0.00529721
1.37143e-05
0.00529762
1.96924e-05
0.00529798
2.05498e-05
0.00529866
2.70641e-05
0.00529934
3.15841e-05
4.13414e-05
0.00524142
0.000200849
0.00524367
0.000192733
0.00524592
0.000184846
0.00524816
0.000177179
0.00525038
0.000169726
0.00525258
0.000162478
0.00525475
0.000155432
0.00525687
0.00014858
0.00525895
0.000141919
0.00526098
0.000135444
0.00526295
0.000129153
0.00526486
0.000123043
0.00526671
0.000117112
0.0052685
0.000111357
0.00527022
0.000105777
0.00527188
0.000100371
0.00527347
9.51361e-05
0.00527499
9.00721e-05
0.00527644
8.51775e-05
0.00527783
8.04506e-05
0.00527914
7.58902e-05
0.0052804
7.14947e-05
0.00528158
6.72623e-05
0.0052827
6.31914e-05
0.00528376
5.92802e-05
0.00528476
5.55268e-05
0.0052857
5.19291e-05
0.00528657
4.84851e-05
0.0052874
4.51927e-05
0.00528816
4.20494e-05
0.00528888
3.90531e-05
0.00528954
3.62011e-05
0.00529016
3.3491e-05
0.00529073
3.09202e-05
0.00529125
2.84858e-05
0.00529174
2.61853e-05
0.00529218