/*--------------------------------*- C++ -*----------------------------------*\
| =========                 |                                                 |
| \\      /  F ield         | OpenFOAM: The Open Source CFD Toolbox           |
|  \\    /   O peration     | Version:  2412                                  |
|   \\  /    A nd           | Website:  www.openfoam.com                      |
|    \\/     M anipulation  |                                                 |
\*---------------------------------------------------------------------------*/
FoamFile
{
    version     2.0;
    format      ascii;
    arch        "LSB;label=32;scalar=64";
    class       volVectorField;
    location    "27.5";
    object      vorticity;
}
// * * * * * * * * * * * * * * * * * * * * * * * * * * * * * * * * * * * * * //

dimensions      [0 0 -1 0 0 0 0];

internalField   nonuniform List<vector> 
5285
(
(0 -0 -8.93847e-06)
(0 -0 -1.17928e-05)
(0 -0 -1.49638e-05)
(0 -0 -1.8309e-05)
(0 -0 -2.16107e-05)
(0 -0 -2.47522e-05)
(0 -0 -2.76504e-05)
(0 -0 -3.02491e-05)
(0 -0 -3.25197e-05)
(0 -0 -3.44584e-05)
(0 -0 -3.60781e-05)
(0 -0 -3.74012e-05)
(0 -0 -3.84526e-05)
(0 -0 -3.92571e-05)
(0 -0 -3.98385e-05)
(0 -0 -4.02198e-05)
(0 -0 -4.04238e-05)
(0 -0 -4.04727e-05)
(0 -0 -4.03881e-05)
(0 -0 -4.01901e-05)
(0 -0 -3.98974e-05)
(0 -0 -3.95268e-05)
(0 -0 -3.90926e-05)
(0 -0 -3.8607e-05)
(0 -0 -3.80798e-05)
(0 -0 -3.75188e-05)
(0 -0 -3.693e-05)
(0 -0 -3.63182e-05)
(0 -0 -3.56876e-05)
(0 -0 -3.50419e-05)
(0 -0 -3.43851e-05)
(0 -0 -3.37211e-05)
(0 -0 -3.30538e-05)
(0 -0 -3.23863e-05)
(0 -0 -3.17205e-05)
(0 -0 -3.10578e-05)
(0 -0 -3.0399e-05)
(0 -0 -2.97453e-05)
(0 -0 -2.90973e-05)
(0 -0 -2.84573e-05)
(0 -0 -2.78252e-05)
(0 -0 -2.72037e-05)
(0 -0 -2.65885e-05)
(0 -0 -2.59847e-05)
(0 -0 -2.53822e-05)
(0 -0 -2.47978e-05)
(0 -0 -2.42084e-05)
(0 -0 -2.36552e-05)
(0 -0 -2.30795e-05)
(0 -0 -2.25718e-05)
(0 -0 -2.19974e-05)
(0 -0 -2.155e-05)
(0 -0 -2.09483e-05)
(0 -0 -2.05881e-05)
(0 -0 -1.99194e-05)
(0 -0 -1.96902e-05)
(0 -0 -1.88902e-05)
(0 -0 -1.88414e-05)
(0 -0 -1.78264e-05)
(0 -0 -1.80156e-05)
(0 -0 -1.67596e-05)
(0 -0 -1.7026e-05)
(0 -0 -1.62737e-05)
(0 -0 -1.42518e-05)
(0 -0 -1.95477e-05)
(0 -0 -5.90781e-06)
(0 -0 -2.50247e-05)
(0 -0 -7.46985e-06)
(0 -0 -8.99455e-06)
(0 -0 -1.09807e-05)
(0 -0 -2.85981e-05)
(0 -0 -7.95686e-06)
(0 -0 -1.05126e-05)
(0 -0 -1.3392e-05)
(0 -0 -1.64592e-05)
(0 -0 -1.95053e-05)
(0 -0 -2.24163e-05)
(0 -0 -2.5111e-05)
(0 -0 -2.75336e-05)
(0 -0 -2.96551e-05)
(0 -0 -3.147e-05)
(0 -0 -3.29894e-05)
(0 -0 -3.42333e-05)
(0 -0 -3.52244e-05)
(0 -0 -3.59854e-05)
(0 -0 -3.6538e-05)
(0 -0 -3.69038e-05)
(0 -0 -3.71039e-05)
(0 -0 -3.71592e-05)
(0 -0 -3.70898e-05)
(0 -0 -3.69149e-05)
(0 -0 -3.66519e-05)
(0 -0 -3.63163e-05)
(0 -0 -3.59218e-05)
(0 -0 -3.54797e-05)
(0 -0 -3.49991e-05)
(0 -0 -3.44873e-05)
(0 -0 -3.39499e-05)
(0 -0 -3.33914e-05)
(0 -0 -3.28156e-05)
(0 -0 -3.22261e-05)
(0 -0 -3.16265e-05)
(0 -0 -3.10205e-05)
(0 -0 -3.04116e-05)
(0 -0 -2.98026e-05)
(0 -0 -2.91954e-05)
(0 -0 -2.85912e-05)
(0 -0 -2.79907e-05)
(0 -0 -2.73951e-05)
(0 -0 -2.68051e-05)
(0 -0 -2.62226e-05)
(0 -0 -2.56474e-05)
(0 -0 -2.50822e-05)
(0 -0 -2.45228e-05)
(0 -0 -2.39741e-05)
(0 -0 -2.34265e-05)
(0 -0 -2.2896e-05)
(0 -0 -2.23602e-05)
(0 -0 -2.1859e-05)
(0 -0 -2.1335e-05)
(0 -0 -2.08765e-05)
(0 -0 -2.03522e-05)
(0 -0 -1.9951e-05)
(0 -0 -1.93989e-05)
(0 -0 -1.90814e-05)
(0 -0 -1.84631e-05)
(0 -0 -1.82717e-05)
(0 -0 -1.75258e-05)
(0 -0 -1.75084e-05)
(0 -0 -1.65558e-05)
(0 -0 -1.67666e-05)
(0 -0 -1.55796e-05)
(0 -0 -1.58876e-05)
(0 -0 -1.50827e-05)
(0 -0 -1.35366e-05)
(0 -0 -1.76305e-05)
(0 -0 -6.80112e-06)
(0 -0 -2.14511e-05)
(0 -0 -8.81252e-06)
(0 -0 -8.2423e-06)
(0 -0 -8.91421e-06)
(0 -0 -2.74576e-05)
(0 -0 -7.04703e-06)
(0 -0 -9.30448e-06)
(0 -0 -1.1891e-05)
(0 -0 -1.46834e-05)
(0 -0 -1.7476e-05)
(0 -0 -2.01582e-05)
(0 -0 -2.26509e-05)
(0 -0 -2.48988e-05)
(0 -0 -2.68721e-05)
(0 -0 -2.85639e-05)
(0 -0 -2.99833e-05)
(0 -0 -3.1148e-05)
(0 -0 -3.20787e-05)
(0 -0 -3.27957e-05)
(0 -0 -3.33191e-05)
(0 -0 -3.36686e-05)
(0 -0 -3.3864e-05)
(0 -0 -3.39248e-05)
(0 -0 -3.38698e-05)
(0 -0 -3.3717e-05)
(0 -0 -3.34825e-05)
(0 -0 -3.3181e-05)
(0 -0 -3.28251e-05)
(0 -0 -3.24253e-05)
(0 -0 -3.19901e-05)
(0 -0 -3.15263e-05)
(0 -0 -3.1039e-05)
(0 -0 -3.05325e-05)
(0 -0 -3.00103e-05)
(0 -0 -2.94757e-05)
(0 -0 -2.89321e-05)
(0 -0 -2.83828e-05)
(0 -0 -2.78311e-05)
(0 -0 -2.72793e-05)
(0 -0 -2.67293e-05)
(0 -0 -2.61823e-05)
(0 -0 -2.56388e-05)
(0 -0 -2.51001e-05)
(0 -0 -2.45666e-05)
(0 -0 -2.40403e-05)
(0 -0 -2.35208e-05)
(0 -0 -2.30106e-05)
(0 -0 -2.25057e-05)
(0 -0 -2.20108e-05)
(0 -0 -2.15167e-05)
(0 -0 -2.10389e-05)
(0 -0 -2.05553e-05)
(0 -0 -2.01049e-05)
(0 -0 -1.96315e-05)
(0 -0 -1.92209e-05)
(0 -0 -1.87454e-05)
(0 -0 -1.83893e-05)
(0 -0 -1.78856e-05)
(0 -0 -1.76096e-05)
(0 -0 -1.70407e-05)
(0 -0 -1.68859e-05)
(0 -0 -1.6193e-05)
(0 -0 -1.62059e-05)
(0 -0 -1.53146e-05)
(0 -0 -1.5546e-05)
(0 -0 -1.44275e-05)
(0 -0 -1.47743e-05)
(0 -0 -1.39229e-05)
(0 -0 -1.28305e-05)
(0 -0 -1.57773e-05)
(0 -0 -7.64038e-06)
(0 -0 -1.80118e-05)
(0 -0 -1.00886e-05)
(0 -0 -7.50359e-06)
(0 -0 -6.95226e-06)
(0 -0 -2.63362e-05)
(0 -0 -6.19491e-06)
(0 -0 -8.15712e-06)
(0 -0 -1.04584e-05)
(0 -0 -1.29818e-05)
(0 -0 -1.55262e-05)
(0 -0 -1.79846e-05)
(0 -0 -2.02798e-05)
(0 -0 -2.23568e-05)
(0 -0 -2.41852e-05)
(0 -0 -2.57564e-05)
(0 -0 -2.70777e-05)
(0 -0 -2.81647e-05)
(0 -0 -2.90357e-05)
(0 -0 -2.97092e-05)
(0 -0 -3.02033e-05)
(0 -0 -3.05363e-05)
(0 -0 -3.07265e-05)
(0 -0 -3.0792e-05)
(0 -0 -3.07505e-05)
(0 -0 -3.06186e-05)
(0 -0 -3.04114e-05)
(0 -0 -3.01426e-05)
(0 -0 -2.98237e-05)
(0 -0 -2.94646e-05)
(0 -0 -2.90732e-05)
(0 -0 -2.86556e-05)
(0 -0 -2.82167e-05)
(0 -0 -2.77603e-05)
(0 -0 -2.72899e-05)
(0 -0 -2.68084e-05)
(0 -0 -2.63188e-05)
(0 -0 -2.58242e-05)
(0 -0 -2.53276e-05)
(0 -0 -2.48311e-05)
(0 -0 -2.43364e-05)
(0 -0 -2.38446e-05)
(0 -0 -2.33562e-05)
(0 -0 -2.28724e-05)
(0 -0 -2.23936e-05)
(0 -0 -2.19215e-05)
(0 -0 -2.14557e-05)
(0 -0 -2.09985e-05)
(0 -0 -2.05461e-05)
(0 -0 -2.01033e-05)
(0 -0 -1.96606e-05)
(0 -0 -1.92337e-05)
(0 -0 -1.88005e-05)
(0 -0 -1.83991e-05)
(0 -0 -1.79743e-05)
(0 -0 -1.761e-05)
(0 -0 -1.71816e-05)
(0 -0 -1.68688e-05)
(0 -0 -1.64118e-05)
(0 -0 -1.61757e-05)
(0 -0 -1.56544e-05)
(0 -0 -1.55348e-05)
(0 -0 -1.48933e-05)
(0 -0 -1.49347e-05)
(0 -0 -1.41035e-05)
(0 -0 -1.43535e-05)
(0 -0 -1.3303e-05)
(0 -0 -1.36846e-05)
(0 -0 -1.27943e-05)
(0 -0 -1.21263e-05)
(0 -0 -1.39978e-05)
(0 -0 -8.3975e-06)
(0 -0 -1.47391e-05)
(0 -0 -1.12625e-05)
(0 -0 -6.77229e-06)
(0 -0 -5.1119e-06)
(0 -0 -2.52239e-05)
(0 -0 -5.38722e-06)
(0 -0 -7.06353e-06)
(0 -0 -9.08859e-06)
(0 -0 -1.13519e-05)
(0 -0 -1.36564e-05)
(0 -0 -1.58988e-05)
(0 -0 -1.80033e-05)
(0 -0 -1.99155e-05)
(0 -0 -2.16041e-05)
(0 -0 -2.30591e-05)
(0 -0 -2.42857e-05)
(0 -0 -2.52975e-05)
(0 -0 -2.61106e-05)
(0 -0 -2.67417e-05)
(0 -0 -2.72073e-05)
(0 -0 -2.7524e-05)
(0 -0 -2.77087e-05)
(0 -0 -2.77783e-05)
(0 -0 -2.77493e-05)
(0 -0 -2.76372e-05)
(0 -0 -2.74559e-05)
(0 -0 -2.72182e-05)
(0 -0 -2.69347e-05)
(0 -0 -2.66145e-05)
(0 -0 -2.62648e-05)
(0 -0 -2.58913e-05)
(0 -0 -2.54986e-05)
(0 -0 -2.50902e-05)
(0 -0 -2.46692e-05)
(0 -0 -2.42384e-05)
(0 -0 -2.38005e-05)
(0 -0 -2.33583e-05)
(0 -0 -2.29144e-05)
(0 -0 -2.24708e-05)
(0 -0 -2.20289e-05)
(0 -0 -2.15898e-05)
(0 -0 -2.11541e-05)
(0 -0 -2.07227e-05)
(0 -0 -2.0296e-05)
(0 -0 -1.98757e-05)
(0 -0 -1.94612e-05)
(0 -0 -1.90547e-05)
(0 -0 -1.86524e-05)
(0 -0 -1.82591e-05)
(0 -0 -1.78656e-05)
(0 -0 -1.74871e-05)
(0 -0 -1.71021e-05)
(0 -0 -1.67473e-05)
(0 -0 -1.6369e-05)
(0 -0 -1.60487e-05)
(0 -0 -1.56652e-05)
(0 -0 -1.53935e-05)
(0 -0 -1.49811e-05)
(0 -0 -1.47828e-05)
(0 -0 -1.43071e-05)
(0 -0 -1.42205e-05)
(0 -0 -1.36285e-05)
(0 -0 -1.36965e-05)
(0 -0 -1.29233e-05)
(0 -0 -1.31901e-05)
(0 -0 -1.22059e-05)
(0 -0 -1.26179e-05)
(0 -0 -1.16968e-05)
(0 -0 -1.14192e-05)
(0 -0 -1.22992e-05)
(0 -0 -9.05004e-06)
(0 -0 -1.1658e-05)
(0 -0 -1.23065e-05)
(0 -0 -6.04066e-06)
(0 -0 -3.40632e-06)
(0 -0 -2.41128e-05)
(0 -0 -4.61415e-06)
(0 -0 -6.01718e-06)
(0 -0 -7.77806e-06)
(0 -0 -9.79274e-06)
(0 -0 -1.18685e-05)
(0 -0 -1.3905e-05)
(0 -0 -1.58282e-05)
(0 -0 -1.75837e-05)
(0 -0 -1.91394e-05)
(0 -0 -2.04839e-05)
(0 -0 -2.16204e-05)
(0 -0 -2.25605e-05)
(0 -0 -2.33185e-05)
(0 -0 -2.39092e-05)
(0 -0 -2.43474e-05)
(0 -0 -2.46484e-05)
(0 -0 -2.48276e-05)
(0 -0 -2.49009e-05)
(0 -0 -2.48836e-05)
(0 -0 -2.479e-05)
(0 -0 -2.46332e-05)
(0 -0 -2.44248e-05)
(0 -0 -2.41747e-05)
(0 -0 -2.38912e-05)
(0 -0 -2.3581e-05)
(0 -0 -2.32493e-05)
(0 -0 -2.29002e-05)
(0 -0 -2.25372e-05)
(0 -0 -2.2163e-05)
(0 -0 -2.17801e-05)
(0 -0 -2.13911e-05)
(0 -0 -2.09984e-05)
(0 -0 -2.06042e-05)
(0 -0 -2.02106e-05)
(0 -0 -1.98187e-05)
(0 -0 -1.94294e-05)
(0 -0 -1.90433e-05)
(0 -0 -1.86614e-05)
(0 -0 -1.82841e-05)
(0 -0 -1.79126e-05)
(0 -0 -1.75465e-05)
(0 -0 -1.71878e-05)
(0 -0 -1.68327e-05)
(0 -0 -1.64861e-05)
(0 -0 -1.6139e-05)
(0 -0 -1.58061e-05)
(0 -0 -1.54664e-05)
(0 -0 -1.51555e-05)
(0 -0 -1.4821e-05)
(0 -0 -1.45421e-05)
(0 -0 -1.4201e-05)
(0 -0 -1.39679e-05)
(0 -0 -1.35976e-05)
(0 -0 -1.34348e-05)
(0 -0 -1.30022e-05)
(0 -0 -1.29463e-05)
(0 -0 -1.24013e-05)
(0 -0 -1.24938e-05)
(0 -0 -1.1776e-05)
(0 -0 -1.20573e-05)
(0 -0 -1.11377e-05)
(0 -0 -1.15751e-05)
(0 -0 -1.06318e-05)
(0 -0 -1.07063e-05)
(0 -0 -1.0689e-05)
(0 -0 -9.58113e-06)
(0 -0 -8.79084e-06)
(0 -0 -1.31985e-05)
(0 -0 -5.30589e-06)
(0 -0 -1.84656e-06)
(0 -0 -2.29993e-05)
(0 -0 -3.86836e-06)
(0 -0 -5.01271e-06)
(0 -0 -6.52379e-06)
(0 -0 -8.30375e-06)
(0 -0 -1.01639e-05)
(0 -0 -1.20067e-05)
(0 -0 -1.37596e-05)
(0 -0 -1.53681e-05)
(0 -0 -1.67992e-05)
(0 -0 -1.804e-05)
(0 -0 -1.90921e-05)
(0 -0 -1.99651e-05)
(0 -0 -2.06714e-05)
(0 -0 -2.12241e-05)
(0 -0 -2.16366e-05)
(0 -0 -2.19226e-05)
(0 -0 -2.20967e-05)
(0 -0 -2.21734e-05)
(0 -0 -2.2167e-05)
(0 -0 -2.20908e-05)
(0 -0 -2.1957e-05)
(0 -0 -2.17761e-05)
(0 -0 -2.15573e-05)
(0 -0 -2.13082e-05)
(0 -0 -2.1035e-05)
(0 -0 -2.07424e-05)
(0 -0 -2.04343e-05)
(0 -0 -2.01137e-05)
(0 -0 -1.97833e-05)
(0 -0 -1.94453e-05)
(0 -0 -1.9102e-05)
(0 -0 -1.87556e-05)
(0 -0 -1.84081e-05)
(0 -0 -1.80612e-05)
(0 -0 -1.77159e-05)
(0 -0 -1.73732e-05)
(0 -0 -1.70336e-05)
(0 -0 -1.6698e-05)
(0 -0 -1.63667e-05)
(0 -0 -1.60409e-05)
(0 -0 -1.57199e-05)
(0 -0 -1.54058e-05)
(0 -0 -1.50948e-05)
(0 -0 -1.47917e-05)
(0 -0 -1.44878e-05)
(0 -0 -1.41975e-05)
(0 -0 -1.39e-05)
(0 -0 -1.363e-05)
(0 -0 -1.33363e-05)
(0 -0 -1.30959e-05)
(0 -0 -1.27943e-05)
(0 -0 -1.25971e-05)
(0 -0 -1.22661e-05)
(0 -0 -1.21359e-05)
(0 -0 -1.17438e-05)
(0 -0 -1.17161e-05)
(0 -0 -1.12153e-05)
(0 -0 -1.13297e-05)
(0 -0 -1.06645e-05)
(0 -0 -1.0958e-05)
(0 -0 -1.01005e-05)
(0 -0 -1.05581e-05)
(0 -0 -9.60158e-06)
(0 -0 -9.98705e-06)
(0 -0 -9.17326e-06)
(0 -0 -9.98045e-06)
(0 -0 -6.15342e-06)
(0 -0 -1.39245e-05)
(0 -0 -4.56619e-06)
(0 -0 -4.40188e-07)
(0 -0 -2.18808e-05)
(0 -0 -3.14574e-06)
(0 -0 -4.0478e-06)
(0 -0 -5.32534e-06)
(0 -0 -6.88632e-06)
(0 -0 -8.54581e-06)
(0 -0 -1.02088e-05)
(0 -0 -1.18038e-05)
(0 -0 -1.32762e-05)
(0 -0 -1.45921e-05)
(0 -0 -1.57372e-05)
(0 -0 -1.67113e-05)
(0 -0 -1.75222e-05)
(0 -0 -1.81808e-05)
(0 -0 -1.86984e-05)
(0 -0 -1.90871e-05)
(0 -0 -1.93594e-05)
(0 -0 -1.95288e-05)
(0 -0 -1.96087e-05)
(0 -0 -1.96125e-05)
(0 -0 -1.95525e-05)
(0 -0 -1.94399e-05)
(0 -0 -1.92846e-05)
(0 -0 -1.90949e-05)
(0 -0 -1.88778e-05)
(0 -0 -1.86389e-05)
(0 -0 -1.83826e-05)
(0 -0 -1.81124e-05)
(0 -0 -1.78312e-05)
(0 -0 -1.75413e-05)
(0 -0 -1.72449e-05)
(0 -0 -1.6944e-05)
(0 -0 -1.66405e-05)
(0 -0 -1.63362e-05)
(0 -0 -1.60325e-05)
(0 -0 -1.57304e-05)
(0 -0 -1.54307e-05)
(0 -0 -1.51341e-05)
(0 -0 -1.48412e-05)
(0 -0 -1.45524e-05)
(0 -0 -1.42687e-05)
(0 -0 -1.39894e-05)
(0 -0 -1.37164e-05)
(0 -0 -1.3446e-05)
(0 -0 -1.31831e-05)
(0 -0 -1.29191e-05)
(0 -0 -1.26679e-05)
(0 -0 -1.24093e-05)
(0 -0 -1.2177e-05)
(0 -0 -1.19208e-05)
(0 -0 -1.17159e-05)
(0 -0 -1.14506e-05)
(0 -0 -1.12864e-05)
(0 -0 -1.09917e-05)
(0 -0 -1.08914e-05)
(0 -0 -1.05368e-05)
(0 -0 -1.05345e-05)
(0 -0 -1.0075e-05)
(0 -0 -1.02086e-05)
(0 -0 -9.593e-06)
(0 -0 -9.89606e-06)
(0 -0 -9.09793e-06)
(0 -0 -9.57037e-06)
(0 -0 -8.60936e-06)
(0 -0 -9.26334e-06)
(0 -0 -7.75761e-06)
(0 -0 -1.0244e-05)
(0 -0 -3.75725e-06)
(0 -0 -1.44777e-05)
(0 -0 -3.82322e-06)
(0 -0 8.07766e-07)
(0 -0 -2.07581e-05)
(0 -0 -2.44519e-06)
(0 -0 -3.12257e-06)
(0 -0 -4.18409e-06)
(0 -0 -5.54318e-06)
(0 -0 -7.01822e-06)
(0 -0 -8.51637e-06)
(0 -0 -9.96686e-06)
(0 -0 -1.13149e-05)
(0 -0 -1.25258e-05)
(0 -0 -1.35837e-05)
(0 -0 -1.44868e-05)
(0 -0 -1.52413e-05)
(0 -0 -1.58564e-05)
(0 -0 -1.63421e-05)
(0 -0 -1.67091e-05)
(0 -0 -1.6969e-05)
(0 -0 -1.71342e-05)
(0 -0 -1.72172e-05)
(0 -0 -1.72304e-05)
(0 -0 -1.71854e-05)
(0 -0 -1.70925e-05)
(0 -0 -1.69607e-05)
(0 -0 -1.67978e-05)
(0 -0 -1.661e-05)
(0 -0 -1.64026e-05)
(0 -0 -1.61796e-05)
(0 -0 -1.59442e-05)
(0 -0 -1.56991e-05)
(0 -0 -1.54464e-05)
(0 -0 -1.51881e-05)
(0 -0 -1.4926e-05)
(0 -0 -1.46617e-05)
(0 -0 -1.43969e-05)
(0 -0 -1.41328e-05)
(0 -0 -1.38702e-05)
(0 -0 -1.36099e-05)
(0 -0 -1.33525e-05)
(0 -0 -1.30987e-05)
(0 -0 -1.28487e-05)
(0 -0 -1.26035e-05)
(0 -0 -1.23623e-05)
(0 -0 -1.21267e-05)
(0 -0 -1.18934e-05)
(0 -0 -1.1667e-05)
(0 -0 -1.14393e-05)
(0 -0 -1.12238e-05)
(0 -0 -1.10007e-05)
(0 -0 -1.08026e-05)
(0 -0 -1.05807e-05)
(0 -0 -1.04079e-05)
(0 -0 -1.01759e-05)
(0 -0 -1.00415e-05)
(0 -0 -9.77993e-06)
(0 -0 -9.70648e-06)
(0 -0 -9.38631e-06)
(0 -0 -9.40658e-06)
(0 -0 -8.98535e-06)
(0 -0 -9.13549e-06)
(0 -0 -8.56619e-06)
(0 -0 -8.87618e-06)
(0 -0 -8.1346e-06)
(0 -0 -8.61643e-06)
(0 -0 -7.65944e-06)
(0 -0 -8.53915e-06)
(0 -0 -6.4467e-06)
(0 -0 -1.03735e-05)
(0 -0 -1.60886e-06)
(0 -0 -1.48584e-05)
(0 -0 -3.08106e-06)
(0 -0 1.89514e-06)
(0 -0 -1.96345e-05)
(0 -0 -1.76862e-06)
(0 -0 -2.23946e-06)
(0 -0 -3.10323e-06)
(0 -0 -4.27823e-06)
(0 -0 -5.58568e-06)
(0 -0 -6.93454e-06)
(0 -0 -8.25458e-06)
(0 -0 -9.49072e-06)
(0 -0 -1.06072e-05)
(0 -0 -1.15867e-05)
(0 -0 -1.2426e-05)
(0 -0 -1.31298e-05)
(0 -0 -1.37058e-05)
(0 -0 -1.41629e-05)
(0 -0 -1.45106e-05)
(0 -0 -1.47595e-05)
(0 -0 -1.4921e-05)
(0 -0 -1.50069e-05)
(0 -0 -1.50289e-05)
(0 -0 -1.49975e-05)
(0 -0 -1.49225e-05)
(0 -0 -1.48122e-05)
(0 -0 -1.46736e-05)
(0 -0 -1.45126e-05)
(0 -0 -1.43339e-05)
(0 -0 -1.41411e-05)
(0 -0 -1.39373e-05)
(0 -0 -1.37249e-05)
(0 -0 -1.35059e-05)
(0 -0 -1.32821e-05)
(0 -0 -1.30551e-05)
(0 -0 -1.28264e-05)
(0 -0 -1.25974e-05)
(0 -0 -1.23691e-05)
(0 -0 -1.21422e-05)
(0 -0 -1.19175e-05)
(0 -0 -1.16956e-05)
(0 -0 -1.14771e-05)
(0 -0 -1.12622e-05)
(0 -0 -1.10517e-05)
(0 -0 -1.08447e-05)
(0 -0 -1.0643e-05)
(0 -0 -1.04431e-05)
(0 -0 -1.02496e-05)
(0 -0 -1.00546e-05)
(0 -0 -9.87118e-06)
(0 -0 -9.68e-06)
(0 -0 -9.51268e-06)
(0 -0 -9.32161e-06)
(0 -0 -9.17774e-06)
(0 -0 -8.97566e-06)
(0 -0 -8.86791e-06)
(0 -0 -8.63643e-06)
(0 -0 -8.58683e-06)
(0 -0 -8.298e-06)
(0 -0 -8.33797e-06)
(0 -0 -7.95183e-06)
(0 -0 -8.11574e-06)
(0 -0 -7.58943e-06)
(0 -0 -7.90372e-06)
(0 -0 -7.21569e-06)
(0 -0 -7.7016e-06)
(0 -0 -6.75664e-06)
(0 -0 -7.82017e-06)
(0 -0 -5.24418e-06)
(0 -0 -1.03764e-05)
(0 -0 2.89998e-07)
(0 -0 -1.5073e-05)
(0 -0 -2.34585e-06)
(0 -0 2.82252e-06)
(0 -0 -1.85152e-05)
(0 -0 -1.12062e-06)
(0 -0 -1.40315e-06)
(0 -0 -2.08757e-06)
(0 -0 -3.09639e-06)
(0 -0 -4.25329e-06)
(0 -0 -5.46859e-06)
(0 -0 -6.67235e-06)
(0 -0 -7.80895e-06)
(0 -0 -8.84153e-06)
(0 -0 -9.75158e-06)
(0 -0 -1.05344e-05)
(0 -0 -1.11933e-05)
(0 -0 -1.17348e-05)
(0 -0 -1.21665e-05)
(0 -0 -1.24971e-05)
(0 -0 -1.27362e-05)
(0 -0 -1.28947e-05)
(0 -0 -1.29834e-05)
(0 -0 -1.30133e-05)
(0 -0 -1.29944e-05)
(0 -0 -1.29356e-05)
(0 -0 -1.28446e-05)
(0 -0 -1.27279e-05)
(0 -0 -1.25909e-05)
(0 -0 -1.24379e-05)
(0 -0 -1.22723e-05)
(0 -0 -1.20968e-05)
(0 -0 -1.19137e-05)
(0 -0 -1.17249e-05)
(0 -0 -1.15321e-05)
(0 -0 -1.13365e-05)
(0 -0 -1.11397e-05)
(0 -0 -1.09426e-05)
(0 -0 -1.07463e-05)
(0 -0 -1.05514e-05)
(0 -0 -1.03586e-05)
(0 -0 -1.01683e-05)
(0 -0 -9.98133e-06)
(0 -0 -9.79769e-06)
(0 -0 -9.61817e-06)
(0 -0 -9.44179e-06)
(0 -0 -9.27015e-06)
(0 -0 -9.10001e-06)
(0 -0 -8.93588e-06)
(0 -0 -8.76999e-06)
(0 -0 -8.61515e-06)
(0 -0 -8.45238e-06)
(0 -0 -8.3124e-06)
(0 -0 -8.14881e-06)
(0 -0 -8.03056e-06)
(0 -0 -7.85524e-06)
(0 -0 -7.77105e-06)
(0 -0 -7.56649e-06)
(0 -0 -7.53775e-06)
(0 -0 -7.27722e-06)
(0 -0 -7.33401e-06)
(0 -0 -6.97989e-06)
(0 -0 -7.15483e-06)
(0 -0 -6.66824e-06)
(0 -0 -6.98425e-06)
(0 -0 -6.34668e-06)
(0 -0 -6.83165e-06)
(0 -0 -5.90606e-06)
(0 -0 -7.11336e-06)
(0 -0 -4.15255e-06)
(0 -0 -1.02639e-05)
(0 -0 1.94196e-06)
(0 -0 -1.51332e-05)
(0 -0 -1.62527e-06)
(0 -0 3.59308e-06)
(0 -0 -1.74073e-05)
(0 -0 -5.07957e-07)
(0 -0 -6.20049e-07)
(0 -0 -1.14313e-06)
(0 -0 -2.00336e-06)
(0 -0 -3.02644e-06)
(0 -0 -4.1236e-06)
(0 -0 -5.22492e-06)
(0 -0 -6.27408e-06)
(0 -0 -7.23317e-06)
(0 -0 -8.0824e-06)
(0 -0 -8.81582e-06)
(0 -0 -9.43542e-06)
(0 -0 -9.9466e-06)
(0 -0 -1.03561e-05)
(0 -0 -1.06718e-05)
(0 -0 -1.09025e-05)
(0 -0 -1.10583e-05)
(0 -0 -1.11496e-05)
(0 -0 -1.11866e-05)
(0 -0 -1.11788e-05)
(0 -0 -1.11344e-05)
(0 -0 -1.10606e-05)
(0 -0 -1.09634e-05)
(0 -0 -1.08478e-05)
(0 -0 -1.07176e-05)
(0 -0 -1.0576e-05)
(0 -0 -1.04256e-05)
(0 -0 -1.02685e-05)
(0 -0 -1.01064e-05)
(0 -0 -9.94089e-06)
(0 -0 -9.77318e-06)
(0 -0 -9.60448e-06)
(0 -0 -9.43574e-06)
(0 -0 -9.26772e-06)
(0 -0 -9.10105e-06)
(0 -0 -8.93633e-06)
(0 -0 -8.77403e-06)
(0 -0 -8.6149e-06)
(0 -0 -8.45886e-06)
(0 -0 -8.30663e-06)
(0 -0 -8.15719e-06)
(0 -0 -8.01206e-06)
(0 -0 -7.86812e-06)
(0 -0 -7.7298e-06)
(0 -0 -7.58954e-06)
(0 -0 -7.45981e-06)
(0 -0 -7.32204e-06)
(0 -0 -7.20606e-06)
(0 -0 -7.06665e-06)
(0 -0 -6.97084e-06)
(0 -0 -6.81916e-06)
(0 -0 -6.75552e-06)
(0 -0 -6.57486e-06)
(0 -0 -6.56407e-06)
(0 -0 -6.32887e-06)
(0 -0 -6.39973e-06)
(0 -0 -6.07463e-06)
(0 -0 -6.25794e-06)
(0 -0 -5.80789e-06)
(0 -0 -6.12315e-06)
(0 -0 -5.53298e-06)
(0 -0 -6.01232e-06)
(0 -0 -5.11264e-06)
(0 -0 -6.42629e-06)
(0 -0 -3.17303e-06)
(0 -0 -1.0051e-05)
(0 -0 3.35363e-06)
(0 -0 -1.5055e-05)
(0 -0 -9.27932e-07)
(0 -0 4.21236e-06)
(0 -0 -1.63189e-05)
(0 -0 6.09075e-08)
(0 -0 1.02262e-07)
(0 -0 -2.76622e-07)
(0 -0 -1.00507e-06)
(0 -0 -1.91027e-06)
(0 -0 -2.904e-06)
(0 -0 -3.91603e-06)
(0 -0 -4.88927e-06)
(0 -0 -5.7847e-06)
(0 -0 -6.58132e-06)
(0 -0 -7.27196e-06)
(0 -0 -7.85753e-06)
(0 -0 -8.34246e-06)
(0 -0 -8.73273e-06)
(0 -0 -9.0354e-06)
(0 -0 -9.25876e-06)
(0 -0 -9.41227e-06)
(0 -0 -9.50585e-06)
(0 -0 -9.54911e-06)
(0 -0 -9.55096e-06)
(0 -0 -9.51922e-06)
(0 -0 -9.46051e-06)
(0 -0 -9.38038e-06)
(0 -0 -9.28338e-06)
(0 -0 -9.17313e-06)
(0 -0 -9.05258e-06)
(0 -0 -8.92415e-06)
(0 -0 -8.78973e-06)
(0 -0 -8.651e-06)
(0 -0 -8.50934e-06)
(0 -0 -8.36593e-06)
(0 -0 -8.2218e-06)
(0 -0 -8.07777e-06)
(0 -0 -7.93445e-06)
(0 -0 -7.79242e-06)
(0 -0 -7.65223e-06)
(0 -0 -7.51434e-06)
(0 -0 -7.37946e-06)
(0 -0 -7.24746e-06)
(0 -0 -7.119e-06)
(0 -0 -6.99299e-06)
(0 -0 -6.87093e-06)
(0 -0 -6.74976e-06)
(0 -0 -6.63387e-06)
(0 -0 -6.51592e-06)
(0 -0 -6.40799e-06)
(0 -0 -6.29196e-06)
(0 -0 -6.19677e-06)
(0 -0 -6.0784e-06)
(0 -0 -6.002e-06)
(0 -0 -5.871e-06)
(0 -0 -5.82501e-06)
(0 -0 -5.66538e-06)
(0 -0 -5.66979e-06)
(0 -0 -5.45709e-06)
(0 -0 -5.53937e-06)
(0 -0 -5.24046e-06)
(0 -0 -5.42962e-06)
(0 -0 -5.01307e-06)
(0 -0 -5.32528e-06)
(0 -0 -4.77951e-06)
(0 -0 -5.24897e-06)
(0 -0 -4.38083e-06)
(0 -0 -5.76672e-06)
(0 -0 -2.30546e-06)
(0 -0 -9.75438e-06)
(0 -0 4.53507e-06)
(0 -0 -1.48567e-05)
(0 -0 -2.62758e-07)
(0 -0 4.68803e-06)
(0 -0 -1.52585e-05)
(0 -0 5.76595e-07)
(0 -0 7.5575e-07)
(0 -0 5.0512e-07)
(0 -0 -1.0713e-07)
(0 -0 -9.09222e-07)
(0 -0 -1.81314e-06)
(0 -0 -2.74811e-06)
(0 -0 -3.6561e-06)
(0 -0 -4.49697e-06)
(0 -0 -5.24851e-06)
(0 -0 -5.90249e-06)
(0 -0 -6.45883e-06)
(0 -0 -6.92116e-06)
(0 -0 -7.29476e-06)
(0 -0 -7.58613e-06)
(0 -0 -7.80305e-06)
(0 -0 -7.95448e-06)
(0 -0 -8.0499e-06)
(0 -0 -8.09847e-06)
(0 -0 -8.10861e-06)
(0 -0 -8.08772e-06)
(0 -0 -8.04196e-06)
(0 -0 -7.97649e-06)
(0 -0 -7.89557e-06)
(0 -0 -7.80252e-06)
(0 -0 -7.70008e-06)
(0 -0 -7.59054e-06)
(0 -0 -7.47565e-06)
(0 -0 -7.357e-06)
(0 -0 -7.23591e-06)
(0 -0 -7.11342e-06)
(0 -0 -6.99045e-06)
(0 -0 -6.86769e-06)
(0 -0 -6.74565e-06)
(0 -0 -6.62484e-06)
(0 -0 -6.50579e-06)
(0 -0 -6.38891e-06)
(0 -0 -6.27489e-06)
(0 -0 -6.16356e-06)
(0 -0 -6.05551e-06)
(0 -0 -5.94964e-06)
(0 -0 -5.84736e-06)
(0 -0 -5.74576e-06)
(0 -0 -5.64912e-06)
(0 -0 -5.55033e-06)
(0 -0 -5.4611e-06)
(0 -0 -5.36373e-06)
(0 -0 -5.28634e-06)
(0 -0 -5.18607e-06)
(0 -0 -5.12623e-06)
(0 -0 -5.01311e-06)
(0 -0 -4.98208e-06)
(0 -0 -4.84078e-06)
(0 -0 -4.8578e-06)
(0 -0 -4.66499e-06)
(0 -0 -4.75621e-06)
(0 -0 -4.48084e-06)
(0 -0 -4.67349e-06)
(0 -0 -4.2876e-06)
(0 -0 -4.59463e-06)
(0 -0 -4.09038e-06)
(0 -0 -4.54621e-06)
(0 -0 -3.71428e-06)
(0 -0 -5.14198e-06)
(0 -0 -1.5483e-06)
(0 -0 -9.39206e-06)
(0 -0 5.49914e-06)
(0 -0 -1.45585e-05)
(0 -0 3.61573e-07)
(0 -0 5.0295e-06)
(0 -0 -1.42344e-05)
(0 -0 1.02985e-06)
(0 -0 1.33273e-06)
(0 -0 1.19592e-06)
(0 -0 6.85821e-07)
(0 -0 -2.65062e-08)
(0 -0 -8.529e-07)
(0 -0 -1.72184e-06)
(0 -0 -2.5742e-06)
(0 -0 -3.36868e-06)
(0 -0 -4.08193e-06)
(0 -0 -4.70471e-06)
(0 -0 -5.2361e-06)
(0 -0 -5.67901e-06)
(0 -0 -6.0382e-06)
(0 -0 -6.31969e-06)
(0 -0 -6.53083e-06)
(0 -0 -6.68024e-06)
(0 -0 -6.77699e-06)
(0 -0 -6.82987e-06)
(0 -0 -6.84689e-06)
(0 -0 -6.83507e-06)
(0 -0 -6.8002e-06)
(0 -0 -6.7471e-06)
(0 -0 -6.67977e-06)
(0 -0 -6.60126e-06)
(0 -0 -6.51415e-06)
(0 -0 -6.42059e-06)
(0 -0 -6.32225e-06)
(0 -0 -6.22061e-06)
(0 -0 -6.11694e-06)
(0 -0 -6.01218e-06)
(0 -0 -5.90716e-06)
(0 -0 -5.80246e-06)
(0 -0 -5.69849e-06)
(0 -0 -5.5957e-06)
(0 -0 -5.4946e-06)
(0 -0 -5.39556e-06)
(0 -0 -5.29924e-06)
(0 -0 -5.20545e-06)
(0 -0 -5.1147e-06)
(0 -0 -5.02588e-06)
(0 -0 -4.94037e-06)
(0 -0 -4.85533e-06)
(0 -0 -4.775e-06)
(0 -0 -4.69245e-06)
(0 -0 -4.61905e-06)
(0 -0 -4.53751e-06)
(0 -0 -4.47513e-06)
(0 -0 -4.39024e-06)
(0 -0 -4.34434e-06)
(0 -0 -4.24653e-06)
(0 -0 -4.22795e-06)
(0 -0 -4.10253e-06)
(0 -0 -4.12976e-06)
(0 -0 -3.95442e-06)
(0 -0 -4.0523e-06)
(0 -0 -3.79805e-06)
(0 -0 -3.99203e-06)
(0 -0 -3.63418e-06)
(0 -0 -3.93412e-06)
(0 -0 -3.46863e-06)
(0 -0 -3.90761e-06)
(0 -0 -3.11562e-06)
(0 -0 -4.55862e-06)
(0 -0 -8.98665e-07)
(0 -0 -8.98191e-06)
(0 -0 6.26093e-06)
(0 -0 -1.41808e-05)
(0 -0 9.3716e-07)
(0 -0 5.24763e-06)
(0 -0 -1.32546e-05)
(0 -0 1.41244e-06)
(0 -0 1.82655e-06)
(0 -0 1.79085e-06)
(0 -0 1.37064e-06)
(0 -0 7.36451e-07)
(0 -0 -2.31682e-08)
(0 -0 -8.35742e-07)
(0 -0 -1.64093e-06)
(0 -0 -2.39621e-06)
(0 -0 -3.07714e-06)
(0 -0 -3.6735e-06)
(0 -0 -4.18364e-06)
(0 -0 -4.60987e-06)
(0 -0 -4.95653e-06)
(0 -0 -5.22928e-06)
(0 -0 -5.43515e-06)
(0 -0 -5.58244e-06)
(0 -0 -5.67994e-06)
(0 -0 -5.7361e-06)
(0 -0 -5.75859e-06)
(0 -0 -5.75413e-06)
(0 -0 -5.72818e-06)
(0 -0 -5.68526e-06)
(0 -0 -5.62916e-06)
(0 -0 -5.5627e-06)
(0 -0 -5.48831e-06)
(0 -0 -5.40804e-06)
(0 -0 -5.32344e-06)
(0 -0 -5.23597e-06)
(0 -0 -5.1468e-06)
(0 -0 -5.05683e-06)
(0 -0 -4.96679e-06)
(0 -0 -4.87717e-06)
(0 -0 -4.7883e-06)
(0 -0 -4.70058e-06)
(0 -0 -4.61451e-06)
(0 -0 -4.53041e-06)
(0 -0 -4.44888e-06)
(0 -0 -4.36975e-06)
(0 -0 -4.29343e-06)
(0 -0 -4.21884e-06)
(0 -0 -4.14733e-06)
(0 -0 -4.07613e-06)
(0 -0 -4.00943e-06)
(0 -0 -3.94046e-06)
(0 -0 -3.88026e-06)
(0 -0 -3.81198e-06)
(0 -0 -3.7621e-06)
(0 -0 -3.69011e-06)
(0 -0 -3.65575e-06)
(0 -0 -3.57091e-06)
(0 -0 -3.56251e-06)
(0 -0 -3.45073e-06)
(0 -0 -3.486e-06)
(0 -0 -3.32596e-06)
(0 -0 -3.42841e-06)
(0 -0 -3.19311e-06)
(0 -0 -3.38645e-06)
(0 -0 -3.05424e-06)
(0 -0 -3.34543e-06)
(0 -0 -2.91611e-06)
(0 -0 -3.33553e-06)
(0 -0 -2.58627e-06)
(0 -0 -4.02207e-06)
(0 -0 -3.52372e-07)
(0 -0 -8.54104e-06)
(0 -0 6.83704e-06)
(0 -0 -1.37433e-05)
(0 -0 1.45727e-06)
(0 -0 5.35427e-06)
(0 -0 -1.23258e-05)
(0 -0 1.71772e-06)
(0 -0 2.23181e-06)
(0 -0 2.28648e-06)
(0 -0 1.94605e-06)
(0 -0 1.38035e-06)
(0 -0 6.78439e-07)
(0 -0 -8.60182e-08)
(0 -0 -8.51298e-07)
(0 -0 -1.57359e-06)
(0 -0 -2.22732e-06)
(0 -0 -2.80135e-06)
(0 -0 -3.29341e-06)
(0 -0 -3.70526e-06)
(0 -0 -4.04094e-06)
(0 -0 -4.30585e-06)
(0 -0 -4.50678e-06)
(0 -0 -4.65176e-06)
(0 -0 -4.74936e-06)
(0 -0 -4.80781e-06)
(0 -0 -4.83442e-06)
(0 -0 -4.83568e-06)
(0 -0 -4.81681e-06)
(0 -0 -4.78204e-06)
(0 -0 -4.73498e-06)
(0 -0 -4.67828e-06)
(0 -0 -4.61421e-06)
(0 -0 -4.54473e-06)
(0 -0 -4.47134e-06)
(0 -0 -4.39542e-06)
(0 -0 -4.31811e-06)
(0 -0 -4.24026e-06)
(0 -0 -4.16248e-06)
(0 -0 -4.08525e-06)
(0 -0 -4.00881e-06)
(0 -0 -3.93347e-06)
(0 -0 -3.85979e-06)
(0 -0 -3.78799e-06)
(0 -0 -3.71863e-06)
(0 -0 -3.65156e-06)
(0 -0 -3.5871e-06)
(0 -0 -3.5242e-06)
(0 -0 -3.46421e-06)
(0 -0 -3.40436e-06)
(0 -0 -3.34889e-06)
(0 -0 -3.29112e-06)
(0 -0 -3.24178e-06)
(0 -0 -3.18443e-06)
(0 -0 -3.14479e-06)
(0 -0 -3.08348e-06)
(0 -0 -3.05851e-06)
(0 -0 -2.98457e-06)
(0 -0 -2.9843e-06)
(0 -0 -2.88418e-06)
(0 -0 -2.92552e-06)
(0 -0 -2.77883e-06)
(0 -0 -2.88402e-06)
(0 -0 -2.66569e-06)
(0 -0 -2.85667e-06)
(0 -0 -2.54794e-06)
(0 -0 -2.82896e-06)
(0 -0 -2.43334e-06)
(0 -0 -2.83104e-06)
(0 -0 -2.12641e-06)
(0 -0 -3.5364e-06)
(0 -0 9.5852e-08)
(0 -0 -8.085e-06)
(0 -0 7.24498e-06)
(0 -0 -1.32644e-05)
(0 -0 1.91665e-06)
(0 -0 5.3619e-06)
(0 -0 -1.14536e-05)
(0 -0 2.03241e-06)
(0 -0 2.63618e-06)
(0 -0 2.77047e-06)
(0 -0 2.49942e-06)
(0 -0 1.99163e-06)
(0 -0 1.33692e-06)
(0 -0 6.10456e-07)
(0 -0 -1.24334e-07)
(0 -0 -8.22234e-07)
(0 -0 -1.45647e-06)
(0 -0 -2.01493e-06)
(0 -0 -2.49485e-06)
(0 -0 -2.89751e-06)
(0 -0 -3.22664e-06)
(0 -0 -3.48747e-06)
(0 -0 -3.68669e-06)
(0 -0 -3.832e-06)
(0 -0 -3.93187e-06)
(0 -0 -3.99439e-06)
(0 -0 -4.02642e-06)
(0 -0 -4.03439e-06)
(0 -0 -4.02333e-06)
(0 -0 -3.99715e-06)
(0 -0 -3.95929e-06)
(0 -0 -3.91236e-06)
(0 -0 -3.85844e-06)
(0 -0 -3.79932e-06)
(0 -0 -3.73663e-06)
(0 -0 -3.67158e-06)
(0 -0 -3.60528e-06)
(0 -0 -3.53865e-06)
(0 -0 -3.47205e-06)
(0 -0 -3.40605e-06)
(0 -0 -3.34088e-06)
(0 -0 -3.27659e-06)
(0 -0 -3.21397e-06)
(0 -0 -3.15312e-06)
(0 -0 -3.09442e-06)
(0 -0 -3.03794e-06)
(0 -0 -2.98375e-06)
(0 -0 -2.93095e-06)
(0 -0 -2.88092e-06)
(0 -0 -2.83074e-06)
(0 -0 -2.78491e-06)
(0 -0 -2.73666e-06)
(0 -0 -2.69652e-06)
(0 -0 -2.64841e-06)
(0 -0 -2.61735e-06)
(0 -0 -2.56499e-06)
(0 -0 -2.5478e-06)
(0 -0 -2.48303e-06)
(0 -0 -2.48934e-06)
(0 -0 -2.39909e-06)
(0 -0 -2.44515e-06)
(0 -0 -2.30971e-06)
(0 -0 -2.41669e-06)
(0 -0 -2.2127e-06)
(0 -0 -2.40091e-06)
(0 -0 -2.11217e-06)
(0 -0 -2.38349e-06)
(0 -0 -2.01694e-06)
(0 -0 -2.39346e-06)
(0 -0 -1.73504e-06)
(0 -0 -3.10429e-06)
(0 -0 4.5219e-07)
(0 -0 -7.62735e-06)
(0 -0 7.50253e-06)
(0 -0 -1.27604e-05)
(0 -0 2.31167e-06)
(0 -0 5.28319e-06)
(0 -0 -1.0642e-05)
(0 -0 2.41843e-06)
(0 -0 3.10138e-06)
(0 -0 3.30412e-06)
(0 -0 3.09136e-06)
(0 -0 2.62931e-06)
(0 -0 2.00925e-06)
(0 -0 1.30837e-06)
(0 -0 5.92244e-07)
(0 -0 -9.23773e-08)
(0 -0 -7.17309e-07)
(0 -0 -1.26945e-06)
(0 -0 -1.74562e-06)
(0 -0 -2.14662e-06)
(0 -0 -2.47595e-06)
(0 -0 -2.73864e-06)
(0 -0 -2.94149e-06)
(0 -0 -3.09177e-06)
(0 -0 -3.19799e-06)
(0 -0 -3.26811e-06)
(0 -0 -3.30857e-06)
(0 -0 -3.32582e-06)
(0 -0 -3.32479e-06)
(0 -0 -3.30904e-06)
(0 -0 -3.28185e-06)
(0 -0 -3.24593e-06)
(0 -0 -3.20312e-06)
(0 -0 -3.155e-06)
(0 -0 -3.10348e-06)
(0 -0 -3.04955e-06)
(0 -0 -2.99431e-06)
(0 -0 -2.93883e-06)
(0 -0 -2.88305e-06)
(0 -0 -2.82787e-06)
(0 -0 -2.77344e-06)
(0 -0 -2.71949e-06)
(0 -0 -2.66722e-06)
(0 -0 -2.61648e-06)
(0 -0 -2.56748e-06)
(0 -0 -2.52061e-06)
(0 -0 -2.47557e-06)
(0 -0 -2.43171e-06)
(0 -0 -2.39049e-06)
(0 -0 -2.34869e-06)
(0 -0 -2.31129e-06)
(0 -0 -2.27124e-06)
(0 -0 -2.23895e-06)
(0 -0 -2.19872e-06)
(0 -0 -2.17488e-06)
(0 -0 -2.13006e-06)
(0 -0 -2.11927e-06)
(0 -0 -2.06223e-06)
(0 -0 -2.07386e-06)
(0 -0 -1.99194e-06)
(0 -0 -2.04157e-06)
(0 -0 -1.91551e-06)
(0 -0 -2.02357e-06)
(0 -0 -1.83151e-06)
(0 -0 -2.01674e-06)
(0 -0 -1.74477e-06)
(0 -0 -2.00705e-06)
(0 -0 -1.66514e-06)
(0 -0 -2.02119e-06)
(0 -0 -1.40614e-06)
(0 -0 -2.7261e-06)
(0 -0 7.2824e-07)
(0 -0 -7.17768e-06)
(0 -0 7.63342e-06)
(0 -0 -1.22414e-05)
(0 -0 2.64813e-06)
(0 -0 5.13733e-06)
(0 -0 -9.88251e-06)
(0 -0 2.8816e-06)
(0 -0 3.63363e-06)
(0 -0 3.89812e-06)
(0 -0 3.734e-06)
(0 -0 3.30675e-06)
(0 -0 2.7099e-06)
(0 -0 2.02308e-06)
(0 -0 1.31413e-06)
(0 -0 6.32119e-07)
(0 -0 6.41652e-09)
(0 -0 -5.49153e-07)
(0 -0 -1.02981e-06)
(0 -0 -1.43683e-06)
(0 -0 -1.77357e-06)
(0 -0 -2.04422e-06)
(0 -0 -2.25594e-06)
(0 -0 -2.41647e-06)
(0 -0 -2.53333e-06)
(0 -0 -2.61451e-06)
(0 -0 -2.66717e-06)
(0 -0 -2.69666e-06)
(0 -0 -2.70775e-06)
(0 -0 -2.70485e-06)
(0 -0 -2.69033e-06)
(0 -0 -2.66658e-06)
(0 -0 -2.63631e-06)
(0 -0 -2.6004e-06)
(0 -0 -2.56055e-06)
(0 -0 -2.5185e-06)
(0 -0 -2.47465e-06)
(0 -0 -2.43021e-06)
(0 -0 -2.38581e-06)
(0 -0 -2.3412e-06)
(0 -0 -2.2971e-06)
(0 -0 -2.25373e-06)
(0 -0 -2.21097e-06)
(0 -0 -2.16962e-06)
(0 -0 -2.12989e-06)
(0 -0 -2.09146e-06)
(0 -0 -2.05508e-06)
(0 -0 -2.01933e-06)
(0 -0 -1.98566e-06)
(0 -0 -1.95179e-06)
(0 -0 -1.92139e-06)
(0 -0 -1.88871e-06)
(0 -0 -1.86313e-06)
(0 -0 -1.82978e-06)
(0 -0 -1.81175e-06)
(0 -0 -1.77347e-06)
(0 -0 -1.76802e-06)
(0 -0 -1.71731e-06)
(0 -0 -1.73346e-06)
(0 -0 -1.65822e-06)
(0 -0 -1.71092e-06)
(0 -0 -1.5925e-06)
(0 -0 -1.70102e-06)
(0 -0 -1.51866e-06)
(0 -0 -1.70092e-06)
(0 -0 -1.44259e-06)
(0 -0 -1.6967e-06)
(0 -0 -1.37511e-06)
(0 -0 -1.71246e-06)
(0 -0 -1.13717e-06)
(0 -0 -2.40175e-06)
(0 -0 9.31191e-07)
(0 -0 -6.74493e-06)
(0 -0 7.65438e-06)
(0 -0 -1.17188e-05)
(0 -0 2.92546e-06)
(0 -0 4.93635e-06)
(0 -0 -9.1742e-06)
(0 -0 -9.24585e-07)
(0 -0 -2.12997e-06)
(0 -0 1.06813e-06)
(0 -0 -6.33494e-06)
(0 -0 7.58074e-06)
(0 -0 -1.12008e-05)
(0 -0 3.14489e-06)
(0 -0 4.69094e-06)
(0 -0 -8.51582e-06)
(0 -0 -2.03543e-06)
(0 -0 -2.23212e-06)
(0 -0 -2.41214e-06)
(0 -0 -2.57215e-06)
(0 -0 -2.71234e-06)
(0 -0 -2.83283e-06)
(0 -0 -2.93444e-06)
(0 -0 -3.01836e-06)
(0 -0 -3.08602e-06)
(0 -0 -3.1389e-06)
(0 -0 -3.17852e-06)
(0 -0 -3.20633e-06)
(0 -0 -3.22374e-06)
(0 -0 -3.232e-06)
(0 -0 -3.23225e-06)
(0 -0 -3.2255e-06)
(0 -0 -3.21269e-06)
(0 -0 -3.1946e-06)
(0 -0 -3.17196e-06)
(0 -0 -3.14538e-06)
(0 -0 -3.11543e-06)
(0 -0 -3.08258e-06)
(0 -0 -3.04724e-06)
(0 -0 -3.00977e-06)
(0 -0 -2.97049e-06)
(0 -0 -2.92973e-06)
(0 -0 -2.88778e-06)
(0 -0 -2.8449e-06)
(0 -0 -2.8013e-06)
(0 -0 -2.75714e-06)
(0 -0 -2.71251e-06)
(0 -0 -2.66752e-06)
(0 -0 -2.6223e-06)
(0 -0 -2.57693e-06)
(0 -0 -2.53155e-06)
(0 -0 -2.48627e-06)
(0 -0 -2.44122e-06)
(0 -0 -2.39645e-06)