/*--------------------------------*- C++ -*----------------------------------*\
| =========                 |                                                 |
| \\      /  F ield         | OpenFOAM: The Open Source CFD Toolbox           |
|  \\    /   O peration     | Version:  2412                                  |
|   \\  /    A nd           | Website:  www.openfoam.com                      |
|    \\/     M anipulation  |                                                 |
\*---------------------------------------------------------------------------*/
FoamFile
{
    version     2.0;
    format      ascii;
    arch        "LSB;label=32;scalar=64";
    class       surfaceScalarField;
    location    "23.5";
    object      phi;
}
// * * * * * * * * * * * * * * * * * * * * * * * * * * * * * * * * * * * * * //

dimensions      [0 3 -1 0 0 0 0];

oriented        oriented;

internalField   nonuniform List<scalar> 
10423
(
0.00022062
-0.00620018
0.00617765
0.000209401
-0.00616643
0.00618684
0.000176634
0.00619398
0.000143462
0.00619907
0.000109958
0.00620212
7.62271e-05
0.00620314
4.24169e-05
0.00620216
8.67018e-06
0.00619921
-2.48803e-05
0.00619435
-5.81089e-05
0.00618764
-9.08952e-05
0.00617912
-0.000123125
0.00616888
-0.000154692
0.00615699
-0.000185495
0.00614353
-0.000215442
0.00612859
-0.000244446
0.00611225
-0.000272428
0.00609461
-0.000299316
0.00607577
-0.000325045
0.00605582
-0.000349557
0.00603486
-0.000372801
0.00601301
-0.000394732
0.00599035
-0.000415316
-0.000434524
0.00614517
0.000198825
-0.00613459
0.00615387
0.000167936
0.00616067
0.000136656
0.00616558
0.000105052
0.00616858
7.32208e-05
0.0061697
4.12987e-05
0.00616896
9.41742e-06
0.00616638
-2.23e-05
0.006162
-5.37362e-05
0.00615589
-8.47789e-05
0.00614808
-0.000115321
0.00613865
-0.000145263
0.00612767
-0.000174509
0.0061152
-0.000202972
0.00610132
-0.000230569
0.00608612
-0.000257227
0.00606968
-0.000282876
0.00605209
-0.000307455
0.00603344
-0.000330908
0.00601382
-0.000353186
0.00599334
-0.000374247
0.00597208
-0.000394056
-0.000412586
0.00611449
0.000188863
-0.00610453
0.00612272
0.000159711
0.00612919
0.000130185
0.0061339
0.000100344
0.00613684
7.028e-05
0.00613802
4.01164e-05
0.00613746
9.97554e-06
0.00613519
-2.00285e-05
0.00613124
-4.97867e-05
0.00612566
-7.9194e-05
0.00611849
-0.000108151
0.00610979
-0.000136562
0.00609962
-0.000164339
0.00608804
-0.0001914
0.00607514
-0.000217666
0.00606098
-0.000243067
0.00604564
-0.000267538
0.00602921
-0.000291021
0.00601176
-0.000313461
0.00599339
-0.000334812
0.00597418
-0.000355035
0.00595422
-0.000374094
-0.000391965
0.00608551
0.000179481
-0.00607613
0.00609328
0.00015194
0.00609942
0.000124042
0.00610393
9.58407e-05
0.00610678
6.74208e-05
0.006108
3.88966e-05
0.0061076
1.03807e-05
0.00610559
-1.80212e-05
0.00610201
-4.62077e-05
0.0060969
-7.40808e-05
0.0060903
-0.000101547
0.00608225
-0.000128518
0.00607282
-0.000154911
0.00606207
-0.000180647
0.00605006
-0.000205653
0.00603685
-0.000229863
0.00602253
-0.000253215
0.00600716
-0.000275652
0.00599083
-0.000297126
0.0059736
-0.00031759
0.00595558
-0.000337007
0.00593682
-0.000355343
-0.000372573
0.00605809
0.000170647
-0.00604926
0.00606543
0.000144601
0.00607126
0.000118216
0.00607556
9.15413e-05
0.00607832
6.46538e-05
0.00607956
3.76593e-05
0.00607928
1.06616e-05
0.0060775
-1.62413e-05
0.00607425
-4.2955e-05
0.00606956
-6.93884e-05
0.00606346
-9.54543e-05
0.00605601
-0.00012107
0.00604726
-0.000146157
0.00603726
-0.000170642
0.00602606
-0.000194456
0.00601373
-0.000217537
0.00600034
-0.000239825
0.00598596
-0.000261269
0.00597065
-0.00028182
0.0059545
-0.000301435
0.00593757
-0.000320078
0.00591994
-0.000337717
-0.000354328
0.00603215
0.000162327
-0.00602383
0.00603908
0.000137673
0.0060446
0.000112696
0.0060487
8.74434e-05
0.00605137
6.19853e-05
0.00605261
3.64193e-05
0.00605243
1.08412e-05
0.00605084
-1.46582e-05
0.00604788
-3.99914e-05
0.00604356
-6.50733e-05
0.00603793
-8.98227e-05
0.00603103
-0.000114162
0.00602289
-0.000138018
0.00601357
-0.000161321
0.00600312
-0.000184008
0.0059916
-0.000206019
0.00597907
-0.000227298
0.0059656
-0.000247796
0.00595125
-0.000267467
0.00593608
-0.000286271
0.00592018
-0.000304173
0.0059036
-0.000321141
-0.000337153
0.00600758
0.00015449
-0.00599974
0.00601412
0.000131132
0.00601935
0.000107468
0.00602325
8.35421e-05
0.00602582
5.94187e-05
0.00602705
3.51878e-05
0.00602695
1.0938e-05
0.00602554
-1.32467e-05
0.00602283
-3.7285e-05
0.00601886
-6.10978e-05
0.00601365
-8.46092e-05
0.00600723
-0.000107747
0.00599965
-0.000130442
0.00599096
-0.00015263
0.00598121
-0.00017425
0.00597043
-0.000195247
0.0059587
-0.000215568
0.00594607
-0.000235167
0.00593261
-0.000254
0.00591836
-0.000272028
0.00590341
-0.000289219
0.00588781
-0.000305543
-0.000320977
0.00598429
0.000147105
-0.00597691
0.00599047
0.000124956
0.00599542
0.000102518
0.00599913
7.98307e-05
0.00600159
5.69549e-05
0.00600281
3.3973e-05
0.00600278
1.09669e-05
0.00600152
-1.19856e-05
0.00599904
-3.48088e-05
0.00599537
-5.74292e-05
0.00599054
-7.97761e-05
0.00598458
-0.000101782
0.00597752
-0.000123382
0.0059694
-0.000144517
0.00596028
-0.000165128
0.0059502
-0.000185165
0.00593921
-0.000204577
0.00592736
-0.00022332
0.00591471
-0.000241354
0.00590133
-0.000258642
0.00588726
-0.000275153
0.00587258
-0.000290857
-0.000305735
0.0059622
0.000140143
-0.00595524
0.00596803
0.000119124
0.00597272
9.7831e-05
0.00597625
7.6302e-05
0.00597861
5.45932e-05
0.0059798
3.27806e-05
0.00597983
1.094e-05
0.0059787
-1.08566e-05
0.00597643
-3.2539e-05
0.00597304
-5.40388e-05
0.00596856
-7.52899e-05
0.005963
-9.62294e-05
0.00595642
-0.000116797
0.00594884
-0.000136936
0.0059403
-0.000156594
0.00593086
-0.00017572
0.00592055
-0.00019427
0.00590943
-0.0002122
0.00589755
-0.000229473
0.00588496
-0.000246054
0.00587172
-0.000261913
0.00585789
-0.000277023
-0.000291364
0.00594123
0.000133577
-0.00593467
0.00594674
0.000113614
0.00595118
9.33928e-05
0.00595453
7.29479e-05
0.0059568
5.23319e-05
0.00595796
3.16151e-05
0.00595803
1.08673e-05
0.00595702
-9.84463e-06
0.00595494
-3.04554e-05
0.0059518
-5.09013e-05
0.00594763
-7.1121e-05
0.00594246
-9.10556e-05
0.00593631
-0.000110649
0.00592922
-0.000129848
0.00592123
-0.000148603
0.00591238
-0.000166867
0.0059027
-0.000184598
0.00589226
-0.000201755
0.00588109
-0.000218303
0.00586925
-0.00023421
0.00585678
-0.000249445
0.00584374
-0.000263985
-0.000277809
0.00592131
0.000127382
-0.00591512
0.00592652
0.000108408
0.00593072
8.91896e-05
0.00593391
6.97604e-05
0.00593607
5.01686e-05
0.00593721
3.04792e-05
0.00593732
1.07569e-05
0.00593641
-8.93633e-06
0.0059345
-2.85398e-05
0.00593159
-4.79944e-05
0.00592771
-6.72428e-05
0.00592288
-8.623e-05
0.00591714
-0.000104904
0.00591051
-0.000123214
0.00590302
-0.000141115
0.00589471
-0.000158562
0.00588563
-0.000175516
0.00587582
-0.000191939
0.00586531
-0.000207796
0.00585416
-0.000223059
0.00584241
-0.000237698
0.00583012
-0.000251691
-0.000265017
0.00590238
0.000121533
-0.00589653
0.0059073
0.000103485
0.00591128
8.5208e-05
0.00591431
6.67312e-05
0.00591638
4.81002e-05
0.00591748
2.9375e-05
0.00591762
1.06157e-05
0.00591681
-8.12035e-06
0.00591505
-2.67767e-05
0.00591235
-4.52982e-05
0.00590874
-6.36315e-05
0.00590423
-8.17255e-05
0.00589886
-9.95311e-05
0.00589265
-0.000117002
0.00588563
-0.000134094
0.00587783
-0.000150768
0.0058693
-0.000166984
0.00586007
-0.000182708
0.00585018
-0.000197908
0.00583968
-0.000212556
0.0058286
-0.000226625
0.00581701
-0.000240092
-0.00025294
0.00588437
0.000116008
-0.00587884
0.00588902
9.88303e-05
0.00589279
8.14354e-05
0.00589567
6.38525e-05
0.00589765
4.61234e-05
0.00589872
2.83037e-05
0.00589889
1.04492e-05
0.00589815
-7.38686e-06
0.00589653
-2.5152e-05
0.00589403
-4.27949e-05
0.00589066
-6.02659e-05
0.00588645
-7.75171e-05
0.00588142
-9.45029e-05
0.0058756
-0.00011118
0.00586901
-0.000127507
0.00586169
-0.000143447
0.00585367
-0.000158963
0.00584499
-0.000174023
0.00583568
-0.000188597
0.00582578
-0.000202658
0.00581534
-0.000216181
0.00580439
-0.000229146
-0.000241533
0.00586722
0.000110787
-0.005862
0.00587163
9.44256e-05
0.0058752
7.78598e-05
0.00587794
6.11163e-05
0.00587983
4.42345e-05
0.00588087
2.72659e-05
0.00588105
1.02621e-05
0.00588039
-6.72731e-06
0.00587889
-2.36535e-05
0.00587657
-4.04687e-05
0.00587343
-5.71266e-05
0.00586949
-7.35826e-05
0.00586479
-8.9794e-05
0.00585933
-0.00010572
0.00585314
-0.000121323
0.00584626
-0.000136567
0.00583872
-0.000151419
0.00583054
-0.000165848
0.00582177
-0.000179826
0.00581244
-0.000193327
0.00580259
-0.000206328
0.00579225
-0.000218809
-0.000230754
0.00585089
0.00010585
-0.00584596
0.00585506
9.02562e-05
0.00585845
7.44696e-05
0.00586106
5.85152e-05
0.00586286
4.24299e-05
0.00586386
2.62616e-05
0.00586407
1.00581e-05
0.00586347
-6.1343e-06
0.00586209
-2.22703e-05
0.00585993
-3.83053e-05
0.005857
-5.41963e-05
0.00585332
-6.99015e-05
0.0058489
-8.53812e-05
0.00584378
-0.000100598
0.00583797
-0.000115515
0.0058315
-0.000130099
0.00582441
-0.00014432
0.00581671
-0.000158149
0.00580844
-0.000171558
0.00579964
-0.000184525
0.00579034
-0.000197027
0.00578057
-0.000209045
-0.000220564
0.00583533
0.000101179
-0.00583066
0.00583928
8.63076e-05
0.0058425
7.1254e-05
0.00584497
5.60417e-05
0.00584669
4.07056e-05
0.00584767
2.52904e-05
0.00584788
9.84038e-06
0.00584735
-5.60138e-06
0.00584607
-2.09927e-05
0.00584406
-3.6292e-05
0.00584132
-5.14592e-05
0.00583788
-6.64554e-05
0.00583374
-8.12435e-05
0.00582893
-9.57879e-05
0.00582347
-0.000110055
0.00581739
-0.000124015
0.0058107
-0.000137637
0.00580345
-0.000150894
0.00579565
-0.000163763
0.00578735
-0.000176219
0.00577856
-0.000188244
0.00576933
-0.000199818
-0.000210926
0.00582049
9.67552e-05
-0.00581607
0.00582423
8.25655e-05
0.00582728
6.8202e-05
0.00582964
5.3688e-05
0.00583128
3.90573e-05
0.00583222
2.43514e-05
0.00583245
9.61131e-06
0.00583197
-5.12292e-06
0.00583079
-1.98119e-05
0.00582892
-3.44172e-05
0.00582636
-4.8901e-05
0.00582313
-6.32273e-05
0.00581925
-7.73613e-05
0.00581473
-9.12699e-05
0.0058096
-0.000104922
0.00580387
-0.000118288
0.00579758
-0.000131341
0.00579074
-0.000144055
0.00578338
-0.000156408
0.00577554
-0.000168378
0.00576724
-0.000179945
0.00575852
-0.000191093
-0.000201808
0.00580632
-0.00580213
9.25597e-05
0.00580987
7.90166e-05
0.00581277
6.53028e-05
0.00581501
5.14465e-05
0.00581659
3.74808e-05
0.0058175
2.34436e-05
0.00581773
9.37298e-06
0.00581731
-4.69389e-06
0.00581621
-1.87203e-05
0.00581447
-3.26702e-05
0.00581207
-4.65085e-05
0.00580905
-6.02016e-05
0.0058054
-7.37168e-05
0.00580116
-8.70234e-05
0.00579633
-0.000100092
0.00579094
-0.000112895
0.005785
-0.000125408
0.00577855
-0.000137606
0.00577161
-0.000149467
0.0057642
-0.000160972
0.00575636
-0.000172102
0.00574811
-0.000182842
-0.000193177
0.00576274
0.000559477
-0.00573115
0.000806235
0.00573875
0.000529533
-0.00570881
0.00578276
0.000762229
0.0058406
0.000989948
0.00591191
0.00120985
0.00599613
0.0014191
0.00609255
0.00161483
0.00179371
0.00571595
0.000501108
-0.00568753
0.00575836
0.000719821
0.00581452
0.000933785
0.00588406
0.00114032
0.00596641
0.00133675
0.00606086
0.00152038
0.00168814
0.00569427
0.000474085
-0.00566724
0.0057352
0.000678888
0.00578981
0.000879179
0.00585769
0.00107243
0.00593831
0.00125613
0.00603093
0.00142776
0.00158447
0.00567362
0.000448357
-0.00564789
0.00571319
0.000639321
0.00576635
0.000826013
0.00583272
0.00100606
0.00591173
0.00117712
0.00600265
0.00133684
0.00148259
0.00565395
0.000423828
-0.00562942
0.00569225
0.000601018
0.00574408
0.000774183
0.00580904
0.000941108
0.00588655
0.0010996
0.0059759
0.0012475
0.00138237
0.0056352
0.000400409
-0.00561178
0.00567233
0.000563888
0.00572292
0.000723593
0.00578656
0.000877464
0.00586269
0.00102348
0.00595057
0.00115962
0.00128368
0.00561731
0.000378018
-0.00559492
0.00565335
0.000527846
0.00570279
0.000674153
0.00576521
0.000815039
0.00584005
0.000948635
0.00592657
0.0010731
0.00118642
0.00560022
0.000356582
-0.00557879
0.00563526
0.000492815
0.00568363
0.000625783
0.00574492
0.000753746
0.00581856
0.000874994
0.00590381
0.000987845
0.00109049
0.0055839
0.000336033
-0.00556335
0.00561799
0.000458724
0.00566537
0.000578408
0.00572561
0.000693506
0.00579814
0.000802467
0.00588221
0.000903769
0.000995792
0.0055683
0.000316309
-0.00554858
0.00560152
0.000425507
0.00564797
0.00053196
0.00570723
0.000634248
0.00577871
0.000730978
0.00586169
0.00082079
0.000902245
0.00555338
0.000297352
-0.00553442
0.00558578
0.000393104
0.00563137
0.000486375
0.00568971
0.000575903
0.00576023
0.000660457
0.00584219
0.000738831
0.000809768
0.00553909
0.00027911
-0.00552085
0.00557074
0.00036146
0.00561552
0.000441595
0.00567301
0.000518412
0.00574263
0.000590837
0.00582364
0.000657824
0.000718287
0.00552542
0.000261534
-0.00550784
0.00555635
0.000330525
0.00560038
0.000397566
0.00565708
0.000461716
0.00572586
0.000522059
0.00580598
0.000577704
0.000627735
0.00551232
0.000244579
-0.00549536
0.00554259
0.000300251
0.00558592
0.000354239
0.00564187
0.000405764
0.00570986
0.000454066
0.00578915
0.000498411
0.000538048
0.00549976
0.000228206
-0.00548339
0.00552942
0.000270594
0.00557209
0.000311568
0.00562735
0.000350506
0.0056946
0.000386808
0.00577312
0.000419892
0.000449169
0.00548772
0.000212374
-0.00547189
0.0055168
0.000241516
0.00555886
0.00026951
0.00561347
0.000295899
0.00568004
0.000320236
0.00575783
0.000342096
0.000361045
0.00547618
0.000197051
-0.00546085
0.00550472
0.000212979
0.0055462
0.000228028
0.0056002
0.000241901
0.00566612
0.000254309
0.00574324
0.000264976
0.000273627
0.0054651
0.000182204
-0.00545026
0.00549313
0.000184951
0.00553407
0.000187087
0.0055875
0.000188475
0.00565282
0.000188985
0.00572931
0.000188492
0.00018687
0.00545448
-0.00544008
0.000167805
0.00548203
0.000157401
0.00552246
0.000146655
0.00557534
0.000135591
0.0056401
0.000124232
0.00571599
0.000112604
0.000100728
0.00571376
6.24577e-05
0.000310535
0.0058178
-0.00100013
-0.00587987
0.00576714
-0.000811633
0.00572875
-0.00060854
0.00570327
-0.00039367
0.00569123
-0.000169701
0.00569299
6.06896e-05
0.000294721
0.00580422
-0.000937
-0.00586735
0.00575245
-0.000759856
0.00571286
-0.000568956
0.00568613
-0.000366942
0.00567277
-0.000156342
0.00567316
6.03023e-05
0.000280355
0.00579099
-0.00087292
-0.00585507
0.0057382
-0.000707063
0.00569753
-0.000528291
0.00566966
-0.000339069
0.00565509
-0.000141777
0.00565421
6.1184e-05
0.000267322
0.0057781
-0.000807978
-0.00584304
0.00572438
-0.000653348
0.00568273
-0.00048664
0.00565381
-0.000310148
0.00563814
-0.000126104
0.00563609
6.3233e-05
0.000255519
0.00576556
-0.000742259
-0.00583128
0.005711
-0.000598795
0.00566845
-0.000444089
0.00563857
-0.000280268
0.00562188
-0.000109414
0.00561876
6.6358e-05
0.000244851
0.00575336
-0.000675835
-0.00581979
0.00569805
-0.000543478
0.00565467
-0.000400715
0.00562391
-0.000249506
0.00560628
-9.17859e-05
0.00560216
7.0476e-05
0.000235234
0.00574151
-0.000608772
-0.00580858
0.0056855
-0.000487464
0.00564137
-0.000356586
0.0056098
-0.000217933
0.00559131
-7.32938e-05
0.00558627
7.55118e-05
0.00022659
0.00573001
-0.000541127
-0.00579765
0.00567336
-0.000430815
0.00562854
-0.000311765
0.00559622
-0.000185615
0.00557693
-5.40043e-05
0.00557104
8.13966e-05
0.000218846
0.00571884
-0.000472954
-0.00578701
0.00566161
-0.000373583
0.00561615
-0.000266308
0.00558314
-0.000152609
0.00556312
-3.3978e-05
0.00555645
8.8068e-05
0.000211939
0.005708
-0.000404299
-0.00577666
0.00565024
-0.000315818
0.00560419
-0.000220267
0.00557055
-0.000118969
0.00554985
-1.32707e-05
0.00554245
9.54688e-05
0.000205808
0.00569749
-0.000335205
-0.00576658
0.00563924
-0.000257564
0.00559266
-0.000173686
0.00555843
-8.47418e-05
0.00553709
8.0688e-06
0.00552901
0.000103547
0.000200399
0.0056873
-0.000265709
-0.00575679
0.00562859
-0.000198861
0.00558152
-0.00012661
0.00554675
-4.99756e-05
0.00552482
3.00009e-05
0.00551611
0.000112251
0.000195661
0.00567741
-0.000195845
-0.00574728
0.0056183
-0.000139744
0.00557076
-7.90747e-05
0.00553549
-1.47066e-05
0.00551302
5.24743e-05
0.00550373
0.000121541
0.000191548
0.00566783
-0.000125643
-0.00573804
0.00560834
-8.02477e-05
0.00556038
-3.11164e-05
0.00552464
2.10304e-05
0.00550167
7.54505e-05
0.00549183
0.000131375
0.000188018
0.00565855
-5.51329e-05
-0.00572906
0.00559871
-2.04007e-05
0.00555035
1.72343e-05
0.00551419
5.71988e-05
0.00549074
9.88959e-05
0.0054804
0.000141716
0.000185032
0.00564956
1.56601e-05
-0.00572035
0.00558939
3.97713e-05
0.00554067
6.59491e-05
0.00550411
9.3766e-05
0.00548023
0.000122778
0.00546941
0.000152529
0.000182553
0.00564085
8.67155e-05
-0.00571191
0.00558038
0.000100241
0.00553133
0.000114999
0.00549439
0.000130705
0.0054701
0.000147067
0.00545885
0.000163783
0.000180548
0.00563242
0.000158006
-0.00570371
0.00557168
0.000160984
0.00552232
0.000164359
0.00548503
0.000167991
0.00546036
0.000171735
0.0054487
0.00017545
0.000178988
0.00562427
-0.00569578
0.00022951
0.00556327
0.000221982
0.00551362
0.000214009
0.00547602
0.000205599
0.00545099
0.000196759
0.00543894
0.000187503
0.000177846
0.00525209
0.000365312
0.00525775
0.000375983
0.00526397
0.000386864
0.00527079
0.000397937
0.00527824
0.000409182
0.00528637
0.000420579
0.00529521
0.0004321
0.00530479
0.000443718
0.00531517
0.000455399
0.00532638
0.000467106
0.00533846
0.000478796
0.00535144
0.000490422
0.00536537
0.000501932
0.00538027
0.000513267
0.00539618
0.000524365
0.00541313
0.000535155
0.00543113
0.000545565
0.0054502
0.000555512
0.00547036
0.000564912
0.0054916
0.000573674
0.00551393
0.000581702
0.00553733
0.000588898
0.00556177
0.000595159
0.00558723
0.000600378
0.00561364
0.00060445
0.00564095
0.000607267
0.00566909
0.000608724
0.00569798
0.000608716
0.0057275
0.000607142
0.00575755
0.000603905
0.00578799
0.0005989
0.00581868
0.000591979
0.00584941
0.000582819
0.00057038
0.00526274
0.000359959
0.0052686
0.000370117
0.00527502
0.000380453
0.005282
0.000390947
0.00528961
0.00040158
0.00529786
0.000412329
0.00530679
0.000423168
0.00531644
0.000434068
0.00532684
0.000444996
0.00533803
0.000455915
0.00535004
0.000466784
0.00536291
0.000477556
0.00537666
0.000488181
0.00539133
0.000498603
0.00540693
0.000508762
0.00542349
0.000518593
0.00544103
0.000528026
0.00545956
0.000536984
0.00547908
0.00054539
0.00549959
0.000553159
0.00552109
0.000560204
0.00554356
0.000566434
0.00556696
0.000571755
0.00559127
0.000576072
0.00561643
0.000579289
0.00564238
0.00058131
0.00566907
0.000582042
0.00569639
0.000581392
0.00572426
0.000579271
0.00575257
0.000575594
0.0057812
0.000570269
0.00581002
0.000563167
0.00583883
0.000554004
0.000541859
0.00527288
0.000354421
0.00527891
0.000364079
0.00528548
0.000373886
0.00529261
0.000383821
0.00530032
0.000393864
0.00530866
0.000403991
0.00531765
0.000414177
0.00532733
0.000424392
0.00533772
0.000434604
0.00534886
0.000444777
0.00536077
0.00045487
0.00537349
0.000464838
0.00538704
0.000474633
0.00540144
0.000484202
0.00541671
0.000493488
0.00543288
0.000502429
0.00544994
0.00051096
0.00546792
0.000519009
0.0054868
0.000526504
0.0055066
0.000533368
0.00552728
0.000539519
0.00554884
0.000544876
0.00557124
0.000549352
0.00559445
0.000552862
0.00561842
0.00055532
0.00564309
0.00055664
0.0056684
0.000556737
0.00569426
0.000555532
0.00572058
0.000552945
0.00574727
0.000548901
0.00577422
0.000543321
0.0058013
0.000536093
0.00582833
0.000526965
0.000515125
0.00528251
0.000348725
0.00528869
0.000357899
0.00529539
0.000367194
0.00530262
0.00037659
0.00531042
0.000386065
0.00531881
0.000395596
0.00532783
0.000405158
0.0053375
0.000414721
0.00534785
0.000424253
0.00535891
0.00043372
0.0053707
0.000443081
0.00538324
0.000452294
0.00539656
0.000461312
0.00541068
0.000470085
0.00542561
0.000478559
0.00544136
0.000486676
0.00545795
0.000494374
0.00547537
0.000501588
0.00549363
0.000508249
0.00551271
0.000514287
0.0055326
0.000519628
0.00555328
0.000524195
0.00557472
0.000527912
0.00559688
0.000530702
0.00561971
0.000532486
0.00564317
0.000533187
0.00566717
0.000532732
0.00569166
0.000531047
0.00571653
0.000528065
0.00574172
0.00052372
0.0057671
0.000517941
0.00579256
0.00051063
0.00581796
0.000501569
0.000490041
0.00529167
0.000342898
0.00529796
0.000351604
0.00530475
0.000360405
0.00531206
0.000369281
0.00531991
0.000378211
0.00532834
0.000387172
0.00533736
0.000396139
0.005347
0.000405081
0.00535728
0.00041397
0.00536823
0.000422769
0.00537987
0.000431441
0.00539222
0.000439945
0.00540529
0.000448236
0.00541911
0.000456267
0.00543368
0.000463987
0.00544902
0.000471341
0.00546512
0.000478271
0.00548199
0.000484717
0.00549963
0.000490616
0.00551801
0.000495902
0.00553713
0.000500507
0.00555696
0.000504363
0.00557748
0.000507399
0.00559863
0.000509545
0.00562039
0.000510731
0.00564269
0.000510889
0.00566547
0.000509951
0.00568866
0.000507855
0.00571219
0.00050454
0.00573596
0.000499948
0.00575988
0.000494018
0.00578385
0.000486665
0.00580772
0.000477697
0.000466484
0.00530035
0.000336965
0.00530674
0.000345218
0.0053136
0.000353543
0.00532096
0.00036192
0.00532884
0.000370329
0.00533727
0.000378745
0.00534626
0.000387144
0.00535585
0.000395498
0.00536604
0.000403777
0.00537686
0.000411946
0.00538833
0.00041997
0.00540047
0.000427809
0.00541329
0.000435421
0.00542679
0.000442761
0.005441
0.000449781
0.00545591
0.000456429
0.00547153
0.000462652
0.00548785
0.000468393
0.00550487
0.000473595
0.00552258
0.000478196
0.00554095
0.000482134
0.00555997
0.000485348
0.00557959
0.000487772
0.00559979
0.000489344
0.00562052
0.000490001
0.00564173
0.000489682
0.00566336
0.000488326
0.00568533
0.000485878
0.00570759
0.000482284
0.00573004
0.000477494
0.00575261
0.000471454
0.00577518
0.000464091
0.00579764
0.000455237
0.000444341
0.00530859
0.000330949
0.00531504
0.000338764
0.00532195
0.000346631
0.00532934
0.00035453
0.00533723
0.00036244
0.00534564
0.000370337
0.00535459
0.000378196
0.00536409
0.000385992
0.00537417
0.000393694
0.00538485
0.00040127
0.00539614
0.000408685
0.00540804
0.000415901
0.00542059
0.000422879
0.00543377
0.000429576
0.00544761
0.000435946
0.00546209
0.000441942
0.00547723
0.000447513
0.00549302
0.000452608
0.00550944
0.000457172
0.00552648
0.00046115
0.00554413
0.000464485
0.00556236
0.000467119
0.00558114
0.000468996
0.00560043
0.000470057
0.00562018
0.000470246
0.00564036
0.000469507
0.00566089
0.000467789
0.00568173
0.000465041
0.0057028
0.000461216
0.00572402
0.00045627
0.00574532
0.000450157
0.0057666
0.000442811
0.00578775
0.000434088
0.000423509
0.00531638
0.000324869
0.00532288
0.000332263
0.00532982
0.000339691
0.00533722
0.000347132
0.0053451
0.000354564
0.00535347
0.000361967
0.00536235
0.000369314
0.00537176
0.000376581
0.00538172
0.000383739
0.00539223
0.000390756
0.00540332
0.000397599
0.00541498
0.000404233
0.00542724
0.000410619
0.0054401
0.000416718
0.00545356
0.000422486
0.00546763
0.000427879
0.00548229
0.000432851
0.00549754
0.000437353
0.00551338
0.000441335
0.00552979
0.000444746
0.00554674
0.000447534
0.00556421
0.000449647
0.00558217
0.000451033
0.00560059
0.000451639
0.00561942
0.000451414
0.00563862
0.00045031
0.00565813
0.00044828
0.00567789
0.000445278
0.00569784
0.000441264
0.00571792
0.000436198
0.00573803
0.000430041
0.00575811
0.000422736
0.00577804
0.000414159
0.000403894
0.00532376
0.000318745
0.00533029
0.000325735
0.00533724
0.000332741
0.00534463
0.000339743
0.00535247
0.000346721
0.00536079
0.000353653
0.00536959
0.000360515
0.00537889
0.000367281
0.0053887
0.000373925
0.00539904
0.000380416
0.00540991
0.000386723
0.00542134
0.000392812
0.00543331
0.000398647
0.00544584
0.00040419
0.00545892
0.0004094
0.00547256
0.000414238
0.00548676
0.000418658
0.00550149
0.000422616
0.00551676
0.000426067
0.00553254
0.000428963
0.00554882
0.000431257
0.00556557
0.0004329
0.00558275
0.000433847
0.00560034
0.000434049
0.0056183
0.00043346
0.00563657
0.000432038
0.00565511
0.000429738
0.00567386
0.000426523
0.00569277
0.000422356
0.00571177
0.000417203
0.00573078
0.000411028
0.00574973
0.000403784
0.00576853
0.000395364
0.000385409
0.00533074
0.000312594
0.00533728
0.000319195
0.00534422
0.000325797
0.00535158
0.000332381
0.00535938
0.000338926
0.00536762
0.00034541
0.00537633
0.000351812
0.0053855
0.000358105
0.00539516
0.000364265
0.00540531
0.000370262
0.00541597
0.000376067
0.00542714
0.000381646
0.00543882
0.000386967
0.00545101
0.000391994
0.00546372
0.000396689
0.00547695
0.000401013
0.00549068
0.000404926
0.00550491
0.000408387
0.00551962
0.000411353
0.00553481
0.000413781
0.00555043
0.000415628
0.00556648
0.00041685
0.00558293
0.000417403
0.00559973
0.000417247
0.00561685
0.000416338
0.00563425
0.000414639
0.00565188
0.00041211
0.00566968
0.000408718
0.00568761
0.00040443
0.0057056
0.000399216
0.00572358
0.000393046
0.00574148
0.00038588
0.00575922
0.000377625
0.000367976
0.00533733
0.00030643
0.00534387
0.000312659
0.00535079
0.000318875
0.00535811
0.00032506
0.00536584
0.000331192
0.005374
0.000337253
0.0053826
0.000343218
0.00539164
0.000349065
0.00540113
0.000354769
0.00541109
0.000360302
0.00542152
0.000365636
0.00543243
0.000370741
0.00544381
0.000375583
0.00545567
0.000380131
0.00546802
0.000384348
0.00548083
0.000388199
0.00549411
0.000391647
0.00550784
0.000394652
0.00552202
0.000397176
0.00553662
0.00039918
0.00555163
0.000400623
0.00556701
0.000401466
0.00558275
0.000401669
0.0055988
0.000401195
0.00561513
0.000400006
0.0056317
0.000398066
0.00564847
0.000395343
0.00566538
0.000391805
0.00568239
0.000387424
0.00569943
0.000382174
0.00571645
0.000376028
0.00573338
0.000368953
0.00575013
0.00036087
0.000351522
0.00534356
0.000300269
0.00535007
0.000306141
0.00535696
0.000311988
0.00536423
0.000317793
0.00537189
0.000323534
0.00537995
0.000329191
0.00538842
0.000334744
0.00539732
0.000340171
0.00540664
0.000345445
0.0054164
0.000350543
0.0054266
0.000355437
0.00543724
0.000360097
0.00544833
0.000364495
0.00545986
0.000368598
0.00547184
0.000372374
0.00548425
0.000375789
0.00549708
0.000378809
0.00551034
0.000381398
0.005524
0.00038352
0.00553804
0.000385138
0.00555244
0.000386217
0.00556719
0.000386719
0.00558225
0.000386611
0.00559759
0.000385856
0.00561317
0.000384422
0.00562896
0.000382276
0.00564491
0.000379389
0.00566099
0.000375733
0.00567713
0.000371283
0.00569328
0.000366017
0.0057094
0.000359912
0.00572541
0.000352939
0.00574125
0.000345033
0.00033598
0.00534943
0.000294122
0.00535592
0.000299653
0.00536276
0.000305149
0.00536996
0.000310591
0.00537753
0.00031596
0.00538549
0.000321236
0.00539383
0.0003264
0.00540258
0.000331429
0.00541172
0.000336301
0.00542127
0.00034099
0.00543124
0.000345472
0.00544162
0.000349719
0.00545241
0.000353703
0.00546361
0.000357394
0.00547523
0.000360762
0.00548724
0.000363776
0.00549965
0.000366403
0.00551243
0.000368611
0.00552559
0.000370366
0.00553909
0.000371636
0.00555292
0.000372386
0.00556706
0.000372584
0.00558147
0.000372198
0.00559613
0.000371196
0.005611
0.000369548
0.00562605
0.000367225
0.00564124
0.000364202
0.00565652
0.000360452
0.00567185
0.000355955
0.00568718
0.000350691
0.00570245
0.000344641
0.00571761
0.000337779
0.00573259
0.000330054
0.000321289
0.00535497
0.000288001
0.00536142
0.000293207
0.0053682
0.000298367
0.00537533
0.000303465
0.00538281
0.000308481
0.00539065
0.000313396
0.00539885
0.000318192
0.00540744
0.000322847
0.0054164
0.00032734
0.00542574
0.000331647
0.00543547
0.000335744
0.00544558
0.000339605
0.00545608
0.000343204
0.00546696
0.000346514
0.00547822
0.000349505
0.00548984
0.00035215
0.00550183
0.000354417
0.00551416
0.000356277
0.00552683
0.000357699
0.00553981
0.000358652
0.00555309
0.000359107
0.00556665
0.000359032
0.00558044
0.0003584
0.00559446
0.00035718
0.00560866
0.000355347
0.00562301
0.000352874
0.00563747
0.000349738
0.00565201
0.000345917
0.00566657
0.000341392
0.00568112
0.000336145
0.0056956
0.000330161
0.00570996
0.000323418
0.00572414
0.000315875
0.000307393
0.0053602
0.000281916
0.00536659
0.000286811
0.00537331
0.000291652
0.00538035
0.000296423
0.00538772
0.000301104
0.00539544
0.000305678
0.00540351
0.000310127
0.00541192
0.00031443
0.0054207
0.000318567
0.00542983
0.000322516
0.00543932
0.000326253
0.00544917
0.000329755
0.00545938
0.000332997
0.00546994
0.000335954
0.00548084
0.000338597
0.00549209
0.000340902
0.00550367
0.000342839
0.00551556
0.000344381
0.00552776
0.0003455
0.00554025
0.000346168
0.005553
0.000346357
0.00556599
0.000346039
0.0055792
0.000345188
0.0055926
0.000343778
0.00560617
0.000341785
0.00561986
0.000339186
0.00563364
0.000335959
0.00564747
0.000332085
0.00566131
0.000327547
0.00567513
0.000322331
0.00568886
0.000316422
0.00570248
0.000309805
0.00571591
0.000302445
0.000294238
0.00536512
0.000275877
0.00537145
0.000280475
0.00537809
0.000285013
0.00538504
0.000289473
0.00539231
0.000293837
0.0053999
0.000298088
0.00540782
0.00030221
0.00541606
0.000306182
0.00542465
0.000309985
0.00543356
0.000313598
0.00544282
0.000317
0.0054524
0.000320168
0.00546232
0.000323079
0.00547257
0.000325708
0.00548313
0.000328031
0.00549401
0.000330023
0.00550519
0.000331658
0.00551667
0.00033291
0.00552841
0.000333754
0.00554042
0.000334163
0.00555266
0.000334113
0.00556512
0.000333579
0.00557777
0.000332535
0.00559059
0.000330959
0.00560355
0.000328829
0.00561661
0.000326124
0.00562974
0.000322825
0.00564291
0.000318915
0.00565608
0.000314379
0.00566921
0.000309205
0.00568225
0.00030338
0.00569516
0.000296892
0.00570789
0.000289716
0.000281776
0.00536975
0.000269891
0.00537602
0.000274207
0.00538258
0.000278456
0.00538943
0.000282621
0.00539658
0.000286685
0.00540404
0.000290632
0.0054118
0.000294445
0.00541988
0.000298106
0.00542827
0.000301596
0.00543697
0.000304896
0.00544599
0.000307984
0.00545531
0.000310841
0.00546495
0.000313444
0.00547489
0.000315771
0.00548512
0.000317798
0.00549564
0.000319503
0.00550644
0.000320861
0.0055175
0.000321849
0.00552881
0.000322443
0.00554035
0.00032262
0.00555211
0.000322356
0.00556406
0.000321628
0.00557618
0.000320415
0.00558844
0.000318694
0.00560083
0.000316447
0.00561329
0.000313655
0.00562582
0.000310301
0.00563836
0.00030637
0.00565089
0.000301848
0.00566337
0.000296725
0.00567576
0.000290991
0.00568802
0.000284636
0.00570009
0.000277643
0.000269961
0.00537412
0.000263965
0.00538031
0.000268013
0.00538678
0.000271987
0.00539353
0.000275873
0.00540056