/*--------------------------------*- C++ -*----------------------------------*\
| =========                 |                                                 |
| \\      /  F ield         | OpenFOAM: The Open Source CFD Toolbox           |
|  \\    /   O peration     | Version:  2412                                  |
|   \\  /    A nd           | Website:  www.openfoam.com                      |
|    \\/     M anipulation  |                                                 |
\*---------------------------------------------------------------------------*/
FoamFile
{
    version     2.0;
    format      ascii;
    arch        "LSB;label=32;scalar=64";
    class       volScalarField;
    location    "25";
    object      p;
}
// * * * * * * * * * * * * * * * * * * * * * * * * * * * * * * * * * * * * * //

dimensions      [0 2 -2 0 0 0 0];

internalField   nonuniform List<scalar> 
5285
(
-0.000268134
-0.000282289
-0.000295395
-0.000307566
-0.000318787
-0.000329032
-0.000338299
-0.000346591
-0.000353917
-0.000360285
-0.000365711
-0.000370212
-0.00037381
-0.000376528
-0.000378394
-0.000379438
-0.000379691
-0.000379187
-0.000377961
-0.00037605
-0.000373492
-0.000370325
-0.000366586
-0.000362315
-0.00028899
-0.00030369
-0.000317124
-0.0003296
-0.000341081
-0.000351521
-0.000360918
-0.000369279
-0.000376613
-0.000382932
-0.000388252
-0.000392593
-0.000395979
-0.000398437
-0.000399998
-0.000400693
-0.000400558
-0.000399629
-0.000397945
-0.000395547
-0.000392475
-0.00038877
-0.000384474
-0.000379629
-0.000310994
-0.000326274
-0.000340039
-0.000352827
-0.000364576
-0.000375213
-0.000384736
-0.000393157
-0.000400487
-0.000406739
-0.000411932
-0.000416088
-0.000419235
-0.000421402
-0.000422623
-0.000422933
-0.000422371
-0.000420977
-0.000418794
-0.000415865
-0.000412235
-0.000407949
-0.00040305
-0.000397586
-0.000334223
-0.000350118
-0.000364223
-0.000377332
-0.000389357
-0.000400191
-0.000409835
-0.000418307
-0.000425617
-0.000431783
-0.000436825
-0.000440769
-0.000443645
-0.000445486
-0.00044633
-0.000446215
-0.000445184
-0.000443281
-0.000440553
-0.000437047
-0.000432811
-0.000427895
-0.000422346
-0.000416214
-0.000358761
-0.00037531
-0.000389767
-0.000403208
-0.000415513
-0.000426545
-0.000436304
-0.000444814
-0.000452088
-0.000458146
-0.00046301
-0.000466711
-0.000469281
-0.000470758
-0.000471182
-0.000470598
-0.000469052
-0.000466592
-0.000463269
-0.000459135
-0.000454242
-0.000448644
-0.000442392
-0.00043554
-0.000384708
-0.000401952
-0.000416772
-0.000430553
-0.000443145
-0.000454373
-0.000464239
-0.000472772
-0.000479991
-0.000485915
-0.000490571
-0.000493994
-0.000496219
-0.000497289
-0.000497249
-0.000496148
-0.000494035
-0.000490966
-0.000486994
-0.000482176
-0.000476569
-0.000470232
-0.00046322
-0.000455592
-0.000412173
-0.000430154
-0.000445348
-0.000459478
-0.000472362
-0.000483783
-0.000493746
-0.000502286
-0.000509425
-0.000515186
-0.000519601
-0.000522706
-0.000524543
-0.00052516
-0.000524605
-0.000522932
-0.000520198
-0.00051646
-0.00051178
-0.000506218
-0.000499837
-0.000492699
-0.000484866
-0.000476401
-0.000441272
-0.000460036
-0.000475614
-0.000490102
-0.000503281
-0.000514891
-0.000524938
-0.000533465
-0.000540498
-0.000546064
-0.000550198
-0.000552942
-0.000554343
-0.000554453
-0.000553327
-0.000551024
-0.000547607
-0.000543138
-0.000537684
-0.000531312
-0.00052409
-0.000516086
-0.000507365
-0.000497996
-0.000472136
-0.000491732
-0.000507703
-0.000522555
-0.000536033
-0.000547825
-0.000557939
-0.00056643
-0.000573326
-0.000578659
-0.000582469
-0.000584803
-0.000585713
-0.000585259
-0.0005835
-0.000580503
-0.000576334
-0.000571065
-0.000564767
-0.000557514
-0.000549379
-0.000540435
-0.000530755
-0.000520411
-0.000504908
-0.000525387
-0.000541758
-0.000556982
-0.000570759
-0.000582723
-0.000592886
-0.000601312
-0.000608036
-0.000613093
-0.000616529
-0.000618398
-0.000618758
-0.000617674
-0.000615214
-0.000611451
-0.000606457
-0.000600312
-0.000593092
-0.000584879
-0.000575752
-0.000565791
-0.000555073
-0.000543677
-0.000539744
-0.000561161
-0.00057794
-0.000593539
-0.000607613
-0.000619737
-0.000629925
-0.000638254
-0.000644764
-0.000649497
-0.000652503
-0.000653845
-0.000653588
-0.000651803
-0.000648566
-0.000643957
-0.000638057
-0.000630952
-0.000622727
-0.000613469
-0.000603264
-0.0005922
-0.00058036
-0.00056783
-0.000576819
-0.000599232
-0.000616422
-0.0006324
-0.000646766
-0.000659033
-0.000669218
-0.000677411
-0.00068366
-0.000688012
-0.000690526
-0.000691271
-0.000690321
-0.000687755
-0.000683658
-0.000678116
-0.000671221
-0.000663065
-0.000653742
-0.000643346
-0.000631971
-0.000619712
-0.000606659
-0.000592904
-0.000616324
-0.000639794
-0.000657399
-0.000673753
-0.000688404
-0.000700792
-0.00071094
-0.000718951
-0.000724884
-0.000728792
-0.000730742
-0.000730812
-0.000729085
-0.00072565
-0.0007206
-0.00071403
-0.000706041
-0.000696734
-0.000686212
-0.000674577
-0.000661932
-0.000648378
-0.000634013
-0.000618937
-0.000658472
-0.000683066
-0.000701082
-0.000717808
-0.000732731
-0.000745213
-0.000755282
-0.00076306
-0.000768613
-0.000772003
-0.000773309
-0.000772616
-0.000770018
-0.000765615
-0.000759509
-0.000751805
-0.000742615
-0.000732048
-0.000720217
-0.000707233
-0.000693207
-0.00067825
-0.000662467
-0.000645964
-0.000703502
-0.000729286
-0.000747709
-0.000764797
-0.000779974
-0.000792515
-0.000802455
-0.000809936
-0.000815036
-0.000817827
-0.000818395
-0.000816841
-0.000813268
-0.000807786
-0.00080051
-0.000791557
-0.000781046
-0.0007691
-0.000755839
-0.000741386
-0.000725861
-0.000709383
-0.000692066
-0.000674025
-0.000751677
-0.000778725
-0.000797541
-0.000814975
-0.00083038
-0.000842937
-0.000852689
-0.000859802
-0.000864363
-0.000866458
-0.000866186
-0.000863659
-0.000858993
-0.000852312
-0.000843739
-0.000833406
-0.000821445
-0.000807988
-0.000793167
-0.000777115
-0.000759961
-0.000741835
-0.00072286
-0.000703159
-0.000803293
-0.000831677
-0.000850866
-0.000868621
-0.000884219
-0.000896736
-0.000906229
-0.000912894
-0.000916812
-0.000918102
-0.000916873
-0.000913249
-0.000907361
-0.000899345
-0.000889342
-0.000877487
-0.000863931
-0.000848819
-0.000832295
-0.000814501
-0.000795579
-0.000775667
-0.000754899
-0.000733406
-0.000858673
-0.000888465
-0.000907998
-0.000926036
-0.00094178
-0.00095419
-0.000963332
-0.000969422
-0.000972609
-0.000972976
-0.000970658
-0.000965797
-0.000958541
-0.000949041
-0.000937451
-0.000923927
-0.000908621
-0.000891698
-0.000873314
-0.000853625
-0.000832783
-0.000810936
-0.00078823
-0.000764805
-0.00100157
-0.000988223
-0.000972854
-0.000955631
-0.000936728
-0.000916317
-0.000894565
-0.000871638
-0.000847697
-0.000822896
-0.000797388
-0.000151393
-0.000170052
-0.000188065
-0.000205406
-0.000222056
-0.000237993
-0.000253185
-0.000166944
-0.000186338
-0.000205079
-0.000223139
-0.000240498
-0.00025712
-0.000272952
-0.000183275
-0.000203459
-0.000222981
-0.000241811
-0.000259927
-0.000277275
-0.000293782
-0.000200437
-0.00022146
-0.000241812
-0.000261461
-0.000280386
-0.000298516
-0.000315748
-0.000218485
-0.0002404
-0.000261636
-0.00028216
-0.00030195
-0.000320916
-0.000338923
-0.00023748
-0.000260346
-0.000282527
-0.000303985
-0.0003247
-0.000344562
-0.000363397
-0.000257487
-0.000281371
-0.000304561
-0.000327019
-0.000348725
-0.000369547
-0.00038927
-0.00027858
-0.000303552
-0.000327823
-0.000351352
-0.000374121
-0.000395975
-0.000416649
-0.000300836
-0.000326974
-0.000352404
-0.000377083
-0.000400994
-0.000423957
-0.000445651
-0.00032433
-0.000351728
-0.000378407
-0.000404323
-0.00042946
-0.000453618
-0.000476408
-0.000349194
-0.000377934
-0.000405949
-0.000433191
-0.000459649
-0.000485095
-0.000509063
-0.000375523
-0.000405703
-0.000435152
-0.000463821
-0.000491702
-0.000518537
-0.000543773
-0.000403431
-0.000435159
-0.000466152
-0.000496359
-0.000525774
-0.000554112
-0.000580713
-0.000433045
-0.000466441
-0.000499099
-0.000530964
-0.000562038
-0.000592003
-0.000620078
-0.000464506
-0.000499702
-0.000534158
-0.000567817
-0.000600686
-0.000632416
-0.000662084
-0.00049797
-0.000535113
-0.000571516
-0.000607118
-0.000641932
-0.000675581
-0.000706974
-0.000533613
-0.000572865
-0.000611378
-0.000649088
-0.000686017
-0.000721754
-0.000755017
-0.000571631
-0.00061317
-0.000653973
-0.000693973
-0.0007332
-0.000771215
-0.00080651
-0.000612232
-0.000656257
-0.000699549
-0.000742038
-0.000783772
-0.000824277
-0.000861791
-0.000655651
-0.000702385
-5.77745e-06
-2.79108e-05
-4.96393e-05
-7.0973e-05
-9.18668e-05
-0.000112264
-0.000132119
-1.6081e-05
-3.90231e-05
-6.14669e-05
-8.35379e-05
-0.000105183
-0.000126329
-0.000146929
-2.68521e-05
-5.06407e-05
-7.38241e-05
-9.66725e-05
-0.000119118
-0.000141065
-0.000162465
-3.8098e-05
-6.28058e-05
-8.67735e-05
-0.000110444
-0.000133738
-0.000156536
-0.000178783
-4.98507e-05
-7.55145e-05
-0.000100345
-0.000124903
-0.000149089
-0.000172787
-0.000195933
-6.21552e-05
-8.88644e-05
-0.000114576
-0.000140104
-0.000165224
-0.000189872
-0.000213973
-7.50284e-05
-0.000102852
-0.000129496
-0.00015594
-0.000182172
-0.000207843
-0.000232959
-8.85041e-05
-0.000117526
-0.000145188
-0.000172742
-0.000200116
-0.000226772
-0.00025296
-0.000102614
-0.000132916
-0.000161649
-0.000190392
-0.000219329
-0.000246748
-0.000274047
-0.000117398
-0.000149064
-0.000178889
-0.0002086
-0.000237776
-0.00026752
-0.00029627
-0.00013291
-0.000166065
-0.000197114
-0.000228166
-0.000259077
-0.000289758
-0.000319791
-0.000149195
-0.000183965
-0.00021634
-0.000248793
-0.000281211
-0.000313226
-0.000344678
-0.000166294
-0.000202814
-0.000236607
-0.000270539
-0.0003045
-0.000338047
-0.000371039
-0.000184257
-0.000222671
-0.000257989
-0.000293508
-0.000329128
-0.000364334
-0.000398987
-0.000203134
-0.000243606
-0.000280571
-0.000317797
-0.000355202
-0.000392202
-0.000428649
-0.000222987
-0.000265698
-0.000304442
-0.000343511
-0.000382843
-0.000421783
-0.000460169
-0.000243875
-0.00028903
-0.000329703
-0.000370764
-0.000412181
-0.000453222
-0.000493707
-0.00026586
-0.000313684
-0.000356459
-0.000399681
-0.000443359
-0.000486677
-0.000529442
-0.000289011
-0.000339758
-0.00038482
-0.00043039
-0.000476527
-0.00052232
-0.00056756
-0.000560345
-0.000608278
0.000658591
0.000647055
0.000634993
0.000622394
0.000609249
0.000595548
0.000581285
0.000566454
0.00055105
0.00053507
0.000518515
0.000501385
0.000483684
0.000465418
0.000446596
0.00042723
0.000407334
0.000386925
0.000366024
0.000344655
0.000322844
0.000300622
0.000278023
0.000255082
0.000231841
0.000208343
0.000184633
0.000160762
0.00013678
0.000112742
8.87039e-05
6.4723e-05
4.08644e-05
1.72127e-05
0.000669651
0.000658034
0.000645866
0.000633135
0.00061983
0.00060594
0.000591457
0.000576374
0.000560683
0.000544383
0.00052747
0.000509944
0.00049181
0.000473071
0.000453737
0.000433817
0.000413327
0.000392283
0.000370707
0.000348622
0.000326057
0.000303042
0.000279613
0.000255809
0.000231672
0.000207248
0.000182586
0.000157738
0.00013276
0.000107709
8.26473e-05
5.76345e-05
3.27475e-05
8.08545e-06
0.000681209
0.000669522
0.000657259
0.000644405
0.000630948
0.000616876
0.000602178
0.000586845
0.00057087
0.000554247
0.000536973
0.000519047
0.000500471
0.000481248
0.000461386
0.000440896
0.000419791
0.000398089
0.000375809
0.000352978
0.000329623
0.000305777
0.000281477
0.000256764
0.000231682
0.000206279
0.000180608
0.000154726
0.00012869
0.000102563
7.64111e-05
5.02978e-05
2.43115e-05
-1.43078e-06
0.000693288
0.000681544
0.000669197
0.00065623
0.000642631
0.000628384
0.000613477
0.000597899
0.000581642
0.000564697
0.000547061
0.00052873
0.000509704
0.000489987
0.000469584
0.000448506
0.000426765
0.000404379
0.000381368
0.000357758
0.000333577
0.00030886
0.000283645
0.000257974
0.000231894
0.000205457
0.000178718
0.000151737
0.000124578
9.73064e-05
6.99931e-05
4.27063e-05
1.5547e-05
-1.1346e-05
0.000705909
0.000694122
0.000681704
0.000668638
0.000654907
0.000640495
0.000625387
0.000609571
0.000593036
0.000575771
0.000557771
0.000539031
0.000519549
0.000499327
0.000478371
0.000456688
0.00043429
0.000411196
0.000387424
0.000363001
0.000337957
0.000312326
0.000286148
0.000259468
0.000232335
0.000204804
0.000176933
0.000148787
0.000120433
9.19429e-05
6.33919e-05
3.48527e-05
6.44066e-06
-2.16818e-05
0.000719095
0.000707281
0.000694809
0.000681657
0.000667807
0.000653242
0.000637943
0.000621896
0.000605088
0.000587507
0.000569144
0.000549992
0.000530049
0.000509314
0.00048779
0.000465485
0.000442411
0.000418582
0.00039402
0.00036875
0.000342803
0.000316214
0.000289024
0.000261281
0.000233036
0.000204346
0.000175276
0.000145891
0.000116266
8.64777e-05
5.6606e-05
2.67292e-05
-3.02253e-06
-3.24621e-05
0.000732871
0.000721048
0.000708538
0.000695316
0.000681363
0.000666657
0.00065118
0.000634912
0.000617839
0.000599946
0.000581222
0.000561658
0.000541249
0.000519993
0.00049789
0.000474948
0.000451175
0.000426587
0.000401204
0.000375051
0.00034816
0.000320566
0.000292313
0.000263448
0.000234028
0.000204113
0.000173769
0.000143069
0.00011209
8.0917e-05
4.96353e-05
1.83284e-05
-1.2857e-05
-4.37072e-05
0.00074726
0.000735449
0.000722919
0.000709647
0.000695607
0.000680777
0.000665134
0.000648658
0.000631329
0.000613132
0.000594051
0.000574076
0.000553199
0.000531414
0.000508722
0.000485126
0.000460635
0.000435262
0.000409028
0.000381955
0.000354077
0.00032543
0.000296058
0.000266012
0.00023535
0.000204136
0.00017244
0.00014034
0.00010792
7.52691e-05
4.24802e-05
9.6431e-06
-2.3078e-05
-5.54405e-05
0.000762286
0.000750509
0.000737983
0.00072468
0.000710573
0.000695637
0.000679845
0.000663174
0.000645603
0.00062711
0.000607679
0.000587296
0.00056595
0.000543632
0.000520341
0.000496077
0.000470848
0.000444665
0.000417547
0.000389518
0.000360608
0.000330857
0.00030031
0.000269018
0.000237043
0.000204452
0.000171321
0.000137732
0.000103774
6.95437e-05
3.51425e-05
6.66147e-07
-3.37015e-05
-6.76869e-05
0.000777975
0.000766256
0.000753757
0.000740447
0.000726296
0.000711274
0.000695353
0.000678505
0.000660705
0.00064193
0.000622158
0.000601372
0.000579558
0.000556704
0.000532806
0.000507861
0.000481875
0.000454857
0.000426824
0.000397799
0.000367814
0.000336906
0.000305122
0.000272517
0.000239154
0.000205103
0.000170446
0.00013527
9.96712e-05
6.37531e-05
2.76249e-05
-8.60949e-06
-4.47453e-05
-8.0475e-05
0.000794351
0.000782718
0.000770274
0.000756983
0.000742812
0.000727729
0.000711701
0.000694696
0.000676686
0.000657642
0.000637541
0.000616361
0.000594082
0.000570692
0.000546181
0.000520544
0.000493783
0.000465905
0.000436926
0.000406867
0.000375759
0.000343639
0.000310556
0.000276566
0.000241734
0.000206136
0.000169856
0.000132989
9.56369e-05
5.7912e-05
1.99321e-05
-1.81905e-05
-5.62285e-05
-9.38391e-05
0.00081144
0.000799923
0.000787563
0.000774321
0.000760159
0.000745042
0.000728932
0.000711794
0.000693594
0.000674302
0.000653886
0.000632322
0.000609587
0.000585662
0.000560534
0.000534195
0.000506643
0.000477883
0.000447926
0.000416794
0.000384515
0.000351127
0.000316679
0.000281228
0.000244843
0.000207602
0.000169597
0.000130925
9.1699e-05
5.20384e-05
1.20708e-05
-2.80823e-05
-6.81695e-05
-0.000107811
0.000829265
0.000817899
0.000805656
0.000792495
0.000778374
0.000763254
0.000747091
0.000729848
0.000711484
0.000691964
0.000671253
0.000649321
0.000626139
0.000601685
0.00057594
0.000548892
0.000520535
0.00049087
0.000459906
0.000427661
0.000394162
0.000359448
0.000323565
0.000286574
0.000248545
0.000209562
0.000169719
0.000129122
8.78904e-05
4.6154e-05
4.05062e-06
-3.82884e-05
-8.05854e-05
-0.000122422
0.000847853
0.000836673
0.000824584
0.00081154
0.000797496
0.000782407
0.000766226
0.000748908
0.00073041
0.000710689
0.000689706
0.000667424
0.00064381
0.000618835
0.000592476
0.000564715
0.000535542
0.000504952
0.000472951
0.000439555
0.000404788
0.000368686
0.000331297
0.000292683
0.000252915
0.000212081
0.000170281
0.000127628
8.42495e-05
4.02851e-05
-4.11576e-06
-4.88105e-05
-9.34934e-05
-0.000137704
0.000867227
0.000856272
0.000844378
0.000831492
0.000817565
0.000802546
0.000786384
0.000769028
0.000750429
0.000730539
0.000709311
0.000686703
0.000662676
0.000637194
0.000610228
0.000581754
0.000551754
0.000520222
0.000487158
0.000452572
0.000416487
0.000378936
0.000339968
0.000299642
0.000258035
0.000215236
0.000171351
0.0001265
8.08204e-05
3.44621e-05
-1.24127e-05
-5.96492e-05
-0.000106911
-0.000153694
0.000887409
0.000876725
0.000865068
0.000852384
0.000838618
0.000823713
0.000807613
0.00079026
0.0007716
0.000751577
0.000730138
0.000707234
0.000682817
0.000656847
0.000629285
0.000600101
0.000569272
0.000536783
0.000502629
0.000466817
0.000429365
0.000390303
0.000349677
0.000307549
0.000263995
0.00021911
0.000173002
0.000125802
7.7654e-05
2.87213e-05
-2.08206e-05
-7.08031e-05
-0.000120857
-0.000170431
0.000908423
0.000898057
0.000886686
0.000874253
0.000860697
0.000845955
0.000829965
0.000812662
0.000793985
0.000773872
0.000752261
0.000729095
0.00070432
0.000677885
0.000649744
0.00061986
0.000588201
0.000554745
0.00051948
0.000482407
0.000443539
0.000402903
0.000360542
0.000316516
0.000270903
0.000223801
0.000175324
0.00012561
7.48128e-05
2.31088e-05
-2.93117e-05
-8.22647e-05
-0.000135345
-0.000187953
0.000930291
0.000920294
0.000909263
0.000897135
0.000883842
0.000869318
0.000853491
0.000836292
0.00081765
0.000797495
0.000775758
0.000752373
0.000727276
0.000700407
0.000671712
0.000641143
0.000608659
0.000574231
0.000537837
0.000499472
0.000459141
0.000416867
0.00037269
0.000326668
0.000278879
0.000229422
0.000178419
0.000126013
7.23705e-05
1.76806e-05
-3.78502e-05
-9.40207e-05
-0.000150387
-0.000206299
0.000411087
0.000406373
0.000401638
0.000396884
0.000392113
0.000387325
0.000382521
0.000377703
0.000372872
0.00036803
0.000363178
0.000358318
0.00035345
0.000348577
0.0003437
0.00033882
0.000333939
0.000329058
0.000324179
0.000319303
0.000314432
0.000309568
0.000304712
0.000299864
0.000295028
0.000290205
0.000285395
0.000280601
0.000275824
0.000271065
0.000266326
0.000261609
0.000256914
0.000252244
0.000411244
0.00040652
0.000401776
0.000397013
0.000392231
0.000387433
0.000382619
0.000377791
0.000372949
0.000368097
0.000363234
0.000358363
0.000353484
0.0003486
0.000343712
0.000338821
0.000333928
0.000329036
0.000324146
0.000319259
0.000314377
0.000309501
0.000304633
0.000299774
0.000294927
0.000290092
0.000285271
0.000280465
0.000275677
0.000270907
0.000266157
0.000261429
0.000256724
0.000252043
0.000411549
0.000406808
0.000402045
0.000397263
0.000392462
0.000387645
0.000382811
0.000377962
0.000373101
0.000368228
0.000363344
0.000358452
0.000353552
0.000348646
0.000343736
0.000338823
0.000333909
0.000328995
0.000324082
0.000319173
0.000314268
0.00030937
0.00030448
0.000299599
0.000294729
0.000289872
0.000285029
0.000280201
0.000275391
0.0002706
0.000265828
0.000261079
0.000256352
0.000251651
0.000411997
0.00040723
0.00040244
0.00039763
0.000392802
0.000387955
0.000383093
0.000378215
0.000373323
0.00036842
0.000363506
0.000358583
0.000353652
0.000348715
0.000343773
0.000338828
0.000333881
0.000328935
0.00032399
0.000319048
0.000314111
0.00030918
0.000304257
0.000299343
0.000294441
0.000289551
0.000284675
0.000279816
0.000274973
0.00027015
0.000265347
0.000260567
0.000255809
0.000251077
0.000412583
0.000407781
0.000402956
0.00039811
0.000393246
0.000388362
0.000383462
0.000378546
0.000373616
0.000368673
0.000363719
0.000358755
0.000353784
0.000348805
0.000343822
0.000338836
0.000333847
0.000328858
0.000323871
0.000318886
0.000313906
0.000308933
0.000303967
0.000299011
0.000294066
0.000289133
0.000284216
0.000279314
0.00027443
0.000269565
0.000264721
0.000259899
0.000255102
0.00025033
0.000413303
0.000408458
0.000403591
0.000398701
0.000393792
0.000388863
0.000383917
0.000378954
0.000373976
0.000368985
0.000363983
0.00035897
0.000353948
0.000348919
0.000343885
0.000338848
0.000333807
0.000328767
0.000323727
0.000318691
0.000313659
0.000308632
0.000303614
0.000298606
0.000293608
0.000288624
0.000283654
0.000278701
0.000273765
0.000268849
0.000263955
0.000259083
0.000254236
0.000249415
0.000414153
0.000409259
0.000404341
0.0003994
0.000394439
0.000389457
0.000384456
0.000379438
0.000374404
0.000369357
0.000364297
0.000359226
0.000354145
0.000349057
0.000343964
0.000338865
0.000333765
0.000328663
0.000323562
0.000318464
0.00031337
0.000308282
0.000303202
0.000298131
0.000293072
0.000288026
0.000282995
0.000277981
0.000272984
0.000268008
0.000263054
0.000258123
0.000253218
0.000248339
0.000415132
0.000410182
0.000405206
0.000400207
0.000395185
0.000390142
0.000385079
0.000379998
0.000374901
0.000369788
0.000364662
0.000359524
0.000354377
0.000349221
0.000344058
0.000338891
0.00033372
0.000328548
0.000323377
0.000318208
0.000313043
0.000307884
0.000302733
0.000297591
0.000292461
0.000287344
0.000282242
0.000277157
0.000272091
0.000267046
0.000262023
0.000257024
0.000252052
0.000247107
0.000416238
0.000411225
0.000406185
0.00040112
0.000396031
0.000390919
0.000385787
0.000380635
0.000375465
0.000370279
0.000365079
0.000359867
0.000354643
0.000349411
0.000344171
0.000338925
0.000333676
0.000328425
0.000323174
0.000317925
0.00031268
0.000307441
0.000302209
0.000296987
0.000291777
0.00028658
0.000281399
0.000276235
0.00027109
0.000265966
0.000260866
0.00025579
0.000250742
0.000245721
0.000417472
0.000412389
0.000407277
0.000402139
0.000396976
0.000391789
0.000386579
0.000381348
0.000376099
0.000370832
0.00036555
0.000360254
0.000354947
0.000349629
0.000344303
0.000338971
0.000333634
0.000328295
0.000322956
0.000317618
0.000312284
0.000306956
0.000301635
0.000296323
0.000291024
0.000285738
0.000280468
0.000275215
0.000269983
0.000264772
0.000259585
0.000254424
0.000249291
0.000244187
0.000418832
0.000413673
0.000408484
0.000403266
0.000398022
0.000392751
0.000387457
0.000382141
0.000376804
0.000371449
0.000366076
0.000360689
0.000355289
0.000349878
0.000344458
0.00033903
0.000333598
0.000328162
0.000322726
0.00031729
0.000311858
0.000306431
0.000301012
0.000295602
0.000290204
0.00028482
0.000279452
0.000274102
0.000268773
0.000263466
0.000258184
0.000252929
0.000247702
0.000242506
0.00042032
0.000415079
0.000409805
0.000404501
0.000399169
0.000393809
0.000388423
0.000383013
0.000377581
0.00037213
0.00036666
0.000361173
0.000355673
0.00035016
0.000344637
0.000339105
0.000333568
0.000328027
0.000322485
0.000316943
0.000311404
0.00030587
0.000300343
0.000294826
0.00028932
0.000283829
0.000278354
0.000272898
0.000267463
0.000262051
0.000256665
0.000251306
0.000245978
0.000240681
0.000421936
0.000416607
0.000411243
0.000405846
0.000400419
0.000394962
0.000389478
0.000383968
0.000378434
0.000372878
0.000367302
0.000361709
0.0003561
0.000350477
0.000344843
0.000339199
0.000333549
0.000327894
0.000322237
0.000316579
0.000310924
0.000305274
0.00029963
0.000293997
0.000288375
0.000282767
0.000277177
0.000271605
0.000266055
0.000260529
0.00025503
0.000249559
0.00024412
0.000238714
0.000423682
0.000418259
0.000412798
0.000407303
0.000401775
0.000396215
0.000390625
0.000385007
0.000379363
0.000373696
0.000368007
0.000362299
0.000356573
0.000350832
0.000345078
0.000339314
0.000333542
0.000327764
0.000321983
0.000316202
0.000310422
0.000304646
0.000298877
0.000293117
0.00028737
0.000281637
0.000275921
0.000270225
0.000264551
0.000258902
0.000253281
0.000247689
0.00024213
0.000236606
0.00042556
0.000420037
0.000414474
0.000408874
0.000403238
0.000397568
0.000391866
0.000386134
0.000380373
0.000374587
0.000368777
0.000362946
0.000357095
0.000351228
0.000345347
0.000339454
0.000333551
0.000327642
0.000321728
0.000315813
0.000309899
0.000303989
0.000298085
0.000292191
0.000286308
0.00028044
0.00027459
0.00026876
0.000262953
0.000257172
0.000251419
0.000245697
0.00024001
0.000234359
0.000427572
0.000421944
0.000416273
0.000410562
0.000404812
0.000399026
0.000393204
0.000387351
0.000381466
0.000375554
0.000369615
0.000363653
0.00035767
0.000351669
0.000345651
0.00033962
0.000333579
0.000327529
0.000321474
0.000315416
0.000309359
0.000303305
0.000297257
0.000291219
0.000285192
0.00027918
0.000273185
0.000267212
0.000261262
0.000255339
0.000249446
0.000243585
0.00023776
0.000231972
0.000429721
0.000423982
0.000418197
0.000412369
0.0004065
0.000400591
0.000394644
0.000388661
0.000382646
0.0003766
0.000370525
0.000364425
0.000358301
0.000352157
0.000345995
0.000339818
0.000333628
0.000327429
0.000321224
0.000315015
0.000308805
0.000302598
0.000296396
0.000290204
0.000284023
0.000277857
0.000271709
0.000265582
0.000259481
0.000253406
0.000247363
0.000241353
0.000235381
0.000229448
0.000432009
0.000426154
0.00042025
0.0004143
0.000408304
0.000402266
0.000396187
0.000390069
0.000383916
0.000377729
0.00037151
0.000365264
0.000358992
0.000352697
0.000346382
0.000340049
0.000333703
0.000327346
0.000320981
0.000314611
0.000308239
0.000301869
0.000295504
0.000289148
0.000282803
0.000276474
0.000270162
0.000263873
0.000257609
0.000251374
0.00024517
0.000239002
0.000232873
0.000226786
0.000434439
0.000428464
0.000422435
0.000416357
0.00041023
0.000404056
0.000397838
0.000391579
0.00038528
0.000378944
0.000372575
0.000366174
0.000359746
0.000353291
0.000346815
0.000340319
0.000333807
0.000327282
0.000320748
0.000314208
0.000307665
0.000301122
0.000294584
0.000288054
0.000281536
0.000275033
0.000268548
0.000262086
0.000255649
0.000249243
0.00024287
0.000236533
0.000230238
0.000223986
0.000437016
0.000430915
0.000424757
0.000418544
0.000412279
0.000405964
0.000399601
0.000393193
0.000386742
0.000380251
0.000373723
0.000367161
0.000360567
0.000353945
0.000347298
0.00034063
0.000333943
0.000327242
0.000320529
0.000313809
0.000307085
0.00030036
0.000293639
0.000286925
0.000280223
0.000273536
0.000266867
0.000260222
0.000253603
0.000247015
0.000240461
0.000233947
0.000227474
0.000221048
0.000439742
0.00043351
0.000427217
0.000420866
0.000414458
0.000407995
0.000401481
0.000394917
0.000388307
0.000381653
0.000374959
0.000368227
0.00036146
0.000354662
0.000347837
0.000340987
0.000334116
0.000327229
0.000320328
0.000313418
0.000306503
0.000299586
0.000292671
0.000285764
0.000278867
0.000271985
0.000265122
0.000258282
0.00025147
0.00024469
0.000237946
0.000231243
0.000224583
0.000217972
0.000442621
0.000436255
0.000429822
0.000423326
0.000416769
0.000410153
0.000403481
0.000396756
0.000389979
0.000383155
0.000376287
0.000369377
0.000362429
0.000355447
0.000348434
0.000341394
0.00033433
0.000327247
0.000320149
0.000313039
0.000305922
0.000298802
0.000291684
0.000284571
0.000277469
0.000270382
0.000263314
0.000256269
0.000249253
0.00024227
0.000235325
0.000228421
0.000221564
0.000214758
0.000445658
0.000439151
0.000432574
0.000425929
0.000419218
0.000412443
0.000405607
0.000398713
0.000391763
0.000384762
0.000377712
0.000370617
0.00036348
0.000356305
0.000349095
0.000341855
0.000334589
0.000327301
0.000319995
0.000312675
0.000305346
0.000298013
0.00029068
0.000283352
0.000276033
0.000268729
0.000261445
0.000254184
0.000246953
0.000239756
0.000232597
0.000225483
0.000218417
0.000211405
0.000448855
0.000442205
0.000435479
0.000428679
0.000421808
0.000414869
0.000407863
0.000400794
0.000393665
0.000386479
0.00037924
0.000371951
0.000364617
0.00035724
0.000349825
0.000342376
0.000334898
0.000327394
0.00031987
0.00031233
0.000304779
0.000297221
0.000289663
0.000282108
0.000274562
0.00026703
0.000259517
0.000252029
0.000244571
0.000237147
0.000229765
0.000222428
0.000215142
0.000207912
0.000452218
0.00044542
0.00043854
0.000431582
0.000424546
0.000417436
0.000410254
0.000403003
0.000395688
0.000388311
0.000380875
0.000373385
0.000365844
0.000358257
0.000350628
0.000342961
0.000335261
0.000327532
0.000319779
0.000312008
0.000304224
0.000296431
0.000288635
0.000280842
0.000273057
0.000265285
0.000257532
0.000249805
0.000242107
0.000234446
0.000226827
0.000219256
0.000211738
0.000204279
0.00045575
0.000448801
0.000441763
0.000434641
0.000427435
0.000420149
0.000412785
0.000405348
0.000397839
0.000390263
0.000382623
0.000374923
0.000367168
0.000359362
0.000351509
0.000343614
0.000335682
0.000327718
0.000319727
0.000311714
0.000303685
0.000295646
0.000287601
0.000279558
0.000271521
0.000263498
0.000255493
0.000247513
0.000239564
0.000231653
0.000223785
0.000215967
0.000208205
0.000200504
0.000459456
0.000452351
0.000445152
0.000437862
0.000430481
0.000423014
0.000415463
0.000407831
0.000400122
0.00039234
0.000384489
0.000376572
0.000368595
0.00036056
0.000352475
0.000344342
0.000336169
0.000327959
0.000319718
0.000311452
0.000303167
0.000294869
0.000286564
0.000278259
0.000269959
0.00026167
0.000253401
0.000245156
0.000236943
0.000228769
0.00022064
0.000212562
0.000204543
0.000196588
0.000463339
0.000456077
0.000448712
0.000441249
0.000433689
0.000426036
0.000418291
0.00041046
0.000402545
0.00039455
0.000386479
0.000378337
0.000370128
0.000361857
0.00035353
0.00034515
0.000336724
0.000328258
0.000319757
0.000311227
0.000302674
0.000294106
0.000285528
0.000276948
0.000268371
0.000259806
0.000251258
0.000242736
0.000234245
0.000225795
0.00021739
0.00020904
0.00020075
0.000192529
0.000467405
0.000459981
0.000452448
0.000444808
0.000437065
0.00042922
0.000421277
0.000413239
0.000405111
0.000396897
0.000388599
0.000380224
0.000371776
0.000363259
0.00035468
0.000346043
0.000337355
0.000328621
0.000319848
0.000311043
0.000302211
0.00029336
0.000284497
0.000275629
0.000266763
0.000257906
0.000249067
0.000240253
0.000231472
0.000222731
0.000214038
0.000205401
0.000196828
0.000188326
0.000471657
0.000464069
0.000456364
0.000448544
0.000440612
0.000432571
0.000424425
0.000416176
0.000407828
0.000399387
0.000390855
0.000382239
0.000373542
0.000364771
0.000355931
0.000347027
0.000338066
0.000329054
0.000319999
0.000310905
0.000301782
0.000292636
0.000283474
0.000274305
0.000265136
0.000255976
0.000246831
0.000237712
0.000228625
0.000219579
0.000210584
0.000201646
0.000192775
0.000183978
0.000476101
0.000468346
0.000460465
0.000452461
0.000444338
0.000436096
0.00042774
0.000419274
0.000410701
0.000402026
0.000393253
0.000384388
0.000375435
0.0003664
0.000357289
0.000348108
0.000338864
0.000329563
0.000320212
0.00031082
0.000301392
0.000291938
0.000282465
0.000272981
0.000263495
0.000254016
0.000244552
0.000235112
0.000225706
0.000216341
0.000207027
0.000197774
0.00018859
0.000179485
0.000480739
0.000472815
0.000464756
0.000456566