/*--------------------------------*- C++ -*----------------------------------*\
| =========                 |                                                 |
| \\      /  F ield         | OpenFOAM: The Open Source CFD Toolbox           |
|  \\    /   O peration     | Version:  2412                                  |
|   \\  /    A nd           | Website:  www.openfoam.com                      |
|    \\/     M anipulation  |                                                 |
\*---------------------------------------------------------------------------*/
FoamFile
{
    version     2.0;
    format      ascii;
    arch        "LSB;label=32;scalar=64";
    class       volVectorField;
    location    "25";
    object      vorticity;
}
// * * * * * * * * * * * * * * * * * * * * * * * * * * * * * * * * * * * * * //

dimensions      [0 0 -1 0 0 0 0];

internalField   nonuniform List<vector> 
5285
(
(0 1.37912e-23 -9.61669e-06)
(0 -0 -7.33589e-06)
(0 -0 -6.139e-06)
(0 -0 -5.25991e-06)
(0 -0 -4.57899e-06)
(0 -0 -3.85172e-06)
(0 -0 -3.08961e-06)
(0 -0 -2.23105e-06)
(0 -0 -1.21531e-06)
(0 -0 2.29167e-08)
(0 -0 1.5562e-06)
(0 -0 3.46524e-06)
(0 -0 5.83873e-06)
(0 -0 8.77176e-06)
(0 -0 1.23631e-05)
(0 -0 1.67109e-05)
(0 -0 2.19067e-05)
(0 -0 2.80287e-05)
(0 -0 3.51345e-05)
(0 -0 4.32585e-05)
(0 -0 5.2427e-05)
(0 -0 6.27219e-05)
(0 -0 7.42976e-05)
(0 -0 8.68321e-05)
(0 1.42975e-22 -8.54967e-06)
(0 -0 -8.11336e-06)
(0 -0 -7.50479e-06)
(0 -0 -7.13021e-06)
(0 -0 -6.61112e-06)
(0 -0 -5.98083e-06)
(0 -0 -5.2846e-06)
(0 -0 -4.47477e-06)
(0 -0 -3.49817e-06)
(0 -0 -2.29412e-06)
(0 -0 -7.9305e-07)
(0 -0 1.08365e-06)
(0 -0 3.42314e-06)
(0 -0 6.31922e-06)
(0 -0 9.86966e-06)
(0 -0 1.41716e-05)
(0 -0 1.9316e-05)
(0 -0 2.53803e-05)
(0 -0 3.24214e-05)
(0 -0 4.04734e-05)
(0 -0 4.95636e-05)
(0 -0 5.97791e-05)
(0 -0 7.12776e-05)
(0 -0 8.37538e-05)
(0 -1.28562e-22 -8.13417e-06)
(0 -0 -8.43747e-06)
(0 -0 -8.5031e-06)
(0 -0 -8.48302e-06)
(0 -0 -8.19927e-06)
(0 -0 -7.73064e-06)
(0 -0 -7.15166e-06)
(0 -0 -6.4309e-06)
(0 -0 -5.52608e-06)
(0 -0 -4.38383e-06)
(0 -0 -2.93983e-06)
(0 -0 -1.11957e-06)
(0 -0 1.16067e-06)
(0 -0 3.99182e-06)
(0 -0 7.4691e-06)
(0 -0 1.16872e-05)
(0 -0 1.6735e-05)
(0 -0 2.26877e-05)
(0 -0 2.96008e-05)
(0 -0 3.7507e-05)
(0 -0 4.64344e-05)
(0 -0 5.64762e-05)
(0 -0 6.78053e-05)
(0 -0 8.01466e-05)
(0 1.74929e-23 -8.35339e-06)
(0 -0 -9.14089e-06)
(0 -0 -9.42823e-06)
(0 -0 -9.6146e-06)
(0 -0 -9.49926e-06)
(0 -0 -9.16476e-06)
(0 -0 -8.69394e-06)
(0 -0 -8.06156e-06)
(0 -0 -7.23171e-06)
(0 -0 -6.15647e-06)
(0 -0 -4.7764e-06)
(0 -0 -3.02139e-06)
(0 -0 -8.11762e-07)
(0 -0 1.93967e-06)
(0 -0 5.32437e-06)
(0 -0 9.43358e-06)
(0 -0 1.43525e-05)
(0 -0 2.01535e-05)
(0 -0 2.68889e-05)
(0 -0 3.45898e-05)
(0 -0 4.32848e-05)
(0 -0 5.30738e-05)
(0 -0 6.41471e-05)
(0 -0 7.62258e-05)
(0 3.02516e-22 -8.98761e-06)
(0 -0 -1.01518e-05)
(0 -0 -1.04793e-05)
(0 -0 -1.07361e-05)
(0 -0 -1.06967e-05)
(0 -0 -1.04357e-05)
(0 -0 -1.00338e-05)
(0 -0 -9.46441e-06)
(0 -0 -8.69295e-06)
(0 -0 -7.67413e-06)
(0 -0 -6.35186e-06)
(0 -0 -4.65961e-06)
(0 -0 -2.52174e-06)
(0 -0 1.448e-07)
(0 -0 3.42702e-06)
(0 -0 7.41184e-06)
(0 -0 1.21799e-05)
(0 -0 1.77994e-05)
(0 -0 2.43191e-05)
(0 -0 3.17672e-05)
(0 -0 4.01724e-05)
(0 -0 4.96416e-05)
(0 -0 6.03828e-05)
(0 -0 7.21201e-05)
(0 -3.02434e-22 -9.6929e-06)
(0 -0 -1.13389e-05)
(0 -0 -1.1637e-05)
(0 -0 -1.18891e-05)
(0 -0 -1.18584e-05)
(0 -0 -1.16155e-05)
(0 -0 -1.12383e-05)
(0 -0 -1.06967e-05)
(0 -0 -9.95554e-06)
(0 -0 -8.97054e-06)
(0 -0 -7.68771e-06)
(0 -0 -6.04356e-06)
(0 -0 -3.96628e-06)
(0 -0 -1.3773e-06)
(0 -0 1.80554e-06)
(0 -0 5.66387e-06)
(0 -0 1.02732e-05)
(0 -0 1.56963e-05)
(0 -0 2.19776e-05)
(0 -0 2.91418e-05)
(0 -0 3.72169e-05)
(0 -0 4.63169e-05)
(0 -0 5.66683e-05)
(0 -0 6.79975e-05)
(0 -7.22055e-22 -1.02057e-05)
(0 -0 -1.25121e-05)
(0 -0 -1.2768e-05)
(0 -0 -1.29834e-05)
(0 -0 -1.29211e-05)
(0 -0 -1.2654e-05)
(0 -0 -1.22599e-05)
(0 -0 -1.17068e-05)
(0 -0 -1.09587e-05)
(0 -0 -9.97241e-06)
(0 -0 -8.69585e-06)
(0 -0 -7.06872e-06)
(0 -0 -5.02313e-06)
(0 -0 -2.4855e-06)
(0 -0 6.20841e-07)
(0 -0 4.37141e-06)
(0 -0 8.83559e-06)
(0 -0 1.407e-05)
(0 -0 2.01133e-05)
(0 -0 2.6986e-05)
(0 -0 3.47148e-05)
(0 -0 4.34209e-05)
(0 -0 5.33499e-05)
(0 -0 6.42315e-05)
(0 7.70683e-22 -1.03319e-05)
(0 -0 -1.35049e-05)
(0 -0 -1.37203e-05)
(0 -0 -1.3883e-05)
(0 -0 -1.37603e-05)
(0 -0 -1.34318e-05)
(0 -0 -1.29783e-05)
(0 -0 -1.23669e-05)
(0 -0 -1.15629e-05)
(0 -0 -1.05244e-05)
(0 -0 -9.20205e-06)
(0 -0 -7.53925e-06)
(0 -0 -5.47285e-06)
(0 -0 -2.93498e-06)
(0 -0 1.44468e-07)
(0 -0 3.83389e-06)
(0 -0 8.19512e-06)
(0 -0 1.32775e-05)
(0 -0 1.91129e-05)
(0 -0 2.57166e-05)
(0 -0 3.31131e-05)
(0 -0 4.14307e-05)
(0 -0 5.09347e-05)
(0 -0 6.13583e-05)
(0 -0 -9.929e-06)
(0 -0 -1.41833e-05)
(0 -0 -1.43506e-05)
(0 -0 -1.44373e-05)
(0 -0 -1.42184e-05)
(0 -0 -1.37822e-05)
(0 -0 -1.3214e-05)
(0 -0 -1.24815e-05)
(0 -0 -1.1552e-05)
(0 -0 -1.03863e-05)
(0 -0 -8.93874e-06)
(0 -0 -7.1575e-06)
(0 -0 -4.98532e-06)
(0 -0 -2.36141e-06)
(0 -0 7.76155e-07)
(0 -0 4.48715e-06)
(0 -0 8.82425e-06)
(0 -0 1.38281e-05)
(0 -0 1.95224e-05)
(0 -0 2.59159e-05)
(0 -0 3.30302e-05)
(0 -0 4.09997e-05)
(0 -0 5.01102e-05)
(0 -0 6.00977e-05)
(0 9.48623e-22 -8.86776e-06)
(0 -0 -1.4419e-05)
(0 -0 -1.45049e-05)
(0 -0 -1.44677e-05)
(0 -0 -1.4092e-05)
(0 -0 -1.34758e-05)
(0 -0 -1.27088e-05)
(0 -0 -1.17605e-05)
(0 -0 -1.06007e-05)
(0 -0 -9.19434e-06)
(0 -0 -7.5006e-06)
(0 -0 -5.47379e-06)
(0 -0 -3.0645e-06)
(0 -0 -2.21256e-07)
(0 -0 3.10761e-06)
(0 -0 6.97083e-06)
(0 -0 1.14102e-05)
(0 -0 1.64558e-05)
(0 -0 2.21217e-05)
(0 -0 2.84082e-05)
(0 -0 3.53329e-05)
(0 -0 4.30353e-05)
(0 -0 5.18221e-05)
(0 -0 6.14306e-05)
(0 -1.88486e-21 -6.99276e-06)
(0 -0 -1.40512e-05)
(0 -0 -1.39835e-05)
(0 -0 -1.37333e-05)
(0 -0 -1.30967e-05)
(0 -0 -1.21817e-05)
(0 -0 -1.1083e-05)
(0 -0 -9.7712e-06)
(0 -0 -8.22014e-06)
(0 -0 -6.39974e-06)
(0 -0 -4.2757e-06)
(0 -0 -1.81088e-06)
(0 -0 1.03339e-06)
(0 -0 4.29609e-06)
(0 -0 8.01501e-06)
(0 -0 1.22253e-05)
(0 -0 1.69554e-05)
(0 -0 2.22229e-05)
(0 -0 2.80301e-05)
(0 -0 3.43672e-05)
(0 -0 4.12455e-05)
(0 -0 4.88087e-05)
(0 -0 5.73833e-05)
(0 -0 6.67074e-05)
(0 2.08463e-21 -4.07945e-06)
(0 -0 -1.28399e-05)
(0 -0 -1.249e-05)
(0 -0 -1.1876e-05)
(0 -0 -1.08081e-05)
(0 -0 -9.40471e-06)
(0 -0 -7.76473e-06)
(0 -0 -5.86049e-06)
(0 -0 -3.67087e-06)
(0 -0 -1.17281e-06)
(0 -0 1.65857e-06)
(0 -0 4.84853e-06)
(0 -0 8.42035e-06)
(0 -0 1.23945e-05)
(0 -0 1.67905e-05)
(0 -0 2.1627e-05)
(0 -0 2.6917e-05)
(0 -0 3.26632e-05)
(0 -0 3.88536e-05)
(0 -0 4.54657e-05)
(0 -0 5.25014e-05)
(0 -0 6.01065e-05)
(0 -0 6.86261e-05)
(0 -0 7.77967e-05)
(0 -1.06498e-21 2.20245e-07)
(0 -0 -1.04029e-05)
(0 -0 -9.56028e-06)
(0 -0 -8.3419e-06)
(0 -0 -6.57461e-06)
(0 -0 -4.38716e-06)
(0 -0 -1.88228e-06)
(0 -0 9.64885e-07)
(0 -0 4.16783e-06)
(0 -0 7.73876e-06)
(0 -0 1.1689e-05)
(0 -0 1.60261e-05)
(0 -0 2.07493e-05)
(0 -0 2.58501e-05)
(0 -0 3.13258e-05)
(0 -0 3.71768e-05)
(0 -0 4.33994e-05)
(0 -0 4.99791e-05)
(0 -0 5.68858e-05)
(0 -0 6.40796e-05)
(0 -0 7.15483e-05)
(0 -0 7.9436e-05)
(0 -0 8.81045e-05)
(0 -0 9.72853e-05)
(0 3.60326e-23 6.45647e-06)
(0 -0 -6.12327e-06)
(0 -0 -4.45895e-06)
(0 -0 -2.26645e-06)
(0 -0 6.11123e-07)
(0 -0 4.03481e-06)
(0 -0 7.89701e-06)
(0 -0 1.22159e-05)
(0 -0 1.69919e-05)
(0 -0 2.222e-05)
(0 -0 2.78905e-05)
(0 -0 3.39842e-05)
(0 -0 4.04605e-05)
(0 -0 4.72602e-05)
(0 -0 5.43623e-05)
(0 -0 6.17544e-05)
(0 -0 6.94161e-05)
(0 -0 7.73104e-05)
(0 -0 8.53813e-05)
(0 -0 9.3563e-05)
(0 -0 0.000101823)
(0 -0 0.000110297)
(0 -0 0.000119361)
(0 -0 0.000128737)
(0 3.86475e-23 1.5509e-05)
(0 -0 9.90946e-07)
(0 -0 3.97051e-06)
(0 -0 7.69279e-06)
(0 -0 1.23025e-05)
(0 -0 1.76476e-05)
(0 -0 2.36086e-05)
(0 -0 3.01876e-05)
(0 -0 3.73611e-05)
(0 -0 4.50961e-05)
(0 -0 5.33517e-05)
(0 -0 6.20687e-05)
(0 -0 7.11319e-05)
(0 -0 8.03811e-05)
(0 -0 8.98267e-05)
(0 -0 9.94639e-05)
(0 -0 0.000109247)
(0 -0 0.000119101)
(0 -0 0.000128927)
(0 -0 0.00013862)
(0 -0 0.000148115)
(0 -0 0.000157537)
(0 -0 0.000167269)
(0 -0 0.000177024)
(0 2.80481e-21 2.87434e-05)
(0 -0 1.24139e-05)
(0 -0 1.73875e-05)
(0 -0 2.34474e-05)
(0 -0 3.07107e-05)
(0 -0 3.899e-05)
(0 -0 4.8133e-05)
(0 -0 5.81068e-05)
(0 -0 6.88472e-05)
(0 -0 8.02774e-05)
(0 -0 9.23136e-05)
(0 -0 0.000104841)
(0 -0 0.000117601)
(0 -0 0.0001306)
(0 -0 0.000143278)
(0 -0 0.00015611)
(0 -0 0.000168943)
(0 -0 0.000181615)
(0 -0 0.000193955)
(0 -0 0.000205802)
(0 -0 0.000217053)
(0 -0 0.000227814)
(0 -0 0.000238478)
(0 -0 0.000248736)
(0 -5.7808e-21 4.77674e-05)
(0 -0 3.01425e-05)
(0 -0 3.79813e-05)
(0 -0 4.75587e-05)
(0 -0 5.88224e-05)
(0 -0 7.14831e-05)
(0 -0 8.53189e-05)
(0 -0 0.000100237)
(0 -0 0.00011611)
(0 -0 0.0001328)
(0 -0 0.00015017)
(0 -0 0.000168075)
(0 -0 0.000186504)
(0 -0 0.000204188)
(0 -0 0.000222043)
(0 -0 0.000239407)
(0 -0 0.000256549)
(0 -0 0.00027313)
(0 -0 0.000288885)
(0 -0 0.000303594)
(0 -0 0.000317122)
(0 -0 0.000329562)
(0 -0 0.000341312)
(0 -0 0.000352061)
(0 3.06902e-21 7.55399e-05)
(0 -0 5.65588e-05)
(0 -0 6.89984e-05)
(0 -0 8.41881e-05)
(0 -0 0.000101542)
(0 -0 0.000120691)
(0 -0 0.000141346)
(0 -0 0.000163336)
(0 -0 0.000186451)
(0 -0 0.000210468)
(0 -0 0.000235211)
(0 -0 0.000260589)
(0 -0 0.000286045)
(0 -0 0.000311876)
(0 -0 0.000335791)
(0 -0 0.000358961)
(0 -0 0.000382094)
(0 -0 0.000403779)
(0 -0 0.000423804)
(0 -0 0.000441948)
(0 -0 0.000458074)
(0 -0 0.000472278)
(0 -0 0.000484992)
(0 -0 0.000495874)
(0 -0 0.000467394)
(0 -0 0.000500103)
(0 -0 0.000531406)
(0 -0 0.000560346)
(0 -0 0.00058805)
(0 -0 0.000612861)
(0 -0 0.00063464)
(0 -0 0.000653272)
(0 -0 0.000668879)
(0 -0 0.000681925)
(0 -0 0.000692176)
(-2.99285e-22 -9.12678e-21 1.61296e-05)
(-3.00646e-22 -9.13072e-21 1.40134e-05)
(-5.50772e-22 -1.82062e-20 1.07479e-05)
(9.68781e-22 3.61376e-20 6.66578e-06)
(-9.28497e-22 -3.57514e-20 2.24135e-06)
(-2.43474e-21 -1.06585e-19 -1.01667e-06)
(5.22369e-22 1.74472e-20 -2.30782e-06)
(-3.17286e-22 -9.11211e-21 8.47751e-06)
(-6.32887e-22 -1.8251e-20 8.51278e-06)
(-1.6644e-21 -5.46002e-20 7.69957e-06)
(-5.56096e-22 -1.81454e-20 6.01917e-06)
(1.0673e-21 3.58506e-20 4.83062e-06)
(1.35755e-21 5.32495e-20 7.13316e-06)
(3.37684e-21 1.58966e-19 2.04424e-05)
(1.42132e-23 -1.58134e-23 -5.06939e-08)
(-3.14053e-22 -9.26099e-21 1.70132e-06)
(2.21329e-21 7.26615e-20 2.56701e-06)
(6.66694e-23 -9.96716e-23 3.05195e-06)
(3.76073e-21 1.4431e-19 5.01935e-06)
(6.88863e-22 1.81526e-20 1.39599e-05)
(-3.24937e-21 -1.41778e-19 4.37029e-05)
(3.38633e-22 9.11336e-21 -8.77438e-06)
(3.07455e-22 9.19845e-21 -5.78564e-06)
(-4.65375e-21 -1.45876e-19 -3.46207e-06)
(5.80387e-22 1.82877e-20 -1.10962e-06)
(-8.2025e-21 -2.89506e-19 4.02081e-06)
(6.90073e-21 2.69702e-19 2.05424e-05)
(8.62281e-22 1.81379e-20 6.8802e-05)
(3.31289e-22 9.14758e-21 -1.75415e-05)
(-3.59545e-22 -9.36821e-21 -1.35065e-05)
(1.06154e-20 3.09886e-19 -9.96242e-06)
(2.36645e-22 1.80273e-22 -5.91922e-06)
(3.91126e-21 1.27056e-19 2.48047e-06)
(-7.13324e-21 -2.70667e-19 2.76428e-05)
(6.42685e-21 2.69582e-19 9.66431e-05)
(-3.90089e-22 -9.12307e-21 -2.63665e-05)
(-3.3462e-22 -9.02813e-21 -2.14211e-05)
(-5.33453e-21 -1.46149e-19 -1.68023e-05)
(9.40182e-21 2.91823e-19 -1.11528e-05)
(4.45333e-22 1.81487e-20 7.24523e-07)
(7.45442e-21 2.72816e-19 3.57646e-05)
(-7.73716e-21 -2.70552e-19 0.000127967)
(-1.17156e-21 -2.73313e-20 -3.53771e-05)
(-1.06179e-21 -2.74194e-20 -2.95964e-05)
(1.97872e-22 5.22572e-22 -2.39867e-05)
(-1.90166e-20 -5.48005e-19 -1.67488e-05)
(-6.25685e-22 -1.8091e-20 -1.09461e-06)
(-1.69345e-20 -6.00783e-19 4.52641e-05)
(-1.43515e-20 -5.65579e-19 0.000163436)
(1.21587e-21 2.72673e-20 -4.47273e-05)
(5.4697e-22 9.13398e-21 -3.8153e-05)
(1.05108e-21 1.80182e-20 -3.15994e-05)
(1.08789e-20 2.92617e-19 -2.27475e-05)
(-1.12313e-23 -7.40704e-22 -2.94183e-06)
(2.60502e-20 8.4231e-19 5.63907e-05)
(1.72001e-20 6.04692e-19 0.000203645)
(3.84255e-22 9.01295e-21 -5.45909e-05)
(5.11373e-21 1.18684e-19 -4.72375e-05)
(1.25724e-20 3.11953e-19 -3.97646e-05)
(-5.46219e-22 -1.80207e-20 -2.92449e-05)
(6.20907e-22 1.91171e-20 -4.84903e-06)
(-2.03801e-20 -5.88443e-19 6.93368e-05)
(1.65015e-22 -7.48563e-22 0.000249167)
(1.83853e-24 1.77079e-22 -6.51272e-05)
(-7.5956e-21 -1.64198e-19 -5.69931e-05)
(-1.24693e-20 -2.93816e-19 -4.86128e-05)
(1.29688e-20 3.31279e-19 -3.63552e-05)
(-2.24215e-21 -3.56607e-20 -6.87254e-06)
(-1.96109e-20 -5.94218e-19 8.42851e-05)
(1.72866e-20 6.12611e-19 0.000300598)
(4.33424e-22 9.34247e-21 -7.6412e-05)
(-7.16773e-21 -1.55884e-19 -6.75245e-05)
(3.44422e-22 2.20246e-22 -5.82575e-05)
(-1.23168e-20 -2.93811e-19 -4.41841e-05)
(-2.21937e-20 -5.9387e-19 -9.0633e-06)
(1.12051e-21 -1.92362e-20 0.000101444)
(-3.63685e-20 -1.17813e-18 0.000358604)
(-3.77129e-22 -9.3249e-21 -8.85661e-05)
(6.84705e-21 1.37285e-19 -7.8936e-05)
(5.59258e-23 1.23757e-22 -6.8797e-05)
(1.40053e-21 -8.36928e-22 -5.28169e-05)
(2.38287e-20 6.10649e-19 -1.14454e-05)
(4.12263e-20 1.17717e-18 0.000121081)
(4.15774e-20 1.22659e-18 0.000423956)
(3.88789e-21 7.31917e-20 -0.000101685)
(-1.57668e-22 8.81374e-23 -9.13112e-05)
(5.10722e-22 -9.13613e-22 -8.03023e-05)
(2.53839e-20 5.95431e-19 -6.23051e-05)
(-2.46497e-20 -5.76801e-19 -1.39943e-05)
(-4.77819e-20 -1.22309e-18 0.000143554)
(-2.26053e-20 -6.08718e-19 0.000497577)
(-8.85583e-21 -1.55493e-19 -0.000115826)
(4.61944e-22 8.4661e-21 -0.000104697)
(1.57444e-20 3.16724e-19 -9.28006e-05)
(-5.49482e-20 -1.19124e-18 -7.26429e-05)
(2.64282e-20 5.96196e-19 -1.66085e-05)
(2.54125e-20 5.68204e-19 0.000169353)
(1.79672e-21 2.0362e-20 0.000580605)
(5.12962e-21 8.23453e-20 -0.000131026)
(-1.56614e-21 -2.70775e-20 -0.000119097)
(-1.58567e-20 -2.79682e-19 -0.000106254)
(5.85617e-20 1.19428e-18 -8.37423e-05)
(-1.00304e-21 7.44792e-22 -1.9073e-05)
(2.57873e-20 5.91616e-19 0.00019917)
(3.42212e-21 2.11132e-20 0.000674482)
(3.91874e-21 6.42328e-20 -0.000147296)
(9.29521e-23 -8.08453e-21 -0.00013444)
(-2.97791e-20 -5.74383e-19 -0.000120517)
(-6.18158e-20 -1.18126e-18 -9.53959e-05)
(1.22884e-21 -3.35243e-21 -2.10074e-05)
(2.15293e-20 5.938e-19 0.000233987)
(4.53651e-20 1.24679e-18 0.000781098)
(-4.23003e-21 -6.45726e-20 -0.0001646)
(1.69308e-20 2.84545e-19 -0.000150501)
(6.98066e-20 1.20963e-18 -0.000135204)
(3.28118e-20 5.82806e-19 -0.000107168)
(2.85523e-20 6.16349e-19 -2.17126e-05)
(-1.13016e-19 -2.48042e-18 0.000275369)
(-1.03819e-19 -2.49484e-18 0.000902679)
(-4.87417e-22 -8.11121e-21 -0.00018276)
(-3.87874e-20 -6.0065e-19 -0.000167299)
(-3.74691e-20 -5.97634e-19 -0.000150252)
(-1.05082e-21 1.34981e-21 -0.000118416)
(-6.29285e-20 -1.20741e-18 -2.0022e-05)
(6.59026e-20 1.21627e-18 0.00032519)
(6.04861e-20 1.28619e-18 0.0010426)
(6.39556e-22 8.73867e-21 -0.000201913)
(1.95678e-20 2.68532e-19 -0.000184557)
(9.64446e-22 1.91664e-20 -0.000165341)
(-1.48851e-21 -1.68211e-21 -0.000128794)
(3.3295e-20 6.29498e-19 -1.477e-05)
(6.67307e-20 1.21801e-18 0.000386756)
(-1.96346e-21 2.23749e-20 0.00120582)
(-6.95464e-22 -9.93565e-21 -0.000220061)
(2.17441e-20 3.08849e-19 -0.000201783)
(7.54414e-22 1.72356e-20 2.52164e-05)
(1.57562e-21 3.50017e-20 2.40767e-05)
(4.2229e-23 -3.37235e-23 2.2326e-05)
(1.43674e-21 3.57612e-20 2.07869e-05)
(7.32359e-22 1.80794e-20 1.95267e-05)
(1.01935e-21 2.72578e-20 1.85669e-05)
(-3.22961e-22 -9.08768e-21 1.74726e-05)
(-5.81096e-21 -1.21238e-19 7.93827e-06)
(-3.9169e-21 -8.76256e-20 7.57562e-06)
(3.11203e-21 7.09879e-20 6.96325e-06)
(-7.43252e-22 -1.79244e-20 6.49032e-06)
(2.25073e-21 5.41947e-20 6.59466e-06)
(7.27902e-22 1.82116e-20 7.13668e-06)
(3.33814e-22 9.12914e-21 7.87635e-06)
(6.65081e-21 1.39053e-19 -4.97252e-06)
(7.58122e-22 1.7675e-20 -5.84786e-06)
(-9.72674e-21 -2.13301e-19 -6.64719e-06)
(-1.79331e-23 4.38985e-24 -6.67618e-06)
(-2.94467e-21 -7.21107e-20 -5.77945e-06)
(-3.67164e-22 -8.99938e-21 -4.1657e-06)
(-7.03757e-22 -1.81931e-20 -2.156e-06)
(8.09737e-22 1.757e-20 -1.69127e-05)
(-1.4977e-20 -3.0045e-19 -1.78601e-05)
(1.34916e-20 2.84937e-19 -1.89066e-05)
(7.96856e-22 1.79789e-20 -1.87788e-05)
(6.28845e-21 1.44688e-19 -1.73932e-05)
(-2.62218e-21 -6.33951e-20 -1.50264e-05)
(-3.4043e-22 -9.16565e-21 -1.20427e-05)
(-1.60495e-20 -2.99001e-19 -2.92018e-05)
(1.50823e-20 3.00982e-19 -2.95077e-05)
(-7.82821e-21 -1.60512e-19 -3.06243e-05)
(-1.10919e-22 5.231e-23 -3.03051e-05)
(-1.22787e-20 -2.7107e-19 -2.8504e-05)
(-4.0335e-22 -9.22942e-21 -2.55148e-05)
(1.11761e-21 2.72646e-20 -2.1736e-05)
(1.6404e-20 3.00091e-19 -4.2469e-05)
(-1.63379e-20 -3.02507e-19 -4.14649e-05)
(9.43008e-22 1.79548e-20 -4.24156e-05)
(-1.4245e-20 -2.88258e-19 -4.17622e-05)
(6.79089e-21 1.44457e-19 -3.94969e-05)
(-3.75046e-21 -8.16439e-20 -3.58895e-05)
(-3.81018e-22 -9.13576e-21 -3.1382e-05)
(3.43523e-20 5.86091e-19 -5.7102e-05)
(3.04782e-20 5.53546e-19 -5.41277e-05)
(-9.50535e-22 -1.80793e-20 -5.46785e-05)
(3.15111e-20 6.12744e-19 -5.3523e-05)
(-1.04334e-22 3.2172e-22 -5.06911e-05)
(2.11021e-21 4.52847e-20 -4.6408e-05)
(2.0496e-21 4.55894e-20 -4.1171e-05)
(2.4407e-21 1.91955e-20 -7.33885e-05)
(-5.22363e-20 -8.96032e-19 -6.77556e-05)
(5.57346e-23 -2.42602e-22 -6.77122e-05)
(-1.54362e-20 -2.8853e-19 -6.5892e-05)
(7.47424e-22 1.79352e-20 -6.22907e-05)
(2.62187e-22 9.14008e-21 -5.72621e-05)
(-2.12151e-21 -4.54758e-20 -5.12827e-05)
(1.38638e-21 7.83675e-22 -9.15872e-05)
(3.46602e-20 5.7491e-19 -8.25428e-05)
(1.01021e-21 1.83016e-20 -8.17225e-05)
(-1.05641e-21 -1.78433e-20 -7.91103e-05)
(-1.47345e-20 -2.72017e-19 -7.45953e-05)
(-8.90102e-21 -1.7295e-19 -6.87456e-05)
(4.89487e-22 8.94519e-21 -6.19339e-05)
(-3.54717e-20 -5.58876e-19 -0.000111955)
(3.70573e-20 5.78136e-19 -9.86461e-05)
(-1.82727e-21 -3.5712e-20 -9.68064e-05)
(-1.49771e-20 -2.54049e-19 -9.3152e-05)
(1.60277e-20 2.89654e-19 -8.77122e-05)
(6.8679e-21 1.27283e-19 -8.09905e-05)
(1.07054e-24 1.03682e-22 -7.32986e-05)
(4.14085e-20 5.98947e-19 -0.000134762)
(-4.39996e-22 -1.69405e-20 -0.000116233)
(3.73354e-20 5.8048e-19 -0.000113163)
(1.79614e-20 2.90202e-19 -0.000108282)
(-2.15029e-22 8.64914e-23 -0.000101762)
(7.53838e-21 1.36564e-19 -9.39816e-05)
(4.83992e-22 9.21893e-21 -8.53921e-05)
(-8.19901e-20 -1.14783e-18 -0.000160299)
(-8.08227e-20 -1.18302e-18 -0.000135473)
(-3.6429e-20 -5.64004e-19 -0.000130951)
(3.66453e-20 5.81864e-19 -0.000124722)
(-5.06485e-23 6.78713e-22 -0.000116933)
(-8.97212e-21 -1.54445e-19 -0.000107954)
(-6.15457e-22 -9.23663e-21 -9.83805e-05)
(4.33158e-20 5.85186e-19 -0.000188871)
(8.32302e-20 1.15073e-18 -0.000156524)
(4.25923e-20 6.03873e-19 -0.000150276)
(-7.69782e-20 -1.16456e-18 -0.000142453)
(-2.98627e-22 -9.81575e-22 -0.000133217)
(1.606e-22 8.0369e-23 -0.000123003)
(-4.1271e-21 -7.31754e-20 -0.00011237)
(1.1385e-21 1.89596e-20 -0.000220805)
(-4.71804e-20 -6.22376e-19 -0.000179547)
(-4.18468e-20 -5.85767e-19 -0.000171265)
(8.1157e-20 1.16702e-18 -0.0001616)
(-1.83096e-20 -2.72675e-19 -0.000150746)
(5.3272e-22 8.66347e-21 -0.000139174)
(8.25879e-21 1.37165e-19 -0.000127416)
(6.17689e-22 1.92842e-20 -0.000256455)
(-4.92529e-20 -6.08437e-19 -0.000204708)
(4.53897e-22 6.12893e-22 -0.000194045)
(-8.49993e-20 -1.16994e-18 -0.000182263)
(2.21768e-20 3.08576e-19 -0.000169594)
(-1.44443e-21 -2.69591e-20 -0.000156527)
(-4.21429e-21 -6.40032e-20 -0.000143569)
(-1.02918e-19 -1.19433e-18 -0.000296199)
(-5.13757e-20 -6.13943e-19 -0.000232174)
(6.43849e-23 -1.96277e-21 -0.00021873)
(9.13044e-20 1.18949e-18 -0.000204511)
(4.31229e-20 6.04919e-19 -0.000189813)
(1.9305e-20 2.84514e-19 -0.000175125)
(-5.35957e-21 -8.21363e-20 -0.000160879)
(2.17144e-19 2.41684e-18 -0.000340102)
(2.03685e-19 2.36151e-18 -0.00026214)
(6.96437e-22 2.7911e-21 -0.000245421)
(-4.84946e-20 -6.03221e-19 -0.000228371)
(-8.79981e-20 -1.15286e-18 -0.000211445)
(-4.32191e-20 -5.95974e-19 -0.000195063)
(5.70006e-21 8.15407e-20 -0.000179404)
(-1.10909e-19 -1.18525e-18 -0.000387684)
(-1.10883e-19 -1.2123e-18 -0.000293685)
(5.38975e-20 6.10325e-19 -0.000274302)
(6.26566e-22 -9.04357e-23 -0.000253866)
(4.72565e-20 5.85233e-19 -0.000234095)
(2.18541e-20 2.84165e-19 -0.000215985)
(-7.90096e-22 -8.72337e-21 -0.000199231)
(2.76819e-21 2.01964e-20 -0.000440997)
(-1.22307e-19 -1.23722e-18 -0.000327716)
(-5.20074e-20 -5.75981e-19 -0.000304008)
(9.20863e-22 -8.54501e-22 -0.000280973)
(1.69413e-21 1.84172e-20 -0.0002583)
(-2.62251e-21 -2.74506e-20 -0.000237217)
(7.11237e-22 9.10258e-21 -0.000218817)
(2.18629e-22 1.02142e-20 -0.000260094)
(-7.64999e-22 -9.14128e-21 -0.0002391)
(0 -0 2.91276e-05)
(0 -0 2.73745e-05)
(0 -0 2.55486e-05)
(0 -0 2.43511e-05)
(0 -0 2.33812e-05)
(0 -0 2.23688e-05)
(0 -0 2.13176e-05)
(0 -0 2.02287e-05)
(0 -0 1.91037e-05)
(0 -0 1.7945e-05)
(0 -0 1.67559e-05)
(0 -0 1.55408e-05)
(0 -0 1.43053e-05)
(0 -0 1.30559e-05)
(0 -0 1.17999e-05)
(0 -0 1.05456e-05)
(0 -0 9.30178e-06)
(0 -0 8.07761e-06)
(0 -0 6.88246e-06)
(0 -0 5.72559e-06)
(0 -0 4.61592e-06)
(0 -0 3.56171e-06)
(0 -0 2.57033e-06)
(0 -0 1.64807e-06)
(0 -0 8.00097e-07)
(0 -0 3.0881e-08)
(0 -0 -6.54167e-07)
(0 -0 -1.24308e-06)
(0 -0 -1.69941e-06)
(0 -0 -1.90445e-06)
(0 -0 -1.4785e-06)
(0 -0 7.36749e-07)
(0 -0 8.05002e-06)
(0 -9.49141e-25 2.80703e-05)
(0 -0 2.47225e-05)
(0 -0 2.30417e-05)
(0 -0 2.13089e-05)
(0 -0 2.01715e-05)
(0 -0 1.92818e-05)
(0 -0 1.83573e-05)
(0 -0 1.74021e-05)
(0 -0 1.64178e-05)
(0 -0 1.54062e-05)
(0 -0 1.43702e-05)
(0 -0 1.33132e-05)
(0 -0 1.22398e-05)
(0 -0 1.11555e-05)
(0 -0 1.00663e-05)
(0 -0 8.97938e-06)
(0 -0 7.90207e-06)
(0 -0 6.84214e-06)
(0 -0 5.80749e-06)
(0 -0 4.80588e-06)
(0 -0 3.84474e-06)
(0 -0 2.93087e-06)
(0 -0 2.07032e-06)
(0 -0 1.26814e-06)
(0 -0 5.28237e-07)
(0 -0 -1.46484e-07)
(0 -0 -7.5337e-07)
(0 -0 -1.28762e-06)
(0 -0 -1.73438e-06)
(0 -0 -2.04173e-06)
(0 -0 -2.03085e-06)
(0 -0 -1.09754e-06)
(0 -0 2.7687e-06)
(0 -0 1.61608e-05)
(0 8.16044e-24 6.09674e-05)
(0 -0 2.05631e-05)
(0 -0 1.89511e-05)
(0 -0 1.72777e-05)
(0 -0 1.62163e-05)
(0 -0 1.54112e-05)
(0 -0 1.4577e-05)
(0 -0 1.37187e-05)
(0 -0 1.28389e-05)
(0 -0 1.19401e-05)
(0 -0 1.10254e-05)
(0 -0 1.00987e-05)
(0 -0 9.16451e-06)
(0 -0 8.22832e-06)
(0 -0 7.2961e-06)
(0 -0 6.3743e-06)
(0 -0 5.46965e-06)
(0 -0 4.58891e-06)
(0 -0 3.73874e-06)
(0 -0 2.92537e-06)
(0 -0 2.15442e-06)
(0 -0 1.43075e-06)
(0 -0 7.58264e-07)
(0 -0 1.3973e-07)
(0 -0 -4.23208e-07)
(0 -0 -9.29707e-07)
(0 -0 -1.37874e-06)
(0 -0 -1.76588e-06)
(0 -0 -2.07227e-06)
(0 -0 -2.22671e-06)
(0 -0 -1.97603e-06)
(0 -0 -4.37805e-07)
(0 -0 5.44302e-06)
(0 -0 2.6228e-05)
(0 -9.76317e-24 9.91475e-05)
(0 -0 1.66948e-05)
(0 -0 1.51417e-05)
(0 -0 1.3534e-05)
(0 -0 1.25486e-05)
(0 -0 1.18261e-05)
(0 -0 1.10807e-05)
(0 -0 1.0318e-05)
(0 -0 9.54086e-06)
(0 -0 8.75244e-06)
(0 -0 7.95618e-06)
(0 -0 7.15621e-06)
(0 -0 6.35726e-06)
(0 -0 5.56469e-06)
(0 -0 4.78426e-06)
(0 -0 4.02202e-06)
(0 -0 3.28401e-06)
(0 -0 2.57609e-06)
(0 -0 1.9037e-06)
(0 -0 1.27162e-06)
(0 -0 6.83825e-07)
(0 -0 1.43284e-07)
(0 -0 -3.48143e-07)
(0 -0 -7.89842e-07)
(0 -0 -1.18224e-06)
(0 -0 -1.52644e-06)
(0 -0 -1.82292e-06)
(0 -0 -2.06729e-06)
(0 -0 -2.23553e-06)
(0 -0 -2.23382e-06)
(0 -0 -1.72234e-06)
(0 -0 5.03877e-07)
(0 -0 8.6985e-06)
(0 -0 3.78837e-05)
(0 -2.88008e-24 0.000142485)
(0 -0 1.31612e-05)
(0 -0 1.16677e-05)
(0 -0 1.01264e-05)
(0 -0 9.21413e-06)
(0 -0 8.5709e-06)
(0 -0 7.91109e-06)
(0 -0 7.24042e-06)
(0 -0 6.56221e-06)
(0 -0 5.87986e-06)
(0 -0 5.19716e-06)
(0 -0 4.51849e-06)
(0 -0 3.8487e-06)
(0 -0 3.1931e-06)
(0 -0 2.55728e-06)
(0 -0 1.94688e-06)
(0 -0 1.36734e-06)
(0 -0 8.23634e-07)
(0 -0 3.20093e-07)
(0 -0 -1.39841e-07)
(0 -0 -5.53776e-07)
(0 -0 -9.20496e-07)
(0 -0 -1.24009e-06)
(0 -0 -1.51391e-06)
(0 -0 -1.74433e-06)
(0 -0 -1.93433e-06)
(0 -0 -2.08569e-06)
(0 -0 -2.19358e-06)
(0 -0 -2.22801e-06)
(0 -0 -2.06934e-06)
(0 -0 -1.27995e-06)
(0 -0 1.70727e-06)
(0 -0 1.2484e-05)
(0 -0 5.10215e-05)
(0 5.49794e-23 0.000190967)
(0 -0 9.99374e-06)
(0 -0 8.55925e-06)
(0 -0 7.08265e-06)
(0 -0 6.24047e-06)
(0 -0 5.67257e-06)
(0 -0 5.09385e-06)
(0 -0 4.51028e-06)
(0 -0 3.92552e-06)
(0 -0 3.34325e-06)
(0 -0 2.76758e-06)
(0 -0 2.20304e-06)
(0 -0 1.65461e-06)
(0 -0 1.1276e-06)
(0 -0 6.27439e-07)
(0 -0 1.59392e-07)
(0 -0 -2.71671e-07)
(0 -0 -6.61534e-07)
(0 -0 -1.00692e-06)
(0 -0 -1.30564e-06)
(0 -0 -1.55676e-06)
(0 -0 -1.76071e-06)
(0 -0 -1.91938e-06)
(0 -0 -2.03592e-06)
(0 -0 -2.11464e-06)
(0 -0 -2.16015e-06)
(0 -0 -2.17533e-06)
(0 -0 -2.15457e-06)
(0 -0 -2.06107e-06)
(0 -0 -1.74633e-06)
(0 -0 -6.64132e-07)
(0 -0 3.15321e-06)
(0 -0 1.67753e-05)
(0 -0 6.56361e-05)
(0 -5.59591e-23 0.000244853)
(0 -0 7.20679e-06)
(0 -0 5.82904e-06)
(0 -0 4.41448e-06)
(0 -0 3.63849e-06)
(0 -0 3.14119e-06)
(0 -0 2.63817e-06)
(0 -0 2.13573e-06)
(0 -0 1.63785e-06)
(0 -0 1.14852e-06)
(0 -0 6.72104e-07)
(0 -0 2.13323e-07)
(0 -0 -2.22717e-07)
(0 -0 -6.30682e-07)
(0 -0 -1.00529e-06)
(0 -0 -1.34158e-06)
(0 -0 -1.63517e-06)
(0 -0 -1.88259e-06)
(0 -0 -2.08149e-06)
(0 -0 -2.23082e-06)
(0 -0 -2.331e-06)
(0 -0 -2.38399e-06)
(0 -0 -2.3933e-06)
(0 -0 -2.36387e-06)
(0 -0 -2.30167e-06)
(0 -0 -2.21282e-06)
(0 -0 -2.1011e-06)
(0 -0 -1.9599e-06)
(0 -0 -1.74461e-06)
(0 -0 -1.2748e-06)
(0 -0 1.15126e-07)
(0 -0 4.83315e-06)
(0 -0 2.15743e-05)
(0 -0 8.17897e-05)
(0 -1.56512e-22 0.000304551)
(0 -0 4.80008e-06)
(0 -0 3.47582e-06)
(0 -0 2.11973e-06)
(0 -0 1.40529e-06)
(0 -0 9.7308e-07)
(0 -0 5.39599e-07)
(0 -0 1.11495e-07)
(0 -0 -3.06936e-07)
(0 -0 -7.11355e-07)
(0 -0 -1.09718e-06)
(0 -0 -1.45945e-06)
(0 -0 -1.79288e-06)
(0 -0 -2.09211e-06)
(0 -0 -2.35196e-06)
(0 -0 -2.5677e-06)
(0 -0 -2.7354e-06)
(0 -0 -2.85226e-06)
(0 -0 -2.91672e-06)
(0 -0 -2.92878e-06)
(0 -0 -2.8901e-06)
(0 -0 -2.80405e-06)
(0 -0 -2.67566e-06)
(0 -0 -2.51146e-06)
(0 -0 -2.31896e-06)
(0 -0 -2.10566e-06)
(0 -0 -1.87607e-06)
(0 -0 -1.62229e-06)
(0 -0 -1.29089e-06)
(0 -0 -6.66395e-07)
(0 -0 1.04754e-06)
(0 -0 6.74163e-06)
(0 -0 2.68954e-05)
(0 -0 9.9582e-05)
(0 -3.16276e-23 0.000370576)
(0 -0 2.76088e-06)
(0 -0 1.48625e-06)
(0 -0 1.84399e-07)
(0 -0 -4.738e-07)
(0 -0 -8.4715e-07)
(0 -0 -1.21798e-06)
(0 -0 -1.5793e-06)
(0 -0 -1.92643e-06)
(0 -0 -2.25476e-06)
(0 -0 -2.55934e-06)
(0 -0 -2.83494e-06)
(0 -0 -3.0761e-06)
(0 -0 -3.27736e-06)
(0 -0 -3.4336e-06)
(0 -0 -3.54026e-06)
(0 -0 -3.59384e-06)
(0 -0 -3.59204e-06)
(0 -0 -3.53404e-06)
(0 -0 -3.42079e-06)
(0 -0 -3.25509e-06)
(0 -0 -3.04157e-06)
(0 -0 -2.78666e-06)
(0 -0 -2.49834e-06)
(0 -0 -2.18556e-06)
(0 -0 -1.85709e-06)
(0 -0 -1.51804e-06)
(0 -0 -1.15876e-06)
(0 -0 -7.16104e-07)
(0 -0 6.3791e-08)
(0 -0 2.12031e-06)
(0 -0 8.87282e-06)
(0 -0 3.27588e-05)
(0 -0 0.000119138)
(0 -2.6979e-23 0.00044354)
(0 -0 1.06582e-06)
(0 -0 -1.63324e-07)
(0 -0 -1.41562e-06)
(0 -0 -2.02351e-06)
(0 -0 -2.34492e-06)
(0 -0 -2.66072e-06)
(0 -0 -2.96351e-06)
(0 -0 -3.24823e-06)
(0 -0 -3.50986e-06)
(0 -0 -3.74307e-06)
(0 -0 -3.94225e-06)
(0 -0 -4.10173e-06)
(0 -0 -4.21593e-06)
(0 -0 -4.27971e-06)
(0 -0 -4.2887e-06)
(0 -0 -4.23964e-06)
(0 -0 -4.13068e-06)
(0 -0 -3.96169e-06)
(0 -0 -3.73447e-06)
(0 -0 -3.45281e-06)
(0 -0 -3.12253e-06)
(0 -0 -2.75135e-06)
(0 -0 -2.34859e-06)
(0 -0 -1.92454e-06)
(0 -0 -1.48909e-06)
(0 -0 -1.04786e-06)
(0 -0 -5.89028e-07)
(0 -0 -3.87669e-08)
(0 -0 8.98813e-07)
(0 -0 3.31959e-06)
(0 -0 1.12216e-05)
(0 -0 3.91908e-05)
(0 -0 0.000140607)
(0 1.98533e-22 0.000524152)
(0 -0 -3.16844e-07)
(0 -0 -1.50481e-06)
(0 -0 -2.71265e-06)
(0 -0 -3.27684e-06)
(0 -0 -3.55399e-06)
(0 -0 -3.82313e-06)
(0 -0 -4.07641e-06)
(0 -0 -4.30823e-06)
(0 -0 -4.51302e-06)
(0 -0 -4.68496e-06)
(0 -0 -4.81809e-06)
(0 -0 -4.90643e-06)
(0 -0 -4.94425e-06)
(0 -0 -4.92636e-06)
(0 -0 -4.84848e-06)
(0 -0 -4.70753e-06)
(0 -0 -4.50207e-06)
(0 -0 -4.23257e-06)
(0 -0 -3.90158e-06)
(0 -0 -3.5138e-06)
(0 -0 -3.07615e-06)
(0 -0 -2.59756e-06)
(0 -0 -2.08857e-06)
(0 -0 -1.56076e-06)
(0 -0 -1.02509e-06)
(0 -0 -4.87371e-07)
(0 -0 6.65721e-08)
(0 -0 7.22409e-07)
(0 -0 1.82203e-06)
(0 -0 4.63241e-06)
(0 -0 1.37852e-05)
(0 -0 4.6225e-05)
(0 -0 0.000164162)
(0 -2.74521e-22 0.00061322)
(0 -0 -1.42474e-06)
(0 -0 -2.57609e-06)
(0 -0 -3.74525e-06)
(0 -0 -4.27326e-06)
(0 -0 -4.51482e-06)
(0 -0 -4.74661e-06)
(0 -0 -4.96005e-06)
(0 -0 -5.14885e-06)
(0 -0 -5.30674e-06)
(0 -0 -5.4274e-06)
(0 -0 -5.50448e-06)
(0 -0 -5.53168e-06)
(0 -0 -5.5031e-06)
(0 -0 -5.41344e-06)
(0 -0 -5.25839e-06)
(0 -0 -5.03507e-06)
(0 -0 -4.7424e-06)
(0 -0 -4.38136e-06)
(0 -0 -3.95516e-06)
(0 -0 -3.46939e-06)
(0 -0 -2.93197e-06)
(0 -0 -2.35292e-06)
(0 -0 -1.744e-06)
(0 -0 -1.11796e-06)
(0 -0 -4.86807e-07)
(0 -0 1.43603e-07)
(0 -0 7.90137e-07)
(0 -0 1.55155e-06)
(0 -0 2.82003e-06)
(0 -0 6.04966e-06)
(0 -0 1.65665e-05)
(0 -0 5.39056e-05)
(0 -0 0.000190004)
(0 5.55521e-22 0.000711657)
(0 -0 -2.2988e-06)
(0 -0 -3.41871e-06)
(0 -0 -4.55632e-06)
(0 -0 -5.05724e-06)
(0 -0 -5.27321e-06)
(0 -0 -5.4778e-06)
(0 -0 -5.66137e-06)
(0 -0 -5.81677e-06)
(0 -0 -5.93711e-06)
(0 -0 -6.01561e-06)
(0 -0 -6.04556e-06)
(0 -0 -6.02039e-06)
(0 -0 -5.93397e-06)
(0 -0 -5.78087e-06)
(0 -0 -5.5567e-06)
(0 -0 -5.25875e-06)
(0 -0 -4.88627e-06)
(0 -0 -4.44061e-06)
(0 -0 -3.92562e-06)
(0 -0 -3.34773e-06)
(0 -0 -2.71577e-06)
(0 -0 -2.04082e-06)
(0 -0 -1.33584e-06)
(0 -0 -6.14719e-07)
(0 -0 1.09635e-07)
(0 -0 8.31276e-07)
(0 -0 1.57023e-06)
(0 -0 2.43952e-06)
(0 -0 3.88641e-06)
(0 -0 7.57001e-06)
(0 -0 1.95778e-05)
(0 -0 6.22917e-05)
(0 -0 0.00021837)
(0 -2.99779e-22 0.000820495)
(0 -0 -2.97982e-06)
(0 -0 -4.07561e-06)
(0 -0 -5.19188e-06)
(0 -0 -5.67737e-06)
(0 -0 -5.87918e-06)
(0 -0 -6.06685e-06)
(0 -0 -6.22966e-06)
(0 -0 -6.35981e-06)
(0 -0 -6.45014e-06)
(0 -0 -6.49362e-06)
(0 -0 -6.48329e-06)
(0 -0 -6.4124e-06)
(0 -0 -6.27454e-06)
(0 -0 -6.06403e-06)
(0 -0 -5.77653e-06)
(0 -0 -5.40937e-06)
(0 -0 -4.96192e-06)
(0 -0 -4.43597e-06)
(0 -0 -3.83596e-06)
(0 -0 -3.16901e-06)
(0 -0 -2.44487e-06)
(0 -0 -1.67569e-06)
(0 -0 -8.75569e-07)
(0 -0 -5.96219e-08)
(0 -0 7.5842e-07)
(0 -0 1.57259e-06)
(0 -0 2.40636e-06)
(0 -0 3.38842e-06)
(0 -0 5.02647e-06)
(0 -0 9.20429e-06)
(0 -0 2.28452e-05)
(0 -0 7.14625e-05)
(0 -0 0.00024954)
(0 -1.21258e-23 0.000940911)
(0 -0 -3.50413e-06)
(0 -0 -4.59057e-06)
(0 -0 -5.70207e-06)
(0 -0 -6.18697e-06)
(0 -0 -6.38617e-06)
(0 -0 -6.56523e-06)
(0 -0 -6.71329e-06)
(0 -0 -6.82293e-06)
(0 -0 -6.88735e-06)
(0 -0 -6.89965e-06)
(0 -0 -6.85281e-06)
(0 -0 -6.73985e-06)
(0 -0 -6.55403e-06)
(0 -0 -6.28942e-06)
(0 -0 -5.94154e-06)
(0 -0 -5.50761e-06)
(0 -0 -4.98709e-06)
(0 -0 -4.38211e-06)
(0 -0 -3.69761e-06)
(0 -0 -2.94138e-06)
(0 -0 -2.12411e-06)