/*--------------------------------*- C++ -*----------------------------------*\
| =========                 |                                                 |
| \\      /  F ield         | OpenFOAM: The Open Source CFD Toolbox           |
|  \\    /   O peration     | Version:  2412                                  |
|   \\  /    A nd           | Website:  www.openfoam.com                      |
|    \\/     M anipulation  |                                                 |
\*---------------------------------------------------------------------------*/
FoamFile
{
    version     2.0;
    format      ascii;
    arch        "LSB;label=32;scalar=64";
    class       volScalarField;
    location    "18";
    object      p;
}
// * * * * * * * * * * * * * * * * * * * * * * * * * * * * * * * * * * * * * //

dimensions      [0 2 -2 0 0 0 0];

internalField   nonuniform List<scalar> 
63420
(
0.000949216
0.000949475
0.000950297
0.000951567
0.000953268
0.000955387
0.000957907
0.000960814
0.000964097
0.000967745
0.000971749
0.000976098
0.000980785
0.000985802
0.000991144
0.000996809
0.00100279
0.0010091
0.00101573
0.00102268
0.00102995
0.00103754
0.00104547
0.00105372
0.00106229
0.0010712
0.00108045
0.00109002
0.00109994
0.0011102
0.0011208
0.00113175
0.00114304
0.0011547
0.0011667
0.00117907
0.00119181
0.00120491
0.00121838
0.00123223
0.00124646
0.00126108
0.00127608
0.00129147
0.00130727
0.00132346
0.00134007
0.00135708
0.00137451
0.00139235
0.00141063
0.00142933
0.00144847
0.00146805
0.00148807
0.000949156
0.000949415
0.000950237
0.000951506
0.000953206
0.000955323
0.000957841
0.000960746
0.000964026
0.000967672
0.000971672
0.000976018
0.000980701
0.000985715
0.000991053
0.000996713
0.00100269
0.00100899
0.00101562
0.00102256
0.00102982
0.00103741
0.00104533
0.00105357
0.00106214
0.00107104
0.00108027
0.00108984
0.00109974
0.00110999
0.00112058
0.00113151
0.00114279
0.00115443
0.00116642
0.00117877
0.00119149
0.00120457
0.00121803
0.00123185
0.00124606
0.00126065
0.00127563
0.001291
0.00130676
0.00132293
0.0013395
0.00135647
0.00137387
0.00139168
0.00140991
0.00142857
0.00144766
0.00146719
0.00148715
0.000949037
0.000949295
0.000950116
0.000951383
0.000953081
0.000955195
0.000957709
0.00096061
0.000963886
0.000967526
0.00097152
0.000975859
0.000980535
0.00098554
0.00099087
0.000996521
0.00100249
0.00100878
0.00101539
0.00102232
0.00102957
0.00103715
0.00104505
0.00105327
0.00106182
0.0010707
0.00107992
0.00108946
0.00109935
0.00110957
0.00112013
0.00113104
0.0011423
0.0011539
0.00116586
0.00117818
0.00119086
0.0012039
0.00121731
0.0012311
0.00124526
0.0012598
0.00127473
0.00129004
0.00130575
0.00132185
0.00133836
0.00135527
0.00137259
0.00139032
0.00140847
0.00142704
0.00144604
0.00146547
0.00148534
0.000948859
0.000949116
0.000949935
0.0009512
0.000952894
0.000955004
0.000957512
0.000960406
0.000963675
0.000967306
0.000971291
0.000975621
0.000980285
0.000985278
0.000990595
0.000996232
0.00100219
0.00100846
0.00101505
0.00102197
0.0010292
0.00103675
0.00104463
0.00105283
0.00106135
0.00107021
0.00107939
0.00108891
0.00109876
0.00110894
0.00111947
0.00113034
0.00114155
0.00115311
0.00116502
0.00117729
0.00118991
0.0012029
0.00121625
0.00122997
0.00124406
0.00125853
0.00127338
0.00128862
0.00130424
0.00132025
0.00133666
0.00135346
0.00137067
0.00138829
0.00140632
0.00142476
0.00144362
0.0014629
0.00148261
0.000948621
0.000948878
0.000949694
0.000950955
0.000952644
0.000954748
0.000957249
0.000960135
0.000963394
0.000967014
0.000970987
0.000975303
0.000979953
0.00098493
0.00099023
0.000995848
0.00100178
0.00100804
0.00101461
0.00102149
0.0010287
0.00103622
0.00104407
0.00105224
0.00106073
0.00106955
0.00107869
0.00108816
0.00109797
0.00110811
0.00111858
0.0011294
0.00114055
0.00115205
0.0011639
0.0011761
0.00118866
0.00120157
0.00121484
0.00122847
0.00124247
0.00125685
0.0012716
0.00128672
0.00130223
0.00131812
0.0013344
0.00135107
0.00136813
0.0013856
0.00140346
0.00142173
0.00144041
0.0014595
0.001479
0.000948324
0.00094858
0.000949394
0.00095065
0.000952333
0.000954429
0.000956922
0.000959797
0.000963043
0.00096665
0.000970607
0.000974906
0.000979538
0.000984496
0.000989774
0.000995369
0.00100128
0.00100751
0.00101405
0.0010209
0.00102808
0.00103557
0.00104337
0.0010515
0.00105995
0.00106872
0.00107782
0.00108724
0.00109699
0.00110707
0.00111748
0.00112823
0.00113931
0.00115074
0.00116251
0.00117463
0.00118709
0.00119991
0.00121308
0.0012266
0.00124049
0.00125475
0.00126937
0.00128436
0.00129973
0.00131547
0.00133159
0.00134809
0.00136498
0.00138225
0.00139992
0.00141797
0.00143643
0.00145528
0.00147452
0.000947968
0.000948223
0.000949033
0.000950284
0.00095196
0.000954047
0.000956529
0.000959391
0.000962623
0.000966213
0.000970152
0.000974431
0.000979041
0.000983975
0.000989228
0.000994796
0.00100068
0.00100687
0.00101338
0.0010202
0.00102733
0.00103478
0.00104254
0.00105062
0.00105902
0.00106773
0.00107677
0.00108613
0.00109581
0.00110582
0.00111616
0.00112683
0.00113783
0.00114917
0.00116085
0.00117286
0.00118522
0.00119792
0.00121097
0.00122437
0.00123813
0.00125224
0.00126671
0.00128154
0.00129674
0.0013123
0.00132823
0.00134454
0.00136121
0.00137826
0.00139569
0.0014135
0.00143169
0.00145025
0.00146919
0.00150859
0.00152985
0.00155202
0.00157516
0.00159931
0.00162455
0.00165095
0.00167856
0.00170747
0.00173777
0.00176954
0.00180287
0.00183788
0.00187469
0.0019134
0.00195417
0.00199714
0.00204247
0.00209034
0.00214094
0.00219449
0.00225122
0.00231138
0.00237527
0.00244319
0.0025155
0.00259256
0.00267481
0.0027627
0.00285677
0.00295756
0.00306572
0.00318192
0.00330691
0.0034415
0.00358653
0.00374287
0.00391136
0.00409271
0.0042874
0.00449546
0.00471618
0.00494775
0.00518707
0.00542999
0.00567224
0.00590972
0.00614864
0.00645551
0.00692215
0.00150763
0.00152891
0.00155108
0.00157421
0.00159837
0.0016236
0.00164999
0.0016776
0.00170651
0.0017368
0.00176856
0.00180189
0.00183689
0.00187368
0.00191238
0.00195313
0.00199607
0.00204137
0.00208921
0.00213976
0.00219325
0.00224991
0.00230999
0.00237377
0.00244156
0.00251369
0.00259055
0.00267254
0.00276012
0.00285379
0.00295409
0.00306162
0.00317703
0.00330102
0.00343432
0.0035777
0.0037319
0.00389761
0.00407535
0.00426531
0.00446718
0.00467978
0.00490073
0.00512618
0.00535111
0.0055703
0.00577912
0.00598291
0.00624393
0.00664708
0.00150582
0.00152705
0.0015492
0.00157232
0.00159647
0.0016217
0.00164809
0.00167569
0.00170459
0.00173487
0.00176661
0.00179993
0.00183491
0.00187167
0.00191034
0.00195105
0.00199395
0.00203919
0.00208694
0.00213741
0.00219078
0.0022473
0.00230721
0.00237077
0.0024383
0.00251011
0.00258657
0.00266806
0.00275502
0.00284791
0.00294723
0.00305353
0.00316739
0.0032894
0.00342016
0.00356028
0.00371026
0.00387047
0.00404103
0.00422159
0.00441108
0.00460741
0.00480698
0.00500449
0.00519308
0.00536564
0.00551668
0.00565001
0.00581524
0.00610404
0.00150298
0.00152422
0.00154637
0.00156949
0.00159363
0.00161885
0.00164521
0.0016728
0.00170169
0.00173195
0.00176367
0.00179695
0.0018319
0.00186862
0.00190724
0.00194789
0.0019907
0.00203585
0.00208349
0.00213381
0.002187
0.0022433
0.00230294
0.00236617
0.00243329
0.0025046
0.00258044
0.00266116
0.00274716
0.00283886
0.0029367
0.00304113
0.00315262
0.00327163
0.00339857
0.00353377
0.00367741
0.00382939
0.00398922
0.00415573
0.00432679
0.00449886
0.00466657
0.00482237
0.00495677
0.00505963
0.0051241
0.00515522
0.00518711
0.00527432
0.00149925
0.00152049
0.00154263
0.00156574
0.00158986
0.00161507
0.00164143
0.00166901
0.00169788
0.00172812
0.00175982
0.00179308
0.00182799
0.00186466
0.00190323
0.0019438
0.00198652
0.00203155
0.00207905
0.00212919
0.00218216
0.00223818
0.00229748
0.00236029
0.00242687
0.00249753
0.00257255
0.00265226
0.002737
0.00282711
0.00292296
0.00302489
0.00313321
0.00324817
0.00336994
0.00349849
0.00363353
0.00377435
0.00391962
0.00406708
0.00421317
0.0043525
0.00447736
0.00457736
0.00463961
0.00465011
0.00459915
0.00449482
0.00436015
0.004136
0.00149463
0.00151586
0.00153801
0.00156113
0.00158527
0.0016105
0.00163688
0.00166448
0.00169338
0.00172365
0.00175539
0.00178868
0.00182362
0.00186033
0.00189892
0.00193952
0.00198226
0.00202729
0.00207476
0.00212486
0.00217777
0.00223368
0.00229282
0.00235541
0.00242169
0.00249194
0.00256641
0.0026454
0.00272919
0.00281805
0.00291225
0.003012
0.00311744
0.00322859
0.00334525
0.00346695
0.00359272
0.00372094
0.00384898
0.00397283
0.00408656
0.00418172
0.00424674
0.00426668
0.00422348
0.00409788
0.00387561
0.0035656
0.00318276
0.00253815
0.00148908
0.00151025
0.00153234
0.00155541
0.0015795
0.00160468
0.00163101
0.00165857
0.00168742
0.00171764
0.00174932
0.00178256
0.00181745
0.0018541
0.00189263
0.00193315
0.00197581
0.00202075
0.00206811
0.00211808
0.00217082
0.00222653
0.00228542
0.0023477
0.0024136
0.00248336
0.00255722
0.00263544
0.00271823
0.00280582
0.00289837
0.00299597
0.00309859
0.003206
0.00331766
0.00343257
0.00354904
0.00366435
0.00377426
0.00387247
0.00394982
0.00399347
0.00398633
0.00390697
0.00373046
0.00342999
0.00298763
0.0024168
0.00168181
0.000488955
-0.0034823
-0.00355219
-0.00356708
-0.00354155
-0.00348806
-0.00340946
-0.00330801
-0.00318728
-0.00304855
-0.00289459
-0.00272822
-0.0025522
-0.00236944
-0.00218267
-0.00199458
-0.00180767
-0.00162422
-0.00144625
-0.00127548
-0.00111334
-0.000960952
-0.000819112
-0.00068836
-0.000569003
-0.0004611
-0.000364461
-0.000278719
-0.000203396
-0.000137907
-8.15822e-05
-3.36996e-05
6.49009e-06
3.97435e-05
6.68067e-05
8.84007e-05
0.000105211
0.000117879
0.000126996
0.000133104
0.000136688
0.000138182
0.000137969
0.00013638
0.000133705
0.00013019
0.000126043
0.00012144
0.000116526
0.000111418
0.000106214
-0.00356765
-0.00361364
-0.00361427
-0.00358045
-0.00352161
-0.00343961
-0.00333655
-0.00321455
-0.00307527
-0.00292111
-0.00275462
-0.00257855
-0.00239568
-0.00220868
-0.0020202
-0.00183275
-0.00164861
-0.0014698
-0.00129808
-0.00113489
-0.000981367
-0.000838345
-0.000706378
-0.000585795
-0.000476682
-0.000378861
-0.000291977
-0.000215558
-0.00014903
-9.17261e-05
-4.29287e-05
-1.88899e-06
3.21501e-05
5.99362e-05
8.21927e-05
9.96079e-05
0.000112827
0.000122445
0.000129007
0.000133001
0.000134866
0.000134987
0.000133699
0.000131296
0.000128024
0.000124097
0.000119691
0.000114953
0.000110003
0.000104944
-0.00373766
-0.0037342
-0.0037068
-0.00365652
-0.00358672
-0.00349755
-0.00339118
-0.00326671
-0.00312641
-0.00297178
-0.00280505
-0.00262909
-0.00244611
-0.00225877
-0.00206966
-0.00188127
-0.00169588
-0.00151554
-0.00134203
-0.00117685
-0.00102119
-0.000875909
-0.000741616
-0.000618675
-0.000507212
-0.000407102
-0.000317997
-0.000239447
-0.000170891
-0.000111676
-6.10891e-05
-1.83846e-05
1.71951e-05
4.63999e-05
6.99577e-05
8.85624e-05
0.000102865
0.000113469
0.000120923
0.000125726
0.000128322
0.000129101
0.000128408
0.000126538
0.000123748
0.000120252
0.000116233
0.000111843
0.000107206
0.000102429
-0.00399821
-0.00390531
-0.00384141
-0.00376624
-0.00367953
-0.00357884
-0.00346832
-0.00333915
-0.00319733
-0.00304274
-0.00287631
-0.00270041
-0.00251738
-0.00232968
-0.00213983
-0.00195024
-0.0017632
-0.0015808
-0.00140485
-0.00123693
-0.00107828
-0.000929852
-0.000792284
-0.000666013
-0.000551225
-0.000447844
-0.000355575
-0.000273977
-0.000202518
-0.000140561
-8.74033e-05
-4.23038e-05
-4.50529e-06
2.67453e-05
5.21815e-05
7.25044e-05
8.83741e-05
0.000100403
0.00010915
0.000115124
0.000118778
0.000120512
0.000120679
0.000119584
0.00011749
0.00011462
0.000111163
0.000107277
0.000103092
9.87262e-05
-0.00432505
-0.00412798
-0.00401448
-0.00390375
-0.00379407
-0.00368088
-0.00356056
-0.00342793
-0.00328386
-0.00312813
-0.00296162
-0.00278597
-0.00260313
-0.00241533
-0.00222491
-0.00203423
-0.00184556
-0.00166099
-0.0014824
-0.00131141
-0.00114936
-0.000997279
-0.000855884
-0.000725656
-0.000606875
-0.000499541
-0.000403402
-0.00031806
-0.00024301
-0.00017764
-0.000121266
-7.31533e-05
-3.25497e-05
1.29906e-06
2.91309e-05
5.16543e-05
6.95378e-05
8.34038e-05
9.38236e-05
0.000101315
0.000106344
0.000109321
0.00011061
0.000110526
0.000109341
0.000107288
0.000104564
0.000101334
9.77378e-05
9.39062e-05
-0.00466936
-0.00440155
-0.00422557
-0.00406824
-0.00392589
-0.00379701
-0.00366022
-0.00351944
-0.00337137
-0.00321425
-0.00304807
-0.00287362
-0.00269227
-0.00250584
-0.00231639
-0.00212609
-0.00193713
-0.00175156
-0.00157128
-0.00139796
-0.00123302
-0.00107758
-0.000932454
-0.000798218
-0.000675216
-0.000563555
-0.000463085
-0.000373454
-0.000294208
-0.000224783
-0.000164524
-0.000112721
-6.86371e-05
-3.15265e-05
-6.54634e-07
2.46876e-05
4.51734e-05
6.14319e-05
7.40429e-05
8.35345e-05
9.03823e-05
9.50099e-05
9.77909e-05
9.90522e-05
9.9077e-05
9.81088e-05
9.63554e-05
9.39922e-05
9.1169e-05
8.8027e-05
-0.00499956
-0.00474121
-0.00450426
-0.0042847
-0.00410574
-0.00394422
-0.00378875
-0.00363603
-0.00348076
-0.00332013
-0.00315286
-0.00297874
-0.00279838
-0.00261302
-0.00242432
-0.0022342
-0.00204466
-0.00185773
-0.00167529
-0.00149907
-0.00133058
-0.00117105
-0.00102142
-0.000882342
-0.000754283
-0.000637448
-0.000531786
-0.000437042
-0.000352813
-0.000278585
-0.000213742
-0.000157603
-0.000109447
-6.85386e-05
-3.4145e-05
-5.55436e-06
1.79132e-05
3.68968e-05
5.19886e-05
6.37303e-05
7.26121e-05
7.90725e-05
8.35005e-05
8.62376e-05
8.75815e-05
8.77896e-05
8.70826e-05
8.56481e-05
8.36479e-05
8.12252e-05
0.00010098
9.56898e-05
9.03815e-05
8.51138e-05
7.99224e-05
7.48366e-05
6.98814e-05
6.50768e-05
6.04379e-05
5.59758e-05
5.16985e-05
4.76112e-05
4.37167e-05
4.00159e-05
3.65078e-05
3.31904e-05
3.00601e-05
2.71129e-05
2.43439e-05
2.17476e-05
1.93182e-05
1.705e-05
1.49369e-05
1.29731e-05
1.11527e-05
9.46997e-06
7.91941e-06
6.49546e-06
5.1926e-06
4.00522e-06
2.92766e-06
1.95414e-06
1.07879e-06
2.95665e-07
-4.01111e-07
-1.01737e-06
-1.55883e-06
-2.03097e-06
-2.43904e-06
-2.78805e-06
-3.08273e-06
-3.3275e-06
-3.52653e-06
-3.68402e-06
-3.80335e-06
-3.88734e-06
-3.94071e-06
-3.96586e-06
-3.96555e-06
-3.94264e-06
-3.89969e-06
-3.8391e-06
-3.76314e-06
-3.67389e-06
-3.57327e-06
-3.46311e-06
-3.34507e-06
-3.22068e-06
-3.09138e-06
-2.95846e-06
-2.82305e-06
-2.68627e-06
-2.54904e-06
-2.41225e-06
-2.27668e-06
-2.14299e-06
-2.01174e-06
-1.88347e-06
-1.75863e-06
-1.63764e-06
-1.52081e-06
-1.4084e-06
-1.30062e-06
-1.19761e-06
-1.09942e-06
-1.00612e-06
-9.17694e-07
-8.34072e-07
-7.55196e-07
-6.80973e-07
-6.11299e-07
-5.46108e-07
-4.85129e-07
-4.28672e-07
-3.75684e-07
-3.27834e-07
-2.81458e-07
-2.42913e-07
-1.99798e-07
-1.7382e-07
-1.26553e-07
-1.231e-07
-5.46347e-08
-9.70056e-08
2.79273e-08
-1.05784e-07
1.36818e-07
-1.60749e-07
2.82419e-07
-2.63643e-07
4.54667e-07
-3.83627e-07
6.06619e-07
-4.48835e-07
6.53055e-07
-3.6907e-07
5.21524e-07
-1.06521e-07
2.36188e-07
2.41384e-07
-2.80428e-08
4.39681e-07
-1.25801e-08
2.42263e-07
4.56408e-07
9.98607e-05
9.4662e-05
8.94365e-05
8.42521e-05
7.91389e-05
7.41246e-05
6.92351e-05
6.44906e-05
5.99064e-05
5.54941e-05
5.12622e-05
4.7216e-05
4.3359e-05
3.96921e-05
3.62148e-05
3.29254e-05
2.98206e-05
2.68965e-05
2.41485e-05
2.15712e-05
1.91593e-05
1.69069e-05
1.48083e-05
1.28576e-05
1.10491e-05
9.37725e-06
7.83653e-06
6.4215e-06
5.12667e-06
3.94653e-06
2.87547e-06
1.90778e-06
1.03762e-06
2.59138e-07
-4.33486e-07
-1.04605e-06
-1.5842e-06
-2.05339e-06
-2.45881e-06
-2.80546e-06
-3.09802e-06
-3.34089e-06
-3.53822e-06
-3.6942e-06
-3.81218e-06
-3.89497e-06
-3.94728e-06
-3.97148e-06
-3.97034e-06
-3.94669e-06
-3.90309e-06
-3.84193e-06
-3.76546e-06
-3.67577e-06
-3.57478e-06
-3.46428e-06
-3.34596e-06
-3.22133e-06
-3.09183e-06
-2.95873e-06
-2.82318e-06
-2.68628e-06
-2.54896e-06
-2.41208e-06
-2.27645e-06
-2.1427e-06
-2.01143e-06
-1.88313e-06
-1.75827e-06
-1.63728e-06
-1.52045e-06
-1.40805e-06
-1.30028e-06
-1.19727e-06
-1.09908e-06
-1.0058e-06
-9.17385e-07
-8.33775e-07
-7.54915e-07
-6.80708e-07
-6.11055e-07
-5.45882e-07
-4.84925e-07
-4.28487e-07
-3.75515e-07
-3.27677e-07
-2.81317e-07
-2.42781e-07
-1.99681e-07
-1.73711e-07
-1.26461e-07
-1.23001e-07
-5.45643e-08
-9.69076e-08
2.79757e-08
-1.05691e-07
1.36828e-07
-1.60663e-07
2.82396e-07
-2.63561e-07
4.54644e-07
-3.83565e-07
6.0661e-07
-4.48823e-07
6.53077e-07
-3.69096e-07
5.21565e-07
-1.06571e-07
2.36229e-07
2.41363e-07
-2.8047e-08
4.39691e-07
-1.25177e-08
2.42139e-07
4.56666e-07
9.76338e-05
9.26185e-05
8.75597e-05
8.25409e-05
7.75825e-05
7.27102e-05
6.79508e-05
6.33253e-05
5.88497e-05
5.45363e-05
5.03942e-05
4.64298e-05
4.2647e-05
3.90475e-05
3.56315e-05
3.23977e-05
2.93435e-05
2.64654e-05
2.37591e-05
2.122e-05
1.88427e-05
1.66218e-05
1.45519e-05
1.26273e-05
1.08426e-05
9.1924e-06
7.67128e-06
6.27398e-06
4.99517e-06
3.82944e-06
2.77132e-06
1.81522e-06
9.55438e-07
1.86233e-07
-4.98119e-07
-1.1033e-06
-1.63486e-06
-2.09814e-06
-2.49829e-06
-2.84022e-06
-3.12856e-06
-3.36765e-06
-3.56159e-06
-3.71454e-06
-3.82982e-06
-3.91022e-06
-3.96039e-06
-3.98271e-06
-3.97989e-06
-3.95476e-06
-3.90986e-06
-3.84756e-06
-3.77009e-06
-3.67953e-06
-3.57777e-06
-3.46662e-06
-3.34774e-06
-3.22263e-06
-3.09272e-06
-2.95927e-06
-2.82344e-06
-2.6863e-06
-2.54878e-06
-2.41175e-06
-2.27599e-06
-2.14214e-06
-2.01079e-06
-1.88245e-06
-1.75758e-06
-1.63657e-06
-1.51974e-06
-1.40734e-06
-1.29958e-06
-1.19658e-06
-1.09842e-06
-1.00515e-06
-9.1675e-07
-8.33166e-07
-7.54331e-07
-6.80163e-07
-6.10541e-07
-5.4542e-07
-4.84505e-07
-4.2811e-07
-3.75176e-07
-3.27372e-07
-2.81034e-07
-2.42512e-07
-1.99457e-07
-1.73488e-07
-1.26294e-07
-1.22807e-07
-5.44331e-08
-9.67047e-08
2.80711e-08
-1.05483e-07
1.36837e-07
-1.6052e-07
2.82336e-07
-2.63399e-07
4.54625e-07
-3.83452e-07
6.06594e-07
-4.48803e-07
6.53128e-07
-3.69156e-07
5.21668e-07
-1.06695e-07
2.36351e-07
2.4127e-07
-2.79842e-08
4.39635e-07
-1.23041e-08
2.41813e-07
4.57216e-07
9.43271e-05
8.95847e-05
8.47773e-05
8.00044e-05
7.52749e-05
7.06123e-05
6.60451e-05
6.15954e-05
5.72802e-05
5.31129e-05
4.91039e-05
4.52605e-05
4.15877e-05
3.80882e-05
3.47631e-05
3.16119e-05
2.86328e-05
2.5823e-05
2.3179e-05
2.06964e-05
1.83706e-05
1.61967e-05
1.41695e-05
1.22838e-05
1.05346e-05
8.91652e-06
7.42459e-06
6.05372e-06
4.79876e-06
3.65452e-06
2.61572e-06
1.6769e-06
8.32597e-07
7.72303e-08
-5.94771e-07
-1.18892e-06
-1.71062e-06
-2.16509e-06
-2.55736e-06
-2.89223e-06
-3.17424e-06
-3.40767e-06
-3.59655e-06
-3.74497e-06
-3.85622e-06
-3.93304e-06
-3.98002e-06
-3.9995e-06
-3.99418e-06
-3.96683e-06
-3.91998e-06
-3.85597e-06
-3.77701e-06
-3.68514e-06
-3.58225e-06
-3.47012e-06
-3.35039e-06
-3.22457e-06
-3.09405e-06
-2.96009e-06
-2.82383e-06
-2.68632e-06
-2.54851e-06
-2.41125e-06
-2.27529e-06
-2.1413e-06
-2.00985e-06
-1.88144e-06
-1.75652e-06
-1.63549e-06
-1.51866e-06
-1.40627e-06
-1.29852e-06
-1.19554e-06
-1.09741e-06
-1.00417e-06
-9.15805e-07
-8.32261e-07
-7.53471e-07
-6.79358e-07
-6.0979e-07
-5.44733e-07
-4.83878e-07
-4.27541e-07
-3.74662e-07
-3.26905e-07
-2.80607e-07
-2.42113e-07
-1.99115e-07
-1.73158e-07
-1.26035e-07
-1.22521e-07
-5.42377e-08
-9.6422e-08
2.82014e-08
-1.05201e-07
1.36856e-07
-1.60295e-07
2.82266e-07
-2.63167e-07
4.54584e-07
-3.83289e-07
6.06573e-07
-4.48771e-07
6.53205e-07
-3.69252e-07
5.21825e-07
-1.06878e-07
2.36528e-07
2.41126e-07
-2.78732e-08
4.39535e-07
-1.19748e-08
2.41333e-07
4.58031e-07
8.99823e-05
8.55999e-05
8.11287e-05
7.66783e-05
7.22474e-05
6.78584e-05
6.35419e-05
5.93216e-05
5.52159e-05
5.12397e-05
4.74047e-05
4.37198e-05
4.01912e-05
3.6823e-05
3.36173e-05
3.05747e-05
2.76944e-05
2.49745e-05
2.24123e-05
2.00043e-05
1.77464e-05
1.56344e-05
1.36636e-05
1.18293e-05
1.01268e-05
8.55123e-06
7.09786e-06
5.76189e-06
4.53846e-06
3.42263e-06
2.40934e-06
1.49342e-06
6.69601e-07
-6.74413e-08
-7.2307e-07
-1.30259e-06
-1.81122e-06
-2.25399e-06
-2.63579e-06
-2.96129e-06
-3.23491e-06
-3.46082e-06
-3.64298e-06
-3.78539e-06
-3.89127e-06
-3.96334e-06
-4.00607e-06
-4.02179e-06
-4.01315e-06
-3.98286e-06
-3.93342e-06
-3.86714e-06
-3.78619e-06
-3.69258e-06
-3.58819e-06
-3.47476e-06
-3.35391e-06
-3.22714e-06
-3.09581e-06
-2.96116e-06
-2.82433e-06
-2.68635e-06
-2.54815e-06
-2.41057e-06
-2.27436e-06
-2.14018e-06
-2.00858e-06
-1.88008e-06
-1.75511e-06
-1.63405e-06
-1.51721e-06
-1.40483e-06
-1.2971e-06
-1.19415e-06
-1.09606e-06
-1.00287e-06
-9.1455e-07
-8.31064e-07
-7.52337e-07
-6.78295e-07
-6.08798e-07
-5.43822e-07
-4.83043e-07
-4.26781e-07
-3.73973e-07
-3.26276e-07
-2.80037e-07
-2.41582e-07
-1.98657e-07
-1.72719e-07
-1.25683e-07
-1.22144e-07
-5.3976e-08
-9.60626e-08
2.83716e-08
-1.04853e-07
1.36896e-07
-1.60003e-07
2.82206e-07
-2.62888e-07
4.54548e-07
-3.83109e-07
6.06586e-07
-4.48768e-07
6.53345e-07
-3.69416e-07
5.2206e-07
-1.07134e-07
2.36765e-07
2.40936e-07
-2.77239e-08
4.39399e-07
-1.15375e-08
2.40697e-07
4.59123e-07
8.46523e-05
8.07187e-05
7.66664e-05
7.26094e-05
6.85408e-05
6.44842e-05
6.04723e-05
5.65309e-05
5.26801e-05
4.89367e-05
4.53141e-05
4.18228e-05
3.84707e-05
3.52632e-05
3.22039e-05
2.92946e-05
2.65357e-05
2.39265e-05
2.1465e-05
1.91488e-05
1.69746e-05
1.49388e-05
1.30376e-05
1.12667e-05
9.62181e-06
8.09868e-06
6.6929e-06
5.40003e-06
4.21556e-06
3.13486e-06
2.15314e-06
1.26556e-06
4.67123e-07
-2.47211e-07
-8.82537e-07
-1.44391e-06
-1.93628e-06
-2.36452e-06
-2.73332e-06
-3.04716e-06
-3.31035e-06
-3.52692e-06
-3.70072e-06
-3.83566e-06
-3.93486e-06
-4.00101e-06
-4.03847e-06
-4.0495e-06
-4.03672e-06
-4.00278e-06
-3.95013e-06
-3.88103e-06
-3.7976e-06
-3.70183e-06
-3.59557e-06
-3.48052e-06
-3.35828e-06
-3.23032e-06
-3.09798e-06
-2.96248e-06
-2.82494e-06
-2.68637e-06
-2.54768e-06
-2.40971e-06
-2.2732e-06
-2.13877e-06
-2.007e-06
-1.87838e-06
-1.75333e-06
-1.63223e-06
-1.51538e-06
-1.40301e-06
-1.29531e-06
-1.19241e-06
-1.09437e-06
-1.00123e-06
-9.12985e-07
-8.29573e-07
-7.50927e-07
-6.76974e-07
-6.07567e-07
-5.42686e-07
-4.82002e-07
-4.25829e-07
-3.73109e-07
-3.25487e-07
-2.79322e-07
-2.4092e-07
-1.98082e-07
-1.72171e-07
-1.25241e-07
-1.21673e-07
-5.36513e-08
-9.56219e-08
2.85756e-08
-1.04428e-07
1.36943e-07
-1.5963e-07
2.82135e-07
-2.62536e-07
4.54489e-07
-3.82877e-07
6.06591e-07
-4.48751e-07
6.53508e-07
-3.69612e-07
5.22345e-07
-1.07445e-07
2.37055e-07
2.40694e-07
-2.75217e-08
4.39208e-07
-1.09722e-08
2.39896e-07
4.60495e-07
7.84121e-05
7.501e-05
7.14565e-05
6.78541e-05
6.42032e-05
6.05311e-05
5.68722e-05
5.32542e-05
4.96996e-05
4.62271e-05
4.28521e-05
3.95869e-05
3.64411e-05
3.34219e-05
3.05343e-05
2.77816e-05
2.51655e-05
2.26863e-05
2.03435e-05
1.81355e-05
1.606e-05
1.41143e-05
1.22952e-05
1.05991e-05
9.02236e-06
7.56122e-06
6.21173e-06
4.96987e-06
3.83152e-06
2.79242e-06
1.84815e-06
9.94174e-07
2.25873e-07
-4.61472e-07
-1.07264e-06
-1.61239e-06
-2.08542e-06
-2.49635e-06
-2.84964e-06
-3.14959e-06
-3.40033e-06
-3.60576e-06
-3.76959e-06
-3.89561e-06
-3.98685e-06
-4.04594e-06
-4.07711e-06
-4.08256e-06
-4.06483e-06
-4.02652e-06
-3.97003e-06
-3.89756e-06
-3.81118e-06
-3.71285e-06
-3.60435e-06
-3.48737e-06
-3.36347e-06
-3.2341e-06
-3.10055e-06
-2.96404e-06
-2.82564e-06
-2.68637e-06
-2.5471e-06
-2.40867e-06
-2.27178e-06
-2.13707e-06
-2.00509e-06
-1.87633e-06
-1.75119e-06
-1.63004e-06
-1.51317e-06
-1.40082e-06
-1.29316e-06
-1.19031e-06
-1.09234e-06
-9.99276e-07
-9.11109e-07
-8.27789e-07
-7.49242e-07
-6.75394e-07
-6.06096e-07
-5.41327e-07
-4.80754e-07
-4.24687e-07
-3.72071e-07
-3.24537e-07
-2.78465e-07
-2.40125e-07
-1.97396e-07
-1.71507e-07
-1.24722e-07
-1.21091e-07
-5.32942e-08
-9.50539e-08
2.87453e-08
-1.03829e-07
1.36864e-07
-1.58994e-07
2.81818e-07
-2.61821e-07
4.54058e-07
-3.82198e-07
6.0616e-07
-4.48281e-07
6.53273e-07
-3.69472e-07
5.22398e-07
-1.07639e-07
2.37344e-07
2.40344e-07
-2.71292e-08
4.3879e-07
-1.01364e-08
2.38884e-07
4.62099e-07
7.11374e-05
6.83801e-05
6.54249e-05
6.23432e-05
5.91685e-05
5.59358e-05
5.26813e-05
4.94347e-05
4.62208e-05
4.30607e-05
3.99719e-05
3.69686e-05
3.40623e-05
3.1262e-05
2.85743e-05
2.60041e-05
2.35546e-05
2.12276e-05
1.90236e-05
1.69423e-05
1.49825e-05
1.31424e-05
1.14196e-05
9.8113e-06
8.31463e-06
6.92633e-06
5.64302e-06
4.46118e-06
3.37711e-06
2.387e-06
1.48687e-06
6.72577e-07
-6.01155e-08
-7.1555e-07
-1.29813e-06
-1.81229e-06
-2.2624e-06
-2.6528e-06
-2.98769e-06
-3.27116e-06
-3.50713e-06
-3.69933e-06
-3.85134e-06
-3.96679e-06
-4.04858e-06
-4.09929e-06
-4.12297e-06
-4.12179e-06
-4.0982e-06
-4.05471e-06
-3.99365e-06
-3.91717e-06
-3.82729e-06
-3.7259e-06
-3.61475e-06
-3.49549e-06
-3.36963e-06
-3.23856e-06
-3.10359e-06
-2.96586e-06
-2.82646e-06
-2.68634e-06
-2.5464e-06
-2.40741e-06
-2.27009e-06
-2.13504e-06
-2.00281e-06
-1.87387e-06
-1.74863e-06
-1.62742e-06
-1.51054e-06
-1.3982e-06
-1.29058e-06
-1.1878e-06
-1.08991e-06
-9.96936e-07
-9.08872e-07
-8.25664e-07
-7.47236e-07
-6.73514e-07
-6.04345e-07
-5.39708e-07
-4.79267e-07
-4.23323e-07
-3.70832e-07
-3.234e-07
-2.77445e-07
-2.39172e-07
-1.96584e-07
-1.70701e-07
-1.24122e-07
-1.20363e-07
-5.29237e-08
-9.43e-08
2.88214e-08
-1.02947e-07
1.36528e-07
-1.57907e-07
2.81025e-07
-2.60445e-07
4.52912e-07
-3.80672e-07
6.04867e-07
-4.46923e-07
6.52233e-07
-3.68648e-07
5.21958e-07
-1.07569e-07
2.37607e-07
2.39801e-07
-2.63794e-08
4.37945e-07
-8.849e-09
2.37573e-07
4.63965e-07
6.30063e-05
6.09322e-05
5.86087e-05
5.61011e-05
5.3455e-05
5.07119e-05
4.79093e-05
4.50789e-05
4.2248e-05
3.944e-05
3.66743e-05
3.39675e-05
3.13328e-05
2.87812e-05
2.63211e-05
2.39591e-05
2.16999e-05
1.95468e-05
1.75018e-05
1.55658e-05
1.37387e-05
1.20197e-05
1.04075e-05
8.90027e-06
7.49565e-06
6.19117e-06
4.98405e-06
3.87133e-06
2.84986e-06
1.9163e-06
1.06715e-06
2.98737e-07
-3.92735e-07
-1.01118e-06
-1.56061e-06
-2.04503e-06
-2.4685e-06
-2.835e-06
-3.14848e-06
-3.41275e-06
-3.63152e-06
-3.80832e-06
-3.94655e-06
-4.04967e-06
-4.12048e-06
-4.1614e-06
-4.17636e-06
-4.16745e-06
-4.13702e-06
-4.0875e-06
-4.02112e-06
-3.93997e-06
-3.846e-06
-3.74105e-06
-3.62681e-06
-3.50489e-06
-3.37673e-06
-3.24371e-06
-3.10706e-06
-2.96793e-06
-2.82735e-06
-2.68626e-06
-2.54552e-06
-2.40589e-06
-2.26806e-06
-2.13263e-06
-2.00011e-06
-1.87097e-06
-1.74559e-06
-1.62432e-06
-1.50742e-06
-1.3951e-06
-1.28754e-06
-1.18483e-06
-1.08704e-06
-9.9418e-07
-9.06239e-07
-8.23165e-07
-7.4488e-07
-6.71307e-07
-6.02289e-07
-5.37806e-07
-4.77517e-07
-4.21719e-07
-3.69372e-07
-3.22063e-07
-2.76241e-07
-2.38059e-07
-1.95615e-07
-1.69776e-07
-1.2338e-07
-1.19562e-07
-5.24052e-08
-9.35448e-08
2.90893e-08
-1.02175e-07
1.36485e-07
-1.5709e-07
2.80686e-07
-2.59554e-07
4.52415e-07
-3.79841e-07
6.04381e-07
-4.46376e-07
6.52008e-07
-3.6855e-07
5.22122e-07
-1.07931e-07
2.38109e-07
2.39186e-07
-2.56665e-08
4.37158e-07
-7.45945e-09
2.35936e-07
4.66533e-07
5.42975e-05
5.29133e-05
5.12385e-05
4.93334e-05
4.72475e-05
4.50248e-05
4.27043e-05
4.03198e-05
3.79005e-05
3.54719e-05
3.30556e-05
3.06699e-05
2.83302e-05
2.60492e-05
2.38373e-05
2.17027e-05
1.96517e-05
1.76893e-05
1.58187e-05
1.40422e-05
1.2361e-05
1.07755e-05
9.28521e-06
7.88923e-06
6.58614e-06
5.37416e-06
4.25119e-06
3.21487e-06
2.26264e-06
1.39171e-06
5.99072e-07
-1.18432e-07
-7.64102e-07
-1.3414e-06
-1.85388e-06
-2.30516e-06
-2.69889e-06
-3.03872e-06
-3.32827e-06
-3.57109e-06
-3.77063e-06
-3.9302e-06
-4.05301e-06
-4.14234e-06
-4.20086e-06
-4.23083e-06
-4.23603e-06
-4.21847e-06
-4.18039e-06
-4.12411e-06
-4.05178e-06
-3.96541e-06
-3.86687e-06
-3.75794e-06
-3.64024e-06
-3.51533e-06
-3.38461e-06
-3.24939e-06
-3.11088e-06
-2.97018e-06
-2.82828e-06
-2.68611e-06
-2.54448e-06
-2.40413e-06
-2.26574e-06
-2.12987e-06
-1.99703e-06
-1.86766e-06
-1.74215e-06
-1.6208e-06
-1.50388e-06
-1.39159e-06
-1.28409e-06
-1.18147e-06
-1.08379e-06
-9.91061e-07
-9.03263e-07
-8.20344e-07
-7.42221e-07
-6.68815e-07
-5.9997e-07
-5.35659e-07
-4.75542e-07
-4.19907e-07
-3.6772e-07
-3.20552e-07
-2.74877e-07
-2.36807e-07
-1.94514e-07
-1.68741e-07
-1.22524e-07
-1.18687e-07
-5.17788e-08
-9.27585e-08
2.94774e-08
-1.01431e-07
1.36604e-07
-1.56382e-07
2.8058e-07
-2.58877e-07
4.52234e-07
-3.79333e-07
6.04289e-07
-4.46218e-07
6.5219e-07
-3.68829e-07
5.22621e-07
-1.08562e-07
2.38808e-07
2.3843e-07
-2.48415e-08
4.36247e-07
-5.82921e-09
2.33941e-07
4.69745e-07
4.50948e-05
4.44115e-05
4.34006e-05
4.21187e-05
4.06154e-05
3.8936e-05
3.71209e-05
3.52054e-05
3.32207e-05
3.11938e-05
2.91484e-05
2.71047e-05
2.50799e-05
2.30885e-05
2.11426e-05
1.92522e-05
1.74253e-05
1.56683e-05
1.3986e-05
1.23819e-05
1.08586e-05
9.41751e-06
8.05934e-06
6.78409e-06
5.59121e-06
4.47973e-06
3.44826e-06
2.4951e-06
1.61829e-06
8.15649e-07
8.47236e-08
-5.77105e-07
-1.17265e-06
-1.70485e-06
-2.1768e-06
-2.59167e-06
-2.9527e-06
-3.26318e-06
-3.52638e-06
-3.74557e-06
-3.92393e-06
-4.06452e-06
-4.17034e-06
-4.24447e-06
-4.28943e-06
-4.30732e-06
-4.30177e-06
-4.27467e-06
-4.22814e-06
-4.16441e-06
-4.08551e-06
-3.99338e-06
-3.88981e-06
-3.77648e-06
-3.65498e-06
-3.52677e-06
-3.39322e-06
-3.25558e-06
-3.11501e-06
-2.97257e-06
-2.82923e-06
-2.68586e-06
-2.54325e-06
-2.40212e-06
-2.2631e-06
-2.12675e-06
-1.99356e-06
-1.86395e-06
-1.73828e-06
-1.61685e-06
-1.49992e-06
-1.38766e-06
-1.28023e-06
-1.17772e-06
-1.08016e-06
-9.87581e-07
-8.99944e-07
-8.17199e-07
-7.39258e-07
-6.66041e-07
-5.97387e-07
-5.33267e-07
-4.7334e-07
-4.17886e-07
-3.65878e-07
-3.18868e-07
-2.73356e-07
-2.35412e-07
-1.93285e-07
-1.67591e-07
-1.21566e-07
-1.17718e-07
-5.10756e-08
-9.18946e-08
2.99162e-08
-1.00617e-07
1.36746e-07
-1.55598e-07
2.80467e-07
-2.5812e-07
4.52014e-07
-3.78741e-07
6.04149e-07
-4.45999e-07
6.52351e-07
-3.69107e-07
5.23165e-07
-1.09287e-07
2.39649e-07
2.37475e-07
-2.37618e-08
4.35034e-07
-3.80882e-09
2.31537e-07
4.73562e-07
3.54858e-05
3.55147e-05
3.51791e-05
3.45334e-05
3.36273e-05
3.25072e-05
3.12142e-05
2.97849e-05
2.82521e-05
2.66444e-05
2.49871e-05
2.33022e-05
2.16085e-05
1.99224e-05
1.82577e-05
1.66259e-05
1.50368e-05
1.3498e-05
1.20161e-05
1.05958e-05
9.241e-06
7.95424e-06
6.73736e-06
5.59133e-06
4.51654e-06
3.51281e-06
2.57953e-06
1.7157e-06
9.20034e-07
1.90915e-07
-4.73496e-07
-1.07525e-06
-1.6166e-06
-2.09999e-06
-2.52801e-06
-2.90338e-06
-3.2289e-06
-3.50749e-06
-3.74205e-06
-3.93553e-06
-4.09082e-06
-4.21075e-06
-4.29806e-06
-4.35565e-06
-4.38585e-06
-4.39058e-06
-4.37332e-06
-4.33582e-06
-4.28009e-06
-4.20823e-06
-4.12218e-06
-4.02377e-06
-3.9147e-06
-3.79659e-06
-3.67093e-06
-3.53913e-06
-3.40249e-06
-3.26222e-06
-3.11941e-06
-2.97508e-06
-2.83016e-06
-2.68549e-06
-2.54182e-06
-2.39983e-06
-2.26014e-06
-2.12327e-06
-1.9897e-06
-1.85983e-06
-1.73399e-06
-1.61248e-06
-1.49553e-06
-1.38331e-06