/*--------------------------------*- C++ -*----------------------------------*\
| =========                 |                                                 |
| \\      /  F ield         | OpenFOAM: The Open Source CFD Toolbox           |
|  \\    /   O peration     | Version:  2412                                  |
|   \\  /    A nd           | Website:  www.openfoam.com                      |
|    \\/     M anipulation  |                                                 |
\*---------------------------------------------------------------------------*/
FoamFile
{
    version     2.0;
    format      ascii;
    arch        "LSB;label=32;scalar=64";
    class       surfaceScalarField;
    location    "18";
    object      phi;
}
// * * * * * * * * * * * * * * * * * * * * * * * * * * * * * * * * * * * * * //

dimensions      [0 3 -1 0 0 0 0];

oriented        oriented;

internalField   nonuniform List<scalar> 
126304
(
0.00505063
1.28456e-07
1.40572e-13
0.00505025
3.75564e-07
1.42268e-11
0.00504964
6.0843e-07
4.37365e-11
0.00504882
8.25572e-07
8.9398e-11
0.00504778
1.03636e-06
1.36837e-10
0.00504651
1.27161e-06
1.39025e-10
0.00504493
1.5775e-06
2.37324e-11
0.00504294
1.99155e-06
-2.66877e-10
0.00504043
2.51637e-06
-7.30318e-10
0.00503732
3.11014e-06
-1.28459e-09
0.00503362
3.69936e-06
-1.78945e-09
0.00502942
4.20567e-06
-2.09565e-09
0.00502485
4.57157e-06
-2.09648e-09
0.00502007
4.7745e-06
-1.75765e-09
0.00501525
4.82655e-06
-1.11754e-09
0.00501049
4.76387e-06
-2.65561e-10
0.00500585
4.63254e-06
6.87862e-10
0.00500137
4.47641e-06
1.63873e-09
0.00499704
4.32952e-06
2.50739e-09
0.00499282
4.21354e-06
3.24505e-09
0.00498868
4.13867e-06
3.83173e-09
0.00498457
4.10651e-06
4.26954e-09
0.00498045
4.11326e-06
4.57477e-09
0.0049763
4.15259e-06
4.77058e-09
0.00497207
4.21757e-06
4.88134e-09
0.00496777
4.30195e-06
4.92918e-09
0.00496336
4.40062e-06
4.93228e-09
0.00495885
4.50976e-06
4.90464e-09
0.00495422
4.6267e-06
4.85632e-09
0.00494946
4.74973e-06
4.79426e-09
0.00494458
4.87778e-06
4.723e-09
0.00493956
5.0103e-06
4.64515e-09
0.00493441
5.14701e-06
4.56223e-09
0.00492912
5.28782e-06
4.47521e-09
0.00492368
5.43276e-06
4.3845e-09
0.0049181
5.5819e-06
4.29034e-09
0.00491236
5.7353e-06
4.19272e-09
0.00490646
5.89308e-06
4.09172e-09
0.0049004
6.05529e-06
3.9873e-09
0.00489417
6.22201e-06
3.87948e-09
0.00488778
6.3933e-06
3.76843e-09
0.0048812
6.56922e-06
3.65429e-09
0.00487445
6.7498e-06
3.53719e-09
0.00486751
6.93508e-06
3.4173e-09
0.00486038
7.12511e-06
3.2948e-09
0.00485306
7.31993e-06
3.16995e-09
0.00484554
7.51958e-06
3.04294e-09
0.00483781
7.72411e-06
2.91416e-09
0.00482988
7.93358e-06
2.78382e-09
0.00482172
8.14808e-06
2.65225e-09
0.00481335
8.36776e-06
2.51978e-09
0.00480476
8.59291e-06
2.38677e-09
0.00479593
8.82432e-06
2.25373e-09
0.00478687
9.0643e-06
2.12123e-09
9.31972e-06
0.00477754
1.99096e-09
0.00505063
2.56825e-07
0.00505025
7.50862e-07
0.00504965
1.21648e-06
0.00504882
1.65072e-06
0.00504778
2.07217e-06
0.00504651
2.54205e-06
0.00504494
3.15229e-06
0.00504295
3.97769e-06
0.00504045
5.02383e-06
0.00503735
6.20779e-06
0.00503366
7.38357e-06
0.00502947
8.39515e-06
0.00502492
9.12783e-06
0.00502016
9.53629e-06
0.00501534
9.64414e-06
0.00501058
9.52296e-06
0.00500595
9.26431e-06
0.00500147
8.95538e-06
0.00499713
8.66406e-06
0.00499291
8.43361e-06
0.00498877
8.28456e-06
0.00498465
8.22025e-06
0.00498053
8.2333e-06
0.00497638
8.31118e-06
0.00497215
8.44023e-06
0.00496785
8.60799e-06
0.00496344
8.80434e-06
0.00495893
9.02166e-06
0.0049543
9.25466e-06
0.00494955
9.49987e-06
0.00494468
9.7552e-06
0.00493967
1.00195e-05
0.00493452
1.02922e-05
0.00492924
1.05731e-05
0.00492381
1.08623e-05
0.00491823
1.11599e-05
0.0049125
1.1466e-05
0.00490661
1.17808e-05
0.00490056
1.21045e-05
0.00489435
1.24372e-05
0.00488796
1.2779e-05
0.0048814
1.313e-05
0.00487466
1.34902e-05
0.00486773
1.38599e-05
0.00486062
1.42389e-05
0.00485331
1.46275e-05
0.00484581
1.50257e-05
0.0048381
1.54336e-05
0.00483018
1.58513e-05
0.00482205
1.6279e-05
0.0048137
1.67169e-05
0.00480513
1.71656e-05
0.00479632
1.76267e-05
0.00478728
1.81043e-05
1.86103e-05
0.00477799
0.00505063
3.85022e-07
0.00505025
1.1256e-06
0.00504965
1.8237e-06
0.00504882
2.47483e-06
0.00504779
3.10659e-06
0.00504652
3.80991e-06
0.00504495
4.72169e-06
0.00504298
5.95375e-06
0.00504048
7.51521e-06
0.00503741
9.28344e-06
0.00503375
1.10415e-05
0.00502959
1.25569e-05
0.00502506
1.36581e-05
0.00502032
1.42765e-05
0.00501552
1.44462e-05
0.00501077
1.42731e-05
0.00500614
1.3893e-05
0.00500166
1.3436e-05
0.00499732
1.30034e-05
0.00499309
1.266e-05
0.00498894
1.24369e-05
0.00498482
1.23397e-05
0.00498069
1.23575e-05
0.00497653
1.24721e-05
0.00497231
1.26631e-05
0.00496801
1.29122e-05
0.00496361
1.32043e-05
0.0049591
1.3528e-05
0.00495448
1.38754e-05
0.00494974
1.42412e-05
0.00494487
1.46224e-05
0.00493987
1.50172e-05
0.00493474
1.54246e-05
0.00492947
1.58445e-05
0.00492406
1.62767e-05
0.00491849
1.67216e-05
0.00491278
1.71792e-05
0.00490691
1.76498e-05
0.00490088
1.81337e-05
0.00489469
1.8631e-05
0.00488833
1.91419e-05
0.00488179
1.96665e-05
0.00487507
2.02049e-05
0.00486818
2.07572e-05
0.00486109
2.13236e-05
0.00485382
2.19042e-05
0.00484634
2.24989e-05
0.00483867
2.31081e-05
0.00483079
2.37318e-05
0.0048227
2.43703e-05
0.00481439
2.50239e-05
0.00480586
2.56934e-05
0.00479711
2.63811e-05
0.00478812
2.70929e-05
2.78467e-05
0.00477888
0.00505063
5.12963e-07
0.00505026
1.49951e-06
0.00504965
2.42965e-06
0.00504883
3.29738e-06
0.00504779
4.13892e-06
0.00504653
5.07394e-06
0.00504497
6.28319e-06
0.00504301
7.91508e-06
0.00504054
9.98317e-06
0.0050375
1.23271e-05
0.00503388
1.46612e-05
0.00502975
1.66783e-05
0.00502526
1.81504e-05
0.00502055
1.89851e-05
0.00501577
1.92254e-05
0.00501104
1.90098e-05
0.00500641
1.8517e-05
0.00500193
1.79187e-05
0.00499759
1.73492e-05
0.00499335
1.68951e-05
0.00498919
1.65984e-05
0.00498506
1.6467e-05
0.00498093
1.64874e-05
0.00497677
1.66359e-05
0.00497255
1.6886e-05
0.00496824
1.72134e-05
0.00496385
1.75984e-05
0.00495935
1.80257e-05
0.00495474
1.84851e-05
0.00495001
1.89693e-05
0.00494516
1.94743e-05
0.00494018
1.99975e-05
0.00493507
2.05379e-05
0.00492982
2.10949e-05
0.00492443
2.16684e-05
0.00491889
2.22587e-05
0.0049132
2.28661e-05
0.00490736
2.34907e-05
0.00490136
2.41329e-05
0.0048952
2.47929e-05
0.00488887
2.54708e-05
0.00488237
2.61668e-05
0.0048757
2.68811e-05
0.00486884
2.76137e-05
0.0048618
2.83649e-05
0.00485457
2.91346e-05
0.00484714
2.99231e-05
0.00483952
3.07305e-05
0.0048317
3.15569e-05
0.00482366
3.24026e-05
0.00481542
3.3268e-05
0.00480696
3.41542e-05
0.00479828
3.50635e-05
0.00478937
3.60031e-05
3.69939e-05
0.00478022
0.00505063
6.40566e-07
0.00505026
1.8723e-06
0.00504965
3.03392e-06
0.00504883
4.11784e-06
0.0050478
5.16847e-06
0.00504654
6.33296e-06
0.00504499
7.83448e-06
0.00504305
9.85754e-06
0.00504061
1.24212e-05
0.00503761
1.53298e-05
0.00503404
1.82321e-05
0.00502997
2.0748e-05
0.00502552
2.2594e-05
0.00502086
2.36529e-05
0.00501611
2.3975e-05
0.00501139
2.37288e-05
0.00500677
2.31342e-05
0.00500229
2.24032e-05
0.00499793
2.17027e-05
0.00499369
2.11408e-05
0.00498952
2.07708e-05
0.00498538
2.06036e-05
0.00498124
2.06239e-05
0.00497708
2.08028e-05
0.00497285
2.11081e-05
0.00496856
2.15101e-05
0.00496417
2.19842e-05
0.00495968
2.25118e-05
0.00495509
2.30798e-05
0.00495038
2.36796e-05
0.00494555
2.43056e-05
0.00494059
2.49548e-05
0.0049355
2.56256e-05
0.00493028
2.63174e-05
0.00492492
2.70299e-05
0.00491941
2.77634e-05
0.00491376
2.85181e-05
0.00490796
2.92943e-05
0.004902
3.00923e-05
0.00489588
3.09123e-05
0.0048896
3.17545e-05
0.00488314
3.26191e-05
0.00487652
3.35063e-05
0.00486972
3.4416e-05
0.00486273
3.53486e-05
0.00485556
3.63039e-05
0.0048482
3.72823e-05
0.00484065
3.82838e-05
0.0048329
3.93086e-05
0.00482494
4.03569e-05
0.00481678
4.14291e-05
0.00480841
4.25263e-05
0.00479982
4.3651e-05
0.00479102
4.48104e-05
4.6026e-05
0.00478198
0.00505063
7.67756e-07
0.00505026
2.24369e-06
0.00504966
3.6361e-06
0.00504884
4.93568e-06
0.00504781
6.19454e-06
0.00504656
7.58584e-06
0.00504502
9.37353e-06
0.0050431
1.17776e-05
0.0050407
1.48237e-05
0.00503774
1.82841e-05
0.00503423
2.1745e-05
0.00503022
2.47563e-05
0.00502584
2.69796e-05
0.00502122
2.8272e-05
0.0050165
2.86886e-05
0.00501181
2.8426e-05
0.0050072
2.77425e-05
0.00500271
2.6889e-05
0.00499835
2.60642e-05
0.00499409
2.53978e-05
0.00498991
2.49549e-05
0.00498576
2.47503e-05
0.00498162
2.47671e-05
0.00497745
2.49723e-05
0.00497323
2.53283e-05
0.00496894
2.58001e-05
0.00496457
2.6359e-05
0.0049601
2.69827e-05
0.00495552
2.76557e-05
0.00495083
2.83673e-05
0.00494603
2.91111e-05
0.0049411
2.98832e-05
0.00493604
3.06815e-05
0.00493085
3.15051e-05
0.00492553
3.23538e-05
0.00492007
3.32276e-05
0.00491446
3.41268e-05
0.0049087
3.50516e-05
0.00490279
3.60023e-05
0.00489672
3.69791e-05
0.0048905
3.79823e-05
0.0048841
3.90119e-05
0.00487754
4.00682e-05
0.00487081
4.11511e-05
0.00486389
4.22608e-05
0.0048568
4.33974e-05
0.00484952
4.4561e-05
0.00484205
4.57517e-05
0.00483439
4.69695e-05
0.00482653
4.82147e-05
0.00481848
4.94877e-05
0.00481021
5.07892e-05
0.00480174
5.21214e-05
0.00479306
5.34908e-05
5.49167e-05
0.00478417
0.00505063
8.94411e-07
0.00505026
2.61347e-06
0.00504966
4.23575e-06
0.00504885
5.75033e-06
0.00504782
7.21641e-06
0.00504658
8.83156e-06
0.00504505
1.08986e-05
0.00504316
1.36722e-05
0.0050408
1.71864e-05
0.0050379
2.1184e-05
0.00503445
2.51928e-05
0.00503051
2.86954e-05
0.00502619
3.12996e-05
0.00502163
3.28355e-05
0.00501695
3.3361e-05
0.00501228
3.30973e-05
0.00500769
3.23392e-05
0.0050032
3.13745e-05
0.00499883
3.04329e-05
0.00499456
2.96659e-05
0.00499037
2.91506e-05
0.00498621
2.89066e-05
0.00498206
2.89163e-05
0.00497789
2.9143e-05
0.00497367
2.95445e-05
0.00496939
3.00811e-05
0.00496503
3.07197e-05
0.00496058
3.14348e-05
0.00495603
3.22083e-05
0.00495137
3.30278e-05
0.00494659
3.38855e-05
0.0049417
3.47768e-05
0.00493668
3.56992e-05
0.00493154
3.66513e-05
0.00492626
3.76327e-05
0.00492084
3.86435e-05
0.00491528
3.96837e-05
0.00490958
4.07536e-05
0.00490373
4.18533e-05
0.00489773
4.29832e-05
0.00489157
4.41433e-05
0.00488524
4.53338e-05
0.00487876
4.65548e-05
0.0048721
4.78063e-05
0.00486528
4.90883e-05
0.00485827
5.04009e-05
0.00485109
5.17442e-05
0.00484372
5.31182e-05
0.00483617
5.45229e-05
0.00482843
5.59584e-05
0.00482049
5.7425e-05
0.00481235
5.89231e-05
0.00480402
6.04543e-05
0.00479549
6.20223e-05
0.00478677
6.36382e-05
0.00477822
-6.82534e-07
1.87031e-09
0.00477839
-1.63566e-07
1.77154e-09
0.00477799
3.90381e-07
1.65166e-09
0.00477701
9.81558e-07
1.54041e-09
0.0047754
1.61376e-06
1.42234e-09
0.0047731
2.29006e-06
1.29702e-09
0.00477009
3.0144e-06
1.16493e-09
0.0047663
3.79121e-06
1.02606e-09
0.00476167
4.62537e-06
8.80051e-10
0.00475615
5.52236e-06
7.27156e-10
0.00474966
6.48823e-06
5.67252e-10
0.00474213
7.52973e-06
4.00312e-10
0.00473347
8.65439e-06
2.2656e-10
0.0047236
9.87057e-06
4.66372e-11
0.00471242
1.11877e-05
-1.41441e-10
0.0046998
1.26162e-05
-3.34429e-10
0.00468563
1.41681e-05
-5.42491e-10
0.00466978
1.5857e-05
-7.50859e-10
0.00465208
1.76986e-05
-9.50032e-10
0.00463237
1.97104e-05
-1.14961e-09
0.00461046
2.19131e-05
-1.34203e-09
0.00458613
2.43305e-05
-1.53077e-09
0.00455914
2.69907e-05
-1.7124e-09
0.00452922
2.99265e-05
-1.88455e-09
0.00449604
3.3177e-05
-2.04515e-09
0.00445925
3.67882e-05
-2.19352e-09
0.00441844
4.08152e-05
-2.32858e-09
0.00437312
4.53237e-05
-2.45054e-09
0.00432273
5.03926e-05
-2.56013e-09
0.00426662
5.61173e-05
-2.65802e-09
0.00420401
6.26128e-05
-2.74564e-09
0.00413399
7.00193e-05
-2.825e-09
0.00405548
7.85079e-05
-2.89738e-09
0.0039672
8.82877e-05
-2.9651e-09
0.00386759
9.96141e-05
-3.02989e-09
0.00375479
0.000112797
-3.09289e-09
0.00362659
0.000128209
-3.15524e-09
0.00348031
0.000146283
-3.2179e-09
0.00331281
0.000167497
-3.28114e-09
0.00312048
0.000192335
-3.34568e-09
0.0028993
0.00022119
-3.41241e-09
0.00264511
0.000254187
-3.48223e-09
0.00235424
0.000290878
-3.55629e-09
0.00202448
0.000329761
-3.6335e-09
0.00165694
0.000367543
-3.70504e-09
0.00125883
0.00039811
-3.74434e-09
0.000847637
0.000411201
-3.68933e-09
0.000456893
0.000390747
-3.41771e-09
0.000144581
0.000312315
-2.72218e-09
0.000144582
-1.30251e-09
0.0047773
9.10989e-09
0.0047761
1.03804e-06
0.00477435
2.14559e-06
0.004772
3.32673e-06
0.00476903
4.58883e-06
0.00476538
5.93903e-06
0.00476101
7.38527e-06
0.00475586
8.9364e-06
0.00474988
1.06023e-05
0.00474301
1.23938e-05
0.00473518
1.43231e-05
0.0047263
1.64038e-05
0.00471631
1.86509e-05
0.0047051
2.10811e-05
0.00469257
2.37134e-05
0.00467862
2.65686e-05
0.00466311
2.96709e-05
0.00464592
3.30476e-05
0.00462689
3.67299e-05
0.00460585
4.07532e-05
0.0045826
4.51587e-05
0.00455694
4.99944e-05
0.00452861
5.53165e-05
0.00449735
6.11909e-05
0.00446283
6.76955e-05
0.0044247
7.49228e-05
0.00438253
8.29827e-05
0.00433585
9.20069e-05
0.00428409
0.000102153
0.00422659
0.000113611
0.00416259
0.000126611
0.00409118
0.000141431
0.00401128
0.000158411
0.0039216
0.000177967
0.00382061
0.000200603
0.00370648
0.000226932
0.003577
0.000257685
0.00342958
0.00029371
0.00326113
0.000335941
0.00306816
0.000385308
0.0028468
0.000442551
0.00259313
0.00050786
0.00230373
0.000580278
0.00197674
0.000656742
0.00161363
0.000730653
0.0012219
0.000789845
0.000819157
0.000813943
0.000438613
0.000771291
0.000136152
0.000614776
0.000280734
0.00477548
3.40759e-06
0.00477156
4.95729e-06
0.0047671
6.61145e-06
0.00476205
8.37748e-06
0.00475637
1.02647e-05
0.00475003
1.2284e-05
0.00474296
1.44472e-05
0.00473513
1.67677e-05
0.00472648
1.92604e-05
0.00471693
2.19416e-05
0.00470642
2.48297e-05
0.00469488
2.79449e-05
0.00468222
3.13099e-05
0.00466835
3.495e-05
0.00465317
3.88934e-05
0.00463657
4.31718e-05
0.00461842
4.78214e-05
0.00459858
5.28832e-05
0.00457691
5.84042e-05
0.00455322
6.44379e-05
0.00452734
7.10463e-05
0.00449903
7.83016e-05
0.00446806
8.62883e-05
0.00443414
9.51057e-05
0.00439697
0.000104871
0.00435617
0.000115723
0.00431132
0.000127826
0.00426195
0.000141379
0.00420749
0.000156617
0.00414727
0.000173824
0.00408054
0.000193343
0.00400638
0.000215589
0.00392373
0.000241065
0.00383131
0.000270385
0.00372762
0.000304294
0.00361086
0.000343689
0.00347891
0.000389635
0.00332927
0.000443358
0.00315901
0.000506192
0.00296488
0.000579444
0.00274333
0.000664102
0.00249088
0.000760306
0.00220469
0.000866464
0.00188358
0.000977853
0.00152968
0.00108456
0.00115094
0.00116858
0.000765035
0.00119985
0.000404693
0.00113163
0.000123213
0.000896256
0.000403947
0.00477278
1.08426e-05
0.00476484
1.29013e-05
0.00475635
1.50964e-05
0.00474729
1.74398e-05
0.00473761
1.99445e-05
0.00472727
2.26249e-05
0.00471622
2.54971e-05
0.00470441
2.8579e-05
0.00469178
3.18905e-05
0.00467827
3.54535e-05
0.00466381
3.92925e-05
0.00464832
4.34346e-05
0.00463172
4.791e-05
0.00461391
5.27526e-05
0.00459481
5.80002e-05
0.00457428
6.36951e-05
0.00455222
6.98857e-05
0.00452847
7.66272e-05
0.0045029
8.39824e-05
0.00447531
9.2023e-05
0.00444553
0.000100832
0.00441332
0.000110506
0.00437845
0.000121159
0.00434063
0.000132923
0.00429955
0.000145955
0.00425483
0.00016044
0.00420606
0.000176599
0.00415274
0.000194695
0.00409432
0.000215042
0.00403013
0.000238016
0.0039594
0.00026407
0.00388124
0.000293752
0.00379458
0.000327722
0.00369818
0.000366782
0.00359058
0.000411898
0.00347004
0.000464226
0.00333455
0.000525125
0.00318177
0.000596142
0.00300903
0.000678927
0.00281343
0.000775047
0.00259194
0.000885588
0.00234179
0.00101046
0.00206099
0.00114726
0.00174939
0.00128946
0.00141005
0.0014239
0.00105149
0.00152715
0.000690892
0.00156045
0.000359152
0.00146337
0.000104843
0.00115057
0.00050879
0.00476925
2.35745e-05
0.00475602
2.61302e-05
0.00474227
2.88552e-05
0.00472794
3.17647e-05
0.00471301
3.48753e-05
0.00469743
3.82053e-05
0.00468115
4.1775e-05
0.00466412
4.56067e-05
0.00464629
4.97255e-05
0.00462758
5.41587e-05
0.00460794
5.8937e-05
0.00458728
6.40944e-05
0.00456552
6.96689e-05
0.00454257
7.57027e-05
0.00451833
8.22432e-05
0.00449268
8.93439e-05
0.0044655
9.70652e-05
0.00443665
0.000105477
0.00440597
0.000114657
0.0043733
0.000124697
0.00433843
0.0001357
0.00430115
0.000147788
0.00426121
0.000161104
0.00421831
0.000175814
0.00417215
0.000192115
0.00412235
0.00021024
0.00406849
0.000230464
0.00401007
0.000253115
0.00394653
0.000278584
0.00387721
0.000307339
0.00380134
0.000339939
0.00371803
0.000377059
0.00362624
0.000419508
0.00352477
0.000468258
0.00341219
0.000524473
0.00328689
0.000589531
0.00314698
0.000665027
0.00299038
0.000752742
0.00281478
0.000854527
0.00261779
0.00097204
0.00239712
0.00110626
0.00215099
0.0012566
0.00187865
0.00141959
0.00158133
0.00158678
0.00126337
0.00174186
0.000933791
0.00185673
0.000608476
0.00188576
0.000313421
0.00175843
8.67563e-05
0.00137723
0.000595546
0.00476495
4.27954e-05
0.00474525
4.58309e-05
0.00472504
4.90695e-05
0.00470427
5.2529e-05
0.00468292
5.62298e-05
0.00466093
6.01938e-05
0.00463826
6.44455e-05
0.00461485
6.90116e-05
0.00459066
7.39221e-05
0.00456561
7.92098e-05
0.00453963
8.49117e-05
0.00451266
9.10686e-05
0.0044846
9.77261e-05
0.00445537
0.000104935
0.00442486
0.000112753
0.00439296
0.000121244
0.00435954
0.00013048
0.00432447
0.000140547
0.00428759
0.000151539
0.00424872
0.000163564
0.00420767
0.00017675
0.00416422
0.000191243
0.00411811
0.000207215
0.00406905
0.000224867
0.00401673
0.000244437
0.00396077
0.000266204
0.00390073
0.000290499
0.00383613
0.000317717
0.00376639
0.000348324
0.00369085
0.000382876
0.00360875
0.000422038
0.00351921
0.000466601
0.00342121
0.000517511
0.00331357
0.000575892
0.00319498
0.000643071
0.00306391
0.000720593
0.00291874
0.000810206
0.00275768
0.000913799
0.00257897
0.00103324
0.00238099
0.00117002
0.00216258
0.00132467
0.00192343
0.00149575
0.00166473
0.0016783
0.00138981
0.00186169
0.00110495
0.00202672
0.000819964
0.00214171
0.000548445
0.00215728
0.000306374
0.0020005
0.000105778
0.00157783
0.000701325
0.00475996
6.96045e-05
0.0047327
7.30947e-05
0.00470494
7.68244e-05
0.00467666
8.08127e-05
0.0046478
8.50828e-05
0.00461834
8.966e-05
0.00458821
9.45725e-05
0.00455737
9.98514e-05
0.00452576
0.000105531
0.00449332
0.000111651
0.00445998
0.000118253
0.00442566
0.000125385
0.00439029
0.000133101
0.00435376
0.00014146
0.00431599
0.000150528
0.00427685
0.000160382
0.00423622
0.000171106
0.00419397
0.0001828
0.00414993
0.000195575
0.00410394
0.000209558
0.00405579
0.000224898
0.00400527
0.000241768
0.00395212
0.000260368
0.00389605
0.000280937
0.00383673
0.00030375
0.0037738
0.000329137
0.00370681
0.000357484
0.00363528
0.00038925
0.00355863
0.000424978
0.00347619
0.000465311
0.00338722
0.000511013
0.00329083
0.00056299
0.00318603
0.00062231
0.00307169
0.000690229
0.00294656
0.000768206
0.00280925
0.000857895
0.00265835
0.00096111
0.00249244
0.00107971
0.00231034
0.00121534
0.00211134
0.00136902
0.0018956
0.0015404
0.00166476
0.00172658
0.00142258
0.00192049
0.00117562
0.00210865
0.000933764
0.00226857
0.000709788
0.00236569
0.000516782
0.00235029
0.00035922
0.00215806
0.000217442
0.0017196
0.000918767
-3.03938e-05
3.03945e-05
-7.00585e-10
-8.61088e-05
5.57167e-05
-1.69291e-09
-0.000145497
5.93907e-05
-2.39344e-09
-0.000195862
5.03675e-05
-2.86429e-09
-0.000230136
3.42771e-05
-3.13268e-09
-0.000244661
1.45281e-05
-3.20755e-09
-0.000237999
-6.65855e-06
-3.03819e-09
-0.000210414
-2.75822e-05
-2.74708e-09
-0.000162438
-4.79737e-05
-2.26082e-09
-9.52442e-05
-6.71924e-05
-1.58385e-09
-1.03132e-05
-8.49303e-05
-7.36624e-10
9.06749e-05
-0.000100988
2.52814e-10
0.000205964
-0.000115291
1.35382e-09
0.000333756
-0.000127794
2.52884e-09
0.000472251
-0.000138499
3.73511e-09
0.000619683
-0.000147437
4.93746e-09
0.000774339
-0.000154663
6.108e-09
0.00093458
-0.000160247
7.23075e-09
0.00109885
-0.000164278
8.29094e-09
0.00126569
-0.000166851
9.33683e-09
0.00143375
-0.000168072
1.02157e-08
0.00160179
-0.000168052
1.10455e-08
0.00176868
-0.000166899
1.16365e-08
0.00193339
-0.000164725
1.21982e-08
0.00209503
-0.000161646
1.2882e-08
0.00225279
-0.000157779
1.32051e-08
0.00240602
-0.000153239
1.32692e-08
0.00255414
-0.000148132
1.29961e-08
0.00269669
-0.000142563
1.24673e-08
0.00283331
-0.000136629
1.17263e-08
0.00296371
-0.000130419
1.08033e-08
0.00308772
-0.000124019
9.72357e-09
0.00320522
-0.000117505
8.51529e-09
0.00331616
-0.000110946
7.21337e-09
0.00342056
-0.000104405
5.85557e-09
0.00351849
-9.79367e-05
4.48437e-09
0.00361008
-9.15881e-05
3.1419e-09
0.00369547
-8.54001e-05
1.86629e-09
0.00377488
-7.94063e-05
6.91466e-10
0.00384851
-7.36343e-05
-3.55852e-10
0.00391662
-6.81054e-05
-1.25751e-09
0.00397946
-6.28357e-05
-1.99979e-09
0.0040373
-5.7836e-05
-2.57789e-09
0.00409041
-5.31125e-05
-2.99233e-09
0.00413908
-4.86676e-05
-3.24623e-09
0.00418359
-4.45e-05
-3.34824e-09
0.0042242
-4.06051e-05
-3.30902e-09
0.00426117
-3.69757e-05
-3.13922e-09
0.00429478
-3.36021e-05
-2.85124e-09
-3.04724e-05
0.00432525
-2.45629e-09
-2.66618e-05
5.70563e-05
-7.53369e-05
0.000104392
-0.000126724
0.000110778
-0.000169656
9.32994e-05
-0.000197685
6.23067e-05
-0.000207362
2.42043e-05
-0.000197467
-1.65531e-05
-0.000167893
-5.71562e-05
-0.000119112
-9.67547e-05
-5.21064e-05
-0.000134198
3.18059e-05
-0.000168842
0.000131115
-0.000200297
0.000244218
-0.000228394
0.00036945
-0.000253026
0.000505128
-0.000274176
0.000649582
-0.000291892
0.000801184
-0.000306265
0.000958362
-0.000317426
0.00111962
-0.000325534
0.00128354
-0.000330774
0.00144881
-0.000333346
0.00161422
-0.000333461
0.00177866
-0.000331331
0.00194111
-0.000327177
0.00210068
-0.000321219
0.00225659
-0.000313688
0.00240816
-0.000304811
0.00255483
-0.0002948
0.00269613
-0.00028386
0.00283168
-0.000272183
0.00296121
-0.000259948
0.00308451
-0.000247323
0.00320147
-0.000234461
0.00331202
-0.000221501
0.00341619
-0.000208567
0.00351402
-0.000195768
0.00360563
-0.000183199
0.00369117
-0.000170943
0.00377083
-0.000159066
0.00384482
-0.000147624
0.00391337
-0.00013666
0.00397674
-0.000126206
0.00403519
-0.000116285
0.00408899
-0.00010691
0.00413841
-9.80858e-05
0.00418372
-8.98099e-05
0.00422519
-8.20739e-05
0.00426308
-7.48638e-05
0.00429763
-6.81603e-05
-6.19389e-05
0.0043291
-2.00449e-05
7.71012e-05
-5.46493e-05
0.000138996
-9.07413e-05
0.00014687
-0.000119507
0.000122065
-0.000135716
7.85155e-05
-0.000136255
2.47439e-05
-0.0001204
-3.24084e-05
-8.72339e-05
-9.03223e-05
-3.71149e-05
-0.000146874
2.92363e-05
-0.000200549
0.000110902
-0.000250509
0.000206765
-0.00029616
0.000315488
-0.000337116
0.000435653
-0.000373192
0.000565799
-0.000404322
0.000704444
-0.000430537
0.000850118
-0.000451939
0.00100138
-0.000468688
0.00115684
-0.000480995
0.00131517
-0.000489105
0.00147512
-0.000493297
0.00163553
-0.000493867
0.00179532
-0.000491119
0.0019535
-0.000485363
0.00210921
-0.000476922
0.00226165
-0.000466129
0.00241015
-0.000453313
0.00255414
-0.000438791
0.00269314
-0.000422861
0.00282677
-0.000405808
0.00295472
-0.0003879
0.00307678
-0.000369385
0.00319281
-0.000350492
0.00330274
-0.000331428
0.00340655
-0.00031238
0.0035043
-0.00029351
0.00359606
-0.000274964
0.00368198
-0.000256863
0.00376222
-0.00023931
0.00383699
-0.000222389
0.0039065
-0.000206166
0.00397098
-0.000190691
0.00403069
-0.000175997
0.00408589
-0.000162106
0.00413683
-0.000149026
0.00418377
-0.000136755
0.00422698
-0.000125281
0.0042667
-0.000114583
0.00430317
-0.000104634
-9.5395e-05
0.00433663
-8.30204e-06
8.54032e-05
-2.44176e-05
0.000155112
-3.94739e-05
0.000161926
-4.8716e-05
0.000131307
-4.89008e-05
7.87003e-05
-3.71187e-05
1.29618e-05
-1.33296e-05
-5.61976e-05
2.37876e-05
-0.000127439
7.47513e-05
-0.000197837
0.000139513
-0.000265311
0.00021755
-0.000328545
0.000308103
-0.000386713
0.000410261
-0.000439275
0.000522971
-0.000485901
0.000645079
-0.00052643
0.000775366
-0.000560824
0.000912582
-0.000589154
0.00105547
-0.000611573
0.00120277
-0.000628302
0.00135329
-0.000639622
0.00150585
-0.00064586
0.00165936
-0.000647375
0.00181279
-0.000644543
0.00196517
-0.000637753
0.00211566
-0.000627407
0.00226346
-0.00061393
0.0024079
-0.000597751
0.00254839
-0.000579277
0.00268443
-0.0005589
0.00281561
-0.000536993
0.00294162
-0.000513907
0.0030622
-0.000489971
0.0031772
-0.000465488
0.00328651
-0.000440734
0.00339008
-0.000415957
0.00348795
-0.000391377
0.00358017
-0.000367186
0.00366686
-0.00034355
0.00374816
-0.000320607
0.00382424
-0.000298471
0.0038953
-0.000277231
0.00396157
-0.000256956
0.00402327
-0.000237694
0.00408064
-0.000219475
0.00413392
-0.000202311
0.00418337
-0.000186201
0.00422922
-0.000171132
0.00427171
-0.000157077
0.00431108
-0.000144001
-0.000131848
0.00434753
6.74489e-06
7.86583e-05
1.42884e-05
0.000147568
2.48376e-05
0.000151377
3.84744e-05
0.00011767
5.68103e-05
6.03643e-05
8.10453e-05
-1.12732e-05
0.000112898
-8.805e-05
0.000154158
-0.0001687
0.000205485
-0.000249164
0.000267376
-0.000327202
0.000340009
-0.000401179
0.000423243
-0.000469948
0.000516677
-0.000532708
0.000619698
-0.000588922
0.000731529
-0.000638261
0.000851269
-0.000680565
0.000977929
-0.000715814
0.00111046
-0.000744104
0.00124779
-0.000765629
0.00138883
-0.000780662
0.00153251
-0.000789546
0.00167781
-0.000792674
0.00182374
-0.000790474
0.00196938
-0.000783389
0.00211386
-0.000771889
0.0022564
-0.000756472
0.00239631
-0.000737655
0.00253296
-0.000715933
0.00266585
-0.000691784
0.00279452
-0.000665664
0.00291862
-0.000638007
0.00303787
-0.00060922
0.00315206
-0.000579681
0.00326106
-0.000549735
0.0033648
-0.000519693
0.00346325
-0.000489832
0.00355646
-0.000460394
0.0036445
-0.00043159
0.00372749
-0.000403595
0.00380557
-0.000376555
0.00387893
-0.000350586
0.00394775
-0.000325776
0.00401224
-0.000302188
0.00407263
-0.000279863
0.00412914
-0.000258819
0.00418199
-0.000239058
0.00423143
-0.000220565
0.00427766
-0.000203311
0.00432091
-0.000187251
-0.000172315
0.00436138
2.29666e-05
5.56917e-05
5.85285e-05
0.000112006
9.73759e-05
0.00011253
0.000136282
7.87642e-05
0.000174516
2.21298e-05
0.000211074
-4.78309e-05
0.000250558
-0.000127534
0.000294299
-0.000212441
0.000343997
-0.000298862
0.000400939
-0.000384144
0.000466017
-0.000466256
0.000539741
-0.000543672
0.000622284
-0.000615251
0.000713527
-0.000680165
0.000813111
-0.000737846
0.000920484
-0.000787938
0.00103494
-0.00083027
0.00115566
-0.000864822
0.00128174
-0.00089171
0.00141223
-0.000911156
0.00154617
-0.000923481
0.00168257
-0.00092908
0.0018205
-0.000928404
0.00195905
-0.000921934
0.00209734
-0.000910181
0.00223458
-0.00089371
0.00237003
-0.000873111
0.00250306
-0.00084896
0.00263309
-0.000821815
0.00275964
-0.000792212
0.0028823
-0.000760669
0.00300075
-0.000727669
0.00311474
-0.000693667
0.00322408
-0.000659077
0.00332866
-0.000624275
0.00342843
-0.0005896
0.00352338
-0.000555346
0.00361356
-0.000521769
0.00369905
-0.000489087
0.00377998
-0.000457479
0.00385648
-0.000427089
0.00392873
-0.000398027
0.00399691
-0.000370374
0.00406123
-0.000344182
0.0041219
-0.00031948
0.00417911
-0.000296271
0.00423309
-0.000274543
0.00428404
-0.000254262
0.00433217
-0.00023538
-0.000217813
0.00437766
4.2464e-05
1.32278e-05
0.000110914
4.35566e-05
0.00017869
4.47535e-05
0.000241527
1.59271e-05
0.000294868
-3.12116e-05
0.000341874
-9.4837e-05
0.000385761
-0.000171421
0.000429185
-0.000255865
0.000474681
-0.000344358
0.00052434
-0.000433802
0.000579783
-0.0005217
0.000642172
-0.000606061
0.000712243
-0.000685321
0.000790361
-0.000758284
0.000876577
-0.000824061
0.000970671
-0.000882033
0.00107221
-0.000931811
0.0011806
-0.000973206
0.00129509
-0.0010062
0.00141485
-0.00103092
0.00153901
-0.00104763
0.00166663
-0.0010567
0.00179679
-0.00105856
0.00192858
-0.00105373
0.00206113
-0.00104273
0.0021936
-0.00102618
0.00232522
-0.00100473
0.00245529
-0.000979031
0.00258319
-0.000949719
0.00270839
-0.00091741
0.00283042
-0.0008827
0.00294891
-0.000846154
0.00306354
-0.000808302
0.0031741
-0.000769634
0.00328042
-0.000730593
0.0033824
-0.000691579
0.00348
-0.000652946
0.00357323
-0.000614998
0.00366214
-0.000577997
0.00374682
-0.000542159
0.00382739
-0.00050766
0.00390399
-0.000474634
0.0039768
-0.000443181
0.00404599
-0.000413369
0.00411174
-0.000385234
0.00417426
-0.000358789
0.00423374
-0.000334019
0.00429037
-0.000310894
0.00434435
-0.00028936
0.00439587
-0.000269334
0.00436242
-3.71593e-05
-1.97682e-09
0.00439763
-3.52165e-05
-1.43431e-09
0.00443099
-3.33584e-05
-8.16361e-10
0.00446258
-3.15901e-05
-1.47726e-10
0.00449249
-2.99129e-05
5.52934e-10
0.00452082
-2.83265e-05
1.26524e-09
0.00454765
-2.68297e-05
1.97431e-09
0.00457307
-2.54206e-05
2.66879e-09
0.00459716
-2.40965e-05
3.33961e-09
0.00462001
-2.28542e-05
3.97997e-09
0.00464169
-2.16902e-05
4.58718e-09
0.00466229
-2.06006e-05
5.16215e-09
0.00468187
-1.95812e-05
5.70572e-09
0.00470049
-1.86276e-05
6.22147e-09
0.00471822
-1.77351e-05
6.71549e-09
0.00473511
-1.68987e-05
7.19232e-09
0.00475121
-1.61126e-05
7.65514e-09
0.00476657
-1.5371e-05
8.10716e-09
0.00478123
-1.46672e-05
8.54991e-09
0.00479522
-1.39943e-05
8.98001e-09
0.00480855
-1.33453e-05
9.39093e-09
0.00482126
-1.27134e-05
9.77397e-09
0.00483334
-1.20928e-05
1.01158e-08
0.00484481
-1.14793e-05
1.04003e-08
0.00485567
-1.08713e-05
1.06106e-08
0.00486593
-1.027e-05
1.07315e-08
0.0048756
-9.67941e-06
1.07482e-08
0.00488469
-9.10628e-06
1.06512e-08
0.00489324
-8.55894e-06
1.04378e-08
0.00490128
-8.04593e-06
1.01099e-08
0.00490884
-7.57455e-06
9.67636e-09
0.00491598
-7.14953e-06
9.15188e-09
0.00492275
-6.77222e-06
8.55514e-09
0.00492918
-6.44047e-06
7.90561e-09
0.00493532
-6.14914e-06
7.22344e-09
0.00494121
-5.89116e-06
6.52727e-09
0.00494686
-5.65871e-06
5.83237e-09
0.0049523
-5.44437e-06
5.15094e-09
0.00495754
-5.24193e-06
4.4923e-09
0.00496258
-5.04678e-06
3.86185e-09
0.00496743
-4.85596e-06
3.26279e-09
0.0049721
-4.6679e-06
2.69793e-09
0.00497658
-4.48207e-06
2.16832e-09
0.00498087
-4.29864e-06
1.67626e-09
0.00498499
-4.1178e-06
1.23517e-09
0.00498893
-3.94047e-06
8.20899e-10
0.0049927
-3.76715e-06
4.40244e-10
0.00499629
-3.59824e-06
9.14603e-11
0.00499973
-3.43401e-06
-2.25904e-10
0.005003
-3.27467e-06
-5.16937e-10
0.00500613
-3.1203e-06
-7.8973e-10
0.0050091
-2.97093e-06
-1.05293e-09
0.00501193
-2.82656e-06
-1.31503e-09
0.00501461
-2.68713e-06
-1.58507e-09
0.00501717
-2.55255e-06
-1.87041e-09
0.00501959
-2.42273e-06
-2.17496e-09
0.00502189
-2.29757e-06
-2.50006e-09
0.00502407
-2.17695e-06