/*--------------------------------*- C++ -*----------------------------------*\
| =========                 |                                                 |
| \\      /  F ield         | OpenFOAM: The Open Source CFD Toolbox           |
|  \\    /   O peration     | Version:  2412                                  |
|   \\  /    A nd           | Website:  www.openfoam.com                      |
|    \\/     M anipulation  |                                                 |
\*---------------------------------------------------------------------------*/
FoamFile
{
    version     2.0;
    format      ascii;
    arch        "LSB;label=32;scalar=64";
    class       volVectorField;
    location    "18";
    object      U;
}
// * * * * * * * * * * * * * * * * * * * * * * * * * * * * * * * * * * * * * //

dimensions      [0 1 -1 0 0 0 0];

internalField   nonuniform List<vector> 
63420
(
(0.0999997 4.34801e-07 0)
(0.099995 1.29665e-06 0)
(0.0999852 2.14254e-06 0)
(0.0999709 2.96515e-06 0)
(0.0999525 3.79662e-06 0)
(0.0999299 4.75206e-06 0)
(0.0999022 6.01472e-06 0)
(0.0998675 7.74802e-06 0)
(0.0998234 9.98883e-06 0)
(0.099768 1.25953e-05 0)
(0.0997005 1.52821e-05 0)
(0.0996217 1.77201e-05 0)
(0.0995341 1.96438e-05 0)
(0.0994408 2.09209e-05 0)
(0.0993451 2.15652e-05 0)
(0.0992497 2.17031e-05 0)
(0.0991565 2.15189e-05 0)
(0.0990662 2.12019e-05 0)
(0.0989791 2.09097e-05 0)
(0.0988947 2.07514e-05 0)
(0.0988121 2.07867e-05 0)
(0.0987306 2.10356e-05 0)
(0.0986493 2.14909e-05 0)
(0.0985676 2.21306e-05 0)
(0.0984847 2.29275e-05 0)
(0.0984004 2.38555e-05 0)
(0.0983142 2.48925e-05 0)
(0.0982259 2.6022e-05 0)
(0.0981355 2.72326e-05 0)
(0.0980426 2.85178e-05 0)
(0.0979472 2.98744e-05 0)
(0.0978493 3.13015e-05 0)
(0.0977486 3.28005e-05 0)
(0.0976453 3.43737e-05 0)
(0.0975391 3.6024e-05 0)
(0.09743 3.77549e-05 0)
(0.0973179 3.95702e-05 0)
(0.0972028 4.14737e-05 0)
(0.0970845 4.34695e-05 0)
(0.0969629 4.55617e-05 0)
(0.096838 4.77543e-05 0)
(0.0967096 5.00517e-05 0)
(0.0965777 5.24582e-05 0)
(0.0964422 5.49783e-05 0)
(0.096303 5.76167e-05 0)
(0.09616 6.03783e-05 0)
(0.0960131 6.3268e-05 0)
(0.0958621 6.62912e-05 0)
(0.0957071 6.94535e-05 0)
(0.0955479 7.27607e-05 0)
(0.0953844 7.62198e-05 0)
(0.0952165 7.98392e-05 0)
(0.0950441 8.36326e-05 0)
(0.094867 8.76298e-05 0)
(0.0946851 9.19077e-05 0)
(0.0999997 1.30411e-06 0)
(0.099995 3.88917e-06 0)
(0.0999852 6.42674e-06 0)
(0.0999709 8.8949e-06 0)
(0.0999525 1.13893e-05 0)
(0.09993 1.42534e-05 0)
(0.0999023 1.80341e-05 0)
(0.0998677 2.32198e-05 0)
(0.0998237 2.99222e-05 0)
(0.0997685 3.77193e-05 0)
(0.0997012 4.57612e-05 0)
(0.0996227 5.30652e-05 0)
(0.0995354 5.88382e-05 0)
(0.0994423 6.26836e-05 0)
(0.0993468 6.46403e-05 0)
(0.0992516 6.50838e-05 0)
(0.0991584 6.45628e-05 0)
(0.0990681 6.36414e-05 0)
(0.098981 6.27901e-05 0)
(0.0988965 6.23347e-05 0)
(0.0988139 6.24545e-05 0)
(0.0987323 6.32099e-05 0)
(0.098651 6.45802e-05 0)
(0.0985691 6.65005e-05 0)
(0.0984863 6.88902e-05 0)
(0.098402 7.16715e-05 0)
(0.0983158 7.47789e-05 0)
(0.0982276 7.81634e-05 0)
(0.0981372 8.17912e-05 0)
(0.0980444 8.56425e-05 0)
(0.0979491 8.97077e-05 0)
(0.0978512 9.39848e-05 0)
(0.0977508 9.84773e-05 0)
(0.0976475 0.000103192 0)
(0.0975415 0.000108138 0)
(0.0974326 0.000113325 0)
(0.0973206 0.000118766 0)
(0.0972057 0.00012447 0)
(0.0970875 0.000130451 0)
(0.0969662 0.00013672 0)
(0.0968415 0.00014329 0)
(0.0967133 0.000150174 0)
(0.0965817 0.000157384 0)
(0.0964465 0.000164934 0)
(0.0963075 0.000172839 0)
(0.0961648 0.000181111 0)
(0.0960182 0.000189768 0)
(0.0958676 0.000198823 0)
(0.095713 0.000208294 0)
(0.0955541 0.000218199 0)
(0.095391 0.000228558 0)
(0.0952236 0.000239396 0)
(0.0950516 0.000250754 0)
(0.0948751 0.000262715 0)
(0.0946937 0.000275491 0)
(0.0999997 2.17254e-06 0)
(0.099995 6.47881e-06 0)
(0.0999852 1.07065e-05 0)
(0.099971 1.48191e-05 0)
(0.0999526 1.89744e-05 0)
(0.0999301 2.37402e-05 0)
(0.0999025 3.00222e-05 0)
(0.099868 3.86319e-05 0)
(0.0998243 4.97584e-05 0)
(0.0997694 6.27078e-05 0)
(0.0997026 7.60754e-05 0)
(0.0996247 8.82329e-05 0)
(0.0995379 9.78629e-05 0)
(0.0994454 0.000104303 0)
(0.0993502 0.000107611 0)
(0.0992552 0.000108403 0)
(0.0991621 0.000107586 0)
(0.0990719 0.000106094 0)
(0.0989847 0.000104706 0)
(0.0989 0.000103966 0)
(0.0988173 0.000104173 0)
(0.0987356 0.00010543 0)
(0.0986542 0.000107704 0)
(0.0985723 0.00011089 0)
(0.0984894 0.000114856 0)
(0.0984051 0.000119473 0)
(0.098319 0.000124634 0)
(0.0982309 0.000130257 0)
(0.0981406 0.000136286 0)
(0.0980479 0.000142688 0)
(0.0979528 0.000149447 0)
(0.0978552 0.00015656 0)
(0.097755 0.000164032 0)
(0.097652 0.000171874 0)
(0.0975463 0.000180101 0)
(0.0974376 0.00018873 0)
(0.0973261 0.000197779 0)
(0.0972114 0.000207268 0)
(0.0970937 0.000217216 0)
(0.0969727 0.000227643 0)
(0.0968485 0.000238571 0)
(0.0967208 0.000250019 0)
(0.0965897 0.000262009 0)
(0.0964549 0.000274564 0)
(0.0963166 0.000287707 0)
(0.0961744 0.000301461 0)
(0.0960285 0.000315851 0)
(0.0958786 0.000330904 0)
(0.0957246 0.000346646 0)
(0.0955665 0.000363106 0)
(0.0954043 0.000380319 0)
(0.0952376 0.000398325 0)
(0.0950666 0.000417189 0)
(0.094891 0.000437047 0)
(0.0947107 0.000458236 0)
(0.0999997 3.03951e-06 0)
(0.0999951 9.06362e-06 0)
(0.0999852 1.49789e-05 0)
(0.099971 2.07339e-05 0)
(0.0999527 2.65467e-05 0)
(0.0999302 3.32029e-05 0)
(0.0999027 4.19593e-05 0)
(0.0998684 5.39467e-05 0)
(0.0998251 6.94366e-05 0)
(0.0997708 8.7476e-05 0)
(0.0997047 0.000106121 0)
(0.0996276 0.000123112 0)
(0.0995416 0.000136611 0)
(0.0994498 0.000145687 0)
(0.0993552 0.000150408 0)
(0.0992605 0.00015162 0)
(0.0991676 0.000150574 0)
(0.0990774 0.000148565 0)
(0.0989901 0.000146679 0)
(0.0989053 0.000145674 0)
(0.0988223 0.000145972 0)
(0.0987405 0.00014772 0)
(0.0986589 0.00015088 0)
(0.0985769 0.000155309 0)
(0.098494 0.000160824 0)
(0.0984097 0.000167249 0)
(0.0983237 0.000174435 0)
(0.0982358 0.000182269 0)
(0.0981456 0.000190674 0)
(0.0980532 0.000199602 0)
(0.0979584 0.000209031 0)
(0.0978611 0.000218955 0)
(0.0977613 0.000229383 0)
(0.0976587 0.000240329 0)
(0.0975534 0.000251812 0)
(0.0974452 0.000263858 0)
(0.0973341 0.00027649 0)
(0.0972201 0.000289736 0)
(0.0971029 0.000303622 0)
(0.0969825 0.000318176 0)
(0.0968589 0.000333426 0)
(0.096732 0.000349403 0)
(0.0966016 0.000366134 0)
(0.0964676 0.000383652 0)
(0.0963301 0.000401987 0)
(0.0961888 0.000421173 0)
(0.0960438 0.000441244 0)
(0.0958949 0.000462235 0)
(0.095742 0.000484185 0)
(0.0955851 0.000507132 0)
(0.095424 0.000531123 0)
(0.0952587 0.000556212 0)
(0.095089 0.000582487 0)
(0.0949149 0.000610123 0)
(0.0947362 0.000639568 0)
(0.0999997 3.90449e-06 0)
(0.0999951 1.16416e-05 0)
(0.0999853 1.92409e-05 0)
(0.0999711 2.66357e-05 0)
(0.0999528 3.41012e-05 0)
(0.0999304 4.26324e-05 0)
(0.099903 5.38269e-05 0)
(0.099869 6.91299e-05 0)
(0.0998262 8.89015e-05 0)
(0.0997726 0.000111947 0)
(0.0997074 0.000135804 0)
(0.0996313 0.0001576 0)
(0.0995463 0.000174984 0)
(0.0994554 0.000186753 0)
(0.0993615 0.00019297 0)
(0.0992673 0.000194695 0)
(0.0991746 0.000193508 0)
(0.0990845 0.000191056 0)
(0.098997 0.000188722 0)
(0.0989121 0.000187478 0)
(0.0988289 0.000187872 0)
(0.0987468 0.000190101 0)
(0.0986651 0.000194123 0)
(0.098583 0.000199761 0)
(0.0985001 0.000206789 0)
(0.0984159 0.000214984 0)
(0.09833 0.000224157 0)
(0.0982422 0.000234165 0)
(0.0981524 0.000244909 0)
(0.0980603 0.000256329 0)
(0.0979659 0.000268394 0)
(0.097869 0.000281098 0)
(0.0977696 0.000294449 0)
(0.0976676 0.000308466 0)
(0.0975628 0.000323173 0)
(0.0974553 0.0003386 0)
(0.0973449 0.000354779 0)
(0.0972315 0.000371743 0)
(0.0971151 0.000389526 0)
(0.0969955 0.000408163 0)
(0.0968728 0.00042769 0)
(0.0967468 0.000448144 0)
(0.0966173 0.000469563 0)
(0.0964844 0.000491985 0)
(0.096348 0.00051545 0)
(0.0962079 0.000539999 0)
(0.0960641 0.000565676 0)
(0.0959166 0.000592525 0)
(0.0957651 0.000620594 0)
(0.0956097 0.000649932 0)
(0.0954502 0.000680595 0)
(0.0952865 0.00071265 0)
(0.0951187 0.000746199 0)
(0.0949465 0.000781443 0)
(0.0947699 0.000818879 0)
(0.0999997 4.76712e-06 0)
(0.0999951 1.42111e-05 0)
(0.0999853 2.34897e-05 0)
(0.0999712 3.25207e-05 0)
(0.099953 4.16329e-05 0)
(0.0999306 5.20203e-05 0)
(0.0999034 6.56086e-05 0)
(0.0998697 8.41513e-05 0)
(0.0998275 0.000108105 0)
(0.0997747 0.000136053 0)
(0.0997106 0.000165043 0)
(0.0996357 0.000191608 0)
(0.099552 0.000212896 0)
(0.0994621 0.000227424 0)
(0.0993691 0.000235238 0)
(0.0992755 0.00023759 0)
(0.0991831 0.000236371 0)
(0.099093 0.000233563 0)
(0.0990054 0.000230842 0)
(0.0989202 0.000229393 0)
(0.0988368 0.00022989 0)
(0.0987545 0.000232585 0)
(0.0986726 0.000237438 0)
(0.0985905 0.000244246 0)
(0.0985075 0.000252741 0)
(0.0984234 0.000262658 0)
(0.0983377 0.000273771 0)
(0.0982502 0.000285907 0)
(0.0981607 0.000298946 0)
(0.098069 0.000312814 0)
(0.0979751 0.000327474 0)
(0.0978787 0.000342916 0)
(0.0977799 0.00035915 0)
(0.0976785 0.000376195 0)
(0.0975745 0.000394084 0)
(0.0974678 0.000412848 0)
(0.0973582 0.000432527 0)
(0.0972457 0.000453161 0)
(0.0971302 0.000474789 0)
(0.0970117 0.000497453 0)
(0.09689 0.000521198 0)
(0.0967651 0.000546066 0)
(0.0966369 0.000572103 0)
(0.0965053 0.000599354 0)
(0.0963703 0.000627868 0)
(0.0962316 0.000657694 0)
(0.0960894 0.000688883 0)
(0.0959435 0.000721488 0)
(0.0957937 0.000755565 0)
(0.0956401 0.000791172 0)
(0.0954826 0.000828374 0)
(0.0953211 0.000867246 0)
(0.0951555 0.000907898 0)
(0.0949857 0.000950533 0)
(0.0948117 0.000995652 0)
(0.0999997 5.62666e-06 0)
(0.0999951 1.67704e-05 0)
(0.0999854 2.77225e-05 0)
(0.0999713 3.83851e-05 0)
(0.0999532 4.91367e-05 0)
(0.0999309 6.13586e-05 0)
(0.0999039 7.72901e-05 0)
(0.0998706 9.8986e-05 0)
(0.0998289 0.000127007 0)
(0.0997771 0.00015974 0)
(0.0997142 0.000193771 0)
(0.0996407 0.000225063 0)
(0.0995583 0.000250274 0)
(0.0994697 0.000267636 0)
(0.0993777 0.000277161 0)
(0.0992847 0.000280268 0)
(0.0991927 0.000279139 0)
(0.0991027 0.000276077 0)
(0.099015 0.000273039 0)
(0.0989296 0.000271422 0)
(0.098846 0.000272029 0)
(0.0987635 0.000275172 0)
(0.0986814 0.000280822 0)
(0.0985992 0.000288753 0)
(0.0985163 0.000298663 0)
(0.0984322 0.000310247 0)
(0.0983468 0.000323245 0)
(0.0982596 0.000337454 0)
(0.0981705 0.000352735 0)
(0.0980793 0.000369001 0)
(0.097986 0.000386206 0)
(0.0978903 0.000404337 0)
(0.0977922 0.000423404 0)
(0.0976916 0.000443429 0)
(0.0975885 0.000464447 0)
(0.0974826 0.000486496 0)
(0.097374 0.00050962 0)
(0.0972626 0.000533864 0)
(0.0971483 0.000559274 0)
(0.0970309 0.000585899 0)
(0.0969105 0.000613789 0)
(0.096787 0.000642994 0)
(0.0966602 0.000673566 0)
(0.0965302 0.000705557 0)
(0.0963967 0.000739024 0)
(0.0962599 0.000774021 0)
(0.0961195 0.000810609 0)
(0.0959755 0.000848847 0)
(0.0958278 0.000888799 0)
(0.0956764 0.000930531 0)
(0.0955212 0.000974113 0)
(0.0953621 0.00101963 0)
(0.0951991 0.00106718 0)
(0.0950322 0.00111695 0)
(0.0948613 0.00116934 0)
(0.0944973 9.66892e-05 -4.52714e-24)
(0.0943017 0.000101715 -4.61496e-24)
(0.0940965 0.000107096 -3.17589e-26)
(0.0938808 0.000112856 1.41789e-23)
(0.0936542 0.000119016 -4.69677e-24)
(0.0934157 0.000125609 -4.83367e-24)
(0.0931647 0.000132676 -1.48834e-23)
(0.0929001 0.00014026 1.47783e-23)
(0.092621 0.00014841 5.05675e-24)
(0.0923264 0.00015718 0)
(0.0920151 0.00016663 5.22432e-24)
(0.0916858 0.000176828 -5.3145e-24)
(0.0913371 0.000187848 4.37195e-23)
(0.0909674 0.000199774 -9.37007e-23)
(0.090575 0.000212697 5.00851e-23)
(0.0901581 0.000226724 4.05904e-23)
(0.0897146 0.000241973 5.20856e-23)
(0.0892421 0.000258579 -5.96517e-24)
(0.0887382 0.000276697 6.09555e-24)
(0.0881999 0.000296502 -6.23347e-24)
(0.0876242 0.0003182 0)
(0.0870073 0.000342028 6.53431e-24)
(0.0863453 0.000368265 -6.69857e-24)
(0.0856336 0.000397237 0)
(0.0848671 0.000429333 -7.05864e-24)
(0.0840398 0.000465011 0)
(0.0831448 0.00050482 -7.46687e-24)
(0.0821743 0.000549413 -1.25142e-22)
(0.0811192 0.000599577 1.32883e-22)
(0.0799687 0.00065626 -1.33406e-22)
(0.0787104 0.000720611 1.33202e-22)
(0.0773296 0.000794024 0)
(0.0758088 0.000878206 0)
(0.0741273 0.00097524 1.63316e-22)
(0.0722602 0.00108767 -1.53664e-22)
(0.070178 0.0012186 0)
(0.0678448 0.00137174 0)
(0.0652181 0.00155139 0)
(0.0622469 0.00176233 0)
(0.058872 0.00200938 0)
(0.0550258 0.00229642 0)
(0.0506356 0.00262465 0)
(0.0456297 0.00298953 0)
(0.0399513 0.00337596 0)
(0.0335827 0.00375102 -1.51126e-23)
(0.026585 0.00405363 -5.18765e-22)
(0.0191425 0.0041819 5.17987e-22)
(0.0116359 0.0039799 5.62856e-22)
(0.00498479 0.00320805 -5.62011e-22)
(0.00101692 0.00149264 0)
(0.0945063 0.00028972 -4.57978e-24)
(0.0943109 0.000304849 -9.3407e-24)
(0.0941058 0.000320991 -4.89579e-24)
(0.0938905 0.000338233 4.56117e-24)
(0.0936641 0.000356669 -4.76193e-24)
(0.093426 0.000376404 3.41249e-23)
(0.0931753 0.000397558 -5.3593e-23)
(0.0929112 0.000420262 4.97769e-24)
(0.0926326 0.000444663 6.64393e-23)
(0.0923386 0.000470922 -9.17606e-23)
(0.0920279 0.000499221 -8.96116e-23)
(0.0916993 0.00052976 7.89627e-23)
(0.0913514 0.000562762 0)
(0.0909826 0.000598479 5.51456e-24)
(0.0905912 0.000637188 -1.68536e-23)
(0.0901754 0.000679204 -1.91145e-22)
(0.0897331 0.000724883 1.83458e-22)
(0.0892621 0.000774631 -1.95021e-22)
(0.0887598 0.000828912 -1.83132e-23)
(0.0882233 0.000888255 6.24714e-24)
(0.0876495 0.000953272 0)
(0.087035 0.00102468 -6.55124e-24)
(0.0863756 0.00110331 -2.11136e-22)
(0.0856669 0.00119014 4.41234e-22)
(0.0849038 0.00128634 2.43436e-22)
(0.0840804 0.00139328 -4.59115e-22)
(0.08319 0.0015126 4.94479e-22)
(0.0822249 0.00164627 -5.01758e-22)
(0.0811761 0.00179662 -7.96339e-24)
(0.0800332 0.00196651 0)
(0.078784 0.00215935 0)
(0.0774141 0.00237932 0)
(0.0759067 0.00263149 0)
(0.0742418 0.00292207 -9.46472e-24)
(0.0723954 0.00325863 -6.41929e-22)
(0.0703392 0.00365035 -2.72062e-23)
(0.068039 0.0041082 6.67396e-22)
(0.0654542 0.00464492 7.26997e-22)
(0.0625368 0.00527457 -7.26034e-22)
(0.0592304 0.00601117 -2.41181e-23)
(0.0554711 0.0068659 -2.51966e-23)
(0.0511894 0.00784174 -8.68965e-22)
(0.046316 0.00892443 8.40342e-22)
(0.0407928 0.0100682 -2.86354e-23)
(0.0345946 0.0111742 1.52182e-23)
(0.0277625 0.0120603 -1.05482e-21)
(0.0204437 0.0124229 1.05444e-21)
(0.0129559 0.0117988 -2.20048e-21)
(0.00609359 0.0094858 2.16368e-21)
(0.00146763 0.00438179 -2.21704e-21)
(0.0945242 0.000481835 -2.70931e-23)
(0.0943292 0.000506958 -9.50579e-24)
(0.0941246 0.000533756 3.66699e-23)
(0.0939098 0.000562371 -7.54317e-23)
(0.093684 0.00059297 1.61409e-22)
(0.0934466 0.000625731 -7.64625e-23)
(0.0931967 0.000660851 1.41885e-26)
(0.0929335 0.000698549 9.9279e-24)
(0.092656 0.000739068 1.73111e-22)
(0.0923631 0.00078268 -1.62839e-22)
(0.0920537 0.000829683 0)
(0.0917265 0.000880414 1.46012e-26)
(0.0913802 0.000935245 0)
(0.0910132 0.000994591 1.89425e-22)
(0.0906239 0.00105892 -1.66971e-22)
(0.0902104 0.00112874 -3.59983e-22)
(0.0897707 0.00120467 2.00053e-23)
(0.0893026 0.00128737 -3.79038e-22)
(0.0888035 0.00137762 1.22539e-23)
(0.0882707 0.00147629 -4.06019e-22)
(0.0877011 0.00158441 4.18457e-22)
(0.0870912 0.00170317 -4.26444e-22)
(0.0864372 0.00183396 4.39518e-22)
(0.0857346 0.00197841 1.3834e-23)
(0.0849785 0.00213846 -1.42137e-23)
(0.0841633 0.00231639 1.46175e-23)
(0.0832823 0.00251493 -4.89678e-22)
(0.0823282 0.00273733 5.04754e-22)
(0.0812924 0.0029875 5.37143e-22)
(0.0801649 0.00327011 -5.20657e-22)
(0.0789342 0.00359085 0)
(0.0775867 0.00395657 0)
(0.0761067 0.00437565 1.83004e-23)
(0.0744754 0.00485825 1.26125e-21)
(0.072671 0.00541676 3.03992e-23)
(0.0706674 0.00606614 -1.2695e-21)
(0.0684339 0.00682417 0)
(0.0659339 0.00771137 -2.21897e-23)
(0.0631247 0.00875018 1.54572e-21)
(0.0599563 0.00996265 -3.08604e-21)
(0.0563717 0.0113657 3.27206e-21)
(0.0523081 0.0129622 9.88896e-23)
(0.0477005 0.0147264 -1.70047e-21)
(0.0424887 0.0165802 -1.84131e-21)
(0.0366315 0.0183592 1.89763e-21)
(0.0301294 0.0197635 1.4691e-24)
(0.0230544 0.0202952 -3.2271e-23)
(0.0155989 0.0191939 2.12567e-21)
(0.00829395 0.0153416 -2.05836e-21)
(0.00233384 0.00702093 -2.05888e-21)
(0.0945509 0.000672367 1.78512e-23)
(0.0943565 0.000707281 -9.05876e-24)
(0.0941526 0.00074454 1.94903e-26)
(0.0939386 0.000784345 9.32117e-24)
(0.0937138 0.000826915 -1.96023e-26)
(0.0934775 0.000872496 1.54855e-22)
(0.0932289 0.000921364 -2.92623e-22)
(0.0929671 0.000973827 1.57268e-22)
(0.0926912 0.00103022 -1.00686e-23)
(0.0924001 0.00109093 1.86102e-22)
(0.0920928 0.00115638 -1.65537e-22)
(0.0917679 0.00122702 -3.43554e-22)
(0.0914241 0.00130338 6.93698e-22)
(0.09106 0.00138604 -7.0739e-22)
(0.0906739 0.00147566 7.2175e-22)
(0.090264 0.00157295 -7.25389e-22)
(0.0898283 0.00167875 -3.84031e-22)
(0.0893647 0.00179402 2.2575e-26)
(0.0888707 0.00191982 0)
(0.0883436 0.00205739 -3.95388e-22)
(0.0877805 0.00220815 4.07799e-22)
(0.087178 0.00237378 0)
(0.0865324 0.00255621 -8.80817e-22)
(0.0858394 0.00275773 8.66525e-22)
(0.0850943 0.00298104 1.4349e-23)
(0.0842917 0.00322932 -3.71664e-26)
(0.0834255 0.00350637 1.5167e-23)
(0.0824886 0.00381671 0)
(0.081473 0.00416576 -5.319e-26)
(0.0803696 0.00456001 0)
(0.0791677 0.00500729 -1.72224e-23)
(0.0778549 0.00551707 1.1647e-21)
(0.0764172 0.00610081 -1.16438e-21)
(0.074838 0.00677244 -1.92632e-23)
(0.0730981 0.0075488 3.98769e-23)
(0.0711752 0.0084501 -1.37489e-21)
(0.0690434 0.00950022 1.33215e-21)
(0.0666726 0.0107264 2.25734e-23)
(0.0640277 0.0121581 -3.57638e-25)
(0.0610682 0.0138234 2.40858e-23)
(0.0577476 0.0157425 -1.65427e-21)
(0.054013 0.0179154 3.34438e-21)
(0.0498058 0.0203016 -1.74349e-21)
(0.0450626 0.0227893 1.80356e-21)
(0.0397185 0.0251495 -1.88811e-21)
(0.0337125 0.0269729 -3.75203e-21)
(0.026998 0.0275846 7.65453e-21)
(0.0195799 0.0259444 -3.87505e-21)
(0.0116319 0.0205568 0)
(0.00362078 0.00929712 -3.64306e-21)
(0.0945862 0.000860494 -8.85386e-24)
(0.0943927 0.000905038 -3.61691e-23)
(0.0941898 0.00095255 1.09649e-22)
(0.093977 0.0010033 -1.4806e-22)
(0.0937536 0.00105757 6.52111e-23)
(0.0935189 0.00111569 9.56337e-24)
(0.0932721 0.00117801 -9.72362e-24)
(0.0930123 0.00124493 -2.46368e-26)
(0.0927387 0.00131687 1.00667e-23)
(0.0924502 0.00139434 -2.04762e-23)
(0.0921457 0.00147785 -3.36967e-22)
(0.0918241 0.00156801 3.47763e-22)
(0.0914839 0.00166549 -3.39705e-22)
(0.0911238 0.00177102 3.50671e-22)
(0.0907422 0.00188545 0)
(0.0903373 0.0020097 -2.48895e-26)
(0.0899073 0.00214483 0)
(0.0894501 0.00229207 -3.79004e-22)
(0.0889632 0.00245279 4.03631e-22)
(0.0884443 0.00262857 -1.26863e-23)
(0.0878903 0.00282125 -8.55291e-22)
(0.0872982 0.00303295 8.42666e-22)
(0.0866644 0.00326615 -1.37091e-23)
(0.0859849 0.00352379 0)
(0.0852553 0.00380929 0)
(0.0844706 0.00412674 -9.83211e-22)
(0.0836251 0.00448097 9.5334e-22)
(0.0827125 0.00487773 0)
(0.0817255 0.00532387 -3.27201e-23)
(0.0806559 0.00582762 0)
(0.0794943 0.00639883 1.75246e-23)
(0.0782301 0.00704938 -1.80626e-23)
(0.0768513 0.00779359 -1.88158e-23)
(0.0753442 0.00864873 1.93958e-23)
(0.0736934 0.00963556 1.27668e-21)
(0.0718816 0.0107788 -1.31767e-21)
(0.0698892 0.0121073 2.86552e-21)
(0.0676944 0.0136537 -2.86736e-21)
(0.0652725 0.0154523 3.04482e-21)
(0.0625955 0.0175348 8.81489e-23)
(0.0596308 0.0199216 -3.20918e-21)
(0.0563388 0.0226068 -2.56378e-23)
(0.0526697 0.0255327 1.26952e-24)
(0.0485566 0.0285532 1.68228e-24)
(0.0439059 0.0313796 2.2223e-24)
(0.038579 0.0335085 -5.55018e-23)
(0.032371 0.03412 -2.54625e-23)
(0.0250237 0.0319349 -2.42013e-23)
(0.0162445 0.0250957 0)
(0.00535261 0.0112032 7.5601e-24)
(0.09463 0.00104569 -4.39365e-23)
(0.0944376 0.00109964 2.64294e-23)
(0.0942361 0.0011572 9.04329e-24)
(0.094025 0.00121869 1.38826e-22)
(0.0938035 0.00128447 -1.38878e-22)
(0.093571 0.00135493 1.43687e-22)
(0.0933266 0.00143052 -3.18956e-22)
(0.0930697 0.00151171 4.54115e-22)
(0.0927991 0.00159903 -3.18092e-22)
(0.0925141 0.00169308 -3.30006e-22)
(0.0922135 0.0017945 -1.65817e-23)
(0.0918961 0.00190402 6.702e-22)
(0.0915608 0.00202247 -7.05988e-22)
(0.0912061 0.00215073 3.29294e-22)
(0.0908305 0.00228984 3.55419e-22)
(0.0904324 0.00244092 3.71604e-22)
(0.0900099 0.00260529 -2.86719e-23)
(0.0895612 0.00278441 7.57362e-22)
(0.0890839 0.00298 7.82239e-22)
(0.0885758 0.00319397 1.98264e-23)
(0.088034 0.00342856 -8.29367e-22)
(0.0874558 0.00368638 0)
(0.0868377 0.00397047 0)
(0.0861763 0.00428439 -9.24888e-22)
(0.0854675 0.00463234 9.11604e-22)
(0.0847068 0.00501928 9.82235e-22)
(0.0838891 0.00545107 -9.8369e-22)
(0.0830089 0.00593469 0)
(0.08206 0.00647842 1.09863e-21)
(0.0810354 0.00709213 -1.10075e-21)
(0.0799274 0.00778761 0)
(0.0787275 0.00857898 -2.38329e-21)
(0.0774263 0.00948311 2.40537e-21)
(0.0760139 0.0105201 -1.98852e-23)
(0.0744794 0.011714 -2.66069e-21)
(0.0728115 0.0130926 2.68538e-21)
(0.0709988 0.0146882 0)
(0.0690296 0.0165356 3.01625e-21)
(0.0668922 0.0186703 -2.99765e-21)
(0.0645741 0.0211223 2.42981e-23)
(0.06206 0.0239053 3.30997e-21)
(0.0593279 0.0269988 -6.64117e-21)
(0.0563403 0.0303202 1.88914e-23)
(0.0530304 0.0336831 3.68377e-23)
(0.0492769 0.0367417 3.44561e-21)
(0.0448608 0.0389184 3.8424e-24)
(0.039402 0.0392986 -2.95632e-21)
(0.0323054 0.0364633 3.03067e-21)
(0.0225773 0.028354 0)
(0.0077804 0.0124463 2.69023e-23)
(0.0946821 0.00122716 8.65309e-24)
(0.0944914 0.00128999 7.972e-23)
(0.0942919 0.0013571 -7.10935e-23)
(0.0940831 0.00142885 9.12676e-24)
(0.0938643 0.00150568 1.40301e-22)
(0.0936347 0.00158805 -1.40523e-22)
(0.0933937 0.00167646 -3.01078e-22)
(0.0931404 0.00177148 4.49287e-24)
(0.092874 0.00187374 -5.60933e-24)
(0.0925935 0.00198393 3.34408e-22)
(0.092298 0.00210284 -3.26669e-22)
(0.0919864 0.00223132 6.93202e-22)
(0.0916573 0.00237035 -3.45416e-22)
(0.0913097 0.00252098 1.1166e-23)
(0.090942 0.00268444 1.14272e-23)
(0.0905527 0.00286209 7.55951e-22)
(0.0901402 0.00305546 -4.99276e-24)
(0.0897026 0.00326635 7.8916e-22)
(0.0892379 0.00349675 1.26148e-23)
(0.088744 0.00374899 0)
(0.0882183 0.00402573 0)
(0.0876584 0.00433008 -8.86017e-22)
(0.0870612 0.00466569 8.88256e-22)
(0.0864237 0.00503682 0)
(0.0857423 0.00544848 1.49479e-23)
(0.0850132 0.00590657 0)
(0.0842323 0.0064181 -1.03255e-21)
(0.083395 0.00699133 2.10232e-21)
(0.0824963 0.00763606 -1.06985e-21)
(0.0815309 0.00836393 -2.2678e-21)
(0.0804931 0.00918875 -7.63717e-23)
(0.0793771 0.0101269 -8.06124e-23)
(0.0781766 0.0111979 -8.47659e-23)
(0.0768859 0.0124245 2.55061e-21)
(0.0754996 0.0138334 2.73744e-21)
(0.0740131 0.0154549 -2.74396e-21)
(0.0724239 0.0173223 0)
(0.0707312 0.0194701 3.03803e-21)
(0.0689371 0.0219292 -3.0451e-21)
(0.0670458 0.0247192 -3.23466e-21)
(0.0650609 0.0278341 3.21685e-21)
(0.0629797 0.0312211 2.63041e-23)
(0.0607812 0.0347491 3.23411e-21)
(0.0584048 0.0381663 -1.05961e-22)
(0.0557156 0.0410487 -3.19479e-21)
(0.0524397 0.0427466 2.43765e-23)
(0.0480734 0.0423199 0)
(0.0417688 0.0384088 -1.93798e-23)
(0.0316763 0.0291617 -9.09033e-22)
(0.0125403 0.0123857 4.31054e-22)
(-0.000239086 0.000317306 0)
(-0.00101194 0.000581352 3.17444e-22)
(-0.00211333 0.00061437 -3.17921e-22)
(-0.00315233 0.000519232 -3.14388e-22)
(-0.00393685 0.000353287 3.1486e-22)
(-0.00438468 0.000151523 -9.60135e-24)
(-0.00445634 -6.37935e-05 0)
(-0.00414273 -0.00028091 0)
(-0.00345085 -0.000490617 0)
(-0.00239519 -0.00068791 0)
(-0.000998483 -0.000869798 0)
(0.000712205 -0.00103437 0)
(0.00270695 -0.00118094 0)
(0.00495434 -0.00130917 0)
(0.00742293 -0.00141909 0)
(0.0100812 -0.00151107 7.81455e-23)
(0.0128982 -0.00158571 -7.35993e-23)
(0.0158439 -0.00164377 0)
(0.0188895 -0.00168615 0)
(0.0220077 -0.00171387 -4.75207e-23)
(0.0251728 -0.00172802 4.75933e-23)
(0.0283612 -0.00172971 -3.22601e-23)
(0.0315508 -0.00172007 2.00634e-24)
(0.0347215 -0.00170022 0)
(0.0378552 -0.00167134 1.35316e-24)
(0.0409358 -0.0016346 0)
(0.0439494 -0.00159114 0)
(0.0468838 -0.00154205 0)
(0.049729 -0.00148834 4.16602e-25)
(0.0524766 -0.00143097 0)
(0.05512 -0.00137085 -1.11619e-25)
(0.0576541 -0.00130881 -6.68455e-27)
(0.0600755 -0.0012456 1.04995e-25)
(0.0623819 -0.00118192 -2.00202e-24)
(0.0645724 -0.00111837 2.06938e-24)
(0.0666473 -0.00105549 2.3186e-24)
(0.0686075 -0.000993747 -5.16351e-24)
(0.0704553 -0.000933549 2.88383e-24)
(0.0721932 -0.000875224 3.86439e-25)
(0.0738247 -0.000819045 -3.98232e-25)
(0.0753537 -0.000765224 0)
(0.0767842 -0.000713918 -4.04312e-25)
(0.078121 -0.000665237 2.00342e-24)
(0.0793686 -0.000619245 -1.999e-24)
(0.0805321 -0.000575966 3.84272e-25)
(0.0816162 -0.000535388 -1.11059e-24)
(0.082626 -0.00049747 3.78935e-25)
(0.0835661 -0.000462142 6.86919e-25)
(0.0844413 -0.000429312 -3.41349e-25)
(0.0852562 -0.000398867 3.16746e-25)
(-0.000305889 0.000912148 -1.20896e-21)
(-0.00111603 0.00166242 -1.31966e-21)
(-0.00210093 0.00175434 1.30074e-21)
(-0.00296512 0.00147616 -6.19514e-22)
(-0.00356299 0.000991498 6.20697e-22)
(-0.00383224 0.000401842 9.66796e-24)
(-0.00374583 -0.000228097 -1.90197e-23)
(-0.00329878 -0.00086461 -5.88064e-22)
(-0.00249743 -0.00148009 5.70472e-22)
(-0.00135653 -0.00206018 -1.67259e-23)
(0.000103311 -0.00259587 -1.58011e-23)
(0.00185706 -0.00308146 4.52948e-22)
(0.00387701 -0.00351471 -4.5355e-22)
(0.00613432 -0.00389431 -3.86101e-22)
(0.00859972 -0.00422025 3.43683e-23)
(0.0112437 -0.00449345 3.52717e-22)
(0.0140372 -0.00471555 -4.68785e-24)
(0.0169518 -0.00488868 -8.56432e-24)
(0.0199604 -0.00501546 0)
(0.0230368 -0.00509878 0)
(0.0261566 -0.00514183 0)
(0.0292971 -0.00514788 -2.38999e-24)
(0.0324373 -0.00512021 1.13205e-22)
(0.0355576 -0.00506215 -1.23044e-22)
(0.0386409 -0.00497713 7.79084e-23)
(0.0416714 -0.00486865 -4.82543e-23)
(0.0446358 -0.0047401 -5.47342e-23)
(0.0475222 -0.00459466 2.3606e-23)
(0.0503209 -0.00443539 -4.17674e-25)
(0.0530238 -0.00426516 -5.93173e-25)
(0.0556245 -0.00408663 1.11862e-25)
(0.058118 -0.0039023 -5.2762e-26)
(0.060501 -0.00371441 -4.27343e-24)
(0.0627713 -0.00352502 1.11687e-23)
(0.064928 -0.00333595 -6.47759e-24)
(0.0669713 -0.00314883 8.53754e-25)
(0.0689023 -0.00296505 -3.39411e-25)
(0.070723 -0.0027858 0)
(0.072436 -0.00261209 6.53497e-24)
(0.0740446 -0.00244474 -5.79426e-24)
(0.0755526 -0.00228437 -5.60807e-24)
(0.076964 -0.00213146 7.58188e-24)
(0.0782834 -0.00198635 -4.0058e-25)
(0.0795153 -0.00184924 -1.92171e-24)
(0.0806645 -0.00172018 3.45017e-24)
(0.0817358 -0.00159916 3.72518e-25)
(0.082734 -0.00148606 2.46289e-24)
(0.0836638 -0.00138066 2.73817e-25)
(0.0845297 -0.00128269 -7.02691e-25)
(0.0853361 -0.00119182 -9.59928e-25)
(-0.000423249 0.00139257 -1.26178e-21)
(-0.00128372 0.00250191 1.37898e-21)
(-0.00202396 0.00263682 -1.33778e-21)
(-0.00254462 0.00219696 -2.06796e-23)
(-0.00278228 0.00143299 -4.54099e-25)
(-0.0027096 0.000502798 -1.2418e-21)
(-0.00232273 -0.000494454 1.28255e-21)
(-0.00162363 -0.00150746 1.19209e-21)
(-0.000616663 -0.00248923 -3.60316e-23)
(0.000683039 -0.00341752 -2.16695e-21)
(0.00225923 -0.00427815 2.07972e-21)
(0.004091 -0.00506187 -9.85927e-22)
(0.00615511 -0.00576348 -1.43065e-23)
(0.00842766 -0.00638019 0)
(0.0108835 -0.00691147 7.42219e-22)
(0.0134971 -0.00735834 -8.02101e-23)
(0.0162428 -0.007723 -6.52244e-22)
(0.0190956 -0.00800859 1.76129e-23)
(0.022031 -0.008219 0)
(0.0250255 -0.00835874 0)
(0.028057 -0.00843275 1.76278e-22)
(0.0311046 -0.00844621 -1.71195e-22)
(0.0341488 -0.00840437 -1.22424e-22)
(0.0371719 -0.00831261 1.30266e-22)
(0.0401576 -0.00817634 3.08636e-24)
(0.0430915 -0.00800131 -2.49545e-24)
(0.0459609 -0.00779301 1.96801e-24)
(0.0487548 -0.00755666 -3.68804e-23)
(0.0514641 -0.00729727 3.84185e-23)
(0.054081 -0.00701953 -1.4855e-23)
(0.0565995 -0.00672786 1.62056e-23)
(0.059015 -0.00642632 5.96943e-26)
(0.0613241 -0.00611867 -6.08544e-24)
(0.063525 -0.00580829 1.67153e-23)
(0.0656166 -0.0054982 -1.14047e-23)
(0.0675992 -0.00519109 -9.57555e-24)
(0.0694738 -0.00488929 8.46633e-24)
(0.0712423 -0.00459479 0)
(0.0729072 -0.00430925 -5.87173e-26)
(0.0744717 -0.00403404 0)
(0.0759392 -0.00377021 -1.22366e-23)
(0.0773137 -0.00351858 1.14182e-23)
(0.0785995 -0.0032797 -7.38489e-25)
(0.079801 -0.00305391 -3.47729e-26)
(0.0809227 -0.00284134 -5.82984e-24)
(0.0819691 -0.00264195 1.0731e-23)
(0.0829449 -0.00245556 -5.65599e-24)
(0.0838546 -0.00228183 2.58734e-24)
(0.0847024 -0.00212031 -1.98957e-24)
(0.0854926 -0.00197039 -6.50955e-25)
(-0.00055867 0.00166337 -2.74387e-21)
(-0.0014223 0.00296552 0)
(-0.00176365 0.00312341 2.82154e-21)
(-0.00178872 0.00255333 -5.62891e-21)
(-0.00151897 0.00157498 2.82836e-21)
(-0.000972937 0.000384536 1.27667e-21)
(-0.000176959 -0.000910037 -1.33965e-21)
(0.000862339 -0.00222809 1.22396e-21)
(0.00214569 -0.00351458 -2.41184e-21)
(0.00365525 -0.0047399 1.16934e-21)
(0.00538097 -0.00588271 1.71049e-23)
(0.00730993 -0.00692924 4.61566e-25)
(0.00942569 -0.00787077 1.45522e-23)
(0.0117103 -0.00870259 -8.52712e-22)
(0.0141445 -0.00942285 8.26753e-22)
(0.0167082 -0.0100319 2.2943e-23)
(0.0193807 -0.0105318 -1.01569e-23)
(0.0221413 -0.0109261 5.61571e-22)
(0.0249695 -0.0112194 -5.61348e-22)
(0.0278454 -0.0114172 -7.49245e-24)
(0.0307497 -0.0115258 0)
(0.0336643 -0.0115518 3.58071e-25)
(0.036572 -0.0115023 0)
(0.0394569 -0.0113841 4.09808e-24)
(0.0423045 -0.0112047 2.94256e-25)
(0.0451017 -0.0109715 2.51905e-24)
(0.0478371 -0.0106921 -1.20693e-22)
(0.0505006 -0.0103736 1.18982e-22)
(0.0530838 -0.0100229 0)
(0.0555796 -0.00964624 -2.132e-23)
(0.0579824 -0.00924984 2.21392e-23)
(0.060288 -0.00883927 0)
(0.0624932 -0.00841972 -1.4715e-25)
(0.0645962 -0.00799586 7.67554e-24)
(0.0665962 -0.00757193 -1.9491e-23)
(0.0684932 -0.00715163 2.70088e-23)
(0.0702883 -0.00673824 -3.29832e-23)
(0.0719832 -0.00633451 3.77001e-23)
(0.0735802 -0.00594281 -1.99203e-23)
(0.0750822 -0.00556502 -1.10765e-23)
(0.0764925 -0.00520267 9.6824e-24)
(0.0778148 -0.00485689 6.80606e-25)
(0.0790531 -0.00452849 1.14423e-23)
(0.0802114 -0.00421794 -2.4047e-23)
(0.0812939 -0.00392547 1.12033e-23)
(0.082305 -0.00365105 3.84569e-26)
(0.0832489 -0.00339442 -6.74645e-25)
(0.0841299 -0.00315514 -3.11882e-26)
(0.0849519 -0.00293259 6.24356e-25)
(0.0857189 -0.00272587 -1.16932e-24)
(-0.000608832 0.0016461 -1.84639e-24)
(-0.00131843 0.002974 -2.5725e-23)
(-0.00112237 0.00312247 -2.48371e-23)
(-0.000526453 0.00246747 -2.40156e-23)
(0.0003588 0.00136181 -4.5743e-23)
(0.00145329 7.38844e-06 -6.59595e-25)
(0.00271666 -0.00149049 2.11411e-23)
(0.00414345 -0.00302346 -2.08887e-23)
(0.00572936 -0.00453758 -2.00016e-23)
(0.00746625 -0.00599376 2.32179e-21)