/*--------------------------------*- C++ -*----------------------------------*\
| =========                 |                                                 |
| \\      /  F ield         | OpenFOAM: The Open Source CFD Toolbox           |
|  \\    /   O peration     | Version:  2412                                  |
|   \\  /    A nd           | Website:  www.openfoam.com                      |
|    \\/     M anipulation  |                                                 |
\*---------------------------------------------------------------------------*/
FoamFile
{
    version     2.0;
    format      ascii;
    arch        "LSB;label=32;scalar=64";
    class       volVectorField;
    location    "18";
    object      vorticity;
}
// * * * * * * * * * * * * * * * * * * * * * * * * * * * * * * * * * * * * * //

dimensions      [0 0 -1 0 0 0 0];

internalField   nonuniform List<vector> 
63420
(
(0 0 5.88744e-06)
(0 0 5.86028e-06)
(0 0 5.76705e-06)
(0 0 5.7404e-06)
(0 0 6.24178e-06)
(0 0 7.82773e-06)
(0 0 1.06193e-05)
(0 0 1.39292e-05)
(0 0 1.64114e-05)
(0 0 1.66689e-05)
(0 0 1.39228e-05)
(0 0 8.35181e-06)
(0 0 9.76228e-07)
(0 0 -6.77521e-06)
(0 0 -1.35585e-05)
(0 0 -1.84626e-05)
(0 0 -2.11319e-05)
(0 0 -2.16979e-05)
(0 0 -2.06057e-05)
(0 0 -1.84252e-05)
(0 0 -1.57031e-05)
(0 0 -1.28758e-05)
(0 0 -1.02393e-05)
(0 0 -7.95807e-06)
(0 0 -6.09336e-06)
(0 0 -4.63738e-06)
(0 0 -3.54331e-06)
(0 0 -2.74799e-06)
(0 0 -2.18666e-06)
(0 0 -1.80109e-06)
(0 0 -1.54309e-06)
(0 0 -1.375e-06)
(0 0 -1.26866e-06)
(0 0 -1.20374e-06)
(0 0 -1.16598e-06)
(0 0 -1.14561e-06)
(0 0 -1.1361e-06)
(0 0 -1.1331e-06)
(0 0 -1.13381e-06)
(0 0 -1.13642e-06)
(0 0 -1.13977e-06)
(0 0 -1.14314e-06)
(0 0 -1.14603e-06)
(0 0 -1.14816e-06)
(0 0 -1.14932e-06)
(0 0 -1.14935e-06)
(0 0 -1.14805e-06)
(0 0 -1.14499e-06)
(0 0 -1.13876e-06)
(0 0 -1.12448e-06)
(0 0 -1.08535e-06)
(0 0 -9.64937e-07)
(0 0 -5.80431e-07)
(0 0 6.41514e-07)
(0 4.49213e-23 4.43743e-06)
(0 0 1.76588e-05)
(0 0 1.75792e-05)
(0 0 1.73024e-05)
(0 0 1.72228e-05)
(0 0 1.87163e-05)
(0 0 2.34462e-05)
(0 0 3.17814e-05)
(0 0 4.16818e-05)
(0 0 4.91387e-05)
(0 0 4.99835e-05)
(0 0 4.18814e-05)
(0 0 2.53497e-05)
(0 0 3.41524e-06)
(0 0 -1.96715e-05)
(0 0 -3.99058e-05)
(0 0 -5.45666e-05)
(0 0 -6.25861e-05)
(0 0 -6.43458e-05)
(0 0 -6.11641e-05)
(0 0 -5.47334e-05)
(0 0 -4.66791e-05)
(0 0 -3.83004e-05)
(0 0 -3.04798e-05)
(0 0 -2.37081e-05)
(0 0 -1.817e-05)
(0 0 -1.38438e-05)
(0 0 -1.05919e-05)
(0 0 -8.22723e-06)
(0 0 -6.55799e-06)
(0 0 -5.41148e-06)
(0 0 -4.64463e-06)
(0 0 -4.14557e-06)
(0 0 -3.83061e-06)
(0 0 -3.63932e-06)
(0 0 -3.52925e-06)
(0 0 -3.47135e-06)
(0 0 -3.44608e-06)
(0 0 -3.44055e-06)
(0 0 -3.44636e-06)
(0 0 -3.45809e-06)
(0 0 -3.47228e-06)
(0 0 -3.48671e-06)
(0 0 -3.49996e-06)
(0 0 -3.51111e-06)
(0 0 -3.51952e-06)
(0 0 -3.52471e-06)
(0 0 -3.52606e-06)
(0 0 -3.5223e-06)
(0 0 -3.50932e-06)
(0 0 -3.47298e-06)
(0 0 -3.36457e-06)
(0 0 -3.02061e-06)
(0 0 -1.91028e-06)
(0 0 1.63503e-06)
(0 4.53883e-23 1.26802e-05)
(0 0 2.94176e-05)
(0 0 2.92863e-05)
(0 0 2.8829e-05)
(0 0 2.8694e-05)
(0 0 3.11555e-05)
(0 0 3.89754e-05)
(0 0 5.27919e-05)
(0 0 6.92647e-05)
(0 0 8.17835e-05)
(0 0 8.34448e-05)
(0 0 7.03485e-05)
(0 0 4.32952e-05)
(0 0 7.23889e-06)
(0 0 -3.08247e-05)
(0 0 -6.42815e-05)
(0 0 -8.86191e-05)
(0 0 -0.000102045)
(0 0 -0.000105158)
(0 0 -0.000100111)
(0 0 -8.96804e-05)
(0 0 -7.65408e-05)
(0 0 -6.28343e-05)
(0 0 -5.00194e-05)
(0 0 -3.89108e-05)
(0 0 -2.98181e-05)
(0 0 -2.27105e-05)
(0 0 -1.73647e-05)
(0 0 -1.34757e-05)
(0 0 -1.07292e-05)
(0 0 -8.84218e-06)
(0 0 -7.57965e-06)
(0 0 -6.75784e-06)
(0 0 -6.2392e-06)
(0 0 -5.9243e-06)
(0 0 -5.74334e-06)
(0 0 -5.64845e-06)
(0 0 -5.60748e-06)
(0 0 -5.59919e-06)
(0 0 -5.60973e-06)
(0 0 -5.63016e-06)
(0 0 -5.65478e-06)
(0 0 -5.67993e-06)
(0 0 -5.70325e-06)
(0 0 -5.72323e-06)
(0 0 -5.73883e-06)
(0 0 -5.74921e-06)
(0 0 -5.75342e-06)
(0 0 -5.74942e-06)
(0 0 -5.73083e-06)
(0 0 -5.67577e-06)
(0 0 -5.50876e-06)
(0 0 -4.97602e-06)
(0 0 -3.25065e-06)
(0 0 2.27701e-06)
(0 2.67859e-22 1.95611e-05)
(0 0 4.11556e-05)
(0 0 4.09739e-05)
(0 0 4.0341e-05)
(0 0 4.01468e-05)
(0 0 4.3537e-05)
(0 0 5.43599e-05)
(0 0 7.35564e-05)
(0 0 9.65706e-05)
(0 0 0.00011429)
(0 0 0.000117135)
(0 0 9.96253e-05)
(0 0 6.2757e-05)
(0 0 1.3283e-05)
(0 0 -3.91787e-05)
(0 0 -8.54886e-05)
(0 0 -0.000119372)
(0 0 -0.000138292)
(0 0 -0.000143015)
(0 0 -0.000136463)
(0 0 -0.000122435)
(0 0 -0.000104608)
(0 0 -8.59335e-05)
(0 0 -6.84307e-05)
(0 0 -5.32326e-05)
(0 0 -4.07768e-05)
(0 0 -3.10307e-05)
(0 0 -2.36945e-05)
(0 0 -1.83537e-05)
(0 0 -1.45796e-05)
(0 0 -1.1985e-05)
(0 0 -1.0248e-05)
(0 0 -9.11671e-06)
(0 0 -8.40231e-06)
(0 0 -7.96825e-06)
(0 0 -7.7186e-06)
(0 0 -7.58758e-06)
(0 0 -7.53095e-06)
(0 0 -7.51948e-06)
(0 0 -7.5341e-06)
(0 0 -7.56252e-06)
(0 0 -7.59687e-06)
(0 0 -7.63211e-06)
(0 0 -7.66501e-06)
(0 0 -7.69348e-06)
(0 0 -7.71607e-06)
(0 0 -7.73165e-06)
(0 0 -7.73896e-06)
(0 0 -7.73538e-06)
(0 0 -7.71292e-06)
(0 0 -7.64427e-06)
(0 0 -7.43539e-06)
(0 0 -6.76942e-06)
(0 0 -4.60848e-06)
(0 0 2.34516e-06)
(0 -1.75857e-22 2.42179e-05)
(0 0 5.28651e-05)
(0 0 5.26342e-05)
(0 0 5.18321e-05)
(0 0 5.15736e-05)
(0 0 5.58406e-05)
(0 0 6.95495e-05)
(0 0 9.39891e-05)
(0 0 0.0001235)
(0 0 0.000146598)
(0 0 0.00015111)
(0 0 0.000129957)
(0 0 8.42117e-05)
(0 0 2.22573e-05)
(0 0 -4.38305e-05)
(0 0 -0.000102498)
(0 0 -0.000145749)
(0 0 -0.000170277)
(0 0 -0.000176949)
(0 0 -0.000169367)
(0 0 -0.000152277)
(0 0 -0.000130289)
(0 0 -0.000107126)
(0 0 -8.5343e-05)
(0 0 -6.63848e-05)
(0 0 -5.0821e-05)
(0 0 -3.8627e-05)
(0 0 -2.9438e-05)
(0 0 -2.27421e-05)
(0 0 -1.80063e-05)
(0 0 -1.47479e-05)
(0 0 -1.25647e-05)
(0 0 -1.11416e-05)
(0 0 -1.02419e-05)
(0 0 -9.6945e-06)
(0 0 -9.37903e-06)
(0 0 -9.21288e-06)
(0 0 -9.1405e-06)
(0 0 -9.12513e-06)
(0 0 -9.14282e-06)
(0 0 -9.17808e-06)
(0 0 -9.22102e-06)
(0 0 -9.26531e-06)
(0 0 -9.30689e-06)
(0 0 -9.3431e-06)
(0 0 -9.37213e-06)
(0 0 -9.39258e-06)
(0 0 -9.40295e-06)
(0 0 -9.40026e-06)
(0 0 -9.37569e-06)
(0 0 -9.29942e-06)
(0 0 -9.06946e-06)
(0 0 -8.34205e-06)
(0 0 -5.98503e-06)
(0 0 1.63972e-06)
(0 8.68141e-23 2.58729e-05)
(0 0 6.45393e-05)
(0 0 6.42589e-05)
(0 0 6.32955e-05)
(0 0 6.29669e-05)
(0 0 6.80481e-05)
(0 0 8.45017e-05)
(0 0 0.000114016)
(0 0 0.000149963)
(0 0 0.000178647)
(0 0 0.000185399)
(0 0 0.000161519)
(0 0 0.000108021)
(0 0 3.4712e-05)
(0 0 -4.40711e-05)
(0 0 -0.000114496)
(0 0 -0.000166895)
(0 0 -0.000197163)
(0 0 -0.000206183)
(0 0 -0.000198141)
(0 0 -0.000178627)
(0 0 -0.000153112)
(0 0 -0.000126035)
(0 0 -0.00010046)
(0 0 -7.81374e-05)
(0 0 -5.97723e-05)
(0 0 -4.53593e-05)
(0 0 -3.44832e-05)
(0 0 -2.65485e-05)
(0 0 -2.09305e-05)
(0 0 -1.7061e-05)
(0 0 -1.44656e-05)
(0 0 -1.27717e-05)
(0 0 -1.16993e-05)
(0 0 -1.10455e-05)
(0 0 -1.06675e-05)
(0 0 -1.04674e-05)
(0 0 -1.0379e-05)
(0 0 -1.03587e-05)
(0 0 -1.03781e-05)
(0 0 -1.04186e-05)
(0 0 -1.04686e-05)
(0 0 -1.05205e-05)
(0 0 -1.05695e-05)
(0 0 -1.06123e-05)
(0 0 -1.06469e-05)
(0 0 -1.06716e-05)
(0 0 -1.06848e-05)
(0 0 -1.06832e-05)
(0 0 -1.06581e-05)
(0 0 -1.05804e-05)
(0 0 -1.03516e-05)
(0 0 -9.64333e-06)
(0 0 -7.37395e-06)
(0 0 -1.95837e-08)
(0 4.28353e-22 2.37611e-05)
(0 0 7.61695e-05)
(0 0 7.58392e-05)
(0 0 7.47238e-05)
(0 0 7.43193e-05)
(0 0 8.01444e-05)
(0 0 9.91821e-05)
(0 0 0.000133578)
(0 0 0.000175884)
(0 0 0.000210374)
(0 0 0.000219995)
(0 0 0.000194407)
(0 0 0.00013441)
(0 0 5.10089e-05)
(0 0 -3.94213e-05)
(0 0 -0.000120924)
(0 0 -0.000182214)
(0 0 -0.000218359)
(0 0 -0.000230169)
(0 0 -0.000222299)
(0 0 -0.000201074)
(0 0 -0.000172738)
(0 0 -0.00014239)
(0 0 -0.000113572)
(0 0 -8.83285e-05)
(0 0 -6.75061e-05)
(0 0 -5.11314e-05)
(0 0 -3.87544e-05)
(0 0 -2.97115e-05)
(0 0 -2.33006e-05)
(0 0 -1.88793e-05)
(0 0 -1.591e-05)
(0 0 -1.39692e-05)
(0 0 -1.27381e-05)
(0 0 -1.19856e-05)
(0 0 -1.15489e-05)
(0 0 -1.13159e-05)
(0 0 -1.12113e-05)
(0 0 -1.1185e-05)
(0 0 -1.12044e-05)
(0 0 -1.12485e-05)
(0 0 -1.13039e-05)
(0 0 -1.13617e-05)
(0 0 -1.14166e-05)
(0 0 -1.14648e-05)
(0 0 -1.1504e-05)
(0 0 -1.15322e-05)
(0 0 -1.15478e-05)
(0 0 -1.15475e-05)
(0 0 -1.15234e-05)
(0 0 -1.14496e-05)
(0 0 -1.12419e-05)
(0 0 -1.06287e-05)
(0 0 -8.74234e-06)
(0 0 -2.77925e-06)
(0 -8.38026e-23 1.70073e-05)
(-1.66897e-23 7.95639e-21 2.57451e-06)
(-1.46503e-22 7.8232e-21 1.99301e-06)
(3.29826e-23 -1.96162e-22 1.20562e-06)
(3.69463e-23 -2.33588e-20 1.7061e-07)
(-9.19162e-23 7.98066e-21 -1.14876e-06)
(3.61466e-22 7.83913e-21 -2.78385e-06)
(-7.89411e-22 2.28549e-20 -4.76231e-06)
(3.09388e-22 -2.32239e-20 -7.11096e-06)
(6.23424e-22 -7.47275e-21 -9.85829e-06)
(-8.91522e-22 -3.69708e-24 -1.30366e-05)
(-8.91425e-22 -7.48862e-21 -1.66831e-05)
(7.80866e-22 7.11364e-21 -2.08415e-05)
(5.61042e-22 -5.86131e-20 -2.55627e-05)
(-1.03496e-21 1.25838e-19 -3.09047e-05)
(3.55245e-22 -6.77012e-20 -3.69295e-05)
(-1.22337e-21 -5.10486e-20 -4.36983e-05)
(2.34267e-21 -6.50028e-20 -5.12631e-05)
(-1.84046e-21 7.66125e-21 -5.96958e-05)
(-1.88174e-22 -7.14818e-21 -6.90654e-05)
(7.25138e-23 7.1535e-21 -7.94439e-05)
(-3.11977e-24 -1.27603e-22 -9.08762e-05)
(-6.75531e-23 -6.90096e-21 -0.000103407)
(-1.99335e-21 6.96151e-21 -0.000117078)
(4.17078e-21 1.28146e-23 -0.000131932)
(1.21763e-21 6.75989e-21 -0.000148019)
(-3.24949e-21 -5.27528e-24 -0.000165409)
(4.67671e-21 7.85273e-21 -0.000184207)
(-5.47542e-21 1.01903e-19 -0.000204577)
(6.71692e-22 -1.09427e-19 -0.000226766)
(-2.1053e-21 9.99836e-20 -0.000251152)
(2.05063e-21 -1.01118e-19 -0.000278303)
(4.81098e-23 1.33034e-21 -0.000309082)
(-6.26223e-23 -1.6333e-21 -0.000344833)
(2.74121e-21 -9.57578e-20 -0.000387707)
(-8.57235e-21 9.2932e-20 -0.000441239)
(-3.13488e-22 -1.53526e-21 -0.000511388)
(6.15378e-21 1.34589e-23 -0.000608314)
(6.69073e-21 1.46333e-23 -0.000749347)
(-6.66932e-21 -1.45865e-23 -0.000963738)
(-2.21133e-22 -4.83639e-25 -0.00129985)
(-2.30589e-22 -5.04321e-25 -0.00183533)
(-7.93758e-21 -1.73603e-23 -0.0026904)
(7.66182e-21 1.67572e-23 -0.00404304)
(-2.53039e-22 1.50569e-22 -0.00614312)
(-3.17433e-23 7.79413e-21 -0.00931966)
(-2.45383e-20 5.04639e-20 -0.0139725)
(2.36345e-20 -6.64956e-20 -0.0205353)
(-5.5406e-21 -9.46135e-21 -0.0293962)
(6.09053e-21 2.58367e-20 -0.04077)
(-2.02632e-20 -5.6569e-21 -0.0544397)
(-2.56791e-22 7.96837e-21 7.42098e-06)
(-1.03131e-22 1.56751e-20 5.61049e-06)
(3.02201e-22 7.6245e-21 3.13068e-06)
(-8.66432e-22 -7.83628e-21 -1.4508e-07)
(1.60887e-21 7.47501e-21 -4.319e-06)
(-4.99356e-22 -5.35385e-20 -9.47818e-06)
(-2.12611e-22 8.5016e-20 -1.57014e-05)
(-5.68136e-23 -8.85485e-21 -2.30673e-05)
(2.15431e-21 -9.79136e-20 -3.16616e-05)
(-2.23729e-21 1.38245e-19 -4.15826e-05)
(-8.14845e-22 1.26329e-19 -5.29463e-05)
(5.99973e-22 -1.13653e-19 -6.5889e-05)
(-3.89787e-22 7.30848e-22 -8.05691e-05)
(2.78014e-21 -7.23905e-21 -9.71681e-05)
(-2.164e-21 2.40719e-20 -0.000115883)
(-5.91056e-21 2.39129e-19 -0.000136899)
(1.60015e-21 -2.24888e-19 -0.000160401)
(-5.52912e-21 2.41006e-19 -0.000186582)
(-2.92215e-22 1.95086e-20 -0.000215707)
(-3.80805e-21 -7.3115e-21 -0.000247985)
(4.02501e-21 1.43989e-22 -0.000283588)
(-4.03689e-21 9.08166e-21 -0.000322666)
(1.0343e-21 2.09396e-19 -0.000365375)
(5.8268e-21 -4.43398e-19 -0.000411874)
(4.44731e-21 -2.11847e-19 -0.000462351)
(-6.90023e-21 4.28857e-19 -0.000517062)
(3.55531e-21 -4.27709e-19 -0.000576373)
(-1.89378e-21 4.38855e-19 -0.000640827)
(3.26065e-21 1.45625e-21 -0.000711233)
(-3.69148e-21 -9.67357e-23 -0.000788793)
(-1.24029e-21 -2.71265e-24 -0.00087529)
(0 0 -0.000973412)
(1.83333e-22 9.51442e-23 -0.0010873)
(1.09618e-20 1.22847e-20 -0.00122355)
(-1.55528e-20 3.5876e-19 -0.00139296)
(-1.565e-20 -2.40306e-20 -0.00161367)
(1.83716e-20 -3.53938e-19 -0.00191661)
(2.62981e-20 -3.05953e-19 -0.00235445)
(-9.22885e-21 3.26835e-19 -0.00301605)
(-3.09564e-20 2.17332e-21 -0.00404817)
(3.0237e-20 1.72443e-20 -0.00568628)
(-4.18125e-20 2.33339e-19 -0.00829444)
(2.25824e-20 -2.42712e-19 -0.0124111)
(-1.79085e-20 1.45922e-20 -0.0187912)
(1.98523e-20 7.6828e-21 -0.0284283)
(-5.95537e-20 1.12909e-19 -0.0425286)
(5.94803e-20 -1.10517e-19 -0.0623968)
(-9.15373e-20 8.25764e-20 -0.0891809)
(8.83338e-20 -9.21995e-20 -0.123455)
(-1.87076e-20 -6.33287e-22 -0.163194)
(-3.80117e-23 4.7207e-20 1.1875e-05)
(-8.4506e-23 1.49261e-20 8.61301e-06)
(3.71066e-22 -6.18376e-20 4.0537e-06)
(-7.8705e-22 1.23026e-19 -1.99489e-06)
(1.73752e-21 -2.63376e-19 -9.68407e-06)
(3.98338e-22 1.25243e-19 -1.91372e-05)
(-2.43679e-21 -8.65798e-22 -3.04712e-05)
(1.55476e-21 -1.70227e-20 -4.3812e-05)
(1.44031e-21 -2.57057e-19 -5.93056e-05)
(7.72997e-22 2.44947e-19 -7.71255e-05)
(-8.54015e-22 -1.6204e-21 -9.74793e-05)
(-4.19604e-21 -1.5664e-23 -0.000120612)
(6.6569e-21 -1.84371e-21 -0.00014681)
(-3.97939e-21 -2.50803e-19 -0.000176404)
(5.18132e-21 2.27935e-19 -0.000209748)
(-1.13326e-20 4.52954e-19 -0.000247196)
(-4.83247e-21 -1.20932e-20 -0.000289075)
(-4.64934e-21 4.66077e-19 -0.000335783)
(4.06739e-22 -1.41489e-20 -0.000387785)
(-1.22978e-20 4.52693e-19 -0.00044552)
(1.22146e-20 -4.70154e-19 -0.000509337)
(-9.09461e-21 4.49049e-19 -0.000579575)
(2.31819e-21 -4.67074e-19 -0.000656593)
(5.21654e-21 -9.31606e-21 -0.00074077)
(-2.58826e-21 1.36911e-20 -0.000832556)
(5.53285e-21 -8.82046e-21 -0.000932523)
(-1.8757e-20 4.21171e-19 -0.00104146)
(1.68519e-20 -4.48907e-19 -0.00116045)
(1.83363e-20 -4.17199e-19 -0.00129109)
(-1.50333e-20 4.19136e-19 -0.00143561)
(-1.08236e-21 -5.16771e-21 -0.00159726)
(1.12032e-20 -1.21241e-22 -0.00178087)
(-1.28245e-20 -2.47585e-20 -0.00199371)
(5.29634e-20 -7.62503e-19 -0.00224724)
(1.66012e-20 5.61537e-20 -0.00256008)
(-6.9901e-20 7.18192e-19 -0.00296337)
(3.95476e-21 -1.23361e-20 -0.00350996)
(-1.1434e-20 -4.8659e-21 -0.00428981)
(1.09846e-19 -6.03451e-19 -0.00545443)
(-2.04349e-19 1.18537e-18 -0.00725379)
(2.0851e-19 -1.17818e-18 -0.0100884)
(7.13225e-20 8.49744e-20 -0.0145765)
(-1.56978e-19 5.16141e-19 -0.0216309)
(-1.6497e-19 3.5636e-19 -0.032531)
(1.55884e-19 -4.22463e-19 -0.04896)
(-2.2226e-20 1.94765e-20 -0.0729644)
(5.49103e-20 -1.73401e-20 -0.106757)
(1.6498e-19 -1.02523e-19 -0.152242)
(-1.78575e-19 1.59987e-19 -0.210184)
(-2.53922e-20 -4.09969e-20 -0.272645)
(4.02352e-22 -3.1132e-20 1.5575e-05)
(-3.64161e-22 1.57431e-20 1.03481e-05)
(6.8904e-22 -1.71214e-22 2.89648e-06)
(-6.16826e-22 -1.54899e-20 -6.98037e-06)
(-9.62491e-22 -1.4442e-21 -1.94206e-05)
(3.31218e-21 -2.43143e-19 -3.45509e-05)
(-4.6569e-21 4.60446e-19 -5.25141e-05)
(2.27153e-21 -2.47926e-19 -7.34868e-05)
(-1.82313e-21 1.49577e-20 -9.76887e-05)
(4.82352e-21 -2.71515e-19 -0.00012539)
(-5.82054e-21 2.47755e-19 -0.000156917)
(-4.06836e-21 4.73031e-19 -0.000192658)
(1.06962e-20 -9.57067e-19 -0.000233064)
(-1.28947e-20 9.56084e-19 -0.000278654)
(1.71411e-20 -9.51673e-19 -0.000329999)
(-1.12332e-20 9.43225e-19 -0.000387664)
(-9.87207e-21 4.79799e-19 -0.000452204)
(-7.07439e-22 -3.77418e-21 -0.000524267)
(4.51656e-21 3.92062e-21 -0.000604646)
(-7.58665e-21 4.42722e-19 -0.000694089)
(-2.01762e-21 -4.64959e-19 -0.00079325)
(1.48239e-20 1.27743e-20 -0.000902803)
(-3.35515e-20 8.92892e-19 -0.00102347)
(2.53842e-20 -8.95873e-19 -0.00115605)
(2.27361e-21 -5.34272e-21 -0.00130147)
(-9.77557e-21 -9.12368e-23 -0.00146087)
(1.48547e-20 -1.35454e-20 -0.00163573)
(-4.82971e-21 1.23848e-22 -0.00182806)
(-5.3061e-21 -6.51888e-23 -0.00204054)
(5.05078e-21 1.96309e-22 -0.0022769)
(-3.72999e-21 1.43162e-21 -0.00254235)
(6.30466e-20 -7.9218e-19 -0.00284433)
(-5.71196e-20 8.14738e-19 -0.00319391)
(-1.61171e-20 2.00948e-22 -0.00360813)
(1.87688e-20 -1.03311e-20 -0.0041143)
(-9.8884e-20 7.27727e-19 -0.00475769)
(1.15488e-19 -7.30965e-19 -0.00561478)
(-2.27893e-20 2.21373e-21 -0.00681536)
(1.6102e-20 -9.22968e-23 -0.00857777)
(3.8285e-20 6.45365e-21 -0.0112621)
(-2.48321e-19 5.46577e-19 -0.0154446)
(3.68177e-19 -1.10819e-18 -0.0220145)
(-1.79775e-19 5.61596e-19 -0.0322846)
(2.61651e-19 -4.30046e-19 -0.0480973)
(-2.53241e-19 5.06638e-19 -0.0718899)
(-5.90887e-19 5.23177e-19 -0.106656)
(1.11596e-18 -1.10876e-18 -0.155679)
(-5.46517e-19 5.59937e-19 -0.221784)
(1.88658e-20 -2.17173e-21 -0.305734)
(4.54933e-21 -3.51212e-20 -0.386061)
(-7.34615e-22 1.58239e-20 1.79971e-05)
(-2.80442e-22 6.05996e-20 9.68595e-06)
(1.98608e-21 -1.84006e-19 -2.21024e-06)
(-1.3325e-21 2.46934e-19 -1.77147e-05)
(-2.58138e-22 -1.0935e-19 -3.68669e-05)
(1.12753e-22 -1.46172e-20 -5.97719e-05)
(-4.73352e-22 1.54098e-20 -8.66086e-05)
(3.03133e-21 -1.86803e-22 -0.000117631)
(-2.8835e-21 -1.50639e-20 -0.000153168)
(-5.24792e-21 3.3786e-20 -0.000193631)
(-6.95132e-21 4.81098e-19 -0.000239512)
(1.84117e-20 -5.00033e-19 -0.000291393)
(-2.27384e-20 4.66508e-19 -0.000349953)
(1.89355e-20 -4.85277e-19 -0.000415969)
(-3.01009e-21 3.40138e-21 -0.000490298)
(1.10017e-20 4.7664e-23 -0.000573813)
(4.18373e-21 3.72018e-21 -0.00066739)
(-5.22283e-21 4.53442e-19 -0.000772063)
(2.01995e-20 -4.90699e-19 -0.000889079)
(6.34955e-21 2.69552e-20 -0.00101967)
(-4.567e-20 9.35094e-19 -0.00116498)
(2.89935e-20 -9.37771e-19 -0.00132625)
(1.01925e-20 2.26512e-20 -0.00150484)
(-1.80709e-20 -2.33572e-22 -0.00170225)
(1.18247e-20 9.65068e-21 -0.00192025)
(-3.86746e-20 8.98958e-19 -0.00216097)
(3.18823e-20 -8.90526e-19 -0.00242707)
(2.84114e-21 9.63558e-21 -0.00272197)
(9.56492e-21 2.72903e-20 -0.00305011)
(-1.15246e-20 -5.50445e-22 -0.0034174)
(1.17686e-21 -1.30527e-20 -0.00383177)
(-3.73725e-20 1.32555e-20 -0.00430423)
(3.51694e-20 1.26287e-20 -0.00485058)
(-3.13031e-21 -2.53058e-20 -0.00549451)
(8.24374e-20 -7.41277e-19 -0.00627322)
(-7.346e-20 7.64059e-19 -0.0072474)
(2.69718e-19 -1.47066e-18 -0.00851873)
(-2.47243e-19 1.48491e-18 -0.010259)
(3.06795e-19 -1.38998e-18 -0.0127571)
(7.18618e-20 1.32084e-19 -0.0164892)
(-3.52946e-19 1.32453e-18 -0.022219)
(-1.21123e-19 -2.22379e-20 -0.0311265)
(1.6486e-20 3.87232e-22 -0.0449595)
(-1.83867e-20 5.62524e-22 -0.0661884)
(5.43038e-20 1.66795e-21 -0.0981307)
(2.61346e-20 1.36249e-20 -0.144987)
(-1.13362e-19 5.15194e-21 -0.211628)
(6.45472e-20 4.99537e-21 -0.302616)
(-1.65523e-22 -3.1075e-22 -0.419227)
(3.61326e-20 6.406e-22 -0.513747)
(-7.09713e-22 7.62744e-20 1.83613e-05)
(1.6477e-21 -4.65097e-20 4.49582e-06)
(-1.66952e-21 -1.63994e-20 -1.46091e-05)
(4.67373e-21 -2.27892e-19 -3.8517e-05)
(-2.29098e-21 2.29768e-19 -6.71708e-05)
(2.03617e-21 -2.27356e-19 -0.000100713)
(-1.09825e-20 5.01365e-19 -0.000139428)
(1.15886e-20 -7.02157e-19 -0.000183717)
(-7.48287e-21 4.96529e-19 -0.000234087)
(-5.9333e-21 4.8404e-19 -0.000291156)
(-2.20266e-21 3.95574e-21 -0.000355657)
(2.44351e-20 -9.50875e-19 -0.000428443)
(-2.13564e-20 9.89585e-19 -0.000510503)
(5.1191e-21 -4.6558e-19 -0.000602969)
(1.21134e-20 -4.67861e-19 -0.000707098)
(2.24451e-20 -4.60367e-19 -0.000824193)
(-3.24338e-21 6.67474e-21 -0.000955603)
(3.83845e-20 -9.54705e-19 -0.00110293)
(2.97125e-20 -9.16627e-19 -0.00126809)
(6.58569e-21 2.12037e-20 -0.00145302)
(-2.67568e-20 9.52065e-19 -0.00165965)
(-2.01462e-20 -8.08754e-21 -0.00189013)
(1.23007e-20 8.95545e-21 -0.00214683)
(-5.08932e-20 9.21931e-19 -0.00243245)
(4.13595e-20 -9.36508e-19 -0.00275012)
(7.29804e-20 -8.99592e-19 -0.00310359)
(-7.42096e-20 9.29234e-19 -0.00349743)
(1.50833e-20 -2.00334e-20 -0.00393732)
(6.79014e-20 -8.96922e-19 -0.00443044)
(-9.56778e-20 9.19816e-19 -0.00498595)
(4.37859e-21 1.23623e-20 -0.0056158)
(-2.07532e-19 1.68482e-18 -0.00633594)
(1.87662e-19 -1.74799e-18 -0.0071684)
(4.85523e-20 6.2125e-20 -0.00814503)
(-2.67684e-19 1.59509e-18 -0.00931432)
(2.45365e-19 -1.66319e-18 -0.0107535)
(-3.16321e-20 -3.31536e-21 -0.01259)
(4.72488e-19 -1.50011e-18 -0.0150377)
(-4.42244e-19 1.54924e-18 -0.0184552)
(-6.63867e-20 -7.26179e-20 -0.0234359)
(6.79717e-19 -1.30974e-18 -0.0309352)
(-1.19612e-18 2.70126e-18 -0.0424384)
(-6.62792e-20 -1.55481e-19 -0.0601628)
(-8.87471e-20 -1.21955e-19 -0.0872808)
(7.7248e-19 -1.17654e-18 -0.128152)
(3.95952e-20 6.31412e-20 -0.188585)
(-8.72422e-19 7.80275e-19 -0.27613)
(8.55431e-19 -8.58036e-19 -0.399852)
(9.30367e-21 2.90326e-20 -0.566239)
(9.37547e-21 -2.74233e-21 -0.680753)
(6.0612e-22 -1.58861e-20 1.56423e-05)
(1.67236e-21 -1.35504e-19 -9.6382e-06)
(-1.79604e-21 1.22207e-19 -4.00619e-05)
(-1.2744e-21 -1.72059e-20 -7.57035e-05)
(5.32039e-21 -2.26482e-19 -0.000116805)
(-4.90914e-21 2.32946e-19 -0.000163732)
(-5.78115e-21 4.70556e-19 -0.000216973)
(-5.11029e-21 -1.9444e-20 -0.000277127)
(2.21464e-21 -4.56344e-21 -0.000344908)
(1.44166e-20 -5.01801e-19 -0.000421153)
(-1.17438e-20 4.69544e-19 -0.000506832)
(1.76463e-20 -9.93398e-19 -0.000603058)
(-4.02169e-21 4.96576e-19 -0.000711108)
(-3.65686e-21 -1.86867e-20 -0.000832432)
(-4.87912e-21 -2.23607e-20 -0.000968635)
(2.84832e-20 -9.7482e-19 -0.00112138)
(-1.6161e-21 -2.01455e-20 -0.00129239)
(2.7371e-20 -9.92963e-19 -0.00148374)
(-5.41662e-21 -7.70761e-21 -0.00169786)
(-1.69992e-22 1.19536e-22 -0.0019372)
(1.14695e-20 8.45239e-21 -0.00220424)
(-5.30666e-20 9.5549e-19 -0.00250166)
(4.73178e-20 -9.76007e-19 -0.00283242)
(1.28015e-20 8.35681e-21 -0.00319982)
(-8.72712e-21 -1.49593e-20 -0.00360758)
(-6.18494e-21 9.9257e-21 -0.00405996)
(-7.43692e-20 9.22514e-19 -0.00456199)
(1.59835e-19 -1.88204e-18 -0.00511967)
(-7.57899e-20 9.81457e-19 -0.00574021)
(-1.92441e-19 1.81917e-18 -0.00643242)
(-3.04912e-20 -4.54514e-20 -0.00720726)
(2.62606e-21 -2.63943e-20 -0.00807873)
(-6.62428e-20 -5.37831e-20 -0.00906563)
(2.59623e-19 -1.81839e-18 -0.0101948)
(3.99774e-19 -1.68372e-18 -0.0115076)
(-3.56926e-19 1.7671e-18 -0.0130721)
(-3.40371e-20 -5.50613e-20 -0.0150054)
(4.7391e-19 -1.61057e-18 -0.0175138)
(-4.18027e-19 1.70583e-18 -0.0209588)
(-6.69242e-19 1.51566e-18 -0.0259641)
(5.68957e-19 -1.60065e-18 -0.0335723)
(7.84498e-20 -1.12461e-20 -0.0454623)
(8.70612e-19 -1.41522e-18 -0.064221)
(1.21611e-19 1.2216e-19 -0.0936646)
(-1.00617e-18 1.38654e-18 -0.139209)
(-1.62843e-20 -3.97201e-20 -0.208372)
(3.36396e-20 5.27942e-22 -0.312112)
(-3.40593e-20 1.56454e-20 -0.469748)
(-5.14494e-19 5.38381e-19 -0.718548)
(5.05864e-19 -5.47547e-19 -0.987737)
(-1.07059e-20 -3.14677e-21 0.0102932)
(-1.06966e-20 -5.88882e-22 0.004952)
(1.00299e-20 1.00867e-20 0.000437698)
(-7.02085e-21 2.32145e-21 -0.00332444)
(7.54143e-21 -1.1711e-20 -0.00641505)
(3.53982e-23 3.46251e-21 -0.00891725)
(-1.68288e-22 -9.56432e-23 -0.0109088)
(-5.36167e-21 1.17265e-23 -0.0124571)
(5.21099e-21 -1.13969e-23 -0.0136225)
(-1.53069e-22 3.34777e-25 -0.014457)
(-1.44877e-22 3.1686e-25 -0.0150045)
(4.16076e-21 -9.1e-24 -0.0153043)
(-4.17413e-21 9.12924e-24 -0.0153911)
(-3.56008e-21 7.78625e-24 -0.015296)
(3.49104e-22 -7.81169e-22 -0.0150475)
(5.88359e-21 1.50629e-20 -0.0146713)
(-2.52537e-21 -1.25299e-20 -0.0141906)
(-5.13467e-23 -7.35884e-22 -0.0136264)
(-1.71634e-23 4.74606e-22 -0.0129977)
(-2.58709e-21 -3.01454e-20 -0.0123214)
(2.61552e-21 2.95775e-20 -0.0116122)
(-1.96537e-21 -3.50984e-20 -0.0108828)
(1.00063e-21 2.20551e-21 -0.0101442)
(-1.15655e-21 9.07992e-24 -0.00940644)
(8.06551e-22 3.03586e-21 -0.0086792)
(-2.76309e-22 1.45284e-23 -0.00796978)
(-5.17354e-22 1.13151e-24 -0.0072835)
(2.23668e-22 -4.6496e-24 -0.00662492)
(2.29543e-22 4.00556e-21 -0.00599774)
(-5.77021e-24 5.29347e-24 -0.00540469)
(-2.17519e-22 -4.45206e-21 -0.00484767)
(2.09761e-22 4.66176e-21 -0.00432785)
(-2.42707e-22 -4.84759e-21 -0.00384574)
(1.02687e-21 4.61294e-20 -0.00340131)
(-9.73113e-22 -4.64652e-20 -0.00299404)
(-4.60104e-22 -3.84561e-20 -0.00262297)
(1.07447e-21 8.37346e-20 -0.00228684)
(-6.00374e-22 -4.54401e-20 -0.00198409)
(-8.36228e-23 -5.87994e-21 -0.00171296)
(8.14057e-23 6.06187e-21 -0.00147149)
(-5.44773e-23 1.74234e-25 -0.00125765)
(1.9504e-22 6.30535e-21 -0.00106932)
(-3.13541e-22 -3.24057e-20 -0.000904358)
(2.83569e-22 3.26096e-20 -0.000760635)
(-6.4985e-23 -6.68353e-21 -0.000636061)
(1.81605e-22 2.04089e-20 -0.000528613)
(2.44161e-23 -6.80147e-21 -0.000436341)
(-1.11321e-22 -1.39635e-20 -0.000357373)
(2.69136e-23 7.02039e-21 -0.00028989)
(-7.91857e-23 -7.14343e-21 -0.000232142)
(-1.54578e-20 2.53222e-20 0.0297828)
(3.12497e-20 -9.12565e-21 0.0138917)
(-2.52826e-20 -2.27444e-20 0.000370833)
(7.42434e-21 2.24215e-20 -0.0108097)
(-7.85571e-21 -2.18687e-20 -0.01993)
(-1.24109e-20 6.11362e-21 -0.0272691)
(1.09509e-20 6.37727e-21 -0.0330779)
(6.00678e-21 8.81283e-21 -0.0375685)
(6.22921e-21 -2.00796e-20 -0.0409259)
(-2.14237e-20 5.9831e-21 -0.0433078)
(1.94879e-20 -4.94614e-21 -0.0448461)
(6.61513e-21 1.87087e-20 -0.0456575)
(-1.76504e-20 -5.96481e-21 -0.045845)
(-1.96405e-20 -4.17568e-20 -0.0455014)
(6.36696e-21 -2.02095e-20 -0.0447107)
(2.03258e-20 5.02484e-20 -0.0435487)
(-6.13038e-21 2.56905e-21 -0.0420836)
(-8.4573e-22 -2.88877e-21 -0.0403775)
(9.59058e-24 -8.5456e-23 -0.0384859)
(4.42482e-22 -9.67751e-25 -0.0364584)
(1.222e-21 1.79865e-23 -0.0343383)
(-1.48277e-21 -3.40981e-21 -0.0321624)
(2.32438e-20 1.66322e-19 -0.0299625)
(-2.57989e-20 -1.78706e-19 -0.0277696)
(2.49477e-20 2.01216e-19 -0.0256092)
(-1.30275e-20 -9.37028e-20 -0.0235044)
(-2.41815e-20 -2.2932e-19 -0.0214705)
(1.16684e-20 1.17721e-19 -0.0195204)
(1.06969e-22 -3.77947e-21 -0.0176648)
(-1.05151e-21 -8.62619e-21 -0.0159114)
(3.77485e-22 4.45911e-21 -0.0142656)
(-1.04816e-21 -1.40954e-20 -0.0127306)
(8.72598e-21 1.54534e-19 -0.0113077)
(-1.83038e-20 -3.30628e-19 -0.00999675)
(8.24369e-21 1.6072e-19 -0.00879593)
(-9.62109e-22 -1.64482e-20 -0.00770238)
(2.92887e-22 5.61325e-21 -0.00671221)
(-2.48034e-23 -6.84397e-23 -0.00582076)
(-3.74085e-21 -1.01802e-19 -0.0050227)
(3.18173e-21 9.01214e-20 -0.00431227)
(2.28901e-21 8.76297e-20 -0.00368335)
(-3.37156e-21 -1.1946e-19 -0.00312968)
(7.98777e-23 6.54101e-21 -0.00264489)
(6.92157e-22 3.31565e-20 -0.00222269)
(-1.52429e-21 -5.97337e-20 -0.0018569)
(2.77144e-23 -6.76067e-21 -0.00154152)
(-9.45317e-22 -4.82604e-20 -0.0012708)
(-1.75754e-22 -7.24802e-21 -0.00103919)
(2.21377e-22 1.38928e-20 -0.000841243)
(2.63499e-22 2.1302e-20 -0.000671559)
(-1.43202e-20 -1.03971e-21 0.0459281)
(-1.44779e-20 -1.60455e-20 0.0197283)
(3.67272e-20 3.00883e-20 -0.00270809)
(-4.40114e-20 -1.2591e-20 -0.0209427)
(1.81298e-20 1.18393e-20 -0.0355955)
(1.56395e-20 1.22211e-20 -0.0472404)
(-6.81765e-21 -4.99217e-20 -0.056351)
(3.39159e-20 1.33713e-21 -0.0633106)
(-2.62632e-20 4.52717e-20 -0.0684394)
(-5.15726e-20 -3.63403e-20 -0.0720048)
(8.94089e-20 3.55005e-20 -0.0742235)
(-5.5117e-20 -1.04668e-20 -0.075286)
(5.46444e-21 -1.10514e-20 -0.075361)
(-3.00127e-21 -7.47941e-21 -0.0745991)
(8.12087e-20 1.2679e-19 -0.0731354)
(-3.12831e-21 3.875e-20 -0.0710915)
(-7.51932e-20 -1.49815e-19 -0.0685771)
(9.29395e-21 -3.37158e-22 -0.065691)
(-5.44908e-21 2.04112e-22 -0.0625217)
(2.37794e-22 -1.74893e-21 -0.0591483)
(4.29376e-20 1.53328e-19 -0.0556393)
(-4.21551e-20 -1.43658e-19 -0.0520533)
(-4.24272e-20 -1.80894e-19 -0.0484415)
(4.54688e-20 1.8808e-19 -0.0448492)
(6.21708e-22 7.96091e-21 -0.0413202)
(-1.04949e-21 -7.10052e-21 -0.0378876)
(7.95385e-22 7.91612e-21 -0.0345775)
(-3.59728e-20 -2.51481e-19 -0.0314092)
(3.84851e-20 2.59246e-19 -0.0283988)
(-3.35987e-20 -2.69131e-19 -0.0255581)
(3.59127e-20 2.8713e-19 -0.022895)
(8.15361e-22 9.7345e-21 -0.0204141)
(3.07101e-20 3.24554e-19 -0.0181169)
(-5.94485e-20 -6.51293e-19 -0.0160024)
(3.00657e-20 3.47817e-19 -0.0140675)
(1.41215e-20 1.89818e-19 -0.0123071)
(-1.25443e-20 -1.6793e-19 -0.0107145)
(3.63162e-22 8.26392e-23 -0.00928195)
(-5.32042e-22 -9.25518e-23 -0.00800057)
(-5.98727e-23 1.21137e-22 -0.00686084)
(9.49786e-21 2.01263e-19 -0.00585275)
(-9.18994e-21 -1.89137e-19 -0.00496601)
(7.54494e-22 1.3099e-20 -0.00419028)
(-4.1555e-22 -5.74839e-24 -0.00351529)
(3.52062e-21 1.07458e-19 -0.00293101)
(-6.482e-21 -2.0327e-19 -0.00242774)
(3.18551e-21 1.09275e-19 -0.00199614)
(-1.60916e-21 -5.59727e-20 -0.00162718)
(1.21474e-21 4.1829e-20 -0.00131184)
(2.87743e-22 1.40428e-20 -0.00104062)
(1.88835e-21 2.70307e-20 0.0555167)
(8.77523e-21 -5.48559e-20 0.0195156)
(-6.86285e-20 1.90579e-20 -0.0114602)
(1.03452e-19 7.08916e-20 -0.03593)
(-1.88501e-20 -1.02811e-19 -0.0551319)
(-1.14486e-21 3.53716e-20 -0.0700972)
(-1.46846e-20 6.32904e-21 -0.0815907)
(1.41777e-20 2.62278e-20 -0.0902008)
(-7.23352e-20 -4.52647e-20 -0.0963916)
(9.43555e-20 5.87912e-21 -0.100531)
(-2.42683e-20 1.2851e-20 -0.10292)
(-1.24525e-20 6.97718e-22 -0.103814)
(1.76681e-20 9.57094e-21 -0.103438)
(-1.12132e-19 -1.44495e-19 -0.101992)
(9.62706e-20 1.23732e-19 -0.0996539)
(-6.77391e-21 1.38047e-20 -0.0965832)
(6.34375e-21 -8.24522e-21 -0.0929236)
(1.13867e-19 2.51249e-19 -0.0888039)
(-1.16782e-19 -2.39755e-19 -0.0843395)
(-5.76089e-22 -1.0359e-20 -0.0796326)
(-1.67623e-21 -6.82925e-23 -0.074773)
(2.01483e-21 4.59003e-22 -0.0698361)
(1.18796e-21 -4.32225e-23 -0.0648878)
(-1.73877e-21 6.6882e-21 -0.0599865)
(2.9393e-21 3.93216e-22 -0.0551862)
(1.33444e-21 8.39406e-21 -0.0505306)
(-1.11405e-19 -5.22865e-19 -0.0460535)
(1.11163e-19 5.13419e-19 -0.0417784)
(-1.42328e-21 1.38983e-21 -0.0377249)
(-4.80691e-20 -2.97178e-19 -0.0339072)
(5.10576e-20 3.06787e-19 -0.0303345)
(-1.30196e-22 2.20245e-22 -0.0270119)
(-1.95149e-22 -2.91172e-22 -0.0239402)
(-4.21425e-20 -3.54315e-19 -0.0211171)
(8.10067e-20 7.09384e-19 -0.0185375)
(-7.50217e-20 -7.18664e-19 -0.0161938)
(7.11692e-20 7.38032e-19 -0.0140765)
(-6.67307e-20 -7.56272e-19 -0.0121745)
(3.21381e-20 3.82928e-19 -0.0104754)
(1.39997e-20 1.98987e-19 -0.00896615)
(-1.23159e-20 -1.74322e-19 -0.007633)
(-1.02234e-21 -1.28683e-20 -0.0064619)
(-1.13214e-20 -2.09351e-19 -0.00543881)
(2.36382e-20 4.48928e-19 -0.00454985)
(-1.08433e-20 -2.13133e-19 -0.00378147)
(1.08512e-22 1.79811e-22 -0.00312062)
(4.39872e-22 1.37015e-20 -0.00255476)
(-9.49683e-23 -6.44845e-23 -0.00207166)
(-4.207e-22 -1.39875e-20 -0.00165885)
(9.04094e-22 2.8316e-20 -0.00130216)
(2.75567e-20 9.79295e-23 0.0542931)
(3.35756e-22 3.89281e-22 0.00904636)
(-6.20666e-20 4.01488e-22 -0.0294476)
(9.13725e-20 -3.93154e-22 -0.05853)
(-2.74404e-20 -2.62586e-22 -0.0805674)
(-4.32793e-20 -8.9755e-22 -0.0972639)
(1.45228e-20 3.3321e-22 -0.109749)
(-1.11982e-20 -5.82695e-22 -0.118818)
(8.95903e-20 -2.46831e-20 -0.125063)
(1.01871e-19 1.80642e-19 -0.128939)
(6.82438e-21 8.32025e-20 -0.130811)
(-1.40331e-19 -2.44362e-19 -0.130983)
(1.96419e-19 3.09088e-19 -0.12972)
(-2.13888e-19 -3.0154e-19 -0.127254)
(1.06627e-19 1.97998e-19 -0.123793)
(-1.17806e-19 -2.07389e-19 -0.119522)
(5.37085e-21 -3.85418e-21 -0.114607)
(-2.11841e-20 -3.71386e-21 -0.109198)