/*--------------------------------*- C++ -*----------------------------------*\
| =========                 |                                                 |
| \\      /  F ield         | OpenFOAM: The Open Source CFD Toolbox           |
|  \\    /   O peration     | Version:  2412                                  |
|   \\  /    A nd           | Website:  www.openfoam.com                      |
|    \\/     M anipulation  |                                                 |
\*---------------------------------------------------------------------------*/
FoamFile
{
    version     2.0;
    format      ascii;
    arch        "LSB;label=32;scalar=64";
    class       surfaceScalarField;
    location    "5";
    object      phi;
}
// * * * * * * * * * * * * * * * * * * * * * * * * * * * * * * * * * * * * * //

dimensions      [0 3 -1 0 0 0 0];

oriented        oriented;

internalField   nonuniform List<scalar> 
10424
(
0.00525123
-0.000179956
-0.00525276
0.00524986
-0.00017808
0.00524864
-0.00017611
-0.000174052
0.00525712
-0.000178256
-0.00525882
0.00525558
-0.000176541
0.0052542
-0.000174729
0.00525298
-0.000172825
0.0052519
-0.000170833
0.00525097
-0.000168753
0.00525019
-0.000166585
0.00524954
-0.000164327
0.00524903
-0.000161975
0.00524866
-0.000159532
0.00524841
-0.000157004
0.00524829
-0.000154402
0.00524828
-0.000151742
0.00524839
-0.000149043
0.0052486
-0.000146318
0.00524891
-0.000143577
0.00524931
-0.000140826
0.0052498
-0.000138066
0.00525037
-0.000135296
0.00525101
-0.000132515
0.00525171
-0.000129721
0.00525248
-0.000126916
0.00525331
-0.000124101
0.00525418
-0.000121279
0.0052551
-0.000118451
0.00525606
-0.000115621
0.00525705
-0.000112792
0.00525807
-0.000109966
0.00525912
-0.000107147
0.00526019
-0.000104337
0.00526127
-0.000101539
0.00526236
-9.87536e-05
0.00526347
-9.59844e-05
0.00526458
-9.3233e-05
0.00526569
-9.05015e-05
0.0052668
-8.77917e-05
0.0052679
-8.51054e-05
0.005269
-8.24443e-05
0.00527009
-7.98101e-05
0.00527116
-7.72044e-05
0.00527223
-7.46286e-05
0.00527327
-7.20844e-05
0.0052743
-6.9573e-05
-6.70959e-05
0.00526281
-0.000176406
-0.00526466
0.00526111
-0.000174849
0.00525958
-0.000173193
0.00525819
-0.000171442
0.00525696
-0.000169599
0.00525587
-0.000167665
0.00525493
-0.000165641
0.00525412
-0.000163522
0.00525346
-0.000161308
0.00525292
-0.000158998
0.00525252
-0.0001566
0.00525224
-0.000154123
0.00525208
-0.000151583
0.00525203
-0.000148997
0.0052521
-0.00014638
0.00525226
-0.000143741
0.00525252
-0.000141085
0.00525287
-0.000138414
0.0052533
-0.000135726
0.0052538
-0.000133022
0.00525438
-0.000130299
0.00525502
-0.000127559
0.00525573
-0.000124804
0.00525648
-0.000122035
0.00525729
-0.000119255
0.00525814
-0.000116469
0.00525902
-0.000113678
0.00525994
-0.000110887
0.00526089
-0.000108096
0.00526187
-0.000105311
0.00526286
-0.000102532
0.00526387
-9.97635e-05
0.00526489
-9.70066e-05
0.00526592
-9.42639e-05
0.00526696
-9.15376e-05
0.005268
-8.88299e-05
0.00526903
-8.61426e-05
0.00527007
-8.34778e-05
0.00527109
-8.08373e-05
0.00527211
-7.82228e-05
0.00527312
-7.56361e-05
0.00527411
-7.30788e-05
0.00527509
-7.05525e-05
-6.80587e-05
0.00526828
-0.00017442
-0.00527027
0.00526645
-0.000173018
0.00526477
-0.000171515
0.00526324
-0.000169915
0.00526186
-0.000168219
0.00526063
-0.000166431
0.00525954
-0.000164548
0.00525859
-0.000162569
0.00525777
-0.000160492
0.00525709
-0.000158316
0.00525653
-0.000156047
0.00525611
-0.000153696
0.0052558
-0.000151278
0.00525561
-0.000148808
0.00525553
-0.0001463
0.00525556
-0.000143765
0.00525568
-0.000141206
0.00525589
-0.000138627
0.00525619
-0.000136025
0.00525657
-0.0001334
0.00525702
-0.000130751
0.00525754
-0.00012808
0.00525813
-0.000125388
0.00525877
-0.000122676
0.00525946
-0.00011995
0.00526021
-0.00011721
0.00526099
-0.000114462
0.00526181
-0.000111708
0.00526266
-0.00010895
0.00526355
-0.000106193
0.00526445
-0.000103438
0.00526538
-0.000100689
0.00526632
-9.79481e-05
0.00526727
-9.52176e-05
0.00526824
-9.25e-05
0.0052692
-8.97976e-05
0.00527017
-8.71127e-05
0.00527114
-8.44472e-05
0.00527211
-8.18034e-05
0.00527307
-7.9183e-05
0.00527402
-7.65881e-05
0.00527496
-7.40204e-05
0.00527589
-7.14817e-05
-6.89737e-05
0.00527354
-0.000172313
-0.00527565
0.00527159
-0.000171063
0.00526978
-0.000169709
0.00526812
-0.000168256
0.00526661
-0.000166706
0.00526524
-0.000165061
0.00526401
-0.000163319
0.00526292
-0.000161479
0.00526197
-0.000159537
0.00526115
-0.000157495
0.00526046
-0.000155357
0.00525989
-0.000153132
0.00525945
-0.000150836
0.00525912
-0.000148483
0.00525891
-0.000146086
0.0052588
-0.000143656
0.00525879
-0.000141197
0.00525888
-0.000138711
0.00525905
-0.000136197
0.0052593
-0.000133655
0.00525963
-0.000131083
0.00526004
-0.000128484
0.00526051
-0.000125857
0.00526104
-0.000123207
0.00526163
-0.000120537
0.00526226
-0.000117848
0.00526295
-0.000115146
0.00526367
-0.000112432
0.00526443
-0.000109711
0.00526522
-0.000106985
0.00526604
-0.000104258
0.00526689
-0.000101532
0.00526775
-9.88103e-05
0.00526863
-9.60952e-05
0.00526952
-9.33895e-05
0.00527041
-9.06957e-05
0.00527132
-8.80161e-05
0.00527222
-8.5353e-05
0.00527313
-8.27087e-05
0.00527403
-8.00853e-05
0.00527493
-7.74849e-05
0.00527582
-7.49095e-05
0.0052767
-7.23609e-05
-6.98411e-05
0.0052786
-0.000170098
-0.00528081
0.00527653
-0.000168995
0.00527461
-0.000167788
0.00527283
-0.000166479
0.0052712
-0.000165072
0.0052697
-0.000163567
0.00526835
-0.000161964
0.00526713
-0.000160261
0.00526605
-0.000158455
0.0052651
-0.000156545
0.00526428
-0.000154536
0.00526358
-0.000152438
0.00526301
-0.000150264
0.00526256
-0.000148028
0.00526222
-0.000145744
0.00526198
-0.000143421
0.00526185
-0.000141063
0.00526181
-0.000138673
0.00526186
-0.000136249
0.005262
-0.000133792
0.00526221
-0.0001313
0.00526251
-0.000128774
0.00526287
-0.000126217
0.00526329
-0.000123631
0.00526377
-0.000121019
0.00526431
-0.000118385
0.00526489
-0.000115731
0.00526552
-0.000113062
0.00526619
-0.000110381
0.0052669
-0.00010769
0.00526763
-0.000104993
0.0052684
-0.000102294
0.00526918
-9.95944e-05
0.00526998
-9.68979e-05
0.0052708
-9.42072e-05
0.00527163
-9.15249e-05
0.00527247
-8.88536e-05
0.00527331
-8.61957e-05
0.00527415
-8.35538e-05
0.005275
-8.093e-05
0.00527584
-7.83267e-05
0.00527668
-7.57461e-05
0.00527751
-7.31901e-05
-7.06608e-05
0.00528345
-0.000167788
-0.00528576
0.00528128
-0.000166828
0.00527926
-0.000165763
0.00527737
-0.000164595
0.00527563
-0.000163327
0.00527402
-0.00016196
0.00527255
-0.000160494
0.00527121
-0.000158926
0.00527001
-0.000157253
0.00526894
-0.000155475
0.005268
-0.000153595
0.00526719
-0.000151623
0.00526649
-0.000149571
0.00526592
-0.000147453
0.00526546
-0.000145282
0.0052651
-0.000143066
0.00526485
-0.000140811
0.00526469
-0.000138518
0.00526463
-0.000136186
0.00526466
-0.000133815
0.00526476
-0.000131405
0.00526494
-0.000128957
0.0052652
-0.000126471
0.00526552
-0.000123952
0.0052659
-0.000121402
0.00526634
-0.000118824
0.00526683
-0.000116223
0.00526737
-0.000113601
0.00526795
-0.000110961
0.00526857
-0.000108309
0.00526922
-0.000105646
0.0052699
-0.000102976
0.00527061
-0.000100302
0.00527134
-9.76269e-05
0.00527209
-9.4954e-05
0.00527285
-9.22861e-05
0.00527362
-8.96259e-05
0.0052744
-8.6976e-05
0.00527519
-8.4339e-05
0.00527597
-8.17175e-05
0.00527676
-7.91139e-05
0.00527754
-7.65305e-05
0.00527832
-7.39695e-05
-7.14331e-05
0.00528809
-0.000165395
-0.00529049
0.00528584
-0.000164573
0.00528372
-0.000163646
0.00528174
-0.000162615
0.0052799
-0.000161483
0.00527819
-0.000160251
0.00527661
-0.000158919
0.00527517
-0.000157483
0.00527386
-0.000155942
0.00527268
-0.000154293
0.00527162
-0.000152542
0.0052707
-0.000150695
0.00526989
-0.000148765
0.0052692
-0.000146765
0.00526863
-0.000144706
0.00526816
-0.000142599
0.00526779
-0.000140447
0.00526753
-0.000138252
0.00526736
-0.000136014
0.00526727
-0.000133731
0.00526727
-0.000131405
0.00526735
-0.000129035
0.0052675
-0.000126624
0.00526772
-0.000124173
0.00526801
-0.000121687
0.00526835
-0.000119169
0.00526875
-0.000116622
0.0052692
-0.00011405
0.0052697
-0.000111456
0.00527023
-0.000108844
0.0052708
-0.000106218
0.00527141
-0.00010358
0.00527204
-0.000100934
0.0052727
-9.82834e-05
0.00527337
-9.56312e-05
0.00527407
-9.29803e-05
0.00527478
-9.03338e-05
0.00527549
-8.76945e-05
0.00527622
-8.50651e-05
0.00527695
-8.24484e-05
0.00527768
-7.98468e-05
0.00527842
-7.7263e-05
0.00527915
-7.46994e-05
-7.21582e-05
0.00529254
-0.00016293
-0.005295
0.00529021
-0.000162242
0.00528801
-0.000161448
0.00528594
-0.000160549
0.00528401
-0.00015955
0.00528221
-0.000158449
0.00528054
-0.000157248
0.005279
-0.000155942
0.00527759
-0.00015453
0.0052763
-0.00015301
0.00527514
-0.000151385
0.00527411
-0.000149662
0.0052732
-0.000147853
0.0052724
-0.00014597
0.00527172
-0.000144024
0.00527115
-0.000142025
0.00527068
-0.000139977
0.00527031
-0.000137881
0.00527003
-0.000135737
0.00526984
-0.000133545
0.00526974
-0.000131303
0.00526972
-0.000129014
0.00526978
-0.000126678
0.0052699
-0.000124299
0.00527009
-0.00012188
0.00527035
-0.000119423
0.00527066
-0.000116933
0.00527102
-0.000114413
0.00527143
-0.000111867
0.00527189
-0.000109298
0.00527238
-0.000106711
0.00527291
-0.000104108
0.00527347
-0.000101493
0.00527405
-9.88689e-05
0.00527466
-9.62398e-05
0.00527529
-9.36086e-05
0.00527593
-9.09783e-05
0.00527659
-8.8352e-05
0.00527726
-8.57327e-05
0.00527793
-8.31231e-05
0.00527861
-8.0526e-05
0.00527929
-7.79441e-05
0.00527997
-7.538e-05
-7.28361e-05
0.00529679
-0.000160405
-0.00529931
0.00529439
-0.000159845
0.00529212
-0.000159179
0.00528998
-0.000158409
0.00528797
-0.000157537
0.00528608
-0.000156565
0.00528433
-0.00015549
0.0052827
-0.000154312
0.00528119
-0.000153026
0.00527981
-0.000151632
0.00527856
-0.000150132
0.00527743
-0.000148531
0.00527642
-0.000146842
0.00527553
-0.000145075
0.00527474
-0.000143242
0.00527407
-0.000141352
0.0052735
-0.000139407
0.00527303
-0.000137411
0.00527266
-0.000135362
0.00527237
-0.00013326
0.00527217
-0.000131105
0.00527206
-0.000128898
0.00527202
-0.00012664
0.00527205
-0.000124334
0.00527216
-0.000121982
0.00527232
-0.000119589
0.00527255
-0.000117158
0.00527283
-0.000114692
0.00527316
-0.000112196
0.00527353
-0.000109673
0.00527395
-0.000107127
0.0052744
-0.000104561
0.00527489
-0.000101979
0.0052754
-9.93847e-05
0.00527594
-9.67812e-05
0.00527651
-9.4172e-05
0.00527709
-9.15604e-05
0.00527769
-8.89495e-05
0.0052783
-8.63424e-05
0.00527892
-8.37422e-05
0.00527954
-8.11518e-05
0.00528017
-7.85741e-05
0.0052808
-7.60117e-05
-7.34672e-05
0.00530084
-0.000157828
-0.00530342
0.00529839
-0.000157391
0.00529606
-0.000156849
0.00529385
-0.000156202
0.00529177
-0.000155455
0.00528981
-0.000154606
0.00528798
-0.000153656
0.00528627
-0.000152601
0.00528468
-0.00015144
0.00528322
-0.000150169
0.00528187
-0.000148791
0.00528065
-0.000147311
0.00527955
-0.00014574
0.00527856
-0.000144088
0.00527769
-0.000142367
0.00527692
-0.000140584
0.00527626
-0.000138744
0.00527569
-0.000136847
0.00527523
-0.000134894
0.00527485
-0.000132884
0.00527456
-0.000130816
0.00527436
-0.000128692
0.00527423
-0.000126513
0.00527417
-0.00012428
0.00527419
-0.000121999
0.00527427
-0.000119671
0.00527442
-0.0001173
0.00527461
-0.000114891
0.00527487
-0.000112447
0.00527516
-0.000109972
0.00527551
-0.000107469
0.00527589
-0.000104942
0.0052763
-0.000102395
0.00527675
-9.98325e-05
0.00527723
-9.72568e-05
0.00527773
-9.46718e-05
0.00527825
-9.2081e-05
0.00527878
-8.94877e-05
0.00527934
-8.68951e-05
0.0052799
-8.43065e-05
0.00528047
-8.1725e-05
0.00528105
-7.91534e-05
0.00528164
-7.65948e-05
-7.40518e-05
0.0053047
-0.00015521
-0.00530732
0.0053022
-0.000154891
0.00529982
-0.000154466
0.00529756
-0.000153939
0.00529541
-0.000153311
0.00529339
-0.000152583
0.00529149
-0.000151753
0.00528971
-0.000150819
0.00528804
-0.000149778
0.0052865
-0.000148627
0.00528508
-0.000147369
0.00528378
-0.000146008
0.00528259
-0.000144553
0.00528152
-0.000143015
0.00528055
-0.000141405
0.0052797
-0.000139729
0.00527895
-0.000137992
0.0052783
-0.000136196
0.00527774
-0.000134339
0.00527728
-0.000132421
0.0052769
-0.000130441
0.00527661
-0.0001284
0.0052764
-0.000126301
0.00527626
-0.000124144
0.0052762
-0.000121933
0.0052762
-0.000119672
0.00527626
-0.000117364
0.00527638
-0.000115012
0.00527656
-0.000112622
0.00527678
-0.000110196
0.00527705
-0.000107738
0.00527736
-0.000105253
0.00527771
-0.000102743
0.00527809
-0.000100214
0.0052785
-9.76679e-05
0.00527894
-9.51092e-05
0.0052794
-9.25413e-05
0.00527988
-8.99676e-05
0.00528038
-8.73917e-05
0.00528089
-8.48167e-05
0.00528141
-8.2246e-05
0.00528194
-7.96827e-05
0.00528247
-7.71299e-05
-7.45904e-05
0.00530837
-0.000152559
-0.00531103
0.00530584
-0.000152352
0.00530341
-0.000152041
0.0053011
-0.000151628
0.0052989
-0.000151115
0.00529682
-0.000150502
0.00529486
-0.000149789
0.00529301
-0.000148972
0.00529128
-0.000148048
0.00528967
-0.000147015
0.00528817
-0.000145873
0.00528679
-0.000144628
0.00528553
-0.000143288
0.00528438
-0.000141863
0.00528333
-0.000140362
0.0052824
-0.000138793
0.00528156
-0.000137159
0.00528083
-0.000135462
0.00528019
-0.000133701
0.00527965
-0.000131875
0.00527919
-0.000129984
0.00527882
-0.000128028
0.00527853
-0.000126009
0.00527831
-0.000123928
0.00527817
-0.000121789
0.00527809
-0.000119596
0.00527808
-0.000117351
0.00527812
-0.000115059
0.00527823
-0.000112723
0.00527838
-0.000110348
0.00527858
-0.000107937
0.00527882
-0.000105495
0.0052791
-0.000103024
0.00527942
-0.00010053
0.00527977
-9.8016e-05
0.00528014
-9.54855e-05
0.00528054
-9.29424e-05
0.00528097
-9.03904e-05
0.00528141
-8.78329e-05
0.00528186
-8.52736e-05
0.00528233
-8.27157e-05
0.00528281
-8.01625e-05
0.0052833
-7.76174e-05
-7.50832e-05
0.00531185
-0.000149882
-0.00531453
0.00530928
-0.000149782
0.00530682
-0.00014958
0.00530447
-0.000149277
0.00530223
-0.000148875
0.0053001
-0.000148373
0.00529809
-0.000147772
0.00529618
-0.000147068
0.00529439
-0.000146258
0.00529272
-0.000145339
0.00529115
-0.000144311
0.00528971
-0.00014318
0.00528837
-0.000141952
0.00528714
-0.000140637
0.00528603
-0.000139244
0.00528501
-0.000137781
0.0052841
-0.000136249
0.00528329
-0.000134652
0.00528258
-0.000132987
0.00528196
-0.000131253
0.00528142
-0.00012945
0.00528097
-0.000127579
0.00528061
-0.00012564
0.00528031
-0.000123637
0.0052801
-0.000121571
0.00527995
-0.000119446
0.00527986
-0.000117265
0.00527983
-0.000115033
0.00527987
-0.000112754
0.00527995
-0.000110431
0.00528008
-0.000108069
0.00528026
-0.00010567
0.00528047
-0.000103241
0.00528073
-0.000100784
0.00528101
-9.83027e-05
0.00528133
-9.58021e-05
0.00528167
-9.32856e-05
0.00528204
-9.07569e-05
0.00528243
-8.82198e-05
0.00528283
-8.56779e-05
0.00528325
-8.31346e-05
0.00528368
-8.05935e-05
0.00528412
-7.80578e-05
-7.55308e-05
0.00531514
-0.000147188
-0.00531784
0.00531255
-0.00014719
0.00531006
-0.000147091
0.00530768
-0.000146893
0.0053054
-0.000146597
0.00530323
-0.000146203
0.00530117
-0.00014571
0.00529921
-0.000145115
0.00529737
-0.000144414
0.00529564
-0.000143606
0.00529401
-0.000142689
0.0052925
-0.000141668
0.0052911
-0.00014055
0.00528981
-0.000139343
0.00528862
-0.000138058
0.00528754
-0.000136698
0.00528656
-0.000135269
0.00528568
-0.00013377
0.00528489
-0.0001322
0.0052842
-0.000130559
0.00528359
-0.000128845
0.00528307
-0.000127058
0.00528263
-0.000125201
0.00528227
-0.000123274
0.00528198
-0.000121281
0.00528176
-0.000119225
0.0052816
-0.00011711
0.00528151
-0.000114939
0.00528147
-0.000112717
0.00528149
-0.000110447
0.00528155
-0.000108134
0.00528166
-0.000105782
0.00528182
-0.000103394
0.00528201
-0.000100975
0.00528224
-9.85294e-05
0.00528249
-9.60603e-05
0.00528278
-9.35721e-05
0.00528309
-9.10685e-05
0.00528343
-8.85534e-05
0.00528378
-8.60306e-05
0.00528415
-8.35037e-05
0.00528453
-8.09763e-05
0.00528492
-7.84518e-05
-7.59336e-05
0.00531824
-0.000144483
-0.00532095
0.00531564
-0.000144581
0.00531313
-0.000144581
0.00531072
-0.000144483
0.00530841
-0.000144288
0.0053062
-0.000143997
0.0053041
-0.000143608
0.0053021
-0.000143119
0.00530021
-0.000142524
0.00529843
-0.000141822
0.00529675
-0.000141013
0.00529519
-0.000140099
0.00529372
-0.000139088
0.00529237
-0.000137988
0.00529112
-0.000136807
0.00528997
-0.000135551
0.00528893
-0.000134223
0.00528798
-0.000132822
0.00528712
-0.000131347
0.00528636
-0.000129798
0.00528569
-0.000128172
0.0052851
-0.00012647
0.0052846
-0.000124693
0.00528416
-0.000122844
0.00528381
-0.000120924
0.00528352
-0.000118938
0.0052833
-0.000116888
0.00528314
-0.000114779
0.00528304
-0.000112615
0.00528299
-0.000110399
0.00528299
-0.000108137
0.00528304
-0.000105831
0.00528313
-0.000103487
0.00528326
-0.000101107
0.00528343
-9.86977e-05
0.00528363
-9.62616e-05
0.00528386
-9.3803e-05
0.00528412
-9.1326e-05
0.0052844
-8.88346e-05
0.00528471
-8.63325e-05
0.00528502
-8.38236e-05
0.00528536
-8.13115e-05
0.00528571
-7.87999e-05
-7.62922e-05
0.00532117
-0.000141773
-0.00532388
0.00531855
-0.000141962
0.00531602
-0.000142055
0.00531359
-0.000142053
0.00531126
-0.000141956
0.00530903
-0.000141764
0.00530689
-0.000141475
0.00530486
-0.000141086
0.00530293
-0.000140593
0.0053011
-0.000139994
0.00529938
-0.000139288
0.00529776
-0.000138479
0.00529624
-0.000137572
0.00529483
-0.000136576
0.00529352
-0.000135499
0.00529231
-0.000134345
0.00529121
-0.000133116
0.0052902
-0.000131812
0.00528928
-0.000130432
0.00528846
-0.000128974
0.00528772
-0.000127436
0.00528707
-0.000125818
0.0052865
-0.000124122
0.00528601
-0.000122349
0.00528558
-0.000120503
0.00528523
-0.000118586
0.00528495
-0.000116602
0.00528472
-0.000114556
0.00528456
-0.00011245
0.00528445
-0.000110289
0.00528439
-0.000108078
0.00528438
-0.00010582
0.00528441
-0.000103519
0.00528448
-0.000101181
0.0052846
-9.8809e-05
0.00528474
-9.6407e-05
0.00528492
-9.39796e-05
0.00528512
-9.15306e-05
0.00528535
-8.90642e-05
0.0052856
-8.65844e-05
0.00528588
-8.40951e-05
0.00528616
-8.15999e-05
0.00528647
-7.91028e-05
-7.66072e-05
0.00532392
-0.000139063
-0.00532663
0.0053213
-0.000139339
0.00531876
-0.000139521
0.00531632
-0.00013961
0.00531397
-0.000139605
0.00531171
-0.000139507
0.00530955
-0.000139314
0.00530749
-0.000139022
0.00530552
-0.000138627
0.00530366
-0.000138127
0.00530189
-0.000137521
0.00530022
-0.000136813
0.00529866
-0.000136007
0.0052972
-0.000135113
0.00529583
-0.000134137
0.00529457
-0.000133083
0.00529341
-0.000131953
0.00529234
-0.000130746
0.00529137
-0.000129459
0.00529049
-0.000128091
0.00528969
-0.00012664
0.00528898
-0.000125106
0.00528835
-0.00012349
0.00528779
-0.000121794
0.00528731
-0.000120021
0.0052869
-0.000118173
0.00528655
-0.000116255
0.00528627
-0.000114271
0.00528604
-0.000112224
0.00528587
-0.000110118
0.00528575
-0.000107959
0.00528568
-0.00010575
0.00528566
-0.000103494
0.00528567
-0.000101198
0.00528573
-9.88644e-05
0.00528582
-9.64979e-05
0.00528594
-9.41028e-05
0.00528609
-9.16832e-05
0.00528627
-8.92433e-05
0.00528648
-8.67872e-05
0.0052867
-8.43188e-05
0.00528694
-8.18421e-05
0.0052872
-7.9361e-05
-7.6879e-05
0.00532653
-0.000136359
-0.00532923
0.00532391
-0.000136716
0.00532137
-0.000136983
0.00531892
-0.000137158
0.00531655
-0.000137242
0.00531428
-0.000137234
0.0053121
-0.000137132
0.00531001
-0.000136933
0.00530801
-0.000136632
0.00530611
-0.000136227
0.00530431
-0.000135717
0.0053026
-0.000135105
0.00530099
-0.000134399
0.00529948
-0.000133604
0.00529807
-0.000132727
0.00529676
-0.000131772
0.00529555
-0.000130739
0.00529443
-0.000129626
0.0052934
-0.000128432
0.00529246
-0.000127153
0.00529161
-0.000125788
0.00529084
-0.000124337
0.00529015
-0.0001228
0.00528954
-0.00012118
0.00528899
-0.000119479
0.00528852
-0.000117701
0.00528812
-0.000115849
0.00528777
-0.000113927
0.00528749
-0.000111939
0.00528726
-0.000109889
0.00528708
-0.000107782
0.00528695
-0.000105622
0.00528687
-0.000103413
0.00528683
-0.000101159
0.00528683
-9.8865e-05
0.00528687
-9.65351e-05
0.00528694
-9.41736e-05
0.00528704
-9.17846e-05
0.00528717
-8.93725e-05
0.00528733
-8.69414e-05
0.0052875
-8.44955e-05
0.0052877
-8.20387e-05
0.00528791
-7.95749e-05
-7.7108e-05
0.00532902
-0.00533171
-0.000133665
0.0053264
-0.000134099
0.00532386
-0.000134444
0.0053214
-0.000134701
0.00531903
-0.00013487
0.00531675
-0.000134948
0.00531455
-0.000134933
0.00531244
-0.000134823
0.00531042
-0.000134612
0.00530849
-0.000134297
0.00530665
-0.00013388
0.00530491
-0.000133362
0.00530326
-0.000132751
0.00530171
-0.000132052
0.00530025
-0.000131272
0.00529889
-0.000130413
0.00529763
-0.000129476
0.00529646
-0.000128457
0.00529538
-0.000127353
0.00529439
-0.000126163
0.00529349
-0.000124883
0.00529266
-0.000123513
0.00529192
-0.000122055
0.00529125
-0.00012051
0.00529065
-0.000118881
0.00529012
-0.000117171
0.00528965
-0.000115385
0.00528925
-0.000113525
0.00528891
-0.000111596
0.00528862
-0.000109603
0.00528839
-0.000107548
0.0052882
-0.000105438
0.00528807
-0.000103275
0.00528797
-0.000101065
0.00528792
-9.88119e-05
0.00528791
-9.65195e-05
0.00528792
-9.41926e-05
0.00528798
-9.18355e-05
0.00528806
-8.94525e-05
0.00528816
-8.70478e-05
0.00528829
-8.46256e-05
0.00528844
-8.21901e-05
0.00528861
-7.97452e-05
-7.72948e-05
0.00544696
-0.000383518
0.00543091
-0.000378183
0.00541576
-0.000372282
0.00540149
-0.000365893
0.00538809
-0.000359089
0.00537553
-0.000351938
0.0053638
-0.000344505
0.00535286
-0.000336849
0.00534268
-0.000329025
0.00533322
-0.000321081
0.00532447
-0.000313061
0.00531637
-0.000305005
0.00530891
-0.000296947
0.00530203
-0.000288918
0.00529572
-0.000280945
0.00528993
-0.000273051
0.00528464
-0.000265256
0.00527981
-0.000257576
0.00527542
-0.000250027
0.00527143
-0.00024262
0.00526782
-0.000235365
0.00526456
-0.000228269
0.00526164
-0.000221338
0.00525901
-0.000214578
0.00525667
-0.00020799
0.0052546
-0.000201578
-0.000195342
0.00545221
-0.000367239
0.00543675
-0.000362716
0.00542209
-0.000357629
0.00540825
-0.000352048
0.0053952
-0.00034604
0.00538293
-0.00033967
0.00537142
-0.000332997
0.00536065
-0.000326079
0.00535059
-0.000318967
0.00534122
-0.000311708
0.0053325
-0.000304344
0.00532441
-0.000296914
0.00531692
-0.000289453
0.00530999
-0.00028199
0.0053036
-0.000274554
0.00529772
-0.000267166
0.00529231
-0.000259849
0.00528735
-0.000252619
0.00528282
-0.000245492
0.00527868
-0.000238482
0.00527491
-0.000231597
0.00527149
-0.000224848
0.00526839
-0.000218241
0.0052656
-0.000211782
0.00526308
-0.000205476
0.00526083
-0.000199325
-0.000193332
0.00545666
-0.000351621
0.00544177
-0.000347831
0.00542762
-0.000343482
0.00541421
-0.000338637
0.00540153
-0.000333359
0.00538957
-0.000327707
0.00537831
-0.000321739
0.00536774
-0.000315506
0.00535783
-0.000309059
0.00534856
-0.000302441
0.00533992
-0.000295695
0.00533186
-0.000288858
0.00532437
-0.000281962
0.00531742
-0.000275039
0.00531098
-0.000268115
0.00530502
-0.000261213
0.00529953
-0.000254356
0.00529447
-0.000247561
0.00528982
-0.000240843
0.00528556
-0.000234218
0.00528166
-0.000227695
0.00527809
-0.000221285
0.00527485
-0.000214997
0.0052719
-0.000208835
0.00526923
-0.000202807
0.00526682
-0.000196915
-0.000191164
0.00546037
-0.000336651
0.00544606
-0.000333521
0.00543242
-0.00032984
0.00541945
-0.000325666
0.00540715
-0.000321056
0.00539551
-0.000316066
0.00538452
-0.000310748
0.00537416
-0.000305151
0.00536442
-0.000299323
0.00535529
-0.000293306
0.00534673
-0.00028714
0.00533874
-0.000280861
0.00533128
-0.000274501
0.00532433
-0.00026809
0.00531787
-0.000261654
0.00531187
-0.000255218
0.00530632
-0.000248802
0.00530118
-0.000242425
0.00529644
-0.000236104
0.00529208
-0.000229851
0.00528806
-0.000223681
0.00528438
-0.000217603
0.00528101
-0.000211625
0.00527793
-0.000205756
0.00527512
-0.000200002
0.00527257
-0.000194367
-0.000188855
0.00546344
-0.000322313
0.00544969
-0.000319777
0.00543655
-0.0003167
0.00542402
-0.000313137
0.00541211
-0.000309138
0.0054008
-0.000304755
0.00539008
-0.000300037
0.00537996
-0.00029503
0.00537042
-0.000289779
0.00536144
-0.000284323
0.005353
-0.0002787
0.00534508
-0.000272946
0.00533767
-0.000267092
0.00533075
-0.000261166
0.00532429
-0.000255196
0.00531828
-0.000249203
0.00531268
-0.000243211
0.0053075
-0.000237236
0.00530269
-0.000231296
0.00529824
-0.000225405
0.00529414
-0.000219576
0.00529035
-0.00021382
0.00528687
-0.000208146
0.00528368
-0.000202564
0.00528076
-0.000197078
0.00527809
-0.000191695
-0.000186421
0.00546591
-0.00030859
0.00545272
-0.000306588
0.00544008
-0.000304058
0.00542799
-0.000301049
0.00541646
-0.000297608
0.00540549
-0.000293783
0.00539507
-0.000289618
0.00538519
-0.000285156
0.00537585
-0.00028044
0.00536704
-0.000275507
0.00535873
-0.000270394
0.00535092
-0.000265133
0.00534358
-0.000259756
0.00533671
-0.00025429
0.00533027
-0.000248761
0.00532426
-0.000243191
0.00531865
-0.000237602
0.00531343
-0.000232013
0.00530857
-0.000226439
0.00530406
-0.000220897
0.00529989
-0.000215398
0.00529602
-0.000209955
0.00529245
-0.000204578
0.00528916
-0.000199274
0.00528614
-0.000194052
0.00528336
-0.000188917
-0.000183876
0.00546785
-0.000295462
0.0054552
-0.000293939
0.00544305
-0.000291904
0.0054314
-0.000289398
0.00542026
-0.000286467
0.00540963
-0.000283152
0.0053995
-0.000279496
0.00538989
-0.000275539
0.00538077
-0.00027132
0.00537213
-0.000266874
0.00536398
-0.000262237
0.00535628
-0.000257439
0.00534904
-0.000252511
0.00534223
-0.000247478
0.00533583
-0.000242367
0.00532984
-0.000237199
0.00532423
-0.000231995
0.00531899
-0.000226775
0.00531411
-0.000221553
0.00530956
-0.000216346
0.00530533
-0.000211166
0.0053014
-0.000206026
0.00529775
-0.000200935
0.00529438
-0.000195904
0.00529127
-0.000190938
0.0052884
-0.000186046
-0.000181234
0.00546932
-0.000282908
0.00545719
-0.000281817
0.00544552
-0.000280228
0.0054343
-0.00027818
0.00542355
-0.000275713
0.00541326
-0.000272866
0.00540344
-0.000269678
0.00539409
-0.000266186
0.0053852
-0.000262427
0.00537676
-0.000258435
0.00536876
-0.000254241
0.0053612
-0.000249877
0.00535406
-0.00024537
0.00534733
-0.000240747
0.00534099
-0.000236031
0.00533503
-0.000231244
0.00532945
-0.000226407
0.00532421
-0.000221538
0.00531931
-0.000216653
0.00531473
-0.000211768
0.00531046
-0.000206895
0.00530648
-0.000202048
0.00530278
-0.000197235
0.00529935
-0.000192467
0.00529616
-0.000187752
0.00529321
-0.000183097
-0.000178509
0.00547036
-0.000270909
0.00545874
-0.000270205
0.00544753
-0.000269019
0.00543674
-0.000267386
0.00542637
-0.000265342
0.00541643
-0.000262923
0.00540691
-0.000260165
0.00539783
-0.000257102
0.00538917
-0.000253769
0.00538093
-0.000250197
0.00537311
-0.000246418
0.00536569
-0.000242459
0.00535867
-0.000238347
0.00535203
-0.000234109
0.00534577
-0.000229766
0.00533986
-0.000225341
0.00533431
-0.000220852
0.00532909
-0.000216318
0.00532419
-0.000211755
0.0053196
-0.000207178
0.00531531
-0.000202601
0.00531129
-0.000198035
0.00530755
-0.000193491
0.00530406
-0.000188979
0.00530081
-0.000184507
0.0052978
-0.000180082
-0.000175713
0.00547101
-0.000259444
0.00545989
-0.000259087
0.00544914
-0.000258265
0.00543876
-0.000257009
0.00542877
-0.00025535
0.00541917
-0.000253322
0.00540996
-0.000250958
0.00540115
-0.00024829
0.00539273
-0.00024535
0.0053847
-0.000242169
0.00537706
-0.000238774
0.00536979
-0.000235194
0.0053629
-0.000231453
0.00535637
-0.000227576
0.00535018
-0.000223585
0.00534435
-0.000219501
0.00533884
-0.000215343
0.00533365
-0.000211127
0.00532876
-0.000206871
0.00532417
-0.00020259
0.00531987
-0.000198295
0.00531583
-0.000194
0.00531206
-0.000189715
0.00530853
-0.00018545
0.00530524
-0.000181214
0.00530217
-0.000177014
-0.000172857
0.00547131
-0.000248492
0.00546068
-0.000248448
0.00545036
-0.000247954
0.00544039
-0.000247038
0.00543077
-0.00024573
0.00542151
-0.000244059
0.00541261
-0.000242056
0.00540407
-0.000239751
0.00539589
-0.000237175
0.00538808
-0.000234355
0.00538062
-0.000231318
0.00537352
-0.00022809
0.00536676
-0.000224696
0.00536035
-0.000221159
0.00535426
-0.000217499
0.0053485
-0.000213737
0.00534304
-0.000209891
0.00533789
-0.000205978
0.00533304
-0.000202015
0.00532846
-0.000198014
0.00532416
-0.000193991
0.00532011
-0.000189956
0.00531632
-0.00018592
0.00531276
-0.000181894
0.00530943
-0.000177885
0.00530632
-0.000173902
-0.000169953
0.00547131
-0.000238035
0.00546113
-0.000238272
0.00545125
-0.000238074
0.00544168
-0.000237466
0.00543242
-0.000236475
0.00542349
-0.000235129
0.00541489
-0.000233457
0.00540663
-0.000231486
0.0053987
-0.000229244
0.0053911
-0.000226758
0.00538383
-0.000224053
0.0053769
-0.000221154
0.00537029
-0.000218084
0.00536399
-0.000214864
0.00535801
-0.000211515
0.00535233
-0.000208057
0.00534694
-0.000204507
0.00534185
-0.000200881
0.00533703
-0.000197195
0.00533248
-0.000193463
0.00532818
-0.000189699
0.00532414
-0.000185913
0.00532034
-0.000182117
0.00531676
-0.00017832
0.00531341
-0.000174531
0.00531026
-0.000170759
-0.00016701
0.00547101
-0.000228056
0.00546128
-0.000228543
0.00545182
-0.000228611
0.00544263
-0.000228281
0.00543374
-0.000227578
0.00542513
-0.000226528
0.00541683
-0.000225158
0.00540884
-0.000223492
0.00540116
-0.000221559
0.00539378
-0.000219381
0.00538671
-0.000216984
0.00537995
-0.00021439
0.00537348
-0.000211622
0.00536732
-0.000208699
0.00536145
-0.000205643
0.00535586
-0.00020247
0.00535055
-0.000199198
0.00534551
-0.000195844
0.00534074
-0.000192422
0.00533622
-0.000188946
0.00533195
-0.000185428
0.00532792
-0.00018188
0.00532412
-0.000178314
0.00532053
-0.000174738
0.00531716
-0.000171161
0.005314
-0.000167592
-0.000164038
0.00547045
-0.000218538
0.00546115
-0.000219249
0.00545209
-0.000219554
0.00544329
-0.000219474
0.00543474
-0.000219031
0.00542646
-0.00021825
0.00541846
-0.000217154
0.00541073
-0.000215769
0.00540329
-0.000214118
0.00539614
-0.000212224
0.00538927
-0.000210112
0.00538268
-0.000207801
0.00537637
-0.000205314
0.00537034
-0.00020267
0.00536458
-0.000199886
0.0053591
-0.000196982
0.00535387
-0.000193974
0.0053489
-0.000190876
0.00534418
-0.000187704
0.00533971
-0.00018447
0.00533547
-0.000181188
0.00533146
-0.000177868
0.00532766
-0.000174521
0.00532408
-0.000171157
0.0053207
-0.000167784
0.00531752
-0.000164411
-0.000161045
0.00546964
-0.000209466
0.00546076
-0.000210375
0.0054521
-0.000210892
0.00544366
-0.000211035
0.00543546
-0.000210827
0.0054275
-0.000210288
0.00541978
-0.000209442
0.00541233
-0.000208312
0.00540513
-0.00020692
0.00539819
-0.000205288
0.00539152