/*--------------------------------*- C++ -*----------------------------------*\
| =========                 |                                                 |
| \\      /  F ield         | OpenFOAM: The Open Source CFD Toolbox           |
|  \\    /   O peration     | Version:  2412                                  |
|   \\  /    A nd           | Website:  www.openfoam.com                      |
|    \\/     M anipulation  |                                                 |
\*---------------------------------------------------------------------------*/
FoamFile
{
    version     2.0;
    format      ascii;
    arch        "LSB;label=32;scalar=64";
    class       volVectorField;
    location    "10";
    object      U;
}
// * * * * * * * * * * * * * * * * * * * * * * * * * * * * * * * * * * * * * //

dimensions      [0 1 -1 0 0 0 0];

internalField   nonuniform List<vector> 
5285
(
(0.100419 -0.00283795 0)
(0.100468 -0.00289534 0)
(0.10052 -0.00295316 0)
(0.100574 -0.00301134 0)
(0.100632 -0.00306978 0)
(0.100692 -0.0031284 0)
(0.100756 -0.00318708 0)
(0.100822 -0.00324572 0)
(0.100892 -0.00330417 0)
(0.100965 -0.00336231 0)
(0.101041 -0.00341999 0)
(0.101121 -0.00347704 0)
(0.101205 -0.00353329 0)
(0.101292 -0.00358856 0)
(0.101382 -0.00364266 0)
(0.101477 -0.00369536 0)
(0.10036 -0.00288572 0)
(0.100409 -0.00294572 0)
(0.10046 -0.00300627 0)
(0.100515 -0.00306727 0)
(0.100572 -0.00312864 0)
(0.100632 -0.00319028 0)
(0.100696 -0.00325209 0)
(0.100762 -0.00331395 0)
(0.100832 -0.00337573 0)
(0.100906 -0.00343728 0)
(0.100983 -0.00349846 0)
(0.101063 -0.0035591 0)
(0.101147 -0.00361902 0)
(0.101236 -0.00367804 0)
(0.101328 -0.00373596 0)
(0.101424 -0.00379256 0)
(0.100299 -0.00293296 0)
(0.100347 -0.00299565 0)
(0.100398 -0.00305899 0)
(0.100452 -0.0031229 0)
(0.100509 -0.00318729 0)
(0.100569 -0.00325207 0)
(0.100633 -0.00331712 0)
(0.100699 -0.00338233 0)
(0.100769 -0.00344756 0)
(0.100843 -0.00351268 0)
(0.10092 -0.00357752 0)
(0.101002 -0.00364192 0)
(0.101087 -0.0037057 0)
(0.101176 -0.00376867 0)
(0.101269 -0.00383062 0)
(0.101366 -0.00389134 0)
(0.100236 -0.00297955 0)
(0.100283 -0.00304499 0)
(0.100334 -0.0031112 0)
(0.100387 -0.0031781 0)
(0.100444 -0.0032456 0)
(0.100503 -0.00331362 0)
(0.100566 -0.00338202 0)
(0.100633 -0.00345071 0)
(0.100703 -0.00351954 0)
(0.100777 -0.00358837 0)
(0.100855 -0.00365703 0)
(0.100936 -0.00372537 0)
(0.101022 -0.0037932 0)
(0.101112 -0.00386032 0)
(0.101206 -0.00392653 0)
(0.101305 -0.00399161 0)
(0.10017 -0.00302535 0)
(0.100217 -0.00309361 0)
(0.100266 -0.00316277 0)
(0.100319 -0.00323274 0)
(0.100375 -0.00330345 0)
(0.100434 -0.00337479 0)
(0.100497 -0.00344667 0)
(0.100563 -0.00351896 0)
(0.100633 -0.00359152 0)
(0.100707 -0.00366421 0)
(0.100785 -0.00373687 0)
(0.100867 -0.00380933 0)
(0.100953 -0.0038814 0)
(0.101044 -0.00395289 0)
(0.101139 -0.00402359 0)
(0.101239 -0.00409328 0)
(0.100101 -0.00307024 0)
(0.100147 -0.00314138 0)
(0.100196 -0.00321354 0)
(0.100248 -0.00328667 0)
(0.100303 -0.00336067 0)
(0.100362 -0.00343545 0)
(0.100424 -0.00351091 0)
(0.100489 -0.00358692 0)
(0.100559 -0.00366335 0)
(0.100633 -0.00374006 0)
(0.100711 -0.00381688 0)
(0.100793 -0.00389364 0)
(0.10088 -0.00397016 0)
(0.100971 -0.00404624 0)
(0.101067 -0.00412167 0)
(0.101168 -0.00419621 0)
(0.10003 -0.00311407 0)
(0.100075 -0.00318814 0)
(0.100123 -0.00326338 0)
(0.100173 -0.00333973 0)
(0.100228 -0.00341711 0)
(0.100285 -0.00349543 0)
(0.100347 -0.00357458 0)
(0.100412 -0.00365444 0)
(0.100481 -0.00373488 0)
(0.100555 -0.00381575 0)
(0.100632 -0.00389691 0)
(0.100714 -0.00397816 0)
(0.100801 -0.00405933 0)
(0.100893 -0.00414022 0)
(0.10099 -0.00422061 0)
(0.101092 -0.00430028 0)
(0.099956 -0.00315669 0)
(0.0999994 -0.00323375 0)
(0.100046 -0.00331213 0)
(0.100096 -0.00339178 0)
(0.100149 -0.00347262 0)
(0.100206 -0.00355456 0)
(0.100266 -0.0036375 0)
(0.10033 -0.00372134 0)
(0.100399 -0.00380592 0)
(0.100472 -0.00389112 0)
(0.100549 -0.00397677 0)
(0.100631 -0.0040627 0)
(0.100718 -0.00414873 0)
(0.10081 -0.00423466 0)
(0.100907 -0.00432027 0)
(0.10101 -0.00440532 0)
(0.0998788 -0.00319795 0)
(0.0999208 -0.00327804 0)
(0.0999659 -0.00335962 0)
(0.100014 -0.00344263 0)
(0.100066 -0.00352701 0)
(0.100122 -0.00361267 0)
(0.100181 -0.00369951 0)
(0.100245 -0.00378743 0)
(0.100312 -0.0038763 0)
(0.100385 -0.00396597 0)
(0.100461 -0.00405629 0)
(0.100543 -0.00414709 0)
(0.10063 -0.00423818 0)
(0.100722 -0.00432937 0)
(0.100819 -0.00442045 0)
(0.100923 -0.00451117 0)
(0.0997987 -0.00323769 0)
(0.0998391 -0.00332085 0)
(0.0998826 -0.00340567 0)
(0.0999296 -0.00349211 0)
(0.09998 -0.0035801 0)
(0.100034 -0.00366956 0)
(0.100092 -0.00376041 0)
(0.100155 -0.00385253 0)
(0.100221 -0.0039458 0)
(0.100293 -0.00404009 0)
(0.100369 -0.00413525 0)
(0.10045 -0.0042311 0)
(0.100536 -0.00432747 0)
(0.100628 -0.00442416 0)
(0.100726 -0.00452095 0)
(0.100829 -0.00461761 0)
(0.0997155 -0.00327573 0)
(0.0997541 -0.003362 0)
(0.0997959 -0.00345011 0)
(0.0998412 -0.00354003 0)
(0.09989 -0.0036317 0)
(0.0999427 -0.00372504 0)
(0.0999993 -0.00381998 0)
(0.10006 -0.00391641 0)
(0.100126 -0.00401422 0)
(0.100196 -0.00411327 0)
(0.100271 -0.00421343 0)
(0.100351 -0.00431451 0)
(0.100437 -0.00441636 0)
(0.100528 -0.00451877 0)
(0.100626 -0.00462154 0)
(0.100729 -0.00472443 0)
(0.0996292 -0.0033119 0)
(0.0996658 -0.0034013 0)
(0.0997057 -0.00349274 0)
(0.0997491 -0.00358619 0)
(0.0997961 -0.00368159 0)
(0.099847 -0.00377889 0)
(0.0999019 -0.00387801 0)
(0.0999613 -0.00397886 0)
(0.100025 -0.00408132 0)
(0.100094 -0.00418527 0)
(0.100168 -0.00429058 0)
(0.100247 -0.00439708 0)
(0.100332 -0.00450461 0)
(0.100422 -0.00461298 0)
(0.100519 -0.00472197 0)
(0.100623 -0.00483137 0)
(0.0995398 -0.00334602 0)
(0.0995743 -0.00343858 0)
(0.0996121 -0.00353337 0)
(0.0996533 -0.00363038 0)
(0.0996983 -0.00372957 0)
(0.0997472 -0.00383089 0)
(0.0998002 -0.00393426 0)
(0.0998576 -0.00403961 0)
(0.0999198 -0.00414684 0)
(0.0999868 -0.00425582 0)
(0.100059 -0.00436643 0)
(0.100137 -0.00447853 0)
(0.100221 -0.00459194 0)
(0.10031 -0.00470648 0)
(0.100407 -0.00482196 0)
(0.10051 -0.00493815 0)
(0.0994473 -0.0033779 0)
(0.0994795 -0.00347361 0)
(0.0995149 -0.00357178 0)
(0.0995539 -0.00367238 0)
(0.0995965 -0.0037754 0)
(0.0996431 -0.00388079 0)
(0.099694 -0.00398849 0)
(0.0997493 -0.00409843 0)
(0.0998094 -0.00421052 0)
(0.0998745 -0.00432465 0)
(0.099945 -0.00444071 0)
(0.100021 -0.00455856 0)
(0.100103 -0.00467804 0)
(0.100192 -0.00479898 0)
(0.100287 -0.00492118 0)
(0.100389 -0.00504444 0)
(0.0993518 -0.00340732 0)
(0.0993814 -0.0035062 0)
(0.0994143 -0.00360775 0)
(0.0994507 -0.00371196 0)
(0.0994908 -0.00381884 0)
(0.0995349 -0.00392833 0)
(0.0995833 -0.00404041 0)
(0.0996362 -0.00415501 0)
(0.0996939 -0.00427206 0)
(0.0997568 -0.00439146 0)
(0.0998252 -0.00451309 0)
(0.0998994 -0.00463685 0)
(0.0999797 -0.00476258 0)
(0.100067 -0.00489013 0)
(0.10016 -0.00501931 0)
(0.100261 -0.00514991 0)
(0.0992532 -0.0034341 0)
(0.09928 -0.00353612 0)
(0.0993101 -0.00364104 0)
(0.0993437 -0.00374888 0)
(0.0993811 -0.00385962 0)
(0.0994224 -0.00397326 0)
(0.099468 -0.00408976 0)
(0.0995182 -0.00420908 0)
(0.0995733 -0.00433116 0)
(0.0996336 -0.00445591 0)
(0.0996995 -0.00458325 0)
(0.0997714 -0.00471306 0)
(0.0998495 -0.00484522 0)
(0.0999343 -0.00497957 0)
(0.100026 -0.00511596 0)
(0.100126 -0.00525418 0)
(0.0991516 -0.003458 0)
(0.0991754 -0.00356314 0)
(0.0992025 -0.00367142 0)
(0.0992331 -0.00378287 0)
(0.0992673 -0.00389748 0)
(0.0993056 -0.00401528 0)
(0.0993482 -0.00413623 0)
(0.0993953 -0.00426032 0)
(0.0994475 -0.00438749 0)
(0.0995049 -0.00451768 0)
(0.099568 -0.00465082 0)
(0.0996371 -0.00478682 0)
(0.0997126 -0.00492555 0)
(0.099795 -0.0050669 0)
(0.0998847 -0.00521071 0)
(0.0999822 -0.0053568 0)
(0.099047 -0.00347882 0)
(0.0990676 -0.00358704 0)
(0.0990914 -0.00369864 0)
(0.0991187 -0.00381367 0)
(0.0991496 -0.00393215 0)
(0.0991845 -0.00405409 0)
(0.0992237 -0.00417951 0)
(0.0992675 -0.00430839 0)
(0.0993163 -0.0044407 0)
(0.0993705 -0.00457639 0)
(0.0994303 -0.00471542 0)
(0.0994963 -0.00485771 0)
(0.0995688 -0.00500317 0)
(0.0996484 -0.00515168 0)
(0.0997354 -0.00530312 0)
(0.0998304 -0.00545734 0)
(0.0989395 -0.00349632 0)
(0.0989567 -0.00360756 0)
(0.0989769 -0.00372244 0)
(0.0990006 -0.00384101 0)
(0.0990279 -0.00396332 0)
(0.0990591 -0.0040894 0)
(0.0990947 -0.00421927 0)
(0.0991348 -0.00435294 0)
(0.0991799 -0.00449041 0)
(0.0992304 -0.00463166 0)
(0.0992866 -0.00477664 0)
(0.099349 -0.00492532 0)
(0.099418 -0.00507761 0)
(0.0994942 -0.00523344 0)
(0.099578 -0.0053927 0)
(0.09967 -0.00555525 0)
(0.0988291 -0.00351026 0)
(0.0988426 -0.00362446 0)
(0.0988591 -0.00374255 0)
(0.0988788 -0.00386461 0)
(0.0989022 -0.00399069 0)
(0.0989295 -0.00412086 0)
(0.098961 -0.00425516 0)
(0.098997 -0.00439362 0)
(0.0990381 -0.00453625 0)
(0.0990844 -0.00468307 0)
(0.0991366 -0.00483405 0)
(0.099195 -0.00498917 0)
(0.0992601 -0.0051484 0)
(0.0993324 -0.00531167 0)
(0.0994125 -0.00547891 0)
(0.0995009 -0.00565 0)
(0.1 -3.42461e-05 0)
(0.0999998 -9.08576e-05 0)
(0.1 -0.000209589 0)
(0.0999839 -0.000485175 0)
(0.0999345 -0.00091187 0)
(0.0998492 -0.00136737 0)
(0.0997424 -0.00170371 0)
(0.0996373 -0.00183992 0)
(0.0995533 -0.00178683 0)
(0.0994995 -0.00161354 0)
(0.0994756 -0.00139939 0)
(0.0994748 -0.00120275 0)
(0.099489 -0.0010527 0)
(0.0995107 -0.000955041 0)
(0.0995348 -0.00090275 0)
(0.0995581 -0.000884418 0)
(0.0995792 -0.000889196 0)
(0.0995975 -0.000908719 0)
(0.0996133 -0.000937297 0)
(0.0996268 -0.000971384 0)
(0.0996386 -0.00100891 0)
(0.0996491 -0.00104871 0)
(0.0996586 -0.00109019 0)
(0.0996676 -0.001133 0)
(0.0996764 -0.00117697 0)
(0.0996851 -0.00122202 0)
(0.099694 -0.00126807 0)
(0.0997032 -0.00131509 0)
(0.099713 -0.00136303 0)
(0.0997234 -0.00141187 0)
(0.0997345 -0.00146156 0)
(0.0997465 -0.00151207 0)
(0.0997593 -0.00156335 0)
(0.0997733 -0.00161538 0)
(0.0997882 -0.00166809 0)
(0.0998044 -0.00172145 0)
(0.0998217 -0.0017754 0)
(0.0998403 -0.0018299 0)
(0.0998601 -0.00188488 0)
(0.0998814 -0.0019403 0)
(0.0999039 -0.00199609 0)
(0.0999279 -0.00205221 0)
(0.0999533 -0.00210858 0)
(0.0999802 -0.00216514 0)
(0.100009 -0.00222184 0)
(0.100038 -0.00227862 0)
(0.10007 -0.0023354 0)
(0.100102 -0.00239212 0)
(0.100137 -0.00244872 0)
(0.100172 -0.00250514 0)
(0.10021 -0.00256131 0)
(0.100248 -0.00261716 0)
(0.100288 -0.00267265 0)
(0.10033 -0.00272769 0)
(0.100373 -0.00278224 0)
(0.1 -3.41954e-05 0)
(0.0999997 -9.09228e-05 0)
(0.0999999 -0.000206521 0)
(0.0999839 -0.000472707 0)
(0.0999353 -0.000885771 0)
(0.099851 -0.00132939 0)
(0.0997449 -0.00166091 0)
(0.0996395 -0.00180079 0)
(0.099554 -0.00175755 0)
(0.099498 -0.00159643 0)
(0.0994712 -0.00139346 0)
(0.0994676 -0.00120521 0)
(0.099479 -0.00106035 0)
(0.0994983 -0.0009652 0)
(0.0995203 -0.000913544 0)
(0.0995418 -0.000894749 0)
(0.0995613 -0.00089855 0)
(0.0995782 -0.000916958 0)
(0.0995927 -0.000944491 0)
(0.0996051 -0.000977699 0)
(0.0996157 -0.00101454 0)
(0.0996251 -0.00105387 0)
(0.0996335 -0.00109504 0)
(0.0996414 -0.00113771 0)
(0.0996491 -0.00118169 0)
(0.0996567 -0.00122687 0)
(0.0996644 -0.00127318 0)
(0.0996725 -0.00132055 0)
(0.0996811 -0.00136896 0)
(0.0996903 -0.00141834 0)
(0.0997003 -0.00146868 0)
(0.0997111 -0.00151991 0)
(0.0997228 -0.00157201 0)
(0.0997355 -0.00162493 0)
(0.0997493 -0.00167861 0)
(0.0997642 -0.00173302 0)
(0.0997803 -0.00178811 0)
(0.0997977 -0.00184381 0)
(0.0998165 -0.00190008 0)
(0.0998365 -0.00195685 0)
(0.099858 -0.00201409 0)
(0.0998808 -0.00207171 0)
(0.0999051 -0.00212966 0)
(0.0999309 -0.00218789 0)
(0.0999582 -0.00224631 0)
(0.099987 -0.00230489 0)
(0.100017 -0.00236353 0)
(0.100049 -0.00242219 0)
(0.100083 -0.00248079 0)
(0.100118 -0.00253927 0)
(0.100154 -0.00259756 0)
(0.100192 -0.0026556 0)
(0.100231 -0.00271332 0)
(0.100272 -0.00277066 0)
(0.100315 -0.00282755 0)
(0.1 -3.41155e-05 0)
(0.0999995 -9.09274e-05 0)
(0.0999996 -0.000203494 0)
(0.099984 -0.000460538 0)
(0.0999369 -0.000860209 0)
(0.0998546 -0.00129196 0)
(0.0997501 -0.00161839 0)
(0.0996453 -0.00176145 0)
(0.099559 -0.00172756 0)
(0.0995008 -0.00157822 0)
(0.099471 -0.00138621 0)
(0.0994641 -0.00120629 0)
(0.0994723 -0.0010667 0)
(0.0994887 -0.000974184 0)
(0.0995081 -0.000923303 0)
(0.0995274 -0.000904174 0)
(0.099545 -0.000907103 0)
(0.0995603 -0.000924472 0)
(0.0995733 -0.00095101 0)
(0.0995843 -0.000983369 0)
(0.0995937 -0.00101954 0)
(0.0996018 -0.00105839 0)
(0.0996091 -0.00109925 0)
(0.0996158 -0.00114177 0)
(0.0996222 -0.00118575 0)
(0.0996286 -0.00123105 0)
(0.0996352 -0.00127758 0)
(0.0996421 -0.0013253 0)
(0.0996495 -0.00137414 0)
(0.0996574 -0.00142406 0)
(0.0996661 -0.00147501 0)
(0.0996757 -0.00152695 0)
(0.0996861 -0.00157984 0)
(0.0996976 -0.00163363 0)
(0.0997101 -0.00168827 0)
(0.0997238 -0.00174372 0)
(0.0997386 -0.00179992 0)
(0.0997548 -0.00185682 0)
(0.0997722 -0.00191436 0)
(0.0997911 -0.00197249 0)
(0.0998113 -0.00203115 0)
(0.099833 -0.00209028 0)
(0.0998561 -0.00214982 0)
(0.0998807 -0.00220971 0)
(0.0999069 -0.00226988 0)
(0.0999346 -0.00233026 0)
(0.0999639 -0.00239079 0)
(0.0999947 -0.0024514 0)
(0.100027 -0.00251203 0)
(0.100061 -0.0025726 0)
(0.100097 -0.00263305 0)
(0.100134 -0.00269331 0)
(0.100173 -0.00275331 0)
(0.100213 -0.00281299 0)
(0.100255 -0.00287227 0)
(0.1 -3.4005e-05 0)
(0.0999993 -9.08636e-05 0)
(0.0999992 -0.000200542 0)
(0.0999842 -0.000448802 0)
(0.099939 -0.000835448 0)
(0.0998594 -0.00125544 0)
(0.0997575 -0.00157649 0)
(0.099654 -0.00172219 0)
(0.0995673 -0.001697 0)
(0.0995071 -0.00155891 0)
(0.0994744 -0.00137755 0)
(0.0994639 -0.00120584 0)
(0.0994685 -0.00107154 0)
(0.0994815 -0.000981793 0)
(0.099498 -0.000931846 0)
(0.0995148 -0.000912536 0)
(0.0995302 -0.00091472 0)
(0.0995436 -0.000931148 0)
(0.099555 -0.000956761 0)
(0.0995645 -0.000988315 0)
(0.0995725 -0.00102385 0)
(0.0995792 -0.00106222 0)
(0.0995852 -0.00110278 0)
(0.0995907 -0.00114514 0)
(0.0995958 -0.00118909 0)
(0.099601 -0.00123449 0)
(0.0996063 -0.00128124 0)
(0.0996119 -0.00132928 0)
(0.099618 -0.00137853 0)
(0.0996246 -0.00142896 0)
(0.099632 -0.00148051 0)
(0.0996402 -0.00153314 0)
(0.0996494 -0.0015868 0)
(0.0996595 -0.00164144 0)
(0.0996707 -0.00169702 0)
(0.099683 -0.00175348 0)
(0.0996965 -0.00181078 0)
(0.0997113 -0.00186886 0)
(0.0997275 -0.00192766 0)
(0.099745 -0.00198714 0)
(0.0997639 -0.00204722 0)
(0.0997842 -0.00210786 0)
(0.0998061 -0.00216899 0)
(0.0998295 -0.00223053 0)
(0.0998544 -0.00229244 0)
(0.0998809 -0.00235464 0)
(0.099909 -0.00241707 0)
(0.0999387 -0.00247966 0)
(0.0999701 -0.00254233 0)
(0.100003 -0.00260502 0)
(0.100038 -0.00266765 0)
(0.100074 -0.00273017 0)
(0.100112 -0.00279249 0)
(0.100151 -0.00285455 0)
(0.100192 -0.00291628 0)
(0.1 -3.38627e-05 0)
(0.0999991 -9.07256e-05 0)
(0.0999988 -0.000197682 0)
(0.0999845 -0.000437588 0)
(0.0999414 -0.000811677 0)
(0.0998651 -0.00122009 0)
(0.0997663 -0.00153552 0)
(0.0996647 -0.00168323 0)
(0.099578 -0.00166602 0)
(0.0995161 -0.00153854 0)
(0.0994803 -0.00136741 0)
(0.0994661 -0.00120374 0)
(0.0994669 -0.00107475 0)
(0.0994764 -0.000987878 0)
(0.0994897 -0.000939031 0)
(0.0995037 -0.000919706 0)
(0.0995167 -0.000921291 0)
(0.0995281 -0.000936892 0)
(0.0995376 -0.000961662 0)
(0.0995455 -0.000992467 0)
(0.0995519 -0.00102739 0)
(0.0995573 -0.00106531 0)
(0.0995619 -0.00110557 0)
(0.099566 -0.00114777 0)
(0.0995698 -0.00119169 0)
(0.0995736 -0.00123717 0)
(0.0995775 -0.00128412 0)
(0.0995818 -0.00133245 0)
(0.0995865 -0.0013821 0)
(0.0995918 -0.00143301 0)
(0.0995979 -0.00148514 0)
(0.0996047 -0.00153842 0)
(0.0996124 -0.00159283 0)
(0.0996211 -0.0016483 0)
(0.0996309 -0.00170479 0)
(0.0996418 -0.00176225 0)
(0.0996539 -0.00182063 0)
(0.0996673 -0.00187987 0)
(0.099682 -0.00193993 0)
(0.0996981 -0.00200073 0)
(0.0997156 -0.00206223 0)
(0.0997346 -0.00212436 0)
(0.099755 -0.00218706 0)
(0.0997771 -0.00225027 0)
(0.0998007 -0.00231393 0)
(0.0998259 -0.00237795 0)
(0.0998527 -0.00244228 0)
(0.0998812 -0.00250685 0)
(0.0999113 -0.00257159 0)
(0.0999431 -0.00263641 0)
(0.0999765 -0.00270127 0)
(0.100012 -0.00276607 0)
(0.100048 -0.00283075 0)
(0.100087 -0.00289523 0)
(0.100127 -0.00295945 0)
(0.1 -3.36885e-05 0)
(0.0999989 -9.05091e-05 0)
(0.0999984 -0.000194917 0)
(0.0999848 -0.000426939 0)
(0.099944 -0.000789002 0)
(0.0998711 -0.00118609 0)
(0.0997759 -0.00149565 0)
(0.0996766 -0.00164477 0)
(0.0995903 -0.00163474 0)
(0.0995269 -0.00151718 0)
(0.0994882 -0.0013558 0)
(0.0994703 -0.00119994 0)
(0.0994671 -0.00107623 0)
(0.0994729 -0.000992344 0)
(0.0994828 -0.000944757 0)
(0.0994939 -0.000925588 0)
(0.0995044 -0.000926726 0)
(0.0995135 -0.000941623 0)
(0.0995211 -0.000965642 0)
(0.0995272 -0.000995762 0)
(0.099532 -0.00103012 0)
(0.0995358 -0.00106761 0)
(0.0995389 -0.00110757 0)
(0.0995416 -0.00114961 0)
(0.099544 -0.00119349 0)
(0.0995464 -0.00123905 0)
(0.0995489 -0.00128617 0)
(0.0995518 -0.00133478 0)
(0.0995551 -0.00138479 0)
(0.099559 -0.00143617 0)
(0.0995635 -0.00148884 0)
(0.0995689 -0.00154277 0)
(0.0995752 -0.00159789 0)
(0.0995824 -0.00165417 0)
(0.0995907 -0.00171155 0)
(0.0996001 -0.00176998 0)
(0.0996107 -0.00182942 0)
(0.0996226 -0.0018898 0)
(0.0996358 -0.00195108 0)
(0.0996504 -0.0020132 0)
(0.0996664 -0.00207609 0)
(0.0996839 -0.00213971 0)
(0.0997029 -0.00220398 0)
(0.0997234 -0.00226884 0)
(0.0997456 -0.00233423 0)
(0.0997694 -0.00240008 0)
(0.0997948 -0.00246632 0)
(0.0998219 -0.00253288 0)
(0.0998507 -0.00259969 0)
(0.0998812 -0.00266668 0)
(0.0999134 -0.00273377 0)
(0.0999474 -0.00280088 0)
(0.099983 -0.00286795 0)
(0.10002 -0.0029349 0)
(0.100059 -0.00300165 0)
(0.1 -3.3483e-05 0)
(0.0999987 -9.02108e-05 0)
(0.099998 -0.00019224 0)
(0.099985 -0.000416859 0)
(0.0999465 -0.00076746 0)
(0.0998771 -0.0011535 0)
(0.0997855 -0.00145702 0)
(0.0996888 -0.00160692 0)
(0.0996032 -0.00160329 0)
(0.0995386 -0.00149492 0)
(0.0994971 -0.00134276 0)
(0.0994756 -0.00119444 0)
(0.0994686 -0.00107597 0)
(0.0994706 -0.000995141 0)
(0.099477 -0.000948962 0)
(0.0994851 -0.000930115 0)
(0.0994929 -0.00093096 0)
(0.0994997 -0.000945279 0)
(0.0995053 -0.000968643 0)
(0.0995095 -0.000998146 0)
(0.0995126 -0.00103199 0)
(0.0995148 -0.00106907 0)
(0.0995163 -0.00110875 0)
(0.0995175 -0.00115063 0)
(0.0995184 -0.00119446 0)
(0.0995193 -0.00124007 0)
(0.0995204 -0.00128736 0)
(0.0995218 -0.00133622 0)
(0.0995236 -0.00138658 0)
(0.099526 -0.00143839 0)
(0.099529 -0.00149158 0)
(0.0995329 -0.00154612 0)
(0.0995376 -0.00160193 0)
(0.0995433 -0.00165899 0)
(0.09955 -0.00171723 0)
(0.0995578 -0.00177661 0)
(0.0995669 -0.00183707 0)
(0.0995771 -0.00189857 0)
(0.0995887 -0.00196106 0)
(0.0996017 -0.00202446 0)
(0.0996162 -0.00208873 0)
(0.0996321 -0.00215381 0)
(0.0996495 -0.00221964 0)
(0.0996685 -0.00228615 0)
(0.0996891 -0.00235327 0)
(0.0997114 -0.00242094 0)
(0.0997353 -0.00248909 0)
(0.0997609 -0.00255765 0)
(0.0997883 -0.00262654 0)
(0.0998174 -0.00269569 0)
(0.0998482 -0.00276504 0)
(0.0998808 -0.00283449 0)
(0.0999152 -0.00290398 0)
(0.0999514 -0.00297342 0)
(0.0999893 -0.00304275 0)
(0.1 -3.32476e-05 0)
(0.0999985 -8.98286e-05 0)
(0.0999975 -0.000189638 0)
(0.0999852 -0.00040732 0)
(0.0999487 -0.000747028 0)
(0.0998828 -0.00112234 0)
(0.0997949 -0.00141966 0)
(0.0997008 -0.00156978 0)
(0.0996162 -0.00157178 0)
(0.0995505 -0.00147185 0)
(0.0995066 -0.00132839 0)
(0.0994817 -0.00118731 0)
(0.0994709 -0.00107397 0)
(0.0994691 -0.000996259 0)
(0.0994721 -0.000951619 0)
(0.099477 -0.000933249 0)
(0.0994822 -0.000933947 0)
(0.0994866 -0.000947813 0)
(0.09949 -0.000970618 0)
(0.0994923 -0.000999574 0)
(0.0994936 -0.00103294 0)
(0.0994941 -0.00106965 0)
(0.099494 -0.00110906 0)
(0.0994936 -0.00115078 0)
(0.0994929 -0.00119456 0)
(0.0994923 -0.00124022 0)
(0.0994919 -0.00128764 0)
(0.0994917 -0.00133673 0)
(0.099492 -0.00138742 0)
(0.0994928 -0.00143963 0)
(0.0994943 -0.00149332 0)
(0.0994965 -0.00154843 0)
(0.0994996 -0.00160491 0)
(0.0995037 -0.00166271 0)
(0.0995088 -0.00172178 0)
(0.0995149 -0.00178207 0)
(0.0995223 -0.00184354 0)
(0.0995309 -0.00190613 0)
(0.0995409 -0.00196979 0)
(0.0995522 -0.00203446 0)
(0.0995649 -0.00210008 0)
(0.0995791 -0.00216661 0)
(0.0995949 -0.00223397 0)
(0.0996122 -0.0023021 0)
(0.0996312 -0.00237094 0)
(0.0996518 -0.00244043 0)
(0.0996741 -0.00251048 0)
(0.0996981 -0.00258103 0)
(0.0997239 -0.00265201 0)
(0.0997515 -0.00272334 0)
(0.0997808 -0.00279495 0)
(0.099812 -0.00286676 0)
(0.099845 -0.00293869 0)
(0.0998798 -0.00301066 0)
(0.0999164 -0.00308259 0)
(0.1 -3.29838e-05 0)
(0.0999983 -8.9362e-05 0)
(0.0999971 -0.000187089 0)
(0.0999852 -0.000398272 0)
(0.0999507 -0.00072764 0)
(0.099888 -0.00109256 0)
(0.0998036 -0.00138358 0)
(0.0997122 -0.0015334 0)
(0.0996286 -0.00154028 0)
(0.0995622 -0.00144809 0)
(0.099516 -0.00131277 0)
(0.0994879 -0.00117861 0)
(0.0994735 -0.00107029 0)
(0.0994681 -0.000995725 0)
(0.0994677 -0.000952732 0)
(0.0994696 -0.000934975 0)
(0.099472 -0.000935662 0)
(0.099474 -0.000949191 0)
(0.0994751 -0.00097153 0)
(0.0994754 -0.00100001 0)
(0.0994749 -0.00103294 0)
(0.0994736 -0.00106931 0)
(0.0994719 -0.00110847 0)
(0.0994698 -0.00115003 0)
(0.0994675 -0.00119374 0)
(0.0994653 -0.00123944 0)
(0.0994633 -0.00128698 0)
(0.0994615 -0.00133628 0)
(0.0994602 -0.00138726 0)
(0.0994594 -0.00143986 0)
(0.0994592 -0.00149401 0)
(0.0994598 -0.00154966 0)
(0.0994612 -0.00160677 0)
(0.0994636 -0.00166528 0)
(0.099467 -0.00172515 0)
(0.0994714 -0.00178632 0)
(0.0994771 -0.00184876 0)
(0.0994839 -0.0019124 0)
(0.0994921 -0.00197721 0)
(0.0995016 -0.00204311 0)
(0.0995126 -0.00211006 0)
(0.099525 -0.00217801 0)
(0.099539 -0.00224688 0)
(0.0995545 -0.00231662 0)
(0.0995717 -0.00238716 0)
(0.0995906 -0.00245844 0)
(0.0996112 -0.00253038 0)
(0.0996335 -0.00260292 0)
(0.0996576 -0.00267598 0)
(0.0996835 -0.00274949 0)
(0.0997112 -0.00282338 0)
(0.0997408 -0.00289755 0)
(0.0997722 -0.00297194 0)
(0.0998055 -0.00304646 0)
(0.0998406 -0.00312104 0)
(0.1 -3.26934e-05 0)
(0.0999982 -8.88113e-05 0)
(0.0999967 -0.000184571 0)
(0.0999852 -0.000389652 0)
(0.0999523 -0.000709201 0)
(0.0998925 -0.00106406 0)
(0.0998114 -0.00134872 0)
(0.0997226 -0.00149779 0)
(0.0996401 -0.00150889 0)
(0.0995732 -0.00142374 0)
(0.099525 -0.00129602 0)
(0.099494 -0.00116845 0)
(0.0994763 -0.00106501 0)
(0.0994674 -0.000993591 0)
(0.0994637 -0.000952325 0)
(0.0994625 -0.000935299 0)
(0.0994622 -0.000936095 0)
(0.0994617 -0.000949395 0)
(0.0994607 -0.000971355 0)
(0.0994589 -0.00099942 0)
(0.0994564 -0.00103197 0)
(0.0994533 -0.00106802 0)
(0.0994499 -0.00110694 0)
(0.0994461 -0.00114835 0)
(0.0994422 -0.00119199 0)
(0.0994383 -0.0012377 0)
(0.0994346 -0.00128535 0)
(0.0994312 -0.00133484 0)
(0.0994282 -0.00138609 0)
(0.0994257 -0.00143903 0)
(0.0994239 -0.00149361 0)
(0.0994227 -0.00154977 0)
(0.0994224 -0.00160747 0)
(0.099423 -0.00166666 0)
(0.0994246 -0.00172729 0)
(0.0994273 -0.00178931 0)
(0.0994311 -0.00185267 0)
(0.0994361 -0.00191733 0)
(0.0994424 -0.00198324 0)
(0.0994501 -0.00205035 0)
(0.0994591 -0.0021186 0)
(0.0994697 -0.00218793 0)
(0.0994818 -0.00225828 0)
(0.0994955 -0.0023296 0)
(0.0995108 -0.00240182 0)
(0.0995278 -0.00247487 0)
(0.0995465 -0.00254869 0)
(0.099567 -0.00262321 0)
(0.0995892 -0.00269834 0)
(0.0996133 -0.00277403 0)
(0.0996393 -0.00285019 0)
(0.0996671 -0.00292673 0)
(0.0996969 -0.0030036 0)
(0.0997285 -0.00308069 0)
(0.0997621 -0.00315793 0)
(0.1 -3.2378e-05 0)
(0.099998 -8.81779e-05 0)
(0.0999962 -0.000182064 0)
(0.099985 -0.000381394 0)
(0.0999536 -0.000691601 0)
(0.0998964 -0.00103674 0)
(0.0998183 -0.00131502 0)
(0.0997319 -0.00146293 0)
(0.0996506 -0.00147763 0)
(0.0995833 -0.0013989 0)
(0.0995334 -0.00127827 0)
(0.0994998 -0.00115695 0)
(0.0994789 -0.00105823 0)
(0.0994668 -0.000989924 0)
(0.0994599 -0.000950441 0)
(0.0994558 -0.00093424 0)
(0.0994527 -0.00093525 0)
(0.0994497 -0.000948416 0)
(0.0994464 -0.000970077 0)
(0.0994426 -0.000997788 0)
(0.0994382 -0.00103 0)
(0.0994332 -0.00106575 0)
(0.099428 -0.00110444 0)
(0.0994225 -0.0011457 0)
(0.0994168 -0.00118927 0)
(0.0994113 -0.00123498 0)
(0.0994059 -0.00128271 0)
(0.0994007 -0.00133236 0)
(0.099396 -0.00138385 0)
(0.0993918 -0.00143711 0)
(0.0993882 -0.00149208 0)
(0.0993853 -0.00154872 0)
(0.0993832 -0.00160697 0)
(0.099382 -0.00166679 0)
(0.0993817 -0.00172814 0)
(0.0993825 -0.00179096 0)
(0.0993844 -0.00185522 0)
(0.0993875 -0.00192086 0)
(0.0993918 -0.00198784 0)
(0.0993975 -0.0020561 0)
(0.0994047 -0.0021256 0)
(0.0994132 -0.00219628 0)
(0.0994233 -0.00226809 0)
(0.099435 -0.00234095 0)
(0.0994483 -0.00241482 0)
(0.0994633 -0.00248963 0)
(0.0994801 -0.0025653 0)
(0.0994986 -0.00264177 0)
(0.0995189 -0.00271897 0)
(0.099541 -0.00279682 0)
(0.0995651 -0.00287524 0)
(0.0995911 -0.00295417 0)
(0.0996189 -0.0030335 0)
(0.0996488 -0.00311318 0)
(0.0996806 -0.0031931 0)
(0.1 -3.20392e-05 0)
(0.0999979 -8.74635e-05 0)
(0.0999958 -0.000179547 0)
(0.0999848 -0.000373428 0)
(0.0999546 -0.000674728 0)
(0.0998996 -0.00101046 0)
(0.0998242 -0.00128235 0)
(0.0997401 -0.0014288 0)
(0.0996599 -0.00144656 0)
(0.0995924 -0.00137365 0)
(0.099541 -0.00125962 0)
(0.099505 -0.00114422 0)
(0.0994812 -0.00105004 0)
(0.099466 -0.000984803 0)
(0.0994561 -0.000947134 0)
(0.0994491 -0.000931832 0)
(0.0994434 -0.000933141 0)
(0.099438 -0.000946255 0)
(0.0994324 -0.000967685 0)
(0.0994265 -0.000995096 0)
(0.0994201 -0.001027 0)
(0.0994133 -0.00106248 0)
(0.0994062 -0.00110096 0)
(0.0993989 -0.00114206 0)
(0.0993915 -0.00118555 0)
(0.0993842 -0.00123125 0)
(0.099377 -0.00127904 0)
(0.0993702 -0.00132882 0)
(0.0993637 -0.00138051 0)
(0.0993577 -0.00143405 0)
(0.0993522 -0.00148939 0)
(0.0993475 -0.00154646 0)
(0.0993435 -0.00160522 0)
(0.0993404 -0.00166564 0)
(0.0993382 -0.00172765 0)
(0.099337 -0.00179124 0)
(0.099337 -0.00185634 0)
(0.0993381 -0.00192291 0)
(0.0993404 -0.00199091 0)
(0.0993441 -0.0020603 0)
(0.0993491 -0.00213101 0)
(0.0993556 -0.002203 0)
(0.0993636 -0.00227621 0)
(0.0993732 -0.00235059 0)
(0.0993844 -0.00242607 0)
(0.0993973 -0.00250259 0)
(0.0994119 -0.00258009 0)
(0.0994283 -0.00265849 0)
(0.0994465 -0.00273772 0)
(0.0994666 -0.00281772 0)
(0.0994886 -0.00289841 0)
(0.0995126 -0.00297969 0)
(0.0995385 -0.00306151 0)
(0.0995663 -0.00314377 0)
(0.0995962 -0.00322638 0)
(0.1 -3.16782e-05 0)
(0.0999977 -8.66705e-05 0)
(0.0999954 -0.000177002 0)
(0.0999844 -0.000365694 0)
(0.0999552 -0.000658471 0)
(0.0999022 -0.000985088 0)
(0.0998292 -0.00125064 0)
(0.0997471 -0.00139534 0)
(0.099668 -0.00141569 0)
(0.0996004 -0.00134807 0)
(0.0995478 -0.00124017 0)
(0.0995096 -0.00113037 0)
(0.0994832 -0.00104055 0)
(0.0994651 -0.000978308 0)
(0.0994523 -0.000942464 0)
(0.0994425 -0.000928111 0)
(0.0994342 -0.000929788 0)
(0.0994264 -0.00094292 0)
(0.0994186 -0.000964178 0)
(0.0994105 -0.000991335 0)
(0.0994021 -0.00102297 0)
(0.0993934 -0.0010582 0)
(0.0993845 -0.00109647 0)
(0.0993754 -0.00113741 0)
(0.0993662 -0.00118081 0)
(0.0993571 -0.00122648 0)
(0.0993481 -0.0012743 0)
(0.0993395 -0.00132419 0)
(0.0993312 -0.00137606 0)
(0.0993233 -0.00142984 0)
(0.099316 -0.00148549 0)
(0.0993094 -0.00154295 0)
(0.0993035 -0.00160218 0)
(0.0992984 -0.00166314 0)
(0.0992942 -0.00172579 0)
(0.099291 -0.00179008 0)
(0.0992889 -0.00185597 0)
(0.0992879 -0.00192343 0)
(0.0992882 -0.00199241 0)
(0.0992897 -0.00206286 0)
(0.0992926 -0.00213474 0)
(0.0992969 -0.00220799 0)
(0.0993027 -0.00228256 0)
(0.0993101 -0.00235841 0)
(0.099319 -0.00243546 0)
(0.0993297 -0.00251366 0)
(0.0993421 -0.00259294 0)
(0.0993562 -0.00267324 0)
(0.0993722 -0.00275449 0)
(0.0993901 -0.00283661 0)
(0.0994099 -0.00291953 0)
(0.0994317 -0.00300317 0)
(0.0994554 -0.00308745 0)
(0.0994812 -0.00317229 0)
(0.099509 -0.0032576 0)
(0.1 -3.12962e-05 0)
(0.0999976 -8.58015e-05 0)
(0.099995 -0.000174416 0)
(0.0999841 -0.000358136 0)
(0.0999556 -0.00064273 0)
(0.0999042 -0.000960514 0)
(0.0998333 -0.00121977 0)
(0.0997531 -0.0013625 0)
(0.099675 -0.00138502 0)
(0.0996074 -0.00132222 0)
(0.0995536 -0.00122003 0)
(0.0995135 -0.0011155 0)
(0.0994847 -0.00102985 0)
(0.0994639 -0.000970523 0)
(0.0994484 -0.000936491 0)
(0.099436 -0.000923121 0)
(0.0994251 -0.000925218 0)
(0.099415 -0.000938422 0)
(0.0994049 -0.000959558 0)
(0.0993948 -0.0009865 0)
(0.0993843 -0.00101789 0)
(0.0993737 -0.00105289 0)
(0.0993628 -0.00109095 0)
(0.0993519 -0.00113174 0)
(0.0993409 -0.00117502 0)
(0.09933 -0.00122064 0)
(0.0993192 -0.00126848 0)
(0.0993087 -0.00131844 0)
(0.0992985 -0.00137044 0)
(0.0992888 -0.00142443 0)
(0.0992796 -0.00148035 0)
(0.099271 -0.00153816 0)
(0.0992631 -0.00159781 0)
(0.099256 -0.00165927 0)
(0.0992498 -0.00172249 0)
(0.0992445 -0.00178744 0)
(0.0992402 -0.00185407 0)
(0.0992371 -0.00192236 0)
(0.0992351 -0.00199226 0)
(0.0992344 -0.00206372 0)
(0.0992351 -0.00213671 0)
(0.0992371 -0.00221117 0)
(0.0992406 -0.00228705 0)
(0.0992456 -0.00236431 0)
(0.0992523 -0.00244289 0)
(0.0992606 -0.00252272 0)
(0.0992706 -0.00260375 0)
(0.0992824 -0.0026859 0)
(0.099296 -0.00276912 0)
(0.0993115 -0.00285334 0)
(0.099329 -0.00293847 0)
(0.0993484 -0.00302444 0)
(0.0993698 -0.00311117 0)
(0.0993932 -0.00319857 0)
(0.0994188 -0.00328658 0)
(0.1 -3.08938e-05 0)
(0.0999975 -8.48589e-05 0)
(0.0999946 -0.000171779 0)
(0.0999836 -0.000350709 0)
(0.0999558 -0.000627417 0)
(0.0999058 -0.000936622 0)
(0.0998367 -0.00118964 0)
(0.0997581 -0.00133023 0)
(0.099681 -0.00135456 0)
(0.0996133 -0.00129615 0)
(0.0995586 -0.00119926 0)
(0.0995168 -0.00109971 0)
(0.0994857 -0.00101804 0)
(0.0994624 -0.000961523 0)
(0.0994444 -0.000929277 0)
(0.0994294 -0.000916905 0)
(0.0994161 -0.000919459 0)
(0.0994036 -0.000932778 0)
(0.0993914 -0.000953831 0)
(0.0993791 -0.000980591 0)
(0.0993667 -0.00101176 0)
(0.0993541 -0.00104653 0)
(0.0993413 -0.00108439 0)
(0.0993285 -0.00112501 0)
(0.0993156 -0.00116818 0)
(0.0993028 -0.00121372 0)
(0.0992902 -0.00126154 0)
(0.0992778 -0.00131154 0)
(0.0992657 -0.00136364 0)
(0.0992541 -0.0014178 0)
(0.0992429 -0.00147395 0)
(0.0992323 -0.00153206 0)
(0.0992224 -0.00159208 0)
(0.0992132 -0.00165397 0)
(0.0992049 -0.00171771 0)
(0.0991974 -0.00178326 0)
(0.099191 -0.00185058 0)
(0.0991856 -0.00191964 0)
(0.0991814 -0.00199039 0)
(0.0991784 -0.00206281 0)
(0.0991766 -0.00213685 0)
(0.0991763 -0.00221246 0)
(0.0991774 -0.0022896 0)
(0.09918 -0.00236821 0)