/*--------------------------------*- C++ -*----------------------------------*\
| =========                 |                                                 |
| \\      /  F ield         | OpenFOAM: The Open Source CFD Toolbox           |
|  \\    /   O peration     | Version:  2412                                  |
|   \\  /    A nd           | Website:  www.openfoam.com                      |
|    \\/     M anipulation  |                                                 |
\*---------------------------------------------------------------------------*/
FoamFile
{
    version     2.0;
    format      ascii;
    arch        "LSB;label=32;scalar=64";
    class       volVectorField;
    location    "10";
    object      vorticity;
}
// * * * * * * * * * * * * * * * * * * * * * * * * * * * * * * * * * * * * * //

dimensions      [0 0 -1 0 0 0 0];

internalField   nonuniform List<vector> 
5285
(
(0 -0 8.39303e-06)
(0 -0 6.74529e-06)
(0 -0 5.08766e-06)
(0 -0 3.42867e-06)
(0 -0 1.79633e-06)
(0 -0 2.04733e-07)
(0 -0 -1.32395e-06)
(0 -0 -2.77637e-06)
(0 -0 -4.14472e-06)
(0 -0 -5.42666e-06)
(0 -0 -6.62367e-06)
(0 -0 -7.7386e-06)
(0 -0 -8.77375e-06)
(0 -0 -9.73394e-06)
(0 -0 -1.06407e-05)
(0 -0 -1.14992e-05)
(0 -0 1.2665e-06)
(0 -0 -8.98054e-08)
(0 -0 -1.43796e-06)
(0 -0 -2.74354e-06)
(0 -0 -3.9993e-06)
(0 -0 -5.18006e-06)
(0 -0 -6.26366e-06)
(0 -0 -7.23954e-06)
(0 -0 -8.10618e-06)
(0 -0 -8.87153e-06)
(0 -0 -9.5514e-06)
(0 -0 -1.01663e-05)
(0 -0 -1.07383e-05)
(0 -0 -1.12923e-05)
(0 -0 -1.18648e-05)
(0 -0 -1.24807e-05)
(0 -0 -4.46602e-06)
(0 -0 -5.55626e-06)
(0 -0 -6.60286e-06)
(0 -0 -7.58743e-06)
(0 -0 -8.49364e-06)
(0 -0 -9.29412e-06)
(0 -0 -9.9663e-06)
(0 -0 -1.0502e-05)
(0 -0 -1.09052e-05)
(0 -0 -1.11932e-05)
(0 -0 -1.13946e-05)
(0 -0 -1.15462e-05)
(0 -0 -1.16881e-05)
(0 -0 -1.18635e-05)
(0 -0 -1.21268e-05)
(0 -0 -1.25104e-05)
(0 -0 -8.68009e-06)
(0 -0 -9.52458e-06)
(0 -0 -1.03064e-05)
(0 -0 -1.10034e-05)
(0 -0 -1.1597e-05)
(0 -0 -1.20576e-05)
(0 -0 -1.23621e-05)
(0 -0 -1.25041e-05)
(0 -0 -1.24922e-05)
(0 -0 -1.23517e-05)
(0 -0 -1.21228e-05)
(0 -0 -1.18563e-05)
(0 -0 -1.16084e-05)
(0 -0 -1.14392e-05)
(0 -0 -1.14186e-05)
(0 -0 -1.15904e-05)
(0 -0 -1.14172e-05)
(0 -0 -1.20514e-05)
(0 -0 -1.26056e-05)
(0 -0 -1.30556e-05)
(0 -0 -1.33803e-05)
(0 -0 -1.35482e-05)
(0 -0 -1.35355e-05)
(0 -0 -1.33369e-05)
(0 -0 -1.29649e-05)
(0 -0 -1.24512e-05)
(0 -0 -1.18458e-05)
(0 -0 -1.12119e-05)
(0 -0 -1.06198e-05)
(0 -0 -1.01445e-05)
(0 -0 -9.86955e-06)
(0 -0 -9.84966e-06)
(0 -0 -1.28649e-05)
(0 -0 -1.33261e-05)
(0 -0 -1.36931e-05)
(0 -0 -1.39396e-05)
(0 -0 -1.40422e-05)
(0 -0 -1.39676e-05)
(0 -0 -1.36908e-05)
(0 -0 -1.32073e-05)
(0 -0 -1.25322e-05)
(0 -0 -1.17026e-05)
(0 -0 -1.07764e-05)
(0 -0 -9.82751e-06)
(0 -0 -8.93839e-06)
(0 -0 -8.19683e-06)
(0 -0 -7.69897e-06)
(0 -0 -7.50907e-06)
(0 -0 -1.33003e-05)
(0 -0 -1.36258e-05)
(0 -0 -1.38459e-05)
(0 -0 -1.39321e-05)
(0 -0 -1.38589e-05)
(0 -0 -1.35908e-05)
(0 -0 -1.31017e-05)
(0 -0 -1.2387e-05)
(0 -0 -1.14637e-05)
(0 -0 -1.0373e-05)
(0 -0 -9.17939e-06)
(0 -0 -7.96556e-06)
(0 -0 -6.82454e-06)
(0 -0 -5.8554e-06)
(0 -0 -5.16533e-06)
(0 -0 -4.8275e-06)
(0 -0 -1.30339e-05)
(0 -0 -1.32587e-05)
(0 -0 -1.33694e-05)
(0 -0 -1.33353e-05)
(0 -0 -1.31287e-05)
(0 -0 -1.27121e-05)
(0 -0 -1.20578e-05)
(0 -0 -1.11606e-05)
(0 -0 -1.00387e-05)
(0 -0 -8.73622e-06)
(0 -0 -7.32312e-06)
(0 -0 -5.88933e-06)
(0 -0 -4.53697e-06)
(0 -0 -3.37506e-06)
(0 -0 -2.52079e-06)
(0 -0 -2.05566e-06)
(0 -0 -1.236e-05)
(0 -0 -1.25152e-05)
(0 -0 -1.25493e-05)
(0 -0 -1.24298e-05)
(0 -0 -1.21268e-05)
(0 -0 -1.16003e-05)
(0 -0 -1.08212e-05)
(0 -0 -9.78328e-06)
(0 -0 -8.50493e-06)
(0 -0 -7.03273e-06)
(0 -0 -5.44069e-06)
(0 -0 -3.82502e-06)
(0 -0 -2.29569e-06)
(0 -0 -9.70652e-07)
(0 -0 2.37772e-08)
(0 -0 5.98202e-07)
(0 -0 -1.15235e-05)
(0 -0 -1.16348e-05)
(0 -0 -1.16195e-05)
(0 -0 -1.14434e-05)
(0 -0 -1.1074e-05)
(0 -0 -1.04695e-05)
(0 -0 -9.59838e-06)
(0 -0 -8.45335e-06)
(0 -0 -7.05266e-06)
(0 -0 -5.44441e-06)
(0 -0 -3.706e-06)
(0 -0 -1.93896e-06)
(0 -0 -2.6024e-07)
(0 -0 1.20413e-06)
(0 -0 2.31926e-06)
(0 -0 2.98817e-06)
(0 -0 -1.07029e-05)
(0 -0 -1.07907e-05)
(0 -0 -1.07475e-05)
(0 -0 -1.0537e-05)
(0 -0 -1.01248e-05)
(0 -0 -9.46659e-06)
(0 -0 -8.5288e-06)
(0 -0 -7.30248e-06)
(0 -0 -5.80544e-06)
(0 -0 -4.08677e-06)
(0 -0 -2.2267e-06)
(0 -0 -3.31433e-07)
(0 -0 1.47579e-06)
(0 -0 3.06141e-06)
(0 -0 4.28238e-06)
(0 -0 5.03422e-06)
(0 -0 -1.0011e-05)
(0 -0 -1.00903e-05)
(0 -0 -1.00351e-05)
(0 -0 -9.80697e-06)
(0 -0 -9.36923e-06)
(0 -0 -8.6752e-06)
(0 -0 -7.68911e-06)
(0 -0 -6.40024e-06)
(0 -0 -4.82562e-06)
(0 -0 -3.01501e-06)
(0 -0 -1.05104e-06)
(0 -0 9.55886e-07)
(0 -0 2.87667e-06)
(0 -0 4.57061e-06)
(0 -0 5.88672e-06)
(0 -0 6.71281e-06)
(0 -0 -9.50501e-06)
(0 -0 -9.587e-06)
(0 -0 -9.53104e-06)
(0 -0 -9.29703e-06)
(0 -0 -8.84589e-06)
(0 -0 -8.12856e-06)
(0 -0 -7.10696e-06)
(0 -0 -5.76847e-06)
(0 -0 -4.12916e-06)
(0 -0 -2.23924e-06)
(0 -0 -1.83433e-07)
(0 -0 1.92392e-06)
(0 -0 3.94818e-06)
(0 -0 5.74181e-06)
(0 -0 7.14591e-06)
(0 -0 8.03976e-06)
(0 -0 -9.20451e-06)
(0 -0 -9.29683e-06)
(0 -0 -9.24802e-06)
(0 -0 -9.01612e-06)
(0 -0 -8.55978e-06)
(0 -0 -7.82756e-06)
(0 -0 -6.77897e-06)
(0 -0 -5.3994e-06)
(0 -0 -3.70387e-06)
(0 -0 -1.74285e-06)
(0 -0 3.96975e-07)
(0 -0 2.59755e-06)
(0 -0 4.71894e-06)
(0 -0 6.60704e-06)
(0 -0 8.09498e-06)
(0 -0 9.05154e-06)
(0 -0 -9.10757e-06)
(0 -0 -9.21563e-06)
(0 -0 -9.17929e-06)
(0 -0 -8.95484e-06)
(0 -0 -8.49875e-06)
(0 -0 -7.75716e-06)
(0 -0 -6.68714e-06)
(0 -0 -5.27203e-06)
(0 -0 -3.52568e-06)
(0 -0 -1.49875e-06)
(0 -0 7.20218e-07)
(0 -0 3.0096e-06)
(0 -0 5.22445e-06)
(0 -0 7.20465e-06)
(0 -0 8.77558e-06)
(0 -0 9.79072e-06)
(0 -0 -9.20335e-06)
(0 -0 -9.33071e-06)
(0 -0 -9.3102e-06)
(0 -0 -9.09669e-06)
(0 -0 -8.64451e-06)
(0 -0 -7.89727e-06)
(0 -0 -6.80953e-06)
(0 -0 -5.36249e-06)
(0 -0 -3.56879e-06)
(0 -0 -1.4792e-06)
(0 -0 8.15922e-07)
(0 -0 3.19152e-06)
(0 -0 5.49804e-06)
(0 -0 7.57069e-06)
(0 -0 9.22891e-06)
(0 -0 1.03003e-05)
(0 -0 -9.47751e-06)
(0 -0 -9.62556e-06)
(0 -0 -9.62236e-06)
(0 -0 -9.42217e-06)
(0 -0 -8.97654e-06)
(0 -0 -8.22637e-06)
(0 -0 -7.12354e-06)
(0 -0 -5.64705e-06)
(0 -0 -3.80824e-06)
(0 -0 -1.65805e-06)
(0 -0 7.11403e-07)
(0 -0 3.17172e-06)
(0 -0 5.56939e-06)
(0 -0 7.73756e-06)
(0 -0 9.49125e-06)
(0 -0 1.06669e-05)
(0 -0 -9.8227e-06)
(0 -0 -9.99537e-06)
(0 -0 -1.00066e-05)
(0 -0 -9.82048e-06)
(0 -0 -9.38222e-06)
(0 -0 -8.62971e-06)
(0 -0 -7.51216e-06)
(0 -0 -6.00633e-06)
(0 -0 -4.12237e-06)
(0 -0 -1.91135e-06)
(0 -0 5.32777e-07)
(0 -0 3.0783e-06)
(0 -0 5.56817e-06)
(0 -0 7.83424e-06)
(0 -0 9.70322e-06)
(0 -0 1.10497e-05)
(0 -0 -9.90753e-06)
(0 -0 -1.00689e-05)
(0 -0 -1.0102e-05)
(0 -0 -9.92601e-06)
(0 -0 -9.49034e-06)
(0 -0 -8.72978e-06)
(0 -0 -7.59155e-06)
(0 -0 -6.05034e-06)
(0 -0 -4.11518e-06)
(0 -0 -1.83738e-06)
(0 -0 6.87181e-07)
(0 -0 3.32324e-06)
(0 -0 5.90951e-06)
(0 -0 8.27706e-06)
(0 -0 1.02658e-05)
(0 -0 1.17376e-05)
(0 -0 -9.34883e-06)
(0 -0 -9.52816e-06)
(0 -0 -9.55796e-06)
(0 -0 -9.38596e-06)
(0 -0 -8.94553e-06)
(0 -0 -8.16548e-06)
(0 -0 -6.99555e-06)
(0 -0 -5.40832e-06)
(0 -0 -3.41164e-06)
(0 -0 -1.05714e-06)
(0 -0 1.55722e-06)
(0 -0 4.29222e-06)
(0 -0 6.98076e-06)
(0 -0 9.4467e-06)
(0 -0 1.15204e-05)
(0 -0 1.30479e-05)
(0 -0 -0.0004254)
(0 -0 -0.000604562)
(0 -0 -0.00138848)
(0 -0 -0.00252442)
(0 -0 -0.00323834)
(0 -0 -0.00296882)
(0 -0 -0.00180777)
(0 -0 -0.000314414)
(0 -0 0.000935892)
(0 -0 0.00164635)
(0 -0 0.00182148)
(0 -0 0.00163428)
(0 -0 0.00128437)
(0 -0 0.000918409)
(0 -0 0.000612686)
(0 -0 0.000389533)
(0 -0 0.000241496)
(0 -0 0.000150238)
(0 -0 9.71936e-05)
(0 -0 6.78026e-05)
(0 -0 5.21296e-05)
(0 -0 4.4001e-05)
(0 -0 3.9839e-05)
(0 -0 3.76802e-05)
(0 -0 3.64949e-05)
(0 -0 3.57624e-05)
(0 -0 3.52274e-05)
(0 -0 3.47681e-05)
(0 -0 3.43276e-05)
(0 -0 3.38791e-05)
(0 -0 3.34102e-05)
(0 -0 3.29147e-05)
(0 -0 3.23889e-05)
(0 -0 3.18306e-05)
(0 -0 3.12379e-05)
(0 -0 3.0609e-05)
(0 -0 2.99424e-05)
(0 -0 2.92363e-05)
(0 -0 2.84894e-05)
(0 -0 2.76998e-05)
(0 -0 2.68662e-05)
(0 -0 2.59868e-05)
(0 -0 2.50601e-05)
(0 -0 2.40846e-05)
(0 -0 2.3059e-05)
(0 -0 2.1982e-05)
(0 -0 2.08524e-05)
(0 -0 1.96694e-05)
(0 -0 1.84326e-05)
(0 -0 1.71424e-05)
(0 -0 1.57997e-05)
(0 -0 1.44068e-05)
(0 -0 1.29673e-05)
(0 -0 1.1483e-05)
(0 -0 9.9572e-06)
(0 -0 -0.000425535)
(0 -0 -0.000593625)
(0 -0 -0.00134348)
(0 -0 -0.0024455)
(0 -0 -0.00316167)
(0 -0 -0.00294335)
(0 -0 -0.00186236)
(0 -0 -0.000444007)
(0 -0 0.000761129)
(0 -0 0.00146236)
(0 -0 0.00165583)
(0 -0 0.00150089)
(0 -0 0.00118543)
(0 -0 0.000849102)
(0 -0 0.000565654)
(0 -0 0.000357672)
(0 -0 0.000219195)
(0 -0 0.000133581)
(0 -0 8.36855e-05)
(0 -0 5.59589e-05)
(0 -0 4.11185e-05)
(0 -0 3.33804e-05)
(0 -0 2.93853e-05)
(0 -0 2.72872e-05)
(0 -0 2.61159e-05)
(0 -0 2.53804e-05)
(0 -0 2.48394e-05)
(0 -0 2.43775e-05)
(0 -0 2.39404e-05)
(0 -0 2.35025e-05)
(0 -0 2.30519e-05)
(0 -0 2.25824e-05)
(0 -0 2.20906e-05)
(0 -0 2.1574e-05)
(0 -0 2.10308e-05)
(0 -0 2.04594e-05)
(0 -0 1.98582e-05)
(0 -0 1.92256e-05)
(0 -0 1.85602e-05)
(0 -0 1.78605e-05)
(0 -0 1.71249e-05)
(0 -0 1.63522e-05)
(0 -0 1.55407e-05)
(0 -0 1.46894e-05)
(0 -0 1.37968e-05)
(0 -0 1.28621e-05)
(0 -0 1.18842e-05)
(0 -0 1.08625e-05)
(0 -0 9.79699e-06)
(0 -0 8.68803e-06)
(0 -0 7.5371e-06)
(0 -0 6.34674e-06)
(0 -0 5.12056e-06)
(0 -0 3.86313e-06)
(0 -0 2.57161e-06)
(0 -0 -0.000425347)
(0 -0 -0.000583054)
(0 -0 -0.00129981)
(0 -0 -0.00236719)
(0 -0 -0.00308184)
(0 -0 -0.00290875)
(0 -0 -0.00190201)
(0 -0 -0.000555092)
(0 -0 0.000605416)
(0 -0 0.00129547)
(0 -0 0.00150398)
(0 -0 0.00137776)
(0 -0 0.00109365)
(0 -0 0.000784593)
(0 -0 0.000521799)
(0 -0 0.000327967)
(0 -0 0.000198454)
(0 -0 0.000118167)
(0 -0 7.12678e-05)
(0 -0 4.51476e-05)
(0 -0 3.1132e-05)
(0 -0 2.3801e-05)
(0 -0 2.00008e-05)
(0 -0 1.79951e-05)
(0 -0 1.68706e-05)
(0 -0 1.61639e-05)
(0 -0 1.56471e-05)
(0 -0 1.52111e-05)
(0 -0 1.4804e-05)
(0 -0 1.44018e-05)
(0 -0 1.39927e-05)
(0 -0 1.35708e-05)
(0 -0 1.31327e-05)
(0 -0 1.26763e-05)
(0 -0 1.21996e-05)
(0 -0 1.17011e-05)
(0 -0 1.11792e-05)
(0 -0 1.06326e-05)
(0 -0 1.00599e-05)
(0 -0 9.45968e-06)
(0 -0 8.83056e-06)
(0 -0 8.17127e-06)
(0 -0 7.48057e-06)
(0 -0 6.75732e-06)
(0 -0 6.00049e-06)
(0 -0 5.20916e-06)
(0 -0 4.38264e-06)
(0 -0 3.52051e-06)
(0 -0 2.62281e-06)
(0 -0 1.69027e-06)
(0 -0 7.24593e-07)
(0 -0 -2.71302e-07)
(0 -0 -1.2934e-06)
(0 -0 -2.33749e-06)
(0 -0 -3.404e-06)
(0 -0 -0.000424807)
(0 -0 -0.000572974)
(0 -0 -0.00125799)
(0 -0 -0.00229025)
(0 -0 -0.00299935)
(0 -0 -0.00286465)
(0 -0 -0.00192522)
(0 -0 -0.000645238)
(0 -0 0.000471658)
(0 -0 0.00114858)
(0 -0 0.0013685)
(0 -0 0.00126696)
(0 -0 0.00101061)
(0 -0 0.000726067)
(0 -0 0.000482008)
(0 -0 0.000301102)
(0 -0 0.000179829)
(0 -0 0.000104472)
(0 -0 6.03701e-05)
(0 -0 3.57701e-05)
(0 -0 2.25533e-05)
(0 -0 1.56337e-05)
(0 -0 1.20465e-05)
(0 -0 1.01571e-05)
(0 -0 9.10445e-06)
(0 -0 8.45123e-06)
(0 -0 7.98211e-06)
(0 -0 7.59356e-06)
(0 -0 7.23658e-06)
(0 -0 6.88808e-06)
(0 -0 6.53697e-06)
(0 -0 6.1776e-06)
(0 -0 5.80672e-06)
(0 -0 5.42215e-06)
(0 -0 5.02219e-06)
(0 -0 4.60533e-06)
(0 -0 4.17019e-06)
(0 -0 3.71544e-06)
(0 -0 3.23978e-06)
(0 -0 2.74194e-06)
(0 -0 2.22071e-06)
(0 -0 1.67492e-06)
(0 -0 1.10349e-06)
(0 -0 5.0542e-07)
(0 -0 -1.20175e-07)
(0 -0 -7.74037e-07)
(0 -0 -1.45671e-06)
(0 -0 -2.16844e-06)
(0 -0 -2.90901e-06)
(0 -0 -3.67748e-06)
(0 -0 -4.47191e-06)
(0 -0 -5.28908e-06)
(0 -0 -6.12456e-06)
(0 -0 -6.97377e-06)
(0 -0 -7.83659e-06)
(0 -0 -0.000423888)
(0 -0 -0.000563446)
(0 -0 -0.00121838)
(0 -0 -0.00221539)
(0 -0 -0.00291498)
(0 -0 -0.00281158)
(0 -0 -0.00193198)
(0 -0 -0.000713875)
(0 -0 0.000360841)
(0 -0 0.00102286)
(0 -0 0.00125053)
(0 -0 0.00116949)
(0 -0 0.000937128)
(0 -0 0.000674162)
(0 -0 0.000446776)
(0 -0 0.000277467)
(0 -0 0.00016364)
(0 -0 9.27687e-05)
(0 -0 5.12344e-05)
(0 -0 2.80469e-05)
(0 -0 1.55868e-05)
(0 -0 9.07019e-06)
(0 -0 5.70332e-06)
(0 -0 3.94418e-06)
(0 -0 2.97942e-06)
(0 -0 2.39569e-06)
(0 -0 1.98917e-06)
(0 -0 1.66175e-06)
(0 -0 1.36695e-06)
(0 -0 1.08282e-06)
(0 -0 7.98837e-07)
(0 -0 5.09614e-07)
(0 -0 2.12086e-07)
(0 -0 -9.58001e-08)
(0 -0 -4.15641e-07)
(0 -0 -7.48827e-07)
(0 -0 -1.09664e-06)
(0 -0 -1.46032e-06)
(0 -0 -1.84105e-06)
(0 -0 -2.23997e-06)
(0 -0 -2.65819e-06)
(0 -0 -3.09675e-06)
(0 -0 -3.5566e-06)
(0 -0 -4.03861e-06)
(0 -0 -4.54354e-06)
(0 -0 -5.07199e-06)
(0 -0 -5.62438e-06)
(0 -0 -6.20081e-06)
(0 -0 -6.80093e-06)
(0 -0 -7.42363e-06)
(0 -0 -8.06676e-06)
(0 -0 -8.72682e-06)
(0 -0 -9.39905e-06)
(0 -0 -1.00784e-05)
(0 -0 -1.07638e-05)
(0 -0 -0.000422575)
(0 -0 -0.000554468)
(0 -0 -0.00118114)
(0 -0 -0.00214316)
(0 -0 -0.00282971)
(0 -0 -0.00275077)
(0 -0 -0.00192355)
(0 -0 -0.000762037)
(0 -0 0.000272251)
(0 -0 0.000917914)
(0 -0 0.00114992)
(0 -0 0.00108536)
(0 -0 0.00087329)
(0 -0 0.000628984)
(0 -0 0.00041621)
(0 -0 0.000257159)
(0 -0 0.000149967)
(0 -0 8.31217e-05)
(0 -0 4.39104e-05)
(0 -0 2.20143e-05)
(0 -0 1.02571e-05)
(0 -0 4.12384e-06)
(0 -0 9.74334e-07)
(0 -0 -6.50298e-07)
(0 -0 -1.52022e-06)
(0 -0 -2.02716e-06)
(0 -0 -2.36437e-06)
(0 -0 -2.62498e-06)
(0 -0 -2.85311e-06)
(0 -0 -3.06959e-06)
(0 -0 -3.28442e-06)
(0 -0 -3.50269e-06)
(0 -0 -3.72727e-06)
(0 -0 -3.96009e-06)
(0 -0 -4.20263e-06)
(0 -0 -4.45617e-06)
(0 -0 -4.72189e-06)
(0 -0 -5.00092e-06)
(0 -0 -5.29435e-06)
(0 -0 -5.60323e-06)
(0 -0 -5.92855e-06)
(0 -0 -6.27124e-06)
(0 -0 -6.63214e-06)
(0 -0 -7.01203e-06)
(0 -0 -7.41154e-06)
(0 -0 -7.8312e-06)
(0 -0 -8.2713e-06)
(0 -0 -8.73186e-06)
(0 -0 -9.21241e-06)
(0 -0 -9.71172e-06)
(0 -0 -1.02275e-05)
(0 -0 -1.07559e-05)
(0 -0 -1.1292e-05)
(0 -0 -1.183e-05)
(0 -0 -1.23683e-05)
(0 -0 -0.000420859)
(0 -0 -0.00054599)
(0 -0 -0.00114633)
(0 -0 -0.00207396)
(0 -0 -0.00274458)
(0 -0 -0.00268395)
(0 -0 -0.0019021)
(0 -0 -0.000791993)
(0 -0 0.000203845)
(0 -0 0.000832097)
(0 -0 0.00106548)
(0 -0 0.00101374)
(0 -0 0.000818564)
(0 -0 0.000590199)
(0 -0 0.000390092)
(0 -0 0.000240023)
(0 -0 0.000138687)
(0 -0 7.54191e-05)
(0 -0 3.82863e-05)
(0 -0 1.75554e-05)
(0 -0 6.43941e-06)
(0 -0 6.61474e-07)
(0 -0 -2.28228e-06)
(0 -0 -3.77656e-06)
(0 -0 -4.55283e-06)
(0 -0 -4.98336e-06)
(0 -0 -5.25187e-06)
(0 -0 -5.44691e-06)
(0 -0 -5.61045e-06)
(0 -0 -5.76229e-06)
(0 -0 -5.91191e-06)
(0 -0 -6.06411e-06)
(0 -0 -6.22159e-06)
(0 -0 -6.38615e-06)
(0 -0 -6.55915e-06)
(0 -0 -6.74178e-06)
(0 -0 -6.93513e-06)
(0 -0 -7.14024e-06)
(0 -0 -7.35811e-06)
(0 -0 -7.58969e-06)
(0 -0 -7.83588e-06)
(0 -0 -8.09753e-06)
(0 -0 -8.3754e-06)
(0 -0 -8.67017e-06)
(0 -0 -8.98241e-06)
(0 -0 -9.31257e-06)
(0 -0 -9.66089e-06)
(0 -0 -1.00273e-05)
(0 -0 -1.04113e-05)
(0 -0 -1.08115e-05)
(0 -0 -1.12255e-05)
(0 -0 -1.16494e-05)
(0 -0 -1.20776e-05)
(0 -0 -1.25042e-05)
(0 -0 -1.29262e-05)
(0 -0 -0.000418743)
(0 -0 -0.00053793)
(0 -0 -0.00111383)
(0 -0 -0.00200803)
(0 -0 -0.00266061)
(0 -0 -0.00261306)
(0 -0 -0.00187031)
(0 -0 -0.000806752)
(0 -0 0.000152735)
(0 -0 0.00076295)
(0 -0 0.000995271)
(0 -0 0.00095325)
(0 -0 0.000771986)
(0 -0 0.000557148)
(0 -0 0.000367964)
(0 -0 0.000225721)
(0 -0 0.000129526)
(0 -0 6.94188e-05)
(0 -0 3.4133e-05)
(0 -0 1.44436e-05)
(0 -0 3.90465e-06)
(0 -0 -1.55104e-06)
(0 -0 -4.30664e-06)
(0 -0 -5.68089e-06)
(0 -0 -6.37075e-06)
(0 -0 -6.73103e-06)
(0 -0 -6.93689e-06)
(0 -0 -7.07276e-06)
(0 -0 -7.17863e-06)
(0 -0 -7.27334e-06)
(0 -0 -7.3659e-06)
(0 -0 -7.46087e-06)
(0 -0 -7.56078e-06)
(0 -0 -7.66731e-06)
(0 -0 -7.78174e-06)
(0 -0 -7.90517e-06)
(0 -0 -8.0386e-06)
(0 -0 -8.183e-06)
(0 -0 -8.3393e-06)
(0 -0 -8.50837e-06)
(0 -0 -8.69104e-06)
(0 -0 -8.88807e-06)
(0 -0 -9.10016e-06)
(0 -0 -9.32795e-06)
(0 -0 -9.57197e-06)
(0 -0 -9.83262e-06)
(0 -0 -1.01101e-05)
(0 -0 -1.04044e-05)
(0 -0 -1.07148e-05)
(0 -0 -1.104e-05)
(0 -0 -1.13774e-05)
(0 -0 -1.1723e-05)
(0 -0 -1.20709e-05)
(0 -0 -1.24145e-05)
(0 -0 -1.275e-05)
(0 -0 -0.000416232)
(0 -0 -0.000530188)
(0 -0 -0.00108346)
(0 -0 -0.00194547)
(0 -0 -0.00257864)
(0 -0 -0.00254)
(0 -0 -0.00183101)
(0 -0 -0.000809613)
(0 -0 0.000115643)
(0 -0 0.000707598)
(0 -0 0.000937018)
(0 -0 0.000902183)
(0 -0 0.000732345)
(0 -0 0.000528987)
(0 -0 0.000349228)
(0 -0 0.000213807)
(0 -0 0.000122127)
(0 -0 6.48097e-05)
(0 -0 3.11616e-05)
(0 -0 1.23987e-05)
(0 -0 2.3741e-06)
(0 -0 -2.79426e-06)
(0 -0 -5.38257e-06)
(0 -0 -6.6509e-06)
(0 -0 -7.26542e-06)
(0 -0 -7.56531e-06)
(0 -0 -7.71803e-06)
(0 -0 -7.80428e-06)
(0 -0 -7.86227e-06)
(0 -0 -7.91e-06)
(0 -0 -7.95606e-06)
(0 -0 -8.00476e-06)
(0 -0 -8.05853e-06)
(0 -0 -8.11894e-06)
(0 -0 -8.18719e-06)
(0 -0 -8.26433e-06)
(0 -0 -8.35129e-06)
(0 -0 -8.44898e-06)
(0 -0 -8.55826e-06)
(0 -0 -8.67995e-06)
(0 -0 -8.8148e-06)
(0 -0 -8.96352e-06)
(0 -0 -9.12674e-06)
(0 -0 -9.3051e-06)
(0 -0 -9.49913e-06)
(0 -0 -9.70923e-06)
(0 -0 -9.93564e-06)
(0 -0 -1.01782e-05)
(0 -0 -1.04364e-05)
(0 -0 -1.07087e-05)
(0 -0 -1.09926e-05)
(0 -0 -1.12836e-05)
(0 -0 -1.15759e-05)
(0 -0 -1.18623e-05)
(0 -0 -1.21376e-05)
(0 -0 -0.000413338)
(0 -0 -0.000522658)
(0 -0 -0.00105499)
(0 -0 -0.00188621)
(0 -0 -0.00249933)
(0 -0 -0.00246644)
(0 -0 -0.00178683)
(0 -0 -0.000803781)
(0 -0 8.93062e-05)
(0 -0 0.00066312)
(0 -0 0.000888348)
(0 -0 0.000858752)
(0 -0 0.00069836)
(0 -0 0.000504814)
(0 -0 0.000333242)
(0 -0 0.000203805)
(0 -0 0.000116109)
(0 -0 6.12656e-05)
(0 -0 2.90728e-05)
(0 -0 1.11339e-05)
(0 -0 1.5659e-06)
(0 -0 -3.34906e-06)
(0 -0 -5.79177e-06)
(0 -0 -6.96985e-06)
(0 -0 -7.52183e-06)
(0 -0 -7.77285e-06)
(0 -0 -7.88344e-06)
(0 -0 -7.93095e-06)
(0 -0 -7.95199e-06)
(0 -0 -7.9638e-06)
(0 -0 -7.9746e-06)
(0 -0 -7.98852e-06)
(0 -0 -8.00789e-06)
(0 -0 -8.0342e-06)
(0 -0 -8.06862e-06)
(0 -0 -8.11213e-06)
(0 -0 -8.16563e-06)
(0 -0 -8.22998e-06)
(0 -0 -8.30598e-06)
(0 -0 -8.39441e-06)
(0 -0 -8.49592e-06)
(0 -0 -8.61114e-06)
(0 -0 -8.74072e-06)
(0 -0 -8.8853e-06)
(0 -0 -9.04547e-06)
(0 -0 -9.22169e-06)
(0 -0 -9.41423e-06)
(0 -0 -9.62299e-06)
(0 -0 -9.84736e-06)
(0 -0 -1.00859e-05)
(0 -0 -1.03358e-05)
(0 -0 -1.05927e-05)
(0 -0 -1.08504e-05)
(0 -0 -1.11011e-05)
(0 -0 -1.13385e-05)
(0 -0 -0.000410075)
(0 -0 -0.000515243)
(0 -0 -0.00102816)
(0 -0 -0.0018301)
(0 -0 -0.00242307)
(0 -0 -0.00239373)
(0 -0 -0.00174002)
(0 -0 -0.000792082)
(0 -0 7.07772e-05)
(0 -0 0.00062683)
(0 -0 0.000847051)
(0 -0 0.000821273)
(0 -0 0.00066881)
(0 -0 0.000483769)
(0 -0 0.000319395)
(0 -0 0.000195263)
(0 -0 0.000111118)
(0 -0 5.8485e-05)
(0 -0 2.75944e-05)
(0 -0 1.03915e-05)
(0 -0 1.22914e-06)
(0 -0 -3.4634e-06)
(0 -0 -5.78112e-06)
(0 -0 -6.88431e-06)
(0 -0 -7.38656e-06)
(0 -0 -7.60029e-06)
(0 -0 -7.67975e-06)
(0 -0 -7.69926e-06)
(0 -0 -7.694e-06)
(0 -0 -7.68052e-06)
(0 -0 -7.66675e-06)
(0 -0 -7.65667e-06)
(0 -0 -7.65253e-06)
(0 -0 -7.65579e-06)
(0 -0 -7.66757e-06)
(0 -0 -7.68883e-06)
(0 -0 -7.72045e-06)
(0 -0 -7.76325e-06)
(0 -0 -7.81799e-06)
(0 -0 -7.88537e-06)
(0 -0 -7.96591e-06)
(0 -0 -8.06016e-06)
(0 -0 -8.16878e-06)
(0 -0 -8.29251e-06)
(0 -0 -8.43209e-06)
(0 -0 -8.5881e-06)
(0 -0 -8.76086e-06)
(0 -0 -8.95033e-06)
(0 -0 -9.15588e-06)
(0 -0 -9.37601e-06)
(0 -0 -9.60794e-06)
(0 -0 -9.84713e-06)
(0 -0 -1.0087e-05)
(0 -0 -1.03193e-05)
(0 -0 -1.05363e-05)
(0 -0 -0.000406456)
(0 -0 -0.000507856)
(0 -0 -0.00100269)
(0 -0 -0.00177688)
(0 -0 -0.00235005)
(0 -0 -0.00232279)
(0 -0 -0.00169233)
(0 -0 -0.00077681)
(0 -0 5.75981e-05)
(0 -0 0.000596448)
(0 -0 0.000811224)
(0 -0 0.000788282)
(0 -0 0.000642629)
(0 -0 0.000465096)
(0 -0 0.000307154)
(0 -0 0.000187793)
(0 -0 0.000106851)
(0 -0 5.62166e-05)
(0 -0 2.65026e-05)
(0 -0 9.96286e-06)
(0 -0 1.16294e-06)
(0 -0 -3.33405e-06)
(0 -0 -5.54505e-06)
(0 -0 -6.58723e-06)
(0 -0 -7.05139e-06)
(0 -0 -7.23835e-06)
(0 -0 -7.29663e-06)
(0 -0 -7.29778e-06)
(0 -0 -7.27569e-06)
(0 -0 -7.24632e-06)
(0 -0 -7.21733e-06)
(0 -0 -7.19259e-06)
(0 -0 -7.17431e-06)
(0 -0 -7.16393e-06)
(0 -0 -7.16256e-06)
(0 -0 -7.17114e-06)
(0 -0 -7.19054e-06)
(0 -0 -7.22155e-06)
(0 -0 -7.26492e-06)
(0 -0 -7.3212e-06)
(0 -0 -7.39067e-06)
(0 -0 -7.47372e-06)
(0 -0 -7.57114e-06)
(0 -0 -7.68392e-06)
(0 -0 -7.81305e-06)
(0 -0 -7.95932e-06)
(0 -0 -8.12314e-06)
(0 -0 -8.3045e-06)
(0 -0 -8.50276e-06)
(0 -0 -8.71639e-06)
(0 -0 -8.94251e-06)
(0 -0 -9.17645e-06)
(0 -0 -9.41134e-06)
(0 -0 -9.63822e-06)
(0 -0 -9.8481e-06)
(0 -0 -0.000402498)
(0 -0 -0.000500427)
(0 -0 -0.000978335)
(0 -0 -0.00172627)
(0 -0 -0.00228026)
(0 -0 -0.00225421)
(0 -0 -0.00164499)
(0 -0 -0.00075968)
(0 -0 4.78688e-05)
(0 -0 0.00057017)
(0 -0 0.000779341)
(0 -0 0.000758592)
(0 -0 0.000618949)
(0 -0 0.000448184)
(0 -0 0.000296088)
(0 -0 0.000181082)
(0 -0 0.000103073)
(0 -0 5.42687e-05)
(0 -0 2.56308e-05)
(0 -0 9.6948e-06)
(0 -0 1.2219e-06)
(0 -0 -3.10188e-06)
(0 -0 -5.22155e-06)
(0 -0 -6.21449e-06)
(0 -0 -6.65046e-06)
(0 -0 -6.81956e-06)
(0 -0 -6.86504e-06)
(0 -0 -6.85591e-06)
(0 -0 -6.82488e-06)
(0 -0 -6.78739e-06)
(0 -0 -6.75088e-06)
(0 -0 -6.71914e-06)
(0 -0 -6.69434e-06)
(0 -0 -6.67794e-06)
(0 -0 -6.67105e-06)
(0 -0 -6.67461e-06)
(0 -0 -6.68948e-06)
(0 -0 -6.71646e-06)
(0 -0 -6.75623e-06)
(0 -0 -6.80918e-06)
(0 -0 -6.87492e-06)
(0 -0 -6.95376e-06)
(0 -0 -7.04683e-06)
(0 -0 -7.15563e-06)
(0 -0 -7.28157e-06)
(0 -0 -7.42568e-06)
(0 -0 -7.58851e-06)
(0 -0 -7.77001e-06)
(0 -0 -7.96953e-06)
(0 -0 -8.18543e-06)
(0 -0 -8.41475e-06)
(0 -0 -8.65266e-06)
(0 -0 -8.89198e-06)
(0 -0 -9.12307e-06)
(0 -0 -9.33537e-06)
(0 -0 -0.000398212)
(0 -0 -0.000492904)
(0 -0 -0.000954885)
(0 -0 -0.00167793)
(0 -0 -0.00221354)
(0 -0 -0.00218824)
(0 -0 -0.00159876)
(0 -0 -0.000741866)
(0 -0 4.02267e-05)
(0 -0 0.000546666)
(0 -0 0.000750256)
(0 -0 0.0007313)
(0 -0 0.000597105)
(0 -0 0.000432562)
(0 -0 0.000285871)
(0 -0 0.000174902)
(0 -0 9.96146e-05)
(0 -0 5.25073e-05)
(0 -0 2.48656e-05)
(0 -0 9.48605e-06)
(0 -0 1.31164e-06)
(0 -0 -2.85701e-06)
(0 -0 -4.89782e-06)
(0 -0 -5.85105e-06)
(0 -0 -6.26681e-06)
(0 -0 -6.42524e-06)
(0 -0 -6.46465e-06)
(0 -0 -6.45171e-06)
(0 -0 -6.41804e-06)
(0 -0 -6.37863e-06)
(0 -0 -6.3407e-06)
(0 -0 -6.308e-06)
(0 -0 -6.2827e-06)
(0 -0 -6.26627e-06)
(0 -0 -6.25983e-06)
(0 -0 -6.26434e-06)
(0 -0 -6.28068e-06)
(0 -0 -6.30964e-06)
(0 -0 -6.35185e-06)
(0 -0 -6.40738e-06)
(0 -0 -6.47429e-06)
(0 -0 -6.5532e-06)
(0 -0 -6.64617e-06)
(0 -0 -6.75558e-06)
(0 -0 -6.88339e-06)
(0 -0 -7.03084e-06)
(0 -0 -7.1985e-06)
(0 -0 -7.38626e-06)
(0 -0 -7.59334e-06)
(0 -0 -7.81801e-06)
(0 -0 -8.05719e-06)
(0 -0 -8.30586e-06)
(0 -0 -8.55651e-06)
(0 -0 -8.79878e-06)
(0 -0 -9.0204e-06)
(0 -0 -0.000393613)
(0 -0 -0.000485248)
(0 -0 -0.000932154)
(0 -0 -0.00163158)
(0 -0 -0.00214962)
(0 -0 -0.0021249)
(0 -0 -0.00155403)
(0 -0 -0.000724088)
(0 -0 3.37716e-05)
(0 -0 0.000525022)
(0 -0 0.000723159)
(0 -0 0.000705761)
(0 -0 0.000576619)
(0 -0 0.000417894)
(0 -0 0.000276272)
(0 -0 0.000169094)
(0 -0 9.63615e-05)
(0 -0 5.08472e-05)
(0 -0 2.41384e-05)
(0 -0 9.27752e-06)
(0 -0 1.37883e-06)
(0 -0 -2.64908e-06)
(0 -0 -4.62091e-06)
(0 -0 -5.54193e-06)
(0 -0 -5.94376e-06)
(0 -0 -6.09713e-06)
(0 -0 -6.13572e-06)
(0 -0 -6.12402e-06)
(0 -0 -6.09264e-06)
(0 -0 -6.05613e-06)
(0 -0 -6.02157e-06)
(0 -0 -5.99264e-06)
(0 -0 -5.97155e-06)
(0 -0 -5.95976e-06)
(0 -0 -5.95845e-06)
(0 -0 -5.9686e-06)
(0 -0 -5.9911e-06)
(0 -0 -6.02676e-06)
(0 -0 -6.0762e-06)
(0 -0 -6.13895e-06)
(0 -0 -6.2092e-06)
(0 -0 -6.28976e-06)
(0 -0 -6.38493e-06)
(0 -0 -6.49823e-06)
(0 -0 -6.63195e-06)
(0 -0 -6.78729e-06)
(0 -0 -6.9646e-06)
(0 -0 -7.16358e-06)
(0 -0 -7.3833e-06)
(0 -0 -7.62189e-06)
(0 -0 -7.87615e-06)
(0 -0 -8.14089e-06)
(0 -0 -8.40826e-06)
(0 -0 -8.66707e-06)
(0 -0 -8.90319e-06)
(0 -0 -0.00038871)
(0 -0 -0.000477431)
(0 -0 -0.000909989)
(0 -0 -0.00158691)
(0 -0 -0.00208823)
(0 -0 -0.00206404)
(0 -0 -0.00151094)
(0 -0 -0.000706725)
(0 -0 2.79636e-05)
(0 -0 0.000504654)
(0 -0 0.000697515)
(0 -0 0.000681539)
(0 -0 0.000557165)
(0 -0 0.000403952)
(0 -0 0.000267137)
(0 -0 0.000163555)
(0 -0 9.32455e-05)
(0 -0 4.92403e-05)
(0 -0 2.34135e-05)
(0 -0 9.04089e-06)
(0 -0 1.39973e-06)
(0 -0 -2.49887e-06)
(0 -0 -4.40948e-06)
(0 -0 -5.30413e-06)
(0 -0 -5.69687e-06)
(0 -0 -5.8495e-06)
(0 -0 -5.89134e-06)
(0 -0 -5.88479e-06)
(0 -0 -5.85953e-06)
(0 -0 -5.8297e-06)
(0 -0 -5.80226e-06)
(0 -0 -5.78085e-06)
(0 -0 -5.76769e-06)
(0 -0 -5.7643e-06)
(0 -0 -5.77187e-06)
(0 -0 -5.79143e-06)
(0 -0 -5.82388e-06)
(0 -0 -5.87008e-06)
(0 -0 -5.93071e-06)
(0 -0 -6.00493e-06)
(0 -0 -6.07614e-06)
(0 -0 -6.15696e-06)
(0 -0 -6.25596e-06)
(0 -0 -6.37688e-06)
(0 -0 -6.52127e-06)
(0 -0 -6.68954e-06)
(0 -0 -6.88151e-06)
(0 -0 -7.09656e-06)
(0 -0 -7.33363e-06)
(0 -0 -7.5908e-06)
(0 -0 -7.8648e-06)
(0 -0 -8.1503e-06)
(0 -0 -8.43907e-06)
(0 -0 -8.71905e-06)
(0 -0 -8.974e-06)
(0 -0 -0.00038351)
(0 -0 -0.000469437)
(0 -0 -0.000888271)
(0 -0 -0.0015437)
(0 -0 -0.00202908)
(0 -0 -0.0020055)
(0 -0 -0.00146951)
(0 -0 -0.00069002)
(0 -0 2.24192e-05)
(0 -0 0.000485131)
(0 -0 0.000672927)
(0 -0 0.00065831)
(0 -0 0.000538506)
(0 -0 0.000390574)
(0 -0 0.000258366)
(0 -0 0.00015823)
(0 -0 9.0242e-05)
(0 -0 4.76818e-05)
(0 -0 2.26988e-05)
(0 -0 8.7929e-06)
(0 -0 1.39722e-06)
(0 -0 -2.37873e-06)
(0 -0 -4.23196e-06)
(0 -0 -5.10263e-06)
(0 -0 -5.48797e-06)
(0 -0 -5.64123e-06)
(0 -0 -5.68754e-06)
(0 -0 -5.68732e-06)
(0 -0 -5.66936e-06)
(0 -0 -5.64743e-06)
(0 -0 -5.62835e-06)
(0 -0 -5.61575e-06)
(0 -0 -5.61187e-06)
(0 -0 -5.61827e-06)
(0 -0 -5.63619e-06)
(0 -0 -5.6667e-06)
(0 -0 -5.71075e-06)
(0 -0 -5.76922e-06)
(0 -0 -5.84313e-06)
(0 -0 -5.9339e-06)
(0 -0 -6.05669e-06)
(0 -0 -6.13053e-06)
(0 -0 -6.23731e-06)
(0 -0 -6.3728e-06)
(0 -0 -6.53526e-06)
(0 -0 -6.72328e-06)
(0 -0 -6.93593e-06)
(0 -0 -7.17244e-06)
(0 -0 -7.43182e-06)
(0 -0 -7.71229e-06)
(0 -0 -8.01065e-06)
(0 -0 -8.32154e-06)
(0 -0 -8.63631e-06)
(0 -0 -8.94185e-06)
(0 -0 -9.21969e-06)
(0 -0 -0.000378021)
(0 -0 -0.000461255)
(0 -0 -0.000866908)
(0 -0 -0.00150173)
(0 -0 -0.0019719)
(0 -0 -0.00194904)
(0 -0 -0.00142964)
(0 -0 -0.000674033)
(0 -0 1.69466e-05)
(0 -0 0.000466196)
(0 -0 0.00064913)
(0 -0 0.000635848)
(0 -0 0.00052047)
(0 -0 0.000377646)
(0 -0 0.000249891)
(0 -0 0.000153085)
(0 -0 8.73414e-05)
(0 -0 4.61793e-05)
(0 -0 2.20143e-05)
(0 -0 8.5622e-06)
(0 -0 1.40696e-06)
(0 -0 -2.24706e-06)
(0 -0 -4.04131e-06)
(0 -0 -4.88514e-06)
(0 -0 -5.25953e-06)
(0 -0 -5.40947e-06)
(0 -0 -5.45603e-06)
(0 -0 -5.45769e-06)
(0 -0 -5.44238e-06)
(0 -0 -5.4235e-06)
(0 -0 -5.40768e-06)
(0 -0 -5.39857e-06)
(0 -0 -5.39844e-06)
(0 -0 -5.40886e-06)
(0 -0 -5.4311e-06)
(0 -0 -5.46632e-06)
(0 -0 -5.51548e-06)
(0 -0 -5.57947e-06)
(0 -0 -5.66126e-06)
(0 -0 -5.77424e-06)
(0 -0 -5.91615e-06)
(0 -0 -6.10855e-06)
(0 -0 -6.23088e-06)
(0 -0 -6.39384e-06)
(0 -0 -6.58437e-06)
(0 -0 -6.79973e-06)
(0 -0 -7.03894e-06)
(0 -0 -7.30176e-06)
(0 -0 -7.58773e-06)
(0 -0 -7.89555e-06)
(0 -0 -8.22232e-06)
(0 -0 -8.56271e-06)
(0 -0 -8.90769e-06)
(0 -0 -9.24315e-06)
(0 -0 -9.54853e-06)
(0 -0 -0.000372249)
(0 -0 -0.000452878)
(0 -0 -0.000845828)
(0 -0 -0.00146083)
(0 -0 -0.00191643)
(0 -0 -0.00189441)
(0 -0 -0.00139116)
(0 -0 -0.000658695)
(0 -0 1.15147e-05)
(0 -0 0.000447751)
(0 -0 0.000626004)
(0 -0 0.000614036)
(0 -0 0.000502963)
(0 -0 0.000365101)
(0 -0 0.00024167)
(0 -0 0.000148098)
(0 -0 8.45364e-05)
(0 -0 4.47358e-05)
(0 -0 2.13698e-05)
(0 -0 8.36379e-06)
(0 -0 1.44778e-06)
(0 -0 -2.08185e-06)
(0 -0 -3.8126e-06)
(0 -0 -4.62397e-06)
(0 -0 -4.98111e-06)
(0 -0 -5.12093e-06)
(0 -0 -5.16049e-06)
(0 -0 -5.15638e-06)
(0 -0 -5.13562e-06)
(0 -0 -5.1112e-06)
(0 -0 -5.08959e-06)
(0 -0 -5.07436e-06)
(0 -0 -5.06774e-06)
(0 -0 -5.0713e-06)
(0 -0 -5.08634e-06)
(0 -0 -5.11401e-06)
(0 -0 -5.15526e-06)
(0 -0 -5.21107e-06)
(0 -0 -5.28449e-06)
(0 -0 -5.39663e-06)
(0 -0 -5.58026e-06)
(0 -0 -5.80303e-06)
(0 -0 -6.03481e-06)
(0 -0 -6.23424e-06)
(0 -0 -6.45392e-06)
(0 -0 -6.69251e-06)
(0 -0 -6.95169e-06)
(0 -0 -7.23293e-06)
(0 -0 -7.53691e-06)
(0 -0 -7.86311e-06)
(0 -0 -8.20911e-06)
(0 -0 -8.56977e-06)
(0 -0 -8.93583e-06)
(0 -0 -9.29351e-06)
(0 -0 -9.60562e-06)
(0 -0 -5.07302e-06)
(0 -0 -5.27963e-06)
(0 -0 -5.53889e-06)
(0 -0 -5.76769e-06)
(0 -0 -5.99636e-06)
(0 -0 -6.23471e-06)
(0 -0 -6.48886e-06)
(0 -0 -6.76237e-06)
(0 -0 -7.05707e-06)
(0 -0 -7.37305e-06)
(0 -0 -7.7083e-06)
(0 -0 -8.05779e-06)
(0 -0 -8.41261e-06)
(0 -0 -8.75416e-06)
(0 -0 -9.05934e-06)
(0 -0 -9.46425e-06)
(0 -0 -1.70924e-05)
(0 -0 -4.36608e-05)
(0 -0 -7.66124e-05)
(0 -0 -8.96732e-05)
(0 -0 -6.77419e-05)
(0 -0 -1.84624e-05)
(0 -0 3.64957e-05)
(0 -0 7.74348e-05)
(0 -0 9.59774e-05)
(0 -0 9.45439e-05)
(0 -0 8.08428e-05)
(0 -0 6.27131e-05)
(0 -0 4.55176e-05)
(0 -0 3.17924e-05)
(0 -0 2.20284e-05)
(0 -0 1.56558e-05)
(0 -0 1.17737e-05)
(0 -0 9.54198e-06)
(0 -0 8.32318e-06)
(0 -0 7.68946e-06)
(0 -0 7.37723e-06)
(0 -0 7.23426e-06)
(0 -0 7.17697e-06)
(0 -0 7.16128e-06)
(0 -0 7.16469e-06)
(0 -0 7.17601e-06)
(0 -0 7.18984e-06)
(0 -0 7.20366e-06)
(0 -0 7.21634e-06)
(0 -0 7.22738e-06)
(0 -0 7.23652e-06)
(0 -0 7.24356e-06)
(0 -0 7.24828e-06)
(0 -0 7.25041e-06)
(0 -0 7.24966e-06)
(0 -0 7.24575e-06)
(0 -0 7.2384e-06)
(0 -0 7.22738e-06)
(0 -0 7.21249e-06)
(0 -0 7.19354e-06)
(0 -0 7.17038e-06)
(0 -0 7.14283e-06)
(0 -0 7.11073e-06)
(0 -0 7.0739e-06)
(0 -0 7.03217e-06)
(0 -0 6.98536e-06)
(0 -0 6.93329e-06)
(0 -0 6.87579e-06)
(0 -0 6.81271e-06)
(0 -0 6.74389e-06)
(0 -0 6.66915e-06)
(0 -0 6.58828e-06)
(0 -0 6.50099e-06)
(0 -0 6.40684e-06)
(0 -0 -2.83998e-05)
(0 -0 -5.02348e-05)
(0 -0 -0.000128158)
(0 -0 -0.000227464)
(0 -0 -0.000271167)
(0 -0 -0.000213146)
(0 -0 -7.36172e-05)
(0 -0 8.53899e-05)
(0 -0 0.000206313)
(0 -0 0.000263635)
(0 -0 0.000263161)
(0 -0 0.000226528)
(0 -0 0.000176234)
(0 -0 0.000127886)
(0 -0 8.90111e-05)
(0 -0 6.12227e-05)
(0 -0 4.30233e-05)
(0 -0 3.19067e-05)
(0 -0 2.55013e-05)
(0 -0 2.19955e-05)
(0 -0 2.01681e-05)
(0 -0 1.92644e-05)
(0 -0 1.88475e-05)
(0 -0 1.86772e-05)
(0 -0 1.86267e-05)
(0 -0 1.86313e-05)
(0 -0 1.86589e-05)
(0 -0 1.86939e-05)
(0 -0 1.87292e-05)
(0 -0 1.87614e-05)
(0 -0 1.87891e-05)
(0 -0 1.88116e-05)
(0 -0 1.88283e-05)
(0 -0 1.88385e-05)
(0 -0 1.88415e-05)
(0 -0 1.88367e-05)
(0 -0 1.88232e-05)
(0 -0 1.88004e-05)
(0 -0 1.87677e-05)
(0 -0 1.87245e-05)
(0 -0 1.86703e-05)
(0 -0 1.86048e-05)
(0 -0 1.85274e-05)
(0 -0 1.84378e-05)
(0 -0 1.83354e-05)
(0 -0 1.82198e-05)
(0 -0 1.80905e-05)
(0 -0 1.7947e-05)
(0 -0 1.77889e-05)
(0 -0 1.76159e-05)
(0 -0 1.74275e-05)
(0 -0 1.72233e-05)
(0 -0 1.70029e-05)
(0 -0 1.67656e-05)
(0 -0 1.65103e-05)
(0 -0 -4.6832e-05)
(0 -0 -8.05437e-05)
(0 -0 -0.00020552)
(0 -0 -0.000370931)
(0 -0 -0.000453938)