/*--------------------------------*- C++ -*----------------------------------*\
| =========                 |                                                 |
| \\      /  F ield         | OpenFOAM: The Open Source CFD Toolbox           |
|  \\    /   O peration     | Version:  2412                                  |
|   \\  /    A nd           | Website:  www.openfoam.com                      |
|    \\/     M anipulation  |                                                 |
\*---------------------------------------------------------------------------*/
FoamFile
{
    version     2.0;
    format      ascii;
    arch        "LSB;label=32;scalar=64";
    class       surfaceScalarField;
    location    "10.5";
    object      phi;
}
// * * * * * * * * * * * * * * * * * * * * * * * * * * * * * * * * * * * * * //

dimensions      [0 3 -1 0 0 0 0];

oriented        oriented;

internalField   nonuniform List<scalar> 
10424
(
0.00505063
1.25168e-07
5.45537e-11
0.0050503
3.33289e-07
1.71614e-10
0.00504958
7.19136e-07
3.12708e-11
0.00504803
1.55003e-06
-7.0125e-10
0.00504525
2.77777e-06
-1.96289e-09
0.00504124
4.02129e-06
-3.21134e-09
0.00503638
4.85553e-06
-3.80093e-09
0.0050313
5.08338e-06
-3.39975e-09
0.00502652
4.78712e-06
-2.11359e-09
0.00502231
4.20572e-06
-3.30304e-10
0.00501873
3.58243e-06
1.51904e-09
0.00501565
3.07575e-06
3.12267e-09
0.0050129
2.7457e-06
4.33523e-09
0.00501031
2.58287e-06
5.14644e-09
0.00500776
2.54588e-06
5.62375e-09
0.00500517
2.58886e-06
5.86073e-09
0.00500249
2.67498e-06
5.94441e-09
0.0049997
2.77995e-06
5.94121e-09
0.0049968
2.89019e-06
5.89538e-09
0.0049938
2.99952e-06
5.83247e-09
0.00499069
3.10609e-06
5.76444e-09
0.00498747
3.21019e-06
5.6949e-09
0.00498415
3.31296e-06
5.62356e-09
0.00498073
3.41571e-06
5.54895e-09
0.00497721
3.5196e-06
5.46932e-09
0.00497358
3.62556e-06
5.38302e-09
0.00496984
3.73429e-06
5.28896e-09
0.00496598
3.84631e-06
5.18684e-09
0.00496202
3.96197e-06
5.07693e-09
0.00495793
4.08154e-06
4.95964e-09
0.00495372
4.20518e-06
4.83523e-09
0.00494938
4.33303e-06
4.70372e-09
0.00494491
4.46518e-06
4.56502e-09
0.00494031
4.6017e-06
4.41904e-09
0.00493556
4.74265e-06
4.26582e-09
0.00493067
4.88808e-06
4.10574e-09
0.00492563
5.03804e-06
3.93934e-09
0.00492043
5.19257e-06
3.76727e-09
0.00491507
5.35172e-06
3.59024e-09
0.00490956
5.51556e-06
3.40891e-09
0.00490387
5.68413e-06
3.22385e-09
0.00489801
5.8575e-06
3.03563e-09
0.00489197
6.03576e-06
2.84466e-09
0.00488575
6.21897e-06
2.6513e-09
0.00487934
6.40725e-06
2.45599e-09
0.00487273
6.60069e-06
2.25914e-09
0.00486593
6.79942e-06
2.06112e-09
0.00485893
7.00358e-06
1.86248e-09
0.00485171
7.21333e-06
1.66371e-09
0.00484428
7.42888e-06
1.46524e-09
0.00483663
7.65048e-06
1.26757e-09
0.00482875
7.87854e-06
1.07116e-09
0.00482064
8.11392e-06
8.76553e-10
0.00481228
8.35886e-06
6.84499e-10
8.61952e-06
0.00480366
4.95646e-10
0.00505063
2.50514e-07
0.0050503
6.6728e-07
0.00504958
1.43465e-06
0.00504805
3.08389e-06
0.0050453
5.52273e-06
0.00504133
7.99798e-06
0.00503652
9.66597e-06
0.00503147
1.01326e-05
0.0050267
9.55748e-06
0.00502249
8.41239e-06
0.00501889
7.17945e-06
0.00501579
6.17406e-06
0.00501302
5.51675e-06
0.00501042
5.19022e-06
0.00500785
5.1134e-06
0.00500524
5.19576e-06
0.00500255
5.36449e-06
0.00499976
5.57137e-06
0.00499686
5.78936e-06
0.00499386
6.00607e-06
0.00499074
6.2177e-06
0.00498753
6.42474e-06
0.00498421
6.62938e-06
0.00498079
6.83414e-06
0.00497727
7.04128e-06
0.00497365
7.25265e-06
0.00496991
7.4696e-06
0.00496606
7.69313e-06
0.0049621
7.92396e-06
0.00495802
8.16259e-06
0.00495382
8.40937e-06
0.00494948
8.66454e-06
0.00494502
8.92828e-06
0.00494042
9.20074e-06
0.00493568
9.48202e-06
0.0049308
9.77223e-06
0.00492577
1.00715e-05
0.00492058
1.03798e-05
0.00491523
1.06973e-05
0.00490972
1.10242e-05
0.00490405
1.13605e-05
0.0048982
1.17063e-05
0.00489217
1.20618e-05
0.00488596
1.24272e-05
0.00487957
1.28027e-05
0.00487298
1.31884e-05
0.0048662
1.35847e-05
0.00485921
1.39916e-05
0.00485201
1.44097e-05
0.0048446
1.48393e-05
0.00483697
1.52808e-05
0.00482911
1.57351e-05
0.00482102
1.62038e-05
0.00481269
1.66912e-05
1.72091e-05
0.0048041
0.00505063
3.76098e-07
0.0050503
1.00229e-06
0.00504959
2.14302e-06
0.00504808
4.58756e-06
0.0050454
8.20754e-06
0.0050415
1.18939e-05
0.00503677
1.43958e-05
0.00503178
1.51217e-05
0.00502704
1.42991e-05
0.00502283
1.26213e-05
0.00501921
1.08017e-05
0.00501608
9.31006e-06
0.00501326
8.32862e-06
0.00501062
7.8352e-06
0.00500802
7.71205e-06
0.00500539
7.82637e-06
0.00500268
8.07068e-06
0.00499988
8.37348e-06
0.00499698
8.69444e-06
0.00499397
9.01484e-06
0.00499086
9.32873e-06
0.00498764
9.63657e-06
0.00498433
9.94141e-06
0.00498092
1.02469e-05
0.00497741
1.05562e-05
0.00497379
1.0872e-05
0.00497006
1.11963e-05
0.00496622
1.15306e-05
0.00496227
1.18758e-05
0.0049582
1.22328e-05
0.00495401
1.26019e-05
0.00494969
1.29836e-05
0.00494524
1.33781e-05
0.00494065
1.37856e-05
0.00493593
1.42063e-05
0.00493106
1.46403e-05
0.00492604
1.50878e-05
0.00492088
1.55488e-05
0.00491555
1.60236e-05
0.00491006
1.65122e-05
0.00490441
1.70148e-05
0.00489858
1.75317e-05
0.00489258
1.8063e-05
0.0048864
1.86089e-05
0.00488003
1.91698e-05
0.00487347
1.97459e-05
0.00486672
2.03375e-05
0.00485977
2.09451e-05
0.00485261
2.15691e-05
0.00484524
2.221e-05
0.00483765
2.28686e-05
0.00482984
2.35459e-05
0.0048218
2.42443e-05
0.00481352
2.49696e-05
2.57381e-05
0.00480499
0.00505063
5.02009e-07
0.00505029
1.33873e-06
0.0050496
2.84116e-06
0.00504814
6.04799e-06
0.00504554
1.08061e-05
0.00504176
1.56739e-05
0.00503714
1.90097e-05
0.00503224
2.0024e-05
0.00502754
1.89987e-05
0.00502333
1.68328e-05
0.00501967
1.44598e-05
0.00501648
1.24998e-05
0.00501361
1.11988e-05
0.00501091
1.0534e-05
0.00500827
1.03553e-05
0.00500561
1.04909e-05
0.00500288
1.08007e-05
0.00500006
1.11908e-05
0.00499715
1.16078e-05
0.00499413
1.20265e-05
0.00499102
1.24386e-05
0.00498782
1.28441e-05
0.00498451
1.32468e-05
0.00498111
1.3651e-05
0.0049776
1.40609e-05
0.00497399
1.44798e-05
0.00497028
1.49103e-05
0.00496646
1.53541e-05
0.00496252
1.58126e-05
0.00495847
1.62867e-05
0.00495429
1.6777e-05
0.00494999
1.72841e-05
0.00494556
1.78081e-05
0.004941
1.83494e-05
0.0049363
1.89081e-05
0.00493145
1.94845e-05
0.00492646
2.00786e-05
0.00492132
2.06907e-05
0.00491602
2.13209e-05
0.00491056
2.19694e-05
0.00490494
2.26364e-05
0.00489915
2.33221e-05
0.00489319
2.40268e-05
0.00488705
2.47508e-05
0.00488072
2.54944e-05
0.00487421
2.62581e-05
0.0048675
2.70421e-05
0.0048606
2.7847e-05
0.0048535
2.86733e-05
0.00484619
2.95217e-05
0.00483866
3.0393e-05
0.00483092
3.12886e-05
0.00482295
3.22112e-05
0.00481476
3.31675e-05
3.41772e-05
0.00480632
0.00505063
6.28304e-07
0.00505029
1.67687e-06
0.00504961
3.52646e-06
0.0050482
7.45432e-06
0.00504571
1.32966e-05
0.00504208
1.93084e-05
0.00503761
2.34777e-05
0.00503282
2.48166e-05
0.00502817
2.36448e-05
0.00502396
2.10465e-05
0.00502025
1.81615e-05
0.005017
1.5756e-05
0.00501406
1.41414e-05
0.00501129
1.32997e-05
0.00500859
1.3054e-05
0.00500588
1.31976e-05
0.00500312
1.35602e-05
0.00500029
1.40268e-05
0.00499737
1.45312e-05
0.00499435
1.50414e-05
0.00499124
1.55465e-05
0.00498804
1.60457e-05
0.00498474
1.6543e-05
0.00498135
1.70435e-05
0.00497786
1.75519e-05
0.00497427
1.80721e-05
0.00497057
1.86071e-05
0.00496677
1.91589e-05
0.00496285
1.97292e-05
0.00495882
2.0319e-05
0.00495467
2.0929e-05
0.00495039
2.15598e-05
0.00494599
2.22117e-05
0.00494145
2.2885e-05
0.00493678
2.358e-05
0.00493197
2.42968e-05
0.00492701
2.50355e-05
0.0049219
2.57965e-05
0.00491665
2.65798e-05
0.00491123
2.73856e-05
0.00490565
2.82143e-05
0.00489991
2.90661e-05
0.00489399
2.99412e-05
0.0048879
3.08401e-05
0.00488163
3.1763e-05
0.00487518
3.27104e-05
0.00486854
3.36827e-05
0.00486171
3.46806e-05
0.00485468
3.57045e-05
0.00484744
3.67553e-05
0.00484
3.78338e-05
0.00483235
3.89415e-05
0.00482448
4.00811e-05
0.00481639
4.12598e-05
4.24976e-05
0.00480807
0.00505063
7.54999e-07
0.00505029
2.01687e-06
0.00504962
4.19699e-06
0.00504828
8.79852e-06
0.00504591
1.56628e-05
0.00504244
2.27751e-05
0.00503814
2.77768e-05
0.00503348
2.94814e-05
0.0050289
2.82271e-05
0.00502468
2.52607e-05
0.00502093
2.19121e-05
0.0050176
1.90875e-05
0.00501457
1.71667e-05
0.00501173
1.6142e-05
0.00500897
1.58162e-05
0.00500622
1.59524e-05
0.00500342
1.63533e-05
0.00500057
1.68838e-05
0.00499763
1.74653e-05
0.00499461
1.80593e-05
0.00499151
1.86512e-05
0.00498832
1.92394e-05
0.00498503
1.98277e-05
0.00498165
2.04214e-05
0.00497818
2.10259e-05
0.00497461
2.16451e-05
0.00497093
2.22826e-05
0.00496715
2.29406e-05
0.00496326
2.36208e-05
0.00495925
2.43244e-05
0.00495513
2.50522e-05
0.00495088
2.58048e-05
0.00494651
2.65826e-05
0.00494201
2.73858e-05
0.00493738
2.82147e-05
0.0049326
2.90695e-05
0.00492769
2.99503e-05
0.00492263
3.08574e-05
0.00491742
3.1791e-05
0.00491205
3.27512e-05
0.00490653
3.37383e-05
0.00490084
3.47526e-05
0.00489499
3.57944e-05
0.00488896
3.6864e-05
0.00488277
3.79619e-05
0.00487639
3.90885e-05
0.00486983
4.02443e-05
0.00486308
4.14298e-05
0.00485614
4.26456e-05
0.004849
4.38926e-05
0.00484166
4.51715e-05
0.00483412
4.64838e-05
0.00482637
4.78319e-05
0.00481841
4.9222e-05
5.06725e-05
0.00481023
0.00505063
8.82035e-07
0.00505029
2.3587e-06
0.00504963
4.85157e-06
0.00504836
1.00757e-05
0.00504612
1.78946e-05
0.00504284
2.60596e-05
0.00503873
3.18917e-05
0.0050342
3.40055e-05
0.00502969
3.27379e-05
0.00502548
2.94729e-05
0.00502168
2.57131e-05
0.00501827
2.24989e-05
0.00501515
2.02801e-05
0.00501223
1.90663e-05
0.0050094
1.86464e-05
0.00500659
1.87589e-05
0.00500376
1.91821e-05
0.00500088
1.97628e-05
0.00499794
2.04103e-05
0.00499492
2.1079e-05
0.00499182
2.1751e-05
0.00498864
2.24229e-05
0.00498537
2.30979e-05
0.00498201
2.37816e-05
0.00497855
2.44791e-05
0.004975
2.51949e-05
0.00497135
2.59325e-05
0.0049676
2.66944e-05
0.00496374
2.74824e-05
0.00495976
2.82977e-05
0.00495567
2.9141e-05
0.00495147
3.00131e-05
0.00494713
3.09143e-05
0.00494268
3.18449e-05
0.00493809
3.28051e-05
0.00493336
3.37951e-05
0.00492849
3.4815e-05
0.00492349
3.5865e-05
0.00491833
3.69454e-05
0.00491303
3.80563e-05
0.00490757
3.91979e-05
0.00490195
4.03706e-05
0.00489617
4.15747e-05
0.00489022
4.28104e-05
0.00488411
4.40783e-05
0.00487782
4.53786e-05
0.00487135
4.6712e-05
0.0048647
4.8079e-05
0.00485787
4.94801e-05
0.00485084
5.09161e-05
0.00484363
5.23877e-05
0.00483621
5.3896e-05
0.0048286
5.54428e-05
0.00482079
5.70322e-05
0.00481279
5.86743e-05
0.0048051
-1.44164e-06
3.10847e-10
0.00480603
-9.31375e-07
1.27408e-10
0.00480641
-3.8512e-07
-6.1081e-11
0.00480621
2.01294e-07
-2.49849e-10
0.00480539
8.22426e-07
-4.43793e-10
0.0048039
1.48948e-06
-6.34222e-10
0.0048017
2.20138e-06
-8.1931e-10
0.00479874
2.96013e-06
-9.9682e-10
0.00479498
3.76758e-06
-1.16411e-09
0.00479035
4.62565e-06
-1.31861e-09
0.00478482
5.53665e-06
-1.45807e-09
0.00477831
6.50377e-06
-1.58032e-09
0.00477078
7.53156e-06
-1.68355e-09
0.00476216
8.6266e-06
-1.76166e-09
0.00475236
9.79803e-06
-1.82643e-09
1.10581e-05
-1.82947e-09
0.00480418
-1.51447e-06
0.00480374
-4.95066e-07
0.00480276
5.95816e-07
0.0048012
1.75935e-06
0.00479902
3.00435e-06
0.00479617
4.33522e-06
0.00479262
5.756e-06
0.00478831
7.27055e-06
0.00478319
8.88265e-06
0.00477722
1.05963e-05
0.00477034
1.24162e-05
0.0047625
1.4349e-05
0.00475362
1.64039e-05
0.00474366
1.85942e-05
0.00473252
2.09384e-05
2.34608e-05
0.00480234
1.13342e-06
0.00479919
2.65588e-06
0.0047955
4.28405e-06
0.00479124
6.02469e-06
0.00478636
7.88613e-06
0.00478082
9.87549e-06
0.00477457
1.19995e-05
0.00476758
1.42642e-05
0.00475979
1.66755e-05
0.00475114
1.92398e-05
0.0047416
2.19645e-05
0.00473108
2.48599e-05
0.00471955
2.79402e-05
0.00470692
3.12258e-05
0.00469311
3.47446e-05
3.85336e-05
0.00479963
7.816e-06
0.00479245
9.83512e-06
0.00478474
1.1994e-05
0.00477647
1.43028e-05
0.00476758
1.67718e-05
0.00475805
1.94107e-05
0.00474782
2.22288e-05
0.00473685
2.52347e-05
0.00472508
2.84367e-05
0.00471248
3.18436e-05
0.00469898
3.54662e-05
0.00468452
3.93186e-05
0.00466904
4.34206e-05
0.00465247
4.78e-05
0.00463472
5.24946e-05
5.75539e-05
0.00479608
1.97985e-05
0.00478362
2.23035e-05
0.00477063
2.49818e-05
0.00475708
2.78463e-05
0.00474295
3.09103e-05
0.00472817
3.41861e-05
0.00471271
3.76856e-05
0.00469653
4.142e-05
0.00467957
4.54003e-05
0.00466177
4.96384e-05
0.00464309
5.41482e-05
0.00462346
5.89487e-05
0.00460281
6.40655e-05
0.00458108
6.95342e-05
0.00455817
7.54029e-05
8.17342e-05
0.00479175
3.82761e-05
0.00477281
4.12502e-05
0.00475336
4.44313e-05
0.00473337
4.78351e-05
0.0047128
5.14774e-05
0.00469161
5.53736e-05
0.00466976
5.95379e-05
0.0046472
6.39844e-05
0.00462387
6.87268e-05
0.00459973
7.37802e-05
0.00457471
7.91628e-05
0.00454876
8.4898e-05
0.00452181
9.10183e-05
0.00449378
9.75675e-05
0.00446458
0.000104604
0.000112205
0.00478672
6.43509e-05
0.0047602
6.77698e-05
0.0047332
7.14318e-05
0.00470568
7.53535e-05
0.0046776
7.95529e-05
0.00464893
8.40479e-05
0.00461961
8.88552e-05
0.0045896
9.39915e-05
0.00455886
9.94736e-05
0.00452732
0.00010532
0.00449493
0.000111553
0.00446162
0.000118201
0.00442734
0.000125304
0.00439199
0.000132915
0.00435549
0.000141103
0.000149958
0.00503771
7.32793e-05
-0.00504664
0.00502837
7.71154e-05
0.00501858
8.12233e-05
0.00500831
8.56223e-05
0.00499753
9.03319e-05
0.00498621
9.53717e-05
0.0049743
0.000100761
0.00496177
0.000106518
0.00494858
0.000112663
0.00493469
0.000119218
0.00492003
0.000126208
0.00490457
0.000133665
0.00488824
0.000141632
0.00487099
0.000150167
0.00485275
0.000159344
0.000169257
0.00504154
8.19839e-05
-0.00505024
0.00503243
8.62231e-05
0.00502289
9.0759e-05
0.0050129
9.56131e-05
0.00500243
0.000100807
0.00499144
0.000106363
0.00497989
0.000112302
0.00496777
0.000118646
0.00495501
0.000125417
0.00494159
0.00013264
0.00492746
0.000140343
0.00491256
0.000148562
0.00489685
0.000157343
0.00488027
0.000166748
0.00486276
0.000176853
0.000187758
0.00504579
9.04272e-05
-0.00505423
0.00503696
9.50513e-05
0.00502773
9.99939e-05
0.00501806
0.000105278
0.00500794
0.000110929
0.00499733
0.000116969
0.00498621
0.000123423
0.00497454
0.000130315
0.00496229
0.00013767
0.00494942
0.000145514
0.00493588
0.000153881
0.00492163
0.000162809
0.00490663
0.000172347
0.00489082
0.000182558
0.00487415
0.000193524
0.000205344
0.00505044
9.85812e-05
-0.00505859
0.00504192
0.000103568
0.00503302
0.000108893
0.00502372
0.000114581
0.00501399
0.000120657
0.00500382
0.000127147
0.00499316
0.000134078
0.004982
0.000141476
0.0049703
0.000149368
0.00495803
0.000157785
0.00494515
0.000166761
0.00493162
0.000176338
0.0049174
0.000186568
0.00490244
0.000197517
0.0048867
0.000209265
0.000221916
0.00505545
0.000106424
-0.00506329
0.00504727
0.000111749
0.00503873
0.000117429
0.00502982
0.00012349
0.00502052
0.000129959
0.00501081
0.000136862
0.00500066
0.00014423
0.00499004
0.000152089
0.00497894
0.00016047
0.00496732
0.000169406
0.00495515
0.000178933
0.00494239
0.000189097
0.00492901
0.00019995
0.00491496
0.000211559
0.00490022
0.000224008
0.000237397
0.0050608
0.000113938
-0.00506831
0.00505297
0.000119575
0.00504482
0.000125581
0.00503633
0.000131983
0.00502747
0.00013881
0.00501825
0.000146089
0.00500863
0.000153851
0.00499859
0.000162125
0.00498812
0.000170944
0.00497718
0.000180344
0.00496575
0.000190362
0.0049538
0.000201044
0.0049413
0.000212447
0.00492822
0.000224638
0.00491453
0.000237699
0.000251729
0.00506645
0.000121108
-0.00507362
0.00505899
0.000127029
0.00505124
0.000133332
0.00504318
0.000140043
0.0050348
0.000147191
0.00502608
0.000154807
0.00501701
0.00016292
0.00500757
0.000171563
0.00499775
0.000180769
0.00498752
0.000190575
0.00497686
0.000201021
0.00496575
0.000212155
0.00495416
0.000224033
0.00494208
0.000236723
0.00492947
0.000250305
0.000264876
0.00507237
0.000127923
-0.00507919
0.0050653
0.0001341
0.00505796
0.000140669
0.00505035
0.000147656
0.00504245
0.00015509
0.00503426
0.000163002
0.00502575
0.000171424
0.00501693
0.000180388
0.00500777
0.000189928
0.00499826
0.000200084
0.00498839
0.000210895
0.00497813
0.000222412
0.00496747
0.00023469
0.0049564
0.000247795
0.0049449
0.000261807
0.00027682
0.00507855
0.000134372
-0.005085
0.00507187
0.000140778
0.00506496
0.000147582
0.0050578
0.000154812
0.00505039
0.000162496
0.00504273
0.000170666
0.0050348
0.000179354
0.0050266
0.000188591
0.00501811
0.000198415
0.00500933
0.000208864
0.00500025
0.000219979
0.00499085
0.00023181
0.00498113
0.000244412
0.00497107
0.000257851
0.00496068
0.000272202
0.000287557
0.00508495
0.000140449
-0.00509102
0.00507867
0.000147056
0.00507218
0.000154066
0.00506549
0.000161505
0.00505858
0.000169405
0.00505146
0.000177794
0.0050441
0.000186704
0.00503653
0.00019617
0.00502871
0.000206227
0.00502066
0.000216913
0.00501237
0.000228272
0.00500383
0.00024035
0.00499504
0.000253204
0.00498599
0.000266895
0.0049767
0.000281498
0.000297097
0.00509154
0.000146149
-0.00509724
0.00508567
0.00015293
0.00507962
0.000160115
0.00507339
0.000167733
0.00506698
0.000175813
0.00506039
0.000184383
0.00505362
0.000193476
0.00504666
0.000203126
0.00503952
0.000213367
0.0050322
0.000224238
0.00502469
0.000235781
0.005017
0.000248043
0.00500913
0.000261077
0.00500108
0.000274944
0.00499286
0.000289713
0.000305465
0.0050983
0.00015147
-0.00510363
0.00509284
0.000158397
0.00508722
0.00016573
0.00508146
0.000173495
0.00507555
0.000181721
0.0050695
0.000190436
0.0050633
0.000199673
0.00505697
0.000209462
0.00505049
0.000219841
0.00504388
0.000230845
0.00503715
0.000242517
0.00503029
0.000254901
0.00502332
0.000268049
0.00501624
0.000282019
0.00500908
0.000296875
0.000312692
0.00510521
0.00015641
-0.00511015
0.00510015
0.000163458
0.00509497
0.00017091
0.00508968
0.000178792
0.00508426
0.000187132
0.00507874
0.000195957
0.00507312
0.000205299
0.00506739
0.000215188
0.00506157
0.00022566
0.00505567
0.000236749
0.00504969
0.000248497
0.00504364
0.000260946
0.00503755
0.000274145
0.00503142
0.000288148
0.00502528
0.000303016
0.000318817
0.00511224
0.000160971
-0.0051168
0.00510759
0.000168115
0.00510284
0.000175659
0.005098
0.000183629
0.00509308
0.000192051
0.00508808
0.000200953
0.00508302
0.000210364
0.00507789
0.000220315
0.00507272
0.000230837
0.0050675
0.000241966
0.00506226
0.00025374
0.005057
0.000266199
0.00505176
0.00027939
0.00504654
0.000293363
0.00504138
0.000308175
0.000323886
0.00511937
0.000165156
-0.00512355
0.00511511
0.00017237
0.00511079
0.000179981
0.00510641
0.000188011
0.00510197
0.000196487
0.00509749
0.000205434
0.00509298
0.00021488
0.00508844
0.000224854
0.00508389
0.000235388
0.00507934
0.000246514
0.00507481
0.000258268
0.00507032
0.000270688
0.00506589
0.000283818
0.00506155
0.000297703
0.00505733
0.000312394
0.000327949
0.00512656
0.000168967
-0.00513037
0.0051227
0.00017623
0.0051188
0.000183882
0.00511486
0.000191946
0.0051109
0.000200447
0.00510693
0.000209409
0.00510295
0.000218858
0.00509898
0.000228822
0.00509504
0.00023933
0.00509114
0.000250414
0.0050873
0.000262105
0.00508355
0.000274441
0.00507991
0.00028746
0.00507641
0.000301204
0.00507308
0.00031572
0.000331058
0.0051338
0.000172411
-0.00513725
0.00513033
0.0001797
0.00512684
0.00018737
0.00512335
0.000195444
0.00511985
0.000203943
0.00511637
0.000212891
0.00511291
0.000222314
0.0051095
0.000232236
0.00510614
0.000242685
0.00510287
0.000253689
0.00509969
0.000265279
0.00509665
0.000277489
0.00509375
0.000290352
0.00509105
0.000303909
0.00508857
0.000318199
0.000333268
0.00514107
0.000175496
-0.00514416
0.00513798
0.000182789
0.0051349
0.000190456
0.00513183
0.000198515
0.00512878
0.000206987
0.00512578
0.000215896
0.00512283
0.000225264
0.00511995
0.000235114
0.00511716
0.000245472
0.00511449
0.000256364
0.00511195
0.000267818
0.00510957
0.000279864
0.00510739
0.000292533
0.00510544
0.000305859
0.00510376
0.00031988
0.000334633
0.00514835
0.000178227
-0.00515108
0.00514563
0.000185506
0.00514294
0.000193148
0.00514028
0.00020117
0.00513767
0.000209594
0.00513513
0.000218439
0.00513267
0.000227726
0.00513031
0.000237477
0.00512806
0.000247716
0.00512596
0.000258466
0.00512403
0.000269751
0.00512229
0.0002816
0.00512078
0.000294039
0.00511954
0.000307099
0.00511861
0.000320812
0.000335211
0.00515561
0.000180616
-0.00515799
0.00515325
0.000187862
0.00515094
0.000195459
0.00514868
0.000203425
0.0051465
0.000211778
0.0051444
0.000220536
0.00514241
0.000229719
0.00514054
0.000239347
0.00513882
0.00024944
0.00513726
0.00026002
0.0051359
0.00027111
0.00513477
0.000282731
0.0051339
0.00029491
0.00513333
0.000307673
0.00513309
0.000321045
0.000335057
0.00516283
0.000182671
-0.00516489
0.00516083
0.000189867
0.00515888
0.000197401
0.00515702
0.000205292
0.00515524
0.000213554
0.00515357
0.000222205
0.00515203
0.000231263
0.00515063
0.000240745
0.0051494
0.00025067
0.00514836
0.000261057
0.00514755
0.000271925
0.00514699
0.000283294
0.00514671
0.000295186
0.00514676
0.000307624
0.00514718
0.000320629
0.000334225
0.00517001
0.000184403
-0.00517174
0.00516834
0.000191533
0.00516675
0.000198989
0.00516526
0.000206786
0.00516387
0.00021494
0.00516261
0.000223466
0.0051615
0.000232379
0.00516055
0.000241695
0.00515979
0.000251431
0.00515924
0.000261603
0.00515894
0.000272228
0.00515891
0.000283323
0.00515919
0.000294906
0.00515982
0.000306996
0.00516083
0.000319612
0.000332772
0.00517712
0.000185824
-0.00517854
0.00517578
0.000192873
0.00517453
0.000200235
0.00517339
0.000207924
0.00517238
0.000215953
0.00517151
0.000224336
0.0051708
0.000233087
0.00517028
0.00024222
0.00516996
0.000251749
0.00516987
0.000261688
0.00517005
0.000272052
0.00517052
0.000282854
0.00517131
0.00029411
0.00517248
0.000305834
0.00517405
0.000318042
0.000330749
0.00518415
0.000186946
-0.00518527
0.00518312
0.0001939
0.0051822
0.000201154
0.0051814
0.00020872
0.00518074
0.00021661
0.00518024
0.000224836
0.00517992
0.000233411
0.0051798
0.000242345
0.00517989
0.000251651
0.00518024
0.000261342
0.00518086
0.000271428
0.0051818
0.000281922
0.00518307
0.000292835
0.00518473
0.00030418
0.0051868
0.000315967
0.000328208
0.00519108
0.000187781
-0.00519191
0.00519035
0.000194629
0.00518974
0.000201763
0.00518927
0.000209193
0.00518895
0.000216931
0.0051888
0.000224987
0.00518884
0.00023337
0.00518909
0.000242093
0.00518958
0.000251163
0.00519033
0.000260592
0.00519137
0.000270388
0.00519273
0.000280561
0.00519445
0.000291121
0.00519655
0.000302075
0.00519909
0.000313431
0.000325199
0.00519791
0.000188341
-0.00519847
0.00519747
0.000195071
0.00519715
0.000202074
0.00519699
0.000209358
0.00519699
0.000216933
0.00519717
0.000224806
0.00519755
0.000232989
0.00519815
0.000241488
0.00519901
0.000250311
0.00520013
0.000259468
0.00520155
0.000268964
0.00520331
0.000278807
0.00520543
0.000289003
0.00520794
0.000299559
0.00521089
0.000310479
0.000321768
0.00520462
0.000188639
-0.00520492
0.00520445
0.000195243
0.00520442
0.000202105
0.00520454
0.000209232
0.00520484
0.000216634
0.00520533
0.000224316
0.00520603
0.000232287
0.00520697
0.000240553
0.00520816
0.000249121
0.00520963
0.000257997
0.00521141
0.000267185
0.00521352
0.000276691
0.00521601
0.000286518
0.00521889
0.000296671
0.00522222
0.000307152
0.000317962
0.0052112
0.000188689
-0.00521125
0.00521129
0.000195158
0.00521152
0.00020187
0.00521192
0.000208833
0.00521251
0.000216053
0.00521329
0.000223535
0.00521429
0.000231287
0.00521553
0.000239314
0.00521703
0.000247619
0.00521882
0.000256207
0.00522092
0.000265082
0.00522337
0.000274246
0.00522618
0.000283701
0.00522941
0.000293449
0.00523307
0.00030349
0.000313822
0.00521765
0.000188504
-0.00521747
0.00521798
0.00019483
0.00521847
0.000201385
0.00521912
0.000208176
0.00521997
0.000215207
0.00522102
0.000222484
0.0052223
0.000230011
0.00522382
0.000237791
0.00522561
0.000245828
0.00522769
0.000254125
0.00523009
0.000262682
0.00523284
0.000271502
0.00523595
0.000280584
0.00523948
0.000289927
0.00524344
0.00029953
0.00030939
0.00522396
-0.00522355
0.00522452
0.00522524
0.00522614
0.00522723
0.00522853
0.00523006
0.00523185
0.0052339
0.00523625
0.00523892
0.00524193
0.00524532
0.00524911
0.00525333
0.00529276
1.01531e-06
0.0052924
2.71864e-06
0.00529173
5.52021e-06
0.00529047
1.13402e-05
0.00528828
2.00852e-05
0.00528504
2.92997e-05
0.00528093
3.59982e-05
0.00527635
3.85877e-05
0.0052717
3.73818e-05
0.0052673
3.38807e-05
0.00526326
2.97487e-05
0.0052596
2.61592e-05
0.00525624
2.36382e-05
0.00525309
2.222e-05
0.00525005
2.16865e-05
0.00524705
2.17558e-05
0.00524405
2.21848e-05
0.00524101
2.28028e-05
0.00523791
2.35068e-05
0.00523475
2.4244e-05
0.00523151
2.4992e-05
0.00522818
2.57454e-05
0.00522478
2.65065e-05
0.00522128
2.72803e-05
0.00521768
2.80719e-05
0.00521399
2.88858e-05
0.0052102
2.97256e-05
0.0052063
3.05937e-05
0.00520229
3.14919e-05
0.00519817
3.24214e-05
0.00519393
3.33832e-05
0.00518956
3.43776e-05
0.00518507
3.54052e-05
0.00518045
3.64661e-05
0.00517569
3.75606e-05
0.0051708
3.86887e-05
0.00516576
3.98506e-05
0.00516058
4.10465e-05
0.00515525
4.22765e-05
0.00514977
4.35408e-05
0.00514413
4.48397e-05
0.00513832
4.61733e-05
0.00513236
4.75419e-05
0.00512622
4.89459e-05
0.00511991
5.03857e-05
0.00511343
5.18616e-05
0.00510677
5.33741e-05
0.00509992
5.49236e-05
0.00509289
5.65109e-05
0.00508567
5.81363e-05
0.00507826
5.98005e-05
0.00507065
6.15045e-05
0.00506284
6.32492e-05
0.00505484
6.50368e-05
6.68711e-05
0.00529276
1.14867e-06
0.0052924
3.08005e-06
0.00529175
6.17116e-06
0.00529056
1.25312e-05
0.00528852
2.21271e-05
0.00528548
3.2336e-05
0.00528158
3.98952e-05
0.00527716
4.30058e-05
0.00527261
4.19365e-05
0.00526821
3.82765e-05
0.00526413
3.3832e-05
0.00526039
2.99015e-05
0.00525694
2.70893e-05
0.0052537
2.54612e-05
0.00525058
2.47995e-05
0.00524753
2.48076e-05
0.00524449
2.52246e-05
0.00524143
2.5864e-05
0.00523833
2.66116e-05
0.00523516
2.74067e-05
0.00523193
2.82224e-05
0.00522863
2.90508e-05
0.00522524
2.98926e-05
0.00522177
3.07521e-05
0.00521821
3.16339e-05
0.00521455
3.25425e-05
0.00521079
3.34812e-05
0.00520694
3.44523e-05
0.00520297
3.54577e-05
0.00519889
3.64985e-05
0.0051947
3.75754e-05
0.00519039
3.8689e-05
0.00518595
3.98395e-05
0.00518139
4.10271e-05
0.0051767
4.2252e-05
0.00517188
4.35142e-05
0.00516691
4.48138e-05
0.00516181
4.6151e-05
0.00515656
4.75258e-05
0.00515116
4.89384e-05
0.00514561
5.03889e-05
0.00513991
5.18775e-05
0.00513405
5.34045e-05
0.00512802
5.49702e-05
0.00512183
5.65748e-05
0.00511548
5.82186e-05
0.00510895
5.99022e-05
0.00510225
6.16258e-05
0.00509537
6.339e-05
0.00508831
6.51952e-05
0.00508107
6.70418e-05
0.00507364
6.89305e-05
0.00506603
7.0862e-05
0.00505823
7.28372e-05
7.48578e-05
0.00529276
1.28189e-06
0.0052924
3.44241e-06
0.00529176
6.80548e-06
0.00529064
1.36539e-05
0.00528874
2.40301e-05
0.00528589
3.518e-05
0.0052822
4.35922e-05
0.00527794
4.72641e-05
0.00527348
4.64004e-05
0.0052691
4.26538e-05
0.00526498
3.79535e-05
0.00526116
3.37157e-05
0.00525763
3.0624e-05
0.00525431
2.87818e-05
0.00525113
2.79785e-05
0.00524803
2.79086e-05
0.00524495
2.82967e-05
0.00524188
2.89425e-05
0.00523877
2.97209e-05
0.00523561
3.05637e-05
0.00523239
3.14389e-05
0.00522911
3.23356e-05
0.00522575
3.32526e-05
0.00522231
3.4193e-05
0.00521878
3.51611e-05
0.00521516
3.61606e-05
0.00521145
3.71947e-05
0.00520764
3.82655e-05
0.00520372
3.93747e-05
0.00519969
4.05233e-05
0.00519556
4.17118e-05
0.00519131
4.29408e-05
0.00518693
4.42104e-05
0.00518244
4.55207e-05
0.00517782
4.68718e-05
0.00517307
4.82636e-05
0.00516819
4.96962e-05
0.00516317
5.11696e-05
0.00515801
5.26838e-05
0.00515271
5.42389e-05
0.00514727
5.5835e-05
0.00514167
5.74722e-05
0.00513593
5.91507e-05
0.00513002
6.08707e-05
0.00512397
6.26324e-05
0.00511775
6.4436e-05
0.00511137
6.62818e-05
0.00510483
6.81702e-05
0.00509811
7.01014e-05
0.00509123
7.20758e-05
0.00508418
7.40937e-05
0.00507696
7.61555e-05
0.00506956
7.82614e-05
0.00506198
8.0412e-05
8.26077e-05
0.00529276
1.41469e-06
0.0052924
3.80508e-06
0.00529178
7.42482e-06
0.00529072
1.47161e-05
0.00528894
2.58092e-05
0.00528627
3.78507e-05
0.00528275
4.7106e-05
0.00527865
5.13724e-05
0.00527427
5.07743e-05
0.00526992
4.70057e-05
0.00526577
4.21014e-05
0.0052619
3.75877e-05
0.0052583
3.42285e-05
0.00525491
3.21696e-05
0.00525167
3.12135e-05
0.00524853
3.10507e-05
0.00524543
3.13947e-05
0.00524234
3.2033e-05
0.00523923
3.28303e-05
0.00523609
3.37108e-05
0.00523289
3.46375e-05
0.00522963
3.55958e-05
0.0052263
3.65824e-05
0.00522289
3.75991e-05
0.0052194
3.86491e-05
0.00521583
3.97357e-05
0.00521216
4.08614e-05
0.0052084
4.20283e-05
0.00520453
4.32376e-05
0.00520057
4.44903e-05
0.00519649
4.57867e-05
0.00519231
4.71271e-05
0.00518801
4.85116e-05
0.00518359
4.99402e-05
0.00517904
5.14128e-05
0.00517438
5.29293e-05
0.00516959
5.44896e-05
0.00516466
5.60937e-05
0.0051596
5.77415e-05
0.00515441
5.94329e-05
0.00514908
6.1168e-05
0.0051436
6.29468e-05
0.00513798
6.47694e-05
0.00513222
6.66358e-05
0.0051263
6.85461e-05
0.00512024
7.05006e-05
0.00511402
7.24993e-05
0.00510765
7.45424e-05
0.00510112
7.66301e-05
0.00509443
7.87625e-05
0.00508759
8.09398e-05
0.00508058
8.31621e-05
0.00507341
8.54295e-05
0.00506608
8.77419e-05
9.00992e-05
0.00529276
1.54677e-06
0.0052924
4.16729e-06
0.00529179
8.03124e-06
0.00529078
1.57276e-05
0.00528911
2.74835e-05
0.00528659
4.03723e-05
0.00528323
5.04588e-05
0.00527926
5.53445e-05
0.00527497
5.50611e-05
0.00527065
5.1325e-05
0.00526649
4.62618e-05
0.00526258
4.15009e-05
0.00525892
3.78859e-05
0.00525548
3.56094e-05
0.00525221
3.44918e-05
0.00524903
3.42238e-05
0.00524592
3.45103e-05
0.00524282
3.51288e-05
0.00523972
3.59343e-05
0.00523658
3.68434e-05
0.00523341
3.78139e-05
0.00523018
3.88274e-05
0.00522688
3.98782e-05
0.00522351
4.09663e-05
0.00522007
4.20939e-05
0.00521654
4.32634e-05
0.00521293
4.44769e-05
0.00520922
4.57359e-05
0.00520541
4.70415e-05
0.00520151
4.83942e-05
0.0051975
4.97944e-05
0.00519339
5.12419e-05
0.00518916
5.27369e-05
0.00518482
5.4279e-05
0.00518037
5.58681e-05
0.00517579
5.7504e-05
0.0051711
5.91865e-05
0.00516628
6.09153e-05
0.00516133
6.26904e-05
0.00515625
6.45115e-05
0.00515104
6.63785e-05
0.00514569
6.82914e-05
0.00514021
7.025e-05
0.00513459
7.22545e-05
0.00512883
7.43046e-05
0.00512293
7.64005e-05
0.00511689
7.8542e-05
0.00511071
8.07293e-05
0.00510437
8.29623e-05
0.00509789
8.52409e-05
0.00509127
8.75651e-05
0.0050845
8.99348e-05
0.00507758
9.23498e-05
0.00507051