/*--------------------------------*- C++ -*----------------------------------*\
| =========                 |                                                 |
| \\      /  F ield         | OpenFOAM: The Open Source CFD Toolbox           |
|  \\    /   O peration     | Version:  2412                                  |
|   \\  /    A nd           | Website:  www.openfoam.com                      |
|    \\/     M anipulation  |                                                 |
\*---------------------------------------------------------------------------*/
FoamFile
{
    version     2.0;
    format      ascii;
    arch        "LSB;label=32;scalar=64";
    class       volVectorField;
    location    "7";
    object      vorticity;
}
// * * * * * * * * * * * * * * * * * * * * * * * * * * * * * * * * * * * * * //

dimensions      [0 0 -1 0 0 0 0];

internalField   nonuniform List<vector> 
5285
(
(0 -0 -4.61335e-06)
(0 -0 -4.45828e-06)
(0 -0 -4.23143e-06)
(0 -0 -3.86401e-06)
(0 -0 -3.33725e-06)
(0 -0 -2.66306e-06)
(0 -0 -1.92892e-06)
(0 -0 -1.27667e-06)
(0 -0 -8.85113e-07)
(0 -0 -9.09337e-07)
(0 -0 -1.40629e-06)
(0 -0 -2.28066e-06)
(0 -0 -3.28688e-06)
(0 -0 -4.10145e-06)
(0 -0 -4.44333e-06)
(0 -0 -4.19082e-06)
(0 -0 -3.43942e-06)
(0 -0 -2.47383e-06)
(0 -0 -1.66934e-06)
(0 -0 -1.36974e-06)
(0 -0 -1.79307e-06)
(0 -0 -2.99506e-06)
(0 -0 -4.88954e-06)
(0 -0 -7.3029e-06)
(0 -0 -1.00341e-05)
(0 -0 -1.29001e-05)
(0 -0 -1.57594e-05)
(0 -0 -1.85162e-05)
(0 -0 -2.1114e-05)
(0 -0 -2.35249e-05)
(0 -0 -2.57391e-05)
(0 -0 -2.77573e-05)
(0 -0 -2.9586e-05)
(0 -0 -3.12342e-05)
(0 -0 -3.27119e-05)
(0 -0 -3.40294e-05)
(0 -0 -3.51969e-05)
(0 -0 -3.62242e-05)
(0 -0 -3.71208e-05)
(0 -0 -3.78956e-05)
(0 -0 -3.85574e-05)
(0 -0 -3.91133e-05)
(0 -0 -3.95748e-05)
(0 -0 -3.99166e-05)
(0 -0 -1.20681e-05)
(0 -0 -1.19089e-05)
(0 -0 -1.16775e-05)
(0 -0 -1.13113e-05)
(0 -0 -1.07564e-05)
(0 -0 -1.00346e-05)
(0 -0 -9.23063e-06)
(0 -0 -8.48699e-06)
(0 -0 -7.98933e-06)
(0 -0 -7.90636e-06)
(0 -0 -8.31278e-06)
(0 -0 -9.12932e-06)
(0 -0 -1.01173e-05)
(0 -0 -1.09448e-05)
(0 -0 -1.13056e-05)
(0 -0 -1.10404e-05)
(0 -0 -1.02046e-05)
(0 -0 -9.05039e-06)
(0 -0 -7.93701e-06)
(0 -0 -7.21088e-06)
(0 -0 -7.10881e-06)
(0 -0 -7.71506e-06)
(0 -0 -8.97469e-06)
(0 -0 -1.07423e-05)
(0 -0 -1.28389e-05)
(0 -0 -1.50965e-05)
(0 -0 -1.73827e-05)
(0 -0 -1.96062e-05)
(0 -0 -2.1712e-05)
(0 -0 -2.36715e-05)
(0 -0 -2.54737e-05)
(0 -0 -2.71174e-05)
(0 -0 -2.86069e-05)
(0 -0 -2.99488e-05)
(0 -0 -3.11511e-05)
(0 -0 -3.22219e-05)
(0 -0 -3.31696e-05)
(0 -0 -3.40021e-05)
(0 -0 -3.47275e-05)
(0 -0 -3.53531e-05)
(0 -0 -3.58863e-05)
(0 -0 -3.63331e-05)
(0 -0 -3.67038e-05)
(0 -0 -3.69726e-05)
(0 -0 -1.70061e-05)
(0 -0 -1.68479e-05)
(0 -0 -1.66149e-05)
(0 -0 -1.62359e-05)
(0 -0 -1.56531e-05)
(0 -0 -1.48877e-05)
(0 -0 -1.40246e-05)
(0 -0 -1.32088e-05)
(0 -0 -1.2633e-05)
(0 -0 -1.24775e-05)
(0 -0 -1.28301e-05)
(0 -0 -1.36219e-05)
(0 -0 -1.46155e-05)
(0 -0 -1.5468e-05)
(0 -0 -1.58492e-05)
(0 -0 -1.55673e-05)
(0 -0 -1.46452e-05)
(0 -0 -1.33108e-05)
(0 -0 -1.1913e-05)
(0 -0 -1.08034e-05)
(0 -0 -1.02367e-05)
(0 -0 -1.03222e-05)
(0 -0 -1.10314e-05)
(0 -0 -1.2242e-05)
(0 -0 -1.37931e-05)
(0 -0 -1.55289e-05)
(0 -0 -1.73237e-05)
(0 -0 -1.90899e-05)
(0 -0 -2.07733e-05)
(0 -0 -2.23452e-05)
(0 -0 -2.37933e-05)
(0 -0 -2.51148e-05)
(0 -0 -2.63121e-05)
(0 -0 -2.73901e-05)
(0 -0 -2.83547e-05)
(0 -0 -2.92123e-05)
(0 -0 -2.99698e-05)
(0 -0 -3.06337e-05)
(0 -0 -3.12105e-05)
(0 -0 -3.17067e-05)
(0 -0 -3.21283e-05)
(0 -0 -3.24804e-05)
(0 -0 -3.27723e-05)
(0 -0 -3.29773e-05)
(0 -0 -1.9199e-05)
(0 -0 -1.90339e-05)
(0 -0 -1.87943e-05)
(0 -0 -1.84008e-05)
(0 -0 -1.7793e-05)
(0 -0 -1.6993e-05)
(0 -0 -1.6088e-05)
(0 -0 -1.52271e-05)
(0 -0 -1.46099e-05)
(0 -0 -1.44249e-05)
(0 -0 -1.47679e-05)
(0 -0 -1.55732e-05)
(0 -0 -1.65993e-05)
(0 -0 -1.74893e-05)
(0 -0 -1.78909e-05)
(0 -0 -1.75867e-05)
(0 -0 -1.6576e-05)
(0 -0 -1.50718e-05)
(0 -0 -1.34195e-05)
(0 -0 -1.19789e-05)
(0 -0 -1.10214e-05)
(0 -0 -1.0677e-05)
(0 -0 -1.09377e-05)
(0 -0 -1.16988e-05)
(0 -0 -1.28123e-05)
(0 -0 -1.41309e-05)
(0 -0 -1.55337e-05)
(0 -0 -1.69354e-05)
(0 -0 -1.82823e-05)
(0 -0 -1.95453e-05)
(0 -0 -2.07111e-05)
(0 -0 -2.17757e-05)
(0 -0 -2.27402e-05)
(0 -0 -2.36078e-05)
(0 -0 -2.4383e-05)
(0 -0 -2.50709e-05)
(0 -0 -2.56769e-05)
(0 -0 -2.62066e-05)
(0 -0 -2.66656e-05)
(0 -0 -2.70594e-05)
(0 -0 -2.73929e-05)
(0 -0 -2.76707e-05)
(0 -0 -2.7901e-05)
(0 -0 -2.80566e-05)
(0 -0 -1.89061e-05)
(0 -0 -1.8735e-05)
(0 -0 -1.84867e-05)
(0 -0 -1.80797e-05)
(0 -0 -1.7453e-05)
(0 -0 -1.66313e-05)
(0 -0 -1.57059e-05)
(0 -0 -1.48313e-05)
(0 -0 -1.42133e-05)
(0 -0 -1.40455e-05)
(0 -0 -1.44256e-05)
(0 -0 -1.52844e-05)
(0 -0 -1.63702e-05)
(0 -0 -1.73097e-05)
(0 -0 -1.77307e-05)
(0 -0 -1.73971e-05)
(0 -0 -1.62946e-05)
(0 -0 -1.46308e-05)
(0 -0 -1.27547e-05)
(0 -0 -1.10372e-05)
(0 -0 -9.76494e-06)
(0 -0 -9.08428e-06)
(0 -0 -9.0019e-06)
(0 -0 -9.42462e-06)
(0 -0 -1.02123e-05)
(0 -0 -1.12224e-05)
(0 -0 -1.23368e-05)
(0 -0 -1.34707e-05)
(0 -0 -1.45707e-05)
(0 -0 -1.56072e-05)
(0 -0 -1.65662e-05)
(0 -0 -1.74429e-05)
(0 -0 -1.82372e-05)
(0 -0 -1.89513e-05)
(0 -0 -1.95885e-05)
(0 -0 -2.0153e-05)
(0 -0 -2.06493e-05)
(0 -0 -2.10822e-05)
(0 -0 -2.14566e-05)
(0 -0 -2.17774e-05)
(0 -0 -2.20489e-05)
(0 -0 -2.22747e-05)
(0 -0 -2.24628e-05)
(0 -0 -2.25852e-05)
(0 -0 -1.67622e-05)
(0 -0 -1.65857e-05)
(0 -0 -1.63298e-05)
(0 -0 -1.59127e-05)
(0 -0 -1.5275e-05)
(0 -0 -1.44458e-05)
(0 -0 -1.35224e-05)
(0 -0 -1.26658e-05)
(0 -0 -1.20866e-05)
(0 -0 -1.19807e-05)
(0 -0 -1.24421e-05)
(0 -0 -1.33916e-05)
(0 -0 -1.45619e-05)
(0 -0 -1.55609e-05)
(0 -0 -1.59992e-05)
(0 -0 -1.56282e-05)
(0 -0 -1.44291e-05)
(0 -0 -1.26134e-05)
(0 -0 -1.05401e-05)
(0 -0 -8.59411e-06)
(0 -0 -7.07612e-06)
(0 -0 -6.14481e-06)
(0 -0 -5.81599e-06)
(0 -0 -6.00241e-06)
(0 -0 -6.56717e-06)
(0 -0 -7.36915e-06)
(0 -0 -8.29042e-06)
(0 -0 -9.24607e-06)
(0 -0 -1.01822e-05)
(0 -0 -1.10688e-05)
(0 -0 -1.18911e-05)
(0 -0 -1.26439e-05)
(0 -0 -1.33262e-05)
(0 -0 -1.39396e-05)
(0 -0 -1.44867e-05)
(0 -0 -1.4971e-05)
(0 -0 -1.53965e-05)
(0 -0 -1.57676e-05)
(0 -0 -1.60887e-05)
(0 -0 -1.63642e-05)
(0 -0 -1.6598e-05)
(0 -0 -1.67931e-05)
(0 -0 -1.69569e-05)
(0 -0 -1.70614e-05)
(0 -0 -1.35608e-05)
(0 -0 -1.33802e-05)
(0 -0 -1.31189e-05)
(0 -0 -1.26961e-05)
(0 -0 -1.20555e-05)
(0 -0 -1.12321e-05)
(0 -0 -1.03312e-05)
(0 -0 -9.52038e-06)
(0 -0 -9.0149e-06)
(0 -0 -9.00945e-06)
(0 -0 -9.58979e-06)
(0 -0 -1.06612e-05)
(0 -0 -1.1936e-05)
(0 -0 -1.30017e-05)
(0 -0 -1.34534e-05)
(0 -0 -1.30358e-05)
(0 -0 -1.17335e-05)
(0 -0 -9.76949e-06)
(0 -0 -7.5189e-06)
(0 -0 -5.38257e-06)
(0 -0 -3.67469e-06)
(0 -0 -2.56276e-06)
(0 -0 -2.06709e-06)
(0 -0 -2.10164e-06)
(0 -0 -2.52878e-06)
(0 -0 -3.20588e-06)
(0 -0 -4.01343e-06)
(0 -0 -4.86528e-06)
(0 -0 -5.70667e-06)
(0 -0 -6.50685e-06)
(0 -0 -7.25086e-06)
(0 -0 -7.93285e-06)
(0 -0 -8.55163e-06)
(0 -0 -9.10829e-06)
(0 -0 -9.60508e-06)
(0 -0 -1.00451e-05)
(0 -0 -1.04321e-05)
(0 -0 -1.07702e-05)
(0 -0 -1.10639e-05)
(0 -0 -1.13169e-05)
(0 -0 -1.15329e-05)
(0 -0 -1.17145e-05)
(0 -0 -1.18688e-05)
(0 -0 -1.19677e-05)
(0 -0 -1.00526e-05)
(0 -0 -9.86911e-06)
(0 -0 -9.60456e-06)
(0 -0 -9.18006e-06)
(0 -0 -8.54325e-06)
(0 -0 -7.73693e-06)
(0 -0 -6.87478e-06)
(0 -0 -6.13204e-06)
(0 -0 -5.72754e-06)
(0 -0 -5.85261e-06)
(0 -0 -6.5809e-06)
(0 -0 -7.79773e-06)
(0 -0 -9.19143e-06)
(0 -0 -1.03276e-05)
(0 -0 -1.07874e-05)
(0 -0 -1.03135e-05)
(0 -0 -8.89979e-06)
(0 -0 -6.78701e-06)
(0 -0 -4.37093e-06)
(0 -0 -2.07065e-06)
(0 -0 -2.13012e-07)
(0 -0 1.02819e-06)
(0 -0 1.63173e-06)
(0 -0 1.68608e-06)
(0 -0 1.33272e-06)
(0 -0 7.18087e-07)
(0 -0 -3.53062e-08)
(0 -0 -8.39228e-07)
(0 -0 -1.63768e-06)
(0 -0 -2.39924e-06)
(0 -0 -3.10855e-06)
(0 -0 -3.75952e-06)
(0 -0 -4.35079e-06)
(0 -0 -4.88329e-06)
(0 -0 -5.35913e-06)
(0 -0 -5.78132e-06)
(0 -0 -6.15359e-06)
(0 -0 -6.48008e-06)
(0 -0 -6.76497e-06)
(0 -0 -7.01205e-06)
(0 -0 -7.22455e-06)
(0 -0 -7.40489e-06)
(0 -0 -7.55993e-06)
(0 -0 -7.66155e-06)
(0 -0 -6.80747e-06)
(0 -0 -6.6215e-06)
(0 -0 -6.35503e-06)
(0 -0 -5.93145e-06)
(0 -0 -5.30327e-06)
(0 -0 -4.52168e-06)
(0 -0 -3.70996e-06)
(0 -0 -3.05105e-06)
(0 -0 -2.76682e-06)
(0 -0 -3.04345e-06)
(0 -0 -3.93969e-06)
(0 -0 -5.3177e-06)
(0 -0 -6.83916e-06)
(0 -0 -8.0467e-06)
(0 -0 -8.50854e-06)
(0 -0 -7.96833e-06)
(0 -0 -6.43411e-06)
(0 -0 -4.16882e-06)
(0 -0 -1.59223e-06)
(0 -0 8.56758e-07)
(0 -0 2.83895e-06)
(0 -0 4.17606e-06)
(0 -0 4.84845e-06)
(0 -0 4.94968e-06)
(0 -0 4.62728e-06)
(0 -0 4.03312e-06)
(0 -0 3.29381e-06)
(0 -0 2.50022e-06)
(0 -0 1.70987e-06)
(0 -0 9.54964e-07)
(0 -0 2.51215e-07)
(0 -0 -3.95132e-07)
(0 -0 -9.82686e-07)
(0 -0 -1.5124e-06)
(0 -0 -1.98649e-06)
(0 -0 -2.40804e-06)
(0 -0 -2.78086e-06)
(0 -0 -3.10917e-06)
(0 -0 -3.39714e-06)
(0 -0 -3.64842e-06)
(0 -0 -3.86606e-06)
(0 -0 -4.0523e-06)
(0 -0 -4.21388e-06)
(0 -0 -4.32289e-06)
(0 -0 -4.15924e-06)
(0 -0 -3.97033e-06)
(0 -0 -3.70207e-06)
(0 -0 -3.2805e-06)
(0 -0 -2.66341e-06)
(0 -0 -1.91107e-06)
(0 -0 -1.15677e-06)
(0 -0 -5.91355e-07)
(0 -0 -4.3929e-07)
(0 -0 -8.80404e-07)
(0 -0 -1.9567e-06)
(0 -0 -3.50495e-06)
(0 -0 -5.15843e-06)
(0 -0 -6.43588e-06)
(0 -0 -6.89342e-06)
(0 -0 -6.27781e-06)
(0 -0 -4.61413e-06)
(0 -0 -2.19062e-06)
(0 -0 5.46619e-07)
(0 -0 3.13776e-06)
(0 -0 5.23138e-06)
(0 -0 6.64583e-06)
(0 -0 7.3647e-06)
(0 -0 7.4883e-06)
(0 -0 7.17169e-06)
(0 -0 6.57324e-06)
(0 -0 5.82434e-06)
(0 -0 5.01892e-06)
(0 -0 4.2162e-06)
(0 -0 3.44928e-06)
(0 -0 2.73421e-06)
(0 -0 2.07734e-06)
(0 -0 1.48001e-06)
(0 -0 9.41087e-07)
(0 -0 4.58151e-07)
(0 -0 2.78883e-08)
(0 -0 -3.53681e-07)
(0 -0 -6.9087e-07)
(0 -0 -9.87856e-07)
(0 -0 -1.24824e-06)
(0 -0 -1.47494e-06)
(0 -0 -1.67011e-06)
(0 -0 -1.84047e-06)
(0 -0 -1.9584e-06)
(0 -0 -2.22232e-06)
(0 -0 -2.02921e-06)
(0 -0 -1.75832e-06)
(0 -0 -1.33844e-06)
(0 -0 -7.33014e-07)
(0 -0 -1.16723e-08)
(0 -0 6.82016e-07)
(0 -0 1.14912e-06)
(0 -0 1.16294e-06)
(0 -0 5.50681e-07)
(0 -0 -7.11708e-07)
(0 -0 -2.43428e-06)
(0 -0 -4.22069e-06)
(0 -0 -5.56539e-06)
(0 -0 -6.01275e-06)
(0 -0 -5.3139e-06)
(0 -0 -3.51274e-06)
(0 -0 -9.24748e-07)
(0 -0 1.97626e-06)
(0 -0 4.70873e-06)
(0 -0 6.90907e-06)
(0 -0 8.39287e-06)
(0 -0 9.1479e-06)
(0 -0 9.2822e-06)
(0 -0 8.95918e-06)
(0 -0 8.34436e-06)
(0 -0 7.57433e-06)
(0 -0 6.7463e-06)
(0 -0 5.92138e-06)
(0 -0 5.13357e-06)
(0 -0 4.39932e-06)
(0 -0 3.72505e-06)
(0 -0 3.11197e-06)
(0 -0 2.55871e-06)
(0 -0 2.06254e-06)
(0 -0 1.61985e-06)
(0 -0 1.22649e-06)
(0 -0 8.78015e-07)
(0 -0 5.70254e-07)
(0 -0 2.9964e-07)
(0 -0 6.32879e-08)
(0 -0 -1.40979e-07)
(0 -0 -3.19878e-07)
(0 -0 -4.462e-07)
(0 -0 -9.51392e-07)
(0 -0 -7.52451e-07)
(0 -0 -4.77467e-07)
(0 -0 -5.81214e-08)
(0 -0 5.36375e-07)
(0 -0 1.22685e-06)
(0 -0 1.85922e-06)
(0 -0 2.22652e-06)
(0 -0 2.09988e-06)
(0 -0 1.31403e-06)
(0 -0 -1.36466e-07)
(0 -0 -2.03419e-06)
(0 -0 -3.95257e-06)
(0 -0 -5.36146e-06)
(0 -0 -5.79364e-06)
(0 -0 -5.00531e-06)
(0 -0 -3.06016e-06)
(0 -0 -3.01912e-07)
(0 -0 2.76707e-06)
(0 -0 5.64313e-06)
(0 -0 7.95044e-06)
(0 -0 9.50212e-06)
(0 -0 1.02906e-05)
(0 -0 1.04321e-05)
(0 -0 1.00988e-05)
(0 -0 9.46368e-06)
(0 -0 8.66877e-06)
(0 -0 7.81474e-06)
(0 -0 6.96461e-06)
(0 -0 6.15337e-06)
(0 -0 5.39786e-06)
(0 -0 4.70456e-06)
(0 -0 4.07454e-06)
(0 -0 3.5061e-06)
(0 -0 2.99619e-06)
(0 -0 2.5409e-06)
(0 -0 2.13584e-06)
(0 -0 1.77653e-06)
(0 -0 1.45878e-06)
(0 -0 1.17903e-06)
(0 -0 9.34372e-07)
(0 -0 7.22511e-07)
(0 -0 5.36659e-07)
(0 -0 4.03576e-07)
(0 -0 -2.13641e-07)
(0 -0 -7.29979e-09)
(0 -0 2.73314e-07)
(0 -0 6.93553e-07)
(0 -0 1.27841e-06)
(0 -0 1.939e-06)
(0 -0 2.51068e-06)
(0 -0 2.7784e-06)
(0 -0 2.51123e-06)
(0 -0 1.55166e-06)
(0 -0 -8.68267e-08)
(0 -0 -2.15892e-06)
(0 -0 -4.20754e-06)
(0 -0 -5.67773e-06)
(0 -0 -6.09085e-06)
(0 -0 -5.20844e-06)
(0 -0 -3.11446e-06)
(0 -0 -1.81283e-07)
(0 -0 3.05977e-06)
(0 -0 6.08274e-06)
(0 -0 8.49955e-06)
(0 -0 1.01209e-05)
(0 -0 1.09441e-05)
(0 -0 1.10936e-05)
(0 -0 1.07507e-05)
(0 -0 1.00959e-05)
(0 -0 9.27671e-06)
(0 -0 8.3973e-06)
(0 -0 7.52273e-06)
(0 -0 6.68897e-06)
(0 -0 5.91328e-06)
(0 -0 5.20216e-06)
(0 -0 4.5565e-06)
(0 -0 3.97431e-06)
(0 -0 3.45216e-06)
(0 -0 2.98584e-06)
(0 -0 2.57078e-06)
(0 -0 2.20247e-06)
(0 -0 1.87672e-06)
(0 -0 1.58997e-06)
(0 -0 1.33919e-06)
(0 -0 1.12191e-06)
(0 -0 9.31209e-07)
(0 -0 7.93343e-07)
(0 -0 1.49391e-07)
(0 -0 3.64167e-07)
(0 -0 6.51497e-07)
(0 -0 1.07384e-06)
(0 -0 1.65021e-06)
(0 -0 2.28198e-06)
(0 -0 2.79392e-06)
(0 -0 2.96279e-06)
(0 -0 2.55574e-06)
(0 -0 1.42311e-06)
(0 -0 -4.02487e-07)
(0 -0 -2.6477e-06)
(0 -0 -4.82479e-06)
(0 -0 -6.354e-06)
(0 -0 -6.74527e-06)
(0 -0 -5.76563e-06)
(0 -0 -3.51944e-06)
(0 -0 -4.07933e-07)
(0 -0 3.00854e-06)
(0 -0 6.18164e-06)
(0 -0 8.71101e-06)
(0 -0 1.0405e-05)
(0 -0 1.12657e-05)
(0 -0 1.1426e-05)
(0 -0 1.1076e-05)
(0 -0 1.0404e-05)
(0 -0 9.56288e-06)
(0 -0 8.66049e-06)
(0 -0 7.76387e-06)
(0 -0 6.90999e-06)
(0 -0 6.11649e-06)
(0 -0 5.38991e-06)
(0 -0 4.73093e-06)
(0 -0 4.13725e-06)
(0 -0 3.60508e-06)
(0 -0 3.12993e-06)
(0 -0 2.7071e-06)
(0 -0 2.33204e-06)
(0 -0 2.00061e-06)
(0 -0 1.70921e-06)
(0 -0 1.45463e-06)
(0 -0 1.23413e-06)
(0 -0 1.04067e-06)
(0 -0 8.99891e-07)
(0 -0 2.80944e-07)
(0 -0 5.04264e-07)
(0 -0 7.9872e-07)
(0 -0 1.22376e-06)
(0 -0 1.79234e-06)
(0 -0 2.39599e-06)
(0 -0 2.84871e-06)
(0 -0 2.91918e-06)
(0 -0 2.37268e-06)
(0 -0 1.0675e-06)
(0 -0 -9.44482e-07)
(0 -0 -3.3618e-06)
(0 -0 -5.66602e-06)
(0 -0 -7.2526e-06)
(0 -0 -7.62012e-06)
(0 -0 -6.54118e-06)
(0 -0 -4.14059e-06)
(0 -0 -8.48441e-07)
(0 -0 2.74589e-06)
(0 -0 6.07169e-06)
(0 -0 8.71636e-06)
(0 -0 1.04859e-05)
(0 -0 1.13869e-05)
(0 -0 1.1561e-05)
(0 -0 1.12069e-05)
(0 -0 1.05205e-05)
(0 -0 9.66038e-06)
(0 -0 8.73781e-06)
(0 -0 7.82191e-06)
(0 -0 6.95063e-06)
(0 -0 6.14199e-06)
(0 -0 5.4025e-06)
(0 -0 4.73263e-06)
(0 -0 4.12978e-06)
(0 -0 3.58981e-06)
(0 -0 3.10801e-06)
(0 -0 2.67956e-06)
(0 -0 2.29993e-06)
(0 -0 1.96498e-06)
(0 -0 1.67104e-06)
(0 -0 1.41471e-06)
(0 -0 1.19292e-06)
(0 -0 9.98523e-07)
(0 -0 8.56334e-07)
(0 -0 2.89867e-07)
(0 -0 5.20693e-07)
(0 -0 8.22055e-07)
(0 -0 1.25004e-06)
(0 -0 1.81115e-06)
(0 -0 2.38677e-06)
(0 -0 2.78015e-06)
(0 -0 2.752e-06)
(0 -0 2.0658e-06)
(0 -0 5.87982e-07)
(0 -0 -1.61021e-06)
(0 -0 -4.19911e-06)
(0 -0 -6.6296e-06)
(0 -0 -8.27243e-06)
(0 -0 -8.61492e-06)
(0 -0 -7.4353e-06)
(0 -0 -4.87889e-06)
(0 -0 -1.4046e-06)
(0 -0 2.36922e-06)
(0 -0 5.84958e-06)
(0 -0 8.61162e-06)
(0 -0 1.04589e-05)
(0 -0 1.14029e-05)
(0 -0 1.15931e-05)
(0 -0 1.12376e-05)
(0 -0 1.05394e-05)
(0 -0 9.66279e-06)
(0 -0 8.72259e-06)
(0 -0 7.78993e-06)
(0 -0 6.90375e-06)
(0 -0 6.08235e-06)
(0 -0 5.33222e-06)
(0 -0 4.6536e-06)
(0 -0 4.04358e-06)
(0 -0 3.49774e-06)
(0 -0 3.01116e-06)
(0 -0 2.57894e-06)
(0 -0 2.19653e-06)
(0 -0 1.85984e-06)
(0 -0 1.56509e-06)
(0 -0 1.30864e-06)
(0 -0 1.08707e-06)
(0 -0 8.9315e-07)
(0 -0 7.50574e-07)
(0 -0 2.47488e-07)
(0 -0 4.83769e-07)
(0 -0 7.92399e-07)
(0 -0 1.22442e-06)
(0 -0 1.77847e-06)
(0 -0 2.32581e-06)
(0 -0 2.65919e-06)
(0 -0 2.53152e-06)
(0 -0 1.70474e-06)
(0 -0 5.36316e-08)
(0 -0 -2.33105e-06)
(0 -0 -5.0914e-06)
(0 -0 -7.64761e-06)
(0 -0 -9.34583e-06)
(0 -0 -9.66228e-06)
(0 -0 -8.38095e-06)
(0 -0 -5.66773e-06)
(0 -0 -2.01033e-06)
(0 -0 1.94401e-06)
(0 -0 5.58008e-06)
(0 -0 8.46085e-06)
(0 -0 1.03875e-05)
(0 -0 1.1376e-05)
(0 -0 1.15844e-05)
(0 -0 1.12292e-05)
(0 -0 1.05212e-05)
(0 -0 9.6301e-06)
(0 -0 8.67426e-06)
(0 -0 7.72683e-06)
(0 -0 6.82769e-06)
(0 -0 5.99542e-06)
(0 -0 5.23642e-06)
(0 -0 4.55068e-06)
(0 -0 3.93501e-06)
(0 -0 3.38475e-06)
(0 -0 2.89479e-06)
(0 -0 2.46017e-06)
(0 -0 2.07634e-06)
(0 -0 1.73917e-06)
(0 -0 1.44483e-06)
(0 -0 1.18936e-06)
(0 -0 9.69024e-07)
(0 -0 7.76588e-07)
(0 -0 6.33961e-07)
(0 -0 1.90311e-07)
(0 -0 4.33232e-07)
(0 -0 7.50757e-07)
(0 -0 1.19087e-06)
(0 -0 1.73878e-06)
(0 -0 2.25737e-06)
(0 -0 2.52967e-06)
(0 -0 2.3012e-06)
(0 -0 1.33267e-06)
(0 -0 -4.92627e-07)
(0 -0 -3.06427e-06)
(0 -0 -5.99602e-06)
(0 -0 -8.67747e-06)
(0 -0 -1.04303e-05)
(0 -0 -1.07198e-05)
(0 -0 -9.33588e-06)
(0 -0 -6.46515e-06)
(0 -0 -2.6241e-06)
(0 -0 1.51119e-06)
(0 -0 5.30343e-06)
(0 -0 8.30347e-06)
(0 -0 1.03101e-05)
(0 -0 1.13441e-05)
(0 -0 1.15716e-05)
(0 -0 1.12178e-05)
(0 -0 1.05012e-05)
(0 -0 9.59682e-06)
(0 -0 8.6266e-06)
(0 -0 7.66568e-06)
(0 -0 6.75485e-06)
(0 -0 5.91293e-06)
(0 -0 5.14621e-06)
(0 -0 4.45439e-06)
(0 -0 3.83403e-06)
(0 -0 3.28027e-06)
(0 -0 2.78784e-06)
(0 -0 2.35171e-06)
(0 -0 1.96728e-06)
(0 -0 1.63043e-06)
(0 -0 1.33717e-06)
(0 -0 1.08328e-06)
(0 -0 8.64685e-07)
(0 -0 6.74342e-07)
(0 -0 5.30683e-07)
(0 -0 1.30992e-07)
(0 -0 3.82587e-07)
(0 -0 7.14275e-07)
(0 -0 1.17276e-06)
(0 -0 1.71448e-06)
(0 -0 2.20258e-06)
(0 -0 2.41241e-06)
(0 -0 2.08202e-06)
(0 -0 9.7087e-07)
(0 -0 -1.02912e-06)
(0 -0 -3.78782e-06)
(0 -0 -6.89059e-06)
(0 -0 -9.69644e-06)
(0 -0 -1.15028e-05)
(0 -0 -1.17642e-05)
(0 -0 -1.02768e-05)
(0 -0 -7.24791e-06)
(0 -0 -3.22294e-06)
(0 -0 1.09333e-06)
(0 -0 5.04157e-06)
(0 -0 8.16073e-06)
(0 -0 1.02474e-05)
(0 -0 1.13269e-05)
(0 -0 1.15737e-05)
(0 -0 1.12219e-05)
(0 -0 1.04971e-05)
(0 -0 9.58e-06)
(0 -0 8.59601e-06)
(0 -0 7.6223e-06)
(0 -0 6.70051e-06)
(0 -0 5.84961e-06)
(0 -0 5.07575e-06)
(0 -0 4.37839e-06)
(0 -0 3.75386e-06)
(0 -0 3.19713e-06)
(0 -0 2.70276e-06)
(0 -0 2.2656e-06)
(0 -0 1.88101e-06)
(0 -0 1.54487e-06)
(0 -0 1.25297e-06)
(0 -0 1.00083e-06)
(0 -0 7.84096e-07)
(0 -0 5.95954e-07)
(0 -0 4.51566e-07)
(0 -0 7.06931e-08)
(0 -0 3.37661e-07)
(0 -0 7.0454e-07)
(0 -0 1.17022e-06)
(0 -0 1.71467e-06)
(0 -0 2.1681e-06)
(0 -0 2.31381e-06)
(0 -0 1.88079e-06)
(0 -0 6.26654e-07)
(0 -0 -1.54815e-06)
(0 -0 -4.49361e-06)
(0 -0 -7.76666e-06)
(0 -0 -1.06958e-05)
(0 -0 -1.25542e-05)
(0 -0 -1.27863e-05)
(0 -0 -1.11944e-05)
(0 -0 -8.00689e-06)
(0 -0 -3.79806e-06)
(0 -0 6.9874e-07)
(0 -0 4.80235e-06)
(0 -0 8.0399e-06)
(0 -0 1.02059e-05)
(0 -0 1.13305e-05)
(0 -0 1.15963e-05)
(0 -0 1.12461e-05)
(0 -0 1.05133e-05)
(0 -0 9.58362e-06)
(0 -0 8.58621e-06)
(0 -0 7.6e-06)
(0 -0 6.66744e-06)
(0 -0 5.80782e-06)
(0 -0 5.02714e-06)
(0 -0 4.32465e-06)
(0 -0 3.69628e-06)
(0 -0 3.13683e-06)
(0 -0 2.64081e-06)
(0 -0 2.20295e-06)
(0 -0 1.81852e-06)
(0 -0 1.48325e-06)
(0 -0 1.1927e-06)
(0 -0 9.42236e-07)
(0 -0 7.27331e-07)
(0 -0 5.41325e-07)
(0 -0 3.95626e-07)
(0 -0 -0.000125512)
(0 -0 -9.34634e-05)
(0 -0 -6.93316e-05)
(0 -0 -5.15572e-05)
(0 -0 -3.87767e-05)
(0 -0 -2.97644e-05)
(0 -0 -2.34691e-05)
(0 -0 -1.90763e-05)
(0 -0 -1.59805e-05)
(0 -0 -1.37505e-05)
(0 -0 -1.2091e-05)
(0 -0 -1.08073e-05)
(0 -0 -9.77564e-06)
(0 -0 -8.91944e-06)
(0 -0 -8.19248e-06)
(0 -0 -7.56696e-06)
(0 -0 -7.02573e-06)
(0 -0 -6.55751e-06)
(0 -0 -6.15428e-06)
(0 -0 -5.81022e-06)
(0 -0 -5.52082e-06)
(0 -0 -5.28245e-06)
(0 -0 -5.09106e-06)
(0 -0 -4.9402e-06)
(0 -0 -4.81192e-06)
(0 -0 -4.68602e-06)
(0 -0 -0.000133903)
(0 -0 -0.000101438)
(0 -0 -7.68585e-05)
(0 -0 -5.86936e-05)
(0 -0 -4.56222e-05)
(0 -0 -3.64266e-05)
(0 -0 -3.00418e-05)
(0 -0 -2.56309e-05)
(0 -0 -2.25663e-05)
(0 -0 -2.03982e-05)
(0 -0 -1.88172e-05)
(0 -0 -1.76188e-05)
(0 -0 -1.66724e-05)
(0 -0 -1.58978e-05)
(0 -0 -1.52464e-05)
(0 -0 -1.46895e-05)
(0 -0 -1.42095e-05)
(0 -0 -1.3795e-05)
(0 -0 -1.34386e-05)
(0 -0 -1.31346e-05)
(0 -0 -1.28789e-05)
(0 -0 -1.26684e-05)
(0 -0 -1.24995e-05)
(0 -0 -1.23655e-05)
(0 -0 -1.22535e-05)
(0 -0 -1.21241e-05)
(0 -0 -0.000136864)
(0 -0 -0.000104869)
(0 -0 -8.0483e-05)
(0 -0 -6.23679e-05)
(0 -0 -4.93059e-05)
(0 -0 -4.01295e-05)
(0 -0 -3.37896e-05)
(0 -0 -2.94501e-05)
(0 -0 -2.64772e-05)
(0 -0 -2.4413e-05)
(0 -0 -2.29408e-05)
(0 -0 -2.18502e-05)
(0 -0 -2.10069e-05)
(0 -0 -2.03279e-05)
(0 -0 -1.97638e-05)
(0 -0 -1.92851e-05)
(0 -0 -1.88742e-05)
(0 -0 -1.85202e-05)
(0 -0 -1.82158e-05)
(0 -0 -1.79558e-05)
(0 -0 -1.77368e-05)
(0 -0 -1.75561e-05)
(0 -0 -1.74107e-05)
(0 -0 -1.72941e-05)
(0 -0 -1.71912e-05)
(0 -0 -1.70711e-05)
(0 -0 -0.000134712)
(0 -0 -0.000103935)
(0 -0 -8.02714e-05)
(0 -0 -6.25893e-05)
(0 -0 -4.97954e-05)
(0 -0 -4.08071e-05)
(0 -0 -3.46199e-05)
(0 -0 -3.04192e-05)
(0 -0 -2.75795e-05)
(0 -0 -2.56445e-05)
(0 -0 -2.42964e-05)
(0 -0 -2.33229e-05)
(0 -0 -2.25883e-05)
(0 -0 -2.20087e-05)
(0 -0 -2.15341e-05)
(0 -0 -2.11351e-05)
(0 -0 -2.07943e-05)
(0 -0 -2.05014e-05)
(0 -0 -2.02492e-05)
(0 -0 -2.00334e-05)
(0 -0 -1.98509e-05)
(0 -0 -1.96997e-05)
(0 -0 -1.95771e-05)
(0 -0 -1.9477e-05)
(0 -0 -1.93842e-05)
(0 -0 -1.9265e-05)
(0 -0 -0.000128442)
(0 -0 -9.94266e-05)
(0 -0 -7.68925e-05)
(0 -0 -5.992e-05)
(0 -0 -4.75801e-05)
(0 -0 -3.88992e-05)
(0 -0 -3.29374e-05)
(0 -0 -2.89168e-05)
(0 -0 -2.62315e-05)
(0 -0 -2.44346e-05)
(0 -0 -2.32121e-05)
(0 -0 -2.23534e-05)
(0 -0 -2.17232e-05)
(0 -0 -2.12377e-05)
(0 -0 -2.08473e-05)
(0 -0 -2.05229e-05)
(0 -0 -2.02477e-05)
(0 -0 -2.00115e-05)
(0 -0 -1.98081e-05)
(0 -0 -1.96335e-05)
(0 -0 -1.94852e-05)
(0 -0 -1.93615e-05)
(0 -0 -1.92603e-05)
(0 -0 -1.91758e-05)
(0 -0 -1.90922e-05)
(0 -0 -1.89755e-05)
(0 -0 -0.000119464)
(0 -0 -9.25403e-05)
(0 -0 -7.13722e-05)
(0 -0 -5.52744e-05)
(0 -0 -4.34978e-05)
(0 -0 -3.51916e-05)
(0 -0 -2.94919e-05)
(0 -0 -2.56675e-05)
(0 -0 -2.31396e-05)
(0 -0 -2.14757e-05)
(0 -0 -2.03696e-05)
(0 -0 -1.96144e-05)
(0 -0 -1.90767e-05)
(0 -0 -1.86738e-05)
(0 -0 -1.83567e-05)
(0 -0 -1.8097e-05)
(0 -0 -1.78784e-05)
(0 -0 -1.76914e-05)
(0 -0 -1.75304e-05)
(0 -0 -1.73917e-05)
(0 -0 -1.72735e-05)
(0 -0 -1.71744e-05)
(0 -0 -1.70926e-05)
(0 -0 -1.70223e-05)
(0 -0 -1.69477e-05)
(0 -0 -1.6834e-05)
(0 -0 -0.000109286)
(0 -0 -8.45572e-05)
(0 -0 -6.48395e-05)
(0 -0 -4.96775e-05)
(0 -0 -3.85029e-05)
(0 -0 -3.05913e-05)
(0 -0 -2.51593e-05)
(0 -0 -2.15268e-05)
(0 -0 -1.91451e-05)
(0 -0 -1.75996e-05)
(0 -0 -1.65935e-05)
(0 -0 -1.59251e-05)
(0 -0 -1.54635e-05)
(0 -0 -1.5128e-05)
(0 -0 -1.48701e-05)
(0 -0 -1.46624e-05)
(0 -0 -1.44893e-05)
(0 -0 -1.43417e-05)
(0 -0 -1.42148e-05)
(0 -0 -1.41053e-05)
(0 -0 -1.40119e-05)
(0 -0 -1.39335e-05)
(0 -0 -1.38684e-05)
(0 -0 -1.38106e-05)
(0 -0 -1.37443e-05)
(0 -0 -1.36343e-05)
(0 -0 -9.92198e-05)
(0 -0 -7.66051e-05)
(0 -0 -5.82935e-05)
(0 -0 -4.40409e-05)
(0 -0 -3.34493e-05)
(0 -0 -2.59151e-05)
(0 -0 -2.07331e-05)
(0 -0 -1.72735e-05)
(0 -0 -1.50185e-05)
(0 -0 -1.35715e-05)
(0 -0 -1.2646e-05)
(0 -0 -1.20457e-05)
(0 -0 -1.16431e-05)
(0 -0 -1.13586e-05)
(0 -0 -1.11453e-05)
(0 -0 -1.09763e-05)
(0 -0 -1.08367e-05)
(0 -0 -1.07184e-05)
(0 -0 -1.06166e-05)
(0 -0 -1.0529e-05)
(0 -0 -1.04544e-05)
(0 -0 -1.03921e-05)
(0 -0 -1.03404e-05)
(0 -0 -1.02932e-05)
(0 -0 -1.02341e-05)
(0 -0 -1.01275e-05)
(0 -0 -9.02172e-05)
(0 -0 -6.95001e-05)
(0 -0 -5.2456e-05)
(0 -0 -3.9023e-05)
(0 -0 -2.89542e-05)
(0 -0 -2.17548e-05)
(0 -0 -1.67902e-05)
(0 -0 -1.34766e-05)
(0 -0 -1.1325e-05)
(0 -0 -9.9556e-06)
(0 -0 -9.09159e-06)
(0 -0 -8.54205e-06)
(0 -0 -8.18209e-06)
(0 -0 -7.93397e-06)
(0 -0 -7.7517e-06)
(0 -0 -7.60917e-06)
(0 -0 -7.4922e-06)
(0 -0 -7.39318e-06)
(0 -0 -7.3082e-06)
(0 -0 -7.23529e-06)
(0 -0 -7.17366e-06)
(0 -0 -7.12283e-06)
(0 -0 -7.08101e-06)
(0 -0 -7.04183e-06)
(0 -0 -6.98833e-06)
(0 -0 -6.88451e-06)
(0 -0 -8.28111e-05)
(0 -0 -6.36967e-05)
(0 -0 -4.77258e-05)
(0 -0 -3.49849e-05)
(0 -0 -2.53549e-05)
(0 -0 -1.84335e-05)
(0 -0 -1.36464e-05)
(0 -0 -1.04492e-05)
(0 -0 -8.37767e-06)
(0 -0 -7.06658e-06)
(0 -0 -6.24741e-06)
(0 -0 -5.73379e-06)
(0 -0 -5.40321e-06)
(0 -0 -5.17936e-06)
(0 -0 -5.01699e-06)
(0 -0 -4.89079e-06)
(0 -0 -4.78723e-06)
(0 -0 -4.69937e-06)
(0 -0 -4.6239e-06)
(0 -0 -4.55938e-06)
(0 -0 -4.50541e-06)
(0 -0 -4.46161e-06)
(0 -0 -4.42615e-06)
(0 -0 -4.3922e-06)
(0 -0 -4.34223e-06)
(0 -0 -4.23985e-06)
(0 -0 -7.71618e-05)
(0 -0 -5.9327e-05)
(0 -0 -4.42134e-05)
(0 -0 -3.20223e-05)
(0 -0 -2.27377e-05)
(0 -0 -1.60331e-05)
(0 -0 -1.13823e-05)
(0 -0 -8.27296e-06)
(0 -0 -6.26045e-06)
(0 -0 -4.99138e-06)
(0 -0 -4.20376e-06)
(0 -0 -3.71473e-06)
(0 -0 -3.40363e-06)
(0 -0 -3.195e-06)
(0 -0 -3.04439e-06)
(0 -0 -2.92711e-06)
(0 -0 -2.83014e-06)
(0 -0 -2.74731e-06)
(0 -0 -2.67581e-06)
(0 -0 -2.6148e-06)
(0 -0 -2.56417e-06)
(0 -0 -2.52371e-06)
(0 -0 -2.49139e-06)
(0 -0 -2.45998e-06)
(0 -0 -2.41129e-06)
(0 -0 -2.30859e-06)
(0 -0 -7.3157e-05)
(0 -0 -5.62885e-05)
(0 -0 -4.18211e-05)
(0 -0 -3.004e-05)
(0 -0 -2.101e-05)
(0 -0 -1.44634e-05)
(0 -0 -9.91062e-06)
(0 -0 -6.86354e-06)
(0 -0 -4.89246e-06)
(0 -0 -3.65266e-06)
(0 -0 -2.88686e-06)
(0 -0 -2.41451e-06)
(0 -0 -2.11617e-06)
(0 -0 -1.91701e-06)
(0 -0 -1.77306e-06)
(0 -0 -1.66006e-06)
(0 -0 -1.56564e-06)
(0 -0 -1.48407e-06)
(0 -0 -1.41321e-06)
(0 -0 -1.35263e-06)
(0 -0 -1.30248e-06)
(0 -0 -1.26274e-06)
(0 -0 -1.23113e-06)
(0 -0 -1.19998e-06)
(0 -0 -1.15054e-06)
(0 -0 -1.04575e-06)
(0 -0 -7.05255e-05)
(0 -0 -5.43438e-05)
(0 -0 -4.03332e-05)
(0 -0 -2.88367e-05)
(0 -0 -1.99799e-05)
(0 -0 -1.35395e-05)
(0 -0 -9.05206e-06)
(0 -0 -6.04638e-06)
(0 -0 -4.10314e-06)
(0 -0 -2.88338e-06)
(0 -0 -2.13279e-06)
(0 -0 -1.67227e-06)
(0 -0 -1.38295e-06)
(0 -0 -1.19041e-06)
(0 -0 -1.05091e-06)
(0 -0 -9.40398e-07)
(0 -0 -8.4711e-07)
(0 -0 -7.65745e-07)
(0 -0 -6.94569e-07)
(0 -0 -6.33451e-07)
(0 -0 -5.82846e-07)
(0 -0 -5.42687e-07)
(0 -0 -5.10536e-07)
(0 -0 -4.78293e-07)
(0 -0 -4.26587e-07)
(0 -0 -3.1836e-07)
(0 -0 -6.89366e-05)
(0 -0 -5.32061e-05)
(0 -0 -3.94928e-05)
(0 -0 -2.81758e-05)
(0 -0 -1.94251e-05)
(0 -0 -1.30494e-05)
(0 -0 -8.60177e-06)
(0 -0 -5.62201e-06)
(0 -0 -3.69709e-06)
(0 -0 -2.49131e-06)
(0 -0 -1.75206e-06)
(0 -0 -1.30103e-06)
(0 -0 -1.01962e-06)
(0 -0 -8.33369e-07)
(0 -0 -6.98364e-07)
(0 -0 -5.91048e-07)
(0 -0 -4.99932e-07)
(0 -0 -4.2014e-07)
(0 -0 -3.50138e-07)
(0 -0 -2.89887e-07)
(0 -0 -2.39918e-07)
(0 -0 -2.00007e-07)
(0 -0 -1.67553e-07)
(0 -0 -1.34036e-07)
(0 -0 -7.96149e-08)
(0 -0 3.26332e-08)
(0 -0 -6.80731e-05)
(0 -0 -5.26015e-05)
(0 -0 -3.90579e-05)
(0 -0 -2.78388e-05)
(0 -0 -1.91442e-05)
(0 -0 -1.28035e-05)
(0 -0 -8.37864e-06)
(0 -0 -5.41488e-06)
(0 -0 -3.50235e-06)
(0 -0 -2.30711e-06)
(0 -0 -1.57723e-06)
(0 -0 -1.13508e-06)
(0 -0 -8.62316e-07)
(0 -0 -6.83544e-07)
(0 -0 -5.5434e-07)
(0 -0 -4.51825e-07)
(0 -0 -3.65318e-07)
(0 -0 -2.90167e-07)
(0 -0 -2.24716e-07)
(0 -0 -1.68721e-07)
(0 -0 -1.22366e-07)
(0 -0 -8.52218e-08)
(0 -0 -5.43438e-08)
(0 -0 -2.07822e-08)
(0 -0 3.55564e-08)
(0 -0 1.51332e-07)
(0 -0 -6.7684e-05)
(0 -0 -5.23139e-05)
(0 -0 -3.88479e-05)
(0 -0 -2.76726e-05)
(0 -0 -1.90031e-05)
(0 -0 -1.26799e-05)
(0 -0 -8.26754e-06)
(0 -0 -5.31347e-06)
(0 -0 -3.409e-06)
(0 -0 -2.22095e-06)
(0 -0 -1.49822e-06)
(0 -0 -1.06412e-06)
(0 -0 -8.01293e-07)
(0 -0 -6.30448e-07)
(0 -0 -5.05971e-07)
(0 -0 -4.06216e-07)
(0 -0 -3.25234e-07)
(0 -0 -2.57699e-07)
(0 -0 -2.0075e-07)
(0 -0 -1.53294e-07)
(0 -0 -1.14769e-07)
(0 -0 -8.41146e-08)
(0 -0 -5.78906e-08)
(0 -0 -2.6762e-08)
(0 -0 2.96669e-08)
(0 -0 1.47577e-07)
(0 -0 -6.77463e-05)
(0 -0 -5.22081e-05)
(0 -0 -3.87835e-05)
(0 -0 -2.76362e-05)
(0 -0 -1.89791e-05)
(0 -0 -1.26632e-05)
(0 -0 -8.25452e-06)
(0 -0 -5.30176e-06)
(0 -0 -3.39732e-06)
(0 -0 -2.20877e-06)
(0 -0 -1.48648e-06)
(0 -0 -1.05671e-06)
(0 -0 -8.04941e-07)
(0 -0 -6.42469e-07)
(0 -0 -5.09577e-07)
(0 -0 -4.02715e-07)
(0 -0 -3.14963e-07)
(0 -0 -2.54099e-07)
(0 -0 -2.07876e-07)
(0 -0 -1.72181e-07)
(0 -0 -1.45031e-07)
(0 -0 -1.24281e-07)
(0 -0 -1.05729e-07)
(0 -0 -7.96214e-08)
(0 -0 -2.52874e-08)
(0 -0 9.35076e-08)
(0 -0 -6.84102e-05)
(0 -0 -5.26167e-05)
(0 -0 -3.88891e-05)
(0 -0 -2.77926e-05)
(0 -0 -1.91434e-05)
(0 -0 -1.28196e-05)
(0 -0 -8.39694e-06)
(0 -0 -5.42827e-06)
(0 -0 -3.50762e-06)
(0 -0 -2.30364e-06)
(0 -0 -1.56872e-06)
(0 -0 -1.13555e-06)
(0 -0 -8.8648e-07)
(0 -0 -7.30747e-07)
(0 -0 -5.85345e-07)
(0 -0 -4.42553e-07)
(0 -0 -3.38983e-07)
(0 -0 -2.63657e-07)
(0 -0 -2.24945e-07)
(0 -0 -2.00697e-07)
(0 -0 -1.85388e-07)
(0 -0 -1.75317e-07)
(0 -0 -1.65229e-07)
(0 -0 -1.44959e-07)
(0 -0 -9.28399e-08)
(0 -0 2.42182e-08)
(0 -0 -6.95854e-05)
(0 -0 -5.36916e-05)
(0 -0 -3.96066e-05)
(0 -0 -2.82454e-05)
(0 -0 -1.95508e-05)
(0 -0 -1.31751e-05)
(0 -0 -8.70464e-06)
(0 -0 -5.69379e-06)
(0 -0 -3.73522e-06)
(0 -0 -2.49702e-06)
(0 -0 -1.7338e-06)
(0 -0 -1.28111e-06)
(0 -0 -1.03088e-06)
(0 -0 -8.8187e-07)
(0 -0 -7.13079e-07)
(0 -0 -5.07058e-07)
(0 -0 -3.83183e-07)
(0 -0 -3.07037e-07)
(0 -0 -2.62379e-07)
(0 -0 -2.45196e-07)
(0 -0 -2.38601e-07)
(0 -0 -2.36367e-07)
(0 -0 -2.32127e-07)
(0 -0 -2.15182e-07)
(0 -0 -1.63286e-07)
(0 -0 -5.24024e-08)
(0 -0 -8.24916e-07)
(0 -0 -6.1576e-07)
(0 -0 -3.876e-07)
(0 -0 -3.35527e-07)
(0 -0 -3.09573e-07)
(0 -0 -3.00086e-07)
(0 -0 -2.99507e-07)
(0 -0 -3.0174e-07)
(0 -0 -2.99778e-07)
(0 -0 -2.81759e-07)
(0 -0 -2.3366e-07)
(0 -0 -1.12532e-07)
(0 -0 1.56297e-06)
(0 -0 1.54275e-06)
(0 -0 1.52482e-06)
(0 -0 1.50885e-06)
(0 -0 1.49537e-06)
(0 -0 1.48394e-06)
(0 -0 1.47424e-06)
(0 -0 1.4659e-06)
(0 -0 1.45856e-06)
(0 -0 1.45198e-06)
(0 -0 1.44594e-06)
(0 -0 1.44032e-06)
(0 -0 1.43502e-06)
(0 -0 1.42999e-06)
(0 -0 1.42518e-06)
(0 -0 1.42052e-06)
(0 -0 1.41598e-06)
(0 -0 1.41149e-06)
(0 -0 1.40701e-06)
(0 -0 1.40251e-06)
(0 -0 1.39799e-06)
(0 -0 1.39352e-06)
(0 -0 1.38931e-06)
(0 -0 1.38579e-06)
(0 -0 1.38376e-06)
(0 -0 1.38444e-06)
(0 -0 2.91836e-06)
(0 -0 2.86884e-06)
(0 -0 2.82388e-06)
(0 -0 2.78413e-06)
(0 -0 2.75079e-06)
(0 -0 2.72278e-06)
(0 -0 2.69925e-06)
(0 -0 2.67923e-06)
(0 -0 2.66185e-06)
(0 -0 2.6464e-06)
(0 -0 2.63237e-06)
(0 -0 2.61939e-06)
(0 -0 2.60722e-06)
(0 -0 2.59568e-06)
(0 -0 2.58462e-06)
(0 -0 2.5739e-06)
(0 -0 2.5634e-06)
(0 -0 2.55299e-06)
(0 -0 2.54256e-06)
(0 -0 2.53201e-06)
(0 -0 2.52128e-06)
(0 -0 2.51046e-06)
(0 -0 2.49989e-06)
(0 -0 2.49046e-06)
(0 -0 2.48394e-06)
(0 -0 2.48332e-06)
(0 -0 1.84598e-06)
(0 -0 1.78518e-06)
(0 -0 1.72879e-06)
(0 -0 1.67917e-06)
(0 -0 1.63807e-06)
(0 -0 1.60405e-06)
(0 -0 1.57602e-06)
(0 -0 1.55276e-06)
(0 -0 1.53309e-06)
(0 -0 1.51606e-06)
(0 -0 1.50094e-06)
(0 -0 1.48719e-06)
(0 -0 1.47441e-06)
(0 -0 1.46232e-06)
(0 -0 1.45069e-06)
(0 -0 1.43934e-06)
(0 -0 1.42811e-06)
(0 -0 1.41686e-06)
(0 -0 1.40545e-06)
(0 -0 1.3937e-06)
(0 -0 1.38143e-06)
(0 -0 1.36851e-06)
(0 -0 1.35501e-06)
(0 -0 1.34159e-06)
(0 -0 1.33004e-06)
(0 -0 1.32405e-06)
(0 -0 4.84223e-07)
(0 -0 4.20666e-07)
(0 -0 3.61071e-07)
(0 -0 3.08572e-07)
(0 -0 2.65686e-07)
(0 -0 2.30732e-07)
(0 -0 2.02643e-07)
(0 -0 1.80086e-07)
(0 -0 1.61763e-07)
(0 -0 1.46544e-07)
(0 -0 1.33513e-07)
(0 -0 1.21963e-07)
(0 -0 1.11356e-07)
(0 -0 1.01295e-07)
(0 -0 9.14869e-08)
(0 -0 8.17222e-08)
(0 -0 7.18493e-08)
(0 -0 6.17419e-08)
(0 -0 5.12538e-08)
(0 -0 4.01623e-08)
(0 -0 2.81219e-08)
(0 -0 1.46783e-08)