/*--------------------------------*- C++ -*----------------------------------*\
| =========                 |                                                 |
| \\      /  F ield         | OpenFOAM: The Open Source CFD Toolbox           |
|  \\    /   O peration     | Version:  2412                                  |
|   \\  /    A nd           | Website:  www.openfoam.com                      |
|    \\/     M anipulation  |                                                 |
\*---------------------------------------------------------------------------*/
FoamFile
{
    version     2.0;
    format      ascii;
    arch        "LSB;label=32;scalar=64";
    class       volScalarField;
    location    "25.5";
    object      p;
}
// * * * * * * * * * * * * * * * * * * * * * * * * * * * * * * * * * * * * * //

dimensions      [0 2 -2 0 0 0 0];

internalField   nonuniform List<scalar> 
5285
(
-0.000922986
-0.000863515
-0.000893586
-0.000913433
-0.000931793
-0.000947861
-0.000960605
-0.000970091
-0.000976536
-0.000980062
-0.000980778
-0.000978808
-0.000974291
-0.000967372
-0.000958198
-0.000946921
-0.000933696
-0.000918677
-0.00090202
-0.000883879
-0.000864407
-0.000843756
-0.00082207
-0.000799497
-0.000808158
-0.000836806
-0.000856294
-0.000874348
-0.000890251
-0.00090308
-0.000912889
-0.000919867
-0.000924118
-0.000925735
-0.000924829
-0.000921523
-0.000915946
-0.000908231
-0.000898516
-0.00088694
-0.000873646
-0.000858776
-0.000842472
-0.000824875
-0.000806126
-0.000786359
-0.000765708
-0.000756553
-0.000783853
-0.000802949
-0.000820664
-0.000836355
-0.000849203
-0.000859251
-0.000866662
-0.000871526
-0.000873923
-0.00087395
-0.000871717
-0.000867338
-0.000860934
-0.000852629
-0.00084255
-0.000830826
-0.000817589
-0.000802969
-0.000787096
-0.000770099
-0.000752104
-0.000733234
-0.000708377
-0.000734402
-0.000753087
-0.000770439
-0.000785883
-0.000798697
-0.000808914
-0.000816674
-0.000822054
-0.000825124
-0.000825969
-0.000824686
-0.000821377
-0.00081615
-0.000809119
-0.000800397
-0.000790104
-0.000778359
-0.000765282
-0.000750993
-0.00073561
-0.00071925
-0.00070203
-0.000663338
-0.000688159
-0.000706422
-0.000723395
-0.00073857
-0.000751307
-0.000761634
-0.000769672
-0.000775485
-0.000779135
-0.000780695
-0.000780253
-0.000777899
-0.000773731
-0.000767849
-0.000760359
-0.000751368
-0.000740985
-0.000729321
-0.000716487
-0.000702591
-0.000687741
-0.000672045
-0.00062117
-0.000644857
-0.000662693
-0.000679279
-0.000694166
-0.000706794
-0.000717183
-0.000725437
-0.000731612
-0.000735759
-0.000737946
-0.000738248
-0.000736746
-0.000733527
-0.000728683
-0.00072231
-0.000714504
-0.000705366
-0.000694997
-0.000683499
-0.000670972
-0.000657515
-0.000643229
-0.000581639
-0.000604257
-0.000621665
-0.000637861
-0.000652449
-0.00066494
-0.00067535
-0.000683769
-0.000690243
-0.000694818
-0.000697552
-0.000698511
-0.000697768
-0.000695403
-0.000691496
-0.000686135
-0.000679408
-0.000671407
-0.000662224
-0.000651953
-0.000640687
-0.000628516
-0.000615533
-0.000544532
-0.000566143
-0.000583127
-0.000598932
-0.000613213
-0.000625547
-0.000635946
-0.000644486
-0.000651205
-0.000656145
-0.000659355
-0.000660895
-0.00066083
-0.00065923
-0.000656169
-0.000651726
-0.000645982
-0.000639019
-0.000630922
-0.000621778
-0.000611672
-0.000600689
-0.000588912
-0.000509658
-0.000530322
-0.000546886
-0.000562303
-0.000576274
-0.000588436
-0.000598796
-0.000607418
-0.000614338
-0.000619587
-0.000623212
-0.000625265
-0.000625804
-0.000624891
-0.000622593
-0.000618982
-0.000614131
-0.000608117
-0.000601016
-0.000592907
-0.00058387
-0.000573981
-0.000563321
-0.000476845
-0.000496616
-0.000512768
-0.000527802
-0.000541463
-0.00055344
-0.000563739
-0.000572413
-0.000579491
-0.000585004
-0.000588989
-0.000591494
-0.000592569
-0.000592273
-0.000590664
-0.000587808
-0.000583771
-0.000578622
-0.000572433
-0.000565275
-0.000557222
-0.000548345
-0.000538716
-0.000445936
-0.000464867
-0.000480615
-0.000495274
-0.000508626
-0.000520409
-0.000530628
-0.000539327
-0.00054653
-0.000552263
-0.00055656
-0.000559463
-0.000561017
-0.000561273
-0.000560286
-0.000558114
-0.000554817
-0.000550459
-0.000545105
-0.000538821
-0.000531674
-0.00052373
-0.000515057
-0.00041679
-0.000434928
-0.000450283
-0.000464574
-0.000477621
-0.000489204
-0.000499329
-0.000508029
-0.000515327
-0.000521244
-0.000525811
-0.000529063
-0.000531042
-0.000531794
-0.000531368
-0.000529816
-0.000527193
-0.000523557
-0.000518969
-0.000513487
-0.000507175
-0.000500093
-0.000492302
-0.000389276
-0.000406669
-0.000421641
-0.000435574
-0.000448319
-0.000459699
-0.000469717
-0.0004784
-0.000485767
-0.000491836
-0.000496634
-0.000500193
-0.00050255
-0.000503746
-0.000503825
-0.000502835
-0.000500826
-0.00049785
-0.000493963
-0.000489219
-0.000483676
-0.000477388
-0.000470415
-0.000363279
-0.000379969
-0.00039457
-0.000408153
-0.000420602
-0.000431777
-0.000441678
-0.000450328
-0.000457741
-0.000463934
-0.000468931
-0.000472759
-0.000475451
-0.000477045
-0.00047758
-0.000477099
-0.000475648
-0.000473275
-0.00047003
-0.000465963
-0.000461128
-0.000455575
-0.000449358
-0.00033869
-0.000354719
-0.000368959
-0.000382203
-0.000394362
-0.000405331
-0.000415109
-0.000423712
-0.000431152
-0.000437444
-0.000442609
-0.000446672
-0.000449661
-0.000451611
-0.000452556
-0.000452537
-0.000451594
-0.000449772
-0.000447115
-0.000443672
-0.000439489
-0.000434614
-0.000429097
-0.00031541
-0.000330817
-0.000344708
-0.000357624
-0.0003695
-0.000380263
-0.000389911
-0.000398456
-0.000405907
-0.000412277
-0.000417584
-0.000421851
-0.000425104
-0.000427371
-0.000428687
-0.000429085
-0.000428605
-0.000427285
-0.000425168
-0.000422297
-0.000418715
-0.000414467
-0.000409597
-0.000293354
-0.000308174
-0.000321728
-0.000334324
-0.000345924
-0.000356483
-0.000365997
-0.000374474
-0.000381921
-0.00038835
-0.000393777
-0.000398221
-0.000401706
-0.000404258
-0.000405906
-0.000406684
-0.000406624
-0.000405763
-0.000404141
-0.000401795
-0.000398768
-0.000395097
-0.000390827
-0.000272446
-0.000286715
-0.000299933
-0.000312218
-0.000323551
-0.000333907
-0.000343284
-0.000351685
-0.000359116
-0.000365588
-0.000371114
-0.000375711
-0.0003794
-0.000382206
-0.000384154
-0.000385274
-0.000385597
-0.000385156
-0.000383987
-0.000382125
-0.000379607
-0.000376471
-0.000372755
-0.000658793
-0.000705743
-0.000615479
-0.000659713
-0.000703222
-0.00074594
-0.000787913
-0.000828672
-0.00086645
-0.00057497
-0.000616709
-0.00065772
-0.00069794
-0.000737395
-0.000775653
-0.0008112
-0.00053703
-0.000576474
-0.000615187
-0.000653107
-0.000690254
-0.000726223
-0.000759725
-0.000501453
-0.000538779
-0.000575374
-0.000611176
-0.0006462
-0.00068007
-0.000711689
-0.000468046
-0.000503415
-0.000538055
-0.000571905
-0.000604973
-0.000636914
-0.000666798
-0.000436632
-0.000470192
-0.000503024
-0.000535072
-0.000566336
-0.000596501
-0.000624782
-0.000407055
-0.000438939
-0.000470098
-0.000500478
-0.000530074
-0.000558602
-0.000585399
-0.000379175
-0.000409502
-0.000439109
-0.000467943
-0.000495996
-0.000523013
-0.000548434
-0.000352863
-0.000381743
-0.000409909
-0.000437309
-0.000463932
-0.00048955
-0.000513694
-0.000328002
-0.000355537
-0.000382361
-0.000408429
-0.000433725
-0.000458047
-0.000481005
-0.000304487
-0.000330769
-0.000356345
-0.000381173
-0.000405235
-0.000428356
-0.00045021
-0.000282223
-0.000307335
-0.000331748
-0.000355421
-0.000378336
-0.00040034
-0.000421166
-0.000261125
-0.000285143
-0.00030847
-0.000331065
-0.000352911
-0.000373877
-0.000393745
-0.000241112
-0.000264107
-0.000286418
-0.000308008
-0.000328856
-0.000348855
-0.000367828
-0.00022211
-0.000244148
-0.000265508
-0.000286158
-0.000306075
-0.000325171
-0.000343309
-0.000204056
-0.000225194
-0.000245664
-0.000265433
-0.000284479
-0.000302732
-0.000320089
-0.000186886
-0.00020718
-0.000226813
-0.000245756
-0.000263987
-0.000281452
-0.000298077
-0.000170545
-0.000190042
-0.000208889
-0.000227057
-0.000244525
-0.000261257
-0.000277201
-0.000154982
-0.000173739
-0.000191852
-0.000209295
-0.000226049
-0.00024209
-0.000257388
-0.000563089
-0.000611216
-0.000291079
-0.000341949
-0.000387176
-0.000432908
-0.000479211
-0.000525182
-0.00057061
-0.00026805
-0.000315996
-0.000358931
-0.000402312
-0.000446154
-0.000489644
-0.000532591
-0.000246176
-0.000291452
-0.000332283
-0.000373499
-0.000415074
-0.000456281
-0.000496941
-0.000225392
-0.000268225
-0.00030712
-0.000346339
-0.000385824
-0.000424924
-0.000463477
-0.000205635
-0.000246227
-0.000283338
-0.00032071
-0.000358264
-0.000395417
-0.000432023
-0.000186841
-0.000225374
-0.000260836
-0.000296499
-0.000332263
-0.000367615
-0.000402417
-0.000168954
-0.000205591
-0.000239526
-0.000273602
-0.000307708
-0.000341388
-0.000374517
-0.00015192
-0.000186809
-0.000219326
-0.000251927
-0.000284492
-0.000316622
-0.000348194
-0.000135689
-0.000168963
-0.000200161
-0.000231386
-0.000262512
-0.000293206
-0.000323332
-0.000120215
-0.000151995
-0.000181965
-0.000211904
-0.000241684
-0.000271036
-0.000299818
-0.000105456
-0.00013585
-0.000164676
-0.000193428
-0.000221998
-0.000250037
-0.000277555
-9.13674e-05
-0.000120474
-0.000148224
-0.000175846
-0.000203239
-0.00023012
-0.000256464
-7.79144e-05
-0.00010582
-0.00013255
-0.000159082
-0.000185412
-0.000211215
-0.000236464
-6.50621e-05
-9.18466e-05
-0.000117641
-0.000143256
-0.000168467
-0.00019324
-0.000217475
-5.27776e-05
-7.8509e-05
-0.000103424
-0.000128059
-0.000152342
-0.000176162
-0.000199435
-4.10505e-05
-6.58383e-05
-8.98747e-05
-0.000113625
-0.000137016
-0.000159925
-0.000182286
-2.98214e-05
-5.3685e-05
-7.69456e-05
-9.9878e-05
-0.000122416
-0.000144463
-0.000165967
-1.90664e-05
-4.20821e-05
-6.46038e-05
-8.67575e-05
-0.00010849
-0.00012973
-0.000150428
-8.77639e-06
-3.09821e-05
-5.27867e-05
-7.42004e-05
-9.51786e-05
-0.000115665
-0.000135612
0.00095156
0.000941988
0.000931356
0.000919591
0.000906623
0.000892376
0.000876773
0.000859737
0.000841188
0.000821047
0.000799237
0.00077568
0.000750304
0.000723037
0.000693815
0.000662579
0.000629278
0.000593871
0.000556328
0.000516632
0.000474783
0.000430796
0.000384704
0.000336563
0.000286451
0.000234467
0.000180737
0.000125412
6.86678e-05
1.07082e-05
-4.82436e-05
-0.000107968
-0.000167983
-0.000227591
0.000928801
0.000918804
0.000907773
0.000895644
0.000882351
0.000867826
0.000851998
0.000834798
0.000816154
0.000795997
0.000774257
0.000750869
0.000725768
0.000698894
0.000670193
0.000639617
0.000607126
0.000572688
0.000536284
0.000497905
0.000457559
0.000415268
0.00037107
0.000325024
0.000277208
0.00022772
0.000176681
0.000124233
7.05432e-05
1.57994e-05
-3.97925e-05
-9.60315e-05
-0.000152478
-0.000208486
0.000906915
0.000896548
0.000885177
0.000872743
0.000859185
0.000844441
0.000828449
0.000811144
0.000792464
0.000772346
0.000750731
0.000727561
0.00070278
0.000676338
0.00064819
0.000618296
0.000586627
0.000553159
0.000517881
0.000480792
0.000441906
0.000401249
0.000358864
0.000314811
0.000269167
0.00022203
0.000173513
0.000123753
7.29051e-05
2.11433e-05
-3.13422e-05
-8.43676e-05
-0.000137531
-0.000190238
0.000885882
0.000875196
0.000863538
0.000850852
0.000837083
0.000822176
0.000806072
0.000788716
0.000770051
0.000750023
0.000728578
0.000705667
0.000681243
0.000655264
0.000627692
0.000598497
0.000567656
0.000535153
0.000500983
0.000465152
0.000427679
0.000388593
0.000347941
0.000305783
0.000262195
0.00021727
0.00017112
0.000123871
7.56683e-05
2.66745e-05
-2.29356e-05
-7.29937e-05
-0.000123133
-0.000172808
0.000865679
0.000854723
0.000842826
0.000829937
0.000816006
0.000800983
0.000784817
0.000767456
0.000748851
0.000728955
0.00070772
0.000685104
0.000661068
0.000635576
0.000608598
0.00058011
0.000550096
0.000518547
0.000485464
0.000450858
0.000414749
0.000377172
0.000338174
0.000297815
0.000256171
0.000213331
0.0001694
0.000124498
7.87604e-05
3.23384e-05
-1.46071e-05
-6.19216e-05
-0.000109271
-0.000156156
0.000846286
0.000835103
0.00082301
0.000809963
0.000795915
0.00078082
0.000764634
0.00074731
0.000728805
0.000709076
0.000688084
0.000665793
0.000642168
0.000617181
0.000590809
0.000563033
0.000533842
0.000503234
0.000471213
0.000437793
0.000403
0.00036687
0.00032945
0.0002908
0.000250993
0.000210115
0.000168267
0.00012556
8.21218e-05
3.80916e-05
-6.38174e-06
-5.11561e-05
-9.59282e-05
-0.000140241
0.000827679
0.000816308
0.000804061
0.000790895
0.00077677
0.000761643
0.000745474
0.000728223
0.000709852
0.000690322
0.000669602
0.000647658
0.000624464
0.000599997
0.000574237
0.000547172
0.000518796
0.000489111
0.000458124
0.000425854
0.000392328
0.000357583
0.000321667
0.000284638
0.000246568
0.000207539
0.000167646
0.000126994
8.57011e-05
4.38976e-05
1.72056e-06
-4.06992e-05
-8.30862e-05
-0.000125025
0.000809834
0.000798313
0.000785947
0.000772699
0.000758532
0.000743408
0.00072729
0.000710144
0.000691935
0.000672632
0.000652205
0.000630629
0.00060788
0.000583941
0.000558796
0.000532439
0.000504867
0.000476085
0.000446104
0.000414945
0.000382636
0.000349216
0.000314732
0.000279242
0.000242814
0.000205527
0.00016747
0.000128742
8.94534e-05
4.9725e-05
9.6832e-06
-3.05511e-05
-7.07283e-05
-0.000110472
0.000792726
0.000781088
0.000768637
0.00075534
0.000741162
0.000726071
0.000710035
0.00069302
0.000675
0.000655945
0.000635832
0.000614638
0.000592344
0.000568938
0.000544409
0.000518752
0.00049197
0.000464069
0.000435064
0.000404977
0.000373837
0.000341684
0.000308564
0.000274534
0.000239658
0.000204012
0.000167679
0.000130755
9.33401e-05
5.55472e-05
1.74932e-05
-2.07101e-05
-5.88372e-05
-9.65488e-05
0.00077633
0.000764605
0.0007521
0.000738783
0.000724624
0.000709593
0.000693663
0.000676805
0.000658993
0.000640206
0.00062042
0.00059962
0.000577789
0.000554919
0.000531001
0.000506036
0.000480027
0.000452984
0.000424924
0.00039587
0.000365852
0.000334909
0.000303088
0.000270441
0.000237033
0.000202934
0.000168223
0.000132989
9.73279e-05
6.13421e-05
2.51407e-05
-1.1173e-05
-4.73956e-05
-8.32225e-05
0.000760622
0.000748838
0.000736305
0.000722994
0.000708878
0.000693932
0.000678131
0.000661449
0.000643865
0.000625359
0.000605914
0.000585515
0.000564152
0.000541816
0.000518504
0.000494219
0.000468966
0.000442757
0.000415611
0.000387551
0.000358608
0.000328821
0.000298235
0.000266901
0.00023488
0.00020224
0.000169055
0.000135408
0.000101388
6.70914e-05
3.26181e-05
-1.93536e-06
-3.63864e-05
-7.04628e-05
0.000745577
0.000733758
0.000721221
0.00070794
0.000693891
0.00067905
0.000663396
0.000646908
0.000629566
0.000611355
0.000592259
0.000572267
0.000551372
0.000529568
0.000506855
0.000483236
0.00045872
0.000433321
0.000407057
0.000379953
0.000352041
0.000323357
0.000293946
0.000263857
0.000233149
0.000201885
0.000170136
0.000137979
0.000105497
7.27796e-05
3.99203e-05
7.00829e-06
-2.57927e-05
-5.82408e-05
0.000731169
0.000719339
0.00070682
0.000693589
0.000679625
0.000664909
0.000649419
0.000633139
0.000616052
0.000598144
0.000579404
0.000559823
0.000539395
0.000518118
0.000495994
0.000473027
0.000449229
0.000424614
0.000399201
0.000373016
0.00034609
0.000318458
0.000290165
0.000261258
0.000231791
0.000201826
0.000171428
0.000140671
0.000109632
7.8394e-05
4.70434e-05
1.56639e-05
-1.55984e-05
-4.65301e-05
0.000717375
0.000705553
0.000693071
0.000679909
0.000666049
0.000651471
0.00063616
0.0006201
0.000603277
0.00058568
0.0005673
0.000548131
0.000528168
0.000507412
0.000485865
0.000463536
0.000440435
0.000416578
0.000391986
0.000366683
0.0003407
0.000314074
0.000286843
0.000259057
0.000230765
0.000202026
0.000172902
0.000143462
0.000113776
8.39242e-05
5.39853e-05
2.40377e-05
-5.78843e-06
-3.53062e-05
0.00070417
0.000692375
0.000679947
0.000666871
0.000653128
0.000638704
0.000623583
0.000607753
0.000591202
0.000573921
0.000555903
0.000537144
0.000517642
0.000497399
0.000476419
0.00045471
0.000432286
0.000409163
0.00038536
0.000360904
0.000335824
0.000310155
0.000283937
0.000257213
0.000230034
0.000202453
0.00017453
0.000146328
0.000117914
8.93619e-05
6.07449e-05
3.21366e-05
3.65217e-06
-2.45459e-05
0.000691532
0.000679778
0.000667421
0.000654443
0.000640832
0.000626572
0.000611651
0.000596059
0.000579786
0.000562824
0.000545169
0.000526819
0.000507772
0.000488033
0.000467606
0.000446502
0.000424734
0.000402319
0.000379277
0.000355633
0.000331416
0.000306661
0.000281405
0.00025569
0.000229564
0.000203078
0.000176287
0.000149251
0.000122033
9.47003e-05
6.73223e-05
3.99677e-05
1.27375e-05
-1.423e-05
0.000679436
0.000667739
0.000655465
0.000642599
0.00062913
0.000615044
0.000600332
0.000584983
0.000568992
0.000552352
0.000535059
0.000517113
0.000498515
0.00047927
0.000459384
0.000438868
0.000417735
0.000396002
0.000373691
0.000350826
0.000327435
0.000303551
0.00027921
0.000254454
0.000229326
0.000203874
0.000178152
0.000152215
0.000126121
9.99343e-05
7.37187e-05
4.7539e-05
2.14832e-05
-4.33182e-06
0.000667861
0.000656233
0.000644054
0.000631311
0.000617993
0.000604089
0.000589592
0.000574492
0.000558785
0.000542466
0.000525534
0.000507988
0.000489832
0.00047107
0.00045171
0.000431765
0.000411246
0.000390172
0.000368564
0.000346445
0.000323844
0.000300791
0.000277322
0.000253475
0.000229292
0.00020482
0.000180106
0.000155205
0.00013017
0.00010506
7.99358e-05
5.48579e-05
2.99027e-05
5.1694e-06
0.000656784
0.000645237
0.000633163
0.000620552
0.000607393
0.000593679
0.000579401
0.000564553
0.000549132
0.000533134
0.000516558
0.000499407
0.000481684
0.000463395
0.000444548
0.000425155
0.000405231
0.000384792
0.000363859
0.000342456
0.000320609
0.000298348
0.000275708
0.000252725
0.000229439
0.000205893
0.000182133
0.000158209
0.000134171
0.000110075
8.59758e-05
6.19309e-05
3.80056e-05
1.42841e-05
0.000646402
0.000634944
0.000622982
0.000610507
0.000597511
0.000583986
0.000569927
0.000555328
0.000540187
0.000524501
0.000508272
0.000491501
0.000474194
0.000456356
0.000437997
0.000419129
0.000399767
0.000379927
0.000359629
0.000338897
0.000317757
0.000296237
0.00027437
0.000252191
0.000229738
0.000207051
0.000184174
0.000161153
0.000138037
0.000114875
9.17206e-05
6.86255e-05
4.5644e-05
2.28366e-05
0.000636562
0.000625199
0.000613355
0.000601022
0.000588192
0.000574859
0.000561018
0.000546666
0.000531801
0.000516422
0.000500531
0.00048413
0.000467224
0.000449822
0.000431933
0.000413568
0.000394743
0.000375474
0.000355781
0.000335686
0.000315215
0.000294395
0.000273258
0.000251836
0.000230165
0.000208285
0.000186236
0.000164062
0.000141807
0.000119519
9.72462e-05
7.50384e-05
5.29454e-05
3.10196e-05
0.000626949
0.000615691
0.000603973
0.000591789
0.000579132
0.000565998
0.000552382
0.000538283
0.000523698
0.000508628
0.000493076
0.000477045
0.000460541
0.000443572
0.000426147
0.00040828
0.000389983
0.000371275
0.000352174
0.000332703
0.000312885
0.000292747
0.000272319
0.000251633
0.000230721
0.000209622
0.000188373
0.000167016
0.000145592
0.000124146
0.000102724
8.13705e-05
6.01343e-05
3.90634e-05
0.000617566
0.00060642
0.000594838
0.000582811
0.000570334
0.000557405
0.000544019
0.000530176
0.000515874
0.000501116
0.000485904
0.000470243
0.000454138
0.000437598
0.000420634
0.000403256
0.000385481
0.000367323
0.000348803
0.00032994
0.000310759
0.000291285
0.000271547
0.000251573
0.000231398
0.000211054
0.000190579
0.00017001
0.000149387
0.000128753
0.000108148
8.76172e-05
6.72043e-05
4.69547e-05
0.000608415
0.00059739
0.00058595
0.000574086
0.000561797
0.000549077
0.000535926
0.000522343
0.000508328
0.000493883
0.000479012
0.000463719
0.000448011
0.000431896
0.000415386
0.000398492
0.000381227
0.00036361
0.000345657
0.000327389
0.000308829
0.000290001
0.000270932
0.00025165
0.000232186
0.000212573
0.000192845
0.000173037
0.000153187
0.000133333
0.000113516
9.37751e-05
7.41528e-05
5.46911e-05
0.000599497
0.000588602
0.00057731
0.000565617
0.000553519
0.000541015
0.000528103
0.000514783
0.000501056
0.000486925
0.000472393
0.000457467
0.000442153
0.000426459
0.000410397
0.000393978
0.000377216
0.000360127
0.000342729
0.000325041
0.000307086
0.000288885
0.000270466
0.000251855
0.00023308
0.000214173
0.000195165
0.000176091
0.000156984
0.000137883
0.000118822
9.98409e-05
8.09777e-05
6.22718e-05
0.000601201
0.000590814
0.000580055
0.000568918
0.000557401
0.000545501
0.000533216
0.000520545
0.000507491
0.000494053
0.000480236
0.000466044
0.000451482
0.000436558
0.00042128
0.000405659
0.000389707
0.000373438
0.000356867
0.000340011
0.000322888
0.000305521
0.00028793
0.000270141
0.000252179
0.00023407
0.000215845
0.000197533
0.000179166
0.000160776
0.000142397
0.000124064
0.000105812
8.76771e-05
6.96959e-05
0.000592631
0.000582368
0.00057175
0.000560775
0.000549439
0.00053774
0.000525677
0.000513252
0.000500464
0.000487317
0.000473813
0.000459958
0.000445758
0.00043122
0.000416352
0.000401166
0.000385673
0.000369886
0.000353821
0.000337493
0.000320922
0.000304126
0.000287128
0.000269949
0.000252615
0.000235151
0.000217584
0.000199942
0.000182256
0.000164555
0.000146872
0.000129237
0.000111686
9.42496e-05
7.69632e-05
0.000584292
0.000574159
0.000563689
0.000552879
0.000541728
0.000530234
0.000518397
0.000506218
0.000493699
0.000480842
0.000467651
0.000454132
0.00044029
0.000426132
0.000411669
0.00039691
0.000381867
0.000366552
0.000350981
0.000335169
0.000319133
0.000302893
0.000286469
0.000269882
0.000253155
0.000236313
0.000219382
0.000202387
0.000185356
0.000168318
0.000151303
0.00013434
0.00011746
0.000100694
8.40734e-05
0.000576184
0.000566186
0.000555869
0.00054523
0.000534268
0.000522982
0.000511373
0.000499442
0.000487192
0.000474625
0.000461745
0.000448558
0.00043507
0.000421289
0.000407224
0.000392884
0.000378281
0.000363428
0.000348339
0.000333029
0.000317515
0.000301814
0.000285946
0.000269932
0.000253793
0.000237552
0.000221232
0.00020486
0.00018846
0.00017206
0.000155686
0.000139368
0.000123132
0.000107009
9.10266e-05
0.000568307
0.000558449
0.000548289
0.000537825
0.000527055
0.000515981
0.000504601
0.00049292
0.000480938
0.000468659
0.000456088
0.000443231
0.000430093
0.000416682
0.000403008
0.00038908
0.000374908
0.000360506
0.000345887
0.000331066
0.000316058
0.00030088
0.000285552
0.000270091
0.00025452
0.000238858
0.000223129
0.000207356
0.000191564
0.000175776
0.000160019
0.000144319
0.000128701
0.000113194
9.78229e-05
0.000560661
0.000550949
0.00054095
0.000530663
0.000520089
0.000509227
0.000498079
0.000486646
0.000474932
0.000462941
0.000450677
0.000438145
0.000425352
0.000412306
0.000399016
0.00038549
0.00037174
0.000357779
0.000343617
0.000329271
0.000314755
0.000300084
0.000285278
0.000270353
0.000255329
0.000240226
0.000225066
0.00020987
0.000194661
0.000179462
0.000164297
0.00014919
0.000134165
0.000119248
0.000104463
0.000553246
0.000543683
0.000533848
0.000523743
0.000513365
0.000502718
0.000491801
0.000480618
0.000469171
0.000457465
0.000445504
0.000433293
0.000420841
0.000408153
0.000395239
0.000382108
0.00036877
0.000355237
0.000341521
0.000327637
0.000313597
0.000299418
0.000285116
0.000270709
0.000256214
0.00024165
0.000227038
0.000212397
0.000197749
0.000183115
0.000168517
0.000153979
0.000139522
0.00012517
0.000110946
0.00054606
0.00053665
0.000526983
0.00051706
0.000506882
0.000496449
0.000485764
0.00047483
0.000463648
0.000452224
0.000440563
0.00042867
0.000416552
0.000404216
0.000391671
0.000378925
0.000365989
0.000352874
0.000339592
0.000326155
0.000312578
0.000298874
0.000285061
0.000271153
0.000257168
0.000243123
0.000229038
0.00021493
0.000200821
0.00018673
0.000172677
0.000158684
0.000144771
0.000130961
0.000117273
0.000539103
0.000529848
0.000520351
0.000510614
0.000500636
0.000490418
0.000479965
0.000469277
0.000458359
0.000447215
0.00043585
0.000424269
0.000412479
0.000400488
0.000388303
0.000375934
0.00036339
0.000350681
0.00033782
0.000324818
0.000311689
0.000298445
0.000285103
0.000271677
0.000258184
0.000244639
0.00023106
0.000217466
0.000203874
0.000190303
0.000176773
0.000163302
0.000149911
0.000136619
0.000123446
0.000532373
0.000523276
0.000513951
0.0005044
0.000494622
0.00048462
0.000474397
0.000463955
0.000453298
0.00044243
0.000431356
0.000420083
0.000408616
0.000396962
0.00038513
0.000373127
0.000360965
0.000348652
0.000336199
0.000323618
0.000310922
0.000298124
0.000285237
0.000272276
0.000259256
0.000246192
0.000233101
0.000219999
0.000206904
0.000193833
0.000180803
0.000167833
0.000154941
0.000142145
0.000129463
0.000525868
0.000516931
0.00050778
0.000498415
0.000488838
0.000479051
0.000469057
0.000458858
0.000448459
0.000437864
0.000427077
0.000416105
0.000404954
0.000393631
0.000382142
0.000370498
0.000358706
0.000346777
0.000334721
0.000322548
0.000310272
0.000297903
0.000285455
0.000272942
0.000260378
0.000247777
0.000235154
0.000222525
0.000209907
0.000197314
0.000184764
0.000172273
0.000159859
0.000147537
0.000135326
0.000519586
0.00051081
0.000501833
0.000492656
0.000483279
0.000473707
0.00046394
0.000453982
0.000443838
0.000433511
0.000423006
0.00041233
0.000401488
0.000390487
0.000379334
0.000368038
0.000356607
0.000345051
0.000333378
0.000321601
0.000309729
0.000297775
0.000285751
0.00027367
0.000261544
0.000249388
0.000237215
0.00022504
0.000212878
0.000200744
0.000188654
0.000176622
0.000164665
0.000152797
0.000141036
0.000513524
0.000504911
0.000496109
0.000487118
0.000477942
0.000468581
0.00045904
0.00044932
0.000439427
0.000429364
0.000419136
0.00040875
0.00039821
0.000387524
0.000376698
0.000365741
0.00035466
0.000343465
0.000332164
0.000320769
0.000309289
0.000297735
0.000286119
0.000274452
0.000262748
0.000251019
0.000239278
0.000227539
0.000215815
0.000204121
0.00019247
0.000180877
0.000169357
0.000157924
0.000146593
0.00050768
0.00049923
0.000490602
0.000481799
0.000472821
0.000463671
0.000454352
0.000444867
0.000435221
0.000425417
0.000415461
0.000405358
0.000395113
0.000384734
0.000374226
0.000363598
0.000352857
0.000342012
0.000331071
0.000320045
0.000308942
0.000297774
0.000286551
0.000275284
0.000263986
0.000252667
0.00024134
0.000230018
0.000218714
0.000207441
0.000196211
0.000185038
0.000173936
0.000162918
0.000151998
0.00050205
0.000493764
0.000485311
0.000476693
0.000467912
0.00045897
0.000449871
0.000440618
0.000431214
0.000421665
0.000411975
0.000402148
0.000392191
0.00038211
0.000371912
0.000361603
0.000351192
0.000340685
0.000330093
0.000319422
0.000308684
0.000297887
0.000287043
0.00027616
0.000265251
0.000254326
0.000243396
0.000232475
0.000221572
0.000210701
0.000199874
0.000189103
0.000178401
0.000167779
0.000157251
0.000496632
0.000488509
0.00048023
0.000471796
0.00046321
0.000454474
0.000445592
0.000436566
0.000427401
0.000418101
0.00040867
0.000399113
0.000389437
0.000379646
0.000369748
0.000359749
0.000349657
0.000339478
0.000329221
0.000318895
0.000308507
0.000298068
0.000287587
0.000277074
0.000266538
0.000255991
0.000245442
0.000234904
0.000224386
0.000213901
0.000203459
0.000193071
0.000182751
0.000172508
0.000162355
0.000491423
0.000483462
0.000475355
0.000467104
0.000458711
0.000450178
0.000441509
0.000432706
0.000423774
0.000414718
0.00040554
0.000396247
0.000386843
0.000377335
0.000367728
0.000358029
0.000348245
0.000338383
0.00032845
0.000318455
0.000308406
0.000298311
0.000288179
0.00027802
0.000267843
0.000257658
0.000247474
0.000237303
0.000227153
0.000217036
0.000206962
0.000196941
0.000186985
0.000177104
0.000167309
0.000486418
0.000478619
0.000470683
0.000462612
0.000454409
0.000446076
0.000437616
0.000429032
0.000420329
0.00041151
0.000402579
0.000393542
0.000384404
0.00037517
0.000365845
0.000356437
0.000346951
0.000337394
0.000327774
0.000318098
0.000308374
0.00029861
0.000288814
0.000278995
0.000269162
0.000259323
0.000249489
0.000239668
0.00022987
0.000220105
0.000210383
0.000200712
0.000191104
0.000181569
0.000172114
0.000481614
0.000473975
0.000466209
0.000458316
0.0004503
0.000442163
0.000433908
0.000425539
0.000417059
0.000408471
0.000399781
0.000390993
0.000382112
0.000373143
0.000364092
0.000354964
0.000345766
0.000336505
0.000327186
0.000317817
0.000308405
0.000298959
0.000289485
0.000279992
0.000270488
0.000260982
0.000251482
0.000241996
0.000232535
0.000223106
0.000213719
0.000204384
0.000195108
0.000185901
0.000176772
0.000477007
0.000469527
0.000461927
0.00045421
0.000446378
0.000438434
0.00043038
0.00042222
0.000413957
0.000405596
0.00039714
0.000388593
0.000379962
0.00037125
0.000362463
0.000353606
0.000344686
0.000335708
0.000326679
0.000317606
0.000308494
0.000299353
0.000290188
0.000281007
0.000271819
0.00026263
0.00025345
0.000244285
0.000235145
0.000226037
0.000216971
0.000207954
0.000198995
0.000190102
0.000181284
0.000472594
0.000465271
0.000457835
0.00045029
0.000442639
0.000434883
0.000427025
0.000419069
0.000411018
0.000402877
0.000394648
0.000386336
0.000377946
0.000369483
0.000360951
0.000352356
0.000343703
0.000334999
0.000326249
0.000317459
0.000308636
0.000299787
0.000290918
0.000282036
0.00027315
0.000264265
0.00025539
0.000246531
0.000237698
0.000228897
0.000220136
0.000211423
0.000202766
0.000194172
0.00018565
0.00046837
0.000461201
0.000453927
0.000446552
0.000439077
0.000431505
0.000423839
0.000416082
0.000408237
0.000400309
0.0003923
0.000384215
0.000376059
0.000367836
0.00035955
0.000351207
0.000342812
0.000334371
0.000325888
0.000317371
0.000308824
0.000300255
0.00029167
0.000283075
0.000274476
0.000265882
0.000257298
0.000248733
0.000240192
0.000231683
0.000223213
0.00021479
0.00020642
0.000198112
0.000189871
0.000464332
0.000457314
0.000450199
0.000442989
0.000435687
0.000428294
0.000420815
0.000413251
0.000405607
0.000397885
0.00039009
0.000382225
0.000374295
0.000366303
0.000358255
0.000350154
0.000342007
0.000333818
0.000325593
0.000317336
0.000309055
0.000300754
0.00029244
0.000284118
0.000275796
0.000267478
0.000259173
0.000250886
0.000242624
0.000234393
0.000226201
0.000218054
0.000209958
0.000201921
0.000193948
0.000460475
0.000453606
0.000446646
0.000439598
0.000432464
0.000425247
0.000417949
0.000410573
0.000403123
0.000395601
0.000388012
0.00038036
0.000372647
0.000364878
0.000357058
0.000349191
0.000341282
0.000333336
0.000325357
0.000317351
0.000309323
0.000301278
0.000293223
0.000285163
0.000277103
0.000269051
0.000261011
0.000252989
0.000244993
0.000237028
0.000229099
0.000221215
0.00021338
0.0002056
0.000197883
0.000456795
0.000450071
0.000443263
0.000436373
0.000429403
0.000422356
0.000415234
0.000408041
0.000400778
0.000393451