/*--------------------------------*- C++ -*----------------------------------*\
| =========                 |                                                 |
| \\      /  F ield         | OpenFOAM: The Open Source CFD Toolbox           |
|  \\    /   O peration     | Version:  2412                                  |
|   \\  /    A nd           | Website:  www.openfoam.com                      |
|    \\/     M anipulation  |                                                 |
\*---------------------------------------------------------------------------*/
FoamFile
{
    version     2.0;
    format      ascii;
    arch        "LSB;label=32;scalar=64";
    class       volScalarField;
    location    "12";
    object      p;
}
// * * * * * * * * * * * * * * * * * * * * * * * * * * * * * * * * * * * * * //

dimensions      [0 2 -2 0 0 0 0];

internalField   nonuniform List<scalar> 
5285
(
-1.08929e-05
-1.02304e-05
-9.60181e-06
-9.00571e-06
-8.44064e-06
-7.90519e-06
-7.39801e-06
-6.91779e-06
-6.46328e-06
-6.03326e-06
-5.6266e-06
-5.24217e-06
-4.87894e-06
-4.53588e-06
-4.21203e-06
-3.90647e-06
-3.61833e-06
-3.34678e-06
-3.09101e-06
-2.85027e-06
-2.62381e-06
-2.41095e-06
-2.21102e-06
-2.0234e-06
-1.84748e-06
-1.68266e-06
-1.52841e-06
-1.38418e-06
-1.24946e-06
-1.12378e-06
-1.00664e-06
-8.97593e-07
-7.96206e-07
-7.02055e-07
-6.14745e-07
-5.33888e-07
-4.59113e-07
-3.90059e-07
-3.2638e-07
-2.67746e-07
-2.13822e-07
-1.64339e-07
-1.18911e-07
-7.74589e-08
-3.92261e-08
-5.05841e-09
2.78024e-08
5.40985e-08
8.58758e-08
9.87624e-08
1.42774e-07
1.20455e-07
2.17543e-07
9.36824e-08
3.52377e-07
-3.52551e-08
6.17816e-07
-3.3744e-07
1.0734e-06
-8.19161e-07
1.63642e-06
-1.25118e-06
1.91503e-06
-1.08455e-06
1.32158e-06
1.37218e-07
-1.81969e-07
1.84633e-06
-1.29538e-06
2.30973e-06
-1.13258e-07
-1.12543e-05
-1.05759e-05
-9.93197e-06
-9.32101e-06
-8.74153e-06
-8.19209e-06
-7.67132e-06
-7.17792e-06
-6.71061e-06
-6.26819e-06
-5.84949e-06
-5.45341e-06
-5.07889e-06
-4.72491e-06
-4.39052e-06
-4.07478e-06
-3.77683e-06
-3.49582e-06
-3.23097e-06
-2.9815e-06
-2.74668e-06
-2.52582e-06
-2.31824e-06
-2.12332e-06
-1.94044e-06
-1.76902e-06
-1.60848e-06
-1.45831e-06
-1.31797e-06
-1.18697e-06
-1.06482e-06
-9.51071e-07
-8.45262e-07
-7.46971e-07
-6.55789e-07
-5.71316e-07
-4.93177e-07
-4.20992e-07
-3.5441e-07
-2.93088e-07
-2.36678e-07
-1.84904e-07
-1.37365e-07
-9.39785e-08
-5.39576e-08
-1.81852e-08
1.62144e-08
4.37655e-08
7.69909e-08
9.06087e-08
1.36397e-07
1.13674e-07
2.13963e-07
8.6969e-08
3.52639e-07
-4.38006e-08
6.23405e-07
-3.49345e-07
1.0844e-06
-8.32877e-07
1.64839e-06
-1.25986e-06
1.91958e-06
-1.0814e-06
1.31663e-06
1.46556e-07
-1.84107e-07
1.84678e-06
-1.28538e-06
2.30056e-06
-1.00856e-07
-1.16067e-05
-1.09133e-05
-1.02547e-05
-9.62947e-06
-9.03613e-06
-8.47321e-06
-7.93934e-06
-7.43319e-06
-6.95349e-06
-6.49903e-06
-6.06864e-06
-5.66121e-06
-5.27569e-06
-4.91106e-06
-4.56636e-06
-4.24066e-06
-3.9331e-06
-3.64283e-06
-3.36907e-06
-3.11103e-06
-2.86799e-06
-2.63925e-06
-2.42415e-06
-2.22204e-06
-2.03231e-06
-1.85437e-06
-1.68765e-06
-1.5316e-06
-1.38571e-06
-1.24947e-06
-1.12238e-06
-1.00398e-06
-8.93802e-07
-7.91419e-07
-6.9641e-07
-6.08364e-07
-5.26896e-07
-4.51615e-07
-3.82161e-07
-3.18179e-07
-2.5931e-07
-2.05268e-07
-1.55639e-07
-1.10338e-07
-6.8546e-08
-3.1185e-08
4.73684e-09
3.35342e-08
6.81877e-08
8.25341e-08
1.30083e-07
1.06944e-07
2.10439e-07
8.02781e-08
3.52957e-07
-5.23742e-08
6.29116e-07
-3.61439e-07
1.09572e-06
-8.47109e-07
1.66107e-06
-1.26955e-06
1.92524e-06
-1.07942e-06
1.31233e-06
1.55889e-07
-1.8781e-07
1.84989e-06
-1.28005e-06
2.29606e-06
-9.75462e-08
-1.19503e-05
-1.12424e-05
-1.05698e-05
-9.93098e-06
-9.32435e-06
-8.74848e-06
-8.20198e-06
-7.68352e-06
-7.19184e-06
-6.7257e-06
-6.28396e-06
-5.8655e-06
-5.46927e-06
-5.09425e-06
-4.73949e-06
-4.40406e-06
-4.08709e-06
-3.78775e-06
-3.50524e-06
-3.2388e-06
-2.98769e-06
-2.75121e-06
-2.52871e-06
-2.31953e-06
-2.12305e-06
-1.93869e-06
-1.76587e-06
-1.60404e-06
-1.45267e-06
-1.31126e-06
-1.17929e-06
-1.0563e-06
-9.41806e-07
-8.35381e-07
-7.3659e-07
-6.45013e-07
-5.60255e-07
-4.81914e-07
-4.0962e-07
-3.43007e-07
-2.81706e-07
-2.25421e-07
-1.73725e-07
-1.26529e-07
-8.2986e-08
-4.40517e-08
-6.62529e-09
2.34072e-08
5.94712e-08
7.45433e-08
1.23826e-07
1.00292e-07
2.06927e-07
7.36891e-08
3.5321e-07
-6.07795e-08
6.34644e-07
-3.73269e-07
1.10676e-06
-8.6106e-07
1.67351e-06
-1.27918e-06
1.93093e-06
-1.07768e-06
1.30806e-06
1.65397e-07
-1.92713e-07
1.85483e-06
-1.27832e-06
2.29532e-06
-1.02456e-07
-1.22847e-05
-1.15633e-05
-1.08773e-05
-1.02255e-05
-9.6061e-06
-9.0178e-06
-8.45915e-06
-7.92884e-06
-7.42557e-06
-6.94815e-06
-6.4954e-06
-6.06623e-06
-5.65957e-06
-5.27444e-06
-4.90986e-06
-4.56492e-06
-4.23875e-06
-3.93053e-06
-3.63945e-06
-3.36476e-06
-3.10573e-06
-2.86166e-06
-2.63188e-06
-2.41574e-06
-2.21263e-06
-2.02195e-06
-1.84312e-06
-1.67559e-06
-1.51883e-06
-1.37231e-06
-1.23553e-06
-1.108e-06
-9.89254e-07
-8.78838e-07
-7.76313e-07
-6.81249e-07
-5.9324e-07
-5.11876e-07
-4.36775e-07
-3.67562e-07
-3.03858e-07
-2.45355e-07
-1.91614e-07
-1.42545e-07
-9.72711e-08
-5.678e-08
-1.78669e-08
1.3389e-08
5.08448e-08
6.66407e-08
1.17625e-07
9.37248e-08
2.03422e-07
6.7213e-08
3.53384e-07
-6.89908e-08
6.39952e-07
-3.84778e-07
1.11742e-06
-8.74624e-07
1.68558e-06
-1.28858e-06
1.93648e-06
-1.07602e-06
1.30371e-06
1.75118e-07
-1.98741e-07
1.86144e-06
-1.2799e-06
2.29807e-06
-1.15039e-07
-1.261e-05
-1.18756e-05
-1.11771e-05
-1.05128e-05
-9.8813e-06
-9.2811e-06
-8.7108e-06
-8.16907e-06
-7.65464e-06
-7.1663e-06
-6.70289e-06
-6.26332e-06
-5.84655e-06
-5.45156e-06
-5.07741e-06
-4.72319e-06
-4.38803e-06
-4.07112e-06
-3.77166e-06
-3.48889e-06
-3.22209e-06
-2.97056e-06
-2.73363e-06
-2.51065e-06
-2.30101e-06
-2.10411e-06
-1.91937e-06
-1.74623e-06
-1.58414e-06
-1.4326e-06
-1.29107e-06
-1.15907e-06
-1.03613e-06
-9.21774e-07
-8.15564e-07
-7.17057e-07
-6.25839e-07
-5.41488e-07
-4.63615e-07
-3.91835e-07
-3.25755e-07
-2.65061e-07
-2.09301e-07
-1.58379e-07
-1.11395e-07
-6.93651e-08
-2.89831e-08
3.48317e-09
4.23123e-08
5.88289e-08
1.11486e-07
8.72423e-08
1.99932e-07
6.08446e-08
3.53492e-07
-7.70243e-08
6.45068e-07
-3.96004e-07
1.12777e-06
-8.87864e-07
1.69735e-06
-1.29784e-06
1.94197e-06
-1.07449e-06
1.2993e-06
1.85041e-07
-2.05874e-07
1.86968e-06
-1.28471e-06
2.30421e-06
-1.34795e-07
-1.29261e-05
-1.21795e-05
-1.1469e-05
-1.0793e-05
-1.01499e-05
-9.53832e-06
-8.95685e-06
-8.40416e-06
-7.87898e-06
-7.3801e-06
-6.90639e-06
-6.45674e-06
-6.03013e-06
-5.62556e-06
-5.24209e-06
-4.87882e-06
-4.53489e-06
-4.20949e-06
-3.90182e-06
-3.61113e-06
-3.33672e-06
-3.07787e-06
-2.83392e-06
-2.60423e-06
-2.38817e-06
-2.18515e-06
-1.99459e-06
-1.81592e-06
-1.6486e-06
-1.4921e-06
-1.3459e-06
-1.2095e-06
-1.08241e-06
-9.64173e-07
-8.54326e-07
-7.52422e-07
-6.58037e-07
-5.7074e-07
-4.90131e-07
-4.15814e-07
-3.47389e-07
-2.84531e-07
-2.26776e-07
-1.74026e-07
-1.25352e-07
-8.18017e-08
-3.9969e-08
-6.30605e-09
3.38774e-08
5.1111e-08
1.0541e-07
8.08459e-08
1.9646e-07
5.45829e-08
3.53541e-07
-8.48864e-08
6.50006e-07
-4.06962e-07
1.13783e-06
-9.00803e-07
1.70885e-06
-1.30698e-06
1.94741e-06
-1.0731e-06
1.29483e-06
1.95158e-07
-2.14068e-07
1.87949e-06
-1.29259e-06
2.31358e-06
-1.61151e-07
-1.32328e-05
-1.24748e-05
-1.1753e-05
-1.10659e-05
-1.04118e-05
-9.78941e-06
-9.19726e-06
-8.63405e-06
-8.09853e-06
-7.5895e-06
-7.10583e-06
-6.64643e-06
-6.21028e-06
-5.79641e-06
-5.40387e-06
-5.03178e-06
-4.67929e-06
-4.34558e-06
-4.02989e-06
-3.73146e-06
-3.44958e-06
-3.18355e-06
-2.93272e-06
-2.69643e-06
-2.47408e-06
-2.26505e-06
-2.06876e-06
-1.88466e-06
-1.71218e-06
-1.5508e-06
-1.39999e-06
-1.25925e-06
-1.12808e-06
-1.00602e-06
-8.92586e-07
-7.87332e-07
-6.89824e-07
-5.99619e-07
-5.1631e-07
-4.39492e-07
-3.68751e-07
-3.03757e-07
-2.44034e-07
-1.89478e-07
-1.39135e-07
-9.40846e-08
-5.08201e-08
-1.59746e-08
2.55439e-08
4.34901e-08
9.94015e-08
7.4538e-08
1.93008e-07
4.84291e-08
3.53532e-07
-9.25773e-08
6.54769e-07
-4.17653e-07
1.14759e-06
-9.1344e-07
1.72007e-06
-1.31597e-06
1.95278e-06
-1.07181e-06
1.2903e-06
2.05463e-07
-2.23261e-07
1.89075e-06
-1.30335e-06
2.32599e-06
-1.93485e-07
-1.35302e-05
-1.27615e-05
-1.20291e-05
-1.13315e-05
-1.0667e-05
-1.00343e-05
-9.43197e-06
-8.8587e-06
-8.31326e-06
-7.79445e-06
-7.30117e-06
-6.83234e-06
-6.38695e-06
-5.96404e-06
-5.56269e-06
-5.18201e-06
-4.82117e-06
-4.47937e-06
-4.15583e-06
-3.84983e-06
-3.56064e-06
-3.28758e-06
-3.03e-06
-2.78724e-06
-2.55869e-06
-2.34376e-06
-2.14185e-06
-1.9524e-06
-1.77485e-06
-1.60867e-06
-1.45333e-06
-1.30831e-06
-1.17313e-06
-1.04729e-06
-9.30328e-07
-8.21772e-07
-7.21186e-07
-6.28114e-07
-5.42142e-07
-4.62857e-07
-3.89833e-07
-3.22732e-07
-2.61067e-07
-2.0473e-07
-1.52741e-07
-1.06209e-07
-6.15319e-08
-2.55186e-08
1.73152e-08
3.59692e-08
9.34627e-08
6.83206e-08
1.89579e-07
4.23842e-08
3.5347e-07
-1.00097e-07
6.59359e-07
-4.28079e-07
1.15706e-06
-9.25773e-07
1.73102e-06
-1.32481e-06
1.95807e-06
-1.07062e-06
1.2857e-06
2.15946e-07
-2.3339e-07
1.90335e-06
-1.31677e-06
2.34121e-06
-2.31161e-07
-1.38181e-05
-1.30395e-05
-1.22973e-05
-1.15897e-05
-1.09154e-05
-1.0273e-05
-9.66095e-06
-9.07807e-06
-8.52311e-06
-7.99491e-06
-7.49237e-06
-7.01443e-06
-6.5601e-06
-6.12843e-06
-5.71852e-06
-5.32948e-06
-4.96051e-06
-4.61081e-06
-4.27961e-06
-3.9662e-06
-3.66986e-06
-3.38992e-06
-3.12572e-06
-2.87662e-06
-2.642e-06
-2.42127e-06
-2.21383e-06
-2.01913e-06
-1.83659e-06
-1.66569e-06
-1.50589e-06
-1.35667e-06
-1.21753e-06
-1.08798e-06
-9.67538e-07
-8.5573e-07
-7.5211e-07
-6.56213e-07
-5.67618e-07
-4.85901e-07
-4.10626e-07
-3.41448e-07
-2.77868e-07
-2.19774e-07
-1.66162e-07
-1.18169e-07
-7.20998e-08
-3.4934e-08
9.19506e-09
2.85513e-08
8.75967e-08
6.21958e-08
1.86175e-07
3.6449e-08
3.53357e-07
-1.07447e-07
6.63782e-07
-4.38241e-07
1.16625e-06
-9.37803e-07
1.74168e-06
-1.33349e-06
1.96325e-06
-1.06949e-06
1.28101e-06
2.26596e-07
-2.4439e-07
1.9172e-06
-1.33265e-06
2.35904e-06
-2.73546e-07
-1.40966e-05
-1.33089e-05
-1.25574e-05
-1.18406e-05
-1.11571e-05
-1.05054e-05
-9.88415e-06
-9.29211e-06
-8.72806e-06
-8.19085e-06
-7.67939e-06
-7.19267e-06
-6.72969e-06
-6.28954e-06
-5.87131e-06
-5.47415e-06
-5.09726e-06
-4.73986e-06
-4.40119e-06
-4.08054e-06
-3.77722e-06
-3.49054e-06
-3.21986e-06
-2.96454e-06
-2.72396e-06
-2.49754e-06
-2.28468e-06
-2.08482e-06
-1.89739e-06
-1.72184e-06
-1.55765e-06
-1.4043e-06
-1.26127e-06
-1.12806e-06
-1.0042e-06
-8.89191e-07
-7.82585e-07
-6.83906e-07
-5.92727e-07
-5.08615e-07
-4.31121e-07
-3.59896e-07
-2.9443e-07
-2.34605e-07
-1.79394e-07
-1.29961e-07
-8.25196e-08
-4.4217e-08
1.18689e-09
2.12394e-08
8.18064e-08
5.61656e-08
1.82801e-07
3.06242e-08
3.53196e-07
-1.14629e-07
6.68041e-07
-4.48144e-07
1.17516e-06
-9.49532e-07
1.75206e-06
-1.34201e-06
1.96832e-06
-1.06842e-06
1.27624e-06
2.37399e-07
-2.56194e-07
1.93219e-06
-1.35079e-06
2.37925e-06
-3.20026e-07
-1.43656e-05
-1.35695e-05
-1.28095e-05
-1.20841e-05
-1.13919e-05
-1.07315e-05
-1.01016e-05
-9.5008e-06
-8.92806e-06
-8.38222e-06
-7.8622e-06
-7.36701e-06
-6.89569e-06
-6.44732e-06
-6.02103e-06
-5.61599e-06
-5.2314e-06
-4.86649e-06
-4.52054e-06
-4.19282e-06
-3.88267e-06
-3.5894e-06
-3.31238e-06
-3.05096e-06
-2.80456e-06
-2.57256e-06
-2.35438e-06
-2.14945e-06
-1.95721e-06
-1.77711e-06
-1.6086e-06
-1.45119e-06
-1.30433e-06
-1.16753e-06
-1.0403e-06
-9.22142e-07
-8.12598e-07
-7.1118e-07
-6.17458e-07
-5.30989e-07
-4.5131e-07
-3.7807e-07
-3.10746e-07
-2.49217e-07
-1.9243e-07
-1.41579e-07
-9.27868e-08
-5.33638e-08
-6.70581e-09
1.40362e-08
7.60946e-08
5.02319e-08
1.79457e-07
2.49107e-08
3.52991e-07
-1.21642e-07
6.72141e-07
-4.57789e-07
1.18379e-06
-9.6096e-07
1.76216e-06
-1.35034e-06
1.97328e-06
-1.06739e-06
1.27138e-06
2.48338e-07
-2.68733e-07
1.94819e-06
-1.37097e-06
2.40162e-06
-3.70012e-07
-1.46252e-05
-1.38214e-05
-1.30536e-05
-1.23202e-05
-1.16199e-05
-1.09514e-05
-1.03132e-05
-9.70412e-06
-9.1231e-06
-8.56899e-06
-8.04076e-06
-7.53743e-06
-7.05805e-06
-6.60174e-06
-6.16764e-06
-5.75495e-06
-5.36287e-06
-4.99067e-06
-4.63761e-06
-4.30301e-06
-3.98618e-06
-3.68648e-06
-3.40325e-06
-3.13588e-06
-2.88375e-06
-2.64629e-06
-2.42289e-06
-2.21299e-06
-2.01603e-06
-1.83146e-06
-1.65872e-06
-1.49732e-06
-1.34669e-06
-1.20637e-06
-1.07583e-06
-9.54571e-07
-8.42138e-07
-7.38027e-07
-6.41802e-07
-5.53014e-07
-4.71186e-07
-3.95962e-07
-3.26811e-07
-2.63604e-07
-2.05266e-07
-1.53019e-07
-1.02897e-07
-6.23706e-08
-1.44796e-08
6.94467e-09
7.04641e-08
4.43968e-08
1.76146e-07
1.9309e-08
3.52744e-07
-1.28488e-07
6.76085e-07
-4.67179e-07
1.19215e-06
-9.72088e-07
1.77197e-06
-1.3585e-06
1.9781e-06
-1.06638e-06
1.26643e-06
2.59396e-07
-2.8194e-07
1.96512e-06
-1.39299e-06
2.42594e-06
-4.22946e-07
-1.48754e-05
-1.40646e-05
-1.32896e-05
-1.25489e-05
-1.18411e-05
-1.11649e-05
-1.05189e-05
-9.90205e-06
-9.31315e-06
-8.75116e-06
-8.21505e-06
-7.70389e-06
-7.21675e-06
-6.75277e-06
-6.31112e-06
-5.891e-06
-5.49166e-06
-5.11236e-06
-4.75239e-06
-4.41107e-06
-4.08774e-06
-3.78174e-06
-3.49245e-06
-3.21924e-06
-2.96153e-06
-2.71871e-06
-2.4902e-06
-2.27543e-06
-2.07384e-06
-1.88488e-06
-1.70799e-06
-1.54267e-06
-1.38835e-06
-1.24455e-06
-1.11077e-06
-9.86465e-07
-8.71193e-07
-7.64433e-07
-6.65748e-07
-5.74682e-07
-4.90739e-07
-4.13565e-07
-3.42616e-07
-2.7776e-07
-2.17896e-07
-1.64276e-07
-1.12846e-07
-7.12338e-08
-2.21311e-08
-3.24379e-11
6.49178e-08
3.86621e-08
1.72873e-07
1.38197e-08
3.52459e-07
-1.35169e-07
6.79879e-07
-4.76316e-07
1.20025e-06
-9.82918e-07
1.78151e-06
-1.36647e-06
1.98279e-06
-1.0654e-06
1.2614e-06
2.70553e-07
-2.95745e-07
1.98286e-06
-1.41665e-06
2.45198e-06
-4.78304e-07
-1.51162e-05
-1.42992e-05
-1.35177e-05
-1.27702e-05
-1.20555e-05
-1.13721e-05
-1.07188e-05
-1.00946e-05
-9.4982e-06
-8.92869e-06
-8.38505e-06
-7.86637e-06
-7.37176e-06
-6.90038e-06
-6.45143e-06
-6.02412e-06
-5.61773e-06
-5.23153e-06
-4.86483e-06
-4.51697e-06
-4.18729e-06
-3.87515e-06
-3.57994e-06
-3.30104e-06
-3.03785e-06
-2.78979e-06
-2.55628e-06
-2.33674e-06
-2.13061e-06
-1.93735e-06
-1.75638e-06
-1.58722e-06
-1.42928e-06
-1.28208e-06
-1.1451e-06
-1.01781e-06
-8.99751e-07
-7.9039e-07
-6.89288e-07
-5.95983e-07
-5.09962e-07
-4.3087e-07
-3.58155e-07
-2.91678e-07
-2.30316e-07
-1.75345e-07
-1.2263e-07
-7.99497e-08
-2.9657e-08
-6.89241e-09
5.94583e-08
3.30296e-08
1.69638e-07
8.44343e-09
3.52139e-07
-1.41685e-07
6.83526e-07
-4.85205e-07
1.20808e-06
-9.9345e-07
1.79076e-06
-1.37424e-06
1.98733e-06
-1.06442e-06
1.25629e-06
2.8179e-07
-3.10079e-07
2.00132e-06
-1.44174e-06
2.47954e-06
-5.35601e-07
-1.53476e-05
-1.45252e-05
-1.37378e-05
-1.29842e-05
-1.2263e-05
-1.1573e-05
-1.09129e-05
-1.02817e-05
-9.67823e-06
-9.10156e-06
-8.55074e-06
-8.02485e-06
-7.52306e-06
-7.04455e-06
-6.58854e-06
-6.15428e-06
-5.74105e-06
-5.34815e-06
-4.97492e-06
-4.62069e-06
-4.28482e-06
-3.9667e-06
-3.6657e-06
-3.38123e-06
-3.1127e-06
-2.85952e-06
-2.62111e-06
-2.3969e-06
-2.18633e-06
-1.98885e-06
-1.80389e-06
-1.63096e-06
-1.46947e-06
-1.31892e-06
-1.17882e-06
-1.0486e-06
-9.27802e-07
-8.15887e-07
-7.12412e-07
-6.16909e-07
-5.28847e-07
-4.47871e-07
-3.73423e-07
-3.05354e-07
-2.4252e-07
-1.86221e-07
-1.32244e-07
-8.85147e-08
-3.7054e-08
-1.36326e-08
5.40884e-08
2.75011e-08
1.66444e-07
3.18076e-09
3.51786e-07
-1.48038e-07
6.87031e-07
-4.93846e-07
1.21565e-06
-1.00369e-06
1.79972e-06
-1.38181e-06
1.99173e-06
-1.06345e-06
1.2511e-06
2.93084e-07
-3.24874e-07
2.02038e-06
-1.46807e-06
2.50841e-06
-5.94388e-07
-1.55698e-05
-1.47426e-05
-1.395e-05
-1.31908e-05
-1.24638e-05
-1.17676e-05
-1.11012e-05
-1.04634e-05
-9.85324e-06
-9.26978e-06
-8.71209e-06
-8.17932e-06
-7.67063e-06
-7.18525e-06
-6.72243e-06
-6.28145e-06
-5.8616e-06
-5.4622e-06
-5.08261e-06
-4.72219e-06
-4.3803e-06
-4.05634e-06
-3.74971e-06
-3.45981e-06
-3.18605e-06
-2.92786e-06
-2.68466e-06
-2.45588e-06
-2.24096e-06
-2.03936e-06
-1.85049e-06
-1.67387e-06
-1.5089e-06
-1.35508e-06
-1.21191e-06
-1.07881e-06
-9.55335e-07
-8.40913e-07
-7.35109e-07
-6.37452e-07
-5.47387e-07
-4.64561e-07
-3.88413e-07
-3.18782e-07
-2.54503e-07
-1.96901e-07
-1.41685e-07
-9.69257e-08
-4.43192e-08
-2.02506e-08
4.88105e-08
2.20783e-08
1.63295e-07
-1.96782e-09
3.51405e-07
-1.54228e-07
6.90398e-07
-5.02242e-07
1.22296e-06
-1.01363e-06
1.80841e-06
-1.38918e-06
1.99597e-06
-1.06246e-06
1.24585e-06
3.04415e-07
-3.40064e-07
2.03996e-06
-1.49546e-06
2.53838e-06
-6.54253e-07
-1.57828e-05
-1.49514e-05
-1.41543e-05
-1.33902e-05
-1.26578e-05
-1.1956e-05
-1.12836e-05
-1.06397e-05
-1.00232e-05
-9.43333e-06
-8.86911e-06
-8.32974e-06
-7.81445e-06
-7.32247e-06
-6.85308e-06
-6.4056e-06
-5.97934e-06
-5.57365e-06
-5.18789e-06
-4.82145e-06
-4.4737e-06
-4.14406e-06
-3.83194e-06
-3.53674e-06
-3.25788e-06
-2.9948e-06
-2.74692e-06
-2.51368e-06
-2.2945e-06
-2.08886e-06
-1.89616e-06
-1.71594e-06
-1.54755e-06
-1.39052e-06
-1.24436e-06
-1.10844e-06
-9.82339e-07
-8.65459e-07
-7.57372e-07
-6.57603e-07
-5.65573e-07
-4.80932e-07
-4.03118e-07
-3.31957e-07
-2.6626e-07
-2.0738e-07
-1.50949e-07
-1.05179e-07
-5.14492e-08
-2.67438e-08
4.36275e-08
1.67631e-08
1.60193e-07
-7.00183e-09
3.50997e-07
-1.60257e-07
6.9363e-07
-5.10397e-07
1.23003e-06
-1.02328e-06
1.81681e-06
-1.39634e-06
2.00004e-06
-1.06147e-06
1.24054e-06
3.15759e-07
-3.55581e-07
2.05996e-06
-1.52373e-06
2.56927e-06
-7.14816e-07
-1.59867e-05
-1.51519e-05
-1.43508e-05
-1.35823e-05
-1.28451e-05
-1.21381e-05
-1.14602e-05
-1.08106e-05
-1.01882e-05
-9.59221e-06
-9.02178e-06
-8.47612e-06
-7.95449e-06
-7.45617e-06
-6.98047e-06
-6.52671e-06
-6.09426e-06
-5.68247e-06
-5.29073e-06
-4.91844e-06
-4.565e-06
-4.22983e-06
-3.91235e-06
-3.61199e-06
-3.32817e-06
-3.06031e-06
-2.80787e-06
-2.57026e-06
-2.34693e-06
-2.13734e-06
-1.9409e-06
-1.75714e-06
-1.58542e-06
-1.42525e-06
-1.27615e-06
-1.13748e-06
-1.0088e-06
-8.89515e-07
-7.79189e-07
-6.77354e-07
-5.83398e-07
-4.96978e-07
-4.17532e-07
-3.44872e-07
-2.77786e-07
-2.17654e-07
-1.60031e-07
-1.13273e-07
-5.84415e-08
-3.31097e-08
3.85417e-08
1.15572e-08
1.5714e-07
-1.19208e-08
3.50567e-07
-1.66125e-07
6.96731e-07
-5.18313e-07
1.23685e-06
-1.03263e-06
1.82494e-06
-1.40329e-06
2.00396e-06
-1.06045e-06
1.23517e-06
3.27096e-07
-3.71361e-07
2.08028e-06
-1.55269e-06
2.60088e-06
-7.75729e-07
-1.61817e-05
-1.53441e-05
-1.45396e-05
-1.37672e-05
-1.30257e-05
-1.2314e-05
-1.16311e-05
-1.09761e-05
-1.03482e-05
-9.74642e-06
-9.1701e-06
-8.61845e-06
-8.09076e-06
-7.58635e-06
-7.10457e-06
-6.64477e-06
-6.20633e-06
-5.78864e-06
-5.39111e-06
-5.01314e-06
-4.65417e-06
-4.31363e-06
-3.99094e-06
-3.68555e-06
-3.39689e-06
-3.12438e-06
-2.86748e-06
-2.62561e-06
-2.39821e-06
-2.18477e-06
-1.98467e-06
-1.79747e-06
-1.62249e-06
-1.45925e-06
-1.30727e-06
-1.16591e-06
-1.03472e-06
-9.13072e-07
-8.00553e-07
-6.96698e-07
-6.00855e-07
-5.12691e-07
-4.31651e-07
-3.57525e-07
-2.89077e-07
-2.27719e-07
-1.68929e-07
-1.21203e-07
-6.52929e-08
-3.93458e-08
3.35559e-08
6.4628e-09
1.54139e-07
-1.67243e-08
3.50118e-07
-1.71835e-07
6.99706e-07
-5.25994e-07
1.24343e-06
-1.0417e-06
1.83278e-06
-1.41002e-06
2.00771e-06
-1.05942e-06
1.22977e-06
3.384e-07
-3.8734e-07
2.10084e-06
-1.5822e-06
2.63305e-06
-8.36674e-07
2.01129e-06
-1.05836e-06
1.22433e-06
3.49651e-07
-4.03456e-07
2.12155e-06
-1.61207e-06
2.66558e-06
-8.9736e-07
2.26829e-05
2.15652e-05
2.04837e-05
1.94384e-05
1.84291e-05
1.74556e-05
1.65175e-05
1.56147e-05
1.47466e-05
1.39128e-05
1.3113e-05
1.23465e-05
1.16128e-05
1.09113e-05
1.02413e-05
9.60233e-06
8.99353e-06
8.41424e-06
7.8637e-06
7.34114e-06
6.84579e-06
6.37682e-06
5.93343e-06
5.51479e-06
5.12006e-06
4.7484e-06
4.39897e-06
4.0709e-06
3.76335e-06
3.47547e-06
3.20642e-06
2.95535e-06
2.72145e-06
2.50389e-06
2.30187e-06
2.11457e-06
1.94123e-06
1.78107e-06
1.63334e-06
1.49729e-06
1.37222e-06
1.25742e-06
1.15222e-06
1.05594e-06
9.6794e-07
8.87591e-07
8.14289e-07
7.47433e-07
6.86455e-07
6.30788e-07
5.79868e-07
5.33166e-07
4.90025e-07
4.50204e-07
4.12027e-07
3.78292e-07
3.38018e-07
3.19819e-07
2.44303e-07
3.05404e-07
5.82369e-08
4.0823e-07
-2.64592e-07
4.19784e-07
-8.26296e-08
-8.19894e-07
1.2784e-06
-1.78433e-06
-9.03466e-07
9.67672e-08
2.25957e-05
2.14825e-05
2.04054e-05
1.93643e-05
1.83591e-05
1.73895e-05
1.64553e-05
1.55561e-05
1.46915e-05
1.38611e-05
1.30645e-05
1.23011e-05
1.15703e-05
1.08716e-05
1.02043e-05
9.56785e-06
8.96144e-06
8.38441e-06
7.83601e-06
7.31547e-06
6.82201e-06
6.35483e-06
5.91312e-06
5.49606e-06
5.10281e-06
4.73254e-06
4.38439e-06
4.05753e-06
3.7511e-06
3.46427e-06
3.19619e-06
2.94603e-06
2.71297e-06
2.49618e-06
2.29487e-06
2.10824e-06
1.93551e-06
1.7759e-06
1.62868e-06
1.49311e-06
1.36847e-06
1.25407e-06
1.14923e-06
1.05328e-06
9.65585e-07
8.8551e-07
8.12457e-07
7.45829e-07
6.8506e-07
6.29584e-07
5.78839e-07
5.32301e-07
4.89303e-07
4.49642e-07
4.11544e-07
3.78102e-07
3.37518e-07
3.20587e-07
2.42523e-07
3.09738e-07
5.08627e-08
4.22707e-07
-2.82925e-07
4.44232e-07
-9.46835e-08
-8.20937e-07
1.31224e-06
-1.83391e-06
-8.11333e-07
9.74998e-08
2.24265e-05
2.13221e-05
2.02535e-05
1.92207e-05
1.82234e-05
1.72615e-05
1.63347e-05
1.54425e-05
1.45848e-05
1.37609e-05
1.29705e-05
1.22131e-05
1.1488e-05
1.07947e-05
1.01326e-05
9.501e-06
8.89923e-06
8.32658e-06
7.78231e-06
7.26568e-06
6.77591e-06
6.3122e-06
5.87375e-06
5.45975e-06
5.06937e-06
4.70177e-06
4.35613e-06
4.0316e-06
3.72736e-06
3.44255e-06
3.17636e-06
2.92795e-06
2.69651e-06
2.48122e-06
2.2813e-06
2.09595e-06
1.9244e-06
1.76588e-06
1.61966e-06
1.485e-06
1.3612e-06
1.24757e-06
1.14343e-06
1.04812e-06
9.61011e-07
8.81469e-07
8.08903e-07
7.42718e-07
6.82353e-07
6.27248e-07
5.76841e-07
5.30619e-07
4.87905e-07
4.48543e-07
4.10633e-07
3.77647e-07
3.36799e-07
3.21399e-07
2.40786e-07
3.1411e-07
4.51264e-08
4.33838e-07
-2.92409e-07
4.56589e-07
-9.7557e-08
-8.06829e-07
1.30508e-06
-1.8077e-06
-7.12893e-07
5.86939e-08
2.2181e-05
2.10893e-05
2.00331e-05
1.90122e-05
1.80265e-05
1.70757e-05
1.61596e-05
1.52778e-05
1.44299e-05
1.36155e-05
1.28342e-05
1.20854e-05
1.13686e-05
1.06832e-05
1.00285e-05
9.40401e-06
8.80895e-06
8.24266e-06
7.7044e-06
7.19344e-06
6.70901e-06
6.25034e-06
5.81662e-06
5.40705e-06
5.02083e-06
4.65712e-06
4.31511e-06
3.99398e-06
3.69289e-06
3.41103e-06
3.14757e-06
2.9017e-06
2.67262e-06
2.45951e-06
2.2616e-06
2.07811e-06
1.90827e-06
1.75133e-06
1.60655e-06
1.47323e-06
1.35065e-06
1.23813e-06
1.13501e-06
1.04063e-06
9.5437e-07
8.75601e-07
8.0374e-07
7.38199e-07
6.78422e-07
6.23854e-07
5.7394e-07
5.28177e-07
4.85873e-07
4.46943e-07
4.09314e-07
3.76968e-07
3.35807e-07
3.22426e-07
2.38637e-07
3.1961e-07
3.84199e-08
4.47367e-07
-3.02764e-07
4.71926e-07
-9.94601e-08
-7.86962e-07
1.2964e-06
-1.77634e-06
-5.9726e-07
9.8837e-09
2.18644e-05
2.07891e-05
1.97489e-05
1.87435e-05
1.77727e-05
1.68363e-05
1.5934e-05
1.50655e-05
1.42303e-05
1.34282e-05
1.26585e-05
1.19209e-05
1.12147e-05
1.05394e-05
9.89441e-06
9.27903e-06
8.69264e-06
8.13454e-06
7.60402e-06
7.10037e-06
6.62282e-06
6.17063e-06
5.743e-06
5.33915e-06
4.95827e-06
4.59958e-06
4.26225e-06
3.94549e-06
3.64848e-06
3.3704e-06
3.11047e-06
2.86787e-06
2.64182e-06
2.43152e-06
2.23621e-06
2.05511e-06
1.88748e-06
1.73257e-06
1.58966e-06
1.45805e-06
1.33704e-06
1.22596e-06
1.12415e-06
1.03098e-06
9.45807e-07
8.68035e-07
7.97084e-07
7.32372e-07
6.73353e-07
6.19478e-07
5.70198e-07
5.25026e-07
4.83252e-07
4.44881e-07
4.0761e-07
3.76093e-07
3.34527e-07
3.23725e-07
2.35932e-07
3.26521e-07
3.00481e-08
4.64552e-07
-3.16412e-07
4.93277e-07
-1.04187e-07
-7.62419e-07
1.29448e-06
-1.75447e-06
-4.5973e-07
-4.21762e-08
2.14821e-05
2.04268e-05
1.94059e-05
1.84191e-05
1.74663e-05
1.65473e-05
1.56617e-05
1.48092e-05
1.39895e-05
1.32021e-05
1.24466e-05
1.17224e-05
1.10291e-05
1.0366e-05
9.73259e-06
9.12823e-06
8.55228e-06
8.00407e-06
7.48289e-06
6.98805e-06
6.51882e-06
6.07443e-06
5.65415e-06
5.25719e-06
4.88278e-06
4.53013e-06
4.19845e-06
3.88696e-06
3.59486e-06
3.32136e-06
3.06568e-06
2.82704e-06
2.60464e-06
2.39774e-06
2.20555e-06
2.02734e-06
1.86237e-06
1.70992e-06
1.56926e-06
1.43972e-06
1.32061e-06
1.21127e-06
1.11104e-06
1.01931e-06
9.35465e-07
8.58898e-07
7.89045e-07
7.25336e-07
6.67231e-07
6.14193e-07
5.65678e-07
5.21221e-07
4.80083e-07
4.42392e-07
4.05543e-07
3.75045e-07
3.32956e-07
3.25309e-07
2.32652e-07
3.34784e-07
2.01059e-08
4.84971e-07
-3.32811e-07
5.19452e-07
-1.11226e-07
-7.33805e-07
1.29764e-06
-1.74036e-06
-3.03008e-07
-1.01238e-07
2.10394e-05
2.00073e-05
1.90087e-05
1.80436e-05
1.71117e-05
1.62128e-05
1.53465e-05
1.45127e-05
1.37108e-05
1.29405e-05
1.22013e-05
1.14927e-05
1.08142e-05
1.01653e-05
9.54532e-06
8.95373e-06
8.38987e-06
7.85309e-06
7.34272e-06
6.85808e-06
6.39845e-06
5.9631e-06
5.55131e-06
5.16233e-06
4.79539e-06
4.44973e-06
4.12459e-06
3.8192e-06
3.53279e-06
3.26459e-06
3.01383e-06
2.77975e-06
2.56159e-06
2.35861e-06
2.17005e-06
1.99518e-06
1.8333e-06
1.68368e-06
1.54564e-06
1.41849e-06
1.30158e-06
1.19424e-06
1.09586e-06
1.0058e-06
9.23484e-07
8.48312e-07
7.79732e-07
7.17183e-07
6.60138e-07
6.0807e-07
5.6044e-07
5.16812e-07
4.76408e-07
4.39511e-07
4.03132e-07
3.73851e-07
3.31083e-07
3.27205e-07
2.28748e-07
3.44392e-07
8.5995e-09
5.08357e-07
-3.51612e-07
5.49526e-07
-1.19715e-07
-7.02617e-07
1.30548e-06
-1.73301e-06
-1.31581e-07
-1.69554e-07
2.05415e-05
1.95354e-05
1.8562e-05
1.76213e-05
1.67129e-05
1.58367e-05
1.49923e-05
1.41793e-05
1.33975e-05
1.26464e-05
1.19256e-05
1.12345e-05
1.05727e-05
9.9397e-06
9.33485e-06
8.75759e-06
8.20731e-06
7.68339e-06
7.18516e-06
6.71197e-06
6.26313e-06
5.83795e-06
5.4357e-06
5.05568e-06
4.69713e-06
4.35933e-06
4.04154e-06
3.74301e-06
3.46299e-06
3.20074e-06
2.95551e-06
2.72657e-06
2.51317e-06
2.31459e-06
2.13011e-06
1.95901e-06
1.80059e-06
1.65417e-06
1.51906e-06
1.39461e-06
1.28016e-06
1.17509e-06
1.07877e-06
9.90598e-07
9.10002e-07
8.364e-07
7.69252e-07
7.08009e-07
6.52154e-07
6.01177e-07
5.54543e-07
5.11849e-07
4.72264e-07
4.36273e-07
4.00393e-07
3.7254e-07
3.28887e-07
3.29453e-07
2.24147e-07
3.55387e-07
-4.55107e-09
5.34609e-07
-3.7274e-07
5.83025e-07
-1.29284e-07
-6.7007e-07
1.31841e-06
-1.73307e-06
5.10976e-08
-2.47077e-07
1.99933e-05
1.9016e-05
1.80705e-05
1.71566e-05
1.62741e-05
1.54229e-05
1.46025e-05
1.38126e-05
1.30529e-05
1.23229e-05
1.16223e-05
1.09505e-05
1.03071e-05
9.69156e-06
9.10333e-06
8.54184e-06
8.0065e-06
7.49671e-06
7.01184e-06
6.55124e-06
6.11427e-06
5.70025e-06
5.3085e-06
4.93832e-06
4.58901e-06
4.25985e-06
3.95014e-06
3.65915e-06
3.38616e-06
3.13045e-06
2.89131e-06
2.66802e-06
2.45986e-06
2.26613e-06
2.08613e-06
1.91917e-06
1.76457e-06
1.62166e-06
1.48979e-06
1.3683e-06
1.25657e-06
1.15399e-06
1.05994e-06
9.7385e-07
8.95151e-07
8.23278e-07
7.57706e-07
6.97901e-07
6.43358e-07
5.93583e-07
5.48043e-07
5.06381e-07
4.67691e-07
4.32713e-07
3.97342e-07
3.71145e-07
3.26345e-07
3.32103e-07
2.18766e-07
3.67825e-07
-1.94443e-08
5.6365e-07
-3.96143e-07
6.19528e-07
-1.39684e-07
-6.37054e-07
1.33652e-06
-1.741e-06
2.42406e-07
-3.33165e-07
1.93998e-05
1.84536e-05
1.75383e-05
1.66536e-05
1.57993e-05
1.49751e-05
1.41807e-05
1.34158e-05
1.268e-05
1.19729e-05
1.12942e-05
1.06433e-05
1.00198e-05
9.42313e-06
8.85287e-06
8.30843e-06
7.78925e-06
7.29474e-06
6.8243e-06
6.37732e-06
5.95319e-06
5.55124e-06
5.17084e-06
4.81131e-06
4.47198e-06
4.15217e-06
3.8512e-06
3.56837e-06
3.30298e-06
3.05436e-06
2.8218e-06
2.60462e-06
2.40213e-06
2.21365e-06
2.0385e-06
1.87602e-06
1.72556e-06
1.58645e-06
1.45808e-06
1.3398e-06
1.23102e-06
1.13113e-06
1.03955e-06
9.55704e-07
8.79059e-07
8.09058e-07
7.45195e-07
6.86947e-07
6.33825e-07
5.85352e-07
5.40996e-07
5.00454e-07
4.62722e-07
4.28867e-07
3.93989e-07
3.69699e-07
3.23427e-07
3.35209e-07
2.12512e-07
3.81774e-07
-3.61827e-08
5.95405e-07
-4.21747e-07
6.58593e-07
-1.50634e-07
-6.04342e-07
1.35964e-06
-1.75672e-06
4.39994e-07
-4.27121e-07
1.87655e-05
1.78528e-05
1.69698e-05
1.61163e-05
1.52921e-05
1.44969e-05
1.37303e-05
1.29921e-05
1.22819e-05
1.15993e-05
1.09439e-05
1.03153e-05
9.71299e-06
9.13656e-06
8.58548e-06
8.05924e-06
7.5573e-06
7.07909e-06
6.62406e-06
6.19162e-06
5.78117e-06
5.39211e-06
5.02382e-06
4.67565e-06
4.34698e-06
4.03715e-06
3.7455e-06
3.47137e-06
3.21411e-06
2.97304e-06
2.74752e-06
2.53687e-06
2.34043e-06
2.15756e-06
1.98759e-06
1.8299e-06
1.68385e-06
1.54881e-06
1.42417e-06
1.30933e-06
1.20369e-06
1.10668e-06
1.01773e-06
9.36298e-07
8.61848e-07
7.93851e-07
7.31813e-07
6.75231e-07
6.23627e-07
5.76547e-07
5.33453e-07
4.94115e-07
4.57393e-07
4.24768e-07
3.90344e-07
3.68241e-07
3.20097e-07
3.38837e-07
2.05283e-07
3.97308e-07
-5.48664e-08
6.29796e-07
-4.49461e-07
6.9978e-07
-1.61843e-07
-5.72618e-07
1.38754e-06
-1.77985e-06
6.41642e-07
-5.2812e-07
1.80951e-05
1.72179e-05
1.63691e-05
1.55487e-05
1.47563e-05
1.39917e-05
1.32546e-05
1.25446e-05
1.18614e-05
1.12047e-05
1.0574e-05
9.9689e-06
9.38904e-06
8.83393e-06
8.30311e-06
7.79608e-06
7.31233e-06
6.85133e-06
6.41256e-06
5.99546e-06
5.59946e-06
5.224e-06
4.86849e-06
4.53232e-06
4.2149e-06
3.9156e-06
3.63379e-06
3.36886e-06
3.12017e-06
2.88709e-06
2.66898e-06
2.46523e-06
2.27519e-06
2.09824e-06
1.93376e-06
1.78113e-06
1.63974e-06
1.509e-06
1.38831e-06
1.2771e-06
1.17479e-06
1.08082e-06
9.94658e-07
9.15765e-07
8.43638e-07
7.77759e-07
7.17652e-07
6.62831e-07
6.12833e-07
5.67227e-07
5.25466e-07
4.87408e-07
4.51733e-07
4.20452e-07
3.86412e-07
3.66812e-07
3.16314e-07
3.43056e-07
1.96976e-07
4.14503e-07
-7.55855e-08
6.66732e-07
-4.7917e-07
7.42653e-07
-1.73023e-07
-5.42452e-07
1.4199e-06
-1.80983e-06
8.45271e-07
-6.35176e-07
1.73928e-05
1.65529e-05
1.57401e-05
1.49544e-05
1.41954e-05
1.34629e-05
1.27566e-05
1.20762e-05
1.14214e-05
1.07917e-05
1.01869e-05
9.60643e-06
9.05003e-06
8.51723e-06
8.00759e-06
7.52065e-06
7.05593e-06
6.61294e-06
6.19117e-06
5.79011e-06
5.40923e-06
5.04799e-06
4.70585e-06
4.38223e-06
4.07658e-06
3.78829e-06
3.51679e-06
3.26147e-06
3.02175e-06
2.79703e-06
2.5867e-06
2.39016e-06
2.20682e-06
2.03607e-06
1.87733e-06
1.73e-06
1.5935e-06
1.46726e-06
1.35072e-06
1.2433e-06
1.14448e-06
1.0537e-06
9.70459e-07
8.94233e-07
8.2454e-07
7.60881e-07
7.02799e-07
6.49826e-07
6.01509e-07
5.5745e-07
5.17081e-07
4.80375e-07
4.45774e-07
4.15954e-07
3.82197e-07
3.65454e-07
3.12035e-07
3.4794e-07
1.87489e-07
4.33432e-07
-9.84112e-08
7.06105e-07
-5.10726e-07
7.86776e-07
-1.83888e-07
-5.14305e-07
1.45634e-06
-1.84591e-06
1.04894e-06
-7.47164e-07
1.66629e-05
1.58618e-05
1.50865e-05
1.43369e-05
1.36127e-05
1.29137e-05