/*--------------------------------*- C++ -*----------------------------------*\
| =========                 |                                                 |
| \\      /  F ield         | OpenFOAM: The Open Source CFD Toolbox           |
|  \\    /   O peration     | Version:  2412                                  |
|   \\  /    A nd           | Website:  www.openfoam.com                      |
|    \\/     M anipulation  |                                                 |
\*---------------------------------------------------------------------------*/
FoamFile
{
    version     2.0;
    format      ascii;
    arch        "LSB;label=32;scalar=64";
    class       volScalarField;
    location    "20";
    object      p;
}
// * * * * * * * * * * * * * * * * * * * * * * * * * * * * * * * * * * * * * //

dimensions      [0 2 -2 0 0 0 0];

internalField   nonuniform List<scalar> 
63420
(
0.000939549
0.000939809
0.000940633
0.000941906
0.000943611
0.000945736
0.000948262
0.000951176
0.000954468
0.000958126
0.000962142
0.000966508
0.000971215
0.000976258
0.000981629
0.000987324
0.00099334
0.000999676
0.00100633
0.0010133
0.0010206
0.00102822
0.00103616
0.00104442
0.00105302
0.00106195
0.0010712
0.0010808
0.00109073
0.001101
0.00111162
0.00112258
0.0011339
0.00114556
0.00115759
0.00116997
0.00118272
0.00119584
0.00120932
0.00122319
0.00123743
0.00125206
0.00126707
0.00128248
0.00129828
0.00131448
0.00133109
0.00134811
0.00136555
0.0013834
0.00140167
0.00142038
0.00143951
0.00145909
0.00147911
0.00093949
0.000939749
0.000940573
0.000941845
0.000943549
0.000945671
0.000948196
0.000951108
0.000954397
0.000958053
0.000962066
0.000966428
0.000971132
0.00097617
0.000981537
0.000987228
0.000993239
0.000999569
0.00100622
0.00101319
0.00102047
0.00102808
0.00103602
0.00104428
0.00105286
0.00106178
0.00107103
0.00108061
0.00109053
0.00110079
0.0011114
0.00112235
0.00113365
0.0011453
0.00115731
0.00116967
0.0011824
0.0011955
0.00120897
0.00122281
0.00123703
0.00125163
0.00126662
0.001282
0.00129777
0.00131395
0.00133052
0.00134751
0.0013649
0.00138272
0.00140095
0.00141961
0.0014387
0.00145823
0.00147819
0.00093937
0.000939629
0.000940452
0.000941722
0.000943424
0.000945543
0.000948064
0.000950972
0.000954256
0.000957906
0.000961913
0.000966269
0.000970965
0.000975995
0.000981353
0.000987034
0.000993036
0.000999355
0.00100599
0.00101295
0.00102022
0.00102782
0.00103574
0.00104398
0.00105255
0.00106145
0.00107068
0.00108024
0.00109014
0.00110037
0.00111095
0.00112188
0.00113315
0.00114477
0.00115674
0.00116908
0.00118177
0.00119483
0.00120825
0.00122205
0.00123623
0.00125078
0.00126572
0.00128104
0.00129676
0.00131287
0.00132938
0.0013463
0.00136362
0.00138136
0.00139951
0.00141808
0.00143708
0.00145651
0.00147637
0.000939191
0.00093945
0.000940271
0.000941538
0.000943236
0.000945351
0.000947866
0.000950768
0.000954045
0.000957686
0.000961684
0.00096603
0.000970715
0.000975733
0.000981078
0.000986745
0.000992731
0.000999034
0.00100565
0.00101259
0.00101985
0.00102742
0.00103532
0.00104353
0.00105208
0.00106095
0.00107015
0.00107968
0.00108954
0.00109975
0.00111029
0.00112117
0.0011324
0.00114397
0.0011559
0.00116818
0.00118082
0.00119382
0.00120719
0.00122092
0.00123503
0.00124951
0.00126437
0.00127961
0.00129524
0.00131127
0.00132768
0.00134449
0.00136171
0.00137933
0.00139736
0.0014158
0.00143466
0.00145394
0.00147364
0.000938953
0.000939211
0.000940029
0.000941293
0.000942986
0.000945095
0.000947603
0.000950496
0.000953763
0.000957394
0.000961379
0.000965711
0.000970382
0.000975384
0.000980712
0.00098636
0.000992326
0.000998607
0.0010052
0.00101212
0.00101934
0.00102689
0.00103476
0.00104294
0.00105145
0.00106028
0.00106944
0.00107893
0.00108875
0.00109891
0.0011094
0.00112023
0.0011314
0.00114292
0.00115478
0.00116699
0.00117956
0.00119249
0.00120577
0.00121942
0.00123344
0.00124782
0.00126258
0.00127772
0.00129323
0.00130913
0.00132542
0.0013421
0.00135917
0.00137663
0.0013945
0.00141277
0.00143145
0.00145054
0.00147003
0.000938655
0.000938912
0.000939728
0.000940987
0.000942674
0.000944776
0.000947274
0.000950157
0.000953412
0.000957029
0.000960999
0.000965314
0.000969966
0.000974948
0.000980254
0.000985879
0.00099182
0.000998075
0.00100464
0.00101152
0.00101872
0.00102623
0.00103406
0.0010422
0.00105067
0.00105946
0.00106857
0.001078
0.00108777
0.00109787
0.00110829
0.00111906
0.00113016
0.0011416
0.00115338
0.00116551
0.00117799
0.00119082
0.00120401
0.00121755
0.00123145
0.00124572
0.00126035
0.00127535
0.00129073
0.00130648
0.0013226
0.00133911
0.00135601
0.00137329
0.00139095
0.00140901
0.00142746
0.00144631
0.00146555
0.000938298
0.000938555
0.000939366
0.000940621
0.0009423
0.000944393
0.00094688
0.00094975
0.000952991
0.000956591
0.000960543
0.000964838
0.000969468
0.000974427
0.000979707
0.000985304
0.000991214
0.000997437
0.00100397
0.00101081
0.00101797
0.00102544
0.00103322
0.00104132
0.00104973
0.00105846
0.00106752
0.00107689
0.00108659
0.00109662
0.00110697
0.00111766
0.00112867
0.00114003
0.00115172
0.00116374
0.00117612
0.00118883
0.0012019
0.00121532
0.00122908
0.00124321
0.00125769
0.00127253
0.00128774
0.00130331
0.00131925
0.00133556
0.00135224
0.00136929
0.00138673
0.00140453
0.00142272
0.00144128
0.00146022
0.00149963
0.00152086
0.00154303
0.00156615
0.00159029
0.00161551
0.00164187
0.00166946
0.00169834
0.00172859
0.00176031
0.00179359
0.00182855
0.00186528
0.00190392
0.0019446
0.00198747
0.00203268
0.00208042
0.00213088
0.00218427
0.00224082
0.00230078
0.00236444
0.0024321
0.00250411
0.00258083
0.0026627
0.00275016
0.00284371
0.00294393
0.00305142
0.00316685
0.00329095
0.00342451
0.00356836
0.00372332
0.00389023
0.00406976
0.00426238
0.0044681
0.00468618
0.00491485
0.00515106
0.00539078
0.00562986
0.00586443
0.00610079
0.00640489
0.00686755
0.00149869
0.00151995
0.00154209
0.00156521
0.00158934
0.00161456
0.00164092
0.0016685
0.00169738
0.00172762
0.00175934
0.00179261
0.00182756
0.00186428
0.0019029
0.00194356
0.0019864
0.00203159
0.00207929
0.00212971
0.00218304
0.00223951
0.00229939
0.00236294
0.00243047
0.00250231
0.00257883
0.00266044
0.00274758
0.00284074
0.00294046
0.00304732
0.00316196
0.00328506
0.00341734
0.00355953
0.00371237
0.00387651
0.00405245
0.00424037
0.00443993
0.00464996
0.00486811
0.00509059
0.00531249
0.00552877
0.00573502
0.00593668
0.00619546
0.00659525
0.00149682
0.00151806
0.00154021
0.00156332
0.00158745
0.00161266
0.00163901
0.00166659
0.00169545
0.00172569
0.00175739
0.00179065
0.00182557
0.00186227
0.00190086
0.00194148
0.00198428
0.00202941
0.00207704
0.00212736
0.00218057
0.00223691
0.00229661
0.00235995
0.00242722
0.00249873
0.00257485
0.00265596
0.00274247
0.00283486
0.0029336
0.00303923
0.00315231
0.00327343
0.00340318
0.00354211
0.00369074
0.00384941
0.00401821
0.00419679
0.00438407
0.00457796
0.00477492
0.00496972
0.00515567
0.00532585
0.005475
0.00560705
0.00577113
0.00605775
0.001494
0.00151524
0.00153738
0.00156048
0.0015846
0.0016098
0.00163614
0.0016637
0.00169255
0.00172277
0.00175445
0.00178768
0.00182257
0.00185922
0.00189776
0.00193832
0.00198104
0.00202607
0.00207359
0.00212376
0.0021768
0.00223292
0.00229236
0.00235536
0.00242222
0.00249323
0.00256872
0.00264906
0.00273462
0.00282581
0.00292306
0.00302682
0.00313754
0.00325566
0.00338158
0.00351562
0.00365793
0.00380841
0.00396654
0.00413116
0.00430013
0.00446996
0.00463534
0.00478886
0.00492119
0.00502247
0.00508609
0.00511718
0.00514945
0.00523663
0.00149028
0.00151151
0.00153364
0.00155673
0.00158084
0.00160603
0.00163236
0.00165991
0.00168874
0.00171895
0.0017506
0.00178381
0.00181866
0.00185527
0.00189375
0.00193424
0.00197687
0.00202179
0.00206916
0.00211916
0.00217197
0.00222781
0.0022869
0.00234948
0.00241581
0.00248616
0.00256084
0.00264016
0.00272445
0.00281405
0.00290931
0.00301056
0.0031181
0.00323219
0.00335295
0.00348035
0.00361409
0.00375346
0.00389712
0.00404281
0.00418701
0.00432437
0.00444729
0.00454556
0.00460653
0.00461651
0.00456611
0.00446345
0.00433112
0.00411021
0.00148565
0.00150688
0.00152902
0.00155212
0.00157625
0.00160146
0.00162781
0.00165539
0.00168425
0.00171449
0.00174618
0.00177941
0.0018143
0.00185094
0.00188946
0.00192997
0.00197261
0.00201753
0.00206489
0.00211485
0.0021676
0.00222334
0.00228227
0.00234463
0.00241065
0.00248059
0.00255471
0.0026333
0.00271663
0.00280496
0.00289856
0.00299761
0.00310227
0.00321252
0.00332817
0.00344872
0.00357321
0.00370002
0.00382652
0.00394874
0.00406079
0.00415432
0.00421793
0.0042369
0.00419352
0.00406892
0.0038492
0.0035433
0.00316568
0.00252883
0.00148011
0.00150127
0.00152335
0.0015464
0.00157048
0.00159564
0.00162195
0.00164947
0.00167829
0.00170848
0.00174012
0.00177331
0.00180814
0.00184473
0.00188318
0.00192362
0.00196618
0.00201101
0.00205826
0.00210809
0.00216068
0.00221622
0.00227491
0.00233697
0.0024026
0.00247206
0.00254558
0.00262339
0.00270572
0.00279277
0.00288471
0.00298161
0.00308344
0.00318994
0.00330059
0.00341437
0.0035296
0.00364354
0.00375201
0.00384873
0.00392464
0.00396707
0.00395915
0.0038798
0.00370455
0.00340707
0.00296992
0.00240637
0.00168046
0.000500918
-0.00349456
-0.00356512
-0.00358386
-0.00356514
-0.0035213
-0.00345511
-0.00336807
-0.00326393
-0.00314349
-0.00300879
-0.00286207
-0.00270544
-0.00254107
-0.00237116
-0.00219784
-0.00202318
-0.00184914
-0.00167753
-0.00150998
-0.00134796
-0.00119268
-0.00104517
-0.000906259
-0.000776536
-0.000656403
-0.000546063
-0.000445556
-0.000354769
-0.00027346
-0.000201273
-0.000137766
-8.24277e-05
-3.46992e-05
6.0112e-06
4.031e-05
6.88055e-05
9.20961e-05
0.00011076
0.00012535
0.000136383
0.000144342
0.000149669
0.000152766
0.000153995
0.000153677
0.000152097
0.000149503
0.00014611
0.000142101
0.000137634
-0.00357523
-0.00362282
-0.00362783
-0.00360103
-0.00355186
-0.00348213
-0.00339259
-0.00328785
-0.00316699
-0.00303214
-0.00288543
-0.00272883
-0.00256445
-0.00239452
-0.00222105
-0.00204612
-0.00187168
-0.00169955
-0.00153136
-0.00136858
-0.00121246
-0.00106404
-0.00092415
-0.000793419
-0.000672261
-0.000560893
-0.000459367
-0.000367582
-0.000285305
-0.000212189
-0.000147797
-9.16219e-05
-4.31065e-05
-1.66091e-06
3.33216e-05
6.245e-05
8.63243e-05
0.000105525
0.000120606
0.000132089
0.000140458
0.000146158
0.000149593
0.00015113
0.000151091
0.000149763
0.000147398
0.000144212
0.00014039
0.000136094
-0.00373573
-0.00373625
-0.00371415
-0.00367133
-0.0036113
-0.00353408
-0.00343852
-0.00333345
-0.00321184
-0.0030768
-0.00293011
-0.00277346
-0.00260935
-0.00243944
-0.00226578
-0.00209042
-0.00191529
-0.0017422
-0.00157283
-0.00140865
-0.00125095
-0.00110079
-0.000959058
-0.000826402
-0.00070327
-0.000589918
-0.00048642
-0.0003927
-0.000308544
-0.000233619
-0.000167502
-0.000109693
-5.96392e-05
-1.67547e-05
1.95671e-05
4.99365e-05
7.4956e-05
9.521e-05
0.000111257
0.000123623
0.000132797
0.000139231
0.000143334
0.000145475
0.000145985
0.000145155
0.00014324
0.000140461
0.000137006
0.000133047
-0.00398192
-0.00389731
-0.00383979
-0.00377282
-0.00369659
-0.00360999
-0.00351402
-0.00340036
-0.00327494
-0.00313913
-0.0029927
-0.00283658
-0.0026727
-0.00250289
-0.00232908
-0.00215323
-0.00197724
-0.00180292
-0.00163197
-0.00146589
-0.00130601
-0.00115346
-0.00100914
-0.000873783
-0.000747874
-0.000631714
-0.000525419
-0.000428946
-0.000342111
-0.000264603
-0.000196016
-0.000135864
-8.36024e-05
-3.86492e-05
-3.99516e-07
3.17581e-05
5.84296e-05
8.02042e-05
9.76463e-05
0.000111289
0.000121629
0.000129125
0.000134193
0.000137212
0.000138516
0.000138406
0.000137142
0.000134952
0.000132031
0.000128561
-0.00429159
-0.00410692
-0.00400134
-0.00389967
-0.00380155
-0.00370046
-0.00359595
-0.0034783
-0.00335143
-0.00321464
-0.00306789
-0.00291213
-0.00274875
-0.00257933
-0.00240562
-0.00222947
-0.00205275
-0.00187724
-0.00170465
-0.00153652
-0.00137423
-0.00121896
-0.00107168
-0.000933159
-0.000803965
-0.000684452
-0.000574786
-0.00047497
-0.000384857
-0.000304168
-0.000232522
-0.000169451
-0.000114424
-6.68673e-05
-2.61805e-05
8.24746e-06
3.70246e-05
6.07448e-05
7.99782e-05
9.52652e-05
0.000107111
0.000115981
0.000122302
0.00012646
0.000128798
0.000129625
0.000129209
0.000127786
0.000125558
0.000122723
-0.00461785
-0.0043651
-0.00419971
-0.00405456
-0.00392334
-0.00380077
-0.00368444
-0.00355978
-0.00342898
-0.00329052
-0.00314377
-0.00298904
-0.00282715
-0.00265928
-0.00248694
-0.00231178
-0.00213553
-0.00195992
-0.00178664
-0.00161724
-0.00145315
-0.00129559
-0.0011456
-0.00100403
-0.000871522
-0.000748495
-0.000635192
-0.000531676
-0.000437856
-0.000353503
-0.000278272
-0.000211729
-0.000153369
-0.000102636
-5.89415e-05
-2.16832e-05
9.74372e-06
3.59327e-05
5.74567e-05
7.48603e-05
8.86546e-05
9.93133e-05
0.00010727
0.00011292
0.000116615
0.000118672
0.000119368
0.000118948
0.000117625
0.000115607
-0.00493095
-0.00468723
-0.00446506
-0.00426214
-0.00408044
-0.00394376
-0.00380154
-0.00366386
-0.00352589
-0.00338364
-0.00323554
-0.00308101
-0.00292013
-0.0027536
-0.0025825
-0.00240822
-0.00223231
-0.00205642
-0.00188218
-0.00171116
-0.00154481
-0.00138443
-0.00123115
-0.0010859
-0.000949396
-0.000822158
-0.000704506
-0.000596582
-0.000498362
-0.000409672
-0.000330216
-0.000259598
-0.000197341
-0.000142912
-9.57358e-05
-5.52181e-05
-2.07567e-05
8.24327e-06
3.23593e-05
5.21433e-05
6.81153e-05
8.07594e-05
9.05206e-05
9.78045e-05
0.000102977
0.000106364
0.000108256
0.000108906
0.000108543
0.000107372
0.000132831
0.000127705
0.00012234
0.00011683
0.00011124
0.000105624
0.000100031
9.45032e-05
8.90731e-05
8.37688e-05
7.86124e-05
7.36213e-05
6.88088e-05
6.41847e-05
5.97552e-05
5.55244e-05
5.14936e-05
4.76627e-05
4.40296e-05
4.05911e-05
3.73432e-05
3.42809e-05
3.13986e-05
2.86906e-05
2.61508e-05
2.37731e-05
2.15514e-05
1.94797e-05
1.7552e-05
1.57622e-05
1.41046e-05
1.25732e-05
1.11619e-05
9.86475e-06
8.67549e-06
7.58797e-06
6.59602e-06
5.69356e-06
4.87467e-06
4.13359e-06
3.46485e-06
2.86322e-06
2.32373e-06
1.84187e-06
1.41275e-06
1.03306e-06
6.98365e-07
4.05055e-07
1.49776e-07
-7.0728e-08
-2.59502e-07
-4.19414e-07
-5.53152e-07
-6.63233e-07
-7.52011e-07
-8.2169e-07
-8.74319e-07
-9.11802e-07
-9.35904e-07
-9.48257e-07
-9.50366e-07
-9.43616e-07
-9.29279e-07
-9.08517e-07
-8.82384e-07
-8.51836e-07
-8.17741e-07
-7.80879e-07
-7.41944e-07
-7.01554e-07
-6.6026e-07
-6.18544e-07
-5.76824e-07
-5.35456e-07
-4.94748e-07
-4.54967e-07
-4.16319e-07
-3.78995e-07
-3.4311e-07
-3.08815e-07
-2.76072e-07
-2.45167e-07
-2.15673e-07
-1.88473e-07
-1.61895e-07
-1.39007e-07
-1.14138e-07
-9.72555e-08
-7.08337e-08
-6.45522e-08
-2.889e-08
-4.40815e-08
1.72738e-08
-4.14147e-08
7.59631e-08
-6.41015e-08
1.55849e-07
-1.17535e-07
2.59659e-07
-1.96116e-07
3.73966e-07
-2.73524e-07
4.62258e-07
-3.02224e-07
4.74821e-07
-2.35594e-07
3.83251e-07
-7.22849e-08
2.26752e-07
1.06012e-07
1.28906e-07
1.4732e-07
2.48064e-07
-9.48898e-08
6.8136e-07
0.000131472
0.00012645
0.000121182
0.000115771
0.000110275
0.000104745
9.92329e-05
9.37783e-05
8.84155e-05
8.31726e-05
7.80721e-05
7.31319e-05
6.83657e-05
6.37835e-05
5.93922e-05
5.51959e-05
5.11965e-05
4.73941e-05
4.37868e-05
4.03718e-05
3.71452e-05
3.41022e-05
3.12375e-05
2.85455e-05
2.60202e-05
2.36558e-05
2.14461e-05
1.93852e-05
1.74673e-05
1.56865e-05
1.4037e-05
1.25128e-05
1.11081e-05
9.81674e-06
8.63272e-06
7.54987e-06
6.56211e-06
5.6634e-06
4.84785e-06
4.10977e-06
3.4437e-06
2.84448e-06
2.30714e-06
1.82721e-06
1.39982e-06
1.02168e-06
6.88368e-07
3.96294e-07
1.42118e-07
-7.74034e-08
-2.65304e-07
-4.24441e-07
-5.57493e-07
-6.66968e-07
-7.55211e-07
-8.2442e-07
-8.76637e-07
-9.13759e-07
-9.37546e-07
-9.49626e-07
-9.51497e-07
-9.44542e-07
-9.30029e-07
-9.09116e-07
-8.82854e-07
-8.52197e-07
-8.1801e-07
-7.81071e-07
-7.42072e-07
-7.01631e-07
-6.60294e-07
-6.18544e-07
-5.76797e-07
-5.35408e-07
-4.94684e-07
-4.54891e-07
-4.16235e-07
-3.78907e-07
-3.43019e-07
-3.08723e-07
-2.75982e-07
-2.45079e-07
-2.15589e-07
-1.88393e-07
-1.6182e-07
-1.38936e-07
-1.14074e-07
-9.71933e-08
-7.07815e-08
-6.44975e-08
-2.885e-08
-4.40296e-08
1.73002e-08
-4.1363e-08
7.59718e-08
-6.40476e-08
1.5584e-07
-1.17478e-07
2.59637e-07
-1.96063e-07
3.73942e-07
-2.7349e-07
4.62254e-07
-3.02221e-07
4.74833e-07
-2.35608e-07
3.8327e-07
-7.23148e-08
2.26776e-07
1.05998e-07
1.28902e-07
1.4731e-07
2.48148e-07
-9.49976e-08
6.81671e-07
0.000128768
0.000123957
0.000118882
0.000113669
0.000108358
0.000103001
9.76471e-05
9.23381e-05
8.71086e-05
8.19872e-05
7.69976e-05
7.21583e-05
6.74838e-05
6.2985e-05
5.86694e-05
5.45418e-05
5.06049e-05
4.6859e-05
4.33031e-05
3.99348e-05
3.67506e-05
3.37461e-05
3.09164e-05
2.82562e-05
2.57599e-05
2.34217e-05
2.1236e-05
1.91968e-05
1.72986e-05
1.55355e-05
1.39021e-05
1.23923e-05
1.10006e-05
9.72092e-06
8.54733e-06
7.47382e-06
6.49441e-06
5.60316e-06
4.79428e-06
4.06218e-06
3.40147e-06
2.80705e-06
2.27401e-06
1.79793e-06
1.374e-06
9.98946e-07
6.68398e-07
3.78795e-07
1.26823e-07
-9.07364e-08
-2.76894e-07
-4.34484e-07
-5.66166e-07
-6.74429e-07
-7.61605e-07
-8.29875e-07
-8.81268e-07
-9.17669e-07
-9.40827e-07
-9.52359e-07
-9.53756e-07
-9.46392e-07
-9.31528e-07
-9.10313e-07
-8.83794e-07
-8.52919e-07
-8.18549e-07
-7.81456e-07
-7.42329e-07
-7.01783e-07
-6.60362e-07
-6.18544e-07
-5.76741e-07
-5.35311e-07
-4.94556e-07
-4.54739e-07
-4.16068e-07
-3.7873e-07
-3.42836e-07
-3.08539e-07
-2.75801e-07
-2.44903e-07
-2.1542e-07
-1.88232e-07
-1.6167e-07
-1.38793e-07
-1.13944e-07
-9.70672e-08
-7.06768e-08
-6.43887e-08
-2.87708e-08
-4.39259e-08
1.73536e-08
-4.12607e-08
7.59906e-08
-6.39438e-08
1.55826e-07
-1.17371e-07
2.596e-07
-1.95968e-07
3.739e-07
-2.73426e-07
4.62237e-07
-3.02205e-07
4.74853e-07
-2.35647e-07
3.83317e-07
-7.23726e-08
2.2681e-07
1.05968e-07
1.28912e-07
1.47289e-07
2.48296e-07
-9.5228e-08
6.82294e-07
0.000124752
0.000120255
0.000115475
0.000110554
0.000105519
0.000100416
9.52952e-05
9.0201e-05
8.51682e-05
8.02265e-05
7.54007e-05
7.07107e-05
6.6172e-05
6.17967e-05
5.75934e-05
5.35678e-05
4.97235e-05
4.60617e-05
4.25823e-05
3.92834e-05
3.61622e-05
3.3215e-05
3.04375e-05
2.78247e-05
2.53714e-05
2.30724e-05
2.09223e-05
1.89154e-05
1.70465e-05
1.531e-05
1.37004e-05
1.22123e-05
1.08399e-05
9.57764e-06
8.41964e-06
7.36008e-06
6.39314e-06
5.51304e-06
4.71415e-06
3.99099e-06
3.33829e-06
2.75103e-06
2.22443e-06
1.75411e-06
1.33536e-06
9.64927e-07
6.38514e-07
3.52607e-07
1.03932e-07
-1.10691e-07
-2.9424e-07
-4.49514e-07
-5.79144e-07
-6.85595e-07
-7.71175e-07
-8.3804e-07
-8.88199e-07
-9.23521e-07
-9.45738e-07
-9.56451e-07
-9.57138e-07
-9.49162e-07
-9.33771e-07
-9.12104e-07
-8.852e-07
-8.53999e-07
-8.19354e-07
-7.82031e-07
-7.42714e-07
-7.02011e-07
-6.60463e-07
-6.18541e-07
-5.76657e-07
-5.35164e-07
-4.94362e-07
-4.54511e-07
-4.15817e-07
-3.78464e-07
-3.42562e-07
-3.08264e-07
-2.75531e-07
-2.4464e-07
-2.15168e-07
-1.87992e-07
-1.61445e-07
-1.38579e-07
-1.1375e-07
-9.6879e-08
-7.05197e-08
-6.42254e-08
-2.86522e-08
-4.37728e-08
1.74316e-08
-4.11108e-08
7.60182e-08
-6.37911e-08
1.55806e-07
-1.17215e-07
2.59547e-07
-1.9583e-07
3.73843e-07
-2.73337e-07
4.62217e-07
-3.02191e-07
4.74889e-07
-2.35711e-07
3.8339e-07
-7.24642e-08
2.26863e-07
1.05921e-07
1.28926e-07
1.47254e-07
2.48524e-07
-9.55765e-08
6.83225e-07
0.000119474
0.000115394
0.00011101
0.000106473
0.000101797
9.7024e-05
9.22084e-05
8.73941e-05
8.26177e-05
7.79106e-05
7.32989e-05
6.88041e-05
6.44433e-05
6.02299e-05
5.61738e-05
5.22822e-05
4.85596e-05
4.50086e-05
4.16297e-05
3.84222e-05
3.53842e-05
3.25126e-05
2.98038e-05
2.72535e-05
2.48572e-05
2.26099e-05
2.05068e-05
1.85426e-05
1.67124e-05
1.50109e-05
1.3433e-05
1.19734e-05
1.06267e-05
9.38749e-06
8.25013e-06
7.20906e-06
6.25865e-06
5.39336e-06
4.60771e-06
3.89641e-06
3.25434e-06
2.67662e-06
2.15856e-06
1.6959e-06
1.28402e-06
9.19723e-07
5.98806e-07
3.17809e-07
7.35142e-08
-1.37208e-07
-3.17289e-07
-4.69486e-07
-5.96391e-07
-7.00434e-07
-7.83891e-07
-8.48889e-07
-8.9741e-07
-9.31298e-07
-9.52262e-07
-9.61887e-07
-9.61631e-07
-9.52841e-07
-9.36749e-07
-9.14482e-07
-8.87066e-07
-8.55432e-07
-8.20422e-07
-7.82793e-07
-7.43223e-07
-7.02312e-07
-6.60594e-07
-6.18536e-07
-5.76544e-07
-5.34967e-07
-4.94103e-07
-4.54206e-07
-4.15481e-07
-3.78108e-07
-3.42196e-07
-3.07897e-07
-2.7517e-07
-2.44289e-07
-2.14832e-07
-1.8767e-07
-1.61145e-07
-1.38294e-07
-1.13491e-07
-9.6629e-08
-7.03095e-08
-6.40081e-08
-2.84928e-08
-4.35721e-08
1.75369e-08
-4.0917e-08
7.60602e-08
-6.35974e-08
1.55789e-07
-1.17024e-07
2.59494e-07
-1.9567e-07
3.73793e-07
-2.7325e-07
4.62223e-07
-3.02205e-07
4.74965e-07
-2.35823e-07
3.83507e-07
-7.26003e-08
2.2694e-07
1.05854e-07
1.28944e-07
1.47202e-07
2.48834e-07
-9.60537e-08
6.84469e-07
0.000113
0.000109443
0.000105554
0.000101486
9.72447e-05
9.28732e-05
8.84271e-05
8.39523e-05
7.94874e-05
7.50655e-05
7.07145e-05
6.64579e-05
6.23143e-05
5.8299e-05
5.44233e-05
5.06959e-05
4.71228e-05
4.37077e-05
4.04525e-05
3.73576e-05
3.44219e-05
3.16435e-05
2.90195e-05
2.65463e-05
2.42202e-05
2.20369e-05
1.99918e-05
1.80804e-05
1.6298e-05
1.46399e-05
1.31011e-05
1.16768e-05
1.03619e-05
9.1512e-06
8.03944e-06
7.02129e-06
6.09142e-06
5.2445e-06
4.47531e-06
3.77876e-06
3.1499e-06
2.58403e-06
2.07659e-06
1.62346e-06
1.22014e-06
8.63472e-07
5.49391e-07
2.74504e-07
3.5659e-08
-1.7021e-07
-3.45975e-07
-4.94342e-07
-6.17856e-07
-7.18903e-07
-7.99717e-07
-8.62391e-07
-9.08872e-07
-9.40975e-07
-9.60381e-07
-9.68651e-07
-9.67221e-07
-9.57417e-07
-9.40453e-07
-9.17439e-07
-8.89386e-07
-8.57213e-07
-8.21748e-07
-7.83739e-07
-7.43853e-07
-7.02682e-07
-6.60753e-07
-6.18526e-07
-5.76399e-07
-5.34718e-07
-4.93776e-07
-4.53823e-07
-4.15059e-07
-3.77663e-07
-3.41739e-07
-3.07438e-07
-2.74718e-07
-2.43849e-07
-2.14411e-07
-1.87268e-07
-1.60769e-07
-1.37937e-07
-1.13168e-07
-9.63168e-08
-7.00467e-08
-6.37358e-08
-2.8294e-08
-4.33219e-08
1.76663e-08
-4.06751e-08
7.61104e-08
-6.33544e-08
1.55765e-07
-1.16783e-07
2.59424e-07
-1.95467e-07
3.73726e-07
-2.73135e-07
4.62222e-07
-3.02218e-07
4.75053e-07
-2.35956e-07
3.83646e-07
-7.27673e-08
2.27035e-07
1.05768e-07
1.28972e-07
1.47128e-07
2.49226e-07
-9.66496e-08
6.85994e-07
0.000105417
0.000102488
9.91912e-05
9.56656e-05
9.19249e-05
8.80167e-05
8.39976e-05
7.99158e-05
7.58118e-05
7.17209e-05
6.76733e-05
6.36942e-05
5.98043e-05
5.60205e-05
5.23561e-05
4.88213e-05
4.54237e-05
4.21685e-05
3.90589e-05
3.60965e-05
3.32816e-05
3.06131e-05
2.80892e-05
2.57072e-05
2.34641e-05
2.13563e-05
1.93799e-05
1.7531e-05
1.58052e-05
1.41984e-05
1.27061e-05
1.13237e-05
1.00464e-05
8.86961e-06
7.78826e-06
6.79738e-06
5.89194e-06
5.06691e-06
4.31733e-06
3.63835e-06
3.02525e-06
2.47351e-06
1.97875e-06
1.53698e-06
1.14387e-06
7.96313e-07
4.90391e-07
2.22797e-07
-9.54299e-09
-2.09618e-07
-3.80232e-07
-5.24027e-07
-6.43491e-07
-7.40959e-07
-8.18618e-07
-8.78515e-07
-9.2256e-07
-9.52531e-07
-9.70077e-07
-9.76727e-07
-9.73895e-07
-9.6288e-07
-9.44873e-07
-9.20967e-07
-8.92154e-07
-8.59336e-07
-8.23328e-07
-7.84864e-07
-7.44601e-07
-7.03121e-07
-6.60939e-07
-6.18509e-07
-5.76222e-07
-5.34417e-07
-4.93382e-07
-4.53361e-07
-4.14552e-07
-3.77128e-07
-3.41191e-07
-3.06888e-07
-2.74176e-07
-2.43322e-07
-2.13906e-07
-1.86786e-07
-1.60319e-07
-1.37507e-07
-1.12783e-07
-9.59391e-08
-6.97373e-08
-6.33994e-08
-2.80709e-08
-4.29996e-08
1.77862e-08
-4.03366e-08
7.61001e-08
-6.29684e-08
1.5561e-07
-1.16334e-07
2.59137e-07
-1.94983e-07
3.73369e-07
-2.72692e-07
4.619e-07
-3.01916e-07
4.74861e-07
-2.35859e-07
3.83612e-07
-7.28359e-08
2.27083e-07
1.0567e-07
1.29031e-07
1.47016e-07
2.49667e-07
-9.72379e-08
6.87579e-07
9.65753e-05
9.44192e-05
9.18364e-05
8.89317e-05
8.57604e-05
8.23801e-05
7.88488e-05
7.52166e-05
7.15268e-05
6.78168e-05
6.41189e-05
6.04604e-05
5.68642e-05
5.33491e-05
4.99302e-05
4.66197e-05
4.34267e-05
4.03581e-05
3.74187e-05
3.46115e-05
3.1938e-05
2.93984e-05
2.69919e-05
2.4717e-05
2.25714e-05
2.05523e-05
1.86568e-05
1.68813e-05
1.52223e-05
1.36759e-05
1.22383e-05
1.09052e-05
9.67251e-06
8.53571e-06
7.49031e-06
6.53169e-06
5.65517e-06
4.85607e-06
4.12974e-06
3.4716e-06
2.8772e-06
2.34223e-06
1.86252e-06
1.43424e-06
1.05323e-06
7.16503e-07
4.20276e-07
1.61344e-07
-6.32684e-08
-2.5646e-07
-4.20953e-07
-5.59315e-07
-6.73968e-07
-7.67182e-07
-8.41091e-07
-8.97687e-07
-9.38836e-07
-9.66271e-07
-9.81604e-07
-9.86331e-07
-9.81831e-07
-9.69375e-07
-9.50129e-07
-9.25162e-07
-8.95444e-07
-8.61859e-07
-8.25205e-07
-7.86201e-07
-7.45489e-07
-7.03639e-07
-6.61158e-07
-6.18486e-07
-5.76008e-07
-5.34056e-07
-4.92911e-07
-4.5281e-07
-4.13947e-07
-3.76489e-07
-3.40536e-07
-3.06231e-07
-2.7353e-07
-2.42693e-07
-2.13304e-07
-1.86209e-07
-1.59784e-07
-1.36993e-07
-1.12328e-07
-9.54826e-08
-6.93786e-08
-6.29813e-08
-2.78313e-08
-4.25758e-08
1.78678e-08
-3.98468e-08
7.59638e-08
-6.23404e-08
1.552e-07
-1.15511e-07
2.58437e-07
-1.93979e-07
3.7245e-07
-2.71623e-07
4.60946e-07
-3.00991e-07
4.74105e-07
-2.35293e-07
3.83224e-07
-7.26958e-08
2.2704e-07
1.05552e-07
1.29158e-07
1.46831e-07
2.50147e-07
-9.77258e-08
6.89089e-07
8.67479e-05
8.53898e-05
8.35501e-05
8.13236e-05
7.87809e-05
7.59856e-05
7.29969e-05
6.98668e-05
6.66406e-05
6.33583e-05
6.00541e-05
5.67576e-05
5.34936e-05
5.0283e-05
4.71431e-05
4.40877e-05
4.1128e-05
3.82726e-05
3.55278e-05
3.28982e-05
3.03868e-05
2.7995e-05
2.57235e-05
2.35716e-05
2.15382e-05
1.96214e-05
1.78189e-05
1.61281e-05
1.4546e-05
1.30694e-05
1.16949e-05
1.04189e-05
9.23763e-06
8.14717e-06
7.14343e-06
6.22223e-06
5.3793e-06
4.61034e-06
3.91105e-06
3.27718e-06
2.70455e-06
2.18912e-06
1.72696e-06
1.31441e-06
9.475e-07
6.23408e-07
3.38491e-07
8.96612e-08
-1.25938e-07
-3.11099e-07
-4.68451e-07
-6.00476e-07
-7.09514e-07
-7.97766e-07
-8.67297e-07
-9.20042e-07
-9.57811e-07
-9.82287e-07
-9.95039e-07
-9.9752e-07
-9.91073e-07
-9.76936e-07
-9.56244e-07
-9.30037e-07
-8.99264e-07
-8.64784e-07
-8.27377e-07
-7.87742e-07
-7.46507e-07
-7.04227e-07
-6.61396e-07
-6.18443e-07
-5.75744e-07
-5.33621e-07
-4.92347e-07
-4.52154e-07
-4.13228e-07
-3.75733e-07
-3.39762e-07
-3.05455e-07
-2.72767e-07
-2.41951e-07
-2.12594e-07
-1.85531e-07
-1.59151e-07
-1.36391e-07
-1.11785e-07
-9.49558e-08
-6.8939e-08
-6.2516e-08
-2.75076e-08
-4.21406e-08
1.80552e-08
-3.94025e-08
7.59849e-08
-6.18473e-08
1.55037e-07
-1.1495e-07
2.58111e-07
-1.93386e-07
3.72039e-07
-2.71097e-07
4.60586e-07
-3.00661e-07
4.73923e-07
-2.35242e-07
3.83259e-07
-7.28816e-08
2.27206e-07
1.05294e-07
1.29383e-07
1.46502e-07
2.50937e-07
-9.87304e-08
6.91496e-07
7.62617e-05
7.56996e-05
7.46153e-05
7.3096e-05
7.12153e-05
6.90387e-05
6.66263e-05
6.40316e-05
6.13019e-05
5.84788e-05
5.55988e-05
5.26931e-05
4.97889e-05
4.69089e-05
4.40724e-05
4.12952e-05
3.85903e-05
3.5968e-05
3.34365e-05
3.10019e-05
2.86686e-05
2.64396e-05
2.43166e-05
2.23004e-05
2.03907e-05
1.85867e-05
1.68871e-05
1.52899e-05
1.37928e-05
1.23934e-05
1.10889e-05
9.8762e-06
8.75207e-06
7.71311e-06
6.75573e-06
5.8762e-06
5.07072e-06
4.33538e-06
3.66629e-06
3.05953e-06
2.51125e-06
2.01768e-06
1.57514e-06
1.1802e-06
8.29068e-07
5.19128e-07
2.46872e-07
9.3551e-09
-1.96149e-07
-3.72316e-07
-5.21669e-07
-6.46594e-07
-7.49341e-07
-8.32031e-07
-8.96657e-07
-9.45086e-07
-9.79065e-07
-1.00023e-06
-1.01008e-06
-1.01005e-06
-1.00142e-06
-9.85395e-07
-9.63081e-07
-9.35486e-07
-9.03529e-07
-8.68047e-07
-8.29794e-07
-7.89453e-07
-7.47631e-07
-7.0487e-07
-6.61647e-07
-6.1838e-07
-5.75433e-07
-5.33119e-07
-4.91702e-07
-4.51406e-07
-4.12411e-07
-3.74873e-07
-3.38884e-07
-3.04576e-07
-2.71902e-07
-2.4111e-07
-2.11789e-07
-1.84764e-07
-1.58433e-07
-1.35712e-07
-1.11168e-07
-9.43658e-08
-6.8433e-08
-6.20038e-08
-2.71206e-08
-4.16805e-08
1.83115e-08
-3.89649e-08
7.60955e-08
-6.14069e-08
1.55004e-07
-1.14505e-07
2.57969e-07
-1.92983e-07
3.71876e-07
-2.70829e-07
4.60519e-07
-3.00625e-07
4.74033e-07
-2.35467e-07
3.83532e-07
-7.32758e-08
2.2753e-07
1.04892e-07
1.29739e-07
1.46001e-07
2.52001e-07
-1.00122e-07
6.94571e-07
6.52156e-05
6.54566e-05
6.51405e-05
6.4348e-05
6.31516e-05
6.16175e-05
5.98063e-05
5.77724e-05
5.55645e-05
5.32259e-05
5.07946e-05
4.83038e-05
4.57823e-05
4.3255e-05
4.07429e-05
3.82638e-05
3.58325e-05
3.34611e-05
3.11594e-05
2.89353e-05
2.67945e-05
2.47417e-05
2.27797e-05
2.09106e-05
1.91353e-05
1.7454e-05
1.58662e-05
1.43708e-05
1.29665e-05
1.16513e-05
1.04231e-05
9.27949e-06
8.21784e-06
7.23524e-06
6.32865e-06
5.49485e-06
4.7305e-06
4.03213e-06
3.39627e-06
2.81936e-06
2.29791e-06
1.82844e-06
1.40754e-06
1.03202e-06
6.98304e-07
4.03976e-07
1.45692e-07
-7.93389e-08
-2.73698e-07
-4.39934e-07
-5.80455e-07
-6.97537e-07
-7.93336e-07
-8.69883e-07
-9.29088e-07
-9.72747e-07
-1.00254e-06
-1.02003e-06
-1.02669e-06
-1.02388e-06
-1.01283e-06
-9.94726e-07
-9.7062e-07
-9.41489e-07
-9.08224e-07
-8.71633e-07
-8.32447e-07
-7.91325e-07
-7.48855e-07
-7.05562e-07
-6.61906e-07
-6.18292e-07
-5.75072e-07
-5.32548e-07
-4.90974e-07
-4.50565e-07
-4.11494e-07
-3.73911e-07
-3.37901e-07
-3.03593e-07
-2.70936e-07
-2.40172e-07
-2.10891e-07
-1.83908e-07
-1.57632e-07
-1.34955e-07
-1.1048e-07
-9.37094e-08
-6.78669e-08
-6.14355e-08
-2.66858e-08
-4.11728e-08
1.86024e-08
-3.84845e-08
7.62257e-08
-6.09235e-08
1.54971e-07
-1.14012e-07
2.5781e-07
-1.92528e-07
3.71681e-07
-2.70513e-07
4.60421e-07
-3.00562e-07
4.74137e-07
-2.35709e-07
3.83844e-07
-7.37459e-08
2.2795e-07
1.04355e-07
1.30251e-07
1.45309e-07
2.53305e-07
-1.01772e-07
6.98086e-07
5.37195e-05
5.47708e-05
5.52305e-05
5.51753e-05
5.46765e-05
5.38e-05
5.26066e-05
5.11513e-05
4.94838e-05
4.76485e-05
4.56849e-05
4.36278e-05
4.15077e-05
3.93511e-05
3.71809e-05
3.50167e-05
3.2875e-05
3.07697e-05
2.87123e-05
2.67122e-05
2.47768e-05
2.29119e-05
2.11221e-05
1.94105e-05
1.77791e-05
1.62293e-05
1.47616e-05
1.33757e-05
1.2071e-05
1.08464e-05
9.70044e-06
8.63139e-06
7.63718e-06
6.71552e-06
5.86391e-06
5.07966e-06
4.35991e-06
3.7017e-06
3.10195e-06
2.55753e-06
2.06527e-06
1.62205e-06
1.22471e-06
8.70361e-07
5.55631e-07
2.78322e-07
3.5273e-08
-1.76138e-07
-3.5834e-07
-5.13742e-07
-6.44624e-07
-7.53148e-07
-8.41363e-07
-9.11202e-07
-9.64489e-07
-1.00294e-06
-1.02816e-06
-1.04165e-06
-1.04482e-06
-1.03896e-06
-1.02528e-06
-1.0049e-06
-9.78831e-07
-9.48023e-07
-9.13329e-07
-8.75527e-07
-8.35321e-07
-7.93346e-07
-7.50169e-07
-7.06295e-07
-6.62167e-07
-6.18176e-07
-5.74658e-07
-5.31905e-07
-4.90159e-07
-4.49628e-07
-4.10475e-07
-3.72844e-07
-3.36813e-07
-3.02506e-07
-2.69868e-07
-2.39136e-07
-2.09899e-07
-1.82963e-07
-1.56748e-07
-1.34121e-07
-1.0972e-07