/*--------------------------------*- C++ -*----------------------------------*\
| =========                 |                                                 |
| \\      /  F ield         | OpenFOAM: The Open Source CFD Toolbox           |
|  \\    /   O peration     | Version:  2412                                  |
|   \\  /    A nd           | Website:  www.openfoam.com                      |
|    \\/     M anipulation  |                                                 |
\*---------------------------------------------------------------------------*/
FoamFile
{
    version     2.0;
    format      ascii;
    arch        "LSB;label=32;scalar=64";
    class       surfaceScalarField;
    location    "20";
    object      phi;
}
// * * * * * * * * * * * * * * * * * * * * * * * * * * * * * * * * * * * * * //

dimensions      [0 3 -1 0 0 0 0];

oriented        oriented;

internalField   nonuniform List<scalar> 
126304
(
0.00505063
1.28756e-07
-5.08936e-12
0.00505025
3.75854e-07
-4.2971e-12
0.00504964
6.101e-07
6.55612e-12
0.00504881
8.31397e-07
2.98635e-11
0.00504777
1.04057e-06
6.52759e-11
0.00504652
1.24617e-06
1.00112e-10
0.00504505
1.47001e-06
1.0057e-10
0.00504331
1.74346e-06
1.67875e-11
0.00504122
2.09399e-06
-1.94629e-10
0.00503869
2.52941e-06
-5.42263e-10
0.00503566
3.0295e-06
-9.83031e-10
0.00503211
3.5498e-06
-1.42788e-09
0.00502808
4.03526e-06
-1.76779e-09
0.00502364
4.43674e-06
-1.90716e-09
0.00501892
4.72345e-06
-1.79011e-09
0.00501403
4.88776e-06
-1.41136e-09
0.00500909
4.94273e-06
-8.11303e-10
0.00500418
4.91499e-06
-6.02748e-11
0.00499934
4.8364e-06
7.60662e-10
0.0049946
4.73718e-06
1.57641e-09
0.00498996
4.6415e-06
2.32845e-09
0.00498539
4.56575e-06
2.97904e-09
0.00498087
4.51894e-06
3.51043e-09
0.00497636
4.50407e-06
3.92094e-09
0.00497183
4.52009e-06
4.22003e-09
0.00496727
4.56358e-06
4.42341e-09
0.00496263
4.63016e-06
4.54894e-09
0.00495791
4.71541e-06
4.6138e-09
0.00495309
4.81542e-06
4.63304e-09
0.00494816
4.92699e-06
4.61909e-09
0.00494311
5.04768e-06
4.5817e-09
0.00493793
5.17572e-06
4.52798e-09
0.00493261
5.30991e-06
4.46287e-09
0.00492716
5.44947e-06
4.38962e-09
0.00492156
5.59393e-06
4.31041e-09
0.00491581
5.74302e-06
4.22665e-09
0.00490991
5.8966e-06
4.13923e-09
0.00490385
6.05464e-06
4.04863e-09
0.00489763
6.21714e-06
3.95506e-09
0.00489125
6.38413e-06
3.8587e-09
0.00488469
6.55566e-06
3.75975e-09
0.00487795
6.73175e-06
3.65831e-09
0.00487103
6.91247e-06
3.55444e-09
0.00486393
7.09786e-06
3.44824e-09
0.00485664
7.28795e-06
3.33983e-09
0.00484916
7.48278e-06
3.22942e-09
0.00484147
7.68242e-06
3.11718e-09
0.00483358
7.88689e-06
3.00328e-09
0.00482548
8.09628e-06
2.88793e-09
0.00481717
8.31065e-06
2.77135e-09
0.00480864
8.53015e-06
2.65388e-09
0.00479988
8.75508e-06
2.53595e-09
0.00479089
8.98625e-06
2.41792e-09
0.00478166
9.22595e-06
2.30014e-09
9.48078e-06
0.00477218
2.18158e-09
0.00505063
2.57419e-07
0.00505025
7.51431e-07
0.00504964
1.21977e-06
0.00504881
1.66225e-06
0.00504777
2.0805e-06
0.00504653
2.49155e-06
0.00504506
2.93875e-06
0.00504332
3.48457e-06
0.00504123
4.1838e-06
0.0050387
5.0522e-06
0.00503568
6.04971e-06
0.00503215
7.08799e-06
0.00502812
8.05748e-06
0.0050237
8.86023e-06
0.00501899
9.4347e-06
0.00501411
9.76544e-06
0.00500918
9.87818e-06
0.00500427
9.8257e-06
0.00499943
9.67141e-06
0.00499469
9.47541e-06
0.00499005
9.28587e-06
0.00498548
9.1356e-06
0.00498095
9.0426e-06
0.00497645
9.013e-06
0.00497192
9.04478e-06
0.00496735
9.13123e-06
0.00496272
9.2637e-06
0.004958
9.43341e-06
0.00495318
9.6326e-06
0.00494826
9.85489e-06
0.00494321
1.00954e-05
0.00493803
1.03507e-05
0.00493273
1.06183e-05
0.00492728
1.08967e-05
0.00492169
1.11848e-05
0.00491595
1.14823e-05
0.00491006
1.17887e-05
0.00490401
1.2104e-05
0.0048978
1.24282e-05
0.00489142
1.27614e-05
0.00488487
1.31037e-05
0.00487815
1.3455e-05
0.00487124
1.38155e-05
0.00486416
1.41854e-05
0.00485688
1.45646e-05
0.00484941
1.49532e-05
0.00484174
1.53514e-05
0.00483387
1.57592e-05
0.00482579
1.61767e-05
0.00481749
1.66041e-05
0.00480898
1.70417e-05
0.00480025
1.74901e-05
0.00479128
1.79507e-05
0.00478208
1.84281e-05
1.89349e-05
0.00477263
0.00505063
3.85914e-07
0.00505025
1.12646e-06
0.00504964
1.82858e-06
0.00504882
2.49194e-06
0.00504778
3.11903e-06
0.00504653
3.73514e-06
0.00504507
4.40476e-06
0.00504333
5.22099e-06
0.00504125
6.26576e-06
0.00503874
7.56301e-06
0.00503573
9.05357e-06
0.00503222
1.06061e-05
0.00502822
1.20575e-05
0.00502381
1.32614e-05
0.00501912
1.41254e-05
0.00501426
1.4626e-05
0.00500934
1.48008e-05
0.00500444
1.4728e-05
0.00499961
1.4502e-05
0.00499487
1.42124e-05
0.00499023
1.39312e-05
0.00498565
1.37075e-05
0.00498113
1.35685e-05
0.00497662
1.35236e-05
0.00497209
1.35701e-05
0.00496752
1.36981e-05
0.00496289
1.38948e-05
0.00495818
1.41473e-05
0.00495337
1.44439e-05
0.00494845
1.47753e-05
0.00494341
1.51341e-05
0.00493825
1.55152e-05
0.00493295
1.59147e-05
0.00492751
1.63305e-05
0.00492194
1.67611e-05
0.00491622
1.72055e-05
0.00491034
1.76635e-05
0.00490431
1.81348e-05
0.00489812
1.86194e-05
0.00489176
1.91174e-05
0.00488524
1.96289e-05
0.00487854
2.0154e-05
0.00487166
2.06928e-05
0.0048646
2.12454e-05
0.00485735
2.1812e-05
0.00484991
2.23926e-05
0.00484228
2.29873e-05
0.00483444
2.35963e-05
0.0048264
2.42198e-05
0.00481814
2.48579e-05
0.00480968
2.5511e-05
0.00480099
2.61799e-05
0.00479207
2.68668e-05
0.00478292
2.75778e-05
2.83308e-05
0.00477352
0.00505063
5.14154e-07
0.00505025
1.50067e-06
0.00504965
2.43608e-06
0.00504882
3.3199e-06
0.00504778
4.15546e-06
0.00504654
4.97604e-06
0.00504508
5.8667e-06
0.00504335
6.95051e-06
0.00504128
8.33622e-06
0.00503879
1.00563e-05
0.00503581
1.20335e-05
0.00503232
1.4095e-05
0.00502835
1.60251e-05
0.00502398
1.76298e-05
0.00501932
1.87861e-05
0.00501449
1.94613e-05
0.00500958
1.97043e-05
0.00500469
1.96178e-05
0.00499987
1.93259e-05
0.00499513
1.89473e-05
0.00499049
1.85775e-05
0.00498591
1.8282e-05
0.00498138
1.80973e-05
0.00497687
1.80363e-05
0.00497235
1.80959e-05
0.00496778
1.82633e-05
0.00496315
1.85219e-05
0.00495845
1.88547e-05
0.00495364
1.92463e-05
0.00494873
1.96844e-05
0.00494371
2.01592e-05
0.00493856
2.06637e-05
0.00493328
2.11932e-05
0.00492787
2.17443e-05
0.00492231
2.23153e-05
0.00491662
2.29048e-05
0.00491077
2.35124e-05
0.00490476
2.41377e-05
0.0048986
2.47807e-05
0.00489228
2.54414e-05
0.00488579
2.61201e-05
0.00487912
2.68167e-05
0.00487229
2.75314e-05
0.00486527
2.82644e-05
0.00485806
2.90157e-05
0.00485067
2.97855e-05
0.00484308
3.0574e-05
0.0048353
3.13811e-05
0.00482731
3.22072e-05
0.00481912
3.30524e-05
0.00481071
3.39172e-05
0.00480209
3.48025e-05
0.00479324
3.57107e-05
0.00478417
3.66492e-05
3.76389e-05
0.00477486
0.00505063
6.4206e-07
0.00505026
1.87379e-06
0.00504965
3.04185e-06
0.00504882
4.14555e-06
0.00504779
5.18908e-06
0.00504655
6.21338e-06
0.0050451
7.32329e-06
0.00504338
8.67105e-06
0.00504132
1.03918e-05
0.00503885
1.25271e-05
0.0050359
1.49828e-05
0.00503245
1.75463e-05
0.00502852
1.99509e-05
0.0050242
2.19561e-05
0.00501958
2.34078e-05
0.00501477
2.4264e-05
0.00500989
2.45831e-05
0.00500502
2.44908e-05
0.00500021
2.41405e-05
0.00499548
2.36789e-05
0.00499083
2.32245e-05
0.00498625
2.28592e-05
0.00498172
2.26291e-05
0.0049772
2.25509e-05
0.00497268
2.26215e-05
0.00496812
2.28257e-05
0.0049635
2.31431e-05
0.0049588
2.3553e-05
0.00495401
2.40364e-05
0.00494911
2.4578e-05
0.00494411
2.51658e-05
0.00493898
2.5791e-05
0.00493372
2.64476e-05
0.00492834
2.71315e-05
0.00492281
2.78402e-05
0.00491715
2.85723e-05
0.00491133
2.93268e-05
0.00490537
3.01036e-05
0.00489924
3.09023e-05
0.00489296
3.17231e-05
0.00488652
3.25661e-05
0.0048799
3.34313e-05
0.00487311
3.43188e-05
0.00486615
3.52289e-05
0.004859
3.61616e-05
0.00485167
3.7117e-05
0.00484415
3.80953e-05
0.00483644
3.90965e-05
0.00482852
4.01209e-05
0.00482041
4.11686e-05
0.00481208
4.224e-05
0.00480355
4.33362e-05
0.0047948
4.44595e-05
0.00478583
4.56175e-05
4.68318e-05
0.00477664
0.00505063
7.69555e-07
0.00505026
2.24554e-06
0.00504965
3.64546e-06
0.00504883
4.96831e-06
0.0050478
6.21919e-06
0.00504657
7.44625e-06
0.00504512
8.7733e-06
0.00504341
1.03807e-05
0.00504137
1.24295e-05
0.00503893
1.49709e-05
0.00503601
1.78954e-05
0.00503261
2.09526e-05
0.00502873
2.3827e-05
0.00502446
2.6232e-05
0.00501988
2.7983e-05
0.00501512
2.90272e-05
0.00501027
2.94315e-05
0.00500542
2.93433e-05
0.00500061
2.89433e-05
0.00499589
2.84054e-05
0.00499124
2.78711e-05
0.00498666
2.74385e-05
0.00498213
2.71633e-05
0.00497761
2.70668e-05
0.00497309
2.7146e-05
0.00496853
2.73837e-05
0.00496392
2.77562e-05
0.00495923
2.82393e-05
0.00495446
2.88107e-05
0.00494958
2.9452e-05
0.0049446
3.01491e-05
0.0049395
3.08915e-05
0.00493427
3.16718e-05
0.00492892
3.24852e-05
0.00492343
3.33285e-05
0.0049178
3.42e-05
0.00491203
3.50984e-05
0.00490611
3.60234e-05
0.00490004
3.69747e-05
0.00489381
3.79522e-05
0.00488742
3.89559e-05
0.00488087
3.99861e-05
0.00487414
4.10427e-05
0.00486725
4.21259e-05
0.00486017
4.32358e-05
0.00485292
4.43724e-05
0.00484548
4.55358e-05
0.00483785
4.67261e-05
0.00483002
4.79435e-05
0.004822
4.9188e-05
0.00481378
5.04599e-05
0.00480536
5.17602e-05
0.00479673
5.3091e-05
0.00478789
5.44586e-05
5.58829e-05
0.00477884
0.00505063
8.96517e-07
0.00505026
2.6157e-06
0.00504966
4.24649e-06
0.00504884
5.78761e-06
0.00504781
7.24507e-06
0.00504659
8.6738e-06
0.00504514
1.02156e-05
0.00504345
1.20777e-05
0.00504143
1.44469e-05
0.00503902
1.73841e-05
0.00503615
2.07665e-05
0.00503279
2.43082e-05
0.00502897
2.76466e-05
0.00502475
3.04506e-05
0.00502023
3.25049e-05
0.00501551
3.37451e-05
0.0050107
3.42448e-05
0.00500587
3.41712e-05
0.00500108
3.37311e-05
0.00499636
3.31248e-05
0.00499172
3.25158e-05
0.00498714
3.20185e-05
0.0049826
3.16987e-05
0.00497809
3.15824e-05
0.00497357
3.16674e-05
0.00496901
3.19349e-05
0.00496441
3.23584e-05
0.00495974
3.29103e-05
0.00495499
3.35651e-05
0.00495014
3.43018e-05
0.00494518
3.5104e-05
0.00494011
3.59595e-05
0.00493493
3.68597e-05
0.00492961
3.77988e-05
0.00492417
3.87731e-05
0.00491859
3.97802e-05
0.00491287
4.08189e-05
0.004907
4.18883e-05
0.00490099
4.29882e-05
0.00489482
4.41185e-05
0.0048885
4.5279e-05
0.00488202
4.64698e-05
0.00487537
4.7691e-05
0.00486855
4.89427e-05
0.00486156
5.02247e-05
0.0048544
5.15373e-05
0.00484705
5.28803e-05
0.00483953
5.42539e-05
0.00483181
5.5658e-05
0.00482391
5.70927e-05
0.00481581
5.85582e-05
0.00480751
6.0055e-05
0.00479902
6.15844e-05
0.00479033
6.31504e-05
0.00478145
6.47643e-05
0.00477269
-5.10952e-07
2.05568e-09
0.00477267
1.87433e-08
1.87712e-09
0.00477209
5.70709e-07
1.88165e-09
0.00477092
1.1668e-06
1.79909e-09
0.00476912
1.80273e-06
1.6942e-09
0.00476664
2.48261e-06
1.58396e-09
0.00476342
3.21046e-06
1.46795e-09
0.00475943
3.99068e-06
1.34583e-09
0.0047546
4.82817e-06
1.21745e-09
0.00474887
5.72844e-06
1.08237e-09
0.00474217
6.69758e-06
9.40524e-10
0.00473443
7.74246e-06
7.917e-10
0.00472556
8.8707e-06
6.35551e-10
0.00471547
1.00909e-05
4.72219e-10
0.00470406
1.14126e-05
3.0105e-10
0.00469121
1.28467e-05
1.1975e-10
0.0046768
1.44055e-05
-7.39808e-11
0.0046607
1.61029e-05
-2.75905e-10
0.00464275
1.79549e-05
-4.77484e-10
0.00462277
1.99797e-05
-6.80134e-10
0.00460057
2.21979e-05
-8.85855e-10
0.00457594
2.46337e-05
-1.09318e-09
0.00454862
2.73152e-05
-1.3013e-09
0.00451835
3.0275e-05
-1.50761e-09
0.0044848
3.35518e-05
-1.71061e-09
0.00444761
3.71908e-05
-1.90866e-09
0.00440637
4.12463e-05
-2.09988e-09
0.00436059
4.57826e-05
-2.28332e-09
0.00430971
5.08772e-05
-2.45783e-09
0.00425309
5.66237e-05
-2.62261e-09
0.00418996
6.31353e-05
-2.77789e-09
0.00411941
7.05502e-05
-2.92414e-09
0.00404038
7.90373e-05
-3.06186e-09
0.00395158
8.88033e-05
-3.19226e-09
0.00385148
0.000100101
-3.31699e-09
0.00373824
0.000113238
-3.43746e-09
0.00360967
0.000128581
-3.555e-09
0.00346311
0.000146558
-3.67115e-09
0.00329548
0.000167642
-3.78751e-09
0.00310317
0.000192305
-3.90535e-09
0.00288225
0.000220929
-4.02567e-09
0.00262863
0.000253628
-4.14925e-09
0.00233869
0.000289943
-4.27547e-09
0.00201032
0.000328371
-4.39886e-09
0.00164469
0.000365637
-4.50277e-09
0.00124901
0.000395677
-4.54825e-09
0.000840684
0.000408334
-4.45523e-09
0.000452967
0.000387721
-4.08123e-09
0.000143281
0.000309689
-3.2011e-09
0.000143283
-1.49833e-09
0.00477176
3.51043e-07
0.00477039
1.39659e-06
0.00476845
2.50915e-06
0.00476592
3.69735e-06
0.00476275
4.96664e-06
0.00475891
6.32391e-06
0.00475435
7.77707e-06
0.004749
9.33498e-06
0.00474282
1.10075e-05
0.00473575
1.28056e-05
0.0047277
1.47415e-05
0.00471861
1.68289e-05
0.0047084
1.90833e-05
0.00469697
2.15216e-05
0.00468422
2.41631e-05
0.00467004
2.70296e-05
0.0046543
3.01456e-05
0.00463686
3.35393e-05
0.00461757
3.72426e-05
0.00459626
4.12917e-05
0.00457273
4.57283e-05
0.00454676
5.06007e-05
0.00451811
5.59651e-05
0.0044865
6.1887e-05
0.00445161
6.84436e-05
0.00441308
7.57259e-05
0.00437048
8.3842e-05
0.00432334
9.29208e-05
0.0042711
0.000103117
0.00421311
0.000114618
0.0041486
0.000127648
0.00407666
0.000142483
0.00399624
0.000159459
0.00390606
0.000178986
0.0038046
0.000201563
0.00369004
0.000227797
0.00356021
0.000258411
0.00341252
0.000294243
0.00324395
0.00033621
0.00305103
0.000385226
0.00282995
0.000442007
0.00257686
0.000506721
0.00228841
0.000578391
0.00196283
0.000653952
0.00160163
0.000726842
0.00121231
0.000784996
0.000812395
0.000808247
0.000434817
0.000765299
0.000134917
0.000609589
0.0002782
0.00476995
3.92766e-06
0.00476585
5.49023e-06
0.00476121
7.15536e-06
0.00475597
8.93208e-06
0.00475011
1.083e-05
0.00474357
1.28598e-05
0.00473632
1.50333e-05
0.00472829
1.7364e-05
0.00471943
1.98665e-05
0.00470968
2.25576e-05
0.00469896
2.54555e-05
0.00468721
2.85809e-05
0.00467434
3.19569e-05
0.00466025
3.56091e-05
0.00464485
3.95666e-05
0.00462801
4.38619e-05
0.00460963
4.85322e-05
0.00458955
5.36197e-05
0.00456762
5.91723e-05
0.00454366
6.52446e-05
0.00451749
7.18994e-05
0.00448888
7.92093e-05
0.00445759
8.72589e-05
0.00442333
9.61467e-05
0.00438579
0.000105989
0.00434459
0.000116922
0.00429932
0.000129108
0.00424951
0.00014274
0.00419457
0.000158051
0.00413387
0.000175319
0.00406664
0.00019488
0.00399198
0.000217145
0.00390883
0.000242611
0.00381593
0.000271884
0.00371179
0.000305701
0.00359464
0.00034495
0.00346237
0.000390683
0.0033125
0.000444112
0.00314216
0.000506549
0.00294811
0.000579272
0.00272688
0.000663236
0.00247505
0.00075855
0.00218985
0.000863594
0.00187016
0.000973646
0.00151815
0.00107885
0.00114179
0.00116135
0.000758638
0.0011914
0.000401142
0.00112279
0.000122074
0.000888657
0.000400274
0.00476726
1.15359e-05
0.00475914
1.36094e-05
0.00475047
1.5819e-05
0.00474123
1.81766e-05
0.00473136
2.06954e-05
0.00472083
2.33896e-05
0.00470959
2.62754e-05
0.00469758
2.93707e-05
0.00468476
3.26953e-05
0.00467104
3.62713e-05
0.00465637
4.01234e-05
0.00464068
4.4279e-05
0.00462386
4.87691e-05
0.00460585
5.3628e-05
0.00458652
5.88946e-05
0.00456577
6.46122e-05
0.00454347
7.08307e-05
0.00451948
7.76065e-05
0.00449365
8.50039e-05
0.0044658
9.30959e-05
0.00443573
0.000101966
0.00440323
0.000111713
0.00436804
0.000122448
0.00432988
0.000134305
0.00428843
0.000147437
0.00424333
0.000162027
0.00419414
0.000178293
0.00414039
0.000196491
0.00408151
0.00021693
0.00401685
0.000239979
0.00394565
0.000266085
0.00386701
0.000295786
0.00377988
0.000329735
0.00368304
0.000368726
0.00357503
0.000413712
0.00345414
0.000465839
0.00331837
0.000526449
0.00316542
0.000597066
0.00299265
0.000679316
0.0027972
0.000774727
0.00257609
0.000884344
0.0023266
0.00100804
0.00204683
0.00114336
0.00173666
0.00128382
0.00139921
0.0014163
0.00104296
0.0015176
0.000684997
0.00154936
0.000355937
0.00145185
0.000103855
0.00114074
0.00050413
0.00476374
2.44383e-05
0.00475033
2.70117e-05
0.0047364
2.97544e-05
0.00472189
3.26813e-05
0.00470678
3.58091e-05
0.00469101
3.91561e-05
0.00467455
4.27424e-05
0.00465733
4.65906e-05
0.0046393
5.07255e-05
0.00462039
5.51748e-05
0.00460055
5.99694e-05
0.00457968
6.51438e-05
0.00455771
7.07366e-05
0.00453455
7.67909e-05
0.00451009
8.33554e-05
0.00448422
9.04847e-05
0.00445681
9.82411e-05
0.00442772
0.000106696
0.00439679
0.000115929
0.00436386
0.000126033
0.00432871
0.000137112
0.00429113
0.00014929
0.00425088
0.000162707
0.00420765
0.000177531
0.00416113
0.000193954
0.00411095
0.000212206
0.00405669
0.000232557
0.00399785
0.000255329
0.00393388
0.000280906
0.00386411
0.000309747
0.00378779
0.000342403
0.00370404
0.000379537
0.00361182
0.000421949
0.00350995
0.000470601
0.00339702
0.000526644
0.00327142
0.000591438
0.0031313
0.000666562
0.0029746
0.00075377
0.00279904
0.000854877
0.00260227
0.0009715
0.00238205
0.00110456
0.00213664
0.00125345
0.00186536
0.00141464
0.00156949
0.00157969
0.00125337
0.00173243
0.00092599
0.00184498
0.000603131
0.00187222
0.000310536
0.00174445
8.59174e-05
0.00136536
0.000590047
0.00475945
4.38272e-05
0.00473958
4.68833e-05
0.00471919
5.01423e-05
0.00469825
5.36221e-05
0.00467671
5.73429e-05
0.00465454
6.13268e-05
0.00463169
6.5598e-05
0.00460809
7.01833e-05
0.00458371
7.51128e-05
0.00455846
8.04196e-05
0.00453229
8.61408e-05
0.00450512
9.2318e-05
0.00447686
9.89975e-05
0.00444742
0.000106231
0.00441669
0.000114078
0.00438457
0.000122603
0.00435093
0.000131882
0.00431563
0.000142001
0.0042785
0.000153056
0.00423937
0.000165159
0.00419805
0.000178435
0.00415431
0.000193034
0.00410789
0.000209126
0.00405851
0.000226911
0.00400584
0.000246622
0.00394951
0.000268536
0.00388909
0.000292977
0.00382409
0.000320331
0.00375394
0.000351056
0.00367799
0.000385699
0.00359548
0.000424913
0.00350553
0.000469479
0.00340715
0.000520331
0.00329917
0.000578578
0.00318028
0.000645534
0.003049
0.000722724
0.00290369
0.000811875
0.00274261
0.000914845
0.00256403
0.00103346
0.00236636
0.00116917
0.00214847
0.00132245
0.00191012
0.0014918
0.00165249
0.00167226
0.00137898
0.0018532
0.00109583
0.00201557
0.000812824
0.00212799
0.000543432
0.00214162
0.000303459
0.00198442
0.000104734
0.00156408
0.000694781
0.00475447
7.08015e-05
0.00472704
7.43144e-05
0.00469912
7.80669e-05
0.00467066
8.2078e-05
0.00464163
8.63706e-05
0.00461199
9.09702e-05
0.00458168
9.59047e-05
0.00455066
0.000101205
0.00451887
0.000106907
0.00448624
0.000113048
0.00445271
0.000119673
0.0044182
0.000126828
0.00438262
0.000134569
0.0043459
0.000142957
0.00430792
0.000152059
0.00426857
0.000161954
0.00422772
0.000172728
0.00418524
0.000184483
0.00414096
0.000197332
0.00409472
0.000211404
0.0040463
0.000226849
0.0039955
0.000243841
0.00394204
0.000262579
0.00388566
0.000283297
0.00382601
0.000306271
0.00376272
0.000331822
0.00369537
0.000360329
0.00362346
0.000392242
0.00354642
0.000428094
0.0034636
0.000468517
0.00337425
0.000514263
0.00327751
0.000566223
0.00317239
0.000625454
0.00305777
0.000693197
0.00293241
0.000770891
0.00279496
0.000860173
0.00264401
0.000962828
0.00247818
0.00108068
0.0022963
0.00121534
0.0020977
0.00136777
0.00188257
0.00153757
0.00165258
0.0017218
0.00141149
0.00191336
0.00116584
0.00209885
0.000925471
0.00225594
0.00070306
0.0023504
0.000511583
0.00233309
0.000355447
0.00214056
0.000215147
0.00170438
0.000909929
-2.96521e-05
2.96529e-05
-8.12127e-10
-8.50211e-05
5.5371e-05
-2.03421e-09
-0.000145583
6.05645e-05
-3.00738e-09
-0.00019929
5.37116e-05
-3.78591e-09
-0.000239425
4.01388e-05
-4.375e-09
-0.000262491
2.30705e-05
-4.78499e-09
-0.00026671
4.22451e-06
-5.02064e-09
-0.00025245
-1.42552e-05
-4.91096e-09
-0.000219973
-3.24725e-05
-4.65018e-09
-0.000170093
-4.98757e-05
-4.16643e-09
-0.00010393
-6.61596e-05
-3.43812e-09
-2.2758e-05
-8.11692e-05
-2.47319e-09
7.20531e-05
-9.48098e-05
-1.2811e-09
0.000179091
-0.000107038
1.16742e-10
0.000296937
-0.000117847
1.69909e-09
0.000424178
-0.000127245
3.45042e-09
0.000559428
-0.000135255
5.35134e-09
0.000701337
-0.000141916
7.38377e-09
0.000848603
-0.000147276
9.52127e-09
0.000999982
-0.000151391
1.17138e-08
0.00115429
-0.000154326
1.38061e-08
0.00131043
-0.000156147
1.55533e-08
0.00146733
-0.000156923
1.68391e-08
0.00162404
-0.000156724
1.76988e-08
0.00177965
-0.000155631
1.82699e-08
0.00193336
-0.000153729
1.84371e-08
0.00208445
-0.000151104
1.8181e-08
0.00223227
-0.000147836
1.75771e-08
0.00237625
-0.000144005
1.6701e-08
0.00251593
-0.000139691
1.56226e-08
0.00265088
-0.000134969
1.43954e-08
0.00278078
-0.000129913
1.30551e-08
0.00290536
-0.000124592
1.16256e-08
0.00302443
-0.000119072
1.0124e-08
0.00313783
-0.000113414
8.5667e-09
0.0032455
-0.000107675
6.97436e-09
0.0033474
-0.000101905
5.37132e-09
0.00344355
-9.61533e-05
3.78674e-09
0.00353401
-9.04602e-05
2.25126e-09
0.00361887
-8.48627e-05
7.96986e-10
0.00369826
-7.9393e-05
-5.46373e-10
0.00377234
-7.4078e-05
-1.75384e-09
0.00384129
-6.89405e-05
-2.80537e-09
0.00390529
-6.39986e-05
-3.68664e-09
0.00396456
-5.92665e-05
-4.38919e-09
0.00401932
-5.47544e-05
-4.91041e-09
0.00406979
-5.04692e-05
-5.2523e-09
0.00411621
-4.6414e-05
-5.41951e-09
0.00415881
-4.25888e-05
-5.41817e-09
-3.89902e-05
0.0041978
-5.25539e-09
-2.60104e-05
5.56633e-05
-7.45189e-05
0.00010388
-0.000127203
0.000113249
-0.000173495
0.000100003
-0.000207293
7.39372e-05
-0.00022539
4.11673e-05
-0.0002258
4.63491e-06
-0.000209253
-3.08028e-05
-0.000175539
-6.61859e-05
-0.000125374
-0.00010004
-5.97216e-05
-0.000131812
2.02936e-05
-0.000161184
0.000113411
-0.000187928
0.000218358
-0.000211985
0.000333817
-0.000233306
0.000458465
-0.000251893
0.000590994
-0.000267783
0.000730118
-0.00028104
0.000874591
-0.000291749
0.00102322
-0.000300016
0.00117485
-0.000305959
0.00132841
-0.000309708
0.00148288
-0.000311389
0.00163729
-0.000311142
0.00179078
-0.000309117
0.00194254
-0.000305486
0.00209184
-0.000300411
0.00223806
-0.000294054
0.00238063
-0.000286572
0.00251906
-0.00027812
0.00265294
-0.00026885
0.00278193
-0.000258906
0.00290577
-0.000248426
0.00302423
-0.00023754
0.00313719
-0.000226371
0.00324455
-0.000215032
0.00334627
-0.000203625
0.00344236
-0.000192245
0.00353288
-0.000180975
0.0036179
-0.000169888
0.00369756
-0.000159049
0.00377199
-0.000148513
0.00384138
-0.000138324
0.0039059
-0.000128521
0.00396576
-0.00011913
0.00402118
-0.000110174
0.00407238
-0.000101666
0.00411958
-9.36129e-05
0.004163
-8.60143e-05
-7.88627e-05
0.00420287
-1.95876e-05
7.52509e-05
-5.43641e-05
0.000138656
-9.19523e-05
0.000150837
-0.000124057
0.000132107
-0.000145763
9.56434e-05
-0.000154442
4.98467e-05
-0.00014796
-1.84714e-06
-0.00012723
-5.15327e-05
-9.12969e-05
-0.000102119
-4.07338e-05
-0.000150604
2.3748e-05
-0.000196294
0.000101304
-0.000238741
0.00019102
-0.000277644
0.000291822
-0.000312787
0.00040259
-0.000344074
0.000522173
-0.000371477
0.000649411
-0.000395021
0.000783145
-0.000414774
0.000922234
-0.000430838
0.00106557
-0.000443348
0.00121207
-0.000452462
0.00136072
-0.000458357
0.00151054
-0.000461212
0.00166062
-0.000461217
0.00181009
-0.000458587
0.00195816
-0.000453561
0.00210413
-0.000446384
0.00224737
-0.000437286
0.00238729
-0.0004265
0.00252343
-0.000414253
0.00265534
-0.000400766
0.00278269
-0.000386255
0.00290519
-0.000370924
0.00302262
-0.000354968
0.00313481
-0.000338567
0.00324167
-0.000321892
0.00334314
-0.000305096
0.00343922
-0.00028832
0.00352994
-0.000271691
0.00361537
-0.000255318
0.00369562
-0.0002393
0.00377082
-0.000223718
0.00384114
-0.000208642
0.00390675
-0.000194127
0.00396784
-0.000180218
0.00402461
-0.000166947
0.00407728
-0.000154335
0.00412606
-0.000142392
0.00417116
-0.00013112
-0.000120503
0.0042128
-8.28901e-06
8.35399e-05
-2.49894e-05
0.000155356
-4.1818e-05
0.000167665
-5.42962e-05
0.000144586
-5.94063e-05
0.000100754
-5.4916e-05
4.53564e-05
-4.05281e-05
-1.6235e-05
-1.38656e-05
-7.81953e-05
2.44727e-05
-0.000140458
7.48638e-05
-0.000200995
0.000137176
-0.000258606
0.000210949
-0.000312513
0.000295545
-0.00036224
0.000390229
-0.000407471
0.000494165
-0.00044801
0.000606447
-0.000483759
0.000726119
-0.000514693
0.000852196
-0.000540851
0.000983682
-0.000562324
0.00111958
-0.000579248
0.00125892
-0.000591801
0.00140075
-0.000600185
0.00154416
-0.000604619
0.00168827
-0.000605327
0.00183225
-0.00060257
0.00197533
-0.000596646
0.00211682
-0.000587868
0.00225606
-0.000576534
0.00239251
-0.000562941
0.00252564
-0.000547385
0.00265503
-0.000530155
0.0027803
-0.000511531
0.00290116
-0.000491784
0.00301736
-0.000471169
0.00312872
-0.000449928
0.00323512
-0.000428285
0.00333647
-0.000406446
0.00343275
-0.000384599
0.00352397
-0.000362913
0.00361019
-0.000341537
0.00369149
-0.000320601
0.00376799
-0.000300218
0.00383983
-0.00028048
0.00390716
-0.000261463
0.00397017
-0.000243229
0.00402905
-0.000225821
0.00408398
-0.000209269
0.00413518
-0.00019359
0.00418284
-0.000178782
-0.000164826
0.00422716
6.35186e-06
7.71881e-05
1.28135e-05
0.000148895
2.13307e-05
0.000159148
3.17865e-05
0.00013413
4.55413e-05
8.69987e-05
6.43043e-05
2.65935e-05
8.8228e-05
-4.01587e-05
0.000120118
-0.000110085
0.000160577
-0.000180917
0.000210114
-0.000250532
0.000269045
-0.000317537
0.00033745
-0.000380918
0.000415174
-0.000439964
0.000501875
-0.000494171
0.000597057
-0.000543192
0.000700105
-0.000586807
0.000810311
-0.000624899
0.000926897
-0.000657437
0.00104904
-0.000684463
0.00117587
-0.000706086
0.00130654
-0.000722469
0.00144018
-0.000733823
0.00157594
-0.00074038
0.001713
-0.000742388
0.00185056
-0.000740131
0.00198787
-0.000733949
0.00212421
-0.000724213
0.00225896
-0.000711281
0.00239153
-0.000695509
0.0025214
-0.000677252
0.0026481
-0.000656864
0.00277126
-0.000634689
0.00289054
-0.000611058
0.00300566
-0.00058629
0.00311641
-0.000560683
0.00322265
-0.000534518
0.00332425
-0.000508054
0.00342118
-0.000481526
0.00351341
-0.000455146
0.00360098
-0.000429104
0.00368394
-0.000403564
0.00376239
-0.00037867
0.00383645
-0.000354539
0.00390626
-0.000331271
0.00397197
-0.000308943
0.00403377
-0.000287613
0.00409182
-0.00026732
0.00414631
-0.000248086
0.00419745
-0.000229914
-0.000212773
0.00424539
2.19321e-05
5.5256e-05
5.56929e-05
0.000115134
9.21258e-05
0.000122715
0.000127843
9.84128e-05
0.000162181
5.26609e-05
0.000195579
-6.8052e-06
0.000228673
-7.32529e-05
0.000265119
-0.000146531
0.000306203
-0.000222001
0.000353181
-0.000297509
0.000406985
-0.000371342
0.000468247
-0.00044218
0.000537307
-0.000509024
0.000614258
-0.000571123
0.000698983
-0.000627917
0.000791184
-0.000679009
0.000890423
-0.000724138
0.000996144
-0.000763158
0.0011077
-0.000796023
0.00122439
-0.000822775
0.00134546
-0.000843533
0.00147012
-0.000858484
0.00159759
-0.000867858
0.00172711
-0.000871903
0.00185789
-0.00087091
0.00198918
-0.000865244
0.00212028
-0.000855315
0.00225054
-0.000841536
0.00237934
-0.000824314
0.00250615
-0.00080406
0.00263047
-0.000781185
0.00275188
-0.000756095
0.00287
-0.000729183
0.00298454
-0.000700826
0.00309524
-0.000671383
0.00320191
-0.00064119
0.00330442
-0.00061056
0.00340267
-0.000579778
0.00349662
-0.000549101
0.00358628
-0.000518761
0.00367167
-0.000488958
0.00375287
-0.000459869
0.00382997
-0.00043164
0.00390309
-0.000404391
0.00397237
-0.000378221
0.00403796
-0.000353202
0.00410003
-0.000329385
0.00415874
-0.0003068
0.00421428
-0.000285452
-0.000265306
0.00426681
4.02963e-05
1.49597e-05
0.000106127
4.93038e-05
0.000171523
5.73192e-05
0.00023035
3.95856e-05
0.000284294
-1.28337e-06
0.000327429
-4.99399e-05
0.000367666
-0.00011349
0.000406337
-0.000185202
0.000445917
-0.00026158
0.000488379
-0.000339971
0.000535291
-0.000418254
0.000587843
-0.000494731
0.000646868
-0.00056805
0.000712887
-0.000637141
0.000786146
-0.000701175
0.00086666
-0.000759523
0.00095425
-0.000811728
0.00104858
-0.000857484
0.00114917
-0.000896614
0.00125545
-0.000929059
0.00136678
-0.000954861
0.00148245
-0.000974156
0.00160174
-0.000987144
0.0017239
-0.000994064
0.00184818
-0.000995192
0.00197383
-0.000990898
0.00210014
-0.000981622
0.00222642
-0.000967815
0.00235204
-0.000949932
0.00247641
-0.000928435
0.00259902
-0.000903791
0.00271939
-0.000876462
0.00283711
-0.000846903
0.00295183
-0.000815551
0.00306327
-0.000782824
0.0031712
-0.000749116
0.00327544
-0.000714796
0.00337586
-0.0006802
0.00347239
-0.000645634
0.003565
-0.000611373
0.0036537
-0.000577657
0.00373853
-0.000544696
0.00381956
-0.000512667
0.00389688
-0.000481718
0.00397063
-0.000451965
0.00404092
-0.000423498
0.00410792
-0.000396383
0.00417178
-0.000370657
0.00423266
-0.000346333
0.00429074
-0.000323385
0.00424277
-4.49664e-05
-4.96842e-09
0.00428548
-4.26998e-05
-4.60702e-09
0.00432598
-4.0499e-05
-4.11711e-09
0.00436436
-3.83748e-05
-3.5246e-09
0.0044007
-3.63336e-05
-2.85119e-09
0.00443508
-3.43796e-05
-2.11489e-09
0.00446759
-3.25159e-05
-1.3315e-09
0.00449834
-3.07444e-05
-5.16021e-10
0.0045274
-2.90658e-05
3.16824e-10
0.00455488
-2.748e-05
1.15285e-09
0.00458087
-2.59857e-05
1.97914e-09
0.00460545
-2.45812e-05
2.78477e-09
0.00462871
-2.32636e-05
3.56127e-09
0.00465073
-2.20299e-05
4.30313e-09
0.0046716
-2.0876e-05
5.00806e-09
0.00469139
-1.97978e-05
5.67657e-09
0.00471018
-1.87904e-05
6.31101e-09
0.00472802
-1.78485e-05
6.91473e-09
0.00474498
-1.69664e-05
7.49138e-09
0.00476111
-1.61378e-05
8.04404e-09
0.00477646
-1.53561e-05
8.57412e-09
0.00479106
-1.46141e-05
9.0803e-09
0.00480496
-1.39048e-05
9.55814e-09
0.00481817
-1.32213e-05
9.99953e-09
0.00483071
-1.25573e-05
1.03929e-08
0.00484261
-1.19082e-05
1.07241e-08
0.00485387
-1.12712e-05
1.09766e-08
0.00486451
-1.06462e-05
1.11341e-08
0.00487453
-1.00356e-05
1.11824e-08
0.00488396
-9.44429e-06
1.11108e-08
0.00489283
-8.87892e-06
1.09145e-08
0.00490117
-8.34665e-06
1.05945e-08
0.00490901
-7.85395e-06
1.01588e-08
0.00491641
-7.40536e-06
9.622e-09
0.0049234
-7.00265e-06
9.00258e-09
0.00493004
-6.64453e-06
8.32128e-09
0.00493636
-6.32692e-06
7.59977e-09
0.00494239
-6.04377e-06
6.85891e-09
0.00494818
-5.78805e-06
6.11649e-09
0.00495372
-5.55281e-06
5.38641e-09
0.00495905
-5.332e-06
4.6792e-09
0.00496417
-5.12088e-06
4.00225e-09
0.00496908
-4.91623e-06
3.36031e-09
0.00497379
-4.71619e-06
2.75678e-09
0.00497831
-4.5196e-06
2.21047e-09
0.00498264
-4.32668e-06
1.69546e-09
0.00498677
-4.13763e-06
1.21492e-09
0.00499072
-3.95279e-06
7.74967e-10
0.0049945
-3.77258e-06
3.74538e-10
0.00499809
-3.59735e-06
1.06007e-11
0.00500152
-3.42733e-06
-3.21993e-10
0.00500479
-3.26268e-06
-6.30243e-10
0.00500789
-3.10346e-06
-9.22968e-10
0.00501084
-2.94966e-06
-1.20972e-09
0.00501364
-2.80124e-06
-1.49969e-09
0.0050163
-2.65813e-06
-1.80089e-09
0.00501883
-2.52021e-06
-2.11883e-09
0.00502122