/*--------------------------------*- C++ -*----------------------------------*\
| =========                 |                                                 |
| \\      /  F ield         | OpenFOAM: The Open Source CFD Toolbox           |
|  \\    /   O peration     | Version:  2412                                  |
|   \\  /    A nd           | Website:  www.openfoam.com                      |
|    \\/     M anipulation  |                                                 |
\*---------------------------------------------------------------------------*/
FoamFile
{
    version     2.0;
    format      ascii;
    arch        "LSB;label=32;scalar=64";
    class       volVectorField;
    location    "20";
    object      U;
}
// * * * * * * * * * * * * * * * * * * * * * * * * * * * * * * * * * * * * * //

dimensions      [0 1 -1 0 0 0 0];

internalField   nonuniform List<vector> 
63420
(
(0.0999997 4.35834e-07 0)
(0.099995 1.29771e-06 0)
(0.0999852 2.14856e-06 0)
(0.0999708 2.98634e-06 0)
(0.0999523 3.81228e-06 0)
(0.0999297 4.6568e-06 0)
(0.099903 5.60346e-06 0)
(0.0998715 6.77977e-06 0)
(0.099834 8.30765e-06 0)
(0.0997887 1.02383e-05 0)
(0.0997339 1.25101e-05 0)
(0.0996688 1.49534e-05 0)
(0.0995935 1.73385e-05 0)
(0.0995092 1.94434e-05 0)
(0.099418 2.11107e-05 0)
(0.0993223 2.22773e-05 0)
(0.0992245 2.29727e-05 0)
(0.0991266 2.32942e-05 0)
(0.0990299 2.33737e-05 0)
(0.098935 2.33458e-05 0)
(0.0988422 2.33262e-05 0)
(0.0987511 2.34e-05 0)
(0.0986613 2.362e-05 0)
(0.098572 2.4011e-05 0)
(0.0984828 2.45774e-05 0)
(0.0983929 2.531e-05 0)
(0.0983019 2.61934e-05 0)
(0.0982094 2.72104e-05 0)
(0.098115 2.83447e-05 0)
(0.0980185 2.95831e-05 0)
(0.0979198 3.09156e-05 0)
(0.0978185 3.23356e-05 0)
(0.0977147 3.38393e-05 0)
(0.0976081 3.54251e-05 0)
(0.0974987 3.70932e-05 0)
(0.0973864 3.88453e-05 0)
(0.0972712 4.06836e-05 0)
(0.0971528 4.26113e-05 0)
(0.0970313 4.46319e-05 0)
(0.0969065 4.67492e-05 0)
(0.0967784 4.89672e-05 0)
(0.0966468 5.12902e-05 0)
(0.0965117 5.37225e-05 0)
(0.096373 5.62686e-05 0)
(0.0962305 5.89332e-05 0)
(0.0960843 6.17212e-05 0)
(0.0959341 6.46375e-05 0)
(0.09578 6.76875e-05 0)
(0.0956218 7.08767e-05 0)
(0.0954593 7.42111e-05 0)
(0.0952926 7.76974e-05 0)
(0.0951215 8.13442e-05 0)
(0.0949459 8.51652e-05 0)
(0.0947656 8.91898e-05 0)
(0.0945805 9.34919e-05 0)
(0.0999997 1.30714e-06 0)
(0.099995 3.89212e-06 0)
(0.0999852 6.44425e-06 0)
(0.0999709 8.95739e-06 0)
(0.0999523 1.14352e-05 0)
(0.0999297 1.39686e-05 0)
(0.099903 1.68067e-05 0)
(0.0998716 2.03304e-05 0)
(0.0998341 2.4904e-05 0)
(0.0997889 3.06815e-05 0)
(0.0997343 3.74797e-05 0)
(0.0996694 4.4793e-05 0)
(0.0995943 5.19364e-05 0)
(0.0995103 5.82467e-05 0)
(0.0994192 6.32533e-05 0)
(0.0993237 6.67666e-05 0)
(0.0992261 6.88729e-05 0)
(0.0991283 6.98616e-05 0)
(0.0990316 7.01253e-05 0)
(0.0989368 7.00659e-05 0)
(0.098844 7.00284e-05 0)
(0.0987529 7.0267e-05 0)
(0.098663 7.09399e-05 0)
(0.0985738 7.2122e-05 0)
(0.0984845 7.38263e-05 0)
(0.0983946 7.60265e-05 0)
(0.0983036 7.86769e-05 0)
(0.0982111 8.17261e-05 0)
(0.0981168 8.51263e-05 0)
(0.0980204 8.8838e-05 0)
(0.0979217 9.28316e-05 0)
(0.0978206 9.70872e-05 0)
(0.0977168 0.000101594 0)
(0.0976104 0.000106346 0)
(0.0975011 0.000111345 0)
(0.097389 0.000116596 0)
(0.0972739 0.000122105 0)
(0.0971557 0.000127882 0)
(0.0970344 0.000133937 0)
(0.0969098 0.000140282 0)
(0.0967819 0.000146929 0)
(0.0966506 0.000153889 0)
(0.0965157 0.000161177 0)
(0.0963772 0.000168806 0)
(0.0962351 0.000176789 0)
(0.0960891 0.000185141 0)
(0.0959393 0.000193878 0)
(0.0957855 0.000203014 0)
(0.0956276 0.000212567 0)
(0.0954656 0.000222554 0)
(0.0952993 0.000232995 0)
(0.0951286 0.000243916 0)
(0.0949534 0.000255358 0)
(0.0947736 0.000267406 0)
(0.0945891 0.00028028 0)
(0.0999997 2.17757e-06 0)
(0.099995 6.48371e-06 0)
(0.0999852 1.07353e-05 0)
(0.0999709 1.49222e-05 0)
(0.0999524 1.90505e-05 0)
(0.0999298 2.32703e-05 0)
(0.0999032 2.79942e-05 0)
(0.0998718 3.38534e-05 0)
(0.0998345 4.14532e-05 0)
(0.0997894 5.1051e-05 0)
(0.0997351 6.23467e-05 0)
(0.0996706 7.45044e-05 0)
(0.0995959 8.63896e-05 0)
(0.0995123 9.69014e-05 0)
(0.0994217 0.000105257 0)
(0.0993266 0.000111138 0)
(0.0992293 0.000114683 0)
(0.0991317 0.000116369 0)
(0.0990351 0.000116846 0)
(0.0989404 0.000116778 0)
(0.0988475 0.000116739 0)
(0.0987564 0.000117151 0)
(0.0986665 0.000118279 0)
(0.0985772 0.000120248 0)
(0.0984879 0.000123081 0)
(0.098398 0.000126737 0)
(0.098307 0.00013114 0)
(0.0982146 0.000136207 0)
(0.0981204 0.000141857 0)
(0.0980241 0.000148026 0)
(0.0979256 0.000154665 0)
(0.0978246 0.00016174 0)
(0.0977211 0.000169233 0)
(0.0976149 0.000177137 0)
(0.097506 0.000185451 0)
(0.0973941 0.000194184 0)
(0.0972794 0.000203348 0)
(0.0971615 0.000212956 0)
(0.0970406 0.000223028 0)
(0.0969164 0.00023358 0)
(0.0967889 0.000244634 0)
(0.0966581 0.00025621 0)
(0.0965237 0.00026833 0)
(0.0963858 0.000281015 0)
(0.0962442 0.000294289 0)
(0.0960988 0.000308176 0)
(0.0959496 0.0003227 0)
(0.0957965 0.000337888 0)
(0.0956393 0.000353766 0)
(0.095478 0.000370363 0)
(0.0953125 0.000387714 0)
(0.0951427 0.000405858 0)
(0.0949685 0.000424862 0)
(0.0947897 0.000444863 0)
(0.0946062 0.000466211 0)
(0.0999997 3.04655e-06 0)
(0.099995 9.07058e-06 0)
(0.0999852 1.50188e-05 0)
(0.099971 2.08766e-05 0)
(0.0999525 2.66529e-05 0)
(0.09993 3.25552e-05 0)
(0.0999034 3.91557e-05 0)
(0.0998721 4.73311e-05 0)
(0.0998349 5.7925e-05 0)
(0.0997902 7.13004e-05 0)
(0.0997363 8.70464e-05 0)
(0.0996723 0.000104007 0)
(0.0995983 0.000120606 0)
(0.0995153 0.000135313 0)
(0.0994253 0.000147033 0)
(0.0993308 0.000155315 0)
(0.0992339 0.000160344 0)
(0.0991366 0.000162777 0)
(0.0990403 0.000163512 0)
(0.0989456 0.000163474 0)
(0.0988527 0.00016346 0)
(0.0987616 0.00016406 0)
(0.0986716 0.000165645 0)
(0.0985822 0.000168395 0)
(0.0984929 0.000172343 0)
(0.098403 0.000177435 0)
(0.0983121 0.000183568 0)
(0.0982198 0.000190627 0)
(0.0981257 0.000198501 0)
(0.0980297 0.000207101 0)
(0.0979314 0.000216359 0)
(0.0978307 0.000226228 0)
(0.0977275 0.000236682 0)
(0.0976217 0.000247711 0)
(0.0975132 0.000259314 0)
(0.0974018 0.000271502 0)
(0.0972875 0.000284292 0)
(0.0971702 0.000297703 0)
(0.0970499 0.00031176 0)
(0.0969263 0.000326488 0)
(0.0967995 0.000341915 0)
(0.0966693 0.00035807 0)
(0.0965357 0.000374981 0)
(0.0963985 0.000392681 0)
(0.0962578 0.0004112 0)
(0.0961133 0.000430571 0)
(0.0959651 0.000450829 0)
(0.0958129 0.000472009 0)
(0.0956568 0.000494149 0)
(0.0954967 0.000517287 0)
(0.0953324 0.00054147 0)
(0.0951639 0.000566753 0)
(0.094991 0.000593221 0)
(0.0948137 0.000621053 0)
(0.0946318 0.000650697 0)
(0.0999997 3.91357e-06 0)
(0.0999951 1.16508e-05 0)
(0.0999853 1.92915e-05 0)
(0.099971 2.68165e-05 0)
(0.0999526 3.42373e-05 0)
(0.0999302 4.18168e-05 0)
(0.0999037 5.02812e-05 0)
(0.0998725 6.07468e-05 0)
(0.0998356 7.42916e-05 0)
(0.0997912 9.13865e-05 0)
(0.0997378 0.000111519 0)
(0.0996745 0.000133225 0)
(0.0996013 0.000154503 0)
(0.0995191 0.000173395 0)
(0.09943 0.000188499 0)
(0.0993362 0.000199227 0)
(0.0992399 0.000205801 0)
(0.099143 0.000209047 0)
(0.0990469 0.000210102 0)
(0.0989523 0.000210144 0)
(0.0988595 0.00021019 0)
(0.0987683 0.000210998 0)
(0.0986783 0.000213045 0)
(0.0985888 0.000216565 0)
(0.0984995 0.000221609 0)
(0.0984096 0.00022811 0)
(0.0983188 0.000235942 0)
(0.0982267 0.000244958 0)
(0.0981328 0.000255021 0)
(0.098037 0.000266016 0)
(0.097939 0.000277856 0)
(0.0978388 0.000290484 0)
(0.097736 0.000303863 0)
(0.0976307 0.000317981 0)
(0.0975227 0.000332836 0)
(0.097412 0.000348442 0)
(0.0972983 0.000364819 0)
(0.0971818 0.000381993 0)
(0.0970621 0.000399993 0)
(0.0969394 0.000418851 0)
(0.0968134 0.000438603 0)
(0.0966842 0.000459285 0)
(0.0965515 0.000480934 0)
(0.0964154 0.000503588 0)
(0.0962758 0.000527288 0)
(0.0961325 0.000552075 0)
(0.0959855 0.000577992 0)
(0.0958347 0.000605084 0)
(0.09568 0.000633397 0)
(0.0955214 0.000662981 0)
(0.0953587 0.000693891 0)
(0.0951919 0.000726194 0)
(0.0950208 0.000759992 0)
(0.0948455 0.000795486 0)
(0.0946657 0.00083318 0)
(0.0999997 4.77825e-06 0)
(0.0999951 1.42226e-05 0)
(0.0999853 2.35507e-05 0)
(0.0999711 3.27379e-05 0)
(0.0999528 4.17988e-05 0)
(0.0999304 5.10486e-05 0)
(0.099904 6.13613e-05 0)
(0.099873 7.40849e-05 0)
(0.0998363 9.05278e-05 0)
(0.0997924 0.000111271 0)
(0.0997397 0.000135712 0)
(0.0996772 0.000162094 0)
(0.0996049 0.000188003 0)
(0.0995238 0.000211069 0)
(0.0994356 0.000229581 0)
(0.0993426 0.000242808 0)
(0.099247 0.000251 0)
(0.0991507 0.000255139 0)
(0.0990549 0.000256591 0)
(0.0989605 0.000256775 0)
(0.0988677 0.000256924 0)
(0.0987765 0.000257962 0)
(0.0986864 0.000260474 0)
(0.0985969 0.000264753 0)
(0.0985075 0.000270869 0)
(0.0984178 0.000278746 0)
(0.0983271 0.000288237 0)
(0.0982351 0.000299168 0)
(0.0981415 0.000311376 0)
(0.0980461 0.000324721 0)
(0.0979485 0.000339099 0)
(0.0978488 0.000354439 0)
(0.0977466 0.000370699 0)
(0.0976419 0.00038786 0)
(0.0975346 0.000405922 0)
(0.0974246 0.000424898 0)
(0.0973118 0.000444814 0)
(0.0971961 0.000465698 0)
(0.0970774 0.000487587 0)
(0.0969557 0.000510518 0)
(0.0968308 0.000534535 0)
(0.0967027 0.000559678 0)
(0.0965713 0.000585994 0)
(0.0964365 0.000613528 0)
(0.0962982 0.000642328 0)
(0.0961564 0.000672443 0)
(0.0960109 0.000703925 0)
(0.0958618 0.000736826 0)
(0.0957088 0.000771201 0)
(0.095552 0.000807109 0)
(0.0953913 0.000844613 0)
(0.0952266 0.000883789 0)
(0.0950578 0.000924744 0)
(0.0948848 0.000967686 0)
(0.0947077 0.00101312 0)
(0.0999997 5.63987e-06 0)
(0.0999951 1.67845e-05 0)
(0.0999854 2.77934e-05 0)
(0.0999713 3.86367e-05 0)
(0.099953 4.93321e-05 0)
(0.0999307 6.0244e-05 0)
(0.0999044 7.23869e-05 0)
(0.0998736 8.73317e-05 0)
(0.0998373 0.000106612 0)
(0.0997938 0.000130922 0)
(0.0997418 0.000159581 0)
(0.0996802 0.000190558 0)
(0.099609 0.000221045 0)
(0.099529 0.000248269 0)
(0.099442 0.000270215 0)
(0.09935 0.000286002 0)
(0.0992552 0.000295895 0)
(0.0991595 0.000301018 0)
(0.0990641 0.000302951 0)
(0.0989698 0.000303347 0)
(0.0988772 0.000303649 0)
(0.0987859 0.000304943 0)
(0.0986958 0.000307926 0)
(0.0986063 0.00031295 0)
(0.098517 0.000320108 0)
(0.0984273 0.000329323 0)
(0.0983368 0.000340427 0)
(0.098245 0.000353223 0)
(0.0981518 0.000367522 0)
(0.0980568 0.000383164 0)
(0.0979598 0.000400027 0)
(0.0978606 0.000418026 0)
(0.0977591 0.000437112 0)
(0.0976552 0.000457262 0)
(0.0975487 0.000478475 0)
(0.0974396 0.000500765 0)
(0.0973278 0.000524159 0)
(0.0972131 0.000548692 0)
(0.0970956 0.000574405 0)
(0.0969751 0.000601341 0)
(0.0968514 0.000629547 0)
(0.0967247 0.000659074 0)
(0.0965947 0.000689973 0)
(0.0964615 0.000722296 0)
(0.0963248 0.000756098 0)
(0.0961848 0.000791437 0)
(0.0960412 0.00082837 0)
(0.095894 0.000866957 0)
(0.0957431 0.000907261 0)
(0.0955885 0.000949348 0)
(0.0954301 0.000993288 0)
(0.0952679 0.00103916 0)
(0.0951017 0.00108707 0)
(0.0949316 0.0011372 0)
(0.0947575 0.00118996 0)
(0.0943895 9.82828e-05 -4.50027e-24)
(0.0941907 0.000103324 -4.58804e-24)
(0.093982 0.000108768 -3.17553e-26)
(0.0937631 0.000114575 1.40982e-23)
(0.093533 0.00012077 -4.66993e-24)
(0.0932911 0.000127395 -4.80675e-24)
(0.0930365 0.000134492 -1.48023e-23)
(0.0927683 0.000142106 1.46975e-23)
(0.0924856 0.000150284 5.02968e-24)
(0.0921874 0.000159082 0)
(0.0918723 0.00016856 5.19708e-24)
(0.0915392 0.000178787 -5.28715e-24)
(0.0911866 0.000189838 4.34988e-23)
(0.0908131 0.000201798 -9.32306e-23)
(0.0904167 0.000214762 4.98355e-23)
(0.0899958 0.000228839 4.03929e-23)
(0.0895482 0.00024415 5.18321e-23)
(0.0890715 0.000260835 -5.93659e-24)
(0.0885631 0.000279052 6.06664e-24)
(0.0880202 0.00029898 -6.20419e-24)
(0.0874396 0.000320826 0)
(0.0868175 0.000344831 6.50412e-24)
(0.08615 0.000371273 -6.66784e-24)
(0.0854325 0.000400477 0)
(0.0846596 0.000432826 -7.02658e-24)
(0.0838254 0.000468773 0)
(0.082923 0.000508856 -7.43309e-24)
(0.0819447 0.000553716 -1.24574e-22)
(0.0808812 0.000604124 1.3228e-22)
(0.079722 0.000661011 -1.32794e-22)
(0.0784547 0.000725506 1.32591e-22)
(0.0770646 0.000798986 0)
(0.0755345 0.000883133 0)
(0.0738438 0.000980007 1.62519e-22)
(0.071968 0.00109213 -1.52914e-22)
(0.0698777 0.00122257 0)
(0.0675376 0.00137498 0)
(0.0649053 0.00155364 0)
(0.0619308 0.00176325 0)
(0.0585551 0.00200851 0)
(0.0547119 0.00229321 0)
(0.0503292 0.00261843 0)
(0.045337 0.00297952 0)
(0.0396796 0.00336139 0)
(0.0333407 0.00373129 -1.50035e-23)
(0.0263825 0.00402864 -5.14838e-22)
(0.0189887 0.00415262 5.14066e-22)
(0.0115377 0.00394904 5.58459e-22)
(0.00494075 0.00318109 -5.57621e-22)
(0.00100746 0.00147926 0)
(0.0943985 0.000294631 -4.55297e-24)
(0.0941998 0.000309811 -9.28684e-24)
(0.0939915 0.00032606 -4.86866e-24)
(0.0937728 0.000343408 4.5344e-24)
(0.093543 0.000361941 -4.73505e-24)
(0.0933014 0.00038177 3.39363e-23)
(0.0930471 0.000403016 -5.32969e-23)
(0.0927794 0.000425809 4.95069e-24)
(0.0924972 0.000450297 6.60864e-23)
(0.0921995 0.000476641 -9.12729e-23)
(0.091885 0.000505024 -8.91472e-23)
(0.0915526 0.00053565 7.85534e-23)
(0.0912009 0.000568747 0)
(0.0908281 0.000604568 5.48688e-24)
(0.0904328 0.000643402 -1.67701e-23)
(0.090013 0.000685568 -1.90213e-22)
(0.0895666 0.000731436 1.82574e-22)
(0.0890912 0.000781421 -1.94082e-22)
(0.0885845 0.000835999 -1.82263e-23)
(0.0880433 0.000895708 6.2178e-24)
(0.0874647 0.00096117 0)
(0.086845 0.0010331 -6.52097e-24)
(0.0861801 0.00111234 -2.1017e-22)
(0.0854655 0.00119986 4.3922e-22)
(0.084696 0.00129681 2.42336e-22)
(0.0838658 0.00140455 -4.57032e-22)
(0.0829681 0.00152469 4.92241e-22)
(0.0819952 0.00165914 -4.99486e-22)
(0.0809382 0.00181021 -7.92721e-24)
(0.0797866 0.0019807 0)
(0.0785284 0.00217396 0)
(0.0771493 0.00239411 0)
(0.0756327 0.00264616 0)
(0.0739586 0.00293625 -9.419e-24)
(0.0721036 0.00327186 -6.3871e-22)
(0.0700393 0.00366209 -2.69731e-23)
(0.0677321 0.00411779 6.63953e-22)
(0.0651417 0.00465152 7.22984e-22)
(0.0622206 0.00527714 -7.22027e-22)
(0.0589132 0.0060084 -2.39767e-23)
(0.0551563 0.00685612 -2.50426e-23)
(0.0508814 0.00782295 -8.63302e-22)
(0.0460205 0.00889436 8.34869e-22)
(0.040517 0.0100245 -2.84365e-23)
(0.0343468 0.0111153 1.51084e-23)
(0.0275522 0.0119858 -1.04687e-21)
(0.0202804 0.0123357 1.04648e-21)
(0.0128472 0.0117071 -2.18343e-21)
(0.00604016 0.00940591 2.14692e-21)
(0.0014542 0.00434237 -2.19976e-21)
(0.0944164 0.000490011 -2.6932e-23)
(0.0942182 0.000515286 -9.45219e-24)
(0.0940103 0.000542225 3.64556e-23)
(0.0937921 0.000570994 -7.50024e-23)
(0.0935629 0.000601751 1.60496e-22)
(0.093322 0.000634669 -7.60331e-23)
(0.0930685 0.000669942 1.41837e-26)
(0.0928017 0.000707788 9.87394e-24)
(0.0925205 0.000748453 1.72189e-22)
(0.0922239 0.000792207 -1.61972e-22)
(0.0919107 0.000839353 0)
(0.0915797 0.000890231 1.45878e-26)
(0.0912295 0.000945219 0)
(0.0908586 0.00100474 1.88479e-22)
(0.0904653 0.00106928 -1.66137e-22)
(0.0900477 0.00113936 -3.58228e-22)
(0.0896038 0.0012156 1.99285e-23)
(0.0891314 0.0012987 -3.77211e-22)
(0.0886278 0.00138944 1.21958e-23)
(0.0880903 0.00148872 -4.04119e-22)
(0.0875158 0.00159758 4.16499e-22)
(0.0869008 0.00171721 -4.24479e-22)
(0.0862413 0.001849 4.37493e-22)
(0.0855328 0.00199459 1.37708e-23)
(0.0847704 0.00215587 -1.41491e-23)
(0.0839484 0.00233511 1.45512e-23)
(0.0830602 0.00253497 -4.87458e-22)
(0.0820984 0.00275865 5.02465e-22)
(0.0810545 0.00300998 5.34689e-22)
(0.0799184 0.00329355 -5.18278e-22)
(0.0786789 0.00361494 0)
(0.0773224 0.00398093 0)
(0.0758332 0.00439976 1.82131e-23)
(0.0741929 0.0048815 1.25506e-21)
(0.0723799 0.0054384 3.00903e-23)
(0.0703682 0.00608526 -1.26311e-21)
(0.0681275 0.00683967 0)
(0.0656217 0.00772188 -2.20685e-23)
(0.0628084 0.00875397 1.53681e-21)
(0.0596382 0.00995754 -3.06788e-21)
(0.056055 0.011349 3.25199e-21)
(0.0519967 0.0129306 9.77939e-23)
(0.0473995 0.0146762 -1.68936e-21)
(0.0422045 0.0165077 -1.82827e-21)
(0.0363719 0.0182617 1.88419e-21)
(0.0299035 0.0196408 1.45655e-24)
(0.0228719 0.0201523 -3.2026e-23)
(0.0154691 0.0190443 2.10952e-21)
(0.0082218 0.015212 -2.04273e-21)
(0.00231272 0.00695738 -2.04327e-21)
(0.0944432 0.000683709 1.77445e-23)
(0.0942456 0.000718875 -9.00541e-24)
(0.0940384 0.000756366 1.94843e-26)
(0.093821 0.000796397 9.26772e-24)
(0.0935927 0.000839191 -1.95975e-26)
(0.0933529 0.000884991 1.53996e-22)
(0.0931007 0.000934074 -2.9101e-22)
(0.0928353 0.000986745 1.56406e-22)
(0.0925557 0.00104335 -1.00145e-23)
(0.0922608 0.00110426 1.85122e-22)
(0.0919497 0.0011699 -1.64666e-22)
(0.0916209 0.00124075 -3.41793e-22)
(0.0912732 0.00131734 6.90164e-22)
(0.0909051 0.00140025 -7.03832e-22)
(0.090515 0.00149016 7.18164e-22)
(0.0901009 0.00158782 -7.21828e-22)
(0.089661 0.00169407 -3.82157e-22)
(0.089193 0.00180988 2.25354e-26)
(0.0886945 0.00193638 0)
(0.0881627 0.0020748 -3.93536e-22)
(0.0875947 0.00222659 4.05889e-22)
(0.086987 0.00239342 0)
(0.0863358 0.00257724 -8.76781e-22)
(0.085637 0.00278032 8.62553e-22)
(0.0848856 0.00300532 1.42837e-23)
(0.0840764 0.00325538 -3.7118e-26)
(0.083203 0.00353422 1.50981e-23)
(0.0822586 0.00384629 0)
(0.0812351 0.00419688 -5.31934e-26)
(0.0801234 0.00459239 0)
(0.0789128 0.00504051 -1.71422e-23)
(0.0775912 0.00555057 1.15917e-21)
(0.0761445 0.00613389 -1.15886e-21)
(0.0745564 0.00680424 -1.91694e-23)
(0.0728079 0.00757827 3.96774e-23)
(0.0708769 0.00847599 -1.36772e-21)
(0.0687378 0.009521 1.3252e-21)
(0.0663607 0.0107402 2.24501e-23)
(0.063711 0.0121625 -3.56717e-25)
(0.0607487 0.0138154 2.39427e-23)
(0.0574277 0.0157183 -1.64386e-21)
(0.0536961 0.0178706 3.32287e-21)
(0.0494961 0.0202313 -1.73205e-21)
(0.0447654 0.0226885 1.79082e-21)
(0.0394407 0.0250148 -1.87476e-21)
(0.0334626 0.0268044 -3.72433e-21)
(0.0267863 0.0273894 7.59794e-21)
(0.0194182 0.0257413 -3.84637e-21)
(0.0115311 0.0203825 0)
(0.00358807 0.0092124 -3.61703e-21)
(0.0944787 0.000875079 -8.80092e-24)
(0.0942819 0.000919924 -3.59568e-23)
(0.0940757 0.00096773 1.09011e-22)
(0.0938594 0.00101877 -1.47208e-22)
(0.0936326 0.00107333 6.4838e-23)
(0.0933943 0.00113173 9.50988e-24)
(0.0931439 0.00119432 -9.66996e-24)
(0.0928805 0.0012615 -2.46236e-26)
(0.0926031 0.00133371 1.00126e-23)
(0.0923108 0.00141143 -2.03676e-23)
(0.0920025 0.00149521 -3.35213e-22)
(0.0916769 0.00158564 3.45954e-22)
(0.0913328 0.00168341 -3.37983e-22)
(0.0909686 0.00178928 3.48893e-22)
(0.0905829 0.00190409 0)
(0.0901738 0.00202881 -2.48492e-26)
(0.0897395 0.00216452 0)
(0.0892778 0.00231248 -3.77192e-22)
(0.0887864 0.00247409 4.01701e-22)
(0.0882627 0.00265095 -1.26265e-23)
(0.0877037 0.00284493 -8.51313e-22)
(0.0871064 0.00305815 8.38747e-22)
(0.0864671 0.00329311 -1.3646e-23)
(0.0857818 0.0035527 0)
(0.085046 0.00384032 0)
(0.0842547 0.00415997 -9.78737e-22)
(0.0834023 0.00451642 9.49002e-22)
(0.0824824 0.00491528 0)
(0.0814876 0.00536329 -3.25701e-23)
(0.0804099 0.00586852 0)
(0.0792399 0.00644068 1.7443e-23)
(0.0779671 0.00709145 -1.79767e-23)
(0.0765795 0.00783499 -1.87254e-23)
(0.0750637 0.00868836 1.92998e-23)
(0.0734043 0.0096721 1.27015e-21)
(0.0715843 0.0108107 -1.31093e-21)
(0.0695842 0.0121326 2.84992e-21)
(0.0673826 0.0136699 -2.85175e-21)
(0.0649549 0.0154564 3.02699e-21)
(0.0622735 0.0175231 8.68875e-23)
(0.0593062 0.0198896 -3.18963e-21)
(0.0560139 0.0225488 -2.54709e-23)
(0.0523473 0.0254427 1.26224e-24)
(0.0482409 0.0284253 1.67096e-24)
(0.0436024 0.0312099 2.20526e-24)
(0.0382955 0.0332975 -5.51009e-23)
(0.0321187 0.0338769 -2.52839e-23)
(0.0248176 0.0316835 -2.40404e-23)
(0.0161036 0.0248818 0)
(0.00530412 0.0111004 7.4817e-24)
(0.0945227 0.00106351 -4.3674e-23)
(0.094327 0.00111781 2.62715e-23)
(0.0941221 0.00117572 8.99049e-24)
(0.0939076 0.00123755 1.38031e-22)
(0.0936826 0.00130368 -1.38082e-22)
(0.0934465 0.00137448 1.42886e-22)
(0.0931985 0.0014504 -3.1719e-22)
(0.0929378 0.00153192 4.51639e-22)
(0.0926635 0.00161956 -3.16365e-22)
(0.0923746 0.00171392 -3.28263e-22)
(0.0920701 0.00181566 -1.65179e-23)
(0.0917488 0.00192553 6.66729e-22)
(0.0914095 0.00204433 -7.02379e-22)
(0.0910506 0.00217301 3.27621e-22)
(0.0906709 0.0023126 3.53659e-22)
(0.0902685 0.00246426 3.69807e-22)
(0.0898416 0.00262934 -2.85747e-23)
(0.0893883 0.00280936 7.53697e-22)
(0.0889064 0.00300603 7.78534e-22)
(0.0883934 0.00322132 1.97698e-23)
(0.0878467 0.00345748 -8.25476e-22)
(0.0872632 0.00371713 0)
(0.0866397 0.00400331 0)
(0.0859725 0.00431954 -9.20661e-22)
(0.0852576 0.00466998 9.07438e-22)
(0.0844904 0.00505949 9.7776e-22)
(0.0836659 0.00549384 -9.79208e-22)
(0.0827786 0.00597986 0)
(0.0818222 0.00652567 1.09355e-21)
(0.0807897 0.00714097 -1.09566e-21)
(0.0796735 0.00783736 0)
(0.0784652 0.00862875 -2.3718e-21)
(0.0771555 0.0095318 2.39377e-21)
(0.0757344 0.0105664 -1.97867e-23)
(0.0741913 0.0117562 -2.6469e-21)
(0.072515 0.0131289 2.67146e-21)
(0.0706942 0.0147162 0)
(0.0687174 0.0165524 2.99897e-21)
(0.0665729 0.0186724 -2.98048e-21)
(0.0642483 0.0211052 2.41499e-23)
(0.0617286 0.0238637 3.28869e-21)
(0.0589918 0.0269263 -6.59766e-21)
(0.0560009 0.0302101 1.9482e-23)
(0.0526899 0.033529 3.71035e-23)
(0.048939 0.0365398 3.42135e-21)
(0.0445321 0.0386702 3.8087e-24)
(0.0390943 0.0390153 -2.93695e-21)
(0.0320376 0.0361729 3.01082e-21)
(0.0223796 0.0281097 0)
(0.00770913 0.0123309 2.68149e-23)
(0.094575 0.00124819 8.60103e-24)
(0.094381 0.00131142 7.92487e-23)
(0.0941781 0.00137893 -7.06734e-23)
(0.0939658 0.00145109 9.07401e-24)
(0.0937435 0.00152832 1.39505e-22)
(0.0935103 0.00161108 -1.39726e-22)
(0.0932656 0.00169988 -2.99417e-22)
(0.0930086 0.00179528 4.44475e-24)
(0.0927384 0.00189792 -5.60264e-24)
(0.0924541 0.00200849 3.32612e-22)
(0.0921546 0.00212779 -3.24962e-22)
(0.0918389 0.00225668 6.89602e-22)
(0.0915058 0.00239614 -3.43634e-22)
(0.091154 0.00254728 1.11095e-23)
(0.0907821 0.00271132 1.13702e-23)
(0.0903884 0.00288967 7.52245e-22)
(0.0899714 0.00308391 -5.01237e-24)
(0.0895293 0.00329586 7.85337e-22)
(0.0890598 0.00352756 1.25547e-23)
(0.088561 0.00378136 0)
(0.0880303 0.00405995 0)
(0.0874651 0.00436645 -8.81929e-22)
(0.0868624 0.00470449 8.84157e-22)
(0.0862191 0.00507828 0)
(0.0855317 0.00549277 1.48798e-23)
(0.0847963 0.00595378 0)
(0.0840087 0.00646815 -1.02784e-21)
(0.0831644 0.00704399 2.0927e-21)
(0.0822584 0.00769093 -1.06494e-21)
(0.0812854 0.00842039 -2.25717e-21)
(0.0802397 0.00924596 -7.58449e-23)
(0.0791154 0.0101838 -8.00105e-23)
(0.0779065 0.0112532 -8.40813e-23)
(0.0766072 0.0124765 2.53798e-21)
(0.0752121 0.0138802 2.72314e-21)
(0.0737169 0.0154943 -2.72962e-21)
(0.0721189 0.0173515 0)
(0.0704175 0.0194857 3.02045e-21)
(0.0686146 0.0219271 -3.02747e-21)
(0.0667143 0.0246943 -3.21444e-21)
(0.0647201 0.0277805 3.19674e-21)
(0.0626289 0.031132 2.6131e-23)
(0.0604198 0.0346176 3.21185e-21)
(0.0580327 0.0379868 -1.05438e-22)
(0.0553338 0.0408188 -3.17261e-21)
(0.0520528 0.0424705 2.4209e-23)
(0.0476923 0.0420125 0)
(0.0414151 0.0381012 -1.92747e-23)
(0.0313916 0.0289089 -9.1349e-22)
(0.0124224 0.0122692 4.2614e-22)
(-0.000230912 0.000309653 0)
(-0.000990721 0.000577831 3.18769e-22)
(-0.00209673 0.000626613 -3.19247e-22)
(-0.003175 0.000553776 -3.16929e-22)
(-0.00404297 0.000413448 3.17406e-22)
(-0.00462282 0.000238095 -9.72494e-24)
(-0.00487223 4.80534e-05 0)
(-0.00478048 -0.000143585 0)
(-0.00435401 -0.00033123 0)
(-0.00360111 -0.000509858 0)
(-0.00253786 -0.000676853 0)
(-0.00118488 -0.000830718 0)
(0.000435181 -0.00097051 0)
(0.00229826 -0.00109588 0)
(0.00437961 -0.00120681 0)
(0.00665452 -0.00130339 8.81744e-23)
(0.00909833 -0.00138592 -8.3005e-23)
(0.0116868 -0.00145481 0)
(0.0143962 -0.00151056 0)
(0.0172037 -0.00155378 -5.82045e-23)
(0.0200874 -0.00158513 5.82934e-23)
(0.0230265 -0.0016053 -4.18134e-23)
(0.0260011 -0.00161498 2.63303e-24)
(0.0289926 -0.00161491 0)
(0.0319837 -0.00160589 1.91715e-24)
(0.0349583 -0.00158881 0)
(0.037902 -0.0015645 0)
(0.0408019 -0.00153378 0)
(0.0436461 -0.00149744 8.1123e-25)
(0.0464246 -0.00145628 0)
(0.0491286 -0.00141106 -4.15877e-25)
(0.0517505 -0.00136249 2.53875e-25)
(0.0542841 -0.00131126 -1.13677e-25)
(0.0567246 -0.00125803 -5.48621e-25)
(0.0590681 -0.00120339 6.50988e-25)
(0.061312 -0.0011479 1.6965e-24)
(0.0634545 -0.00109207 -4.01514e-24)
(0.065495 -0.00103637 2.38903e-24)
(0.0674336 -0.000981199 3.62619e-25)
(0.0692712 -0.000926927 -3.96433e-25)
(0.0710092 -0.000873867 0)
(0.0726498 -0.000822287 -4.38189e-25)
(0.0741957 -0.000772411 2.26896e-24)
(0.0756499 -0.00072442 -2.27661e-24)
(0.0770157 -0.000678454 4.53551e-25)
(0.0782969 -0.000634618 -1.349e-24)
(0.0794973 -0.000592979 4.57255e-25)
(0.0806208 -0.000553572 8.6501e-25)
(0.0816715 -0.000516397 -4.31601e-25)
(0.0826535 -0.00048143 4.10605e-25)
(-0.00029751 0.000890079 -1.2115e-21)
(-0.00109831 0.0016539 -1.32378e-21)
(-0.00209739 0.00179228 1.30484e-21)
(-0.00301181 0.00157976 -6.23995e-22)
(-0.0037036 0.00117093 6.2513e-22)
(-0.00411444 0.00066016 9.79241e-24)
(-0.00421091 0.000106017 -1.93117e-23)
(-0.00398851 -0.000455599 -6.03409e-22)
(-0.00345522 -0.001007 5.85441e-22)
(-0.00261688 -0.00153217 -1.7339e-23)
(-0.0014884 -0.00202382 -1.65281e-23)
(-8.83004e-05 -0.00247753 4.82002e-22)
(0.00156282 -0.00289026 -4.82643e-22)
(0.00344274 -0.00326113 -4.21409e-22)
(0.00552866 -0.00358976 3.18517e-23)
(0.00779765 -0.00387632 3.90638e-22)
(0.0102267 -0.00412155 -5.32951e-24)
(0.0127928 -0.00432656 -9.87345e-24)
(0.0154738 -0.0044928 0)
(0.0182479 -0.00462197 0)
(0.0210943 -0.00471598 0)
(0.0239929 -0.00477684 -3.04137e-24)
(0.0269248 -0.00480657 1.50627e-22)
(0.0298721 -0.00480728 -1.63606e-22)
(0.0328181 -0.00478139 1.12329e-22)
(0.0357472 -0.00473144 -6.70786e-23)
(0.0386455 -0.00465992 -8.58017e-23)
(0.0415004 -0.00456927 3.84627e-23)
(0.0443005 -0.00446184 -8.13318e-25)
(0.047036 -0.00433997 -1.29978e-24)
(0.0496982 -0.0042059 4.16783e-25)
(0.0522799 -0.0040618 -8.42991e-25)
(0.054775 -0.0039097 1.9087e-24)
(0.0571786 -0.00375154 -6.07131e-25)
(0.0594872 -0.00358912 -1.44001e-24)
(0.0616979 -0.00342411 5.22963e-25)
(0.0638093 -0.00325803 -2.62485e-25)
(0.0658205 -0.00309225 0)
(0.0677318 -0.00292801 6.28572e-24)
(0.0695438 -0.0027664 -5.57599e-24)
(0.0712581 -0.00260836 -5.97504e-24)
(0.0728768 -0.00245468 8.07615e-24)
(0.0744024 -0.00230605 -4.48457e-25)
(0.0758379 -0.00216301 -2.25669e-24)
(0.0771867 -0.00202598 4.02612e-24)
(0.0784522 -0.00189527 4.49541e-25)
(0.0796383 -0.00177109 3.04904e-24)
(0.0807488 -0.00165355 3.748e-25)
(0.0817876 -0.00154264 -8.75412e-25)
(0.0827589 -0.00143828 -1.23792e-24)
(-0.000414178 0.00135932 -1.26106e-21)
(-0.00127315 0.00249423 1.38072e-21)
(-0.002047 0.00270345 -1.33949e-21)
(-0.00263842 0.00236873 -2.07806e-23)
(-0.00298865 0.00172711 -4.16178e-25)
(-0.00307486 0.000926297 -1.25698e-21)
(-0.00288189 5.78775e-05 1.29823e-21)
(-0.00241445 -0.000837768 1.22043e-21)
(-0.00167981 -0.00171874 -2.85303e-23)
(-0.00068064 -0.00255879 -2.24369e-21)
(0.000569312 -0.00334752 2.17242e-21)
(0.00205624 -0.00407784 -1.03477e-21)
(0.00376339 -0.00474498 -1.52243e-23)
(0.00567215 -0.00534653 0)
(0.00776377 -0.00588117 8.18224e-22)
(0.0100187 -0.00634883 -7.70941e-23)
(0.0124168 -0.00675032 -7.30336e-22)
(0.014938 -0.00708713 2.02338e-23)
(0.0175625 -0.00736132 0)
(0.0202707 -0.00757541 0)
(0.0230438 -0.00773234 2.18524e-22)
(0.0258634 -0.00783524 -2.12178e-22)
(0.0287122 -0.00788723 -1.60741e-22)
(0.0315737 -0.00789176 1.71096e-22)
(0.0344321 -0.00785244 4.23106e-24)
(0.0372732 -0.0077735 -3.56533e-24)
(0.0400836 -0.00765898 2.95591e-24)
(0.0428517 -0.0075128 -6.31906e-23)
(0.0455666 -0.00733881 6.56555e-23)
(0.048219 -0.00714082 -3.48254e-23)
(0.0508008 -0.00692251 3.76268e-23)
(0.0533049 -0.00668742 5.90934e-25)
(0.0557257 -0.00643891 7.05987e-24)
(0.0580584 -0.00618018 -6.75729e-24)
(0.0602995 -0.0059142 -4.21044e-25)
(0.0624464 -0.00564373 -6.21686e-24)
(0.0644976 -0.00537128 5.4985e-24)
(0.0664524 -0.00509914 0)
(0.0683107 -0.00482937 -6.78948e-26)
(0.0700734 -0.00456376 0)
(0.071742 -0.00430389 -1.29363e-23)
(0.0733182 -0.00405111 1.20474e-23)
(0.0748047 -0.00380652 -8.22804e-25)
(0.0762041 -0.00357105 -4.13254e-26)
(0.0775198 -0.0033454 -6.9562e-24)
(0.078755 -0.0031301 1.29423e-23)
(0.0799134 -0.0029255 -6.89709e-24)
(0.0809987 -0.00273179 3.27873e-24)
(0.0820146 -0.00254896 -2.50117e-24)
(0.082965 -0.00237683 -8.31171e-25)
(-0.00054942 0.00162627 -2.73261e-21)
(-0.00142529 0.00296734 0)
(-0.00182917 0.00322297 2.82338e-21)
(-0.00195299 0.00279101 -5.63962e-21)
(-0.00181907 0.00197262 2.83742e-21)
(-0.00144944 0.000950036 1.29071e-21)
(-0.000866662 -0.000169921 -1.35429e-21)
(-7.47589e-05 -0.00133284 1.24997e-21)
(0.000934474 -0.00247902 -2.47094e-21)
(0.00215008 -0.00358202 1.20196e-21)
(0.00356039 -0.00462568 1.77567e-23)
(0.00515842 -0.0055977 4.08013e-25)
(0.00693427 -0.00649067 1.5486e-23)
(0.00887521 -0.00729973 -9.21739e-22)
(0.0109674 -0.00802228 8.93685e-22)
(0.0131957 -0.00865735 2.53208e-23)
(0.0155445 -0.00920527 -1.14293e-23)
(0.0179974 -0.00966734 6.45982e-22)
(0.020538 -0.0100458 -6.4582e-22)
(0.0231498 -0.0103434 -8.82677e-24)
(0.0258165 -0.010564 0)
(0.0285224 -0.0107112 3.48608e-25)
(0.031252 -0.0107893 0)
(0.0339907 -0.0108025 5.32028e-24)
(0.0367245 -0.0107556 2.97296e-25)
(0.0394404 -0.010654 3.59905e-24)
(0.0421262 -0.0105033 -1.82936e-22)
(0.0447712 -0.0103087 1.80261e-22)
(0.0473656 -0.0100755 0)
(0.0499006 -0.00980881 -4.32645e-23)
(0.0523686 -0.00951366 4.47537e-23)
(0.0547631 -0.0091949 0)
(0.0570788 -0.00885717 -1.62055e-25)
(0.0593113 -0.00850485 -3.85433e-24)
(0.0614571 -0.00814206 8.0561e-25)
(0.0635138 -0.00777262 1.14962e-23)
(0.06548 -0.00740004 -2.15373e-23)
(0.0673548 -0.00702749 2.99539e-23)
(0.0691384 -0.00665782 -1.69312e-23)
(0.0708313 -0.00629357 -1.10299e-23)
(0.0724349 -0.00593694 9.60344e-24)
(0.073951 -0.0055898 7.25819e-25)
(0.0753819 -0.00525373 1.29281e-23)
(0.0767302 -0.00493002 -2.75645e-23)
(0.0779987 -0.00461968 1.30287e-23)
(0.0791908 -0.00432345 4.60681e-26)
(0.0803098 -0.00404183 -8.31844e-25)
(0.0813591 -0.0037751 -3.76147e-26)
(0.0823423 -0.00352326 7.98748e-25)
(0.083263 -0.00328598 -1.52298e-24)
(-0.000604631 0.0016141 -1.74948e-24)
(-0.00134929 0.00299497 -2.55502e-23)
(-0.00125098 0.00326126 -2.47185e-23)
(-0.000789021 0.00277048 -2.39614e-23)
(-7.17502e-05 0.0018479 -4.58305e-23)
(0.0008294 0.000691203 -5.76582e-25)
(0.00186916 -0.000596301 2.13846e-23)
(0.00303991 -0.0019381 -2.11609e-23)
(0.00435241 -0.00327563 -2.03773e-23)