/*--------------------------------*- C++ -*----------------------------------*\
| =========                 |                                                 |
| \\      /  F ield         | OpenFOAM: The Open Source CFD Toolbox           |
|  \\    /   O peration     | Version:  2412                                  |
|   \\  /    A nd           | Website:  www.openfoam.com                      |
|    \\/     M anipulation  |                                                 |
\*---------------------------------------------------------------------------*/
FoamFile
{
    version     2.0;
    format      ascii;
    arch        "LSB;label=32;scalar=64";
    class       volVectorField;
    location    "20";
    object      vorticity;
}
// * * * * * * * * * * * * * * * * * * * * * * * * * * * * * * * * * * * * * //

dimensions      [0 0 -1 0 0 0 0];

internalField   nonuniform List<vector> 
63420
(
(0 0 5.89432e-06)
(0 0 5.87823e-06)
(0 0 5.84034e-06)
(0 0 5.7691e-06)
(0 0 5.78898e-06)
(0 0 6.21689e-06)
(0 0 7.41813e-06)
(0 0 9.50896e-06)
(0 0 1.21231e-05)
(0 0 1.4438e-05)
(0 0 1.54726e-05)
(0 0 1.44892e-05)
(0 0 1.12855e-05)
(0 0 6.25282e-06)
(0 0 2.13159e-07)
(0 0 -5.86011e-06)
(0 0 -1.11107e-05)
(0 0 -1.49727e-05)
(0 0 -1.72239e-05)
(0 0 -1.79409e-05)
(0 0 -1.74007e-05)
(0 0 -1.59731e-05)
(0 0 -1.40305e-05)
(0 0 -1.18903e-05)
(0 0 -9.78822e-06)
(0 0 -7.87551e-06)
(0 0 -6.23093e-06)
(0 0 -4.87867e-06)
(0 0 -3.80693e-06)
(0 0 -2.98365e-06)
(0 0 -2.36824e-06)
(0 0 -1.91929e-06)
(0 0 -1.59901e-06)
(0 0 -1.37535e-06)
(0 0 -1.22242e-06)
(0 0 -1.12013e-06)
(0 0 -1.05338e-06)
(0 0 -1.01111e-06)
(0 0 -9.85381e-07)
(0 0 -9.70579e-07)
(0 0 -9.62822e-07)
(0 0 -9.59445e-07)
(0 0 -9.58644e-07)
(0 0 -9.592e-07)
(0 0 -9.60291e-07)
(0 0 -9.61356e-07)
(0 0 -9.61937e-07)
(0 0 -9.6142e-07)
(0 0 -9.58267e-07)
(0 0 -9.47423e-07)
(0 0 -9.1166e-07)
(0 0 -7.9344e-07)
(0 0 -4.06646e-07)
(0 0 8.31447e-07)
(0 4.46547e-23 4.68428e-06)
(0 0 1.76784e-05)
(0 0 1.76312e-05)
(0 0 1.75191e-05)
(0 0 1.73075e-05)
(0 0 1.73669e-05)
(0 0 1.8643e-05)
(0 0 2.22278e-05)
(0 0 2.84726e-05)
(0 0 3.62906e-05)
(0 0 4.32317e-05)
(0 0 4.63693e-05)
(0 0 4.34972e-05)
(0 0 3.40027e-05)
(0 0 1.90435e-05)
(0 0 1.0625e-06)
(0 0 -1.70414e-05)
(0 0 -3.27146e-05)
(0 0 -4.42664e-05)
(0 0 -5.10282e-05)
(0 0 -5.3222e-05)
(0 0 -5.1669e-05)
(0 0 -4.74667e-05)
(0 0 -4.17228e-05)
(0 0 -3.53823e-05)
(0 0 -2.91475e-05)
(0 0 -2.34701e-05)
(0 0 -1.85857e-05)
(0 0 -1.45677e-05)
(0 0 -1.1382e-05)
(0 0 -8.93414e-06)
(0 0 -7.10401e-06)
(0 0 -5.76883e-06)
(0 0 -4.81652e-06)
(0 0 -4.15185e-06)
(0 0 -3.69795e-06)
(0 0 -3.39512e-06)
(0 0 -3.19844e-06)
(0 0 -3.07498e-06)
(0 0 -3.00107e-06)
(0 0 -2.96003e-06)
(0 0 -2.94028e-06)
(0 0 -2.93386e-06)
(0 0 -2.93536e-06)
(0 0 -2.94114e-06)
(0 0 -2.94875e-06)
(0 0 -2.95648e-06)
(0 0 -2.96295e-06)
(0 0 -2.96634e-06)
(0 0 -2.96217e-06)
(0 0 -2.93577e-06)
(0 0 -2.83726e-06)
(0 0 -2.4998e-06)
(0 0 -1.38277e-06)
(0 0 2.20974e-06)
(0 4.51225e-23 1.34179e-05)
(0 0 2.94502e-05)
(0 0 2.93718e-05)
(0 0 2.91864e-05)
(0 0 2.88359e-05)
(0 0 2.89317e-05)
(0 0 3.10391e-05)
(0 0 3.69728e-05)
(0 0 4.73312e-05)
(0 0 6.0335e-05)
(0 0 7.19435e-05)
(0 0 7.73117e-05)
(0 0 7.27698e-05)
(0 0 5.72728e-05)
(0 0 3.27027e-05)
(0 0 3.07491e-06)
(0 0 -2.68283e-05)
(0 0 -5.27818e-05)
(0 0 -7.19773e-05)
(0 0 -8.32912e-05)
(0 0 -8.70716e-05)
(0 0 -8.46596e-05)
(0 0 -7.78575e-05)
(0 0 -6.84893e-05)
(0 0 -5.81139e-05)
(0 0 -4.78922e-05)
(0 0 -3.85727e-05)
(0 0 -3.05476e-05)
(0 0 -2.39412e-05)
(0 0 -1.87004e-05)
(0 0 -1.46715e-05)
(0 0 -1.1658e-05)
(0 0 -9.45873e-06)
(0 0 -7.88967e-06)
(0 0 -6.79431e-06)
(0 0 -6.0462e-06)
(0 0 -5.54713e-06)
(0 0 -5.22314e-06)
(0 0 -5.01996e-06)
(0 0 -4.89862e-06)
(0 0 -4.83164e-06)
(0 0 -4.79988e-06)
(0 0 -4.79024e-06)
(0 0 -4.79378e-06)
(0 0 -4.80452e-06)
(0 0 -4.81838e-06)
(0 0 -4.83255e-06)
(0 0 -4.84478e-06)
(0 0 -4.85217e-06)
(0 0 -4.84768e-06)
(0 0 -4.80861e-06)
(0 0 -4.65766e-06)
(0 0 -4.13583e-06)
(0 0 -2.40095e-06)
(0 0 3.19942e-06)
(0 2.66266e-22 2.07345e-05)
(0 0 4.12017e-05)
(0 0 4.10919e-05)
(0 0 4.08345e-05)
(0 0 4.03477e-05)
(0 0 4.04747e-05)
(0 0 4.33858e-05)
(0 0 5.16128e-05)
(0 0 6.60186e-05)
(0 0 8.41784e-05)
(0 0 0.000100519)
(0 0 0.000108322)
(0 0 0.000102463)
(0 0 8.14276e-05)
(0 0 4.77561e-05)
(0 0 6.95737e-06)
(0 0 -3.43705e-05)
(0 0 -7.03734e-05)
(0 0 -9.7137e-05)
(0 0 -0.000113069)
(0 0 -0.000118612)
(0 0 -0.000115588)
(0 0 -0.000106468)
(0 0 -9.37612e-05)
(0 0 -7.9618e-05)
(0 0 -6.5645e-05)
(0 0 -5.28813e-05)
(0 0 -4.18756e-05)
(0 0 -3.28061e-05)
(0 0 -2.56052e-05)
(0 0 -2.00655e-05)
(0 0 -1.59195e-05)
(0 0 -1.2892e-05)
(0 0 -1.0731e-05)
(0 0 -9.22161e-06)
(0 0 -8.19027e-06)
(0 0 -7.50191e-06)
(0 0 -7.05482e-06)
(0 0 -6.77434e-06)
(0 0 -6.60679e-06)
(0 0 -6.5143e-06)
(0 0 -6.47052e-06)
(0 0 -6.45738e-06)
(0 0 -6.46257e-06)
(0 0 -6.47782e-06)
(0 0 -6.49751e-06)
(0 0 -6.51778e-06)
(0 0 -6.53556e-06)
(0 0 -6.54704e-06)
(0 0 -6.54334e-06)
(0 0 -6.4961e-06)
(0 0 -6.30899e-06)
(0 0 -5.65863e-06)
(0 0 -3.48811e-06)
(0 0 3.55493e-06)
(0 -1.74806e-22 2.57473e-05)
(0 0 5.29251e-05)
(0 0 5.27831e-05)
(0 0 5.24556e-05)
(0 0 5.18358e-05)
(0 0 5.19871e-05)
(0 0 5.56654e-05)
(0 0 6.61105e-05)
(0 0 8.44744e-05)
(0 0 0.000107748)
(0 0 0.000128904)
(0 0 0.000139412)
(0 0 0.000132701)
(0 0 0.000106747)
(0 0 6.46533e-05)
(0 0 1.33198e-05)
(0 0 -3.89309e-05)
(0 0 -8.46721e-05)
(0 0 -0.0001189)
(0 0 -0.000139535)
(0 0 -0.000147073)
(0 0 -0.000143767)
(0 0 -0.000132705)
(0 0 -0.00011704)
(0 0 -9.94852e-05)
(0 0 -8.20751e-05)
(0 0 -6.61318e-05)
(0 0 -5.23594e-05)
(0 0 -4.09941e-05)
(0 0 -3.19602e-05)
(0 0 -2.50038e-05)
(0 0 -1.97932e-05)
(0 0 -1.59855e-05)
(0 0 -1.32655e-05)
(0 0 -1.13645e-05)
(0 0 -1.00645e-05)
(0 0 -9.19616e-06)
(0 0 -8.63164e-06)
(0 0 -8.27705e-06)
(0 0 -8.06488e-06)
(0 0 -7.94747e-06)
(0 0 -7.89164e-06)
(0 0 -7.87461e-06)
(0 0 -7.88089e-06)
(0 0 -7.90001e-06)
(0 0 -7.92493e-06)
(0 0 -7.95078e-06)
(0 0 -7.97376e-06)
(0 0 -7.98941e-06)
(0 0 -7.98781e-06)
(0 0 -7.93795e-06)
(0 0 -7.73526e-06)
(0 0 -7.02888e-06)
(0 0 -4.66581e-06)
(0 0 3.05243e-06)
(0 8.62949e-23 2.76351e-05)
(0 0 6.46141e-05)
(0 0 6.44372e-05)
(0 0 6.40416e-05)
(0 0 6.32931e-05)
(0 0 6.34607e-05)
(0 0 6.78618e-05)
(0 0 8.04335e-05)
(0 0 0.000102645)
(0 0 0.000130978)
(0 0 0.000157046)
(0 0 0.000170577)
(0 0 0.000163574)
(0 0 0.000133442)
(0 0 8.37457e-05)
(0 0 2.26456e-05)
(0 0 -3.99196e-05)
(0 0 -9.50201e-05)
(0 0 -0.000136584)
(0 0 -0.000162021)
(0 0 -0.000171832)
(0 0 -0.000168637)
(0 0 -0.000156083)
(0 0 -0.000137918)
(0 0 -0.000117381)
(0 0 -9.69131e-05)
(0 0 -7.81092e-05)
(0 0 -6.18284e-05)
(0 0 -4.83694e-05)
(0 0 -3.76561e-05)
(0 0 -2.93967e-05)
(0 0 -2.32036e-05)
(0 0 -1.86736e-05)
(0 0 -1.54348e-05)
(0 0 -1.31691e-05)
(0 0 -1.16182e-05)
(0 0 -1.05811e-05)
(0 0 -9.90593e-06)
(0 0 -9.48109e-06)
(0 0 -9.22623e-06)
(0 0 -9.08457e-06)
(0 0 -9.0166e-06)
(0 0 -8.99515e-06)
(0 0 -9.00175e-06)
(0 0 -9.02394e-06)
(0 0 -9.0533e-06)
(0 0 -9.08403e-06)
(0 0 -9.11173e-06)
(0 0 -9.13151e-06)
(0 0 -9.13328e-06)
(0 0 -9.08657e-06)
(0 0 -8.89048e-06)
(0 0 -8.20967e-06)
(0 0 -5.94239e-06)
(0 0 1.49371e-06)
(0 4.25793e-22 2.56057e-05)
(0 0 7.62598e-05)
(0 0 7.6045e-05)
(0 0 7.55843e-05)
(0 0 7.47122e-05)
(0 0 7.48872e-05)
(0 0 7.99609e-05)
(0 0 9.45548e-05)
(0 0 0.000120487)
(0 0 0.000153811)
(0 0 0.000184891)
(0 0 0.000201799)
(0 0 0.000195125)
(0 0 0.000161648)
(0 0 0.000105269)
(0 0 3.52705e-05)
(0 0 -3.69195e-05)
(0 0 -0.000100946)
(0 0 -0.000149694)
(0 0 -0.000180039)
(0 0 -0.00019243)
(0 0 -0.000189787)
(0 0 -0.000176247)
(0 0 -0.000156096)
(0 0 -0.00013306)
(0 0 -0.000109961)
(0 0 -8.86566e-05)
(0 0 -7.01587e-05)
(0 0 -5.48342e-05)
(0 0 -4.26151e-05)
(0 0 -3.31812e-05)
(0 0 -2.60985e-05)
(0 0 -2.09118e-05)
(0 0 -1.71995e-05)
(0 0 -1.45995e-05)
(0 0 -1.28177e-05)
(0 0 -1.16246e-05)
(0 0 -1.08465e-05)
(0 0 -1.03558e-05)
(0 0 -1.00603e-05)
(0 0 -9.89517e-06)
(0 0 -9.81491e-06)
(0 0 -9.7884e-06)
(0 0 -9.79445e-06)
(0 0 -9.81874e-06)
(0 0 -9.85158e-06)
(0 0 -9.88636e-06)
(0 0 -9.91814e-06)
(0 0 -9.94185e-06)
(0 0 -9.94795e-06)
(0 0 -9.9093e-06)
(0 0 -9.73947e-06)
(0 0 -9.16086e-06)
(0 0 -7.28915e-06)
(0 0 -1.27441e-06)
(0 -8.32985e-23 1.87707e-05)
(-1.69625e-23 7.9471e-21 2.78016e-06)
(-1.45842e-22 7.81405e-21 2.17674e-06)
(3.25804e-23 -1.95222e-22 1.36519e-06)
(3.75213e-23 -2.33294e-20 3.03663e-07)
(-9.13912e-23 7.96981e-21 -1.04616e-06)
(3.59054e-22 7.82827e-21 -2.71292e-06)
(-7.85496e-22 2.28236e-20 -4.72085e-06)
(3.08121e-22 -2.31908e-20 -7.09291e-06)
(6.20554e-22 -7.46242e-21 -9.85248e-06)
(-8.86783e-22 -3.68462e-24 -1.30253e-05)
(-8.86344e-22 -7.47718e-21 -1.6641e-05)
(7.76349e-22 7.10358e-21 -2.07342e-05)
(5.60159e-22 -5.85181e-20 -2.53469e-05)
(-1.03421e-21 1.25625e-19 -3.05285e-05)
(3.55973e-22 -6.75801e-20 -3.63344e-05)
(-1.2158e-21 -5.09551e-20 -4.28192e-05)
(2.33402e-21 -6.48852e-20 -5.00381e-05)
(-1.83215e-21 7.64524e-21 -5.80679e-05)
(-1.86689e-22 -7.13407e-21 -6.70062e-05)
(7.15494e-23 7.13875e-21 -7.69476e-05)
(-3.10524e-24 -1.27009e-22 -8.79763e-05)
(-6.65378e-23 -6.88606e-21 -0.000100182)
(-1.98498e-21 6.94562e-21 -0.000113663)
(4.15175e-21 1.27593e-23 -0.000128524)
(1.21127e-21 6.74334e-21 -0.000144876)
(-3.23475e-21 -5.25006e-24 -0.000162849)
(4.65454e-21 7.82943e-21 -0.000182595)
(-5.45951e-21 1.01614e-19 -0.000204307)
(6.78669e-22 -1.09113e-19 -0.000228243)
(-2.1057e-21 9.96671e-20 -0.000254768)
(2.05126e-21 -1.00796e-19 -0.000284413)
(4.78891e-23 1.32424e-21 -0.000317991)
(-6.23167e-23 -1.62533e-21 -0.000356781)
(2.74137e-21 -9.53833e-20 -0.00040287)
(-8.54175e-21 9.2565e-20 -0.000459747)
(-3.1103e-22 -1.52776e-21 -0.000533345)
(6.12203e-21 1.33895e-23 -0.000633832)
(6.6538e-21 1.45525e-23 -0.00077857)
(-6.63251e-21 -1.4506e-23 -0.000996818)
(-2.19836e-22 -4.80804e-25 -0.00133683)
(-2.2918e-22 -5.01239e-25 -0.00187587)
(-7.88585e-21 -1.72471e-23 -0.0027332)
(7.61192e-21 1.6648e-23 -0.0040849)
(-2.51284e-22 1.49482e-22 -0.00617762)
(-3.27195e-23 7.73613e-21 -0.00933548)
(-2.43627e-20 5.00693e-20 -0.0139517)
(2.34657e-20 -6.59784e-20 -0.0204523)
(-5.5006e-21 -9.3711e-21 -0.0292184)
(6.04625e-21 2.56198e-20 -0.0404613)
(-2.01052e-20 -5.61271e-21 -0.0539704)
(-2.56016e-22 7.95856e-21 8.04182e-06)
(-1.03716e-22 1.56558e-20 6.16429e-06)
(2.99212e-22 7.61467e-21 3.60823e-06)
(-8.6114e-22 -7.82705e-21 2.47324e-07)
(1.59937e-21 7.46654e-21 -4.02011e-06)
(-4.92765e-22 -5.34678e-20 -9.27638e-06)
(-2.18519e-22 8.48991e-20 -1.55914e-05)
(-5.60706e-23 -8.83752e-21 -2.30321e-05)
(2.15132e-21 -9.77715e-20 -3.16685e-05)
(-2.23784e-21 1.38034e-19 -4.15799e-05)
(-8.22241e-22 1.26136e-19 -5.28589e-05)
(6.06599e-22 -1.13471e-19 -6.56159e-05)
(-3.87824e-22 7.27051e-22 -7.99821e-05)
(2.76673e-21 -7.22734e-21 -9.61143e-05)
(-2.15573e-21 2.40237e-20 -0.000114189)
(-5.90901e-21 2.38698e-19 -0.000134378)
(1.6188e-21 -2.24464e-19 -0.00015686)
(-5.5308e-21 2.40545e-19 -0.00018187)
(-2.93789e-22 1.94758e-20 -0.000209721)
(-3.7896e-21 -7.29606e-21 -0.000240717)
(4.00617e-21 1.43318e-22 -0.000275129)
(-4.01899e-21 9.05684e-21 -0.000313249)
(9.9265e-22 2.08922e-19 -0.0003554)
(5.87799e-21 -4.42345e-19 -0.000401926)
(4.47452e-21 -2.11314e-19 -0.0004532)
(-6.95548e-21 4.27791e-19 -0.000509649)
(3.64029e-21 -4.26542e-19 -0.000571778)
(-1.9894e-21 4.37647e-19 -0.000640222)
(3.24453e-21 1.45993e-21 -0.00071582)
(-3.67464e-21 -9.62958e-23 -0.000799735)
(-1.2346e-21 -2.7002e-24 -0.000893651)
(0 0 -0.0010001)
(1.82458e-22 9.46847e-23 -0.00112303)
(1.09064e-20 1.22301e-20 -0.00126885)
(-1.5626e-20 3.57271e-19 -0.00144823)
(-1.55727e-20 -2.40017e-20 -0.00167924)
(1.84308e-20 -3.52377e-19 -0.00199282)
(2.63129e-20 -3.04457e-19 -0.00244174)
(-9.34087e-21 3.25225e-19 -0.00311487)
(-3.07813e-20 2.16298e-21 -0.00415863)
(3.00444e-20 1.71394e-20 -0.00580726)
(-4.16941e-20 2.31897e-19 -0.0084219)
(2.25794e-20 -2.41208e-19 -0.0125352)
(-1.77866e-20 1.4496e-20 -0.0188925)
(1.9712e-20 7.62378e-21 -0.0284724)
(-5.91645e-20 1.12033e-19 -0.0424614)
(5.90889e-20 -1.09662e-19 -0.0621412)
(-9.07917e-20 8.18673e-20 -0.0886384)
(8.76147e-20 -9.14161e-20 -0.122518)
(-1.85656e-20 -6.27277e-22 -0.161783)
(-4.37009e-23 4.71522e-20 1.28724e-05)
(-8.56555e-23 1.49098e-20 9.49838e-06)
(3.75737e-22 -6.17666e-20 4.80677e-06)
(-7.99233e-22 1.22875e-19 -1.39781e-06)
(1.76222e-21 -2.63035e-19 -9.25828e-06)
(3.79124e-22 1.25072e-19 -1.88883e-05)
(-2.4242e-21 -8.60931e-22 -3.03913e-05)
(1.54881e-21 -1.69919e-20 -4.3874e-05)
(1.46995e-21 -2.56682e-19 -5.94571e-05)
(7.3259e-22 2.44577e-19 -7.72829e-05)
(-8.49447e-22 -1.61178e-21 -9.7521e-05)
(-4.17542e-21 -1.5579e-23 -0.000120374)
(6.62298e-21 -1.8345e-21 -0.000146085)
(-3.91606e-21 -2.50376e-19 -0.000174941)
(5.11753e-21 2.27525e-19 -0.000207268)
(-1.13609e-20 4.52129e-19 -0.00024339)
(-4.80182e-21 -1.20444e-20 -0.000283637)
(-4.71722e-21 4.65197e-19 -0.000328451)
(4.07258e-22 -1.41211e-20 -0.000378406)
(-1.23438e-20 4.51763e-19 -0.000434068)
(1.2265e-20 -4.69177e-19 -0.000495962)
(-9.17024e-21 4.48049e-19 -0.000564654)
(2.42926e-21 -4.66023e-19 -0.000640778)
(5.19742e-21 -9.30429e-21 -0.000725013)
(-2.58179e-21 1.36576e-20 -0.000818113)
(5.51339e-21 -8.80731e-21 -0.00092093)
(-1.88396e-20 4.2003e-19 -0.00103448)
(1.69474e-20 -4.47662e-19 -0.00116001)
(1.84507e-20 -4.15964e-19 -0.00129914)
(-1.51555e-20 4.1787e-19 -0.00145407)
(-1.07741e-21 -5.1441e-21 -0.00162789)
(1.115e-20 -1.20661e-22 -0.00182515)
(-1.27547e-20 -2.46531e-20 -0.00205283)
(5.31988e-20 -7.5953e-19 -0.00232211)
(1.65188e-20 5.60674e-20 -0.00265138)
(-7.004e-20 7.15234e-19 -0.00307167)
(3.93328e-21 -1.22741e-20 -0.00363588)
(-1.13801e-20 -4.82677e-21 -0.00443409)
(1.09764e-19 -6.00365e-19 -0.00561779)
(-2.04213e-19 1.1791e-18 -0.0074363)
(2.08301e-19 -1.17155e-18 -0.0102879)
(7.08149e-20 8.46337e-20 -0.0147858)
(-1.56449e-19 5.12959e-19 -0.021833)
(-1.64188e-19 3.53908e-19 -0.0326923)
(1.55175e-19 -4.19555e-19 -0.0490222)
(-2.20632e-20 1.93386e-20 -0.072836)
(5.45061e-20 -1.72096e-20 -0.106308)
(1.63631e-19 -1.0164e-19 -0.151307)
(-1.77133e-19 1.58671e-19 -0.208579)
(-2.52191e-20 -4.06858e-20 -0.270279)
(4.05033e-22 -3.1097e-20 1.68866e-05)
(-3.64235e-22 1.57237e-20 1.14896e-05)
(6.84288e-22 -1.70173e-22 3.8305e-06)
(-6.10891e-22 -1.54704e-20 -6.28865e-06)
(-9.56308e-22 -1.43624e-21 -1.89963e-05)
(3.33927e-21 -2.42825e-19 -3.44045e-05)
(-4.71912e-21 4.59813e-19 -5.26367e-05)
(2.30735e-21 -2.47568e-19 -7.3843e-05)
(-1.81694e-21 1.49366e-20 -9.82094e-05)
(4.85518e-21 -2.71105e-19 -0.000125963)
(-5.84091e-21 2.47357e-19 -0.00015738)
(-4.15556e-21 4.72292e-19 -0.00019279)
(1.08582e-20 -9.55499e-19 -0.000232585)
(-1.30518e-20 9.54458e-19 -0.000277228)
(1.72855e-20 -9.50005e-19 -0.000327244)
(-1.14111e-20 9.41487e-19 -0.000383165)
(-9.94811e-21 4.78941e-19 -0.00044554)
(-7.0529e-22 -3.75579e-21 -0.00051509)
(4.49502e-21 3.90225e-21 -0.000592739)
(-7.69221e-21 4.4181e-19 -0.000679417)
(-1.86103e-21 -4.6398e-19 -0.000776012)
(1.47552e-20 1.27153e-20 -0.000883505)
(-3.37516e-20 8.90845e-19 -0.00100299)
(2.56182e-20 -8.9378e-19 -0.00113568)
(2.26852e-21 -5.34783e-21 -0.0012829)
(-9.72923e-21 -9.08595e-23 -0.0014462)
(1.47954e-20 -1.35094e-20 -0.00162736)
(-4.80781e-21 1.23287e-22 -0.00182859)
(-5.2796e-21 -6.50572e-23 -0.00205267)
(5.0277e-21 1.95395e-22 -0.00230324)
(-3.72281e-21 1.44466e-21 -0.00258529)
(6.33814e-20 -7.8944e-19 -0.00290595)
(-5.74794e-20 8.1189e-19 -0.00327588)
(-1.60476e-20 2.11851e-22 -0.00371173)
(1.86959e-20 -1.0307e-20 -0.00424052)
(-9.91065e-20 7.24606e-19 -0.0049074)
(1.15596e-19 -7.27806e-19 -0.0057889)
(-2.26541e-20 2.19673e-21 -0.00701494)
(1.60095e-20 -9.25717e-23 -0.00880378)
(3.80635e-20 6.40193e-21 -0.0115144)
(-2.4751e-19 5.43487e-19 -0.0157197)
(3.67245e-19 -1.1017e-18 -0.0223013)
(-1.79305e-19 5.5821e-19 -0.0325575)
(2.60323e-19 -4.27136e-19 -0.0483072)
(-2.52004e-19 5.03171e-19 -0.0719523)
(-5.86921e-19 5.19171e-19 -0.106439)
(1.10809e-18 -1.10013e-18 -0.154996)
(-5.42445e-19 5.55494e-19 -0.220396)
(1.87262e-20 -2.14641e-21 -0.303379)
(4.51134e-21 -3.48717e-20 -0.382694)
(-7.33095e-22 1.58043e-20 1.95315e-05)
(-2.92242e-22 6.05327e-20 1.09698e-05)
(2.01471e-21 -1.83787e-19 -1.23686e-06)
(-1.38053e-21 2.46623e-19 -1.71e-05)
(-2.31602e-22 -1.09205e-19 -3.6645e-05)
(1.15335e-22 -1.4601e-20 -5.99579e-05)
(-4.73994e-22 1.53882e-20 -8.71934e-05)
(3.01568e-21 -1.8583e-22 -0.000118573)
(-2.86433e-21 -1.50426e-20 -0.000154385)
(-5.22825e-21 3.37227e-20 -0.000194988)
(-7.04941e-21 4.80351e-19 -0.000240811)
(1.84542e-20 -4.99243e-19 -0.000292367)
(-2.27593e-20 4.65725e-19 -0.00035026)
(1.89822e-20 -4.84452e-19 -0.000415196)
(-2.99513e-21 3.38413e-21 -0.000487979)
(1.0949e-20 4.74342e-23 -0.000569436)
(4.16295e-21 3.70239e-21 -0.000660437)
(-5.36407e-21 4.52566e-19 -0.0007621)
(2.02798e-20 -4.89728e-19 -0.000875839)
(6.31504e-21 2.68674e-20 -0.0010031)
(-4.58662e-20 9.33096e-19 -0.00114532)
(2.92625e-20 -9.35725e-19 -0.00130412)
(1.01395e-20 2.258e-20 -0.0014813)
(-1.79882e-20 -2.325e-22 -0.0016789)
(1.17707e-20 9.60676e-21 -0.00189917)
(-3.90801e-20 8.96631e-19 -0.00214474)
(3.2303e-20 -8.88185e-19 -0.00241866)
(2.82821e-21 9.59173e-21 -0.00272462)
(9.49939e-21 2.72107e-20 -0.00306716)
(-1.14713e-20 -5.47907e-22 -0.00345211)
(1.18208e-21 -1.30111e-20 -0.00388717)
(-3.72072e-20 1.3211e-20 -0.00438295)
(3.49888e-20 1.25841e-20 -0.00495476)
(-3.0989e-21 -2.51942e-20 -0.00562583)
(8.29136e-20 -7.38302e-19 -0.00643302)
(-7.40091e-20 7.61007e-19 -0.00743687)
(2.70205e-19 -1.46408e-18 -0.00873913)
(-2.47865e-19 1.47827e-18 -0.0105118)
(3.06971e-19 -1.38301e-18 -0.0130433)
(7.13162e-20 1.3174e-19 -0.0168084)
(-3.52812e-19 1.31751e-18 -0.0225657)
(-1.20356e-19 -2.20985e-20 -0.0314848)
(1.63832e-20 3.85836e-22 -0.0452939)
(-1.82532e-20 5.59703e-22 -0.0664313)
(5.39196e-20 1.65671e-21 -0.0981671)
(2.59296e-20 1.35248e-20 -0.144638)
(-1.12552e-19 5.1113e-21 -0.210641)
(6.40998e-20 4.95424e-21 -0.300661)
(-1.64273e-22 -3.08408e-22 -0.415943)
(3.58762e-20 6.35037e-22 -0.509237)
(-7.25517e-22 7.6188e-20 1.99983e-05)
(1.6494e-21 -4.64539e-20 5.75309e-06)
(-1.65602e-21 -1.63747e-20 -1.38055e-05)
(4.71062e-21 -2.27609e-19 -3.82285e-05)
(-2.34149e-21 2.29477e-19 -6.7436e-05)
(2.09203e-21 -2.27055e-19 -0.00010155)
(-1.10725e-20 5.00688e-19 -0.000140827)
(1.1741e-20 -7.01156e-19 -0.000185633)
(-7.59403e-21 4.95784e-19 -0.000236428)
(-6.06234e-21 4.83311e-19 -0.000293771)
(-2.20123e-21 3.9616e-21 -0.000358322)
(2.46352e-20 -9.49374e-19 -0.000430854)
(-2.15937e-20 9.87937e-19 -0.000512269)
(5.25561e-21 -4.64765e-19 -0.00060362)
(1.22322e-20 -4.67025e-19 -0.000706096)
(2.25298e-20 -4.59503e-19 -0.000820955)
(-3.25225e-21 6.61693e-21 -0.00094953)
(3.85938e-20 -9.5287e-19 -0.00109351)
(3.00017e-20 -9.1479e-19 -0.001255)
(6.58156e-21 2.11833e-20 -0.00143619)
(-2.71016e-20 9.50072e-19 -0.00163936)
(-2.00528e-20 -8.04961e-21 -0.00186706)
(1.2244e-20 8.91453e-21 -0.00212222)
(-5.12763e-20 9.19728e-19 -0.00240813)
(4.17766e-20 -9.34211e-19 -0.00272851)
(7.33595e-20 -8.97283e-19 -0.00308768)
(-7.45845e-20 9.26793e-19 -0.00349067)
(1.50144e-20 -1.99415e-20 -0.00394351)
(6.84693e-20 -8.94281e-19 -0.0044535)
(-9.6121e-20 9.17071e-19 -0.00502976)
(4.35829e-21 1.23006e-20 -0.00568396)
(-2.08561e-19 1.6791e-18 -0.0064316)
(1.8881e-19 -1.74199e-18 -0.0072942)
(4.82948e-20 6.18308e-20 -0.00830308)
(-2.6858e-19 1.58879e-18 -0.00950635)
(2.46398e-19 -1.65656e-18 -0.0109811)
(-3.14523e-20 -3.28228e-21 -0.0128548)
(4.72269e-19 -1.49317e-18 -0.0153414)
(-4.42173e-19 1.54201e-18 -0.0187993)
(-6.59478e-20 -7.21879e-20 -0.0238193)
(6.77773e-19 -1.30261e-18 -0.0313503)
(-1.19293e-18 2.68593e-18 -0.0428635)
(-6.5403e-20 -1.54993e-19 -0.0605505)
(-8.75807e-20 -1.2164e-19 -0.0875409)
(7.68646e-19 -1.16873e-18 -0.128132)
(3.93254e-20 6.27101e-20 -0.188048)
(-8.65831e-19 7.73967e-19 -0.274732)
(8.48927e-19 -8.51187e-19 -0.397128)
(9.12296e-21 2.88412e-20 -0.561643)
(9.27901e-21 -2.71547e-21 -0.674674)
(6.06687e-22 -1.58645e-20 1.72282e-05)
(1.7046e-21 -1.35347e-19 -8.65508e-06)
(-1.82336e-21 1.22059e-19 -3.97362e-05)
(-1.26255e-21 -1.71753e-20 -7.60853e-05)
(5.36743e-21 -2.26192e-19 -0.000117934)
(-4.95884e-21 2.32624e-19 -0.000165627)
(-5.91737e-21 4.69907e-19 -0.000219625)
(-5.08213e-21 -1.94263e-20 -0.000280489)
(2.19753e-21 -4.56706e-21 -0.000348886)
(1.45283e-20 -5.01068e-19 -0.000425587)
(-1.187e-20 4.68814e-19 -0.000511486)
(1.79534e-20 -9.91806e-19 -0.000607607)
(-4.20047e-21 4.95744e-19 -0.000715132)
(-3.63217e-21 -1.86431e-20 -0.000835421)
(-4.8488e-21 -2.22991e-20 -0.000970006)
(2.88023e-20 -9.73023e-19 -0.0011205)
(-1.62223e-21 -2.0165e-20 -0.00128863)
(2.77269e-20 -9.91073e-19 -0.00147653)
(-5.38373e-21 -7.7136e-21 -0.00168682)
(-1.69576e-22 1.18965e-22 -0.00192224)
(1.14159e-20 8.41338e-21 -0.00218563)
(-5.34654e-20 9.53366e-19 -0.00248015)
(4.77456e-20 -9.73797e-19 -0.00280935)
(1.27429e-20 8.31824e-21 -0.00317717)
(-8.67606e-21 -1.49225e-20 -0.00358799)
(-6.15679e-21 9.8804e-21 -0.00404673)
(-7.49512e-20 9.20052e-19 -0.00455894)
(1.61014e-19 -1.87683e-18 -0.005131)
(-7.64322e-20 9.7861e-19 -0.00577032)
(-1.93753e-19 1.81358e-18 -0.00648569)
(-3.04486e-20 -4.55408e-20 -0.00728782)
(2.52441e-21 -2.65874e-20 -0.00819029)
(-6.59917e-20 -5.38532e-20 -0.00921141)
(2.60933e-19 -1.81191e-18 -0.0103776)
(4.00466e-19 -1.67721e-18 -0.0117299)
(-3.57849e-19 1.76017e-18 -0.0133364)
(-3.3849e-20 -5.47573e-20 -0.0153148)
(4.74136e-19 -1.60326e-18 -0.017872)
(-4.18598e-19 1.69797e-18 -0.0213697)
(-6.68048e-19 1.508e-18 -0.0264298)
(5.68376e-19 -1.59247e-18 -0.0340887)
(7.79701e-20 -1.11638e-20 -0.0460091)
(8.66879e-19 -1.4065e-18 -0.0647476)
(1.20104e-19 1.21981e-19 -0.0940678)
(-1.00089e-18 1.37738e-18 -0.139306)
(-1.61671e-20 -3.94405e-20 -0.207868)
(3.34194e-20 5.24616e-22 -0.310563)
(-3.37418e-20 1.56289e-20 -0.466481)
(-5.09923e-19 5.33487e-19 -0.712492)
(5.01252e-19 -5.42693e-19 -0.978578)
(-1.07281e-20 -3.15995e-21 0.0101629)
(-1.07332e-20 -5.2966e-22 0.0051775)
(1.00636e-20 1.00793e-20 0.000959978)
(-6.96672e-21 2.43974e-21 -0.00256254)
(7.49008e-21 -1.18925e-20 -0.00546924)
(4.95663e-23 3.50786e-21 -0.00784078)
(-1.70884e-22 -9.68734e-23 -0.00975202)
(-5.50158e-21 1.20325e-23 -0.0112669)
(5.34772e-21 -1.1696e-23 -0.0124412)
(-1.58679e-22 3.47048e-25 -0.0133217)
(-1.51542e-22 3.31438e-25 -0.0139484)
(4.42766e-21 -9.68372e-24 -0.0143543)
(-4.44188e-21 9.71483e-24 -0.0145686)
(-3.88564e-21 8.49828e-24 -0.014617)
(3.29912e-22 -8.81281e-22 -0.0145226)
(6.06863e-21 1.06484e-20 -0.0143062)
(-2.40985e-21 -8.21009e-21 -0.0139865)
(-5.99027e-23 -8.29922e-22 -0.0135808)
(-2.10222e-23 5.81309e-22 -0.0131045)
(-2.4916e-21 -2.40335e-20 -0.0125719)
(2.52425e-21 2.33345e-20 -0.0119953)
(-1.85532e-21 -2.8545e-20 -0.0113854)
(1.23692e-21 1.67177e-21 -0.0107522)
(-1.53776e-21 1.05484e-23 -0.0101057)
(1.03338e-21 2.57083e-21 -0.00945496)
(-3.72194e-22 2.05572e-23 -0.00880703)
(-8.11008e-22 1.77376e-24 -0.00816764)
(3.6447e-22 -8.89852e-24 -0.0075419)
(2.23474e-22 3.52102e-21 -0.00693429)
(-1.26593e-23 1.22934e-23 -0.00634851)
(-2.18079e-22 -3.97557e-21 -0.00578752)
(2.08354e-22 4.18791e-21 -0.00525367)
(-1.91803e-22 -4.39469e-21 -0.00474868)
(9.88642e-22 4.20743e-20 -0.00427373)
(-1.00195e-21 -4.23811e-20 -0.00382953)
(-5.17903e-22 -3.55042e-20 -0.00341634)
(1.19942e-21 7.74411e-20 -0.00303406)
(-6.70964e-22 -4.21279e-20 -0.00268224)
(-1.0299e-22 -5.49801e-21 -0.00236013)
(1.01114e-22 5.69069e-21 -0.00206676)
(-5.80464e-23 5.38354e-25 -0.00180094)
(2.1797e-22 5.96444e-21 -0.00156134)
(-3.65004e-22 -3.08208e-20 -0.00134647)
(3.31144e-22 3.10426e-20 -0.00115478)
(-7.69255e-23 -6.39433e-21 -0.000984633)
(2.15684e-22 1.95997e-20 -0.000834367)
(3.06442e-23 -6.52822e-21 -0.000702287)
(-1.32932e-22 -1.34794e-20 -0.000586665)
(3.17705e-23 6.78255e-21 -0.00048572)
(-9.66305e-23 -6.92752e-21 -0.0003976)
(-1.54662e-20 2.53873e-20 0.0294243)
(3.14085e-20 -9.29825e-21 0.0145948)
(-2.5432e-20 -2.26364e-20 0.00195684)
(8.1226e-21 2.2868e-20 -0.00851509)
(-8.53285e-21 -2.23494e-20 -0.0170952)
(-1.25708e-20 6.14125e-21 -0.0240552)
(1.11422e-20 6.61009e-21 -0.0296366)
(8.56298e-21 1.28557e-20 -0.0340375)
(4.12911e-21 -2.43154e-20 -0.03743)
(-2.20521e-20 6.34655e-21 -0.0399578)
(2.05094e-20 -4.98993e-21 -0.0417395)
(3.05371e-21 8.36752e-21 -0.0428735)
(-1.46691e-20 5.3215e-21 -0.043446)
(-1.64385e-20 -2.75962e-20 -0.0435333)
(7.1302e-21 -1.90506e-20 -0.0432033)
(1.71259e-20 3.38577e-20 -0.0425174)
(-6.79306e-21 3.26255e-21 -0.0415311)
(-7.03046e-22 -2.24007e-21 -0.0402948)
(1.10566e-23 -9.85186e-23 -0.0388545)
(5.41962e-22 -1.18533e-24 -0.0372514)
(1.52136e-21 2.3066e-23 -0.035522)
(-1.72532e-21 -3.35931e-21 -0.0336978)
(2.14695e-20 1.39549e-19 -0.0318076)
(-2.39086e-20 -1.49245e-19 -0.0298803)
(2.41315e-20 1.71479e-19 -0.0279433)
(-1.25196e-20 -7.82439e-20 -0.0260171)
(-2.37278e-20 -1.99008e-19 -0.0241184)
(1.13052e-20 1.02002e-19 -0.0222618)
(3.50628e-22 -3.13903e-21 -0.0204605)
(-1.25839e-21 -7.67864e-21 -0.0187251)
(5.92645e-22 3.97859e-21 -0.0170643)
(-1.08433e-21 -1.27469e-20 -0.0154847)
(9.36279e-21 1.40436e-19 -0.0139912)
(-1.97264e-20 -3.01163e-19 -0.0125873)
(8.95263e-21 1.46696e-19 -0.0112749)
(-1.00053e-21 -1.51188e-20 -0.0100547)
(2.69171e-22 5.19244e-21 -0.00892616)
(-2.01773e-23 -6.51992e-23 -0.00788797)
(-4.20914e-21 -9.54052e-20 -0.00693782)
(3.58218e-21 8.44571e-20 -0.00607276)
(2.63702e-21 8.28175e-20 -0.00528924)
(-3.87919e-21 -1.12943e-19 -0.00458322)
(9.38359e-23 6.22755e-21 -0.00395032)
(8.13669e-22 3.16928e-20 -0.00338588)
(-1.79112e-21 -5.70899e-20 -0.00288506)
(3.54015e-23 -6.4872e-21 -0.00244293)
(-1.12948e-21 -4.64949e-20 -0.00205443)
(-2.11566e-22 -7.06299e-21 -0.00171445)
(2.63807e-22 1.33969e-20 -0.0014176)
(3.16818e-22 2.06398e-20 -0.00115813)
(-1.41844e-20 -1.0649e-21 0.0454562)
(-1.47413e-20 -1.60819e-20 0.0210034)
(3.6985e-20 3.01623e-20 8.73629e-06)
(-4.40459e-20 -1.25969e-20 -0.017084)
(1.81534e-20 1.20013e-20 -0.0308771)
(2.06476e-20 1.66495e-20 -0.0419312)
(-1.18353e-20 -5.50904e-20 -0.0507053)
(2.69299e-20 -8.05062e-21 -0.0575529)
(-2.83173e-20 4.32463e-20 -0.0627704)
(-3.3865e-20 -9.68628e-21 -0.0666038)
(7.05982e-20 6.50239e-22 -0.0692475)
(-4.60681e-20 9.01125e-21 -0.0708609)
(6.04326e-21 -1.11505e-20 -0.0715838)
(-3.17353e-21 -8.24067e-21 -0.0715395)
(7.12952e-20 9.26863e-20 -0.0708377)
(-3.28755e-21 3.72399e-20 -0.0695768)
(-6.52594e-20 -1.13166e-19 -0.0678457)
(9.97727e-21 -2.44319e-21 -0.0657248)
(-6.26901e-21 2.34533e-22 -0.0632874)
(2.99238e-22 -2.16809e-21 -0.0605996)
(3.94996e-20 1.27453e-19 -0.0577198)
(-3.90288e-20 -1.17377e-19 -0.0546973)
(-4.02996e-20 -1.54231e-19 -0.0515786)
(4.34541e-20 1.58391e-19 -0.0484076)
(1.6831e-22 7.46841e-21 -0.0452277)
(-8.16162e-22 -6.17462e-21 -0.0420742)
(4.25967e-22 7.23354e-21 -0.0389717)
(-3.54839e-20 -2.22172e-19 -0.0359435)
(3.8489e-20 2.28632e-19 -0.0330097)
(-3.4592e-20 -2.40739e-19 -0.0301871)
(3.69724e-20 2.5666e-19 -0.0274891)
(8.46946e-22 8.87892e-21 -0.0249258)
(3.24063e-20 2.95974e-19 -0.022505)
(-6.32331e-20 -5.9522e-19 -0.0202315)
(3.23504e-20 3.18539e-19 -0.0181081)
(1.52404e-20 1.75877e-19 -0.0161356)
(-1.35642e-20 -1.55451e-19 -0.0143129)
(2.89486e-22 5.36767e-23 -0.0126375)
(-5.32999e-22 -1.14252e-22 -0.0111054)
(-6.19503e-23 1.27991e-22 -0.00971152)
(1.08689e-20 1.90468e-19 -0.00845003)
(-1.05269e-20 -1.79025e-19 -0.00731421)
(8.72459e-22 1.24902e-20 -0.00629682)
(-4.80193e-22 -1.14329e-23 -0.00539019)
(4.15712e-21 1.0305e-19 -0.00458642)
(-7.67685e-21 -1.95283e-19 -0.0038774)
(3.78241e-21 1.0514e-19 -0.00325492)
(-1.93019e-21 -5.41535e-20 -0.00271053)
(1.45577e-21 4.0423e-20 -0.00223525)
(3.45508e-22 1.3585e-20 -0.00181882)
(1.92391e-21 2.692e-20 0.0551904)
(8.72253e-21 -5.47629e-20 0.0215666)
(-7.2127e-20 1.67946e-20 -0.00747183)
(1.13546e-19 7.80018e-20 -0.0304419)
(-2.54661e-20 -1.07962e-19 -0.048535)
(-7.66976e-21 2.97241e-20 -0.0627591)
(-7.88927e-21 1.23773e-20 -0.0738641)
(3.73806e-21 1.5535e-20 -0.0823962)
(-5.08402e-20 -1.99239e-20 -0.0887788)
(8.4633e-20 -8.80836e-21 -0.093348)
(-2.53482e-20 1.287e-20 -0.0963672)
(-1.29355e-20 6.7776e-22 -0.098053)
(1.84471e-20 9.84787e-21 -0.0985914)
(-9.82656e-20 -1.1343e-19 -0.098145)
(8.20758e-20 9.22824e-20 -0.0968576)
(-8.18637e-21 1.33411e-20 -0.0948581)
(7.51494e-21 -8.43525e-21 -0.0922625)
(1.0087e-19 2.07431e-19 -0.0891761)
(-1.0433e-19 -1.94246e-19 -0.0856943)
(-1.49067e-22 -1.04352e-20 -0.0819032)
(-2.07932e-21 -7.91703e-23 -0.0778791)
(2.34663e-21 4.76482e-22 -0.0736877)
(1.55991e-21 -5.73532e-23 -0.0693854)
(-3.02168e-21 5.81775e-21 -0.0650306)
(3.66435e-21 4.17887e-22 -0.0606787)
(1.17638e-21 8.07047e-21 -0.0563751)
(-1.09936e-19 -4.62709e-19 -0.0521553)
(1.10185e-19 4.53006e-19 -0.0480463)
(-2.34559e-21 2.21465e-21 -0.044074)
(-4.84433e-20 -2.67814e-19 -0.0402596)
(5.20408e-20 2.76102e-19 -0.0366198)
(-3.33817e-22 4.44296e-22 -0.0331676)
(-1.84255e-22 -2.1207e-22 -0.029912)
(-4.47876e-20 -3.26302e-19 -0.026859)
(8.69544e-20 6.54709e-19 -0.0240115)
(-8.15577e-20 -6.66331e-19 -0.0213697)
(7.8109e-20 6.87507e-19 -0.0189317)
(-7.39438e-20 -7.07571e-19 -0.0166934)
(3.57973e-20 3.58984e-19 -0.014649)
(1.59388e-20 1.88094e-19 -0.0127914)
(-1.39925e-20 -1.64725e-19 -0.0111122)
(-1.16402e-21 -1.22618e-20 -0.00960212)
(-1.31831e-20 -1.99877e-19 -0.00825111)
(2.76185e-20 4.29434e-19 -0.00704869)
(-1.27153e-20 -2.04258e-19 -0.00598401)
(1.27864e-22 2.17997e-22 -0.00504608)
(5.21179e-22 1.32095e-20 -0.0042237)
(-1.10712e-22 -8.37021e-23 -0.00350532)
(-5.06144e-22 -1.3547e-20 -0.00287831)
(1.09015e-21 2.75083e-20 -0.00232715)
(2.74419e-20 9.76492e-23 0.0545322)
(3.4272e-22 3.98757e-22 0.0122345)
(-6.18943e-20 4.31287e-22 -0.0239373)
(9.13656e-20 -3.35558e-22 -0.0512911)
(-2.73672e-20 -1.14203e-22 -0.0720826)
(-4.35153e-20 -8.72318e-22 -0.0879872)
(1.43746e-20 2.07094e-22 -0.100125)
(-1.13976e-20 -3.73322e-22 -0.10923)
(9.16982e-20 -2.51684e-20 -0.115831)
(6.95494e-20 1.41779e-19 -0.120337)
(4.29092e-21 7.88705e-20 -0.123068)
(-1.04545e-19 -1.99453e-19 -0.124283)
(1.58802e-19 2.50729e-19 -0.124196)
(-1.76893e-19 -2.42536e-19 -0.122997)
(8.62654e-20 1.6138e-19 -0.120852)
(-9.76573e-20 -1.69342e-19 -0.11791)
(5.33658e-21 -5.20516e-21 -0.114305)
(-2.35146e-20 -2.98645e-21 -0.110158)
(1.95003e-20 -4.7171e-21 -0.105579)