/*--------------------------------*- C++ -*----------------------------------*\
| =========                 |                                                 |
| \\      /  F ield         | OpenFOAM: The Open Source CFD Toolbox           |
|  \\    /   O peration     | Version:  2412                                  |
|   \\  /    A nd           | Website:  www.openfoam.com                      |
|    \\/     M anipulation  |                                                 |
\*---------------------------------------------------------------------------*/
FoamFile
{
    version     2.0;
    format      ascii;
    arch        "LSB;label=32;scalar=64";
    class       volVectorField;
    location    "21";
    object      U;
}
// * * * * * * * * * * * * * * * * * * * * * * * * * * * * * * * * * * * * * //

dimensions      [0 1 -1 0 0 0 0];

internalField   nonuniform List<vector> 
5285
(
(0.100522 -0.00871284 0)
(0.10033 -0.00849865 0)
(0.100147 -0.00828034 0)
(0.0999742 -0.00805858 0)
(0.100737 -0.00850489 0)
(0.100545 -0.00830463 0)
(0.100361 -0.00809996 0)
(0.100188 -0.00789154 0)
(0.100024 -0.00767999 0)
(0.0998692 -0.00746594 0)
(0.0997247 -0.00725013 0)
(0.09959 -0.00703309 0)
(0.099465 -0.00681541 0)
(0.0993497 -0.00659766 0)
(0.099244 -0.00638039 0)
(0.0991477 -0.00616412 0)
(0.0990606 -0.00594934 0)
(0.0989825 -0.0057365 0)
(0.098913 -0.00552603 0)
(0.098852 -0.00531831 0)
(0.098799 -0.00511372 0)
(0.0987538 -0.00491257 0)
(0.098716 -0.00471517 0)
(0.0986852 -0.00452177 0)
(0.0986611 -0.00433261 0)
(0.0986432 -0.00414788 0)
(0.0986312 -0.00396776 0)
(0.0986247 -0.00379238 0)
(0.0986234 -0.00362184 0)
(0.0986269 -0.00345624 0)
(0.0986348 -0.00329563 0)
(0.0986468 -0.00314006 0)
(0.0986626 -0.00298954 0)
(0.0986819 -0.0028441 0)
(0.0987043 -0.00270375 0)
(0.0987296 -0.00256851 0)
(0.0987575 -0.00243837 0)
(0.0987877 -0.00231334 0)
(0.0988198 -0.00219339 0)
(0.0988537 -0.00207846 0)
(0.0988891 -0.00196849 0)
(0.0989256 -0.00186337 0)
(0.0989631 -0.00176295 0)
(0.0990012 -0.0016671 0)
(0.0990399 -0.00157562 0)
(0.0990788 -0.00148835 0)
(0.0991178 -0.0014051 0)
(0.0991568 -0.00132572 0)
(0.100937 -0.00829794 0)
(0.100745 -0.00811084 0)
(0.100562 -0.00791915 0)
(0.100388 -0.00772345 0)
(0.100223 -0.00752434 0)
(0.100067 -0.00732242 0)
(0.0999202 -0.00711831 0)
(0.0997829 -0.00691259 0)
(0.0996548 -0.00670581 0)
(0.0995359 -0.00649852 0)
(0.0994263 -0.00629123 0)
(0.0993257 -0.00608445 0)
(0.099234 -0.00587866 0)
(0.099151 -0.0056743 0)
(0.0990765 -0.0054718 0)
(0.0990103 -0.00527154 0)
(0.098952 -0.00507389 0)
(0.0989013 -0.00487918 0)
(0.0988579 -0.00468773 0)
(0.0988215 -0.00449981 0)
(0.0987918 -0.00431566 0)
(0.0987684 -0.00413551 0)
(0.0987509 -0.00395954 0)
(0.098739 -0.00378791 0)
(0.0987323 -0.00362076 0)
(0.0987306 -0.00345818 0)
(0.0987334 -0.00330027 0)
(0.0987404 -0.00314708 0)
(0.0987514 -0.00299866 0)
(0.0987659 -0.00285506 0)
(0.0987838 -0.00271629 0)
(0.0988047 -0.0025824 0)
(0.0988284 -0.0024534 0)
(0.0988545 -0.00232929 0)
(0.0988827 -0.00221007 0)
(0.0989129 -0.00209571 0)
(0.0989447 -0.00198612 0)
(0.0989778 -0.00188124 0)
(0.099012 -0.00178092 0)
(0.0990471 -0.00168504 0)
(0.0990829 -0.00159343 0)
(0.099119 -0.00150593 0)
(0.0991554 -0.00142238 0)
(0.0991919 -0.00134261 0)
(0.101123 -0.00809252 0)
(0.100932 -0.00791787 0)
(0.10075 -0.00773848 0)
(0.100576 -0.0075549 0)
(0.10041 -0.00736767 0)
(0.100253 -0.00717735 0)
(0.100105 -0.00698452 0)
(0.0999656 -0.00678972 0)
(0.0998349 -0.00659349 0)
(0.0997131 -0.00639634 0)
(0.0996001 -0.00619878 0)
(0.0994959 -0.00600128 0)
(0.0994002 -0.00580431 0)
(0.0993129 -0.0056083 0)
(0.0992339 -0.00541367 0)
(0.0991629 -0.00522081 0)
(0.0990997 -0.00503008 0)
(0.099044 -0.00484183 0)
(0.0989955 -0.00465636 0)
(0.098954 -0.00447396 0)
(0.0989191 -0.00429491 0)
(0.0988905 -0.00411942 0)
(0.0988678 -0.00394771 0)
(0.0988508 -0.00377995 0)
(0.0988391 -0.0036163 0)
(0.0988324 -0.00345688 0)
(0.0988303 -0.0033018 0)
(0.0988326 -0.00315113 0)
(0.0988389 -0.00300496 0)
(0.0988489 -0.00286332 0)
(0.0988624 -0.00272628 0)
(0.0988791 -0.00259388 0)
(0.0988986 -0.00246614 0)
(0.0989208 -0.00234309 0)
(0.0989453 -0.00222473 0)
(0.0989718 -0.00211105 0)
(0.099 -0.00200197 0)
(0.0990298 -0.00189744 0)
(0.0990609 -0.00179734 0)
(0.099093 -0.00170154 0)
(0.0991259 -0.0016099 0)
(0.0991593 -0.00152227 0)
(0.0991932 -0.0014385 0)
(0.0992272 -0.00135845 0)
(0.101295 -0.00788909 0)
(0.101107 -0.00772621 0)
(0.100926 -0.00755847 0)
(0.100752 -0.0073864 0)
(0.100586 -0.0072105 0)
(0.100429 -0.00703127 0)
(0.10028 -0.00684926 0)
(0.100138 -0.00666499 0)
(0.100006 -0.00647894 0)
(0.0998816 -0.00629162 0)
(0.0997658 -0.00610351 0)
(0.0996583 -0.00591506 0)
(0.0995592 -0.00572673 0)
(0.0994681 -0.00553892 0)
(0.0993851 -0.00535206 0)
(0.0993099 -0.00516652 0)
(0.0992422 -0.00498266 0)
(0.099182 -0.00480084 0)
(0.0991289 -0.00462136 0)
(0.0990826 -0.00444453 0)
(0.0990429 -0.00427061 0)
(0.0990094 -0.00409986 0)
(0.0989819 -0.00393249 0)
(0.0989601 -0.0037687 0)
(0.0989436 -0.00360865 0)
(0.0989322 -0.0034525 0)
(0.0989255 -0.00330037 0)
(0.0989232 -0.00315235 0)
(0.0989251 -0.00300854 0)
(0.0989308 -0.002869 0)
(0.0989401 -0.00273381 0)
(0.0989526 -0.00260302 0)
(0.0989682 -0.00247667 0)
(0.0989865 -0.0023548 0)
(0.0990073 -0.00223743 0)
(0.0990303 -0.00212453 0)
(0.0990552 -0.00201609 0)
(0.0990817 -0.00191202 0)
(0.0991096 -0.00181223 0)
(0.0991388 -0.00171662 0)
(0.0991688 -0.00162505 0)
(0.0991996 -0.00153739 0)
(0.0992309 -0.00145349 0)
(0.0992626 -0.00137324 0)
(0.101455 -0.00768805 0)
(0.101269 -0.00753626 0)
(0.101089 -0.00737955 0)
(0.100917 -0.00721841 0)
(0.100752 -0.00705329 0)
(0.100594 -0.00688466 0)
(0.100444 -0.00671302 0)
(0.100302 -0.00653886 0)
(0.100168 -0.00636264 0)
(0.100042 -0.00618483 0)
(0.0999235 -0.00600589 0)
(0.0998134 -0.00582625 0)
(0.0997112 -0.00564634 0)
(0.0996168 -0.00546658 0)
(0.0995303 -0.00528734 0)
(0.0994513 -0.00510902 0)
(0.0993797 -0.00493197 0)
(0.0993153 -0.00475654 0)
(0.0992579 -0.00458303 0)
(0.0992072 -0.00441177 0)
(0.0991631 -0.00424302 0)
(0.0991251 -0.00407705 0)
(0.0990931 -0.00391409 0)
(0.0990668 -0.00375434 0)
(0.0990458 -0.00359799 0)
(0.0990299 -0.00344521 0)
(0.0990188 -0.00329612 0)
(0.0990122 -0.00315086 0)
(0.0990098 -0.00300952 0)
(0.0990114 -0.0028722 0)
(0.0990167 -0.00273897 0)
(0.0990253 -0.0026099 0)
(0.099037 -0.00248506 0)
(0.0990517 -0.00236448 0)
(0.0990689 -0.0022482 0)
(0.0990884 -0.00213622 0)
(0.0991099 -0.0020285 0)
(0.0991333 -0.001925 0)
(0.0991582 -0.00182564 0)
(0.0991844 -0.00173031 0)
(0.0992117 -0.00163891 0)
(0.0992399 -0.0015513 0)
(0.0992687 -0.00146736 0)
(0.099298 -0.00138698 0)
(0.101604 -0.00748971 0)
(0.10142 -0.00734839 0)
(0.101242 -0.00720211 0)
(0.101071 -0.00705132 0)
(0.100906 -0.00689646 0)
(0.100749 -0.00673794 0)
(0.100599 -0.00657623 0)
(0.100456 -0.00641177 0)
(0.100321 -0.00624501 0)
(0.100193 -0.00607638 0)
(0.100073 -0.00590632 0)
(0.0999611 -0.00573524 0)
(0.0998564 -0.00556355 0)
(0.0997592 -0.00539164 0)
(0.0996695 -0.00521989 0)
(0.0995872 -0.00504867 0)
(0.099512 -0.00487834 0)
(0.0994439 -0.00470923 0)
(0.0993826 -0.00454168 0)
(0.099328 -0.00437597 0)
(0.0992797 -0.0042124 0)
(0.0992376 -0.00405124 0)
(0.0992014 -0.00389272 0)
(0.0991709 -0.00373707 0)
(0.0991457 -0.00358449 0)
(0.0991256 -0.00343515 0)
(0.0991103 -0.00328921 0)
(0.0990996 -0.00314679 0)
(0.0990932 -0.00300803 0)
(0.0990908 -0.00287301 0)
(0.0990921 -0.00274185 0)
(0.099097 -0.00261461 0)
(0.0991051 -0.00249138 0)
(0.0991161 -0.0023722 0)
(0.0991298 -0.00225712 0)
(0.099146 -0.00214615 0)
(0.0991643 -0.00203926 0)
(0.0991846 -0.00193644 0)
(0.0992066 -0.00183759 0)
(0.09923 -0.00174264 0)
(0.0992545 -0.00165149 0)
(0.0992801 -0.00156402 0)
(0.0993065 -0.00148012 0)
(0.0993335 -0.0013997 0)
(0.101741 -0.00729437 0)
(0.10156 -0.0071629 0)
(0.101384 -0.00702647 0)
(0.101214 -0.0068855 0)
(0.101051 -0.00674037 0)
(0.100895 -0.00659148 0)
(0.100745 -0.00643926 0)
(0.100602 -0.0062841 0)
(0.100466 -0.00612643 0)
(0.100337 -0.00596666 0)
(0.100216 -0.00580519 0)
(0.100102 -0.00564241 0)
(0.0999949 -0.0054787 0)
(0.0998953 -0.00531445 0)
(0.0998029 -0.00515003 0)
(0.0997176 -0.00498579 0)
(0.0996393 -0.00482207 0)
(0.0995679 -0.00465922 0)
(0.0995031 -0.00449755 0)
(0.0994448 -0.00433737 0)
(0.0993928 -0.00417898 0)
(0.0993469 -0.00402263 0)
(0.0993068 -0.00386859 0)
(0.0992723 -0.00371708 0)
(0.0992431 -0.00356832 0)
(0.0992191 -0.00342249 0)
(0.0991999 -0.00327976 0)
(0.0991853 -0.00314027 0)
(0.099175 -0.00300417 0)
(0.0991688 -0.00287156 0)
(0.0991665 -0.00274255 0)
(0.0991677 -0.00261724 0)
(0.0991722 -0.00249571 0)
(0.0991798 -0.00237803 0)
(0.0991901 -0.00226424 0)
(0.0992031 -0.00215437 0)
(0.0992183 -0.00204842 0)
(0.0992356 -0.00194636 0)
(0.0992546 -0.00184812 0)
(0.0992752 -0.00175364 0)
(0.0992972 -0.00166282 0)
(0.0993202 -0.00157558 0)
(0.0993442 -0.0014918 0)
(0.0993689 -0.0014114 0)
(0.101867 -0.00710227 0)
(0.101689 -0.00698007 0)
(0.101516 -0.00685294 0)
(0.101348 -0.00672125 0)
(0.101187 -0.00658537 0)
(0.101031 -0.00644564 0)
(0.100882 -0.00630247 0)
(0.100739 -0.00615622 0)
(0.100603 -0.00600728 0)
(0.100474 -0.00585603 0)
(0.100351 -0.00570285 0)
(0.100236 -0.0055481 0)
(0.100127 -0.00539215 0)
(0.100025 -0.00523536 0)
(0.0999307 -0.00507808 0)
(0.0998428 -0.00492067 0)
(0.0997618 -0.00476345 0)
(0.0996873 -0.00460676 0)
(0.0996194 -0.00445092 0)
(0.0995578 -0.00429622 0)
(0.0995023 -0.00414297 0)
(0.0994529 -0.00399144 0)
(0.0994092 -0.00384189 0)
(0.099371 -0.00369455 0)
(0.0993382 -0.00354965 0)
(0.0993104 -0.00340737 0)
(0.0992875 -0.00326791 0)
(0.0992692 -0.00313142 0)
(0.0992553 -0.00299805 0)
(0.0992455 -0.00286792 0)
(0.0992396 -0.00274116 0)
(0.0992373 -0.00261786 0)
(0.0992384 -0.00249812 0)
(0.0992427 -0.00238202 0)
(0.0992498 -0.00226962 0)
(0.0992596 -0.00216095 0)
(0.0992718 -0.00205602 0)
(0.0992861 -0.0019548 0)
(0.0993024 -0.00185726 0)
(0.0993203 -0.00176333 0)
(0.0993396 -0.00167294 0)
(0.0993602 -0.00158599 0)
(0.0993818 -0.00150241 0)
(0.0994042 -0.00142211 0)
(0.101984 -0.0069136 0)
(0.101809 -0.00680012 0)
(0.101638 -0.00668176 0)
(0.101473 -0.00655885 0)
(0.101313 -0.00643173 0)
(0.101159 -0.00630073 0)
(0.10101 -0.00616618 0)
(0.100868 -0.00602845 0)
(0.100732 -0.00588787 0)
(0.100602 -0.00574482 0)
(0.100479 -0.00559962 0)
(0.100363 -0.00545263 0)
(0.100253 -0.0053042 0)
(0.10015 -0.00515466 0)
(0.100053 -0.00500435 0)
(0.0999628 -0.00485361 0)
(0.0998793 -0.00470276 0)
(0.0998022 -0.00455213 0)
(0.0997315 -0.00440203 0)
(0.0996669 -0.00425276 0)
(0.0996083 -0.00410462 0)
(0.0995556 -0.00395788 0)
(0.0995086 -0.00381281 0)
(0.099467 -0.00366965 0)
(0.0994307 -0.00352863 0)
(0.0993995 -0.00338995 0)
(0.0993731 -0.00325381 0)
(0.0993514 -0.00312037 0)
(0.099334 -0.0029898 0)
(0.0993207 -0.00286222 0)
(0.0993114 -0.00273776 0)
(0.0993058 -0.00261655 0)
(0.0993036 -0.00249869 0)
(0.0993047 -0.00238426 0)
(0.0993087 -0.00227332 0)
(0.0993155 -0.00216593 0)
(0.0993247 -0.0020621 0)
(0.0993362 -0.00196182 0)
(0.0993497 -0.00186505 0)
(0.099365 -0.00177175 0)
(0.0993818 -0.00168185 0)
(0.0994 -0.00159528 0)
(0.0994192 -0.00151196 0)
(0.0994394 -0.00143183 0)
(0.102091 -0.00672854 0)
(0.101919 -0.00662325 0)
(0.101752 -0.00651315 0)
(0.101589 -0.00639855 0)
(0.101431 -0.00627974 0)
(0.101278 -0.00615701 0)
(0.101131 -0.00603068 0)
(0.100989 -0.00590108 0)
(0.100854 -0.00576852 0)
(0.100724 -0.00563332 0)
(0.100601 -0.00549581 0)
(0.100483 -0.00535631 0)
(0.100373 -0.00521514 0)
(0.100268 -0.00507263 0)
(0.10017 -0.0049291 0)
(0.100078 -0.00478487 0)
(0.0999922 -0.00464025 0)
(0.0999128 -0.00449556 0)
(0.0998395 -0.00435111 0)
(0.0997722 -0.0042072 0)
(0.0997108 -0.00406411 0)
(0.0996551 -0.00392214 0)
(0.0996051 -0.00378153 0)
(0.0995604 -0.00364255 0)
(0.0995209 -0.00350543 0)
(0.0994864 -0.00337037 0)
(0.0994567 -0.00323759 0)
(0.0994317 -0.00310724 0)
(0.099411 -0.00297951 0)
(0.0993945 -0.00285454 0)
(0.099382 -0.00273246 0)
(0.0993732 -0.00261341 0)
(0.0993679 -0.00249749 0)
(0.0993659 -0.00238479 0)
(0.0993669 -0.0022754 0)
(0.0993707 -0.00216937 0)
(0.0993771 -0.00206671 0)
(0.0993859 -0.00196744 0)
(0.0993967 -0.00187152 0)
(0.0994094 -0.00177893 0)
(0.0994237 -0.0016896 0)
(0.0994395 -0.00160348 0)
(0.0994565 -0.00152049 0)
(0.0994745 -0.00144059 0)
(0.10219 -0.00654721 0)
(0.102021 -0.00644963 0)
(0.101857 -0.00634732 0)
(0.101696 -0.00624056 0)
(0.101541 -0.00612961 0)
(0.10139 -0.00601474 0)
(0.101244 -0.00589623 0)
(0.101103 -0.00577438 0)
(0.100968 -0.00564948 0)
(0.100839 -0.00552181 0)
(0.100716 -0.00539169 0)
(0.100598 -0.0052594 0)
(0.100486 -0.00512526 0)
(0.100381 -0.00498956 0)
(0.100281 -0.0048526 0)
(0.100188 -0.0047147 0)
(0.1001 -0.00457616 0)
(0.100019 -0.00443729 0)
(0.0999435 -0.00429839 0)
(0.0998738 -0.00415975 0)
(0.0998098 -0.00402166 0)
(0.0997515 -0.0038844 0)
(0.0996986 -0.00374823 0)
(0.099651 -0.00361342 0)
(0.0996086 -0.00348019 0)
(0.0995711 -0.00334877 0)
(0.0995383 -0.00321936 0)
(0.0995102 -0.00309215 0)
(0.0994864 -0.0029673 0)
(0.0994668 -0.00284498 0)
(0.0994512 -0.00272534 0)
(0.0994394 -0.0026085 0)
(0.0994311 -0.00249458 0)
(0.0994261 -0.0023837 0)
(0.0994243 -0.00227592 0)
(0.0994253 -0.00217131 0)
(0.0994289 -0.0020699 0)
(0.099435 -0.00197171 0)
(0.0994432 -0.00187672 0)
(0.0994534 -0.0017849 0)
(0.0994653 -0.0016962 0)
(0.0994788 -0.00161059 0)
(0.0994936 -0.001528 0)
(0.0995094 -0.0014484 0)
(0.10228 -0.00636973 0)
(0.102115 -0.00627939 0)
(0.101953 -0.00618441 0)
(0.101796 -0.00608505 0)
(0.101643 -0.00598154 0)
(0.101494 -0.00587412 0)
(0.10135 -0.00576305 0)
(0.10121 -0.00564859 0)
(0.101076 -0.005531 0)
(0.100948 -0.00541055 0)
(0.100824 -0.00528752 0)
(0.100707 -0.00516217 0)
(0.100595 -0.00503479 0)
(0.100488 -0.00490567 0)
(0.100388 -0.00477509 0)
(0.100293 -0.00464335 0)
(0.100204 -0.00451073 0)
(0.100121 -0.00437754 0)
(0.100043 -0.00424407 0)
(0.0999717 -0.00411061 0)
(0.0999055 -0.00397744 0)
(0.0998447 -0.00384484 0)
(0.0997892 -0.00371308 0)
(0.099739 -0.00358241 0)
(0.0996938 -0.00345307 0)
(0.0996535 -0.00332528 0)
(0.0996179 -0.00319926 0)
(0.0995868 -0.0030752 0)
(0.0995602 -0.00295328 0)
(0.0995377 -0.00283365 0)
(0.0995191 -0.00271649 0)
(0.0995044 -0.00260191 0)
(0.0994932 -0.00249006 0)
(0.0994854 -0.00238103 0)
(0.0994808 -0.00227493 0)
(0.0994791 -0.0021718 0)
(0.0994801 -0.00207171 0)
(0.0994835 -0.00197466 0)
(0.0994893 -0.00188066 0)
(0.099497 -0.00178968 0)
(0.0995066 -0.00170169 0)
(0.0995178 -0.00161665 0)
(0.0995303 -0.00153452 0)
(0.0995441 -0.00145527 0)
(0.102362 -0.00619619 0)
(0.102201 -0.00611265 0)
(0.102043 -0.00602457 0)
(0.101888 -0.00593219 0)
(0.101737 -0.00583572 0)
(0.101591 -0.00573537 0)
(0.101448 -0.00563136 0)
(0.101311 -0.00552393 0)
(0.101178 -0.00541332 0)
(0.10105 -0.00529976 0)
(0.100927 -0.00518352 0)
(0.10081 -0.00506484 0)
(0.100697 -0.00494398 0)
(0.100591 -0.0048212 0)
(0.100489 -0.00469679 0)
(0.100394 -0.00457102 0)
(0.100303 -0.00444416 0)
(0.100219 -0.00431651 0)
(0.10014 -0.00418836 0)
(0.100066 -0.00405997 0)
(0.0999977 -0.00393164 0)
(0.0999348 -0.00380364 0)
(0.099877 -0.00367623 0)
(0.0998243 -0.00354967 0)
(0.0997766 -0.0034242 0)
(0.0997337 -0.00330004 0)
(0.0996954 -0.00317742 0)
(0.0996617 -0.00305652 0)
(0.0996322 -0.00293754 0)
(0.099607 -0.00282064 0)
(0.0995857 -0.00270599 0)
(0.0995682 -0.00259372 0)
(0.0995543 -0.00248397 0)
(0.0995438 -0.00237686 0)
(0.0995365 -0.00227249 0)
(0.0995321 -0.00217091 0)
(0.0995305 -0.00207219 0)
(0.0995315 -0.00197635 0)
(0.0995348 -0.0018834 0)
(0.0995402 -0.00179332 0)
(0.0995475 -0.00170609 0)
(0.0995564 -0.00162168 0)
(0.0995669 -0.00154007 0)
(0.0995786 -0.00146123 0)
(0.102437 -0.00602665 0)
(0.10228 -0.00594949 0)
(0.102125 -0.00586791 0)
(0.101973 -0.00578212 0)
(0.101825 -0.0056923 0)
(0.101681 -0.00559863 0)
(0.101541 -0.00550132 0)
(0.101405 -0.00540058 0)
(0.101273 -0.00529661 0)
(0.101146 -0.00518965 0)
(0.101024 -0.0050799 0)
(0.100907 -0.00496761 0)
(0.100795 -0.00485302 0)
(0.100688 -0.00473636 0)
(0.100586 -0.00461791 0)
(0.10049 -0.00449792 0)
(0.100399 -0.00437666 0)
(0.100313 -0.0042544 0)
(0.100232 -0.00413143 0)
(0.100157 -0.00400801 0)
(0.100087 -0.00388443 0)
(0.100022 -0.00376095 0)
(0.099962 -0.00363784 0)
(0.099907 -0.00351534 0)
(0.099857 -0.00339371 0)
(0.0998117 -0.00327317 0)
(0.0997709 -0.00315393 0)
(0.0997346 -0.00303621 0)
(0.0997026 -0.00292019 0)
(0.0996748 -0.00280604 0)
(0.0996508 -0.00269392 0)
(0.0996307 -0.002584 0)
(0.0996142 -0.00247641 0)
(0.0996011 -0.00237126 0)
(0.0995913 -0.00226865 0)
(0.0995844 -0.00216868 0)
(0.0995803 -0.00207138 0)
(0.0995789 -0.00197681 0)
(0.0995798 -0.00188495 0)
(0.0995829 -0.00179583 0)
(0.0995879 -0.00170942 0)
(0.0995947 -0.0016257 0)
(0.0996031 -0.00154466 0)
(0.0996127 -0.00146628 0)
(0.102506 -0.00586115 0)
(0.102352 -0.00578999 0)
(0.1022 -0.00571452 0)
(0.102052 -0.00563494 0)
(0.101907 -0.00555139 0)
(0.101765 -0.00546405 0)
(0.101627 -0.0053731 0)
(0.101493 -0.00527871 0)
(0.101363 -0.00518107 0)
(0.101237 -0.00508039 0)
(0.101116 -0.00497686 0)
(0.100999 -0.00487069 0)
(0.100887 -0.00476211 0)
(0.10078 -0.00465134 0)
(0.100678 -0.00453863 0)
(0.100581 -0.00442423 0)
(0.10049 -0.00430839 0)
(0.100403 -0.00419138 0)
(0.100321 -0.00407346 0)
(0.100244 -0.0039549 0)
(0.100173 -0.00383597 0)
(0.100106 -0.00371693 0)
(0.100044 -0.00359804 0)
(0.0999872 -0.00347957 0)
(0.099935 -0.00336174 0)
(0.0998875 -0.00324479 0)
(0.0998444 -0.00312893 0)
(0.0998057 -0.00301438 0)
(0.0997713 -0.00290132 0)
(0.099741 -0.00278993 0)
(0.0997146 -0.00268038 0)
(0.099692 -0.00257283 0)
(0.099673 -0.00246742 0)
(0.0996575 -0.00236427 0)
(0.0996452 -0.00226349 0)
(0.0996359 -0.00216515 0)
(0.0996294 -0.00206933 0)
(0.0996256 -0.00197607 0)
(0.0996243 -0.00188537 0)
(0.0996251 -0.00179726 0)
(0.099628 -0.00171171 0)
(0.0996326 -0.00162874 0)
(0.0996389 -0.00154832 0)
(0.0996466 -0.00147045 0)
(0.102568 -0.00569973 0)
(0.102418 -0.00563419 0)
(0.10227 -0.00556447 0)
(0.102124 -0.00549074 0)
(0.101982 -0.00541312 0)
(0.101843 -0.00533177 0)
(0.101707 -0.00524683 0)
(0.101575 -0.00515846 0)
(0.101447 -0.00506684 0)
(0.101322 -0.00497214 0)
(0.101202 -0.00487454 0)
(0.101086 -0.00477423 0)
(0.100975 -0.00467142 0)
(0.100868 -0.00456631 0)
(0.100766 -0.00445914 0)
(0.100669 -0.00435013 0)
(0.100577 -0.00423954 0)
(0.100489 -0.00412761 0)
(0.100406 -0.00401461 0)
(0.100328 -0.00390078 0)
(0.100255 -0.0037864 0)
(0.100187 -0.00367172 0)
(0.100124 -0.00355699 0)
(0.100065 -0.00344247 0)
(0.100011 -0.0033284 0)
(0.0999611 -0.00321501 0)
(0.0999159 -0.00310251 0)
(0.0998751 -0.00299112 0)
(0.0998384 -0.00288102 0)
(0.0998058 -0.00277241 0)
(0.099777 -0.00266544 0)
(0.0997521 -0.00256028 0)
(0.0997307 -0.00245708 0)
(0.0997128 -0.00235596 0)
(0.0996981 -0.00225704 0)
(0.0996865 -0.00216039 0)
(0.0996778 -0.00206609 0)
(0.0996717 -0.00197418 0)
(0.0996681 -0.00188468 0)
(0.0996668 -0.00179762 0)
(0.0996675 -0.001713 0)
(0.0996701 -0.00163081 0)
(0.0996744 -0.00155106 0)
(0.0996802 -0.00147376 0)
(0.102624 -0.00554237 0)
(0.102478 -0.00548212 0)
(0.102333 -0.00541781 0)
(0.102191 -0.00534959 0)
(0.102052 -0.00527756 0)
(0.101915 -0.00520186 0)
(0.101782 -0.00512261 0)
(0.101652 -0.00503997 0)
(0.101525 -0.00495406 0)
(0.101402 -0.00486506 0)
(0.101284 -0.00477311 0)
(0.101169 -0.0046784 0)
(0.101058 -0.0045811 0)
(0.100952 -0.00448143 0)
(0.10085 -0.00437958 0)
(0.100753 -0.00427578 0)
(0.10066 -0.00417026 0)
(0.100571 -0.00406326 0)
(0.100488 -0.00395503 0)
(0.100409 -0.00384581 0)
(0.100335 -0.00373587 0)
(0.100265 -0.00362545 0)
(0.1002 -0.00351481 0)
(0.10014 -0.00340419 0)
(0.100084 -0.00329383 0)
(0.100033 -0.00318395 0)
(0.0999854 -0.00307479 0)
(0.0999425 -0.00296654 0)
(0.0999038 -0.0028594 0)
(0.099869 -0.00275355 0)
(0.0998381 -0.00264918 0)
(0.0998109 -0.00254643 0)
(0.0997873 -0.00244546 0)
(0.0997671 -0.0023464 0)
(0.0997502 -0.00224936 0)
(0.0997364 -0.00215443 0)
(0.0997254 -0.00206168 0)
(0.0997171 -0.00197117 0)
(0.0997114 -0.00188292 0)
(0.099708 -0.00179696 0)
(0.0997066 -0.0017133 0)
(0.0997072 -0.00163194 0)
(0.0997095 -0.00155291 0)
(0.0997134 -0.00147621 0)
(0.102675 -0.00538909 0)
(0.102532 -0.0053338 0)
(0.102391 -0.00527458 0)
(0.102253 -0.00521154 0)
(0.102116 -0.00514478 0)
(0.101982 -0.00507442 0)
(0.101852 -0.00500056 0)
(0.101724 -0.00492332 0)
(0.101599 -0.00484284 0)
(0.101478 -0.00475925 0)
(0.10136 -0.00467269 0)
(0.101247 -0.00458332 0)
(0.101137 -0.00449131 0)
(0.101031 -0.00439684 0)
(0.10093 -0.0043001 0)
(0.100832 -0.00420132 0)
(0.100739 -0.00410069 0)
(0.100651 -0.00399846 0)
(0.100566 -0.00389486 0)
(0.100487 -0.00379012 0)
(0.100411 -0.00368451 0)
(0.100341 -0.00357826 0)
(0.100274 -0.00347161 0)
(0.100213 -0.00336482 0)
(0.100155 -0.00325811 0)
(0.100102 -0.00315172 0)
(0.100053 -0.00304585 0)
(0.100008 -0.00294072 0)
(0.0999675 -0.00283652 0)
(0.0999307 -0.00273345 0)
(0.0998977 -0.00263166 0)
(0.0998684 -0.00253134 0)
(0.0998427 -0.00243261 0)
(0.0998204 -0.00233563 0)
(0.0998013 -0.0022405 0)
(0.0997853 -0.00214732 0)
(0.0997722 -0.00205616 0)
(0.0997619 -0.00196708 0)
(0.0997541 -0.00188012 0)
(0.0997486 -0.00179529 0)
(0.0997452 -0.00171263 0)
(0.0997438 -0.00163216 0)
(0.0997442 -0.00155388 0)
(0.0997462 -0.00147783 0)
(0.102721 -0.00523985 0)
(0.102582 -0.00518922 0)
(0.102445 -0.00513478 0)
(0.102309 -0.00507661 0)
(0.102176 -0.00501483 0)
(0.102045 -0.0049495 0)
(0.101916 -0.00488072 0)
(0.101791 -0.00480861 0)
(0.101668 -0.00473327 0)
(0.101549 -0.00465482 0)
(0.101433 -0.00457338 0)
(0.10132 -0.00448911 0)
(0.101211 -0.00440214 0)
(0.101106 -0.00431266 0)
(0.101005 -0.00422084 0)
(0.100908 -0.00412687 0)
(0.100815 -0.00403096 0)
(0.100726 -0.00393334 0)
(0.100642 -0.00383422 0)
(0.100561 -0.00373384 0)
(0.100485 -0.00363244 0)
(0.100414 -0.00353026 0)
(0.100346 -0.00342753 0)
(0.100283 -0.00332449 0)
(0.100224 -0.00322137 0)
(0.100169 -0.0031184 0)
(0.100119 -0.0030158 0)
(0.100072 -0.00291376 0)
(0.10003 -0.00281249 0)
(0.0999909 -0.00271217 0)
(0.0999559 -0.00261297 0)
(0.0999247 -0.00251507 0)
(0.0998969 -0.00241861 0)
(0.0998726 -0.00232372 0)
(0.0998515 -0.00223052 0)
(0.0998334 -0.00213911 0)
(0.0998183 -0.00204957 0)
(0.0998059 -0.00196195 0)
(0.0997961 -0.0018763 0)
(0.0997886 -0.00179265 0)
(0.0997833 -0.00171104 0)
(0.09978 -0.00163147 0)
(0.0997785 -0.00155399 0)
(0.0997787 -0.00147863 0)
(0.111852 -0.010207 0)
(0.111308 -0.0104763 0)
(0.11076 -0.0107106 0)
(0.110211 -0.0109104 0)
(0.109663 -0.0110763 0)
(0.109118 -0.0112093 0)
(0.108578 -0.0113103 0)
(0.108045 -0.0113805 0)
(0.107522 -0.0114212 0)
(0.107009 -0.011434 0)
(0.106508 -0.0114203 0)
(0.106021 -0.0113818 0)
(0.105548 -0.0113201 0)
(0.105091 -0.011237 0)
(0.104649 -0.0111341 0)
(0.104225 -0.0110131 0)
(0.103818 -0.0108757 0)
(0.103429 -0.0107234 0)
(0.103059 -0.010558 0)
(0.102706 -0.0103808 0)
(0.102371 -0.0101934 0)
(0.102055 -0.00999719 0)
(0.101756 -0.00979355 0)
(0.101475 -0.00958379 0)
(0.101211 -0.00936915 0)
(0.100963 -0.0091508 0)
(0.100732 -0.00892983 0)
(0.111591 -0.00968264 0)
(0.111079 -0.00994689 0)
(0.110563 -0.0101784 0)
(0.110046 -0.0103777 0)
(0.109529 -0.0105454 0)
(0.109014 -0.0106821 0)
(0.108503 -0.0107888 0)
(0.107998 -0.0108665 0)
(0.107502 -0.0109164 0)
(0.107014 -0.0109398 0)
(0.106537 -0.010938 0)
(0.106072 -0.0109127 0)
(0.105621 -0.0108652 0)
(0.105183 -0.0107972 0)
(0.104759 -0.0107101 0)
(0.104352 -0.0106055 0)
(0.10396 -0.0104849 0)
(0.103584 -0.0103498 0)
(0.103225 -0.0102017 0)
(0.102883 -0.0100419 0)
(0.102557 -0.0098719 0)
(0.102248 -0.00969295 0)
(0.101956 -0.00950635 0)
(0.101679 -0.00931334 0)
(0.101419 -0.00911509 0)
(0.101175 -0.00891271 0)
(0.100946 -0.00870726 0)
(0.111328 -0.00919011 0)
(0.110847 -0.00944899 0)
(0.110362 -0.00967736 0)
(0.109874 -0.00987558 0)
(0.109386 -0.0100442 0)
(0.1089 -0.0101838 0)
(0.108417 -0.0102951 0)
(0.107939 -0.0103792 0)
(0.107468 -0.010437 0)
(0.107005 -0.0104697 0)
(0.106551 -0.0104786 0)
(0.106108 -0.010465 0)
(0.105676 -0.0104303 0)
(0.105257 -0.0103758 0)
(0.104852 -0.0103031 0)
(0.10446 -0.0102134 0)
(0.104083 -0.0101081 0)
(0.10372 -0.00998874 0)
(0.103373 -0.00985652 0)
(0.103041 -0.00971278 0)
(0.102725 -0.00955881 0)
(0.102424 -0.00939584 0)
(0.102138 -0.00922507 0)
(0.101867 -0.00904767 0)
(0.101612 -0.00886474 0)
(0.101371 -0.00867735 0)
(0.101144 -0.00848649 0)
(0.111068 -0.00872739 0)
(0.110616 -0.00898068 0)
(0.110159 -0.0092055 0)
(0.109699 -0.00940214 0)
(0.109239 -0.00957105 0)
(0.10878 -0.00971274 0)
(0.108323 -0.00982789 0)
(0.10787 -0.00991732 0)
(0.107423 -0.00998197 0)
(0.106983 -0.0100229 0)
(0.106552 -0.0100412 0)
(0.106129 -0.010038 0)
(0.105718 -0.0100147 0)
(0.105317 -0.00997252 0)
(0.104928 -0.00991268 0)
(0.104552 -0.00983649 0)
(0.104189 -0.00974523 0)
(0.10384 -0.00964016 0)
(0.103505 -0.00952251 0)
(0.103183 -0.0093935 0)
(0.102876 -0.00925432 0)
(0.102583 -0.00910612 0)
(0.102304 -0.00895004 0)
(0.102039 -0.00878716 0)
(0.101789 -0.00861854 0)
(0.101551 -0.00844519 0)
(0.101328 -0.00826805 0)
(0.110811 -0.00829252 0)
(0.110386 -0.00854009 0)
(0.109956 -0.00876107 0)
(0.109522 -0.00895572 0)
(0.109088 -0.00912438 0)
(0.108654 -0.00926751 0)
(0.108222 -0.00938568 0)
(0.107793 -0.00947962 0)
(0.107369 -0.00955014 0)
(0.106952 -0.00959819 0)
(0.106541 -0.00962476 0)
(0.106139 -0.00963094 0)
(0.105746 -0.00961785 0)
(0.105363 -0.00958663 0)
(0.104991 -0.00953846 0)
(0.10463 -0.00947451 0)
(0.104281 -0.00939595 0)
(0.103945 -0.00930394 0)
(0.103621 -0.00919961 0)
(0.10331 -0.00908411 0)
(0.103012 -0.00895854 0)
(0.102727 -0.00882399 0)
(0.102456 -0.0086815 0)
(0.102197 -0.00853213 0)
(0.101951 -0.00837685 0)
(0.101718 -0.00821663 0)
(0.101498 -0.00805236 0)
(0.110559 -0.00788368 0)
(0.110159 -0.00812542 0)
(0.109754 -0.00834235 0)
(0.109345 -0.00853465 0)
(0.108935 -0.00870261 0)
(0.108525 -0.00884661 0)
(0.108116 -0.00896713 0)
(0.10771 -0.00906481 0)
(0.107308 -0.00914036 0)
(0.106912 -0.00919461 0)
(0.106521 -0.00922847 0)
(0.106138 -0.0092429 0)
(0.105763 -0.00923891 0)
(0.105397 -0.00921756 0)
(0.105041 -0.0091799 0)
(0.104695 -0.00912701 0)
(0.10436 -0.00905996 0)
(0.104036 -0.00897983 0)
(0.103724 -0.00888768 0)
(0.103423 -0.00878456 0)
(0.103135 -0.0086715 0)
(0.102858 -0.00854952 0)
(0.102593 -0.00841963 0)
(0.102341 -0.00828279 0)
(0.1021 -0.00813994 0)
(0.101872 -0.00799198 0)
(0.101655 -0.00783978 0)
(0.110312 -0.00749911 0)
(0.109936 -0.00773499 0)
(0.109554 -0.0079477 0)
(0.109169 -0.00813738 0)
(0.108782 -0.00830426 0)
(0.108394 -0.00844862 0)
(0.108007 -0.00857091 0)
(0.107623 -0.00867164 0)
(0.107241 -0.00875145 0)
(0.106865 -0.00881107 0)
(0.106493 -0.00885132 0)
(0.106128 -0.00887304 0)
(0.105771 -0.00887716 0)
(0.105421 -0.00886463 0)
(0.105081 -0.00883642 0)
(0.104749 -0.00879351 0)
(0.104427 -0.0087369 0)
(0.104115 -0.00866757 0)
(0.103814 -0.00858652 0)
(0.103524 -0.00849473 0)
(0.103244 -0.00839316 0)
(0.102975 -0.00828277 0)
(0.102718 -0.00816451 0)
(0.102472 -0.00803929 0)
(0.102237 -0.00790801 0)
(0.102013 -0.00777151 0)
(0.101801 -0.00763061 0)
(0.110072 -0.00713721 0)
(0.109717 -0.00736721 0)
(0.109357 -0.00757559 0)
(0.108994 -0.00776242 0)
(0.108628 -0.00792788 0)
(0.108262 -0.0080722 0)
(0.107896 -0.00819572 0)
(0.107531 -0.0082989 0)
(0.10717 -0.0083823 0)
(0.106812 -0.00844655 0)
(0.106459 -0.00849236 0)
(0.106111 -0.00852052 0)
(0.10577 -0.00853184 0)
(0.105436 -0.00852719 0)
(0.10511 -0.00850745 0)
(0.104792 -0.00847354 0)
(0.104483 -0.00842636 0)
(0.104183 -0.00836684 0)
(0.103893 -0.0082959 0)
(0.103612 -0.00821447 0)
(0.103341 -0.00812344 0)
(0.103081 -0.00802372 0)
(0.102831 -0.00791621 0)
(0.102591 -0.00780176 0)
(0.102362 -0.00768122 0)
(0.102143 -0.00755541 0)
(0.101934 -0.0074251 0)
(0.109838 -0.00679646 0)
(0.109504 -0.00702061 0)
(0.109165 -0.00722457 0)
(0.108822 -0.00740837 0)
(0.108476 -0.00757213 0)
(0.108129 -0.00771603 0)
(0.107783 -0.00784034 0)
(0.107437 -0.00794545 0)
(0.107094 -0.00803182 0)
(0.106754 -0.00810002 0)
(0.106418 -0.00815068 0)
(0.106087 -0.00818448 0)
(0.105762 -0.00820218 0)
(0.105442 -0.00820455 0)
(0.10513 -0.0081924 0)
(0.104826 -0.00816658 0)
(0.104529 -0.00812793 0)
(0.10424 -0.0080773 0)
(0.103961 -0.00801557 0)
(0.10369 -0.00794359 0)
(0.103428 -0.00786222 0)
(0.103176 -0.00777232 0)
(0.102933 -0.00767472 0)
(0.102699 -0.00757025 0)
(0.102476 -0.00745971 0)
(0.102262 -0.00734386 0)
(0.102057 -0.00722345 0)
(0.109611 -0.00647544 0)
(0.109296 -0.00669379 0)
(0.108976 -0.00689329 0)
(0.108652 -0.00707391 0)
(0.108325 -0.00723574 0)
(0.107997 -0.0073789 0)
(0.107669 -0.0075036 0)
(0.107341 -0.00761015 0)
(0.107015 -0.00769896 0)
(0.106692 -0.00777051 0)
(0.106372 -0.00782534 0)
(0.106057 -0.00786409 0)
(0.105746 -0.00788741 0)
(0.105442 -0.00789602 0)
(0.105143 -0.00789067 0)
(0.104851 -0.00787211 0)
(0.104566 -0.00784115 0)
(0.104288 -0.00779858 0)
(0.104019 -0.00774522 0)
(0.103757 -0.00768187 0)
(0.103504 -0.00760936 0)
(0.10326 -0.00752848 0)
(0.103024 -0.00744003 0)
(0.102797 -0.0073448 0)
(0.102579 -0.00724354 0)
(0.10237 -0.00713698 0)
(0.10217 -0.00702582 0)
(0.109391 -0.00617286 0)
(0.109094 -0.00638547 0)
(0.108792 -0.00658047 0)
(0.108485 -0.0067578 0)
(0.108177 -0.0069175 0)
(0.107866 -0.00705964 0)
(0.107555 -0.00718437 0)
(0.107244 -0.00729195 0)
(0.106934 -0.00738271 0)
(0.106627 -0.00745706 0)
(0.106323 -0.00751549 0)
(0.106022 -0.00755854 0)
(0.105726 -0.00758681 0)
(0.105434 -0.00760095 0)
(0.105148 -0.00760165 0)
(0.104868 -0.00758962 0)
(0.104595 -0.00756559 0)
(0.104328 -0.00753031 0)
(0.104068 -0.00748455 0)
(0.103816 -0.00742909 0)
(0.103571 -0.00736468 0)
(0.103335 -0.0072921 0)
(0.103106 -0.00721209 0)
(0.102885 -0.00712541 0)
(0.102673 -0.00703277 0)
(0.102469 -0.00693487 0)
(0.102274 -0.00683236 0)
(0.109178 -0.0058875 0)
(0.108897 -0.00609444 0)
(0.108612 -0.00628493 0)
(0.108322 -0.00645888 0)
(0.10803 -0.00661628 0)
(0.107736 -0.00675716 0)
(0.107441 -0.00688161 0)
(0.107146 -0.00698984 0)
(0.106852 -0.00708211 0)
(0.106559 -0.00715878 0)
(0.10627 -0.00722025 0)
(0.105983 -0.00726703 0)
(0.1057 -0.00729964 0)
(0.105421 -0.00731868 0)
(0.105147 -0.00732477 0)
(0.104879 -0.00731857 0)
(0.104616 -0.00730078 0)
(0.10436 -0.0072721 0)