/*--------------------------------*- C++ -*----------------------------------*\
| =========                 |                                                 |
| \\      /  F ield         | OpenFOAM: The Open Source CFD Toolbox           |
|  \\    /   O peration     | Version:  2412                                  |
|   \\  /    A nd           | Website:  www.openfoam.com                      |
|    \\/     M anipulation  |                                                 |
\*---------------------------------------------------------------------------*/
FoamFile
{
    version     2.0;
    format      ascii;
    arch        "LSB;label=32;scalar=64";
    class       surfaceScalarField;
    location    "27.5";
    object      phi;
}
// * * * * * * * * * * * * * * * * * * * * * * * * * * * * * * * * * * * * * //

dimensions      [0 3 -1 0 0 0 0];

oriented        oriented;

internalField   nonuniform List<scalar> 
10424
(
0.00494927
-6.40395e-06
6.73705e-09
0.00495534
-6.08036e-06
5.89207e-09
0.00496112
-5.78317e-06
5.06241e-09
0.00496662
-5.50674e-06
4.2532e-09
0.00497186
-5.24633e-06
3.48176e-09
0.00497686
-4.99833e-06
2.75387e-09
0.00498162
-4.76021e-06
2.07619e-09
0.00498615
-4.53041e-06
1.45366e-09
0.00499045
-4.30811e-06
8.86499e-10
0.00499455
-4.09294e-06
3.72416e-10
0.00499843
-3.88484e-06
-9.19597e-11
0.00500212
-3.68383e-06
-5.14533e-10
0.00500561
-3.48996e-06
-9.04786e-10
0.00500891
-3.30324e-06
-1.27181e-09
0.00501204
-3.12363e-06
-1.62793e-09
0.00501499
-2.95107e-06
-1.98375e-09
0.00501778
-2.78541e-06
-2.34472e-09
0.00502041
-2.62651e-06
-2.71755e-09
0.00502288
-2.4742e-06
-3.09958e-09
0.00502522
-2.32831e-06
-3.48093e-09
0.00502741
-2.18868e-06
-3.85139e-09
0.00502947
-2.05512e-06
-4.19493e-09
0.0050314
-1.92746e-06
-4.50266e-09
0.00503321
-1.80553e-06
-4.77377e-09
0.0050349
-1.68914e-06
-5.01063e-09
0.00503649
-1.57813e-06
-5.22085e-09
0.00503797
-1.47234e-06
-5.40156e-09
0.00503934
-1.37163e-06
-5.541e-09
0.00504062
-1.27587e-06
-5.62008e-09
0.00504181
-1.18492e-06
-5.62868e-09
0.00504292
-1.09864e-06
-5.5874e-09
0.00504394
-1.01683e-06
-5.53843e-09
0.00504489
-9.39329e-07
-5.53625e-09
0.00504576
-8.65974e-07
-5.60719e-09
0.00504656
-7.96663e-07
-5.72992e-09
0.0050473
-7.31343e-07
-5.84017e-09
0.00504797
-6.69959e-07
-5.86154e-09
0.00504859
-6.1247e-07
-5.74746e-09
0.00504916
-5.58733e-07
-5.49793e-09
0.00504967
-5.08642e-07
-5.16806e-09
0.00505014
-4.61941e-07
-4.82462e-09
0.00505056
-4.18587e-07
-4.54629e-09
0.00505094
-3.78233e-07
-4.36279e-09
0.00505129
-3.41152e-07
-4.25589e-09
0.0050516
-3.06771e-07
-4.17102e-09
0.00505188
-2.75881e-07
-4.06113e-09
0.00505213
-2.47184e-07
-3.92994e-09
0.00505236
-2.22413e-07
-3.81111e-09
0.00505256
-1.98836e-07
-3.76949e-09
0.00505274
-1.80196e-07
-3.77785e-09
0.00505291
-1.61262e-07
-3.83943e-09
0.00505306
-1.49258e-07
-3.88199e-09
0.0050532
-1.34711e-07
-3.8737e-09
0.00505333
-1.30333e-07
-3.70166e-09
0.00505346
-1.20114e-07
-3.47441e-09
0.00505358
-1.24289e-07
-3.14954e-09
0.00505371
-1.18703e-07
-2.84871e-09
0.00505384
-1.32393e-07
-2.3908e-09
0.00505398
-1.33392e-07
-2.02461e-09
0.00505413
-1.56924e-07
-1.56663e-09
0.0050543
-1.68918e-07
-1.05092e-09
0.00505451
-2.02498e-07
-5.20306e-10
0.00505474
-2.30466e-07
-2.3812e-10
0.00505502
-2.77882e-07
4.78201e-11
0.00505534
-3.26548e-07
5.67559e-10
0.00505572
-3.82855e-07
3.02402e-10
0.00505623
-5.0265e-07
7.83041e-10
0.00505671
-4.88107e-07
7.55952e-10
0.00505745
-7.37212e-07
1.52571e-09
0.00505822
-7.78378e-07
2.306e-09
-9.24283e-07
3.19018e-09
0.00494932
-1.27989e-05
0.0049554
-1.21526e-05
0.00496117
-1.1559e-05
0.00496667
-1.10067e-05
0.00497191
-1.04865e-05
0.00497691
-9.99109e-06
0.00498166
-9.51544e-06
0.00498619
-9.05645e-06
0.00499049
-8.61244e-06
0.00499458
-8.18271e-06
0.00499846
-7.76709e-06
0.00500214
-7.36564e-06
0.00500563
-6.97844e-06
0.00500894
-6.60553e-06
0.00501206
-6.24685e-06
0.00501501
-5.90222e-06
0.0050178
-5.57141e-06
0.00502042
-5.25412e-06
0.0050229
-4.95001e-06
0.00502523
-4.65875e-06
0.00502742
-4.37995e-06
0.00502948
-4.11328e-06
0.00503141
-3.85837e-06
0.00503322
-3.61486e-06
0.00503491
-3.38241e-06
0.0050365
-3.16068e-06
0.00503797
-2.94935e-06
0.00503935
-2.74813e-06
0.00504063
-2.55674e-06
0.00504182
-2.37491e-06
0.00504292
-2.20234e-06
0.00504395
-2.03873e-06
0.00504489
-1.88376e-06
0.00504576
-1.73717e-06
0.00504656
-1.5987e-06
0.0050473
-1.4682e-06
0.00504798
-1.3455e-06
0.00504859
-1.23043e-06
0.00504916
-1.12273e-06
0.00504967
-1.02224e-06
0.00505014
-9.28515e-07
0.00505056
-8.41546e-07
0.00505094
-7.60678e-07
0.00505129
-6.86422e-07
0.0050516
-6.1759e-07
0.00505188
-5.55721e-07
0.00505213
-4.98197e-07
0.00505236
-4.48551e-07
0.00505256
-4.01359e-07
0.00505274
-3.64103e-07
0.00505291
-3.26298e-07
0.00505306
-3.02355e-07
0.0050532
-2.73244e-07
0.00505333
-2.64322e-07
0.00505346
-2.4365e-07
0.00505358
-2.51695e-07
0.00505371
-2.40215e-07
0.00505384
-2.67148e-07
0.00505398
-2.68771e-07
0.00505413
-3.15379e-07
0.0050543
-3.38862e-07
0.00505451
-4.05425e-07
0.00505474
-4.61261e-07
0.00505502
-5.55379e-07
0.00505534
-6.52948e-07
0.00505572
-7.64869e-07
0.00505623
-1.0045e-06
0.00505671
-9.76363e-07
0.00505745
-1.47156e-06
0.00505822
-1.55468e-06
-1.84628e-06
0.00494944
-1.91891e-05
0.00495551
-1.82202e-05
0.00496128
-1.733e-05
0.00496677
-1.65017e-05
0.00497201
-1.57213e-05
0.004977
-1.49782e-05
0.00498175
-1.42648e-05
0.00498627
-1.35766e-05
0.00499056
-1.2911e-05
0.00499465
-1.22669e-05
0.00499852
-1.1644e-05
0.0050022
-1.10424e-05
0.00500569
-1.04622e-05
0.00500898
-9.9034e-06
0.0050121
-9.36595e-06
0.00501505
-8.84957e-06
0.00501783
-8.35391e-06
0.00502046
-7.87851e-06
0.00502293
-7.42287e-06
0.00502526
-6.98646e-06
0.00502745
-6.56873e-06
0.0050295
-6.16915e-06
0.00503143
-5.78718e-06
0.00503324
-5.42227e-06
0.00503493
-5.07392e-06
0.00503651
-4.74161e-06
0.00503799
-4.42488e-06
0.00503936
-4.12328e-06
0.00504064
-3.83638e-06
0.00504183
-3.56377e-06
0.00504293
-3.30502e-06
0.00504395
-3.05969e-06
0.0050449
-2.82734e-06
0.00504577
-2.60758e-06
0.00504657
-2.40003e-06
0.0050473
-2.20442e-06
0.00504798
-2.02045e-06
0.0050486
-1.84786e-06
0.00504916
-1.68625e-06
0.00504967
-1.53541e-06
0.00505014
-1.3947e-06
0.00505056
-1.26416e-06
0.00505094
-1.14281e-06
0.00505129
-1.03141e-06
0.0050516
-9.28161e-07
0.00505188
-8.35334e-07
0.00505213
-7.49016e-07
0.00505236
-6.74515e-07
0.00505256
-6.03731e-07
0.00505274
-5.47873e-07
0.00505291
-4.91214e-07
0.00505306
-4.55337e-07
0.0050532
-4.11679e-07
0.00505333
-3.98231e-07
0.00505346
-3.67107e-07
0.00505358
-3.79031e-07
0.00505371
-3.61643e-07
0.00505384
-4.01845e-07
0.00505398
-4.04064e-07
0.00505413
-4.73771e-07
0.0050543
-5.08745e-07
0.00505451
-6.0818e-07
0.00505474
-6.9222e-07
0.00505501
-8.32224e-07
0.00505534
-9.80159e-07
0.00505572
-1.14581e-06
0.00505622
-1.50633e-06
0.00505671
-1.46637e-06
0.00505745
-2.2033e-06
0.00505822
-2.33143e-06
-2.77007e-06
0.00494962
-2.55717e-05
0.00495568
-2.42807e-05
0.00496144
-2.30936e-05
0.00496693
-2.19887e-05
0.00497215
-2.09477e-05
0.00497713
-1.99566e-05
0.00498187
-1.90054e-05
0.00498638
-1.80879e-05
0.00499067
-1.72008e-05
0.00499475
-1.63426e-05
0.00499862
-1.55128e-05
0.00500229
-1.47115e-05
0.00500576
-1.39388e-05
0.00500906
-1.31946e-05
0.00501217
-1.24789e-05
0.00501511
-1.17912e-05
0.00501789
-1.11312e-05
0.00502051
-1.04981e-05
0.00502297
-9.89128e-06
0.0050253
-9.31009e-06
0.00502748
-8.75377e-06
0.00502954
-8.22159e-06
0.00503146
-7.71284e-06
0.00503327
-7.2268e-06
0.00503496
-6.76278e-06
0.00503653
-6.32012e-06
0.00503801
-5.8982e-06
0.00503938
-5.4964e-06
0.00504066
-5.11416e-06
0.00504184
-4.75093e-06
0.00504295
-4.40615e-06
0.00504397
-4.07924e-06
0.00504491
-3.76963e-06
0.00504578
-3.47682e-06
0.00504658
-3.2003e-06
0.00504731
-2.93968e-06
0.00504799
-2.69452e-06
0.0050486
-2.46449e-06
0.00504917
-2.24906e-06
0.00504968
-2.04793e-06
0.00505014
-1.86031e-06
0.00505057
-1.68625e-06
0.00505095
-1.52447e-06
0.00505129
-1.37599e-06
0.0050516
-1.23836e-06
0.00505188
-1.11461e-06
0.00505213
-9.99538e-07
0.00505236
-9.00218e-07
0.00505256
-8.05868e-07
0.00505274
-7.31438e-07
0.00505291
-6.55944e-07
0.00505306
-6.08158e-07
0.0050532
-5.49961e-07
0.00505333
-5.32012e-07
0.00505346
-4.90431e-07
0.00505358
-5.06261e-07
0.00505371
-4.82946e-07
0.00505384
-5.36453e-07
0.00505398
-5.39231e-07
0.00505413
-6.32061e-07
0.0050543
-6.78537e-07
0.00505451
-8.10675e-07
0.00505474
-9.23418e-07
0.00505501
-1.1081e-06
0.00505534
-1.30856e-06
0.00505572
-1.52517e-06
0.00505622
-2.00813e-06
0.00505672
-1.95893e-06
0.00505744
-2.9312e-06
0.00505822
-3.10885e-06
-3.69648e-06
0.00494985
-3.19436e-05
0.0049559
-3.03308e-05
0.00496166
-2.88468e-05
0.00496713
-2.7465e-05
0.00497235
-2.61628e-05
0.00497731
-2.49232e-05
0.00498204
-2.37339e-05
0.00498654
-2.25873e-05
0.00499082
-2.14789e-05
0.00499488
-2.0407e-05
0.00499874
-1.93709e-05
0.0050024
-1.83705e-05
0.00500587
-1.74059e-05
0.00500915
-1.6477e-05
0.00501226
-1.55836e-05
0.00501519
-1.47253e-05
0.00501796
-1.39014e-05
0.00502057
-1.31112e-05
0.00502304
-1.23538e-05
0.00502535
-1.16283e-05
0.00502753
-1.09338e-05
0.00502958
-1.02694e-05
0.0050315
-9.63429e-06
0.0050333
-9.02747e-06
0.00503499
-8.44811e-06
0.00503656
-7.8954e-06
0.00503803
-7.36855e-06
0.00503941
-6.86681e-06
0.00504068
-6.38947e-06
0.00504187
-5.93583e-06
0.00504296
-5.50521e-06
0.00504398
-5.09689e-06
0.00504492
-4.7102e-06
0.00504579
-4.34449e-06
0.00504659
-3.99914e-06
0.00504732
-3.67364e-06
0.005048
-3.36742e-06
0.00504861
-3.08007e-06
0.00504917
-2.8109e-06
0.00504969
-2.55959e-06
0.00505015
-2.32514e-06
0.00505057
-2.10764e-06
0.00505095
-1.9055e-06
0.0050513
-1.72e-06
0.00505161
-1.54805e-06
0.00505188
-1.39345e-06
0.00505214
-1.24966e-06
0.00505236
-1.12557e-06
0.00505256
-1.00769e-06
0.00505275
-9.14725e-07
0.00505291
-8.20421e-07
0.00505306
-7.60761e-07
0.0050532
-6.88038e-07
0.00505333
-6.65617e-07
0.00505346
-6.13575e-07
0.00505358
-6.33347e-07
0.00505371
-6.0408e-07
0.00505384
-6.70937e-07
0.00505398
-6.74227e-07
0.00505413
-7.90212e-07
0.0050543
-8.48202e-07
0.00505451
-1.01282e-06
0.00505474
-1.15491e-06
0.00505501
-1.38272e-06
0.00505534
-1.63846e-06
0.00505572
-1.9025e-06
0.00505622
-2.50985e-06
0.00505672
-2.45476e-06
0.00505744
-3.65414e-06
0.00505822
-3.88712e-06
-4.6263e-06
0.00495015
-3.83009e-05
0.00495619
-3.63671e-05
0.00496193
-3.45862e-05
0.00496739
-3.2927e-05
0.00497259
-3.13633e-05
0.00497754
-2.98749e-05
0.00498226
-2.84474e-05
0.00498674
-2.70716e-05
0.004991
-2.57424e-05
0.00499505
-2.44573e-05
0.0049989
-2.32155e-05
0.00500254
-2.20168e-05
0.005006
-2.08611e-05
0.00500927
-1.97483e-05
0.00501237
-1.86781e-05
0.00501529
-1.76499e-05
0.00501805
-1.66629e-05
0.00502066
-1.57163e-05
0.00502311
-1.48089e-05
0.00502542
-1.39397e-05
0.0050276
-1.31076e-05
0.00502964
-1.23116e-05
0.00503156
-1.15505e-05
0.00503335
-1.08233e-05
0.00503503
-1.0129e-05
0.0050366
-9.46663e-06
0.00503807
-8.83519e-06
0.00503944
-8.23382e-06
0.00504071
-7.66167e-06
0.00504189
-7.1179e-06
0.00504299
-6.60167e-06
0.005044
-6.11219e-06
0.00504494
-5.64861e-06
0.00504581
-5.21019e-06
0.0050466
-4.79619e-06
0.00504734
-4.40597e-06
0.00504801
-4.03885e-06
0.00504862
-3.69431e-06
0.00504918
-3.37154e-06
0.00504969
-3.07016e-06
0.00505016
-2.78898e-06
0.00505058
-2.52815e-06
0.00505096
-2.28574e-06
0.0050513
-2.06329e-06
0.00505161
-1.85711e-06
0.00505189
-1.67171e-06
0.00505214
-1.49928e-06
0.00505236
-1.35047e-06
0.00505256
-1.20911e-06
0.00505275
-1.09766e-06
0.00505291
-9.84578e-07
0.00505306
-9.13084e-07
0.0050532
-8.25851e-07
0.00505333
-7.98997e-07
0.00505346
-7.3649e-07
0.00505358
-7.60245e-07
0.00505371
-7.24997e-07
0.00505384
-8.0526e-07
0.00505397
-8.09001e-07
0.00505413
-9.48184e-07
0.0050543
-1.0177e-06
0.0050545
-1.21455e-06
0.00505474
-1.38673e-06
0.00505501
-1.65582e-06
0.00505534
-1.97015e-06
0.00505572
-2.27736e-06
0.00505622
-3.01146e-06
0.00505672
-2.95449e-06
0.00505743
-4.37117e-06
0.00505821
-4.66642e-06
-5.56021e-06
0.00495052
-4.46391e-05
0.00495653
-4.23856e-05
0.00496226
-4.03081e-05
0.0049677
-3.83712e-05
0.00497288
-3.65456e-05
0.00497782
-3.48081e-05
0.00498251
-3.31423e-05
0.00498698
-3.15377e-05
0.00499122
-2.99881e-05
0.00499526
-2.84906e-05
0.00499908
-2.7044e-05
0.00500272
-2.56479e-05
0.00500616
-2.43021e-05
0.00500941
-2.30064e-05
0.0050125
-2.17603e-05
0.00501541
-2.05632e-05
0.00501816
-1.9414e-05
0.00502076
-1.83117e-05
0.0050232
-1.72551e-05
0.00502551
-1.62429e-05
0.00502767
-1.52739e-05
0.00502971
-1.43468e-05
0.00503162
-1.34604e-05
0.00503341
-1.26134e-05
0.00503508
-1.18046e-05
0.00503665
-1.1033e-05
0.00503811
-1.02974e-05
0.00503947
-9.59677e-06
0.00504074
-8.93014e-06
0.00504192
-8.29655e-06
0.00504301
-7.69503e-06
0.00504403
-7.12463e-06
0.00504496
-6.58443e-06
0.00504583
-6.07353e-06
0.00504662
-5.59109e-06
0.00504735
-5.13635e-06
0.00504802
-4.70851e-06
0.00504863
-4.30695e-06
0.00504919
-3.93073e-06
0.0050497
-3.57941e-06
0.00505017
-3.25164e-06
0.00505058
-2.94758e-06
0.00505096
-2.66502e-06
0.00505131
-2.40572e-06
0.00505161
-2.1654e-06
0.00505189
-1.94928e-06
0.00505214
-1.7483e-06
0.00505237
-1.57479e-06
0.00505257
-1.41008e-06
0.00505275
-1.28011e-06
0.00505291
-1.14841e-06
0.00505306
-1.06498e-06
0.0050532
-9.63445e-07
0.00505334
-9.31972e-07
0.00505346
-8.59267e-07
0.00505358
-8.86747e-07
0.00505371
-8.45828e-07
0.00505384
-9.39187e-07
0.00505397
-9.43705e-07
0.00505413
-1.10572e-06
0.0050543
-1.18718e-06
0.0050545
-1.41555e-06
0.00505473
-1.61911e-06
0.00505501
-1.92694e-06
0.00505534
-2.30406e-06
0.00505571
-2.64912e-06
0.00505621
-3.51326e-06
0.00505672
-3.45813e-06
0.00505743
-5.08201e-06
0.00505821
-5.44614e-06
-6.49968e-06
0.00518831
-5.12552e-05
0.00519459
-4.86684e-05
0.00520056
-4.62807e-05
0.00520625
-4.4053e-05
0.00521165
-4.19527e-05
0.0052168
-3.99541e-05
0.0052217
-3.80389e-05
0.00522635
-3.61948e-05
0.00523078
-3.4415e-05
0.00523499
-3.26959e-05
0.00523898
-3.10357e-05
0.00524276
-2.94339e-05
0.00524635
-2.78902e-05
0.00524975
-2.64041e-05
0.00525296
-2.4975e-05
0.005256
-2.36019e-05
0.00525887
-2.22839e-05
0.00526158
-2.10195e-05
0.00526413
-1.98075e-05
0.00526654
-1.86464e-05
0.0052688
-1.75347e-05
0.00527092
-1.64711e-05
0.00527291
-1.5454e-05
0.00527478
-1.4482e-05
0.00527653
-1.35539e-05
0.00527817
-1.26684e-05
0.00527969
-1.18241e-05
0.00528112
-1.10199e-05
0.00528244
-1.02548e-05
0.00528367
-9.52744e-06
0.00528482
-8.83689e-06
0.00528587
-8.18205e-06
0.00528685
-7.56185e-06
0.00528775
-6.97529e-06
0.00528858
-6.42139e-06
0.00528934
-5.89928e-06
0.00529004
-5.40803e-06
0.00529068
-4.94692e-06
0.00529127
-4.51489e-06
0.0052918
-4.11141e-06
0.00529228
-3.735e-06
0.00529272
-3.38575e-06
0.00529312
-3.06131e-06
0.00529348
-2.76343e-06
0.0052938
-2.48758e-06
0.00529409
-2.23917e-06
0.00529435
-2.00864e-06
0.00529458
-1.80897e-06
0.00529479
-1.62035e-06
0.00529498
-1.47038e-06
0.00529515
-1.32007e-06
0.00529531
-1.22312e-06
0.00529546
-1.10794e-06
0.0052956
-1.0701e-06
0.00529573
-9.88561e-07
0.00529586
-1.01789e-06
0.00529598
-9.73342e-07
0.00529612
-1.07794e-06
0.00529626
-1.08589e-06
0.00529643
-1.26911e-06
0.00529661
-1.36591e-06
0.00529682
-1.62414e-06
0.00529706
-1.86441e-06
0.00529734
-2.20747e-06
0.00529769
-2.65788e-06
0.00529808
-3.03344e-06
0.00529861
-4.04121e-06
0.00529914
-3.98802e-06
0.00529988
-5.82282e-06
0.00530069
-6.25971e-06
-7.4955e-06
0.00518886
-5.78378e-05
0.00519511
-5.49204e-05
0.00520106
-5.22236e-05
0.00520671
-4.97056e-05
0.00521209
-4.73309e-05
0.0052172
-4.50715e-05
0.00522207
-4.29072e-05
0.0052267
-4.08245e-05
0.0052311
-3.88155e-05
0.00523528
-3.68759e-05
0.00523925
-3.50036e-05
0.00524301
-3.31976e-05
0.00524658
-3.14574e-05
0.00524996
-2.97823e-05
0.00525316
-2.81716e-05
0.00525618
-2.6624e-05
0.00525903
-2.51384e-05
0.00526173
-2.37132e-05
0.00526427
-2.23469e-05
0.00526666
-2.10379e-05
0.00526891
-1.97846e-05
0.00527102
-1.85852e-05
0.00527301
-1.74383e-05
0.00527487
-1.63422e-05
0.00527661
-1.52955e-05
0.00527824
-1.42966e-05
0.00527976
-1.33443e-05
0.00528117
-1.24371e-05
0.00528249
-1.15739e-05
0.00528372
-1.07533e-05
0.00528486
-9.97414e-06
0.00528591
-9.23525e-06
0.00528688
-8.53543e-06
0.00528778
-7.87354e-06
0.00528861
-7.24849e-06
0.00528937
-6.6593e-06
0.00529006
-6.10492e-06
0.0052907
-5.5845e-06
0.00529128
-5.09689e-06
0.00529181
-4.64144e-06
0.0052923
-4.21658e-06
0.00529273
-3.82232e-06
0.00529313
-3.45616e-06
0.00529348
-3.11983e-06
0.0052938
-2.8086e-06
0.00529409
-2.528e-06
0.00529435
-2.26807e-06
0.00529459
-2.04229e-06
0.0052948
-1.82991e-06
0.00529499
-1.65994e-06
0.00529516
-1.4912e-06
0.00529531
-1.38064e-06
0.00529546
-1.25205e-06
0.0052956
-1.20766e-06
0.00529572
-1.11757e-06
0.00529586
-1.14847e-06
0.00529598
-1.10063e-06
0.00529612
-1.21615e-06
0.00529626
-1.22787e-06
0.00529643
-1.43191e-06
0.0052966
-1.54448e-06
0.00529681
-1.83177e-06
0.00529706
-2.11026e-06
0.00529734
-2.48544e-06
0.00529769
-3.01433e-06
0.00529807
-3.41374e-06
0.0052986
-4.56919e-06
0.00529914
-4.5228e-06
0.00529987
-6.5556e-06
0.00530068
-7.07394e-06
-8.49843e-06
0.0051895
-6.43794e-05
0.00519571
-6.11347e-05
0.00520162
-5.81308e-05
0.00520724
-5.53235e-05
0.00521258
-5.26751e-05
0.00521766
-5.01556e-05
0.0052225
-4.77431e-05
0.0052271
-4.54228e-05
0.00523147
-4.31859e-05
0.00523562
-4.10273e-05
0.00523956
-3.89444e-05
0.0052433
-3.6936e-05
0.00524684
-3.5001e-05
0.0052502
-3.31387e-05
0.00525338
-3.13479e-05
0.00525638
-2.96274e-05
0.00525922
-2.79756e-05
0.00526189
-2.6391e-05
0.00526442
-2.48717e-05
0.0052668
-2.3416e-05
0.00526903
-2.2022e-05
0.00527114
-2.0688e-05
0.00527311
-1.94121e-05
0.00527496
-1.81927e-05
0.00527669
-1.70281e-05
0.00527831
-1.59167e-05
0.00527983
-1.4857e-05
0.00528124
-1.38475e-05
0.00528255
-1.28868e-05
0.00528377
-1.19734e-05
0.0052849
-1.11062e-05
0.00528595
-1.02837e-05
0.00528692
-9.50464e-06
0.00528781
-8.76781e-06
0.00528864
-8.07197e-06
0.00528939
-7.41602e-06
0.00529009
-6.7988e-06
0.00529072
-6.21935e-06
0.0052913
-5.67641e-06
0.00529183
-5.16924e-06
0.00529231
-4.69615e-06
0.00529274
-4.25706e-06
0.00529314
-3.84936e-06
0.00529349
-3.47476e-06
0.00529381
-3.1283e-06
0.0052941
-2.81564e-06
0.00529436
-2.52643e-06
0.00529459
-2.27465e-06
0.0052948
-2.03861e-06
0.00529499
-1.84873e-06
0.00529516
-1.66163e-06
0.00529532
-1.53753e-06
0.00529546
-1.39557e-06
0.0052956
-1.3447e-06
0.00529572
-1.24607e-06
0.00529585
-1.27862e-06
0.00529598
-1.22743e-06
0.00529612
-1.35398e-06
0.00529626
-1.36932e-06
0.00529642
-1.59429e-06
0.0052966
-1.72257e-06
0.00529681
-2.0386e-06
0.00529705
-2.35631e-06
0.00529733
-2.76095e-06
0.00529769
-3.3731e-06
0.00529806
-3.79016e-06
0.00529859
-5.09669e-06
0.00529913
-5.06302e-06
0.00529986
-7.27939e-06
0.00530067
-7.88967e-06
-9.5078e-06
0.00519021
-7.08717e-05
0.00519638
-6.73038e-05
0.00520225
-6.39955e-05
0.00520783
-6.09008e-05
0.00521313
-5.798e-05
0.00521818
-5.52015e-05
0.00522298
-5.2542e-05
0.00522754
-4.99856e-05
0.00523187
-4.75224e-05
0.00523599
-4.51466e-05
0.0052399
-4.28551e-05
0.00524362
-4.06461e-05
0.00524713
-3.85183e-05
0.00525046
-3.64706e-05
0.00525362
-3.45016e-05
0.0052566
-3.26099e-05
0.00525942
-3.07936e-05
0.00526208
-2.9051e-05
0.00526459
-2.73801e-05
0.00526695
-2.5779e-05
0.00526917
-2.42456e-05
0.00527126
-2.2778e-05
0.00527323
-2.13743e-05
0.00527507
-2.00326e-05
0.00527679
-1.8751e-05
0.0052784
-1.75279e-05
0.0052799
-1.63615e-05
0.00528131
-1.52503e-05
0.00528261
-1.41927e-05
0.00528383
-1.31872e-05
0.00528495
-1.22324e-05
0.005286
-1.13268e-05
0.00528696
-1.0469e-05
0.00528785
-9.65763e-06
0.00528867
-8.89139e-06
0.00528942
-8.16904e-06
0.00529011
-7.48931e-06
0.00529075
-6.85114e-06
0.00529132
-6.25316e-06
0.00529185
-5.69452e-06
0.00529232
-5.17343e-06
0.00529276
-4.68975e-06
0.00529315
-4.24071e-06
0.0052935
-3.82801e-06
0.00529382
-3.44649e-06
0.00529411
-3.10193e-06
0.00529436
-2.78357e-06
0.00529459
-2.50593e-06
0.0052948
-2.24634e-06
0.00529499
-2.03665e-06
0.00529516
-1.83126e-06
0.00529532
-1.69372e-06
0.00529546
-1.53842e-06
0.0052956
-1.48115e-06
0.00529572
-1.37396e-06
0.00529585
-1.40827e-06
0.00529598
-1.35364e-06
0.00529612
-1.49134e-06
0.00529626
-1.51017e-06
0.00529642
-1.75618e-06
0.0052966
-1.90007e-06
0.0052968
-2.24456e-06
0.00529705
-2.60246e-06
0.00529732
-3.03392e-06
0.00529768
-3.73403e-06
0.00529806
-4.16257e-06
0.00529858
-5.62358e-06
0.00529913
-5.60853e-06
0.00529984
-7.99408e-06
0.00530066
-8.70688e-06
-1.05238e-05
0.00519102
-7.73057e-05
0.00519714
-7.34198e-05
0.00520295
-6.98107e-05
0.00520848
-6.6431e-05
0.00521374
-6.32398e-05
0.00521874
-6.02042e-05
0.0052235
-5.72995e-05
0.00522802
-5.45089e-05
0.00523232
-5.18214e-05
0.00523641
-4.92305e-05
0.00524028
-4.67326e-05
0.00524396
-4.43252e-05
0.00524745
-4.20068e-05
0.00525076
-3.97758e-05
0.00525389
-3.76306e-05
0.00525685
-3.55694e-05
0.00525964
-3.35905e-05
0.00526228
-3.16916e-05
0.00526477
-2.98707e-05
0.00526712
-2.81255e-05
0.00526933
-2.64541e-05
0.0052714
-2.48542e-05
0.00527335
-2.33237e-05
0.00527518
-2.18606e-05
0.00527689
-2.04631e-05
0.0052785
-1.91291e-05
0.00527999
-1.78568e-05
0.00528139
-1.66447e-05
0.00528268
-1.54909e-05
0.00528389
-1.43939e-05
0.00528501
-1.33521e-05
0.00528605
-1.2364e-05
0.00528701
-1.14279e-05
0.00528789
-1.05425e-05
0.00528871
-9.70631e-06
0.00528945
-8.91796e-06
0.00529014
-8.1761e-06
0.00529077
-7.47954e-06
0.00529134
-6.82682e-06
0.00529187
-6.21701e-06
0.00529234
-5.64819e-06
0.00529277
-5.12014e-06
0.00529316
-4.62999e-06
0.00529351
-4.17939e-06
0.00529383
-3.763e-06
0.00529411
-3.38672e-06
0.00529437
-3.03936e-06
0.0052946
-2.736e-06
0.00529481
-2.45296e-06
0.00529499
-2.22359e-06
0.00529516
-1.99998e-06
0.00529532
-1.8491e-06
0.00529546
-1.6805e-06
0.00529559
-1.61693e-06
0.00529572
-1.50116e-06
0.00529585
-1.53733e-06
0.00529598
-1.47919e-06
0.00529611
-1.62818e-06
0.00529625
-1.65031e-06
0.00529641
-1.91752e-06
0.00529659
-2.07687e-06
0.0052968
-2.44958e-06
0.00529704
-2.84853e-06
0.00529731
-3.3043e-06
0.00529768
-4.0969e-06
0.00529804
-4.53093e-06
0.00529857
-6.14969e-06
0.00529912
-6.15904e-06
0.00529983
-8.69977e-06
0.00530065
-9.52551e-06
-1.15465e-05
0.00519191
-8.3672e-05
0.00519797
-7.94742e-05
0.00520372
-7.55687e-05
0.0052092
-7.19075e-05
0.00521441
-6.84487e-05
0.00521936
-6.51584e-05
0.00522407
-6.2011e-05
0.00522855
-5.89885e-05
0.00523281
-5.60791e-05
0.00523686
-5.32757e-05
0.0052407
-5.05737e-05
0.00524434
-4.79704e-05
0.0052478
-4.54637e-05
0.00525108
-4.30517e-05
0.00525418
-4.07325e-05
0.00525711
-3.85041e-05
0.00525989
-3.63643e-05
0.00526251
-3.43109e-05
0.00526498
-3.23416e-05
0.00526731
-3.04541e-05
0.0052695
-2.8646e-05
0.00527156
-2.69151e-05
0.00527349
-2.52591e-05
0.00527531
-2.36758e-05
0.00527701
-2.21633e-05
0.0052786
-2.07194e-05
0.00528009
-1.93422e-05
0.00528147
-1.803e-05
0.00528276
-1.67808e-05
0.00528396
-1.5593e-05
0.00528507
-1.44649e-05
0.0052861
-1.33947e-05
0.00528706
-1.2381e-05
0.00528794
-1.1422e-05
0.00528875
-1.05163e-05
0.00528949
-9.66238e-06
0.00529017
-8.85878e-06
0.0052908
-8.10421e-06
0.00529137
-7.3971e-06
0.00529189
-6.73641e-06
0.00529236
-6.12015e-06
0.00529279
-5.54801e-06
0.00529317
-5.01699e-06
0.00529352
-4.52872e-06
0.00529384
-4.07764e-06
0.00529412
-3.66983e-06
0.00529438
-3.29364e-06
0.0052946
-2.96471e-06
0.00529481
-2.65835e-06
0.00529499
-2.40942e-06
0.00529516
-2.16769e-06
0.00529532
-2.00358e-06
0.00529546
-1.82172e-06
0.00529559
-1.75195e-06
0.00529572
-1.62759e-06
0.00529585
-1.66572e-06
0.00529597
-1.60399e-06
0.00529611
-1.76441e-06
0.00529625
-1.78965e-06
0.00529641
-2.07823e-06
0.00529659
-2.25284e-06
0.00529679
-2.6536e-06
0.00529704
-3.09433e-06
0.0052973
-3.57208e-06
0.00529767
-4.46139e-06
0.00529803
-4.89527e-06
0.00529856
-6.67486e-06
0.00529911
-6.71407e-06
0.00529981
-9.39673e-06
0.00530063
-1.03454e-05
-1.25757e-05
0.00519289
-8.99608e-05
0.00519888
-8.54582e-05
0.00520457
-8.1262e-05
0.00520998
-7.73236e-05
0.00521514
-7.36008e-05
0.00522004
-7.0059e-05
0.0052247
-6.66717e-05
0.00522913
-6.34202e-05
0.00523334
-6.02918e-05
0.00523735
-5.72786e-05
0.00524115
-5.43755e-05
0.00524476
-5.1579e-05
0.00524818
-4.88866e-05
0.00525142
-4.62961e-05
0.0052545
-4.38053e-05
0.0052574
-4.14118e-05
0.00526015
-3.91133e-05
0.00526275
-3.69074e-05
0.0052652
-3.47915e-05
0.00526751
-3.27632e-05
0.00526968
-3.082e-05
0.00527173
-2.89595e-05
0.00527365
-2.71793e-05
0.00527545
-2.54771e-05
0.00527714
-2.38507e-05
0.00527871
-2.22979e-05
0.00528019
-2.08168e-05
0.00528156
-1.94053e-05
0.00528284
-1.80615e-05
0.00528403
-1.67837e-05
0.00528514
-1.55699e-05
0.00528616
-1.44184e-05
0.00528711
-1.33276e-05
0.00528798
-1.22956e-05
0.00528879
-1.13209e-05
0.00528953
-1.04019e-05
0.00529021
-9.53698e-06
0.00529083
-8.72481e-06
0.00529139
-7.96367e-06
0.00529191
-7.25246e-06
0.00529238
-6.58906e-06
0.0052928
-5.97312e-06
0.00529319
-5.40148e-06
0.00529354
-4.87578e-06
0.00529385
-4.39025e-06
0.00529413
-3.95109e-06
0.00529438
-3.54625e-06
0.00529461
-3.19192e-06
0.00529481
-2.86238e-06
0.005295
-2.59404e-06
0.00529516
-2.33427e-06
0.00529532
-2.15705e-06
0.00529546
-1.96198e-06
0.00529559
-1.88611e-06
0.00529572
-1.75316e-06
0.00529585
-1.79337e-06
0.00529597
-1.72794e-06
0.0052961
-1.89995e-06
0.00529624
-1.92808e-06
0.0052964
-2.23823e-06
0.00529658
-2.42785e-06
0.00529678
-2.85655e-06
0.00529703
-3.33966e-06
0.00529729
-3.83729e-06
0.00529766
-4.82712e-06
0.00529802
-5.25565e-06
0.00529854
-7.19889e-06
0.0052991
-7.27306e-06
0.00529979
-1.00854e-05
0.00530061
-1.11665e-05
-1.36114e-05
0.00519396
-9.61621e-05
0.00519986
-9.1363e-05
0.00520549
-8.68824e-05
0.00521083
-8.26722e-05
0.00521592
-7.86899e-05
0.00522076
-7.49005e-05
0.00522537
-7.1277e-05
0.00522975
-6.77999e-05
0.00523391
-6.44558e-05
0.00523787
-6.1236e-05
0.00524163
-5.81347e-05
0.0052452
-5.51481e-05
0.00524859
-5.22729e-05
0.0052518
-4.95066e-05
0.00525484
-4.68467e-05
0.00525772
-4.42906e-05
0.00526044
-4.18356e-05
0.00526301
-3.94792e-05
0.00526544
-3.72187e-05
0.00526773
-3.50514e-05
0.00526988
-3.29748e-05
0.00527191
-3.09862e-05
0.00527381
-2.90832e-05
0.0052756
-2.72633e-05
0.00527727
-2.55243e-05
0.00527884
-2.38638e-05
0.0052803
-2.22797e-05
0.00528166
-2.07699e-05
0.00528294
-1.93324e-05
0.00528412
-1.79653e-05
0.00528521
-1.66667e-05
0.00528623
-1.54346e-05
0.00528717
-1.42672e-05
0.00528804
-1.31629e-05
0.00528884
-1.21197e-05
0.00528957
-1.11361e-05
0.00529024
-1.02103e-05
0.00529086
-9.34098e-06
0.00529142
-8.52622e-06
0.00529193
-7.76485e-06
0.0052924
-7.05466e-06
0.00529282
-6.39522e-06
0.0052932
-5.78325e-06
0.00529355
-5.22038e-06
0.00529386
-4.70062e-06
0.00529414
-4.23035e-06
0.00529439
-3.79704e-06
0.00529461
-3.41749e-06
0.00529482
-3.06493e-06
0.005295
-2.77731e-06
0.00529517
-2.49962e-06
0.00529532
-2.30941e-06
0.00529546
-2.10117e-06
0.00529559
-2.01933e-06
0.00529571
-1.87777e-06
0.00529584
-1.92019e-06
0.00529596
-1.85095e-06
0.0052961
-2.03472e-06
0.00529624
-2.0655e-06
0.0052964
-2.39744e-06
0.00529657
-2.60175e-06
0.00529677
-3.05838e-06
0.00529702
-3.58427e-06
0.00529728
-4.09999e-06
0.00529765
-5.19362e-06
0.005298
-5.6122e-06
0.00529852
-7.72157e-06
0.00529909
-7.83528e-06
0.00529977
-1.07663e-05
0.00530059
-1.19885e-05
-1.46532e-05
0.00519512
-0.000102266
0.00520093
-9.71796e-05
0.00520647
-9.24223e-05
0.00521175
-8.79464e-05
0.00521677
-8.37099e-05
0.00522154
-7.96776e-05
0.00522609
-7.58221e-05
0.00523041
-7.21233e-05
0.00523452
-6.85673e-05
0.00523843
-6.51445e-05
0.00524215
-6.18486e-05
0.00524567
-5.8675e-05
0.00524902
-5.56201e-05
0.00525219
-5.2681e-05
0.0052552
-4.98547e-05
0.00525805
-4.71385e-05
0.00526074
-4.45294e-05
0.00526329
-4.20248e-05
0.00526569
-3.96217e-05
0.00526796
-3.73174e-05
0.00527009
-3.5109e-05
0.0052721
-3.2994e-05
0.00527399
-3.09697e-05
0.00527576
-2.90336e-05
0.00527742
-2.71831e-05
0.00527897
-2.54161e-05
0.00528042
-2.37301e-05
0.00528177
-2.2123e-05
0.00528303
-2.05928e-05
0.0052842
-1.91373e-05
0.00528529
-1.77545e-05
0.0052863
-1.64426e-05
0.00528723
-1.51994e-05
0.00528809
-1.40233e-05
0.00528889
-1.29122e-05
0.00528961
-1.18646e-05
0.00529028
-1.08785e-05
0.00529089
-9.9524e-06
0.00529145
-9.08444e-06
0.00529196
-8.2733e-06
0.00529242
-7.51667e-06
0.00529284
-6.81406e-06
0.00529322
-6.16207e-06
0.00529356
-5.56231e-06
0.00529387
-5.00857e-06
0.00529415
-4.50742e-06
0.0052944
-4.04585e-06
0.00529462
-3.64128e-06
0.00529482
-3.26584e-06
0.005295
-2.95912e-06
0.00529517
-2.6636e-06
0.00529532
-2.46054e-06
0.00529546
-2.2392e-06
0.00529559
-2.1515e-06
0.00529571
-2.00131e-06
0.00529584
-2.04608e-06
0.00529596
-1.97293e-06
0.00529609
-2.16863e-06
0.00529623
-2.2018e-06
0.00529639
-2.55577e-06
0.00529656
-2.77441e-06
0.00529676
-3.25904e-06
0.005297
-3.82789e-06
0.00529726
-4.36025e-06
0.00529763
-5.56042e-06
0.00529798
-5.96507e-06
0.00529851
-8.2427e-06
0.00529907
-8.39997e-06
0.00529974
-1.14401e-05
0.00530057
-1.28112e-05
-1.57009e-05
0.00519636
-0.000108263
0.00520208
-0.000102899
0.00520753
-9.78737e-05
0.00521272
-9.31393e-05
0.00521767
-8.86547e-05
0.00522238
-8.43849e-05
0.00522686
-8.03024e-05
0.00523112
-7.63866e-05
0.00523517
-7.26228e-05
0.00523903
-6.9001e-05
0.0052427
-6.55141e-05
0.00524618
-6.21571e-05
0.00524948
-5.89258e-05
0.00525262
-5.58169e-05
0.00525559
-5.28272e-05
0.00525841
-4.99536e-05
0.00526107
-4.7193e-05
0.00526359
-4.45424e-05
0.00526597
-4.19989e-05
0.00526821
-3.95596e-05
0.00527032
-3.72214e-05
0.00527231
-3.49817e-05
0.00527418
-3.28377e-05
0.00527593
-3.07867e-05
0.00527757
-2.88263e-05
0.00527911
-2.69539e-05
0.00528055
-2.51672e-05
0.00528189
-2.34639e-05
0.00528314
-2.18419e-05
0.0052843
-2.02989e-05
0.00528538
-1.88329e-05
0.00528638
-1.74418e-05
0.0052873
-1.61236e-05
0.00528815
-1.48764e-05
0.00528894
-1.36981e-05
0.00528966
-1.25869e-05
0.00529033
-1.1541e-05
0.00529093
-1.05587e-05
0.00529148
-9.63801e-06
0.00529199
-8.77752e-06
0.00529245
-7.97484e-06
0.00529286
-7.22941e-06
0.00529324
-6.53771e-06
0.00529358
-5.90136e-06
0.00529388
-5.31392e-06
0.00529416
-4.78214e-06
0.0052944
-4.29252e-06
0.00529463
-3.86314e-06
0.00529483
-3.46499e-06
0.00529501
-3.13933e-06
0.00529517
-2.82612e-06
0.00529532
-2.61034e-06
0.00529545
-2.37595e-06
0.00529559
-2.28252e-06
0.00529571
-2.1237e-06
0.00529583
-2.17095e-06
0.00529595
-2.09376e-06