/*--------------------------------*- C++ -*----------------------------------*\
| =========                 |                                                 |
| \\      /  F ield         | OpenFOAM: The Open Source CFD Toolbox           |
|  \\    /   O peration     | Version:  2412                                  |
|   \\  /    A nd           | Website:  www.openfoam.com                      |
|    \\/     M anipulation  |                                                 |
\*---------------------------------------------------------------------------*/
FoamFile
{
    version     2.0;
    format      ascii;
    arch        "LSB;label=32;scalar=64";
    class       volVectorField;
    location    "13";
    object      U;
}
// * * * * * * * * * * * * * * * * * * * * * * * * * * * * * * * * * * * * * //

dimensions      [0 1 -1 0 0 0 0];

internalField   nonuniform List<vector> 
5285
(
(0.0485352 -0.00178519 6.20947e-25)
(0.0517733 -0.00170144 0)
(0.0548593 -0.00161345 2.58407e-25)
(0.0577861 -0.00152297 0)
(0.0605495 -0.00143154 0)
(0.0631483 -0.00134048 0)
(0.0655832 -0.00125092 -1.26966e-25)
(0.0678573 -0.00116378 0)
(0.0699748 -0.0010798 2.05126e-25)
(0.0719418 -0.000999542 -2.25727e-25)
(0.0737648 -0.000923425 2.37053e-25)
(0.0754514 -0.000851727 -2.21099e-24)
(0.0770095 -0.000784607 2.21224e-24)
(0.0784474 -0.000722121 1.63173e-24)
(0.0797733 -0.000664236 -3.41928e-24)
(0.0809955 -0.000610849 1.77795e-24)
(0.0821219 -0.0005618 1.98288e-25)
(0.0831604 -0.000516884 -1.83855e-25)
(0.0841182 -0.000475866 0)
(0.0850023 -0.000438491 -1.53729e-25)
(0.0858192 -0.000404493 6.72336e-25)
(0.0865749 -0.000373605 -6.58416e-25)
(0.0872748 -0.000345562 1.09621e-25)
(0.0879241 -0.00032011 -2.77547e-25)
(0.0885274 -0.000297007 9.91971e-26)
(0.0890888 -0.000276024 1.35955e-25)
(0.0896121 -0.000256949 -6.57521e-26)
(0.0901007 -0.000239586 4.74766e-26)
(0.0492642 -0.00531576 3.28784e-23)
(0.0524378 -0.00506737 -3.59035e-23)
(0.0554624 -0.00480623 1.31792e-23)
(0.0583311 -0.00453755 -1.0639e-23)
(0.0610403 -0.00426593 -2.55145e-24)
(0.0635887 -0.00399532 -2.70119e-25)
(0.0659772 -0.00372908 1.27293e-25)
(0.0682087 -0.00346996 2.83049e-25)
(0.0702877 -0.00322016 -2.05573e-25)
(0.0722197 -0.00298138 6.27925e-25)
(0.0740114 -0.00275486 -7.23679e-24)
(0.07567 -0.00254144 1.51682e-23)
(0.0772031 -0.0023416 -7.29357e-24)
(0.0786189 -0.00215551 6.68276e-25)
(0.0799253 -0.00198308 -2.23752e-25)
(0.0811302 -0.001824 0)
(0.0822415 -0.00167782 3.17669e-24)
(0.0832668 -0.00154391 -2.82058e-24)
(0.084213 -0.0014216 -2.21458e-24)
(0.085087 -0.00131012 2.9838e-24)
(0.085895 -0.00120869 -1.3864e-25)
(0.0866429 -0.00111652 -5.5808e-25)
(0.087336 -0.00103282 1.01689e-24)
(0.0879794 -0.000956834 9.57943e-26)
(0.0885774 -0.000887848 5.38994e-25)
(0.0891341 -0.000825183 1.40075e-26)
(0.0896533 -0.000768205 -1.48935e-25)
(0.0901382 -0.000716324 -1.51037e-25)
(0.0506622 -0.00873057 -3.93034e-23)
(0.0537127 -0.00832595 4.17144e-23)
(0.0566199 -0.00790008 8.16413e-25)
(0.0593779 -0.00746142 -5.17072e-25)
(0.0619834 -0.00701752 2.74995e-25)
(0.0644356 -0.0065749 2.18955e-24)
(0.0667354 -0.0061391 -2.10881e-24)
(0.0688858 -0.00571466 8.49493e-24)
(0.070891 -0.00530523 -8.96779e-24)
(0.0727563 -0.00491364 -4.03337e-25)
(0.0744879 -0.00454195 -1.31776e-23)
(0.0760927 -0.00419156 2.61542e-23)
(0.077578 -0.00386331 -1.38741e-23)
(0.0789513 -0.00355749 -6.96742e-24)
(0.0802202 -0.00327398 6.16312e-24)
(0.081392 -0.00301231 0)
(0.0824743 -0.00277174 -3.61937e-26)
(0.083474 -0.00255128 0)
(0.0843978 -0.00234982 -4.74777e-24)
(0.0852522 -0.00216613 4.43179e-24)
(0.086043 -0.00199894 -2.40423e-25)
(0.0867759 -0.00184695 -2.03377e-26)
(0.0874558 -0.00170888 -1.51772e-24)
(0.0880875 -0.0015835 2.63498e-24)
(0.0886753 -0.00146962 -1.31487e-24)
(0.089223 -0.00136615 4.49686e-25)
(0.0897341 -0.00127204 -3.72499e-25)
(0.0902119 -0.00118629 -1.11025e-25)
(0.0526201 -0.0119619 0)
(0.0554993 -0.0114146 1.46873e-24)
(0.0582433 -0.0108372 2.48711e-25)
(0.0608474 -0.0102417 5.21962e-25)
(0.0633089 -0.00963799 -1.70726e-23)
(0.0656273 -0.00903527 1.6981e-23)
(0.0678038 -0.00844112 0)
(0.0698412 -0.00786185 5.40942e-24)
(0.0717435 -0.00730253 -5.40488e-24)
(0.0735157 -0.00676709 0)
(0.0751635 -0.00625845 -1.0098e-25)
(0.0766933 -0.00577859 1.15149e-23)
(0.0781116 -0.0053287 -2.27938e-23)
(0.0794253 -0.00490926 2.26096e-23)
(0.0806414 -0.00452016 -2.2141e-23)
(0.0817667 -0.0041608 2.13997e-23)
(0.0828079 -0.00383019 -1.05078e-23)
(0.0837715 -0.00352705 -4.5782e-24)
(0.0846637 -0.00324986 4.03532e-24)
(0.0854903 -0.00299699 2.31274e-25)
(0.0862567 -0.00276669 3.46394e-24)
(0.0869681 -0.00255723 -6.88094e-24)
(0.0876292 -0.00236686 3.02208e-24)
(0.0882443 -0.0021939 2.22016e-26)
(0.0888174 -0.00203674 -1.41076e-25)
(0.0893522 -0.00189388 -1.78314e-26)
(0.0898518 -0.00176387 9.72612e-26)
(0.0903192 -0.00164532 -1.39899e-25)
(0.0576712 -0.0142835 -9.33891e-23)
(0.060219 -0.0135727 9.07719e-23)
(0.062638 -0.0128373 0)
(0.0649264 -0.0120902 0)
(0.067084 -0.0113428 -2.66098e-25)
(0.0691121 -0.0106048 -7.27736e-24)
(0.0710135 -0.00988412 7.31245e-24)
(0.0727918 -0.00918731 1.38064e-25)
(0.0744516 -0.00851943 5.54416e-24)
(0.075998 -0.00788426 -5.86055e-24)
(0.0774367 -0.0072844 0)
(0.0787736 -0.00672145 1.06472e-25)
(0.0800149 -0.00619612 0)
(0.0811666 -0.00570837 8.90937e-24)
(0.082235 -0.00525752 -9.05271e-24)
(0.0832259 -0.00484241 7.87773e-24)
(0.0841452 -0.0044615 -8.16455e-24)
(0.0849983 -0.00411296 4.54292e-25)
(0.0857906 -0.00379476 -2.31224e-25)
(0.0865268 -0.00350479 4.02418e-26)
(0.0872116 -0.00324088 1.86326e-25)
(0.0878492 -0.00300087 -1.63909e-25)
(0.0884436 -0.0027827 1.09794e-24)
(0.0889984 -0.00258435 -1.75461e-24)
(0.0895169 -0.00240395 1.10032e-24)
(0.0900021 -0.00223968 -3.23937e-25)
(0.0904567 -0.00208975 1.79285e-26)
(0.0600927 -0.0169285 1.18831e-22)
(0.0624248 -0.0161045 -1.18658e-22)
(0.0646404 -0.0152484 -6.88367e-23)
(0.0667386 -0.0143754 6.7642e-23)
(0.0687195 -0.0134994 0)
(0.0705844 -0.0126321 0)
(0.072336 -0.0117834 1.26965e-23)
(0.0739775 -0.0109612 -7.56345e-24)
(0.075513 -0.0101718 -5.17853e-24)
(0.076947 -0.00941997 4.89536e-24)
(0.0782846 -0.00870902 -1.2893e-23)
(0.0795309 -0.00804103 3.15738e-24)
(0.0806912 -0.007417 5.12691e-24)
(0.0817709 -0.00683703 6.34208e-24)
(0.0827753 -0.00630048 -1.17974e-23)
(0.0837096 -0.00580605 1.2139e-23)
(0.0845788 -0.005352 -9.95806e-26)
(0.0853876 -0.00493623 -5.74406e-24)
(0.0861408 -0.00455641 -4.90282e-24)
(0.0868425 -0.00421007 7.39653e-24)
(0.0874969 -0.00389466 -4.0575e-24)
(0.0881076 -0.00360768 2.04833e-24)
(0.0886782 -0.00334666 -1.51081e-24)
(0.0892119 -0.00310926 1.49431e-24)
(0.0897116 -0.00289324 -7.73403e-26)
(0.09018 -0.00269645 2.04026e-25)
(0.0906198 -0.0025167 -9.9949e-26)
(0.0626362 -0.0193671 -1.87483e-22)
(0.0647467 -0.0184487 0)
(0.0667536 -0.0174888 0)
(0.0686561 -0.0165056 1.11693e-24)
(0.0704549 -0.015515 -5.5155e-23)
(0.0721514 -0.0145313 5.5014e-23)
(0.0737479 -0.013566 0)
(0.0752475 -0.0126289 0)
(0.0766537 -0.0117275 1.31817e-25)
(0.0779705 -0.0108675 -5.80317e-24)
(0.0792022 -0.0100532 7.28328e-24)
(0.0803532 -0.00928721 -1.4762e-24)
(0.0814281 -0.00857086 -1.09079e-25)
(0.0824315 -0.00790447 -1.30827e-25)
(0.0833679 -0.00728745 -3.22966e-24)
(0.0842417 -0.00671847 6.52775e-24)
(0.0850571 -0.00619562 -3.59143e-24)
(0.0858184 -0.00571658 3.25189e-24)
(0.0865294 -0.00527872 -1.98558e-25)
(0.0871937 -0.00487928 -3.97288e-25)
(0.0878149 -0.00451536 -3.00048e-24)
(0.0883963 -0.00418411 -1.18664e-24)
(0.0889408 -0.00388273 1.16939e-24)
(0.0894513 -0.00360853 -6.51568e-26)
(0.0899303 -0.00335896 -2.42926e-25)
(0.0903804 -0.00313158 2.0578e-25)
(0.0908037 -0.00292387 -2.27835e-26)
(0.0905588 -0.000223713 0)
(0.0909923 -0.000209118 0)
(0.0914058 -0.000195601 0)
(0.0918005 -0.000183097 0)
(0.0921775 -0.000171534 0)
(0.092538 -0.000160842 0)
(0.0928829 -0.000150953 0)
(0.0932132 -0.000141802 0)
(0.0935299 -0.000133326 0)
(0.0938337 -0.00012546 0)
(0.0941255 -0.000118138 0)
(0.0944058 -0.000111289 0)
(0.0946751 -0.000104841 0)
(0.0949339 -9.87169e-05 0)
(0.0951823 -9.28404e-05 0)
(0.0954204 -8.71421e-05 0)
(0.0956481 -8.15659e-05 0)
(0.0958651 -7.60774e-05 0)
(0.0960711 -7.06709e-05 0)
(0.0962658 -6.53723e-05 0)
(0.0964492 -6.02378e-05 0)
(0.0966213 -5.53451e-05 0)
(0.0967824 -5.07802e-05 0)
(0.0969331 -4.66207e-05 0)
(0.0970744 -4.29207e-05 0)
(0.0972074 -3.97007e-05 0)
(0.0973332 -3.69441e-05 0)
(0.0974531 -3.4602e-05 0)
(0.097568 -3.26038e-05 0)
(0.0976787 -3.08701e-05 0)
(0.0977859 -2.9325e-05 0)
(0.0978899 -2.79048e-05 0)
(0.0979908 -2.65626e-05 0)
(0.0980889 -2.52682e-05 0)
(0.098184 -2.4006e-05 0)
(0.098276 -2.27704e-05 0)
(0.098365 -2.15623e-05 0)
(0.098451 -2.03857e-05 0)
(0.0985338 -1.92452e-05 0)
(0.0986134 -1.81451e-05 0)
(0.09869 -1.70885e-05 0)
(0.0987636 -1.60774e-05 0)
(0.0988341 -1.51128e-05 0)
(0.0989018 -1.41947e-05 0)
(0.0905925 -0.000668916 0)
(0.0910221 -0.000625368 0)
(0.0914322 -0.000585031 0)
(0.0918238 -0.000547707 0)
(0.092198 -0.000513183 0)
(0.092556 -0.000481247 0)
(0.0928987 -0.0004517 0)
(0.0932271 -0.000424349 0)
(0.0935419 -0.000399006 0)
(0.0938441 -0.000375479 0)
(0.0941343 -0.000353572 0)
(0.0944132 -0.000333077 0)
(0.0946812 -0.000313776 0)
(0.0949387 -0.000295443 0)
(0.095186 -0.000277853 0)
(0.0954231 -0.0002608 0)
(0.0956498 -0.000244118 0)
(0.0958659 -0.000227705 0)
(0.0960713 -0.000211543 0)
(0.0962655 -0.00019571 0)
(0.0964485 -0.00018037 0)
(0.0966204 -0.000165756 0)
(0.0967814 -0.00015212 0)
(0.0969323 -0.000139692 0)
(0.0970738 -0.000128633 0)
(0.097207 -0.000119002 0)
(0.0973332 -0.000110751 0)
(0.0974534 -0.000103735 0)
(0.0975685 -9.77443e-05 0)
(0.0976795 -9.25432e-05 0)
(0.0977869 -8.79062e-05 0)
(0.097891 -8.36441e-05 0)
(0.0979921 -7.96172e-05 0)
(0.0980901 -7.57358e-05 0)
(0.0981852 -7.19526e-05 0)
(0.0982773 -6.82509e-05 0)
(0.0983662 -6.46329e-05 0)
(0.0984521 -6.11099e-05 0)
(0.0985348 -5.76957e-05 0)
(0.0986144 -5.44027e-05 0)
(0.098691 -5.124e-05 0)
(0.0987645 -4.82134e-05 0)
(0.098835 -4.53255e-05 0)
(0.0989025 -4.25764e-05 0)
(0.0906586 -0.00110801 0)
(0.0910808 -0.00103625 0)
(0.0914842 -0.000969755 0)
(0.0918698 -0.000908194 0)
(0.0922387 -0.000851213 0)
(0.0925918 -0.000798468 0)
(0.0929302 -0.000749633 0)
(0.0932546 -0.000704396 0)
(0.0935659 -0.00066245 0)
(0.0938648 -0.000623485 0)
(0.094152 -0.000587181 0)
(0.0944281 -0.000553202 0)
(0.0946935 -0.000521193 0)
(0.0949486 -0.000490786 0)
(0.0951936 -0.000461615 0)
(0.0954286 -0.000433344 0)
(0.0956535 -0.000405703 0)
(0.095868 -0.000378525 0)
(0.096072 -0.000351778 0)
(0.0962652 -0.000325588 0)
(0.0964475 -0.000300222 0)
(0.096619 -0.000276051 0)
(0.0967799 -0.000253489 0)
(0.0969309 -0.000232908 0)
(0.0970728 -0.00021457 0)
(0.0972066 -0.000198573 0)
(0.0973333 -0.000184838 0)
(0.0974541 -0.00017313 0)
(0.0975698 -0.000163111 0)
(0.0976813 -0.000154396 0)
(0.097789 -0.000146618 0)
(0.0978933 -0.000139468 0)
(0.0979945 -0.000132717 0)
(0.0980927 -0.000126217 0)
(0.0981877 -0.00011989 0)
(0.0982797 -0.000113705 0)
(0.0983686 -0.000107667 0)
(0.0984544 -0.000101792 0)
(0.098537 -9.61015e-05 0)
(0.0986165 -9.06152e-05 0)
(0.0986929 -8.53474e-05 0)
(0.0987662 -8.03072e-05 0)
(0.0988366 -7.54985e-05 0)
(0.098904 -7.09212e-05 0)
(0.0907552 -0.00153726 0)
(0.0911666 -0.00143848 0)
(0.0915604 -0.0013469 0)
(0.0919373 -0.00126204 0)
(0.0922985 -0.00118341 0)
(0.0926448 -0.00111055 0)
(0.0929769 -0.00104302 0)
(0.0932957 -0.000980399 0)
(0.0936018 -0.000922272 0)
(0.093896 -0.000868224 0)
(0.0941788 -0.000817825 0)
(0.0944508 -0.000770623 0)
(0.0947124 -0.000726137 0)
(0.094964 -0.000683872 0)
(0.0952057 -0.000643333 0)
(0.0954376 -0.000604066 0)
(0.0956597 -0.000565703 0)
(0.0958719 -0.000528017 0)
(0.0960739 -0.000490962 0)
(0.0962655 -0.000454702 0)
(0.0964467 -0.000419593 0)
(0.0966176 -0.000386134 0)
(0.0967783 -0.00035488 0)
(0.0969295 -0.000326333 0)
(0.0970719 -0.000300846 0)
(0.0972064 -0.000278554 0)
(0.0973339 -0.000259354 0)
(0.0974555 -0.000242931 0)
(0.0975719 -0.000228828 0)
(0.097684 -0.000216527 0)
(0.0977922 -0.000205532 0)
(0.0978969 -0.000195421 0)
(0.0979983 -0.000185884 0)
(0.0980965 -0.000176715 0)
(0.0981915 -0.000167806 0)
(0.0982834 -0.000159114 0)
(0.0983722 -0.000150639 0)
(0.0984578 -0.000142403 0)
(0.0985402 -0.000134432 0)
(0.0986195 -0.000126752 0)
(0.0986957 -0.000119381 0)
(0.0987689 -0.000112331 0)
(0.098839 -0.000105605 0)
(0.0989063 -9.92044e-05 0)
(0.0908791 -0.00195338 0)
(0.091277 -0.00182922 0)
(0.0916587 -0.00171398 0)
(0.0920249 -0.00160706 0)
(0.0923764 -0.00150786 0)
(0.0927139 -0.0014158 0)
(0.0930382 -0.00133034 0)
(0.0933498 -0.00125099 0)
(0.0936494 -0.00117723 0)
(0.0939375 -0.00110857 0)
(0.0942148 -0.00104447 0)
(0.0944816 -0.000984388 0)
(0.0947383 -0.000927734 0)
(0.0949853 -0.000873899 0)
(0.0952228 -0.000822277 0)
(0.0954508 -0.000772309 0)
(0.0956694 -0.000723541 0)
(0.0958785 -0.000675688 0)
(0.0960778 -0.000628691 0)
(0.0962674 -0.000582741 0)
(0.0964471 -0.000538268 0)
(0.096617 -0.000495878 0)
(0.0967774 -0.000456245 0)
(0.0969288 -0.000419982 0)
(0.0970717 -0.000387524 0)
(0.0972069 -0.000359039 0)
(0.0973354 -0.000334403 0)
(0.0974579 -0.000313237 0)
(0.0975752 -0.000294982 0)
(0.097688 -0.000279004 0)
(0.0977967 -0.000264693 0)
(0.0979018 -0.00025153 0)
(0.0980034 -0.000239125 0)
(0.0981016 -0.000227224 0)
(0.0981966 -0.000215686 0)
(0.0982884 -0.000204453 0)
(0.098377 -0.000193521 0)
(0.0984623 -0.000182912 0)
(0.0985445 -0.000172656 0)
(0.0986235 -0.000162783 0)
(0.0986994 -0.000153312 0)
(0.0987723 -0.000144256 0)
(0.0988423 -0.00013562 0)
(0.0989093 -0.000127402 0)
(0.0910266 -0.00235381 0)
(0.091409 -0.00220621 0)
(0.0917768 -0.00206903 0)
(0.0921305 -0.00194153 0)
(0.0924709 -0.001823 0)
(0.0927983 -0.00171279 0)
(0.0931134 -0.00161032 0)
(0.0934166 -0.001515 0)
(0.0937085 -0.00142626 0)
(0.0939895 -0.00134353 0)
(0.0942601 -0.00126621 0)
(0.0945207 -0.00119366 0)
(0.0947717 -0.00112521 0)
(0.0950133 -0.00106015 0)
(0.0952457 -0.000997793 0)
(0.095469 -0.000937481 0)
(0.0956834 -0.000878688 0)
(0.0958887 -0.000821081 0)
(0.0960849 -0.00076458 0)
(0.0962719 -0.000709396 0)
(0.0964497 -0.000656014 0)
(0.0966184 -0.000605121 0)
(0.0967782 -0.000557486 0)
(0.0969295 -0.000513813 0)
(0.0970729 -0.000474602 0)
(0.0972088 -0.000440051 0)
(0.0973382 -0.000410025 0)
(0.0974617 -0.000384091 0)
(0.0975799 -0.000361611 0)
(0.0976934 -0.000341855 0)
(0.0978027 -0.000324118 0)
(0.0979081 -0.000307796 0)
(0.0980099 -0.000292434 0)
(0.0981082 -0.000277727 0)
(0.0982031 -0.000263505 0)
(0.0982946 -0.000249694 0)
(0.0983829 -0.000236281 0)
(0.098468 -0.000223287 0)
(0.0985498 -0.000210742 0)
(0.0986285 -0.000198676 0)
(0.0987041 -0.000187109 0)
(0.0987767 -0.000176055 0)
(0.0988463 -0.000165516 0)
(0.0989131 -0.000155488 0)
(0.0911937 -0.00273667 0)
(0.0915594 -0.00256791 0)
(0.0919123 -0.00241071 0)
(0.0922526 -0.00226421 0)
(0.0925807 -0.00212769 0)
(0.092897 -0.00200048 0)
(0.0932019 -0.00188196 0)
(0.0934958 -0.0017715 0)
(0.093779 -0.00166849 0)
(0.094052 -0.0015723 0)
(0.0943151 -0.00148229 0)
(0.0945687 -0.00139773 0)
(0.0948131 -0.0013179 0)
(0.0950485 -0.00124202 0)
(0.0952751 -0.00116931 0)
(0.0954931 -0.00109906 0)
(0.0957026 -0.00103067 0)
(0.0959036 -0.000963776 0)
(0.096096 -0.000898265 0)
(0.09628 -0.00083436 0)
(0.0964555 -0.000772578 0)
(0.0966227 -0.000713664 0)
(0.0967816 -0.000658454 0)
(0.0969326 -0.000607718 0)
(0.0970762 -0.000562008 0)
(0.0972128 -0.000521546 0)
(0.0973429 -0.000486191 0)
(0.0974673 -0.000455476 0)
(0.0975863 -0.000428702 0)
(0.0977005 -0.000405067 0)
(0.0978103 -0.00038379 0)
(0.097916 -0.0003642 0)
(0.0980179 -0.000345783 0)
(0.0981161 -0.000328194 0)
(0.0982108 -0.000311231 0)
(0.0983021 -0.000294803 0)
(0.0983901 -0.000278886 0)
(0.0984747 -0.000263494 0)
(0.0985562 -0.000248656 0)
(0.0986345 -0.0002344 0)
(0.0987097 -0.000220744 0)
(0.0987819 -0.000207699 0)
(0.0988512 -0.000195267 0)
(0.0989176 -0.000183441 0)
(0.0913807 -0.00311005 0)
(0.0917293 -0.00292206 0)
(0.0920666 -0.00274622 0)
(0.0923926 -0.00258182 0)
(0.0927076 -0.00242822 0)
(0.0930118 -0.00228476 0)
(0.0933055 -0.00215081 0)
(0.0935891 -0.00202572 0)
(0.0938627 -0.00190885 0)
(0.0941267 -0.00179955 0)
(0.0943815 -0.0016971 0)
(0.0946272 -0.00160077 0)
(0.0948641 -0.00150976 0)
(0.0950925 -0.00142324 0)
(0.0953127 -0.00134037 0)
(0.0955246 -0.00126039 0)
(0.0957286 -0.00118266 0)
(0.0959246 -0.00110675 0)
(0.0961128 -0.00103256 0)
(0.0962932 -0.000960281 0)
(0.0964659 -0.000890456 0)
(0.0966311 -0.000823857 0)
(0.0967887 -0.00076136 0)
(0.0969392 -0.000703779 0)
(0.0970827 -0.000651701 0)
(0.0972196 -0.00060537 0)
(0.0973503 -0.000564644 0)
(0.0974753 -0.000529034 0)
(0.0975949 -0.000497805 0)
(0.0977097 -0.000470103 0)
(0.0978198 -0.000445092 0)
(0.0979257 -0.000422047 0)
(0.0980276 -0.000400407 0)
(0.0981257 -0.000379789 0)
(0.0982202 -0.000359964 0)
(0.0983111 -0.000340817 0)
(0.0983986 -0.000322313 0)
(0.0984828 -0.000304457 0)
(0.0985638 -0.000287269 0)
(0.0986416 -0.000270774 0)
(0.0987163 -0.000254987 0)
(0.0987881 -0.000239916 0)
(0.0988569 -0.000225557 0)
(0.0989229 -0.000211902 0)
(0.0915873 -0.00347389 0)
(0.0919187 -0.00326753 0)
(0.0922399 -0.00307403 0)
(0.092551 -0.00289273 0)
(0.092852 -0.00272295 0)
(0.0931433 -0.00256404 0)
(0.093425 -0.00241534 0)
(0.0936973 -0.00227622 0)
(0.0939605 -0.002146 0)
(0.0942147 -0.00202399 0)
(0.0944602 -0.00190948 0)
(0.0946973 -0.00180167 0)
(0.0949261 -0.00169975 0)
(0.0951468 -0.00160284 0)
(0.0953597 -0.00151008 0)
(0.095565 -0.00142065 0)
(0.0957628 -0.00133389 0)
(0.0959533 -0.00124934 0)
(0.0961367 -0.00116686 0)
(0.096313 -0.00108663 0)
(0.0964824 -0.00100919 0)
(0.096645 -0.000935308 0)
(0.0968009 -0.000865877 0)
(0.0969503 -0.000801729 0)
(0.0970933 -0.000743466 0)
(0.0972301 -0.000691349 0)
(0.0973611 -0.000645243 0)
(0.0974864 -0.000604652 0)
(0.0976064 -0.000568823 0)
(0.0977214 -0.000536878 0)
(0.0978318 -0.000507945 0)
(0.0979377 -0.000481262 0)
(0.0980394 -0.000456233 0)
(0.0981372 -0.000432442 0)
(0.0982313 -0.000409633 0)
(0.0983217 -0.000387669 0)
(0.0984087 -0.000366497 0)
(0.0984923 -0.000346111 0)
(0.0985727 -0.000326521 0)
(0.0986499 -0.000307743 0)
(0.0987241 -0.000289787 0)
(0.0987953 -0.000272655 0)
(0.0988636 -0.00025634 0)
(0.0989291 -0.000240828 0)
(0.0918095 -0.00381904 0)
(0.0921234 -0.00359573 0)
(0.0924281 -0.00338597 0)
(0.0927237 -0.00318908 0)
(0.0930104 -0.00300436 0)
(0.0932882 -0.00283114 0)
(0.0935573 -0.00266874 0)
(0.0938179 -0.00251652 0)
(0.0940701 -0.00237378 0)
(0.094314 -0.00223982 0)
(0.0945498 -0.00211391 0)
(0.0947778 -0.00199524 0)
(0.094998 -0.00188297 0)
(0.0952106 -0.00177621 0)
(0.0954159 -0.00167407 0)
(0.0956141 -0.00157573 0)
(0.0958054 -0.00148048 0)
(0.09599 -0.00138786 0)
(0.0961681 -0.00129769 0)
(0.0963399 -0.00121013 0)
(0.0965055 -0.00112568 0)
(0.0966651 -0.0010451 0)
(0.0968187 -0.000969266 0)
(0.0969665 -0.000898995 0)
(0.0971085 -0.000834897 0)
(0.0972448 -0.000777238 0)
(0.0973755 -0.000725895 0)
(0.0975008 -0.000680381 0)
(0.0976208 -0.000639945 0)
(0.0977358 -0.000603705 0)
(0.097846 -0.000570775 0)
(0.0979517 -0.000540376 0)
(0.0980531 -0.000511886 0)
(0.0981504 -0.000484865 0)
(0.0982439 -0.000459028 0)
(0.0983337 -0.000434221 0)
(0.09842 -0.00041037 0)
(0.098503 -0.000387451 0)
(0.0985827 -0.000365464 0)
(0.0986593 -0.000344415 0)
(0.0987328 -0.000324305 0)
(0.0988034 -0.000305131 0)
(0.0988711 -0.000286878 0)
(0.0989361 -0.000269528 0)
(0.0920477 -0.00414467 0)
(0.0923433 -0.00390602 0)
(0.0926309 -0.00368149 0)
(0.0929105 -0.00347039 0)
(0.0931823 -0.00327199 0)
(0.0934461 -0.0030856 0)
(0.0937022 -0.00291055 0)
(0.0939506 -0.00274617 0)
(0.0941913 -0.00259177 0)
(0.0944245 -0.00244664 0)
(0.0946502 -0.00231002 0)
(0.0948686 -0.00218112 0)
(0.0950798 -0.00205909 0)
(0.0952841 -0.00194303 0)
(0.0954815 -0.00183206 0)
(0.0956723 -0.00172534 0)
(0.0958567 -0.00162216 0)
(0.096035 -0.00152204 0)
(0.0962075 -0.00142476 0)
(0.0963744 -0.00133047 0)
(0.0965358 -0.00123961 0)
(0.0966919 -0.0011529 0)
(0.0968428 -0.00107117 0)
(0.0969885 -0.000995221 0)
(0.0971289 -0.000925643 0)
(0.0972641 -0.000862706 0)
(0.0973941 -0.000806297 0)
(0.0975188 -0.00075595 0)
(0.0976384 -0.000710936 0)
(0.0977529 -0.000670385 0)
(0.0978627 -0.000633419 0)
(0.0979678 -0.000599254 0)
(0.0980686 -0.000567255 0)
(0.0981653 -0.000536964 0)
(0.0982581 -0.000508074 0)
(0.0983472 -0.000480409 0)
(0.0984327 -0.000453874 0)
(0.0985149 -0.000428428 0)
(0.0985939 -0.000404056 0)
(0.0986697 -0.000380752 0)
(0.0987425 -0.000358508 0)
(0.0988124 -0.000337311 0)
(0.0988795 -0.000317141 0)
(0.0989438 -0.000297974 0)
(0.0923013 -0.00444987 0)
(0.0925778 -0.00419766 0)
(0.0928477 -0.00395996 0)
(0.0931108 -0.00373608 0)
(0.093367 -0.00352532 0)
(0.0936165 -0.00332696 0)
(0.0938591 -0.00314034 0)
(0.0940948 -0.00296478 0)
(0.0943236 -0.0027996 0)
(0.0945457 -0.00264409 0)
(0.094761 -0.0024975 0)
(0.0949695 -0.00235904 0)
(0.0951715 -0.00222785 0)
(0.095367 -0.00210307 0)
(0.0955562 -0.00198382 0)
(0.0957394 -0.00186927 0)
(0.0959168 -0.00175871 0)
(0.0960886 -0.00165164 0)
(0.0962552 -0.00154783 0)
(0.0964168 -0.00144737 0)
(0.0965736 -0.00135066 0)
(0.0967258 -0.00125835 0)
(0.0968734 -0.00117123 0)
(0.0970164 -0.00109003 0)
(0.0971547 -0.00101533 0)
(0.0972883 -0.000947392 0)
(0.0974169 -0.000886114 0)
(0.0975405 -0.000831059 0)
(0.0976592 -0.000781532 0)
(0.0977729 -0.000736695 0)
(0.0978818 -0.00069569 0)
(0.0979862 -0.000657742 0)
(0.0980861 -0.000622216 0)
(0.098182 -0.000588639 0)
(0.0982739 -0.000556687 0)
(0.098362 -0.000526163 0)
(0.0984467 -0.000496951 0)
(0.098528 -0.000468992 0)
(0.0986061 -0.000442253 0)
(0.0986811 -0.000416715 0)
(0.0987532 -0.00039236 0)
(0.0988223 -0.000369164 0)
(0.0988887 -0.000347101 0)
(0.0989523 -0.00032614 0)
(0.0925693 -0.00473388 0)
(0.0928262 -0.00446995 0)
(0.0930777 -0.00422076 0)
(0.0933237 -0.00398563 0)
(0.093564 -0.00376386 0)
(0.0937985 -0.00355477 0)
(0.0940272 -0.00335769 0)
(0.0942498 -0.00317198 0)
(0.0944665 -0.00299695 0)
(0.0946771 -0.00283189 0)
(0.0948816 -0.00267609 0)
(0.0950801 -0.00252875 0)
(0.0952725 -0.00238906 0)
(0.0954591 -0.00225616 0)
(0.09564 -0.0021292 0)
(0.0958153 -0.00200737 0)
(0.0959854 -0.00188997 0)
(0.0961505 -0.00177649 0)
(0.096311 -0.00166668 0)
(0.096467 -0.00156059 0)
(0.0966189 -0.00145855 0)
(0.0967667 -0.00136115 0)
(0.0969106 -0.00126908 0)
(0.0970504 -0.00118305 0)
(0.097186 -0.00110359 0)
(0.0973173 -0.00103093 0)
(0.097444 -0.000965001 0)
(0.0975661 -0.000905396 0)
(0.0976833 -0.000851461 0)
(0.0977958 -0.000802401 0)
(0.0979035 -0.000757392 0)
(0.0980068 -0.000715681 0)
(0.0981056 -0.000676637 0)
(0.0982004 -0.000639783 0)
(0.0982912 -0.00060478 0)
(0.0983784 -0.000571411 0)
(0.098462 -0.000539541 0)
(0.0985423 -0.00050909 0)
(0.0986195 -0.00048001 0)
(0.0986936 -0.000452265 0)
(0.0987647 -0.000425825 0)
(0.0988331 -0.000400658 0)
(0.0988986 -0.000376729 0)
(0.0989616 -0.000354 0)
(0.0928503 -0.00499611 0)
(0.0930871 -0.00472235 0)
(0.0933198 -0.00446336 0)
(0.0935482 -0.00421852 0)
(0.0937721 -0.00398716 0)
(0.0939914 -0.00376861 0)
(0.0942057 -0.00356225 0)
(0.094415 -0.00336743 0)
(0.0946191 -0.0031835 0)
(0.0948179 -0.00300977 0)
(0.0950114 -0.00284555 0)
(0.0951995 -0.00269006 0)
(0.0953823 -0.00254253 0)
(0.0955598 -0.00240214 0)
(0.0957322 -0.00226805 0)
(0.0958996 -0.00213949 0)
(0.0960622 -0.00201578 0)
(0.0962205 -0.00189642 0)
(0.0963745 -0.00178112 0)
(0.0965248 -0.00166989 0)
(0.0966714 -0.00156301 0)
(0.0968145 -0.00146097 0)
(0.0969542 -0.00136441 0)
(0.0970903 -0.00127394 0)
(0.0972227 -0.00119004 0)
(0.0973512 -0.00111296 0)
(0.0974755 -0.00104262 0)
(0.0975954 -0.000978649 0)
(0.0977108 -0.000920446 0)
(0.0978216 -0.000867265 0)
(0.0979278 -0.000818327 0)
(0.0980296 -0.000772905 0)
(0.0981271 -0.000730385 0)
(0.0982206 -0.000690287 0)
(0.0983102 -0.000652264 0)
(0.0983961 -0.000616081 0)
(0.0984786 -0.000581583 0)
(0.0985578 -0.000548672 0)
(0.0986339 -0.000517282 0)
(0.098707 -0.000487362 0)
(0.0987773 -0.000458869 0)
(0.0988447 -0.000431762 0)
(0.0989094 -0.000405997 0)
(0.0989716 -0.000381529 0)
(0.0931425 -0.00523619 0)
(0.0933588 -0.00495446 0)
(0.0935724 -0.00468738 0)
(0.093783 -0.00443439 0)
(0.0939903 -0.00419486 0)
(0.0941938 -0.00396816 0)
(0.0943936 -0.00375369 0)
(0.0945892 -0.00355085 0)
(0.0947805 -0.00335901 0)
(0.0949673 -0.00317752 0)
(0.0951496 -0.00300569 0)
(0.0953272 -0.00284282 0)
(0.0955001 -0.00268814 0)
(0.0956684 -0.00254089 0)
(0.0958321 -0.00240027 0)
(0.0959914 -0.00226554 0)
(0.0961466 -0.00213606 0)
(0.0962978 -0.0020113 0)
(0.0964453 -0.001891 0)
(0.0965895 -0.0017751 0)
(0.0967306 -0.00166382 0)
(0.0968687 -0.00155757 0)
(0.0970038 -0.0014569 0)
(0.0971358 -0.00136236 0)
(0.0972646 -0.00127437 0)
(0.0973898 -0.00119316 0)
(0.0975112 -0.00111865 0)
(0.0976285 -0.00105053 0)
(0.0977416 -0.000988225 0)
(0.0978503 -0.00093106 0)
(0.0979546 -0.0008783 0)
(0.0980547 -0.000829253 0)
(0.0981506 -0.000783325 0)
(0.0982425 -0.000740042 0)
(0.0983307 -0.000699049 0)
(0.0984153 -0.000660097 0)
(0.0984965 -0.000623015 0)
(0.0985745 -0.000587685 0)
(0.0986495 -0.000554023 0)
(0.0987215 -0.000521967 0)
(0.0987907 -0.000491459 0)
(0.0988572 -0.000462446 0)
(0.098921 -0.000434878 0)
(0.0989823 -0.000408702 0)
(0.0934439 -0.00545393 0)
(0.0936397 -0.00516605 0)
(0.0938341 -0.00489258 0)
(0.0940266 -0.00463299 0)
(0.0942169 -0.00438671 0)
(0.0944047 -0.00415316 0)
(0.0945896 -0.00393179 0)
(0.0947713 -0.00372203 0)
(0.0949496 -0.00352328 0)
(0.0951243 -0.00333495 0)
(0.0952952 -0.00315637 0)
(0.0954621 -0.00298689 0)
(0.0956251 -0.00282578 0)
(0.095784 -0.00267233 0)
(0.095939 -0.00252578 0)
(0.0960902 -0.00238545 0)
(0.0962377 -0.0022507 0)
(0.0963817 -0.00212105 0)
(0.0965227 -0.0019962 0)
(0.0966607 -0.00187606 0)
(0.096796 -0.00176078 0)
(0.0969288 -0.00165071 0)
(0.097059 -0.0015463 0)
(0.0971865 -0.00144803 0)
(0.0973112 -0.00135627 0)
(0.0974327 -0.00127122 0)
(0.0975507 -0.00119281 0)
(0.0976651 -0.00112076 0)
(0.0977754 -0.00105456 0)
(0.0978817 -0.000993574 0)
(0.0979838 -0.000937129 0)
(0.0980819 -0.000884572 0)
(0.0981759 -0.000835332 0)
(0.0982662 -0.000788943 0)
(0.0983528 -0.000745049 0)
(0.0984359 -0.000703389 0)
(0.0985157 -0.000663776 0)
(0.0985924 -0.000626077 0)
(0.0986661 -0.000590192 0)
(0.098737 -0.000556042 0)
(0.0988051 -0.000523558 0)
(0.0988705 -0.00049268 0)
(0.0989334 -0.000463344 0)
(0.0989938 -0.000435494 0)
(0.0937523 -0.00564938 0)
(0.0939277 -0.00535711 0)
(0.0941029 -0.00507887 0)
(0.0942773 -0.0048142 0)
(0.0944507 -0.00456257 0)
(0.0946226 -0.00432348 0)
(0.0947925 -0.0040964 0)
(0.0949602 -0.00388081 0)
(0.0951254 -0.00367618 0)
(0.0952878 -0.00348193 0)
(0.0954472 -0.00329747 0)
(0.0956034 -0.00312217 0)
(0.0957563 -0.00295536 0)
(0.0959058 -0.00279637 0)
(0.096052 -0.00264452 0)
(0.0961949 -0.00249914 0)
(0.0963347 -0.00235965 0)
(0.0964716 -0.00222558 0)
(0.0966058 -0.00209661 0)
(0.0967375 -0.00197264 0)
(0.0968669 -0.00185375 0)
(0.0969941 -0.00174021 0)
(0.0971191 -0.00163241 0)
(0.0972419 -0.00153073 0)
(0.0973621 -0.0014355 0)
(0.0974796 -0.00134689 0)
(0.097594 -0.00126485 0)
(0.0977049 -0.00118912 0)
(0.0978123 -0.00111923 0)
(0.0979158 -0.00105462 0)
(0.0980154 -0.000994651 0)
(0.0981112 -0.000938721 0)
(0.0982032 -0.000886286 0)
(0.0982915 -0.000836891 0)
(0.0983764 -0.00079018 0)
(0.0984579 -0.000745886 0)
(0.0985362 -0.000703808 0)
(0.0986115 -0.000663798 0)
(0.0986838 -0.000625742 0)
(0.0987535 -0.000589548 0)
(0.0988204 -0.000555136 0)
(0.0988847 -0.000522433 0)
(0.0989466 -0.00049137 0)
(0.099006 -0.000461881 0)
(0.0940657 -0.00582278 0)
(0.0942209 -0.0055278 0)
(0.094377 -0.00524635 0)
(0.0945336 -0.00497805 0)
(0.0946901 -0.00472244 0)
(0.094846 -0.00447906 0)
(0.0950011 -0.00424745 0)
(0.0951548 -0.00402713 0)
(0.0953068 -0.00381763 0)
(0.0954569 -0.00361841 0)
(0.0956047 -0.00342892 0)
(0.0957501 -0.0032486 0)
(0.0958929 -0.00307683 0)
(0.0960329 -0.00291298 0)
(0.0961703 -0.00275644 0)
(0.0963049 -0.00260658 0)
(0.0964369 -0.00246286 0)
(0.0965665 -0.00232483 0)
(0.0966939 -0.00219217 0)
(0.0968192 -0.00206474 0)
(0.0969425 -0.0019426 0)
(0.097064 -0.00182593 0)
(0.0971837 -0.00171504 0)
(0.0973015 -0.00161026 0)
(0.097417 -0.00151186 0)
(0.0975301 -0.00141998 0)
(0.0976405 -0.00133457 0)
(0.0977478 -0.0012554 0)
(0.0978518 -0.00118206 0)
(0.0979523 -0.00111402 0)
(0.0980492 -0.00105072 0)
(0.0981425 -0.000991573 0)
(0.0982322 -0.000936077 0)
(0.0983185 -0.000883792 0)
(0.0984014 -0.000834365 0)
(0.0984812 -0.000787522 0)
(0.0985579 -0.000743055 0)
(0.0986316 -0.000700801 0)
(0.0987026 -0.000660634 0)
(0.0987709 -0.00062245 0)
(0.0988366 -0.000586159 0)
(0.0988998 -0.000551677 0)
(0.0989606 -0.000518928 0)
(0.099019 -0.000487841 0)
(0.0943818 -0.00597457 0)
(0.0945174 -0.00567844 0)
(0.0946548 -0.00539526 0)
(0.0947937 -0.00512472 0)
(0.0949336 -0.00486643 0)
(0.0950738 -0.00461998 0)
(0.095214 -0.00438498 0)
(0.0953537 -0.004161 0)
(0.0954926 -0.00394761 0)
(0.0956304 -0.00374434 0)
(0.0957666 -0.0035507 0)
(0.0959012 -0.00336615 0)
(0.0960339 -0.00319015 0)
(0.0961644 -0.00302213 0)
(0.0962929 -0.00286151 0)
(0.0964192 -0.00270774 0)
(0.0965435 -0.00256029 0)
(0.0966658 -0.00241875 0)
(0.0967862 -0.00228281 0)
(0.096905 -0.00215231 0)
(0.0970222 -0.00202724 0)
(0.0971379 -0.00190775 0)
(0.0972521 -0.00179408 0)
(0.0973647 -0.00168648 0)
(0.0974753 -0.00158519 0)
(0.0975839 -0.00149031 0)
(0.0976901 -0.0014018 0)
(0.0977935 -0.00131945 0)
(0.0978939 -0.00124289 0)
(0.0979912 -0.00117165 0)
(0.0980851 -0.0011052 0)
(0.0981757 -0.00104301 0)
(0.098263 -0.000984609 0)
(0.0983471 -0.000929563 0)
(0.098428 -0.000877531 0)
(0.0985058 -0.000828236 0)
(0.0985808 -0.000781462 0)
(0.0986529 -0.000737039 0)
(0.0987224 -0.000694827 0)
(0.0987893 -0.000654713 0)
(0.0988537 -0.000616595 0)
(0.0989157 -0.000580384 0)
(0.0989753 -0.000545995 0)
(0.0990327 -0.000513351 0)
(0.094699 -0.00610535 0)
(0.0948153 -0.00580951 0)
(0.0949346 -0.00552598 0)
(0.0950563 -0.0052545 0)
(0.0951797 -0.00499476 0)
(0.0953045 -0.00474641 0)
(0.09543 -0.00450911 0)
(0.0955559 -0.0042825 0)
(0.0956819 -0.0040662 0)
(0.0958074 -0.00385978 0)
(0.0959322 -0.00366282 0)
(0.0960559 -0.00347483 0)