/*--------------------------------*- C++ -*----------------------------------*\
| =========                 |                                                 |
| \\      /  F ield         | OpenFOAM: The Open Source CFD Toolbox           |
|  \\    /   O peration     | Version:  2412                                  |
|   \\  /    A nd           | Website:  www.openfoam.com                      |
|    \\/     M anipulation  |                                                 |
\*---------------------------------------------------------------------------*/
FoamFile
{
    version     2.0;
    format      ascii;
    arch        "LSB;label=32;scalar=64";
    class       volVectorField;
    location    "13";
    object      vorticity;
}
// * * * * * * * * * * * * * * * * * * * * * * * * * * * * * * * * * * * * * //

dimensions      [0 0 -1 0 0 0 0];

internalField   nonuniform List<vector> 
5285
(
(4.80387e-22 3.76101e-21 -0.00743606)
(-3.37527e-22 4.36721e-24 -0.0065707)
(3.5086e-22 4.38025e-21 -0.00576936)
(-7.42618e-23 2.80381e-24 -0.00503428)
(-2.41166e-23 5.27455e-26 -0.0043664)
(-2.59129e-24 1.27361e-24 -0.00376501)
(2.02036e-22 5.26704e-21 -0.00322806)
(2.77165e-24 -3.32426e-24 -0.00275257)
(-1.7702e-22 -5.63651e-21 -0.0023349)
(1.68691e-22 5.80725e-21 -0.0019709)
(-2.20508e-22 -5.94564e-21 -0.00165611)
(7.96189e-22 5.54343e-20 -0.00138589)
(-7.1025e-22 -5.57341e-20 -0.00115556)
(-3.08004e-22 -4.49832e-20 -0.000960552)
(7.19629e-22 9.73837e-20 -0.000796456)
(-3.9846e-22 -5.25047e-20 -0.000659129)
(-6.30732e-23 -6.69982e-21 -0.000544741)
(5.88771e-23 6.82019e-21 -0.00044981)
(-2.15087e-23 -2.56417e-25 -0.00037122)
(1.02574e-22 6.99104e-21 -0.000306232)
(-1.92406e-22 -3.55058e-20 -0.00025247)
(1.80674e-22 3.56545e-20 -0.000207904)
(-4.81666e-23 -7.23383e-21 -0.000170822)
(1.06085e-22 2.1943e-20 -0.000139797)
(4.07988e-24 -7.31463e-21 -0.000113649)
(-6.80141e-23 -1.48728e-20 -9.13944e-05)
(2.01372e-23 7.46416e-21 -7.2198e-05)
(-4.19643e-23 -7.54444e-21 -5.53541e-05)
(2.45935e-20 2.47208e-19 -0.021827)
(-2.71446e-20 -2.67408e-19 -0.0192756)
(2.36228e-20 2.85827e-19 -0.0169151)
(-1.26558e-20 -1.38212e-19 -0.0147524)
(-2.18468e-20 -3.12652e-19 -0.0127892)
(1.06242e-20 1.59902e-19 -0.0110229)
(-2.18904e-22 -5.2907e-21 -0.00944695)
(-6.58898e-22 -1.10323e-20 -0.00805235)
(8.56615e-23 5.65218e-21 -0.00682805)
(-8.05725e-22 -1.74649e-20 -0.00576163)
(6.29592e-21 1.87639e-19 -0.00483979)
(-1.30696e-20 -3.98618e-19 -0.00404876)
(5.80528e-21 1.92513e-19 -0.00337476)
(-6.61787e-22 -1.92832e-20 -0.00280427)
(2.00351e-22 6.51597e-21 -0.00232434)
(-1.56556e-23 -3.38473e-23 -0.0019228)
(-2.38499e-21 -1.15065e-19 -0.0015884)
(2.02804e-21 1.01772e-19 -0.00131092)
(1.44057e-21 9.73256e-20 -0.00108124)
(-2.11068e-21 -1.32469e-19 -0.000891334)
(5.6594e-23 7.11249e-21 -0.00073425)
(4.10137e-22 3.59851e-20 -0.000604045)
(-8.96995e-22 -6.48218e-20 -0.000495716)
(-2.43916e-23 -7.28563e-21 -0.000405089)
(-5.43439e-22 -5.15886e-20 -0.000328708)
(-1.13565e-22 -7.59737e-21 -0.000263686)
(1.38847e-22 1.48208e-20 -0.000207532)
(1.62318e-22 2.25392e-20 -0.000158022)
(-4.28166e-20 -2.61274e-19 -0.0348574)
(4.53701e-20 2.76654e-19 -0.0307469)
(1.3229e-21 9.66715e-21 -0.0269524)
(-1.32334e-21 -9.68603e-21 -0.0234817)
(1.20798e-21 1.00859e-20 -0.0203368)
(-3.14469e-20 -3.28635e-19 -0.0175116)
(3.29226e-20 3.39536e-19 -0.0149944)
(-2.66792e-20 -3.39926e-19 -0.0127698)
(2.85423e-20 3.62889e-19 -0.0108191)
(6.31894e-22 1.18161e-20 -0.00912174)
(2.25377e-20 3.91482e-19 -0.0076559)
(-4.29652e-20 -7.80286e-19 -0.00639918)
(2.13373e-20 4.13853e-19 -0.00532926)
(9.62229e-21 2.20556e-19 -0.00442435)
(-8.50584e-21 -1.9508e-19 -0.00366361)
(2.05082e-22 6.04121e-23 -0.00302755)
(-3.10448e-22 -4.57826e-23 -0.00249815)
(-2.04173e-23 4.68599e-23 -0.00205911)
(5.84984e-21 2.22927e-19 -0.00169589)
(-5.68236e-21 -2.09328e-19 -0.0013957)
(4.26006e-22 1.42364e-20 -0.00114748)
(-1.81698e-22 -1.38306e-23 -0.000941803)
(2.08567e-21 1.15925e-19 -0.00077072)
(-3.8859e-21 -2.18481e-19 -0.000627621)
(1.91996e-21 1.17087e-19 -0.000507018)
(-9.63599e-22 -5.9374e-20 -0.000404301)
(7.22238e-22 4.44615e-20 -0.000315374)
(1.73474e-22 1.49053e-20 -0.000236202)
(3.81219e-22 -1.32225e-23 -0.0458793)
(7.68063e-22 9.23831e-21 -0.040396)
(1.35631e-21 2.98574e-22 -0.0353514)
(1.41777e-21 9.98708e-21 -0.0307504)
(-9.89432e-20 -6.84402e-19 -0.0265904)
(9.80534e-20 6.74364e-19 -0.022862)
(-7.34687e-23 1.14416e-22 -0.0195473)
(-3.93681e-20 -3.70346e-19 -0.0166234)
(4.11393e-20 3.82625e-19 -0.0140641)
(6.73973e-23 -5.26275e-23 -0.0118408)
(-1.87885e-22 -2.37713e-22 -0.00992374)
(-3.02287e-20 -4.18218e-19 -0.00828251)
(5.71366e-20 8.32139e-19 -0.0068871)
(-5.15503e-20 -8.33583e-19 -0.00570837)
(4.77812e-20 8.46841e-19 -0.00471865)
(-4.38755e-20 -8.59099e-19 -0.00389205)
(2.08858e-20 4.32732e-19 -0.0032048)
(8.8419e-21 2.21302e-19 -0.00263543)
(-7.79302e-21 -1.93749e-19 -0.00216482)
(-6.05235e-22 -1.40813e-20 -0.00177621)
(-6.88679e-21 -2.27949e-19 -0.00145513)
(1.434e-20 4.86782e-19 -0.00118927)
(-6.57854e-21 -2.30179e-19 -0.000968256)
(8.25111e-23 6.05829e-23 -0.000783491)
(2.84571e-22 1.46324e-20 -0.000627825)
(-7.9044e-23 -2.66254e-23 -0.000495192)
(-2.50031e-22 -1.4817e-20 -0.00037998)
(5.43266e-22 2.98275e-20 -0.000275926)
(-1.48931e-19 -6.37827e-19 -0.047919)
(1.45163e-19 6.16365e-19 -0.0418392)
(-9.52732e-22 8.90254e-22 -0.0363121)
(8.6099e-22 -2.01167e-24 -0.0313311)
(-1.87733e-21 -1.09388e-20 -0.0268798)
(-1.08696e-19 -7.4358e-19 -0.0229334)
(1.07265e-19 7.3129e-19 -0.0194615)
(-1.39484e-21 -1.19511e-20 -0.01643)
(-4.19534e-20 -3.85914e-19 -0.0138026)
(4.46207e-20 4.10685e-19 -0.0115419)
(-2.33849e-22 -5.68997e-23 -0.00961045)
(4.81239e-22 1.159e-22 -0.00797153)
(-1.58343e-22 -8.4919e-23 -0.00658973)
(-2.84851e-20 -4.31131e-19 -0.00543159)
(2.95489e-20 4.44653e-19 -0.00446603)
(-2.35853e-20 -4.27562e-19 -0.00366461)
(2.45483e-20 4.41024e-19 -0.00300173)
(-1.44016e-21 -2.80558e-20 -0.00245469)
(5.06761e-22 1.40883e-20 -0.00200364)
(1.58969e-22 4.39033e-23 -0.00163151)
(-4.49154e-22 -1.43024e-20 -0.00132379)
(4.31748e-22 1.4393e-20 -0.00106832)
(-3.94586e-21 -1.30907e-19 -0.000855002)
(6.80672e-21 2.33418e-19 -0.000675464)
(-4.87256e-21 -1.75853e-19 -0.000522522)
(1.52145e-21 5.87962e-20 -0.000389191)
(7.17046e-23 2.14206e-23 -0.000266523)
(1.78722e-19 6.69583e-19 -0.053295)
(-1.81366e-19 -6.65248e-19 -0.0463958)
(-1.60344e-19 -7.1565e-19 -0.0401505)
(1.58221e-19 7.00256e-19 -0.0345412)
(-7.82893e-22 6.54547e-22 -0.0295467)
(6.89014e-22 -1.2497e-22 -0.0251343)
(1.22486e-19 7.88623e-19 -0.0212652)
(-8.71282e-21 1.72604e-20 -0.0178975)
(-1.16868e-19 -8.27879e-19 -0.0149874)
(-9.88344e-20 -8.44448e-19 -0.0124907)
(1.84975e-19 1.66044e-18 -0.0103637)
(-4.93436e-20 -4.27952e-19 -0.00856364)
(-4.24829e-20 -4.40084e-19 -0.00705)
(-3.72945e-20 -4.64201e-19 -0.00578466)
(6.60496e-20 8.64067e-19 -0.00473242)
(-6.26008e-20 -8.99955e-19 -0.00386126)
(1.36452e-21 -1.82613e-20 -0.0031425)
(2.7011e-20 4.47997e-19 -0.00255081)
(2.3077e-20 4.54942e-19 -0.00206415)
(-3.50391e-20 -7.11546e-19 -0.00166362)
(1.97224e-20 4.4418e-19 -0.00133322)
(-1.04553e-20 -2.44067e-19 -0.00105957)
(9.0153e-21 2.46642e-19 -0.000831625)
(-8.93813e-21 -2.46252e-19 -0.000640211)
(4.16538e-22 1.45738e-20 -0.000477414)
(-2.15814e-21 -7.32818e-20 -0.000335117)
(8.74174e-22 2.91925e-20 -0.000201184)
(-2.22223e-19 -6.95859e-19 -0.0547279)
(2.00842e-21 -1.78684e-21 -0.0475107)
(7.30215e-22 -1.30674e-23 -0.0410013)
(1.78027e-21 1.22908e-20 -0.0351729)
(-1.66245e-19 -7.90242e-19 -0.0299975)
(1.65985e-19 7.86243e-19 -0.0254396)
(-3.07565e-22 5.23471e-22 -0.0214548)
(7.90221e-23 -1.51848e-24 -0.0179965)
(1.90658e-21 1.3028e-20 -0.0150166)
(-1.1203e-19 -8.41234e-19 -0.0124672)
(2.1978e-19 1.72855e-18 -0.0103012)
(-1.04409e-19 -8.60846e-19 -0.0084732)
(1.29431e-21 1.36061e-20 -0.00694017)
(1.16369e-21 1.37733e-20 -0.00566202)
(3.75067e-20 4.47204e-19 -0.00460191)
(-7.06585e-20 -8.81837e-19 -0.0037265)
(3.51646e-20 4.62599e-19 -0.00300606)
(-2.80827e-20 -4.40872e-19 -0.00241443)
(2.24712e-21 -3.58314e-21 -0.00192896)
(2.6682e-21 1.09121e-20 -0.00153028)
(2.52621e-20 4.71384e-19 -0.00120207)
(1.11134e-20 2.45071e-19 -0.00093074)
(-1.10297e-20 -2.44348e-19 -0.000705098)
(5.26869e-22 1.44415e-20 -0.000515898)
(4.17937e-21 1.16078e-19 -0.000355157)
(-3.69859e-21 -1.01199e-19 -0.00021437)
(4.35667e-22 1.45001e-20 -7.66239e-05)
(0 4.73203e-25 -3.08746e-05)
(0 -0 -2.06679e-05)
(0 -0 -1.20577e-05)
(0 -0 -4.78349e-06)
(0 -0 1.39771e-06)
(0 -0 6.72109e-06)
(0 -0 1.14176e-05)
(0 -0 1.57154e-05)
(0 -0 1.98399e-05)
(0 -0 2.40105e-05)
(0 -0 2.84302e-05)
(0 -0 3.32678e-05)
(0 -0 3.86306e-05)
(0 -0 4.45304e-05)
(0 -0 5.08496e-05)
(0 -0 5.73166e-05)
(0 -0 6.35029e-05)
(0 -0 6.88536e-05)
(0 -0 7.27554e-05)
(0 -0 7.46366e-05)
(0 -0 7.40817e-05)
(0 -0 7.09318e-05)
(0 -0 6.53419e-05)
(0 -0 5.7774e-05)
(0 -0 4.89232e-05)
(0 -0 3.95935e-05)
(0 -0 3.05576e-05)
(0 -0 2.24357e-05)
(0 -0 1.56225e-05)
(0 -0 1.02725e-05)
(0 -0 6.33521e-06)
(0 -0 3.62127e-06)
(0 -0 1.87418e-06)
(0 -0 8.3121e-07)
(0 -0 2.62913e-07)
(0 -0 -8.91255e-09)
(0 -0 -1.09844e-07)
(0 -0 -1.21011e-07)
(0 -0 -9.07105e-08)
(0 -0 -4.54456e-08)
(0 -0 1.55646e-09)
(0 -0 4.45143e-08)
(0 -0 8.14005e-08)
(0 -0 1.13182e-07)
(0 -1.50355e-24 -8.72647e-05)
(0 -0 -5.78486e-05)
(0 -0 -3.31111e-05)
(0 -0 -1.22714e-05)
(0 -0 5.40308e-06)
(0 -0 2.06172e-05)
(0 -0 3.40561e-05)
(0 -0 4.63909e-05)
(0 -0 5.8281e-05)
(0 -0 7.03651e-05)
(0 -0 8.3234e-05)
(0 -0 9.73775e-05)
(0 -0 0.000113105)
(0 -0 0.000130445)
(0 -0 0.000149046)
(0 -0 0.000168105)
(0 -0 0.000186355)
(0 -0 0.000202156)
(0 -0 0.000213698)
(0 -0 0.000219291)
(0 -0 0.000217706)
(0 -0 0.000208472)
(0 -0 0.000192041)
(0 -0 0.000169773)
(0 -0 0.000143718)
(0 -0 0.000116245)
(0 -0 8.96331e-05)
(0 -0 6.57128e-05)
(0 -0 4.56494e-05)
(0 -0 2.98995e-05)
(0 -0 1.83154e-05)
(0 -0 1.03384e-05)
(0 -0 5.21222e-06)
(0 -0 2.16178e-06)
(0 -0 5.1013e-07)
(0 -0 -2.68529e-07)
(0 -0 -5.44665e-07)
(0 -0 -5.57516e-07)
(0 -0 -4.49344e-07)
(0 -0 -2.98004e-07)
(0 -0 -1.4231e-07)
(0 -0 6.625e-10)
(0 -0 1.24608e-07)
(0 -0 2.32103e-07)
(0 -1.10255e-24 -0.000126972)
(0 -0 -8.19087e-05)
(0 -0 -4.4267e-05)
(0 -0 -1.27287e-05)
(0 -0 1.39364e-05)
(0 -0 3.68853e-05)
(0 -0 5.722e-05)
(0 -0 7.60043e-05)
(0 -0 9.42755e-05)
(0 -0 0.000113036)
(0 -0 0.000133213)
(0 -0 0.000155573)
(0 -0 0.000180597)
(0 -0 0.000208319)
(0 -0 0.000238164)
(0 -0 0.000268828)
(0 -0 0.000298264)
(0 -0 0.000323823)
(0 -0 0.000342576)
(0 -0 0.000351788)
(0 -0 0.000349463)
(0 -0 0.000334821)
(0 -0 0.000308576)
(0 -0 0.000272904)
(0 -0 0.000231095)
(0 -0 0.000186964)
(0 -0 0.000144184)
(0 -0 0.000105709)
(0 -0 7.34249e-05)
(0 -0 4.8074e-05)
(0 -0 2.94257e-05)
(0 -0 1.65847e-05)
(0 -0 8.33548e-06)
(0 -0 3.43067e-06)
(0 -0 7.79921e-07)
(0 -0 -4.64104e-07)
(0 -0 -8.98645e-07)
(0 -0 -9.09486e-07)
(0 -0 -7.2602e-07)
(0 -0 -4.73705e-07)
(0 -0 -2.15045e-07)
(0 -0 2.24416e-08)
(0 -0 2.28495e-07)
(0 -0 4.07353e-07)
(0 -1.38431e-24 -0.00014052)
(0 -0 -8.56314e-05)
(0 -0 -4.03256e-05)
(0 -0 -2.66782e-06)
(0 -0 2.90683e-05)
(0 -0 5.64324e-05)
(0 -0 8.08537e-05)
(0 -0 0.00010369)
(0 -0 0.000126256)
(0 -0 0.000149827)
(0 -0 0.00017558)
(0 -0 0.000204493)
(0 -0 0.000237172)
(0 -0 0.000273637)
(0 -0 0.000313106)
(0 -0 0.00035383)
(0 -0 0.000393073)
(0 -0 0.000427294)
(0 -0 0.000452574)
(0 -0 0.000465247)
(0 -0 0.000462621)
(0 -0 0.000443622)
(0 -0 0.000409163)
(0 -0 0.000362109)
(0 -0 0.000306819)
(0 -0 0.000248359)
(0 -0 0.000191621)
(0 -0 0.000140545)
(0 -0 9.76567e-05)
(0 -0 6.39613e-05)
(0 -0 3.91656e-05)
(0 -0 2.20888e-05)
(0 -0 1.11198e-05)
(0 -0 4.60176e-06)
(0 -0 1.08468e-06)
(0 -0 -5.59357e-07)
(0 -0 -1.12585e-06)
(0 -0 -1.12887e-06)
(0 -0 -8.74132e-07)
(0 -0 -5.28835e-07)
(0 -0 -1.76239e-07)
(0 -0 1.47049e-07)
(0 -0 4.27402e-07)
(0 -0 6.7108e-07)
(0 1.76571e-25 -0.000121078)
(0 -0 -6.44175e-05)
(0 -0 -1.84673e-05)
(0 -0 1.94215e-05)
(0 -0 5.13652e-05)
(0 -0 7.91277e-05)
(0 -0 0.000104288)
(0 -0 0.000128337)
(0 -0 0.000152729)
(0 -0 0.000178882)
(0 -0 0.000208124)
(0 -0 0.00024156)
(0 -0 0.000279863)
(0 -0 0.000323024)
(0 -0 0.000370073)
(0 -0 0.000418891)
(0 -0 0.000466172)
(0 -0 0.000507639)
(0 -0 0.000538548)
(0 -0 0.00055445)
(0 -0 0.000552057)
(0 -0 0.000530016)
(0 -0 0.000489366)
(0 -0 0.000433501)
(0 -0 0.000367622)
(0 -0 0.000297806)
(0 -0 0.000229933)
(0 -0 0.000168756)
(0 -0 0.000117335)
(0 -0 7.69061e-05)
(0 -0 4.71394e-05)
(0 -0 2.66334e-05)
(0 -0 1.34626e-05)
(0 -0 5.64142e-06)
(0 -0 1.42879e-06)
(0 -0 -5.3109e-07)
(0 -0 -1.1954e-06)
(0 -0 -1.18304e-06)
(0 -0 -8.62195e-07)
(0 -0 -4.34175e-07)
(0 -0 8.24075e-10)
(0 -0 3.9882e-07)
(0 -0 7.43493e-07)
(0 -0 1.04344e-06)
(0 -9.78723e-25 -6.59099e-05)
(0 -0 -1.79171e-05)
(0 -0 2.04925e-05)
(0 -0 5.22692e-05)
(0 -0 7.94358e-05)
(0 -0 0.000103588)
(0 -0 0.00012618)
(0 -0 0.000148633)
(0 -0 0.000172377)
(0 -0 0.000198848)
(0 -0 0.00022941)
(0 -0 0.000265209)
(0 -0 0.000306937)
(0 -0 0.000354532)
(0 -0 0.000406877)
(0 -0 0.000461568)
(0 -0 0.000514869)
(0 -0 0.000561944)
(0 -0 0.000597423)
(0 -0 0.000616247)
(0 -0 0.000614643)
(0 -0 0.00059101)
(0 -0 0.000546429)
(0 -0 0.000484642)
(0 -0 0.000411444)
(0 -0 0.000333638)
(0 -0 0.000257835)
(0 -0 0.0001894)
(0 -0 0.000131807)
(0 -0 8.64816e-05)
(0 -0 5.30872e-05)
(0 -0 3.00739e-05)
(0 -0 1.5294e-05)
(0 -0 6.52462e-06)
(0 -0 1.81211e-06)
(0 -0 -3.67185e-07)
(0 -0 -1.09019e-06)
(0 -0 -1.05378e-06)
(0 -0 -6.72728e-07)
(0 -0 -1.73739e-07)
(0 -0 3.30437e-07)
(0 -0 7.9046e-07)
(0 -0 1.1881e-06)
(0 -0 1.53457e-06)
(0 -2.21615e-25 2.01369e-05)
(0 -0 4.7198e-05)
(0 -0 7.08141e-05)
(0 -0 9.13023e-05)
(0 -0 0.000109818)
(0 -0 0.000127233)
(0 -0 0.000144627)
(0 -0 0.000163188)
(0 -0 0.000184194)
(0 -0 0.000208988)
(0 -0 0.000238883)
(0 -0 0.000274998)
(0 -0 0.000317994)
(0 -0 0.000367757)
(0 -0 0.000423063)
(0 -0 0.000481321)
(0 -0 0.000538518)
(0 -0 0.000589454)
(0 -0 0.00062834)
(0 -0 0.000649695)
(0 -0 0.000649393)
(0 -0 0.000625612)
(0 -0 0.0005794)
(0 -0 0.000514661)
(0 -0 0.000437521)
(0 -0 0.00035522)
(0 -0 0.000274825)
(0 -0 0.000202101)
(0 -0 0.000140804)
(0 -0 9.25072e-05)
(0 -0 5.68946e-05)
(0 -0 3.23425e-05)
(0 -0 1.6577e-05)
(0 -0 7.23293e-06)
(0 -0 2.22654e-06)
(0 -0 -7.06868e-08)
(0 -0 -8.11319e-07)
(0 -0 -7.41911e-07)
(0 -0 -3.0701e-07)
(0 -0 2.50415e-07)
(0 -0 8.09695e-07)
(0 -0 1.31827e-06)
(0 -0 1.75692e-06)
(0 -0 2.13927e-06)
(0 -0 0.000106175)
(0 -0 0.000115854)
(0 -0 0.000123586)
(0 -0 0.000130978)
(0 -0 0.000138764)
(0 -0 0.000147606)
(0 -0 0.000158086)
(0 -0 0.000171123)
(0 -0 0.000187792)
(0 -0 0.000209283)
(0 -0 0.000236801)
(0 -0 0.000271388)
(0 -0 0.000313653)
(0 -0 0.000363437)
(0 -0 0.000419456)
(0 -0 0.000479037)
(0 -0 0.000538042)
(0 -0 0.000591102)
(0 -0 0.000632217)
(0 -0 0.000655671)
(0 -0 0.000657113)
(0 -0 0.000634538)
(0 -0 0.000588887)
(0 -0 0.000524048)
(0 -0 0.000446228)
(0 -0 0.00036282)
(0 -0 0.00028108)
(0 -0 0.00020696)
(0 -0 0.000144374)
(0 -0 9.49946e-05)
(0 -0 5.85522e-05)
(0 -0 3.34201e-05)
(0 -0 1.72895e-05)
(0 -0 7.74598e-06)
(0 -0 2.65524e-06)
(0 -0 3.45607e-07)
(0 -0 -3.67861e-07)
(0 -0 -2.53436e-07)
(0 -0 2.31265e-07)
(0 -0 8.36288e-07)
(0 -0 1.43781e-06)
(0 -0 1.98228e-06)
(0 -0 2.45048e-06)
(0 -0 2.85804e-06)
(0 -0 0.000188269)
(0 -0 0.000176493)
(0 -0 0.000168223)
(0 -0 0.000162681)
(0 -0 0.000160072)
(0 -0 0.000160295)
(0 -0 0.000163576)
(0 -0 0.00017059)
(0 -0 0.000182215)
(0 -0 0.000199481)
(0 -0 0.000223468)
(0 -0 0.000255128)
(0 -0 0.00029501)
(0 -0 0.00034293)
(0 -0 0.000397607)
(0 -0 0.000456393)
(0 -0 0.000515184)
(0 -0 0.000568638)
(0 -0 0.000610756)
(0 -0 0.000635783)
(0 -0 0.00063928)
(0 -0 0.000619105)
(0 -0 0.00057603)
(0 -0 0.000513765)
(0 -0 0.000438354)
(0 -0 0.000357064)
(0 -0 0.000277082)
(0 -0 0.000204341)
(0 -0 0.000142779)
(0 -0 9.41281e-05)
(0 -0 5.81826e-05)
(0 -0 3.33819e-05)
(0 -0 1.74716e-05)
(0 -0 8.07792e-06)
(0 -0 3.0938e-06)
(0 -0 8.64287e-07)
(0 -0 2.13951e-07)
(0 -0 3.79641e-07)
(0 -0 9.065e-07)
(0 -0 1.54618e-06)
(0 -0 2.17601e-06)
(0 -0 2.74336e-06)
(0 -0 3.22969e-06)
(0 -0 3.65269e-06)
(0 -0 0.000234386)
(0 -0 0.000212927)
(0 -0 0.00019478)
(0 -0 0.000180296)
(0 -0 0.000169749)
(0 -0 0.000162968)
(0 -0 0.000160063)
(0 -0 0.000161593)
(0 -0 0.000168316)
(0 -0 0.000181142)
(0 -0 0.000201045)
(0 -0 0.000228894)
(0 -0 0.000265194)
(0 -0 0.000309765)
(0 -0 0.000361392)
(0 -0 0.000417553)
(0 -0 0.00047432)
(0 -0 0.000526558)
(0 -0 0.000568462)
(0 -0 0.000594421)
(0 -0 0.000600039)
(0 -0 0.000583097)
(0 -0 0.000544157)
(0 -0 0.000486621)
(0 -0 0.000416166)
(0 -0 0.000339701)
(0 -0 0.00026411)
(0 -0 0.000195123)
(0 -0 0.000136587)
(0 -0 9.02385e-05)
(0 -0 5.59527e-05)
(0 -0 3.22876e-05)
(0 -0 1.71179e-05)
(0 -0 8.18695e-06)
(0 -0 3.48204e-06)
(0 -0 1.41725e-06)
(0 -0 8.63589e-07)
(0 -0 1.08692e-06)
(0 -0 1.6494e-06)
(0 -0 2.31214e-06)
(0 -0 2.95759e-06)
(0 -0 3.53587e-06)
(0 -0 4.02974e-06)
(0 -0 4.45981e-06)
(0 -0 0.000249554)
(0 -0 0.000224454)
(0 -0 0.000201741)
(0 -0 0.000182369)
(0 -0 0.000166957)
(0 -0 0.000155466)
(0 -0 0.000148049)
(0 -0 0.000145256)
(0 -0 0.000147797)
(0 -0 0.000156509)
(0 -0 0.00017229)
(0 -0 0.000195945)
(0 -0 0.000227957)
(0 -0 0.000268179)
(0 -0 0.000315515)
(0 -0 0.00036765)
(0 -0 0.000420953)
(0 -0 0.000470636)
(0 -0 0.000511252)
(0 -0 0.00053748)
(0 -0 0.000545086)
(0 -0 0.00053183)
(0 -0 0.000498052)
(0 -0 0.000446752)
(0 -0 0.000383095)
(0 -0 0.000313447)
(0 -0 0.000244214)
(0 -0 0.000180777)
(0 -0 0.000126789)
(0 -0 8.39501e-05)
(0 -0 5.22202e-05)
(0 -0 3.03138e-05)
(0 -0 1.62891e-05)
(0 -0 8.06464e-06)
(0 -0 3.77346e-06)
(0 -0 1.93917e-06)
(0 -0 1.50794e-06)
(0 -0 1.79339e-06)
(0 -0 2.38587e-06)
(0 -0 3.06219e-06)
(0 -0 3.71303e-06)
(0 -0 4.29269e-06)
(0 -0 4.78576e-06)
(0 -0 5.21616e-06)
(0 -0 0.000241099)
(0 -0 0.000215863)
(0 -0 0.000192099)
(0 -0 0.000171016)
(0 -0 0.000153452)
(0 -0 0.000139487)
(0 -0 0.000129344)
(0 -0 0.000123604)
(0 -0 0.000122963)
(0 -0 0.000128215)
(0 -0 0.000140201)
(0 -0 0.00015968)
(0 -0 0.000187126)
(0 -0 0.000222453)
(0 -0 0.000264719)
(0 -0 0.000311878)
(0 -0 0.000360674)
(0 -0 0.000406776)
(0 -0 0.000445207)
(0 -0 0.000471055)
(0 -0 0.000480343)
(0 -0 0.000470866)
(0 -0 0.000442744)
(0 -0 0.000398529)
(0 -0 0.000342779)
(0 -0 0.000281199)
(0 -0 0.000219592)
(0 -0 0.000162881)
(0 -0 0.000114456)
(0 -0 7.59411e-05)
(0 -0 4.73772e-05)
(0 -0 2.76566e-05)
(0 -0 1.50558e-05)
(0 -0 7.70637e-06)
(0 -0 3.92205e-06)
(0 -0 2.36351e-06)
(0 -0 2.07204e-06)
(0 -0 2.42204e-06)
(0 -0 3.04e-06)
(0 -0 3.72279e-06)
(0 -0 4.37154e-06)
(0 -0 4.94569e-06)
(0 -0 5.43206e-06)
(0 -0 5.85801e-06)
(0 -0 0.000216894)
(0 -0 0.000193505)
(0 -0 0.000170851)
(0 -0 0.00015021)
(0 -0 0.000132503)
(0 -0 0.000117863)
(0 -0 0.000106545)
(0 -0 9.91507e-05)
(0 -0 9.63614e-05)
(0 -0 9.89338e-05)
(0 -0 0.000107658)
(0 -0 0.000123254)
(0 -0 0.000146194)
(0 -0 0.000176465)
(0 -0 0.0002133)
(0 -0 0.000254953)
(0 -0 0.000298593)
(0 -0 0.000340405)
(0 -0 0.000375961)
(0 -0 0.000400835)
(0 -0 0.000411375)
(0 -0 0.00040546)
(0 -0 0.000383014)
(0 -0 0.00034613)
(0 -0 0.000298714)
(0 -0 0.000245751)
(0 -0 0.000192371)
(0 -0 0.000142975)
(0 -0 0.000100637)
(0 -0 6.68795e-05)
(0 -0 4.18133e-05)
(0 -0 2.45146e-05)
(0 -0 1.34936e-05)
(0 -0 7.11423e-06)
(0 -0 3.88911e-06)
(0 -0 2.63137e-06)
(0 -0 2.48863e-06)
(0 -0 2.90366e-06)
(0 -0 3.54368e-06)
(0 -0 4.22818e-06)
(0 -0 4.87006e-06)
(0 -0 5.43447e-06)
(0 -0 5.91065e-06)
(0 -0 6.32939e-06)
(0 -0 0.000184107)
(0 -0 0.000163584)
(0 -0 0.000143236)
(0 -0 0.00012433)
(0 -0 0.00010779)
(0 -0 9.37342e-05)
(0 -0 8.24113e-05)
(0 -0 7.44096e-05)
(0 -0 7.03815e-05)
(0 -0 7.10356e-05)
(0 -0 7.71073e-05)
(0 -0 8.9274e-05)
(0 -0 0.000108006)
(0 -0 0.00013336)
(0 -0 0.000164749)
(0 -0 0.000200735)
(0 -0 0.000238925)
(0 -0 0.000276048)
(0 -0 0.000308255)
(0 -0 0.000331646)
(0 -0 0.00034294)
(0 -0 0.000340142)
(0 -0 0.000323012)
(0 -0 0.000293202)
(0 -0 0.000253972)
(0 -0 0.000209575)
(0 -0 0.000164444)
(0 -0 0.000122434)
(0 -0 8.6277e-05)
(0 -0 5.73728e-05)
(0 -0 3.5888e-05)
(0 -0 2.10764e-05)
(0 -0 1.16808e-05)
(0 -0 6.29988e-06)
(0 -0 3.64944e-06)
(0 -0 2.69918e-06)
(0 -0 2.70658e-06)
(0 -0 3.18529e-06)
(0 -0 3.84492e-06)
(0 -0 4.52851e-06)
(0 -0 5.16119e-06)
(0 -0 5.714e-06)
(0 -0 6.17864e-06)
(0 -0 6.58922e-06)
(0 -0 0.00014854)
(0 -0 0.000131262)
(0 -0 0.000113756)
(0 -0 9.72394e-05)
(0 -0 8.25973e-05)
(0 -0 6.98972e-05)
(0 -0 5.93455e-05)
(0 -0 5.14918e-05)
(0 -0 4.69387e-05)
(0 -0 4.63333e-05)
(0 -0 5.03467e-05)
(0 -0 5.96061e-05)
(0 -0 7.45714e-05)
(0 -0 9.53619e-05)
(0 -0 0.000121556)
(0 -0 0.000152012)
(0 -0 0.000184763)
(0 -0 0.000217071)
(0 -0 0.000245664)
(0 -0 0.000267177)
(0 -0 0.000278721)
(0 -0 0.000278454)
(0 -0 0.000266015)
(0 -0 0.000242652)
(0 -0 0.000211021)
(0 -0 0.000174669)
(0 -0 0.000137355)
(0 -0 0.00010239)
(0 -0 7.21624e-05)
(0 -0 4.79334e-05)
(0 -0 2.99114e-05)
(0 -0 1.75116e-05)
(0 -0 9.69575e-06)
(0 -0 5.28668e-06)
(0 -0 3.19566e-06)
(0 -0 2.54419e-06)
(0 -0 2.69673e-06)
(0 -0 3.23621e-06)
(0 -0 3.91377e-06)
(0 -0 4.59556e-06)
(0 -0 5.21867e-06)
(0 -0 5.75995e-06)
(0 -0 6.2134e-06)
(0 -0 6.61639e-06)
(0 -0 0.000114371)
(0 -0 0.000100305)
(0 -0 8.57397e-05)
(0 -0 7.18247e-05)
(0 -0 5.93877e-05)
(0 -0 4.84274e-05)
(0 -0 3.90891e-05)
(0 -0 3.18656e-05)
(0 -0 2.7295e-05)
(0 -0 2.59523e-05)
(0 -0 2.84353e-05)
(0 -0 3.53129e-05)
(0 -0 4.70245e-05)
(0 -0 6.37365e-05)
(0 -0 8.5173e-05)
(0 -0 0.000110458)
(0 -0 0.00013802)
(0 -0 0.000165617)
(0 -0 0.000190525)
(0 -0 0.000209896)
(0 -0 0.000221226)
(0 -0 0.000222853)
(0 -0 0.000214326)
(0 -0 0.000196552)
(0 -0 0.00017164)
(0 -0 0.000142495)
(0 -0 0.000112247)
(0 -0 8.36942e-05)
(0 -0 5.88914e-05)
(0 -0 3.89598e-05)
(0 -0 2.41329e-05)
(0 -0 1.39655e-05)
(0 -0 7.61551e-06)
(0 -0 4.11001e-06)
(0 -0 2.53981e-06)
(0 -0 2.16666e-06)
(0 -0 2.45436e-06)
(0 -0 3.0504e-06)
(0 -0 3.7447e-06)
(0 -0 4.42502e-06)
(0 -0 5.03966e-06)
(0 -0 5.57082e-06)
(0 -0 6.01467e-06)
(0 -0 6.41165e-06)
(0 -0 8.41972e-05)
(0 -0 7.30682e-05)
(0 -0 6.12709e-05)
(0 -0 4.98853e-05)
(0 -0 3.96737e-05)
(0 -0 3.05611e-05)
(0 -0 2.26243e-05)
(0 -0 1.62912e-05)
(0 -0 1.20283e-05)
(0 -0 1.03329e-05)
(0 -0 1.17254e-05)
(0 -0 1.67102e-05)
(0 -0 2.56967e-05)
(0 -0 3.88817e-05)
(0 -0 5.61088e-05)
(0 -0 7.67316e-05)
(0 -0 9.95257e-05)
(0 -0 0.000122695)
(0 -0 0.000144014)
(0 -0 0.000161108)
(0 -0 0.000171844)
(0 -0 0.000174743)
(0 -0 0.000169306)
(0 -0 0.000156157)
(0 -0 0.000136936)
(0 -0 0.000113979)
(0 -0 8.98583e-05)
(0 -0 6.69074e-05)
(0 -0 4.68714e-05)
(0 -0 3.07337e-05)
(0 -0 1.87384e-05)
(0 -0 1.0556e-05)
(0 -0 5.51328e-06)
(0 -0 2.81546e-06)
(0 -0 1.71179e-06)
(0 -0 1.58848e-06)
(0 -0 1.99789e-06)
(0 -0 2.6453e-06)
(0 -0 3.35536e-06)
(0 -0 4.03528e-06)
(0 -0 4.6434e-06)
(0 -0 5.16669e-06)
(0 -0 5.60324e-06)
(0 -0 5.99638e-06)
(0 -0 5.92787e-05)
(0 -0 5.06854e-05)
(0 -0 4.13372e-05)
(0 -0 3.22433e-05)
(0 -0 2.41008e-05)
(0 -0 1.67636e-05)
(0 -0 1.0241e-05)
(0 -0 4.89489e-06)
(0 -0 1.11995e-06)
(0 -0 -6.63622e-07)
(0 -0 -1.29764e-08)
(0 -0 3.51e-06)
(0 -0 1.02774e-05)
(0 -0 2.05012e-05)
(0 -0 3.41173e-05)
(0 -0 5.06691e-05)
(0 -0 6.92261e-05)
(0 -0 8.83767e-05)
(0 -0 0.00010633)
(0 -0 0.000121136)
(0 -0 0.000130999)
(0 -0 0.000134623)
(0 -0 0.00013149)
(0 -0 0.000122001)
(0 -0 0.000107408)
(0 -0 8.95664e-05)
(0 -0 7.05642e-05)
(0 -0 5.23306e-05)
(0 -0 3.63337e-05)
(0 -0 2.34265e-05)
(0 -0 1.38526e-05)
(0 -0 7.37359e-06)
(0 -0 3.45596e-06)
(0 -0 1.45518e-06)
(0 -0 7.5519e-07)
(0 -0 8.48765e-07)
(0 -0 1.36445e-06)
(0 -0 2.05734e-06)
(0 -0 2.78223e-06)
(0 -0 3.46309e-06)
(0 -0 4.06699e-06)
(0 -0 4.585e-06)
(0 -0 5.01683e-06)
(0 -0 5.40847e-06)
(0 -0 3.98666e-05)
(0 -0 3.33678e-05)
(0 -0 2.60872e-05)
(0 -0 1.89668e-05)
(0 -0 1.26427e-05)
(0 -0 6.90427e-06)
(0 -0 1.69883e-06)
(0 -0 -2.67371e-06)
(0 -0 -5.88592e-06)
(0 -0 -7.58992e-06)
(0 -0 -7.41608e-06)
(0 -0 -4.99088e-06)
(0 -0 1.67713e-08)
(0 -0 7.82147e-06)
(0 -0 1.84264e-05)
(0 -0 3.15253e-05)
(0 -0 4.64279e-05)
(0 -0 6.2043e-05)
(0 -0 7.69483e-05)
(0 -0 8.95589e-05)
(0 -0 9.83785e-05)
(0 -0 0.000102282)
(0 -0 0.00010076)
(0 -0 9.40424e-05)
(0 -0 8.30716e-05)
(0 -0 6.93093e-05)
(0 -0 5.44391e-05)
(0 -0 4.00464e-05)
(0 -0 2.73603e-05)
(0 -0 1.71155e-05)
(0 -0 9.54565e-06)
(0 -0 4.48155e-06)
(0 -0 1.50147e-06)
(0 -0 8.31803e-08)
(0 -0 -2.78472e-07)
(0 -0 -2.40748e-09)
(0 -0 6.03337e-07)
(0 -0 1.33553e-06)
(0 -0 2.07414e-06)
(0 -0 2.75726e-06)
(0 -0 3.3592e-06)
(0 -0 3.87449e-06)
(0 -0 4.30407e-06)
(0 -0 4.69645e-06)
(0 -0 2.55462e-05)
(0 -0 2.0714e-05)
(0 -0 1.51141e-05)
(0 -0 9.62716e-06)
(0 -0 4.83376e-06)
(0 -0 4.68099e-07)
(0 -0 -3.57673e-06)
(0 -0 -7.05598e-06)
(0 -0 -9.70204e-06)
(0 -0 -1.12316e-05)
(0 -0 -1.13411e-05)
(0 -0 -9.71684e-06)
(0 -0 -6.0693e-06)
(0 -0 -1.90604e-07)
(0 -0 7.96855e-06)
(0 -0 1.82165e-05)
(0 -0 3.00531e-05)
(0 -0 4.26462e-05)
(0 -0 5.48763e-05)
(0 -0 6.54642e-05)
(0 -0 7.31698e-05)
(0 -0 7.70251e-05)
(0 -0 7.65416e-05)
(0 -0 7.18304e-05)
(0 -0 6.3592e-05)
(0 -0 5.29741e-05)
(0 -0 4.13336e-05)
(0 -0 2.99723e-05)
(0 -0 1.99183e-05)
(0 -0 1.1802e-05)
(0 -0 5.84171e-06)
(0 -0 1.9183e-06)
(0 -0 -3.03596e-07)
(0 -0 -1.24953e-06)
(0 -0 -1.33602e-06)
(0 -0 -9.10949e-07)
(0 -0 -2.3107e-07)
(0 -0 5.34168e-07)
(0 -0 1.28523e-06)
(0 -0 1.97164e-06)
(0 -0 2.57358e-06)
(0 -0 3.08836e-06)
(0 -0 3.51784e-06)
(0 -0 3.91287e-06)
(0 -0 1.55396e-05)
(0 -0 1.19903e-05)
(0 -0 7.71315e-06)
(0 -0 3.53358e-06)
(0 -0 -1.59345e-08)
(0 -0 -3.24695e-06)
(0 -0 -6.31163e-06)
(0 -0 -9.01244e-06)
(0 -0 -1.11329e-05)
(0 -0 -1.24451e-05)
(0 -0 -1.27027e-05)
(0 -0 -1.16455e-05)
(0 -0 -9.02323e-06)
(0 -0 -4.6408e-06)
(0 -0 1.58043e-06)
(0 -0 9.53289e-06)
(0 -0 1.88625e-05)
(0 -0 2.89405e-05)
(0 -0 3.88897e-05)
(0 -0 4.76796e-05)
(0 -0 5.42841e-05)
(0 -0 5.78729e-05)
(0 -0 5.79895e-05)
(0 -0 5.46627e-05)
(0 -0 4.84121e-05)
(0 -0 4.0142e-05)
(0 -0 3.09511e-05)
(0 -0 2.1914e-05)
(0 -0 1.38939e-05)
(0 -0 7.43226e-06)
(0 -0 2.72917e-06)
(0 -0 -2.99996e-07)
(0 -0 -1.92574e-06)
(0 -0 -2.49933e-06)
(0 -0 -2.36842e-06)
(0 -0 -1.8252e-06)
(0 -0 -1.08608e-06)
(0 -0 -2.93831e-07)
(0 -0 4.68189e-07)
(0 -0 1.15853e-06)
(0 -0 1.76201e-06)
(0 -0 2.27802e-06)
(0 -0 2.7091e-06)
(0 -0 3.10824e-06)
(0 -0 8.93916e-06)
(0 -0 6.3478e-06)
(0 -0 3.08157e-06)
(0 -0 -8.1904e-08)
(0 -0 -2.65138e-06)
(0 -0 -4.97457e-06)
(0 -0 -7.24008e-06)
(0 -0 -9.28945e-06)
(0 -0 -1.09485e-05)
(0 -0 -1.20354e-05)
(0 -0 -1.23518e-05)
(0 -0 -1.16832e-05)
(0 -0 -9.81525e-06)
(0 -0 -6.56845e-06)
(0 -0 -1.84751e-06)
(0 -0 4.29961e-06)
(0 -0 1.16277e-05)
(0 -0 1.96638e-05)
(0 -0 2.77198e-05)
(0 -0 3.4963e-05)
(0 -0 4.05411e-05)
(0 -0 4.37413e-05)
(0 -0 4.41435e-05)
(0 -0 4.17234e-05)
(0 -0 3.68683e-05)
(0 -0 3.0299e-05)
(0 -0 2.29152e-05)
(0 -0 1.56133e-05)
(0 -0 9.12443e-06)
(0 -0 3.91633e-06)
(0 -0 1.70142e-07)
(0 -0 -2.17597e-06)
(0 -0 -3.34519e-06)
(0 -0 -3.63315e-06)
(0 -0 -3.33523e-06)
(0 -0 -2.70106e-06)
(0 -0 -1.91603e-06)
(0 -0 -1.10239e-06)
(0 -0 -3.31038e-07)
(0 -0 3.63498e-07)
(0 -0 9.69529e-07)
(0 -0 1.48801e-06)
(0 -0 1.92189e-06)
(0 -0 2.32614e-06)
(0 -0 4.86663e-06)
(0 -0 2.96937e-06)
(0 -0 4.55024e-07)
(0 -0 -1.93999e-06)
(0 -0 -3.75895e-06)
(0 -0 -5.37695e-06)
(0 -0 -7.01072e-06)
(0 -0 -8.53333e-06)
(0 -0 -9.80471e-06)
(0 -0 -1.06801e-05)
(0 -0 -1.10005e-05)
(0 -0 -1.05893e-05)
(0 -0 -9.26362e-06)
(0 -0 -6.8602e-06)
(0 -0 -3.27606e-06)
(0 -0 1.48153e-06)
(0 -0 7.24656e-06)
(0 -0 1.36625e-05)
(0 -0 2.01857e-05)
(0 -0 2.61371e-05)
(0 -0 3.08028e-05)
(0 -0 3.35674e-05)
(0 -0 3.40476e-05)
(0 -0 3.21867e-05)
(0 -0 2.82785e-05)
(0 -0 2.29077e-05)
(0 -0 1.68241e-05)
(0 -0 1.0787e-05)
(0 -0 5.42448e-06)
(0 -0 1.1443e-06)
(0 -0 -1.8904e-06)
(0 -0 -3.72712e-06)
(0 -0 -4.55533e-06)
(0 -0 -4.62985e-06)
(0 -0 -4.20718e-06)
(0 -0 -3.5051e-06)
(0 -0 -2.68568e-06)
(0 -0 -1.8557e-06)
(0 -0 -1.07672e-06)
(0 -0 -3.78078e-07)
(0 -0 2.31066e-07)
(0 -0 7.52769e-07)
(0 -0 1.1902e-06)
(0 -0 1.60016e-06)
(0 -0 2.5635e-06)
(0 -0 1.15387e-06)
(0 -0 -8.16035e-07)
(0 -0 -2.64501e-06)
(0 -0 -3.90497e-06)
(0 -0 -4.9905e-06)
(0 -0 -6.13915e-06)
(0 -0 -7.24886e-06)
(0 -0 -8.20642e-06)
(0 -0 -8.89642e-06)
(0 -0 -9.19102e-06)
(0 -0 -8.94459e-06)
(0 -0 -8.00051e-06)
(0 -0 -6.21139e-06)
(0 -0 -3.4723e-06)
(0 -0 2.36306e-07)
(0 -0 4.80448e-06)
(0 -0 9.96116e-06)
(0 -0 1.52709e-05)
(0 -0 2.0172e-05)
(0 -0 2.40584e-05)
(0 -0 2.63937e-05)
(0 -0 2.68286e-05)
(0 -0 2.52889e-05)
(0 -0 2.2003e-05)
(0 -0 1.7457e-05)
(0 -0 1.22895e-05)
(0 -0 7.15622e-06)
(0 -0 2.6061e-06)
(0 -0 -1.00064e-06)
(0 -0 -3.51698e-06)
(0 -0 -4.98187e-06)
(0 -0 -5.56116e-06)
(0 -0 -5.48016e-06)
(0 -0 -4.96694e-06)
(0 -0 -4.21581e-06)
(0 -0 -3.37161e-06)
(0 -0 -2.5297e-06)
(0 -0 -1.74475e-06)
(0 -0 -1.04237e-06)
(0 -0 -4.29933e-07)
(0 -0 9.53614e-08)
(0 -0 5.36686e-07)
(0 -0 9.52608e-07)
(0 -0 1.42868e-06)
(0 -0 3.49915e-07)
(0 -0 -1.2366e-06)
(0 -0 -2.65984e-06)
(0 -0 -3.51532e-06)
(0 -0 -4.21035e-06)
(0 -0 -4.9971e-06)
(0 -0 -5.7928e-06)
(0 -0 -6.50503e-06)
(0 -0 -7.04106e-06)
(0 -0 -7.29745e-06)
(0 -0 -7.15312e-06)
(0 -0 -6.47313e-06)
(0 -0 -5.1244e-06)
(0 -0 -3.00353e-06)
(0 -0 -7.41313e-08)
(0 -0 3.59286e-06)
(0 -0 7.78806e-06)
(0 -0 1.21558e-05)
(0 -0 1.62228e-05)
(0 -0 1.94658e-05)
(0 -0 2.14109e-05)
(0 -0 2.17391e-05)
(0 -0 2.03678e-05)
(0 -0 1.74805e-05)
(0 -0 1.34927e-05)
(0 -0 8.96129e-06)
(0 -0 4.46494e-06)
(0 -0 4.92473e-07)
(0 -0 -2.6328e-06)
(0 -0 -4.77753e-06)
(0 -0 -5.97583e-06)
(0 -0 -6.37708e-06)
(0 -0 -6.18548e-06)
(0 -0 -5.60847e-06)
(0 -0 -4.82322e-06)
(0 -0 -3.96199e-06)
(0 -0 -3.11186e-06)
(0 -0 -2.3225e-06)
(0 -0 -1.61692e-06)
(0 -0 -1.00127e-06)
(0 -0 -4.72318e-07)
(0 -0 -2.7012e-08)
(0 -0 3.9487e-07)
(0 -0 1.01973e-06)
(0 -0 1.55822e-07)
(0 -0 -1.16915e-06)
(0 -0 -2.31024e-06)
(0 -0 -2.88248e-06)
(0 -0 -3.30031e-06)
(0 -0 -3.82543e-06)
(0 -0 -4.38981e-06)
(0 -0 -4.91688e-06)
(0 -0 -5.33131e-06)
(0 -0 -5.54835e-06)
(0 -0 -5.46612e-06)
(0 -0 -4.96721e-06)
(0 -0 -3.93099e-06)
(0 -0 -2.25746e-06)
(0 -0 9.99099e-08)
(0 -0 3.09688e-06)
(0 -0 6.56804e-06)
(0 -0 1.02161e-05)
(0 -0 1.36335e-05)
(0 -0 1.63602e-05)
(0 -0 1.79712e-05)
(0 -0 1.81728e-05)
(0 -0 1.68794e-05)
(0 -0 1.42442e-05)
(0 -0 1.06322e-05)
(0 -0 6.54037e-06)
(0 -0 2.49049e-06)
(0 -0 -1.07384e-06)
(0 -0 -3.85761e-06)
(0 -0 -5.7386e-06)