/*--------------------------------*- C++ -*----------------------------------*\
| =========                 |                                                 |
| \\      /  F ield         | OpenFOAM: The Open Source CFD Toolbox           |
|  \\    /   O peration     | Version:  2412                                  |
|   \\  /    A nd           | Website:  www.openfoam.com                      |
|    \\/     M anipulation  |                                                 |
\*---------------------------------------------------------------------------*/
FoamFile
{
    version     2.0;
    format      ascii;
    arch        "LSB;label=32;scalar=64";
    class       volVectorField;
    location    "24.5";
    object      U;
}
// * * * * * * * * * * * * * * * * * * * * * * * * * * * * * * * * * * * * * //

dimensions      [0 1 -1 0 0 0 0];

internalField   nonuniform List<vector> 
5285
(
(0.0999997 4.38625e-07 0)
(0.099995 1.30473e-06 0)
(0.0999851 2.15875e-06 0)
(0.0999707 3.00504e-06 0)
(0.099952 3.84734e-06 0)
(0.0999291 4.68765e-06 0)
(0.0999023 5.5303e-06 0)
(0.0998717 6.39074e-06 0)
(0.0998373 7.30419e-06 0)
(0.0997988 8.32682e-06 0)
(0.0997558 9.52489e-06 0)
(0.0997075 1.0954e-05 0)
(0.0996528 1.26365e-05 0)
(0.099591 1.45477e-05 0)
(0.0995214 1.6615e-05 0)
(0.0994439 1.87324e-05 0)
(0.0993588 2.07827e-05 0)
(0.099267 2.26614e-05 0)
(0.0991697 2.42948e-05 0)
(0.0990682 2.56493e-05 0)
(0.0989638 2.67307e-05 0)
(0.0988578 2.75771e-05 0)
(0.098751 2.82473e-05 0)
(0.098644 2.88095e-05 0)
(0.0985371 2.93303e-05 0)
(0.0984305 2.98686e-05 0)
(0.0983239 3.04709e-05 0)
(0.0982172 3.11712e-05 0)
(0.09811 3.19907e-05 0)
(0.0980019 3.2941e-05 0)
(0.0978927 3.4026e-05 0)
(0.0977818 3.52447e-05 0)
(0.0976691 3.65929e-05 0)
(0.0975543 3.80655e-05 0)
(0.0974371 3.96571e-05 0)
(0.0973174 4.1363e-05 0)
(0.0971948 4.31798e-05 0)
(0.0970694 4.51051e-05 0)
(0.0969409 4.7138e-05 0)
(0.0968093 4.92785e-05 0)
(0.0966743 5.15277e-05 0)
(0.096536 5.38877e-05 0)
(0.0963941 5.63612e-05 0)
(0.0962487 5.89515e-05 0)
(0.0960996 6.16624e-05 0)
(0.0959466 6.44981e-05 0)
(0.0957898 6.74634e-05 0)
(0.095629 7.05632e-05 0)
(0.0954641 7.38027e-05 0)
(0.0952951 7.7188e-05 0)
(0.0951217 8.07256e-05 0)
(0.094944 8.44242e-05 0)
(0.0947618 8.82978e-05 0)
(0.094575 9.23768e-05 0)
(0.0943834 9.67382e-05 0)
(0.0999997 1.31586e-06 0)
(0.099995 3.914e-06 0)
(0.0999851 6.47575e-06 0)
(0.0999707 9.01412e-06 0)
(0.099952 1.15405e-05 0)
(0.0999292 1.4061e-05 0)
(0.0999024 1.65886e-05 0)
(0.0998718 1.91694e-05 0)
(0.0998374 2.19087e-05 0)
(0.099799 2.49742e-05 0)
(0.099756 2.8564e-05 0)
(0.0997077 3.28444e-05 0)
(0.0996532 3.78829e-05 0)
(0.0995915 4.36055e-05 0)
(0.099522 4.97965e-05 0)
(0.0994446 5.61391e-05 0)
(0.0993597 6.22837e-05 0)
(0.099268 6.7918e-05 0)
(0.0991709 7.28214e-05 0)
(0.0990695 7.68927e-05 0)
(0.0989653 8.01489e-05 0)
(0.0988594 8.2703e-05 0)
(0.0987527 8.47304e-05 0)
(0.0986457 8.64337e-05 0)
(0.0985389 8.80124e-05 0)
(0.0984323 8.96416e-05 0)
(0.0983258 9.14611e-05 0)
(0.0982192 9.35715e-05 0)
(0.098112 9.60374e-05 0)
(0.098004 9.88932e-05 0)
(0.0978948 0.000102151 0)
(0.0977841 0.000105808 0)
(0.0976715 0.000109852 0)
(0.0975568 0.000114267 0)
(0.0974397 0.000119039 0)
(0.0973201 0.000124153 0)
(0.0971977 0.000129598 0)
(0.0970724 0.000135369 0)
(0.0969441 0.000141461 0)
(0.0968127 0.000147876 0)
(0.0966779 0.000154616 0)
(0.0965398 0.000161688 0)
(0.0963982 0.0001691 0)
(0.096253 0.000176862 0)
(0.0961042 0.000184984 0)
(0.0959515 0.000193481 0)
(0.095795 0.000202365 0)
(0.0956346 0.000211652 0)
(0.0954701 0.000221357 0)
(0.0953014 0.000231497 0)
(0.0951285 0.000242093 0)
(0.0949512 0.000253171 0)
(0.0947695 0.000264771 0)
(0.0945831 0.000276982 0)
(0.094392 0.000290032 0)
(0.0999997 2.19222e-06 0)
(0.099995 6.52047e-06 0)
(0.0999851 1.07882e-05 0)
(0.0999707 1.50168e-05 0)
(0.0999521 1.92254e-05 0)
(0.0999293 2.34243e-05 0)
(0.0999025 2.76349e-05 0)
(0.099872 3.19339e-05 0)
(0.0998376 3.64955e-05 0)
(0.0997993 4.15984e-05 0)
(0.0997564 4.75714e-05 0)
(0.0997082 5.46909e-05 0)
(0.0996538 6.30702e-05 0)
(0.0995923 7.25879e-05 0)
(0.0995231 8.28866e-05 0)
(0.099446 9.34415e-05 0)
(0.0993614 0.000103672 0)
(0.0992701 0.000113059 0)
(0.0991732 0.000121236 0)
(0.0990722 0.000128032 0)
(0.0989682 0.000133474 0)
(0.0988625 0.000137748 0)
(0.098756 0.000141146 0)
(0.0986492 0.000144001 0)
(0.0985425 0.000146646 0)
(0.0984361 0.000149371 0)
(0.0983296 0.000152409 0)
(0.0982231 0.000155927 0)
(0.098116 0.000160033 0)
(0.0980081 0.000164786 0)
(0.0978991 0.000170206 0)
(0.0977885 0.000176288 0)
(0.0976761 0.000183013 0)
(0.0975616 0.000190356 0)
(0.0974448 0.000198291 0)
(0.0973254 0.000206795 0)
(0.0972034 0.00021585 0)
(0.0970784 0.000225447 0)
(0.0969505 0.000235578 0)
(0.0968194 0.000246246 0)
(0.0966851 0.000257455 0)
(0.0965474 0.000269215 0)
(0.0964063 0.00028154 0)
(0.0962617 0.000294446 0)
(0.0961134 0.000307952 0)
(0.0959613 0.000322078 0)
(0.0958055 0.000336848 0)
(0.0956457 0.000352285 0)
(0.0954819 0.000368417 0)
(0.095314 0.00038527 0)
(0.0951419 0.000402879 0)
(0.0949655 0.000421283 0)
(0.0947847 0.00044055 0)
(0.0945994 0.000460821 0)
(0.0944093 0.000482454 0)
(0.0999997 3.06713e-06 0)
(0.099995 9.12226e-06 0)
(0.0999851 1.50931e-05 0)
(0.0999708 2.10088e-05 0)
(0.0999522 2.68966e-05 0)
(0.0999294 3.27708e-05 0)
(0.0999028 3.86614e-05 0)
(0.0998723 4.46748e-05 0)
(0.099838 5.10532e-05 0)
(0.0997997 5.81843e-05 0)
(0.099757 6.65262e-05 0)
(0.099709 7.64651e-05 0)
(0.0996548 8.81606e-05 0)
(0.0995936 0.000101446 0)
(0.0995247 0.000115827 0)
(0.0994481 0.000130573 0)
(0.0993639 0.000144875 0)
(0.0992731 0.000158011 0)
(0.0991767 0.000169465 0)
(0.0990761 0.000178998 0)
(0.0989725 0.000186644 0)
(0.0988671 0.00019266 0)
(0.0987609 0.000197448 0)
(0.0986543 0.000201473 0)
(0.0985479 0.000205197 0)
(0.0984416 0.000209026 0)
(0.0983353 0.000213283 0)
(0.0982289 0.000218205 0)
(0.098122 0.000223943 0)
(0.0980143 0.000230579 0)
(0.0979055 0.000238143 0)
(0.0977951 0.000246629 0)
(0.097683 0.000256011 0)
(0.0975688 0.000266256 0)
(0.0974524 0.000277326 0)
(0.0973334 0.000289191 0)
(0.0972118 0.000301826 0)
(0.0970874 0.000315216 0)
(0.09696 0.000329353 0)
(0.0968295 0.000344238 0)
(0.0966958 0.000359878 0)
(0.0965589 0.000376287 0)
(0.0964185 0.000393484 0)
(0.0962746 0.000411489 0)
(0.0961271 0.000430331 0)
(0.095976 0.000450036 0)
(0.0958211 0.000470636 0)
(0.0956623 0.000492164 0)
(0.0954996 0.000514658 0)
(0.0953328 0.000538154 0)
(0.0951619 0.000562698 0)
(0.0949868 0.000588344 0)
(0.0948074 0.000615179 0)
(0.0946236 0.000643387 0)
(0.0944351 0.000673424 0)
(0.0999997 3.94006e-06 0)
(0.099995 1.17174e-05 0)
(0.0999852 1.93873e-05 0)
(0.0999709 2.69859e-05 0)
(0.0999523 3.45486e-05 0)
(0.0999296 4.20939e-05 0)
(0.099903 4.96602e-05 0)
(0.0998726 5.73827e-05 0)
(0.0998385 6.55701e-05 0)
(0.0998003 7.47169e-05 0)
(0.0997577 8.54084e-05 0)
(0.09971 9.81397e-05 0)
(0.0996561 0.000113118 0)
(0.0995953 0.000130135 0)
(0.0995269 0.000148562 0)
(0.0994508 0.000167469 0)
(0.0993672 0.000185825 0)
(0.099277 0.000202702 0)
(0.0991812 0.00021744 0)
(0.0990811 0.000229727 0)
(0.0989781 0.000239602 0)
(0.0988732 0.000247387 0)
(0.0987673 0.000253592 0)
(0.0986611 0.000258811 0)
(0.0985549 0.000263631 0)
(0.0984488 0.000268574 0)
(0.0983427 0.000274053 0)
(0.0982365 0.000280373 0)
(0.0981299 0.000287729 0)
(0.0980224 0.000296229 0)
(0.0979139 0.000305911 0)
(0.0978039 0.000316772 0)
(0.0976922 0.000328779 0)
(0.0975784 0.000341889 0)
(0.0974625 0.000356056 0)
(0.0973441 0.000371241 0)
(0.0972231 0.000387413 0)
(0.0970993 0.000404552 0)
(0.0969726 0.000422648 0)
(0.0968429 0.000441701 0)
(0.0967101 0.000461721 0)
(0.096574 0.000482725 0)
(0.0964346 0.000504734 0)
(0.0962918 0.000527778 0)
(0.0961454 0.000551889 0)
(0.0959954 0.000577101 0)
(0.0958418 0.000603456 0)
(0.0956843 0.000630993 0)
(0.095523 0.000659759 0)
(0.0953578 0.000689801 0)
(0.0951885 0.000721174 0)
(0.0950151 0.000753944 0)
(0.0948375 0.000788213 0)
(0.0946556 0.000824187 0)
(0.0944693 0.000862382 0)
(0.0999997 4.81064e-06 0)
(0.099995 1.43042e-05 0)
(0.0999852 2.36682e-05 0)
(0.099971 3.29441e-05 0)
(0.0999525 4.21761e-05 0)
(0.0999299 5.13871e-05 0)
(0.0999034 6.06234e-05 0)
(0.0998731 7.00484e-05 0)
(0.099839 8.00352e-05 0)
(0.0998011 9.1182e-05 0)
(0.0997587 0.000104199 0)
(0.0997112 0.000119689 0)
(0.0996577 0.000137909 0)
(0.0995973 0.000158612 0)
(0.0995295 0.000181041 0)
(0.0994541 0.000204073 0)
(0.0993712 0.000226458 0)
(0.0992817 0.000247068 0)
(0.0991867 0.000265097 0)
(0.0990873 0.000280158 0)
(0.0989849 0.00029229 0)
(0.0988805 0.000301877 0)
(0.0987751 0.000309532 0)
(0.0986693 0.000315973 0)
(0.0985634 0.000321912 0)
(0.0984576 0.00032798 0)
(0.0983519 0.000334684 0)
(0.0982459 0.000342394 0)
(0.0981396 0.000351351 0)
(0.0980325 0.000361689 0)
(0.0979243 0.000373459 0)
(0.0978147 0.000386657 0)
(0.0977035 0.000401247 0)
(0.0975903 0.000417177 0)
(0.097475 0.000434393 0)
(0.0973572 0.000452847 0)
(0.097237 0.000472503 0)
(0.0971141 0.000493334 0)
(0.0969883 0.000515329 0)
(0.0968596 0.000538489 0)
(0.0967278 0.000562823 0)
(0.0965928 0.000588351 0)
(0.0964546 0.0006151 0)
(0.0963131 0.000643103 0)
(0.0961681 0.000672399 0)
(0.0960196 0.000703029 0)
(0.0958675 0.000735041 0)
(0.0957117 0.000768483 0)
(0.0955522 0.000803409 0)
(0.0953888 0.000839875 0)
(0.0952215 0.000877942 0)
(0.0950502 0.000917687 0)
(0.0948749 0.000959217 0)
(0.0946954 0.00100274 0)
(0.0945117 0.00104878 0)
(0.0999997 5.67814e-06 0)
(0.0999951 1.68812e-05 0)
(0.0999853 2.79326e-05 0)
(0.0999711 3.88792e-05 0)
(0.0999527 4.97739e-05 0)
(0.0999302 6.06439e-05 0)
(0.0999038 7.15435e-05 0)
(0.0998736 8.26629e-05 0)
(0.0998397 9.44373e-05 0)
(0.0998019 0.000107566 0)
(0.0997598 0.000122881 0)
(0.0997126 0.000141091 0)
(0.0996596 0.000162504 0)
(0.0995998 0.000186839 0)
(0.0995326 0.000213218 0)
(0.0994579 0.000240333 0)
(0.0993759 0.000266719 0)
(0.0992873 0.000291051 0)
(0.0991931 0.000312376 0)
(0.0990945 0.000330233 0)
(0.0989928 0.000344655 0)
(0.0988891 0.000356082 0)
(0.0987842 0.000365226 0)
(0.0986789 0.000372921 0)
(0.0985734 0.000380002 0)
(0.098468 0.000387208 0)
(0.0983626 0.000395137 0)
(0.098257 0.000404227 0)
(0.098151 0.000414764 0)
(0.0980443 0.000426911 0)
(0.0979366 0.00044073 0)
(0.0978276 0.000456221 0)
(0.0977169 0.000473345 0)
(0.0976044 0.000492041 0)
(0.0974898 0.000512247 0)
(0.0973729 0.00053391 0)
(0.0972536 0.000556983 0)
(0.0971316 0.00058144 0)
(0.097007 0.000607263 0)
(0.0968794 0.000634454 0)
(0.0967489 0.000663023 0)
(0.0966153 0.000692992 0)
(0.0964785 0.000724392 0)
(0.0963385 0.00075726 0)
(0.0961952 0.000791639 0)
(0.0960484 0.000827579 0)
(0.0958981 0.000865132 0)
(0.0957443 0.000904355 0)
(0.0955869 0.000945306 0)
(0.0954257 0.000988049 0)
(0.0952607 0.00103265 0)
(0.0950919 0.00107919 0)
(0.0949193 0.00112778 0)
(0.0947426 0.0011786 0)
(0.0945621 0.00123207 0)
(0.0941858 0.000101605 -4.45436e-24)
(0.0939804 0.00010675 -4.54227e-24)
(0.093765 0.000112239 -3.17315e-26)
(0.0935392 0.000118097 1.39611e-23)
(0.0933021 0.000124353 -4.62433e-24)
(0.0930531 0.000131044 -4.76114e-24)
(0.0927913 0.000138207 -1.46653e-23)
(0.0925158 0.000145885 1.45607e-23)
(0.0922257 0.000154128 4.98399e-24)
(0.0919198 0.00016299 0)
(0.0915971 0.00017253 5.15119e-24)
(0.0912562 0.000182817 -5.2411e-24)
(0.0908958 0.000193926 4.31276e-23)
(0.0905142 0.000205945 -9.24402e-23)
(0.0901098 0.000218968 4.9416e-23)
(0.0896807 0.000233106 4.00611e-23)
(0.0941949 0.000304595 -4.50711e-24)
(0.0939896 0.000320005 -9.19535e-24)
(0.0937745 0.000336437 -4.82303e-24)
(0.0935489 0.000353972 4.4888e-24)
(0.0933121 0.000372703 -4.68946e-24)
(0.0930634 0.000392734 3.36169e-23)
(0.092802 0.00041418 -5.27957e-23)
(0.0925269 0.000437172 4.90506e-24)
(0.0922372 0.000461854 6.54913e-23)
(0.0919319 0.00048839 -9.045e-23)
(0.0916098 0.000516961 -8.8365e-23)
(0.0912696 0.00054777 7.78642e-23)
(0.0909099 0.000581045 0)
(0.0905292 0.000617044 5.44036e-24)
(0.0901257 0.000656056 -1.66296e-23)
(0.0896977 0.00069841 -1.88648e-22)
(0.094213 0.000506585 -2.6658e-23)
(0.0940081 0.000532178 -9.36105e-24)
(0.0937934 0.000559459 3.60912e-23)
(0.0935683 0.00058857 -7.42738e-23)
(0.0933321 0.000619666 1.58949e-22)
(0.093084 0.00065292 -7.53052e-23)
(0.0928233 0.000688527 1.41807e-26)
(0.0925491 0.000726705 9.78274e-24)
(0.0922604 0.000767695 1.70634e-22)
(0.0919562 0.000811768 -1.60509e-22)
(0.0916353 0.000859226 0)
(0.0912965 0.000910408 1.45701e-26)
(0.0909384 0.000965695 0)
(0.0905594 0.00102551 1.86889e-22)
(0.090158 0.00109035 -1.64735e-22)
(0.0897321 0.00116074 -3.5528e-22)
(0.09424 0.000706887 1.75628e-23)
(0.0940356 0.000742508 -8.91461e-24)
(0.0938216 0.000780467 1.94999e-26)
(0.0935973 0.000820968 9.17696e-24)
(0.093362 0.000864229 -1.96021e-26)
(0.093115 0.000910496 1.52541e-22)
(0.0928555 0.000960042 -2.8828e-22)
(0.0925827 0.00101317 1.5495e-22)
(0.0922956 0.00107022 -9.92316e-24)
(0.0919931 0.00113158 1.8347e-22)
(0.0916742 0.00119766 -1.63197e-22)
(0.0913375 0.00126893 -3.38829e-22)
(0.0909819 0.00134594 6.8422e-22)
(0.0906057 0.00142927 -6.9785e-22)
(0.0902073 0.0015196 7.12137e-22)
(0.0897849 0.00161769 -7.15845e-22)
(0.0942758 0.000904853 -8.71067e-24)
(0.0940722 0.000950278 -3.55956e-23)
(0.0938591 0.000998671 1.07927e-22)
(0.093636 0.0010503 -1.45761e-22)
(0.093402 0.00110545 6.42048e-23)
(0.0931565 0.00116444 9.41924e-24)
(0.0928988 0.00122762 -9.57914e-24)
(0.0926279 0.00129538 -2.46127e-26)
(0.092343 0.00136816 9.92126e-24)
(0.092043 0.00144645 -2.01843e-23)
(0.0917269 0.00153077 -3.32261e-22)
(0.0913934 0.00162175 3.42908e-22)
(0.0910412 0.00172005 -3.35087e-22)
(0.0906689 0.00182645 3.45902e-22)
(0.0902748 0.00194181 0)
(0.0898574 0.00206709 -2.47933e-26)
(0.0943202 0.00109985 -4.32264e-23)
(0.0941177 0.00115485 2.60023e-23)
(0.0939059 0.00121345 8.90068e-24)
(0.0936843 0.00127599 1.36681e-22)
(0.0934522 0.00134282 -1.3673e-22)
(0.0932089 0.00141433 1.4153e-22)
(0.0929535 0.00149095 -3.14199e-22)
(0.0926853 0.00157316 4.47455e-22)
(0.0924034 0.00166149 -3.13448e-22)
(0.0921068 0.00175653 -3.25323e-22)
(0.0917945 0.00185894 -1.6413e-23)
(0.0914652 0.00196946 6.60885e-22)
(0.0911177 0.00208891 -6.96307e-22)
(0.0907506 0.00221824 3.24807e-22)
(0.0903624 0.00235848 3.507e-22)
(0.0899515 0.00251084 3.66788e-22)
(0.094373 0.00129107 8.51222e-24)
(0.0941721 0.00135509 7.84461e-23)
(0.0939623 0.0014234 -6.99581e-23)
(0.093743 0.00149637 8.98437e-24)
(0.0935134 0.00157441 1.38156e-22)
(0.093273 0.00165798 -1.38373e-22)
(0.0930209 0.00174759 -2.96606e-22)
(0.0927563 0.0018438 4.35992e-24)
(0.0924785 0.00194724 -5.59464e-24)
(0.0921864 0.0020586 3.29582e-22)
(0.091879 0.00217868 -3.22085e-22)
(0.0915553 0.00230833 6.83541e-22)
(0.091214 0.00244856 -3.40635e-22)
(0.0908538 0.00260046 1.10147e-23)
(0.0904734 0.00276529 1.12744e-23)
(0.0900712 0.00294446 7.46018e-22)
(0.0944351 0.00148172 0)
(0.094237 0.00155319 0)
(0.0940303 0.00162952 0)
(0.0938144 0.00171108 0)
(0.0935886 0.00179831 0)
(0.0933523 0.00189171 0)
(0.0931048 0.00199184 0)
(0.0928453 0.00209931 0)
(0.092573 0.00221481 0)
(0.092287 0.00233911 0)
(0.0919865 0.00247306 0)
(0.0916703 0.00261763 0)
(0.0913374 0.00277391 0)
(0.0909866 0.00294311 0)
(0.0906166 0.00312659 0)
(0.090226 0.00332593 0)
(0.0945076 0.00167394 0)
(0.0943137 0.00175358 0)
(0.0941113 0.00183858 0)
(0.0939001 0.00192939 0)
(0.0936794 0.00202648 0)
(0.0934486 0.00213038 0)
(0.0932071 0.00224169 0)
(0.0929542 0.00236107 0)
(0.0926891 0.00248926 0)
(0.0924111 0.00262709 0)
(0.0921193 0.00277547 0)
(0.0918127 0.00293545 0)
(0.0914905 0.00310817 0)
(0.0911514 0.00329493 0)
(0.0907945 0.00349719 0)
(0.0904184 0.0037166 0)
(0.0945886 0.00186172 0)
(0.0943996 0.00194941 0)
(0.0942025 0.00204294 0)
(0.0939969 0.00214279 0)
(0.0937822 0.00224946 0)
(0.093558 0.00236355 0)
(0.0933236 0.00248569 0)
(0.0930784 0.00261658 0)
(0.0928218 0.00275701 0)
(0.092553 0.00290786 0)
(0.0922712 0.00307011 0)
(0.0919758 0.00324485 0)
(0.0916658 0.0034333 0)
(0.0913402 0.00363681 0)
(0.0909982 0.00385691 0)
(0.0906386 0.00409533 0)
(0.0946776 0.00204434 0)
(0.0944941 0.00213974 0)
(0.094303 0.00224139 0)
(0.0941038 0.00234982 0)
(0.093896 0.00246558 0)
(0.0936791 0.00258927 0)
(0.0934527 0.00272158 0)
(0.0932162 0.00286325 0)
(0.0929691 0.00301511 0)
(0.0927106 0.00317808 0)
(0.0924402 0.00335318 0)
(0.0921571 0.00354155 0)
(0.0918606 0.00374446 0)
(0.09155 0.00396331 0)
(0.0912243 0.00419968 0)
(0.0908829 0.00445534 0)
(0.094774 0.00222129 0)
(0.0945966 0.00232399 0)
(0.094412 0.00243333 0)
(0.0942197 0.00254985 0)
(0.0940195 0.00267413 0)
(0.0938107 0.00280681 0)
(0.0935931 0.0029486 0)
(0.0933662 0.00310029 0)
(0.0931293 0.00326272 0)
(0.0928821 0.00343684 0)
(0.0926239 0.00362372 0)
(0.0923542 0.00382452 0)
(0.0920724 0.00404054 0)
(0.0917779 0.00427322 0)
(0.0914699 0.00452417 0)
(0.0911479 0.00479517 0)
(0.0948773 0.00239216 0)
(0.0947065 0.00250172 0)
(0.0945288 0.00261826 0)
(0.0943441 0.00274233 0)
(0.0941519 0.00287455 0)
(0.0939518 0.00301558 0)
(0.0937437 0.00316614 0)
(0.0935269 0.00332703 0)
(0.0933011 0.00349914 0)
(0.0930658 0.00368344 0)
(0.0928207 0.003881 0)
(0.0925653 0.00409301 0)
(0.092299 0.00432078 0)
(0.0920214 0.00456577 0)
(0.0917321 0.00482958 0)
(0.0914305 0.00511401 0)
(0.0949872 0.00255658 0)
(0.0948231 0.00267252 0)
(0.0946528 0.00279573 0)
(0.094476 0.0029268 0)
(0.0942923 0.00306633 0)
(0.0941015 0.00321501 0)
(0.0939032 0.00337358 0)
(0.0936972 0.00354286 0)
(0.093483 0.00372373 0)
(0.0932603 0.00391718 0)
(0.0930289 0.00412429 0)
(0.0927883 0.00434625 0)
(0.0925383 0.00458437 0)
(0.0922784 0.00484012 0)
(0.0920084 0.00511508 0)
(0.0917279 0.00541102 0)
(0.095103 0.00271426 0)
(0.0949461 0.00283606 0)
(0.0947835 0.0029654 0)
(0.0946149 0.00310285 0)
(0.09444 0.00324905 0)
(0.0942588 0.00340468 0)
(0.0940708 0.00357048 0)
(0.0938759 0.00374727 0)
(0.0936738 0.00393596 0)
(0.0934642 0.00413751 0)
(0.0932469 0.00435302 0)
(0.0930217 0.00458366 0)
(0.0927883 0.00483074 0)
(0.0925466 0.00509569 0)
(0.0922963 0.00538007 0)
(0.0920375 0.00568561 0)
(0.0952243 0.00286491 0)
(0.0950747 0.00299206 0)
(0.09492 0.00312696 0)
(0.0947599 0.0032702 0)
(0.0945943 0.00342239 0)
(0.0944229 0.00358423 0)
(0.0942455 0.00375647 0)
(0.0940621 0.00393991 0)
(0.0938723 0.00413545 0)
(0.0936761 0.00434406 0)
(0.0934733 0.00456681 0)
(0.0932637 0.00480487 0)
(0.0930473 0.0050595 0)
(0.092824 0.00533211 0)
(0.0925938 0.00562421 0)
(0.0923567 0.00593749 0)
(0.0953505 0.00300834 0)
(0.0952085 0.0031403 0)
(0.0950619 0.0032802 0)
(0.0949106 0.00342859 0)
(0.0947543 0.0035861 0)
(0.094593 0.00375342 0)
(0.0944265 0.00393129 0)
(0.0942547 0.0041205 0)
(0.0940775 0.00432195 0)
(0.0938948 0.00453658 0)
(0.0937066 0.00476543 0)
(0.0935129 0.00500964 0)
(0.0933136 0.00527045 0)
(0.0931088 0.00554922 0)
(0.0928987 0.00584739 0)
(0.0926834 0.00616659 0)
(0.0954812 0.00314435 0)
(0.0953469 0.00328062 0)
(0.0952086 0.00342492 0)
(0.0950661 0.00357785 0)
(0.0949193 0.00374001 0)
(0.0947682 0.00391208 0)
(0.0946127 0.00409478 0)
(0.0944527 0.0042889 0)
(0.0942881 0.00449531 0)
(0.0941191 0.00471492 0)
(0.0939457 0.00494875 0)
(0.0937678 0.0051979 0)
(0.0935856 0.00546356 0)
(0.0933993 0.00574703 0)
(0.0932092 0.00604969 0)
(0.0930154 0.00637306 0)
(0.0956158 0.00327284 0)
(0.0954893 0.00341287 0)
(0.0953594 0.00356102 0)
(0.0952259 0.00371787 0)
(0.0950887 0.00388401 0)
(0.0949478 0.0040601 0)
(0.0948033 0.00424685 0)
(0.0946551 0.00444503 0)
(0.0945033 0.00465547 0)
(0.094348 0.00487907 0)
(0.0941892 0.00511679 0)
(0.0940271 0.0053697 0)
(0.0938619 0.00563893 0)
(0.0936939 0.0059257 0)
(0.0935234 0.00623133 0)
(0.0933509 0.00655725 0)
(0.0957538 0.0033937 0)
(0.0956353 0.00353698 0)
(0.0955137 0.00368842 0)
(0.0953892 0.00384857 0)
(0.0952617 0.00401804 0)
(0.0951311 0.00419745 0)
(0.0949976 0.00438749 0)
(0.0948612 0.0045889 0)
(0.0947221 0.00480248 0)
(0.0945803 0.0050291 0)
(0.094436 0.00526967 0)
(0.0942895 0.00552521 0)
(0.094141 0.00579678 0)
(0.093991 0.00608554 0)
(0.0938398 0.00639272 0)
(0.093688 0.00671965 0)
(0.0958947 0.0035069 0)
(0.0957841 0.0036529 0)
(0.0956711 0.00380708 0)
(0.0955555 0.00396996 0)
(0.0954376 0.00414211 0)
(0.0953173 0.00432415 0)
(0.0951947 0.00451674 0)
(0.0950701 0.00472058 0)
(0.0949434 0.00493645 0)
(0.094815 0.00516516 0)
(0.094685 0.00540759 0)
(0.0945538 0.00566469 0)
(0.0944218 0.00593745 0)
(0.0942893 0.00622696 0)
(0.0941569 0.00653437 0)
(0.0940251 0.00686088 0)
(0.0960381 0.0036124 0)
(0.0959354 0.00376065 0)
(0.0958308 0.00391703 0)
(0.0957242 0.00408205 0)
(0.0956158 0.00425628 0)
(0.0955057 0.00444029 0)
(0.095394 0.00463471 0)
(0.0952808 0.00484023 0)
(0.0951665 0.00505757 0)
(0.0950512 0.0052875 0)
(0.0949353 0.00553085 0)
(0.094819 0.00578849 0)
(0.0947029 0.00606137 0)
(0.0945875 0.00635049 0)
(0.0944732 0.00665689 0)
(0.0943609 0.00698168 0)
(0.0961835 0.00371025 0)
(0.0960887 0.00386025 0)
(0.0959924 0.00401832 0)
(0.0958947 0.00418494 0)
(0.0957957 0.00436065 0)
(0.0956956 0.00454599 0)
(0.0955945 0.00474158 0)
(0.0954928 0.00494805 0)
(0.0953905 0.00516609 0)
(0.095288 0.00539641 0)
(0.0951858 0.00563979 0)
(0.0950841 0.00589705 0)
(0.0949834 0.00616905 0)
(0.0948844 0.00645671 0)
(0.0947876 0.00676099 0)
(0.0946939 0.00708288 0)
(0.0963304 0.00380048 0)
(0.0962434 0.00395178 0)
(0.0961553 0.00411104 0)
(0.0960664 0.00427874 0)
(0.0959767 0.00445536 0)
(0.0958864 0.00464144 0)
(0.0957958 0.00483756 0)
(0.0957051 0.0050443 0)
(0.0956146 0.0052623 0)
(0.0955247 0.00549225 0)
(0.0954356 0.00573485 0)
(0.095348 0.00599086 0)
(0.0952622 0.00626107 0)
(0.095179 0.00654631 0)
(0.095099 0.00684744 0)
(0.0950229 0.00716537 0)
(0.0964784 0.00388319 0)
(0.096399 0.00403534 0)
(0.0963191 0.00419533 0)
(0.0962388 0.00436359 0)
(0.0961582 0.0045406 0)
(0.0960775 0.00472686 0)
(0.0959971 0.00492289 0)
(0.0959172 0.00512927 0)
(0.0958382 0.00534657 0)
(0.0957603 0.00557543 0)
(0.095684 0.0058165 0)
(0.0956099 0.00607046 0)
(0.0955385 0.00633805 0)
(0.0954704 0.00661999 0)
(0.0954063 0.00691708 0)
(0.0953471 0.00723009 0)
(0.096627 0.00395848 0)
(0.0965552 0.00411106 0)
(0.0964833 0.00427133 0)
(0.0964114 0.00443968 0)
(0.0963397 0.00461658 0)
(0.0962684 0.00480248 0)
(0.0961979 0.00499788 0)
(0.0961285 0.00520329 0)
(0.0960605 0.00541927 0)
(0.0959942 0.00564639 0)
(0.0959303 0.00588524 0)
(0.0958691 0.00613644 0)
(0.0958113 0.00640065 0)
(0.0957576 0.00667853 0)
(0.0957087 0.00697075 0)
(0.0956654 0.00727802 0)
(0.096776 0.00402648 0)
(0.0967116 0.00417911 0)
(0.0966474 0.00433922 0)
(0.0965837 0.00450723 0)
(0.0965206 0.00468355 0)
(0.0964585 0.0048686 0)
(0.0963976 0.00506284 0)
(0.0963383 0.00526675 0)
(0.0962809 0.00548084 0)
(0.0962259 0.00570561 0)
(0.0961737 0.00594162 0)
(0.0961249 0.00618942 0)
(0.0960801 0.00644958 0)
(0.09604 0.0067227 0)
(0.0960054 0.00700936 0)
(0.095977 0.00731017 0)
(0.0969249 0.00408736 0)
(0.0968677 0.00423965 0)
(0.0968111 0.00439923 0)
(0.0967553 0.00456647 0)
(0.0967007 0.00474177 0)
(0.0966473 0.00492551 0)
(0.0965957 0.00511812 0)
(0.0965461 0.00532004 0)
(0.0964989 0.00553171 0)
(0.0964546 0.0057536 0)
(0.0964137 0.00598621 0)
(0.0963766 0.00623003 0)
(0.0963442 0.00648555 0)
(0.0963169 0.00675331 0)
(0.0962957 0.0070338 0)
(0.0962814 0.00732754 0)
(0.0970733 0.00414129 0)
(0.0970231 0.00429289 0)
(0.0969739 0.00445156 0)
(0.0969259 0.00461766 0)
(0.0968793 0.00479154 0)
(0.0968345 0.00497356 0)
(0.0967917 0.0051641 0)
(0.0967515 0.00536356 0)
(0.096714 0.00557235 0)
(0.0966799 0.00579088 0)
(0.0966497 0.00601959 0)
(0.0966238 0.00625892 0)
(0.0966029 0.0065093 0)
(0.0965878 0.00677118 0)
(0.0965792 0.00704498 0)
(0.0965778 0.00733113 0)
(0.0972209 0.00418846 0)
(0.0971776 0.00433904 0)
(0.0971355 0.00449648 0)
(0.0970949 0.00466108 0)
(0.0970561 0.00483317 0)
(0.0970195 0.00501308 0)
(0.0969853 0.00520116 0)
(0.0969539 0.00539776 0)
(0.0969258 0.00560324 0)
(0.0969014 0.00581799 0)
(0.0968812 0.00604237 0)
(0.0968659 0.00627676 0)
(0.0968559 0.00652155 0)
(0.0968521 0.00677711 0)
(0.0968552 0.00704379 0)
(0.096866 0.00732193 0)
(0.0973675 0.00422907 0)
(0.0973307 0.00437834 0)
(0.0972955 0.00453422 0)
(0.0972621 0.004697 0)
(0.0972309 0.00486697 0)
(0.097202 0.00504443 0)
(0.097176 0.00522969 0)
(0.0971531 0.00542307 0)
(0.0971338 0.00562488 0)
(0.0971186 0.00583546 0)
(0.097108 0.00605513 0)
(0.0971025 0.00628422 0)
(0.0971028 0.00652305 0)
(0.0971095 0.00677192 0)
(0.0971235 0.00703112 0)
(0.0971455 0.00730091 0)
(0.0975127 0.00426335 0)
(0.0974823 0.00441103 0)
(0.0974537 0.00456507 0)
(0.0974272 0.00472574 0)
(0.0974031 0.00489329 0)
(0.0973818 0.00506798 0)
(0.0973635 0.00525011 0)
(0.0973486 0.00543994 0)
(0.0973377 0.00563776 0)
(0.0973312 0.00584385 0)
(0.0973295 0.00605849 0)
(0.0973333 0.00628195 0)
(0.0973431 0.0065145 0)
(0.0973597 0.00675638 0)
(0.0973838 0.00700783 0)
(0.0974161 0.00726903 0)
(0.0976564 0.00429151 0)
(0.0976321 0.00443736 0)
(0.0976098 0.00458931 0)
(0.0975899 0.00474759 0)
(0.0975727 0.00491245 0)
(0.0975584 0.00508411 0)
(0.0975475 0.00526283 0)
(0.0975403 0.00544883 0)
(0.0975372 0.00564238 0)
(0.0975388 0.0058437 0)
(0.0975456 0.00605304 0)
(0.097558 0.00627061 0)
(0.0975767 0.00649663 0)
(0.0976024 0.00673129 0)
(0.0976357 0.00697476 0)
(0.0976775 0.00722718 0)
(0.0977982 0.00431381 0)
(0.0977797 0.00445759 0)
(0.0977636 0.00460721 0)
(0.09775 0.00476288 0)
(0.0977392 0.00492481 0)
(0.0977317 0.00509319 0)
(0.0977278 0.00526825 0)
(0.0977278 0.0054502 0)
(0.0977321 0.00563923 0)
(0.0977413 0.00583555 0)
(0.0977559 0.00603935 0)
(0.0977764 0.00625082 0)
(0.0978033 0.00647012 0)
(0.0978374 0.00669739 0)
(0.0978792 0.00693274 0)
(0.0979296 0.00717626 0)
(0.0979379 0.00433047 0)
(0.0979251 0.00447199 0)
(0.0979147 0.00461908 0)
(0.0979071 0.00477192 0)
(0.0979026 0.0049307 0)
(0.0979014 0.0050956 0)
(0.0979041 0.0052668 0)
(0.0979108 0.00544447 0)
(0.0979222 0.0056288 0)
(0.0979385 0.00581993 0)
(0.0979604 0.00601802 0)
(0.0979883 0.00622322 0)
(0.0980228 0.00643565 0)
(0.0980645 0.0066554 0)
(0.0981142 0.00688254 0)
(0.0981724 0.00711709 0)
(0.0980755 0.00434174 0)
(0.098068 0.00448081 0)
(0.0980631 0.00462519 0)
(0.0980612 0.00477503 0)
(0.0980625 0.00493049 0)
(0.0980674 0.00509172 0)
(0.0980762 0.00525888 0)
(0.0980893 0.00543211 0)
(0.0981072 0.00561156 0)
(0.0981301 0.00579735 0)
(0.0981588 0.0059896 0)
(0.0981935 0.00618841 0)
(0.098235 0.00639387 0)
(0.0982838 0.00660602 0)
(0.0983405 0.0068249 0)
(0.0984058 0.00705049 0)
(0.0982106 0.00434787 0)
(0.0982082 0.00448434 0)
(0.0982085 0.00462584 0)
(0.098212 0.00477252 0)
(0.0982189 0.0049245 0)
(0.0982294 0.00508191 0)
(0.098244 0.00524489 0)
(0.0982631 0.00541354 0)
(0.098287 0.00558799 0)
(0.0983161 0.00576832 0)
(0.098351 0.00595462 0)
(0.0983921 0.00614697 0)
(0.09844 0.00634539 0)
(0.0984951 0.00654993 0)
(0.0985582 0.00676054 0)
(0.0986299 0.00697719 0)
(0.0999997 6.56112e-06 0)
(0.0999951 1.95088e-05 0)
(0.0999854 3.22787e-05 0)
(0.0999713 4.4928e-05 0)
(0.0999529 5.75172e-05 0)
(0.0999305 7.0078e-05 0)
(0.0999043 8.26725e-05 0)
(0.0998743 9.55173e-05 0)
(0.0998406 0.000109109 0)
(0.099803 0.000124245 0)
(0.0997611 0.00014188 0)
(0.0997143 0.000162831 0)
(0.0996618 0.000187458 0)
(0.0996026 0.000215452 0)
(0.0995362 0.000245818 0)
(0.0994624 0.000277064 0)
(0.0993813 0.000307512 0)
(0.0992937 0.000335642 0)
(0.0992005 0.000360349 0)
(0.0991028 0.000381092 0)
(0.099002 0.000397894 0)
(0.098899 0.000411246 0)
(0.0987948 0.000421954 0)
(0.09869 0.000430969 0)
(0.098585 0.000439244 0)
(0.09848 0.000447629 0)
(0.098375 0.000456812 0)
(0.0982699 0.000467302 0)
(0.0981644 0.000479433 0)
(0.0980582 0.000493395 0)
(0.0979511 0.000509269 0)
(0.0978427 0.000527056 0)
(0.0977327 0.000546714 0)
(0.097621 0.000568178 0)
(0.0975074 0.000591379 0)
(0.0973915 0.000616253 0)
(0.0972732 0.000642751 0)
(0.0971525 0.000670839 0)
(0.0970291 0.000700498 0)
(0.0969029 0.000731728 0)
(0.0967739 0.000764539 0)
(0.0966419 0.000798956 0)
(0.0965068 0.000835012 0)
(0.0963686 0.000872749 0)
(0.0962272 0.000912215 0)
(0.0960825 0.000953464 0)
(0.0959344 0.000996553 0)
(0.0957829 0.00104155 0)
(0.0956279 0.00108851 0)
(0.0954693 0.00113751 0)
(0.0953072 0.00118862 0)
(0.0951413 0.00124192 0)
(0.0949717 0.00129751 0)
(0.0947984 0.00135553 0)
(0.0946213 0.00141618 0)
(0.0999997 7.45848e-06 0)
(0.0999951 2.21837e-05 0)
(0.0999855 3.67011e-05 0)
(0.0999714 5.10833e-05 0)
(0.0999532 6.53967e-05 0)
(0.099931 7.96779e-05 0)
(0.0999049 9.39968e-05 0)
(0.099875 0.000108596 0)
(0.0998415 0.00012403 0)
(0.0998042 0.000141196 0)
(0.0997627 0.000161168 0)
(0.0997163 0.000184872 0)
(0.0996643 0.000212724 0)
(0.0996058 0.000244392 0)
(0.0995403 0.000278768 0)
(0.0994674 0.000314183 0)
(0.0993874 0.000348749 0)
(0.0993009 0.000380747 0)
(0.0992087 0.000408921 0)
(0.0991121 0.000432643 0)
(0.0990122 0.000451919 0)
(0.0989101 0.000467287 0)
(0.0988067 0.00047964 0)
(0.0987025 0.000490043 0)
(0.0985982 0.000499567 0)
(0.0984937 0.000509172 0)
(0.0983893 0.000519638 0)
(0.0982847 0.000531543 0)
(0.0981798 0.000545273 0)
(0.0980742 0.000561051 0)
(0.0979678 0.000578971 0)
(0.0978601 0.000599045 0)
(0.0977511 0.000621226 0)
(0.0976404 0.000645447 0)
(0.0975277 0.000671629 0)
(0.097413 0.000699703 0)
(0.0972961 0.000729612 0)
(0.0971767 0.000761319 0)
(0.0970548 0.000794801 0)
(0.0969302 0.000830056 0)
(0.0968029 0.000867096 0)
(0.0966728 0.000905944 0)
(0.0965397 0.000946638 0)
(0.0964037 0.000989221 0)
(0.0962645 0.00103375 0)
(0.0961222 0.00108027 0)
(0.0959766 0.00112886 0)
(0.0958278 0.00117958 0)
(0.0956757 0.0012325 0)
(0.0955201 0.0012877 0)
(0.0953611 0.00134525 0)
(0.0951986 0.00140523 0)
(0.0950326 0.00146775 0)
(0.094863 0.0015329 0)
(0.0946899 0.00160083 0)
(0.0999997 8.3505e-06 0)
(0.0999951 2.48419e-05 0)
(0.0999856 4.10957e-05 0)
(0.0999716 5.71994e-05 0)
(0.0999535 7.32257e-05 0)
(0.0999314 8.92159e-05 0)
(0.0999055 0.000105248 0)
(0.0998759 0.000121587 0)
(0.0998426 0.000138846 0)
(0.0998056 0.000158015 0)
(0.0997645 0.000180284 0)
(0.0997185 0.000206686 0)
(0.0996671 0.000237696 0)
(0.0996094 0.000272963 0)
(0.0995447 0.000311277 0)
(0.0994729 0.000350798 0)
(0.099394 0.000389439 0)
(0.0993086 0.000425284 0)
(0.0992176 0.000456927 0)
(0.0991222 0.000483649 0)