/*--------------------------------*- C++ -*----------------------------------*\
| =========                 |                                                 |
| \\      /  F ield         | OpenFOAM: The Open Source CFD Toolbox           |
|  \\    /   O peration     | Version:  2412                                  |
|   \\  /    A nd           | Website:  www.openfoam.com                      |
|    \\/     M anipulation  |                                                 |
\*---------------------------------------------------------------------------*/
FoamFile
{
    version     2.0;
    format      ascii;
    arch        "LSB;label=32;scalar=64";
    class       volScalarField;
    location    "11";
    object      p;
}
// * * * * * * * * * * * * * * * * * * * * * * * * * * * * * * * * * * * * * //

dimensions      [0 2 -2 0 0 0 0];

internalField   nonuniform List<scalar> 
5285
(
-0.000104237
-0.000115851
-0.000126523
-0.000136358
-0.000145355
-0.00015351
-0.000160834
-0.000167346
-0.000173066
-0.000178016
-0.000182223
-0.000185714
-0.000188521
-0.000190675
-0.000192209
-0.00019316
-0.000193563
-0.000193453
-0.000192869
-0.000191847
-0.000190422
-0.000188632
-0.00018651
-0.000184092
-0.000121994
-0.000133935
-0.000144738
-0.000154679
-0.000163742
-0.000171903
-0.000179177
-0.000185587
-0.000191155
-0.000195908
-0.000199875
-0.000203087
-0.000205578
-0.000207383
-0.000208541
-0.000209089
-0.000209067
-0.000208516
-0.000207474
-0.000205983
-0.000204082
-0.00020181
-0.000199204
-0.000196301
-0.000140784
-0.000153065
-0.000163985
-0.000174023
-0.000183141
-0.000191293
-0.000198496
-0.000204779
-0.000210168
-0.000214693
-0.000218386
-0.000221282
-0.000223418
-0.000224835
-0.000225574
-0.000225678
-0.00022519
-0.000224153
-0.000222613
-0.000220612
-0.000218193
-0.0002154
-0.000212271
-0.000208847
-0.000160678
-0.000173316
-0.000184342
-0.000194466
-0.000203626
-0.00021175
-0.000218859
-0.000224988
-0.000230167
-0.000234428
-0.000237808
-0.000240347
-0.000242086
-0.00024307
-0.000243345
-0.000242958
-0.000241957
-0.000240389
-0.000238304
-0.000235748
-0.000232768
-0.00022941
-0.000225718
-0.000221733
-0.00018176
-0.000194771
-0.000205893
-0.000216092
-0.000225279
-0.000233354
-0.000240342
-0.000246284
-0.000251216
-0.000255174
-0.000258198
-0.000260334
-0.000261628
-0.00026213
-0.00026189
-0.000260961
-0.000259396
-0.000257246
-0.000254566
-0.000251405
-0.000247817
-0.000243848
-0.000239548
-0.000234961
-0.000204126
-0.00021753
-0.000228733
-0.000238991
-0.000248187
-0.000256189
-0.000263024
-0.000268744
-0.000273389
-0.000276998
-0.000279618
-0.000281299
-0.000282095
-0.000282059
-0.000281249
-0.000279722
-0.000277535
-0.000274748
-0.000271418
-0.0002676
-0.000263351
-0.000258722
-0.000253766
-0.00024853
-0.000227883
-0.000241696
-0.000252965
-0.000263265
-0.000272449
-0.000280348
-0.000286996
-0.000292452
-0.000296761
-0.000299971
-0.000302132
-0.000303302
-0.000303539
-0.000302904
-0.000301461
-0.000299274
-0.000296405
-0.000292919
-0.00028888
-0.000284347
-0.000279381
-0.000274038
-0.000268375
-0.000262442
-0.000253148
-0.000267389
-0.000278702
-0.000289024
-0.000298171
-0.000305934
-0.000312353
-0.000317497
-0.000321419
-0.000324171
-0.000325812
-0.000326405
-0.000326017
-0.000324716
-0.000322572
-0.000319655
-0.000316036
-0.000311784
-0.00030697
-0.000301659
-0.000295915
-0.000289801
-0.000283375
-0.000276693
-0.000280049
-0.000294738
-0.000306072
-0.000316391
-0.00032547
-0.000333059
-0.000339201
-0.00034398
-0.000347454
-0.000349683
-0.000350734
-0.000350679
-0.000349591
-0.000347547
-0.000344625
-0.000340903
-0.000336458
-0.000331368
-0.000325708
-0.000319549
-0.000312963
-0.000306014
-0.000298767
-0.000291279
-0.000308732
-0.000323887
-0.000335214
-0.0003455
-0.000354476
-0.000361845
-0.000367657
-0.000372007
-0.000374965
-0.000376598
-0.000376981
-0.000376195
-0.000374324
-0.000371453
-0.000367669
-0.000363057
-0.000357705
-0.000351696
-0.000345112
-0.000338031
-0.00033053
-0.000322679
-0.000314547
-0.000306195
-0.000339355
-0.000354997
-0.000366282
-0.000376499
-0.000385333
-0.000392429
-0.000397846
-0.000401698
-0.000404062
-0.000405014
-0.000404641
-0.000403034
-0.000400286
-0.000396494
-0.000391753
-0.00038616
-0.000379809
-0.000372793
-0.0003652
-0.000357116
-0.000348623
-0.000339797
-0.000330711
-0.00032143
-0.000372097
-0.000388245
-0.000399449
-0.000409555
-0.000418197
-0.000424959
-0.00042991
-0.000433181
-0.000434862
-0.000435039
-0.00043381
-0.000431279
-0.000427551
-0.000422733
-0.000416931
-0.000410254
-0.000402804
-0.000394683
-0.000385989
-0.000376813
-0.000367244
-0.000357365
-0.000347251
-0.000336974
-0.000407158
-0.000423831
-0.000434904
-0.00044485
-0.000453243
-0.0004596
-0.000464001
-0.000466598
-0.000467494
-0.000466789
-0.000464593
-0.000461022
-0.000456196
-0.000450235
-0.000443257
-0.000435382
-0.000426723
-0.000417392
-0.000407494
-0.00039713
-0.000386396
-0.000375378
-0.000364158
-0.000352812
-0.000444759
-0.000461978
-0.000472864
-0.000482589
-0.000490665
-0.000496534
-0.000500289
-0.000502105
-0.000502101
-0.00050039
-0.000497099
-0.00049236
-0.000486305
-0.000479071
-0.000470788
-0.000461589
-0.0004516
-0.000440942
-0.00042973
-0.000418074
-0.000406075
-0.000393827
-0.000381417
-0.000368924
-0.000485152
-0.000502935
-0.000513565
-0.000522999
-0.000530679
-0.000535964
-0.000538961
-0.000539872
-0.000538835
-0.000535981
-0.000531451
-0.000525397
-0.000517967
-0.000509313
-0.000499583
-0.000488922
-0.000477468
-0.000465355
-0.000452709
-0.000439646
-0.000426277
-0.000412701
-0.00039901
-0.000385287
-0.000528618
-0.000546985
-0.000557276
-0.000566336
-0.000573526
-0.000578113
-0.000580222
-0.000580087
-0.000577867
-0.00057371
-0.000567779
-0.000560244
-0.000551275
-0.00054104
-0.000529703
-0.000517425
-0.00050436
-0.000490652
-0.000476439
-0.000461846
-0.000446992
-0.000431983
-0.000416915
-0.000401876
-0.000575478
-0.000594445
-0.0006043
-0.000612884
-0.000619473
-0.000623231
-0.000624302
-0.000622957
-0.00061938
-0.00061374
-0.000606224
-0.000597023
-0.000586329
-0.00057433
-0.00056121
-0.000547146
-0.000532307
-0.00051685
-0.000500926
-0.00048467
-0.000468207
-0.000451651
-0.000435103
-0.000418655
-0.000626094
-0.000645675
-0.000654976
-0.000662964
-0.000668822
-0.000671595
-0.000671454
-0.000668711
-0.000663577
-0.000656249
-0.000646938
-0.000635861
-0.000623234
-0.000609269
-0.000594169
-0.00057813
-0.000561338
-0.000543965
-0.000526173
-0.000508107
-0.000489903
-0.000471679
-0.000453542
-0.000435586
-0.000645944
-0.000628645
-0.000610423
-0.00059148
-0.000572006
-0.000552175
-0.000532144
-0.000512054
-0.000492033
-0.00047219
-0.000452624
-5.39064e-06
-2.1489e-05
-3.69344e-05
-5.17092e-05
-6.58011e-05
-7.91969e-05
-9.18769e-05
-1.92511e-05
-3.59123e-05
-5.19056e-05
-6.72122e-05
-8.18194e-05
-9.57002e-05
-0.000108822
-3.38755e-05
-5.11413e-05
-6.77216e-05
-8.35954e-05
-9.87494e-05
-0.000113142
-0.000126722
-4.93171e-05
-6.72228e-05
-8.44249e-05
-0.000100901
-0.000116638
-0.000131577
-0.000145649
-6.56375e-05
-8.42226e-05
-0.000102086
-0.000119202
-0.000135559
-0.000151081
-0.000165674
-8.2905e-05
-0.000102213
-0.00012078
-0.000138579
-0.000155597
-0.000171738
-0.000186886
-0.000101194
-0.000121273
-0.00014059
-0.000159117
-0.000176841
-0.000193644
-0.000209382
-0.000120586
-0.000141489
-0.000161608
-0.000180912
-0.000199391
-0.000216901
-0.000233269
-0.000141172
-0.000162956
-0.000183932
-0.000204069
-0.000223357
-0.000241625
-0.000258666
-0.000163052
-0.000185779
-0.000207675
-0.000228705
-0.000248861
-0.000267943
-0.000285703
-0.000186335
-0.000210076
-0.000232959
-0.000254948
-0.000276038
-0.000295995
-0.000314526
-0.000211145
-0.000235975
-0.00025992
-0.000282942
-0.000305038
-0.000325938
-0.000345297
-0.000237616
-0.00026362
-0.00028871
-0.000312846
-0.000336028
-0.000357947
-0.000378196
-0.0002659
-0.000293172
-0.0003195
-0.000344839
-0.000369195
-0.000392218
-0.000413424
-0.000296166
-0.00032481
-0.000352476
-0.00037912
-0.000404748
-0.000428968
-0.000451207
-0.000328602
-0.000358734
-0.000387853
-0.000415911
-0.000442923
-0.000468445
-0.000491798
-0.000363419
-0.000395169
-0.000425869
-0.000455467
-0.000483983
-0.000510925
-0.000535482
-0.000400855
-0.000434369
-0.000466792
-0.000498069
-0.000528229
-0.000556723
-0.000582584
-0.000441177
-0.00047662
-0.000510927
-0.00054404
-0.000576
-0.000606196
-0.000633475
-0.000484687
-0.000522244
0.000123189
0.000103338
8.39563e-05
6.50246e-05
4.65798e-05
2.86719e-05
1.13385e-05
0.000113593
9.30416e-05
7.30723e-05
5.35377e-05
3.44833e-05
1.59757e-05
-1.94594e-06
0.000103492
8.2218e-05
6.16358e-05
4.14581e-05
2.17514e-05
2.60201e-06
-1.59508e-05
9.28459e-05
7.07878e-05
4.95649e-05
2.87145e-05
8.31619e-06
-1.15164e-05
-3.07373e-05
8.16168e-05
5.87205e-05
3.6819e-05
1.52542e-05
-5.8762e-06
-2.64337e-05
-4.63626e-05
6.9765e-05
4.59703e-05
2.33504e-05
1.02867e-06
-2.08808e-05
-4.22073e-05
-6.28902e-05
5.72469e-05
3.2487e-05
9.10548e-06
-1.40198e-05
-3.67574e-05
-5.88987e-05
-8.03898e-05
4.40153e-05
1.82165e-05
-5.97441e-06
-2.99548e-05
-5.35768e-05
-7.65931e-05
-9.89405e-05
3.00188e-05
3.0999e-06
-2.19531e-05
-4.68453e-05
-7.14123e-05
-9.5363e-05
-0.000118626
1.52015e-05
-1.29275e-05
-3.89007e-05
-6.4767e-05
-9.03458e-05
-0.000115297
-0.000139542
-4.97298e-07
-2.99365e-05
-5.6894e-05
-8.38034e-05
-0.000110468
-0.000136492
-0.000161791
-1.71438e-05
-4.80042e-05
-7.60176e-05
-0.000104046
-0.000131878
-0.000159057
-0.000185488
-3.481e-05
-6.72157e-05
-9.63644e-05
-0.000125597
-0.000154686
-0.000183109
-0.00021076
-5.35742e-05
-8.76638e-05
-0.000118037
-0.000148568
-0.000179015
-0.000208782
-0.00023775
-7.35215e-05
-0.000109451
-0.000141148
-0.000173082
-0.000205001
-0.000236221
-0.000266616
-9.47448e-05
-0.000132689
-0.000165823
-0.000199278
-0.000232793
-0.000265592
-0.000297533
-0.000117345
-0.000157501
-0.000192199
-0.000227308
-0.00026256
-0.000297076
-0.000330698
-0.000141432
-0.000184024
-0.000220431
-0.000257343
-0.00029449
-0.000330878
-0.000366334
-0.000167125
-0.000212407
-0.000250688
-0.000289571
-0.000328791
-0.000367228
-0.000404688
-0.000406384
-0.000446041
0.000747305
0.000736167
0.000724527
0.000712377
0.000699709
0.000686515
0.000672791
0.000658531
0.000643735
0.000628402
0.000612533
0.000596132
0.000579206
0.000561763
0.000543815
0.000525375
0.000506461
0.000487094
0.000467296
0.000447093
0.000426516
0.000405598
0.000384374
0.000362884
0.000341169
0.000319276
0.000297252
0.000275147
0.000253014
0.000230907
0.000208883
0.000186997
0.000165313
0.000143913
0.000758109
0.000746883
0.000735132
0.000722845
0.000710011
0.000696623
0.000682674
0.000668159
0.000653074
0.000637417
0.00062119
0.000604394
0.000587036
0.000569123
0.000550667
0.000531681
0.000512183
0.000492193
0.000471735
0.000450836
0.000429527
0.000407843
0.000385822
0.000363504
0.000340936
0.000318165
0.000295242
0.000272222
0.000249161
0.000226118
0.000203154
0.000180328
0.000157718
0.00013542
0.000769399
0.000758096
0.000746243
0.000733825
0.000720833
0.000707257
0.000693087
0.000678317
0.000662942
0.00064696
0.000630369
0.000613171
0.00059537
0.000576975
0.000557995
0.000538443
0.000518338
0.000497699
0.000476551
0.000454922
0.000432844
0.000410354
0.000387491
0.000364299
0.000340826
0.000317123
0.000293246
0.000269251
0.000245201
0.000221159
0.00019719
0.000173359
0.000149756
0.000126498
0.000781197
0.000769829
0.000757883
0.000745346
0.000732204
0.000718445
0.000704059
0.000689038
0.000673374
0.000657064
0.000640106
0.000622498
0.000604246
0.000585355
0.000565834
0.000545698
0.000524961
0.000503647
0.000481778
0.000459384
0.000436499
0.000413159
0.000389408
0.000365291
0.000340859
0.000316167
0.000291274
0.000266242
0.000241136
0.000216026
0.000190983
0.000166074
0.000141407
0.000117122
0.000793526
0.000782106
0.000770081
0.000757434
0.000744152
0.000730218
0.000715623
0.000700355
0.000684405
0.000667767
0.000650438
0.000632416
0.000613702
0.000594303
0.000574226
0.000553484
0.000532094
0.000510075
0.000487454
0.000464259
0.000440525
0.000416291
0.000391602
0.000366506
0.000341057
0.000315314
0.000289339
0.0002632
0.000236967
0.000210716
0.000184522
0.000158458
0.000132649
0.000107262
0.000806409
0.000794953
0.000782862
0.00077012
0.000756708
0.00074261
0.000727813
0.000712304
0.000696071
0.000679107
0.000661406
0.000642964
0.000623782
0.000603862
0.000583214
0.000561847
0.000539778
0.000517027
0.00049362
0.000469585
0.00044496
0.000419784
0.000394104
0.000367972
0.000341444
0.000314583
0.000287457
0.000260136
0.000232699
0.000205225
0.000177797
0.000150494
0.000123458
9.68874e-05
0.000819872
0.000808396
0.000796256
0.000783432
0.000769904
0.000755655
0.000740666
0.000724924
0.000708414
0.000691127
0.000673053
0.000654188
0.000634529
0.00061408
0.000592844
0.000570833
0.000548062
0.000524549
0.000500321
0.000475408
0.000449846
0.000423678
0.000396952
0.000369722
0.000342049
0.000313999
0.000285644
0.000257062
0.000228335
0.00019955
0.000170799
0.000142164
0.000113808
8.59643e-05
0.000833939
0.000822462
0.000810291
0.000797402
0.000783775
0.000769387
0.00075422
0.000738254
0.000721475
0.000703869
0.000685424
0.000666134
0.000645995
0.000625004
0.000603168
0.000580494
0.000556996
0.000532692
0.000507609
0.000481776
0.000455231
0.000428017
0.000400185
0.000371792
0.000342902
0.000313586
0.000283921
0.00025399
0.000223882
0.000193692
0.000163517
0.000133449
0.000103673
7.44568e-05
0.000848636
0.000837179
0.000824997
0.000812064
0.000798355
0.000783846
0.000768514
0.000752338
0.000735299
0.000717381
0.00069857
0.000678855
0.00065823
0.000636691
0.000614241
0.000590885
0.000566636
0.000541512
0.000515537
0.000488742
0.000461164
0.000432849
0.000403849
0.000374224
0.000344041
0.000313376
0.000282312
0.000250937
0.000219348
0.000187649
0.000155944
0.000124332
9.30234e-05
6.23257e-05
0.000863988
0.000852575
0.000840406
0.00082745
0.00081368
0.000799069
0.00078359
0.000767219
0.000749933
0.000731713
0.000712541
0.000692404
0.000671292
0.000649198
0.000626121
0.000602067
0.000577044
0.00055107
0.000524167
0.000496366
0.000467705
0.00043823
0.000407995
0.000377063
0.000345506
0.000313404
0.000280844
0.000247923
0.000214746
0.000181423
0.000148069
0.000114792
8.18279e-05
4.9529e-05
0.000880022
0.00086868
0.000856548
0.000843595
0.000829788
0.000815097
0.000799492
0.000782944
0.000765427
0.000746917
0.000727394
0.00070684
0.000685241
0.000662587
0.000638875
0.000614105
0.000588286
0.000561432
0.000533564
0.000504712
0.000474915
0.000444218
0.000412679
0.000380363
0.000347344
0.000313709
0.00027955
0.000244972
0.000210087
0.000175017
0.000139885
0.000104809
7.0054e-05
3.60212e-05
0.000896763
0.000885522
0.000873457
0.000860535
0.000846718
0.000831973
0.000816265
0.000799562
0.000781833
0.00076305
0.000743188
0.000722224
0.000700142
0.000676926
0.00065257
0.000627072
0.000600435
0.000572672
0.000543802
0.000513854
0.000482865
0.000450883
0.000417966
0.000384181
0.000349608
0.000314337
0.000278468
0.000242112
0.000205391
0.000168436
0.000131385
9.43622e-05
5.76668e-05
2.1753e-05
0.00091424
0.000903131
0.000891166
0.000878306
0.00086451
0.00084974
0.000833957
0.000817124
0.000799206
0.000780169
0.000759984
0.000738623
0.000716064
0.000692288
0.000667284
0.000641044
0.000613569
0.000584869
0.00055496
0.000523869
0.000491633
0.000458299
0.000423926
0.000388585
0.000352358
0.00031534
0.000277639
0.000239374
0.000200677
0.00016169
0.000122563
8.34308e-05
4.46296e-05
6.67144e-06
0.000932477
0.000921537
0.000909707
0.000896945
0.000883205
0.000868443
0.000852617
0.000835684
0.000817604
0.000798338
0.00077785
0.000756107
0.000733082
0.00070875
0.000683095
0.000656105
0.000627775
0.000598112
0.000567128
0.000534848
0.000501306
0.000466551
0.00043064
0.000393648
0.000355661
0.000316778
0.000277115
0.000236799
0.000195972
0.000154789
0.000113414
7.19939e-05
3.09034e-05
-9.28073e-06
0.000951502
0.00094077
0.000929115
0.000916489
0.000902843
0.000888129
0.000872296
0.000855298
0.000837087
0.00081762
0.000796854
0.00077475
0.000751275
0.000726397
0.000700093
0.000672346
0.000643147
0.000612496
0.000580401
0.000546885
0.00051198
0.000475731
0.000438199
0.000399457
0.000359596
0.000318721
0.000276954
0.000234432
0.000191307
0.00014775
0.000103937
6.00307e-05
1.64475e-05
-2.61652e-05
0.000971339
0.000960858
0.000949422
0.000936977
0.000923469
0.000908843
0.000893045
0.000876021
0.000857718
0.000838085
0.000817071
0.000794633
0.000770726
0.000745316
0.00071837
0.000689865
0.000659786
0.000628125
0.000594887
0.000560089
0.000523761
0.000485945
0.000446701
0.000406106
0.000364251
0.000321247
0.000277223
0.000232327
0.000186722
0.000140593
9.41336e-05
4.75215e-05
1.21919e-06
-4.40483e-05
0.000992013
0.000981831
0.000970662
0.000958446
0.000945124
0.000930635
0.000914919
0.000897915
0.000879562
0.000859803
0.000838579
0.000815837
0.000791527
0.000765604
0.000738029
0.000708769
0.000677802
0.000645113
0.000610702
0.000574578
0.000536767
0.000497309
0.000456262
0.000413703
0.000369726
0.000324447
0.000278002
0.000230548
0.000182263
0.000133346
8.40091e-05
3.44474e-05
-1.48259e-05
-6.30014e-05
0.00101355
0.00100372
0.000992866
0.000980933
0.000967851
0.000953553
0.000937972
0.000921039
0.000902687
0.000882848
0.000861457
0.000838452
0.000813772
0.000787363
0.000759176
0.000729171
0.000697315
0.000663586
0.000627973
0.000590481
0.000551129
0.000509953
0.000467008
0.00042237
0.000376135
0.000328424
0.00027938
0.00022917
0.000177985
0.000126042
7.35733e-05
2.07915e-05
-3.17339e-05
-8.31015e-05
0.000497936
0.000493257
0.000488556
0.000483833
0.000479089
0.000474327
0.000469546
0.000464749
0.000459936
0.000455108
0.000450268
0.000445415
0.000440552
0.00043568
0.0004308
0.000425914
0.000421022
0.000416126
0.000411228
0.000406328
0.000401428
0.00039653
0.000391635
0.000386744
0.000381859
0.00037698
0.00037211
0.000367249
0.0003624
0.000357562
0.000352738
0.00034793
0.000343137
0.000338362
0.000498115
0.000493428
0.000488718
0.000483986
0.000479233
0.000474462
0.000469672
0.000464865
0.000460043
0.000455206
0.000450355
0.000445493
0.000440621
0.000435738
0.000430848
0.000425952
0.000421049
0.000416143
0.000411235
0.000406325
0.000401415
0.000396507
0.000391601
0.0003867
0.000381804
0.000376915
0.000372035
0.000367164
0.000362304
0.000357457
0.000352623
0.000347804
0.000343002
0.000338217
0.000498464
0.00049376
0.000489033
0.000484284
0.000479515
0.000474725
0.000469918
0.000465093
0.000460252
0.000455396
0.000450527
0.000445645
0.000440753
0.000435852
0.000430942
0.000426026
0.000421104
0.000416178
0.000411249
0.000406319
0.000401389
0.00039646
0.000391535
0.000386613
0.000381697
0.000376788
0.000371888
0.000366997
0.000362118
0.000357251
0.000352398
0.00034756
0.000342738
0.000337934
0.000498974
0.000494247
0.000489495
0.000484722
0.000479926
0.000475111
0.000470277
0.000465426
0.000460558
0.000455675
0.000450778
0.000445869
0.000440948
0.000436018
0.00043108
0.000426134
0.000421183
0.000416228
0.00041127
0.00040631
0.000401351
0.000396393
0.000391438
0.000386487
0.000381541
0.000376603
0.000371673
0.000366754
0.000361845
0.000356949
0.000352068
0.000347201
0.000342352
0.000337521
0.000499641
0.000494882
0.000490099
0.000485292
0.000480464
0.000475615
0.000470747
0.000465861
0.000460958
0.000456039
0.000451106
0.00044616
0.000441203
0.000436236
0.00043126
0.000426277
0.000421288
0.000416294
0.000411298
0.0004063
0.000401302
0.000396305
0.000391311
0.000386322
0.000381338
0.000376361
0.000371394
0.000366436
0.00036149
0.000356556
0.000351637
0.000346734
0.000341849
0.000336981
0.000500457
0.00049566
0.000490838
0.000485992
0.000481123
0.000476234
0.000471323
0.000466395
0.000461448
0.000456486
0.000451509
0.000446519
0.000441516
0.000436504
0.000431482
0.000426452
0.000421417
0.000416376
0.000411333
0.000406288
0.000401243
0.000396199
0.000391157
0.000386121
0.00038109
0.000376066
0.000371051
0.000366047
0.000361054
0.000356075
0.000351111
0.000346162
0.000341232
0.000336321
0.00050142
0.000496578
0.00049171
0.000486817
0.000481901
0.000476963
0.000472004
0.000467025
0.000462028
0.000457014
0.000451985
0.000446942
0.000441887
0.00043682
0.000431744
0.00042666
0.00042157
0.000416474
0.000411375
0.000406275
0.000401174
0.000396074
0.000390977
0.000385884
0.000380798
0.000375719
0.000370649
0.000365589
0.000360542
0.000355508
0.00035049
0.000345489
0.000340505
0.000335542
0.000502524
0.000497631
0.000492711
0.000487765
0.000482795
0.000477801
0.000472785
0.000467749
0.000462694
0.000457622
0.000452533
0.00044743
0.000442313
0.000437185
0.000432047
0.000426901
0.000421747
0.000416588
0.000411426
0.000406261
0.000401096
0.000395932
0.000390771
0.000385614
0.000380464
0.000375321
0.000370187
0.000365064
0.000359954
0.000354858
0.000349778
0.000344715
0.000339672
0.000334648
0.000503769
0.000498818
0.000493839
0.000488834
0.000483802
0.000478746
0.000473667
0.000468567
0.000463447
0.000458308
0.000453152
0.000447981
0.000442796
0.000437599
0.000432391
0.000427174
0.000421949
0.000416719
0.000411485
0.000406248
0.000401011
0.000395774
0.000390541
0.000385312
0.000380089
0.000374874
0.000369669
0.000364475
0.000359294
0.000354127
0.000348977
0.000343845
0.000338733
0.000333642
0.000505151
0.000500137
0.000495093
0.000490021
0.000484922
0.000479797
0.000474649
0.000469477
0.000464285
0.000459073
0.000453842
0.000448596
0.000443335
0.00043806
0.000432775
0.000427479
0.000422176
0.000416866
0.000411552
0.000406236
0.000400918
0.000395601
0.000390287
0.000384978
0.000379675
0.00037438
0.000369094
0.000363821
0.000358561
0.000353316
0.000348089
0.00034288
0.000337691
0.000332525
0.000506669
0.000501586
0.000496471
0.000491327
0.000486154
0.000480954
0.000475729
0.00047048
0.000465208
0.000459915
0.000454604
0.000449274
0.00044393
0.000438571
0.0004332
0.000427818
0.000422428
0.000417032
0.00041163
0.000406225
0.000400819
0.000395414
0.000390011
0.000384613
0.000379222
0.000373838
0.000368465
0.000363105
0.000357758
0.000352427
0.000347113
0.00034182
0.000336548
0.000331299
0.000508322
0.000503164
0.000497973
0.000492751
0.000487498
0.000482217
0.000476908
0.000471574
0.000466216
0.000460836
0.000455436
0.000450017
0.000444581
0.000439131
0.000433667
0.000428192
0.000422707
0.000417215
0.000411718
0.000406217
0.000400715
0.000395213
0.000389714
0.00038422
0.000378731
0.000373252
0.000367783
0.000362327
0.000356885
0.00035146
0.000346053
0.000340667
0.000335303
0.000329964
0.000510111
0.000504872
0.000499599
0.000494293
0.000488954
0.000483585
0.000478187
0.000472761
0.000467311
0.000461837
0.000456341
0.000450825
0.000445291
0.000439741
0.000434177
0.0004286
0.000423014
0.000417419
0.000411818
0.000406213
0.000400607
0.000395
0.000389397
0.000383797
0.000378204
0.000372621
0.000367048
0.000361488
0.000355943
0.000350416
0.000344908
0.000339422
0.000333959
0.000328522
0.000512034
0.00050671
0.000501349
0.000495953
0.000490522
0.000485059
0.000479565
0.000474042
0.000468492
0.000462917
0.000457319
0.000451699
0.000446059
0.000440402
0.00043473
0.000429045
0.000423348
0.000417643
0.000411931
0.000406214
0.000400495
0.000394776
0.000389059
0.000383347
0.000377642
0.000371945
0.00036626
0.000360589
0.000354933
0.000349296
0.000343679
0.000338084
0.000332515
0.000326972
0.000514093
0.000508679
0.000503225
0.000497732
0.000492204
0.000486641
0.000481045
0.000475418
0.000469762
0.000464079
0.000458371
0.00045264
0.000446888
0.000441117
0.000435329
0.000429527
0.000423713
0.000417889
0.000412058
0.000406221
0.000400381
0.000394542
0.000388704
0.00038287
0.000377044
0.000371227
0.000365421
0.00035963
0.000353855
0.0003481
0.000342366
0.000336655
0.000330971
0.000325315
0.000516289
0.000510779
0.000505226
0.000499633
0.000494001
0.000488332
0.000482628
0.000476891
0.000471122
0.000465324
0.0004595
0.00045365
0.000447778
0.000441886
0.000435975
0.000430049
0.000424109
0.000418159
0.0004122
0.000406235
0.000400267
0.000394298
0.000388331
0.000382368
0.000376412
0.000370466
0.000364531
0.000358612
0.00035271
0.000346828
0.000340968
0.000335134
0.000329327
0.00032355
0.000518623
0.000513011
0.000507355
0.000501655
0.000495914
0.000490133
0.000484315
0.000478461
0.000472574
0.000466655
0.000460707
0.000454732
0.000448733
0.000442711
0.00043667
0.000430611
0.000424538
0.000418453
0.000412359
0.000406258
0.000400153
0.000394046
0.000387941
0.00038184
0.000375747
0.000369663
0.000363591
0.000357535
0.000351497
0.00034548
0.000339487
0.00033352
0.000327583
0.000321676
0.000521096
0.000515379
0.000509613
0.000503802
0.000497946
0.000492048
0.000486109
0.000480132
0.000474119
0.000468073
0.000461994
0.000455887
0.000449753
0.000443595
0.000437415
0.000431217
0.000425003
0.000418775
0.000412537
0.000406291
0.00040004
0.000393788
0.000387536
0.000381289
0.000375049
0.000368818
0.000362601
0.0003564
0.000350218
0.000344057
0.000337922
0.000331814
0.000325737
0.000319694
0.00052371
0.000517882
0.000512004
0.000506075
0.000500099
0.000494078
0.000488013
0.000481907
0.000475762
0.00046958
0.000463364
0.000457117
0.000450841
0.000444539
0.000438214
0.000431868
0.000425504
0.000419125
0.000412735
0.000406336
0.000399931
0.000393524
0.000387117
0.000380715
0.000374319
0.000367934
0.000361562
0.000355206
0.000348871
0.000342558
0.000336272
0.000330015
0.000323791
0.000317602
0.000526468
0.000520525
0.000514528
0.000508477
0.000502376
0.000496225
0.000490028
0.000483786
0.000477503
0.00047118
0.00046482
0.000458426
0.000452001
0.000445547
0.000439068
0.000432566
0.000426044
0.000419506
0.000412955
0.000406395
0.000399827
0.000393256
0.000386686
0.000380119
0.000373558
0.000367009
0.000360473
0.000353954
0.000347456
0.000340983
0.000334537
0.000328122
0.000321741
0.000315398
0.000529371
0.00052331
0.000517189
0.000511011
0.000504779
0.000498493
0.000492158
0.000485775
0.000479346
0.000472875
0.000466364
0.000459816
0.000453234
0.000446621
0.00043998
0.000433314
0.000426626
0.000419921
0.0004132
0.000406469
0.00039973
0.000392986
0.000386242
0.000379502
0.000372768
0.000366044
0.000359335
0.000352644
0.000345975
0.000339331
0.000332716
0.000326134
0.000319588
0.000313083
0.000532424
0.000526238
0.000519989
0.000513679
0.000507311
0.000500885
0.000494406
0.000487875
0.000481295
0.000474669
0.000468
0.000461291
0.000454544
0.000447764
0.000440953
0.000434115
0.000427253
0.000420371
0.000413472
0.000406561
0.000399641
0.000392715
0.000385789
0.000378865
0.000371948
0.000365042
0.00035815
0.000351277
0.000344426
0.000337603
0.000330809
0.000324051
0.000317331
0.000310653
0.000535627
0.000529313
0.000522932
0.000516485
0.000509975
0.000503405
0.000496775
0.000490091
0.000483353
0.000476566
0.000469731
0.000462853
0.000455934
0.000448979
0.00044199
0.000434971
0.000427926
0.000420859
0.000413773
0.000406673
0.000399562
0.000392446
0.000385327
0.00037821
0.0003711
0.000364001
0.000356916
0.000349851
0.00034281
0.000335797
0.000328816
0.000321871
0.000314967
0.000308108
0.000538985
0.000532539
0.000526021
0.000519433
0.000512776
0.000506054
0.00049927
0.000492425
0.000485523
0.000478567
0.000471561
0.000464506
0.000457408
0.00045027
0.000443094
0.000435886
0.000428649
0.000421388
0.000414106
0.000406807
0.000399497
0.000392179
0.000384858
0.000377539
0.000370225
0.000362923
0.000355636
0.000348368
0.000341126
0.000333913
0.000326734
0.000319593
0.000312496
0.000305446
0.0005425
0.000535919
0.000529259
0.000522525
0.000515717
0.000508839
0.000501893
0.000494882
0.00048781
0.000480679
0.000473492
0.000466255
0.000458969
0.000451639
0.000444269
0.000436864
0.000429426
0.000421961
0.000414473
0.000406966
0.000399446
0.000391917
0.000384384
0.000376851
0.000369324
0.000361808
0.000354308
0.000346828
0.000339374
0.000331951
0.000324564
0.000317217
0.000309916
0.000302665
0.000546176
0.000539455
0.000532651
0.000525765
0.000518801
0.000511761
0.000504649
0.000497466
0.000490216
0.000482904
0.000475531
0.000468102
0.000460621
0.000453092
0.000445519
0.000437906
0.000430259
0.000422581
0.000414877
0.000407153
0.000399413
0.000391662
0.000383906
0.00037615
0.000368399
0.000360658
0.000352934
0.000345231
0.000337554
0.00032991
0.000322304
0.00031474
0.000307225
0.000299763
0.000550016
0.000543152
0.000536198
0.000529158
0.000522033
0.000514827
0.000507541
0.000500181
0.000492748
0.000485246
0.00047768
0.000470053
0.000462369
0.000454632
0.000446847
0.000439019
0.000431152
0.000423251
0.000415322
0.00040737
0.0003994
0.000391417
0.000383427
0.000375436
0.00036745
0.000359474
0.000351514
0.000343576
0.000335666
0.00032779
0.000319953
0.000312162
0.000304422
0.000296739
0.000554024
0.000547013
0.000539907
0.000532707
0.000525417
0.000518039
0.000510576
0.000503031
0.000495408
0.000487712
0.000479944
0.000472111
0.000464216
0.000456263
0.000448257
0.000440204
0.000432109
0.000423976
0.000415811
0.000407621
0.000399409
0.000391184
0.000382949
0.000374712
0.000366479
0.000358256
0.000350049
0.000341865
0.00033371
0.00032559
0.000317512
0.000309481
0.000301505
0.000293589
0.000558203
0.000551042
0.00054378
0.000536417
0.000528956
0.000521402
0.000513755
0.000506021
0.000498203
0.000490304
0.000482329
0.000474281
0.000466167
0.000457989
0.000449755
0.000441468
0.000433134
0.000424758
0.000416348
0.000407908
0.000399445
0.000390965
0.000382474
0.00037398
0.000365488
0.000357006
0.00034854
0.000340098
0.000331685
0.00032331
0.000314978
0.000306696
0.000298472
0.000290312
0.000562556
0.000555244
0.000547821
0.000540291
0.000532656
0.00052492
0.000517086
0.000509156
0.000501135
0.000493028
0.000484837
0.000476569
0.000468227
0.000459816
0.000451343
0.000442812
0.00043423
0.000425602
0.000416935
0.000408235
0.000399509
0.000390763
0.000382005
0.000373241
0.000364478
0.000355725
0.000346988
0.000338274
0.000329592
0.000320948
0.00031235
0.000303805
0.000295321
0.000286905
0.000567088
0.00055962
0.000552035
0.000544334
0.000536521
0.000528599
0.000520571
0.00051244
0.000504211
0.000495888
0.000487475
0.000478978
0.0004704
0.000461748
0.000453027
0.000444244
0.000435403
0.000426512
0.000417578
0.000408606
0.000399605
0.000390582
0.000381543
0.000372497
0.000363452
0.000354414
0.000345393
0.000336396
0.00032743
0.000318505
0.000309628
0.000300808
0.000292051
0.000283366
0.000571802
0.000564177
0.000556426
0.000548551
0.000540556
0.000532443
0.000524216
0.000515879
0.000507436
0.000498891