/*--------------------------------*- C++ -*----------------------------------*\
| =========                 |                                                 |
| \\      /  F ield         | OpenFOAM: The Open Source CFD Toolbox           |
|  \\    /   O peration     | Version:  2412                                  |
|   \\  /    A nd           | Website:  www.openfoam.com                      |
|    \\/     M anipulation  |                                                 |
\*---------------------------------------------------------------------------*/
FoamFile
{
    version     2.0;
    format      ascii;
    arch        "LSB;label=32;scalar=64";
    class       surfaceScalarField;
    location    "6";
    object      phi;
}
// * * * * * * * * * * * * * * * * * * * * * * * * * * * * * * * * * * * * * //

dimensions      [0 3 -1 0 0 0 0];

oriented        oriented;

internalField   nonuniform List<scalar> 
10424
(
0.00527416
-6.80938e-05
0.00527524
-6.55439e-05
0.00527629
-6.30366e-05
0.00527731
-6.05729e-05
0.00527831
-5.81541e-05
0.00527927
-5.57811e-05
0.0052802
-5.34548e-05
0.00528111
-5.1176e-05
0.00528198
-4.89456e-05
0.00528282
-4.67643e-05
0.00528363
-4.46328e-05
0.0052844
-4.25518e-05
0.00528515
-4.05219e-05
0.00528586
-3.85438e-05
0.00528655
-3.66178e-05
0.0052872
-3.47446e-05
0.00528782
-3.29245e-05
0.00528841
-3.1158e-05
0.00528897
-2.94453e-05
0.0052895
-2.77867e-05
0.00529
-2.61825e-05
0.00529047
-2.46328e-05
0.00529092
-2.31377e-05
0.00529134
-2.16973e-05
0.00529173
-2.03117e-05
0.0052921
-1.89809e-05
0.00529244
-1.77047e-05
0.00529276
-1.64832e-05
0.00529306
-1.5316e-05
0.00529334
-1.42033e-05
-1.31445e-05
0.0052749
-6.91476e-05
0.00527593
-6.65747e-05
0.00527694
-6.40429e-05
0.00527792
-6.15538e-05
0.00527887
-5.91085e-05
0.0052798
-5.67081e-05
0.0052807
-5.43537e-05
0.00528157
-5.20462e-05
0.00528241
-4.97865e-05
0.00528322
-4.75755e-05
0.005284
-4.54141e-05
0.00528476
-4.33029e-05
0.00528548
-4.12428e-05
0.00528617
-3.92345e-05
0.00528683
-3.72785e-05
0.00528746
-3.53754e-05
0.00528806
-3.35257e-05
0.00528863
-3.173e-05
0.00528917
-2.99884e-05
0.00528969
-2.83015e-05
0.00529018
-2.66694e-05
0.00529064
-2.50924e-05
0.00529107
-2.35708e-05
0.00529148
-2.21045e-05
0.00529186
-2.06937e-05
0.00529222
-1.93384e-05
0.00529255
-1.80386e-05
0.00529286
-1.67942e-05
0.00529315
-1.56051e-05
0.00529342
-1.44713e-05
0.00529367
-1.33924e-05
0.00529389
-1.23684e-05
0.0052941
-1.13989e-05
0.0052943
-1.04838e-05
0.00529447
-9.62267e-06
0.00529464
-8.81576e-06
0.00529478
-8.06258e-06
0.00529492
-7.3635e-06
0.00529504
-6.71838e-06
0.00529515
-6.12778e-06
0.00529524
-5.59197e-06
0.00529533
-5.11173e-06
0.00529542
-4.6881e-06
0.00529549
-4.32258e-06
0.00529556
-4.0168e-06
0.00529562
-3.77348e-06
0.00529569
-3.59564e-06
0.00529575
-3.48732e-06
0.0052958
-3.45396e-06
0.00529587
-3.50146e-06
0.00529593
-3.63911e-06
0.005296
-3.87534e-06
0.00529608
-4.22365e-06
0.00529616
-4.70031e-06
0.00529626
-5.31858e-06
0.00529638
-6.11679e-06
0.00529652
-7.08248e-06
0.00529669
-8.34969e-06
0.00529689
-9.71833e-06
0.00529714
-1.17806e-05
0.00529742
-1.3427e-05
0.00529781
-1.70708e-05
0.00529819
-1.83607e-05
0.00529883
-2.50935e-05
0.00529935
-2.49663e-05
0.00530039
-3.58754e-05
0.00530121
-3.52785e-05
0.00530274
-4.56526e-05
0.00530443
-5.33018e-05
0.00530628
-4.62801e-05
-5.57919e-05
0.00527565
-7.01529e-05
0.00527663
-6.75594e-05
0.0052776
-6.50057e-05
0.00527854
-6.24934e-05
0.00527945
-6.00238e-05
0.00528034
-5.75982e-05
0.00528121
-5.52177e-05
0.00528204
-5.28833e-05
0.00528285
-5.05962e-05
0.00528363
-4.83572e-05
0.00528439
-4.61675e-05
0.00528511
-4.40278e-05
0.00528581
-4.1939e-05
0.00528648
-3.99019e-05
0.00528711
-3.79172e-05
0.00528772
-3.59856e-05
0.00528831
-3.41076e-05
0.00528886
-3.22837e-05
0.00528939
-3.05144e-05
0.00528988
-2.88002e-05
0.00529036
-2.71413e-05
0.0052908
-2.5538e-05
0.00529122
-2.39907e-05
0.00529162
-2.24993e-05
0.00529199
-2.10641e-05
0.00529233
-1.96852e-05
0.00529266
-1.83624e-05
0.00529296
-1.70959e-05
0.00529324
-1.58856e-05
0.0052935
-1.47313e-05
0.00529374
-1.36327e-05
0.00529396
-1.259e-05
0.00529417
-1.16026e-05
0.00529435
-1.06707e-05
0.00529452
-9.79358e-06
0.00529468
-8.97167e-06
0.00529482
-8.20444e-06
0.00529495
-7.49227e-06
0.00529507
-6.83506e-06
0.00529517
-6.23338e-06
0.00529527
-5.68752e-06
0.00529535
-5.19832e-06
0.00529543
-4.76677e-06
0.0052955
-4.39448e-06
0.00529557
-4.08308e-06
0.00529563
-3.83536e-06
0.00529569
-3.65441e-06
0.00529575
-3.54439e-06
0.00529581
-3.51087e-06
0.00529586
-3.5598e-06
0.00529593
-3.70067e-06
0.00529599
-3.94223e-06
0.00529607
-4.29813e-06
0.00529615
-4.78515e-06
0.00529625
-5.41671e-06
0.00529637
-6.2324e-06
0.0052965
-7.21859e-06
0.00529667
-8.515e-06
0.00529686
-9.91113e-06
0.00529711
-1.20274e-05
0.00529738
-1.36976e-05
0.00529777
-1.74593e-05
0.00529813
-1.8729e-05
0.00529877
-2.57339e-05
0.00529928
-2.54687e-05
0.00530033
-3.69251e-05
0.00530112
-3.60762e-05
0.0053027
-4.72237e-05
0.00530439
-5.49981e-05
0.00530632
-4.82127e-05
-5.89821e-05
0.0052764
-7.11097e-05
0.00527734
-6.84981e-05
0.00527826
-6.59248e-05
0.00527916
-6.33915e-05
0.00528003
-6.08998e-05
0.00528089
-5.8451e-05
0.00528172
-5.60464e-05
0.00528252
-5.36871e-05
0.0052833
-5.13743e-05
0.00528405
-4.91092e-05
0.00528478
-4.68928e-05
0.00528547
-4.47261e-05
0.00528614
-4.26102e-05
0.00528679
-4.05458e-05
0.00528741
-3.85338e-05
0.00528799
-3.65749e-05
0.00528856
-3.46697e-05
0.00528909
-3.2819e-05
0.0052896
-3.10231e-05
0.00529008
-2.92826e-05
0.00529054
-2.75979e-05
0.00529097
-2.59693e-05
0.00529138
-2.43972e-05
0.00529176
-2.28816e-05
0.00529212
-2.14228e-05
0.00529245
-2.0021e-05
0.00529277
-1.8676e-05
0.00529306
-1.73881e-05
0.00529333
-1.61571e-05
0.00529358
-1.4983e-05
0.00529382
-1.38653e-05
0.00529403
-1.28044e-05
0.00529423
-1.17998e-05
0.00529441
-1.08514e-05
0.00529457
-9.9588e-06
0.00529472
-9.1223e-06
0.00529486
-8.34139e-06
0.00529499
-7.61648e-06
0.0052951
-6.94752e-06
0.0052952
-6.33505e-06
0.00529529
-5.77943e-06
0.00529537
-5.28151e-06
0.00529545
-4.84224e-06
0.00529552
-4.46339e-06
0.00529558
-4.14654e-06
0.00529564
-3.89455e-06
0.0052957
-3.7106e-06
0.00529575
-3.59894e-06
0.00529581
-3.5653e-06
0.00529586
-3.61567e-06
0.00529592
-3.75974e-06
0.00529599
-4.00655e-06
0.00529606
-4.36993e-06
0.00529614
-4.86715e-06
0.00529623
-5.51178e-06
0.00529635
-6.34468e-06
0.00529648
-7.35097e-06
0.00529664
-8.67632e-06
0.00529683
-1.00991e-05
0.00529707
-1.22697e-05
0.00529733
-1.39615e-05
0.00529772
-1.78436e-05
0.00529808
-1.90868e-05
0.00529872
-2.63737e-05
0.0052992
-2.59543e-05
0.00530026
-3.79854e-05
0.00530104
-3.68499e-05
0.00530265
-4.88366e-05
0.00530434
-5.6689e-05
0.00530636
-5.02355e-05
-6.24117e-05
0.00527716
-7.20178e-05
0.00527806
-6.93905e-05
0.00527893
-6.68e-05
0.00527979
-6.4248e-05
0.00528062
-6.17363e-05
0.00528144
-5.92665e-05
0.00528223
-5.68397e-05
0.005283
-5.44573e-05
0.00528375
-5.21207e-05
0.00528447
-4.98311e-05
0.00528517
-4.75897e-05
0.00528584
-4.53977e-05
0.00528649
-4.32561e-05
0.00528711
-4.11658e-05
0.0052877
-3.91279e-05
0.00528827
-3.7143e-05
0.00528881
-3.5212e-05
0.00528933
-3.33356e-05
0.00528982
-3.15142e-05
0.00529028
-2.97486e-05
0.00529073
-2.80391e-05
0.00529114
-2.63862e-05
0.00529154
-2.47901e-05
0.00529191
-2.32512e-05
0.00529225
-2.17697e-05
0.00529258
-2.03457e-05
0.00529288
-1.89793e-05
0.00529316
-1.76707e-05
0.00529343
-1.64196e-05
0.00529367
-1.52262e-05
0.00529389
-1.40902e-05
0.0052941
-1.30117e-05
0.00529429
-1.19902e-05
0.00529447
-1.10259e-05
0.00529462
-1.01182e-05
0.00529477
-9.26754e-06
0.0052949
-8.47335e-06
0.00529502
-7.73607e-06
0.00529513
-7.05568e-06
0.00529523
-6.43273e-06
0.00529532
-5.86761e-06
0.0052954
-5.36122e-06
0.00529547
-4.91447e-06
0.00529553
-4.52925e-06
0.00529559
-4.20711e-06
0.00529565
-3.95099e-06
0.0052957
-3.76415e-06
0.00529576
-3.65093e-06
0.00529581
-3.61722e-06
0.00529586
-3.66903e-06
0.00529592
-3.81626e-06
0.00529598
-4.06826e-06
0.00529605
-4.43899e-06
0.00529613
-4.94624e-06
0.00529622
-5.6037e-06
0.00529633
-6.45357e-06
0.00529646
-7.47955e-06
0.00529661
-8.83356e-06
0.0052968
-1.02822e-05
0.00529704
-1.25073e-05
0.00529729
-1.42183e-05
0.00529767
-1.82236e-05
0.00529802
-1.94336e-05
0.00529866
-2.70126e-05
0.00529913
-2.6422e-05
0.0053002
-3.9056e-05
0.00530094
-3.75974e-05
0.0053026
-5.04933e-05
0.00530428
-5.83672e-05
0.0053064
-5.23534e-05
-6.60979e-05
0.00527793
-7.28773e-05
0.00527878
-7.02368e-05
0.00527961
-6.76313e-05
0.00528042
-6.50629e-05
0.00528122
-6.25333e-05
0.005282
-6.00443e-05
0.00528276
-5.75973e-05
0.00528349
-5.51938e-05
0.00528421
-5.28352e-05
0.0052849
-5.05229e-05
0.00528557
-4.82581e-05
0.00528621
-4.60423e-05
0.00528683
-4.38765e-05
0.00528743
-4.17619e-05
0.005288
-3.96994e-05
0.00528855
-3.76899e-05
0.00528907
-3.57343e-05
0.00528957
-3.38333e-05
0.00529004
-3.19876e-05
0.00529049
-3.01979e-05
0.00529092
-2.84646e-05
0.00529132
-2.67883e-05
0.0052917
-2.51693e-05
0.00529205
-2.3608e-05
0.00529239
-2.21045e-05
0.0052927
-2.06592e-05
0.00529299
-1.9272e-05
0.00529327
-1.79434e-05
0.00529352
-1.6673e-05
0.00529376
-1.5461e-05
0.00529397
-1.43071e-05
0.00529417
-1.32115e-05
0.00529436
-1.21737e-05
0.00529452
-1.1194e-05
0.00529468
-1.02718e-05
0.00529482
-9.40732e-06
0.00529494
-8.60025e-06
0.00529506
-7.85096e-06
0.00529516
-7.15948e-06
0.00529526
-6.52635e-06
0.00529534
-5.95201e-06
0.00529542
-5.4374e-06
0.00529549
-4.9834e-06
0.00529555
-4.59201e-06
0.00529561
-4.26475e-06
0.00529566
-4.00465e-06
0.00529571
-3.81502e-06
0.00529576
-3.70031e-06
0.00529581
-3.66657e-06
0.00529586
-3.71984e-06
0.00529591
-3.87019e-06
0.00529597
-4.12732e-06
0.00529604
-4.50526e-06
0.00529612
-5.02237e-06
0.0052962
-5.69242e-06
0.00529631
-6.559e-06
0.00529643
-7.60424e-06
0.00529659
-8.98661e-06
0.00529677
-1.04602e-05
0.005297
-1.274e-05
0.00529725
-1.4468e-05
0.00529762
-1.8599e-05
0.00529796
-1.9769e-05
0.0052986
-2.76505e-05
0.00529905
-2.68713e-05
0.00530013
-4.01369e-05
0.00530085
-3.83164e-05
0.00530255
-5.21959e-05
0.00530421
-6.00239e-05
0.00530642
-5.45716e-05
-7.006e-05
0.00527871
-7.36883e-05
0.00527951
-7.10369e-05
0.00528029
-6.84187e-05
0.00528107
-6.5836e-05
0.00528182
-6.32906e-05
0.00528256
-6.07845e-05
0.00528329
-5.83193e-05
0.00528399
-5.58964e-05
0.00528467
-5.35175e-05
0.00528533
-5.11842e-05
0.00528597
-4.88978e-05
0.00528659
-4.66597e-05
0.00528718
-4.44713e-05
0.00528776
-4.23337e-05
0.00528831
-4.0248e-05
0.00528883
-3.82152e-05
0.00528933
-3.62362e-05
0.00528981
-3.43119e-05
0.00529027
-3.2443e-05
0.0052907
-3.06303e-05
0.00529111
-2.88743e-05
0.0052915
-2.71756e-05
0.00529186
-2.55346e-05
0.0052922
-2.39516e-05
0.00529253
-2.24271e-05
0.00529283
-2.09612e-05
0.00529311
-1.95541e-05
0.00529337
-1.82062e-05
0.00529362
-1.69171e-05
0.00529384
-1.56872e-05
0.00529405
-1.4516e-05
0.00529425
-1.34039e-05
0.00529442
-1.23504e-05
0.00529458
-1.13557e-05
0.00529473
-1.04193e-05
0.00529487
-9.54154e-06
0.00529499
-8.72198e-06
0.0052951
-7.96106e-06
0.0052952
-7.25884e-06
0.00529529
-6.61584e-06
0.00529537
-6.03257e-06
0.00529544
-5.50999e-06
0.00529551
-5.04897e-06
0.00529556
-4.65161e-06
0.00529562
-4.31941e-06
0.00529567
-4.05547e-06
0.00529572
-3.86316e-06
0.00529577
-3.74704e-06
0.00529581
-3.7133e-06
0.00529586
-3.76804e-06
0.00529591
-3.92149e-06
0.00529597
-4.18365e-06
0.00529603
-4.56869e-06
0.0052961
-5.09547e-06
0.00529619
-5.77787e-06
0.00529629
-6.66088e-06
0.00529641
-7.72496e-06
0.00529656
-9.13539e-06
0.00529673
-1.0633e-05
0.00529696
-1.29677e-05
0.0052972
-1.47103e-05
0.00529757
-1.89697e-05
0.0052979
-2.00927e-05
0.00529853
-2.82869e-05
0.00529896
-2.73012e-05
0.00530006
-4.12277e-05
0.00530074
-3.90046e-05
0.00530249
-5.39464e-05
0.00530412
-6.16487e-05
0.00530644
-5.68958e-05
-7.43192e-05
0.00527949
-7.4451e-05
0.00528024
-7.1791e-05
0.00528098
-6.91623e-05
0.00528172
-6.65673e-05
0.00528243
-6.40083e-05
0.00528314
-6.1487e-05
0.00528382
-5.90054e-05
0.00528449
-5.6565e-05
0.00528514
-5.41677e-05
0.00528577
-5.1815e-05
0.00528638
-4.95085e-05
0.00528697
-4.72498e-05
0.00528754
-4.50402e-05
0.00528809
-4.28811e-05
0.00528861
-4.07735e-05
0.00528912
-3.87187e-05
0.0052896
-3.67177e-05
0.00529006
-3.47712e-05
0.0052905
-3.28803e-05
0.00529091
-3.10457e-05
0.0052913
-2.9268e-05
0.00529168
-2.75479e-05
0.00529203
-2.58857e-05
0.00529236
-2.42821e-05
0.00529267
-2.27373e-05
0.00529296
-2.12517e-05
0.00529323
-1.98254e-05
0.00529348
-1.84588e-05
0.00529372
-1.71518e-05
0.00529394
-1.59045e-05
0.00529414
-1.47167e-05
0.00529432
-1.35887e-05
0.00529449
-1.252e-05
0.00529465
-1.15108e-05
0.00529479
-1.05608e-05
0.00529492
-9.67013e-06
0.00529503
-8.83849e-06
0.00529514
-8.06629e-06
0.00529523
-7.35368e-06
0.00529532
-6.70113e-06
0.00529539
-6.10921e-06
0.00529546
-5.57892e-06
0.00529553
-5.11113e-06
0.00529558
-4.708e-06
0.00529563
-4.37103e-06
0.00529568
-4.1034e-06
0.00529573
-3.90853e-06
0.00529577
-3.79107e-06
0.00529581
-3.75737e-06
0.00529586
-3.81359e-06
0.00529591
-3.9701e-06
0.00529596
-4.23723e-06
0.00529602
-4.62922e-06
0.00529609
-5.16549e-06
0.00529617
-5.85998e-06
0.00529627
-6.75915e-06
0.00529639
-7.84164e-06
0.00529653
-9.27979e-06
0.0052967
-1.08006e-05
0.00529692
-1.31903e-05
0.00529716
-1.49451e-05
0.00529752
-1.93354e-05
0.00529784
-2.04044e-05
0.00529847
-2.89216e-05
0.00529888
-2.77111e-05
0.00529998
-4.2328e-05
0.00530064
-3.96593e-05
0.00530244
-5.57473e-05
0.00530402
-6.3229e-05
0.00530645
-5.93321e-05
-7.88993e-05
0.00528027
-7.51655e-05
0.00528098
-7.24991e-05
0.00528168
-6.98621e-05
0.00528237
-6.7257e-05
0.00528305
-6.46862e-05
0.00528371
-6.21517e-05
0.00528436
-5.96555e-05
0.005285
-5.71995e-05
0.00528561
-5.47854e-05
0.00528621
-5.24151e-05
0.0052868
-5.00902e-05
0.00528736
-4.78124e-05
0.0052879
-4.55832e-05
0.00528842
-4.34039e-05
0.00528893
-4.12759e-05
0.00528941
-3.92004e-05
0.00528987
-3.71785e-05
0.00529031
-3.52111e-05
0.00529073
-3.32993e-05
0.00529113
-3.14439e-05
0.0052915
-2.96455e-05
0.00529186
-2.79049e-05
0.0052922
-2.62226e-05
0.00529251
-2.45992e-05
0.00529281
-2.3035e-05
0.00529309
-2.15304e-05
0.00529335
-2.00858e-05
0.00529359
-1.87013e-05
0.00529382
-1.7377e-05
0.00529403
-1.6113e-05
0.00529422
-1.49092e-05
0.0052944
-1.37658e-05
0.00529456
-1.26825e-05
0.00529471
-1.16594e-05
0.00529484
-1.06962e-05
0.00529497
-9.793e-06
0.00529508
-8.94968e-06
0.00529518
-8.1666e-06
0.00529527
-7.44393e-06
0.00529535
-6.78216e-06
0.00529542
-6.18188e-06
0.00529549
-5.64415e-06
0.00529555
-5.16982e-06
0.0052956
-4.76112e-06
0.00529565
-4.41956e-06
0.00529569
-4.14839e-06
0.00529573
-3.95107e-06
0.00529578
-3.83236e-06
0.00529582
-3.79873e-06
0.00529586
-3.85644e-06
0.00529591
-4.01599e-06
0.00529596
-4.28799e-06
0.00529601
-4.6868e-06
0.00529608
-5.23239e-06
0.00529616
-5.9387e-06
0.00529625
-6.85373e-06
0.00529637
-7.95417e-06
0.00529651
-9.41972e-06
0.00529667
-1.09628e-05
0.00529689
-1.34076e-05
0.00529711
-1.51722e-05
0.00529747
-1.9696e-05
0.00529777
-2.07036e-05
0.00529841
-2.95544e-05
0.0052988
-2.81002e-05
0.0052999
-4.34374e-05
0.00530052
-4.02781e-05
0.00530238
-5.76012e-05
0.0053039
-6.47504e-05
0.00530645
-6.1887e-05
-8.38267e-05
0.00528106
-7.58321e-05
0.00528172
-7.31614e-05
0.00528238
-7.05182e-05
0.00528303
-6.7905e-05
0.00528366
-6.53244e-05
0.00528429
-6.27787e-05
0.00528491
-6.02698e-05
0.00528551
-5.77998e-05
0.00528609
-5.53707e-05
0.00528666
-5.29844e-05
0.00528721
-5.06427e-05
0.00528775
-4.83474e-05
0.00528826
-4.60999e-05
0.00528876
-4.3902e-05
0.00528924
-4.17549e-05
0.0052897
-3.966e-05
0.00529014
-3.76185e-05
0.00529056
-3.56314e-05
0.00529096
-3.36998e-05
0.00529134
-3.18247e-05
0.0052917
-3.00067e-05
0.00529205
-2.82466e-05
0.00529237
-2.65451e-05
0.00529267
-2.49028e-05
0.00529296
-2.332e-05
0.00529322
-2.17974e-05
0.00529347
-2.0335e-05
0.0052937
-1.89334e-05
0.00529392
-1.75925e-05
0.00529412
-1.63125e-05
0.0052943
-1.50933e-05
0.00529447
-1.39351e-05
0.00529463
-1.28377e-05
0.00529477
-1.18012e-05
0.0052949
-1.08252e-05
0.00529502
-9.91007e-06
0.00529512
-9.05549e-06
0.00529522
-8.2619e-06
0.0052953
-7.52953e-06
0.00529538
-6.85886e-06
0.00529545
-6.25052e-06
0.00529551
-5.70561e-06
0.00529557
-5.22498e-06
0.00529562
-4.81094e-06
0.00529566
-4.46497e-06
0.0052957
-4.1904e-06
0.00529574
-3.99075e-06
0.00529578
-3.87086e-06
0.00529582
-3.83734e-06
0.00529586
-3.89654e-06
0.0052959
-4.05909e-06
0.00529595
-4.33589e-06
0.005296
-4.74137e-06
0.00529607
-5.29609e-06
0.00529614
-6.01397e-06
0.00529623
-6.94455e-06
0.00529634
-8.0625e-06
0.00529648
-9.55508e-06
0.00529664
-1.11194e-05
0.00529685
-1.36196e-05
0.00529707
-1.53913e-05
0.00529742
-2.00512e-05
0.00529771
-2.09901e-05
0.00529834
-3.01848e-05
0.00529871
-2.84677e-05
0.00529982
-4.45554e-05
0.0053004
-4.08583e-05
0.00530231
-5.95112e-05
0.00530376
-6.61957e-05
0.00530644
-6.45676e-05
-8.9131e-05
0.00528185
-7.64511e-05
0.00528247
-7.37783e-05
0.00528308
-7.11308e-05
0.00528368
-6.85116e-05
0.00528428
-6.59231e-05
0.00528487
-6.33679e-05
0.00528545
-6.08482e-05
0.00528602
-5.8366e-05
0.00528657
-5.59236e-05
0.00528711
-5.3523e-05
0.00528763
-5.1166e-05
0.00528814
-4.88546e-05
0.00528863
-4.65905e-05
0.0052891
-4.43752e-05
0.00528956
-4.22104e-05
0.00529
-4.00974e-05
0.00529041
-3.80375e-05
0.00529082
-3.60319e-05
0.0052912
-3.40818e-05
0.00529156
-3.21879e-05
0.0052919
-3.03514e-05
0.00529223
-2.85728e-05
0.00529254
-2.68531e-05
0.00529283
-2.51927e-05
0.0052931
-2.35923e-05
0.00529336
-2.20523e-05
0.00529359
-2.05731e-05
0.00529382
-1.91551e-05
0.00529402
-1.77983e-05
0.00529421
-1.65029e-05
0.00529439
-1.52689e-05
0.00529455
-1.40966e-05
0.0052947
-1.29856e-05
0.00529483
-1.19362e-05
0.00529495
-1.0948e-05
0.00529507
-1.00213e-05
0.00529517
-9.15583e-06
0.00529526
-8.35213e-06
0.00529534
-7.61041e-06
0.00529541
-6.93117e-06
0.00529547
-6.31508e-06
0.00529553
-5.76325e-06
0.00529558
-5.27657e-06
0.00529563
-4.85739e-06
0.00529567
-4.50719e-06
0.00529571
-4.22938e-06
0.00529575
-4.02752e-06
0.00529578
-3.90652e-06
0.00529582
-3.87316e-06
0.00529586
-3.93387e-06
0.0052959
-4.09938e-06
0.00529594
-4.38088e-06
0.00529599
-4.7929e-06
0.00529605
-5.35654e-06
0.00529613
-6.08571e-06
0.00529621
-7.03154e-06
0.00529632
-8.16652e-06
0.00529645
-9.68577e-06
0.0052966
-1.12705e-05
0.0052968
-1.38259e-05
0.00529702
-1.56023e-05
0.00529737
-2.04008e-05
0.00529764
-2.12635e-05
0.00529827
-3.08126e-05
0.00529861
-2.88129e-05
0.00529974
-4.56811e-05
0.00530028
-4.13974e-05
0.00530225
-6.14804e-05
0.0053036
-6.7545e-05
0.00530641
-6.73815e-05
-9.48445e-05
0.00528264
-7.70228e-05
0.00528321
-7.43499e-05
0.00528378
-7.17002e-05
0.00528434
-6.90767e-05
0.0052849
-6.64823e-05
0.00528545
-6.39195e-05
0.005286
-6.13906e-05
0.00528653
-5.88981e-05
0.00528705
-5.6444e-05
0.00528756
-5.40306e-05
0.00528805
-5.166e-05
0.00528853
-4.9334e-05
0.00528899
-4.70546e-05
0.00528944
-4.48235e-05
0.00528987
-4.26423e-05
0.00529029
-4.05125e-05
0.00529069
-3.84355e-05
0.00529107
-3.64126e-05
0.00529143
-3.44449e-05
0.00529178
-3.25336e-05
0.0052921
-3.06795e-05
0.00529242
-2.88835e-05
0.00529271
-2.71464e-05
0.00529298
-2.54689e-05
0.00529324
-2.38517e-05
0.00529349
-2.22952e-05
0.00529371
-2.07999e-05
0.00529392
-1.93662e-05
0.00529412
-1.79942e-05
0.0052943
-1.66841e-05
0.00529447
-1.5436e-05
0.00529462
-1.42501e-05
0.00529476
-1.31261e-05
0.00529489
-1.20643e-05
0.00529501
-1.10644e-05
0.00529511
-1.01265e-05
0.00529521
-9.25066e-06
0.00529529
-8.43722e-06
0.00529537
-7.68652e-06
0.00529544
-6.99904e-06
0.0052955
-6.37549e-06
0.00529555
-5.81703e-06
0.0052956
-5.32455e-06
0.00529564
-4.90044e-06
0.00529568
-4.54619e-06
0.00529572
-4.26529e-06
0.00529575
-4.06133e-06
0.00529578
-3.93932e-06
0.00529582
-3.90614e-06
0.00529585
-3.96836e-06
0.00529589
-4.13679e-06
0.00529593
-4.42291e-06
0.00529598
-4.84132e-06
0.00529604
-5.4137e-06
0.0052961
-6.15388e-06
0.00529619
-7.11462e-06
0.00529629
-8.26616e-06
0.00529641
-9.8117e-06
0.00529656
-1.14158e-05
0.00529676
-1.40266e-05
0.00529696
-1.5805e-05
0.00529731
-2.07446e-05
0.00529757
-2.15234e-05
0.00529819
-3.14372e-05
0.00529851
-2.91352e-05
0.00529964
-4.68139e-05
0.00530014
-4.18927e-05
0.00530217
-6.35121e-05
0.0053034
-6.87764e-05
0.00530636
-7.03364e-05
-0.000101002
0.00528342
-7.75476e-05
0.00528395
-7.48765e-05
0.00528447
-7.22265e-05
0.005285
-6.96008e-05
0.00528552
-6.70023e-05
0.00528603
-6.44336e-05
0.00528654
-6.18974e-05
0.00528704
-5.9396e-05
0.00528752
-5.6932e-05
0.005288
-5.45074e-05
0.00528846
-5.21246e-05
0.00528892
-4.97856e-05
0.00528935
-4.74924e-05
0.00528978
-4.52468e-05
0.00529019
-4.30505e-05
0.00529058
-4.09052e-05
0.00529096
-3.88124e-05
0.00529132
-3.67733e-05
0.00529166
-3.47893e-05
0.00529199
-3.28615e-05
0.0052923
-3.09908e-05
0.00529259
-2.91784e-05
0.00529287
-2.74249e-05
0.00529314
-2.57312e-05
0.00529338
-2.4098e-05
0.00529361
-2.25259e-05
0.00529383
-2.10153e-05
0.00529403
-1.95666e-05
0.00529421
-1.81801e-05
0.00529439
-1.6856e-05
0.00529454
-1.55944e-05
0.00529469
-1.43955e-05
0.00529482
-1.32592e-05
0.00529494
-1.21855e-05
0.00529505
-1.11743e-05
0.00529515
-1.02258e-05
0.00529524
-9.33991e-06
0.00529532
-8.51713e-06
0.00529539
-7.75781e-06
0.00529546
-7.06242e-06
0.00529551
-6.43172e-06
0.00529556
-5.8669e-06
0.00529561
-5.36887e-06
0.00529565
-4.94006e-06
0.00529568
-4.58194e-06
0.00529572
-4.2981e-06
0.00529575
-4.09216e-06
0.00529578
-3.96921e-06
0.00529581
-3.93626e-06
0.00529584
-4e-06
0.00529587
-4.17132e-06
0.00529591
-4.46196e-06
0.00529596
-4.88659e-06
0.00529601
-5.46752e-06
0.00529608
-6.21842e-06
0.00529615
-7.19375e-06
0.00529625
-8.36136e-06
0.00529637
-9.93278e-06
0.00529651
-1.15552e-05
0.00529671
-1.42214e-05
0.0052969
-1.59993e-05
0.00529724
-2.10824e-05
0.00529748
-2.17696e-05
0.0052981
-3.20582e-05
0.0052984
-2.9434e-05
0.00529954
-4.79526e-05
0.00529999
-4.2342e-05
0.00530209
-6.56095e-05
0.00530318
-6.98658e-05
0.00530628
-7.34398e-05
-0.000107638
0.00528419
-7.8026e-05
0.00528468
-7.53586e-05
0.00528516
-7.27102e-05
0.00528564
-7.0084e-05
0.00528612
-6.74831e-05
0.0052866
-6.49103e-05
0.00528707
-6.23684e-05
0.00528753
-5.986e-05
0.00528799
-5.73875e-05
0.00528844
-5.49534e-05
0.00528887
-5.256e-05
0.0052893
-5.02094e-05
0.00528971
-4.79038e-05
0.0052901
-4.56451e-05
0.00529049
-4.34351e-05
0.00529086
-4.12755e-05
0.00529122
-3.9168e-05
0.00529156
-3.7114e-05
0.00529188
-3.51147e-05
0.00529219
-3.31715e-05
0.00529249
-3.12855e-05
0.00529277
-2.94575e-05
0.00529303
-2.76886e-05
0.00529328
-2.59797e-05
0.00529351
-2.43313e-05
0.00529373
-2.27444e-05
0.00529393
-2.12192e-05
0.00529412
-1.97564e-05
0.0052943
-1.83561e-05
0.00529446
-1.70186e-05
0.00529461
-1.57441e-05
0.00529475
-1.45329e-05
0.00529487
-1.33847e-05
0.00529499
-1.22997e-05
0.00529509
-1.12777e-05
0.00529518
-1.0319e-05
0.00529527
-9.42355e-06
0.00529534
-8.59183e-06
0.00529541
-7.82424e-06
0.00529547
-7.12128e-06
0.00529552
-6.48375e-06
0.00529557
-5.91284e-06
0.00529561
-5.40951e-06
0.00529564
-4.97622e-06
0.00529568
-4.61442e-06
0.00529571
-4.32779e-06
0.00529573
-4.11999e-06
0.00529576
-3.99619e-06
0.00529579
-3.9635e-06
0.00529582
-4.02876e-06
0.00529585
-4.20292e-06
0.00529588
-4.49799e-06
0.00529593
-4.9287e-06
0.00529598
-5.51796e-06
0.00529604
-6.2793e-06
0.00529611
-7.26887e-06
0.0052962
-8.45205e-06
0.00529632
-1.00489e-05
0.00529645
-1.16887e-05
0.00529664
-1.44103e-05
0.00529683
-1.6185e-05
0.00529716
-2.14139e-05
0.00529739
-2.20018e-05
0.00529801
-3.26754e-05
0.00529828
-2.97086e-05
0.00529943
-4.90963e-05
0.00529983
-4.27432e-05
0.00530199
-6.77753e-05
0.00530292
-7.07893e-05
0.00530618
-7.6698e-05
-0.000114786
0.00528495
-7.84584e-05
0.00528539
-7.57966e-05
0.00528583
-7.31515e-05
0.00528628
-7.05266e-05
0.00528672
-6.7925e-05
0.00528716
-6.53499e-05
0.00528759
-6.2804e-05
0.00528802
-6.02901e-05
0.00528845
-5.78108e-05
0.00528886
-5.53686e-05
0.00528927
-5.29661e-05
0.00528966
-5.06054e-05
0.00529005
-4.82888e-05
0.00529042
-4.60183e-05
0.00529078
-4.37958e-05
0.00529113
-4.16233e-05
0.00529146
-3.95024e-05
0.00529178
-3.74346e-05
0.00529209
-3.54213e-05
0.00529238
-3.34638e-05
0.00529266
-3.15633e-05
0.00529292
-2.97208e-05
0.00529317
-2.79375e-05
0.00529341
-2.62141e-05
0.00529363
-2.45516e-05
0.00529383
-2.29506e-05
0.00529403
-2.14117e-05
0.00529421
-1.99354e-05
0.00529437
-1.8522e-05
0.00529452
-1.71719e-05
0.00529467
-1.58852e-05
0.0052948
-1.46621e-05
0.00529491
-1.35026e-05
0.00529502
-1.24069e-05
0.00529512
-1.13746e-05
0.0052952
-1.04062e-05
0.00529528
-9.50158e-06
0.00529535
-8.66131e-06
0.00529541
-7.88582e-06
0.00529547
-7.17563e-06
0.00529552
-6.53157e-06
0.00529556
-5.95486e-06
0.00529559
-5.44649e-06
0.00529563
-5.00892e-06
0.00529566
-4.64364e-06
0.00529568
-4.35437e-06
0.00529571
-4.14482e-06
0.00529573
-4.02024e-06
0.00529576
-3.98787e-06
0.00529578
-4.05465e-06
0.00529581
-4.23161e-06
0.00529584
-4.531e-06
0.00529588
-4.96764e-06
0.00529593
-5.56501e-06
0.00529599
-6.3365e-06
0.00529606
-7.33996e-06
0.00529614
-8.53821e-06
0.00529626
-1.01601e-05
0.00529638
-1.18163e-05
0.00529657
-1.45931e-05
0.00529674
-1.6362e-05
0.00529707
-2.1739e-05
0.00529729
-2.22196e-05
0.0052979
-3.32882e-05
0.00529815
-2.99586e-05
0.0052993
-5.02437e-05
0.00529965
-4.30949e-05
0.00530188
-7.00108e-05
0.00530262
-7.15246e-05
0.00530603
-8.01143e-05
-0.000122471
0.0052857
-7.88454e-05
0.00528609
-7.61907e-05
0.00528649
-7.35507e-05
0.00528689
-7.09289e-05
0.0052873
-6.83284e-05
0.0052877
-6.57525e-05
0.0052881
-6.32042e-05
0.00528849
-6.06864e-05
0.00528889
-5.82019e-05
0.00528927
-5.57532e-05
0.00528965
-5.3343e-05
0.00529002
-5.09736e-05
0.00529037
-4.86474e-05
0.00529072
-4.63665e-05
0.00529106
-4.41329e-05
0.00529138
-4.19487e-05
0.0052917
-3.98155e-05
0.005292
-3.77351e-05
0.00529229
-3.57089e-05
0.00529256
-3.37382e-05
0.00529282
-3.18243e-05
0.00529307
-2.99684e-05
0.0052933
-2.81715e-05
0.00529352
-2.64346e-05
0.00529373
-2.47587e-05
0.00529392
-2.31445e-05
0.00529411
-2.15926e-05
0.00529427
-2.01036e-05
0.00529443
-1.86779e-05
0.00529457
-1.73158e-05
0.00529471
-1.60175e-05
0.00529483
-1.47832e-05
0.00529494
-1.36131e-05
0.00529504
-1.2507e-05
0.00529513
-1.14651e-05
0.00529521
-1.04873e-05
0.00529528
-9.57403e-06
0.00529535
-8.72561e-06
0.0052954
-7.94259e-06
0.00529545
-7.2255e-06
0.0052955
-6.57522e-06
0.00529553
-5.99299e-06
0.00529557
-5.47982e-06
0.0052956
-5.03821e-06
0.00529562
-4.66963e-06
0.00529565
-4.37788e-06
0.00529567
-4.16669e-06
0.00529569
-4.04142e-06
0.00529571
-4.0094e-06
0.00529573
-4.0777e-06
0.00529576
-4.2574e-06
0.00529579
-4.56103e-06
0.00529583
-5.00343e-06
0.00529587
-5.60869e-06
0.00529592
-6.39003e-06
0.00529599
-7.40703e-06
0.00529607
-8.61984e-06
0.00529618
-1.02663e-05
0.0052963
-1.19378e-05
0.00529648
-1.47698e-05
0.00529664
-1.65303e-05
0.00529696
-2.20575e-05
0.00529717
-2.2423e-05
0.00529777
-3.38963e-05
0.005298
-3.01838e-05
0.00529915
-5.13933e-05
0.00529945
-4.33963e-05
0.00530176
-7.23155e-05
0.00530229
-7.20544e-05
0.00530586
-8.36877e-05
-0.000130705
0.00528642
-7.91872e-05
0.00528677
-7.65416e-05
0.00528713
-7.39084e-05
0.00528749
-7.12912e-05
0.00528786
-6.86934e-05
0.00528822
-6.61184e-05
0.00528859
-6.35694e-05
0.00528895
-6.10493e-05
0.00528931
-5.8561e-05
0.00528966
-5.61073e-05
0.00529001
-5.36909e-05
0.00529035
-5.13143e-05
0.00529068
-4.89798e-05
0.00529101
-4.66898e-05
0.00529132
-4.44464e-05
0.00529162
-4.22517e-05
0.00529192
-4.01076e-05
0.0052922
-3.80157e-05
0.00529247
-3.59776e-05
0.00529272
-3.39948e-05
0.00529297
-3.20686e-05
0.0052932
-3.02001e-05
0.00529342
-2.83906e-05
0.00529362
-2.66412e-05
0.00529382
-2.49528e-05
0.005294
-2.33262e-05
0.00529417
-2.17622e-05
0.00529433
-2.02612e-05
0.00529447
-1.88239e-05
0.00529461
-1.74504e-05
0.00529473
-1.61412e-05
0.00529484
-1.48964e-05
0.00529495
-1.37161e-05
0.00529504
-1.26003e-05
0.00529512
-1.15491e-05
0.0052952
-1.05626e-05
0.00529527
-9.64096e-06
0.00529533
-8.78479e-06
0.00529538
-7.9946e-06
0.00529542
-7.27096e-06
0.00529546
-6.61477e-06
0.0052955
-6.02731e-06
0.00529553
-5.50959e-06
0.00529555
-5.06417e-06
0.00529558
-4.69246e-06
0.0052956
-4.39838e-06
0.00529562
-4.18567e-06
0.00529563
-4.05978e-06
0.00529565
-4.02815e-06
0.00529567
-4.09798e-06
0.0052957
-4.28038e-06
0.00529572
-4.58814e-06
0.00529576
-5.03613e-06
0.0052958
-5.64907e-06
0.00529585
-6.43996e-06
0.00529591
-7.47014e-06
0.00529599
-8.69699e-06
0.00529609
-1.03675e-05
0.0052962
-1.20534e-05
0.00529637
-1.49403e-05
0.00529653
-1.66898e-05
0.00529684
-2.23694e-05
0.00529703
-2.26119e-05
0.00529764
-3.44993e-05
0.00529784
-3.03838e-05
0.00529899
-5.25438e-05
0.00529924
-4.36476e-05
0.00530161
-7.46854e-05
0.00530192
-7.23701e-05
0.00530565
-8.741e-05
-0.000139478
0.00528713
-7.94846e-05
0.00528743
-7.68496e-05
0.00528775
-7.42247e-05
0.00528807
-7.16139e-05
0.0052884
-6.90205e-05
0.00528873
-6.6448e-05
0.00528906
-6.38997e-05
0.00528939
-6.13788e-05
0.00528972
-5.88883e-05
0.00529004
-5.64311e-05
0.00529036
-5.401e-05
0.00529067
-5.16275e-05
0.00529098
-4.92861e-05
0.00529128
-4.69883e-05
0.00529157
-4.47364e-05
0.00529185
-4.25325e-05
0.00529212
-4.03785e-05
0.00529238
-3.82764e-05
0.00529263
-3.62276e-05
0.00529287
-3.42338e-05
0.0052931
-3.22962e-05
0.00529331
-3.04162e-05
0.00529352
-2.85951e-05
0.00529371
-2.6834e-05
0.00529389
-2.5134e-05
0.00529406
-2.34958e-05
0.00529422
-2.19204e-05
0.00529437
-2.04083e-05
0.0052945
-1.896e-05
0.00529463
-1.75759e-05
0.00529474
-1.62563e-05
0.00529485
-1.50016e-05
0.00529494
-1.38117e-05
0.00529503
-1.26868e-05
0.00529511
-1.16268e-05
0.00529518
-1.0632e-05
0.00529524
-9.70251e-06
0.00529529
-8.83897e-06
0.00529534
-8.04199e-06
0.00529538
-7.31214e-06
0.00529542
-6.65036e-06
0.00529545
-6.05794e-06
0.00529547
-5.53593e-06
0.0052955
-5.0869e-06
0.00529552
-4.71227e-06
0.00529553
-4.416e-06
0.00529555
-4.20188e-06
0.00529557
-4.07546e-06
0.00529558
-4.04426e-06
0.0052956
-4.1156e-06
0.00529562
-4.30066e-06
0.00529564
-4.61244e-06
0.00529567
-5.06586e-06
0.00529571
-5.68625e-06
0.00529576
-6.48639e-06
0.00529582
-7.52937e-06
0.00529589
-8.76974e-06
0.00529599
-1.04639e-05
0.0052961
-1.21631e-05
0.00529626
-1.51048e-05
0.00529641
-1.68405e-05
0.00529672
-2.26745e-05
0.00529689
-2.27861e-05
0.00529749
-3.50972e-05
0.00529766
-3.05586e-05
0.00529881