/*--------------------------------*- C++ -*----------------------------------*\
| =========                 |                                                 |
| \\      /  F ield         | OpenFOAM: The Open Source CFD Toolbox           |
|  \\    /   O peration     | Version:  2412                                  |
|   \\  /    A nd           | Website:  www.openfoam.com                      |
|    \\/     M anipulation  |                                                 |
\*---------------------------------------------------------------------------*/
FoamFile
{
    version     2.0;
    format      ascii;
    arch        "LSB;label=32;scalar=64";
    class       volScalarField;
    location    "21.5";
    object      p;
}
// * * * * * * * * * * * * * * * * * * * * * * * * * * * * * * * * * * * * * //

dimensions      [0 2 -2 0 0 0 0];

internalField   nonuniform List<scalar> 
63420
(
0.000933212
0.000933472
0.000934299
0.000935574
0.000937283
0.000939412
0.000941943
0.000944864
0.000948163
0.000951829
0.000955855
0.000960232
0.000964953
0.000970012
0.000975403
0.00098112
0.000987161
0.000993522
0.0010002
0.0010072
0.00101452
0.00102216
0.00103012
0.0010384
0.00104702
0.00105596
0.00106523
0.00107484
0.00108479
0.00109508
0.00110571
0.00111669
0.00112801
0.0011397
0.00115173
0.00116413
0.00117689
0.00119002
0.00120352
0.0012174
0.00123166
0.0012463
0.00126132
0.00127674
0.00129256
0.00130877
0.00132539
0.00134242
0.00135986
0.00137772
0.001396
0.00141471
0.00143385
0.00145343
0.00147345
0.000933153
0.000933412
0.000934238
0.000935513
0.00093722
0.000939348
0.000941877
0.000944796
0.000948092
0.000951756
0.000955778
0.000960152
0.000964869
0.000969924
0.000975311
0.000981024
0.000987059
0.000993414
0.00100009
0.00100708
0.00101439
0.00102202
0.00102998
0.00103825
0.00104686
0.00105579
0.00106506
0.00107465
0.00108459
0.00109487
0.00110549
0.00111645
0.00112776
0.00113943
0.00115145
0.00116383
0.00117658
0.00118969
0.00120317
0.00121702
0.00123126
0.00124587
0.00126087
0.00127626
0.00129205
0.00130823
0.00132482
0.00134181
0.00135922
0.00137704
0.00139528
0.00141394
0.00143304
0.00145256
0.00147253
0.000933033
0.000933292
0.000934117
0.00093539
0.000937095
0.000939219
0.000941745
0.000944659
0.000947951
0.000951609
0.000955625
0.000959992
0.000964702
0.000969749
0.000975127
0.00098083
0.000986855
0.0009932
0.000999862
0.00100684
0.00101414
0.00102176
0.00102969
0.00103796
0.00104654
0.00105546
0.0010647
0.00107428
0.00108419
0.00109445
0.00110504
0.00111598
0.00112726
0.0011389
0.00115089
0.00116324
0.00117594
0.00118901
0.00120245
0.00121627
0.00123045
0.00124502
0.00125997
0.00127531
0.00129103
0.00130716
0.00132368
0.0013406
0.00135793
0.00137568
0.00139383
0.00141241
0.00143141
0.00145084
0.00147071
0.000932854
0.000933113
0.000933935
0.000935206
0.000936907
0.000939027
0.000941547
0.000944455
0.000947739
0.000951389
0.000955396
0.000959753
0.000964452
0.000969486
0.000974851
0.00098054
0.00098655
0.000992878
0.000999523
0.00100648
0.00101376
0.00102136
0.00102927
0.00103751
0.00104607
0.00105496
0.00106417
0.00107372
0.0010836
0.00109382
0.00110437
0.00111527
0.00112651
0.0011381
0.00115004
0.00116234
0.00117499
0.00118801
0.00120139
0.00121513
0.00122925
0.00124375
0.00125862
0.00127387
0.00128952
0.00130555
0.00132197
0.00133879
0.00135602
0.00137364
0.00139168
0.00141013
0.00142899
0.00144828
0.00146798
0.000932615
0.000932873
0.000933693
0.00093496
0.000936657
0.00093877
0.000941283
0.000944183
0.000947457
0.000951096
0.000955091
0.000959434
0.000964118
0.000969137
0.000974484
0.000980154
0.000986144
0.00099245
0.000999072
0.00100601
0.00101326
0.00102083
0.00102871
0.00103692
0.00104544
0.00105429
0.00106347
0.00107297
0.00108281
0.00109298
0.00110348
0.00111433
0.00112551
0.00113704
0.00114892
0.00116115
0.00117373
0.00118667
0.00119997
0.00121363
0.00122766
0.00124206
0.00125683
0.00127197
0.0012875
0.00130341
0.00131971
0.00133639
0.00135347
0.00137095
0.00138882
0.0014071
0.00142578
0.00144487
0.00146437
0.000932316
0.000932574
0.000933391
0.000934653
0.000936344
0.00093845
0.000940954
0.000943843
0.000947105
0.00095073
0.00095471
0.000959036
0.000963702
0.0009687
0.000974026
0.000979673
0.000985637
0.000991916
0.000998508
0.00100541
0.00101263
0.00102016
0.00102801
0.00103617
0.00104466
0.00105346
0.00106259
0.00107204
0.00108182
0.00109193
0.00110238
0.00111315
0.00112427
0.00113572
0.00114752
0.00115967
0.00117216
0.001185
0.0011982
0.00121176
0.00122567
0.00123995
0.00125459
0.00126961
0.00128499
0.00130075
0.00131689
0.00133341
0.00135031
0.0013676
0.00138527
0.00140334
0.00142179
0.00144064
0.00145988
0.000931959
0.000932216
0.000933029
0.000934286
0.00093597
0.000938066
0.000940559
0.000943435
0.000946683
0.000950292
0.000954253
0.000958559
0.000963203
0.000968178
0.000973477
0.000979096
0.00098503
0.000991277
0.000997834
0.0010047
0.00101188
0.00101937
0.00102717
0.00103529
0.00104372
0.00105247
0.00106154
0.00107093
0.00108064
0.00109068
0.00110105
0.00111175
0.00112278
0.00113415
0.00114585
0.00115789
0.00117028
0.00118301
0.00119609
0.00120952
0.0012233
0.00123744
0.00125193
0.00126678
0.001282
0.00129758
0.00131353
0.00132985
0.00134654
0.0013636
0.00138104
0.00139885
0.00141705
0.00143561
0.00145455
0.00149397
0.00151521
0.00153736
0.00156048
0.00158461
0.00160982
0.00163617
0.00166374
0.0016926
0.00172283
0.00175452
0.00178778
0.00182269
0.00185938
0.00189797
0.00193859
0.0019814
0.00202655
0.00207421
0.00212458
0.00217786
0.00223429
0.00229412
0.00235762
0.00242511
0.00249693
0.00257343
0.00265504
0.00274222
0.00283545
0.00293529
0.00304235
0.00315728
0.00328081
0.00341372
0.0035568
0.00371089
0.00387677
0.00405515
0.00424644
0.00445064
0.00466702
0.00489383
0.00512803
0.00536566
0.00560269
0.00583538
0.00607008
0.00637239
0.00683245
0.00149303
0.00151428
0.00153642
0.00155953
0.00158366
0.00160887
0.00163522
0.00166278
0.00169164
0.00172187
0.00175355
0.0017868
0.0018217
0.00185838
0.00189695
0.00193756
0.00198034
0.00202546
0.00207308
0.0021234
0.00217663
0.00223299
0.00229273
0.00235612
0.00242348
0.00249513
0.00257143
0.00265279
0.00273964
0.00283247
0.00293182
0.00303825
0.0031524
0.00327492
0.00340654
0.00354798
0.00369994
0.00386307
0.00403786
0.00422447
0.00442255
0.00463093
0.00484726
0.00506781
0.00528776
0.00550216
0.00570675
0.00590702
0.00616434
0.00656194
0.00149115
0.00151239
0.00153454
0.00155764
0.00158177
0.00160697
0.00163331
0.00166087
0.00168971
0.00171993
0.00175161
0.00178483
0.00181972
0.00185637
0.00189492
0.00193548
0.00197822
0.00202328
0.00207083
0.00212106
0.00217417
0.00223039
0.00228996
0.00235314
0.00242024
0.00249156
0.00256745
0.00264831
0.00273454
0.00282659
0.00292496
0.00303016
0.00314275
0.0032633
0.00339239
0.00353057
0.00367834
0.00383602
0.00400369
0.00418099
0.00436684
0.00455915
0.00475443
0.00494748
0.00513172
0.00530036
0.00544829
0.00557951
0.00574283
0.00602803
0.00148834
0.00150958
0.00153171
0.00155481
0.00157892
0.00160411
0.00163044
0.00165799
0.00168682
0.00171701
0.00174867
0.00178187
0.00181672
0.00185333
0.00189182
0.00193233
0.00197498
0.00201995
0.00206738
0.00211747
0.0021704
0.0022264
0.0022857
0.00234856
0.00241524
0.00248606
0.00256134
0.00264142
0.00272669
0.00281756
0.00291443
0.00301776
0.00312798
0.00324554
0.00337081
0.0035041
0.00364556
0.00379507
0.00395211
0.00411551
0.00428314
0.00445153
0.0046154
0.00476743
0.00489843
0.00499869
0.00506177
0.00509284
0.00512536
0.00521249
0.00148461
0.00150584
0.00152797
0.00155106
0.00157516
0.00160034
0.00162666
0.00165419
0.00168301
0.00171319
0.00174482
0.001778
0.00181281
0.00184938
0.00188782
0.00192825
0.00197082
0.00201567
0.00206296
0.00211287
0.00216558
0.0022213
0.00228026
0.00234269
0.00240884
0.002479
0.00255346
0.00263253
0.00271653
0.0028058
0.00290068
0.0030015
0.00310855
0.00322207
0.00334218
0.00346885
0.00360176
0.0037402
0.00388281
0.00402737
0.00417034
0.00430643
0.0044281
0.00452525
0.0045854
0.00459506
0.00454504
0.00444346
0.00431266
0.00409381
0.00147998
0.00150121
0.00152335
0.00154645
0.00157057
0.00159577
0.00162211
0.00164967
0.00167852
0.00170873
0.0017404
0.00177361
0.00180846
0.00184506
0.00188352
0.00192398
0.00196656
0.00201142
0.0020587
0.00210857
0.00216121
0.00221683
0.00227564
0.00233784
0.00240369
0.00247344
0.00254735
0.00262568
0.00270871
0.00279671
0.00288992
0.00298854
0.00309269
0.00320237
0.00331737
0.00343718
0.00356086
0.00368675
0.00381226
0.00393342
0.00404439
0.00413687
0.00419957
0.00421792
0.00417443
0.0040505
0.00383246
0.00352926
0.00315505
0.00252324
0.00147444
0.0014956
0.00151768
0.00154073
0.0015648
0.00158995
0.00161625
0.00164376
0.00167256
0.00170273
0.00173434
0.0017675
0.0018023
0.00183885
0.00187726
0.00191764
0.00196015
0.00200492
0.00205209
0.00210183
0.00215432
0.00220975
0.00226831
0.00233021
0.00239569
0.00246495
0.00253825
0.00261581
0.00269784
0.00278456
0.00287612
0.00297258
0.0030739
0.00317983
0.00328983
0.00340289
0.0035173
0.00363036
0.00373789
0.00383365
0.00390863
0.00395027
0.00394186
0.00386253
0.00368811
0.00339262
0.00295888
0.00240012
0.00168016
0.000509359
-0.00349814
-0.00356834
-0.0035889
-0.0035739
-0.00353543
-0.00347636
-0.00339826
-0.00330352
-0.0031945
-0.00307202
-0.0029381
-0.00279449
-0.00264298
-0.00248531
-0.00232341
-0.00215895
-0.00199364
-0.00182909
-0.00166679
-0.00150812
-0.00135427
-0.00120625
-0.00106497
-0.000931227
-0.000805634
-0.00068853
-0.000580103
-0.000480464
-0.000389605
-0.000307388
-0.000233576
-0.00016785
-0.000109822
-5.90512e-05
-1.50585e-05
2.26603e-05
5.46224e-05
8.13473e-05
0.000103348
0.000121123
0.000135149
0.00014588
0.000153736
0.000159111
0.000162362
0.000163814
0.000163761
0.000162461
0.000160144
0.000157012
-0.00357557
-0.00362352
-0.00363074
-0.00360785
-0.00356418
-0.00350175
-0.00342158
-0.00332591
-0.00321609
-0.00309334
-0.00295945
-0.00281587
-0.00266438
-0.00250677
-0.00234481
-0.00218022
-0.00201467
-0.00184977
-0.00168702
-0.00152779
-0.00137329
-0.00122454
-0.00108246
-0.000947862
-0.000821393
-0.000703394
-0.000594063
-0.000493522
-0.000401773
-0.000318689
-0.000244039
-0.000177509
-0.000118716
-6.72208e-05
-2.25471e-05
1.58088e-05
4.83644e-05
7.56402e-05
9.81503e-05
0.000116395
0.000130853
0.000141978
0.000150197
0.000155903
0.000159456
0.000161183
0.000161381
0.00016031
0.0001582
0.000155259
-0.00372957
-0.00373208
-0.0037129
-0.00367435
-0.00362012
-0.00355084
-0.00346614
-0.00336857
-0.00325756
-0.00313388
-0.00300026
-0.00285668
-0.00270536
-0.00254793
-0.00238599
-0.00222122
-0.00205529
-0.00188979
-0.00172621
-0.00156595
-0.00141025
-0.00126014
-0.00111655
-0.000980329
-0.000852154
-0.000732439
-0.00062137
-0.000519085
-0.000425612
-0.000340843
-0.000264563
-0.000196468
-0.000136182
-8.32743e-05
-3.72699e-05
2.33269e-06
3.60508e-05
6.44059e-05
8.79147e-05
0.00010708
0.000122385
0.000134288
0.000143219
0.000149575
0.000153721
0.00015599
0.00015668
0.000156057
0.000154355
0.00015179
-0.00396599
-0.00388631
-0.00383252
-0.00377031
-0.0037
-0.00361998
-0.00352719
-0.00342811
-0.00331713
-0.00318887
-0.00305674
-0.00291401
-0.00276311
-0.00260599
-0.00244418
-0.00227929
-0.00211292
-0.00194666
-0.00178201
-0.00162038
-0.00146304
-0.00131107
-0.0011654
-0.00102691
-0.000896361
-0.000774201
-0.000660677
-0.000555923
-0.000460001
-0.000372835
-0.000294229
-0.000223896
-0.000161474
-0.000106539
-5.86237e-05
-1.72287e-05
1.81626e-05
4.80732e-05
7.30223e-05
9.35173e-05
0.000110046
0.000123073
0.000133032
0.000140329
0.000145334
0.000148385
0.000149788
0.000149815
0.000148703
0.000146685
-0.00426389
-0.00408717
-0.00398667
-0.00389048
-0.00379853
-0.00370506
-0.00360799
-0.0035002
-0.00338456
-0.00325923
-0.00312539
-0.00298265
-0.00283237
-0.00267584
-0.00251442
-0.00234963
-0.002183
-0.00201609
-0.0018504
-0.00168736
-0.00152825
-0.00137422
-0.00122621
-0.00108512
-0.000951772
-0.000826728
-0.000710257
-0.000602527
-0.000503633
-0.000413536
-0.00033207
-0.00025897
-0.000193891
-0.000136423
-8.61072e-05
-4.2451e-05
-4.93992e-06
2.6949e-05
5.3737e-05
7.59351e-05
9.40364e-05
0.000108511
0.000119799
0.000128313
0.000134432
0.000138499
0.000140828
0.000141696
0.000141353
0.000140044
-0.00457762
-0.00433502
-0.00417652
-0.00403809
-0.00391468
-0.00379956
-0.00369153
-0.00357572
-0.00345555
-0.00332872
-0.00319429
-0.00305236
-0.0029035
-0.00274854
-0.0025886
-0.00242503
-0.00225923
-0.00209268
-0.00192685
-0.00176314
-0.0016029
-0.00144728
-0.00129729
-0.00115384
-0.00101777
-0.000889755
-0.00077018
-0.000659231
-0.000557048
-0.000463644
-0.000378895
-0.000302568
-0.000234347
-0.000173847
-0.000120624
-7.42006e-05
-3.407e-05
2.85184e-07
2.93842e-05
5.37384e-05
7.38432e-05
9.01721e-05
0.000103172
0.00011326
0.000120822
0.000126208
0.00012974
0.000131702
0.000132354
0.000131953
-0.00487872
-0.00464488
-0.00443144
-0.00423881
-0.00407057
-0.00393056
-0.00380004
-0.00367219
-0.00354463
-0.00341368
-0.00327763
-0.00313571
-0.00298775
-0.00283411
-0.00267556
-0.00251314
-0.00234811
-0.00218182
-0.00201567
-0.00185106
-0.00168933
-0.00153173
-0.0013793
-0.00123296
-0.00109363
-0.000962074
-0.000838755
-0.000723965
-0.00061788
-0.000520568
-0.000431953
-0.000351843
-0.000279955
-0.000215929
-0.000159346
-0.000109738
-6.66105e-05
-2.94502e-05
2.26139e-06
2.90377e-05
5.13789e-05
6.97647e-05
8.46499e-05
9.64601e-05
0.00010559
0.000112401
0.000117221
0.000120348
0.000122051
0.000122587
0.00015323
0.000148849
0.000143994
0.00013879
0.000133324
0.000127676
0.000121916
0.000116107
0.0001103
0.00010454
9.88659e-05
9.33084e-05
8.7893e-05
8.26399e-05
7.75646e-05
7.26788e-05
6.79904e-05
6.35044e-05
5.92233e-05
5.51474e-05
5.12751e-05
4.76036e-05
4.41289e-05
4.0846e-05
3.77495e-05
3.48335e-05
3.20918e-05
2.95182e-05
2.71063e-05
2.48499e-05
2.27428e-05
2.07788e-05
1.89515e-05
1.72549e-05
1.56826e-05
1.42281e-05
1.28852e-05
1.16474e-05
1.05084e-05
9.46203e-06
8.50228e-06
7.62323e-06
6.82001e-06
6.08467e-06
5.41625e-06
4.81081e-06
4.25763e-06
3.75679e-06
3.30456e-06
2.89665e-06
2.52962e-06
2.20022e-06
1.90542e-06
1.64237e-06
1.40835e-06
1.20087e-06
1.01758e-06
8.56243e-07
7.14853e-07
5.91496e-07
4.84344e-07
3.91839e-07
3.12416e-07
2.44666e-07
1.87375e-07
1.39253e-07
9.92994e-08
6.65473e-08
4.00398e-08
1.90522e-08
2.80983e-09
-9.35664e-09
-1.79932e-08
-2.36098e-08
-2.67995e-08
-2.78526e-08
-2.7166e-08
-2.5228e-08
-2.20624e-08
-1.82342e-08
-1.35508e-08
-8.73258e-09
-3.16472e-09
1.82723e-09
8.34201e-09
1.21905e-08
2.06349e-08
2.10177e-08
3.43419e-08
2.61072e-08
5.18614e-08
2.40845e-08
7.7352e-08
9.79292e-09
1.16207e-07
-2.26345e-08
1.73721e-07
-7.54859e-08
2.49253e-07
-1.42124e-07
3.29346e-07
-2.01183e-07
3.86622e-07
-2.1947e-07
3.88821e-07
-1.70928e-07
3.25513e-07
-6.58245e-08
2.35788e-07
2.79968e-08
2.14381e-07
-4.23302e-10
3.73834e-07
-2.55233e-07
7.82344e-07
0.000151679
0.000147411
0.000142662
0.000137568
0.000132208
0.000126658
0.000120989
0.000115264
0.000109534
0.000103846
9.82364e-05
9.27379e-05
8.73762e-05
8.2172e-05
7.71411e-05
7.22956e-05
6.76438e-05
6.31911e-05
5.89401e-05
5.48914e-05
5.10439e-05
4.73949e-05
4.39405e-05
4.06761e-05
3.75964e-05
3.46956e-05
3.19678e-05
2.94067e-05
2.70062e-05
2.47602e-05
2.26624e-05
2.07068e-05
1.88872e-05
1.71974e-05
1.56312e-05
1.41822e-05
1.28442e-05
1.16109e-05
1.04758e-05
9.43299e-06
8.4764e-06
7.60018e-06
6.7995e-06
6.06644e-06
5.40007e-06
4.79645e-06
4.24491e-06
3.74554e-06
3.29462e-06
2.88789e-06
2.52191e-06
2.19345e-06
1.89949e-06
1.63718e-06
1.40382e-06
1.19692e-06
1.01415e-06
8.53265e-07
7.12278e-07
5.8928e-07
4.8243e-07
3.90203e-07
3.11016e-07
2.43467e-07
1.86363e-07
1.38393e-07
9.85786e-08
6.59484e-08
3.95381e-08
1.86421e-08
2.47304e-09
-9.6327e-09
-1.82152e-08
-2.37858e-08
-2.69445e-08
-2.79625e-08
-2.72507e-08
-2.52978e-08
-2.21097e-08
-1.82764e-08
-1.35734e-08
-8.74875e-09
-3.17279e-09
1.8303e-09
8.34549e-09
1.21976e-08
2.06448e-08
2.10307e-08
3.43482e-08
2.61269e-08
5.18654e-08
2.41049e-08
7.73495e-08
9.81831e-09
1.16197e-07
-2.25968e-08
1.73702e-07
-7.54452e-08
2.49223e-07
-1.42079e-07
3.29316e-07
-2.01156e-07
3.86614e-07
-2.19477e-07
3.88831e-07
-1.70947e-07
3.25514e-07
-6.58397e-08
2.35783e-07
2.79921e-08
2.14364e-07
-4.24186e-10
3.73896e-07
-2.55337e-07
7.82644e-07
0.000148594
0.000144552
0.000140016
0.000135142
0.000129992
0.000124637
0.000119149
0.00011359
0.000108014
0.000102466
9.69846e-05
9.16032e-05
8.63481e-05
8.12408e-05
7.62982e-05
7.15328e-05
6.69537e-05
6.25669e-05
5.83758e-05
5.43814e-05
5.05832e-05
4.69789e-05
4.3565e-05
4.03375e-05
3.72912e-05
3.44208e-05
3.17205e-05
2.91844e-05
2.68067e-05
2.45812e-05
2.2502e-05
2.05632e-05
1.87588e-05
1.70826e-05
1.55287e-05
1.40907e-05
1.27625e-05
1.1538e-05
1.04108e-05
9.37501e-06
8.42472e-06
7.55416e-06
6.75855e-06
6.03003e-06
5.36774e-06
4.76776e-06
4.21951e-06
3.72307e-06
3.27478e-06
2.87041e-06
2.50652e-06
2.17994e-06
1.88764e-06
1.62681e-06
1.39477e-06
1.18904e-06
1.00729e-06
8.4732e-07
7.07138e-07
5.84836e-07
4.78627e-07
3.86934e-07
3.08217e-07
2.41092e-07
1.84325e-07
1.3668e-07
9.71419e-08
6.47387e-08
3.85468e-08
1.78167e-08
1.7937e-09
-1.01811e-08
-1.86575e-08
-2.41562e-08
-2.72242e-08
-2.81885e-08
-2.74455e-08
-2.5428e-08
-2.22337e-08
-1.83445e-08
-1.36406e-08
-8.78415e-09
-3.18298e-09
1.82176e-09
8.35214e-09
1.22176e-08
2.06565e-08
2.10486e-08
3.43808e-08
2.61485e-08
5.18919e-08
2.41343e-08
7.73426e-08
9.84878e-09
1.16188e-07
-2.25431e-08
1.73686e-07
-7.53875e-08
2.49184e-07
-1.42033e-07
3.2929e-07
-2.01119e-07
3.86586e-07
-2.19474e-07
3.88826e-07
-1.70971e-07
3.25509e-07
-6.58724e-08
2.35766e-07
2.80041e-08
2.14304e-07
-4.00977e-10
3.73989e-07
-2.55508e-07
7.83238e-07
0.000144013
0.00014031
0.000136098
0.00013155
0.00012671
0.000121642
0.000116421
0.000111108
0.000105758
0.000100417
9.51252e-05
8.99167e-05
8.48194e-05
7.98557e-05
7.50437e-05
7.03971e-05
6.59259e-05
6.16371e-05
5.75349e-05
5.36213e-05
4.98963e-05
4.63585e-05
4.3005e-05
3.98323e-05
3.68357e-05
3.40105e-05
3.13513e-05
2.88526e-05
2.65086e-05
2.43138e-05
2.22624e-05
2.03487e-05
1.85668e-05
1.6911e-05
1.53754e-05
1.39538e-05
1.26403e-05
1.14289e-05
1.03135e-05
9.28826e-06
8.3474e-06
7.4853e-06
6.69727e-06
5.97555e-06
5.31936e-06
4.72484e-06
4.1815e-06
3.68945e-06
3.2451e-06
2.84424e-06
2.4835e-06
2.15972e-06
1.86992e-06
1.61131e-06
1.38123e-06
1.17724e-06
9.97027e-07
8.38427e-07
6.99448e-07
5.78201e-07
4.72931e-07
3.82044e-07
3.04034e-07
2.3753e-07
1.81289e-07
1.34119e-07
9.49894e-08
6.2934e-08
3.70539e-08
1.65779e-08
7.74042e-10
-1.10099e-08
-1.93289e-08
-2.47045e-08
-2.76516e-08
-2.85294e-08
-2.77239e-08
-2.56297e-08
-2.24014e-08
-1.84538e-08
-1.37297e-08
-8.83598e-09
-3.20448e-09
1.81168e-09
8.35907e-09
1.22411e-08
2.0673e-08
2.10778e-08
3.44132e-08
2.61858e-08
5.19158e-08
2.41818e-08
7.7331e-08
9.90313e-09
1.16165e-07
-2.24624e-08
1.73648e-07
-7.53006e-08
2.49121e-07
-1.41962e-07
3.29243e-07
-2.01071e-07
3.86552e-07
-2.19479e-07
3.88828e-07
-1.71017e-07
3.25516e-07
-6.59258e-08
2.35746e-07
2.80129e-08
2.14229e-07
-3.77871e-10
3.74129e-07
-2.55761e-07
7.84113e-07
0.000137992
0.000134742
0.000130966
0.000126848
0.000122411
0.000117718
0.000112843
0.00010785
0.000102794
9.77235e-05
9.26792e-05
8.76968e-05
8.28057e-05
7.80301e-05
7.33894e-05
6.88986e-05
6.45691e-05
6.04091e-05
5.64239e-05
5.26166e-05
4.89881e-05
4.55379e-05
4.22641e-05
3.91637e-05
3.62329e-05
3.34674e-05
3.08624e-05
2.84129e-05
2.61137e-05
2.39594e-05
2.19447e-05
2.00641e-05
1.83122e-05
1.66833e-05
1.51719e-05
1.3772e-05
1.2478e-05
1.1284e-05
1.01843e-05
9.17301e-06
8.24468e-06
7.3938e-06
6.61583e-06
5.90315e-06
5.25507e-06
4.66779e-06
4.13098e-06
3.64478e-06
3.20565e-06
2.80946e-06
2.45289e-06
2.13284e-06
1.84636e-06
1.59069e-06
1.36324e-06
1.16156e-06
9.83392e-07
8.26607e-07
6.89227e-07
5.69385e-07
4.65352e-07
3.75541e-07
2.98472e-07
2.32791e-07
1.77258e-07
1.30716e-07
9.21272e-08
6.05366e-08
3.50632e-08
1.49274e-08
-5.84678e-10
-1.21171e-08
-2.0227e-08
-2.54316e-08
-2.82248e-08
-2.89841e-08
-2.80864e-08
-2.59007e-08
-2.26147e-08
-1.8601e-08
-1.38405e-08
-8.90336e-09
-3.23658e-09
1.79941e-09
8.36578e-09
1.22678e-08
2.06943e-08
2.11169e-08
3.44472e-08
2.62367e-08
5.19395e-08
2.42447e-08
7.73183e-08
9.97646e-09
1.16134e-07
-2.23625e-08
1.73598e-07
-7.5197e-08
2.49049e-07
-1.41881e-07
3.29195e-07
-2.01033e-07
3.86532e-07
-2.19511e-07
3.88854e-07
-1.71101e-07
3.25547e-07
-6.60091e-08
2.3573e-07
2.80139e-08
2.14143e-07
-3.62107e-10
3.74328e-07
-2.56114e-07
7.85276e-07
0.000130606
0.000127929
0.000124702
0.000121107
0.000117159
0.000112919
0.000108465
0.00010386
9.91605e-05
9.44175e-05
8.96738e-05
8.49666e-05
8.03272e-05
7.57813e-05
7.13501e-05
6.70502e-05
6.28946e-05
5.88927e-05
5.50513e-05
5.13747e-05
4.7865e-05
4.45228e-05
4.13471e-05
3.83359e-05
3.54862e-05
3.27944e-05
3.02564e-05
2.78678e-05
2.56238e-05
2.35197e-05
2.15503e-05
1.97108e-05
1.7996e-05
1.64005e-05
1.4919e-05
1.35461e-05
1.22762e-05
1.11039e-05
1.00235e-05
9.02962e-06
8.11686e-06
7.27994e-06
6.51448e-06
5.81306e-06
5.17506e-06
4.59677e-06
4.06809e-06
3.58915e-06
3.15653e-06
2.76616e-06
2.41479e-06
2.09936e-06
1.81702e-06
1.56502e-06
1.34082e-06
1.14203e-06
9.66415e-07
8.11888e-07
6.76499e-07
5.58405e-07
4.55908e-07
3.6744e-07
2.91543e-07
2.26886e-07
1.72241e-07
1.26478e-07
8.85627e-08
5.75511e-08
3.25794e-08
1.28686e-08
-2.27983e-09
-1.35002e-08
-2.13493e-08
-2.6337e-08
-2.89415e-08
-2.95513e-08
-2.85327e-08
-2.6238e-08
-2.28731e-08
-1.87838e-08
-1.39728e-08
-8.98519e-09
-3.27851e-09
1.7849e-09
8.37188e-09
1.22977e-08
2.072e-08
2.11655e-08
3.44831e-08
2.63014e-08
5.19624e-08
2.43246e-08
7.73016e-08
1.00724e-08
1.16089e-07
-2.22362e-08
1.73526e-07
-7.50643e-08
2.48954e-07
-1.41775e-07
3.29125e-07
-2.00981e-07
3.86504e-07
-2.19546e-07
3.88884e-07
-1.71202e-07
3.25585e-07
-6.61101e-08
2.35711e-07
2.80111e-08
2.14045e-07
-3.50464e-10
3.74575e-07
-2.56546e-07
7.8668e-07
0.000121952
0.00011997
0.000117402
0.000114415
0.000111029
0.000107312
0.000103341
9.9184e-05
9.48977e-05
9.05346e-05
8.614e-05
8.1753e-05
7.74069e-05
7.31293e-05
6.89431e-05
6.48669e-05
6.0915e-05
5.70989e-05
5.34266e-05
4.99038e-05
4.65342e-05
4.33194e-05
4.02595e-05
3.73537e-05
3.45998e-05
3.19952e-05
2.95365e-05
2.72199e-05
2.50414e-05
2.29966e-05
2.10811e-05
1.92902e-05
1.76193e-05
1.60634e-05
1.46175e-05
1.32766e-05
1.20355e-05
1.0889e-05
9.83167e-06
8.85847e-06
7.96427e-06
7.14399e-06
6.39344e-06
5.70548e-06
5.07951e-06
4.51194e-06
3.99298e-06
3.52271e-06
3.09785e-06
2.71443e-06
2.36926e-06
2.05937e-06
1.78195e-06
1.53433e-06
1.31402e-06
1.11869e-06
9.46127e-07
7.94298e-07
6.61284e-07
5.45278e-07
4.44615e-07
3.57751e-07
2.83259e-07
2.19826e-07
1.66248e-07
1.21413e-07
8.43008e-08
5.39808e-08
2.96056e-08
1.04045e-08
-4.30969e-09
-1.51582e-08
-2.26941e-08
-2.742e-08
-2.98006e-08
-3.02296e-08
-2.90628e-08
-2.66408e-08
-2.3177e-08
-1.90007e-08
-1.41268e-08
-9.0814e-09
-3.33055e-09
1.76834e-09
8.37619e-09
1.2332e-08
2.07467e-08
2.12271e-08
3.45144e-08
2.63895e-08
5.19686e-08
2.44449e-08
7.72468e-08
1.02386e-08
1.15965e-07
-2.19963e-08
1.7332e-07
-7.47618e-08
2.48663e-07
-1.41443e-07
3.28809e-07
-2.00674e-07
3.86215e-07
-2.19338e-07
3.88686e-07
-1.71123e-07
3.25471e-07
-6.61128e-08
2.35611e-07
2.80536e-08
2.13891e-07
-2.78397e-10
3.74748e-07
-2.5685e-07
7.88027e-07
0.000111856
0.000110744
0.000108977
0.000106682
0.000103935
0.000100812
9.73937e-05
9.37472e-05
8.99333e-05
8.60063e-05
8.20134e-05
7.79958e-05
7.39887e-05
7.00218e-05
6.612e-05
6.23037e-05
5.85892e-05
5.49897e-05
5.15148e-05
4.8172e-05
4.49663e-05
4.19007e-05
3.89767e-05
3.61946e-05
3.35533e-05
3.10512e-05
2.86857e-05
2.64539e-05
2.43524e-05
2.23775e-05
2.05254e-05
1.87919e-05
1.71728e-05
1.56637e-05
1.426e-05
1.2957e-05
1.17498e-05
1.06338e-05
9.60384e-06
8.65518e-06
7.78298e-06
6.98246e-06
6.2496e-06
5.57762e-06
4.96592e-06
4.41107e-06
3.90367e-06
3.44371e-06
3.02808e-06
2.65291e-06
2.31512e-06
2.0118e-06
1.74024e-06
1.49783e-06
1.28215e-06
1.09091e-06
9.21986e-07
7.73367e-07
6.43176e-07
5.29654e-07
4.3117e-07
3.46216e-07
2.73396e-07
2.11423e-07
1.59114e-07
1.15382e-07
7.9225e-08
4.97286e-08
2.60609e-08
7.46657e-09
-6.72989e-09
-1.71364e-08
-2.42982e-08
-2.87104e-08
-3.08258e-08
-3.10382e-08
-2.96924e-08
-2.71196e-08
-2.35356e-08
-1.92579e-08
-1.43077e-08
-9.19505e-09
-3.39476e-09
1.74884e-09
8.37715e-09
1.23725e-08
2.07717e-08
2.13063e-08
3.45355e-08
2.65126e-08
5.19435e-08
2.46308e-08
7.71193e-08
1.0525e-08
1.15696e-07
-2.15535e-08
1.72865e-07
-7.41468e-08
2.48006e-07
-1.40686e-07
3.28022e-07
-1.99871e-07
3.8542e-07
-2.18648e-07
3.88041e-07
-1.70675e-07
3.25057e-07
-6.59157e-08
2.35365e-07
2.81763e-08
2.13649e-07
-9.55342e-11
3.74748e-07
-2.56846e-07
7.89104e-07
0.000100688
0.000100452
9.95055e-05
9.79649e-05
9.5918e-05
9.34515e-05
9.06446e-05
8.75666e-05
8.42802e-05
8.08414e-05
7.72996e-05
7.36978e-05
7.00733e-05
6.6458e-05
6.28786e-05
5.93576e-05
5.59134e-05
5.25607e-05
4.93114e-05
4.61744e-05
4.31564e-05
4.02619e-05
3.7494e-05
3.4854e-05
3.23422e-05
2.9958e-05
2.76999e-05
2.55658e-05
2.35532e-05
2.1659e-05
1.98801e-05
1.82129e-05
1.66538e-05
1.51987e-05
1.38438e-05
1.25846e-05
1.14169e-05
1.03363e-05
9.33817e-06
8.41805e-06
7.57148e-06
6.79396e-06
6.08175e-06
5.42837e-06
4.8333e-06
4.29334e-06
3.79941e-06
3.35148e-06
2.94661e-06
2.58108e-06
2.25188e-06
1.95625e-06
1.69152e-06
1.4552e-06
1.24492e-06
1.05847e-06
8.93791e-07
7.48917e-07
6.22024e-07
5.11401e-07
4.15463e-07
3.32742e-07
2.61877e-07
2.0161e-07
1.50787e-07
1.08343e-07
7.32997e-08
4.47648e-08
2.19234e-08
4.03749e-09
-9.55392e-09
-1.94442e-08
-2.61685e-08
-3.02133e-08
-3.20203e-08
-3.19788e-08
-3.04221e-08
-2.76735e-08
-2.39475e-08
-1.95537e-08
-1.45132e-08
-9.32434e-09
-3.46691e-09
1.72638e-09
8.38139e-09
1.24148e-08
2.08092e-08
2.13867e-08
3.45782e-08
2.66275e-08
5.19569e-08
2.47847e-08
7.7063e-08
1.07348e-08
1.15552e-07
-2.12606e-08
1.72617e-07
-7.37811e-08
2.4766e-07
-1.40291e-07
3.27648e-07
-1.9952e-07
3.85094e-07
-2.18436e-07
3.87842e-07
-1.70641e-07
3.24981e-07
-6.60036e-08
2.35322e-07
2.8117e-08
2.13574e-07
-1.54805e-10
3.75141e-07
-2.5743e-07
7.91129e-07
8.88073e-05
8.94352e-05
8.93174e-05
8.85568e-05
8.72447e-05
8.54691e-05
8.33095e-05
8.08359e-05
7.81123e-05
7.51963e-05
7.2139e-05
6.89853e-05
6.57742e-05
6.25395e-05
5.93102e-05
5.61105e-05
5.29608e-05
4.9878e-05
4.68754e-05
4.3964e-05
4.1152e-05
3.84457e-05
3.58494e-05
3.3366e-05
3.09971e-05
2.87431e-05
2.66037e-05
2.45776e-05
2.26633e-05
2.08584e-05
1.91606e-05
1.75669e-05
1.60743e-05
1.46793e-05
1.33786e-05
1.21683e-05
1.10445e-05
1.00034e-05
9.04073e-06
8.15249e-06
7.33455e-06
6.58276e-06
5.89365e-06
5.26108e-06
4.68464e-06
4.16138e-06
3.68251e-06
3.24806e-06
2.85525e-06
2.50051e-06
2.18095e-06
1.89392e-06
1.63686e-06
1.40736e-06
1.20314e-06
1.02208e-06
8.6215e-07
7.21475e-07
5.98279e-07
4.90911e-07
3.97832e-07
3.17618e-07
2.48949e-07
1.90599e-07
1.41442e-07
1.00443e-07
6.66507e-08
3.91946e-08
1.72798e-08
1.89067e-10
-1.27223e-08
-2.20331e-08
-2.82663e-08
-3.18986e-08
-3.33599e-08
-3.30322e-08
-3.12373e-08
-2.82918e-08
-2.44054e-08
-1.98826e-08
-1.47401e-08
-9.46699e-09
-3.54624e-09
1.70135e-09
8.38746e-09
1.2459e-08
2.08553e-08
2.14705e-08
3.46352e-08
2.67421e-08
5.19931e-08
2.49268e-08
7.70451e-08
1.09112e-08
1.1547e-07
-2.10374e-08
1.72468e-07
-7.35332e-08
2.47463e-07
-1.40068e-07
3.27471e-07
-1.9939e-07
3.85e-07
-2.18467e-07
3.87873e-07
-1.70832e-07
3.25096e-07
-6.62718e-08
2.35421e-07
2.79103e-08
2.1364e-07
-4.06409e-10
3.75812e-07
-2.58398e-07
7.93804e-07
7.63239e-05
7.7819e-05
7.85379e-05
7.85748e-05
7.8019e-05
7.6958e-05
7.54708e-05
7.36279e-05
7.1494e-05
6.91278e-05
6.65816e-05
6.3902e-05
6.11296e-05
5.83001e-05
5.54442e-05
5.25881e-05
4.97542e-05
4.6961e-05
4.42241e-05
4.15558e-05
3.89663e-05
3.64634e-05
3.40531e-05
3.17395e-05
2.95257e-05
2.74131e-05
2.54027e-05
2.34942e-05
2.16869e-05
1.99795e-05
1.83701e-05
1.68567e-05
1.54368e-05
1.41076e-05
1.28662e-05
1.17094e-05
1.06339e-05
9.63609e-06
8.71247e-06
7.85932e-06
7.07292e-06
6.34949e-06
5.68587e-06
5.07623e-06
4.52035e-06
4.01555e-06
3.55328e-06
3.13372e-06
2.75423e-06
2.41141e-06
2.10251e-06
1.82499e-06
1.5764e-06
1.35443e-06
1.15692e-06
9.81799e-07
8.27134e-07
6.911e-07
5.71994e-07
4.68226e-07
3.78315e-07
3.00879e-07
2.3464e-07
1.78411e-07
1.31099e-07
9.17002e-08
5.92914e-08
3.30287e-08
1.21397e-08
-4.07052e-09
-1.62283e-08
-2.48978e-08
-3.05878e-08
-3.37633e-08
-3.48423e-08
-3.41968e-08
-3.21374e-08
-2.8974e-08
-2.49094e-08
-2.02439e-08
-1.49882e-08
-9.62251e-09
-3.63274e-09
1.6743e-09
8.39455e-09
1.25068e-08
2.09076e-08
2.15626e-08
3.47e-08
2.68675e-08
5.20359e-08
2.50816e-08
7.70303e-08
1.11031e-08
1.15383e-07
-2.07945e-08
1.72304e-07
-7.32586e-08
2.47242e-07
-1.39813e-07
3.27262e-07
-1.99233e-07
3.84881e-07
-2.18487e-07
3.879e-07
-1.71046e-07
3.25239e-07
-6.66014e-08
2.35582e-07
2.76055e-08
2.13804e-07
-7.85589e-10
3.76637e-07
-2.59535e-07
7.96817e-07
6.33666e-05
6.57313e-05
6.72901e-05
6.81318e-05
6.83431e-05
6.80102e-05
6.72113e-05
6.60165e-05
6.4491e-05
6.26941e-05
6.0679e-05
5.84935e-05
5.61798e-05
5.37751e-05
5.13118e-05
4.88179e-05
4.63175e-05
4.38311e-05
4.13759e-05
3.89662e-05
3.66136e-05
3.43277e-05
3.2116e-05
2.99841e-05
2.79362e-05
2.59754e-05
2.41034e-05
2.23212e-05
2.06291e-05
1.90264e-05
1.75123e-05
1.60854e-05
1.4744e-05
1.34858e-05
1.23086e-05
1.12097e-05
1.01865e-05
9.23577e-06
8.35453e-06
7.53952e-06
6.78745e-06
6.0949e-06
5.45904e-06
4.87439e-06
4.34094e-06
3.85627e-06
3.41212e-06
3.00878e-06
2.64384e-06
2.31403e-06
2.01676e-06
1.74963e-06
1.51029e-06
1.29657e-06
1.10637e-06
9.37748e-07
7.88829e-07
6.5787e-07
5.43237e-07
4.43409e-07
3.56962e-07
2.82567e-07
2.18988e-07
1.65078e-07
1.19784e-07
8.21351e-08
5.12398e-08
2.62832e-08
6.51743e-09
-8.72901e-09
-2.00621e-08
-2.80303e-08
-3.31263e-08
-3.58021e-08
-3.6463e-08
-3.54693e-08
-3.31198e-08
-2.97179e-08
-2.5458e-08
-2.06363e-08
-1.52564e-08
-9.78983e-09
-3.7255e-09
1.64578e-09
8.40326e-09
1.25592e-08
2.09665e-08
2.1664e-08
3.47725e-08
2.70048e-08
5.20843e-08
2.5251e-08
7.7016e-08
1.13145e-08
1.15286e-07
-2.05243e-08
1.72115e-07
-7.29451e-08
2.4698e-07
-1.39509e-07
3.27002e-07
-1.99027e-07
3.84713e-07
-2.18475e-07
3.879e-07
-1.71263e-07
3.25395e-07
-6.69806e-08
2.35798e-07
2.72058e-08
2.14065e-07
-1.29011e-09
3.77604e-07
-2.6082e-07
8.00109e-07
5.00749e-05
5.33001e-05
5.56921e-05