/*--------------------------------*- C++ -*----------------------------------*\
| =========                 |                                                 |
| \\      /  F ield         | OpenFOAM: The Open Source CFD Toolbox           |
|  \\    /   O peration     | Version:  2412                                  |
|   \\  /    A nd           | Website:  www.openfoam.com                      |
|    \\/     M anipulation  |                                                 |
\*---------------------------------------------------------------------------*/
FoamFile
{
    version     2.0;
    format      ascii;
    arch        "LSB;label=32;scalar=64";
    class       surfaceScalarField;
    location    "21.5";
    object      phi;
}
// * * * * * * * * * * * * * * * * * * * * * * * * * * * * * * * * * * * * * //

dimensions      [0 3 -1 0 0 0 0];

oriented        oriented;

internalField   nonuniform List<scalar> 
126304
(
0.00505063
1.29026e-07
4.33149e-12
0.00505025
3.76409e-07
2.2411e-12
0.00504964
6.10911e-07
3.62848e-12
0.00504881
8.33586e-07
1.3722e-11
0.00504776
1.04482e-06
3.46534e-11
0.00504652
1.24713e-06
6.38246e-11
0.00504506
1.45015e-06
8.68724e-11
0.00504339
1.67294e-06
7.36873e-11
0.00504145
1.93988e-06
-1.5049e-11
0.00503918
2.27075e-06
-2.10427e-10
0.00503651
2.6703e-06
-5.1612e-10
0.00503339
3.12294e-06
-8.97664e-10
0.0050298
3.59529e-06
-1.28617e-09
0.00502575
4.04535e-06
-1.59591e-09
0.00502132
4.43378e-06
-1.74836e-09
0.00501659
4.7332e-06
-1.69249e-09
0.00501166
4.93273e-06
-1.41447e-09
0.00500662
5.03749e-06
-9.3644e-10
0.00500156
5.06453e-06
-3.0751e-10
0.00499652
5.03721e-06
4.09287e-10
0.00499154
4.97991e-06
1.15033e-09
0.00498662
4.91407e-06
1.86142e-09
0.00498176
4.85612e-06
2.50287e-09
0.00497694
4.81685e-06
3.05074e-09
0.00497214
4.802e-06
3.49548e-09
0.00496732
4.81331e-06
3.83874e-09
0.00496247
4.84981e-06
4.08937e-09
0.00495755
4.90899e-06
4.26018e-09
0.00495256
4.98764e-06
4.36531e-09
0.00494747
5.08252e-06
4.41852e-09
0.00494228
5.19068e-06
4.43211e-09
0.00493697
5.30967e-06
4.41628e-09
0.00493152
5.43754e-06
4.37896e-09
0.00492595
5.57284e-06
4.32614e-09
0.00492023
5.71452e-06
4.26221e-09
0.00491436
5.86187e-06
4.1903e-09
0.00490834
6.01441e-06
4.11259e-09
0.00490217
6.17186e-06
4.03049e-09
0.00489583
6.33404e-06
3.94487e-09
0.00488932
6.50087e-06
3.8563e-09
0.00488265
6.67231e-06
3.76514e-09
0.0048758
6.84836e-06
3.67164e-09
0.00486876
7.02904e-06
3.57605e-09
0.00486155
7.21437e-06
3.47847e-09
0.00485414
7.40439e-06
3.37895e-09
0.00484654
7.59914e-06
3.2776e-09
0.00483873
7.79866e-06
3.17451e-09
0.00483073
8.003e-06
3.06979e-09
0.00482251
8.21222e-06
2.96354e-09
0.00481408
8.42641e-06
2.8559e-09
0.00480543
8.6457e-06
2.74707e-09
0.00479656
8.87041e-06
2.63726e-09
0.00478746
9.10135e-06
2.52659e-09
0.00477811
9.34088e-06
2.41533e-09
9.59571e-06
0.00476852
2.30371e-09
0.00505063
2.57971e-07
0.00505025
7.52548e-07
0.00504964
1.22139e-06
0.00504881
1.66659e-06
0.00504776
2.08895e-06
0.00504652
2.49346e-06
0.00504507
2.89928e-06
0.0050434
3.34438e-06
0.00504146
3.87728e-06
0.00503919
4.5375e-06
0.00503653
5.33464e-06
0.00503341
6.23776e-06
0.00502983
7.18055e-06
0.00502579
8.07936e-06
0.00502137
8.8558e-06
0.00501665
9.4552e-06
0.00501173
9.85568e-06
0.0050067
1.00672e-05
0.00500164
1.01236e-05
0.00499661
1.00714e-05
0.00499163
9.95888e-06
0.00498671
9.82895e-06
0.00498185
9.71432e-06
0.00497703
9.6366e-06
0.00497223
9.60725e-06
0.00496741
9.62987e-06
0.00496256
9.70259e-06
0.00495765
9.82044e-06
0.00495266
9.97711e-06
0.00494757
1.01661e-05
0.00494238
1.03817e-05
0.00493707
1.06189e-05
0.00493164
1.08738e-05
0.00492607
1.11436e-05
0.00492036
1.14262e-05
0.0049145
1.17201e-05
0.00490849
1.20244e-05
0.00490232
1.23386e-05
0.00489599
1.26621e-05
0.0048895
1.2995e-05
0.00488283
1.3337e-05
0.00487599
1.36882e-05
0.00486897
1.40487e-05
0.00486177
1.44184e-05
0.00485438
1.47975e-05
0.00484679
1.5186e-05
0.004839
1.55839e-05
0.00483102
1.59914e-05
0.00482282
1.64086e-05
0.00481441
1.68357e-05
0.00480578
1.72729e-05
0.00479693
1.77207e-05
0.00478785
1.81809e-05
0.00477854
1.86578e-05
1.91644e-05
0.00476897
0.00505063
3.86744e-07
0.00505025
1.12815e-06
0.00504964
1.83101e-06
0.00504881
2.49842e-06
0.00504777
3.13161e-06
0.00504652
3.73804e-06
0.00504508
4.34621e-06
0.00504341
5.01266e-06
0.00504148
5.80981e-06
0.00503922
6.79678e-06
0.00503656
7.9882e-06
0.00503346
9.33832e-06
0.00502989
1.07485e-05
0.00502588
1.20941e-05
0.00502148
1.32581e-05
0.00501677
1.41584e-05
0.00501187
1.4762e-05
0.00500685
1.50834e-05
0.0050018
1.51726e-05
0.00499678
1.50986e-05
0.0049918
1.49336e-05
0.00498689
1.47416e-05
0.00498203
1.45716e-05
0.00497721
1.44559e-05
0.00497241
1.44119e-05
0.00496759
1.44451e-05
0.00496274
1.4553e-05
0.00495783
1.47282e-05
0.00495285
1.49614e-05
0.00494777
1.52431e-05
0.00494259
1.55645e-05
0.00493729
1.59184e-05
0.00493187
1.62989e-05
0.00492631
1.67017e-05
0.00492061
1.71238e-05
0.00491477
1.75629e-05
0.00490877
1.80175e-05
0.00490263
1.84869e-05
0.00489632
1.89704e-05
0.00488984
1.94678e-05
0.0048832
1.9979e-05
0.00487639
2.05039e-05
0.00486939
2.10425e-05
0.00486222
2.1595e-05
0.00485485
2.21613e-05
0.0048473
2.27416e-05
0.00483954
2.3336e-05
0.00483159
2.39446e-05
0.00482343
2.45676e-05
0.00481506
2.52051e-05
0.00480648
2.58576e-05
0.00479767
2.65258e-05
0.00478864
2.7212e-05
0.00477938
2.79222e-05
2.86746e-05
0.00476987
0.00505063
5.15264e-07
0.00505025
1.50293e-06
0.00504965
2.43932e-06
0.00504882
3.32847e-06
0.00504777
4.17209e-06
0.00504653
4.98002e-06
0.00504509
5.78984e-06
0.00504343
6.67626e-06
0.0050415
7.73515e-06
0.00503925
9.04505e-06
0.00503661
1.0626e-05
0.00503353
1.2418e-05
0.00502999
1.42912e-05
0.00502601
1.60808e-05
0.00502163
1.76314e-05
0.00501696
1.8834e-05
0.00501207
1.9644e-05
0.00500708
2.00796e-05
0.00500204
2.02064e-05
0.00499703
2.01153e-05
0.00499206
1.99019e-05
0.00498715
1.96508e-05
0.00498229
1.94271e-05
0.00497748
1.92741e-05
0.00497267
1.92152e-05
0.00496786
1.92581e-05
0.00496301
1.93995e-05
0.00495811
1.96302e-05
0.00495314
1.99378e-05
0.00494807
2.03098e-05
0.0049429
2.07348e-05
0.00493761
2.12031e-05
0.00493221
2.1707e-05
0.00492667
2.22407e-05
0.00492099
2.28001e-05
0.00491517
2.33822e-05
0.0049092
2.39852e-05
0.00490308
2.46078e-05
0.0048968
2.52492e-05
0.00489036
2.5909e-05
0.00488375
2.65871e-05
0.00487698
2.72833e-05
0.00487002
2.79978e-05
0.00486288
2.87304e-05
0.00485556
2.94814e-05
0.00484806
3.02508e-05
0.00484035
3.10387e-05
0.00483245
3.18453e-05
0.00482435
3.26707e-05
0.00481604
3.35152e-05
0.00480752
3.43791e-05
0.00479878
3.52635e-05
0.00478982
3.61707e-05
0.00478063
3.71082e-05
3.8097e-05
0.00477121
0.00505063
6.43448e-07
0.00505026
1.87663e-06
0.00504965
3.04591e-06
0.00504882
4.15616e-06
0.00504778
5.20965e-06
0.00504654
6.21851e-06
0.00504511
7.22909e-06
0.00504345
8.33369e-06
0.00504153
9.65109e-06
0.0050393
1.12791e-05
0.00503668
1.32433e-05
0.00503363
1.54708e-05
0.00503012
1.78013e-05
0.00502617
2.0031e-05
0.00502183
2.19673e-05
0.00501719
2.34739e-05
0.00501234
2.44942e-05
0.00500737
2.50496e-05
0.00500236
2.52202e-05
0.00499736
2.5118e-05
0.0049924
2.48612e-05
0.00498749
2.45546e-05
0.00498264
2.42796e-05
0.00497782
2.40903e-05
0.00497302
2.40162e-05
0.00496821
2.40673e-05
0.00496337
2.42404e-05
0.00495848
2.4524e-05
0.00495351
2.49032e-05
0.00494846
2.53627e-05
0.00494331
2.58882e-05
0.00493804
2.64679e-05
0.00493266
2.70923e-05
0.00492714
2.77541e-05
0.0049215
2.84481e-05
0.00491571
2.91706e-05
0.00490977
2.99191e-05
0.00490369
3.06921e-05
0.00489745
3.14886e-05
0.00489105
3.2308e-05
0.00488449
3.31501e-05
0.00487776
3.40147e-05
0.00487085
3.49018e-05
0.00486377
3.58114e-05
0.00485651
3.67436e-05
0.00484906
3.76984e-05
0.00484142
3.8676e-05
0.00483359
3.96765e-05
0.00482556
4.07e-05
0.00481733
4.17468e-05
0.00480889
4.28171e-05
0.00480025
4.39121e-05
0.00479138
4.50342e-05
0.0047823
4.61908e-05
4.7404e-05
0.00477299
0.00505063
7.71221e-07
0.00505026
2.24896e-06
0.00504965
3.65035e-06
0.00504883
4.98091e-06
0.00504779
6.24357e-06
0.00504656
7.45266e-06
0.00504513
8.6629e-06
0.00504348
9.98353e-06
0.00504157
1.15556e-05
0.00503935
1.34958e-05
0.00503676
1.58361e-05
0.00503374
1.84912e-05
0.00503027
2.12723e-05
0.00502636
2.39377e-05
0.00502207
2.62582e-05
0.00501748
2.80707e-05
0.00501266
2.93061e-05
0.00500773
2.99878e-05
0.00500274
3.02095e-05
0.00499775
3.01031e-05
0.0049928
2.98088e-05
0.00498791
2.94513e-05
0.00498306
2.91276e-05
0.00497825
2.89029e-05
0.00497345
2.88132e-05
0.00496865
2.88711e-05
0.00496381
2.90732e-05
0.00495893
2.94067e-05
0.00495398
2.98542e-05
0.00494894
3.03976e-05
0.00494381
3.10201e-05
0.00493857
3.17077e-05
0.00493322
3.24491e-05
0.00492773
3.32355e-05
0.00492212
3.40606e-05
0.00491637
3.49201e-05
0.00491048
3.58108e-05
0.00490444
3.67309e-05
0.00489825
3.76791e-05
0.0048919
3.86547e-05
0.0048854
3.96572e-05
0.00487873
4.06864e-05
0.00487189
4.17423e-05
0.00486487
4.28248e-05
0.00485768
4.39339e-05
0.00485031
4.50697e-05
0.00484275
4.62323e-05
0.00483501
4.74216e-05
0.00482707
4.86379e-05
0.00481894
4.98813e-05
0.0048106
5.1152e-05
0.00480206
5.24508e-05
0.00479332
5.37801e-05
0.00478436
5.51461e-05
5.65689e-05
0.0047752
0.00505063
8.98461e-07
0.00505026
2.61972e-06
0.00504966
4.25222e-06
0.00504884
5.80212e-06
0.00504781
7.27312e-06
0.00504658
8.6816e-06
0.00504515
1.00902e-05
0.00504351
1.16244e-05
0.00504162
1.34468e-05
0.00503942
1.56928e-05
0.00503686
1.84008e-05
0.00503387
2.14748e-05
0.00503045
2.46988e-05
0.00502659
2.77948e-05
0.00502235
3.04978e-05
0.0050178
3.26182e-05
0.00501303
3.40737e-05
0.00500813
3.4889e-05
0.00500317
3.51697e-05
0.00499821
3.50671e-05
0.00499328
3.47418e-05
0.00498839
3.43382e-05
0.00498355
3.39689e-05
0.00497874
3.371e-05
0.00497395
3.36041e-05
0.00496915
3.36668e-05
0.00496433
3.38953e-05
0.00495946
3.42753e-05
0.00495453
3.47871e-05
0.00494952
3.54103e-05
0.00494441
3.61257e-05
0.0049392
3.69171e-05
0.00493388
3.77712e-05
0.00492844
3.86782e-05
0.00492287
3.96306e-05
0.00491717
4.06231e-05
0.00491132
4.16522e-05
0.00490534
4.27154e-05
0.00489921
4.38113e-05
0.00489292
4.49389e-05
0.00488648
4.60976e-05
0.00487988
4.7287e-05
0.00487312
4.85071e-05
0.00486618
4.97577e-05
0.00485908
5.10388e-05
0.0048518
5.23503e-05
0.00484434
5.36923e-05
0.0048367
5.50647e-05
0.00482887
5.64675e-05
0.00482085
5.79008e-05
0.00481263
5.93648e-05
0.00480422
6.086e-05
0.00479562
6.23876e-05
0.00478681
6.39517e-05
0.00477782
6.55636e-05
0.0047689
-3.86295e-07
2.20167e-09
0.00476876
1.41273e-07
2.11808e-09
0.00476805
7.00497e-07
2.05055e-09
0.00476675
1.2985e-06
1.96993e-09
0.00476482
1.93695e-06
1.88183e-09
0.00476219
2.61943e-06
1.78794e-09
0.00475884
3.34986e-06
1.68799e-09
0.00475471
4.13263e-06
1.58185e-09
0.00474973
4.97265e-06
1.46912e-09
0.00474386
5.87539e-06
1.34971e-09
0.00473701
6.84697e-06
1.22358e-09
0.00472911
7.89425e-06
1.09063e-09
0.00472009
9.02489e-06
9.50581e-10
0.00470984
1.02475e-05
8.05496e-10
0.00469827
1.15718e-05
6.47239e-10
0.00468526
1.30088e-05
4.96851e-10
0.00467069
1.45707e-05
3.08858e-10
0.00465442
1.62717e-05
1.10064e-10
0.00463629
1.8128e-05
-7.89831e-11
0.00461613
2.01577e-05
-2.86933e-10
0.00459375
2.2382e-05
-4.8212e-10
0.00456892
2.48251e-05
-6.81953e-10
0.00454141
2.75153e-05
-8.88186e-10
0.00451093
3.04853e-05
-1.09914e-09
0.00447715
3.37735e-05
-1.31275e-09
0.00443973
3.74254e-05
-1.52715e-09
0.00439824
4.14946e-05
-1.74036e-09
0.00435219
4.60452e-05
-1.95086e-09
0.00430104
5.1154e-05
-2.15734e-09
0.00424413
5.69135e-05
-2.35841e-09
0.0041807
6.34361e-05
-2.55325e-09
0.00410984
7.08586e-05
-2.74137e-09
0.0040305
7.93483e-05
-2.92261e-09
0.00394139
8.91102e-05
-3.09735e-09
0.003841
0.000100395
-3.26622e-09
0.00372749
0.000113507
-3.4303e-09
0.00359868
0.000128812
-3.59091e-09
0.00345196
0.000146732
-3.74954e-09
0.00328423
0.000167734
-3.90767e-09
0.00309194
0.000192287
-4.06687e-09
0.00287118
0.000220764
-4.22882e-09
0.00261792
0.000253269
-4.39445e-09
0.00232858
0.00028934
-4.56231e-09
0.00200112
0.000327471
-4.72508e-09
0.00163672
0.000364401
-4.86182e-09
0.00124263
0.000394096
-4.92594e-09
0.000836164
0.00040647
-4.82674e-09
0.000450415
0.000385753
-4.40605e-09
0.000142438
0.000307981
-3.4221e-09
0.000142439
-1.563e-09
0.00476798
5.97608e-07
0.00476648
1.64783e-06
0.00476441
2.76656e-06
0.00476175
3.96012e-06
0.00475845
5.23465e-06
0.00475447
6.59716e-06
0.00474977
8.05552e-06
0.00474428
9.61856e-06
0.00473796
1.12961e-05
0.00473074
1.30991e-05
0.00472254
1.50399e-05
0.0047133
1.71322e-05
0.00470294
1.93913e-05
0.00469135
2.18345e-05
0.00467844
2.44812e-05
0.0046641
2.73534e-05
0.00464819
3.04759e-05
0.00463059
3.38768e-05
0.00461113
3.75885e-05
0.00458964
4.16476e-05
0.00456592
4.60963e-05
0.00453976
5.09833e-05
0.00451091
5.63651e-05
0.00447909
6.23072e-05
0.00444398
6.88867e-05
0.00440521
7.61944e-05
0.00436237
8.43377e-05
0.00431497
9.34448e-05
0.00426245
0.000103669
0.00420417
0.000115195
0.00413936
0.000128246
0.00406712
0.000143096
0.0039864
0.000160076
0.00389591
0.000179593
0.00379416
0.000202144
0.00367934
0.000228328
0.00354929
0.000258864
0.00340144
0.000294579
0.00323279
0.000336384
0.0030399
0.000385178
0.002819
0.000441663
0.00256628
0.00050599
0.00227845
0.000577173
0.00195378
0.000652145
0.00159381
0.000724368
0.00120606
0.000781843
0.00080799
0.000804541
0.000432345
0.000761398
0.000134113
0.000606213
0.000276553
0.00476617
4.29715e-06
0.00476195
5.86744e-06
0.00475717
7.54052e-06
0.00475181
9.32519e-06
0.00474581
1.1231e-05
0.00473914
1.32686e-05
0.00473175
1.54498e-05
0.00472358
1.77881e-05
0.00471458
2.02981e-05
0.00470468
2.29965e-05
0.00469382
2.59017e-05
0.00468191
2.90343e-05
0.00466889
3.24174e-05
0.00465465
3.6077e-05
0.00463908
4.00423e-05
0.00462209
4.43462e-05
0.00460354
4.90261e-05
0.00458329
5.41245e-05
0.00456119
5.96897e-05
0.00453706
6.57771e-05
0.00451071
7.24501e-05
0.00448191
7.9782e-05
0.00445042
8.78575e-05
0.00441595
9.67753e-05
0.00437819
0.000106651
0.00433676
0.000117622
0.00429125
0.000129848
0.00424117
0.000143522
0.00418597
0.000158873
0.00412498
0.000176178
0.00405746
0.00019577
0.0039825
0.000218054
0.00389905
0.000243524
0.00380587
0.000272781
0.00370146
0.000306555
0.00358406
0.000345726
0.00345158
0.000391339
0.00330157
0.000444591
0.00313118
0.000506781
0.00293718
0.000579168
0.00271616
0.000662687
0.00246473
0.000757423
0.00218016
0.00086174
0.00186139
0.000970918
0.00151062
0.00107514
0.00113581
0.00115665
0.000754453
0.0011859
0.000398819
0.00111703
0.000121329
0.000883703
0.000397882
0.00476348
1.20275e-05
0.00475524
1.41111e-05
0.00474645
1.6331e-05
0.00473707
1.8699e-05
0.00472708
2.1228e-05
0.00471641
2.39325e-05
0.00470503
2.68284e-05
0.00469289
2.99337e-05
0.00467992
3.32681e-05
0.00466606
3.68538e-05
0.00465125
4.07154e-05
0.0046354
4.48805e-05
0.00461844
4.93801e-05
0.00460027
5.42487e-05
0.00458078
5.95256e-05
0.00455988
6.52548e-05
0.00453742
7.14861e-05
0.00451326
7.82765e-05
0.00448726
8.56908e-05
0.00445924
9.38029e-05
0.00442899
0.000102698
0.0043963
0.000112473
0.00436091
0.000123243
0.00432255
0.000135139
0.00428088
0.000148316
0.00423555
0.000162956
0.00418612
0.000179274
0.00413212
0.000197526
0.00407298
0.000218016
0.00400804
0.000241112
0.00393656
0.000267255
0.00385763
0.000296979
0.00377023
0.00033093
0.00367311
0.000369894
0.00356485
0.000414818
0.00344374
0.000466837
0.0033078
0.00052728
0.00315473
0.000597657
0.00298194
0.000679573
0.00278658
0.000774532
0.00256571
0.000883554
0.00231665
0.00100648
0.00203755
0.00114085
0.00172831
0.00128015
0.00139209
0.00141136
0.00103735
0.00151139
0.000681117
0.00154213
0.000353818
0.00144433
0.000103204
0.00113432
0.000501085
0.00475997
2.50508e-05
0.00474644
2.76366e-05
0.00473238
3.03917e-05
0.00471775
3.33311e-05
0.00470251
3.64715e-05
0.00468661
3.98309e-05
0.00467001
4.34296e-05
0.00465265
4.729e-05
0.00463448
5.14369e-05
0.00461544
5.58981e-05
0.00459545
6.07044e-05
0.00457444
6.58904e-05
0.00455232
7.14949e-05
0.00452901
7.75613e-05
0.0045044
8.41387e-05
0.00447837
9.12823e-05
0.0044508
9.90549e-05
0.00442155
0.000107528
0.00439046
0.000116782
0.00435735
0.000126911
0.00432203
0.000138021
0.00428427
0.000150235
0.00424381
0.000163695
0.00420039
0.000178568
0.00415366
0.000195046
0.00410325
0.000213358
0.00404875
0.000233773
0.00398967
0.000256609
0.00392544
0.000282248
0.00385541
0.000311143
0.00377882
0.00034384
0.00369481
0.000380997
0.00360233
0.000423406
0.00350021
0.000472018
0.00338705
0.000527975
0.00326126
0.000592626
0.00312101
0.000667534
0.00296423
0.000754433
0.00278869
0.000855115
0.00259205
0.000971169
0.00237212
0.00110349
0.00212718
0.00125142
0.0018566
0.00141143
0.00156167
0.00157509
0.00124675
0.00172628
0.000920822
0.00183731
0.000599583
0.00186337
0.000308616
0.0017353
8.5356e-05
0.00135758
0.000586441
0.00475569
4.45591e-05
0.0047357
4.76295e-05
0.00471518
5.09029e-05
0.00469412
5.43972e-05
0.00467246
5.81325e-05
0.00465016
6.21308e-05
0.00462717
6.64164e-05
0.00460345
7.10159e-05
0.00457892
7.59594e-05
0.00455354
8.12801e-05
0.00452723
8.70151e-05
0.00449991
9.32059e-05
0.00447151
9.98992e-05
0.00444192
0.000107147
0.00441105
0.000115009
0.00437878
0.000123552
0.00434499
0.00013285
0.00430953
0.000142991
0.00427224
0.000154072
0.00423294
0.000166204
0.00419145
0.000179518
0.00414752
0.00019416
0.00410091
0.000210302
0.00405134
0.000228145
0.00399846
0.000247921
0.00394191
0.000269905
0.00388127
0.00029442
0.00381603
0.000321847
0.00374564
0.000352641
0.00366944
0.000387344
0.00358667
0.000426601
0.00349649
0.000471186
0.00339787
0.000522023
0.00328967
0.000580213
0.00317059
0.000647055
0.00303916
0.000724061
0.00289375
0.00081294
0.00273266
0.000915528
0.00255415
0.00103362
0.00235667
0.00116865
0.00213912
0.00132103
0.00190128
0.00148926
0.00164436
0.00166834
0.00137177
0.00184767
0.00108975
0.0020083
0.000808051
0.00211901
0.000540072
0.00213135
0.0003015
0.00197387
0.000104029
0.00155505
0.00069047
0.00475072
7.16508e-05
0.00472317
7.51796e-05
0.00469513
7.89481e-05
0.00466655
8.29753e-05
0.0046374
8.72842e-05
0.00460763
9.18999e-05
0.0045772
9.68505e-05
0.00454605
0.000102167
0.00451412
0.000107885
0.00448136
0.000114041
0.00444769
0.000120681
0.00441305
0.000127852
0.00437734
0.000135609
0.00434047
0.000144013
0.00430235
0.000153134
0.00426285
0.000163048
0.00422186
0.000173844
0.00417922
0.000185625
0.00413479
0.000198503
0.00408838
0.000212611
0.0040398
0.000228099
0.00398882
0.000245141
0.00393519
0.000263938
0.00387861
0.000284723
0.00381876
0.000307771
0.00375526
0.000333401
0.00368769
0.00036199
0.00361555
0.000393984
0.00353828
0.000429911
0.00345523
0.000470396
0.00336565
0.000516182
0.00326868
0.000568154
0.00316335
0.000627356
0.00304855
0.000695017
0.00292304
0.000772563
0.00278548
0.000861614
0.00263449
0.000963935
0.00246869
0.00108132
0.00228695
0.00121537
0.0020886
0.001367
0.00187387
0.00153576
0.00164443
0.00171871
0.00140405
0.00190873
0.00115927
0.00209246
0.00091989
0.00224768
0.000698523
0.00234038
0.000508075
0.0023218
0.000352906
0.00212904
0.000213611
0.00169434
0.000904081
-2.89735e-05
2.89742e-05
-6.59667e-10
-8.36147e-05
5.46431e-05
-1.91899e-09
-0.000144191
6.05798e-05
-3.09743e-09
-0.000199128
5.49403e-05
-4.13305e-09
-0.000241968
4.28454e-05
-4.99979e-09
-0.000269356
2.73939e-05
-5.69498e-09
-0.000279737
1.03874e-05
-6.1964e-09
-0.000272886
-6.84463e-06
-6.34666e-09
-0.000249366
-2.35139e-05
-6.4034e-09
-0.000209715
-3.96445e-05
-6.19443e-09
-0.00015491
-5.48e-05
-5.71223e-09
-8.60166e-05
-6.88882e-05
-4.95448e-09
-4.17473e-06
-8.1838e-05
-3.91522e-09
8.94185e-05
-9.35907e-05
-2.58947e-09
0.00019358
-0.000104161
-9.53211e-10
0.000307118
-0.000113539
9.96351e-10
0.000428854
-0.000121739
3.27262e-09
0.000557634
-0.000128786
5.87707e-09
0.000692337
-0.000134711
8.79138e-09
0.000831878
-0.000139553
1.21224e-08
0.000975218
-0.000143356
1.51299e-08
0.00112136
-0.000146163
1.8366e-08
0.00126936
-0.000148021
2.05845e-08
0.00141832
-0.000148979
2.17878e-08
0.00156739
-0.000149091
2.28801e-08
0.00171579
-0.000148423
2.28424e-08
0.00186281
-0.00014704
2.24471e-08
0.00200779
-0.000145007
2.16096e-08
0.00215016
-0.000142388
2.04635e-08
0.00228938
-0.000139244
1.91229e-08
0.00242501
-0.00013564
1.76593e-08
0.00255663
-0.000131636
1.6115e-08
0.0026839
-0.000127292
1.45121e-08
0.00280656
-0.000122668
1.28653e-08
0.00292436
-0.000117817
1.11811e-08
0.00303715
-0.000112794
9.46912e-09
0.00314479
-0.000107648
7.74002e-09
0.00324721
-0.000102426
6.00985e-09
0.00334437
-9.71696e-05
4.29894e-09
0.00343629
-9.19194e-05
2.62942e-09
0.003523
-8.67105e-05
1.02822e-09
0.00360457
-8.15746e-05
-4.77164e-10
0.00368112
-7.65398e-05
-1.8626e-09
0.00375275
-7.16303e-05
-3.10439e-09
0.00381962
-6.68667e-05
-4.18325e-09
0.00388189
-6.2266e-05
-5.08502e-09
0.00393974
-5.7842e-05
-5.79845e-09
0.00399335
-5.36046e-05
-6.31657e-09
0.00404292
-4.95604e-05
-6.63565e-09
-4.57123e-05
0.00408864
-6.75522e-09
-2.54174e-05
5.43916e-05
-7.33572e-05
0.000102583
-0.000126191
0.000113414
-0.000173776
0.000102525
-0.000210255
7.93243e-05
-0.000232529
4.96675e-05
-0.000239037
1.68958e-05
-0.000229663
-1.62183e-05
-0.000204627
-4.855e-05
-0.000164357
-7.99145e-05
-0.00010973
-0.000109428
-4.16506e-05
-0.000136967
3.88397e-05
-0.000162328
0.000130682
-0.000185433
0.000232777
-0.000206255
0.000344016
-0.000224778
0.000463297
-0.00024102
0.000589527
-0.000255016
0.000721638
-0.000266822
0.000858591
-0.000276506
0.000999382
-0.000284147
0.00114305
-0.000289831
0.00128867
-0.000293642
0.00143537
-0.000295675
0.00158231
-0.000296035
0.00172873
-0.000294844
0.00187392
-0.000292233
0.00201724
-0.000288326
0.0021581
-0.000283249
0.00229599
-0.000277125
0.00243042
-0.000270077
0.00256102
-0.000262228
0.00268742
-0.000253697
0.00280935
-0.000244597
0.00292657
-0.000235041
0.00303891
-0.000225132
0.00314623
-0.000214972
0.00324846
-0.000204651
0.00334555
-0.000194257
0.0034375
-0.000183867
0.00352434
-0.000173553
0.00360614
-0.000163379
0.003683
-0.000153401
0.00375504
-0.000143666
0.00382239
-0.000134218
0.00388521
-0.000125089
0.00394368
-0.000116309
0.00399797
-0.000107896
0.00404828
-9.98649e-05
-9.22191e-05
0.00409478
-1.91611e-05
7.35527e-05
-5.36769e-05
0.000137099
-9.16668e-05
0.000151404
-0.000125202
0.00013606
-0.000149574
0.000103696
-0.000162194
6.22874e-05
-0.000161383
1.60852e-05
-0.000147332
-3.02701e-05
-0.000119715
-7.61666e-05
-7.83163e-05
-0.000121313
-2.41609e-05
-0.000163583
4.21318e-05
-0.00020326
0.000119877
-0.000240074
0.000208222
-0.000273779
0.000306243
-0.000304275
0.000412988
-0.000331524
0.000527493
-0.000355524
0.000648784
-0.000376307
0.000775893
-0.000393931
0.000907867
-0.000408479
0.00104377
-0.000420052
0.0011827
-0.00042876
0.00132378
-0.000434726
0.00146618
-0.000438072
0.00160909
-0.000438947
0.00175177
-0.000437524
0.00189353
-0.000433985
0.00203372
-0.000428516
0.00217176
-0.000421296
0.00230715
-0.000412507
0.0024394
-0.000402328
0.00256811
-0.000390938
0.00269292
-0.000378514
0.00281355
-0.000365225
0.00292975
-0.000351236
0.00304132
-0.000336704
0.00314812
-0.000321777
0.00325007
-0.000306594
0.00334709
-0.000291284
0.00343919
-0.000275963
0.00352638
-0.00026074
0.00360871
-0.000245711
0.00368627
-0.000230959
0.00375916
-0.00021656
0.00382752
-0.000202575
0.00389148
-0.000189057
0.00395122
-0.000176047
0.0040069
-0.000163578
0.00405871
-0.000151668
-0.000140321
0.00410681
-8.18993e-06
8.17426e-05
-2.49957e-05
0.000153904
-4.25537e-05
0.000168962
-5.66381e-05
0.000150145
-6.4434e-05
0.000111492
-6.41255e-05
6.19789e-05
-5.33573e-05
5.31706e-06
-3.31676e-05
-5.04599e-05
-1.66265e-06
-0.000107672
3.98882e-05
-0.000162864
9.26293e-05
-0.000216324
0.000156091
-0.000266721
0.000229698
-0.000313681
0.000312871
-0.000356951
0.000404951
-0.000396355
0.000505213
-0.000431786
0.000612882
-0.000463194
0.00072715
-0.000490575
0.000847187
-0.000513969
0.000972155
-0.000533448
0.00110122
-0.000549115
0.00123355
-0.000561094
0.00136835
-0.000569519
0.00150482
-0.000574542
0.0016422
-0.00057633
0.00177977
-0.000575095
0.00191685
-0.000571071
0.00205283
-0.000564491
0.00218712
-0.000555583
0.00231919
-0.000544579
0.00244857
-0.000531712
0.00257485
-0.000517215
0.00269765
-0.000501317
0.00281667
-0.000484242
0.00293164
-0.000466207
0.00304235
-0.000447418
0.00314865
-0.000428074
0.00325041
-0.000408357
0.00334757
-0.000388439
0.00344008
-0.000368479
0.00352796
-0.000348619
0.00361124
-0.000328989
0.00368998
-0.000309703
0.00376428
-0.000290859
0.00383425
-0.000272544
0.00390002
-0.000254828
0.00396174
-0.000237767
0.00401957
-0.000221406
0.00407367
-0.000205769
-0.000190859
0.00412421
6.12148e-06
7.56211e-05
1.20425e-05
0.000147983
1.9545e-05
0.00016146
2.83652e-05
0.000141325
3.97343e-05
0.000100123
5.52258e-05
4.64874e-05
7.50018e-05
-1.44589e-05
0.000101779
-7.72373e-05
0.000135811
-0.000141704
0.000178284
-0.000205336
0.000229094
-0.000267134
0.000288512
-0.000326139
0.000356524
-0.000381694
0.000432931
-0.000433358
0.000517389
-0.000480814
0.000609446
-0.000523842
0.000708557
-0.000562305
0.000814111
-0.000596129
0.000925443
-0.000625301
0.00104185
-0.000649856
0.00116261
-0.000669876
0.001287
-0.000685476
0.00141427
-0.000696791
0.00154369
-0.000703968
0.00167456
-0.000707193
0.00180616
-0.000706698
0.00193784
-0.000702756
0.00206899
-0.000695638
0.00219903
-0.000685616
0.00232741
-0.000672965
0.00245366
-0.000657964
0.00257735
-0.000640897
0.00269807
-0.000622044
0.00281551
-0.000601679
0.00292937
-0.000580069
0.00303943
-0.000557473
0.00314549
-0.000534133
0.00324741
-0.00051028
0.0033451
-0.00048613
0.0034385
-0.000461881
0.0035276
-0.000437712
0.00361239
-0.000413787
0.00369294
-0.000390251
0.00376931
-0.00036723
0.0038416
-0.000344832
0.00390992
-0.000323147
0.0039744
-0.000302251
0.0040352
-0.000282196
0.00409245
-0.000263019
-0.000244716
0.0041463
2.12372e-05
5.43839e-05
5.38683e-05
0.000115352
8.89209e-05
0.000126407
0.000122902
0.000107343
0.000154878
6.81468e-05
0.000185919
1.54466e-05
0.000215734
-4.42741e-05
0.00024823
-0.000109732
0.000284456
-0.00017793
0.000325743
-0.000246623
0.000372976
-0.000314367
0.000426818
-0.00037998
0.000487693
-0.000442569
0.000555798
-0.000501462
0.000631134
-0.00055615
0.000713543
-0.000606252
0.000802734
-0.000651496
0.000898308
-0.000691702
0.000999775
-0.000726768
0.00110658
-0.000756662
0.00121812
-0.000781415
0.00133375
-0.000801109
0.00145282
-0.000815861
0.00157466
-0.000825803
0.00169857
-0.000831107
0.00182389
-0.000832019
0.00194997
-0.000828838
0.0020762
-0.000821865
0.00220199
-0.000811401
0.00232678
-0.000797761
0.00245008
-0.000781266
0.00257143
-0.000762245
0.00269041
-0.000741025
0.00280666
-0.000717931
0.00291987
-0.000693278
0.00302977
-0.000667374
0.00313615
-0.00064051
0.00323883
-0.000612963
0.0033377
-0.000584994
0.00343266
-0.00055684
0.00352367
-0.000528722
0.00361072
-0.000500838
0.00369383
-0.000473364
0.00377306
-0.000446455
0.00384847
-0.000420245
0.00392017
-0.000394845
0.00398826
-0.000370347
0.00405289
-0.00034682
0.00411418
-0.000324308
-0.00030281
0.00417227
3.88786e-05
1.55053e-05
0.000102876
5.13548e-05
0.000166623
6.26596e-05
0.000224031
4.99353e-05
0.000274892
1.72864e-05
0.000317678
-2.73398e-05
0.000355748
-8.23443e-05
0.000391873
-0.000145857
0.000428199
-0.000214257
0.000466649
-0.000285074
0.00050872
-0.000356438
0.000555581
-0.000426841
0.000608091
-0.00049508
0.000666831
-0.000560202
0.000732135
-0.000621454
0.000804133
-0.000678249
0.000882776
-0.000730139
0.000967868
-0.000776795
0.00105909
-0.000817993
0.00115603
-0.000853601
0.00125819
-0.000883574
0.00136502
-0.000907939
0.00147593
-0.00092677
0.0015903
-0.000940168
0.00170747
-0.000948285
0.00182681
-0.000951353
0.00194765
-0.000949683
0.00206939
-0.000943599
0.00219141
-0.000933426
0.00231316
-0.000919509
0.0024341
-0.000902207
0.00255374
-0.000881889
0.00267165
-0.00085893
0.00278742
-0.000833699
0.0029007
-0.000806563
0.0030112
-0.000777876
0.00311867
-0.00074798
0.00322291
-0.000717199
0.00332375
-0.000685837
0.00342109
-0.000654178
0.00351485
-0.000622482
0.003605
-0.000590983
0.00369153
-0.000559893
0.00377447
-0.000529397
0.00385388
-0.000499653
0.00392983
-0.000470799
0.00400243
-0.000442944
0.00407178
-0.000416174
0.00413802
-0.000390545
0.00420128
-0.000366075
0.00413986
-5.1213e-05
-6.72592e-09
0.00418865
-4.87827e-05
-6.63336e-09
0.00423504
-4.63915e-05
-6.40469e-09
0.0042791
-4.40545e-05
-6.04703e-09
0.00432089
-4.17819e-05
-5.56454e-09
0.00436048
-3.95812e-05
-4.96869e-09
0.00439794
-3.74594e-05
-4.27274e-09
0.00443337
-3.54219e-05
-3.49322e-09
0.00446684
-3.34731e-05
-2.64782e-09
0.00449846
-3.16161e-05
-1.75384e-09
0.00452831
-2.98532e-05
-8.28765e-10
0.0045565
-2.81851e-05
1.10399e-10
0.00458311
-2.66118e-05
1.04681e-09
0.00460824
-2.51321e-05
1.96729e-09
0.00463198
-2.3744e-05
2.86095e-09
0.00465442
-2.24445e-05
3.71889e-09
0.00467565
-2.123e-05
4.53744e-09
0.00469574
-2.0096e-05
5.31579e-09
0.00471477
-1.90375e-05
6.05353e-09
0.00473281
-1.8049e-05
6.75274e-09
0.00474993
-1.71243e-05
7.41724e-09
0.00476618
-1.62567e-05
8.04881e-09
0.00478161
-1.54392e-05
8.64723e-09
0.00479626
-1.46644e-05
9.21119e-09
0.00481018
-1.39251e-05
9.73534e-09
0.00482338
-1.32143e-05
1.02098e-08
0.0048359
-1.25264e-05
1.06225e-08
0.00484774
-1.18569e-05
1.09592e-08
0.00485894
-1.12036e-05
1.12029e-08
0.00486949
-1.0567e-05
1.13374e-08
0.00487943
-9.94966e-06
1.13513e-08
0.00488878
-9.35641e-06
1.12358e-08
0.00489756
-8.7933e-06
1.09874e-08
0.00490581
-8.26651e-06
1.06111e-08
0.00491359
-7.78118e-06
1.01191e-08
0.00492092
-7.34037e-06
9.52662e-09
0.00492785
-6.94448e-06
8.8549e-09
0.00493444
-6.59112e-06
8.12797e-09
0.0049407
-6.27561e-06
7.36763e-09
0.00494669
-5.99178e-06
6.59406e-09
0.00495242
-5.7329e-06
5.82521e-09
0.0049579
-5.49265e-06
5.07533e-09
0.00496316
-5.26567e-06
4.35406e-09
0.00496821
-5.04802e-06
3.67404e-09
0.00497304
-4.83671e-06
3.03791e-09
0.00497767
-4.63064e-06
2.4301e-09
0.0049821
-4.42916e-06
1.87448e-09
0.00498633
-4.23211e-06
1.3594e-09
0.00499037
-4.03971e-06
8.88682e-10
0.00499422
-3.85229e-06
4.59751e-10
0.00499789
-3.67017e-06
7.03462e-11
0.00500138
-3.49358e-06
-2.85104e-10
0.00500471
-3.32268e-06
-6.1458e-10
0.00500787
-3.15753e-06
-9.26543e-10
0.00501086
-2.99814e-06
-1.23044e-09
0.00501371
-2.84444e-06
-1.5369e-09