/*--------------------------------*- C++ -*----------------------------------*\
| =========                 |                                                 |
| \\      /  F ield         | OpenFOAM: The Open Source CFD Toolbox           |
|  \\    /   O peration     | Version:  2412                                  |
|   \\  /    A nd           | Website:  www.openfoam.com                      |
|    \\/     M anipulation  |                                                 |
\*---------------------------------------------------------------------------*/
FoamFile
{
    version     2.0;
    format      ascii;
    arch        "LSB;label=32;scalar=64";
    class       volVectorField;
    location    "21.5";
    object      U;
}
// * * * * * * * * * * * * * * * * * * * * * * * * * * * * * * * * * * * * * //

dimensions      [0 1 -1 0 0 0 0];

internalField   nonuniform List<vector> 
63420
(
(0.0999997 4.36717e-07 0)
(0.099995 1.2996e-06 0)
(0.0999851 2.15142e-06 0)
(0.0999708 2.99428e-06 0)
(0.0999522 3.828e-06 0)
(0.0999295 4.66049e-06 0)
(0.0999028 5.52754e-06 0)
(0.0998721 6.50466e-06 0)
(0.0998366 7.69436e-06 0)
(0.0997953 9.1885e-06 0)
(0.0997468 1.10235e-05 0)
(0.0996897 1.31519e-05 0)
(0.0996232 1.54454e-05 0)
(0.0995475 1.77268e-05 0)
(0.0994632 1.98166e-05 0)
(0.099372 2.15757e-05 0)
(0.0992759 2.29313e-05 0)
(0.0991768 2.3882e-05 0)
(0.0990765 2.4485e-05 0)
(0.0989762 2.48342e-05 0)
(0.098877 2.50371e-05 0)
(0.098779 2.51949e-05 0)
(0.0986823 2.53913e-05 0)
(0.0985866 2.56861e-05 0)
(0.0984914 2.61165e-05 0)
(0.0983963 2.66999e-05 0)
(0.0983007 2.74397e-05 0)
(0.0982041 2.83301e-05 0)
(0.0981061 2.93602e-05 0)
(0.0980064 3.05182e-05 0)
(0.0979047 3.17923e-05 0)
(0.0978008 3.31731e-05 0)
(0.0976943 3.4653e-05 0)
(0.0975853 3.62273e-05 0)
(0.0974735 3.78931e-05 0)
(0.0973589 3.96494e-05 0)
(0.0972413 4.14966e-05 0)
(0.0971206 4.34364e-05 0)
(0.0969967 4.54712e-05 0)
(0.0968696 4.76041e-05 0)
(0.0967392 4.98386e-05 0)
(0.0966053 5.21786e-05 0)
(0.0964679 5.46283e-05 0)
(0.0963269 5.71921e-05 0)
(0.0961821 5.98745e-05 0)
(0.0960336 6.26805e-05 0)
(0.0958811 6.5615e-05 0)
(0.0957247 6.86833e-05 0)
(0.0955641 7.1891e-05 0)
(0.0953994 7.52439e-05 0)
(0.0952304 7.87489e-05 0)
(0.095057 8.24146e-05 0)
(0.0948791 8.62548e-05 0)
(0.0946965 9.02997e-05 0)
(0.0945092 9.46248e-05 0)
(0.0999997 1.30992e-06 0)
(0.099995 3.89789e-06 0)
(0.0999851 6.4528e-06 0)
(0.0999708 8.9809e-06 0)
(0.0999522 1.14818e-05 0)
(0.0999295 1.39792e-05 0)
(0.0999029 1.65797e-05 0)
(0.0998722 1.9509e-05 0)
(0.0998367 2.30731e-05 0)
(0.0997955 2.75467e-05 0)
(0.0997471 3.30393e-05 0)
(0.0996901 3.941e-05 0)
(0.0996238 4.62764e-05 0)
(0.0995482 5.31096e-05 0)
(0.0994642 5.93736e-05 0)
(0.0993732 6.46526e-05 0)
(0.0992772 6.87285e-05 0)
(0.0991783 7.15958e-05 0)
(0.0990781 7.34243e-05 0)
(0.0989779 7.44937e-05 0)
(0.0988787 7.5124e-05 0)
(0.0987808 7.56178e-05 0)
(0.0986841 7.62242e-05 0)
(0.0985884 7.71228e-05 0)
(0.0984932 7.84244e-05 0)
(0.0983981 8.0182e-05 0)
(0.0983025 8.24057e-05 0)
(0.0982059 8.50784e-05 0)
(0.098108 8.81688e-05 0)
(0.0980084 9.16409e-05 0)
(0.0979067 9.54606e-05 0)
(0.0978029 9.95993e-05 0)
(0.0976965 0.000104035 0)
(0.0975876 0.000108753 0)
(0.097476 0.000113745 0)
(0.0973615 0.000119009 0)
(0.097244 0.000124545 0)
(0.0971235 0.000130358 0)
(0.0969999 0.000136456 0)
(0.096873 0.000142847 0)
(0.0967427 0.000149543 0)
(0.0966091 0.000156555 0)
(0.0964719 0.000163895 0)
(0.0963312 0.000171577 0)
(0.0961867 0.000179614 0)
(0.0960384 0.000188021 0)
(0.0958863 0.000196812 0)
(0.0957302 0.000206004 0)
(0.09557 0.000215612 0)
(0.0954057 0.000225655 0)
(0.0952371 0.000236153 0)
(0.0950641 0.00024713 0)
(0.0948867 0.000258629 0)
(0.0947046 0.000270738 0)
(0.0945178 0.000283677 0)
(0.0999997 2.18225e-06 0)
(0.099995 6.49337e-06 0)
(0.0999852 1.07496e-05 0)
(0.0999709 1.49611e-05 0)
(0.0999523 1.91277e-05 0)
(0.0999296 2.32881e-05 0)
(0.099903 2.76193e-05 0)
(0.0998724 3.24948e-05 0)
(0.099837 3.84226e-05 0)
(0.0997959 4.58591e-05 0)
(0.0997476 5.49877e-05 0)
(0.0996909 6.55771e-05 0)
(0.0996249 7.69949e-05 0)
(0.0995497 8.83647e-05 0)
(0.099466 9.87969e-05 0)
(0.0993754 0.0001076 0)
(0.0992798 0.000114409 0)
(0.0991812 0.000119213 0)
(0.0990812 0.000122289 0)
(0.0989813 0.000124102 0)
(0.0988821 0.000125179 0)
(0.0987843 0.000126024 0)
(0.0986876 0.000127051 0)
(0.0985919 0.000128557 0)
(0.0984968 0.000130728 0)
(0.0984017 0.000133654 0)
(0.0983061 0.000137352 0)
(0.0982096 0.000141796 0)
(0.0981118 0.000146933 0)
(0.0980122 0.000152704 0)
(0.0979107 0.000159054 0)
(0.097807 0.000165934 0)
(0.0977009 0.00017331 0)
(0.0975922 0.000181155 0)
(0.0974809 0.000189457 0)
(0.0973667 0.00019821 0)
(0.0972495 0.000207417 0)
(0.0971294 0.000217085 0)
(0.0970061 0.000227227 0)
(0.0968796 0.000237857 0)
(0.0967498 0.000248993 0)
(0.0966166 0.000260654 0)
(0.09648 0.00027286 0)
(0.0963397 0.000285634 0)
(0.0961958 0.000298998 0)
(0.0960482 0.000312975 0)
(0.0958967 0.00032759 0)
(0.0957412 0.00034287 0)
(0.0955818 0.00035884 0)
(0.0954182 0.000375531 0)
(0.0952504 0.000392975 0)
(0.0950783 0.000411214 0)
(0.0949018 0.000430313 0)
(0.0947207 0.000450412 0)
(0.094535 0.000471862 0)
(0.0999997 3.05312e-06 0)
(0.099995 9.08417e-06 0)
(0.0999852 1.50387e-05 0)
(0.0999709 2.09308e-05 0)
(0.0999524 2.67601e-05 0)
(0.0999298 3.25808e-05 0)
(0.0999032 3.86379e-05 0)
(0.0998726 4.54501e-05 0)
(0.0998374 5.3724e-05 0)
(0.0997964 6.40963e-05 0)
(0.0997484 7.68257e-05 0)
(0.0996921 9.15954e-05 0)
(0.0996266 0.000107529 0)
(0.0995519 0.000123411 0)
(0.0994688 0.000138001 0)
(0.0993788 0.000150334 0)
(0.0992837 0.000159898 0)
(0.0991855 0.00016667 0)
(0.0990859 0.000171032 0)
(0.0989862 0.000173624 0)
(0.0988872 0.000175181 0)
(0.0987894 0.000176402 0)
(0.0986928 0.000177863 0)
(0.0985971 0.000179983 0)
(0.098502 0.000183022 0)
(0.0984069 0.000187107 0)
(0.0983114 0.000192265 0)
(0.098215 0.000198459 0)
(0.0981173 0.00020562 0)
(0.098018 0.000213666 0)
(0.0979167 0.00022252 0)
(0.0978133 0.000232116 0)
(0.0977075 0.000242404 0)
(0.0975992 0.00025335 0)
(0.0974882 0.000264934 0)
(0.0973744 0.000277149 0)
(0.0972578 0.000289997 0)
(0.0971381 0.00030349 0)
(0.0970154 0.000317644 0)
(0.0968895 0.000332479 0)
(0.0967604 0.000348019 0)
(0.0966279 0.000364292 0)
(0.096492 0.000381324 0)
(0.0963525 0.000399147 0)
(0.0962095 0.000417791 0)
(0.0960627 0.000437288 0)
(0.0959121 0.000457673 0)
(0.0957577 0.000478982 0)
(0.0955993 0.000501251 0)
(0.0954369 0.00052452 0)
(0.0952703 0.000548834 0)
(0.0950995 0.000574248 0)
(0.0949244 0.00060085 0)
(0.0947448 0.000628817 0)
(0.0945606 0.000658602 0)
(0.0999997 3.92203e-06 0)
(0.0999951 1.16684e-05 0)
(0.0999852 1.93173e-05 0)
(0.099971 2.68855e-05 0)
(0.0999525 3.43738e-05 0)
(0.09993 4.18507e-05 0)
(0.0999035 4.96272e-05 0)
(0.099873 5.83632e-05 0)
(0.0998379 6.89593e-05 0)
(0.0997972 8.22308e-05 0)
(0.0997495 9.85134e-05 0)
(0.0996936 0.000117411 0)
(0.0996287 0.000137814 0)
(0.0995547 0.000158173 0)
(0.0994724 0.000176907 0)
(0.0993831 0.000192779 0)
(0.0992887 0.000205125 0)
(0.0991911 0.000213907 0)
(0.0990919 0.000219604 0)
(0.0989925 0.000223026 0)
(0.0988938 0.000225106 0)
(0.0987961 0.000226736 0)
(0.0986996 0.000228653 0)
(0.098604 0.000231395 0)
(0.0985089 0.000235298 0)
(0.0984139 0.000240528 0)
(0.0983185 0.000247124 0)
(0.0982222 0.000255042 0)
(0.0981247 0.000264196 0)
(0.0980256 0.000274484 0)
(0.0979246 0.000285807 0)
(0.0978215 0.000298083 0)
(0.0977162 0.000311246 0)
(0.0976083 0.000325254 0)
(0.0974979 0.000340082 0)
(0.0973847 0.000355719 0)
(0.0972687 0.000372168 0)
(0.0971498 0.000389444 0)
(0.0970278 0.000407565 0)
(0.0969027 0.000426559 0)
(0.0967744 0.000446455 0)
(0.0966429 0.000467287 0)
(0.0965079 0.000489089 0)
(0.0963695 0.000511901 0)
(0.0962276 0.00053576 0)
(0.096082 0.000560709 0)
(0.0959327 0.000586789 0)
(0.0957796 0.000614045 0)
(0.0956226 0.000642524 0)
(0.0954617 0.000672276 0)
(0.0952967 0.000703354 0)
(0.0951276 0.000735827 0)
(0.0949543 0.000769795 0)
(0.0947767 0.000805462 0)
(0.0945946 0.000843336 0)
(0.0999997 4.78859e-06 0)
(0.0999951 1.42441e-05 0)
(0.0999853 2.35823e-05 0)
(0.0999711 3.28213e-05 0)
(0.0999527 4.19637e-05 0)
(0.0999302 5.10915e-05 0)
(0.0999038 6.05792e-05 0)
(0.0998735 7.12227e-05 0)
(0.0998386 8.41118e-05 0)
(0.0997981 0.000100237 0)
(0.0997508 0.000120015 0)
(0.0996955 0.000142976 0)
(0.0996313 0.000167788 0)
(0.0995582 0.000192583 0)
(0.0994767 0.000215443 0)
(0.0993883 0.000234862 0)
(0.0992947 0.000250025 0)
(0.0991978 0.000260869 0)
(0.0990992 0.000267961 0)
(0.0990002 0.000272272 0)
(0.0989018 0.000274928 0)
(0.0988043 0.000277006 0)
(0.0987079 0.000279405 0)
(0.0986123 0.000282778 0)
(0.0985173 0.000287541 0)
(0.0984224 0.000293899 0)
(0.0983271 0.000301907 0)
(0.098231 0.000311516 0)
(0.0981338 0.000322625 0)
(0.098035 0.000335112 0)
(0.0979344 0.00034886 0)
(0.0978318 0.000363769 0)
(0.0977269 0.000379761 0)
(0.0976197 0.000396784 0)
(0.0975099 0.000414807 0)
(0.0973975 0.000433816 0)
(0.0972823 0.000453815 0)
(0.0971642 0.00047482 0)
(0.0970432 0.000496853 0)
(0.0969191 0.000519947 0)
(0.0967919 0.000544136 0)
(0.0966615 0.00056946 0)
(0.0965277 0.000595962 0)
(0.0963906 0.000623686 0)
(0.0962501 0.000652679 0)
(0.0961059 0.000682991 0)
(0.0959582 0.000714671 0)
(0.0958068 0.000747772 0)
(0.0956515 0.00078235 0)
(0.0954925 0.000818461 0)
(0.0953295 0.000856171 0)
(0.0951625 0.000895554 0)
(0.0949914 0.000936718 0)
(0.0948162 0.000979871 0)
(0.0946367 0.00102552 0)
(0.0999997 5.65209e-06 0)
(0.0999951 1.68101e-05 0)
(0.0999854 2.78308e-05 0)
(0.0999712 3.87342e-05 0)
(0.0999529 4.95244e-05 0)
(0.0999305 6.02969e-05 0)
(0.0999042 7.14859e-05 0)
(0.099874 8.40181e-05 0)
(0.0998393 9.91662e-05 0)
(0.0997992 0.000118093 0)
(0.0997524 0.000141298 0)
(0.0996977 0.000168249 0)
(0.0996343 0.000197402 0)
(0.0995621 0.000226582 0)
(0.0994817 0.000253547 0)
(0.0993943 0.000276523 0)
(0.0993017 0.00029454 0)
(0.0992055 0.000307504 0)
(0.0991076 0.000316059 0)
(0.0990091 0.000321327 0)
(0.098911 0.000324619 0)
(0.0988138 0.000327192 0)
(0.0987175 0.000330099 0)
(0.0986221 0.000334115 0)
(0.0985271 0.000339731 0)
(0.0984324 0.000347198 0)
(0.0983372 0.000356586 0)
(0.0982414 0.000367846 0)
(0.0981445 0.000380863 0)
(0.0980461 0.0003955 0)
(0.097946 0.000411621 0)
(0.0978439 0.000429109 0)
(0.0977397 0.000447875 0)
(0.0976332 0.000467856 0)
(0.0975242 0.000489015 0)
(0.0974127 0.000511337 0)
(0.0972984 0.000534825 0)
(0.0971814 0.000559494 0)
(0.0970615 0.000585372 0)
(0.0969386 0.000612494 0)
(0.0968127 0.000640901 0)
(0.0966836 0.000670637 0)
(0.0965513 0.000701753 0)
(0.0964158 0.000734298 0)
(0.0962768 0.000768326 0)
(0.0961345 0.000803895 0)
(0.0959886 0.00084106 0)
(0.0958391 0.000879883 0)
(0.095686 0.000920426 0)
(0.0955291 0.000962753 0)
(0.0953684 0.00100694 0)
(0.0952039 0.00105305 0)
(0.0950355 0.00110121 0)
(0.0948631 0.00115159 0)
(0.0946868 0.00120461 0)
(0.0943159 9.9449e-05 -4.48327e-24)
(0.0941148 0.000104541 -4.57108e-24)
(0.0939038 0.000109989 -3.17341e-26)
(0.0936824 0.000115807 1.40473e-23)
(0.0934499 0.000122021 -4.65301e-24)
(0.0932055 0.000128668 -4.78981e-24)
(0.0929484 0.000135787 -1.47514e-23)
(0.0926777 0.000143423 1.46467e-23)
(0.0923924 0.000151623 5.01269e-24)
(0.0920915 0.000160443 0)
(0.0917738 0.000169942 5.17999e-24)
(0.091438 0.000180189 -5.26999e-24)
(0.0910827 0.00019126 4.33604e-23)
(0.0907063 0.000203241 -9.29358e-23)
(0.0903072 0.000216227 4.9679e-23)
(0.0898834 0.000230329 4.0269e-23)
(0.0894329 0.000245668 5.16731e-23)
(0.0889532 0.000262384 -5.91867e-24)
(0.0884418 0.000280638 6.04852e-24)
(0.0878959 0.000300612 -6.18582e-24)
(0.0873121 0.000322514 0)
(0.0866868 0.000346587 6.48516e-24)
(0.0860158 0.00037311 -6.64852e-24)
(0.0852947 0.000402409 0)
(0.084518 0.000434868 -7.00639e-24)
(0.0836798 0.000470937 0)
(0.0827732 0.00051115 -7.41177e-24)
(0.0817904 0.000556145 -1.24215e-22)
(0.0807223 0.000606686 1.31899e-22)
(0.0795581 0.000663696 -1.32406e-22)
(0.0782856 0.000728291 1.32204e-22)
(0.0768902 0.000801836 0)
(0.0753547 0.000885996 0)
(0.0736586 0.000982817 1.62013e-22)
(0.0717776 0.0010948 -1.52437e-22)
(0.0696825 0.00122498 0)
(0.067338 0.00137699 0)
(0.0647024 0.00155505 0)
(0.0617256 0.00176383 0)
(0.0583496 0.00200796 0)
(0.0545081 0.00229117 0)
(0.0501303 0.00261443 0)
(0.0451468 0.00297306 0)
(0.039503 0.00335195 0)
(0.0331834 0.00371849 -1.49336e-23)
(0.0262508 0.00401242 -5.1232e-22)
(0.0188886 0.00413359 5.11551e-22)
(0.0114739 0.00392897 5.55636e-22)
(0.00491213 0.00316357 -5.54802e-22)
(0.00100133 0.00147057 0)
(0.0943249 0.00029811 -4.53596e-24)
(0.094124 0.000313382 -9.2529e-24)
(0.0939132 0.000329686 -4.85174e-24)
(0.0936921 0.000347093 4.5175e-24)
(0.0934599 0.000365693 -4.71813e-24)
(0.0932158 0.000385591 3.38176e-23)
(0.0929591 0.000406906 -5.31107e-23)
(0.0926888 0.000429767 4.93372e-24)
(0.092404 0.000454321 6.5865e-23)
(0.0921036 0.00048073 -9.09667e-23)
(0.0917865 0.000509177 -8.88558e-23)
(0.0914514 0.000539865 7.82967e-23)
(0.0910968 0.000573023 0)
(0.0907214 0.000608908 5.46954e-24)
(0.0903232 0.000647808 -1.67177e-23)
(0.0899005 0.000690049 -1.89629e-22)
(0.0894512 0.000736001 1.8202e-22)
(0.0889729 0.000786082 -1.93493e-22)
(0.0884631 0.000840772 -1.81718e-23)
(0.0879189 0.000900618 6.19939e-24)
(0.0873371 0.000966247 0)
(0.086714 0.00103838 -6.50197e-24)
(0.0860457 0.00111787 -2.09562e-22)
(0.0853275 0.00120567 4.37954e-22)
(0.0845543 0.00130295 2.41642e-22)
(0.0837201 0.00141105 -4.5572e-22)
(0.0828182 0.00153157 4.90827e-22)
(0.0818408 0.00166643 -4.98051e-22)
(0.0807791 0.0018179 -7.90431e-24)
(0.0796226 0.00198874 0)
(0.0783592 0.00218229 0)
(0.0769749 0.00240263 0)
(0.0754529 0.00265471 0)
(0.0737735 0.00294462 -9.38996e-24)
(0.0719132 0.0032798 -6.36664e-22)
(0.069844 0.00366924 -2.68238e-23)
(0.0675325 0.00412371 6.61763e-22)
(0.0649386 0.00465566 7.2043e-22)
(0.0620152 0.00527879 -7.19475e-22)
(0.0587071 0.00600666 -2.38866e-23)
(0.0549516 0.00684989 -2.49443e-23)
(0.0506811 0.00781088 -8.59684e-22)
(0.0458283 0.00887494 8.31373e-22)
(0.0403375 0.00999626 -2.83093e-23)
(0.0341855 0.011077 1.5038e-23)
(0.0274153 0.0119373 -1.04177e-21)
(0.020174 0.012279 1.04138e-21)
(0.0127764 0.0116475 -2.17249e-21)
(0.00600537 0.00935395 2.13616e-21)
(0.00144547 0.00431677 -2.18865e-21)
(0.0943429 0.000495779 -2.68305e-23)
(0.0941423 0.000521161 -9.41837e-24)
(0.0939321 0.000548225 3.63206e-23)
(0.0937114 0.000577117 -7.47321e-23)
(0.0934798 0.000607993 1.59922e-22)
(0.0932364 0.000641028 -7.57629e-23)
(0.0929804 0.000676417 1.41803e-26)
(0.092711 0.000714378 9.84004e-24)
(0.0924272 0.000755153 1.71611e-22)
(0.092128 0.000799015 -1.61428e-22)
(0.0918121 0.000846268 0)
(0.0914784 0.000897249 1.4579e-26)
(0.0911255 0.000952341 0)
(0.0907517 0.00101197 1.87886e-22)
(0.0903556 0.00107662 -1.65614e-22)
(0.0899351 0.00114683 -3.57128e-22)
(0.0894883 0.00122321 1.98807e-23)
(0.0890128 0.00130647 -3.76065e-22)
(0.0885062 0.00139739 1.21593e-23)
(0.0879656 0.0014969 -4.02926e-22)
(0.0873879 0.00160604 4.1527e-22)
(0.0867696 0.00172601 -4.23245e-22)
(0.0861066 0.00185821 4.36221e-22)
(0.0853945 0.00200427 1.3731e-23)
(0.0846283 0.00216609 -1.41084e-23)
(0.0838023 0.00234592 1.45094e-23)
(0.0829099 0.00254642 -4.86057e-22)
(0.0819437 0.00277076 5.01021e-22)
(0.0808951 0.00302272 5.33136e-22)
(0.0797542 0.00330687 -5.16774e-22)
(0.0785096 0.00362873 0)
(0.0771478 0.003995 0)
(0.0756533 0.00441386 1.81577e-23)
(0.0740077 0.00489528 1.25113e-21)
(0.0721895 0.00545142 2.9892e-23)
(0.0701729 0.00609694 -1.25905e-21)
(0.0679278 0.00684927 0)
(0.0654183 0.00772849 -2.19915e-23)
(0.0626024 0.00875642 1.53114e-21)
(0.0594311 0.00995435 -3.0563e-21)
(0.0558486 0.0113383 3.23919e-21)
(0.0517936 0.0129103 9.70875e-23)
(0.0472031 0.0146437 -1.68227e-21)
(0.042019 0.0164607 -1.81993e-21)
(0.0362024 0.0181983 1.87559e-21)
(0.029756 0.019561 1.4484e-24)
(0.0227527 0.0200592 -3.18689e-23)
(0.0153843 0.0189469 2.09917e-21)
(0.00817467 0.0151276 -2.0327e-21)
(0.00229894 0.00691603 -2.03324e-21)
(0.0943698 0.000691774 1.76772e-23)
(0.0941698 0.000727099 -8.97178e-24)
(0.0939602 0.000764759 1.94888e-26)
(0.0937404 0.000804957 9.23406e-24)
(0.0935097 0.000847915 -1.95964e-26)
(0.0932674 0.000893879 1.53456e-22)
(0.0930126 0.000943122 -2.89995e-22)
(0.0927446 0.000995952 1.55865e-22)
(0.0924624 0.00105271 -9.98053e-24)
(0.0921649 0.00111377 1.84507e-22)
(0.091851 0.00117956 -1.64119e-22)
(0.0915195 0.00125056 -3.40689e-22)
(0.0911691 0.00132729 6.87949e-22)
(0.0907981 0.00141035 -7.01602e-22)
(0.0904051 0.00150042 7.15916e-22)
(0.0899881 0.00159825 -7.19595e-22)
(0.0895452 0.0017047 -3.80982e-22)
(0.0890742 0.00182075 2.25071e-26)
(0.0885726 0.00194751 0)
(0.0880377 0.00208625 -3.92374e-22)
(0.0874664 0.00223843 4.0469e-22)
(0.0868553 0.00240574 0)
(0.0862007 0.00259013 -8.74243e-22)
(0.0854982 0.00279386 8.60057e-22)
(0.0847431 0.0030196 1.42426e-23)
(0.0839299 0.00327047 -3.70722e-26)
(0.0830524 0.00355019 1.50546e-23)
(0.0821036 0.00386315 0)
(0.0810754 0.0042146 -5.31546e-26)
(0.0799589 0.00461088 0)
(0.0787433 0.00505961 -1.70914e-23)
(0.0774165 0.00557002 1.15567e-21)
(0.0759645 0.00615333 -1.15536e-21)
(0.0743711 0.00682318 -1.91099e-23)
(0.0726174 0.00759609 3.95509e-23)
(0.0706815 0.00849188 -1.36317e-21)
(0.0685378 0.00953394 1.32079e-21)
(0.0661567 0.0107489 2.23718e-23)
(0.063504 0.0121653 -3.56064e-25)
(0.0605397 0.0138103 2.38517e-23)
(0.0572185 0.0157029 -1.63722e-21)
(0.0534887 0.0178418 3.30915e-21)
(0.0492932 0.0201858 -1.72475e-21)
(0.0445706 0.0226232 1.78266e-21)
(0.0392586 0.0249272 -1.86623e-21)
(0.0332987 0.0266947 -3.7066e-21)
(0.0266475 0.0272621 7.56173e-21)
(0.0193121 0.0256089 -3.82801e-21)
(0.011465 0.0202687 0)
(0.00356668 0.00915713 -3.60036e-21)
(0.0944054 0.000885439 -8.76751e-24)
(0.0942062 0.000930491 -3.5823e-23)
(0.0939976 0.000978507 1.08609e-22)
(0.0937789 0.00102975 -1.46672e-22)
(0.0935496 0.00108452 6.46032e-23)
(0.0933088 0.00114313 9.47623e-24)
(0.0930558 0.00120593 -9.63622e-24)
(0.0927898 0.00127331 -2.46165e-26)
(0.0925098 0.00134571 9.97862e-24)
(0.0922148 0.00142363 -2.02994e-23)
(0.0919038 0.00150759 -3.34114e-22)
(0.0915754 0.00159821 3.4482e-22)
(0.0912285 0.00169617 -3.36903e-22)
(0.0908615 0.00180223 3.47778e-22)
(0.0904729 0.00191725 0)
(0.0900608 0.0020422 -2.48201e-26)
(0.0896235 0.00217817 0)
(0.0891588 0.00232642 -3.76056e-22)
(0.0886642 0.00248838 4.00491e-22)
(0.0881373 0.00266566 -1.25891e-23)
(0.0875751 0.00286014 -8.48815e-22)
(0.0869743 0.00307397 8.36286e-22)
(0.0863315 0.00330964 -1.36064e-23)
(0.0856425 0.00357006 0)
(0.084903 0.00385861 0)
(0.0841078 0.0041793 -9.75918e-22)
(0.0832512 0.00453682 9.46269e-22)
(0.0823269 0.00493679 0)
(0.0813276 0.00538585 -3.24755e-23)
(0.0802451 0.00589201 0)
(0.0790701 0.00646488 1.73914e-23)
(0.0777922 0.00711602 -1.79225e-23)
(0.0763994 0.00785946 -1.86682e-23)
(0.0748783 0.00871211 1.92391e-23)
(0.0732137 0.00969432 1.26601e-21)
(0.0713885 0.0108303 -1.30666e-21)
(0.0693837 0.0121484 2.84003e-21)
(0.0671776 0.0136803 -2.84185e-21)
(0.0647462 0.0154593 3.01565e-21)
(0.062062 0.0175159 8.60715e-23)
(0.0590928 0.0198691 -3.17718e-21)
(0.0558002 0.0225114 -2.53646e-23)
(0.0521352 0.0253844 1.25748e-24)
(0.0480331 0.0283422 1.66358e-24)
(0.0434026 0.0310994 2.19414e-24)
(0.0381089 0.0331599 -5.48449e-23)
(0.0319526 0.0337182 -2.51703e-23)
(0.0246819 0.0315192 -2.39383e-23)
(0.0160111 0.0247418 0)
(0.00527231 0.0110332 7.43045e-24)
(0.0944495 0.00107616 -4.35083e-23)
(0.0942514 0.00113071 2.61718e-23)
(0.0940442 0.00118886 8.95721e-24)
(0.0938271 0.00125095 1.3753e-22)
(0.0935997 0.00131732 -1.37581e-22)
(0.093361 0.00138837 1.42383e-22)
(0.0931105 0.00146454 -3.16079e-22)
(0.0928472 0.00154629 4.50084e-22)
(0.0925702 0.00163417 -3.15281e-22)
(0.0922787 0.00172877 -3.27169e-22)
(0.0919714 0.00183074 -1.64783e-23)
(0.0916473 0.00194083 6.64553e-22)
(0.0913051 0.00205987 -7.00117e-22)
(0.0909434 0.00218879 3.26572e-22)
(0.0905606 0.00232863 3.52555e-22)
(0.0901553 0.00248058 3.68681e-22)
(0.0897254 0.00264598 -2.85144e-23)
(0.089269 0.00282635 7.51401e-22)
(0.0887839 0.00302345 7.76211e-22)
(0.0882677 0.00323925 1.97323e-23)
(0.0877176 0.00347603 -8.23034e-22)
(0.0871306 0.00373642 0)
(0.0865036 0.00402347 0)
(0.0858327 0.00434069 -9.18002e-22)
(0.085114 0.00469225 9.04817e-22)
(0.0843428 0.00508297 9.74941e-22)
(0.0835142 0.00551859 -9.76386e-22)
(0.0826226 0.00600588 0)
(0.0816616 0.00655288 1.09035e-21)
(0.0806244 0.0071692 -1.09245e-21)
(0.0795034 0.00786633 0)
(0.07829 0.00865802 -2.36455e-21)
(0.0769751 0.00956079 2.38645e-21)
(0.0755487 0.0105943 -1.97245e-23)
(0.0740003 0.0117821 -2.63817e-21)
(0.0723188 0.0131515 2.66265e-21)
(0.0704929 0.0147339 0)
(0.0685111 0.0165633 2.98801e-21)
(0.0663619 0.0186741 -2.96958e-21)
(0.0640331 0.0210946 2.40558e-23)
(0.0615096 0.0238371 3.27514e-21)
(0.0587696 0.0268797 -6.56993e-21)
(0.0557765 0.0301387 1.98627e-23)
(0.0524646 0.0334288 3.72679e-23)
(0.0487155 0.0364082 3.40589e-21)
(0.0443148 0.038508 3.78663e-24)
(0.0388909 0.0388299 -2.92472e-21)
(0.0318608 0.0359826 2.99828e-21)
(0.0222492 0.0279494 0)
(0.00766218 0.012255 2.67637e-23)
(0.094502 0.00126311 8.56816e-24)
(0.0943056 0.00132663 7.89514e-23)
(0.0941003 0.00139442 -7.04085e-23)
(0.0938856 0.00146687 9.04078e-24)
(0.0936607 0.00154439 1.39005e-22)
(0.093425 0.00162743 -1.39224e-22)
(0.0931777 0.00171652 -2.98372e-22)
(0.092918 0.0018122 4.41384e-24)
(0.0926452 0.00191512 -5.59907e-24)
(0.0923581 0.00202597 3.31485e-22)
(0.0920559 0.00214553 -3.23891e-22)
(0.0917374 0.00227469 6.87345e-22)
(0.0914014 0.00241443 -3.42517e-22)
(0.0910467 0.00256585 1.10742e-23)
(0.0906717 0.0027302 1.13345e-23)
(0.0902751 0.00290889 7.49923e-22)
(0.089855 0.00310352 -5.02525e-24)
(0.0894097 0.0033159 7.82942e-22)
(0.088937 0.00354812 1.2517e-23)
(0.0884349 0.00380253 0)
(0.0879008 0.00408187 0)
(0.0873321 0.00438925 -8.79359e-22)
(0.0867258 0.00472831 8.81581e-22)
(0.0860788 0.00510327 0)
(0.0853876 0.00551905 1.48369e-23)
(0.0846482 0.00598145 0)
(0.0838565 0.00649726 -1.02487e-21)
(0.0830079 0.00707453 2.08664e-21)
(0.0820974 0.00772277 -1.06185e-21)
(0.0811197 0.0084533 -2.25049e-21)
(0.0800691 0.00927958 -7.55131e-23)
(0.0789398 0.0102176 -7.96298e-23)
(0.0777257 0.0112864 -8.36463e-23)
(0.076421 0.0125082 2.53003e-21)
(0.0750205 0.0139092 2.71412e-21)
(0.0735198 0.0155191 -2.72058e-21)
(0.0719161 0.0173702 0)
(0.070209 0.0194961 3.0093e-21)
(0.0684004 0.0219262 -3.0163e-21)
(0.0664941 0.0246787 -3.20159e-21)
(0.0644936 0.0277462 3.18395e-21)
(0.0623959 0.0310744 2.60208e-23)
(0.0601797 0.0345322 3.19769e-21)
(0.0577855 0.0378697 -1.05082e-22)
(0.0550804 0.0406685 -3.15852e-21)
(0.0517962 0.0422897 2.41028e-23)
(0.0474397 0.0418108 0)
(0.0411808 0.0378991 -1.92096e-23)
(0.0312032 0.0287424 -9.1691e-22)
(0.0123443 0.0121923 4.22911e-22)
(-0.000224386 0.000302608 0)
(-0.000969892 0.000570275 3.19137e-22)
(-0.00206739 0.000626827 -3.19617e-22)
(-0.00315563 0.000566518 -3.17953e-22)
(-0.00405871 0.000441433 3.18431e-22)
(-0.00470247 0.000282719 -9.78221e-24)
(-0.00504816 0.00010966 0)
(-0.00508113 -6.5886e-05 0)
(-0.00480498 -0.000238725 0)
(-0.00422871 -0.000404449 0)
(-0.00336484 -0.000559931 0)
(-0.00223071 -0.000704428 0)
(-0.000845293 -0.000837161 0)
(0.000771782 -0.000957651 0)
(0.00259999 -0.00106608 0)
(0.00461826 -0.00116242 9.45564e-23)
(0.0068061 -0.00124682 -8.8987e-23)
(0.00914301 -0.00131956 0)
(0.0116088 -0.00138097 0)
(0.0141838 -0.00143148 -6.55759e-23)
(0.016849 -0.00147154 6.56761e-23)
(0.0195861 -0.0015016 -4.87001e-23)
(0.0223772 -0.00152213 3.08904e-24)
(0.0252056 -0.00153363 0)
(0.028055 -0.00153666 2.34764e-24)
(0.0309105 -0.0015319 0)
(0.0337579 -0.00152001 0)
(0.0365845 -0.00150163 0)
(0.0393784 -0.00147739 1.14893e-24)
(0.0421289 -0.00144793 0)
(0.0448265 -0.00141387 -6.9555e-25)
(0.0474627 -0.00137582 5.03727e-25)
(0.05003 -0.00133437 -3.33857e-25)
(0.0525222 -0.00129011 1.05195e-24)
(0.054934 -0.00124358 -9.23652e-25)
(0.057261 -0.0011953 8.51002e-25)
(0.0594999 -0.00114576 -2.35638e-24)
(0.0616483 -0.00109543 1.60137e-24)
(0.0637045 -0.00104471 2.97071e-25)
(0.0656678 -0.000994001 -3.50722e-25)
(0.0675379 -0.000943652 0)
(0.0693154 -0.000893974 -4.26385e-25)
(0.0710015 -0.000845244 2.30741e-24)
(0.0725977 -0.000797701 -2.32748e-24)
(0.0741062 -0.000751549 4.78924e-25)
(0.0755295 -0.000706957 -1.46092e-24)
(0.0768703 -0.000664063 4.92652e-25)
(0.0781317 -0.000622966 9.64954e-25)
(0.0793168 -0.000583735 -4.83109e-25)
(0.0804292 -0.000546402 4.6842e-25)
(-0.000290248 0.000869838 -1.2116e-21)
(-0.00107828 0.00163307 -1.32442e-21)
(-0.00207481 0.00179432 1.30549e-21)
(-0.00300634 0.0016185 -6.25692e-22)
(-0.00373993 0.00125416 6.26797e-22)
(-0.00422026 0.000791414 9.85008e-24)
(-0.00441791 0.000285944 -1.94717e-23)
(-0.00432411 -0.000227238 -6.11512e-22)
(-0.00394352 -0.000733338 5.93347e-22)
(-0.00328203 -0.00122067 -1.76745e-23)
(-0.00235158 -0.00167768 -1.69378e-23)
(-0.00116839 -0.00210332 4.9903e-22)
(0.000251189 -0.0024949 -4.99693e-22)
(0.00188901 -0.00285117 -4.42958e-22)
(0.00372622 -0.00317217 2.98546e-23)
(0.00574364 -0.00345776 4.14244e-22)
(0.00792208 -0.00370833 -5.74128e-24)
(0.0102423 -0.00392459 -1.07276e-23)
(0.0126853 -0.00410745 0)
(0.0152325 -0.00425808 0)
(0.0178658 -0.00437777 0)
(0.0205676 -0.00446787 -3.50507e-24)
(0.023321 -0.00452972 1.78158e-22)
(0.0261094 -0.00456475 -1.93436e-22)
(0.0289178 -0.00457469 1.38917e-22)
(0.0317314 -0.0045614 -8.12765e-23)
(0.0345366 -0.00452685 -1.10784e-22)
(0.0373209 -0.00447294 5.05856e-23)
(0.0400729 -0.00440156 -1.15188e-24)
(0.0427822 -0.00431457 -1.92277e-24)
(0.0454394 -0.00421381 6.97066e-25)
(0.0480363 -0.0041011 -1.59799e-24)
(0.0505657 -0.00397822 8.29427e-24)
(0.0530212 -0.00384686 -1.31113e-23)
(0.0553979 -0.00370867 4.09372e-24)
(0.0576913 -0.0035652 1.09687e-25)
(0.0598983 -0.00341792 -1.51504e-25)
(0.0620164 -0.00326819 0)
(0.064044 -0.00311728 5.31574e-24)
(0.0659803 -0.00296635 -4.72008e-24)
(0.0678252 -0.00281643 -5.70807e-24)
(0.0695791 -0.00266847 7.71068e-24)
(0.0712432 -0.0025233 -4.50791e-25)
(0.072819 -0.00238163 -2.37176e-24)
(0.0743085 -0.00224407 4.20498e-24)
(0.0757142 -0.00211114 4.83998e-25)
(0.0770388 -0.00198324 3.35238e-24)
(0.0782853 -0.00186068 4.43861e-25)
(0.0794569 -0.00174365 -9.67646e-25)
(0.0805567 -0.00163224 -1.40637e-24)
(-0.00040546 0.00132872 -1.25894e-21)
(-0.00125515 0.00246548 1.37973e-21)
(-0.00203864 0.00271138 -1.33852e-21)
(-0.00266118 0.00243525 -2.08086e-23)
(-0.00306683 0.00186421 -3.9056e-25)
(-0.00323415 0.00113767 -1.26504e-21)
(-0.00314943 0.00034135 1.30653e-21)
(-0.00281447 -0.00046982 1.23548e-21)
(-0.002238 -0.00127363 -2.42449e-23)
(-0.00141703 -0.00205436 -2.28566e-21)
(-0.00036149 -0.00278538 2.2245e-21)
(0.000912297 -0.00346907 -1.06258e-21)
(0.00239393 -0.00410093 -1.57613e-23)
(0.00406837 -0.00467821 0)
(0.00592016 -0.00519976 8.65292e-22)
(0.00793333 -0.00566515 -7.41755e-23)
(0.0100914 -0.00607471 -7.79679e-22)
(0.0123775 -0.00642925 2.19395e-23)
(0.0147749 -0.00673003 0)
(0.017267 -0.00697868 0)
(0.0198374 -0.00717714 2.48134e-22)
(0.0224702 -0.00732747 -2.40895e-22)
(0.0251496 -0.00743172 -1.88815e-22)
(0.0278609 -0.00749224 2.01014e-22)
(0.0305892 -0.00751151 5.09785e-24)
(0.0333215 -0.00749267 -4.39687e-24)
(0.0360448 -0.00743878 3.74503e-24)
(0.0387474 -0.00735296 -8.52226e-23)
(0.0414183 -0.00723826 8.84497e-23)
(0.0440479 -0.00709768 -5.27135e-23)
(0.0466271 -0.00693426 5.679e-23)
(0.0491482 -0.00675096 1.09758e-24)
(0.0516041 -0.00655067 2.04988e-23)
(0.0539889 -0.00633622 -3.14249e-23)
(0.0562977 -0.00611029 1.15261e-23)
(0.0585264 -0.00587545 -1.86251e-24)
(0.0606717 -0.00563412 1.65132e-24)
(0.0627313 -0.00538857 0)
(0.0647037 -0.0051409 -7.4306e-26)
(0.066588 -0.00489301 0)
(0.068384 -0.00464665 -1.22151e-23)
(0.0700923 -0.00440339 1.13467e-23)
(0.0717137 -0.00416459 -8.19015e-25)
(0.0732499 -0.00393145 -4.62419e-26)
(0.0747027 -0.003705 -7.40212e-24)
(0.0760745 -0.00348609 1.38996e-23)
(0.0773678 -0.0032754 -7.47906e-24)
(0.0785854 -0.00307345 3.66764e-24)
(0.0797305 -0.00288055 -2.78034e-24)
(0.080806 -0.00269681 -9.36575e-25)
(-0.000539201 0.00159096 -2.72162e-21)
(-0.00141229 0.00293856 0)
(-0.00184397 0.00324287 2.81975e-21)
(-0.00201859 0.00288829 -5.63632e-21)
(-0.00196064 0.00216316 2.8378e-21)
(-0.00169307 0.00124052 1.29493e-21)
(-0.00122041 0.000227477 -1.3587e-21)
(-0.000556773 -0.000828369 1.26308e-21)
(0.00028084 -0.00188229 -2.50154e-21)
(0.00131457 -0.00289919 1.2192e-21)
(0.00253866 -0.00386495 1.81125e-23)
(0.00392972 -0.00477462 3.7062e-25)
(0.00548878 -0.00561919 1.60323e-23)
(0.00720666 -0.0063944 -9.63284e-22)
(0.00907204 -0.0070979 9.3397e-22)
(0.011073 -0.00772851 2.67969e-23)
(0.0131967 -0.00828597 -1.22386e-23)
(0.0154299 -0.00877079 7.01178e-22)
(0.0177589 -0.00918413 -7.01061e-22)
(0.0201696 -0.00952774 -9.72401e-24)
(0.0226482 -0.00980383 0)
(0.025181 -0.0100149 3.36539e-25)
(0.0277543 -0.0101636 0)
(0.0303543 -0.0102526 6.21817e-24)
(0.0329687 -0.0102854 2.9411e-25)
(0.0355849 -0.0102658 4.43847e-24)
(0.0381917 -0.010198 -2.3318e-22)
(0.0407779 -0.0100862 2.2973e-22)
(0.0433339 -0.00993436 0)
(0.0458503 -0.00974661 -6.27424e-23)
(0.0483191 -0.00952704 6.48283e-23)
(0.0507327 -0.00927968 0)
(0.0530846 -0.00900852 -1.70701e-25)
(0.0553693 -0.00871739 -1.61707e-23)
(0.0575821 -0.00841001 2.32146e-23)
(0.059719 -0.00808994 -7.08515e-24)
(0.0617769 -0.0077605 -6.23415e-24)
(0.0637537 -0.00742486 1.77303e-23)
(0.0656478 -0.00708591 -1.15664e-23)
(0.0674583 -0.00674633 -9.63982e-24)
(0.0691851 -0.00640854 8.35103e-24)
(0.0708285 -0.00607473 6.85756e-25)
(0.0723894 -0.00574682 1.30279e-23)
(0.0738693 -0.00542649 -2.81645e-23)
(0.0752699 -0.00511517 1.34937e-23)
(0.0765932 -0.00481407 5.18849e-26)
(0.0778419 -0.00452415 -9.09237e-25)
(0.0790184 -0.00424612 -4.26189e-26)
(0.0801257 -0.00398045 8.99754e-25)
(0.0811666 -0.00372719 -1.73769e-24)
(-0.000596003 0.00158102 -1.68264e-24)
(-0.00134957 0.00297471 -2.53991e-23)
(-0.00130072 0.00329947 -2.46036e-23)
(-0.000911595 0.00290086 -2.38835e-23)
(-0.000288784 0.00209045 -4.57959e-23)
(0.000498232 0.00105424 -5.42747e-25)
(0.00140841 -0.000101134 2.14605e-23)
(0.00243418 -0.00132455 -2.12744e-23)