/*--------------------------------*- C++ -*----------------------------------*\
| =========                 |                                                 |
| \\      /  F ield         | OpenFOAM: The Open Source CFD Toolbox           |
|  \\    /   O peration     | Version:  2412                                  |
|   \\  /    A nd           | Website:  www.openfoam.com                      |
|    \\/     M anipulation  |                                                 |
\*---------------------------------------------------------------------------*/
FoamFile
{
    version     2.0;
    format      ascii;
    arch        "LSB;label=32;scalar=64";
    class       volVectorField;
    location    "21.5";
    object      vorticity;
}
// * * * * * * * * * * * * * * * * * * * * * * * * * * * * * * * * * * * * * //

dimensions      [0 0 -1 0 0 0 0];

internalField   nonuniform List<vector> 
63420
(
(0 0 5.90371e-06)
(0 0 5.88504e-06)
(0 0 5.86252e-06)
(0 0 5.81591e-06)
(0 0 5.76795e-06)
(0 0 5.86044e-06)
(0 0 6.35608e-06)
(0 0 7.50841e-06)
(0 0 9.35806e-06)
(0 0 1.15939e-05)
(0 0 1.35868e-05)
(0 0 1.45942e-05)
(0 0 1.40313e-05)
(0 0 1.16797e-05)
(0 0 7.75067e-06)
(0 0 2.79935e-06)
(0 0 -2.45219e-06)
(0 0 -7.30614e-06)
(0 0 -1.12329e-05)
(0 0 -1.39401e-05)
(0 0 -1.537e-05)
(0 0 -1.56487e-05)
(0 0 -1.50149e-05)
(0 0 -1.37499e-05)
(0 0 -1.21242e-05)
(0 0 -1.03646e-05)
(0 0 -8.63917e-06)
(0 0 -7.05791e-06)
(0 0 -5.68029e-06)
(0 0 -4.52741e-06)
(0 0 -3.59413e-06)
(0 0 -2.85969e-06)
(0 0 -2.29576e-06)
(0 0 -1.87215e-06)
(0 0 -1.56023e-06)
(0 0 -1.3348e-06)
(0 0 -1.17481e-06)
(0 0 -1.06331e-06)
(0 0 -9.87111e-07)
(0 0 -9.3617e-07)
(0 0 -9.03013e-07)
(0 0 -8.8217e-07)
(0 0 -8.69694e-07)
(0 0 -8.62779e-07)
(0 0 -8.59445e-07)
(0 0 -8.58285e-07)
(0 0 -8.58249e-07)
(0 0 -8.58299e-07)
(0 0 -8.56589e-07)
(0 0 -8.478e-07)
(0 0 -8.14328e-07)
(0 0 -6.97753e-07)
(0 0 -3.09528e-07)
(0 0 9.39903e-07)
(0 4.4486e-23 4.83196e-06)
(0 0 1.77074e-05)
(0 0 1.76511e-05)
(0 0 1.75843e-05)
(0 0 1.7446e-05)
(0 0 1.73036e-05)
(0 0 1.75798e-05)
(0 0 1.9059e-05)
(0 0 2.24996e-05)
(0 0 2.80262e-05)
(0 0 3.47142e-05)
(0 0 4.06889e-05)
(0 0 4.37341e-05)
(0 0 4.21014e-05)
(0 0 3.5133e-05)
(0 0 2.34522e-05)
(0 0 8.70916e-06)
(0 0 -6.94581e-06)
(0 0 -2.14321e-05)
(0 0 -3.31684e-05)
(0 0 -4.1279e-05)
(0 0 -4.55873e-05)
(0 0 -4.64655e-05)
(0 0 -4.46214e-05)
(0 0 -4.08913e-05)
(0 0 -3.60804e-05)
(0 0 -3.08638e-05)
(0 0 -2.57434e-05)
(0 0 -2.10472e-05)
(0 0 -1.69533e-05)
(0 0 -1.35256e-05)
(0 0 -1.07496e-05)
(0 0 -8.5641e-06)
(0 0 -6.88544e-06)
(0 0 -5.62404e-06)
(0 0 -4.69495e-06)
(0 0 -4.02335e-06)
(0 0 -3.54667e-06)
(0 0 -3.21454e-06)
(0 0 -2.98767e-06)
(0 0 -2.83618e-06)
(0 0 -2.7378e-06)
(0 0 -2.67619e-06)
(0 0 -2.63961e-06)
(0 0 -2.61965e-06)
(0 0 -2.61038e-06)
(0 0 -2.60757e-06)
(0 0 -2.60806e-06)
(0 0 -2.60876e-06)
(0 0 -2.60423e-06)
(0 0 -2.579e-06)
(0 0 -2.48205e-06)
(0 0 -2.14395e-06)
(0 0 -1.01704e-06)
(0 0 2.61414e-06)
(0 4.4954e-23 1.39418e-05)
(0 0 2.94988e-05)
(0 0 2.94048e-05)
(0 0 2.92939e-05)
(0 0 2.90649e-05)
(0 0 2.88284e-05)
(0 0 2.92833e-05)
(0 0 3.17302e-05)
(0 0 3.74318e-05)
(0 0 4.66067e-05)
(0 0 5.77375e-05)
(0 0 6.77288e-05)
(0 0 7.29095e-05)
(0 0 7.03721e-05)
(0 0 5.9006e-05)
(0 0 3.9819e-05)
(0 0 1.55228e-05)
(0 0 -1.03354e-05)
(0 0 -3.43143e-05)
(0 0 -5.37909e-05)
(0 0 -6.73046e-05)
(0 0 -7.45496e-05)
(0 0 -7.61287e-05)
(0 0 -7.32019e-05)
(0 0 -6.71455e-05)
(0 0 -5.9287e-05)
(0 0 -5.07414e-05)
(0 0 -4.23389e-05)
(0 0 -3.46234e-05)
(0 0 -2.78918e-05)
(0 0 -2.22517e-05)
(0 0 -1.76815e-05)
(0 0 -1.40819e-05)
(0 0 -1.13159e-05)
(0 0 -9.23676e-06)
(0 0 -7.7049e-06)
(0 0 -6.59735e-06)
(0 0 -5.81111e-06)
(0 0 -5.26326e-06)
(0 0 -4.88911e-06)
(0 0 -4.63938e-06)
(0 0 -4.47736e-06)
(0 0 -4.37615e-06)
(0 0 -4.31634e-06)
(0 0 -4.28405e-06)
(0 0 -4.2695e-06)
(0 0 -4.26571e-06)
(0 0 -4.26748e-06)
(0 0 -4.26981e-06)
(0 0 -4.26415e-06)
(0 0 -4.22644e-06)
(0 0 -4.07758e-06)
(0 0 -3.55453e-06)
(0 0 -1.80417e-06)
(0 0 3.85652e-06)
(0 2.65263e-22 2.15802e-05)
(0 0 4.127e-05)
(0 0 4.1138e-05)
(0 0 4.09831e-05)
(0 0 4.06649e-05)
(0 0 4.03349e-05)
(0 0 4.09606e-05)
(0 0 4.43495e-05)
(0 0 5.22679e-05)
(0 0 6.50446e-05)
(0 0 8.06026e-05)
(0 0 9.46662e-05)
(0 0 0.00010214)
(0 0 9.89645e-05)
(0 0 8.35546e-05)
(0 0 5.72583e-05)
(0 0 2.37945e-05)
(0 0 -1.1943e-05)
(0 0 -4.51882e-05)
(0 0 -7.22927e-05)
(0 0 -9.12083e-05)
(0 0 -0.000101484)
(0 0 -0.000103927)
(0 0 -0.000100124)
(0 0 -9.19655e-05)
(0 0 -8.12819e-05)
(0 0 -6.96139e-05)
(0 0 -5.8112e-05)
(0 0 -4.75323e-05)
(0 0 -3.829e-05)
(0 0 -3.05388e-05)
(0 0 -2.4253e-05)
(0 0 -1.92989e-05)
(0 0 -1.549e-05)
(0 0 -1.26255e-05)
(0 0 -1.05142e-05)
(0 0 -8.98725e-06)
(0 0 -7.90298e-06)
(0 0 -7.14739e-06)
(0 0 -6.63141e-06)
(0 0 -6.2872e-06)
(0 0 -6.06415e-06)
(0 0 -5.9252e-06)
(0 0 -5.84355e-06)
(0 0 -5.8001e-06)
(0 0 -5.78131e-06)
(0 0 -5.77762e-06)
(0 0 -5.78189e-06)
(0 0 -5.78743e-06)
(0 0 -5.78327e-06)
(0 0 -5.73924e-06)
(0 0 -5.55667e-06)
(0 0 -4.90707e-06)
(0 0 -2.71978e-06)
(0 0 4.39641e-06)
(0 -1.74143e-22 2.68255e-05)
(0 0 5.30133e-05)
(0 0 5.28425e-05)
(0 0 5.26438e-05)
(0 0 5.22386e-05)
(0 0 5.18159e-05)
(0 0 5.26017e-05)
(0 0 5.68981e-05)
(0 0 6.69736e-05)
(0 0 8.32882e-05)
(0 0 0.00010325)
(0 0 0.000121457)
(0 0 0.000131432)
(0 0 0.000127971)
(0 0 0.000108987)
(0 0 7.61111e-05)
(0 0 3.39955e-05)
(0 0 -1.11868e-05)
(0 0 -5.33934e-05)
(0 0 -8.79727e-05)
(0 0 -0.000112286)
(0 0 -0.000125715)
(0 0 -0.000129239)
(0 0 -0.000124833)
(0 0 -0.000114871)
(0 0 -0.000101659)
(0 0 -8.71441e-05)
(0 0 -7.27865e-05)
(0 0 -5.95494e-05)
(0 0 -4.7966e-05)
(0 0 -3.82388e-05)
(0 0 -3.03421e-05)
(0 0 -2.4113e-05)
(0 0 -1.93202e-05)
(0 0 -1.57134e-05)
(0 0 -1.30534e-05)
(0 0 -1.11286e-05)
(0 0 -9.76114e-06)
(0 0 -8.80785e-06)
(0 0 -8.15667e-06)
(0 0 -7.72221e-06)
(0 0 -7.44076e-06)
(0 0 -7.2656e-06)
(0 0 -7.16294e-06)
(0 0 -7.10869e-06)
(0 0 -7.08581e-06)
(0 0 -7.08222e-06)
(0 0 -7.089e-06)
(0 0 -7.09806e-06)
(0 0 -7.09685e-06)
(0 0 -7.05215e-06)
(0 0 -6.85668e-06)
(0 0 -6.15393e-06)
(0 0 -3.77582e-06)
(0 0 4.0188e-06)
(0 8.59673e-23 2.88588e-05)
(0 0 6.47223e-05)
(0 0 6.451e-05)
(0 0 6.42676e-05)
(0 0 6.3778e-05)
(0 0 6.32638e-05)
(0 0 6.41968e-05)
(0 0 6.93589e-05)
(0 0 8.15184e-05)
(0 0 0.000101292)
(0 0 0.000125627)
(0 0 0.000148061)
(0 0 0.000160783)
(0 0 0.00015746)
(0 0 0.00013547)
(0 0 9.6653e-05)
(0 0 4.65097e-05)
(0 0 -7.59058e-06)
(0 0 -5.83877e-05)
(0 0 -0.000100254)
(0 0 -0.000129958)
(0 0 -0.000146686)
(0 0 -0.00015155)
(0 0 -0.000146872)
(0 0 -0.000135466)
(0 0 -0.000120083)
(0 0 -0.000103055)
(0 0 -8.61356e-05)
(0 0 -7.04909e-05)
(0 0 -5.67714e-05)
(0 0 -4.52313e-05)
(0 0 -3.58504e-05)
(0 0 -2.84421e-05)
(0 0 -2.27366e-05)
(0 0 -1.84391e-05)
(0 0 -1.52673e-05)
(0 0 -1.29703e-05)
(0 0 -1.13372e-05)
(0 0 -1.01978e-05)
(0 0 -9.41886e-06)
(0 0 -8.89866e-06)
(0 0 -8.56129e-06)
(0 0 -8.35102e-06)
(0 0 -8.22758e-06)
(0 0 -8.16219e-06)
(0 0 -8.13451e-06)
(0 0 -8.13014e-06)
(0 0 -8.13853e-06)
(0 0 -8.15047e-06)
(0 0 -8.15272e-06)
(0 0 -8.1123e-06)
(0 0 -7.9254e-06)
(0 0 -7.25107e-06)
(0 0 -4.97314e-06)
(0 0 2.53135e-06)
(0 4.24178e-22 2.68917e-05)
(0 0 7.63882e-05)
(0 0 7.61315e-05)
(0 0 7.58459e-05)
(0 0 7.52753e-05)
(0 0 7.46711e-05)
(0 0 7.57368e-05)
(0 0 8.17167e-05)
(0 0 9.58763e-05)
(0 0 0.000119017)
(0 0 0.000147686)
(0 0 0.000174434)
(0 0 0.000190175)
(0 0 0.000187463)
(0 0 0.000163103)
(0 0 0.000119067)
(0 0 6.16026e-05)
(0 0 -8.16981e-07)
(0 0 -5.97808e-05)
(0 0 -0.000108717)
(0 0 -0.000143798)
(0 0 -0.000163985)
(0 0 -0.000170479)
(0 0 -0.000165898)
(0 0 -0.000153454)
(0 0 -0.000136303)
(0 0 -0.000117136)
(0 0 -9.79883e-05)
(0 0 -8.02187e-05)
(0 0 -6.4595e-05)
(0 0 -5.14267e-05)
(0 0 -4.0705e-05)
(0 0 -3.22263e-05)
(0 0 -2.56886e-05)
(0 0 -2.07593e-05)
(0 0 -1.71173e-05)
(0 0 -1.44773e-05)
(0 0 -1.25986e-05)
(0 0 -1.12863e-05)
(0 0 -1.03881e-05)
(0 0 -9.78741e-06)
(0 0 -9.39708e-06)
(0 0 -9.15317e-06)
(0 0 -9.00941e-06)
(0 0 -8.93273e-06)
(0 0 -8.89974e-06)
(0 0 -8.89389e-06)
(0 0 -8.9032e-06)
(0 0 -8.91758e-06)
(0 0 -8.92393e-06)
(0 0 -8.89232e-06)
(0 0 -8.7334e-06)
(0 0 -8.16458e-06)
(0 0 -6.28976e-06)
(0 0 -2.25411e-07)
(0 -8.29801e-23 2.00108e-05)
(-1.71568e-23 7.94077e-21 2.89798e-06)
(-1.45441e-22 7.80778e-21 2.28027e-06)
(3.23155e-23 -1.94641e-22 1.45038e-06)
(3.79317e-23 -2.33092e-20 3.66294e-07)
(-9.10613e-23 7.96245e-21 -1.0082e-06)
(3.57513e-22 7.82084e-21 -2.70204e-06)
(-7.83061e-22 2.28021e-20 -4.73924e-06)
(3.0735e-22 -2.31681e-20 -7.14152e-06)
(6.18779e-22 -7.45527e-21 -9.93045e-06)
(-8.83809e-22 -3.67696e-24 -1.31295e-05)
(-8.8313e-22 -7.46927e-21 -1.67651e-05)
(7.73487e-22 7.09651e-21 -2.08684e-05)
(5.59719e-22 -5.84521e-20 -2.54763e-05)
(-1.03399e-21 1.25478e-19 -3.06319e-05)
(3.56569e-22 -6.74967e-20 -3.63815e-05)
(-1.21098e-21 -5.08904e-20 -4.27885e-05)
(2.32873e-21 -6.48037e-20 -4.98984e-05)
(-1.82697e-21 7.63429e-21 -5.78148e-05)
(-1.8574e-22 -7.1243e-21 -6.65838e-05)
(7.0932e-23 7.12857e-21 -7.63285e-05)
(-3.09613e-24 -1.26636e-22 -8.71356e-05)
(-6.59007e-23 -6.87577e-21 -9.91187e-05)
(-1.97971e-21 6.93471e-21 -0.000112397)
(4.13977e-21 1.27241e-23 -0.000127101)
(1.20729e-21 6.73205e-21 -0.000143373)
(-3.22546e-21 -5.23467e-24 -0.000161377)
(4.64057e-21 7.81393e-21 -0.000181301)
(-5.44909e-21 1.0142e-19 -0.000203373)
(6.82651e-22 -1.08903e-19 -0.000227882)
(-2.10554e-21 9.94573e-20 -0.000255215)
(2.05125e-21 -1.00582e-19 -0.000285917)
(4.77492e-23 1.32037e-21 -0.000320805)
(-6.21226e-23 -1.62027e-21 -0.000361152)
(2.74119e-21 -9.51389e-20 -0.000409031)
(-8.52206e-21 9.23257e-20 -0.000467915)
(-3.09459e-22 -1.523e-21 -0.000543725)
(6.10184e-21 1.33453e-23 -0.000646623)
(6.63029e-21 1.45011e-23 -0.000793962)
(-6.60907e-21 -1.44547e-23 -0.00101497)
(-2.19011e-22 -4.78998e-25 -0.0013578)
(-2.28281e-22 -4.99273e-25 -0.00189943)
(-7.8528e-21 -1.71749e-23 -0.00275845)
(7.58005e-21 1.65783e-23 -0.00410973)
(-2.50161e-22 1.48786e-22 -0.00619783)
(-3.33203e-23 7.69877e-21 -0.00934369)
(-2.42495e-20 4.98125e-20 -0.0139363)
(2.3357e-20 -6.56429e-20 -0.0203967)
(-5.47551e-21 -9.31177e-21 -0.0291014)
(6.01842e-21 2.54792e-20 -0.0402597)
(-2.00036e-20 -5.58434e-21 -0.0536654)
(-2.55575e-22 7.95189e-21 8.48769e-06)
(-1.04162e-22 1.56426e-20 6.57098e-06)
(2.97265e-22 7.60787e-21 3.96325e-06)
(-8.57782e-22 -7.82073e-21 5.39312e-07)
(1.59336e-21 7.46065e-21 -3.80171e-06)
(-4.88392e-22 -5.34191e-20 -9.14034e-06)
(-2.22658e-22 8.48189e-20 -1.55442e-05)
(-5.55776e-23 -8.82598e-21 -2.30763e-05)
(2.14996e-21 -9.76733e-20 -3.18017e-05)
(-2.23894e-21 1.37889e-19 -4.17927e-05)
(-8.27584e-22 1.26003e-19 -5.31331e-05)
(6.11346e-22 -1.13345e-19 -6.59222e-05)
(-3.86593e-22 7.24669e-22 -8.02768e-05)
(2.75835e-21 -7.21919e-21 -9.63329e-05)
(-2.15069e-21 2.39909e-20 -0.000114249)
(-5.90935e-21 2.38399e-19 -0.000134197)
(1.63159e-21 -2.2417e-19 -0.000156415)
(-5.53303e-21 2.40227e-19 -0.000181059)
(-2.94865e-22 1.94524e-20 -0.000208446)
(-3.77802e-21 -7.28544e-21 -0.000238837)
(3.99436e-21 1.42897e-22 -0.000272584)
(-4.00775e-21 9.04031e-21 -0.000310046)
(9.67051e-22 2.08596e-19 -0.000351601)
(5.90863e-21 -4.41624e-19 -0.000397668)
(4.4899e-21 -2.10951e-19 -0.000448712)
(-6.98756e-21 4.27064e-19 -0.000505261)
(3.68987e-21 -4.25756e-19 -0.000567927)
(-2.04558e-21 4.36834e-19 -0.000637449)
(3.23439e-21 1.46156e-21 -0.000714756)
(-3.664e-21 -9.60174e-23 -0.000801082)
(-1.231e-21 -2.69231e-24 -0.000898149)
(0 0 -0.0010085)
(1.81903e-22 9.43928e-23 -0.00113607)
(1.08712e-20 1.21949e-20 -0.00128724)
(-1.56706e-20 3.56301e-19 -0.0014726)
(-1.55244e-20 -2.39824e-20 -0.00171022)
(1.84673e-20 -3.51362e-19 -0.002031)
(2.63223e-20 -3.03483e-19 -0.0024877)
(-9.41207e-21 3.24179e-19 -0.00316908)
(-3.06698e-20 2.15571e-21 -0.00422123)
(2.99216e-20 1.70718e-20 -0.00587748)
(-4.16179e-20 2.30959e-19 -0.00849701)
(2.25768e-20 -2.40231e-19 -0.0126087)
(-1.77085e-20 1.44339e-20 -0.0189516)
(1.96222e-20 7.58613e-21 -0.0284948)
(-5.89113e-20 1.11462e-19 -0.0424119)
(5.88342e-20 -1.09104e-19 -0.0619698)
(-9.03059e-20 8.14048e-20 -0.0882814)
(8.7146e-20 -9.09062e-20 -0.121905)
(-1.84743e-20 -6.23262e-22 -0.160866)
(-4.76213e-23 4.71148e-20 1.36007e-05)
(-8.64739e-23 1.48983e-20 1.01554e-05)
(3.79068e-22 -6.17178e-20 5.37186e-06)
(-8.0788e-22 1.22771e-19 -9.4426e-07)
(1.7798e-21 -2.62802e-19 -8.93506e-06)
(3.66029e-22 1.24955e-19 -1.87114e-05)
(-2.41633e-21 -8.57869e-22 -3.0372e-05)
(1.54523e-21 -1.69712e-20 -4.40173e-05)
(1.49081e-21 -2.56424e-19 -5.97595e-05)
(7.05022e-22 2.44323e-19 -7.77294e-05)
(-8.46579e-22 -1.60636e-21 -9.80826e-05)
(-4.16255e-21 -1.55219e-23 -0.000121004)
(6.60171e-21 -1.82873e-21 -0.000146711)
(-3.87397e-21 -2.5008e-19 -0.00017546)
(5.07542e-21 2.27243e-19 -0.00020754)
(-1.13826e-20 4.51558e-19 -0.0002433)
(-4.78283e-21 -1.20106e-20 -0.000283106)
(-4.76352e-21 4.64588e-19 -0.000327384)
(4.07654e-22 -1.41019e-20 -0.000376577)
(-1.23742e-20 4.51119e-19 -0.00043127)
(1.22981e-20 -4.68502e-19 -0.000492094)
(-9.21708e-21 4.47361e-19 -0.00055973)
(2.49834e-21 -4.65301e-19 -0.000634898)
(5.18532e-21 -9.29504e-21 -0.000718403)
(-2.57757e-21 1.36347e-20 -0.000811144)
(5.50094e-21 -8.79733e-21 -0.000914146)
(-1.88852e-20 4.1926e-19 -0.00102859)
(1.70009e-20 -4.46825e-19 -0.00115591)
(1.85151e-20 -4.15138e-19 -0.00129787)
(-1.52253e-20 4.17025e-19 -0.00145677)
(-1.07427e-21 -5.12916e-21 -0.00163578)
(1.11163e-20 -1.20293e-22 -0.00183947)
(-1.27107e-20 -2.45851e-20 -0.00207481)
(5.33395e-20 -7.57584e-19 -0.00235289)
(1.64692e-20 5.60092e-20 -0.00269205)
(-7.01223e-20 7.13301e-19 -0.00312326)
(3.91968e-21 -1.22348e-20 -0.00369939)
(-1.13457e-20 -4.80265e-21 -0.00451046)
(1.09712e-19 -5.98352e-19 -0.00570778)
(-2.04127e-19 1.17502e-18 -0.00754007)
(2.08167e-19 -1.16724e-18 -0.010404)
(7.04888e-20 8.44169e-20 -0.0149093)
(-1.56109e-19 5.10886e-19 -0.0219527)
(-1.6368e-19 3.52304e-19 -0.0327861)
(1.54713e-19 -4.17658e-19 -0.0490522)
(-2.1959e-20 1.92503e-20 -0.0727426)
(5.42478e-20 -1.71262e-20 -0.106007)
(1.62752e-19 -1.01062e-19 -0.15069)
(-1.76194e-19 1.57814e-19 -0.207529)
(-2.51084e-20 -4.04862e-20 -0.268737)
(4.07021e-22 -3.10731e-20 1.78214e-05)
(-3.64408e-22 1.57106e-20 1.23112e-05)
(6.81249e-22 -1.69515e-22 4.50817e-06)
(-6.07014e-22 -1.54571e-20 -5.78483e-06)
(-9.52373e-22 -1.43124e-21 -1.8694e-05)
(3.35901e-21 -2.42607e-19 -3.43269e-05)
(-4.76346e-21 4.59378e-19 -5.28005e-05)
(2.33273e-21 -2.47323e-19 -7.42561e-05)
(-1.81327e-21 1.4922e-20 -9.88678e-05)
(4.87849e-21 -2.70823e-19 -0.000126848)
(-5.85676e-21 2.47084e-19 -0.000158453)
(-4.2166e-21 4.71778e-19 -0.000193987)
(1.09724e-20 -9.54416e-19 -0.000233812)
(-1.31627e-20 9.53334e-19 -0.000278343)
(1.73883e-20 -9.48851e-19 -0.000328058)
(-1.15341e-20 9.40288e-19 -0.000383515)
(-1.00016e-20 4.78344e-19 -0.000445344)
(-7.03986e-22 -3.74425e-21 -0.000514197)
(4.48152e-21 3.89073e-21 -0.000590855)
(-7.76046e-21 4.41179e-19 -0.000676258)
(-1.76064e-21 -4.63306e-19 -0.000771441)
(1.47121e-20 1.26783e-20 -0.000877536)
(-3.38722e-20 8.89438e-19 -0.000995765)
(2.57602e-20 -8.92346e-19 -0.0011275)
(2.26518e-21 -5.34922e-21 -0.00127427)
(-9.70008e-21 -9.05918e-23 -0.00143785)
(1.47576e-20 -1.3485e-20 -0.00162028)
(-4.79399e-21 1.22934e-22 -0.00182399)
(-5.26291e-21 -6.49096e-23 -0.00205196)
(5.0131e-21 1.94817e-22 -0.002308)
(-3.71791e-21 1.45156e-21 -0.0025972)
(6.35762e-20 -7.87627e-19 -0.00292672)
(-5.76902e-20 8.10008e-19 -0.00330719)
(-1.60034e-20 2.17682e-22 -0.00375518)
(1.86495e-20 -1.02896e-20 -0.00429763)
(-9.92436e-20 7.2256e-19 -0.00497961)
(1.1566e-19 -7.25738e-19 -0.0058776)
(-2.25684e-20 2.18685e-21 -0.00712145)
(1.59508e-20 -9.25996e-23 -0.0089291)
(3.79222e-20 6.36987e-21 -0.0116585)
(-2.46991e-19 5.41462e-19 -0.0158803)
(3.66644e-19 -1.09746e-18 -0.0224708)
(-1.79e-19 5.55995e-19 -0.0327192)
(2.59461e-19 -4.25229e-19 -0.0484287)
(-2.512e-19 5.00906e-19 -0.0719783)
(-5.8434e-19 5.16533e-19 -0.106284)
(1.10296e-18 -1.09447e-18 -0.154539)
(-5.39788e-19 5.52589e-19 -0.219479)
(1.86366e-20 -2.13042e-21 -0.301834)
(4.48696e-21 -3.4712e-20 -0.380494)
(-7.32305e-22 1.5791e-20 2.06074e-05)
(-3.00465e-22 6.04866e-20 1.1872e-05)
(2.0351e-21 -1.83636e-19 -5.49821e-07)
(-1.41404e-21 2.4641e-19 -1.66673e-05)
(-2.13427e-22 -1.09106e-19 -3.6503e-05)
(1.17151e-22 -1.45895e-20 -6.01375e-05)
(-4.74594e-22 1.53734e-20 -8.77166e-05)
(3.0059e-21 -1.85223e-22 -0.000119451)
(-2.85208e-21 -1.50278e-20 -0.000155614)
(-5.21639e-21 3.36801e-20 -0.000196546)
(-7.11887e-21 4.79836e-19 -0.000242653)
(1.8489e-20 -4.98698e-19 -0.000294417)
(-2.27801e-20 4.65185e-19 -0.000352402)
(1.90196e-20 -4.83884e-19 -0.000417258)
(-2.98575e-21 3.37332e-21 -0.000489727)
(1.0916e-20 4.72791e-23 -0.000570666)
(4.14991e-21 3.69124e-21 -0.000661054)
(-5.45797e-21 4.51959e-19 -0.000761932)
(2.03359e-20 -4.89058e-19 -0.00087452)
(6.29327e-21 2.68104e-20 -0.00100028)
(-4.59912e-20 9.31717e-19 -0.00114082)
(2.94332e-20 -9.34317e-19 -0.00129796)
(1.01062e-20 2.25333e-20 -0.00147365)
(-1.79362e-20 -2.31826e-22 -0.00167013)
(1.17367e-20 9.57909e-21 -0.00188991)
(-3.93164e-20 8.95047e-19 -0.0021359)
(3.25495e-20 -8.86595e-19 -0.00241145)
(2.82006e-21 9.56409e-21 -0.00272054)
(9.45883e-21 2.71572e-20 -0.00306799)
(-1.14377e-20 -5.46304e-22 -0.00345982)
(1.18504e-21 -1.29833e-20 -0.00390386)
(-3.71024e-20 1.31813e-20 -0.00441076)
(3.48751e-20 1.25545e-20 -0.00499583)
(-3.07923e-21 -2.51222e-20 -0.0056822)
(8.32077e-20 -7.3634e-19 -0.00650662)
(-7.43492e-20 7.58994e-19 -0.00752958)
(2.70513e-19 -1.45976e-18 -0.00885272)
(-2.48258e-19 1.4739e-18 -0.0106479)
(3.07086e-19 -1.37843e-18 -0.0132031)
(7.09666e-20 1.31523e-19 -0.0169917)
(-3.52728e-19 1.3129e-18 -0.0227689)
(-1.19867e-19 -2.2011e-20 -0.0316971)
(1.63176e-20 3.84724e-22 -0.0454917)
(-1.81678e-20 5.57668e-22 -0.0665702)
(5.36746e-20 1.64929e-21 -0.098172)
(2.57993e-20 1.34589e-20 -0.144393)
(-1.12034e-19 5.08435e-21 -0.209979)
(6.38158e-20 4.92714e-21 -0.299367)
(-1.63473e-22 -3.06908e-22 -0.413782)
(3.5712e-20 6.3139e-22 -0.506278)
(-7.36655e-22 7.61289e-20 2.11406e-05)
(1.65114e-21 -4.6416e-20 6.64081e-06)
(-1.64729e-21 -1.63581e-20 -1.32459e-05)
(4.73755e-21 -2.27414e-19 -3.80254e-05)
(-2.377e-21 2.29277e-19 -6.76334e-05)
(2.1311e-21 -2.26848e-19 -0.000102185)
(-1.11379e-20 5.00223e-19 -0.000141929)
(1.18496e-20 -7.00468e-19 -0.000187214)
(-7.67282e-21 4.95275e-19 -0.000238488)
(-6.15278e-21 4.82807e-19 -0.000296285)
(-2.20077e-21 3.96217e-21 -0.000361241)
(2.47795e-20 -9.48337e-19 -0.000434094)
(-2.17621e-20 9.86801e-19 -0.000515702)
(5.35025e-21 -4.64205e-19 -0.000607048)
(1.23154e-20 -4.66448e-19 -0.000709249)
(2.25906e-20 -4.58905e-19 -0.00082358)
(-3.25641e-21 6.57591e-21 -0.000951515)
(3.87404e-20 -9.51606e-19 -0.0010947)
(3.01928e-20 -9.1352e-19 -0.00125497)
(6.57529e-21 2.11728e-20 -0.00143453)
(-2.73242e-20 9.48698e-19 -0.00163586)
(-1.99941e-20 -8.0258e-21 -0.00186174)
(1.22084e-20 8.88879e-21 -0.00211526)
(-5.15044e-20 9.18217e-19 -0.00239996)
(4.20262e-20 -9.32643e-19 -0.00271986)
(7.35763e-20 -8.95707e-19 -0.0030796)
(-7.47985e-20 9.25133e-19 -0.00348459)
(1.49711e-20 -1.98835e-20 -0.00394119)
(6.87988e-20 -8.925e-19 -0.00445701)
(-9.63721e-20 9.15223e-19 -0.00504143)
(4.34547e-21 1.22616e-20 -0.00570628)
(-2.09167e-19 1.67529e-18 -0.00646714)
(1.89491e-19 -1.738e-18 -0.0073455)
(4.81326e-20 6.16435e-20 -0.00837262)
(-2.69133e-19 1.58461e-18 -0.00959648)
(2.47038e-19 -1.65217e-18 -0.0110941)
(-3.13381e-20 -3.26098e-21 -0.0129928)
(4.72135e-19 -1.48858e-18 -0.0155065)
(-4.42133e-19 1.53724e-18 -0.0189928)
(-6.56687e-20 -7.19129e-20 -0.0240407)
(6.76529e-19 -1.29788e-18 -0.0315944)
(-1.19087e-18 2.6758e-18 -0.0431157)
(-6.48274e-20 -1.54682e-19 -0.0607791)
(-8.68167e-20 -1.21438e-19 -0.0876869)
(7.66143e-19 -1.16356e-18 -0.128096)
(3.91543e-20 6.2436e-20 -0.187674)
(-8.61517e-19 7.69794e-19 -0.273795)
(8.44664e-19 -8.46668e-19 -0.395321)
(9.00183e-21 2.87203e-20 -0.558609)
(9.21565e-21 -2.69769e-21 -0.670669)
(6.07288e-22 -1.585e-20 1.8356e-05)
(1.72737e-21 -1.3524e-19 -7.9616e-06)
(-1.84279e-21 1.21958e-19 -3.94981e-05)
(-1.25483e-21 -1.7155e-20 -7.63452e-05)
(5.40152e-21 -2.25992e-19 -0.000118723)
(-4.99462e-21 2.32404e-19 -0.000166989)
(-6.01282e-21 4.6946e-19 -0.000221592)
(-5.06436e-21 -1.94155e-20 -0.000283081)
(2.18659e-21 -4.5709e-21 -0.000352102)
(1.46094e-20 -5.00563e-19 -0.000429407)
(-1.19601e-20 4.6831e-19 -0.000515859)
(1.81688e-20 -9.9071e-19 -0.000612449)
(-4.32387e-21 4.95173e-19 -0.000720309)
(-3.61637e-21 -1.86141e-20 -0.000840734)
(-4.82947e-21 -2.22588e-20 -0.000975171)
(2.90222e-20 -9.71783e-19 -0.00112522)
(-1.62374e-21 -2.01785e-20 -0.00129274)
(2.79682e-20 -9.89769e-19 -0.00147986)
(-5.3629e-21 -7.71543e-21 -0.00168899)
(-1.69294e-22 1.18607e-22 -0.0019228)
(1.13823e-20 8.38887e-21 -0.00218436)
(-5.37126e-20 9.51903e-19 -0.00247705)
(4.8011e-20 -9.72279e-19 -0.00280461)
(1.2706e-20 8.294e-21 -0.00317125)
(-8.6442e-21 -1.48973e-20 -0.00358169)
(-6.13906e-21 9.85189e-21 -0.00404122)
(-7.52894e-20 9.18373e-19 -0.00455579)
(1.61698e-19 -1.8733e-18 -0.00513218)
(-7.68063e-20 9.7669e-19 -0.00577816)
(-1.94522e-19 1.80981e-18 -0.00650283)
(-3.04286e-20 -4.55937e-20 -0.0073171)
(2.45059e-21 -2.6706e-20 -0.00823471)
(-6.58449e-20 -5.3895e-20 -0.00927397)
(2.61728e-19 -1.80758e-18 -0.0104613)
(4.00895e-19 -1.67286e-18 -0.0118377)
(-3.58423e-19 1.75555e-18 -0.0134715)
(-3.37301e-20 -5.4565e-20 -0.0154804)
(4.7429e-19 -1.59841e-18 -0.0180714)
(-4.18971e-19 1.69276e-18 -0.021606)
(-6.6729e-19 1.5029e-18 -0.0267046)
(5.68009e-19 -1.58704e-18 -0.0343986)
(7.76645e-20 -1.11096e-20 -0.0463405)
(8.6445e-19 -1.40071e-18 -0.0650666)
(1.19119e-19 1.21873e-19 -0.0943063)
(-9.97449e-19 1.3713e-18 -0.139344)
(-1.60937e-20 -3.92611e-20 -0.207512)
(3.32802e-20 5.22524e-22 -0.309522)
(-3.35348e-20 1.56224e-20 -0.464309)
(-5.06911e-19 5.30247e-19 -0.708483)
(4.98208e-19 -5.39484e-19 -0.972519)
(-1.07287e-20 -3.16363e-21 0.00999473)
(-1.0727e-20 -4.65075e-22 0.00524445)
(1.00565e-20 1.00322e-20 0.00122466)
(-6.94089e-21 2.42141e-21 -0.00213504)
(7.46517e-21 -1.18977e-20 -0.00491182)
(5.68252e-23 3.52521e-21 -0.00718453)
(-1.72311e-22 -9.74429e-23 -0.00902714)
(-5.57546e-21 1.21941e-23 -0.0105032)
(5.41994e-21 -1.1854e-23 -0.0116649)
(-1.61751e-22 3.53764e-25 -0.0125558)
(-1.55298e-22 3.39653e-25 -0.0132139)
(4.58407e-21 -1.00258e-23 -0.0136699)
(-4.5988e-21 1.0058e-23 -0.0139497)
(-4.08433e-21 8.93284e-24 -0.0140764)
(3.14044e-22 -9.44981e-22 -0.0140698)
(6.16856e-21 8.00767e-21 -0.0139477)
(-2.32526e-21 -5.62037e-21 -0.0137264)
(-6.5545e-23 -8.8973e-22 -0.0134206)
(-2.36846e-23 6.5493e-22 -0.0130439)
(-2.40883e-21 -2.01717e-20 -0.0126083)
(2.44427e-21 1.9386e-20 -0.0121244)
(-1.75831e-21 -2.42862e-20 -0.0116015)
(1.40977e-21 1.31652e-21 -0.011048)
(-1.81811e-21 1.14226e-23 -0.0104728)
(1.20558e-21 2.25943e-21 -0.00988506)
(-4.42902e-22 2.51555e-23 -0.00929234)
(-1.04715e-21 2.29021e-24 -0.00869946)
(4.79367e-22 -1.25222e-23 -0.0081114)
(2.13841e-22 3.18092e-21 -0.0075328)
(-1.87333e-23 1.84768e-23 -0.00696765)
(-2.13123e-22 -3.63392e-21 -0.00641933)
(2.00905e-22 3.84365e-21 -0.00589067)
(-1.32066e-22 -4.06665e-21 -0.00538399)
(9.08735e-22 3.9052e-20 -0.0049011)
(-9.91137e-22 -3.93199e-20 -0.00444338)
(-5.57215e-22 -3.32621e-20 -0.0040118)
(1.27951e-21 7.26129e-20 -0.00360695)
(-7.15609e-22 -3.95646e-20 -0.00322907)
(-1.21962e-22 -5.20312e-21 -0.00287812)
(1.19924e-22 5.39641e-21 -0.00255379)
(-5.54571e-23 8.71937e-25 -0.0022555)
(2.26051e-22 5.6912e-21 -0.00198251)
(-4.00764e-22 -2.95281e-20 -0.00173389)
(3.6602e-22 2.97596e-20 -0.00150855)
(-8.74844e-23 -6.15408e-21 -0.00130532)
(2.40224e-22 1.89235e-20 -0.00112288)
(3.38999e-23 -6.29904e-21 -0.000959872)
(-1.49447e-22 -1.30703e-20 -0.000814798)
(3.60606e-23 6.58068e-21 -0.00068603)
(-1.09703e-22 -6.74277e-21 -0.000571754)
(-1.54519e-20 2.53933e-20 0.0289478)
(3.13014e-20 -9.51753e-21 0.0148168)
(-2.53293e-20 -2.24166e-20 0.00276637)
(8.42539e-21 2.29325e-20 -0.00722478)
(-8.82297e-21 -2.24341e-20 -0.0154236)
(-1.26545e-20 6.15263e-21 -0.0220946)
(1.12431e-20 6.72785e-21 -0.0274763)
(1.00054e-20 1.48728e-20 -0.0317682)
(2.93324e-21 -2.64376e-20 -0.0351307)
(-2.2391e-20 6.54006e-21 -0.0376945)
(2.10893e-20 -5.02532e-21 -0.039574)
(8.50227e-22 2.56804e-21 -0.0408614)
(-1.27988e-20 1.16831e-20 -0.0416326)
(-1.43448e-20 -1.93447e-20 -0.0419551)
(7.64914e-21 -1.82482e-20 -0.0418879)
(1.4993e-20 2.41538e-20 -0.0414837)
(-7.20904e-21 3.68913e-21 -0.0407904)
(-6.02746e-22 -1.84159e-21 -0.0398511)
(1.20131e-23 -1.07042e-22 -0.0387055)
(6.106e-22 -1.33544e-24 -0.0373894)
(1.73228e-21 2.66951e-23 -0.035934)
(-1.88959e-21 -3.36033e-21 -0.0343663)
(1.99201e-20 1.21962e-19 -0.0327107)
(-2.22487e-20 -1.2987e-19 -0.0309959)
(2.31976e-20 1.51428e-19 -0.0292427)
(-1.19953e-20 -6.78746e-20 -0.0274768)
(-2.30142e-20 -1.78246e-19 -0.0257132)
(1.08193e-20 9.11208e-20 -0.0239659)
(5.59119e-22 -2.67147e-21 -0.0222483)
(-1.42403e-21 -7.006e-21 -0.0205718)
(7.79831e-22 3.63398e-21 -0.0189463)
(-1.08831e-21 -1.17845e-20 -0.01738)
(9.68822e-21 1.30051e-19 -0.0158796)
(-2.04764e-20 -2.79263e-19 -0.0144503)
(9.35007e-21 1.3618e-19 -0.0130962)
(-9.91187e-22 -1.40921e-20 -0.0118199)
(2.24805e-22 4.8679e-21 -0.0106232)
(-1.3057e-23 -5.44438e-23 -0.00950663)
(-4.49363e-21 -9.03738e-20 -0.00847004)
(3.8265e-21 7.99833e-20 -0.00751239)
(2.87553e-21 7.89654e-20 -0.00663198)
(-4.22225e-21 -1.07701e-19 -0.00582651)
(1.05535e-22 5.9632e-21 -0.00509318)
(8.98531e-22 3.0487e-20 -0.00442878)
(-1.976e-21 -5.4908e-20 -0.00382974)
(3.39825e-23 -6.26031e-21 -0.00329221)
(-1.26364e-21 -4.50101e-20 -0.00281208)
(-2.41052e-22 -6.90405e-21 -0.0023849)
(2.96661e-22 1.29779e-20 -0.00200573)
(3.59e-22 2.00755e-20 -0.00166888)
(-1.40776e-20 -1.07686e-21 0.0447621)
(-1.46304e-20 -1.59355e-20 0.0214524)
(3.68404e-20 3.00202e-20 0.00141732)
(-4.3993e-20 -1.25864e-20 -0.0149001)
(1.81293e-20 1.20893e-20 -0.0280871)
(2.31604e-20 1.86827e-20 -0.0386877)
(-1.43496e-20 -5.75071e-20 -0.0471545)
(2.29684e-20 -1.29024e-20 -0.0538429)
(-2.9592e-20 4.20201e-20 -0.0590332)
(-2.34476e-20 4.70226e-21 -0.0629416)
(5.92291e-20 -1.85753e-20 -0.0657604)
(-4.05186e-20 1.98625e-20 -0.0676404)
(6.38938e-21 -1.12041e-20 -0.0687004)
(-3.27169e-21 -8.71183e-21 -0.0690499)
(6.46247e-20 7.23696e-20 -0.0687844)
(-3.53085e-21 3.60789e-20 -0.0679886)
(-5.84509e-20 -9.10307e-20 -0.0667385)
(1.04033e-20 -3.75319e-21 -0.0651031)
(-6.80519e-21 2.54346e-22 -0.0631457)
(3.4267e-22 -2.46189e-21 -0.0609234)
(3.67213e-20 1.10824e-19 -0.058486)
(-3.64855e-20 -1.00409e-19 -0.0558772)
(-3.83229e-20 -1.36694e-19 -0.0531378)
(4.15356e-20 1.38785e-19 -0.0503054)
(-1.96743e-22 7.1632e-21 -0.0474234)
(-6.19079e-22 -5.54527e-21 -0.0445223)
(1.04335e-22 6.80217e-21 -0.0416324)
(-3.44446e-20 -2.01708e-19 -0.038775)
(3.78218e-20 2.07225e-19 -0.0359706)
(-3.47121e-20 -2.20419e-19 -0.0332372)
(3.71037e-20 2.34816e-19 -0.0305903)
(8.55232e-22 8.25365e-21 -0.0280426)
(3.30082e-20 2.74892e-19 -0.0256046)
(-6.48183e-20 -5.53486e-19 -0.0232844)
(3.34872e-20 2.96534e-19 -0.0210882)
(1.57245e-20 1.6527e-19 -0.01902)
(-1.40144e-20 -1.45894e-19 -0.0170823)
(1.72578e-22 1.61935e-23 -0.0152758)
(-4.90499e-22 -1.30747e-22 -0.0135999)
(-5.61681e-23 1.20736e-22 -0.0120528)
(1.17455e-20 1.81805e-19 -0.0106314)
(-1.13924e-20 -1.70888e-19 -0.00933203)
(9.43932e-22 1.19823e-20 -0.00814985)
(-5.08069e-22 -1.99918e-23 -0.00707954)
(4.61012e-21 9.93957e-20 -0.00611523)
(-8.54749e-21 -1.88625e-19 -0.00525058)
(4.22371e-21 1.01673e-19 -0.00447881)
(-2.17599e-21 -5.26089e-20 -0.00379256)
(1.63848e-21 3.92322e-20 -0.00318347)
(3.90115e-22 1.31973e-20 -0.00264128)
(1.94455e-21 2.68117e-20 0.0544645)
(8.67519e-21 -5.46187e-20 0.0223896)
(-7.33304e-20 1.5931e-20 -0.00535391)
(1.17752e-19 8.09374e-20 -0.0272988)
(-2.85039e-20 -1.10162e-19 -0.0446068)
(-1.10797e-20 2.67575e-20 -0.058263)
(-4.29925e-21 1.54505e-20 -0.0690062)
(-2.20755e-21 9.90893e-21 -0.07736)
(-3.84313e-20 -6.25781e-21 -0.0837337)
(7.88829e-20 -1.68423e-20 -0.0884444)
(-2.59469e-20 1.28679e-20 -0.0917389)
(-1.31963e-20 6.6247e-22 -0.0938141)
(1.88866e-20 1.00247e-20 -0.0948335)
(-8.91456e-20 -9.50223e-20 -0.0949399)
(7.27964e-20 7.36341e-20 -0.0942581)
(-9.0848e-21 1.30594e-20 -0.0928984)
(8.2716e-21 -8.5876e-21 -0.0909601)
(9.14966e-20 1.80134e-19 -0.088533)
(-9.53146e-20 -1.65847e-19 -0.0856994)
(1.50945e-22 -1.04982e-20 -0.0825332)
(-2.36196e-21 -8.63663e-23 -0.0791014)
(2.57497e-21 4.85453e-22 -0.0754587)
(1.83246e-21 -6.77809e-23 -0.0716609)
(-3.99058e-21 5.23811e-21 -0.0677554)
(4.19571e-21 4.31888e-22 -0.0637943)
(1.02979e-21 7.92833e-21 -0.0598218)
(-1.07039e-19 -4.21095e-19 -0.0558767)
(1.07707e-19 4.11069e-19 -0.0519859)
(-3.1228e-21 2.89804e-21 -0.0481757)
(-4.76832e-20 -2.46793e-19 -0.0444694)
(5.17523e-20 2.54052e-19 -0.0408866)
(-5.24938e-22 6.43199e-22 -0.0374438)
(-1.73854e-22 -1.14734e-22 -0.0341541)
(-4.58064e-20 -3.05371e-19 -0.0310278)
(8.96739e-20 6.13522e-19 -0.0280724)
(-8.49233e-20 -6.26452e-19 -0.0252927)
(8.18671e-20 6.486e-19 -0.0226914)
(-7.80397e-20 -6.69656e-19 -0.0202692)
(3.79199e-20 3.4019e-19 -0.0180246)
(1.7191e-20 1.79452e-19 -0.0159547)
(-1.50635e-20 -1.57066e-19 -0.0140552)
(-1.24581e-21 -1.17723e-20 -0.0123206)
(-1.44646e-20 -1.92147e-19 -0.0107441)
(3.03917e-20 4.13418e-19 -0.00931842)
(-1.40399e-20 -1.96915e-19 -0.00803536)
(1.45184e-22 2.38843e-22 -0.00688621)
(5.8471e-22 1.27963e-20 -0.00586166)
(-1.25867e-22 -9.90579e-23 -0.00495155)
(-5.71969e-22 -1.31735e-20 -0.00414398)
(1.23637e-21 2.68184e-20 -0.00342316)
(2.73303e-20 9.70207e-23 0.0540674)
(3.41603e-22 4.0094e-22 0.013686)
(-6.16854e-20 4.43981e-22 -0.0209218)
(9.11886e-20 -3.06448e-22 -0.0470832)
(-2.72901e-20 -3.835e-23 -0.066996)
(-4.35728e-20 -8.55394e-22 -0.0822888)
(1.42704e-20 1.39971e-22 -0.0940501)
(-1.14982e-20 -2.56869e-22 -0.103)
(9.27531e-20 -2.54153e-20 -0.10966)
(5.02989e-20 1.19555e-19 -0.114411)
(2.3894e-21 7.60302e-20 -0.117536)
(-8.27558e-20 -1.73465e-19 -0.119273)
(1.34921e-19 2.16147e-19 -0.119816)
(-1.53343e-19 -2.07571e-19 -0.119325)
(7.28214e-20 1.39186e-19 -0.117945)
(-8.43151e-20 -1.46245e-19 -0.115802)
(5.29184e-21 -6.03485e-21 -0.113011)
(-2.50083e-20 -2.53325e-21 -0.109676)
(2.1364e-20 -4.28693e-21 -0.10589)
(1.80079e-21 3.5591e-21 -0.10174)