/*--------------------------------*- C++ -*----------------------------------*\
| =========                 |                                                 |
| \\      /  F ield         | OpenFOAM: The Open Source CFD Toolbox           |
|  \\    /   O peration     | Version:  2412                                  |
|   \\  /    A nd           | Website:  www.openfoam.com                      |
|    \\/     M anipulation  |                                                 |
\*---------------------------------------------------------------------------*/
FoamFile
{
    version     2.0;
    format      ascii;
    arch        "LSB;label=32;scalar=64";
    class       volScalarField;
    location    "26";
    object      p;
}
// * * * * * * * * * * * * * * * * * * * * * * * * * * * * * * * * * * * * * //

dimensions      [0 2 -2 0 0 0 0];

internalField   nonuniform List<scalar> 
63420
(
0.000917171
0.000917433
0.000918265
0.00091955
0.000921271
0.000923414
0.000925964
0.000928905
0.000932227
0.00093592
0.000939975
0.000944384
0.000949142
0.000954243
0.000959682
0.000965456
0.00097156
0.000977992
0.000984748
0.000991827
0.000999227
0.00100695
0.00101499
0.00102335
0.00103204
0.00104106
0.0010504
0.00106007
0.00107008
0.00108043
0.00109112
0.00110215
0.00111354
0.00112527
0.00113736
0.00114981
0.00116262
0.0011758
0.00118936
0.00120328
0.00121759
0.00123227
0.00124734
0.00126281
0.00127867
0.00129492
0.00131158
0.00132865
0.00134612
0.00136402
0.00138233
0.00140107
0.00142024
0.00143984
0.00145988
0.000917111
0.000917372
0.000918204
0.000919488
0.000921208
0.00092335
0.000925897
0.000928837
0.000932156
0.000935846
0.000939898
0.000944304
0.000949058
0.000954155
0.00095959
0.000965358
0.000971458
0.000977884
0.000984634
0.000991707
0.0009991
0.00100681
0.00101485
0.0010232
0.00103188
0.00104089
0.00105022
0.00105988
0.00106988
0.00108022
0.00109089
0.00110192
0.00111328
0.001125
0.00113708
0.00114951
0.00116231
0.00117547
0.001189
0.0012029
0.00121718
0.00123184
0.00124689
0.00126233
0.00127816
0.00129438
0.00131101
0.00132804
0.00134548
0.00136333
0.00138161
0.0014003
0.00141942
0.00143897
0.00145896
0.00091699
0.000917252
0.000918082
0.000919364
0.000921081
0.000923221
0.000925764
0.000928699
0.000932014
0.000935698
0.000939744
0.000944143
0.00094889
0.000953978
0.000959405
0.000965164
0.000971253
0.000977668
0.000984406
0.000991466
0.000998846
0.00100655
0.00101456
0.0010229
0.00103157
0.00104055
0.00104986
0.00105951
0.00106948
0.00107979
0.00109045
0.00110144
0.00111278
0.00112447
0.00113651
0.00114891
0.00116167
0.00117479
0.00118828
0.00120214
0.00121638
0.00123099
0.00124598
0.00126137
0.00127714
0.0012933
0.00130986
0.00132683
0.00134419
0.00136197
0.00138016
0.00139877
0.0014178
0.00143725
0.00145713
0.00091681
0.000917071
0.000917899
0.000919178
0.000920892
0.000923027
0.000925565
0.000928494
0.000931801
0.000935477
0.000939513
0.000943902
0.000948638
0.000953714
0.000959127
0.000964872
0.000970946
0.000977344
0.000984065
0.000991106
0.000998465
0.00100614
0.00101414
0.00102245
0.00103109
0.00104005
0.00104933
0.00105894
0.00106888
0.00107916
0.00108977
0.00110073
0.00111202
0.00112367
0.00113566
0.00114801
0.00116071
0.00117378
0.00118721
0.001201
0.00121517
0.00122971
0.00124463
0.00125993
0.00127561
0.00129169
0.00130815
0.00132501
0.00134227
0.00135993
0.001378
0.00139648
0.00141537
0.00143468
0.0014544
0.000916569
0.000916829
0.000917655
0.000918931
0.00092064
0.000922768
0.000925299
0.00092822
0.000931517
0.000935182
0.000939206
0.000943582
0.000948302
0.000953363
0.000958758
0.000964484
0.000970537
0.000976914
0.000983611
0.000990626
0.000997959
0.00100561
0.00101357
0.00102185
0.00103045
0.00103938
0.00104862
0.00105819
0.00106809
0.00107831
0.00108888
0.00109978
0.00111102
0.0011226
0.00113453
0.00114681
0.00115944
0.00117243
0.00118578
0.00119949
0.00121356
0.00122801
0.00124283
0.00125802
0.00127359
0.00128954
0.00130588
0.0013226
0.00133972
0.00135723
0.00137514
0.00139344
0.00141215
0.00143126
0.00145078
0.000916269
0.000916528
0.000917351
0.000918622
0.000920325
0.000922446
0.000924968
0.000927877
0.000931163
0.000934814
0.000938823
0.000943182
0.000947884
0.000952924
0.000958298
0.000964
0.000970027
0.000976376
0.000983044
0.000990028
0.000997326
0.00100494
0.00101287
0.00102111
0.00102966
0.00103854
0.00104773
0.00105725
0.00106709
0.00107726
0.00108776
0.00109859
0.00110976
0.00112127
0.00113312
0.00114532
0.00115786
0.00117075
0.001184
0.0011976
0.00121157
0.00122589
0.00124058
0.00125564
0.00127107
0.00128687
0.00130305
0.00131961
0.00133655
0.00135387
0.00137157
0.00138967
0.00140815
0.00142703
0.00144629
0.000915908
0.000916167
0.000916986
0.000918253
0.000919948
0.00092206
0.000924571
0.000927467
0.000930738
0.000934373
0.000938364
0.000942702
0.000947382
0.000952399
0.000957746
0.00096342
0.000969417
0.000975733
0.000982365
0.000989311
0.000996569
0.00100414
0.00101202
0.00102021
0.00102872
0.00103754
0.00104667
0.00105613
0.0010659
0.001076
0.00108642
0.00109718
0.00110826
0.00111968
0.00113144
0.00114353
0.00115597
0.00116875
0.00118188
0.00119535
0.00120918
0.00122337
0.00123791
0.00125281
0.00126807
0.00128369
0.00129968
0.00131604
0.00133276
0.00134986
0.00136733
0.00138518
0.00140339
0.00142199
0.00144094
0.00148041
0.00150167
0.00152383
0.00154695
0.00157108
0.00159628
0.00162262
0.00165017
0.001679
0.00170919
0.00174084
0.00177403
0.00180887
0.00184547
0.00188396
0.00192446
0.00196713
0.00201211
0.00205958
0.00210973
0.00216277
0.00221891
0.00227842
0.00234156
0.00240863
0.00247996
0.00255593
0.00263693
0.0027234
0.00281583
0.00291477
0.00302078
0.00313453
0.0032567
0.00338804
0.00352933
0.00368135
0.00384487
0.00402051
0.00420869
0.00440936
0.00462177
0.0048442
0.00507369
0.00530644
0.00553866
0.00576691
0.00599769
0.00629572
0.00674956
0.00147948
0.00150073
0.00152289
0.001546
0.00157013
0.00159533
0.00162167
0.00164921
0.00167804
0.00170823
0.00173987
0.00177305
0.00180788
0.00184447
0.00188295
0.00192343
0.00196607
0.00201102
0.00205846
0.00210856
0.00216154
0.00221761
0.00227703
0.00234006
0.002407
0.00247817
0.00255393
0.00263468
0.00272083
0.00281287
0.00291131
0.0030167
0.00312966
0.00325083
0.00338089
0.00352054
0.00367045
0.00383123
0.00400333
0.00418687
0.00438148
0.00458599
0.00479808
0.00501413
0.00522949
0.00543948
0.00564015
0.00583715
0.006091
0.00648334
0.00147759
0.00149885
0.001521
0.00154411
0.00156823
0.00159343
0.00161976
0.0016473
0.00167611
0.00170629
0.00173792
0.00177109
0.0018059
0.00184247
0.00188091
0.00192136
0.00196395
0.00200885
0.00205621
0.00210622
0.00215909
0.00221502
0.00227427
0.00233709
0.00240377
0.00247461
0.00254997
0.00263022
0.00271575
0.00280701
0.00290447
0.00300864
0.00312005
0.00323924
0.00336679
0.0035032
0.00364894
0.00380431
0.00396935
0.00414366
0.00432618
0.00451482
0.00470615
0.00489511
0.00507536
0.0052404
0.00538547
0.00551474
0.00567627
0.005958
0.00147478
0.00149603
0.00151817
0.00154127
0.00156539
0.00159057
0.00161689
0.00164441
0.00167322
0.00170338
0.00173498
0.00176812
0.0018029
0.00183943
0.00187782
0.00191821
0.00196072
0.00200552
0.00205277
0.00210264
0.00215533
0.00221105
0.00227003
0.00233252
0.00239879
0.00246914
0.00254387
0.00262335
0.00270793
0.002798
0.00289397
0.00299627
0.00310533
0.00322154
0.00334529
0.00347683
0.00361631
0.00376357
0.00391807
0.00407863
0.00424313
0.00440814
0.0045685
0.00471708
0.00484498
0.00494288
0.00500472
0.0050358
0.00506891
0.00515584
0.00147105
0.00149229
0.00151443
0.00153752
0.00156162
0.0015868
0.00161311
0.00164062
0.00166941
0.00169955
0.00173114
0.00176425
0.001799
0.00183548
0.00187382
0.00191413
0.00195656
0.00200125
0.00204835
0.00209805
0.00215052
0.00220596
0.0022646
0.00232666
0.00239241
0.0024621
0.00253602
0.00261448
0.00269779
0.00278628
0.00288026
0.00298006
0.00308595
0.00319814
0.00331675
0.00344171
0.00357269
0.00370895
0.00384915
0.00399106
0.00413118
0.00426432
0.00438309
0.00447766
0.00453593
0.00454491
0.00449585
0.00439693
0.00426981
0.00405582
0.00146641
0.00148765
0.0015098
0.00153291
0.00155703
0.00158223
0.00160856
0.0016361
0.00166492
0.0016951
0.00172672
0.00175987
0.00179465
0.00183117
0.00186953
0.00190987
0.00195231
0.00199701
0.0020441
0.00209376
0.00214616
0.00220151
0.00225999
0.00232184
0.00238728
0.00245656
0.00252993
0.00260765
0.00269
0.00277721
0.00286952
0.00296711
0.00307009
0.00317844
0.00329194
0.00341006
0.00353183
0.00365561
0.00377882
0.00389753
0.00400597
0.00409602
0.00415662
0.0041736
0.00412996
0.00400773
0.0037938
0.00349714
0.00313119
0.00251141
0.00146085
0.00148203
0.00150413
0.00152718
0.00155126
0.00157641
0.0016027
0.00163019
0.00165897
0.0016891
0.00172067
0.00175378
0.00178851
0.00182497
0.00186328
0.00190356
0.00194593
0.00199053
0.00203753
0.00208706
0.00213931
0.00219447
0.00225272
0.00231427
0.00237935
0.00244815
0.00252093
0.00259789
0.00267925
0.00276519
0.00285586
0.0029513
0.00305147
0.00315609
0.00326461
0.00337599
0.00348855
0.00359958
0.00370494
0.00379847
0.0038713
0.00391112
0.0039016
0.00382243
0.00365012
0.00335949
0.00293408
0.00238692
0.00168143
0.00053186
-0.00348532
-0.00355226
-0.00357478
-0.00356611
-0.00353765
-0.00349232
-0.00343182
-0.00335774
-0.00327226
-0.00317669
-0.00307167
-0.0029585
-0.00283832
-0.00271222
-0.00258124
-0.00244642
-0.00230879
-0.00216936
-0.00202912
-0.001889
-0.0017499
-0.00161264
-0.001478
-0.00134678
-0.00121964
-0.00109711
-0.000979659
-0.000867705
-0.000761589
-0.000661567
-0.000567814
-0.000480435
-0.000399464
-0.000324873
-0.000256573
-0.000194423
-0.000138235
-8.77828e-05
-4.28074e-05
-3.02288e-06
3.18765e-05
6.22103e-05
8.83063e-05
0.000110495
0.000129107
0.000144463
0.000156879
0.000166655
0.000174076
0.000179412
-0.00355471
-0.00360133
-0.00361159
-0.00359554
-0.00356208
-0.00351341
-0.00345077
-0.00337532
-0.00328935
-0.00319325
-0.00308801
-0.00297481
-0.00285472
-0.00272869
-0.0025978
-0.00246302
-0.00232539
-0.0021859
-0.00204553
-0.00190522
-0.00176586
-0.00162826
-0.00149323
-0.00136156
-0.00123392
-0.00111087
-0.000992857
-0.000880314
-0.000773592
-0.000672951
-0.000578577
-0.000490578
-0.000408996
-0.000333804
-0.000264918
-0.000202201
-0.000145468
-9.44945e-05
-4.90224e-05
-8.76684e-06
2.65773e-05
5.73295e-05
8.38178e-05
0.000106374
0.000125327
0.000141003
0.000153716
0.000163768
0.000171445
0.000177024
-0.00369276
-0.00369818
-0.00368405
-0.00365335
-0.00360976
-0.0035543
-0.00348722
-0.00340853
-0.00332169
-0.00322477
-0.00311921
-0.003006
-0.00288617
-0.00276017
-0.00262954
-0.00249495
-0.00235737
-0.00221781
-0.00207725
-0.00193661
-0.00179678
-0.00165859
-0.00152283
-0.00139031
-0.00126173
-0.00113767
-0.00101859
-0.000904919
-0.000797029
-0.000695199
-0.000599625
-0.000510427
-0.000427657
-0.000351299
-0.000281276
-0.000217457
-0.000159662
-0.000107672
-6.12302e-05
-2.0055e-05
1.61579e-05
4.7728e-05
7.49837e-05
9.82575e-05
0.000117881
0.000134181
0.000147475
0.000158069
0.000166248
0.000172304
-0.00390535
-0.00383614
-0.00378981
-0.00373703
-0.0036781
-0.00361258
-0.0035384
-0.00345338
-0.00336649
-0.00326894
-0.00316301
-0.00304947
-0.00293005
-0.00280469
-0.00267439
-0.00254005
-0.00240262
-0.00226305
-0.00212228
-0.00198123
-0.00184081
-0.00170184
-0.0015651
-0.00143142
-0.00130155
-0.00117608
-0.00105551
-0.000940256
-0.000830727
-0.000727219
-0.000629948
-0.000539052
-0.000454596
-0.000376579
-0.000304934
-0.000239542
-0.000180229
-0.000126782
-7.89516e-05
-3.64568e-05
1.00436e-06
3.37503e-05
6.21101e-05
8.64175e-05
0.000107006
0.000124206
0.000138338
0.000149711
0.000158617
0.000165365
-0.00417468
-0.0040163
-0.00392665
-0.00384194
-0.00376253
-0.00368414
-0.00360249
-0.0035196
-0.00342288
-0.00332215
-0.00321554
-0.00310232
-0.00298303
-0.00285815
-0.00272839
-0.00259455
-0.00245748
-0.00231806
-0.00217721
-0.00203586
-0.00189488
-0.00175512
-0.00161737
-0.00148243
-0.00135109
-0.00122402
-0.0011017
-0.0009846
-0.000873128
-0.000767614
-0.000668299
-0.000575342
-0.000488829
-0.000408774
-0.000335128
-0.000267783
-0.000206579
-0.00015131
-0.000101733
-5.75733e-05
-1.85318e-05
1.57081e-05
4.54749e-05
7.1103e-05
9.2928e-05
0.000111282
0.00012649
0.000138866
0.00014871
0.000156354
-0.00445865
-0.00423971
-0.00409666
-0.00397291
-0.00386515
-0.00376574
-0.00366886
-0.00357797
-0.00347923
-0.00337661
-0.00326903
-0.00315588
-0.00303727
-0.00291347
-0.00278495
-0.00265233
-0.00251635
-0.00237782
-0.00223758
-0.00209653
-0.00195556
-0.00181549
-0.00167712
-0.00154124
-0.00140866
-0.00128009
-0.00115609
-0.00103712
-0.000923621
-0.000815966
-0.000714421
-0.000619174
-0.000530337
-0.00044795
-0.000371986
-0.000302354
-0.000238911
-0.000181465
-0.000129785
-8.36038e-05
-4.263e-05
-6.5514e-06
2.49575e-05
5.22297e-05
7.56007e-05
9.5404e-05
0.000111967
0.000125607
0.000136638
0.000145405
-0.00473159
-0.00452069
-0.00432684
-0.00415411
-0.00400663
-0.00387536
-0.00376655
-0.00365752
-0.00355082
-0.00344377
-0.00333378
-0.0032198
-0.00310139
-0.0029784
-0.00285099
-0.00271955
-0.00258465
-0.00244698
-0.00230731
-0.00216648
-0.00202536
-0.0018848
-0.00174559
-0.0016085
-0.00147438
-0.00134397
-0.00121789
-0.00109665
-0.000980728
-0.000870522
-0.00076634
-0.000668402
-0.000576854
-0.000491761
-0.000413122
-0.000340869
-0.000274876
-0.000214967
-0.000160922
-0.000112484
-6.9367e-05
-3.12632e-05
2.15068e-06
3.12075e-05
5.62441e-05
7.75962e-05
9.55943e-05
0.00011056
0.00012282
0.000132716
0.000182922
0.000184763
0.000185189
0.000184392
0.000182512
0.000179688
0.000176053
0.000171733
0.000166846
0.0001615
0.000155795
0.000149825
0.000143672
0.00013741
0.000131104
0.000124811
0.000118579
0.000112449
0.000106453
0.000100618
9.49659e-05
8.95109e-05
8.42645e-05
7.92338e-05
7.44226e-05
6.98321e-05
6.54612e-05
6.13072e-05
5.73657e-05
5.36318e-05
5.00993e-05
4.6762e-05
4.36132e-05
4.06458e-05
3.7853e-05
3.52278e-05
3.2763e-05
3.04517e-05
2.82867e-05
2.62608e-05
2.43672e-05
2.25983e-05
2.09487e-05
1.94072e-05
1.79725e-05
1.664e-05
1.53943e-05
1.42358e-05
1.3159e-05
1.21579e-05
1.12275e-05
1.03634e-05
9.56123e-06
8.81687e-06
8.12652e-06
7.48657e-06
6.89364e-06
6.34454e-06
5.83625e-06
5.36597e-06
4.93105e-06
4.52902e-06
4.15756e-06
3.8145e-06
3.49781e-06
3.20559e-06
2.93608e-06
2.68762e-06
2.4587e-06
2.24787e-06
2.05381e-06
1.87526e-06
1.7111e-06
1.56024e-06
1.42171e-06
1.29457e-06
1.17797e-06
1.07109e-06
9.73302e-07
8.83694e-07
8.02091e-07
7.27063e-07
6.59546e-07
5.96523e-07
5.41715e-07
4.87801e-07
4.45482e-07
3.96782e-07
3.68677e-07
3.1934e-07
3.10246e-07
2.51114e-07
2.70031e-07
1.87708e-07
2.48016e-07
1.2577e-07
2.43144e-07
6.47048e-08
2.5136e-07
8.00228e-09
2.64405e-07
-3.66879e-08
2.72178e-07
-6.15889e-08
2.68329e-07
-6.68125e-08
2.5956e-07
-6.89162e-08
2.72191e-07
-1.04273e-07
3.50666e-07
-2.22759e-07
5.45781e-07
-4.75218e-07
8.9506e-07
0.000180793
0.000182753
0.000183299
0.000182637
0.000180892
0.000178197
0.000174684
0.00017048
0.0001657
0.000160454
0.000154843
0.000148958
0.000142884
0.000136694
0.000130455
0.000124223
0.000118047
0.000111967
0.000106018
0.000100225
9.46108e-05
8.91903e-05
8.39752e-05
7.89728e-05
7.41872e-05
6.96199e-05
6.527e-05
6.11349e-05
5.72106e-05
5.34922e-05
4.99738e-05
4.66492e-05
4.35118e-05
4.05548e-05
3.77714e-05
3.51546e-05
3.26974e-05
3.03929e-05
2.8234e-05
2.62136e-05
2.4325e-05
2.25605e-05
2.09148e-05
1.93769e-05
1.79453e-05
1.66157e-05
1.53725e-05
1.42163e-05
1.31416e-05
1.21423e-05
1.12136e-05
1.0351e-05
9.55014e-06
8.80698e-06
8.1177e-06
7.47872e-06
6.88665e-06
6.33831e-06
5.83071e-06
5.36104e-06
4.92668e-06
4.52514e-06
4.15412e-06
3.81145e-06
3.4951e-06
3.20319e-06
2.93395e-06
2.68574e-06
2.45703e-06
2.2464e-06
2.0525e-06
1.8741e-06
1.71008e-06
1.55934e-06
1.42091e-06
1.29386e-06
1.17735e-06
1.07054e-06
9.72813e-07
8.83263e-07
8.0171e-07
7.26728e-07
6.5925e-07
5.96262e-07
5.41484e-07
4.87599e-07
4.45302e-07
3.96627e-07
3.68538e-07
3.19223e-07
3.10136e-07
2.51027e-07
2.69941e-07
1.87644e-07
2.47942e-07
1.25726e-07
2.43084e-07
6.46747e-08
2.51309e-07
7.9793e-09
2.64364e-07
-3.67057e-08
2.72144e-07
-6.16046e-08
2.68298e-07
-6.68227e-08
2.59526e-07
-6.89118e-08
2.72139e-07
-1.04243e-07
3.50599e-07
-2.22723e-07
5.45751e-07
-4.75212e-07
8.95165e-07
0.000176559
0.000178761
0.00017955
0.000179158
0.00017768
0.000175239
0.000171969
0.000167992
0.000163425
0.000158378
0.00015295
0.000147235
0.000141318
0.000135272
0.000129165
0.000123054
0.000116988
0.000111009
0.000105151
9.94419e-05
9.39032e-05
8.85514e-05
8.33985e-05
7.84525e-05
7.37179e-05
6.91968e-05
6.48886e-05
6.07913e-05
5.69012e-05
5.32136e-05
4.97232e-05
4.64239e-05
4.33094e-05
4.03731e-05
3.76083e-05
3.50084e-05
3.25663e-05
3.02755e-05
2.81288e-05
2.61195e-05
2.42407e-05
2.24849e-05
2.08472e-05
1.93163e-05
1.78911e-05
1.65671e-05
1.53291e-05
1.41774e-05
1.31068e-05
1.21112e-05
1.11858e-05
1.03262e-05
9.52798e-06
8.78721e-06
8.10008e-06
7.46302e-06
6.87267e-06
6.32587e-06
5.81964e-06
5.3512e-06
4.91793e-06
4.51737e-06
4.14722e-06
3.80533e-06
3.48967e-06
3.19838e-06
2.92969e-06
2.68196e-06
2.45369e-06
2.24344e-06
2.04988e-06
1.87179e-06
1.70803e-06
1.55752e-06
1.41931e-06
1.29244e-06
1.1761e-06
1.06943e-06
9.71838e-07
8.82402e-07
8.00949e-07
7.26059e-07
6.58657e-07
5.95741e-07
5.41022e-07
4.87194e-07
4.44939e-07
3.96319e-07
3.68255e-07
3.1899e-07
3.09913e-07
2.50851e-07
2.69758e-07
1.87518e-07
2.47793e-07
1.2564e-07
2.42962e-07
6.46111e-08
2.51204e-07
7.93291e-09
2.64285e-07
-3.67432e-08
2.72078e-07
-6.16372e-08
2.68242e-07
-6.68445e-08
2.59459e-07
-6.89034e-08
2.72037e-07
-1.04178e-07
3.50453e-07
-2.22631e-07
5.45671e-07
-4.7518e-07
8.95367e-07
0.000170271
0.000172843
0.000174006
0.000174016
0.000172932
0.000170866
0.000167951
0.00016431
0.000160056
0.0001553
0.000150143
0.000144678
0.000138992
0.000133159
0.000127247
0.000121314
0.000115412
0.000109582
0.00010386
9.8275e-05
9.28487e-05
8.7599e-05
8.25386e-05
7.76764e-05
7.30177e-05
6.85653e-05
6.43193e-05
6.02783e-05
5.64391e-05
5.27977e-05
4.9349e-05
4.60874e-05
4.3007e-05
4.01015e-05
3.73646e-05
3.47898e-05
3.23704e-05
3.00999e-05
2.79715e-05
2.59786e-05
2.41145e-05
2.23719e-05
2.07459e-05
1.92257e-05
1.78099e-05
1.64944e-05
1.5264e-05
1.41192e-05
1.30547e-05
1.20646e-05
1.11442e-05
1.0289e-05
9.49479e-06
8.75761e-06
8.07369e-06
7.4395e-06
6.85172e-06
6.30723e-06
5.80306e-06
5.33646e-06
4.90483e-06
4.50574e-06
4.1369e-06
3.79617e-06
3.48155e-06
3.19118e-06
2.9233e-06
2.67631e-06
2.44868e-06
2.239e-06
2.04595e-06
1.86831e-06
1.70495e-06
1.55481e-06
1.4169e-06
1.29031e-06
1.17422e-06
1.06777e-06
9.70374e-07
8.81108e-07
7.99806e-07
7.25053e-07
6.57767e-07
5.94958e-07
5.40328e-07
4.86587e-07
4.44396e-07
3.95854e-07
3.6783e-07
3.18638e-07
3.09578e-07
2.50586e-07
2.69485e-07
1.87326e-07
2.4757e-07
1.25508e-07
2.4278e-07
6.45163e-08
2.5105e-07
7.86261e-09
2.64168e-07
-3.68006e-08
2.71983e-07
-6.16879e-08
2.68161e-07
-6.68788e-08
2.59363e-07
-6.88935e-08
2.71889e-07
-1.04086e-07
3.50243e-07
-2.22502e-07
5.45556e-07
-4.75138e-07
8.95665e-07
0.000162013
0.000165086
0.000166762
0.000167301
0.000166729
0.000165151
0.000162697
0.000159488
0.000155641
0.000151263
0.000146457
0.000141319
0.000135933
0.000130377
0.000124721
0.000119022
0.000113334
0.0001077
0.000102157
9.67338e-05
9.14554e-05
8.634e-05
8.14014e-05
7.66497e-05
7.20912e-05
6.77294e-05
6.35655e-05
5.95988e-05
5.5827e-05
5.22464e-05
4.88529e-05
4.56412e-05
4.26059e-05
3.97413e-05
3.70413e-05
3.44997e-05
3.21102e-05
2.98667e-05
2.77626e-05
2.57914e-05
2.39468e-05
2.22217e-05
2.06114e-05
1.91052e-05
1.7702e-05
1.63978e-05
1.51775e-05
1.40417e-05
1.29855e-05
1.20027e-05
1.10888e-05
1.02395e-05
9.45065e-06
8.71822e-06
8.03857e-06
7.40821e-06
6.82386e-06
6.28242e-06
5.781e-06
5.31685e-06
4.8874e-06
4.49026e-06
4.12315e-06
3.78397e-06
3.47073e-06
3.18158e-06
2.9148e-06
2.66878e-06
2.44201e-06
2.23309e-06
2.04072e-06
1.86369e-06
1.70086e-06
1.55118e-06
1.4137e-06
1.28748e-06
1.17172e-06
1.06556e-06
9.68421e-07
8.79384e-07
7.98282e-07
7.23711e-07
6.5658e-07
5.93914e-07
5.39403e-07
4.85777e-07
4.43673e-07
3.95233e-07
3.67265e-07
3.18166e-07
3.09134e-07
2.50232e-07
2.69125e-07
1.87067e-07
2.47278e-07
1.25325e-07
2.42544e-07
6.43826e-08
2.50856e-07
7.75917e-09
2.64021e-07
-3.68887e-08
2.71871e-07
-6.17673e-08
2.68067e-07
-6.69354e-08
2.59249e-07
-6.88911e-08
2.71705e-07
-1.03978e-07
3.49983e-07
-2.22352e-07
5.45427e-07
-4.75109e-07
8.96073e-07
0.00015189
0.000155614
0.000157946
0.00015913
0.000159177
0.000158186
0.000156287
0.000153601
0.000150242
0.000146321
0.000141941
0.000137197
0.000132177
0.000126958
0.000121612
0.0001162
0.000110773
0.000105379
0.000100054
9.48307e-05
8.97338e-05
8.47835e-05
7.99949e-05
7.53792e-05
7.0944e-05
6.66941e-05
6.26316e-05
5.87566e-05
5.50679e-05
5.15627e-05
4.82373e-05
4.50874e-05
4.2108e-05
3.92939e-05
3.66395e-05
3.41391e-05
3.17869e-05
2.95767e-05
2.75027e-05
2.55585e-05
2.37381e-05
2.20348e-05
2.04439e-05
1.89552e-05
1.75677e-05
1.62774e-05
1.50697e-05
1.39453e-05
1.28992e-05
1.19255e-05
1.10198e-05
1.01779e-05
9.39563e-06
8.66914e-06
7.9948e-06
7.3692e-06
6.78912e-06
6.2515e-06
5.75349e-06
5.29238e-06
4.86566e-06
4.47095e-06
4.10601e-06
3.76876e-06
3.45723e-06
3.16962e-06
2.9042e-06
2.65938e-06
2.43369e-06
2.22572e-06
2.0342e-06
1.85791e-06
1.69575e-06
1.54666e-06
1.4097e-06
1.28394e-06
1.16859e-06
1.0628e-06
9.65982e-07
8.7723e-07
7.96379e-07
7.22034e-07
6.55097e-07
5.9261e-07
5.38247e-07
4.84765e-07
4.4277e-07
3.94456e-07
3.66559e-07
3.17575e-07
3.08576e-07
2.49789e-07
2.68675e-07
1.86743e-07
2.46912e-07
1.25098e-07
2.42246e-07
6.42184e-08
2.50611e-07
7.63386e-09
2.63835e-07
-3.69946e-08
2.71727e-07
-6.18621e-08
2.67946e-07
-6.70025e-08
2.59104e-07
-6.88857e-08
2.71475e-07
-1.03845e-07
3.4966e-07
-2.22163e-07
5.45259e-07
-4.75063e-07
8.96536e-07
0.000140014
0.000144567
0.000147705
0.000149641
0.000150397
0.000150079
0.000148816
0.000146728
0.000143931
0.000140535
0.000136646
0.000132358
0.000127762
0.000122936
0.000117951
0.000112872
0.000107751
0.000102637
9.75687e-05
9.25794e-05
8.76959e-05
8.29397e-05
7.83277e-05
7.38724e-05
6.95829e-05
6.5465e-05
6.15223e-05
5.77559e-05
5.41656e-05
5.07496e-05
4.7505e-05
4.44283e-05
4.15152e-05
3.8761e-05
3.61609e-05
3.37094e-05
3.14013e-05
2.92309e-05
2.71926e-05
2.52805e-05
2.3489e-05
2.18115e-05
2.02438e-05
1.8776e-05
1.74071e-05
1.61335e-05
1.49409e-05
1.383e-05
1.2796e-05
1.18332e-05
1.09373e-05
1.01042e-05
9.32983e-06
8.61042e-06
7.94244e-06
7.32254e-06
6.74755e-06
6.21449e-06
5.72056e-06
5.26311e-06
4.83964e-06
4.44783e-06
4.08549e-06
3.75054e-06
3.44108e-06
3.15529e-06
2.8915e-06
2.64813e-06
2.42372e-06
2.21689e-06
2.02638e-06
1.85099e-06
1.68963e-06
1.54125e-06
1.40491e-06
1.27971e-06
1.16485e-06
1.05949e-06
9.63058e-07
8.74648e-07
7.94098e-07
7.20023e-07
6.53318e-07
5.91046e-07
5.36859e-07
4.83554e-07
4.41684e-07
3.93529e-07
3.65704e-07
3.16878e-07
3.07891e-07
2.4928e-07
2.68104e-07
1.86396e-07
2.46421e-07
1.24888e-07
2.4181e-07
6.41138e-08
2.50213e-07
7.60208e-09
2.63483e-07
-3.69871e-08
2.71419e-07
-6.18399e-08
2.67671e-07
-6.69592e-08
2.58816e-07
-6.87677e-08
2.71087e-07
-1.03563e-07
3.49128e-07
-2.21752e-07
5.44808e-07
-4.74684e-07
8.96671e-07
0.000126137
0.000131797
0.000135934
0.000138728
0.000140285
0.000140725
0.000140179
0.000138768
0.000136609
0.000133812
0.000130483
0.000126719
0.000122609
0.000118235
0.000113668
0.000108973
0.000104207
9.94187e-05
9.46487e-05
8.99321e-05
8.52975e-05
8.07683e-05
7.63629e-05
7.20955e-05
6.79767e-05
6.40139e-05
6.02118e-05
5.65732e-05
5.30987e-05
4.97877e-05
4.66383e-05
4.36479e-05
4.08129e-05
3.81295e-05
3.55933e-05
3.31997e-05
3.09438e-05
2.88204e-05
2.68244e-05
2.49504e-05
2.3193e-05
2.15462e-05
2.0006e-05
1.85629e-05
1.72162e-05
1.59623e-05
1.47876e-05
1.36928e-05
1.26732e-05
1.17234e-05
1.08392e-05
1.00165e-05
9.25148e-06
8.5405e-06
7.88008e-06
7.26695e-06
6.69803e-06
6.17041e-06
5.68133e-06
5.22822e-06
4.80863e-06
4.42028e-06
4.06102e-06
3.72882e-06
3.42181e-06
3.1382e-06
2.87635e-06
2.6347e-06
2.41182e-06
2.20636e-06
2.01705e-06
1.84274e-06
1.68232e-06
1.53478e-06
1.3992e-06
1.27465e-06
1.16038e-06
1.05554e-06
9.59566e-07
8.71565e-07
7.91373e-07
7.1762e-07
6.51192e-07
5.89179e-07
5.35197e-07
4.82111e-07
4.40379e-07
3.9243e-07
3.64668e-07
3.16065e-07
3.07041e-07
2.48713e-07
2.67369e-07
1.86052e-07
2.45744e-07
1.2475e-07
2.4115e-07
6.41512e-08
2.49551e-07
7.77248e-09
2.62837e-07
-3.67417e-08
2.70811e-07
-6.1576e-08
2.67116e-07
-6.6693e-08
2.58271e-07
-6.84354e-08
2.70431e-07
-1.03018e-07
3.48239e-07
-2.20935e-07
5.43833e-07
-4.73669e-07
8.96147e-07
0.000111017
0.000117693
0.000122805
0.000126508
0.000128928
0.000130194
0.000130434
0.000129768
0.000128313
0.00012618
0.000123475
0.000120295
0.00011673
0.000112862
0.000108765
0.000104506
0.000100141
9.57215e-05
9.12903e-05
8.68841e-05
8.25334e-05
7.82634e-05
7.40944e-05
7.00422e-05
6.61193e-05
6.23345e-05
5.86943e-05
5.52026e-05
5.18616e-05
4.86717e-05
4.56322e-05
4.27414e-05
3.99968e-05
3.73953e-05
3.49331e-05
3.26064e-05
3.04109e-05
2.8342e-05
2.63952e-05
2.45653e-05
2.28476e-05
2.12365e-05
1.97282e-05
1.83139e-05
1.6993e-05
1.57622e-05
1.46085e-05
1.35324e-05
1.25296e-05
1.15949e-05
1.07243e-05
9.91385e-06
9.15983e-06
8.45869e-06
7.8071e-06
7.2019e-06
6.64007e-06
6.1188e-06
5.63541e-06
5.18737e-06
4.77232e-06
4.38802e-06
4.03236e-06
3.70339e-06
3.39924e-06
3.11818e-06
2.8586e-06
2.61897e-06
2.39788e-06
2.19401e-06
2.00612e-06
1.83306e-06
1.67375e-06
1.5272e-06
1.39249e-06
1.26872e-06
1.15513e-06
1.0509e-06
9.5547e-07
8.67946e-07
7.88176e-07
7.148e-07
6.48698e-07
5.86985e-07
5.33252e-07
4.80412e-07
4.38859e-07
3.91124e-07
3.63473e-07
3.15078e-07
3.06087e-07
2.47987e-07
2.66585e-07
1.85545e-07
2.45079e-07
1.24428e-07
2.40568e-07
6.39699e-08
2.49033e-07
7.68679e-09
2.62388e-07
-3.6778e-08
2.70429e-07
-6.15957e-08
2.66786e-07
-6.66902e-08
2.57933e-07
-6.83433e-08
2.69974e-07
-1.02727e-07
3.47608e-07
-2.20485e-07
5.4332e-07
-4.73273e-07
8.96491e-07
9.50849e-05
0.000102723
0.000108788
0.000113412
0.000116721
0.000118843
0.000119903
0.000120019
0.000119307
0.000117878
0.000115837
0.00011328
0.000110299
0.000106976
0.000103387
9.95971e-05
9.5667e-05
9.16482e-05
8.75857e-05
8.35181e-05
7.94776e-05
7.54914e-05
7.15815e-05
6.77658e-05
6.40583e-05
6.04697e-05
5.70079e-05
5.36785e-05
5.04849e-05
4.7429e-05
4.45111e-05
4.17308e-05
3.90864e-05
3.65756e-05
3.41957e-05
3.19434e-05
2.98151e-05
2.78069e-05
2.59146e-05
2.4134e-05
2.24606e-05
2.08893e-05
1.94168e-05
1.80347e-05
1.67427e-05
1.55378e-05
1.44075e-05
1.33523e-05
1.23684e-05
1.14507e-05
1.05953e-05
9.79856e-06
9.05684e-06
8.36676e-06
7.72509e-06
7.12877e-06
6.57491e-06
6.06077e-06
5.58376e-06
5.14142e-06
4.73147e-06
4.35171e-06
4.00012e-06
3.67476e-06
3.37383e-06
3.09565e-06
2.83861e-06
2.60126e-06
2.38219e-06
2.18011e-06
1.99381e-06
1.82215e-06
1.6641e-06
1.51866e-06
1.38493e-06
1.26204e-06
1.14922e-06
1.04568e-06
9.50852e-07
8.63866e-07
7.84571e-07
7.11618e-07
6.45887e-07
5.84509e-07
5.3106e-07
4.78491e-07
4.37149e-07
3.89644e-07
3.62135e-07
3.13949e-07
3.05031e-07
2.47139e-07
2.65738e-07
1.84926e-07
2.44389e-07
1.2399e-07
2.4e-07
6.36617e-08
2.48567e-07
7.4595e-09
2.62022e-07
-3.69676e-08
2.70152e-07
-6.17715e-08
2.66567e-07
-6.68368e-08
2.57702e-07
-6.83924e-08
2.69622e-07
-1.02584e-07
3.47112e-07
-2.20234e-07
5.43045e-07
-4.73203e-07
8.97352e-07
7.84832e-05
8.7065e-05
9.4071e-05
9.96184e-05
0.000103826
0.00010682
0.000108719
0.000109641
0.000109698
0.000109001
0.000107652
0.000105749
0.000103382
0.000100634
9.75811e-05
9.42904e-05
9.08228e-05
8.72317e-05
8.35637e-05
7.9859e-05
7.61518e-05
7.2471e-05
6.88406e-05
6.52803e-05
6.18059e-05
5.84299e-05
5.51618e-05
5.20087e-05
4.89755e-05
4.60655e-05
4.32803e-05
4.06205e-05
3.80854e-05
3.56739e-05
3.33839e-05
3.1213e-05
2.91583e-05
2.72167e-05
2.53844e-05
2.36579e-05
2.20332e-05
2.05057e-05
1.90726e-05
1.7726e-05
1.64658e-05
1.52894e-05
1.41849e-05
1.31529e-05
1.21899e-05
1.12909e-05
1.04524e-05
9.67083e-06
8.94273e-06
8.26487e-06
7.63417e-06
7.04769e-06
6.50265e-06
5.99641e-06
5.52646e-06
5.09045e-06
4.68614e-06
4.31143e-06
3.96433e-06
3.64298e-06
3.34562e-06
3.07062e-06
2.81642e-06
2.58158e-06
2.36475e-06
2.16466e-06
1.98012e-06
1.81004e-06
1.65338e-06
1.50917e-06
1.37653e-06
1.25461e-06
1.14265e-06
1.03987e-06
9.45716e-07
8.59328e-07
7.8056e-07
7.08079e-07
6.42758e-07
5.81754e-07
5.28621e-07
4.76352e-07
4.35247e-07
3.87995e-07
3.60648e-07
3.1269e-07
3.03858e-07
2.46193e-07
2.64797e-07
1.84234e-07
2.43622e-07
1.23501e-07
2.39367e-07
6.3319e-08
2.48047e-07
7.20891e-09
2.61612e-07
-3.71759e-08
2.69842e-07
-6.19676e-08
2.66328e-07
-6.70091e-08
2.57461e-07
-6.84708e-08
2.69264e-07
-1.02465e-07
3.46602e-07
-2.19992e-07
5.42755e-07
-4.73133e-07
8.98326e-07
6.14069e-05
7.0911e-05
7.88394e-05
8.52985e-05
9.04012e-05
9.4267e-05
9.70125e-05
9.87504e-05
9.95914e-05
9.96425e-05
9.90055e-05
9.77766e-05
9.60453e-05
9.38947e-05
9.14004e-05
8.86312e-05
8.56485e-05
8.2507e-05
7.92548e-05
7.59336e-05
7.25793e-05
6.92227e-05
6.58896e-05
6.26014e-05
5.93759e-05
5.62271e-05
5.31663e-05
5.02022e-05
4.73413e-05
4.45881e-05
4.19456e-05
3.94155e-05
3.69984e-05
3.46939e-05
3.25011e-05
3.04182e-05
2.84432e-05
2.65735e-05
2.48063e-05
2.31384e-05
2.15666e-05
2.00867e-05
1.86965e-05
1.73885e-05
1.6163e-05
1.50179e-05
1.39415e-05
1.29348e-05
1.19945e-05
1.11161e-05
1.0296e-05
9.53094e-06
8.81773e-06
8.15324e-06
7.53455e-06
6.95883e-06
6.42344e-06
5.92584e-06
5.46363e-06
5.03454e-06
4.63641e-06
4.26722e-06
3.92505e-06
3.60809e-06
3.31466e-06
3.04314e-06
2.79205e-06
2.55997e-06
2.34559e-06
2.14768e-06
1.96508e-06
1.79672e-06
1.64159e-06
1.49873e-06
1.3673e-06
1.24643e-06
1.13542e-06
1.03347e-06
9.40065e-07
8.54335e-07
7.76148e-07
7.04183e-07
6.39316e-07
5.78721e-07
5.25937e-07
4.73998e-07
4.33154e-07
3.86178e-07
3.5901e-07
3.11303e-07
3.02566e-07
2.45152e-07
2.6376e-07
1.83473e-07
2.42776e-07
1.22965e-07
2.38664e-07
6.29499e-08
2.47464e-07
6.94548e-09
2.61146e-07
-3.73909e-08
2.69487e-07
-6.21715e-08
2.66056e-07
-6.71955e-08
2.57199e-07
-6.85689e-08
2.68889e-07
-1.02363e-07
3.46066e-07
-2.19744e-07
5.42425e-07
-4.73028e-07
8.9934e-07
4.40554e-05
5.44473e-05
6.32676e-05
7.06148e-05
7.65952e-05
8.13225e-05
8.49085e-05
8.74616e-05
8.90892e-05
8.98952e-05
8.99795e-05
8.94363e-05
8.83543e-05
8.68158e-05
8.48966e-05
8.26655e-05
8.01847e-05
7.751e-05