/*--------------------------------*- C++ -*----------------------------------*\
| =========                 |                                                 |
| \\      /  F ield         | OpenFOAM: The Open Source CFD Toolbox           |
|  \\    /   O peration     | Version:  2412                                  |
|   \\  /    A nd           | Website:  www.openfoam.com                      |
|    \\/     M anipulation  |                                                 |
\*---------------------------------------------------------------------------*/
FoamFile
{
    version     2.0;
    format      ascii;
    arch        "LSB;label=32;scalar=64";
    class       surfaceScalarField;
    location    "26";
    object      phi;
}
// * * * * * * * * * * * * * * * * * * * * * * * * * * * * * * * * * * * * * //

dimensions      [0 3 -1 0 0 0 0];

oriented        oriented;

internalField   nonuniform List<scalar> 
126304
(
0.00505063
1.29927e-07
2.0543e-11
0.00505025
3.78849e-07
6.01906e-11
0.00504963
6.1443e-07
8.90845e-11
0.0050488
8.38367e-07
1.06229e-10
0.00504774
1.05231e-06
1.15393e-10
0.00504649
1.25743e-06
1.21886e-10
0.00504503
1.45464e-06
1.29843e-10
0.00504338
1.64578e-06
1.40145e-10
0.00504155
1.83513e-06
1.48179e-10
0.00503952
2.03053e-06
1.42151e-10
0.00503728
2.24286e-06
1.04311e-10
0.00503479
2.48364e-06
1.58461e-11
0.00503203
2.76129e-06
-1.35902e-10
0.00502895
3.07776e-06
-3.50308e-10
0.00502553
3.42673e-06
-6.09698e-10
0.00502173
3.79419e-06
-8.80676e-10
0.00501757
4.1611e-06
-1.12028e-09
0.00501307
4.50725e-06
-1.28466e-09
0.00500825
4.81507e-06
-1.33766e-09
0.00500318
5.0724e-06
-1.25729e-09
0.00499791
5.27384e-06
-1.0389e-09
0.00499249
5.42059e-06
-6.94532e-10
0.00498697
5.51914e-06
-2.4898e-10
0.00498139
5.57948e-06
2.65519e-10
0.00497578
5.61316e-06
8.14343e-10
0.00497015
5.63157e-06
1.36484e-09
0.0049645
5.64485e-06
1.88953e-09
0.00495883
5.66113e-06
2.36796e-09
0.00495315
5.68639e-06
2.78705e-09
0.00494742
5.72446e-06
3.14043e-09
0.00494164
5.77743e-06
3.42723e-09
0.00493579
5.84599e-06
3.65063e-09
0.00492985
5.92984e-06
3.81648e-09
0.00492382
6.02806e-06
3.93203e-09
0.00491768
6.13943e-06
4.00495e-09
0.00491141
6.26258e-06
4.04274e-09
0.00490501
6.39621e-06
4.05231e-09
0.00489847
6.53912e-06
4.03965e-09
0.00489177
6.69027e-06
4.00974e-09
0.00488492
6.84882e-06
3.96665e-09
0.0048779
7.01406e-06
3.91362e-09
0.00487071
7.18548e-06
3.8532e-09
0.00486335
7.36266e-06
3.78729e-09
0.0048558
7.5453e-06
3.71726e-09
0.00484806
7.7332e-06
3.64415e-09
0.00484013
7.92621e-06
3.56864e-09
0.004832
8.12424e-06
3.49116e-09
0.00482367
8.32725e-06
3.41209e-09
0.00481513
8.53522e-06
3.33164e-09
0.00480638
8.74819e-06
3.24995e-09
0.00479741
8.96628e-06
3.16705e-09
0.00478822
9.18978e-06
3.08293e-09
0.0047788
9.41951e-06
2.99759e-09
0.00476914
9.65787e-06
2.91142e-09
9.91166e-06
0.00475922
2.82864e-09
0.00505063
2.59788e-07
0.00505025
7.57487e-07
0.00504963
1.22852e-06
0.0050488
1.67625e-06
0.00504775
2.10399e-06
0.00504649
2.51407e-06
0.00504503
2.90836e-06
0.00504339
3.2905e-06
0.00504156
3.66903e-06
0.00503953
4.05955e-06
0.00503729
4.48378e-06
0.00503481
4.96466e-06
0.00503205
5.51905e-06
0.00502897
6.15087e-06
0.00502555
6.84758e-06
0.00502177
7.58131e-06
0.00501761
8.31414e-06
0.00501311
9.00579e-06
0.00500831
9.62119e-06
0.00500324
1.01361e-05
0.00499798
1.05396e-05
0.00499257
1.0834e-05
0.00498705
1.10322e-05
0.00498148
1.11541e-05
0.00497587
1.12226e-05
0.00497024
1.12605e-05
0.0049646
1.12879e-05
0.00495894
1.13211e-05
0.00495325
1.1372e-05
0.00494753
1.14483e-05
0.00494175
1.15542e-05
0.00493591
1.16911e-05
0.00492998
1.18584e-05
0.00492395
1.20543e-05
0.00491781
1.22765e-05
0.00491155
1.25221e-05
0.00490516
1.27887e-05
0.00489863
1.30737e-05
0.00489194
1.33752e-05
0.0048851
1.36914e-05
0.00487809
1.40211e-05
0.00487091
1.4363e-05
0.00486356
1.47164e-05
0.00485603
1.50807e-05
0.0048483
1.54555e-05
0.00484039
1.58405e-05
0.00483228
1.62354e-05
0.00482397
1.66403e-05
0.00481545
1.7055e-05
0.00480671
1.74796e-05
0.00479777
1.79144e-05
0.0047886
1.83599e-05
0.0047792
1.88176e-05
0.00476956
1.92923e-05
1.97972e-05
0.00475968
0.00505063
3.89478e-07
0.00505025
1.13558e-06
0.00504964
1.84175e-06
0.0050488
2.51294e-06
0.00504775
3.15417e-06
0.00504649
3.76891e-06
0.00504504
4.35998e-06
0.0050434
4.93282e-06
0.00504157
5.50015e-06
0.00503954
6.08528e-06
0.00503731
6.72063e-06
0.00503483
7.44047e-06
0.00503208
8.27007e-06
0.00502902
9.21544e-06
0.0050256
1.0258e-05
0.00502183
1.13561e-05
0.00501769
1.24534e-05
0.00501321
1.34896e-05
0.00500842
1.44122e-05
0.00500337
1.51849e-05
0.00499812
1.57912e-05
0.00499272
1.62345e-05
0.00498721
1.65337e-05
0.00498165
1.67185e-05
0.00497605
1.6823e-05
0.00497043
1.68813e-05
0.00496479
1.69235e-05
0.00495914
1.69739e-05
0.00495346
1.70503e-05
0.00494775
1.71645e-05
0.00494198
1.73227e-05
0.00493614
1.7527e-05
0.00493022
1.77767e-05
0.00492421
1.80692e-05
0.00491808
1.84008e-05
0.00491184
1.87675e-05
0.00490546
1.91654e-05
0.00489894
1.95911e-05
0.00489228
2.00414e-05
0.00488546
2.05137e-05
0.00487847
2.10061e-05
0.00487132
2.15169e-05
0.00486399
2.20448e-05
0.00485648
2.2589e-05
0.00484879
2.31488e-05
0.0048409
2.37237e-05
0.00483282
2.43136e-05
0.00482455
2.49181e-05
0.00481606
2.55372e-05
0.00480737
2.61711e-05
0.00479847
2.682e-05
0.00478934
2.74846e-05
0.00477999
2.81671e-05
0.00477041
2.88739e-05
2.96235e-05
0.00476059
0.00505063
5.18912e-07
0.00505025
1.51286e-06
0.00504964
2.45368e-06
0.0050488
3.34786e-06
0.00504776
4.2021e-06
0.0050465
5.02104e-06
0.00504506
5.80845e-06
0.00504342
6.57154e-06
0.00504159
7.32714e-06
0.00503957
8.1061e-06
0.00503734
8.95139e-06
0.00503487
9.90852e-06
0.00503213
1.10111e-05
0.00502908
1.22674e-05
0.00502568
1.36529e-05
0.00502193
1.51129e-05
0.00501781
1.65724e-05
0.00501334
1.79517e-05
0.00500858
1.9181e-05
0.00500355
2.02118e-05
0.00499832
2.10221e-05
0.00499294
2.16158e-05
0.00498745
2.20179e-05
0.0049819
2.22675e-05
0.00497632
2.24099e-05
0.00497071
2.24899e-05
0.00496508
2.25477e-05
0.00495944
2.26157e-05
0.00495377
2.27177e-05
0.00494807
2.28691e-05
0.00494231
2.30786e-05
0.00493649
2.3349e-05
0.00493059
2.36796e-05
0.00492459
2.40667e-05
0.00491849
2.45058e-05
0.00491226
2.49915e-05
0.00490591
2.55187e-05
0.00489942
2.60828e-05
0.00489278
2.66795e-05
0.00488599
2.73056e-05
0.00487903
2.79583e-05
0.00487192
2.86354e-05
0.00486463
2.93352e-05
0.00485716
3.00566e-05
0.00484951
3.07987e-05
0.00484167
3.15608e-05
0.00483364
3.23424e-05
0.00482542
3.31434e-05
0.00481699
3.39636e-05
0.00480836
3.48031e-05
0.00479952
3.56622e-05
0.00479046
3.65416e-05
0.00478118
3.7444e-05
0.00477168
3.83767e-05
3.93616e-05
0.00476194
0.00505063
6.48009e-07
0.00505025
1.88906e-06
0.00504964
3.06391e-06
0.00504881
4.18041e-06
0.00504776
5.24704e-06
0.00504652
6.26958e-06
0.00504507
7.25274e-06
0.00504344
8.20547e-06
0.00504162
9.14861e-06
0.0050396
1.01204e-05
0.00503738
1.11741e-05
0.00503492
1.23664e-05
0.00503219
1.37391e-05
0.00502916
1.53028e-05
0.00502578
1.70277e-05
0.00502205
1.8846e-05
0.00501796
2.06649e-05
0.00501352
2.23855e-05
0.00500878
2.39207e-05
0.00500379
2.52101e-05
0.00499858
2.62256e-05
0.00499323
2.69718e-05
0.00498776
2.74794e-05
0.00498224
2.77963e-05
0.00497667
2.79786e-05
0.00497107
2.80822e-05
0.00496547
2.81568e-05
0.00495984
2.82429e-05
0.00495419
2.83701e-05
0.0049485
2.85581e-05
0.00494276
2.88175e-05
0.00493695
2.91523e-05
0.00493107
2.95616e-05
0.0049251
3.00411e-05
0.00491902
3.0585e-05
0.00491282
3.1187e-05
0.0049065
3.18407e-05
0.00490004
3.25401e-05
0.00489344
3.32803e-05
0.00488669
3.40571e-05
0.00487978
3.48668e-05
0.00487271
3.5707e-05
0.00486547
3.65754e-05
0.00485806
3.74705e-05
0.00485047
3.83911e-05
0.00484269
3.93364e-05
0.00483473
4.03059e-05
0.00482657
4.12992e-05
0.00481822
4.2316e-05
0.00480967
4.33564e-05
0.00480091
4.44206e-05
0.00479194
4.55093e-05
0.00478276
4.66252e-05
0.00477336
4.77758e-05
4.89838e-05
0.00476374
0.00505063
7.76694e-07
0.00505025
2.2639e-06
0.00504965
3.67199e-06
0.00504882
5.01002e-06
0.00504777
6.28825e-06
0.00504653
7.51363e-06
0.00504509
8.69181e-06
0.00504346
9.83342e-06
0.00504165
1.09632e-05
0.00503964
1.21266e-05
0.00503743
1.33869e-05
0.00503498
1.48116e-05
0.00503227
1.64511e-05
0.00502926
1.83182e-05
0.00502591
2.0378e-05
0.0050222
2.25505e-05
0.00501814
2.47254e-05
0.00501374
2.67848e-05
0.00500904
2.86251e-05
0.00500408
3.01734e-05
0.0049989
3.13958e-05
0.00499358
3.2297e-05
0.00498815
3.29127e-05
0.00498264
3.32998e-05
0.0049771
3.35247e-05
0.00497153
3.36538e-05
0.00496594
3.37465e-05
0.00496033
3.38512e-05
0.00495469
3.40035e-05
0.00494902
3.4227e-05
0.00494331
3.45348e-05
0.00493753
3.49318e-05
0.00493167
3.54172e-05
0.00492573
3.59861e-05
0.00491968
3.66319e-05
0.00491352
3.73468e-05
0.00490724
3.81233e-05
0.00490082
3.89546e-05
0.00489427
3.98345e-05
0.00488757
4.07581e-05
0.00488071
4.1721e-05
0.0048737
4.27201e-05
0.00486652
4.37529e-05
0.00485918
4.48174e-05
0.00485166
4.59121e-05
0.00484396
4.70361e-05
0.00483607
4.81885e-05
0.004828
4.93689e-05
0.00481974
5.05769e-05
0.00481129
5.18124e-05
0.00480263
5.30754e-05
0.00479377
5.43667e-05
0.00478471
5.56883e-05
0.00477544
5.70469e-05
5.84629e-05
0.00476596
0.00505063
9.04844e-07
0.00505026
2.63715e-06
0.00504965
4.2775e-06
0.00504882
5.83609e-06
0.00504779
7.32499e-06
0.00504655
8.75231e-06
0.00504512
1.01246e-05
0.0050435
1.14542e-05
0.00504169
1.27696e-05
0.00503969
1.41231e-05
0.00503749
1.55879e-05
0.00503506
1.72421e-05
0.00503237
1.91443e-05
0.00502938
2.13101e-05
0.00502605
2.36999e-05
0.00502238
2.62218e-05
0.00501836
2.87487e-05
0.005014
3.11444e-05
0.00500934
3.32885e-05
0.00500441
3.50961e-05
0.00499928
3.65271e-05
0.00499399
3.75858e-05
0.00498859
3.83129e-05
0.00498312
3.87733e-05
0.0049776
3.90436e-05
0.00497205
3.92005e-05
0.00496649
3.93127e-05
0.0049609
3.94365e-05
0.00495529
3.96134e-05
0.00494965
3.98712e-05
0.00494396
4.02255e-05
0.00493821
4.06822e-05
0.00493238
4.12407e-05
0.00492647
4.18957e-05
0.00492047
4.26395e-05
0.00491435
4.34634e-05
0.00490811
4.43588e-05
0.00490175
4.53176e-05
0.00489525
4.63329e-05
0.00488861
4.73988e-05
0.00488182
4.85103e-05
0.00487488
4.96637e-05
0.00486778
5.08559e-05
0.00486051
5.20846e-05
0.00485307
5.33482e-05
0.00484546
5.46452e-05
0.00483768
5.59749e-05
0.00482971
5.73363e-05
0.00482156
5.87292e-05
0.00481322
6.0153e-05
0.00480469
6.16079e-05
0.00479596
6.30939e-05
0.00478703
6.46125e-05
0.00477791
6.61677e-05
0.0047686
6.7771e-05
0.00475927
-4.64852e-08
2.78096e-09
0.00475878
4.855e-07
2.71531e-09
0.00475772
1.05313e-06
2.67211e-09
0.00475606
1.65819e-06
2.62821e-09
0.00475376
2.30381e-06
2.57963e-09
0.00475076
2.99349e-06
2.52672e-09
0.00474703
3.73113e-06
2.4694e-09
0.0047425
4.5211e-06
2.40766e-09
0.00473713
5.36826e-06
2.34132e-09
0.00473085
6.27807e-06
2.27032e-09
0.00472359
7.25662e-06
2.1943e-09
0.00471528
8.31073e-06
2.1131e-09
0.00470583
9.44805e-06
2.02652e-09
0.00469515
1.06772e-05
1.93622e-09
0.00468314
1.2008e-05
1.83546e-09
0.00466969
1.34513e-05
1.74091e-09
0.00465467
1.50196e-05
1.61384e-09
0.00463794
1.6727e-05
1.47403e-09
0.00461935
1.85899e-05
1.34024e-09
0.00459872
2.06265e-05
1.18695e-09
0.00457586
2.28582e-05
1.0422e-09
0.00455055
2.53096e-05
8.91253e-10
0.00452254
2.80091e-05
7.31252e-10
0.00449155
3.09896e-05
5.61449e-10
0.00445726
3.42898e-05
3.81756e-10
0.0044193
3.7955e-05
1.9206e-10
0.00437727
4.20389e-05
-7.1094e-12
0.00433066
4.66051e-05
-2.15619e-10
0.00427893
5.17297e-05
-4.33125e-10
0.00422143
5.75042e-05
-6.59112e-10
0.00415739
6.40392e-05
-8.93114e-10
0.00408592
7.14695e-05
-1.1349e-09
0.00400596
7.99593e-05
-1.38383e-09
0.00391626
8.97099e-05
-1.63996e-09
0.00381529
0.000100967
-1.90321e-09
0.00370126
0.000114029
-2.17341e-09
0.00357201
0.000129252
-2.45088e-09
0.00342497
0.00014705
-2.73635e-09
0.00325709
0.000167875
-3.03038e-09
0.00306492
0.00019218
-3.3337e-09
0.0028446
0.000220318
-3.64643e-09
0.00259223
0.000252374
-3.96696e-09
0.00230437
0.000287872
-4.28955e-09
0.00197907
0.000325302
-4.59939e-09
0.00161764
0.00036143
-4.86472e-09
0.00122734
0.000390305
-5.02463e-09
0.000825345
0.000402004
-4.97317e-09
0.00044431
0.000381039
-4.54347e-09
0.00014042
0.000303893
-3.502e-09
0.000140422
-1.56963e-09
0.00475836
1.27483e-06
0.0047565
2.33852e-06
0.00475408
3.47147e-06
0.00475106
4.67925e-06
0.0047474
5.96804e-06
0.00474305
7.34486e-06
0.00473796
8.81756e-06
0.00473209
1.03949e-05
0.00472537
1.20867e-05
0.00471774
1.39038e-05
0.00470914
1.58584e-05
0.00469949
1.79643e-05
0.0046887
2.02367e-05
0.00467668
2.26929e-05
0.00466334
2.53525e-05
0.00464855
2.82374e-05
0.0046322
3.13726e-05
0.00461414
3.47864e-05
0.00459422
3.85112e-05
0.00457226
4.25841e-05
0.00454807
4.70478e-05
0.00452143
5.19513e-05
0.00449209
5.73516e-05
0.00445976
6.33147e-05
0.00442414
6.99181e-05
0.00438484
7.72524e-05
0.00434145
8.54248e-05
0.00429349
9.45626e-05
0.00424041
0.000104818
0.00418154
0.000116373
0.00411613
0.000129449
0.00404328
0.000144313
0.00396195
0.000161292
0.00387088
0.000180784
0.00376857
0.000203277
0.00365324
0.000229359
0.00352276
0.000259729
0.00337462
0.000295196
0.00320585
0.000336644
0.00301309
0.000384938
0.00279266
0.000440744
0.00254086
0.000504174
0.00225452
0.000574211
0.00193204
0.000647788
0.00157504
0.000718422
0.00119107
0.000774279
0.00079742
0.000795654
0.000426413
0.000752046
0.000132185
0.000598121
0.000272607
0.00475655
5.3119e-06
0.00475198
6.90256e-06
0.00474686
8.59636e-06
0.00474114
1.0402e-05
0.00473478
1.23288e-05
0.00472773
1.43876e-05
0.00471996
1.659e-05
0.00471141
1.89494e-05
0.00470201
2.14805e-05
0.00469172
2.41997e-05
0.00468045
2.71254e-05
0.00466814
3.02781e-05
0.00465469
3.36809e-05
0.00464002
3.73599e-05
0.00462403
4.13442e-05
0.0046066
4.5667e-05
0.00458761
5.03658e-05
0.00456691
5.54833e-05
0.00454436
6.10682e-05
0.00451976
6.71763e-05
0.00449294
7.38717e-05
0.00446366
8.12282e-05
0.00443168
8.93314e-05
0.00439672
9.82806e-05
0.00435844
0.000108192
0.00431649
0.000119202
0.00427045
0.000131471
0.00421982
0.00014519
0.00416405
0.000160587
0.00410249
0.000177934
0.00403438
0.000197559
0.00395883
0.000219862
0.00387479
0.000245327
0.00378104
0.000274543
0.00367609
0.000308225
0.00355821
0.000347236
0.00342534
0.000392595
0.00327507
0.000445468
0.0031046
0.000507114
0.0029108
0.000578746
0.0026903
0.000661241
0.00243984
0.00075463
0.00215681
0.000857238
0.00184026
0.000964342
0.00149246
0.00106622
0.00112139
0.00114535
0.000744362
0.00117268
0.000393212
0.0011032
0.00011953
0.000871803
0.000392137
0.00475387
1.33783e-05
0.00474529
1.54885e-05
0.00473615
1.77354e-05
0.00472642
2.01306e-05
0.00471606
2.2687e-05
0.00470503
2.54191e-05
0.00469328
2.83426e-05
0.00468075
3.14755e-05
0.0046674
3.48373e-05
0.00465315
3.84501e-05
0.00463793
4.23385e-05
0.00462168
4.653e-05
0.00460431
5.10554e-05
0.00458572
5.59493e-05
0.00456581
6.12511e-05
0.00454447
6.7005e-05
0.00452158
7.32612e-05
0.00449698
8.00769e-05
0.00447053
8.75171e-05
0.00444205
9.56566e-05
0.00441134
0.000104581
0.00437818
0.000114389
0.00434232
0.000125196
0.00430347
0.000137133
0.0042613
0.000150357
0.00421545
0.000165049
0.0041655
0.000181423
0.00411096
0.000199733
0.00405126
0.000220282
0.00398577
0.000243431
0.00391371
0.000269614
0.00383422
0.000299357
0.00374625
0.000333295
0.00364859
0.000372197
0.00353983
0.00041699
0.00341828
0.000468783
0.003282
0.000528876
0.00312873
0.000598734
0.00295594
0.000679913
0.00276083
0.000773853
0.00254057
0.000881504
0.00229256
0.00100264
0.00201506
0.00113474
0.00170808
0.00127132
0.00137482
0.00139947
0.00102374
0.00149643
0.000671687
0.00152474
0.000348659
0.00142622
0.000101613
0.00111885
0.00049375
0.00475038
2.67353e-05
0.00473651
2.93534e-05
0.00472211
3.21412e-05
0.00470713
3.51136e-05
0.00469153
3.82871e-05
0.00467526
4.16799e-05
0.0046583
4.53121e-05
0.00464057
4.92059e-05
0.00462202
5.33861e-05
0.00460259
5.78802e-05
0.00458221
6.27191e-05
0.0045608
6.79371e-05
0.00453828
7.3573e-05
0.00451456
7.96703e-05
0.00448953
8.62781e-05
0.00446309
9.34519e-05
0.00443509
0.000101255
0.00440541
0.000109759
0.00437388
0.000119045
0.00434033
0.000129208
0.00430456
0.000140355
0.00426634
0.000152609
0.00422542
0.000166115
0.00418151
0.000181038
0.0041343
0.000197574
0.0040834
0.00021595
0.00402839
0.000236433
0.00396878
0.00025934
0.00390402
0.000285047
0.00383344
0.000314003
0.00375631
0.000346745
0.00367175
0.000383918
0.00357875
0.000426298
0.00347613
0.00047482
0.00336252
0.000530598
0.00323635
0.000594952
0.00309582
0.000669401
0.00293893
0.000755632
0.00276346
0.000855374
0.00256718
0.000970139
0.00234795
0.00110074
0.00210414
0.00124644
0.00183523
0.00140365
0.00154257
0.00156398
0.00123057
0.00171148
0.000908161
0.00181884
0.000590867
0.00184203
0.000303881
0.00171321
8.3961e-05
0.00133877
0.000577711
0.00474612
4.65744e-05
0.00472579
4.96819e-05
0.00470494
5.29927e-05
0.00468353
5.65249e-05
0.00466152
6.02984e-05
0.00463886
6.43352e-05
0.00461552
6.86594e-05
0.00459143
7.32976e-05
0.00456653
7.82795e-05
0.00454077
8.36383e-05
0.00451408
8.94109e-05
0.00448638
9.56388e-05
0.00445758
0.000102369
0.0044276
0.000109652
0.00439633
0.00011755
0.00436366
0.000126127
0.00432945
0.000135461
0.00429357
0.000145638
0.00425586
0.000156756
0.00421614
0.000168929
0.00417421
0.000182286
0.00412984
0.000196976
0.00408278
0.000213172
0.00403275
0.000231075
0.0039794
0.000250919
0.00392237
0.000272977
0.00386123
0.000297571
0.0037955
0.000325079
0.00372459
0.00035595
0.00364788
0.000390718
0.0035646
0.000430019
0.00347391
0.00047461
0.00337481
0.000525398
0.00326617
0.00058346
0.00314671
0.000650065
0.00301497
0.000726687
0.00286938
0.000814989
0.00270827
0.000916748
0.00252995
0.00103369
0.00233295
0.00116715
0.00211621
0.00131747
0.00187959
0.00148306
0.00162438
0.00165887
0.00135401
0.00183435
0.00107473
0.00199075
0.00079622
0.00209735
0.000531708
0.00210655
0.000296598
0.00194832
0.000102252
0.00153312
0.000679963
0.00474119
7.39929e-05
0.00471331
7.75623e-05
0.00468493
8.1372e-05
0.00465601
8.54411e-05
0.00462652
8.97923e-05
0.0045964
9.44507e-05
0.00456562
9.94442e-05
0.00453411
0.000104804
0.00450183
0.000110564
0.0044687
0.000116763
0.00443467
0.000123445
0.00439965
0.000130658
0.00436356
0.000138455
0.00432631
0.000146899
0.00428781
0.000156059
0.00424792
0.000166012
0.00420653
0.000176849
0.0041635
0.00018867
0.00411867
0.000201591
0.00407185
0.000215745
0.00402285
0.000231282
0.00397145
0.000248379
0.00391738
0.000267238
0.00386037
0.000288093
0.00380007
0.000311217
0.00373612
0.000336931
0.00366808
0.00036561
0.00359546
0.000397693
0.00351771
0.000433702
0.00343418
0.000474254
0.00334412
0.000520078
0.00324669
0.000572041
0.00314092
0.000631165
0.00302573
0.000698651
0.0028999
0.000775891
0.00276213
0.000864459
0.00261105
0.000966069
0.00244535
0.00108245
0.00226393
0.00121511
0.00206618
0.0013649
0.00185238
0.00153126
0.00162426
0.00171118
0.00138559
0.00189753
0.00114291
0.00207703
0.000905932
0.00222773
0.000687137
0.00231615
0.00049925
0.00229443
0.00034652
0.00210105
0.000209778
0.00166986
0.000889741
-2.68001e-05
2.68004e-05
-3.37746e-10
-7.82155e-05
5.14168e-05
-1.32785e-09
-0.000136541
5.83284e-05
-2.55882e-09
-0.000191445
5.49072e-05
-3.91761e-09
-0.000237219
4.57797e-05
-5.31166e-09
-0.000270944
3.37321e-05
-6.679e-09
-0.000291337
2.04001e-05
-7.98736e-09
-0.000297971
6.64395e-06
-9.20037e-09
-0.000291289
-6.67269e-06
-1.00507e-08
-0.000271922
-1.93557e-05
-1.09115e-08
-0.000240425
-3.14858e-05
-1.15043e-08
-0.000197521
-4.28922e-05
-1.17628e-08
-0.000143974
-5.3535e-05
-1.163e-08
-8.05486e-05
-6.34144e-05
-1.10218e-08
-8.01099e-06
-7.25277e-05
-9.8343e-09
7.28821e-05
-8.08852e-05
-7.96312e-09
0.000161399
-8.85119e-05
-5.25852e-09
0.000256819
-9.54186e-05
-1.62098e-09
0.000358437
-0.000101621
3.02071e-09
0.000465564
-0.000107136
8.75864e-09
0.000577529
-0.00011198
1.49684e-08
0.000693674
-0.000116167
2.17175e-08
0.000813354
-0.000119707
2.78351e-08
0.000935935
-0.000122614
3.27807e-08
0.0010608
-0.000124905
3.67331e-08
0.00118737
-0.000126605
3.87839e-08
0.00131507
-0.000127742
3.94097e-08
0.00144338
-0.000128342
3.87748e-08
0.00157177
-0.000128432
3.72327e-08
0.00169977
-0.000128038
3.51183e-08
0.00182693
-0.00012719
3.27002e-08
0.00195282
-0.000125916
3.01696e-08
0.00207704
-0.000124248
2.76422e-08
0.00219923
-0.000122214
2.51801e-08
0.00231905
-0.000119847
2.28013e-08
0.00243621
-0.000117178
2.05009e-08
0.00255043
-0.000114239
1.82626e-08
0.00266147
-0.00011106
1.60657e-08
0.00276913
-0.000107673
1.38937e-08
0.00287323
-0.000104108
1.17355e-08
0.00297361
-0.000100395
9.58593e-09
0.00307017
-9.6563e-05
7.44987e-09
0.0031628
-9.26402e-05
5.33676e-09
0.00325145
-8.8653e-05
3.26162e-09
0.00333608
-8.4627e-05
1.24576e-09
0.00341666
-8.05858e-05
-6.87292e-10
0.00349322
-7.65517e-05
-2.51163e-09
0.00356577
-7.25443e-05
-4.19926e-09
0.00363435
-6.85802e-05
-5.72577e-09
-6.46722e-05
0.00369903
-7.07746e-09
-2.354e-05
5.03404e-05
-6.87811e-05
9.66579e-05
-0.000119873
0.00010942
-0.000167787
0.000102821
-0.000207375
8.53681e-05
-0.000235964
6.23205e-05
-0.000252319
3.67559e-05
-0.000255905
1.02295e-05
-0.000247237
-1.53407e-05
-0.000226646
-3.99464e-05
-0.000194613
-6.35188e-05
-0.000151755
-8.57503e-05
-9.87485e-05
-0.000106542
-3.62396e-05
-0.000125923
3.50486e-05
-0.000143816
0.000114442
-0.000160279
0.000201265
-0.000175335
0.000294846
-0.000188999
0.000394523
-0.000201298
0.000499646
-0.000212258
0.000609574
-0.000221908
0.00072368
-0.000230273
0.000841341
-0.000237369
0.000961948
-0.000243221
0.0010849
-0.00024786
0.00120963
-0.000251334
0.00133558
-0.000253694
0.00146223
-0.000254991
0.00158908
-0.000255276
0.00171564
-0.000254602
0.00184147
-0.000253023
0.00196615
-0.000250597
0.00208929
-0.000247381
0.00221051
-0.000243437
0.00232949
-0.000238825
0.00244592
-0.000233608
0.00255952
-0.000227846
0.00267007
-0.000221604
0.00277734
-0.000214941
0.00288115
-0.000207919
0.00298135
-0.000200598
0.00307782
-0.000193034
0.00317047
-0.000185284
0.00325921
-0.0001774
0.00334402
-0.000169434
0.00342487
-0.000161433
0.00350176
-0.000153442
0.00357471
-0.000145499
0.00364377
-0.000137638
-0.000129882
0.00370898
-1.7818e-05
6.81585e-05
-5.06557e-05
0.000129496
-8.78386e-05
0.000146603
-0.000122369
0.000137352
-0.000150148
0.000113147
-0.000168995
8.11678e-05
-0.000177773
4.55337e-05
-0.000175584
8.04037e-06
-0.000163258
-2.76665e-05
-0.000140481
-6.27233e-05
-0.000107561
-9.64396e-05
-6.48813e-05
-0.00012843
-1.29519e-05
-0.000158471
4.76429e-05
-0.000186518
0.000116448
-0.000212621
0.0001929
-0.000236732
0.000276424
-0.000258858
0.000366441
-0.000279016
0.000462371
-0.000297229
0.000563636
-0.000313523
0.000669656
-0.000327928
0.000779855
-0.000340471
0.000893661
-0.000351176
0.0010105
-0.000360063
0.00112982
-0.000367173
0.00125105
-0.000372571
0.00137369
-0.000376327
0.00149721
-0.000378513
0.00162113
-0.0003792
0.00174499
-0.000378462
0.00186835
-0.000376378
0.00199078
-0.000373028
0.00211189
-0.000368499
0.00223133
-0.000362876
0.00234876
-0.000356251
0.00246386
-0.000348712
0.00257637
-0.000340353
0.00268603
-0.000331264
0.00279263
-0.000321538
0.00289597
-0.000311263
0.0029959
-0.000300528
0.00309229
-0.00028942
0.00318503
-0.000278021
0.00327404
-0.000266412
0.00335927
-0.000254667
0.0034407
-0.000242859
0.00351831
-0.000231054
0.00359212
-0.00021931
0.00366216
-0.000207678
-0.000196188
0.00372846
-7.81351e-06
7.5972e-05
-2.4201e-05
0.000145883
-4.21938e-05
0.000164595
-5.81322e-05
0.00015329
-6.96554e-05
0.00012467
-7.52338e-05
8.67463e-05
-7.38965e-05
4.41964e-05
-6.39887e-05
-1.86742e-06
-4.69725e-05
-4.46827e-05
-2.14384e-05
-8.82574e-05
1.24129e-05
-0.000130291
5.44069e-05
-0.000170424
0.000104439
-0.000208503
0.000162242
-0.000244321
0.000227434
-0.000277813
0.000299636
-0.000308934
0.000378433
-0.000337655
0.000463381
-0.000363964
0.000554014
-0.000387862
0.000649849
-0.000409358
0.000750392
-0.000428471
0.000855142
-0.000445221
0.000963588
-0.000459622
0.00107522
-0.000471691
0.00118951
-0.000481463
0.00130594
-0.000489008
0.00142403
-0.000494417
0.00154329
-0.000497773
0.00166326
-0.000499163
0.00178347
-0.000498676
0.0019035
-0.00049641
0.00202294
-0.000492467
0.0021414
-0.000486956
0.00225851
-0.000479986
0.00237393
-0.000471675
0.00248736
-0.000462139
0.00259851
-0.000451498
0.00270711
-0.00043987
0.00281295
-0.000427377
0.00291582
-0.000414136
0.00301556
-0.000400264
0.00311201
-0.000385874
0.00320507
-0.000371078
0.00329464
-0.00035598
0.00338065
-0.000340683
0.00346308
-0.000325281
0.00354189
-0.000309863
0.00361708
-0.000294508
0.00368869
-0.000279281
-0.000264218
0.00375672
5.46583e-06
7.05061e-05
1.0273e-05
0.000141076
1.59298e-05
0.000158939
2.19453e-05
0.000147275
2.92206e-05
0.000117395
3.8859e-05
7.71079e-05
5.22733e-05
3.07821e-05
6.86694e-05
-1.82635e-05
9.12102e-05
-6.72236e-05
0.000119418
-0.000116465
0.00015382
-0.000164693
0.000194705
-0.000211308
0.000242146
-0.000255944
0.000296159
-0.000298334
0.000356652
-0.000338306
0.000423453
-0.000375735
0.000496327
-0.000410529
0.000574987
-0.000442624
0.000659102
-0.000471976
0.000748304
-0.00049856
0.000842197
-0.000522365
0.000940369
-0.000543392
0.00104239
-0.000561638
0.00114779
-0.000577098
0.00125612
-0.000589792
0.0013669
-0.000599789
0.00147967
-0.000607185
0.00159397
-0.000612076
0.00170936
-0.000614552
0.0018254
-0.000614716
0.00194167
-0.000612678
0.00205776
-0.000608555
0.00217328
-0.000602476
0.00228786
-0.000594573
0.00240117
-0.000584983
0.00251288
-0.000573848
0.0026227
-0.000561313
0.00273035
-0.000547524
0.0028356
-0.000532628
0.00293824
-0.000516771
0.00303807
-0.000500097
0.00313494
-0.000482746
0.00322872
-0.000464857
0.0033193
-0.000446561
0.0034066
-0.000427985
0.00349057
-0.000409248
0.00357117
-0.000390461
0.00364838
-0.000371724
0.00372222
-0.000353118
-0.000334684
0.00379268
1.94094e-05
5.10968e-05
4.91027e-05
0.000111382
8.08094e-05
0.000127232
0.000111046
0.000117038
0.000138631
8.98097e-05
0.000164198
5.15414e-05
0.000189556
5.42365e-06
0.000213911
-4.26178e-05
0.000240829
-9.41423e-05
0.000270915
-0.000146551
0.000304998
-0.000198776
0.000343726
-0.000250037
0.000387553
-0.000299771
0.000436781
-0.000347562
0.000491579
-0.000393103
0.000552
-0.000436156
0.000618004
-0.000476533
0.00068947
-0.000514091
0.000766211
-0.000548717
0.000847982
-0.000580331
0.000934493
-0.000608877
0.00102542
-0.000634319
0.00112041
-0.000656627
0.00121908
-0.000675764
0.001321
-0.000691717
0.00142576
-0.000704545
0.00153292
-0.000714344
0.00164205
-0.000721208
0.00175273
-0.00072523
0.00186452
-0.000726515
0.00197703
-0.000725181
0.00208983
-0.00072136
0.00220255
-0.000715191
0.0023148
-0.000706826
0.00242624
-0.000696421
0.00253653
-0.00068414
0.00264537
-0.000670152
0.00275247
-0.000654627
0.00285758
-0.000637738
0.00296047
-0.000619656
0.00306092
-0.000600554
0.00315878
-0.000580598
0.00325387
-0.000559954
0.00334609
-0.00053878
0.00343534
-0.000517228
0.00352153
-0.000495442
0.00360463
-0.000473557
0.0036846
-0.000451692
0.00376143
-0.000429949
-0.000408378
0.00383512
3.5457e-05
1.56398e-05
9.45213e-05
5.23182e-05
0.0001536
6.81529e-05
0.000206867
6.37721e-05
0.000252651
4.4025e-05
0.000293168
1.10244e-05
0.000326587
-2.79954e-05
0.000357682
-7.37127e-05
0.000387733
-0.000124193
0.000418407
-0.000177225
0.000451013
-0.000231382
0.000486584
-0.000285607
0.000525916
-0.000339103
0.000569605
-0.000391251
0.000618066
-0.000441565
0.00067157
-0.00048966
0.000730263
-0.000535226
0.000794183
-0.000578011
0.00086328
-0.000617815
0.00093743
-0.00065448
0.00101644
-0.000687888
0.00110008
-0.000717955
0.00118806
-0.000744607
0.00128006
-0.000767765
0.00137572
-0.000787382
0.00147466
-0.000803483
0.00157647
-0.000816152
0.00168074
-0.000825481
0.00178707
-0.000831554
0.00189503
-0.000834476
0.00200421
-0.000834367
0.00211422
-0.000831365
0.00222465
-0.000825622
0.00233512
-0.000817301
0.00244528
-0.000806577
0.00255477
-0.000793633
0.00266328
-0.000778657
0.00277049
-0.000761844
0.00287615
-0.000743392
0.00297999
-0.000723498
0.0030818
-0.000702359
0.00318137
-0.000680172
0.00327854
-0.000657126
0.00337317
-0.000633408
0.00346514
-0.000609196
0.00355435
-0.000584659
0.00364075
-0.000559956
0.00372429
-0.000535231
0.00380495
-0.000510606
0.00388273
-0.000486159
0.00376828
-6.92416e-05
-8.3118e-09
0.00383519
-6.68973e-05
-9.56415e-09
0.00389968
-6.44826e-05
-1.07526e-08
0.00396171
-6.20186e-05
-1.18478e-08
0.00402125
-5.95195e-05
-1.28019e-08
0.00407826
-5.69978e-05
-1.35746e-08
0.00413274
-5.44662e-05
-1.41318e-08
0.00418469
-5.19376e-05
-1.44496e-08
0.00423413
-4.94249e-05
-1.45151e-08
0.00428108
-4.69409e-05
-1.43276e-08
0.0043256
-4.44982e-05
-1.3895e-08
0.00436772
-4.21091e-05
-1.32326e-08
0.00440752
-3.97848e-05
-1.23653e-08
0.00444506
-3.75359e-05
-1.13217e-08
0.00448044
-3.53711e-05
-1.01329e-08
0.00451375
-3.32982e-05
-8.8318e-09
0.00454508
-3.1323e-05
-7.45254e-09
0.00457454
-2.94498e-05
-6.02597e-09
0.00460222
-2.7681e-05
-4.57985e-09
0.00462824
-2.60175e-05
-3.13973e-09
0.0046527
-2.44586e-05
-1.72666e-09
0.00467571
-2.3002e-05
-3.56558e-10
0.00469735
-2.16441e-05
9.60116e-10
0.00471773
-2.03801e-05
2.21364e-09
0.00473693
-1.92042e-05
3.40046e-09
0.00475503
-1.81096e-05
4.51894e-09
0.00477212
-1.70887e-05
5.56667e-09
0.00478824
-1.61337e-05
6.54118e-09
0.00480347
-1.52364e-05
7.43962e-09
0.00481785
-1.43886e-05
8.25538e-09
0.00483143
-1.35832e-05
8.97842e-09
0.00484423
-1.28137e-05
9.59684e-09
0.0048563
-1.20757e-05
1.00968e-08
0.00486765
-1.13664e-05
1.04633e-08
0.00487833
-1.06854e-05
1.06825e-08
0.00488835
-1.00345e-05
1.07453e-08
0.00489776
-9.41688e-06
1.06472e-08
0.00490658
-8.83654e-06
1.03907e-08
0.00491487
-8.29736e-06
9.98625e-09
0.00492266
-7.80207e-06
9.45114e-09
0.00493001
-7.35157e-06
8.80705e-09
0.00493694
-6.94456e-06
8.08018e-09
0.00494351
-6.57763e-06
7.29846e-09
0.00494975
-6.24588e-06
6.49737e-09
0.00495569
-5.94306e-06
5.69363e-09
0.00496135
-5.66371e-06
4.87866e-09
0.00496675
-5.40249e-06
4.10117e-09
0.0049719
-5.15494e-06
3.35933e-09
0.00497681
-4.91784e-06
2.66365e-09
0.0049815
-4.68912e-06
2.01684e-09
0.00498597
-4.46759e-06
1.42113e-09
0.00499022
-4.2527e-06
8.77573e-10
0.00499426
-4.04431e-06
3.853e-10
0.00499811
-3.84246e-06
-6.02168e-11
0.00500175
-3.64727e-06
-4.65638e-10
0.00500521