/*--------------------------------*- C++ -*----------------------------------*\
| =========                 |                                                 |
| \\      /  F ield         | OpenFOAM: The Open Source CFD Toolbox           |
|  \\    /   O peration     | Version:  2412                                  |
|   \\  /    A nd           | Website:  www.openfoam.com                      |
|    \\/     M anipulation  |                                                 |
\*---------------------------------------------------------------------------*/
FoamFile
{
    version     2.0;
    format      ascii;
    arch        "LSB;label=32;scalar=64";
    class       volVectorField;
    location    "26";
    object      U;
}
// * * * * * * * * * * * * * * * * * * * * * * * * * * * * * * * * * * * * * //

dimensions      [0 1 -1 0 0 0 0];

internalField   nonuniform List<vector> 
63420
(
(0.0999997 4.39711e-07 0)
(0.099995 1.30782e-06 0)
(0.099985 2.16351e-06 0)
(0.0999706 3.01112e-06 0)
(0.0999519 3.85518e-06 0)
(0.099929 4.69877e-06 0)
(0.0999021 5.54444e-06 0)
(0.0998714 6.39844e-06 0)
(0.099837 7.27731e-06 0)
(0.0997988 8.21336e-06 0)
(0.0997566 9.25406e-06 0)
(0.09971 1.04532e-05 0)
(0.0996583 1.18552e-05 0)
(0.0996007 1.34796e-05 0)
(0.0995365 1.53096e-05 0)
(0.0994651 1.72915e-05 0)
(0.0993864 1.93436e-05 0)
(0.0993005 2.13719e-05 0)
(0.099208 2.32873e-05 0)
(0.0991099 2.50209e-05 0)
(0.0990072 2.65324e-05 0)
(0.0989012 2.78129e-05 0)
(0.0987927 2.88813e-05 0)
(0.0986826 2.9777e-05 0)
(0.0985717 3.05517e-05 0)
(0.0984603 3.1261e-05 0)
(0.0983487 3.19577e-05 0)
(0.0982367 3.26877e-05 0)
(0.0981244 3.34875e-05 0)
(0.0980115 3.43839e-05 0)
(0.0978976 3.53947e-05 0)
(0.0977826 3.65302e-05 0)
(0.097666 3.77949e-05 0)
(0.0975476 3.91896e-05 0)
(0.0974272 4.07124e-05 0)
(0.0973044 4.23606e-05 0)
(0.097179 4.4131e-05 0)
(0.097051 4.60207e-05 0)
(0.09692 4.80277e-05 0)
(0.0967859 5.01508e-05 0)
(0.0966486 5.23898e-05 0)
(0.096508 5.47454e-05 0)
(0.096364 5.72191e-05 0)
(0.0962164 5.98133e-05 0)
(0.0960651 6.25309e-05 0)
(0.09591 6.53755e-05 0)
(0.0957511 6.83513e-05 0)
(0.0955882 7.14626e-05 0)
(0.0954213 7.47147e-05 0)
(0.0952502 7.81132e-05 0)
(0.0950748 8.16644e-05 0)
(0.094895 8.53769e-05 0)
(0.0947108 8.92647e-05 0)
(0.094522 9.33582e-05 0)
(0.0943283 9.77338e-05 0)
(0.0999997 1.31912e-06 0)
(0.099995 3.92336e-06 0)
(0.099985 6.49028e-06 0)
(0.0999706 9.03275e-06 0)
(0.0999519 1.15645e-05 0)
(0.099929 1.40948e-05 0)
(0.0999022 1.66313e-05 0)
(0.0998715 1.91928e-05 0)
(0.0998371 2.18288e-05 0)
(0.0997989 2.46357e-05 0)
(0.0997568 2.77554e-05 0)
(0.0997102 3.13487e-05 0)
(0.0996586 3.55488e-05 0)
(0.0996011 4.04138e-05 0)
(0.099537 4.58942e-05 0)
(0.0994657 5.18301e-05 0)
(0.0993871 5.79777e-05 0)
(0.0993013 6.4056e-05 0)
(0.099209 6.97992e-05 0)
(0.0991111 7.50009e-05 0)
(0.0990085 7.95406e-05 0)
(0.0989026 8.33911e-05 0)
(0.0987942 8.66081e-05 0)
(0.0986843 8.93093e-05 0)
(0.0985735 9.16483e-05 0)
(0.0984622 9.37909e-05 0)
(0.0983506 9.58949e-05 0)
(0.0982387 9.80972e-05 0)
(0.0981265 0.000100507 0)
(0.0980136 0.000103205 0)
(0.0978998 0.000106243 0)
(0.0977848 0.000109653 0)
(0.0976684 0.00011345 0)
(0.0975501 0.000117634 0)
(0.0974298 0.000122201 0)
(0.0973071 0.000127143 0)
(0.0971819 0.000132451 0)
(0.097054 0.000138115 0)
(0.0969232 0.000144131 0)
(0.0967893 0.000150494 0)
(0.0966523 0.000157204 0)
(0.0965119 0.000164263 0)
(0.0963681 0.000171676 0)
(0.0962207 0.00017945 0)
(0.0960697 0.000187593 0)
(0.095915 0.000196116 0)
(0.0957564 0.000205032 0)
(0.0955938 0.000214353 0)
(0.0954272 0.000224096 0)
(0.0952565 0.000234276 0)
(0.0950815 0.000244914 0)
(0.0949022 0.000256033 0)
(0.0947185 0.000267676 0)
(0.0945301 0.000279932 0)
(0.094337 0.000293029 0)
(0.0999997 2.19765e-06 0)
(0.099995 6.53609e-06 0)
(0.0999851 1.08125e-05 0)
(0.0999707 1.5048e-05 0)
(0.099952 1.92655e-05 0)
(0.0999291 2.34806e-05 0)
(0.0999023 2.77062e-05 0)
(0.0998717 3.19732e-05 0)
(0.0998373 3.63638e-05 0)
(0.0997992 4.1038e-05 0)
(0.0997572 4.62315e-05 0)
(0.0997107 5.22111e-05 0)
(0.0996592 5.91987e-05 0)
(0.0996018 6.72915e-05 0)
(0.0995379 7.64082e-05 0)
(0.0994668 8.62841e-05 0)
(0.0993885 9.65151e-05 0)
(0.099303 0.000106635 0)
(0.099211 0.000116201 0)
(0.0991133 0.00012487 0)
(0.0990111 0.000132442 0)
(0.0989054 0.000138869 0)
(0.0987973 0.000144244 0)
(0.0986876 0.000148759 0)
(0.0985769 0.000152671 0)
(0.0984658 0.000156254 0)
(0.0983544 0.000159769 0)
(0.0982427 0.000163445 0)
(0.0981305 0.000167463 0)
(0.0980178 0.000171957 0)
(0.0979042 0.000177016 0)
(0.0977894 0.000182691 0)
(0.0976731 0.000189007 0)
(0.0975551 0.000195967 0)
(0.097435 0.000203563 0)
(0.0973126 0.000211782 0)
(0.0971877 0.000220609 0)
(0.0970601 0.000230029 0)
(0.0969296 0.000240033 0)
(0.0967962 0.000250614 0)
(0.0966595 0.000261773 0)
(0.0965196 0.000273511 0)
(0.0963763 0.000285837 0)
(0.0962294 0.000298763 0)
(0.096079 0.000312302 0)
(0.0959248 0.000326473 0)
(0.0957669 0.000341295 0)
(0.095605 0.00035679 0)
(0.0954391 0.000372984 0)
(0.0952692 0.000389904 0)
(0.095095 0.000407581 0)
(0.0949166 0.000426055 0)
(0.0947337 0.000445394 0)
(0.0945464 0.00046574 0)
(0.0943543 0.000487454 0)
(0.0999997 3.07472e-06 0)
(0.099995 9.14413e-06 0)
(0.0999851 1.51271e-05 0)
(0.0999707 2.10526e-05 0)
(0.0999521 2.69528e-05 0)
(0.0999293 3.28496e-05 0)
(0.0999025 3.8761e-05 0)
(0.099872 4.47302e-05 0)
(0.0998377 5.08714e-05 0)
(0.0997997 5.74071e-05 0)
(0.0997577 6.46656e-05 0)
(0.0997114 7.30187e-05 0)
(0.09966 8.27767e-05 0)
(0.0996029 9.40762e-05 0)
(0.0995392 0.000106806 0)
(0.0994685 0.000120599 0)
(0.0993905 0.000134893 0)
(0.0993055 0.00014904 0)
(0.0992139 0.000162421 0)
(0.0991167 0.000174558 0)
(0.0990149 0.000185168 0)
(0.0989096 0.000194183 0)
(0.0988018 0.000201728 0)
(0.0986925 0.000208073 0)
(0.0985821 0.000213571 0)
(0.0984712 0.000218604 0)
(0.09836 0.000223538 0)
(0.0982485 0.000228689 0)
(0.0981366 0.000234312 0)
(0.0980241 0.000240595 0)
(0.0979107 0.000247661 0)
(0.0977962 0.000255585 0)
(0.0976802 0.0002644 0)
(0.0975625 0.000274113 0)
(0.0974427 0.000284713 0)
(0.0973207 0.000296181 0)
(0.0971963 0.000308497 0)
(0.0970692 0.00032164 0)
(0.0969393 0.000335598 0)
(0.0968064 0.000350363 0)
(0.0966704 0.000365931 0)
(0.0965311 0.000382309 0)
(0.0963885 0.000399506 0)
(0.0962425 0.000417538 0)
(0.0960928 0.000436425 0)
(0.0959396 0.000456191 0)
(0.0957825 0.000476864 0)
(0.0956217 0.000498473 0)
(0.0954569 0.000521054 0)
(0.095288 0.000544642 0)
(0.0951151 0.000569281 0)
(0.094938 0.000595025 0)
(0.0947565 0.000621961 0)
(0.0945707 0.000650272 0)
(0.0943802 0.000680421 0)
(0.0999997 3.94981e-06 0)
(0.099995 1.17456e-05 0)
(0.0999851 1.94312e-05 0)
(0.0999708 2.70423e-05 0)
(0.0999522 3.46209e-05 0)
(0.0999295 4.21951e-05 0)
(0.0999028 4.97879e-05 0)
(0.0998723 5.74546e-05 0)
(0.0998381 6.53406e-05 0)
(0.0998002 7.37299e-05 0)
(0.0997584 8.30413e-05 0)
(0.0997123 9.37505e-05 0)
(0.0996611 0.000106255 0)
(0.0996043 0.000120733 0)
(0.099541 0.000137044 0)
(0.0994707 0.000154723 0)
(0.0993933 0.000173054 0)
(0.0993087 0.000191206 0)
(0.0992178 0.000208392 0)
(0.0991211 0.000223995 0)
(0.0990199 0.00023765 0)
(0.0989151 0.000249267 0)
(0.0988078 0.000259003 0)
(0.0986989 0.000267196 0)
(0.0985889 0.000274298 0)
(0.0984783 0.000280796 0)
(0.0983674 0.000287156 0)
(0.0982562 0.000293785 0)
(0.0981446 0.000301009 0)
(0.0980324 0.000309069 0)
(0.0979194 0.000318126 0)
(0.0978052 0.000328276 0)
(0.0976896 0.000339563 0)
(0.0975723 0.000351996 0)
(0.097453 0.000365564 0)
(0.0973316 0.000380243 0)
(0.0972077 0.000396006 0)
(0.0970813 0.000412829 0)
(0.096952 0.000430694 0)
(0.0968199 0.000449592 0)
(0.0966847 0.000469518 0)
(0.0965464 0.000490479 0)
(0.0964047 0.000512488 0)
(0.0962597 0.000535564 0)
(0.0961112 0.000559732 0)
(0.0959591 0.000585021 0)
(0.0958033 0.000611467 0)
(0.0956438 0.000639108 0)
(0.0954804 0.000667985 0)
(0.0953131 0.000698144 0)
(0.0951418 0.000729639 0)
(0.0949663 0.000762534 0)
(0.0947867 0.000796931 0)
(0.0946028 0.000833038 0)
(0.0944145 0.000871374 0)
(0.0999997 4.82255e-06 0)
(0.099995 1.43386e-05 0)
(0.0999852 2.37217e-05 0)
(0.0999709 3.3013e-05 0)
(0.0999524 4.22645e-05 0)
(0.0999297 5.15104e-05 0)
(0.0999032 6.07791e-05 0)
(0.0998728 7.01373e-05 0)
(0.0998387 7.97609e-05 0)
(0.099801 8.99936e-05 0)
(0.0997593 0.000101343 0)
(0.0997134 0.000114386 0)
(0.0996625 0.000129609 0)
(0.0996061 0.000147229 0)
(0.0995432 0.000167082 0)
(0.0994735 0.000188608 0)
(0.0993966 0.000210941 0)
(0.0993127 0.000233075 0)
(0.0992224 0.000254051 0)
(0.0991265 0.000273118 0)
(0.0990259 0.000289827 0)
(0.0989218 0.000304064 0)
(0.0988151 0.000316011 0)
(0.0987067 0.000326076 0)
(0.0985972 0.000334804 0)
(0.0984871 0.000342783 0)
(0.0983766 0.00035058 0)
(0.0982657 0.000358688 0)
(0.0981545 0.000367507 0)
(0.0980427 0.000377329 0)
(0.09793 0.000388355 0)
(0.0978163 0.000400701 0)
(0.0977012 0.000414425 0)
(0.0975844 0.000429539 0)
(0.0974658 0.00044603 0)
(0.097345 0.00046387 0)
(0.0972219 0.000483028 0)
(0.0970963 0.000503474 0)
(0.0969679 0.000525188 0)
(0.0968367 0.000548155 0)
(0.0967026 0.000572372 0)
(0.0965654 0.000597847 0)
(0.0964249 0.000624592 0)
(0.0962812 0.000652632 0)
(0.096134 0.000681995 0)
(0.0959834 0.000712718 0)
(0.0958292 0.000744839 0)
(0.0956713 0.000778405 0)
(0.0955097 0.000813465 0)
(0.0953442 0.000850072 0)
(0.0951749 0.000888288 0)
(0.0950015 0.000928184 0)
(0.0948242 0.000969871 0)
(0.0946427 0.00101356 0)
(0.094457 0.00105977 0)
(0.0999997 5.69222e-06 0)
(0.0999951 1.69218e-05 0)
(0.0999853 2.7996e-05 0)
(0.099971 3.89607e-05 0)
(0.0999526 4.98783e-05 0)
(0.09993 6.07892e-05 0)
(0.0999036 7.17268e-05 0)
(0.0998733 8.27693e-05 0)
(0.0998394 9.41217e-05 0)
(0.0998018 0.000106186 0)
(0.0997604 0.000119555 0)
(0.0997147 0.000134907 0)
(0.0996642 0.000152813 0)
(0.0996081 0.000173534 0)
(0.0995458 0.000196884 0)
(0.0994767 0.000222211 0)
(0.0994005 0.000248506 0)
(0.0993174 0.00027459 0)
(0.0992279 0.00029934 0)
(0.0991328 0.000321867 0)
(0.099033 0.00034164 0)
(0.0989297 0.000358514 0)
(0.0988236 0.000372698 0)
(0.0987158 0.000384662 0)
(0.0986069 0.000395039 0)
(0.0984973 0.000404518 0)
(0.0983873 0.000413762 0)
(0.0982769 0.000423351 0)
(0.0981661 0.000433755 0)
(0.0980548 0.000445323 0)
(0.0979426 0.00045829 0)
(0.0978294 0.000472798 0)
(0.0977149 0.000488916 0)
(0.0975988 0.000506662 0)
(0.0974809 0.000526022 0)
(0.097361 0.000546965 0)
(0.0972387 0.000569454 0)
(0.0971141 0.000593457 0)
(0.0969868 0.000618946 0)
(0.0968568 0.000645908 0)
(0.0967239 0.000674336 0)
(0.096588 0.000704239 0)
(0.096449 0.000735631 0)
(0.0963067 0.000768538 0)
(0.0961612 0.000802995 0)
(0.0960123 0.00083904 0)
(0.0958599 0.00087672 0)
(0.095704 0.000916086 0)
(0.0955445 0.000957193 0)
(0.0953813 0.0010001 0)
(0.0952143 0.00104488 0)
(0.0950434 0.0010916 0)
(0.0948687 0.00114037 0)
(0.0946901 0.00119137 0)
(0.0945075 0.00124503 0)
(0.0941288 0.000102615 -4.44258e-24)
(0.0939213 0.000107785 -4.53055e-24)
(0.0937039 0.000113295 -3.17383e-26)
(0.0934759 0.000119173 1.39261e-23)
(0.0932367 0.00012545 -4.61268e-24)
(0.0929855 0.00013216 -4.74952e-24)
(0.0927215 0.000139343 -1.46305e-23)
(0.0924438 0.000147042 1.4526e-23)
(0.0921513 0.000155305 4.9724e-24)
(0.0918432 0.000164186 0)
(0.0915181 0.000173745 5.13957e-24)
(0.0911749 0.000184051 -5.22946e-24)
(0.090812 0.00019518 4.30339e-23)
(0.090428 0.000207215 -9.22407e-23)
(0.0900211 0.000220256 4.93101e-23)
(0.0895895 0.00023441 3.99775e-23)
(0.089131 0.000249801 5.1299e-23)
(0.0886434 0.000266571 -5.8765e-24)
(0.0881239 0.000284879 6.00586e-24)
(0.0875698 0.000304909 -6.1426e-24)
(0.0869776 0.000326873 0)
(0.0863439 0.000351015 6.44053e-24)
(0.0856644 0.000377617 -6.60302e-24)
(0.0849346 0.000407007 0)
(0.084149 0.000439569 -6.95876e-24)
(0.0833018 0.000475755 0)
(0.0823859 0.000516098 -7.36135e-24)
(0.0813936 0.00056123 -1.23365e-22)
(0.0803156 0.00061191 1.30996e-22)
(0.0791414 0.000669047 -1.31485e-22)
(0.0778586 0.000733744 1.31284e-22)
(0.0764528 0.000807342 0)
(0.0749068 0.000891477 0)
(0.0732004 0.000988155 1.60809e-22)
(0.0713094 0.00109983 -1.51303e-22)
(0.069205 0.00122947 0)
(0.0668525 0.00138062 0)
(0.0642106 0.00155742 0)
(0.0612302 0.00176438 0)
(0.0578544 0.00200599 0)
(0.0540183 0.00228576 0)
(0.0496528 0.0026045 0)
(0.0446908 0.00295736 0)
(0.0390798 0.00332922 0)
(0.0328067 0.00368775 -1.47689e-23)
(0.0259355 0.00397352 -5.06385e-22)
(0.0186492 0.00408801 5.05625e-22)
(0.0113211 0.00388093 5.4898e-22)
(0.00484368 0.00312164 -5.48156e-22)
(0.000986656 0.00144981 0)
(0.0941379 0.000307646 -4.49538e-24)
(0.0939305 0.000323118 -9.17196e-24)
(0.0937134 0.000339611 -4.8114e-24)
(0.0934856 0.000357206 4.47712e-24)
(0.0932467 0.000375997 -4.67783e-24)
(0.0929958 0.000396088 3.35356e-23)
(0.0927322 0.000417595 -5.26681e-23)
(0.0924548 0.000440647 4.89346e-24)
(0.0921629 0.00046539 6.53403e-23)
(0.0918553 0.000491985 -9.02413e-23)
(0.0915308 0.000520615 -8.8167e-23)
(0.0911882 0.000551481 7.76898e-23)
(0.0908261 0.000584812 0)
(0.0904429 0.000620865 5.42862e-24)
(0.090037 0.000659928 -1.65942e-23)
(0.0896065 0.000702331 -1.88254e-22)
(0.0891492 0.000748442 1.80716e-22)
(0.0886629 0.000798684 -1.92106e-22)
(0.088145 0.000853539 -1.80436e-23)
(0.0875925 0.000913557 6.15607e-24)
(0.0870024 0.000979374 0)
(0.0863709 0.00105172 -6.45722e-24)
(0.085694 0.00113144 -2.08131e-22)
(0.0849671 0.00121952 4.34967e-22)
(0.084185 0.00131711 2.40001e-22)
(0.0833417 0.00142556 -4.52622e-22)
(0.0824304 0.00154647 4.87481e-22)
(0.0814435 0.00168173 -4.94656e-22)
(0.0803719 0.00183361 -7.85006e-24)
(0.0792054 0.00200483 0)
(0.0779317 0.00219868 0)
(0.0765369 0.00241916 0)
(0.0750044 0.00267115 0)
(0.0733147 0.00296062 -9.32092e-24)
(0.0714444 0.00329484 -6.31804e-22)
(0.0693658 0.00368265 -2.64728e-23)
(0.0670461 0.00413454 6.56566e-22)
(0.0644457 0.00466267 7.14377e-22)
(0.0615184 0.00528034 -7.13431e-22)
(0.0582099 0.00600061 -2.36737e-23)
(0.054459 0.00683354 -2.47124e-23)
(0.0501997 0.00778098 -8.51147e-22)
(0.0453666 0.00882779 8.23124e-22)
(0.0399066 0.00992814 -2.80095e-23)
(0.0337984 0.0109851 1.48722e-23)
(0.0270867 0.0118212 -1.02976e-21)
(0.0199188 0.0121432 1.02937e-21)
(0.0126066 0.0115046 -2.14672e-21)
(0.00592195 0.00922955 2.11082e-21)
(0.00142453 0.0042555 -2.16243e-21)
(0.094156 0.000511681 -2.65877e-23)
(0.093949 0.000537368 -9.33779e-24)
(0.0937323 0.000564746 3.59979e-23)
(0.093505 0.000593956 -7.40877e-23)
(0.0932667 0.000625151 1.58554e-22)
(0.0930164 0.000658505 -7.51195e-23)
(0.0927535 0.000694212 1.41835e-26)
(0.0924771 0.00073249 9.75956e-24)
(0.0921861 0.000773579 1.70239e-22)
(0.0918796 0.000817751 -1.60138e-22)
(0.0915563 0.000865306 0)
(0.0912151 0.000916584 1.45684e-26)
(0.0908546 0.000971963 0)
(0.0904732 0.00103187 1.86488e-22)
(0.0900692 0.00109679 -1.64381e-22)
(0.0896408 0.00116727 -3.54537e-22)
(0.089186 0.00124392 1.97682e-23)
(0.0887025 0.00132744 -3.73368e-22)
(0.0881877 0.00141865 1.20735e-23)
(0.0876388 0.00151845 -4.0012e-22)
(0.0870527 0.0016279 4.12378e-22)
(0.0864259 0.00174822 -4.20338e-22)
(0.0857542 0.00188082 4.33225e-22)
(0.0850334 0.00202733 1.36373e-23)
(0.0842582 0.00218967 -1.40123e-23)
(0.0834231 0.00237008 1.44106e-23)
(0.0825213 0.00257122 -4.82741e-22)
(0.0815455 0.00279623 4.97603e-22)
(0.080487 0.00304886 5.29458e-22)
(0.079336 0.00333361 -5.13207e-22)
(0.0780811 0.00365593 0)
(0.0767088 0.00402241 0)
(0.0752038 0.00444107 1.80264e-23)
(0.0735478 0.0049217 1.24179e-21)
(0.0717194 0.00547621 2.94263e-23)
(0.0696933 0.00611894 -1.24942e-21)
(0.0674396 0.00686692 0)
(0.0649232 0.00773971 -2.18093e-23)
(0.0621025 0.00875847 1.51774e-21)
(0.0589297 0.00994372 -3.02897e-21)
(0.05535 0.0113106 3.20898e-21)
(0.0513039 0.0128601 9.54352e-23)
(0.0467299 0.014565 -1.66555e-21)
(0.0415722 0.0163475 -1.80029e-21)
(0.0357943 0.0180462 1.85535e-21)
(0.0294006 0.0193695 1.42863e-24)
(0.0224656 0.0198361 -3.14991e-23)
(0.0151801 0.0187132 2.07482e-21)
(0.00806125 0.0149251 -2.00913e-21)
(0.00226581 0.00681689 -2.00962e-21)
(0.0941831 0.000714015 1.75161e-23)
(0.0939767 0.000749767 -8.89134e-24)
(0.0937605 0.00078786 1.95086e-26)
(0.0935341 0.000828497 9.15376e-24)
(0.0932966 0.000871895 -1.96086e-26)
(0.0930475 0.000918299 1.5217e-22)
(0.0927857 0.000967983 -2.87585e-22)
(0.0925106 0.00102125 1.54579e-22)
(0.0922212 0.00107844 -9.89997e-24)
(0.0919164 0.00113993 1.83051e-22)
(0.0915951 0.00120614 -1.62825e-22)
(0.0912561 0.00127755 -3.3808e-22)
(0.090898 0.00135468 6.82717e-22)
(0.0905193 0.00143814 -6.96339e-22)
(0.0901184 0.00152859 7.10616e-22)
(0.0896935 0.00162679 -7.14336e-22)
(0.0892426 0.00173362 -3.78215e-22)
(0.0887634 0.00185004 2.24698e-26)
(0.0882536 0.00197719 0)
(0.0877103 0.00211633 -3.89638e-22)
(0.0871305 0.00226896 4.01869e-22)
(0.0865109 0.00243676 0)
(0.0858475 0.0026217 -8.68261e-22)
(0.0851361 0.00282607 8.54171e-22)
(0.084372 0.00305253 1.41457e-23)
(0.0835495 0.00330421 -3.69624e-26)
(0.0826625 0.00358481 1.49519e-23)
(0.081704 0.00389868 0)
(0.080666 0.00425104 -5.29962e-26)
(0.0795392 0.00464813 0)
(0.0783133 0.00509745 -1.69713e-23)
(0.076976 0.00560808 1.14737e-21)
(0.0755134 0.00619104 -1.14706e-21)
(0.0739094 0.00685969 -1.89689e-23)
(0.0721454 0.00763021 3.92513e-23)
(0.0701996 0.00852199 -1.35239e-21)
(0.0680469 0.00955784 1.31035e-21)
(0.0656581 0.0107637 2.21864e-23)
(0.0629994 0.0121672 -3.54046e-25)
(0.0600318 0.0137945 2.36373e-23)
(0.0567108 0.0156632 -1.62158e-21)
(0.0529861 0.0177709 3.27686e-21)
(0.048802 0.0200756 -1.70756e-21)
(0.0440993 0.0224657 1.76351e-21)
(0.0388178 0.0247167 -1.84617e-21)
(0.0329021 0.0264311 -3.665e-21)
(0.0263115 0.0269563 7.4768e-21)
(0.0190555 0.0252904 -3.78498e-21)
(0.0113055 0.019995 0)
(0.00351506 0.00902422 -3.56125e-21)
(0.0942189 0.000914007 -8.6875e-24)
(0.0940133 0.000959599 -3.5503e-23)
(0.0937981 0.00100816 1.07649e-22)
(0.0935728 0.00105996 -1.45392e-22)
(0.0933367 0.00111528 6.40429e-23)
(0.093089 0.00117444 9.39614e-24)
(0.092829 0.00123779 -9.55603e-24)
(0.0925559 0.00130573 -2.46154e-26)
(0.0922686 0.00137869 9.89807e-24)
(0.0919663 0.00145714 -2.01378e-23)
(0.0916478 0.00154164 -3.31513e-22)
(0.0913119 0.00163278 3.42136e-22)
(0.0909573 0.00173125 -3.34355e-22)
(0.0905825 0.0018378 3.45147e-22)
(0.0901859 0.00195331 0)
(0.0897659 0.00207873 -2.47856e-26)
(0.0893205 0.00221519 0)
(0.0888475 0.00236392 -3.73381e-22)
(0.0883446 0.00252638 3.97642e-22)
(0.0878092 0.00270419 -1.25009e-23)
(0.0872384 0.00289924 -8.42933e-22)
(0.0866289 0.0031137 8.30491e-22)
(0.0859773 0.00335009 -1.3513e-23)
(0.0852793 0.00361132 0)
(0.0845306 0.00390079 0)
(0.083726 0.0042225 -9.69258e-22)
(0.0828598 0.00458112 9.39811e-22)
(0.0819257 0.00498223 0)
(0.0809164 0.0054324 -3.22515e-23)
(0.0798237 0.00593953 0)
(0.0786383 0.00651306 1.72691e-23)
(0.0773497 0.00716439 -1.77942e-23)
(0.0759462 0.00790725 -1.85328e-23)
(0.0744143 0.00875821 1.90958e-23)
(0.0727391 0.00973719 1.25623e-21)
(0.0709037 0.0108679 -1.29657e-21)
(0.068889 0.0121778 2.8167e-21)
(0.0666741 0.0136978 -2.8185e-21)
(0.0642351 0.0154602 2.98897e-21)
(0.0615449 0.0174941 8.41781e-23)
(0.0585723 0.0198169 -3.14792e-21)
(0.0552795 0.0224197 -2.51153e-23)
(0.051619 0.0252432 1.24552e-24)
(0.0475275 0.028142 1.64534e-24)
(0.0429165 0.0308335 2.16693e-24)
(0.0376549 0.0328289 -5.42467e-23)
(0.0315485 0.0333361 -2.49065e-23)
(0.0243522 0.0311231 -2.37025e-23)
(0.0157864 0.0244039 0)
(0.00519525 0.0108707 7.30659e-24)
(0.0942634 0.00111103 -4.31115e-23)
(0.0940588 0.00116622 2.59332e-23)
(0.093845 0.00122503 8.87768e-24)
(0.0936213 0.00128777 1.36336e-22)
(0.0933869 0.0013548 -1.36385e-22)
(0.0931414 0.00142651 1.41184e-22)
(0.0928838 0.00150334 -3.13438e-22)
(0.0926133 0.00158576 4.46391e-22)
(0.0923291 0.00167429 -3.12707e-22)
(0.0920302 0.00176954 -3.24578e-22)
(0.0917154 0.00187215 -1.63873e-23)
(0.0913837 0.00198287 6.59406e-22)
(0.0910337 0.00210251 -6.94772e-22)
(0.0906641 0.00223202 3.24095e-22)
(0.0902735 0.00237245 3.49954e-22)
(0.08986 0.00252498 3.66027e-22)
(0.0894219 0.00269096 -2.83717e-23)
(0.0889572 0.00287193 7.45987e-22)
(0.0884637 0.00306963 7.70735e-22)
(0.0879388 0.00328607 1.96447e-23)
(0.0873801 0.00352355 -8.17279e-22)
(0.0867843 0.00378472 0)
(0.0861483 0.00407263 0)
(0.0854683 0.00439084 -9.11725e-22)
(0.0847402 0.0047435 8.9863e-22)
(0.0839596 0.00513543 9.68281e-22)
(0.0831213 0.00557235 -9.69715e-22)
(0.0822197 0.00606095 0)
(0.0812486 0.0066092 1.08278e-21)
(0.0802011 0.00722656 -1.08487e-21)
(0.0790694 0.00792433 0)
(0.0778453 0.00871602 -2.34743e-21)
(0.0765194 0.0096178 2.36918e-21)
(0.075082 0.010649 -1.95776e-23)
(0.0735225 0.0118324 -2.61765e-21)
(0.07183 0.0131949 2.64194e-21)
(0.0699933 0.0147669 0)
(0.0680011 0.0165816 2.96228e-21)
(0.065842 0.0186717 -2.944e-21)
(0.0635039 0.0210644 2.38356e-23)
(0.0609721 0.0237701 3.24341e-21)
(0.0582251 0.0267654 -6.50506e-21)
(0.055227 0.029966 2.07157e-23)
(0.0519136 0.0331873 3.75933e-23)
(0.0481689 0.036091 3.36982e-21)
(0.0437836 0.038117 3.73291e-24)
(0.0383938 0.0383825 -2.89659e-21)
(0.0314289 0.0355226 2.96945e-21)
(0.0219313 0.0275609 0)
(0.0075478 0.0120707 2.66599e-23)
(0.0943164 0.00130425 8.4894e-24)
(0.0941134 0.0013685 7.82403e-23)
(0.0939015 0.00143704 -6.97747e-23)
(0.09368 0.00151024 8.96144e-24)
(0.0934483 0.00158851 1.37811e-22)
(0.0932056 0.00167232 -1.38027e-22)
(0.0929512 0.00176216 -2.9589e-22)
(0.0926844 0.00185861 4.33734e-24)
(0.0924042 0.00196229 -5.59358e-24)
(0.0921097 0.00207389 3.28812e-22)
(0.0918 0.00219419 -3.21357e-22)
(0.0914738 0.00232408 6.82007e-22)
(0.09113 0.00246453 -3.39876e-22)
(0.0907674 0.00261665 1.09907e-23)
(0.0903844 0.00278169 1.12502e-23)
(0.0899796 0.00296106 7.44446e-22)
(0.0895512 0.00315637 -5.05487e-24)
(0.0890975 0.00336946 7.77293e-22)
(0.0886163 0.00360241 1.24282e-23)
(0.0881054 0.00385759 0)
(0.0875625 0.00413776 0)
(0.0869848 0.00444608 -8.73297e-22)
(0.0863695 0.00478619 8.75504e-22)
(0.0857132 0.00516232 0)
(0.0850125 0.00557942 1.47356e-23)
(0.0842634 0.00604324 0)
(0.0834619 0.00656054 -1.01786e-21)
(0.0826032 0.0071393 2.07234e-21)
(0.0816824 0.00778892 -1.05455e-21)
(0.0806941 0.00852053 -2.23473e-21)
(0.0796327 0.00934735 -7.47494e-23)
(0.0784923 0.0102851 -7.87568e-23)
(0.077267 0.0113523 -8.26503e-23)
(0.0759508 0.0125709 2.51134e-21)
(0.0745385 0.0139662 2.69297e-21)
(0.0730258 0.0155672 -2.69939e-21)
(0.07141 0.0174054 0)
(0.0696904 0.0195129 2.98326e-21)
(0.0678689 0.0219179 -2.9902e-21)
(0.0659491 0.0246369 -3.17161e-21)
(0.0639342 0.0276609 3.15414e-21)
(0.0618209 0.0309344 2.57635e-23)
(0.0595882 0.0343259 3.16479e-21)
(0.0571771 0.0375875 -1.04148e-22)
(0.0544573 0.040306 -3.12588e-21)
(0.0511658 0.041853 2.38577e-23)
(0.0468197 0.0413227 0)
(0.040606 0.0374086 -1.90645e-23)
(0.0307412 0.028337 -9.26889e-22)
(0.0121529 0.0120041 4.15058e-22)
(-0.000205568 0.00027994 0)
(-0.000900096 0.000536625 3.17791e-22)
(-0.00194242 0.000603623 -3.18268e-22)
(-0.00300599 0.00056634 -3.17704e-22)
(-0.00393369 0.000471786 3.18182e-22)
(-0.00466134 0.000347831 -9.8209e-24)
(-0.00515666 0.0002113 0)
(-0.00540486 7.20637e-05 0)
(-0.00540661 -6.4025e-05 0)
(-0.00517178 -0.00019537 0)
(-0.00471 -0.000319988 0)
(-0.00403162 -0.000436937 0)
(-0.00314915 -0.000545994 0)
(-0.00207542 -0.000647309 0)
(-0.000823428 -0.000740751 0)
(0.000593962 -0.000826528 1.08279e-22)
(0.00216409 -0.000904911 -1.01838e-22)
(0.00387432 -0.000976035 0)
(0.00571238 -0.00104006 0)
(0.00766613 -0.00109719 -8.33659e-23)
(0.00972369 -0.00114758 8.34932e-23)
(0.0118734 -0.00119137 -6.63668e-23)
(0.0141036 -0.00122868 4.27403e-24)
(0.0164027 -0.00125963 0)
(0.0187597 -0.0012844 3.5402e-24)
(0.0211635 -0.00130327 0)
(0.0236036 -0.0013165 0)
(0.0260699 -0.00132436 0)
(0.0285526 -0.00132713 2.22874e-24)
(0.0310426 -0.00132507 0)
(0.033531 -0.00131848 -1.66943e-24)
(0.0360094 -0.00130765 1.41622e-24)
(0.0384699 -0.00129289 -1.18096e-24)
(0.0409052 -0.00127449 7.76853e-24)
(0.0433085 -0.00125277 -7.57954e-24)
(0.0456734 -0.00122803 -3.32313e-24)
(0.0479943 -0.00120058 6.15162e-24)
(0.0502659 -0.00117074 -2.66149e-24)
(0.0524837 -0.0011388 -1.354e-25)
(0.0546436 -0.00110507 1.74182e-26)
(0.056742 -0.00106984 0)
(0.0587759 -0.00103339 -1.77062e-25)
(0.060743 -0.000995999 1.43513e-24)
(0.0626414 -0.000957926 -1.50385e-24)
(0.0644694 -0.00091942 3.78643e-25)
(0.0662263 -0.000880717 -1.32381e-24)
(0.0679114 -0.000842033 4.36058e-25)
(0.0695246 -0.000803564 1.0035e-24)
(0.0710662 -0.000765475 -5.10256e-25)
(0.0725367 -0.000727894 5.34673e-25)
(-0.000268001 0.000804965 -1.20449e-21)
(-0.00100636 0.00153822 -1.31683e-21)
(-0.00196138 0.00173025 1.29805e-21)
(-0.00288581 0.00162174 -6.24488e-22)
(-0.00366153 0.00134684 6.25533e-22)
(-0.00424158 0.000986264 9.88906e-24)
(-0.00460263 0.000588402 -1.96136e-23)
(-0.00473323 0.000181721 -6.22877e-22)
(-0.00463623 -0.000216237 6.04475e-22)
(-0.00432081 -0.000601076 -1.82159e-23)
(-0.0037937 -0.000966939 -1.76409e-23)
(-0.00306408 -0.00131101 5.30838e-22)
(-0.00214319 -0.00163236 -5.31543e-22)
(-0.00104207 -0.00193143 -4.86321e-22)
(0.000227819 -0.00220756 2.42894e-23)
(0.00165452 -0.00246147 4.63296e-22)
(0.00322654 -0.00269374 -6.63773e-24)
(0.00493237 -0.00290471 -1.26326e-23)
(0.00676054 -0.00309484 0)
(0.00869966 -0.0032646 0)
(0.0107385 -0.00341449 0)
(0.0128661 -0.0035449 -4.67316e-24)
(0.0150712 -0.00365616 2.50795e-22)
(0.0173428 -0.0037486 -2.72105e-22)
(0.0196703 -0.00382282 2.13697e-22)
(0.022043 -0.00387953 -1.19953e-22)
(0.0244508 -0.00391954 -1.84727e-22)
(0.0268839 -0.00394362 8.71254e-23)
(0.0293328 -0.00395256 -2.23448e-24)
(0.0317886 -0.00394715 -3.9883e-24)
(0.0342427 -0.00392824 1.67308e-24)
(0.0366869 -0.00389668 -4.34494e-24)
(0.0391136 -0.00385336 3.35158e-23)
(0.0415154 -0.00379917 -6.38663e-23)
(0.0438859 -0.00373502 2.72728e-23)
(0.0462187 -0.00366184 -1.81606e-24)
(0.0485083 -0.00358055 4.17407e-25)
(0.0507495 -0.00349205 0)
(0.0529379 -0.00339727 -1.55362e-24)
(0.0550694 -0.00329709 1.34814e-24)
(0.0571405 -0.00319239 -1.85968e-24)
(0.0591484 -0.00308402 2.47697e-24)
(0.0610905 -0.00297279 -2.55289e-25)
(0.062965 -0.00285949 -1.82315e-24)
(0.0647704 -0.00274486 3.10178e-24)
(0.0665058 -0.00262961 4.25125e-25)
(0.0681706 -0.00251437 3.2553e-24)
(0.0697647 -0.00239974 5.73665e-25)
(0.0712882 -0.0022862 -9.62862e-25)
(0.0727417 -0.00217412 -1.57737e-24)
(-0.000376969 0.00123091 -1.24642e-21)
(-0.00118083 0.00232712 1.36811e-21)
(-0.00195039 0.00262204 -1.32726e-21)
(-0.00259949 0.00245245 -2.07131e-23)
(-0.00308029 0.00202349 -3.33633e-25)
(-0.00337682 0.00146031 -1.26955e-21)
(-0.00348205 0.000836585 1.31118e-21)
(-0.00338921 0.000196379 1.25485e-21)
(-0.00310489 -0.000433532 -1.45601e-23)
(-0.00263763 -0.00104576 -2.35224e-21)
(-0.00198824 -0.0016301 2.31325e-21)
(-0.00116304 -0.00218199 -1.1112e-21)
(-0.000170955 -0.002699 -1.67631e-23)
(0.000980373 -0.00318109 0)
(0.00228243 -0.00362819 9.62258e-22)
(0.0037249 -0.00404073 -6.48961e-23)
(0.00529872 -0.004419 -8.84582e-22)
(0.00699434 -0.00476343 2.57282e-23)
(0.0088019 -0.00507458 0)
(0.0107115 -0.00535307 0)
(0.0127131 -0.00559955 3.21079e-22)
(0.0147969 -0.00581458 -3.11615e-22)
(0.0169526 -0.00599857 -2.62432e-22)
(0.0191704 -0.00615209 2.79479e-22)
(0.0214401 -0.00627582 7.47268e-24)
(0.0237523 -0.00637101 -6.75166e-24)
(0.0260972 -0.00643887 6.05808e-24)
(0.0284656 -0.00648061 -1.53805e-22)
(0.0308489 -0.00649749 1.59351e-22)
(0.0332384 -0.00649077 -1.13173e-22)
(0.0356261 -0.00646179 1.21462e-22)
(0.0380041 -0.00641193 2.93745e-24)
(0.0403651 -0.00634261 7.30744e-23)
(0.0427022 -0.00625529 -1.30645e-22)
(0.045009 -0.00615146 6.11711e-23)
(0.0472796 -0.00603261 1.90077e-23)
(0.0495086 -0.00590026 -1.6786e-23)
(0.051691 -0.0057559 0)
(0.0538224 -0.00560103 -8.85034e-26)
(0.055899 -0.00543714 0)
(0.0579173 -0.00526564 -3.10103e-24)
(0.0598745 -0.00508796 2.717e-24)
(0.0617682 -0.00490543 -4.06403e-25)
(0.0635966 -0.00471936 -5.92536e-26)
(0.0653581 -0.00453098 -6.04467e-24)
(0.0670519 -0.00434145 1.19275e-23)
(0.0686773 -0.00415185 -6.75197e-24)
(0.0702342 -0.00396314 3.82273e-24)
(0.0717226 -0.00377613 -2.81796e-24)
(0.0731431 -0.00359136 -1.01304e-24)
(-0.000503809 0.00147735 -2.67988e-21)
(-0.00134101 0.00278305 0)
(-0.0018003 0.00315147 2.79155e-21)
(-0.002048 0.00293503 -5.58727e-21)
(-0.00210989 0.00239439 2.8169e-21)
(-0.00201073 0.00168301 1.29575e-21)
(-0.00176369 0.00089215 -1.35945e-21)
(-0.00136654 7.97518e-05 1.27707e-21)
(-0.000829043 -0.000742459 -2.54013e-21)
(-0.000157258 -0.0015443 1.24347e-21)
(0.000655469 -0.00231189 1.86873e-23)
(0.00160743 -0.00304044 2.83455e-25)
(0.00269372 -0.00372747 1.70515e-23)
(0.00390931 -0.00437117 -1.04492e-21)
(0.00524995 -0.0049714 1.01313e-21)
(0.00670941 -0.00552756 2.98488e-23)
(0.00828121 -0.00603953 -1.39757e-23)
(0.00995827 -0.0065075 8.24539e-22)
(0.011733 -0.00693185 -8.24543e-22)
(0.0135975 -0.00731304 -1.18084e-23)
(0.0155436 -0.00765167 0)
(0.017563 -0.00794829 2.84793e-25)
(0.0196469 -0.00820334 0)
(0.0217865 -0.00841718 8.57784e-24)
(0.0239733 -0.00859083 2.63818e-25)
(0.0261982 -0.00872553 6.81558e-24)
(0.0284529 -0.00882303 -3.82436e-22)
(0.0307289 -0.00888485 3.76693e-22)
(0.0330184 -0.00891258 0)
(0.0353133 -0.00890789 -1.27876e-22)
(0.0376063 -0.00887252 1.31966e-22)
(0.03989 -0.0088083 0)
(0.0421576 -0.00871715 -1.80939e-25)
(0.0444026 -0.00860101 -6.65616e-23)
(0.046619 -0.0084619 1.17803e-22)
(0.0488011 -0.00830186 -9.11963e-23)
(0.0509439 -0.00812294 6.89001e-23)
(0.0530426 -0.00792721 -4.85277e-23)
(0.055093 -0.00771672 1.9358e-23)
(0.0570914 -0.00749348 1.67871e-24)
(0.0590345 -0.0072595 -1.67788e-24)
(0.0609197 -0.0070167 1.46319e-25)
(0.0627444 -0.00676695 7.12837e-24)
(0.064507 -0.00651207 -1.72297e-23)
(0.0662059 -0.00625375 9.10146e-24)
(0.0678403 -0.00599362 6.79284e-26)
(0.0694094 -0.00573317 -8.47956e-25)
(0.0709132 -0.00547374 -5.69879e-26)
(0.0723515 -0.00521644 9.64498e-25)
(0.0737249 -0.00496192 -1.95796e-24)
(-0.000561394 0.00147277 -1.52219e-24)
(-0.00130173 0.00283195 -2.48959e-23)
(-0.00133143 0.00323359 -2.41805e-23)
(-0.00107082 0.00299624 -2.35397e-23)
(-0.000621841 0.00240101 -4.53622e-23)
(-5.14041e-05 0.00160798 -4.63057e-25)
(0.000613027 0.000718958 2.14769e-23)
(0.00134993 -0.000211283 -2.13384e-23)