/*--------------------------------*- C++ -*----------------------------------*\
| =========                 |                                                 |
| \\      /  F ield         | OpenFOAM: The Open Source CFD Toolbox           |
|  \\    /   O peration     | Version:  2412                                  |
|   \\  /    A nd           | Website:  www.openfoam.com                      |
|    \\/     M anipulation  |                                                 |
\*---------------------------------------------------------------------------*/
FoamFile
{
    version     2.0;
    format      ascii;
    arch        "LSB;label=32;scalar=64";
    class       volVectorField;
    location    "26";
    object      vorticity;
}
// * * * * * * * * * * * * * * * * * * * * * * * * * * * * * * * * * * * * * //

dimensions      [0 0 -1 0 0 0 0];

internalField   nonuniform List<vector> 
63420
(
(0 0 5.94185e-06)
(0 0 5.91624e-06)
(0 0 5.893e-06)
(0 0 5.87129e-06)
(0 0 5.84627e-06)
(0 0 5.81362e-06)
(0 0 5.78817e-06)
(0 0 5.82734e-06)
(0 0 6.03765e-06)
(0 0 6.54607e-06)
(0 0 7.43947e-06)
(0 0 8.69897e-06)
(0 0 1.01641e-05)
(0 0 1.15491e-05)
(0 0 1.25087e-05)
(0 0 1.27289e-05)
(0 0 1.201e-05)
(0 0 1.03151e-05)
(0 0 7.77287e-06)
(0 0 4.6409e-06)
(0 0 1.24566e-06)
(0 0 -2.08208e-06)
(0 0 -5.06036e-06)
(0 0 -7.48921e-06)
(0 0 -9.2622e-06)
(0 0 -1.036e-05)
(0 0 -1.08324e-05)
(0 0 -1.07752e-05)
(0 0 -1.03074e-05)
(0 0 -9.55205e-06)
(0 0 -8.62274e-06)
(0 0 -7.61513e-06)
(0 0 -6.60362e-06)
(0 0 -5.64123e-06)
(0 0 -4.76193e-06)
(0 0 -3.98396e-06)
(0 0 -3.31363e-06)
(0 0 -2.74883e-06)
(0 0 -2.28201e-06)
(0 0 -1.90263e-06)
(0 0 -1.5989e-06)
(0 0 -1.35899e-06)
(0 0 -1.17181e-06)
(0 0 -1.02744e-06)
(0 0 -9.17272e-07)
(0 0 -8.34066e-07)
(0 0 -7.7175e-07)
(0 0 -7.25106e-07)
(0 0 -6.88826e-07)
(0 0 -6.54653e-07)
(0 0 -6.02141e-07)
(0 0 -4.69038e-07)
(0 0 -5.90873e-08)
(0 0 1.23674e-06)
(0 4.40823e-23 5.25113e-06)
(0 0 1.78253e-05)
(0 0 1.77481e-05)
(0 0 1.76774e-05)
(0 0 1.76115e-05)
(0 0 1.75361e-05)
(0 0 1.74385e-05)
(0 0 1.73628e-05)
(0 0 1.74802e-05)
(0 0 1.81087e-05)
(0 0 1.9628e-05)
(0 0 2.22983e-05)
(0 0 2.60644e-05)
(0 0 3.04487e-05)
(0 0 3.45987e-05)
(0 0 3.74835e-05)
(0 0 3.8165e-05)
(0 0 3.60449e-05)
(0 0 3.10103e-05)
(0 0 2.34423e-05)
(0 0 1.41079e-05)
(0 0 3.97979e-06)
(0 0 -5.95525e-06)
(0 0 -1.48554e-05)
(0 0 -2.21229e-05)
(0 0 -2.74384e-05)
(0 0 -3.07423e-05)
(0 0 -3.21814e-05)
(0 0 -3.20399e-05)
(0 0 -3.06716e-05)
(0 0 -2.8443e-05)
(0 0 -2.56922e-05)
(0 0 -2.27046e-05)
(0 0 -1.97019e-05)
(0 0 -1.68428e-05)
(0 0 -1.42287e-05)
(0 0 -1.19147e-05)
(0 0 -9.91973e-06)
(0 0 -8.23799e-06)
(0 0 -6.84729e-06)
(0 0 -5.71643e-06)
(0 0 -4.81047e-06)
(0 0 -4.09433e-06)
(0 0 -3.53507e-06)
(0 0 -3.10316e-06)
(0 0 -2.77303e-06)
(0 0 -2.52309e-06)
(0 0 -2.33525e-06)
(0 0 -2.194e-06)
(0 0 -2.08362e-06)
(0 0 -1.97994e-06)
(0 0 -1.82348e-06)
(0 0 -1.43356e-06)
(0 0 -2.40021e-07)
(0 0 3.52899e-06)
(0 4.45518e-23 1.52143e-05)
(0 0 2.96964e-05)
(0 0 2.95677e-05)
(0 0 2.94496e-05)
(0 0 2.93393e-05)
(0 0 2.92137e-05)
(0 0 2.90516e-05)
(0 0 2.89255e-05)
(0 0 2.91193e-05)
(0 0 3.01609e-05)
(0 0 3.26813e-05)
(0 0 3.71159e-05)
(0 0 4.33781e-05)
(0 0 5.06805e-05)
(0 0 5.7613e-05)
(0 0 6.24662e-05)
(0 0 6.36807e-05)
(0 0 6.02576e-05)
(0 0 5.20004e-05)
(0 0 3.95323e-05)
(0 0 2.41168e-05)
(0 0 7.36195e-06)
(0 0 -9.09846e-06)
(0 0 -2.38679e-05)
(0 0 -3.59518e-05)
(0 0 -4.48161e-05)
(0 0 -5.03567e-05)
(0 0 -5.28118e-05)
(0 0 -5.2648e-05)
(0 0 -5.04482e-05)
(0 0 -4.68171e-05)
(0 0 -4.23139e-05)
(0 0 -3.74106e-05)
(0 0 -3.24751e-05)
(0 0 -2.77703e-05)
(0 0 -2.34654e-05)
(0 0 -1.9652e-05)
(0 0 -1.63629e-05)
(0 0 -1.35889e-05)
(0 0 -1.12941e-05)
(0 0 -9.42751e-06)
(0 0 -7.93172e-06)
(0 0 -6.74904e-06)
(0 0 -5.82523e-06)
(0 0 -5.11166e-06)
(0 0 -4.5662e-06)
(0 0 -4.15319e-06)
(0 0 -3.84288e-06)
(0 0 -3.60973e-06)
(0 0 -3.42823e-06)
(0 0 -3.26001e-06)
(0 0 -3.01222e-06)
(0 0 -2.40387e-06)
(0 0 -5.46402e-07)
(0 0 5.33152e-06)
(0 2.62862e-22 2.36161e-05)
(0 0 4.15473e-05)
(0 0 4.13671e-05)
(0 0 4.12013e-05)
(0 0 4.10466e-05)
(0 0 4.0871e-05)
(0 0 4.06448e-05)
(0 0 4.04685e-05)
(0 0 4.07359e-05)
(0 0 4.21818e-05)
(0 0 4.56877e-05)
(0 0 5.18662e-05)
(0 0 6.06071e-05)
(0 0 7.08263e-05)
(0 0 8.05697e-05)
(0 0 8.74612e-05)
(0 0 8.93251e-05)
(0 0 8.47583e-05)
(0 0 7.3469e-05)
(0 0 5.63045e-05)
(0 0 3.50054e-05)
(0 0 1.17961e-05)
(0 0 -1.10565e-05)
(0 0 -3.16093e-05)
(0 0 -4.84733e-05)
(0 0 -6.08965e-05)
(0 0 -6.87235e-05)
(0 0 -7.22745e-05)
(0 0 -7.21889e-05)
(0 0 -6.92693e-05)
(0 0 -6.4351e-05)
(0 0 -5.82075e-05)
(0 0 -5.14936e-05)
(0 0 -4.47199e-05)
(0 0 -3.82528e-05)
(0 0 -3.23284e-05)
(0 0 -2.70758e-05)
(0 0 -2.25421e-05)
(0 0 -1.87163e-05)
(0 0 -1.555e-05)
(0 0 -1.29735e-05)
(0 0 -1.09082e-05)
(0 0 -9.27501e-06)
(0 0 -7.99921e-06)
(0 0 -7.01388e-06)
(0 0 -6.26092e-06)
(0 0 -5.69119e-06)
(0 0 -5.26365e-06)
(0 0 -4.94332e-06)
(0 0 -4.6958e-06)
(0 0 -4.47126e-06)
(0 0 -4.1525e-06)
(0 0 -3.38747e-06)
(0 0 -1.06022e-06)
(0 0 6.33275e-06)
(0 -1.72556e-22 2.94742e-05)
(0 0 5.33704e-05)
(0 0 5.3138e-05)
(0 0 5.29242e-05)
(0 0 5.27251e-05)
(0 0 5.24999e-05)
(0 0 5.22105e-05)
(0 0 5.19838e-05)
(0 0 5.2321e-05)
(0 0 5.41598e-05)
(0 0 5.86298e-05)
(0 0 6.65242e-05)
(0 0 7.77198e-05)
(0 0 9.08522e-05)
(0 0 0.000103443)
(0 0 0.000112465)
(0 0 0.000115132)
(0 0 0.000109634)
(0 0 9.55674e-05)
(0 0 7.39796e-05)
(0 0 4.70618e-05)
(0 0 1.76302e-05)
(0 0 -1.14346e-05)
(0 0 -3.76541e-05)
(0 0 -5.9248e-05)
(0 0 -7.52422e-05)
(0 0 -8.54206e-05)
(0 0 -9.01737e-05)
(0 0 -9.03e-05)
(0 0 -8.68098e-05)
(0 0 -8.0758e-05)
(0 0 -7.31243e-05)
(0 0 -6.47399e-05)
(0 0 -5.62548e-05)
(0 0 -4.81365e-05)
(0 0 -4.0688e-05)
(0 0 -3.40762e-05)
(0 0 -2.8364e-05)
(0 0 -2.35399e-05)
(0 0 -1.95448e-05)
(0 0 -1.62922e-05)
(0 0 -1.3684e-05)
(0 0 -1.16207e-05)
(0 0 -1.00087e-05)
(0 0 -8.76366e-06)
(0 0 -7.81236e-06)
(0 0 -7.09287e-06)
(0 0 -6.55353e-06)
(0 0 -6.15047e-06)
(0 0 -5.84167e-06)
(0 0 -5.56921e-06)
(0 0 -5.20307e-06)
(0 0 -4.3591e-06)
(0 0 -1.81828e-06)
(0 0 6.28542e-06)
(0 8.51829e-23 3.1916e-05)
(0 0 6.51591e-05)
(0 0 6.48722e-05)
(0 0 6.461e-05)
(0 0 6.43665e-05)
(0 0 6.40923e-05)
(0 0 6.37406e-05)
(0 0 6.34636e-05)
(0 0 6.38659e-05)
(0 0 6.60836e-05)
(0 0 7.14915e-05)
(0 0 8.10672e-05)
(0 0 9.46872e-05)
(0 0 0.000110728)
(0 0 0.000126209)
(0 0 0.000137471)
(0 0 0.000141128)
(0 0 0.000134956)
(0 0 0.000118421)
(0 0 9.27415e-05)
(0 0 6.05275e-05)
(0 0 2.51563e-05)
(0 0 -9.90083e-06)
(0 0 -4.16441e-05)
(0 0 -6.79055e-05)
(0 0 -8.74842e-05)
(0 0 -0.000100092)
(0 0 -0.000106175)
(0 0 -0.000106676)
(0 0 -0.000102795)
(0 0 -9.57964e-05)
(0 0 -8.68543e-05)
(0 0 -7.69693e-05)
(0 0 -6.69262e-05)
(0 0 -5.72914e-05)
(0 0 -4.84342e-05)
(0 0 -4.05599e-05)
(0 0 -3.37486e-05)
(0 0 -2.79906e-05)
(0 0 -2.32181e-05)
(0 0 -1.93298e-05)
(0 0 -1.62098e-05)
(0 0 -1.37405e-05)
(0 0 -1.18104e-05)
(0 0 -1.03191e-05)
(0 0 -9.17948e-06)
(0 0 -8.31753e-06)
(0 0 -7.67168e-06)
(0 0 -7.18997e-06)
(0 0 -6.82397e-06)
(0 0 -6.51138e-06)
(0 0 -6.12215e-06)
(0 0 -5.28531e-06)
(0 0 -2.83324e-06)
(0 0 4.97967e-06)
(0 4.2031e-22 3.01153e-05)
(0 0 7.69047e-05)
(0 0 7.65608e-05)
(0 0 7.62502e-05)
(0 0 7.59626e-05)
(0 0 7.56401e-05)
(0 0 7.52273e-05)
(0 0 7.49001e-05)
(0 0 7.53623e-05)
(0 0 7.79426e-05)
(0 0 8.4258e-05)
(0 0 9.54747e-05)
(0 0 0.000111483)
(0 0 0.000130423)
(0 0 0.00014884)
(0 0 0.000162465)
(0 0 0.000167323)
(0 0 0.000160767)
(0 0 0.000142113)
(0 0 0.000112721)
(0 0 7.55797e-05)
(0 0 3.45931e-05)
(0 0 -6.2034e-06)
(0 0 -4.33046e-05)
(0 0 -7.41596e-05)
(0 0 -9.73355e-05)
(0 0 -0.00011246)
(0 0 -0.000120017)
(0 0 -0.000121074)
(0 0 -0.000117008)
(0 0 -0.000109274)
(0 0 -9.92299e-05)
(0 0 -8.80377e-05)
(0 0 -7.66115e-05)
(0 0 -6.56138e-05)
(0 0 -5.54793e-05)
(0 0 -4.64529e-05)
(0 0 -3.86333e-05)
(0 0 -3.20149e-05)
(0 0 -2.65235e-05)
(0 0 -2.20455e-05)
(0 0 -1.84496e-05)
(0 0 -1.56015e-05)
(0 0 -1.3374e-05)
(0 0 -1.1652e-05)
(0 0 -1.03354e-05)
(0 0 -9.3394e-06)
(0 0 -8.59314e-06)
(0 0 -8.03738e-06)
(0 0 -7.6185e-06)
(0 0 -7.27313e-06)
(0 0 -6.88277e-06)
(0 0 -6.1342e-06)
(0 0 -4.08488e-06)
(0 0 2.24988e-06)
(0 -8.22173e-23 2.3136e-05)
(-1.76895e-23 7.92471e-21 3.24648e-06)
(-1.44516e-22 7.79176e-21 2.59794e-06)
(3.16436e-23 -1.93291e-22 1.72713e-06)
(3.90551e-23 -2.32575e-20 5.90921e-07)
(-9.02733e-23 7.94369e-21 -8.46568e-07)
(3.53772e-22 7.80181e-21 -2.61418e-06)
(-7.77354e-22 2.27463e-20 -4.73552e-06)
(3.05599e-22 -2.31098e-20 -7.23133e-06)
(6.14659e-22 -7.43664e-21 -1.01216e-05)
(-8.76761e-22 -3.65967e-24 -1.34277e-05)
(-8.7544e-22 -7.44871e-21 -1.71731e-05)
(7.66631e-22 7.07784e-21 -2.13846e-05)
(5.59051e-22 -5.82795e-20 -2.60938e-05)
(-1.03432e-21 1.25093e-19 -3.13367e-05)
(3.58441e-22 -6.72802e-20 -3.71535e-05)
(-1.19936e-21 -5.07209e-20 -4.36005e-05)
(2.31673e-21 -6.45898e-20 -5.07235e-05)
(-1.81486e-21 7.60599e-21 -5.86162e-05)
(-1.83425e-22 -7.09868e-21 -6.73242e-05)
(6.94048e-23 7.10191e-21 -7.69556e-05)
(-3.07466e-24 -1.25758e-22 -8.7595e-05)
(-6.4353e-23 -6.84876e-21 -9.93588e-05)
(-1.96732e-21 6.90621e-21 -0.000112379)
(4.11154e-21 1.26404e-23 -0.000126807)
(1.19788e-21 6.70264e-21 -0.000142817)
(-3.20353e-21 -5.19936e-24 -0.000160613)
(4.6076e-21 7.77465e-21 -0.000180436)
(-5.42349e-21 1.00921e-19 -0.000202575)
(6.90995e-22 -1.08364e-19 -0.000227388)
(-2.1038e-21 9.89259e-20 -0.000255337)
(2.04987e-21 -1.00043e-19 -0.000287043)
(4.74171e-23 1.31118e-21 -0.000323398)
(-6.16609e-23 -1.60823e-21 -0.000365747)
(2.73891e-21 -9.45353e-20 -0.000416235)
(-8.47363e-21 9.17359e-20 -0.000478399)
(-3.05758e-22 -1.51167e-21 -0.000558228)
(6.05392e-21 1.32405e-23 -0.000665942)
(6.57459e-21 1.43793e-23 -0.000818926)
(-6.55355e-21 -1.43333e-23 -0.00104635)
(-2.17058e-22 -4.74728e-25 -0.00139608)
(-2.26158e-22 -4.9463e-25 -0.00194433)
(-7.77482e-21 -1.70043e-23 -0.00280809)
(7.50483e-21 1.64138e-23 -0.00415918)
(-2.47515e-22 1.47145e-22 -0.00623711)
(-3.46505e-23 7.61023e-21 -0.00935523)
(-2.39812e-20 4.91965e-20 -0.0138923)
(2.3099e-20 -6.48415e-20 -0.0202578)
(-5.41815e-21 -9.16789e-21 -0.0288173)
(5.95457e-21 2.51437e-20 -0.0397752)
(-1.9764e-20 -5.51744e-21 -0.0529353)
(-2.54654e-22 7.93495e-21 9.56357e-06)
(-1.05437e-22 1.56087e-20 7.55365e-06)
(2.92377e-22 7.59027e-21 4.82117e-06)
(-8.49714e-22 -7.80465e-21 1.23917e-06)
(1.57898e-21 7.44533e-21 -3.29406e-06)
(-4.77278e-22 -5.32934e-20 -8.8583e-06)
(-2.33835e-22 8.46126e-20 -1.55193e-05)
(-5.43254e-23 -8.79706e-21 -2.33369e-05)
(2.14837e-21 -9.74183e-20 -3.23717e-05)
(-2.24392e-21 1.37514e-19 -4.26892e-05)
(-8.42451e-22 1.25655e-19 -5.43648e-05)
(6.2444e-22 -1.1302e-19 -6.74853e-05)
(-3.83689e-22 7.19036e-22 -8.21513e-05)
(2.73868e-21 -7.1978e-21 -9.8479e-05)
(-2.13926e-21 2.3907e-20 -0.000116606)
(-5.91488e-21 2.37615e-19 -0.000136691)
(1.66591e-21 -2.23401e-19 -0.000158956)
(-5.54286e-21 2.39395e-19 -0.000183557)
(-2.97807e-22 1.93895e-20 -0.000210778)
(-3.75067e-21 -7.25775e-21 -0.000240855)
(3.96654e-21 1.41906e-22 -0.000274121)
(-3.98131e-21 8.99859e-21 -0.000310948)
(9.05867e-22 2.07741e-19 -0.000351753)
(5.98153e-21 -4.39747e-19 -0.00039702)
(4.52347e-21 -2.10003e-19 -0.000447307)
(-7.06033e-21 4.25172e-19 -0.000503264)
(3.79858e-21 -4.23728e-19 -0.000565658)
(-2.16961e-21 4.3474e-19 -0.000635409)
(3.21046e-21 1.46299e-21 -0.000713652)
(-3.63878e-21 -9.53579e-23 -0.000801843)
(-1.22243e-21 -2.67358e-24 -0.000901933)
(0 0 -0.00101669)
(1.80586e-22 9.36988e-23 -0.00115027)
(1.07879e-20 1.21101e-20 -0.00130925)
(-1.57578e-20 3.53919e-19 -0.00150443)
(-1.54111e-20 -2.39258e-20 -0.00175408)
(1.85368e-20 -3.48883e-19 -0.00208928)
(2.63315e-20 -3.01122e-19 -0.00256286)
(-9.5676e-21 3.21647e-19 -0.00326339)
(-3.04058e-20 2.13696e-21 -0.00433607)
(2.9632e-20 1.69106e-20 -0.0060119)
(-4.1431e-20 2.28703e-19 -0.00864509)
(2.2564e-20 -2.37884e-19 -0.0127553)
(-1.75244e-20 1.42863e-20 -0.0190663)
(1.94106e-20 7.49795e-21 -0.0285244)
(-5.83039e-20 1.10088e-19 -0.0422725)
(5.82231e-20 -1.07764e-19 -0.0615422)
(-8.91394e-20 8.0293e-20 -0.0874138)
(8.60203e-20 -8.96832e-20 -0.120431)
(-1.82594e-20 -6.1343e-22 -0.158668)
(-5.81277e-23 4.70198e-20 1.53449e-05)
(-8.87296e-23 1.48686e-20 1.17321e-05)
(3.88323e-22 -6.15931e-20 6.72376e-06)
(-8.31637e-22 1.22503e-19 1.23579e-07)
(1.82818e-21 -2.62202e-19 -8.21029e-06)
(3.31649e-22 1.24655e-19 -1.83866e-05)
(-2.39779e-21 -8.50577e-22 -3.05001e-05)
(1.5372e-21 -1.69191e-20 -4.4646e-05)
(1.54737e-21 -2.55753e-19 -6.09286e-05)
(6.3277e-22 2.43665e-19 -7.94684e-05)
(-8.39781e-22 -1.59353e-21 -0.000100406)
(-4.13231e-21 -1.53805e-23 -0.000123907)
(6.55149e-21 -1.81512e-21 -0.000150164)
(-3.76662e-21 -2.49308e-19 -0.000179397)
(4.96905e-21 2.26512e-19 -0.000211866)
(-1.14481e-20 4.50064e-19 -0.000247891)
(-4.73804e-21 -1.19203e-20 -0.000287826)
(-4.88697e-21 4.62993e-19 -0.000332077)
(4.08916e-22 -1.40513e-20 -0.000381051)
(-1.24568e-20 4.49429e-19 -0.00043528)
(1.23874e-20 -4.66733e-19 -0.000495369)
(-9.33358e-21 4.4556e-19 -0.000562016)
(2.66742e-21 -4.63414e-19 -0.00063601)
(5.15684e-21 -9.26755e-21 -0.000718261)
(-2.56748e-21 1.3575e-20 -0.00080982)
(5.47127e-21 -8.76827e-21 -0.000911911)
(-1.89791e-20 4.17269e-19 -0.00102597)
(1.71131e-20 -4.4467e-19 -0.00115373)
(1.86442e-20 -4.13021e-19 -0.00129729)
(-1.53676e-20 4.14871e-19 -0.00145933)
(-1.06683e-21 -5.09377e-21 -0.00164338)
(1.10365e-20 -1.1942e-22 -0.0018544)
(-1.26075e-20 -2.44201e-20 -0.0020997)
(5.36089e-20 -7.52763e-19 -0.00239075)
(1.63555e-20 5.5846e-20 -0.0027462)
(-7.02589e-20 7.08541e-19 -0.00319735)
(3.88772e-21 -1.21413e-20 -0.00379737)
(-1.12636e-20 -4.74809e-21 -0.00463639)
(1.09554e-19 -5.93468e-19 -0.00586534)
(-2.03861e-19 1.16514e-18 -0.00773131)
(2.07797e-19 -1.15682e-18 -0.0106269)
(6.9722e-20 8.38995e-20 -0.0151532)
(-1.55285e-19 5.05893e-19 -0.0221912)
(-1.62456e-19 3.48433e-19 -0.0329669)
(1.53598e-19 -4.13094e-19 -0.0490843)
(-2.17148e-20 1.9042e-20 -0.072484)
(5.36432e-20 -1.69309e-20 -0.105255)
(1.60637e-19 -9.96624e-20 -0.149189)
(-1.73943e-19 1.55764e-19 -0.204996)
(-2.48499e-20 -4.00164e-20 -0.265034)
(4.12751e-22 -3.10123e-20 2.01261e-05)
(-3.65246e-22 1.56771e-20 1.43506e-05)
(6.73848e-22 -1.67942e-22 6.19067e-06)
(-5.97316e-22 -1.54231e-20 -4.54892e-06)
(-9.42855e-22 -1.41935e-21 -1.79899e-05)
(3.41452e-21 -2.42042e-19 -3.42348e-05)
(-4.88544e-21 4.58257e-19 -5.33946e-05)
(2.40215e-21 -2.46693e-19 -7.56028e-05)
(-1.80523e-21 1.48841e-20 -0.000101023)
(4.94452e-21 -2.7009e-19 -0.000129853)
(-5.90396e-21 2.46381e-19 -0.000162331)
(-4.38125e-21 4.70438e-19 -0.000198735)
(1.1283e-20 -9.51593e-19 -0.000239389)
(-1.34658e-20 9.50406e-19 -0.000284667)
(1.76721e-20 -9.45842e-19 -0.000335)
(-1.18644e-20 9.37165e-19 -0.00039091)
(-1.01486e-20 4.76781e-19 -0.000453006)
(-7.01058e-22 -3.71705e-21 -0.000521922)
(4.44972e-21 3.8636e-21 -0.000598384)
(-7.93566e-21 4.39523e-19 -0.000683259)
(-1.50905e-21 -4.61542e-19 -0.000777546)
(1.46105e-20 1.2591e-20 -0.000882405)
(-3.41643e-20 8.85755e-19 -0.000999147)
(2.61028e-20 -8.88606e-19 -0.00112928)
(2.25721e-21 -5.34672e-21 -0.00127456)
(-9.63131e-21 -8.99358e-23 -0.00143702)
(1.46679e-20 -1.34219e-20 -0.00161905)
(-4.76129e-21 1.22097e-22 -0.00182349)
(-5.2236e-21 -6.44581e-23 -0.00205378)
(4.9785e-21 1.93449e-22 -0.00231424)
(-3.70495e-21 1.46324e-21 -0.00261049)
(6.39528e-20 -7.83063e-19 -0.00295021)
(-5.8105e-20 8.05284e-19 -0.00334452)
(-1.58971e-20 2.27989e-22 -0.0038105)
(1.85371e-20 -1.02415e-20 -0.00437555)
(-9.94936e-20 7.17525e-19 -0.00508521)
(1.1574e-19 -7.20657e-19 -0.00601634)
(-2.23672e-20 2.16591e-21 -0.00729891)
(1.58131e-20 -9.22549e-23 -0.00915019)
(3.75883e-20 6.29723e-21 -0.0119256)
(-2.45735e-19 5.36541e-19 -0.0161896)
(3.65164e-19 -1.08716e-18 -0.0228058)
(-1.7825e-19 5.50633e-19 -0.0330402)
(2.57392e-19 -4.20613e-19 -0.0486587)
(-2.49265e-19 4.95441e-19 -0.0719851)
(-5.78148e-19 5.10117e-19 -0.105861)
(1.09064e-18 -1.08077e-18 -0.153395)
(-5.33401e-19 5.45588e-19 -0.217242)
(1.84256e-20 -2.09309e-21 -0.298097)
(4.42945e-21 -3.43376e-20 -0.375193)
(-7.30959e-22 1.57574e-20 2.33208e-05)
(-3.2266e-22 6.03682e-20 1.41777e-05)
(2.09138e-21 -1.83251e-19 1.21217e-06)
(-1.50447e-21 2.45865e-19 -1.55702e-05)
(-1.65379e-22 -1.08852e-19 -3.61801e-05)
(1.22077e-22 -1.45597e-20 -6.06895e-05)
(-4.76637e-22 1.53354e-20 -8.92364e-05)
(2.98285e-21 -1.83784e-22 -0.000122022)
(-2.82235e-21 -1.49896e-20 -0.000159308)
(-5.18982e-21 3.35724e-20 -0.000201418)
(-7.30845e-21 4.78494e-19 -0.000248735)
(1.85974e-20 -4.97285e-19 -0.000301709)
(-2.28545e-20 4.63778e-19 -0.000360861)
(1.91341e-20 -4.82407e-19 -0.000426788)
(-2.96365e-21 3.3478e-21 -0.000500174)
(1.08385e-20 4.68909e-23 -0.000581832)
(4.11922e-21 3.66497e-21 -0.000672711)
(-5.7023e-21 4.50368e-19 -0.000773831)
(2.04926e-20 -4.8731e-19 -0.000886348)
(6.24143e-21 2.66707e-20 -0.00101163)
(-4.63165e-20 9.28102e-19 -0.00115125)
(2.98657e-20 -9.30641e-19 -0.00130705)
(1.00275e-20 2.24177e-20 -0.00148109)
(-1.78135e-20 -2.30237e-22 -0.00167578)
(1.16565e-20 9.51372e-21 -0.00189391)
(-3.98407e-20 8.90933e-19 -0.0021387)
(3.30987e-20 -8.82479e-19 -0.00241395)
(2.8008e-21 9.4988e-21 -0.00272415)
(9.3652e-21 2.70199e-20 -0.0030747)
(-1.13583e-20 -5.42511e-22 -0.00347226)
(1.19065e-21 -1.29127e-20 -0.00392531)
(-3.68529e-20 1.31061e-20 -0.00444518)
(3.46076e-20 1.24803e-20 -0.00504782)
(-3.03457e-21 -2.49476e-20 -0.00575699)
(8.38056e-20 -7.31465e-19 -0.00661005)
(-7.50527e-20 7.53988e-19 -0.00766808)
(2.7108e-19 -1.44911e-18 -0.00903321)
(-2.49026e-19 1.46315e-18 -0.0108774)
(3.07244e-19 -1.36724e-18 -0.0134875)
(7.0162e-20 1.3099e-19 -0.0173333)
(-3.52433e-19 1.30164e-18 -0.0231613)
(-1.1872e-19 -2.18088e-20 -0.0321163)
(1.6163e-20 3.81458e-22 -0.0458821)
(-1.79676e-20 5.52194e-22 -0.0668255)
(5.31019e-20 1.63114e-21 -0.0981114)
(2.54963e-20 1.32988e-20 -0.143736)
(-1.10825e-19 5.01822e-21 -0.208326)
(6.31582e-20 4.86116e-21 -0.296199)
(-1.61594e-22 -3.03389e-22 -0.40853)
(3.53273e-20 6.2256e-22 -0.499118)
(-7.6712e-22 7.59785e-20 2.40737e-05)
(1.65751e-21 -4.63199e-20 8.93011e-06)
(-1.62572e-21 -1.63165e-20 -1.17696e-05)
(4.81371e-21 -2.26915e-19 -3.7507e-05)
(-2.47363e-21 2.28766e-19 -6.81963e-05)
(2.2366e-21 -2.26314e-19 -0.000103944)
(-1.13216e-20 4.99021e-19 -0.000144991)
(1.21475e-20 -6.98693e-19 -0.000191679)
(-7.8882e-21 4.93965e-19 -0.000244441)
(-6.39691e-21 4.81501e-19 -0.000303796)
(-2.20118e-21 3.95456e-21 -0.000370353)
(2.51816e-20 -9.4564e-19 -0.000444816)
(-2.22237e-20 9.83852e-19 -0.000527994)
(5.60348e-21 -4.62758e-19 -0.000620809)
(1.25426e-20 -4.64943e-19 -0.000724312)
(2.27638e-20 -4.5734e-19 -0.000839725)
(-3.26482e-21 6.46342e-21 -0.000968483)
(3.91454e-20 -9.48308e-19 -0.0011122)
(3.06933e-20 -9.10195e-19 -0.00127265)
(6.5534e-21 2.11572e-20 -0.00145192)
(-2.7894e-20 9.45106e-19 -0.00165246)
(-1.98557e-20 -7.96968e-21 -0.00187707)
(1.21244e-20 8.828e-21 -0.00212897)
(-5.2037e-20 9.14273e-19 -0.00241189)
(4.261e-20 -9.2857e-19 -0.00273015)
(7.40463e-20 -8.91605e-19 -0.0030888)
(-7.52622e-20 9.20835e-19 -0.00349373)
(1.48687e-20 -1.97465e-20 -0.00395191)
(6.9481e-20 -8.8792e-19 -0.00447165)
(-9.68686e-20 9.10487e-19 -0.00506308)
(4.31505e-21 1.21697e-20 -0.00573883)
(-2.10353e-19 1.6656e-18 -0.00651527)
(1.90852e-19 -1.72788e-18 -0.00741466)
(4.77529e-20 6.11971e-20 -0.00846904)
(-2.7021e-19 1.57417e-18 -0.00972715)
(2.48315e-19 -1.64123e-18 -0.0112667)
(-3.10693e-20 -3.21161e-21 -0.0132157)
(4.71671e-19 -1.47724e-18 -0.015788)
(-4.4189e-19 1.52548e-18 -0.0193397)
(-6.50172e-20 -7.12638e-20 -0.0244549)
(6.73507e-19 -1.28627e-18 -0.0320664)
(-1.18583e-18 2.65098e-18 -0.0436124)
(-6.34563e-20 -1.53938e-19 -0.0612256)
(-8.49919e-20 -1.20955e-19 -0.0879412)
(7.60098e-19 -1.15093e-18 -0.127917)
(3.87582e-20 6.17995e-20 -0.186686)
(-8.51105e-19 7.59583e-19 -0.271452)
(8.34357e-19 -8.35646e-19 -0.39088)
(8.699e-21 2.84419e-20 -0.551199)
(9.06167e-21 -2.6541e-21 -0.660917)
(6.09527e-22 -1.58136e-20 2.12663e-05)
(1.78975e-21 -1.34965e-19 -6.12222e-06)
(-1.89637e-21 1.217e-19 -3.88543e-05)
(-1.23555e-21 -1.71044e-20 -7.70242e-05)
(5.49712e-21 -2.25479e-19 -0.00012085)
(-5.09431e-21 2.31843e-19 -0.000170685)
(-6.27089e-21 4.68307e-19 -0.000226973)
(-5.02171e-21 -1.93915e-20 -0.000290259)
(2.16007e-21 -4.58506e-21 -0.000361179)
(1.48369e-20 -4.99255e-19 -0.000440468)
(-1.22076e-20 4.67002e-19 -0.000528965)
(1.87513e-20 -9.87863e-19 -0.000627623)
(-4.65205e-21 4.93695e-19 -0.000737526)
(-3.57796e-21 -1.85413e-20 -0.000859902)
(-4.78282e-21 -2.21592e-20 -0.000996127)
(2.96137e-20 -9.6855e-19 -0.00114774)
(-1.62318e-21 -2.02161e-20 -0.00131656)
(2.86086e-20 -9.86367e-19 -0.00150468)
(-5.31288e-21 -7.71443e-21 -0.00171442)
(-1.68638e-22 1.17764e-22 -0.00194836)
(1.1303e-20 8.33104e-21 -0.00220952)
(-5.4322e-20 9.48079e-19 -0.00250131)
(4.86634e-20 -9.68325e-19 -0.0028276)
(1.2619e-20 8.23681e-21 -0.00319283)
(-8.56925e-21 -1.48318e-20 -0.00360203)
(-6.09714e-21 9.78452e-21 -0.00406093)
(-7.60162e-20 9.14015e-19 -0.00457606)
(1.63149e-19 -1.86416e-18 -0.00515487)
(-7.75968e-20 9.7176e-19 -0.00580595)
(-1.96088e-19 1.80014e-18 -0.00653924)
(-3.03608e-20 -4.57012e-20 -0.00736663)
(2.28658e-21 -2.6965e-20 -0.00830281)
(-6.54999e-20 -5.39711e-20 -0.00936713)
(2.6332e-19 -1.79663e-18 -0.010587)
(4.01656e-19 -1.66192e-18 -0.0120047)
(-3.59525e-19 1.74399e-18 -0.0136896)
(-3.34518e-20 -5.41153e-20 -0.0157607)
(4.74491e-19 -1.58633e-18 -0.0184257)
(-4.19682e-19 1.67985e-18 -0.022046)
(-6.65393e-19 1.49027e-18 -0.0272375)
(5.67024e-19 -1.57363e-18 -0.03502)
(7.69474e-20 -1.0979e-20 -0.0470196)
(8.58589e-19 -1.38646e-18 -0.065723)
(1.16765e-19 1.21628e-19 -0.0947766)
(-9.8916e-19 1.35633e-18 -0.139338)
(-1.59265e-20 -3.88394e-20 -0.206561)
(3.29603e-20 5.17748e-22 -0.306914)
(-3.30372e-20 1.56217e-20 -0.458959)
(-4.99568e-19 5.22305e-19 -0.698652)
(4.90772e-19 -5.31631e-19 -0.957669)
(-1.06655e-20 -3.15032e-21 0.00935059)
(-1.06008e-20 -2.42379e-22 0.00516066)
(9.93308e-21 9.77959e-21 0.00161957)
(-6.89184e-21 2.10282e-21 -0.00133654)
(7.41449e-21 -1.15596e-20 -0.00377965)
(6.76191e-23 3.52197e-21 -0.00578452)
(-1.73583e-22 -9.78271e-23 -0.00742129)
(-5.67908e-21 1.24207e-23 -0.00875048)
(5.52159e-21 -1.20763e-23 -0.00982182)
(-1.66705e-22 3.64599e-25 -0.0106753)
(-1.61746e-22 3.53753e-25 -0.0113433)
(4.87626e-21 -1.06649e-23 -0.0118529)
(-4.89192e-21 1.06991e-23 -0.0122253)
(-4.48417e-21 9.80732e-24 -0.0124779)
(2.68184e-22 -1.08192e-21 -0.0126258)
(6.32048e-21 2.72918e-21 -0.0126817)
(-2.10294e-21 -4.31123e-22 -0.0126563)
(-7.83156e-23 -1.01821e-21 -0.0125592)
(-3.01099e-23 8.32605e-22 -0.0123994)
(-2.15314e-21 -1.17703e-20 -0.0121844)
(2.19482e-21 1.07878e-20 -0.0119207)
(-1.45277e-21 -1.46342e-20 -0.0116141)
(1.86348e-21 4.84964e-22 -0.0112699)
(-2.55743e-21 1.29801e-23 -0.0108943)
(1.6805e-21 1.52164e-21 -0.0104939)
(-6.29448e-22 3.78801e-23 -0.0100741)
(-1.74606e-21 3.81881e-24 -0.00963859)
(8.25696e-22 -2.40633e-23 -0.00919151)
(1.69313e-22 2.31758e-21 -0.0087367)
(-3.88729e-23 3.9045e-23 -0.00827767)
(-1.79021e-22 -2.73885e-21 -0.00781766)
(1.55035e-22 2.92383e-21 -0.00735958)
(1.25112e-22 -3.19616e-21 -0.0069061)
(4.6582e-22 3.06538e-20 -0.00645962)
(-8.20035e-22 -3.07359e-20 -0.00602229)
(-6.48514e-22 -2.68454e-20 -0.00559602)
(1.43965e-21 5.8571e-20 -0.00518247)
(-8.0049e-22 -3.20056e-20 -0.00478307)
(-1.98885e-22 -4.33654e-21 -0.00439903)
(1.93362e-22 4.49333e-21 -0.00403135)
(-1.8088e-23 1.98199e-24 -0.00368081)
(1.95437e-22 4.83727e-21 -0.00334801)
(-4.79533e-22 -2.53585e-20 -0.00303335)
(4.54403e-22 2.55924e-20 -0.00273705)
(-1.25051e-22 -5.35323e-21 -0.00245917)
(2.96989e-22 1.66393e-20 -0.00219958)
(3.29626e-23 -5.52055e-21 -0.00195796)
(-1.93103e-22 -1.16543e-20 -0.00173373)
(5.09727e-23 5.87637e-21 -0.00152593)
(-1.4232e-22 -6.08561e-21 -0.00133305)
(-1.53258e-20 2.52424e-20 0.0271056)
(3.03844e-20 -1.02921e-20 0.01463)
(-2.44665e-20 -2.14429e-20 0.00399952)
(8.66822e-21 2.23955e-20 -0.00480032)
(-9.03881e-21 -2.19373e-20 -0.0120186)
(-1.27042e-20 6.14235e-21 -0.0179061)
(1.13312e-20 6.88145e-21 -0.0226892)
(1.25807e-20 1.75656e-20 -0.0265576)
(7.39214e-22 -2.92804e-20 -0.0296635)
(-2.29006e-20 6.83629e-21 -0.0321284)
(2.21059e-20 -5.11218e-21 -0.0340489)
(-3.77701e-21 -7.82171e-21 -0.0355047)
(-8.76613e-21 2.31535e-20 -0.0365591)
(-9.58824e-21 -3.51177e-21 -0.0372634)
(8.86519e-21 -1.62694e-20 -0.0376614)
(1.00271e-20 5.04589e-21 -0.0377902)
(-8.08373e-21 4.56851e-21 -0.0376815)
(-3.53814e-22 -1.00821e-21 -0.0373637)
(1.41464e-23 -1.2605e-22 -0.0368627)
(7.76248e-22 -1.69773e-24 -0.0362011)
(2.25527e-21 3.58846e-23 -0.0353983)
(-2.27411e-21 -3.47035e-21 -0.0344706)
(1.50618e-20 8.14195e-20 -0.0334337)
(-1.70185e-20 -8.51443e-20 -0.0323074)
(1.9621e-20 1.03431e-19 -0.0311072)
(-1.01256e-20 -4.32515e-20 -0.0298513)
(-1.98162e-20 -1.27379e-19 -0.0285513)
(8.76155e-21 6.4061e-20 -0.0272187)
(1.22223e-21 -1.42272e-21 -0.0258644)
(-1.92405e-21 -5.26928e-21 -0.0244988)
(1.39483e-21 2.73135e-21 -0.0231313)
(-1.00854e-21 -9.28811e-21 -0.0217704)
(9.96934e-21 1.01704e-19 -0.0204239)
(-2.1244e-20 -2.18659e-19 -0.0190988)
(9.88927e-21 1.06689e-19 -0.0178015)
(-7.87055e-22 -1.10805e-20 -0.0165375)
(-2.61073e-23 3.91633e-21 -0.0153117)
(2.4789e-23 1.95883e-23 -0.0141283)
(-4.932e-21 -7.51367e-20 -0.0129908)
(4.2093e-21 6.63369e-20 -0.0119021)
(3.39876e-21 6.6942e-20 -0.0108645)
(-4.94452e-21 -9.12038e-20 -0.00987964)
(1.44484e-22 5.06425e-21 -0.00894874)
(1.08244e-21 2.65232e-20 -0.00807239)
(-2.36781e-21 -4.77153e-20 -0.00725073)
(-1.52686e-23 -5.50306e-21 -0.00648335)
(-1.57998e-21 -3.99256e-20 -0.00576926)
(-3.30721e-22 -6.33025e-21 -0.00510668)
(3.86464e-22 1.15309e-20 -0.00449264)
(4.7835e-22 1.80849e-20 -0.00392223)
(-1.37503e-20 -1.08884e-21 0.0419987)
(-1.35427e-20 -1.50973e-20 0.0213735)
(3.55425e-20 2.91005e-20 0.00364995)
(-4.35656e-20 -1.24918e-20 -0.0107496)
(1.79407e-20 1.21541e-20 -0.0223731)
(2.72352e-20 2.09921e-20 -0.0317344)
(-1.84799e-20 -6.01794e-20 -0.0392656)
(1.55324e-20 -2.0302e-20 -0.0453071)
(-3.21571e-20 3.94582e-20 -0.0501185)
(-2.85325e-21 2.86881e-20 -0.0539059)
(3.57992e-20 -5.21519e-20 -0.0568279)
(-2.88682e-20 3.91709e-20 -0.0590132)
(7.06536e-21 -1.12631e-20 -0.0605638)
(-3.44578e-21 -9.68163e-21 -0.0615619)
(4.88825e-20 3.17629e-20 -0.062076)
(-4.49229e-21 3.28844e-20 -0.0621649)
(-4.20319e-20 -4.58426e-20 -0.0618796)
(1.12833e-20 -6.52106e-21 -0.0612654)
(-8.0037e-21 2.98395e-22 -0.060363)
(4.50882e-22 -3.18566e-21 -0.0592085)
(2.86677e-20 7.36008e-20 -0.0578327)
(-2.90656e-20 -6.22071e-20 -0.0562626)
(-3.18171e-20 -9.61023e-20 -0.0545239)
(3.51045e-20 9.31786e-20 -0.0526428)
(-1.26728e-21 6.50825e-21 -0.0506504)
(-1.33555e-23 -4.01858e-21 -0.0485704)
(-9.23911e-22 5.87563e-21 -0.0464248)
(-2.92628e-20 -1.50123e-19 -0.0442309)
(3.36613e-20 1.53161e-19 -0.0420062)
(-3.27297e-20 -1.6731e-19 -0.0397668)
(3.50142e-20 1.77584e-19 -0.0375275)
(8.20431e-22 6.54738e-21 -0.0353021)
(3.19197e-20 2.17237e-19 -0.0331027)
(-6.3979e-20 -4.37756e-19 -0.0309406)
(3.42004e-20 2.34584e-19 -0.0288258)
(1.54315e-20 1.34827e-19 -0.0267671)
(-1.3802e-20 -1.18182e-19 -0.0247721)
(-4.62991e-22 -1.632e-22 -0.0228475)
(-1.49021e-22 -1.77887e-22 -0.0209988)
(1.5914e-24 2.98422e-23 -0.0192305)
(1.32789e-20 1.54658e-19 -0.0175462)
(-1.29763e-20 -1.45276e-19 -0.0159485)
(1.03314e-21 1.02834e-20 -0.0144391)
(-4.55418e-22 -7.04843e-23 -0.013019)
(5.63508e-21 8.72416e-20 -0.0116882)
(-1.06366e-20 -1.6622e-19 -0.0104459)
(5.31677e-21 8.98834e-20 -0.00929045)
(-2.82667e-21 -4.72107e-20 -0.00821877)
(2.11158e-21 3.5094e-20 -0.00722555)
(5.10258e-22 1.18473e-20 -0.00630152)
(1.97973e-21 2.63999e-20 0.0513165)
(8.51206e-21 -5.3929e-20 0.0228354)
(-7.27855e-20 1.55843e-20 -0.00180352)
(1.20178e-19 8.25664e-20 -0.0212208)
(-3.16265e-20 -1.11588e-19 -0.0365009)
(-1.65514e-20 2.22089e-20 -0.0485656)
(1.55879e-21 1.98891e-20 -0.0581266)
(-1.31409e-20 3.35377e-22 -0.0657031)
(-1.47655e-20 1.71391e-20 -0.0716591)
(6.72841e-20 -3.06266e-20 -0.0762793)
(-2.69471e-20 1.27817e-20 -0.0797859)
(-1.36092e-20 6.16985e-22 -0.0823449)
(1.96449e-20 1.03863e-20 -0.084088)
(-6.82204e-20 -5.82354e-20 -0.085122)
(5.16992e-20 3.63926e-20 -0.0855352)
(-1.10239e-20 1.24434e-20 -0.0854038)
(9.93827e-21 -8.99004e-21 -0.0847939)
(6.74872e-20 1.21467e-19 -0.0837635)
(-7.21132e-20 -1.04727e-19 -0.0823651)
(8.92985e-22 -1.06466e-20 -0.0806453)
(-3.05858e-21 -1.02634e-22 -0.0786458)
(3.12413e-21 4.94279e-22 -0.0763999)
(2.5472e-21 -9.53742e-23 -0.0739427)
(-6.62289e-21 3.86833e-21 -0.0713067)
(5.58948e-21 4.53174e-22 -0.0685306)
(5.38135e-22 7.85166e-21 -0.0656479)
(-9.30959e-20 -3.17473e-19 -0.0626879)
(9.50784e-20 3.06152e-19 -0.0596721)
(-5.56206e-21 5.00058e-21 -0.056623)
(-4.17543e-20 -1.91797e-19 -0.0535614)
(4.71707e-20 1.96048e-19 -0.0505067)
(-1.2083e-21 1.30849e-21 -0.0474765)
(-1.46734e-22 3.22504e-22 -0.0444869)
(-4.45238e-20 -2.46981e-19 -0.0415524)
(8.96734e-20 4.97162e-19 -0.038686)
(-8.73478e-20 -5.11744e-19 -0.035899)
(8.55013e-20 5.34804e-19 -0.0332015)
(-8.29638e-20 -5.5676e-19 -0.0306019)
(4.06819e-20 2.83475e-19 -0.0281073)
(1.95268e-20 1.52879e-19 -0.0257234)
(-1.69986e-20 -1.33292e-19 -0.0234548)
(-1.32718e-21 -1.0216e-20 -0.0213046)
(-1.71891e-20 -1.67179e-19 -0.019275)
(3.64488e-20 3.61021e-19 -0.0173669)
(-1.70373e-20 -1.72578e-19 -0.0155802)
(2.07183e-22 2.45468e-22 -0.0139137)
(7.63254e-22 1.1385e-20 -0.0123649)
(-1.85404e-22 -1.45231e-22 -0.0109292)
(-7.48011e-22 -1.18693e-20 -0.00959881)
(1.64354e-21 2.43668e-20 -0.00835869)
(2.69088e-20 9.45935e-23 0.051361)
(3.2398e-22 3.95905e-22 0.0153566)
(-6.08092e-20 4.56401e-22 -0.0155167)
(9.01068e-20 -2.58328e-22 -0.0387302)
(-2.69793e-20 8.00796e-23 -0.0563362)
(-4.33337e-20 -8.09327e-22 -0.0698518)
(1.40007e-20 2.9095e-23 -0.0803359)
(-1.16314e-20 -4.30692e-23 -0.088491)
(9.40522e-20 -2.57265e-20 -0.0947877)
(1.21145e-20 7.7111e-20 -0.0995657)
(-2.66029e-21 6.92713e-20 -0.103082)
(-3.79456e-20 -1.22724e-19 -0.105527)
(8.2731e-20 1.46428e-19 -0.10705)
(-1.01658e-19 -1.37108e-19 -0.107775)
(4.19311e-20 9.3041e-20 -0.1078)
(-5.35223e-20 -9.81141e-20 -0.107212)
(5.11519e-21 -7.7568e-21 -0.106085)
(-2.82411e-20 -1.55855e-21 -0.104484)
(2.5542e-20 -3.33314e-21 -0.10247)
(1.39209e-21 2.44496e-21 -0.100095)