/*--------------------------------*- C++ -*----------------------------------*\
| =========                 |                                                 |
| \\      /  F ield         | OpenFOAM: The Open Source CFD Toolbox           |
|  \\    /   O peration     | Version:  2412                                  |
|   \\  /    A nd           | Website:  www.openfoam.com                      |
|    \\/     M anipulation  |                                                 |
\*---------------------------------------------------------------------------*/
FoamFile
{
    version     2.0;
    format      ascii;
    arch        "LSB;label=32;scalar=64";
    class       volScalarField;
    location    "16";
    object      p;
}
// * * * * * * * * * * * * * * * * * * * * * * * * * * * * * * * * * * * * * //

dimensions      [0 2 -2 0 0 0 0];

internalField   nonuniform List<scalar> 
63420
(
0.000960555
0.000960813
0.000961634
0.000962902
0.0009646
0.000966714
0.000969229
0.00097213
0.000975406
0.000979044
0.000983032
0.000987362
0.000992025
0.000997016
0.00100233
0.00100797
0.00101393
0.00102022
0.00102683
0.00103376
0.00104102
0.0010486
0.00105652
0.00106475
0.00107332
0.00108222
0.00109145
0.00110102
0.00111093
0.00112117
0.00113177
0.0011427
0.00115399
0.00116564
0.00117764
0.00119
0.00120272
0.00121582
0.00122928
0.00124313
0.00125735
0.00127196
0.00128696
0.00130235
0.00131815
0.00133434
0.00135095
0.00136796
0.00138539
0.00140325
0.00142153
0.00144024
0.00145939
0.00147898
0.00149902
0.000960496
0.000960753
0.000961574
0.000962841
0.000964537
0.00096665
0.000969163
0.000972062
0.000975335
0.000978971
0.000982956
0.000987283
0.000991942
0.000996928
0.00100224
0.00100788
0.00101383
0.00102011
0.00102672
0.00103364
0.0010409
0.00104847
0.00105638
0.00106461
0.00107316
0.00108205
0.00109128
0.00110084
0.00111073
0.00112097
0.00113154
0.00114247
0.00115374
0.00116537
0.00117735
0.0011897
0.00120241
0.00121548
0.00122893
0.00124275
0.00125695
0.00127154
0.00128651
0.00130188
0.00131764
0.00133381
0.00135038
0.00136736
0.00138475
0.00140257
0.00142081
0.00143948
0.00145858
0.00147812
0.00149811
0.000960377
0.000960634
0.000961453
0.000962718
0.000964413
0.000966523
0.000969032
0.000971927
0.000975195
0.000978824
0.000982804
0.000987124
0.000991775
0.000996755
0.00100206
0.00100768
0.00101363
0.0010199
0.00102649
0.00103341
0.00104065
0.00104821
0.0010561
0.00106431
0.00107285
0.00108172
0.00109093
0.00110046
0.00111034
0.00112055
0.0011311
0.001142
0.00115325
0.00116484
0.00117679
0.0011891
0.00120178
0.00121481
0.00122822
0.001242
0.00125615
0.00127069
0.00128561
0.00130092
0.00131663
0.00133273
0.00134924
0.00136615
0.00138347
0.00140121
0.00141937
0.00143795
0.00145696
0.0014764
0.00149628
0.000960199
0.000960456
0.000961273
0.000962535
0.000964226
0.000966331
0.000968835
0.000971723
0.000974984
0.000978605
0.000982576
0.000986885
0.000991526
0.000996494
0.00100178
0.0010074
0.00101333
0.00101958
0.00102616
0.00103305
0.00104027
0.00104781
0.00105568
0.00106387
0.00107238
0.00108123
0.0010904
0.00109991
0.00110975
0.00111992
0.00113044
0.0011413
0.0011525
0.00116405
0.00117596
0.00118821
0.00120083
0.00121381
0.00122716
0.00124087
0.00125496
0.00126942
0.00128427
0.0012995
0.00131512
0.00133113
0.00134754
0.00136435
0.00138156
0.00139918
0.00141722
0.00143567
0.00145454
0.00147384
0.00149356
0.000959961
0.000960217
0.000961032
0.000962291
0.000963977
0.000966076
0.000968572
0.000971452
0.000974703
0.000978314
0.000982272
0.000986568
0.000991195
0.000996146
0.00100142
0.00100701
0.00101293
0.00101916
0.00102571
0.00103258
0.00103978
0.00104729
0.00105512
0.00106328
0.00107176
0.00108057
0.0010897
0.00109917
0.00110896
0.00111909
0.00112956
0.00114036
0.00115151
0.001163
0.00117484
0.00118703
0.00119958
0.00121248
0.00122574
0.00123937
0.00125337
0.00126774
0.00128248
0.00129761
0.00131311
0.001329
0.00134528
0.00136195
0.00137902
0.00139649
0.00141436
0.00143264
0.00145133
0.00147043
0.00148995
0.000959665
0.00095992
0.000960732
0.000961986
0.000963666
0.000965758
0.000968245
0.000971114
0.000974353
0.000977949
0.000981892
0.000986172
0.000990781
0.000995713
0.00100097
0.00100654
0.00101243
0.00101863
0.00102515
0.001032
0.00103915
0.00104663
0.00105443
0.00106255
0.00107098
0.00107975
0.00108883
0.00109824
0.00110798
0.00111805
0.00112846
0.00113919
0.00115027
0.00116169
0.00117345
0.00118556
0.00119801
0.00121082
0.00122399
0.00123751
0.00125139
0.00126564
0.00128026
0.00129525
0.00131061
0.00132635
0.00134247
0.00135898
0.00137587
0.00139315
0.00141082
0.00142889
0.00144735
0.00146621
0.00148547
0.000959309
0.000959564
0.000960372
0.000961621
0.000963294
0.000965376
0.000967852
0.000970709
0.000973933
0.000977513
0.000981438
0.000985698
0.000990285
0.000995194
0.00100042
0.00100596
0.00101182
0.001018
0.00102449
0.00103129
0.00103841
0.00104585
0.0010536
0.00106167
0.00107005
0.00107876
0.00108779
0.00109714
0.00110681
0.00111681
0.00112714
0.0011378
0.00114879
0.00116012
0.00117179
0.00118379
0.00119614
0.00120884
0.00122188
0.00123528
0.00124903
0.00126314
0.00127761
0.00129244
0.00130763
0.00132319
0.00133912
0.00135543
0.00137211
0.00138916
0.0014066
0.00142441
0.00144261
0.00146118
0.00148013
0.00151957
0.00154084
0.00156303
0.00158619
0.00161038
0.00163566
0.00166209
0.00168975
0.00171871
0.00174906
0.00178089
0.0018143
0.00184939
0.00188628
0.0019251
0.00196598
0.00200907
0.00205454
0.00210256
0.00215333
0.00220707
0.00226402
0.00232443
0.00238859
0.00245682
0.00252948
0.00260694
0.00268965
0.00277808
0.00287275
0.00297425
0.00308322
0.00320036
0.00332644
0.00346229
0.00360876
0.00376676
0.00393715
0.00412068
0.00431785
0.00452872
0.00475258
0.00498761
0.00523063
0.0054774
0.00572343
0.00596439
0.00620635
0.0065165
0.00698787
0.00151863
0.0015399
0.0015621
0.00158525
0.00160943
0.00163471
0.00166113
0.00168879
0.00171775
0.00174809
0.00177992
0.00181332
0.0018484
0.00188528
0.00192408
0.00196494
0.002008
0.00205344
0.00210143
0.00215215
0.00220584
0.00226271
0.00232303
0.00238709
0.00245518
0.00252768
0.00260494
0.00268739
0.00277551
0.00286978
0.00297079
0.00307914
0.00319549
0.00332056
0.00345511
0.00359993
0.00375578
0.00392338
0.00410327
0.00429568
0.0045003
0.00471596
0.00494025
0.00516925
0.0053978
0.00562046
0.00583236
0.0060387
0.00630238
0.0067095
0.00151675
0.00153803
0.00156021
0.00158336
0.00160754
0.0016328
0.00165923
0.00168687
0.00171582
0.00174616
0.00177797
0.00181135
0.00184641
0.00188326
0.00192203
0.00196285
0.00200587
0.00205125
0.00209916
0.00214979
0.00220336
0.0022601
0.00232025
0.00238409
0.00245193
0.0025241
0.00260096
0.00268292
0.00277041
0.00286392
0.00296395
0.00307107
0.00318587
0.00330896
0.00344097
0.00358251
0.00373412
0.00389619
0.00406885
0.00425177
0.00444391
0.00464314
0.00484584
0.00504658
0.00523834
0.00541376
0.00556707
0.00570195
0.00586854
0.00615989
0.00151394
0.00153521
0.00155738
0.00158052
0.00160469
0.00162994
0.00165635
0.00168398
0.00171292
0.00174323
0.00177502
0.00180837
0.0018434
0.00188021
0.00191893
0.00195968
0.00200262
0.0020479
0.00209569
0.00214618
0.00219957
0.00225609
0.00231597
0.00237948
0.00244692
0.00251859
0.00259483
0.00267603
0.00276257
0.0028549
0.00295345
0.0030587
0.00317113
0.00329122
0.00341939
0.003556
0.00370123
0.00385502
0.00401687
0.00418564
0.00435918
0.00453392
0.00470441
0.00486297
0.00499985
0.00510464
0.00517015
0.00520135
0.0052328
0.00532001
0.00151022
0.00153147
0.00155364
0.00157677
0.00160093
0.00162617
0.00165257
0.00168019
0.0017091
0.0017394
0.00177117
0.00180449
0.00183948
0.00187624
0.0019149
0.00195558
0.00199843
0.0020436
0.00209124
0.00214155
0.00219472
0.00225096
0.0023105
0.00237359
0.0024405
0.00251152
0.00258695
0.00266715
0.00275244
0.00284318
0.00293976
0.00304251
0.00315177
0.00326781
0.0033908
0.00352073
0.00365731
0.00379987
0.00394706
0.00409663
0.00424498
0.00438666
0.00451384
0.00461594
0.00467976
0.00469091
0.00463935
0.00453311
0.00439568
0.00416767
0.00150559
0.00152685
0.00154902
0.00157216
0.00159633
0.00162159
0.00164801
0.00167566
0.0017046
0.00173493
0.00176673
0.00180009
0.00183511
0.0018719
0.00191059
0.00195129
0.00199415
0.00203931
0.00208694
0.0021372
0.0021903
0.00224643
0.00230582
0.00236869
0.00243531
0.00250593
0.00258084
0.00266032
0.00274468
0.00283419
0.00292914
0.00302973
0.00313613
0.00324836
0.00336625
0.00348931
0.0036166
0.00374649
0.00387636
0.00400215
0.00411789
0.004215
0.00428175
0.00430288
0.00425997
0.00413327
0.00390807
0.00359326
0.00320432
0.00255054
0.00150004
0.00152123
0.00154335
0.00156643
0.00159055
0.00161577
0.00164214
0.00166973
0.00169863
0.00172891
0.00176066
0.00179396
0.00182893
0.00186566
0.00190428
0.0019449
0.00198768
0.00203274
0.00208025
0.00213038
0.00218331
0.00223924
0.00229837
0.00236094
0.00242717
0.00249731
0.00257162
0.00265034
0.00273371
0.00282196
0.00291527
0.00301372
0.0031173
0.00322579
0.00333866
0.00345491
0.00357286
0.00368977
0.0038014
0.00390139
0.00398045
0.0040256
0.00401944
0.00394013
0.00376225
0.00345833
0.00300994
0.00243061
0.00168503
0.000476615
-0.00345642
-0.00352363
-0.00353223
-0.00349691
-0.00343008
-0.0033344
-0.00321542
-0.00307366
-0.00291266
-0.00273617
-0.00254777
-0.00235118
-0.00215003
-0.00194779
-0.00174765
-0.00155246
-0.00136466
-0.00118629
-0.00101891
-0.000863683
-0.000721339
-0.000592248
-0.000476451
-0.000373713
-0.000283564
-0.000205343
-0.000138261
-8.14402e-05
-3.39512e-05
5.15395e-06
3.68148e-05
6.19404e-05
8.1393e-05
9.59758e-05
0.000106426
0.00011341
0.000117522
0.000119288
0.000119163
0.000117543
0.000114761
0.000111102
0.000106801
0.000102052
9.70142e-05
9.18153e-05
8.65565e-05
8.1317e-05
7.61574e-05
7.1124e-05
-0.00354703
-0.00358941
-0.00358318
-0.00353921
-0.00346648
-0.00336611
-0.00324664
-0.00310428
-0.00294289
-0.00276609
-0.0025775
-0.00238067
-0.00217914
-0.00197635
-0.00177547
-0.00157936
-0.00139048
-0.00121089
-0.0010422
-0.000885574
-0.000741797
-0.000611258
-0.000494025
-0.000389883
-0.00029838
-0.00021887
-0.000150569
-9.26072e-05
-4.40568e-05
-3.97103e-06
2.85907e-05
5.45401e-05
7.47428e-05
9.00064e-05
0.000101072
0.000108612
0.000113225
0.000115441
0.00011572
0.000114462
0.000112004
0.000108635
0.000104593
0.000100075
9.52438e-05
9.0229e-05
8.51345e-05
8.00417e-05
7.50127e-05
7.00972e-05
-0.00372791
-0.00371816
-0.00368309
-0.00362225
-0.00353886
-0.00343532
-0.0033085
-0.00316358
-0.00300067
-0.00282337
-0.00263457
-0.00243737
-0.00223522
-0.00203148
-0.0018293
-0.00163152
-0.00144065
-0.00125878
-0.00108759
-0.000928322
-0.0007818
-0.00064848
-0.000528474
-0.000421613
-0.00032748
-0.000245459
-0.000174781
-0.000114587
-6.39588e-05
-2.19505e-05
1.23796e-05
3.99477e-05
6.16258e-05
7.82293e-05
9.05085e-05
9.91437e-05
0.000104744
0.000107847
0.000108923
0.000108379
0.000106561
0.000103763
0.000100232
9.61708e-05
9.17466e-05
8.70948e-05
8.23241e-05
7.752e-05
7.27483e-05
6.80649e-05
-0.00400485
-0.00390083
-0.00382851
-0.00374199
-0.00364135
-0.00352943
-0.00339332
-0.00324571
-0.00308214
-0.00290433
-0.00271514
-0.00251754
-0.00231469
-0.00210977
-0.00190588
-0.00170587
-0.00151229
-0.0013273
-0.00115265
-0.000989677
-0.0008393
-0.00070205
-0.000578116
-0.000467388
-0.000369503
-0.000283887
-0.000209803
-0.000146407
-9.27904e-05
-4.80145e-05
-1.11354e-05
1.87682e-05
4.25771e-05
6.11174e-05
7.51514e-05
8.53722e-05
9.24016e-05
9.67904e-05
9.90213e-05
9.95123e-05
9.86216e-05
9.66535e-05
9.38633e-05
9.04636e-05
8.66297e-05
8.25042e-05
7.82026e-05
7.38167e-05
6.9418e-05
6.50716e-05
-0.0043509
-0.00413868
-0.00401502
-0.0038915
-0.0037663
-0.0036405
-0.00349953
-0.00334647
-0.00318015
-0.00300134
-0.00281183
-0.00261399
-0.0024106
-0.00220466
-0.00199912
-0.00179684
-0.00160036
-0.00141194
-0.00123339
-0.00106618
-0.000911308
-0.000769425
-0.000640805
-0.000525415
-0.000422968
-0.000332946
-0.000254653
-0.000187274
-0.00012992
-8.1662e-05
-4.1559e-05
-8.6867e-06
1.78429e-05
3.88665e-05
5.5159e-05
6.74276e-05
7.63085e-05
8.23676e-05
8.61019e-05
8.79434e-05
8.82638e-05
8.738e-05
8.55593e-05
8.30253e-05
7.99634e-05
7.6526e-05
7.2837e-05
6.89961e-05
6.50832e-05
6.11744e-05
-0.00471551
-0.00443033
-0.00423999
-0.00406781
-0.00391358
-0.00376399
-0.00360996
-0.00344927
-0.00327934
-0.00309953
-0.00291049
-0.00271376
-0.00251154
-0.00230638
-0.002101
-0.00189808
-0.00170014
-0.00150943
-0.00132787
-0.00115699
-0.000997945
-0.000851493
-0.000718036
-0.000597657
-0.000490162
-0.000395126
-0.000311932
-0.000239818
-0.000177937
-0.000125391
-8.12592e-05
-4.46267e-05
-1.46089e-05
9.63324e-06
2.88813e-05
4.38521e-05
5.5194e-05
6.3486e-05
6.92394e-05
7.2901e-05
7.48571e-05
7.5439e-05
7.49284e-05
7.35624e-05
7.15396e-05
6.90246e-05
6.61528e-05
6.30347e-05
5.97614e-05
5.64183e-05
-0.00506413
-0.00478816
-0.00453104
-0.00430035
-0.00410957
-0.00392735
-0.00375356
-0.00358061
-0.00340369
-0.00322058
-0.00303051
-0.00283396
-0.00263229
-0.00242748
-0.00222184
-0.00201783
-0.00181789
-0.00162427
-0.00143894
-0.00126356
-0.00109942
-0.000947418
-0.000808112
-0.000681715
-0.000568153
-0.000467104
-0.00037804
-0.000300276
-0.000233012
-0.000175386
-0.000126499
-8.5448e-05
-5.13497e-05
-2.33607e-05
-6.897e-07
1.73937e-05
3.1554e-05
4.23884e-05
5.0427e-05
5.61358e-05
5.99207e-05
6.21316e-05
6.30683e-05
6.29853e-05
6.20975e-05
6.05847e-05
5.85963e-05
5.62557e-05
5.36658e-05
5.09154e-05
6.62394e-05
6.14541e-05
5.67768e-05
5.22394e-05
4.78571e-05
4.36413e-05
3.96016e-05
3.57444e-05
3.20732e-05
2.85897e-05
2.52937e-05
2.21836e-05
1.92568e-05
1.65095e-05
1.39372e-05
1.15351e-05
9.29746e-06
7.21873e-06
5.29298e-06
3.51434e-06
1.87701e-06
3.75326e-07
-9.96174e-07
-2.24278e-06
-3.36967e-06
-4.38194e-06
-5.28474e-06
-6.0833e-06
-6.78297e-06
-7.38928e-06
-7.90786e-06
-8.34443e-06
-8.70467e-06
-8.9942e-06
-9.21849e-06
-9.38281e-06
-9.49218e-06
-9.55133e-06
-9.56475e-06
-9.53664e-06
-9.47097e-06
-9.37141e-06
-9.24162e-06
-9.08446e-06
-8.90386e-06
-8.70207e-06
-8.48178e-06
-8.24597e-06
-7.99697e-06
-7.73699e-06
-7.46818e-06
-7.1925e-06
-6.91181e-06
-6.62779e-06
-6.34203e-06
-6.05594e-06
-5.77084e-06
-5.48794e-06
-5.2083e-06
-4.93291e-06
-4.66262e-06
-4.39821e-06
-4.14034e-06
-3.8896e-06
-3.64647e-06
-3.41137e-06
-3.18463e-06
-2.96651e-06
-2.75721e-06
-2.55688e-06
-2.36558e-06
-2.18335e-06
-2.01015e-06
-1.84592e-06
-1.69057e-06
-1.54393e-06
-1.40583e-06
-1.27606e-06
-1.15439e-06
-1.04059e-06
-9.34357e-07
-8.35445e-07
-7.43462e-07
-6.58298e-07
-5.79203e-07
-5.06739e-07
-4.38768e-07
-3.78632e-07
-3.18869e-07
-2.72818e-07
-2.14725e-07
-1.9042e-07
-1.18016e-07
-1.37525e-07
-1.40994e-08
-1.28129e-07
1.19689e-07
-1.8301e-07
3.081e-07
-3.16341e-07
5.55453e-07
-5.04272e-07
8.08266e-07
-6.49607e-07
9.34741e-07
-5.91226e-07
7.78613e-07
-2.09886e-07
3.08463e-07
4.04031e-07
-2.41559e-07
8.87056e-07
-4.34366e-07
7.99939e-07
6.69911e-08
6.53354e-05
6.06274e-05
5.6019e-05
5.15496e-05
4.72307e-05
4.30728e-05
3.90859e-05
3.52768e-05
3.16495e-05
2.82058e-05
2.49461e-05
2.1869e-05
1.89721e-05
1.6252e-05
1.37045e-05
1.13248e-05
9.10772e-06
7.04766e-06
5.13895e-06
3.37585e-06
1.75268e-06
2.63913e-07
-1.09582e-06
-2.33173e-06
-3.44892e-06
-4.45241e-06
-5.3473e-06
-6.13874e-06
-6.83204e-06
-7.43266e-06
-7.94618e-06
-8.37822e-06
-8.73444e-06
-9.02039e-06
-9.24149e-06
-9.40296e-06
-9.50978e-06
-9.56666e-06
-9.57805e-06
-9.54812e-06
-9.48084e-06
-9.37983e-06
-9.24876e-06
-9.09046e-06
-8.90885e-06
-8.70618e-06
-8.48512e-06
-8.24862e-06
-7.99902e-06
-7.73853e-06
-7.46927e-06
-7.19321e-06
-6.91219e-06
-6.6279e-06
-6.3419e-06
-6.05562e-06
-5.77036e-06
-5.48733e-06
-5.2076e-06
-4.93212e-06
-4.66178e-06
-4.39733e-06
-4.13944e-06
-3.88869e-06
-3.64556e-06
-3.41047e-06
-3.18374e-06
-2.96565e-06
-2.75638e-06
-2.55608e-06
-2.36482e-06
-2.18262e-06
-2.00946e-06
-1.84527e-06
-1.68995e-06
-1.54336e-06
-1.40529e-06
-1.27556e-06
-1.15393e-06
-1.04016e-06
-9.33967e-07
-8.35087e-07
-7.43135e-07
-6.57999e-07
-5.78931e-07
-5.06493e-07
-4.38547e-07
-3.78432e-07
-3.18693e-07
-2.72656e-07
-2.14588e-07
-1.90285e-07
-1.17916e-07
-1.37407e-07
-1.40389e-08
-1.28017e-07
1.19709e-07
-1.82895e-07
3.08083e-07
-3.16225e-07
5.55412e-07
-5.04177e-07
8.08239e-07
-6.49569e-07
9.34765e-07
-5.91264e-07
7.78693e-07
-2.09978e-07
3.08572e-07
4.03932e-07
-2.41464e-07
8.86987e-07
-4.34226e-07
7.99762e-07
6.70632e-08
6.35379e-05
5.89839e-05
5.45137e-05
5.01797e-05
4.59864e-05
4.19431e-05
3.80609e-05
3.43473e-05
3.08069e-05
2.74424e-05
2.42546e-05
2.12429e-05
1.84055e-05
1.57394e-05
1.32411e-05
1.09062e-05
8.72987e-06
6.70697e-06
4.83214e-06
3.09994e-06
1.50497e-06
4.19108e-08
-1.29441e-06
-2.50903e-06
-3.6069e-06
-4.59293e-06
-5.47206e-06
-6.24933e-06
-6.92995e-06
-7.51923e-06
-8.02263e-06
-8.44567e-06
-8.79386e-06
-9.07267e-06
-9.2874e-06
-9.44318e-06
-9.54492e-06
-9.59726e-06
-9.6046e-06
-9.57105e-06
-9.50053e-06
-9.39664e-06
-9.26301e-06
-9.10244e-06
-8.91882e-06
-8.71438e-06
-8.49176e-06
-8.25391e-06
-8.00312e-06
-7.74159e-06
-7.47144e-06
-7.19462e-06
-6.91294e-06
-6.6281e-06
-6.34164e-06
-6.05497e-06
-5.76941e-06
-5.48612e-06
-5.20619e-06
-4.93056e-06
-4.66011e-06
-4.39558e-06
-4.13764e-06
-3.88687e-06
-3.64374e-06
-3.40866e-06
-3.18198e-06
-2.96393e-06
-2.75472e-06
-2.55448e-06
-2.36329e-06
-2.18117e-06
-2.00808e-06
-1.84397e-06
-1.68873e-06
-1.54221e-06
-1.40423e-06
-1.27457e-06
-1.15302e-06
-1.03932e-06
-9.33188e-07
-8.34371e-07
-7.4248e-07
-6.57401e-07
-5.78387e-07
-5.06e-07
-4.38106e-07
-3.78034e-07
-3.18342e-07
-2.72332e-07
-2.14313e-07
-1.90016e-07
-1.17716e-07
-1.37173e-07
-1.39174e-08
-1.27793e-07
1.1975e-07
-1.82664e-07
3.08047e-07
-3.15996e-07
5.55331e-07
-5.03992e-07
8.08185e-07
-6.49493e-07
9.34808e-07
-5.91341e-07
7.78852e-07
-2.10168e-07
3.08788e-07
4.0374e-07
-2.41271e-07
8.86841e-07
-4.33948e-07
7.99399e-07
6.72186e-08
6.08691e-05
5.65437e-05
5.22814e-05
4.81482e-05
4.41406e-05
4.02667e-05
3.65392e-05
3.29668e-05
2.95551e-05
2.63077e-05
2.32265e-05
2.03117e-05
1.75624e-05
1.49766e-05
1.25513e-05
1.02829e-05
8.16711e-06
6.19944e-06
4.37499e-06
2.68876e-06
1.13573e-06
-2.8909e-07
-1.59057e-06
-2.77351e-06
-3.84263e-06
-4.80264e-06
-5.65831e-06
-6.41449e-06
-7.07619e-06
-7.64857e-06
-8.13688e-06
-8.54647e-06
-8.88269e-06
-9.15082e-06
-9.35602e-06
-9.50331e-06
-9.59746e-06
-9.64301e-06
-9.64427e-06
-9.60531e-06
-9.52995e-06
-9.42176e-06
-9.2843e-06
-9.12034e-06
-8.93371e-06
-8.72663e-06
-8.50168e-06
-8.26179e-06
-8.00923e-06
-7.74616e-06
-7.47467e-06
-7.19671e-06
-6.91406e-06
-6.6284e-06
-6.34124e-06
-6.054e-06
-5.76796e-06
-5.4843e-06
-5.20406e-06
-4.92821e-06
-4.65759e-06
-4.39295e-06
-4.13494e-06
-3.88413e-06
-3.64101e-06
-3.40596e-06
-3.17933e-06
-2.96135e-06
-2.75222e-06
-2.55208e-06
-2.36099e-06
-2.17898e-06
-2.00602e-06
-1.84202e-06
-1.6869e-06
-1.5405e-06
-1.40263e-06
-1.27309e-06
-1.15164e-06
-1.03805e-06
-9.32019e-07
-8.33298e-07
-7.41499e-07
-6.56504e-07
-5.77572e-07
-5.05261e-07
-4.37443e-07
-3.77434e-07
-3.17813e-07
-2.71844e-07
-2.139e-07
-1.89611e-07
-1.17416e-07
-1.36822e-07
-1.3734e-08
-1.27461e-07
1.19812e-07
-1.82324e-07
3.07997e-07
-3.1566e-07
5.55219e-07
-5.03726e-07
8.08117e-07
-6.49393e-07
9.34889e-07
-5.91469e-07
7.79104e-07
-2.1046e-07
3.09114e-07
4.03452e-07
-2.40986e-07
8.86624e-07
-4.33532e-07
7.98856e-07
6.74785e-08
5.73632e-05
5.33377e-05
4.93524e-05
4.54825e-05
4.17173e-05
3.80646e-05
3.45392e-05
3.11514e-05
2.7908e-05
2.48138e-05
2.18722e-05
1.90844e-05
1.64509e-05
1.39704e-05
1.16411e-05
9.46014e-06
7.42412e-06
5.52918e-06
3.77109e-06
2.14543e-06
6.4767e-07
-7.26731e-07
-1.98228e-06
-3.12343e-06
-4.15463e-06
-5.08032e-06
-5.90501e-06
-6.63333e-06
-7.27004e-06
-7.82006e-06
-8.28842e-06
-8.6802e-06
-9.00054e-06
-9.25451e-06
-9.44709e-06
-9.5831e-06
-9.66716e-06
-9.70371e-06
-9.69692e-06
-9.65076e-06
-9.56899e-06
-9.45508e-06
-9.31253e-06
-9.14407e-06
-8.95344e-06
-8.74285e-06
-8.51482e-06
-8.27223e-06
-8.01731e-06
-7.75219e-06
-7.47894e-06
-7.19946e-06
-6.91552e-06
-6.62876e-06
-6.34068e-06
-6.05268e-06
-5.76602e-06
-5.48185e-06
-5.20123e-06
-4.92507e-06
-4.65423e-06
-4.38943e-06
-4.13134e-06
-3.88049e-06
-3.63736e-06
-3.40236e-06
-3.17579e-06
-2.95791e-06
-2.74889e-06
-2.54888e-06
-2.35793e-06
-2.17607e-06
-2.00326e-06
-1.83942e-06
-1.68446e-06
-1.53821e-06
-1.40049e-06
-1.2711e-06
-1.14981e-06
-1.03635e-06
-9.30459e-07
-8.31867e-07
-7.4019e-07
-6.55309e-07
-5.76487e-07
-5.04277e-07
-4.36559e-07
-3.76634e-07
-3.17106e-07
-2.71193e-07
-2.13349e-07
-1.89073e-07
-1.17013e-07
-1.36358e-07
-1.34839e-08
-1.27028e-07
1.19907e-07
-1.81891e-07
3.07954e-07
-3.15247e-07
5.55111e-07
-5.03423e-07
8.08084e-07
-6.49323e-07
9.3506e-07
-5.91696e-07
7.79484e-07
-2.10877e-07
3.09557e-07
4.03078e-07
-2.40631e-07
8.86366e-07
-4.33005e-07
7.98151e-07
6.78648e-08
5.30623e-05
4.94089e-05
4.57675e-05
4.22186e-05
3.87478e-05
3.53643e-05
3.20849e-05
2.89218e-05
2.58835e-05
2.29764e-05
2.02053e-05
1.75731e-05
1.50813e-05
1.273e-05
1.05185e-05
8.44501e-06
6.50702e-06
4.70154e-06
3.02512e-06
1.47403e-06
4.43505e-08
-1.26794e-06
-2.46688e-06
-3.55654e-06
-4.54098e-06
-5.42433e-06
-6.21079e-06
-6.9047e-06
-7.51053e-06
-8.0329e-06
-8.47655e-06
-8.84627e-06
-9.14693e-06
-9.38333e-06
-9.56022e-06
-9.68222e-06
-9.75376e-06
-9.77911e-06
-9.76231e-06
-9.70721e-06
-9.61746e-06
-9.49644e-06
-9.34758e-06
-9.17352e-06
-8.97792e-06
-8.76297e-06
-8.53111e-06
-8.28515e-06
-8.0273e-06
-7.75964e-06
-7.4842e-06
-7.20283e-06
-6.91728e-06
-6.62916e-06
-6.33995e-06
-6.051e-06
-5.76356e-06
-5.47878e-06
-5.19766e-06
-4.92113e-06
-4.65001e-06
-4.38503e-06
-4.12682e-06
-3.87592e-06
-3.6328e-06
-3.39785e-06
-3.17137e-06
-2.9536e-06
-2.74473e-06
-2.54488e-06
-2.35411e-06
-2.17243e-06
-1.99981e-06
-1.83617e-06
-1.6814e-06
-1.53535e-06
-1.39783e-06
-1.26863e-06
-1.14751e-06
-1.03424e-06
-9.2851e-07
-8.30078e-07
-7.38554e-07
-6.53816e-07
-5.75131e-07
-5.03047e-07
-4.35453e-07
-3.75633e-07
-3.16222e-07
-2.70378e-07
-2.12659e-07
-1.884e-07
-1.1651e-07
-1.35777e-07
-1.31724e-08
-1.26484e-07
1.20022e-07
-1.81346e-07
3.07894e-07
-3.14726e-07
5.54969e-07
-5.03034e-07
8.08032e-07
-6.49224e-07
9.35261e-07
-5.91968e-07
7.7995e-07
-2.1139e-07
3.10106e-07
4.02608e-07
-2.40177e-07
8.86021e-07
-4.32314e-07
7.97241e-07
6.84485e-08
4.80278e-05
4.48113e-05
4.15778e-05
3.83997e-05
3.5269e-05
3.21975e-05
2.92037e-05
2.63018e-05
2.35023e-05
2.08134e-05
1.82416e-05
1.57913e-05
1.34655e-05
1.12658e-05
9.1926e-06
7.24537e-06
5.4227e-06
3.72255e-06
2.14235e-06
6.79149e-07
-6.70265e-07
-1.90929e-06
-3.04145e-06
-4.07031e-06
-4.99954e-06
-5.83287e-06
-6.57415e-06
-7.22735e-06
-7.79661e-06
-8.2862e-06
-8.70052e-06
-9.04404e-06
-9.32129e-06
-9.53679e-06
-9.69501e-06
-9.80031e-06
-9.85693e-06
-9.86892e-06
-9.8402e-06
-9.77443e-06
-9.67517e-06
-9.54569e-06
-9.38929e-06
-9.20857e-06
-9.00704e-06
-8.78689e-06
-8.55046e-06
-8.3005e-06
-8.03915e-06
-7.76847e-06
-7.4904e-06
-7.20679e-06
-6.91933e-06
-6.62959e-06
-6.33901e-06
-6.04894e-06
-5.76058e-06
-5.47505e-06
-5.19335e-06
-4.91638e-06
-4.64494e-06
-4.37974e-06
-4.12139e-06
-3.87044e-06
-3.62732e-06
-3.39243e-06
-3.16606e-06
-2.94843e-06
-2.73974e-06
-2.54008e-06
-2.34952e-06
-2.16806e-06
-1.99567e-06
-1.83227e-06
-1.67774e-06
-1.53192e-06
-1.39463e-06
-1.26566e-06
-1.14476e-06
-1.0317e-06
-9.26173e-07
-8.27934e-07
-7.36593e-07
-6.52026e-07
-5.73505e-07
-5.01571e-07
-4.34128e-07
-3.7443e-07
-3.15163e-07
-2.69396e-07
-2.1184e-07
-1.87579e-07
-1.15931e-07
-1.35041e-07
-1.28606e-08
-1.25739e-07
1.20023e-07
-1.80501e-07
3.07559e-07
-3.13756e-07
5.54365e-07
-5.02051e-07
8.07382e-07
-6.48478e-07
9.34877e-07
-5.91727e-07
7.80057e-07
-2.11721e-07
3.10682e-07
4.01917e-07
-2.39324e-07
8.85183e-07
-4.31034e-07
7.95795e-07
6.94814e-08
4.21585e-05
3.94664e-05
3.67206e-05
3.39682e-05
3.12258e-05
2.85119e-05
2.58463e-05
2.32451e-05
2.07211e-05
1.82844e-05
1.59434e-05
1.37042e-05
1.15714e-05
9.54813e-06
7.63621e-06
5.83637e-06
4.14842e-06
2.57143e-06
1.10381e-06
-2.56473e-07
-1.51186e-06
-2.66503e-06
-3.71888e-06
-4.67644e-06
-5.54088e-06
-6.31546e-06
-7.00363e-06
-7.60895e-06
-8.13515e-06
-8.5861e-06
-8.96581e-06
-9.27836e-06
-9.52793e-06
-9.71868e-06
-9.85478e-06
-9.94029e-06
-9.97921e-06
-9.97538e-06
-9.9325e-06
-9.8541e-06
-9.74356e-06
-9.60403e-06
-9.43869e-06
-9.25006e-06
-9.04152e-06
-8.8152e-06
-8.57335e-06
-8.31863e-06
-8.05314e-06
-7.77886e-06
-7.49769e-06
-7.21142e-06
-6.92168e-06
-6.63002e-06
-6.33783e-06
-6.04642e-06
-5.75698e-06
-5.47057e-06
-5.18818e-06
-4.91068e-06
-4.63886e-06
-4.37339e-06
-4.11489e-06
-3.86388e-06
-3.62078e-06
-3.38596e-06
-3.15971e-06
-2.94226e-06
-2.73377e-06
-2.53434e-06
-2.34403e-06
-2.16285e-06
-1.99073e-06
-1.82761e-06
-1.67336e-06
-1.52783e-06
-1.39081e-06
-1.26211e-06
-1.14148e-06
-1.02866e-06
-9.23383e-07
-8.25373e-07
-7.34252e-07
-6.49889e-07
-5.71566e-07
-4.99809e-07
-4.32547e-07
-3.7299e-07
-3.13903e-07
-2.68214e-07
-2.10878e-07
-1.86572e-07
-1.15282e-07
-1.34093e-07
-1.25963e-08
-1.24686e-07
1.19782e-07
-1.7915e-07
3.0669e-07
-3.11986e-07
5.52874e-07
-4.99953e-07
8.05555e-07
-6.46466e-07
9.33304e-07
-5.90432e-07
7.79391e-07
-2.11629e-07
3.11249e-07
4.00837e-07
-2.37728e-07
8.83398e-07
-4.28685e-07
7.93429e-07
7.12653e-08
3.55676e-05
3.34422e-05
3.12181e-05
2.8938e-05
2.66293e-05
2.43156e-05
2.20182e-05
1.97553e-05
1.75419e-05
1.53903e-05
1.33106e-05
1.1311e-05
9.3976e-06
7.57524e-06
5.84722e-06
4.21569e-06
2.68177e-06
1.2457e-06
-9.2967e-08
-1.33531e-06
-2.48286e-06
-3.53753e-06
-4.50149e-06
-5.37716e-06
-6.16713e-06
-6.87417e-06
-7.50122e-06
-8.05138e-06
-8.52791e-06
-8.93424e-06
-9.27392e-06
-9.55062e-06
-9.7681e-06
-9.93013e-06
-1.00405e-05
-1.0103e-05
-1.01214e-05
-1.00991e-05
-1.00398e-05
-9.94664e-06
-9.82297e-06
-9.67175e-06
-9.49602e-06
-9.29817e-06
-9.08148e-06
-8.84797e-06
-8.5998e-06
-8.33956e-06
-8.06925e-06
-7.79078e-06
-7.50601e-06
-7.21663e-06
-6.92426e-06
-6.63036e-06
-6.3363e-06
-6.04335e-06
-5.75263e-06
-5.46521e-06
-5.18202e-06
-4.90392e-06
-4.63165e-06
-4.36589e-06
-4.10722e-06
-3.85613e-06
-3.61305e-06
-3.37832e-06
-3.15223e-06
-2.93498e-06
-2.72674e-06
-2.52759e-06
-2.33758e-06
-2.15671e-06
-1.98492e-06
-1.82213e-06
-1.66821e-06
-1.52301e-06
-1.38632e-06
-1.25794e-06
-1.13761e-06
-1.0251e-06
-9.20101e-07
-8.22362e-07
-7.31498e-07
-6.47378e-07
-5.69285e-07
-4.97739e-07
-4.30686e-07
-3.71302e-07
-3.12412e-07
-2.66839e-07
-2.0972e-07
-1.85432e-07
-1.1445e-07
-1.3309e-07
-1.21164e-08
-1.23699e-07
1.19859e-07
-1.78064e-07
3.06338e-07
-3.10766e-07
5.52181e-07
-4.98736e-07
8.04804e-07
-6.45573e-07
9.32902e-07
-5.90211e-07
7.79642e-07
-2.12186e-07
3.12154e-07
3.99745e-07
-2.36367e-07
8.81998e-07
-4.26607e-07
7.91106e-07
7.33339e-08
2.84847e-05
2.69376e-05
2.52536e-05
2.34726e-05
2.16259e-05
1.97395e-05
1.78367e-05
1.59376e-05
1.40592e-05
1.22159e-05
1.04196e-05
8.68014e-06
7.00563e-06
5.40237e-06
3.87524e-06
2.42784e-06
1.06263e-06
-2.18875e-07
-1.41601e-06
-2.52878e-06
-3.55779e-06
-4.50409e-06
-5.36911e-06
-6.15458e-06
-6.86248e-06
-7.49502e-06
-8.05457e-06
-8.54375e-06
-8.96531e-06
-9.32218e-06
-9.61744e-06
-9.8543e-06
-1.00361e-05
-1.01661e-05
-1.02478e-05
-1.02847e-05
-1.028e-05
-1.02372e-05
-1.01594e-05
-1.00499e-05
-9.91152e-06
-9.74723e-06
-9.55988e-06
-9.35174e-06
-9.12595e-06
-8.8844e-06
-8.62918e-06
-8.36275e-06
-8.08706e-06
-7.80392e-06
-7.51511e-06
-7.22228e-06
-6.92696e-06
-6.63057e-06
-6.33442e-06
-6.03974e-06
-5.74761e-06
-5.45906e-06
-5.17499e-06
-4.89621e-06
-4.62346e-06
-4.35737e-06
-4.0985e-06
-3.84734e-06
-3.60429e-06
-3.36967e-06
-3.14376e-06
-2.92675e-06
-2.71878e-06
-2.51995e-06
-2.33028e-06
-2.14976e-06
-1.97835e-06
-1.81593e-06
-1.6624e-06
-1.51756e-06
-1.38125e-06
-1.25322e-06
-1.13325e-06
-1.02107e-06
-9.16393e-07
-8.18961e-07
-7.28388e-07
-6.44541e-07
-5.66708e-07
-4.95402e-07
-4.28582e-07
-3.69398e-07
-3.10722e-07
-2.65294e-07
-2.08399e-07
-1.84166e-07
-1.13474e-07
-1.32014e-07
-1.14895e-08
-1.22709e-07
1.20121e-07
-1.77077e-07
3.06253e-07
-3.09786e-07
5.51879e-07
-4.97918e-07
8.04569e-07
-6.45203e-07
9.33071e-07
-5.90524e-07
7.80381e-07
-2.13128e-07
3.13328e-07
3.98505e-07
-2.34933e-07
8.80567e-07
-4.24381e-07
7.88514e-07
7.59453e-08
2.09783e-05
2.00229e-05
1.88953e-05
1.76335e-05
1.62697e-05
1.48316e-05
1.33443e-05
1.18295e-05
1.03062e-05
8.79039e-06
7.29591e-06
5.83437e-06
4.41544e-06
3.0471e-06
1.73575e-06
4.86434e-07
-6.97005e-07
-1.8118e-06
-2.85609e-06
-3.82881e-06
-4.72959e-06
-5.55859e-06
-6.31643e-06
-7.00412e-06
-7.62297e-06
-8.17458e-06
-8.66077e-06
-9.08356e-06
-9.44519e-06
-9.74807e-06
-9.99477e-06
-1.0188e-05
-1.03306e-05
-1.04255e-05
-1.04757e-05
-1.04844e-05
-1.04544e-05
-1.03889e-05
-1.02909e-05
-1.01633e-05
-1.00088e-05
-9.83011e-06
-9.62997e-06
-9.41049e-06
-9.17468e-06
-8.92428e-06
-8.66129e-06
-8.38807e-06
-8.10645e-06
-7.81817e-06
-7.52492e-06
-7.22828e-06
-6.92971e-06
-6.63058e-06
-6.33215e-06
-6.03556e-06
-5.74189e-06
-5.45209e-06
-5.16705e-06
-4.88754e-06
-4.61425e-06
-4.34781e-06
-4.08875e-06
-3.83751e-06
-3.5945e-06
-3.36001e-06
-3.1343e-06
-2.91756e-06
-2.70991e-06
-2.51142e-06
-2.32213e-06
-2.14202e-06
-1.97102e-06
-1.80902e-06
-1.65591e-06
-1.51149e-06
-1.37559e-06
-1.24796e-06
-1.12838e-06
-1.01658e-06
-9.12261e-07
-8.15171e-07
-7.24923e-07
-6.41381e-07
-5.63838e-07
-4.92798e-07
-4.26237e-07
-3.67276e-07
-3.08839e-07
-2.63575e-07
-2.06923e-07
-1.82762e-07
-1.12379e-07
-1.30825e-07
-1.07779e-08
-1.21622e-07
1.2043e-07
-1.75994e-07
3.0617e-07
-3.08696e-07
5.51531e-07
-4.96977e-07
8.04256e-07
-6.44722e-07
9.33181e-07
-5.90797e-07
7.81151e-07
-2.14169e-07
3.14691e-07
3.96989e-07
-2.33119e-07
8.78684e-07
-4.21563e-07
7.85305e-07
7.93855e-08
1.31178e-05
1.27674e-05
1.22093e-05
1.14808e-05
1.06147e-05
9.6404e-06
8.58424e-06
7.46963e-06
6.31701e-06
5.14419e-06
3.96659e-06
2.79748e-06
1.64815e-06
5.28095e-07
-5.54762e-07
-1.59395e-06
-2.58429e-06
-3.52174e-06
-4.40325e-06
-5.22667e-06
-5.99061e-06
-6.69432e-06
-7.3376e-06
-7.92067e-06
-8.44418e-06
-8.90904e-06
-9.31648e-06
-9.66794e-06
-9.96508e-06
-1.02098e-05
-1.0404e-05
-1.05501e-05
-1.06503e-05
-1.07071e-05
-1.07232e-05
-1.07012e-05
-1.06438e-05
-1.05537e-05
-1.04337e-05
-1.02863e-05
-1.01143e-05
-9.91996e-06
-9.70592e-06
-9.47412e-06
-9.2274e-06
-8.96738e-06
-8.69594e-06
-8.41532e-06
-8.12726e-06
-7.83338e-06
-7.53531e-06
-7.23453e-06
-6.93244e-06
-6.63034e-06
-6.32941e-06
-6.03077e-06
-5.73542e-06
-5.44428e-06
-5.15818e-06
-4.87788e-06