/*--------------------------------*- C++ -*----------------------------------*\
| =========                 |                                                 |
| \\      /  F ield         | OpenFOAM: The Open Source CFD Toolbox           |
|  \\    /   O peration     | Version:  2412                                  |
|   \\  /    A nd           | Website:  www.openfoam.com                      |
|    \\/     M anipulation  |                                                 |
\*---------------------------------------------------------------------------*/
FoamFile
{
    version     2.0;
    format      ascii;
    arch        "LSB;label=32;scalar=64";
    class       surfaceScalarField;
    location    "16";
    object      phi;
}
// * * * * * * * * * * * * * * * * * * * * * * * * * * * * * * * * * * * * * //

dimensions      [0 3 -1 0 0 0 0];

oriented        oriented;

internalField   nonuniform List<scalar> 
126304
(
0.00505063
1.28508e-07
8.21333e-12
0.00505025
3.7533e-07
4.73759e-11
0.00504965
6.02638e-07
1.03479e-10
0.00504883
8.17572e-07
1.6594e-10
0.00504777
1.06315e-06
1.72524e-10
0.00504636
1.40946e-06
1.67713e-11
0.00504445
1.90936e-06
-3.81086e-10
0.0050419
2.55367e-06
-9.96909e-10
0.00503864
3.26272e-06
-1.6839e-09
0.00503472
3.91907e-06
-2.22765e-09
0.00503031
4.41695e-06
-2.43568e-09
0.00502561
4.69938e-06
-2.20914e-09
0.00502084
4.76813e-06
-1.56512e-09
0.00501617
4.67016e-06
-6.12151e-10
0.0050117
4.47324e-06
4.98099e-10
0.00500745
4.24336e-06
1.61796e-09
0.00500342
4.03071e-06
2.63477e-09
0.00499955
3.86513e-06
3.48214e-09
0.00499579
3.75826e-06
4.13672e-09
0.00499208
3.70894e-06
4.60663e-09
0.00498836
3.70888e-06
4.91821e-09
0.00498461
3.74727e-06
5.10485e-09
0.00498079
3.81368e-06
5.19921e-09
0.00497689
3.89948e-06
5.22936e-09
0.00497288
3.99827e-06
5.21692e-09
0.00496877
4.10572e-06
5.1774e-09
0.00496455
4.21913e-06
5.12081e-09
0.00496021
4.33701e-06
5.05343e-09
0.00495574
4.45862e-06
4.97875e-09
0.00495115
4.58371e-06
4.89879e-09
0.00494644
4.71229e-06
4.81431e-09
0.00494159
4.84448e-06
4.72566e-09
0.0049366
4.98047e-06
4.63274e-09
0.00493148
5.12042e-06
4.53556e-09
0.00492621
5.26451e-06
4.43415e-09
0.00492079
5.41285e-06
4.32856e-09
0.00491522
5.56557e-06
4.21882e-09
0.00490949
5.72274e-06
4.10476e-09
0.00490361
5.88443e-06
3.98641e-09
0.00489755
6.05071e-06
3.86396e-09
0.00489133
6.22161e-06
3.73771e-09
0.00488493
6.39718e-06
3.60798e-09
0.00487834
6.57745e-06
3.4749e-09
0.00487158
6.76247e-06
3.33866e-09
0.00486462
6.95227e-06
3.19965e-09
0.00485747
7.1469e-06
3.05831e-09
0.00485012
7.3464e-06
2.91509e-09
0.00484257
7.55084e-06
2.77034e-09
0.00483481
7.76029e-06
2.62432e-09
0.00482683
7.97484e-06
2.47741e-09
0.00481863
8.19465e-06
2.33004e-09
0.00481021
8.42004e-06
2.18256e-09
0.00480156
8.65181e-06
2.03531e-09
0.00479266
8.89222e-06
1.88855e-09
9.14777e-06
0.00478351
1.74249e-09
0.00505063
2.56932e-07
0.00505025
7.50433e-07
0.00504965
1.20505e-06
0.00504883
1.63487e-06
0.00504777
2.12526e-06
0.00504637
2.81563e-06
0.00504446
3.81137e-06
0.00504192
5.09485e-06
0.00503868
6.50823e-06
0.00503478
7.81812e-06
0.00503038
8.81393e-06
0.0050257
9.38167e-06
0.00502094
9.52415e-06
0.00501628
9.33411e-06
0.00501181
8.94599e-06
0.00500756
8.49096e-06
0.00500352
8.06902e-06
0.00499965
7.73981e-06
0.00499588
7.5268e-06
0.00499216
7.42795e-06
0.00498844
7.42703e-06
0.00498468
7.50268e-06
0.00498086
7.63423e-06
0.00497696
7.80456e-06
0.00497296
8.00094e-06
0.00496885
8.21475e-06
0.00496463
8.44061e-06
0.00496029
8.67549e-06
0.00495583
8.91793e-06
0.00495124
9.16738e-06
0.00494653
9.42386e-06
0.00494169
9.6876e-06
0.00493671
9.95893e-06
0.00493159
1.02382e-05
0.00492633
1.05257e-05
0.00492092
1.08218e-05
0.00491536
1.11265e-05
0.00490964
1.14402e-05
0.00490377
1.17628e-05
0.00489772
1.20946e-05
0.00489151
1.24356e-05
0.00488512
1.27859e-05
0.00487855
1.31456e-05
0.0048718
1.35146e-05
0.00486486
1.38932e-05
0.00485772
1.42814e-05
0.00485039
1.46793e-05
0.00484285
1.5087e-05
0.00483511
1.55046e-05
0.00482715
1.59324e-05
0.00481898
1.63705e-05
0.00481058
1.68197e-05
0.00480195
1.72815e-05
0.00479308
1.77601e-05
1.82679e-05
0.00478396
0.00505063
3.85171e-07
0.00505025
1.12499e-06
0.00504965
1.8068e-06
0.00504884
2.45127e-06
0.00504778
3.185e-06
0.00504638
4.21529e-06
0.00504449
5.69972e-06
0.00504197
7.61355e-06
0.00503875
9.72332e-06
0.00503489
1.16823e-05
0.00503053
1.31765e-05
0.00502587
1.40347e-05
0.00502114
1.42594e-05
0.00501649
1.39869e-05
0.00501202
1.34166e-05
0.00500776
1.27435e-05
0.00500372
1.21169e-05
0.00499983
1.16262e-05
0.00499605
1.13072e-05
0.00499232
1.11576e-05
0.00498859
1.11536e-05
0.00498483
1.12639e-05
0.00498101
1.14579e-05
0.0049771
1.17102e-05
0.0049731
1.20019e-05
0.004969
1.232e-05
0.00496478
1.26565e-05
0.00496045
1.30068e-05
0.004956
1.33686e-05
0.00495142
1.37412e-05
0.00494672
1.41244e-05
0.00494189
1.45185e-05
0.00493693
1.49241e-05
0.00493182
1.53417e-05
0.00492658
1.57716e-05
0.00492119
1.62142e-05
0.00491564
1.66699e-05
0.00490994
1.71389e-05
0.00490409
1.76213e-05
0.00489806
1.81173e-05
0.00489187
1.8627e-05
0.00488551
1.91506e-05
0.00487896
1.96881e-05
0.00487224
2.02396e-05
0.00486533
2.08053e-05
0.00485822
2.13852e-05
0.00485092
2.19795e-05
0.00484342
2.25884e-05
0.00483571
2.32119e-05
0.0048278
2.38504e-05
0.00481966
2.45043e-05
0.00481131
2.51745e-05
0.00480273
2.58629e-05
0.00479391
2.65757e-05
2.73302e-05
0.00478485
0.00505063
5.13138e-07
0.00505026
1.49872e-06
0.00504965
2.40754e-06
0.00504884
3.26632e-06
0.00504778
4.24122e-06
0.00504639
5.60546e-06
0.00504452
7.56826e-06
0.00504204
1.00996e-05
0.00503887
1.28943e-05
0.00503505
1.54958e-05
0.00503074
1.7489e-05
0.00502613
1.86452e-05
0.00502143
1.89642e-05
0.00501679
1.86233e-05
0.00501232
1.78838e-05
0.00500806
1.70029e-05
0.005004
1.61783e-05
0.0050001
1.55293e-05
0.0049963
1.51045e-05
0.00499256
1.49021e-05
0.00498882
1.4892e-05
0.00498505
1.50332e-05
0.00498122
1.52858e-05
0.00497732
1.56164e-05
0.00497332
1.59999e-05
0.00496922
1.64193e-05
0.00496501
1.68637e-05
0.00496069
1.73271e-05
0.00495625
1.78063e-05
0.00495169
1.83001e-05
0.00494701
1.88083e-05
0.0049422
1.93312e-05
0.00493725
1.98695e-05
0.00493217
2.04237e-05
0.00492695
2.09944e-05
0.00492158
2.15821e-05
0.00491606
2.2187e-05
0.00491039
2.28095e-05
0.00490456
2.34498e-05
0.00489857
2.41081e-05
0.00489241
2.47845e-05
0.00488609
2.54792e-05
0.00487958
2.61923e-05
0.0048729
2.69239e-05
0.00486603
2.76741e-05
0.00485897
2.84431e-05
0.00485172
2.92309e-05
0.00484427
3.00378e-05
0.00483662
3.0864e-05
0.00482876
3.17097e-05
0.00482069
3.25755e-05
0.0048124
3.34623e-05
0.00480389
3.43726e-05
0.00479515
3.53134e-05
3.63051e-05
0.00478618
0.00505063
6.40745e-07
0.00505026
1.87134e-06
0.00504966
3.00692e-06
0.00504884
4.07954e-06
0.00504779
5.29287e-06
0.00504641
6.98351e-06
0.00504457
9.41158e-06
0.00504213
1.25443e-05
0.00503901
1.60091e-05
0.00503526
1.92449e-05
0.00503101
2.17377e-05
0.00502646
2.32011e-05
0.00502179
2.36297e-05
0.00501718
2.3238e-05
0.00501272
2.23459e-05
0.00500845
2.12702e-05
0.00500437
2.02561e-05
0.00500045
1.94528e-05
0.00499663
1.89226e-05
0.00499287
1.86652e-05
0.00498911
1.86448e-05
0.00498533
1.88122e-05
0.0049815
1.91184e-05
0.0049776
1.95225e-05
0.0049736
1.99935e-05
0.00496951
2.05103e-05
0.00496532
2.10593e-05
0.00496101
2.16328e-05
0.00495659
2.22266e-05
0.00495205
2.28391e-05
0.00494739
2.347e-05
0.0049426
2.41196e-05
0.00493768
2.47885e-05
0.00493263
2.54773e-05
0.00492744
2.61867e-05
0.0049221
2.69171e-05
0.00491662
2.76691e-05
0.00491098
2.84428e-05
0.0049052
2.92387e-05
0.00489925
3.00567e-05
0.00489313
3.08972e-05
0.00488685
3.17602e-05
0.0048804
3.26459e-05
0.00487377
3.35544e-05
0.00486696
3.44858e-05
0.00485996
3.54401e-05
0.00485277
3.64177e-05
0.00484539
3.74186e-05
0.00483781
3.8443e-05
0.00483003
3.94913e-05
0.00482204
4.05639e-05
0.00481384
4.16618e-05
0.00480543
4.27875e-05
0.0047968
4.39483e-05
4.51654e-05
0.00478793
0.00505063
7.67913e-07
0.00505026
2.24259e-06
0.00504966
3.60457e-06
0.00504885
4.89043e-06
0.0050478
6.33897e-06
0.00504644
8.34718e-06
0.00504463
1.12252e-05
0.00504223
1.49403e-05
0.00503918
1.90581e-05
0.00503551
2.29182e-05
0.00503134
2.5911e-05
0.00502684
2.76924e-05
0.00502223
2.82484e-05
0.00501764
2.78264e-05
0.00501318
2.68009e-05
0.00500891
2.55456e-05
0.00500481
2.4352e-05
0.00500086
2.33992e-05
0.00499702
2.27639e-05
0.00499324
2.24488e-05
0.00498947
2.24136e-05
0.00498568
2.26015e-05
0.00498184
2.29555e-05
0.00497794
2.34274e-05
0.00497395
2.39809e-05
0.00496987
2.45904e-05
0.00496569
2.52399e-05
0.0049614
2.59197e-05
0.00495701
2.66249e-05
0.00495249
2.73532e-05
0.00494786
2.81041e-05
0.0049431
2.88776e-05
0.00493821
2.96745e-05
0.0049332
3.04954e-05
0.00492804
3.13409e-05
0.00492275
3.22115e-05
0.00491731
3.31078e-05
0.00491172
3.40299e-05
0.00490598
3.49783e-05
0.00490009
3.5953e-05
0.00489403
3.69542e-05
0.00488781
3.79821e-05
0.00488142
3.90367e-05
0.00487485
4.01181e-05
0.00486811
4.12265e-05
0.00486119
4.23619e-05
0.00485408
4.35244e-05
0.00484679
4.47143e-05
0.0048393
4.59317e-05
0.00483161
4.71768e-05
0.00482373
4.845e-05
0.00481564
4.97523e-05
0.00480734
5.10857e-05
0.00479883
5.24567e-05
5.38843e-05
0.00479011
0.00505063
8.94518e-07
0.00505026
2.61224e-06
0.00504967
4.20009e-06
0.00504886
5.69848e-06
0.00504782
7.37863e-06
0.00504647
9.69466e-06
0.00504469
1.30058e-05
0.00504235
1.72821e-05
0.00503937
2.20337e-05
0.00503578
2.65069e-05
0.00503169
3.00001e-05
0.00502728
3.21108e-05
0.00502271
3.28136e-05
0.00501815
3.23838e-05
0.00501371
3.12462e-05
0.00500943
2.98284e-05
0.00500531
2.84664e-05
0.00500134
2.73694e-05
0.00499747
2.66297e-05
0.00499367
2.62538e-05
0.00498988
2.61987e-05
0.00498609
2.64008e-05
0.00498224
2.67961e-05
0.00497834
2.73296e-05
0.00497436
2.79595e-05
0.0049703
2.86566e-05
0.00496614
2.94018e-05
0.00496187
3.01839e-05
0.0049575
3.09967e-05
0.00495302
3.18374e-05
0.00494841
3.27049e-05
0.00494369
3.35994e-05
0.00493885
3.45212e-05
0.00493387
3.54711e-05
0.00492876
3.64497e-05
0.00492352
3.74574e-05
0.00491813
3.84947e-05
0.0049126
3.95619e-05
0.00490692
4.06592e-05
0.00490108
4.17869e-05
0.00489509
4.29449e-05
0.00488894
4.41335e-05
0.00488262
4.53526e-05
0.00487614
4.66024e-05
0.00486948
4.78829e-05
0.00486265
4.91941e-05
0.00485564
5.05362e-05
0.00484844
5.19093e-05
0.00484106
5.33134e-05
0.00483349
5.47487e-05
0.00482573
5.62154e-05
0.00481776
5.77143e-05
0.0048096
5.92466e-05
0.00480124
6.08164e-05
0.00479269
6.24345e-05
0.00478438
-8.70389e-07
1.60511e-09
0.00478473
-3.54275e-07
1.4861e-09
0.00478454
1.9805e-07
1.35215e-09
0.00478375
7.84267e-07
1.22684e-09
0.00478234
1.41303e-06
1.09001e-09
0.00478025
2.08599e-06
9.44975e-10
0.00477744
2.80713e-06
7.93044e-10
0.00477386
3.58081e-06
6.34125e-10
0.00476945
4.41186e-06
4.68292e-10
0.00476414
5.30559e-06
2.9605e-10
0.00475787
6.26784e-06
1.17836e-10
0.00475057
7.3051e-06
-6.56113e-11
0.00474214
8.42449e-06
-2.53075e-10
0.00473251
9.63393e-06
-4.4383e-10
0.00472157
1.09423e-05
-6.3647e-10
0.00470921
1.23595e-05
-8.34659e-10
0.00469531
1.38969e-05
-1.03394e-09
0.00467975
1.55677e-05
-1.22364e-09
0.00466236
1.73871e-05
-1.39911e-09
0.00464299
1.93725e-05
-1.5603e-09
0.00462145
2.15445e-05
-1.71101e-09
0.00459752
2.39273e-05
-1.85053e-09
0.00457098
2.65496e-05
-1.97437e-09
0.00454153
2.94454e-05
-2.08204e-09
0.00450888
3.2655e-05
-2.173e-09
0.00447266
3.62262e-05
-2.24842e-09
0.00443244
4.02159e-05
-2.30986e-09
0.00438775
4.46917e-05
-2.35856e-09
0.00433802
4.97347e-05
-2.39655e-09
0.00428258
5.54418e-05
-2.42619e-09
0.00422065
6.19299e-05
-2.44944e-09
0.00415132
6.93407e-05
-2.46823e-09
0.00407347
7.78467e-05
-2.4844e-09
0.00398582
8.76583e-05
-2.49935e-09
0.00388678
9.90329e-05
-2.51394e-09
0.0037745
0.000112283
-2.52852e-09
0.00364672
0.000127786
-2.54319e-09
0.00350075
0.000145978
-2.55804e-09
0.0033334
0.000167349
-2.57296e-09
0.00314101
0.000192392
-2.58807e-09
0.0029195
0.000221516
-2.6042e-09
0.00266464
0.000254861
-2.62333e-09
0.00237265
0.000291992
-2.64802e-09
0.00204124
0.000331408
-2.68026e-09
0.00167145
0.000369799
-2.71838e-09
0.00127046
0.00040099
-2.74878e-09
0.000855869
0.000414594
-2.7307e-09
0.000461543
0.000394329
-2.57165e-09
0.00014612
0.000315425
-2.10085e-09
0.000146122
-1.04952e-09
0.00478346
-3.70332e-07
0.00478244
6.60403e-07
0.00478088
1.75914e-06
0.00477874
2.93263e-06
0.00477596
4.18765e-06
0.00477252
5.53113e-06
0.00476835
6.97093e-06
0.00476342
8.51578e-06
0.00475765
1.01753e-05
0.004751
1.19603e-05
0.00474338
1.38823e-05
0.00473473
1.59544e-05
0.00472497
1.81909e-05
0.00471399
2.06076e-05
0.00470171
2.32222e-05
0.00468802
2.60548e-05
0.00467279
2.91281e-05
0.00465589
3.24686e-05
0.00463717
3.61067e-05
0.00461646
4.00775e-05
0.00459358
4.44222e-05
0.00456832
4.91893e-05
0.00454044
5.44365e-05
0.00450965
6.02318e-05
0.00447565
6.66559e-05
0.00443807
7.38045e-05
0.00439649
8.17914e-05
0.00435043
9.07519e-05
0.00429932
0.000100848
0.00424249
0.000112272
0.00417916
0.000125259
0.00410841
0.000140089
0.00402915
0.000157106
0.00394009
0.000176726
0.00383966
0.00019946
0.00372602
0.000225924
0.00359695
0.000256859
0.0034498
0.000293123
0.00328148
0.000335667
0.00308843
0.000385446
0.00286672
0.000443226
0.00261235
0.000509229
0.00232182
0.000582523
0.00199318
0.000660047
0.00162782
0.000735162
0.00123323
0.000795579
0.000827144
0.000820677
0.000443096
0.000778377
0.00013761
0.000620911
0.000283732
0.00478163
2.8481e-06
0.0047779
4.38866e-06
0.00477363
6.03199e-06
0.00476877
7.78723e-06
0.0047633
9.66409e-06
0.00475716
1.16733e-05
0.0047503
1.38269e-05
0.00474268
1.6138e-05
0.00473423
1.86211e-05
0.0047249
2.12924e-05
0.00471461
2.41694e-05
0.0047033
2.72715e-05
0.00469087
3.06205e-05
0.00467723
3.424e-05
0.0046623
3.81569e-05
0.00464595
4.24011e-05
0.00462807
4.70072e-05
0.00460853
5.20149e-05
0.00458716
5.74702e-05
0.00456382
6.34259e-05
0.00453829
6.9944e-05
0.00451039
7.70979e-05
0.00447985
8.49742e-05
0.0044464
9.36753e-05
0.00440974
0.000103322
0.00436948
0.00011406
0.00432522
0.000126057
0.00427645
0.000139519
0.00422261
0.000154685
0.00416304
0.000171846
0.00409695
0.000191349
0.00402342
0.000213613
0.00394138
0.000239147
0.00384954
0.000268568
0.00374637
0.000302626
0.00363007
0.000342227
0.00349848
0.000388447
0.00334907
0.000442531
0.0031789
0.000505838
0.00298464
0.000579708
0.0027627
0.000665171
0.00250951
0.000762413
0.00222216
0.000869873
0.00189938
0.00098283
0.00154323
0.00109131
0.0011617
0.00117712
0.000772554
0.00120982
0.000408865
0.00114207
0.000124551
0.000905224
0.000408283
0.00477892
1.01006e-05
0.00477117
1.21449e-05
0.00476287
1.43258e-05
0.00475401
1.66551e-05
0.00474452
1.91462e-05
0.00473438
2.18134e-05
0.00472354
2.46728e-05
0.00471193
2.77421e-05
0.00469951
3.10409e-05
0.00468622
3.45904e-05
0.00467197
3.84143e-05
0.0046567
4.25387e-05
0.00464033
4.69924e-05
0.00462277
5.18073e-05
0.0046039
5.70192e-05
0.00458364
6.26684e-05
0.00456184
6.8801e-05
0.00453839
7.54708e-05
0.00451312
8.2739e-05
0.00448587
9.06767e-05
0.00445644
9.93672e-05
0.00442463
0.000108909
0.00439019
0.000119418
0.00435283
0.000131031
0.00431225
0.00014391
0.00426806
0.000158248
0.00421984
0.000174273
0.00416711
0.000192254
0.00410928
0.000212512
0.00404569
0.000235432
0.00397557
0.000261472
0.003898
0.000291185
0.00381191
0.000325239
0.00371604
0.000364439
0.0036089
0.000409759
0.00348876
0.000462367
0.00335357
0.000523637
0.00320097
0.000595138
0.00302825
0.000678557
0.00283245
0.000775503
0.00261051
0.000887116
0.00235956
0.00101336
0.00207756
0.00115187
0.00176427
0.00129612
0.00142273
0.00143285
0.00106145
0.00153839
0.000697772
0.0015735
0.0003629
0.00147694
0.000105991
0.00116213
0.000514275
0.00477538
2.26508e-05
0.00476234
2.51885e-05
0.00474877
2.78959e-05
0.00473464
3.07881e-05
0.0047199
3.38819e-05
0.00470452
3.71956e-05
0.00468844
4.07494e-05
0.00467162
4.45654e-05
0.00465399
4.86681e-05
0.0046355
5.30843e-05
0.00461607
5.78436e-05
0.00459563
6.29785e-05
0.0045741
6.85253e-05
0.00455138
7.4524e-05
0.00452738
8.10196e-05
0.00450199
8.80629e-05
0.00447507
9.57118e-05
0.00444651
0.000104034
0.00441614
0.000113107
0.0043838
0.00012302
0.00434929
0.000133878
0.00431239
0.000145804
0.00427287
0.000158945
0.00423042
0.000173473
0.00418474
0.000189592
0.00413545
0.000207541
0.00408212
0.000227606
0.00402425
0.000250124
0.00396127
0.000275494
0.00389251
0.000304192
0.00381719
0.000336787
0.00373442
0.000373957
0.00364314
0.000416519
0.00354212
0.000465454
0.00342995
0.000521933
0.00330497
0.000587348
0.00316529
0.000663314
0.00300879
0.000751642
0.00283312
0.000854223
0.00263586
0.000972769
0.00241466
0.00110832
0.00216766
0.00126036
0.00189408
0.00142545
0.00159508
0.00159512
0.00127498
0.00175295
0.000942829
0.00187054
0.000614657
0.00190167
0.000316748
0.00177485
8.77176e-05
0.00139116
0.000601992
0.00477107
4.16923e-05
0.00475155
4.47067e-05
0.00473152
4.79246e-05
0.00471095
5.13639e-05
0.00468978
5.50449e-05
0.00466799
5.89898e-05
0.00464552
6.32226e-05
0.00462231
6.77699e-05
0.00459832
7.26611e-05
0.00457347
7.79282e-05
0.00454771
8.36069e-05
0.00452095
8.97364e-05
0.00449312
9.63601e-05
0.00446412
0.000103527
0.00443385
0.00011129
0.0044022
0.000119711
0.00436905
0.000128861
0.00433426
0.000138821
0.00429768
0.000149685
0.00425914
0.000161562
0.00421844
0.000174577
0.00417536
0.000188881
0.00412966
0.00020465
0.00408104
0.000222093
0.00402918
0.000241454
0.0039737
0.000263023
0.00391416
0.000287142
0.00385007
0.000314215
0.00378084
0.000344719
0.00370582
0.000379219
0.00362421
0.000418389
0.00353514
0.000463028
0.00343757
0.00051409
0.00333032
0.000572705
0.00321204
0.000640214
0.00308121
0.000718176
0.00293616
0.000808364
0.0027751
0.000912702
0.00259622
0.0010331
0.00239788
0.00117112
0.00217884
0.00132735
0.00193878
0.00150042
0.00167881
0.00168542
0.00140227
0.00187166
0.00111543
0.0020398
0.000828155
0.00215781
0.000554184
0.00217564
0.000309702
0.00201933
0.000106965
0.0015939
0.000708957
0.00476606
6.83251e-05
0.00473898
7.17917e-05
0.0047114
7.54981e-05
0.0046833
7.94635e-05
0.00465464
8.37112e-05
0.00462536
8.82665e-05
0.00459542
9.31574e-05
0.00456478
9.84146e-05
0.00453337
0.000104072
0.00450113
0.000110168
0.00446799
0.000116742
0.00443389
0.000123842
0.00439873
0.000131518
0.00436243
0.000139826
0.00432489
0.000148831
0.004286
0.000158603
0.00424563
0.000169227
0.00420366
0.000180797
0.00415992
0.000193424
0.00411424
0.000207236
0.00406644
0.000222382
0.00401628
0.000239037
0.00396352
0.00025741
0.00390787
0.000277745
0.00384899
0.000300329
0.00378652
0.000325501
0.00372
0.000353661
0.00364894
0.000385278
0.00357275
0.000420906
0.00349077
0.0004612
0.00340222
0.000506932
0.00330624
0.000559017
0.00320179
0.000618533
0.00308775
0.000686744
0.00296285
0.000765122
0.00282568
0.000855341
0.0026748
0.000959241
0.00250879
0.00107872
0.00232641
0.00121548
0.00212693
0.0013706
0.00191048
0.0015438
0.00167866
0.00173224
0.00143523
0.00192885
0.00118676
0.00212013
0.000943199
0.00228336
0.000717436
0.00238357
0.000522694
0.00237039
0.000363522
0.0021785
0.000220076
0.00173735
0.000929033
-3.08413e-05
3.08418e-05
-5.30191e-10
-8.58272e-05
5.49871e-05
-1.0605e-09
-0.000142132
5.63056e-05
-1.23914e-09
-0.000186438
4.43075e-05
-1.20438e-09
-0.000211432
2.49952e-05
-1.02179e-09
-0.000212842
1.41063e-06
-7.44323e-10
-0.000190842
-2.2e-05
-2.81761e-10
-0.000145094
-4.57483e-05
2.33651e-10
-7.67065e-05
-6.8388e-05
8.54614e-10
1.26373e-05
-8.93453e-05
1.56811e-09
0.000120893
-0.000108258
2.35207e-09
0.000245854
-0.000124964
3.17024e-09
0.000385229
-0.000139379
3.97715e-09
0.000536717
-0.000151493
4.7231e-09
0.000698059
-0.000161347
5.35983e-09
0.000867077
-0.000169024
5.84891e-09
0.00104171
-0.000174636
6.16506e-09
0.00122001
-0.000178315
6.30211e-09
0.00140022
-0.000180209
6.26528e-09
0.00158069
-0.000180478
6.08528e-09
0.00175997
-0.000179286
5.87593e-09
0.00193676
-0.0001768
5.59453e-09
0.00210994
-0.000173183
5.56816e-09
0.00227853
-0.000168596
6.02724e-09
0.00244172
-0.000163195
6.75195e-09
0.00259884
-0.00015713
7.52313e-09
0.00274938
-0.000150541
8.0815e-09
0.00289293
-0.000143558
8.33558e-09
0.00302922
-0.000136298
8.3169e-09
0.00315808
-0.00012887
8.03562e-09
0.00327944
-0.000121369
7.51761e-09
0.00339331
-0.000113881
6.8024e-09
0.00349979
-0.000106479
5.94049e-09
0.00359901
-9.92253e-05
4.98497e-09
0.00369118
-9.21738e-05
3.98699e-09
0.00377654
-8.53672e-05
2.99389e-09
0.00385538
-7.88395e-05
2.04584e-09
0.00392799
-7.26164e-05
1.17638e-09
0.00399471
-6.67158e-05
4.12964e-10
0.00405586
-6.1149e-05
-2.24346e-10
0.00411178
-5.59211e-05
-7.22128e-10
0.00416281
-5.1032e-05
-1.07481e-09
0.00420929
-4.64771e-05
-1.28261e-09
0.00425154
-4.22481e-05
-1.35189e-09
0.00428988
-3.83336e-05
-1.29377e-09
0.0043246
-3.47198e-05
-1.12244e-09
0.00435599
-3.13912e-05
-8.53853e-10
0.00438432
-2.83309e-05
-5.04813e-10
0.00440984
-2.5521e-05
-9.07589e-11
-2.29432e-05
0.00443278
3.75562e-10
-2.70528e-05
5.78946e-05
-7.48491e-05
0.000102783
-0.000123086
0.000104543
-0.000160022
8.12429e-05
-0.000178954
4.39276e-05
-0.000176078
-1.46601e-06
-0.000151182
-4.68955e-05
-0.000103947
-9.29829e-05
-3.52647e-05
-0.000137071
5.33017e-05
-0.000177912
0.000159954
-0.00021491
0.000282678
-0.000247688
0.000419347
-0.000276049
0.000567804
-0.000299949
0.000725914
-0.000319457
0.000891604
-0.000334714
0.0010629
-0.000345928
0.00123793
-0.000353345
0.00141497
-0.00035725
0.00159243
-0.000357944
0.00176889
-0.000355748
0.00194308
-0.000350985
0.00211387
-0.000343975
0.00228031
-0.000335033
0.00244158
-0.000324464
0.00259701
-0.000312565
0.00274609
-0.000299614
0.00288839
-0.000285867
0.00302366
-0.000271559
0.00315169
-0.000256904
0.00327241
-0.000242093
0.00338583
-0.000227295
0.00349201
-0.000212657
0.00359109
-0.000198306
0.00368326
-0.000184347
0.00376876
-0.000170866
0.00384785
-0.000157932
0.00392083
-0.000145597
0.00398801
-0.000133898
0.00404972
-0.000122856
0.00410628
-0.000112483
0.00415803
-0.00010278
0.00420529
-9.37382e-05
0.00424839
-8.53409e-05
0.00428762
-7.75662e-05
0.00432329
-7.03873e-05
0.00435567
-6.37735e-05
0.00438503
-5.76916e-05
0.00441161
-5.21061e-05
-4.69796e-05
0.00443565
-2.02745e-05
7.81691e-05
-5.37423e-05
0.000136251
-8.66121e-05
0.000137413
-0.000109529
0.00010416
-0.000116878
5.12764e-05
-0.000106408
-1.19355e-05
-7.59991e-05
-7.73047e-05
-2.60959e-05
-0.000142886
4.26592e-05
-0.000205826
0.000129391
-0.000264643
0.000232688
-0.000318208
0.000350874
-0.000365873
0.000482141
-0.000407316
0.000624614
-0.000442423
0.000776396
-0.000471239
0.000935615
-0.000493933
0.00110045
-0.000510767
0.00126918
-0.000522072
0.00144017
-0.000528237
0.00161191
-0.000529686
0.00178303
-0.000526869
0.0019523
-0.00052025
0.00211861
-0.000510292
0.00228103
-0.00049745
0.00243874
-0.000482172
0.00259107
-0.000464891
0.00273747
-0.000446017
0.00287753
-0.00042593
0.00301095
-0.000404979
0.00313753
-0.000383481
0.00325716
-0.00036172
0.00336981
-0.000339951
0.00347555
-0.000318393
0.00357448
-0.000297237
0.00366677
-0.00027664
0.00375264
-0.000256734
0.00383233
-0.000237622
0.00390611
-0.000219383
0.00397429
-0.000202074
0.00403717
-0.00018573
0.00409505
-0.00017037
0.00414827
-0.000155994
0.00419712
-0.000142593
0.00424192
-0.000130142
0.00428297
-0.000118611
0.00432054
-0.00010796
0.00435491
-9.81441e-05
0.00438633
-8.91152e-05
0.00441505
-8.08204e-05
-7.32026e-05
0.00444127
-8.09104e-06
8.62601e-05
-2.2814e-05
0.000150974
-3.45911e-05
0.00014919
-3.83291e-05
0.000107898
-3.01316e-05
4.30789e-05
-8.64382e-06
-3.34233e-05
2.76111e-05
-0.00011356
7.97941e-05
-0.000195069
0.000147944
-0.000273976
0.00023143
-0.00034813
0.000329367
-0.000416144
0.000440615
-0.000477122
0.000563831
-0.000530532
0.000697534
-0.000576125
0.000840159
-0.000613865
0.000990111
-0.000643884
0.00114579
-0.00066645
0.00130565
-0.000681932
0.0014682
-0.00069078
0.00163202
-0.000693505
0.00179581
-0.000690659
0.00195837
-0.000682819
0.00211865
-0.000670571
0.0022757
-0.000654498
0.0024287
-0.000635172
0.00257697
-0.000613156
0.00271993
-0.000588985
0.00285716
-0.000563156
0.00298831
-0.000536128
0.00311315
-0.000508321
0.00323154
-0.000480113
0.00334343
-0.000451839
0.00344883
-0.000423795
0.00354783
-0.000396234
0.00364056
-0.00036937
0.0037272
-0.000343378
0.00380798
-0.000318399
0.00388314
-0.000294541
0.00395295
-0.000271882
0.00401769
-0.000250472
0.00407766
-0.000230338
0.00413315
-0.000211484
0.00418445
-0.000193898
0.00423186
-0.000177553
0.00427566
-0.000162408
0.00431612
-0.000148414
0.00435348
-0.000135513
0.00438801
-0.000123641
0.00441992
-0.00011273
-0.000102702
0.00444942
7.23351e-06
7.90266e-05
1.63751e-05
0.000141833
2.99933e-05
0.000135572
4.84371e-05
8.9454e-05
7.38389e-05
1.7677e-05
0.000106296
-6.58807e-05
0.000149355
-0.000156618
0.000203534
-0.000249248
0.000269586
-0.000340028
0.000347809
-0.000426353
0.000438067
-0.000506402
0.000539873
-0.000578927
0.00065245
-0.00064311
0.000774803
-0.000698478
0.000905771
-0.000744833
0.00104409
-0.000782199
0.00118842
-0.00081078
0.00133741
-0.000830923
0.00148972
-0.000843091
0.00164405
-0.000847836
0.00179916
-0.000845772
0.0019539
-0.000837562
0.00210722
-0.000823891
0.00225817
-0.000805448
0.00240592
-0.00078292
0.00254975
-0.000756984
0.00268906
-0.000728292
0.00282336
-0.000697458
0.00295228
-0.000665046
0.00307554
-0.000631578
0.00319295
-0.000597524
0.00330441
-0.000563304
0.00340991
-0.000529289
0.00350947
-0.000495798
0.0036032
-0.000463101
0.00369125
-0.000431422
0.00377379
-0.000400942
0.00385105
-0.000371798
0.00392326
-0.000344093
0.00399068
-0.000317893
0.00405358
-0.000293236
0.00411222
-0.000270133
0.0041669
-0.00024857
0.00421786
-0.000228518
0.00426538
-0.00020993
0.00430971
-0.000192746
0.0043511
-0.000176898
0.00438977
-0.000162309
0.00442593
-0.000148896
-0.00013656
0.00445979
2.41576e-05
5.4869e-05
6.19541e-05
0.000104036
0.000104055
9.34709e-05
0.00014724
4.62689e-05
0.000189464
-2.45471e-05
0.000233185
-0.000109601
0.000281022
-0.000204456
0.000334866
-0.000303092
0.000396364
-0.000401526
0.000466706
-0.000496694
0.000546598
-0.000586294
0.000636301
-0.00066863
0.000735686
-0.000742495
0.000844301
-0.000807092
0.000961432
-0.000861964
0.00108617
-0.000906937
0.00121746
-0.000942071
0.00135416
-0.000967622
0.00149507
-0.000984006
0.001639
-0.000991763
0.00178476
-0.000991532
0.00193122
-0.000984024
0.00207733
-0.000969997
0.00222211
-0.000950228
0.00236469
-0.0009255
0.0025043
-0.000896597
0.00264029
-0.000864284
0.00277212
-0.000829283
0.00289934
-0.000792267
0.00302162
-0.000753857
0.00313871
-0.00071462
0.00325047
-0.000675062
0.00335681
-0.000635632
0.00345774
-0.00059672
0.00355329
-0.000558656
0.00364358
-0.000521714
0.00372876
-0.000486119
0.003809
-0.000452042
0.00388452
-0.000419611
0.00395554
-0.000388914
0.00402231
-0.000360001
0.00408506
-0.00033289
0.00414407
-0.000307572
0.00419956
-0.000284015
0.0042518
-0.000262166
0.00430101
-0.00024196
0.00434743
-0.000223318
0.00439128
-0.000206152
0.00443274
-0.000190364
-0.000175839
0.00447202
4.51537e-05
9.71529e-06
0.000116393
3.27968e-05
0.000187608
2.2256e-05
0.000252449
-1.85722e-05
0.000308005
-8.01036e-05
0.000359224
-0.00016082
0.000408385
-0.000253616
0.000458564
-0.000353271
0.000512435
-0.000455398
0.00057214
-0.000556399
0.000639241
-0.000653396
0.000714748
-0.000744136
0.000799169
-0.000826916
0.000892582
-0.000900505
0.000994706
-0.000964089
0.00110497
-0.0010172
0.00122259
-0.00105968
0.00134659
-0.00109163
0.00147592
-0.00111334
0.00160946
-0.0011253
0.00174605
-0.00112812
0.00188457
-0.00112254
0.00202393
-0.00110936
0.00216312
-0.00108942
0.00230121
-0.00106359
0.00243737
-0.00103275
0.00257087
-0.000997779
0.00270108
-0.000959498
0.00282751
-0.000918693
0.00294974
-0.000876087
0.00306746
-0.000832347
0.00318047
-0.000788071
0.00328863
-0.00074379
0.00339188
-0.000699968
0.00349022
-0.000657001
0.00358373
-0.000615219
0.0036725
-0.000574893
0.00375669
-0.000536233
0.00383648
-0.000499397
0.00391206
-0.000464495
0.00398365
-0.000431593
0.00405148
-0.000400719
0.00411578
-0.00037187
0.00417678
-0.000345013
0.0042347
-0.000320093
0.00428978
-0.000297038
0.00434222
-0.000275761
0.00439224
-0.000256164
0.00444001
-0.000238139
0.00448573
-0.000221562
0.00446314
-3.03593e-05
8.87941e-10
0.00449194
-2.87955e-05
1.45536e-09
0.00451925
-2.73161e-05
2.05271e-09
0.00454517
-2.59213e-05
2.65539e-09
0.00456977
-2.4609e-05
3.24467e-09
0.00459315
-2.33763e-05
3.80795e-09
0.00461536
-2.22196e-05
4.33824e-09
0.00463649
-2.11354e-05
4.83342e-09
0.00465661
-2.01196e-05
5.29526e-09
0.00467577
-1.91685e-05
5.72796e-09
0.00469404
-1.82779e-05
6.13723e-09
0.00471148
-1.74435e-05
6.52925e-09
0.00472813
-1.6661e-05
6.91019e-09
0.00474405
-1.59254e-05
7.28565e-09
0.00475927
-1.52314e-05
7.66004e-09
0.00477384
-1.45729e-05
8.03553e-09
0.00478777
-1.39434e-05
8.41143e-09
0.0048011
-1.33357e-05
8.78365e-09
0.00481383
-1.27425e-05
9.14417e-09
0.00482598
-1.21571e-05
9.4812e-09
0.00483755
-1.1574e-05
9.77984e-09
0.00484853
-1.099e-05
1.00231e-08
0.00485892
-1.04048e-05
1.01937e-08
0.00486873
-9.82136e-06
1.02758e-08
0.00487797
-9.24633e-06
1.0257e-08
0.00488665
-8.68883e-06
1.01298e-08
0.0048948
-8.15934e-06
9.89264e-09
0.00490245
-7.66787e-06
9.55005e-09
0.00490967
-7.22229e-06
9.11278e-09
0.00491649
-6.82693e-06
8.59625e-09
0.00492296
-6.48195e-06
8.01863e-09
0.00492914
-6.18355e-06
7.39907e-09
0.00493505
-5.92488e-06
6.7557e-09
0.00494075
-5.6974e-06
6.1047e-09
0.00494623
-5.49234e-06
5.45965e-09
0.00495153
-5.30187e-06
4.83034e-09
0.00495665
-5.11984e-06
4.22318e-09
0.00496158
-4.94202e-06
3.64222e-09
0.00496635
-4.76596e-06
3.09005e-09
0.00497093
-4.59064e-06
2.56776e-09
0.00497535
-4.41601e-06
2.07543e-09
0.00497959
-4.24256e-06
1.614e-09
0.00498366
-4.07101e-06
1.185e-09
0.00498756
-3.90215e-06
7.90743e-10
0.0049913
-3.73635e-06
4.4648e-10
0.00499487
-3.5745e-06
1.2539e-10
0.00499829
-3.41691e-06
-1.73386e-10
0.00500155
-3.26374e-06
-4.48322e-10
0.00500467
-3.11509e-06
-7.02013e-10
0.00500764
-2.97102e-06
-9.42624e-10
0.00501047
-2.83155e-06
-1.17915e-09
0.00501317
-2.69664e-06
-1.42005e-09
0.00501574
-2.56623e-06
-1.67324e-09
0.00501818
-2.44024e-06
-1.94499e-09
0.0050205
-2.31858e-06
-2.23924e-09
0.00502271
-2.20116e-06
-2.555e-09
0.0050248
-2.08789e-06
-2.88498e-09
0.00502678
-1.97868e-06