/*--------------------------------*- C++ -*----------------------------------*\
| =========                 |                                                 |
| \\      /  F ield         | OpenFOAM: The Open Source CFD Toolbox           |
|  \\    /   O peration     | Version:  2412                                  |
|   \\  /    A nd           | Website:  www.openfoam.com                      |
|    \\/     M anipulation  |                                                 |
\*---------------------------------------------------------------------------*/
FoamFile
{
    version     2.0;
    format      ascii;
    arch        "LSB;label=32;scalar=64";
    class       volVectorField;
    location    "16";
    object      U;
}
// * * * * * * * * * * * * * * * * * * * * * * * * * * * * * * * * * * * * * //

dimensions      [0 1 -1 0 0 0 0];

internalField   nonuniform List<vector> 
63420
(
(0.0999997 4.34956e-07 0)
(0.099995 1.29572e-06 0)
(0.0999852 2.12185e-06 0)
(0.0999711 2.93608e-06 0)
(0.0999528 3.89506e-06 0)
(0.0999291 5.26953e-06 0)
(0.0998971 7.28513e-06 0)
(0.0998536 9.94229e-06 0)
(0.0997962 1.29593e-05 0)
(0.0997246 1.58775e-05 0)
(0.0996412 1.82494e-05 0)
(0.0995499 1.97988e-05 0)
(0.0994552 2.04822e-05 0)
(0.0993611 2.04532e-05 0)
(0.0992703 1.99726e-05 0)
(0.0991839 1.93156e-05 0)
(0.0991021 1.87065e-05 0)
(0.0990242 1.82905e-05 0)
(0.0989489 1.81365e-05 0)
(0.0988752 1.82544e-05 0)
(0.0988019 1.86189e-05 0)
(0.0987281 1.91888e-05 0)
(0.0986533 1.99211e-05 0)
(0.0985769 2.07788e-05 0)
(0.0984987 2.17335e-05 0)
(0.0984184 2.27662e-05 0)
(0.0983359 2.38651e-05 0)
(0.0982512 2.50246e-05 0)
(0.098164 2.62428e-05 0)
(0.0980744 2.75205e-05 0)
(0.0979823 2.88602e-05 0)
(0.0978877 3.02649e-05 0)
(0.0977903 3.17385e-05 0)
(0.0976903 3.32848e-05 0)
(0.0975874 3.49076e-05 0)
(0.0974817 3.66109e-05 0)
(0.0973729 3.83986e-05 0)
(0.0972612 4.02745e-05 0)
(0.0971462 4.22427e-05 0)
(0.097028 4.4307e-05 0)
(0.0969065 4.64717e-05 0)
(0.0967815 4.87409e-05 0)
(0.0966531 5.1119e-05 0)
(0.096521 5.36104e-05 0)
(0.0963852 5.62197e-05 0)
(0.0962456 5.89519e-05 0)
(0.0961021 6.18121e-05 0)
(0.0959546 6.48055e-05 0)
(0.095803 6.79379e-05 0)
(0.0956473 7.12155e-05 0)
(0.0954872 7.46451e-05 0)
(0.0953227 7.82354e-05 0)
(0.0951537 8.20003e-05 0)
(0.0949801 8.59691e-05 0)
(0.0948016 9.02152e-05 0)
(0.0999997 1.30467e-06 0)
(0.099995 3.88687e-06 0)
(0.0999852 6.36585e-06 0)
(0.0999711 8.80905e-06 0)
(0.0999529 1.16833e-05 0)
(0.0999291 1.57964e-05 0)
(0.0998973 2.18228e-05 0)
(0.0998539 2.97663e-05 0)
(0.0997968 3.87892e-05 0)
(0.0997256 4.75237e-05 0)
(0.0996425 5.46349e-05 0)
(0.0995515 5.92961e-05 0)
(0.0994571 6.13742e-05 0)
(0.0993632 6.13242e-05 0)
(0.0992724 5.99225e-05 0)
(0.099186 5.79887e-05 0)
(0.0991042 5.61919e-05 0)
(0.0990261 5.49669e-05 0)
(0.0989507 5.45195e-05 0)
(0.0988768 5.48815e-05 0)
(0.0988034 5.59778e-05 0)
(0.0987296 5.76869e-05 0)
(0.0986547 5.98811e-05 0)
(0.0985783 6.24501e-05 0)
(0.0985001 6.53099e-05 0)
(0.0984199 6.84033e-05 0)
(0.0983374 7.16958e-05 0)
(0.0982527 7.51699e-05 0)
(0.0981657 7.88204e-05 0)
(0.0980762 8.26497e-05 0)
(0.0979842 8.66646e-05 0)
(0.0978896 9.08749e-05 0)
(0.0977924 9.52915e-05 0)
(0.0976925 9.99258e-05 0)
(0.0975898 0.000104789 0)
(0.0974842 0.000109894 0)
(0.0973756 0.000115251 0)
(0.097264 0.000120873 0)
(0.0971493 0.000126771 0)
(0.0970313 0.000132956 0)
(0.09691 0.000139442 0)
(0.0967853 0.000146241 0)
(0.096657 0.000153365 0)
(0.0965252 0.000160829 0)
(0.0963897 0.000168645 0)
(0.0962504 0.000176829 0)
(0.0961072 0.000185396 0)
(0.0959601 0.000194362 0)
(0.0958088 0.000203743 0)
(0.0956534 0.000213558 0)
(0.0954938 0.000223828 0)
(0.0953297 0.000234578 0)
(0.0951612 0.000245849 0)
(0.0949881 0.000257726 0)
(0.0948101 0.000270424 0)
(0.0999997 2.17343e-06 0)
(0.099995 6.47518e-06 0)
(0.0999852 1.06064e-05 0)
(0.0999712 1.46772e-05 0)
(0.0999529 1.94583e-05 0)
(0.0999293 2.62862e-05 0)
(0.0998976 3.6281e-05 0)
(0.0998546 4.94569e-05 0)
(0.099798 6.44349e-05 0)
(0.0997274 7.89548e-05 0)
(0.0996451 9.08041e-05 0)
(0.0995548 9.86061e-05 0)
(0.0994609 0.000102131 0)
(0.0993673 0.000102122 0)
(0.0992766 9.98589e-05 0)
(0.0991902 9.66974e-05 0)
(0.0991082 9.37462e-05 0)
(0.0990299 9.1729e-05 0)
(0.0989542 9.09911e-05 0)
(0.0988801 9.1589e-05 0)
(0.0988065 9.34022e-05 0)
(0.0987326 9.62314e-05 0)
(0.0986576 9.98671e-05 0)
(0.0985812 0.000104127 0)
(0.098503 0.000108873 0)
(0.0984228 0.000114009 0)
(0.0983404 0.000119479 0)
(0.0982559 0.000125253 0)
(0.0981689 0.000131322 0)
(0.0980796 0.00013769 0)
(0.0979879 0.000144367 0)
(0.0978935 0.000151371 0)
(0.0977966 0.000158718 0)
(0.0976969 0.000166427 0)
(0.0975945 0.000174518 0)
(0.0974892 0.00018301 0)
(0.097381 0.000191922 0)
(0.0972698 0.000201273 0)
(0.0971554 0.000211083 0)
(0.0970378 0.000221371 0)
(0.0969169 0.000232158 0)
(0.0967927 0.000243465 0)
(0.096665 0.000255312 0)
(0.0965336 0.000267723 0)
(0.0963987 0.000280719 0)
(0.09626 0.000294325 0)
(0.0961174 0.000308566 0)
(0.0959709 0.000323469 0)
(0.0958204 0.00033906 0)
(0.0956658 0.000355371 0)
(0.0955069 0.000372434 0)
(0.0953438 0.000390292 0)
(0.0951761 0.00040901 0)
(0.095004 0.000428724 0)
(0.0948271 0.000449772 0)
(0.0999997 3.04063e-06 0)
(0.0999951 9.05873e-06 0)
(0.0999852 1.4841e-05 0)
(0.0999712 2.05373e-05 0)
(0.099953 2.72117e-05 0)
(0.0999295 3.67157e-05 0)
(0.099898 5.06104e-05 0)
(0.0998556 6.89311e-05 0)
(0.0997997 8.9782e-05 0)
(0.0997302 0.000110037 0)
(0.0996488 0.000126622 0)
(0.0995595 0.000137611 0)
(0.0994663 0.000142666 0)
(0.0993732 0.000142798 0)
(0.0992827 0.000139771 0)
(0.0991962 0.000135461 0)
(0.099114 0.00013141 0)
(0.0990354 0.000128628 0)
(0.0989594 0.000127604 0)
(0.098885 0.000128425 0)
(0.0988111 0.00013093 0)
(0.098737 0.000134849 0)
(0.0986619 0.000139893 0)
(0.0985854 0.000145811 0)
(0.0985072 0.000152411 0)
(0.0984271 0.000159562 0)
(0.0983449 0.000167182 0)
(0.0982605 0.000175232 0)
(0.0981738 0.000183697 0)
(0.0980848 0.000192581 0)
(0.0979933 0.0002019 0)
(0.0978994 0.000211676 0)
(0.0978028 0.000221932 0)
(0.0977036 0.000232695 0)
(0.0976016 0.000243992 0)
(0.0974968 0.000255847 0)
(0.0973891 0.000268288 0)
(0.0972783 0.000281343 0)
(0.0971645 0.000295036 0)
(0.0970476 0.000309397 0)
(0.0969273 0.000324452 0)
(0.0968038 0.000340231 0)
(0.0966768 0.000356763 0)
(0.0965463 0.000374078 0)
(0.0964121 0.000392209 0)
(0.0962743 0.000411188 0)
(0.0961327 0.00043105 0)
(0.0959872 0.000451831 0)
(0.0958377 0.000473569 0)
(0.0956842 0.000496305 0)
(0.0955266 0.000520085 0)
(0.0953647 0.000544965 0)
(0.0951984 0.000571032 0)
(0.0950277 0.000598461 0)
(0.0948524 0.000627687 0)
(0.0999997 3.90572e-06 0)
(0.0999951 1.16356e-05 0)
(0.0999853 1.90673e-05 0)
(0.0999713 2.63861e-05 0)
(0.0999531 3.49352e-05 0)
(0.0999297 4.70638e-05 0)
(0.0998986 6.47666e-05 0)
(0.0998568 8.81147e-05 0)
(0.099802 0.000114728 0)
(0.0997336 0.000140649 0)
(0.0996536 0.000161965 0)
(0.0995655 0.000176204 0)
(0.0994732 0.0001829 0)
(0.0993807 0.000183307 0)
(0.0992905 0.000179646 0)
(0.099204 0.000174294 0)
(0.0991215 0.000169214 0)
(0.0990425 0.000165705 0)
(0.0989661 0.000164401 0)
(0.0988913 0.000165428 0)
(0.0988171 0.000168593 0)
(0.0987427 0.000173559 0)
(0.0986674 0.000179967 0)
(0.0985909 0.000187498 0)
(0.0985128 0.000195911 0)
(0.0984328 0.000205036 0)
(0.0983508 0.000214771 0)
(0.0982667 0.000225063 0)
(0.0981803 0.000235892 0)
(0.0980917 0.000247264 0)
(0.0980006 0.000259196 0)
(0.0979071 0.000271715 0)
(0.097811 0.000284852 0)
(0.0977123 0.000298639 0)
(0.0976109 0.000313109 0)
(0.0975068 0.000328296 0)
(0.0973997 0.000344232 0)
(0.0972897 0.000360952 0)
(0.0971767 0.00037849 0)
(0.0970605 0.00039688 0)
(0.0969411 0.000416158 0)
(0.0968185 0.000436359 0)
(0.0966925 0.000457522 0)
(0.096563 0.000479684 0)
(0.0964299 0.000502886 0)
(0.0962933 0.000527169 0)
(0.0961529 0.000552577 0)
(0.0960087 0.000579156 0)
(0.0958607 0.000606952 0)
(0.0957087 0.000636018 0)
(0.0955526 0.000666408 0)
(0.0953924 0.000698193 0)
(0.0952279 0.000731473 0)
(0.0950592 0.000766447 0)
(0.094886 0.000803606 0)
(0.0999997 4.76829e-06 0)
(0.0999951 1.42039e-05 0)
(0.0999853 2.32829e-05 0)
(0.0999714 3.222e-05 0)
(0.0999533 4.26217e-05 0)
(0.09993 5.73121e-05 0)
(0.0998993 7.87117e-05 0)
(0.0998583 0.000106945 0)
(0.0998046 0.000139185 0)
(0.0997377 0.000170688 0)
(0.0996593 0.000196729 0)
(0.0995725 0.000214292 0)
(0.0994814 0.000222761 0)
(0.0993896 0.000223605 0)
(0.0992997 0.000219467 0)
(0.0992132 0.000213202 0)
(0.0991304 0.000207183 0)
(0.099051 0.000202992 0)
(0.0989741 0.000201416 0)
(0.0988988 0.000202627 0)
(0.0988243 0.000206411 0)
(0.0987496 0.000212375 0)
(0.0986742 0.000220091 0)
(0.0985977 0.000229181 0)
(0.0985196 0.000239354 0)
(0.0984398 0.000250405 0)
(0.0983581 0.00026221 0)
(0.0982743 0.000274702 0)
(0.0981883 0.000287856 0)
(0.0981001 0.000301678 0)
(0.0980096 0.000316186 0)
(0.0979167 0.000331413 0)
(0.0978212 0.000347394 0)
(0.0977232 0.000364167 0)
(0.0976225 0.000381771 0)
(0.0975191 0.000400247 0)
(0.0974129 0.000419635 0)
(0.0973038 0.000439974 0)
(0.0971917 0.000461305 0)
(0.0970766 0.00048367 0)
(0.0969583 0.000507111 0)
(0.0968367 0.000531672 0)
(0.0967119 0.000557397 0)
(0.0965837 0.000584332 0)
(0.096452 0.000612525 0)
(0.0963168 0.000642027 0)
(0.096178 0.000672887 0)
(0.0960355 0.000705161 0)
(0.0958891 0.000738904 0)
(0.095739 0.000774177 0)
(0.0955848 0.000811045 0)
(0.0954267 0.000849584 0)
(0.0952645 0.000889905 0)
(0.0950982 0.00093221 0)
(0.0949276 0.000976994 0)
(0.0999997 5.6276e-06 0)
(0.0999951 1.67624e-05 0)
(0.0999854 2.74852e-05 0)
(0.0999715 3.80357e-05 0)
(0.0999534 5.02643e-05 0)
(0.0999304 6.74457e-05 0)
(0.0999002 9.24157e-05 0)
(0.09986 0.000125372 0)
(0.0998075 0.000163086 0)
(0.0997423 0.000200074 0)
(0.0996656 0.00023083 0)
(0.0995804 0.000251797 0)
(0.0994906 0.00026219 0)
(0.0993997 0.000263652 0)
(0.0993102 0.000259215 0)
(0.0992236 0.000252183 0)
(0.0991405 0.000245325 0)
(0.0990607 0.000240504 0)
(0.0989833 0.000238665 0)
(0.0989076 0.000240037 0)
(0.0988326 0.000244395 0)
(0.0987577 0.000251298 0)
(0.0986822 0.000260259 0)
(0.0986056 0.000270845 0)
(0.0985277 0.000282717 0)
(0.0984481 0.000295638 0)
(0.0983667 0.000309459 0)
(0.0982833 0.000324102 0)
(0.0981978 0.000339536 0)
(0.0981102 0.000355763 0)
(0.0980203 0.000372804 0)
(0.097928 0.000390695 0)
(0.0978333 0.000409475 0)
(0.0977361 0.000429189 0)
(0.0976363 0.000449881 0)
(0.0975339 0.000471596 0)
(0.0974286 0.000494381 0)
(0.0973206 0.000518282 0)
(0.0972096 0.000543346 0)
(0.0970957 0.00056962 0)
(0.0969786 0.000597154 0)
(0.0968585 0.000625998 0)
(0.0967351 0.000656203 0)
(0.0966084 0.000687822 0)
(0.0964784 0.00072091 0)
(0.0963449 0.000755524 0)
(0.0962078 0.000791724 0)
(0.0960672 0.00082957 0)
(0.095923 0.000869127 0)
(0.095775 0.000910463 0)
(0.0956232 0.000953648 0)
(0.0954675 0.000998766 0)
(0.0953079 0.00104592 0)
(0.0951444 0.0010953 0)
(0.0949769 0.0011473 0)
(0.0946172 9.49512e-05 -4.56012e-24)
(0.0944251 9.99557e-05 -4.6479e-24)
(0.0942233 0.000105294 -3.17942e-26)
(0.0940113 0.000111024 1.42778e-23)
(0.0937882 0.000117157 -4.72967e-24)
(0.0935535 0.000123723 -4.86671e-24)
(0.0933061 0.000130763 -1.4983e-23)
(0.0930453 0.000138321 1.48776e-23)
(0.0927701 0.000146445 5.09004e-24)
(0.0924794 0.000155188 0)
(0.092172 0.000164607 5.25786e-24)
(0.0918466 0.000174768 -5.34819e-24)
(0.0915019 0.000185741 4.39916e-23)
(0.0911363 0.000197605 -9.42804e-23)
(0.0907483 0.000210447 5.03929e-23)
(0.0903358 0.000224367 4.08341e-23)
(0.0898969 0.000239477 5.23984e-23)
(0.0894294 0.000255908 -6.00043e-24)
(0.0889308 0.000273811 6.1312e-24)
(0.0883983 0.00029336 -6.26956e-24)
(0.0878288 0.000314759 0)
(0.0872188 0.000338249 6.57148e-24)
(0.0865643 0.000364116 -6.73638e-24)
(0.0858608 0.000392698 0)
(0.0851032 0.000424395 -7.09802e-24)
(0.0842856 0.000459685 0)
(0.083401 0.000499134 -7.50832e-24)
(0.0824415 0.000543415 -1.25837e-22)
(0.0813978 0.000593336 1.33621e-22)
(0.0802592 0.000649862 -1.34155e-22)
(0.079013 0.00071416 1.33951e-22)
(0.0776443 0.000787639 0)
(0.0761353 0.000872019 0)
(0.074465 0.0009694 1.64291e-22)
(0.0726086 0.00108235 -1.54582e-22)
(0.0705358 0.00121398 0)
(0.0682106 0.00136805 0)
(0.06559 0.00154893 0)
(0.0626225 0.00176148 0)
(0.059248 0.00201062 0)
(0.055398 0.00230039 0)
(0.0509985 0.00263214 0)
(0.0459764 0.00300145 0)
(0.0402731 0.00339324 0)
(0.0338691 0.00377439 -1.52445e-23)
(0.0268249 0.00408321 -5.23506e-22)
(0.0193246 0.00421657 5.22721e-22)
(0.0117522 0.00401646 5.68157e-22)
(0.00503698 0.00324 -5.67304e-22)
(0.00102814 0.00150851 0)
(0.0946262 0.000284581 -4.61275e-24)
(0.0944342 0.000299577 -9.40654e-24)
(0.0942327 0.000315596 -4.92897e-24)
(0.0940209 0.00033274 4.59395e-24)
(0.0937982 0.000351086 -4.79489e-24)
(0.0935638 0.000370735 3.43565e-23)
(0.0933168 0.000391807 -5.39566e-23)
(0.0930565 0.000414431 5.01087e-24)
(0.0927818 0.000438752 6.68733e-23)
(0.0924916 0.000464927 -9.23606e-23)
(0.0921849 0.000493132 -9.01836e-23)
(0.0918602 0.000523558 7.94667e-23)
(0.0915164 0.000556419 0)
(0.0911517 0.000591949 5.54868e-24)
(0.0907646 0.000630413 -1.69567e-23)
(0.0903533 0.000672107 -1.92294e-22)
(0.0899157 0.00071737 1.84548e-22)
(0.0894497 0.000766597 -1.9618e-22)
(0.0889526 0.000820238 -1.84203e-23)
(0.0884219 0.000878815 6.28332e-24)
(0.0878544 0.000942942 0)
(0.0872467 0.00101334 -6.5885e-24)
(0.0865947 0.00109087 -2.12324e-22)
(0.0858942 0.00117655 4.4371e-22)
(0.0851399 0.00127157 2.44788e-22)
(0.0843261 0.00137736 -4.61673e-22)
(0.083446 0.00149562 4.97226e-22)
(0.0824917 0.00162837 -5.04545e-22)
(0.0814543 0.00177802 -8.00774e-24)
(0.0803231 0.00194745 0)
(0.0790858 0.00214015 0)
(0.0777279 0.00236033 0)
(0.0762322 0.00261311 0)
(0.0745785 0.00290474 -9.52068e-24)
(0.0727426 0.00324285 -6.45867e-22)
(0.0706958 0.00363669 -2.74883e-23)
(0.0684037 0.00409735 6.71605e-22)
(0.0658252 0.00463776 7.31892e-22)
(0.0629116 0.00527221 -7.30922e-22)
(0.0596061 0.00601509 -2.42901e-23)
(0.0558436 0.00687798 -2.53837e-23)
(0.0515536 0.00786433 -8.75831e-22)
(0.0466651 0.00896024 8.46977e-22)
(0.0411187 0.01012 -2.88761e-23)
(0.0348872 0.0112441 1.53511e-23)
(0.0280108 0.0121485 -1.06443e-21)
(0.0206366 0.012526 1.06405e-21)
(0.0130843 0.0119073 -2.22104e-21)
(0.00615673 0.00958036 2.18391e-21)
(0.0014835 0.00442848 -2.23786e-21)
(0.094644 0.000473229 -2.72894e-23)
(0.0944525 0.000498152 -9.57189e-24)
(0.0942514 0.000524775 3.69319e-23)
(0.0940402 0.000553226 -7.59579e-23)
(0.0938181 0.00058367 1.62527e-22)
(0.0935844 0.000616285 -7.69893e-23)
(0.0933383 0.000651265 1.42001e-26)
(0.0930789 0.000688827 9.99422e-24)
(0.0928052 0.000729211 1.74246e-22)
(0.0925162 0.00077268 -1.63906e-22)
(0.0922108 0.000819524 0)
(0.0918877 0.000870064 1.46211e-26)
(0.0915455 0.000924653 0)
(0.0911827 0.000983686 1.90592e-22)
(0.0907978 0.0010476 -1.67999e-22)
(0.0903888 0.00111689 -3.62148e-22)
(0.0899538 0.00119213 2.00998e-23)
(0.0894907 0.00127396 -3.81293e-22)
(0.0889969 0.00136315 1.23256e-23)
(0.0884699 0.00146056 -4.08361e-22)
(0.0879065 0.00156722 4.2087e-22)
(0.0873034 0.00168433 -4.28862e-22)
(0.0866567 0.00181332 4.4201e-22)
(0.0859622 0.00195588 1.39117e-23)
(0.0852147 0.002114 -1.42932e-23)
(0.0844088 0.00229007 1.4699e-23)
(0.0835379 0.00248689 -4.92404e-22)
(0.0825944 0.00270782 5.07563e-22)
(0.0815696 0.00295686 5.40153e-22)
(0.0804536 0.00323877 -5.23575e-22)
(0.0792345 0.00355932 0)
(0.0778987 0.00392544 0)
(0.0764302 0.00434556 1.84075e-23)
(0.07481 0.00482994 1.26884e-21)
(0.073016 0.00539104 3.07722e-23)
(0.0710219 0.00604397 -1.27732e-21)
(0.0687965 0.00680669 0)
(0.0663031 0.00770002 -2.23376e-23)
(0.0634983 0.00874682 1.55657e-21)
(0.0603315 0.00996971 -3.10814e-21)
(0.056745 0.0113863 3.29645e-21)
(0.0526749 0.0130002 1.00201e-22)
(0.0480548 0.0147861 -1.71394e-21)
(0.0428232 0.0166661 -1.85709e-21)
(0.0369369 0.0184745 1.91389e-21)
(0.0303953 0.0199086 1.48395e-24)
(0.0232691 0.0204641 -3.25671e-23)
(0.0157516 0.0193707 2.14518e-21)
(0.00837893 0.0154948 -2.07725e-21)
(0.00235873 0.00709607 -2.07772e-21)
(0.0946705 0.000660227 1.79814e-23)
(0.0944797 0.000694925 -9.12398e-24)
(0.0942794 0.000731962 1.9503e-26)
(0.094069 0.000771545 9.38665e-24)
(0.0938479 0.0008139 -1.96146e-26)
(0.0936154 0.000859275 1.5591e-22)
(0.0933705 0.000907947 -2.94603e-22)
(0.0931126 0.000960217 1.58326e-22)
(0.0928406 0.00101642 -1.01351e-23)
(0.0925535 0.00107693 1.87308e-22)
(0.0922502 0.00114214 -1.66609e-22)
(0.0919294 0.00121251 -3.45724e-22)
(0.0915898 0.00128853 6.98052e-22)
(0.09123 0.00137074 -7.11776e-22)
(0.0908483 0.00145978 7.26171e-22)
(0.0904429 0.00155632 -7.29782e-22)
(0.0900121 0.00166116 -3.86342e-22)
(0.0895535 0.00177522 2.2633e-26)
(0.0890648 0.00189955 0)
(0.0885435 0.00203538 -3.9767e-22)
(0.0879866 0.00218414 4.10154e-22)
(0.0873908 0.00234751 0)
(0.0867524 0.00252749 -8.85786e-22)
(0.0860672 0.00272643 8.71413e-22)
(0.0853305 0.00294713 1.44293e-23)
(0.084537 0.0031929 -3.7149e-26)
(0.0836805 0.00346765 1.52518e-23)
(0.0827538 0.00377603 0)
(0.081749 0.0041236 -5.30507e-26)
(0.0806566 0.00451697 0)
(0.079466 0.00496407 -1.73209e-23)
(0.0781646 0.00547448 1.17148e-21)
(0.076738 0.00605976 -1.17117e-21)
(0.0751697 0.00673392 -1.93781e-23)
(0.0734401 0.00751394 4.01214e-23)
(0.0715267 0.00842022 -1.38367e-21)
(0.0694034 0.00947691 1.34065e-21)
(0.0670395 0.0107117 2.27239e-23)
(0.0643998 0.0121545 -3.5874e-25)
(0.0614433 0.0138343 2.426e-23)
(0.0581227 0.0157721 -1.66691e-21)
(0.0543844 0.0179689 3.37047e-21)
(0.0501687 0.0203851 -1.75737e-21)
(0.0454107 0.0229085 1.819e-21)
(0.040044 0.0253086 -1.90428e-21)
(0.0340053 0.0271718 -3.7856e-21)
(0.027246 0.0278149 7.72309e-21)
(0.0197695 0.0261839 -3.90982e-21)
(0.0117502 0.0207624 0)
(0.00365923 0.009397 -3.67461e-21)
(0.0947057 0.00084491 -8.91851e-24)
(0.0945157 0.000889162 -3.64287e-23)
(0.0943165 0.000936385 1.10429e-22)
(0.0941073 0.000986849 -1.49103e-22)
(0.0938877 0.00104085 6.56681e-23)
(0.0936567 0.0010987 9.62901e-24)
(0.0934138 0.00116077 -9.78952e-24)
(0.0931579 0.00122743 -2.46581e-26)
(0.0928883 0.00129913 1.01332e-23)
(0.0926038 0.00137632 -2.06099e-23)
(0.0923034 0.00145953 -3.39125e-22)
(0.0919859 0.00154933 3.4999e-22)
(0.09165 0.00164635 -3.41827e-22)
(0.0912943 0.00175131 3.52862e-22)
(0.0909172 0.00186499 0)
(0.090517 0.00198826 -2.49574e-26)
(0.0900919 0.00212217 0)
(0.0896397 0.00226787 -3.81238e-22)
(0.0891583 0.00242674 4.0601e-22)
(0.088645 0.00260033 -1.27599e-23)
(0.0880972 0.00279048 -8.60192e-22)
(0.0875117 0.00299935 8.47494e-22)
(0.0868849 0.00322951 -1.37867e-23)
(0.086213 0.00348395 0)
(0.0854916 0.00376625 0)
(0.0847156 0.00408063 -9.88717e-22)
(0.0838795 0.00443207 9.58679e-22)
(0.0829766 0.00482648 0)
(0.0819999 0.00527089 -3.29047e-23)
(0.0809409 0.00577366 0)
(0.0797901 0.00634479 1.76249e-23)
(0.0785369 0.00699628 -1.81684e-23)
(0.077169 0.00774256 -1.89268e-23)
(0.0756725 0.00860103 1.95138e-23)
(0.0740319 0.00959262 1.28469e-21)
(0.0722297 0.0107423 -1.32593e-21)
(0.070246 0.0120792 2.88459e-21)
(0.0680589 0.0136365 -2.88645e-21)
(0.0656434 0.0154493 3.06655e-21)
(0.0629711 0.0175502 8.96483e-23)
(0.0600091 0.0199607 -3.23297e-21)
(0.0567173 0.022676 -2.58405e-23)
(0.053045 0.0256393 1.27812e-24)
(0.0489242 0.0287041 1.69558e-24)
(0.0442595 0.0315796 2.24227e-24)
(0.0389094 0.0337569 -5.59892e-23)
(0.0326655 0.0344061 -2.56808e-23)
(0.0252645 0.0322307 -2.43992e-23)
(0.0164093 0.0253471 0)
(0.00540942 0.0113238 7.65208e-24)
(0.0947493 0.00102667 -4.42572e-23)
(0.0945605 0.00108025 2.66223e-23)
(0.0943627 0.00113746 9.10789e-24)
(0.0941552 0.0011986 1.398e-22)
(0.0939375 0.00126405 -1.39853e-22)
(0.0937088 0.00133419 1.4467e-22)
(0.0934684 0.00140947 -3.21125e-22)
(0.0932153 0.00149034 4.57156e-22)
(0.0929488 0.00157735 -3.20213e-22)
(0.0926679 0.00167105 -3.32152e-22)
(0.0923715 0.00177209 -1.66614e-23)
(0.0920584 0.00188116 6.74474e-22)
(0.0917274 0.00199904 -7.10434e-22)
(0.0913772 0.00212659 3.31356e-22)
(0.0910062 0.00226476 3.57588e-22)
(0.0906128 0.00241466 3.73819e-22)
(0.0901953 0.00257752 -2.87909e-23)
(0.0897517 0.00275479 7.61879e-22)
(0.0892799 0.00294815 7.86803e-22)
(0.0887774 0.00315949 1.98958e-23)
(0.0882418 0.00339108 -8.34161e-22)
(0.08767 0.00364556 0)
(0.0870588 0.00392607 0)
(0.0864048 0.00423627 -9.30095e-22)
(0.0857038 0.00458052 9.16736e-22)
(0.0849514 0.00496394 9.87752e-22)
(0.0841426 0.0053926 -9.89215e-22)
(0.0832718 0.00587364 0)
(0.0823327 0.00641554 1.10489e-21)
(0.0813182 0.00702834 -1.10702e-21)
(0.0802205 0.007724 0)
(0.0790311 0.00851676 -2.39746e-21)
(0.0777405 0.00942364 2.41966e-21)
(0.0763385 0.0104649 -2.00062e-23)
(0.0748141 0.0116647 -2.67762e-21)
(0.073156 0.0130514 2.70247e-21)
(0.0713526 0.0146573 0)
(0.069392 0.0165181 3.03734e-21)
(0.0672624 0.0186701 -3.01861e-21)
(0.0649513 0.0211443 2.44785e-23)
(0.0624435 0.0239556 3.33584e-21)
(0.0597167 0.0270849 -6.69405e-21)
(0.056733 0.0304501 1.81627e-23)
(0.0534247 0.0338644 3.64762e-23)
(0.0496686 0.0369791 3.47514e-21)
(0.0452423 0.0392101 3.88173e-24)
(0.0397598 0.0396312 -2.98022e-21)
(0.0326171 0.036804 3.05516e-21)
(0.0228077 0.0286402 0)
(0.00786356 0.0125812 2.70218e-23)
(0.0948011 0.0012047 8.71666e-24)
(0.094614 0.0012671 8.02962e-23)
(0.0944183 0.0013338 -7.16071e-23)
(0.0942132 0.00140515 9.19135e-24)
(0.0939981 0.00148159 1.41276e-22)
(0.0937724 0.00156357 -1.41501e-22)
(0.0935354 0.00165161 -3.03118e-22)
(0.0932861 0.00174625 4.55041e-24)
(0.0930238 0.00184812 -5.61901e-24)
(0.0927475 0.00195791 3.36616e-22)
(0.0924562 0.00207634 -3.28771e-22)
(0.0921489 0.00220427 6.97634e-22)
(0.0918244 0.0023426 -3.47611e-22)
(0.0914813 0.00249236 1.12355e-23)
(0.0911183 0.00265471 1.14975e-23)
(0.0907339 0.00283093 7.60519e-22)
(0.0903264 0.00302252 -4.9676e-24)
(0.089894 0.00323122 7.93871e-22)
(0.0894348 0.00345902 1.26888e-23)
(0.0889465 0.0037082 0)
(0.0884269 0.00398148 0)
(0.0878733 0.00428202 -8.91056e-22)
(0.0872828 0.00461356 8.93308e-22)
(0.0866524 0.00498051 0)
(0.0859786 0.00538804 1.5032e-23)
(0.0852575 0.00584229 0)
(0.0844851 0.00635043 -1.03838e-21)
(0.0836566 0.00692097 2.11422e-21)
(0.0827672 0.00756391 -1.07592e-21)
(0.0818115 0.00829108 -2.28094e-21)
(0.0807836 0.00911648 -7.70175e-23)
(0.0796777 0.0100567 -8.13433e-23)
(0.0784875 0.0111312 -8.55898e-23)
(0.0772071 0.0123632 2.56619e-21)
(0.0758309 0.0137794 2.75503e-21)
(0.0743545 0.0154106 -2.76158e-21)
(0.0727752 0.0172906 0)
(0.0710923 0.0194545 3.05951e-21)
(0.069308 0.0219342 -3.06662e-21)
(0.0674267 0.0247505 -3.25928e-21)
(0.0654524 0.0278985 3.24133e-21)
(0.0633827 0.0313266 2.65145e-23)
(0.0611966 0.0349038 3.26125e-21)
(0.0588333 0.0383771 -1.06508e-22)
(0.0561559 0.0413183 -3.22193e-21)
(0.0528869 0.0430702 2.45825e-23)
(0.0485148 0.0426799 0)
(0.0421793 0.0387685 -1.95132e-23)
(0.0320071 0.0294569 -9.05197e-22)
(0.0126774 0.0125212 4.36787e-22)
(-0.000246213 0.000321866 0)
(-0.00102142 0.000573678 3.14617e-22)
(-0.002091 0.000582471 -3.15089e-22)
(-0.00304852 0.000456913 -3.09798e-22)
(-0.00369329 0.00025837 3.10264e-22)
(-0.00393575 2.44998e-05 -9.39311e-24)
(-0.00374605 -0.000222961 0)
(-0.00312453 -0.000467735 0)
(-0.00207772 -0.000700483 0)
(-0.000628883 -0.000915458 0)
(0.00118902 -0.00110932 0)
(0.00333861 -0.00128051 0)
(0.00578043 -0.00142828 0)
(0.00847397 -0.00155257 0)
(0.0113787 -0.0016539 0)
(0.0144551 -0.00173315 6.64238e-23)
(0.017665 -0.00179151 -6.25977e-23)
(0.0209723 -0.00183036 0)
(0.0243432 -0.00185126 0)
(0.0277466 -0.00185582 -3.63117e-23)
(0.031154 -0.00184573 3.63672e-23)
(0.03454 -0.00182269 -2.28292e-23)
(0.0378817 -0.00178837 1.39607e-24)
(0.0411594 -0.00174437 0)
(0.0443561 -0.00169226 8.39731e-25)
(0.0474575 -0.00163353 0)
(0.0504518 -0.00156959 0)
(0.0533298 -0.00150171 0)
(0.0560847 -0.00143107 1.13286e-25)
(0.0587115 -0.00135874 0)
(0.0612071 -0.00128565 9.52185e-26)
(0.0635703 -0.00121265 -1.69861e-25)
(0.0658012 -0.00114046 2.28053e-25)
(0.0679014 -0.00106971 -2.64101e-24)
(0.0698733 -0.00100092 2.67663e-24)
(0.0717206 -0.000934507 2.38539e-24)
(0.0734475 -0.000870809 -5.16077e-24)
(0.0750589 -0.00081008 2.78883e-24)
(0.0765601 -0.0007525 3.46297e-25)
(0.0779569 -0.000698179 -3.42585e-25)
(0.079255 -0.00064717 0)
(0.0804605 -0.000599474 -3.25483e-25)
(0.0815793 -0.000555046 1.55298e-24)
(0.0826174 -0.000513806 -1.54164e-24)
(0.0835804 -0.000475644 2.86116e-25)
(0.0844739 -0.000440425 -8.03067e-25)
(0.0853032 -0.000407997 2.7625e-25)
(0.0860734 -0.000378197 4.76712e-25)
(0.0867891 -0.000350849 -2.3582e-25)
(0.0874547 -0.000325775 2.11838e-25)
(-0.00031179 0.000925318 -1.202e-21)
(-0.00111755 0.00163774 -1.3096e-21)
(-0.00205817 0.00165819 1.29079e-21)
(-0.00282728 0.00129027 -6.11042e-22)
(-0.00327312 0.000709574 6.12291e-22)
(-0.00332976 2.66122e-05 9.45825e-24)
(-0.00297661 -0.000700575 -1.8532e-23)
(-0.00221678 -0.00141867 -5.65478e-22)
(-0.00105959 -0.00210256 5.48461e-22)
(0.000472878 -0.00273493 -1.58649e-23)
(0.00234953 -0.00330646 -1.48135e-23)
(0.00453554 -0.00381208 4.1521e-22)
(0.00699447 -0.0042492 -4.15762e-22)
(0.00968858 -0.00461748 -3.42543e-22)
(0.01258 -0.00491823 3.62941e-23)
(0.0156314 -0.00515392 3.07114e-22)
(0.0188071 -0.00532792 -3.94637e-24)
(0.0220728 -0.00544423 -7.0852e-24)
(0.0253965 -0.00550732 0)
(0.0287485 -0.00552193 0)
(0.0321019 -0.00549303 0)
(0.035432 -0.00542557 -1.73544e-24)
(0.0387173 -0.00532448 7.73204e-23)
(0.0419387 -0.0051945 -8.41315e-23)
(0.0450799 -0.00504027 4.70801e-23)
(0.0481271 -0.00486625 -3.08501e-23)
(0.0510691 -0.00467659 -2.84548e-23)
(0.053897 -0.00447512 1.13101e-23)
(0.0566041 -0.00426533 -1.13577e-25)
(0.0591857 -0.0040504 -7.58101e-26)
(0.0616389 -0.00383314 -9.54261e-26)
(0.0639625 -0.00361606 4.46179e-25)
(0.0661565 -0.00340133 -7.54439e-24)
(0.0682226 -0.00319081 1.69576e-23)
(0.0701632 -0.00298605 -8.71422e-24)
(0.0719817 -0.00278833 9.36601e-25)
(0.0736824 -0.00259864 -3.39475e-25)
(0.07527 -0.00241776 0)
(0.0767496 -0.00224622 5.7493e-24)
(0.0781269 -0.00208436 -5.09768e-24)
(0.0794076 -0.00193233 -4.57531e-24)
(0.0805974 -0.00179015 6.1836e-24)
(0.0817022 -0.00165769 -3.13537e-25)
(0.0827278 -0.00153471 -1.43758e-24)
(0.0836796 -0.00142088 2.5941e-24)
(0.0845632 -0.00131582 2.71107e-25)
(0.0853837 -0.00121907 1.74076e-24)
(0.0861461 -0.00113013 1.69156e-25)
(0.0868548 -0.00104851 -4.93446e-25)
(0.0875143 -0.000973637 -6.46049e-25)
(-0.000427512 0.00141174 -1.25856e-21)
(-0.00126976 0.00245574 1.37161e-21)
(-0.00194032 0.0024757 -1.33062e-21)
(-0.00233988 0.00189102 -2.0464e-23)
(-0.00240036 0.000971724 -5.02815e-25)
(-0.00210418 -0.000111195 -1.21556e-21)
(-0.0014429 -0.00126829 1.25547e-21)
(-0.000420594 -0.00241054 1.14945e-21)
(0.000943155 -0.00350187 -4.50416e-23)
(0.00263035 -0.00451615 -2.05874e-21)
(0.00461368 -0.00543703 1.95332e-21)
(0.00686424 -0.00625445 -9.20258e-22)
(0.00935126 -0.00696343 -1.31148e-23)
(0.0120423 -0.0075628 0)
(0.0149043 -0.00805402 6.50278e-22)
(0.0179049 -0.00844059 -8.15316e-23)
(0.0210122 -0.00872748 -5.60213e-22)
(0.0241959 -0.00892082 1.46424e-23)
(0.0274272 -0.00902756 0)
(0.0306793 -0.0090552 0)
(0.0339277 -0.00901158 1.329e-22)
(0.0371501 -0.0089047 -1.291e-22)
(0.0403265 -0.00874243 -8.54736e-23)
(0.0434395 -0.00853254 9.08969e-23)
(0.0464739 -0.00828249 2.03273e-24)
(0.0494171 -0.0079996 -1.54542e-24)
(0.0522586 -0.00769066 1.12399e-24)
(0.0549902 -0.00736195 -1.59367e-23)
(0.0576057 -0.00701923 1.67163e-23)
(0.0601006 -0.0066677 -6.14664e-25)
(0.0624724 -0.00631204 8.97141e-25)
(0.0647198 -0.00595638 -2.7707e-25)
(0.0668431 -0.00560432 -1.32393e-23)
(0.0688438 -0.00525894 2.86219e-23)
(0.0707241 -0.00492282 -1.64529e-23)
(0.0724874 -0.00459808 -1.02204e-23)
(0.0741376 -0.00428641 9.03657e-24)
(0.0756793 -0.00398906 0)
(0.0771175 -0.00370696 -4.93808e-26)
(0.0784573 -0.00344068 0)
(0.0797043 -0.0031905 -9.99841e-24)
(0.0808638 -0.00295644 9.33906e-24)
(0.0819416 -0.00273831 -5.7545e-25)
(0.0829429 -0.00253573 -2.85381e-26)
(0.0838732 -0.00234819 -4.27568e-24)
(0.0847376 -0.00217504 7.7798e-24)
(0.0855411 -0.00201554 -4.05442e-24)
(0.0862882 -0.00186889 1.77206e-24)
(0.0869835 -0.00173424 -1.37646e-24)
(0.087631 -0.00161068 -4.4316e-25)
(-0.000559857 0.0016816 -2.74852e-21)
(-0.00138296 0.00289204 0)
(-0.00161793 0.00289653 2.80775e-21)
(-0.00148743 0.0021329 -5.59164e-21)
(-0.00100824 0.000944813 2.80454e-21)
(-0.000223828 -0.000460953 1.25396e-21)
(0.000859238 -0.00195555 -1.31595e-21)
(0.00223562 -0.00344696 1.18488e-21)
(0.00387192 -0.0048833 -2.3245e-21)
(0.00575797 -0.00622682 1.12179e-21)
(0.00787589 -0.00745309 1.61944e-23)
(0.010204 -0.00854719 5.19658e-25)
(0.0127187 -0.00950116 1.334e-23)
(0.0153951 -0.010312 -7.66259e-22)
(0.0182072 -0.0109802 7.42923e-22)
(0.0211289 -0.0115095 2.00795e-23)
(0.0241342 -0.0119056 -8.67113e-24)
(0.0271978 -0.0121759 4.66543e-22)
(0.0302956 -0.0123291 -4.66263e-22)
(0.0334045 -0.012375 -6.04514e-24)
(0.0365034 -0.0123236 0)
(0.0395729 -0.0121855 3.56832e-25)
(0.0425954 -0.0119714 0)
(0.0455555 -0.0116914 2.92411e-24)
(0.0484397 -0.0113558 2.8194e-25)
(0.0512368 -0.0109744 1.56003e-24)
(0.0539373 -0.0105565 -6.83002e-23)
(0.0565338 -0.0101107 6.7405e-23)
(0.0590208 -0.00964499 0)
(0.0613943 -0.00916646 -5.40585e-24)
(0.0636519 -0.00868159 5.74062e-24)
(0.0657927 -0.00819611 0)
(0.0678167 -0.007715 -1.29516e-25)
(0.0697255 -0.00724256 1.32907e-23)
(0.0715211 -0.00678239 -2.84456e-23)
(0.0732068 -0.00633746 3.19962e-23)
(0.0747861 -0.00591012 -3.46354e-23)
(0.0762632 -0.00550218 3.64388e-23)
(0.0776429 -0.00511492 -1.86067e-23)
(0.0789298 -0.00474918 -9.3827e-24)
(0.0801291 -0.00440538 8.2253e-24)
(0.0812458 -0.00408359 5.44977e-25)
(0.0822852 -0.00378357 8.78137e-24)
(0.0832523 -0.00350484 -1.8206e-23)
(0.084152 -0.00324668 8.36579e-24)
(0.0849891 -0.00300824 3.1352e-26)
(0.0857682 -0.00278852 -4.76254e-25)
(0.0864938 -0.00258643 -2.52964e-26)
(0.0871698 -0.0024008 4.2208e-25)
(0.0878001 -0.00223032 -7.7022e-25)
(-0.000600147 0.001656 -1.95508e-24)
(-0.00123608 0.00286806 -2.58456e-23)
(-0.000891236 0.00283035 -2.48833e-23)
(-0.000101651 0.00194653 -2.39783e-23)
(0.00102278 0.000593045 -4.54254e-23)
(0.00238651 -0.00102964 -7.0889e-25)
(0.00395157 -0.00276195 2.07325e-23)
(0.00571115 -0.00451283 -2.04334e-23)
(0.00764474 -0.00621353 -1.9414e-23)
(0.00974367 -0.00781708 2.21613e-21)