/*--------------------------------*- C++ -*----------------------------------*\
| =========                 |                                                 |
| \\      /  F ield         | OpenFOAM: The Open Source CFD Toolbox           |
|  \\    /   O peration     | Version:  2412                                  |
|   \\  /    A nd           | Website:  www.openfoam.com                      |
|    \\/     M anipulation  |                                                 |
\*---------------------------------------------------------------------------*/
FoamFile
{
    version     2.0;
    format      ascii;
    arch        "LSB;label=32;scalar=64";
    class       volVectorField;
    location    "16";
    object      vorticity;
}
// * * * * * * * * * * * * * * * * * * * * * * * * * * * * * * * * * * * * * //

dimensions      [0 0 -1 0 0 0 0];

internalField   nonuniform List<vector> 
63420
(
(0 0 5.88529e-06)
(0 0 5.78472e-06)
(0 0 5.6707e-06)
(0 0 6.20546e-06)
(0 0 8.28572e-06)
(0 0 1.20541e-05)
(0 0 1.62627e-05)
(0 0 1.87122e-05)
(0 0 1.74675e-05)
(0 0 1.1932e-05)
(0 0 3.10808e-06)
(0 0 -6.96003e-06)
(0 0 -1.60911e-05)
(0 0 -2.27079e-05)
(0 0 -2.61545e-05)
(0 0 -2.66122e-05)
(0 0 -2.47909e-05)
(0 0 -2.15852e-05)
(0 0 -1.78162e-05)
(0 0 -1.40958e-05)
(0 0 -1.07966e-05)
(0 0 -8.08615e-06)
(0 0 -5.98734e-06)
(0 0 -4.4389e-06)
(0 0 -3.34251e-06)
(0 0 -2.59381e-06)
(0 0 -2.09923e-06)
(0 0 -1.78284e-06)
(0 0 -1.58707e-06)
(0 0 -1.4705e-06)
(0 0 -1.4045e-06)
(0 0 -1.36992e-06)
(0 0 -1.35432e-06)
(0 0 -1.34978e-06)
(0 0 -1.35136e-06)
(0 0 -1.35603e-06)
(0 0 -1.36196e-06)
(0 0 -1.36804e-06)
(0 0 -1.3736e-06)
(0 0 -1.37824e-06)
(0 0 -1.38169e-06)
(0 0 -1.38378e-06)
(0 0 -1.3844e-06)
(0 0 -1.38346e-06)
(0 0 -1.38087e-06)
(0 0 -1.37651e-06)
(0 0 -1.37023e-06)
(0 0 -1.36159e-06)
(0 0 -1.34919e-06)
(0 0 -1.32827e-06)
(0 0 -1.2824e-06)
(0 0 -1.1564e-06)
(0 0 -7.71106e-07)
(0 0 4.36624e-07)
(0 4.52486e-23 4.17654e-06)
(0 0 1.76543e-05)
(0 0 1.73563e-05)
(0 0 1.70161e-05)
(0 0 1.86066e-05)
(0 0 2.4806e-05)
(0 0 3.60536e-05)
(0 0 4.86456e-05)
(0 0 5.60333e-05)
(0 0 5.24393e-05)
(0 0 3.6062e-05)
(0 0 9.86188e-06)
(0 0 -2.00894e-05)
(0 0 -4.72993e-05)
(0 0 -6.70627e-05)
(0 0 -7.74123e-05)
(0 0 -7.88726e-05)
(0 0 -7.35444e-05)
(0 0 -6.40832e-05)
(0 0 -5.29296e-05)
(0 0 -4.19051e-05)
(0 0 -3.21204e-05)
(0 0 -2.40766e-05)
(0 0 -1.7845e-05)
(0 0 -1.32455e-05)
(0 0 -9.98777e-06)
(0 0 -7.76259e-06)
(0 0 -6.29264e-06)
(0 0 -5.35262e-06)
(0 0 -4.77169e-06)
(0 0 -4.4268e-06)
(0 0 -4.23285e-06)
(0 0 -4.13288e-06)
(0 0 -4.08981e-06)
(0 0 -4.08009e-06)
(0 0 -4.08899e-06)
(0 0 -4.10749e-06)
(0 0 -4.13008e-06)
(0 0 -4.15343e-06)
(0 0 -4.17553e-06)
(0 0 -4.19515e-06)
(0 0 -4.21153e-06)
(0 0 -4.22417e-06)
(0 0 -4.23267e-06)
(0 0 -4.23673e-06)
(0 0 -4.23606e-06)
(0 0 -4.23037e-06)
(0 0 -4.21912e-06)
(0 0 -4.20106e-06)
(0 0 -4.17215e-06)
(0 0 -4.11855e-06)
(0 0 -3.9927e-06)
(0 0 -3.63466e-06)
(0 0 -2.52411e-06)
(0 0 9.7743e-07)
(0 4.57149e-23 1.18534e-05)
(0 0 2.94106e-05)
(0 0 2.89202e-05)
(0 0 2.83549e-05)
(0 0 3.09684e-05)
(0 0 4.12015e-05)
(0 0 5.98287e-05)
(0 0 8.07882e-05)
(0 0 9.32872e-05)
(0 0 8.77498e-05)
(0 0 6.11207e-05)
(0 0 1.81973e-05)
(0 0 -3.10617e-05)
(0 0 -7.59599e-05)
(0 0 -0.000108712)
(0 0 -0.000126027)
(0 0 -0.00012872)
(0 0 -0.000120214)
(0 0 -0.000104861)
(0 0 -8.66731e-05)
(0 0 -6.86515e-05)
(0 0 -5.26321e-05)
(0 0 -3.94489e-05)
(0 0 -2.92274e-05)
(0 0 -2.16781e-05)
(0 0 -1.6328e-05)
(0 0 -1.2672e-05)
(0 0 -1.02557e-05)
(0 0 -8.71002e-06)
(0 0 -7.7545e-06)
(0 0 -7.18716e-06)
(0 0 -6.86817e-06)
(0 0 -6.70396e-06)
(0 0 -6.63357e-06)
(0 0 -6.61823e-06)
(0 0 -6.63374e-06)
(0 0 -6.6652e-06)
(0 0 -6.70356e-06)
(0 0 -6.74333e-06)
(0 0 -6.7812e-06)
(0 0 -6.81518e-06)
(0 0 -6.84397e-06)
(0 0 -6.86671e-06)
(0 0 -6.88277e-06)
(0 0 -6.89167e-06)
(0 0 -6.89295e-06)
(0 0 -6.88609e-06)
(0 0 -6.87024e-06)
(0 0 -6.84341e-06)
(0 0 -6.79933e-06)
(0 0 -6.7166e-06)
(0 0 -6.52148e-06)
(0 0 -5.96577e-06)
(0 0 -4.23899e-06)
(0 0 1.22135e-06)
(0 2.69799e-22 1.82404e-05)
(0 0 4.11459e-05)
(0 0 4.04708e-05)
(0 0 3.96824e-05)
(0 0 4.3266e-05)
(0 0 5.73952e-05)
(0 0 8.32401e-05)
(0 0 0.000112539)
(0 0 0.000130424)
(0 0 0.000123592)
(0 0 8.76571e-05)
(0 0 2.90596e-05)
(0 0 -3.85805e-05)
(0 0 -0.000100537)
(0 0 -0.000146021)
(0 0 -0.000170399)
(0 0 -0.000174692)
(0 0 -0.000163536)
(0 0 -0.000142875)
(0 0 -0.000118215)
(0 0 -9.36901e-05)
(0 0 -7.18395e-05)
(0 0 -5.38288e-05)
(0 0 -3.98474e-05)
(0 0 -2.95112e-05)
(0 0 -2.218e-05)
(0 0 -1.71664e-05)
(0 0 -1.38507e-05)
(0 0 -1.17281e-05)
(0 0 -1.0415e-05)
(0 0 -9.63456e-06)
(0 0 -9.19523e-06)
(0 0 -8.96861e-06)
(0 0 -8.87106e-06)
(0 0 -8.84935e-06)
(0 0 -8.87021e-06)
(0 0 -8.91319e-06)
(0 0 -8.96583e-06)
(0 0 -9.02061e-06)
(0 0 -9.07298e-06)
(0 0 -9.12015e-06)
(0 0 -9.16036e-06)
(0 0 -9.19245e-06)
(0 0 -9.21555e-06)
(0 0 -9.22898e-06)
(0 0 -9.2321e-06)
(0 0 -9.22421e-06)
(0 0 -9.2042e-06)
(0 0 -9.16951e-06)
(0 0 -9.11229e-06)
(0 0 -9.0058e-06)
(0 0 -8.75821e-06)
(0 0 -8.05966e-06)
(0 0 -5.89311e-06)
(0 0 9.80064e-07)
(0 -1.77139e-22 2.25249e-05)
(0 0 5.28523e-05)
(0 0 5.20025e-05)
(0 0 5.09936e-05)
(0 0 5.54774e-05)
(0 0 7.33187e-05)
(0 0 0.000106164)
(0 0 0.000143759)
(0 0 0.000167386)
(0 0 0.000160113)
(0 0 0.000116123)
(0 0 4.32422e-05)
(0 0 -4.1548e-05)
(0 0 -0.000119723)
(0 0 -0.000177593)
(0 0 -0.000209158)
(0 0 -0.000215534)
(0 0 -0.000202424)
(0 0 -0.000177228)
(0 0 -0.000146842)
(0 0 -0.000116467)
(0 0 -8.9321e-05)
(0 0 -6.68968e-05)
(0 0 -4.94608e-05)
(0 0 -3.6554e-05)
(0 0 -2.73894e-05)
(0 0 -2.11159e-05)
(0 0 -1.6963e-05)
(0 0 -1.43018e-05)
(0 0 -1.26537e-05)
(0 0 -1.16727e-05)
(0 0 -1.11193e-05)
(0 0 -1.08327e-05)
(0 0 -1.07082e-05)
(0 0 -1.06791e-05)
(0 0 -1.07037e-05)
(0 0 -1.07563e-05)
(0 0 -1.08213e-05)
(0 0 -1.08892e-05)
(0 0 -1.09544e-05)
(0 0 -1.10132e-05)
(0 0 -1.10637e-05)
(0 0 -1.11041e-05)
(0 0 -1.11336e-05)
(0 0 -1.11511e-05)
(0 0 -1.1156e-05)
(0 0 -1.11474e-05)
(0 0 -1.11239e-05)
(0 0 -1.10826e-05)
(0 0 -1.10149e-05)
(0 0 -1.08916e-05)
(0 0 -1.0613e-05)
(0 0 -9.84314e-06)
(0 0 -7.47257e-06)
(0 0 7.15256e-08)
(0 8.7448e-23 2.39484e-05)
(0 0 6.45233e-05)
(0 0 6.35087e-05)
(0 0 6.22827e-05)
(0 0 6.75832e-05)
(0 0 8.89151e-05)
(0 0 0.000128494)
(0 0 0.000174324)
(0 0 0.000204107)
(0 0 0.000197403)
(0 0 0.000146844)
(0 0 6.13391e-05)
(0 0 -3.91263e-05)
(0 0 -0.000132508)
(0 0 -0.000202342)
(0 0 -0.000241234)
(0 0 -0.000250263)
(0 0 -0.000236025)
(0 0 -0.000207215)
(0 0 -0.000171991)
(0 0 -0.000136549)
(0 0 -0.000104747)
(0 0 -7.84039e-05)
(0 0 -5.7879e-05)
(0 0 -4.26605e-05)
(0 0 -3.18396e-05)
(0 0 -2.4423e-05)
(0 0 -1.95077e-05)
(0 0 -1.63539e-05)
(0 0 -1.43978e-05)
(0 0 -1.32314e-05)
(0 0 -1.25713e-05)
(0 0 -1.22278e-05)
(0 0 -1.20767e-05)
(0 0 -1.2039e-05)
(0 0 -1.20654e-05)
(0 0 -1.21253e-05)
(0 0 -1.22003e-05)
(0 0 -1.22792e-05)
(0 0 -1.23552e-05)
(0 0 -1.2424e-05)
(0 0 -1.24832e-05)
(0 0 -1.25309e-05)
(0 0 -1.25659e-05)
(0 0 -1.25871e-05)
(0 0 -1.25937e-05)
(0 0 -1.25846e-05)
(0 0 -1.25584e-05)
(0 0 -1.2512e-05)
(0 0 -1.24368e-05)
(0 0 -1.23042e-05)
(0 0 -1.20182e-05)
(0 0 -1.12576e-05)
(0 0 -8.96298e-06)
(0 0 -1.67357e-06)
(0 4.3148e-22 2.17698e-05)
(0 0 7.61498e-05)
(0 0 7.49818e-05)
(0 0 7.35434e-05)
(0 0 7.95679e-05)
(0 0 0.000104141)
(0 0 0.00015015)
(0 0 0.000204131)
(0 0 0.000240513)
(0 0 0.000235482)
(0 0 0.000179998)
(0 0 8.3715e-05)
(0 0 -3.07781e-05)
(0 0 -0.000138229)
(0 0 -0.000219543)
(0 0 -0.000265904)
(0 0 -0.00027821)
(0 0 -0.000263758)
(0 0 -0.000232353)
(0 0 -0.000193279)
(0 0 -0.000153638)
(0 0 -0.000117893)
(0 0 -8.81836e-05)
(0 0 -6.49775e-05)
(0 0 -4.77368e-05)
(0 0 -3.54572e-05)
(0 0 -2.70283e-05)
(0 0 -2.14339e-05)
(0 0 -1.7839e-05)
(0 0 -1.56054e-05)
(0 0 -1.42702e-05)
(0 0 -1.3512e-05)
(0 0 -1.31147e-05)
(0 0 -1.29373e-05)
(0 0 -1.28898e-05)
(0 0 -1.29157e-05)
(0 0 -1.29805e-05)
(0 0 -1.30629e-05)
(0 0 -1.31501e-05)
(0 0 -1.32345e-05)
(0 0 -1.33113e-05)
(0 0 -1.33774e-05)
(0 0 -1.3431e-05)
(0 0 -1.34705e-05)
(0 0 -1.34948e-05)
(0 0 -1.35028e-05)
(0 0 -1.34935e-05)
(0 0 -1.34653e-05)
(0 0 -1.34153e-05)
(0 0 -1.33353e-05)
(0 0 -1.32002e-05)
(0 0 -1.29279e-05)
(0 0 -1.22529e-05)
(0 0 -1.03257e-05)
(0 0 -4.39415e-06)
(0 -8.44183e-23 1.51373e-05)
(-1.64018e-23 7.96675e-21 2.35933e-06)
(-1.47329e-22 7.83332e-21 1.79941e-06)
(3.34502e-23 -1.97336e-22 1.03489e-06)
(3.6335e-23 -2.33913e-20 2.24202e-08)
(-9.25585e-23 7.99281e-21 -1.27825e-06)
(3.64375e-22 7.85122e-21 -2.90487e-06)
(-7.94272e-22 2.28893e-20 -4.89262e-06)
(3.10997e-22 -2.32605e-20 -7.27789e-06)
(6.27011e-22 -7.48402e-21 -1.0101e-05)
(-8.97351e-22 -3.71281e-24 -1.34077e-05)
(-8.97623e-22 -7.50115e-21 -1.72496e-05)
(7.86372e-22 7.12442e-21 -2.16837e-05)
(5.62351e-22 -5.87166e-20 -2.6772e-05)
(-1.03637e-21 1.26072e-19 -3.25783e-05)
(3.54597e-22 -6.78348e-20 -3.91616e-05)
(-1.23261e-21 -5.1151e-20 -4.6562e-05)
(2.35351e-21 -6.51313e-20 -5.48009e-05)
(-1.85071e-21 7.67912e-21 -6.38933e-05)
(-1.90002e-22 -7.1637e-21 -7.38638e-05)
(7.37163e-23 7.16982e-21 -8.47014e-05)
(-3.13767e-24 -1.28335e-22 -9.63665e-05)
(-6.88549e-23 -6.91752e-21 -0.000108811)
(-2.00357e-21 6.97936e-21 -0.000121991)
(4.19419e-21 1.2882e-23 -0.000135875)
(1.22554e-21 6.77871e-21 -0.000150465)
(-3.2676e-21 -5.30684e-24 -0.000165811)
(4.70403e-21 7.88003e-21 -0.000182038)
(-5.49405e-21 1.02241e-19 -0.00019936)
(6.62159e-22 -1.09793e-19 -0.000218117)
(-2.10416e-21 1.00357e-19 -0.000238796)
(2.04921e-21 -1.01498e-19 -0.000262092)
(4.83802e-23 1.33782e-21 -0.000288993)
(-6.29961e-23 -1.64305e-21 -0.000320948)
(2.7411e-21 -9.62038e-20 -0.000360168)
(-8.60986e-21 9.33696e-20 -0.000410204)
(-3.16465e-22 -1.54443e-21 -0.000476957)
(6.19259e-21 1.35438e-23 -0.00057047)
(6.73578e-21 1.47318e-23 -0.000707921)
(-6.71423e-21 -1.46847e-23 -0.000918439)
(-2.2271e-22 -4.87089e-25 -0.00125042)
(-2.32302e-22 -5.08067e-25 -0.00178197)
(-8.00029e-21 -1.74974e-23 -0.00263444)
(7.72231e-21 1.68895e-23 -0.00398814)
(-2.55164e-22 1.51883e-22 -0.00609691)
(-3.04918e-23 7.86368e-21 -0.00929573)
(-2.47488e-20 5.09301e-20 -0.0139923)
(2.38368e-20 -6.71098e-20 -0.0206296)
(-5.59043e-21 -9.56642e-21 -0.029604)
(6.14551e-21 2.60945e-20 -0.0411341)
(-2.04535e-20 -5.71017e-21 -0.0549954)
(-2.57824e-22 7.97931e-21 6.72521e-06)
(-1.02549e-22 1.56966e-20 4.97839e-06)
(3.05713e-22 7.63526e-21 2.56756e-06)
(-8.72877e-22 -7.84655e-21 -6.37625e-07)
(1.62047e-21 7.48419e-21 -4.75304e-06)
(-5.06978e-22 -5.36163e-20 -9.88278e-06)
(-2.06236e-22 8.51453e-20 -1.61281e-05)
(-5.76721e-23 -8.87477e-21 -2.35964e-05)
(2.15905e-21 -9.80693e-20 -3.24084e-05)
(-2.2382e-21 1.38479e-19 -4.27026e-05)
(-8.0718e-22 1.26539e-19 -5.46369e-05)
(5.93025e-22 -1.13853e-19 -6.83879e-05)
(-3.92207e-22 7.35524e-22 -8.41466e-05)
(2.79673e-21 -7.25174e-21 -0.000102112)
(-2.17443e-21 2.4126e-20 -0.00012247)
(-5.91431e-21 2.396e-19 -0.000145354)
(1.5783e-21 -2.25353e-19 -0.000170825)
(-5.52828e-21 2.41512e-19 -0.000198961)
(-2.90291e-22 1.95435e-20 -0.00022985)
(-3.8308e-21 -7.32867e-21 -0.000263493)
(4.04822e-21 1.44816e-22 -0.00029979)
(-4.05888e-21 9.11041e-21 -0.000338618)
(1.08927e-21 2.09926e-19 -0.000379875)
(5.75557e-21 -4.44589e-19 -0.000423508)
(4.40819e-21 -2.12455e-19 -0.000469558)
(-6.82223e-21 4.30074e-19 -0.000518225)
(3.44008e-21 -4.29059e-19 -0.000569924)
(-1.7652e-21 4.40255e-19 -0.000625358)
(3.28052e-21 1.45067e-21 -0.000685596)
(-3.71215e-21 -9.72749e-23 -0.000752171)
(-1.24726e-21 -2.72789e-24 -0.00082724)
(0 0 -0.000913855)
(1.84407e-22 9.57067e-23 -0.00101646)
(1.10297e-20 1.23508e-20 -0.00114184)
(-1.54661e-20 3.6053e-19 -0.00130081)
(-1.57458e-20 -2.40682e-20 -0.00151137)
(1.8303e-20 -3.55796e-19 -0.00180408)
(2.62841e-20 -3.07726e-19 -0.00223117)
(-9.0965e-21 3.28746e-19 -0.00288113)
(-3.11697e-20 2.18407e-21 -0.00390091)
(3.0471e-20 1.737e-20 -0.00552732)
(-4.19541e-20 2.35041e-19 -0.00812798)
(2.25841e-20 -2.44491e-19 -0.0122483)
(-1.80558e-20 1.47075e-20 -0.0186554)
(2.0022e-20 7.75455e-21 -0.0283606)
(-6.00136e-20 1.13942e-19 -0.0425939)
(5.99428e-20 -1.11525e-19 -0.0626874)
(-9.2417e-20 8.34121e-20 -0.0898142)
(8.91821e-20 -9.31254e-20 -0.12456)
(-1.88789e-20 -6.40178e-22 -0.164862)
(-3.1777e-23 4.7268e-20 1.07541e-05)
(-8.32889e-23 1.49438e-20 7.60704e-06)
(3.66178e-22 -6.1916e-20 3.1769e-06)
(-7.74124e-22 1.23193e-19 -2.74287e-06)
(1.71142e-21 -2.63753e-19 -1.03205e-05)
(4.19837e-22 1.25434e-19 -1.97064e-05)
(-2.45235e-21 -8.7176e-22 -3.10549e-05)
(1.56239e-21 -1.70579e-20 -4.45393e-05)
(1.40856e-21 -2.57468e-19 -6.03629e-05)
(8.18119e-22 2.45356e-19 -7.87647e-05)
(-8.59633e-22 -1.63102e-21 -0.000100021)
(-4.22155e-21 -1.5752e-23 -0.000124443)
(6.6987e-21 -1.85506e-21 -0.000152371)
(-4.05313e-21 -2.5127e-19 -0.000184163)
(5.25616e-21 2.28389e-19 -0.000220162)
(-1.13033e-20 4.53856e-19 -0.000260623)
(-4.87186e-21 -1.21477e-20 -0.000305699)
(-4.56955e-21 4.67043e-19 -0.000355564)
(4.0611e-22 -1.41794e-20 -0.000410434)
(-1.22374e-20 4.5372e-19 -0.000470392)
(1.21488e-20 -4.71235e-19 -0.000535347)
(-8.99198e-21 4.50166e-19 -0.000605189)
(2.17154e-21 -4.68251e-19 -0.000679862)
(5.23959e-21 -9.32712e-21 -0.000759397)
(-2.59561e-21 1.37291e-20 -0.000844001)
(5.55612e-21 -8.8336e-21 -0.000934155)
(-1.86381e-20 4.22486e-19 -0.00103072)
(1.67169e-20 -4.50347e-19 -0.00113505)
(1.81809e-20 -4.18639e-19 -0.00124913)
(-1.48688e-20 4.20616e-19 -0.00137575)
(-1.08845e-21 -5.19667e-21 -0.00151877)
(1.12684e-20 -1.21953e-22 -0.00168357)
(-1.29102e-20 -2.48856e-20 -0.00187793)
(5.26799e-20 -7.66025e-19 -0.0021136)
(1.67075e-20 5.62603e-20 -0.00240924)
(-6.97409e-20 7.21698e-19 -0.0027957)
(3.98108e-21 -1.2412e-20 -0.00332527)
(-1.15e-20 -4.91547e-21 -0.00408717)
(1.09957e-19 -6.07087e-19 -0.00523239)
(-2.0453e-19 1.19275e-18 -0.00701131)
(2.08769e-19 -1.186e-18 -0.00982685)
(7.19308e-20 8.53894e-20 -0.0143034)
(-1.57611e-19 5.19891e-19 -0.021366)
(-1.65894e-19 3.59237e-19 -0.0323139)
(1.56718e-19 -4.2589e-19 -0.0488607)
(-2.24232e-20 1.9643e-20 -0.0730924)
(5.54011e-20 -1.74987e-20 -0.107268)
(1.66571e-19 -1.03558e-19 -0.153333)
(-1.80281e-19 1.61546e-19 -0.212071)
(-2.56028e-20 -4.13725e-20 -0.275438)
(3.99655e-22 -3.11709e-20 1.41192e-05)
(-3.64331e-22 1.57647e-20 9.07098e-06)
(6.94772e-22 -1.72482e-22 1.8247e-06)
(-6.23815e-22 -1.55114e-20 -7.83999e-06)
(-9.69981e-22 -1.45398e-21 -2.0088e-05)
(3.28449e-21 -2.43491e-19 -3.50835e-05)
(-4.59131e-21 4.61146e-19 -5.30199e-05)
(2.2335e-21 -2.48322e-19 -7.4138e-05)
(-1.83118e-21 1.49808e-20 -9.87352e-05)
(4.79164e-21 -2.71964e-19 -0.00012717)
(-5.80178e-21 2.48197e-19 -0.000159863)
(-3.97351e-21 4.73838e-19 -0.000197291)
(1.05209e-20 -9.58787e-19 -0.000239979)
(-1.27239e-20 9.57869e-19 -0.000288489)
(1.69839e-20 -9.53504e-19 -0.000343373)
(-1.10311e-20 9.45141e-19 -0.000405071)
(-9.7863e-21 4.80737e-19 -0.000473892)
(-7.10113e-22 -3.79685e-21 -0.000550197)
(4.54311e-21 3.94325e-21 -0.000634437)
(-7.45182e-21 4.43729e-19 -0.00072688)
(-2.21548e-21 -4.66045e-19 -0.000827591)
(1.49085e-20 1.28469e-20 -0.000936632)
(-3.32721e-20 8.95186e-19 -0.00105417)
(2.50635e-20 -8.98227e-19 -0.00118052)
(2.27929e-21 -5.3331e-21 -0.00131627)
(-9.83275e-21 -9.15625e-23 -0.00146245)
(1.49269e-20 -1.35865e-20 -0.00162063)
(-4.85659e-21 1.24537e-22 -0.00179314)
(-5.33874e-21 -6.51208e-23 -0.00198324)
(5.07909e-21 1.97434e-22 -0.00219535)
(-3.73838e-21 1.41308e-21 -0.00243549)
(6.26257e-20 -7.95398e-19 -0.00271189)
(-5.66679e-20 8.18089e-19 -0.00303624)
(-1.62023e-20 1.85448e-22 -0.00342596)
(1.88586e-20 -1.03563e-20 -0.00390841)
(-9.86325e-20 7.31402e-19 -0.00452845)
(1.15377e-19 -7.34691e-19 -0.00536177)
(-2.29542e-20 2.23676e-21 -0.00653719)
(1.62147e-20 -9.15985e-23 -0.00827246)
(3.85544e-20 6.51876e-21 -0.0109284)
(-2.49305e-19 5.50191e-19 -0.0150852)
(3.69293e-19 -1.1158e-18 -0.021641)
(-1.80332e-19 5.65566e-19 -0.0319264)
(2.63224e-19 -4.33453e-19 -0.0478128)
(-2.54701e-19 5.10714e-19 -0.0717802)
(-5.95575e-19 5.27843e-19 -0.106878)
(1.12524e-18 -1.11887e-18 -0.156456)
(-5.51318e-19 5.65166e-19 -0.223398)
(1.90346e-20 -2.20242e-21 -0.308497)
(4.59507e-21 -3.54239e-20 -0.390024)
(-7.36793e-22 1.5846e-20 1.6322e-05)
(-2.67561e-22 6.06732e-20 8.27892e-06)
(1.95571e-21 -1.84249e-19 -3.30586e-06)
(-1.28023e-21 2.47279e-19 -1.84828e-05)
(-2.8769e-22 -1.09513e-19 -3.73273e-05)
(1.09977e-22 -1.46348e-20 -5.99918e-05)
(-4.72968e-22 1.54337e-20 -8.67173e-05)
(3.05065e-21 -1.88012e-22 -0.000117836)
(-2.90663e-21 -1.50873e-20 -0.000153774)
(-5.27312e-21 3.38581e-20 -0.000195048)
(-6.84657e-21 4.81917e-19 -0.000242268)
(1.83758e-20 -5.00902e-19 -0.000296126)
(-2.27272e-20 4.67369e-19 -0.000357392)
(1.88932e-20 -4.86186e-19 -0.000426898)
(-3.02855e-21 3.42264e-21 -0.000505483)
(1.10667e-20 4.79135e-23 -0.000593871)
(4.20937e-21 3.74211e-21 -0.000692635)
(-5.05165e-21 4.54406e-19 -0.000802458)
(2.01035e-20 -4.9177e-19 -0.000924178)
(6.39217e-21 2.70596e-20 -0.00105844)
(-4.54062e-20 9.37309e-19 -0.00120567)
(2.86402e-20 -9.40048e-19 -0.00136635)
(1.02584e-20 2.27352e-20 -0.00154114)
(-1.81727e-20 -2.34892e-22 -0.00173097)
(1.18912e-20 9.70472e-21 -0.00193719)
(-3.81188e-20 9.01603e-19 -0.00216174)
(3.13093e-20 -8.93196e-19 -0.00240739)
(2.85705e-21 9.68956e-21 -0.00267797)
(9.64718e-21 2.7382e-20 -0.00297857)
(-1.15903e-20 -5.53568e-22 -0.00331596)
(1.17003e-21 -1.31012e-20 -0.00369904)
(-3.75759e-20 1.33074e-20 -0.00413976)
(3.53916e-20 1.2681e-20 -0.00465467)
(-3.16863e-21 -2.54397e-20 -0.00526791)
(8.18763e-20 -7.44756e-19 -0.00601669)
(-7.28099e-20 7.67628e-19 -0.0069612)
(2.6918e-19 -1.47834e-18 -0.00820211)
(-2.4654e-19 1.49268e-18 -0.00991009)
(3.06616e-19 -1.39813e-18 -0.0123733)
(7.2504e-20 1.32512e-19 -0.0160694)
(-3.53124e-19 1.33271e-18 -0.0217675)
(-1.22054e-19 -2.24106e-20 -0.0306602)
(1.66108e-20 3.88409e-22 -0.0445196)
(-1.85486e-20 5.65412e-22 -0.0658549)
(5.47708e-20 1.68102e-21 -0.0980406)
(2.63854e-20 1.37418e-20 -0.145352)
(-1.14347e-19 5.19893e-21 -0.212751)
(6.50959e-20 5.04337e-21 -0.304884)
(-1.67036e-22 -3.13586e-22 -0.423066)
(3.64438e-20 6.47143e-22 -0.519036)
(-6.92686e-22 7.63702e-20 1.66072e-05)
(1.64693e-21 -4.6572e-20 3.14501e-06)
(-1.68561e-21 -1.64276e-20 -1.54908e-05)
(4.63603e-21 -2.28205e-19 -3.89142e-05)
(-2.23657e-21 2.30091e-19 -6.71038e-05)
(1.97568e-21 -2.27688e-19 -0.000100257)
(-1.08902e-20 5.02111e-19 -0.000138728)
(1.14275e-20 -7.03262e-19 -0.000183008)
(-7.3647e-21 4.97356e-19 -0.000233713)
(-5.79376e-21 4.84842e-19 -0.000291587)
(-2.205e-21 3.94226e-21 -0.000357493)
(2.42263e-20 -9.52523e-19 -0.000432416)
(-2.11016e-20 9.91401e-19 -0.00051745)
(4.96791e-21 -4.66484e-19 -0.000613796)
(1.1981e-20 -4.68781e-19 -0.000722695)
(2.23491e-20 -4.61316e-19 -0.000845288)
(-3.22539e-21 6.73758e-21 -0.000982575)
(3.81423e-20 -9.56732e-19 -0.00113575)
(2.93531e-20 -9.18653e-19 -0.00130626)
(6.57965e-21 2.12307e-20 -0.0014954)
(-2.63179e-20 9.54273e-19 -0.00170426)
(-2.02614e-20 -8.13429e-21 -0.0019341)
(1.23705e-20 9.00588e-21 -0.0021865)
(-5.03656e-20 9.24402e-19 -0.00246346)
(4.0791e-20 -9.39096e-19 -0.00276763)
(7.24504e-20 -9.02202e-19 -0.00310251)
(-7.36847e-20 9.32005e-19 -0.00347278)
(1.51687e-20 -2.01469e-20 -0.00388456)
(6.71553e-20 -8.99951e-19 -0.00434573)
(-9.50861e-20 9.22974e-19 -0.00486646)
(4.40361e-21 1.24383e-20 -0.00545976)
(-2.06261e-19 1.69145e-18 -0.00614264)
(1.86243e-19 -1.75496e-18 -0.00693799)
(4.88693e-20 6.24837e-20 -0.00787818)
(-2.66649e-19 1.6024e-18 -0.00901166)
(2.44163e-19 -1.67091e-18 -0.0104151)
(-3.18513e-20 -3.35479e-21 -0.0122146)
(4.72817e-19 -1.50814e-18 -0.0146228)
(-4.42392e-19 1.55764e-18 -0.0179978)
(-6.69204e-20 -7.31378e-20 -0.0229349)
(6.82055e-19 -1.31797e-18 -0.0303967)
(-1.19991e-18 2.71901e-18 -0.0418856)
(-6.72991e-20 -1.56065e-19 -0.0596507)
(-9.0118e-20 -1.22326e-19 -0.0869156)
(7.76976e-19 -1.18559e-18 -0.128115)
(3.99259e-20 6.36682e-20 -0.189158)
(-8.80165e-19 7.87598e-19 -0.277719)
(8.63056e-19 -8.66015e-19 -0.403004)
(9.50759e-21 2.92686e-20 -0.57159)
(9.48816e-21 -2.77347e-21 -0.687849)
(6.05905e-22 -1.59107e-20 1.39758e-05)
(1.63776e-21 -1.35678e-19 -1.06494e-05)
(-1.76696e-21 1.22372e-19 -4.03941e-05)
(-1.28838e-21 -1.72411e-20 -7.53459e-05)
(5.27179e-21 -2.26802e-19 -0.000115788)
(-4.85731e-21 2.33305e-19 -0.000162136)
(-5.63396e-21 4.71274e-19 -0.000214952)
(-5.14473e-21 -1.94661e-20 -0.000274933)
(2.23532e-21 -4.56207e-21 -0.000342909)
(1.43019e-20 -5.02608e-19 -0.000419852)
(-1.16099e-20 4.70346e-19 -0.000506878)
(1.73129e-20 -9.95154e-19 -0.000605243)
(-3.82334e-21 4.97497e-19 -0.000716342)
(-3.68668e-21 -1.8737e-20 -0.000841701)
(-4.91595e-21 -2.24331e-20 -0.000982916)
(2.81167e-20 -9.76801e-19 -0.00114149)
(-1.5996e-21 -2.01228e-20 -0.00131878)
(2.69509e-20 -9.95048e-19 -0.00151641)
(-5.4571e-21 -7.69635e-21 -0.00173629)
(-1.70502e-22 1.20239e-22 -0.0019802)
(1.15355e-20 8.50046e-21 -0.00224968)
(-5.25333e-20 9.5785e-19 -0.00254648)
(4.67487e-20 -9.78473e-19 -0.00287268)
(1.28738e-20 8.40434e-21 -0.00323079)
(-8.79101e-21 -1.50007e-20 -0.00362397)
(-6.21957e-21 9.98171e-21 -0.00405622)
(-7.35877e-20 9.25293e-19 -0.00453264)
(1.58261e-19 -1.88795e-18 -0.00505966)
(-7.49415e-20 9.84712e-19 -0.00564525)
(-1.90768e-19 1.82556e-18 -0.00629924)
(-3.05794e-20 -4.53409e-20 -0.0070337)
(2.71511e-21 -2.61587e-20 -0.00786374)
(-6.65858e-20 -5.37028e-20 -0.008809)
(2.58056e-19 -1.82587e-18 -0.00989677)
(3.99014e-19 -1.6912e-18 -0.0111682)
(-3.55881e-19 1.7751e-18 -0.0126903)
(-3.42674e-20 -5.54336e-20 -0.0145785)
(4.73702e-19 -1.61895e-18 -0.0170369)
(-4.17399e-19 1.7149e-18 -0.0204255)
(-6.70697e-19 1.52443e-18 -0.0253688)
(5.69664e-19 -1.61007e-18 -0.0329168)
(7.90318e-20 -1.13427e-20 -0.0447669)
(8.74999e-19 -1.42524e-18 -0.0635436)
(1.23388e-19 1.22377e-19 -0.0931263)
(-1.01238e-18 1.39711e-18 -0.139027)
(-1.64302e-20 -4.00578e-20 -0.208895)
(3.39114e-20 5.32073e-22 -0.313865)
(-3.44342e-20 1.56774e-20 -0.47352)
(-5.19824e-19 5.44067e-19 -0.725582)
(5.1123e-19 -5.532e-19 -0.99838)
(-1.06449e-20 -3.11867e-21 0.0102607)
(-1.05815e-20 -6.01782e-22 0.00449966)
(9.92107e-21 9.99718e-21 -0.000354703)
(-7.0986e-21 1.97235e-21 -0.00438061)
(7.61368e-21 -1.1243e-20 -0.00766275)
(1.47054e-23 3.38018e-21 -0.0102861)
(-1.63954e-22 -9.35703e-23 -0.0123304)
(-5.15575e-21 1.12761e-23 -0.0138735)
(5.00993e-21 -1.09572e-23 -0.014983)
(-1.45189e-22 3.17543e-25 -0.0157168)
(-1.35821e-22 2.97054e-25 -0.0161275)
(3.8141e-21 -8.34182e-24 -0.0162621)
(-3.82636e-21 8.36863e-24 -0.0161636)
(-3.15845e-21 6.90784e-24 -0.0158711)
(3.62153e-22 -6.64138e-22 -0.01542)
(5.62529e-21 2.06557e-20 -0.0148423)
(-2.63461e-21 -1.79878e-20 -0.0141663)
(-4.18232e-23 -6.25888e-22 -0.0134176)
(-1.3115e-23 3.62658e-22 -0.0126184)
(-2.65067e-21 -3.74034e-20 -0.0117881)
(2.67438e-21 3.69805e-20 -0.0109436)
(-2.03703e-21 -4.26173e-20 -0.0100988)
(7.71747e-22 2.79923e-21 -0.00926546)
(-7.90826e-22 7.30452e-24 -0.00845318)
(5.97314e-22 3.55028e-21 -0.00767051)
(-1.85092e-22 9.03459e-24 -0.00692349)
(-2.68959e-22 5.8824e-25 -0.00621662)
(1.07141e-22 -1.36566e-24 -0.0055531)
(2.26191e-22 4.51154e-21 -0.00493501)
(-7.26379e-25 1.8358e-25 -0.00436343)
(-2.07867e-22 -4.93691e-21 -0.00383855)
(2.00636e-22 5.13636e-21 -0.00335983)
(-2.58357e-22 -5.30222e-21 -0.0029261)
(9.85591e-22 5.007e-20 -0.00253572)
(-8.96244e-22 -5.04085e-20 -0.0021866)
(-3.98597e-22 -4.12621e-20 -0.00187636)
(9.34716e-22 8.96485e-20 -0.0016024)
(-5.20877e-22 -4.85217e-20 -0.00136196)
(-7.08297e-23 -6.2363e-21 -0.00115223)
(6.79001e-23 6.39798e-21 -0.000970359)
(-4.44424e-23 -7.84327e-26 -0.00081354)
(1.61861e-22 6.61062e-21 -0.00067906)
(-2.61687e-22 -3.37991e-20 -0.00056432)
(2.37975e-22 3.39815e-20 -0.000466879)
(-5.58733e-23 -6.93307e-21 -0.000384463)
(1.4861e-22 2.11042e-20 -0.000314987)
(1.67907e-23 -7.03509e-21 -0.000256551)
(-9.16446e-23 -1.43758e-20 -0.000207425)
(2.32412e-23 7.22209e-21 -0.000166027)
(-6.2857e-23 -7.32556e-21 -0.000130923)
(-1.53984e-20 2.51532e-20 0.0296555)
(3.05799e-20 -9.15993e-21 0.0125068)
(-2.46499e-20 -2.25262e-20 -0.00202599)
(6.27327e-21 2.13801e-20 -0.0139851)
(-6.73135e-21 -2.07799e-20 -0.0236643)
(-1.21369e-20 6.06059e-21 -0.0313508)
(1.0637e-20 6.02355e-21 -0.0373029)
(2.54773e-21 2.61942e-21 -0.0417642)
(9.03681e-21 -1.36093e-20 -0.0449429)
(-2.05221e-20 5.45603e-21 -0.0470135)
(1.81116e-20 -4.9147e-21 -0.048134)
(1.09364e-20 3.27979e-20 -0.0484454)
(-2.11999e-20 -2.12594e-20 -0.0480758)
(-2.32496e-20 -6.02604e-20 -0.0471412)
(5.55167e-21 -2.14069e-20 -0.0457464)
(2.38382e-20 7.12818e-20 -0.0439853)
(-5.343e-21 1.72096e-21 -0.0419417)
(-9.90596e-22 -3.68649e-21 -0.0396902)
(7.93422e-24 -7.06971e-23 -0.0372962)
(3.3811e-22 -7.39481e-25 -0.0348166)
(9.16835e-22 1.29082e-23 -0.0323002)
(-1.22205e-21 -3.54212e-21 -0.0297876)
(2.44422e-20 1.96653e-19 -0.0273127)
(-2.70567e-20 -2.12024e-19 -0.0249041)
(2.50765e-20 2.3383e-19 -0.0225855)
(-1.32098e-20 -1.10767e-19 -0.0203755)
(-2.38977e-20 -2.6194e-19 -0.0182863)
(1.16136e-20 1.34415e-19 -0.0163268)
(-7.89511e-23 -4.4142e-21 -0.0145029)
(-8.69608e-22 -9.60212e-21 -0.0128175)
(2.14697e-22 4.94782e-21 -0.0112707)
(-9.75234e-22 -1.54729e-20 -0.00986076)
(7.87115e-21 1.68419e-19 -0.00858409)
(-1.6437e-20 -3.59355e-19 -0.00743556)
(7.353e-21 1.74254e-19 -0.00640893)
(-8.70531e-22 -1.76862e-20 -0.00549706)
(2.7839e-22 6.00618e-21 -0.00469215)
(-2.4229e-23 -6.0614e-23 -0.00398605)
(-3.20541e-21 -1.07647e-19 -0.00337033)
(2.72533e-21 9.52726e-20 -0.00283661)
(1.93115e-21 9.19446e-20 -0.00237657)
(-2.84345e-21 -1.25271e-19 -0.00198221)
(6.82984e-23 6.80566e-21 -0.00164586)
(5.70904e-22 3.44315e-20 -0.00136032)
(-1.256e-21 -6.20317e-20 -0.0011189)
(1.13969e-23 -6.99751e-21 -0.000915477)
(-7.69051e-22 -4.97696e-20 -0.000744441)
(-1.45811e-22 -7.40472e-21 -0.000600695)
(1.8332e-22 1.43147e-20 -0.000479521)
(2.16651e-22 2.18629e-20 -0.000376495)
(-1.44401e-20 -9.98364e-22 0.0455897)
(-1.3514e-20 -1.55946e-20 0.0173092)
(3.56977e-20 2.9542e-20 -0.00677906)
(-4.37926e-20 -1.25479e-20 -0.0262648)
(1.80202e-20 1.15644e-20 -0.0417942)
(8.48226e-21 5.12489e-21 -0.0539615)
(3.27921e-22 -4.16276e-20 -0.0632609)
(4.31662e-20 1.52749e-20 -0.0701272)
(-2.36856e-20 4.77864e-20 -0.0749224)
(-7.42808e-20 -7.43555e-20 -0.0779384)
(1.12798e-19 8.40217e-20 -0.0794378)
(-6.61866e-20 -3.72765e-20 -0.079655)
(4.73037e-21 -1.09122e-20 -0.0787992)
(-2.7726e-21 -6.55785e-21 -0.0770581)
(9.19346e-20 1.7033e-19 -0.0746003)
(-3.26574e-21 4.00321e-20 -0.0715768)
(-8.56597e-20 -1.95845e-19 -0.0681218)
(8.47712e-21 2.20785e-21 -0.0643539)
(-4.52611e-21 1.69666e-22 -0.0603768)
(1.75451e-22 -1.31854e-21 -0.0562808)
(4.56752e-20 1.8345e-19 -0.0521423)
(-4.46077e-20 -1.74076e-19 -0.0480255)
(-4.36155e-20 -2.11063e-19 -0.043983)
(4.64981e-20 2.21493e-19 -0.0400592)
(9.96909e-22 8.56148e-21 -0.0362907)
(-1.22413e-21 -8.10605e-21 -0.0327057)
(1.06222e-21 8.71641e-21 -0.0293232)
(-3.52015e-20 -2.82284e-19 -0.0261559)
(3.72513e-20 2.91356e-19 -0.0232121)
(-3.15648e-20 -2.98079e-19 -0.0204954)
(3.37467e-20 3.18143e-19 -0.0180053)
(7.58776e-22 1.05914e-20 -0.0157383)
(2.80188e-20 3.52662e-19 -0.0136877)
(-5.38521e-20 -7.05867e-19 -0.0118448)
(2.69784e-20 3.75985e-19 -0.0101992)
(1.25347e-20 2.03045e-19 -0.00873884)
(-1.1113e-20 -1.7968e-19 -0.00745099)
(3.50353e-22 8.82743e-23 -0.0063222)
(-4.73645e-22 -7.20668e-23 -0.00533878)
(-4.8656e-23 9.89692e-23 -0.00448704)
(8.00786e-21 2.10918e-19 -0.00375354)
(-7.75012e-21 -1.98154e-19 -0.0031253)
(6.22445e-22 1.36199e-20 -0.00258996)
(-3.2931e-22 -5.67982e-24 -0.0021359)
(2.89713e-21 1.11279e-19 -0.00175238)
(-5.33783e-21 -2.10152e-19 -0.00142952)
(2.62245e-21 1.12818e-19 -0.00115832)
(-1.31695e-21 -5.75166e-20 -0.000930559)
(9.93108e-22 4.30242e-20 -0.000738465)
(2.35668e-22 1.44329e-20 -0.000574304)
(1.83907e-21 2.70757e-20 0.0546909)
(8.80828e-21 -5.47661e-20 0.0158442)
(-6.18854e-20 2.32944e-20 -0.017347)
(8.58328e-20 5.79652e-20 -0.0434554)
(-7.98542e-21 -9.36468e-20 -0.0637605)
(8.30714e-21 4.39011e-20 -0.0793323)
(-2.44791e-20 -2.94248e-21 -0.0909926)
(2.82288e-20 4.166e-20 -0.0993832)
(-1.00714e-19 -8.1369e-20 -0.105025)
(1.06803e-19 2.66219e-20 -0.108337)
(-2.27768e-20 1.2793e-20 -0.109683)
(-1.17735e-20 7.16838e-22 -0.109377)
(1.66196e-20 9.25459e-21 -0.1077)
(-1.27624e-19 -1.84551e-19 -0.104901)
(1.1227e-19 1.64233e-19 -0.101202)
(-5.124e-21 1.43928e-20 -0.0968022)
(5.00265e-21 -8.10579e-21 -0.0918759)
(1.26519e-19 3.04366e-19 -0.0865777)
(-1.28827e-19 -2.94782e-19 -0.0810419)
(-1.01064e-21 -1.03149e-20 -0.0753844)
(-1.26256e-21 -5.62535e-23 -0.0697038)
(1.66476e-21 4.34624e-22 -0.064082)
(8.29296e-22 -2.97437e-23 -0.0585859)
(-5.59572e-22 7.65848e-21 -0.0532709)
(2.23899e-21 3.61181e-22 -0.0481828)
(1.42961e-21 8.89472e-21 -0.0433557)
(-1.09401e-19 -5.86805e-19 -0.0388135)
(1.08783e-19 5.77354e-19 -0.0345703)
(-6.95163e-22 7.21038e-22 -0.0306349)
(-4.59042e-20 -3.2711e-19 -0.0270103)
(4.83382e-20 3.37922e-19 -0.0236943)
(3.69789e-24 5.77905e-23 -0.0206805)
(-1.99212e-22 -3.10118e-22 -0.0179589)
(-3.81186e-20 -3.81446e-19 -0.0155168)
(7.2655e-20 7.6184e-19 -0.0133393)
(-6.64874e-20 -7.68209e-19 -0.0114099)
(6.24538e-20 7.85298e-19 -0.00971078)
(-5.80095e-20 -8.01277e-19 -0.00822361)
(2.77939e-20 4.04853e-19 -0.00692975)
(1.18962e-20 2.08854e-19 -0.0058107)
(-1.04807e-20 -1.82955e-19 -0.00484836)
(-8.57724e-22 -1.34087e-20 -0.00402528)
(-9.43242e-21 -2.17689e-19 -0.00332493)
(1.96487e-20 4.65961e-19 -0.00273183)
(-8.99576e-21 -2.20831e-19 -0.00223164)
(9.40993e-23 1.34165e-22 -0.00181125)
(3.67589e-22 1.41229e-20 -0.0014587)
(-8.46267e-23 -4.74575e-23 -0.00116299)
(-3.43367e-22 -1.43626e-20 -0.000913488)
(7.39018e-22 2.90001e-20 -0.000698684)
(2.76053e-20 9.72306e-23 0.0525472)
(3.14027e-22 3.68607e-22 0.00374886)
(-6.20404e-20 3.50048e-22 -0.0373822)
(9.09699e-20 -4.80806e-22 -0.0683427)
(-2.74627e-20 -4.90078e-22 -0.0915814)
(-4.2738e-20 -9.25937e-22 -0.108853)
(1.46418e-20 5.20164e-22 -0.121366)
(-1.09091e-20 -8.76745e-22 -0.129992)
(8.64135e-20 -2.39704e-20 -0.135409)
(1.43157e-19 2.33299e-19 -0.138143)
(8.97145e-21 8.80285e-20 -0.138632)
(-1.84734e-19 -3.04295e-19 -0.137252)
(2.40559e-19 3.84693e-19 -0.134334)
(-2.57142e-19 -3.77965e-19 -0.130171)
(1.29248e-19 2.44087e-19 -0.125022)
(-1.401e-19 -2.55176e-19 -0.119118)
(5.35674e-21 -2.1938e-21 -0.112662)