/*--------------------------------*- C++ -*----------------------------------*\
| =========                 |                                                 |
| \\      /  F ield         | OpenFOAM: The Open Source CFD Toolbox           |
|  \\    /   O peration     | Version:  2412                                  |
|   \\  /    A nd           | Website:  www.openfoam.com                      |
|    \\/     M anipulation  |                                                 |
\*---------------------------------------------------------------------------*/
FoamFile
{
    version     2.0;
    format      ascii;
    arch        "LSB;label=32;scalar=64";
    class       surfaceScalarField;
    location    "9.5";
    object      phi;
}
// * * * * * * * * * * * * * * * * * * * * * * * * * * * * * * * * * * * * * //

dimensions      [0 3 -1 0 0 0 0];

oriented        oriented;

internalField   nonuniform List<scalar> 
10424
(
0.00525042
-0.000242163
-0.00525328
0.00524781
-0.000239751
0.00524544
-0.000237193
-0.000234493
0.00525822
-0.000239106
-0.00526128
0.00525541
-0.000236937
0.00525284
-0.000234617
0.00525049
-0.000232151
0.00524838
-0.000229546
0.00524649
-0.000226807
0.00524481
-0.000223941
0.00524335
-0.000220955
0.00524209
-0.000217855
0.00524103
-0.000214648
0.00524015
-0.000211339
0.00523946
-0.000207935
0.00523894
-0.00020444
0.0052386
-0.00020086
0.00523841
-0.000197199
0.00523838
-0.000193463
0.00523849
-0.00018966
0.00523875
-0.0001858
0.00523913
-0.000181894
0.00523964
-0.000177956
0.00524027
-0.000173998
0.005241
-0.000170034
0.00524182
-0.000166072
0.00524274
-0.000162121
0.00524373
-0.000158186
0.0052448
-0.00015427
0.00524593
-0.000150373
0.00524711
-0.000146497
0.00524835
-0.000142642
0.00524962
-0.00013881
0.00525093
-0.000135002
0.00525226
-0.00013122
0.00525362
-0.000127467
0.005255
-0.000123745
0.00525638
-0.000120057
0.00525777
-0.000116404
0.00525916
-0.000112788
0.00526055
-0.000109213
0.00526194
-0.000105679
0.00526331
-0.000102189
0.00526467
-9.87446e-05
0.00526601
-9.53471e-05
0.00526734
-9.19982e-05
-8.86996e-05
0.0052657
-0.000235878
-0.00526893
0.00526271
-0.000233945
0.00525995
-0.000231857
0.00525742
-0.00022962
0.00525511
-0.000227238
0.00525302
-0.000224719
0.00525115
-0.000222067
0.00524948
-0.000219289
0.00524802
-0.000216392
0.00524675
-0.000213381
0.00524568
-0.000210263
0.00524478
-0.000207042
0.00524407
-0.000203724
0.00524352
-0.000200314
0.00524314
-0.000196817
0.00524292
-0.000193238
0.00524284
-0.000189585
0.00524291
-0.000185867
0.00524311
-0.000182097
0.00524344
-0.000178286
0.00524389
-0.000174447
0.00524445
-0.000170593
0.00524511
-0.000166733
0.00524586
-0.000162876
0.0052467
-0.000159026
0.00524762
-0.000155185
0.0052486
-0.000151357
0.00524965
-0.000147542
0.00525075
-0.00014374
0.00525189
-0.000139955
0.00525308
-0.000136186
0.00525429
-0.000132438
0.00525554
-0.000128712
0.00525681
-0.000125012
0.00525809
-0.000121339
0.00525938
-0.000117697
0.00526068
-0.000114088
0.00526198
-0.000110515
0.00526328
-0.000106979
0.00526458
-0.000103483
0.00526586
-0.000100029
0.00526713
-9.66187e-05
0.00526839
-9.32544e-05
-8.99376e-05
0.00527285
-0.000232499
-0.00527623
0.0052697
-0.000230795
0.00526678
-0.000228933
0.00526408
-0.000226919
0.0052616
-0.000224757
0.00525933
-0.000222452
0.00525727
-0.000220011
0.00525542
-0.00021744
0.00525377
-0.000214743
0.00525232
-0.000211927
0.00525106
-0.000208998
0.00524997
-0.000205961
0.00524907
-0.00020282
0.00524834
-0.000199582
0.00524777
-0.000196249
0.00524736
-0.000192829
0.00524711
-0.000189329
0.005247
-0.000185757
0.00524702
-0.000182125
0.00524718
-0.000178444
0.00524746
-0.000174728
0.00524786
-0.000170988
0.00524836
-0.000167235
0.00524896
-0.000163475
0.00524965
-0.000159714
0.00525042
-0.000155955
0.00525126
-0.0001522
0.00525217
-0.000148451
0.00525314
-0.000144708
0.00525416
-0.000140974
0.00525522
-0.00013725
0.00525632
-0.00013354
0.00525746
-0.000129847
0.00525862
-0.000126173
0.0052598
-0.000122521
0.005261
-0.000118894
0.00526221
-0.000115296
0.00526342
-0.000111729
0.00526464
-0.000108195
0.00526585
-0.000104697
0.00526706
-0.000101238
0.00526826
-9.78191e-05
0.00526945
-9.44428e-05
-9.11112e-05
0.00527968
-0.00022899
-0.00528319
0.0052764
-0.000227507
0.00527333
-0.000225864
0.00527048
-0.000224066
0.00526784
-0.000222118
0.00526541
-0.000220025
0.00526319
-0.00021779
0.00526117
-0.000215421
0.00525935
-0.000212922
0.00525772
-0.0002103
0.00525628
-0.000207559
0.00525503
-0.000204704
0.00525395
-0.000201741
0.00525304
-0.000198674
0.0052523
-0.000195508
0.00525172
-0.000192248
0.00525129
-0.000188902
0.00525101
-0.000185477
0.00525087
-0.000181986
0.00525087
-0.000178438
0.00525099
-0.000174848
0.00525122
-0.000171226
0.00525157
-0.000167583
0.00525202
-0.000163924
0.00525256
-0.000160257
0.00525319
-0.000156584
0.0052539
-0.000152907
0.00525468
-0.000149228
0.00525552
-0.000145548
0.00525641
-0.00014187
0.00525736
-0.000138196
0.00525835
-0.000134529
0.00525937
-0.000130873
0.00526043
-0.000127229
0.00526151
-0.000123603
0.00526262
-0.000119997
0.00526373
-0.000116414
0.00526486
-0.000112857
0.00526599
-0.000109329
0.00526713
-0.000105834
0.00526827
-0.000102372
0.00526939
-9.89483e-05
0.00527052
-9.55637e-05
-9.22208e-05
0.0052862
-0.000225371
-0.00528982
0.0052828
-0.000224099
0.0052796
-0.000222668
0.00527661
-0.00022108
0.00527384
-0.00021934
0.00527126
-0.000217452
0.00526889
-0.00021542
0.00526672
-0.000213249
0.00526474
-0.000210945
0.00526296
-0.000208513
0.00526136
-0.000205958
0.00525994
-0.000203285
0.00525869
-0.000200499
0.00525762
-0.000197603
0.00525672
-0.000194603
0.00525597
-0.000191504
0.00525539
-0.000188313
0.00525495
-0.000185037
0.00525465
-0.000181688
0.00525449
-0.000178277
0.00525445
-0.000174815
0.00525454
-0.000171314
0.00525474
-0.000167783
0.00525505
-0.00016423
0.00525545
-0.00016066
0.00525594
-0.000157076
0.00525652
-0.000153482
0.00525717
-0.000149877
0.00525788
-0.000146265
0.00525866
-0.000142647
0.00525949
-0.000139027
0.00526037
-0.000135408
0.00526129
-0.000131792
0.00526224
-0.000128184
0.00526323
-0.000124587
0.00526424
-0.000121005
0.00526526
-0.000117442
0.00526631
-0.000113899
0.00526736
-0.000110382
0.00526842
-0.000106892
0.00526948
-0.000103433
0.00527054
-0.000100007
0.00527159
-9.66174e-05
-9.32664e-05
0.00529241
-0.000221657
-0.00529613
0.0052889
-0.00022059
0.0052856
-0.000219362
0.00528249
-0.000217977
0.00527959
-0.000216439
0.00527689
-0.00021475
0.00527439
-0.000212915
0.00527208
-0.000210938
0.00526996
-0.000208826
0.00526802
-0.000206581
0.00526627
-0.00020421
0.00526471
-0.000201716
0.00526331
-0.000199105
0.00526209
-0.00019638
0.00526103
-0.000193546
0.00526013
-0.000190607
0.00525939
-0.000187571
0.0052588
-0.000184446
0.00525835
-0.000181241
0.00525804
-0.000177966
0.00525786
-0.000174635
0.00525781
-0.000171257
0.00525786
-0.000167842
0.00525803
-0.000164397
0.0052583
-0.000160928
0.00525866
-0.000157437
0.00525911
-0.000153928
0.00525963
-0.000150402
0.00526023
-0.000146862
0.00526089
-0.000143309
0.00526161
-0.000139746
0.00526238
-0.000136178
0.0052632
-0.000132608
0.00526405
-0.000129039
0.00526494
-0.000125476
0.00526586
-0.000121922
0.0052668
-0.000118382
0.00526775
-0.000114857
0.00526873
-0.000111354
0.00526971
-0.000107873
0.00527069
-0.000104419
0.00527168
-0.000100996
0.00527267
-9.76043e-05
-9.42484e-05
0.00529832
-0.000217867
-0.00530211
0.00529473
-0.000216995
0.00529133
-0.000215963
0.00528812
-0.000214773
0.00528511
-0.000213429
0.0052823
-0.000211933
0.00527967
-0.00021029
0.00527723
-0.000208503
0.00527499
-0.000206577
0.00527292
-0.000204516
0.00527104
-0.000202325
0.00526933
-0.000200008
0.00526779
-0.00019757
0.00526643
-0.000195014
0.00526523
-0.000192345
0.00526419
-0.000189567
0.0052633
-0.000186687
0.00526257
-0.000183711
0.00526198
-0.000180651
0.00526153
-0.000177515
0.00526121
-0.000174316
0.00526101
-0.000171063
0.00526094
-0.000167766
0.00526097
-0.000164432
0.00526111
-0.000161066
0.00526135
-0.000157672
0.00526167
-0.000154252
0.00526208
-0.000150808
0.00526256
-0.000147342
0.0052631
-0.000143857
0.00526372
-0.000140356
0.00526438
-0.000136843
0.00526509
-0.000133322
0.00526585
-0.000129797
0.00526665
-0.000126271
0.00526747
-0.000122749
0.00526833
-0.000119235
0.0052692
-0.000115733
0.00527009
-0.000112246
0.005271
-0.000108778
0.00527191
-0.000105333
0.00527283
-0.000101915
0.00527375
-9.85248e-05
-9.51672e-05
0.00530393
-0.000214015
-0.00530779
0.00530027
-0.000213329
0.00529679
-0.000212484
0.0052935
-0.000211482
0.00529039
-0.000210325
0.00528748
-0.000209016
0.00528475
-0.000207559
0.0052822
-0.000205956
0.00527983
-0.000204212
0.00527765
-0.00020233
0.00527564
-0.000200316
0.00527381
-0.000198174
0.00527214
-0.000195906
0.00527065
-0.000193517
0.00526931
-0.000191011
0.00526814
-0.000188393
0.00526712
-0.000185668
0.00526625
-0.000182843
0.00526553
-0.000179927
0.00526494
-0.000176931
0.00526449
-0.000173865
0.00526417
-0.000170739
0.00526396
-0.000167562
0.00526387
-0.000164341
0.00526388
-0.000161081
0.005264
-0.000157785
0.0052642
-0.000154457
0.00526449
-0.000151098
0.00526486
-0.00014771
0.0052653
-0.000144297
0.0052658
-0.000140861
0.00526637
-0.000137406
0.00526698
-0.000133938
0.00526764
-0.000130458
0.00526835
-0.000126973
0.00526909
-0.000123487
0.00526985
-0.000120003
0.00527065
-0.000116526
0.00527146
-0.00011306
0.00527229
-0.000109608
0.00527313
-0.000106175
0.00527398
-0.000102765
0.00527484
-9.93795e-05
-9.60231e-05
0.00530926
-0.000210114
-0.00531316
0.00530554
-0.000209606
0.00530199
-0.00020894
0.00529863
-0.000208117
0.00529545
-0.000207141
0.00529244
-0.000206012
0.00528962
-0.000204734
0.00528697
-0.000203309
0.0052845
-0.000201742
0.00528221
-0.000200036
0.00528009
-0.000198195
0.00527814
-0.000196223
0.00527635
-0.000194123
0.00527473
-0.000191899
0.00527328
-0.000189555
0.00527198
-0.000187094
0.00527084
-0.000184523
0.00526984
-0.000181848
0.00526899
-0.000179077
0.00526828
-0.00017622
0.0052677
-0.000173288
0.00526725
-0.00017029
0.00526693
-0.000167235
0.00526672
-0.000164128
0.00526661
-0.000160976
0.00526661
-0.000157782
0.0052667
-0.000154548
0.00526688
-0.000151276
0.00526714
-0.00014797
0.00526747
-0.000144631
0.00526787
-0.000141263
0.00526834
-0.00013787
0.00526886
-0.000134457
0.00526943
-0.000131027
0.00527004
-0.000127586
0.00527069
-0.000124138
0.00527137
-0.000120687
0.00527209
-0.000117239
0.00527282
-0.000113796
0.00527358
-0.000110364
0.00527435
-0.000106946
0.00527513
-0.000103547
0.00527592
-0.000100169
-9.68167e-05
0.00531431
-0.000206179
-0.00531824
0.00531054
-0.000205839
0.00530695
-0.000205343
0.00530352
-0.000204693
0.00530027
-0.000203889
0.00529719
-0.000202933
0.00529428
-0.000201828
0.00529155
-0.000200576
0.00528899
-0.000199181
0.0052866
-0.000197645
0.00528437
-0.000195973
0.00528232
-0.000194167
0.00528043
-0.000192232
0.0052787
-0.00019017
0.00527713
-0.000187984
0.00527571
-0.00018568
0.00527445
-0.000183261
0.00527334
-0.000180735
0.00527237
-0.000178108
0.00527154
-0.000175392
0.00527085
-0.000172594
0.00527028
-0.000169724
0.00526984
-0.000166791
0.00526951
-0.000163801
0.00526929
-0.000160759
0.00526918
-0.000157668
0.00526916
-0.00015453
0.00526923
-0.000151348
0.00526939
-0.000148125
0.00526962
-0.000144863
0.00526992
-0.000141566
0.00527029
-0.000138237
0.00527071
-0.000134882
0.00527119
-0.000131505
0.00527172
-0.000128111
0.00527228
-0.000124705
0.00527289
-0.00012129
0.00527352
-0.000117873
0.00527418
-0.000114457
0.00527486
-0.000111047
0.00527556
-0.000107647
0.00527628
-0.000104262
0.005277
-0.000100894
-9.75485e-05
0.00531908
-0.00020222
-0.00532304
0.00531529
-0.00020204
0.00531165
-0.000201706
0.00530817
-0.000201219
0.00530487
-0.00020058
0.00530172
-0.000199791
0.00529875
-0.000198852
0.00529594
-0.000197767
0.0052933
-0.000196537
0.00529082
-0.000195167
0.0052885
-0.000193659
0.00528635
-0.000192016
0.00528436
-0.000190242
0.00528253
-0.000188338
0.00528086
-0.000186309
0.00527933
-0.000184159
0.00527796
-0.000181891
0.00527674
-0.000179512
0.00527566
-0.000177029
0.00527472
-0.000174451
0.00527391
-0.000171787
0.00527324
-0.000169047
0.00527268
-0.000166237
0.00527225
-0.000163364
0.00527192
-0.000160433
0.0052717
-0.000157447
0.00527158
-0.000154408
0.00527155
-0.000151318
0.0052716
-0.00014818
0.00527174
-0.000144997
0.00527194
-0.000141773
0.00527222
-0.000138511
0.00527255
-0.000135217
0.00527294
-0.000131895
0.00527338
-0.000128551
0.00527386
-0.000125188
0.00527439
-0.000121813
0.00527494
-0.00011843
0.00527553
-0.000115043
0.00527614
-0.000111658
0.00527677
-0.000108279
0.00527742
-0.00010491
0.00527808
-0.000101555
-9.82192e-05
0.0053236
-0.000198249
-0.00532757
0.00531978
-0.000198219
0.00531611
-0.000198039
0.0053126
-0.000197708
0.00530925
-0.000197226
0.00530605
-0.000196596
0.00530302
-0.000195817
0.00530014
-0.000194892
0.00529743
-0.000193823
0.00529487
-0.000192613
0.00529248
-0.000191264
0.00529024
-0.000189779
0.00528816
-0.000188162
0.00528624
-0.000186414
0.00528447
-0.000184538
0.00528285
-0.000182539
0.00528137
-0.00018042
0.00528005
-0.000178186
0.00527887
-0.000175845
0.00527782
-0.000173406
0.00527691
-0.000170876
0.00527613
-0.000168265
0.00527547
-0.000165579
0.00527493
-0.000162824
0.0052745
-0.000160005
0.00527418
-0.000157124
0.00527395
-0.000154185
0.00527382
-0.000151189
0.00527378
-0.000148138
0.00527382
-0.000145036
0.00527394
-0.000141887
0.00527412
-0.000138695
0.00527437
-0.000135464
0.00527467
-0.000132199
0.00527503
-0.000128907
0.00527543
-0.000125591
0.00527587
-0.000122257
0.00527636
-0.00011891
0.00527687
-0.000115556
0.00527741
-0.000112198
0.00527797
-0.000108842
0.00527855
-0.000105492
0.00527915
-0.000102153
-9.88293e-05
0.00532786
-0.000194275
-0.00533183
0.00532403
-0.000194387
0.00532034
-0.000194352
0.0053168
-0.000194169
0.00531341
-0.000193837
0.00531018
-0.000193358
0.00530709
-0.000192732
0.00530416
-0.000191961
0.00530139
-0.000191047
0.00529876
-0.000189991
0.0052963
-0.000188797
0.00529398
-0.000187466
0.00529182
-0.000186001
0.00528981
-0.000184405
0.00528796
-0.00018268
0.00528625
-0.000180828
0.00528468
-0.000178855
0.00528326
-0.000176765
0.00528198
-0.000174565
0.00528084
-0.000172263
0.00527983
-0.000169866
0.00527895
-0.000167383
0.00527819
-0.000164821
0.00527755
-0.000162185
0.00527702
-0.000159479
0.0052766
-0.000156705
0.00527629
-0.000153867
0.00527606
-0.000150965
0.00527593
-0.000148004
0.00527588
-0.000144985
0.0052759
-0.000141912
0.005276
-0.000138791
0.00527616
-0.000135625
0.00527638
-0.00013242
0.00527665
-0.000129181
0.00527698
-0.000125914
0.00527735
-0.000122624
0.00527775
-0.000119317
0.00527819
-0.000115996
0.00527866
-0.000112669
0.00527916
-0.000109339
0.00527968
-0.000106011
0.00528021
-0.000102689
-9.93796e-05
0.00533188
-0.000190308
-0.00533585
0.00532805
-0.000190553
0.00532435
-0.000190655
0.00532079
-0.000190611
0.00531738
-0.000190422
0.00531411
-0.000190088
0.00531098
-0.000189608
0.005308
-0.000188985
0.00530518
-0.000188219
0.0053025
-0.000187312
0.00529997
-0.000186267
0.00529759
-0.000185085
0.00529535
-0.000183768
0.00529327
-0.00018232
0.00529133
-0.000180741
0.00528954
-0.000179035
0.00528789
-0.000177205
0.00528638
-0.000175256
0.00528501
-0.000173195
0.00528377
-0.000171028
0.00528267
-0.000168764
0.00528169
-0.000166409
0.00528084
-0.00016397
0.00528011
-0.000161453
0.00527949
-0.00015886
0.00527898
-0.000156194
0.00527857
-0.000153457
0.00527826
-0.000150652
0.00527803
-0.00014778
0.0052779
-0.000144845
0.00527783
-0.000141851
0.00527785
-0.000138802
0.00527792
-0.000135703
0.00527806
-0.00013256
0.00527826
-0.000129377
0.00527851
-0.000126161
0.0052788
-0.000122917
0.00527913
-0.00011965
0.0052795
-0.000116367
0.0052799
-0.000113071
0.00528033
-0.000109769
0.00528079
-0.000106465
0.00528126
-0.000103164
-9.98707e-05
0.00533567
-0.000186354
-0.00533962
0.00533184
-0.000186725
0.00532814
-0.000186956
0.00532457
-0.000187044
0.00532114
-0.00018699
0.00531785
-0.000186792
0.00531469
-0.000186452
0.00531168
-0.00018597
0.0053088
-0.000185346
0.00530608
-0.000184583
0.00530349
-0.000183681
0.00530105
-0.000182644
0.00529875
-0.000181471
0.0052966
-0.000180166
0.00529459
-0.00017873
0.00529272
-0.000177166
0.00529099
-0.000175476
0.0052894
-0.000173666
0.00528795
-0.000171741
0.00528663
-0.000169709
0.00528544
-0.000167575
0.00528438
-0.000165347
0.00528344
-0.000163031
0.00528262
-0.000160632
0.00528191
-0.000158152
0.00528131
-0.000155595
0.00528081
-0.00015296
0.00528041
-0.000150252
0.0052801
-0.000147471
0.00527988
-0.000144621
0.00527973
-0.000141707
0.00527966
-0.000138732
0.00527966
-0.000135701
0.00527972
-0.00013262
0.00527984
-0.000129496
0.00528001
-0.000126332
0.00528023
-0.000123136
0.00528049
-0.000119912
0.00528079
-0.000116667
0.00528113
-0.000113406
0.00528149
-0.000110134
0.00528189
-0.000106856
0.0052823
-0.000103578
-0.000100303
0.00533924
-0.000182423
-0.00534317
0.00533543
-0.00018291
0.00533173
-0.000183262
0.00532816
-0.000183474
0.00532472
-0.000183548
0.00532141
-0.000183481
0.00531823
-0.000183273
0.00531519
-0.000182925
0.00531228
-0.000182438
0.00530951
-0.000181812
0.00530687
-0.000181049
0.00530438
-0.00018015
0.00530203
-0.000179117
0.00529981
-0.000177951
0.00529774
-0.000176654
0.0052958
-0.000175228
0.005294
-0.000173676
0.00529233
-0.000172001
0.0052908
-0.000170211
0.0052894
-0.00016831
0.00528813
-0.000166305
0.00528699
-0.000164203
0.00528597
-0.00016201
0.00528506
-0.000159728
0.00528427
-0.000157362
0.00528359
-0.000154912
0.00528301
-0.00015238
0.00528253
-0.000149769
0.00528213
-0.00014708
0.00528183
-0.000144316
0.0052816
-0.000141482
0.00528145
-0.000138581
0.00528137
-0.00013562
0.00528136
-0.000132604
0.0052814
-0.000129539
0.0052815
-0.00012643
0.00528164
-0.000123283
0.00528184
-0.000120105
0.00528207
-0.0001169
0.00528234
-0.000113675
0.00528264
-0.000110435
0.00528297
-0.000107185
0.00528332
-0.000103931
-0.000100678
0.00534261
-0.000178519
-0.00534651
0.00533881
-0.000179116
0.00533513
-0.00017958
0.00533157
-0.00017991
0.00532812
-0.000180103
0.0053248
-0.000180159
0.00532161
-0.000180078
0.00531854
-0.000179858
0.0053156
-0.000179501
0.0053128
-0.000179007
0.00531012
-0.000178377
0.00530759
-0.000177612
0.00530518
-0.000176713
0.00530291
-0.000175682
0.00530078
-0.00017452
0.00529878
-0.000173228
0.00529691
-0.000171809
0.00529518
-0.000170268
0.00529358
-0.000168608
0.0052921
-0.000166837
0.00529076
-0.00016496
0.00528954
-0.000162982
0.00528844
-0.00016091
0.00528745
-0.000158745
0.00528658
-0.000156491
0.00528582
-0.000154149
0.00528516
-0.00015172
0.0052846
-0.000149206
0.00528413
-0.000146609
0.00528374
-0.000143932
0.00528344
-0.000141179
0.00528321
-0.000138354
0.00528306
-0.000135464
0.00528297
-0.000132513
0.00528294
-0.000129509
0.00528296
-0.000126455
0.00528304
-0.00012336
0.00528316
-0.000120228
0.00528333
-0.000117066
0.00528353
-0.000113879
0.00528377
-0.000110673
0.00528404
-0.000107454
0.00528433
-0.000104226
-0.000100996
0.00534578
-0.000174649
-0.00534965
0.00534201
-0.000175347
0.00533835
-0.000175917
0.0053348
-0.000176356
0.00533136
-0.000176663
0.00532803
-0.000176835
0.00532483
-0.000176873
0.00532175
-0.000176775
0.00531879
-0.000176542
0.00531595
-0.000176173
0.00531325
-0.000175671
0.00531067
-0.000175035
0.00530822
-0.000174266
0.00530591
-0.000173365
0.00530372
-0.000172333
0.00530166
-0.000171172
0.00529974
-0.000169883
0.00529794
-0.000168471
0.00529627
-0.00016694
0.00529473
-0.000165296
0.00529332
-0.000163544
0.00529202
-0.000161689
0.00529085
-0.000159736
0.00528979
-0.000157687
0.00528885
-0.000155545
0.00528801
-0.00015331
0.00528727
-0.000150984
0.00528663
-0.000148567
0.00528609
-0.000146062
0.00528563
-0.000143471
0.00528525
-0.0001408
0.00528494
-0.000138052
0.00528471
-0.000135233
0.00528455
-0.000132349
0.00528445
-0.000129406
0.0052844
-0.000126411
0.00528441
-0.000123368
0.00528447
-0.000120284
0.00528457
-0.000117166
0.00528471
-0.000114019
0.00528488
-0.000110849
0.00528509
-0.000107662
0.00528533
-0.000104463
-0.000101257
0.00534878
-0.00535261
-0.000170818
0.00534504
-0.00017161
0.0053414
-0.000172279
0.00533787
-0.00017282
0.00533444
-0.000173232
0.00533112
-0.000173514
0.00532791
-0.000173664
0.00532481
-0.000173682
0.00532184
-0.000173567
0.00531898
-0.000173319
0.00531625
-0.000172938
0.00531364
-0.000172426
0.00531116
-0.000171782
0.0053088
-0.000171007
0.00530657
-0.000170101
0.00530446
-0.000169066
0.00530248
-0.000167904
0.00530063
-0.000166618
0.0052989
-0.000165212
0.0052973
-0.000163692
0.00529581
-0.000162063
0.00529445
-0.000160328
0.00529321
-0.000158493
0.00529208
-0.000156559
0.00529106
-0.000154527
0.00529015
-0.000152399
0.00528934
-0.000150174
0.00528863
-0.000147854
0.00528801
-0.000145441
0.00528747
-0.000142937
0.00528702
-0.000140348
0.00528665
-0.000137677
0.00528635
-0.000134931
0.00528611
-0.000132114
0.00528594
-0.000129234
0.00528582
-0.000126297
0.00528576
-0.000123308
0.00528575
-0.000120274
0.00528579
-0.000117201
0.00528587
-0.000114096
0.00528598
-0.000110963
0.00528613
-0.00010781
0.00528631
-0.000104641
-0.000101463
0.00554959
-0.00047568
0.00552721
-0.000472609
0.00550581
-0.000468416
0.00548541
-0.000463236
0.00546603
-0.0004572
0.00544767
-0.00045043
0.00543032
-0.000443035
0.00541398
-0.000435118
0.00539861
-0.000426766
0.00538421
-0.000418058
0.00537074
-0.000409066
0.00535818
-0.000399853
0.00534648
-0.000390476
0.00533561
-0.000380985
0.00532554
-0.000371427
0.00531623
-0.000361843
0.00530764
-0.000352271
0.00529973
-0.000342743
0.00529246
-0.000333288
0.0052858
-0.000323933
0.00527971
-0.000314698
0.00527416
-0.000305604
0.0052691
-0.000296667
0.00526452
-0.000287899
0.00526038
-0.000279312
0.00525664
-0.000270915
-0.000262715
0.00555256
-0.000453535
0.00553124
-0.000451293
0.00551079
-0.000447966
0.00549123
-0.000443679
0.00547259
-0.000438555
0.00545486
-0.000432706
0.00543806
-0.000426234
0.00542218
-0.000419233
0.0054072
-0.000411786
0.00539311
-0.000403966
0.00537988
-0.000395841
0.0053675
-0.000387469
0.00535592
-0.000378905
0.00534514
-0.000370197
0.0053351
-0.000361391
0.00532578
-0.000352526
0.00531715
-0.000343639
0.00530917
-0.000334762
0.00530181
-0.000325925
0.00529503
-0.000317153
0.0052888
-0.00030847
0.00528309
-0.000299895
0.00527787
-0.000291446
0.00527311
-0.000283136
0.00526877
-0.000274978
0.00526484
-0.000266983
-0.000259157
0.00555472
-0.000432514
0.00553442
-0.000430996
0.00551489
-0.000428433
0.00549615
-0.000424942
0.00547823
-0.000420635
0.00546114
-0.000415617
0.00544489
-0.000409983
0.00542948
-0.00040382
0.0054149
-0.000397204
0.00540114
-0.000390205
0.00538818
-0.000382883
0.005376
-0.000375294
0.00536459
-0.000367491
0.00535391
-0.000359519
0.00534394
-0.000351422
0.00533465
-0.000343237
0.00532602
-0.000335
0.005318
-0.000326744
0.00531057
-0.000318498
0.0053037
-0.000310287
0.00529737
-0.000302135
0.00529154
-0.000294062
0.00528618
-0.000286086
0.00528126
-0.000278222
0.00527677
-0.000270483
0.00527266
-0.00026288
-0.000255423
0.00555617
-0.000412558
0.00553685
-0.000411671
0.0055182
-0.000409781
0.00550025
-0.000406997
0.00548304
-0.000403423
0.00546658
-0.000399156
0.00545088
-0.000394284
0.00543594
-0.000388886
0.00542177
-0.000383033
0.00540836
-0.000376789
0.00539569
-0.000370212
0.00538375
-0.000363353
0.00537252
-0.000356261
0.00536197
-0.000348979
0.0053521
-0.000341548
0.00534287
-0.000334005
0.00533426
-0.000326386
0.00532623
-0.00031872
0.00531877
-0.000311038
0.00531185
-0.000303364
0.00530544
-0.000295722
0.00529951
-0.000288133
0.00529404
-0.000280615
0.005289
-0.000273183
0.00528437
-0.000265851
0.00528012
-0.000258632
-0.000251536
0.005557
-0.000393613
0.0055386
-0.000393273
0.00552079
-0.000391974
0.00550361
-0.000389818
0.00548709
-0.000386901
0.00547125
-0.000383312
0.00545609
-0.000379131
0.00544164
-0.000374432
0.00542789
-0.00036928
0.00541483
-0.000363733
0.00540246
-0.000357845
0.00539077
-0.000351664
0.00537975
-0.000345234
0.00536937
-0.000338599
0.00535961
-0.000331794
0.00535047
-0.000324858
0.0053419
-0.000317822
0.0053339
-0.000310717
0.00532643
-0.000303572
0.00531948
-0.000296411
0.00531302
-0.000289259
0.00530702
-0.000282135
0.00530146
-0.000275058
0.00529632
-0.000268044
0.00529158
-0.000261109
0.00528721
-0.000254263
-0.000247519
0.00555725
-0.000375629
0.00553974
-0.00037576
0.00552274
-0.00037498
0.00550631
-0.000373381
0.00549046
-0.000371051
0.00547522
-0.000368073
0.00546061
-0.000364519
0.00544663
-0.000360458
0.0054333
-0.000355947
0.00542061
-0.000351043
0.00540856
-0.000345792
0.00539713
-0.000340241
0.00538633
-0.00033443
0.00537613
-0.000328398
0.00536652
-0.000322182
0.00535747
-0.000315816
0.00534898
-0.000309332
0.00534103
-0.000302759
0.00533358
-0.000296124
0.00532662
-0.000289453
0.00532013
-0.000282768
0.00531408
-0.000276091
0.00530847
-0.000269439
0.00530325
-0.000262829
0.00529842
-0.000256277
0.00529395
-0.000249794
-0.000243393
0.00555701
-0.000358556
0.00554034
-0.000359091
0.00552412
-0.000358764
0.0055084
-0.000357657
0.0054932
-0.000355852
0.00547855
-0.000353424
0.00546447
-0.000350439
0.00545098
-0.000346959
0.00543807
-0.000343038
0.00542575
-0.000338724
0.00541402
-0.000334063
0.00540287
-0.000329096
0.0053923
-0.00032386
0.0053823
-0.000318393
0.00537285
-0.000312729
0.00536393
-0.0003069
0.00535553
-0.000300936
0.00534764
-0.000294865
0.00534023
-0.000288715
0.00533329
-0.00028251
0.00532679
-0.000276272
0.00532072
-0.000270022
0.00531506
-0.000263778
0.00530979
-0.000257558
0.00530489
-0.000251375
0.00530034
-0.000245244
-0.000239176
0.00555633
-0.000342346
0.00554046
-0.000343226
0.00552499
-0.000343292
0.00550995
-0.00034262
0.00549538
-0.000341283
0.00548131
-0.00033935
0.00546775
-0.000336881
0.00545472
-0.000333932
0.00544224
-0.00033055
0.00543029
-0.00032678
0.00541889
-0.000322664
0.00540803
-0.000318238
0.00539771
-0.000313538
0.00538792
-0.000308598
0.00537864
-0.00030345
0.00536986
-0.000298124
0.00536158
-0.000292651
0.00535377
-0.000287055
0.00534642
-0.000281365
0.00533951
-0.000275602
0.00533303
-0.00026979
0.00532695
-0.000263949
0.00532127
-0.000258096
0.00531596
-0.00025225
0.00531101
-0.000246424
0.0053064
-0.000240632
-0.000234887
0.00555525
-0.000326951
0.00554015
-0.000328124
0.00552539
-0.000328531
0.00551101
-0.000328242
0.00549705
-0.000327323
0.00548354
-0.000325836
0.00547049
-0.000323834
0.00545793
-0.000321368
0.00544586
-0.00031848
0.00543429
-0.000315211
0.00542322
-0.000311597
0.00541266
-0.000307673
0.00540259
-0.000303471
0.00539301
-0.000299022
0.00538392
-0.000294357
0.0053753
-0.000289504
0.00536714
-0.000284492
0.00535943
-0.000279345
0.00535216
-0.000274089
0.0053453
-0.000268746
0.00533885
-0.00026334
0.00533279
-0.000257888
0.0053271
-0.00025241
0.00532177
-0.000246922
0.00531679
-0.000241439
0.00531213
-0.000235975
-0.000230542
0.00555383
-0.000312329
0.00553945
-0.000313748
0.00552537
-0.00031445
0.00551162
-0.000314497
0.00549825
-0.000313951
0.00548528
-0.000312865
0.00547273
-0.000311287
0.00546062
-0.000309261
0.00544897
-0.000306825
0.00543777
-0.000304016
0.00542704
-0.000300866
0.00541678
-0.000297406
0.00540697
-0.000293666
0.00539763
-0.000289675
0.00538873
-0.000285461
0.00538028
-0.000281051
0.00537226
-0.000276472
0.00536466
-0.000271747
0.00535747
-0.000266902
0.00535068
-0.000261957
0.00534428
-0.000256935
0.00533825
-0.000251855
0.00533257
-0.000246734
0.00532724
-0.00024159
0.00532224
-0.000236436
0.00531755
-0.000231288
-0.000226156
0.00555208
-0.000298436
0.00553839
-0.00030006
0.00552496
-0.000301017
0.00551182
-0.000301361
0.00549902
-0.000301146
0.00548658
-0.000300421
0.00547452
-0.000299226
0.00546286
-0.000297602
0.00545161
-0.00029558
0.00544079
-0.000293194
0.00543039
-0.000290471
0.00542043
-0.000287441
0.00541089
-0.000284129
0.00540178
-0.000280564
0.00539309
-0.000276771
0.00538481
-0.000272775
0.00537694
-0.000268602
0.00536947
-0.000264274
0.00536238
-0.000259816
0.00535568
-0.000255248
0.00534933
-0.000250591
0.00534334
-0.000245864
0.00533769
-0.000241084
0.00533237
-0.000236268
0.00532736
-0.00023143
0.00532266
-0.000226584
-0.000221743
0.00555004
-0.000285234
0.00553701
-0.00028703
0.0055242
-0.000288205
0.00551165
-0.00028881
0.00549939
-0.000288891
0.00548746
-0.000288489
0.00547588
-0.000287642
0.00546466
-0.000286383
0.00545382
-0.00028474
0.00544337
-0.000282741
0.00543331
-0.000280412
0.00542364
-0.000277778
0.00541438
-0.000274864
0.00540551
-0.000271694
0.00539703
-0.000268292
0.00538894
-0.000264684
0.00538123
-0.000260891
0.00537389
-0.000256936
0.00536692
-0.000252843
0.0053603
-0.00024863
0.00535403
-0.000244319
0.00534809
-0.000239927
0.00534248
-0.000235471
0.00533718
-0.000230968
0.00533218
-0.000226432
0.00532747
-0.000221877
-0.000217315
0.00554773
-0.00027269
0.00553533
-0.000274627
0.00552311
-0.000275989
0.00551113
-0.000276823
0.0054994
-0.000277167
0.00548797
-0.000277056
0.00547685
-0.000276524
0.00546606
-0.000275596
0.00545562
-0.000274299
0.00544554
-0.000272655
0.00543581
-0.000270688
0.00542645
-0.000268419
0.00541746
-0.000265872
0.00540884
-0.000263069
0.00540058
-0.000260032
0.00539268
-0.000256784
0.00538513
-0.000253346
0.00537794
-0.000249742
0.00537109
-0.000245991
0.00536457
-0.000242114
0.00535838
-0.000238129
0.00535251
-0.000234055
0.00534694
-0.000229907
0.00534168
-0.000225703
0.0053367
-0.000221455
0.005332
-0.000217178
-0.000212884
0.00554518
-0.000260772
0.00553337
-0.000262823
0.00552173
-0.000264347
0.00551029
-0.000265381
0.00549908
-0.000265958
0.00548813
-0.00026611
0.00547747
-0.00026586
0.00546711
-0.000265234
0.00545706
-0.000264251
0.00544734
-0.000262932
0.00543794
-0.000261296
0.00542889
-0.000259364
0.00542017
-0.000257155
0.0054118
-0.000254691
0.00540376
-0.000251992
0.00539605
-0.00024908
0.00538868
-0.000245975
0.00538164
-0.000242698
0.00537492
-0.000239269
0.00536851
-0.000235707
0.00536241
-0.000232031
0.00535661
-0.000228257
0.00535111
-0.000224402
0.00534589
-0.000220481
0.00534094
-0.000216509
0.00533626
-0.000212497
-0.000208459
0.00554239
-0.000249451
0.00553116
-0.000251597
0.00552008
-0.000253258
0.00550916
-0.000254467
0.00549846
-0.000255252
0.00548798
-0.000255636
0.00547776
-0.000255642
0.00546782
-0.000255288
0.00545816
-0.00025459
0.00544879