/*--------------------------------*- C++ -*----------------------------------*\
| =========                 |                                                 |
| \\      /  F ield         | OpenFOAM: The Open Source CFD Toolbox           |
|  \\    /   O peration     | Version:  2412                                  |
|   \\  /    A nd           | Website:  www.openfoam.com                      |
|    \\/     M anipulation  |                                                 |
\*---------------------------------------------------------------------------*/
FoamFile
{
    version     2.0;
    format      ascii;
    arch        "LSB;label=32;scalar=64";
    class       surfaceScalarField;
    location    "16";
    object      phi;
}
// * * * * * * * * * * * * * * * * * * * * * * * * * * * * * * * * * * * * * //

dimensions      [0 3 -1 0 0 0 0];

oriented        oriented;

internalField   nonuniform List<scalar> 
10424
(
0.0049913
-3.73635e-06
4.4648e-10
0.00499487
-3.5745e-06
1.2539e-10
0.00499829
-3.41691e-06
-1.73386e-10
0.00500155
-3.26374e-06
-4.48322e-10
0.00500467
-3.11509e-06
-7.02013e-10
0.00500764
-2.97102e-06
-9.42624e-10
0.00501047
-2.83155e-06
-1.17915e-09
0.00501317
-2.69664e-06
-1.42005e-09
0.00501574
-2.56623e-06
-1.67324e-09
0.00501818
-2.44024e-06
-1.94499e-09
0.0050205
-2.31858e-06
-2.23924e-09
0.00502271
-2.20116e-06
-2.555e-09
0.0050248
-2.08789e-06
-2.88498e-09
0.00502678
-1.97868e-06
-3.21579e-09
0.00502866
-1.87345e-06
-3.53027e-09
0.00503043
-1.77211e-06
-3.8117e-09
0.00503211
-1.67459e-06
-4.04967e-09
0.00503369
-1.5808e-06
-4.24503e-09
0.00503519
-1.49061e-06
-4.41108e-09
0.0050366
-1.40395e-06
-4.56755e-09
0.00503792
-1.3207e-06
-4.72601e-09
0.00503917
-1.24081e-06
-4.87821e-09
0.00504034
-1.16423e-06
-4.99661e-09
0.00504143
-1.09092e-06
-5.04833e-09
0.00504246
-1.02082e-06
-5.01473e-09
0.00504342
-9.53861e-07
-4.91177e-09
0.00504431
-8.89906e-07
-4.79986e-09
0.00504515
-8.28814e-07
-4.76439e-09
0.00504592
-7.70473e-07
-4.85604e-09
0.00504664
-7.14835e-07
-5.06076e-09
0.00504731
-6.61918e-07
-5.29437e-09
0.00504793
-6.11768e-07
-5.44871e-09
0.0050485
-5.64415e-07
-5.43326e-09
0.00504902
-5.19832e-07
-5.22806e-09
0.0050495
-4.77918e-07
-4.88692e-09
0.00504995
-4.38531e-07
-4.5059e-09
0.00505035
-4.0154e-07
-4.16421e-09
0.00505072
-3.66821e-07
-3.93211e-09
0.00505106
-3.34298e-07
-3.82985e-09
0.00505137
-3.03975e-07
-3.81334e-09
0.00505165
-2.75872e-07
-3.81976e-09
0.0050519
-2.50033e-07
-3.77146e-09
0.00505213
-2.26443e-07
-3.63016e-09
0.00505234
-2.05061e-07
-3.47342e-09
0.00505253
-1.85733e-07
-3.35675e-09
0.0050527
-1.68564e-07
-3.37724e-09
0.00505286
-1.53268e-07
-3.45768e-09
0.005053
-1.40552e-07
-3.58421e-09
0.00505314
-1.29356e-07
-3.63525e-09
0.00505326
-1.21903e-07
-3.60259e-09
0.00505338
-1.14665e-07
-3.46836e-09
0.0050535
-1.13905e-07
-3.14773e-09
0.00505361
-1.0985e-07
-2.80604e-09
0.00505373
-1.18027e-07
-2.51129e-09
0.00505385
-1.15403e-07
-2.22626e-09
0.00505399
-1.36958e-07
-1.81661e-09
0.00505412
-1.33927e-07
-1.40789e-09
0.0050543
-1.74462e-07
-9.89832e-10
0.00505447
-1.69696e-07
-6.50997e-10
0.0050547
-2.34278e-07
-2.38298e-11
0.00505493
-2.31181e-07
7.20879e-11
0.00505525
-3.19247e-07
2.34462e-10
0.00505558
-3.30601e-07
5.29613e-10
0.00505602
-4.37665e-07
7.75795e-10
0.00505649
-4.70264e-07
5.89509e-10
0.00505711
-6.25021e-07
7.03276e-10
0.00505773
-6.16742e-07
2.23241e-09
0.00505859
-8.6088e-07
1.81396e-09
0.00505961
-1.028e-06
4.00794e-09
0.00506028
-6.74143e-07
3.0269e-09
-1.26335e-06
4.01449e-09
0.00499134
-7.4692e-06
0.00499491
-7.14594e-06
0.00499832
-6.83121e-06
0.00500158
-6.52531e-06
0.0050047
-6.22843e-06
0.00500767
-5.9407e-06
0.0050105
-5.66215e-06
0.00501319
-5.39272e-06
0.00501576
-5.1323e-06
0.0050182
-4.88073e-06
0.00502052
-4.63784e-06
0.00502272
-4.40344e-06
0.00502481
-4.17734e-06
0.00502679
-3.95935e-06
0.00502867
-3.7493e-06
0.00503044
-3.54701e-06
0.00503212
-3.35229e-06
0.0050337
-3.16496e-06
0.0050352
-2.98483e-06
0.00503661
-2.81172e-06
0.00503793
-2.64545e-06
0.00503918
-2.48588e-06
0.00504034
-2.33289e-06
0.00504144
-2.18637e-06
0.00504247
-2.04619e-06
0.00504342
-1.9122e-06
0.00504432
-1.78421e-06
0.00504515
-1.66203e-06
0.00504593
-1.54547e-06
0.00504665
-1.43443e-06
0.00504731
-1.32886e-06
0.00504793
-1.22874e-06
0.0050485
-1.13405e-06
0.00504902
-1.0447e-06
0.00504951
-9.60546e-07
0.00504995
-8.81409e-07
0.00505036
-8.07104e-07
0.00505073
-7.37449e-07
0.00505106
-6.72318e-07
0.00505137
-6.11671e-07
0.00505165
-5.55483e-07
0.00505191
-5.03766e-07
0.00505214
-4.56451e-07
0.00505234
-4.13539e-07
0.00505253
-3.74774e-07
0.0050527
-3.40466e-07
0.00505286
-3.09963e-07
0.00505301
-2.84664e-07
0.00505314
-2.62328e-07
0.00505326
-2.47394e-07
0.00505338
-2.32787e-07
0.0050535
-2.30954e-07
0.00505361
-2.22503e-07
0.00505373
-2.3857e-07
0.00505385
-2.33032e-07
0.00505399
-2.75745e-07
0.00505412
-2.69257e-07
0.0050543
-3.49929e-07
0.00505447
-3.40028e-07
0.0050547
-4.68605e-07
0.00505494
-4.62271e-07
0.00505525
-6.38278e-07
0.00505558
-6.60716e-07
0.00505602
-8.7439e-07
0.00505649
-9.40643e-07
0.00505711
-1.24769e-06
0.00505773
-1.23491e-06
0.00505859
-1.7159e-06
0.00505961
-2.05249e-06
0.00506029
-1.35381e-06
-2.51994e-06
0.00499142
-1.11959e-05
0.00499498
-1.07115e-05
0.00499839
-1.02399e-05
0.00500165
-9.78163e-06
0.00500476
-9.33687e-06
0.00500772
-8.90581e-06
0.00501055
-8.4885e-06
0.00501324
-8.08486e-06
0.0050158
-7.69472e-06
0.00501824
-7.31785e-06
0.00502055
-6.95399e-06
0.00502275
-6.60284e-06
0.00502484
-6.26413e-06
0.00502682
-5.93758e-06
0.00502869
-5.6229e-06
0.00503047
-5.31983e-06
0.00503214
-5.02808e-06
0.00503372
-4.74738e-06
0.00503522
-4.47745e-06
0.00503662
-4.21802e-06
0.00503795
-3.96885e-06
0.00503919
-3.72971e-06
0.00504036
-3.50042e-06
0.00504145
-3.28078e-06
0.00504248
-3.0706e-06
0.00504343
-2.86967e-06
0.00504433
-2.67773e-06
0.00504516
-2.49452e-06
0.00504593
-2.31982e-06
0.00504665
-2.15344e-06
0.00504732
-1.99527e-06
0.00504794
-1.84523e-06
0.00504851
-1.70324e-06
0.00504903
-1.56917e-06
0.00504951
-1.44282e-06
0.00504995
-1.32397e-06
0.00505036
-1.21238e-06
0.00505073
-1.10783e-06
0.00505107
-1.01011e-06
0.00505138
-9.1917e-07
0.00505165
-8.34922e-07
0.00505191
-7.57352e-07
0.00505214
-6.86336e-07
0.00505235
-6.21913e-07
0.00505254
-5.63728e-07
0.00505271
-5.12295e-07
0.00505286
-4.66596e-07
0.00505301
-4.28728e-07
0.00505314
-3.95263e-07
0.00505327
-3.7286e-07
0.00505338
-3.50885e-07
0.0050535
-3.47986e-07
0.00505361
-3.35136e-07
0.00505373
-3.59108e-07
0.00505385
-3.50648e-07
0.00505399
-4.14547e-07
0.00505413
-4.04573e-07
0.0050543
-5.2543e-07
0.00505447
-5.10333e-07
0.00505471
-7.02986e-07
0.00505494
-6.93326e-07
0.00505526
-9.57356e-07
0.00505559
-9.9092e-07
0.00505602
-1.3108e-06
0.0050565
-1.4124e-06
0.00505711
-1.86714e-06
0.00505774
-1.86024e-06
0.00505859
-2.56299e-06
0.00505961
-3.07797e-06
0.00506031
-2.05021e-06
-3.77116e-06
0.00499154
-1.49134e-05
0.00499509
-1.42682e-05
0.00499849
-1.36403e-05
0.00500174
-1.30301e-05
0.00500484
-1.2438e-05
0.0050078
-1.18641e-05
0.00501062
-1.13085e-05
0.00501331
-1.07711e-05
0.00501586
-1.02517e-05
0.0050183
-9.74991e-06
0.00502061
-9.26546e-06
0.0050228
-8.79793e-06
0.00502489
-8.34695e-06
0.00502686
-7.91214e-06
0.00502873
-7.49313e-06
0.0050305
-7.08954e-06
0.00503217
-6.70101e-06
0.00503375
-6.32717e-06
0.00503524
-5.96765e-06
0.00503665
-5.6221e-06
0.00503797
-5.29021e-06
0.00503921
-4.97168e-06
0.00504038
-4.66623e-06
0.00504147
-4.37362e-06
0.00504249
-4.09358e-06
0.00504345
-3.82582e-06
0.00504434
-3.57005e-06
0.00504517
-3.32592e-06
0.00504595
-3.09317e-06
0.00504666
-2.87154e-06
0.00504733
-2.66086e-06
0.00504794
-2.46098e-06
0.00504851
-2.27177e-06
0.00504904
-2.09304e-06
0.00504952
-1.92456e-06
0.00504996
-1.76605e-06
0.00505037
-1.61723e-06
0.00505074
-1.47782e-06
0.00505107
-1.34757e-06
0.00505138
-1.22637e-06
0.00505166
-1.1141e-06
0.00505191
-1.01071e-06
0.00505214
-9.16025e-07
0.00505235
-8.30121e-07
0.00505254
-7.52542e-07
0.00505271
-6.84007e-07
0.00505287
-6.23132e-07
0.00505301
-5.72713e-07
0.00505314
-5.28133e-07
0.00505327
-4.98277e-07
0.00505339
-4.68942e-07
0.00505351
-4.64992e-07
0.00505362
-4.4774e-07
0.00505374
-4.7964e-07
0.00505386
-4.68245e-07
0.00505399
-5.53368e-07
0.00505413
-5.39862e-07
0.00505431
-7.0097e-07
0.00505448
-6.80588e-07
0.00505471
-9.37435e-07
0.00505494
-9.24317e-07
0.00505526
-1.27649e-06
0.00505559
-1.32124e-06
0.00505603
-1.74673e-06
0.0050565
-1.88614e-06
0.00505712
-2.4819e-06
0.00505775
-2.49593e-06
0.00505859
-3.39863e-06
0.00505961
-4.1049e-06
0.00506033
-2.77082e-06
-5.01462e-06
0.0049917
-1.86186e-05
0.00499524
-1.78133e-05
0.00499863
-1.70296e-05
0.00500187
-1.62681e-05
0.00500496
-1.55293e-05
0.00500791
-1.48132e-05
0.00501072
-1.412e-05
0.0050134
-1.34495e-05
0.00501595
-1.28013e-05
0.00501837
-1.21752e-05
0.00502068
-1.15707e-05
0.00502287
-1.09873e-05
0.00502495
-1.04245e-05
0.00502691
-9.88183e-06
0.00502878
-9.35886e-06
0.00503055
-8.85512e-06
0.00503222
-8.37013e-06
0.00503379
-7.90345e-06
0.00503528
-7.45462e-06
0.00503668
-7.02323e-06
0.005038
-6.60886e-06
0.00503924
-6.21115e-06
0.0050404
-5.82976e-06
0.00504149
-5.46437e-06
0.00504251
-5.11464e-06
0.00504347
-4.78022e-06
0.00504436
-4.46076e-06
0.00504519
-4.15586e-06
0.00504596
-3.86518e-06
0.00504668
-3.58842e-06
0.00504734
-3.32535e-06
0.00504796
-3.07574e-06
0.00504852
-2.8394e-06
0.00504905
-2.61611e-06
0.00504953
-2.40557e-06
0.00504997
-2.20748e-06
0.00505037
-2.0215e-06
0.00505074
-1.84729e-06
0.00505108
-1.68457e-06
0.00505139
-1.53317e-06
0.00505167
-1.39292e-06
0.00505192
-1.26376e-06
0.00505215
-1.14545e-06
0.00505236
-1.0381e-06
0.00505254
-9.41159e-07
0.00505272
-8.55554e-07
0.00505287
-7.79529e-07
0.00505302
-7.16582e-07
0.00505315
-6.60909e-07
0.00505327
-6.23618e-07
0.00505339
-5.86934e-07
0.00505351
-5.8195e-07
0.00505362
-5.603e-07
0.00505374
-6.00153e-07
0.00505386
-5.85809e-07
0.005054
-6.92197e-07
0.00505413
-6.75111e-07
0.00505431
-8.76544e-07
0.00505448
-8.50772e-07
0.00505471
-1.17195e-06
0.00505495
-1.15521e-06
0.00505526
-1.59567e-06
0.0050556
-1.65168e-06
0.00505603
-2.18204e-06
0.00505651
-2.36239e-06
0.00505712
-3.09071e-06
0.00505776
-3.14476e-06
0.00505859
-4.21976e-06
0.00505961
-5.13373e-06
0.00506037
-3.52217e-06
-6.24822e-06
0.00499189
-2.23084e-05
0.00499542
-2.13436e-05
0.0049988
-2.0405e-05
0.00500202
-1.94931e-05
0.0050051
-1.86084e-05
0.00500804
-1.7751e-05
0.00501084
-1.69209e-05
0.00501351
-1.6118e-05
0.00501605
-1.53419e-05
0.00501847
-1.45922e-05
0.00502077
-1.38682e-05
0.00502295
-1.31695e-05
0.00502502
-1.24954e-05
0.00502698
-1.18454e-05
0.00502884
-1.1219e-05
0.0050306
-1.06155e-05
0.00503227
-1.00345e-05
0.00503384
-9.47534e-06
0.00503532
-8.93756e-06
0.00503672
-8.42064e-06
0.00503804
-7.92409e-06
0.00503927
-7.44749e-06
0.00504043
-6.99042e-06
0.00504152
-6.55248e-06
0.00504254
-6.13329e-06
0.00504349
-5.73242e-06
0.00504438
-5.34946e-06
0.00504521
-4.98396e-06
0.00504598
-4.63552e-06
0.00504669
-4.30378e-06
0.00504736
-3.98844e-06
0.00504797
-3.68923e-06
0.00504854
-3.40589e-06
0.00504906
-3.13814e-06
0.00504954
-2.88566e-06
0.00504998
-2.64808e-06
0.00505038
-2.42502e-06
0.00505075
-2.2161e-06
0.00505109
-2.02098e-06
0.00505139
-1.83944e-06
0.00505167
-1.67128e-06
0.00505193
-1.5164e-06
0.00505215
-1.37452e-06
0.00505236
-1.24577e-06
0.00505255
-1.12952e-06
0.00505272
-1.02688e-06
0.00505288
-9.35738e-07
0.00505302
-8.60294e-07
0.00505315
-7.93551e-07
0.00505328
-7.48851e-07
0.0050534
-7.04831e-07
0.00505351
-6.98835e-07
0.00505363
-6.72788e-07
0.00505375
-7.20624e-07
0.00505386
-7.03315e-07
0.005054
-8.31019e-07
0.00505414
-8.10289e-07
0.00505431
-1.05214e-06
0.00505448
-1.02084e-06
0.00505472
-1.40653e-06
0.00505495
-1.38596e-06
0.00505527
-1.91489e-06
0.0050556
-1.98224e-06
0.00505603
-2.6166e-06
0.00505651
-2.84155e-06
0.00505712
-3.69249e-06
0.00505778
-3.80897e-06
0.00505858
-5.02392e-06
0.00505961
-6.16488e-06
0.0050604
-4.3095e-06
-7.47031e-06
0.00499213
-2.59797e-05
0.00499564
-2.48563e-05
0.004999
-2.37638e-05
0.00500221
-2.27025e-05
0.00500528
-2.16729e-05
0.0050082
-2.06752e-05
0.00501099
-1.97093e-05
0.00501365
-1.87749e-05
0.00501618
-1.78717e-05
0.00501858
-1.69991e-05
0.00502087
-1.61564e-05
0.00502304
-1.53431e-05
0.00502511
-1.45584e-05
0.00502706
-1.38017e-05
0.00502892
-1.30723e-05
0.00503067
-1.23697e-05
0.00503233
-1.16931e-05
0.0050339
-1.1042e-05
0.00503537
-1.04156e-05
0.00503677
-9.81358e-06
0.00503808
-9.23522e-06
0.00503931
-8.68006e-06
0.00504047
-8.14761e-06
0.00504155
-7.63742e-06
0.00504257
-7.14902e-06
0.00504352
-6.68195e-06
0.00504441
-6.23571e-06
0.00504523
-5.80982e-06
0.005046
-5.40382e-06
0.00504671
-5.01729e-06
0.00504737
-4.64986e-06
0.00504799
-4.3012e-06
0.00504855
-3.971e-06
0.00504907
-3.65893e-06
0.00504955
-3.36462e-06
0.00504999
-3.08766e-06
0.00505039
-2.82763e-06
0.00505076
-2.58409e-06
0.0050511
-2.35665e-06
0.0050514
-2.14506e-06
0.00505168
-1.94907e-06
0.00505193
-1.76854e-06
0.00505216
-1.60315e-06
0.00505237
-1.45307e-06
0.00505256
-1.31755e-06
0.00505273
-1.19792e-06
0.00505288
-1.09171e-06
0.00505303
-1.00378e-06
0.00505316
-9.26049e-07
0.00505328
-8.73873e-07
0.0050534
-8.22687e-07
0.00505352
-8.15466e-07
0.00505363
-7.85388e-07
0.00505375
-8.40712e-07
0.00505387
-8.21166e-07
0.00505401
-9.69224e-07
0.00505414
-9.46106e-07
0.00505432
-1.22682e-06
0.00505449
-1.19181e-06
0.00505472
-1.63999e-06
0.00505495
-1.61767e-06
0.00505527
-2.23305e-06
0.0050556
-2.31374e-06
0.00505604
-3.04972e-06
0.00505652
-3.32405e-06
0.00505711
-4.2867e-06
0.00505779
-4.48958e-06
0.00505858
-5.81022e-06
0.00505961
-7.19781e-06
0.00506044
-5.13745e-06
-8.67924e-06
0.00523175
-2.9804e-05
0.00523541
-2.85155e-05
0.00523891
-2.72628e-05
0.00524226
-2.60463e-05
0.00524545
-2.48662e-05
0.0052485
-2.37226e-05
0.0052514
-2.26155e-05
0.00525417
-2.15445e-05
0.00525681
-2.05091e-05
0.00525932
-1.95088e-05
0.00526171
-1.85427e-05
0.00526397
-1.76101e-05
0.00526613
-1.67104e-05
0.00526817
-1.58426e-05
0.0052701
-1.50061e-05
0.00527193
-1.42002e-05
0.00527366
-1.34241e-05
0.0052753
-1.26771e-05
0.00527684
-1.19585e-05
0.00527829
-1.12677e-05
0.00527966
-1.06041e-05
0.00528095
-9.96699e-06
0.00528216
-9.35594e-06
0.00528329
-8.77038e-06
0.00528435
-8.20979e-06
0.00528534
-7.67364e-06
0.00528627
-7.16138e-06
0.00528713
-6.67247e-06
0.00528793
-6.20638e-06
0.00528868
-5.76265e-06
0.00528937
-5.34083e-06
0.00529001
-4.94055e-06
0.0052906
-4.56143e-06
0.00529114
-4.20308e-06
0.00529164
-3.8651e-06
0.0052921
-3.54701e-06
0.00529252
-3.24837e-06
0.00529291
-2.96867e-06
0.00529326
-2.70747e-06
0.00529358
-2.46449e-06
0.00529387
-2.23942e-06
0.00529413
-2.0321e-06
0.00529437
-1.84216e-06
0.00529459
-1.66978e-06
0.00529479
-1.51419e-06
0.00529496
-1.37672e-06
0.00529513
-1.25492e-06
0.00529528
-1.1537e-06
0.00529542
-1.06489e-06
0.00529555
-1.00427e-06
0.00529567
-9.46634e-07
0.00529579
-9.3654e-07
0.00529591
-9.04698e-07
0.00529603
-9.64313e-07
0.00529616
-9.47478e-07
0.0052963
-1.11002e-06
0.00529645
-1.09332e-06
0.00529663
-1.40365e-06
0.00529681
-1.3779e-06
0.00529705
-1.87683e-06
0.0052973
-1.86811e-06
0.00529763
-2.55908e-06
0.00529798
-2.66708e-06
0.00529843
-3.49872e-06
0.00529894
-3.83439e-06
0.00529955
-4.90213e-06
0.00530028
-5.21795e-06
0.00530109
-6.61878e-06
0.00530217
-8.27735e-06
0.00530309
-6.05536e-06
-9.9287e-06
0.0052321
-3.3601e-05
0.00523573
-3.21489e-05
0.00523921
-3.07376e-05
0.00524253
-2.93672e-05
0.0052457
-2.80381e-05
0.00524873
-2.67502e-05
0.00525162
-2.55032e-05
0.00525437
-2.4297e-05
0.00525699
-2.31307e-05
0.00525949
-2.20038e-05
0.00526186
-2.09154e-05
0.00526411
-1.98646e-05
0.00526625
-1.88507e-05
0.00526828
-1.78728e-05
0.00527021
-1.693e-05
0.00527203
-1.60215e-05
0.00527375
-1.51466e-05
0.00527538
-1.43044e-05
0.00527692
-1.34942e-05
0.00527836
-1.27152e-05
0.00527973
-1.19668e-05
0.00528101
-1.12483e-05
0.00528221
-1.05591e-05
0.00528334
-9.89861e-06
0.00528439
-9.26622e-06
0.00528538
-8.66134e-06
0.0052863
-8.08339e-06
0.00528716
-7.53176e-06
0.00528796
-7.00588e-06
0.00528871
-6.50521e-06
0.00528939
-6.02926e-06
0.00529003
-5.57758e-06
0.00529062
-5.14975e-06
0.00529116
-4.74532e-06
0.00529166
-4.36384e-06
0.00529212
-4.0048e-06
0.00529254
-3.66769e-06
0.00529292
-3.35197e-06
0.00529327
-3.05716e-06
0.00529359
-2.7829e-06
0.00529388
-2.52887e-06
0.00529414
-2.29486e-06
0.00529438
-2.08047e-06
0.0052946
-1.88586e-06
0.00529479
-1.71027e-06
0.00529497
-1.55504e-06
0.00529513
-1.4177e-06
0.00529528
-1.30323e-06
0.00529542
-1.20343e-06
0.00529555
-1.13432e-06
0.00529567
-1.07041e-06
0.0052958
-1.05723e-06
0.00529591
-1.02402e-06
0.00529604
-1.08739e-06
0.00529616
-1.07406e-06
0.0052963
-1.25005e-06
0.00529645
-1.24112e-06
0.00529663
-1.57936e-06
0.00529681
-1.56482e-06
0.00529705
-2.11231e-06
0.0052973
-2.11943e-06
0.00529763
-2.88379e-06
0.00529798
-3.02129e-06
0.00529843
-3.94591e-06
0.00529894
-4.34857e-06
0.00529955
-5.50837e-06
0.0053003
-5.96579e-06
0.00530108
-7.40618e-06
0.00530217
-9.35957e-06
0.00530313
-7.02154e-06
-1.11629e-05
0.00523249
-3.73673e-05
0.0052361
-3.57532e-05
0.00523954
-3.4185e-05
0.00524284
-3.26626e-05
0.00524599
-3.11861e-05
0.00524899
-2.97554e-05
0.00525186
-2.83703e-05
0.00525459
-2.70302e-05
0.0052572
-2.57344e-05
0.00525967
-2.44823e-05
0.00526203
-2.32728e-05
0.00526427
-2.2105e-05
0.0052664
-2.0978e-05
0.00526842
-1.98908e-05
0.00527033
-1.88427e-05
0.00527214
-1.78326e-05
0.00527385
-1.68596e-05
0.00527547
-1.59229e-05
0.005277
-1.50218e-05
0.00527844
-1.41553e-05
0.0052798
-1.33227e-05
0.00528107
-1.25233e-05
0.00528227
-1.17564e-05
0.00528339
-1.10215e-05
0.00528444
-1.03177e-05
0.00528543
-9.64451e-06
0.00528634
-9.00123e-06
0.0052872
-8.38723e-06
0.005288
-7.80187e-06
0.00528873
-7.24456e-06
0.00528942
-6.71476e-06
0.00529005
-6.21194e-06
0.00529064
-5.73563e-06
0.00529118
-5.28535e-06
0.00529168
-4.86058e-06
0.00529213
-4.46077e-06
0.00529255
-4.08537e-06
0.00529293
-3.73379e-06
0.00529328
-3.4055e-06
0.0052936
-3.10011e-06
0.00529389
-2.81724e-06
0.00529415
-2.55665e-06
0.00529439
-2.31792e-06
0.0052946
-2.10118e-06
0.0052948
-1.90569e-06
0.00529497
-1.73276e-06
0.00529514
-1.57996e-06
0.00529529
-1.4523e-06
0.00529542
-1.34156e-06
0.00529555
-1.264e-06
0.00529568
-1.19385e-06
0.0052958
-1.17762e-06
0.00529592
-1.14303e-06
0.00529604
-1.21023e-06
0.00529617
-1.20034e-06
0.00529631
-1.38987e-06
0.00529645
-1.38857e-06
0.00529663
-1.75491e-06
0.00529681
-1.75129e-06
0.00529705
-2.34768e-06
0.0052973
-2.37016e-06
0.00529763
-3.20834e-06
0.00529798
-3.3752e-06
0.00529843
-4.39182e-06
0.00529894
-4.86622e-06
0.00529954
-6.10513e-06
0.00530031
-6.73345e-06
0.00530107
-8.17185e-06
0.00530216
-1.04458e-05
0.00530317
-8.03446e-06
-1.23828e-05
0.00523293
-4.10994e-05
0.0052365
-3.93252e-05
0.00523992
-3.76019e-05
0.00524318
-3.59294e-05
0.0052463
-3.43075e-05
0.00524928
-3.27359e-05
0.00525213
-3.12142e-05
0.00525484
-2.9742e-05
0.00525742
-2.83183e-05
0.00525988
-2.69423e-05
0.00526222
-2.56131e-05
0.00526445
-2.43295e-05
0.00526656
-2.30906e-05
0.00526857
-2.18954e-05
0.00527047
-2.07429e-05
0.00527227
-1.9632e-05
0.00527397
-1.85619e-05
0.00527558
-1.75317e-05
0.00527709
-1.65403e-05
0.00527853
-1.55869e-05
0.00527987
-1.46708e-05
0.00528114
-1.37912e-05
0.00528233
-1.29472e-05
0.00528345
-1.21383e-05
0.0052845
-1.13636e-05
0.00528547
-1.06226e-05
0.00528639
-9.91439e-06
0.00528724
-9.2384e-06
0.00528803
-8.59392e-06
0.00528877
-7.9803e-06
0.00528945
-7.39694e-06
0.00529008
-6.84328e-06
0.00529066
-6.31876e-06
0.0052912
-5.82287e-06
0.0052917
-5.35504e-06
0.00529215
-4.91467e-06
0.00529256
-4.50117e-06
0.00529294
-4.11391e-06
0.00529329
-3.75231e-06
0.00529361
-3.41593e-06
0.00529389
-3.10437e-06
0.00529416
-2.81733e-06
0.00529439
-2.55438e-06
0.00529461
-2.31562e-06
0.0052948
-2.10031e-06
0.00529498
-1.90978e-06
0.00529514
-1.74159e-06
0.00529529
-1.6008e-06
0.00529543
-1.47917e-06
0.00529555
-1.39322e-06
0.00529568
-1.31685e-06
0.0052958
-1.29762e-06
0.00529592
-1.26166e-06
0.00529604
-1.33275e-06
0.00529616
-1.32623e-06
0.0052963
-1.52942e-06
0.00529645
-1.53558e-06
0.00529663
-1.93022e-06
0.00529681
-1.93718e-06
0.00529705
-2.58283e-06
0.0052973
-2.62016e-06
0.00529762
-3.53263e-06
0.00529798
-3.72862e-06
0.00529842
-4.83639e-06
0.00529894
-5.387e-06
0.00529953
-6.69274e-06
0.00530031
-7.51991e-06
0.00530106
-8.91694e-06
0.00530215
-1.15364e-05
0.00530321
-9.09194e-06
-1.35896e-05
0.0052334
-4.47937e-05
0.00523694
-4.28615e-05
0.00524032
-4.09855e-05
0.00524356
-3.9165e-05
0.00524665
-3.73997e-05
0.0052496
-3.56892e-05
0.00525242
-3.40329e-05
0.00525511
-3.24303e-05
0.00525767
-3.08804e-05
0.00526011
-2.93822e-05
0.00526244
-2.79347e-05
0.00526464
-2.65368e-05
0.00526674
-2.51873e-05
0.00526873
-2.38852e-05
0.00527062
-2.26294e-05
0.0052724
-2.14189e-05
0.00527409
-2.02526e-05
0.00527569
-1.91295e-05
0.0052772
-1.80488e-05
0.00527862
-1.70094e-05
0.00527996
-1.60104e-05
0.00528122
-1.50512e-05
0.0052824
-1.41308e-05
0.00528351
-1.32484e-05
0.00528455
-1.24034e-05
0.00528553
-1.1595e-05
0.00528643
-1.08223e-05
0.00528728
-1.00848e-05
0.00528807
-9.38157e-06
0.0052888
-8.712e-06
0.00528948
-8.07543e-06
0.00529011
-7.47123e-06
0.00529069
-6.8988e-06
0.00529122
-6.35757e-06
0.00529171
-5.84693e-06
0.00529217
-5.36624e-06
0.00529258
-4.91485e-06
0.00529296
-4.49211e-06
0.0052933
-4.09738e-06
0.00529362
-3.73019e-06
0.0052939
-3.39008e-06
0.00529416
-3.07673e-06
0.0052944
-2.78969e-06
0.00529461
-2.52904e-06
0.0052948
-2.29402e-06
0.00529498
-2.08598e-06
0.00529514
-1.90247e-06
0.00529529
-1.74863e-06
0.00529543
-1.61617e-06
0.00529555
-1.52189e-06
0.00529568
-1.43932e-06
0.0052958
-1.41716e-06
0.00529591
-1.3798e-06
0.00529604
-1.45486e-06
0.00529616
-1.45164e-06
0.0052963
-1.6686e-06
0.00529645
-1.68203e-06
0.00529662
-2.10518e-06
0.00529681
-2.12235e-06
0.00529704
-2.81767e-06
0.00529729
-2.86924e-06
0.00529762
-3.85657e-06
0.00529797
-4.08129e-06
0.00529841
-5.27958e-06
0.00529894
-5.91044e-06
0.00529951
-7.27175e-06
0.00530032
-8.32356e-06
0.00530104
-9.64323e-06
0.00530214
-1.26315e-05
0.00530324
-1.01906e-05
-1.47851e-05
0.00523392
-4.84467e-05
0.00523742
-4.63591e-05
0.00524077
-4.43327e-05
0.00524397
-4.23666e-05
0.00524703
-4.04602e-05
0.00524995
-3.86129e-05
0.00525275
-3.68242e-05
0.00525541
-3.50931e-05
0.00525795
-3.34188e-05
0.00526036
-3.18001e-05
0.00526267
-3.0236e-05
0.00526485
-2.87251e-05
0.00526693
-2.72664e-05
0.00526891
-2.58587e-05
0.00527078
-2.45009e-05
0.00527255
-2.31918e-05
0.00527423
-2.19304e-05
0.00527581
-2.07155e-05
0.00527731
-1.95463e-05
0.00527872
-1.84217e-05
0.00528006
-1.73407e-05
0.00528131
-1.63025e-05
0.00528248
-1.53063e-05
0.00528358
-1.43512e-05
0.00528462
-1.34364e-05
0.00528558
-1.25611e-05
0.00528649
-1.17245e-05
0.00528733
-1.09259e-05
0.00528811
-1.01644e-05
0.00528884
-9.43924e-06
0.00528951
-8.74982e-06
0.00529014
-8.09543e-06
0.00529071
-7.47541e-06
0.00529124
-6.88914e-06
0.00529173
-6.33596e-06
0.00529218
-5.8152e-06
0.00529259
-5.32616e-06
0.00529297
-4.86815e-06
0.00529331
-4.44049e-06
0.00529362
-4.04266e-06
0.00529391
-3.67418e-06
0.00529417
-3.33469e-06
0.0052944
-3.0237e-06
0.00529461
-2.74127e-06
0.00529481
-2.48667e-06
0.00529498
-2.26122e-06
0.00529514
-2.06249e-06
0.00529529
-1.89567e-06
0.00529542
-1.75244e-06
0.00529555
-1.64989e-06
0.00529567
-1.56117e-06
0.00529579
-1.53613e-06
0.00529591
-1.49737e-06
0.00529603
-1.57647e-06
0.00529616
-1.57646e-06
0.0052963
-1.80732e-06
0.00529644
-1.82779e-06
0.00529662
-2.2797e-06
0.0052968
-2.30665e-06
0.00529703
-3.05209e-06
0.00529728
-3.1172e-06
0.00529761
-4.18003e-06
0.00529796
-4.43296e-06
0.0052984
-5.72137e-06
0.00529893
-6.43594e-06
0.0052995
-7.84291e-06
0.00530032
-9.14235e-06
0.00530102
-1.03529e-05
0.00530212
-1.37314e-05
0.00530326
-1.1326e-05
-1.59713e-05
0.00523449
-5.2055e-05
0.00523794
-4.98147e-05
0.00524125
-4.76406e-05
0.00524441
-4.55315e-05
0.00524744
-4.34865e-05
0.00525033
-4.15049e-05
0.00525309
-3.95858e-05
0.00525573
-3.77284e-05
0.00525824
-3.59317e-05
0.00526064
-3.41943e-05
0.00526292
-3.25153e-05
0.00526508
-3.08931e-05
0.00526714
-2.93267e-05
0.0052691
-2.78148e-05
0.00527096
-2.63562e-05
0.00527271
-2.49497e-05
0.00527438
-2.35943e-05
0.00527595
-2.22887e-05
0.00527744
-2.10319e-05
0.00527884
-1.9823e-05
0.00528016
-1.86608e-05
0.0052814
-1.75445e-05
0.00528257
-1.64732e-05
0.00528366
-1.5446e-05
0.00528469
-1.4462e-05
0.00528565
-1.35205e-05
0.00528654
-1.26205e-05
0.00528738
-1.17612e-05
0.00528815
-1.09418e-05
0.00528888
-1.01616e-05
0.00528955
-9.41972e-06
0.00529017
-8.7155e-06
0.00529074
-8.04824e-06
0.00529127
-7.41725e-06
0.00529175
-6.82184e-06
0.0052922
-6.26128e-06
0.00529261
-5.73485e-06
0.00529298
-5.24179e-06
0.00529332
-4.78142e-06
0.00529363
-4.35316e-06
0.00529392
-3.95649e-06
0.00529417
-3.59102e-06
0.0052944
-3.25623e-06
0.00529462
-2.95218e-06
0.00529481
-2.67811e-06
0.00529498
-2.43536e-06
0.00529514
-2.22151e-06
0.00529529
-2.04181e-06
0.00529542
-1.88788e-06
0.00529555
-1.77713e-06
0.00529567
-1.68227e-06
0.00529579
-1.65442e-06
0.00529591
-1.61425e-06
0.00529603
-1.69746e-06
0.00529615
-1.70058e-06
0.00529629
-1.94546e-06
0.00529643
-1.97275e-06
0.00529661
-2.45366e-06
0.00529679
-2.48993e-06
0.00529702
-3.28595e-06
0.00529727
-3.36387e-06
0.00529759
-4.5029e-06
0.00529794
-4.78335e-06
0.00529838
-6.16172e-06
0.00529891
-6.96284e-06
0.00529948
-8.40712e-06
0.00530031
-9.9739e-06
0.005301
-1.10486e-05
0.00530211
-1.48362e-05
0.00530328
-1.24932e-05
-1.71509e-05
0.00523509
-5.56153e-05
0.0052385
-5.32253e-05
0.00524177
-5.09065e-05
0.00524489
-4.86571e-05
0.00524788
-4.64762e-05
0.00525074
-4.43627e-05
0.00525347
-4.23157e-05
0.00525608
-4.03342e-05
0.00525856
-3.84171e-05
0.00526093
-3.65631e-05
0.00526319
-3.47709e-05
0.00526533
-3.30392e-05
0.00526737
-3.13667e-05
0.00526931
-2.9752e-05
0.00527115
-2.81941e-05
0.00527289
-2.66915e-05
0.00527454
-2.52432e-05
0.0052761
-2.3848e-05
0.00527757
-2.25047e-05
0.00527896
-2.12124e-05
0.00528027
-1.99699e-05
0.0052815
-1.87763e-05
0.00528266
-1.76307e-05
0.00528374
-1.65321e-05
0.00528476
-1.54796e-05
0.00528571
-1.44724e-05
0.0052866
-1.35096e-05
0.00528743
-1.25902e-05
0.0052882
-1.17135e-05
0.00528892
-1.08786e-05
0.00528958
-1.00847e-05
0.0052902
-9.33109e-06
0.00529077
-8.61696e-06
0.00529129
-7.9416e-06
0.00529178
-7.30427e-06
0.00529222
-6.70421e-06
0.00529262
-6.14065e-06
0.005293
-5.61281e-06
0.00529333
-5.11996e-06
0.00529364
-4.66148e-06
0.00529392
-4.23682e-06
0.00529418
-3.84555e-06
0.00529441
-3.48713e-06
0.00529462
-3.16161e-06
0.00529481
-2.86821e-06
0.00529498
-2.60829e-06
0.00529514
-2.37941e-06
0.00529528
-2.18692e-06
0.00529542
-2.02236e-06
0.00529554
-1.90349e-06
0.00529566
-1.80254e-06
0.00529578
-1.77194e-06
0.0052959
-1.73033e-06
0.00529602
-1.81775e-06
0.00529614
-1.82388e-06
0.00529628
-2.08291e-06
0.00529642
-2.11677e-06
0.0052966
-2.62693e-06
0.00529678
-2.67204e-06
0.00529701
-3.51914e-06
0.00529726
-3.60902e-06
0.00529758
-4.82504e-06
0.00529793
-5.13215e-06
0.00529837
-6.60066e-06
0.00529889
-7.49038e-06
0.00529945
-8.96537e-06
0.00530029
-1.08157e-05
0.00530098
-1.17328e-05
0.00530209
-1.59459e-05
0.00530328
-1.3687e-05
-1.83268e-05
0.00523574
-5.91243e-05
0.0052391
-5.65879e-05
0.00524232
-5.41274e-05
0.0052454
-5.17409e-05
0.00524835
-4.94268e-05
0.00525118
-4.71841e-05
0.00525387
-4.50118e-05
0.00525645
-4.29086e-05
0.0052589
-4.08734e-05
0.00526124
-3.89048e-05
0.00526347
-3.70014e-05
0.0052656
-3.5162e-05
0.00526762
-3.3385e-05
0.00526953
-3.16692e-05
0.00527135
-3.00133e-05
0.00527308
-2.8416e-05
0.00527471
-2.68762e-05
0.00527625
-2.53925e-05
0.00527771
-2.39638e-05
0.00527909
-2.25891e-05
0.00528039
-2.12673e-05
0.00528161
-1.99973e-05
0.00528276
-1.87781e-05
0.00528383
-1.76089e-05
0.00528484
-1.64886e-05
0.00528579
-1.54164e-05
0.00528667
-1.43913e-05
0.00528749
-1.34125e-05
0.00528825
-1.2479e-05
0.00528897
-1.15899e-05
0.00528963
-1.07445e-05
0.00529024
-9.94182e-06
0.0052908
-9.18121e-06
0.00529132
-8.46184e-06
0.0052918
-7.78294e-06
0.00529224
-7.1437e-06
0.00529264
-6.54331e-06
0.00529301
-5.98096e-06
0.00529335
-5.45588e-06
0.00529365
-4.96741e-06
0.00529393
-4.51497e-06
0.00529418
-4.09809e-06
0.00529441
-3.71623e-06
0.00529462
-3.3694e-06
0.00529481
-3.05681e-06
0.00529498
-2.77984e-06
0.00529514
-2.53605e-06
0.00529528
-2.33088e-06
0.00529541
-2.15576e-06
0.00529554
-2.02885e-06
0.00529566
-1.92185e-06
0.00529577
-1.88857e-06
0.00529589
-1.84552e-06
0.00529601
-1.9372e-06
0.00529613
-1.94625e-06
0.00529627
-2.21957e-06
0.00529641
-2.25972e-06
0.00529658
-2.7994e-06
0.00529676
-2.85281e-06
0.005297
-3.75151e-06
0.00529724
-3.85246e-06
0.00529756
-5.14633e-06
0.00529791
-5.47905e-06
0.00529835
-7.03817e-06
0.00529887
-8.01778e-06
0.00529943
-9.51867e-06
0.00530028
-1.1665e-05
0.00530095
-1.24084e-05
0.00530207
-1.70608e-05
0.00530328
-1.4902e-05
-1.9502e-05
0.00523642
-6.25786e-05
0.00523974
-5.98994e-05
0.00524291
-5.73008e-05
0.00524595
-5.47802e-05
0.00524886
-5.23361e-05
0.00525164
-4.99671e-05
0.0052543
-4.7672e-05
0.00525684
-4.54497e-05
0.00525927
-4.32987e-05
0.00526158
-4.12177e-05
0.00526378
-3.92052e-05
0.00526588
-3.72599e-05
0.00526788
-3.53803e-05
0.00526977
-3.3565e-05
0.00527157
-3.18127e-05
0.00527328
-3.01222e-05
0.00527489
-2.84921e-05
0.00527642
-2.69212e-05
0.00527787
-2.54083e-05
0.00527923
-2.39523e-05
0.00528052
-2.25521e-05
0.00528172
-2.12066e-05
0.00528286
-1.99148e-05
0.00528393
-1.86757e-05
0.00528493
-1.74884e-05
0.00528586
-1.63519e-05
0.00528674
-1.52653e-05
0.00528755
-1.42275e-05
0.00528831
-1.32377e-05
0.00528902
-1.2295e-05
0.00528967
-1.13985e-05
0.00529028
-1.05473e-05
0.00529084
-9.74065e-06
0.00529135
-8.97768e-06
0.00529183
-8.25757e-06
0.00529226
-7.57949e-06
0.00529266
-6.94258e-06
0.00529303
-6.346e-06
0.00529336
-5.78895e-06
0.00529366
-5.27075e-06
0.00529394
-4.79075e-06
0.00529419
-4.34848e-06
0.00529442
-3.94336e-06
0.00529462
-3.57539e-06
0.00529481
-3.24377e-06
0.00529498
-2.9499e-06
0.00529513
-2.69132e-06
0.00529528
-2.47357e-06
0.00529541
-2.28798e-06
0.00529553
-2.15311e-06
0.00529565
-2.04009e-06
0.00529577
-2.0042e-06
0.00529588
-1.95969e-06
0.005296
-2.05573e-06
0.00529612
-2.06758e-06
0.00529626
-2.3553e-06