/*--------------------------------*- C++ -*----------------------------------*\
| =========                 |                                                 |
| \\      /  F ield         | OpenFOAM: The Open Source CFD Toolbox           |
|  \\    /   O peration     | Version:  2412                                  |
|   \\  /    A nd           | Website:  www.openfoam.com                      |
|    \\/     M anipulation  |                                                 |
\*---------------------------------------------------------------------------*/
FoamFile
{
    version     2.0;
    format      ascii;
    arch        "LSB;label=32;scalar=64";
    class       volVectorField;
    location    "16";
    object      U;
}
// * * * * * * * * * * * * * * * * * * * * * * * * * * * * * * * * * * * * * //

dimensions      [0 1 -1 0 0 0 0];

internalField   nonuniform List<vector> 
5285
(
(0.0987869 -1.55502e-05 0)
(0.0988593 -1.45836e-05 0)
(0.0989284 -1.36661e-05 0)
(0.0989945 -1.27964e-05 0)
(0.0990577 -1.1973e-05 0)
(0.0991179 -1.11943e-05 0)
(0.0991753 -1.04585e-05 0)
(0.09923 -9.76372e-06 0)
(0.0992821 -9.10816e-06 0)
(0.0993317 -8.4899e-06 0)
(0.0993788 -7.90709e-06 0)
(0.0994236 -7.35799e-06 0)
(0.0994661 -6.84094e-06 0)
(0.0995063 -6.35441e-06 0)
(0.0995445 -5.89693e-06 0)
(0.0995806 -5.46712e-06 0)
(0.0996148 -5.06358e-06 0)
(0.0996471 -4.68495e-06 0)
(0.0996776 -4.32985e-06 0)
(0.0997063 -3.99695e-06 0)
(0.0997333 -3.68501e-06 0)
(0.0997587 -3.39301e-06 0)
(0.0997826 -3.12003e-06 0)
(0.099805 -2.86526e-06 0)
(0.099826 -2.62783e-06 0)
(0.0998456 -2.40672e-06 0)
(0.099864 -2.20078e-06 0)
(0.0998811 -2.00878e-06 0)
(0.099897 -1.82974e-06 0)
(0.0999117 -1.66302e-06 0)
(0.0999255 -1.50831e-06 0)
(0.0999382 -1.36544e-06 0)
(0.0999499 -1.23415e-06 0)
(0.0999607 -1.11389e-06 0)
(0.0999707 -1.00382e-06 0)
(0.0999798 -9.02987e-07 0)
(0.0999882 -8.10527e-07 0)
(0.0999959 -7.25667e-07 0)
(0.100003 -6.47875e-07 0)
(0.100009 -5.76919e-07 0)
(0.100015 -5.12636e-07 0)
(0.10002 -4.54938e-07 0)
(0.100025 -4.03547e-07 0)
(0.100029 -3.57946e-07 0)
(0.100033 -3.17481e-07 0)
(0.100037 -2.81918e-07 0)
(0.10004 -2.50661e-07 0)
(0.100043 -2.24677e-07 0)
(0.100046 -2.02182e-07 0)
(0.100048 -1.86517e-07 0)
(0.100051 -1.71877e-07 0)
(0.100052 -1.67842e-07 0)
(0.100056 -1.59034e-07 0)
(0.100056 -1.68254e-07 0)
(0.100062 -1.61613e-07 0)
(0.100059 -1.89193e-07 0)
(0.10007 -1.81884e-07 0)
(0.100061 -2.33421e-07 0)
(0.100081 -2.23007e-07 0)
(0.100064 -3.02966e-07 0)
(0.100095 -2.93227e-07 0)
(0.100069 -3.97152e-07 0)
(0.100112 -4.03548e-07 0)
(0.100078 -5.23922e-07 0)
(0.100132 -5.51359e-07 0)
(0.100095 -7.19089e-07 0)
(0.100156 -6.95886e-07 0)
(0.100121 -9.53413e-07 0)
(0.100189 -1.11672e-06 0)
(0.100163 -7.16171e-07 0)
(0.100214 -1.31902e-06 0)
(0.0987878 -4.66303e-05 0)
(0.09886 -4.37369e-05 0)
(0.0989291 -4.099e-05 0)
(0.0989952 -3.83859e-05 0)
(0.0990583 -3.59203e-05 0)
(0.0991184 -3.35884e-05 0)
(0.0991758 -3.13849e-05 0)
(0.0992305 -2.93046e-05 0)
(0.0992826 -2.73418e-05 0)
(0.0993321 -2.54909e-05 0)
(0.0993792 -2.37465e-05 0)
(0.0994239 -2.21033e-05 0)
(0.0994664 -2.05563e-05 0)
(0.0995066 -1.91007e-05 0)
(0.0995448 -1.77318e-05 0)
(0.0995809 -1.64453e-05 0)
(0.099615 -1.5237e-05 0)
(0.0996473 -1.41027e-05 0)
(0.0996777 -1.30386e-05 0)
(0.0997064 -1.20409e-05 0)
(0.0997335 -1.11061e-05 0)
(0.0997589 -1.02309e-05 0)
(0.0997828 -9.41236e-06 0)
(0.0998052 -8.6477e-06 0)
(0.0998261 -7.93413e-06 0)
(0.0998457 -7.26888e-06 0)
(0.0998641 -6.64909e-06 0)
(0.0998811 -6.07192e-06 0)
(0.099897 -5.53486e-06 0)
(0.0999118 -5.03578e-06 0)
(0.0999255 -4.57297e-06 0)
(0.0999382 -4.14488e-06 0)
(0.0999499 -3.74997e-06 0)
(0.0999608 -3.38652e-06 0)
(0.0999707 -3.05258e-06 0)
(0.0999799 -2.74613e-06 0)
(0.0999883 -2.46527e-06 0)
(0.0999959 -2.2082e-06 0)
(0.100003 -1.97345e-06 0)
(0.100009 -1.7599e-06 0)
(0.100015 -1.56655e-06 0)
(0.10002 -1.39255e-06 0)
(0.100025 -1.23682e-06 0)
(0.100029 -1.0984e-06 0)
(0.100033 -9.75732e-07 0)
(0.100037 -8.68741e-07 0)
(0.10004 -7.7507e-07 0)
(0.100043 -6.9751e-07 0)
(0.100046 -6.29901e-07 0)
(0.100048 -5.82249e-07 0)
(0.100051 -5.37062e-07 0)
(0.100052 -5.22598e-07 0)
(0.100056 -4.93772e-07 0)
(0.100056 -5.19394e-07 0)
(0.100062 -4.97557e-07 0)
(0.100059 -5.77763e-07 0)
(0.10007 -5.53382e-07 0)
(0.100061 -7.05606e-07 0)
(0.100081 -6.72448e-07 0)
(0.100064 -9.09048e-07 0)
(0.100095 -8.79303e-07 0)
(0.100069 -1.1903e-06 0)
(0.100112 -1.20812e-06 0)
(0.100078 -1.56786e-06 0)
(0.100132 -1.65215e-06 0)
(0.100095 -2.15213e-06 0)
(0.100156 -2.08176e-06 0)
(0.100121 -2.84772e-06 0)
(0.100188 -3.33334e-06 0)
(0.100163 -2.14485e-06 0)
(0.100214 -3.93748e-06 0)
(0.0987894 -7.76722e-05 0)
(0.0988615 -7.28542e-05 0)
(0.0989306 -6.82805e-05 0)
(0.0989965 -6.39446e-05 0)
(0.0990595 -5.98394e-05 0)
(0.0991196 -5.59566e-05 0)
(0.0991769 -5.22879e-05 0)
(0.0992314 -4.8824e-05 0)
(0.0992834 -4.55559e-05 0)
(0.0993329 -4.24743e-05 0)
(0.0993799 -3.957e-05 0)
(0.0994246 -3.68343e-05 0)
(0.099467 -3.42587e-05 0)
(0.0995072 -3.18351e-05 0)
(0.0995453 -2.9556e-05 0)
(0.0995814 -2.74139e-05 0)
(0.0996155 -2.54017e-05 0)
(0.0996477 -2.35127e-05 0)
(0.0996781 -2.17404e-05 0)
(0.0997068 -2.00786e-05 0)
(0.0997338 -1.85215e-05 0)
(0.0997592 -1.70637e-05 0)
(0.099783 -1.57001e-05 0)
(0.0998054 -1.4426e-05 0)
(0.0998263 -1.32368e-05 0)
(0.0998459 -1.21277e-05 0)
(0.0998642 -1.10944e-05 0)
(0.0998813 -1.01324e-05 0)
(0.0998972 -9.23762e-06 0)
(0.099912 -8.40646e-06 0)
(0.0999257 -7.63578e-06 0)
(0.0999383 -6.92268e-06 0)
(0.0999501 -6.26434e-06 0)
(0.0999609 -5.65788e-06 0)
(0.0999708 -5.10022e-06 0)
(0.09998 -4.58829e-06 0)
(0.0999883 -4.11914e-06 0)
(0.099996 -3.68999e-06 0)
(0.100003 -3.29838e-06 0)
(0.100009 -2.94233e-06 0)
(0.100015 -2.61999e-06 0)
(0.10002 -2.32977e-06 0)
(0.100025 -2.06976e-06 0)
(0.10003 -1.83858e-06 0)
(0.100033 -1.63375e-06 0)
(0.100037 -1.45537e-06 0)
(0.10004 -1.29933e-06 0)
(0.100043 -1.17022e-06 0)
(0.100046 -1.05753e-06 0)
(0.100048 -9.77918e-07 0)
(0.100051 -9.02199e-07 0)
(0.100053 -8.7732e-07 0)
(0.100057 -8.28485e-07 0)
(0.100056 -8.70524e-07 0)
(0.100063 -8.33502e-07 0)
(0.100059 -9.66351e-07 0)
(0.10007 -9.24883e-07 0)
(0.100062 -1.17782e-06 0)
(0.100081 -1.12188e-06 0)
(0.100064 -1.51519e-06 0)
(0.100095 -1.46536e-06 0)
(0.100069 -1.9835e-06 0)
(0.100112 -2.0129e-06 0)
(0.100078 -2.61119e-06 0)
(0.100132 -2.75542e-06 0)
(0.100095 -3.57954e-06 0)
(0.100156 -3.47993e-06 0)
(0.100121 -4.72869e-06 0)
(0.100188 -5.55154e-06 0)
(0.100164 -3.60066e-06 0)
(0.100214 -6.54739e-06 0)
(0.0987919 -0.00010865 0)
(0.0988638 -0.000101911 0)
(0.0989327 -9.55153e-05 0)
(0.0989984 -8.9452e-05 0)
(0.0990613 -8.37113e-05 0)
(0.0991212 -7.82818e-05 0)
(0.0991784 -7.31515e-05 0)
(0.0992329 -6.83078e-05 0)
(0.0992847 -6.37377e-05 0)
(0.0993341 -5.94283e-05 0)
(0.099381 -5.53669e-05 0)
(0.0994256 -5.15411e-05 0)
(0.0994679 -4.79392e-05 0)
(0.099508 -4.455e-05 0)
(0.0995461 -4.13625e-05 0)
(0.0995821 -3.83664e-05 0)
(0.0996161 -3.5552e-05 0)
(0.0996483 -3.29096e-05 0)
(0.0996787 -3.04304e-05 0)
(0.0997073 -2.81057e-05 0)
(0.0997342 -2.59274e-05 0)
(0.0997596 -2.38879e-05 0)
(0.0997834 -2.19802e-05 0)
(0.0998058 -2.01975e-05 0)
(0.0998267 -1.85332e-05 0)
(0.0998462 -1.69811e-05 0)
(0.0998645 -1.55348e-05 0)
(0.0998816 -1.41885e-05 0)
(0.0998974 -1.29364e-05 0)
(0.0999122 -1.17736e-05 0)
(0.0999259 -1.06955e-05 0)
(0.0999385 -9.69772e-06 0)
(0.0999502 -8.77629e-06 0)
(0.099961 -7.92709e-06 0)
(0.099971 -7.14598e-06 0)
(0.0999801 -6.4288e-06 0)
(0.0999885 -5.77157e-06 0)
(0.0999961 -5.17052e-06 0)
(0.100003 -4.62221e-06 0)
(0.100009 -4.12381e-06 0)
(0.100015 -3.67262e-06 0)
(0.100021 -3.2663e-06 0)
(0.100025 -2.90212e-06 0)
(0.10003 -2.57828e-06 0)
(0.100034 -2.29137e-06 0)
(0.100037 -2.04169e-06 0)
(0.10004 -1.82333e-06 0)
(0.100043 -1.64273e-06 0)
(0.100046 -1.48501e-06 0)
(0.100048 -1.37347e-06 0)
(0.100051 -1.26724e-06 0)
(0.100053 -1.23198e-06 0)
(0.100057 -1.16313e-06 0)
(0.100056 -1.22164e-06 0)
(0.100063 -1.16941e-06 0)
(0.100059 -1.35499e-06 0)
(0.10007 -1.29634e-06 0)
(0.100062 -1.65014e-06 0)
(0.100081 -1.57121e-06 0)
(0.100064 -2.1215e-06 0)
(0.100095 -2.0513e-06 0)
(0.100069 -2.77683e-06 0)
(0.100112 -2.81793e-06 0)
(0.100078 -3.65357e-06 0)
(0.100132 -3.86267e-06 0)
(0.100095 -4.99778e-06 0)
(0.100156 -4.89803e-06 0)
(0.100122 -6.58805e-06 0)
(0.100187 -7.7724e-06 0)
(0.100164 -5.10038e-06 0)
(0.100214 -9.14349e-06 0)
(0.0987951 -0.000139539 0)
(0.0988669 -0.000130885 0)
(0.0989355 -0.000122672 0)
(0.099001 -0.000114888 0)
(0.0990637 -0.000107517 0)
(0.0991234 -0.000100547 0)
(0.0991804 -9.39603e-05 0)
(0.0992347 -8.77417e-05 0)
(0.0992864 -8.18742e-05 0)
(0.0993357 -7.63412e-05 0)
(0.0993825 -7.11265e-05 0)
(0.0994269 -6.62143e-05 0)
(0.0994691 -6.15894e-05 0)
(0.0995092 -5.72373e-05 0)
(0.0995471 -5.31441e-05 0)
(0.099583 -4.92966e-05 0)
(0.099617 -4.56821e-05 0)
(0.0996491 -4.22884e-05 0)
(0.0996794 -3.9104e-05 0)
(0.099708 -3.6118e-05 0)
(0.0997349 -3.332e-05 0)
(0.0997602 -3.07002e-05 0)
(0.0997839 -2.82495e-05 0)
(0.0998062 -2.59593e-05 0)
(0.0998271 -2.3821e-05 0)
(0.0998466 -2.18266e-05 0)
(0.0998649 -1.99683e-05 0)
(0.0998819 -1.82383e-05 0)
(0.0998977 -1.66297e-05 0)
(0.0999125 -1.51359e-05 0)
(0.0999261 -1.37508e-05 0)
(0.0999388 -1.24689e-05 0)
(0.0999504 -1.12848e-05 0)
(0.0999612 -1.01933e-05 0)
(0.0999712 -9.18906e-06 0)
(0.0999803 -8.26695e-06 0)
(0.0999886 -7.42194e-06 0)
(0.0999963 -6.64924e-06 0)
(0.100003 -5.94448e-06 0)
(0.10001 -5.30394e-06 0)
(0.100015 -4.7241e-06 0)
(0.100021 -4.20184e-06 0)
(0.100025 -3.73365e-06 0)
(0.10003 -3.31728e-06 0)
(0.100034 -2.94842e-06 0)
(0.100037 -2.62753e-06 0)
(0.10004 -2.34693e-06 0)
(0.100043 -2.11494e-06 0)
(0.100046 -1.91222e-06 0)
(0.100048 -1.76886e-06 0)
(0.100051 -1.63209e-06 0)
(0.100053 -1.58659e-06 0)
(0.100057 -1.4976e-06 0)
(0.100056 -1.57284e-06 0)
(0.100063 -1.50509e-06 0)
(0.100059 -1.74388e-06 0)
(0.10007 -1.66744e-06 0)
(0.100062 -2.12289e-06 0)
(0.100081 -2.02003e-06 0)
(0.100064 -2.72838e-06 0)
(0.100095 -2.63664e-06 0)
(0.100069 -3.57065e-06 0)
(0.100112 -3.62298e-06 0)
(0.100078 -4.69483e-06 0)
(0.100132 -4.97518e-06 0)
(0.100096 -6.40359e-06 0)
(0.100156 -6.34306e-06 0)
(0.100122 -8.41818e-06 0)
(0.100187 -9.99718e-06 0)
(0.100165 -6.65875e-06 0)
(0.100215 -1.17212e-05 0)
(0.0987992 -0.000170312 0)
(0.0988706 -0.000159751 0)
(0.098939 -0.000149729 0)
(0.0990043 -0.000140231 0)
(0.0990666 -0.000131239 0)
(0.0991262 -0.000122735 0)
(0.0991829 -0.000114699 0)
(0.0992371 -0.000107112 0)
(0.0992886 -9.99525e-05 0)
(0.0993376 -9.32015e-05 0)
(0.0993843 -8.68385e-05 0)
(0.0994286 -8.08443e-05 0)
(0.0994707 -7.52005e-05 0)
(0.0995106 -6.98893e-05 0)
(0.0995484 -6.48939e-05 0)
(0.0995842 -6.0198e-05 0)
(0.0996181 -5.57861e-05 0)
(0.0996501 -5.16437e-05 0)
(0.0996803 -4.77565e-05 0)
(0.0997088 -4.41113e-05 0)
(0.0997356 -4.06954e-05 0)
(0.0997609 -3.74971e-05 0)
(0.0997846 -3.4505e-05 0)
(0.0998068 -3.17086e-05 0)
(0.0998276 -2.90976e-05 0)
(0.0998471 -2.66622e-05 0)
(0.0998653 -2.43927e-05 0)
(0.0998823 -2.22801e-05 0)
(0.0998981 -2.03158e-05 0)
(0.0999128 -1.84917e-05 0)
(0.0999264 -1.68004e-05 0)
(0.099939 -1.52349e-05 0)
(0.0999507 -1.37888e-05 0)
(0.0999615 -1.24555e-05 0)
(0.0999714 -1.12286e-05 0)
(0.0999805 -1.0102e-05 0)
(0.0999888 -9.0696e-06 0)
(0.0999964 -8.1256e-06 0)
(0.100003 -7.26469e-06 0)
(0.10001 -6.48229e-06 0)
(0.100016 -5.77403e-06 0)
(0.100021 -5.13606e-06 0)
(0.100026 -4.56407e-06 0)
(0.10003 -4.05535e-06 0)
(0.100034 -3.60467e-06 0)
(0.100037 -3.21272e-06 0)
(0.100041 -2.86998e-06 0)
(0.100043 -2.58672e-06 0)
(0.100046 -2.33904e-06 0)
(0.100049 -2.16401e-06 0)
(0.100052 -1.99662e-06 0)
(0.100053 -1.94112e-06 0)
(0.100057 -1.83173e-06 0)
(0.100056 -1.92419e-06 0)
(0.100063 -1.84033e-06 0)
(0.100059 -2.13319e-06 0)
(0.100071 -2.03788e-06 0)
(0.100062 -2.59633e-06 0)
(0.100081 -2.4679e-06 0)
(0.100064 -3.33619e-06 0)
(0.100095 -3.22094e-06 0)
(0.100069 -4.36528e-06 0)
(0.100112 -4.4278e-06 0)
(0.100078 -5.73476e-06 0)
(0.100132 -6.09403e-06 0)
(0.100096 -7.79419e-06 0)
(0.100156 -7.82091e-06 0)
(0.100123 -1.02127e-05 0)
(0.100186 -1.22271e-05 0)
(0.100166 -8.28821e-06 0)
(0.100215 -1.42767e-05 0)
(0.0988041 -0.000200944 0)
(0.0988752 -0.000188485 0)
(0.0989432 -0.000176664 0)
(0.0990081 -0.000165462 0)
(0.0990702 -0.000154857 0)
(0.0991295 -0.000144828 0)
(0.099186 -0.000135352 0)
(0.0992398 -0.000126403 0)
(0.0992912 -0.00011796 0)
(0.09934 -0.000109997 0)
(0.0993864 -0.000102492 0)
(0.0994306 -9.54216e-05 0)
(0.0994725 -8.87639e-05 0)
(0.0995122 -8.24982e-05 0)
(0.0995499 -7.66046e-05 0)
(0.0995856 -7.10641e-05 0)
(0.0996194 -6.58584e-05 0)
(0.0996513 -6.09702e-05 0)
(0.0996814 -5.63831e-05 0)
(0.0997098 -5.20812e-05 0)
(0.0997365 -4.80498e-05 0)
(0.0997617 -4.4275e-05 0)
(0.0997853 -4.07435e-05 0)
(0.0998075 -3.74426e-05 0)
(0.0998283 -3.43605e-05 0)
(0.0998477 -3.14853e-05 0)
(0.0998659 -2.88061e-05 0)
(0.0998828 -2.6312e-05 0)
(0.0998985 -2.3993e-05 0)
(0.0999132 -2.18396e-05 0)
(0.0999268 -1.98429e-05 0)
(0.0999394 -1.79947e-05 0)
(0.099951 -1.62872e-05 0)
(0.0999617 -1.47128e-05 0)
(0.0999716 -1.32639e-05 0)
(0.0999807 -1.19333e-05 0)
(0.099989 -1.07139e-05 0)
(0.0999966 -9.599e-06 0)
(0.100004 -8.58232e-06 0)
(0.10001 -7.6584e-06 0)
(0.100016 -6.82203e-06 0)
(0.100021 -6.06862e-06 0)
(0.100026 -5.39306e-06 0)
(0.10003 -4.7922e-06 0)
(0.100034 -4.25993e-06 0)
(0.100037 -3.79704e-06 0)
(0.100041 -3.39234e-06 0)
(0.100044 -3.05785e-06 0)
(0.100046 -2.76545e-06 0)
(0.100049 -2.55862e-06 0)
(0.100052 -2.36103e-06 0)
(0.100053 -2.29506e-06 0)
(0.100057 -2.16611e-06 0)
(0.100056 -2.27468e-06 0)
(0.100063 -2.17632e-06 0)
(0.100059 -2.5212e-06 0)
(0.100071 -2.40966e-06 0)
(0.100062 -3.06792e-06 0)
(0.100081 -2.91757e-06 0)
(0.100064 -3.94183e-06 0)
(0.100095 -3.8071e-06 0)
(0.100069 -5.15788e-06 0)
(0.100112 -5.23454e-06 0)
(0.100078 -6.77166e-06 0)
(0.100132 -7.22042e-06 0)
(0.100096 -9.16802e-06 0)
(0.100156 -9.33451e-06 0)
(0.100124 -1.19689e-05 0)
(0.100185 -1.44609e-05 0)
(0.100167 -1.00002e-05 0)
(0.100216 -1.6806e-05 0)
(0.0988099 -0.000232141 0)
(0.0988805 -0.000217749 0)
(0.0989481 -0.000204098 0)
(0.0990127 -0.000191163 0)
(0.0990744 -0.000178918 0)
(0.0991334 -0.000167338 0)
(0.0991896 -0.000156396 0)
(0.0992432 -0.000146064 0)
(0.0992942 -0.000136314 0)
(0.0993428 -0.000127119 0)
(0.099389 -0.000118451 0)
(0.0994329 -0.000110285 0)
(0.0994747 -0.000102595 0)
(0.0995142 -9.53573e-05 0)
(0.0995518 -8.85491e-05 0)
(0.0995873 -8.21482e-05 0)
(0.0996209 -7.61337e-05 0)
(0.0996527 -7.04857e-05 0)
(0.0996827 -6.51851e-05 0)
(0.099711 -6.02139e-05 0)
(0.0997376 -5.55551e-05 0)
(0.0997627 -5.11925e-05 0)
(0.0997862 -4.71108e-05 0)
(0.0998083 -4.32955e-05 0)
(0.099829 -3.97328e-05 0)
(0.0998484 -3.64091e-05 0)
(0.0998665 -3.33118e-05 0)
(0.0998833 -3.04285e-05 0)
(0.0998991 -2.77476e-05 0)
(0.0999137 -2.5258e-05 0)
(0.0999272 -2.29497e-05 0)
(0.0999398 -2.0813e-05 0)
(0.0999514 -1.88387e-05 0)
(0.0999621 -1.70181e-05 0)
(0.0999719 -1.53426e-05 0)
(0.099981 -1.38037e-05 0)
(0.0999893 -1.23934e-05 0)
(0.0999969 -1.11041e-05 0)
(0.100004 -9.92833e-06 0)
(0.10001 -8.8599e-06 0)
(0.100016 -7.89271e-06 0)
(0.100021 -7.02141e-06 0)
(0.100026 -6.24013e-06 0)
(0.10003 -5.54516e-06 0)
(0.100034 -4.92963e-06 0)
(0.100038 -4.39418e-06 0)
(0.100041 -3.92645e-06 0)
(0.100044 -3.53922e-06 0)
(0.100047 -3.20185e-06 0)
(0.100049 -2.9614e-06 0)
(0.100052 -2.73481e-06 0)
(0.100053 -2.65537e-06 0)
(0.100057 -2.51063e-06 0)
(0.100057 -2.62975e-06 0)
(0.100063 -2.5249e-06 0)
(0.100059 -2.912e-06 0)
(0.100071 -2.79797e-06 0)
(0.100062 -3.5412e-06 0)
(0.100081 -3.38838e-06 0)
(0.100065 -4.55043e-06 0)
(0.100095 -4.41823e-06 0)
(0.100069 -5.959e-06 0)
(0.100112 -6.06903e-06 0)
(0.100078 -7.82594e-06 0)
(0.100132 -8.3832e-06 0)
(0.100096 -1.05579e-05 0)
(0.100155 -1.09197e-05 0)
(0.100125 -1.37307e-05 0)
(0.100184 -1.67469e-05 0)
(0.100168 -1.18492e-05 0)
(0.100216 -1.93642e-05 0)
(0.0988167 -0.000263857 0)
(0.0988869 -0.000247502 0)
(0.098954 -0.000231992 0)
(0.0990181 -0.000217298 0)
(0.0990794 -0.000203389 0)
(0.099138 -0.000190235 0)
(0.0991938 -0.000177806 0)
(0.099247 -0.000166068 0)
(0.0992978 -0.000154992 0)
(0.0993461 -0.000144545 0)
(0.099392 -0.000134697 0)
(0.0994357 -0.000125417 0)
(0.0994772 -0.000116678 0)
(0.0995166 -0.000108453 0)
(0.0995539 -0.000100715 0)
(0.0995892 -9.34389e-05 0)
(0.0996227 -8.66018e-05 0)
(0.0996543 -8.01807e-05 0)
(0.0996842 -7.41542e-05 0)
(0.0997123 -6.85019e-05 0)
(0.0997389 -6.32043e-05 0)
(0.0997638 -5.82432e-05 0)
(0.0997873 -5.36014e-05 0)
(0.0998093 -4.92622e-05 0)
(0.0998299 -4.52099e-05 0)
(0.0998492 -4.14294e-05 0)
(0.0998672 -3.79061e-05 0)
(0.099884 -3.46262e-05 0)
(0.0998996 -3.15764e-05 0)
(0.0999142 -2.87444e-05 0)
(0.0999277 -2.61184e-05 0)
(0.0999402 -2.36876e-05 0)
(0.0999517 -2.14413e-05 0)
(0.0999624 -1.93698e-05 0)
(0.0999722 -1.74631e-05 0)
(0.0999812 -1.57119e-05 0)
(0.0999895 -1.4107e-05 0)
(0.0999971 -1.26396e-05 0)
(0.100004 -1.13017e-05 0)
(0.10001 -1.00859e-05 0)
(0.100016 -8.98532e-06 0)
(0.100021 -7.99378e-06 0)
(0.100026 -7.10469e-06 0)
(0.10003 -6.31369e-06 0)
(0.100034 -5.61333e-06 0)
(0.100038 -5.00371e-06 0)
(0.100041 -4.47194e-06 0)
(0.100044 -4.03047e-06 0)
(0.100047 -3.64801e-06 0)
(0.100049 -3.37205e-06 0)
(0.100052 -3.11782e-06 0)
(0.100053 -3.0217e-06 0)
(0.100057 -2.86531e-06 0)
(0.100057 -2.98895e-06 0)
(0.100063 -2.88628e-06 0)
(0.10006 -3.30491e-06 0)
(0.100071 -3.20328e-06 0)
(0.100062 -4.01522e-06 0)
(0.100081 -3.88099e-06 0)
(0.100065 -5.16087e-06 0)
(0.100095 -5.055e-06 0)
(0.100069 -6.76758e-06 0)
(0.100112 -6.93176e-06 0)
(0.100078 -8.89663e-06 0)
(0.100132 -9.58341e-06 0)
(0.100096 -1.19611e-05 0)
(0.100155 -1.25815e-05 0)
(0.100126 -1.54927e-05 0)
(0.100182 -1.90858e-05 0)
(0.100169 -1.38484e-05 0)
(0.100217 -2.19474e-05 0)
(0.0988244 -0.000295332 0)
(0.098894 -0.00027703 0)
(0.0989605 -0.000259679 0)
(0.0990242 -0.000243243 0)
(0.099085 -0.000227686 0)
(0.0991431 -0.000212973 0)
(0.0991985 -0.00019907 0)
(0.0992514 -0.000185941 0)
(0.0993018 -0.00017355 0)
(0.0993498 -0.000161862 0)
(0.0993954 -0.000150843 0)
(0.0994388 -0.00014046 0)
(0.0994801 -0.000130681 0)
(0.0995192 -0.000121475 0)
(0.0995563 -0.000112814 0)
(0.0995914 -0.000104669 0)
(0.0996247 -9.70153e-05 0)
(0.0996562 -8.98265e-05 0)
(0.0996859 -8.30788e-05 0)
(0.0997139 -7.67496e-05 0)
(0.0997403 -7.08172e-05 0)
(0.0997651 -6.52612e-05 0)
(0.0997884 -6.00624e-05 0)
(0.0998103 -5.52022e-05 0)
(0.0998308 -5.06631e-05 0)
(0.09985 -4.6428e-05 0)
(0.099868 -4.2481e-05 0)
(0.0998847 -3.88064e-05 0)
(0.0999003 -3.53896e-05 0)
(0.0999148 -3.22166e-05 0)
(0.0999282 -2.92745e-05 0)
(0.0999407 -2.65509e-05 0)
(0.0999522 -2.40339e-05 0)
(0.0999628 -2.17125e-05 0)
(0.0999726 -1.95757e-05 0)
(0.0999815 -1.7613e-05 0)
(0.0999898 -1.58143e-05 0)
(0.0999973 -1.41697e-05 0)
(0.100004 -1.26703e-05 0)
(0.10001 -1.13077e-05 0)
(0.100016 -1.00742e-05 0)
(0.100021 -8.96289e-06 0)
(0.100026 -7.96643e-06 0)
(0.10003 -7.07977e-06 0)
(0.100034 -6.29492e-06 0)
(0.100038 -5.6114e-06 0)
(0.100041 -5.01588e-06 0)
(0.100044 -4.52031e-06 0)
(0.100047 -4.09305e-06 0)
(0.100049 -3.78153e-06 0)
(0.100052 -3.50011e-06 0)
(0.100053 -3.38691e-06 0)
(0.100057 -3.2197e-06 0)
(0.100057 -3.34683e-06 0)
(0.100063 -3.2479e-06 0)
(0.10006 -3.69609e-06 0)
(0.100071 -3.6094e-06 0)
(0.100062 -4.48695e-06 0)
(0.100081 -4.37478e-06 0)
(0.100065 -5.76869e-06 0)
(0.100095 -5.6929e-06 0)
(0.100069 -7.57366e-06 0)
(0.100112 -7.79576e-06 0)
(0.100078 -9.96325e-06 0)
(0.100132 -1.07924e-05 0)
(0.100096 -1.33429e-05 0)
(0.100154 -1.42877e-05 0)
(0.100127 -1.72074e-05 0)
(0.100181 -2.14315e-05 0)
(0.10017 -1.59497e-05 0)
(0.100217 -2.44992e-05 0)
(0.0988329 -0.000326536 0)
(0.0989018 -0.000306308 0)
(0.0989678 -0.000287135 0)
(0.0990309 -0.000268975 0)
(0.0990912 -0.000251788 0)
(0.0991488 -0.000235534 0)
(0.0992038 -0.000220173 0)
(0.0992563 -0.000205666 0)
(0.0993063 -0.000191974 0)
(0.0993539 -0.000179058 0)
(0.0993992 -0.00016688 0)
(0.0994423 -0.000155403 0)
(0.0994832 -0.000144592 0)
(0.0995221 -0.000134415 0)
(0.099559 -0.000124838 0)
(0.0995939 -0.000115832 0)
(0.099627 -0.000107368 0)
(0.0996582 -9.94169e-05 0)
(0.0996877 -9.19533e-05 0)
(0.0997156 -8.4952e-05 0)
(0.0997418 -7.83891e-05 0)
(0.0997665 -7.22423e-05 0)
(0.0997897 -6.64901e-05 0)
(0.0998115 -6.11122e-05 0)
(0.0998319 -5.60891e-05 0)
(0.099851 -5.14022e-05 0)
(0.0998688 -4.70338e-05 0)
(0.0998855 -4.29668e-05 0)
(0.099901 -3.9185e-05 0)
(0.0999154 -3.5673e-05 0)
(0.0999288 -3.24163e-05 0)
(0.0999412 -2.94014e-05 0)
(0.0999526 -2.66151e-05 0)
(0.0999632 -2.4045e-05 0)
(0.0999729 -2.16793e-05 0)
(0.0999819 -1.95061e-05 0)
(0.0999901 -1.75144e-05 0)
(0.0999976 -1.56935e-05 0)
(0.100004 -1.40332e-05 0)
(0.100011 -1.25245e-05 0)
(0.100016 -1.11587e-05 0)
(0.100022 -9.92817e-06 0)
(0.100026 -8.82483e-06 0)
(0.10003 -7.84294e-06 0)
(0.100034 -6.97398e-06 0)
(0.100038 -6.21689e-06 0)
(0.100041 -5.55788e-06 0)
(0.100044 -5.00849e-06 0)
(0.100047 -4.53656e-06 0)
(0.100049 -4.18976e-06 0)
(0.100052 -3.88112e-06 0)
(0.100053 -3.75122e-06 0)
(0.100057 -3.5729e-06 0)
(0.100057 -3.70416e-06 0)
(0.100063 -3.60821e-06 0)
(0.10006 -4.08708e-06 0)
(0.100071 -4.01386e-06 0)
(0.100062 -4.95883e-06 0)
(0.100081 -4.86643e-06 0)
(0.100065 -6.37693e-06 0)
(0.100095 -6.3283e-06 0)
(0.100069 -8.37997e-06 0)
(0.100112 -8.65822e-06 0)
(0.100078 -1.10271e-05 0)
(0.100132 -1.20091e-05 0)
(0.100096 -1.47029e-05 0)
(0.100154 -1.60381e-05 0)
(0.100128 -1.88745e-05 0)
(0.10018 -2.37869e-05 0)
(0.100171 -1.81481e-05 0)
(0.100218 -2.70226e-05 0)
(0.0988422 -0.000357441 0)
(0.0989105 -0.000335309 0)
(0.0989758 -0.000314336 0)
(0.0990383 -0.000294474 0)
(0.0990981 -0.000275676 0)
(0.0991551 -0.000257898 0)
(0.0992096 -0.000241097 0)
(0.0992616 -0.000225229 0)
(0.0993112 -0.000210251 0)
(0.0993584 -0.000196119 0)
(0.0994034 -0.000182794 0)
(0.0994461 -0.000170235 0)
(0.0994867 -0.000158403 0)
(0.0995253 -0.000147263 0)
(0.0995619 -0.00013678 0)
(0.0995966 -0.00012692 0)
(0.0996294 -0.000117652 0)
(0.0996605 -0.000108946 0)
(0.0996898 -0.000100772 0)
(0.0997174 -9.31041e-05 0)
(0.0997435 -8.59156e-05 0)
(0.099768 -7.91822e-05 0)
(0.0997911 -7.28806e-05 0)
(0.0998127 -6.69885e-05 0)
(0.099833 -6.14848e-05 0)
(0.099852 -5.63491e-05 0)
(0.0998698 -5.15621e-05 0)
(0.0998863 -4.7105e-05 0)
(0.0999017 -4.29604e-05 0)
(0.0999161 -3.91113e-05 0)
(0.0999294 -3.5542e-05 0)
(0.0999417 -3.22374e-05 0)
(0.0999531 -2.91833e-05 0)
(0.0999636 -2.63661e-05 0)
(0.0999733 -2.37725e-05 0)
(0.0999822 -2.13901e-05 0)
(0.0999903 -1.92064e-05 0)
(0.0999978 -1.721e-05 0)
(0.100005 -1.53897e-05 0)
(0.100011 -1.37356e-05 0)
(0.100017 -1.22382e-05 0)
(0.100022 -1.08891e-05 0)
(0.100026 -9.67936e-06 0)
(0.100031 -8.60273e-06 0)
(0.100034 -7.65007e-06 0)
(0.100038 -6.81979e-06 0)
(0.100041 -6.09757e-06 0)
(0.100044 -5.49465e-06 0)
(0.100047 -4.97826e-06 0)
(0.100049 -4.59643e-06 0)
(0.100052 -4.26062e-06 0)
(0.100053 -4.1143e-06 0)
(0.100057 -3.92472e-06 0)
(0.100057 -4.06055e-06 0)
(0.100063 -3.96712e-06 0)
(0.10006 -4.47739e-06 0)
(0.100071 -4.41667e-06 0)
(0.100062 -5.43027e-06 0)
(0.100081 -5.35598e-06 0)
(0.100064 -6.98492e-06 0)
(0.100095 -6.96118e-06 0)
(0.100069 -9.18591e-06 0)
(0.100112 -9.51888e-06 0)
(0.100078 -1.20879e-05 0)
(0.100132 -1.32327e-05 0)
(0.100096 -1.60423e-05 0)
(0.100154 -1.78295e-05 0)
(0.100128 -2.04976e-05 0)
(0.100179 -2.61522e-05 0)
(0.100172 -2.04378e-05 0)
(0.100218 -2.95204e-05 0)
(0.0988524 -0.000388016 0)
(0.0989199 -0.000364006 0)
(0.0989846 -0.000341258 0)
(0.0990464 -0.000319716 0)
(0.0991055 -0.00029933 0)
(0.099162 -0.000280049 0)
(0.099216 -0.000261827 0)
(0.0992675 -0.000244615 0)
(0.0993166 -0.000228366 0)
(0.0993634 -0.000213034 0)
(0.0994079 -0.000198575 0)
(0.0994503 -0.000184945 0)
(0.0994906 -0.000172104 0)
(0.0995288 -0.000160012 0)
(0.0995651 -0.000148631 0)
(0.0995995 -0.000137926 0)
(0.0996321 -0.000127863 0)
(0.0996629 -0.000118407 0)
(0.099692 -0.00010953 0)
(0.0997195 -0.000101201 0)
(0.0997454 -9.3392e-05 0)
(0.0997697 -8.60769e-05 0)
(0.0997926 -7.92302e-05 0)
(0.0998141 -7.28279e-05 0)
(0.0998343 -6.68471e-05 0)
(0.0998532 -6.12658e-05 0)
(0.0998708 -5.6063e-05 0)
(0.0998872 -5.12187e-05 0)
(0.0999026 -4.67137e-05 0)
(0.0999168 -4.25298e-05 0)
(0.09993 -3.86498e-05 0)
(0.0999423 -3.50574e-05 0)
(0.0999536 -3.17372e-05 0)
(0.0999641 -2.86742e-05 0)
(0.0999737 -2.58543e-05 0)
(0.0999825 -2.32637e-05 0)
(0.0999906 -2.08893e-05 0)
(0.0999981 -1.87183e-05 0)
(0.100005 -1.6739e-05 0)
(0.100011 -1.49403e-05 0)
(0.100017 -1.3312e-05 0)
(0.100022 -1.18449e-05 0)
(0.100026 -1.05294e-05 0)
(0.100031 -9.35861e-06 0)
(0.100034 -8.32271e-06 0)
(0.100038 -7.41964e-06 0)
(0.100041 -6.63457e-06 0)
(0.100044 -5.97843e-06 0)
(0.100047 -5.4178e-06 0)
(0.100049 -5.00119e-06 0)
(0.100052 -4.63833e-06 0)
(0.100053 -4.47581e-06 0)
(0.100057 -4.27497e-06 0)
(0.100057 -4.41562e-06 0)
(0.100063 -4.32449e-06 0)
(0.100059 -4.86654e-06 0)
(0.100071 -4.81778e-06 0)
(0.100062 -5.90065e-06 0)
(0.100081 -5.84344e-06 0)
(0.100064 -7.59196e-06 0)
(0.100095 -7.5915e-06 0)
(0.100069 -9.99083e-06 0)
(0.100112 -1.03774e-05 0)
(0.100078 -1.31453e-05 0)
(0.100131 -1.44618e-05 0)
(0.100096 -1.73627e-05 0)
(0.100153 -1.96575e-05 0)
(0.100129 -2.20813e-05 0)
(0.100178 -2.85276e-05 0)
(0.100173 -2.28105e-05 0)
(0.100219 -3.19965e-05 0)
(0.0988635 -0.000418235 0)
(0.0989302 -0.000392374 0)
(0.098994 -0.000367877 0)
(0.0990551 -0.000344682 0)
(0.0991136 -0.00032273 0)
(0.0991694 -0.000301969 0)
(0.0992228 -0.000282345 0)
(0.0992738 -0.000263808 0)
(0.0993224 -0.000246306 0)
(0.0993687 -0.000229789 0)
(0.0994128 -0.000214211 0)
(0.0994548 -0.000199525 0)
(0.0994947 -0.000185686 0)
(0.0995326 -0.000172653 0)
(0.0995686 -0.000160384 0)
(0.0996027 -0.000148843 0)
(0.099635 -0.000137992 0)
(0.0996656 -0.000127796 0)
(0.0996945 -0.000118221 0)
(0.0997217 -0.000109237 0)
(0.0997474 -0.000100814 0)
(0.0997716 -9.2922e-05 0)
(0.0997943 -8.55349e-05 0)
(0.0998156 -7.86267e-05 0)
(0.0998357 -7.21728e-05 0)
(0.0998544 -6.61494e-05 0)
(0.0998719 -6.05342e-05 0)
(0.0998882 -5.53054e-05 0)
(0.0999034 -5.04427e-05 0)
(0.0999176 -4.59264e-05 0)
(0.0999307 -4.17379e-05 0)
(0.0999429 -3.78597e-05 0)
(0.0999542 -3.42751e-05 0)
(0.0999645 -3.09681e-05 0)
(0.0999741 -2.79233e-05 0)
(0.0999829 -2.5126e-05 0)
(0.099991 -2.25619e-05 0)
(0.0999983 -2.02176e-05 0)
(0.100005 -1.80801e-05 0)
(0.100011 -1.61378e-05 0)
(0.100017 -1.43794e-05 0)
(0.100022 -1.27951e-05 0)
(0.100026 -1.13745e-05 0)
(0.100031 -1.01101e-05 0)
(0.100034 -8.99143e-06 0)
(0.100038 -8.01601e-06 0)
(0.100041 -7.16845e-06 0)
(0.100044 -6.45943e-06 0)
(0.100047 -5.85483e-06 0)
(0.100049 -5.40369e-06 0)
(0.100052 -5.01394e-06 0)
(0.100053 -4.83543e-06 0)
(0.100057 -4.62335e-06 0)
(0.100056 -4.76906e-06 0)
(0.100063 -4.68004e-06 0)
(0.100059 -5.25421e-06 0)
(0.10007 -5.21689e-06 0)
(0.100062 -6.36965e-06 0)
(0.100081 -6.32846e-06 0)
(0.100064 -8.1977e-06 0)
(0.100094 -8.21881e-06 0)
(0.100068 -1.07944e-05 0)
(0.100111 -1.12332e-05 0)
(0.100078 -1.41994e-05 0)
(0.100131 -1.5695e-05 0)
(0.100096 -1.86661e-05 0)
(0.100152 -2.15171e-05 0)
(0.100129 -2.36312e-05 0)
(0.100176 -3.09134e-05 0)
(0.100173 -2.52563e-05 0)
(0.100219 -3.4456e-05 0)
(0.0988753 -0.000448067 0)
(0.0989411 -0.000420387 0)
(0.0990042 -0.000394171 0)
(0.0990645 -0.000369349 0)
(0.0991222 -0.000345858 0)
(0.0991774 -0.00032364 0)
(0.0992302 -0.000302637 0)
(0.0992806 -0.000282794 0)
(0.0993286 -0.000264057 0)
(0.0993745 -0.000246374 0)
(0.0994181 -0.000229692 0)
(0.0994597 -0.000213963 0)
(0.0994992 -0.000199139 0)
(0.0995368 -0.000185176 0)
(0.0995724 -0.000172031 0)
(0.0996062 -0.000159663 0)
(0.0996382 -0.000148033 0)
(0.0996685 -0.000137104 0)
(0.0996971 -0.000126841 0)
(0.0997241 -0.000117209 0)
(0.0997496 -0.000108176 0)
(0.0997736 -9.97135e-05 0)
(0.0997961 -9.17911e-05 0)
(0.0998173 -8.43816e-05 0)
(0.0998371 -7.74586e-05 0)
(0.0998557 -7.0997e-05 0)
(0.0998731 -6.49727e-05 0)
(0.0998893 -5.93628e-05 0)
(0.0999044 -5.41452e-05 0)
(0.0999185 -4.9299e-05 0)
(0.0999315 -4.48044e-05 0)
(0.0999436 -4.06426e-05 0)
(0.0999547 -3.67956e-05 0)
(0.0999651 -3.32463e-05 0)
(0.0999746 -2.99783e-05 0)
(0.0999833 -2.69757e-05 0)
(0.0999913 -2.42234e-05 0)
(0.0999986 -2.17068e-05 0)
(0.100005 -1.94123e-05 0)
(0.100011 -1.73272e-05 0)
(0.100017 -1.54397e-05 0)
(0.100022 -1.37389e-05 0)
(0.100027 -1.2214e-05 0)
(0.100031 -1.08565e-05 0)
(0.100034 -9.6557e-06 0)
(0.100038 -8.60842e-06 0)
(0.100041 -7.6988e-06 0)
(0.100044 -6.93727e-06 0)
(0.100047 -6.28898e-06 0)
(0.100049 -5.8036e-06 0)
(0.100052 -5.38711e-06 0)
(0.100053 -5.19286e-06 0)
(0.100057 -4.96954e-06 0)
(0.100056 -5.12056e-06 0)
(0.100063 -5.03343e-06 0)
(0.100059 -5.64011e-06 0)
(0.10007 -5.61361e-06 0)
(0.100061 -6.83696e-06 0)
(0.100081 -6.81059e-06 0)
(0.100064 -8.80185e-06 0)
(0.100094 -8.84256e-06 0)
(0.100068 -1.15963e-05 0)
(0.100111 -1.20856e-05 0)
(0.100077 -1.525e-05 0)
(0.100131 -1.69307e-05 0)
(0.100096 -1.99546e-05 0)
(0.100152 -2.34026e-05 0)
(0.100129 -2.51529e-05 0)
(0.100175 -3.33099e-05 0)
(0.100173 -2.77642e-05 0)
(0.100219 -3.69046e-05 0)
(0.098888 -0.000477485 0)
(0.0989529 -0.000448021 0)
(0.099015 -0.000420117 0)
(0.0990745 -0.000393698 0)
(0.0991315 -0.000368695 0)
(0.099186 -0.000345045 0)
(0.0992381 -0.000322686 0)
(0.0992879 -0.00030156 0)
(0.0993354 -0.000281608 0)
(0.0993807 -0.000262775 0)
(0.0994238 -0.000245006 0)
(0.0994649 -0.000228249 0)
(0.099504 -0.000212454 0)
(0.0995412 -0.000197575 0)
(0.0995764 -0.000183564 0)
(0.0996099 -0.00017038 0)
(0.0996416 -0.000157981 0)
(0.0996716 -0.000146328 0)
(0.0996999 -0.000135382 0)
(0.0997267 -0.00012511 0)
(0.0997519 -0.000115475 0)
(0.0997757 -0.000106447 0)
(0.0997981 -9.79949e-05 0)
(0.099819 -9.0089e-05 0)
(0.0998387 -8.27015e-05 0)
(0.0998572 -7.58057e-05 0)
(0.0998744 -6.93761e-05 0)
(0.0998905 -6.33883e-05 0)
(0.0999055 -5.78189e-05 0)
(0.0999194 -5.26457e-05 0)
(0.0999323 -4.78476e-05 0)
(0.0999443 -4.34045e-05 0)
(0.0999554 -3.92972e-05 0)
(0.0999656 -3.55075e-05 0)
(0.099975 -3.20179e-05 0)
(0.0999837 -2.88117e-05 0)
(0.0999916 -2.58725e-05 0)
(0.0999989 -2.3185e-05 0)
(0.100006 -2.07347e-05 0)