/*--------------------------------*- C++ -*----------------------------------*\
| =========                 |                                                 |
| \\      /  F ield         | OpenFOAM: The Open Source CFD Toolbox           |
|  \\    /   O peration     | Version:  2412                                  |
|   \\  /    A nd           | Website:  www.openfoam.com                      |
|    \\/     M anipulation  |                                                 |
\*---------------------------------------------------------------------------*/
FoamFile
{
    version     2.0;
    format      ascii;
    arch        "LSB;label=32;scalar=64";
    class       volScalarField;
    location    "28.5";
    object      p;
}
// * * * * * * * * * * * * * * * * * * * * * * * * * * * * * * * * * * * * * //

dimensions      [0 2 -2 0 0 0 0];

internalField   nonuniform List<scalar> 
5285
(
0.000771344
0.000766359
0.000761066
0.000755452
0.000749504
0.000743206
0.000736546
0.000729508
0.000722077
0.00071424
0.000705981
0.000697286
0.000688141
0.00067853
0.00066844
0.000657857
0.000781544
0.000776695
0.000771533
0.000766044
0.000760213
0.000754025
0.000747465
0.000740517
0.000733166
0.000725396
0.000717191
0.000708535
0.000699412
0.000689807
0.000679704
0.000669088
0.000792024
0.000787324
0.000782307
0.000776956
0.000771257
0.000765192
0.000758747
0.000751904
0.000744647
0.000736958
0.000728821
0.000720219
0.000711133
0.000701548
0.000691445
0.000680808
0.000802789
0.000798253
0.000793394
0.000788196
0.000782642
0.000776716
0.000770401
0.000763678
0.00075653
0.000748939
0.000740886
0.000732352
0.000723319
0.000713768
0.00070368
0.000693037
0.000813842
0.000809483
0.000804798
0.000799768
0.000794376
0.000788604
0.000782435
0.000775849
0.000768828
0.00076135
0.000753398
0.00074495
0.000735986
0.000726486
0.000716429
0.000705796
0.000825187
0.000821021
0.000816524
0.000811678
0.000806464
0.000800864
0.000794859
0.000788427
0.000781549
0.000774204
0.00076637
0.000758026
0.00074915
0.000739719
0.000729711
0.000719105
0.000836825
0.000832867
0.000828576
0.000823931
0.000818913
0.000813503
0.000807679
0.000801421
0.000794706
0.000787512
0.000779817
0.000771597
0.000762827
0.000753486
0.000743547
0.000732987
0.000848758
0.000845026
0.000840957
0.000836531
0.000831728
0.000826526
0.000820903
0.000814838
0.000808307
0.000801286
0.00079375
0.000785675
0.000777035
0.000767804
0.000757956
0.000747464
0.000860988
0.000857499
0.000853671
0.000849482
0.000844912
0.000839939
0.000834539
0.000828689
0.000822363
0.000815537
0.000808183
0.000800276
0.000791789
0.000782691
0.000772957
0.000762556
0.000873515
0.000870287
0.000866718
0.000862787
0.000858472
0.000853748
0.000848592
0.000842979
0.000836882
0.000830274
0.000823128
0.000815414
0.000807104
0.000798166
0.000788571
0.000778287
0.000886339
0.000883391
0.000880102
0.000876449
0.000872409
0.000867957
0.000863069
0.000857717
0.000851873
0.000845509
0.000838596
0.000831102
0.000822996
0.000814246
0.000804818
0.000794678
0.000899458
0.000896809
0.00089382
0.000890467
0.000886725
0.00088257
0.000877973
0.000872907
0.000867343
0.000861251
0.000854598
0.000847353
0.000839481
0.000830947
0.000821716
0.000811752
0.00091287
0.000910542
0.000907874
0.000904843
0.000901423
0.000897588
0.000893308
0.000888556
0.000883299
0.000877507
0.000871145
0.000864178
0.000856572
0.000848287
0.000839286
0.00082953
0.000926572
0.000924585
0.000922261
0.000919576
0.000916502
0.000913013
0.000909078
0.000904666
0.000899747
0.000894285
0.000888245
0.00088159
0.000874282
0.000866281
0.000857546
0.000848034
0.00094056
0.000938936
0.000936979
0.000934663
0.000931961
0.000928845
0.000925282
0.000921242
0.00091669
0.00091159
0.000905906
0.000899598
0.000892625
0.000884944
0.000876512
0.000867283
0.000954828
0.000953589
0.000952022
0.000950102
0.000947798
0.000945082
0.000941922
0.000938283
0.000934131
0.000929428
0.000924135
0.00091821
0.00091161
0.00090429
0.000896203
0.000887298
0.000969368
0.000968538
0.000967386
0.000965886
0.000964008
0.000961722
0.000958994
0.00095579
0.000952072
0.000947801
0.000942936
0.000937434
0.000931248
0.000924331
0.000916631
0.000908097
0.000984173
0.000983774
0.000983062
0.000982009
0.000980585
0.000978759
0.000976496
0.000973759
0.000970511
0.00096671
0.000962313
0.000957275
0.000951546
0.000945077
0.000937812
0.000929697
0.000999232
0.000999288
0.000999042
0.000998464
0.000997523
0.000996187
0.000994421
0.000992187
0.000989446
0.000986154
0.000982266
0.000977735
0.00097251
0.000966536
0.000959757
0.000952113
0.00101454
0.00101507
0.00101532
0.00101524
0.00101481
0.001014
0.00101276
0.00101107
0.00100887
0.00100613
0.0010028
0.000998818
0.000994144
0.000988717
0.000982476
0.000975359
0.00082338
0.000823422
0.000823554
0.000823757
0.000824025
0.000824353
0.000824734
0.000825161
0.000825628
0.000826129
0.000826657
0.000827203
0.000827763
0.000828327
0.000828889
0.000829441
0.000829973
0.000830479
0.000830949
0.000831375
0.000831749
0.000832065
0.000832316
0.000832496
0.000832599
0.000832622
0.00083256
0.000832407
0.00083216
0.000831812
0.000831359
0.000830795
0.000830113
0.000829308
0.000828374
0.000827305
0.000826094
0.000824737
0.000823229
0.000821564
0.000819738
0.000817748
0.000815589
0.00081326
0.000810756
0.000808078
0.000805221
0.000802186
0.000798972
0.000795579
0.000792006
0.000788254
0.000784325
0.000780219
0.000775939
0.000825897
0.000825945
0.000826094
0.000826323
0.000826626
0.000826996
0.000827428
0.000827914
0.000828448
0.000829023
0.000829631
0.000830266
0.000830919
0.000831584
0.000832253
0.000832918
0.000833569
0.000834199
0.0008348
0.000835362
0.000835877
0.00083634
0.000836742
0.000837077
0.000837342
0.000837529
0.000837635
0.000837654
0.000837582
0.000837413
0.000837141
0.000836759
0.000836263
0.000835646
0.0008349
0.000834021
0.000833002
0.000831836
0.000830519
0.000829046
0.000827412
0.000825611
0.000823642
0.000821499
0.000819181
0.000816684
0.000814007
0.000811148
0.000808106
0.00080488
0.00080147
0.000797876
0.000794099
0.00079014
0.000786
0.000828403
0.000828456
0.000828622
0.000828877
0.000829215
0.000829629
0.000830112
0.000830658
0.000831259
0.000831908
0.000832598
0.000833321
0.00083407
0.000834837
0.000835614
0.000836393
0.000837165
0.000837922
0.000838655
0.000839355
0.000840014
0.000840626
0.000841182
0.000841677
0.000842105
0.000842461
0.00084274
0.000842935
0.000843043
0.000843056
0.00084297
0.000842778
0.000842473
0.000842049
0.000841499
0.000840817
0.000839995
0.000839029
0.000837912
0.000836639
0.000835204
0.000833603
0.000831831
0.000829886
0.000827762
0.000825458
0.00082297
0.000820297
0.000817438
0.000814391
0.000811155
0.000807731
0.000804118
0.000800317
0.00079633
0.000830896
0.000830954
0.000831137
0.000831419
0.000831791
0.000832249
0.000832785
0.000833391
0.000834059
0.000834783
0.000835555
0.000836368
0.000837213
0.000838083
0.00083897
0.000839865
0.000840759
0.000841644
0.000842512
0.000843352
0.000844158
0.000844921
0.000845635
0.000846292
0.000846888
0.000847416
0.00084787
0.000848247
0.000848539
0.00084874
0.000848845
0.000848847
0.00084874
0.000848515
0.000848167
0.000847689
0.000847073
0.000846314
0.000845405
0.00084434
0.000843113
0.000841721
0.000840157
0.000838417
0.000836498
0.000834397
0.00083211
0.000829635
0.000826969
0.000824112
0.000821063
0.00081782
0.000814383
0.000810753
0.000806931
0.000833374
0.000833438
0.000833638
0.000833946
0.000834354
0.000834856
0.000835444
0.00083611
0.000836847
0.000837647
0.000838502
0.000839405
0.000840347
0.000841321
0.000842319
0.000843331
0.000844349
0.000845365
0.000846368
0.000847352
0.000848306
0.000849223
0.000850097
0.00085092
0.000851686
0.00085239
0.000853025
0.000853586
0.000854067
0.000854461
0.000854763
0.000854965
0.00085506
0.000855042
0.000854902
0.000854635
0.000854232
0.000853687
0.000852994
0.000852146
0.000851137
0.000849962
0.000848615
0.000847092
0.000845388
0.000843501
0.000841425
0.000839159
0.000836699
0.000834045
0.000831193
0.000828144
0.000824897
0.000821451
0.000817807
0.000835836
0.000835906
0.000836123
0.000836457
0.000836901
0.000837447
0.000838088
0.000838815
0.000839621
0.000840497
0.000841436
0.00084243
0.00084347
0.000844549
0.000845659
0.00084679
0.000847933
0.000849081
0.000850223
0.00085135
0.000852456
0.00085353
0.000854566
0.000855558
0.000856498
0.000857381
0.0008582
0.00085895
0.000859624
0.000860216
0.000860719
0.000861127
0.000861431
0.000861625
0.000861701
0.000861651
0.000861469
0.000861146
0.000860677
0.000860055
0.000859272
0.000858324
0.000857204
0.000855908
0.00085443
0.000852767
0.000850914
0.000848869
0.000846627
0.000844187
0.000841547
0.000838705
0.00083566
0.000832412
0.000828959
0.000838281
0.000838356
0.00083859
0.000838951
0.000839431
0.000840022
0.000840716
0.000841504
0.000842379
0.000843332
0.000844355
0.000845441
0.00084658
0.000847766
0.000848988
0.000850239
0.000851509
0.00085279
0.000854072
0.000855346
0.000856605
0.000857838
0.00085904
0.000860203
0.00086132
0.000862386
0.000863393
0.000864336
0.000865207
0.000866002
0.000866712
0.00086733
0.000867849
0.000868261
0.000868559
0.000868734
0.00086878
0.000868688
0.000868451
0.000868063
0.000867516
0.000866804
0.000865921
0.000864862
0.000863621
0.000862194
0.000860576
0.000858763
0.000856752
0.00085454
0.000852124
0.000849502
0.000846674
0.000843637
0.000840391
0.000840707
0.000840788
0.000841039
0.000841427
0.000841943
0.000842578
0.000843325
0.000844175
0.00084512
0.00084615
0.000847258
0.000848436
0.000849676
0.000850968
0.000852304
0.000853676
0.000855075
0.00085649
0.000857914
0.000859337
0.00086075
0.000862145
0.000863515
0.000864852
0.00086615
0.000867401
0.0008686
0.000869739
0.000870813
0.000871815
0.000872736
0.00087357
0.00087431
0.000874947
0.000875473
0.00087588
0.000876161
0.000876307
0.000876311
0.000876166
0.000875864
0.000875398
0.000874763
0.000873952
0.000872959
0.000871779
0.000870407
0.000868839
0.000867072
0.0008651
0.000862922
0.000860535
0.000857937
0.000855126
0.000852101
0.000843114
0.000843199
0.000843468
0.000843883
0.000844435
0.000845115
0.000845916
0.000846827
0.000847842
0.00084895
0.000850143
0.000851414
0.000852754
0.000854154
0.000855606
0.0008571
0.000858628
0.000860179
0.000861746
0.000863319
0.00086489
0.000866449
0.000867989
0.000869503
0.000870983
0.000872424
0.000873817
0.000875158
0.000876438
0.000877651
0.000878789
0.000879845
0.00088081
0.000881678
0.000882439
0.000883085
0.000883609
0.000884001
0.000884254
0.000884361
0.000884313
0.000884103
0.000883725
0.000883172
0.000882438
0.000881518
0.000880405
0.000879095
0.000877584
0.000875867
0.000873941
0.000871803
0.00086945
0.00086688
0.000864092
0.000845498
0.000845589
0.000845876
0.000846318
0.000846905
0.000847631
0.000848485
0.000849459
0.000850543
0.000851729
0.000853009
0.000854373
0.000855814
0.000857323
0.00085889
0.000860507
0.000862165
0.000863855
0.000865566
0.000867291
0.00086902
0.000870745
0.000872458
0.000874151
0.000875817
0.00087745
0.000879042
0.000880587
0.000882077
0.000883506
0.000884866
0.000886148
0.000887346
0.00088845
0.000889453
0.000890345
0.000891118
0.000891764
0.000892275
0.000892642
0.000892857
0.000892914
0.000892804
0.00089252
0.000892057
0.000891407
0.000890566
0.000889527
0.000888285
0.000886837
0.000885177
0.000883303
0.000881211
0.000878898
0.000876363
0.00084786
0.000847957
0.000848261
0.000848729
0.000849353
0.000850124
0.000851032
0.000852068
0.000853223
0.000854487
0.000855853
0.000857311
0.000858853
0.000860471
0.000862155
0.000863896
0.000865685
0.000867513
0.000869371
0.000871249
0.000873139
0.000875031
0.000876919
0.000878794
0.000880649
0.000882476
0.00088427
0.000886023
0.000887728
0.000889377
0.000890962
0.000892477
0.000893912
0.000895258
0.000896509
0.000897654
0.000898684
0.000899592
0.000900369
0.000901005
0.000901493
0.000901825
0.000901994
0.000901991
0.000901809
0.000901443
0.000900885
0.00090013
0.000899172
0.000898006
0.000896628
0.000895033
0.000893218
0.000891178
0.000888913
0.000850197
0.0008503
0.000850621
0.000851117
0.000851777
0.000852593
0.000853555
0.000854653
0.000855878
0.000857221
0.000858673
0.000860226
0.00086187
0.000863597
0.000865398
0.000867264
0.000869185
0.000871153
0.000873158
0.000875191
0.000877242
0.000879304
0.000881369
0.000883428
0.000885474
0.000887499
0.000889498
0.000891462
0.000893385
0.000895258
0.000897074
0.000898825
0.000900503
0.000902098
0.000903603
0.000905007
0.000906302
0.000907479
0.00090853
0.000909444
0.000910215
0.000910833
0.00091129
0.000911578
0.00091169
0.000911619
0.000911358
0.000910901
0.00091024
0.000909372
0.00090829
0.00090699
0.000905467
0.000903718
0.00090174
0.000852509
0.000852617
0.000852956
0.000853479
0.000854175
0.000855037
0.000856052
0.000857213
0.000858508
0.00085993
0.000861469
0.000863116
0.000864862
0.000866699
0.000868617
0.000870609
0.000872663
0.000874771
0.000876925
0.000879113
0.000881328
0.000883561
0.000885804
0.000888049
0.000890288
0.000892515
0.000894721
0.0008969
0.000899044
0.000901146
0.000903197
0.00090519
0.000907115
0.000908964
0.000910729
0.000912399
0.000913966
0.00091542
0.000916753
0.000917954
0.000919016
0.000919929
0.000920685
0.000921276
0.000921694
0.000921931
0.000921979
0.000921833
0.000921485
0.000920928
0.000920158
0.000919169
0.000917956
0.000916515
0.000914841
0.000854794
0.000854907
0.000855264
0.000855814
0.000856546
0.000857453
0.000858523
0.000859745
0.000861111
0.000862612
0.000864237
0.000865979
0.000867827
0.000869774
0.000871811
0.000873928
0.000876116
0.000878366
0.000880668
0.000883013
0.000885393
0.000887799
0.000890222
0.000892655
0.000895089
0.000897519
0.000899936
0.000902332
0.000904701
0.000907035
0.000909325
0.000911564
0.000913742
0.000915851
0.000917882
0.000919824
0.00092167
0.000923408
0.000925031
0.000926528
0.00092789
0.000929109
0.000930175
0.000931079
0.000931814
0.000932371
0.000932742
0.000932921
0.000932899
0.00093267
0.000932227
0.000931566
0.000930679
0.000929563
0.000928213
0.00085705
0.000857169
0.000857543
0.00085812
0.000858889
0.00085984
0.000860964
0.000862249
0.000863685
0.000865264
0.000866976
0.000868813
0.000870764
0.000872821
0.000874976
0.000877219
0.000879541
0.000881933
0.000884385
0.000886888
0.000889434
0.000892013
0.000894618
0.000897241
0.000899873
0.000902507
0.000905137
0.000907754
0.000910351
0.000912921
0.000915454
0.000917943
0.000920379
0.000922753
0.000925055
0.000927276
0.000929407
0.000931437
0.000933358
0.000935159
0.000936831
0.000938365
0.000939751
0.00094098
0.000942043
0.000942933
0.00094364
0.000944157
0.000944476
0.000944589
0.000944491
0.000944173
0.000943631
0.000942858
0.00094185
0.000859277
0.000859401
0.000859792
0.000860396
0.000861201
0.000862198
0.000863375
0.000864722
0.000866229
0.000867886
0.000869685
0.000871616
0.00087367
0.000875838
0.000878111
0.00088048
0.000882937
0.000885471
0.000888073
0.000890735
0.000893448
0.000896202
0.000898989
0.000901803
0.000904634
0.000907476
0.000910321
0.000913161
0.000915989
0.000918798
0.000921578
0.000924321
0.000927019
0.000929663
0.000932242
0.000934748
0.000937171
0.0009395
0.000941726
0.00094384
0.000945831
0.000947689
0.000949405
0.00095097
0.000952374
0.000953608
0.000954664
0.000955534
0.000956208
0.000956679
0.000956941
0.000956984
0.000956804
0.000956393
0.000955746
0.000861472
0.000861602
0.00086201
0.000862641
0.000863482
0.000864523
0.000865754
0.000867163
0.00086874
0.000870476
0.000872361
0.000874386
0.000876542
0.000878821
0.000881213
0.000883708
0.000886299
0.000888976
0.00089173
0.000894551
0.00089743
0.00090036
0.000903332
0.000906338
0.00090937
0.00091242
0.000915482
0.000918548
0.00092161
0.000924661
0.000927691
0.000930693
0.000933657
0.000936575
0.000939437
0.000942233
0.000944954
0.000947589
0.000950128
0.000952562
0.00095488
0.000957073
0.000959129
0.00096104
0.000962796
0.000964388
0.000965806
0.000967042
0.000968086
0.000968931
0.000969569
0.000969991
0.00097019
0.00097016
0.000969894
0.000863635
0.000863771
0.000864196
0.000864853
0.00086573
0.000866816
0.0008681
0.00086957
0.000871217
0.000873031
0.000875002
0.000877122
0.00087938
0.000881769
0.000884279
0.000886901
0.000889627
0.000892446
0.000895351
0.000898331
0.000901379
0.000904485
0.000907642
0.000910841
0.000914075
0.000917336
0.000920617
0.000923911
0.000927209
0.000930504
0.000933788
0.000937052
0.000940287
0.000943483
0.000946633
0.000949725
0.00095275
0.000955697
0.000958556
0.000961318
0.000963972
0.000966507
0.000968914
0.000971182
0.000973302
0.000975263
0.000977056
0.000978672
0.000980101
0.000981335
0.000982365
0.000983182
0.00098378
0.000984149
0.000984284
0.000865764
0.000865905
0.000866347
0.000867031
0.000867943
0.000869074
0.00087041
0.000871942
0.000873659
0.000875551
0.000877607
0.000879821
0.000882181
0.000884679
0.000887307
0.000890056
0.000892916
0.000895878
0.000898934
0.000902074
0.00090529
0.000908573
0.000911915
0.000915309
0.000918746
0.000922219
0.000925721
0.000929244
0.00093278
0.000936323
0.000939863
0.000943392
0.000946901
0.000950381
0.000953822
0.000957215
0.00096055
0.000963816
0.000967002
0.0009701
0.000973097
0.000975984
0.00097875
0.000981386
0.00098388
0.000986222
0.000988403
0.000990413
0.000992241
0.00099388
0.000995318
0.000996549
0.000997563
0.000998351
0.000998907
0.000982246
0.000985493
0.000988629
0.000991641
0.000994521
0.000997256
0.000999837
0.00100225
0.0010045
0.00100655
0.00100842
0.00101008
0.00101153
0.00101275
0.00101375
0.000666685
0.000666491
0.000665995
0.000665198
0.000664126
0.000662803
0.000661241
0.000659452
0.00065745
0.000655246
0.000652853
0.000650281
0.00064754
0.000644642
0.000641594
0.000638407
0.000635088
0.000631646
0.000628087
0.00062442
0.000620651
0.000616786
0.000612833
0.000608797
0.000604687
0.000600507
0.000596265
0.000591969
0.000587623
0.000583235
0.00057881
0.000574355
0.000569876
0.000565377
0.000560864
0.000556342
0.000551814
0.000547287
0.000542763
0.000538246
0.000533741
0.00052925
0.000524777
0.000520325
0.000515896
0.000511494
0.000507121
0.000502779
0.00049847
0.000494197
0.000489961
0.000485764
0.000481607
0.000477493
0.000473422
0.000667003
0.000666811
0.000666315
0.000665518
0.000664448
0.000663126
0.000661565
0.000659779
0.000657779
0.000655577
0.000653186
0.000650616
0.000647878
0.000644982
0.000641937
0.000638752
0.000635435
0.000631995
0.000628439
0.000624773
0.000621006
0.000617143
0.000613191
0.000609157
0.000605047
0.000600868
0.000596627
0.000592331
0.000587985
0.000583597
0.000579172
0.000574716
0.000570236
0.000565736
0.000561222
0.000556697
0.000552168
0.000547639
0.000543112
0.000538593
0.000534085
0.000529591
0.000525115
0.000520659
0.000516227
0.000511821
0.000507443
0.000503097
0.000498784
0.000494506
0.000490265
0.000486063
0.000481901
0.000477782
0.000473706
0.000667622
0.000667431
0.000666936
0.000666141
0.000665073
0.000663754
0.000662197
0.000660414
0.000658417
0.00065622
0.000653834
0.000651268
0.000648535
0.000645643
0.000642603
0.000639422
0.00063611
0.000632674
0.000629122
0.00062546
0.000621696
0.000617836
0.000613887
0.000609855
0.000605747
0.00060157
0.00059733
0.000593034
0.000588689
0.000584301
0.000579875
0.000575419
0.000570937
0.000566434
0.000561917
0.00055739
0.000552857
0.000548324
0.000543793
0.000539268
0.000534755
0.000530255
0.000525772
0.000521309
0.00051687
0.000512456
0.000508071
0.000503716
0.000499394
0.000495107
0.000490857
0.000486645
0.000482474
0.000478344
0.000474258
0.000668523
0.000668332
0.000667839
0.000667046
0.000665982
0.000664667
0.000663115
0.000661337
0.000659347
0.000657156
0.000654776
0.000652218
0.000649491
0.000646606
0.000643573
0.000640399
0.000637093
0.000633663
0.000630117
0.00062646
0.000622701
0.000618846
0.000614901
0.000610873
0.000606768
0.000602593
0.000598356
0.000594061
0.000589716
0.000585328
0.000580901
0.000576443
0.000571959
0.000567454
0.000562933
0.000558401
0.000553863
0.000549324
0.000544786
0.000540254
0.000535733
0.000531224
0.000526732
0.00052226
0.00051781
0.000513385
0.000508988
0.000504621
0.000500286
0.000495986
0.000491722
0.000487497
0.000483311
0.000479167
0.000475065
0.000669687
0.000669498
0.000669007
0.000668217
0.000667158
0.000665848
0.000664302
0.000662532
0.000660549
0.000658367
0.000655995
0.000653446
0.000650728
0.000647853
0.000644828
0.000641663
0.000638366
0.000634944
0.000631405
0.000627757
0.000624004
0.000620155
0.000616216
0.000612193
0.000608092
0.000603921
0.000599686
0.000595393
0.000591049
0.00058666
0.000582233
0.000577773
0.000573286
0.000568778
0.000564252
0.000559715
0.00055517
0.000550623
0.000546077
0.000541536
0.000537004
0.000532485
0.000527981
0.000523496
0.000519032
0.000514593
0.000510181
0.000505799
0.000501448
0.000497131
0.00049285
0.000488606
0.000484402
0.000480239
0.000476118
0.000671098
0.00067091
0.000670422
0.000669636
0.000668582
0.00066728
0.000665742
0.00066398
0.000662007
0.000659835
0.000657474
0.000654935
0.000652229
0.000649365
0.000646351
0.000643197
0.000639911
0.0006365
0.000632971
0.000629331
0.000625588
0.000621746
0.000617814
0.000613797
0.000609702
0.000605535
0.000601304
0.000597013
0.000592671
0.000588283
0.000583855
0.000579393
0.000574903
0.00057039
0.00056586
0.000561316
0.000556764
0.000552208
0.000547652
0.0005431
0.000538556
0.000534023
0.000529505
0.000525005
0.000520525
0.000516069
0.000511639
0.000507238
0.000502867
0.00049853
0.000494228
0.000489963
0.000485736
0.00048155
0.000477405
0.000672739
0.000672553
0.000672067
0.000671286
0.000670239
0.000668945
0.000667416
0.000665665
0.000663703
0.000661543
0.000659195
0.00065667
0.000653977
0.000651126
0.000648127
0.000644986
0.000641712
0.000638314
0.000634797
0.000631168
0.000627435
0.000623604
0.00061968
0.000615671
0.000611583
0.000607422
0.000603195
0.000598908
0.000594568
0.00059018
0.000585752
0.000581289
0.000576796
0.000572278
0.000567742
0.000563191
0.00055863
0.000554065
0.000549497
0.000544933
0.000540375
0.000535828
0.000531293
0.000526776
0.000522277
0.000517802
0.000513351
0.000508928
0.000504535
0.000500174
0.000495848
0.000491557
0.000487305
0.000483092
0.00047892
0.000674593
0.000674409
0.000673927
0.000673152
0.000672112
0.000670827
0.00066931
0.000667571
0.000665622
0.000663476
0.000661143
0.000658633
0.000655956
0.000653121
0.000650137
0.000647012
0.000643754
0.00064037
0.000636867
0.000633252
0.000629531
0.000625712
0.000621799
0.000617799
0.000613719
0.000609565
0.000605344
0.000601061
0.000596724
0.000592339
0.000587911
0.000583446
0.00057895
0.000574428
0.000569886
0.000565327
0.000560758
0.000556181
0.000551602
0.000547024
0.000542451
0.000537887
0.000533335
0.000528798
0.000524279
0.000519782
0.000515308
0.000510861
0.000506442
0.000502055
0.000497701
0.000493382
0.000489101
0.000484858
0.000480655
0.000676646
0.000676464
0.000675986
0.000675217
0.000674186
0.000672912
0.000671407
0.000669682
0.000667748
0.000665619
0.000663302
0.00066081
0.000658151
0.000655334
0.000652368
0.000649261
0.000646021
0.000642654
0.000639167
0.000635568
0.000631862
0.000628056
0.000624155
0.000620167
0.000616097
0.000611952
0.000607738
0.000603461
0.000599128
0.000594745
0.000590318
0.000585852
0.000581354
0.000576828
0.00057228
0.000567714
0.000563135
0.000558547
0.000553956
0.000549363
0.000544774
0.000540192
0.000535621
0.000531063
0.000526522
0.000522
0.000517501
0.000513028
0.000508581
0.000504165
0.000499781
0.000495431
0.000491117
0.000486841
0.000482605
0.000678882
0.000678702
0.000678228
0.000677467
0.000676446
0.000675184
0.000673692
0.000671983
0.000670067
0.000667955
0.000665658
0.000663185
0.000660547
0.000657751
0.000654805
0.000651719
0.000648498
0.000645151
0.000641683
0.000638102
0.000634413
0.000630622
0.000626736
0.000622761
0.000618703
0.000614568
0.000610363
0.000606094
0.000601766
0.000597387
0.000592962
0.000588497
0.000583996
0.000579467
0.000574913
0.00057034
0.000565751
0.000561153
0.000556548
0.00055194
0.000547334
0.000542734
0.000538142
0.000533562
0.000528997
0.00052445
0.000519924
0.000515422
0.000510946
0.000506498
0.000502082
0.000497698
0.000493349
0.000489037
0.000484764
0.000681287
0.000681109
0.00068064
0.000679887
0.000678877
0.000677628
0.000676152
0.00067446
0.000672563
0.000670471
0.000668196
0.000665745
0.000663129
0.000660356
0.000657434
0.00065437
0.000651172
0.000647847
0.000644401
0.00064084
0.00063717
0.000633398
0.000629529
0.000625569
0.000621525
0.000617403
0.000613208
0.000608948
0.000604627
0.000600253
0.000595831
0.000591367
0.000586866
0.000582334
0.000577775
0.000573195
0.000568598
0.000563988
0.000559369
0.000554747
0.000550124
0.000545504
0.00054089
0.000536287
0.000531697
0.000527124
0.000522569
0.000518037
0.000513529
0.000509049
0.000504597
0.000500178
0.000495792
0.000491441
0.000487128
0.000683847
0.000683672
0.000683208
0.000682464
0.000681466
0.000680232
0.000678773
0.000677099
0.000675223
0.000673154
0.000670902
0.000668476
0.000665885
0.000663137
0.000660241
0.000657203
0.00065403
0.00065073
0.000647307
0.00064377
0.000640122
0.00063637
0.000632521
0.000628579
0.000624551
0.000620443
0.000616261
0.000612011
0.0006077
0.000603333
0.000598915
0.000594454
0.000589954
0.00058542
0.000580857
0.00057627
0.000571665
0.000567044
0.000562413
0.000557775
0.000553134
0.000548495
0.00054386
0.000539233
0.000534617
0.000530016
0.000525432
0.000520868
0.000516327
0.000511811
0.000507324
0.000502866
0.00049844
0.000494049
0.000489694
0.000686549
0.000686376
0.000685919
0.000685184
0.000684199
0.000682981
0.00068154
0.000679888
0.000678034
0.000675989
0.000673763
0.000671364
0.000668801
0.000666081
0.000663213
0.000660204
0.000657059
0.000653786
0.000650391
0.000646878
0.000643256
0.000639527
0.0006357
0.000631778
0.000627769
0.000623678
0.000619511
0.000615274
0.000610973
0.000606615
0.000602204
0.000597747
0.000593249
0.000588714
0.000584149
0.000579557
0.000574944
0.000570314
0.00056567
0.000561017
0.000556359
0.0005517
0.000547043
0.000542392
0.00053775
0.000533121
0.000528506
0.00052391
0.000519334
0.000514782
0.000510256
0.000505759
0.000501292
0.000496858
0.000492459
0.00068938
0.00068921
0.000688759
0.000688034
0.000687064
0.000685863
0.000684443
0.000682813
0.000680984
0.000678965
0.000676767
0.000674397
0.000671864
0.000669176
0.000666339
0.00066336
0.000660247
0.000657004
0.000653638
0.000650155
0.000646559
0.000642857
0.000639054
0.000635156
0.000631168
0.000627096
0.000622946
0.000618725
0.000614437
0.00061009
0.000605688
0.000601237
0.000596743
0.00059221
0.000587643
0.000583048
0.000578428
0.000573789
0.000569133
0.000564467
0.000559792
0.000555114
0.000550435
0.00054576
0.000541091
0.000536433
0.000531787
0.000527158
0.000522547
0.000517957
0.000513392
0.000508854
0.000504344
0.000499865
0.00049542
0.000692327
0.000692161
0.000691717
0.000691004
0.000690048
0.000688866
0.000687467
0.000685862
0.000684059
0.00068207
0.000679902
0.000677564
0.000675064
0.000672409
0.000669606
0.000666661
0.000663581
0.000660372
0.000657039
0.000653587
0.000650022
0.000646349
0.000642573
0.000638701
0.000634737
0.000630687
0.000626558
0.000622354
0.000618083
0.000613749
0.000609358
0.000604915
0.000600427
0.000595897
0.000591331
0.000586734
0.000582109
0.000577462
0.000572796
0.000568117
0.000563426
0.000558729
0.00055403
0.000549331
0.000544636
0.000539948
0.000535271
0.000530608
0.000525961
0.000521333
0.000516728
0.000512147
0.000507593
0.000503069
0.000498575
0.000695381
0.000695218
0.000694781
0.00069408
0.000693141
0.000691979
0.000690603
0.000689023
0.00068725
0.000685291
0.000683156
0.000680852
0.000678387
0.000675768
0.000673002
0.000670095
0.000667052
0.000663879
0.000660581
0.000657164
0.000653633
0.000649992
0.000646247
0.000642403
0.000638467
0.000634442
0.000630335
0.000626153
0.0006219
0.000617581
0.000613204
0.000608773
0.000604292
0.000599768
0.000595205
0.000590608
0.00058598
0.000581327
0.000576653
0.000571961
0.000567256
0.000562541
0.000557821
0.000553099
0.000548378
0.000543662
0.000538953
0.000534256
0.000529573
0.000524907
0.000520261
0.000515637
0.000511038
0.000506466
0.000501924
0.000698528
0.000698369
0.00069794
0.000697252
0.00069633
0.000695189
0.000693838
0.000692286
0.000690543
0.000688618
0.000686518
0.000684251
0.000681824
0.000679244
0.000676517
0.00067365
0.000670647
0.000667513
0.000664255
0.000660876
0.000657381
0.000653776
0.000650065
0.000646253
0.000642347
0.00063835
0.00063427
0.000630111
0.000625879
0.00062158
0.000617219
0.000612801
0.000608332
0.000603816
0.000599258
0.000594662
0.000590034
0.000585377
0.000580696
0.000575994
0.000571275
0.000566545
0.000561805
0.000557061
0.000552314
0.00054757
0.000542831
0.0005381
0.000533381
0.000528676
0.000523988
0.000519321
0.000514676
0.000510056
0.000505464
0.000701759
0.000701603
0.000701183
0.000700509
0.000699606
0.000698487
0.000697162
0.00069564
0.00069393
0.00069204
0.000689977
0.000687749
0.000685363
0.000682825
0.000680141
0.000677316
0.000674356
0.000671266
0.000668049
0.000664711
0.000661257
0.00065769
0.000654017
0.000650241
0.000646368
0.000642403
0.000638352
0.00063422
0.000630013
0.000625736
0.000621394
0.000616993
0.000612537
0.000608032
0.000603482
0.000598891
0.000594264
0.000589606
0.000584919
0.000580209
0.00057548
0.000570734
0.000565977
0.000561211
0.000556441
0.000551669
0.0005469
0.000542136
0.00053738
0.000532637
0.000527908
0.000523196
0.000518505
0.000513837
0.000509194
0.000705064
0.000704912
0.000704501
0.000703841
0.000702957
0.000701863
0.000700566
0.000699075
0.000697399
0.000695546
0.000693523
0.000691338
0.000688995
0.000686502
0.000683863
0.000681084
0.00067817
0.000675126
0.000671955
0.000668662
0.000665251
0.000661726
0.000658093
0.000654356
0.00065052
0.00064659
0.000642572
0.000638471
0.000634292
0.00063004
0.000625721
0.00062134
0.000616902
0.00061241
0.000607871
0.000603288
0.000598665
0.000594007
0.000589318
0.000584602
0.000579863
0.000575105
0.000570331
0.000565546
0.000560753
0.000555955
0.000551157
0.00054636
0.00054157
0.000536788
0.000532018
0.000527263
0.000522525
0.000517808
0.000513114
0.000708433
0.000708284
0.000707883
0.000707238
0.000706375
0.000705306
0.000704038
0.000702581
0.000700941
0.000699128
0.000697147
0.000695006
0.000692709
0.000690263
0.000687673
0.000684944
0.000682079
0.000679084
0.000675962
0.000672717
0.000669353
0.000665874
0.000662286
0.000658591