/*--------------------------------*- C++ -*----------------------------------*\
| =========                 |                                                 |
| \\      /  F ield         | OpenFOAM: The Open Source CFD Toolbox           |
|  \\    /   O peration     | Version:  2412                                  |
|   \\  /    A nd           | Website:  www.openfoam.com                      |
|    \\/     M anipulation  |                                                 |
\*---------------------------------------------------------------------------*/
FoamFile
{
    version     2.0;
    format      ascii;
    arch        "LSB;label=32;scalar=64";
    class       surfaceScalarField;
    location    "28.5";
    object      phi;
}
// * * * * * * * * * * * * * * * * * * * * * * * * * * * * * * * * * * * * * //

dimensions      [0 3 -1 0 0 0 0];

oriented        oriented;

internalField   nonuniform List<scalar> 
10424
(
0.00530842
-0.000210102
-0.00530574
0.00020742
0.00531125
-0.000214301
0.000211471
0.00531424
-0.000218561
0.000215577
0.00531738
-0.000222878
0.000219733
0.0053207
-0.000227248
0.000223934
0.00532419
-0.000231664
0.000228174
0.00532786
-0.000236122
0.000232448
0.00533172
-0.000240616
0.000236751
0.00533579
-0.000245139
0.000241075
0.00534006
-0.000249684
0.000245414
0.00534454
-0.000254245
0.000249762
0.00534925
-0.000258814
0.000254109
0.00535418
-0.000263382
0.000258448
0.00535935
-0.000267939
0.000262769
0.00536476
-0.000272475
0.000267063
-0.000276978
0.000271317
0.00530411
-0.000212725
-0.00530149
0.00530689
-0.000217074
0.00530982
-0.000221492
0.00531291
-0.000225975
0.00531618
-0.000230518
0.00531963
-0.000235115
0.00532328
-0.000239762
0.00532711
-0.000244453
0.00533116
-0.000249182
0.00533541
-0.000253941
0.00533989
-0.000258724
0.0053446
-0.000263522
0.00534954
-0.000268327
0.00535473
-0.00027313
0.00536018
-0.000277919
-0.000282683
0.00529966
-0.000215282
-0.00529711
0.00530237
-0.000219784
0.00530524
-0.000224363
0.00530828
-0.000229016
0.0053115
-0.000233736
0.00531491
-0.000238519
0.00531851
-0.000243361
0.00532231
-0.000248255
0.00532632
-0.000253196
0.00533056
-0.000258175
0.00533502
-0.000263188
0.00533972
-0.000268224
0.00534467
-0.000273277
0.00534988
-0.000278335
0.00535535
-0.000283388
-0.000288424
0.00529507
-0.000217764
-0.00529259
0.00529771
-0.000222422
0.00530051
-0.000227166
0.00530349
-0.000231992
0.00530665
-0.000236894
0.00531
-0.000241868
0.00531354
-0.00024691
0.0053173
-0.000252013
0.00532128
-0.000257172
0.00532548
-0.00026238
0.00532992
-0.000267629
0.00533461
-0.000272913
0.00533956
-0.000278221
0.00534477
-0.000283545
0.00535025
-0.000288874
-0.000294194
0.00529034
-0.000220163
-0.00528794
0.00529289
-0.000224981
0.00529562
-0.000229892
0.00529852
-0.000234894
0.00530161
-0.000239982
0.0053049
-0.000245152
0.00530838
-0.000250399
0.00531209
-0.000255717
0.00531602
-0.000261101
0.00532018
-0.000266543
0.00532459
-0.000272038
0.00532925
-0.000277577
0.00533419
-0.000283152
0.00533939
-0.000288752
0.00534489
-0.000294367
-0.000299983
0.00528545
-0.00022247
-0.00528314
0.00528792
-0.00022745
0.00529056
-0.000232532
0.00529338
-0.000237714
0.00529639
-0.000242992
0.0052996
-0.000248362
0.00530302
-0.000253818
0.00530666
-0.000259357
0.00531053
-0.000264972
0.00531465
-0.000270657
0.00531901
-0.000276405
0.00532364
-0.000282208
0.00532855
-0.000288058
0.00533374
-0.000293945
0.00533923
-0.000299857
-0.000305783
0.00528042
-0.000224677
-0.00527821
0.00528279
-0.00022982
0.00528533
-0.000235076
0.00528806
-0.000240442
0.00529098
-0.000245913
0.00529411
-0.000251487
0.00529744
-0.000257158
0.00530101
-0.000262923
0.00530481
-0.000268775
0.00530887
-0.000274709
0.00531318
-0.000280718
0.00531776
-0.000286794
0.00532263
-0.000292928
0.0053278
-0.000299112
0.00533328
-0.000305334
-0.000311581
0.00527523
-0.000226774
-0.00527313
0.00527749
-0.000232083
0.00527993
-0.000237514
0.00528255
-0.000243066
0.00528537
-0.000248734
0.0052884
-0.000254516
0.00529165
-0.000260407
0.00529513
-0.000266402
0.00529885
-0.000272498
0.00530283
-0.000278687
0.00530708
-0.000284964
0.00531161
-0.000291322
0.00531643
-0.000297751
0.00532156
-0.000304242
0.00532701
-0.000310785
-0.000317366
0.00526988
-0.000228751
-0.0052679
0.00527203
-0.000234227
0.00527435
-0.000239836
0.00527686
-0.000245576
0.00527957
-0.000251445
0.00528249
-0.000257437
0.00528564
-0.000263552
0.00528902
-0.000269784
0.00529265
-0.000276128
0.00529654
-0.00028258
0.00530071
-0.000289132
0.00530516
-0.000295779
0.00530993
-0.000302512
0.005315
-0.000309321
0.00532042
-0.000316196
-0.000323124
0.00526437
-0.000230597
-0.00526253
0.00526639
-0.000236242
0.00526858
-0.000242031
0.00527097
-0.000247962
0.00527356
-0.000254032
0.00527636
-0.00026024
0.00527939
-0.000266581
0.00528266
-0.000273054
0.00528618
-0.000279652
0.00528998
-0.000286372
0.00529405
-0.000293208
0.00529842
-0.000300152
0.00530311
-0.000307197
0.00530812
-0.000314335
0.00531348
-0.000321553
-0.000328841
0.00525871
-0.000232303
-0.005257
0.00526058
-0.000238118
0.00526264
-0.000244087
0.00526488
-0.00025021
0.00526734
-0.000256485
0.00527001
-0.00026291
0.00527291
-0.000269482
0.00527605
-0.000276199
0.00527946
-0.000283057
0.00528314
-0.00029005
0.0052871
-0.000297175
0.00529138
-0.000304425
0.00529597
-0.000311792
0.0053009
-0.000319267
0.00530619
-0.000326841
-0.000334501
0.00525287
-0.000233858
-0.00525132
0.0052546
-0.000239842
0.0052565
-0.000245992
0.0052586
-0.000252309
0.00526091
-0.00025879
0.00526343
-0.000265434
0.00526619
-0.00027224
0.00526919
-0.000279205
0.00527246
-0.000286326
0.00527601
-0.000293599
0.00527986
-0.000301019
0.00528401
-0.000308581
0.0052885
-0.000316278
0.00529333
-0.000324101
0.00529853
-0.000332041
-0.000340086
0.00524687
-0.00023525
-0.00524548
0.00524844
-0.000241403
0.00525018
-0.000247735
0.00525211
-0.000254245
0.00525426
-0.000260933
0.00525662
-0.000267799
0.00525922
-0.00027484
0.00526207
-0.000282056
0.00526519
-0.000289444
0.00526859
-0.000297001
0.0052723
-0.000304723
0.00527632
-0.000312604
0.00528068
-0.000320639
0.0052854
-0.000328819
0.00529049
-0.000337136
-0.000345578
0.00524071
-0.000236467
-0.00523949
0.0052421
-0.000242789
0.00524366
-0.000249301
0.00524542
-0.000256005
0.00524739
-0.000262901
0.00524958
-0.000269989
0.00525201
-0.000277268
0.00525469
-0.000284737
0.00525764
-0.000292395
0.00526088
-0.00030024
0.00526442
-0.000308268
0.00526829
-0.000316474
0.00527251
-0.000324854
0.00527709
-0.000333401
0.00528206
-0.000342105
-0.000350956
0.00523438
-0.000237499
-0.00523335
0.00523558
-0.000243987
0.00523696
-0.000250679
0.00523853
-0.000257576
0.00524031
-0.000264679
0.00524231
-0.000271989
0.00524454
-0.000279506
0.00524704
-0.00028723
0.0052498
-0.000295161
0.00525286
-0.000303296
0.00525623
-0.000311635
0.00525993
-0.000320172
0.00526397
-0.000328904
0.0052684
-0.000337825
0.00527322
-0.000346925
-0.000356197
0.00522789
-0.000238333
-0.00522706
0.00522889
-0.000244985
0.00523006
-0.000251854
0.00523143
-0.000258942
0.005233
-0.000266251
0.0052348
-0.000273783
0.00523683
-0.000281538
0.00523912
-0.000289518
0.00524168
-0.000297722
0.00524453
-0.000306152
0.0052477
-0.000314804
0.00525121
-0.000323677
0.00525507
-0.000332766
0.00525931
-0.000342068
0.00526396
-0.000351575
-0.000361277
0.00522123
-0.000238956
-0.00522061
0.00522202
-0.00024577
0.00522298
-0.000252813
0.00522412
-0.00026009
0.00522548
-0.000267603
0.00522705
-0.000275354
0.00522886
-0.000283346
0.00523092
-0.000291581
0.00523326
-0.000300061
0.00523589
-0.000308785
0.00523884
-0.000317753
0.00524213
-0.000326965
0.00524578
-0.000336417
0.00524982
-0.000346107
0.00525427
-0.000356027
-0.00036617
0.00521442
-0.000239356
-0.00521402
0.00521498
-0.000246327
0.0052157
-0.000253542
0.00521662
-0.000261004
0.00521773
-0.000268717
0.00521906
-0.000276686
0.00522063
-0.000284913
0.00522245
-0.000293402
0.00522455
-0.000302155
0.00522694
-0.000311174
0.00522964
-0.00032046
0.00523269
-0.000330013
0.00523611
-0.000339832
0.00523991
-0.000349914
0.00524414
-0.000360255
-0.000370847
0.00520745
-0.00023952
-0.00520728
0.00520776
-0.000246644
0.00520825
-0.000254024
0.00520891
-0.000261667
0.00520977
-0.000269578
0.00521085
-0.00027776
0.00521215
-0.000286219
0.00521371
-0.00029496
0.00521554
-0.000303985
0.00521766
-0.000313298
0.0052201
-0.000322902
0.00522289
-0.000332797
0.00522604
-0.000342984
0.00522959
-0.000353463
0.00523356
-0.000364229
-0.000375279
0.00520032
-0.00520041
0.00520039
0.00520061
0.00520101
0.0052016
0.00520239
0.00520342
0.00520469
0.00520624
0.00520807
0.00521022
0.00521271
0.00521558
0.00521884
0.00522253
0.00529287
-5.18213e-06
5.20392e-06
0.00529281
-1.51138e-05
1.51773e-05
0.00529271
-2.44813e-05
2.45835e-05
0.00529257
-3.3346e-05
3.34838e-05
0.0052924
-4.17626e-05
4.19329e-05
0.0052922
-4.9777e-05
4.99765e-05
0.00529197
-5.74224e-05
5.76475e-05
0.00529173
-6.47254e-05
6.49723e-05
0.00529146
-7.17347e-05
7.2e-05
0.00529118
-7.85669e-05
7.88502e-05
0.00529087
-8.54507e-05
8.57578e-05
0.00529052
-9.27362e-05
9.30825e-05
0.00529011
-0.00010085
0.000101262
0.0052896
-0.0001102
0.000110713
0.00528895
-0.000121054
0.000121708
0.00528812
-0.00013344
0.00013427
0.00528708
-0.000147097
0.00014813
0.00528584
-0.000161498
0.000162741
0.0052844
-0.000175929
0.000177368
0.0052828
-0.00018961
0.00019121
0.00528109
-0.000201818
0.000203526
0.00527934
-0.000211987
0.000213738
0.00527762
-0.000219767
0.000221493
0.00527598
-0.000225047
0.000226682
0.00527449
-0.000227929
0.000229416
0.0052732
-0.000228685
0.000229977
0.00527214
-0.000227696
0.00022876
0.00527132
-0.000225392
0.00022621
0.00527076
-0.000222205
0.00022277
0.00527044
-0.000218527
0.000218844
0.00527036
-0.000214689
0.000214769
0.0052705
-0.000210949
0.000210809
0.00527084
-0.000207492
0.000207151
0.00527136
-0.000204435
0.000203914
0.00527204
-0.000201839
0.000201158
0.00527287
-0.000199723
0.000198898
0.00527382
-0.000198069
0.000197118
0.00527488
-0.000196842
0.000195777
0.00527605
-0.00019599
0.000194823
0.00527731
-0.000195458
0.000194197
0.00527866
-0.000195188
0.00019384
0.00528009
-0.000195126
0.000193695
0.0052816
-0.000195221
0.00019371
0.00528319
-0.000195428
0.000193839
0.00528485
-0.000195709
0.000194043
0.00528659
-0.000196029
0.000194288
0.00528841
-0.000196363
0.000194545
0.00529031
-0.000196686
0.000194792
0.00529228
-0.00019698
0.000195009
0.00529433
-0.000197231
0.000195182
0.00529645
-0.000197426
0.000195299
0.00529866
-0.000197556
0.000195351
0.00530094
-0.000197614
0.000195331
0.0053033
-0.000197595
0.000195233
-0.000197494
0.000195055
0.00529287
-5.1576e-06
0.0052928
-1.50423e-05
0.00529268
-2.43661e-05
0.00529253
-3.31905e-05
0.00529233
-4.15701e-05
0.00529211
-4.95511e-05
0.00529185
-5.71667e-05
0.00529157
-6.44441e-05
0.00529127
-7.14312e-05
0.00529094
-7.82417e-05
0.00529059
-8.50979e-05
0.00529019
-9.23405e-05
0.00528973
-0.000100385
0.00528916
-0.00010963
0.00528844
-0.000120339
0.00528755
-0.000132542
0.00528644
-0.000145992
0.00528512
-0.000160177
0.0052836
-0.000174406
0.00528191
-0.000187921
0.00528011
-0.000200016
0.00527825
-0.000210135
0.00527642
-0.000217936
0.00527468
-0.000223303
0.00527308
-0.000226332
0.00527168
-0.000227281
0.0052705
-0.000226517
0.00526957
-0.000224459
0.00526889
-0.000221524
0.00526845
-0.000218095
0.00526826
-0.000214495
0.00526829
-0.000210976
0.00526852
-0.000207721
0.00526893
-0.000204846
0.0052695
-0.000202413
0.00527022
-0.000200441
0.00527107
-0.000198916
0.00527203
-0.000197804
0.0052731
-0.000197056
0.00527426
-0.00019662
0.00527551
-0.000196439
0.00527684
-0.000196462
0.00527826
-0.000196638
0.00527976
-0.000196925
0.00528134
-0.000197285
0.00528299
-0.000197684
0.00528472
-0.000198097
0.00528654
-0.000198499
0.00528843
-0.000198873
0.0052904
-0.000199204
0.00529246
-0.00019948
0.00529459
-0.000199692
0.00529681
-0.000199831
0.00529911
-0.000199893
-0.000199874
0.00529287
-5.1303e-06
0.00529279
-1.49627e-05
0.00529266
-2.42379e-05
0.00529249
-3.30172e-05
0.00529227
-4.13553e-05
0.00529202
-4.92984e-05
0.00529173
-5.68802e-05
0.00529142
-6.4128e-05
0.00529107
-7.10889e-05
0.00529071
-7.7874e-05
0.00529031
-8.46991e-05
0.00528986
-9.18953e-05
0.00528934
-9.98674e-05
0.00528872
-0.000109004
0.00528794
-0.000119563
0.00528698
-0.000131581
0.00528581
-0.000144818
0.00528441
-0.000158782
0.00528281
-0.000172805
0.00528104
-0.000186148
0.00527915
-0.000198124
0.0052772
-0.00020819
0.00527527
-0.000216006
0.00527342
-0.000221456
0.00527172
-0.000224627
0.0052702
-0.000225765
0.00526891
-0.000225225
0.00526786
-0.00022341
0.00526707
-0.000220727
0.00526652
-0.000217546
0.00526621
-0.000214183
0.00526611
-0.000210886
0.00526623
-0.000207834
0.00526652
-0.000205141
0.00526698
-0.000202872
0.00526759
-0.000201045
0.00526832
-0.000199651
0.00526917
-0.000198655
0.00527013
-0.000198013
0.00527118
-0.000197675
0.00527233
-0.000197586
0.00527356
-0.000197695
0.00527488
-0.000197955
0.00527628
-0.000198325
0.00527776
-0.000198765
0.00527932
-0.000199246
0.00528096
-0.000199739
0.00528269
-0.000200224
0.0052845
-0.00020068
0.00528639
-0.000201095
0.00528836
-0.000201455
0.00529042
-0.00020175
0.00529256
-0.000201975
0.00529479
-0.000202122
-0.000202187
0.00529286
-5.10022e-06
0.00529278
-1.4875e-05
0.00529263
-2.40965e-05
0.00529244
-3.2826e-05
0.00529221
-4.1118e-05
0.00529193
-4.90189e-05
0.00529161
-5.65626e-05
0.00529126
-6.37767e-05
0.00529088
-7.07077e-05
0.00529047
-7.74636e-05
0.00529002
-8.4254e-05
0.00528953
-9.14004e-05
0.00528896
-9.92966e-05
0.00528827
-0.000108321
0.00528744
-0.000118729
0.00528641
-0.000130557
0.00528518
-0.000143579
0.00528371
-0.00015732
0.00528204
-0.000171131
0.00528019
-0.000184298
0.00527822
-0.000196151
0.00527618
-0.000206157
0.00527416
-0.000213983
0.00527221
-0.00021951
0.0052704
-0.000222818
0.00526878
-0.000224141
0.00526737
-0.00022382
0.00526621
-0.000222245
0.00526529
-0.00021981
0.00526462
-0.000216876
0.00526419
-0.000213749
0.00526398
-0.000210673
0.00526397
-0.000207823
0.00526414
-0.000205314
0.00526448
-0.000203209
0.00526496
-0.000201529
0.00526558
-0.000200266
0.00526631
-0.000199389
0.00526715
-0.000198855
0.00526809
-0.000198615
0.00526913
-0.00019862
0.00527025
-0.000198818
0.00527146
-0.000199164
0.00527275
-0.000199618
0.00527413
-0.000200142
0.00527559
-0.000200706
0.00527713
-0.000201284
0.00527876
-0.000201852
0.00528047
-0.000202394
0.00528227
-0.000202895
0.00528416
-0.000203342
0.00528614
-0.000203725
0.0052882
-0.000204038
0.00529035
-0.000204273
-0.000204427
0.00529286
-5.06734e-06
0.00529277
-1.47792e-05
0.00529261
-2.39418e-05
0.0052924
-3.26166e-05
0.00529214
-4.08581e-05
0.00529183
-4.87124e-05
0.00529149
-5.62137e-05
0.0052911
-6.339e-05
0.00529068
-7.0287e-05
0.00529022
-7.70099e-05
0.00528973
-8.37621e-05
0.00528919
-9.08555e-05
0.00528856
-9.86728e-05
0.00528783
-0.000107583
0.00528693
-0.000117837
0.00528585
-0.000129474
0.00528455
-0.000142277
0.00528302
-0.000155792
0.00528128
-0.000169389
0.00527936
-0.000182376
0.00527731
-0.0001941
0.00527519
-0.000204041
0.00527308
-0.000211871
0.00527104
-0.00021747
0.00526913
-0.000220908
0.0052674
-0.00022241
0.00526588
-0.000222303
0.0052646
-0.000220964
0.00526356
-0.000218773
0.00526277
-0.000216082
0.00526221
-0.000213189
0.00526187
-0.000210333
0.00526173
-0.000207685
0.00526177
-0.000205359
0.00526198
-0.000203418
0.00526234
-0.000201886
0.00526283
-0.000200755
0.00526344
-0.000199998
0.00526416
-0.000199573
0.00526498
-0.000199435
0.00526589
-0.000199534
0.0052669
-0.000199823
0.00526799
-0.000200258
0.00526917
-0.000200798
0.00527043
-0.000201408
0.00527179
-0.000202058
0.00527322
-0.000202721
0.00527475
-0.000203377
0.00527636
-0.000204007
0.00527806
-0.000204597
0.00527986
-0.000205134
0.00528174
-0.000205608
0.00528371
-0.000206012
0.00528578
-0.000206339
-0.000206585
0.00529286
-5.03164e-06
0.00529275
-1.46751e-05
0.00529259
-2.37739e-05
0.00529236
-3.23891e-05
0.00529208
-4.05753e-05
0.00529174
-4.83786e-05
0.00529136
-5.58333e-05
0.00529094
-6.29676e-05
0.00529048
-6.98267e-05
0.00528998
-7.65128e-05
0.00528944
-8.32231e-05
0.00528885
-9.02604e-05
0.00528817
-9.79963e-05
0.00528738
-0.00010679
0.00528643
-0.000116888
0.00528529
-0.000128332
0.00528393
-0.000140917
0.00528234
-0.000154203
0.00528053
-0.000167584
0.00527854
-0.000180386
0.00527642
-0.000191976
0.00527423
-0.000201847
0.00527203
-0.000209675
0.0052699
-0.000215338
0.00526789
-0.0002189
0.00526605
-0.000220574
0.00526443
-0.000220675
0.00526303
-0.000219565
0.00526187
-0.000217613
0.00526095
-0.000215161
0.00526026
-0.0002125
0.00525979
-0.00020986
0.00525951
-0.000207413
0.00525942
-0.00020527
0.0052595
-0.000203494
0.00525972
-0.000202109
0.00526008
-0.000201112
0.00526056
-0.000200475
0.00526115
-0.000200161
0.00526184
-0.000200126
0.00526262
-0.000200322
0.0052635
-0.000200704
0.00526447
-0.000201228
0.00526553
-0.000201857
0.00526668
-0.000202555
0.00526792
-0.000203293
0.00526924
-0.000204045
0.00527065
-0.000204791
0.00527216
-0.000205512
0.00527375
-0.000206193
0.00527544
-0.000206822
0.00527723
-0.000207391
0.0052791
-0.000207889
0.00528108
-0.000208312
-0.000208653
0.00529286
-4.99311e-06
0.00529274
-1.45628e-05
0.00529256
-2.35925e-05
0.00529232
-3.21434e-05
0.00529201
-4.02696e-05
0.00529165
-4.80174e-05
0.00529124
-5.54212e-05
0.00529078
-6.25094e-05
0.00529028
-6.93265e-05
0.00528974
-7.59719e-05
0.00528915
-8.26368e-05
0.00528851
-8.96148e-05
0.00528778
-9.72668e-05
0.00528693
-0.000105943
0.00528592
-0.000115884
0.00528473
-0.000127134
0.00528331
-0.000139499
0.00528166
-0.000152555
0.00527979
-0.000165717
0.00527774
-0.000178333
0.00527555
-0.000189785
0.00527328
-0.00019958
0.00527101
-0.000207399
0.00526879
-0.000213118
0.00526668
-0.000216796
0.00526474
-0.000218634
0.005263
-0.000218935
0.00526149
-0.000218048
0.0052602
-0.00021633
0.00525916
-0.000214112
0.00525833
-0.000211678
0.00525773
-0.000209252
0.00525732
-0.000207003
0.00525709
-0.000205041
0.00525702
-0.000203429
0.00525711
-0.000202193
0.00525732
-0.000201329
0.00525766
-0.000200814
0.00525811
-0.000200612
0.00525867
-0.000200681
0.00525932
-0.000200976
0.00526007
-0.000201452
0.00526091
-0.000202069
0.00526184
-0.000202788
0.00526287
-0.000203576
0.00526398
-0.000204405
0.00526518
-0.000205248
0.00526647
-0.000206086
0.00526786
-0.0002069
0.00526934
-0.000207675
0.00527092
-0.0002084
0.0052726
-0.000209065
0.00527437
-0.000209661
0.00527624
-0.000210183
-0.000210623
0.00529285
-4.95174e-06
0.00529273
-1.44422e-05
0.00529254
-2.33977e-05
0.00529227
-3.18793e-05
0.00529194
-3.99409e-05
0.00529156
-4.76287e-05
0.00529111
-5.49773e-05
0.00529062
-6.20151e-05
0.00529008
-6.87861e-05
0.00528949
-7.53869e-05
0.00528886
-8.20029e-05
0.00528816
-8.89186e-05
0.00528738
-9.64843e-05
0.00528648
-0.000105041
0.00528542
-0.000114824
0.00528416
-0.000125881
0.00528269
-0.000138026
0.00528099
-0.000150852
0.00527906
-0.000163794
0.00527695
-0.000176219
0.00527469
-0.00018753
0.00527236
-0.000197243
0.00527
-0.000205046
0.0052677
-0.000210814
0.0052655
-0.000214599
0.00526346
-0.000216593
0.00526161
-0.000217085
0.00525998
-0.000216413
0.00525857
-0.000214922
0.00525739
-0.000212932
0.00525643
-0.00021072
0.00525568
-0.000208505
0.00525513
-0.000206452
0.00525476
-0.000204669
0.00525455
-0.00020322
0.00525449
-0.000202132
0.00525456
-0.000201402
0.00525476
-0.000201009
0.00525506
-0.000200921
0.00525548
-0.000201095
0.00525599
-0.000201489
0.0052566
-0.000202062
0.0052573
-0.000202772
0.0052581
-0.000203584
0.00525899
-0.000204464
0.00525997
-0.000205385
0.00526104
-0.000206321
0.00526221
-0.000207253
0.00526347
-0.000208163
0.00526483
-0.000209035
0.00526629
-0.000209859
0.00526785
-0.000210623
0.00526951
-0.00021132
0.00527127
-0.000211943
-0.000212486
0.00529285
-4.90752e-06
0.00529272
-1.43132e-05
0.00529251
-2.31895e-05
0.00529223
-3.15968e-05
0.00529188
-3.95892e-05
0.00529146
-4.72124e-05
0.00529099
-5.45014e-05
0.00529046
-6.14846e-05
0.00528987
-6.82053e-05
0.00528925
-7.47575e-05
0.00528856
-8.1321e-05
0.00528782
-8.81715e-05
0.00528698
-9.56488e-05
0.00528602
-0.000104085
0.00528491
-0.00011371
0.0052836
-0.000124573
0.00528207
-0.000136498
0.00528032
-0.000149094
0.00527834
-0.000161815
0.00527617
-0.000174048
0.00527385
-0.000185213
0.00527145
-0.000194839
0.00526902
-0.000202618
0.00526663
-0.000208427
0.00526434
-0.000212309
0.0052622
-0.00021445
0.00526024
-0.000215125
0.00525848
-0.000214659
0.00525695
-0.000213387
0.00525564
-0.000211619
0.00525454
-0.000209623
0.00525365
-0.000207615
0.00525295
-0.000205754
0.00525243
-0.000204149
0.00525207
-0.000202862
0.00525186
-0.00020192
0.00525179
-0.000201324
0.00525183
-0.000201055
0.00525199
-0.000201079
0.00525225
-0.00020136
0.00525262
-0.000201856
0.00525308
-0.000202526
0.00525364
-0.000203331
0.0052543
-0.000204237
0.00525504
-0.000205211
0.00525589
-0.000206226
0.00525682
-0.000207258
0.00525785
-0.000208286
0.00525899
-0.000209294
0.00526022
-0.000210266
0.00526155
-0.00021119
0.00526298
-0.000212057
0.00526452
-0.000212857
0.00526616
-0.000213584
-0.000214233
0.00529285
-4.86044e-06
0.00529271
-1.4176e-05
0.00529249
-2.29677e-05
0.00529219
-3.12959e-05
0.00529181
-3.92142e-05
0.00529137
-4.67684e-05
0.00529086
-5.39934e-05
0.00529029
-6.09176e-05
0.00528967
-6.75839e-05
0.005289
-7.40837e-05
0.00528827
-8.05911e-05
0.00528747
-8.73732e-05
0.00528658
-9.476e-05
0.00528557
-0.000103074
0.0052844
-0.000112541
0.00528304
-0.000123211
0.00528146
-0.000134917
0.00527965
-0.000147283
0.00527762
-0.000159782
0.00527539
-0.000171821
0.00527301
-0.000182836
0.00527054
-0.000192369
0.00526804
-0.000200118
0.00526557
-0.000205958
0.00526319
-0.00020993
0.00526095
-0.000212207
0.00525888
-0.000213055
0.00525701
-0.000212787
0.00525535
-0.000211725
0.0052539
-0.000210172
0.00525266
-0.000208387
0.00525163
-0.00020658
0.00525078
-0.000204908
0.00525011
-0.000203477
0.0052496
-0.000202349
0.00524923
-0.000201554
0.005249
-0.000201091
0.00524889
-0.000200944
0.00524889
-0.000201083
0.005249
-0.000201471
0.00524921
-0.000202069
0.00524953
-0.000202838
0.00524993
-0.00020374
0.00525044
-0.000204741
0.00525104
-0.00020581
0.00525173
-0.000206921
0.00525252
-0.00020805
0.00525341
-0.000209176
0.0052544
-0.000210283
0.00525549
-0.000211357
0.00525669
-0.000212384
0.00525799
-0.000213356
0.00525939
-0.000214262
0.00526091
-0.000215097
-0.000215854
0.00529284
-4.8105e-06
0.0052927
-1.40304e-05
0.00529246
-2.27324e-05
0.00529214
-3.09765e-05
0.00529175
-3.88161e-05
0.00529127
-4.62967e-05
0.00529073
-5.34532e-05
0.00529013
-6.03142e-05
0.00528947
-6.69219e-05
0.00528875
-7.33652e-05
0.00528797
-7.98128e-05
0.00528712
-8.65237e-05
0.00528618
-9.38178e-05
0.00528511
-0.000102009
0.00528389
-0.000111318
0.00528248
-0.000121795
0.00528084
-0.000133283
0.00527898
-0.00014542
0.00527689
-0.000157697
0.00527461
-0.00016954
0.00527218
-0.000180402
0.00526964
-0.000189836
0.00526707
-0.000197547
0.00526452
-0.00020341
0.00526206
-0.000207461
0.00525971
-0.000209864
0.00525753
-0.000210875
0.00525554
-0.000210795
0.00525375
-0.000209935
0.00525217
-0.000208588
0.00525079
-0.000207008
0.00524961
-0.000205397
0.00524861
-0.000203909
0.00524778
-0.000202649
0.00524711
-0.000201679
0.00524658
-0.000201028
0.00524619
-0.000200698
0.00524592
-0.000200674
0.00524576
-0.000200926
0.00524571
-0.000201422
0.00524577
-0.000202123
0.00524592
-0.000202991
0.00524617
-0.00020399
0.00524652
-0.000205088
0.00524696
-0.000206254
0.0052475
-0.000207462
0.00524814
-0.000208689
0.00524888
-0.000209916
0.00524972
-0.000211124
0.00525067
-0.000212301
0.00525172
-0.000213434
0.00525287
-0.000214512
0.00525414
-0.000215527
0.00525551
-0.000216472
-0.00021734
0.00529284
-4.7577e-06
0.00529269
-1.38764e-05
0.00529244
-2.24835e-05
0.0052921
-3.06386e-05
0.00529168
-3.83947e-05
0.00529118
-4.57971e-05
0.00529061
-5.28808e-05
0.00528997
-5.96743e-05
0.00528926
-6.62191e-05
0.0052885
-7.26018e-05
0.00528767
-7.8986e-05
0.00528677
-8.56226e-05
0.00528578
-9.2822e-05
0.00528466
-0.000100889
0.00528338
-0.00011004
0.00528191
-0.000120326
0.00528022
-0.000131597
0.00527831
-0.000143505
0.00527617
-0.00015556
0.00527384
-0.000167205
0.00527134
-0.00017791
0.00526875
-0.00018724
0.00526611
-0.000194905
0.00526348
-0.000200783
0.00526092
-0.000204903
0.00525848
-0.000207422
0.00525619
-0.000208585
0.00525408
-0.000208683
0.00525216
-0.000208016
0.00525044
-0.000206868
0.00524892
-0.000205484
0.00524758
-0.000204064
0.00524643
-0.000202755
0.00524544
-0.000201663
0.00524461
-0.000200848
0.00524392
-0.000200339
0.00524337
-0.000200141
0.00524293
-0.000200238
0.00524261
-0.000200604
0.00524239
-0.000201207
0.00524228
-0.000202011
0.00524227
-0.000202979
0.00524236
-0.000204077
0.00524254
-0.000205272
0.00524282
-0.000206536
0.0052432
-0.000207842
0.00524368
-0.000209169
0.00524426
-0.000210496
0.00524495
-0.000211808
0.00524573
-0.00021309
0.00524663
-0.000214329
0.00524763
-0.000215516
0.00524875
-0.000216642
0.00524998
-0.000217699
-0.000218681
0.00529284
-4.70204e-06
0.00529268
-1.37141e-05
0.00529241
-2.22211e-05
0.00529206
-3.02822e-05
0.00529161
-3.79501e-05
0.00529109
-4.52698e-05
0.00529048
-5.22761e-05
0.0052898
-5.89978e-05
0.00528906
-6.54755e-05
0.00528825
-7.17936e-05
0.00528738
-7.81107e-05
0.00528642
-8.467e-05
0.00528537
-9.17724e-05
0.0052842
-9.97144e-05
0.00528287
-0.000108707
0.00528134
-0.000118803
0.0052796
-0.000129858
0.00527764
-0.000141538
0.00527545
-0.00015337
0.00527306
-0.000164817
0.00527051
-0.000175361
0.00526785
-0.000184581
0.00526514
-0.000192194
0.00526244
-0.000198077
0.00525979
-0.000202256
0.00525725
-0.000204881
0.00525485
-0.000206186
0.00525262
-0.000206451
0.00525057
-0.000205968
0.00524871
-0.00020501
0.00524704
-0.000203815
0.00524556
-0.000202578
0.00524425
-0.000201445
0.0052431
-0.000200516
0.0052421
-0.000199852
0.00524125
-0.000199484
0.00524052
-0.000199415
0.00523992
-0.000199632
0.00523942
-0.000200112
0.00523904
-0.000200822
0.00523876
-0.000201729
0.00523857
-0.000202797
0.00523849
-0.000203993
0.00523851
-0.000205286
0.00523862
-0.000206648
0.00523883
-0.000208053
0.00523914
-0.00020948
0.00523955
-0.00021091
0.00524007
-0.000212326
0.0052407
-0.000213714
0.00524143
-0.000215062
0.00524227
-0.000216359
0.00524323
-0.000217597
0.0052443
-0.000218769
-0.000219867
0.00529284
-4.64352e-06
0.00529266
-1.35435e-05
0.00529239
-2.19452e-05
0.00529201
-2.99074e-05
0.00529155
-3.74823e-05
0.00529099
-4.47147e-05
0.00529035
-5.16393e-05
0.00528964
-5.82847e-05
0.00528886
-6.46911e-05
0.005288
-7.09404e-05
0.00528708
-7.71867e-05
0.00528608
-8.36655e-05
0.00528497
-9.06688e-05
0.00528374
-9.84847e-05
0.00528235
-0.000107319
0.00528078
-0.000117225
0.00527898
-0.000128065
0.00527696
-0.000139519
0.00527472
-0.000151129
0.00527228
-0.000162374
0.00526967
-0.000172755
0.00526695
-0.00018186
0.00526417
-0.000189414
0.00526139
-0.000195293
0.00525865
-0.000199522
0.00525601
-0.000202241
0.0052535
-0.000203677
0.00525115
-0.000204099
0.00524897
-0.000203789
0.00524698
-0.000203012
0.00524516
-0.000202
0.00524352
-0.00020094
0.00524205
-0.000199975
0.00524074
-0.000199205
0.00523958
-0.000198689
0.00523855
-0.000198458
0.00523766
-0.000198517
0.00523688
-0.000198853
0.00523621
-0.000199445
0.00523565
-0.000200262
0.00523519
-0.000201271
0.00523483
-0.000202439
0.00523457
-0.000203733
0.00523441
-0.000205124
0.00523435
-0.000206584
0.00523438
-0.000208089
0.00523452
-0.000209617
0.00523476
-0.000211149
0.0052351
-0.00021267
0.00523555
-0.000214165
0.00523611
-0.000215622
0.00523679
-0.000217031
0.00523757
-0.000218383
0.00523847
-0.000219671
-0.000220887
0.00529283
-4.58216e-06
0.00529265
-1.33646e-05
0.00529236
-2.16558e-05
0.00529197
-2.95141e-05
0.00529148
-3.69913e-05
0.0052909
-4.41319e-05
0.00529023
-5.09703e-05
0.00528948
-5.75351e-05
0.00528865
-6.38658e-05
0.00528776
-7.00424e-05
0.00528678
-7.6214e-05
0.00528573
-8.26092e-05
0.00528457
-8.95111e-05
0.00528328
-9.71996e-05
0.00528184
-0.000105875
0.00528021
-0.000115592
0.00527836
-0.000126219
0.00527629
-0.000137447
0.00527399
-0.000148835
0.0052715
-0.000159878
0.00526883
-0.000170091
0.00526605
-0.000179076
0.0052632
-0.000186563
0.00526034
-0.00019243
0.00525751
-0.000196698
0.00525477
-0.000199501
0.00525215
-0.000201058
0.00524968
-0.000201627
0.00524737
-0.00020148
0.00524524
-0.000200875
0.00524327
-0.000200036
0.00524148
-0.000199147
0.00523985
-0.000198345
0.00523837
-0.000197729
0.00523704
-0.000197357
0.00523584
-0.00019726
0.00523477
-0.000197444
0.00523381
-0.000197897
0.00523297
-0.000198599
0.00523223
-0.000199521
0.00523159
-0.000200632
0.00523105
-0.000201899
0.0052306
-0.000203291
0.00523026
-0.00020478
0.00523001
-0.000206338
0.00522987
-0.000207941
0.00522982
-0.00020957
0.00522988
-0.000211205
0.00523004
-0.000212831
0.00523031
-0.000214434
0.00523068
-0.000216001
0.00523118
-0.000217523
0.00523178
-0.00021899
0.00523251
-0.000220395
-0.000221731
0.00529283
-4.51795e-06
0.00529264
-1.31774e-05
0.00529234
-2.13529e-05
0.00529193
-2.91025e-05
0.00529141
-3.64773e-05
0.0052908
-4.35214e-05
0.0052901
-5.02691e-05
0.00528932
-5.6749e-05
0.00528845
-6.29998e-05
0.00528751
-6.90994e-05
0.00528649
-7.51927e-05
0.00528538
-8.1501e-05
0.00528417
-8.82991e-05
0.00528283
-9.58589e-05
0.00528133
-0.000104376
0.00527964
-0.000113904
0.00527774
-0.000124319
0.00527561
-0.000135322
0.00527326
-0.000146486
0.00527071
-0.000157325
0.00526799
-0.000167369
0.00526514
-0.000176228
0.00526222
-0.000183641
0.00525928
-0.000189488
0.00525636
-0.000193785
0.00525353
-0.000196662
0.0052508
-0.000198328
0.0052482
-0.000199033
0.00524576
-0.00019904
0.00524348
-0.000198598
0.00524137
-0.000197924
0.00523942
-0.000197198
0.00523763
-0.000196553
0.00523599
-0.000196085
0.00523448
-0.000195853
0.00523311
-0.000195887
0.00523186
-0.000196192
0.00523072
-0.00019676
0.00522969
-0.00019757
0.00522877
-0.000198596
0.00522794
-0.000199807
0.00522722
-0.000201172
0.00522659
-0.000202661
0.00522605
-0.000204246
0.00522562
-0.000205902
0.00522528
-0.000207604
0.00522504
-0.000209333
0.00522491
-0.000211071
0.00522488
-0.000212802
0.00522496
-0.000214512
0.00522515
-0.00021619
0.00522545
-0.000217824
0.00522586
-0.000219407
0.0052264
-0.00022093
-0.000222387
0.00529283
-4.45091e-06
0.00529263