/*--------------------------------*- C++ -*----------------------------------*\
| =========                 |                                                 |
| \\      /  F ield         | OpenFOAM: The Open Source CFD Toolbox           |
|  \\    /   O peration     | Version:  2412                                  |
|   \\  /    A nd           | Website:  www.openfoam.com                      |
|    \\/     M anipulation  |                                                 |
\*---------------------------------------------------------------------------*/
FoamFile
{
    version     2.0;
    format      ascii;
    arch        "LSB;label=32;scalar=64";
    class       volVectorField;
    location    "28.5";
    object      vorticity;
}
// * * * * * * * * * * * * * * * * * * * * * * * * * * * * * * * * * * * * * //

dimensions      [0 0 -1 0 0 0 0];

internalField   nonuniform List<vector> 
5285
(
(0 -0 4.48146e-05)
(0 -0 4.25796e-05)
(0 -0 4.07321e-05)
(0 -0 3.92486e-05)
(0 -0 3.80398e-05)
(0 -0 3.70624e-05)
(0 -0 3.62438e-05)
(0 -0 3.55435e-05)
(0 -0 3.49288e-05)
(0 -0 3.43744e-05)
(0 -0 3.38633e-05)
(0 -0 3.33916e-05)
(0 -0 3.29891e-05)
(0 -0 3.27628e-05)
(0 -0 3.28713e-05)
(0 -0 3.30968e-05)
(0 -0 4.00798e-05)
(0 -0 3.79401e-05)
(0 -0 3.61723e-05)
(0 -0 3.47071e-05)
(0 -0 3.35425e-05)
(0 -0 3.26e-05)
(0 -0 3.18093e-05)
(0 -0 3.11321e-05)
(0 -0 3.05374e-05)
(0 -0 3.00014e-05)
(0 -0 2.95079e-05)
(0 -0 2.90542e-05)
(0 -0 2.86706e-05)
(0 -0 2.84656e-05)
(0 -0 2.85846e-05)
(0 -0 2.88427e-05)
(0 -0 3.5487e-05)
(0 -0 3.34373e-05)
(0 -0 3.17213e-05)
(0 -0 3.03086e-05)
(0 -0 2.91877e-05)
(0 -0 2.82812e-05)
(0 -0 2.75205e-05)
(0 -0 2.68691e-05)
(0 -0 2.62974e-05)
(0 -0 2.57827e-05)
(0 -0 2.53099e-05)
(0 -0 2.48772e-05)
(0 -0 2.45156e-05)
(0 -0 2.4334e-05)
(0 -0 2.44808e-05)
(0 -0 2.47567e-05)
(0 -0 3.1065e-05)
(0 -0 2.91078e-05)
(0 -0 2.74607e-05)
(0 -0 2.61035e-05)
(0 -0 2.50283e-05)
(0 -0 2.41598e-05)
(0 -0 2.34315e-05)
(0 -0 2.28083e-05)
(0 -0 2.22621e-05)
(0 -0 2.17714e-05)
(0 -0 2.13222e-05)
(0 -0 2.09131e-05)
(0 -0 2.05762e-05)
(0 -0 2.04209e-05)
(0 -0 2.05961e-05)
(0 -0 2.09037e-05)
(0 -0 2.68786e-05)
(0 -0 2.50147e-05)
(0 -0 2.3441e-05)
(0 -0 2.21428e-05)
(0 -0 2.11159e-05)
(0 -0 2.02877e-05)
(0 -0 1.95939e-05)
(0 -0 1.90011e-05)
(0 -0 1.84827e-05)
(0 -0 1.80182e-05)
(0 -0 1.75945e-05)
(0 -0 1.72112e-05)
(0 -0 1.6901e-05)
(0 -0 1.67738e-05)
(0 -0 1.69791e-05)
(0 -0 1.73181e-05)
(0 -0 2.29752e-05)
(0 -0 2.12043e-05)
(0 -0 1.97055e-05)
(0 -0 1.84681e-05)
(0 -0 1.74912e-05)
(0 -0 1.67051e-05)
(0 -0 1.60474e-05)
(0 -0 1.54867e-05)
(0 -0 1.49976e-05)
(0 -0 1.45609e-05)
(0 -0 1.41643e-05)
(0 -0 1.38081e-05)
(0 -0 1.35258e-05)
(0 -0 1.34278e-05)
(0 -0 1.36636e-05)
(0 -0 1.40337e-05)
(0 -0 1.93875e-05)
(0 -0 1.77077e-05)
(0 -0 1.62833e-05)
(0 -0 1.5107e-05)
(0 -0 1.41809e-05)
(0 -0 1.34377e-05)
(0 -0 1.28172e-05)
(0 -0 1.22896e-05)
(0 -0 1.18309e-05)
(0 -0 1.14229e-05)
(0 -0 1.10542e-05)
(0 -0 1.07259e-05)
(0 -0 1.04719e-05)
(0 -0 1.04034e-05)
(0 -0 1.06694e-05)
(0 -0 1.10699e-05)
(0 -0 1.61341e-05)
(0 -0 1.45431e-05)
(0 -0 1.31916e-05)
(0 -0 1.20757e-05)
(0 -0 1.12e-05)
(0 -0 1.04998e-05)
(0 -0 9.91667e-06)
(0 -0 9.42247e-06)
(0 -0 8.99447e-06)
(0 -0 8.61544e-06)
(0 -0 8.27481e-06)
(0 -0 7.97441e-06)
(0 -0 7.74873e-06)
(0 -0 7.70921e-06)
(0 -0 8.00455e-06)
(0 -0 8.43418e-06)
(0 -0 1.32227e-05)
(0 -0 1.17171e-05)
(0 -0 1.04363e-05)
(0 -0 9.3792e-06)
(0 -0 8.55295e-06)
(0 -0 7.89487e-06)
(0 -0 7.34863e-06)
(0 -0 6.88741e-06)
(0 -0 6.48972e-06)
(0 -0 6.13927e-06)
(0 -0 5.82627e-06)
(0 -0 5.55318e-06)
(0 -0 5.35504e-06)
(0 -0 5.34348e-06)
(0 -0 5.66671e-06)
(0 -0 6.12357e-06)
(0 -0 1.06502e-05)
(0 -0 9.22647e-06)
(0 -0 8.01339e-06)
(0 -0 7.01292e-06)
(0 -0 6.23431e-06)
(0 -0 5.61698e-06)
(0 -0 5.10639e-06)
(0 -0 4.6771e-06)
(0 -0 4.3087e-06)
(0 -0 3.9858e-06)
(0 -0 3.69934e-06)
(0 -0 3.45239e-06)
(0 -0 3.28043e-06)
(0 -0 3.29524e-06)
(0 -0 3.64436e-06)
(0 -0 4.12619e-06)
(0 -0 8.40511e-06)
(0 -0 7.05887e-06)
(0 -0 5.9102e-06)
(0 -0 4.96361e-06)
(0 -0 4.2303e-06)
(0 -0 3.65171e-06)
(0 -0 3.17499e-06)
(0 -0 2.77598e-06)
(0 -0 2.4353e-06)
(0 -0 2.13839e-06)
(0 -0 1.87687e-06)
(0 -0 1.65434e-06)
(0 -0 1.50674e-06)
(0 -0 1.54589e-06)
(0 -0 1.91857e-06)
(0 -0 2.42284e-06)
(0 -0 6.46841e-06)
(0 -0 5.19504e-06)
(0 -0 4.10697e-06)
(0 -0 3.21106e-06)
(0 -0 2.52028e-06)
(0 -0 1.97795e-06)
(0 -0 1.53288e-06)
(0 -0 1.16205e-06)
(0 -0 8.4707e-07)
(0 -0 5.74156e-07)
(0 -0 3.35524e-07)
(0 -0 1.35327e-07)
(0 -0 9.87706e-09)
(0 -0 7.10597e-08)
(0 -0 4.64834e-07)
(0 -0 9.89118e-07)
(0 -0 4.81582e-06)
(0 -0 3.61035e-06)
(0 -0 2.57873e-06)
(0 -0 1.72996e-06)
(0 -0 1.07858e-06)
(0 -0 5.6972e-07)
(0 -0 1.53714e-07)
(0 -0 -1.91335e-07)
(0 -0 -4.8295e-07)
(0 -0 -7.34194e-07)
(0 -0 -9.52269e-07)
(0 -0 -1.13252e-06)
(0 -0 -1.23823e-06)
(0 -0 -1.15739e-06)
(0 -0 -7.44664e-07)
(0 -0 -2.0205e-07)
(0 -0 3.41939e-06)
(0 -0 2.2766e-06)
(0 -0 1.29705e-06)
(0 -0 4.91682e-07)
(0 -0 -1.23588e-07)
(0 -0 -6.01956e-07)
(0 -0 -9.91632e-07)
(0 -0 -1.31349e-06)
(0 -0 -1.58424e-06)
(0 -0 -1.8163e-06)
(0 -0 -2.01631e-06)
(0 -0 -2.17915e-06)
(0 -0 -2.26758e-06)
(0 -0 -2.16923e-06)
(0 -0 -1.73864e-06)
(0 -0 -1.17711e-06)
(0 -0 2.24926e-06)
(0 -0 1.16381e-06)
(0 -0 2.31908e-07)
(0 -0 -5.33798e-07)
(0 -0 -1.11626e-06)
(0 -0 -1.5671e-06)
(0 -0 -1.93317e-06)
(0 -0 -2.23443e-06)
(0 -0 -2.48683e-06)
(0 -0 -2.7022e-06)
(0 -0 -2.88666e-06)
(0 -0 -3.03462e-06)
(0 -0 -3.10821e-06)
(0 -0 -2.99396e-06)
(0 -0 -2.54414e-06)
(0 -0 -1.95688e-06)
(0 -0 1.27516e-06)
(0 -0 2.4176e-07)
(0 -0 -6.46714e-07)
(0 -0 -1.37623e-06)
(0 -0 -1.92891e-06)
(0 -0 -2.35498e-06)
(0 -0 -2.7e-06)
(0 -0 -2.98308e-06)
(0 -0 -3.21953e-06)
(0 -0 -3.42059e-06)
(0 -0 -3.59193e-06)
(0 -0 -3.72746e-06)
(0 -0 -3.78853e-06)
(0 -0 -3.65943e-06)
(0 -0 -3.18422e-06)
(0 -0 -2.5471e-06)
(0 -0 4.67459e-07)
(0 -0 -5.19134e-07)
(0 -0 -1.3677e-06)
(0 -0 -2.06382e-06)
(0 -0 -2.58925e-06)
(0 -0 -2.9929e-06)
(0 -0 -3.31912e-06)
(0 -0 -3.58624e-06)
(0 -0 -3.8089e-06)
(0 -0 -3.9978e-06)
(0 -0 -4.15821e-06)
(0 -0 -4.28365e-06)
(0 -0 -4.33477e-06)
(0 -0 -4.19218e-06)
(0 -0 -3.67676e-06)
(0 -0 -2.98254e-06)
(0 -0 -1.60486e-07)
(0 -0 -1.10719e-06)
(0 -0 -1.91654e-06)
(0 -0 -2.57953e-06)
(0 -0 -3.07823e-06)
(0 -0 -3.46005e-06)
(0 -0 -3.76802e-06)
(0 -0 -4.01964e-06)
(0 -0 -4.22888e-06)
(0 -0 -4.40595e-06)
(0 -0 -4.55579e-06)
(0 -0 -4.67181e-06)
(0 -0 -4.71479e-06)
(0 -0 -4.56177e-06)
(0 -0 -4.04179e-06)
(0 -0 -3.28099e-06)
(0 -0 -5.01144e-07)
(0 -0 -1.3845e-06)
(0 -0 -2.16214e-06)
(0 -0 -2.78489e-06)
(0 -0 -3.25245e-06)
(0 -0 -3.60811e-06)
(0 -0 -3.89326e-06)
(0 -0 -4.12456e-06)
(0 -0 -4.31536e-06)
(0 -0 -4.47543e-06)
(0 -0 -4.60944e-06)
(0 -0 -4.71114e-06)
(0 -0 -4.74354e-06)
(0 -0 -4.59312e-06)
(0 -0 -4.11109e-06)
(0 -0 -3.41558e-06)
(0 -0 -4.28116e-07)
(0 -0 -1.26942e-06)
(0 -0 -1.97069e-06)
(0 -0 -2.55941e-06)
(0 -0 -2.98754e-06)
(0 -0 -3.31009e-06)
(0 -0 -3.5647e-06)
(0 -0 -3.7675e-06)
(0 -0 -3.9314e-06)
(0 -0 -4.06584e-06)
(0 -0 -4.17532e-06)
(0 -0 -4.25409e-06)
(0 -0 -4.26879e-06)
(0 -0 -4.12555e-06)
(0 -0 -3.69611e-06)
(0 -0 -3.19288e-06)
(0 -0 -0.000475115)
(0 -0 -0.000473162)
(0 -0 -0.000471302)
(0 -0 -0.000469591)
(0 -0 -0.000467999)
(0 -0 -0.000466253)
(0 -0 -0.000464081)
(0 -0 -0.00046221)
(0 -0 -0.000463883)
(0 -0 -0.000475912)
(0 -0 -0.000508085)
(0 -0 -0.000570453)
(0 -0 -0.000669189)
(0 -0 -0.000802661)
(0 -0 -0.00095948)
(0 -0 -0.00111951)
(0 -0 -0.00125761)
(0 -0 -0.00134901)
(0 -0 -0.00137449)
(0 -0 -0.00132412)
(0 -0 -0.00119869)
(0 -0 -0.0010088)
(0 -0 -0.000772233)
(0 -0 -0.000510475)
(0 -0 -0.000245223)
(0 -0 4.44667e-06)
(0 -0 0.000223909)
(0 -0 0.000403786)
(0 -0 0.000539835)
(0 -0 0.000632219)
(0 -0 0.000684422)
(0 -0 0.000702093)
(0 -0 0.000691961)
(0 -0 0.000660962)
(0 -0 0.000615606)
(0 -0 0.000561576)
(0 -0 0.000503532)
(0 -0 0.000445073)
(0 -0 0.000388799)
(0 -0 0.000336439)
(0 -0 0.00028901)
(0 -0 0.000246976)
(0 -0 0.000210392)
(0 -0 0.000179036)
(0 -0 0.000152513)
(0 -0 0.000130328)
(0 -0 0.000111954)
(0 -0 9.68621e-05)
(0 -0 8.45569e-05)
(0 -0 7.45855e-05)
(0 -0 6.65472e-05)
(0 -0 6.0095e-05)
(0 -0 5.49303e-05)
(0 -0 5.08091e-05)
(0 -0 4.74802e-05)
(0 -0 -0.000472996)
(0 -0 -0.000471046)
(0 -0 -0.000469188)
(0 -0 -0.000467476)
(0 -0 -0.000465883)
(0 -0 -0.000464145)
(0 -0 -0.000461998)
(0 -0 -0.000460139)
(0 -0 -0.000461707)
(0 -0 -0.000473312)
(0 -0 -0.000504487)
(0 -0 -0.000565071)
(0 -0 -0.000661193)
(0 -0 -0.000791449)
(0 -0 -0.000944957)
(0 -0 -0.00110229)
(0 -0 -0.00123908)
(0 -0 -0.00133117)
(0 -0 -0.00135971)
(0 -0 -0.00131477)
(0 -0 -0.00119681)
(0 -0 -0.0010158)
(0 -0 -0.000788757)
(0 -0 -0.000536365)
(0 -0 -0.000279613)
(0 -0 -3.7033e-05)
(0 -0 0.000177092)
(0 -0 0.000353518)
(0 -0 0.000487962)
(0 -0 0.000580403)
(0 -0 0.00063406)
(0 -0 0.000654266)
(0 -0 0.000647433)
(0 -0 0.000620202)
(0 -0 0.000578828)
(0 -0 0.000528787)
(0 -0 0.000474585)
(0 -0 0.000419713)
(0 -0 0.000366703)
(0 -0 0.000317251)
(0 -0 0.000272368)
(0 -0 0.000232526)
(0 -0 0.000197806)
(0 -0 0.000168015)
(0 -0 0.000142792)
(0 -0 0.000121678)
(0 -0 0.000104177)
(0 -0 8.97932e-05)
(0 -0 7.80571e-05)
(0 -0 6.85408e-05)
(0 -0 6.08644e-05)
(0 -0 5.46988e-05)
(0 -0 4.97634e-05)
(0 -0 4.58119e-05)
(0 -0 4.26549e-05)
(0 -0 -0.000470625)
(0 -0 -0.000468679)
(0 -0 -0.000466824)
(0 -0 -0.000465113)
(0 -0 -0.000463519)
(0 -0 -0.00046179)
(0 -0 -0.000459668)
(0 -0 -0.000457823)
(0 -0 -0.000459287)
(0 -0 -0.000470468)
(0 -0 -0.000500639)
(0 -0 -0.000559423)
(0 -0 -0.000652902)
(0 -0 -0.000779889)
(0 -0 -0.000930007)
(0 -0 -0.00108453)
(0 -0 -0.00121987)
(0 -0 -0.0013125)
(0 -0 -0.00134393)
(0 -0 -0.00130426)
(0 -0 -0.00119361)
(0 -0 -0.00102134)
(0 -0 -0.000803714)
(0 -0 -0.000560619)
(0 -0 -0.000312336)
(0 -0 -7.68535e-05)
(0 -0 0.000131891)
(0 -0 0.000304797)
(0 -0 0.00043754)
(0 -0 0.00052993)
(0 -0 0.00058492)
(0 -0 0.000607537)
(0 -0 0.000603881)
(0 -0 0.000580301)
(0 -0 0.000542799)
(0 -0 0.000496647)
(0 -0 0.000446198)
(0 -0 0.000394833)
(0 -0 0.000345019)
(0 -0 0.000298418)
(0 -0 0.00025603)
(0 -0 0.000218341)
(0 -0 0.00018545)
(0 -0 0.000157198)
(0 -0 0.000133254)
(0 -0 0.000113193)
(0 -0 9.65522e-05)
(0 -0 8.28658e-05)
(0 -0 7.16914e-05)
(0 -0 6.26249e-05)
(0 -0 5.53068e-05)
(0 -0 4.94255e-05)
(0 -0 4.4715e-05)
(0 -0 4.09492e-05)
(0 -0 3.79272e-05)
(0 -0 -0.000468001)
(0 -0 -0.00046606)
(0 -0 -0.000464209)
(0 -0 -0.000462499)
(0 -0 -0.000460906)
(0 -0 -0.000459186)
(0 -0 -0.000457091)
(0 -0 -0.000455261)
(0 -0 -0.000456622)
(0 -0 -0.000467381)
(0 -0 -0.000496551)
(0 -0 -0.000553532)
(0 -0 -0.000644353)
(0 -0 -0.000768035)
(0 -0 -0.000914693)
(0 -0 -0.00106631)
(0 -0 -0.00120004)
(0 -0 -0.00129301)
(0 -0 -0.00132711)
(0 -0 -0.00129247)
(0 -0 -0.00118889)
(0 -0 -0.00102514)
(0 -0 -0.000816746)
(0 -0 -0.000582806)
(0 -0 -0.000342904)
(0 -0 -0.000114485)
(0 -0 8.88625e-05)
(0 -0 0.000258182)
(0 -0 0.000389123)
(0 -0 0.000481329)
(0 -0 0.000537502)
(0 -0 0.00056237)
(0 -0 0.000561727)
(0 -0 0.000541638)
(0 -0 0.000507857)
(0 -0 0.000465455)
(0 -0 0.000418632)
(0 -0 0.000370663)
(0 -0 0.000323946)
(0 -0 0.000280112)
(0 -0 0.00024015)
(0 -0 0.000204552)
(0 -0 0.000173444)
(0 -0 0.00014669)
(0 -0 0.000123992)
(0 -0 0.00010496)
(0 -0 8.91594e-05)
(0 -0 7.61553e-05)
(0 -0 6.55313e-05)
(0 -0 5.69061e-05)
(0 -0 4.99404e-05)
(0 -0 4.43392e-05)
(0 -0 3.98513e-05)
(0 -0 3.62631e-05)
(0 -0 3.33899e-05)
(0 -0 -0.000465121)
(0 -0 -0.000463187)
(0 -0 -0.00046134)
(0 -0 -0.000459633)
(0 -0 -0.000458041)
(0 -0 -0.000456332)
(0 -0 -0.000454263)
(0 -0 -0.000452449)
(0 -0 -0.00045371)
(0 -0 -0.000464054)
(0 -0 -0.000492231)
(0 -0 -0.000547417)
(0 -0 -0.000635578)
(0 -0 -0.000755932)
(0 -0 -0.000899073)
(0 -0 -0.00104767)
(0 -0 -0.00117964)
(0 -0 -0.00127274)
(0 -0 -0.00130925)
(0 -0 -0.00127934)
(0 -0 -0.00118252)
(0 -0 -0.00102701)
(0 -0 -0.00082758)
(0 -0 -0.000602589)
(0 -0 -0.000370926)
(0 -0 -0.000149495)
(0 -0 4.84614e-05)
(0 -0 0.000214141)
(0 -0 0.000343173)
(0 -0 0.00043505)
(0 -0 0.000492231)
(0 -0 0.000519159)
(0 -0 0.000521333)
(0 -0 0.00050454)
(0 -0 0.000474293)
(0 -0 0.000435468)
(0 -0 0.000392114)
(0 -0 0.0003474)
(0 -0 0.00030366)
(0 -0 0.000262487)
(0 -0 0.000224861)
(0 -0 0.000191282)
(0 -0 0.000161894)
(0 -0 0.000136588)
(0 -0 0.000115097)
(0 -0 9.70603e-05)
(0 -0 8.20755e-05)
(0 -0 6.97342e-05)
(0 -0 5.96456e-05)
(0 -0 5.14507e-05)
(0 -0 4.48291e-05)
(0 -0 3.95024e-05)
(0 -0 3.52331e-05)
(0 -0 3.18197e-05)
(0 -0 2.90884e-05)
(0 -0 -0.000461984)
(0 -0 -0.000460057)
(0 -0 -0.000458217)
(0 -0 -0.000456513)
(0 -0 -0.000454924)
(0 -0 -0.000453226)
(0 -0 -0.000451185)
(0 -0 -0.000449387)
(0 -0 -0.000450552)
(0 -0 -0.000460488)
(0 -0 -0.000487686)
(0 -0 -0.000541095)
(0 -0 -0.000626609)
(0 -0 -0.000743627)
(0 -0 -0.000883206)
(0 -0 -0.00102869)
(0 -0 -0.00115872)
(0 -0 -0.00125172)
(0 -0 -0.00129034)
(0 -0 -0.00126483)
(0 -0 -0.00117441)
(0 -0 -0.00102678)
(0 -0 -0.000836009)
(0 -0 -0.000619709)
(0 -0 -0.000396097)
(0 -0 -0.000181548)
(0 -0 1.10454e-05)
(0 -0 0.000173039)
(0 -0 0.000300056)
(0 -0 0.000391446)
(0 -0 0.000449444)
(0 -0 0.000478219)
(0 -0 0.000482987)
(0 -0 0.000469268)
(0 -0 0.000442343)
(0 -0 0.000406896)
(0 -0 0.00036683)
(0 -0 0.000325211)
(0 -0 0.000284305)
(0 -0 0.000245672)
(0 -0 0.000210278)
(0 -0 0.000178632)
(0 -0 0.000150891)
(0 -0 0.000126975)
(0 -0 0.000106643)
(0 -0 8.95643e-05)
(0 -0 7.53647e-05)
(0 -0 6.36627e-05)
(0 -0 5.40914e-05)
(0 -0 4.63128e-05)
(0 -0 4.00252e-05)
(0 -0 3.49654e-05)
(0 -0 3.09093e-05)
(0 -0 2.76666e-05)
(0 -0 2.50734e-05)
(0 -0 -0.000458588)
(0 -0 -0.000456671)
(0 -0 -0.000454838)
(0 -0 -0.000453139)
(0 -0 -0.000451553)
(0 -0 -0.000449867)
(0 -0 -0.000447853)
(0 -0 -0.000446073)
(0 -0 -0.000447146)
(0 -0 -0.000456685)
(0 -0 -0.000482924)
(0 -0 -0.000534582)
(0 -0 -0.000617471)
(0 -0 -0.00073116)
(0 -0 -0.000867146)
(0 -0 -0.00100942)
(0 -0 -0.00113736)
(0 -0 -0.00123001)
(0 -0 -0.00127043)
(0 -0 -0.00124894)
(0 -0 -0.00116453)
(0 -0 -0.00102439)
(0 -0 -0.000841908)
(0 -0 -0.000633998)
(0 -0 -0.000418214)
(0 -0 -0.000210409)
(0 -0 -2.31304e-05)
(0 -0 0.000135144)
(0 -0 0.00026004)
(0 -0 0.000350783)
(0 -0 0.000409395)
(0 -0 0.00043979)
(0 -0 0.000446912)
(0 -0 0.000436027)
(0 -0 0.000412191)
(0 -0 0.000379903)
(0 -0 0.000342925)
(0 -0 0.000304222)
(0 -0 0.000265995)
(0 -0 0.000229766)
(0 -0 0.00019649)
(0 -0 0.000166678)
(0 -0 0.000140506)
(0 -0 0.000117913)
(0 -0 9.86869e-05)
(0 -0 8.25229e-05)
(0 -0 6.90744e-05)
(0 -0 5.79846e-05)
(0 -0 4.89095e-05)
(0 -0 4.15312e-05)
(0 -0 3.55652e-05)
(0 -0 3.07631e-05)
(0 -0 2.69133e-05)
(0 -0 2.38363e-05)
(0 -0 2.13775e-05)
(0 -0 -0.000454934)
(0 -0 -0.000453026)
(0 -0 -0.000451202)
(0 -0 -0.000449508)
(0 -0 -0.000447927)
(0 -0 -0.000446254)
(0 -0 -0.000444267)
(0 -0 -0.000442505)
(0 -0 -0.000443491)
(0 -0 -0.000452645)
(0 -0 -0.000477948)
(0 -0 -0.000527888)
(0 -0 -0.000608189)
(0 -0 -0.000718568)
(0 -0 -0.000850943)
(0 -0 -0.000989933)
(0 -0 -0.00111562)
(0 -0 -0.00120767)
(0 -0 -0.00124956)
(0 -0 -0.0012317)
(0 -0 -0.00115288)
(0 -0 -0.0010198)
(0 -0 -0.00084522)
(0 -0 -0.000645365)
(0 -0 -0.000437155)
(0 -0 -0.000235934)
(0 -0 -5.39043e-05)
(0 -0 0.000100629)
(0 -0 0.000223304)
(0 -0 0.000313238)
(0 -0 0.000372257)
(0 -0 0.000404034)
(0 -0 0.000413259)
(0 -0 0.000404954)
(0 -0 0.000383961)
(0 -0 0.000354602)
(0 -0 0.000320501)
(0 -0 0.000284524)
(0 -0 0.000248808)
(0 -0 0.000214838)
(0 -0 0.000183557)
(0 -0 0.000155476)
(0 -0 0.000130785)
(0 -0 0.000109445)
(0 -0 9.12663e-05)
(0 -0 7.59705e-05)
(0 -0 6.32357e-05)
(0 -0 5.27287e-05)
(0 -0 4.41267e-05)
(0 -0 3.71306e-05)
(0 -0 3.14722e-05)
(0 -0 2.69174e-05)
(0 -0 2.3266e-05)
(0 -0 2.03487e-05)
(0 -0 1.80198e-05)
(0 -0 -0.000451018)
(0 -0 -0.000449122)
(0 -0 -0.000447308)
(0 -0 -0.000445621)
(0 -0 -0.000444046)
(0 -0 -0.000442386)
(0 -0 -0.000440427)
(0 -0 -0.000438684)
(0 -0 -0.000439587)
(0 -0 -0.00044837)
(0 -0 -0.000472764)
(0 -0 -0.000521026)
(0 -0 -0.000598781)
(0 -0 -0.000705883)
(0 -0 -0.000834641)
(0 -0 -0.000970279)
(0 -0 -0.00109356)
(0 -0 -0.00118478)
(0 -0 -0.00122781)
(0 -0 -0.00121319)
(0 -0 -0.00113951)
(0 -0 -0.00101304)
(0 -0 -0.000845952)
(0 -0 -0.000653797)
(0 -0 -0.000452888)
(0 -0 -0.000258071)
(0 -0 -8.12075e-05)
(0 -0 6.95729e-05)
(0 -0 0.000189935)
(0 -0 0.000278902)
(0 -0 0.000338121)
(0 -0 0.000371041)
(0 -0 0.000382113)
(0 -0 0.00037613)
(0 -0 0.000357727)
(0 -0 0.000331058)
(0 -0 0.000299615)
(0 -0 0.000266168)
(0 -0 0.000232789)
(0 -0 0.000200929)
(0 -0 0.000171514)
(0 -0 0.000145056)
(0 -0 0.000121757)
(0 -0 0.000101595)
(0 -0 8.44029e-05)
(0 -0 6.99262e-05)
(0 -0 5.78657e-05)
(0 -0 4.79101e-05)
(0 -0 3.97565e-05)
(0 -0 3.31233e-05)
(0 -0 2.77577e-05)
(0 -0 2.34384e-05)
(0 -0 1.99766e-05)
(0 -0 1.72122e-05)
(0 -0 1.50082e-05)
(0 -0 -0.000446842)
(0 -0 -0.000444958)
(0 -0 -0.000443155)
(0 -0 -0.000441477)
(0 -0 -0.000439909)
(0 -0 -0.000438262)
(0 -0 -0.000436331)
(0 -0 -0.000434609)
(0 -0 -0.000435433)
(0 -0 -0.000443861)
(0 -0 -0.000467375)
(0 -0 -0.000514002)
(0 -0 -0.000589266)
(0 -0 -0.000693132)
(0 -0 -0.000818283)
(0 -0 -0.000950516)
(0 -0 -0.00107127)
(0 -0 -0.00116142)
(0 -0 -0.00120527)
(0 -0 -0.00119349)
(0 -0 -0.00112452)
(0 -0 -0.00100421)
(0 -0 -0.000844176)
(0 -0 -0.00065935)
(0 -0 -0.000465453)
(0 -0 -0.000276847)
(0 -0 -0.000105056)
(0 -0 4.19725e-05)
(0 -0 0.000159939)
(0 -0 0.000247787)
(0 -0 0.000307005)
(0 -0 0.000340832)
(0 -0 0.000353497)
(0 -0 0.000349576)
(0 -0 0.000333511)
(0 -0 0.000309293)
(0 -0 0.000280288)
(0 -0 0.000249172)
(0 -0 0.000217956)
(0 -0 0.000188053)
(0 -0 0.000160374)
(0 -0 0.000135429)
(0 -0 0.000113429)
(0 -0 9.43696e-05)
(0 -0 7.81027e-05)
(0 -0 6.43947e-05)
(0 -0 5.29682e-05)
(0 -0 4.35318e-05)
(0 -0 3.5801e-05)
(0 -0 2.95106e-05)
(0 -0 2.44219e-05)
(0 -0 2.03259e-05)
(0 -0 1.7044e-05)
(0 -0 1.44253e-05)
(0 -0 1.23406e-05)
(0 -0 -0.000442404)
(0 -0 -0.000440534)
(0 -0 -0.000438743)
(0 -0 -0.000437074)
(0 -0 -0.000435514)
(0 -0 -0.000433883)
(0 -0 -0.00043198)
(0 -0 -0.000430278)
(0 -0 -0.000431029)
(0 -0 -0.000439116)
(0 -0 -0.000461782)
(0 -0 -0.000506824)
(0 -0 -0.000579654)
(0 -0 -0.000680339)
(0 -0 -0.000801904)
(0 -0 -0.000930697)
(0 -0 -0.00104879)
(0 -0 -0.00113767)
(0 -0 -0.00118203)
(0 -0 -0.00117271)
(0 -0 -0.001108)
(0 -0 -0.000993412)
(0 -0 -0.000840011)
(0 -0 -0.000662142)
(0 -0 -0.000474961)
(0 -0 -0.000292363)
(0 -0 -0.000125538)
(0 -0 1.77494e-05)
(0 -0 0.000133248)
(0 -0 0.000219836)
(0 -0 0.00027886)
(0 -0 0.000313367)
(0 -0 0.000327378)
(0 -0 0.000325266)
(0 -0 0.000311291)
(0 -0 0.000289289)
(0 -0 0.000262504)
(0 -0 0.000233524)
(0 -0 0.000204298)
(0 -0 0.000176201)
(0 -0 0.000150128)
(0 -0 0.000126587)
(0 -0 0.000105795)
(0 -0 8.7762e-05)
(0 -0 7.23579e-05)
(0 -0 5.93684e-05)
(0 -0 4.85352e-05)
(0 -0 3.95855e-05)
(0 -0 3.22516e-05)
(0 -0 2.62835e-05)
(0 -0 2.14554e-05)
(0 -0 1.75699e-05)
(0 -0 1.4458e-05)
(0 -0 1.1977e-05)
(0 -0 1.00057e-05)
(0 -0 -0.000437705)
(0 -0 -0.00043585)
(0 -0 -0.000434072)
(0 -0 -0.000432414)
(0 -0 -0.000430863)
(0 -0 -0.000429247)
(0 -0 -0.000427372)
(0 -0 -0.000425691)
(0 -0 -0.000426375)
(0 -0 -0.000434137)
(0 -0 -0.000455987)
(0 -0 -0.000499496)
(0 -0 -0.000569958)
(0 -0 -0.000667522)
(0 -0 -0.000785536)
(0 -0 -0.000910867)
(0 -0 -0.00102621)
(0 -0 -0.00111362)
(0 -0 -0.00115821)
(0 -0 -0.00115097)
(0 -0 -0.00109012)
(0 -0 -0.000980808)
(0 -0 -0.000833619)
(0 -0 -0.000662335)
(0 -0 -0.000481573)
(0 -0 -0.000304774)
(0 -0 -0.000142803)
(0 -0 -3.23495e-06)
(0 -0 0.000109735)
(0 -0 0.000194936)
(0 -0 0.000253584)
(0 -0 0.000288556)
(0 -0 0.000303678)
(0 -0 0.000303133)
(0 -0 0.000291009)
(0 -0 0.000270996)
(0 -0 0.000246221)
(0 -0 0.000219186)
(0 -0 0.00019178)
(0 -0 0.000165343)
(0 -0 0.00014075)
(0 -0 0.000118506)
(0 -0 9.8832e-05)
(0 -0 8.17512e-05)
(0 -0 6.71492e-05)
(0 -0 5.48287e-05)
(0 -0 4.45489e-05)
(0 -0 3.60538e-05)
(0 -0 2.90911e-05)
(0 -0 2.34247e-05)
(0 -0 1.88411e-05)
(0 -0 1.51531e-05)
(0 -0 1.22008e-05)
(0 -0 9.84941e-06)
(0 -0 7.98496e-06)
(0 -0 -0.000432744)
(0 -0 -0.000430905)
(0 -0 -0.000429142)
(0 -0 -0.000427496)
(0 -0 -0.000425956)
(0 -0 -0.000424355)
(0 -0 -0.000422508)
(0 -0 -0.00042085)
(0 -0 -0.000421471)
(0 -0 -0.000428924)
(0 -0 -0.000449992)
(0 -0 -0.000492021)
(0 -0 -0.000560182)
(0 -0 -0.000654695)
(0 -0 -0.000769204)
(0 -0 -0.00089107)
(0 -0 -0.00100358)
(0 -0 -0.00108935)
(0 -0 -0.0011339)
(0 -0 -0.00112842)
(0 -0 -0.00107102)
(0 -0 -0.000966572)
(0 -0 -0.000825189)
(0 -0 -0.000660129)
(0 -0 -0.000485493)
(0 -0 -0.000314284)
(0 -0 -0.000157047)
(0 -0 -2.1167e-05)
(0 -0 8.92269e-05)
(0 -0 0.000172925)
(0 -0 0.000231034)
(0 -0 0.000266269)
(0 -0 0.000282281)
(0 -0 0.000283074)
(0 -0 0.000272575)
(0 -0 0.000254334)
(0 -0 0.000231369)
(0 -0 0.000206098)
(0 -0 0.000180352)
(0 -0 0.000155434)
(0 -0 0.000132199)
(0 -0 0.000111148)
(0 -0 9.2506e-05)
(0 -0 7.63063e-05)
(0 -0 6.24478e-05)
(0 -0 5.07487e-05)
(0 -0 4.09837e-05)
(0 -0 3.2912e-05)
(0 -0 2.62954e-05)
(0 -0 2.09106e-05)
(0 -0 1.65552e-05)
(0 -0 1.30518e-05)
(0 -0 1.02488e-05)
(0 -0 8.01862e-06)
(0 -0 6.25445e-06)
(0 -0 -0.000427521)
(0 -0 -0.000425699)
(0 -0 -0.000423953)
(0 -0 -0.00042232)
(0 -0 -0.000420791)
(0 -0 -0.000419207)
(0 -0 -0.000417388)
(0 -0 -0.000415753)
(0 -0 -0.000416317)
(0 -0 -0.000423477)
(0 -0 -0.000443795)
(0 -0 -0.000484399)
(0 -0 -0.000550333)
(0 -0 -0.00064187)
(0 -0 -0.00075293)
(0 -0 -0.000871341)
(0 -0 -0.000980956)
(0 -0 -0.00106494)
(0 -0 -0.00110923)
(0 -0 -0.00110518)
(0 -0 -0.00105088)
(0 -0 -0.000950891)
(0 -0 -0.000814929)
(0 -0 -0.000655745)
(0 -0 -0.00048695)
(0 -0 -0.000321124)
(0 -0 -0.000168498)
(0 -0 -3.62666e-05)
(0 -0 7.15148e-05)
(0 -0 0.000153611)
(0 -0 0.000211031)
(0 -0 0.000246347)
(0 -0 0.000263044)
(0 -0 0.000264963)
(0 -0 0.000255877)
(0 -0 0.000239208)
(0 -0 0.000217864)
(0 -0 0.000194186)
(0 -0 0.000169947)
(0 -0 0.000146414)
(0 -0 0.000124422)
(0 -0 0.000104466)
(0 -0 8.67749e-05)
(0 -0 7.13888e-05)
(0 -0 5.82187e-05)
(0 -0 4.70957e-05)
(0 -0 3.78087e-05)
(0 -0 3.01306e-05)
(0 -0 2.3836e-05)
(0 -0 1.87132e-05)
(0 -0 1.45703e-05)
(0 -0 1.12387e-05)
(0 -0 8.57448e-06)
(0 -0 6.45707e-06)
(0 -0 4.78639e-06)
(0 -0 -0.000422037)
(0 -0 -0.000420234)
(0 -0 -0.000418505)
(0 -0 -0.000416887)
(0 -0 -0.000415371)
(0 -0 -0.000413805)
(0 -0 -0.000412014)
(0 -0 -0.000410402)
(0 -0 -0.000410913)
(0 -0 -0.000417795)
(0 -0 -0.000437397)
(0 -0 -0.000476631)
(0 -0 -0.00054041)
(0 -0 -0.000629051)
(0 -0 -0.000736728)
(0 -0 -0.00085171)
(0 -0 -0.000958392)
(0 -0 -0.00104047)
(0 -0 -0.00108429)
(0 -0 -0.0010814)
(0 -0 -0.00102984)
(0 -0 -0.000933958)
(0 -0 -0.000803056)
(0 -0 -0.000649419)
(0 -0 -0.00048619)
(0 -0 -0.000325544)
(0 -0 -0.000177404)
(0 -0 -4.87743e-05)
(0 -0 5.63702e-05)
(0 -0 0.00013678)
(0 -0 0.000193379)
(0 -0 0.00022861)
(0 -0 0.000245807)
(0 -0 0.000248657)
(0 -0 0.000240791)
(0 -0 0.000225505)
(0 -0 0.000205609)
(0 -0 0.000183365)
(0 -0 0.000160492)
(0 -0 0.000138217)
(0 -0 0.000117359)
(0 -0 9.84064e-05)
(0 -0 8.15903e-05)
(0 -0 6.69557e-05)
(0 -0 5.44227e-05)
(0 -0 4.38338e-05)
(0 -0 3.49903e-05)
(0 -0 2.76773e-05)
(0 -0 2.16816e-05)
(0 -0 1.6802e-05)
(0 -0 1.28561e-05)
(0 -0 9.68368e-06)
(0 -0 7.14807e-06)
(0 -0 5.13502e-06)
(0 -0 3.55105e-06)
(0 -0 -0.000416293)
(0 -0 -0.00041451)
(0 -0 -0.000412799)
(0 -0 -0.000411197)
(0 -0 -0.000409695)
(0 -0 -0.000408147)
(0 -0 -0.000406385)
(0 -0 -0.000404797)
(0 -0 -0.00040526)
(0 -0 -0.000411879)
(0 -0 -0.000430798)
(0 -0 -0.000468715)
(0 -0 -0.000530414)
(0 -0 -0.000616243)
(0 -0 -0.00072061)
(0 -0 -0.0008322)
(0 -0 -0.000935928)
(0 -0 -0.00101601)
(0 -0 -0.00105917)
(0 -0 -0.00105719)
(0 -0 -0.00100808)
(0 -0 -0.000915962)
(0 -0 -0.000789783)
(0 -0 -0.000641383)
(0 -0 -0.00048346)
(0 -0 -0.000327798)
(0 -0 -0.00018402)
(0 -0 -5.89392e-05)
(0 -0 4.35547e-05)
(0 -0 0.000122208)
(0 -0 0.000177871)
(0 -0 0.00021287)
(0 -0 0.0002304)
(0 -0 0.000234005)
(0 -0 0.00022718)
(0 -0 0.000213107)
(0 -0 0.000194499)
(0 -0 0.000173543)
(0 -0 0.000151905)
(0 -0 0.000130769)
(0 -0 0.000110942)
(0 -0 9.29106e-05)
(0 -0 7.69018e-05)
(0 -0 6.29628e-05)
(0 -0 5.10201e-05)
(0 -0 4.09262e-05)
(0 -0 3.24936e-05)
(0 -0 2.5519e-05)
(0 -0 1.98e-05)
(0 -0 1.51454e-05)
(0 -0 1.13817e-05)
(0 -0 8.35628e-06)
(0 -0 5.93917e-06)
(0 -0 4.02217e-06)
(0 -0 2.51821e-06)
(0 -0 -0.000410289)
(0 -0 -0.000408527)
(0 -0 -0.000406836)
(0 -0 -0.000405251)
(0 -0 -0.000403765)
(0 -0 -0.000402236)
(0 -0 -0.000400503)
(0 -0 -0.000398939)
(0 -0 -0.000399358)
(0 -0 -0.000405728)
(0 -0 -0.000423995)
(0 -0 -0.00046065)
(0 -0 -0.000520345)
(0 -0 -0.000603449)
(0 -0 -0.000704586)
(0 -0 -0.000812837)
(0 -0 -0.000913614)
(0 -0 -0.000991625)
(0 -0 -0.001034)
(0 -0 -0.00103271)
(0 -0 -0.000985775)
(0 -0 -0.000897129)
(0 -0 -0.000775369)
(0 -0 -0.000631921)
(0 -0 -0.000479059)
(0 -0 -0.000328191)
(0 -0 -0.000188649)
(0 -0 -6.70565e-05)
(0 -0 3.2788e-05)
(0 -0 0.000109633)
(0 -0 0.000164267)
(0 -0 0.000198911)
(0 -0 0.000216632)
(0 -0 0.000220839)
(0 -0 0.000214902)
(0 -0 0.000201892)
(0 -0 0.000184431)
(0 -0 0.000164635)
(0 -0 0.000144116)
(0 -0 0.000124006)
(0 -0 0.000105099)
(0 -0 8.79186e-05)
(0 -0 7.26604e-05)
(0 -0 5.93679e-05)
(0 -0 4.79729e-05)
(0 -0 3.83374e-05)
(0 -0 3.02848e-05)
(0 -0 2.36228e-05)
(0 -0 1.81591e-05)
(0 -0 1.3712e-05)
(0 -0 1.01162e-05)
(0 -0 7.226e-06)
(0 -0 4.91758e-06)
(0 -0 3.08847e-06)
(0 -0 1.65814e-06)
(0 -0 -0.000404027)
(0 -0 -0.000402288)
(0 -0 -0.000400618)
(0 -0 -0.000399052)
(0 -0 -0.000397582)
(0 -0 -0.000396073)
(0 -0 -0.000394369)
(0 -0 -0.00039283)
(0 -0 -0.000393209)
(0 -0 -0.000399342)
(0 -0 -0.000416984)
(0 -0 -0.000452425)
(0 -0 -0.000510187)
(0 -0 -0.00059065)
(0 -0 -0.000688643)
(0 -0 -0.000793618)
(0 -0 -0.000891466)
(0 -0 -0.000967375)
(0 -0 -0.00100885)
(0 -0 -0.00100809)
(0 -0 -0.000963124)
(0 -0 -0.000877696)
(0 -0 -0.000760093)
(0 -0 -0.000621347)
(0 -0 -0.000473325)
(0 -0 -0.000327074)
(0 -0 -0.000191643)
(0 -0 -7.34678e-05)
(0 -0 2.37456e-05)
(0 -0 9.87559e-05)
(0 -0 0.000152297)
(0 -0 0.000186492)
(0 -0 0.000204292)
(0 -0 0.00020898)
(0 -0 0.000203807)
(0 -0 0.000191738)
(0 -0 0.000175308)
(0 -0 0.000156567)
(0 -0 0.000137076)
(0 -0 0.000117963)
(0 -0 9.98766e-05)
(0 -0 8.33865e-05)
(0 -0 6.88449e-05)
(0 -0 5.61579e-05)
(0 -0 4.52717e-05)
(0 -0 3.60603e-05)
(0 -0 2.83588e-05)
(0 -0 2.19855e-05)
(0 -0 1.67578e-05)
(0 -0 1.25026e-05)
(0 -0 9.0619e-06)
(0 -0 6.29662e-06)
(0 -0 4.08825e-06)
(0 -0 2.33966e-06)
(0 -0 9.7692e-07)
(0 -0 -0.000397509)
(0 -0 -0.000395793)
(0 -0 -0.000394146)
(0 -0 -0.000392599)
(0 -0 -0.000391148)
(0 -0 -0.00038966)
(0 -0 -0.000387985)
(0 -0 -0.000386471)
(0 -0 -0.000386813)
(0 -0 -0.00039272)
(0 -0 -0.000409763)
(0 -0 -0.000444037)
(0 -0 -0.000499929)
(0 -0 -0.000577832)
(0 -0 -0.000672761)
(0 -0 -0.000774527)
(0 -0 -0.000869479)
(0 -0 -0.00094327)
(0 -0 -0.000983785)
(0 -0 -0.000983426)
(0 -0 -0.000940245)
(0 -0 -0.000857829)
(0 -0 -0.000744162)
(0 -0 -0.000609902)
(0 -0 -0.000466529)
(0 -0 -0.000324737)
(0 -0 -0.0001933)
(0 -0 -7.84702e-05)
(0 -0 1.61402e-05)
(0 -0 8.93045e-05)
(0 -0 0.000141709)
(0 -0 0.000175389)
(0 -0 0.000193182)
(0 -0 0.000198256)
(0 -0 0.000193747)
(0 -0 0.000182521)
(0 -0 0.00016703)
(0 -0 0.00014926)
(0 -0 0.000130737)
(0 -0 0.000112507)
(0 -0 9.53263e-05)
(0 -0 7.95335e-05)
(0 -0 6.54837e-05)
(0 -0 5.33711e-05)
(0 -0 4.29591e-05)
(0 -0 3.41434e-05)
(0 -0 2.67714e-05)
(0 -0 2.06712e-05)
(0 -0 1.56687e-05)
(0 -0 1.15983e-05)
(0 -0 8.30884e-06)
(0 -0 5.66691e-06)
(0 -0 3.55861e-06)
(0 -0 1.89227e-06)
(0 -0 5.90568e-07)
(0 -0 9.12435e-05)
(0 -0 7.61565e-05)
(0 -0 6.27292e-05)
(0 -0 5.10269e-05)
(0 -0 4.105e-05)
(0 -0 3.26058e-05)
(0 -0 2.55491e-05)
(0 -0 1.9715e-05)
(0 -0 1.49362e-05)
(0 -0 1.10536e-05)
(0 -0 7.92191e-06)
(0 -0 5.41295e-06)
(0 -0 3.41802e-06)
(0 -0 1.83879e-06)
(0 -0 6.21987e-07)
(0 -0 -1.08536e-05)
(0 -0 -1.08211e-05)
(0 -0 -1.07881e-05)
(0 -0 -1.07574e-05)
(0 -0 -1.07287e-05)
(0 -0 -1.06939e-05)
(0 -0 -1.06457e-05)
(0 -0 -1.06084e-05)
(0 -0 -1.0683e-05)
(0 -0 -1.10769e-05)
(0 -0 -1.20838e-05)
(0 -0 -1.40008e-05)
(0 -0 -1.70033e-05)
(0 -0 -2.10296e-05)
(0 -0 -2.57236e-05)
(0 -0 -3.04674e-05)
(0 -0 -3.44961e-05)
(0 -0 -3.70581e-05)
(0 -0 -3.75732e-05)
(0 -0 -3.5745e-05)
(0 -0 -3.16042e-05)
(0 -0 -2.54821e-05)
(0 -0 -1.79316e-05)
(0 -0 -9.62129e-06)
(0 -0 -1.22859e-06)
(0 -0 6.64793e-06)
(0 -0 1.35464e-05)
(0 -0 1.91678e-05)
(0 -0 2.3374e-05)
(0 -0 2.61667e-05)
(0 -0 2.76542e-05)
(0 -0 2.80157e-05)
(0 -0 2.74673e-05)
(0 -0 2.62339e-05)
(0 -0 2.45283e-05)
(0 -0 2.25381e-05)
(0 -0 2.04186e-05)
(0 -0 1.82908e-05)
(0 -0 1.62432e-05)
(0 -0 1.43352e-05)
(0 -0 1.26026e-05)
(0 -0 1.10622e-05)
(0 -0 9.7167e-06)
(0 -0 8.55913e-06)
(0 -0 7.57619e-06)
(0 -0 6.75099e-06)
(0 -0 6.06514e-06)
(0 -0 5.50013e-06)
(0 -0 5.03832e-06)
(0 -0 4.66352e-06)
(0 -0 4.36124e-06)
(0 -0 4.11883e-06)
(0 -0 3.92543e-06)
(0 -0 3.77182e-06)
(0 -0 3.65016e-06)
(0 -0 -3.23681e-05)
(0 -0 -3.22566e-05)
(0 -0 -3.21509e-05)
(0 -0 -3.20558e-05)
(0 -0 -3.1968e-05)
(0 -0 -3.18631e-05)
(0 -0 -3.1719e-05)
(0 -0 -3.16071e-05)
(0 -0 -3.18262e-05)
(0 -0 -3.29915e-05)
(0 -0 -3.59763e-05)
(0 -0 -4.16653e-05)
(0 -0 -5.05862e-05)
(0 -0 -6.25628e-05)
(0 -0 -7.65464e-05)
(0 -0 -9.07086e-05)
(0 -0 -0.00010278)
(0 -0 -0.000110527)
(0 -0 -0.00011222)
(0 -0 -0.000106967)
(0 -0 -9.48452e-05)
(0 -0 -7.68267e-05)
(0 -0 -5.4542e-05)
(0 -0 -2.99681e-05)
(0 -0 -5.11218e-06)
(0 -0 1.82491e-05)
(0 -0 3.8742e-05)
(0 -0 5.54735e-05)
(0 -0 6.80278e-05)
(0 -0 7.64026e-05)
(0 -0 8.09136e-05)
(0 -0 8.20867e-05)
(0 -0 8.05587e-05)
(0 -0 7.69933e-05)
(0 -0 7.20199e-05)
(0 -0 6.61937e-05)
(0 -0 5.99747e-05)
(0 -0 5.37219e-05)
(0 -0 4.76982e-05)
(0 -0 4.20808e-05)
(0 -0 3.69765e-05)
(0 -0 3.24359e-05)
(0 -0 2.84681e-05)
(0 -0 2.50533e-05)
(0 -0 2.21527e-05)
(0 -0 1.97169e-05)
(0 -0 1.76918e-05)
(0 -0 1.60231e-05)
(0 -0 1.46589e-05)
(0 -0 1.35515e-05)
(0 -0 1.26581e-05)
(0 -0 1.19415e-05)
(0 -0 1.13696e-05)
(0 -0 1.09153e-05)
(0 -0 1.05554e-05)
(0 -0 -5.34471e-05)
(0 -0 -5.32517e-05)
(0 -0 -5.30701e-05)
(0 -0 -5.29088e-05)
(0 -0 -5.27613e-05)
(0 -0 -5.25869e-05)
(0 -0 -5.23488e-05)
(0 -0 -5.21622e-05)
(0 -0 -5.25148e-05)
(0 -0 -5.4414e-05)
(0 -0 -5.92945e-05)
(0 -0 -6.86171e-05)
(0 -0 -8.32643e-05)
(0 -0 -0.00010297)
(0 -0 -0.000126039)
(0 -0 -0.000149489)
(0 -0 -0.000169606)
(0 -0 -0.000182718)