/*--------------------------------*- C++ -*----------------------------------*\
| =========                 |                                                 |
| \\      /  F ield         | OpenFOAM: The Open Source CFD Toolbox           |
|  \\    /   O peration     | Version:  2412                                  |
|   \\  /    A nd           | Website:  www.openfoam.com                      |
|    \\/     M anipulation  |                                                 |
\*---------------------------------------------------------------------------*/
FoamFile
{
    version     2.0;
    format      ascii;
    arch        "LSB;label=32;scalar=64";
    class       volScalarField;
    location    "22.5";
    object      p;
}
// * * * * * * * * * * * * * * * * * * * * * * * * * * * * * * * * * * * * * //

dimensions      [0 2 -2 0 0 0 0];

internalField   nonuniform List<scalar> 
5285
(
-0.000176379
-0.000165557
-0.000155147
-0.000145152
-0.00017806
-0.000167465
-0.000157252
-0.000147425
-0.000137989
-0.000128953
-0.000120312
-0.000112068
-0.000104217
-9.67576e-05
-8.96847e-05
-8.29917e-05
-7.66713e-05
-7.07148e-05
-6.51128e-05
-5.98547e-05
-5.49292e-05
-5.03245e-05
-4.60281e-05
-4.20273e-05
-3.8309e-05
-3.48599e-05
-3.16667e-05
-2.8716e-05
-2.59947e-05
-2.34897e-05
-2.11881e-05
-1.90774e-05
-1.71455e-05
-1.53806e-05
-1.37713e-05
-1.23066e-05
-1.09762e-05
-9.76996e-06
-8.67847e-06
-7.69266e-06
-6.80399e-06
-6.00441e-06
-5.28634e-06
-4.64269e-06
-4.06679e-06
-3.55265e-06
-3.09402e-06
-2.68715e-06
-0.000179292
-0.000168939
-0.000158937
-0.000149294
-0.000140014
-0.000131105
-0.00012257
-0.000114408
-0.000106618
-9.91999e-05
-9.21498e-05
-8.54628e-05
-7.91331e-05
-7.31535e-05
-6.7516e-05
-6.22115e-05
-5.72303e-05
-5.25618e-05
-4.8195e-05
-4.41181e-05
-4.03194e-05
-3.67866e-05
-3.35073e-05
-3.0469e-05
-2.76595e-05
-2.50662e-05
-2.2677e-05
-2.048e-05
-1.84634e-05
-1.66159e-05
-1.49263e-05
-1.33841e-05
-1.19791e-05
-1.07013e-05
-9.54148e-06
-8.4906e-06
-7.54019e-06
-6.6822e-06
-5.90906e-06
-5.21363e-06
-4.5892e-06
-4.02967e-06
-3.52879e-06
-3.0825e-06
-0.000180093
-0.000169993
-0.000160217
-0.000150771
-0.000141662
-0.000132899
-0.000124486
-0.000116422
-0.000108711
-0.000101351
-9.43401e-05
-8.76757e-05
-8.13529e-05
-7.53662e-05
-6.97088e-05
-6.43732e-05
-5.93509e-05
-5.46327e-05
-5.02087e-05
-4.60686e-05
-4.22015e-05
-3.85963e-05
-3.52415e-05
-3.21257e-05
-2.92371e-05
-2.65642e-05
-2.40954e-05
-2.18192e-05
-1.97246e-05
-1.78006e-05
-1.60364e-05
-1.44217e-05
-1.29466e-05
-1.16015e-05
-1.0377e-05
-9.26438e-06
-8.25521e-06
-7.34149e-06
-6.51564e-06
-5.77054e-06
-5.09943e-06
-4.49617e-06
-3.95446e-06
-3.46997e-06
-0.000180484
-0.000170646
-0.000161105
-0.00015187
-0.000142946
-0.000134343
-0.000126067
-0.000118118
-0.0001105
-0.000103214
-9.62585e-05
-8.96323e-05
-8.33321e-05
-7.73536e-05
-7.16914e-05
-6.63392e-05
-6.129e-05
-5.65357e-05
-5.20677e-05
-4.78767e-05
-4.39531e-05
-4.02867e-05
-3.6867e-05
-3.36834e-05
-3.0725e-05
-2.7981e-05
-2.54405e-05
-2.30926e-05
-2.09267e-05
-1.89323e-05
-1.70992e-05
-1.54172e-05
-1.38768e-05
-1.24684e-05
-1.11832e-05
-1.00123e-05
-8.94744e-06
-7.98076e-06
-7.1047e-06
-6.31214e-06
-5.59632e-06
-4.95106e-06
-4.37005e-06
-3.84882e-06
-0.000180491
-0.000170923
-0.000161627
-0.000152611
-0.000143883
-0.000135452
-0.000127325
-0.000119504
-0.000111994
-0.000104796
-9.79105e-05
-9.13372e-05
-8.5074e-05
-7.91181e-05
-7.34653e-05
-6.81105e-05
-6.30479e-05
-5.82706e-05
-5.37711e-05
-4.95414e-05
-4.55727e-05
-4.1856e-05
-3.83817e-05
-3.514e-05
-3.2121e-05
-2.93144e-05
-2.67101e-05
-2.42978e-05
-2.20674e-05
-2.0009e-05
-1.81125e-05
-1.63685e-05
-1.47675e-05
-1.33003e-05
-1.19582e-05
-1.07326e-05
-9.61533e-06
-8.59858e-06
-7.67489e-06
-6.83718e-06
-6.07872e-06
-5.3933e-06
-4.7746e-06
-4.21806e-06
-0.00018014
-0.000170848
-0.000161803
-0.000153015
-0.000144492
-0.000136244
-0.000128277
-0.000120596
-0.000113206
-0.000106108
-9.93058e-05
-9.27986e-05
-8.65859e-05
-8.06659e-05
-7.50356e-05
-6.96911e-05
-6.46277e-05
-5.98397e-05
-5.53207e-05
-5.10637e-05
-4.7061e-05
-4.33045e-05
-3.97855e-05
-3.64952e-05
-3.34243e-05
-3.05634e-05
-2.7903e-05
-2.54335e-05
-2.31454e-05
-2.1029e-05
-1.9075e-05
-1.72741e-05
-1.56173e-05
-1.40957e-05
-1.27007e-05
-1.1424e-05
-1.02575e-05
-9.19367e-06
-8.22501e-06
-7.34454e-06
-6.54557e-06
-5.82189e-06
-5.16719e-06
-4.57686e-06
-0.000179454
-0.000170442
-0.000161655
-0.000153102
-0.000144792
-0.000136734
-0.000128938
-0.000121407
-0.000114147
-0.000107162
-0.000100455
-9.40258e-05
-8.78757e-05
-8.20038e-05
-7.64082e-05
-7.10861e-05
-6.60337e-05
-6.12466e-05
-5.67194e-05
-5.24459e-05
-4.84197e-05
-4.46333e-05
-4.10792e-05
-3.77493e-05
-3.46351e-05
-3.1728e-05
-2.90191e-05
-2.64994e-05
-2.416e-05
-2.19918e-05
-1.99859e-05
-1.81334e-05
-1.64255e-05
-1.48538e-05
-1.34099e-05
-1.20857e-05
-1.08734e-05
-9.76536e-06
-8.7544e-06
-7.83359e-06
-6.99627e-06
-6.23628e-06
-5.54732e-06
-4.92476e-06
-0.000178455
-0.000169726
-0.000161201
-0.000152889
-0.000144798
-0.00013694
-0.000129322
-0.00012195
-0.000114831
-0.000107969
-0.000101367
-9.50268e-05
-8.89506e-05
-8.31381e-05
-7.75885e-05
-7.23e-05
-6.72698e-05
-6.24945e-05
-5.79696e-05
-5.36901e-05
-4.96502e-05
-4.58436e-05
-4.22636e-05
-3.89028e-05
-3.57536e-05
-3.2808e-05
-3.0058e-05
-2.74951e-05
-2.51108e-05
-2.28968e-05
-2.08445e-05
-1.89454e-05
-1.71913e-05
-1.55738e-05
-1.4085e-05
-1.27169e-05
-1.1462e-05
-1.03128e-05
-9.26232e-06
-8.30361e-06
-7.43016e-06
-6.63584e-06
-5.91441e-06
-5.2612e-06
-0.000177165
-0.000168722
-0.000160462
-0.000152394
-0.000144528
-0.000136875
-0.000129443
-0.000122239
-0.000115269
-0.000108538
-0.000102051
-9.58104e-05
-8.98181e-05
-8.40753e-05
-7.85821e-05
-7.33376e-05
-6.834e-05
-6.35866e-05
-5.90741e-05
-5.47983e-05
-5.07542e-05
-4.69366e-05
-4.33394e-05
-3.99561e-05
-3.67799e-05
-3.38035e-05
-3.10195e-05
-2.842e-05
-2.59973e-05
-2.37433e-05
-2.16501e-05
-1.97096e-05
-1.79138e-05
-1.62549e-05
-1.47251e-05
-1.33168e-05
-1.20226e-05
-1.08354e-05
-9.74801e-06
-8.75389e-06
-7.84656e-06
-7.01994e-06
-6.26785e-06
-5.58561e-06
-0.000175606
-0.000167449
-0.000159455
-0.000151635
-0.000143999
-0.000136556
-0.000129316
-0.000122286
-0.000115473
-0.000108882
-0.000102518
-9.63851e-05
-9.0486e-05
-8.48224e-05
-7.93951e-05
-7.42042e-05
-6.92487e-05
-6.45269e-05
-6.00361e-05
-5.57731e-05
-5.17339e-05
-4.79139e-05
-4.43079e-05
-4.09102e-05
-3.77147e-05
-3.47148e-05
-3.19036e-05
-2.92742e-05
-2.68191e-05
-2.45309e-05
-2.24021e-05
-2.04252e-05
-1.85924e-05
-1.68964e-05
-1.53296e-05
-1.38847e-05
-1.25546e-05
-1.13322e-05
-1.02108e-05
-9.1838e-06
-8.24485e-06
-7.38798e-06
-6.60709e-06
-5.89749e-06
-0.000173797
-0.000165926
-0.0001582
-0.00015063
-0.000143226
-0.000135997
-0.000128954
-0.000122104
-0.000115454
-0.000109009
-0.000102777
-9.67597e-05
-9.09621e-05
-8.53862e-05
-8.00337e-05
-7.49052e-05
-7.00007e-05
-6.53192e-05
-6.0859e-05
-5.66175e-05
-5.25916e-05
-4.87775e-05
-4.51707e-05
-4.17662e-05
-3.85587e-05
-3.55423e-05
-3.27107e-05
-3.00576e-05
-2.75761e-05
-2.52594e-05
-2.31004e-05
-2.10918e-05
-1.92267e-05
-1.74977e-05
-1.58978e-05
-1.442e-05
-1.30572e-05
-1.18028e-05
-1.06501e-05
-9.59277e-06
-8.6245e-06
-7.73946e-06
-6.93164e-06
-6.19636e-06
-0.000171758
-0.000164172
-0.000156714
-0.000149395
-0.000142225
-0.000135214
-0.000128372
-0.000121706
-0.000115224
-0.000108932
-0.000102837
-9.69433e-05
-9.12545e-05
-8.5774e-05
-8.05041e-05
-7.54462e-05
-7.06009e-05
-6.5968e-05
-6.15464e-05
-5.73346e-05
-5.33299e-05
-4.95294e-05
-4.59293e-05
-4.25254e-05
-3.9313e-05
-3.62868e-05
-3.34414e-05
-3.07707e-05
-2.82686e-05
-2.59288e-05
-2.37446e-05
-2.17094e-05
-1.98163e-05
-1.80586e-05
-1.64295e-05
-1.49222e-05
-1.35302e-05
-1.22467e-05
-1.10655e-05
-9.9803e-06
-8.98502e-06
-8.07389e-06
-7.24104e-06
-6.4818e-06
-0.000169508
-0.000162204
-0.000155014
-0.000147946
-0.000141012
-0.00013422
-0.000127581
-0.000121104
-0.000114795
-0.000108661
-0.000102709
-9.69445e-05
-9.13711e-05
-8.5993e-05
-8.08129e-05
-7.58329e-05
-7.10543e-05
-6.64775e-05
-6.21023e-05
-5.79276e-05
-5.39516e-05
-5.0172e-05
-4.65858e-05
-4.31895e-05
-3.99788e-05
-3.69494e-05
-3.40962e-05
-3.14139e-05
-2.88969e-05
-2.65392e-05
-2.43349e-05
-2.22776e-05
-2.0361e-05
-1.85787e-05
-1.69242e-05
-1.5391e-05
-1.39729e-05
-1.26634e-05
-1.14565e-05
-1.0346e-05
-9.32598e-06
-8.39088e-06
-7.53491e-06
-6.75343e-06
-0.000167063
-0.00016004
-0.000153116
-0.000146299
-0.0001396
-0.00013303
-0.000126597
-0.00012031
-0.000114178
-0.000108207
-0.000102403
-9.67724e-05
-9.13202e-05
-8.60505e-05
-8.09667e-05
-7.60713e-05
-7.13663e-05
-6.68526e-05
-6.25306e-05
-5.84e-05
-5.44597e-05
-5.0708e-05
-4.71424e-05
-4.37601e-05
-4.05577e-05
-3.75312e-05
-3.46761e-05
-3.19879e-05
-2.94613e-05
-2.7091e-05
-2.48714e-05
-2.27966e-05
-2.08608e-05
-1.90579e-05
-1.73817e-05
-1.58262e-05
-1.43852e-05
-1.30527e-05
-1.18227e-05
-1.06894e-05
-9.64702e-06
-8.69004e-06
-7.81287e-06
-7.01089e-06
-0.000164443
-0.000157697
-0.000151036
-0.000144468
-0.000138005
-0.000131656
-0.000125431
-0.000119337
-0.000113384
-0.000107579
-0.000101927
-9.64356e-05
-9.11097e-05
-8.59539e-05
-8.09721e-05
-7.61674e-05
-7.15421e-05
-6.70979e-05
-6.28357e-05
-5.87557e-05
-5.48575e-05
-5.114e-05
-4.76014e-05
-4.42394e-05
-4.10512e-05
-3.80334e-05
-3.51823e-05
-3.24935e-05
-2.99625e-05
-2.75845e-05
-2.53543e-05
-2.32666e-05
-2.13157e-05
-1.94961e-05
-1.78019e-05
-1.62274e-05
-1.47668e-05
-1.34142e-05
-1.21639e-05
-1.10103e-05
-9.94783e-06
-8.97108e-06
-8.07462e-06
-7.25388e-06
-0.000161661
-0.000155188
-0.000148788
-0.000142469
-0.00013624
-0.000130112
-0.000124095
-0.000118196
-0.000112425
-0.000106787
-0.000101291
-9.59429e-05
-9.07476e-05
-8.57105e-05
-8.08358e-05
-7.61271e-05
-7.15872e-05
-6.72182e-05
-6.30217e-05
-5.89983e-05
-5.51483e-05
-5.1471e-05
-4.79653e-05
-4.46295e-05
-4.14612e-05
-3.84577e-05
-3.56158e-05
-3.29317e-05
-3.04014e-05
-2.80205e-05
-2.57842e-05
-2.36877e-05
-2.17259e-05
-1.98934e-05
-1.81848e-05
-1.65947e-05
-1.51175e-05
-1.37477e-05
-1.24799e-05
-1.13085e-05
-1.02282e-05
-9.23373e-06
-8.3199e-06
-7.48215e-06
-0.000158734
-0.000152531
-0.000146387
-0.000140313
-0.000134318
-0.00012841
-0.000122601
-0.000116898
-0.00011131
-0.000105843
-0.000100505
-9.53028e-05
-9.02418e-05
-8.53275e-05
-8.05644e-05
-7.59565e-05
-7.1507e-05
-6.72185e-05
-6.30931e-05
-5.91318e-05
-5.53355e-05
-5.1704e-05
-4.82367e-05
-4.49325e-05
-4.17896e-05
-3.88057e-05
-3.59781e-05
-3.33036e-05
-3.07787e-05
-2.83994e-05
-2.61615e-05
-2.40605e-05
-2.20916e-05
-2.02499e-05
-1.85305e-05
-1.6928e-05
-1.54374e-05
-1.40533e-05
-1.27704e-05
-1.15837e-05
-1.04878e-05
-9.47777e-06
-8.54847e-06
-7.69546e-06
-0.000155676
-0.000149737
-0.000143847
-0.000138016
-0.000132251
-0.000126563
-0.000120961
-0.000115454
-0.000110049
-0.000104755
-9.95771e-05
-9.45236e-05
-8.96001e-05
-8.48121e-05
-8.01645e-05
-7.56616e-05
-7.1307e-05
-6.71038e-05
-6.30543e-05
-5.91602e-05
-5.54226e-05
-5.1842e-05
-4.84183e-05
-4.51509e-05
-4.20383e-05
-3.9079e-05
-3.62706e-05
-3.36105e-05
-3.10955e-05
-2.87223e-05
-2.64869e-05
-2.43853e-05
-2.24132e-05
-2.0566e-05
-1.8839e-05
-1.72275e-05
-1.57263e-05
-1.43307e-05
-1.30355e-05
-1.18358e-05
-1.07266e-05
-9.70303e-06
-8.76015e-06
-7.89362e-06
-0.000152501
-0.000146821
-0.000141181
-0.000135588
-0.000130052
-0.000124581
-0.000119186
-0.000113874
-0.000108654
-0.000103532
-9.85164e-05
-9.36137e-05
-8.88302e-05
-8.41715e-05
-7.96427e-05
-7.52485e-05
-7.09929e-05
-6.6879e-05
-6.29099e-05
-5.90875e-05
-5.54133e-05
-5.18885e-05
-4.85131e-05
-4.52872e-05
-4.22098e-05
-3.92796e-05
-3.6495e-05
-3.38537e-05
-3.13531e-05
-2.899e-05
-2.67612e-05
-2.46629e-05
-2.26912e-05
-2.0842e-05
-1.91108e-05
-1.74932e-05
-1.59845e-05
-1.45801e-05
-1.32751e-05
-1.20648e-05
-1.09445e-05
-9.90941e-06
-8.95483e-06
-8.07651e-06
-0.00076658
-0.000738187
-0.00070961
-0.000680979
-0.000652445
-0.000624134
-0.000596149
-0.000568586
-0.000541535
-0.000515073
-0.000489266
-0.000464174
-0.000439842
-0.000416312
-0.000393612
-0.000371765
-0.000350787
-0.000330686
-0.000311463
-0.000293115
-0.000275634
-0.000259008
-0.00024322
-0.00022825
-0.000214076
-0.000200675
-0.000188018
-0.000735672
-0.000709524
-0.000683136
-0.000656631
-0.000630154
-0.000603823
-0.000577736
-0.000551985
-0.000526656
-0.000501823
-0.000477552
-0.0004539
-0.000430916
-0.000408639
-0.000387101
-0.000366326
-0.000346333
-0.000327133
-0.00030873
-0.000291127
-0.000274317
-0.000258293
-0.000243042
-0.00022855
-0.000214797
-0.000201765
-0.000189429
-0.000705806
-0.000681742
-0.000657389
-0.000632868
-0.000608315
-0.000583841
-0.000559538
-0.000535494
-0.000511791
-0.000488502
-0.00046569
-0.000443413
-0.000421716
-0.000400642
-0.000380223
-0.000360485
-0.000341448
-0.000323125
-0.000305527
-0.000288655
-0.00027251
-0.000257085
-0.000242373
-0.000228362
-0.000215038
-0.000202383
-0.00019038
-0.000676952
-0.000654821
-0.000632365
-0.000609697
-0.000586943
-0.000564208
-0.000541581
-0.000519144
-0.000496977
-0.000475149
-0.000453723
-0.000432753
-0.000412287
-0.000392365
-0.000373021
-0.000354283
-0.000336172
-0.000318704
-0.000301891
-0.000285738
-0.000270247
-0.000255417
-0.000241242
-0.000227713
-0.000214821
-0.000202551
-0.000190888
-0.000649083
-0.000628749
-0.000608061
-0.00058712
-0.000566047
-0.000544942
-0.000523888
-0.000502964
-0.000482246
-0.0004618
-0.000441687
-0.000421961
-0.000402669
-0.000383849
-0.000365538
-0.000347763
-0.000330548
-0.000313909
-0.000297861
-0.000282411
-0.000267564
-0.000253321
-0.000239679
-0.000226633
-0.000214175
-0.000202294
-0.000190979
-0.000622179
-0.000603513
-0.000584468
-0.000565137
-0.000545634
-0.000526055
-0.000506477
-0.000486976
-0.000467624
-0.000448486
-0.000429618
-0.000411075
-0.000392901
-0.000375136
-0.000357815
-0.000340967
-0.000324616
-0.000308782
-0.000293477
-0.000278714
-0.000264499
-0.000250834
-0.000237721
-0.000225155
-0.000213132
-0.000201643
-0.00019068
-0.00059621
-0.000579092
-0.000561573
-0.000543742
-0.000525707
-0.000507556
-0.000489363
-0.000471201
-0.000453137
-0.000435234
-0.000417547
-0.000400127
-0.000383019
-0.000366261
-0.00034989
-0.000333933
-0.000318417
-0.000303359
-0.000288778
-0.000274685
-0.000261088
-0.000247992
-0.0002354
-0.000223311
-0.000211721
-0.000200626
-0.000190018
-0.000571144
-0.000555462
-0.000539363
-0.000522931
-0.000506266
-0.000489452
-0.00047256
-0.000455656
-0.000438807
-0.00042207
-0.000405501
-0.000389148
-0.000373054
-0.000357259
-0.000341797
-0.000326696
-0.000311983
-0.000297678
-0.000283798
-0.000270356
-0.000257363
-0.000244825
-0.000232747
-0.000221129
-0.000209971
-0.000199268
-0.000189017
-0.000546952
-0.000532603
-0.000517826
-0.000502697
-0.000487311
-0.000471749
-0.000456076
-0.000440356
-0.000424651
-0.000409017
-0.000393506
-0.000378165
-0.000363038
-0.000348161
-0.000333568
-0.000319289
-0.000305349
-0.000291769
-0.000278568
-0.00026576
-0.000253356
-0.000241365
-0.000229792
-0.000218639
-0.000207908
-0.000197596
-0.000187702
-0.000523606
-0.000510494
-0.000496945
-0.000483031
-0.000468841
-0.000454451
-0.000439921
-0.000425313
-0.000410686
-0.000396093
-0.000381584
-0.000367204
-0.000352994
-0.000338993
-0.000325231
-0.00031174
-0.000298543
-0.000285664
-0.00027312
-0.000260927
-0.000249097
-0.000237639
-0.000226561
-0.000215866
-0.000205557
-0.000195634
-0.000186095
-0.000501077
-0.000489114
-0.000476707
-0.000463925
-0.000450852
-0.000437557
-0.0004241
-0.000410538
-0.000396926
-0.000383315
-0.000369754
-0.000356285
-0.000342949
-0.000329781
-0.000316815
-0.000304077
-0.000291595
-0.00027939
-0.000267481
-0.000255884
-0.000244611
-0.000233674
-0.000223081
-0.000212836
-0.000202943
-0.000193404
-0.000184219
-0.000479338
-0.00046844
-0.000457096
-0.000445369
-0.000433338
-0.00042107
-0.000408618
-0.000396038
-0.000383382
-0.000370699
-0.000358034
-0.000345429
-0.000332923
-0.00032055
-0.000308342
-0.000296327
-0.00028453
-0.000272974
-0.000261677
-0.000250657
-0.000239926
-0.000229496
-0.000219376
-0.000209572
-0.000200089
-0.00019093
-0.000182095
-0.00045836
-0.000448451
-0.000438096
-0.000427352
-0.000416295
-0.000404987
-0.000393479
-0.000381822
-0.000370066
-0.000358257
-0.00034644
-0.000334654
-0.000322935
-0.000311319
-0.000299835
-0.000288511
-0.000277372
-0.00026644
-0.000255734
-0.000245271
-0.000235065
-0.000225129
-0.00021547
-0.000206098
-0.000197017
-0.000188232
-0.000179744
-0.000438118
-0.000429127
-0.000419691
-0.000409864
-0.000399717
-0.000389307
-0.000378683
-0.000367893
-0.000356984
-0.000346001
-0.000334985
-0.000323974
-0.000313004
-0.000302108
-0.000291314
-0.000280651
-0.000270142
-0.000259809
-0.000249673
-0.000239749
-0.000230051
-0.000220594
-0.000211385
-0.000202435
-0.000193748
-0.00018533
-0.000177184
-0.000418584
-0.000410446
-0.000401865
-0.000392893
-0.000383595
-0.000374026
-0.00036423
-0.000354255
-0.000344144
-0.00033394
-0.000323681
-0.000313405
-0.000303145
-0.000292933
-0.000282798
-0.000272766
-0.000262861
-0.000253104
-0.000243515
-0.000234111
-0.000224905
-0.000215912
-0.000207141
-0.000198602
-0.000190301
-0.000182244
-0.000174434
-0.000399734
-0.000392387
-0.000384603
-0.000376427
-0.000367922
-0.000359139
-0.000350121
-0.000340912
-0.000331552
-0.000322082
-0.000312539
-0.000302958
-0.000293372
-0.000283811
-0.000274303
-0.000264874
-0.000255546
-0.000246342
-0.00023728
-0.000228376
-0.000219647
-0.000211104
-0.000202758
-0.000194619
-0.000186695
-0.000178991
-0.000171512
-0.000381542
-0.000374931
-0.000367887
-0.000360453
-0.000352689
-0.000344643
-0.000336354
-0.000327863
-0.00031921
-0.000310432
-0.000301566
-0.000292643
-0.000283696
-0.000274754
-0.000265844
-0.00025699
-0.000248216
-0.000239541
-0.000230985
-0.000222564
-0.000214294
-0.000206186
-0.000198253
-0.000190504
-0.000182947
-0.000175589
-0.000168435
-0.000363985
-0.000358057
-0.000351702
-0.000344961
-0.000337889
-0.000330532
-0.000322926
-0.000315111
-0.000307122
-0.000298998
-0.00029077
-0.000282471
-0.00027413
-0.000265776
-0.000257435
-0.00024913
-0.000240884
-0.000232717
-0.000224647
-0.000216691
-0.000208863
-0.000201177
-0.000193644
-0.000186274
-0.000179074
-0.000172054
-0.000165217
-0.00034704
-0.000341746
-0.000336032
-0.000329937
-0.000323512
-0.000316799
-0.000309835
-0.000302653
-0.000295291
-0.000287782
-0.000280157
-0.000272448
-0.000264682
-0.000256887
-0.000249088
-0.000241307
-0.000233566
-0.000225885
-0.000218281
-0.000210772
-0.000203371
-0.000196091
-0.000188945
-0.000181943
-0.000175092
-0.0001684
-0.000161874
-0.000330683
-0.000325978
-0.000320862
-0.000315368
-0.000309548
-0.000303439
-0.000297075
-0.00029049
-0.000283717
-0.000276787
-0.000269733
-0.000262582
-0.000255361
-0.000248097
-0.000240813
-0.000233531
-0.000226273
-0.000219057
-0.000211901
-0.000204821
-0.000197831
-0.000190944
-0.000184173
-0.000177526
-0.000171014
-0.000164643
-0.000158419
-0.000315215
-0.000311048
-0.000306476
-0.000301532
-0.000296265
-0.00029071
-0.000284898
-0.000278861
-0.00027263
-0.000266237
-0.00025971
-0.000253076
-0.000246362
-0.000239591
-0.000232787
-0.000225972
-0.000219165
-0.000212385
-0.000205649
-0.000198973
-0.000192371
-0.000185855
-0.000179438
-0.00017313
-0.000166939
-0.000160873
-0.00015494
-0.000300432
-0.000296758
-0.000292689
-0.000288255
-0.000283499
-0.000278458
-0.000273159
-0.000267633
-0.000261909
-0.000256017
-0.000249983
-0.000243834
-0.000237595
-0.000231288
-0.000224937
-0.000218561
-0.000212181
-0.000205814
-0.000199477
-0.000193185
-0.000186952
-0.000180791
-0.000174712
-0.000168728
-0.000162846
-0.000157074
-0.00015142
-0.000285862
-0.000282657
-0.000279066
-0.000275117
-0.000270851
-0.000266301
-0.000261493
-0.000256457
-0.00025122
-0.00024581
-0.000240252
-0.000234572
-0.000228792
-0.000222936
-0.000217024
-0.000211076
-0.000205112
-0.000199148
-0.0001932
-0.000187284
-0.000181414
-0.0001756
-0.000169856
-0.000164191
-0.000158614
-0.000153134
-0.000147757
-0.00027151
-0.00026875
-0.000265613
-0.000262126
-0.000258327
-0.000254246
-0.000249909
-0.000245343
-0.000240573
-0.000235627
-0.000230527
-0.000225299
-0.000219963
-0.000214542
-0.000209057
-0.000203525
-0.000197965
-0.000192394
-0.000186827
-0.000181279
-0.000175763
-0.000170292
-0.000164876
-0.000159526
-0.000154251
-0.000149058
-0.000143956
-0.000257381
-0.000255043
-0.000252338
-0.00024929
-0.000245935
-0.000242302
-0.000238414
-0.000234298
-0.000229977
-0.000225475
-0.000220817
-0.000216024
-0.000211117
-0.000206118
-0.000201045
-0.000195916
-0.00019075
-0.000185561
-0.000180365
-0.000175177
-0.000170009
-0.000164872
-0.000159779
-0.000154739
-0.000149761
-0.000144853
-0.000140023
-0.000243482
-0.000241542
-0.000239245
-0.000236614
-0.000233682
-0.000230476
-0.000227018
-0.000223331
-0.000219439
-0.000215365
-0.000211131
-0.000206757
-0.000202264
-0.000197671
-0.000192997
-0.00018826
-0.000183475
-0.000178658
-0.000173824
-0.000168986
-0.000164157
-0.000159349
-0.000154572
-0.000149837
-0.000145152
-0.000140525
-0.000135963
-0.000229815
-0.000228251
-0.000226342
-0.000224107
-0.000221576
-0.000218776
-0.000215727
-0.000212451
-0.00020897
-0.000205305
-0.000201477
-0.000197506
-0.000193412
-0.000189212
-0.000184924
-0.000180564
-0.000176149
-0.000171693
-0.000167211
-0.000162715
-0.000158217
-0.00015373
-0.000149264
-0.000144827
-0.000140429
-0.000136079
-0.000131783
-0.000216385
-0.000215177
-0.000213633
-0.000211772
-0.000209622
-0.000207208
-0.000204549
-0.000201665
-0.000198576
-0.000195303
-0.000191866
-0.000188282
-0.00018457
-0.000180748
-0.000176832
-0.000172838
-0.000168781
-0.000164676
-0.000160535
-0.000156372
-0.000152197
-0.000148023
-0.00014386
-0.000139716
-0.000135601
-0.000131523
-0.000127488
-0.000203197
-0.000202323
-0.000201124
-0.000199618
-0.000197829
-0.000195781
-0.000193492
-0.000190981
-0.000188267
-0.000185369
-0.000182305
-0.000179092
-0.000175749
-0.00017229
-0.000168733
-0.000165092
-0.000161381
-0.000157615
-0.000153805
-0.000149965
-0.000146105
-0.000142237
-0.000138369
-0.000134512
-0.000130674
-0.000126863
-0.000123085
-0.000190252
-0.000189693
-0.00018882
-0.000187648
-0.000186201
-0.000184501
-0.000182564
-0.000180408
-0.000178051
-0.00017551
-0.000172803
-0.000169946
-0.000166955
-0.000163846
-0.000160634
-0.000157334
-0.000153957
-0.000150519
-0.00014703
-0.000143504
-0.00013995
-0.000136379
-0.0001328
-0.000129223
-0.000125656
-0.000122107
-0.000118582
-0.000177556
-0.000177292
-0.000176725
-0.000175869
-0.000174745
-0.000173373
-0.00017177
-0.000169952
-0.000167934
-0.000165734
-0.000163368
-0.000160851
-0.000158199
-0.000155426
-0.000152546
-0.000149572
-0.000146519
-0.000143397
-0.000140219
-0.000136996
-0.000133739
-0.000130457
-0.00012716
-0.000123856
-0.000120554
-0.000117261
-0.000113984
-0.00016511
-0.000165124
-0.000164845
-0.000164285
-0.000163466
-0.000162405
-0.000161118
-0.00015962
-0.000157925
-0.00015605
-0.000154009
-0.000151817
-0.000149489
-0.000147037
-0.000144476
-0.000141817
-0.000139074
-0.000136258
-0.00013338
-0.000130452
-0.000127482
-0.000124481
-0.000121458
-0.00011842
-0.000115377
-0.000112334
-0.0001093
-0.000152918
-0.000153191
-0.000153182
-0.000152902
-0.000152369
-0.000151603
-0.000150615
-0.00014942
-0.000148032
-0.000146465
-0.000144734
-0.000142852
-0.000140833
-0.000138689
-0.000136433
-0.000134077
-0.000131632
-0.000129111
-0.000126523
-0.000123878
-0.000121187
-0.000118459
-0.000115701
-0.000112923
-0.000110131
-0.000107333
-0.000104537
-0.000140981
-0.000141497
-0.00014174
-0.000141723
-0.000141461
-0.000140971
-0.000140265
-0.000139357
-0.00013826
-0.000136986
-0.00013555
-0.000133964
-0.000132239
-0.00013039
-0.000128426
-0.00012636
-0.000124203
-0.000121964
-0.000119655
-0.000117285
-0.000114863
-0.000112398
-0.000109899
-0.000107372
-0.000104826
-0.000102267
-9.97016e-05
-0.000129303
-0.000130044
-0.000130524
-0.000130753
-0.000130744
-0.000130515
-0.000130076
-0.000129439
-0.000128617
-0.000127621
-0.000126465
-0.00012516
-0.000123717
-0.000122148
-0.000120464
-0.000118676
-0.000116793
-0.000114827
-0.000112787
-0.000110681
-0.000108519
-0.000106309
-0.000104059
-0.000101777
-9.94687e-05
-9.71421e-05
-9.4803e-05
-0.000117883
-0.000118835
-0.000119537
-0.000119995
-0.000120225
-0.000120241
-0.000120052
-0.000119671
-0.000119109
-0.000118377
-0.000117486
-0.000116448
-0.000115272
-0.000113971
-0.000112554
-0.000111032
-0.000109413
-0.000107708
-0.000105926
-0.000104075
-0.000102163
-0.0001002
-9.81913e-05
-9.61452e-05
-9.40685e-05
-9.19676e-05
-8.98486e-05
-0.000106725
-0.000107873
-0.00010878
-0.000109454
-0.000109906
-0.000110152
-0.0001102
-0.00011006
-0.000109743
-0.000109259
-0.00010862
-0.000107835
-0.000106914
-0.000105868
-0.000104706
-0.000103437
-0.000102071
-0.000100616
-9.90812e-05
-9.74749e-05
-9.58047e-05
-9.40785e-05
-9.23033e-05
-9.04861e-05
-8.86334e-05
-8.67516e-05
-8.48465e-05
-9.58295e-05
-9.7159e-05
-9.82577e-05
-9.91317e-05
-9.97927e-05
-0.000100254
-0.000100523
-0.00010061
-0.000100524
-0.000100276
-9.98742e-05
-9.93292e-05
-9.865e-05
-9.7846e-05
-9.69261e-05
-9.58993e-05
-9.4774e-05
-9.35587e-05
-9.22614e-05
-9.08899e-05
-8.94517e-05
-8.79541e-05
-8.64039e-05
-8.48077e-05
-8.31719e-05
-8.15025e-05
-7.9805e-05
-8.51972e-05
-8.66948e-05
-8.79714e-05
-8.9032e-05
-8.98875e-05
-9.05498e-05
-9.10267e-05
-9.13267e-05
-9.14586e-05
-9.14317e-05
-9.12549e-05
-9.0937e-05
-9.04867e-05
-8.99127e-05
-8.92234e-05
-8.8427e-05
-8.75316e-05
-8.6545e-05
-8.54749e-05
-8.43285e-05
-8.3113e-05
-8.18352e-05
-8.05017e-05
-7.91188e-05
-7.76925e-05
-7.62285e-05
-7.47323e-05
-7.4829e-05
-7.64821e-05
-7.79234e-05
-7.91575e-05
-8.01941e-05
-8.10445e-05
-8.17157e-05
-8.22154e-05
-8.25518e-05
-8.27335e-05
-8.27685e-05
-8.26651e-05
-8.24315e-05
-8.20755e-05
-8.1605e-05
-8.10279e-05
-8.03514e-05
-7.95831e-05
-7.87301e-05
-7.77992e-05
-7.67972e-05
-7.57305e-05
-7.46054e-05
-7.34279e-05
-7.22037e-05
-7.09383e-05
-6.96368e-05
-6.47257e-05
-6.6522e-05
-6.81156e-05
-6.95106e-05
-7.07157e-05
-7.17414e-05
-7.2594e-05
-7.32807e-05
-7.3809e-05
-7.41866e-05
-7.44211e-05
-7.45202e-05
-7.44912e-05
-7.43416e-05
-7.40787e-05
-7.37097e-05
-7.32416e-05
-7.26812e-05
-7.20353e-05
-7.13104e-05
-7.05128e-05
-6.96485e-05
-6.87236e-05
-6.77436e-05
-6.6714e-05
-6.56401e-05
-6.45269e-05
-5.48876e-05
-5.68156e-05
-5.85498e-05
-6.00937e-05
-6.14551e-05
-6.26438e-05
-6.36657e-05
-6.45272e-05
-6.52351e-05
-6.57966e-05
-6.62187e-05
-6.65084e-05
-6.66725e-05
-6.6718e-05
-6.66516e-05
-6.648e-05
-6.62097e-05
-6.58472e-05
-6.53988e-05
-6.48704e-05
-6.42682e-05
-6.35977e-05
-6.28647e-05
-6.20744e-05
-6.12321e-05
-6.03427e-05
-5.94111e-05
-4.5315e-05
-4.73637e-05
-4.92274e-05
-5.09088e-05
-5.2415e-05
-5.37552e-05
-5.49346e-05
-5.59591e-05
-5.6835e-05
-5.75688e-05
-5.8167e-05
-5.86359e-05
-5.89819e-05
-5.92115e-05
-5.93309e-05
-5.93462e-05
-5.92636e-05
-5.90891e-05
-5.88285e-05
-5.84875e-05
-5.80717e-05
-5.75865e-05
-5.70372e-05
-5.64288e-05
-5.57664e-05
-5.50545e-05
-5.42978e-05
-3.6008e-05
-3.81672e-05
-4.01497e-05
-4.19578e-05
-4.35979e-05
-4.50784e-05
-4.64042e-05
-4.75806e-05
-4.86133e-05
-4.95082e-05
-5.02713e-05
-5.09086e-05
-5.14258e-05
-5.18288e-05
-5.21235e-05
-5.23156e-05
-5.24108e-05
-5.24145e-05
-5.23324e-05
-5.21697e-05
-5.19316e-05
-5.16233e-05
-5.12496e-05
-5.08154e-05
-5.03254e-05
-4.9784e-05
-4.91955e-05
-2.69665e-05
-2.92265e-05
-3.13179e-05
-3.32425e-05
-3.5006e-05
-3.66164e-05
-3.8078e-05
-3.93955e-05
-4.05742e-05
-4.16196e-05
-4.25372e-05
-4.33322e-05
-4.40101e-05
-4.45764e-05
-4.50363e-05
-4.53953e-05
-4.56585e-05
-4.58311e-05
-4.59183e-05
-4.5925e-05
-4.5856e-05
-4.57162e-05
-4.55103e-05
-4.52426e-05
-4.49177e-05
-4.45397e-05
-4.41128e-05
-1.81905e-05
-2.05422e-05
-2.2733e-05
-2.47644e-05
-2.66416e-05
-2.83718e-05
-2.9959e-05
-3.14076e-05
-3.27222e-05
-3.39078e-05
-3.49695e-05
-3.59122e-05
-3.67408e-05
-3.74604e-05
-3.80758e-05
-3.85921e-05
-3.9014e-05
-3.93463e-05
-3.95939e-05
-3.97612e-05
-3.9853e-05
-3.98736e-05
-3.98274e-05
-3.97187e-05
-3.95516e-05
-3.93301e-05
-3.90581e-05
-9.67982e-06
-1.21146e-05
-1.4396e-05
-1.65251e-05
-1.85066e-05
-2.03472e-05
-2.20505e-05
-2.36203e-05
-2.50611e-05
-2.63772e-05
-2.75733e-05
-2.8654e-05
-2.96237e-05
-3.0487e-05
-3.12486e-05
-3.19128e-05
-3.24843e-05
-3.29675e-05
-3.33667e-05
-3.36862e-05
-3.39305e-05
-3.41035e-05
-3.42094e-05
-3.42521e-05
-3.42356e-05
-3.41637e-05
-3.40399e-05
-1.43414e-06
-3.94402e-06
-6.30764e-06
-8.52598e-06
-1.0603e-05
-1.2545e-05
-1.43553e-05
-1.60372e-05
-1.75948e-05
-1.90322e-05
-2.03534e-05
-2.15627e-05
-2.26643e-05
-2.36622e-05
-2.45608e-05
-2.53641e-05
-2.60764e-05
-2.67017e-05
-2.72441e-05
-2.77076e-05
-2.80962e-05
-2.84138e-05
-2.86642e-05
-2.8851e-05
-2.89781e-05
-2.90488e-05
-2.90667e-05
6.54677e-06
3.96931e-06
1.53121e-06
-7.68237e-07
-2.93249e-06
-4.96751e-06
-6.87617e-06
-8.66153e-06
-1.03272e-05
-1.18769e-05
-1.33144e-05
-1.46435e-05
-1.5868e-05
-1.69917e-05
-1.80186e-05
-1.89524e-05
-1.97969e-05
-2.0556e-05
-2.12334e-05
-2.18328e-05
-2.2358e-05
-2.28125e-05
-2.31999e-05
-2.35236e-05
-2.37872e-05
-2.39939e-05
-2.41469e-05
1.42632e-05
1.16252e-05
9.11987e-06
6.74685e-06
4.5031e-06
2.38304e-06
3.84117e-07
-1.49642e-06
-3.26179e-06
-4.9154e-06
-6.46069e-06
-7.90109e-06
-9.24011e-06
-1.04812e-05
-1.1628e-05
-1.26839e-05
-1.36525e-05
-1.45373e-05
-1.53418e-05
-1.60693e-05
-1.67234e-05
-1.73073e-05
-1.78245e-05
-1.8278e-05
-1.86712e-05
-1.90072e-05
-1.9289e-05
2.17154e-05
1.90233e-05
1.64576e-05
1.40181e-05
1.17021e-05
9.5045e-06
7.42295e-06
5.45503e-06
3.59784e-06
1.84828e-06
2.03239e-07
-1.34042e-06
-2.78586e-06
-4.1363e-06
-5.39496e-06
-6.56506e-06
-7.64985e-06
-8.65254e-06
-9.57633e-06
-1.04244e-05
-1.12e-05
-1.19061e-05
-1.25458e-05
-1.31223e-05
-1.36384e-05
-1.40971e-05
-1.45012e-05
2.89036e-05
2.61634e-05
2.35437e-05
2.10442e-05
1.86629e-05
1.63947e-05
1.42377e-05
1.21898e-05
1.02482e-05
8.41027e-06
6.6731e-06
5.03388e-06
3.4897e-06
2.03765e-06
6.74792e-07
-6.01842e-07
-1.79521e-06
-2.90828e-06
-3.944e-06
-4.9053e-06
-5.79512e-06
-6.61633e-06
-7.3718e-06
-8.06434e-06
-8.69674e-06
-9.27172e-06
-9.79196e-06
3.58278e-05
3.30453e-05
3.03773e-05
2.78241e-05
2.53837e-05
2.30516e-05
2.08259e-05
1.87048e-05
1.66859e-05
1.47667e-05
1.29447e-05
1.12172e-05
9.58157e-06
8.03526e-06
6.57554e-06
5.1997e-06
3.90503e-06
2.68881e-06
1.54833e-06