/*--------------------------------*- C++ -*----------------------------------*\
| =========                 |                                                 |
| \\      /  F ield         | OpenFOAM: The Open Source CFD Toolbox           |
|  \\    /   O peration     | Version:  2412                                  |
|   \\  /    A nd           | Website:  www.openfoam.com                      |
|    \\/     M anipulation  |                                                 |
\*---------------------------------------------------------------------------*/
FoamFile
{
    version     2.0;
    format      ascii;
    arch        "LSB;label=32;scalar=64";
    class       volScalarField;
    location    "9.5";
    object      p;
}
// * * * * * * * * * * * * * * * * * * * * * * * * * * * * * * * * * * * * * //

dimensions      [0 2 -2 0 0 0 0];

internalField   nonuniform List<scalar> 
5285
(
0.00112576
0.00112636
0.00112668
0.00112669
0.00112634
0.00112562
0.00112448
0.00112288
0.00112079
0.00111816
0.00111494
0.00111109
0.00110654
0.00110125
0.00109515
0.00108819
0.00111064
0.00111077
0.00111061
0.00111011
0.00110926
0.00110802
0.00110636
0.00110423
0.0011016
0.00109843
0.00109467
0.00109027
0.00108519
0.00107937
0.00107275
0.00106527
0.00109578
0.00109546
0.00109483
0.00109387
0.00109254
0.00109082
0.00108866
0.00108604
0.00108292
0.00107925
0.00107499
0.0010701
0.00106452
0.00105822
0.00105113
0.0010432
0.00108117
0.00108043
0.00107937
0.00107797
0.00107619
0.00107402
0.0010714
0.00106832
0.00106474
0.00106061
0.00105589
0.00105055
0.00104454
0.0010378
0.00103029
0.00102196
0.00106684
0.00106569
0.00106422
0.00106241
0.00106021
0.00105762
0.00105458
0.00105108
0.00104707
0.00104252
0.00103739
0.00103163
0.00102522
0.00101809
0.00101022
0.00100154
0.00105278
0.00105125
0.0010494
0.0010472
0.00104461
0.00104162
0.0010382
0.0010343
0.0010299
0.00102497
0.00101946
0.00101333
0.00100656
0.000999093
0.000990888
0.000981902
0.001039
0.00103712
0.00103491
0.00103234
0.0010294
0.00102604
0.00102225
0.00101799
0.00101324
0.00100795
0.0010021
0.000995646
0.000988552
0.00098078
0.000972289
0.000963039
0.00102551
0.0010233
0.00102075
0.00101784
0.00101456
0.00101087
0.00100675
0.00100216
0.000997077
0.000991473
0.000985311
0.000978558
0.00097118
0.000963141
0.000954402
0.000944926
0.00101231
0.00100979
0.00100692
0.00100371
0.00100011
0.000996108
0.000991676
0.000986785
0.000981409
0.000975516
0.000969077
0.000962059
0.000954431
0.000946158
0.000937206
0.00092754
0.000999411
0.000996589
0.000993436
0.000989927
0.00098604
0.000981753
0.000977039
0.000971872
0.000966227
0.000960075
0.000953388
0.000946135
0.000938287
0.000929813
0.00092068
0.000910857
0.000986803
0.000983709
0.000980284
0.000976505
0.000972352
0.000967801
0.000962829
0.000957412
0.000951525
0.000945141
0.000938233
0.000930774
0.000922735
0.000914089
0.000904805
0.000894854
0.000974492
0.000971144
0.000967467
0.000963439
0.00095904
0.000954248
0.000949042
0.000943399
0.000937293
0.000930702
0.000923599
0.00091596
0.000907758
0.000898966
0.000889558
0.000879506
0.000962477
0.000958894
0.000954983
0.000950725
0.000946101
0.00094109
0.000935671
0.000929823
0.000923523
0.000916748
0.000909474
0.000901679
0.000893338
0.000884425
0.000874918
0.000864791
0.000950757
0.000946956
0.00094283
0.000938361
0.000933531
0.00092832
0.000922709
0.000916677
0.000910203
0.000903267
0.000895845
0.000887916
0.000879458
0.000870448
0.000860864
0.000850683
0.000939331
0.000935327
0.000931004
0.000926341
0.000921324
0.000915932
0.000910148
0.000903952
0.000897325
0.000890247
0.000882697
0.000874656
0.000866102
0.000857015
0.000847375
0.000837161
0.000928195
0.000924006
0.0009195
0.000914662
0.000909473
0.000903918
0.000897979
0.000891638
0.000884876
0.000877676
0.000870017
0.000861882
0.000853252
0.000844108
0.00083443
0.000824201
0.000917348
0.000912988
0.000908316
0.000903316
0.000897974
0.000892272
0.000886195
0.000879725
0.000872846
0.000865541
0.000857791
0.000849581
0.000840891
0.000831706
0.000822008
0.00081178
0.000906786
0.000902269
0.000897445
0.000892299
0.000886818
0.000880985
0.000874785
0.000868204
0.000861224
0.000853829
0.000846005
0.000837735
0.000829002
0.000819792
0.000810089
0.000799877
0.000896505
0.000891844
0.000886882
0.000881605
0.000875999
0.000870049
0.000863742
0.000857063
0.000849997
0.000842529
0.000834645
0.000826329
0.000817568
0.000808347
0.000798653
0.00078847
0.0008865
0.000881709
0.000876622
0.000871226
0.000865509
0.000859456
0.000853055
0.000846293
0.000839154
0.000831626
0.000823696
0.000815349
0.000806573
0.000797354
0.00078768
0.000777539
0.000980628
0.000980905
0.000981262
0.000982036
0.000983005
0.000984203
0.000985631
0.000987256
0.00098907
0.000978594
0.000978866
0.000979207
0.000979955
0.00098089
0.000982045
0.000983422
0.000984988
0.000986735
0.000988654
0.000990738
0.000992982
0.00099538
0.000997926
0.00100061
0.00100343
0.00100638
0.00100944
0.0010126
0.00101587
0.00101923
0.00102268
0.0010262
0.00102979
0.00103344
0.00103714
0.00104089
0.00104467
0.00104847
0.0010523
0.00105613
0.00105996
0.00106378
0.00106757
0.00107134
0.00107507
0.00107875
0.00108237
0.00108592
0.00108939
0.00109277
0.00109605
0.00109922
0.00110227
0.00110519
0.00110796
0.00111058
0.00111304
0.00111533
0.00111743
0.00111935
0.00112106
0.00112257
0.00112385
0.00112491
0.000976524
0.000976791
0.000977115
0.000977837
0.000978738
0.00097985
0.000981176
0.000982682
0.000984361
0.000986204
0.000988204
0.000990356
0.000992655
0.000995094
0.000997666
0.00100036
0.00100318
0.0010061
0.00100912
0.00101223
0.00101543
0.0010187
0.00102204
0.00102544
0.0010289
0.00103239
0.00103592
0.00103947
0.00104304
0.00104662
0.00105019
0.00105376
0.0010573
0.00106082
0.00106429
0.00106772
0.00107109
0.00107439
0.0010776
0.00108074
0.00108377
0.00108669
0.00108949
0.00109216
0.0010947
0.00109708
0.0010993
0.00110136
0.00110324
0.00110493
0.00110642
0.00110771
0.00110878
0.00110963
0.00111025
0.000974418
0.000974681
0.000974989
0.000975684
0.00097655
0.000977618
0.000978893
0.000980339
0.00098195
0.000983716
0.000985632
0.000987692
0.000989891
0.000992223
0.00099468
0.000997253
0.000999935
0.00100272
0.00100559
0.00100855
0.00101158
0.00101469
0.00101785
0.00102106
0.00102431
0.0010276
0.00103091
0.00103424
0.00103757
0.00104091
0.00104423
0.00104753
0.00105081
0.00105404
0.00105723
0.00106036
0.00106342
0.0010664
0.0010693
0.00107209
0.00107478
0.00107736
0.0010798
0.00108211
0.00108427
0.00108628
0.00108812
0.00108978
0.00109126
0.00109255
0.00109364
0.00109452
0.00109518
0.00109561
0.00109582
0.000972279
0.000972537
0.000972828
0.000973497
0.000974328
0.000975353
0.000976575
0.000977961
0.000979503
0.000981193
0.000983024
0.000984991
0.000987091
0.000989315
0.000991656
0.000994107
0.000996658
0.000999302
0.00100203
0.00100483
0.0010077
0.00101063
0.00101361
0.00101664
0.00101969
0.00102277
0.00102587
0.00102897
0.00103208
0.00103517
0.00103825
0.00104129
0.0010443
0.00104726
0.00105016
0.00105299
0.00105575
0.00105843
0.001061
0.00106348
0.00106583
0.00106807
0.00107016
0.00107212
0.00107392
0.00107556
0.00107703
0.00107832
0.00107942
0.00108032
0.00108102
0.0010815
0.00108177
0.00108181
0.00108162
0.000970108
0.000970361
0.000970635
0.000971278
0.000972073
0.000973054
0.000974225
0.00097555
0.000977023
0.000978636
0.000980381
0.000982256
0.000984255
0.000986371
0.000988597
0.000990925
0.000993346
0.000995851
0.000998432
0.00100108
0.00100379
0.00100655
0.00100935
0.00101218
0.00101504
0.00101792
0.0010208
0.00102369
0.00102656
0.00102942
0.00103224
0.00103503
0.00103778
0.00104047
0.00104309
0.00104564
0.0010481
0.00105047
0.00105274
0.00105489
0.00105693
0.00105883
0.00106059
0.0010622
0.00106365
0.00106494
0.00106605
0.00106697
0.00106771
0.00106824
0.00106857
0.00106868
0.00106857
0.00106824
0.00106767
0.000967906
0.000968154
0.000968411
0.000969028
0.000969788
0.000970725
0.000971842
0.000973107
0.00097451
0.000976046
0.000977706
0.000979488
0.000981386
0.000983395
0.000985506
0.00098771
0.000990001
0.000992368
0.000994803
0.000997297
0.000999843
0.00100243
0.00100505
0.0010077
0.00101037
0.00101304
0.00101572
0.00101838
0.00102103
0.00102365
0.00102623
0.00102877
0.00103126
0.00103368
0.00103603
0.00103829
0.00104047
0.00104254
0.00104451
0.00104635
0.00104807
0.00104965
0.00105108
0.00105236
0.00105348
0.00105442
0.00105519
0.00105577
0.00105615
0.00105633
0.0010563
0.00105606
0.00105559
0.0010549
0.00105398
0.000965673
0.000965918
0.000966158
0.000966748
0.000967472
0.000968365
0.00096943
0.000970633
0.000971968
0.000973425
0.000975
0.000976689
0.000978487
0.000980388
0.000982384
0.000984466
0.000986626
0.000988855
0.000991145
0.000993486
0.000995871
0.00099829
0.00100074
0.0010032
0.00100567
0.00100815
0.00101061
0.00101306
0.00101548
0.00101787
0.00102022
0.00102251
0.00102474
0.0010269
0.00102898
0.00103097
0.00103286
0.00103465
0.00103632
0.00103786
0.00103927
0.00104054
0.00104166
0.00104262
0.00104341
0.00104402
0.00104446
0.0010447
0.00104474
0.00104459
0.00104422
0.00104364
0.00104283
0.0010418
0.00104054
0.000963413
0.000963653
0.000963877
0.000964439
0.000965128
0.000965976
0.000966989
0.000968131
0.000969396
0.000970776
0.000972265
0.000973861
0.000975559
0.000977352
0.000979233
0.000981193
0.000983224
0.000985316
0.000987461
0.00098965
0.000991874
0.000994126
0.000996396
0.000998676
0.00100096
0.00100323
0.00100549
0.00100773
0.00100993
0.00101209
0.0010142
0.00101625
0.00101823
0.00102013
0.00102195
0.00102367
0.00102529
0.00102679
0.00102818
0.00102943
0.00103054
0.00103151
0.00103232
0.00103297
0.00103344
0.00103374
0.00103386
0.00103378
0.00103351
0.00103303
0.00103234
0.00103143
0.00103031
0.00102896
0.00102738
0.000961125
0.000961362
0.000961568
0.000962104
0.000962757
0.000963561
0.000964521
0.000965602
0.000966797
0.000968099
0.000969503
0.000971006
0.000972604
0.00097429
0.000976057
0.000977896
0.000979797
0.000981753
0.000983754
0.000985791
0.000987857
0.000989942
0.000992038
0.000994137
0.000996231
0.00099831
0.00100037
0.00100239
0.00100438
0.00100631
0.00100819
0.00101
0.00101174
0.00101339
0.00101495
0.00101641
0.00101776
0.00101899
0.00102009
0.00102106
0.00102188
0.00102256
0.00102307
0.00102342
0.0010236
0.00102359
0.0010234
0.00102302
0.00102244
0.00102165
0.00102065
0.00101944
0.00101801
0.00101636
0.00101449
0.000958812
0.000959045
0.000959235
0.000959744
0.000960361
0.000961121
0.000962027
0.000963047
0.000964172
0.000965396
0.000966715
0.000968125
0.000969624
0.000971203
0.000972857
0.000974575
0.000976348
0.000978168
0.000980026
0.000981913
0.000983821
0.000985742
0.000987666
0.000989586
0.000991493
0.000993378
0.000995234
0.000997052
0.000998822
0.00100054
0.00100219
0.00100377
0.00100526
0.00100667
0.00100798
0.00100918
0.00101027
0.00101123
0.00101206
0.00101276
0.0010133
0.0010137
0.00101393
0.00101399
0.00101387
0.00101358
0.0010131
0.00101242
0.00101154
0.00101046
0.00100918
0.00100768
0.00100596
0.00100403
0.00100187
0.000956475
0.000956704
0.000956878
0.000957359
0.000957941
0.000958656
0.00095951
0.000960468
0.000961523
0.000962669
0.000963902
0.000965221
0.00096662
0.000968094
0.000969635
0.000971233
0.000972879
0.000974565
0.000976281
0.000978019
0.000979771
0.000981528
0.000983283
0.000985025
0.000986748
0.000988443
0.000990102
0.000991715
0.000993275
0.000994774
0.000996202
0.000997551
0.000998814
0.000999981
0.00100105
0.001002
0.00100283
0.00100354
0.00100411
0.00100453
0.00100481
0.00100493
0.00100488
0.00100467
0.00100428
0.0010037
0.00100294
0.00100199
0.00100083
0.000999475
0.000997911
0.000996138
0.000994151
0.000991948
0.000989528
0.000954115
0.000954341
0.000954498
0.000954953
0.000955499
0.00095617
0.00095697
0.000957866
0.000958851
0.000959919
0.000961068
0.000962294
0.000963596
0.000964965
0.000966393
0.000967872
0.000969392
0.000970945
0.000972521
0.000974111
0.000975709
0.000977305
0.000978891
0.000980459
0.000982001
0.000983508
0.000984972
0.000986385
0.000987739
0.000989025
0.000990235
0.000991361
0.000992395
0.000993328
0.000994154
0.000994863
0.000995449
0.000995903
0.000996218
0.000996388
0.000996405
0.000996262
0.000995954
0.000995474
0.000994816
0.000993975
0.000992946
0.000991724
0.000990305
0.000988685
0.000986861
0.000984829
0.000982587
0.000980133
0.000977466
0.000951733
0.000951957
0.000952098
0.000952526
0.000953037
0.000953663
0.000954409
0.000955243
0.000956158
0.000957148
0.000958212
0.000959348
0.000960552
0.000961817
0.000963134
0.000964495
0.00096589
0.000967311
0.000968748
0.000970193
0.000971638
0.000973074
0.000974495
0.00097589
0.000977253
0.000978575
0.000979849
0.000981065
0.000982216
0.000983294
0.000984291
0.000985199
0.000986009
0.000986715
0.000987308
0.000987782
0.000988128
0.000988339
0.000988408
0.00098833
0.000988096
0.000987701
0.000987139
0.000986404
0.000985491
0.000984396
0.000983112
0.000981637
0.000979967
0.000978098
0.000976027
0.000973751
0.00097127
0.000968581
0.000965684
0.000949332
0.000949553
0.000949678
0.000950079
0.000950555
0.000951137
0.00095183
0.000952601
0.000953444
0.000954357
0.000955337
0.000956383
0.00095749
0.000958652
0.00095986
0.000961104
0.000962376
0.000963665
0.000964965
0.000966266
0.00096756
0.00096884
0.000970096
0.000971322
0.000972509
0.00097365
0.000974736
0.000975759
0.000976712
0.000977586
0.000978375
0.000979069
0.000979662
0.000980146
0.000980514
0.000980758
0.000980872
0.000980848
0.00098068
0.000980361
0.000979886
0.000979248
0.000978443
0.000977465
0.000976308
0.000974969
0.000973444
0.000971729
0.00096982
0.000967715
0.000965412
0.000962907
0.000960201
0.000957292
0.00095418
0.000946912
0.000947131
0.00094724
0.000947614
0.000948056
0.000948594
0.000949232
0.00094994
0.000950713
0.000951548
0.000952444
0.0009534
0.000954412
0.000955473
0.000956572
0.000957701
0.00095885
0.000960011
0.000961175
0.000962333
0.000963479
0.000964603
0.000965699
0.000966758
0.000967772
0.000968734
0.000969636
0.00097047
0.000971229
0.000971905
0.000972489
0.000972976
0.000973357
0.000973626
0.000973774
0.000973796
0.000973685
0.000973434
0.000973036
0.000972487
0.000971779
0.000970909
0.00096987
0.000968659
0.00096727
0.000965699
0.000963944
0.000962001
0.000959867
0.000957539
0.000955017
0.000952298
0.000949381
0.000946266
0.000942954
0.000944476
0.000944693
0.000944786
0.000945134
0.000945541
0.000946034
0.000946619
0.000947263
0.000947964
0.000948721
0.000949535
0.000950403
0.000951321
0.000952281
0.000953273
0.000954288
0.000955316
0.000956349
0.000957379
0.000958398
0.000959396
0.000960368
0.000961305
0.0009622
0.000963045
0.000963832
0.000964553
0.000965202
0.000965771
0.000966252
0.000966639
0.000966923
0.000967098
0.000967157
0.000967093
0.0009669
0.000966571
0.0009661
0.000965482
0.00096471
0.00096378
0.000962686
0.000961424
0.00095999
0.000958379
0.000956588
0.000954615
0.000952455
0.000950108
0.000947571
0.000944843
0.000941922
0.000938809
0.000935502
0.000932004
0.000942025
0.000942239
0.000942317
0.000942638
0.000943011
0.000943461
0.00094399
0.00094457
0.000945199
0.000945879
0.000946611
0.000947392
0.000948217
0.000949078
0.000949964
0.000950867
0.000951776
0.000952683
0.000953581
0.000954461
0.000955315
0.000956137
0.000956918
0.000957652
0.00095833
0.000958945
0.00095949
0.000959958
0.000960341
0.000960633
0.000960826
0.000960913
0.000960888
0.000960744
0.000960474
0.000960073
0.000959534
0.000958851
0.00095802
0.000957034
0.00095589
0.000954582
0.000953107
0.00095146
0.000949638
0.000947638
0.000945457
0.000943094
0.000940546
0.000937811
0.00093489
0.00093178
0.000928483
0.000924999
0.000921328
0.00093956
0.000939771
0.000939834
0.000940129
0.000940469
0.000940874
0.000941348
0.000941863
0.00094242
0.000943023
0.000943674
0.000944369
0.000945103
0.000945866
0.000946648
0.00094744
0.000948231
0.000949015
0.000949782
0.000950526
0.000951238
0.000951912
0.00095254
0.000953115
0.00095363
0.000954077
0.00095445
0.000954741
0.000954943
0.00095505
0.000955054
0.00095495
0.00095473
0.000954389
0.00095392
0.000953317
0.000952575
0.000951689
0.000950653
0.000949462
0.000948113
0.0009466
0.000944921
0.000943071
0.000941049
0.00093885
0.000936474
0.000933917
0.00093118
0.00092826
0.000925157
0.000921872
0.000918404
0.000914754
0.000910924
0.000937083
0.00093729
0.00093734
0.000937608
0.000937915
0.000938276
0.000938694
0.000939144
0.000939628
0.000940155
0.000940725
0.000941336
0.00094198
0.000942647
0.000943327
0.000944009
0.000944685
0.000945346
0.000945985
0.000946595
0.000947167
0.000947696
0.000948174
0.000948593
0.000948948
0.000949231
0.000949435
0.000949553
0.000949579
0.000949506
0.000949327
0.000949036
0.000948628
0.000948096
0.000947434
0.000946637
0.0009457
0.000944617
0.000943384
0.000941996
0.00094045
0.000938742
0.000936869
0.000934826
0.000932613
0.000930226
0.000927664
0.000924926
0.00092201
0.000918917
0.000915645
0.000912195
0.000908568
0.000904765
0.000900787
0.000934596
0.0009348
0.000934834
0.000935076
0.00093535
0.000935667
0.000936029
0.000936413
0.000936825
0.000937276
0.000937768
0.000938296
0.000938851
0.000939424
0.000940002
0.000940576
0.000941138
0.000941679
0.000942192
0.000942669
0.000943105
0.000943491
0.000943821
0.000944089
0.000944287
0.000944409
0.000944448
0.000944397
0.000944251
0.000944003
0.000943646
0.000943175
0.000942584
0.000941867
0.000941019
0.000940034
0.000938909
0.000937637
0.000936215
0.000934639
0.000932905
0.00093101
0.000928951
0.000926726
0.000924331
0.000921767
0.00091903
0.00091612
0.000913037
0.00090978
0.00090635
0.000902748
0.000898973
0.000895029
0.000890916
0.000932151
0.000932351
0.00093237
0.000932586
0.000932828
0.000933101
0.000933409
0.000933728
0.000934071
0.000934448
0.000934864
0.000935312
0.000935783
0.000936264
0.000936745
0.000937215
0.000937667
0.000938091
0.000938483
0.000938833
0.000939136
0.000939385
0.000939574
0.000939696
0.000939744
0.000939712
0.000939593
0.000939382
0.000939072
0.000938657
0.000938131
0.000937488
0.000936724
0.000935832
0.000934807
0.000933646
0.000932342
0.000930893
0.000929294
0.000927541
0.000925631
0.000923562
0.00092133
0.000918934
0.000916372
0.000913642
0.000910744
0.000907677
0.00090444
0.000901034
0.000897459
0.000893717
0.000889809
0.000885737
0.000881503
0.000929726
0.000929921
0.000929926
0.000930117
0.000930328
0.000930558
0.000930811
0.000931066
0.00093134
0.000931645
0.000931986
0.000932357
0.000932745
0.000933138
0.000933523
0.000933893
0.000934237
0.000934549
0.000934822
0.000935049
0.000935224
0.00093534
0.000935392
0.000935372
0.000935275
0.000935094
0.000934824
0.000934457
0.000933989
0.000933414
0.000932725
0.000931918
0.000930987
0.000929928
0.000928736
0.000927405
0.000925933
0.000924314
0.000922547
0.000920626
0.00091855
0.000916316
0.000913922
0.000911366
0.000908646
0.000905762
0.000902713
0.000899499
0.000896119
0.000892575
0.000888868
0.000884998
0.000880967
0.000876778
0.000872433
0.000927248
0.000927436
0.000927428
0.000927592
0.000927772
0.000927958
0.000928155
0.000928346
0.000928549
0.000928782
0.000929048
0.000929341
0.000929646
0.000929949
0.00093024
0.000930507
0.000930744
0.000930943
0.000931097
0.000931201
0.000931247
0.000931231
0.000931146
0.000930985
0.000930743
0.000930414
0.000929992
0.000929472
0.000928847
0.000928113
0.000927263
0.000926294
0.000925199
0.000923975
0.000922617
0.000921121
0.000919483
0.000917699
0.000915767
0.000913683
0.000911445
0.000909051
0.000906499
0.000903788
0.000900917
0.000897884
0.00089469
0.000891335
0.000887819
0.000884144
0.00088031
0.000876319
0.000872173
0.000867875
0.000863427
0.000924714
0.000924896
0.000924874
0.000925009
0.000925159
0.0009253
0.00092544
0.000925566
0.000925698
0.000925859
0.00092605
0.000926264
0.000926486
0.0009267
0.000926895
0.00092706
0.000927189
0.000927275
0.00092731
0.00092729
0.000927208
0.000927059
0.000926837
0.000926536
0.00092615
0.000925674
0.000925102
0.000924429
0.000923649
0.000922757
0.000921749
0.000920619
0.000919363
0.000917977
0.000916456
0.000914797
0.000912997
0.000911051
0.000908959
0.000906716
0.000904321
0.000901772
0.000899067
0.000896206
0.000893188
0.000890013
0.000886681
0.000883191
0.000879546
0.000875745
0.000871792
0.000867687
0.000863433
0.000859033
0.000854489
0.000922126
0.0009223
0.000922264
0.00092237
0.000922488
0.000922584
0.000922666
0.000922727
0.000922789
0.000922877
0.000922993
0.000923128
0.000923266
0.00092339
0.000923489
0.000923552
0.000923573
0.000923545
0.000923462
0.000923318
0.000923108
0.000922827
0.000922468
0.000922027
0.000921498
0.000920876
0.000920155
0.000919331
0.000918397
0.00091735
0.000916185
0.000914897
0.000913482
0.000911937
0.000910256
0.000908438
0.000906479
0.000904376
0.000902127
0.00089973
0.000897182
0.000894483
0.000891631
0.000888627
0.000885468
0.000882156
0.000878691
0.000875074
0.000871305
0.000867387
0.000863321
0.000859109
0.000854754
0.00085026
0.000845628
0.000919483
0.000919649
0.000919598
0.000919674
0.000919759
0.000919809
0.000919835
0.000919831
0.000919823
0.000919838
0.000919879
0.000919935
0.000919987
0.000920021
0.000920023
0.000919984
0.000919897
0.000919755
0.000919553
0.000919286
0.000918948
0.000918535
0.000918041
0.000917461
0.00091679
0.000916022
0.000915154
0.00091418
0.000913095
0.000911894
0.000910575
0.000909131
0.00090756
0.000905859
0.000904022
0.000902049
0.000899935
0.000897679
0.000895278
0.00089273
0.000890035
0.000887191
0.000884198
0.000881054
0.000877761
0.000874319
0.000870727
0.000866989
0.000863104
0.000859074
0.000854903
0.000850591
0.000846143
0.000841561
0.000836848
0.000916785
0.000916942
0.000916877
0.000916921
0.000916973
0.000916977
0.000916945
0.000916878
0.000916801
0.000916743
0.000916708
0.000916684
0.000916652
0.000916595
0.0009165
0.000916357
0.000916161
0.000915906
0.000915585
0.000915195
0.00091473
0.000914186
0.000913557
0.000912839
0.000912027
0.000911116
0.000910102
0.000908979
0.000907745
0.000906393
0.000904922
0.000903326
0.000901602
0.000899747
0.000897758
0.000895633
0.000893369
0.000890963
0.000888415
0.000885723
0.000882885
0.000879902
0.000876772
0.000873496
0.000870074
0.000866507
0.000862796
0.000858942
0.000854948
0.000850814
0.000846544
0.00084214
0.000837606
0.000832943
0.000828157
0.000914033
0.000914179
0.0009141
0.000914111
0.00091413
0.000914088
0.000914
0.000913869
0.000913724
0.000913594
0.000913483
0.000913378
0.00091326
0.000913111
0.000912919
0.000912673
0.000912369
0.000911999
0.00091156
0.000911048
0.000910456
0.000909781
0.000909019
0.000908164
0.000907212
0.000906159
0.000905001
0.000903733
0.000902351
0.000900851
0.00089923
0.000897484
0.000895611
0.000893606
0.000891469
0.000889196
0.000886785
0.000884235
0.000881544
0.000878712
0.000875737
0.00087262
0.00086936
0.000865957
0.000862413
0.000858728
0.000854903
0.000850941
0.000846844
0.000842613
0.000838251
0.000833762
0.000829148
0.000824413
0.00081956
0.000911225
0.000911362
0.000911268
0.000911246
0.00091123
0.000911143
0.000910998
0.000910807
0.000910595
0.000910393
0.000910206
0.000910019
0.000909814
0.000909573
0.000909282
0.000908933
0.00090852
0.000908038
0.000907481
0.000906846
0.000906128
0.000905324
0.000904429
0.000903439
0.000902349
0.000901156
0.000899855
0.000898443
0.000896916
0.000895271
0.000893503
0.000891611
0.000889591
0.000887441
0.000885159
0.000882742
0.00088019
0.0008775
0.000874672
0.000871704
0.000868598
0.000865352
0.000861967
0.000858444
0.000854783
0.000850986
0.000847055
0.000842991
0.000838798
0.000834476
0.00083003
0.000825462
0.000820776
0.000815975
0.000811064
0.000908364
0.00090849
0.000908381
0.000908325
0.000908274
0.000908142
0.000907943
0.000907692
0.000907414
0.000907141
0.000906877
0.000906608
0.000906315
0.000905981
0.000905592
0.00090514
0.000904618
0.000904022
0.000903348
0.000902592
0.000901749
0.000900817
0.00089979
0.000898666
0.00089744
0.000896108
0.000894668
0.000893114
0.000891445
0.000889657
0.000887746
0.000885711
0.000883548
0.000881256
0.000878833
0.000876278
0.000873588
0.000870763
0.000867802
0.000864705
0.000861472
0.000858103
0.0008546
0.000850962
0.000847191
0.000843289
0.000839258
0.000835099
0.000830816
0.000826411
0.000821887
0.000817248
0.000812496
0.000807637
0.000802673
0.000905447
0.000905564
0.000905441
0.000905349
0.000905264
0.000905087
0.000904834
0.000904525
0.000904184
0.000903839
0.000903498
0.000903147
0.000902765
0.000902337
0.00090185
0.000901294
0.000900664
0.000899955
0.000899165
0.000898288
0.000897321
0.000896262
0.000895105
0.000893849
0.000892488
0.00089102
0.000889442
0.00088775
0.000885941
0.000884013
0.000881963
0.000879788
0.000877486
0.000875057
0.000872497
0.000869807
0.000866984
0.000864029
0.000860941
0.00085772
0.000854366
0.000850881
0.000847264
0.000843518
0.000839643
0.000835642
0.000831517
0.00082727
0.000822904
0.000818423
0.000813828
0.000809124
0.000804314
0.000799402
0.000794393
0.000902478
0.000902584
0.000902448
0.00090232
0.0009022
0.000901979
0.000901674
0.000901309
0.000900905
0.00090049
0.000900071
0.000899636
0.000899166
0.000898644
0.000898058
0.000897398
0.00089666
0.00089584
0.000894933
0.000893936
0.000892847
0.000891662
0.000890377
0.00088899
0.000887498
0.000885896
0.000884182
0.000882354
0.000880409
0.000878344
0.000876157
0.000873847
0.00087141
0.000868847
0.000866156
0.000863335
0.000860385
0.000857305
0.000854095
0.000850755
0.000847286
0.00084369
0.000839966
0.000836117
0.000832145
0.000828052
0.000823839
0.000819511
0.000815069
0.000810517
0.000805858
0.000801096
0.000796235
0.000791278
0.00078623
0.000899456
0.000899553
0.000899404
0.00089924
0.000899083
0.000898821
0.000898465
0.000898044
0.000897579
0.000897094
0.000896598
0.000896079
0.00089552
0.000894903
0.000894218
0.000893455
0.000892609
0.000891677
0.000890656
0.000889541
0.00088833
0.000887021
0.00088561
0.000884095
0.000882472
0.000880739
0.000878893
0.000876932
0.000874853
0.000872655
0.000870335
0.000867892
0.000865325
0.000862633
0.000859814
0.000856868
0.000853795
0.000850595
0.000847268
0.000843816
0.000840238
0.000836536
0.000832712
0.000828767
0.000824703
0.000820524
0.000816231
0.000811827
0.000807316
0.0008027
0.000797984
0.000793171
0.000788264
0.000783269
0.000778188
0.000896382
0.000896471
0.000896309
0.000896109
0.000895917
0.000895614
0.000895207
0.000894732
0.000894207
0.000893653
0.00089308
0.000892477
0.000891828
0.000891117
0.000890332
0.000889466
0.000888514
0.000887472
0.000886336
0.000885104
0.000883774
0.000882342
0.000880807
0.000879165
0.000877414
0.000875552
0.000873577
0.000871486
0.000869277
0.000866949
0.000864501
0.00086193
0.000859237
0.000856419
0.000853477
0.000850411
0.000847221
0.000843906
0.000840468
0.000836908
0.000833227
0.000829426
0.000825507
0.000821472
0.000817324
0.000813064
0.000808697
0.000804225
0.00079965
0.000794978
0.000790211
0.000785352
0.000780407
0.00077538
0.000770273
0.000893258
0.000893339
0.000893166
0.000892929
0.000892702
0.000892359
0.000891904
0.000891376
0.000890791
0.000890169
0.000889518
0.000888831
0.000888093
0.000887287
0.000886404
0.000885436
0.000884377
0.000883225
0.000881977
0.000880629
0.000879181
0.000877629
0.000875971
0.000874205
0.00087233
0.000870342
0.00086824
0.000866022
0.000863687
0.000861233
0.00085866
0.000855965
0.000853149
0.000850212
0.000847152
0.00084397
0.000840668
0.000837244
0.0008337
0.000830038
0.000826259
0.000822365
0.000818357
0.000814239
0.000810012
0.000805679
0.000801244
0.000796709
0.000792079
0.000787355
0.000782543
0.000777647
0.000772669
0.000767615
0.000762489
0.000890086
0.00089016
0.000889976
0.000889704
0.00088944
0.00088906
0.000888556
0.000887975
0.000887332
0.000886642
0.000885915
0.000885144
0.000884316
0.000883417
0.000882435
0.000881365
0.000880202
0.000878941
0.000877581
0.00087612
0.000874555
0.000872885
0.000871107
0.00086922
0.000867222
0.000865111
0.000862886
0.000860545
0.000858087
0.000855511
0.000852816
0.000850002
0.000847069
0.000844016
0.000840843
0.000837551
0.000834141
0.000830614
0.00082697
0.000823212
0.000819341
0.00081536
0.00081127
0.000807073
0.000802774
0.000798374
0.000793877
0.000789286
0.000784605
0.000779838
0.000774987
0.000770058
0.000765055
0.000759981
0.00075484
0.000886867
0.000886936
0.000886742
0.000886433
0.000886134
0.000885717
0.000885167
0.000884533
0.000883832
0.000883075
0.000882272
0.000881418
0.000880501
0.000879508
0.000878429
0.000877258
0.00087599
0.000874623
0.000873153
0.00087158
0.000869901
0.000868114
0.000866219
0.000864213
0.000862096
0.000859865
0.00085752
0.000855059
0.000852482
0.000849788
0.000846977
0.000844048
0.000841001
0.000837837
0.000834556
0.00083116
0.000827648
0.000824022
0.000820284
0.000816436
0.000812479
0.000808416
0.000804249
0.000799981
0.000795615
0.000791155
0.000786602
0.000781962
0.000777236
0.000772431
0.000767548
0.000762592
0.000757568
0.00075248
0.000747331
0.000883605
0.000883667
0.000883465
0.000883121
0.000882786
0.000882334
0.000881737
0.000881052
0.000880293
0.00087947
0.000878592
0.000877655
0.00087665
0.000875564
0.000874389
0.000873118
0.000871747
0.000870274
0.000868697
0.000867013
0.000865222
0.000863321
0.000861311
0.00085919
0.000856956
0.000854608
0.000852146
0.00084957
0.000846878
0.00084407
0.000841146
0.000838106
0.000834951
0.000831682
0.000828298
0.000824801
0.000821193
0.000817474
0.000813648
0.000809715
0.000805678
0.000801539
0.000797302
0.000792968
0.000788542
0.000784027
0.000779425
0.00077474
0.000769977
0.000765138
0.000760229
0.000755253
0.000750214
0.000745116
0.000739965
0.0008803
0.000880358
0.000880148
0.000879769
0.000879398
0.000878912
0.000878271
0.000877533
0.000876718
0.000875829
0.000874876
0.000873858
0.000872766
0.000871588
0.000870318
0.000868948
0.000867476
0.000865899
0.000864215
0.000862423
0.000860522
0.000858511
0.000856388
0.000854154
0.000851807
0.000849346
0.000846771
0.000844082
0.000841279
0.000838362
0.00083533
0.000832184
0.000828926
0.000825555
0.000822073
0.000818482
0.000814783
0.000810977
0.000807067
0.000803055
0.000798944
0.000794736
0.000790433
0.00078604
0.00078156
0.000776995
0.000772349
0.000767627
0.000762831
0.000757966
0.000753036
0.000748045
0.000742996
0.000737895
0.000732745
0.000876957
0.00087701
0.000876793
0.00087638
0.000875973
0.000875454
0.000874769
0.000873979
0.000873108
0.000872155
0.000871129
0.00087003
0.000868852
0.000867584