/*--------------------------------*- C++ -*----------------------------------*\
| =========                 |                                                 |
| \\      /  F ield         | OpenFOAM: The Open Source CFD Toolbox           |
|  \\    /   O peration     | Version:  2412                                  |
|   \\  /    A nd           | Website:  www.openfoam.com                      |
|    \\/     M anipulation  |                                                 |
\*---------------------------------------------------------------------------*/
FoamFile
{
    version     2.0;
    format      ascii;
    arch        "LSB;label=32;scalar=64";
    class       surfaceScalarField;
    location    "26";
    object      phi;
}
// * * * * * * * * * * * * * * * * * * * * * * * * * * * * * * * * * * * * * //

dimensions      [0 3 -1 0 0 0 0];

oriented        oriented;

internalField   nonuniform List<scalar> 
10424
(
0.00538963
-0.000512741
-0.00540462
0.00537511
-0.000513509
0.00536112
-0.000513595
-0.000512992
0.00540022
-0.000498053
-0.00541491
0.00538597
-0.000499262
0.00537219
-0.000499819
0.00535892
-0.000499717
0.00534617
-0.00049895
0.00533397
-0.00049752
0.00532235
-0.000495432
0.00531132
-0.000492692
0.0053009
-0.000489313
0.0052911
-0.000485312
0.00528193
-0.00048071
0.00527339
-0.000475534
0.00526549
-0.00046981
0.00525822
-0.000463571
0.00525158
-0.00045685
0.00524556
-0.000449682
0.00524015
-0.000442106
0.00523532
-0.000434156
0.00523107
-0.000425871
0.00522737
-0.000417288
0.00522421
-0.000408442
0.00522155
-0.00039937
0.00521937
-0.000390104
0.00521764
-0.000380679
0.00521634
-0.000371126
0.00521544
-0.000361474
0.00521491
-0.000351752
0.00521473
-0.000341985
0.00521486
-0.0003322
0.00521529
-0.000322418
0.00521598
-0.00031266
0.00521692
-0.000302948
0.00521807
-0.000293299
0.00521943
-0.00028373
0.00522096
-0.00027426
0.00522265
-0.000264906
0.00522448
-0.000255684
0.00522643
-0.000246612
0.00522848
-0.000237704
0.00523062
-0.000228976
0.00523282
-0.000220439
0.00523508
-0.000212102
0.00523738
-0.00020397
-0.000196047
0.00540989
-0.000483693
-0.00542425
0.00539593
-0.000485301
0.0053824
-0.000486287
0.00536933
-0.000486644
0.00535674
-0.000486362
0.00534466
-0.000485442
0.00533312
-0.000483885
0.00532212
-0.000481697
0.00531169
-0.000478886
0.00530185
-0.000475467
0.0052926
-0.000471458
0.00528394
-0.000466881
0.00527589
-0.00046176
0.00526845
-0.000456125
0.0052616
-0.000450004
0.00525535
-0.000443432
0.00524969
-0.00043644
0.00524459
-0.000429063
0.00524006
-0.000421335
0.00523606
-0.000413292
0.00523259
-0.000404967
0.00522961
-0.000396393
0.00522711
-0.000387604
0.00522506
-0.00037863
0.00522344
-0.000369503
0.00522221
-0.000360251
0.00522137
-0.000350904
0.00522087
-0.000341486
0.00522069
-0.000332024
0.00522082
-0.000322541
0.00522121
-0.000313059
0.00522186
-0.000303598
0.00522274
-0.000294178
0.00522383
-0.000284818
0.00522511
-0.000275536
0.00522655
-0.000266349
0.00522814
-0.000257276
0.00522987
-0.000248335
0.0052317
-0.00023954
0.00523363
-0.000230907
0.00523564
-0.000222449
0.00523772
-0.000214174
0.00523984
-0.00020609
-0.000198199
0.00541872
-0.000469675
-0.00543274
0.00540506
-0.000471643
0.0053918
-0.00047302
0.00537895
-0.000473794
0.00536654
-0.000473958
0.00535461
-0.000473507
0.00534316
-0.000472442
0.00533223
-0.000470765
0.00532183
-0.000468483
0.00531197
-0.000465609
0.00530267
-0.000462156
0.00529393
-0.000458144
0.00528577
-0.000453595
0.00527818
-0.000448534
0.00527116
-0.000442987
0.00526471
-0.000436984
0.00525883
-0.000430555
0.0052535
-0.000423732
0.00524871
-0.000416545
0.00524444
-0.000409028
0.00524069
-0.000401212
0.00523742
-0.000393128
0.00523463
-0.000384808
0.00523228
-0.000376281
0.00523035
-0.000367578
0.00522883
-0.000358727
0.00522768
-0.000349755
0.00522688
-0.00034069
0.00522641
-0.000331556
0.00522625
-0.000322377
0.00522637
-0.000313176
0.00522674
-0.000303974
0.00522736
-0.000294792
0.00522819
-0.000285648
0.00522921
-0.000276562
0.00523042
-0.000267553
0.00523178
-0.000258639
0.00523328
-0.000249837
0.00523491
-0.000241165
0.00523664
-0.000232638
0.00523846
-0.000224267
0.00524035
-0.000216065
0.00524229
-0.000208037
-0.000200188
0.00542677
-0.000456009
-0.00544044
0.00541343
-0.000458301
0.00540044
-0.00046003
0.00538783
-0.000461185
0.00537562
-0.000461755
0.00536385
-0.000461735
0.00535253
-0.000461123
0.00534169
-0.00045992
0.00533133
-0.00045813
0.00532149
-0.000455764
0.00531217
-0.000452834
0.00530338
-0.000449354
0.00529513
-0.000445345
0.00528742
-0.000440829
0.00528026
-0.000435828
0.00527365
-0.00043037
0.00526758
-0.000424482
0.00526204
-0.000418192
0.00525702
-0.00041153
0.00525252
-0.000404523
0.00524851
-0.000397204
0.00524498
-0.000389599
0.00524191
-0.00038174
0.00523929
-0.000373655
0.00523708
-0.000365372
0.00523527
-0.00035692
0.00523384
-0.000348325
0.00523277
-0.000339613
0.00523202
-0.00033081
0.00523158
-0.00032194
0.00523143
-0.000313025
0.00523155
-0.000304089
0.00523191
-0.00029515
0.00523249
-0.000286231
0.00523328
-0.00027735
0.00523425
-0.000268526
0.00523539
-0.000259779
0.00523668
-0.000251126
0.0052381
-0.000242585
0.00523963
-0.000234171
0.00524126
-0.000225899
0.00524297
-0.000217778
0.00524475
-0.000209815
-0.000202018
0.0054341
-0.000442698
-0.00544741
0.00542108
-0.00044528
0.00540838
-0.000447328
0.00539602
-0.000448827
0.00538403
-0.000449768
0.00537244
-0.000450142
0.00536126
-0.000449947
0.00535052
-0.000449182
0.00534024
-0.00044785
0.00533044
-0.000445957
0.00532112
-0.000443515
0.0053123
-0.000440536
0.00530399
-0.000437037
0.0052962
-0.000433036
0.00528893
-0.000428556
0.00528217
-0.000423619
0.00527594
-0.000418249
0.00527022
-0.000412472
0.00526501
-0.000406315
0.00526029
-0.000399804
0.00525605
-0.000392967
0.00525228
-0.000385832
0.00524897
-0.000378425
0.00524609
-0.000370775
0.00524362
-0.000362907
0.00524155
-0.00035485
0.00523986
-0.00034663
0.00523852
-0.000338273
0.00523751
-0.000329802
0.00523682
-0.000321244
0.00523641
-0.00031262
0.00523627
-0.000303953
0.00523639
-0.000295265
0.00523673
-0.000286576
0.00523729
-0.000277906
0.00523804
-0.000269275
0.00523896
-0.000260703
0.00524004
-0.000252207
0.00524126
-0.000243805
0.00524261
-0.000235514
0.00524406
-0.000227347
0.00524559
-0.000219316
0.00524721
-0.000211427
-0.000203689
0.00544077
-0.000429744
-0.00545372
0.00542807
-0.000432586
0.00541567
-0.000434919
0.00540357
-0.000436729
0.00539181
-0.000438007
0.00538041
-0.000438742
0.00536939
-0.00043893
0.00535878
-0.000438568
0.00534859
-0.00043766
0.00533884
-0.000436208
0.00532955
-0.000434223
0.00532072
-0.000431713
0.00531238
-0.000428694
0.00530453
-0.000425182
0.00529717
-0.000421195
0.0052903
-0.000416754
0.00528393
-0.00041188
0.00527806
-0.000406596
0.00527267
-0.000400927
0.00526776
-0.000394895
0.00526332
-0.000388528
0.00525934
-0.000381849
0.0052558
-0.000374885
0.00525268
-0.000367661
0.00524998
-0.000360203
0.00524767
-0.000352538
0.00524573
-0.00034469
0.00524414
-0.000336685
0.00524288
-0.000328548
0.00524194
-0.000320303
0.0052413
-0.000311973
0.00524092
-0.00030358
0.0052408
-0.000295146
0.00524092
-0.000286693
0.00524125
-0.000278241
0.00524179
-0.000269809
0.0052425
-0.000261418
0.00524338
-0.000253086
0.00524441
-0.000244831
0.00524557
-0.00023667
0.00524683
-0.000228617
0.0052482
-0.000220683
0.00524965
-0.000212877
-0.000205206
0.00544683
-0.000417147
-0.00545943
0.00543446
-0.000420218
0.00542235
-0.000422807
0.00541052
-0.000424898
0.005399
-0.000426481
0.0053878
-0.000427544
0.00537695
-0.000428083
0.00536648
-0.000428094
0.00535639
-0.000427577
0.00534672
-0.000426536
0.00533748
-0.000424976
0.00532867
-0.000422907
0.00532031
-0.00042034
0.00531242
-0.000417289
0.00530499
-0.00041377
0.00529804
-0.000409801
0.00529156
-0.0004054
0.00528555
-0.000400589
0.00528002
-0.000395388
0.00527494
-0.00038982
0.00527032
-0.000383907
0.00526614
-0.000377672
0.0052624
-0.00037114
0.00525907
-0.000364334
0.00525615
-0.000357279
0.00525361
-0.000349999
0.00525144
-0.000342521
0.00524962
-0.000334867
0.00524814
-0.000327062
0.00524696
-0.000319131
0.00524609
-0.000311096
0.00524549
-0.00030298
0.00524515
-0.000294805
0.00524504
-0.000286592
0.00524517
-0.000278362
0.00524549
-0.000270135
0.00524601
-0.000261931
0.00524669
-0.00025377
0.00524753
-0.000245669
0.0052485
-0.000237645
0.0052496
-0.000229713
0.0052508
-0.000221884
0.00525209
-0.000214168
-0.000206572
0.00545233
-0.000404902
-0.00546458
0.00544029
-0.000408177
0.00542848
-0.000410994
0.00541692
-0.000413338
0.00540563
-0.000415196
0.00539465
-0.000416558
0.00538398
-0.000417418
0.00537366
-0.000417771
0.0053637
-0.000417616
0.00535411
-0.000416955
0.00534493
-0.000415792
0.00533616
-0.000414135
0.00532781
-0.000411992
0.0053199
-0.000409376
0.00531243
-0.000406301
0.00530541
-0.00040278
0.00529884
-0.000398832
0.00529272
-0.000394473
0.00528706
-0.000389722
0.00528184
-0.0003846
0.00527706
-0.000379126
0.00527271
-0.000373322
0.00526878
-0.00036721
0.00526526
-0.000360813
0.00526213
-0.000354152
0.00525938
-0.000347253
0.005257
-0.000340139
0.00525497
-0.000332833
0.00525326
-0.000325359
0.00525188
-0.000317742
0.00525078
-0.000310003
0.00524997
-0.000302165
0.00524941
-0.000294251
0.0052491
-0.000286282
0.00524902
-0.000278278
0.00524915
-0.000270261
0.00524947
-0.00026225
0.00524996
-0.000254265
0.00525062
-0.000246324
0.00525142
-0.000238444
0.00525234
-0.000230639
0.00525338
-0.000222922
0.00525451
-0.000215302
-0.000207789
0.00545731
-0.000393006
-0.00546921
0.0054456
-0.00039646
0.00543408
-0.000399479
0.00542279
-0.000402048
0.00541175
-0.000404155
0.00540098
-0.000405789
0.00539051
-0.000406942
0.00538034
-0.000407608
0.00537052
-0.000407788
0.00536104
-0.000407479
0.00535193
-0.000406686
0.00534321
-0.000405414
0.00533489
-0.00040367
0.00532698
-0.000401464
0.00531948
-0.000398807
0.00531242
-0.000395712
0.00530578
-0.000392194
0.00529957
-0.000388267
0.0052938
-0.000383948
0.00528845
-0.000379255
0.00528353
-0.000374205
0.00527903
-0.000368819
0.00527493
-0.000363115
0.00527124
-0.000357116
0.00526793
-0.000350842
0.00526499
-0.000344316
0.00526241
-0.00033756
0.00526018
-0.000330598
0.00525827
-0.000323453
0.00525668
-0.000316148
0.00525538
-0.000308705
0.00525436
-0.000301147
0.0052536
-0.000293496
0.0052531
-0.000285773
0.00525282
-0.000277999
0.00525275
-0.000270196
0.00525288
-0.000262382
0.0052532
-0.000254579
0.00525367
-0.000246803
0.0052543
-0.000239072
0.00525506
-0.000231401
0.00525594
-0.000223802
0.00525693
-0.000216285
-0.00020886
0.00546181
-0.000381453
-0.00547337
0.00545041
-0.000385063
0.0054392
-0.000388261
0.00542818
-0.000391032
0.00541739
-0.000393362
0.00540684
-0.000395241
0.00539656
-0.000396661
0.00538657
-0.000397616
0.00537688
-0.000398102
0.00536752
-0.00039812
0.00535851
-0.000397671
0.00534985
-0.000396758
0.00534157
-0.000395388
0.00533367
-0.000393567
0.00532617
-0.000391306
0.00531908
-0.000388615
0.00531239
-0.000385506
0.00530611
-0.000381991
0.00530025
-0.000378086
0.0052948
-0.000373804
0.00528976
-0.000369163
0.00528512
-0.00036418
0.00528087
-0.000358873
0.00527702
-0.000353261
0.00527354
-0.000347364
0.00527043
-0.000341203
0.00526767
-0.0003348
0.00526525
-0.000328178
0.00526315
-0.000321358
0.00526137
-0.000314362
0.00525988
-0.000307214
0.00525866
-0.000299936
0.00525772
-0.000292548
0.00525702
-0.000285074
0.00525655
-0.000277533
0.0052563
-0.000269946
0.00525625
-0.000262334
0.00525639
-0.000254716
0.0052567
-0.000247111
0.00525716
-0.000239534
0.00525776
-0.000232002
0.00525849
-0.000224528
0.00525932
-0.00021712
-0.000209789
0.00546587
-0.000370235
-0.00547708
0.00545478
-0.000373981
0.00544386
-0.000377336
0.00543311
-0.000380286
0.00542257
-0.000382817
0.00541225
-0.000384918
0.00540217
-0.000386581
0.00539235
-0.000387799
0.00538282
-0.000388569
0.00537358
-0.000388889
0.00536467
-0.000388758
0.0053561
-0.000388181
0.00534787
-0.00038716
0.00534
-0.000385702
0.00533251
-0.000383814
0.0053254
-0.000381505
0.00531868
-0.000378784
0.00531235
-0.000375662
0.00530642
-0.000372152
0.00530088
-0.000368265
0.00529573
-0.000364017
0.00529097
-0.000359423
0.0052866
-0.000354499
0.0052826
-0.000349263
0.00527897
-0.000343734
0.0052757
-0.00033793
0.00527277
-0.000331873
0.00527018
-0.000325585
0.00526791
-0.000319085
0.00526594
-0.000312397
0.00526427
-0.000305542
0.00526288
-0.000298543
0.00526175
-0.000291419
0.00526087
-0.000284194
0.00526022
-0.000276887
0.0052598
-0.00026952
0.00525958
-0.000262113
0.00525955
-0.000254684
0.00525969
-0.000247253
0.00525999
-0.000239836
0.00526044
-0.000232448
0.00526101
-0.000225103
0.0052617
-0.00021781
-0.000210579
0.00546951
-0.000359345
-0.0054804
0.00545874
-0.000363208
0.0054481
-0.000366701
0.00543762
-0.00036981
0.00542733
-0.00037252
0.00541723
-0.000374822
0.00540736
-0.000376706
0.00539772
-0.000378165
0.00538835
-0.000379195
0.00537925
-0.000379793
0.00537045
-0.000379959
0.00536196
-0.000379694
0.0053538
-0.000379
0.00534598
-0.000377882
0.00533851
-0.000376346
0.00533141
-0.000374397
0.00532467
-0.000372045
0.0053183
-0.000369296
0.00531231
-0.000366163
0.0053067
-0.000362654
0.00530147
-0.000358784
0.00529661
-0.000354564
0.00529212
-0.000350011
0.005288
-0.000345139
0.00528423
-0.000339967
0.00528081
-0.000334512
0.00527773
-0.000328793
0.00527498
-0.000322832
0.00527254
-0.000316649
0.00527041
-0.000310264
0.00526857
-0.0003037
0.005267
-0.000296978
0.0052657
-0.000290118
0.00526465
-0.000283142
0.00526383
-0.000276072
0.00526324
-0.000268926
0.00526285
-0.000261726
0.00526266
-0.00025449
0.00526264
-0.000247236
0.00526279
-0.000239983
0.00526308
-0.000232744
0.00526351
-0.000225532
0.00526406
-0.000218358
-0.000211233
0.00547277
-0.000348775
-0.00548334
0.0054623
-0.000352738
0.00545195
-0.000356351
0.00544174
-0.0003596
0.00543169
-0.000362471
0.00542182
-0.000364953
0.00541215
-0.000367037
0.0054027
-0.000368715
0.00539349
-0.000369984
0.00538454
-0.00037084
0.00537586
-0.00037128
0.00536747
-0.000371306
0.00535939
-0.000370918
0.00535163
-0.000370119
0.0053442
-0.000368914
0.0053371
-0.000367306
0.00533036
-0.000365302
0.00532397
-0.000362908
0.00531794
-0.000360133
0.00531228
-0.000356986
0.00530697
-0.000353477
0.00530202
-0.000349618
0.00529743
-0.000345422
0.0052932
-0.000340903
0.00528931
-0.000336077
0.00528576
-0.000330961
0.00528254
-0.000325573
0.00527964
-0.000319933
0.00527705
-0.00031406
0.00527476
-0.000307975
0.00527276
-0.000301698
0.00527103
-0.000295251
0.00526957
-0.000288654
0.00526836
-0.000281928
0.00526738
-0.000275093
0.00526662
-0.00026817
0.00526607
-0.000261179
0.00526572
-0.000254138
0.00526555
-0.000247066
0.00526555
-0.000239979
0.0052657
-0.000232893
0.00526599
-0.000225819
0.0052664
-0.000218769
-0.000211754
0.00547568
-0.000338516
-0.00548593
0.0054655
-0.000342564
0.00545543
-0.000346281
0.00544549
-0.000349653
0.00543568
-0.000352666
0.00542604
-0.00035531
0.00541658
-0.000357576
0.00540732
-0.000359455
0.00539828
-0.000360943
0.00538947
-0.000362036
0.00538092
-0.000362731
0.00537264
-0.000363027
0.00536465
-0.000362924
0.00535695
-0.000362424
0.00534957
-0.000361529
0.00534251
-0.000360242
0.00533577
-0.000358568
0.00532938
-0.000356511
0.00532332
-0.000354078
0.00531761
-0.000351275
0.00531224
-0.000348113
0.00530723
-0.000344599
0.00530255
-0.000340747
0.00529822
-0.000336568
0.00529422
-0.000332078
0.00529055
-0.000327292
0.0052872
-0.000322226
0.00528417
-0.0003169
0.00528144
-0.000311331
0.005279
-0.00030554
0.00527685
-0.000299548
0.00527497
-0.000293373
0.00527336
-0.000287036
0.00527199
-0.000280559
0.00527085
-0.000273961
0.00526995
-0.000267261
0.00526925
-0.00026048
0.00526874
-0.000253636
0.00526843
-0.000246748
0.00526828
-0.000239831
0.00526828
-0.0002329
0.00526843
-0.000225968
0.00526871
-0.000219046
-0.000212145
0.00547826
-0.000328561
-0.00548821
0.00546837
-0.00033268
0.00545858
-0.000336486
0.00544889
-0.000339965
0.00543933
-0.000343105
0.00542991
-0.000345894
0.00542066
-0.000348324
0.00541159
-0.000350386
0.00540272
-0.000352075
0.00539407
-0.000353386
0.00538566
-0.000354316
0.00537749
-0.000354863
0.0053696
-0.000355027
0.00536198
-0.000354806
0.00535465
-0.000354203
0.00534763
-0.000353218
0.00534092
-0.000351855
0.00533452
-0.000350117
0.00532845
-0.000348008
0.00532271
-0.000345534
0.0053173
-0.000342702
0.00531222
-0.00033952
0.00530747
-0.000335998
0.00530305
-0.000332148
0.00529896
-0.000327982
0.00529518
-0.000323515
0.00529172
-0.000318763
0.00528856
-0.000313743
0.0052857
-0.000308473
0.00528313
-0.000302971
0.00528084
-0.000297258
0.00527882
-0.000291352
0.00527706
-0.000285274
0.00527554
-0.000279044
0.00527427
-0.000272681
0.00527321
-0.000266205
0.00527236
-0.000259635
0.00527172
-0.00025299
0.00527126
-0.000246287
0.00527097
-0.000239542
0.00527084
-0.00023277
0.00527085
-0.000225984
0.005271
-0.000219193
-0.000212411
0.00548054
-0.0003189
-0.0054902
0.00547094
-0.000323077
0.00546141
-0.000326959
0.00545198
-0.000330532
0.00544265
-0.000333784
0.00543346
-0.000336703
0.00542442
-0.000339281
0.00541554
-0.000341509
0.00540685
-0.000343382
0.00539836
-0.000344894
0.00539008
-0.000346041
0.00538204
-0.000346822
0.00537425
-0.000347233
0.00536672
-0.000347274
0.00535946
-0.000346944
0.00535248
-0.000346244
0.0053458
-0.000345174
0.00533942
-0.000343737
0.00533335
-0.000341936
0.00532759
-0.000339775
0.00532214
-0.000337258
0.00531702
-0.000334393
0.00531221
-0.000331188
0.00530771
-0.000327654
0.00530353
-0.000323801
0.00529966
-0.000319644
0.00529609
-0.000315196
0.00529282
-0.000310474
0.00528985
-0.000305495
0.00528715
-0.000300277
0.00528473
-0.000294838
0.00528258
-0.000289198
0.00528068
-0.000283376
0.00527903
-0.000277391
0.00527761
-0.000271262
0.00527641
-0.00026501
0.00527543
-0.000258651
0.00527464
-0.000252205
0.00527405
-0.000245689
0.00527362
-0.000239118
0.00527336
-0.000232508
0.00527325
-0.000225869
0.00527327
-0.000219214
-0.000212553
0.00548254
-0.000309525
-0.00549192
0.00547321
-0.000313749
0.00546395
-0.000317694
0.00545477
-0.000321349
0.00544568
-0.000324699
0.00543671
-0.000327734
0.00542788
-0.000330446
0.00541919
-0.000332825
0.00541068
-0.000334866
0.00540235
-0.000336562
0.00539422
-0.000337911
0.0053863
-0.000338907
0.00537862
-0.000339549
0.00537118
-0.000339834
0.00536399
-0.00033976
0.00535708
-0.000339327
0.00535044
-0.000338534
0.00534408
-0.000337382
0.00533802
-0.000335872
0.00533225
-0.000334007
0.00532678
-0.000331791
0.00532162
-0.000329229
0.00531676
-0.000326328
0.0053122
-0.000323097
0.00530795
-0.000319546
0.00530399
-0.000315688
0.00530033
-0.000311535
0.00529696
-0.000307103
0.00529387
-0.000302408
0.00529106
-0.000297468
0.00528852
-0.000292299
0.00528624
-0.00028692
0.00528422
-0.00028135
0.00528243
-0.000275608
0.00528088
-0.000269712
0.00527956
-0.000263681
0.00527844
-0.000257534
0.00527752
-0.000251288
0.00527679
-0.00024496
0.00527624
-0.000238565
0.00527585
-0.000232117
0.00527561
-0.000225629
0.0052755
-0.000219111
-0.000212574
0.00548429
-0.000300428
-0.00549339
0.00547523
-0.000304688
0.00546622
-0.000308687
0.00545729
-0.000312411
0.00544843
-0.000315847
0.00543969
-0.000318986
0.00543106
-0.000321817
0.00542257
-0.000324334
0.00541423
-0.000326528
0.00540606
-0.000328394
0.00539808
-0.000329928
0.00539029
-0.000331124
0.00538273
-0.00033198
0.00537538
-0.000332492
0.00536828
-0.000332658
0.00536143
-0.000332475
0.00535484
-0.000331942
0.00534852
-0.000331059
0.00534247
-0.000329824
0.0053367
-0.000328241
0.00533122
-0.00032631
0.00532603
-0.000324037
0.00532113
-0.000321427
0.00531652
-0.000318487
0.0053122
-0.000315227
0.00530817
-0.000311657
0.00530443
-0.000307791
0.00530096
-0.000303641
0.00529778
-0.000299222
0.00529486
-0.000294552
0.00529221
-0.000289647
0.00528982
-0.000284525
0.00528767
-0.000279204
0.00528577
-0.000273702
0.00528409
-0.000268036
0.00528264
-0.000262227
0.00528139
-0.00025629
0.00528035
-0.000250244
0.00527949
-0.000244104
0.00527881
-0.000237885
0.0052783
-0.000231602
0.00527794
-0.000225267
0.00527771
-0.000218889
-0.000212479
0.00548581
-0.00549464
-0.0002916
0.00547701
-0.000295888
0.00546825
-0.00029993
0.00545955
-0.000303713
0.00545093
-0.000307225
0.0054424
-0.000310455
0.00543398
-0.000313394
0.00542568
-0.000316034
0.00541752
-0.000318368
0.00540951
-0.00032039
0.00540168
-0.000322095
0.00539403
-0.000323476
0.00538658
-0.000324531
0.00537935
-0.000325255
0.00537233
-0.000325644
0.00536555
-0.000325696
0.00535902
-0.000325407
0.00535273
-0.000324776
0.00534671
-0.000323802
0.00534096
-0.000322485
0.00533547
-0.000320826
0.00533026
-0.000318828
0.00532533
-0.000316496
0.00532068
-0.000313835
0.00531631
-0.000310854
0.00531221
-0.000307562
0.00530839
-0.000303972
0.00530485
-0.000300095
0.00530157
-0.000295946
0.00529856
-0.00029154
0.0052958
-0.000286893
0.0052933
-0.000282023
0.00529104
-0.000276946
0.00528902
-0.00027168
0.00528723
-0.000266243
0.00528565
-0.000260652
0.00528429
-0.000254925
0.00528312
-0.000249078
0.00528215
-0.000243127
0.00528135
-0.000237086
0.00528071
-0.000230968
0.00528023
-0.000224786
0.00527989
-0.00021855
-0.000212271
0.00603358
-0.000470344
0.00600777
-0.000490183
0.00598142
-0.000508521
0.00595462
-0.00052535
0.00592749
-0.00054067
0.00590011
-0.000554481
0.00587259
-0.000566787
0.00584501
-0.000577599
0.00581747
-0.000586935
0.00579005
-0.000594815
0.00576284
-0.000601266
0.00573591
-0.000606321
0.00570934
-0.000610016
0.0056832
-0.000612395
0.00565755
-0.000613503
0.00563246
-0.000613393
0.00560797
-0.000612119
0.00558415
-0.000609741
0.00556102
-0.00060632
0.00553863
-0.000601921
0.00551702
-0.000596609
0.0054962
-0.000590451
0.0054762
-0.000583516
0.00545703
-0.000575869
0.00543871
-0.00056758
0.00542124
-0.000558713
-0.000549332
0.00601626
-0.000446685
0.00599196
-0.000465884
0.00596712
-0.000483676
0.00594182
-0.000500056
0.00591618
-0.000515021
0.00589027
-0.00052857
0.00586418
-0.000540704
0.00583802
-0.000551434
0.00581185
-0.000560772
0.00578578
-0.000568736
0.00575986
-0.000575352
0.00573419
-0.000580646
0.00570882
-0.000584652
0.00568384
-0.000587408
0.00565929
-0.000588957
0.00563524
-0.000589344
0.00561174
-0.000588621
0.00558884
-0.000586841
0.00556658
-0.00058406
0.005545
-0.000580338
0.00552413
-0.000575735
0.00550399
-0.000570312
0.0054846
-0.000564134
0.005466
-0.000557261
0.00544817
-0.000549756
0.00543114
-0.000541681
-0.000533095
0.00599888
-0.000424431
0.00597599
-0.000442999
0.00595257
-0.00046025
0.00592869
-0.000476177
0.00590445
-0.000490779
0.00587993
-0.000504051
0.00585522
-0.000515995
0.0058304
-0.000526618
0.00580556
-0.000535929
0.00578077
-0.000543946
0.00575611
-0.000550689
0.00573164
-0.000556182
0.00570745
-0.000560456
0.00568358
-0.000563543
0.00566011
-0.000565483
0.00563708
-0.000566317
0.00561455
-0.000566091
0.00559256
-0.000564853
0.00557116
-0.000562656
0.00555037
-0.000559554
0.00553024
-0.000555601
0.00551078
-0.000550856
0.00549203
-0.000545376
0.00547398
-0.000539218
0.00545667
-0.000532442
0.00544009
-0.000525102
-0.000517257
0.00598161
-0.000403487
0.00596005
-0.000421437
0.00593795
-0.000438153
0.00591541
-0.00045363
0.00589249
-0.000467863
0.00586929
-0.00048085
0.00584588
-0.000492588
0.00582235
-0.000503084
0.00579877
-0.000512346
0.00577521
-0.000520387
0.00575174
-0.000527225
0.00572844
-0.000532882
0.00570537
-0.000537384
0.00568259
-0.000540761
0.00566015
-0.000543048
0.00563812
-0.000544281
0.00561653
-0.000544503
0.00559543
-0.000543758
0.00557487
-0.000542092
0.00555487
-0.000539556
0.00553547
-0.0005362
0.00551669
-0.000532078
0.00549856
-0.000527241
0.00548108
-0.000521745
0.00546428
-0.000515642
0.00544817
-0.000508985
-0.000501828
0.00596459
-0.000383766
0.00594427
-0.000401111
0.00592342
-0.000417303
0.00590212
-0.000432333
0.00588046
-0.000446197
0.0058585
-0.000458891
0.00583632
-0.000470414
0.00581401
-0.000480767
0.00579162
-0.000489959
0.00576923
-0.000498
0.00574691
-0.000504906
0.00572473
-0.000510696
0.00570273
-0.000515391
0.00568099
-0.00051902
0.00565956
-0.000521613
0.00563848
-0.000523203
0.00561781
-0.000523828
0.00559758
-0.000523529
0.00557783
-0.000522347
0.0055586
-0.000520328
0.00553992
-0.000517518
0.00552181
-0.000513967
0.00550429
-0.000509723
0.00548738
-0.000504837
0.0054711
-0.000499357
0.00545545
-0.000493333
-0.000486815
0.00594792
-0.000365189
0.00592875
-0.000381945
0.00590907
-0.000397622
0.00588895
-0.00041221
0.00586845
-0.000425707
0.00584767
-0.000438105
0.00582666
-0.000449403
0.00580549
-0.000459601
0.00578424
-0.000468707
0.00576297
-0.000476728
0.00574174
-0.000483677
0.00572061
-0.000489571
0.00569965
-0.00049443
0.00567891
-0.000498277
0.00565843
-0.000501139
0.00563828
-0.000503048
0.00561848
-0.000504035
0.00559909
-0.000504138
0.00558014
-0.000503395
0.00556166
-0.000501847
0.00554368
-0.000499538
0.00552622
-0.000496511
0.00550931
-0.000492812
0.00549296
-0.000488488
0.00547719
-0.000483584
0.005462
-0.000478146
-0.000472221
0.00593164
-0.000347681
0.00591356
-0.000363864
0.00589497
-0.000379037
0.00587595
-0.000393192
0.00585657
-0.000406323
0.00583689
-0.000418423
0.00581698
-0.00042949
0.0057969
-0.000439524
0.00577672
-0.000448529
0.0057565
-0.000456511
0.00573631
-0.000463483
0.0057162
-0.000469457
0.00569622
-0.000474451
0.00567643
-0.000478486
0.00565687
-0.000481585
0.0056376
-0.000483776
0.00561865
-0.000485088
0.00560007
-0.000485554
0.00558189
-0.00048521
0.00556413
-0.000484091
0.00554683
-0.000482239
0.00553001
-0.000479693
0.0055137
-0.000476495
0.0054979
-0.000472688
0.00548263
-0.000468315
0.0054679
-0.000463419
-0.000458044
0.00591581
-0.000331173
0.00589874
-0.000346799
0.00588119
-0.000361481
0.00586321
-0.00037521
0.00584486
-0.000387979
0.00582622
-0.000399782
0.00580734
-0.000410614
0.0057883
-0.000420475
0.00576913
-0.000429367
0.00574992
-0.000437296
0.00573071
-0.000444271
0.00571155
-0.000450304
0.00569251
-0.000455409
0.00567363
-0.000459604
0.00565495
-0.00046291
0.00563653
-0.000465351
0.00561839
-0.000466953
0.00560058
-0.000467746
0.00558314
-0.000467762
0.00556608
-0.000467035
0.00554944
-0.000465599
0.00553324
-0.000463493
0.0055175
-0.000460755
0.00550224
-0.000457424
0.00548746
-0.000453542
0.00547319
-0.000449147
-0.000444281
0.00590045
-0.0003156
0.00588434
-0.000330687
0.00586775
-0.000344891
0.00585074
-0.000358202
0.00583337
-0.000370615
0.00581571
-0.00038212
0.00579781
-0.000392715
0.00577973
-0.000402396
0.00576153
-0.000411166
0.00574327
-0.000419029
0.00572499
-0.000425991
0.00570674
-0.000432062
0.00568859
-0.000437256
0.00567057
-0.000441586
0.00565274
-0.000445071
0.00563512
-0.000447733
0.00561776
-0.000449595
0.0056007
-0.000450682
0.00558396
-0.000451024
0.00556757
-0.000450651
0.00555157
-0.000449595
0.00553597
-0.000447892
0.00552079
-0.000445575
0.00550605
-0.000442683
0.00549176
-0.000439252
0.00547793
-0.00043532
-0.000430926
0.00588557
-0.000300902
0.00587035
-0.000315467
0.00585467
-0.000329207
0.00583858
-0.00034211
0.00582213
-0.000354171
0.0058054
-0.000365382
0.00578842
-0.000375737
0.00577126
-0.000385234
0.00575396
-0.000393874
0.00573659
-0.000401658
0.0057192
-0.000408593
0.00570182
-0.000414686
0.00568451
-0.000419947
0.00566732
-0.00042439
0.00565027
-0.000428031
0.00563343
-0.000430886
0.00561681
-0.000432978
0.00560046
-0.000434329
0.0055844
-0.000434965
0.00556866
-0.000434913
0.00555327
-0.000434204
0.00553825
-0.000432868
0.00552361
-0.000430938
0.00550937
-0.000428448
0.00549555
-0.000425433
0.00548216
-0.000421929
-0.000417971
0.00587119
-0.000287024
0.00585681
-0.000301085
0.00584197
-0.000314373
0.00582674
-0.000326878
0.00581116
-0.000338594
0.0057953
-0.000349513
0.00577919
-0.000359628
0.00576289
-0.000368937
0.00574646
-0.000377439
0.00572993
-0.000385136
0.00571337
-0.00039203
0.00569681
-0.000398129
0.00568031
-0.000403441
0.00566389
-0.000407976
0.00564761
-0.000411748
0.0056315
-0.000414773
0.00561559
-0.000417069
0.00559991
-0.000418655
0.00558451
-0.000419556
0.00556939
-0.000419795
0.00555458
-0.0004194
0.00554012
-0.0004184
0.005526
-0.000416823
0.00551226
-0.000414703
0.0054989
-0.000412072
0.00548593
-0.000408962
-0.000405408
0.00585729
-0.000273914
0.0058437
-0.000287487
0.00582966
-0.000300337
0.00581524
-0.000312455
0.00580048
-0.000323833
0.00578543
-0.000334463
0.00577014
-0.000344339
0.00575466
-0.000353457
0.00573903
-0.000361816
0.00572331
-0.000369416
0.00570754
-0.000376259
0.00569176
-0.000382349
0.00567602
-0.000387695
0.00566034
-0.000392304
0.00564478
-0.000396187
0.00562937
-0.000399358
0.00561413
-0.000401833
0.00559911
-0.00040363
0.00558432
-0.000404768
0.00556979
-0.00040527
0.00555555
-0.000405161
0.00554162
-0.000404466
0.00552801
-0.000403213
0.00551474
-0.000401432
0.00550182
-0.000399153
0.00548926
-0.000396408
-0.000393227
0.00584388
-0.000261524
0.00583102
-0.000274626
0.00581773
-0.000287053
0.00580407
-0.000298793
0.00579008
-0.00030984
0.0057758
-0.000320185
0.00576128
-0.000329823
0.00574657
-0.000338748
0.00573172
-0.000346959
0.00571676
-0.000354454
0.00570173
-0.000361235
0.00568669
-0.000367306
0.00567166
-0.00037267
0.0056567
-0.000377335
0.00564182
-0.000381311
0.00562707
-0.000384608
0.00561247
-0.000387239
0.00559807
-0.000389222
0.00558387
-0.000390573
0.00556991
-0.000391311
0.00555621
-0.000391461
0.00554279
-0.000391044
0.00552967
-0.000390087
0.00551685
-0.000388617
0.00550436
-0.000386663
0.00549221
-0.000384253
-0.000381419
0.00583093
-0.000249809
0.00581877
-0.000262458
0.00580619
-0.000274473
0.00579324
-0.000285846
0.00577997
-0.00029657
0.00576642
-0.000306635
0.00575263
-0.000316036
0.00573865
-0.000324767
0.00572452
-0.000332826
0.00571028
-0.00034021
0.00569596
-0.000346921
0.00568161
-0.000352959
0.00566727
-0.000358328
0.00565297
-0.000363035
0.00563875
-0.000367085
0.00562463
-0.000370488
0.00561064
-0.000373256
0.00559682
-0.000375403
0.00558319
-0.000376943
0.00556978
-0.000377894
0.00555659
-0.000378277
0.00554366
-0.000378114
0.005531
-0.000377427
0.00551863
-0.000376242
0.00550655
-0.000374586
0.00549479
-0.000372487
-0.000369972
0.00581845
-0.000238729
0.00580693
-0.00025094
0.00579501
-0.000262558
0.00578274
-0.000273574
0.00577015
-0.000283981
0.00575729
-0.000293771
0.00574419
-0.000302937
0.0057309
-0.000311474
0.00571745
-0.000319377
0.00570388
-0.000326645