/*--------------------------------*- C++ -*----------------------------------*\
| =========                 |                                                 |
| \\      /  F ield         | OpenFOAM: The Open Source CFD Toolbox           |
|  \\    /   O peration     | Version:  2412                                  |
|   \\  /    A nd           | Website:  www.openfoam.com                      |
|    \\/     M anipulation  |                                                 |
\*---------------------------------------------------------------------------*/
FoamFile
{
    version     2.0;
    format      ascii;
    arch        "LSB;label=32;scalar=64";
    class       volScalarField;
    location    "30";
    object      error;
}
// * * * * * * * * * * * * * * * * * * * * * * * * * * * * * * * * * * * * * //

dimensions      [0 0 0 0 0 0 0];

internalField   nonuniform List<scalar> 
5285
(
0.0298722
0.0306538
0.0314624
0.0322987
0.0331632
0.0340565
0.0349791
0.0359318
0.0369152
0.0379301
0.0389771
0.040057
0.0411706
0.0423186
0.0435016
0.0447202
0.0297123
0.0304778
0.0312698
0.0320887
0.0329349
0.033809
0.0347115
0.0356431
0.0366044
0.0375959
0.0386184
0.0396725
0.0407589
0.0418783
0.0430312
0.0442181
0.0295474
0.0302974
0.031073
0.0318749
0.0327032
0.0335586
0.0344415
0.0353525
0.0362921
0.0372609
0.0382594
0.0392884
0.0403483
0.0414398
0.0425634
0.0437194
0.0293777
0.0301124
0.0308722
0.0316573
0.0324683
0.0333055
0.0341692
0.0350601
0.0359786
0.0369252
0.0379004
0.0389049
0.039939
0.0410034
0.0420985
0.0432246
0.0292032
0.0299231
0.0306673
0.0314363
0.0322303
0.0330497
0.0338948
0.0347661
0.035664
0.036589
0.0375416
0.0385222
0.0395313
0.0405693
0.0416367
0.0427337
0.029024
0.0297295
0.0304587
0.031212
0.0319895
0.0327916
0.0336185
0.0344708
0.0353487
0.0362527
0.0371832
0.0381406
0.0391253
0.0401378
0.0411782
0.042247
0.0288404
0.0295319
0.0302465
0.0309845
0.031746
0.0325312
0.0333406
0.0341743
0.0350328
0.0359163
0.0368254
0.0377602
0.0387213
0.0397089
0.0407234
0.0417648
0.0286524
0.0293304
0.0300309
0.030754
0.0315
0.032269
0.0330612
0.033877
0.0347165
0.0355803
0.0364685
0.0373815
0.0383196
0.0392831
0.0402723
0.0412872
0.0284604
0.0291254
0.0298121
0.0305209
0.0312518
0.032005
0.0327806
0.033579
0.0344002
0.0352447
0.0361127
0.0370045
0.0379204
0.0388605
0.0398252
0.0408144
0.0282647
0.028917
0.0295905
0.0302855
0.0310018
0.0317397
0.0324992
0.0332806
0.0340841
0.03491
0.0357584
0.0366296
0.0375239
0.0384414
0.0393823
0.0403467
0.0280654
0.0287056
0.0293664
0.0300479
0.0307502
0.0314732
0.0322172
0.0329822
0.0337686
0.0345763
0.0354057
0.036257
0.0371304
0.038026
0.038944
0.0398842
0.0278631
0.0284915
0.02914
0.0298086
0.0304973
0.031206
0.0319349
0.0326841
0.0334538
0.034244
0.0350551
0.0358871
0.0367402
0.0376146
0.0385103
0.0394273
0.027658
0.0282752
0.0289119
0.029568
0.0302435
0.0309384
0.0316527
0.0323866
0.0331401
0.0339135
0.0347067
0.03552
0.0363536
0.0372074
0.0380816
0.0389761
0.0274505
0.0280569
0.0286822
0.0293263
0.0299892
0.0306707
0.031371
0.0320901
0.032828
0.0335849
0.034361
0.0351562
0.0359708
0.0368048
0.0376581
0.0385308
0.0272412
0.0278373
0.0284516
0.0290841
0.0297347
0.0304034
0.0310901
0.0317948
0.0325177
0.0332588
0.0340181
0.0347959
0.0355921
0.0364069
0.0372402
0.0380918
0.0270306
0.0276166
0.0282204
0.0288418
0.0294806
0.0301369
0.0308104
0.0315013
0.0322096
0.0329354
0.0336786
0.0344395
0.035218
0.0360141
0.0368279
0.0376592
0.026819
0.0273955
0.0279892
0.0285998
0.0292273
0.0298715
0.0305324
0.0312099
0.0319041
0.0326151
0.0333427
0.0340872
0.0348486
0.0356268
0.0364218
0.0372334
0.0266071
0.0271744
0.0277583
0.0283587
0.0289752
0.0296078
0.0302564
0.030921
0.0316016
0.0322982
0.0330108
0.0337395
0.0344842
0.0352451
0.0360219
0.0368145
0.0263955
0.0269539
0.0275285
0.0281188
0.0287248
0.0293462
0.029983
0.0306351
0.0313025
0.0319852
0.0326832
0.0333966
0.0341253
0.0348694
0.0356286
0.0364029
0.0261846
0.0267345
0.0273
0.0278808
0.0284765
0.0290871
0.0297124
0.0303525
0.0310071
0.0316764
0.0323604
0.0330589
0.0337721
0.0344999
0.0352422
0.0359987
0.00363732
0.0035532
0.00350685
0.00349767
0.0035227
0.0035795
0.0036663
0.00378158
0.00392414
0.0036203
0.00352718
0.00347538
0.0034643
0.00349083
0.00355224
0.00364628
0.0037709
0.0039244
0.00410602
0.00431751
0.00456493
0.00486
0.00521981
0.00566425
0.00621148
0.00687262
0.00764751
0.00852289
0.00947362
0.0104662
0.0114636
0.0124304
0.0133365
0.0141602
0.0148893
0.0155209
0.0160599
0.0165173
0.016908
0.0172485
0.0175558
0.0178452
0.0181302
0.0184221
0.0187292
0.0190579
0.0194123
0.0197947
0.0202063
0.0206471
0.0211163
0.0216128
0.0221351
0.0226815
0.0232503
0.0238399
0.0244486
0.025075
0.0257176
0.0263752
0.0270466
0.0277307
0.0284264
0.029133
0.00360303
0.00350082
0.00344348
0.0034304
0.00345838
0.00352434
0.00362557
0.00375947
0.00392374
0.00411717
0.00434114
0.00460162
0.00491045
0.00528504
0.00574566
0.00631078
0.00699167
0.007788
0.00868601
0.00965974
0.0106746
0.0116926
0.012677
0.013597
0.0144302
0.0151642
0.0157959
0.0163306
0.0167797
0.0171588
0.017485
0.0177758
0.0180473
0.0183136
0.0185863
0.0188742
0.019184
0.0195198
0.0198843
0.0202786
0.0207027
0.0211559
0.0216369
0.0221442
0.022676
0.0232306
0.0238062
0.0244011
0.0250138
0.0256427
0.0262866
0.0269441
0.0276143
0.0282959
0.0289882
0.00358552
0.00347416
0.00341116
0.00339599
0.00342535
0.00349582
0.00360419
0.00374726
0.00392215
0.00412713
0.00436329
0.00463649
0.00495873
0.00534776
0.00582427
0.00640708
0.00710759
0.00792531
0.00884594
0.00984266
0.0108799
0.0119182
0.0129201
0.0138536
0.0146959
0.0154341
0.0160654
0.0165951
0.0170354
0.0174021
0.0177134
0.0179872
0.0182404
0.0184876
0.0187408
0.0190094
0.0193001
0.0196174
0.019964
0.0203411
0.0207487
0.0211861
0.0216519
0.0221444
0.022662
0.0232026
0.0237646
0.024346
0.0249453
0.0255609
0.0261913
0.0268354
0.0274919
0.0281598
0.028838
0.00356779
0.00344721
0.00337845
0.0033611
0.00339176
0.00346669
0.00358212
0.00373425
0.00391958
0.00413588
0.00438392
0.00466948
0.00500478
0.00540791
0.00590003
0.00650034
0.00722038
0.00805944
0.00900271
0.0100224
0.0110819
0.0121405
0.0131596
0.0141063
0.0149572
0.0156992
0.0163293
0.0168534
0.017284
0.0176378
0.0179334
0.0181897
0.0184242
0.0186519
0.0188854
0.0191343
0.0194059
0.0197047
0.0200335
0.0203935
0.0207848
0.0212066
0.0216574
0.0221355
0.0226391
0.0231662
0.0237148
0.0242831
0.0248694
0.0254719
0.0260894
0.0267203
0.0273636
0.028018
0.0286826
0.00354985
0.00342
0.00334539
0.00332575
0.00335765
0.00343696
0.00355938
0.00372043
0.00391601
0.00414337
0.00440297
0.00470055
0.00504854
0.00546547
0.00597295
0.00659058
0.00733005
0.00819047
0.0091564
0.0101992
0.0112808
0.0123597
0.0133957
0.0143552
0.0152142
0.0159592
0.0165875
0.0171052
0.0175254
0.0178655
0.0181449
0.0183831
0.0185982
0.018806
0.0190195
0.0192487
0.019501
0.0197813
0.0200924
0.0204355
0.0208107
0.0212171
0.0216533
0.0221174
0.0226074
0.0231212
0.0236569
0.0242124
0.024786
0.0253759
0.0259807
0.0265989
0.0272293
0.0278707
0.028522
0.00353172
0.00339255
0.003312
0.00328998
0.00332302
0.00340664
0.00353595
0.0037058
0.00391142
0.00414957
0.0044204
0.00472965
0.00508999
0.00552039
0.00604299
0.00667778
0.00743663
0.0083184
0.00930704
0.0103729
0.0114768
0.0125756
0.0136284
0.0146003
0.0154668
0.0162143
0.01684
0.0173505
0.0177595
0.0180851
0.0183474
0.0185669
0.0187621
0.0189496
0.0191428
0.0193521
0.0195852
0.0198469
0.0201404
0.0204668
0.0208262
0.0212176
0.0216394
0.0220898
0.0225665
0.0230675
0.0235907
0.0241338
0.0246952
0.0252729
0.0258654
0.0264713
0.0270892
0.0277179
0.0283563
0.0035134
0.0033649
0.00327831
0.00325381
0.0032879
0.00337575
0.00351184
0.00369032
0.00390578
0.00415443
0.00443616
0.00475673
0.00512907
0.00557264
0.00611013
0.00676196
0.00754013
0.00844329
0.0094547
0.0105437
0.0116697
0.0127885
0.0138576
0.0148416
0.0157151
0.0164642
0.0170865
0.017589
0.017986
0.0182963
0.0185409
0.0187409
0.0189158
0.0190826
0.0192552
0.0194444
0.0196581
0.0199014
0.0201774
0.0204873
0.0208311
0.0212077
0.0216156
0.0220526
0.0225166
0.0230052
0.0235162
0.0240474
0.0245969
0.0251629
0.0257436
0.0263375
0.0269433
0.0275598
0.0281858
0.00349491
0.00333707
0.00324435
0.00321726
0.00325231
0.00334429
0.00348705
0.00367401
0.00389906
0.00415793
0.00445023
0.00478175
0.00516575
0.00562221
0.00617437
0.00684311
0.00764058
0.00856517
0.00959942
0.0107115
0.0118598
0.0129983
0.0140835
0.015079
0.0159588
0.016709
0.0173271
0.0178207
0.0182047
0.0184988
0.018725
0.0189049
0.0190589
0.0192046
0.0193563
0.0195253
0.0197195
0.0199445
0.0202031
0.0204968
0.0208253
0.0211876
0.0215819
0.022006
0.0224575
0.0229342
0.0234335
0.0239533
0.0244914
0.025046
0.0256153
0.0261978
0.0267919
0.0273966
0.0280105
0.00347627
0.00330907
0.00321016
0.00318037
0.00321627
0.00331229
0.00346158
0.00365684
0.00389125
0.00416003
0.00446257
0.00480469
0.00520002
0.00566907
0.0062357
0.00692124
0.00773799
0.00868406
0.00974123
0.0108765
0.0120469
0.013205
0.014306
0.0153126
0.0161981
0.0169484
0.0175615
0.0180452
0.0184154
0.0186926
0.0188995
0.0190587
0.0191913
0.0193154
0.019446
0.0195946
0.0197694
0.0199761
0.0202176
0.0204952
0.0208088
0.0211571
0.0215382
0.0219498
0.0223895
0.0228546
0.0233427
0.0238515
0.0243787
0.0249224
0.0254808
0.0260522
0.0266352
0.0272284
0.0278308
0.00345748
0.00328094
0.00317575
0.00314316
0.00317981
0.00327974
0.00343544
0.0036388
0.00388233
0.00416073
0.00447315
0.00482552
0.00523184
0.00571321
0.00629411
0.00699635
0.00783238
0.00879997
0.00988013
0.0110387
0.012231
0.0134086
0.014525
0.0155421
0.0164326
0.0171824
0.0177895
0.0182625
0.018618
0.0188774
0.0190642
0.0192021
0.0193127
0.0194149
0.0195241
0.0196522
0.0198076
0.0199961
0.0202207
0.0204827
0.0207817
0.0211163
0.0214847
0.0218843
0.0223125
0.0227666
0.023244
0.0237423
0.0242591
0.0247924
0.0253403
0.0259011
0.0264734
0.0270556
0.0276468
0.00343857
0.0032527
0.00314116
0.00310566
0.00314295
0.00324668
0.00340863
0.0036199
0.00387228
0.00415998
0.00448194
0.00484421
0.00526119
0.00575461
0.00634959
0.00706843
0.00792372
0.0089129
0.0100161
0.0111979
0.0124122
0.0136089
0.0147405
0.0157675
0.0166624
0.0174107
0.018011
0.0184724
0.0188123
0.019053
0.0192191
0.0193349
0.0194231
0.019503
0.0195906
0.0196981
0.0198342
0.0200047
0.0202126
0.0204592
0.020744
0.0210655
0.0214216
0.0218097
0.0222269
0.0226705
0.0231377
0.023626
0.0241329
0.0246562
0.0251941
0.0257448
0.0263067
0.0268785
0.0274589
0.00341954
0.00322438
0.00310643
0.0030679
0.0031057
0.0032131
0.00338115
0.00360013
0.0038611
0.00415778
0.00448894
0.00486075
0.00528807
0.00579326
0.00640213
0.00713748
0.00801202
0.00902281
0.0101491
0.0113541
0.0125903
0.013806
0.0149522
0.0159886
0.0168871
0.0176333
0.0182259
0.0186747
0.0189981
0.0192193
0.0193638
0.0194571
0.0195223
0.0195797
0.0196455
0.0197324
0.0198492
0.0200019
0.0201934
0.020425
0.020696
0.0210048
0.0213491
0.0217262
0.022133
0.0225666
0.0230241
0.0235028
0.0240003
0.0245142
0.0250426
0.0255836
0.0261357
0.0266974
0.0272674
0.0034004
0.003196
0.00307157
0.00302991
0.00306809
0.00317902
0.00335301
0.00357948
0.00384876
0.00415411
0.00449411
0.00487511
0.00531244
0.00582915
0.00645172
0.00720347
0.00809722
0.00912964
0.010279
0.0115073
0.0127652
0.0139995
0.01516
0.0162052
0.0171067
0.0178498
0.0184338
0.0188692
0.0191752
0.0193761
0.0194985
0.0195686
0.0196105
0.019645
0.0196889
0.0197552
0.0198529
0.0199879
0.0201634
0.0203803
0.020638
0.0209346
0.0212677
0.0216342
0.0220311
0.0224552
0.0229036
0.0233733
0.0238618
0.0243667
0.024886
0.0254179
0.0259605
0.0265126
0.0270728
0.00338117
0.00316758
0.00303662
0.00299171
0.00303014
0.00314447
0.00332422
0.00355795
0.00383527
0.00414896
0.00449745
0.00488729
0.00533431
0.00586225
0.00649832
0.00726636
0.00817929
0.00923332
0.0104058
0.0116572
0.0129367
0.0141894
0.0153636
0.0164171
0.0173207
0.0180601
0.0186346
0.0190558
0.0193436
0.0195235
0.0196231
0.0196695
0.0196877
0.0196991
0.0197211
0.0197668
0.0198455
0.0199632
0.020123
0.0203257
0.0205705
0.0208554
0.0211777
0.0215342
0.0219217
0.0223369
0.0227766
0.0232378
0.0237178
0.0242143
0.024725
0.0252481
0.0257818
0.0263247
0.0268754
0.00336186
0.00313915
0.0030016
0.00295333
0.00299188
0.00310945
0.00329477
0.00353553
0.00382061
0.00414231
0.00449894
0.00489727
0.00535366
0.00589256
0.00654193
0.00732611
0.00825812
0.00933373
0.0105292
0.0118037
0.0131045
0.0143752
0.0155627
0.0166239
0.017529
0.0182638
0.0188281
0.0192342
0.0195031
0.0196613
0.0197375
0.0197599
0.0197541
0.0197423
0.0197423
0.0197675
0.0198275
0.0199282
0.0200727
0.0202616
0.0204939
0.0207676
0.0210797
0.0214268
0.0218054
0.0222122
0.0226437
0.0230969
0.023569
0.0240574
0.02456
0.0250748
0.0255999
0.026134
0.0266757
0.00334249
0.00311072
0.00296655
0.0029148
0.00295333
0.00307398
0.00326469
0.00351224
0.00380478
0.00413417
0.00449859
0.00490505
0.00537047
0.00592005
0.00658249
0.00738265
0.00833364
0.00943071
0.0106491
0.0119464
0.0132683
0.0145567
0.015757
0.0168253
0.0177313
0.0184607
0.0190141
0.0194044
0.0196537
0.0197897
0.019842
0.01984
0.01981
0.0197749
0.019753
0.0197579
0.0197994
0.0198835
0.020013
0.0201886
0.020409
0.020672
0.0209744
0.0213125
0.0216829
0.0220817
0.0225055
0.0229512
0.0234158
0.0238967
0.0243916
0.0248984
0.0254155
0.0259412
0.0264743
0.00332305
0.00308233
0.0029315
0.00287615
0.00291451
0.00303807
0.00323396
0.00348806
0.00378778
0.00412451
0.00449637
0.00491062
0.00538475
0.00594471
0.00661997
0.00743591
0.00840571
0.00952409
0.0107652
0.0120851
0.0134278
0.0147334
0.0159461
0.0170208
0.017927
0.0186505
0.0191922
0.0195661
0.0197953
0.0199085
0.0199367
0.01991
0.0198558
0.0197974
0.0197536
0.0197386
0.0197619
0.0198297
0.0199447
0.0201074
0.0203165
0.0205693
0.0208625
0.0211922
0.0215547
0.0219461
0.0223628
0.0228014
0.0232589
0.0237327
0.0242203
0.0247197
0.025229
0.0257468
0.0262715
0.00330358
0.003054
0.00289647
0.00283741
0.00287544
0.00300175
0.00320262
0.00346301
0.0037696
0.00411335
0.0044923
0.00491398
0.00539647
0.00596651
0.00665431
0.0074858
0.00847418
0.00961366
0.0108773
0.0122195
0.0135826
0.014905
0.0161295
0.0172102
0.018116
0.0188328
0.0193623
0.0197193
0.0199279
0.0200181
0.0200219
0.0199704
0.0198919
0.0198104
0.019745
0.0197101
0.0197157
0.0197676
0.0198686
0.020019
0.0202172
0.0204603
0.0207448
0.0210667
0.0214218
0.0218063
0.0222162
0.0226482
0.0230991
0.0235661
0.0240469
0.0245392
0.0250412
0.0255513
0.0260681
0.00328407
0.00302575
0.0028615
0.0027986
0.00283615
0.00296502
0.00317066
0.00343709
0.00375024
0.00410068
0.00448636
0.00491513
0.00540564
0.00598542
0.00668547
0.0075322
0.00853888
0.00969915
0.0109849
0.0123491
0.0137321
0.0150709
0.0163068
0.0173928
0.0182977
0.0190074
0.0195243
0.0198639
0.0200516
0.0201186
0.0200978
0.0200216
0.0199189
0.0198144
0.0197277
0.0196735
0.0196617
0.0196982
0.0197857
0.0199242
0.020112
0.020346
0.0206223
0.0209367
0.021285
0.021663
0.0220666
0.0224924
0.0229371
0.0233977
0.0238719
0.0243575
0.0248525
0.0253553
0.0258646
0.00326453
0.0029976
0.0028266
0.00275976
0.00279666
0.0029279
0.00313809
0.0034103
0.00372972
0.00408651
0.00447857
0.00491406
0.00541224
0.00600142
0.00671337
0.007575
0.00859963
0.00978031
0.0110878
0.0124735
0.013876
0.0152306
0.0164773
0.0175682
0.0184717
0.019174
0.0196778
0.0199998
0.0201665
0.0202101
0.020165
0.0200641
0.0199375
0.0198103
0.0197027
0.0196295
0.0196008
0.0196224
0.0196969
0.0198241
0.020002
0.0202273
0.0204959
0.0208034
0.0211452
0.0215171
0.0219148
0.0223347
0.0227735
0.0232282
0.0236962
0.0241753
0.0246636
0.0251595
0.0256615
0.00324539
0.00297014
0.00279253
0.00272171
0.00275781
0.00289118
0.0031056
0.0033832
0.00370846
0.00407114
0.00446912
0.00491084
0.00541617
0.00601419
0.00673741
0.00761325
0.00865502
0.00985523
0.0111835
0.0125897
0.0140108
0.0153804
0.0166372
0.0177324
0.0186342
0.0193288
0.0198197
0.0201244
0.0202705
0.0202914
0.0202224
0.0200978
0.019948
0.0197991
0.0196715
0.0195802
0.0195354
0.019543
0.0196052
0.0197218
0.0198905
0.0201078
0.0203692
0.0206703
0.0210062
0.0213724
0.0217647
0.0221792
0.0226126
0.0230617
0.0235239
0.023997
0.024479
0.0249683
0.0254635
0.00322646
0.00294313
0.00275897
0.0026841
0.00271926
0.00285456
0.00307295
0.00335563
0.00368638
0.00405458
0.00445808
0.00490562
0.00541768
0.00602408
0.00675805
0.0076475
0.00870574
0.00992475
0.011273
0.0126989
0.0141379
0.0155217
0.016788
0.0178871
0.0187869
0.0194738
0.0199519
0.0202396
0.0203655
0.0203642
0.0202721
0.0201242
0.0199521
0.0197822
0.0196353
0.0195267
0.0194665
0.0194607
0.0195113
0.0196179
0.0197779
0.0199876
0.0202425
0.0205375
0.0208679
0.0212289
0.0216161
0.0220255
0.0224537
0.0228975
0.0233543
0.0238217
0.0242977
0.0247808
0.0252694
0.00320715
0.00291574
0.00272489
0.00264579
0.00267981
0.00281687
0.00303908
0.00332669
0.00366274
0.00403625
0.00444504
0.00489818
0.00541672
0.00603125
0.00677574
0.00767856
0.00875303
0.00999057
0.0113586
0.0128039
0.0142603
0.0156582
0.0169337
0.0180365
0.018934
0.019613
0.0200781
0.0203486
0.0204543
0.0204308
0.0203156
0.0201448
0.0199504
0.0197597
0.0195937
0.019468
0.0193928
0.0193738
0.0194131
0.01951
0.0196616
0.019864
0.0201124
0.0204017
0.0207267
0.0210826
0.0214648
0.0218693
0.0222925
0.0227311
0.0231825
0.0236443
0.0241145
0.0245913
0.0250735
0.00318749
0.00288798
0.00269033
0.00260679
0.00263947
0.00277812
0.00300398
0.00329632
0.00363747
0.00401606
0.0044299
0.00488838
0.00541314
0.00603552
0.00679022
0.00770606
0.00879641
0.0100521
0.0114394
0.0129038
0.0143773
0.0157888
0.0170733
0.0181795
0.0190747
0.0197457
0.0201978
0.0204512
0.0205368
0.0204913
0.0203532
0.0201596
0.0199434
0.0197322
0.0195475
0.0194051
0.0193151
0.0192834
0.0193116
0.019399
0.0195425
0.0197379
0.0199801
0.0202637
0.0205835
0.0209344
0.0213118
0.0217115
0.0221297
0.0225633
0.0230093
0.0234656
0.0239299
0.0244007
0.0248764
0.00316745
0.00285988
0.00265531
0.00256712
0.00259824
0.00273828
0.00296761
0.00326449
0.00361051
0.00399394
0.00441257
0.00487611
0.00540678
0.00603667
0.00680118
0.00772963
0.00883535
0.0101086
0.0115148
0.0129977
0.0144878
0.0159125
0.0172056
0.0183151
0.0192078
0.0198709
0.0203102
0.0205468
0.0206127
0.0205456
0.0203852
0.0201693
0.0199317
0.0197004
0.0194975
0.0193388
0.0192346
0.0191904
0.019208
0.0192862
0.0194218
0.0196103
0.0198464
0.0201246
0.0204393
0.0207853
0.021158
0.0215528
0.0219662
0.0223946
0.0228354
0.0232861
0.0237447
0.0242094
0.0246787
0.00314706
0.00283146
0.00261986
0.00252681
0.00255612
0.00269734
0.00292993
0.00323113
0.00358178
0.00396979
0.00439294
0.00486123
0.00539747
0.00603447
0.00680834
0.00774883
0.00886931
0.0101595
0.0115838
0.0130845
0.0145906
0.0160281
0.0173296
0.0184421
0.0193325
0.0199879
0.0204147
0.020635
0.0206817
0.0205937
0.0204116
0.0201742
0.0199159
0.0196653
0.0194448
0.0192703
0.0191523
0.0190961
0.0191034
0.0191727
0.0193007
0.0194825
0.0197127
0.0199854
0.0202951
0.0206363
0.0210042
0.0213943
0.0218027
0.0222261
0.0226616
0.0231068
0.0235595
0.0240181
0.0244812
0.00312631
0.00280274
0.00258401
0.00248587
0.00251313
0.00265528
0.00289091
0.00319619
0.00355122
0.00394354
0.0043709
0.00484361
0.00538505
0.00602871
0.00681138
0.00776325
0.00889771
0.010204
0.0116455
0.0131632
0.0146847
0.0161344
0.0174438
0.0185594
0.0194475
0.0200956
0.0205106
0.0207154
0.0207438
0.0206357
0.0204329
0.0201748
0.0198967
0.0196276
0.0193902
0.0192007
0.0190694
0.0190017
0.018999
0.0190598
0.0191803
0.0193556
0.0195799
0.0198473
0.020152
0.0204884
0.0208514
0.0212367
0.0216402
0.0220585
0.0224886
0.0229282
0.0233751
0.0238276
0.0242843
0.00310522
0.00277377
0.00254781
0.00244436
0.00246928
0.00261211
0.00285052
0.00315963
0.00351876
0.00391509
0.00434635
0.00482314
0.00536935
0.00601915
0.00680998
0.00777244
0.00891996
0.0102414
0.011699
0.0132327
0.0147687
0.01623
0.0175471
0.0186656
0.0195518
0.0201931
0.0205971
0.0207873
0.0207985
0.0206716
0.0204492
0.0201717
0.0198748
0.0195883
0.0193349
0.0191311
0.0189872
0.0189085
0.0188963
0.0189487
0.019062
0.0192309
0.0194494
0.0197115
0.0200111
0.0203426
0.0207008
0.0210811
0.0214795
0.0218926
0.0223173
0.0227513
0.0231923
0.0236386
0.0240888
0.00308378
0.00274456
0.00251129
0.00240229
0.00242459
0.00256781
0.00280873
0.00312139
0.00348433
0.00388435
0.00431918
0.00479967
0.00535019
0.00600556
0.00680381
0.00777595
0.00893546
0.0102707
0.0117433
0.0132919
0.0148414
0.0163136
0.0176379
0.0187595
0.0196441
0.0202794
0.0206733
0.0208502
0.0208455
0.0207013
0.0204608
0.0201652
0.0198509
0.019548
0.0192797
0.0190625
0.0189067
0.0188176
0.0187963
0.0188408
0.018947
0.0191096
0.0193224
0.019579
0.0198735
0.0201999
0.0205531
0.0209284
0.0213216
0.0217293
0.0221485
0.0225766
0.0230116
0.0234517
0.0238954
0.003062
0.00271514
0.0024745
0.00235971
0.00237908
0.00252237
0.00276552
0.00308142
0.00344785
0.00385124
0.00428928
0.00477307
0.00532742
0.00598771
0.00679255
0.00777334
0.0089436
0.0102914
0.0117775
0.0133396
0.0149015
0.0163839
0.0177151
0.0188397
0.0197232
0.0203533
0.0207384
0.0209033
0.0208845
0.0207246
0.0204677
0.0201557
0.0198255
0.0195076
0.0192256
0.018996
0.0188291
0.0187302
0.0187002
0.0187371
0.0188365
0.0189928
0.0191998
0.019451
0.0197401
0.0200614
0.0204094
0.0207794
0.0211672
0.0215694
0.0219828
0.022405
0.0228338
0.0232675
0.0237046
0.0030399
0.00268557
0.00243749
0.00231668
0.00233276
0.00247581
0.00272084
0.00303967
0.00340926
0.00381568
0.00425656
0.00474321
0.00530085
0.00596538
0.00677589
0.00776417
0.00894379
0.0103026
0.0118006
0.0133748
0.0149479
0.0164394
0.0177771
0.0189048
0.0197878
0.0204137
0.0207913
0.020946
0.0209148
0.0207412
0.0204698
0.0201432
0.0197989
0.0194676
0.0191732
0.0189323
0.0187552
0.0186472
0.0186091
0.0186386
0.0187313
0.0188815
0.0190826
0.0193283
0.019612
0.0199278
0.0202704
0.0206349
0.0210171
0.0214135
0.021821
0.0222371
0.0226596
0.0230867
0.023517
0.00301748
0.00265586
0.00240032
0.00227324
0.00228569
0.00242811
0.00267469
0.00299609
0.00336849
0.00377756
0.0042209
0.00470997
0.00527033
0.00593834
0.00675353
0.00774802
0.0089355
0.0103036
0.0118118
0.0133964
0.0149792
0.016479
0.0178226
0.0189535
0.0198364
0.0204593
0.020831
0.0209773
0.0209358
0.0207506
0.0204669
0.0201278
0.0197713
0.0194283
0.019123
0.018872
0.0186858
0.0185695
0.0185237
0.0185463
0.0186324
0.0187765
0.0189717
0.0192117
0.0194898
0.0198
0.0201369
0.0204956
0.020872
0.0212624
0.0216637
0.0220734
0.0224893
0.0229098
0.0233332
0.00299476
0.00262608
0.00236305
0.00222945
0.00223788
0.00237929
0.00262704
0.00295064
0.00332546
0.00373682
0.0041822
0.00467321
0.0052357
0.00590638
0.00672518
0.00772452
0.00891819
0.0102937
0.0118102
0.0134035
0.0149944
0.0165013
0.0178503
0.0189843
0.0198679
0.0204889
0.0208563
0.0209962
0.0209466
0.0207521
0.0204585
0.0201092
0.0197425
0.0193897
0.0190751
0.0188154
0.0186212
0.0184973
0.0184446
0.0184605
0.0185404
0.0186784
0.0188677
0.0191018
0.0193741
0.0196784
0.0200094
0.0203621
0.0207323
0.0211164
0.0215113
0.0219144
0.0223236
0.0227371
0.0231535
0.00297173
0.00259625
0.00232576
0.00218538
0.0021894
0.00232936
0.00257786
0.00290327
0.00328013
0.00369336
0.00414036
0.00463282
0.00519681
0.00586932
0.0066906
0.00769331
0.00889141
0.0102723
0.0117951
0.013395
0.0149925
0.0165052
0.0178589
0.018996
0.0198808
0.0205011
0.0208659
0.0210015
0.0209463
0.020745
0.0204439
0.0200868
0.0197121
0.0193516
0.0190294
0.0187626
0.0185614
0.018431
0.0183719
0.0183817
0.0184556
0.0185876
0.018771
0.0189991
0.0192653
0.0195636
0.0198883
0.0202347
0.0205985
0.020976
0.0213642
0.0217605
0.0221628
0.0225692
0.0229783
0.00294842
0.00256642
0.0022885
0.00214111
0.00214028
0.00227833
0.00252716
0.00285393
0.00323241
0.0036471
0.00409528
0.00458868
0.00515351
0.00582697
0.00664954
0.0076541
0.00885477
0.010239
0.0117659
0.0133702
0.0149724
0.0164896
0.0178472
0.0189872
0.0198739
0.0204946
0.0208585
0.020992
0.0209335
0.020728
0.0204221
0.0200597
0.0196795
0.0193134
0.0189855
0.018713
0.0185063
0.0183703
0.0183056
0.0183097
0.0183779
0.0185041
0.0186816
0.0189036
0.0191637
0.0194556
0.0197739
0.0201137
0.0204708
0.0208415
0.0212227
0.021612
0.022007
0.0224061
0.0228079
0.00292484
0.00253665
0.00225137
0.00209672
0.0020906
0.00222623
0.0024749
0.0028026
0.00318225
0.00359796
0.00404686
0.00454068
0.00510568
0.00577918
0.00660181
0.00760664
0.00880794
0.0101933
0.0117219
0.0133285
0.0149334
0.0164536
0.0178142
0.018957
0.0198459
0.0204682
0.0208329
0.0209664
0.0209071
0.0207001
0.020392
0.0200269
0.0196436
0.019274
0.0189425
0.018666
0.0184551
0.0183146
0.0182452
0.0182443
0.0183071
0.0184277
0.0185993
0.0188153
0.019069
0.0193545
0.0196661
0.0199991
0.0203492
0.0207128
0.0210869
0.0214688
0.0218565
0.0222481
0.0226423
0.002901
0.00250698
0.00221444
0.00205231
0.00204041
0.0021731
0.00242109
0.00274924
0.0031296
0.00354586
0.00399501
0.0044887
0.00505319
0.0057258
0.00654725
0.00755072
0.00875067
0.010135
0.0116628
0.0132694
0.0148749
0.0163965
0.017759
0.0189042
0.0197957
0.0204207
0.0207878
0.0209233
0.0208656
0.0206596
0.0203521
0.019987
0.0196031
0.0192324
0.0188993
0.0186206
0.0184069
0.0182631
0.0181899
0.0181846
0.0182426
0.0183579
0.0185238
0.0187337
0.0189811
0.0192599
0.0195647
0.0198907
0.0202337
0.02059
0.0209567
0.0213311
0.0217112
0.0220952
0.0224817
0.00287691
0.00247748
0.00217781
0.00200798
0.00198981
0.00211896
0.00236574
0.00269381
0.00307439
0.00349074
0.00393964
0.00443265
0.00499593
0.00566673
0.00648574
0.00748621
0.00868281
0.0100637
0.0115884
0.0131925
0.0147965
0.0163177
0.0176809
0.018828
0.0197223
0.0203508
0.0207218
0.0208613
0.0208075
0.0206053
0.0203009
0.0199384
0.0195566
0.0191871
0.0188544
0.0185753
0.0183605
0.0182147
0.0181386
0.0181298
0.0181835
0.0182939
0.0184543
0.0186583
0.0188993
0.0191715
0.0194694
0.0197883
0.0201239
0.0204728
0.0208319
0.0211987
0.0215711
0.0219473
0.022326
0.00285259
0.00244819
0.00214158
0.00196385
0.00193889
0.00206388
0.00230884
0.0026363
0.00301659
0.00343252
0.00388068
0.00437244
0.00493381
0.00560186
0.00641717
0.00741302
0.00860425
0.00997939
0.0114985
0.0130977
0.0146979
0.0162167
0.0175795
0.0187277
0.0196249
0.0202575
0.0206338
0.0207792
0.0207316
0.0205354
0.0202368
0.0198796
0.0195022
0.0191363
0.0188062
0.0185287
0.0183143
0.0181678
0.0180901
0.0180785
0.0181287
0.0182346
0.01839
0.0185882
0.0188231
0.0190886
0.0193796
0.0196912
0.0200195
0.0203609
0.0207123
0.0210714
0.021436
0.0218043
0.022175
0.00282805
0.00241917
0.00210584
0.00192005
0.00188775
0.00200792
0.00225043
0.00257669
0.00295614
0.00337115
0.00381804
0.00430799
0.00486674
0.00553112
0.00634149
0.00733111
0.008515
0.0098821
0.0113931
0.0129848
0.0145789
0.0160935
0.0174543
0.0186029
0.0195028
0.0201401
0.0205227
0.0206756
0.0206362
0.0204485
0.0201582
0.0198087
0.0194382
0.0190783
0.0187529
0.0184789
0.0182666
0.018121
0.0180427
0.0180295
0.0180768
0.0181789
0.0183296
0.0185225
0.0187514
0.0190104
0.0192945
0.019599
0.0199199
0.0202537
0.0205975
0.0209487
0.0213054
0.0216659
0.0220286
0.00280332
0.00239049
0.00207072
0.00187671
0.00183653
0.00195114
0.00219051
0.00251496
0.00289302
0.00330657
0.00375166
0.00423921
0.00479465
0.00545445
0.00625868
0.00724049
0.00841509
0.0097719
0.0112724
0.0128541
0.0144397
0.0159481
0.0173053
0.0184533
0.0193555
0.0199979
0.0203877
0.0205496
0.0205203
0.0203432
0.0200634
0.0197241
0.019363
0.0190112
0.0186927
0.0184241
0.0182156
0.0180723
0.0179949
0.017981
0.0180264
0.0181254
0.018272
0.01846
0.0186832
0.018936
0.0192135
0.0195109
0.0198245
0.0201508
0.0204869
0.0208303
0.0211792
0.0215317
0.0218865
0.0027784
0.00236221
0.00203632
0.001834
0.00178536
0.00189366
0.00212915
0.00245112
0.00282719
0.00323872
0.00368147
0.00416605
0.00471748
0.00537181
0.00616872
0.0071412
0.00830463
0.00964896
0.0111365
0.0127058
0.0142805
0.0157805
0.0171324
0.0182788
0.0191828
0.0198303
0.0202281
0.0204002
0.0203826
0.020218
0.019951
0.0196241
0.0192746
0.0189333
0.0186237
0.0183624
0.0181596
0.0180201
0.0179448
0.0179315
0.0179759
0.0180727
0.0182159
0.0183994
0.0186174
0.0188644
0.0191354
0.0194261
0.0197325
0.0200514
0.0203799
0.0207157
0.0210567
0.0214014
0.0217483
0.00275333
0.0023344
0.00200278
0.00179207
0.00173442
0.00183557
0.00206638
0.00238519
0.00275864
0.00316759
0.00360744
0.00408845
0.0046352
0.00528318
0.00607165
0.00703334
0.00818378
0.0095135
0.0109857
0.0125401
0.0141016
0.0155911
0.0169361
0.0180795
0.0189846
0.0196372
0.0200434
0.0202266
0.0202221
0.0200719
0.0198196
0.0195072
0.0191715
0.0188427
0.0185442
0.0182922
0.0180967
0.0179626
0.0178909
0.0178793
0.0179238
0.0180192
0.0181598
0.0183395
0.0185529
0.0187944
0.0190594
0.0193435
0.0196431
0.0199548
0.0202759
0.0206042
0.0209376
0.0212746
0.0216137
0.0027281
0.00230711
0.00197021
0.00175113
0.00168388
0.00177701
0.0020023
0.00231719
0.00268737
0.00309313
0.00352951
0.00400637
0.00454775
0.00518856
0.00596749
0.00691699
0.00805273
0.00936581
0.0108204
0.0123576
0.0139036
0.0153804
0.0167166
0.0178556
0.0187611
0.0194184
0.0198333
0.0200285
0.0200383
0.0199038
0.0196681
0.0193722
0.0190522
0.018738
0.0184525
0.0182116
0.0180252
0.0178982
0.0178314
0.0178228
0.0178686
0.0179636
0.0181024
0.0182791
0.0184884
0.0187251
0.0189845
0.0192625
0.0195555
0.0198603
0.0201743
0.0204953
0.0208212
0.0211507
0.0214822
0.00270275
0.00228042
0.00193876
0.00171136
0.00163397
0.00171815
0.00193698
0.00224716
0.00261339
0.00301535
0.00344767
0.00391978
0.00445514
0.00508795
0.0058563
0.0067923
0.00791169
0.00920618
0.0106411
0.0121587
0.0136868
0.0151488
0.0164744
0.0176076
0.0185125
0.0191741
0.0195978
0.0198054
0.0198305
0.0197132
0.0194956
0.0192179
0.0189156
0.0186179
0.0183472
0.0181192
0.0179436
0.0178252
0.0177648
0.0177606
0.0178088
0.0179045
0.0180423
0.0182169
0.0184228
0.0186552
0.0189096
0.019182
0.0194688
0.0197672
0.0200744
0.0203883
0.0207071
0.0210292
0.0213534
0.00267729
0.0022544
0.00190856
0.00167299
0.00158494
0.00165919
0.00187056
0.00217518
0.00253673
0.00293424
0.00336192
0.00382867
0.00435734
0.00498138
0.00573816
0.00665939
0.00776088
0.00903495
0.010448
0.0119439
0.0134519
0.014897
0.0162101
0.0173361
0.0182392
0.0189045
0.0193369
0.0195573
0.0195985
0.0194995
0.0193015
0.0190436
0.0187607
0.0184812
0.0182272
0.0180138
0.0178507
0.0177424
0.0176899
0.0176913
0.0177431
0.0178405
0.0179785
0.0181517
0.0183551
0.0185839
0.0188339
0.0191012
0.0193824
0.0196746
0.0199755
0.0202827
0.0205947