/*--------------------------------*- C++ -*----------------------------------*\
| =========                 |                                                 |
| \\      /  F ield         | OpenFOAM: The Open Source CFD Toolbox           |
|  \\    /   O peration     | Version:  2412                                  |
|   \\  /    A nd           | Website:  www.openfoam.com                      |
|    \\/     M anipulation  |                                                 |
\*---------------------------------------------------------------------------*/
FoamFile
{
    version     2.0;
    format      ascii;
    arch        "LSB;label=32;scalar=64";
    class       volScalarField;
    location    "6";
    object      p;
}
// * * * * * * * * * * * * * * * * * * * * * * * * * * * * * * * * * * * * * //

dimensions      [0 2 -2 0 0 0 0];

internalField   nonuniform List<scalar> 
63420
(
0.00109488
0.00110372
0.00109627
0.00110213
0.00110282
0.00110494
0.00110785
0.00111079
0.00111421
0.00111802
0.00112218
0.00112671
0.00113159
0.00113682
0.00114239
0.00114831
0.00115456
0.00116116
0.00116809
0.00117535
0.00118296
0.0011909
0.00119918
0.00120781
0.00121677
0.00122608
0.00123573
0.00124573
0.00125608
0.00126679
0.00127786
0.00128928
0.00130107
0.00131323
0.00132577
0.00133868
0.00135196
0.00136564
0.0013797
0.00139416
0.00140902
0.00142428
0.00143995
0.00145604
0.00147254
0.00148946
0.00150682
0.00152461
0.00154283
0.0015615
0.00158062
0.0016002
0.00162023
0.00164074
0.00166171
0.00109482
0.00110366
0.00109621
0.00110206
0.00110276
0.00110488
0.00110779
0.00111072
0.00111414
0.00111795
0.00112211
0.00112663
0.0011315
0.00113673
0.0011423
0.00114821
0.00115446
0.00116105
0.00116797
0.00117523
0.00118283
0.00119077
0.00119904
0.00120765
0.00121661
0.00122591
0.00123555
0.00124554
0.00125588
0.00126658
0.00127763
0.00128904
0.00130082
0.00131296
0.00132548
0.00133837
0.00135164
0.0013653
0.00137934
0.00139378
0.00140861
0.00142385
0.00143949
0.00145554
0.00147202
0.00148891
0.00150623
0.00152398
0.00154217
0.0015608
0.00157988
0.00159941
0.0016194
0.00163985
0.00166077
0.0010947
0.00110356
0.00109609
0.00110193
0.00110264
0.00110474
0.00110765
0.00111058
0.00111399
0.0011178
0.00112195
0.00112646
0.00113133
0.00113655
0.00114211
0.00114801
0.00115425
0.00116083
0.00116774
0.00117499
0.00118257
0.0011905
0.00119875
0.00120735
0.00121629
0.00122557
0.00123519
0.00124516
0.00125548
0.00126615
0.00127717
0.00128856
0.00130031
0.00131242
0.0013249
0.00133776
0.00135099
0.00136461
0.00137861
0.001393
0.00140779
0.00142297
0.00143856
0.00145456
0.00147097
0.0014878
0.00150506
0.00152274
0.00154085
0.0015594
0.00157839
0.00159783
0.00161772
0.00163807
0.00165888
0.00109452
0.0011034
0.00109591
0.00110173
0.00110245
0.00110454
0.00110745
0.00111037
0.00111378
0.00111757
0.00112172
0.00112622
0.00113108
0.00113628
0.00114183
0.00114772
0.00115394
0.0011605
0.0011674
0.00117463
0.00118219
0.00119009
0.00119832
0.0012069
0.0012158
0.00122505
0.00123465
0.00124458
0.00125487
0.0012655
0.00127649
0.00128783
0.00129954
0.0013116
0.00132404
0.00133684
0.00135002
0.00136357
0.00137751
0.00139184
0.00140656
0.00142167
0.00143718
0.00145309
0.00146942
0.00148615
0.0015033
0.00152088
0.00153888
0.00155731
0.00157617
0.00159548
0.00161523
0.00163542
0.00165607
0.00109429
0.00110319
0.00109567
0.00110146
0.00110221
0.00110427
0.00110718
0.00111009
0.00111349
0.00111728
0.00112141
0.0011259
0.00113074
0.00113593
0.00114146
0.00114732
0.00115353
0.00116007
0.00116694
0.00117414
0.00118168
0.00118955
0.00119775
0.00120629
0.00121516
0.00122438
0.00123393
0.00124382
0.00125406
0.00126465
0.00127558
0.00128687
0.00129852
0.00131052
0.00132289
0.00133562
0.00134873
0.0013622
0.00137606
0.0013903
0.00140492
0.00141993
0.00143534
0.00145114
0.00146734
0.00148395
0.00150097
0.00151841
0.00153626
0.00155453
0.00157323
0.00159236
0.00161191
0.00163191
0.00165234
0.00109398
0.00110294
0.00109536
0.00110113
0.0011019
0.00110393
0.00110684
0.00110975
0.00111313
0.0011169
0.00112102
0.00112549
0.00113032
0.00113548
0.00114099
0.00114683
0.00115301
0.00115952
0.00116636
0.00117354
0.00118104
0.00118887
0.00119704
0.00120553
0.00121436
0.00122353
0.00123303
0.00124287
0.00125305
0.00126358
0.00127445
0.00128567
0.00129724
0.00130917
0.00132146
0.0013341
0.00134712
0.0013605
0.00137425
0.00138838
0.00140288
0.00141777
0.00143305
0.00144871
0.00146477
0.00148122
0.00149808
0.00151534
0.001533
0.00155108
0.00156957
0.00158848
0.0016078
0.00162755
0.00164771
0.00109363
0.00110261
0.00109502
0.00110072
0.00110154
0.00110353
0.00110643
0.00110933
0.0011127
0.00111646
0.00112056
0.00112501
0.00112981
0.00113495
0.00114043
0.00114625
0.0011524
0.00115887
0.00116568
0.00117281
0.00118027
0.00118806
0.00119618
0.00120463
0.00121341
0.00122252
0.00123196
0.00124173
0.00125185
0.0012623
0.0012731
0.00128424
0.00129572
0.00130756
0.00131975
0.00133229
0.00134519
0.00135846
0.00137208
0.00138608
0.00140045
0.00141519
0.00143031
0.00144581
0.00146169
0.00147796
0.00149462
0.00151168
0.00152912
0.00154697
0.00156521
0.00158386
0.00160291
0.00162236
0.00164221
0.00168323
0.00170551
0.00172874
0.001753
0.00177835
0.00180485
0.00183257
0.00186157
0.00189195
0.00192378
0.00195717
0.00199222
0.00202906
0.0020678
0.0021086
0.00215162
0.00219703
0.00224502
0.0022958
0.00234958
0.00240662
0.00246719
0.00253158
0.00260011
0.00267315
0.0027511
0.00283441
0.00292357
0.00301914
0.00312175
0.00323209
0.00335093
0.00347914
0.00361768
0.0037676
0.00393006
0.00410631
0.00429761
0.00450523
0.00473023
0.00497328
0.00523417
0.00551135
0.00580123
0.00609817
0.00639505
0.0066837
0.00696729
0.00731949
0.00784697
0.00168225
0.00170453
0.00172775
0.00175203
0.00177739
0.00180388
0.00183158
0.00186058
0.00189095
0.00192279
0.00195617
0.00199122
0.00202805
0.0020668
0.00210759
0.0021506
0.002196
0.00224397
0.00229473
0.00234848
0.00240547
0.00246598
0.00253028
0.00259871
0.00267162
0.00274941
0.00283251
0.00292142
0.00301668
0.00311888
0.00322872
0.00334692
0.00347432
0.00361182
0.00376042
0.00392116
0.00409517
0.00428355
0.00448734
0.0047073
0.00494367
0.00519573
0.00546119
0.00573558
0.00601209
0.0062824
0.00653761
0.00677997
0.00707853
0.00753279
0.0016803
0.00170259
0.00172585
0.0017501
0.00177542
0.00180191
0.0018296
0.0018586
0.00188896
0.00192079
0.00195417
0.00198921
0.00202604
0.00206478
0.00210557
0.00214857
0.00219394
0.00224188
0.00229258
0.00234626
0.00240317
0.00246355
0.0025277
0.00259593
0.00266858
0.00274605
0.00282876
0.00291717
0.0030118
0.00311323
0.00322207
0.00333903
0.00346484
0.00360031
0.00374628
0.00390365
0.00407325
0.00425588
0.00445209
0.00466203
0.00488512
0.0051195
0.00536144
0.0056046
0.00583988
0.00605646
0.00624424
0.00640389
0.00659061
0.00691256
0.00167742
0.00169969
0.00172291
0.00174715
0.00177247
0.00179894
0.00182663
0.00185561
0.00188596
0.00191777
0.00195114
0.00198617
0.00202299
0.00206171
0.00210249
0.00214546
0.00219079
0.00223867
0.00228929
0.00234286
0.00239962
0.00245981
0.00252371
0.00259163
0.0026639
0.00274088
0.00282297
0.00291062
0.0030043
0.00310453
0.00321188
0.00332694
0.00345034
0.00358274
0.00372477
0.00387705
0.00404006
0.00421407
0.00439898
0.00459401
0.00479731
0.00500538
0.00521225
0.00540881
0.0055825
0.00571863
0.0058052
0.00584461
0.00587572
0.00596453
0.00167356
0.00169582
0.00171903
0.00174327
0.00176858
0.00179504
0.00182271
0.00185167
0.00188201
0.00191381
0.00194717
0.0019822
0.00201901
0.00205772
0.00209848
0.00214143
0.00218673
0.00223454
0.00228507
0.00233851
0.00239508
0.00245503
0.00251863
0.00258615
0.00265792
0.00273428
0.00281558
0.00290224
0.00299468
0.00309334
0.0031987
0.00331125
0.00343144
0.00355974
0.00369649
0.00384194
0.00399607
0.00415847
0.00432811
0.00450298
0.00467957
0.00485215
0.00501187
0.00514598
0.00523753
0.00526681
0.00521819
0.00509786
0.00493425
0.0046649
0.00166878
0.00169104
0.00171426
0.0017385
0.00176382
0.00179029
0.00181797
0.00184695
0.0018773
0.00190913
0.00194253
0.00197761
0.00201449
0.00205329
0.00209414
0.00213719
0.00218257
0.00223047
0.00228106
0.00233453
0.0023911
0.002451
0.0025145
0.00258186
0.00265338
0.00272938
0.0028102
0.00289619
0.00298774
0.00308521
0.00318899
0.00329942
0.00341681
0.00354135
0.00367307
0.00381173
0.00395663
0.00410638
0.00425857
0.00440918
0.00455196
0.00467743
0.00477196
0.00481696
0.0047889
0.00466133
0.0044133
0.00405225
0.00360021
0.0028484
0.00166306
0.00168525
0.00170842
0.00173261
0.00175787
0.00178428
0.00181191
0.00184082
0.00187111
0.00190288
0.00193623
0.00197127
0.00200812
0.0020469
0.00208774
0.00213076
0.00217612
0.00222398
0.0022745
0.00232788
0.00238432
0.00244405
0.00250732
0.00257439
0.00264554
0.00272107
0.00280129
0.00288651
0.00297707
0.00307326
0.00317537
0.00328363
0.00339815
0.00351891
0.00364559
0.00377743
0.003913
0.00404979
0.00418367
0.00430809
0.004413
0.00448363
0.00449933
0.00443315
0.00425271
0.00392251
0.00341679
0.00275029
0.0018941
0.000524203
-0.00310142
-0.00307526
-0.00296836
-0.00279026
-0.00256311
-0.00229918
-0.00201429
-0.00172397
-0.00144194
-0.00117907
-0.000942975
-0.000737974
-0.000565509
-0.000424747
-0.000313247
-0.0002276
-0.000163956
-0.000118432
-8.73896e-05
-6.75954e-05
-5.62948e-05
-5.12169e-05
-5.05483e-05
-5.28882e-05
-5.7179e-05
-6.26249e-05
-6.86441e-05
-7.48313e-05
-8.09124e-05
-8.67067e-05
-9.2102e-05
-9.70351e-05
-0.000101477
-0.000105423
-0.000108883
-0.000111877
-0.000114431
-0.000116574
-0.000118336
-0.000119748
-0.000120839
-0.000121638
-0.00012217
-0.000122462
-0.000122536
-0.000122413
-0.000122114
-0.000121657
-0.000121059
-0.000120335
-0.00323595
-0.00317238
-0.00304724
-0.00286049
-0.0026267
-0.00235859
-0.00207075
-0.0017778
-0.001493
-0.00122707
-0.000987587
-0.000778934
-0.000602674
-0.0004581
-0.000342887
-0.000253716
-0.000186804
-0.000138305
-0.000104595
-8.2442e-05
-6.90756e-05
-6.22034e-05
-5.99857e-05
-6.09947e-05
-6.41466e-05
-6.86212e-05
-7.38131e-05
-7.92954e-05
-8.47758e-05
-9.00582e-05
-9.50165e-05
-9.95759e-05
-0.000103698
-0.000107368
-0.000110591
-0.000113379
-0.000115755
-0.000117742
-0.000119369
-0.000120662
-0.000121648
-0.000122353
-0.000122803
-0.000123022
-0.00012303
-0.000122849
-0.000122498
-0.000121994
-0.000121353
-0.000120591
-0.0035102
-0.00335378
-0.00319968
-0.00299543
-0.00274886
-0.00247276
-0.00217932
-0.00188148
-0.00159161
-0.00132004
-0.00107424
-0.000858739
-0.000675293
-0.000523445
-0.000401098
-0.000305121
-0.000231862
-0.000177562
-0.000138635
-0.00011185
-9.44168e-05
-8.40049e-05
-7.87255e-05
-7.70982e-05
-7.79897e-05
-8.05361e-05
-8.40835e-05
-8.8164e-05
-9.24494e-05
-9.67128e-05
-0.000100801
-0.000104617
-0.000108101
-0.000111224
-0.000113975
-0.000116355
-0.000118376
-0.000120056
-0.000121412
-0.000122468
-0.000123246
-0.000123768
-0.000124055
-0.000124128
-0.000124007
-0.00012371
-0.000123255
-0.000122657
-0.000121933
-0.000121095
-0.00388859
-0.0036249
-0.00342445
-0.00318955
-0.00292346
-0.00263531
-0.0023335
-0.00202857
-0.00173157
-0.00145217
-0.00119765
-0.000972633
-0.000779163
-0.000617113
-0.00048471
-0.000379091
-0.000296808
-0.000234228
-0.00018783
-0.000154396
-0.000131114
-0.0001156
-0.000105903
-0.000100469
-9.80915e-05
-9.78423e-05
-9.90078e-05
-0.000101056
-0.000103608
-0.000106393
-0.000109219
-0.000111954
-0.000114513
-0.00011684
-0.000118904
-0.000120691
-0.000122198
-0.000123429
-0.000124393
-0.000125105
-0.00012558
-0.000125833
-0.000125883
-0.000125744
-0.000125434
-0.000124969
-0.000124362
-0.000123629
-0.000122783
-0.000121834
-0.00433006
-0.00397582
-0.00370766
-0.00342974
-0.00313674
-0.00283181
-0.00251881
-0.00220529
-0.00190039
-0.00161261
-0.00134873
-0.00111331
-0.00090861
-0.000734861
-0.00059067
-0.000473526
-0.000380265
-0.000307458
-0.000251711
-0.000209863
-0.000179102
-0.000157017
-0.000141591
-0.00013119
-0.000124534
-0.000120612
-0.000118637
-0.000118006
-0.000118272
-0.000119106
-0.000120267
-0.000121579
-0.000122919
-0.000124199
-0.000125361
-0.000126369
-0.000127199
-0.000127841
-0.000128291
-0.000128551
-0.000128628
-0.00012853
-0.000128268
-0.000127852
-0.000127295
-0.000126607
-0.000125802
-0.00012489
-0.000123883
-0.000122789
-0.00478041
-0.00435585
-0.0040119
-0.00368091
-0.00335549
-0.00303239
-0.00271001
-0.00239192
-0.00208424
-0.00179333
-0.00152475
-0.00128257
-0.00106907
-0.000884824
-0.000728942
-0.000599455
-0.000493693
-0.000408636
-0.0003412
-0.000288442
-0.000247683
-0.000216574
-0.000193111
-0.000175627
-0.000162774
-0.00015348
-0.000146879
-0.000142282
-0.00013916
-0.000137106
-0.000135807
-0.000135026
-0.00013458
-0.000134336
-0.000134193
-0.00013408
-0.000133944
-0.00013375
-0.000133475
-0.000133102
-0.000132626
-0.000132042
-0.00013135
-0.000130555
-0.000129661
-0.000128674
-0.000127602
-0.000126452
-0.000125232
-0.000123949
-0.0051437
-0.00478844
-0.00440197
-0.00401437
-0.00364883
-0.00329928
-0.00295932
-0.00262925
-0.00231243
-0.00201308
-0.00173538
-0.00148275
-0.00125734
-0.00105992
-0.000889996
-0.000746068
-0.000625887
-0.000526789
-0.000445972
-0.000380694
-0.000328411
-0.000286847
-0.000254014
-0.000228224
-0.000208076
-0.000192422
-0.000180318
-0.000170991
-0.000163817
-0.000158304
-0.000154057
-0.000150764
-0.000148178
-0.000146109
-0.000144408
-0.000142959
-0.000141677
-0.000140496
-0.000139368
-0.000138257
-0.000137138
-0.000135993
-0.000134812
-0.000133586
-0.000132314
-0.000130993
-0.000129625
-0.000128214
-0.000126762
-0.000125276
-0.000119497
-0.000118554
-0.0001175
-0.000116342
-0.000115088
-0.000113744
-0.000112318
-0.000110814
-0.000109235
-0.000107587
-0.000105869
-0.000104086
-0.000102239
-0.000100331
-9.83662e-05
-9.63502e-05
-9.42881e-05
-9.21858e-05
-9.00495e-05
-8.7885e-05
-8.56981e-05
-8.34939e-05
-8.12774e-05
-7.9053e-05
-7.68249e-05
-7.45969e-05
-7.23726e-05
-7.01553e-05
-6.79481e-05
-6.57542e-05
-6.35762e-05
-6.14169e-05
-5.92789e-05
-5.71646e-05
-5.50763e-05
-5.30162e-05
-5.09862e-05
-4.89884e-05
-4.70245e-05
-4.50961e-05
-4.32048e-05
-4.1352e-05
-3.95389e-05
-3.77667e-05
-3.60365e-05
-3.43492e-05
-3.27056e-05
-3.11064e-05
-2.95523e-05
-2.80436e-05
-2.65808e-05
-2.51641e-05
-2.37938e-05
-2.24697e-05
-2.11921e-05
-1.99606e-05
-1.87751e-05
-1.76353e-05
-1.65408e-05
-1.54912e-05
-1.4486e-05
-1.35246e-05
-1.26061e-05
-1.173e-05
-1.08953e-05
-1.01013e-05
-9.34702e-06
-8.63148e-06
-7.95379e-06
-7.31283e-06
-6.70746e-06
-6.13666e-06
-5.59919e-06
-5.09389e-06
-4.61972e-06
-4.17522e-06
-3.75928e-06
-3.37087e-06
-3.00851e-06
-2.67116e-06
-2.35746e-06
-2.06646e-06
-1.79673e-06
-1.54721e-06
-1.31672e-06
-1.10385e-06
-9.07762e-07
-7.26818e-07
-5.60283e-07
-4.06633e-07
-2.65115e-07
-1.34795e-07
-1.39779e-08
9.72661e-08
2.02233e-07
2.96888e-07
3.95705e-07
4.64761e-07
5.95004e-07
5.63946e-07
9.05902e-07
4.14021e-07
1.68247e-06
-5.32159e-07
3.7115e-06
-3.11486e-06
7.49902e-06
-6.6821e-06
1.03062e-05
-5.80661e-06
4.81376e-06
5.86563e-06
-9.86624e-06
1.99691e-05
-1.65722e-05
-0.000119719
-0.000118751
-0.000117676
-0.000116498
-0.000115225
-0.000113865
-0.000112423
-0.000110904
-0.000109313
-0.000107652
-0.000105923
-0.000104129
-0.000102272
-0.000100356
-9.83849e-05
-9.63629e-05
-9.42958e-05
-9.21895e-05
-9.00497e-05
-8.78824e-05
-8.56931e-05
-8.34868e-05
-8.12686e-05
-7.90427e-05
-7.68133e-05
-7.45843e-05
-7.2359e-05
-7.0141e-05
-6.79332e-05
-6.57388e-05
-6.35605e-05
-6.14009e-05
-5.92628e-05
-5.71485e-05
-5.50602e-05
-5.30002e-05
-5.09704e-05
-4.89728e-05
-4.70092e-05
-4.50811e-05
-4.31902e-05
-4.13378e-05
-3.95251e-05
-3.77534e-05
-3.60236e-05
-3.43367e-05
-3.26936e-05
-3.10949e-05
-2.95412e-05
-2.8033e-05
-2.65707e-05
-2.51545e-05
-2.37846e-05
-2.2461e-05
-2.11838e-05
-1.99527e-05
-1.87676e-05
-1.76283e-05
-1.65342e-05
-1.5485e-05
-1.44802e-05
-1.35191e-05
-1.2601e-05
-1.17251e-05
-1.08908e-05
-1.00971e-05
-9.3431e-06
-8.62784e-06
-7.95041e-06
-7.30969e-06
-6.70455e-06
-6.13398e-06
-5.59672e-06
-5.09161e-06
-4.61764e-06
-4.17331e-06
-3.75753e-06
-3.36928e-06
-3.00705e-06
-2.66984e-06
-2.35626e-06
-2.06538e-06
-1.79575e-06
-1.54633e-06
-1.31593e-06
-1.10313e-06
-9.07117e-07
-7.26238e-07
-5.5978e-07
-4.06177e-07
-2.64735e-07
-1.34452e-07
-1.36971e-08
9.7526e-08
2.02437e-07
2.97058e-07
3.95852e-07
4.64856e-07
5.95066e-07
5.64065e-07
9.05777e-07
4.14283e-07
1.68204e-06
-5.31597e-07
3.71066e-06
-3.11415e-06
7.49846e-06
-6.6824e-06
1.03073e-05
-5.80864e-06
4.81576e-06
5.86443e-06
-9.8671e-06
1.99713e-05
-1.65801e-05
-0.000120158
-0.000119142
-0.000118023
-0.000116806
-0.000115497
-0.000114104
-0.000112631
-0.000111084
-0.000109466
-0.00010778
-0.000106029
-0.000104214
-0.000102339
-0.000100407
-9.84218e-05
-9.63881e-05
-9.43112e-05
-9.21966e-05
-9.00501e-05
-8.78771e-05
-8.5683e-05
-8.34727e-05
-8.12509e-05
-7.90221e-05
-7.67902e-05
-7.45589e-05
-7.23319e-05
-7.01123e-05
-6.79034e-05
-6.5708e-05
-6.3529e-05
-6.1369e-05
-5.92306e-05
-5.71162e-05
-5.5028e-05
-5.29682e-05
-5.09388e-05
-4.89417e-05
-4.69786e-05
-4.50512e-05
-4.3161e-05
-4.13093e-05
-3.94974e-05
-3.77266e-05
-3.59977e-05
-3.43118e-05
-3.26696e-05
-3.10719e-05
-2.95191e-05
-2.80119e-05
-2.65505e-05
-2.51352e-05
-2.37662e-05
-2.24436e-05
-2.11672e-05
-1.9937e-05
-1.87528e-05
-1.76143e-05
-1.6521e-05
-1.54726e-05
-1.44685e-05
-1.35081e-05
-1.25907e-05
-1.17155e-05
-1.08818e-05
-1.00887e-05
-9.33525e-06
-8.62056e-06
-7.94364e-06
-7.3034e-06
-6.69875e-06
-6.1286e-06
-5.59177e-06
-5.08708e-06
-4.61344e-06
-4.16947e-06
-3.75404e-06
-3.36606e-06
-3.00413e-06
-2.66718e-06
-2.35386e-06
-2.06321e-06
-1.79379e-06
-1.54457e-06
-1.31433e-06
-1.1017e-06
-9.05825e-07
-7.25085e-07
-5.5875e-07
-4.053e-07
-2.63955e-07
-1.33777e-07
-1.30994e-08
9.8023e-08
2.02873e-07
2.97432e-07
3.9611e-07
4.65108e-07
5.95138e-07
5.64333e-07
9.05541e-07
4.14794e-07
1.68116e-06
-5.3046e-07
3.70899e-06
-3.11272e-06
7.49731e-06
-6.68297e-06
1.03094e-05
-5.8127e-06
4.8198e-06
5.862e-06
-9.86871e-06
1.99758e-05
-1.65954e-05
-0.000120802
-0.000119715
-0.000118534
-0.000117259
-0.000115896
-0.000114454
-0.000112936
-0.000111347
-0.00010969
-0.000107968
-0.000106183
-0.000104339
-0.000102437
-0.000100482
-9.84761e-05
-9.64251e-05
-9.43337e-05
-9.2207e-05
-9.00504e-05
-8.7869e-05
-8.56677e-05
-8.34513e-05
-8.12243e-05
-7.8991e-05
-7.67552e-05
-7.45207e-05
-7.2291e-05
-7.00692e-05
-6.78585e-05
-6.56617e-05
-6.34816e-05
-6.1321e-05
-5.91822e-05
-5.70677e-05
-5.49797e-05
-5.29202e-05
-5.08913e-05
-4.88949e-05
-4.69327e-05
-4.50063e-05
-4.31171e-05
-4.12666e-05
-3.9456e-05
-3.76865e-05
-3.5959e-05
-3.42744e-05
-3.26336e-05
-3.10373e-05
-2.9486e-05
-2.79802e-05
-2.65202e-05
-2.51063e-05
-2.37387e-05
-2.24174e-05
-2.11424e-05
-1.99135e-05
-1.87306e-05
-1.75932e-05
-1.65012e-05
-1.54539e-05
-1.44509e-05
-1.34916e-05
-1.25752e-05
-1.1701e-05
-1.08682e-05
-1.00761e-05
-9.3235e-06
-8.60963e-06
-7.93349e-06
-7.29399e-06
-6.69004e-06
-6.12055e-06
-5.58436e-06
-5.08026e-06
-4.60717e-06
-4.16372e-06
-3.74879e-06
-3.36124e-06
-2.99975e-06
-2.66319e-06
-2.35026e-06
-2.05994e-06
-1.79084e-06
-1.54191e-06
-1.31193e-06
-1.09954e-06
-9.03894e-07
-7.23362e-07
-5.5722e-07
-4.03973e-07
-2.62785e-07
-1.3276e-07
-1.22092e-08
9.8774e-08
2.03519e-07
2.9798e-07
3.96504e-07
4.65481e-07
5.95256e-07
5.6472e-07
9.05189e-07
4.15558e-07
1.67983e-06
-5.2877e-07
3.70653e-06
-3.11065e-06
7.49569e-06
-6.68395e-06
1.03127e-05
-5.81893e-06
4.82594e-06
5.85837e-06
-9.87121e-06
1.99826e-05
-1.66179e-05
-0.000121637
-0.00012046
-0.000119198
-0.000117846
-0.000116415
-0.000114908
-0.000113331
-0.000111687
-0.000109979
-0.000108211
-0.000106384
-0.000104501
-0.000102564
-0.000100578
-9.85465e-05
-9.64731e-05
-9.43628e-05
-9.22203e-05
-9.00504e-05
-8.78577e-05
-8.56469e-05
-8.34224e-05
-8.11885e-05
-7.89492e-05
-7.67083e-05
-7.44695e-05
-7.22362e-05
-7.00114e-05
-6.77983e-05
-6.55997e-05
-6.34184e-05
-6.12568e-05
-5.91176e-05
-5.70029e-05
-5.49151e-05
-5.28561e-05
-5.0828e-05
-4.88326e-05
-4.68715e-05
-4.49464e-05
-4.30587e-05
-4.12097e-05
-3.94008e-05
-3.76329e-05
-3.59072e-05
-3.42245e-05
-3.25857e-05
-3.09912e-05
-2.94418e-05
-2.79379e-05
-2.64798e-05
-2.50678e-05
-2.3702e-05
-2.23825e-05
-2.11093e-05
-1.98821e-05
-1.87009e-05
-1.75652e-05
-1.64747e-05
-1.5429e-05
-1.44275e-05
-1.34696e-05
-1.25546e-05
-1.16817e-05
-1.08502e-05
-1.00592e-05
-9.30784e-06
-8.59507e-06
-7.91997e-06
-7.28145e-06
-6.67844e-06
-6.10983e-06
-5.57447e-06
-5.07117e-06
-4.59881e-06
-4.15605e-06
-3.74178e-06
-3.35483e-06
-2.9939e-06
-2.65788e-06
-2.34544e-06
-2.05558e-06
-1.7869e-06
-1.53836e-06
-1.30873e-06
-1.09667e-06
-9.01325e-07
-7.2107e-07
-5.55189e-07
-4.02198e-07
-2.61225e-07
-1.31401e-07
-1.10263e-08
9.97776e-08
2.04375e-07
2.98701e-07
3.97035e-07
4.65976e-07
5.95423e-07
5.65223e-07
9.04732e-07
4.16552e-07
1.67813e-06
-5.26619e-07
3.70343e-06
-3.10819e-06
7.49397e-06
-6.68582e-06
1.03177e-05
-5.82778e-06
4.83439e-06
5.8537e-06
-9.87512e-06
1.99926e-05
-1.66475e-05
-0.000122646
-0.000121361
-0.00012
-0.000118557
-0.000117041
-0.000115457
-0.000113808
-0.000112097
-0.000110328
-0.000108503
-0.000106625
-0.000104695
-0.000102717
-0.000100695
-9.86315e-05
-9.65311e-05
-9.43978e-05
-9.22359e-05
-9.00496e-05
-8.7843e-05
-8.56203e-05
-8.33857e-05
-8.11431e-05
-7.88964e-05
-7.66492e-05
-7.4405e-05
-7.21672e-05
-6.99388e-05
-6.77228e-05
-6.5522e-05
-6.3339e-05
-6.11764e-05
-5.90366e-05
-5.69218e-05
-5.48343e-05
-5.27759e-05
-5.07488e-05
-4.87545e-05
-4.67949e-05
-4.48714e-05
-4.29855e-05
-4.11386e-05
-3.93317e-05
-3.7566e-05
-3.58426e-05
-3.41622e-05
-3.25257e-05
-3.09336e-05
-2.93866e-05
-2.7885e-05
-2.64293e-05
-2.50196e-05
-2.36562e-05
-2.23389e-05
-2.10679e-05
-1.9843e-05
-1.86638e-05
-1.75302e-05
-1.64417e-05
-1.53979e-05
-1.43983e-05
-1.34422e-05
-1.25289e-05
-1.16576e-05
-1.08277e-05
-1.00382e-05
-9.28828e-06
-8.57688e-06
-7.90307e-06
-7.26578e-06
-6.66395e-06
-6.09644e-06
-5.56213e-06
-5.05981e-06
-4.58836e-06
-4.14647e-06
-3.73302e-06
-3.34681e-06
-2.9866e-06
-2.65123e-06
-2.33942e-06
-2.05013e-06
-1.78198e-06
-1.53392e-06
-1.30473e-06
-1.09309e-06
-8.98119e-07
-7.18211e-07
-5.52657e-07
-3.99975e-07
-2.59274e-07
-1.29701e-07
-9.55123e-09
1.01032e-07
2.0544e-07
2.99595e-07
3.97701e-07
4.66593e-07
5.95635e-07
5.65848e-07
9.04155e-07
4.17803e-07
1.67598e-06
-5.23904e-07
3.69952e-06
-3.10509e-06
7.49177e-06
-6.68811e-06
1.03239e-05
-5.83882e-06
4.84495e-06
5.84784e-06
-9.87983e-06
2.00048e-05
-1.66818e-05
-0.000123811
-0.000122401
-0.000120926
-0.000119378
-0.000117764
-0.00011609
-0.000114358
-0.00011257
-0.00011073
-0.00010884
-0.000106903
-0.00010492
-0.000102894
-0.00010083
-9.87302e-05
-9.65984e-05
-9.44383e-05
-9.22535e-05
-9.00477e-05
-8.78244e-05
-8.55876e-05
-8.33408e-05
-8.10878e-05
-7.88322e-05
-7.65775e-05
-7.4327e-05
-7.20839e-05
-6.98512e-05
-6.76317e-05
-6.54283e-05
-6.32434e-05
-6.10796e-05
-5.89391e-05
-5.68242e-05
-5.47371e-05
-5.26795e-05
-5.06535e-05
-4.86608e-05
-4.67029e-05
-4.47814e-05
-4.28977e-05
-4.10531e-05
-3.92487e-05
-3.74857e-05
-3.5765e-05
-3.40874e-05
-3.24537e-05
-3.08645e-05
-2.93203e-05
-2.78216e-05
-2.63688e-05
-2.49619e-05
-2.36012e-05
-2.22867e-05
-2.10183e-05
-1.9796e-05
-1.86194e-05
-1.74882e-05
-1.64021e-05
-1.53606e-05
-1.43632e-05
-1.34092e-05
-1.2498e-05
-1.16288e-05
-1.08007e-05
-1.00131e-05
-9.26482e-06
-8.55507e-06
-7.88282e-06
-7.247e-06
-6.64657e-06
-6.08039e-06
-5.54733e-06
-5.04619e-06
-4.57584e-06
-4.13498e-06
-3.72251e-06
-3.3372e-06
-2.97784e-06
-2.64326e-06
-2.3322e-06
-2.04359e-06
-1.77608e-06
-1.52859e-06
-1.29994e-06
-1.08878e-06
-8.94276e-07
-7.14786e-07
-5.49622e-07
-3.97307e-07
-2.56933e-07
-1.27662e-07
-7.78464e-09
1.02537e-07
2.06711e-07
3.00664e-07
3.98496e-07
4.67345e-07
5.95861e-07
5.66663e-07
9.03309e-07
4.19628e-07
1.67277e-06
-5.19476e-07
3.69282e-06
-3.09825e-06
7.48471e-06
-6.68531e-06
1.03255e-05
-5.84714e-06
4.85548e-06
5.83872e-06
-9.87867e-06
2.00095e-05
-1.67091e-05
-0.000125152
-0.000123597
-0.000121986
-0.000120316
-0.000118591
-0.000116813
-0.000114986
-0.000113111
-0.00011119
-0.000109226
-0.000107222
-0.000105178
-0.000103099
-0.000100987
-9.88457e-05
-9.66775e-05
-9.4486e-05
-9.22741e-05
-9.0045e-05
-8.78018e-05
-8.55479e-05
-8.32865e-05
-8.10209e-05
-7.87547e-05
-7.64909e-05
-7.42328e-05
-7.19835e-05
-6.97457e-05
-6.75222e-05
-6.53157e-05
-6.31287e-05
-6.09635e-05
-5.88223e-05
-5.67074e-05
-5.46207e-05
-5.25642e-05
-5.05396e-05
-4.85486e-05
-4.65929e-05
-4.46738e-05
-4.27928e-05
-4.0951e-05
-3.91497e-05
-3.73898e-05
-3.56723e-05
-3.39981e-05
-3.23677e-05
-3.07819e-05
-2.92412e-05
-2.77459e-05
-2.62964e-05
-2.48929e-05
-2.35355e-05
-2.22243e-05
-2.09591e-05
-1.97398e-05
-1.85663e-05
-1.74381e-05
-1.63548e-05
-1.53161e-05
-1.43214e-05
-1.33699e-05
-1.24612e-05
-1.15943e-05
-1.07685e-05
-9.983e-06
-9.23683e-06
-8.52903e-06
-7.85864e-06
-7.22458e-06
-6.62583e-06
-6.06122e-06
-5.52966e-06
-5.02992e-06
-4.56089e-06
-4.12127e-06
-3.70996e-06
-3.32573e-06
-2.96738e-06
-2.63375e-06
-2.32357e-06
-2.03577e-06
-1.76902e-06
-1.52223e-06
-1.29422e-06
-1.08365e-06
-8.8969e-07
-7.10698e-07
-5.46001e-07
-3.9412e-07
-2.54136e-07
-1.25227e-07
-5.6779e-09
1.04335e-07
2.08223e-07
3.01939e-07
3.99438e-07
4.68262e-07
5.96085e-07
5.67745e-07
9.02043e-07
4.22348e-07
1.66785e-06
-5.12166e-07
3.68132e-06
-3.08452e-06
7.46828e-06
-6.67184e-06
1.03164e-05
-5.84796e-06
4.86407e-06
5.82389e-06
-9.86455e-06
1.99966e-05
-1.67185e-05
-0.000126653
-0.000124936
-0.000123174
-0.000121367
-0.000119516
-0.000117623
-0.000115688
-0.000113714
-0.000111703
-0.000109657
-0.000107577
-0.000105466
-0.000103326
-0.000101161
-9.8972e-05
-9.67629e-05
-9.45358e-05
-9.22932e-05
-9.00376e-05
-8.77716e-05
-8.5498e-05
-8.32198e-05
-8.09398e-05
-7.86613e-05
-7.63872e-05
-7.41204e-05
-7.18638e-05
-6.96203e-05
-6.73923e-05
-6.51823e-05
-6.29929e-05
-6.08261e-05
-5.86842e-05
-5.65693e-05
-5.44833e-05
-5.2428e-05
-5.04052e-05
-4.84164e-05
-4.64632e-05
-4.4547e-05
-4.26691e-05
-4.08308e-05
-3.9033e-05
-3.72769e-05
-3.55633e-05
-3.38929e-05
-3.22666e-05
-3.06848e-05
-2.91481e-05
-2.76569e-05
-2.62114e-05
-2.48118e-05
-2.34583e-05
-2.21509e-05
-2.08895e-05
-1.96739e-05
-1.85039e-05
-1.73791e-05
-1.62993e-05
-1.52638e-05
-1.42722e-05
-1.33238e-05
-1.24179e-05
-1.15538e-05
-1.07307e-05
-9.94768e-06
-9.20392e-06
-8.49843e-06
-7.83022e-06
-7.19824e-06
-6.60145e-06
-6.0387e-06
-5.50889e-06
-5.0108e-06
-4.54331e-06
-4.10514e-06
-3.69521e-06
-3.31224e-06
-2.95509e-06
-2.62257e-06
-2.31342e-06
-2.02659e-06
-1.76073e-06
-1.51475e-06
-1.2875e-06
-1.07762e-06
-8.84301e-07
-7.05896e-07
-5.41746e-07
-3.90371e-07
-2.50848e-07
-1.22364e-07
-3.20323e-09
1.06445e-07
2.1e-07
3.03426e-07
4.00565e-07
4.6929e-07
5.96463e-07
5.68763e-07
9.01085e-07
4.24493e-07
1.66403e-06
-5.06967e-07
3.67325e-06
-3.07637e-06
7.45953e-06
-6.6683e-06
1.03178e-05
-5.85787e-06
4.87695e-06
5.81179e-06
-9.86097e-06
1.99992e-05
-1.67463e-05
-0.00012826
-0.000126369
-0.000124448
-0.000122494
-0.000120508
-0.000118489
-0.00011644
-0.00011436
-0.000112252
-0.000110116
-0.000107956
-0.000105773
-0.000103568
-0.000101345
-9.9106e-05
-9.68523e-05
-9.45864e-05
-9.231e-05
-9.00252e-05
-8.77339e-05
-8.54385e-05
-8.31415e-05
-8.08455e-05
-7.85534e-05
-7.62677e-05
-7.39913e-05
-7.17269e-05
-6.94769e-05
-6.7244e-05
-6.50303e-05
-6.28383e-05
-6.06699e-05
-5.85274e-05
-5.64126e-05
-5.43275e-05
-5.22737e-05
-5.02529e-05
-4.82666e-05
-4.63164e-05
-4.44035e-05
-4.25293e-05
-4.06948e-05
-3.89011e-05
-3.71492e-05
-3.544e-05
-3.37741e-05
-3.21523e-05
-3.05751e-05
-2.9043e-05
-2.75563e-05
-2.61153e-05
-2.47202e-05
-2.33711e-05
-2.2068e-05
-2.08108e-05
-1.95993e-05
-1.84334e-05
-1.73126e-05
-1.62365e-05
-1.52047e-05
-1.42166e-05
-1.32716e-05
-1.2369e-05
-1.1508e-05
-1.06879e-05
-9.9078e-06
-9.16678e-06
-8.46388e-06
-7.79814e-06
-7.1685e-06
-6.57393e-06
-6.01327e-06
-5.48545e-06
-4.98921e-06
-4.52347e-06
-4.08694e-06
-3.67855e-06
-3.29702e-06
-2.94122e-06
-2.60995e-06
-2.30197e-06
-2.01621e-06
-1.75136e-06
-1.5063e-06
-1.27991e-06
-1.07081e-06
-8.78217e-07
-7.00475e-07
-5.36942e-07
-3.86137e-07
-2.47135e-07
-1.19133e-07
-4.10999e-10
1.08825e-07
2.12004e-07
3.05097e-07
4.01848e-07
4.7042e-07
5.96962e-07
5.69755e-07
9.00318e-07
4.26308e-07
1.6608e-06
-5.02894e-07
3.66685e-06
-3.0709e-06
7.45422e-06
-6.66911e-06
1.03236e-05
-5.87154e-06
4.89164e-06
5.80037e-06
-9.86071e-06
2.00069e-05
-1.67797e-05
-0.000129951
-0.000127879
-0.000125789
-0.00012368
-0.00012155
-0.0001194
-0.000117229
-0.000115038
-0.000112828
-0.000110599
-0.000108355
-0.000106095
-0.000103822
-0.000101538
-9.92451e-05
-9.69438e-05
-9.4636e-05
-9.2323e-05
-9.00062e-05
-8.76873e-05
-8.5368e-05
-8.30505e-05
-8.0737e-05
-7.84299e-05
-7.61317e-05
-7.38449e-05
-7.15719e-05
-6.93151e-05
-6.70769e-05
-6.48593e-05
-6.26646e-05
-6.04947e-05
-5.83516e-05
-5.62371e-05
-5.41531e-05
-5.2101e-05
-5.00826e-05
-4.80993e-05
-4.61524e-05
-4.42433e-05
-4.23731e-05
-4.0543e-05
-3.87539e-05
-3.70068e-05
-3.53024e-05
-3.36416e-05
-3.20248e-05
-3.04527e-05
-2.89257e-05
-2.74441e-05
-2.60082e-05
-2.46181e-05
-2.32739e-05
-2.19756e-05
-2.07232e-05
-1.95163e-05
-1.83549e-05
-1.72384e-05
-1.61666e-05
-1.51389e-05
-1.41547e-05
-1.32135e-05
-1.23145e-05
-1.1457e-05
-1.06403e-05
-9.86337e-06
-9.1254e-06
-8.4254e-06
-7.76241e-06
-7.13538e-06
-6.54328e-06
-5.98495e-06
-5.45933e-06
-4.96516e-06
-4.50137e-06
-4.06666e-06
-3.65999e-06
-3.28006e-06
-2.92576e-06
-2.59589e-06
-2.28921e-06
-2.00466e-06
-1.74092e-06
-1.49689e-06
-1.27146e-06
-1.06322e-06
-8.71441e-07
-6.94438e-07
-5.3159e-07
-3.8142e-07
-2.42998e-07
-1.15534e-07
2.69718e-09
1.11474e-07
2.14234e-07
3.06953e-07
4.03283e-07
4.71661e-07
5.97551e-07
5.7079e-07
8.9959e-07
4.28112e-07
1.65753e-06
-4.98777e-07
3.66013e-06
-3.06498e-06
7.44784e-06
-6.66863e-06
1.03276e-05
-5.88394e-06
4.90594e-06
5.78749e-06
-9.85688e-06
2.00094e-05
-1.68068e-05
-0.000131707
-0.000129445
-0.00012718
-0.000124909
-0.000122631
-0.000120343
-0.000118046
-0.000115739
-0.000113423
-0.000111098
-0.000108766
-0.000106427
-0.000104083
-0.000101735
-9.93853e-05
-9.70337e-05
-9.46814e-05
-9.23294e-05
-8.99785e-05
-8.76299e-05
-8.52849e-05
-8.29453e-05
-8.0613e-05
-7.82899e-05
-7.59782e-05
-7.36803e-05
-7.13982e-05
-6.91343e-05
-6.68905e-05
-6.46688e-05
-6.24714e-05
-6.03e-05
-5.81564e-05
-5.60425e-05
-5.39598e-05
-5.19099e-05
-4.98942e-05
-4.79142e-05
-4.59711e-05
-4.40663e-05
-4.22007e-05
-4.03754e-05
-3.85914e-05