/*--------------------------------*- C++ -*----------------------------------*\
| =========                 |                                                 |
| \\      /  F ield         | OpenFOAM: The Open Source CFD Toolbox           |
|  \\    /   O peration     | Version:  2412                                  |
|   \\  /    A nd           | Website:  www.openfoam.com                      |
|    \\/     M anipulation  |                                                 |
\*---------------------------------------------------------------------------*/
FoamFile
{
    version     2.0;
    format      ascii;
    arch        "LSB;label=32;scalar=64";
    class       surfaceScalarField;
    location    "6";
    object      phi;
}
// * * * * * * * * * * * * * * * * * * * * * * * * * * * * * * * * * * * * * //

dimensions      [0 3 -1 0 0 0 0];

oriented        oriented;

internalField   nonuniform List<scalar> 
126304
(
0.00505081
-5.49481e-08
3.58675e-11
0.00504894
1.86843e-06
-1.2178e-09
0.00504424
4.70458e-06
-4.05739e-09
0.00503766
6.59267e-06
-5.95965e-09
0.00503132
6.3446e-06
-5.38365e-09
0.00502652
4.80532e-06
-2.81603e-09
0.0050234
3.11512e-06
3.48578e-10
0.00502146
1.94161e-06
3.01832e-09
0.00502006
1.39399e-06
4.81848e-09
0.00501876
1.28905e-06
5.81531e-09
0.00501735
1.40939e-06
6.24367e-09
0.00501573
1.60541e-06
6.34128e-09
0.00501393
1.80161e-06
6.27792e-09
0.00501195
1.97139e-06
6.16722e-09
0.00500983
2.11208e-06
6.06324e-09
0.0050076
2.22958e-06
5.97989e-09
0.00500526
2.33122e-06
5.91339e-09
0.00500283
2.42317e-06
5.85366e-09
0.00500031
2.50997e-06
5.78568e-09
0.00499771
2.59476e-06
5.70589e-09
0.00499503
2.67961e-06
5.61658e-09
0.00499226
2.76591e-06
5.51389e-09
0.0049894
2.85457e-06
5.39789e-09
0.00498645
2.94619e-06
5.26452e-09
0.0049834
3.04115e-06
5.11808e-09
0.00498025
3.13972e-06
4.96151e-09
0.00497701
3.24207e-06
4.7984e-09
0.00497365
3.34833e-06
4.62752e-09
0.00497019
3.4586e-06
4.44838e-09
0.00496661
3.57295e-06
4.25667e-09
0.00496292
3.69146e-06
4.05308e-09
0.0049591
3.8142e-06
3.83683e-09
0.00495516
3.94123e-06
3.61113e-09
0.00495108
4.07261e-06
3.37778e-09
0.00494687
4.20844e-06
3.13977e-09
0.00494252
4.34881e-06
2.89923e-09
0.00493802
4.49382e-06
2.65612e-09
0.00493337
4.64359e-06
2.4099e-09
0.00492857
4.79827e-06
2.15874e-09
0.00492361
4.95803e-06
1.90186e-09
0.00491849
5.12304e-06
1.63864e-09
0.00491319
5.29353e-06
1.36972e-09
0.00490772
5.46974e-06
1.09686e-09
0.00490207
5.65198e-06
8.21772e-10
0.00489623
5.84057e-06
5.46004e-10
0.00489019
6.03594e-06
2.70161e-10
0.00488395
6.23857e-06
-5.24792e-12
0.00487751
6.44903e-06
-2.79937e-10
0.00487084
6.66799e-06
-5.53021e-10
0.00486394
6.89623e-06
-8.2292e-10
0.00485681
7.13456e-06
-1.08717e-09
0.00484943
7.38381e-06
-1.34256e-09
0.00484178
7.64482e-06
-1.58509e-09
0.00483387
7.91899e-06
-1.81069e-09
8.21026e-06
0.00482566
-2.01578e-09
0.00505081
-1.07228e-07
0.00504898
3.69566e-06
0.00504438
9.30874e-06
0.0050379
1.30744e-05
0.00503162
1.26171e-05
0.00502683
9.59723e-06
0.00502368
6.26306e-06
0.00502169
3.93828e-06
0.00502024
2.84574e-06
0.0050189
2.62804e-06
0.00501745
2.85769e-06
0.00501581
3.23949e-06
0.00501399
3.62387e-06
0.00501201
3.9577e-06
0.00500988
4.23514e-06
0.00500764
4.46751e-06
0.00500531
4.66901e-06
0.00500288
4.85169e-06
0.00500036
5.02441e-06
0.00499777
5.1933e-06
0.00499508
5.36245e-06
0.00499231
5.53458e-06
0.00498946
5.71145e-06
0.00498651
5.89426e-06
0.00498347
6.08376e-06
0.00498033
6.28046e-06
0.00497708
6.48472e-06
0.00497373
6.69678e-06
0.00497028
6.91684e-06
0.0049667
7.14504e-06
0.00496301
7.38153e-06
0.0049592
7.62642e-06
0.00495526
7.87986e-06
0.00495119
8.14198e-06
0.00494699
8.41296e-06
0.00494265
8.69296e-06
0.00493816
8.98221e-06
0.00493352
9.28094e-06
0.00492873
9.58943e-06
0.00492378
9.908e-06
0.00491866
1.0237e-05
0.00491338
1.05769e-05
0.00490792
1.09282e-05
0.00490228
1.12914e-05
0.00489646
1.16672e-05
0.00489044
1.20564e-05
0.00488421
1.24599e-05
0.00487778
1.2879e-05
0.00487114
1.33148e-05
0.00486427
1.37688e-05
0.00485716
1.42427e-05
0.0048498
1.4738e-05
0.00484219
1.52563e-05
0.00483431
1.58003e-05
1.63773e-05
0.00482614
0.0050508
-1.54496e-07
0.00504906
5.44357e-06
0.00504464
1.37232e-05
0.00503837
1.93505e-05
0.00503222
1.87595e-05
0.00502745
1.4369e-05
0.00502424
9.47498e-06
0.00502214
6.037e-06
0.00502059
4.40111e-06
0.00501916
4.05326e-06
0.00501765
4.36977e-06
0.00501597
4.91716e-06
0.00501412
5.47418e-06
0.00501212
5.96102e-06
0.00500998
6.36775e-06
0.00500774
6.70999e-06
0.0050054
7.008e-06
0.00500298
7.27913e-06
0.00500046
7.53616e-06
0.00499787
7.78797e-06
0.00499519
8.04051e-06
0.00499243
8.29771e-06
0.00498958
8.56216e-06
0.00498664
8.83556e-06
0.0049836
9.11904e-06
0.00498047
9.41333e-06
0.00497723
9.71894e-06
0.00497389
1.00362e-05
0.00497045
1.03655e-05
0.00496688
1.07069e-05
0.0049632
1.10607e-05
0.0049594
1.1427e-05
0.00495548
1.18061e-05
0.00495142
1.21981e-05
0.00494723
1.26033e-05
0.0049429
1.3022e-05
0.00493843
1.34544e-05
0.00493381
1.3901e-05
0.00492904
1.43621e-05
0.00492411
1.48381e-05
0.00491901
1.53296e-05
0.00491375
1.58373e-05
0.00490832
1.63618e-05
0.00490271
1.6904e-05
0.00489691
1.74648e-05
0.00489092
1.80454e-05
0.00488473
1.86471e-05
0.00487834
1.92715e-05
0.00487174
1.99205e-05
0.00486491
2.05961e-05
0.00485785
2.13006e-05
0.00485055
2.20363e-05
0.004843
2.28051e-05
0.00483519
2.36107e-05
2.44629e-05
0.00482711
0.0050508
-1.94787e-07
0.00504917
7.07463e-06
0.00504503
1.78616e-05
0.00503905
2.53287e-05
0.00503309
2.47147e-05
0.00502835
1.91129e-05
0.00502505
1.27801e-05
0.0050228
8.28338e-06
0.00502109
6.10599e-06
0.00501954
5.60268e-06
0.00501794
5.97359e-06
0.0050162
6.65746e-06
0.00501431
7.36472e-06
0.00501228
7.98869e-06
0.00501014
8.51391e-06
0.00500789
8.9588e-06
0.00500555
9.34849e-06
0.00500312
9.70474e-06
0.00500061
1.00437e-05
0.00499803
1.03767e-05
0.00499535
1.07113e-05
0.0049926
1.10525e-05
0.00498976
1.14036e-05
0.00498683
1.17667e-05
0.0049838
1.21433e-05
0.00498068
1.25344e-05
0.00497746
1.29405e-05
0.00497413
1.33622e-05
0.0049707
1.37997e-05
0.00496715
1.42534e-05
0.00496349
1.47235e-05
0.00495971
1.52102e-05
0.0049558
1.57137e-05
0.00495176
1.62344e-05
0.00494759
1.67725e-05
0.00494329
1.73284e-05
0.00493884
1.79025e-05
0.00493425
1.84952e-05
0.0049295
1.9107e-05
0.0049246
1.97384e-05
0.00491954
2.03903e-05
0.00491431
2.10634e-05
0.00490892
2.17585e-05
0.00490334
2.24767e-05
0.00489759
2.32192e-05
0.00489165
2.39875e-05
0.00488551
2.47832e-05
0.00487917
2.56084e-05
0.00487263
2.64652e-05
0.00486587
2.73563e-05
0.00485889
2.82843e-05
0.00485167
2.9252e-05
0.00484421
3.02617e-05
0.00483651
3.13175e-05
3.24309e-05
0.00482854
0.00505079
-2.26427e-07
0.00504931
8.55509e-06
0.00504552
2.16502e-05
0.00503992
3.0931e-05
0.0050342
3.04351e-05
0.00502949
2.38227e-05
0.00502606
1.62033e-05
0.00502363
1.07157e-05
0.00502174
7.99873e-06
0.00502003
7.30797e-06
0.00501831
7.69246e-06
0.0050165
8.4762e-06
0.00501456
9.30555e-06
0.0050125
1.00467e-05
0.00501033
1.06768e-05
0.00500808
1.12152e-05
0.00500574
1.16904e-05
0.00500331
1.21276e-05
0.00500081
1.25455e-05
0.00499823
1.29575e-05
0.00499557
1.33724e-05
0.00499283
1.37961e-05
0.00499
1.42325e-05
0.00498708
1.46842e-05
0.00498407
1.51529e-05
0.00498096
1.56396e-05
0.00497776
1.61452e-05
0.00497445
1.66701e-05
0.00497104
1.72147e-05
0.00496751
1.77794e-05
0.00496387
1.83644e-05
0.00496011
1.89701e-05
0.00495623
1.95966e-05
0.00495222
2.02443e-05
0.00494808
2.09136e-05
0.0049438
2.16048e-05
0.00493938
2.23184e-05
0.00493482
2.30549e-05
0.00493012
2.3815e-05
0.00492526
2.45993e-05
0.00492024
2.54086e-05
0.00491506
2.62438e-05
0.00490971
2.7106e-05
0.00490419
2.79964e-05
0.00489849
2.89165e-05
0.00489261
2.98677e-05
0.00488654
3.08521e-05
0.00488028
3.1872e-05
0.00487381
3.29298e-05
0.00486714
3.40284e-05
0.00486026
3.5171e-05
0.00485315
3.63601e-05
0.00484581
3.75984e-05
0.00483824
3.88895e-05
4.02446e-05
0.00483043
0.00505078
-2.48577e-07
0.00504947
9.8596e-06
0.00504609
2.50325e-05
0.00504092
3.60993e-05
0.00503547
3.58844e-05
0.0050308
2.84933e-05
0.00502725
1.97622e-05
0.0050246
1.33617e-05
0.00502249
1.01073e-05
0.00502061
9.19236e-06
0.00501876
9.54348e-06
0.00501685
1.0385e-05
0.00501485
1.13041e-05
0.00501276
1.21393e-05
0.00501057
1.28585e-05
0.00500831
1.34799e-05
0.00500597
1.40334e-05
0.00500355
1.45465e-05
0.00500105
1.50398e-05
0.00499848
1.55281e-05
0.00499583
1.60212e-05
0.0049931
1.65257e-05
0.00499029
1.70459e-05
0.00498739
1.75848e-05
0.0049844
1.81442e-05
0.00498131
1.87252e-05
0.00497813
1.93288e-05
0.00497484
1.99556e-05
0.00497145
2.06058e-05
0.00496795
2.128e-05
0.00496434
2.19783e-05
0.00496061
2.27011e-05
0.00495676
2.34486e-05
0.00495278
2.42213e-05
0.00494867
2.50195e-05
0.00494443
2.58436e-05
0.00494006
2.66942e-05
0.00493554
2.75718e-05
0.00493088
2.84772e-05
0.00492607
2.9411e-05
0.0049211
3.03742e-05
0.00491598
3.13677e-05
0.00491069
3.23928e-05
0.00490524
3.34507e-05
0.00489961
3.45429e-05
0.00489381
3.56714e-05
0.00488782
3.68381e-05
0.00488165
3.80454e-05
0.00487528
3.9296e-05
0.00486872
4.05929e-05
0.00486195
4.19393e-05
0.00485497
4.33377e-05
0.00484778
4.47902e-05
0.00484037
4.62993e-05
4.78736e-05
0.00483274
0.00505076
-2.5505e-07
0.00504966
1.09602e-05
0.00504671
2.79875e-05
0.00504201
4.07943e-05
0.00503686
4.1041e-05
0.00503223
3.31198e-05
0.00502853
2.34646e-05
0.00502565
1.6236e-05
0.00502331
1.24471e-05
0.00502124
1.12689e-05
0.00501924
1.15365e-05
0.00501724
1.23907e-05
0.00501518
1.33645e-05
0.00501305
1.42689e-05
0.00501085
1.506e-05
0.00500857
1.57526e-05
0.00500623
1.63765e-05
0.00500382
1.696e-05
0.00500133
1.75247e-05
0.00499877
1.80862e-05
0.00499614
1.86551e-05
0.00499343
1.92384e-05
0.00499063
1.98407e-05
0.00498775
2.0465e-05
0.00498478
2.11135e-05
0.00498172
2.17873e-05
0.00497856
2.24873e-05
0.0049753
2.32142e-05
0.00497194
2.39683e-05
0.00496847
2.475e-05
0.00496489
2.55596e-05
0.00496119
2.63975e-05
0.00495738
2.72638e-05
0.00495344
2.8159e-05
0.00494938
2.90835e-05
0.00494518
3.00378e-05
0.00494085
3.10223e-05
0.00493639
3.20377e-05
0.00493178
3.30848e-05
0.00492703
3.41642e-05
0.00492213
3.5277e-05
0.00491707
3.64243e-05
0.00491185
3.76072e-05
0.00490648
3.88271e-05
0.00490094
4.00856e-05
0.00489522
4.13846e-05
0.00488933
4.27261e-05
0.00488327
4.41126e-05
0.00487702
4.55468e-05
0.00487058
4.70316e-05
0.00486395
4.85699e-05
0.00485712
5.01641e-05
0.0048501
5.18154e-05
0.00484287
5.35235e-05
0.00483546
5.52894e-05
0.00482753
-1.87429e-06
-2.21089e-09
0.00482889
-1.35233e-06
-2.41981e-09
0.0048297
-8.09846e-07
-2.61448e-09
0.00482996
-2.57401e-07
-2.78697e-09
0.00482967
2.92343e-07
-2.8938e-09
0.00482885
8.23693e-07
-3.03304e-09
0.00482752
1.33505e-06
-3.14272e-09
0.0048257
1.82228e-06
-3.22841e-09
0.00482341
2.29341e-06
-3.29597e-09
0.00482065
2.76704e-06
-3.3474e-09
0.00481738
3.27115e-06
-3.38342e-09
0.00481354
3.84005e-06
-3.40415e-09
0.00480904
4.51006e-06
-3.40983e-09
0.00480372
5.31509e-06
-3.40106e-09
0.00479744
6.28321e-06
-3.37728e-09
0.00479001
7.43483e-06
-3.33446e-09
0.00478123
8.78272e-06
-3.27124e-09
0.0047709
1.03336e-05
-3.19188e-09
0.00475882
1.20909e-05
-3.13593e-09
0.00474476
1.40579e-05
-3.10994e-09
0.00472852
1.62408e-05
-3.09563e-09
0.00470988
1.86505e-05
-3.09828e-09
0.00468857
2.13047e-05
-3.10647e-09
0.00466435
2.42288e-05
-3.11147e-09
0.00463689
2.74572e-05
-3.1034e-09
0.00460586
3.10336e-05
-3.07202e-09
0.00457085
3.50126e-05
-3.00836e-09
0.0045314
3.94606e-05
-2.90659e-09
0.00448694
4.4458e-05
-2.76566e-09
0.00443684
5.01022e-05
-2.59009e-09
0.00438033
5.65118e-05
-2.38906e-09
0.0043165
6.38315e-05
-2.17353e-09
0.00424426
7.22403e-05
-1.95563e-09
0.00416231
8.19604e-05
-1.74721e-09
0.00406904
9.327e-05
-1.55699e-09
0.00396252
0.000106518
-1.38941e-09
0.00384038
0.000122141
-1.24506e-09
0.00369971
0.000140677
-1.12212e-09
0.00353694
0.000162766
-1.01574e-09
0.00334782
0.000189125
-9.20998e-10
0.00312737
0.000220452
-8.32974e-10
0.00287014
0.000257222
-7.49448e-10
0.00257084
0.000299305
-6.66035e-10
0.00222551
0.000345326
-5.80761e-10
0.00183379
0.00039172
-4.90054e-10
0.00140237
0.000431423
-3.94019e-10
0.000950093
0.000452279
-2.91696e-10
0.000514937
0.000435156
-1.91482e-10
0.000163751
0.000351185
-1.05515e-10
0.000163751
-3.1145e-11
0.00482666
-2.39131e-06
0.00482666
-1.35192e-06
0.00482612
-2.65537e-07
0.00482503
8.32622e-07
0.00482339
1.92868e-06
0.00482121
2.99909e-06
0.00481852
4.02781e-06
0.00481533
5.01209e-06
0.00481166
5.96791e-06
0.00480749
6.93191e-06
0.0048028
7.95908e-06
0.00479753
9.11664e-06
0.00479156
1.04757e-05
0.00478477
1.21025e-05
0.00477701
1.40522e-05
0.00476808
1.63647e-05
0.00475779
1.90654e-05
0.00474596
2.2168e-05
0.00473237
2.56803e-05
0.00471682
2.96097e-05
0.00469909
3.39695e-05
0.00467896
3.87827e-05
0.00465618
4.40854e-05
0.00463047
4.99295e-05
0.00460155
5.6384e-05
0.00456904
6.35369e-05
0.00453256
7.14975e-05
0.00449162
8.03985e-05
0.00444568
9.04009e-05
0.00439408
0.000101699
0.00433606
0.000114529
0.00427072
0.000129181
0.00419695
0.000146008
0.00411345
0.000165454
0.00401865
0.00018807
0.00391062
0.000214547
0.00378702
0.000245746
0.00364497
0.000282725
0.003481
0.000326739
0.00329094
0.000379182
0.00307
0.000441395
0.00281297
0.000514255
0.00251486
0.000597408
0.00217217
0.000688019
0.00178498
0.000778909
0.0013604
0.000856006
0.000917505
0.000895173
0.000493925
0.000858736
0.000154073
0.000691037
0.000317824
0.00482492
-2.04956e-07
0.00482222
1.34611e-06
0.004819
2.96048e-06
0.00481522
4.6061e-06
0.0048109
6.25108e-06
0.00480604
7.86345e-06
0.00480064
9.42075e-06
0.00479474
1.09201e-05
0.00478832
1.23856e-05
0.00478138
1.3871e-05
0.00477388
1.54562e-05
0.00476576
1.72387e-05
0.00475691
1.93217e-05
0.00474722
2.18009e-05
0.00473651
2.47562e-05
0.00472463
2.8246e-05
0.00471139
3.23079e-05
0.00469659
3.69633e-05
0.00468005
4.22253e-05
0.00466155
4.81078e-05
0.00464089
5.46329e-05
0.00461783
6.18376e-05
0.00459214
6.97782e-05
0.00456353
7.85342e-05
0.00453171
8.82104e-05
0.0044963
9.89398e-05
0.00445692
0.000110887
0.00441306
0.00012425
0.00436419
0.000139271
0.00430965
0.000156242
0.00424867
0.000175513
0.00418033
0.000197517
0.00410356
0.000222782
0.00401705
0.000251964
0.00391924
0.000285877
0.00380825
0.000325539
0.00368178
0.000372212
0.00353707
0.000427438
0.00337078
0.000493031
0.00317898
0.00057098
0.00295722
0.000663153
0.0027008
0.000770679
0.0024054
0.000892808
0.00206834
0.00102508
0.0016906
0.00115665
0.00127997
0.00126664
0.000855709
0.00131943
0.000454985
0.00125946
0.000139213
0.00100681
0.000457038
0.00482235
5.98872e-06
0.00481565
8.04172e-06
0.00480843
1.01779e-05
0.00480068
1.23624e-05
0.00479237
1.45539e-05
0.00478352
1.67128e-05
0.00477413
1.88119e-05
0.0047642
2.08492e-05
0.00475373
2.28566e-05
0.0047427
2.49033e-05
0.00473106
2.70919e-05
0.00471876
2.95466e-05
0.00470568
3.23983e-05
0.00469171
3.57691e-05
0.00467671
3.97604e-05
0.00466051
4.44475e-05
0.00464293
4.98799e-05
0.00462381
5.60876e-05
0.00460294
6.3091e-05
0.00458014
7.09125e-05
0.00455519
7.95861e-05
0.00452786
8.91651e-05
0.00449791
9.97282e-05
0.00446506
0.000111384
0.00442899
0.000124275
0.00438935
0.00013858
0.00434572
0.000154518
0.00429762
0.000172355
0.00424448
0.000192413
0.00418564
0.000215078
0.00412034
0.000240818
0.00404765
0.000270201
0.00396651
0.000303924
0.00387563
0.000342847
0.00377347
0.000388035
0.0036582
0.000440806
0.00352763
0.000502787
0.00337912
0.000575942
0.0032096
0.000662557
0.00301549
0.000765085
0.0027929
0.000885744
0.0025379
0.00102568
0.00224721
0.00118349
0.0019194
0.00135289
0.0015567
0.00151935
0.00116771
0.00165563
0.000771354
0.00171578
0.000402799
0.00162801
0.000118023
0.00129159
0.000575061
0.00481896
1.74524e-05
0.00480701
1.99905e-05
0.00479456
2.2635e-05
0.00478157
2.53469e-05
0.00476805
2.80792e-05
0.00475397
3.07868e-05
0.00473934
3.34402e-05
0.00472415
3.60387e-05
0.00470839
3.86219e-05
0.00469202
4.12731e-05
0.004675
4.4114e-05
0.00465725
4.72916e-05
0.00463869
5.09602e-05
0.0046192
5.52639e-05
0.00459863
6.03228e-05
0.00457685
6.6227e-05
0.0045537
7.30376e-05
0.00452899
8.07942e-05
0.00450255
8.95269e-05
0.0044742
9.92693e-05
0.00444371
0.00011007
0.00441088
0.000122001
0.00437544
0.000135167
0.00433711
0.000149707
0.00429559
0.000165803
0.00425049
0.00018368
0.00420139
0.000203613
0.00414781
0.000225936
0.00408918
0.000251048
0.00402482
0.000279432
0.00395397
0.000311666
0.00387572
0.000348454
0.00378899
0.000390653
0.00369253
0.000439313
0.00358483
0.000495728
0.00346416
0.000561483
0.00332843
0.000638512
0.00317526
0.000729118
0.00300189
0.000835925
0.00280531
0.000961662
0.00258242
0.00110864
0.0023304
0.0012777
0.00204744
0.00146645
0.0017338
0.00166653
0.00139333
0.00185982
0.00103546
0.00201351
0.000677875
0.00207337
0.00035038
0.00195551
9.71024e-05
0.00154486
0.000672163
0.00481481
3.53784e-05
0.00479643
3.83792e-05
0.00477755
4.15122e-05
0.00475816
4.47353e-05
0.00473824
4.7998e-05
0.00471778
5.12525e-05
0.00469675
5.44681e-05
0.00467514
5.76472e-05
0.00465292
6.08366e-05
0.00463007
6.41318e-05
0.00460651
6.76707e-05
0.00458218
7.16188e-05
0.00455699
7.61494e-05
0.00453083
8.14244e-05
0.00450358
8.75793e-05
0.00447508
9.47173e-05
0.00444521
0.000102911
0.0044138
0.00011221
0.00438067
0.000122657
0.00434564
0.000134299
0.0043085
0.000147202
0.00426904
0.000161462
0.004227
0.000177209
0.00418209
0.000194617
0.00413399
0.000213907
0.00408232
0.000235352
0.00402664
0.000259287
0.00396647
0.00028611
0.00390121
0.000316302
0.00383021
0.000350435
0.00375268
0.000389201
0.0036677
0.000433431
0.00357422
0.000484135
0.00347099
0.000542536
0.00335659
0.000610126
0.00322937
0.000688711
0.00308743
0.000780447
0.0029287
0.000887844
0.00275097
0.00101366
0.00255203
0.0011606
0.00233
0.00133066
0.00208381
0.00152389
0.00181386
0.0017364
0.00152302
0.00195737
0.00121754
0.0021653
0.000907959
0.00232309
0.000609673
0.00237165
0.000341416
0.00222377
0.000117989
0.00176829
0.000790152
0.00480996
6.08694e-05
0.00478404
6.43042e-05
0.00475765
6.79007e-05
0.00473077
7.16135e-05
0.00470338
7.53906e-05
0.00467545
7.91829e-05
0.00464696
8.29605e-05
0.00461787
8.67294e-05
0.00458817
9.05436e-05
0.00455779
9.45096e-05
0.00452668
9.87787e-05
0.00449477
0.000103532
0.00446196
0.000108957
0.00442816
0.000115229
0.00439324
0.000122498
0.00435708
0.000130876
0.00431954
0.000140447
0.00428048
0.000151272
0.00423973
0.000163406
0.00419712
0.000176915
0.00415244
0.000191883
0.00410547
0.000208431
0.00405596
0.000226721
0.00400361
0.00024696
0.0039481
0.000269414
0.00388905
0.000294403
0.00382602
0.00032232
0.0037585
0.00035363
0.00368591
0.000388894
0.00360757
0.000428776
0.00352269
0.000474076
0.00343038
0.000525749
0.00332956
0.000584947
0.00321904
0.000653056
0.00309743
0.000731738
0.00296317
0.000822968
0.00281458
0.000929044
0.00264988
0.00105254
0.00246744
0.00119611
0.00226598
0.00136206
0.00204509
0.00155155
0.00180588
0.0017631
0.00155183
0.00199044
0.0012897
0.0022195
0.00103019
0.00242482
0.00078763
0.00256565
0.00057694
0.00258234
0.000403618
0.00239709
0.00024567
0.00192624
0.00103582
-2.01698e-05
2.01692e-05
6.47836e-10
-2.79957e-05
7.8241e-06
1.70593e-09
1.62904e-06
-2.9627e-05
2.28858e-09
7.94298e-05
-7.78033e-05
2.55979e-09
0.000207384
-0.000127957
2.59478e-09
0.000381525
-0.000174143
2.46764e-09
0.000594569
-0.000213047
2.2441e-09
0.00083768
-0.000243113
1.992e-09
0.00110162
-0.000263944
1.77435e-09
0.00137755
-0.000275926
1.65069e-09
0.00165748
-0.000279937
1.6537e-09
0.00193462
-0.000277141
1.79569e-09
0.00220344
-0.000268826
2.06707e-09
0.00245973
-0.000256284
2.43693e-09
0.00270046
-0.000240735
2.86368e-09
0.00292373
-0.000223274
3.29694e-09
0.00312856
-0.000204838
3.6864e-09
0.00331476
-0.000186197
3.99018e-09
0.0034827
-0.000167951
4.17261e-09
0.00363324
-0.00015054
4.20658e-09
0.0037675
-0.000134263
4.05471e-09
0.00388679
-0.000119297
3.64117e-09
0.00399251
-0.000105721
3.01076e-09
0.00408604
-9.35362e-05
2.50117e-09
0.00416873
-8.26908e-05
2.28743e-09
0.00424182
-7.30962e-05
2.37215e-09
0.00430647
-6.46432e-05
2.65997e-09
0.00436368
-5.72134e-05
3.04817e-09
0.00441436
-5.06883e-05
3.59385e-09
0.00445931
-4.4955e-05
4.28359e-09
0.00449922
-3.99097e-05
5.07401e-09
0.00453467
-3.54596e-05
5.90815e-09
0.00456619
-3.15232e-05
6.72646e-09
0.00459421
-2.80303e-05
7.47546e-09
0.00461912
-2.49206e-05
8.1134e-09
0.00464126
-2.21429e-05
8.61429e-09
0.0046609
-1.9654e-05
8.96898e-09
0.00467831
-1.74171e-05
9.1838e-09
0.0046937
-1.54013e-05
9.2765e-09
0.00470727
-1.35803e-05
9.27137e-09
0.00471919
-1.19319e-05
9.19538e-09
0.00472962
-1.04371e-05
9.07455e-09
0.00473869
-9.07979e-06
8.93193e-09
0.00474653
-7.84619e-06
8.78472e-09
0.00475325
-6.72464e-06
8.64522e-09
0.00475894
-5.70522e-06
8.522e-09
0.00476371
-4.77941e-06
8.41968e-09
0.00476765
-3.93974e-06
8.34003e-09
0.00477082
-3.17913e-06
8.28388e-09
-2.49009e-06
0.0047733
8.25064e-09
-1.58834e-05
3.60526e-05
-1.29728e-05
4.91354e-06
2.60751e-05
-6.86749e-05
0.000111403
-0.000163131
0.000244069
-0.000260623
0.000419877
-0.000349951
0.000631784
-0.000424954
0.000871435
-0.000482764
0.00113018
-0.00052269
0.00139976
-0.000545509
0.00167276
-0.000552936
0.00194284
-0.000547218
0.00220484
-0.00053083
0.00245482
-0.000506259
0.00268994
-0.000475851
0.00290838
-0.000441714
0.0031092
-0.000405659
0.00329217
-0.000369174
0.00345765
-0.000333424
0.00360638
-0.00029927
0.00373941
-0.0002673
0.00385798
-0.000237864
0.00396339
-0.000211125
0.00405694
-0.000187095
0.00413993
-0.000165677
0.00421354
-0.000146704
0.00427886
-0.000129968
0.00433689
-0.000115241
0.0043885
-0.000102294
0.00443445
-9.09062e-05
0.00447541
-8.08768e-05
0.00451198
-7.2024e-05
0.00454464
-6.41884e-05
0.00457385
-5.72319e-05
0.00459996
-5.10361e-05
0.00462332
-4.55e-05
0.0046442
-4.0538e-05
0.00466286
-3.60777e-05
0.00467952
-3.20576e-05
0.00469437
-2.84257e-05
0.00470757
-2.51376e-05
0.00471929
-2.21557e-05
0.00472966
-1.94477e-05
0.0047388
-1.69864e-05
0.00474682
-1.47484e-05
0.00475383
-1.27138e-05
0.00475992
-1.08656e-05
0.00476517
-9.18881e-06
0.00476966
-7.66924e-06
-6.29163e-06
0.00477346
-4.21267e-06
4.02653e-05
1.42219e-05
-1.3521e-05
6.97777e-05
-0.000124231
0.000168124
-0.000261478
0.000308452
-0.000400951
0.000486271
-0.000527769
0.000695105
-0.000633788
0.000927572
-0.000715231
0.00117614
-0.000771254
0.00143364
-0.000803017
0.00169367
-0.000812959
0.00195069
-0.000804245
0.00220022
-0.000780356
0.00243875
-0.000744789
0.00266375
-0.00070085
0.00287355
-0.000651515
0.00306724
-0.000599354
0.00324456
-0.000546489
0.00340573
-0.000494595
0.00355138
-0.000444917
0.00368239
-0.000398313
0.00379984
-0.00035531
0.00390487
-0.000316159
0.00399867
-0.000280895
0.00408239
-0.000249399
0.00415713
-0.000221442
0.0042239
-0.000196733
0.0042836
-0.000174951
0.00433708
-0.000155769
0.00438505
-0.000138875
0.00442815
-0.000123975
0.00446693
-0.000110809
0.00450189
-9.91453e-05
0.00453344
-8.87817e-05
0.00456195
-7.95454e-05
0.00458774
-7.12884e-05
0.00461108
-6.38847e-05
0.00463223
-5.72274e-05
0.0046514
-5.12256e-05
0.00466878
-4.58022e-05
0.00468453
-4.08914e-05
0.00469881
-3.64373e-05
0.00471176
-3.23918e-05
0.00472349
-2.87142e-05
0.00473411
-2.53695e-05
0.00474372
-2.2328e-05
0.00475242
-1.95642e-05
0.00476029
-1.70555e-05
0.0047674
-1.47803e-05
-1.27153e-05
0.00477382
9.43694e-06
3.08283e-05
4.81469e-05
-5.2231e-05
0.000124361
-0.000200445
0.0002377
-0.000374816
0.00038549
-0.000548742
0.000563311
-0.00070559
0.000765727
-0.000836204
0.00098681
-0.000936315
0.00122057
-0.00100502
0.00146131
-0.00104375
0.00170384
-0.00105549
0.00194367
-0.00104407
0.00217703
-0.00101372
0.00240096
-0.000968718
0.00261323
-0.000913116
0.0028123
-0.000850591
0.00299728
-0.000784336
0.00316781
-0.000717012
0.00332395
-0.000650735
0.00346613
-0.0005871
0.00359504
-0.000527224
0.00371154
-0.000471805
0.00381658
-0.000421198
0.00391116
-0.000375484
0.0039963
-0.000334539
0.00407296
-0.000298099
0.00414204
-0.000265814
0.00420438
-0.000237287
0.00426072
-0.000212115
0.00431175
-0.000189903
0.00435806
-0.000170284
0.00440017
-0.000152923
0.00443855
-0.000137524
0.0044736
-0.00012383
0.00450567
-0.000111616
0.00453507
-0.000100689
0.00456208
-9.08877e-05
0.00458692
-8.20707e-05
0.00460981
-7.41195e-05
0.00463094
-6.69329e-05
0.00465048
-6.04243e-05
0.00466856
-5.45199e-05
0.00468532
-4.91563e-05
0.00470089
-4.42794e-05
0.00471536
-3.98428e-05
0.00472884
-3.5807e-05
0.00474141
-3.21379e-05
0.00475316
-2.88052e-05
0.00476416
-2.578e-05
-2.30302e-05
0.00477448
2.48954e-05
5.9329e-06
8.67085e-05
-0.000114044
0.000183108
-0.000296845
0.000308804
-0.000500513
0.000459886
-0.000699823
0.000632686
-0.00087839
0.000823446
-0.00102696
0.00102817
-0.00114104
0.00124271
-0.00121956
0.00146296
-0.00126401
0.00168505
-0.00127757
0.00190543
-0.00126446
0.00212106
-0.00122935
0.00232937
-0.00117703
0.00252836
-0.00111211
0.00271655
-0.00103878
0.00289295
-0.00096074
0.00305705
-0.000881108
0.0032087
-0.000802388
0.0033481
-0.000726499
0.00347569
-0.00065481
0.00359209
-0.000588204
0.00369804
-0.000527156
0.00379438
-0.000471816
0.00388192
-0.000422087
0.00396152
-0.000377692
0.00403395
-0.000338246
0.00409997
-0.000303304
0.00416025
-0.0002724
0.00421542
-0.000245075
0.00426603
-0.000220896
0.00431258
-0.00019947
0.0043555
-0.000180442
0.00439517
-0.000163503
0.00443194
-0.000148383
0.0044661
-0.000134848
0.00449791
-0.000122701
0.00452761
-0.00011177
0.0045554
-0.000101909
0.00458146
-9.29948e-05
0.00460596
-8.49199e-05
0.00462903
-7.75933e-05
0.00465081
-7.09366e-05
0.00467141
-6.48826e-05
0.00469095
-5.93736e-05
0.0047095
-5.43602e-05
0.00472716
-4.97997e-05
0.00474401
-4.56541e-05
0.00476012
-4.18873e-05
-3.84577e-05
0.00477554
4.69832e-05
-4.10503e-05
0.000134182
-0.000201243
0.000245648
-0.000408311
0.000375415
-0.000630279
0.000520611
-0.000845019
0.000679608
-0.00103739
0.000851042
-0.0011984
0.0010332
-0.00132319
0.00122389
-0.00141025
0.00142054
-0.00146066
0.00162039
-0.00147743
0.00182068
-0.00146474
0.00201877
-0.00142744
0.00221232
-0.00137058
0.00239933
-0.00129912
0.00257821
-0.00121765
0.00274777
-0.0011303
0.00290723
-0.00104057
0.00305618
-0.000951339
0.00319453
-0.000864849
0.00332245
-0.000782734
0.00344033
-0.000706084
0.0035487
-0.000635526
0.00364819
-0.000571307
0.00373949
-0.000513383
0.0038233
-0.0004615
0.00390031
-0.000415263
0.0039712
-0.000374194
0.00403659
-0.000337785
0.00409704
-0.000305528
0.00415308
-0.000276937
0.00420518
-0.000251564
0.00425374
-0.000229006
0.00429914
-0.000208906
0.00434171
-0.000190952
0.00438174
-0.000174872
0.00441947
-0.000160434
0.00445514
-0.000147438
0.00448894
-0.000135712
0.00452105
-0.00012511
0.00455164
-0.000115505
0.00458084
-0.000106789
0.00460877
-9.88685e-05
0.00463555
-9.16639e-05
0.00466128
-8.51059e-05
0.00468606
-7.91352e-05
0.00470996
-7.37006e-05
0.00473306
-6.87565e-05
0.00475543
-6.42593e-05
-6.01592e-05
0.00477713
8.11247e-05
-0.000122175
0.000189176
-0.000309295
0.000302796
-0.000521931
0.000421807
-0.00074929
0.000547897
-0.000971109
0.000682739
-0.00117223
0.000827547
-0.00134321
0.000982644
-0.00147829
0.00114735
-0.00157495
0.00132012
-0.00163343
0.00149883
-0.00165614
0.00168102
-0.00164693
0.00186417
-0.00161058
0.00204583
-0.00155225
0.00222384
-0.00147713
0.00239634
-0.00139015
0.00256183
-0.0012958
0.00271924
-0.00119798
0.00286785
-0.00109995
0.00300729
-0.00100428
0.00313747
-0.000912914
0.00325855
-0.00082717
0.00337089
-0.000747862
0.00347495
-0.000675369
0.0035713
-0.00060973
0.00366053
-0.000550734
0.00374327
-0.000498002
0.00382012
-0.000451046
0.00389166
-0.000409325
0.00395843
-0.000372294
0.00402092
-0.000339422
0.00407957
-0.000310215
0.00413478
-0.000284223
0.00418692
-0.000261047
0.00423631
-0.000240333
0.00428321
-0.000221775
0.00432788
-0.000205107
0.00437055
-0.000190101
0.00441139
-0.000176561
0.0044506
-0.000164316
0.00448832
-0.000153223
0.00452469
-0.000143156
0.00455983
-0.000134007
0.00459385
-0.000125683
0.00462684
-0.000118105
0.00465891
-0.000111202
0.00469012
-0.000104914
0.00472056
-9.91896e-05
0.00475028
-9.39772e-05
0.00477934
-8.92229e-05
0.00478557
-1.22805e-05
8.28464e-09
0.00479753
-1.19643e-05
8.45747e-09
0.00480919
-1.16679e-05
8.65278e-09
0.00482055
-1.13769e-05
8.86931e-09
0.00483161
-1.10701e-05
9.10318e-09
0.00484233
-1.0721e-05
9.34634e-09
0.00485262
-1.03014e-05
9.5849e-09
0.0048624
-9.78839e-06
9.79932e-09
0.00487156
-9.17205e-06
9.96602e-09
0.00488001
-8.46236e-06
1.00593e-08
0.00488769
-7.69169e-06
1.00547e-08
0.00489459
-6.91082e-06
9.93487e-09
0.00490076
-6.17865e-06
9.69474e-09
0.0049063
-5.54866e-06
9.34171e-09
0.00491135
-5.05667e-06
8.89486e-09
0.00491606
-4.71412e-06
8.38212e-09
0.00492056
-4.50863e-06
7.83355e-09
0.00492496
-4.41068e-06
7.27412e-09
0.00492934
-4.38323e-06
6.72106e-09
0.00493372
-4.39069e-06
6.1848e-09
0.00493812
-4.40487e-06
5.67075e-09
0.00494252
-4.40736e-06
5.18161e-09
0.00494691
-4.38878e-06
4.71947e-09
0.00495125
-4.34661e-06
4.28523e-09
0.00495553
-4.28254e-06
3.87705e-09
0.00495972
-4.20025e-06
3.49052e-09
0.00496382
-4.10394e-06
3.12075e-09
0.00496782
-3.99751e-06
2.76425e-09
0.0049717
-3.88424e-06
2.41967e-09
0.00497547
-3.76668e-06
2.08752e-09
0.00497911
-3.6468e-06
1.76725e-09
0.00498264
-3.52602e-06
1.45585e-09
0.00498604
-3.40542e-06
1.15093e-09
0.00498932
-3.28577e-06
8.52798e-10
0.00499249
-3.16762e-06
5.67179e-10
0.00499554
-3.05141e-06
3.04397e-10
0.00499848
-2.93743e-06
7.53038e-11
0.00500131
-2.82588e-06
-1.16346e-10
0.00500402
-2.71689e-06
-2.7824e-10
0.00500663
-2.61054e-06
-4.24797e-10
0.00500914
-2.50686e-06
-5.71455e-10
0.00501155
-2.40589e-06
-7.25314e-10
0.00501386
-2.30761e-06
-8.8495e-10
0.00501607
-2.21203e-06
-1.04316e-09
0.00501819
-2.11914e-06
-1.205e-09
0.00502022
-2.02885e-06
-1.38084e-09
0.00502216
-1.94111e-06
-1.58439e-09
0.00502402
-1.85586e-06
-1.82562e-09
0.0050258
-1.77308e-06
-2.10236e-09
0.00502749
-1.69273e-06
-2.40597e-09
0.00502911
-1.61479e-06
-2.7235e-09
0.00503065
-1.53922e-06
-3.0342e-09
0.00503212
-1.46601e-06
-3.31242e-09
0.00503352
-1.39512e-06
-3.54874e-09
0.00503485
-1.32652e-06
-3.73162e-09
0.00503611
-1.26015e-06
-3.86356e-09
0.00503731
-1.19597e-06
-3.95342e-09
0.00503845
-1.13389e-06
-4.03746e-09
0.00503953
-1.07386e-06
-4.14833e-09
0.00504055
-1.01583e-06
-4.29834e-09
0.00504151