/*--------------------------------*- C++ -*----------------------------------*\
| =========                 |                                                 |
| \\      /  F ield         | OpenFOAM: The Open Source CFD Toolbox           |
|  \\    /   O peration     | Version:  2412                                  |
|   \\  /    A nd           | Website:  www.openfoam.com                      |
|    \\/     M anipulation  |                                                 |
\*---------------------------------------------------------------------------*/
FoamFile
{
    version     2.0;
    format      ascii;
    arch        "LSB;label=32;scalar=64";
    class       volVectorField;
    location    "6";
    object      U;
}
// * * * * * * * * * * * * * * * * * * * * * * * * * * * * * * * * * * * * * //

dimensions      [0 1 -1 0 0 0 0];

internalField   nonuniform List<vector> 
63420
(
(0.100095 -1.88279e-07 0)
(0.0999343 6.48877e-06 0)
(0.099961 1.6665e-05 0)
(0.0998032 2.37941e-05 0)
(0.0996718 2.33235e-05 0)
(0.0995603 1.79758e-05 0)
(0.0994814 1.18399e-05 0)
(0.0994352 7.48502e-06 0)
(0.0994049 5.45516e-06 0)
(0.0993797 5.14478e-06 0)
(0.0993536 5.75424e-06 0)
(0.0993237 6.70462e-06 0)
(0.0992898 7.68962e-06 0)
(0.0992522 8.59333e-06 0)
(0.0992115 9.39811e-06 0)
(0.0991683 1.01245e-05 0)
(0.099123 1.08013e-05 0)
(0.0990758 1.14546e-05 0)
(0.0990268 1.21045e-05 0)
(0.0989762 1.27656e-05 0)
(0.0989239 1.34485e-05 0)
(0.0988699 1.4161e-05 0)
(0.0988141 1.49089e-05 0)
(0.0987566 1.56969e-05 0)
(0.0986973 1.65287e-05 0)
(0.098636 1.74076e-05 0)
(0.0985728 1.83365e-05 0)
(0.0985075 1.93182e-05 0)
(0.09844 2.03555e-05 0)
(0.0983704 2.14512e-05 0)
(0.0982984 2.26081e-05 0)
(0.0982241 2.38293e-05 0)
(0.0981472 2.51177e-05 0)
(0.0980679 2.64766e-05 0)
(0.0979859 2.79093e-05 0)
(0.0979011 2.94195e-05 0)
(0.0978136 3.1011e-05 0)
(0.0977231 3.26881e-05 0)
(0.0976296 3.44552e-05 0)
(0.0975331 3.63171e-05 0)
(0.0974333 3.82792e-05 0)
(0.0973302 4.03472e-05 0)
(0.0972236 4.25272e-05 0)
(0.0971136 4.48263e-05 0)
(0.0969998 4.72519e-05 0)
(0.0968823 4.98127e-05 0)
(0.0967608 5.25185e-05 0)
(0.0966353 5.53801e-05 0)
(0.0965055 5.84102e-05 0)
(0.0963713 6.16226e-05 0)
(0.0962325 6.50329e-05 0)
(0.0960889 6.86572e-05 0)
(0.0959402 7.2513e-05 0)
(0.0957863 7.66242e-05 0)
(0.0956268 8.10421e-05 0)
(0.100095 -5.552e-07 0)
(0.0999343 1.93104e-05 0)
(0.0999625 4.95966e-05 0)
(0.0998071 7.09159e-05 0)
(0.0996774 6.96445e-05 0)
(0.0995667 5.38448e-05 0)
(0.0994875 3.56496e-05 0)
(0.0994404 2.27062e-05 0)
(0.0994089 1.66541e-05 0)
(0.0993828 1.57089e-05 0)
(0.0993558 1.75021e-05 0)
(0.0993255 2.03158e-05 0)
(0.0992912 2.32392e-05 0)
(0.0992533 2.59268e-05 0)
(0.0992126 2.8325e-05 0)
(0.0991693 3.04934e-05 0)
(0.099124 3.25171e-05 0)
(0.0990767 3.44726e-05 0)
(0.0990278 3.6419e-05 0)
(0.0989772 3.83998e-05 0)
(0.0989249 4.04464e-05 0)
(0.098871 4.25819e-05 0)
(0.0988153 4.48235e-05 0)
(0.0987579 4.71851e-05 0)
(0.0986986 4.96777e-05 0)
(0.0986374 5.23112e-05 0)
(0.0985742 5.50943e-05 0)
(0.098509 5.80355e-05 0)
(0.0984417 6.11429e-05 0)
(0.0983721 6.44251e-05 0)
(0.0983002 6.78903e-05 0)
(0.098226 7.15475e-05 0)
(0.0981493 7.54056e-05 0)
(0.0980701 7.94745e-05 0)
(0.0979882 8.37642e-05 0)
(0.0979036 8.82857e-05 0)
(0.0978162 9.30505e-05 0)
(0.0977259 9.80711e-05 0)
(0.0976326 0.000103361 0)
(0.0975362 0.000108934 0)
(0.0974366 0.000114807 0)
(0.0973337 0.000120996 0)
(0.0972274 0.000127519 0)
(0.0971176 0.000134398 0)
(0.0970042 0.000141656 0)
(0.0968869 0.000149317 0)
(0.0967658 0.00015741 0)
(0.0966406 0.000165969 0)
(0.0965112 0.00017503 0)
(0.0963775 0.000184634 0)
(0.0962391 0.000194827 0)
(0.096096 0.000205658 0)
(0.095948 0.000217176 0)
(0.0957947 0.000229453 0)
(0.0956359 0.000242637 0)
(0.100095 -8.95029e-07 0)
(0.0999343 3.17162e-05 0)
(0.0999653 8.15141e-05 0)
(0.0998146 0.00011691 0)
(0.0996885 0.000115236 0)
(0.0995794 8.95963e-05 0)
(0.0994994 5.98296e-05 0)
(0.0994504 3.85325e-05 0)
(0.0994168 2.84807e-05 0)
(0.0993887 2.68064e-05 0)
(0.0993603 2.96526e-05 0)
(0.0993289 3.42078e-05 0)
(0.0992939 3.89732e-05 0)
(0.0992557 4.33747e-05 0)
(0.0992146 4.73174e-05 0)
(0.0991713 5.08944e-05 0)
(0.0991259 5.4242e-05 0)
(0.0990787 5.74833e-05 0)
(0.0990298 6.07144e-05 0)
(0.0989792 6.40057e-05 0)
(0.098927 6.74085e-05 0)
(0.0988732 7.09603e-05 0)
(0.0988176 7.46898e-05 0)
(0.0987603 7.86192e-05 0)
(0.0987012 8.2767e-05 0)
(0.0986401 8.71492e-05 0)
(0.0985771 9.17805e-05 0)
(0.0985121 9.66747e-05 0)
(0.0984449 0.000101846 0)
(0.0983756 0.000107307 0)
(0.0983039 0.000113072 0)
(0.0982299 0.000119157 0)
(0.0981534 0.000125575 0)
(0.0980744 0.000132343 0)
(0.0979928 0.000139479 0)
(0.0979085 0.000146999 0)
(0.0978214 0.000154923 0)
(0.0977315 0.000163271 0)
(0.0976385 0.000172067 0)
(0.0975425 0.000181333 0)
(0.0974433 0.000191095 0)
(0.0973409 0.000201381 0)
(0.0972351 0.000212222 0)
(0.0971258 0.000223652 0)
(0.0970129 0.000235707 0)
(0.0968962 0.000248431 0)
(0.0967757 0.000261869 0)
(0.0966513 0.000276074 0)
(0.0965226 0.000291107 0)
(0.0963897 0.000307035 0)
(0.0962523 0.000323931 0)
(0.0961103 0.000341872 0)
(0.0959634 0.00036094 0)
(0.0958114 0.000381244 0)
(0.0956542 0.000403013 0)
(0.100094 -1.19268e-06 0)
(0.0999344 4.34398e-05 0)
(0.0999695 0.000111775 0)
(0.0998256 0.000161077 0)
(0.0997046 0.000159649 0)
(0.0995977 0.000125165 0)
(0.0995168 8.46149e-05 0)
(0.099465 5.53406e-05 0)
(0.0994283 4.13231e-05 0)
(0.0993974 3.87654e-05 0)
(0.0993669 4.24528e-05 0)
(0.099334 4.85524e-05 0)
(0.099298 5.50041e-05 0)
(0.0992591 6.10061e-05 0)
(0.0992177 6.64146e-05 0)
(0.0991742 7.1346e-05 0)
(0.0991287 7.598e-05 0)
(0.0990815 8.04807e-05 0)
(0.0990327 8.49768e-05 0)
(0.0989822 8.95635e-05 0)
(0.0989302 9.43101e-05 0)
(0.0988765 9.92677e-05 0)
(0.0988211 0.000104475 0)
(0.098764 0.000109963 0)
(0.0987051 0.000115756 0)
(0.0986442 0.000121878 0)
(0.0985815 0.000128347 0)
(0.0985167 0.000135184 0)
(0.0984498 0.000142407 0)
(0.0983807 0.000150034 0)
(0.0983094 0.000158087 0)
(0.0982357 0.000166584 0)
(0.0981596 0.000175546 0)
(0.098081 0.000184997 0)
(0.0979998 0.000194958 0)
(0.0979159 0.000205456 0)
(0.0978293 0.000216516 0)
(0.0977398 0.000228168 0)
(0.0976474 0.00024044 0)
(0.097552 0.000253367 0)
(0.0974534 0.000266984 0)
(0.0973516 0.000281329 0)
(0.0972465 0.000296444 0)
(0.0971379 0.000312376 0)
(0.0970259 0.000329175 0)
(0.0969101 0.000346898 0)
(0.0967906 0.000365608 0)
(0.0966672 0.000385379 0)
(0.0965397 0.000406289 0)
(0.0964081 0.000428429 0)
(0.0962721 0.000451897 0)
(0.0961316 0.000476795 0)
(0.0959864 0.000503229 0)
(0.0958363 0.000531339 0)
(0.0956812 0.000561417 0)
(0.100094 -1.44218e-06 0)
(0.0999345 5.42489e-05 0)
(0.0999749 0.000139789 0)
(0.0998396 0.0002028 0)
(0.099725 0.000202496 0)
(0.0996208 0.000160498 0)
(0.0995387 0.000110217 0)
(0.0994835 7.34626e-05 0)
(0.0994429 5.55209e-05 0)
(0.0994085 5.18723e-05 0)
(0.0993752 5.61173e-05 0)
(0.0993404 6.34985e-05 0)
(0.0993032 7.14287e-05 0)
(0.0992636 7.88803e-05 0)
(0.0992218 8.56491e-05 0)
(0.099178 9.18625e-05 0)
(0.0991324 9.77326e-05 0)
(0.0990853 0.000103457 0)
(0.0990365 0.000109192 0)
(0.0989862 0.000115053 0)
(0.0989343 0.000121126 0)
(0.0988808 0.000127475 0)
(0.0988257 0.000134147 0)
(0.0987688 0.00014118 0)
(0.0987102 0.000148606 0)
(0.0986497 0.000156453 0)
(0.0985873 0.000164747 0)
(0.0985228 0.000173511 0)
(0.0984563 0.00018277 0)
(0.0983876 0.000192547 0)
(0.0983167 0.000202867 0)
(0.0982434 0.000213757 0)
(0.0981678 0.000225241 0)
(0.0980897 0.000237349 0)
(0.0980091 0.000250111 0)
(0.0979258 0.000263557 0)
(0.0978397 0.000277721 0)
(0.0977509 0.000292639 0)
(0.0976592 0.00030835 0)
(0.0975645 0.000324894 0)
(0.0974668 0.000342317 0)
(0.0973658 0.000360667 0)
(0.0972617 0.000379996 0)
(0.0971541 0.000400362 0)
(0.0970431 0.000421828 0)
(0.0969286 0.000444465 0)
(0.0968103 0.000468351 0)
(0.0966883 0.000493574 0)
(0.0965623 0.000520232 0)
(0.0964323 0.000548433 0)
(0.0962982 0.000578296 0)
(0.0961597 0.000609943 0)
(0.0960167 0.000643497 0)
(0.0958692 0.000679116 0)
(0.0957169 0.000717127 0)
(0.100094 -1.64522e-06 0)
(0.0999347 6.39491e-05 0)
(0.0999811 0.000165079 0)
(0.0998559 0.000241584 0)
(0.0997487 0.000243467 0)
(0.0996476 0.000195556 0)
(0.099564 0.000136803 0)
(0.099505 9.31618e-05 0)
(0.0994598 7.13428e-05 0)
(0.0994214 6.63531e-05 0)
(0.099385 7.08158e-05 0)
(0.0993481 7.91635e-05 0)
(0.0993095 8.83231e-05 0)
(0.099269 9.70429e-05 0)
(0.0992266 0.000105045 0)
(0.0991826 0.000112453 0)
(0.099137 0.000119498 0)
(0.0990898 0.000126402 0)
(0.0990412 0.000133343 0)
(0.0989911 0.000140453 0)
(0.0989394 0.000147832 0)
(0.0988862 0.000155553 0)
(0.0988314 0.000163672 0)
(0.0987748 0.000172234 0)
(0.0987165 0.000181276 0)
(0.0986564 0.000190832 0)
(0.0985944 0.000200932 0)
(0.0985303 0.000211604 0)
(0.0984643 0.000222879 0)
(0.0983961 0.000234783 0)
(0.0983257 0.000247348 0)
(0.098253 0.000260603 0)
(0.098178 0.000274582 0)
(0.0981005 0.000289316 0)
(0.0980205 0.000304843 0)
(0.0979379 0.0003212 0)
(0.0978527 0.000338427 0)
(0.0977647 0.000356566 0)
(0.0976738 0.000375665 0)
(0.0975801 0.000395772 0)
(0.0974833 0.00041694 0)
(0.0973835 0.000439226 0)
(0.0972805 0.000462693 0)
(0.0971742 0.000487408 0)
(0.0970645 0.000513446 0)
(0.0969514 0.000540889 0)
(0.0968348 0.000569828 0)
(0.0967144 0.000600363 0)
(0.0965903 0.000632608 0)
(0.0964624 0.000666685 0)
(0.0963304 0.000702728 0)
(0.0961944 0.000740869 0)
(0.0960542 0.000781243 0)
(0.0959097 0.000824005 0)
(0.0957607 0.00086947 0)
(0.100093 -1.75417e-06 0)
(0.0999349 7.22775e-05 0)
(0.0999878 0.00018743 0)
(0.0998735 0.000277038 0)
(0.0997742 0.000282354 0)
(0.0996767 0.000230303 0)
(0.0995916 0.000164473 0)
(0.0995283 0.000114609 0)
(0.0994782 8.89647e-05 0)
(0.0994355 8.23576e-05 0)
(0.0993959 8.66618e-05 0)
(0.0993566 9.56263e-05 0)
(0.0993165 0.000105738 0)
(0.099275 0.000115524 0)
(0.0992322 0.000124617 0)
(0.0991879 0.00013312 0)
(0.0991422 0.00014127 0)
(0.0990951 0.000149304 0)
(0.0990466 0.000157412 0)
(0.0989967 0.000165742 0)
(0.0989453 0.000174402 0)
(0.0988924 0.000183473 0)
(0.0988379 0.000193019 0)
(0.0987818 0.000203089 0)
(0.0987239 0.000213727 0)
(0.0986642 0.000224971 0)
(0.0986027 0.000236855 0)
(0.0985392 0.000249413 0)
(0.0984737 0.000262678 0)
(0.098406 0.000276684 0)
(0.0983363 0.000291464 0)
(0.0982643 0.000307054 0)
(0.0981899 0.000323491 0)
(0.0981132 0.000340815 0)
(0.098034 0.000359065 0)
(0.0979523 0.000378287 0)
(0.097868 0.000398527 0)
(0.0977809 0.000419833 0)
(0.0976912 0.000442259 0)
(0.0975985 0.000465861 0)
(0.097503 0.0004907 0)
(0.0974044 0.000516841 0)
(0.0973028 0.000544355 0)
(0.097198 0.000573318 0)
(0.0970899 0.000603814 0)
(0.0969785 0.000635935 0)
(0.0968637 0.000669782 0)
(0.0967454 0.000705466 0)
(0.0966235 0.00074311 0)
(0.0964979 0.000782848 0)
(0.0963686 0.000824821 0)
(0.0962354 0.000869169 0)
(0.0960983 0.000916023 0)
(0.0959572 0.00096551 0)
(0.0958122 0.00101785 0)
(0.0954608 8.59282e-05 -5.05136e-24)
(0.0952866 9.10299e-05 -5.14263e-24)
(0.0951027 9.63178e-05 -3.32763e-26)
(0.0949088 0.000101662 1.57753e-23)
(0.0947048 0.000106976 -5.22693e-24)
(0.0944911 0.000112172 -5.37025e-24)
(0.0942682 0.000117132 -1.65108e-23)
(0.0940364 0.000121833 1.63991e-23)
(0.0937965 0.00012636 5.60319e-24)
(0.0935485 0.000130902 0)
(0.0932922 0.000135746 5.7784e-24)
(0.0930269 0.000141238 -5.87279e-24)
(0.092751 0.000147747 4.82449e-23)
(0.0924622 0.000155616 -1.03353e-22)
(0.0921578 0.000165125 5.52167e-23)
(0.0918345 0.000176479 4.46692e-23)
(0.0914887 0.000189804 5.73208e-23)
(0.0911169 0.000205162 -6.55697e-24)
(0.0907152 0.000222586 6.69493e-24)
(0.0902799 0.000242103 -6.84122e-24)
(0.0898072 0.000263771 0)
(0.0892931 0.000287696 7.1615e-24)
(0.0887337 0.000314051 -7.33705e-24)
(0.0881242 0.000343089 0)
(0.0874598 0.00037515 -7.72339e-24)
(0.0867346 0.000410671 0)
(0.0859422 0.000450196 -8.16385e-24)
(0.0850748 0.000494387 -1.36769e-22)
(0.0841236 0.000544049 1.45228e-22)
(0.0830781 0.000600154 -1.45784e-22)
(0.0819259 0.000663885 1.45562e-22)
(0.0806523 0.00073669 0)
(0.0792399 0.000820354 0)
(0.0776677 0.000917099 1.78725e-22)
(0.0759103 0.0010297 -1.68165e-22)
(0.0739371 0.00116166 0)
(0.0717105 0.00131731 0)
(0.0691843 0.00150205 0)
(0.0663022 0.00172227 0)
(0.0629958 0.00198511 0)
(0.0591836 0.00229752 0)
(0.0547729 0.0026642 0)
(0.049666 0.00308373 0)
(0.0437747 0.00354226 0)
(0.0370504 0.00400399 -1.69758e-23)
(0.0295325 0.00439815 -5.85807e-22)
(0.0214053 0.00460381 5.84928e-22)
(0.0130884 0.00443505 6.37997e-22)
(0.00563572 0.00360887 -6.3704e-22)
(0.00115571 0.00169087 0)
(0.0954706 0.000257217 -5.10599e-24)
(0.095297 0.000272454 -1.04003e-23)
(0.0951137 0.000288233 -5.43642e-24)
(0.0949204 0.000304307 5.08474e-24)
(0.0947171 0.000320318 -5.29514e-24)
(0.0945041 0.000335918 3.78942e-23)
(0.0942816 0.000350836 -5.95104e-23)
(0.0940501 0.000365026 5.52051e-24)
(0.0938101 0.00037874 7.35788e-23)
(0.0935616 0.000392538 -1.01627e-22)
(0.0933046 0.00040726 -9.90747e-23)
(0.0930381 0.000423934 8.73011e-23)
(0.0927606 0.000443643 0)
(0.09247 0.000467397 6.08278e-24)
(0.0921637 0.000496029 -1.85745e-23)
(0.0918385 0.000530142 -2.10383e-22)
(0.0914909 0.00057011 2.01746e-22)
(0.0911175 0.000616129 -2.14463e-22)
(0.0907146 0.000668297 -2.01154e-23)
(0.0902784 0.000726714 6.85622e-24)
(0.0898053 0.000791559 0)
(0.0892914 0.00086316 -7.18005e-24)
(0.0887325 0.000942049 -2.31204e-22)
(0.0881243 0.00102899 4.8305e-22)
(0.0874616 0.001125 2.6621e-22)
(0.0867389 0.00123141 -5.0227e-22)
(0.0859497 0.00134983 5.40595e-22)
(0.0850864 0.00148226 -5.48551e-22)
(0.0841403 0.00163109 -8.70306e-24)
(0.0831011 0.00179924 0)
(0.0819567 0.00199025 0)
(0.0806929 0.00220842 0)
(0.0792927 0.0024591 0)
(0.0777358 0.0027489 -1.0355e-23)
(0.0759979 0.00308609 -7.03223e-22)
(0.0740494 0.00348102 -3.06045e-23)
(0.0718547 0.00394665 7.31921e-22)
(0.0693699 0.00449887 7.99753e-22)
(0.0665418 0.00515657 -7.98694e-22)
(0.0633058 0.00594074 -2.66258e-23)
(0.0595851 0.00687163 -2.78942e-23)
(0.055292 0.00796253 -9.66597e-22)
(0.0503325 0.00920827 9.3469e-22)
(0.0446193 0.0105664 -3.20544e-23)
(0.038096 0.0119292 1.70945e-23)
(0.0307807 0.0130854 -1.19147e-21)
(0.0228146 0.0136747 1.19114e-21)
(0.0145436 0.0131452 -2.49415e-21)
(0.00687462 0.0106677 2.45244e-21)
(0.00166336 0.00496236 -2.51247e-21)
(0.0954902 0.000427074 -3.0225e-23)
(0.0953176 0.000452338 -1.05724e-23)
(0.0951355 0.00047856 4.08669e-23)
(0.0949436 0.000505317 -8.39245e-23)
(0.0947417 0.000532009 1.79501e-22)
(0.0945299 0.000558055 -8.49969e-23)
(0.0943084 0.000583081 1.47146e-26)
(0.0940774 0.00060704 1.10122e-23)
(0.0938374 0.000630337 1.91753e-22)
(0.0935884 0.000653883 -1.80372e-22)
(0.0933299 0.000679035 0)
(0.0930613 0.000707449 1.49303e-26)
(0.0927811 0.000740872 0)
(0.0924874 0.000780931 2.08882e-22)
(0.0921777 0.000828971 -1.84121e-22)
(0.0918491 0.000885972 -3.96251e-22)
(0.0914984 0.000952553 2.16687e-23)
(0.0911224 0.00102905 -4.16886e-22)
(0.0907174 0.00111566 1.34604e-23)
(0.09028 0.00121257 -4.45534e-22)
(0.0898065 0.00132012 4.5918e-22)
(0.0892931 0.0014389 -4.67335e-22)
(0.0887359 0.00156981 4.8166e-22)
(0.0881303 0.00171414 1.51499e-23)
(0.0874716 0.00187362 -1.55584e-23)
(0.0867542 0.00205044 1.59939e-23)
(0.0859717 0.0022473 -5.35461e-22)
(0.0851169 0.00246752 5.51942e-22)
(0.0841814 0.00271507 5.87198e-22)
(0.0831553 0.00299477 -5.69172e-22)
(0.0820271 0.00331248 0)
(0.0807833 0.00367532 0)
(0.079408 0.00409208 2.00238e-23)
(0.0778824 0.00457364 1.38099e-21)
(0.0761839 0.00513357 3.45172e-23)
(0.0742858 0.00578881 -1.39123e-21)
(0.0721557 0.00656042 0)
(0.0697545 0.0074742 -2.4409e-23)
(0.0670352 0.00856056 1.70499e-21)
(0.0639412 0.00985296 -3.40861e-21)
(0.0604049 0.0113831 3.62436e-21)
(0.0563482 0.0131703 1.16592e-22)
(0.0516851 0.015203 -1.89308e-21)
(0.0463288 0.0174075 -2.06655e-21)
(0.0402079 0.0196036 2.12977e-21)
(0.0332953 0.0214431 1.62191e-24)
(0.0256456 0.0223351 -3.65174e-23)
(0.0174582 0.0213747 2.40925e-21)
(0.0093325 0.0172425 -2.33295e-21)
(0.0026387 0.00794696 -2.33161e-21)
(0.0955193 0.000594659 1.99231e-23)
(0.0953483 0.000629731 -1.01008e-23)
(0.0951681 0.000666209 2.0213e-26)
(0.0949781 0.000703439 1.03757e-23)
(0.0947782 0.000740686 -2.03113e-26)
(0.0945683 0.000777235 1.72005e-22)
(0.0943484 0.0008126 -3.24886e-22)
(0.0941186 0.000846731 1.74532e-22)
(0.0938789 0.000880186 -1.11597e-23)
(0.0936294 0.000914193 2.05986e-22)
(0.0933695 0.000950567 -1.83214e-22)
(0.0930985 0.000991521 -3.79561e-22)
(0.0928151 0.00103938 7.66053e-22)
(0.0925176 0.00109632 -7.8048e-22)
(0.0922039 0.00116413 7.95631e-22)
(0.0918713 0.00124415 -7.98959e-22)
(0.091517 0.00133722 -4.22797e-22)
(0.091138 0.00144383 2.17031e-26)
(0.090731 0.00156432 0)
(0.0902926 0.00169902 -4.33966e-22)
(0.0898195 0.00184846 4.476e-22)
(0.0893079 0.00201352 0)
(0.088754 0.00219553 -9.64989e-22)
(0.0881533 0.00239632 9.49341e-22)
(0.0875013 0.00261834 1.57065e-23)
(0.0867926 0.00286465 -3.47808e-26)
(0.0860212 0.00313904 1.65962e-23)
(0.0851801 0.00344609 0)
(0.0842615 0.00379135 -5.05349e-26)
(0.0832562 0.0041815 0)
(0.0821535 0.00462462 -1.88416e-23)
(0.0809411 0.00513057 1.27442e-21)
(0.0796048 0.00571143 -1.27407e-21)
(0.0781276 0.00638212 -2.10894e-23)
(0.0764902 0.00716119 4.37071e-23)
(0.0746694 0.00807167 -1.50946e-21)
(0.0726382 0.00914203 1.46253e-21)
(0.0703647 0.0104068 2.4831e-23)
(0.0678111 0.0119065 -3.65173e-25)
(0.0649325 0.0136848 2.66468e-23)
(0.0616753 0.0157816 -1.8374e-21)
(0.0579761 0.0182188 3.72163e-21)
(0.0537599 0.0209738 -1.94375e-21)
(0.0489408 0.0239387 2.02718e-21)
(0.0434243 0.0268607 -2.12235e-21)
(0.0371144 0.0292632 -4.24598e-21)
(0.0299291 0.0303457 8.66881e-21)
(0.0218488 0.0288728 -4.39189e-21)
(0.013059 0.0230815 0)
(0.00408698 0.0105129 -4.11983e-21)
(0.0955575 0.000759124 -9.88231e-24)
(0.0953886 0.00080365 -4.03223e-23)
(0.0952108 0.000850006 1.22167e-22)
(0.0950234 0.000897461 -1.64846e-22)
(0.0948263 0.000945151 7.25783e-23)
(0.094619 0.000992244 1.06281e-23)
(0.0944015 0.00103818 -1.07966e-23)
(0.0941735 0.00108293 -2.56375e-26)
(0.093935 0.0011272 1.11576e-23)
(0.0936855 0.00117249 -2.26764e-23)
(0.0934246 0.00122101 -3.72672e-22)
(0.0931517 0.00127543 3.84606e-22)
(0.0928655 0.00133856 -3.75031e-22)
(0.0925646 0.00141302 3.87146e-22)
(0.0922472 0.001501 0)
(0.0919111 0.00160411 -2.45919e-26)
(0.0915538 0.00172344 0)
(0.0911726 0.00185967 -4.16711e-22)
(0.0907646 0.00201326 4.43788e-22)
(0.0903267 0.00218477 -1.39313e-23)
(0.0898556 0.00237497 -9.38445e-22)
(0.0893479 0.00258509 9.24591e-22)
(0.0887997 0.0028169 -1.50259e-23)
(0.0882071 0.0030728 0)
(0.0875656 0.00335596 0)
(0.0868701 0.00367031 -1.07625e-21)
(0.086115 0.00402069 1.04356e-21)
(0.085294 0.00441294 0)
(0.0843998 0.00485409 -3.58009e-23)
(0.0834242 0.0053526 0)
(0.0823578 0.00591868 1.91722e-23)
(0.0811899 0.00656472 -1.97794e-23)
(0.0799083 0.00730588 -2.05997e-23)
(0.078499 0.00816076 2.12654e-23)
(0.0769464 0.00915235 1.40123e-21)
(0.0752325 0.010309 -1.44619e-21)
(0.0733375 0.0116655 3.15428e-21)
(0.0712387 0.0132636 -3.1564e-21)
(0.0689107 0.0151514 3.36677e-21)
(0.0663243 0.01738 1.07782e-22)
(0.0634445 0.0199938 -3.55897e-21)
(0.0602271 0.0230126 -2.86295e-23)
(0.0566124 0.0263992 1.33116e-24)
(0.0525157 0.0300094 1.7915e-24)
(0.0478138 0.0335222 2.4049e-24)
(0.0423233 0.0363494 -6.28927e-23)
(0.0357791 0.0375178 -2.89416e-23)
(0.0278562 0.0355108 -2.74761e-23)
(0.0182041 0.0281431 0)
(0.00603243 0.012648 8.60962e-24)
(0.0956044 0.000919657 -4.90401e-23)
(0.0954381 0.000973286 2.9499e-23)
(0.0952632 0.00102923 1.00785e-23)
(0.0950791 0.0010867 1.54524e-22)
(0.0948854 0.00114475 -1.54591e-22)
(0.0946817 0.00120247 1.59649e-22)
(0.0944675 0.00125929 -3.54242e-22)
(0.0942423 0.00131522 5.03812e-22)
(0.0940059 0.00137111 -3.52799e-22)
(0.0937576 0.00142871 -3.65353e-22)
(0.093497 0.00149055 -1.80206e-23)
(0.0932233 0.00155967 7.40986e-22)
(0.0929356 0.00163927 -7.79875e-22)
(0.0926326 0.00173233 3.63612e-22)
(0.092313 0.00184134 3.91791e-22)
(0.0919749 0.00196818 4.08988e-22)
(0.0916163 0.00211414 -3.09282e-23)
(0.0912349 0.00228009 8.3358e-22)
(0.090828 0.00246674 8.59702e-22)
(0.0903929 0.00267485 2.11802e-23)
(0.0899266 0.00290555 -9.10896e-22)
(0.0894259 0.00316045 0)
(0.0888872 0.00344183 0)
(0.0883069 0.00375274 -1.01358e-21)
(0.0876806 0.00409705 9.99021e-22)
(0.087004 0.00447962 1.07567e-21)
(0.0862718 0.00490635 -1.07727e-21)
(0.0854786 0.00538431 0)
(0.0846179 0.00592204 1.20273e-21)
(0.0836828 0.00652972 -1.20506e-21)
(0.0826655 0.00721962 0)
(0.0815572 0.00800654 -2.61144e-21)
(0.0803486 0.00890848 2.63562e-21)
(0.0790292 0.00994734 -2.1802e-23)
(0.0775881 0.0111499 -2.92339e-21)
(0.076014 0.0125487 2.95049e-21)
(0.0742955 0.0141831 0)
(0.0724217 0.0160991 3.33295e-21)
(0.0703826 0.0183483 -3.31246e-21)
(0.0681684 0.0209826 2.69997e-23)
(0.0657677 0.0240425 3.69463e-21)
(0.0631608 0.0275352 -7.42972e-21)
(0.0603087 0.0313979 3.67745e-24)
(0.0571326 0.0354419 2.42824e-23)
(0.0534818 0.0392792 3.89879e-21)
(0.0490816 0.0422318 4.23446e-24)
(0.0434631 0.0432119 -3.36366e-21)
(0.0359103 0.0405345 3.44818e-21)
(0.0252723 0.0317743 0)
(0.00875772 0.0140313 3.01836e-23)
(0.0956595 0.00107544 9.66265e-24)
(0.0954963 0.00113752 8.89216e-23)
(0.095325 0.00120247 -7.92968e-23)
(0.0951449 0.00126945 1.01651e-23)
(0.0949555 0.00133747 1.56071e-22)
(0.0947562 0.00140561 -1.56328e-22)
(0.0945463 0.00147331 -3.34313e-22)
(0.0943253 0.00154064 5.30673e-24)
(0.0940924 0.0016086 -5.89309e-24)
(0.093847 0.00167915 3.70637e-22)
(0.0935885 0.00175509 -3.61408e-22)
(0.0933161 0.00183978 7.66589e-22)
(0.0930292 0.00193671 -3.81819e-22)
(0.0927266 0.00204913 1.23257e-23)
(0.0924075 0.00217977 1.26038e-23)
(0.0920702 0.00233074 8.32913e-22)
(0.0917132 0.00250355 -4.86959e-24)
(0.0913346 0.00269927 8.68846e-22)
(0.0909323 0.00291888 1.38715e-23)
(0.0905036 0.00316348 0)
(0.0900461 0.00343457 0)
(0.0895569 0.00373427 -9.72319e-22)
(0.0890327 0.00406545 9.74776e-22)
(0.0884703 0.00443186 0)
(0.0878659 0.00483822 1.63815e-23)
(0.0872157 0.00529037 0)
(0.0865154 0.00579535 -1.13102e-21)
(0.0857601 0.00636162 2.30271e-21)
(0.084945 0.00699926 -1.17176e-21)
(0.0840645 0.00772035 -2.4843e-21)
(0.0831129 0.00853933 -8.44937e-23)
(0.082084 0.00947354 -8.9699e-23)
(0.0809716 0.0105439 -9.49621e-23)
(0.0797697 0.0117756 2.79845e-21)
(0.0784729 0.0131989 3.01034e-21)
(0.0770772 0.0148501 -3.01751e-21)
(0.0755809 0.0167713 0)
(0.0739857 0.0190101 3.36272e-21)
(0.072298 0.0216159 -3.37052e-21)
(0.0705288 0.0246319 -3.60626e-21)
(0.0686914 0.02808 3.58645e-21)
(0.0667938 0.0319329 2.94774e-23)
(0.0648227 0.0360731 3.6599e-21)
(0.0627143 0.0402348 -1.02134e-22)
(0.0603081 0.0439343 -3.63302e-21)
(0.0572696 0.0464021 2.77956e-23)
(0.0529828 0.0465133 0)
(0.0464292 0.0426509 -2.20341e-23)
(0.035474 0.0326322 -1.01255e-21)
(0.0141169 0.0139434 4.95291e-22)
(-0.00022748 0.000213832 0)
(-0.000558911 9.52e-05 2.6948e-22)
(-0.000410852 -0.000289363 -2.69884e-22)
(0.000551836 -0.000785329 -2.39417e-22)
(0.0024423 -0.00130119 2.39776e-22)
(0.00522434 -0.00177662 -6.52976e-24)
(0.00879151 -0.00217738 0)
(0.0129959 -0.0024874 0)
(0.0176734 -0.0027027 0)
(0.0226603 -0.00282737 0)
(0.0278044 -0.00287063 0)
(0.0329718 -0.00284457 0)
(0.0380503 -0.00276249 0)
(0.0429511 -0.00263768 0)
(0.0476074 -0.00248262 0)
(0.0519738 -0.00230844 8.91564e-24)
(0.0560228 -0.00212463 -8.42913e-24)
(0.0597427 -0.00193894 0)
(0.0631341 -0.00175738 0)
(0.0662073 -0.00158434 -2.83826e-24)
(0.0689793 -0.00142277 2.8426e-24)
(0.0714715 -0.00127442 -2.17563e-24)
(0.0737078 -0.00114003 1.59044e-25)
(0.075713 -0.00101958 0)
(0.0775114 -0.000912523 1.75089e-25)
(0.0791261 -0.00081795 0)
(0.0805785 -0.000734749 0)
(0.081888 -0.000661723 0)
(0.0830718 -0.000597679 2.40555e-25)
(0.0841452 -0.000541483 0)
(0.0851214 -0.000492095 -2.725e-25)
(0.0860119 -0.000448587 2.86763e-25)
(0.0868268 -0.000410147 -2.99714e-25)
(0.0875744 -0.000376075 2.81957e-24)
(0.0882624 -0.000345771 -2.83372e-24)
(0.0888971 -0.000318729 -2.32635e-24)
(0.0894842 -0.000294519 5.03897e-24)
(0.0900284 -0.00027278 -2.72048e-24)
(0.090534 -0.000253204 -3.50466e-25)
(0.0910048 -0.000235535 3.55004e-25)
(0.0914442 -0.000219553 0)
(0.091855 -0.000205072 3.61414e-25)
(0.0922399 -0.000191935 -1.81514e-24)
(0.0926012 -0.000180008 1.81873e-24)
(0.0929412 -0.000169175 -3.6545e-25)
(0.0932617 -0.000159342 1.09452e-24)
(0.0935645 -0.000150424 -3.64917e-25)
(0.0938513 -0.000142351 -7.27212e-25)
(0.0941236 -0.000135052 3.63476e-25)
(0.0943829 -0.000128456 -3.61397e-25)
(-0.000223204 0.000591811 -1.09687e-21)
(-0.000391297 0.000177629 -1.13612e-21)
(0.000116567 -0.000968373 1.11926e-21)
(0.00145781 -0.00243229 -4.77885e-22)
(0.00368255 -0.0039472 4.7987e-22)
(0.00672913 -0.00533856 6.57488e-24)
(0.0104775 -0.00650871 -1.20171e-23)
(0.0147798 -0.00741204 -3.06606e-22)
(0.0194804 -0.00803767 2.96639e-22)
(0.0244283 -0.00839801 -7.23132e-24)
(0.0294855 -0.00852025 -5.86165e-24)
(0.0345322 -0.00843979 1.25802e-22)
(0.0394691 -0.00819548 -1.2597e-22)
(0.0442182 -0.00782609 -7.31281e-23)
(0.0487218 -0.00736804 1.86847e-23)
(0.0529407 -0.00685381 5.4614e-23)
(0.0568521 -0.00631116 -5.02531e-25)
(0.0604472 -0.00576276 -9.06944e-25)
(0.0637278 -0.00522625 0)
(0.0667045 -0.00471457 0)
(0.0693939 -0.00423645 0)
(0.0718163 -0.00379705 -1.63598e-25)
(0.0739944 -0.00339864 1.06189e-23)
(0.0759513 -0.00304124 -1.1594e-23)
(0.0777099 -0.00272329 1.2126e-23)
(0.0792921 -0.00244215 -5.71065e-24)
(0.080718 -0.0021946 -1.37286e-23)
(0.0820058 -0.00197714 7.12176e-24)
(0.0831719 -0.00178629 -2.41175e-25)
(0.0842307 -0.0016187 -5.44518e-25)
(0.0851949 -0.00147132 2.73095e-25)
(0.0860754 -0.00134141 -8.84203e-25)
(0.0868819 -0.00122658 9.564e-24)
(0.0876225 -0.00112476 -2.0429e-23)
(0.0883045 -0.00103417 9.89694e-24)
(0.0889341 -0.000953317 -1.00608e-24)
(0.0895167 -0.000880916 3.38663e-25)
(0.090057 -0.000815895 0)
(0.0905593 -0.000757341 -6.02532e-24)
(0.0910271 -0.000704487 5.31808e-24)
(0.0914638 -0.000656676 5.05034e-24)
(0.0918723 -0.000613355 -6.87317e-24)
(0.092255 -0.000574051 3.63347e-25)
(0.0926144 -0.000538361 1.82478e-24)
(0.0929526 -0.000505944 -3.29707e-24)
(0.0932715 -0.000476511 -3.65255e-25)
(0.0935727 -0.000449814 -2.55615e-24)
(0.0938581 -0.000425634 -3.59991e-25)
(0.0941289 -0.000403767 7.31956e-25)
(0.0943867 -0.000383991 1.08536e-24)
(-0.000202996 0.000789576 -1.18564e-21)
(-1.45605e-05 -3.58051e-05 1.21462e-21)
(0.00120704 -0.00192004 -1.17822e-21)
(0.00326223 -0.00428481 -1.67346e-23)
(0.00610931 -0.00670464 -8.53273e-25)
(0.00963986 -0.00891241 -8.37581e-22)
(0.0137124 -0.0107616 8.65198e-22)
(0.0181825 -0.0121839 6.47936e-22)
(0.0229126 -0.0131643 -9.3599e-23)
(0.0277763 -0.0137236 -9.68373e-22)
(0.0326626 -0.0139053 8.02425e-22)
(0.0374779 -0.0137655 -3.50857e-22)
(0.0421465 -0.0133656 -4.19534e-24)
(0.0466102 -0.0127668 0)
(0.0508271 -0.0120266 1.33051e-22)
(0.0547699 -0.0111962 -3.32804e-23)
(0.0584241 -0.0103198 -9.78795e-23)
(0.0617854 -0.00943339 2.1098e-24)
(0.0648586 -0.00856514 0)
(0.0676544 -0.00773586 0)
(0.0701886 -0.00695971 1.65792e-23)
(0.0724795 -0.0062452 -1.60139e-23)
(0.0745475 -0.00559618 -1.41032e-23)
(0.076413 -0.00501295 1.49234e-23)
(0.0780961 -0.00449318 5.13803e-25)
(0.0796163 -0.00403281 -5.20899e-25)
(0.0809914 -0.00362678 5.35078e-25)
(0.0822375 -0.00326957 -1.63418e-23)
(0.0833694 -0.00295561 1.69113e-23)
(0.0844 -0.00267957 -1.73691e-23)
(0.0853408 -0.00243653 1.85288e-23)
(0.0862018 -0.0022221 5.9923e-25)
(0.0869919 -0.0020324 2.0582e-23)
(0.0877187 -0.00186406 -4.11486e-23)
(0.0883889 -0.00171421 2.18667e-23)
(0.0890084 -0.00158039 1.17389e-23)
(0.0895822 -0.00146051 -1.03633e-23)
(0.0901149 -0.00135282 0)
(0.0906105 -0.00125581 -1.48575e-26)
(0.0910724 -0.00116823 0)
(0.0915039 -0.00108898 1.16845e-23)
(0.0919076 -0.00101717 -1.09781e-23)
(0.0922861 -0.000951997 7.41068e-25)
(0.0926417 -0.000892807 -8.08422e-27)
(0.0929763 -0.000839031 5.87976e-24)
(0.0932918 -0.000790187 -1.10276e-23)
(0.09359 -0.000745863 5.8746e-24)
(0.0938724 -0.000705696 -2.91944e-24)
(0.0941404 -0.000669341 2.19769e-24)
(0.0943954 -0.000636424 7.25629e-25)
(-7.22933e-05 0.00071943 -2.66927e-21)
(0.000735616 -0.000659026 0)
(0.0029447 -0.0032632 2.45258e-21)
(0.00596634 -0.00642095 -4.75836e-21)
(0.00963598 -0.00959701 2.32066e-21)
(0.0137843 -0.0124696 8.98609e-22)
(0.0182527 -0.0148633 -9.44087e-22)
(0.0229097 -0.0166966 7.03953e-22)
(0.0276458 -0.017953 -1.31022e-21)
(0.0323698 -0.0186609 5.965e-22)
(0.0370072 -0.0188771 7.46629e-24)
(0.0414986 -0.0186743 7.4908e-25)
(0.045799 -0.0181316 4.26716e-24)
(0.0498752 -0.0173281 -2.10729e-22)
(0.0537053 -0.0163382 2.04238e-22)
(0.0572768 -0.0152285 4.5172e-24)
(0.060585 -0.0140563 -1.55428e-24)
(0.0636321 -0.0128691 7.97056e-23)
(0.0664258 -0.011704 -7.93529e-23)
(0.0689773 -0.0105888 -1.07297e-24)
(0.0713011 -0.00954257 0)
(0.0734133 -0.008577 2.15474e-25)
(0.0753308 -0.00769775 0)
(0.0770707 -0.00690559 6.82991e-25)
(0.0786497 -0.00619789 1.37457e-25)
(0.0800838 -0.00556958 5.25833e-25)
(0.0813878 -0.00501417 -3.82656e-23)
(0.0825754 -0.0045245 3.78274e-23)
(0.0836589 -0.00409326 0)
(0.0846493 -0.00371343 -2.02842e-23)
(0.0855567 -0.0033785 2.10349e-23)
(0.0863897 -0.00308258 0)
(0.0871561 -0.00282047 -4.38344e-26)
(0.0878628 -0.00258764 -2.29554e-23)
(0.0885158 -0.00238021 4.56647e-23)
(0.0891205 -0.00219484 -4.56342e-23)
(0.0896814 -0.00202869 4.62466e-23)
(0.0902029 -0.00187935 -4.67032e-23)
(0.0906886 -0.00174478 2.34432e-23)
(0.0911418 -0.00162324 1.18714e-23)
(0.0915655 -0.00151324 -1.0386e-23)
(0.0919622 -0.00141352 -7.53391e-25)
(0.0923344 -0.00132301 -1.19158e-23)
(0.0926843 -0.00124077 2.53356e-23)
(0.0930136 -0.00116602 -1.19249e-23)
(0.0933243 -0.00109809 8.59531e-27)
(0.0936179 -0.00103642 7.34642e-25)
(0.0938959 -0.000980475 -6.62651e-27)
(0.0941597 -0.000929785 -7.2653e-25)
(0.0944105 -0.000883809 1.44772e-24)
(0.000272891 0.000371643 -2.45227e-24)
(0.00208025 -0.00175539 -2.51368e-23)
(0.00547891 -0.0050366 -2.32745e-23)
(0.00961064 -0.00882212 -2.14257e-23)
(0.014175 -0.0125563 -3.77995e-23)
(0.0189572 -0.0159056 -1.19841e-24)
(0.0238001 -0.0186862 1.4598e-23)
(0.0285987 -0.0208106 -1.38287e-23)
(0.0332816 -0.0222617 -1.19824e-23)