/*--------------------------------*- C++ -*----------------------------------*\
| =========                 |                                                 |
| \\      /  F ield         | OpenFOAM: The Open Source CFD Toolbox           |
|  \\    /   O peration     | Version:  2412                                  |
|   \\  /    A nd           | Website:  www.openfoam.com                      |
|    \\/     M anipulation  |                                                 |
\*---------------------------------------------------------------------------*/
FoamFile
{
    version     2.0;
    format      ascii;
    arch        "LSB;label=32;scalar=64";
    class       volVectorField;
    location    "6";
    object      vorticity;
}
// * * * * * * * * * * * * * * * * * * * * * * * * * * * * * * * * * * * * * //

dimensions      [0 0 -1 0 0 0 0];

internalField   nonuniform List<vector> 
63420
(
(0 0 2.25614e-05)
(0 0 5.81339e-05)
(0 0 4.66099e-05)
(0 0 -1.41705e-05)
(0 0 -7.7299e-05)
(0 0 -0.000106542)
(0 0 -0.000100223)
(0 0 -7.55965e-05)
(0 0 -4.91137e-05)
(0 0 -2.88662e-05)
(0 0 -1.61268e-05)
(0 0 -9.13893e-06)
(0 0 -5.69807e-06)
(0 0 -4.15606e-06)
(0 0 -3.52945e-06)
(0 0 -3.30765e-06)
(0 0 -3.25198e-06)
(0 0 -3.25897e-06)
(0 0 -3.28739e-06)
(0 0 -3.32171e-06)
(0 0 -3.35602e-06)
(0 0 -3.38764e-06)
(0 0 -3.41601e-06)
(0 0 -3.44087e-06)
(0 0 -3.46288e-06)
(0 0 -3.48169e-06)
(0 0 -3.49712e-06)
(0 0 -3.50816e-06)
(0 0 -3.51455e-06)
(0 0 -3.51558e-06)
(0 0 -3.51141e-06)
(0 0 -3.50172e-06)
(0 0 -3.48658e-06)
(0 0 -3.46559e-06)
(0 0 -3.43832e-06)
(0 0 -3.40409e-06)
(0 0 -3.36204e-06)
(0 0 -3.31144e-06)
(0 0 -3.25143e-06)
(0 0 -3.18134e-06)
(0 0 -3.10037e-06)
(0 0 -3.00766e-06)
(0 0 -2.90195e-06)
(0 0 -2.7816e-06)
(0 0 -2.64436e-06)
(0 0 -2.48749e-06)
(0 0 -2.30795e-06)
(0 0 -2.10341e-06)
(0 0 -1.87466e-06)
(0 0 -1.63055e-06)
(0 0 -1.39434e-06)
(0 0 -1.20144e-06)
(0 0 -1.0509e-06)
(0 0 -6.94979e-07)
(0 5.0123e-23 1.05481e-06)
(0 0 6.71583e-05)
(0 0 0.000172904)
(0 0 0.000139001)
(0 0 -4.11968e-05)
(0 0 -0.000228619)
(0 0 -0.00031564)
(0 0 -0.000297149)
(0 0 -0.00022427)
(0 0 -0.00014581)
(0 0 -8.57998e-05)
(0 0 -4.80374e-05)
(0 0 -2.73227e-05)
(0 0 -1.71209e-05)
(0 0 -1.25465e-05)
(0 0 -1.06849e-05)
(0 0 -1.00256e-05)
(0 0 -9.86153e-06)
(0 0 -9.88686e-06)
(0 0 -9.97775e-06)
(0 0 -1.00865e-05)
(0 0 -1.01951e-05)
(0 0 -1.02968e-05)
(0 0 -1.03893e-05)
(0 0 -1.04722e-05)
(0 0 -1.05454e-05)
(0 0 -1.06082e-05)
(0 0 -1.06599e-05)
(0 0 -1.06992e-05)
(0 0 -1.0725e-05)
(0 0 -1.07363e-05)
(0 0 -1.07325e-05)
(0 0 -1.07127e-05)
(0 0 -1.06764e-05)
(0 0 -1.06225e-05)
(0 0 -1.055e-05)
(0 0 -1.04573e-05)
(0 0 -1.03427e-05)
(0 0 -1.02043e-05)
(0 0 -1.00401e-05)
(0 0 -9.84784e-06)
(0 0 -9.62478e-06)
(0 0 -9.36767e-06)
(0 0 -9.07229e-06)
(0 0 -8.73332e-06)
(0 0 -8.34408e-06)
(0 0 -7.8965e-06)
(0 0 -7.38167e-06)
(0 0 -6.79249e-06)
(0 0 -6.13082e-06)
(0 0 -5.42215e-06)
(0 0 -4.73458e-06)
(0 0 -4.17321e-06)
(0 0 -3.73983e-06)
(0 0 -2.72113e-06)
(0 5.06033e-23 2.33427e-06)
(0 0 0.000110311)
(0 0 0.000283855)
(0 0 0.000229905)
(0 0 -6.36151e-05)
(0 0 -0.0003701)
(0 0 -0.000513258)
(0 0 -0.000484105)
(0 0 -0.000365819)
(0 0 -0.000238091)
(0 0 -0.00014028)
(0 0 -7.86922e-05)
(0 0 -4.48976e-05)
(0 0 -2.82537e-05)
(0 0 -2.07938e-05)
(0 0 -1.77621e-05)
(0 0 -1.66938e-05)
(0 0 -1.64348e-05)
(0 0 -1.6486e-05)
(0 0 -1.66446e-05)
(0 0 -1.68324e-05)
(0 0 -1.70198e-05)
(0 0 -1.71962e-05)
(0 0 -1.73579e-05)
(0 0 -1.75042e-05)
(0 0 -1.76343e-05)
(0 0 -1.77474e-05)
(0 0 -1.78419e-05)
(0 0 -1.79165e-05)
(0 0 -1.79694e-05)
(0 0 -1.79993e-05)
(0 0 -1.80049e-05)
(0 0 -1.7985e-05)
(0 0 -1.79382e-05)
(0 0 -1.78632e-05)
(0 0 -1.77581e-05)
(0 0 -1.76207e-05)
(0 0 -1.74484e-05)
(0 0 -1.72385e-05)
(0 0 -1.69878e-05)
(0 0 -1.66925e-05)
(0 0 -1.63483e-05)
(0 0 -1.59496e-05)
(0 0 -1.54897e-05)
(0 0 -1.49598e-05)
(0 0 -1.43492e-05)
(0 0 -1.36452e-05)
(0 0 -1.28336e-05)
(0 0 -1.1903e-05)
(0 0 -1.08567e-05)
(0 0 -9.73581e-06)
(0 0 -8.65083e-06)
(0 0 -7.77525e-06)
(0 0 -7.12923e-06)
(0 0 -5.62234e-06)
(0 2.98823e-22 2.12795e-06)
(0 0 0.000150999)
(0 0 0.000388728)
(0 0 0.000319168)
(0 0 -7.72354e-05)
(0 0 -0.000494143)
(0 0 -0.000690967)
(0 0 -0.000653923)
(0 0 -0.000495133)
(0 0 -0.000322737)
(0 0 -0.000190424)
(0 0 -0.00010701)
(0 0 -6.12098e-05)
(0 0 -3.8649e-05)
(0 0 -2.85422e-05)
(0 0 -2.44429e-05)
(0 0 -2.30081e-05)
(0 0 -2.26719e-05)
(0 0 -2.27569e-05)
(0 0 -2.29878e-05)
(0 0 -2.3258e-05)
(0 0 -2.35276e-05)
(0 0 -2.37826e-05)
(0 0 -2.40181e-05)
(0 0 -2.42329e-05)
(0 0 -2.44258e-05)
(0 0 -2.45955e-05)
(0 0 -2.47404e-05)
(0 0 -2.48584e-05)
(0 0 -2.49477e-05)
(0 0 -2.50065e-05)
(0 0 -2.50331e-05)
(0 0 -2.50259e-05)
(0 0 -2.49831e-05)
(0 0 -2.49028e-05)
(0 0 -2.47824e-05)
(0 0 -2.46194e-05)
(0 0 -2.44105e-05)
(0 0 -2.4152e-05)
(0 0 -2.384e-05)
(0 0 -2.34693e-05)
(0 0 -2.30342e-05)
(0 0 -2.25274e-05)
(0 0 -2.19397e-05)
(0 0 -2.12597e-05)
(0 0 -2.04736e-05)
(0 0 -1.95643e-05)
(0 0 -1.85137e-05)
(0 0 -1.73071e-05)
(0 0 -1.59494e-05)
(0 0 -1.44959e-05)
(0 0 -1.30959e-05)
(0 0 -1.19901e-05)
(0 0 -1.12448e-05)
(0 0 -9.53999e-06)
(0 -1.96268e-22 -1.00088e-07)
(0 0 0.00018813)
(0 0 0.000485662)
(0 0 0.000407516)
(0 0 -7.6911e-05)
(0 0 -0.000592432)
(0 0 -0.000839926)
(0 0 -0.000799225)
(0 0 -0.000606973)
(0 0 -0.000396392)
(0 0 -0.000234181)
(0 0 -0.000131713)
(0 0 -7.53828e-05)
(0 0 -4.76202e-05)
(0 0 -3.51858e-05)
(0 0 -3.01513e-05)
(0 0 -2.84003e-05)
(0 0 -2.80036e-05)
(0 0 -2.81261e-05)
(0 0 -2.84283e-05)
(0 0 -2.87788e-05)
(0 0 -2.91288e-05)
(0 0 -2.94612e-05)
(0 0 -2.97702e-05)
(0 0 -3.0054e-05)
(0 0 -3.03114e-05)
(0 0 -3.05406e-05)
(0 0 -3.07395e-05)
(0 0 -3.09062e-05)
(0 0 -3.10385e-05)
(0 0 -3.11343e-05)
(0 0 -3.11917e-05)
(0 0 -3.12088e-05)
(0 0 -3.11834e-05)
(0 0 -3.1113e-05)
(0 0 -3.0995e-05)
(0 0 -3.08262e-05)
(0 0 -3.06028e-05)
(0 0 -3.03206e-05)
(0 0 -2.99747e-05)
(0 0 -2.95593e-05)
(0 0 -2.90674e-05)
(0 0 -2.84903e-05)
(0 0 -2.78171e-05)
(0 0 -2.70346e-05)
(0 0 -2.61261e-05)
(0 0 -2.50722e-05)
(0 0 -2.38513e-05)
(0 0 -2.24471e-05)
(0 0 -2.0866e-05)
(0 0 -1.91762e-05)
(0 0 -1.75609e-05)
(0 0 -1.63288e-05)
(0 0 -1.56347e-05)
(0 0 -1.41395e-05)
(0 9.68982e-23 -4.39833e-06)
(0 0 0.000220606)
(0 0 0.000573323)
(0 0 0.000496305)
(0 0 -5.72653e-05)
(0 0 -0.00065692)
(0 0 -0.000951858)
(0 0 -0.000913212)
(0 0 -0.000696524)
(0 0 -0.000455937)
(0 0 -0.000269583)
(0 0 -0.000151498)
(0 0 -8.64585e-05)
(0 0 -5.43666e-05)
(0 0 -3.99875e-05)
(0 0 -3.41702e-05)
(0 0 -3.21548e-05)
(0 0 -3.17085e-05)
(0 0 -3.18638e-05)
(0 0 -3.22274e-05)
(0 0 -3.26472e-05)
(0 0 -3.3067e-05)
(0 0 -3.34671e-05)
(0 0 -3.38411e-05)
(0 0 -3.41867e-05)
(0 0 -3.45025e-05)
(0 0 -3.47866e-05)
(0 0 -3.50367e-05)
(0 0 -3.52506e-05)
(0 0 -3.54262e-05)
(0 0 -3.55612e-05)
(0 0 -3.56536e-05)
(0 0 -3.57012e-05)
(0 0 -3.57016e-05)
(0 0 -3.5652e-05)
(0 0 -3.55496e-05)
(0 0 -3.53908e-05)
(0 0 -3.51715e-05)
(0 0 -3.4887e-05)
(0 0 -3.4532e-05)
(0 0 -3.41e-05)
(0 0 -3.35832e-05)
(0 0 -3.29721e-05)
(0 0 -3.22547e-05)
(0 0 -3.14163e-05)
(0 0 -3.04391e-05)
(0 0 -2.93016e-05)
(0 0 -2.7981e-05)
(0 0 -2.64598e-05)
(0 0 -2.4747e-05)
(0 0 -2.29207e-05)
(0 0 -2.11941e-05)
(0 0 -1.99459e-05)
(0 0 -1.94803e-05)
(0 0 -1.87288e-05)
(0 4.7811e-22 -1.04855e-05)
(0 0 0.000247812)
(0 0 0.000651019)
(0 0 0.00058697)
(0 0 -1.39258e-05)
(0 0 -0.000681395)
(0 0 -0.00102053)
(0 0 -0.000990825)
(0 0 -0.00076021)
(0 0 -0.000499036)
(0 0 -0.000295122)
(0 0 -0.000165331)
(0 0 -9.36392e-05)
(0 0 -5.81961e-05)
(0 0 -4.22946e-05)
(0 0 -3.5856e-05)
(0 0 -3.36249e-05)
(0 0 -3.31316e-05)
(0 0 -3.33054e-05)
(0 0 -3.37105e-05)
(0 0 -3.41786e-05)
(0 0 -3.46478e-05)
(0 0 -3.50964e-05)
(0 0 -3.55175e-05)
(0 0 -3.59087e-05)
(0 0 -3.62681e-05)
(0 0 -3.65939e-05)
(0 0 -3.68837e-05)
(0 0 -3.71353e-05)
(0 0 -3.73465e-05)
(0 0 -3.75151e-05)
(0 0 -3.76389e-05)
(0 0 -3.77157e-05)
(0 0 -3.77429e-05)
(0 0 -3.77177e-05)
(0 0 -3.76369e-05)
(0 0 -3.74969e-05)
(0 0 -3.72933e-05)
(0 0 -3.70212e-05)
(0 0 -3.66749e-05)
(0 0 -3.62477e-05)
(0 0 -3.57312e-05)
(0 0 -3.51155e-05)
(0 0 -3.43882e-05)
(0 0 -3.35341e-05)
(0 0 -3.25346e-05)
(0 0 -3.13679e-05)
(0 0 -3.00107e-05)
(0 0 -2.84461e-05)
(0 0 -2.66852e-05)
(0 0 -2.48141e-05)
(0 0 -2.30697e-05)
(0 0 -2.19028e-05)
(0 0 -2.18452e-05)
(0 0 -2.25263e-05)
(0 -9.35799e-23 -1.81974e-05)
(-1.48989e-23 8.04231e-21 -3.67015e-06)
(-1.61277e-22 7.90112e-21 -9.29835e-06)
(3.88871e-23 -2.16452e-22 -1.77253e-05)
(3.30969e-23 -2.36119e-20 -2.92465e-05)
(-1.02344e-22 8.08718e-21 -4.36041e-05)
(4.05945e-22 7.93937e-21 -5.97718e-05)
(-8.70779e-22 2.31121e-20 -7.5899e-05)
(3.38265e-22 -2.35212e-20 -8.9467e-05)
(6.84146e-22 -7.55322e-21 -9.76772e-05)
(-9.87384e-22 -3.99098e-24 -9.7998e-05)
(-9.93501e-22 -7.58786e-21 -8.87207e-05)
(8.72147e-22 7.18366e-21 -6.93621e-05)
(5.78515e-22 -5.94715e-20 -4.07987e-05)
(-1.04692e-21 1.27903e-19 -5.10018e-06)
(3.36991e-22 -6.89669e-20 3.4875e-05)
(-1.38323e-21 -5.20338e-20 7.59932e-05)
(2.51602e-21 -6.62154e-20 0.00011534)
(-2.01122e-21 7.85772e-21 0.000150619)
(-2.19738e-22 -7.30644e-21 0.000180347)
(9.29247e-23 7.32574e-21 0.000203845)
(-3.42147e-24 -1.39945e-22 0.000221102)
(-8.79492e-23 -7.07643e-21 0.000232579)
(-2.16858e-21 7.15695e-21 0.000239016)
(4.56605e-21 1.39506e-23 0.000241246)
(1.3462e-21 6.96528e-21 0.000240054)
(-3.55505e-21 -5.83257e-24 0.000236097)
(5.12895e-21 8.19015e-21 0.000229861)
(-5.84829e-21 1.05508e-19 0.000221654)
(5.7935e-22 -1.13383e-19 0.000211615)
(-2.14905e-21 1.03969e-19 0.000199738)
(2.08961e-21 -1.05219e-19 0.000185884)
(5.25739e-23 1.45378e-21 0.000169779)
(-6.85309e-23 -1.78741e-21 0.000150959)
(2.78225e-21 -1.00382e-19 0.000128632)
(-9.19408e-21 9.75699e-20 0.000101336)
(-3.50747e-22 -1.68016e-21 6.62054e-05)
(6.74874e-21 1.47602e-23 1.74276e-05)
(7.36032e-21 1.60978e-23 -5.68232e-05)
(-7.33677e-21 -1.60462e-23 -0.00018011)
(-2.44125e-22 -5.33926e-25 -0.000397604)
(-2.55277e-22 -5.58316e-25 -0.000791501)
(-8.8294e-21 -1.93108e-23 -0.00150229)
(8.52204e-21 1.86385e-23 -0.00275341)
(-2.83223e-22 1.69134e-22 -0.00487267)
(-2.19513e-24 8.73099e-21 -0.00829902)
(-2.73488e-20 5.61328e-20 -0.013561)
(2.63286e-20 -7.42612e-20 -0.021212)
(-6.40663e-21 -1.06061e-20 -0.0317105)
(7.02854e-21 2.91458e-20 -0.045243)
(-2.29634e-20 -6.41208e-21 -0.0613873)
(-2.78978e-22 8.06118e-21 -1.1304e-05)
(-1.03009e-22 1.58451e-20 -2.79016e-05)
(3.49266e-22 7.70035e-21 -5.28052e-05)
(-9.67426e-22 -7.91834e-21 -8.69154e-05)
(1.79347e-21 7.53055e-21 -0.000129511)
(-5.98927e-22 -5.41183e-20 -0.000177627)
(-1.54288e-22 8.60441e-20 -0.000225865)
(-6.86273e-23 -9.0788e-21 -0.000266861)
(2.25751e-21 -9.90982e-20 -0.000292426)
(-2.29056e-21 1.40188e-19 -0.000295143)
(-6.92098e-22 1.27967e-19 -0.000269996)
(4.88871e-22 -1.1535e-19 -0.000215542)
(-4.30061e-22 8.08167e-22 -0.000134313)
(3.05546e-21 -7.34247e-21 -3.23193e-05)
(-2.33072e-21 2.46515e-20 8.2125e-05)
(-5.89228e-21 2.43506e-19 0.000199899)
(1.16796e-21 -2.2943e-19 0.000312514)
(-5.44406e-21 2.4603e-19 0.000413255)
(-2.56305e-22 1.97802e-20 0.000497786)
(-4.19204e-21 -7.49772e-21 0.00056414)
(4.4167e-21 1.57926e-22 0.000612239)
(-4.41018e-21 9.46275e-21 0.000643403)
(1.81542e-21 2.14961e-19 0.000659742)
(4.97417e-21 -4.56416e-19 0.000663623)
(4.08986e-21 -2.18133e-19 0.000657277)
(-6.08058e-21 4.4194e-19 0.000642555)
(2.28598e-21 -4.42219e-19 0.000620804)
(-4.22128e-22 4.54071e-19 0.000592847)
(3.58247e-21 1.22839e-21 0.00055901)
(-4.03594e-21 -1.05727e-22 0.000519184)
(-1.35538e-21 -2.96435e-24 0.000472865)
(0 0 0.000419139)
(2.00597e-22 1.04094e-22 0.000356521)
(1.20275e-20 1.31772e-20 0.000282519)
(-1.4511e-20 3.77156e-19 0.000192602)
(-1.69742e-20 -2.47551e-20 7.79435e-05)
(1.74376e-20 -3.73539e-19 -7.92859e-05)
(2.57864e-20 -3.24379e-19 -0.000315275)
(-6.97447e-21 3.4735e-19 -0.000702001)
(-3.40435e-20 2.09096e-21 -0.00137715)
(3.36496e-20 1.88398e-20 -0.00259071)
(-4.27782e-20 2.5252e-19 -0.00476879)
(2.15886e-20 -2.63152e-19 -0.00858739)
(-1.99619e-20 1.60979e-20 -0.0150357)
(2.22613e-20 8.7523e-21 -0.0254355)
(-6.49559e-20 1.25324e-19 -0.0413762)
(6.49259e-20 -1.22591e-19 -0.0645189)
(-1.02227e-19 9.27041e-20 -0.0962212)
(9.86095e-20 -1.03665e-19 -0.136969)
(-2.11848e-20 -7.13198e-22 -0.183951)
(1.6927e-23 4.77033e-20 -1.89262e-05)
(-7.77642e-23 1.50284e-20 -4.57457e-05)
(3.45182e-22 -6.24263e-20 -8.61315e-05)
(-7.03298e-22 1.24274e-19 -0.000141612)
(1.56774e-21 -2.66351e-19 -0.000211141)
(6.25831e-22 1.26839e-19 -0.000290108)
(-2.69553e-21 -9.61582e-22 -0.000370022)
(1.69252e-21 -1.73959e-20 -0.000439244)
(1.04231e-21 -2.60235e-19 -0.000484798)
(1.39577e-21 2.48298e-19 -0.000494898)
(-9.46333e-22 -1.79486e-21 -0.00046153)
(-4.6198e-21 -1.85686e-23 -0.000382324)
(7.35148e-21 -2.03303e-21 -0.000261176)
(-5.30952e-21 -2.54836e-19 -0.000107481)
(6.52064e-21 2.32192e-19 6.57299e-05)
(-1.06218e-20 4.61277e-19 0.000244144)
(-5.4727e-21 -1.28299e-20 0.000414421)
(-3.1146e-21 4.75307e-19 0.000565983)
(3.93674e-22 -1.44461e-20 0.000691998)
(-1.13519e-20 4.62979e-19 0.000789259)
(1.11823e-20 -4.8114e-19 0.000857562)
(-7.71977e-21 4.60687e-19 0.000898826)
(2.13688e-22 -4.79499e-19 0.000916198)
(5.6315e-21 -9.26189e-21 0.00091321)
(-2.74091e-21 1.40846e-20 0.00089317)
(5.95972e-21 -8.78728e-21 0.00085877)
(-1.78635e-20 4.34807e-19 0.0008119)
(1.57162e-20 -4.64385e-19 0.000753599)
(1.70378e-20 -4.31792e-19 0.000684108)
(-1.35358e-20 4.34701e-19 0.000602946)
(-1.18336e-21 -5.64924e-21 0.000508977)
(1.22586e-20 -1.32657e-22 0.000400358)
(-1.4167e-20 -2.64712e-20 0.000274273)
(4.9976e-20 -7.98354e-19 0.000126167)
(1.77878e-20 5.80264e-20 -5.20207e-05)
(-6.833e-20 7.53942e-19 -0.000275737)
(4.35456e-21 -1.3518e-20 -0.000575919)
(-1.23975e-20 -5.85516e-21 -0.00101508)
(1.0966e-19 -6.40893e-19 -0.00171713)
(-2.02715e-19 1.26337e-18 -0.00291837)
(2.06583e-19 -1.26357e-18 -0.00504619)
(7.94944e-20 9.00218e-20 -0.00882618)
(-1.62507e-19 5.58383e-19 -0.0154045)
(-1.74144e-19 3.88909e-19 -0.0264521)
(1.63655e-19 -4.62599e-19 -0.0441965)
(-2.51632e-20 2.18334e-20 -0.0713148)
(6.22909e-20 -1.97201e-20 -0.110606)
(1.84286e-19 -1.14704e-19 -0.164324)
(-1.99791e-19 1.79868e-19 -0.233087)
(-2.869e-20 -4.64463e-20 -0.307097)
(3.97461e-22 -3.14415e-20 -2.63045e-05)
(-3.83813e-22 1.59267e-20 -6.23166e-05)
(7.75448e-22 -1.90531e-22 -0.000116784)
(-7.11303e-22 -1.56613e-20 -0.000191852)
(-1.07824e-21 -1.60452e-21 -0.000286337)
(3.15805e-21 -2.45735e-19 -0.000394419)
(-4.12439e-21 4.65978e-19 -0.000505214)
(1.92571e-21 -2.51224e-19 -0.000603693)
(-1.97031e-21 1.5127e-20 -0.000673023)
(4.42484e-21 -2.75051e-19 -0.000697847)
(-5.62149e-21 2.51599e-19 -0.000667644)
(-2.46522e-21 4.79298e-19 -0.000579157)
(7.61486e-21 -9.71337e-19 -0.000437218)
(-9.70159e-21 9.71398e-19 -0.000253763)
(1.40482e-20 -9.67743e-19 -4.54309e-05)
(-7.34967e-21 9.60954e-19 0.00016945)
(-8.1746e-21 4.87997e-19 0.000373753)
(-7.54818e-22 -4.16436e-21 0.000553861)
(4.96484e-21 4.30317e-21 0.000700865)
(-5.46102e-21 4.5246e-19 0.000810487)
(-5.204e-21 -4.75773e-19 0.000882169)
(1.62572e-20 1.40033e-20 0.000918043)
(-3.03533e-20 9.15807e-19 0.000921765)
(2.1469e-20 -9.20041e-19 0.00089745)
(2.39945e-21 -4.92635e-21 0.000848884)
(-1.07301e-20 -8.17797e-23 0.000779036)
(1.61258e-20 -1.39524e-20 0.000689803)
(-5.28122e-21 1.35462e-22 0.00058194)
(-5.83475e-21 -5.04225e-23 0.000455111)
(5.52147e-21 2.14819e-22 0.000307976)
(-3.9234e-21 8.25591e-22 0.000138247)
(5.92445e-20 -8.2379e-19 -5.73886e-05)
(-5.28067e-20 8.48518e-19 -0.000283678)
(-1.74998e-20 -3.80125e-22 -0.000547901)
(2.02252e-20 -1.01155e-20 -0.000862425)
(-9.545e-20 7.63909e-19 -0.00125032)
(1.14154e-19 -7.68564e-19 -0.00175714)
(-2.5295e-20 2.8734e-21 -0.00247425)
(1.77772e-20 -6.25572e-23 -0.00358211)
(4.2134e-20 7.66287e-21 -0.00542387)
(-2.58136e-19 5.83771e-19 -0.00861824)
(3.7471e-19 -1.18933e-18 -0.014212)
(-1.82538e-19 6.04789e-19 -0.0238529)
(2.78453e-19 -4.68348e-19 -0.0399379)
(-2.68088e-19 5.54179e-19 -0.0656652)
(-6.46999e-19 5.75295e-19 -0.104903)
(1.2268e-18 -1.22785e-18 -0.161754)
(-6.04368e-19 6.24039e-19 -0.239544)
(2.1346e-20 -2.55151e-21 -0.338843)
(5.1782e-21 -3.97197e-20 -0.43433)
(-7.90722e-22 1.60228e-20 -3.30145e-05)
(-1.75637e-22 6.11282e-20 -7.72844e-05)
(1.80154e-21 -1.85897e-19 -0.000144455)
(-9.05529e-22 2.4973e-19 -0.000237155)
(-5.49795e-22 -1.10741e-19 -0.000354234)
(8.97795e-23 -1.47148e-20 -0.000489204)
(-4.87286e-22 1.56049e-20 -0.000629659)
(3.352e-21 -2.08051e-22 -0.000758297)
(-3.24724e-21 -1.52402e-20 -0.000855601)
(-5.68797e-21 3.45488e-20 -0.000903651)
(-5.38555e-21 4.87585e-19 -0.000890026)
(1.79883e-20 -5.07121e-19 -0.000810654)
(-2.24497e-20 4.73722e-19 -0.000670788)
(1.81323e-20 -4.93063e-19 -0.000483891)
(-3.31747e-21 3.75519e-21 -0.000268901)
(1.20952e-20 5.92461e-23 -4.67768e-05)
(4.61155e-21 4.09039e-21 0.000162799)
(-2.27543e-21 4.6209e-19 0.000344054)
(1.85229e-20 -5.00675e-19 0.000486522)
(7.06849e-21 2.84788e-20 0.000584872)
(-4.22541e-20 9.55897e-19 0.000637928)
(2.40481e-20 -9.59873e-19 0.000647496)
(1.12833e-20 2.38177e-20 0.000617048)
(-1.98011e-20 -2.55976e-22 0.000550505)
(1.29555e-20 1.05639e-20 0.000451349)
(-3.29936e-20 9.24498e-19 0.000322046)
(2.58108e-20 -9.17044e-19 0.000163743)
(3.10995e-21 1.05473e-20 -2.38389e-05)
(1.07955e-20 2.81862e-20 -0.000242378)
(-1.26166e-20 -6.02285e-22 -0.000494882)
(1.12592e-21 -1.35234e-20 -0.000785646)
(-4.07194e-20 1.37532e-20 -0.0011204)
(3.87029e-20 1.31337e-20 -0.00150685)
(-3.68113e-21 -2.70555e-20 -0.00195612)
(7.5169e-20 -7.74262e-19 -0.00248603)
(-6.48608e-20 7.97832e-19 -0.00312855)
(2.59975e-19 -1.54461e-18 -0.00394522)
(-2.3501e-19 1.56016e-18 -0.00505821)
(2.97257e-19 -1.47143e-18 -0.00670781)
(7.87355e-20 1.37404e-19 -0.00935048)
(-3.45967e-19 1.40643e-18 -0.0138092)
(-1.34753e-19 -2.50764e-20 -0.0214764)
(1.82598e-20 3.68939e-22 -0.0345452)
(-2.07842e-20 5.66732e-22 -0.056216)
(6.13652e-20 1.82217e-21 -0.0908011)
(3.00983e-20 1.49635e-20 -0.143646)
(-1.28344e-19 5.66136e-21 -0.220716)
(7.34213e-20 5.55911e-21 -0.327307)
(-1.88061e-22 -3.53057e-22 -0.464492)
(4.08627e-20 7.22176e-22 -0.577113)
(-5.85899e-22 7.70427e-20 -3.86783e-05)
(1.72046e-21 -4.70463e-20 -9.11685e-05)
(-1.89922e-21 -1.66884e-20 -0.000170321)
(4.52828e-21 -2.30339e-19 -0.000278967)
(-1.87763e-21 2.32376e-19 -0.000416216)
(1.48631e-21 -2.2993e-19 -0.000575532)
(-1.04013e-20 5.07207e-19 -0.00074398)
(1.00648e-20 -7.11062e-19 -0.000903229)
(-6.28709e-21 5.03608e-19 -0.00103239)
(-4.07092e-21 4.90383e-19 -0.00111209)
(-2.07932e-21 3.36606e-21 -0.00112871)
(2.13405e-20 -9.64015e-19 -0.00107745)
(-1.72015e-20 1.00476e-18 -0.000963468)
(2.58133e-21 -4.73615e-19 -0.000800709)
(9.73554e-21 -4.75699e-19 -0.000609069)
(2.06989e-20 -4.68462e-19 -0.000410746)
(-3.07501e-21 7.26737e-21 -0.000226784)
(3.41526e-20 -9.72764e-19 -7.42664e-05)
(2.41046e-20 -9.34436e-19 3.51585e-05)
(6.94501e-21 2.19396e-20 9.50748e-05)
(-2.02728e-20 9.72076e-19 0.000103284)
(-2.2109e-20 -8.8825e-21 6.06052e-05)
(1.34944e-20 9.81428e-21 -3.05072e-05)
(-4.53515e-20 9.44641e-19 -0.000167251)
(3.50643e-20 -9.61499e-19 -0.000347422)
(6.85929e-20 -9.2332e-19 -0.000570045)
(-6.99163e-20 9.55661e-19 -0.000835737)
(1.6524e-20 -2.19352e-20 -0.00114687)
(6.09717e-20 -9.24883e-19 -0.00150759)
(-9.13307e-20 9.49834e-19 -0.00192381)
(4.79343e-21 1.35559e-20 -0.00240322)
(-1.95925e-19 1.74552e-18 -0.0029555)
(1.73828e-19 -1.81373e-18 -0.00359298)
(5.35271e-20 6.74294e-20 -0.00433234)
(-2.54878e-19 1.66198e-18 -0.00519856)
(2.29999e-19 -1.7359e-18 -0.00623369)
(-3.49091e-20 -3.82576e-21 -0.00751568)
(4.71952e-19 -1.57448e-18 -0.00919648)
(-4.38926e-19 1.62925e-18 -0.0115736)
(-7.4463e-20 -8.00119e-20 -0.0152135)
(6.99189e-19 -1.38744e-18 -0.0211439)
(-1.21911e-18 2.87785e-18 -0.0311162)
(-7.92905e-20 -1.61337e-19 -0.0479124)
(-1.07705e-19 -1.24519e-19 -0.0756382)
(8.16699e-19 -1.2723e-18 -0.119937)
(4.49576e-20 7.15589e-20 -0.18812)
(-9.64954e-19 8.62806e-19 -0.289259)
(9.44973e-19 -9.50708e-19 -0.433693)
(1.08368e-20 3.30371e-20 -0.628143)
(1.06747e-20 -3.08814e-21 -0.764093)
(6.33248e-22 -1.61296e-20 -4.31991e-05)
(1.42771e-21 -1.36885e-19 -0.000106678)
(-1.60885e-21 1.23597e-19 -0.000198121)
(-1.46623e-21 -1.76053e-20 -0.000321159)
(5.06426e-21 -2.29014e-19 -0.000475647)
(-4.60495e-21 2.36109e-19 -0.000655687)
(-4.35013e-21 4.76317e-19 -0.0008488)
(-5.51548e-21 -1.97805e-20 -0.00103686)
(2.7126e-21 -4.71853e-21 -0.0011989)
(1.32862e-20 -5.08203e-19 -0.00131525)
(-9.90297e-21 4.75919e-19 -0.00137178)
(1.27429e-20 -1.00776e-18 -0.00136308)
(-9.53947e-22 5.04475e-19 -0.00129371)
(-4.15404e-21 -1.92839e-20 -0.00117711)
(-5.5004e-21 -2.33301e-20 -0.00103284)
(2.22903e-20 -9.91486e-19 -0.000882924)
(-1.50627e-21 -1.98181e-20 -0.000748511)
(2.04438e-20 -1.01068e-18 -0.000647027)
(-6.09667e-21 -7.24392e-21 -0.000590669)
(-1.80466e-22 1.31466e-22 -0.000586587)
(1.25945e-20 9.27571e-21 -0.000637854)
(-4.68023e-20 9.76018e-19 -0.000744591)
(4.04506e-20 -9.98261e-19 -0.000905312)
(1.40339e-20 9.17096e-21 -0.00111816)
(-9.74839e-21 -1.53403e-20 -0.0013818)
(-6.77223e-21 1.08724e-20 -0.00169604)
(-6.72313e-20 9.46746e-19 -0.00206212)
(1.45769e-19 -1.93541e-18 -0.00248277)
(-6.79304e-20 1.0127e-18 -0.0029622)
(-1.77284e-19 1.87644e-18 -0.00350578)
(-3.13615e-20 -4.54507e-20 -0.00411985)
(5.14086e-21 -2.43584e-20 -0.00481138)
(-7.01314e-20 -5.42001e-20 -0.00558806)
(2.43226e-19 -1.88669e-18 -0.00645908)
(3.91322e-19 -1.74877e-18 -0.00743795)
(-3.44045e-19 1.84e-18 -0.00855013)
(-3.75605e-20 -6.07579e-20 -0.00985123)
(4.63605e-19 -1.68513e-18 -0.0114666)
(-4.01341e-19 1.79044e-18 -0.0136701)
(-6.75899e-19 1.59386e-18 -0.0170261)
(5.64427e-19 -1.68875e-18 -0.0226215)
(8.68638e-20 -1.24546e-20 -0.0324004)
(9.11537e-19 -1.51449e-18 -0.0495815)
(1.46766e-19 1.23764e-19 -0.0790957)
(-1.07196e-18 1.49486e-18 -0.127975)
(-1.89181e-20 -4.47601e-20 -0.205727)
(3.8275e-20 6.01108e-22 -0.325489)
(-3.87356e-20 1.7408e-20 -0.509238)
(-5.76857e-19 6.03704e-19 -0.798446)
(5.67241e-19 -6.13912e-19 -1.11017)
(-9.72352e-21 -2.66992e-21 0.00350063)
(-7.75602e-21 1.54318e-21 -0.00643433)
(7.19483e-21 6.24122e-21 -0.0141681)
(-8.73816e-21 -8.73388e-21 -0.0198386)
(9.16628e-21 1.31798e-21 -0.023608)
(-2.76082e-22 1.94068e-21 -0.0256991)
(-1.06096e-22 -6.5064e-23 -0.0263745)
(-2.79548e-21 6.114e-24 -0.0259121)
(2.70966e-21 -5.92628e-24 -0.0245886)
(-6.61782e-23 1.44738e-25 -0.0226635)
(-5.3744e-23 1.17544e-25 -0.0203679)
(1.15561e-21 -2.52744e-24 -0.0178969)
(-1.15933e-21 2.53557e-24 -0.0154069)
(-6.74284e-22 1.47473e-24 -0.0130157)
(1.76216e-22 -8.94221e-23 -0.0108053)
(3.34907e-21 6.74493e-20 -0.00882635)
(-2.5354e-21 -6.30035e-20 -0.00710347)
(-5.19398e-24 -8.42802e-23 -0.00564056)
(-1.02512e-24 2.83467e-23 -0.00442635)
(-1.91621e-21 -8.50401e-20 -0.00343937)
(1.92141e-21 8.51782e-20 -0.00265223)
(-1.32789e-21 -8.59865e-20 -0.00203512)
(2.56729e-22 5.81876e-21 -0.00155847)
(-1.08954e-22 8.02326e-26 -0.00119455)
(2.31181e-22 6.16301e-21 -0.000919424)
(-2.79014e-23 1.86887e-24 -0.000712555)
(-1.29764e-22 2.83808e-25 -0.000557116)
(6.75088e-23 -2.54996e-24 -0.000439854)
(9.0994e-23 6.65556e-21 -0.000350559)
(-5.30195e-24 5.13856e-24 -0.000281579)
(-7.37619e-23 -6.84982e-21 -0.000227316)
(6.10116e-23 6.93285e-21 -0.000183746)
(2.86964e-23 -7.03797e-21 -0.000148024)
(1.19084e-22 6.40191e-20 -0.000118154)
(-2.16953e-22 -6.41318e-20 -9.27427e-05)
(-1.84514e-22 -5.08264e-20 -7.08133e-05)
(3.94679e-22 1.09273e-19 -5.16736e-05)
(-2.12155e-22 -5.85318e-20 -3.48226e-05)
(-9.58097e-23 -7.43393e-21 -1.98871e-05)
(8.67019e-23 7.45383e-21 -6.57932e-06)
(4.90596e-23 -1.66292e-25 5.33095e-06)
(-3.69109e-23 7.57719e-21 1.6034e-05)
(-9.98498e-23 -3.81051e-20 2.56927e-05)
(1.19739e-22 3.81872e-20 3.44526e-05)
(-5.67387e-23 -7.68985e-21 4.2453e-05)
(4.49314e-23 2.3245e-20 4.98449e-05)
(-2.95993e-23 -7.73786e-21 5.68181e-05)
(-3.87405e-23 -1.56635e-20 6.36413e-05)
(2.24095e-23 7.84691e-21 7.07115e-05)
(-7.14278e-24 -7.89721e-21 7.85809e-05)
(-1.43526e-20 2.2348e-20 0.00851442)
(8.71555e-21 -2.07736e-20 -0.0210866)
(-3.62217e-21 -7.87717e-21 -0.043857)
(-1.41338e-20 -5.9037e-21 -0.0602856)
(1.34083e-20 7.08638e-21 -0.0709724)
(-8.1739e-21 5.40146e-21 -0.076671)
(6.21975e-21 1.21693e-21 -0.0782206)
(-3.32902e-20 -9.05312e-20 -0.0764811)
(3.78602e-20 8.20393e-20 -0.0722874)
(-1.11631e-20 -1.00273e-21 -0.0664093)
(5.91188e-21 -6.19529e-21 -0.0595208)
(3.80476e-20 1.85816e-19 -0.052184)
(-4.18528e-20 -1.82945e-19 -0.0448435)
(-3.78415e-20 -2.34107e-19 -0.0378306)
(3.84185e-21 -2.31524e-20 -0.031373)
(3.53024e-20 2.55589e-19 -0.0256086)
(-1.24088e-21 -3.88101e-21 -0.0206012)
(-1.17893e-21 -9.63578e-21 -0.0163567)
(1.01562e-24 -9.04961e-24 -0.0128383)
(2.6428e-23 -5.78007e-26 -0.00998119)
(1.30234e-22 1.04856e-24 -0.0077042)
(-3.22522e-22 -5.78985e-21 -0.00591982)
(1.53359e-20 3.63834e-19 -0.0045417)
(-1.69076e-20 -3.94227e-19 -0.00348985)
(1.3048e-20 3.94526e-19 -0.00269356)
(-7.30745e-21 -1.96644e-19 -0.0020945)
(-1.12659e-20 -4.13527e-19 -0.00164385)
(5.20739e-21 2.08679e-19 -0.00130316)
(5.78921e-23 -6.60276e-21 -0.00104304)
(-5.12651e-22 -1.35779e-20 -0.00084147)
(2.59697e-22 6.86962e-21 -0.000682364)
(-3.51483e-22 -2.09609e-20 -0.000554171)
(3.03583e-21 2.19117e-19 -0.000448721)
(-6.33514e-21 -4.61703e-19 -0.000360288)
(2.88778e-21 2.21263e-19 -0.00028487)
(-1.27234e-22 -2.16207e-20 -0.000219656)
(-1.00582e-22 7.28689e-21 -0.000162648)
(2.34503e-23 6.33576e-23 -0.000112392)
(-1.07476e-21 -1.26332e-19 -6.78036e-05)
(9.20741e-22 1.11512e-19 -2.80397e-05)
(8.00715e-22 1.05547e-19 7.57458e-06)
(-1.11608e-21 -1.43307e-19 3.95999e-05)
(5.8982e-23 7.51708e-21 6.85165e-05)
(1.78403e-22 3.83881e-20 9.47525e-05)
(-3.68065e-22 -6.90834e-20 0.000118719)
(-1.45349e-22 -7.73779e-21 0.000140859)
(-2.08127e-22 -5.44436e-20 0.000161731)
(-8.41617e-23 -7.93566e-21 0.000182129)
(9.08212e-23 1.56112e-20 0.000203241)
(9.79182e-23 2.36327e-20 0.00022677)
(-1.4952e-20 -1.9573e-22 0.00671101)
(1.99455e-20 5.82013e-21 -0.0414295)
(5.98743e-22 6.49428e-21 -0.0777696)
(-3.82722e-20 -1.18443e-20 -0.103134)
(1.5133e-20 7.57778e-21 -0.118869)
(-8.63679e-20 -1.24289e-19 -0.126485)
(9.50748e-20 1.04838e-19 -0.127535)
(1.36419e-19 2.19345e-19 -0.123519)
(-8.89414e-21 6.85683e-20 -0.115836)
(-2.65792e-19 -5.66667e-19 -0.105729)
(2.83108e-19 6.59811e-19 -0.0942565)
(-1.40584e-19 -3.41235e-19 -0.0822771)
(-5.11889e-22 -1.0468e-20 -0.0704549)
(-1.05391e-21 -1.35412e-21 -0.0592724)
(1.22097e-19 5.45858e-19 -0.0490523)
(-1.17282e-20 3.20714e-20 -0.0399813)
(-1.0771e-19 -5.68181e-19 -0.0321361)
(3.963e-21 1.87863e-20 -0.0255087)
(-7.69578e-22 2.50794e-23 -0.0200294)
(1.88084e-23 -1.6447e-22 -0.0155887)
(3.38126e-20 3.65807e-19 -0.0120546)
(-3.274e-20 -3.54104e-19 -0.0092878)
(-2.65833e-20 -3.76256e-19 -0.00715183)
(2.8079e-20 4.0047e-19 -0.00552172)
(7.24347e-22 1.27717e-20 -0.0042873)
(-7.15556e-22 -1.28723e-20 -0.00335628)
(4.35649e-22 1.32627e-20 -0.00265424)
(-1.51422e-20 -4.15054e-19 -0.00212149)
(1.61165e-20 4.28761e-19 -0.00171273)
(-1.25844e-20 -4.12672e-19 -0.00139409)
(1.35008e-20 4.40393e-19 -0.00114086)
(2.99243e-22 1.39712e-20 -0.000935367)
(9.87281e-21 4.55022e-19 -0.00076513)
(-1.91366e-20 -8.99779e-19 -0.000621426)
(9.95872e-21 4.73317e-19 -0.000498161)
(3.71231e-21 2.48105e-19 -0.000391056)
(-3.25052e-21 -2.1879e-19 -0.000297062)
(-4.50049e-22 -1.00266e-22 -0.000213951)
(2.07643e-22 -1.20892e-23 -0.000140044)
(7.20264e-23 -1.16452e-22 -7.40273e-05)
(2.54039e-21 2.412e-19 -1.4832e-05)
(-2.58395e-21 -2.26183e-19 3.84373e-05)
(7.178e-23 1.5099e-20 8.65548e-05)
(1.75871e-22 -5.79873e-23 0.000130216)
(9.32993e-22 1.23166e-19 0.000170087)
(-1.9343e-21 -2.31417e-19 0.000206887)
(1.00337e-21 1.23704e-19 0.000241515)
(-4.99328e-22 -6.23163e-20 0.00027526)
(3.58545e-22 4.67241e-20 0.000310095)
(9.42494e-23 1.56709e-20 0.000349013)
(1.38109e-21 2.62445e-20 -0.00674461)
(8.5884e-21 -5.04872e-20 -0.0718159)
(9.13347e-20 1.38714e-19 -0.119054)
(-2.64743e-19 -2.52314e-19 -0.150158)
(1.88875e-19 1.08881e-19 -0.16782)
(1.3311e-19 1.9349e-19 -0.174659)
(-1.52785e-19 -1.67396e-19 -0.173103)
(1.71816e-19 2.65633e-19 -0.165341)
(-3.71173e-19 -5.76309e-19 -0.153299)
(2.14598e-19 2.9818e-19 -0.13861)
(-8.25762e-21 1.23557e-20 -0.122612)
(-5.38307e-21 7.80681e-22 -0.106347)
(8.17803e-21 9.19063e-21 -0.0905973)
(-1.83673e-19 -5.48596e-19 -0.0759068)
(1.74047e-19 5.27868e-19 -0.0626226)
(2.56517e-21 2.0703e-20 -0.0509286)
(-8.16756e-22 -1.04248e-20 -0.0408795)
(1.28197e-19 6.78165e-19 -0.0324329)
(-1.28192e-19 -6.76581e-19 -0.0254771)
(-1.72885e-21 -1.21464e-20 -0.0198569)
(-1.56305e-22 -1.18477e-23 -0.0153945)
(5.03669e-22 1.69004e-22 -0.0119063)
(1.3692e-22 -5.34011e-24 -0.00921637)
(6.38037e-22 1.26425e-20 -0.00716331)
(7.4554e-22 1.00797e-22 -0.00560794)
(7.13717e-22 1.34169e-20 -0.00443231)
(-5.04961e-20 -8.70737e-19 -0.00354221)
(5.03043e-20 8.57186e-19 -0.00286316)
(-7.17942e-22 5.76363e-22 -0.00233842)
(-1.77459e-20 -4.45649e-19 -0.00192581)
(1.90423e-20 4.59516e-19 -0.00159472)
(-2.62783e-22 2.09126e-22 -0.00132332)
(-1.21425e-22 1.94648e-22 -0.00109628)
(-1.29276e-20 -4.77333e-19 -0.000902885)
(2.52339e-20 9.43463e-19 -0.000735701)
(-2.3205e-20 -9.35505e-19 -0.000589494)
(2.13025e-20 9.41866e-19 -0.000460523)
(-1.95611e-20 -9.47537e-19 -0.000346038)
(9.26678e-21 4.74832e-19 -0.000243941)
(4.33459e-21 2.4054e-19 -0.00015256)
(-3.76791e-21 -2.10083e-19 -7.05153e-05)
(-1.49458e-22 -1.51188e-20 3.37168e-06)
(-3.30632e-21 -2.43833e-19 7.01335e-05)
(6.94767e-21 5.18813e-19 0.000130704)
(-3.28747e-21 -2.44464e-19 0.000185982)
(9.70822e-23 -1.18417e-22 0.000236925)
(2.07185e-22 1.54326e-20 0.000284733)
(-1.04345e-22 9.95722e-24 0.000331132)
(-1.24327e-22 -1.55517e-20 0.000378862)
(2.8423e-22 3.11687e-20 0.000432416)
(2.67744e-20 2.58667e-23 -0.0366122)
(-5.42135e-22 -3.43554e-22 -0.117466)
(-5.73738e-20 -9.63655e-22 -0.171176)
(7.81395e-20 -2.33175e-21 -0.203113)
(-2.70905e-20 -4.93983e-21 -0.218309)
(-3.29394e-20 -1.28077e-21 -0.220864)
(1.47928e-20 3.60113e-21 -0.214154)
(-7.94949e-21 -5.06255e-21 -0.200988)
(4.87784e-20 -1.75408e-20 -0.183691)
(4.70695e-19 8.53642e-19 -0.164133)
(-1.6648e-20 9.65148e-20 -0.143772)
(-4.87232e-19 -9.63211e-19 -0.123699)
(4.57007e-19 1.10083e-18 -0.104687)