/*--------------------------------*- C++ -*----------------------------------*\
| =========                 |                                                 |
| \\      /  F ield         | OpenFOAM: The Open Source CFD Toolbox           |
|  \\    /   O peration     | Version:  2412                                  |
|   \\  /    A nd           | Website:  www.openfoam.com                      |
|    \\/     M anipulation  |                                                 |
\*---------------------------------------------------------------------------*/
FoamFile
{
    version     2.0;
    format      ascii;
    arch        "LSB;label=32;scalar=64";
    class       volScalarField;
    location    "7";
    object      p;
}
// * * * * * * * * * * * * * * * * * * * * * * * * * * * * * * * * * * * * * //

dimensions      [0 2 -2 0 0 0 0];

internalField   nonuniform List<scalar> 
63420
(
0.00106721
0.00107012
0.00106855
0.0010712
0.0010727
0.00107484
0.00107751
0.00108044
0.00108378
0.00108749
0.00109157
0.001096
0.00110078
0.00110591
0.00111138
0.00111719
0.00112333
0.00112981
0.00113663
0.00114377
0.00115125
0.00115906
0.00116721
0.0011757
0.00118452
0.00119368
0.00120318
0.00121303
0.00122323
0.00123377
0.00124467
0.00125593
0.00126755
0.00127953
0.00129188
0.0013046
0.0013177
0.00133117
0.00134504
0.00135929
0.00137394
0.00138898
0.00140443
0.00142029
0.00143656
0.00145325
0.00147036
0.0014879
0.00150588
0.00152429
0.00154315
0.00156246
0.00158222
0.00160244
0.00162313
0.00106715
0.00107006
0.00106849
0.00107114
0.00107263
0.00107478
0.00107744
0.00108037
0.00108371
0.00108742
0.00109149
0.00109592
0.0011007
0.00110582
0.00111129
0.00111709
0.00112323
0.0011297
0.00113651
0.00114365
0.00115112
0.00115893
0.00116707
0.00117555
0.00118436
0.00119351
0.001203
0.00121284
0.00122303
0.00123356
0.00124445
0.00125569
0.00126729
0.00127926
0.00129159
0.0013043
0.00131737
0.00133083
0.00134468
0.00135891
0.00137353
0.00138855
0.00140397
0.0014198
0.00143604
0.0014527
0.00146978
0.00148729
0.00150522
0.0015236
0.00154241
0.00156167
0.00158139
0.00160156
0.0016222
0.00106704
0.00106995
0.00106837
0.00107101
0.00107251
0.00107464
0.0010773
0.00108023
0.00108356
0.00108727
0.00109134
0.00109576
0.00110053
0.00110565
0.0011111
0.0011169
0.00112303
0.00112949
0.00113628
0.00114341
0.00115087
0.00115866
0.00116679
0.00117525
0.00118404
0.00119317
0.00120265
0.00121246
0.00122263
0.00123314
0.001244
0.00125521
0.00126679
0.00127872
0.00129102
0.00130369
0.00131673
0.00133015
0.00134395
0.00135814
0.00137272
0.00138769
0.00140306
0.00141883
0.00143501
0.00145161
0.00146862
0.00148606
0.00150392
0.00152221
0.00154094
0.00156012
0.00157973
0.00159981
0.00162033
0.00106687
0.00106978
0.00106819
0.00107082
0.00107232
0.00107445
0.0010771
0.00108002
0.00108335
0.00108705
0.00109111
0.00109552
0.00110028
0.00110538
0.00111083
0.00111661
0.00112272
0.00112917
0.00113594
0.00114305
0.00115049
0.00115826
0.00116636
0.0011748
0.00118356
0.00119267
0.00120211
0.0012119
0.00122203
0.0012325
0.00124332
0.0012545
0.00126603
0.00127792
0.00129017
0.00130278
0.00131577
0.00132913
0.00134287
0.00135699
0.0013715
0.0013864
0.00140169
0.00141738
0.00143347
0.00144997
0.00146689
0.00148422
0.00150197
0.00152014
0.00153875
0.00155779
0.00157726
0.00159718
0.00161755
0.00106664
0.00106955
0.00106795
0.00107057
0.00107207
0.00107418
0.00107683
0.00107975
0.00108307
0.00108676
0.0010908
0.0010952
0.00109995
0.00110503
0.00111046
0.00111622
0.00112231
0.00112874
0.00113549
0.00114257
0.00114998
0.00115772
0.0011658
0.0011742
0.00118293
0.001192
0.0012014
0.00121114
0.00122123
0.00123165
0.00124242
0.00125355
0.00126502
0.00127685
0.00128903
0.00130158
0.00131449
0.00132778
0.00134143
0.00135547
0.00136988
0.00138468
0.00139987
0.00141545
0.00143142
0.0014478
0.00146458
0.00148177
0.00149938
0.00151739
0.00153583
0.0015547
0.00157399
0.0015937
0.00161385
0.00106635
0.00106927
0.00106765
0.00107026
0.00107175
0.00107385
0.0010765
0.00107941
0.00108271
0.00108639
0.00109042
0.0010948
0.00109953
0.00110459
0.00111
0.00111574
0.0011218
0.0011282
0.00113492
0.00114197
0.00114935
0.00115706
0.00116509
0.00117345
0.00118214
0.00119116
0.00120052
0.00121021
0.00122023
0.0012306
0.00124131
0.00125236
0.00126376
0.00127551
0.00128762
0.00130008
0.0013129
0.00132609
0.00133964
0.00135357
0.00136787
0.00138254
0.0013976
0.00141304
0.00142887
0.0014451
0.00146172
0.00147873
0.00149615
0.00151398
0.00153221
0.00155086
0.00156992
0.00158939
0.00160927
0.00106601
0.00106893
0.00106729
0.00106987
0.00107138
0.00107346
0.0010761
0.00107899
0.00108228
0.00108595
0.00108996
0.00109432
0.00109903
0.00110407
0.00110945
0.00111516
0.00112119
0.00112756
0.00113425
0.00114126
0.0011486
0.00115626
0.00116424
0.00117256
0.00118119
0.00119016
0.00119946
0.00120908
0.00121904
0.00122934
0.00123997
0.00125094
0.00126225
0.00127392
0.00128592
0.00129828
0.001311
0.00132407
0.0013375
0.0013513
0.00136546
0.00137999
0.0013949
0.00141018
0.00142583
0.00144187
0.0014583
0.00147511
0.00149232
0.00150991
0.0015279
0.00154629
0.00156507
0.00158426
0.00160383
0.00164436
0.00166633
0.00168925
0.00171319
0.0017382
0.00176435
0.0017917
0.00182032
0.0018503
0.00188172
0.00191469
0.00194929
0.00198566
0.0020239
0.00206416
0.0021066
0.00215138
0.00219869
0.00224873
0.00230173
0.00235792
0.00241757
0.00248099
0.00254848
0.0026204
0.00269716
0.00277918
0.00286695
0.00296101
0.00306197
0.00317049
0.00328734
0.00341333
0.0035494
0.00369654
0.00385586
0.00402852
0.00421571
0.00441856
0.00463801
0.00487454
0.00512778
0.00539603
0.00567572
0.00596144
0.00624667
0.0065242
0.00679805
0.00714078
0.00765629
0.00164339
0.00166536
0.00168826
0.00171224
0.00173725
0.00176338
0.00179072
0.00181934
0.00184931
0.00188073
0.00191369
0.00194829
0.00198465
0.00202288
0.00206314
0.00210557
0.00215034
0.00219763
0.00224764
0.0023006
0.00235675
0.00241634
0.00247968
0.00254707
0.00261887
0.00269546
0.00277728
0.00286479
0.00295854
0.00305909
0.00316712
0.00328332
0.0034085
0.00354353
0.00368935
0.00384695
0.00401738
0.00420166
0.00440071
0.00461514
0.00484505
0.00508955
0.00534624
0.00561068
0.00587637
0.00613564
0.0063806
0.00661436
0.00690494
0.00734912
0.00164146
0.00166345
0.00168641
0.00171031
0.0017353
0.00176143
0.00178876
0.00181737
0.00184734
0.00187874
0.00191169
0.00194628
0.00198263
0.00202085
0.00206109
0.0021035
0.00214824
0.00219549
0.00224546
0.00229835
0.00235441
0.00241388
0.00247707
0.00254426
0.00261581
0.00269209
0.00277351
0.00286053
0.00295365
0.00305342
0.00316045
0.0032754
0.00339899
0.00353199
0.00367518
0.00382941
0.00399544
0.00417398
0.00436548
0.00456997
0.00478669
0.00501368
0.00524714
0.00548085
0.00570611
0.00591288
0.00609216
0.00624551
0.00642727
0.00674261
0.00163862
0.00166057
0.00168349
0.0017074
0.00173238
0.0017585
0.00178582
0.00181441
0.00184436
0.00187575
0.00190867
0.00194324
0.00197956
0.00201776
0.00205797
0.00210034
0.00214504
0.00219223
0.00224211
0.0022949
0.00235081
0.0024101
0.00247304
0.00253993
0.00261109
0.00268688
0.00276769
0.00285395
0.00294611
0.00304469
0.00315021
0.00326326
0.00338444
0.00351435
0.00365361
0.00380275
0.0039622
0.00413215
0.00431239
0.00450203
0.00469911
0.00490003
0.00509886
0.00528669
0.00545156
0.00557975
0.00566049
0.00569696
0.0057273
0.00581543
0.00163479
0.00165675
0.00167965
0.00170355
0.00172853
0.00175463
0.00178194
0.00181051
0.00184044
0.00187181
0.00190472
0.00193927
0.00197557
0.00201374
0.00205393
0.00209626
0.00214091
0.00218803
0.00223782
0.00229047
0.00234621
0.00240527
0.00246791
0.00253441
0.00260507
0.00268024
0.00276026
0.00284552
0.00293643
0.00303342
0.00313695
0.00324747
0.00336542
0.00349122
0.00362518
0.00376749
0.00391805
0.0040764
0.00424141
0.00441098
0.00458152
0.00474726
0.0048995
0.00502587
0.00511023
0.00513409
0.00508324
0.00496448
0.00480536
0.00454399
0.00163005
0.00165201
0.00167493
0.00169884
0.00172383
0.00174995
0.00177726
0.00180585
0.0018358
0.00186719
0.00190012
0.0019347
0.00197105
0.00200928
0.00204952
0.00209193
0.00213665
0.00218385
0.0022337
0.00228639
0.00234213
0.00240116
0.0024637
0.00253004
0.00260046
0.00267527
0.0027548
0.00283938
0.00292938
0.00302517
0.00312709
0.00323547
0.00335058
0.00347259
0.00360147
0.00373692
0.00387819
0.00402381
0.00417126
0.0043165
0.00445323
0.00457209
0.00465976
0.00469834
0.00466541
0.00453612
0.00429102
0.00393807
0.00349794
0.00276523
0.00162439
0.00164628
0.00166914
0.001693
0.00171793
0.001744
0.00177126
0.00179979
0.00182967
0.001861
0.00189387
0.0019284
0.00196469
0.00200287
0.00204308
0.00208546
0.00213014
0.00217729
0.00222708
0.00227969
0.00233531
0.00239417
0.00245651
0.00252256
0.00259262
0.00266695
0.00274587
0.00282967
0.00291867
0.00301316
0.0031134
0.0032196
0.00333183
0.00345004
0.00357384
0.00370244
0.0038343
0.00396686
0.00409589
0.00421479
0.00431361
0.00437784
0.00438749
0.00431668
0.00413464
0.00380772
0.00331191
0.00266178
0.00182676
0.000487583
-0.00313468
-0.00312746
-0.00304126
-0.00289071
-0.00268971
-0.00245004
-0.00218511
-0.0019085
-0.00163264
-0.00136809
-0.001123
-0.000902898
-0.000710836
-0.0005477
-0.000412694
-0.000303806
-0.000218272
-0.00015295
-0.000104626
-7.0222e-05
-4.69361e-05
-3.2315e-05
-2.42823e-05
-2.11279e-05
-2.14715e-05
-2.42274e-05
-2.85665e-05
-3.38625e-05
-3.96515e-05
-4.56008e-05
-5.1478e-05
-5.71259e-05
-6.24435e-05
-6.73709e-05
-7.18773e-05
-7.59526e-05
-7.9601e-05
-8.28356e-05
-8.56758e-05
-8.81441e-05
-9.0265e-05
-9.20633e-05
-9.35636e-05
-9.47899e-05
-9.5765e-05
-9.65105e-05
-9.70468e-05
-9.73927e-05
-9.75659e-05
-9.75826e-05
-0.00326054
-0.00322212
-0.0031191
-0.00295613
-0.00274948
-0.00250591
-0.00223816
-0.00195923
-0.00168105
-0.00141396
-0.00116605
-0.00094288
-0.000747565
-0.000581099
-0.000442777
-0.000330676
-0.000242095
-0.000173938
-0.00012302
-8.62735e-05
-6.0897e-05
-4.44268e-05
-3.47717e-05
-3.02026e-05
-2.93185e-05
-3.10139e-05
-3.44392e-05
-3.89492e-05
-4.40629e-05
-4.94326e-05
-5.48124e-05
-6.00333e-05
-6.49838e-05
-6.95952e-05
-7.38291e-05
-7.76688e-05
-8.1113e-05
-8.41701e-05
-8.68554e-05
-8.91883e-05
-9.11902e-05
-9.28837e-05
-9.42914e-05
-9.54356e-05
-9.63377e-05
-9.70181e-05
-9.74961e-05
-9.77897e-05
-9.7916e-05
-9.78903e-05
-0.00351609
-0.00340152
-0.00326013
-0.00308361
-0.00286451
-0.00261308
-0.00234021
-0.00205701
-0.00177456
-0.0015028
-0.00124965
-0.00102072
-0.000819266
-0.000646458
-0.000501784
-0.000383488
-0.000289004
-0.000215333
-0.00015935
-0.000118016
-8.85333e-05
-6.84246e-05
-5.55685e-05
-4.82024e-05
-4.48892e-05
-4.44839e-05
-4.60963e-05
-4.90456e-05
-5.28179e-05
-5.70359e-05
-6.1427e-05
-6.57989e-05
-7.00198e-05
-7.40032e-05
-7.76956e-05
-8.10675e-05
-8.41062e-05
-8.68109e-05
-8.91892e-05
-9.12534e-05
-9.30197e-05
-9.45056e-05
-9.573e-05
-9.67117e-05
-9.74693e-05
-9.80208e-05
-9.83836e-05
-9.85741e-05
-9.86077e-05
-9.84981e-05
-0.00388501
-0.00364087
-0.00347468
-0.00326794
-0.00302908
-0.00276612
-0.00248552
-0.00219604
-0.00190754
-0.00162926
-0.00136885
-0.00113191
-0.000921872
-0.00074016
-0.000586527
-0.000459457
-0.000356581
-0.000275047
-0.000211818
-0.000163906
-0.000128524
-0.000103175
-8.57061e-05
-7.43041e-05
-6.74787e-05
-6.40339e-05
-6.30227e-05
-6.37116e-05
-6.55402e-05
-6.80884e-05
-7.10456e-05
-7.41858e-05
-7.73479e-05
-8.04197e-05
-8.3326e-05
-8.60183e-05
-8.84681e-05
-9.0661e-05
-9.2593e-05
-9.42669e-05
-9.56904e-05
-9.68746e-05
-9.78323e-05
-9.85775e-05
-9.91248e-05
-9.94889e-05
-9.96839e-05
-9.9724e-05
-9.96226e-05
-9.93907e-05
-0.00432668
-0.00399701
-0.00375056
-0.00349846
-0.00323238
-0.0029526
-0.00266101
-0.0023635
-0.00206801
-0.00178261
-0.00151436
-0.00126868
-0.00104909
-0.000857263
-0.000693237
-0.000555799
-0.000442839
-0.000351711
-0.000279526
-0.000223389
-0.000180553
-0.00014853
-0.000125136
-0.000108515
-9.71295e-05
-8.97141e-05
-8.52642e-05
-8.2984e-05
-8.22552e-05
-8.26041e-05
-8.36718e-05
-8.5189e-05
-8.69563e-05
-8.88281e-05
-9.07001e-05
-9.24991e-05
-9.41752e-05
-9.56961e-05
-9.70425e-05
-9.82044e-05
-9.91787e-05
-9.99672e-05
-0.000100575
-0.000101011
-0.000101282
-0.0001014
-0.000101376
-0.000101219
-0.000100941
-0.000100549
-0.00477266
-0.00437348
-0.00405142
-0.00374511
-0.00344453
-0.00314439
-0.00284164
-0.00253843
-0.00223984
-0.0019518
-0.00168003
-0.0014293
-0.00120292
-0.00100271
-0.000829049
-0.000681124
-0.00055725
-0.000455154
-0.000372254
-0.000305888
-0.000253474
-0.000212621
-0.000181202
-0.000157368
-0.000139557
-0.000126477
-0.000117066
-0.000110466
-0.000105998
-0.000103122
-0.000101418
-0.000100557
-0.000100286
-0.000100411
-0.000100786
-0.000101299
-0.000101868
-0.000102434
-0.000102954
-0.000103398
-0.000103746
-0.000103987
-0.000104114
-0.000104126
-0.000104023
-0.00010381
-0.00010349
-0.000103071
-0.000102558
-0.000101958
-0.0051634
-0.00480915
-0.00443833
-0.00407251
-0.00372916
-0.0034005
-0.0030789
-0.00276328
-0.00245591
-0.00216048
-0.0018812
-0.00162197
-0.00138581
-0.00117454
-0.0009888
-0.000828147
-0.000691284
-0.000576295
-0.000480882
-0.000402602
-0.000339033
-0.000287889
-0.000247089
-0.000214801
-0.000189448
-0.000169691
-0.000154419
-0.00014271
-0.000133811
-0.00012711
-0.000122116
-0.000118433
-0.000115746
-0.000113803
-0.000112407
-0.000111403
-0.00011067
-0.000110117
-0.000109671
-0.000109281
-0.000108906
-0.000108519
-0.000108098
-0.00010763
-0.000107107
-0.000106523
-0.000105877
-0.000105169
-0.000104403
-0.00010358
-9.74566e-05
-9.72068e-05
-9.68319e-05
-9.63368e-05
-9.5729e-05
-9.50157e-05
-9.42033e-05
-9.3298e-05
-9.23053e-05
-9.12298e-05
-9.00754e-05
-8.88452e-05
-8.7542e-05
-8.61685e-05
-8.47278e-05
-8.32237e-05
-8.16605e-05
-8.00434e-05
-7.83777e-05
-7.66692e-05
-7.49236e-05
-7.31467e-05
-7.13438e-05
-6.95199e-05
-6.76797e-05
-6.58275e-05
-6.39674e-05
-6.21031e-05
-6.0238e-05
-5.83754e-05
-5.65185e-05
-5.46701e-05
-5.28331e-05
-5.10101e-05
-4.92036e-05
-4.74159e-05
-4.56493e-05
-4.3906e-05
-4.21877e-05
-4.04965e-05
-3.8834e-05
-3.72018e-05
-3.56014e-05
-3.40339e-05
-3.2501e-05
-3.10036e-05
-2.95425e-05
-2.81186e-05
-2.67329e-05
-2.53859e-05
-2.40781e-05
-2.281e-05
-2.15819e-05
-2.03941e-05
-1.92466e-05
-1.81396e-05
-1.70729e-05
-1.60465e-05
-1.50601e-05
-1.41134e-05
-1.3206e-05
-1.23375e-05
-1.15073e-05
-1.07149e-05
-9.95965e-06
-9.24075e-06
-8.55757e-06
-7.9092e-06
-7.29475e-06
-6.71343e-06
-6.16417e-06
-5.64607e-06
-5.15817e-06
-4.6993e-06
-4.26859e-06
-3.86496e-06
-3.48722e-06
-3.13438e-06
-2.80536e-06
-2.49905e-06
-2.21424e-06
-1.94999e-06
-1.70511e-06
-1.47856e-06
-1.26937e-06
-1.07636e-06
-8.98658e-07
-7.35019e-07
-5.84677e-07
-4.46499e-07
-3.19284e-07
-2.02688e-07
-9.46441e-08
3.42813e-09
9.79109e-08
1.76251e-07
2.72757e-07
3.07169e-07
4.71746e-07
3.3493e-07
8.31252e-07
4.42468e-08
1.70754e-06
-1.03287e-06
3.6363e-06
-3.24999e-06
6.42331e-06
-5.31794e-06
7.30924e-06
-3.11378e-06
1.91134e-06
5.909e-06
-8.08522e-06
1.45811e-05
-1.14203e-05
-9.77253e-05
-9.74478e-05
-9.70486e-05
-9.65307e-05
-9.5902e-05
-9.51697e-05
-9.43398e-05
-9.34184e-05
-9.24107e-05
-9.13214e-05
-9.01542e-05
-8.89123e-05
-8.75983e-05
-8.62152e-05
-8.47659e-05
-8.32542e-05
-8.16844e-05
-8.00617e-05
-7.83912e-05
-7.66787e-05
-7.49297e-05
-7.31499e-05
-7.13445e-05
-6.95184e-05
-6.76763e-05
-6.58226e-05
-6.3961e-05
-6.20955e-05
-6.02293e-05
-5.83659e-05
-5.65082e-05
-5.46593e-05
-5.28218e-05
-5.09984e-05
-4.91917e-05
-4.74038e-05
-4.56372e-05
-4.38938e-05
-4.21756e-05
-4.04845e-05
-3.88221e-05
-3.71901e-05
-3.559e-05
-3.40228e-05
-3.24901e-05
-3.09931e-05
-2.95323e-05
-2.81088e-05
-2.67234e-05
-2.53768e-05
-2.40694e-05
-2.28016e-05
-2.15739e-05
-2.03864e-05
-1.92393e-05
-1.81327e-05
-1.70663e-05
-1.60403e-05
-1.50542e-05
-1.41078e-05
-1.32008e-05
-1.23326e-05
-1.15027e-05
-1.07106e-05
-9.95562e-06
-9.23699e-06
-8.55406e-06
-7.90593e-06
-7.2917e-06
-6.71061e-06
-6.16156e-06
-5.64365e-06
-5.15595e-06
-4.69725e-06
-4.26671e-06
-3.86323e-06
-3.48564e-06
-3.13293e-06
-2.80404e-06
-2.49785e-06
-2.21315e-06
-1.949e-06
-1.70422e-06
-1.47775e-06
-1.26865e-06
-1.07571e-06
-8.9808e-07
-7.34495e-07
-5.84217e-07
-4.46086e-07
-3.18927e-07
-2.02363e-07
-9.43848e-08
3.67667e-09
9.80987e-08
1.76426e-07
2.72888e-07
3.07293e-07
4.71788e-07
3.35087e-07
8.31114e-07
4.45656e-08
1.70712e-06
-1.03235e-06
3.6357e-06
-3.24958e-06
6.42312e-06
-5.31838e-06
7.31019e-06
-3.11518e-06
1.91254e-06
5.90839e-06
-8.08586e-06
1.45824e-05
-1.14261e-05
-9.8257e-05
-9.7925e-05
-9.74776e-05
-9.69147e-05
-9.62447e-05
-9.54745e-05
-9.461e-05
-9.36566e-05
-9.26193e-05
-9.15026e-05
-9.03102e-05
-8.9045e-05
-8.77099e-05
-8.63076e-05
-8.48413e-05
-8.33146e-05
-8.17319e-05
-8.0098e-05
-7.84181e-05
-7.66976e-05
-7.49418e-05
-7.31562e-05
-7.13458e-05
-6.95154e-05
-6.76696e-05
-6.58125e-05
-6.39482e-05
-6.20802e-05
-6.0212e-05
-5.83468e-05
-5.64877e-05
-5.46376e-05
-5.27992e-05
-5.09751e-05
-4.91678e-05
-4.73797e-05
-4.56129e-05
-4.38694e-05
-4.21514e-05
-4.04605e-05
-3.87984e-05
-3.71668e-05
-3.55671e-05
-3.40005e-05
-3.24684e-05
-3.09721e-05
-2.95119e-05
-2.80891e-05
-2.67044e-05
-2.53585e-05
-2.40519e-05
-2.27849e-05
-2.15579e-05
-2.03712e-05
-1.92248e-05
-1.81189e-05
-1.70533e-05
-1.60279e-05
-1.50425e-05
-1.40968e-05
-1.31904e-05
-1.23228e-05
-1.14935e-05
-1.0702e-05
-9.94755e-06
-9.22946e-06
-8.54702e-06
-7.89938e-06
-7.28563e-06
-6.70496e-06
-6.15633e-06
-5.63882e-06
-5.15147e-06
-4.69314e-06
-4.26294e-06
-3.85975e-06
-3.48247e-06
-3.13004e-06
-2.80139e-06
-2.49543e-06
-2.21096e-06
-1.94702e-06
-1.70243e-06
-1.47614e-06
-1.2672e-06
-1.07441e-06
-8.96911e-07
-7.33454e-07
-5.83285e-07
-4.45252e-07
-3.18208e-07
-2.01732e-07
-9.38388e-08
4.14423e-09
9.84903e-08
1.76767e-07
2.73145e-07
3.07567e-07
4.71845e-07
3.35416e-07
8.30829e-07
4.51917e-08
1.70628e-06
-1.0313e-06
3.63446e-06
-3.24872e-06
6.42274e-06
-5.31927e-06
7.31206e-06
-3.11802e-06
1.91502e-06
5.90714e-06
-8.08703e-06
1.45849e-05
-1.14373e-05
-9.9041e-05
-9.86293e-05
-9.81109e-05
-9.74814e-05
-9.67504e-05
-9.59245e-05
-9.50087e-05
-9.40079e-05
-9.2927e-05
-9.17699e-05
-9.05401e-05
-8.92408e-05
-8.78745e-05
-8.6444e-05
-8.49527e-05
-8.3404e-05
-8.18022e-05
-8.01519e-05
-7.8458e-05
-7.67256e-05
-7.49597e-05
-7.31654e-05
-7.13475e-05
-6.95106e-05
-6.76592e-05
-6.57973e-05
-6.39287e-05
-6.20571e-05
-6.01858e-05
-5.83181e-05
-5.64568e-05
-5.46049e-05
-5.27651e-05
-5.094e-05
-4.9132e-05
-4.73433e-05
-4.55763e-05
-4.38329e-05
-4.2115e-05
-4.04244e-05
-3.87628e-05
-3.71319e-05
-3.55329e-05
-3.39671e-05
-3.24359e-05
-3.09405e-05
-2.94813e-05
-2.80596e-05
-2.6676e-05
-2.53312e-05
-2.40256e-05
-2.27598e-05
-2.15339e-05
-2.03483e-05
-1.9203e-05
-1.80981e-05
-1.70336e-05
-1.60093e-05
-1.50249e-05
-1.40802e-05
-1.31747e-05
-1.23081e-05
-1.14797e-05
-1.06891e-05
-9.93544e-06
-9.21816e-06
-8.53648e-06
-7.88956e-06
-7.27651e-06
-6.69648e-06
-6.14848e-06
-5.63157e-06
-5.14477e-06
-4.68698e-06
-4.25727e-06
-3.85455e-06
-3.47771e-06
-3.12569e-06
-2.79742e-06
-2.4918e-06
-2.20767e-06
-1.94404e-06
-1.69974e-06
-1.47372e-06
-1.26502e-06
-1.07245e-06
-8.95154e-07
-7.31888e-07
-5.81888e-07
-4.44009e-07
-3.17128e-07
-2.00784e-07
-9.30191e-08
4.85077e-09
9.90808e-08
1.77284e-07
2.73525e-07
3.07982e-07
4.71933e-07
3.35912e-07
8.30407e-07
4.61189e-08
1.70504e-06
-1.02975e-06
3.63265e-06
-3.24749e-06
6.42225e-06
-5.32071e-06
7.31498e-06
-3.12235e-06
1.91878e-06
5.90529e-06
-8.08885e-06
1.45888e-05
-1.14537e-05
-0.000100062
-9.95483e-05
-9.89369e-05
-9.82207e-05
-9.74101e-05
-9.65113e-05
-9.55285e-05
-9.44659e-05
-9.33279e-05
-9.21181e-05
-9.08398e-05
-8.94959e-05
-8.80891e-05
-8.66222e-05
-8.50983e-05
-8.3521e-05
-8.18943e-05
-8.02226e-05
-7.85104e-05
-7.67622e-05
-7.4983e-05
-7.31771e-05
-7.13493e-05
-6.95039e-05
-6.7645e-05
-6.57767e-05
-6.39025e-05
-6.20261e-05
-6.01507e-05
-5.82795e-05
-5.64154e-05
-5.45612e-05
-5.27195e-05
-5.0893e-05
-4.90841e-05
-4.72948e-05
-4.55275e-05
-4.3784e-05
-4.20663e-05
-4.03762e-05
-3.87154e-05
-3.70852e-05
-3.54872e-05
-3.39225e-05
-3.23925e-05
-3.08983e-05
-2.94405e-05
-2.80202e-05
-2.6638e-05
-2.52947e-05
-2.39906e-05
-2.27263e-05
-2.15019e-05
-2.03178e-05
-1.9174e-05
-1.80705e-05
-1.70074e-05
-1.59845e-05
-1.50015e-05
-1.40581e-05
-1.31539e-05
-1.22885e-05
-1.14613e-05
-1.06718e-05
-9.91931e-06
-9.2031e-06
-8.52242e-06
-7.87647e-06
-7.26434e-06
-6.68518e-06
-6.13802e-06
-5.6219e-06
-5.13583e-06
-4.67876e-06
-4.24972e-06
-3.8476e-06
-3.47135e-06
-3.11988e-06
-2.79211e-06
-2.48697e-06
-2.20328e-06
-1.94006e-06
-1.69614e-06
-1.47049e-06
-1.26211e-06
-1.06983e-06
-8.92811e-07
-7.29798e-07
-5.80027e-07
-4.42357e-07
-3.15686e-07
-1.9952e-07
-9.19258e-08
5.79515e-09
9.98702e-08
1.77978e-07
2.7403e-07
3.08535e-07
4.72055e-07
3.36564e-07
8.29868e-07
4.73117e-08
1.70346e-06
-1.02781e-06
3.63045e-06
-3.24615e-06
6.42199e-06
-5.32309e-06
7.31932e-06
-3.12845e-06
1.92388e-06
5.90305e-06
-8.09173e-06
1.45946e-05
-1.14751e-05
-0.000101306
-0.000100667
-9.99415e-05
-9.91198e-05
-9.82124e-05
-9.72249e-05
-9.61605e-05
-9.50226e-05
-9.38151e-05
-9.25412e-05
-9.1204e-05
-8.98061e-05
-8.83502e-05
-8.68391e-05
-8.52759e-05
-8.36639e-05
-8.2007e-05
-8.03092e-05
-7.85744e-05
-7.6807e-05
-7.50112e-05
-7.31911e-05
-7.13509e-05
-6.94948e-05
-6.76267e-05
-6.57503e-05
-6.38692e-05
-6.19868e-05
-6.01064e-05
-5.82309e-05
-5.63632e-05
-5.45062e-05
-5.26623e-05
-5.08341e-05
-4.9024e-05
-4.7234e-05
-4.54663e-05
-4.37228e-05
-4.20055e-05
-4.0316e-05
-3.86559e-05
-3.70268e-05
-3.543e-05
-3.38667e-05
-3.23382e-05
-3.08457e-05
-2.93895e-05
-2.79709e-05
-2.65906e-05
-2.52491e-05
-2.39469e-05
-2.26844e-05
-2.14619e-05
-2.02796e-05
-1.91376e-05
-1.8036e-05
-1.69747e-05
-1.59535e-05
-1.49722e-05
-1.40304e-05
-1.31279e-05
-1.2264e-05
-1.14383e-05
-1.06503e-05
-9.89915e-06
-9.18427e-06
-8.50486e-06
-7.86011e-06
-7.24914e-06
-6.67107e-06
-6.12495e-06
-5.60981e-06
-5.12468e-06
-4.66849e-06
-4.24027e-06
-3.83893e-06
-3.46341e-06
-3.11262e-06
-2.78548e-06
-2.48093e-06
-2.1978e-06
-1.93509e-06
-1.69165e-06
-1.46645e-06
-1.25847e-06
-1.06656e-06
-8.89883e-07
-7.27185e-07
-5.77703e-07
-4.40297e-07
-3.13882e-07
-1.97941e-07
-9.0559e-08
6.97632e-09
1.00858e-07
1.78846e-07
2.74659e-07
3.09228e-07
4.72207e-07
3.37384e-07
8.29189e-07
4.8811e-08
1.70146e-06
-1.02537e-06
3.62766e-06
-3.24443e-06
6.42163e-06
-5.32602e-06
7.3247e-06
-3.13604e-06
1.93025e-06
5.90021e-06
-8.09514e-06
1.46015e-05
-1.14997e-05
-0.000102749
-0.000101965
-0.000101108
-0.000100164
-9.91447e-05
-9.80541e-05
-9.68947e-05
-9.56693e-05
-9.43811e-05
-9.30328e-05
-9.16272e-05
-9.01669e-05
-8.86543e-05
-8.70921e-05
-8.54834e-05
-8.38313e-05
-8.21393e-05
-8.04108e-05
-7.86496e-05
-7.68594e-05
-7.50439e-05
-7.32068e-05
-7.13519e-05
-6.9483e-05
-6.76038e-05
-6.57178e-05
-6.38285e-05
-6.1939e-05
-6.00525e-05
-5.8172e-05
-5.63002e-05
-5.44398e-05
-5.25933e-05
-5.07632e-05
-4.89516e-05
-4.71607e-05
-4.53927e-05
-4.36492e-05
-4.19323e-05
-4.02436e-05
-3.85845e-05
-3.69567e-05
-3.53614e-05
-3.37997e-05
-3.2273e-05
-3.07824e-05
-2.93283e-05
-2.79119e-05
-2.65337e-05
-2.51944e-05
-2.38944e-05
-2.26342e-05
-2.14139e-05
-2.02338e-05
-1.90941e-05
-1.79947e-05
-1.69355e-05
-1.59163e-05
-1.49371e-05
-1.39973e-05
-1.30966e-05
-1.22347e-05
-1.14108e-05
-1.06244e-05
-9.87497e-06
-9.16169e-06
-8.4838e-06
-7.8405e-06
-7.23091e-06
-6.65415e-06
-6.10928e-06
-5.59532e-06
-5.1113e-06
-4.65617e-06
-4.22894e-06
-3.82853e-06
-3.45388e-06
-3.10391e-06
-2.77753e-06
-2.47369e-06
-2.19122e-06
-1.92913e-06
-1.68626e-06
-1.46159e-06
-1.2541e-06
-1.06264e-06
-8.86369e-07
-7.2405e-07
-5.74916e-07
-4.3783e-07
-3.11718e-07
-1.96047e-07
-8.89197e-08
8.39465e-09
1.02042e-07
1.79893e-07
2.75402e-07
3.10088e-07
4.7233e-07
3.38493e-07
8.28125e-07
5.1078e-08
1.69824e-06
-1.02106e-06
3.62218e-06
-3.23932e-06
6.41728e-06
-5.32512e-06
7.32696e-06
-3.14222e-06
1.93735e-06
5.89428e-06
-8.09364e-06
1.46026e-05
-1.15193e-05
-0.00010442
-0.000103468
-0.000102451
-0.000101367
-0.000100219
-9.90095e-05
-9.77407e-05
-9.64145e-05
-9.50334e-05
-9.35998e-05
-9.2116e-05
-9.05842e-05
-8.90068e-05
-8.73864e-05
-8.57255e-05
-8.40272e-05
-8.22945e-05
-8.05304e-05
-7.87382e-05
-7.6921e-05
-7.5082e-05
-7.32246e-05
-7.13521e-05
-6.94679e-05
-6.75755e-05
-6.56781e-05
-6.37789e-05
-6.1881e-05
-5.99874e-05
-5.8101e-05
-5.62243e-05
-5.436e-05
-5.25104e-05
-5.06779e-05
-4.88648e-05
-4.7073e-05
-4.53045e-05
-4.35612e-05
-4.18448e-05
-4.01569e-05
-3.84991e-05
-3.68728e-05
-3.52793e-05
-3.37196e-05
-3.21952e-05
-3.07069e-05
-2.92552e-05
-2.78413e-05
-2.64657e-05
-2.5129e-05
-2.38317e-05
-2.25741e-05
-2.13566e-05
-2.01792e-05
-1.90421e-05
-1.79452e-05
-1.68886e-05
-1.5872e-05
-1.48951e-05
-1.39577e-05
-1.30594e-05
-1.21996e-05
-1.13779e-05
-1.05936e-05
-9.84611e-06
-9.13472e-06
-8.45865e-06
-7.81708e-06
-7.20915e-06
-6.63394e-06
-6.09057e-06
-5.57801e-06
-5.09532e-06
-4.64145e-06
-4.2154e-06
-3.8161e-06
-3.4425e-06
-3.0935e-06
-2.76804e-06
-2.46504e-06
-2.18336e-06
-1.92201e-06
-1.67983e-06
-1.45579e-06
-1.24888e-06
-1.05795e-06
-8.82172e-07
-7.20306e-07
-5.7159e-07
-4.34886e-07
-3.09134e-07
-1.93785e-07
-8.69624e-08
1.00903e-08
1.03454e-07
1.81153e-07
2.76269e-07
3.11159e-07
4.7238e-07
3.40026e-07
8.26435e-07
5.45885e-08
1.69294e-06
-1.01346e-06
3.61181e-06
-3.22776e-06
6.40499e-06
-5.31596e-06
7.32194e-06
-3.14422e-06
1.94485e-06
5.88247e-06
-8.08146e-06
1.45902e-05
-1.1526e-05
-0.0001063
-0.000105158
-0.000103967
-0.000102724
-0.00010143
-0.000100087
-9.86944e-05
-9.72544e-05
-9.57686e-05
-9.42387e-05
-9.26666e-05
-9.10543e-05
-8.94039e-05
-8.77177e-05
-8.59981e-05
-8.42476e-05
-8.24688e-05
-8.06643e-05
-7.88367e-05
-7.69887e-05
-7.51229e-05
-7.32421e-05
-7.13494e-05
-6.94476e-05
-6.75399e-05
-6.56293e-05
-6.37187e-05
-6.18112e-05
-5.99094e-05
-5.80161e-05
-5.61339e-05
-5.4265e-05
-5.2412e-05
-5.0577e-05
-4.8762e-05
-4.69692e-05
-4.52003e-05
-4.34571e-05
-4.17414e-05
-4.00547e-05
-3.83984e-05
-3.6774e-05
-3.51826e-05
-3.36253e-05
-3.21034e-05
-3.06179e-05
-2.91691e-05
-2.77582e-05
-2.63857e-05
-2.50521e-05
-2.3758e-05
-2.25036e-05
-2.12891e-05
-2.01149e-05
-1.89809e-05
-1.78871e-05
-1.68335e-05
-1.58198e-05
-1.48458e-05
-1.39112e-05
-1.30155e-05
-1.21584e-05
-1.13392e-05
-1.05573e-05
-9.81217e-06
-9.10303e-06
-8.42908e-06
-7.78955e-06
-7.18356e-06
-6.6102e-06
-6.06857e-06
-5.55767e-06
-5.07655e-06
-4.62415e-06
-4.1995e-06
-3.8015e-06
-3.42912e-06
-3.08127e-06
-2.75687e-06
-2.45487e-06
-2.17413e-06
-1.91364e-06
-1.67226e-06
-1.44896e-06
-1.24274e-06
-1.05243e-06
-8.77239e-07
-7.15906e-07
-5.6768e-07
-4.31427e-07
-3.06096e-07
-1.91127e-07
-8.466e-08
1.20809e-08
1.05122e-07
1.82615e-07
2.77331e-07
3.12322e-07
4.72644e-07
3.41417e-07
8.25232e-07
5.7302e-08
1.68909e-06
-1.0083e-06
3.60515e-06
-3.22157e-06
6.39954e-06
-5.31473e-06
7.32447e-06
-3.15184e-06
1.95396e-06
5.87412e-06
-8.07767e-06
1.4589e-05
-1.15454e-05
-0.000108321
-0.000106978
-0.000105601
-0.000104188
-0.000102738
-0.000101249
-9.97236e-05
-9.8161e-05
-9.65622e-05
-9.49286e-05
-9.32616e-05
-9.15627e-05
-8.98337e-05
-8.80766e-05
-8.62935e-05
-8.44865e-05
-8.26576e-05
-8.08089e-05
-7.89425e-05
-7.70605e-05
-7.5165e-05
-7.32584e-05
-7.13431e-05
-6.94217e-05
-6.7497e-05
-6.55718e-05
-6.36486e-05
-6.17304e-05
-5.98196e-05
-5.79188e-05
-5.60304e-05
-5.41566e-05
-5.22998e-05
-5.0462e-05
-4.86452e-05
-4.68512e-05
-4.5082e-05
-4.33391e-05
-4.16243e-05
-3.99389e-05
-3.82844e-05
-3.66621e-05
-3.50732e-05
-3.35186e-05
-3.19997e-05
-3.05173e-05
-2.90718e-05
-2.76643e-05
-2.62952e-05
-2.49652e-05
-2.36746e-05
-2.24238e-05
-2.1213e-05
-2.00423e-05
-1.89118e-05
-1.78215e-05
-1.67712e-05
-1.57609e-05
-1.47901e-05
-1.38586e-05
-1.2966e-05
-1.21118e-05
-1.12955e-05
-1.05164e-05
-9.77386e-06
-9.06723e-06
-8.3957e-06
-7.75847e-06
-7.15467e-06
-6.58338e-06
-6.04374e-06
-5.53471e-06
-5.05535e-06
-4.60463e-06
-4.18154e-06
-3.78501e-06
-3.41402e-06
-3.06746e-06
-2.74427e-06
-2.4434e-06
-2.1637e-06
-1.90419e-06
-1.66372e-06
-1.44126e-06
-1.23581e-06
-1.04621e-06
-8.71669e-07
-7.10938e-07
-5.63268e-07
-4.27523e-07
-3.02666e-07
-1.88126e-07
-8.20595e-08
1.43265e-08
1.07011e-07
1.84254e-07
2.78558e-07
3.13575e-07
4.73066e-07
3.42748e-07
8.24318e-07
5.95953e-08
1.686e-06
-1.00436e-06
3.60024e-06
-3.21787e-06
6.39707e-06
-5.31696e-06
7.33019e-06
-3.16192e-06
1.964e-06
5.86667e-06
-8.07642e-06
1.45913e-05
-1.15687e-05
-0.000110459
-0.000108906
-0.000107334
-0.000105741
-0.000104124
-0.000102482
-0.000100816
-9.91228e-05
-9.74045e-05
-9.56611e-05
-9.38936e-05
-9.21031e-05
-9.0291e-05
-8.84588e-05
-8.66082e-05
-8.47409e-05
-8.28583e-05
-8.09621e-05
-7.90538e-05
-7.71349e-05
-7.5207e-05
-7.32721e-05
-7.13321e-05
-6.93893e-05
-6.7446e-05
-6.55047e-05
-6.35678e-05
-6.16379e-05
-5.97173e-05
-5.78084e-05
-5.59133e-05
-5.40343e-05
-5.21735e-05
-5.03327e-05
-4.8514e-05
-4.6719e-05
-4.49494e-05
-4.3207e-05
-4.14932e-05
-3.98094e-05
-3.81569e-05
-3.65371e-05
-3.4951e-05
-3.33995e-05
-3.18839e-05
-3.0405e-05
-2.89632e-05
-2.75595e-05
-2.61944e-05
-2.48683e-05
-2.35817e-05
-2.23349e-05
-2.11281e-05
-1.99614e-05
-1.88348e-05
-1.77483e-05
-1.67019e-05
-1.56952e-05
-1.4728e-05
-1.38001e-05
-1.29109e-05
-1.206e-05
-1.12468e-05
-1.04707e-05
-9.73117e-06
-9.02736e-06
-8.35852e-06
-7.72384e-06
-7.12248e-06
-6.55352e-06
-6.01608e-06
-5.50913e-06
-5.03175e-06
-4.58287e-06
-4.16153e-06
-3.76664e-06
-3.39719e-06
-3.05208e-06
-2.73023e-06
-2.43061e-06
-2.15209e-06
-1.89366e-06
-1.6542e-06
-1.43267e-06
-1.22808e-06
-1.03927e-06
-8.65465e-07
-7.05405e-07
-5.58353e-07
-4.23176e-07
-2.98845e-07
-1.84783e-07
-7.91626e-08
1.6827e-08
1.09117e-07
1.86075e-07
2.79937e-07
3.14946e-07
4.73585e-07
3.44143e-07
8.23443e-07
6.19381e-08
1.68282e-06
-1.00024e-06
3.59491e-06
-3.21357e-06
6.39363e-06
-5.31814e-06
7.33482e-06
-3.17149e-06
1.97439e-06
5.85755e-06
-8.0721e-06
1.45896e-05
-1.15871e-05
-0.000112692
-0.00011092
-0.000109145
-0.000107364
-0.000105573
-0.000103772
-0.000101957
-0.000100129
-9.82853e-05
-9.64274e-05
-9.4555e-05
-9.26688e-05
-9.07698e-05
-8.8859e-05
-8.69376e-05
-8.50067e-05
-8.30674e-05
-8.11208e-05
-7.91677e-05
-7.72093e-05
-7.52468e-05
-7.32814e-05
-7.13148e-05
-6.93489e-05
-6.73855e-05
-6.5427e-05
-6.34754e-05
-6.1533e-05
-5.96019e-05
-5.76843e-05
-5.57822e-05
-5.38977e-05
-5.20326e-05
-5.01888e-05
-4.83681e-05
-4.65721e-05
-4.48024e-05
-4.30606e-05
-4.1348e-05
-3.96661e-05
-3.80159e-05
-3.63989e-05
-3.48159e-05
-3.32679e-05
-3.1756e-05