/*--------------------------------*- C++ -*----------------------------------*\
| =========                 |                                                 |
| \\      /  F ield         | OpenFOAM: The Open Source CFD Toolbox           |
|  \\    /   O peration     | Version:  2412                                  |
|   \\  /    A nd           | Website:  www.openfoam.com                      |
|    \\/     M anipulation  |                                                 |
\*---------------------------------------------------------------------------*/
FoamFile
{
    version     2.0;
    format      ascii;
    arch        "LSB;label=32;scalar=64";
    class       surfaceScalarField;
    location    "7";
    object      phi;
}
// * * * * * * * * * * * * * * * * * * * * * * * * * * * * * * * * * * * * * //

dimensions      [0 3 -1 0 0 0 0];

oriented        oriented;

internalField   nonuniform List<scalar> 
126304
(
0.00505076
-1.50834e-10
4.23476e-11
0.00504983
9.2506e-07
-4.95448e-10
0.00504682
3.01313e-06
-2.45017e-09
0.00504163
5.19361e-06
-4.64492e-09
0.00503552
6.11633e-06
-5.43236e-09
0.00502991
5.61996e-06
-4.25785e-09
0.00502555
4.35512e-06
-1.79869e-09
0.00502248
3.06989e-06
9.22763e-10
0.0050203
2.17587e-06
3.18203e-09
0.00501857
1.7333e-06
4.72704e-09
0.00501694
1.6243e-06
5.6135e-09
0.00501523
1.7005e-06
6.02067e-09
0.00501337
1.85146e-06
6.13604e-09
0.00501135
2.01547e-06
6.1062e-09
0.00500918
2.16645e-06
6.02074e-09
0.00500687
2.29806e-06
5.93121e-09
0.00500445
2.41253e-06
5.84939e-09
0.00500193
2.51461e-06
5.77977e-09
0.00499932
2.60894e-06
5.71288e-09
0.00499661
2.69918e-06
5.64066e-09
0.00499382
2.78803e-06
5.5609e-09
0.00499094
2.87733e-06
5.47105e-09
0.00498796
2.96833e-06
5.36831e-09
0.0049849
3.06188e-06
5.25327e-09
0.00498173
3.15853e-06
5.12417e-09
0.00497847
3.25865e-06
4.98452e-09
0.0049751
3.36249e-06
4.83481e-09
0.00497163
3.47022e-06
4.67783e-09
0.00496804
3.58196e-06
4.51269e-09
0.00496434
3.69781e-06
4.33861e-09
0.00496052
3.81783e-06
4.15404e-09
0.00495657
3.94209e-06
3.95864e-09
0.0049525
4.07066e-06
3.75277e-09
0.00494829
4.2036e-06
3.53794e-09
0.00494395
4.34096e-06
3.31612e-09
0.00493946
4.48283e-06
3.08932e-09
0.00493483
4.62929e-06
2.85866e-09
0.00493004
4.78043e-06
2.6246e-09
0.00492511
4.93636e-06
2.38711e-09
0.00492001
5.0972e-06
2.14583e-09
0.00491474
5.2631e-06
1.9003e-09
0.00490931
5.43421e-06
1.65037e-09
0.00490369
5.61072e-06
1.39663e-09
0.0048979
5.79285e-06
1.13998e-09
0.00489192
5.98084e-06
8.81647e-10
0.00488574
6.17497e-06
6.22644e-10
0.00487937
6.37559e-06
3.63897e-10
0.00487278
6.58309e-06
1.06057e-10
0.00486599
6.79793e-06
-1.502e-10
0.00485897
7.02062e-06
-4.04041e-10
0.00485171
7.25175e-06
-6.54137e-10
0.00484422
7.49201e-06
-8.98435e-10
0.00483648
7.74233e-06
-1.13412e-09
0.00482848
8.00468e-06
-1.35802e-09
8.28435e-06
0.0048202
-1.56727e-09
0.00505075
2.69189e-09
0.00504985
1.833e-06
0.00504689
5.96523e-06
0.00504179
1.0297e-05
0.00503576
1.21502e-05
0.00503018
1.11951e-05
0.00502583
8.70915e-06
0.00502273
6.17073e-06
0.00502051
4.39779e-06
0.00501872
3.51418e-06
0.00501706
3.29021e-06
0.00501532
3.43415e-06
0.00501345
3.72798e-06
0.00501141
4.04943e-06
0.00500923
4.3465e-06
0.00500693
4.60627e-06
0.00500451
4.83282e-06
0.00500198
5.03532e-06
0.00499937
5.22279e-06
0.00499667
5.40242e-06
0.00499388
5.57944e-06
0.004991
5.75747e-06
0.00498803
5.93899e-06
0.00498496
6.12563e-06
0.0049818
6.31849e-06
0.00497854
6.51829e-06
0.00497518
6.72552e-06
0.00497171
6.94052e-06
0.00496813
7.16352e-06
0.00496443
7.39471e-06
0.00496061
7.63423e-06
0.00495667
7.88219e-06
0.00495261
8.13873e-06
0.00494841
8.40397e-06
0.00494407
8.67803e-06
0.00493959
8.96106e-06
0.00493497
9.25322e-06
0.00493019
9.5547e-06
0.00492526
9.86571e-06
0.00492017
1.01865e-05
0.00491492
1.05173e-05
0.00490949
1.08585e-05
0.0049039
1.12104e-05
0.00489811
1.15735e-05
0.00489215
1.19482e-05
0.00488599
1.23351e-05
0.00487963
1.27348e-05
0.00487306
1.31481e-05
0.00486628
1.3576e-05
0.00485929
1.40193e-05
0.00485206
1.44793e-05
0.00484459
1.49571e-05
0.00483688
1.54547e-05
0.00482891
1.59757e-05
1.65303e-05
0.00482066
0.00505075
1.12667e-08
0.00504987
2.70826e-06
0.00504704
8.80269e-06
0.0050421
1.52332e-05
0.00503622
1.80338e-05
0.00503072
1.66909e-05
0.00502636
1.30646e-05
0.00502321
9.33013e-06
0.0050209
6.70324e-06
0.00501904
5.37856e-06
0.0050173
5.02628e-06
0.00501551
5.22068e-06
0.0050136
5.64136e-06
0.00501154
6.10749e-06
0.00500935
6.54128e-06
0.00500703
6.92263e-06
0.00500461
7.25673e-06
0.00500209
7.55655e-06
0.00499947
7.83499e-06
0.00499677
8.10243e-06
0.00499399
8.36644e-06
0.00499111
8.63229e-06
0.00498815
8.90355e-06
0.00498509
9.1826e-06
0.00498194
9.47104e-06
0.00497869
9.76992e-06
0.00497533
1.008e-05
0.00497187
1.04016e-05
0.0049683
1.07353e-05
0.00496461
1.10811e-05
0.00496081
1.14395e-05
0.00495688
1.18104e-05
0.00495282
1.21941e-05
0.00494864
1.25908e-05
0.00494431
1.30007e-05
0.00493985
1.34239e-05
0.00493524
1.38607e-05
0.00493049
1.43114e-05
0.00492558
1.47763e-05
0.00492051
1.52557e-05
0.00491527
1.57501e-05
0.00490987
1.62598e-05
0.0049043
1.67854e-05
0.00489854
1.73276e-05
0.0048926
1.7887e-05
0.00488648
1.84643e-05
0.00488015
1.90607e-05
0.00487362
1.96771e-05
0.00486688
2.03147e-05
0.00485993
2.09752e-05
0.00485275
2.16599e-05
0.00484533
2.23708e-05
0.00483768
2.31102e-05
0.00482977
2.38832e-05
2.47022e-05
0.0048216
0.00505074
2.80861e-08
0.00504991
3.53599e-06
0.00504724
1.14747e-05
0.00504255
1.99285e-05
0.00503688
2.3701e-05
0.0050315
2.20728e-05
0.00502714
1.74218e-05
0.0050239
1.25735e-05
0.00502147
9.12853e-06
0.00501949
7.36273e-06
0.00501765
6.863e-06
0.00501579
7.08304e-06
0.00501382
7.60759e-06
0.00501173
8.20005e-06
0.00500951
8.7571e-06
0.00500718
9.25054e-06
0.00500476
9.68566e-06
0.00500223
1.00783e-05
0.00499962
1.04445e-05
0.00499693
1.07975e-05
0.00499415
1.11468e-05
0.00499128
1.14991e-05
0.00498833
1.18589e-05
0.00498528
1.22294e-05
0.00498214
1.26125e-05
0.0049789
1.30096e-05
0.00497556
1.34215e-05
0.00497211
1.38489e-05
0.00496855
1.42923e-05
0.00496488
1.47519e-05
0.00496109
1.5228e-05
0.00495718
1.57208e-05
0.00495315
1.62305e-05
0.00494898
1.67574e-05
0.00494468
1.73018e-05
0.00494024
1.78637e-05
0.00493566
1.84437e-05
0.00493093
1.90419e-05
0.00492604
1.96589e-05
0.004921
2.02949e-05
0.0049158
2.09507e-05
0.00491044
2.16266e-05
0.0049049
2.23235e-05
0.00489918
2.3042e-05
0.00489329
2.3783e-05
0.0048872
2.45476e-05
0.00488093
2.53369e-05
0.00487445
2.61522e-05
0.00486777
2.69951e-05
0.00486088
2.78675e-05
0.00485377
2.87712e-05
0.00484643
2.97083e-05
0.00483886
3.06819e-05
0.00483105
3.16977e-05
3.2772e-05
0.00482298
0.00505073
5.52806e-08
0.00504996
4.30334e-06
0.0050475
1.39388e-05
0.00504311
2.43213e-05
0.00503771
2.90968e-05
0.00503247
2.73114e-05
0.00502811
2.17808e-05
0.00502476
1.59214e-05
0.00502219
1.17033e-05
0.00502006
9.49648e-06
0.00501809
8.82547e-06
0.00501614
9.04017e-06
0.0050141
9.63984e-06
0.00501197
1.03357e-05
0.00500973
1.0999e-05
0.00500738
1.15926e-05
0.00500495
1.21205e-05
0.00500243
1.26002e-05
0.00499982
1.30502e-05
0.00499713
1.34858e-05
0.00499436
1.39181e-05
0.00499151
1.43551e-05
0.00498856
1.48021e-05
0.00498553
1.52626e-05
0.0049824
1.57392e-05
0.00497918
1.62332e-05
0.00497586
1.67459e-05
0.00497243
1.72779e-05
0.00496889
1.78297e-05
0.00496524
1.84017e-05
0.00496147
1.89942e-05
0.00495759
1.96075e-05
0.00495357
2.02417e-05
0.00494943
2.08972e-05
0.00494516
2.15742e-05
0.00494075
2.2273e-05
0.0049362
2.2994e-05
0.00493151
2.37376e-05
0.00492666
2.45042e-05
0.00492166
2.52943e-05
0.0049165
2.61087e-05
0.00491118
2.69478e-05
0.00490569
2.78126e-05
0.00490003
2.87038e-05
0.00489419
2.96226e-05
0.00488817
3.057e-05
0.00488196
3.15474e-05
0.00487556
3.25564e-05
0.00486895
3.35986e-05
0.00486214
3.46762e-05
0.00485512
3.57912e-05
0.00484789
3.6946e-05
0.00484042
3.81436e-05
0.00483273
3.93898e-05
4.07009e-05
0.0048248
0.00505072
9.43167e-08
0.00505002
5.00098e-06
0.0050478
1.61634e-05
0.00504375
2.83664e-05
0.00503867
3.41797e-05
0.0050336
3.23839e-05
0.00502924
2.614e-05
0.00502577
1.93877e-05
0.00502302
1.44486e-05
0.00502072
1.18012e-05
0.00501861
1.09319e-05
0.00501655
1.11059e-05
0.00501444
1.17478e-05
0.00501225
1.25205e-05
0.00500998
1.32707e-05
0.00500763
1.39506e-05
0.00500518
1.45616e-05
0.00500266
1.51217e-05
0.00500006
1.56507e-05
0.00499738
1.61654e-05
0.00499462
1.66781e-05
0.00499178
1.71976e-05
0.00498885
1.77299e-05
0.00498584
1.82789e-05
0.00498273
1.88474e-05
0.00497952
1.9437e-05
0.00497622
2.0049e-05
0.00497281
2.06841e-05
0.0049693
2.13428e-05
0.00496568
2.20256e-05
0.00496194
2.27328e-05
0.00495808
2.34647e-05
0.0049541
2.42215e-05
0.00495
2.50034e-05
0.00494576
2.58109e-05
0.00494139
2.66442e-05
0.00493688
2.75037e-05
0.00493223
2.83899e-05
0.00492743
2.93032e-05
0.00492248
3.02443e-05
0.00491737
3.12138e-05
0.00491211
3.22124e-05
0.00490668
3.3241e-05
0.00490108
3.43005e-05
0.00489531
3.53922e-05
0.00488937
3.65171e-05
0.00488324
3.76768e-05
0.00487692
3.8873e-05
0.00487041
4.01075e-05
0.0048637
4.13823e-05
0.0048568
4.26997e-05
0.00484968
4.40618e-05
0.00484235
4.54715e-05
0.00483481
4.69334e-05
4.84616e-05
0.00482705
0.0050507
1.4772e-07
0.00505008
5.61973e-06
0.00504811
1.81345e-05
0.00504444
3.20361e-05
0.0050397
3.8925e-05
0.00503481
3.72752e-05
0.00503045
3.04961e-05
0.00502686
2.29785e-05
0.00502393
1.73749e-05
0.00502145
1.42885e-05
0.00501919
1.31925e-05
0.005017
1.32882e-05
0.00501482
1.39369e-05
0.00501258
1.47582e-05
0.00501027
1.55739e-05
0.0050079
1.63251e-05
0.00500545
1.70086e-05
0.00500293
1.76416e-05
0.00500034
1.82443e-05
0.00499767
1.88342e-05
0.00499492
1.94242e-05
0.0049921
2.00238e-05
0.00498919
2.06393e-05
0.00498619
2.12749e-05
0.00498311
2.19335e-05
0.00497993
2.2617e-05
0.00497665
2.33265e-05
0.00497327
2.40629e-05
0.00496979
2.48268e-05
0.00496619
2.56185e-05
0.00496249
2.64384e-05
0.00495867
2.72867e-05
0.00495472
2.81637e-05
0.00495066
2.90698e-05
0.00494646
3.00051e-05
0.00494214
3.097e-05
0.00493768
3.1965e-05
0.00493308
3.29906e-05
0.00492833
3.40471e-05
0.00492344
3.51353e-05
0.0049184
3.62559e-05
0.0049132
3.74095e-05
0.00490784
3.85972e-05
0.00490233
3.98199e-05
0.00489664
4.10788e-05
0.00489078
4.23751e-05
0.00488475
4.37104e-05
0.00487853
4.50864e-05
0.00487214
4.65048e-05
0.00486555
4.79678e-05
0.00485877
4.94774e-05
0.0048518
5.10356e-05
0.00484463
5.26443e-05
0.00483725
5.43058e-05
0.00482969
5.60262e-05
0.00482199
-1.79683e-06
-1.77132e-09
0.00482327
-1.27721e-06
-2.00763e-09
0.004824
-7.2569e-07
-2.24354e-09
0.00482415
-1.47474e-07
-2.45763e-09
0.00482371
4.4733e-07
-2.5973e-09
0.00482265
1.05774e-06
-2.76692e-09
0.00482098
1.67683e-06
-2.9177e-09
0.00481868
2.2987e-06
-3.04598e-09
0.00481576
2.92232e-06
-3.15408e-09
0.00481221
3.55224e-06
-3.24315e-09
0.00480802
4.19977e-06
-3.31425e-09
0.00480314
4.88301e-06
-3.36837e-09
0.00479752
5.62584e-06
-3.40675e-09
0.00479106
6.45593e-06
-3.43115e-09
0.00478366
7.40223e-06
-3.43787e-09
0.00477517
8.49259e-06
-3.43003e-09
0.00476543
9.75185e-06
-3.38794e-09
0.00475423
1.1201e-05
-3.32272e-09
0.00474137
1.28571e-05
-3.27527e-09
0.00472664
1.47349e-05
-3.24078e-09
0.0047098
1.68482e-05
-3.21773e-09
0.00469059
1.92119e-05
-3.20701e-09
0.00466875
2.18444e-05
-3.2007e-09
0.00464398
2.47697e-05
-3.19549e-09
0.00461597
2.80189e-05
-3.18767e-09
0.00458434
3.16323e-05
-3.17105e-09
0.00454868
3.56607e-05
-3.13805e-09
0.00450852
4.01675e-05
-3.08191e-09
0.00446329
4.5231e-05
-2.99748e-09
0.00441234
5.0947e-05
-2.88254e-09
0.00435491
5.74333e-05
-2.73876e-09
0.00429008
6.48344e-05
-2.57029e-09
0.00421675
7.3329e-05
-2.38448e-09
0.00413362
8.3139e-05
-2.19078e-09
0.00403908
9.45412e-05
-1.9982e-09
0.0039312
0.000107881
-1.81481e-09
0.00380762
0.000123585
-1.64605e-09
0.00366544
0.000142175
-1.49542e-09
0.00350118
0.00016426
-1.36383e-09
0.00331068
0.000190503
-1.24918e-09
0.00308916
0.000221528
-1.1493e-09
0.00283145
0.000257711
-1.05981e-09
0.00253262
0.000298823
-9.75304e-10
0.00218919
0.000343431
-8.91723e-10
0.00180118
0.000388009
-8.04439e-10
0.00137548
0.000425701
-7.11535e-10
0.000930701
0.000444783
-6.08116e-10
0.000503902
0.0004268
-4.93686e-10
0.000160115
0.000343787
-3.6391e-10
0.000160115
-1.75708e-10
0.0048211
-2.231e-06
0.00482102
-1.19828e-06
0.00482038
-8.91209e-08
0.00481918
1.0506e-06
0.00481739
2.24261e-06
0.00481498
3.46393e-06
0.00481196
4.70226e-06
0.00480831
5.94828e-06
0.00480403
7.2002e-06
0.00479912
8.46735e-06
0.00479354
9.77223e-06
0.00478727
1.11507e-05
0.00478025
1.26498e-05
0.00477238
1.43241e-05
0.00476355
1.62305e-05
0.00475362
1.84238e-05
0.00474242
2.0953e-05
0.00472976
2.38595e-05
0.00471544
2.71775e-05
0.00469924
3.09364e-05
0.00468093
3.51641e-05
0.00466025
3.98912e-05
0.00463694
4.51553e-05
0.0046107
5.10048e-05
0.00458122
5.75027e-05
0.00454812
6.47302e-05
0.00451099
7.27892e-05
0.00446935
8.1807e-05
0.00442264
9.19399e-05
0.00437021
0.00010338
0.00431128
0.000116361
0.00424494
0.000131172
0.0041701
0.000148169
0.00408545
0.000167791
0.00398941
0.000190588
0.00388004
0.000217242
0.00375503
0.000248597
0.00361153
0.000285675
0.00344612
0.00032967
0.00325476
0.00038187
0.00303282
0.000443467
0.00277538
0.000515146
0.00247784
0.000596364
0.0021371
0.000684175
0.00175362
0.000771489
0.00133466
0.000844655
0.000899055
0.000880391
0.000483513
0.000842342
0.000150712
0.000676588
0.000310827
0.00481932
4.98561e-08
0.00481653
1.58832e-06
0.00481321
3.22881e-06
0.00480932
4.94365e-06
0.00480484
6.72492e-06
0.00479975
8.55353e-06
0.00479404
1.04112e-05
0.0047877
1.22853e-05
0.00478073
1.4174e-05
0.0047731
1.60917e-05
0.0047648
1.8072e-05
0.00475579
2.01677e-05
0.00474599
2.24478e-05
0.00473532
2.4992e-05
0.00472367
2.78837e-05
0.00471089
3.12028e-05
0.00469682
3.50212e-05
0.00468128
3.93998e-05
0.00466407
4.43895e-05
0.00464497
5.00349e-05
0.00462375
5.63788e-05
0.00460018
6.34683e-05
0.00457397
7.13615e-05
0.00454484
8.01327e-05
0.00451247
8.98781e-05
0.00447648
0.00010072
0.00443645
0.000112814
0.00439191
0.00012635
0.00434229
0.000141563
0.00428692
0.000158741
0.00422505
0.000178234
0.00415575
0.000200471
0.00407794
0.000225982
0.00399031
0.000255418
0.00389131
0.000289592
0.00377904
0.000329506
0.00365125
0.000376396
0.00350517
0.00043175
0.00333755
0.000497287
0.00314458
0.000574843
0.00292198
0.000666065
0.00266532
0.000771807
0.00237064
0.000891049
0.00203562
0.00101919
0.00166157
0.00114554
0.00125638
0.00124985
0.000839004
0.00129776
0.000445709
0.00123564
0.000136285
0.000986012
0.000447112
0.00481668
6.34144e-06
0.00480989
8.38695e-06
0.00480256
1.05539e-05
0.00479468
1.28279e-05
0.00478621
1.51911e-05
0.00477714
1.76216e-05
0.00476746
2.00973e-05
0.00475714
2.26034e-05
0.00474617
2.51391e-05
0.00473454
2.77241e-05
0.00472221
3.04026e-05
0.00470913
3.32436e-05
0.00469525
3.63364e-05
0.00468045
3.97837e-05
0.00466464
4.36927e-05
0.00464768
4.81667e-05
0.0046294
5.32982e-05
0.00460964
5.91668e-05
0.00458819
6.58399e-05
0.00456484
7.33772e-05
0.00453939
8.18376e-05
0.00451157
9.12866e-05
0.00448112
0.000101804
0.00444777
0.000113492
0.00441116
0.000126482
0.00437094
0.000140939
0.00432669
0.00015707
0.0042779
0.000175133
0.00422403
0.00019544
0.0041644
0.000218373
0.00409823
0.000244396
0.00402463
0.000274079
0.00394249
0.000308115
0.00385055
0.000347362
0.00374726
0.000392876
0.00363081
0.000445957
0.00349901
0.000508195
0.00334928
0.00058148
0.0031786
0.000667973
0.00298351
0.000769926
0.00276031
0.00088927
0.00250531
0.00102681
0.00221555
0.00118081
0.0018899
0.00134484
0.00153084
0.0015046
0.00114699
0.0016337
0.000756944
0.00168781
0.000395005
0.00159758
0.000115704
0.00126531
0.000562816
0.00481322
1.792e-05
0.00480116
2.04528e-05
0.00478858
2.31348e-05
0.00477545
2.59525e-05
0.00476176
2.88856e-05
0.00474747
3.19092e-05
0.00473257
3.4999e-05
0.00471703
3.81391e-05
0.00470084
4.13307e-05
0.00468397
4.45995e-05
0.00466637
4.8e-05
0.004648
5.16159e-05
0.00462878
5.55549e-05
0.00460862
5.99404e-05
0.00458741
6.49007e-05
0.00456502
7.05596e-05
0.00454129
7.70288e-05
0.00451605
8.4405e-05
0.00448912
9.27716e-05
0.00446029
0.000102204
0.00442935
0.000112779
0.00439606
0.000124581
0.00436015
0.000137715
0.00432133
0.000152311
0.00427927
0.000168538
0.0042336
0.000186607
0.00418389
0.000206778
0.00412965
0.000229375
0.00407031
0.000254787
0.00400519
0.000283492
0.00393352
0.000316065
0.00385439
0.000353208
0.00376673
0.000395775
0.00366928
0.000444813
0.00356055
0.000501602
0.00343881
0.000567704
0.003302
0.000645001
0.00314778
0.000735705
0.00297347
0.000842283
0.00277617
0.000967222
0.00255295
0.00111249
0.00230122
0.00127854
0.00201942
0.00146261
0.00170806
0.0016562
0.00137111
0.00184154
0.00101796
0.00198685
0.000665947
0.00203983
0.000344097
0.00191942
9.54048e-05
0.00151401
0.000658221
0.00480899
3.59773e-05
0.00479047
3.89757e-05
0.00477145
4.21533e-05
0.00475191
4.5496e-05
0.00473181
4.89825e-05
0.00471113
5.25862e-05
0.00468985
5.62819e-05
0.00466793
6.00541e-05
0.00464536
6.3907e-05
0.00462208
6.78724e-05
0.00459807
7.2015e-05
0.00457325
7.64321e-05
0.00454756
8.12478e-05
0.0045209
8.66036e-05
0.00449315
9.26463e-05
0.00446419
9.95177e-05
0.00443388
0.000107346
0.00440204
0.000116245
0.0043685
0.000126312
0.00433306
0.000137641
0.00429551
0.000150325
0.00425562
0.000164471
0.00421313
0.000180209
0.00416774
0.000197704
0.00411911
0.000217161
0.00406688
0.000238838
0.00401061
0.000263052
0.00394979
0.000290192
0.00388385
0.000320727
0.00381212
0.000355226
0.00373381
0.000394376
0.00364801
0.000439005
0.00355367
0.000490118
0.00344955
0.000548934
0.00333423
0.000616924
0.00320607
0.00069586
0.00306323
0.000787838
0.00290368
0.000895253
0.00272529
0.00102068
0.00252596
0.00116655
0.00230397
0.00133448
0.00205841
0.0015241
0.00178987
0.00173114
0.00150135
0.00194473
0.0011991
0.00214378
0.000893564
0.00229239
0.000599747
0.00233364
0.000335835
0.00218334
0.000116106
0.00173373
0.000774327
0.00480405
6.16154e-05
0.00477798
6.50521e-05
0.00475143
6.87004e-05
0.00472438
7.25449e-05
0.0046968
7.65634e-05
0.00466866
8.07289e-05
0.00463992
8.50161e-05
0.00461056
8.94111e-05
0.00458055
9.39217e-05
0.00454984
9.85867e-05
0.00451837
0.000103481
0.00448609
0.000108713
0.00445291
0.000114424
0.00441875
0.00012077
0.00438348
0.000127914
0.00434698
0.000136013
0.00430912
0.00014521
0.00426973
0.000155633
0.00422865
0.000167396
0.00418568
0.000180607
0.00414063
0.00019538
0.00409325
0.000211844
0.0040433
0.000230159
0.00399048
0.000250522
0.00393446
0.00027318
0.00387486
0.000298438
0.00381124
0.000326672
0.0037431
0.000358336
0.00366985
0.00039398
0.00359081
0.000434264
0.0035052
0.000479982
0.00341212
0.000532087
0.00331051
0.000591725
0.00319918
0.000660267
0.00307675
0.000739352
0.0029417
0.000830911
0.00279238
0.000937162
0.00262709
0.00106054
0.00244427
0.0012035
0.00224277
0.00136805
0.00202231
0.00155494
0.00178413
0.00176228
0.00153178
0.00198349
0.001272
0.00220451
0.00101532
0.00240046
0.000775746
0.00253197
0.000567805
0.00254158
0.000396781
0.00235436
0.000241116
0.0018894
0.00101544
-2.23823e-05
2.2382e-05
2.71859e-10
-3.99594e-05
1.75761e-05
1.04426e-09
-2.6756e-05
-1.32051e-05
1.70831e-09
2.89808e-05
-5.5739e-05
2.18551e-09
0.00013017
-0.000101191
2.43483e-09
0.000274804
-0.000144637
2.50076e-09
0.000457543
-0.000182742
2.43748e-09
0.000671311
-0.00021377
2.30201e-09
0.00090839
-0.000237081
2.14805e-09
0.00116113
-0.000252738
2.02865e-09
0.00142239
-0.000261265
1.97647e-09
0.00168585
-0.000263464
2.01404e-09
0.00194613
-0.000260284
2.14746e-09
0.00219886
-0.000252726
2.36701e-09
0.00244062
-0.00024177
2.64922e-09
0.00266896
-0.000228335
2.96189e-09
0.0028822
-0.000213244
3.26677e-09
0.00307941
-0.000197214
3.52596e-09
0.00326025
-0.000180846
3.69885e-09
0.00342487
-0.000164624
3.73856e-09
0.00357379
-0.000148923
3.6541e-09
0.0037078
-0.000134018
3.25932e-09
0.0038279
-0.000120095
2.80094e-09
0.00393515
-0.00010726
2.52182e-09
0.00403071
-9.55604e-05
2.45524e-09
0.0041157
-8.49913e-05
2.70275e-09
0.00419121
-7.5513e-05
2.9882e-09
0.00425827
-6.70603e-05
3.24675e-09
0.00431782
-5.95525e-05
3.56855e-09
0.00437071
-5.29012e-05
3.97963e-09
0.00441772
-4.70163e-05
4.48513e-09
0.00445953
-4.18101e-05
5.07179e-09
0.00449672
-3.72006e-05
5.71285e-09
0.00452983
-3.31129e-05
6.37272e-09
0.0045593
-2.94802e-05
7.01163e-09
0.00458554
-2.62435e-05
7.59332e-09
0.00460888
-2.33518e-05
8.0896e-09
0.00462964
-2.07607e-05
8.48226e-09
0.00464806
-1.84326e-05
8.76527e-09
0.00466439
-1.6335e-05
8.94255e-09
0.00467882
-1.44405e-05
9.0256e-09
0.00469153
-1.27255e-05
9.03164e-09
0.0047027
-1.117e-05
8.98057e-09
0.00471244
-9.75681e-06
8.8913e-09
0.00472091
-8.47131e-06
8.78095e-09
0.0047282
-7.30096e-06
8.66372e-09
0.00473442
-6.23496e-06
8.5504e-09
0.00473968
-5.26388e-06
8.44854e-09
0.00474405
-4.37925e-06
8.36272e-09
-3.57297e-06
0.00474762
8.29527e-09
-1.83371e-05
4.07191e-05
-2.66528e-05
2.58918e-05
-3.84507e-06
-3.60128e-05
5.83703e-05
-0.000117954
0.000164065
-0.000206886
0.00031079
-0.000291361
0.000493229
-0.000365181
0.000704664
-0.000425206
0.000937825
-0.000470242
0.00118552
-0.000500431
0.00144105
-0.000516792
0.00169846
-0.000520878
0.0019527
-0.000514524
0.00219963
-0.00049966
0.00243604
-0.000478182
0.00265957
-0.000451865
0.00286864
-0.000422306
0.00306232
-0.000390895
0.00324027
-0.000358798
0.00340261
-0.000326963
0.00354981
-0.000296122
0.0036826
-0.000266814
0.00380192
-0.000239406
0.00390877
-0.000214116
0.00400425
-0.000191035
0.00408942
-0.000170162
0.00416533
-0.000151423
0.00423296
-0.000134694
0.00429323
-0.000119821
0.00434696
-0.000106632
0.00439489
-9.49521e-05
0.00443769
-8.46114e-05
0.00447594
-7.54492e-05
0.00451015
-6.73192e-05
0.00454076
-6.00901e-05
0.00456816
-5.36462e-05
0.0045927
-4.78867e-05
0.00461466
-4.27246e-05
0.00463431
-3.80852e-05
0.00465188
-3.39045e-05
0.00466757
-3.01279e-05
0.00468155
-2.67087e-05
0.00469399
-2.36072e-05
0.00470502
-2.07893e-05
0.00471478
-1.82257e-05
0.00472337
-1.58916e-05
0.0047309
-1.37653e-05
0.00473746
-1.18281e-05
0.00474315
-1.00628e-05
-8.4532e-06
0.00474803
-9.08629e-06
4.98054e-05
-3.11478e-07
1.7117e-05
3.60887e-05
-7.24131e-05
0.000110816
-0.000192682
0.000224389
-0.000320459
0.000374072
-0.000441044
0.00055505
-0.000546159
0.000761361
-0.000631517
0.00098661
-0.000695491
0.00122448
-0.000738301
0.00146907
-0.000761387
0.00171514
-0.000766941
0.00195817
-0.000757554
0.00219446
-0.000735955
0.00242111
-0.000704834
0.00263596
-0.000666712
0.00283752
-0.000623868
0.00302492
-0.000578289
0.00319777
-0.000531652
0.00335613
-0.000485324
0.00350038
-0.000440369
0.00363114
-0.000397576
0.00374922
-0.000357486
0.00385553
-0.000320426
0.00395104
-0.000286546
0.00403673
-0.000255852
0.00411356
-0.000228249
0.00418243
-0.000203568
0.0042442
-0.000181589
0.00429964
-0.000162071
0.00434945
-0.000144764
0.00439426
-0.000129422
0.00443463
-0.000115813
0.00447104
-0.000103727
0.00450392
-9.297e-05
0.00453365
-8.33752e-05
0.00456055
-7.47945e-05
0.00458493
-6.71002e-05
0.00460703
-6.01823e-05
0.00462707
-5.39464e-05
0.00464525
-4.8312e-05
0.00466175
-4.32098e-05
0.00467673
-3.85809e-05
0.00469031
-3.43745e-05
0.00470263
-3.05473e-05
0.0047138
-2.70621e-05
0.00472393
-2.38867e-05
0.00473309
-2.09928e-05
0.00474138
-1.8355e-05
-1.59477e-05
0.00474888
4.26176e-06
4.55436e-05
3.09992e-05
-9.62037e-06
8.73361e-05
-0.00012875
0.000176885
-0.000282231
0.000298675
-0.000442249
0.000449981
-0.00059235
0.000626809
-0.000722987
0.000824389
-0.000829096
0.0010376
-0.000908702
0.00126133
-0.000962028
0.00149073
-0.000990789
0.00172142
-0.00099763
0.00194957
-0.000985706
0.00217198
-0.000958369
0.00238609
-0.000918941
0.00258993
-0.000870555
0.00278212
-0.000816058
0.00296179
-0.00075795
0.00312848
-0.000698351
0.00328216
-0.000639003
0.00342307
-0.000581272
0.00355167
-0.00052618
0.00366863
-0.000474442
0.0037747
-0.000426498
0.00387071
-0.000382562
0.00395753
-0.000342668
0.00403599
-0.000306712
0.00410692
-0.000274493
0.00417107
-0.000245745
0.00422917
-0.000220169
0.00428186
-0.000197451
0.00432972
-0.000177281
0.00437327
-0.000159367
0.00441298
-0.000143436
0.00444925
-0.000129245
0.00448245
-0.000116576
0.0045129
-0.000105237
0.00454086
-9.50644e-05
0.00456659
-8.59138e-05
0.00459031
-7.76623e-05
0.0046122
-7.02045e-05
0.00463244
-6.34496e-05
0.00465118
-5.73199e-05
0.00466856
-5.17489e-05
0.00468469
-4.66792e-05
0.00469969
-4.20616e-05
0.00471365
-3.78533e-05
0.00472668
-3.40171e-05
0.00473884
-3.05186e-05
-2.73228e-05
0.00475022
1.93733e-05
2.61703e-05
6.67677e-05
-5.70147e-05
0.000144124
-0.000206107
0.000247309
-0.000385416
0.00037435
-0.00056929
0.000523135
-0.000741135
0.000691121
-0.000890973
0.000875221
-0.0010132
0.00107194
-0.00110542
0.00127757
-0.00116766
0.00148844
-0.00120166
0.00170105
-0.00121025
0.00191225
-0.0011969
0.00211927
-0.00116539
0.00231982
-0.00111949
0.00251206
-0.0010628
0.00269464
-0.000998632
0.0028666
-0.000929915
0.00302741
-0.000859158
0.00317685
-0.00078844
0.00331499
-0.000719409
0.00344212
-0.000653318
0.00355873
-0.00059105
0.00366541
-0.000533173
0.00376282
-0.00047998
0.0038517
-0.000431547
0.00393277
-0.000387782
0.00400675
-0.000348468
0.00407431
-0.000313311
0.00413611
-0.000281966
0.00419273
-0.000254071
0.00424471
-0.000229264
0.00429254
-0.000207197
0.00433666
-0.00018755
0.00437744
-0.000170029
0.00441524
-0.000154372
0.00445035
-0.00014035
0.00448305
-0.000127762
0.00451357
-0.000116434
0.00454212
-0.000106215
0.00456889
-9.69758e-05
0.00459405
-8.86058e-05
0.00461774
-8.10092e-05
0.00464009
-7.41036e-05
0.00466123
-6.78183e-05
0.00468126
-6.20922e-05
0.00470028
-5.68723e-05
0.00471838
-5.21123e-05
0.00473563
-4.7769e-05
-4.37977e-05
0.0047521
4.07436e-05
-1.45733e-05
0.000113598
-0.00012987
0.000207845
-0.000300353
0.000318134
-0.000495705
0.000442809
-0.000693965
0.000581338
-0.000879664
0.00073327
-0.0010429
0.000897615
-0.00117754
0.00107271
-0.00128052
0.00125636
-0.0013513
0.00144598
-0.00139128
0.00163887
-0.00140314
0.00183237
-0.0013904
0.00202399
-0.00135701
0.00221153
-0.00130703
0.00239315
-0.00124442
0.00256736
-0.00117284
0.00273306
-0.00109561
0.0028895
-0.0010156
0.00303625
-0.000935194
0.00317318
-0.000856334
0.00330036
-0.000780504
0.00341809
-0.000708778
0.00352678
-0.000641862
0.00362695
-0.000580153
0.00371919
-0.000523789
0.00380412
-0.00047271
0.00388236
-0.000426704
0.00395451
-0.000385462
0.00402115
-0.000348613
0.00408284
-0.000315756
0.00414006
-0.000286486
0.00419328
-0.000260414
0.0042429
-0.00023717
0.00428929
-0.000216421
0.00433278
-0.000197865
0.00437367
-0.000181236
0.00441221
-0.000166299
0.00444862
-0.000152852
0.00448313
-0.000140718
0.0045159
-0.000129745
0.00454709
-0.000119803
0.00457686
-0.000110778
0.00460533
-0.000102573
0.00463262
-9.5103e-05
0.00465882
-8.82967e-05
0.00468404
-8.20905e-05
0.00470836
-7.6429e-05
0.00473185
-7.1261e-05
-6.65322e-05
0.00475458
7.21148e-05
-8.66882e-05
0.000169679
-0.000227434
0.000271429
-0.000402103
0.000376562
-0.000600837
0.00048708
-0.000804483
0.000605415
-0.000997999
0.000733617
-0.00117111
0.00087278
-0.00131671
0.00102287
-0.00143061
0.00118284
-0.00151128
0.00135091
-0.00155935
0.00152482
-0.00157705
0.0017021
-0.00156768
0.0018803
-0.00153521
0.00205711
-0.00148385
0.00223052
-0.00141782
0.0023988
-0.00134113
0.00256062
-0.00125743
0.00271496
-0.00116994
0.00286116
-0.00108139
0.00299885
-0.000994019
0.0031279
-0.000909556
0.00324841
-0.00082929
0.00336064
-0.000754095
0.00346498
-0.00068449
0.00356189
-0.000620701
0.0036519
-0.000562719
0.00373555
-0.000510357
0.0038134
-0.000463306
0.00388597
-0.00042118
0.00395376
-0.00038355
0.00401725
-0.000349977
0.00407687
-0.000320033
0.00413301
-0.00029331
0.00418602
-0.000269435
0.00423623
-0.000248069
0.0042839
-0.000228911
0.0043293
-0.000211697
0.00437265
-0.000196196
0.00441413
-0.000182205
0.00445394
-0.000169552
0.00449222
-0.000158086
0.00452912
-0.000147676
0.00456476
-0.000138212
0.00459925
-0.000129595
0.0046327
-0.000121741
0.00466518
-0.000114578
0.0046968
-0.000108042
0.00472761
-0.000102073
0.00475769
-9.66127e-05
0.00476081
-1.32031e-05
8.29353e-09
0.00477361
-1.28033e-05
8.43007e-09
0.00478603
-1.24318e-05
8.58907e-09
0.0047981
-1.20823e-05
8.77093e-09
0.00480984
-1.17442e-05
8.9745e-09
0.00482123
-1.14024e-05
9.19614e-09
0.00483226
-1.10376e-05
9.42865e-09
0.00484288
-1.06288e-05
9.66077e-09
0.00485302
-1.01571e-05
9.87667e-09
0.00486263
-9.61059e-06
1.00558e-08
0.0048716
-8.98975e-06
1.01752e-08
0.00487991
-8.31057e-06
1.02121e-08
0.0048875
-7.60421e-06
1.01481e-08
0.0048944
-6.91223e-06
9.97224e-09
0.00490067
-6.27833e-06
9.68388e-09
0.0049064
-5.73899e-06
9.29358e-09
0.00491171
-5.31593e-06
8.82153e-09
0.00491671
-5.01275e-06
8.29296e-09
0.00492152
-4.81643e-06
7.73295e-09
0.00492622
-4.70262e-06
7.16275e-09
0.00493085
-4.64252e-06
6.59856e-09
0.00493545
-4.60908e-06
6.05126e-09
0.00494003
-4.58106e-06
5.5271e-09
0.00494457
-4.5445e-06
5.0295e-09
0.00494906
-4.49224e-06
4.5599e-09
0.00495348
-4.42226e-06
4.11716e-09
0.00495781
-4.3358e-06
3.69775e-09
0.00496204
-4.23567e-06
3.298e-09
0.00496616
-4.12515e-06
2.91505e-09
0.00497017
-4.00733e-06
2.54701e-09
0.00497405
-3.88482e-06
2.19295e-09
0.00497781
-3.75968e-06
1.85142e-09
0.00498144
-3.6335e-06
1.52084e-09
0.00498495
-3.50743e-06
1.19949e-09
0.00498833
-3.38234e-06
8.88715e-10
0.00499159
-3.25885e-06
5.94399e-10
0.00499472
-3.13741e-06
3.24923e-10
0.00499774
-3.01836e-06
8.86368e-11
0.00500064
-2.9019e-06
-1.13391e-10
0.00500343
-2.78817e-06
-2.88043e-10
0.00500611
-2.67726e-06
-4.47941e-10
0.00500868
-2.56921e-06
-6.04823e-10
0.00501114
-2.46404e-06
-7.65536e-10
0.00501351
-2.36175e-06
-9.29964e-10
0.00501577
-2.26235e-06
-1.09812e-09
0.00501794
-2.16575e-06
-1.27222e-09
0.00502001
-2.07192e-06
-1.46351e-09
0.00502199
-1.98081e-06
-1.68524e-09
0.00502389
-1.89236e-06
-1.93893e-09
0.0050257
-1.80652e-06
-2.22572e-09
0.00502742
-1.72327e-06
-2.53597e-09
0.00502907
-1.64256e-06
-2.85467e-09
0.00503063
-1.56438e-06
-3.15831e-09
0.00503213
-1.48869e-06
-3.42962e-09
0.00503355
-1.41546e-06
-3.65331e-09
0.00503489
-1.34463e-06
-3.82376e-09
0.00503617
-1.27616e-06
-3.94396e-09
0.00503739
-1.20997e-06
-4.03612e-09
0.00503854
-1.14601e-06
-4.136e-09
0.00503963
-1.0842e-06
-4.26578e-09
0.00504066
-1.02451e-06