/*--------------------------------*- C++ -*----------------------------------*\
| =========                 |                                                 |
| \\      /  F ield         | OpenFOAM: The Open Source CFD Toolbox           |
|  \\    /   O peration     | Version:  2412                                  |
|   \\  /    A nd           | Website:  www.openfoam.com                      |
|    \\/     M anipulation  |                                                 |
\*---------------------------------------------------------------------------*/
FoamFile
{
    version     2.0;
    format      ascii;
    arch        "LSB;label=32;scalar=64";
    class       volVectorField;
    location    "7";
    object      U;
}
// * * * * * * * * * * * * * * * * * * * * * * * * * * * * * * * * * * * * * //

dimensions      [0 1 -1 0 0 0 0];

internalField   nonuniform List<vector> 
63420
(
(0.100027 -3.06798e-09 0)
(0.0999808 3.20958e-06 0)
(0.099973 1.06703e-05 0)
(0.0998781 1.87472e-05 0)
(0.0997597 2.24971e-05 0)
(0.0996384 2.10534e-05 0)
(0.0995372 1.66045e-05 0)
(0.0994653 1.19007e-05 0)
(0.0994156 8.57196e-06 0)
(0.0993788 6.94716e-06 0)
(0.0993467 6.63985e-06 0)
(0.0993143 7.10098e-06 0)
(0.0992792 7.89927e-06 0)
(0.0992408 8.78255e-06 0)
(0.0991992 9.63809e-06 0)
(0.0991548 1.04345e-05 0)
(0.099108 1.11779e-05 0)
(0.099059 1.18873e-05 0)
(0.0990082 1.25825e-05 0)
(0.0989555 1.32803e-05 0)
(0.0989011 1.39937e-05 0)
(0.0988449 1.47325e-05 0)
(0.0987869 1.55041e-05 0)
(0.0987272 1.63143e-05 0)
(0.0986655 1.71676e-05 0)
(0.0986019 1.80678e-05 0)
(0.0985363 1.90183e-05 0)
(0.0984686 2.0022e-05 0)
(0.0983987 2.1082e-05 0)
(0.0983266 2.22011e-05 0)
(0.0982521 2.33822e-05 0)
(0.0981753 2.46283e-05 0)
(0.0980959 2.59424e-05 0)
(0.098014 2.73277e-05 0)
(0.0979293 2.87875e-05 0)
(0.097842 3.03253e-05 0)
(0.0977517 3.19449e-05 0)
(0.0976586 3.36501e-05 0)
(0.0975624 3.54453e-05 0)
(0.097463 3.73349e-05 0)
(0.0973605 3.93237e-05 0)
(0.0972546 4.14171e-05 0)
(0.0971453 4.36206e-05 0)
(0.0970324 4.59404e-05 0)
(0.0969159 4.8383e-05 0)
(0.0967956 5.09559e-05 0)
(0.0966714 5.36672e-05 0)
(0.0965431 5.65258e-05 0)
(0.0964107 5.95418e-05 0)
(0.096274 6.27264e-05 0)
(0.0961328 6.6092e-05 0)
(0.0959869 6.96526e-05 0)
(0.0958362 7.34253e-05 0)
(0.0956804 7.74389e-05 0)
(0.0955193 8.1758e-05 0)
(0.100027 1.48914e-09 0)
(0.0999807 9.56385e-06 0)
(0.0999736 3.1768e-05 0)
(0.0998803 5.5864e-05 0)
(0.0997637 6.71264e-05 0)
(0.0996436 6.2943e-05 0)
(0.0995429 4.97888e-05 0)
(0.0994705 3.58349e-05 0)
(0.0994201 2.59385e-05 0)
(0.0993824 2.10935e-05 0)
(0.0993495 2.01627e-05 0)
(0.0993164 2.15199e-05 0)
(0.0992809 2.38854e-05 0)
(0.0992421 2.65095e-05 0)
(0.0992003 2.90561e-05 0)
(0.0991558 3.14309e-05 0)
(0.099109 3.36515e-05 0)
(0.09906 3.57731e-05 0)
(0.0990092 3.78542e-05 0)
(0.0989565 3.99443e-05 0)
(0.0989021 4.20819e-05 0)
(0.098846 4.42961e-05 0)
(0.0987881 4.66088e-05 0)
(0.0987284 4.9037e-05 0)
(0.0986668 5.15943e-05 0)
(0.0986033 5.4292e-05 0)
(0.0985378 5.71401e-05 0)
(0.0984701 6.01476e-05 0)
(0.0984004 6.33234e-05 0)
(0.0983283 6.66761e-05 0)
(0.098254 7.02142e-05 0)
(0.0981772 7.39466e-05 0)
(0.098098 7.78824e-05 0)
(0.0980162 8.2031e-05 0)
(0.0979317 8.64026e-05 0)
(0.0978445 9.10074e-05 0)
(0.0977544 9.58568e-05 0)
(0.0976614 0.000100962 0)
(0.0975654 0.000106337 0)
(0.0974662 0.000111994 0)
(0.0973639 0.000117948 0)
(0.0972582 0.000124214 0)
(0.0971491 0.000130809 0)
(0.0970365 0.000137752 0)
(0.0969203 0.000145061 0)
(0.0968002 0.00015276 0)
(0.0966764 0.000160873 0)
(0.0965485 0.000169425 0)
(0.0964164 0.000178447 0)
(0.0962801 0.000187972 0)
(0.0961393 0.000198037 0)
(0.095994 0.000208682 0)
(0.0958438 0.000219959 0)
(0.0956886 0.00023195 0)
(0.0955282 0.000244843 0)
(0.100027 3.59241e-08 0)
(0.0999806 1.57458e-05 0)
(0.0999748 5.22496e-05 0)
(0.0998847 9.20622e-05 0)
(0.0997716 0.000110913 0)
(0.0996539 0.000104379 0)
(0.0995539 8.29811e-05 0)
(0.0994808 6.01178e-05 0)
(0.0994288 4.38126e-05 0)
(0.0993893 3.57575e-05 0)
(0.0993549 3.41291e-05 0)
(0.0993206 3.62799e-05 0)
(0.0992842 4.01142e-05 0)
(0.0992448 4.43983e-05 0)
(0.0992027 4.85752e-05 0)
(0.099158 5.24847e-05 0)
(0.099111 5.61514e-05 0)
(0.099062 5.96633e-05 0)
(0.0990112 6.31143e-05 0)
(0.0989586 6.65848e-05 0)
(0.0989043 7.01372e-05 0)
(0.0988482 7.38189e-05 0)
(0.0987904 7.76658e-05 0)
(0.0987309 8.17056e-05 0)
(0.0986694 8.59606e-05 0)
(0.098606 9.04495e-05 0)
(0.0985407 9.51888e-05 0)
(0.0984732 0.000100193 0)
(0.0984036 0.000105478 0)
(0.0983318 0.000111057 0)
(0.0982577 0.000116943 0)
(0.0981812 0.000123153 0)
(0.0981022 0.000129701 0)
(0.0980206 0.000136602 0)
(0.0979364 0.000143874 0)
(0.0978495 0.000151533 0)
(0.0977597 0.000159598 0)
(0.097667 0.000168089 0)
(0.0975714 0.000177026 0)
(0.0974726 0.000186432 0)
(0.0973707 0.00019633 0)
(0.0972654 0.000206746 0)
(0.0971568 0.000217708 0)
(0.0970447 0.000229246 0)
(0.096929 0.000241392 0)
(0.0968096 0.000254182 0)
(0.0966863 0.000267656 0)
(0.0965591 0.000281857 0)
(0.0964279 0.000296835 0)
(0.0962923 0.000312642 0)
(0.0961525 0.000329338 0)
(0.096008 0.000346989 0)
(0.0958589 0.000365676 0)
(0.095705 0.000385528 0)
(0.0955459 0.000406825 0)
(0.100027 1.18464e-07 0)
(0.0999803 2.16479e-05 0)
(0.0999766 7.17329e-05 0)
(0.099891 0.000126777 0)
(0.0997829 0.000153339 0)
(0.0996688 0.000145085 0)
(0.0995698 0.000116186 0)
(0.0994955 8.49624e-05 0)
(0.0994413 6.25041e-05 0)
(0.0993994 5.12546e-05 0)
(0.0993627 4.88096e-05 0)
(0.0993266 5.15887e-05 0)
(0.099289 5.67331e-05 0)
(0.0992488 6.25472e-05 0)
(0.0992061 6.82563e-05 0)
(0.0991611 7.36296e-05 0)
(0.099114 7.86924e-05 0)
(0.0990649 8.35588e-05 0)
(0.0990141 8.83539e-05 0)
(0.0989616 9.31852e-05 0)
(0.0989074 9.81369e-05 0)
(0.0988515 0.000103273 0)
(0.0987939 0.000108643 0)
(0.0987345 0.000114284 0)
(0.0986733 0.000120226 0)
(0.0986101 0.000126496 0)
(0.098545 0.000133116 0)
(0.0984778 0.000140106 0)
(0.0984085 0.000147488 0)
(0.098337 0.00015528 0)
(0.0982632 0.000163502 0)
(0.098187 0.000172174 0)
(0.0981084 0.000181317 0)
(0.0980272 0.000190954 0)
(0.0979434 0.000201107 0)
(0.0978569 0.000211799 0)
(0.0977676 0.000223057 0)
(0.0976755 0.000234907 0)
(0.0975803 0.000247379 0)
(0.0974822 0.000260503 0)
(0.0973808 0.000274312 0)
(0.0972763 0.000288841 0)
(0.0971683 0.000304128 0)
(0.097057 0.000320214 0)
(0.0969421 0.000337145 0)
(0.0968236 0.000354969 0)
(0.0967013 0.000373739 0)
(0.0965751 0.000393516 0)
(0.0964449 0.000414365 0)
(0.0963106 0.000436359 0)
(0.096172 0.000459577 0)
(0.096029 0.000484107 0)
(0.0958815 0.000510056 0)
(0.0957293 0.000537588 0)
(0.0955721 0.000567067 0)
(0.100027 2.63663e-07 0)
(0.0999801 2.71785e-05 0)
(0.0999788 8.98796e-05 0)
(0.0998989 0.000159517 0)
(0.0997971 0.000193955 0)
(0.0996874 0.000184817 0)
(0.0995897 0.000149407 0)
(0.0995142 0.000110551 0)
(0.0994572 8.22789e-05 0)
(0.0994121 6.78565e-05 0)
(0.0993726 6.44368e-05 0)
(0.0993344 6.7625e-05 0)
(0.0992951 7.38691e-05 0)
(0.0992539 8.10403e-05 0)
(0.0992106 8.8151e-05 0)
(0.0991651 9.48938e-05 0)
(0.0991178 0.000101286 0)
(0.0990687 0.000107459 0)
(0.099018 0.000113563 0)
(0.0989656 0.000119728 0)
(0.0989115 0.000126058 0)
(0.0988559 0.000132631 0)
(0.0987985 0.000139508 0)
(0.0987393 0.000146735 0)
(0.0986784 0.000154351 0)
(0.0986155 0.000162387 0)
(0.0985507 0.000170873 0)
(0.0984839 0.000179834 0)
(0.098415 0.000189296 0)
(0.0983439 0.000199283 0)
(0.0982705 0.000209821 0)
(0.0981947 0.000220935 0)
(0.0981166 0.000232652 0)
(0.0980359 0.000244999 0)
(0.0979527 0.000258006 0)
(0.0978668 0.000271702 0)
(0.0977781 0.00028612 0)
(0.0976866 0.000301295 0)
(0.0975922 0.000317263 0)
(0.0974948 0.000334062 0)
(0.0973943 0.000351734 0)
(0.0972906 0.000370324 0)
(0.0971836 0.000389879 0)
(0.0970733 0.00041045 0)
(0.0969594 0.000432094 0)
(0.0968421 0.000454872 0)
(0.096721 0.00047885 0)
(0.0965962 0.000504102 0)
(0.0964674 0.000530709 0)
(0.0963347 0.000558759 0)
(0.0961979 0.000588349 0)
(0.0960568 0.000619585 0)
(0.0959113 0.000652591 0)
(0.0957614 0.00068756 0)
(0.0956067 0.000724909 0)
(0.100027 4.81145e-07 0)
(0.0999798 3.22639e-05 0)
(0.0999813 0.000106422 0)
(0.0999081 0.000189891 0)
(0.0998134 0.000232403 0)
(0.0997089 0.00022338 0)
(0.0996127 0.000182639 0)
(0.0995357 0.000137021 0)
(0.0994755 0.000103342 0)
(0.0994268 8.57737e-05 0)
(0.0993841 8.11924e-05 0)
(0.0993434 8.45291e-05 0)
(0.0993023 9.16216e-05 0)
(0.0992599 9.99432e-05 0)
(0.0992158 0.000108299 0)
(0.09917 0.000116297 0)
(0.0991225 0.000123937 0)
(0.0990734 0.000131358 0)
(0.0990227 0.000138728 0)
(0.0989704 0.000146195 0)
(0.0989166 0.000153877 0)
(0.0988611 0.000161865 0)
(0.098804 0.000170229 0)
(0.0987452 0.000179024 0)
(0.0986846 0.000188295 0)
(0.0986221 0.000198079 0)
(0.0985578 0.000208412 0)
(0.0984914 0.000219324 0)
(0.0984229 0.000230845 0)
(0.0983523 0.000243005 0)
(0.0982794 0.000255834 0)
(0.0982043 0.000269364 0)
(0.0981267 0.000283625 0)
(0.0980467 0.000298651 0)
(0.0979641 0.000314478 0)
(0.097879 0.00033114 0)
(0.0977911 0.000348678 0)
(0.0977004 0.000367133 0)
(0.0976069 0.000386547 0)
(0.0975104 0.000406967 0)
(0.0974109 0.000428443 0)
(0.0973083 0.000451027 0)
(0.0972025 0.000474776 0)
(0.0970934 0.000499752 0)
(0.0969809 0.00052602 0)
(0.0968649 0.000553651 0)
(0.0967454 0.000582725 0)
(0.0966223 0.000613326 0)
(0.0964953 0.000645548 0)
(0.0963646 0.000679492 0)
(0.0962298 0.000715268 0)
(0.096091 0.000752995 0)
(0.0959481 0.000792808 0)
(0.0958009 0.000834899 0)
(0.0956493 0.000879681 0)
(0.100027 7.88176e-07 0)
(0.0999794 3.68164e-05 0)
(0.099984 0.000121214 0)
(0.0999179 0.000217625 0)
(0.099831 0.000268439 0)
(0.0997321 0.000260632 0)
(0.0996376 0.000215864 0)
(0.0995589 0.000164452 0)
(0.0994954 0.000125821 0)
(0.099443 0.000105142 0)
(0.0993969 9.91957e-05 0)
(0.0993534 0.000102394 0)
(0.0993104 0.000110057 0)
(0.0992667 0.000119299 0)
(0.0992218 0.000128725 0)
(0.0991756 0.000137851 0)
(0.0991278 0.000146646 0)
(0.0990787 0.00015525 0)
(0.0990281 0.000163837 0)
(0.098976 0.000172567 0)
(0.0989224 0.00018157 0)
(0.0988673 0.000190947 0)
(0.0988105 0.000200774 0)
(0.0987521 0.000211114 0)
(0.0986919 0.000222018 0)
(0.0986299 0.000233529 0)
(0.098566 0.000245686 0)
(0.0985001 0.000258524 0)
(0.0984322 0.000272079 0)
(0.0983622 0.000286385 0)
(0.09829 0.000301476 0)
(0.0982155 0.000317389 0)
(0.0981386 0.000334159 0)
(0.0980594 0.000351827 0)
(0.0979776 0.000370431 0)
(0.0978933 0.000390015 0)
(0.0978064 0.000410623 0)
(0.0977167 0.000432302 0)
(0.0976242 0.000455103 0)
(0.0975289 0.000479078 0)
(0.0974306 0.000504286 0)
(0.0973292 0.000530785 0)
(0.0972248 0.000558641 0)
(0.0971172 0.000587924 0)
(0.0970063 0.000618708 0)
(0.096892 0.000651074 0)
(0.0967743 0.00068511 0)
(0.0966531 0.000720911 0)
(0.0965283 0.00075858 0)
(0.0963999 0.000798229 0)
(0.0962676 0.000839976 0)
(0.0961315 0.000883947 0)
(0.0959915 0.000930274 0)
(0.0958475 0.000979127 0)
(0.0956995 0.00103083 0)
(0.095352 8.65689e-05 -4.93469e-24)
(0.0951765 9.16414e-05 -5.02484e-24)
(0.0949913 9.70131e-05 -3.27953e-26)
(0.0947958 0.000102595 1.54177e-23)
(0.0945897 0.00010842 -5.10824e-24)
(0.0943726 0.0001144 -5.24971e-24)
(0.0941444 0.000120445 -1.61442e-23)
(0.0939051 0.000126503 1.60341e-23)
(0.0936547 0.000132566 5.47982e-24)
(0.0933933 0.000138682 0)
(0.0931207 0.000144965 5.65295e-24)
(0.0928366 0.000151598 -5.74621e-24)
(0.09254 0.000158824 4.72169e-23)
(0.0922298 0.00016692 -1.01158e-22)
(0.091904 0.000176179 5.40492e-23)
(0.0915602 0.000186881 4.37384e-23)
(0.0911955 0.000199275 5.61261e-23)
(0.0908067 0.00021357 -6.42159e-24)
(0.0903902 0.000229936 6.55762e-24)
(0.0899419 0.000248518 -6.70181e-24)
(0.0894578 0.000269451 0)
(0.0889336 0.00029288 7.01742e-24)
(0.0883646 0.000318988 -7.19036e-24)
(0.0877458 0.00034801 0)
(0.0870719 0.000380255 -7.57092e-24)
(0.0863367 0.000416122 0)
(0.0855335 0.000456118 -8.0047e-24)
(0.0846544 0.000500874 -1.34127e-22)
(0.0836903 0.000551171 1.42424e-22)
(0.0826307 0.000607964 -1.42999e-22)
(0.0814631 0.000672429 1.42782e-22)
(0.0801727 0.000746009 0)
(0.0787419 0.000830489 0)
(0.0771499 0.000928083 1.75353e-22)
(0.0753711 0.00104156 -1.64992e-22)
(0.0733748 0.00117435 0)
(0.0711235 0.00133075 0)
(0.0685715 0.00151594 0)
(0.065663 0.00173601 0)
(0.0623309 0.00199757 0)
(0.0584966 0.00230682 0)
(0.0540712 0.00266746 0)
(0.0489631 0.0030771 0)
(0.0430918 0.00352128 0)
(0.0364166 0.00396464 -1.65939e-23)
(0.0289836 0.00433855 -5.72017e-22)
(0.0209781 0.00452646 5.71159e-22)
(0.0128122 0.00434907 6.22459e-22)
(0.00551197 0.00353231 -6.21525e-22)
(0.00112954 0.00165316 0)
(0.0953614 0.000259201 -4.98865e-24)
(0.0951864 0.00027434 -1.01632e-23)
(0.0950017 0.000290328 -5.31487e-24)
(0.0948068 0.000307166 4.96783e-24)
(0.0946013 0.000324647 -5.17557e-24)
(0.0943848 0.000342545 3.70466e-23)
(0.0941573 0.000360652 -5.81796e-23)
(0.0939185 0.00037883 5.39815e-24)
(0.0936686 0.000397054 7.19654e-23)
(0.0934075 0.000415465 -9.93979e-23)
(0.093135 0.000434405 -9.69305e-23)
(0.0928507 0.000454419 8.54118e-23)
(0.0925537 0.00047622 0)
(0.0922428 0.000500637 5.95359e-24)
(0.0919162 0.000528532 -1.81826e-23)
(0.0915715 0.000560735 -2.05992e-22)
(0.0912058 0.000597984 1.97565e-22)
(0.0908161 0.000640901 -2.10019e-22)
(0.0903988 0.000689995 -1.97025e-23)
(0.08995 0.000745698 6.71651e-24)
(0.0894657 0.00080842 0)
(0.0889417 0.000878605 -7.03559e-24)
(0.0883733 0.000956804 -2.26595e-22)
(0.0877558 0.00104373 4.73451e-22)
(0.0870837 0.00114032 2.61e-22)
(0.086351 0.00124776 -4.92383e-22)
(0.085551 0.00136759 5.30084e-22)
(0.084676 0.0015017 -5.37887e-22)
(0.0837172 0.00165242 -8.53541e-24)
(0.082664 0.00182261 0)
(0.0815044 0.00201579 0)
(0.0802241 0.00223626 0)
(0.0788058 0.00248935 0)
(0.0772295 0.00278166 -1.01594e-23)
(0.0754705 0.0031214 -6.89923e-22)
(0.0734996 0.00351883 -2.99904e-23)
(0.0712808 0.0039866 7.18043e-22)
(0.0687707 0.0045401 7.84387e-22)
(0.0659168 0.00519726 -7.83348e-22)
(0.0626555 0.0059775 -2.61023e-23)
(0.0589126 0.00689881 -2.7335e-23)
(0.0546039 0.00797158 -9.4654e-22)
(0.0496409 0.00918777 9.15308e-22)
(0.0439434 0.0105032 -3.13515e-23)
(0.0374631 0.0118117 1.67099e-23)
(0.0302244 0.0129082 -1.16324e-21)
(0.0223714 0.0134456 1.1629e-21)
(0.0142443 0.0128915 -2.4331e-21)
(0.00672716 0.0104427 2.39242e-21)
(0.00162652 0.00485233 -2.45121e-21)
(0.0953802 0.000430493 -2.95275e-23)
(0.095206 0.000455654 -1.03336e-23)
(0.0950224 0.000482252 3.99305e-23)
(0.0948287 0.000510229 -8.20222e-23)
(0.0946244 0.000539234 1.75444e-22)
(0.0944092 0.000568949 -8.30817e-23)
(0.0941829 0.000599079 1.45603e-26)
(0.0939453 0.000629407 1.07678e-23)
(0.0936964 0.000659902 1.87542e-22)
(0.093436 0.000690799 -1.7641e-22)
(0.0931638 0.000722661 0)
(0.0928793 0.000756376 1.4933e-26)
(0.0925817 0.000793109 0)
(0.0922698 0.000834203 2.04452e-22)
(0.0919418 0.000881061 -1.80217e-22)
(0.0915955 0.00093503 -3.87969e-22)
(0.0912283 0.000997313 2.12756e-23)
(0.0908371 0.00106893 -4.0823e-22)
(0.0904186 0.00115071 1.31839e-23)
(0.0899691 0.0012434 -4.36465e-22)
(0.0894848 0.00134768 4.49834e-22)
(0.0889616 0.00146431 -4.57944e-22)
(0.0883949 0.00159423 4.71982e-22)
(0.0877801 0.00173864 1.4848e-23)
(0.0871119 0.00189913 -1.52504e-23)
(0.0863845 0.00207771 1.56793e-23)
(0.0855914 0.0022769 -5.25034e-22)
(0.0847251 0.00249988 5.41195e-22)
(0.0837771 0.00275051 5.75888e-22)
(0.0827373 0.00303354 -5.58211e-22)
(0.0815943 0.00335478 0)
(0.0803345 0.00372136 0)
(0.0789419 0.00414203 1.96423e-23)
(0.0773975 0.00462764 1.35478e-21)
(0.0756789 0.00519168 3.38337e-23)
(0.0737593 0.00585088 -1.3648e-21)
(0.0716062 0.00662585 0)
(0.069181 0.00754148 -2.39369e-23)
(0.066437 0.00862661 1.67157e-21)
(0.0633185 0.00991214 -3.34118e-21)
(0.0597597 0.011426 3.55119e-21)
(0.0556854 0.013183 1.1307e-22)
(0.0510141 0.0151669 -1.85333e-21)
(0.0456651 0.0173017 -2.02003e-21)
(0.0395747 0.0194097 2.08182e-21)
(0.0327228 0.0211534 1.59922e-24)
(0.0251692 0.0219632 -3.56342e-23)
(0.0171126 0.0209658 2.34958e-21)
(0.00913846 0.0168828 -2.27518e-21)
(0.00258161 0.0077728 -2.27429e-21)
(0.0954082 0.00059982 1.94621e-23)
(0.0952354 0.000634778 -9.86854e-24)
(0.0950532 0.0006718 2.00783e-26)
(0.0948612 0.000710595 1.01397e-23)
(0.0946587 0.000750883 -2.0091e-26)
(0.0944455 0.000792267 1.6815e-22)
(0.0942212 0.00083435 -3.17628e-22)
(0.0939855 0.000876855 1.70645e-22)
(0.0937382 0.000919757 -1.09134e-23)
(0.093479 0.000963393 2.01486e-22)
(0.0932075 0.00100854 -1.79213e-22)
(0.0929232 0.0010564 -3.71385e-22)
(0.0926252 0.00110855 7.4961e-22)
(0.0923124 0.0011668 -7.63843e-22)
(0.091983 0.00123305 7.78787e-22)
(0.0916351 0.00130911 -7.8216e-22)
(0.0912663 0.00139661 -4.13939e-22)
(0.0908737 0.00149695 2.2072e-26)
(0.0904543 0.00161128 0)
(0.0900047 0.00174062 -4.25112e-22)
(0.0895212 0.00188598 4.38465e-22)
(0.089 0.00204844 0)
(0.0884367 0.00222937 -9.45679e-22)
(0.0878269 0.00243048 9.30342e-22)
(0.0871655 0.00265401 1.53955e-23)
(0.0864469 0.0029028 -3.49924e-26)
(0.085665 0.00318041 1.62707e-23)
(0.0848126 0.00349124 0)
(0.0838818 0.00384069 -5.0819e-26)
(0.0828633 0.00423535 0)
(0.0817464 0.00468325 -1.84789e-23)
(0.0805187 0.00519423 1.25006e-21)
(0.0791659 0.00578033 -1.24971e-21)
(0.0776712 0.00645645 -2.0688e-23)
(0.0760149 0.00724097 4.28714e-23)
(0.0741741 0.00815662 -1.48045e-21)
(0.0721217 0.00923122 1.43442e-21)
(0.069826 0.0104981 2.43508e-23)
(0.0672493 0.0119954 -3.65456e-25)
(0.0643471 0.0137634 2.61078e-23)
(0.0610669 0.0158371 -1.79925e-21)
(0.0573469 0.018232 3.64312e-21)
(0.0531153 0.0209199 -1.90212e-21)
(0.0482909 0.02379 1.98051e-21)
(0.0427863 0.0265937 -2.07344e-21)
(0.0365141 0.0288694 -4.14145e-21)
(0.029401 0.0298451 8.4533e-21)
(0.0214338 0.0283277 -4.28164e-21)
(0.0127955 0.022608 0)
(0.00400044 0.0102867 -4.01682e-21)
(0.095445 0.000766397 -9.65354e-24)
(0.0952739 0.000810777 -3.93958e-23)
(0.0950937 0.000857773 1.19371e-22)
(0.0949039 0.000907119 -1.61091e-22)
(0.094704 0.000958449 7.09291e-23)
(0.0944934 0.0010113 1.03891e-23)
(0.0942718 0.00106522 -1.05553e-23)
(0.0940388 0.00111989 -2.53386e-26)
(0.0937939 0.00117533 1.09113e-23)
(0.0935367 0.00123198 -2.21789e-23)
(0.0932668 0.0012908 -3.64575e-22)
(0.0929834 0.0013533 3.76251e-22)
(0.0926857 0.00142142 -3.6699e-22)
(0.0923725 0.00149737 3.78844e-22)
(0.0920425 0.00158347 0)
(0.0916937 0.00168195 -2.5008e-26)
(0.0913241 0.00179483 0)
(0.0909312 0.00192381 -4.08066e-22)
(0.0905121 0.00207039 4.34581e-22)
(0.0900638 0.00223588 -1.36456e-23)
(0.0895829 0.00242158 -9.1936e-22)
(0.0890657 0.00262898 9.05788e-22)
(0.0885085 0.00285984 -1.47238e-23)
(0.0879067 0.00311644 0)
(0.0872558 0.00340168 0)
(0.0865505 0.00371924 -1.05504e-21)
(0.0857851 0.00407368 1.02299e-21)
(0.0849531 0.00447063 0)
(0.0840472 0.00491696 -3.51046e-23)
(0.083059 0.00542102 0)
(0.0819792 0.00599296 1.88031e-23)
(0.0807969 0.00664513 -1.93972e-23)
(0.0795 0.00739266 -2.02048e-23)
(0.0780746 0.00825406 2.08543e-23)
(0.0765048 0.00925213 1.37414e-21)
(0.0747729 0.0104148 -1.41823e-21)
(0.0728588 0.011776 3.09237e-21)
(0.0707399 0.0133758 -3.09443e-21)
(0.0683908 0.0152597 3.29864e-21)
(0.0657819 0.0174742 1.0397e-22)
(0.0628781 0.0200578 -3.4853e-21)
(0.0596354 0.0230228 -2.79976e-23)
(0.0559953 0.0263254 1.32761e-24)
(0.0518766 0.0298187 1.78098e-24)
(0.0471623 0.0331878 2.38236e-24)
(0.0416796 0.0358632 -6.12986e-23)
(0.0351778 0.0369064 -2.81674e-23)
(0.0273466 0.0348516 -2.67315e-23)
(0.0178471 0.0275781 0)
(0.00590779 0.0123831 8.42754e-24)
(0.0954904 0.000929345 -4.79045e-23)
(0.0953214 0.000982867 2.8816e-23)
(0.0951436 0.00103958 9.84741e-24)
(0.0949567 0.00109921 1.51011e-22)
(0.0947599 0.00116136 -1.51075e-22)
(0.0945527 0.00122553 1.56063e-22)
(0.0943347 0.00129124 -3.46309e-22)
(0.0941052 0.00135819 4.92615e-22)
(0.0938637 0.00142644 -3.44975e-22)
(0.0936096 0.00149653 -3.57351e-22)
(0.0933422 0.00156965 -1.76769e-23)
(0.0930609 0.00164755 7.24909e-22)
(0.0927648 0.00173249 -7.63057e-22)
(0.0924527 0.00182706 3.55793e-22)
(0.0921235 0.00193393 3.83471e-22)
(0.0917754 0.00205567 4.00411e-22)
(0.0914067 0.00219464 -3.03909e-23)
(0.0910153 0.00235287 8.161e-22)
(0.0905986 0.00253212 8.41918e-22)
(0.090154 0.00273403 2.08714e-23)
(0.0896785 0.00296024 -8.9218e-22)
(0.0891686 0.00321262 0)
(0.0886209 0.00349345 0)
(0.0880314 0.00380557 -9.93305e-22)
(0.0873959 0.00415261 9.79038e-22)
(0.0867096 0.0045391 1.05441e-21)
(0.0859673 0.00497065 -1.05597e-21)
(0.0851635 0.00545413 0)
(0.0842916 0.00599786 1.17928e-21)
(0.0833446 0.00661193 -1.18157e-21)
(0.0823147 0.00730854 0)
(0.0811933 0.00810243 -2.56083e-21)
(0.0799707 0.00901154 2.58454e-21)
(0.0786367 0.0100576 -2.13805e-23)
(0.0771805 0.0112672 -2.86621e-21)
(0.0755905 0.0126722 2.89278e-21)
(0.0738554 0.0143108 0)
(0.0719641 0.0162272 3.26528e-21)
(0.069906 0.0184696 -3.2452e-21)
(0.0676703 0.0210848 2.64234e-23)
(0.065244 0.0241064 3.61297e-21)
(0.0626059 0.0275338 -7.262e-21)
(0.0597159 0.0312974 7.57143e-24)
(0.0564967 0.0352067 2.80438e-23)
(0.0528036 0.0388817 3.80044e-21)
(0.0483746 0.0416668 4.1778e-24)
(0.0427611 0.0425131 -3.26961e-21)
(0.035273 0.0397918 3.35178e-21)
(0.0247895 0.0311485 0)
(0.00858179 0.0137461 2.92811e-23)
(0.0955438 0.00108793 9.43822e-24)
(0.0953774 0.00114999 8.68709e-23)
(0.0952028 0.00121584 -7.74684e-23)
(0.0950194 0.0012852 9.93301e-24)
(0.0948265 0.00135768 1.52537e-22)
(0.0946236 0.00143274 -1.52786e-22)
(0.09441 0.00150992 -3.26837e-22)
(0.0941851 0.00158895 5.13859e-24)
(0.0939482 0.00166994 -5.81242e-24)
(0.0936985 0.00175361 3.62454e-22)
(0.0934353 0.00184129 -3.53525e-22)
(0.0931578 0.00193502 7.49914e-22)
(0.0928652 0.00203733 -3.73537e-22)
(0.0925564 0.00215112 1.2061e-23)
(0.0922302 0.00227938 1.23347e-23)
(0.0918855 0.002425 8.15257e-22)
(0.0915205 0.00259061 -4.87989e-24)
(0.0911336 0.00277853 8.50548e-22)
(0.0907227 0.00299084 1.35829e-23)
(0.0902854 0.0032295 0)
(0.0898191 0.00349653 0)
(0.089321 0.00379426 -9.52545e-22)
(0.0887879 0.00412551 9.54952e-22)
(0.0882165 0.00449383 0)
(0.0876029 0.00490364 1.60542e-23)
(0.0869432 0.00536044 0)
(0.0862329 0.00587099 -1.1087e-21)
(0.0854675 0.00644348 2.25735e-21)
(0.0846417 0.00708786 -1.14873e-21)
(0.0837501 0.00781605 -2.43576e-21)
(0.0827868 0.00864243 -8.29123e-23)
(0.0817458 0.00958426 -8.79447e-23)
(0.0806209 0.0106623 -9.30059e-23)
(0.0794061 0.0119016 2.74374e-21)
(0.078096 0.0133321 2.95082e-21)
(0.0766866 0.014989 -2.95784e-21)
(0.075176 0.0169131 0)
(0.0735655 0.0191495 3.29298e-21)
(0.0718606 0.0217437 -3.30062e-21)
(0.0700703 0.0247335 -3.52659e-21)
(0.0682052 0.0281332 3.50721e-21)
(0.0662699 0.0319082 2.87976e-23)
(0.0642475 0.0359351 3.56632e-21)
(0.0620737 0.0399491 -1.04709e-22)
(0.0595924 0.0434783 -3.53498e-21)
(0.0564827 0.04578 2.70177e-23)
(0.0521535 0.0457704 0)
(0.0456222 0.0418863 -2.13764e-23)
(0.0348079 0.0320074 -9.69037e-22)
(0.0138397 0.0136695 4.84318e-22)
(-0.000231576 0.000235675 0)
(-0.000657103 0.000192141 2.75058e-22)
(-0.000751139 -0.000121915 -2.7547e-22)
(-0.000145492 -0.000561465 -2.49572e-22)
(0.00129279 -0.00102946 2.49947e-22)
(0.00355493 -0.00147611 -6.94772e-24)
(0.00656956 -0.00186787 0)
(0.0102228 -0.00218705 0)
(0.0143802 -0.00242712 0)
(0.018903 -0.00258888 0)
(0.0236575 -0.00267784 0)
(0.0285223 -0.00270239 0)
(0.0333909 -0.00267236 0)
(0.0381747 -0.00259803 0)
(0.0428022 -0.00248945 0)
(0.0472193 -0.00235596 1.18876e-23)
(0.0513874 -0.00220594 -1.12493e-23)
(0.0552816 -0.00204661 0)
(0.0588893 -0.001884 0)
(0.0622076 -0.00172297 -2.68393e-24)
(0.0652415 -0.00156725 2.68803e-24)
(0.0680019 -0.00141957 -1.19028e-24)
(0.0705044 -0.00128174 8.49971e-26)
(0.0727669 -0.00115484 0)
(0.074809 -0.00103929 7.33182e-26)
(0.0766509 -0.000935019 0)
(0.0783124 -0.000841621 0)
(0.0798122 -0.000758427 0)
(0.0811681 -0.000684623 1.2155e-25)
(0.0823963 -0.000619318 0)
(0.0835112 -0.000561607 -1.54795e-25)
(0.0845258 -0.000510615 1.70884e-25)
(0.0854517 -0.000465519 -1.86146e-25)
(0.0862988 -0.000425575 1.83016e-24)
(0.087076 -0.000390116 -1.8458e-24)
(0.087791 -0.000358555 -1.6008e-24)
(0.0884503 -0.000330385 3.50287e-24)
(0.0890599 -0.000305169 -1.91297e-24)
(0.0896248 -0.000282531 -2.54377e-25)
(0.0901495 -0.000262154 2.61861e-25)
(0.0906379 -0.000243764 0)
(0.0910935 -0.00022713 2.73955e-25)
(0.0915193 -0.000212056 -1.39644e-24)
(0.091918 -0.000198373 1.40214e-24)
(0.0922922 -0.000185938 -2.85887e-25)
(0.092644 -0.000174629 8.65462e-25)
(0.0929754 -0.000164339 -2.87482e-25)
(0.0932882 -0.000154978 -5.83335e-25)
(0.0935842 -0.000146462 2.91957e-25)
(0.0938648 -0.000138714 -2.93215e-25)
(-0.000239212 0.000661451 -1.10515e-21)
(-0.000546491 0.000471057 -1.15825e-21)
(-0.000343525 -0.000472839 1.14115e-21)
(0.000600519 -0.00175355 -4.9705e-22)
(0.0023534 -0.00313073 4.98906e-22)
(0.00486918 -0.00444276 6.99575e-24)
(0.00807038 -0.00559077 -1.29449e-23)
(0.0118412 -0.00652478 -3.41084e-22)
(0.0160518 -0.00722637 3.30151e-22)
(0.020572 -0.00769811 -8.2803e-24)
(0.0252787 -0.00795631 -6.86721e-24)
(0.0300611 -0.00802555 1.53924e-22)
(0.0348231 -0.00793464 -1.54129e-22)
(0.0394851 -0.00771369 -9.34775e-23)
(0.0439835 -0.00739213 2.28937e-23)
(0.0482703 -0.00699732 7.08032e-23)
(0.0523117 -0.00655379 -6.59527e-25)
(0.0560865 -0.00608272 -1.11755e-24)
(0.059584 -0.00560183 0)
(0.0628028 -0.00512542 0)
(0.0657484 -0.00466448 0)
(0.0684317 -0.00422707 -1.10716e-25)
(0.0708675 -0.0038186 5.65734e-24)
(0.0730731 -0.00344223 -6.23902e-24)
(0.0750672 -0.00309925 5.51655e-24)
(0.0768687 -0.00278955 -2.56123e-24)
(0.0784964 -0.00251193 -6.44952e-24)
(0.0799683 -0.00226446 3.41364e-24)
(0.081301 -0.00204477 -1.21863e-25)
(0.0825099 -0.00185025 -3.10454e-25)
(0.0836089 -0.00167825 1.55134e-25)
(0.0846102 -0.00152617 -5.39073e-25)
(0.085525 -0.00139161 6.09332e-24)
(0.0863628 -0.00127236 -1.32364e-23)
(0.0871322 -0.00116645 6.5034e-24)
(0.0878404 -0.00107216 -6.92198e-25)
(0.088494 -0.000987976 2.36453e-25)
(0.0890987 -0.0009126 0)
(0.0896593 -0.000844921 -4.42016e-24)
(0.0901802 -0.00078399 3.89891e-24)
(0.0906653 -0.000728997 3.81156e-24)
(0.0911179 -0.000679254 -5.19151e-24)
(0.0915411 -0.000634171 2.78629e-25)
(0.0919375 -0.000593246 1.42531e-24)
(0.0923095 -0.000556051 -2.57246e-24)
(0.0926593 -0.00052222 -2.88211e-25)
(0.092989 -0.000491435 -2.03922e-24)
(0.0933002 -0.000463423 -2.975e-25)
(0.0935946 -0.000437935 5.84984e-25)
(0.0938736 -0.000414734 8.79118e-25)
(-0.000251729 0.000936112 -1.18756e-21)
(-0.000302045 0.000463786 1.23465e-21)
(0.000521848 -0.00107091 -1.19768e-21)
(0.00211433 -0.00313483 -1.72597e-23)
(0.00443777 -0.00534696 -8.03946e-25)
(0.00742335 -0.00744032 -8.91997e-22)
(0.0109649 -0.00926616 9.21383e-22)
(0.0149439 -0.0107489 7.14764e-22)
(0.019242 -0.0118604 -9.12419e-23)
(0.0237466 -0.0126052 -1.10044e-21)
(0.0283548 -0.0130095 9.31479e-22)
(0.0329761 -0.0131124 -4.12097e-22)
(0.0375335 -0.0129596 -5.02141e-24)
(0.041964 -0.0125989 0)
(0.0462184 -0.012077 1.66719e-22)
(0.0502599 -0.0114374 -4.17929e-23)
(0.0540634 -0.0107193 -1.22627e-22)
(0.0576137 -0.00995638 2.55005e-24)
(0.0609045 -0.00917706 0)
(0.0639365 -0.00840427 0)
(0.0667161 -0.00765576 1.45845e-23)
(0.0692541 -0.00694459 -1.40986e-23)
(0.0715643 -0.00627957 -9.39766e-24)
(0.0736625 -0.00566599 9.89876e-24)
(0.0755654 -0.00510606 3.2815e-25)
(0.0772903 -0.00459973 -3.17124e-25)
(0.078854 -0.00414523 3.19093e-25)
(0.0802724 -0.00373955 -9.19875e-24)
(0.0815607 -0.00337893 9.53775e-24)
(0.0827326 -0.00305922 -1.04239e-23)
(0.0838008 -0.00277619 1.1113e-23)
(0.0847765 -0.00252568 3.69304e-25)
(0.0856698 -0.00230382 1.35e-23)
(0.0864895 -0.00210703 -2.73664e-23)
(0.0872435 -0.00193213 1.47307e-23)
(0.0879386 -0.0017763 8.25173e-24)
(0.088581 -0.0016371 -7.28267e-24)
(0.0891759 -0.00151241 0)
(0.0897281 -0.00140041 -1.69669e-26)
(0.0902416 -0.00129954 0)
(0.0907201 -0.00120848 8.86601e-24)
(0.091167 -0.0011261 -8.33265e-24)
(0.0915849 -0.00105141 5.73919e-25)
(0.0919767 -0.000983605 -9.32899e-27)
(0.0923445 -0.000921964 4.63748e-24)
(0.0926905 -0.000865884 -8.7348e-24)
(0.0930166 -0.000814842 4.66982e-24)
(0.0933245 -0.000768381 -2.35541e-24)
(0.0936158 -0.000726088 1.76748e-24)
(0.0938919 -0.000687559 5.85939e-25)
(-0.000208607 0.000962572 -2.6668e-21)
(0.000228439 0.000109788 0)
(0.00194198 -0.00201241 2.50038e-21)
(0.00439914 -0.0047945 -4.87537e-21)
(0.00749529 -0.00771394 2.39078e-21)
(0.0110943 -0.0104554 9.50019e-22)
(0.0150642 -0.01284 -9.97904e-22)
(0.0192916 -0.0147731 7.6827e-22)
(0.0236775 -0.0162194 -1.44175e-21)
(0.0281352 -0.0171854 6.62662e-22)
(0.0325898 -0.0177048 8.45254e-24)
(0.0369783 -0.0178281 7.29606e-25)
(0.0412487 -0.0176148 5.10738e-24)
(0.04536 -0.017127 -2.53645e-22)
(0.0492809 -0.0164256 2.45856e-22)
(0.052989 -0.0155676 5.46037e-24)
(0.0564701 -0.0146042 -1.89757e-24)
(0.059717 -0.01358 9.19039e-23)
(0.0627282 -0.0125326 -9.15367e-23)
(0.0655074 -0.0114923 -1.14084e-24)
(0.0680621 -0.010483 0)
(0.0704028 -0.00952224 2.36398e-25)
(0.0725417 -0.00862216 0)
(0.074493 -0.00778997 5.39374e-25)
(0.076271 -0.00702907 1.54276e-25)
(0.0778903 -0.00633964 3.20127e-25)
(0.0793652 -0.00571955 -2.42199e-23)
(0.0807093 -0.005165 2.40068e-23)
(0.0819355 -0.00467115 0)
(0.0830555 -0.00423256 -1.30565e-23)
(0.0840803 -0.00384365 1.35935e-23)
(0.0850196 -0.00349893 0)
(0.0858822 -0.0031932 -5.01036e-26)
(0.0866759 -0.0029217 -1.59328e-23)
(0.0874078 -0.00268015 3.20076e-23)
(0.0880841 -0.00246475 -3.252e-23)
(0.0887102 -0.00227218 3.34868e-23)
(0.089291 -0.00209957 -3.42983e-23)
(0.0898308 -0.00194444 1.73271e-23)
(0.0903335 -0.00180467 8.99558e-24)
(0.0908025 -0.00167844 -7.86292e-24)
(0.0912408 -0.00156419 -5.83027e-25)
(0.0916512 -0.00146059 -9.29635e-24)
(0.0920361 -0.0013665 1.98595e-23)
(0.0923977 -0.00128095 -9.38972e-24)
(0.092738 -0.00120308 1.00255e-26)
(0.0930589 -0.00113219 5.87637e-25)
(0.093362 -0.00106762 -7.8491e-27)
(0.0936488 -0.00100881 -5.8852e-25)
(0.0939206 -0.000955175 1.18129e-24)
(4.68393e-05 0.000701178 -2.44044e-24)
(0.00127652 -0.000705961 -2.52539e-23)
(0.00403524 -0.0034023 -2.35232e-23)
(0.00752677 -0.00674172 -2.18263e-23)
(0.0114899 -0.0101869 -3.89612e-23)
(0.0157398 -0.0134057 -1.14181e-24)
(0.0201383 -0.0162031 1.54825e-23)
(0.0245888 -0.0184723 -1.47439e-23)
(0.0290201 -0.0201718 -1.29527e-23)
(0.0333777 -0.0213069 1.25577e-21)
(0.0376195 -0.0219152 -2.1568e-22)