/*--------------------------------*- C++ -*----------------------------------*\
| =========                 |                                                 |
| \\      /  F ield         | OpenFOAM: The Open Source CFD Toolbox           |
|  \\    /   O peration     | Version:  2412                                  |
|   \\  /    A nd           | Website:  www.openfoam.com                      |
|    \\/     M anipulation  |                                                 |
\*---------------------------------------------------------------------------*/
FoamFile
{
    version     2.0;
    format      ascii;
    arch        "LSB;label=32;scalar=64";
    class       volVectorField;
    location    "7";
    object      vorticity;
}
// * * * * * * * * * * * * * * * * * * * * * * * * * * * * * * * * * * * * * //

dimensions      [0 0 -1 0 0 0 0];

internalField   nonuniform List<vector> 
63420
(
(0 0 1.12976e-05)
(0 0 3.77701e-05)
(0 0 4.86805e-05)
(0 0 2.02523e-05)
(0 0 -3.14398e-05)
(0 0 -7.4293e-05)
(0 0 -9.06631e-05)
(0 0 -8.31047e-05)
(0 0 -6.35997e-05)
(0 0 -4.29028e-05)
(0 0 -2.65476e-05)
(0 0 -1.56944e-05)
(0 0 -9.3375e-06)
(0 0 -5.96426e-06)
(0 0 -4.32108e-06)
(0 0 -3.5857e-06)
(0 0 -3.28992e-06)
(0 0 -3.19267e-06)
(0 0 -3.17931e-06)
(0 0 -3.19879e-06)
(0 0 -3.22949e-06)
(0 0 -3.26261e-06)
(0 0 -3.2945e-06)
(0 0 -3.32398e-06)
(0 0 -3.35069e-06)
(0 0 -3.37465e-06)
(0 0 -3.39563e-06)
(0 0 -3.41333e-06)
(0 0 -3.42722e-06)
(0 0 -3.437e-06)
(0 0 -3.44231e-06)
(0 0 -3.44306e-06)
(0 0 -3.43909e-06)
(0 0 -3.43027e-06)
(0 0 -3.41634e-06)
(0 0 -3.39694e-06)
(0 0 -3.37158e-06)
(0 0 -3.33965e-06)
(0 0 -3.30054e-06)
(0 0 -3.25362e-06)
(0 0 -3.19828e-06)
(0 0 -3.13384e-06)
(0 0 -3.0595e-06)
(0 0 -2.97424e-06)
(0 0 -2.87674e-06)
(0 0 -2.76536e-06)
(0 0 -2.6383e-06)
(0 0 -2.49409e-06)
(0 0 -2.33257e-06)
(0 0 -2.1562e-06)
(0 0 -1.9689e-06)
(0 0 -1.7615e-06)
(0 0 -1.44703e-06)
(0 0 -6.35338e-07)
(0 4.89653e-23 2.06762e-06)
(0 0 3.36946e-05)
(0 0 0.000112383)
(0 0 0.000145165)
(0 0 6.12398e-05)
(0 0 -9.19773e-05)
(0 0 -0.000219274)
(0 0 -0.000268159)
(0 0 -0.000246059)
(0 0 -0.000188441)
(0 0 -0.0001272)
(0 0 -7.87724e-05)
(0 0 -4.6624e-05)
(0 0 -2.77887e-05)
(0 0 -1.77902e-05)
(0 0 -1.29163e-05)
(0 0 -1.07324e-05)
(0 0 -9.85289e-06)
(0 0 -9.56429e-06)
(0 0 -9.52681e-06)
(0 0 -9.5884e-06)
(0 0 -9.68427e-06)
(0 0 -9.78786e-06)
(0 0 -9.88868e-06)
(0 0 -9.98277e-06)
(0 0 -1.00688e-05)
(0 0 -1.01461e-05)
(0 0 -1.02141e-05)
(0 0 -1.0272e-05)
(0 0 -1.0319e-05)
(0 0 -1.03543e-05)
(0 0 -1.03771e-05)
(0 0 -1.03867e-05)
(0 0 -1.03827e-05)
(0 0 -1.03644e-05)
(0 0 -1.03308e-05)
(0 0 -1.02812e-05)
(0 0 -1.02144e-05)
(0 0 -1.01289e-05)
(0 0 -1.00233e-05)
(0 0 -9.89595e-06)
(0 0 -9.74489e-06)
(0 0 -9.56791e-06)
(0 0 -9.36228e-06)
(0 0 -9.12463e-06)
(0 0 -8.85081e-06)
(0 0 -8.53584e-06)
(0 0 -8.17435e-06)
(0 0 -7.7619e-06)
(0 0 -7.2979e-06)
(0 0 -6.78941e-06)
(0 0 -6.24822e-06)
(0 0 -5.64893e-06)
(0 0 -4.74136e-06)
(0 0 -2.3944e-06)
(0 4.94404e-23 5.44649e-06)
(0 0 5.55571e-05)
(0 0 0.000184605)
(0 0 0.00023972)
(0 0 0.000104262)
(0 0 -0.000145414)
(0 0 -0.000353905)
(0 0 -0.000434914)
(0 0 -0.000399981)
(0 0 -0.000306732)
(0 0 -0.00020723)
(0 0 -0.000128409)
(0 0 -7.6032e-05)
(0 0 -4.53252e-05)
(0 0 -2.90179e-05)
(0 0 -2.10668e-05)
(0 0 -1.75044e-05)
(0 0 -1.60709e-05)
(0 0 -1.56028e-05)
(0 0 -1.55455e-05)
(0 0 -1.56504e-05)
(0 0 -1.58115e-05)
(0 0 -1.59856e-05)
(0 0 -1.61554e-05)
(0 0 -1.63145e-05)
(0 0 -1.64606e-05)
(0 0 -1.65923e-05)
(0 0 -1.67089e-05)
(0 0 -1.68091e-05)
(0 0 -1.68917e-05)
(0 0 -1.69554e-05)
(0 0 -1.69993e-05)
(0 0 -1.70222e-05)
(0 0 -1.70231e-05)
(0 0 -1.70008e-05)
(0 0 -1.69542e-05)
(0 0 -1.68816e-05)
(0 0 -1.67815e-05)
(0 0 -1.66516e-05)
(0 0 -1.64897e-05)
(0 0 -1.62932e-05)
(0 0 -1.60589e-05)
(0 0 -1.57833e-05)
(0 0 -1.54618e-05)
(0 0 -1.50889e-05)
(0 0 -1.46579e-05)
(0 0 -1.41608e-05)
(0 0 -1.35889e-05)
(0 0 -1.29352e-05)
(0 0 -1.2199e-05)
(0 0 -1.13921e-05)
(0 0 -1.05355e-05)
(0 0 -9.59562e-06)
(0 0 -8.19235e-06)
(0 0 -4.57027e-06)
(0 2.91927e-22 7.61678e-06)
(0 0 7.65282e-05)
(0 0 0.000252971)
(0 0 0.000331345)
(0 0 0.000150965)
(0 0 -0.000186862)
(0 0 -0.0004713)
(0 0 -0.000583886)
(0 0 -0.000538983)
(0 0 -0.000414204)
(0 0 -0.000280192)
(0 0 -0.000173728)
(0 0 -0.000102863)
(0 0 -6.1272e-05)
(0 0 -3.91694e-05)
(0 0 -2.83888e-05)
(0 0 -2.35592e-05)
(0 0 -2.16182e-05)
(0 0 -2.09878e-05)
(0 0 -2.09155e-05)
(0 0 -2.10637e-05)
(0 0 -2.12885e-05)
(0 0 -2.15311e-05)
(0 0 -2.17683e-05)
(0 0 -2.19913e-05)
(0 0 -2.21969e-05)
(0 0 -2.23833e-05)
(0 0 -2.25492e-05)
(0 0 -2.26932e-05)
(0 0 -2.28137e-05)
(0 0 -2.29093e-05)
(0 0 -2.29785e-05)
(0 0 -2.30199e-05)
(0 0 -2.30321e-05)
(0 0 -2.30135e-05)
(0 0 -2.29626e-05)
(0 0 -2.28772e-05)
(0 0 -2.27552e-05)
(0 0 -2.25939e-05)
(0 0 -2.23904e-05)
(0 0 -2.21411e-05)
(0 0 -2.18419e-05)
(0 0 -2.1488e-05)
(0 0 -2.10734e-05)
(0 0 -2.05907e-05)
(0 0 -2.0031e-05)
(0 0 -1.93838e-05)
(0 0 -1.86377e-05)
(0 0 -1.77836e-05)
(0 0 -1.6821e-05)
(0 0 -1.5767e-05)
(0 0 -1.4654e-05)
(0 0 -1.34529e-05)
(0 0 -1.17088e-05)
(0 0 -7.23561e-06)
(0 -1.91727e-22 8.0014e-06)
(0 0 9.6246e-05)
(0 0 0.000316219)
(0 0 0.000419375)
(0 0 0.000203214)
(0 0 -0.000211504)
(0 0 -0.000564906)
(0 0 -0.000708478)
(0 0 -0.000657594)
(0 0 -0.000506892)
(0 0 -0.000343465)
(0 0 -0.000213076)
(0 0 -0.000126069)
(0 0 -7.4922e-05)
(0 0 -4.77108e-05)
(0 0 -3.44294e-05)
(0 0 -2.84782e-05)
(0 0 -2.60882e-05)
(0 0 -2.53151e-05)
(0 0 -2.52309e-05)
(0 0 -2.54191e-05)
(0 0 -2.57023e-05)
(0 0 -2.60077e-05)
(0 0 -2.63071e-05)
(0 0 -2.65895e-05)
(0 0 -2.68509e-05)
(0 0 -2.70892e-05)
(0 0 -2.73027e-05)
(0 0 -2.74897e-05)
(0 0 -2.76486e-05)
(0 0 -2.77775e-05)
(0 0 -2.78749e-05)
(0 0 -2.7939e-05)
(0 0 -2.79682e-05)
(0 0 -2.79605e-05)
(0 0 -2.7914e-05)
(0 0 -2.78264e-05)
(0 0 -2.7695e-05)
(0 0 -2.75166e-05)
(0 0 -2.72878e-05)
(0 0 -2.70043e-05)
(0 0 -2.66612e-05)
(0 0 -2.62528e-05)
(0 0 -2.57717e-05)
(0 0 -2.52094e-05)
(0 0 -2.4555e-05)
(0 0 -2.37961e-05)
(0 0 -2.29196e-05)
(0 0 -2.19147e-05)
(0 0 -2.07817e-05)
(0 0 -1.95434e-05)
(0 0 -1.82465e-05)
(0 0 -1.68844e-05)
(0 0 -1.5004e-05)
(0 0 -1.0258e-05)
(0 9.46551e-23 6.26453e-06)
(0 0 0.000114365)
(0 0 0.000373374)
(0 0 0.000503468)
(0 0 0.000262825)
(0 0 -0.000215104)
(0 0 -0.000629127)
(0 0 -0.000803136)
(0 0 -0.000751237)
(0 0 -0.000581482)
(0 0 -0.000394841)
(0 0 -0.000245037)
(0 0 -0.000144725)
(0 0 -8.56191e-05)
(0 0 -5.41226e-05)
(0 0 -3.87314e-05)
(0 0 -3.1829e-05)
(0 0 -2.90555e-05)
(0 0 -2.81585e-05)
(0 0 -2.80617e-05)
(0 0 -2.82818e-05)
(0 0 -2.86127e-05)
(0 0 -2.89702e-05)
(0 0 -2.93214e-05)
(0 0 -2.9654e-05)
(0 0 -2.99629e-05)
(0 0 -3.02459e-05)
(0 0 -3.0501e-05)
(0 0 -3.07264e-05)
(0 0 -3.09202e-05)
(0 0 -3.10806e-05)
(0 0 -3.12058e-05)
(0 0 -3.12938e-05)
(0 0 -3.13428e-05)
(0 0 -3.13507e-05)
(0 0 -3.13153e-05)
(0 0 -3.1234e-05)
(0 0 -3.11037e-05)
(0 0 -3.09211e-05)
(0 0 -3.06821e-05)
(0 0 -3.0382e-05)
(0 0 -3.00155e-05)
(0 0 -2.95759e-05)
(0 0 -2.90552e-05)
(0 0 -2.84436e-05)
(0 0 -2.77295e-05)
(0 0 -2.6899e-05)
(0 0 -2.59376e-05)
(0 0 -2.4834e-05)
(0 0 -2.35897e-05)
(0 0 -2.22335e-05)
(0 0 -2.08297e-05)
(0 0 -1.94156e-05)
(0 0 -1.76388e-05)
(0 0 -1.33451e-05)
(0 4.67038e-22 2.24258e-06)
(0 0 0.000130672)
(0 0 0.00042384)
(0 0 0.000583507)
(0 0 0.000331152)
(0 0 -0.000194686)
(0 0 -0.000660118)
(0 0 -0.000864082)
(0 0 -0.000816812)
(0 0 -0.000635727)
(0 0 -0.000432817)
(0 0 -0.000268631)
(0 0 -0.000158172)
(0 0 -9.28828e-05)
(0 0 -5.80113e-05)
(0 0 -4.09394e-05)
(0 0 -3.32696e-05)
(0 0 -3.01804e-05)
(0 0 -2.91756e-05)
(0 0 -2.90608e-05)
(0 0 -2.92992e-05)
(0 0 -2.96618e-05)
(0 0 -3.00552e-05)
(0 0 -3.04428e-05)
(0 0 -3.08109e-05)
(0 0 -3.1154e-05)
(0 0 -3.14695e-05)
(0 0 -3.17555e-05)
(0 0 -3.20098e-05)
(0 0 -3.22307e-05)
(0 0 -3.24162e-05)
(0 0 -3.25644e-05)
(0 0 -3.26733e-05)
(0 0 -3.2741e-05)
(0 0 -3.27651e-05)
(0 0 -3.27434e-05)
(0 0 -3.26729e-05)
(0 0 -3.25506e-05)
(0 0 -3.23727e-05)
(0 0 -3.2135e-05)
(0 0 -3.18324e-05)
(0 0 -3.14591e-05)
(0 0 -3.10081e-05)
(0 0 -3.04708e-05)
(0 0 -2.98371e-05)
(0 0 -2.90945e-05)
(0 0 -2.82286e-05)
(0 0 -2.72245e-05)
(0 0 -2.60708e-05)
(0 0 -2.47705e-05)
(0 0 -2.33583e-05)
(0 0 -2.19183e-05)
(0 0 -2.05525e-05)
(0 0 -1.91243e-05)
(0 0 -1.61654e-05)
(0 -9.14064e-23 -4.35674e-06)
(-1.50021e-23 8.03201e-21 -9.98077e-07)
(-1.57828e-22 7.89303e-21 -3.96598e-06)
(3.77198e-23 -2.11776e-22 -8.56798e-06)
(3.34643e-23 -2.35847e-20 -1.51762e-05)
(-9.99814e-23 8.07306e-21 -2.39911e-05)
(3.96079e-22 7.92702e-21 -3.48975e-05)
(-8.52564e-22 2.30851e-20 -4.73499e-05)
(3.31736e-22 -2.34851e-20 -6.03128e-05)
(6.70614e-22 -7.54525e-21 -7.23119e-05)
(-9.65723e-22 -3.92095e-24 -8.16051e-05)
(-9.70023e-22 -7.57511e-21 -8.64517e-05)
(8.51104e-22 7.1772e-21 -8.54242e-05)
(5.75602e-22 -5.93475e-20 -7.76892e-05)
(-1.04593e-21 1.27583e-19 -6.31863e-05)
(3.41659e-22 -6.87572e-20 -4.26621e-05)
(-1.34769e-21 -5.18713e-20 -1.75496e-05)
(2.47486e-21 -6.60191e-20 1.02526e-05)
(-1.97157e-21 7.82256e-21 3.87162e-05)
(-2.13319e-22 -7.28066e-21 6.59111e-05)
(8.92142e-23 7.29757e-21 9.02662e-05)
(-3.35221e-24 -1.37112e-22 0.000110656)
(-8.44244e-23 -7.0495e-21 0.000126447)
(-2.12715e-21 7.12651e-21 0.000137453)
(4.47531e-21 1.36924e-23 0.000143821)
(1.31797e-21 6.93471e-21 0.000145912)
(-3.48506e-21 -5.69789e-24 0.000144184)
(5.02691e-21 8.13153e-21 0.000139094)
(-5.75598e-21 1.04997e-19 0.000131024)
(5.92204e-22 -1.12812e-19 0.000120238)
(-2.13352e-21 1.03395e-19 0.000106853)
(2.07516e-21 -1.04619e-19 9.08199e-05)
(5.15696e-23 1.42601e-21 7.18886e-05)
(-6.72378e-23 -1.75368e-21 4.95323e-05)
(2.77142e-21 -9.97129e-20 2.27664e-05)
(-9.05748e-21 9.68772e-20 -1.02543e-05)
(-3.4379e-22 -1.64846e-21 -5.30811e-05)
(6.62077e-21 1.44803e-23 -0.000112661)
(7.2189e-21 1.57885e-23 -0.000202528)
(-7.19581e-21 -1.57379e-23 -0.000348475)
(-2.39325e-22 -5.23428e-25 -0.000597863)
(-2.50159e-22 -5.47122e-25 -0.00103362)
(-8.64619e-21 -1.89101e-23 -0.00179296)
(8.34532e-21 1.82521e-23 -0.00308887)
(-2.77017e-22 1.65329e-22 -0.00522895)
(-1.01825e-23 8.54466e-21 -0.0086227)
(-2.67949e-20 5.50834e-20 -0.0137654)
(2.57986e-20 -7.27795e-20 -0.0211836)
(-6.207e-21 -1.04112e-20 -0.0313281)
(6.8142e-21 2.8504e-20 -0.0444075)
(-2.24035e-20 -6.25592e-21 -0.0600642)
(-2.73445e-22 8.0496e-21 -3.34077e-06)
(-1.02154e-22 1.58263e-20 -1.21343e-05)
(3.39522e-22 7.69389e-21 -2.57953e-05)
(-9.45153e-22 -7.90916e-21 -4.54356e-05)
(1.75229e-21 7.5281e-21 -7.16608e-05)
(-5.77195e-22 -5.40597e-20 -0.000104159)
(-1.66148e-22 8.59256e-20 -0.000141339)
(-6.58904e-23 -9.03861e-21 -0.000180181)
(2.23899e-21 -9.89622e-20 -0.000216374)
(-2.28527e-21 1.39932e-19 -0.00024482)
(-7.28667e-22 1.2776e-19 -0.000260417)
(5.21464e-22 -1.1511e-19 -0.000258976)
(-4.20909e-22 7.90653e-22 -0.000238045)
(2.993e-21 -7.32787e-21 -0.000197431)
(-2.29281e-21 2.45468e-20 -0.000139299)
(-5.88166e-21 2.42814e-19 -6.78366e-05)
(1.24241e-21 -2.28693e-19 1.14469e-05)
(-5.43704e-21 2.45202e-19 9.25412e-05)
(-2.60485e-22 1.97503e-20 0.000169858)
(-4.10489e-21 -7.46639e-21 0.000238778)
(4.32681e-21 1.54727e-22 0.00029601)
(-4.32329e-21 9.38865e-21 0.000339696)
(1.69199e-21 2.14154e-19 0.000369253)
(5.05655e-21 -4.5443e-19 0.000385066)
(4.11824e-21 -2.17292e-19 0.000388138)
(-6.16023e-21 4.40038e-19 0.000379744)
(2.47925e-21 -4.40132e-19 0.000361149)
(-6.58833e-22 4.51843e-19 0.000333394)
(3.51083e-21 1.30031e-21 0.000297166)
(-3.958e-21 -1.0369e-22 0.000252711)
(-1.32949e-21 -2.90772e-24 0.000199775)
(0 0 0.000137503)
(1.96777e-22 1.02127e-22 6.42014e-05)
(1.17946e-20 1.30033e-20 -2.32149e-05)
(-1.47325e-20 3.74446e-19 -0.00013045)
(-1.67045e-20 -2.45999e-20 -0.000268411)
(1.76545e-20 -3.70566e-19 -0.000458353)
(2.59595e-20 -3.21611e-19 -0.000741609)
(-7.5138e-21 3.44137e-19 -0.00119681)
(-3.34025e-20 2.14185e-21 -0.0019681)
(3.29353e-20 1.85398e-20 -0.0033074)
(-4.27566e-20 2.49295e-19 -0.00563069)
(2.19643e-20 -2.59645e-19 -0.00958221)
(-1.95457e-20 1.58068e-20 -0.0160905)
(2.17657e-20 8.52466e-21 -0.0263898)
(-6.40044e-20 1.23051e-19 -0.0419708)
(6.39637e-20 -1.20388e-19 -0.0644155)
(-1.00242e-19 9.08248e-20 -0.0950588)
(9.67062e-20 -1.01502e-19 -0.134454)
(-2.06642e-20 -6.98026e-22 -0.180013)
(9.36345e-24 4.76458e-20 -5.73209e-06)
(-7.8156e-23 1.50254e-20 -2.00988e-05)
(3.45699e-22 -6.23685e-20 -4.2489e-05)
(-7.12071e-22 1.24151e-19 -7.47277e-05)
(1.58795e-21 -2.6602e-19 -0.000117824)
(5.82159e-22 1.26641e-19 -0.000171324)
(-2.63715e-21 -9.4007e-22 -0.000232758)
(1.66178e-21 -1.73325e-20 -0.000297368)
(1.14979e-21 -2.59867e-19 -0.000358334)
(1.23781e-21 2.47871e-19 -0.000407568)
(-9.25466e-22 -1.75544e-21 -0.000436955)
(-4.52402e-21 -1.70674e-23 -0.000439818)
(7.19363e-21 -1.98993e-21 -0.000412228)
(-5.00026e-21 -2.54246e-19 -0.000353837)
(6.20977e-21 2.31512e-19 -0.000268031)
(-1.07348e-20 4.59997e-19 -0.000161399)
(-5.36214e-21 -1.27082e-20 -4.2668e-05)
(-3.3808e-21 4.73863e-19 7.86937e-05)
(3.93376e-22 -1.44004e-20 0.000193808)
(-1.1406e-20 4.61427e-19 0.000295337)
(1.12501e-20 -4.79454e-19 0.000378029)
(-7.85032e-21 4.58949e-19 0.000438849)
(5.0496e-22 -4.7761e-19 0.000476745)
(5.52949e-21 -9.307e-21 0.000492171)
(-2.69935e-21 1.40288e-20 0.000486526)
(5.85565e-21 -8.83059e-21 0.000461614)
(-1.79114e-20 4.32925e-19 0.000419194)
(1.58155e-20 -4.62122e-19 0.000360651)
(1.71989e-20 -4.29834e-19 0.000286773)
(-1.37471e-20 4.32481e-19 0.000197623)
(-1.16057e-21 -5.54044e-21 9.2427e-05)
(1.20242e-20 -1.30134e-22 -3.06039e-05)
(-1.38721e-20 -2.61374e-20 -0.000174681)
(5.05659e-20 -7.93227e-19 -0.000345393)
(1.75796e-20 5.76373e-20 -0.00055281)
(-6.86635e-20 7.4877e-19 -0.000815914)
(4.26849e-21 -1.32613e-20 -0.00117143)
(-1.21978e-20 -5.61074e-21 -0.00169049)
(1.1002e-19 -6.35279e-19 -0.00250802)
(-2.03789e-19 1.25127e-18 -0.00387076)
(2.07929e-19 -1.24973e-18 -0.00620862)
(7.78913e-20 8.9128e-20 -0.0102292)
(-1.61951e-19 5.51269e-19 -0.0170248)
(-1.72891e-19 3.8335e-19 -0.0281651)
(1.62711e-19 -4.55509e-19 -0.0457334)
(-2.45362e-20 2.13494e-20 -0.0722459)
(6.0706e-20 -1.92097e-20 -0.110374)
(1.80706e-19 -1.12501e-19 -0.162333)
(-1.95781e-19 1.76034e-19 -0.228854)
(-2.79624e-20 -4.53001e-20 -0.300611)
(3.94556e-22 -3.14071e-20 -8.16644e-06)
(-3.77694e-22 1.59037e-20 -2.78578e-05)
(7.56675e-22 -1.86352e-22 -5.8642e-05)
(-6.91745e-22 -1.56421e-20 -0.000102956)
(-1.05271e-21 -1.56834e-21 -0.000162195)
(3.18112e-21 -2.45478e-19 -0.000235865)
(-4.23154e-21 4.65348e-19 -0.000320847)
(2.00185e-21 -2.50812e-19 -0.000411033)
(-1.93794e-21 1.51101e-20 -0.000497607)
(4.54513e-21 -2.74628e-19 -0.000570055)
(-5.69347e-21 2.51063e-19 -0.000617801)
(-2.88348e-21 4.78541e-19 -0.000632106)
(8.4054e-21 -9.69423e-19 -0.000607785)
(-1.04709e-20 9.69243e-19 -0.000544303)
(1.47277e-20 -9.65427e-19 -0.000445977)
(-8.13083e-21 9.58261e-19 -0.000321294)
(-8.48423e-21 4.86843e-19 -0.00018153)
(-7.42509e-22 -4.07343e-21 -3.89608e-05)
(4.86205e-21 4.21537e-21 9.4865e-05)
(-5.732e-21 4.5106e-19 0.000210365)
(-4.6988e-21 -4.74154e-19 0.00030056)
(1.59282e-20 1.37213e-20 0.000361288)
(-3.05782e-20 9.12625e-19 0.00039089)
(2.18636e-20 -9.16538e-19 0.000389591)
(2.36382e-21 -5.05686e-21 0.000358777)
(-1.05142e-20 -8.44775e-23 0.000300296)
(1.58284e-20 -1.38982e-20 0.000215883)
(-5.17839e-21 1.32814e-22 0.000106721)
(-5.7167e-21 -5.40194e-23 -2.68465e-05)
(5.41513e-21 2.10671e-22 -0.000185501)
(-3.8757e-21 1.00195e-21 -0.000371116)
(5.98819e-20 -8.19541e-19 -0.000587015)
(-5.35583e-20 8.43786e-19 -0.000838574)
(-1.71947e-20 -2.06887e-22 -0.0011346)
(1.99057e-20 -1.02451e-20 -0.00149035)
(-9.62698e-20 7.58836e-19 -0.00193397)
(1.14523e-19 -7.631e-19 -0.00251925)
(-2.4755e-20 2.69002e-21 -0.0033497)
(1.74215e-20 -7.06028e-23 -0.00462115)
(4.13418e-20 7.37411e-21 -0.00669089)
(-2.56812e-19 5.78129e-19 -0.0101801)
(3.74905e-19 -1.17645e-18 -0.0161085)
(-1.82816e-19 5.9777e-19 -0.0260465)
(2.75873e-19 -4.61855e-19 -0.042249)
(-2.65966e-19 5.45814e-19 -0.067714)
(-6.36901e-19 5.66421e-19 -0.10609)
(1.20679e-18 -1.20647e-18 -0.161305)
(-5.9378e-19 6.12102e-19 -0.236633)
(2.08193e-20 -2.48337e-21 -0.332791)
(5.0511e-21 -3.87231e-20 -0.425343)
(-7.75995e-22 1.59956e-20 -1.06224e-05)
(-1.88977e-22 6.10817e-20 -3.57124e-05)
(1.81415e-21 -1.85694e-19 -7.49014e-05)
(-9.64955e-22 2.49405e-19 -0.000131019)
(-4.99793e-22 -1.10563e-19 -0.000205766)
(9.37328e-23 -1.47129e-20 -0.000298722)
(-4.83619e-22 1.55815e-20 -0.00040643)
(3.27949e-21 -2.03323e-22 -0.000521931)
(-3.16433e-21 -1.52215e-20 -0.00063506)
(-5.59132e-21 3.4419e-20 -0.000733607)
(-5.80118e-21 4.86811e-19 -0.000805226)
(1.81467e-20 -5.06234e-19 -0.000839659)
(-2.25442e-20 4.72771e-19 -0.000830756)
(1.83444e-20 -4.92007e-19 -0.000777766)
(-3.24765e-21 3.67466e-21 -0.000685593)
(1.18443e-20 5.47902e-23 -0.000564019)
(4.51396e-21 4.00551e-21 -0.000426117)
(-2.74829e-21 4.60914e-19 -0.000286187)
(1.86909e-20 -4.99246e-19 -0.000157745)
(6.9111e-21 2.81564e-20 -5.21564e-05)
(-4.24214e-20 9.53096e-19 2.21268e-05)
(2.45744e-20 -9.56746e-19 5.9806e-05)
(1.10421e-20 2.35825e-20 5.83661e-05)
(-1.94049e-20 -2.5084e-22 1.73581e-05)
(1.26971e-20 1.03557e-20 -6.24326e-05)
(-3.37105e-20 9.21188e-19 -0.000179795)
(2.66325e-20 -9.13435e-19 -0.000333773)
(3.04869e-21 1.03395e-20 -0.000524177)
(1.05325e-20 2.80675e-20 -0.000751946)
(-1.23707e-20 -5.90604e-22 -0.00101939)
(1.1323e-21 -1.34617e-20 -0.0013304)
(-3.99718e-20 1.36868e-20 -0.00169084)
(3.7922e-20 1.30666e-20 -0.00210932)
(-3.56355e-21 -2.67187e-20 -0.002599)
(7.6743e-20 -7.69862e-19 -0.00318153)
(-6.67235e-20 7.93342e-19 -0.00389549)
(2.62545e-19 -1.53438e-18 -0.00481318)
(-2.38115e-19 1.54965e-18 -0.00607256)
(3.00415e-19 -1.45948e-18 -0.00793373)
(7.76445e-20 1.36422e-19 -0.0108711)
(-3.48965e-19 1.39438e-18 -0.0157101)
(-1.31892e-19 -2.44383e-20 -0.0238065)
(1.78956e-20 3.77389e-22 -0.0372518)
(-2.02752e-20 5.7099e-22 -0.0590614)
(5.98479e-20 1.79481e-21 -0.0932899)
(2.9221e-20 1.4731e-20 -0.145001)
(-1.25102e-19 5.57729e-21 -0.219932)
(7.14314e-20 5.45793e-21 -0.323296)
(-1.83236e-22 -3.43991e-22 -0.456346)
(3.98371e-20 7.06772e-22 -0.565493)
(-5.98299e-22 7.69558e-20 -1.32333e-05)
(1.69549e-21 -4.69775e-20 -4.48616e-05)
(-1.85066e-21 -1.66417e-20 -9.3361e-05)
(4.52259e-21 -2.30073e-19 -0.000161602)
(-1.93144e-21 2.32074e-19 -0.000251564)
(1.58863e-21 -2.29651e-19 -0.000363077)
(-1.04972e-20 5.06562e-19 -0.00049272)
(1.04054e-20 -7.10018e-19 -0.000633259)
(-6.5634e-21 5.02688e-19 -0.000773913)
(-4.54023e-21 4.89656e-19 -0.000901603)
(-2.11373e-21 3.53497e-21 -0.00100299)
(2.21361e-20 -9.6248e-19 -0.00106693)
(-1.82041e-20 1.00284e-18 -0.00108662)
(3.17393e-21 -4.725e-19 -0.0010611)
(1.02001e-20 -4.74686e-19 -0.000995512)
(2.09025e-20 -4.67438e-19 -0.000900329)
(-2.99004e-21 7.21227e-21 -0.000789664)
(3.47289e-20 -9.70324e-19 -0.000679064)
(2.48059e-20 -9.32165e-19 -0.000583391)
(6.79297e-21 2.16884e-20 -0.000515366)
(-2.10856e-20 9.69447e-19 -0.000484765)
(-2.16589e-20 -8.70001e-21 -0.000498159)
(1.32211e-20 9.61796e-21 -0.000559316)
(-4.58835e-20 9.41796e-19 -0.000669968)
(3.57787e-20 -9.58101e-19 -0.000830713)
(6.89211e-20 -9.20459e-19 -0.00104189)
(-7.02229e-20 9.5219e-19 -0.00130433)
(1.61979e-20 -2.15048e-20 -0.00161995)
(6.20107e-20 -9.2141e-19 -0.00199216)
(-9.17885e-20 9.45905e-19 -0.00242621)
(4.70044e-21 1.32945e-20 -0.00292946)
(-1.97896e-19 1.7379e-18 -0.00351186)
(1.7628e-19 -1.80505e-18 -0.00418692)
(5.24341e-20 6.6311e-20 -0.00497388)
(-2.57664e-19 1.65339e-18 -0.00590239)
(2.3334e-19 -1.7261e-18 -0.00702262)
(-3.42118e-20 -3.72694e-21 -0.00842576)
(4.73041e-19 -1.56462e-18 -0.0102833)
(-4.40615e-19 1.61815e-18 -0.0129175)
(-7.27275e-20 -7.84859e-20 -0.016918)
(6.97376e-19 -1.37686e-18 -0.0233165)
(-1.21926e-18 2.85196e-18 -0.0338206)
(-7.68131e-20 -1.60459e-19 -0.0510866)
(-1.03807e-19 -1.24384e-19 -0.0789886)
(8.1059e-19 -1.25713e-18 -0.122844)
(4.37546e-20 6.96858e-20 -0.189602)
(-9.4813e-19 8.48614e-19 -0.288022)
(9.28954e-19 -9.34294e-19 -0.428277)
(1.07084e-20 3.21147e-20 -0.617224)
(1.04458e-20 -3.02929e-21 -0.74911)
(6.24046e-22 -1.60917e-20 -1.63767e-05)
(1.45167e-21 -1.36731e-19 -5.85974e-05)
(-1.62313e-21 1.23424e-19 -0.000118479)
(-1.42628e-21 -1.75341e-20 -0.000199506)
(5.0838e-21 -2.28732e-19 -0.000304222)
(-4.63442e-21 2.35685e-19 -0.000432955)
(-4.64014e-21 4.75652e-19 -0.000582698)
(-5.45283e-21 -1.97076e-20 -0.000746489)
(2.57545e-21 -4.66451e-21 -0.000913652)
(1.35611e-20 -5.07481e-19 -0.00107104)
(-1.03555e-20 4.75201e-19 -0.00120509)
(1.39162e-20 -1.00605e-18 -0.00130436)
(-1.67359e-21 5.03458e-19 -0.00136175)
(-4.04129e-21 -1.91729e-20 -0.00137601)
(-5.36035e-21 -2.31337e-20 -0.00135216)
(2.33484e-20 -9.89451e-19 -0.00130065)
(-1.41211e-21 -1.98666e-20 -0.00123579)
(2.15336e-20 -1.0085e-18 -0.00117343)
(-5.95021e-21 -7.38029e-21 -0.00112889)
(-1.78083e-22 1.28726e-22 -0.00111548)
(1.23363e-20 9.08706e-21 -0.00114367)
(-4.7388e-20 9.73555e-19 -0.0012208)
(4.11713e-20 -9.95411e-19 -0.00135143)
(1.3752e-20 8.9844e-21 -0.00153812)
(-9.52723e-21 -1.52919e-20 -0.00178226)
(-6.63825e-21 1.06578e-20 -0.00208491)
(-6.81398e-20 9.43943e-19 -0.0024475)
(1.47586e-19 -1.92881e-18 -0.00287233)
(-6.90501e-20 1.00843e-18 -0.00336284)
(-1.79654e-19 1.86941e-18 -0.00392377)
(-3.13116e-20 -4.52751e-20 -0.00456113)
(4.41894e-21 -2.46456e-20 -0.00528224)
(-6.94597e-20 -5.3954e-20 -0.00609613)
(2.46342e-19 -1.87786e-18 -0.00701482)
(3.93183e-19 -1.74096e-18 -0.00805718)
(-3.46876e-19 1.83049e-18 -0.00925805)
(-3.67984e-20 -5.95257e-20 -0.0106887)
(4.67002e-19 -1.67573e-18 -0.0124983)
(-4.06112e-19 1.7789e-18 -0.0149926)
(-6.7672e-19 1.58401e-18 -0.0187688)
(5.67632e-19 -1.67676e-18 -0.0249295)
(8.5113e-20 -1.2226e-20 -0.0353823)
(9.06377e-19 -1.50002e-18 -0.0532126)
(1.41515e-19 1.23629e-19 -0.0830838)
(-1.06175e-18 1.47833e-18 -0.131627)
(-1.82939e-20 -4.3683e-20 -0.207875)
(3.72045e-20 5.83898e-22 -0.324516)
(-3.78541e-20 1.68591e-20 -0.503121)
(-5.65689e-19 5.92236e-19 -0.784642)
(5.56486e-19 -6.02018e-19 -1.08865)
(-9.79499e-21 -2.72547e-21 0.00485231)
(-8.22977e-21 1.06735e-21 -0.00427847)
(7.65577e-21 6.93111e-21 -0.0114904)
(-8.39041e-21 -6.64124e-21 -0.0169149)
(8.83016e-21 -1.03393e-21 -0.0207017)
(-2.27818e-22 2.17729e-21 -0.0230373)
(-1.14331e-22 -6.92255e-23 -0.0241327)
(-3.10983e-21 6.80152e-24 -0.0242112)
(3.01577e-21 -6.59579e-24 -0.0234915)
(-7.5778e-23 1.65734e-25 -0.0221791)
(-6.29638e-23 1.37708e-25 -0.020459)
(1.41394e-21 -3.09242e-24 -0.0184914)
(-1.41849e-21 3.10237e-24 -0.0164096)
(-8.61917e-22 1.8851e-24 -0.01432)
(2.16301e-22 -1.19189e-22 -0.0123036)
(3.60541e-21 6.162e-20 -0.0104186)
(-2.63467e-21 -5.74633e-20 -0.00870292)
(-6.06923e-24 -1.12481e-22 -0.00717769)
(-9.69377e-25 2.68053e-23 -0.00585033)
(-2.09287e-21 -8.01729e-20 -0.00471759)
(2.09865e-21 8.02943e-20 -0.00376843)
(-1.4853e-21 -8.20445e-20 -0.0029865)
(2.42516e-22 5.5784e-21 -0.00235248)
(-5.86368e-23 2.46035e-25 -0.00184543)
(2.05936e-22 5.95092e-21 -0.00144523)
(-1.42572e-23 7.86093e-25 -0.00113253)
(-6.09617e-23 1.33329e-25 -0.000890305)
(3.23604e-23 -1.28464e-24 -0.000703717)
(1.07101e-22 6.50445e-21 -0.000560252)
(-3.01885e-24 2.76802e-24 -0.000449695)
(-8.71575e-23 -6.72017e-21 -0.000363939)
(7.53602e-23 6.81399e-21 -0.000296701)
(-1.4661e-23 -6.91889e-21 -0.000243221)
(2.19204e-22 6.31108e-20 -0.000199959)
(-2.79441e-22 -6.32548e-20 -0.000164327)
(-1.91115e-22 -5.01951e-20 -0.000134455)
(4.18048e-22 1.08007e-19 -0.000109002)
(-2.26407e-22 -5.78947e-20 -8.70115e-05)
(-8.61183e-23 -7.351e-21 -6.77933e-05)
(7.81812e-23 7.38508e-21 -5.08457e-05)
(3.70269e-23 -1.98057e-25 -3.57944e-05)
(-1.603e-23 7.51061e-21 -2.23521e-05)
(-1.07936e-22 -3.78111e-20 -1.02901e-05)
(1.22733e-22 3.79023e-20 5.81874e-07)
(-5.31738e-23 -7.63824e-21 1.04307e-05)
(5.13971e-23 2.30938e-20 1.94143e-05)
(-2.38855e-23 -7.69e-21 2.76996e-05)
(-4.12426e-23 -1.55694e-20 3.54869e-05)
(2.12544e-23 7.80162e-21 4.30401e-05)
(-1.15713e-23 -7.85476e-21 5.07013e-05)
(-1.44031e-20 2.26563e-20 0.0128328)
(1.28324e-20 -1.80239e-20 -0.0143678)
(-7.62454e-21 -1.09288e-20 -0.0357062)
(-1.05115e-20 -6.50518e-22 -0.0515543)
(9.82756e-21 1.73411e-21 -0.0624288)
(-8.75068e-21 5.46655e-21 -0.0689564)
(6.87608e-21 1.96129e-21 -0.071826)
(-2.82274e-20 -7.46252e-20 -0.0717289)
(3.37107e-20 6.59048e-20 -0.0693301)
(-1.22995e-20 -4.05376e-23 -0.0652448)
(7.26833e-21 -5.82829e-21 -0.0600195)
(3.57525e-20 1.63346e-19 -0.0541214)
(-4.02331e-20 -1.59679e-19 -0.0479348)
(-3.75766e-20 -2.1072e-19 -0.0417633)
(3.56052e-21 -2.36756e-20 -0.0358356)
(3.56089e-20 2.31997e-19 -0.0303137)
(-1.47977e-21 -3.35569e-21 -0.0253017)
(-1.24112e-21 -8.96527e-21 -0.0208559)
(1.25146e-24 -1.11511e-23 -0.0169935)
(2.4991e-23 -5.46578e-26 -0.0137018)
(1.1285e-22 5.95365e-25 -0.0109466)
(-3.41329e-22 -5.46855e-21 -0.00867855)
(1.73647e-20 3.49244e-19 -0.00684048)
(-1.91331e-20 -3.78461e-19 -0.00537122)
(1.4872e-20 3.81829e-19 -0.00421125)
(-8.2936e-21 -1.89766e-19 -0.00330541)
(-1.29003e-20 -4.02054e-19 -0.00260361)
(6.04604e-21 2.03285e-19 -0.00206263)
(-2.24519e-23 -6.49017e-21 -0.00164623)
(-4.95448e-22 -1.33032e-20 -0.00132488)
(1.98537e-22 6.73994e-21 -0.00107516)
(-4.04242e-22 -2.05748e-20 -0.000878938)
(3.34921e-21 2.15767e-19 -0.000722493)
(-6.96943e-21 -4.55052e-19 -0.000595626)
(3.14794e-21 2.18263e-19 -0.000490884)
(-1.98302e-22 -2.13878e-20 -0.000402881)
(-5.02386e-23 7.20604e-21 -0.000327757)
(1.64108e-23 4.63611e-23 -0.000262749)
(-1.19992e-21 -1.25103e-19 -0.000205866)
(1.02581e-21 1.10464e-19 -0.000155652)
(8.49351e-22 1.04626e-19 -0.00011102)
(-1.19801e-21 -1.42111e-19 -7.1132e-05)
(5.59838e-23 7.47873e-21 -3.53183e-05)
(2.02265e-22 3.81109e-20 -3.02225e-06)
(-4.23941e-22 -6.85992e-20 2.62453e-05)
(-1.23132e-22 -7.68484e-21 5.29481e-05)
(-2.45446e-22 -5.41089e-20 7.75774e-05)
(-8.50989e-23 -7.8919e-21 0.000100728)
(9.3845e-23 1.55191e-20 0.000123204)
(1.02997e-22 2.35007e-20 0.000146101)
(-1.47878e-20 -3.66535e-22 0.015218)
(1.328e-20 1.08902e-21 -0.0293617)
(7.39703e-21 1.144e-20 -0.0638419)
(-3.90137e-20 -1.18754e-20 -0.088739)
(1.55706e-20 8.17395e-21 -0.105198)
(-7.10702e-20 -1.00262e-19 -0.114502)
(7.97209e-20 7.82264e-20 -0.117931)
(1.23205e-19 1.84542e-19 -0.116704)
(-9.58016e-21 6.59538e-20 -0.111949)
(-2.42538e-19 -4.87465e-19 -0.104682)
(2.65113e-19 5.71632e-19 -0.0957787)
(-1.33395e-19 -2.96008e-19 -0.0859729)
(-3.26235e-23 -1.0351e-20 -0.075854)
(-1.20389e-21 -1.69505e-21 -0.0658779)
(1.23928e-19 4.98832e-19 -0.0563807)
(-1.02552e-20 3.46153e-20 -0.0475941)
(-1.10881e-19 -5.23702e-19 -0.0396619)
(4.29626e-21 1.72142e-20 -0.0326557)
(-8.87957e-22 3.00853e-23 -0.0265895)
(1.46435e-23 -1.44672e-22 -0.0214337)
(3.73926e-20 3.48622e-19 -0.017127)
(-3.61783e-20 -3.37483e-19 -0.0135882)
(-2.98933e-20 -3.61946e-19 -0.0107232)
(3.15428e-20 3.85315e-19 -0.00843597)
(9.11689e-22 1.23244e-20 -0.00663058)
(-8.55458e-22 -1.25077e-20 -0.00522076)
(6.1115e-22 1.28578e-20 -0.00412814)
(-1.74714e-20 -4.05534e-19 -0.00328499)
(1.84283e-20 4.18993e-19 -0.00263488)
(-1.42589e-20 -4.04897e-19 -0.00213189)
(1.52886e-20 4.3214e-19 -0.0017397)
(3.36452e-22 1.37331e-20 -0.00143024)
(1.12426e-20 4.48237e-19 -0.00118233)
(-2.1632e-20 -8.8714e-19 -0.000980247)
(1.1073e-20 4.67105e-19 -0.000812537)
(4.35919e-21 2.45121e-19 -0.000670935)
(-3.82466e-21 -2.16276e-19 -0.000549521)
(-3.30771e-22 -7.03176e-23 -0.000444058)
(1.22838e-22 -1.5162e-23 -0.00035149)
(5.58608e-23 -8.84237e-23 -0.000269576)
(2.87146e-21 2.39166e-19 -0.000196635)
(-2.88359e-21 -2.24326e-19 -0.00013136)
(1.16669e-22 1.50111e-20 -7.27004e-05)
(1.19551e-22 -4.94275e-23 -1.97738e-05)
(1.05108e-21 1.22327e-19 2.81998e-05)
(-2.12069e-21 -2.29923e-19 7.1964e-05)
(1.08774e-21 1.22941e-19 0.000112312)
(-5.43484e-22 -6.19703e-20 0.000150222)
(3.94295e-22 4.64597e-20 0.000187069)
(1.01421e-22 1.55783e-20 0.000224917)
(1.42315e-21 2.62344e-20 0.00757737)
(8.57549e-21 -5.09334e-20 -0.053373)
(6.1464e-20 1.13429e-19 -0.0990263)
(-1.9854e-19 -1.87587e-19 -0.130411)
(1.52535e-19 6.81417e-20 -0.149877)
(1.129e-19 1.65152e-19 -0.159643)
(-1.3197e-19 -1.36516e-19 -0.161722)
(1.51932e-19 2.27089e-19 -0.157917)
(-3.35313e-19 -4.93848e-19 -0.149819)
(2.0091e-19 2.5431e-19 -0.1388)
(-9.99013e-21 1.22927e-20 -0.126004)
(-6.0636e-21 7.86083e-22 -0.112358)
(8.97658e-21 8.86426e-21 -0.0985829)
(-1.83911e-19 -5.0182e-19 -0.0852203)
(1.73593e-19 4.81693e-19 -0.0726556)
(2.27309e-21 1.97291e-20 -0.0611432)
(-6.22318e-22 -9.84822e-21 -0.0508301)
(1.36199e-19 6.38696e-19 -0.0417769)
(-1.36241e-19 -6.36811e-19 -0.0339773)
(-1.86115e-21 -1.17253e-20 -0.0273747)
(-1.36899e-22 -1.28267e-23 -0.0218775)
(5.2397e-22 2.0694e-22 -0.0173715)
(9.12096e-23 -3.47373e-24 -0.0137319)
(9.445e-22 1.22376e-20 -0.0108294)
(6.87641e-22 1.28856e-22 -0.00854173)
(8.48943e-22 1.29098e-20 -0.00675525)
(-5.76581e-20 -8.49936e-19 -0.00537009)
(5.72785e-20 8.37005e-19 -0.00429977)
(-4.71312e-22 3.67685e-22 -0.00347248)
(-2.05161e-20 -4.37525e-19 -0.0028301)
(2.17688e-20 4.51313e-19 -0.0023268)
(-1.82467e-22 1.35433e-22 -0.0019273)
(-1.2936e-22 1.16801e-22 -0.00160507)
(-1.47905e-20 -4.70982e-19 -0.00134051)
(2.85257e-20 9.31579e-19 -0.00111934)
(-2.60133e-20 -9.24617e-19 -0.000931339)
(2.39098e-20 9.31661e-19 -0.000769162)
(-2.19391e-20 -9.38006e-19 -0.000627574)
(1.04032e-20 4.70326e-19 -0.000502787)
(4.74018e-21 2.3839e-19 -0.000392014)
(-4.13624e-21 -2.08297e-19 -0.000293145)
(-2.05308e-22 -1.50029e-20 -0.000204525)
(-3.64859e-21 -2.42021e-19 -0.000124807)
(7.65432e-21 5.15182e-19 -5.28437e-05)
(-3.59644e-21 -2.42855e-19 1.23868e-05)
(9.13268e-23 -8.92065e-23 7.18676e-05)
(2.09686e-22 1.53393e-20 0.000126657)
(-9.70931e-23 4.53831e-24 0.000178089)
(-1.36772e-22 -1.54636e-20 0.000228153)
(3.09145e-22 3.10085e-20 0.000280191)
(2.67649e-20 4.40576e-23 -0.0155463)
(-3.45933e-22 -1.74688e-22 -0.0916215)
(-5.79809e-20 -6.6923e-22 -0.144863)
(8.01224e-20 -1.93258e-21 -0.178661)
(-2.69884e-20 -4.03276e-21 -0.19736)
(-3.43757e-20 -1.20516e-21 -0.204442)
(1.47962e-20 3.0314e-21 -0.202746)
(-8.25227e-21 -4.33741e-21 -0.194639)
(5.35986e-20 -1.80875e-20 -0.182098)
(4.35061e-19 7.58646e-19 -0.16675)
(-8.96381e-21 9.96025e-20 -0.149898)
(-4.59823e-19 -8.6693e-19 -0.132558)
(4.473e-19 1.0071e-18 -0.115492)
(-4.56537e-19 -1.00518e-18 -0.0992485)