/*--------------------------------*- C++ -*----------------------------------*\
| =========                 |                                                 |
| \\      /  F ield         | OpenFOAM: The Open Source CFD Toolbox           |
|  \\    /   O peration     | Version:  2412                                  |
|   \\  /    A nd           | Website:  www.openfoam.com                      |
|    \\/     M anipulation  |                                                 |
\*---------------------------------------------------------------------------*/
FoamFile
{
    version     2.0;
    format      ascii;
    arch        "LSB;label=32;scalar=64";
    class       surfaceScalarField;
    location    "16";
    object      phi;
}
// * * * * * * * * * * * * * * * * * * * * * * * * * * * * * * * * * * * * * //

dimensions      [0 3 -1 0 0 0 0];

oriented        oriented;

internalField   nonuniform List<scalar> 
10422
(
0.00574693
-3.17178e-05
-0.00574544
3.02314e-05
0.00574774
-1.80753e-05
1.72633e-05
0.00574788
-4.38991e-06
4.24675e-06
0.00574736
9.31505e-06
-8.79054e-06
0.00574617
2.30071e-05
-2.18176e-05
0.00574432
3.66479e-05
-3.47999e-05
0.00574183
5.02001e-05
-4.77039e-05
0.00573869
6.3628e-05
-6.04969e-05
0.00573494
7.6896e-05
-7.31466e-05
0.0057306
8.99688e-05
-8.56206e-05
0.00572567
0.000102811
-9.78862e-05
0.0057202
0.000115385
-0.00010991
0.0057142
0.000127655
-0.000121656
0.00570771
0.000139583
-0.000133091
0.00570075
0.000151131
-0.000144176
0.00569337
0.00016226
-0.000154876
0.00568559
0.000172932
-0.000165154
0.00567745
0.000183113
-0.000174975
0.00566899
0.000192767
-0.000184304
0.00566023
0.000201864
-0.000193111
0.00565123
0.00021038
-0.00020137
0.00564199
0.000218293
-0.00020906
0.00563257
0.000225587
-0.000216164
0.000232253
-0.000222671
0.00576047
-3.32824e-05
-0.0057589
0.00576131
-1.8924e-05
0.00576145
-4.52361e-06
0.00576087
9.89453e-06
0.00575958
2.42962e-05
0.00575759
3.86392e-05
0.00575491
5.28822e-05
0.00575155
6.69856e-05
0.00574753
8.09107e-05
0.00574288
9.46184e-05
0.00573763
0.00010807
0.00573178
0.000121226
0.00572539
0.000134047
0.00571848
0.000146492
0.00571109
0.000158522
0.00570326
0.000170097
0.00569501
0.000181177
0.0056864
0.000191728
0.00567745
0.000201715
0.00566821
0.000211107
0.0056587
0.000219882
0.00564898
0.000228018
0.00563906
0.000235501
0.000242324
0.00577472
-3.49354e-05
-0.00577307
0.00577561
-1.98135e-05
0.00577574
-4.64902e-06
0.0057751
1.05315e-05
0.0057737
2.56912e-05
0.00577156
4.07837e-05
0.00576868
5.57632e-05
0.00576508
7.05863e-05
0.00576078
8.521e-05
0.00575581
9.95918e-05
0.00575019
0.000113689
0.00574395
0.000127459
0.00573714
0.00014086
0.00572978
0.000153849
0.00572192
0.000166383
0.0057136
0.000178422
0.00570485
0.000189926
0.00569572
0.000200859
0.00568624
0.000211186
0.00567647
0.000220879
0.00566644
0.000229915
0.00565618
0.000238275
0.00564574
0.000245946
0.000252922
0.00578974
-3.66868e-05
-0.00578799
0.00579068
-2.07487e-05
0.0057908
-4.76716e-06
0.0057901
1.12286e-05
0.00578859
2.71987e-05
0.00578628
4.30917e-05
0.00578319
5.88573e-05
0.00577933
7.44474e-05
0.00577473
8.98148e-05
0.0057694
0.000104913
0.0057634
0.000119695
0.00575674
0.000134116
0.00574947
0.000148128
0.00574163
0.000161689
0.00573327
0.000174752
0.00572441
0.000187275
0.00571512
0.000199219
0.00570543
0.000210546
0.00569539
0.000221224
0.00568505
0.000231224
0.00567444
0.000240524
0.00566361
0.000249107
0.00565259
0.000256964
0.00026409
0.00580559
-3.85464e-05
-0.00580373
0.00580657
-2.1735e-05
0.00580669
-4.87919e-06
0.00580593
1.19892e-05
0.0058043
2.8826e-05
0.00580181
4.55747e-05
0.00579849
6.21797e-05
0.00579435
7.8588e-05
0.00578942
9.47478e-05
0.00578372
0.000110608
0.0057773
0.000126117
0.00577019
0.000141226
0.00576243
0.000155886
0.00575407
0.000170049
0.00574516
0.000183667
0.00573573
0.000196698
0.00572585
0.0002091
0.00571556
0.000220836
0.00570491
0.000231874
0.00569395
0.000242187
0.00568272
0.000251755
0.00567126
0.000260563
0.00565962
0.000268603
0.000275873
0.00582231
-4.05251e-05
-0.00582033
0.00582335
-2.27781e-05
0.00582346
-4.98592e-06
0.00582263
1.28167e-05
0.00582087
3.05811e-05
0.0058182
4.82451e-05
0.00581464
6.57472e-05
0.0058102
8.30291e-05
0.00580491
0.000100034
0.00579881
0.000116705
0.00579194
0.000132988
0.00578434
0.000148828
0.00577606
0.000164172
0.00576713
0.000178971
0.00575763
0.000193174
0.00574759
0.000206737
0.00573707
0.000219617
0.00572613
0.000231778
0.00571482
0.000243188
0.00570318
0.000253822
0.00569128
0.000263661
0.00567914
0.000272694
0.00566683
0.000280914
0.000288322
0.00583997
-4.26341e-05
-0.00583786
0.00584107
-2.38841e-05
0.00584118
-5.08824e-06
0.00584028
1.37155e-05
0.00583838
3.24735e-05
0.00583551
5.11172e-05
0.00583168
6.95788e-05
0.00582692
8.77942e-05
0.00582125
0.0001057
0.00581472
0.000123236
0.00580736
0.000140341
0.00579923
0.000156958
0.00579038
0.000173028
0.00578085
0.000188499
0.0057707
0.000203319
0.00576
0.000217441
0.00574879
0.000230822
0.00573715
0.000243425
0.00572512
0.00025522
0.00571275
0.000266184
0.00570012
0.000276299
0.00568725
0.000285556
0.00567422
0.000293953
0.000301492
0.00585863
-4.48861e-05
-0.00585638
0.00585981
-2.50596e-05
0.0058599
-5.18679e-06
0.00585893
1.46906e-05
0.00585689
3.45138e-05
0.0058538
5.4207e-05
0.00584968
7.36958e-05
0.00584457
9.29093e-05
0.00583849
0.000111779
0.00583149
0.000130237
0.00582361
0.000148218
0.00581491
0.00016566
0.00580544
0.000182501
0.00579525
0.000198684
0.00578442
0.000214155
0.00577299
0.000228865
0.00576104
0.000242771
0.00574863
0.000255836
0.00573582
0.000268031
0.00572267
0.000279333
0.00570924
0.000289728
0.00569559
0.000299209
0.00568176
0.000307778
0.00031544
0.00587837
-4.72941e-05
-0.00587596
0.00587962
-2.63111e-05
0.00587972
-5.28171e-06
0.00587866
1.57484e-05
0.00587646
3.67145e-05
0.00587313
5.75331e-05
0.00586871
7.81222e-05
0.00586321
9.8404e-05
0.00585669
0.000118303
0.00584918
0.000137746
0.00584073
0.000156662
0.00583141
0.000174982
0.00582127
0.000192641
0.00581038
0.000209579
0.00579879
0.000225739
0.00578659
0.00024107
0.00577383
0.000255528
0.00576059
0.000269075
0.00574694
0.000281684
0.00573294
0.000293334
0.00571865
0.000304013
0.00570414
0.000313719
0.00568947
0.000322453
0.000330227
0.00589927
-4.98724e-05
-0.00589669
0.0059006
-2.76454e-05
0.00590069
-5.37251e-06
0.00589954
1.68963e-05
0.00589717
3.909e-05
0.00589358
6.11165e-05
0.00588882
8.28856e-05
0.00588291
0.000104312
0.0058759
0.000125313
0.00586784
0.000145808
0.00585878
0.00016572
0.00584879
0.000184977
0.00583792
0.000203507
0.00582626
0.000221246
0.00581386
0.000238135
0.00580081
0.00025412
0.00578718
0.000269158
0.00577305
0.00028321
0.00575848
0.000296249
0.00574356
0.000308257
0.00572835
0.000319225
0.00571291
0.000329152
0.00569732
0.000338046
0.000345921
0.0059214
-5.26359e-05
-0.00591864
0.00592283
-2.90694e-05
0.00592291
-5.45787e-06
0.00592166
1.81437e-05
0.0059191
4.16574e-05
0.00591523
6.49817e-05
0.0059101
8.80173e-05
0.00590374
0.000110671
0.0058962
0.000132851
0.00588754
0.000154472
0.00587781
0.000175449
0.00586708
0.000195704
0.00585543
0.00021516
0.00584292
0.00023375
0.00582965
0.000251411
0.00581568
0.000268088
0.0058011
0.000283735
0.005786
0.000298315
0.00577045
0.000311801
0.00575453
0.000324177
0.00573831
0.000335437
0.00572188
0.000345584
0.0057053
0.000354628
0.000362588
0.00594487
-5.56007e-05
-0.00594191
0.00594639
-3.05896e-05
0.00594647
-5.53534e-06
0.00594511
1.95019e-05
0.00594233
4.44364e-05
0.00593816
6.91565e-05
0.00593262
9.35529e-05
0.00592577
0.000117523
0.00591765
0.000140969
0.00590833
0.000163794
0.00589787
0.000185909
0.00588634
0.000207228
0.00587383
0.000227671
0.00586042
0.000247166
0.00584618
0.000265645
0.00583122
0.000283052
0.00581562
0.00029934
0.00579946
0.000314471
0.00578284
0.000328421
0.00576584
0.000341175
0.00574855
0.00035273
0.00573104
0.000363092
0.00571339
0.000372276
0.000380304
0.00596977
-5.87834e-05
-0.00596659
0.0059714
-3.22125e-05
0.00597146
-5.60114e-06
0.00596998
2.09845e-05
0.00596697
4.74503e-05
0.00596245
7.36732e-05
0.00595647
9.95333e-05
0.00594908
0.000124918
0.00594032
0.00014972
0.00593028
0.000173836
0.00591902
0.000197168
0.00590663
0.000219624
0.00589318
0.000241118
0.00587877
0.000261573
0.0058635
0.000280919
0.00584745
0.000299097
0.00583073
0.000316059
0.00581344
0.000331768
0.00579566
0.000346198
0.0057775
0.000359339
0.00575904
0.000371189
0.00574037
0.000381759
0.00572158
0.000391069
0.000399145
0.00599623
-6.22019e-05
-0.00599281
0.00599796
-3.3944e-05
0.00599801
-5.64985e-06
0.00599638
2.26079e-05
0.00599311
5.0726e-05
0.00598821
7.85689e-05
0.00598174
0.000106005
0.00597375
0.000132911
0.0059643
0.00015917
0.00595347
0.000184669
0.00594133
0.000209303
0.00592798
0.000232972
0.00591352
0.000255587
0.00589803
0.000277063
0.00588162
0.000297327
0.0058644
0.000316319
0.00584647
0.000333989
0.00582793
0.000350299
0.00580891
0.000365226
0.00578948
0.000378761
0.00576977
0.000390905
0.00574985
0.000401675
0.00572983
0.000411093
0.000419192
0.00602435
-6.58744e-05
-0.00602068
0.0060262
-3.57894e-05
0.00602622
-5.67391e-06
0.00602444
2.43921e-05
0.00602087
5.42952e-05
0.00601555
8.38863e-05
0.00600854
0.000113021
0.00599988
0.000141564
0.00598966
0.000169388
0.00597796
0.000196371
0.00596487
0.000222399
0.00595047
0.000247365
0.00593489
0.000271172
0.00591822
0.000293734
0.00590057
0.000314971
0.00588207
0.000334821
0.00586283
0.000353233
0.00584296
0.00037017
0.00582257
0.000385609
0.00580179
0.000399543
0.00578072
0.000411978
0.00575946
0.000422934
0.00573811
0.000432439
0.000440533
0.00605428
-6.98201e-05
-0.00605034
0.00605625
-3.77527e-05
0.00605623
-5.66312e-06
0.00605427
2.63607e-05
0.00605037
5.81947e-05
0.00604458
8.96745e-05
0.00603696
0.000120641
0.00602757
0.000150948
0.00601651
0.000180455
0.00600385
0.00020903
0.0059897
0.000236551
0.00597416
0.000262903
0.00595735
0.000287982
0.00593939
0.000311696
0.00592039
0.000333963
0.0059005
0.000354717
0.00587983
0.000373906
0.0058585
0.000391493
0.00583665
0.000407457
0.0058144
0.000421794
0.00579187
0.000434513
0.00576916
0.000445638
0.0057464
0.000455205
0.000463258
0.00608616
-7.40578e-05
-0.00608193
0.00608825
-3.98362e-05
0.00608819
-5.60426e-06
0.00608601
2.85425e-05
0.00608173
6.24679e-05
0.00607542
9.59906e-05
0.00606712
0.000128936
0.00605693
0.000161144
0.00604492
0.000192461
0.0060312
0.000222747
0.00601589
0.000251866
0.00599909
0.000279698
0.00598094
0.000306133
0.00596157
0.000331071
0.0059411
0.000354428
0.00591969
0.000376132
0.00589746
0.000396132
0.00587456
0.000414392
0.00585113
0.000430893
0.00582729
0.000445632
0.00580318
0.000458623
0.00577892
0.000469897
0.00575463
0.000479493
0.000487465
0.00612016
-0.00611561
0.00612236
0.00612223
0.0061198
0.00611511
0.00610819
0.00609915
0.00608805
0.006075
0.00606011
0.00604351
0.00602533
0.00600571
0.00598479
0.000351992
0.00596272
0.000376499
0.00593965
0.000399202
0.00591573
0.000420048
0.00589112
0.000439002
0.00586597
0.000456047
0.00584042
0.000471184
0.00581461
0.000484431
0.00578868
0.000495825
0.00576276
0.000505413
0.000513256
0.00600907
0.00598524
0.00596036
0.00593461
0.00590815
0.00588113
0.00585373
0.0058261
0.00579838
0.00577071
0.00541464
-0.00011968
-0.00540255
0.000107592
0.00543972
-0.000122093
9.7009e-05
0.00547754
-0.000123987
8.61689e-05
0.00552767
-0.00012523
7.51012e-05
0.00558954
-0.0001257
6.38351e-05
0.00566241
-0.000125279
5.2401e-05
-0.000123855
4.0827e-05
0.00542549
-0.000132122
-0.00541305
0.00545095
-0.000147556
0.00548917
-0.000162207
0.00553973
-0.000175786
0.00560204
-0.000188014
0.00567539
-0.000198627
-0.000207367
0.00543685
-0.000144944
-0.00542403
0.00546272
-0.000173424
0.00550137
-0.000200859
0.00555238
-0.000226799
0.00561518
-0.00025081
0.00568903
-0.000272479
-0.000291405
0.00544875
-0.000158175
-0.00543552
0.00547505
-0.000199729
0.00551417
-0.000239975
0.00556567
-0.000278303
0.00562899
-0.000314124
0.00570339
-0.000346877
-0.000376012
0.00546122
-0.000171846
-0.00544755
0.00548799
-0.000226504
0.00552761
-0.00027959
0.00557964
-0.000330336
0.00564352
-0.000377998
0.0057185
-0.000421864
-0.000461236
0.00547429
-0.000185994
-0.00546015
0.00550158
-0.000253787
0.00554173
-0.000319744
0.00559433
-0.000382941
0.00565881
-0.000442476
0.00573444
-0.000497489
-0.000547128
0.005488
-0.000200656
-0.00547334
0.00551584
-0.000281618
0.00555657
-0.000360482
0.0056098
-0.000436164
0.00567493
-0.000507608
0.00575124
-0.000573804
-0.000633743
0.00550239
-0.000215877
-0.00548717
0.00553082
-0.000310042
0.00557218
-0.00040185
0.00562608
-0.000490055
0.00569192
-0.000573448
0.00576898
-0.000650866
-0.000721144
0.0055175
-0.000231701
-0.00550167
0.00554657
-0.000339109
0.00558862
-0.0004439
0.00564323
-0.00054467
0.00570984
-0.000640054
0.00578771
-0.000728739
-0.000809396
0.00553337
-0.000248181
-0.00551689
0.00556313
-0.000368873
0.00560592
-0.000486689
0.00566132
-0.000600069
0.00572876
-0.000707492
0.00580751
-0.000807491
-0.000898574
0.00555005
-0.000265371
-0.00553286
0.00558057
-0.000399391
0.00562416
-0.000530279
0.00568041
-0.000656317
0.00574875
-0.00077583
0.00582846
-0.000887198
-0.000988755
0.0055676
-0.000283332
-0.00554964
0.00559894
-0.000430728
0.0056434
-0.000574738
0.00570057
-0.000713488
0.00576989
-0.000845147
0.00585063
-0.000967941
-0.00108003
0.00558608
-0.000302134
-0.00556728
0.00561831
-0.000462957
0.00566371
-0.000620142
0.00572188
-0.000771661
0.00579226
-0.000915526
0.00587413
-0.00104981
-0.00117249
0.00560554
-0.00032185
-0.00558583
0.00563874
-0.000496154
0.00568517
-0.000666573
0.00574443
-0.000830922
0.00581596
-0.00098706
0.00589906
-0.0011329
-0.00126624
0.00562606
-0.000342563
-0.00560535
0.00566031
-0.000530405
0.00570786
-0.00071412
0.0057683
-0.000891367
0.0058411
-0.00105985
0.00592552
-0.00121733
-0.0013614
0.00564771
-0.000364363
-0.00562591
0.00568311
-0.000565807
0.00573187
-0.000762884
0.00579361
-0.000953102
0.00586777
-0.00113401
0.00595365
-0.00130321
-0.00145809
0.00567057
-0.000387352
-0.00564758
0.00570722
-0.000602463
0.00575731
-0.000812975
0.00582045
-0.00101624
0.00589611
-0.00120966
0.00598357
-0.00139067
-0.00155645
0.00569472
-0.000411639
-0.00567043
0.00573275
-0.00064049
0.00578429
-0.000864515
0.00584896
-0.00108092
0.00592624
-0.00128694
0.00601543
-0.00147985
-0.00165663
0.00572027
-0.000437348
-0.00569456
0.0057598
-0.000680016
0.00581292
0.00587927
0.00595833
0.00604939
0.00574731
-0.00572004
0.00559719
-9.98149e-05
-0.00566986
0.000172487
0.00553486
-0.000102006
0.000164334
0.00548372
-0.00010464
0.000155784
0.00544445
-0.000107582
0.000146849
0.0054176
-0.000110694
0.000137543
0.00540356
-0.000113841
0.000127883
-0.000116883
0.000117892
0.00560611
-2.7302e-05
-0.00567862
0.00554398
-3.9872e-05
0.00549305
-5.37169e-05
0.00545404
-6.85653e-05
0.00542747
-8.41239e-05
0.00541373
-0.000100102
-0.000116203
0.00561539
4.50334e-05
-0.00568772
0.00555346
2.20501e-05
0.00550278
-3.03097e-06
0.00546403
-2.98224e-05
0.00543776
-5.78535e-05
0.00542435
-8.66914e-05
-0.000115877
0.00562503
0.000117172
-0.00569717
0.00556333
8.37461e-05
0.00551292
4.73781e-05
0.00547447
8.63121e-06
0.00544852
-3.19063e-05
0.00543546
-7.36334e-05
-0.000115931
0.00563505
0.000189093
-0.00570697
0.00557361
0.000145187
0.00552348
9.75048e-05
0.00548536
4.67601e-05
0.00545976
-6.30852e-06
0.00544708
-6.09575e-05
-0.000116398
0.00564547
0.000260772
-0.00571715
0.00558431
0.00020635
0.00553449
0.000147319
0.00549671
8.45421e-05
0.0054715
1.89033e-05
0.00545923
-4.86937e-05
-0.000117309
0.00565629
0.000332186
-0.00572771
0.00559543
0.000267209
0.00554596
0.000196791
0.00550856
0.000121944
0.00548376
4.37012e-05
0.00547195
-3.68788e-05
-0.000118702
0.00566754
0.000403305
-0.00573866
0.00560702
0.000327733
0.00555792
0.000245887
0.00552093
0.000158932
0.00549659
6.80487e-05
0.00548526
-2.55503e-05
-0.000120617
0.00567923
0.0004741
-0.00575002
0.00561907
0.00038789
0.00557039
0.000294572
0.00553385
0.000195468
0.00550999
9.1905e-05
0.00549919
-1.47486e-05
-0.000123099
0.00569137
0.000544534
-0.0057618
0.00563162
0.000447641
0.00558338
0.000342808
0.00554734
0.000231509
0.00552402
0.000115224
0.00551379
-4.51769e-06
-0.000126198
0.00570399
0.00061457
-0.00577402
0.00564468
0.000506947
0.00559694
0.000390549
0.00556144
0.000267012
0.0055387
0.000137965
0.0055291
5.07623e-06
-0.00012996
0.00571709
0.000684162
-0.00578668
0.00565828
0.00056576
0.00561108
0.000437747
0.00557617
0.000301924
0.00555407
0.000160067
0.00554515
1.39897e-05
-0.00013445
0.0057307
0.000753261
-0.0057998
0.00567244
0.000624028
0.00562584
0.000484347
0.00559157
0.000336187
0.00557017
0.000181473
0.005562
2.21615e-05
-0.000139732
0.00574484
0.000821811
-0.00581339
0.00568718
0.000681692
0.00564124
0.000530288
0.00560768
0.000369739
0.00558704
0.000202116
0.00557968
2.95217e-05
-0.000145876
0.00575952
0.000889748
-0.00582746
0.00570252
0.000738688
0.00565731
0.000575502
0.00562454
0.000402507
0.00560473
0.000221923
0.00559826
3.59941e-05
-0.000152962
0.00577475
0.000957001
-0.00584201
0.0057185
0.00079494
0.00567409
0.000619912
0.00564218
0.000434414
0.00562329
0.000240813
0.00561779
4.14943e-05
-0.000161076
0.00579056
0.00102349
-0.00585704
0.00573513
0.000850367
0.00569161
0.000663433
0.00566065
0.00046537
0.00564277
0.000258694
0.00563834
4.5929e-05
-0.000170316
0.00580694
0.00108911
-0.00587257
0.00575244
0.000904871
0.0057099
0.000705968
0.00568
0.000495277
0.00566323
0.000275465
0.00565996
4.91926e-05
-0.000180788
0.00582392
0.00577044
0.005729
0.00570026
0.00568471
0.00568273
5.11693e-05
-0.000192614
0.00570673
0.00538002
-0.000232536
0.000226862
0.00538593
-0.00023592
0.00023001
0.00539208
-0.000239215
0.000233065
0.00539847
-0.000242405
0.000236013
0.00540511
-0.000245472
0.000238836
0.00541199
-0.000248401
0.00024152
0.00541912
-0.000251176
0.000244049
0.00542649
-0.000253777
0.000246406
0.0054341
-0.000256187
0.000248573
0.00544196
-0.000258388
0.000250533
0.00545005
-0.00026036
0.000252268
0.00545837
-0.000262082
0.000253759
0.00546692
-0.000263536
0.000254987
0.00547569
-0.000264699
0.000255933
0.00548466
-0.000265551
0.000256577
0.00549383
-0.000266072
0.0002569
0.00550319
-0.000266239
0.000256883
0.00551271
-0.000266032
0.000256505
0.0055224
-0.00026543
0.000255749
0.00553221
-0.000264414
0.000254595
0.00554215
-0.000262963
0.000253027
0.00555218
-0.000261058
0.000251026
0.00556229
-0.000258682
0.000248577
0.00557244
-0.000255818
0.000245666
0.00558261
-0.000252451
0.000242279
0.00559278
-0.000248568
0.000238404
0.0056029
-0.000244157
0.000234031
0.00561296
-0.000239209
0.000229152
0.00562291
-0.000233715
0.000223761
0.00563273
-0.000227671
0.000217855
0.00564237
-0.000221074
0.000211431
0.00565181
-0.000213923
0.000204489
0.00566099
-0.000206215
0.000197032
-0.000197932
0.000189056
0.00537663
-0.000238294
0.00538263
-0.000241927
0.0053889
-0.000245476
0.00539541
-0.000248923
0.00540219
-0.00025225
0.00540923
-0.000255441
0.00541653
-0.000258478
0.0054241
-0.000261342
0.00543193
-0.000264014
0.00544001
-0.000266474
0.00544835
-0.000268702
0.00545695
-0.000270676
0.00546579
-0.000272375
0.00547486
-0.000273776
0.00548417
-0.000274858
0.00549369
-0.000275596
0.00550342
-0.000275969
0.00551335
-0.000275953
0.00552344
-0.000275526
0.00553369
-0.000274666
0.00554408
-0.000273351
0.00555458
-0.00027156
0.00556518
-0.000269273
0.00557583
-0.000266472
0.00558652
-0.000263139
0.00559721
-0.00025926
0.00560787
-0.00025482
0.00561847
-0.000249808
0.00562897
-0.000244216
0.00563934
-0.000238037
0.00564953
-0.000231267
0.00565951
-0.000223901
0.00566923
-0.000215933
-0.000207326
0.00537299
-0.000244131
0.00537909
-0.000248028
0.00538546
-0.000251845
0.0053921
-0.000255565
0.00539902
-0.000259168
0.00540622
-0.000262637
0.00541369
-0.000265955
0.00542145
-0.0002691
0.00542949
-0.000272053
0.00543781
-0.000274794
0.00544641
-0.000277299
0.00545528
-0.000279546
0.00546442
-0.000281512
0.00547381
-0.000283174
0.00548346
-0.000284507
0.00549335
-0.000285486
0.00550347
-0.000286088
0.0055138
-0.000286285
0.00552433
-0.000286056
0.00553504
-0.000285373
0.0055459
-0.000284215
0.0055569
-0.000282557
0.00556801
-0.000280377
0.00557919
-0.000277656
0.00559042
-0.000274372
0.00560167
-0.00027051
0.0056129
-0.000266052
0.00562408
-0.000260987
0.00563517
-0.000255303
0.00564612
-0.000248992
0.00565691
-0.000242048
0.00566747
-0.000234465
0.00567776
-0.000226229
-0.000217283
0.0053691
-0.00025004
0.00537529
-0.000254215
0.00538176
-0.000258316
0.00538852
-0.000262325
0.00539558
-0.000266221
0.00540293
-0.000269988
0.00541058
-0.000273605
0.00541853
-0.000277052
0.00542678
-0.000280307
0.00543534
-0.000283349
0.00544419
-0.000286154
0.00545334
-0.000288697
0.00546279
-0.000290955
0.00547251
-0.000292901
0.00548252
-0.00029451
0.00549278
-0.000295755
0.00550331
-0.000296609
0.00551407
-0.000297046
0.00552505
-0.000297037
0.00553623
-0.000296556
0.00554759
-0.000295577
0.00555911
-0.000294075
0.00557076
-0.000292023
0.0055825
-0.0002894
0.00559431
-0.000286184
0.00560616
-0.000282353
0.005618
-0.000277891
0.00562979
-0.000272782
0.0056415
-0.000267014
0.00565309
-0.000260576
0.0056645
-0.000253459
0.00567569
-0.000245656
0.0056866
-0.000237145
-0.000227846
0.00536494
-0.000256016
0.00537121
-0.000260484
0.00537778
-0.000264884
0.00538465
-0.000269198
0.00539184
-0.000273406
0.00539934
-0.000277489
0.00540716
-0.000281426
0.0054153
-0.000285195
0.00542377
-0.000288775
0.00543256
-0.000292142
0.00544168
-0.00029527
0.00545112
-0.000298135
0.00546087
-0.000300709
0.00547093
-0.000302966
0.0054813
-0.000304878
0.00549196
-0.000306415
0.0055029
-0.00030755
0.00551411
-0.000308251
0.00552556
-0.00030849
0.00553724
-0.000308237
0.00554913
-0.000307464
0.00556119
-0.00030614
0.00557341
-0.000304241
0.00558575
-0.000301738
0.00559817
-0.000298607
0.00561065
-0.000294827
0.00562313
-0.000290375
0.00563558
-0.000285235
0.00564796
-0.000279392
0.00566022
-0.000272832
0.00567231
-0.000265546
0.00568417
-0.000257522
0.00569576
-0.00024873
-0.000239062
0.00536049
-0.00026205
0.00536683
-0.000266825
0.00537349
-0.000271542
0.00538047
-0.000276179
0.00538778
-0.000280717
0.00539543
-0.000285136
0.00540342
-0.000289414
0.00541175
-0.000293529
0.00542043
-0.000297456
0.00542946
-0.000301172
0.00543884
-0.00030465
0.00544857
-0.000307862
0.00545864
-0.000310781
0.00546905
-0.000313377
0.0054798
-0.00031562
0.00549086
-0.000317479
0.00550223
-0.000318923
0.0055139
-0.000319919
0.00552585
-0.000320435
0.00553805
-0.000320439
0.00555048
-0.000319899
0.00556313
-0.000318783
0.00557595
-0.00031706
0.00558891
-0.000314702
0.00560198
-0.000311681
0.00561513
-0.00030797
0.0056283
-0.000303547
0.00564145
-0.00029839
0.00565454
-0.000292483
0.00566752
-0.00028581
0.00568033
-0.000278358
0.00569292
-0.000270112
0.00570523
-0.000261033
-0.000250983
0.00535574
-0.000268132
0.00536214
-0.000273231
0.00536888
-0.000278281
0.00537596
-0.000283261
0.00538339
-0.000288148
0.00539118
-0.000292924
0.00539933
-0.000297565
0.00540785
-0.000302049
0.00541675
-0.000306349
0.00542601
-0.00031044
0.00543566
-0.000314295
0.00544568
-0.000317883
0.00545607
-0.000321176
0.00546684
-0.000324141
0.00547796
-0.000326747
0.00548944
-0.000328959
0.00550127
-0.000330745
0.00551342
-0.000332068
0.00552587
-0.000332893
0.00553862
-0.000333186
0.00555163
-0.00033291
0.00556488
-0.000332032
0.00557834
-0.000330516
0.00559196
-0.00032833
0.00560572
-0.000325442
0.00561958
-0.000321825
0.00563348
-0.00031745
0.00564739
-0.000312294
0.00566124
-0.000306337
0.00567499
-0.000299561
0.00568858
-0.000291949
0.00570195
-0.000283481
0.00571503
-0.00027411
-0.000263664
0.00535066
-0.000274253
0.00535712
-0.000279693
0.00536393
-0.000285093
0.0053711
-0.000290433
0.00537865
-0.000295692
0.00538657
-0.000300846
0.00539488
-0.000305874
0.00540358
-0.000310751
0.00541268
-0.00031545
0.00542219
-0.000319945
0.0054321
-0.000324205
0.00544241
-0.0003282
0.00545313
-0.000331898
0.00546426
-0.000335265
0.00547578
-0.000338267
0.00548769
-0.000340867
0.00549997
-0.000343029
0.00551262
-0.000344715
0.00552561
-0.000345885
0.00553893
-0.000346502
0.00555254
-0.000346525
0.00556643
-0.000345918
0.00558055
-0.000344641
0.00559488
-0.000342657
0.00560937
-0.000339933
0.00562398
-0.000336435
0.00563866
-0.000332132
0.00565337
-0.000326998
0.00566804
-0.000321007
0.00568262
-0.000314139
0.00569704
-0.000306374
0.00571125
-0.000297688
0.00572516
-0.000288021
-0.000277165
0.00534524
-0.000280402
0.00535175
-0.000286198
0.00535862
-0.000291967
0.00536588
-0.000297688
0.00537352
-0.000303338
0.00538157
-0.000308894
0.00539003
-0.000314333
0.00539891
-0.000319629
0.00540821
-0.000324756
0.00541795
-0.000329682
0.00542812
-0.000334379
0.00543874
-0.000338813
0.00544979
-0.00034295
0.00546128
-0.000346755
0.0054732
-0.000350189
0.00548555
-0.000353215
0.00549831
-0.000355791
0.00551147
-0.000357878
0.00552502
-0.000359432
0.00553893
-0.000360411
0.00555318
-0.000360772
0.00556773
-0.000360473
0.00558256
-0.000359472
0.00559763
-0.000357726
0.0056129
-0.000355198
0.00562831
-0.000351849
0.00564382
-0.000347646
0.00565938
-0.000342555
0.00567493
-0.00033655
0.00569039
-0.000329606
0.00570572
-0.000321699
0.00572083
-0.000312797
0.00573564
-0.000302831
-0.000291551
0.00533947
-0.000286565
0.00534601
-0.000292735
0.00535293
-0.000298892
0.00536026
-0.000305013
0.00536799
-0.000311076
0.00537616
-0.000317058
0.00538476
-0.000322934
0.00539381
-0.000328677
0.00540331
-0.000334259
0.00541328
-0.000339649
0.00542371
-0.000344815
0.00543462
-0.000349723
0.00544601
-0.000354335
0.00545787
-0.000358615
0.0054702
-0.000362521
0.005483
-0.000366012
0.00549625
-0.000369045
0.00550995
-0.000371574
0.00552407
-0.000373555
0.0055386
-0.000374939
0.0055535
-0.000375681
0.00556876
-0.000375732
0.00558434
-0.000375046
0.00560019
-0.000373578
0.00561627
-0.000371282
0.00563254
-0.000368117
0.00564894
-0.000364044
0.00566541
-0.000359025
0.00568189
-0.000353029
0.00569831
-0.000346026
0.0057146
-0.000337989
0.00573068
-0.000328879
0.00574646
-0.000318613
-0.000306894
0.00533332
-0.000292729
0.00533988
-0.00029929
0.00534684
-0.000305853
0.00535422
-0.000312396
0.00536204
-0.000318894
0.00537031
-0.000325326
0.00537904
-0.000331665
0.00538824
-0.000337884
0.00539794
-0.000343952
0.00540813
-0.000349839
0.00541882
-0.000355509
0.00543003
-0.000360927
0.00544174
-0.000366053
0.00545398
-0.000370848
0.00546673
-0.000375268
0.00547998
-0.000379269
0.00549374
-0.000382803
0.00550799
-0.000385821
0.00552271
-0.000388275
0.00553788
-0.000390112
0.00555348
-0.00039128
0.00556948
-0.000391728
0.00558583
-0.000391404
0.00560251
-0.000390256
0.00561947
-0.000388235
0.00563664
-0.000385293
0.00565398
-0.000381385
0.00567143
-0.00037647
0.00568891
-0.000370509
0.00570635
-0.00036347
0.00572368
-0.000355318
0.00574081
-0.000346009
0.00575764
-0.000335443
-0.000323273
0.00532678
-0.000298878
0.00533334
-0.000305847
0.00534032
-0.000312836
0.00534775
-0.000319821
0.00535563
-0.000326779
0.00536399
-0.000333686
0.00537284
-0.000340515
0.0053822
-0.000347239
0.00539207
-0.000353826
0.00540247
-0.000360243
0.00541342
-0.000366455
0.00542491
-0.000372422
0.00543697
-0.000378104
0.00544957
-0.000383457
0.00546274
-0.000388437
0.00547647
-0.000392994
0.00549074
-0.000397078
0.00550556
-0.000400635
0.00552089
-0.000403613
0.00553674
-0.000405954
0.00555306
-0.000407602
0.00556983
-0.000408498
0.00558701
-0.000408586
0.00560456
-0.000407808
0.00562243
-0.000406108
0.00564057
-0.000403433
0.00565892
-0.000399732
0.00567741
-0.000394957
0.00569596
-0.000389064
0.00571451
-0.000382014
0.00573296
-0.000373768
0.00575122
-0.000364272
0.00576918
-0.000353408
-0.000340772
0.00531983
-0.000304994
0.00532638
-0.000312389
0.00533336
-0.000319822
0.00534081
-0.000327271
0.00534875
-0.000334712
0.00535718
-0.00034212
0.00536614
-0.000349469
0.00537563
-0.000356729
0.00538567
-0.000363869
0.00539628
-0.000370853
0.00540747
-0.000377643
0.00541925
-0.000384201
0.00543162
-0.000390482
0.00544461
-0.000396441
0.0054582
-0.000402029
0.0054724
-0.000407193
0.0054872
-0.00041188
0.0055026
-0.000416032
0.00551858
-0.000419589
0.00553511
-0.000422491
0.00555219
-0.000424675
0.00556977
-0.000426078
0.00558781
-0.000426634
0.00560629
-0.000426281
0.00562514
-0.000424957
0.0056443
-0.000422599
0.00566372
-0.000419151
0.00568332
-0.000414559
0.00570303
-0.000408771
0.00572276
-0.000401741
0.00574241
-0.000393424
0.0057619
-0.000383756
0.00578109
-0.0003726
-0.000359488
0.00531246
-0.000311059
0.00531897
-0.000318897
0.00532594
-0.000326794
0.0053334
-0.000334729
0.00534136
-0.000342677
0.00534985
-0.000350613
0.00535889
-0.00035851
0.0053685
-0.000366339
0.0053787
-0.000374065
0.0053895
-0.000381653
0.00540092
-0.000389065
0.00541298
-0.000396257
0.00542568
-0.000403184
0.00543903
-0.000409798
0.00545305
-0.000416046
0.00546773
-0.000421873
0.00548307
-0.000427219
0.00549906
-0.000432024
0.0055157
-0.000436223
0.00553295
-0.000439749
0.00555081
-0.000442533
0.00556924
-0.000444504
0.00558819
-0.000445593
0.00560764
-0.000445727
0.00562752
-0.000444837
0.00564778
-0.000442855
0.00566834
-0.000439714
0.00568913
-0.000435352
0.00571007
-0.000429712
0.00573107
-0.00042274
0.00575203
-0.000414381
0.00577284
-0.000404561
0.00579336
-0.000393122
-0.000379522
0.00530464
-0.00031705
0.00531109
-0.000325348
0.00531803
-0.000333729
0.00532547
-0.000342172
0.00533344
-0.000350651
0.00534197
-0.000359142
0.00535108
-0.000367618
0.00536079
-0.000376048
0.00537112
-0.000384397
0.0053821
-0.00039263
0.00539374
-0.000400704
0.00540606
-0.000408577
0.00541907
-0.000416199
0.0054328
-0.000423521
0.00544724
-0.000430485
0.0054624
-0.000437034
0.00547828
-0.000443103
0.00549488
-0.000448626
0.00551219
-0.000453533
0.00553019
-0.000457751
0.00554886
-0.000461204
0.00556818
-0.000463815
0.00558809
-0.000465506
0.00560856
-0.000466197
0.00562953
-0.00046581
0.00565095
-0.000464268
0.00567273
-0.000461495
0.0056948
-0.000457421
0.00571706
-0.00045198
0.00573943
-0.000445108
0.00576179
-0.000436742
0.00578403
-0.000426796
0.00580599
-0.000415085
-0.000400989
0.00529636
-0.000322945
0.00530273
-0.00033172
0.0053096
-0.000340604
0.00531701
-0.000349576
0.00532497
-0.000358611
0.00533351
-0.000367685
0.00534266
-0.00037677
0.00535245
-0.000385835