/*--------------------------------*- C++ -*----------------------------------*\
| =========                 |                                                 |
| \\      /  F ield         | OpenFOAM: The Open Source CFD Toolbox           |
|  \\    /   O peration     | Version:  2412                                  |
|   \\  /    A nd           | Website:  www.openfoam.com                      |
|    \\/     M anipulation  |                                                 |
\*---------------------------------------------------------------------------*/
FoamFile
{
    version     2.0;
    format      ascii;
    arch        "LSB;label=32;scalar=64";
    class       volVectorField;
    location    "16";
    object      U;
}
// * * * * * * * * * * * * * * * * * * * * * * * * * * * * * * * * * * * * * //

dimensions      [0 1 -1 0 0 0 0];

internalField   nonuniform List<vector> 
5285
(
(0.108567 -0.000584781 0)
(0.108589 -0.000333614 0)
(0.108598 -8.15833e-05 0)
(0.108594 0.000170836 0)
(0.108578 0.000423037 0)
(0.108549 0.000674336 0)
(0.108508 0.000924064 0)
(0.108455 0.00117158 0)
(0.10839 0.00141623 0)
(0.108313 0.0016574 0)
(0.108226 0.00189442 0)
(0.108127 0.00212665 0)
(0.108019 0.0023534 0)
(0.107901 0.00257399 0)
(0.107774 0.0027877 0)
(0.107638 0.00299384 0)
(0.107495 0.00319168 0)
(0.107344 0.00338057 0)
(0.107187 0.00355986 0)
(0.107024 0.00372898 0)
(0.106856 0.00388743 0)
(0.106684 0.00403482 0)
(0.106507 0.00417083 0)
(0.106328 0.00429529 0)
(0.108823 -0.000613591 0)
(0.108846 -0.000349294 0)
(0.108855 -8.41913e-05 0)
(0.10885 0.000181254 0)
(0.108833 0.000446424 0)
(0.108802 0.00071056 0)
(0.108757 0.000972922 0)
(0.1087 0.0012328 0)
(0.108631 0.00148949 0)
(0.108549 0.0017423 0)
(0.108455 0.00199051 0)
(0.10835 0.00223343 0)
(0.108234 0.00247032 0)
(0.108108 0.00270044 0)
(0.107973 0.00292307 0)
(0.107829 0.00313745 0)
(0.107677 0.00334288 0)
(0.107518 0.00353866 0)
(0.107352 0.00372416 0)
(0.10718 0.00389881 0)
(0.107002 0.00406213 0)
(0.10682 0.00421373 0)
(0.106635 0.00435333 0)
(0.106446 0.00448077 0)
(0.109092 -0.000643936 0)
(0.109116 -0.000365678 0)
(0.109125 -8.66301e-05 0)
(0.10912 0.000192736 0)
(0.109101 0.000471754 0)
(0.109067 0.000749586 0)
(0.10902 0.00102541 0)
(0.108958 0.00129845 0)
(0.108884 0.00156794 0)
(0.108796 0.00183309 0)
(0.108696 0.00209316 0)
(0.108584 0.00234736 0)
(0.10846 0.00259491 0)
(0.108326 0.00283505 0)
(0.108182 0.00306698 0)
(0.108029 0.00328996 0)
(0.107868 0.00350323 0)
(0.107699 0.00370611 0)
(0.107523 0.00389797 0)
(0.107341 0.00407824 0)
(0.107153 0.00424647 0)
(0.106962 0.00440229 0)
(0.106766 0.00454546 0)
(0.106567 0.00467583 0)
(0.109375 -0.000676038 0)
(0.109401 -0.000382884 0)
(0.10941 -8.89216e-05 0)
(0.109404 0.000205331 0)
(0.109383 0.000499145 0)
(0.109347 0.000791602 0)
(0.109296 0.00108179 0)
(0.10923 0.00136886 0)
(0.10915 0.00165195 0)
(0.109056 0.00193023 0)
(0.108949 0.00220285 0)
(0.108829 0.00246898 0)
(0.108698 0.00272778 0)
(0.108555 0.00297844 0)
(0.108402 0.00322012 0)
(0.108239 0.00345205 0)
(0.108067 0.00367347 0)
(0.107887 0.00388368 0)
(0.107701 0.00408205 0)
(0.107508 0.00426806 0)
(0.10731 0.00444125 0)
(0.107107 0.0046013 0)
(0.106901 0.004748 0)
(0.106691 0.00488123 0)
(0.109674 -0.000710095 0)
(0.109701 -0.000401003 0)
(0.10971 -9.10848e-05 0)
(0.109704 0.000219092 0)
(0.109682 0.000528728 0)
(0.109643 0.00083681 0)
(0.109588 0.00114234 0)
(0.109517 0.00144436 0)
(0.109431 0.00174195 0)
(0.109331 0.00203417 0)
(0.109216 0.00232011 0)
(0.109088 0.00259887 0)
(0.108947 0.00286956 0)
(0.108795 0.00313129 0)
(0.108631 0.00338321 0)
(0.108458 0.00362449 0)
(0.108275 0.00385438 0)
(0.108085 0.00407218 0)
(0.107887 0.00427726 0)
(0.107682 0.00446911 0)
(0.107472 0.00464733 0)
(0.107258 0.00481162 0)
(0.107039 0.0049618 0)
(0.106818 0.00509781 0)
(0.109989 -0.000746295 0)
(0.110018 -0.000420138 0)
(0.110028 -9.31382e-05 0)
(0.11002 0.000234082 0)
(0.109996 0.000560646 0)
(0.109954 0.000885435 0)
(0.109895 0.00120735 0)
(0.10982 0.00152533 0)
(0.109728 0.00183836 0)
(0.10962 0.00214543 0)
(0.109497 0.00244553 0)
(0.10936 0.00273768 0)
(0.10921 0.00302093 0)
(0.109047 0.00329434 0)
(0.108873 0.00355702 0)
(0.108688 0.00380811 0)
(0.108493 0.00404684 0)
(0.108291 0.0042725 0)
(0.10808 0.0044845 0)
(0.107863 0.00468234 0)
(0.10764 0.00486565 0)
(0.107413 0.00503418 0)
(0.107182 0.00518779 0)
(0.106948 0.00532648 0)
(0.110322 -0.000784846 0)
(0.110353 -0.000440402 0)
(0.110363 -9.51016e-05 0)
(0.110355 0.000250375 0)
(0.110329 0.000595063 0)
(0.110284 0.000937729 0)
(0.11022 0.00127716 0)
(0.110139 0.00161219 0)
(0.11004 0.0019417 0)
(0.109925 0.00226457 0)
(0.109793 0.00257973 0)
(0.109647 0.0028861 0)
(0.109486 0.00318266 0)
(0.109312 0.00346842 0)
(0.109126 0.00374243 0)
(0.108929 0.00400381 0)
(0.108722 0.00425178 0)
(0.108505 0.00448563 0)
(0.108281 0.00470477 0)
(0.108051 0.00490875 0)
(0.107814 0.00509723 0)
(0.107573 0.00527 0)
(0.107328 0.00542699 0)
(0.107081 0.00556822 0)
(0.110674 -0.000825974 0)
(0.110708 -0.000461915 0)
(0.110717 -9.69887e-05 0)
(0.110708 0.000268059 0)
(0.11068 0.000632168 0)
(0.110631 0.000993976 0)
(0.110563 0.00135214 0)
(0.110476 0.0017054 0)
(0.11037 0.0020525 0)
(0.110246 0.00239223 0)
(0.110105 0.00272341 0)
(0.109949 0.0030449 0)
(0.109777 0.00335558 0)
(0.109591 0.0036544 0)
(0.109392 0.00394037 0)
(0.109181 0.00421259 0)
(0.10896 0.00447023 0)
(0.10873 0.00471262 0)
(0.108491 0.00493916 0)
(0.108246 0.00514945 0)
(0.107994 0.00534317 0)
(0.107738 0.00552019 0)
(0.107478 0.00568047 0)
(0.107216 0.00582411 0)
(0.111047 -0.00086992 0)
(0.111082 -0.000484799 0)
(0.111092 -9.8807e-05 0)
(0.111082 0.00028724 0)
(0.111052 0.000672176 0)
(0.110999 0.0010545 0)
(0.110926 0.00143274 0)
(0.110832 0.00180548 0)
(0.110718 0.00217138 0)
(0.110586 0.00252911 0)
(0.110435 0.00287737 0)
(0.110266 0.00321493 0)
(0.110082 0.00354061 0)
(0.109883 0.00385327 0)
(0.109671 0.00415189 0)
(0.109446 0.00443551 0)
(0.109209 0.00470332 0)
(0.108964 0.00495461 0)
(0.108709 0.00518884 0)
(0.108448 0.0054056 0)
(0.10818 0.00560466 0)
(0.107908 0.00578592 0)
(0.107632 0.0059494 0)
(0.107353 0.00609526 0)
(0.111441 -0.000916944 0)
(0.111479 -0.000509183 0)
(0.111488 -0.000100555 0)
(0.111478 0.000308048 0)
(0.111445 0.000715342 0)
(0.111389 0.00111967 0)
(0.11131 0.00151942 0)
(0.111209 0.00191304 0)
(0.111086 0.00229905 0)
(0.110944 0.00267599 0)
(0.110782 0.00304247 0)
(0.110601 0.00339715 0)
(0.110404 0.00373877 0)
(0.110191 0.00406611 0)
(0.109963 0.00437811 0)
(0.109722 0.00467377 0)
(0.10947 0.00495225 0)
(0.109207 0.00521286 0)
(0.108936 0.00545506 0)
(0.108657 0.0056785 0)
(0.108372 0.00588297 0)
(0.108082 0.00606844 0)
(0.107789 0.006235 0)
(0.107493 0.00638288 0)
(0.111858 -0.00096732 0)
(0.111899 -0.000535195 0)
(0.111909 -0.000102215 0)
(0.111897 0.00033064 0)
(0.111861 0.000761961 0)
(0.111801 0.00118993 0)
(0.111715 0.00161275 0)
(0.111607 0.00202874 0)
(0.111475 0.00243627 0)
(0.111322 0.00283375 0)
(0.111148 0.00321969 0)
(0.110954 0.00359262 0)
(0.110742 0.00395118 0)
(0.110514 0.00429412 0)
(0.11027 0.00462028 0)
(0.110012 0.00492865 0)
(0.109742 0.00521835 0)
(0.109461 0.00548871 0)
(0.109171 0.0057392 0)
(0.108874 0.0059695 0)
(0.10857 0.00617946 0)
(0.108261 0.0063691 0)
(0.107949 0.0065386 0)
(0.107635 0.00668825 0)
(0.112301 -0.00102134 0)
(0.112344 -0.000562961 0)
(0.112354 -0.000103754 0)
(0.112341 0.000355209 0)
(0.112303 0.000812378 0)
(0.112237 0.00126575 0)
(0.112145 0.00171335 0)
(0.112028 0.00215333 0)
(0.111886 0.00258392 0)
(0.111721 0.00300339 0)
(0.111534 0.0034101 0)
(0.111326 0.0038025 0)
(0.111099 0.00417911 0)
(0.110853 0.00453861 0)
(0.110592 0.00487978 0)
(0.110315 0.00520157 0)
(0.110026 0.00550308 0)
(0.109726 0.00578363 0)
(0.109416 0.00604272 0)
(0.109098 0.00628007 0)
(0.108773 0.00649558 0)
(0.108444 0.00668933 0)
(0.108112 0.00686158 0)
(0.107777 0.0070127 0)
(0.11277 -0.00107932 0)
(0.112817 -0.000592607 0)
(0.112827 -0.000105113 0)
(0.112813 0.000381989 0)
(0.112771 0.000866998 0)
(0.1127 0.0013477 0)
(0.1126 0.00182194 0)
(0.112474 0.00228769 0)
(0.112321 0.00274301 0)
(0.112143 0.00318602 0)
(0.111942 0.00361494 0)
(0.111718 0.0040281 0)
(0.111473 0.00442395 0)
(0.11121 0.00480104 0)
(0.110929 0.00515812 0)
(0.110632 0.00549408 0)
(0.110322 0.00580801 0)
(0.110001 0.00609922 0)
(0.109669 0.00636723 0)
(0.109329 0.0066118 0)
(0.108983 0.00683289 0)
(0.108631 0.00703066 0)
(0.108277 0.00720542 0)
(0.107921 0.00735766 0)
(0.113269 -0.00114157 0)
(0.11332 -0.000624248 0)
(0.113329 -0.000106206 0)
(0.113314 0.000411265 0)
(0.113268 0.000926294 0)
(0.113191 0.00143645 0)
(0.113083 0.00193935 0)
(0.112946 0.00243279 0)
(0.112781 0.00291465 0)
(0.112589 0.00338288 0)
(0.112372 0.00383556 0)
(0.112131 0.0042709 0)
(0.111867 0.00468723 0)
(0.111584 0.00508303 0)
(0.111282 0.00545696 0)
(0.110964 0.00580788 0)
(0.110631 0.00613485 0)
(0.110286 0.0064372 0)
(0.109931 0.00671445 0)
(0.109567 0.0069664 0)
(0.109197 0.00719307 0)
(0.108822 0.0073947 0)
(0.108445 0.0075717 0)
(0.108066 0.00772462 0)
(0.1138 -0.00120845 0)
(0.113854 -0.000657993 0)
(0.113863 -0.000106914 0)
(0.113846 0.000443372 0)
(0.113796 0.000990813 0)
(0.113712 0.00153273 0)
(0.113595 0.00206651 0)
(0.113447 0.00258974 0)
(0.113268 0.00310009 0)
(0.113061 0.00359537 0)
(0.112826 0.00407349 0)
(0.112566 0.00453252 0)
(0.112282 0.00497068 0)
(0.111977 0.00538636 0)
(0.111652 0.00577814 0)
(0.11131 0.00614484 0)
(0.110953 0.00648551 0)
(0.110583 0.00679945 0)
(0.110202 0.00708624 0)
(0.109813 0.00734569 0)
(0.109417 0.00757791 0)
(0.109017 0.0077832 0)
(0.108614 0.00796207 0)
(0.10821 0.00811518 0)
(0.114364 -0.0012803 0)
(0.114422 -0.000693934 0)
(0.114432 -0.000107079 0)
(0.114412 0.000478715 0)
(0.114357 0.00106119 0)
(0.114265 0.0016374 0)
(0.114138 0.00220448 0)
(0.113977 0.00275978 0)
(0.113784 0.00330077 0)
(0.113559 0.00382506 0)
(0.113305 0.00433042 0)
(0.113024 0.00481475 0)
(0.112718 0.00527618 0)
(0.112389 0.00571298 0)
(0.11204 0.00612367 0)
(0.111672 0.00650701 0)
(0.111288 0.00686203 0)
(0.11089 0.00718804 0)
(0.110482 0.00748463 0)
(0.110065 0.00775168 0)
(0.109641 0.00798934 0)
(0.109213 0.00819801 0)
(0.108783 0.00837831 0)
(0.108353 0.00853101 0)
(0.114966 -0.0013575 0)
(0.115028 -0.000732138 0)
(0.115036 -0.000106468 0)
(0.115014 0.000517798 0)
(0.114954 0.0011382 0)
(0.114854 0.00175148 0)
(0.114715 0.0023545 0)
(0.11454 0.00294435 0)
(0.11433 0.0035183 0)
(0.114087 0.00407374 0)
(0.113812 0.00460826 0)
(0.113508 0.00511964 0)
(0.113177 0.00560585 0)
(0.112822 0.0060651 0)
(0.112445 0.00649577 0)
(0.112049 0.00689663 0)
(0.111636 0.00726667 0)
(0.111209 0.00760519 0)
(0.110771 0.00791181 0)
(0.110323 0.00818648 0)
(0.10987 0.00842942 0)
(0.109412 0.00864112 0)
(0.108953 0.0088223 0)
(0.108494 0.00897389 0)
(0.115607 -0.00144036 0)
(0.115674 -0.000772585 0)
(0.115681 -0.000104792 0)
(0.115656 0.000561224 0)
(0.115589 0.00122272 0)
(0.115479 0.00187612 0)
(0.115328 0.00251797 0)
(0.115137 0.00314509 0)
(0.114909 0.00375451 0)
(0.114644 0.0043434 0)
(0.114346 0.00490917 0)
(0.114017 0.00544944 0)
(0.113659 0.00596205 0)
(0.113276 0.00644509 0)
(0.112869 0.00689697 0)
(0.112442 0.00731619 0)
(0.111997 0.00770188 0)
(0.111538 0.00805333 0)
(0.111067 0.00837018 0)
(0.110587 0.00865243 0)
(0.110102 0.00890038 0)
(0.109612 0.00911464 0)
(0.109122 0.00929606 0)
(0.108633 0.0094457 0)
(0.113751 0.00685567 0)
(0.113311 0.00732979 0)
(0.11285 0.0077684 0)
(0.112371 0.00817037 0)
(0.111877 0.00853511 0)
(0.111371 0.0088623 0)
(0.110856 0.00915199 0)
(0.110336 0.0094046 0)
(0.109812 0.00962084 0)
(0.109288 0.00980171 0)
(0.108767 0.00994841 0)
(0.108104 -0.00217872 -2.3175e-25)
(0.1082 -0.00196456 -3.28088e-25)
(0.108287 -0.0017452 -6.54368e-25)
(0.108364 -0.00152121 1.39192e-24)
(0.108431 -0.00129319 -1.57576e-24)
(0.108487 -0.00106175 -5.33931e-24)
(0.108533 -0.000827449 8.86533e-25)
(0.108317 -0.00228145 -2.73692e-25)
(0.10842 -0.0020574 -7.48038e-25)
(0.108513 -0.00182793 -2.26319e-24)
(0.108597 -0.00159368 -7.47849e-25)
(0.10867 -0.00135526 1.66238e-24)
(0.108732 -0.00111335 2.63614e-24)
(0.108784 -0.000868451 9.72802e-24)
(0.10854 -0.0023904 -5.04928e-26)
(0.10865 -0.00215586 -6.29484e-25)
(0.10875 -0.0019157 2.90955e-24)
(0.108841 -0.00167055 -9.72884e-26)
(0.10892 -0.00142109 8.28191e-24)
(0.108989 -0.001168 1.02876e-24)
(0.109048 -0.000911706 -8.75589e-24)
(0.108774 -0.00250602 3.73412e-25)
(0.108891 -0.00226041 2.72745e-25)
(0.108999 -0.00200893 -7.82638e-24)
(0.109097 -0.00175226 9.57844e-25)
(0.109184 -0.00149108 -1.7691e-23)
(0.10926 -0.00122609 1.88205e-23)
(0.109327 -0.000957601 1.22962e-24)
(0.109018 -0.00262883 4.25685e-25)
(0.109144 -0.00237149 -4.25328e-25)
(0.10926 -0.00210802 1.74238e-23)
(0.109365 -0.00183914 1.05565e-25)
(0.10946 -0.00156554 8.14401e-24)
(0.109545 -0.00128791 -1.87225e-23)
(0.10962 -0.00100641 2.2171e-23)
(0.109275 -0.00275939 -4.8077e-25)
(0.109409 -0.00248962 -6.0009e-25)
(0.109534 -0.00221345 -8.74323e-24)
(0.109648 -0.00193162 2.08994e-23)
(0.109752 -0.00164485 1.29872e-24)
(0.109844 -0.00135378 2.28132e-23)
(0.109929 -0.0010584 -2.20959e-23)
(0.109543 -0.00289833 -1.61146e-24)
(0.109687 -0.00261538 -1.74059e-24)
(0.109821 -0.00232574 -1.1991e-25)
(0.109945 -0.00203017 -4.13958e-23)
(0.110058 -0.00172941 -1.43164e-24)
(0.110161 -0.00142407 -5.26264e-23)
(0.110255 -0.00111386 -5.48212e-23)
(0.109825 -0.00304633 1.54676e-24)
(0.109979 -0.00274939 6.00134e-25)
(0.110124 -0.00244545 1.45485e-24)
(0.110258 -0.00213531 2.32592e-23)
(0.110381 -0.00181969 1.14834e-25)
(0.110494 -0.00149916 8.14241e-23)
(0.1106 -0.00117311 5.83985e-23)
(0.110121 -0.00320415 6.65129e-25)
(0.110286 -0.00289236 9.63386e-24)
(0.110442 -0.00257323 2.71784e-23)
(0.110587 -0.0022476 -1.72264e-24)
(0.110722 -0.00191619 1.72239e-24)
(0.110846 -0.00157949 -5.83116e-23)
(0.110964 -0.00123651 0)
(0.110431 -0.00337263 0)
(0.110608 -0.00304503 -1.33591e-23)
(0.110776 -0.00270976 -2.58258e-23)
(0.110934 -0.00236766 3.39958e-23)
(0.111081 -0.00201945 -3.88954e-24)
(0.111217 -0.00166553 -6.92323e-23)
(0.111349 -0.00130442 7.51382e-23)
(0.110757 -0.00355262 8.06618e-25)
(0.110948 -0.00320822 -1.49649e-23)
(0.111129 -0.00285579 0)
(0.1113 -0.00249617 -3.03579e-23)
(0.11146 -0.00213008 -7.07303e-23)
(0.11161 -0.00175779 -8.20624e-24)
(0.111757 -0.00137727 -1.50163e-22)
(0.1111 -0.00374511 -8.83859e-25)
(0.111305 -0.00338285 1.30991e-23)
(0.1115 -0.00301214 -1.50591e-25)
(0.111686 -0.00263387 -1.45576e-25)
(0.111861 -0.00224873 7.29974e-23)
(0.112025 -0.00185684 1.54228e-22)
(0.112188 -0.00145548 1.68023e-22)
(0.11146 -0.00395122 7.74295e-24)
(0.111681 -0.00356991 0)
(0.111892 -0.00317972 0)
(0.112094 -0.00278157 7.81246e-23)
(0.112285 -0.00237612 -8.07543e-23)
(0.112465 -0.00196329 -1.72594e-22)
(0.112646 -0.00153955 -8.6232e-23)
(0.11184 -0.00417213 -1.72317e-23)
(0.112077 -0.00377051 1.05439e-24)
(0.112306 -0.00335954 4.19924e-23)
(0.112525 -0.00294017 -1.62656e-22)
(0.112733 -0.00251302 8.35235e-23)
(0.112931 -0.00207779 8.27621e-23)
(0.113132 -0.00162998 2.9633e-24)
(0.112239 -0.00440915 9.58068e-24)
(0.112495 -0.00398585 -3.62378e-24)
(0.112743 -0.00355269 -3.70226e-23)
(0.112981 -0.00311065 1.76461e-22)
(0.113208 -0.00266031 0)
(0.113425 -0.00220108 1.00427e-22)
(0.113648 -0.00172734 3.20998e-24)
(0.11266 -0.00466375 8.75431e-24)
(0.112937 -0.00421727 -1.43769e-24)
(0.113205 -0.00376039 -9.02125e-23)
(0.113464 -0.0032941 -1.87997e-22)
(0.113712 -0.00281892 1.7419e-25)
(0.11395 -0.00233395 1.17141e-22)
(0.114196 -0.00183222 2.36429e-22)
(0.113105 -0.00493753 -8.63285e-24)
(0.113404 -0.00446626 4.54995e-23)
(0.113694 -0.00398398 1.96497e-22)
(0.113975 -0.00349171 9.61662e-23)
(0.114246 -0.00298991 1.14351e-22)
(0.114508 -0.00247728 -4.70727e-22)
(0.11478 -0.00194526 -4.88993e-22)
(0.113574 -0.00523227 -1.46512e-24)
(0.113897 -0.00473444 -9.92057e-23)
(0.114212 -0.00422496 -1.00678e-22)
(0.114518 -0.00370481 -2.02561e-25)
(0.114814 -0.00317441 -2.34408e-22)
(0.115101 -0.00263196 2.38805e-22)
(0.115402 -0.00206713 2.6044e-22)
(0.11407 -0.00554992 1.58682e-24)
(0.114419 -0.00502362 4.56708e-23)
(0.114761 -0.00448492 3.41973e-24)
(0.115095 -0.00393482 0)
(0.115418 -0.00337366 1.27793e-22)
(0.115733 -0.00279904 2.74954e-22)
(0.116066 -0.00219852 4.40261e-24)
(0.114594 -0.00589266 -1.71747e-24)
(0.114973 -0.0053358 6.1101e-23)
(0.1072 -0.00349281 -3.19055e-25)
(0.10735 -0.00332739 -3.93658e-25)
(0.107494 -0.00315412 -1.17579e-25)
(0.107631 -0.00297317 -5.79251e-26)
(0.107761 -0.00278478 2.20445e-25)
(0.107884 -0.00258929 3.65677e-25)
(0.107998 -0.00238712 -1.26727e-25)
(0.107369 -0.00365702 2.0629e-24)
(0.107525 -0.00348368 1.17934e-24)
(0.107675 -0.00330224 -1.62828e-25)
(0.107818 -0.00311283 -1.03153e-25)
(0.107955 -0.00291566 6.67057e-25)
(0.108084 -0.00271108 4.0452e-25)
(0.108205 -0.00249952 2.1831e-25)
(0.107545 -0.00383107 -2.32817e-24)
(0.107707 -0.00364942 -6.79152e-26)
(0.107864 -0.0034594 2.79586e-26)
(0.108014 -0.00326097 1.23627e-25)
(0.108157 -0.00305444 -6.90675e-25)
(0.108293 -0.0028402 8.14248e-26)
(0.108421 -0.0026187 -4.29121e-25)
(0.107727 -0.00401563 -1.27685e-25)
(0.107897 -0.00382514 4.9969e-25)
(0.10806 -0.00362594 1.13845e-24)
(0.108218 -0.003418 2.63198e-25)
(0.108369 -0.00320159 3.10323e-24)
(0.108512 -0.00297715 -1.46221e-24)
(0.108647 -0.00274512 -3.66399e-25)
(0.107917 -0.0042115 1.49594e-24)
(0.108094 -0.00401159 -4.28528e-25)
(0.108265 -0.00380259 -1.09431e-24)
(0.10843 -0.00358461 -1.3274e-25)
(0.108589 -0.00335779 -6.33135e-24)
(0.10874 -0.00312254 -3.0416e-25)
(0.108884 -0.00287938 9.26461e-25)
(0.108114 -0.0044196 -1.42426e-24)
(0.1083 -0.0042097 -2.16355e-24)
(0.108478 -0.00399036 3.02087e-25)
(0.108652 -0.00376165 -6.56797e-24)
(0.108819 -0.00352374 3.83849e-24)
(0.108979 -0.00327703 -3.00836e-24)
(0.109131 -0.00302206 -3.54754e-25)
(0.108319 -0.00464086 2.1332e-24)
(0.108513 -0.00442035 5.55838e-24)
(0.108701 -0.00419002 -3.92833e-25)
(0.108883 -0.00394991 1.58731e-23)
(0.10906 -0.0037002 1.40385e-25)
(0.109229 -0.00344134 1.69598e-24)
(0.10939 -0.00317386 2.29018e-24)
(0.108531 -0.00487634 2.85354e-24)
(0.108736 -0.00464453 -1.39474e-23)
(0.108932 -0.00440251 -1.4991e-25)
(0.109124 -0.0041503 -8.38546e-24)
(0.109311 -0.00388806 6.38255e-25)
(0.10949 -0.00361627 4.63576e-25)
(0.109662 -0.00333551 -2.34317e-24)
(0.108752 -0.00512715 2.82125e-24)
(0.108967 -0.00488331 9.92393e-24)
(0.109173 -0.00462885 5.90049e-25)
(0.109376 -0.00436377 -5.90205e-25)
(0.109573 -0.00408824 -1.31886e-23)
(0.109764 -0.00380272 -9.69234e-24)
(0.109946 -0.00350783 5.22773e-25)
(0.108981 -0.00539454 -7.19392e-24)
(0.109207 -0.00513788 1.63783e-23)
(0.109425 -0.00487017 -1.23255e-24)
(0.109639 -0.00459141 -1.18271e-23)
(0.109848 -0.00430175 1.42304e-23)
(0.11005 -0.0040017 7.24541e-24)
(0.110245 -0.00369176 0)
(0.10922 -0.00567986 1.42013e-23)
(0.109458 -0.00540952 2.9457e-24)
(0.109687 -0.00512769 2.51245e-23)
(0.109913 -0.00483435 1.33769e-23)
(0.110135 -0.00452964 0)
(0.11035 -0.00421407 9.68943e-24)
(0.110558 -0.00388815 6.51324e-25)
(0.109467 -0.00598459 -3.03006e-23)
(0.109718 -0.00569965 -4.35316e-23)
(0.10996 -0.00540276 -2.42033e-23)
(0.1102 -0.00509388 3.4834e-23)
(0.110435 -0.0047731 1.72872e-25)
(0.110664 -0.00444094 -1.08796e-23)
(0.110886 -0.00409805 -7.21333e-25)
(0.109723 -0.00631036 1.71556e-23)
(0.109989 -0.00600983 4.95971e-23)
(0.110245 -0.00569687 3.39325e-23)
(0.110499 -0.00537141 -7.3613e-23)
(0.11075 -0.00503352 0)
(0.110994 -0.00468374 0)
(0.111231 -0.00432275 -7.04412e-24)
(0.109989 -0.00665895 8.12416e-25)
(0.110271 -0.00634176 -2.90038e-23)
(0.110542 -0.00601164 -3.32626e-23)
(0.110812 -0.00566849 8.23041e-23)
(0.111079 -0.00531237 -2.34688e-23)
(0.11134 -0.0049438 8.75272e-25)
(0.111593 -0.00456349 1.38722e-23)
(0.110265 -0.00703233 9.41264e-25)
(0.110564 -0.00669732 -3.65662e-23)
(0.110852 -0.00634885 0)
(0.11114 -0.00598682 -9.19352e-23)
(0.111424 -0.00561122 2.65512e-23)
(0.111703 -0.00522261 -2.68371e-24)
(0.111975 -0.00482168 -6.74313e-24)
(0.110551 -0.00743267 -6.57192e-23)
(0.11087 -0.00707858 -4.61804e-23)
(0.111175 -0.0067105 -2.11066e-25)
(0.111482 -0.00632828 1.03462e-22)
(0.111786 -0.00593187 6.2199e-23)
(0.112084 -0.00552182 3.26233e-23)
(0.112376 -0.00509887 -1.02344e-23)
(0.110848 -0.00786233 1.41993e-22)
(0.111187 -0.00748783 1.69965e-22)
(0.111512 -0.00709876 0)
(0.11184 -0.00669494 -5.54355e-23)
(0.112165 -0.00627627 -1.24515e-22)
(0.112485 -0.00584332 -7.11136e-23)
(0.112798 -0.00539682 1.03155e-23)
(0.111154 -0.00832397 -7.36928e-23)
(0.111517 -0.0079275 -9.19689e-23)
(0.111864 -0.007516 5.95519e-23)
(0.112214 -0.00708909 2.34295e-25)
(0.112563 -0.00664661 6.63015e-23)
(0.112906 -0.00618911 3.54772e-23)
(0.113243 -0.00571745 -1.245e-24)
(0.111472 -0.00882043 1.54613e-24)
(0.11186 -0.00840055 -1.15622e-22)
(0.112231 -0.00796486 -5.59737e-23)
(0.112606 -0.00751324 0)
(0.11298 -0.00704526 2.48179e-24)
(0.113349 -0.00656155 -3.82881e-24)
(0.113713 -0.00606278 1.35392e-24)
(0.113816 -0.00696303 1.47355e-24)
(0.114208 -0.0064354 -1.47059e-24)
(0.101591 -0.00433937 0)
(0.101701 -0.004401 0)
(0.101815 -0.00446094 0)
(0.101933 -0.00451885 0)
(0.102056 -0.00457443 0)
(0.102184 -0.00462738 0)
(0.102316 -0.00467739 0)
(0.102453 -0.00472415 0)
(0.102595 -0.00476731 0)
(0.102741 -0.00480653 0)
(0.102892 -0.00484146 0)
(0.103047 -0.00487172 0)
(0.103206 -0.00489696 0)
(0.10337 -0.00491679 0)
(0.103537 -0.00493084 0)
(0.103709 -0.00493871 0)
(0.103884 -0.00494003 0)
(0.104062 -0.00493441 0)
(0.104244 -0.0049215 0)
(0.104428 -0.00490091 0)
(0.104615 -0.00487229 0)
(0.104804 -0.00483532 0)
(0.104994 -0.00478967 0)
(0.105185 -0.00473505 0)
(0.105378 -0.00467118 0)
(0.10557 -0.00459784 0)
(0.105762 -0.00451482 0)
(0.105952 -0.00442195 0)
(0.106142 -0.00431911 0)
(0.106329 -0.0042062 0)
(0.106513 -0.0040832 0)
(0.106693 -0.00395009 0)
(0.106869 -0.00380687 0)
(0.10704 -0.00365339 0)
(0.101526 -0.00444738 0)
(0.101638 -0.00451361 0)
(0.101753 -0.00457819 0)
(0.101874 -0.00464082 0)
(0.102 -0.00470115 0)
(0.10213 -0.00475889 0)
(0.102266 -0.0048137 0)
(0.102406 -0.00486524 0)
(0.102552 -0.00491316 0)
(0.102702 -0.0049571 0)
(0.102857 -0.00499668 0)
(0.103017 -0.0050315 0)
(0.103182 -0.00506118 0)
(0.103351 -0.00508531 0)
(0.103525 -0.00510347 0)
(0.103703 -0.00511526 0)
(0.103885 -0.00512026 0)
(0.10407 -0.00511806 0)
(0.10426 -0.00510824 0)
(0.104452 -0.00509041 0)
(0.104647 -0.00506419 0)
(0.104844 -0.00502918 0)
(0.105044 -0.00498505 0)
(0.105245 -0.00493146 0)
(0.105446 -0.0048681 0)
(0.105649 -0.00479471 0)
(0.10585 -0.00471105 0)
(0.106051 -0.00461692 0)
(0.106251 -0.00451217 0)
(0.106448 -0.00439669 0)
(0.106643 -0.00427041 0)
(0.106833 -0.00413329 0)
(0.10702 -0.00398524 0)
(0.107201 -0.00382576 0)
(0.101457 -0.00455694 0)
(0.10157 -0.00462801 0)
(0.101687 -0.00469753 0)
(0.10181 -0.00476515 0)
(0.101938 -0.00483054 0)
(0.102072 -0.00489338 0)
(0.10221 -0.00495331 0)
(0.102354 -0.00500999 0)
(0.102504 -0.00506304 0)
(0.102658 -0.00511207 0)
(0.102818 -0.00515668 0)
(0.102983 -0.00519645 0)
(0.103153 -0.00523097 0)
(0.103328 -0.00525979 0)
(0.103508 -0.00528249 0)
(0.103693 -0.00529861 0)
(0.103882 -0.00530769 0)
(0.104075 -0.0053093 0)
(0.104272 -0.00530299 0)
(0.104473 -0.00528831 0)
(0.104677 -0.00526484 0)
(0.104883 -0.00523216 0)
(0.105092 -0.00518987 0)
(0.105303 -0.00513761 0)
(0.105515 -0.00507503 0)
(0.105728 -0.00500183 0)
(0.10594 -0.00491772 0)
(0.106152 -0.00482248 0)
(0.106362 -0.00471592 0)
(0.106571 -0.00459791 0)
(0.106776 -0.00446835 0)
(0.106978 -0.00432715 0)
(0.107176 -0.00417411 0)
(0.107368 -0.00400835 0)
(0.101383 -0.00466794 0)
(0.101497 -0.00474412 0)
(0.101617 -0.00481885 0)
(0.101741 -0.00489178 0)
(0.101872 -0.00496254 0)
(0.102008 -0.00503081 0)
(0.10215 -0.00509622 0)
(0.102297 -0.0051584 0)
(0.10245 -0.00521696 0)
(0.102609 -0.00527147 0)
(0.102773 -0.00532152 0)
(0.102944 -0.00536667 0)
(0.103119 -0.00540646 0)
(0.1033 -0.00544042 0)
(0.103487 -0.00546809 0)
(0.103678 -0.00548898 0)
(0.103875 -0.00550261 0)
(0.104076 -0.00550848 0)
(0.104281 -0.0055061 0)
(0.104491 -0.005495 0)
(0.104704 -0.00547469 0)
(0.10492 -0.00544472 0)
(0.105139 -0.00540465 0)
(0.10536 -0.00535407 0)
(0.105583 -0.00529257 0)
(0.105807 -0.00521982 0)
(0.10603 -0.00513549 0)
(0.106254 -0.00503932 0)
(0.106476 -0.00493109 0)
(0.106696 -0.00481062 0)
(0.106914 -0.00467779 0)
(0.107128 -0.00453245 0)
(0.107337 -0.00437428 0)
(0.107542 -0.00420198 0)
(0.101303 -0.00478025 0)
(0.101419 -0.00486182 0)
(0.10154 -0.00494206 0)
(0.101667 -0.0050206 0)
(0.1018 -0.00509707 0)
(0.101939 -0.00517113 0)
(0.102083 -0.00524239 0)
(0.102234 -0.00531046 0)
(0.102391 -0.00537492 0)
(0.102554 -0.00543535 0)
(0.102723 -0.00549128 0)
(0.102899 -0.00554225 0)
(0.10308 -0.00558777 0)
(0.103267 -0.00562735 0)
(0.10346 -0.00566048 0)
(0.103659 -0.00568663 0)
(0.103863 -0.00570528 0)
(0.104072 -0.0057159 0)
(0.104287 -0.00571794 0)
(0.104505 -0.00571088 0)
(0.104728 -0.0056942 0)
(0.104954 -0.00566738 0)
(0.105184 -0.00562994 0)
(0.105416 -0.00558141 0)
(0.10565 -0.00552134 0)
(0.105885 -0.00544935 0)
(0.106121 -0.00536507 0)
(0.106357 -0.00526819 0)
(0.106592 -0.00515844 0)
(0.106825 -0.00503562 0)
(0.107055 -0.00489955 0)
(0.107281 -0.00475003 0)
(0.107503 -0.0045866 0)
(0.107721 -0.00440748 0)
(0.101219 -0.00489374 0)
(0.101336 -0.00498098 0)
(0.101458 -0.00506703 0)
(0.101587 -0.00515151 0)
(0.101722 -0.00523404 0)
(0.101863 -0.00531425 0)
(0.102011 -0.00539175 0)
(0.102165 -0.00546613 0)
(0.102326 -0.00553693 0)
(0.102493 -0.00560372 0)
(0.102667 -0.005666 0)
(0.102848 -0.00572328 0)
(0.103035 -0.00577504 0)
(0.103228 -0.00582075 0)
(0.103428 -0.00585985 0)
(0.103634 -0.0058918 0)
(0.103846 -0.00591601 0)
(0.104064 -0.00593189 0)
(0.104287 -0.00593888 0)
(0.104515 -0.00593639 0)
(0.104748 -0.00592383 0)
(0.104985 -0.00590066 0)
(0.105226 -0.00586631 0)
(0.10547 -0.00582026 0)
(0.105716 -0.00576203 0)
(0.105964 -0.00569116 0)
(0.106212 -0.00560723 0)
(0.106461 -0.00550988 0)
(0.106709 -0.00539881 0)
(0.106956 -0.00527377 0)
(0.1072 -0.00513452 0)
(0.10744 -0.0049808 0)
(0.107675 -0.004812 0)
(0.107908 -0.0046258 0)
(0.101128 -0.00500824 0)
(0.101246 -0.00510145 0)
(0.10137 -0.00519362 0)
(0.101501 -0.00528439 0)
(0.101638 -0.00537334 0)
(0.101782 -0.00546009 0)
(0.101932 -0.00554424 0)
(0.10209 -0.00562535 0)
(0.102254 -0.00570296 0)
(0.102426 -0.00577658 0)
(0.102604 -0.00584571 0)
(0.10279 -0.00590982 0)
(0.102983 -0.00596836 0)
(0.103183 -0.00602074 0)
(0.10339 -0.0060664 0)
(0.103603 -0.00610471 0)
(0.103824 -0.00613505 0)
(0.10405 -0.0061568 0)
(0.104283 -0.00616932 0)
(0.104521 -0.00617196 0)
(0.104764 -0.0061641 0)
(0.105012 -0.0061451 0)
(0.105265 -0.00611436 0)
(0.105521 -0.00607129 0)
(0.10578 -0.00601534 0)
(0.106041 -0.00594599 0)
(0.106303 -0.00586278 0)
(0.106566 -0.00576527 0)
(0.106829 -0.00565312 0)
(0.10709 -0.00552601 0)
(0.107348 -0.00538367 0)
(0.107603 -0.00522576 0)
(0.107853 -0.00505148 0)
(0.108101 -0.00485794 0)
(0.101032 -0.00512357 0)
(0.101151 -0.00522305 0)
(0.101276 -0.00532169 0)
(0.101408 -0.00541908 0)
(0.101547 -0.00551483 0)
(0.101693 -0.00560854 0)
(0.101846 -0.00569977 0)
(0.102007 -0.00578807 0)
(0.102175 -0.00587296 0)
(0.102351 -0.00595393 0)
(0.102534 -0.00603045 0)
(0.102726 -0.00610194 0)
(0.102924 -0.00616782 0)
(0.103131 -0.00622748 0)
(0.103345 -0.00628029 0)
(0.103566 -0.00632559 0)
(0.103795 -0.00636271 0)
(0.10403 -0.00639096 0)
(0.104272 -0.00640964 0)
(0.104521 -0.00641805 0)
(0.104776 -0.0064155 0)
(0.105036 -0.00640128 0)
(0.1053 -0.00637473 0)
(0.105569 -0.00633519 0)
(0.105842 -0.00628204 0)
(0.106117 -0.00621468 0)
(0.106394 -0.00613258 0)
(0.106672 -0.00603527 0)
(0.106949 -0.00592231 0)
(0.107226 -0.00579335 0)
(0.1075 -0.00564804 0)
(0.107771 -0.00548597 0)
(0.108037 -0.00530613 0)
(0.108301 -0.00510497 0)
(0.100929 -0.00523953 0)
(0.101049 -0.0053456 0)
(0.101175 -0.00545103 0)
(0.101309 -0.00555543 0)
(0.101449 -0.00565837 0)
(0.101597 -0.00575944 0)
(0.101753 -0.0058582 0)
(0.101917 -0.00595418 0)
(0.102089 -0.00604687 0)
(0.102269 -0.00613572 0)
(0.102457 -0.00622018 0)
(0.102653 -0.00629965 0)
(0.102858 -0.0063735 0)
(0.103071 -0.00644108 0)
(0.103292 -0.00650171 0)
(0.103521 -0.00655468 0)
(0.103759 -0.00659925 0)
(0.104003 -0.0066347 0)
(0.104256 -0.00666024 0)
(0.104515 -0.00667512 0)
(0.104781 -0.00667857 0)
(0.105054 -0.00666981 0)
(0.105331 -0.0066481 0)
(0.105614 -0.0066127 0)
(0.105901 -0.00656292 0)
(0.106191 -0.00649808 0)
(0.106483 -0.00641758 0)
(0.106777 -0.00632087 0)
(0.107071 -0.00620744 0)
(0.107364 -0.00607688 0)
(0.107656 -0.00592877 0)
(0.107943 -0.00576259 0)
(0.108226 -0.00557713 0)
(0.108508 -0.00536808 0)
(0.10082 -0.0053559 0)
(0.10094 -0.00546887 0)
(0.101067 -0.00558144 0)
(0.101202 -0.00569321 0)
(0.101344 -0.00580375 0)
(0.101494 -0.00591264 0)
(0.101652 -0.0060194 0)
(0.101819 -0.00612356 0)
(0.101994 -0.00622458 0)
(0.102178 -0.00632189 0)
(0.102371 -0.0064149 0)
(0.102572 -0.00650298 0)
(0.102783 -0.00658546 0)
(0.103003 -0.00666164 0)
(0.103231 -0.0067308 0)
(0.103469 -0.00679216 0)
(0.103715 -0.00684495 0)
(0.103969 -0.00688835 0)
(0.104232 -0.00692153 0)
(0.104503 -0.00694365 0)
(0.104781 -0.00695385 0)
(0.105066 -0.0069513 0)
(0.105358 -0.00693515 0)
(0.105655 -0.00690459 0)
(0.105957 -0.00685884 0)
(0.106263 -0.00679713 0)
(0.106571 -0.00671877 0)
(0.106882 -0.00662313 0)
(0.107194 -0.00650964 0)
(0.107505 -0.00637779 0)
(0.107814 -0.00622709 0)
(0.10812 -0.0060569 0)
(0.108422 -0.00586577 0)
(0.108722 -0.00564857 0)
(0.100704 -0.00547243 0)
(0.100824 -0.00559261 0)
(0.100951 -0.00571268 0)
(0.101087 -0.00583221 0)
(0.10123 -0.00595078 0)
(0.101382 -0.00606792 0)
(0.101543 -0.00618319 0)
(0.101712 -0.00629605 0)
(0.101891 -0.00640597 0)
(0.102079 -0.00651234 0)
(0.102276 -0.00661454 0)
(0.102483 -0.0067119 0)
(0.102699 -0.00680371 0)
(0.102925 -0.00688924 0)
(0.103161 -0.00696769 0)
(0.103407 -0.00703825 0)
(0.103662 -0.00710006 0)
(0.103927 -0.00715225 0)
(0.104201 -0.0071939 0)
(0.104483 -0.0072241 0)
(0.104774 -0.00724191 0)
(0.105073 -0.00724639 0)
(0.105378 -0.00723662 0)
(0.105691 -0.00721168 0)
(0.106009 -0.00717069 0)
(0.106331 -0.0071128 0)
(0.106658 -0.00703722 0)
(0.106987 -0.00694321 0)