/*--------------------------------*- C++ -*----------------------------------*\
| =========                 |                                                 |
| \\      /  F ield         | OpenFOAM: The Open Source CFD Toolbox           |
|  \\    /   O peration     | Version:  2412                                  |
|   \\  /    A nd           | Website:  www.openfoam.com                      |
|    \\/     M anipulation  |                                                 |
\*---------------------------------------------------------------------------*/
FoamFile
{
    version     2.0;
    format      ascii;
    arch        "LSB;label=32;scalar=64";
    class       volScalarField;
    location    "8.5";
    object      p;
}
// * * * * * * * * * * * * * * * * * * * * * * * * * * * * * * * * * * * * * //

dimensions      [0 2 -2 0 0 0 0];

internalField   nonuniform List<scalar> 
5285
(
-0.000131166
-0.000126462
-0.000121902
-0.000117483
-0.000129953
-0.000125321
-0.000120825
-0.000116463
-0.000112234
-0.000108137
-0.000104168
-0.000100327
-9.661e-05
-9.3015e-05
-8.95392e-05
-8.61796e-05
-8.29334e-05
-7.97974e-05
-7.67684e-05
-7.38431e-05
-7.10185e-05
-6.82912e-05
-6.56578e-05
-6.31151e-05
-6.06599e-05
-5.82889e-05
-5.5999e-05
-5.3787e-05
-5.16499e-05
-4.9585e-05
-4.75894e-05
-4.56604e-05
-4.37955e-05
-4.19923e-05
-4.02484e-05
-3.85618e-05
-3.69304e-05
-3.53521e-05
-3.38252e-05
-3.23479e-05
-3.09187e-05
-2.9536e-05
-2.81984e-05
-2.69046e-05
-2.56533e-05
-2.44435e-05
-2.32737e-05
-2.2144e-05
-0.000128529
-0.00012398
-0.000119559
-0.000115265
-0.000111097
-0.000107054
-0.000103135
-9.93379e-05
-9.56607e-05
-9.21013e-05
-8.86573e-05
-8.53262e-05
-8.21055e-05
-7.89923e-05
-7.59839e-05
-7.30774e-05
-7.02697e-05
-6.75579e-05
-6.49389e-05
-6.24097e-05
-5.99671e-05
-5.76082e-05
-5.533e-05
-5.31294e-05
-5.10037e-05
-4.895e-05
-4.69656e-05
-4.50481e-05
-4.31948e-05
-4.14034e-05
-3.96717e-05
-3.79975e-05
-3.63787e-05
-3.48133e-05
-3.32996e-05
-3.18359e-05
-3.04204e-05
-2.90517e-05
-2.77282e-05
-2.64487e-05
-2.52119e-05
-2.40167e-05
-2.28615e-05
-2.17465e-05
-0.000126904
-0.000122447
-0.00011811
-0.000113892
-0.000109795
-0.000105816
-0.000101955
-9.82107e-05
-9.45814e-05
-9.10654e-05
-8.76608e-05
-8.43654e-05
-8.1177e-05
-7.80932e-05
-7.51116e-05
-7.22296e-05
-6.94444e-05
-6.67534e-05
-6.41537e-05
-6.16425e-05
-5.9217e-05
-5.68742e-05
-5.46114e-05
-5.24258e-05
-5.03147e-05
-4.82753e-05
-4.63051e-05
-4.44015e-05
-4.25623e-05
-4.0785e-05
-3.90675e-05
-3.74075e-05
-3.58031e-05
-3.42524e-05
-3.27534e-05
-3.13045e-05
-2.99041e-05
-2.85505e-05
-2.72423e-05
-2.59782e-05
-2.47568e-05
-2.3577e-05
-2.24373e-05
-2.13377e-05
-0.000125085
-0.000120729
-0.000116485
-0.000112353
-0.000108334
-0.000104428
-0.000100633
-9.69494e-05
-9.33756e-05
-8.99103e-05
-8.65521e-05
-8.32992e-05
-8.01497e-05
-7.71016e-05
-7.41527e-05
-7.13008e-05
-6.85435e-05
-6.58783e-05
-6.33027e-05
-6.08141e-05
-5.84098e-05
-5.60871e-05
-5.38435e-05
-5.16763e-05
-4.9583e-05
-4.75609e-05
-4.56076e-05
-4.37207e-05
-4.1898e-05
-4.0137e-05
-3.84357e-05
-3.67919e-05
-3.52037e-05
-3.36692e-05
-3.21865e-05
-3.07539e-05
-2.93698e-05
-2.80326e-05
-2.67408e-05
-2.5493e-05
-2.4288e-05
-2.31245e-05
-2.20011e-05
-2.09177e-05
-0.000123083
-0.000118835
-0.000114692
-0.000110654
-0.000106721
-0.000102895
-9.91738e-05
-9.55581e-05
-9.20469e-05
-8.86394e-05
-8.53342e-05
-8.21302e-05
-7.90258e-05
-7.60193e-05
-7.31088e-05
-7.02925e-05
-6.75682e-05
-6.49337e-05
-6.23868e-05
-5.9925e-05
-5.7546e-05
-5.52474e-05
-5.30266e-05
-5.08812e-05
-4.88088e-05
-4.6807e-05
-4.48734e-05
-4.30058e-05
-4.12019e-05
-3.94594e-05
-3.77764e-05
-3.61508e-05
-3.45806e-05
-3.30639e-05
-3.15989e-05
-3.0184e-05
-2.88175e-05
-2.74979e-05
-2.62236e-05
-2.49933e-05
-2.38056e-05
-2.26594e-05
-2.15531e-05
-2.04865e-05
-0.000120906
-0.000116774
-0.000112739
-0.000108802
-0.000104962
-0.000101223
-9.75823e-05
-9.40413e-05
-9.05994e-05
-8.72559e-05
-8.40102e-05
-8.08611e-05
-7.78076e-05
-7.48483e-05
-7.19817e-05
-6.92061e-05
-6.65197e-05
-6.39206e-05
-6.14068e-05
-5.89761e-05
-5.66265e-05
-5.43555e-05
-5.21611e-05
-5.00409e-05
-4.79925e-05
-4.60139e-05
-4.41028e-05
-4.22569e-05
-4.04742e-05
-3.87525e-05
-3.70898e-05
-3.54842e-05
-3.39337e-05
-3.24365e-05
-3.09909e-05
-2.95951e-05
-2.82475e-05
-2.69466e-05
-2.5691e-05
-2.44791e-05
-2.33097e-05
-2.21815e-05
-2.10932e-05
-2.00444e-05
-0.000118565
-0.000114555
-0.000110634
-0.000106803
-0.000103064
-9.94174e-05
-9.58639e-05
-9.24038e-05
-8.90372e-05
-8.57638e-05
-8.25832e-05
-7.94948e-05
-7.64977e-05
-7.35909e-05
-7.07732e-05
-6.80432e-05
-6.53995e-05
-6.28402e-05
-6.03638e-05
-5.79684e-05
-5.56519e-05
-5.34123e-05
-5.12476e-05
-4.91557e-05
-4.71346e-05
-4.5182e-05
-4.32959e-05
-4.14743e-05
-3.97151e-05
-3.80164e-05
-3.6376e-05
-3.47923e-05
-3.32633e-05
-3.17872e-05
-3.03624e-05
-2.89871e-05
-2.76597e-05
-2.63788e-05
-2.51429e-05
-2.39505e-05
-2.28004e-05
-2.16912e-05
-2.06216e-05
-1.95912e-05
-0.000116069
-0.000112187
-0.000108385
-0.000104667
-0.000101033
-9.74852e-05
-9.40242e-05
-9.06507e-05
-8.73649e-05
-8.41671e-05
-8.10571e-05
-7.80346e-05
-7.5099e-05
-7.22497e-05
-6.94857e-05
-6.68059e-05
-6.42092e-05
-6.16942e-05
-5.92592e-05
-5.69028e-05
-5.46231e-05
-5.24185e-05
-5.02869e-05
-4.82265e-05
-4.62354e-05
-4.43117e-05
-4.24533e-05
-4.06584e-05
-3.8925e-05
-3.72513e-05
-3.56353e-05
-3.40754e-05
-3.25696e-05
-3.11162e-05
-2.97136e-05
-2.83602e-05
-2.70544e-05
-2.57947e-05
-2.45796e-05
-2.34077e-05
-2.22777e-05
-2.11885e-05
-2.01384e-05
-1.91273e-05
-0.000113429
-0.000109678
-0.000106001
-0.0001024
-9.88764e-05
-9.54324e-05
-9.2069e-05
-8.8787e-05
-8.55872e-05
-8.247e-05
-7.94355e-05
-7.64837e-05
-7.36144e-05
-7.08272e-05
-6.81214e-05
-6.54963e-05
-6.29508e-05
-6.0484e-05
-5.80944e-05
-5.57807e-05
-5.35415e-05
-5.1375e-05
-4.92797e-05
-4.72539e-05
-4.52957e-05
-4.34035e-05
-4.15754e-05
-3.98095e-05
-3.81042e-05
-3.64576e-05
-3.4868e-05
-3.33336e-05
-3.18527e-05
-3.04237e-05
-2.90449e-05
-2.77147e-05
-2.64317e-05
-2.51943e-05
-2.40011e-05
-2.28508e-05
-2.1742e-05
-2.06735e-05
-1.96439e-05
-1.86527e-05
-0.000110653
-0.000107038
-0.000103489
-0.00010001
-9.66011e-05
-9.32654e-05
-9.00041e-05
-8.68183e-05
-8.3709e-05
-8.06768e-05
-7.77224e-05
-7.48458e-05
-7.20472e-05
-6.93264e-05
-6.6683e-05
-6.41166e-05
-6.16263e-05
-5.92114e-05
-5.68709e-05
-5.46035e-05
-5.2408e-05
-5.0283e-05
-4.82271e-05
-4.62387e-05
-4.43163e-05
-4.24581e-05
-4.06627e-05
-3.89283e-05
-3.72532e-05
-3.56358e-05
-3.40744e-05
-3.25673e-05
-3.1113e-05
-2.97098e-05
-2.83563e-05
-2.70507e-05
-2.57917e-05
-2.45779e-05
-2.34077e-05
-2.228e-05
-2.11932e-05
-2.01464e-05
-1.9138e-05
-1.81676e-05
-0.000107752
-0.000104276
-0.000100859
-9.75044e-05
-9.42143e-05
-9.09907e-05
-8.78354e-05
-8.47498e-05
-8.17351e-05
-7.87922e-05
-7.59218e-05
-7.31245e-05
-7.04006e-05
-6.77502e-05
-6.51731e-05
-6.26691e-05
-6.02378e-05
-5.78785e-05
-5.55904e-05
-5.33727e-05
-5.12241e-05
-4.91437e-05
-4.71301e-05
-4.51819e-05
-4.32978e-05
-4.14763e-05
-3.97159e-05
-3.80151e-05
-3.63724e-05
-3.47862e-05
-3.32548e-05
-3.17769e-05
-3.03508e-05
-2.89751e-05
-2.76481e-05
-2.63685e-05
-2.51348e-05
-2.39457e-05
-2.27996e-05
-2.16954e-05
-2.06317e-05
-1.96074e-05
-1.8621e-05
-1.76721e-05
-0.000104736
-0.0001014
-9.81179e-05
-9.48915e-05
-9.1723e-05
-8.86148e-05
-8.55691e-05
-8.25872e-05
-7.96707e-05
-7.68206e-05
-7.40381e-05
-7.13237e-05
-6.86782e-05
-6.61017e-05
-6.35945e-05
-6.11566e-05
-5.87876e-05
-5.64872e-05
-5.42548e-05
-5.20898e-05
-4.99913e-05
-4.79583e-05
-4.59897e-05
-4.40845e-05
-4.22412e-05
-4.04588e-05
-3.87358e-05
-3.70708e-05
-3.54625e-05
-3.39093e-05
-3.24099e-05
-3.09628e-05
-2.95665e-05
-2.82197e-05
-2.69208e-05
-2.56684e-05
-2.44612e-05
-2.32979e-05
-2.2177e-05
-2.10973e-05
-2.00576e-05
-1.90566e-05
-1.8093e-05
-1.71664e-05
-0.000101612
-9.84199e-05
-9.52745e-05
-9.21785e-05
-8.91342e-05
-8.61443e-05
-8.3211e-05
-8.0336e-05
-7.75208e-05
-7.47669e-05
-7.20754e-05
-6.94473e-05
-6.68834e-05
-6.43842e-05
-6.19502e-05
-5.95814e-05
-5.7278e-05
-5.50396e-05
-5.2866e-05
-5.07567e-05
-4.8711e-05
-4.67282e-05
-4.48073e-05
-4.29475e-05
-4.11476e-05
-3.94065e-05
-3.7723e-05
-3.60959e-05
-3.4524e-05
-3.30058e-05
-3.15401e-05
-3.01254e-05
-2.87605e-05
-2.7444e-05
-2.61745e-05
-2.49507e-05
-2.37713e-05
-2.26348e-05
-2.15401e-05
-2.0486e-05
-1.9471e-05
-1.84943e-05
-1.75543e-05
-1.66506e-05
-9.83918e-05
-9.53437e-05
-9.23367e-05
-8.9373e-05
-8.64551e-05
-8.35857e-05
-8.07673e-05
-7.80017e-05
-7.52905e-05
-7.26355e-05
-7.0038e-05
-6.74991e-05
-6.50199e-05
-6.2601e-05
-6.02431e-05
-5.79465e-05
-5.57114e-05
-5.3538e-05
-5.14259e-05
-4.93751e-05
-4.73849e-05
-4.54548e-05
-4.35842e-05
-4.17722e-05
-4.00179e-05
-3.83203e-05
-3.66785e-05
-3.50913e-05
-3.35576e-05
-3.20762e-05
-3.06458e-05
-2.92653e-05
-2.79333e-05
-2.66485e-05
-2.54098e-05
-2.42157e-05
-2.30652e-05
-2.19567e-05
-2.08893e-05
-1.98615e-05
-1.88724e-05
-1.79206e-05
-1.7005e-05
-1.6125e-05
-9.50828e-05
-9.218e-05
-8.93123e-05
-8.64823e-05
-8.36923e-05
-8.09454e-05
-7.82439e-05
-7.55898e-05
-7.29851e-05
-7.04314e-05
-6.79304e-05
-6.54833e-05
-6.30913e-05
-6.07553e-05
-5.84762e-05
-5.62545e-05
-5.40905e-05
-5.19846e-05
-4.99367e-05
-4.79468e-05
-4.60146e-05
-4.41398e-05
-4.23217e-05
-4.05597e-05
-3.88532e-05
-3.72013e-05
-3.56032e-05
-3.40578e-05
-3.25641e-05
-3.11212e-05
-2.97278e-05
-2.83829e-05
-2.70852e-05
-2.58336e-05
-2.46269e-05
-2.34639e-05
-2.23433e-05
-2.1264e-05
-2.02247e-05
-1.92244e-05
-1.82618e-05
-1.73359e-05
-1.64454e-05
-1.55898e-05
-9.16939e-05
-8.89367e-05
-8.62091e-05
-8.35136e-05
-8.08528e-05
-7.82297e-05
-7.56467e-05
-7.31059e-05
-7.06095e-05
-6.81592e-05
-6.57568e-05
-6.34037e-05
-6.11013e-05
-5.88507e-05
-5.66527e-05
-5.45083e-05
-5.24178e-05
-5.03818e-05
-4.84005e-05
-4.64739e-05
-4.4602e-05
-4.27846e-05
-4.10212e-05
-3.93115e-05
-3.76548e-05
-3.60505e-05
-3.44979e-05
-3.29961e-05
-3.15443e-05
-3.01415e-05
-2.87867e-05
-2.74789e-05
-2.6217e-05
-2.49998e-05
-2.38264e-05
-2.26955e-05
-2.1606e-05
-2.05568e-05
-1.95468e-05
-1.85747e-05
-1.76396e-05
-1.67403e-05
-1.58757e-05
-1.50452e-05
-8.82335e-05
-8.56218e-05
-8.30345e-05
-8.04741e-05
-7.79432e-05
-7.54448e-05
-7.29815e-05
-7.05554e-05
-6.81688e-05
-6.58237e-05
-6.35217e-05
-6.12646e-05
-5.90537e-05
-5.68904e-05
-5.47758e-05
-5.27107e-05
-5.0696e-05
-4.87321e-05
-4.68195e-05
-4.49584e-05
-4.31489e-05
-4.13909e-05
-3.96843e-05
-3.80288e-05
-3.64238e-05
-3.4869e-05
-3.33637e-05
-3.19073e-05
-3.04989e-05
-2.91378e-05
-2.78231e-05
-2.65538e-05
-2.5329e-05
-2.41476e-05
-2.30087e-05
-2.19111e-05
-2.08538e-05
-1.98357e-05
-1.88558e-05
-1.79129e-05
-1.7006e-05
-1.61342e-05
-1.52961e-05
-1.44914e-05
-8.47097e-05
-8.2243e-05
-7.97958e-05
-7.73706e-05
-7.49699e-05
-7.25968e-05
-7.0254e-05
-6.79437e-05
-6.56681e-05
-6.34294e-05
-6.12293e-05
-5.90698e-05
-5.69522e-05
-5.48781e-05
-5.28486e-05
-5.08648e-05
-4.89277e-05
-4.70378e-05
-4.51959e-05
-4.34022e-05
-4.16571e-05
-3.99605e-05
-3.83126e-05
-3.6713e-05
-3.51616e-05
-3.3658e-05
-3.22018e-05
-3.07923e-05
-2.94289e-05
-2.8111e-05
-2.68377e-05
-2.56083e-05
-2.44219e-05
-2.32775e-05
-2.21742e-05
-2.1111e-05
-2.00869e-05
-1.91009e-05
-1.8152e-05
-1.72392e-05
-1.63614e-05
-1.55177e-05
-1.4707e-05
-1.39286e-05
-8.11303e-05
-7.88078e-05
-7.65001e-05
-7.42096e-05
-7.19392e-05
-6.96918e-05
-6.74699e-05
-6.52761e-05
-6.31124e-05
-6.09811e-05
-5.88842e-05
-5.68234e-05
-5.48006e-05
-5.28171e-05
-5.08744e-05
-4.89735e-05
-4.71157e-05
-4.53016e-05
-4.35321e-05
-4.18076e-05
-4.01285e-05
-3.84951e-05
-3.69075e-05
-3.53657e-05
-3.38695e-05
-3.24187e-05
-3.10131e-05
-2.9652e-05
-2.83351e-05
-2.70618e-05
-2.58314e-05
-2.46432e-05
-2.34964e-05
-2.23901e-05
-2.13236e-05
-2.02958e-05
-1.93059e-05
-1.8353e-05
-1.7436e-05
-1.6554e-05
-1.57061e-05
-1.48913e-05
-1.41085e-05
-1.33572e-05
-0.000423736
-0.000405747
-0.000388267
-0.000371331
-0.000354986
-0.000339258
-0.000324154
-0.000309677
-0.000295826
-0.000282597
-0.000269979
-0.00025796
-0.000246524
-0.000235652
-0.000225326
-0.000215525
-0.000206227
-0.00019741
-0.000189053
-0.000181133
-0.000173629
-0.00016652
-0.000159784
-0.000153403
-0.000147355
-0.000141623
-0.000136189
-0.00040815
-0.000391557
-0.00037537
-0.000359627
-0.000344382
-0.000329663
-0.000315481
-0.000301846
-0.00028876
-0.000276225
-0.000264236
-0.000252784
-0.000241858
-0.000231445
-0.00022153
-0.000212096
-0.000203127
-0.000194603
-0.000186507
-0.000178818
-0.00017152
-0.000164592
-0.000158017
-0.000151777
-0.000145854
-0.000140232
-0.000134894
-0.000392518
-0.000377247
-0.000362291
-0.000347691
-0.000333504
-0.00031976
-0.000306476
-0.000293662
-0.000281328
-0.000269479
-0.000258113
-0.000247227
-0.000236814
-0.000226865
-0.000217369
-0.000208312
-0.000199681
-0.000191462
-0.000183638
-0.000176193
-0.000169113
-0.000162379
-0.000155978
-0.000149892
-0.000144106
-0.000138606
-0.000133377
-0.000376899
-0.000362877
-0.000349091
-0.000335584
-0.000322412
-0.00030961
-0.000297193
-0.00028518
-0.000273582
-0.000262406
-0.000251657
-0.000241334
-0.000231433
-0.00022195
-0.000212876
-0.000204203
-0.000195918
-0.000188011
-0.000180469
-0.000173279
-0.000166427
-0.000159899
-0.000153682
-0.000147762
-0.000142125
-0.000136758
-0.000131648
-0.000361347
-0.000348505
-0.00033583
-0.000323364
-0.000311163
-0.000299263
-0.000287686
-0.000276448
-0.000265567
-0.000255052
-0.000244909
-0.000235142
-0.000225751
-0.000216733
-0.000208084
-0.000199797
-0.000191864
-0.000184277
-0.000177025
-0.000170097
-0.000163482
-0.000157169
-0.000151146
-0.000145401
-0.000139922
-0.000134698
-0.000129716
-0.000345912
-0.000334182
-0.000322557
-0.000311078
-0.000299803
-0.00028877
-0.000278
-0.000267513
-0.000257328
-0.000247457
-0.000237909
-0.00022869
-0.000219803
-0.000211248
-0.000203023
-0.000195124
-0.000187546
-0.000180282
-0.000173325
-0.000166666
-0.000160296
-0.000154206
-0.000148385
-0.000142823
-0.000137511
-0.000132437
-0.000127593
-0.000330629
-0.000319945
-0.000309311
-0.00029877
-0.000288377
-0.000278173
-0.000268178
-0.000258415
-0.000248905
-0.00023966
-0.000230694
-0.000222013
-0.000213622
-0.000205525
-0.000197722
-0.00019021
-0.000182988
-0.000176051
-0.000169393
-0.000163007
-0.000156887
-0.000151025
-0.000145413
-0.000140042
-0.000134903
-0.000129988
-0.000125288
-0.000315531
-0.000305829
-0.000296131
-0.000286478
-0.000276925
-0.000267511
-0.000258259
-0.000249194
-0.000240335
-0.000231698
-0.000223298
-0.000215142
-0.00020724
-0.000199594
-0.000192208
-0.000185082
-0.000178216
-0.000171606
-0.000165248
-0.00015914
-0.000153274
-0.000147645
-0.000142247
-0.000137072
-0.000132112
-0.000127362
-0.000122812
-0.000300646
-0.000291866
-0.00028305
-0.000274236
-0.00026548
-0.000256819
-0.000248279
-0.000239883
-0.000231651
-0.000223603
-0.000215752
-0.00020811
-0.000200685
-0.000193483
-0.000186509
-0.000179765
-0.000173251
-0.000166968
-0.000160913
-0.000155082
-0.000149473
-0.000144081
-0.0001389
-0.000133926
-0.000129151
-0.00012457
-0.000120176
-0.000285995
-0.000278081
-0.000270094
-0.000262073
-0.000254073
-0.00024613
-0.000238268
-0.000230513
-0.000222886
-0.000215406
-0.000208088
-0.000200944
-0.000193984
-0.000187217
-0.000180648
-0.000174281
-0.000168118
-0.000162159
-0.000156405
-0.000150853
-0.000145503
-0.000140349
-0.000135389
-0.000130618
-0.000126032
-0.000121625
-0.000117392
-0.0002716
-0.000264495
-0.000257289
-0.000250017
-0.000242732
-0.00023547
-0.000228256
-0.000221114
-0.000214067
-0.000207134
-0.00020033
-0.00019367
-0.000187164
-0.000180822
-0.00017465
-0.000168653
-0.000162835
-0.000157198
-0.000151743
-0.00014647
-0.000141378
-0.000136464
-0.000131727
-0.000127162
-0.000122767
-0.000118537
-0.000114468
-0.000257474
-0.000251129
-0.000244655
-0.000238089
-0.00023148
-0.000224865
-0.000218267
-0.000211711
-0.00020522
-0.000198812
-0.000192505
-0.000186313
-0.000180248
-0.000174319
-0.000168535
-0.000162902
-0.000157424
-0.000152105
-0.000146947
-0.00014195
-0.000137115
-0.000132442
-0.000127927
-0.000123571
-0.000119369
-0.000115318
-0.000111416
-0.000243632
-0.000237996
-0.00023221
-0.000226308
-0.000220338
-0.000214335
-0.000208323
-0.000202326
-0.000196367
-0.000190464
-0.000184635
-0.000178895
-0.000173257
-0.00016773
-0.000162325
-0.000157047
-0.000151903
-0.000146896
-0.000142031
-0.000137309
-0.00013273
-0.000128295
-0.000124005
-0.000119856
-0.000115848
-0.000111979
-0.000108246
-0.000230081
-0.000225109
-0.000219969
-0.000214691
-0.000209324
-0.000203901
-0.000198446
-0.000192981
-0.000187529
-0.00018211
-0.000176741
-0.000171437
-0.000166211
-0.000161075
-0.000156037
-0.000151107
-0.000146289
-0.00014159
-0.000137013
-0.000132561
-0.000128236
-0.000124039
-0.000119971
-0.000116031
-0.000112218
-0.000108531
-0.000104967
-0.00021683
-0.000212478
-0.000207942
-0.000203252
-0.000198454
-0.000193579
-0.000188651
-0.000183692
-0.000178725
-0.000173769
-0.000168841
-0.000163956
-0.000159129
-0.00015437
-0.000149691
-0.000145098
-0.000140599
-0.000136201
-0.000131907
-0.000127722
-0.000123648
-0.000119686
-0.000115839
-0.000112106
-0.000108488
-0.000104983
-0.000101591
-0.000203883
-0.000200111
-0.000196141
-0.000192002
-0.000187739
-0.000183383
-0.000178954
-0.000174477
-0.000169971
-0.000165457
-0.000160952
-0.000156471
-0.000152027
-0.000147634
-0.0001433
-0.000139036
-0.000134848
-0.000130744
-0.000126728
-0.000122805
-0.000118977
-0.000115249
-0.00011162
-0.000108094
-0.000104669
-0.000101346
-9.81249e-05
-0.000191244
-0.000188012
-0.000184572
-0.000180951
-0.000177192
-0.000173324
-0.000169369
-0.000165348
-0.000161282
-0.00015719
-0.000153089
-0.000148995
-0.000144922
-0.00014088
-0.000136882
-0.000132936
-0.000129051
-0.000125233
-0.000121489
-0.000117822
-0.000114238
-0.000110739
-0.000107327
-0.000104004
-0.000100771
-9.76299e-05
-9.45793e-05
-0.000178914
-0.000176185
-0.000173241
-0.000170106
-0.000166821
-0.000163414
-0.000159907
-0.000156318
-0.00015267
-0.000148981
-0.000145267
-0.000141544
-0.000137825
-0.000134123
-0.000130449
-0.000126812
-0.000123221
-0.000119682
-0.000116202
-0.000112787
-0.000109441
-0.000106167
-0.000102968
-9.9847e-05
-9.68051e-05
-9.38434e-05
-9.09627e-05
-0.000166892
-0.000164633
-0.000162152
-0.000159473
-0.000156634
-0.000153662
-0.000150577
-0.000147398
-0.000144147
-0.000140841
-0.000137497
-0.000134129
-0.000130751
-0.000127376
-0.000124014
-0.000120676
-0.000117369
-0.000114101
-0.00011088
-0.00010771
-0.000104597
-0.000101544
-9.85553e-05
-9.56329e-05
-9.27792e-05
-8.99957e-05
-8.72835e-05
-0.000155177
-0.000153357
-0.000151309
-0.000149056
-0.000146635
-0.000144073
-0.000141387
-0.000138597
-0.000135723
-0.000132782
-0.00012979
-0.000126761
-0.000123711
-0.000120649
-0.000117589
-0.000114538
-0.000111507
-0.000108503
-0.000105533
-0.000102602
-9.9717e-05
-9.68808e-05
-9.40977e-05
-9.13708e-05
-8.87026e-05
-8.60951e-05
-8.35499e-05
-0.000144001
-0.000142581
-0.000140929
-0.000139067
-0.000137032
-0.000134847
-0.00013253
-0.000130101
-0.000127576
-0.000124975
-0.000122312
-0.000119602
-0.000116858
-0.000114092
-0.000111315
-0.000108537
-0.000105767
-0.000103013
-0.000100281
-9.7579e-05
-9.49112e-05
-9.22825e-05
-8.9697e-05
-8.71582e-05
-8.46688e-05
-8.22314e-05
-7.98475e-05
-0.000133232
-0.000132181
-0.000130896
-0.000129398
-0.00012772
-0.000125888
-0.000123916
-0.000121824
-0.000119628
-0.000117347
-0.000114994
-0.000112585
-0.000110131
-0.000107645
-0.000105139
-0.000102621
-0.0001001
-9.75855e-05
-9.50834e-05
-9.26006e-05
-9.01426e-05
-8.77143e-05
-8.53201e-05
-8.29636e-05
-8.0648e-05
-7.83761e-05
-7.61499e-05
-0.000122536
-0.000121835
-0.0001209
-0.00011975
-0.000118416
-0.000116921
-0.000115281
-0.000113515
-0.000111638
-0.000109666
-0.000107615
-0.000105498
-0.000103329
-0.000101117
-9.88756e-05
-9.66129e-05
-9.43382e-05
-9.20596e-05
-8.97843e-05
-8.75189e-05
-8.52692e-05
-8.30403e-05
-8.08367e-05
-7.86624e-05
-7.65207e-05
-7.44147e-05
-7.23467e-05
-0.000111921
-0.000111553
-0.000110951
-0.000110132
-0.000109126
-0.000107956
-0.000106636
-0.000105183
-0.000103613
-0.000101942
-0.000100184
-9.8352e-05
-9.64587e-05
-9.45154e-05
-9.25328e-05
-9.05205e-05
-8.84874e-05
-8.64414e-05
-8.439e-05
-8.23397e-05
-8.02964e-05
-7.82655e-05
-7.62515e-05
-7.42587e-05
-7.22908e-05
-7.03508e-05
-6.84415e-05
-0.000101396
-0.000101343
-0.000101057
-0.000100555
-9.98626e-05
-9.90029e-05
-9.79895e-05
-9.68382e-05
-9.55647e-05
-9.41838e-05
-9.27092e-05
-9.11537e-05
-8.95294e-05
-8.78474e-05
-8.61182e-05
-8.43511e-05
-8.25549e-05
-8.07378e-05
-7.89068e-05
-7.70689e-05
-7.52298e-05
-7.3395e-05
-7.15694e-05
-6.97573e-05
-6.79624e-05
-6.61882e-05
-6.44376e-05
-9.09681e-05
-9.12137e-05
-9.12282e-05
-9.10259e-05
-9.06332e-05
-9.00703e-05
-8.93507e-05
-8.84893e-05
-8.75011e-05
-8.64002e-05
-8.51998e-05
-8.39122e-05
-8.25493e-05
-8.11216e-05
-7.96394e-05
-7.8112e-05
-7.65481e-05
-7.49554e-05
-7.33414e-05
-7.17126e-05
-7.00751e-05
-6.84344e-05
-6.67955e-05
-6.51627e-05
-6.35401e-05
-6.19312e-05
-6.0339e-05
-8.06459e-05
-8.11731e-05
-8.14718e-05
-8.15549e-05
-8.1447e-05
-8.11674e-05
-8.07289e-05
-8.01455e-05
-7.94315e-05
-7.86003e-05
-7.76646e-05
-7.66364e-05
-7.55267e-05
-7.43462e-05
-7.31047e-05
-7.18112e-05
-7.04742e-05
-6.91015e-05
-6.77003e-05
-6.62774e-05
-6.48386e-05
-6.33896e-05
-6.19353e-05
-6.04803e-05
-5.90287e-05
-5.75842e-05
-5.61499e-05
-7.04366e-05
-7.12294e-05
-7.17967e-05
-7.21503e-05
-7.2313e-05
-7.23032e-05
-7.21331e-05
-7.18159e-05
-7.13649e-05
-7.07931e-05
-7.01126e-05
-6.93348e-05
-6.84704e-05
-6.75296e-05
-6.6522e-05
-6.54563e-05
-6.43408e-05
-6.31833e-05
-6.19908e-05
-6.07698e-05
-5.95266e-05
-5.82664e-05
-5.69945e-05
-5.57154e-05
-5.44333e-05
-5.31519e-05
-5.18748e-05
-6.03476e-05
-6.13901e-05
-6.22108e-05
-6.28203e-05
-6.32397e-05
-6.34866e-05
-6.35724e-05
-6.35094e-05
-6.33104e-05
-6.29877e-05
-6.25527e-05
-6.20163e-05
-6.13889e-05
-6.06803e-05
-5.98995e-05
-5.90553e-05
-5.81557e-05
-5.72082e-05
-5.62198e-05
-5.51969e-05
-5.41455e-05
-5.30712e-05
-5.1979e-05
-5.08736e-05
-4.97592e-05
-4.86395e-05
-4.75183e-05
-5.03859e-05
-5.16629e-05
-5.27222e-05
-5.35732e-05
-5.42357e-05
-5.47262e-05
-5.50554e-05
-5.5235e-05
-5.52769e-05
-5.51928e-05
-5.49936e-05
-5.46896e-05
-5.42908e-05
-5.38065e-05
-5.32456e-05
-5.26164e-05
-5.19268e-05
-5.11839e-05
-5.03947e-05
-4.95656e-05
-4.87023e-05
-4.78105e-05
-4.68951e-05
-4.59608e-05
-4.50119e-05
-4.40523e-05
-4.30855e-05
-4.05582e-05
-4.20549e-05
-4.33383e-05
-4.4417e-05
-4.53091e-05
-4.60304e-05
-4.65909e-05
-4.70014e-05
-4.72732e-05
-4.74174e-05
-4.74442e-05
-4.73635e-05
-4.71848e-05
-4.6917e-05
-4.65686e-05
-4.61477e-05
-4.56618e-05
-4.51181e-05
-4.45231e-05
-4.38831e-05
-4.32039e-05
-4.24909e-05
-4.17491e-05
-4.09832e-05
-4.01974e-05
-3.93957e-05
-3.85817e-05
-3.0871e-05
-3.25729e-05
-3.40665e-05
-3.53593e-05
-3.6468e-05
-3.74075e-05
-3.81872e-05
-3.88171e-05
-3.9308e-05
-3.967e-05
-3.99131e-05
-4.00466e-05
-4.00794e-05
-4.00201e-05
-3.98769e-05
-3.96574e-05
-3.9369e-05
-3.90185e-05
-3.86124e-05
-3.81568e-05
-3.76573e-05
-3.71193e-05
-3.65477e-05
-3.59471e-05
-3.53218e-05
-3.46757e-05
-3.40124e-05
-2.13303e-05
-2.32237e-05
-2.4914e-05
-2.64076e-05
-2.772e-05
-2.88655e-05
-2.98525e-05
-3.06906e-05
-3.13896e-05
-3.19594e-05
-3.2409e-05
-3.27474e-05
-3.29832e-05
-3.31243e-05
-3.31787e-05
-3.31537e-05
-3.30563e-05
-3.28931e-05
-3.26704e-05
-3.23942e-05
-3.20699e-05
-3.17027e-05
-3.12976e-05
-3.0859e-05
-3.03912e-05
-2.98981e-05
-2.93834e-05
-1.1942e-05
-1.40135e-05
-1.58872e-05
-1.75689e-05
-1.90727e-05
-2.0412e-05
-2.15949e-05
-2.26299e-05
-2.35266e-05
-2.42938e-05
-2.49404e-05
-2.54746e-05
-2.59047e-05
-2.62382e-05
-2.64826e-05
-2.66449e-05
-2.67319e-05
-2.67499e-05
-2.6705e-05
-2.66029e-05
-2.6449e-05
-2.62484e-05
-2.60058e-05
-2.57257e-05
-2.54122e-05
-2.50693e-05
-2.47006e-05
-2.71145e-06
-4.94824e-06
-6.99275e-06
-8.85011e-06
-1.05332e-05
-1.20547e-05
-1.3422e-05
-1.46431e-05
-1.57268e-05
-1.66816e-05
-1.75155e-05
-1.82366e-05
-1.88523e-05
-1.937e-05
-1.97967e-05
-2.01392e-05
-2.04039e-05
-2.05969e-05
-2.07239e-05
-2.07907e-05
-2.08023e-05
-2.07636e-05
-2.06794e-05
-2.0554e-05
-2.03915e-05
-2.01958e-05
-1.99704e-05
6.35638e-06
3.96662e-06
1.76344e-06
-2.5762e-07
-2.10833e-06
-3.80063e-06
-5.34133e-06
-6.7379e-06
-7.99839e-06
-9.13076e-06
-1.01426e-05
-1.10414e-05
-1.18342e-05
-1.2528e-05
-1.31294e-05
-1.36448e-05
-1.40804e-05
-1.4442e-05
-1.47352e-05
-1.49652e-05
-1.51372e-05
-1.52558e-05
-1.53257e-05
-1.53511e-05
-1.5336e-05
-1.52841e-05
-1.51991e-05
1.52568e-05
1.27258e-05
1.03757e-05
8.20242e-06
6.1954e-06
4.34332e-06
2.63993e-06
1.07836e-06
-3.4887e-07
-1.64915e-06
-2.82961e-06
-3.8972e-06
-4.85862e-06
-5.7204e-06
-6.48883e-06
-7.16997e-06
-7.76963e-06
-8.2934e-06
-8.7466e-06
-9.13433e-06
-9.46145e-06
-9.73257e-06
-9.95206e-06
-1.01241e-05
-1.02525e-05
-1.03411e-05
-1.03933e-05
2.39853e-05
2.13245e-05
1.88385e-05
1.65242e-05
1.43718e-05
1.23706e-05
1.05149e-05
8.79846e-06
7.21433e-06
5.75563e-06
4.4157e-06
3.18808e-06
2.06647e-06
1.04472e-06
1.16928e-07
-7.22651e-07
-1.47952e-06
-2.15899e-06
-2.76615e-06
-3.30586e-06
-3.7828e-06
-4.20139e-06
-4.56586e-06
-4.88024e-06
-5.14831e-06
-5.37369e-06
-5.5598e-06
3.2538e-05
2.97581e-05
2.71471e-05
2.47023e-05
2.24148e-05
2.02748e-05
1.8277e-05
1.64155e-05
1.46841e-05
1.30762e-05
1.15858e-05
1.02068e-05
8.93324e-06
7.75948e-06
6.67991e-06
5.68912e-06
4.78191e-06
3.95324e-06
3.19827e-06
2.51236e-06
1.89104e-06
1.33006e-06
8.25363e-07
3.73062e-07
-3.05288e-08
-3.88913e-07
-7.0542e-07
4.09112e-05
3.80223e-05
3.52965e-05
3.27314e-05
3.03191e-05
2.80502e-05
2.59198e-05
2.39229e-05
2.20534e-05
2.03054e-05
1.86732e-05
1.71513e-05
1.5734e-05
1.44161e-05
1.31923e-05
1.20575e-05
1.10067e-05
1.00354e-05
9.13877e-06
8.31249e-06
7.5523e-06
6.85412e-06
6.21406e-06
5.62837e-06
5.09349e-06
4.60604e-06
4.16278e-06
4.91015e-05
4.61134e-05
4.32825e-05
4.06068e-05
3.80792e-05
3.56908e-05
3.34374e-05
3.13142e-05
2.93156e-05
2.74363e-05
2.5671e-05
2.40144e-05
2.24614e-05
2.1007e-05
1.96463e-05
1.83746e-05
1.71872e-05
1.60796e-05
1.50475e-05
1.40868e-05
1.31932e-05
1.23631e-05
1.15926e-05
1.08782e-05
1.02164e-05
9.6039e-06
9.03768e-06
5.71058e-05
5.40277e-05
5.11008e-05
4.83238e-05
4.56901e-05
4.31915e-05
4.0824e-05
3.85833e-05
3.64644e-05
3.44623e-05
3.2572e-05
3.07888e-05
2.91079e-05
2.75247e-05
2.60344e-05
2.46328e-05
2.33155e-05
2.20781e-05
2.09168e-05
1.98274e-05
1.88061e-05
1.78493e-05
1.69534e-05
1.61149e-05
1.53306e-05
1.45973e-05
1.39121e-05
6.49211e-05
6.17617e-05
5.87477e-05
5.58781e-05
5.31471e-05
5.05469e-05
4.8074e-05
4.57244e-05
4.34935e-05
4.13768e-05
3.93697e-05
3.74678e-05
3.56666e-05
3.39619e-05
3.23493e-05
3.08247e-05
2.9384e-05
2.80234e-05
2.67388e-05
2.55267e-05
2.43832e-05
2.33051e-05
2.22888e-05
2.1331e-05
2.04288e-05
1.95789e-05
1.87786e-05
7.25449e-05
6.93124e-05
6.62196e-05
6.32657e-05
6.04457e-05
5.77523e-05
5.51822e-05
5.27319e-05
5.03971e-05
4.81738e-05
4.60576e-05
4.40446e-05
4.21305e-05
4.03115e-05
3.85835e-05
3.69428e-05
3.53854e-05
3.39077e-05
3.2506e-05
3.11769e-05
2.99169e-05
2.87227e-05
2.75911e-05
2.65189e-05
2.55033e-05
2.45412e-05
2.36299e-05
7.99748e-05
7.66768e-05
7.3513e-05
7.04828e-05
6.75818e-05
6.4803e-05
6.21436e-05
5.96003e-05
5.71694e-05
5.48471e-05
5.26294e-05
5.05126e-05
4.84929e-05
4.65667e-05
4.47302e-05
4.29799e-05
4.13122e-05
3.97237e-05
3.82109e-05
3.67706e-05
3.53996e-05
3.40947e-05
3.28528e-05
3.16711e-05
3.05466e-05
2.94767e-05
2.84586e-05
8.72084e-05
8.38523e-05
8.06248e-05
7.75258e-05
7.45512e-05
7.16946e-05
6.89533e-05
6.63246e-05
6.3805e-05
6.1391e-05
5.9079e-05
5.68655e-05
5.47472e-05
5.27205e-05
5.07822e-05
4.89289e-05
4.71572e-05
4.5464e-05
4.3846e-05
4.23003e-05
4.08237e-05
3.94133e-05
3.80663e-05
3.67798e-05
3.55512e-05
3.43779e-05
3.32572e-05
9.42439e-05
9.08364e-05
8.75522e-05
8.43913e-05
8.13502e-05
7.84228e-05
7.56069e-05
7.28999e-05
7.02986e-05
6.77999e-05
6.54005e-05
6.30973e-05
6.0887e-05
5.87666e-05
5.67329e-05
5.47828e-05
5.29133e-05
5.11214e-05
4.9404e-05
4.77584e-05
4.61817e-05
4.46711e-05
4.3224e-05
4.18376e-05
4.05095e-05
3.92371e-05
3.80181e-05
0.000101079
9.76267e-05
9.42922e-05
9.1076e-05
8.79751e-05
8.49837e-05
8.20999e-05
7.93213e-05
7.66451e-05
7.40684e-05
7.15883e-05
6.92019e-05
6.69062e-05
6.46984e-05
6.25756e-05
6.05349e-05
5.85736e-05
5.66887e-05
5.48777e-05
5.31378e-05
5.14663e-05
4.98607e-05
4.83184e-05
4.68369e-05
4.54139e-05
4.4047e-05
4.27339e-05
0.000107713
0.000104221
0.000100842
9.7577e-05
9.44225e-05
9.13734e-05
8.8428e-05
8.55843e-05
8.28396e-05
8.01914e-05
7.76369e-05
7.51736e-05
7.27987e-05
7.05096e-05
6.83038e-05
6.61785e-05
6.41311e-05
6.21591e-05
6.02599e-05
5.8431e-05
5.66701e-05
5.49745e-05
5.3342e-05
5.17702e-05
5.02569e-05
4.87999e-05
4.73969e-05
0.000114143
0.000110617
0.0001072
0.000103891
0.000100689
9.75883e-05
9.45874e-05
9.16845e-05
8.88774e-05
8.61637e-05
8.35409e-05
8.10067e-05
7.85586e-05
7.61942e-05
7.39111e-05
7.17069e-05
6.95791e-05
6.75255e-05
6.55436e-05
6.36311e-05
6.17857e-05
6.00052e-05
5.82874e-05
5.663e-05
5.50309e-05
5.34882e-05
5.19996e-05
0.000120367
0.000116813
0.000113363
0.000110016
0.000106772
0.000103625
0.000100574
9.76177e-05
9.47539e-05
9.19804e-05
8.92951e-05
8.66958e-05
8.41802e-05
8.17461e-05
7.93914e-05
7.71138e-05
7.49111e-05
7.27812e-05
7.07218e-05
6.87308e-05
6.68061e-05
6.49455e-05
6.31471e-05
6.14088e-05
5.97285e-05
5.81044e-05
5.65345e-05
0.000126386
0.000122807
0.000119328
0.000115949
0.000112667
0.000109479
0.000106384
0.00010338
0.000100465
9.76368e-05
9.48945e-05
9.22354e-05
8.96577e-05
8.71594e-05
8.47385e-05
8.23928e-05
8.01205e-05
7.79194e-05
7.57876e-05
7.37231e-05
7.1724e-05
6.97882e-05
6.79139e-05
6.60991e-05
6.43421e-05
6.26409e-05
6.09938e-05
0.000132195
0.000128598
0.000125094
0.000121686
0.000118372
0.000115149
0.000112014
0.000108966
0.000106005
0.000103128
0.000100334
9.76204e-05
9.49858e-05
9.24284e-05
8.99463e-05
8.75377e-05
8.52007e-05
8.29335e-05
8.07343e-05
7.86011e-05
7.65323e-05
7.45259e-05
7.25803e-05
7.06936e-05
6.88641e-05
6.70901e-05
6.537e-05
0.000137796
0.000134182
0.000130659
0.000127227
0.000123885
0.000120629
0.000117459
0.000114374
0.000111371
0.00010845
0.000105609
0.000102845
0.000100159
9.75473e-05
9.5009e-05
9.25423e-05
9.01455e-05
8.7817e-05
8.5555e-05
8.33579e-05
8.1224e-05