/*--------------------------------*- C++ -*----------------------------------*\
| =========                 |                                                 |
| \\      /  F ield         | OpenFOAM: The Open Source CFD Toolbox           |
|  \\    /   O peration     | Version:  2412                                  |
|   \\  /    A nd           | Website:  www.openfoam.com                      |
|    \\/     M anipulation  |                                                 |
\*---------------------------------------------------------------------------*/
FoamFile
{
    version     2.0;
    format      ascii;
    arch        "LSB;label=32;scalar=64";
    class       volVectorField;
    location    "8.5";
    object      vorticity;
}
// * * * * * * * * * * * * * * * * * * * * * * * * * * * * * * * * * * * * * //

dimensions      [0 0 -1 0 0 0 0];

internalField   nonuniform List<vector> 
5285
(
(0 -0 -2.59196e-08)
(0 -0 -3.60524e-08)
(0 -0 -5.67718e-08)
(0 -0 -2.0788e-07)
(0 -0 -1.53409e-07)
(0 -0 -1.01921e-07)
(0 -0 -8.89781e-08)
(0 -0 -1.4356e-07)
(0 -0 -4.05373e-07)
(0 -0 -8.06344e-07)
(0 -0 -1.19293e-06)
(0 -0 -1.46851e-06)
(0 -0 -1.43558e-06)
(0 -0 -9.90108e-07)
(0 -0 1.03902e-09)
(0 -0 1.58411e-06)
(0 -0 3.65521e-06)
(0 -0 5.93316e-06)
(0 -0 7.99067e-06)
(0 -0 9.34802e-06)
(0 -0 9.60578e-06)
(0 -0 8.56991e-06)
(0 -0 6.31893e-06)
(0 -0 3.18596e-06)
(0 -0 -3.37418e-07)
(0 -0 -3.73577e-06)
(0 -0 -6.59292e-06)
(0 -0 -8.66496e-06)
(0 -0 -9.89063e-06)
(0 -0 -1.03527e-05)
(0 -0 -1.02165e-05)
(0 -0 -9.67041e-06)
(0 -0 -8.88413e-06)
(0 -0 -7.98848e-06)
(0 -0 -7.07222e-06)
(0 -0 -6.18864e-06)
(0 -0 -5.36566e-06)
(0 -0 -4.61523e-06)
(0 -0 -3.94011e-06)
(0 -0 -3.33851e-06)
(0 -0 -2.8063e-06)
(0 -0 -2.33815e-06)
(0 -0 -1.92848e-06)
(0 -0 -1.57142e-06)
(0 -0 -1.26164e-06)
(0 -0 -9.94189e-07)
(0 -0 -7.62444e-07)
(0 -0 -5.82179e-07)
(0 -0 -1.3682e-07)
(0 -0 -1.17246e-07)
(0 -0 -1.02979e-07)
(0 -0 -1.8282e-07)
(0 -0 -3.84653e-07)
(0 -0 -7.43773e-07)
(0 -0 -1.12697e-06)
(0 -0 -1.3601e-06)
(0 -0 -1.36327e-06)
(0 -0 -9.86747e-07)
(0 -0 -9.5864e-08)
(0 -0 1.36181e-06)
(0 -0 3.29635e-06)
(0 -0 5.44662e-06)
(0 -0 7.4074e-06)
(0 -0 8.7177e-06)
(0 -0 8.98836e-06)
(0 -0 8.02412e-06)
(0 -0 5.89115e-06)
(0 -0 2.9028e-06)
(0 -0 -4.7132e-07)
(0 -0 -3.73485e-06)
(0 -0 -6.48424e-06)
(0 -0 -8.48067e-06)
(0 -0 -9.66165e-06)
(0 -0 -1.01047e-05)
(0 -0 -9.96822e-06)
(0 -0 -9.43369e-06)
(0 -0 -8.6654e-06)
(0 -0 -7.79015e-06)
(0 -0 -6.89422e-06)
(0 -0 -6.02952e-06)
(0 -0 -5.22345e-06)
(0 -0 -4.48791e-06)
(0 -0 -3.82585e-06)
(0 -0 -3.23582e-06)
(0 -0 -2.71395e-06)
(0 -0 -2.25512e-06)
(0 -0 -1.85388e-06)
(0 -0 -1.50442e-06)
(0 -0 -1.20154e-06)
(0 -0 -9.4037e-07)
(0 -0 -7.1412e-07)
(0 -0 -5.38525e-07)
(0 -0 -6.30399e-08)
(0 -0 -8.94904e-08)
(0 -0 -1.1755e-07)
(0 -0 -2.10573e-07)
(0 -0 -4.49675e-07)
(0 -0 -7.81432e-07)
(0 -0 -1.12503e-06)
(0 -0 -1.39418e-06)
(0 -0 -1.46302e-06)
(0 -0 -1.18023e-06)
(0 -0 -4.1079e-07)
(0 -0 9.04067e-07)
(0 -0 2.68801e-06)
(0 -0 4.69952e-06)
(0 -0 6.55511e-06)
(0 -0 7.8123e-06)
(0 -0 8.09217e-06)
(0 -0 7.1982e-06)
(0 -0 5.18434e-06)
(0 -0 2.34393e-06)
(0 -0 -8.75699e-07)
(0 -0 -3.99757e-06)
(0 -0 -6.63115e-06)
(0 -0 -8.54309e-06)
(0 -0 -9.66999e-06)
(0 -0 -1.00844e-05)
(0 -0 -9.93772e-06)
(0 -0 -9.40496e-06)
(0 -0 -8.64485e-06)
(0 -0 -7.78038e-06)
(0 -0 -6.89535e-06)
(0 -0 -6.04042e-06)
(0 -0 -5.24249e-06)
(0 -0 -4.51337e-06)
(0 -0 -3.85629e-06)
(0 -0 -3.27002e-06)
(0 -0 -2.75093e-06)
(0 -0 -2.29415e-06)
(0 -0 -1.89428e-06)
(0 -0 -1.54574e-06)
(0 -0 -1.24326e-06)
(0 -0 -9.82174e-07)
(0 -0 -7.55217e-07)
(0 -0 -5.78511e-07)
(0 -0 6.68769e-08)
(0 -0 1.04128e-08)
(0 -0 -4.79056e-08)
(0 -0 -1.77497e-07)
(0 -0 -4.2401e-07)
(0 -0 -7.60618e-07)
(0 -0 -1.12829e-06)
(0 -0 -1.44569e-06)
(0 -0 -1.58941e-06)
(0 -0 -1.41025e-06)
(0 -0 -7.72245e-07)
(0 -0 3.90114e-07)
(0 -0 2.01429e-06)
(0 -0 3.87844e-06)
(0 -0 5.6209e-06)
(0 -0 6.81792e-06)
(0 -0 7.10098e-06)
(0 -0 6.27261e-06)
(0 -0 4.37462e-06)
(0 -0 1.68039e-06)
(0 -0 -1.38515e-06)
(0 -0 -4.36462e-06)
(0 -0 -6.88072e-06)
(0 -0 -8.70584e-06)
(0 -0 -9.77589e-06)
(0 -0 -1.01584e-05)
(0 -0 -9.99823e-06)
(0 -0 -9.46362e-06)
(0 -0 -8.70797e-06)
(0 -0 -7.85042e-06)
(0 -0 -6.97243e-06)
(0 -0 -6.12343e-06)
(0 -0 -5.32984e-06)
(0 -0 -4.60346e-06)
(0 -0 -3.94774e-06)
(0 -0 -3.36164e-06)
(0 -0 -2.84177e-06)
(0 -0 -2.38347e-06)
(0 -0 -1.98146e-06)
(0 -0 -1.63032e-06)
(0 -0 -1.32484e-06)
(0 -0 -1.06046e-06)
(0 -0 -8.29559e-07)
(0 -0 -6.53187e-07)
(0 -0 3.11559e-07)
(0 -0 2.40531e-07)
(0 -0 1.67244e-07)
(0 -0 2.16661e-08)
(0 -0 -2.40073e-07)
(0 -0 -5.91752e-07)
(0 -0 -9.8514e-07)
(0 -0 -1.3474e-06)
(0 -0 -1.56157e-06)
(0 -0 -1.48244e-06)
(0 -0 -9.73724e-07)
(0 -0 3.67153e-08)
(0 -0 1.50021e-06)
(0 -0 3.21473e-06)
(0 -0 4.84068e-06)
(0 -0 5.97333e-06)
(0 -0 6.25494e-06)
(0 -0 5.48739e-06)
(0 -0 3.70061e-06)
(0 -0 1.14819e-06)
(0 -0 -1.7673e-06)
(0 -0 -4.60814e-06)
(0 -0 -7.01032e-06)
(0 -0 -8.75209e-06)
(0 -0 -9.76871e-06)
(0 -0 -1.01228e-05)
(0 -0 -9.95248e-06)
(0 -0 -9.41937e-06)
(0 -0 -8.67142e-06)
(0 -0 -7.82399e-06)
(0 -0 -6.95617e-06)
(0 -0 -6.11619e-06)
(0 -0 -5.32999e-06)
(0 -0 -4.60932e-06)
(0 -0 -3.95779e-06)
(0 -0 -3.37453e-06)
(0 -0 -2.85636e-06)
(0 -0 -2.39878e-06)
(0 -0 -1.99668e-06)
(0 -0 -1.6448e-06)
(0 -0 -1.33799e-06)
(0 -0 -1.07183e-06)
(0 -0 -8.3846e-07)
(0 -0 -6.62112e-07)
(0 -0 7.4867e-07)
(0 -0 6.71385e-07)
(0 -0 5.91573e-07)
(0 -0 4.39583e-07)
(0 -0 1.70663e-07)
(0 -0 -1.92173e-07)
(0 -0 -6.07047e-07)
(0 -0 -1.00854e-06)
(0 -0 -1.28677e-06)
(0 -0 -1.30139e-06)
(0 -0 -9.16412e-07)
(0 -0 -5.33954e-08)
(0 -0 1.25266e-06)
(0 -0 2.81947e-06)
(0 -0 4.32961e-06)
(0 -0 5.39753e-06)
(0 -0 5.6765e-06)
(0 -0 4.96806e-06)
(0 -0 3.29048e-06)
(0 -0 8.77785e-07)
(0 -0 -1.88971e-06)
(0 -0 -4.59391e-06)
(0 -0 -6.88421e-06)
(0 -0 -8.54476e-06)
(0 -0 -9.51023e-06)
(0 -0 -9.83837e-06)
(0 -0 -9.6605e-06)
(0 -0 -9.13167e-06)
(0 -0 -8.3944e-06)
(0 -0 -7.56023e-06)
(0 -0 -6.70593e-06)
(0 -0 -5.87849e-06)
(0 -0 -5.10337e-06)
(0 -0 -4.39223e-06)
(0 -0 -3.74874e-06)
(0 -0 -3.17218e-06)
(0 -0 -2.65951e-06)
(0 -0 -2.2064e-06)
(0 -0 -1.80789e-06)
(0 -0 -1.45886e-06)
(0 -0 -1.15427e-06)
(0 -0 -8.89793e-07)
(0 -0 -6.57417e-07)
(0 -0 -4.83225e-07)
(0 -0 1.4649e-06)
(0 -0 1.3849e-06)
(0 -0 1.30217e-06)
(0 -0 1.14771e-06)
(0 -0 8.7535e-07)
(0 -0 5.03998e-07)
(0 -0 6.99125e-08)
(0 -0 -3.68235e-07)
(0 -0 -7.07532e-07)
(0 -0 -8.12645e-07)
(0 -0 -5.48212e-07)
(0 -0 1.70136e-07)
(0 -0 1.3208e-06)
(0 -0 2.74106e-06)
(0 -0 4.1355e-06)
(0 -0 5.13778e-06)
(0 -0 5.41235e-06)
(0 -0 4.76068e-06)
(0 -0 3.18973e-06)
(0 -0 9.14258e-07)
(0 -0 -1.70745e-06)
(0 -0 -4.27686e-06)
(0 -0 -6.45672e-06)
(0 -0 -8.03721e-06)
(0 -0 -8.95247e-06)
(0 -0 -9.25549e-06)
(0 -0 -9.07094e-06)
(0 -0 -8.54731e-06)
(0 -0 -7.82181e-06)
(0 -0 -7.00218e-06)
(0 -0 -6.16291e-06)
(0 -0 -5.34978e-06)
(0 -0 -4.58771e-06)
(0 -0 -3.88824e-06)
(0 -0 -3.25506e-06)
(0 -0 -2.68753e-06)
(0 -0 -2.18274e-06)
(0 -0 -1.73649e-06)
(0 -0 -1.34399e-06)
(0 -0 -1.00026e-06)
(0 -0 -7.00364e-07)
(0 -0 -4.40046e-07)
(0 -0 -2.11219e-07)
(0 -0 -4.09835e-08)
(0 -0 2.54219e-06)
(0 -0 2.4604e-06)
(0 -0 2.37574e-06)
(0 -0 2.22001e-06)
(0 -0 1.94552e-06)
(0 -0 1.56677e-06)
(0 -0 1.11453e-06)
(0 -0 6.41006e-07)
(0 -0 2.42355e-07)
(0 -0 4.89154e-08)
(0 -0 1.95236e-07)
(0 -0 7.71333e-07)
(0 -0 1.76863e-06)
(0 -0 3.04357e-06)
(0 -0 4.32243e-06)
(0 -0 5.25797e-06)
(0 -0 5.52595e-06)
(0 -0 4.92811e-06)
(0 -0 3.46061e-06)
(0 -0 1.31943e-06)
(0 -0 -1.15877e-06)
(0 -0 -3.59473e-06)
(0 -0 -5.66455e-06)
(0 -0 -7.16447e-06)
(0 -0 -8.02835e-06)
(0 -0 -8.30464e-06)
(0 -0 -8.11162e-06)
(0 -0 -7.59144e-06)
(0 -0 -6.87612e-06)
(0 -0 -6.06977e-06)
(0 -0 -5.2446e-06)
(0 -0 -4.44521e-06)
(0 -0 -3.69598e-06)
(0 -0 -3.00828e-06)
(0 -0 -2.38575e-06)
(0 -0 -1.82782e-06)
(0 -0 -1.33164e-06)
(0 -0 -8.93164e-07)
(0 -0 -5.07749e-07)
(0 -0 -1.7053e-07)
(0 -0 1.23308e-07)
(0 -0 3.7795e-07)
(0 -0 6.01548e-07)
(0 -0 7.6642e-07)
(0 -0 4.03566e-06)
(0 -0 3.95167e-06)
(0 -0 3.86489e-06)
(0 -0 3.70792e-06)
(0 -0 3.43153e-06)
(0 -0 3.04587e-06)
(0 -0 2.57629e-06)
(0 -0 2.06871e-06)
(0 -0 1.61273e-06)
(0 -0 1.33373e-06)
(0 -0 1.36531e-06)
(0 -0 1.80281e-06)
(0 -0 2.65007e-06)
(0 -0 3.78207e-06)
(0 -0 4.94633e-06)
(0 -0 5.81445e-06)
(0 -0 6.0736e-06)
(0 -0 5.52628e-06)
(0 -0 4.15861e-06)
(0 -0 2.14866e-06)
(0 -0 -1.87815e-07)
(0 -0 -2.49038e-06)
(0 -0 -4.44834e-06)
(0 -0 -5.86417e-06)
(0 -0 -6.67185e-06)
(0 -0 -6.91574e-06)
(0 -0 -6.70821e-06)
(0 -0 -6.18548e-06)
(0 -0 -5.47465e-06)
(0 -0 -4.67637e-06)
(0 -0 -3.86068e-06)
(0 -0 -3.07104e-06)
(0 -0 -2.33126e-06)
(0 -0 -1.65247e-06)
(0 -0 -1.03826e-06)
(0 -0 -4.88044e-07)
(0 -0 9.75471e-10)
(0 -0 4.32755e-07)
(0 -0 8.11816e-07)
(0 -0 1.14289e-06)
(0 -0 1.43068e-06)
(0 -0 1.67934e-06)
(0 -0 1.89706e-06)
(0 -0 2.05583e-06)
(0 -0 5.94375e-06)
(0 -0 5.85659e-06)
(0 -0 5.76706e-06)
(0 -0 5.6085e-06)
(0 -0 5.33029e-06)
(0 -0 4.93835e-06)
(0 -0 4.45279e-06)
(0 -0 3.91348e-06)
(0 -0 3.40365e-06)
(0 -0 3.04378e-06)
(0 -0 2.96638e-06)
(0 -0 3.27148e-06)
(0 -0 3.97462e-06)
(0 -0 4.96844e-06)
(0 -0 6.02086e-06)
(0 -0 6.82191e-06)
(0 -0 7.07034e-06)
(0 -0 6.57019e-06)
(0 -0 5.29872e-06)
(0 -0 3.41742e-06)
(0 -0 1.22231e-06)
(0 -0 -9.44276e-07)
(0 -0 -2.78466e-06)
(0 -0 -4.10789e-06)
(0 -0 -4.84869e-06)
(0 -0 -5.04816e-06)
(0 -0 -4.81354e-06)
(0 -0 -4.27573e-06)
(0 -0 -3.55742e-06)
(0 -0 -2.75605e-06)
(0 -0 -1.9397e-06)
(0 -0 -1.15067e-06)
(0 -0 -4.12217e-07)
(0 -0 2.64808e-07)
(0 -0 8.76963e-07)
(0 -0 1.42491e-06)
(0 -0 1.91147e-06)
(0 -0 2.34054e-06)
(0 -0 2.71654e-06)
(0 -0 3.04411e-06)
(0 -0 3.32788e-06)
(0 -0 3.57198e-06)
(0 -0 3.7847e-06)
(0 -0 3.93781e-06)
(0 -0 8.17618e-06)
(0 -0 8.08478e-06)
(0 -0 7.99183e-06)
(0 -0 7.83148e-06)
(0 -0 7.55184e-06)
(0 -0 7.15489e-06)
(0 -0 6.65581e-06)
(0 -0 6.08874e-06)
(0 -0 5.53082e-06)
(0 -0 5.09772e-06)
(0 -0 4.92049e-06)
(0 -0 5.10319e-06)
(0 -0 5.67194e-06)
(0 -0 6.53569e-06)
(0 -0 7.48163e-06)
(0 -0 8.21766e-06)
(0 -0 8.45435e-06)
(0 -0 7.99841e-06)
(0 -0 6.82003e-06)
(0 -0 5.0661e-06)
(0 -0 3.01462e-06)
(0 -0 9.90865e-07)
(0 -0 -7.20295e-07)
(0 -0 -1.93502e-06)
(0 -0 -2.58981e-06)
(0 -0 -2.72376e-06)
(0 -0 -2.44016e-06)
(0 -0 -1.86558e-06)
(0 -0 -1.11897e-06)
(0 -0 -2.95047e-07)
(0 -0 5.39911e-07)
(0 -0 1.34465e-06)
(0 -0 2.09647e-06)
(0 -0 2.78491e-06)
(0 -0 3.40677e-06)
(0 -0 3.96288e-06)
(0 -0 4.45617e-06)
(0 -0 4.89055e-06)
(0 -0 5.27041e-06)
(0 -0 5.60034e-06)
(0 -0 5.88496e-06)
(0 -0 6.12843e-06)
(0 -0 6.33918e-06)
(0 -0 6.4889e-06)
(0 -0 1.05295e-05)
(0 -0 1.04329e-05)
(0 -0 1.0336e-05)
(0 -0 1.0174e-05)
(0 -0 9.89394e-06)
(0 -0 9.49418e-06)
(0 -0 8.98543e-06)
(0 -0 8.39659e-06)
(0 -0 7.79912e-06)
(0 -0 7.30393e-06)
(0 -0 7.04027e-06)
(0 -0 7.11527e-06)
(0 -0 7.56402e-06)
(0 -0 8.31002e-06)
(0 -0 9.15821e-06)
(0 -0 9.83352e-06)
(0 -0 1.00588e-05)
(0 -0 9.64497e-06)
(0 -0 8.5577e-06)
(0 -0 6.93207e-06)
(0 -0 5.03039e-06)
(0 -0 3.16224e-06)
(0 -0 1.59993e-06)
(0 -0 5.19358e-07)
(0 -0 -1.92862e-08)
(0 -0 -5.48822e-08)
(0 -0 3.1154e-07)
(0 -0 9.56357e-07)
(0 -0 1.76337e-06)
(0 -0 2.63999e-06)
(0 -0 3.5214e-06)
(0 -0 4.36729e-06)
(0 -0 5.1556e-06)
(0 -0 5.87633e-06)
(0 -0 6.52667e-06)
(0 -0 7.10775e-06)
(0 -0 7.62271e-06)
(0 -0 8.07561e-06)
(0 -0 8.4709e-06)
(0 -0 8.81321e-06)
(0 -0 9.10725e-06)
(0 -0 9.35728e-06)
(0 -0 9.57197e-06)
(0 -0 9.723e-06)
(0 -0 1.2682e-05)
(0 -0 1.25794e-05)
(0 -0 1.24784e-05)
(0 -0 1.23153e-05)
(0 -0 1.20363e-05)
(0 -0 1.16369e-05)
(0 -0 1.11237e-05)
(0 -0 1.05212e-05)
(0 -0 9.89553e-06)
(0 -0 9.35314e-06)
(0 -0 9.021e-06)
(0 -0 9.00799e-06)
(0 -0 9.35625e-06)
(0 -0 1.00015e-05)
(0 -0 1.07644e-05)
(0 -0 1.1386e-05)
(0 -0 1.16018e-05)
(0 -0 1.12294e-05)
(0 -0 1.0233e-05)
(0 -0 8.73954e-06)
(0 -0 6.99873e-06)
(0 -0 5.30622e-06)
(0 -0 3.92191e-06)
(0 -0 3.01259e-06)
(0 -0 2.63308e-06)
(0 -0 2.74231e-06)
(0 -0 3.23924e-06)
(0 -0 4.00135e-06)
(0 -0 4.91388e-06)
(0 -0 5.88557e-06)
(0 -0 6.85268e-06)
(0 -0 7.77573e-06)
(0 -0 8.63334e-06)
(0 -0 9.41609e-06)
(0 -0 1.01217e-05)
(0 -0 1.07519e-05)
(0 -0 1.13101e-05)
(0 -0 1.18007e-05)
(0 -0 1.22284e-05)
(0 -0 1.25979e-05)
(0 -0 1.29142e-05)
(0 -0 1.31818e-05)
(0 -0 1.34097e-05)
(0 -0 1.35697e-05)
(0 -0 1.42189e-05)
(0 -0 1.41094e-05)
(0 -0 1.40043e-05)
(0 -0 1.38408e-05)
(0 -0 1.3565e-05)
(0 -0 1.31697e-05)
(0 -0 1.26585e-05)
(0 -0 1.20519e-05)
(0 -0 1.14119e-05)
(0 -0 1.08405e-05)
(0 -0 1.04619e-05)
(0 -0 1.03853e-05)
(0 -0 1.06575e-05)
(0 -0 1.12235e-05)
(0 -0 1.19173e-05)
(0 -0 1.24949e-05)
(0 -0 1.27053e-05)
(0 -0 1.2375e-05)
(0 -0 1.14713e-05)
(0 -0 1.01173e-05)
(0 -0 8.55381e-06)
(0 -0 7.06463e-06)
(0 -0 5.89744e-06)
(0 -0 5.20839e-06)
(0 -0 5.04428e-06)
(0 -0 5.35882e-06)
(0 -0 6.0481e-06)
(0 -0 6.98843e-06)
(0 -0 8.06486e-06)
(0 -0 9.1865e-06)
(0 -0 1.02902e-05)
(0 -0 1.13371e-05)
(0 -0 1.23066e-05)
(0 -0 1.31901e-05)
(0 -0 1.3986e-05)
(0 -0 1.46967e-05)
(0 -0 1.53265e-05)
(0 -0 1.588e-05)
(0 -0 1.63624e-05)
(0 -0 1.67789e-05)
(0 -0 1.71347e-05)
(0 -0 1.74347e-05)
(0 -0 1.76884e-05)
(0 -0 1.7868e-05)
(0 -0 1.46915e-05)
(0 -0 1.4574e-05)
(0 -0 1.44641e-05)
(0 -0 1.43009e-05)
(0 -0 1.40304e-05)
(0 -0 1.36434e-05)
(0 -0 1.3141e-05)
(0 -0 1.25411e-05)
(0 -0 1.19021e-05)
(0 -0 1.1322e-05)
(0 -0 1.0922e-05)
(0 -0 1.08098e-05)
(0 -0 1.1034e-05)
(0 -0 1.1546e-05)
(0 -0 1.21901e-05)
(0 -0 1.27358e-05)
(0 -0 1.29464e-05)
(0 -0 1.26607e-05)
(0 -0 1.18536e-05)
(0 -0 1.06495e-05)
(0 -0 9.28474e-06)
(0 -0 8.03349e-06)
(0 -0 7.1314e-06)
(0 -0 6.72211e-06)
(0 -0 6.84126e-06)
(0 -0 7.43375e-06)
(0 -0 8.3895e-06)
(0 -0 9.58094e-06)
(0 -0 1.08911e-05)
(0 -0 1.22283e-05)
(0 -0 1.35293e-05)
(0 -0 1.4756e-05)
(0 -0 1.58884e-05)
(0 -0 1.69188e-05)
(0 -0 1.7847e-05)
(0 -0 1.86761e-05)
(0 -0 1.94112e-05)
(0 -0 2.0058e-05)
(0 -0 2.06221e-05)
(0 -0 2.11092e-05)
(0 -0 2.15253e-05)
(0 -0 2.18758e-05)
(0 -0 2.21709e-05)
(0 -0 2.23831e-05)
(0 -0 1.37055e-05)
(0 -0 1.35771e-05)
(0 -0 1.34608e-05)
(0 -0 1.32982e-05)
(0 -0 1.30352e-05)
(0 -0 1.26607e-05)
(0 -0 1.2174e-05)
(0 -0 1.15912e-05)
(0 -0 1.09684e-05)
(0 -0 1.04007e-05)
(0 -0 1.00053e-05)
(0 -0 9.88706e-06)
(0 -0 1.00936e-05)
(0 -0 1.05787e-05)
(0 -0 1.11943e-05)
(0 -0 1.17219e-05)
(0 -0 1.19398e-05)
(0 -0 1.17025e-05)
(0 -0 1.09974e-05)
(0 -0 9.95617e-06)
(0 -0 8.81481e-06)
(0 -0 7.84074e-06)
(0 -0 7.25755e-06)
(0 -0 7.19429e-06)
(0 -0 7.672e-06)
(0 -0 8.62289e-06)
(0 -0 9.92701e-06)
(0 -0 1.145e-05)
(0 -0 1.30709e-05)
(0 -0 1.46959e-05)
(0 -0 1.62612e-05)
(0 -0 1.77291e-05)
(0 -0 1.90805e-05)
(0 -0 2.03089e-05)
(0 -0 2.14151e-05)
(0 -0 2.2404e-05)
(0 -0 2.32817e-05)
(0 -0 2.40549e-05)
(0 -0 2.47302e-05)
(0 -0 2.53141e-05)
(0 -0 2.58133e-05)
(0 -0 2.62342e-05)
(0 -0 2.65876e-05)
(0 -0 2.6847e-05)
(0 -0 1.10207e-05)
(0 -0 1.0872e-05)
(0 -0 1.07458e-05)
(0 -0 1.05855e-05)
(0 -0 1.03334e-05)
(0 -0 9.97543e-06)
(0 -0 9.51016e-06)
(0 -0 8.95359e-06)
(0 -0 8.36089e-06)
(0 -0 7.82484e-06)
(0 -0 7.45894e-06)
(0 -0 7.36325e-06)
(0 -0 7.58164e-06)
(0 -0 8.06722e-06)
(0 -0 8.67596e-06)
(0 -0 9.19971e-06)
(0 -0 9.43287e-06)
(0 -0 9.24852e-06)
(0 -0 8.65188e-06)
(0 -0 7.78721e-06)
(0 -0 6.89503e-06)
(0 -0 6.23839e-06)
(0 -0 6.02893e-06)
(0 -0 6.37905e-06)
(0 -0 7.29171e-06)
(0 -0 8.68241e-06)
(0 -0 1.04177e-05)
(0 -0 1.23535e-05)
(0 -0 1.43627e-05)
(0 -0 1.63483e-05)
(0 -0 1.82454e-05)
(0 -0 2.00162e-05)
(0 -0 2.16427e-05)
(0 -0 2.31199e-05)
(0 -0 2.44502e-05)
(0 -0 2.564e-05)
(0 -0 2.66972e-05)
(0 -0 2.76297e-05)
(0 -0 2.84453e-05)
(0 -0 2.91517e-05)
(0 -0 2.97565e-05)
(0 -0 3.02671e-05)
(0 -0 3.06956e-05)
(0 -0 3.10161e-05)
(0 -0 6.61392e-06)
(0 -0 6.46997e-06)
(0 -0 6.30132e-06)
(0 -0 6.15024e-06)
(0 -0 5.91527e-06)
(0 -0 5.5779e-06)
(0 -0 5.13823e-06)
(0 -0 4.61434e-06)
(0 -0 4.06233e-06)
(0 -0 3.57381e-06)
(0 -0 3.25845e-06)
(0 -0 3.21043e-06)
(0 -0 3.46733e-06)
(0 -0 3.97825e-06)
(0 -0 4.6004e-06)
(0 -0 5.13436e-06)
(0 -0 5.39087e-06)
(0 -0 5.26456e-06)
(0 -0 4.7829e-06)
(0 -0 4.10779e-06)
(0 -0 3.48849e-06)
(0 -0 3.18607e-06)
(0 -0 3.40034e-06)
(0 -0 4.22515e-06)
(0 -0 5.64221e-06)
(0 -0 7.54671e-06)
(0 -0 9.78831e-06)
(0 -0 1.22106e-05)
(0 -0 1.46783e-05)
(0 -0 1.70903e-05)
(0 -0 1.93797e-05)
(0 -0 2.15088e-05)
(0 -0 2.34607e-05)
(0 -0 2.5232e-05)
(0 -0 2.6827e-05)
(0 -0 2.82542e-05)
(0 -0 2.95232e-05)
(0 -0 3.06437e-05)
(0 -0 3.1625e-05)
(0 -0 3.24759e-05)
(0 -0 3.32055e-05)
(0 -0 3.38223e-05)
(0 -0 3.43397e-05)
(0 -0 3.4733e-05)
(0 -0 7.99329e-07)
(0 -0 5.94136e-07)
(0 -0 4.46404e-07)
(0 -0 2.67024e-07)
(0 -0 5.5688e-08)
(0 -0 -2.592e-07)
(0 -0 -6.72523e-07)
(0 -0 -1.16109e-06)
(0 -0 -1.66617e-06)
(0 -0 -2.09637e-06)
(0 -0 -2.34567e-06)
(0 -0 -2.32661e-06)
(0 -0 -2.0098e-06)
(0 -0 -1.45275e-06)
(0 -0 -7.99544e-07)
(0 -0 -2.42506e-07)
(0 -0 4.54994e-08)
(0 -0 -1.73858e-08)
(0 -0 -3.78032e-07)
(0 -0 -8.52921e-07)
(0 -0 -1.18063e-06)
(0 -0 -1.10007e-06)
(0 -0 -4.23061e-07)
(0 -0 9.24312e-07)
(0 -0 2.90003e-06)
(0 -0 5.37613e-06)
(0 -0 8.18272e-06)
(0 -0 1.11488e-05)
(0 -0 1.41297e-05)
(0 -0 1.70187e-05)
(0 -0 1.9747e-05)
(0 -0 2.22767e-05)
(0 -0 2.45921e-05)
(0 -0 2.66915e-05)
(0 -0 2.85816e-05)
(0 -0 3.02729e-05)
(0 -0 3.17772e-05)
(0 -0 3.31063e-05)
(0 -0 3.42711e-05)
(0 -0 3.5282e-05)
(0 -0 3.61494e-05)
(0 -0 3.68834e-05)
(0 -0 3.74988e-05)
(0 -0 3.7972e-05)
(0 -0 7.38011e-05)
(0 -0 8.0415e-05)
(0 -0 7.84574e-05)
(0 -0 7.18233e-05)
(0 -0 6.21012e-05)
(0 -0 5.10852e-05)
(0 -0 4.01625e-05)
(0 -0 3.02718e-05)
(0 -0 2.19124e-05)
(0 -0 1.52342e-05)
(0 -0 1.01515e-05)
(0 -0 6.44699e-06)
(0 -0 3.85305e-06)
(0 -0 2.10582e-06)
(0 -0 9.74875e-07)
(0 -0 2.75147e-07)
(0 -0 -1.32785e-07)
(0 -0 -3.4877e-07)
(0 -0 -4.41558e-07)
(0 -0 -4.57182e-07)
(0 -0 -4.25783e-07)
(0 -0 -3.67002e-07)
(0 -0 -2.94062e-07)
(0 -0 -2.16676e-07)
(0 -0 -1.4263e-07)
(0 -0 -8.51328e-08)
(0 -0 -3.83806e-08)
(0 -0 6.78009e-05)
(0 -0 7.52801e-05)
(0 -0 7.38436e-05)
(0 -0 6.7577e-05)
(0 -0 5.82143e-05)
(0 -0 4.7538e-05)
(0 -0 3.69361e-05)
(0 -0 2.73418e-05)
(0 -0 1.92522e-05)
(0 -0 1.28188e-05)
(0 -0 7.95907e-06)
(0 -0 4.45934e-06)
(0 -0 2.05495e-06)
(0 -0 4.84148e-07)
(0 -0 -4.81953e-07)
(0 -0 -1.02758e-06)
(0 -0 -1.29173e-06)
(0 -0 -1.37401e-06)
(0 -0 -1.34296e-06)
(0 -0 -1.2441e-06)
(0 -0 -1.10697e-06)
(0 -0 -9.50596e-07)
(0 -0 -7.87503e-07)
(0 -0 -6.26791e-07)
(0 -0 -4.76374e-07)
(0 -0 -3.44114e-07)
(0 -0 -2.44733e-07)
(0 -0 6.18189e-05)
(0 -0 7.13269e-05)
(0 -0 7.27632e-05)
(0 -0 6.76769e-05)
(0 -0 5.88442e-05)
(0 -0 4.83842e-05)
(0 -0 3.78547e-05)
(0 -0 2.82662e-05)
(0 -0 2.01501e-05)
(0 -0 1.36733e-05)
(0 -0 8.7609e-06)
(0 -0 5.20365e-06)
(0 -0 2.73998e-06)
(0 -0 1.11008e-06)
(0 -0 8.61793e-08)
(0 -0 -5.15339e-07)
(0 -0 -8.33301e-07)
(0 -0 -9.67359e-07)
(0 -0 -9.86053e-07)
(0 -0 -9.34861e-07)
(0 -0 -8.43175e-07)
(0 -0 -7.29833e-07)
(0 -0 -6.07117e-07)
(0 -0 -4.84003e-07)
(0 -0 -3.692e-07)
(0 -0 -2.71862e-07)
(0 -0 -2.07366e-07)
(0 -0 5.9842e-05)
(0 -0 7.14278e-05)
(0 -0 7.41892e-05)
(0 -0 6.98017e-05)
(0 -0 6.11882e-05)
(0 -0 5.0742e-05)
(0 -0 4.01274e-05)
(0 -0 3.0412e-05)
(0 -0 2.21539e-05)
(0 -0 1.55318e-05)
(0 -0 1.04753e-05)
(0 -0 6.77743e-06)
(0 -0 4.17799e-06)
(0 -0 2.41792e-06)
(0 -0 1.26983e-06)
(0 -0 5.50157e-07)
(0 -0 1.19965e-07)
(0 -0 -1.20571e-07)
(0 -0 -2.40132e-07)
(0 -0 -2.84341e-07)
(0 -0 -2.82668e-07)
(0 -0 -2.53927e-07)
(0 -0 -2.10342e-07)
(0 -0 -1.60887e-07)
(0 -0 -1.14517e-07)
(0 -0 -8.31999e-08)
(0 -0 -8.34916e-08)
(0 -0 6.33116e-05)
(0 -0 7.4728e-05)
(0 -0 7.68622e-05)
(0 -0 7.2174e-05)
(0 -0 6.33333e-05)
(0 -0 5.26887e-05)
(0 -0 4.18968e-05)
(0 -0 3.20242e-05)
(0 -0 2.36275e-05)
(0 -0 1.68817e-05)
(0 -0 1.17133e-05)
(0 -0 7.91287e-06)
(0 -0 5.21815e-06)
(0 -0 3.36905e-06)
(0 -0 2.13734e-06)
(0 -0 1.33885e-06)
(0 -0 8.34177e-07)
(0 -0 5.23102e-07)
(0 -0 3.36664e-07)
(0 -0 2.29051e-07)
(0 -0 1.70697e-07)
(0 -0 1.42822e-07)
(0 -0 1.33271e-07)
(0 -0 1.33149e-07)
(0 -0 1.33402e-07)
(0 -0 1.21067e-07)
(0 -0 7.62373e-08)
(0 -0 6.98026e-05)
(0 -0 7.93829e-05)
(0 -0 8.03011e-05)
(0 -0 7.47891e-05)
(0 -0 6.53848e-05)
(0 -0 5.43455e-05)
(0 -0 4.32731e-05)
(0 -0 3.31985e-05)
(0 -0 2.46538e-05)
(0 -0 1.77969e-05)
(0 -0 1.25427e-05)
(0 -0 8.67309e-06)
(0 -0 5.92072e-06)
(0 -0 4.02184e-06)
(0 -0 2.74593e-06)
(0 -0 1.90731e-06)
(0 -0 1.36556e-06)
(0 -0 1.01976e-06)
(0 -0 8.00488e-07)
(0 -0 6.61683e-07)
(0 -0 5.73654e-07)
(0 -0 5.17636e-07)
(0 -0 4.81538e-07)
(0 -0 4.5656e-07)
(0 -0 4.33677e-07)
(0 -0 3.99507e-07)
(0 -0 3.32279e-07)
(0 -0 7.7661e-05)
(0 -0 8.53682e-05)
(0 -0 8.47731e-05)
(0 -0 7.81211e-05)
(0 -0 6.78908e-05)
(0 -0 5.62642e-05)
(0 -0 4.47811e-05)
(0 -0 3.44224e-05)
(0 -0 2.56824e-05)
(0 -0 1.86916e-05)
(0 -0 1.33445e-05)
(0 -0 9.40945e-06)
(0 -0 6.60949e-06)
(0 -0 4.67459e-06)
(0 -0 3.37015e-06)
(0 -0 2.50789e-06)
(0 -0 1.94567e-06)
(0 -0 1.58152e-06)
(0 -0 1.34534e-06)
(0 -0 1.19068e-06)
(0 -0 1.08764e-06)
(0 -0 1.01737e-06)
(0 -0 9.67788e-07)
(0 -0 9.3018e-07)
(0 -0 8.956e-07)
(0 -0 8.50511e-07)
(0 -0 7.71967e-07)
(0 -0 8.77485e-05)
(0 -0 9.32075e-05)
(0 -0 9.07327e-05)
(0 -0 8.26072e-05)
(0 -0 7.12713e-05)
(0 -0 5.88397e-05)
(0 -0 4.67865e-05)
(0 -0 3.6033e-05)
(0 -0 2.70245e-05)
(0 -0 1.98534e-05)
(0 -0 1.43863e-05)
(0 -0 1.03712e-05)
(0 -0 7.51723e-06)
(0 -0 5.54494e-06)
(0 -0 4.21364e-06)
(0 -0 3.33115e-06)
(0 -0 2.75288e-06)
(0 -0 2.37533e-06)
(0 -0 2.12747e-06)
(0 -0 1.96226e-06)
(0 -0 1.84948e-06)
(0 -0 1.77009e-06)
(0 -0 1.71195e-06)
(0 -0 1.6664e-06)
(0 -0 1.6246e-06)
(0 -0 1.57296e-06)
(0 -0 1.48769e-06)
(0 -0 0.000100971)
(0 -0 0.000103547)
(0 -0 9.86653e-05)
(0 -0 8.86345e-05)
(0 -0 7.58507e-05)
(0 -0 6.23537e-05)
(0 -0 4.95396e-05)
(0 -0 3.82566e-05)
(0 -0 2.88876e-05)
(0 -0 2.14753e-05)
(0 -0 1.58487e-05)
(0 -0 1.17285e-05)
(0 -0 8.80477e-06)
(0 -0 6.7854e-06)
(0 -0 5.42129e-06)
(0 -0 4.51494e-06)
(0 -0 3.91847e-06)
(0 -0 3.52632e-06)
(0 -0 3.2662e-06)
(0 -0 3.09031e-06)
(0 -0 2.96793e-06)
(0 -0 2.87977e-06)
(0 -0 2.8136e-06)
(0 -0 2.76076e-06)
(0 -0 2.71247e-06)
(0 -0 2.65513e-06)
(0 -0 2.56434e-06)
(0 -0 0.000118004)
(0 -0 0.000116884)
(0 -0 0.000108936)
(0 -0 9.64789e-05)
(0 -0 8.18467e-05)
(0 -0 6.69859e-05)
(0 -0 5.31955e-05)
(0 -0 4.12316e-05)
(0 -0 3.13982e-05)
(0 -0 2.36748e-05)
(0 -0 1.78421e-05)
(0 -0 1.35857e-05)
(0 -0 1.05714e-05)
(0 -0 8.49058e-06)
(0 -0 7.08338e-06)
(0 -0 6.14553e-06)
(0 -0 5.52493e-06)
(0 -0 5.11342e-06)
(0 -0 4.83711e-06)
(0 -0 4.64723e-06)
(0 -0 4.5125e-06)
(0 -0 4.41327e-06)
(0 -0 4.33716e-06)
(0 -0 4.27542e-06)
(0 -0 4.21932e-06)
(0 -0 4.1553e-06)
(0 -0 4.05844e-06)
(0 -0 0.00013916)
(0 -0 0.000133435)
(0 -0 0.000121692)
(0 -0 0.00010624)
(0 -0 8.933e-05)
(0 -0 7.27906e-05)
(0 -0 5.77993e-05)
(0 -0 4.49979e-05)
(0 -0 3.4593e-05)
(0 -0 2.64859e-05)
(0 -0 2.03979e-05)
(0 -0 1.59718e-05)
(0 -0 1.28434e-05)
(0 -0 1.0684e-05)
(0 -0 9.22075e-06)
(0 -0 8.24112e-06)
(0 -0 7.58788e-06)
(0 -0 7.14978e-06)
(0 -0 6.85105e-06)
(0 -0 6.64178e-06)
(0 -0 6.49003e-06)
(0 -0 6.37572e-06)
(0 -0 6.28619e-06)
(0 -0 6.21257e-06)
(0 -0 6.14616e-06)
(0 -0 6.07341e-06)
(0 -0 5.96905e-06)
(0 -0 0.00016429)
(0 -0 0.000153045)
(0 -0 0.00013678)
(0 -0 0.000117775)
(0 -0 9.81716e-05)
(0 -0 7.96539e-05)
(0 -0 6.32504e-05)
(0 -0 4.94659e-05)
(0 -0 3.83903e-05)
(0 -0 2.9832e-05)
(0 -0 2.34425e-05)
(0 -0 1.88143e-05)
(0 -0 1.55481e-05)
(0 -0 1.32921e-05)
(0 -0 1.17583e-05)
(0 -0 1.07248e-05)
(0 -0 1.00286e-05)
(0 -0 9.55488e-06)
(0 -0 9.22581e-06)
(0 -0 8.99024e-06)
(0 -0 8.8154e-06)
(0 -0 8.68071e-06)
(0 -0 8.57318e-06)
(0 -0 8.48381e-06)
(0 -0 8.40386e-06)
(0 -0 8.31982e-06)
(0 -0 8.20611e-06)
(0 -0 0.000192691)
(0 -0 0.000175104)
(0 -0 0.000153676)
(0 -0 0.000130638)
(0 -0 0.000107993)
(0 -0 8.72516e-05)
(0 -0 6.9267e-05)
(0 -0 5.43849e-05)
(0 -0 4.25613e-05)
(0 -0 3.34995e-05)
(0 -0 2.67719e-05)
(0 -0 2.19146e-05)
(0 -0 1.84899e-05)
(0 -0 1.61203e-05)
(0 -0 1.45014e-05)
(0 -0 1.34013e-05)
(0 -0 1.26507e-05)
(0 -0 1.21312e-05)
(0 -0 1.17627e-05)
(0 -0 1.14928e-05)
(0 -0 1.12878e-05)
(0 -0 1.11266e-05)
(0 -0 1.09958e-05)
(0 -0 1.08863e-05)
(0 -0 1.07893e-05)
(0 -0 1.06911e-05)
(0 -0 1.05661e-05)
(0 -0 0.000223045)
(0 -0 0.0001985)
(0 -0 0.000171453)
(0 -0 0.000144055)
(0 -0 0.000118145)
(0 -0 9.50313e-05)
(0 -0 7.53703e-05)
(0 -0 5.933e-05)
(0 -0 4.67196e-05)
(0 -0 3.71278e-05)
(0 -0 3.00426e-05)
(0 -0 2.49403e-05)
(0 -0 2.13428e-05)
(0 -0 1.88461e-05)
(0 -0 1.71295e-05)
(0 -0 1.59507e-05)
(0 -0 1.51344e-05)
(0 -0 1.45588e-05)
(0 -0 1.41415e-05)
(0 -0 1.38287e-05)
(0 -0 1.35861e-05)
(0 -0 1.33919e-05)
(0 -0 1.32324e-05)
(0 -0 1.30983e-05)
(0 -0 1.29805e-05)
(0 -0 1.28654e-05)
(0 -0 1.27272e-05)
(0 -0 0.00025345)
(0 -0 0.000221655)
(0 -0 0.000188806)
(0 -0 0.000156949)
(0 -0 0.000127731)
(0 -0 0.000102237)
(0 -0 8.09084e-05)
(0 -0 6.37253e-05)
(0 -0 5.03428e-05)
(0 -0 4.02317e-05)
(0 -0 3.27941e-05)
(0 -0 2.74471e-05)
(0 -0 2.36729e-05)
(0 -0 2.10424e-05)
(0 -0 1.92194e-05)
(0 -0 1.79524e-05)
(0 -0 1.70609e-05)
(0 -0 1.64196e-05)
(0 -0 1.59445e-05)
(0 -0 1.55809e-05)
(0 -0 1.52935e-05)
(0 -0 1.50602e-05)
(0 -0 1.48669e-05)
(0 -0 1.47039e-05)
(0 -0 1.45619e-05)
(0 -0 1.44274e-05)
(0 -0 1.42742e-05)
(0 -0 0.000281558)
(0 -0 0.00024264)
(0 -0 0.000204164)
(0 -0 0.000168037)
(0 -0 0.000135695)
(0 -0 0.000107984)
(0 -0 8.5126e-05)
(0 -0 6.69084e-05)
(0 -0 5.28344e-05)
(0 -0 4.22603e-05)
(0 -0 3.4507e-05)
(0 -0 2.89367e-05)
(0 -0 2.49962e-05)
(0 -0 2.22349e-05)
(0 -0 2.03035e-05)
(0 -0 1.89435e-05)
(0 -0 1.79701e-05)
(0 -0 1.72561e-05)
(0 -0 1.67165e-05)
(0 -0 1.62955e-05)
(0 -0 1.59576e-05)
(0 -0 1.56801e-05)
(0 -0 1.54486e-05)
(0 -0 1.52531e-05)
(0 -0 1.50843e-05)
(0 -0 1.49281e-05)
(0 -0 1.47584e-05)
(0 -0 0.000304833)
(0 -0 0.000259405)
(0 -0 0.000215875)
(0 -0 0.000175991)
(0 -0 0.000140958)
(0 -0 0.000111386)
(0 -0 8.72765e-05)
(0 -0 6.82345e-05)
(0 -0 5.36216e-05)
(0 -0 4.26914e-05)
(0 -0 3.46941e-05)
(0 -0 2.89464e-05)
(0 -0 2.48672e-05)
(0 -0 2.19899e-05)
(0 -0 1.99569e-05)
(0 -0 1.85054e-05)
(0 -0 1.74489e-05)
(0 -0 1.66594e-05)
(0 -0 1.60516e-05)
(0 -0 1.55695e-05)
(0 -0 1.51774e-05)
(0 -0 1.48526e-05)
(0 -0 1.45802e-05)
(0 -0 1.435e-05)
(0 -0 1.41523e-05)
(0 -0 1.39729e-05)
(0 -0 1.37852e-05)
(0 -0 0.000320906)
(0 -0 0.000270065)
(0 -0 0.000222454)
(0 -0 0.000179641)
(0 -0 0.0001426)
(0 -0 0.000111706)
(0 -0 8.67583e-05)
(0 -0 6.71999e-05)
(0 -0 5.22709e-05)
(0 -0 4.11408e-05)
(0 -0 3.30063e-05)
(0 -0 2.71519e-05)
(0 -0 2.29796e-05)
(0 -0 2.00149e-05)
(0 -0 1.78975e-05)
(0 -0 1.63644e-05)
(0 -0 1.523e-05)
(0 -0 1.43677e-05)
(0 -0 1.36926e-05)
(0 -0 1.31496e-05)
(0 -0 1.27031e-05)
(0 -0 1.23303e-05)
(0 -0 1.20165e-05)
(0 -0 1.1751e-05)
(0 -0 1.15239e-05)
(0 -0 1.13203e-05)
(0 -0 1.11127e-05)
(0 -0 0.000327927)
(0 -0 0.000273199)
(0 -0 0.00022282)
(0 -0 0.00017818)
(0 -0 0.000140019)
(0 -0 0.000108498)
(0 -0 8.324e-05)
(0 -0 6.35547e-05)
(0 -0 4.85903e-05)
(0 -0 3.74585e-05)
(0 -0 2.93238e-05)
(0 -0 2.34561e-05)
(0 -0 1.92535e-05)
(0 -0 1.62434e-05)
(0 -0 1.40696e-05)
(0 -0 1.24739e-05)
(0 -0 1.12748e-05)
(0 -0 1.03487e-05)
(0 -0 9.61306e-06)
(0 -0 9.01411e-06)
(0 -0 8.51703e-06)
(0 -0 8.0994e-06)
(0 -0 7.74643e-06)
(0 -0 7.44741e-06)
(0 -0 7.192e-06)
(0 -0 6.96403e-06)
(0 -0 6.74135e-06)
(0 -0 0.000324804)
(0 -0 0.000268073)
(0 -0 0.000216478)
(0 -0 0.000171312)
(0 -0 0.000133064)
(0 -0 0.000101714)
(0 -0 7.67458e-05)
(0 -0 5.73753e-05)
(0 -0 4.26938e-05)
(0 -0 3.17861e-05)
(0 -0 2.38094e-05)
(0 -0 1.80385e-05)
(0 -0 1.38823e-05)
(0 -0 1.08803e-05)
(0 -0 8.68845e-06)
(0 -0 7.05803e-06)
(0 -0 5.81518e-06)
(0 -0 4.84151e-06)
(0 -0 4.05822e-06)
(0 -0 3.41377e-06)
(0 -0 2.87471e-06)
(0 -0 2.41928e-06)
(0 -0 2.03294e-06)
(0 -0 1.70505e-06)
(0 -0 1.42507e-06)
(0 -0 1.1774e-06)
(0 -0 9.29244e-07)
(0 -0 0.000312027)
(0 -0 0.000255234)
(0 -0 0.00020416)
(0 -0 0.000159812)
(0 -0 0.000122528)
(0 -0 9.21461e-05)
(0 -0 6.80588e-05)
(0 -0 4.94322e-05)
(0 -0 3.53405e-05)
(0 -0 2.48735e-05)
(0 -0 1.72069e-05)
(0 -0 1.16394e-05)
(0 -0 7.60468e-06)
(0 -0 4.66488e-06)
(0 -0 2.4942e-06)
(0 -0 8.58433e-07)
(0 -0 -4.05825e-07)
(0 -0 -1.40962e-06)
(0 -0 -2.22681e-06)
(0 -0 -2.90587e-06)
(0 -0 -3.47838e-06)
(0 -0 -3.96511e-06)
(0 -0 -4.38006e-06)
(0 -0 -4.73358e-06)
(0 -0 -5.03616e-06)
(0 -0 -5.30226e-06)
(0 -0 -5.56873e-06)
(0 -0 0.000290549)
(0 -0 0.000235503)
(0 -0 0.000186521)
(0 -0 0.000144229)
(0 -0 0.000108873)
(0 -0 8.01906e-05)
(0 -0 5.75295e-05)
(0 -0 4.00467e-05)
(0 -0 2.68353e-05)
(0 -0 1.70192e-05)
(0 -0 9.81525e-06)
(0 -0 4.56358e-06)
(0 -0 7.34996e-07)
(0 -0 -2.07728e-06)
(0 -0 -4.17451e-06)
(0 -0 -5.77259e-06)
(0 -0 -7.02176e-06)
(0 -0 -8.02401e-06)
(0 -0 -8.84725e-06)
(0 -0 -9.53616e-06)
(0 -0 -1.012e-05)
(0 -0 -1.06184e-05)
(0 -0 -1.10444e-05)
(0 -0 -1.1408e-05)
(0 -0 -1.17187e-05)
(0 -0 -1.19938e-05)
(0 -0 -1.22534e-05)
(0 -0 0.000261812)
(0 -0 0.00021026)
(0 -0 0.000164721)
(0 -0 0.000125615)
(0 -0 9.30682e-05)
(0 -0 6.67579e-05)
(0 -0 4.60245e-05)
(0 -0 3.00537e-05)
(0 -0 1.79893e-05)
(0 -0 9.01679e-06)
(0 -0 2.41488e-06)
(0 -0 -2.41926e-06)
(0 -0 -5.96617e-06)
(0 -0 -8.59348e-06)
(0 -0 -1.05724e-05)
(0 -0 -1.20969e-05)
(0 -0 -1.33015e-05)
(0 -0 -1.42776e-05)
(0 -0 -1.50861e-05)
(0 -0 -1.57672e-05)
(0 -0 -1.63475e-05)
(0 -0 -1.68449e-05)
(0 -0 -1.72716e-05)
(0 -0 -1.7637e-05)
(0 -0 -1.79501e-05)
(0 -0 -1.82239e-05)
(0 -0 -1.84918e-05)
(0 -0 0.00022791)
(0 -0 0.000181283)
(0 -0 0.000140337)
(0 -0 0.000105339)
(0 -0 7.63146e-05)
(0 -0 5.29152e-05)
(0 -0 3.45089e-05)
(0 -0 2.0342e-05)
(0 -0 9.63703e-06)
(0 -0 1.6623e-06)
(0 -0 -4.22431e-06)
(0 -0 -8.55628e-06)
(0 -0 -1.17567e-05)
(0 -0 -1.4148e-05)
(0 -0 -1.59675e-05)
(0 -0 -1.73841e-05)
(0 -0 -1.85152e-05)
(0 -0 -1.94404e-05)
(0 -0 -2.02128e-05)
(0 -0 -2.08678e-05)
(0 -0 -2.14289e-05)
(0 -0 -2.19118e-05)
(0 -0 -2.23279e-05)
(0 -0 -2.26859e-05)
(0 -0 -2.29942e-05)
(0 -0 -2.3265e-05)
(0 -0 -2.35228e-05)
(0 -0 0.000191316)
(0 -0 0.000150666)
(0 -0 0.000115145)
(0 -0 8.48962e-05)
(0 -0 5.98772e-05)
(0 -0 3.97461e-05)
(0 -0 2.39274e-05)
(0 -0 1.17533e-05)
(0 -0 2.54476e-06)
(0 -0 -4.33118e-06)
(0 -0 -9.42636e-06)
(0 -0 -1.31969e-05)
(0 -0 -1.60032e-05)
(0 -0 -1.81191e-05)
(0 -0 -1.97453e-05)
(0 -0 -2.1025e-05)
(0 -0 -2.2057e-05)
(0 -0 -2.29088e-05)
(0 -0 -2.36255e-05)
(0 -0 -2.42369e-05)
(0 -0 -2.47634e-05)
(0 -0 -2.52187e-05)
(0 -0 -2.56128e-05)
(0 -0 -2.59537e-05)
(0 -0 -2.62492e-05)
(0 -0 -2.65108e-05)
(0 -0 -2.6761e-05)
(0 -0 0.000154656)
(0 -0 0.000120559)
(0 -0 9.08929e-05)