/*--------------------------------*- C++ -*----------------------------------*\
| =========                 |                                                 |
| \\      /  F ield         | OpenFOAM: The Open Source CFD Toolbox           |
|  \\    /   O peration     | Version:  2412                                  |
|   \\  /    A nd           | Website:  www.openfoam.com                      |
|    \\/     M anipulation  |                                                 |
\*---------------------------------------------------------------------------*/
FoamFile
{
    version     2.0;
    format      ascii;
    arch        "LSB;label=32;scalar=64";
    class       volScalarField;
    location    "19";
    object      p;
}
// * * * * * * * * * * * * * * * * * * * * * * * * * * * * * * * * * * * * * //

dimensions      [0 2 -2 0 0 0 0];

internalField   nonuniform List<scalar> 
5285
(
-0.000843303
-0.000784098
-0.000809902
-0.000825072
-0.000838755
-0.000850105
-0.000858072
-0.000862754
-0.00086441
-0.000863199
-0.000859265
-0.000852776
-0.00084391
-0.000832851
-0.000819787
-0.000804907
-0.0007884
-0.000770454
-0.000751254
-0.00073098
-0.000709806
-0.000687901
-0.000665424
-0.000642526
-0.000729179
-0.000753804
-0.000768945
-0.000782653
-0.000794177
-0.000802585
-0.000807961
-0.00081053
-0.00081043
-0.000807787
-0.000802748
-0.000795472
-0.000786124
-0.000774872
-0.000761886
-0.000747338
-0.000731399
-0.000714237
-0.000696016
-0.000676898
-0.000657036
-0.000636578
-0.000615665
-0.000678151
-0.000701664
-0.000716718
-0.000730393
-0.000742019
-0.000750774
-0.000756728
-0.000760078
-0.000760942
-0.000759431
-0.000755675
-0.000749815
-0.000741997
-0.000732373
-0.000721096
-0.000708323
-0.000694206
-0.000678901
-0.000662558
-0.000645324
-0.00062734
-0.000608743
-0.000589664
-0.000630666
-0.000653129
-0.000668055
-0.00068165
-0.00069332
-0.000702343
-0.000708777
-0.000712793
-0.000714494
-0.000713976
-0.000711354
-0.000706753
-0.000700305
-0.000692144
-0.00068241
-0.000671242
-0.000658782
-0.000645169
-0.000630541
-0.000615033
-0.000598774
-0.000581892
-0.000564507
-0.000586409
-0.000607883
-0.000622649
-0.000636128
-0.000647797
-0.00065702
-0.000663851
-0.000668434
-0.000670859
-0.000671212
-0.000669592
-0.000666112
-0.000660889
-0.000654043
-0.000645701
-0.000635987
-0.000625032
-0.00061296
-0.0005999
-0.000585973
-0.0005713
-0.000555997
-0.000540175
-0.000545095
-0.000565638
-0.00058022
-0.000593555
-0.000605185
-0.000614554
-0.000621709
-0.000626773
-0.000629826
-0.000630941
-0.000630208
-0.000627726
-0.000623598
-0.000617935
-0.000610847
-0.000602451
-0.000592862
-0.000582196
-0.000570568
-0.00055809
-0.000544874
-0.000531026
-0.000516649
-0.000506473
-0.00052614
-0.000540518
-0.000553688
-0.000565248
-0.000574717
-0.000582134
-0.000587606
-0.000591201
-0.000592984
-0.000593034
-0.000591439
-0.000588292
-0.000583691
-0.000577737
-0.000570534
-0.000562187
-0.000552802
-0.000542483
-0.000531334
-0.000519456
-0.000506948
-0.000493906
-0.000470317
-0.00048916
-0.000503321
-0.000516308
-0.000527774
-0.000537304
-0.00054493
-0.000550745
-0.000554807
-0.000557175
-0.000557917
-0.000557112
-0.000554842
-0.000551197
-0.000546266
-0.000540144
-0.000532926
-0.000524708
-0.000515586
-0.000505655
-0.000495007
-0.000483735
-0.000471925
-0.000436425
-0.000454491
-0.000468425
-0.000481218
-0.00049257
-0.000502127
-0.000509918
-0.00051602
-0.000520485
-0.000523363
-0.000524716
-0.000524613
-0.000523129
-0.000520343
-0.000516336
-0.000511193
-0.000505002
-0.000497848
-0.000489821
-0.000481006
-0.00047149
-0.000461355
-0.000450684
-0.000404615
-0.00042195
-0.00043565
-0.000448238
-0.000459461
-0.000469019
-0.000476935
-0.000483276
-0.000488086
-0.00049141
-0.000493302
-0.000493824
-0.000493043
-0.000491029
-0.000487856
-0.000483601
-0.000478343
-0.000472161
-0.000465134
-0.000457344
-0.000448867
-0.000439781
-0.000430162
-0.000374721
-0.000391368
-0.000404829
-0.000417207
-0.000428289
-0.000437825
-0.000445833
-0.00045237
-0.000457476
-0.000461188
-0.000463555
-0.000464633
-0.000464481
-0.000463161
-0.000460741
-0.000457291
-0.000452882
-0.000447585
-0.000441475
-0.000434623
-0.000427102
-0.000418984
-0.000410337
-0.000346596
-0.000362595
-0.000375815
-0.000387979
-0.00039891
-0.000408404
-0.000416476
-0.000423173
-0.00042853
-0.000432579
-0.000435366
-0.000436937
-0.000437347
-0.000436652
-0.000434913
-0.000432192
-0.000428555
-0.000424066
-0.000418794
-0.000412803
-0.000406162
-0.000398935
-0.000391186
-0.000320104
-0.000335492
-0.00034847
-0.000360418
-0.000371193
-0.000380629
-0.00038874
-0.000395565
-0.000401134
-0.000405477
-0.000408631
-0.000410641
-0.000411554
-0.00041142
-0.000410296
-0.000408237
-0.000405301
-0.000401551
-0.000397045
-0.000391845
-0.000386013
-0.000379608
-0.000372689
-0.000295124
-0.000309936
-0.000322673
-0.000334404
-0.000345016
-0.000354381
-0.000362511
-0.000369437
-0.000375184
-0.00037978
-0.000383258
-0.000385657
-0.000387019
-0.000387391
-0.000386821
-0.000385362
-0.000383066
-0.000379988
-0.000376184
-0.00037171
-0.000366622
-0.000360975
-0.000354824
-0.000271544
-0.000285814
-0.000298312
-0.000309825
-0.000320271
-0.000329555
-0.000337686
-0.000344688
-0.000350584
-0.000355398
-0.00035916
-0.000361904
-0.000363667
-0.000364493
-0.000364425
-0.000363509
-0.000361795
-0.000359331
-0.00035617
-0.000352362
-0.000347958
-0.000343011
-0.00033757
-0.000249262
-0.000263022
-0.000275283
-0.000286581
-0.000296859
-0.000306053
-0.000314169
-0.000321227
-0.000327246
-0.000332247
-0.000336256
-0.000339305
-0.000341428
-0.000342661
-0.000343045
-0.000342623
-0.000341438
-0.000339536
-0.000336963
-0.000333766
-0.000329993
-0.000325691
-0.000320906
-0.00022819
-0.000241469
-0.000253496
-0.000264579
-0.000274688
-0.000283785
-0.000291873
-0.000298968
-0.000305087
-0.000310247
-0.000314473
-0.000317792
-0.000320234
-0.000321834
-0.000322627
-0.000322652
-0.000321949
-0.000320559
-0.000318525
-0.00031589
-0.000312697
-0.00030899
-0.000304812
-0.000208252
-0.000221076
-0.000232865
-0.000243734
-0.000253675
-0.000262668
-0.000270717
-0.000277834
-0.000284032
-0.000289327
-0.000293741
-0.000297298
-0.000300026
-0.000301955
-0.000303117
-0.000303548
-0.000303283
-0.000302361
-0.00030082
-0.000298701
-0.000296042
-0.000292884
-0.000289268
-0.000605214
-0.000648746
-0.000560887
-0.000601829
-0.000641869
-0.000680947
-0.000719115
-0.000755832
-0.000789459
-0.000519566
-0.00055814
-0.000595841
-0.000632599
-0.000668445
-0.000702882
-0.00073452
-0.000480984
-0.000517395
-0.000552951
-0.000587582
-0.000621309
-0.00065367
-0.000683492
-0.000444865
-0.000479324
-0.000512924
-0.000545608
-0.000577393
-0.00060786
-0.000636017
-0.000411057
-0.000443713
-0.000475514
-0.000506411
-0.000536418
-0.000565153
-0.000591779
-0.00037938
-0.00041036
-0.000440502
-0.000469755
-0.000498127
-0.000525273
-0.00055049
-0.000349649
-0.000379079
-0.000407687
-0.000435424
-0.000462289
-0.000487976
-0.000511892
-0.000321703
-0.000349701
-0.000376891
-0.000403226
-0.000428702
-0.000453045
-0.000475757
-0.000295404
-0.000322074
-0.00034795
-0.000372989
-0.00039718
-0.000420284
-0.000441882
-0.000270625
-0.000296063
-0.000320721
-0.000344557
-0.00036756
-0.000389517
-0.000410082
-0.000247252
-0.000271545
-0.000295071
-0.000317791
-0.000339691
-0.000360588
-0.000380193
-0.000225183
-0.000248409
-0.000270882
-0.000292563
-0.000313439
-0.000333353
-0.000352066
-0.000204323
-0.000226554
-0.000248044
-0.000268759
-0.000288683
-0.000307683
-0.000325565
-0.000184586
-0.000205887
-0.00022646
-0.000246274
-0.000265311
-0.000283461
-0.000300569
-0.000165893
-0.000186324
-0.000206041
-0.000225013
-0.000243223
-0.000260581
-0.000276965
-0.000148173
-0.000167789
-0.000186705
-0.000204889
-0.000222326
-0.000238945
-0.000254654
-0.000131359
-0.000150211
-0.000168374
-0.000185822
-0.000202536
-0.000218464
-0.000233541
-0.000115393
-0.000133525
-0.000150981
-0.000167737
-0.000183776
-0.000199062
-0.000213551
-0.000100221
-0.000117684
-0.000134482
-0.000150593
-0.000165998
-0.000180679
-0.000194609
-0.000516002
-0.000560881
-0.000255207
-0.000304092
-0.000346722
-0.000389894
-0.00043355
-0.000476717
-0.000519144
-0.000230601
-0.000276611
-0.000317071
-0.000358004
-0.000399298
-0.000439955
-0.00048019
-0.00020733
-0.000250722
-0.000289201
-0.000328093
-0.000367321
-0.000406263
-0.000443853
-0.000185309
-0.000226312
-0.000262964
-0.000299947
-0.000337138
-0.000373855
-0.000409661
-0.000164461
-0.000203278
-0.000238246
-0.000273465
-0.000308784
-0.000343579
-0.000377643
-0.000144712
-0.000181524
-0.00021494
-0.000248536
-0.000282154
-0.00031524
-0.000347643
-0.000125993
-0.000160965
-0.000192947
-0.000225045
-0.000257098
-0.000288617
-0.00031947
-0.000108239
-0.000141519
-0.000172175
-0.000202884
-0.000233487
-0.000263553
-0.000292966
-9.13921e-05
-0.000123112
-0.000152537
-0.000181954
-0.000211211
-0.000239927
-0.000268001
-7.53959e-05
-0.000105676
-0.000133954
-0.000162169
-0.000190172
-0.000217635
-0.000244463
-6.01987e-05
-8.9146e-05
-0.000116355
-0.000143448
-0.000170283
-0.000196578
-0.000222246
-4.57524e-05
-7.34647e-05
-9.96749e-05
-0.000125718
-0.000151461
-0.000176668
-0.000201253
-3.20123e-05
-5.85785e-05
-8.38527e-05
-0.000108913
-0.000133641
-0.000157824
-0.000181398
-1.89371e-05
-4.44383e-05
-6.88336e-05
-9.29697e-05
-0.000116748
-0.000139972
-0.000162599
-6.48511e-06
-3.09929e-05
-5.45651e-05
-7.78373e-05
-0.00010071
-0.000123044
-0.000144786
5.38209e-06
-1.8191e-05
-4.09988e-05
-6.34533e-05
-8.5483e-05
-0.00010698
-0.00012789
1.66766e-05
-6.04781e-06
-2.809e-05
-4.977e-05
-7.10133e-05
-9.17236e-05
-0.000111851
2.74715e-05
5.56303e-06
-1.57981e-05
-3.67567e-05
-5.72567e-05
-7.72243e-05
-9.66148e-05
3.77631e-05
1.6625e-05
-4.07207e-06
-2.4343e-05
-4.41432e-05
-6.3417e-05
-8.21216e-05
0.0009761
0.000966536
0.000955914
0.000944164
0.000931214
0.000916989
0.000901412
0.000884407
0.000865895
0.000845798
0.00082404
0.000800544
0.000775239
0.000748056
0.000718931
0.000687809
0.000654641
0.000619388
0.000582026
0.00054254
0.000500933
0.000457228
0.000411462
0.000363698
0.00031402
0.000262536
0.00020938
0.000154713
9.87207e-05
4.1619e-05
-1.63578e-05
-7.49842e-05
-0.000133721
-0.000191749
0.000953581
0.000943602
0.000932593
0.000920492
0.000907231
0.000892742
0.000876957
0.000859805
0.000841217
0.000821125
0.00079946
0.000776157
0.000751153
0.000724392
0.000695819
0.00066539
0.000633068
0.000598823
0.00056264
0.000524515
0.000484458
0.000442497
0.000398677
0.000353061
0.000305734
0.000256802
0.000206395
0.000154663
0.000101782
4.79506e-05
-6.61485e-06
-6.17087e-05
-0.00011684
-0.000171258
0.000931938
0.0009216
0.000910263
0.000897869
0.000884357
0.000869665
0.000853731
0.000836492
0.000817887
0.000797855
0.000776336
0.000753274
0.000728616
0.000702313
0.000674322
0.000644607
0.00061314
0.0005799
0.000544881
0.000508085
0.000469529
0.000429246
0.000387284
0.000343707
0.000298601
0.000252068
0.000204231
0.000155234
0.00010524
5.44342e-05
3.01422e-06
-4.88314e-05
-0.000100656
-0.000151774
0.000911151
0.000900506
0.000888894
0.000876261
0.000862551
0.00084771
0.00083168
0.000814407
0.000795835
0.000775911
0.000754584
0.000731804
0.000707527
0.000681712
0.000654325
0.000625337
0.000594728
0.000562486
0.000528608
0.000493106
0.000456
0.000417327
0.000377137
0.000335495
0.000292485
0.000248205
0.000202774
0.000156326
0.000109014
6.10082e-05
1.24919e-05
-3.63629e-05
-8.51503e-05
-0.000133247
0.000891197
0.000880292
0.000868452
0.000855629
0.000841771
0.000826828
0.000810751
0.00079349
0.000774996
0.000755222
0.000734124
0.00071166
0.000687793
0.000662489
0.000635721
0.000607467
0.000577713
0.000546454
0.000513694
0.000479447
0.000443739
0.000406608
0.000368106
0.000328298
0.000287265
0.000245103
0.000201923
0.000157852
0.000113033
6.76225e-05
2.17899e-05
-2.43074e-05
-7.03007e-05
-0.000115624
0.000872053
0.000860932
0.000848909
0.000835938
0.000821976
0.000806976
0.000790893
0.000773684
0.000755306
0.000735718
0.000714881
0.000692762
0.000669327
0.000644551
0.000618411
0.000590893
0.000561988
0.000531696
0.000500025
0.000466993
0.000432629
0.000396973
0.000360078
0.000322007
0.00028284
0.000242667
0.000201595
0.000159742
0.000117242
7.42392e-05
3.08899e-05
-1.26612e-05
-5.60802e-05
-9.88552e-05
0.000853696
0.000842398
0.000830231
0.000817154
0.000803126
0.000788107
0.000772056
0.000754935
0.000736706
0.000717334
0.000696786
0.000675033
0.000652048
0.000627811
0.000602305
0.000575521
0.000547453
0.000518107
0.000487495
0.000455637
0.000422565
0.000388319
0.000352951
0.000316526
0.000279118
0.000240815
0.000201717
0.000161936
0.000121594
8.08271e-05
3.97785e-05
-1.41874e-06
-4.24626e-05
-8.28913e-05
0.000836099
0.000824661
0.000812387
0.000799239
0.000785182
0.000770177
0.000754191
0.000737189
0.000719138
0.000700007
0.00067977
0.000658401
0.000635879
0.000612188
0.000587317
0.00056126
0.000534016
0.000505594
0.000476009
0.000445283
0.000413449
0.000380549
0.000346634
0.000311766
0.000276018
0.000239473
0.000202225
0.000164378
0.000126048
8.73598e-05
4.84449e-05
9.42658e-06
-2.94228e-05
-6.76883e-05
0.000819239
0.000807693
0.000795344
0.000782158
0.000768102
0.000753143
0.00073725
0.000720393
0.000702544
0.000683676
0.000663767
0.000642796
0.000620746
0.000597606
0.000573367
0.000548028
0.000521592
0.000494069
0.000465478
0.000435842
0.000405195
0.000373579
0.000341044
0.000307651
0.000273468
0.000238576
0.000203062
0.000167024
0.00013057
9.38155e-05
5.68819e-05
1.98829e-05
-1.69362e-05
-5.32043e-05
0.000803089
0.000791466
0.000779072
0.000765876
0.000751849
0.000736962
0.000721188
0.000704499
0.000686872
0.000668285
0.000648717
0.000628154
0.000606582
0.000583992
0.00056038
0.000535748
0.000510101
0.000483453
0.000455821
0.000427234
0.000397723
0.000367331
0.000336107
0.000304109
0.000271404
0.000238066
0.000204178
0.000169833
0.00013513
0.000100177
6.50848e-05
2.99598e-05
-4.97854e-06
-3.93993e-05
0.000787623
0.00077595
0.000763538
0.000750358
0.000736385
0.000721593
0.000705958
0.000689457
0.00067207
0.000653777
0.000634562
0.000614414
0.000593321
0.00057128
0.000548288
0.000524349
0.000499472
0.000473671
0.000446966
0.000419385
0.000390962
0.000361736
0.000331757
0.00030108
0.000269768
0.000237892
0.000205532
0.000172771
0.000139704
0.00010643
7.30516e-05
3.96674e-05
6.47384e-06
-2.6236e-05
0.000772817
0.000761118
0.000748711
0.00073557
0.000721673
0.000706996
0.000691519
0.000675223
0.000658088
0.000640101
0.000621247
0.000601517
0.000580905
0.000559408
0.000537026
0.000513765
0.000489637
0.000464656
0.000438845
0.00041223
0.000384846
0.000356731
0.000327934
0.000298507
0.00026851
0.000238012
0.000207085
0.000175809
0.000144271
0.000112563
8.07816e-05
4.90167e-05
1.74437e-05
-1.3679e-05
0.000758645
0.000746942
0.000734561
0.000721479
0.000707677
0.000693133
0.00067783
0.000661751
0.000644881
0.000627208
0.00060872
0.000589411
0.000569277
0.000548317
0.000526534
0.000503936
0.000480535
0.000456348
0.000431396
0.000405708
0.000379316
0.00035226
0.000324584
0.000296341
0.000267586
0.000238384
0.000208804
0.00017892
0.000148813
0.000118569
8.82762e-05
5.80191e-05
2.79532e-05
-1.69561e-06
0.000745081
0.000733395
0.000721059
0.000708054
0.000694363
0.000679967
0.000664851
0.000649001
0.000632405
0.000615051
0.000596933
0.000578044
0.000558384
0.000537954
0.000516758
0.000494805
0.00047211
0.000448688
0.000424564
0.000399763
0.00037432
0.000348271
0.000321661
0.000294537
0.000266956
0.000238975
0.000210661
0.000182083
0.000153317
0.000124441
9.55375e-05
6.66861e-05
3.80235e-05
9.74549e-06
0.000732103
0.000720449
0.000708175
0.000695263
0.000681697
0.000667463
0.000652545
0.000636933
0.000620616
0.000603587
0.000585839
0.000567369
0.000548178
0.000528268
0.000507646
0.000486321
0.000464308
0.000441626
0.000418296
0.000394346
0.000369808
0.000344718
0.000319119
0.000293057
0.000266583
0.000239754
0.000212631
0.00018528
0.000157769
0.000130173
0.000102569
7.50293e-05
4.7675e-05
2.06742e-05
0.000719685
0.00070808
0.000695882
0.000683077
0.000669649
0.000655586
0.000640876
0.000625509
0.000609477
0.000592774
0.000575396
0.000557342
0.000538612
0.000519213
0.00049915
0.000478435
0.000457083
0.000435113
0.000412546
0.000389411
0.000365737
0.00034156
0.000316921
0.000291864
0.000266437
0.000240694
0.000214693
0.000188493
0.000162161
0.000135764
0.000109374
8.30602e-05
5.69268e-05
3.11176e-05
0.000707804
0.000696262
0.000684154
0.000671466
0.000658187
0.000644304
0.000629809
0.000614692
0.000598949
0.000582573
0.000565563
0.00054792
0.000529645
0.000510744
0.000491227
0.000471104
0.00045039
0.000429106
0.000407272
0.000384915
0.000362066
0.000338759
0.000315032
0.000290927
0.00026649
0.000241772
0.000216826
0.00019171
0.000166484
0.000141211
0.000115958
9.079e-05
6.57969e-05
4.10983e-05
0.000696438
0.000684971
0.000672964
0.000660404
0.000647282
0.000633587
0.000619312
0.00060445
0.000588996
0.000572947
0.000556303
0.000539065
0.000521236
0.000502823
0.000483835
0.000464285
0.000444189
0.000423564
0.000402433
0.000380823
0.000358761
0.000336281
0.00031342
0.000290217
0.000266717
0.000242966
0.000219016
0.000194918
0.000170731
0.000146514
0.000122326
9.82301e-05
7.43037e-05
5.0647e-05
0.000685565
0.000674183
0.000662286
0.000649864
0.000636906
0.000623405
0.000609355
0.00059475
0.000579586
0.000563863
0.00054758
0.00053074
0.000513347
0.00049541
0.000476938
0.000457943
0.000438441
0.000418451
0.000397995
0.000377097
0.000355787
0.000334095
0.000312056
0.000289709
0.000267095
0.000244258
0.000221246
0.000198109
0.000174899
0.000151671
0.000128483
0.00010539
8.24603e-05
5.97771e-05
0.000675375
0.000664087
0.000652307
0.000640025
0.000627235
0.000613928
0.000600101
0.000585748
0.000570869
0.000555462
0.000539528
0.000523071
0.000506097
0.000488613
0.00047063
0.000452161
0.000433221
0.000413829
0.000394006
0.000373777
0.000353168
0.000332211
0.000310938
0.000289386
0.000267594
0.000245603
0.000223458
0.000201207
0.000178898
0.000156582
0.000134311
0.00011214
9.0122e-05
6.83183e-05
0.00066572
0.000654531
0.000642873
0.000630737
0.000618116
0.000605005
0.0005914
0.000577298
0.000562698
0.0005476
0.000532006
0.000515922
0.000499351
0.000482305
0.000464791
0.000446825
0.000428421
0.000409599
0.000390377
0.000370781
0.000350836
0.000330572
0.000310021
0.000289216
0.000268195
0.000246997
0.000225665
0.000204241
0.000182773
0.000161307
0.000139893
0.000118581
9.74195e-05
7.6462e-05
0.000656288
0.000645208
0.00063368
0.000621697
0.000609253
0.000596344
0.000582967
0.00056912
0.000554803
0.000540016
0.000524764
0.000509051
0.000492883
0.000476269
0.000459221
0.00044175
0.000423874
0.000405609
0.000386976
0.000367999
0.000348701
0.000329111
0.00030926
0.000289179
0.000268905
0.000248473
0.000227924
0.000207299
0.000186641
0.000165993
0.000145403
0.000124916
0.000104579
8.44406e-05
0.000647084
0.000636121
0.00062473
0.000612907
0.000600646
0.000587945
0.0005748
0.000561212
0.00054718
0.000532707
0.000517797
0.000502454
0.000486685
0.000470501
0.000453911
0.000436929
0.00041957
0.000401853
0.000383796
0.000365421
0.000346753
0.000327819
0.000308647
0.000289268
0.000269715
0.000250024
0.000230231
0.000210375
0.000190496
0.000170635
0.000150836
0.000131142
0.000111596
9.22434e-05
0.000638109
0.000627269
0.000616024
0.000604367
0.000592295
0.000579806
0.000566899
0.000553572
0.000539828
0.000525669
0.0005111
0.000496125
0.000480753
0.000464993
0.000448855
0.000432354
0.000415504
0.000398321
0.000380826
0.000363039
0.000344985
0.000326687
0.000308173
0.000289473
0.000270619
0.000251642
0.000232577
0.000213462
0.000194333
0.000175229
0.00015619
0.000137256
0.000118469
9.9869e-05
0.000629363
0.000618655
0.000607561
0.000596076
0.000584199
0.000571927
0.000559259
0.000546197
0.000532742
0.000518897
0.000504668
0.000490059
0.00047508
0.000459739
0.000444047
0.000428018
0.000411665
0.000395006
0.00037806
0.000360846
0.000343387
0.000325706
0.000307831
0.000289788
0.000271608
0.00025332
0.000234958
0.000216556
0.000198148
0.000179771
0.000161461
0.000143257
0.000125196
0.000107318
0.000631055
0.000620848
0.000610278
0.000599341
0.000588034
0.000576356
0.000564304
0.000551879
0.000539083
0.000525918
0.000512387
0.000498496
0.000484251
0.00046966
0.000454732
0.000439478
0.000423912
0.000408047
0.0003919
0.000375488
0.000358831
0.000341951
0.00032487
0.000307612
0.000290205
0.000272675
0.000255052
0.000237367
0.00021965
0.000201936
0.000184256
0.000166647
0.000149142
0.000131778
0.00011459
0.000622647
0.000612565
0.000602138
0.000591364
0.00058024
0.000568763
0.000556935
0.000544756
0.000532227
0.000519352
0.000506134
0.000492579
0.000478693
0.000464486
0.000449965
0.000435142
0.00042003
0.000404642
0.000388994
0.000373103
0.000356988
0.000340669
0.000324169
0.000307509
0.000290716
0.000273814
0.000256832
0.000239798
0.000222741
0.000205692
0.000188683
0.000171745
0.000154911
0.000138214
0.000121686
0.000614464
0.000604514
0.000594237
0.00058363
0.000572691
0.00056142
0.000549818
0.000537885
0.000525624
0.000513038
0.000500132
0.00048691
0.000473381
0.000459551
0.000445431
0.00043103
0.000416363
0.000401441
0.00038628
0.000370896
0.000355308
0.000339534
0.000323595
0.000307514
0.000291313
0.000275017
0.000258652
0.000242245
0.000225822
0.000209413
0.000193047
0.000176753
0.000160562
0.000144503
0.000128608
0.000606508
0.000596695
0.000586571
0.000576135
0.000565386
0.000554324
0.000542949
0.000531264
0.000519271
0.000506973
0.000494376
0.000481485
0.000468307
0.000454849
0.000441122
0.000427136
0.000412903
0.000398436
0.000383749
0.000368859
0.000353782
0.000338536
0.000323142
0.000307619
0.00029199
0.000276279
0.000260508
0.000244703
0.00022889
0.000213095
0.000197346
0.000181669
0.000166093
0.000150646
0.000135357
0.000598778
0.000589106
0.00057914
0.000568879
0.000558322
0.000547471
0.000536325
0.000524888
0.000513162
0.000501152
0.000488861
0.000476296
0.000463464
0.000450373
0.000437032
0.000423452
0.000409644
0.00039562
0.000381395
0.000366984
0.000352402
0.000337668
0.0003228
0.000307817
0.000292741
0.000277592
0.000262393
0.000247168
0.00023194
0.000216734
0.000201576
0.000186491
0.000171504
0.000156643
0.000141933
0.000591274
0.000581747
0.000571943
0.00056186
0.000551498
0.000540858
0.000529943
0.000518753
0.000507294
0.000495568
0.00048358
0.000471338
0.000458847
0.000446116
0.000433154
0.00041997
0.000406576
0.000392985
0.000379209
0.000365263
0.000351162
0.000336923
0.000322564
0.000308102
0.000293557
0.00027895
0.000264302
0.000249633
0.000234967
0.000220327
0.000205736
0.000191217
0.000176795
0.000162495
0.000148339
0.000583995
0.000574617
0.000564977
0.000555074
0.000544909
0.000534482
0.000523797
0.000512855
0.00050166
0.000490216
0.000478529
0.000466604
0.000454449
0.000442071
0.000429479
0.000416683
0.000403694
0.000390523
0.000377183
0.000363688
0.000350053
0.000336293
0.000322425
0.000308466
0.000294434
0.000280348
0.000266229
0.000252095
0.000237969
0.000223871
0.000209823
0.000195847
0.000181965
0.000168201
0.000154575
0.00057694
0.000567714
0.000558241
0.00054852
0.000538553
0.00052834
0.000517884
0.000507188
0.000496256
0.000485091
0.0004737
0.000462088
0.000450262
0.00043823
0.000426
0.000413583
0.000400987
0.000388226
0.00037531
0.000362253
0.000349068
0.000335771
0.000322377
0.000308903
0.000295365
0.000281781
0.000268169
0.000254549
0.00024094
0.000227362
0.000213834
0.000200378
0.000187014
0.000173762
0.000160643
0.000570107
0.000561036
0.000551732
0.000542195
0.000532426
0.000522426
0.000512199
0.000501748
0.000491076
0.000480187
0.000469088
0.000457783
0.000446281
0.000434587
0.000422712
0.000410663
0.000398451
0.000386087
0.000373582
0.000360948
0.0003482
0.00033535
0.000322413
0.000309406
0.000296343
0.000283241
0.000270118
0.000256991
0.000243878
0.000230798
0.000217769
0.00020481
0.000191941
0.000179179
0.000166546
0.000563494
0.000554581
0.000545448
0.000536095
0.000526524
0.000516738
0.000506739
0.00049653
0.000486115
0.000475498
0.000464686
0.000453683
0.000442497
0.000431135
0.000419605
0.000407915
0.000396076
0.000384098
0.000371991
0.000359768
0.000347441
0.000335022
0.000322527
0.000309969
0.000297363
0.000284725
0.000272071
0.000259417
0.00024678
0.000234177
0.000221625
0.000209142
0.000196746
0.000184454
0.000172283
0.000557101
0.000548346
0.000539384
0.000530216
0.000520844
0.00051127
0.000501497
0.000491528
0.000481367
0.000471018
0.000460488
0.000449782
0.000438905
0.000427866
0.000416673
0.000405333
0.000393856
0.000382252
0.000370531
0.000358704
0.000346784
0.000334782
0.000322712
0.000310587
0.000298421
0.000286228
0.000274024
0.000261823
0.000249642
0.000237496
0.000225401
0.000213373
0.000201429
0.000189585
0.000177858
0.000550923
0.000542328
0.000533539
0.000524556
0.000515382
0.000506019
0.000496469
0.000486737
0.000476826
0.000466742
0.000456488
0.000446071
0.000435498
0.000424774
0.000413908
0.000402908
0.000391783
0.000380542
0.000369194
0.000357751
0.000346223
0.000334623
0.000322962
0.000311253
0.00029951
0.000287744
0.000275972
0.000264206
0.000252461
0.000240752
0.000229094
0.000217502
0.000205991
0.000194575
0.000183271
0.000544959
0.000536525
0.000527908
0.00051911
0.000510132
0.000500978
0.00049165
0.000482152
0.000472488
0.000462662
0.00045268
0.000442546
0.000432268
0.000421852
0.000411305
0.000400635
0.000389851
0.00037896
0.000367974
0.000356901
0.000345752
0.000334539
0.000323272
0.000311963
0.000300625
0.00028927
0.000277911
0.000266562
0.000255235
0.000243945
0.000232705
0.000221529
0.000210431
0.000199425
0.000188525
0.000539206
0.000530933
0.000522488
0.000513874
0.000505091
0.000496144
0.000487035
0.000477767
0.000468345
0.000458773
0.000449056
0.0004392
0.00042921
0.000419093
0.000408856
0.000398506
0.000388052
0.000377501
0.000366863
0.000356148
0.000345364
0.000334523
0.000323635
0.000312711
0.000301762
0.000290801
0.000279839
0.000268888
0.000257962
0.000247072
0.000236231
0.000225453
0.00021475
0.000204135
0.000193621
0.000533661
0.000525549
0.000517276
0.000508843
0.000500255
0.000491512
0.000482618
0.000473577
0.000464392
0.000455069
0.000445611
0.000436025
0.000426316
0.00041649
0.000406553
0.000396514
0.000386379
0.000376157
0.000365856
0.000355485
0.000345053
0.00033457
0.000324046
0.000313491
0.000302917
0.000292332
0.00028175
0.000271181
0.000260638
0.000250131
0.000239672
0.000229274
0.000218949
0.000208707
0.000198561
0.00052832
0.000520368
0.000512266
0.000504015
0.000495617
0.000487076
0.000478394
0.000469575
0.000460624
0.000451543
0.000442339
0.000433016
0.000423579
0.000414036
0.000404391
0.000394653
0.000384827
0.000374922
0.000364946
0.000354907
0.000344814
0.000334675
0.000324501
0.0003143
0.000304084
0.000293861
0.000283643
0.000273439
0.000263262
0.000253121
0.000243027
0.000232992
0.000223027
0.000213141
0.000203348
0.000523181
0.000515389
0.000507455
0.000499383
0.000491174
0.000482831
0.000474358
0.000465757
0.000457033
0.00044819
0.000439233
0.000430166
0.000420995
0.000411725
0.000402363
0.000392916
0.000383389
0.00037379
0.000364127
0.000354408
0.00034464
0.000334832
0.000324994
0.000315133
0.00030526
0.000295383
0.000285513
0.000275659
0.000265831
0.00025604
0.000246295
0.000236607
0.000226985
0.00021744
0.000207981
0.000518239
0.000510605
0.000502839
0.000494944
0.00048692
0.000478773
0.000470504
0.000462117
0.000453615
0.000445004
0.000436287
0.000427469
0.000418555
0.000409551
0.000400463
0.000391296
0.000382058
0.000372754
0.000363393
0.000353981
0.000344526
0.000335036
0.00032552
0.000315985
0.000306441
0.000296895
0.000287358
0.000277838
0.000268345
0.000258888
0.000249475
0.000240117
0.000230824
0.000221603
0.000212465
0.000513492
0.000506014
0.000498414
0.000490692
0.000482852
0.000474896
0.000466827
0.000458648
0.000450364
0.000441978
0.000433495
0.000424919
0.000416254
0.000407508
0.000398684
0.000389789
0.000380828
0.000371809
0.000362738
0.000353621
0.000344467
0.000335282
0.000326075
0.000316852
0.000307622
0.000298394
0.000289175
0.000279975
0.000270801
0.000261662
0.000252567
0.000243525
0.000234544
0.000225633
0.0002168
0.000508934
0.000501612
0.000494175
0.000486624
0.000478963
0.000471194
0.000463321
0.000455346
0.000447274
0.000439107
0.000430851
0.000422509
0.000414087
0.000405589
0.00039702
0.000388387
0.000379694
0.000370949
0.000362157
0.000353324
0.000344458
0.000335566
0.000326654
0.00031773
0.000308802
0.000299876
0.000290962
0.000282066
0.000273197
0.000264362
0.00025557
0.000246829
0.000238146
0.00022953
0.000220988
0.000504564
0.000497394
0.000490117
0.000482735
0.000475249
0.000467664
0.000459982
0.000452205
0.000444338
0.000436385
0.000428349
0.000420234
0.000412046
0.000403788
0.000395466
0.000387085
0.00037865
0.000370168
0.000361644
0.000353084
0.000344495
0.000335882
0.000327254
0.000318616
0.000309975
0.00030134
0.000292716
0.000284111
0.000275532
0.000266988
0.000258484
0.00025003
0.000241631
0.000233296
0.000225031
0.000500376
0.000493357
0.000486237
0.000479019
0.000471706
0.0004643
0.000456803
0.00044922
0.000441553
0.000433806
0.000425983
0.000418088
0.000410126
0.0004021
0.000394015
0.000385877
0.000377691
0.000369462
0.000361195
0.000352896
0.000344572
0.000336228
0.00032787
0.000319505
0.00031114
0.000302781
0.000294434
0.000286106
0.000277805
0.000269537
0.000261309
0.000253127
0.000244999
0.000236932
0.000228931
0.000496367
0.000489495
0.00048253
0.000475473
0.000468328
0.000461096
0.00045378
0.000446385
0.000438912
0.000431365
0.000423749
0.000416066
0.000408321
0.000400519
0.000392663
0.000384759
0.000376811
0.000368824
0.000360804
0.000352756
0.000344685
0.000336598
0.000328499
0.000320395
0.000312293
0.000304197
0.000296115
0.000288052
0.000280015
0.00027201
0.000264043
0.000256122
0.000248252
0.000240439
0.000232689
0.000492534
0.000485806
0.000478992
0.000472092
0.00046511
0.000458048
0.000450909
0.000443695
0.00043641
0.000429057
0.00042164
0.000414162
0.000406627
0.00039904
0.000391404
0.000383724
0.000376005
0.000368251
0.000360467
0.000352659
0.000344831
0.000336988
0.000329137
0.000321283
0.00031343
0.000305586
0.000297756
0.000289945
0.000282159
0.000274405
0.000266688
0.000259014
0.000251389
0.000243818
0.000236308
0.000488871
0.000482285
0.000475618
0.000468872
0.000462049
0.000455151
0.000448182
0.000441145
0.000434042
0.000426876
0.000419651
0.00041237