/*--------------------------------*- C++ -*----------------------------------*\
| =========                 |                                                 |
| \\      /  F ield         | OpenFOAM: The Open Source CFD Toolbox           |
|  \\    /   O peration     | Version:  2412                                  |
|   \\  /    A nd           | Website:  www.openfoam.com                      |
|    \\/     M anipulation  |                                                 |
\*---------------------------------------------------------------------------*/
FoamFile
{
    version     2.0;
    format      ascii;
    arch        "LSB;label=32;scalar=64";
    class       volVectorField;
    location    "25";
    object      vorticity;
}
// * * * * * * * * * * * * * * * * * * * * * * * * * * * * * * * * * * * * * //

dimensions      [0 0 -1 0 0 0 0];

internalField   nonuniform List<vector> 
5285
(
(0 -0 5.93226e-06)
(0 -0 5.90763e-06)
(0 -0 5.88585e-06)
(0 -0 5.86412e-06)
(0 -0 5.83477e-06)
(0 -0 5.79807e-06)
(0 -0 5.79168e-06)
(0 -0 5.91409e-06)
(0 -0 6.31142e-06)
(0 -0 7.1162e-06)
(0 -0 8.36183e-06)
(0 -0 9.91852e-06)
(0 -0 1.149e-05)
(0 -0 1.26796e-05)
(0 -0 1.30999e-05)
(0 -0 1.24831e-05)
(0 -0 1.0753e-05)
(0 -0 8.03812e-06)
(0 -0 4.63125e-06)
(0 -0 9.15254e-07)
(0 -0 -2.71876e-06)
(0 -0 -5.93931e-06)
(0 -0 -8.51626e-06)
(0 -0 -1.03344e-05)
(0 -0 -1.13837e-05)
(0 -0 -1.17353e-05)
(0 -0 -1.15116e-05)
(0 -0 -1.08578e-05)
(0 -0 -9.91907e-06)
(0 -0 -8.82486e-06)
(0 -0 -7.68038e-06)
(0 -0 -6.5639e-06)
(0 -0 -5.52802e-06)
(0 -0 -4.60338e-06)
(0 -0 -3.8034e-06)
(0 -0 -3.12903e-06)
(0 -0 -2.57302e-06)
(0 -0 -2.12333e-06)
(0 -0 -1.76578e-06)
(0 -0 -1.48581e-06)
(0 -0 -1.26963e-06)
(0 -0 -1.10484e-06)
(0 -0 -9.80784e-07)
(0 -0 -8.88501e-07)
(0 -0 -8.20674e-07)
(0 -0 -7.71426e-07)
(0 -0 -7.36029e-07)
(0 -0 -7.10504e-07)
(0 -0 -6.90648e-07)
(0 -0 -6.69181e-07)
(0 -0 -6.26585e-07)
(0 -0 -5.017e-07)
(0 -0 -1.00128e-07)
(0 -0 1.1828e-06)
(0 4.41584e-23 5.16855e-06)
(0 -0 1.77964e-05)
(0 -0 1.77217e-05)
(0 -0 1.76553e-05)
(0 -0 1.75895e-05)
(0 -0 1.75016e-05)
(0 -0 1.73923e-05)
(0 -0 1.73736e-05)
(0 -0 1.77396e-05)
(0 -0 1.89266e-05)
(0 -0 2.13313e-05)
(0 -0 2.50548e-05)
(0 -0 2.97112e-05)
(0 -0 3.44175e-05)
(0 -0 3.79897e-05)
(0 -0 3.92703e-05)
(0 -0 3.74581e-05)
(0 -0 3.23222e-05)
(0 -0 2.42431e-05)
(0 -0 1.40916e-05)
(0 -0 3.00853e-06)
(0 -0 -7.83958e-06)
(0 -0 -1.7463e-05)
(0 -0 -2.51738e-05)
(0 -0 -3.06261e-05)
(0 -0 -3.37878e-05)
(0 -0 -3.4869e-05)
(0 -0 -3.42331e-05)
(0 -0 -3.23119e-05)
(0 -0 -2.95375e-05)
(0 -0 -2.62956e-05)
(0 -0 -2.29001e-05)
(0 -0 -1.95844e-05)
(0 -0 -1.65058e-05)
(0 -0 -1.37562e-05)
(0 -0 -1.13759e-05)
(0 -0 -9.36843e-06)
(0 -0 -7.71239e-06)
(0 -0 -6.37232e-06)
(0 -0 -5.30618e-06)
(0 -0 -4.47077e-06)
(0 -0 -3.82512e-06)
(0 -0 -3.33247e-06)
(0 -0 -2.96103e-06)
(0 -0 -2.68416e-06)
(0 -0 -2.48007e-06)
(0 -0 -2.3312e-06)
(0 -0 -2.22348e-06)
(0 -0 -2.14506e-06)
(0 -0 -2.08349e-06)
(0 -0 -2.0175e-06)
(0 -0 -1.89036e-06)
(0 -0 -1.52461e-06)
(0 -0 -3.5556e-07)
(0 -0 3.37607e-06)
(0 4.46276e-23 1.49789e-05)
(0 -0 2.96483e-05)
(0 -0 2.95236e-05)
(0 -0 2.94124e-05)
(0 -0 2.93025e-05)
(0 -0 2.91563e-05)
(0 -0 2.89748e-05)
(0 -0 2.89433e-05)
(0 -0 2.95487e-05)
(0 -0 3.15163e-05)
(0 -0 3.55068e-05)
(0 -0 4.16935e-05)
(0 -0 4.94429e-05)
(0 -0 5.72962e-05)
(0 -0 6.32918e-05)
(0 -0 6.55077e-05)
(0 -0 6.26078e-05)
(0 -0 5.41987e-05)
(0 -0 4.08996e-05)
(0 -0 2.41446e-05)
(0 -0 5.81792e-06)
(0 -0 -1.21495e-05)
(0 -0 -2.8116e-05)
(0 -0 -4.09374e-05)
(0 -0 -5.00345e-05)
(0 -0 -5.53477e-05)
(0 -0 -5.72187e-05)
(0 -0 -5.62444e-05)
(0 -0 -5.31364e-05)
(0 -0 -4.8608e-05)
(0 -0 -4.32968e-05)
(0 -0 -3.77221e-05)
(0 -0 -3.2271e-05)
(0 -0 -2.72048e-05)
(0 -0 -2.26766e-05)
(0 -0 -1.87544e-05)
(0 -0 -1.54447e-05)
(0 -0 -1.27134e-05)
(0 -0 -1.05024e-05)
(0 -0 -8.74278e-06)
(0 -0 -7.3636e-06)
(0 -0 -6.29746e-06)
(0 -0 -5.48377e-06)
(0 -0 -4.87016e-06)
(0 -0 -4.41272e-06)
(0 -0 -4.07551e-06)
(0 -0 -3.82957e-06)
(0 -0 -3.65169e-06)
(0 -0 -3.52241e-06)
(0 -0 -3.42161e-06)
(0 -0 -3.31568e-06)
(0 -0 -3.11629e-06)
(0 -0 -2.54763e-06)
(0 -0 -7.29814e-07)
(0 -0 5.08882e-06)
(0 2.63315e-22 2.32442e-05)
(0 -0 4.14799e-05)
(0 -0 4.13052e-05)
(0 -0 4.11491e-05)
(0 -0 4.0995e-05)
(0 -0 4.07911e-05)
(0 -0 4.0538e-05)
(0 -0 4.04923e-05)
(0 -0 4.13309e-05)
(0 -0 4.4064e-05)
(0 -0 4.96175e-05)
(0 -0 5.82436e-05)
(0 -0 6.90753e-05)
(0 -0 8.00953e-05)
(0 -0 8.85805e-05)
(0 -0 9.18529e-05)
(0 -0 8.804e-05)
(0 -0 7.65728e-05)
(0 -0 5.82881e-05)
(0 -0 3.51585e-05)
(0 -0 9.78872e-06)
(0 -0 -1.51439e-05)
(0 -0 -3.73563e-05)
(0 -0 -5.52502e-05)
(0 -0 -6.80091e-05)
(0 -0 -7.55368e-05)
(0 -0 -7.82951e-05)
(0 -0 -7.71023e-05)
(0 -0 -7.29385e-05)
(0 -0 -6.67888e-05)
(0 -0 -5.95353e-05)
(0 -0 -5.18983e-05)
(0 -0 -4.44158e-05)
(0 -0 -3.74516e-05)
(0 -0 -3.12203e-05)
(0 -0 -2.58185e-05)
(0 -0 -2.12573e-05)
(0 -0 -1.7491e-05)
(0 -0 -1.44409e-05)
(0 -0 -1.20128e-05)
(0 -0 -1.0109e-05)
(0 -0 -8.63717e-06)
(0 -0 -7.51379e-06)
(0 -0 -6.66678e-06)
(0 -0 -6.03564e-06)
(0 -0 -5.57077e-06)
(0 -0 -5.23222e-06)
(0 -0 -4.98801e-06)
(0 -0 -4.8115e-06)
(0 -0 -4.67576e-06)
(0 -0 -4.53752e-06)
(0 -0 -4.28568e-06)
(0 -0 -3.57514e-06)
(0 -0 -1.30113e-06)
(0 -0 6.01472e-06)
(0 -1.72855e-22 2.89907e-05)
(0 -0 5.32837e-05)
(0 -0 5.30584e-05)
(0 -0 5.28569e-05)
(0 -0 5.26588e-05)
(0 -0 5.23978e-05)
(0 -0 5.2074e-05)
(0 -0 5.20127e-05)
(0 -0 5.30758e-05)
(0 -0 5.65543e-05)
(0 -0 6.36396e-05)
(0 -0 7.46723e-05)
(0 -0 8.85703e-05)
(0 -0 0.000102781)
(0 -0 0.000113843)
(0 -0 0.000118332)
(0 -0 0.000113839)
(0 -0 9.96005e-05)
(0 -0 7.66438e-05)
(0 -0 4.74469e-05)
(0 -0 1.53035e-05)
(0 -0 -1.63864e-05)
(0 -0 -4.47126e-05)
(0 -0 -6.76263e-05)
(0 -0 -8.40681e-05)
(0 -0 -9.38932e-05)
(0 -0 -9.76683e-05)
(0 -0 -9.64165e-05)
(0 -0 -9.13714e-05)
(0 -0 -8.37772e-05)
(0 -0 -7.47514e-05)
(0 -0 -6.52082e-05)
(0 -0 -5.58328e-05)
(0 -0 -4.70904e-05)
(0 -0 -3.92569e-05)
(0 -0 -3.24586e-05)
(0 -0 -2.6713e-05)
(0 -0 -2.19654e-05)
(0 -0 -1.81182e-05)
(0 -0 -1.50539e-05)
(0 -0 -1.26506e-05)
(0 -0 -1.07918e-05)
(0 -0 -9.37296e-06)
(0 -0 -8.30317e-06)
(0 -0 -7.50621e-06)
(0 -0 -6.91953e-06)
(0 -0 -6.49277e-06)
(0 -0 -6.18564e-06)
(0 -0 -5.96482e-06)
(0 -0 -5.79768e-06)
(0 -0 -5.63457e-06)
(0 -0 -5.35306e-06)
(0 -0 -4.57729e-06)
(0 -0 -2.10109e-06)
(0 -0 5.91337e-06)
(0 8.53309e-23 3.13575e-05)
(0 -0 6.50532e-05)
(0 -0 6.4775e-05)
(0 -0 6.45275e-05)
(0 -0 6.42855e-05)
(0 -0 6.39684e-05)
(0 -0 6.3575e-05)
(0 -0 6.34963e-05)
(0 -0 6.47733e-05)
(0 -0 6.89727e-05)
(0 -0 7.75515e-05)
(0 -0 9.09501e-05)
(0 -0 0.000107894)
(0 -0 0.000125324)
(0 -0 0.000139065)
(0 -0 0.000144965)
(0 -0 0.000140071)
(0 -0 0.00012341)
(0 -0 9.61615e-05)
(0 -0 6.12705e-05)
(0 -0 2.26818e-05)
(0 -0 -1.55119e-05)
(0 -0 -4.97901e-05)
(0 -0 -7.76582e-05)
(0 -0 -9.78071e-05)
(0 -0 -0.000110029)
(0 -0 -0.000114977)
(0 -0 -0.000113859)
(0 -0 -0.000108144)
(0 -0 -9.93195e-05)
(0 -0 -8.87269e-05)
(0 -0 -7.74666e-05)
(0 -0 -6.63663e-05)
(0 -0 -5.59904e-05)
(0 -0 -4.66765e-05)
(0 -0 -3.8582e-05)
(0 -0 -3.17332e-05)
(0 -0 -2.60685e-05)
(0 -0 -2.14745e-05)
(0 -0 -1.78127e-05)
(0 -0 -1.4939e-05)
(0 -0 -1.27154e-05)
(0 -0 -1.10173e-05)
(0 -0 -9.7365e-06)
(0 -0 -8.78216e-06)
(0 -0 -8.0796e-06)
(0 -0 -7.5687e-06)
(0 -0 -7.20144e-06)
(0 -0 -6.93844e-06)
(0 -0 -6.74249e-06)
(0 -0 -6.56112e-06)
(0 -0 -6.27316e-06)
(0 -0 -5.51693e-06)
(0 -0 -3.13819e-06)
(0 -0 4.58052e-06)
(0 4.2104e-22 2.95287e-05)
(0 -0 7.67796e-05)
(0 -0 7.64458e-05)
(0 -0 7.61525e-05)
(0 -0 7.5867e-05)
(0 -0 7.5495e-05)
(0 -0 7.50334e-05)
(0 -0 7.49353e-05)
(0 -0 7.64142e-05)
(0 -0 8.13059e-05)
(0 -0 9.13339e-05)
(0 -0 0.00010705)
(0 -0 0.000127013)
(0 -0 0.000147692)
(0 -0 0.000164226)
(0 -0 0.000171753)
(0 -0 0.000166776)
(0 -0 0.000148085)
(0 -0 0.000116978)
(0 -0 7.68182e-05)
(0 -0 3.21595e-05)
(0 -0 -1.22467e-05)
(0 -0 -5.22896e-05)
(0 -0 -8.50342e-05)
(0 -0 -0.000108915)
(0 -0 -0.000123644)
(0 -0 -0.00012994)
(0 -0 -0.000129173)
(0 -0 -0.000123027)
(0 -0 -0.000113216)
(0 -0 -0.00010129)
(0 -0 -8.85272e-05)
(0 -0 -7.58929e-05)
(0 -0 -6.40485e-05)
(0 -0 -5.33929e-05)
(0 -0 -4.41166e-05)
(0 -0 -3.62567e-05)
(0 -0 -2.97482e-05)
(0 -0 -2.44645e-05)
(0 -0 -2.02493e-05)
(0 -0 -1.69387e-05)
(0 -0 -1.43752e-05)
(0 -0 -1.24163e-05)
(0 -0 -1.0938e-05)
(0 -0 -9.83587e-06)
(0 -0 -9.02421e-06)
(0 -0 -8.43388e-06)
(0 -0 -8.00972e-06)
(0 -0 -7.70693e-06)
(0 -0 -7.48477e-06)
(0 -0 -7.29114e-06)
(0 -0 -7.01755e-06)
(0 -0 -6.36066e-06)
(0 -0 -4.39067e-06)
(0 -0 1.85315e-06)
(0 -8.23614e-23 2.25742e-05)
(-1.75766e-23 7.92792e-21 3.17728e-06)
(-1.44684e-22 7.79498e-21 2.53353e-06)
(3.17771e-23 -1.93538e-22 1.6698e-06)
(3.88173e-23 -2.32679e-20 5.43245e-07)
(-9.04216e-23 7.94745e-21 -8.82076e-07)
(3.54488e-22 7.80564e-21 -2.63503e-06)
(-7.78412e-22 2.27576e-20 -4.73925e-06)
(3.05913e-22 -2.31216e-20 -7.21557e-06)
(6.15416e-22 -7.44044e-21 -1.00842e-05)
(-8.78082e-22 -3.6628e-24 -1.33665e-05)
(-8.76894e-22 -7.4529e-21 -1.70863e-05)
(7.6793e-22 7.08169e-21 -2.12709e-05)
(5.59112e-22 -5.83148e-20 -2.59522e-05)
(-1.03411e-21 1.25171e-19 -3.11668e-05)
(3.58011e-22 -6.73243e-20 -3.69554e-05)
(-1.20158e-21 -5.07556e-20 -4.33759e-05)
(-2.54802e-22 7.93834e-21 9.3655e-06)
(-1.05157e-22 1.56155e-20 7.37135e-06)
(2.93339e-22 7.59385e-21 4.66184e-06)
(-8.51245e-22 -7.80787e-21 1.11027e-06)
(1.5817e-21 7.44846e-21 -3.38482e-06)
(-4.79492e-22 -5.33189e-20 -8.90326e-06)
(-2.315e-22 8.46543e-20 -1.5511e-05)
(-5.45747e-23 -8.80277e-21 -2.32682e-05)
(2.14838e-21 -9.74702e-20 -3.2236e-05)
(-2.24257e-21 1.3759e-19 -4.24805e-05)
(-8.39285e-22 1.25726e-19 -5.40778e-05)
(6.21668e-22 -1.13086e-19 -6.71157e-05)
(-3.84232e-22 7.2009e-22 -8.16963e-05)
(2.74234e-21 -7.20219e-21 -9.7937e-05)
(-2.14132e-21 2.39239e-20 -0.000115978)
(-5.91301e-21 2.37775e-19 -0.00013598)
(-5.59443e-23 4.70388e-20 1.50271e-05)
(-8.82514e-23 1.48747e-20 1.14433e-05)
(3.86348e-22 -6.16182e-20 6.47704e-06)
(-8.26608e-22 1.22557e-19 -6.77331e-08)
(1.81793e-21 -2.62323e-19 -8.33287e-06)
(3.38681e-22 1.24715e-19 -1.84274e-05)
(-2.40124e-21 -8.51948e-22 -3.04467e-05)
(1.53862e-21 -1.69295e-20 -4.44865e-05)
(1.53554e-21 -2.5589e-19 -6.0652e-05)
(6.47512e-22 2.43799e-19 -7.90648e-05)
(-8.41055e-22 -1.59593e-21 -9.98668e-05)
(-4.13793e-21 -1.54071e-23 -0.000123225)
(6.56088e-21 -1.81767e-21 -0.000149333)
(-3.78807e-21 -2.49466e-19 -0.000178416)
(4.99014e-21 2.26661e-19 -0.000210735)
(-1.14334e-20 4.5037e-19 -0.000246616)
(4.11496e-22 -3.10245e-20 1.97043e-05)
(-3.65012e-22 1.56838e-20 1.39757e-05)
(6.75268e-22 -1.68239e-22 5.88328e-06)
(-5.99221e-22 -1.54299e-20 -4.76851e-06)
(-9.4467e-22 -1.42158e-21 -1.81023e-05)
(3.40258e-21 -2.42156e-19 -3.42216e-05)
(-4.85962e-21 4.58484e-19 -5.32383e-05)
(2.38752e-21 -2.4682e-19 -7.5287e-05)
(-1.80662e-21 1.48918e-20 -0.000100532)
(4.93028e-21 -2.70239e-19 -0.000129174)
(-5.89344e-21 2.46524e-19 -0.000161451)
(-4.34694e-21 4.70712e-19 -0.000197644)
(1.12179e-20 -9.52168e-19 -0.00023808)
(-1.3402e-20 9.51004e-19 -0.000283135)
(1.76118e-20 -9.46456e-19 -0.000333246)
(-1.17955e-20 9.37802e-19 -0.000388942)
(-7.31115e-22 1.57641e-20 2.28203e-05)
(-3.18022e-22 6.03921e-20 1.37511e-05)
(2.07943e-21 -1.83329e-19 8.89797e-07)
(-1.48558e-21 2.45975e-19 -1.57607e-05)
(-1.75259e-22 -1.08903e-19 -3.62137e-05)
(1.21044e-22 -1.45658e-20 -6.05428e-05)
(-4.76145e-22 1.53431e-20 -8.88875e-05)
(2.98714e-21 -1.84054e-22 -0.00012145)
(-2.82804e-21 -1.49974e-20 -0.000158495)
(-5.19453e-21 3.35939e-20 -0.000200345)
(-7.2686e-21 4.78768e-19 -0.000247386)
(1.85726e-20 -4.97573e-19 -0.000300072)
(-2.28362e-20 4.64065e-19 -0.000358926)
(1.91082e-20 -4.82707e-19 -0.000424548)
(-2.96778e-21 3.35257e-21 -0.000497628)
(1.0853e-20 4.69647e-23 -0.000578988)
(-7.60688e-22 7.60087e-20 2.353e-05)
(1.65591e-21 -4.63391e-20 8.50687e-06)
(-1.62991e-21 -1.63247e-20 -1.20344e-05)
(4.79725e-21 -2.27016e-19 -3.75801e-05)
(-2.45332e-21 2.28869e-19 -6.80488e-05)
(2.21456e-21 -2.26423e-19 -0.000103549)
(-1.12822e-20 4.99265e-19 -0.000144323)
(1.20845e-20 -6.99052e-19 -0.000190714)
(-7.84282e-21 4.9423e-19 -0.000243157)
(-6.34596e-21 4.81767e-19 -0.000302171)
(-2.20085e-21 3.95761e-21 -0.000368368)
(2.50959e-20 -9.4619e-19 -0.000442453)
(-2.21263e-20 9.84452e-19 -0.000525241)
(5.55097e-21 -4.63052e-19 -0.000617656)
(1.24947e-20 -4.6525e-19 -0.000720756)
(2.2726e-20 -4.5766e-19 -0.000835773)
(6.08961e-22 -1.58208e-20 2.07276e-05)
(1.77657e-21 -1.3502e-19 -6.45294e-06)
(-1.88499e-21 1.21752e-19 -3.8948e-05)
(-1.23933e-21 -1.71144e-20 -7.68508e-05)
(5.47658e-21 -2.25583e-19 -0.00012038)
(-5.07299e-21 2.31956e-19 -0.000169889)
(-6.21692e-21 4.68541e-19 -0.000225824)
(-5.02981e-21 -1.93957e-20 -0.00028873)
(2.16512e-21 -4.5815e-21 -0.000359244)
(1.47881e-20 -4.99521e-19 -0.000438102)
(-1.21553e-20 4.67268e-19 -0.000526143)
(1.86295e-20 -9.88442e-19 -0.000624324)
(-4.58429e-21 4.93995e-19 -0.000733733)
(-3.58533e-21 -1.85557e-20 -0.000855602)
(-4.79173e-21 -2.21786e-20 -0.000991313)
(2.94899e-20 -9.6921e-19 -0.00114242)
(-8.23819e-23 -0 2.0992e-05)
(-7.60504e-22 -0 4.25977e-05)
(6.79364e-22 -0 6.56912e-05)
(-8.73972e-23 -0 9.03169e-05)
(-1.34625e-21 -0 0.000116577)
(1.35065e-21 -0 0.000144601)
(2.90017e-21 -0 0.00017458)
(-4.26626e-23 -0 0.000206727)
(5.49326e-23 -0 0.000241284)
(-3.23923e-21 -0 0.000278521)
(3.17106e-21 -0 0.000318736)
(-6.74134e-21 -0 0.000362258)
(3.36527e-21 -0 0.000409446)
(-1.09008e-22 -0 0.000460692)
(-1.11772e-22 -0 0.000516438)
(-7.40875e-21 -0 0.000577224)
(0 -0 7.45255e-06)
(0 -0 1.95557e-05)
(0 -0 3.42406e-05)
(0 -0 5.10381e-05)
(0 -0 6.97077e-05)
(0 -0 9.02049e-05)
(0 -0 0.000112577)
(0 -0 0.000136926)
(0 -0 0.000163402)
(0 -0 0.000192189)
(0 -0 0.00022351)
(0 -0 0.00025762)
(0 -0 0.000294802)
(0 -0 0.000335364)
(0 -0 0.000379663)
(0 -0 0.000428193)
(0 -0 5.61162e-07)
(0 -0 7.30254e-06)
(0 -0 1.62263e-05)
(0 -0 2.70883e-05)
(0 -0 3.97236e-05)
(0 -0 5.40632e-05)
(0 -0 7.01018e-05)
(0 -0 8.7879e-05)
(0 -0 0.000107476)
(0 -0 0.00012901)
(0 -0 0.000152631)
(0 -0 0.000178515)
(0 -0 0.000206865)
(0 -0 0.000237895)
(0 -0 0.000271858)
(0 -0 0.000309157)
(0 -0 -2.96146e-06)
(0 -0 8.34638e-07)
(0 -0 6.14975e-06)
(0 -0 1.29692e-05)
(0 -0 2.12502e-05)
(0 -0 3.09792e-05)
(0 -0 4.21642e-05)
(0 -0 5.48325e-05)
(0 -0 6.90376e-05)
(0 -0 8.48589e-05)
(0 -0 0.0001024)
(0 -0 0.000121785)
(0 -0 0.000143154)
(0 -0 0.000166651)
(0 -0 0.000192452)
(0 -0 0.000220885)
(0 -0 -4.62421e-06)
(0 -0 -2.46734e-06)
(0 -0 6.78821e-07)
(0 -0 4.8873e-06)
(0 -0 1.01921e-05)
(0 -0 1.66339e-05)
(0 -0 2.42513e-05)
(0 -0 3.30817e-05)
(0 -0 4.31742e-05)
(0 -0 5.45915e-05)
(0 -0 6.74116e-05)
(0 -0 8.17252e-05)
(0 -0 9.76298e-05)
(0 -0 0.000115218)
(0 -0 0.000134606)
(0 -0 0.000156068)
(0 -0 -5.21573e-06)
(0 -0 -3.9776e-06)
(0 -0 -2.11354e-06)
(0 -0 4.61394e-07)
(0 -0 3.80765e-06)
(0 -0 7.99464e-06)
(0 -0 1.30826e-05)
(0 -0 1.91213e-05)
(0 -0 2.61624e-05)
(0 -0 3.42632e-05)
(0 -0 4.34878e-05)
(0 -0 5.39064e-05)
(0 -0 6.55877e-05)
(0 -0 7.85868e-05)
(0 -0 9.29761e-05)
(0 -0 0.000108991)
(0 -0 -5.16975e-06)
(0 -0 -4.45051e-06)
(0 -0 -3.33825e-06)
(0 -0 -1.76521e-06)
(0 -0 3.26161e-07)
(0 -0 3.0116e-06)
(0 -0 6.35926e-06)
(0 -0 1.04242e-05)
(0 -0 1.52598e-05)
(0 -0 2.09203e-05)
(0 -0 2.74619e-05)
(0 -0 3.49408e-05)
(0 -0 4.34063e-05)
(0 -0 5.2886e-05)
(0 -0 6.34192e-05)
(0 -0 7.52153e-05)
(0 -0 -4.74102e-06)
(0 -0 -4.31614e-06)
(0 -0 -3.64255e-06)
(0 -0 -2.67586e-06)
(0 -0 -1.37325e-06)
(0 -0 3.34818e-07)
(0 -0 2.51396e-06)
(0 -0 5.21731e-06)
(0 -0 8.496e-06)
(0 -0 1.24002e-05)
(0 -0 1.69792e-05)
(0 -0 2.22793e-05)
(0 -0 2.83348e-05)
(0 -0 3.51525e-05)
(0 -0 4.27465e-05)
(0 -0 5.13082e-05)
(0 -0 -4.08731e-06)
(0 -0 -3.82945e-06)
(0 -0 -3.41053e-06)
(0 -0 -2.80705e-06)
(0 -0 -1.99304e-06)
(0 -0 -9.09889e-07)
(0 -0 5.00151e-07)
(0 -0 2.28365e-06)
(0 -0 4.48601e-06)
(0 -0 7.15144e-06)
(0 -0 1.03223e-05)
(0 -0 1.40357e-05)
(0 -0 1.83141e-05)
(0 -0 2.31476e-05)
(0 -0 2.85297e-05)
(0 -0 3.46407e-05)
(0 -0 -3.31139e-06)
(0 -0 -3.14773e-06)
(0 -0 -2.87546e-06)
(0 -0 -2.4874e-06)
(0 -0 -1.97246e-06)
(0 -0 -1.28309e-06)
(0 -0 -3.70906e-07)
(0 -0 8.02196e-07)
(0 -0 2.27407e-06)
(0 -0 4.08171e-06)
(0 -0 6.25994e-06)
(0 -0 8.83763e-06)
(0 -0 1.18266e-05)
(0 -0 1.52025e-05)
(0 -0 1.89425e-05)
(0 -0 2.32192e-05)
(0 -0 -2.48306e-06)
(0 -0 -2.37168e-06)
(0 -0 -2.18269e-06)
(0 -0 -1.92083e-06)
(0 -0 -1.58688e-06)
(0 -0 -1.14253e-06)
(0 -0 -5.4799e-07)
(0 -0 2.26355e-07)
(0 -0 1.2105e-06)
(0 -0 2.43397e-06)
(0 -0 3.92412e-06)
(0 -0 5.70193e-06)
(0 -0 7.76975e-06)
(0 -0 1.00907e-05)
(0 -0 1.26274e-05)
(0 -0 1.55485e-05)
(0 -0 -1.65095e-06)
(0 -0 -1.56761e-06)
(0 -0 -1.42471e-06)
(0 -0 -1.23552e-06)
(0 -0 -1.0097e-06)
(0 -0 -7.15958e-07)
(0 -0 -3.21458e-07)
(0 -0 1.96008e-07)
(0 -0 8.59285e-07)
(0 -0 1.69094e-06)
(0 -0 2.71145e-06)
(0 -0 3.93454e-06)
(0 -0 5.35411e-06)
(0 -0 6.92212e-06)
(0 -0 8.58868e-06)
(0 -0 1.05205e-05)
(0 -0 -8.49063e-07)
(0 -0 -7.79781e-07)
(0 -0 -6.61162e-07)
(0 -0 -5.12637e-07)
(0 -0 -3.50397e-07)
(0 -0 -1.48046e-07)
(0 -0 1.22076e-07)
(0 -0 4.76219e-07)
(0 -0 9.31258e-07)
(0 -0 1.50382e-06)
(0 -0 2.2084e-06)
(0 -0 3.05236e-06)
(0 -0 4.02226e-06)
(0 -0 5.06018e-06)
(0 -0 6.10522e-06)
(0 -0 7.32395e-06)
(0 -0 -1.005e-07)
(0 -0 -3.72405e-08)
(0 -0 6.97951e-08)
(0 -0 1.96662e-07)
(0 -0 3.22357e-07)
(0 -0 4.70086e-07)
(0 -0 6.63888e-07)
(0 -0 9.15495e-07)
(0 -0 1.23712e-06)
(0 -0 1.64062e-06)
(0 -0 2.13553e-06)
(0 -0 2.72394e-06)
(0 -0 3.38616e-06)
(0 -0 4.05565e-06)
(0 -0 4.66178e-06)
(0 -0 5.3722e-06)
(0 -0 5.80157e-07)
(0 -0 6.41937e-07)
(0 -0 7.44683e-07)
(0 -0 8.61064e-07)
(0 -0 9.66456e-07)
(0 -0 1.08214e-06)
(0 -0 1.22975e-06)
(0 -0 1.41779e-06)
(0 -0 1.65499e-06)
(0 -0 1.94952e-06)
(0 -0 2.30706e-06)
(0 -0 2.72547e-06)
(0 -0 3.17987e-06)
(0 -0 3.59628e-06)
(0 -0 3.89552e-06)
(0 -0 4.24728e-06)
(0 -0 1.18513e-06)
(0 -0 1.24787e-06)
(0 -0 1.35041e-06)
(0 -0 1.46273e-06)
(0 -0 1.55745e-06)
(0 -0 1.65473e-06)
(0 -0 1.77481e-06)
(0 -0 1.92391e-06)
(0 -0 2.10829e-06)
(0 -0 2.3334e-06)
(0 -0 2.602e-06)
(0 -0 2.90867e-06)
(0 -0 3.22435e-06)
(0 -0 3.4687e-06)
(0 -0 3.55495e-06)
(0 -0 3.65568e-06)
(0 -0 1.71196e-06)
(0 -0 1.77686e-06)
(0 -0 1.88135e-06)
(0 -0 1.99321e-06)
(0 -0 2.08278e-06)
(0 -0 2.16976e-06)
(0 -0 2.27366e-06)
(0 -0 2.39917e-06)
(0 -0 2.55081e-06)
(0 -0 2.7321e-06)
(0 -0 2.94368e-06)
(0 -0 3.17767e-06)
(0 -0 3.40172e-06)
(0 -0 3.52996e-06)
(0 -0 3.46895e-06)
(0 -0 3.39468e-06)
(0 -0 2.16226e-06)
(0 -0 2.22977e-06)
(0 -0 2.33722e-06)
(0 -0 2.45044e-06)
(0 -0 2.53791e-06)
(0 -0 2.61924e-06)
(0 -0 2.71372e-06)
(0 -0 2.82501e-06)
(0 -0 2.95642e-06)
(0 -0 3.11019e-06)
(0 -0 3.28545e-06)
(0 -0 3.47251e-06)
(0 -0 3.63642e-06)
(0 -0 3.68658e-06)
(0 -0 3.52359e-06)
(0 -0 3.32728e-06)
(0 -0 2.5404e-06)
(0 -0 2.61052e-06)
(0 -0 2.72118e-06)
(0 -0 2.83653e-06)
(0 -0 2.92342e-06)
(0 -0 3.00169e-06)
(0 -0 3.0906e-06)
(0 -0 3.1932e-06)
(0 -0 3.31202e-06)
(0 -0 3.44843e-06)
(0 -0 3.6005e-06)
(0 -0 3.75731e-06)
(0 -0 3.8818e-06)
(0 -0 3.8793e-06)
(0 -0 3.64502e-06)
(0 -0 3.3629e-06)
(0 -0 2.8523e-06)
(0 -0 2.92468e-06)
(0 -0 3.03838e-06)
(0 -0 3.15598e-06)
(0 -0 3.24291e-06)
(0 -0 3.31934e-06)
(0 -0 3.40475e-06)
(0 -0 3.50177e-06)
(0 -0 3.6125e-06)
(0 -0 3.73769e-06)
(0 -0 3.87474e-06)
(0 -0 4.01182e-06)
(0 -0 4.11025e-06)
(0 -0 4.07177e-06)
(0 -0 3.78664e-06)
(0 -0 3.44293e-06)
(0 -0 3.10406e-06)
(0 -0 3.17816e-06)
(0 -0 3.29444e-06)
(0 -0 3.41403e-06)
(0 -0 3.50103e-06)
(0 -0 3.57602e-06)
(0 -0 3.65886e-06)
(0 -0 3.75195e-06)
(0 -0 3.85706e-06)
(0 -0 3.97458e-06)
(0 -0 4.10146e-06)
(0 -0 4.22525e-06)
(0 -0 4.306e-06)
(0 -0 4.2422e-06)
(0 -0 3.91961e-06)
(0 -0 3.53031e-06)
(0 -0 3.30079e-06)
(0 -0 3.37591e-06)
(0 -0 3.4941e-06)
(0 -0 3.61514e-06)
(0 -0 3.70185e-06)
(0 -0 3.7753e-06)
(0 -0 3.85583e-06)
(0 -0 3.94565e-06)
(0 -0 4.04632e-06)
(0 -0 4.15802e-06)
(0 -0 4.27745e-06)
(0 -0 4.39171e-06)
(0 -0 4.45978e-06)
(0 -0 4.37734e-06)
(0 -0 4.02589e-06)
(0 -0 3.60147e-06)
(0 -0 3.44547e-06)
(0 -0 3.52075e-06)
(0 -0 3.64e-06)
(0 -0 3.76174e-06)
(0 -0 3.84758e-06)
(0 -0 3.91911e-06)
(0 -0 3.99711e-06)
(0 -0 4.08364e-06)
(0 -0 4.18021e-06)
(0 -0 4.28684e-06)
(0 -0 4.4001e-06)
(0 -0 4.50678e-06)
(0 -0 4.56498e-06)
(0 -0 4.46788e-06)
(0 -0 4.09309e-06)
(0 -0 3.64051e-06)
(0 -0 3.53813e-06)
(0 -0 3.61252e-06)
(0 -0 3.73188e-06)
(0 -0 3.85345e-06)
(0 -0 3.93767e-06)
(0 -0 4.00663e-06)
(0 -0 4.08149e-06)
(0 -0 4.1643e-06)
(0 -0 4.2565e-06)
(0 -0 4.35805e-06)
(0 -0 4.46542e-06)
(0 -0 4.5652e-06)
(0 -0 4.61483e-06)
(0 -0 4.50529e-06)
(0 -0 4.11077e-06)
(0 -0 3.63516e-06)
(0 -0 3.57538e-06)
(0 -0 3.6478e-06)
(0 -0 3.7663e-06)
(0 -0 3.88679e-06)
(0 -0 3.96853e-06)
(0 -0 4.03399e-06)
(0 -0 4.10482e-06)
(0 -0 4.18307e-06)
(0 -0 4.27012e-06)
(0 -0 4.36592e-06)
(0 -0 4.46692e-06)
(0 -0 4.55959e-06)
(0 -0 4.6009e-06)
(0 -0 4.48006e-06)
(0 -0 4.06856e-06)
(0 -0 3.57478e-06)
(0 -0 3.55061e-06)
(0 -0 3.62028e-06)
(0 -0 3.73723e-06)
(0 -0 3.85578e-06)
(0 -0 3.93396e-06)
(0 -0 3.99476e-06)
(0 -0 4.06036e-06)
(0 -0 4.13278e-06)
(0 -0 4.21342e-06)
(0 -0 4.30227e-06)
(0 -0 4.39577e-06)
(0 -0 4.48039e-06)
(0 -0 4.51282e-06)
(0 -0 4.3812e-06)
(0 -0 3.95576e-06)
(0 -0 3.45092e-06)
(0 -0 3.45479e-06)
(0 -0 3.52213e-06)
(0 -0 3.63745e-06)
(0 -0 3.7531e-06)
(0 -0 3.82637e-06)
(0 -0 3.88098e-06)
(0 -0 3.93966e-06)
(0 -0 4.00453e-06)
(0 -0 4.07705e-06)
(0 -0 4.15724e-06)
(0 -0 4.24154e-06)
(0 -0 4.31648e-06)
(0 -0 4.33881e-06)
(0 -0 4.1967e-06)
(0 -0 3.76204e-06)
(0 -0 3.26051e-06)
(0 -0 3.32072e-06)
(0 -0 3.38681e-06)
(0 -0 3.50246e-06)
(0 -0 3.61439e-06)
(0 -0 3.68165e-06)
(0 -0 3.72896e-06)
(0 -0 3.77966e-06)
(0 -0 3.83596e-06)
(0 -0 3.89936e-06)
(0 -0 3.96982e-06)
(0 -0 4.04381e-06)
(0 -0 4.10799e-06)
(0 -0 4.11952e-06)
(0 -0 3.96813e-06)
(0 -0 3.53374e-06)
(0 -0 3.06776e-06)
(0 -0 3.3113e-06)
(0 -0 3.39095e-06)
(0 -0 3.51022e-06)
(0 -0 3.61986e-06)
(0 -0 3.68383e-06)
(0 -0 3.72749e-06)
(0 -0 3.77421e-06)
(0 -0 3.82609e-06)
(0 -0 3.88455e-06)
(0 -0 3.94946e-06)
(0 -0 4.01729e-06)
(0 -0 4.07486e-06)
(0 -0 4.0798e-06)
(0 -0 3.92486e-06)
(0 -0 3.50576e-06)
(0 -0 3.02234e-06)
(0 -0 3.65959e-06)
(0 -0 3.75122e-06)
(0 -0 3.86812e-06)
(0 -0 3.99257e-06)
(0 -0 4.06254e-06)
(0 -0 4.11481e-06)
(0 -0 4.16984e-06)
(0 -0 4.22953e-06)
(0 -0 4.29532e-06)
(0 -0 4.36714e-06)
(0 -0 4.4415e-06)
(0 -0 4.50506e-06)
(0 -0 4.51518e-06)
(0 -0 4.36467e-06)
(0 -0 3.91973e-06)
(0 -0 3.4184e-06)
(0 -0 8.87237e-05)
(0 -0 8.83393e-05)
(0 -0 8.80007e-05)
(0 -0 8.76714e-05)
(0 -0 8.72445e-05)
(0 -0 8.67147e-05)
(0 -0 8.65946e-05)
(0 -0 8.82668e-05)
(0 -0 9.38356e-05)
(0 -0 0.000105297)
(0 -0 0.000123333)
(0 -0 0.000146357)
(0 -0 0.000170392)
(0 -0 0.000189913)
(0 -0 0.000199348)
(0 -0 0.000194641)
(0 -0 0.000174314)
(0 -0 0.000139744)
(0 -0 9.46715e-05)
(0 -0 4.42234e-05)
(0 -0 -6.21168e-06)
(0 -0 -5.19418e-05)
(0 -0 -8.95873e-05)
(0 -0 -0.000117312)
(0 -0 -0.000134729)
(0 -0 -0.0001426)
(0 -0 -0.000142436)
(0 -0 -0.000136115)
(0 -0 -0.000125565)
(0 -0 -0.000112537)
(0 -0 -9.84777e-05)
(0 -0 -8.44878e-05)
(0 -0 -7.13253e-05)
(0 -0 -5.94523e-05)
(0 -0 -4.90943e-05)
(0 -0 -4.03029e-05)
(0 -0 -3.30122e-05)
(0 -0 -2.70858e-05)
(0 -0 -2.23524e-05)
(0 -0 -1.86305e-05)
(0 -0 -1.57452e-05)
(0 -0 -1.35377e-05)
(0 -0 -1.18694e-05)
(0 -0 -1.06237e-05)
(0 -0 -9.7043e-06)
(0 -0 -9.03382e-06)
(0 -0 -8.55039e-06)
(0 -0 -8.20423e-06)
(0 -0 -7.95183e-06)
(0 -0 -7.74353e-06)
(0 -0 -7.49075e-06)
(0 -0 -6.97817e-06)
(0 -0 -5.64999e-06)
(0 -0 -2.27179e-06)
(0 -0 4.17913e-06)
(0 -0 0.000100871)
(0 -0 0.000100442)
(0 -0 0.000100058)
(0 -0 9.96844e-05)
(0 -0 9.92028e-05)
(0 -0 9.86049e-05)
(0 -0 9.84598e-05)
(0 -0 0.000100315)
(0 -0 0.00010654)
(0 -0 0.00011941)
(0 -0 0.000139753)
(0 -0 0.000165869)
(0 -0 0.000193363)
(0 -0 0.000216067)
(0 -0 0.000227708)
(0 -0 0.000223656)
(0 -0 0.000202134)
(0 -0 0.000164548)
(0 -0 0.000114972)
(0 -0 5.90659e-05)
(0 -0 2.82608e-06)
(0 -0 -4.84857e-05)
(0 -0 -9.10428e-05)
(0 -0 -0.000122724)
(0 -0 -0.000143021)
(0 -0 -0.000152714)
(0 -0 -0.00015343)
(0 -0 -0.000147224)
(0 -0 -0.000136216)
(0 -0 -0.000122345)
(0 -0 -0.000107224)
(0 -0 -9.20819e-05)
(0 -0 -7.77743e-05)
(0 -0 -6.48273e-05)
(0 -0 -5.35044e-05)
(0 -0 -4.38747e-05)
(0 -0 -3.58756e-05)
(0 -0 -2.93641e-05)
(0 -0 -2.41567e-05)
(0 -0 -2.00576e-05)
(0 -0 -1.68766e-05)
(0 -0 -1.44406e-05)
(0 -0 -1.25981e-05)
(0 -0 -1.12212e-05)
(0 -0 -1.02044e-05)
(0 -0 -9.46255e-06)
(0 -0 -8.92783e-06)
(0 -0 -8.54594e-06)
(0 -0 -8.27117e-06)
(0 -0 -8.0568e-06)
(0 -0 -7.83332e-06)
(0 -0 -7.45787e-06)
(0 -0 -6.61291e-06)
(0 -0 -4.68214e-06)
(0 -0 -8.1427e-07)
(0 -0 0.000112945)
(0 -0 0.000112467)
(0 -0 0.000112038)
(0 -0 0.000111621)
(0 -0 0.000111086)
(0 -0 0.000110422)
(0 -0 0.00011025)
(0 -0 0.000112272)
(0 -0 0.000119116)
(0 -0 0.000133335)
(0 -0 0.000155917)
(0 -0 0.000185079)
(0 -0 0.000216051)
(0 -0 0.000242063)
(0 -0 0.000256165)
(0 -0 0.000253151)
(0 -0 0.000230919)
(0 -0 0.000190858)
(0 -0 0.000137318)
(0 -0 7.6434e-05)
(0 -0 1.47688e-05)
(0 -0 -4.18741e-05)
(0 -0 -8.92291e-05)
(0 -0 -0.000124882)
(0 -0 -0.000148186)
(0 -0 -0.00015991)
(0 -0 -0.000161772)
(0 -0 -0.000155974)
(0 -0 -0.00014481)
(0 -0 -0.000130388)
(0 -0 -0.000114474)
(0 -0 -9.8421e-05)
(0 -0 -8.31762e-05)
(0 -0 -6.93305e-05)
(0 -0 -5.71874e-05)
(0 -0 -4.68366e-05)
(0 -0 -3.82221e-05)
(0 -0 -3.11982e-05)
(0 -0 -2.55729e-05)
(0 -0 -2.11391e-05)
(0 -0 -1.76943e-05)
(0 -0 -1.50532e-05)
(0 -0 -1.30535e-05)
(0 -0 -1.15575e-05)
(0 -0 -1.04517e-05)
(0 -0 -9.64422e-06)
(0 -0 -9.06184e-06)
(0 -0 -8.64639e-06)
(0 -0 -8.35024e-06)
(0 -0 -8.12901e-06)
(0 -0 -7.92749e-06)
(0 -0 -7.65147e-06)
(0 -0 -7.11859e-06)
(0 -0 -6.00348e-06)
(0 -0 -3.83649e-06)
(0 -0 0.000124936)
(0 -0 0.000124407)
(0 -0 0.000123932)
(0 -0 0.000123473)
(0 -0 0.000122886)
(0 -0 0.000122158)
(0 -0 0.000121956)
(0 -0 0.00012413)
(0 -0 0.000131555)
(0 -0 0.000147063)
(0 -0 0.000171814)
(0 -0 0.000203972)
(0 -0 0.000238434)
(0 -0 0.000267867)
(0 -0 0.000284667)
(0 -0 0.000283058)
(0 -0 0.000260582)
(0 -0 0.000218571)
(0 -0 0.000161592)
(0 -0 9.62023e-05)
(0 -0 2.94871e-05)
(0 -0 -3.22353e-05)
(0 -0 -8.42699e-05)
(0 -0 -0.000123903)
(0 -0 -0.000150329)
(0 -0 -0.000164283)
(0 -0 -0.000167545)
(0 -0 -0.00016244)
(0 -0 -0.00015141)
(0 -0 -0.000136721)
(0 -0 -0.000120276)
(0 -0 -0.000103544)
(0 -0 -8.75649e-05)
(0 -0 -7.29916e-05)
(0 -0 -6.01696e-05)
(0 -0 -4.92121e-05)
(0 -0 -4.00733e-05)
(0 -0 -3.26082e-05)
(0 -0 -2.66199e-05)
(0 -0 -2.1893e-05)
(0 -0 -1.82155e-05)
(0 -0 -1.53924e-05)
(0 -0 -1.3252e-05)
(0 -0 -1.16488e-05)
(0 -0 -1.04622e-05)
(0 -0 -9.59447e-06)
(0 -0 -8.96788e-06)
(0 -0 -8.52084e-06)
(0 -0 -8.2039e-06)
(0 -0 -7.97408e-06)
(0 -0 -7.78574e-06)
(0 -0 -7.57481e-06)
(0 -0 -7.2347e-06)
(0 -0 -6.59227e-06)
(0 -0 -5.41217e-06)
(0 -0 0.000136833)
(0 -0 0.000136253)
(0 -0 0.000135733)
(0 -0 0.000135231)
(0 -0 0.000134594)
(0 -0 0.000133803)
(0 -0 0.00013357)
(0 -0 0.000135881)
(0 -0 0.000143853)
(0 -0 0.000160589)
(0 -0 0.000187438)
(0 -0 0.000222538)
(0 -0 0.000260491)
(0 -0 0.000293441)
(0 -0 0.000313154)
(0 -0 0.000313283)
(0 -0 0.000290999)
(0 -0 0.000247529)
(0 -0 0.000187605)
(0 -0 0.00011816)
(0 -0 4.67549e-05)
(0 -0 -1.98016e-05)
(0 -0 -7.63951e-05)
(0 -0 -0.000120007)
(0 -0 -0.000149656)
(0 -0 -0.000166021)
(0 -0 -0.000170917)
(0 -0 -0.000166767)
(0 -0 -0.000156145)
(0 -0 -0.000141452)
(0 -0 -0.00012472)
(0 -0 -0.000107531)
(0 -0 -9.10074e-05)
(0 -0 -7.58679e-05)
(0 -0 -6.25005e-05)
(0 -0 -5.10445e-05)
(0 -0 -4.14674e-05)
(0 -0 -3.36286e-05)
(0 -0 -2.73294e-05)
(0 -0 -2.2349e-05)
(0 -0 -1.84684e-05)
(0 -0 -1.5485e-05)
(0 -0 -1.32199e-05)
(0 -0 -1.15206e-05)
(0 -0 -1.02609e-05)
(0 -0 -9.33816e-06)
(0 -0 -8.67068e-06)
(0 -0 -8.1939e-06)
(0 -0 -7.85664e-06)
(0 -0 -7.6165e-06)
(0 -0 -7.43371e-06)
(0 -0 -7.26214e-06)
(0 -0 -7.03745e-06)
(0 -0 -6.66809e-06)
(0 -0 -6.04719e-06)
(0 -0 0.000148626)
(0 -0 0.000147997)
(0 -0 0.000147431)
(0 -0 0.000146886)
(0 -0 0.000146201)
(0 -0 0.00014535)
(0 -0 0.000145083)
(0 -0 0.000147519)
(0 -0 0.000156003)
(0 -0 0.000173911)
(0 -0 0.000202789)
(0 -0 0.000240774)
(0 -0 0.000282209)
(0 -0 0.000318749)
(0 -0 0.000341558)
(0 -0 0.000343721)
(0 -0 0.000322015)
(0 -0 0.000277529)
(0 -0 0.000215114)
(0 -0 0.000142026)
(0 -0 6.62679e-05)
(0 -0 -4.88969e-06)
(0 -0 -6.59219e-05)
(0 -0 -0.000113501)
(0 -0 -0.000146456)
(0 -0 -0.000165388)
(0 -0 -0.000172125)
(0 -0 -0.000169165)
(0 -0 -0.000159194)
(0 -0 -0.000144736)
(0 -0 -0.000127941)
(0 -0 -0.000110492)
(0 -0 -9.35983e-05)
(0 -0 -7.80395e-05)
(0 -0 -6.42484e-05)
(0 -0 -5.23929e-05)
(0 -0 -4.24564e-05)
(0 -0 -3.43057e-05)
(0 -0 -2.77433e-05)
(0 -0 -2.25457e-05)
(0 -0 -1.84892e-05)
(0 -0 -1.53656e-05)
(0 -0 -1.29902e-05)
(0 -0 -1.12052e-05)
(0 -0 -9.87961e-06)
(0 -0 -8.90669e-06)
(0 -0 -8.20137e-06)
(0 -0 -7.69653e-06)
(0 -0 -7.33937e-06)
(0 -0 -7.08751e-06)
(0 -0 -6.90451e-06)
(0 -0 -6.75454e-06)
(0 -0 -6.59682e-06)
(0 -0 -6.38396e-06)
(0 -0 -6.07781e-06)
(0 -0 0.000160308)
(0 -0 0.000159629)
(0 -0 0.000159018)
(0 -0 0.000158432)
(0 -0 0.000157699)
(0 -0 0.000156788)
(0 -0 0.000156487)
(0 -0 0.000159035)
(0 -0 0.000168002)
(0 -0 0.00018703)
(0 -0 0.000217869)
(0 -0 0.000258681)
(0 -0 0.000303578)
(0 -0 0.000343761)
(0 -0 0.000369812)
(0 -0 0.000374254)
(0 -0 0.000353459)
(0 -0 0.000308343)
(0 -0 0.000243835)
(0 -0 0.000167472)
(0 -0 8.76639e-05)
(0 -0 1.21204e-05)
(0 -0 -5.32333e-05)
(0 -0 -0.000104759)
(0 -0 -0.000141082)
(0 -0 -0.000162708)
(0 -0 -0.00017146)
(0 -0 -0.000169892)
(0 -0 -0.000160782)
(0 -0 -0.000146764)
(0 -0 -0.000130099)
(0 -0 -0.000112566)
(0 -0 -9.54528e-05)
(0 -0 -7.96039e-05)
(0 -0 -6.54962e-05)
(0 -0 -5.33282e-05)
(0 -0 -4.31019e-05)
(0 -0 -3.46939e-05)
(0 -0 -2.79105e-05)
(0 -0 -2.25278e-05)
(0 -0 -1.83195e-05)
(0 -0 -1.50735e-05)
(0 -0 -1.26008e-05)
(0 -0 -1.07394e-05)
(0 -0 -9.35425e-06)
(0 -0 -8.33541e-06)
(0 -0 -7.59496e-06)
(0 -0 -7.06357e-06)
(0 -0 -6.68693e-06)
(0 -0 -6.42231e-06)
(0 -0 -6.23499e-06)
(0 -0 -6.09489e-06)
(0 -0 -5.97434e-06)
(0 -0 -5.85002e-06)
(0 -0 -5.72105e-06)
(0 -0 0.000171869)
(0 -0 0.000171141)
(0 -0 0.000170486)
(0 -0 0.000169858)
(0 -0 0.000169079)
(0 -0 0.000168111)
(0 -0 0.000167774)
(0 -0 0.000170425)
(0 -0 0.000179847)
(0 -0 0.000199947)
(0 -0 0.000232687)
(0 -0 0.000276265)
(0 -0 0.000324596)
(0 -0 0.000368451)
(0 -0 0.000397851)