/*--------------------------------*- C++ -*----------------------------------*\
| =========                 |                                                 |
| \\      /  F ield         | OpenFOAM: The Open Source CFD Toolbox           |
|  \\    /   O peration     | Version:  2412                                  |
|   \\  /    A nd           | Website:  www.openfoam.com                      |
|    \\/     M anipulation  |                                                 |
\*---------------------------------------------------------------------------*/
FoamFile
{
    version     2.0;
    format      ascii;
    arch        "LSB;label=32;scalar=64";
    class       volVectorField;
    location    "7";
    object      U;
}
// * * * * * * * * * * * * * * * * * * * * * * * * * * * * * * * * * * * * * //

dimensions      [0 1 -1 0 0 0 0];

internalField   nonuniform List<vector> 
5285
(
(0.106398 0.000755483 0)
(0.10636 0.000975845 0)
(0.106312 0.00118979 0)
(0.106257 0.00139563 0)
(0.106194 0.00159206 0)
(0.106123 0.00177814 0)
(0.106044 0.00195336 0)
(0.105957 0.00211751 0)
(0.105863 0.00227062 0)
(0.10576 0.00241288 0)
(0.105649 0.00254459 0)
(0.105531 0.00266622 0)
(0.105406 0.00277833 0)
(0.105274 0.00288162 0)
(0.105136 0.00297686 0)
(0.104995 0.00306483 0)
(0.10485 0.00314627 0)
(0.104702 0.00322177 0)
(0.104552 0.00329176 0)
(0.104402 0.00335646 0)
(0.104251 0.00341593 0)
(0.104101 0.0034701 0)
(0.103951 0.00351879 0)
(0.103802 0.00356182 0)
(0.106585 0.000790331 0)
(0.106545 0.00101965 0)
(0.106496 0.0012419 0)
(0.106438 0.00145567 0)
(0.106373 0.00165987 0)
(0.1063 0.00185377 0)
(0.106219 0.00203697 0)
(0.10613 0.00220935 0)
(0.106032 0.00237087 0)
(0.105926 0.00252158 0)
(0.10581 0.00266158 0)
(0.105686 0.00279106 0)
(0.105554 0.00291035 0)
(0.105414 0.00301995 0)
(0.105269 0.00312049 0)
(0.105118 0.00321271 0)
(0.104964 0.00329734 0)
(0.104806 0.00337507 0)
(0.104647 0.00344641 0)
(0.104487 0.00351173 0)
(0.104327 0.0035712 0)
(0.104167 0.00362483 0)
(0.104008 0.00367255 0)
(0.103851 0.00371423 0)
(0.106786 0.000827082 0)
(0.106744 0.00106541 0)
(0.106692 0.00129606 0)
(0.106632 0.00151787 0)
(0.106564 0.00173002 0)
(0.106488 0.00193199 0)
(0.106404 0.00212357 0)
(0.106311 0.00230469 0)
(0.106209 0.00247527 0)
(0.106097 0.00263519 0)
(0.105975 0.0027843 0)
(0.105844 0.00292249 0)
(0.105705 0.0030498 0)
(0.105557 0.00316646 0)
(0.105403 0.00327294 0)
(0.105243 0.0033699 0)
(0.105079 0.00345808 0)
(0.104912 0.00353822 0)
(0.104742 0.00361097 0)
(0.104572 0.00367682 0)
(0.104402 0.00373609 0)
(0.104233 0.00378892 0)
(0.104064 0.00383533 0)
(0.103898 0.00387528 0)
(0.107003 0.000865983 0)
(0.106958 0.00111366 0)
(0.106902 0.00135302 0)
(0.106839 0.00158318 0)
(0.106768 0.00180361 0)
(0.106687 0.00201404 0)
(0.106598 0.00221445 0)
(0.1065 0.00240484 0)
(0.106392 0.00258508 0)
(0.106273 0.00275489 0)
(0.106145 0.00291381 0)
(0.106006 0.00306143 0)
(0.105858 0.00319743 0)
(0.105702 0.00332178 0)
(0.105538 0.00343474 0)
(0.105368 0.00353686 0)
(0.105194 0.00362887 0)
(0.105016 0.00371158 0)
(0.104837 0.00378576 0)
(0.104656 0.00385205 0)
(0.104476 0.00391093 0)
(0.104296 0.00396267 0)
(0.104118 0.00400742 0)
(0.103943 0.00404524 0)
(0.107236 0.000907381 0)
(0.107188 0.001165 0)
(0.107129 0.00141364 0)
(0.107061 0.00165269 0)
(0.106984 0.00188194 0)
(0.106898 0.00210136 0)
(0.106803 0.00231113 0)
(0.106697 0.00251133 0)
(0.106582 0.00270179 0)
(0.106456 0.00288203 0)
(0.106319 0.00305134 0)
(0.106171 0.00320893 0)
(0.106014 0.00335415 0)
(0.105848 0.00348666 0)
(0.105674 0.00360649 0)
(0.105493 0.00371407 0)
(0.105308 0.00381011 0)
(0.10512 0.00389549 0)
(0.10493 0.00397108 0)
(0.104738 0.0040377 0)
(0.104548 0.00409597 0)
(0.104358 0.00414633 0)
(0.10417 0.00418908 0)
(0.103985 0.00422438 0)
(0.107487 0.000951683 0)
(0.107435 0.00122012 0)
(0.107371 0.00147886 0)
(0.107298 0.0017276 0)
(0.107215 0.0019664 0)
(0.107121 0.0021955 0)
(0.107018 0.00241525 0)
(0.106904 0.00262582 0)
(0.106779 0.00282701 0)
(0.106643 0.00301815 0)
(0.106496 0.00319825 0)
(0.106339 0.00336619 0)
(0.106171 0.00352097 0)
(0.105994 0.00366193 0)
(0.105809 0.00378888 0)
(0.105618 0.0039021 0)
(0.105421 0.00400227 0)
(0.105222 0.00409033 0)
(0.10502 0.00416727 0)
(0.104818 0.00423406 0)
(0.104617 0.00429149 0)
(0.104416 0.00434018 0)
(0.104218 0.00438056 0)
(0.104023 0.00441293 0)
(0.107756 0.000999329 0)
(0.107701 0.00127971 0)
(0.10763 0.00154966 0)
(0.10755 0.00180912 0)
(0.10746 0.00205842 0)
(0.107358 0.00229804 0)
(0.107245 0.00252849 0)
(0.10712 0.00275003 0)
(0.106985 0.00296242 0)
(0.106838 0.00316484 0)
(0.106679 0.00335602 0)
(0.10651 0.00353453 0)
(0.10633 0.00369903 0)
(0.106141 0.00384856 0)
(0.105944 0.0039827 0)
(0.105741 0.00410159 0)
(0.105533 0.00420588 0)
(0.105322 0.00429655 0)
(0.105109 0.00437471 0)
(0.104895 0.00444147 0)
(0.104682 0.0044978 0)
(0.104471 0.0045445 0)
(0.104263 0.00458214 0)
(0.104058 0.00461117 0)
(0.108045 0.00105079 0)
(0.107984 0.00134451 0)
(0.107907 0.001627 0)
(0.107819 0.00189845 0)
(0.10772 0.0021594 0)
(0.107607 0.00241053 0)
(0.107483 0.0026525 0)
(0.107347 0.00288566 0)
(0.107199 0.00310971 0)
(0.107039 0.00332371 0)
(0.106867 0.00352615 0)
(0.106685 0.00371531 0)
(0.106492 0.00388954 0)
(0.10629 0.00404761 0)
(0.10608 0.00418886 0)
(0.105864 0.00431333 0)
(0.105644 0.00442161 0)
(0.10542 0.00451472 0)
(0.105195 0.00459389 0)
(0.104969 0.00466037 0)
(0.104745 0.0047153 0)
(0.104523 0.00475964 0)
(0.104303 0.00479414 0)
(0.104088 0.00481937 0)
(0.108352 0.00110657 0)
(0.108287 0.00141524 0)
(0.108202 0.00171184 0)
(0.108105 0.00199674 0)
(0.107995 0.00227067 0)
(0.107872 0.00253444 0)
(0.107735 0.00278886 0)
(0.107585 0.00303432 0)
(0.107423 0.00327052 0)
(0.107248 0.00349636 0)
(0.107062 0.00371018 0)
(0.106865 0.00390996 0)
(0.106657 0.00409382 0)
(0.106441 0.00426025 0)
(0.106217 0.00440842 0)
(0.105987 0.00453824 0)
(0.105753 0.00465026 0)
(0.105516 0.00474555 0)
(0.105278 0.00482542 0)
(0.10504 0.00489129 0)
(0.104804 0.00494445 0)
(0.10457 0.00498603 0)
(0.104339 0.00501693 0)
(0.104113 0.00503787 0)
(0.10868 0.00116721 0)
(0.108609 0.00149266 0)
(0.108515 0.00180513 0)
(0.108409 0.00210513 0)
(0.108287 0.00239351 0)
(0.108151 0.0026712 0)
(0.108 0.00293908 0)
(0.107835 0.0031976 0)
(0.107657 0.00344643 0)
(0.107467 0.00368439 0)
(0.107264 0.00390964 0)
(0.107051 0.00411997 0)
(0.106827 0.00431324 0)
(0.106595 0.00448777 0)
(0.106356 0.00464254 0)
(0.106111 0.00477737 0)
(0.105862 0.00489278 0)
(0.105611 0.00498987 0)
(0.105359 0.00507006 0)
(0.105108 0.0051349 0)
(0.104859 0.00518584 0)
(0.104612 0.00522417 0)
(0.10437 0.00525096 0)
(0.104132 0.00526707 0)
(0.10903 0.00123331 0)
(0.108951 0.00157754 0)
(0.108848 0.00190782 0)
(0.108731 0.00222471 0)
(0.108597 0.00252916 0)
(0.108446 0.00282214 0)
(0.10828 0.0031046 0)
(0.108098 0.003377 0)
(0.107903 0.00363901 0)
(0.107695 0.00388937 0)
(0.107475 0.00412611 0)
(0.107243 0.00434685 0)
(0.107002 0.00454929 0)
(0.106753 0.00473156 0)
(0.106497 0.00489253 0)
(0.106236 0.00503192 0)
(0.105971 0.00515025 0)
(0.105705 0.00524866 0)
(0.105438 0.00532868 0)
(0.105172 0.00539197 0)
(0.104909 0.00544016 0)
(0.10465 0.00547467 0)
(0.104395 0.00549676 0)
(0.104146 0.00550741 0)
(0.109401 0.00130551 0)
(0.109315 0.00167071 0)
(0.109202 0.00202089 0)
(0.109072 0.00235663 0)
(0.108925 0.00267889 0)
(0.108758 0.00298866 0)
(0.108575 0.00328689 0)
(0.108375 0.00357407 0)
(0.108161 0.00384984 0)
(0.107934 0.00411291 0)
(0.107694 0.0043612 0)
(0.107443 0.00459222 0)
(0.107183 0.00480353 0)
(0.106915 0.00499313 0)
(0.10664 0.0051598 0)
(0.106362 0.00530322 0)
(0.10608 0.00542391 0)
(0.105797 0.00552306 0)
(0.105514 0.00560229 0)
(0.105233 0.00566341 0)
(0.104956 0.00570819 0)
(0.104683 0.00573823 0)
(0.104415 0.00575491 0)
(0.104153 0.0057594 0)
(0.109796 0.00138452 0)
(0.109702 0.00177308 0)
(0.109577 0.0021454 0)
(0.109435 0.00250207 0)
(0.109272 0.00284401 0)
(0.109088 0.00317216 0)
(0.108886 0.00348746 0)
(0.108667 0.00379039 0)
(0.108433 0.00408058 0)
(0.108184 0.00435669 0)
(0.107923 0.00461661 0)
(0.107651 0.00485776 0)
(0.10737 0.00507761 0)
(0.107081 0.00527409 0)
(0.106787 0.00544591 0)
(0.106489 0.00559274 0)
(0.106188 0.00571511 0)
(0.105887 0.00581429 0)
(0.105587 0.00589202 0)
(0.10529 0.00595022 0)
(0.104997 0.00599082 0)
(0.104709 0.00601559 0)
(0.104428 0.00602607 0)
(0.104153 0.00602358 0)
(0.110218 0.00147115 0)
(0.110114 0.00188562 0)
(0.109976 0.00228252 0)
(0.109819 0.00266235 0)
(0.109639 0.00302596 0)
(0.109438 0.00337419 0)
(0.109215 0.00370794 0)
(0.108975 0.00402766 0)
(0.108718 0.00433297 0)
(0.108446 0.00462252 0)
(0.108162 0.00489417 0)
(0.107867 0.0051453 0)
(0.107563 0.00537334 0)
(0.107252 0.00557618 0)
(0.106936 0.00575252 0)
(0.106617 0.00590204 0)
(0.106296 0.00602532 0)
(0.105976 0.00612371 0)
(0.105657 0.00619907 0)
(0.105343 0.00625347 0)
(0.105033 0.006289 0)
(0.10473 0.00630758 0)
(0.104434 0.00631094 0)
(0.104146 0.00630054 0)
(0.110667 0.00156629 0)
(0.110553 0.00200947 0)
(0.110401 0.00243355 0)
(0.110228 0.00283893 0)
(0.11003 0.00322633 0)
(0.109807 0.00359647 0)
(0.109563 0.00395014 0)
(0.109299 0.00428776 0)
(0.109018 0.00460895 0)
(0.108722 0.00491237 0)
(0.108412 0.00519585 0)
(0.108092 0.00545681 0)
(0.107763 0.00569265 0)
(0.107428 0.00590129 0)
(0.107088 0.00608144 0)
(0.106745 0.00623283 0)
(0.106403 0.00635611 0)
(0.106062 0.00645276 0)
(0.105723 0.00652475 0)
(0.10539 0.00657433 0)
(0.105063 0.00660373 0)
(0.104743 0.00661508 0)
(0.104431 0.00661025 0)
(0.104129 0.00659088 0)
(0.111147 0.00167095 0)
(0.111021 0.00214588 0)
(0.110853 0.00259996 0)
(0.110662 0.00303347 0)
(0.110444 0.00344696 0)
(0.1102 0.00384094 0)
(0.109931 0.00421611 0)
(0.109642 0.00457283 0)
(0.109334 0.00491071 0)
(0.10901 0.00522842 0)
(0.108673 0.00552386 0)
(0.108325 0.00579445 0)
(0.107969 0.00603767 0)
(0.107607 0.00625146 0)
(0.107241 0.00643461 0)
(0.106874 0.00658693 0)
(0.106508 0.00670918 0)
(0.106144 0.00680298 0)
(0.105785 0.00687045 0)
(0.105431 0.00691401 0)
(0.105085 0.00693609 0)
(0.104748 0.00693899 0)
(0.10442 0.00692476 0)
(0.104103 0.00689521 0)
(0.11166 0.0017863 0)
(0.111521 0.0022963 0)
(0.111336 0.00278346 0)
(0.111125 0.00324789 0)
(0.110885 0.00368992 0)
(0.110616 0.00410983 0)
(0.11032 0.00450817 0)
(0.110003 0.00488525 0)
(0.109665 0.00524067 0)
(0.109312 0.00557315 0)
(0.108945 0.00588063 0)
(0.108567 0.00616063 0)
(0.108181 0.0064107 0)
(0.10779 0.0066289 0)
(0.107396 0.00681412 0)
(0.107002 0.00696629 0)
(0.10661 0.00708633 0)
(0.106222 0.00717599 0)
(0.10584 0.00723762 0)
(0.105465 0.00727379 0)
(0.105099 0.00728717 0)
(0.104743 0.00728022 0)
(0.104398 0.00725522 0)
(0.104065 0.00721414 0)
(0.11221 0.00191366 0)
(0.112057 0.00246238 0)
(0.111852 0.00298601 0)
(0.111619 0.00348439 0)
(0.111354 0.00395762 0)
(0.111057 0.0044057 0)
(0.110733 0.00482901 0)
(0.110384 0.00522778 0)
(0.110014 0.00560161 0)
(0.109628 0.0059493 0)
(0.109228 0.00626888 0)
(0.108817 0.00655798 0)
(0.108399 0.00681431 0)
(0.107976 0.00703604 0)
(0.107552 0.00722225 0)
(0.107129 0.00737301 0)
(0.106709 0.00748945 0)
(0.106295 0.00757352 0)
(0.105888 0.00762776 0)
(0.10549 0.00765499 0)
(0.105102 0.00765808 0)
(0.104727 0.00763972 0)
(0.104364 0.00760238 0)
(0.104015 0.00754825 0)
(0.108164 0.00747551 0)
(0.107707 0.00766142 0)
(0.107252 0.00780932 0)
(0.106802 0.00792057 0)
(0.10636 0.00799735 0)
(0.105927 0.00804245 0)
(0.105504 0.00805895 0)
(0.105094 0.00804996 0)
(0.104698 0.00801841 0)
(0.104317 0.00796699 0)
(0.103951 0.0078981 0)
(0.106398 -0.000717138 1.67281e-25)
(0.106427 -0.000518742 7.83809e-26)
(0.106446 -0.000314706 1.46809e-25)
(0.106455 -0.000105732 -2.05275e-25)
(0.106455 0.000107025 2.78477e-26)
(0.106445 0.000321937 -5.56897e-25)
(0.106426 0.000537051 1.00186e-25)
(0.106578 -0.000750992 1.32456e-25)
(0.106608 -0.000542119 8.04838e-26)
(0.106628 -0.00032758 1.9599e-25)
(0.106639 -0.000108234 6.20343e-26)
(0.106639 0.000114576 5.45543e-26)
(0.10663 0.000339024 2.40994e-25)
(0.106613 0.000562996 2.41834e-24)
(0.106769 -0.000786105 -4.61473e-26)
(0.106801 -0.000566039 -1.88919e-25)
(0.106823 -0.000340346 -3.55254e-25)
(0.106835 -0.000110062 -9.27921e-26)
(0.106836 0.000123276 1.61694e-24)
(0.106829 0.000357642 2.05837e-25)
(0.106814 0.000590767 -2.23314e-24)
(0.106973 -0.000822933 -4.23084e-26)
(0.107007 -0.000590954 -1.29307e-25)
(0.107031 -0.000353433 -1.06325e-24)
(0.107044 -0.000111593 1.20398e-25)
(0.107048 0.000132826 -4.22e-24)
(0.107042 0.000377606 6.05488e-24)
(0.10703 0.000620335 3.89644e-25)
(0.107189 -0.000862028 3.86225e-27)
(0.107226 -0.000617361 -3.85901e-27)
(0.107253 -0.000367267 2.94699e-24)
(0.107269 -0.000113168 9.95078e-26)
(0.107275 0.000143 2.19739e-24)
(0.107272 0.000398837 -5.95558e-24)
(0.107262 0.000651804 9.09084e-24)
(0.10742 -0.000904 -5.25999e-26)
(0.10746 -0.000645812 -1.64818e-25)
(0.10749 -0.00038233 -1.87133e-24)
(0.10751 -0.000115163 6.8329e-24)
(0.107519 0.000153564 4.26365e-25)
(0.107519 0.000421282 9.47329e-24)
(0.107513 0.000685344 -9.00013e-24)
(0.107665 -0.000949473 -3.00959e-25)
(0.10771 -0.000676873 -4.28521e-25)
(0.107744 -0.000399099 -1.1176e-25)
(0.107767 -0.000117943 -1.47564e-23)
(0.10778 0.000164302 -5.41488e-25)
(0.107784 0.000444915 -2.29268e-23)
(0.107781 0.000721152 -2.64293e-23)
(0.107925 -0.00099907 2.45817e-25)
(0.107975 -0.000711085 1.58596e-25)
(0.108014 -0.000418021 5.53612e-25)
(0.108042 -0.000121827 8.90875e-24)
(0.108059 0.00017505 1.0599e-25)
(0.108067 0.000469759 3.88857e-23)
(0.108069 0.000759469 2.81051e-23)
(0.108202 -0.0010534 2.16391e-25)
(0.108257 -0.000748958 3.70142e-24)
(0.108301 -0.000439486 1.15151e-23)
(0.108334 -0.000127072 -7.94054e-25)
(0.108357 0.000185712 7.93938e-25)
(0.108369 0.0004959 -2.84627e-23)
(0.108376 0.000800586 0)
(0.108496 -0.00111303 0)
(0.108557 -0.000790959 -5.15548e-24)
(0.108607 -0.000463833 -1.10723e-23)
(0.108646 -0.000133866 1.68663e-23)
(0.108673 0.000196263 -1.97991e-24)
(0.108691 0.000523494 -3.79017e-23)
(0.108704 0.000844851 4.24359e-23)
(0.108807 -0.00117855 3.42812e-25)
(0.108875 -0.000837522 -6.95214e-24)
(0.108932 -0.000491348 0)
(0.108977 -0.000142339 -1.51181e-23)
(0.109011 0.000206744 -3.90886e-23)
(0.109033 0.000552759 -6.43266e-24)
(0.109052 0.000892669 -8.67171e-23)
(0.109138 -0.00125052 -4.1212e-25)
(0.109214 -0.000889065 6.04706e-24)
(0.109277 -0.000522287 -1.35867e-25)
(0.109329 -0.000152572 -1.30745e-25)
(0.109369 0.000217252 4.03464e-23)
(0.109398 0.000583974 9.0052e-23)
(0.109423 0.000944512 1.00676e-22)
(0.109489 -0.00132954 3.90101e-24)
(0.109573 -0.00094601 0)
(0.109645 -0.000556888 0)
(0.109704 -0.000164618 4.55621e-23)
(0.10975 0.000227925 -4.85541e-23)
(0.109785 0.000617474 -1.04564e-22)
(0.109818 0.00100091 -5.25475e-23)
(0.109862 -0.00141628 -8.99882e-24)
(0.109955 -0.0010088 5.65424e-25)
(0.110035 -0.000595397 2.46782e-23)
(0.110102 -0.000178517 -9.67991e-23)
(0.110156 0.000238932 5.02534e-23)
(0.110198 0.00065364 5.09304e-23)
(0.110238 0.00106248 1.87221e-24)
(0.110259 -0.00151132 5.18087e-24)
(0.110361 -0.00107791 -2.10953e-24)
(0.110451 -0.000638073 -2.17586e-23)
(0.110527 -0.000194309 1.09026e-22)
(0.110589 0.000250463 0)
(0.110638 0.000692898 6.56012e-23)
(0.110686 0.00112988 2.08499e-24)
(0.110681 -0.00161546 5.21507e-24)
(0.110794 -0.00115388 -9.08085e-25)
(0.110893 -0.00068523 -5.72279e-23)
(0.110979 -0.000212053 -1.20018e-22)
(0.11105 0.000262719 1.50019e-25)
(0.111107 0.000735721 8.01826e-23)
(0.111165 0.00120389 1.60238e-22)
(0.11113 -0.00172976 -5.10915e-24)
(0.111255 -0.00123738 2.91093e-23)
(0.111366 -0.000737242 1.26635e-22)
(0.111462 -0.000231837 6.23112e-23)
(0.111542 0.000275912 7.73742e-23)
(0.111609 0.000782634 -3.18923e-22)
(0.111678 0.00128536 -3.34989e-22)
(0.11161 -0.00185512 -9.39724e-25)
(0.111748 -0.00132915 -6.45265e-23)
(0.111871 -0.000794541 -6.58995e-23)
(0.111978 -0.00025377 -1.72888e-25)
(0.11207 0.000290264 -1.60527e-22)
(0.112146 0.000834219 1.63498e-22)
(0.112227 0.00137527 1.80182e-22)
(0.112122 -0.00199273 1.05184e-24)
(0.112274 -0.00143003 3.00921e-23)
(0.112411 -0.00085764 2.3121e-24)
(0.112532 -0.000278017 0)
(0.112635 0.000306013 8.85077e-23)
(0.112723 0.000891133 1.95938e-22)
(0.112816 0.00147474 3.11903e-24)
(0.11267 -0.00214401 -1.17286e-24)
(0.112838 -0.00154104 4.26342e-23)
(0.105942 -0.00194436 -1.0607e-24)
(0.106032 -0.00178562 -1.90943e-24)
(0.106114 -0.00162147 -1.12911e-25)
(0.106188 -0.0014519 -1.59806e-24)
(0.106254 -0.00127681 -5.70753e-25)
(0.106311 -0.00109611 -8.19868e-25)
(0.106359 -0.000909597 2.68104e-25)
(0.106107 -0.0020444 7.34612e-24)
(0.106199 -0.00187707 4.95682e-24)
(0.106284 -0.00170412 -3.26108e-24)
(0.10636 -0.00152543 6.7879e-25)
(0.106429 -0.00134088 -1.72509e-24)
(0.106488 -0.00115037 -4.0711e-25)
(0.106538 -0.000953775 -1.85306e-25)
(0.10628 -0.00215082 -8.38062e-24)
(0.106376 -0.00197431 -8.40009e-25)
(0.106463 -0.00179185 9.39604e-24)
(0.106543 -0.00160329 1.18038e-25)
(0.106614 -0.00140852 2.47316e-24)
(0.106675 -0.00120745 4.57499e-25)
(0.106727 -0.000999976 3.78356e-25)
(0.106463 -0.00226428 -9.01919e-25)
(0.106562 -0.00207787 1.38175e-23)
(0.106652 -0.00188515 -1.14916e-23)
(0.106735 -0.00168596 -5.38709e-25)
(0.106809 -0.00148016 -3.4074e-24)
(0.106874 -0.00126774 1.37893e-24)
(0.106928 -0.00104864 5.25673e-26)
(0.106654 -0.00238549 1.48598e-23)
(0.106758 -0.00218847 -1.37731e-23)
(0.106852 -0.00198474 6.06433e-24)
(0.106938 -0.00177412 -1.25936e-25)
(0.107016 -0.00155651 5.93949e-24)
(0.107084 -0.00133191 1.10548e-25)
(0.107142 -0.00110037 -3.15972e-25)
(0.106856 -0.00251533 -1.4833e-23)
(0.106964 -0.00230691 1.15038e-23)
(0.107063 -0.00209137 -5.11178e-25)
(0.107153 -0.00186853 6.61579e-24)
(0.107235 -0.00163827 -2.74972e-24)
(0.107307 -0.00140066 7.76635e-25)
(0.107369 -0.00115582 6.58699e-26)
(0.107068 -0.0026547 -2.45239e-23)
(0.107182 -0.00243408 -1.95625e-23)
(0.107285 -0.0022059 4.31138e-25)
(0.10738 -0.00196997 -1.2332e-23)
(0.107467 -0.00172619 1.32062e-25)
(0.107543 -0.0014747 -4.01633e-25)
(0.107609 -0.00121566 1.36442e-25)
(0.107292 -0.00280461 1.75605e-24)
(0.107411 -0.00257091 2.7164e-23)
(0.107519 -0.0023292 -1.41167e-25)
(0.10762 -0.00207928 4.97829e-24)
(0.107712 -0.00182107 -2.07076e-25)
(0.107793 -0.00155475 3.14667e-26)
(0.107865 -0.00128058 -1.86241e-25)
(0.107527 -0.00296613 2.5439e-24)
(0.107652 -0.00271843 -1.65257e-23)
(0.107766 -0.00246224 -2.5583e-25)
(0.107873 -0.00219736 2.55898e-25)
(0.107971 -0.00192373 -1.79611e-25)
(0.108059 -0.00164158 -1.36343e-24)
(0.108136 -0.00135127 8.44782e-26)
(0.107774 -0.00314046 1.85808e-23)
(0.107907 -0.00287774 -1.07203e-23)
(0.108027 -0.00260604 4.70981e-25)
(0.108141 -0.00232516 3.30134e-25)
(0.108245 -0.00203504 3.57615e-25)
(0.10834 -0.00173597 1.10849e-24)
(0.108423 -0.0014284 0)
(0.108035 -0.00332888 -1.38809e-23)
(0.108175 -0.00305003 3.49527e-24)
(0.108303 -0.00276171 -2.639e-24)
(0.108423 -0.00246368 -4.98995e-25)
(0.108536 -0.0021559 0)
(0.108637 -0.00183873 2.91913e-24)
(0.108728 -0.00151268 2.00403e-25)
(0.10831 -0.0035328 2.37003e-23)
(0.108459 -0.00323662 1.25354e-23)
(0.108594 -0.00293044 2.69187e-24)
(0.108723 -0.00261401 6.35004e-24)
(0.108843 -0.00228729 1.59543e-25)
(0.108952 -0.0019507 -3.22419e-24)
(0.109051 -0.00160481 -2.63927e-25)
(0.108599 -0.00375377 -1.04797e-23)
(0.108757 -0.00343893 -5.38369e-24)
(0.108901 -0.00311354 4.61607e-24)
(0.109039 -0.00277733 -1.63274e-23)
(0.109168 -0.00243027 0)
(0.109287 -0.0020728 0)
(0.109394 -0.00170554 -3.27258e-24)
(0.108904 -0.00399353 -7.2342e-26)
(0.109073 -0.00365855 8.72168e-25)
(0.109226 -0.00331246 -4.79625e-24)
(0.109374 -0.00295495 2.43277e-23)
(0.109513 -0.00258597 -9.56608e-24)
(0.109641 -0.00220604 4.04396e-25)
(0.109757 -0.0018159 6.74355e-24)
(0.109226 -0.00425398 4.64825e-26)
(0.109406 -0.00389726 -7.00699e-24)
(0.109569 -0.00352881 0)
(0.109728 -0.0031483 -3.32456e-23)
(0.109878 -0.00275564 1.08108e-23)
(0.110017 -0.0023514 -1.26642e-24)
(0.110144 -0.00193635 -3.39392e-24)
(0.109565 -0.00453728 -8.22999e-24)
(0.109758 -0.00415702 -1.60878e-23)
(0.109933 -0.00376439 -1.92471e-25)
(0.110104 -0.003359 4.3174e-23)
(0.110266 -0.00294072 3.0862e-23)
(0.110416 -0.00251013 1.75995e-23)
(0.110555 -0.00206796 -5.79528e-24)
(0.109922 -0.00484582 2.54848e-23)
(0.11013 -0.00444006 5.45006e-23)
(0.110318 -0.00402123 0)
(0.110502 -0.00358888 -2.46406e-23)
(0.110677 -0.00314285 -6.43578e-23)
(0.110841 -0.00268374 -3.94531e-23)
(0.110992 -0.00221239 5.87562e-24)
(0.110299 -0.00518233 -1.65061e-23)
(0.110523 -0.00474888 -3.25942e-23)
(0.110725 -0.00430161 2.86834e-23)
(0.110924 -0.00384 2.11501e-25)
(0.111115 -0.00336382 3.556e-23)
(0.111293 -0.0028737 2.02734e-23)
(0.111458 -0.00237051 -7.45693e-25)
(0.110697 -0.00554986 6.1949e-25)
(0.110939 -0.0050863 -5.46363e-23)
(0.111157 -0.00460812 -2.69625e-23)
(0.111373 -0.00411469 0)
(0.11158 -0.00360571 1.49198e-24)
(0.111774 -0.00308179 -2.33592e-24)
(0.111955 -0.00254379 8.48035e-25)
(0.112288 -0.00331012 9.60226e-25)
(0.112486 -0.00273416 -9.58298e-25)
(0.101528 -0.00338688 0)
(0.101624 -0.00342856 0)
(0.101724 -0.00346798 0)
(0.101827 -0.00350489 0)
(0.101934 -0.00353905 0)
(0.102044 -0.0035702 0)
(0.102158 -0.00359806 0)
(0.102276 -0.00362234 0)
(0.102397 -0.00364277 0)
(0.102522 -0.00365903 0)
(0.10265 -0.00367083 0)
(0.102782 -0.00367784 0)
(0.102916 -0.00367976 0)
(0.103054 -0.00367627 0)
(0.103193 -0.00366705 0)
(0.103336 -0.00365179 0)
(0.10348 -0.00363018 0)
(0.103626 -0.00360193 0)
(0.103774 -0.00356676 0)
(0.103923 -0.0035244 0)
(0.104072 -0.00347461 0)
(0.104222 -0.00341717 0)
(0.104372 -0.00335188 0)
(0.10452 -0.00327859 0)
(0.104668 -0.00319718 0)
(0.104814 -0.00310756 0)
(0.104957 -0.00300969 0)
(0.105097 -0.00290358 0)
(0.105234 -0.0027893 0)
(0.105367 -0.00266695 0)
(0.105495 -0.0025367 0)
(0.105617 -0.00239877 0)
(0.105734 -0.00225339 0)
(0.105843 -0.00210073 0)
(0.101485 -0.00348196 0)
(0.101583 -0.00352736 0)
(0.101685 -0.00357055 0)
(0.101791 -0.00361126 0)
(0.1019 -0.00364924 0)
(0.102014 -0.00368419 0)
(0.102132 -0.00371582 0)
(0.102253 -0.00374384 0)
(0.102378 -0.00376792 0)
(0.102508 -0.00378775 0)
(0.10264 -0.00380298 0)
(0.102777 -0.00381329 0)
(0.102917 -0.00381833 0)
(0.10306 -0.00381775 0)
(0.103206 -0.0038112 0)
(0.103354 -0.00379834 0)
(0.103505 -0.00377884 0)
(0.103658 -0.00375237 0)
(0.103813 -0.0037186 0)
(0.10397 -0.00367724 0)
(0.104127 -0.00362802 0)
(0.104285 -0.00357068 0)
(0.104442 -0.003505 0)
(0.104599 -0.00343078 0)
(0.104755 -0.00334788 0)
(0.10491 -0.00325619 0)
(0.105061 -0.00315566 0)
(0.10521 -0.00304625 0)
(0.105355 -0.00292804 0)
(0.105496 -0.00280111 0)
(0.105632 -0.00266562 0)
(0.105762 -0.00252178 0)
(0.105886 -0.00236979 0)
(0.106003 -0.00220962 0)
(0.101438 -0.00357898 0)
(0.101538 -0.00362836 0)
(0.101642 -0.00367558 0)
(0.10175 -0.00372036 0)
(0.101863 -0.00376244 0)
(0.10198 -0.00380149 0)
(0.102101 -0.00383721 0)
(0.102226 -0.00386927 0)
(0.102356 -0.00389733 0)
(0.102489 -0.00392105 0)
(0.102627 -0.00394007 0)
(0.102769 -0.00395401 0)
(0.102914 -0.00396251 0)
(0.103063 -0.00396518 0)
(0.103215 -0.00396165 0)
(0.10337 -0.00395154 0)
(0.103528 -0.00393447 0)
(0.103689 -0.00391008 0)
(0.103851 -0.00387801 0)
(0.104016 -0.00383793 0)
(0.104181 -0.00378953 0)
(0.104347 -0.0037325 0)
(0.104514 -0.00366661 0)
(0.10468 -0.00359161 0)
(0.104845 -0.00350733 0)
(0.105008 -0.00341363 0)
(0.105169 -0.00331042 0)
(0.105327 -0.00319768 0)
(0.105481 -0.00307542 0)
(0.105631 -0.00294373 0)
(0.105776 -0.00280276 0)
(0.105914 -0.00265268 0)
(0.106046 -0.00249367 0)
(0.106171 -0.00232547 0)
(0.101387 -0.00367791 0)
(0.101489 -0.00373151 0)
(0.101595 -0.00378304 0)
(0.101706 -0.00383218 0)
(0.101822 -0.00387865 0)
(0.101942 -0.00392212 0)
(0.102066 -0.00396225 0)
(0.102195 -0.0039987 0)
(0.102329 -0.00403109 0)
(0.102467 -0.00405907 0)
(0.10261 -0.00408223 0)
(0.102757 -0.00410018 0)
(0.102908 -0.00411252 0)
(0.103063 -0.00411882 0)
(0.103222 -0.00411868 0)
(0.103384 -0.00411168 0)
(0.103549 -0.00409741 0)
(0.103717 -0.00407545 0)
(0.103888 -0.00404541 0)
(0.10406 -0.00400692 0)
(0.104235 -0.00395962 0)
(0.10441 -0.00390317 0)
(0.104585 -0.00383728 0)
(0.104761 -0.00376168 0)
(0.104935 -0.00367616 0)
(0.105108 -0.00358053 0)
(0.105279 -0.00347468 0)
(0.105447 -0.00335855 0)
(0.105611 -0.00323215 0)
(0.105771 -0.00309554 0)
(0.105925 -0.00294884 0)
(0.106073 -0.00279221 0)
(0.106213 -0.00262577 0)
(0.106348 -0.00244902 0)
(0.101331 -0.00377867 0)
(0.101435 -0.00383677 0)
(0.101544 -0.00389288 0)
(0.101657 -0.00394669 0)
(0.101775 -0.00399787 0)
(0.101898 -0.00404609 0)
(0.102027 -0.00409098 0)
(0.10216 -0.00413217 0)
(0.102298 -0.00416928 0)
(0.102441 -0.00420189 0)
(0.102588 -0.0042296 0)
(0.102741 -0.00425197 0)
(0.102898 -0.00426855 0)
(0.103059 -0.00427891 0)
(0.103224 -0.00428257 0)
(0.103394 -0.0042791 0)
(0.103567 -0.00426802 0)
(0.103743 -0.00424888 0)
(0.103922 -0.00422126 0)
(0.104104 -0.00418471 0)
(0.104287 -0.00413884 0)
(0.104472 -0.00408326 0)
(0.104657 -0.00401764 0)
(0.104843 -0.00394165 0)
(0.105028 -0.00385505 0)
(0.105211 -0.0037576 0)
(0.105393 -0.00364917 0)
(0.105571 -0.00352966 0)
(0.105746 -0.00339903 0)
(0.105916 -0.00325734 0)
(0.106081 -0.00310468 0)
(0.106238 -0.00294119 0)
(0.106389 -0.00276691 0)
(0.106533 -0.00258107 0)
(0.101271 -0.00388116 0)
(0.101376 -0.00394404 0)
(0.101487 -0.00400504 0)
(0.101603 -0.00406383 0)
(0.101724 -0.00412007 0)
(0.10185 -0.00417339 0)
(0.101982 -0.00422341 0)
(0.102119 -0.00426974 0)
(0.102261 -0.00431196 0)
(0.102409 -0.00434963 0)
(0.102562 -0.00438231 0)
(0.10272 -0.00440954 0)
(0.102883 -0.00443082 0)
(0.103051 -0.00444568 0)
(0.103223 -0.00445361 0)
(0.1034 -0.00445411 0)
(0.103581 -0.00444667 0)
(0.103766 -0.0044308 0)
(0.103954 -0.00440601 0)
(0.104145 -0.0043718 0)
(0.104338 -0.00432774 0)
(0.104533 -0.00427337 0)
(0.104729 -0.00420832 0)
(0.104925 -0.00413221 0)
(0.105121 -0.00404473 0)
(0.105316 -0.00394563 0)
(0.105509 -0.0038347 0)
(0.105699 -0.00371181 0)
(0.105885 -0.00357691 0)
(0.106067 -0.00343001 0)
(0.106242 -0.00327118 0)
(0.106411 -0.00310052 0)
(0.106572 -0.00291798 0)
(0.106727 -0.00272253 0)
(0.101205 -0.00398528 0)
(0.101313 -0.00405325 0)
(0.101425 -0.00411945 0)
(0.101544 -0.00418355 0)
(0.101667 -0.00424519 0)
(0.101797 -0.00430399 0)
(0.101932 -0.00435954 0)
(0.102073 -0.00441142 0)
(0.102219 -0.00445918 0)
(0.102372 -0.00450237 0)
(0.10253 -0.00454049 0)
(0.102694 -0.00457305 0)
(0.102863 -0.00459952 0)
(0.103038 -0.00461938 0)
(0.103217 -0.00463207 0)
(0.103402 -0.00463705 0)
(0.103592 -0.00463376 0)
(0.103785 -0.00462164 0)
(0.103983 -0.00460015 0)
(0.104183 -0.00456874 0)
(0.104387 -0.00452691 0)
(0.104593 -0.00447416 0)
(0.1048 -0.00441003 0)
(0.105008 -0.0043341 0)
(0.105216 -0.00424601 0)
(0.105423 -0.00414544 0)
(0.105628 -0.00403214 0)
(0.10583 -0.00390594 0)
(0.106029 -0.00376673 0)
(0.106223 -0.00361451 0)
(0.106411 -0.0034493 0)
(0.106592 -0.00327117 0)
(0.106765 -0.00307998 0)
(0.106931 -0.00287434 0)
(0.101134 -0.0040909 0)
(0.101243 -0.00416425 0)
(0.101358 -0.00423599 0)
(0.101478 -0.00430576 0)
(0.101605 -0.00437318 0)
(0.101737 -0.00443785 0)
(0.101876 -0.00449935 0)
(0.10202 -0.00455722 0)
(0.102171 -0.00461099 0)
(0.102329 -0.00466017 0)
(0.102492 -0.00470423 0)
(0.102662 -0.00474265 0)
(0.102837 -0.00477484 0)
(0.103019 -0.00480024 0)
(0.103207 -0.00481825 0)
(0.103399 -0.00482826 0)
(0.103598 -0.00482967 0)
(0.1038 -0.00482184 0)
(0.104008 -0.00480419 0)
(0.104219 -0.0047761 0)
(0.104433 -0.00473699 0)
(0.104651 -0.0046863 0)
(0.10487 -0.00462351 0)
(0.10509 -0.00454813 0)
(0.105311 -0.00445973 0)
(0.105531 -0.00435794 0)
(0.10575 -0.00424244 0)
(0.105965 -0.00411302 0)
(0.106178 -0.00396952 0)
(0.106385 -0.00381188 0)
(0.106586 -0.00364011 0)
(0.10678 -0.00345422 0)
(0.106966 -0.00325396 0)
(0.107146 -0.00303758 0)
(0.101058 -0.00419787 0)
(0.101168 -0.00427693 0)
(0.101284 -0.00435455 0)
(0.101407 -0.00443035 0)
(0.101536 -0.00450394 0)
(0.101671 -0.00457491 0)
(0.101813 -0.00464279 0)
(0.101962 -0.00470712 0)
(0.102117 -0.0047674 0)
(0.102279 -0.00482309 0)
(0.102448 -0.00487364 0)
(0.102624 -0.00491847 0)
(0.102806 -0.00495696 0)
(0.102995 -0.0049885 0)
(0.10319 -0.00501243 0)
(0.103391 -0.00502808 0)
(0.103599 -0.00503479 0)
(0.103811 -0.00503188 0)
(0.104029 -0.00501865 0)
(0.104251 -0.00499445 0)
(0.104477 -0.00495862 0)
(0.104707 -0.00491052 0)
(0.104939 -0.00484955 0)
(0.105172 -0.00477515 0)
(0.105406 -0.00468681 0)
(0.105641 -0.0045841 0)
(0.105874 -0.00446663 0)
(0.106104 -0.00433412 0)
(0.106331 -0.00418637 0)
(0.106553 -0.00402326 0)
(0.106769 -0.00384477 0)
(0.106977 -0.00365084 0)
(0.107177 -0.00344111 0)
(0.107371 -0.00321339 0)
(0.100975 -0.00430603 0)
(0.101087 -0.00439112 0)
(0.101205 -0.00447497 0)
(0.101329 -0.00455718 0)
(0.101461 -0.00463736 0)
(0.101599 -0.00471506 0)
(0.101744 -0.00478981 0)
(0.101896 -0.0048611 0)
(0.102056 -0.00492841 0)
(0.102223 -0.00499117 0)
(0.102397 -0.00504878 0)
(0.102579 -0.00510063 0)
(0.102768 -0.00514605 0)
(0.102964 -0.00518437 0)
(0.103167 -0.00521488 0)
(0.103377 -0.00523685 0)
(0.103594 -0.00524955 0)
(0.103817 -0.00525221 0)
(0.104046 -0.00524409 0)
(0.104279 -0.00522443 0)
(0.104518 -0.0051925 0)
(0.10476 -0.00514758 0)
(0.105006 -0.00508899 0)
(0.105253 -0.00501607 0)
(0.105502 -0.00492824 0)
(0.105751 -0.00482497 0)
(0.106 -0.00470582 0)
(0.106246 -0.00457042 0)
(0.106489 -0.0044185 0)
(0.106727 -0.00424991 0)
(0.106959 -0.00406455 0)
(0.107183 -0.00386231 0)
(0.107398 -0.0036427 0)
(0.107608 -0.00340303 0)
(0.100886 -0.00441516 0)
(0.100999 -0.00450663 0)
(0.101118 -0.00459707 0)
(0.101245 -0.0046861 0)
(0.101378 -0.00477329 0)
(0.101519 -0.00485819 0)
(0.101667 -0.00494029 0)
(0.101823 -0.00501908 0)
(0.101987 -0.00509398 0)
(0.102159 -0.0051644 0)
(0.102339 -0.00522971 0)
(0.102527 -0.00528923 0)
(0.102722 -0.00534226 0)
(0.102926 -0.00538807 0)
(0.103138 -0.00542588 0)
(0.103357 -0.0054549 0)
(0.103583 -0.00547433 0)
(0.103817 -0.00548332 0)
(0.104057 -0.00548105 0)
(0.104303 -0.00546667 0)
(0.104554 -0.00543936 0)
(0.10481 -0.0053983 0)
(0.10507 -0.00534272 0)
(0.105333 -0.00527187 0)
(0.105598 -0.00518506 0)
(0.105863 -0.00508169 0)
(0.106128 -0.0049612 0)
(0.106391 -0.00482316 0)
(0.106651 -0.00466723 0)