/*--------------------------------*- C++ -*----------------------------------*\
| =========                 |                                                 |
| \\      /  F ield         | OpenFOAM: The Open Source CFD Toolbox           |
|  \\    /   O peration     | Version:  2412                                  |
|   \\  /    A nd           | Website:  www.openfoam.com                      |
|    \\/     M anipulation  |                                                 |
\*---------------------------------------------------------------------------*/
FoamFile
{
    version     2.0;
    format      ascii;
    arch        "LSB;label=32;scalar=64";
    class       volVectorField;
    location    "22.5";
    object      U;
}
// * * * * * * * * * * * * * * * * * * * * * * * * * * * * * * * * * * * * * //

dimensions      [0 1 -1 0 0 0 0];

internalField   nonuniform List<vector> 
5285
(
(0.103007 0.0054519 0)
(0.102859 0.00540469 0)
(0.102712 0.00535313 0)
(0.102567 0.00529735 0)
(0.102425 0.00523748 0)
(0.102284 0.00517363 0)
(0.102146 0.00510594 0)
(0.10201 0.00503454 0)
(0.101878 0.00495957 0)
(0.101748 0.00488116 0)
(0.101622 0.00479946 0)
(0.1015 0.00471462 0)
(0.101381 0.00462679 0)
(0.101266 0.00453614 0)
(0.101156 0.00444285 0)
(0.101049 0.0043471 0)
(0.100947 0.00424909 0)
(0.100849 0.00414904 0)
(0.100755 0.00404718 0)
(0.100666 0.00394374 0)
(0.100582 0.00383896 0)
(0.100502 0.0037331 0)
(0.100427 0.00362641 0)
(0.100356 0.00351915 0)
(0.10029 0.00341156 0)
(0.100228 0.00330391 0)
(0.100171 0.00319642 0)
(0.100118 0.00308934 0)
(0.10007 0.00298289 0)
(0.100025 0.00287728 0)
(0.0999852 0.00277271 0)
(0.099949 0.00266937 0)
(0.0999167 0.00256744 0)
(0.0998881 0.00246707 0)
(0.0998631 0.0023684 0)
(0.0998415 0.00227158 0)
(0.0998231 0.00217669 0)
(0.0998077 0.00208382 0)
(0.0997953 0.00199304 0)
(0.0997855 0.0019044 0)
(0.0997782 0.00181792 0)
(0.0997731 0.00173363 0)
(0.0997701 0.00165156 0)
(0.0997691 0.00157173 0)
(0.102966 0.00561049 0)
(0.102814 0.00555872 0)
(0.102663 0.00550244 0)
(0.102515 0.00544181 0)
(0.102369 0.00537696 0)
(0.102225 0.00530803 0)
(0.102084 0.00523517 0)
(0.101945 0.00515854 0)
(0.10181 0.00507829 0)
(0.101679 0.00499457 0)
(0.101551 0.00490755 0)
(0.101427 0.0048174 0)
(0.101307 0.00472428 0)
(0.101191 0.00462839 0)
(0.101079 0.0045299 0)
(0.100972 0.00442904 0)
(0.100869 0.00432601 0)
(0.100771 0.00422105 0)
(0.100678 0.00411438 0)
(0.100589 0.00400627 0)
(0.100505 0.00389696 0)
(0.100426 0.00378671 0)
(0.100352 0.00367578 0)
(0.100283 0.00356445 0)
(0.100218 0.00345296 0)
(0.100158 0.00334156 0)
(0.100102 0.00323052 0)
(0.100051 0.00312006 0)
(0.100004 0.0030104 0)
(0.0999619 0.00290176 0)
(0.0999237 0.00279434 0)
(0.0998896 0.00268833 0)
(0.0998593 0.0025839 0)
(0.0998328 0.0024812 0)
(0.0998099 0.00238038 0)
(0.0997904 0.00228157 0)
(0.0997741 0.00218486 0)
(0.0997609 0.00209034 0)
(0.0997505 0.00199806 0)
(0.0997428 0.00190807 0)
(0.0997376 0.00182039 0)
(0.0997345 0.00173505 0)
(0.0997336 0.00165205 0)
(0.0997344 0.00157141 0)
(0.10292 0.00577357 0)
(0.102764 0.00571692 0)
(0.10261 0.00565563 0)
(0.102457 0.00558984 0)
(0.102308 0.00551971 0)
(0.10216 0.0054454 0)
(0.102016 0.00536708 0)
(0.101875 0.00528491 0)
(0.101738 0.00519909 0)
(0.101604 0.00510977 0)
(0.101475 0.00501715 0)
(0.101349 0.00492141 0)
(0.101228 0.00482275 0)
(0.101111 0.00472136 0)
(0.100998 0.00461746 0)
(0.100891 0.00451127 0)
(0.100788 0.00440302 0)
(0.10069 0.00429295 0)
(0.100597 0.00418131 0)
(0.100509 0.00406837 0)
(0.100426 0.00395438 0)
(0.100348 0.00383962 0)
(0.100275 0.00372435 0)
(0.100207 0.00360885 0)
(0.100143 0.00349338 0)
(0.100085 0.00337819 0)
(0.100031 0.00326353 0)
(0.0999819 0.00314964 0)
(0.0999372 0.00303675 0)
(0.0998968 0.00292506 0)
(0.0998607 0.00281478 0)
(0.0998287 0.00270609 0)
(0.0998006 0.00259916 0)
(0.0997763 0.00249415 0)
(0.0997556 0.0023912 0)
(0.0997383 0.00229042 0)
(0.0997243 0.00219192 0)
(0.0997133 0.00209576 0)
(0.0997051 0.00200202 0)
(0.0996996 0.00191072 0)
(0.0996964 0.00182188 0)
(0.0996955 0.00173552 0)
(0.0996965 0.00165163 0)
(0.0996993 0.00157023 0)
(0.102869 0.00594118 0)
(0.102709 0.00587936 0)
(0.102551 0.00581272 0)
(0.102395 0.00574145 0)
(0.102241 0.00566572 0)
(0.102091 0.00558571 0)
(0.101944 0.0055016 0)
(0.1018 0.00541359 0)
(0.101661 0.00532188 0)
(0.101525 0.00522667 0)
(0.101394 0.00512815 0)
(0.101266 0.00502655 0)
(0.101144 0.00492208 0)
(0.101026 0.00481495 0)
(0.100913 0.00470539 0)
(0.100806 0.00459365 0)
(0.100703 0.00447997 0)
(0.100605 0.00436461 0)
(0.100513 0.00424783 0)
(0.100425 0.00412991 0)
(0.100343 0.00401111 0)
(0.100267 0.00389172 0)
(0.100195 0.003772 0)
(0.100128 0.00365225 0)
(0.100067 0.00353271 0)
(0.10001 0.00341366 0)
(0.0999579 0.00329535 0)
(0.0999108 0.003178 0)
(0.0998682 0.00306185 0)
(0.09983 0.0029471 0)
(0.0997961 0.00283395 0)
(0.0997664 0.00272259 0)
(0.0997406 0.00261317 0)
(0.0997187 0.00250586 0)
(0.0997003 0.00240079 0)
(0.0996854 0.00229807 0)
(0.0996736 0.00219781 0)
(0.0996649 0.00210006 0)
(0.099659 0.00200489 0)
(0.0996557 0.00191231 0)
(0.0996547 0.00182236 0)
(0.0996559 0.00173501 0)
(0.099659 0.00165028 0)
(0.0996639 0.00156816 0)
(0.102813 0.0061134 0)
(0.102648 0.00604605 0)
(0.102486 0.00597373 0)
(0.102326 0.00589663 0)
(0.102169 0.00581496 0)
(0.102016 0.0057289 0)
(0.101866 0.00563867 0)
(0.10172 0.00554449 0)
(0.101578 0.00544657 0)
(0.10144 0.00534515 0)
(0.101307 0.00524045 0)
(0.101179 0.0051327 0)
(0.101055 0.00502214 0)
(0.100937 0.00490901 0)
(0.100824 0.00479356 0)
(0.100716 0.00467605 0)
(0.100614 0.00455674 0)
(0.100516 0.0044359 0)
(0.100425 0.00431381 0)
(0.100338 0.00419075 0)
(0.100257 0.004067 0)
(0.100182 0.00394286 0)
(0.100112 0.0038186 0)
(0.100047 0.00369451 0)
(0.0999871 0.00357085 0)
(0.0999324 0.00344789 0)
(0.0998826 0.00332587 0)
(0.0998376 0.00320503 0)
(0.0997973 0.0030856 0)
(0.0997615 0.00296778 0)
(0.09973 0.00285177 0)
(0.0997027 0.00273774 0)
(0.0996794 0.00262585 0)
(0.0996599 0.00251626 0)
(0.0996439 0.0024091 0)
(0.0996314 0.00230448 0)
(0.0996221 0.00220248 0)
(0.0996158 0.00210318 0)
(0.0996122 0.00200662 0)
(0.0996112 0.00191282 0)
(0.0996124 0.00182179 0)
(0.0996158 0.00173351 0)
(0.0996211 0.00164798 0)
(0.099628 0.00156519 0)
(0.10275 0.00629026 0)
(0.102581 0.00621702 0)
(0.102414 0.00613864 0)
(0.102251 0.00605536 0)
(0.102091 0.00596737 0)
(0.101934 0.00587491 0)
(0.101782 0.00577821 0)
(0.101633 0.00567751 0)
(0.101489 0.00557306 0)
(0.10135 0.00546511 0)
(0.101215 0.00535391 0)
(0.101086 0.00523971 0)
(0.100962 0.00512279 0)
(0.100843 0.0050034 0)
(0.10073 0.00488181 0)
(0.100622 0.0047583 0)
(0.10052 0.00463315 0)
(0.100423 0.00450665 0)
(0.100333 0.00437908 0)
(0.100248 0.00425074 0)
(0.100168 0.00412192 0)
(0.100094 0.00399292 0)
(0.100026 0.00386402 0)
(0.0999628 0.00373551 0)
(0.0999051 0.00360766 0)
(0.0998526 0.00348074 0)
(0.0998051 0.00335498 0)
(0.0997625 0.00323063 0)
(0.0997246 0.00310791 0)
(0.0996913 0.00298702 0)
(0.0996624 0.00286815 0)
(0.0996376 0.00275146 0)
(0.0996169 0.00263713 0)
(0.0995999 0.00252529 0)
(0.0995865 0.00241607 0)
(0.0995766 0.00230958 0)
(0.0995698 0.0022059 0)
(0.0995659 0.00210509 0)
(0.0995648 0.00200718 0)
(0.0995661 0.00191221 0)
(0.0995697 0.00182015 0)
(0.0995753 0.00173099 0)
(0.0995828 0.00164471 0)
(0.0995918 0.00156129 0)
(0.10268 0.0064718 0)
(0.102507 0.00639226 0)
(0.102336 0.00630744 0)
(0.102169 0.00621757 0)
(0.102006 0.0061229 0)
(0.101846 0.00602366 0)
(0.101691 0.00592011 0)
(0.101541 0.00581254 0)
(0.101395 0.0057012 0)
(0.101254 0.00558638 0)
(0.101118 0.00546836 0)
(0.100988 0.00534743 0)
(0.100863 0.00522386 0)
(0.100744 0.00509794 0)
(0.100631 0.00496997 0)
(0.100523 0.00484024 0)
(0.100422 0.00470904 0)
(0.100326 0.00457669 0)
(0.100237 0.00444348 0)
(0.100153 0.00430971 0)
(0.100075 0.0041757 0)
(0.100003 0.00404173 0)
(0.0999367 0.0039081 0)
(0.0998759 0.00377511 0)
(0.0998205 0.00364301 0)
(0.0997703 0.00351208 0)
(0.0997253 0.00338257 0)
(0.0996853 0.00325469 0)
(0.09965 0.00312868 0)
(0.0996194 0.00300472 0)
(0.0995931 0.002883 0)
(0.0995711 0.00276369 0)
(0.0995531 0.00264693 0)
(0.0995388 0.00253288 0)
(0.0995281 0.00242164 0)
(0.0995208 0.00231333 0)
(0.0995166 0.002208 0)
(0.0995153 0.00210573 0)
(0.0995167 0.00200654 0)
(0.0995205 0.00191043 0)
(0.0995264 0.0018174 0)
(0.0995344 0.00172742 0)
(0.0995441 0.00164044 0)
(0.0995552 0.00155646 0)
(0.102603 0.00665804 0)
(0.102426 0.00657178 0)
(0.102251 0.00648008 0)
(0.102081 0.00638322 0)
(0.101914 0.00628144 0)
(0.101752 0.00617502 0)
(0.101594 0.00606425 0)
(0.101441 0.00594942 0)
(0.101293 0.00583084 0)
(0.101151 0.00570882 0)
(0.101014 0.00558366 0)
(0.100883 0.00545567 0)
(0.100758 0.00532516 0)
(0.100639 0.00519245 0)
(0.100526 0.00505785 0)
(0.10042 0.00492167 0)
(0.100319 0.00478423 0)
(0.100225 0.00464584 0)
(0.100137 0.00450683 0)
(0.100055 0.0043675 0)
(0.0999787 0.00422817 0)
(0.0999087 0.00408913 0)
(0.0998445 0.0039507 0)
(0.099786 0.00381315 0)
(0.0997331 0.00367677 0)
(0.0996856 0.0035418 0)
(0.0996433 0.0034085 0)
(0.099606 0.00327709 0)
(0.0995736 0.00314779 0)
(0.0995458 0.00302077 0)
(0.0995224 0.00289623 0)
(0.0995032 0.00277432 0)
(0.099488 0.00265519 0)
(0.0994766 0.00253896 0)
(0.0994688 0.00242575 0)
(0.0994642 0.00231566 0)
(0.0994627 0.00220875 0)
(0.0994641 0.00210507 0)
(0.099468 0.00200465 0)
(0.0994743 0.00190747 0)
(0.0994827 0.00181352 0)
(0.0994931 0.00172277 0)
(0.099505 0.00163516 0)
(0.0995184 0.00155065 0)
(0.102519 0.00684896 0)
(0.102337 0.00675553 0)
(0.102159 0.00665651 0)
(0.101984 0.00655221 0)
(0.101815 0.0064429 0)
(0.10165 0.00632888 0)
(0.101489 0.00621047 0)
(0.101335 0.006088 0)
(0.101185 0.00596181 0)
(0.101042 0.00583222 0)
(0.100904 0.00569958 0)
(0.100773 0.00556423 0)
(0.100648 0.00542649 0)
(0.100529 0.00528672 0)
(0.100417 0.00514524 0)
(0.100311 0.00500239 0)
(0.100212 0.00485851 0)
(0.100119 0.00471391 0)
(0.100032 0.00456894 0)
(0.0999523 0.00442391 0)
(0.0998785 0.00427915 0)
(0.0998108 0.00413496 0)
(0.0997491 0.00399165 0)
(0.0996933 0.00384949 0)
(0.0996431 0.00370877 0)
(0.0995984 0.00356975 0)
(0.099559 0.00343266 0)
(0.0995247 0.00329772 0)
(0.0994952 0.00316513 0)
(0.0994705 0.00303509 0)
(0.0994501 0.00290776 0)
(0.0994339 0.00278328 0)
(0.0994218 0.00266181 0)
(0.0994133 0.00254346 0)
(0.0994084 0.00242833 0)
(0.0994067 0.00231652 0)
(0.099408 0.00220808 0)
(0.0994121 0.00210306 0)
(0.0994188 0.00200146 0)
(0.0994277 0.00190328 0)
(0.0994386 0.00180848 0)
(0.0994514 0.00171702 0)
(0.0994657 0.00162883 0)
(0.0994813 0.00154387 0)
(0.102426 0.00704457 0)
(0.10224 0.00694347 0)
(0.102058 0.00683665 0)
(0.10188 0.00672444 0)
(0.101707 0.00660714 0)
(0.10154 0.00648508 0)
(0.101377 0.00635861 0)
(0.101221 0.0062281 0)
(0.10107 0.0060939 0)
(0.100926 0.00595638 0)
(0.100788 0.00581592 0)
(0.100656 0.00567288 0)
(0.100531 0.00552763 0)
(0.100413 0.00538052 0)
(0.100302 0.00523192 0)
(0.100197 0.00508218 0)
(0.100099 0.00493165 0)
(0.100008 0.00478068 0)
(0.0999238 0.0046296 0)
(0.0998459 0.00447875 0)
(0.0997745 0.00432846 0)
(0.0997094 0.00417903 0)
(0.0996505 0.00403077 0)
(0.0995975 0.00388396 0)
(0.0995503 0.00373889 0)
(0.0995087 0.00359579 0)
(0.0994724 0.0034549 0)
(0.0994413 0.00331644 0)
(0.099415 0.00318061 0)
(0.0993935 0.00304756 0)
(0.0993763 0.00291748 0)
(0.0993633 0.00279049 0)
(0.0993543 0.00266673 0)
(0.099349 0.00254631 0)
(0.0993471 0.00242932 0)
(0.0993484 0.00231585 0)
(0.0993526 0.00220595 0)
(0.0993596 0.00209965 0)
(0.099369 0.00199695 0)
(0.0993806 0.00189783 0)
(0.0993941 0.00180225 0)
(0.0994093 0.00171014 0)
(0.099426 0.00162144 0)
(0.0994439 0.00153609 0)
(0.102324 0.00724482 0)
(0.102134 0.00713553 0)
(0.101948 0.00702039 0)
(0.101767 0.00689977 0)
(0.101591 0.006774 0)
(0.101421 0.00664344 0)
(0.101257 0.00650847 0)
(0.101099 0.00636948 0)
(0.100948 0.00622688 0)
(0.100803 0.00608107 0)
(0.100664 0.00593244 0)
(0.100533 0.00578139 0)
(0.100408 0.00562831 0)
(0.100291 0.00547361 0)
(0.100181 0.00531764 0)
(0.100078 0.00516079 0)
(0.0999818 0.00500343 0)
(0.0998928 0.00484591 0)
(0.0998107 0.00468859 0)
(0.0997354 0.00453181 0)
(0.0996667 0.00437588 0)
(0.0996045 0.00422114 0)
(0.0995486 0.00406789 0)
(0.0994988 0.0039164 0)
(0.0994548 0.00376694 0)
(0.0994165 0.00361977 0)
(0.0993836 0.0034751 0)
(0.0993558 0.00333314 0)
(0.099333 0.00319408 0)
(0.0993148 0.00305808 0)
(0.099301 0.00292529 0)
(0.0992914 0.00279584 0)
(0.0992856 0.00266986 0)
(0.0992835 0.00254743 0)
(0.0992848 0.00242866 0)
(0.0992893 0.0023136 0)
(0.0992965 0.00220231 0)
(0.0993064 0.0020948 0)
(0.0993187 0.00199107 0)
(0.099333 0.00189109 0)
(0.0993492 0.00179479 0)
(0.099367 0.00170211 0)
(0.0993861 0.00161296 0)
(0.0994064 0.00152728 0)
(0.102213 0.00744966 0)
(0.102018 0.0073316 0)
(0.101829 0.00720761 0)
(0.101645 0.00707805 0)
(0.101467 0.0069433 0)
(0.101294 0.00680375 0)
(0.101129 0.00665981 0)
(0.100969 0.00651192 0)
(0.100817 0.00636051 0)
(0.100672 0.00620601 0)
(0.100533 0.00604885 0)
(0.100402 0.00588947 0)
(0.100279 0.00572828 0)
(0.100163 0.0055657 0)
(0.100054 0.00540213 0)
(0.099953 0.00523797 0)
(0.0998591 0.00507359 0)
(0.0997726 0.00490937 0)
(0.0996931 0.00474568 0)
(0.0996206 0.00458285 0)
(0.099555 0.00442122 0)
(0.099496 0.00426111 0)
(0.0994434 0.00410281 0)
(0.099397 0.00394661 0)
(0.0993565 0.00379278 0)
(0.0993218 0.00364153 0)
(0.0992924 0.00349311 0)
(0.0992683 0.00334769 0)
(0.099249 0.00320545 0)
(0.0992344 0.00306654 0)
(0.0992242 0.00293111 0)
(0.0992181 0.00279926 0)
(0.0992158 0.00267111 0)
(0.0992171 0.00254676 0)
(0.0992217 0.00242627 0)
(0.0992294 0.00230971 0)
(0.0992398 0.0021971 0)
(0.0992527 0.00208847 0)
(0.0992679 0.00198379 0)
(0.0992851 0.00188301 0)
(0.099304 0.00178607 0)
(0.0993243 0.0016929 0)
(0.099346 0.00160338 0)
(0.0993687 0.00151744 0)
(0.102091 0.00765898 0)
(0.101893 0.00753157 0)
(0.1017 0.00739813 0)
(0.101513 0.00725908 0)
(0.101332 0.00711482 0)
(0.101158 0.00696578 0)
(0.100991 0.0068124 0)
(0.100831 0.00665515 0)
(0.100678 0.0064945 0)
(0.100533 0.00633093 0)
(0.100395 0.00616489 0)
(0.100265 0.00599684 0)
(0.100143 0.00582724 0)
(0.100028 0.00565652 0)
(0.0999214 0.00548511 0)
(0.0998224 0.00531343 0)
(0.0997311 0.00514186 0)
(0.0996473 0.0049708 0)
(0.0995708 0.00480061 0)
(0.0995016 0.00463164 0)
(0.0994393 0.00446423 0)
(0.0993838 0.0042987 0)
(0.0993349 0.00413534 0)
(0.0992922 0.00397443 0)
(0.0992555 0.00381621 0)
(0.0992245 0.00366093 0)
(0.099199 0.00350878 0)
(0.0991787 0.00335994 0)
(0.0991633 0.00321457 0)
(0.0991525 0.00307283 0)
(0.099146 0.00293481 0)
(0.0991436 0.00280065 0)
(0.0991449 0.00267042 0)
(0.0991497 0.00254421 0)
(0.0991578 0.00242209 0)
(0.0991688 0.00230411 0)
(0.0991824 0.00219027 0)
(0.0991985 0.0020806 0)
(0.0992167 0.00197505 0)
(0.0992368 0.00187356 0)
(0.0992584 0.00177607 0)
(0.0992815 0.00168247 0)
(0.0993057 0.00159266 0)
(0.0993308 0.00150654 0)
(0.101959 0.00787267 0)
(0.101757 0.00773527 0)
(0.101561 0.00759179 0)
(0.101371 0.00744266 0)
(0.101188 0.00728832 0)
(0.101013 0.00712925 0)
(0.100844 0.00696593 0)
(0.100684 0.00679886 0)
(0.100531 0.00662855 0)
(0.100386 0.00645549 0)
(0.100249 0.00628021 0)
(0.10012 0.00610317 0)
(0.0999991 0.00592486 0)
(0.0998866 0.00574575 0)
(0.0997823 0.00556627 0)
(0.099686 0.00538687 0)
(0.0995976 0.00520795 0)
(0.0995169 0.00502991 0)
(0.0994439 0.00485311 0)
(0.0993782 0.00467793 0)
(0.0993196 0.00450469 0)
(0.099268 0.0043337 0)
(0.099223 0.00416527 0)
(0.0991843 0.00399964 0)
(0.0991517 0.00383708 0)
(0.0991248 0.00367778 0)
(0.0991034 0.00352196 0)
(0.0990872 0.00336976 0)
(0.0990758 0.00322134 0)
(0.0990689 0.00307682 0)
(0.0990664 0.00293632 0)
(0.0990678 0.00279991 0)
(0.0990729 0.00266769 0)
(0.0990814 0.00253972 0)
(0.099093 0.00241606 0)
(0.0991075 0.00229674 0)
(0.0991245 0.00218177 0)
(0.0991438 0.00207115 0)
(0.0991651 0.00196482 0)
(0.0991881 0.00186272 0)
(0.0992127 0.00176476 0)
(0.0992384 0.00167082 0)
(0.0992652 0.00158079 0)
(0.0992928 0.00149456 0)
(0.101815 0.00809057 0)
(0.101609 0.00794251 0)
(0.10141 0.00778833 0)
(0.101218 0.00762851 0)
(0.101034 0.00746352 0)
(0.100857 0.00729387 0)
(0.100688 0.00712009 0)
(0.100527 0.00694271 0)
(0.100374 0.00676229 0)
(0.10023 0.00657936 0)
(0.100094 0.00639446 0)
(0.0999669 0.00620811 0)
(0.0998483 0.0060208 0)
(0.0997383 0.00583304 0)
(0.0996367 0.00564528 0)
(0.0995435 0.00545797 0)
(0.0994584 0.00527155 0)
(0.0993814 0.0050864 0)
(0.0993121 0.00490292 0)
(0.0992504 0.00472145 0)
(0.0991959 0.00454234 0)
(0.0991485 0.00436588 0)
(0.0991077 0.00419237 0)
(0.0990734 0.00402206 0)
(0.0990451 0.00385518 0)
(0.0990226 0.00369193 0)
(0.0990056 0.00353249 0)
(0.0989936 0.00337701 0)
(0.0989865 0.00322561 0)
(0.0989839 0.00307842 0)
(0.0989854 0.0029355 0)
(0.0989909 0.00279696 0)
(0.0989999 0.00266284 0)
(0.0990122 0.00253321 0)
(0.0990275 0.00240811 0)
(0.0990455 0.00228756 0)
(0.099066 0.00217155 0)
(0.0990886 0.00206007 0)
(0.0991131 0.00195306 0)
(0.0991392 0.00185044 0)
(0.0991667 0.00175209 0)
(0.0991952 0.00165791 0)
(0.0992247 0.00156775 0)
(0.0992548 0.00148149 0)
(0.101659 0.00831247 0)
(0.10145 0.00815305 0)
(0.101248 0.00798749 0)
(0.101054 0.00781633 0)
(0.100868 0.00764008 0)
(0.10069 0.00745928 0)
(0.100521 0.00727451 0)
(0.10036 0.00708634 0)
(0.100208 0.00689536 0)
(0.100065 0.00670215 0)
(0.0999311 0.00650727 0)
(0.0998061 0.00631127 0)
(0.09969 0.00611468 0)
(0.0995829 0.00591802 0)
(0.0994846 0.00572177 0)
(0.0993948 0.00552639 0)
(0.0993136 0.00533233 0)
(0.0992405 0.00513997 0)
(0.0991755 0.00494972 0)
(0.0991181 0.00476193 0)
(0.0990681 0.00457692 0)
(0.0990252 0.004395 0)
(0.0989891 0.00421643 0)
(0.0989594 0.00404147 0)
(0.0989359 0.00387033 0)
(0.098918 0.0037032 0)
(0.0989056 0.00354022 0)
(0.0988982 0.00338154 0)
(0.0988955 0.00322727 0)
(0.0988973 0.00307749 0)
(0.0989032 0.00293228 0)
(0.0989128 0.00279169 0)
(0.0989259 0.00265579 0)
(0.0989422 0.00252461 0)
(0.0989613 0.00239817 0)
(0.0989831 0.00227649 0)
(0.0990071 0.00215955 0)
(0.0990331 0.00204732 0)
(0.0990609 0.00193973 0)
(0.0990901 0.00183668 0)
(0.0991205 0.00173806 0)
(0.0991519 0.00164372 0)
(0.0991841 0.00155351 0)
(0.0992167 0.00146731 0)
(0.10149 0.00853811 0)
(0.101278 0.00836658 0)
(0.101074 0.00818894 0)
(0.100878 0.00800577 0)
(0.100691 0.00781762 0)
(0.100512 0.00762509 0)
(0.100343 0.00742878 0)
(0.100183 0.00722933 0)
(0.100032 0.00702734 0)
(0.0998911 0.00682343 0)
(0.0997593 0.00661821 0)
(0.0996369 0.00641224 0)
(0.0995239 0.0062061 0)
(0.0994202 0.00600031 0)
(0.0993256 0.00579537 0)
(0.0992399 0.00559177 0)
(0.0991629 0.00538994 0)
(0.0990944 0.00519029 0)
(0.099034 0.00499322 0)
(0.0989814 0.00479907 0)
(0.0989363 0.00460816 0)
(0.0988984 0.00442079 0)
(0.0988672 0.00423722 0)
(0.0988425 0.00405767 0)
(0.0988239 0.00388234 0)
(0.098811 0.0037114 0)
(0.0988035 0.00354499 0)
(0.0988009 0.00338322 0)
(0.098803 0.00322617 0)
(0.0988093 0.00307392 0)
(0.0988197 0.00292653 0)
(0.0988337 0.00278403 0)
(0.098851 0.00264645 0)
(0.0988714 0.00251383 0)
(0.0988945 0.00238618 0)
(0.09892 0.00226349 0)
(0.0989477 0.00214573 0)
(0.0989773 0.00203286 0)
(0.0990084 0.0019248 0)
(0.0990408 0.00182143 0)
(0.0990743 0.00172262 0)
(0.0991086 0.00162822 0)
(0.0991435 0.00153807 0)
(0.0991787 0.001452 0)
(0.101307 0.00876719 0)
(0.101092 0.00858278 0)
(0.100886 0.00839231 0)
(0.100689 0.00819643 0)
(0.100501 0.00799574 0)
(0.100323 0.00779087 0)
(0.100154 0.00758247 0)
(0.0999953 0.00737121 0)
(0.0998464 0.00715775 0)
(0.0997074 0.00694275 0)
(0.0995784 0.00672682 0)
(0.0994592 0.00651058 0)
(0.0993499 0.00629462 0)
(0.0992501 0.00607948 0)
(0.0991598 0.00586568 0)
(0.0990786 0.00565371 0)
(0.0990064 0.00544401 0)
(0.0989428 0.00523701 0)
(0.0988875 0.00503308 0)
(0.0988402 0.00483256 0)
(0.0988004 0.00463578 0)
(0.0987678 0.00444301 0)
(0.098742 0.00425448 0)
(0.0987227 0.00407042 0)
(0.0987094 0.003891 0)
(0.0987017 0.00371636 0)
(0.0986993 0.00354663 0)
(0.0987018 0.00338188 0)
(0.0987088 0.00322219 0)
(0.09872 0.0030676 0)
(0.098735 0.00291815 0)
(0.0987536 0.00277386 0)
(0.0987753 0.00263475 0)
(0.0987999 0.00250082 0)
(0.0988271 0.00237207 0)
(0.0988566 0.00224849 0)
(0.098888 0.00213004 0)
(0.0989212 0.00201664 0)
(0.0989557 0.00190822 0)
(0.0989914 0.00180464 0)
(0.099028 0.00170575 0)
(0.0990652 0.00161139 0)
(0.0991029 0.00152138 0)
(0.0991408 0.00143556 0)
(0.10111 0.00899931 0)
(0.100892 0.00880118 0)
(0.100685 0.00859713 0)
(0.100487 0.00838782 0)
(0.100299 0.00817392 0)
(0.100121 0.00795608 0)
(0.0999534 0.00773503 0)
(0.0997964 0.00751147 0)
(0.0996498 0.00728609 0)
(0.0995137 0.00705958 0)
(0.0993881 0.0068326 0)
(0.0992728 0.00660579 0)
(0.0991676 0.00637976 0)
(0.0990724 0.00615506 0)
(0.0989869 0.00593224 0)
(0.0989109 0.00571179 0)
(0.098844 0.00549415 0)
(0.0987859 0.00527974 0)
(0.0987362 0.00506894 0)
(0.0986945 0.00486209 0)
(0.0986605 0.00465947 0)
(0.0986337 0.00446136 0)
(0.0986136 0.00426798 0)
(0.0986 0.00407951 0)
(0.0985923 0.00389611 0)
(0.0985902 0.0037179 0)
(0.0985932 0.00354497 0)
(0.098601 0.00337739 0)
(0.0986132 0.00321519 0)
(0.0986294 0.00305841 0)
(0.0986493 0.00290704 0)
(0.0986726 0.0027611 0)
(0.0986989 0.00262059 0)
(0.0987278 0.00248548 0)
(0.0987592 0.00235578 0)
(0.0987927 0.00223144 0)
(0.098828 0.00211242 0)
(0.0988649 0.00199863 0)
(0.0989029 0.00188996 0)
(0.0989419 0.00178629 0)
(0.0989817 0.00168743 0)
(0.0990219 0.00159322 0)
(0.0990624 0.00150345 0)
(0.0991029 0.00141796 0)
(0.100896 0.00923396 0)
(0.100677 0.0090213 0)
(0.100468 0.00880286 0)
(0.10027 0.00857939 0)
(0.100083 0.00835158 0)
(0.0999061 0.00812017 0)
(0.0997404 0.0078859 0)
(0.0995859 0.00764952 0)
(0.0994423 0.00741176 0)
(0.0993098 0.00717336 0)
(0.0991882 0.00693499 0)
(0.0990773 0.00669733 0)
(0.098977 0.006461 0)
(0.098887 0.00622657 0)
(0.0988069 0.0059946 0)
(0.0987366 0.00576557 0)
(0.0986756 0.00553994 0)
(0.0986235 0.00531811 0)
(0.0985799 0.00510046 0)
(0.0985444 0.00488731 0)
(0.0985166 0.00467893 0)
(0.098496 0.00447558 0)
(0.0984821 0.00427744 0)
(0.0984745 0.00408469 0)
(0.0984728 0.00389745 0)
(0.0984765 0.00371581 0)
(0.0984853 0.00353985 0)
(0.0984986 0.00336959 0)
(0.0985162 0.00320504 0)
(0.0985377 0.00304622 0)
(0.0985626 0.0028931 0)
(0.0985908 0.00274566 0)
(0.0986217 0.00260389 0)
(0.0986552 0.00246777 0)
(0.0986909 0.00233725 0)
(0.0987286 0.00221229 0)
(0.0987678 0.00209283 0)
(0.0988084 0.00197877 0)
(0.0988501 0.00186999 0)
(0.0988925 0.00176634 0)
(0.0989354 0.00166763 0)
(0.0989787 0.00157367 0)
(0.099022 0.00148426 0)
(0.0990653 0.00139919 0)
(0.107926 0.00417391 0)
(0.107744 0.00434041 0)
(0.107558 0.00449756 0)
(0.107368 0.00464517 0)
(0.107174 0.00478307 0)
(0.106978 0.00491106 0)
(0.106779 0.005029 0)
(0.106578 0.00513677 0)
(0.106376 0.00523429 0)
(0.106173 0.00532154 0)
(0.10597 0.00539853 0)
(0.105767 0.00546535 0)
(0.105565 0.00552214 0)
(0.105364 0.00556907 0)
(0.105164 0.00560642 0)
(0.104967 0.00563447 0)
(0.104771 0.00565358 0)
(0.104578 0.00566414 0)
(0.104389 0.00566659 0)
(0.104202 0.00566138 0)
(0.104019 0.00564898 0)
(0.103839 0.00562989 0)
(0.103663 0.00560459 0)
(0.103492 0.00557356 0)
(0.103324 0.00553728 0)
(0.103161 0.0054962 0)
(0.108091 0.00435741 0)
(0.1079 0.00452898 0)
(0.107704 0.00469057 0)
(0.107503 0.00484201 0)
(0.1073 0.00498312 0)
(0.107093 0.00511372 0)
(0.106884 0.00523369 0)
(0.106674 0.00534292 0)
(0.106462 0.00544136 0)
(0.10625 0.00552899 0)
(0.106038 0.00560588 0)
(0.105826 0.00567212 0)
(0.105615 0.00572787 0)
(0.105406 0.00577335 0)
(0.105198 0.00580885 0)
(0.104993 0.00583468 0)
(0.10479 0.00585123 0)
(0.10459 0.00585891 0)
(0.104393 0.00585819 0)
(0.104199 0.00584953 0)
(0.10401 0.00583345 0)
(0.103824 0.00581044 0)
(0.103643 0.00578103 0)
(0.103466 0.00574572 0)
(0.103293 0.005705 0)
(0.103125 0.00565935 0)
(0.108262 0.004551 0)
(0.10806 0.00472774 0)
(0.107853 0.00489384 0)
(0.107642 0.0050491 0)
(0.107428 0.00519339 0)
(0.107211 0.00532653 0)
(0.106992 0.00544841 0)
(0.106771 0.00555895 0)
(0.106549 0.00565812 0)
(0.106327 0.00574594 0)
(0.106105 0.00582249 0)
(0.105884 0.00588789 0)
(0.105664 0.00594235 0)
(0.105446 0.0059861 0)
(0.10523 0.00601946 0)
(0.105016 0.00604278 0)
(0.104805 0.00605646 0)
(0.104598 0.00606096 0)
(0.104394 0.00605676 0)
(0.104193 0.00604435 0)
(0.103997 0.00602426 0)
(0.103805 0.00599704 0)
(0.103618 0.0059632 0)
(0.103435 0.00592329 0)
(0.103257 0.00587782 0)
(0.103084 0.00582729 0)
(0.108438 0.00475533 0)
(0.108225 0.00493735 0)
(0.108007 0.005108 0)
(0.107785 0.0052671 0)
(0.10756 0.00541451 0)
(0.107332 0.0055501 0)
(0.107101 0.00567377 0)
(0.10687 0.00578546 0)
(0.106637 0.00588516 0)
(0.106405 0.00597294 0)
(0.106173 0.00604889 0)
(0.105941 0.00611319 0)
(0.105712 0.00616605 0)
(0.105484 0.00620777 0)
(0.105259 0.00623867 0)
(0.105037 0.00625915 0)
(0.104818 0.00626964 0)
(0.104602 0.00627062 0)
(0.10439 0.00626259 0)
(0.104183 0.00624609 0)
(0.10398 0.00622166 0)
(0.103781 0.00618987 0)
(0.103588 0.00615126 0)
(0.103399 0.00610641 0)
(0.103216 0.00605585 0)
(0.103038 0.0060001 0)
(0.108621 0.0049711 0)
(0.108396 0.0051585 0)
(0.108166 0.00533375 0)
(0.107932 0.00549669 0)
(0.107695 0.00564718 0)
(0.107455 0.00578512 0)
(0.107213 0.00591043 0)
(0.10697 0.00602308 0)
(0.106726 0.0061231 0)
(0.106482 0.00621058 0)
(0.106239 0.00628567 0)
(0.105998 0.00634855 0)
(0.105758 0.0063995 0)
(0.10552 0.00643884 0)
(0.105286 0.00646694 0)
(0.105054 0.00648422 0)
(0.104826 0.00649115 0)
(0.104603 0.00648823 0)
(0.104383 0.00647601 0)
(0.104168 0.00645503 0)
(0.103958 0.00642588 0)
(0.103752 0.00638914 0)
(0.103552 0.0063454 0)
(0.103358 0.00629523 0)
(0.103169 0.0062392 0)
(0.102986 0.00617786 0)
(0.10881 0.00519906 0)
(0.108573 0.00539195 0)
(0.10833 0.00557185 0)
(0.108084 0.00573861 0)
(0.107833 0.00589212 0)
(0.107581 0.0060323 0)
(0.107326 0.00615909 0)
(0.107071 0.0062725 0)
(0.106815 0.0063726 0)
(0.106559 0.00645951 0)
(0.106305 0.00653341 0)
(0.106052 0.00659456 0)
(0.105802 0.00664325 0)
(0.105554 0.00667984 0)
(0.105309 0.00670474 0)
(0.105068 0.00671842 0)
(0.104831 0.00672138 0)
(0.104598 0.00671416 0)
(0.104371 0.00669732 0)
(0.104148 0.00667146 0)
(0.10393 0.00663717 0)
(0.103718 0.00659507 0)
(0.103511 0.00654577 0)
(0.103311 0.00648987 0)
(0.103116 0.00642797 0)
(0.102927 0.00636065 0)
(0.109006 0.00544001 0)
(0.108755 0.00563849 0)
(0.108499 0.00582308 0)
(0.108239 0.00599365 0)
(0.107975 0.00615011 0)
(0.107709 0.0062924 0)
(0.107441 0.0064205 0)
(0.107172 0.00653445 0)
(0.106904 0.00663436 0)
(0.106636 0.0067204 0)
(0.106369 0.00679279 0)
(0.106105 0.00685183 0)
(0.105843 0.00689786 0)
(0.105584 0.00693129 0)
(0.105329 0.00695258 0)
(0.105078 0.00696223 0)
(0.104831 0.00696077 0)
(0.104589 0.00694879 0)
(0.104353 0.00692688 0)
(0.104122 0.00689567 0)
(0.103896 0.00685578 0)
(0.103677 0.00680786 0)
(0.103464 0.00675255 0)
(0.103257 0.00669048 0)
(0.103056 0.00662227 0)
(0.102863 0.00654853 0)
(0.109208 0.0056948 0)
(0.108943 0.00589898 0)
(0.108673 0.00608831 0)
(0.108398 0.00626266 0)
(0.10812 0.00642198 0)
(0.107839 0.00656624 0)
(0.107557 0.00669545 0)
(0.107275 0.0068097 0)
(0.106993 0.00690913 0)
(0.106712 0.00699397 0)
(0.106432 0.00706448 0)
(0.106155 0.00712101 0)
(0.105881 0.00716396 0)
(0.105611 0.00719379 0)
(0.105345 0.00721099 0)
(0.105083 0.00721612 0)
(0.104826 0.00720975 0)
(0.104575 0.00719251 0)
(0.104329 0.00716502 0)
(0.10409 0.00712795 0)
(0.103856 0.00708196 0)
(0.103629 0.00702773 0)
(0.103409 0.00696591 0)
(0.103196 0.00689718 0)
(0.10299 0.00682218 0)
(0.102791 0.00674155 0)
(0.109418 0.00596437 0)
(0.109137 0.00617434 0)
(0.108851 0.00636843 0)
(0.108561 0.00654653 0)
(0.108268 0.00670862 0)
(0.107972 0.00685469 0)
(0.107675 0.0069848 0)
(0.107378 0.00709907 0)
(0.107081 0.00719771 0)
(0.106786 0.00728097 0)
(0.106493 0.0073492 0)
(0.106203 0.00740279 0)
(0.105916 0.00744219 0)
(0.105634 0.00746791 0)
(0.105356 0.00748052 0)
(0.105083 0.00748059 0)
(0.104816 0.00746877 0)
(0.104554 0.00744572 0)
(0.104299 0.0074121 0)
(0.104051 0.00736862 0)
(0.103809 0.00731598 0)
(0.103575 0.00725487 0)
(0.103347 0.00718601 0)
(0.103128 0.00711008 0)
(0.102915 0.00702778 0)
(0.102711 0.00693975 0)
(0.109634 0.00624969 0)
(0.109337 0.00646556 0)
(0.109034 0.00666444 0)
(0.108728 0.00684624 0)
(0.108418 0.00701098 0)
(0.108106 0.00715868 0)
(0.107794 0.00728944 0)
(0.107481 0.00740343 0)
(0.107169 0.00750092 0)
(0.106859 0.00758222 0)
(0.106551 0.00764772 0)
(0.106247 0.00769788 0)
(0.105947 0.00773322 0)
(0.105652 0.0077543 0)
(0.105361 0.00776173 0)
(0.105077 0.00775618 0)
(0.104799 0.00773831 0)
(0.104527 0.00770884 0)
(0.104262 0.00766848 0)
(0.104005 0.00761798 0)
(0.103754 0.00755807 0)
(0.103512 0.0074895 0)
(0.103277 0.007413 0)
(0.103051 0.0073293 0)
(0.102833 0.00723912 0)
(0.102623 0.00714314 0)
(0.109857 0.00655184 0)
(0.109542 0.0067737 0)
(0.109222 0.00697737 0)
(0.108898 0.00716281 0)
(0.108571 0.00733006 0)
(0.108242 0.00747918 0)
(0.107913 0.00761032 0)
(0.107583 0.00772371 0)
(0.107255 0.00781965 0)
(0.106929 0.00789854 0)
(0.106607 0.00796083 0)
(0.106288 0.00800703 0)
(0.105974 0.00803774 0)
(0.105665 0.00805358 0)
(0.105361 0.00805523 0)
(0.105065 0.0080434 0)
(0.104775 0.00801883 0)
(0.104492 0.00798228 0)
(0.104217 0.00793451 0)
(0.10395 0.00787632 0)
(0.103691 0.00780849 0)
(0.103441 0.00773179 0)
(0.103199 0.00764701 0)
(0.102966 0.00755491 0)
(0.102741 0.00745624 0)
(0.102525 0.00735173 0)
(0.110087 0.00687197 0)
(0.109753 0.00709989 0)
(0.109415 0.00730835 0)
(0.109072 0.00749734 0)
(0.108727 0.00766693 0)
(0.10838 0.00781723 0)
(0.108032 0.00794845 0)
(0.107685 0.00806086 0)
(0.10734 0.00815483 0)
(0.106997 0.00823082 0)
(0.106658 0.00828935 0)
(0.106324 0.00833102 0)
(0.105995 0.00835648 0)
(0.105671 0.00836643 0)
(0.105355 0.00836161 0)
(0.105045 0.00834281 0)
(0.104743 0.00831082 0)
(0.104449 0.00826646 0)
(0.104164 0.00821056 0)
(0.103887 0.00814395 0)
(0.103619 0.00806746 0)
(0.10336 0.00798193 0)
(0.103111 0.00788817 0)
(0.10287 0.00778699 0)
(0.10264 0.00767918 0)
(0.102419 0.0075655 0)
(0.110323 0.00721131 0)
(0.10997 0.00744535 0)
(0.109612 0.00765857 0)
(0.109249 0.00785099 0)
(0.108884 0.00802274 0)
(0.108517 0.00817395 0)
(0.108151 0.00830489 0)
(0.107785 0.0084159 0)
(0.107422 0.00850742 0)