/*--------------------------------*- C++ -*----------------------------------*\
| =========                 |                                                 |
| \\      /  F ield         | OpenFOAM: The Open Source CFD Toolbox           |
|  \\    /   O peration     | Version:  2412                                  |
|   \\  /    A nd           | Website:  www.openfoam.com                      |
|    \\/     M anipulation  |                                                 |
\*---------------------------------------------------------------------------*/
FoamFile
{
    version     2.0;
    format      ascii;
    arch        "LSB;label=32;scalar=64";
    class       volScalarField;
    location    "25.5";
    object      p;
}
// * * * * * * * * * * * * * * * * * * * * * * * * * * * * * * * * * * * * * //

dimensions      [0 2 -2 0 0 0 0];

internalField   nonuniform List<scalar> 
5285
(
-0.00017524
-0.000168768
-0.000162326
-0.000155921
-0.000149566
-0.000143273
-0.000137051
-0.000130913
-0.000124867
-0.000118925
-0.000113094
-0.000107385
-0.000101806
-9.63634e-05
-9.10656e-05
-8.59187e-05
-8.09285e-05
-7.60997e-05
-7.14368e-05
-6.69432e-05
-6.26216e-05
-5.84741e-05
-5.45018e-05
-5.07053e-05
-4.70844e-05
-4.36382e-05
-4.03652e-05
-3.72632e-05
-3.43297e-05
-3.15613e-05
-2.89543e-05
-2.65047e-05
-2.42078e-05
-2.20589e-05
-2.00528e-05
-1.81842e-05
-1.64475e-05
-1.4837e-05
-1.33469e-05
-1.19715e-05
-1.07049e-05
-9.54128e-06
-8.47478e-06
-7.49999e-06
-0.000178745
-0.000171976
-0.000165246
-0.000158565
-0.000151944
-0.000145397
-0.000138933
-0.000132565
-0.000126302
-0.000120155
-0.000114132
-0.000108244
-0.000102497
-9.69007e-05
-9.14608e-05
-8.61838e-05
-8.10751e-05
-7.61394e-05
-7.13805e-05
-6.68015e-05
-6.24046e-05
-5.81913e-05
-5.41624e-05
-5.03179e-05
-4.66569e-05
-4.31781e-05
-3.98793e-05
-3.6758e-05
-3.38108e-05
-3.10339e-05
-2.84232e-05
-2.5974e-05
-2.36813e-05
-2.15397e-05
-1.95438e-05
-1.76876e-05
-1.59654e-05
-1.4371e-05
-1.28984e-05
-1.15414e-05
-1.02939e-05
-9.14981e-06
-8.10312e-06
-7.14823e-06
-0.000182139
-0.000175065
-0.00016804
-0.000161077
-0.000154187
-0.000147381
-0.000140673
-0.000134074
-0.000127592
-0.00012124
-0.000115026
-0.000108959
-0.000103047
-9.72984e-05
-9.17192e-05
-8.63154e-05
-8.10921e-05
-7.60535e-05
-7.12031e-05
-6.65434e-05
-6.20761e-05
-5.78022e-05
-5.37219e-05
-4.98345e-05
-4.61388e-05
-4.26326e-05
-3.93133e-05
-3.61776e-05
-3.32218e-05
-3.04413e-05
-2.78316e-05
-2.53873e-05
-2.3103e-05
-2.0973e-05
-1.89911e-05
-1.71512e-05
-1.54469e-05
-1.38719e-05
-1.24197e-05
-1.1084e-05
-9.85818e-06
-8.73615e-06
-7.71153e-06
-6.77863e-06
-0.000185407
-0.00017802
-0.000170696
-0.000163445
-0.00015628
-0.000149214
-0.000142259
-0.000135426
-0.000128726
-0.000122169
-0.000115764
-0.00010952
-0.000103446
-9.75481e-05
-9.18331e-05
-8.63064e-05
-8.09729e-05
-7.58361e-05
-7.08991e-05
-6.61639e-05
-6.16317e-05
-5.73027e-05
-5.31766e-05
-4.92521e-05
-4.55272e-05
-4.19993e-05
-3.8665e-05
-3.55204e-05
-3.25611e-05
-2.97822e-05
-2.71783e-05
-2.47437e-05
-2.24724e-05
-2.03581e-05
-1.83943e-05
-1.65744e-05
-1.48918e-05
-1.33395e-05
-1.19109e-05
-1.05993e-05
-9.39796e-06
-8.30043e-06
-7.30016e-06
-6.39133e-06
-0.000188533
-0.000180827
-0.000173198
-0.000165655
-0.000158212
-0.000150883
-0.000143679
-0.000136612
-0.000129693
-0.000122932
-0.000116338
-0.00010992
-0.000103685
-9.76416e-05
-9.17948e-05
-8.61498e-05
-8.07109e-05
-7.54813e-05
-7.04633e-05
-6.56584e-05
-6.10671e-05
-5.66891e-05
-5.25233e-05
-4.85677e-05
-4.48197e-05
-4.1276e-05
-3.79326e-05
-3.47848e-05
-3.18277e-05
-2.90556e-05
-2.64628e-05
-2.40427e-05
-2.17891e-05
-1.96949e-05
-1.77534e-05
-1.59575e-05
-1.43e-05
-1.27739e-05
-1.13721e-05
-1.00876e-05
-8.91344e-06
-7.84294e-06
-6.86931e-06
-5.98666e-06
-0.000191503
-0.000183472
-0.000175531
-0.000167692
-0.000159968
-0.000152373
-0.000144919
-0.000137618
-0.00013048
-0.000123516
-0.000116736
-0.000110146
-0.000103756
-9.75705e-05
-9.15966e-05
-8.58385e-05
-8.02998e-05
-7.49832e-05
-6.98903e-05
-6.50221e-05
-6.03782e-05
-5.59577e-05
-5.17587e-05
-4.77786e-05
-4.4014e-05
-4.04608e-05
-3.71144e-05
-3.39695e-05
-3.10203e-05
-2.82607e-05
-2.56842e-05
-2.32838e-05
-2.10526e-05
-1.89832e-05
-1.70683e-05
-1.53003e-05
-1.36718e-05
-1.21754e-05
-1.08036e-05
-9.54917e-06
-8.40492e-06
-7.36395e-06
-6.41928e-06
-5.56492e-06
-0.000194299
-0.000185936
-0.000177679
-0.00016954
-0.000161532
-0.00015367
-0.000145965
-0.000138431
-0.000131076
-0.000123912
-0.000116947
-0.00011019
-0.000103648
-9.7326e-05
-9.12305e-05
-8.53652e-05
-7.97329e-05
-7.43359e-05
-6.91749e-05
-6.42502e-05
-5.95608e-05
-5.51048e-05
-5.08797e-05
-4.68821e-05
-4.31077e-05
-3.95518e-05
-3.62089e-05
-3.30731e-05
-3.0138e-05
-2.73967e-05
-2.4842e-05
-2.24666e-05
-2.02628e-05
-1.82229e-05
-1.63389e-05
-1.4603e-05
-1.30074e-05
-1.15441e-05
-1.02056e-05
-8.9843e-06
-7.87274e-06
-6.86386e-06
-5.95046e-06
-5.12649e-06
-0.000196904
-0.000188203
-0.000179626
-0.000171183
-0.00016289
-0.000154759
-0.000146804
-0.000139037
-0.000131468
-0.000124106
-0.000116961
-0.000110041
-0.000103352
-9.68994e-05
-9.06885e-05
-8.47225e-05
-7.90037e-05
-7.35334e-05
-6.83118e-05
-6.33382e-05
-5.86107e-05
-5.41269e-05
-4.98833e-05
-4.58755e-05
-4.20986e-05
-3.85471e-05
-3.52147e-05
-3.20946e-05
-2.91799e-05
-2.64629e-05
-2.39359e-05
-2.15909e-05
-1.94196e-05
-1.74139e-05
-1.55654e-05
-1.38658e-05
-1.23069e-05
-1.08804e-05
-9.57854e-06
-8.39338e-06
-7.3173e-06
-6.34305e-06
-5.46324e-06
-4.67177e-06
-0.000199298
-0.000190255
-0.000181353
-0.000172605
-0.000164024
-0.000155625
-0.000147421
-0.000139423
-0.000131642
-0.000124087
-0.000116766
-0.000109688
-0.000102858
-9.62817e-05
-8.99625e-05
-8.39032e-05
-7.81056e-05
-7.257e-05
-6.72958e-05
-6.22815e-05
-5.75243e-05
-5.30207e-05
-4.87665e-05
-4.47565e-05
-4.09849e-05
-3.74452e-05
-3.41304e-05
-3.1033e-05
-2.81453e-05
-2.54589e-05
-2.29655e-05
-2.06565e-05
-1.85231e-05
-1.65565e-05
-1.47481e-05
-1.3089e-05
-1.15707e-05
-1.01847e-05
-8.92281e-06
-7.77687e-06
-6.73907e-06
-5.802e-06
-4.9581e-06
-4.20121e-06
-0.000201461
-0.000192072
-0.000182842
-0.000173787
-0.000164918
-0.000156252
-0.0001478
-0.000139575
-0.000131585
-0.000123841
-0.000116351
-0.000109121
-0.000102157
-9.54641e-05
-8.90444e-05
-8.29002e-05
-7.70322e-05
-7.144e-05
-6.61221e-05
-6.10758e-05
-5.62976e-05
-5.17831e-05
-4.75269e-05
-4.3523e-05
-3.97647e-05
-3.62447e-05
-3.29551e-05
-2.98876e-05
-2.70337e-05
-2.43845e-05
-2.19308e-05
-1.96635e-05
-1.75734e-05
-1.5651e-05
-1.38873e-05
-1.22731e-05
-1.07994e-05
-9.45758e-06
-8.23896e-06
-7.13532e-06
-6.1386e-06
-5.24125e-06
-4.43555e-06
-3.71533e-06
-0.000203374
-0.000193634
-0.000184075
-0.00017471
-0.000165555
-0.000156622
-0.000147926
-0.000139476
-0.000131284
-0.000123357
-0.000115703
-0.000108329
-0.000101239
-9.44378e-05
-8.79264e-05
-8.17063e-05
-7.57773e-05
-7.0138e-05
-6.47858e-05
-5.97171e-05
-5.49273e-05
-5.04111e-05
-4.6162e-05
-4.21731e-05
-3.84366e-05
-3.49445e-05
-3.16879e-05
-2.86578e-05
-2.58449e-05
-2.32395e-05
-2.08319e-05
-1.86123e-05
-1.65708e-05
-1.46978e-05
-1.29836e-05
-1.14186e-05
-9.99363e-06
-8.69957e-06
-7.52764e-06
-6.46936e-06
-5.51652e-06
-4.66141e-06
-3.89619e-06
-3.21468e-06
-0.000205014
-0.00019492
-0.00018503
-0.000175357
-0.000165915
-0.000156719
-0.000147782
-0.000139114
-0.000130724
-0.000122621
-0.000114812
-0.000107301
-0.000100095
-9.31939e-05
-8.66005e-05
-8.03146e-05
-7.43347e-05
-6.86585e-05
-6.32823e-05
-5.82014e-05
-5.34102e-05
-4.8902e-05
-4.46696e-05
-4.0705e-05
-3.69994e-05
-3.35437e-05
-3.03283e-05
-2.73434e-05
-2.45787e-05
-2.20241e-05
-1.9669e-05
-1.75031e-05
-1.5516e-05
-1.36975e-05
-1.20376e-05
-1.05263e-05
-9.15399e-06
-7.91144e-06
-6.78957e-06
-5.77972e-06
-4.87351e-06
-4.06314e-06
-3.34065e-06
-2.69987e-06
-0.000206358
-0.000195908
-0.000185686
-0.000175706
-0.000165981
-0.000156526
-0.000147352
-0.000138471
-0.000129891
-0.00012162
-0.000113664
-0.000106027
-9.87132e-05
-9.17238e-05
-8.50592e-05
-7.87183e-05
-7.26986e-05
-6.69966e-05
-6.16075e-05
-5.65253e-05
-5.17432e-05
-4.72536e-05
-4.3048e-05
-3.91174e-05
-3.54519e-05
-3.20416e-05
-2.8876e-05
-2.59442e-05
-2.32355e-05
-2.07386e-05
-1.84427e-05
-1.63366e-05
-1.44096e-05
-1.26509e-05
-1.10501e-05
-9.59686e-06
-8.28137e-06
-7.09402e-06
-6.02556e-06
-5.06718e-06
-4.21036e-06
-3.44719e-06
-2.76964e-06
-2.17158e-06
-0.000207382
-0.000196575
-0.000186023
-0.000175737
-0.000165732
-0.000156023
-0.00014662
-0.000137533
-0.000128771
-0.000120341
-0.000112248
-0.000104495
-9.70855e-05
-9.0019e-05
-8.32949e-05
-7.69109e-05
-7.08635e-05
-6.51476e-05
-5.97573e-05
-5.46854e-05
-4.99238e-05
-4.54638e-05
-4.12957e-05
-3.74092e-05
-3.37937e-05
-3.04381e-05
-2.73309e-05
-2.44606e-05
-2.18155e-05
-1.93837e-05
-1.71536e-05
-1.51137e-05
-1.32525e-05
-1.15589e-05
-1.0022e-05
-8.63139e-06
-7.37673e-06
-6.24826e-06
-5.23656e-06
-4.33264e-06
-3.5279e-06
-2.81437e-06
-2.18393e-06
-1.6305e-06
-0.000208061
-0.000196899
-0.000186017
-0.00017543
-0.00016515
-0.000155192
-0.000145567
-0.000136284
-0.00012735
-0.000118772
-0.000110553
-0.000102696
-9.52023e-05
-8.80712e-05
-8.13005e-05
-7.48864e-05
-6.8824e-05
-6.31071e-05
-5.77282e-05
-5.26789e-05
-4.79499e-05
-4.3531e-05
-3.94115e-05
-3.55799e-05
-3.20245e-05
-2.87331e-05
-2.56935e-05
-2.28931e-05
-2.03195e-05
-1.79602e-05
-1.58028e-05
-1.38353e-05
-1.20458e-05
-1.04226e-05
-8.95465e-06
-7.63098e-06
-6.44118e-06
-5.37524e-06
-4.42358e-06
-3.57709e-06
-2.82709e-06
-2.16557e-06
-1.58435e-06
-1.07743e-06
-0.000208371
-0.000196853
-0.000185646
-0.000174761
-0.000164213
-0.000154015
-0.000144177
-0.000134707
-0.000125613
-0.000116898
-0.000108566
-0.000100618
-9.30544e-05
-8.58725e-05
-7.90691e-05
-7.26388e-05
-6.65754e-05
-6.08711e-05
-5.5517e-05
-5.05034e-05
-4.58195e-05
-4.14539e-05
-3.73946e-05
-3.36289e-05
-3.01441e-05
-2.69269e-05
-2.39642e-05
-2.12424e-05
-1.87484e-05
-1.64691e-05
-1.43914e-05
-1.25027e-05
-1.07907e-05
-9.2433e-06
-7.84906e-06
-6.59681e-06
-5.47587e-06
-4.47607e-06
-3.58768e-06
-2.80154e-06
-2.10887e-06
-1.50166e-06
-9.71716e-07
-5.13125e-07
-0.000208282
-0.000196412
-0.000184884
-0.000173709
-0.000162901
-0.000152472
-0.000142431
-0.000132787
-0.000123544
-0.000114706
-0.000106275
-9.82509e-05
-9.06319e-05
-8.34144e-05
-7.65933e-05
-7.0162e-05
-6.41124e-05
-5.84352e-05
-5.31202e-05
-4.81561e-05
-4.35306e-05
-3.92311e-05
-3.52441e-05
-3.15559e-05
-2.81525e-05
-2.50197e-05
-2.21433e-05
-1.95091e-05
-1.7103e-05
-1.49113e-05
-1.29203e-05
-1.11169e-05
-9.48822e-06
-8.02201e-06
-6.70638e-06
-5.52994e-06
-4.48184e-06
-3.55174e-06
-2.72984e-06
-2.00689e-06
-1.3741e-06
-8.23465e-07
-3.4679e-07
6.17142e-08
-0.000207766
-0.000195549
-0.000183706
-0.000172249
-0.00016119
-0.000150541
-0.000140311
-0.000130505
-0.000121128
-0.000112182
-0.000103668
-9.55837e-05
-8.79257e-05
-8.0689e-05
-7.38667e-05
-6.74504e-05
-6.14306e-05
-5.57962e-05
-5.05354e-05
-4.56353e-05
-4.10822e-05
-3.6862e-05
-3.296e-05
-2.93612e-05
-2.60505e-05
-2.30127e-05
-2.02325e-05
-1.76949e-05
-1.53851e-05
-1.32887e-05
-1.13914e-05
-9.67972e-06
-8.14036e-06
-6.76065e-06
-5.52844e-06
-4.43216e-06
-3.4608e-06
-2.6039e-06
-1.85159e-06
-1.1946e-06
-6.24144e-07
-1.32249e-07
2.89247e-07
6.45987e-07
-0.000206796
-0.000194238
-0.000182089
-0.00017036
-0.000159062
-0.000148206
-0.0001378
-0.000127849
-0.000118354
-0.000109317
-0.000100737
-9.26098e-05
-8.49306e-05
-7.76923e-05
-7.08862e-05
-6.45023e-05
-5.8529e-05
-5.29538e-05
-4.77629e-05
-4.2942e-05
-3.84757e-05
-3.43486e-05
-3.05446e-05
-2.70474e-05
-2.38408e-05
-2.09085e-05
-1.82344e-05
-1.58025e-05
-1.35974e-05
-1.1604e-05
-9.80752e-06
-8.19393e-06
-6.74962e-06
-5.46162e-06
-4.31755e-06
-3.30564e-06
-2.41478e-06
-1.63443e-06
-9.54704e-07
-3.66319e-07
1.39482e-07
5.7059e-07
9.35115e-07
1.23852e-06
-0.000205352
-0.000192461
-0.000180016
-0.000168027
-0.000156503
-0.000145455
-0.00013489
-0.000124809
-0.000115214
-0.000106105
-9.74767e-05
-8.93254e-05
-8.16437e-05
-7.44224e-05
-6.7651e-05
-6.13174e-05
-5.54083e-05
-4.99091e-05
-4.48045e-05
-4.00783e-05
-3.57137e-05
-3.16937e-05
-2.80008e-05
-2.46176e-05
-2.15266e-05
-1.87105e-05
-1.61523e-05
-1.38352e-05
-1.17431e-05
-9.86029e-06
-8.17152e-06
-6.66229e-06
-5.31868e-06
-4.12747e-06
-3.07608e-06
-2.15262e-06
-1.34588e-06
-6.45295e-07
-4.09817e-08
4.76299e-07
9.15249e-07
1.28365e-06
1.58954e-06
1.83816e-06
-0.000363757
-0.000358558
-0.000352934
-0.000346918
-0.000340559
-0.000333898
-0.000326966
-0.000319798
-0.000312428
-0.000304888
-0.000297211
-0.000289425
-0.000281558
-0.000273638
-0.000265689
-0.000257735
-0.000249798
-0.000241897
-0.000234052
-0.000226281
-0.000218598
-0.000211018
-0.000203554
-0.000196217
-0.000189018
-0.000181966
-0.000380669
-0.000374873
-0.000368642
-0.000362014
-0.00035504
-0.000347761
-0.000340215
-0.000332435
-0.00032446
-0.000316323
-0.000308057
-0.000299693
-0.000291261
-0.000282788
-0.000274302
-0.000265825
-0.000257381
-0.000248992
-0.000240675
-0.000232449
-0.00022433
-0.000216332
-0.000208468
-0.00020075
-0.000193188
-0.000185791
-0.000398191
-0.000391753
-0.000384872
-0.000377588
-0.000369956
-0.00036202
-0.000353819
-0.00034539
-0.000336772
-0.000328001
-0.000319112
-0.000310138
-0.000301109
-0.000292056
-0.000283004
-0.000273979
-0.000265005
-0.000256103
-0.000247294
-0.000238595
-0.000230022
-0.00022159
-0.000213313
-0.000205201
-0.000197265
-0.000189512
-0.000416347
-0.000409219
-0.000401641
-0.000393655
-0.00038532
-0.000376683
-0.000367784
-0.000358664
-0.000349364
-0.000339922
-0.000330374
-0.000320755
-0.000311097
-0.000301432
-0.000291786
-0.000282186
-0.000272657
-0.000263221
-0.000253897
-0.000244705
-0.000235661
-0.00022678
-0.000218074
-0.000209555
-0.000201233
-0.000193116
-0.00043516
-0.000427292
-0.000418966
-0.000410229
-0.000401143
-0.000391757
-0.000382115
-0.000372261
-0.000362236
-0.000352083
-0.000341838
-0.000331538
-0.000321217
-0.000310907
-0.000300637
-0.000290435
-0.000280325
-0.00027033
-0.000260471
-0.000250766
-0.000241233
-0.000231885
-0.000222737
-0.000213798
-0.000205079
-0.000196586
-0.000454657
-0.000445992
-0.000436865
-0.000427324
-0.000417435
-0.000407251
-0.000396818
-0.000386182
-0.000375389
-0.000364481
-0.000353499
-0.00034248
-0.00033146
-0.000320472
-0.000309547
-0.000298713
-0.000287994
-0.000277416
-0.000266998
-0.000256761
-0.00024672
-0.00023689
-0.000227284
-0.000217912
-0.000208785
-0.000199908
-0.000474863
-0.000465343
-0.000455356
-0.000444954
-0.000434207
-0.000423171
-0.000411895
-0.000400429
-0.00038882
-0.000377113
-0.000365351
-0.000353573
-0.000341816
-0.000330115
-0.000318502
-0.000307005
-0.000295651
-0.000284464
-0.000273464
-0.000262673
-0.000252105
-0.000241776
-0.000231698
-0.000221881
-0.000212334
-0.000203064
-0.000495805
-0.000485367
-0.000474457
-0.000463134
-0.000451469
-0.000439524
-0.000427351
-0.000415002
-0.000402527
-0.000389973
-0.000377386
-0.000364807
-0.000352274
-0.000339823
-0.000327487
-0.000315296
-0.000303277
-0.000291455
-0.00027985
-0.000268483
-0.00025737
-0.000246525
-0.00023596
-0.000225685
-0.000215708
-0.000206035
-0.000517512
-0.000506087
-0.000494188
-0.000481877
-0.000469232
-0.000456318
-0.000443189
-0.000429901
-0.000416506
-0.000403056
-0.000389596
-0.000376171
-0.00036282
-0.00034958
-0.000336487
-0.000323569
-0.000310856
-0.000298371
-0.000286137
-0.000274172
-0.000262494
-0.000251116
-0.000240049
-0.000229304
-0.000218886
-0.000208802
-0.000540013
-0.000527526
-0.000514566
-0.000501198
-0.000487505
-0.000473556
-0.00045941
-0.000445123
-0.000430753
-0.000416353
-0.000401971
-0.000387652
-0.00037344
-0.000359372
-0.000345483
-0.000331805
-0.000318366
-0.000305191
-0.000292302
-0.000279718
-0.000267456
-0.000255528
-0.000243945
-0.000232717
-0.000221849
-0.000211345
-0.000563336
-0.000549709
-0.00053561
-0.000521111
-0.000506298
-0.000491245
-0.000476014
-0.000460667
-0.000445262
-0.000429855
-0.000414498
-0.000399238
-0.000384118
-0.000369179
-0.000354457
-0.000339983
-0.000325787
-0.000311893
-0.000298324
-0.000285098
-0.000272232
-0.000259737
-0.000247625
-0.000235902
-0.000224573
-0.000213643
-0.000587513
-0.000572659
-0.000557339
-0.000541629
-0.000525619
-0.000509388
-0.000493003
-0.000476527
-0.000460024
-0.000443552
-0.000427164
-0.00041091
-0.000394836
-0.000378982
-0.000363386
-0.00034808
-0.000333094
-0.000318452
-0.000304177
-0.000290287
-0.000276797
-0.000263719
-0.000251063
-0.000238834
-0.000227036
-0.000215672
-0.000612573
-0.000596402
-0.000579772
-0.000562764
-0.000545475
-0.000527988
-0.000510373
-0.000492699
-0.000475031
-0.00045743
-0.000439954
-0.000422653
-0.000405574
-0.000388759
-0.000372248
-0.000356072
-0.000340262
-0.000324843
-0.000309836
-0.000295259
-0.000281126
-0.000267448
-0.000254234
-0.000241488
-0.000229213
-0.00021741
-0.000638549
-0.000620962
-0.000602927
-0.00058453
-0.000565874
-0.000547047
-0.000528123
-0.000509174
-0.000490271
-0.000471476
-0.000452849
-0.000434444
-0.000416308
-0.000398486
-0.000381016
-0.000363933
-0.000347264
-0.000331037
-0.000315271
-0.000299984
-0.000285189
-0.000270896
-0.000257111
-0.000243838
-0.000231079
-0.00021883
-0.000665472
-0.000646364
-0.000626822
-0.000606937
-0.00058682
-0.000566564
-0.000546247
-0.000525945
-0.000505731
-0.000485673
-0.000465831
-0.000446262
-0.000427015
-0.000408136
-0.000389663
-0.000371632
-0.00035407
-0.000337004
-0.000320453
-0.000304433
-0.000288957
-0.000274033
-0.000259665
-0.000245856
-0.000232605
-0.000219908
-0.000693376
-0.000672632
-0.000651473
-0.000629997
-0.00060832
-0.000586539
-0.000564738
-0.000542998
-0.000521396
-0.0005
-0.000478877
-0.000458081
-0.000437667
-0.000417679
-0.000398158
-0.000379138
-0.000360647
-0.000342711
-0.000325348
-0.000308573
-0.000292398
-0.000276827
-0.000261866
-0.000247513
-0.000233764
-0.000220615
-0.000722293
-0.000699793
-0.0006769
-0.00065372
-0.000630375
-0.000606969
-0.000583589
-0.000560322
-0.000537247
-0.000514438
-0.000491961
-0.000469875
-0.000448234
-0.000427084
-0.000406467
-0.000386417
-0.00036696
-0.000348122
-0.000329921
-0.00031237
-0.000295476
-0.000279246
-0.00026368
-0.000248775
-0.000234526
-0.000220924
-0.000752255
-0.000727867
-0.000703115
-0.000678112
-0.000652985
-0.000627846
-0.000602788
-0.000577899
-0.000553264
-0.00052896
-0.000505055
-0.000481611
-0.000458682
-0.000436316
-0.000414556
-0.000393433
-0.000372973
-0.000353201
-0.000334134
-0.000315784
-0.000298156
-0.000281253
-0.000265073
-0.000249611
-0.000234858
-0.000220803
-0.000783286
-0.000756871
-0.000730126
-0.000703172
-0.000676145
-0.00064916
-0.000622316
-0.000595706
-0.00056942
-0.000543536
-0.000518127
-0.000493255
-0.000468975
-0.000445337
-0.000422381
-0.000400144
-0.000378647
-0.000357908
-0.00033795
-0.00031878
-0.000300401
-0.000282813
-0.000266012
-0.000249988
-0.00023473
-0.000220224
-0.000429905
-0.000406507
-0.000383933
-0.000362203
-0.000341329
-0.000321319
-0.000302176
-0.000283893
-0.000266465
-0.000249878
-0.000234117
-0.000219163
0.000100803
9.79074e-05
9.50658e-05
9.22794e-05
8.95492e-05
8.68732e-05
8.42514e-05
8.16838e-05
7.91703e-05
7.67104e-05
7.4304e-05
7.19506e-05
6.96498e-05
6.74012e-05
6.52044e-05
6.30589e-05
6.09642e-05
5.89198e-05
5.69251e-05
5.49797e-05
5.30829e-05
5.1234e-05
4.94326e-05
4.76779e-05
4.59694e-05
4.43063e-05
0.000100377
9.74813e-05
9.46401e-05
9.18544e-05
8.91252e-05
8.64504e-05
8.38301e-05
8.12642e-05
7.87527e-05
7.62951e-05
7.38911e-05
7.15403e-05
6.92424e-05
6.6997e-05
6.48035e-05
6.26615e-05
6.05705e-05
5.85299e-05
5.65393e-05
5.45981e-05
5.27056e-05
5.08612e-05
4.90644e-05
4.73145e-05
4.56107e-05
4.39526e-05
9.95471e-05
9.66514e-05
9.3811e-05
9.10267e-05
8.82993e-05
8.5627e-05
8.30096e-05
8.04472e-05
7.79395e-05
7.54863e-05
7.30872e-05
7.07417e-05
6.84495e-05
6.62101e-05
6.40231e-05
6.1888e-05
5.98042e-05
5.77712e-05
5.57885e-05
5.38554e-05
5.19714e-05
5.01358e-05
4.8348e-05
4.66073e-05
4.49131e-05
4.32646e-05
9.83329e-05
9.54377e-05
9.25985e-05
8.98163e-05
8.70918e-05
8.44231e-05
8.18101e-05
7.92528e-05
7.6751e-05
7.43043e-05
7.19123e-05
6.95746e-05
6.72909e-05
6.50605e-05
6.28831e-05
6.07582e-05
5.86851e-05
5.66633e-05
5.46922e-05
5.27712e-05
5.08997e-05
4.9077e-05
4.73025e-05
4.55754e-05
4.38951e-05
4.22609e-05
9.67515e-05
9.3857e-05
9.10196e-05
8.82403e-05
8.55198e-05
8.2856e-05
8.02489e-05
7.76985e-05
7.52044e-05
7.27664e-05
7.0384e-05
6.80567e-05
6.57841e-05
6.35657e-05
6.1401e-05
5.92894e-05
5.72304e-05
5.52233e-05
5.32676e-05
5.13625e-05
4.95075e-05
4.77018e-05
4.59447e-05
4.42356e-05
4.25736e-05
4.09581e-05
9.48176e-05
9.19243e-05
8.90895e-05
8.6314e-05
8.35985e-05
8.0941e-05
7.83414e-05
7.57997e-05
7.33154e-05
7.08883e-05
6.85178e-05
6.62035e-05
6.39449e-05
6.17414e-05
5.95925e-05
5.74976e-05
5.54561e-05
5.34673e-05
5.15306e-05
4.96453e-05
4.78106e-05
4.60259e-05
4.42905e-05
4.26035e-05
4.09641e-05
3.93717e-05
9.25441e-05
8.96526e-05
8.6821e-05
8.40504e-05
8.13413e-05
7.86916e-05
7.61012e-05
7.357e-05
7.10977e-05
6.86838e-05
6.63277e-05
6.40291e-05
6.17873e-05
5.96018e-05
5.74719e-05
5.5397e-05
5.33764e-05
5.14095e-05
4.94956e-05
4.76338e-05
4.58235e-05
4.40639e-05
4.23542e-05
4.06936e-05
3.90812e-05
3.75163e-05
8.9942e-05
8.70529e-05
8.42256e-05
8.1461e-05
7.87597e-05
7.61195e-05
7.35401e-05
7.10216e-05
6.85635e-05
6.61652e-05
6.38263e-05
6.15461e-05
5.93241e-05
5.71596e-05
5.5052e-05
5.30005e-05
5.10045e-05
4.90632e-05
4.71758e-05
4.53415e-05
4.35596e-05
4.18291e-05
4.01493e-05
3.85193e-05
3.69383e-05
3.54052e-05
8.70208e-05
8.4135e-05
8.13131e-05
7.8556e-05
7.5864e-05
7.3235e-05
7.06688e-05
6.81651e-05
6.57236e-05
6.33436e-05
6.10246e-05
5.87658e-05
5.65667e-05
5.44266e-05
5.23446e-05
5.03201e-05
4.83523e-05
4.64403e-05
4.45833e-05
4.27805e-05
4.1031e-05
3.93339e-05
3.76883e-05
3.60933e-05
3.45479e-05
3.30511e-05
8.37887e-05
8.09074e-05
7.80922e-05
7.5344e-05
7.26632e-05
7.00475e-05
6.74966e-05
6.50102e-05
6.25879e-05
6.0229e-05
5.79327e-05
5.56985e-05
5.35256e-05
5.14132e-05
4.93604e-05
4.73666e-05
4.54307e-05
4.3552e-05
4.17295e-05
3.99623e-05
3.82494e-05
3.65899e-05
3.49828e-05
3.34271e-05
3.19218e-05
3.04659e-05
8.02526e-05
7.73771e-05
7.45702e-05
7.18328e-05
6.91652e-05
6.6565e-05
6.40318e-05
6.15653e-05
5.9165e-05
5.68301e-05
5.45598e-05
5.23534e-05
5.02101e-05
4.8129e-05
4.61093e-05
4.41499e-05
4.225e-05
4.04087e-05
3.86248e-05
3.68974e-05
3.52255e-05
3.3608e-05
3.20438e-05
3.0532e-05
2.90713e-05
2.76608e-05
7.64187e-05
7.35505e-05
7.07537e-05
6.80291e-05
6.53769e-05
6.27946e-05
6.02817e-05
5.7838e-05
5.54627e-05
5.3155e-05
5.09141e-05
4.87391e-05
4.66291e-05
4.45831e-05
4.26002e-05
4.06794e-05
3.88196e-05
3.70198e-05
3.52789e-05
3.35957e-05
3.19692e-05
3.03982e-05
2.88816e-05
2.74183e-05
2.60069e-05
2.46464e-05
7.2292e-05
6.94329e-05
6.66481e-05
6.39386e-05
6.13042e-05
5.87425e-05
5.62529e-05
5.3835e-05
5.1488e-05
4.9211e-05
4.7003e-05
4.48631e-05
4.27903e-05
4.07835e-05
3.88416e-05
3.69636e-05
3.51482e-05
3.33944e-05
3.1701e-05
3.00666e-05
2.84902e-05
2.69705e-05
2.55061e-05
2.4096e-05
2.27387e-05
2.14331e-05
6.78767e-05
6.50287e-05
6.22584e-05
5.95664e-05
5.69526e-05
5.44145e-05
5.19513e-05
4.95626e-05
4.72474e-05
4.50047e-05
4.28335e-05
4.07327e-05
3.87012e-05
3.67378e-05
3.48414e-05
3.30106e-05
3.12442e-05
2.95411e-05
2.78998e-05
2.6319e-05
2.47975e-05
2.33338e-05
2.19267e-05
2.05747e-05
1.92765e-05
1.80306e-05
6.31765e-05
6.0342e-05
5.75885e-05
5.49169e-05
5.23268e-05
4.98154e-05
4.73821e-05
4.50262e-05
4.27466e-05
4.05422e-05
3.8412e-05
3.63545e-05
3.43687e-05
3.24532e-05
3.06068e-05
2.8828e-05
2.71154e-05
2.54678e-05
2.38836e-05
2.23614e-05
2.08998e-05
1.94972e-05
1.81523e-05
1.68635e-05
1.56294e-05
1.44485e-05
5.81943e-05
5.53758e-05
5.26421e-05
4.99939e-05
4.74308e-05
4.49498e-05
4.255e-05
4.02308e-05
3.79909e-05
3.58291e-05
3.37442e-05
3.17347e-05
2.97992e-05
2.79364e-05
2.61448e-05
2.4423e-05
2.27693e-05
2.11822e-05
1.96603e-05
1.82018e-05
1.68053e-05
1.54692e-05
1.41918e-05
1.29715e-05
1.18067e-05
1.06959e-05
5.29326e-05
5.0133e-05
4.74222e-05
4.48008e-05
4.22683e-05
3.98214e-05
3.74593e-05
3.5181e-05
3.29852e-05
3.08706e-05
2.88357e-05
2.68789e-05
2.49988e-05
2.31938e-05
2.14622e-05
1.98025e-05
1.82129e-05
1.66918e-05
1.52375e-05
1.38482e-05
1.25223e-05
1.1258e-05
1.00535e-05
8.90712e-06
7.81712e-06
6.78177e-06
4.73932e-05
4.46158e-05
4.19314e-05
3.93405e-05
3.68426e-05
3.4434e-05
3.21138e-05
2.9881e-05
2.77341e-05
2.56715e-05
2.36916e-05
2.17927e-05
1.99732e-05
1.82313e-05
1.65652e-05
1.49731e-05
1.34532e-05
1.20037e-05
1.06227e-05
9.30827e-06
8.05857e-06
6.87171e-06
5.7458e-06
4.67895e-06
3.66929e-06
2.71496e-06
4.15777e-05
3.8826e-05
3.61718e-05
3.36156e-05
3.11564e-05
2.87907e-05
2.65172e-05
2.43348e-05
2.22418e-05
2.02364e-05
1.83169e-05
1.64814e-05
1.4728e-05
1.30549e-05
1.146e-05
9.94136e-06
8.49702e-06
7.12494e-06
5.82308e-06
4.58938e-06
3.4218e-06
2.31828e-06
1.27679e-06
2.95273e-07
-6.28288e-07
-1.49591e-06
3.54873e-05
3.27651e-05
3.01453e-05
2.76282e-05
2.52125e-05
2.28945e-05
2.06728e-05
1.8546e-05
1.65123e-05
1.45697e-05
1.27162e-05
1.09499e-05
9.26857e-06
7.67017e-06
6.15252e-06
4.71346e-06
3.35079e-06
2.06229e-06
8.45743e-07
-3.01086e-07
-1.38042e-06
-2.3945e-06
-3.34553e-06
-4.23571e-06
-5.06724e-06
-5.84229e-06
2.91228e-05
2.64345e-05
2.38536e-05
2.13803e-05
1.90131e-05
1.67481e-05
1.45836e-05
1.2518e-05
1.05494e-05
8.67551e-06
6.89418e-06
5.20315e-06
3.60012e-06
2.08276e-06
6.48722e-07
-7.04393e-07
-1.97899e-06
-3.17748e-06
-4.30229e-06
-5.35586e-06
-6.34059e-06
-7.25891e-06
-8.11321e-06
-8.90588e-06
-9.63928e-06
-1.03157e-05
2.24849e-05
1.98351e-05
1.7298e-05
1.48737e-05
1.25605e-05
1.0354e-05
8.25252e-06
6.2542e-06
4.35682e-06
2.55795e-06
8.55144e-07
-7.54075e-07
-2.27223e-06
-3.70189e-06
-5.04565e-06
-6.30611e-06
-7.48591e-06
-8.58769e-06
-9.61408e-06
-1.05677e-05
-1.14513e-05
-1.22673e-05
-1.30184e-05
-1.37072e-05
-1.43362e-05
-1.49078e-05
1.55739e-05
1.29676e-05
1.04796e-05
8.10998e-06
5.85652e-06
3.71466e-06
1.68242e-06
-2.42242e-07
-2.06183e-06
-3.77903e-06
-5.39652e-06
-6.91706e-06
-8.34341e-06
-9.67839e-06
-1.09248e-05
-1.20856e-05
-1.31636e-05
-1.41617e-05
-1.50827e-05
-1.59295e-05
-1.6705e-05
-1.7412e-05
-1.80532e-05
-1.86315e-05
-1.91496e-05
-1.96102e-05
8.38995e-06
5.83266e-06
3.39963e-06
1.09058e-06
-1.09687e-06
-3.16766e-06
-5.12399e-06
-6.9682e-06
-8.70305e-06
-1.03315e-05
-1.18565e-05
-1.32811e-05
-1.46083e-05
-1.58413e-05
-1.69831e-05
-1.80369e-05
-1.90057e-05
-1.98928e-05
-2.07012e-05
-2.1434e-05
-2.20944e-05
-2.26853e-05
-2.32098e-05
-2.36709e-05
-2.40715e-05
-2.44145e-05
9.33211e-07
-1.56919e-06
-3.94114e-06
-6.18311e-06
-8.29788e-06
-1.02907e-05
-1.21641e-05
-1.39206e-05
-1.55633e-05
-1.70955e-05
-1.85205e-05
-1.98415e-05
-2.1062e-05
-2.21853e-05
-2.32147e-05
-2.41538e-05
-2.50058e-05
-2.57743e-05
-2.64626e-05
-2.7074e-05
-2.76119e-05
-2.80796e-05
-2.84803e-05
-2.88173e-05
-2.90936e-05
-2.93124e-05
-6.79641e-06
-9.23758e-06
-1.15418e-05
-1.37098e-05
-1.57448e-05
-1.76523e-05
-1.94352e-05
-2.10963e-05
-2.26391e-05
-2.40672e-05
-2.53842e-05
-2.65936e-05
-2.76993e-05
-2.87048e-05
-2.96138e-05
-3.04302e-05
-3.11575e-05
-3.17995e-05
-3.23599e-05
-3.28423e-05
-3.32502e-05
-3.35872e-05
-3.38569e-05
-3.40626e-05
-3.42077e-05
-3.42955e-05
-1.47991e-05
-1.71722e-05
-1.94016e-05
-2.14882e-05
-2.34358e-05
-2.52502e-05
-2.69346e-05
-2.84923e-05
-2.9927e-05
-3.12426e-05
-3.24431e-05
-3.35326e-05
-3.4515e-05
-3.53943e-05
-3.61746e-05
-3.68599e-05
-3.74542e-05
-3.79616e-05
-3.8386e-05
-3.87314e-05
-3.90015e-05
-3.92003e-05
-3.93314e-05
-3.93986e-05
-3.94054e-05
-3.93554e-05
-2.30749e-05
-2.53727e-05
-2.75197e-05
-2.95171e-05
-3.13691e-05
-3.30822e-05
-3.46597e-05
-3.61053e-05
-3.74232e-05
-3.86176e-05
-3.9693e-05
-4.06536e-05
-4.15038e-05
-4.22482e-05
-4.28909e-05
-4.34366e-05
-4.38894e-05
-4.42537e-05
-4.45338e-05
-4.4734e-05
-4.48584e-05
-4.4911e-05
-4.4896e-05
-4.48172e-05
-4.46785e-05
-4.44836e-05
-3.16241e-05
-3.38388e-05
-3.58953e-05
-3.77952e-05
-3.95431e-05
-4.1146e-05
-4.26077e-05
-4.39322e-05
-4.51241e-05
-4.61881e-05
-4.7129e-05
-4.79516e-05
-4.86606e-05
-4.92607e-05
-4.97569e-05
-5.01538e-05
-5.04562e-05
-5.06687e-05
-5.0796e-05
-5.08426e-05
-5.0813e-05
-5.07115e-05
-5.05425e-05
-5.03102e-05
-5.00186e-05
-4.96718e-05
-4.04469e-05
-4.25701e-05
-4.45275e-05
-4.6321e-05
-4.79558e-05
-4.94393e-05
-5.07757e-05
-5.19696e-05
-5.30259e-05
-5.39499e-05
-5.47467e-05
-5.54215e-05
-5.59796e-05
-5.64261e-05
-5.67663e-05
-5.70052e-05
-5.71479e-05
-5.71996e-05
-5.71652e-05
-5.70496e-05
-5.68576e-05
-5.65938e-05
-5.62629e-05
-5.58693e-05
-5.54174e-05
-5.49114e-05
-4.95435e-05
-5.15664e-05
-5.34155e-05
-5.50932e-05
-5.66052e-05
-5.79595e-05
-5.91608e-05
-6.02141e-05
-6.11248e-05
-6.18986e-05
-6.25412e-05
-6.30582e-05
-6.34554e-05
-6.37383e-05
-6.39126e-05
-6.39839e-05
-6.39576e-05
-6.38392e-05
-6.3634e-05
-6.33473e-05
-6.29842e-05
-6.25497e-05
-6.20488e-05
-6.14861e-05
-6.08664e-05
-6.0194e-05
-5.89139e-05
-6.08271e-05
-6.25583e-05
-6.41102e-05
-6.54892e-05
-6.67041e-05
-6.77598e-05
-6.8662e-05
-6.94165e-05
-7.00296e-05
-7.05075e-05
-7.08563e-05
-7.10821e-05
-7.11912e-05
-7.11896e-05
-7.10832e-05
-7.08781e-05
-7.058e-05
-7.01947e-05
-6.97279e-05
-6.91849e-05
-6.85712e-05
-6.7892e-05
-6.71523e-05
-6.63571e-05
-6.5511e-05
-6.85582e-05
-7.03517e-05
-7.19547e-05
-7.33703e-05
-7.46058e-05
-7.56703e-05
-7.65696e-05
-7.73095e-05
-7.78969e-05
-7.83382e-05
-7.86404e-05
-7.88101e-05
-7.88539e-05
-7.87785e-05
-7.85904e-05
-7.82962e-05
-7.79022e-05
-7.74146e-05
-7.68397e-05
-7.61834e-05
-7.54516e-05
-7.465e-05
-7.37842e-05
-7.28594e-05
-7.1881e-05
-7.08538e-05
-7.84763e-05
-8.01396e-05
-8.16035e-05
-8.28718e-05
-8.39524e-05
-8.48553e-05
-8.55866e-05
-8.61529e-05
-8.65615e-05
-8.68197e-05
-8.69347e-05
-8.6914e-05
-8.67645e-05
-8.64937e-05
-8.61084e-05
-8.56157e-05
-8.50225e-05
-8.43354e-05
-8.35611e-05
-8.27059e-05
-8.17762e-05
-8.07779e-05
-7.97169e-05
-7.8599e-05
-7.74295e-05
-7.62138e-05
-8.86679e-05
-9.01899e-05
-9.15034e-05
-9.26126e-05
-9.35266e-05
-9.42559e-05
-9.48072e-05
-9.51879e-05
-9.54057e-05
-9.54688e-05
-9.53849e-05
-9.5162e-05
-9.48078e-05
-9.43301e-05
-9.37365e-05
-9.30345e-05
-9.22315e-05
-9.13346e-05
-9.03509e-05
-8.92873e-05
-8.81502e-05
-8.69463e-05
-8.56817e-05
-8.43624e-05
-8.29942e-05
-8.15826e-05
-9.91328e-05
-0.000100502
-0.000101653
-0.000102591