/*--------------------------------*- C++ -*----------------------------------*\
| =========                 |                                                 |
| \\      /  F ield         | OpenFOAM: The Open Source CFD Toolbox           |
|  \\    /   O peration     | Version:  2412                                  |
|   \\  /    A nd           | Website:  www.openfoam.com                      |
|    \\/     M anipulation  |                                                 |
\*---------------------------------------------------------------------------*/
FoamFile
{
    version     2.0;
    format      ascii;
    arch        "LSB;label=32;scalar=64";
    class       volVectorField;
    location    "16.5";
    object      vorticity;
}
// * * * * * * * * * * * * * * * * * * * * * * * * * * * * * * * * * * * * * //

dimensions      [0 0 -1 0 0 0 0];

internalField   nonuniform List<vector> 
5285
(
(2.35049e-21 -6.50981e-20 -5.36048e-05)
(-1.84787e-21 7.67444e-21 -6.25124e-05)
(-1.89497e-22 -7.15967e-21 -7.23334e-05)
(7.33823e-23 7.16557e-21 -8.30823e-05)
(-3.13272e-24 -1.28133e-22 -9.47461e-05)
(-6.84902e-23 -6.91319e-21 -0.000107303)
(-2.00075e-21 6.97468e-21 -0.000120731)
(4.18772e-21 1.28635e-23 -0.000135015)
(1.22335e-21 6.77374e-21 -0.000150162)
(-3.2626e-21 -5.29801e-24 -0.000166219)
(4.69649e-21 7.87271e-21 -0.000183293)
(-5.48894e-21 1.02151e-19 -0.000201574)
(6.64818e-22 -1.09695e-19 -0.000221364)
(-2.10447e-21 1.00257e-19 -0.000243114)
(2.04959e-21 -1.01396e-19 -0.000267478)
(4.83058e-23 1.33576e-21 -0.00029541)
(-6.28936e-23 -1.64038e-21 -0.000328333)
(2.74104e-21 -9.60846e-20 -0.000368452)
(-8.5995e-21 9.32525e-20 -0.000419321)
(-3.15664e-22 -1.54192e-21 -0.000486873)
(6.18197e-21 1.35206e-23 -0.000581194)
(6.72348e-21 1.47049e-23 -0.000719518)
(-6.70197e-21 -1.46579e-23 -0.000931015)
(-2.22281e-22 -4.8615e-25 -0.00126408)
(-2.31836e-22 -5.07049e-25 -0.00179669)
(-7.98328e-21 -1.74602e-23 -0.00264989)
(7.7059e-21 1.68536e-23 -0.00400335)
(-2.54589e-22 1.51528e-22 -0.00610983)
(-3.08449e-23 7.84497e-21 -0.00930271)
(-2.46922e-20 5.0806e-20 -0.0139876)
(2.37824e-20 -6.69457e-20 -0.0206049)
(-5.57668e-21 -9.53875e-21 -0.0295489)
(6.13037e-21 2.60256e-20 -0.0410372)
(-2.04021e-20 -5.69579e-21 -0.0548473)
(1.58422e-21 -2.25233e-19 -0.000167301)
(-5.52837e-21 2.41381e-19 -0.000194891)
(-2.90821e-22 1.95346e-20 -0.000225338)
(-3.8245e-21 -7.32419e-21 -0.000258718)
(4.0418e-21 1.44587e-22 -0.00029501)
(-4.0528e-21 9.10272e-21 -0.000334168)
(1.07377e-21 2.09787e-19 -0.000376157)
(5.7759e-21 -4.44275e-19 -0.000420969)
(4.41934e-21 -2.12295e-19 -0.000468666)
(-6.84444e-21 4.29752e-19 -0.000519433)
(3.47237e-21 -4.28701e-19 -0.000573638)
(-1.80118e-21 4.39883e-19 -0.000631907)
(3.27504e-21 1.45241e-21 -0.000695204)
(-3.70645e-21 -9.71263e-23 -0.000764949)
(-1.24535e-21 -2.72369e-24 -0.000843183)
(0 -0 -0.000932855)
(1.84112e-22 9.55523e-23 -0.00103834)
(1.10111e-20 1.23328e-20 -0.00116639)
(-1.54889e-20 3.60057e-19 -0.00132786)
(-1.57195e-20 -2.40572e-20 -0.00154081)
(1.83208e-20 -3.553e-19 -0.00183595)
(2.62873e-20 -3.07254e-19 -0.00226566)
(-9.13197e-21 3.28236e-19 -0.00291857)
(-3.11116e-20 2.18153e-21 -0.00394159)
(3.04074e-20 1.73362e-20 -0.00557117)
(-4.19164e-20 2.34588e-19 -0.00817394)
(2.25843e-20 -2.44017e-19 -0.0122934)
(-1.8016e-20 1.46765e-20 -0.0186934)
(1.99761e-20 7.73507e-21 -0.0283804)
(-5.98911e-20 1.13667e-19 -0.0425781)
(5.98197e-20 -1.11256e-19 -0.0626112)
(-9.2183e-20 8.31898e-20 -0.0896462)
(8.89565e-20 -9.28786e-20 -0.124266)
(-1.88326e-20 -6.38377e-22 -0.164417)
(-4.86076e-21 -1.21334e-20 -0.000300054)
(-4.59117e-21 4.66793e-19 -0.000349032)
(4.06282e-22 -1.41715e-20 -0.000403183)
(-1.22544e-20 4.53453e-19 -0.000462709)
(1.21674e-20 -4.70954e-19 -0.000527648)
(-9.02117e-21 4.49873e-19 -0.000598019)
(2.21293e-21 -4.67943e-19 -0.000673873)
(5.23325e-21 -9.32457e-21 -0.000755316)
(-2.59362e-21 1.37191e-20 -0.000842585)
(5.54973e-21 -8.83044e-21 -0.000936141)
(-1.86716e-20 4.22137e-19 -0.00103677)
(1.67549e-20 -4.49964e-19 -0.0011457)
(1.82238e-20 -4.18256e-19 -0.00126476)
(-1.49142e-20 4.20222e-19 -0.00139653)
(-1.08677e-21 -5.18869e-21 -0.0015447)
(1.12505e-20 -1.21757e-22 -0.0017145)
(-1.28867e-20 -2.48511e-20 -0.00191357)
(5.27544e-20 -7.65085e-19 -0.00215363)
(1.66782e-20 5.62302e-20 -0.00245338)
(-6.97815e-20 7.20763e-19 -0.00284382)
(3.97388e-21 -1.23912e-20 -0.00337745)
(-1.1482e-20 -4.90159e-21 -0.00414376)
(1.09926e-19 -6.06121e-19 -0.00529391)
(-2.0448e-19 1.19079e-18 -0.00707822)
(2.087e-19 -1.18392e-18 -0.00989894)
(7.17671e-20 8.52768e-20 -0.0143788)
(-1.57442e-19 5.18894e-19 -0.0214394)
(-1.65649e-19 3.58474e-19 -0.0323748)
(1.56497e-19 -4.24978e-19 -0.0488902)
(-2.23698e-20 1.95979e-20 -0.073061)
(5.52679e-20 -1.74557e-20 -0.107134)
(1.66148e-19 -1.03284e-19 -0.153044)
(-1.79827e-19 1.61129e-19 -0.211569)
(-2.55456e-20 -4.1271e-20 -0.274694)
(-9.80908e-21 4.80495e-19 -0.000466462)
(-7.09368e-22 -3.79057e-21 -0.000541572)
(4.53576e-21 3.93699e-21 -0.000624839)
(-7.48953e-21 4.43467e-19 -0.000716691)
(-2.16032e-21 -4.65762e-19 -0.000817369)
(1.48851e-20 1.28268e-20 -0.00092711)
(-3.33519e-20 8.94585e-19 -0.00104622)
(2.51547e-20 -8.97609e-19 -0.00117512)
(2.27776e-21 -5.33627e-21 -0.00131445)
(-9.81695e-21 -9.14917e-23 -0.0014652)
(1.4907e-20 -1.35756e-20 -0.00162885)
(-4.84917e-21 1.24347e-22 -0.00180756)
(-5.32974e-21 -6.51665e-23 -0.00200437)
(5.07129e-21 1.97124e-22 -0.00222345)
(-3.73604e-21 1.41864e-21 -0.00247057)
(6.27381e-20 -7.94542e-19 -0.00275375)
(-5.67887e-20 8.17196e-19 -0.00308453)
(-1.61789e-20 1.90172e-22 -0.00348028)
(1.88338e-20 -1.03503e-20 -0.00396842)
(-9.86968e-20 7.30425e-19 -0.004594)
(1.15403e-19 -7.337e-19 -0.00543303)
(-2.29092e-20 2.22999e-21 -0.00661466)
(1.6184e-20 -9.1826e-23 -0.00835688)
(3.84811e-20 6.50067e-21 -0.0110203)
(-2.4904e-19 5.49233e-19 -0.0151841)
(3.68996e-19 -1.11378e-18 -0.0217441)
(-1.80185e-19 5.64512e-19 -0.0320257)
(2.62805e-19 -4.32549e-19 -0.0478928)
(-2.54313e-19 5.09629e-19 -0.0718136)
(-5.94326e-19 5.26608e-19 -0.106822)
(1.12277e-18 -1.11618e-18 -0.156252)
(-5.5004e-19 5.63773e-19 -0.22297)
(1.89889e-20 -2.19413e-21 -0.307763)
(4.58274e-21 -3.53418e-20 -0.38897)
(4.20228e-21 3.73604e-21 -0.000683873)
(-5.09861e-21 4.54156e-19 -0.000792237)
(2.01296e-20 -4.91492e-19 -0.000912764)
(6.38038e-21 2.70313e-20 -0.00104629)
(-4.54809e-20 9.36733e-19 -0.00119346)
(2.87397e-20 -9.39453e-19 -0.00135497)
(1.02401e-20 2.27125e-20 -0.00153167)
(-1.81446e-20 -2.34527e-22 -0.00172459)
(1.18728e-20 9.68979e-21 -0.00193515)
(-3.8275e-20 9.00906e-19 -0.00216527)
(3.14701e-20 -8.92492e-19 -0.00241761)
(2.85266e-21 9.67465e-21 -0.00269577)
(9.62447e-21 2.73577e-20 -0.0030046)
(-1.15722e-20 -5.52706e-22 -0.00335056)
(1.17188e-21 -1.30883e-20 -0.00374226)
(-3.75198e-20 1.32936e-20 -0.00419137)
(3.53305e-20 1.26671e-20 -0.00471429)
(-3.15823e-21 -2.54035e-20 -0.00533509)
(8.20241e-20 -7.43834e-19 -0.00609107)
(-7.29819e-20 7.66682e-19 -0.00704267)
(2.69318e-19 -1.47631e-18 -0.00829093)
(-2.46723e-19 1.49062e-18 -0.0100069)
(3.06662e-19 -1.39597e-18 -0.0124791)
(7.23336e-20 1.32395e-19 -0.0161849)
(-3.53077e-19 1.33055e-18 -0.0218917)
(-1.21801e-19 -2.23631e-20 -0.0307888)
(1.65769e-20 3.88146e-22 -0.0446417)
(-1.85048e-20 5.64688e-22 -0.0659491)
(5.46439e-20 1.67754e-21 -0.09807)
(2.63171e-20 1.37108e-20 -0.14526)
(-1.1408e-19 5.18652e-21 -0.212456)
(6.49462e-20 5.03063e-21 -0.304283)
(-1.66627e-22 -3.12818e-22 -0.422046)
(3.63594e-20 6.45398e-22 -0.51763)
(-3.23117e-21 6.72137e-21 -0.000973032)
(3.82073e-20 -9.56205e-19 -0.00112454)
(2.94525e-20 -9.18127e-19 -0.00129368)
(6.58233e-21 2.12228e-20 -0.00148196)
(-2.64403e-20 9.53698e-19 -0.00169073)
(-2.02295e-20 -8.12135e-21 -0.0019215)
(1.23511e-20 8.99193e-21 -0.00217604)
(-5.05147e-20 9.23755e-19 -0.00245652)
(4.09514e-20 -9.38417e-19 -0.00276565)
(7.25992e-20 -9.01517e-19 -0.00310691)
(-7.38321e-20 9.31275e-19 -0.00348485)
(1.51451e-20 -2.01155e-20 -0.00390536)
(6.73595e-20 -8.99152e-19 -0.00437605)
(-9.52476e-20 9.22139e-19 -0.00490672)
(4.3967e-21 1.24174e-20 -0.00551007)
(-2.06599e-19 1.6897e-18 -0.00620279)
(1.86621e-19 -1.75311e-18 -0.00700759)
(4.87822e-20 6.23857e-20 -0.00795677)
(-2.66918e-19 1.60047e-18 -0.0090989)
(2.44477e-19 -1.66887e-18 -0.0105109)
(-3.17915e-20 -3.34425e-21 -0.0123195)
(4.7272e-19 -1.50602e-18 -0.0147375)
(-4.42345e-19 1.55542e-18 -0.0181236)
(-6.67752e-20 -7.29969e-20 -0.0230724)
(6.81429e-19 -1.3158e-18 -0.0305446)
(-1.1989e-18 2.71433e-18 -0.0420381)
(-6.70288e-20 -1.55908e-19 -0.0597932)
(-8.97524e-20 -1.22228e-19 -0.0870196)
(7.75785e-19 -1.1832e-18 -0.128132)
(3.98357e-20 6.35246e-20 -0.189012)
(-8.78106e-19 7.85659e-19 -0.277302)
(8.61031e-19 -8.63899e-19 -0.40217)
(9.4546e-21 2.9204e-20 -0.570171)
(9.45824e-21 -2.76523e-21 -0.685966)
(-1.60517e-21 -2.01289e-20 -0.00130915)
(2.70646e-20 -9.94506e-19 -0.00150497)
(-5.44591e-21 -7.70003e-21 -0.00172336)
(-1.70362e-22 1.20044e-22 -0.00196632)
(1.15173e-20 8.48716e-21 -0.00223567)
(-5.26834e-20 9.57235e-19 -0.00253342)
(4.69088e-20 -9.77829e-19 -0.00286188)
(1.28538e-20 8.39119e-21 -0.00322375)
(-8.77329e-21 -1.49899e-20 -0.00362225)
(-6.21e-21 9.96621e-21 -0.00406138)
(-7.38042e-20 9.24565e-19 -0.0045461)
(1.58695e-19 -1.88639e-18 -0.00508261)
(-7.51747e-20 9.83853e-19 -0.00567856)
(-1.91219e-19 1.82388e-18 -0.00634342)
(-3.05511e-20 -4.53695e-20 -0.00708892)
(2.69395e-21 -2.62214e-20 -0.00792986)
(-6.64891e-20 -5.37224e-20 -0.00888569)
(2.58468e-19 -1.8239e-18 -0.00998365)
(3.99204e-19 -1.68923e-18 -0.0112651)
(-3.56149e-19 1.77299e-18 -0.0127974)
(-3.42044e-20 -5.53318e-20 -0.0146967)
(4.73752e-19 -1.61675e-18 -0.0171676)
(-4.17563e-19 1.71251e-18 -0.020571)
(-6.70307e-19 1.52212e-18 -0.0255309)
(5.69478e-19 -1.60759e-18 -0.0330957)
(7.88737e-20 -1.1317e-20 -0.0449574)
(8.73836e-19 -1.4226e-18 -0.0637305)
(1.22913e-19 1.22318e-19 -0.0932772)
(-1.01073e-18 1.39432e-18 -0.139084)
(-1.639e-20 -3.99663e-20 -0.208764)
(3.38369e-20 5.30937e-22 -0.313407)
(-3.43341e-20 1.56669e-20 -0.472524)
(-5.1841e-19 5.4256e-19 -0.723719)
(5.09808e-19 -5.517e-19 -0.995559)
(-1.06624e-20 -3.12677e-21 0.0102901)
(-1.06176e-20 -6.05294e-22 0.00464034)
(9.95537e-21 1.00302e-20 -0.000125401)
(-7.07652e-21 2.08795e-21 -0.00408385)
(7.59321e-21 -1.13929e-20 -0.00731775)
(2.04021e-23 3.40443e-21 -0.00991199)
(-1.65158e-22 -9.4178e-23 -0.0119469)
(-5.21337e-21 1.14022e-23 -0.0134966)
(5.06619e-21 -1.10803e-23 -0.0146257)
(-1.47364e-22 3.22299e-25 -0.0153908)
(-1.38307e-22 3.02491e-25 -0.0158423)
(3.90811e-21 -8.54743e-24 -0.0160246)
(-3.92067e-21 8.57489e-24 -0.0159785)
(-3.26549e-21 7.14195e-24 -0.0157409)
(3.59681e-22 -6.94719e-22 -0.0153453)
(5.69673e-21 1.91387e-20 -0.014822)
(-2.60843e-21 -1.65093e-20 -0.0141979)
(-4.4264e-23 -6.54637e-22 -0.0134974)
(-1.41282e-23 3.90675e-22 -0.012742)
(-2.63868e-21 -3.54817e-20 -0.0119506)
(2.66359e-21 3.50216e-20 -0.0111394)
(-2.02373e-21 -4.06527e-20 -0.0103223)
(-1.54162e-20 2.52023e-20 0.0297521)
(3.08074e-20 -9.11645e-21 0.0129362)
(-2.48661e-20 -2.26226e-20 -0.00133249)
(6.60935e-21 2.17156e-20 -0.0130923)
(-7.06001e-21 -2.1129e-20 -0.0226326)
(-1.22042e-20 6.07555e-21 -0.0302379)
(1.07158e-20 6.12391e-21 -0.0361651)
(3.50521e-21 4.4047e-21 -0.0406485)
(8.26049e-21 -1.54706e-20 -0.0438886)
(-2.07718e-20 5.60454e-21 -0.0460559)
(1.84884e-20 -4.91974e-21 -0.0473005)
(9.78556e-21 2.88758e-20 -0.0477564)
(-2.02597e-20 -1.70123e-20 -0.0475443)
(-2.23157e-20 -5.51837e-20 -0.0467741)
(5.75618e-21 -2.11076e-20 -0.0455445)
(2.29397e-20 6.55495e-20 -0.0439448)
(-5.54995e-21 1.9471e-21 -0.0420547)
(-9.54845e-22 -3.47244e-21 -0.0399456)
(8.36131e-24 -7.45027e-23 -0.0376804)
(3.64231e-22 -7.9661e-25 -0.0353145)
(9.92266e-22 1.41536e-23 -0.0328955)
(-1.28792e-21 -3.49984e-21 -0.0304634)
(-1.44109e-20 -1.01016e-21 0.0457834)
(-1.38461e-20 -1.57623e-20 0.0180529)
(3.60512e-20 2.97371e-20 -0.00560413)
(-4.38644e-20 -1.25602e-20 -0.024769)
(1.80608e-20 1.16308e-20 -0.0400833)
(1.05651e-20 7.20464e-21 -0.052134)
(-1.75939e-21 -4.40248e-20 -0.0614049)
(4.05997e-20 1.12773e-20 -0.0683174)
(-2.43642e-20 4.70905e-20 -0.0732242)
(-6.80869e-20 -6.35985e-20 -0.0764099)
(1.06492e-19 7.04109e-20 -0.0781225)
(-6.32201e-20 -2.97886e-20 -0.0785834)
(4.92815e-21 -1.0949e-20 -0.0779903)
(-2.83506e-21 -6.80178e-21 -0.0765209)
(8.92068e-20 1.58481e-19 -0.0743345)
(-3.19513e-21 3.97443e-20 -0.0715742)
(-8.30305e-20 -1.83394e-19 -0.068368)
(8.69211e-21 1.53115e-21 -0.0648294)
(-4.7637e-21 1.78554e-22 -0.0610586)
(1.90832e-22 -1.42526e-21 -0.0571433)
(4.50831e-20 1.75533e-19 -0.0531585)
(-4.40825e-20 -1.66101e-19 -0.0491674)
(1.8522e-21 2.70684e-20 0.0550526)
(8.80177e-21 -5.48021e-20 0.0169575)
(-6.39627e-20 2.20056e-20 -0.0156581)
(9.11659e-20 6.18176e-20 -0.0413479)
(-1.12341e-20 -9.6356e-20 -0.0613841)
(5.56224e-21 4.14315e-20 -0.0768237)
(-2.16444e-20 -2.3446e-22 -0.0884694)
(2.4333e-20 3.72443e-20 -0.0969507)
(-9.28869e-20 -7.11232e-20 -0.102772)
(1.03397e-19 2.07641e-20 -0.106338)
(-2.31882e-20 1.28094e-20 -0.10799)
(-1.19625e-20 7.12116e-22 -0.108029)
(1.69069e-20 9.33493e-21 -0.106719)
(-1.23628e-19 -1.736e-19 -0.104294)
(1.0813e-19 1.5317e-19 -0.100965)
(-5.55533e-21 1.4231e-20 -0.0969208)
(5.35038e-21 -8.13219e-21 -0.092328)
(1.23458e-19 2.90183e-19 -0.0873348)
(-1.25922e-19 -2.80106e-19 -0.0820708)
(-9.03415e-22 -1.03201e-20 -0.0766493)
(-1.36512e-21 -5.93292e-23 -0.0711671)
(1.75262e-21 4.41402e-22 -0.0657055)
(2.75972e-20 9.75739e-23 0.053192)
(3.21416e-22 3.75294e-22 0.00532809)
(-6.20596e-20 3.65702e-22 -0.0351253)
(9.11051e-20 -4.55096e-22 -0.0656068)
(-2.74614e-20 -4.24784e-22 -0.0885502)
(-4.29048e-20 -9.18625e-22 -0.105707)
(1.46156e-20 4.66234e-22 -0.118258)
(-1.09888e-20 -7.93675e-22 -0.127047)
(8.7312e-20 -2.41691e-20 -0.132726)
(1.31929e-19 2.18616e-19 -0.135804)
(8.50294e-21 8.6782e-20 -0.136697)
(-1.72791e-19 -2.87676e-19 -0.13576)
(2.2895e-19 3.6397e-19 -0.133306)
(-2.45781e-19 -3.57022e-19 -0.12961)
(1.23438e-19 2.31596e-19 -0.124919)
(-1.34382e-19 -2.42235e-19 -0.11945)
(5.36563e-21 -2.63762e-21 -0.113398)
(-1.91936e-20 -4.36043e-21 -0.106932)
(1.42848e-20 -5.99387e-21 -0.100202)
(2.28607e-21 5.53331e-21 -0.0933384)
(3.9105e-21 1.39952e-22 -0.0864509)
(-8.82761e-21 -1.36941e-20 -0.0796328)
(-5.5174e-22 1.87718e-21 -0.0729608)
(-8.48833e-20 -3.35919e-22 0.0358624)
(2.57845e-20 3.18479e-20 -0.023093)
(6.71381e-20 -5.90866e-20 -0.0688071)
(-2.5446e-20 -4.64306e-21 -0.100802)
(-3.8105e-20 5.98997e-20 -0.123734)
(-1.33106e-20 -1.458e-19 -0.14018)
(-2.4344e-20 -7.48017e-20 -0.151618)
(-4.46366e-20 -9.29121e-20 -0.159076)
(2.89615e-19 5.48265e-19 -0.163293)
(-2.51698e-19 -2.32494e-19 -0.164829)
(5.86977e-20 -3.9259e-20 -0.164133)
(3.13071e-19 4.59078e-19 -0.161584)
(-3.28275e-19 -4.14098e-19 -0.157512)
(2.11226e-20 -4.55751e-21 -0.152208)
(-3.28798e-19 -6.1968e-19 -0.145928)
(3.46107e-19 5.9163e-19 -0.138901)
(-3.10106e-20 2.20326e-20 -0.13133)
(-3.77797e-19 -7.87234e-19 -0.123394)
(3.93115e-19 7.69008e-19 -0.115246)
(-5.00295e-21 4.83467e-22 -0.107025)
(2.04237e-19 4.77038e-19 -0.0988439)
(-1.85837e-19 -4.53637e-19 -0.0908022)
(-5.2298e-21 -5.78348e-21 -0.082978)
(-1.19109e-20 1.62165e-20 -0.00092737)
(4.10939e-20 -5.55631e-20 -0.0705866)
(3.72453e-21 3.903e-20 -0.111048)
(-3.73157e-20 -3.96435e-22 -0.137269)
(2.39517e-20 -2.92088e-20 -0.155532)
(1.11165e-19 2.65268e-19 -0.16806)
(-3.5864e-21 1.15295e-19 -0.176144)
(-1.23891e-19 -3.2249e-19 -0.180752)
(-5.31824e-20 -1.53559e-21 -0.182553)
(-2.07246e-19 -5.05126e-19 -0.182033)
(2.7996e-19 4.28856e-19 -0.179578)
(2.73733e-19 6.33229e-19 -0.175512)
(-3.16991e-19 -5.63116e-19 -0.17012)
(2.381e-20 -3.84733e-20 -0.163654)
(4.17742e-19 7.64651e-19 -0.156337)
(-4.43822e-19 -7.14264e-19 -0.148375)
(-4.32352e-19 -8.73792e-19 -0.139949)
(9.2299e-21 -7.20349e-20 -0.131222)
(-2.01765e-20 -5.65125e-20 -0.12234)
(3.75049e-21 -5.68793e-20 -0.11343)
(4.55452e-19 1.00853e-18 -0.104604)
(2.20057e-19 5.66047e-19 -0.0959571)
(-4.52157e-19 -1.13235e-18 -0.087567)
(7.79147e-20 1.05006e-19 -0.0561991)
(-4.37522e-20 -0 -0.0905939)
(3.01749e-22 -0 -0.112478)
(0 -0 -0.12839)
(-2.74046e-22 -0 -0.140366)
(-3.32088e-20 -0 -0.149055)
(1.45733e-21 -0 -0.154905)
(3.19828e-20 -0 -0.158255)
(-2.2598e-22 -0 -0.159387)
(2.70022e-20 -0 -0.158572)
(-2.66902e-20 -0 -0.156072)
(-2.35482e-20 -0 -0.152135)
(2.34503e-20 -0 -0.146999)
(0 -0 -0.140887)
(-1.82278e-20 -0 -0.134006)
(1.81514e-20 -0 -0.126548)
(1.47985e-20 -0 -0.118687)
(-1.56223e-21 -0 -0.110581)
(-1.48878e-21 -0 -0.102371)
(-1.48485e-21 -0 -0.0941811)
(-1.01336e-20 -0 -0.0861189)
(-3.72878e-21 -0 -0.0782749)
(6.99471e-21 -0 -0.0707216)
(3.20757e-21 -0 -0.0635177)
(0 -5.94312e-20 -0.150451)
(0 -0 -0.151576)
(0 -0 -0.157849)
(0 -0 -0.164469)
(0 -0 -0.170029)
(0 -0 -0.174113)
(0 -0 -0.176582)
(0 -0 -0.177404)
(0 -0 -0.176624)
(0 -0 -0.174338)
(0 -0 -0.170678)
(0 -0 -0.165794)
(0 -0 -0.159848)
(0 -0 -0.153009)
(0 -0 -0.145447)
(0 -0 -0.137324)
(0 -0 -0.128802)
(0 -0 -0.120027)
(0 -0 -0.111139)
(0 -0 -0.102264)
(0 -0 -0.093514)
(0 -0 -0.0849856)
(0 -0 -0.0767605)
(0 4.6895e-22 -0.216789)
(0 -0 -0.205332)
(0 -0 -0.201232)
(0 -0 -0.200066)
(0 -0 -0.199703)
(0 -0 -0.199239)
(0 -0 -0.198173)
(0 -0 -0.196214)
(0 -0 -0.19322)
(0 -0 -0.189149)
(0 -0 -0.184024)
(0 -0 -0.177913)
(0 -0 -0.170918)
(0 -0 -0.163158)
(0 -0 -0.154767)
(0 -0 -0.145886)
(0 -0 -0.136655)
(0 -0 -0.127211)
(0 -0 -0.117687)
(0 -0 -0.108203)
(0 -0 -0.0988715)
(0 -0 -0.089789)
(0 -0 -0.0810375)
(0 -0 -0.261478)
(0 -0 -0.245079)
(0 -0 -0.235099)
(0 -0 -0.228507)
(0 -0 -0.223481)
(0 -0 -0.219134)
(0 -0 -0.214879)
(0 -0 -0.210312)
(0 -0 -0.205188)
(0 -0 -0.199371)
(0 -0 -0.192812)
(0 -0 -0.185515)
(0 -0 -0.177531)
(0 -0 -0.16894)
(0 -0 -0.159843)
(0 -0 -0.150354)
(0 -0 -0.140595)
(0 -0 -0.130688)
(0 -0 -0.120753)
(0 -0 -0.110902)
(0 -0 -0.10124)
(0 -0 -0.0918602)
(0 -0 -0.0828404)
(0 -4.43185e-22 -0.28694)
(0 -0 -0.269477)
(0 -0 -0.256904)
(0 -0 -0.247231)
(0 -0 -0.239142)
(0 -0 -0.231986)
(0 -0 -0.225268)
(0 -0 -0.218596)
(0 -0 -0.211702)
(0 -0 -0.204417)
(0 -0 -0.196651)
(0 -0 -0.188373)
(0 -0 -0.179596)
(0 -0 -0.170372)
(0 -0 -0.160775)
(0 -0 -0.150895)
(0 -0 -0.140834)
(0 -0 -0.130699)
(0 -0 -0.120595)
(0 -0 -0.110623)
(0 -0 -0.100878)
(0 -0 -0.0914442)
(0 -0 -0.0823948)
(0 -5.38187e-20 -0.295065)
(0 -0 -0.278775)
(0 -0 -0.26588)
(0 -0 -0.255073)
(0 -0 -0.24549)
(0 -0 -0.236737)
(0 -0 -0.228479)
(0 -0 -0.220414)
(0 -0 -0.21231)
(0 -0 -0.20401)
(0 -0 -0.195419)
(0 -0 -0.186491)
(0 -0 -0.177224)
(0 -0 -0.167648)
(0 -0 -0.15782)
(0 -0 -0.14781)
(0 -0 -0.137705)
(0 -0 -0.127593)
(0 -0 -0.117567)
(0 -0 -0.107714)
(0 -0 -0.0981199)
(0 -0 -0.0888589)
(0 -0 -0.0799963)
(0 5.39961e-20 -0.28831)
(0 -0 -0.274436)
(0 -0 -0.262698)
(0 -0 -0.252208)
(0 -0 -0.242446)
(0 -0 -0.233227)
(0 -0 -0.224376)
(0 -0 -0.215698)
(0 -0 -0.207033)
(0 -0 -0.198263)
(0 -0 -0.189312)
(0 -0 -0.18014)
(0 -0 -0.170744)
(0 -0 -0.161145)
(0 -0 -0.151387)
(0 -0 -0.14153)
(0 -0 -0.131644)
(0 -0 -0.121807)
(0 -0 -0.112096)
(0 -0 -0.102589)
(0 -0 -0.0933584)
(0 -0 -0.084471)
(0 -0 -0.0759841)
(0 3.77253e-22 -0.269784)
(0 -0 -0.258872)
(0 -0 -0.249136)
(0 -0 -0.239914)
(0 -0 -0.23094)
(0 -0 -0.222168)
(0 -0 -0.213544)
(0 -0 -0.204978)
(0 -0 -0.196381)
(0 -0 -0.187687)
(0 -0 -0.178852)
(0 -0 -0.169856)
(0 -0 -0.160702)
(0 -0 -0.151411)
(0 -0 -0.142024)
(0 -0 -0.132593)
(0 -0 -0.123178)
(0 -0 -0.113846)
(0 -0 -0.104665)
(0 -0 -0.0957009)
(0 -0 -0.087018)
(0 -0 -0.0786738)
(0 -0 -0.0707188)
(0 -3.50496e-22 -0.242958)
(0 -0 -0.235066)
(0 -0 -0.227679)
(0 -0 -0.22024)
(0 -0 -0.212653)
(0 -0 -0.204955)
(0 -0 -0.197173)
(0 -0 -0.189291)
(0 -0 -0.181288)
(0 -0 -0.173143)
(0 -0 -0.164846)
(0 -0 -0.1564)
(0 -0 -0.14782)
(0 -0 -0.139136)
(0 -0 -0.130386)
(0 -0 -0.12162)
(0 -0 -0.112892)
(0 -0 -0.10426)
(0 -0 -0.0957853)
(0 -0 -0.0875253)
(0 -0 -0.0795357)
(0 -0 -0.0718671)
(0 -0 -0.0645641)
(0 4.11812e-20 -0.211297)
(0 -0 -0.206158)
(0 -0 -0.201104)
(0 -0 -0.195609)
(0 -0 -0.18968)
(0 -0 -0.183399)
(0 -0 -0.176833)
(0 -0 -0.17002)
(0 -0 -0.162979)
(0 -0 -0.155731)
(0 -0 -0.148292)
(0 -0 -0.140686)
(0 -0 -0.132942)
(0 -0 -0.125097)
(0 -0 -0.117192)
(0 -0 -0.109275)
(0 -0 -0.101398)
(0 -0 -0.0936125)
(0 -0 -0.0859737)
(0 -0 -0.078533)
(0 -0 -0.0713396)
(0 -0 -0.0644383)
(0 -0 -0.0578686)
(0 -4.07065e-20 -0.17792)
(0 -0 -0.175081)
(0 -0 -0.172101)
(0 -0 -0.168451)
(0 -0 -0.164195)
(0 -0 -0.159428)
(0 -0 -0.154235)
(0 -0 -0.148678)
(0 -0 -0.142804)
(0 -0 -0.136656)
(0 -0 -0.130272)
(0 -0 -0.12369)
(0 -0 -0.11695)
(0 -0 -0.110095)
(0 -0 -0.103169)
(0 -0 -0.0962194)
(0 -0 -0.0892956)
(0 -0 -0.0824468)
(0 -0 -0.075722)
(0 -0 -0.0691681)
(0 -0 -0.0628291)
(0 -0 -0.0567451)
(0 -0 -0.0509519)
(0 -3.41183e-20 -0.145364)
(0 -0 -0.144291)
(0 -0 -0.142988)
(0 -0 -0.140923)
(0 -0 -0.138176)
(0 -0 -0.13484)
(0 -0 -0.130998)
(0 -0 -0.126719)
(0 -0 -0.122064)
(0 -0 -0.117085)
(0 -0 -0.111831)
(0 -0 -0.10635)
(0 -0 -0.100687)
(0 -0 -0.0948871)
(0 -0 -0.0889977)
(0 -0 -0.0830652)
(0 -0 -0.0771363)
(0 -0 -0.0712572)
(0 -0 -0.0654728)
(0 -0 -0.0598259)
(0 -0 -0.0543565)
(0 -0 -0.0491008)
(0 -0 -0.0440913)
(0 3.39731e-20 -0.115457)
(0 -0 -0.115616)
(0 -0 -0.115548)
(0 -0 -0.114725)
(0 -0 -0.113222)
(0 -0 -0.111117)
(0 -0 -0.108483)
(0 -0 -0.105385)
(0 -0 -0.101882)
(0 -0 -0.0980308)
(0 -0 -0.0938816)
(0 -0 -0.0894839)
(0 -0 -0.0848848)
(0 -0 -0.0801306)
(0 -0 -0.0752668)
(0 -0 -0.0703383)
(0 -0 -0.065389)
(0 -0 -0.0604619)
(0 -0 -0.0555982)
(0 -0 -0.050837)
(0 -0 -0.0462145)
(0 -0 -0.0417638)
(0 -0 -0.0375143)
(0 -0 -0.0893084)
(0 -0 -0.0902246)
(0 -0 -0.0909697)
(0 -0 -0.0910316)
(0 -0 -0.0904691)
(0 -0 -0.0893409)
(0 -0 -0.0877039)
(0 -0 -0.0856133)
(0 -0 -0.0831216)
(0 -0 -0.0802793)
(0 -0 -0.0771346)
(0 -0 -0.0737339)
(0 -0 -0.0701219)
(0 -0 -0.0663426)
(0 -0 -0.0624384)
(0 -0 -0.0584509)
(0 -0 -0.0544207)
(0 -0 -0.0503869)
(0 -0 -0.046387)
(0 -0 -0.0424565)
(0 -0 -0.038628)
(0 -0 -0.0349315)
(0 -0 -0.0313939)
(0 -2.51115e-20 -0.0673953)
(0 -0 -0.0686866)
(0 -0 -0.0698851)
(0 -0 -0.0705078)
(0 -0 -0.0705925)
(0 -0 -0.0701784)
(0 -0 -0.0693061)
(0 -0 -0.0680177)
(0 -0 -0.0663555)
(0 -0 -0.0643615)
(0 -0 -0.0620771)
(0 -0 -0.0595429)
(0 -0 -0.0567987)
(0 -0 -0.0538834)
(0 -0 -0.0508352)
(0 -0 -0.0476912)
(0 -0 -0.0444876)
(0 -0 -0.0412594)
(0 -0 -0.03804)
(0 -0 -0.0348611)
(0 -0 -0.0317521)
(0 -0 -0.0287397)
(0 -0 -0.0258483)
(0 2.50068e-20 -0.0497025)
(0 -0 -0.0510905)
(0 -0 -0.052466)
(0 -0 -0.0533839)
(0 -0 -0.0538627)
(0 -0 -0.0539248)
(0 -0 -0.0535958)
(0 -0 -0.0529048)
(0 -0 -0.0518829)
(0 -0 -0.0505627)
(0 -0 -0.048977)
(0 -0 -0.0471591)
(0 -0 -0.0451423)
(0 -0 -0.0429595)
(0 -0 -0.0406433)
(0 -0 -0.0382258)
(0 -0 -0.0357382)
(0 -0 -0.033211)
(0 -0 -0.0306734)
(0 -0 -0.0281531)
(0 -0 -0.0256762)
(0 -0 -0.0232661)
(0 -0 -0.0209447)
(0 2.04904e-20 -0.0358819)
(0 -0 -0.0371865)
(0 -0 -0.0385479)
(0 -0 -0.0395641)
(0 -0 -0.040239)
(0 -0 -0.0405817)
(0 -0 -0.0406057)
(0 -0 -0.0403289)
(0 -0 -0.0397722)
(0 -0 -0.0389587)
(0 -0 -0.037913)
(0 -0 -0.0366607)
(0 -0 -0.035228)
(0 -0 -0.0336416)
(0 -0 -0.0319281)
(0 -0 -0.0301141)
(0 -0 -0.0282259)
(0 -0 -0.0262891)
(0 -0 -0.0243288)
(0 -0 -0.0223689)
(0 -0 -0.0204317)
(0 -0 -0.0185377)
(0 -0 -0.0167062)
(0 -2.04054e-20 -0.0254012)
(0 -0 -0.0265238)
(0 -0 -0.0277554)
(0 -0 -0.0287391)
(0 -0 -0.0294691)
(0 -0 -0.0299453)
(0 -0 -0.0301723)
(0 -0 -0.0301595)
(0 -0 -0.0299192)
(0 -0 -0.0294664)
(0 -0 -0.0288182)
(0 -0 -0.0279933)
(0 -0 -0.0270111)
(0 -0 -0.0258924)
(0 -0 -0.0246579)
(0 -0 -0.0233289)
(0 -0 -0.0219268)
(0 -0 -0.0204728)
(0 -0 -0.0189877)
(0 -0 -0.0174915)
(0 -0 -0.0160032)
(0 -0 -0.0145404)
(0 -0 -0.0131197)
(0 -0 -0.0176621)
(0 -0 -0.0185648)
(0 -0 -0.0196103)
(0 -0 -0.0204859)
(0 -0 -0.021181)
(0 -0 -0.0216896)
(0 -0 -0.0220109)
(0 -0 -0.0221478)
(0 -0 -0.0221064)
(0 -0 -0.0218954)
(0 -0 -0.0215258)
(0 -0 -0.0210101)
(0 -0 -0.0203623)
(0 -0 -0.0195974)
(0 -0 -0.0187312)
(0 -0 -0.0177801)
(0 -0 -0.016761)
(0 -0 -0.0156908)
(0 -0 -0.0145864)
(0 -0 -0.0134644)
(0 -0 -0.0123405)
(0 -0 -0.0112294)
(0 -0 -0.0101453)
(0 -0 -0.0120827)
(0 -0 -0.0127675)
(0 -0 -0.0136124)
(0 -0 -0.0143465)
(0 -0 -0.0149572)
(0 -0 -0.0154362)
(0 -0 -0.0157792)
(0 -0 -0.0159853)
(0 -0 -0.0160563)
(0 -0 -0.0159963)
(0 -0 -0.0158116)
(0 -0 -0.01551)
(0 -0 -0.0151008)
(0 -0 -0.0145946)
(0 -0 -0.0140028)
(0 -0 -0.0133376)
(0 -0 -0.0126119)
(0 -0 -0.0118388)
(0 -0 -0.011032)
(0 -0 -0.0102047)
(0 -0 -0.00936982)
(0 -0 -0.00853946)
(0 -0 -0.00772534)
(0 -1.11577e-22 -0.00814571)
(0 -0 -0.00863745)
(0 -0 -0.00929343)
(0 -0 -0.00988081)
(0 -0 -0.0103874)
(0 -0 -0.0108042)
(0 -0 -0.0111257)
(0 -0 -0.0113487)
(0 -0 -0.0114726)
(0 -0 -0.0114983)
(0 -0 -0.0114288)
(0 -0 -0.0112685)
(0 -0 -0.0110232)
(0 -0 -0.0106997)
(0 -0 -0.0103061)
(0 -0 -0.0098511)
(0 -0 -0.00934429)
(0 -0 -0.00879577)
(0 -0 -0.00821605)
(0 -0 -0.00761572)
(0 -0 -0.00700509)
(0 -0 -0.00639399)
(0 -0 -0.00579203)
(0 -6.39919e-21 -0.00542061)
(0 -0 -0.00575383)
(0 -0 -0.00624618)
(0 -0 -0.00669859)
(0 -0 -0.00710041)
(0 -0 -0.00744329)
(0 -0 -0.00772142)
(0 -0 -0.00793102)
(0 -0 -0.00806986)
(0 -0 -0.00813723)
(0 -0 -0.00813387)
(0 -0 -0.00806181)
(0 -0 -0.00792427)
(0 -0 -0.0077255)
(0 -0 -0.00747075)
(0 -0 -0.00716614)
(0 -0 -0.00681858)
(0 -0 -0.00643564)
(0 -0 -0.00602539)
(0 -0 -0.00559609)
(0 -0 -0.00515593)
(0 -0 -0.00471276)
(0 -0 -0.00427433)
(0 1.22347e-20 -0.00356632)
(0 -0 -0.00377705)
(0 -0 -0.00413591)
(0 -0 -0.00447332)
(0 -0 -0.00478062)
(0 -0 -0.00505065)
(0 -0 -0.00527816)
(0 -0 -0.00545932)
(0 -0 -0.00559139)
(0 -0 -0.00567275)
(0 -0 -0.00570287)
(0 -0 -0.00568225)
(0 -0 -0.00561236)
(0 -0 -0.00549557)
(0 -0 -0.00533515)
(0 -0 -0.00513522)
(0 -0 -0.00490067)
(0 -0 -0.00463708)
(0 -0 -0.00435056)
(0 -0 -0.00404754)
(0 -0 -0.00373442)
(0 -0 -0.00341743)
(0 -0 -0.00310276)
(0 -5.83767e-21 -0.00232344)
(0 -0 -0.00244433)
(0 -0 -0.00269923)
(0 -0 -0.00294398)
(0 -0 -0.00317189)
(0 -0 -0.0033772)
(0 -0 -0.00355548)
(0 -0 -0.00370333)
(0 -0 -0.00381801)
(0 -0 -0.00389756)
(0 -0 -0.0039408)
(0 -0 -0.00394734)
(0 -0 -0.00391753)
(0 -0 -0.00385249)
(0 -0 -0.00375412)
(0 -0 -0.00362508)
(0 -0 -0.00346878)
(0 -0 -0.00328929)
(0 -0 -0.00309125)
(0 -0 -0.00287963)
(0 -0 -0.00265944)
(0 -0 -0.00243557)
(0 -0 -0.00221294)
(0 -0 -0.00150118)
(0 -0 -0.00155938)
(0 -0 -0.00173632)
(0 -0 -0.0019096)
(0 -0 -0.00207427)
(0 -0 -0.00222587)
(0 -0 -0.00236089)
(0 -0 -0.0024765)
(0 -0 -0.00257024)
(0 -0 -0.00264016)
(0 -0 -0.00268485)
(0 -0 -0.00270343)
(0 -0 -0.00269562)
(0 -0 -0.00266173)
(0 -0 -0.00260277)
(0 -0 -0.00252038)
(0 -0 -0.00241694)
(0 -0 -0.00229544)
(0 -0 -0.00215939)
(0 -0 -0.00201269)
(0 -0 -0.00185926)
(0 -0 -0.00170294)
(0 -0 -0.00154763)
(0 -7.23864e-23 -0.000963222)
(0 -0 -0.000979907)
(0 -0 -0.00110022)
(0 -0 -0.0012203)
(0 -0 -0.00133664)
(0 -0 -0.00144588)
(0 -0 -0.00154534)
(0 -0 -0.00163278)
(0 -0 -0.00170613)
(0 -0 -0.00176363)
(0 -0 -0.00180384)
(0 -0 -0.00182571)
(0 -0 -0.0018286)
(0 -0 -0.00181238)
(0 -0 -0.00177746)
(0 -0 -0.00172487)
(0 -0 -0.00165625)
(0 -0 -0.00157384)
(0 -0 -0.00148039)
(0 -0 -0.00137895)
(0 -0 -0.00127266)
(0 -0 -0.00116456)
(0 -0 -0.00105771)
(0 -0 -0.000614487)
(0 -0 -0.000605328)
(0 -0 -0.000685598)
(0 -0 -0.000767261)
(0 -0 -0.000847907)
(0 -0 -0.00092507)
(0 -0 -0.000996728)
(0 -0 -0.00106117)
(0 -0 -0.00111673)
(0 -0 -0.00116187)
(0 -0 -0.00119526)
(0 -0 -0.00121582)
(0 -0 -0.00122278)
(0 -0 -0.00121574)
(0 -0 -0.00119481)
(0 -0 -0.00116062)
(0 -0 -0.00111435)
(0 -0 -0.00105773)
(0 -0 -0.000992969)
(0 -0 -0.000922546)
(0 -0 -0.000849008)
(0 -0 -0.000774782)
(0 -0 -0.000702268)
(0 3.86232e-21 -0.000390088)
(0 -0 -0.000366101)
(0 -0 -0.000418692)
(0 -0 -0.000473323)
(0 -0 -0.000528393)
(0 -0 -0.000582083)
(0 -0 -0.000632876)
(0 -0 -0.00067948)
(0 -0 -0.000720558)
(0 -0 -0.000754826)
(0 -0 -0.000781096)
(0 -0 -0.000798335)
(0 -0 -0.000805744)
(0 -0 -0.000802841)
(0 -0 -0.000789555)
(0 -0 -0.000766287)
(0 -0 -0.000733957)
(0 -0 -0.000693978)
(0 -0 -0.000648179)
(0 -0 -0.000598651)
(0 -0 -0.000547511)
(0 -0 -0.000496727)
(0 -0 -0.000448165)
(0 -7.40913e-21 -0.000246508)
(0 -0 -0.000214934)
(0 -0 -0.000248762)
(0 -0 -0.000284863)
(0 -0 -0.000322144)
(0 -0 -0.000359212)
(0 -0 -0.000394902)
(0 -0 -0.00042823)
(0 -0 -0.000458132)
(0 -0 -0.000483532)
(0 -0 -0.000503394)
(0 -0 -0.000516776)
(0 -0 -0.000522912)
(0 -0 -0.000521305)
(0 -0 -0.000511816)
(0 -0 -0.000494742)
(0 -0 -0.000470848)
(0 -0 -0.000441354)
(0 -0 -0.000407857)
(0 -0 -0.000372176)
(0 -0 -0.000336131)
(0 -0 -0.000301343)
(0 -0 -0.000269315)
(0 3.54805e-21 -0.000155163)
(0 -0 -0.000120637)
(0 -0 -0.000141348)
(0 -0 -0.000165342)
(0 -0 -0.000190719)
(0 -0 -0.000216418)
(0 -0 -0.000241537)
(0 -0 -0.000265329)
(0 -0 -0.000286945)
(0 -0 -0.000305487)
(0 -0 -0.000320057)
(0 -0 -0.00032981)
(0 -0 -0.000334042)
(0 -0 -0.000332284)
(0 -0 -0.000324391)
(0 -0 -0.000310619)
(0 -0 -0.000291661)
(0 -0 -0.000268626)
(0 -0 -0.000242966)
(0 -0 -0.000216322)
(0 -0 -0.000190307)
(0 -0 -0.000166331)
(0 -0 -0.000145635)
(0 -0 -9.61843e-05)
(0 -0 -6.32725e-05)
(0 -0 -7.59956e-05)
(0 -0 -9.04616e-05)
(0 -0 -0.000108391)
(0 -0 -0.000126573)
(0 -0 -0.000144488)
(0 -0 -0.000161613)
(0 -0 -0.000177277)
(0 -0 -0.000190727)
(0 -0 -0.000201177)
(0 -0 -0.000207873)
(0 -0 -0.000210177)
(0 -0 -0.000207664)
(0 -0 -0.000200212)
(0 -0 -0.000188073)
(0 -0 -0.000171913)
(0 -0 -0.00015278)
(0 -0 -0.000132037)
(0 -0 -0.000111204)
(0 -0 -9.17658e-05)
(0 -0 -7.50159e-05)
(0 -0 -6.20465e-05)
(0 -0 -2.86881e-05)
(0 -0 -3.72252e-05)
(0 -0 -4.7256e-05)
(0 -0 -5.85341e-05)
(0 -0 -7.16614e-05)
(0 -0 -8.46719e-05)
(0 -0 -9.72055e-05)
(0 -0 -0.00010871)
(0 -0 -0.000118527)
(0 -0 -0.00012595)
(0 -0 -0.000130292)
(0 -0 -0.000130972)
(0 -0 -0.000127608)
(0 -0 -0.000120109)
(0 -0 -0.000108742)
(0 -0 -9.4159e-05)
(0 -0 -7.73773e-05)
(0 -0 -5.96968e-05)
(0 -0 -4.25572e-05)
(0 -0 -2.73555e-05)
(0 -0 -1.53121e-05)
(0 -0 -7.49724e-06)
(-5.89989e-21 -2.25419e-20 -0.579445)
(5.06823e-20 -3.21169e-20 -0.49985)
(1.30887e-22 -2.69756e-20 -0.421115)
(5.30628e-20 6.09549e-21 -0.343039)
(-3.7692e-22 5.34797e-20 -0.264514)
(-9.9152e-22 -1.14626e-19 -0.184359)
(1.03714e-19 5.39796e-20 -0.109488)