/*--------------------------------*- C++ -*----------------------------------*\
| =========                 |                                                 |
| \\      /  F ield         | OpenFOAM: The Open Source CFD Toolbox           |
|  \\    /   O peration     | Version:  2412                                  |
|   \\  /    A nd           | Website:  www.openfoam.com                      |
|    \\/     M anipulation  |                                                 |
\*---------------------------------------------------------------------------*/
FoamFile
{
    version     2.0;
    format      ascii;
    arch        "LSB;label=32;scalar=64";
    class       volScalarField;
    location    "6.5";
    object      p;
}
// * * * * * * * * * * * * * * * * * * * * * * * * * * * * * * * * * * * * * //

dimensions      [0 2 -2 0 0 0 0];

internalField   nonuniform List<scalar> 
63420
(
0.00108015
0.00108518
0.00108154
0.00108533
0.00108656
0.0010887
0.00109146
0.0010944
0.00109777
0.00110153
0.00110565
0.00111012
0.00111495
0.00112012
0.00112564
0.0011315
0.00113769
0.00114422
0.00115109
0.00115829
0.00116583
0.0011737
0.00118191
0.00119045
0.00119934
0.00120856
0.00121814
0.00122805
0.00123832
0.00124894
0.00125991
0.00127124
0.00128294
0.001295
0.00130743
0.00132024
0.00133342
0.00134699
0.00136094
0.00137529
0.00139003
0.00140517
0.00142072
0.00143668
0.00145305
0.00146985
0.00148707
0.00150472
0.0015228
0.00154133
0.00156031
0.00157974
0.00159962
0.00161997
0.00164079
0.0010801
0.00108512
0.00108149
0.00108527
0.0010865
0.00108863
0.00109139
0.00109433
0.0010977
0.00110146
0.00110557
0.00111004
0.00111486
0.00112003
0.00112555
0.0011314
0.00113759
0.00114411
0.00115097
0.00115817
0.0011657
0.00117356
0.00118176
0.0011903
0.00119918
0.0012084
0.00121796
0.00122786
0.00123812
0.00124872
0.00125968
0.001271
0.00128268
0.00129473
0.00130714
0.00131993
0.0013331
0.00134664
0.00136058
0.0013749
0.00138962
0.00140473
0.00142026
0.00143619
0.00145253
0.00146929
0.00148648
0.0015041
0.00152215
0.00154064
0.00155957
0.00157895
0.00159879
0.00161908
0.00163985
0.00107998
0.00108501
0.00108137
0.00108514
0.00108637
0.0010885
0.00109125
0.00109419
0.00109756
0.00110131
0.00110541
0.00110988
0.0011147
0.00111986
0.00112536
0.0011312
0.00113738
0.0011439
0.00115075
0.00115793
0.00116544
0.00117329
0.00118148
0.00119
0.00119886
0.00120806
0.0012176
0.00122748
0.00123771
0.0012483
0.00125923
0.00127052
0.00128217
0.00129419
0.00130657
0.00131932
0.00133245
0.00134596
0.00135985
0.00137413
0.0013888
0.00140387
0.00141934
0.00143521
0.0014515
0.0014682
0.00148532
0.00150286
0.00152084
0.00153924
0.00155809
0.00157739
0.00159713
0.00161732
0.00163797
0.00107981
0.00108484
0.00108119
0.00108494
0.00108618
0.0010883
0.00109105
0.00109398
0.00109734
0.00110109
0.00110518
0.00110964
0.00111444
0.00111959
0.00112508
0.00113091
0.00113708
0.00114357
0.0011504
0.00115757
0.00116506
0.00117289
0.00118105
0.00118955
0.00119838
0.00120755
0.00121706
0.00122691
0.00123711
0.00124766
0.00125855
0.0012698
0.00128141
0.00129338
0.00130571
0.00131841
0.00133149
0.00134494
0.00135876
0.00137298
0.00138758
0.00140257
0.00141796
0.00143375
0.00144995
0.00146655
0.00148357
0.00150101
0.00151888
0.00153716
0.00155589
0.00157504
0.00159464
0.00161469
0.00163518
0.00107958
0.00108463
0.00108094
0.00108469
0.00108593
0.00108803
0.00109078
0.0010937
0.00109706
0.00110079
0.00110488
0.00110932
0.00111411
0.00111924
0.00112471
0.00113052
0.00113666
0.00114314
0.00114995
0.00115708
0.00116455
0.00117235
0.00118048
0.00118895
0.00119774
0.00120688
0.00121635
0.00122616
0.00123631
0.00124681
0.00125765
0.00126885
0.0012804
0.0012923
0.00130457
0.0013172
0.0013302
0.00134357
0.00135732
0.00137144
0.00138595
0.00140084
0.00141613
0.00143181
0.00144789
0.00146437
0.00148126
0.00149856
0.00151627
0.0015344
0.00155296
0.00157194
0.00159135
0.00161119
0.00163147
0.00107929
0.00108436
0.00108064
0.00108436
0.00108562
0.0010877
0.00109044
0.00109336
0.0010967
0.00110042
0.00110449
0.00110891
0.00111369
0.0011188
0.00112425
0.00113004
0.00113615
0.0011426
0.00114938
0.00115648
0.00116392
0.00117168
0.00117977
0.00118819
0.00119695
0.00120603
0.00121545
0.00122521
0.00123531
0.00124575
0.00125653
0.00126765
0.00127913
0.00129096
0.00130315
0.00131569
0.0013286
0.00134188
0.00135552
0.00136953
0.00138393
0.0013987
0.00141385
0.00142939
0.00144533
0.00146165
0.00147838
0.00149551
0.00151304
0.00153097
0.00154932
0.00156808
0.00158726
0.00160686
0.00162687
0.00107895
0.00108402
0.00108029
0.00108397
0.00108525
0.0010873
0.00109004
0.00109295
0.00109627
0.00109998
0.00110403
0.00110843
0.00111318
0.00111827
0.0011237
0.00112945
0.00113554
0.00114195
0.0011487
0.00115576
0.00116316
0.00117088
0.00117892
0.0011873
0.001196
0.00120503
0.00121439
0.00122408
0.00123411
0.00124448
0.00125518
0.00126623
0.00127762
0.00128936
0.00130145
0.00131389
0.00132669
0.00133985
0.00135337
0.00136725
0.00138151
0.00139613
0.00141113
0.00142651
0.00144227
0.00145842
0.00147495
0.00149187
0.00150918
0.00152689
0.00154499
0.00156349
0.0015824
0.0016017
0.0016214
0.00166214
0.00168425
0.00170732
0.0017314
0.00175656
0.00178287
0.00181038
0.00183918
0.00186934
0.00190095
0.0019341
0.00196891
0.00200548
0.00204395
0.00208446
0.00212715
0.00217222
0.00221983
0.0022702
0.00232356
0.00238014
0.00244021
0.00250407
0.00257204
0.00264448
0.00272178
0.0028044
0.00289281
0.00298757
0.00308929
0.00319865
0.00331642
0.00344344
0.00358066
0.00372909
0.00388987
0.0040642
0.00425331
0.00445839
0.00468043
0.00492
0.0051768
0.0054492
0.0057336
0.0060245
0.00631508
0.0065977
0.006876
0.00722308
0.00774413
0.00166117
0.00168328
0.00170633
0.00173044
0.0017556
0.0017819
0.0018094
0.00183819
0.00186835
0.00189995
0.0019331
0.00196791
0.00200448
0.00204294
0.00208344
0.00212613
0.00217118
0.00221878
0.00226912
0.00232244
0.00237898
0.00243899
0.00250277
0.00257064
0.00264295
0.00272009
0.0028025
0.00289066
0.0029851
0.00308642
0.00319528
0.00331241
0.00343862
0.0035748
0.0037219
0.00388096
0.00405306
0.00423926
0.00444051
0.00465753
0.00489045
0.00513847
0.00539923
0.00566826
0.00593894
0.00620327
0.00645292
0.00669059
0.00698483
0.00743367
0.00165923
0.00168136
0.00170445
0.00172851
0.00175365
0.00177994
0.00180743
0.00183622
0.00186636
0.00189796
0.0019311
0.0019659
0.00200246
0.00204091
0.0020814
0.00212407
0.0021691
0.00221666
0.00226696
0.00232021
0.00237665
0.00243655
0.00250017
0.00256784
0.0026399
0.00271673
0.00279874
0.0028864
0.00298021
0.00308075
0.00318862
0.0033045
0.00342912
0.00356326
0.00370775
0.00386343
0.00403113
0.00421157
0.00440527
0.0046123
0.00483198
0.00506241
0.0052998
0.00553787
0.00576773
0.00597898
0.00616213
0.00631832
0.00650233
0.00682071
0.00165638
0.00167847
0.00170152
0.00172558
0.00175072
0.00177699
0.00180448
0.00183324
0.00186337
0.00189495
0.00192808
0.00196286
0.0019994
0.00203783
0.0020783
0.00212094
0.00216592
0.00221343
0.00226364
0.00231679
0.00237308
0.00243279
0.00249617
0.00256353
0.0026352
0.00271154
0.00279294
0.00287983
0.0029727
0.00307204
0.0031784
0.00329238
0.00341459
0.00354565
0.0036862
0.0038368
0.0039979
0.00416974
0.00435216
0.00454431
0.00474428
0.00494851
0.00515106
0.00534291
0.0055118
0.00564359
0.00572694
0.00576469
0.00579533
0.00588373
0.00165253
0.00167463
0.00169767
0.00172172
0.00174685
0.00177311
0.00180058
0.00182933
0.00185944
0.001891
0.00192411
0.00195888
0.00199541
0.00203383
0.00207427
0.00211688
0.00216182
0.00220926
0.00225939
0.0023124
0.00236852
0.00242799
0.00249106
0.00255803
0.0026292
0.00270491
0.00278552
0.00287143
0.00296304
0.0030608
0.00316518
0.00327663
0.00339562
0.00352258
0.00365784
0.0038016
0.00395382
0.00411405
0.00428122
0.00445325
0.00462659
0.00479549
0.00495117
0.00508108
0.00516869
0.00519496
0.00514503
0.00502545
0.00486417
0.00459904
0.00164778
0.00166987
0.00169292
0.00171699
0.00174212
0.0017684
0.00179588
0.00182464
0.00185477
0.00188635
0.00191949
0.0019543
0.00199088
0.00202937
0.0020699
0.00211259
0.00215762
0.00220514
0.00225532
0.00230837
0.00236449
0.00242392
0.0024869
0.0025537
0.00262463
0.00269998
0.0027801
0.00286533
0.00295604
0.0030526
0.00315538
0.00326471
0.00338087
0.00350405
0.00363425
0.0037712
0.00391415
0.00406169
0.00421134
0.00435906
0.00449858
0.00462048
0.00471128
0.00475275
0.00472197
0.00459335
0.00434676
0.00398993
0.00354418
0.00280251
0.00164209
0.00166412
0.00168711
0.00171112
0.0017362
0.00176242
0.00178984
0.00181855
0.00184861
0.00188014
0.00191322
0.00194798
0.00198452
0.00202297
0.00206347
0.00210614
0.00215114
0.00219861
0.00224874
0.0023017
0.0023577
0.00241696
0.00247972
0.00254623
0.00261679
0.00269167
0.00277118
0.00285563
0.00294535
0.00304062
0.00314172
0.00324887
0.00336217
0.00348155
0.00360669
0.00373679
0.00387037
0.00400489
0.00413617
0.00425762
0.00435923
0.00442638
0.00443875
0.00436997
0.00418852
0.00385992
0.00335936
0.0027015
0.00185652
0.000502899
-0.00311678
-0.00310035
-0.00300402
-0.00284011
-0.00262605
-0.00237447
-0.00209967
-0.0018161
-0.00153684
-0.00127265
-0.00103147
-0.000818309
-0.000635476
-0.000483057
-0.000359472
-0.000262023
-0.000187399
-0.000132068
-9.25748e-05
-6.57337e-05
-4.87361e-05
-3.91951e-05
-3.51469e-05
-3.50225e-05
-3.75934e-05
-4.19151e-05
-4.72834e-05
-5.31846e-05
-5.92521e-05
-6.52329e-05
-7.09583e-05
-7.63216e-05
-8.1261e-05
-8.57466e-05
-8.97702e-05
-9.33388e-05
-9.64686e-05
-9.91821e-05
-0.000101505
-0.000103464
-0.000105087
-0.000106401
-0.000107432
-0.000108204
-0.00010874
-0.000109063
-0.000109193
-0.000109148
-0.000108945
-0.000108601
-0.00324678
-0.00319613
-0.00308275
-0.00290743
-0.00268745
-0.00243195
-0.00215433
-0.00186831
-0.00158652
-0.00131954
-0.00107527
-0.000858765
-0.000672423
-0.000516446
-0.000389354
-0.000288541
-0.00021076
-0.000152522
-0.000110395
-8.11989e-05
-6.21185e-05
-5.07513e-05
-4.51137e-05
-4.36135e-05
-4.49986e-05
-4.83026e-05
-5.27991e-05
-5.79541e-05
-6.33833e-05
-6.88184e-05
-7.40768e-05
-7.904e-05
-8.36362e-05
-8.78266e-05
-9.15958e-05
-9.49444e-05
-9.78834e-05
-0.000100431
-0.000102609
-0.000104441
-0.000105952
-0.000107168
-0.000108111
-0.000108805
-0.000109273
-0.000109534
-0.000109609
-0.000109514
-0.000109267
-0.000108882
-0.00351037
-0.00336929
-0.00322905
-0.00303846
-0.00280586
-0.0025425
-0.00225952
-0.00196891
-0.00168247
-0.00141035
-0.00116035
-0.000937563
-0.000744586
-0.000581823
-0.000448004
-0.000340698
-0.000256794
-0.000192895
-0.00014562
-0.000111806
-8.86301e-05
-7.36655e-05
-6.48888e-05
-6.06659e-05
-5.97017e-05
-6.09878e-05
-6.37531e-05
-6.74252e-05
-7.15856e-05
-7.59352e-05
-8.02647e-05
-8.44323e-05
-8.83459e-05
-9.19494e-05
-9.52129e-05
-9.81244e-05
-0.000100685
-0.000102903
-0.000104793
-0.000106373
-0.000107663
-0.000108683
-0.000109454
-0.000109995
-0.000110326
-0.000110465
-0.00011043
-0.000110237
-0.000109902
-0.000109437
-0.00388771
-0.0036392
-0.0034495
-0.00322798
-0.00297574
-0.00270036
-0.00240918
-0.00211185
-0.00181882
-0.00153955
-0.00128158
-0.00105007
-0.00084783
-0.000675544
-0.000532237
-0.000415735
-0.000323125
-0.00025115
-0.000196508
-0.000156069
-0.000127006
-0.000106858
-9.35557e-05
-8.54028e-05
-8.10414e-05
-7.94052e-05
-7.96641e-05
-8.11878e-05
-8.35087e-05
-8.6284e-05
-8.92658e-05
-9.22786e-05
-9.5201e-05
-9.79524e-05
-0.000100481
-0.000102758
-0.000104767
-0.000106506
-0.000107979
-0.000109193
-0.000110161
-0.000110896
-0.000111416
-0.000111733
-0.000111865
-0.000111827
-0.000111633
-0.000111297
-0.000110833
-0.000110253
-0.00432666
-0.0039832
-0.00372773
-0.00346338
-0.00318406
-0.0028918
-0.00258949
-0.00228382
-0.00198332
-0.00169632
-0.00142978
-0.00118874
-0.000976152
-0.000792996
-0.000638629
-0.000511199
-0.000408066
-0.000326179
-0.000262377
-0.000213605
-0.000177062
-0.000150277
-0.000131133
-0.000117875
-0.000109085
-0.000103619
-0.000100583
-9.92789e-05
-9.9176e-05
-9.98758e-05
-0.000101081
-0.000102572
-0.000104189
-0.000105818
-0.000107381
-0.000108823
-0.00011011
-0.00011122
-0.000112144
-0.000112877
-0.000113423
-0.000113786
-0.000113976
-0.000114
-0.000113871
-0.0001136
-0.000113197
-0.000112674
-0.000112041
-0.000111308
-0.00477282
-0.00436283
-0.00403069
-0.00371232
-0.00339947
-0.00308789
-0.00277522
-0.00246436
-0.0021609
-0.00187103
-0.00160043
-0.00135354
-0.00113322
-0.000940687
-0.000775707
-0.0006369
-0.000522085
-0.000428603
-0.000353601
-0.000294254
-0.000247909
-0.00021218
-0.000184985
-0.000164559
-0.000149439
-0.00013844
-0.000130598
-0.000125142
-0.000121468
-0.000119108
-0.000117696
-0.000116951
-0.000116658
-0.000116654
-0.000116818
-0.00011706
-0.000117312
-0.00011753
-0.000117679
-0.000117739
-0.000117697
-0.000117545
-0.000117281
-0.000116905
-0.000116421
-0.000115835
-0.000115151
-0.000114379
-0.000113523
-0.000112592
-0.00515442
-0.00479826
-0.00441954
-0.00404292
-0.00368852
-0.00334936
-0.00301843
-0.00269536
-0.00238294
-0.00208517
-0.00180628
-0.00154995
-0.00131882
-0.0011142
-0.000936183
-0.000783802
-0.000655294
-0.000548349
-0.000460398
-0.000388828
-0.000331134
-0.000285017
-0.00024843
-0.000219607
-0.000197053
-0.000179522
-0.000165987
-0.000155602
-0.000147681
-0.000141675
-0.000137142
-0.00013373
-0.000131161
-0.000129212
-0.000127714
-0.000126532
-0.000125563
-0.00012473
-0.000123973
-0.000123248
-0.000122525
-0.00012178
-0.000120997
-0.000120168
-0.000119286
-0.000118348
-0.000117354
-0.000116307
-0.00011521
-0.000114066
-0.000108127
-0.000107539
-0.000106833
-0.000106014
-0.000105091
-0.000104071
-0.000102959
-0.000101762
-0.000100484
-9.91304e-05
-9.77029e-05
-9.62045e-05
-9.46378e-05
-9.30054e-05
-9.13109e-05
-8.95585e-05
-8.77532e-05
-8.59005e-05
-8.40063e-05
-8.20763e-05
-8.01164e-05
-7.81322e-05
-7.61286e-05
-7.41106e-05
-7.20826e-05
-7.00485e-05
-6.80122e-05
-6.59773e-05
-6.39469e-05
-6.19242e-05
-5.99123e-05
-5.79139e-05
-5.59317e-05
-5.39682e-05
-5.20258e-05
-5.01068e-05
-4.82133e-05
-4.63474e-05
-4.45109e-05
-4.27055e-05
-4.09328e-05
-3.91945e-05
-3.74918e-05
-3.58259e-05
-3.41982e-05
-3.26096e-05
-3.10608e-05
-2.95527e-05
-2.80861e-05
-2.66615e-05
-2.52793e-05
-2.394e-05
-2.26436e-05
-2.13904e-05
-2.01805e-05
-1.90138e-05
-1.78902e-05
-1.68095e-05
-1.57713e-05
-1.47753e-05
-1.38211e-05
-1.2908e-05
-1.20356e-05
-1.12031e-05
-1.04098e-05
-9.65496e-06
-8.93771e-06
-8.25717e-06
-7.61242e-06
-7.00249e-06
-6.42638e-06
-5.88305e-06
-5.37144e-06
-4.89045e-06
-4.43897e-06
-4.01584e-06
-3.61996e-06
-3.25014e-06
-2.90523e-06
-2.58412e-06
-2.28559e-06
-2.00861e-06
-1.75191e-06
-1.51445e-06
-1.29506e-06
-1.09256e-06
-9.06027e-07
-7.34117e-07
-5.76024e-07
-4.30558e-07
-2.96647e-07
-1.73623e-07
-5.96482e-08
4.46664e-08
1.43792e-07
2.30293e-07
3.26677e-07
3.79365e-07
5.24014e-07
4.42664e-07
8.58472e-07
2.17868e-07
1.6926e-06
-8.12964e-07
3.69469e-06
-3.23801e-06
6.97961e-06
-6.00761e-06
8.70629e-06
-4.31385e-06
3.13984e-06
6.0009e-06
-8.97682e-06
1.70369e-05
-1.37249e-05
-0.000108372
-0.000107758
-0.000107029
-0.000106189
-0.000105247
-0.000104208
-0.00010308
-0.000101868
-0.000100576
-9.92089e-05
-9.77693e-05
-9.62599e-05
-9.46831e-05
-9.30417e-05
-9.13393e-05
-8.95801e-05
-8.77691e-05
-8.59115e-05
-8.40132e-05
-8.20798e-05
-8.0117e-05
-7.81303e-05
-7.61247e-05
-7.41049e-05
-7.20752e-05
-7.00398e-05
-6.80024e-05
-6.59664e-05
-6.39352e-05
-6.19119e-05
-5.98994e-05
-5.79006e-05
-5.5918e-05
-5.39543e-05
-5.20119e-05
-5.00928e-05
-4.81994e-05
-4.63336e-05
-4.44972e-05
-4.2692e-05
-4.09197e-05
-3.91816e-05
-3.74792e-05
-3.58137e-05
-3.41864e-05
-3.25981e-05
-3.10497e-05
-2.95421e-05
-2.80759e-05
-2.66517e-05
-2.52699e-05
-2.3931e-05
-2.2635e-05
-2.13823e-05
-2.01728e-05
-1.90065e-05
-1.78833e-05
-1.68029e-05
-1.57651e-05
-1.47694e-05
-1.38155e-05
-1.29028e-05
-1.20307e-05
-1.11985e-05
-1.04055e-05
-9.65099e-06
-8.934e-06
-8.25372e-06
-7.60922e-06
-6.99952e-06
-6.42364e-06
-5.88051e-06
-5.3691e-06
-4.88829e-06
-4.43699e-06
-4.01402e-06
-3.61829e-06
-3.24862e-06
-2.90384e-06
-2.58285e-06
-2.28444e-06
-2.00757e-06
-1.75097e-06
-1.5136e-06
-1.2943e-06
-1.09187e-06
-9.05418e-07
-7.33571e-07
-5.75543e-07
-4.3013e-07
-2.96275e-07
-1.73294e-07
-5.93645e-08
4.49088e-08
1.44001e-07
2.30461e-07
3.2682e-07
3.79486e-07
5.24063e-07
4.42812e-07
8.58334e-07
2.18173e-07
1.69216e-06
-8.12415e-07
3.69398e-06
-3.23745e-06
6.97926e-06
-6.008e-06
8.7073e-06
-4.31555e-06
3.14142e-06
6.00005e-06
-8.97757e-06
1.70386e-05
-1.37317e-05
-0.000108857
-0.000108192
-0.000107417
-0.000106535
-0.000105554
-0.00010448
-0.000103319
-0.000102077
-0.000100757
-9.93639e-05
-9.79004e-05
-9.63691e-05
-9.47725e-05
-9.31135e-05
-9.13956e-05
-8.9623e-05
-8.78005e-05
-8.59333e-05
-8.40269e-05
-8.20867e-05
-8.01181e-05
-7.81265e-05
-7.61166e-05
-7.40932e-05
-7.20604e-05
-7.00223e-05
-6.79825e-05
-6.59446e-05
-6.39117e-05
-6.18871e-05
-5.98735e-05
-5.78739e-05
-5.58907e-05
-5.39266e-05
-5.19839e-05
-5.00649e-05
-4.81715e-05
-4.63059e-05
-4.44699e-05
-4.26651e-05
-4.08933e-05
-3.91558e-05
-3.74541e-05
-3.57893e-05
-3.41627e-05
-3.25752e-05
-3.10276e-05
-2.95208e-05
-2.80554e-05
-2.66321e-05
-2.52511e-05
-2.3913e-05
-2.26179e-05
-2.1366e-05
-2.01573e-05
-1.89918e-05
-1.78693e-05
-1.67897e-05
-1.57526e-05
-1.47577e-05
-1.38045e-05
-1.28925e-05
-1.2021e-05
-1.11894e-05
-1.0397e-05
-9.64303e-06
-8.92659e-06
-8.24682e-06
-7.60281e-06
-6.99358e-06
-6.41813e-06
-5.87543e-06
-5.36441e-06
-4.88397e-06
-4.43301e-06
-4.01037e-06
-3.61495e-06
-3.24556e-06
-2.90106e-06
-2.58032e-06
-2.28214e-06
-2.00549e-06
-1.74909e-06
-1.5119e-06
-1.29277e-06
-1.0905e-06
-9.04193e-07
-7.32477e-07
-5.74577e-07
-4.29277e-07
-2.95525e-07
-1.72638e-07
-5.87931e-08
4.53948e-08
1.44418e-07
2.30813e-07
3.27085e-07
3.79753e-07
5.2414e-07
4.43111e-07
8.58072e-07
2.18754e-07
1.69129e-06
-8.11298e-07
3.69254e-06
-3.23632e-06
6.97855e-06
-6.00878e-06
8.70932e-06
-4.31894e-06
3.14457e-06
5.99833e-06
-8.97898e-06
1.7042e-05
-1.37448e-05
-0.000109571
-0.00010883
-0.000107989
-0.000107045
-0.000106006
-0.00010488
-0.000103671
-0.000102384
-0.000101023
-9.95919e-05
-9.80933e-05
-9.65299e-05
-9.49043e-05
-9.32194e-05
-9.14787e-05
-8.96864e-05
-8.7847e-05
-8.59656e-05
-8.40471e-05
-8.20967e-05
-8.01196e-05
-7.81205e-05
-7.61044e-05
-7.40755e-05
-7.2038e-05
-6.99958e-05
-6.79526e-05
-6.59117e-05
-6.38764e-05
-6.18498e-05
-5.98346e-05
-5.78337e-05
-5.58497e-05
-5.3885e-05
-5.1942e-05
-5.00229e-05
-4.81297e-05
-4.62644e-05
-4.44289e-05
-4.26248e-05
-4.08537e-05
-3.91171e-05
-3.74164e-05
-3.57526e-05
-3.41271e-05
-3.25408e-05
-3.09944e-05
-2.94888e-05
-2.80247e-05
-2.66026e-05
-2.52229e-05
-2.38861e-05
-2.25922e-05
-2.13415e-05
-2.0134e-05
-1.89697e-05
-1.78484e-05
-1.67699e-05
-1.5734e-05
-1.47401e-05
-1.37879e-05
-1.28769e-05
-1.20064e-05
-1.11757e-05
-1.03842e-05
-9.63109e-06
-8.91546e-06
-8.23647e-06
-7.59319e-06
-6.98466e-06
-6.40988e-06
-5.8678e-06
-5.35737e-06
-4.87748e-06
-4.42705e-06
-4.0049e-06
-3.60994e-06
-3.24098e-06
-2.89688e-06
-2.57653e-06
-2.2787e-06
-2.00237e-06
-1.74626e-06
-1.50935e-06
-1.29048e-06
-1.08844e-06
-9.02355e-07
-7.30838e-07
-5.73128e-07
-4.27996e-07
-2.944e-07
-1.71653e-07
-5.79387e-08
4.61259e-08
1.45038e-07
2.31342e-07
3.27481e-07
3.80152e-07
5.24256e-07
4.43556e-07
8.57683e-07
2.19617e-07
1.69e-06
-8.0965e-07
3.69041e-06
-3.2347e-06
6.97758e-06
-6.01007e-06
8.71248e-06
-4.32414e-06
3.14935e-06
5.99578e-06
-8.98117e-06
1.70472e-05
-1.37639e-05
-0.000110498
-0.000109662
-0.000108734
-0.000107708
-0.000106596
-0.000105401
-0.000104129
-0.000102784
-0.000101369
-9.98882e-05
-9.83439e-05
-9.67388e-05
-9.50755e-05
-9.33571e-05
-9.1587e-05
-8.97691e-05
-8.79078e-05
-8.60077e-05
-8.40734e-05
-8.21096e-05
-8.0121e-05
-7.81122e-05
-7.60877e-05
-7.40515e-05
-7.20078e-05
-6.99602e-05
-6.79124e-05
-6.58676e-05
-6.38291e-05
-6.17998e-05
-5.97825e-05
-5.778e-05
-5.57949e-05
-5.38294e-05
-5.1886e-05
-4.99668e-05
-4.80738e-05
-4.6209e-05
-4.43741e-05
-4.25709e-05
-4.08009e-05
-3.90655e-05
-3.73661e-05
-3.57037e-05
-3.40797e-05
-3.24949e-05
-3.09501e-05
-2.94462e-05
-2.79837e-05
-2.65633e-05
-2.51853e-05
-2.38501e-05
-2.25579e-05
-2.13089e-05
-2.0103e-05
-1.89403e-05
-1.78206e-05
-1.67436e-05
-1.57091e-05
-1.47167e-05
-1.37659e-05
-1.28562e-05
-1.19869e-05
-1.11575e-05
-1.03672e-05
-9.61518e-06
-8.90063e-06
-8.22268e-06
-7.58038e-06
-6.97278e-06
-6.39888e-06
-5.85763e-06
-5.34799e-06
-4.86884e-06
-4.41911e-06
-3.99761e-06
-3.60326e-06
-3.23488e-06
-2.89131e-06
-2.57146e-06
-2.2741e-06
-1.9982e-06
-1.7425e-06
-1.50595e-06
-1.28742e-06
-1.0857e-06
-8.99906e-07
-7.28653e-07
-5.71194e-07
-4.26287e-07
-2.929e-07
-1.70339e-07
-5.68012e-08
4.71015e-08
1.45862e-07
2.32046e-07
3.28007e-07
3.80682e-07
5.24413e-07
4.44139e-07
8.57181e-07
2.20734e-07
1.68834e-06
-8.07573e-07
3.68777e-06
-3.23285e-06
6.97671e-06
-6.0123e-06
8.71723e-06
-4.33151e-06
3.15589e-06
5.99259e-06
-8.9846e-06
1.70548e-05
-1.3789e-05
-0.000111624
-0.000110671
-0.000109637
-0.000108513
-0.00010731
-0.000106033
-0.000104684
-0.000103268
-0.000101788
-0.000100247
-9.86473e-05
-9.69918e-05
-9.52832e-05
-9.35243e-05
-9.17186e-05
-8.98698e-05
-8.79818e-05
-8.60589e-05
-8.41052e-05
-8.21248e-05
-8.01221e-05
-7.81012e-05
-7.60661e-05
-7.40209e-05
-7.19694e-05
-6.99152e-05
-6.78616e-05
-6.5812e-05
-6.37695e-05
-6.17369e-05
-5.97171e-05
-5.77127e-05
-5.57261e-05
-5.37597e-05
-5.18158e-05
-4.98965e-05
-4.80038e-05
-4.61396e-05
-4.43057e-05
-4.25035e-05
-4.07348e-05
-3.90009e-05
-3.73031e-05
-3.56425e-05
-3.40204e-05
-3.24376e-05
-3.08948e-05
-2.93929e-05
-2.79325e-05
-2.65142e-05
-2.51383e-05
-2.38052e-05
-2.25151e-05
-2.12681e-05
-2.00643e-05
-1.89035e-05
-1.77857e-05
-1.67107e-05
-1.5678e-05
-1.46874e-05
-1.37383e-05
-1.28303e-05
-1.19626e-05
-1.11348e-05
-1.03459e-05
-9.59531e-06
-8.88211e-06
-8.20544e-06
-7.56437e-06
-6.95793e-06
-6.38513e-06
-5.84492e-06
-5.33627e-06
-4.85804e-06
-4.40918e-06
-3.9885e-06
-3.59492e-06
-3.22725e-06
-2.88436e-06
-2.56513e-06
-2.26835e-06
-1.99299e-06
-1.73779e-06
-1.5017e-06
-1.28361e-06
-1.08227e-06
-8.96844e-07
-7.25924e-07
-5.68777e-07
-4.24151e-07
-2.91024e-07
-1.68699e-07
-5.53808e-08
4.83209e-08
1.4689e-07
2.32926e-07
3.28664e-07
3.81345e-07
5.24606e-07
4.4487e-07
8.56549e-07
2.22139e-07
1.68625e-06
-8.04953e-07
3.68443e-06
-3.23048e-06
6.97557e-06
-6.01505e-06
8.72312e-06
-4.34068e-06
3.16405e-06
5.98857e-06
-8.98871e-06
1.70641e-05
-1.3818e-05
-0.000112927
-0.00011184
-0.000110683
-0.000109446
-0.000108138
-0.000106764
-0.000105327
-0.000103829
-0.000102273
-0.000100662
-9.89987e-05
-9.72852e-05
-9.55243e-05
-9.37189e-05
-9.18721e-05
-8.99874e-05
-8.80684e-05
-8.61188e-05
-8.41421e-05
-8.21421e-05
-8.01225e-05
-7.8087e-05
-7.60394e-05
-7.39834e-05
-7.19226e-05
-6.98604e-05
-6.78e-05
-6.57447e-05
-6.36975e-05
-6.16611e-05
-5.96382e-05
-5.76314e-05
-5.56432e-05
-5.36758e-05
-5.17314e-05
-4.9812e-05
-4.79197e-05
-4.60563e-05
-4.42234e-05
-4.24226e-05
-4.06555e-05
-3.89234e-05
-3.72276e-05
-3.55691e-05
-3.39492e-05
-3.23688e-05
-3.08284e-05
-2.9329e-05
-2.78711e-05
-2.64553e-05
-2.5082e-05
-2.37514e-05
-2.24638e-05
-2.12192e-05
-2.00178e-05
-1.88595e-05
-1.7744e-05
-1.66712e-05
-1.56407e-05
-1.46522e-05
-1.37052e-05
-1.27992e-05
-1.19335e-05
-1.11075e-05
-1.03204e-05
-9.57148e-06
-8.8599e-06
-8.18477e-06
-7.54516e-06
-6.94012e-06
-6.36864e-06
-5.82968e-06
-5.32221e-06
-4.84509e-06
-4.39728e-06
-3.97758e-06
-3.58491e-06
-3.21811e-06
-2.87602e-06
-2.55754e-06
-2.26146e-06
-1.98674e-06
-1.73214e-06
-1.49661e-06
-1.27902e-06
-1.07816e-06
-8.93173e-07
-7.22651e-07
-5.65878e-07
-4.21589e-07
-2.88775e-07
-1.66733e-07
-5.36784e-08
4.97842e-08
1.4812e-07
2.33984e-07
3.29442e-07
3.82157e-07
5.24795e-07
4.4584e-07
8.5559e-07
2.2422e-07
1.68301e-06
-8.00518e-07
3.67833e-06
-3.22454e-06
6.97002e-06
-6.01337e-06
8.72519e-06
-4.34786e-06
3.17262e-06
5.98134e-06
-8.98744e-06
1.70666e-05
-1.38411e-05
-0.000114433
-0.000113189
-0.000111885
-0.000110517
-0.000109089
-0.000107604
-0.000106065
-0.000104472
-0.00010283
-0.000101139
-9.94034e-05
-9.7624e-05
-9.58036e-05
-9.39451e-05
-9.20513e-05
-9.01253e-05
-8.81703e-05
-8.61893e-05
-8.41855e-05
-8.2162e-05
-8.01222e-05
-7.80693e-05
-7.60066e-05
-7.39377e-05
-7.18657e-05
-6.97939e-05
-6.77256e-05
-6.56635e-05
-6.36107e-05
-6.15698e-05
-5.95433e-05
-5.75339e-05
-5.55438e-05
-5.35751e-05
-5.16302e-05
-4.97108e-05
-4.7819e-05
-4.59565e-05
-4.41249e-05
-4.23258e-05
-4.05606e-05
-3.88307e-05
-3.71373e-05
-3.54814e-05
-3.38642e-05
-3.22865e-05
-3.07491e-05
-2.92526e-05
-2.77977e-05
-2.6385e-05
-2.50146e-05
-2.3687e-05
-2.24024e-05
-2.11608e-05
-1.99623e-05
-1.88068e-05
-1.76941e-05
-1.6624e-05
-1.55962e-05
-1.46103e-05
-1.36658e-05
-1.27621e-05
-1.18987e-05
-1.10749e-05
-1.02899e-05
-9.54302e-06
-8.83337e-06
-8.16009e-06
-7.52224e-06
-6.91886e-06
-6.34896e-06
-5.81149e-06
-5.30543e-06
-4.82963e-06
-4.38307e-06
-3.96454e-06
-3.57297e-06
-3.20719e-06
-2.86606e-06
-2.54848e-06
-2.25323e-06
-1.97928e-06
-1.7254e-06
-1.49052e-06
-1.27355e-06
-1.07325e-06
-8.88788e-07
-7.18744e-07
-5.62415e-07
-4.18529e-07
-2.86088e-07
-1.64385e-07
-5.16467e-08
5.15323e-08
1.49585e-07
2.35253e-07
3.30358e-07
3.83156e-07
5.24949e-07
4.47156e-07
8.54109e-07
2.27379e-07
1.67785e-06
-7.92965e-07
3.66734e-06
-3.21186e-06
6.95578e-06
-6.00225e-06
8.7184e-06
-4.34939e-06
3.18062e-06
5.96823e-06
-8.97438e-06
1.70539e-05
-1.3849e-05
-0.000116124
-0.000114704
-0.000113237
-0.000111721
-0.000110158
-0.000108548
-0.000106894
-0.000105195
-0.000103455
-0.000101675
-9.98572e-05
-9.80035e-05
-9.61163e-05
-9.4198e-05
-9.22513e-05
-9.02786e-05
-8.82828e-05
-8.62662e-05
-8.42315e-05
-8.21813e-05
-8.01183e-05
-7.80453e-05
-7.59654e-05
-7.38815e-05
-7.17967e-05
-6.9714e-05
-6.76363e-05
-6.55665e-05
-6.35073e-05
-6.14612e-05
-5.94308e-05
-5.74183e-05
-5.5426e-05
-5.34561e-05
-5.15106e-05
-4.95913e-05
-4.77001e-05
-4.58388e-05
-4.40088e-05
-4.22117e-05
-4.04488e-05
-3.87215e-05
-3.70309e-05
-3.53781e-05
-3.37641e-05
-3.21898e-05
-3.06557e-05
-2.91627e-05
-2.77114e-05
-2.63022e-05
-2.49354e-05
-2.36114e-05
-2.23303e-05
-2.10922e-05
-1.98971e-05
-1.87449e-05
-1.76355e-05
-1.65686e-05
-1.55439e-05
-1.4561e-05
-1.36193e-05
-1.27185e-05
-1.18578e-05
-1.10365e-05
-1.02541e-05
-9.50957e-06
-8.8022e-06
-8.13108e-06
-7.49529e-06
-6.89387e-06
-6.32583e-06
-5.79011e-06
-5.2857e-06
-4.81146e-06
-4.36636e-06
-3.94921e-06
-3.55893e-06
-3.19436e-06
-2.85436e-06
-2.53783e-06
-2.24356e-06
-1.97052e-06
-1.71748e-06
-1.48337e-06
-1.26713e-06
-1.06748e-06
-8.83635e-07
-7.14152e-07
-5.58344e-07
-4.14933e-07
-2.8293e-07
-1.61627e-07
-4.92586e-08
5.35849e-08
1.51311e-07
2.36731e-07
3.31464e-07
3.8426e-07
5.25285e-07
4.48373e-07
8.53026e-07
2.29851e-07
1.67398e-06
-7.87712e-07
3.65996e-06
-3.20471e-06
6.94884e-06
-6.00006e-06
8.72056e-06
-4.35809e-06
3.19136e-06
5.95834e-06
-8.97076e-06
1.70543e-05
-1.38721e-05
-0.000117937
-0.000116331
-0.000114691
-0.000113017
-0.000111308
-0.000109564
-0.000107785
-0.000105972
-0.000104127
-0.000102251
-0.000100345
-9.84121e-05
-9.64531e-05
-9.44705e-05
-9.24666e-05
-9.04434e-05
-8.84031e-05
-8.63476e-05
-8.42789e-05
-8.21991e-05
-8.01103e-05
-7.80151e-05
-7.59158e-05
-7.38153e-05
-7.17162e-05
-6.96214e-05
-6.75335e-05
-6.54551e-05
-6.33889e-05
-6.13372e-05
-5.93023e-05
-5.72866e-05
-5.52921e-05
-5.33208e-05
-5.13747e-05
-4.94557e-05
-4.75653e-05
-4.57053e-05
-4.38772e-05
-4.20824e-05
-4.03223e-05
-3.85979e-05
-3.69106e-05
-3.52612e-05
-3.36509e-05
-3.20803e-05
-3.05502e-05
-2.90612e-05
-2.76139e-05
-2.62087e-05
-2.48459e-05
-2.35259e-05
-2.22488e-05
-2.10146e-05
-1.98234e-05
-1.8675e-05
-1.75693e-05
-1.6506e-05
-1.54848e-05
-1.45053e-05
-1.35669e-05
-1.26692e-05
-1.18116e-05
-1.09933e-05
-1.02136e-05
-9.47181e-06
-8.76701e-06
-8.09833e-06
-7.46487e-06
-6.86565e-06
-6.29971e-06
-5.76596e-06
-5.26343e-06
-4.79095e-06
-4.3475e-06
-3.9319e-06
-3.54308e-06
-3.17987e-06
-2.84114e-06
-2.5258e-06
-2.23264e-06
-1.96062e-06
-1.70853e-06
-1.4753e-06
-1.25987e-06
-1.06097e-06
-8.77817e-07
-7.08968e-07
-5.53747e-07
-4.10873e-07
-2.79365e-07
-1.58513e-07
-4.65624e-08
5.59008e-08
1.53263e-07
2.38391e-07
3.32731e-07
3.85461e-07
5.2576e-07
4.49548e-07
8.52185e-07
2.31946e-07
1.6708e-06
-7.8364e-07
3.65432e-06
-3.20017e-06
6.94513e-06
-6.00176e-06
8.72644e-06
-4.36984e-06
3.20341e-06
5.94929e-06
-8.97006e-06
1.70589e-05
-1.39e-05
-0.000119852
-0.00011805
-0.000116229
-0.000114387
-0.000112523
-0.000110637
-0.000108726
-0.000106793
-0.000104837
-0.00010286
-0.000100862
-9.88444e-05
-9.68096e-05
-9.47589e-05
-9.26942e-05
-9.0617e-05
-8.85289e-05
-8.64314e-05
-8.43258e-05
-8.22137e-05
-8.00969e-05
-7.79772e-05
-7.58569e-05
-7.37382e-05
-7.16235e-05
-6.95155e-05
-6.74164e-05
-6.53288e-05
-6.32549e-05
-6.11972e-05
-5.91576e-05
-5.71385e-05
-5.51416e-05
-5.3169e-05
-5.12225e-05
-4.93038e-05
-4.74145e-05
-4.55561e-05
-4.37302e-05
-4.1938e-05
-4.01809e-05
-3.846e-05
-3.67763e-05
-3.51308e-05
-3.35246e-05
-3.19583e-05
-3.04325e-05
-2.89479e-05
-2.75051e-05
-2.61044e-05
-2.47462e-05
-2.34306e-05
-2.2158e-05
-2.09282e-05
-1.97412e-05
-1.85971e-05
-1.74955e-05
-1.64362e-05
-1.5419e-05
-1.44432e-05
-1.35085e-05
-1.26144e-05
-1.17601e-05
-1.09451e-05
-1.01686e-05
-9.42975e-06
-8.7278e-06
-8.06185e-06
-7.43099e-06
-6.83423e-06
-6.27061e-06
-5.73907e-06
-5.23862e-06
-4.7681e-06
-4.3265e-06
-3.91262e-06
-3.52543e-06
-3.16373e-06
-2.82643e-06
-2.5124e-06
-2.22047e-06
-1.94959e-06
-1.69856e-06
-1.46631e-06
-1.25178e-06
-1.05372e-06
-8.71336e-07
-7.03194e-07
-5.48627e-07
-4.0635e-07
-2.75393e-07
-1.55045e-07
-4.35596e-08
5.84796e-08
1.55437e-07
2.40236e-07
3.34151e-07
3.86777e-07
5.2633e-07
4.50777e-07
8.51385e-07
2.34061e-07
1.66755e-06
-7.79451e-07
3.64829e-06
-3.19508e-06
6.94038e-06
-6.00228e-06
8.73092e-06
-4.38073e-06
3.21551e-06
5.93863e-06
-8.96604e-06
1.7059e-05
-1.39222e-05
-0.000121847
-0.00011984
-0.000117831
-0.000115814
-0.000113789
-0.000111754
-0.000109707
-0.000107648
-0.000105577
-0.000103494
-0.000101399
-9.92942e-05
-9.71803e-05
-9.50585e-05
-9.29299e-05
-9.07958e-05
-8.86571e-05
-8.65148e-05
-8.43698e-05
-8.22232e-05
-8.00762e-05
-7.79302e-05
-7.57871e-05
-7.36489e-05
-7.15175e-05
-6.93952e-05
-6.72842e-05
-6.51867e-05
-6.31048e-05
-6.10407e-05
-5.89963e-05
-5.69735e-05
-5.49743e-05
-5.30004e-05
-5.10536e-05
-4.91354e-05
-4.72473e-05
-4.53909e-05
-4.35675e-05
-4.17783e-05
-4.00246e-05
-3.83075e-05
-3.6628e-05