/*--------------------------------*- C++ -*----------------------------------*\
| =========                 |                                                 |
| \\      /  F ield         | OpenFOAM: The Open Source CFD Toolbox           |
|  \\    /   O peration     | Version:  2412                                  |
|   \\  /    A nd           | Website:  www.openfoam.com                      |
|    \\/     M anipulation  |                                                 |
\*---------------------------------------------------------------------------*/
FoamFile
{
    version     2.0;
    format      ascii;
    arch        "LSB;label=32;scalar=64";
    class       surfaceScalarField;
    location    "6.5";
    object      phi;
}
// * * * * * * * * * * * * * * * * * * * * * * * * * * * * * * * * * * * * * //

dimensions      [0 3 -1 0 0 0 0];

oriented        oriented;

internalField   nonuniform List<scalar> 
126304
(
0.00505079
-3.22368e-08
5.22959e-11
0.00504948
1.30867e-06
-7.95841e-10
0.00504569
3.79448e-06
-3.19303e-09
0.00503977
5.92159e-06
-5.33634e-09
0.00503345
6.3341e-06
-5.52988e-09
0.00502814
5.31043e-06
-3.65738e-09
0.00502436
3.78023e-06
-7.85618e-10
0.00502186
2.50128e-06
1.97829e-09
0.0050201
1.75613e-06
4.04479e-09
0.00501861
1.48034e-06
5.32516e-09
0.00501711
1.49447e-06
5.97569e-09
0.00501546
1.64043e-06
6.21338e-09
0.00501364
1.82128e-06
6.22753e-09
0.00501164
1.99237e-06
6.14866e-09
0.00500949
2.14015e-06
6.04559e-09
0.00500722
2.26538e-06
5.95722e-09
0.00500484
2.37351e-06
5.88146e-09
0.00500236
2.47039e-06
5.81672e-09
0.0049998
2.56077e-06
5.75103e-09
0.00499714
2.64814e-06
5.67646e-09
0.0049944
2.73489e-06
5.59127e-09
0.00499157
2.82262e-06
5.49601e-09
0.00498866
2.91242e-06
5.38612e-09
0.00498565
3.00499e-06
5.26341e-09
0.00498254
3.1008e-06
5.12485e-09
0.00497934
3.20016e-06
4.9773e-09
0.00497603
3.30328e-06
4.82023e-09
0.00497261
3.41031e-06
4.65719e-09
0.00496909
3.52135e-06
4.48445e-09
0.00496545
3.63648e-06
4.30269e-09
0.00496169
3.75579e-06
4.10838e-09
0.0049578
3.87933e-06
3.90313e-09
0.00495379
4.00717e-06
3.6872e-09
0.00494965
4.13937e-06
3.46334e-09
0.00494537
4.276e-06
3.23336e-09
0.00494095
4.41715e-06
2.99931e-09
0.00493638
4.56291e-06
2.76247e-09
0.00493167
4.7134e-06
2.52245e-09
0.0049268
4.86872e-06
2.27864e-09
0.00492177
5.02903e-06
2.02992e-09
0.00491657
5.19449e-06
1.77602e-09
0.0049112
5.36528e-06
1.51706e-09
0.00490566
5.54162e-06
1.25412e-09
0.00489994
5.72375e-06
9.88466e-10
0.00489402
5.91198e-06
7.2157e-10
0.00488792
6.10663e-06
4.54346e-10
0.00488161
6.30811e-06
1.87553e-10
0.00487509
6.5169e-06
-7.83049e-11
0.00486836
6.73355e-06
-3.42481e-10
0.0048614
6.95868e-06
-6.03841e-10
0.00485421
7.19299e-06
-8.6074e-10
0.00484677
7.43722e-06
-1.11099e-09
0.00483908
7.69229e-06
-1.35181e-09
0.00483112
7.95993e-06
-1.57988e-09
8.2449e-06
0.00482288
-1.79216e-09
0.00505079
-6.12845e-08
0.0050495
2.59004e-06
0.00504579
7.50938e-06
0.00503997
1.1741e-05
0.00503372
1.25881e-05
0.00502844
1.05897e-05
0.00502464
7.5759e-06
0.0050221
5.04632e-06
0.00502029
3.56528e-06
0.00501876
3.01036e-06
0.00501722
3.02978e-06
0.00501555
3.31203e-06
0.00501371
3.66548e-06
0.0050117
4.0014e-06
0.00500954
4.29253e-06
0.00500727
4.53994e-06
0.00500489
4.75413e-06
0.00500241
4.94646e-06
0.00499985
5.12622e-06
0.0049972
5.30019e-06
0.00499446
5.47307e-06
0.00499163
5.64802e-06
0.00498872
5.82715e-06
0.00498571
6.01185e-06
0.00498261
6.20304e-06
0.00497941
6.40133e-06
0.0049761
6.60712e-06
0.00497269
6.82071e-06
0.00496917
7.04231e-06
0.00496554
7.27208e-06
0.00496178
7.51016e-06
0.0049579
7.75667e-06
0.0049539
8.01174e-06
0.00494976
8.2755e-06
0.00494549
8.54809e-06
0.00494108
8.82967e-06
0.00493652
9.12044e-06
0.00493181
9.42059e-06
0.00492695
9.73039e-06
0.00492193
1.00501e-05
0.00491675
1.038e-05
0.00491139
1.07205e-05
0.00490586
1.10721e-05
0.00490015
1.14351e-05
0.00489425
1.18103e-05
0.00488816
1.21981e-05
0.00488187
1.25995e-05
0.00487537
1.30153e-05
0.00486866
1.34466e-05
0.00486172
1.38947e-05
0.00485455
1.43608e-05
0.00484714
1.48464e-05
0.00483948
1.53532e-05
0.00483156
1.58844e-05
1.64493e-05
0.00482335
0.00505078
-8.42499e-08
0.00504955
3.81911e-06
0.00504599
1.10744e-05
0.00504036
1.73709e-05
0.00503425
1.86967e-05
0.00502902
1.58155e-05
0.00502519
1.14035e-05
0.00502257
7.67308e-06
0.00502066
5.47007e-06
0.00501905
4.62694e-06
0.00501744
4.63307e-06
0.00501572
5.0323e-06
0.00501385
5.54222e-06
0.00501182
6.03092e-06
0.00500965
6.45691e-06
0.00500737
6.82072e-06
0.00500499
7.13706e-06
0.00500251
7.42217e-06
0.00499995
7.68943e-06
0.0049973
7.94864e-06
0.00499457
8.20662e-06
0.00499175
8.46796e-06
0.00498884
8.73572e-06
0.00498584
9.01192e-06
0.00498274
9.2979e-06
0.00497955
9.59454e-06
0.00497626
9.90244e-06
0.00497285
1.0222e-05
0.00496934
1.05536e-05
0.00496572
1.08973e-05
0.00496197
1.12535e-05
0.00495811
1.16222e-05
0.00495412
1.20038e-05
0.00494999
1.23982e-05
0.00494574
1.28059e-05
0.00494134
1.32269e-05
0.0049368
1.36617e-05
0.00493211
1.41104e-05
0.00492726
1.45734e-05
0.00492226
1.50512e-05
0.0049171
1.55441e-05
0.00491177
1.60528e-05
0.00490626
1.65778e-05
0.00490058
1.71199e-05
0.00489471
1.76798e-05
0.00488865
1.82585e-05
0.00488239
1.88571e-05
0.00487593
1.9477e-05
0.00486925
2.01196e-05
0.00486236
2.07867e-05
0.00485524
2.14802e-05
0.00484789
2.2202e-05
0.00484029
2.29546e-05
0.00483243
2.37422e-05
2.45767e-05
0.0048243
0.00505077
-9.85124e-08
0.00504962
4.97171e-06
0.00504627
1.44223e-05
0.00504091
2.27272e-05
0.00503502
2.45956e-05
0.00502987
2.09646e-05
0.00502599
1.52772e-05
0.00502325
1.04175e-05
0.00502121
7.51242e-06
0.00501946
6.36794e-06
0.00501776
6.33402e-06
0.00501597
6.82244e-06
0.00501405
7.46562e-06
0.00501199
8.08975e-06
0.00500981
8.6384e-06
0.00500752
9.11027e-06
0.00500513
9.5231e-06
0.00500266
9.89711e-06
0.0050001
1.02491e-05
0.00499746
1.05916e-05
0.00499473
1.09332e-05
0.00499192
1.12797e-05
0.00498902
1.1635e-05
0.00498603
1.20018e-05
0.00498295
1.23817e-05
0.00497976
1.27758e-05
0.00497648
1.3185e-05
0.00497309
1.36096e-05
0.0049696
1.40502e-05
0.00496599
1.4507e-05
0.00496226
1.49802e-05
0.00495841
1.54702e-05
0.00495444
1.5977e-05
0.00495034
1.65009e-05
0.0049461
1.70423e-05
0.00494173
1.76014e-05
0.00493721
1.81785e-05
0.00493255
1.87741e-05
0.00492773
1.93885e-05
0.00492276
2.00224e-05
0.00491763
2.06762e-05
0.00491233
2.13507e-05
0.00490686
2.20466e-05
0.00490122
2.27648e-05
0.00489539
2.35064e-05
0.00488938
2.42725e-05
0.00488317
2.50645e-05
0.00487676
2.58841e-05
0.00487015
2.67331e-05
0.00486332
2.76137e-05
0.00485627
2.85281e-05
0.004849
2.94788e-05
0.00484148
3.04684e-05
0.00483372
3.15021e-05
3.25944e-05
0.0048257
0.00505076
-1.0182e-07
0.00504971
6.02657e-06
0.00504663
1.74965e-05
0.00504162
2.7739e-05
0.00503598
3.02314e-05
0.00503093
2.60175e-05
0.005027
1.92089e-05
0.00502411
1.33094e-05
0.00502189
9.72701e-06
0.00502
8.26467e-06
0.00501817
8.1572e-06
0.0050163
8.69999e-06
0.00501431
9.44736e-06
0.00501222
1.01851e-05
0.00501002
1.08411e-05
0.00500772
1.14105e-05
0.00500533
1.19127e-05
0.00500285
1.23706e-05
0.0050003
1.2804e-05
0.00499766
1.32271e-05
0.00499494
1.36503e-05
0.00499214
1.40804e-05
0.00498926
1.4522e-05
0.00498628
1.49781e-05
0.00498321
1.54507e-05
0.00498005
1.59412e-05
0.00497678
1.64505e-05
0.00497341
1.69791e-05
0.00496993
1.75275e-05
0.00496635
1.8096e-05
0.00496264
1.8685e-05
0.00495882
1.92946e-05
0.00495487
1.99252e-05
0.00495079
2.0577e-05
0.00494658
2.12503e-05
0.00494224
2.19455e-05
0.00493776
2.26629e-05
0.00493313
2.34031e-05
0.00492835
2.41666e-05
0.00492342
2.49539e-05
0.00491833
2.57658e-05
0.00491307
2.6603e-05
0.00490765
2.74664e-05
0.00490206
2.83571e-05
0.00489629
2.92762e-05
0.00489034
3.02251e-05
0.0048842
3.12055e-05
0.00487786
3.22192e-05
0.00487133
3.32683e-05
0.00486459
3.43551e-05
0.00485763
3.54823e-05
0.00485046
3.66523e-05
0.00484306
3.7868e-05
0.00483543
3.91343e-05
4.04656e-05
0.00482756
0.00505075
-9.27127e-08
0.00504981
6.96803e-06
0.00504705
2.02543e-05
0.00504243
3.2354e-05
0.0050371
3.55636e-05
0.00503216
3.09588e-05
0.00502816
2.3206e-05
0.0050251
1.63697e-05
0.00502269
1.21388e-05
0.00502062
1.03399e-05
0.00501865
1.01205e-05
0.00501667
1.06778e-05
0.00501463
1.1496e-05
0.00501249
1.23223e-05
0.00501026
1.30678e-05
0.00500795
1.37225e-05
0.00500556
1.43056e-05
0.00500309
1.48418e-05
0.00500054
1.53523e-05
0.00499791
1.58531e-05
0.00499521
1.63556e-05
0.00499242
1.68673e-05
0.00498955
1.73935e-05
0.00498659
1.79374e-05
0.00498354
1.85014e-05
0.00498039
1.90868e-05
0.00497715
1.96948e-05
0.0049738
2.03259e-05
0.00497035
2.09806e-05
0.00496679
2.16593e-05
0.00496311
2.23623e-05
0.00495931
2.30899e-05
0.0049554
2.38423e-05
0.00495135
2.46198e-05
0.00494718
2.54229e-05
0.00494287
2.62518e-05
0.00493843
2.71071e-05
0.00493384
2.79891e-05
0.00492911
2.88986e-05
0.00492423
2.98362e-05
0.00491919
3.08026e-05
0.004914
3.17986e-05
0.00490864
3.28254e-05
0.00490311
3.3884e-05
0.00489741
3.49757e-05
0.00489153
3.6102e-05
0.00488548
3.72647e-05
0.00487923
3.84656e-05
0.00487279
3.97072e-05
0.00486615
4.09917e-05
0.00485931
4.23219e-05
0.00485227
4.37001e-05
0.00484501
4.51289e-05
0.00483753
4.6612e-05
4.81614e-05
0.00482983
0.00505073
-6.72507e-08
0.00504992
7.77998e-06
0.0050475
2.26777e-05
0.00504331
3.65391e-05
0.00503831
4.05679e-05
0.00503349
3.57774e-05
0.00502942
2.72703e-05
0.00502618
1.96086e-05
0.00502356
1.47608e-05
0.0050213
1.2606e-05
0.00501918
1.22343e-05
0.0050171
1.27634e-05
0.00501498
1.36164e-05
0.0050128
1.45042e-05
0.00501054
1.532e-05
0.00500822
1.60466e-05
0.00500582
1.67015e-05
0.00500336
1.73093e-05
0.00500082
1.78923e-05
0.0049982
1.84674e-05
0.00499551
1.90464e-05
0.00499274
1.96376e-05
0.00498989
2.02463e-05
0.00498695
2.08763e-05
0.00498392
2.153e-05
0.0049808
2.22087e-05
0.00497758
2.29137e-05
0.00497426
2.36456e-05
0.00497083
2.44048e-05
0.0049673
2.51918e-05
0.00496366
2.60069e-05
0.0049599
2.68502e-05
0.00495602
2.77222e-05
0.00495201
2.86231e-05
0.00494788
2.95532e-05
0.00494362
3.05131e-05
0.00493923
3.15031e-05
0.00493469
3.25238e-05
0.00493001
3.35758e-05
0.00492519
3.46597e-05
0.00492022
3.57765e-05
0.00491509
3.6927e-05
0.0049098
3.81122e-05
0.00490435
3.93334e-05
0.00489874
4.05919e-05
0.00489295
4.18892e-05
0.00488699
4.32271e-05
0.00488085
4.46075e-05
0.00487452
4.60328e-05
0.00486801
4.75054e-05
0.0048613
4.90277e-05
0.0048544
5.06019e-05
0.0048473
5.22296e-05
0.00484
5.39121e-05
0.00483251
5.56536e-05
0.00482472
-1.838e-06
-1.99806e-09
0.00482604
-1.31667e-06
-2.2172e-09
0.00482681
-7.6808e-07
-2.42811e-09
0.00482701
-1.99193e-07
-2.62331e-09
0.00482663
3.78395e-07
-2.75234e-09
0.00482568
9.56915e-07
-2.90645e-09
0.00482415
1.53108e-06
-3.03663e-09
0.00482206
2.09497e-06
-3.14347e-09
0.00481941
2.65055e-06
-3.23068e-09
0.00481621
3.20779e-06
-3.29985e-09
0.00481243
3.78503e-06
-3.3522e-09
0.00480802
4.40791e-06
-3.38871e-09
0.00480292
5.10682e-06
-3.41017e-09
0.00479701
5.9137e-06
-3.41783e-09
0.00479015
6.85874e-06
-3.40893e-09
0.00478219
7.96794e-06
-3.38413e-09
0.00477293
9.2617e-06
-3.32956e-09
0.00476218
1.07549e-05
-3.25423e-09
0.00474972
1.24583e-05
-3.20036e-09
0.00473535
1.43807e-05
-3.16719e-09
0.00471882
1.65314e-05
-3.14679e-09
0.0046999
1.89225e-05
-3.14088e-09
0.00467833
2.15712e-05
-3.14063e-09
0.00465383
2.45015e-05
-3.14093e-09
0.00462609
2.77456e-05
-3.1343e-09
0.00459475
3.13453e-05
-3.11237e-09
0.0045594
3.53532e-05
-3.06726e-09
0.00451957
3.98342e-05
-2.99205e-09
0.0044747
4.48678e-05
-2.88269e-09
0.00442415
5.05509e-05
-2.7392e-09
0.00436715
5.70017e-05
-2.56653e-09
0.00430279
6.43652e-05
-2.37289e-09
0.00422997
7.28204e-05
-2.16795e-09
0.00414739
8.25895e-05
-1.96275e-09
0.00405344
9.39501e-05
-1.76726e-09
0.00394619
0.00010725
-1.58793e-09
0.00382327
0.00012292
-1.42788e-09
0.00368178
0.00014149
-1.28838e-09
0.0035182
0.000163585
-1.16881e-09
0.00332831
0.000189892
-1.06448e-09
0.00310724
0.000221069
-9.7127e-10
0.0028497
0.000257538
-8.85324e-10
0.00255059
0.00029911
-8.0223e-10
0.00220622
0.000344378
-7.18507e-10
0.00181642
0.000389794
-6.30214e-10
0.00138802
0.000428406
-5.36093e-10
0.000939724
0.000448293
-4.34807e-10
0.000509031
0.000430693
-3.29753e-10
0.000161806
0.000347226
-2.24912e-10
0.000161806
-1.00825e-10
0.00482383
-2.31597e-06
0.00482379
-1.27845e-06
0.0048232
-1.78355e-07
0.00482206
9.48105e-07
0.00482033
2.10255e-06
0.00481803
3.26286e-06
0.00481514
4.41368e-06
0.00481169
5.54683e-06
0.00480768
6.66646e-06
0.00480309
7.79243e-06
0.00479792
8.96102e-06
0.0047921
1.02227e-05
0.00478557
1.16371e-05
0.00477822
1.32669e-05
0.00476991
1.51714e-05
0.00476047
1.74016e-05
0.00474974
1.99979e-05
0.0047375
2.29897e-05
0.00472356
2.63987e-05
0.0047077
3.02431e-05
0.00468969
3.45421e-05
0.00466929
3.9321e-05
0.00464624
4.46148e-05
0.00462027
5.04725e-05
0.00459106
5.69592e-05
0.00455825
6.41587e-05
0.00452142
7.21766e-05
0.00448011
8.1143e-05
0.00443377
9.12168e-05
0.00438172
0.000102592
0.00432322
0.000115503
0.00425735
0.00013024
0.00418301
0.000147159
0.0040989
0.000166701
0.00400343
0.000189417
0.00389469
0.000215994
0.00377032
0.000247283
0.00362749
0.000284326
0.00346272
0.000328346
0.00327194
0.000380679
0.00305042
0.000442586
0.00279312
0.000514838
0.00249526
0.000596974
0.00215354
0.000686091
0.00176828
0.000775056
0.00134667
0.00085002
0.000907647
0.000887313
0.000488358
0.000849982
0.000152277
0.000683308
0.000314082
0.00482207
-8.49111e-08
0.00481933
1.46256e-06
0.00481606
3.09429e-06
0.00481222
4.78408e-06
0.00480781
6.51219e-06
0.00480282
8.25316e-06
0.00479725
9.98513e-06
0.0047911
1.16973e-05
0.00478437
1.33964e-05
0.00477705
1.51124e-05
0.00476911
1.68983e-05
0.00476051
1.88279e-05
0.00475115
2.09882e-05
0.00474095
2.34703e-05
0.00472976
2.63605e-05
0.00471743
2.97332e-05
0.00470378
3.36473e-05
0.00468862
3.81469e-05
0.00467176
4.3265e-05
0.00465297
4.90299e-05
0.00463204
5.54725e-05
0.00460873
6.26324e-05
0.00458278
7.05645e-05
0.00455391
7.93438e-05
0.0045218
8.90695e-05
0.00448609
9.98687e-05
0.00444636
0.0001119
0.00440215
0.00012536
0.00435288
0.000140487
0.0042979
0.000157569
0.00423644
0.000176959
0.0041676
0.000199089
0.00409027
0.000224487
0.00400316
0.000253807
0.00390472
0.000287864
0.00379304
0.000327668
0.00366586
0.000374469
0.0035204
0.00042978
0.00335338
0.000495366
0.00316093
0.000573134
0.00293868
0.000664833
0.00268208
0.000771438
0.00238701
0.000892048
0.00205098
0.00102212
0.00167516
0.00115087
0.0012674
0.00125778
0.000846798
0.00130791
0.000450036
0.00124674
0.000137652
0.000995691
0.000451734
0.00481946
6.15738e-06
0.00481272
8.20869e-06
0.00480544
1.03661e-05
0.00479762
1.2607e-05
0.00478923
1.49029e-05
0.00478026
1.72228e-05
0.00477071
1.95404e-05
0.00476056
2.18432e-05
0.00474981
2.41415e-05
0.00473845
2.64744e-05
0.00472644
2.89111e-05
0.00471372
3.15464e-05
0.00470022
3.44918e-05
0.00468582
3.7864e-05
0.00467041
4.17733e-05
0.00465383
4.63151e-05
0.00463591
5.1566e-05
0.00461647
5.75839e-05
0.00459532
6.44138e-05
0.00457226
7.20958e-05
0.00454706
8.06738e-05
0.00451949
9.02044e-05
0.00448929
0.000100764
0.00445617
0.000112456
0.00441983
0.000125415
0.00437989
0.000139812
0.00433592
0.000155861
0.00428746
0.000173824
0.00423393
0.000194018
0.00417467
0.000216827
0.00410891
0.000242719
0.00403574
0.000272263
0.00395407
0.000306156
0.00386262
0.000345256
0.00375986
0.000390625
0.00364396
0.000443572
0.00351272
0.000505705
0.00336355
0.000578951
0.00319338
0.000665531
0.00299873
0.000767789
0.00277577
0.000887788
0.00252073
0.00102648
0.00223048
0.00118229
0.00190378
0.00134882
0.00154298
0.00151168
0.0011567
0.00164406
0.000763688
0.00170092
0.000398653
0.00161178
0.000116791
0.00127755
0.000568526
0.00481604
1.76785e-05
0.00480403
2.02161e-05
0.00479151
2.28861e-05
0.00477845
2.56641e-05
0.00476484
2.85179e-05
0.00475065
3.14122e-05
0.00473587
3.43177e-05
0.00472049
3.72219e-05
0.00470449
4.0139e-05
0.00468785
4.31173e-05
0.00467052
4.62403e-05
0.00465245
4.96216e-05
0.00463354
5.33942e-05
0.00461371
5.76965e-05
0.00459282
6.266e-05
0.00457074
6.83987e-05
0.0045473
7.50048e-05
0.00452234
8.25502e-05
0.00449566
9.10923e-05
0.00446707
0.000100685
0.00443636
0.000111386
0.00440329
0.000123273
0.00436761
0.000136445
0.00432902
0.000151037
0.00428722
0.00016722
0.00424182
0.000185211
0.0041924
0.00020528
0.00413847
0.000227754
0.00407946
0.00025303
0.0040147
0.000281586
0.00394342
0.000314002
0.0038647
0.000350981
0.00377748
0.00039338
0.00368048
0.000442248
0.00357224
0.00049887
0.00345099
0.000564823
0.00331468
0.000642014
0.00316093
0.000732699
0.00298704
0.00083942
0.00279005
0.000964776
0.00256695
0.00111089
0.00231505
0.00127839
0.00203267
0.00146467
0.0017202
0.00166129
0.00138157
0.0018503
0.00102619
0.00199945
0.000671556
0.00205556
0.000347055
0.00193628
9.62076e-05
0.0015284
0.000664733
0.00481184
3.5671e-05
0.00479338
3.8673e-05
0.00477443
4.18356e-05
0.00475496
4.51328e-05
0.00473495
4.853e-05
0.00471437
5.19898e-05
0.00469321
5.54817e-05
0.00467144
5.8994e-05
0.00464903
6.25459e-05
0.00462595
6.61944e-05
0.00460216
7.0036e-05
0.00457758
7.42006e-05
0.00455213
7.88391e-05
0.00452572
8.41089e-05
0.00449822
9.01588e-05
0.0044695
9.7119e-05
0.00443941
0.000105096
0.00440779
0.000114175
0.00437445
0.000124426
0.00433922
0.000135919
0.00430188
0.00014873
0.00426219
0.000162956
0.00421991
0.000178724
0.00417475
0.0001962
0.00412637
0.000215597
0.00407441
0.000237179
0.00401842
0.000261271
0.0039579
0.000288268
0.00389229
0.000318646
0.0038209
0.000352976
0.00374295
0.000391948
0.00365754
0.000436393
0.0035636
0.00048732
0.0034599
0.000545949
0.003345
0.000613763
0.00321728
0.000692551
0.00307485
0.000784438
0.00291568
0.000891876
0.00273757
0.00101753
0.0025384
0.00116395
0.00231637
0.00133292
0.00207048
0.00152428
0.00180125
0.0017339
0.00151161
0.00195093
0.00120783
0.00215409
0.000900375
0.0023069
0.000604449
0.00235148
0.000338485
0.00220224
0.000117004
0.00174988
0.000781737
0.00480694
6.12375e-05
0.00478094
6.46758e-05
0.00475447
6.83059e-05
0.0047275
7.20995e-05
0.00470001
7.60207e-05
0.00467197
8.00312e-05
0.00464335
8.41004e-05
0.00461412
8.82191e-05
0.00458426
9.24118e-05
0.00455371
9.67441e-05
0.00452242
0.000101324
0.00449032
0.000106297
0.00445733
0.000111828
0.00442335
0.00011809
0.00438827
0.000125246
0.00435194
0.000133441
0.00431425
0.000142793
0.00427502
0.0001534
0.0042341
0.000165346
0.0041913
0.000178717
0.00414643
0.000193607
0.00409924
0.000210139
0.0040495
0.000228468
0.0039969
0.000248796
0.00394113
0.000271375
0.00388178
0.00029652
0.00381844
0.000324614
0.00375059
0.000356118
0.00367765
0.000391586
0.00359894
0.000431685
0.00351368
0.000477209
0.00342096
0.000529116
0.00331972
0.000588554
0.00320877
0.000656902
0.00308672
0.000735812
0.00295204
0.000827235
0.00280304
0.000933431
0.00263802
0.0010569
0.00245536
0.00120019
0.00225386
0.00136545
0.00203317
0.00155361
0.00179449
0.00176296
0.00154133
0.00198706
0.00128043
0.00221183
0.00102241
0.00241211
0.000781418
0.00254789
0.000572171
0.00256073
0.000400045
0.00237437
0.000243277
0.00190665
0.00102501
-2.12481e-05
2.12477e-05
4.60499e-10
-3.40158e-05
1.27663e-05
1.39086e-09
-1.28337e-05
-2.11842e-05
2.05368e-09
5.35107e-05
-6.63468e-05
2.44101e-09
0.000167632
-0.000114124
2.57941e-09
0.000326556
-0.000158926
2.53935e-09
0.000524006
-0.000197452
2.38466e-09
0.000752073
-0.00022807
2.18038e-09
0.00100232
-0.000250253
1.98467e-09
0.00126654
-0.000264213
1.85151e-09
0.00153717
-0.000270636
1.81533e-09
0.00180766
-0.000270491
1.89396e-09
0.00207254
-0.000264881
2.08588e-09
0.00232747
-0.00025494
2.37317e-09
0.00256923
-0.000241762
2.72252e-09
0.00279558
-0.00022635
3.09515e-09
0.00300516
-0.000209584
3.44577e-09
0.00319737
-0.000192212
3.73372e-09
0.00337221
-0.000174842
3.92087e-09
0.00353015
-0.000157946
3.96674e-09
0.00367201
-0.000141868
3.86058e-09
0.00379885
-0.000126844
3.45757e-09
0.00391186
-0.000113012
2.92374e-09
0.00401229
-0.000100431
2.53935e-09
0.00410139
-8.91008e-05
2.39722e-09
0.00418036
-7.89757e-05
2.56148e-09
0.00425034
-6.99804e-05
2.82632e-09
0.00431236
-6.20216e-05
3.11777e-09
0.00436735
-5.49973e-05
3.52022e-09
0.00441615
-4.88045e-05
4.0472e-09
0.00445949
-4.33441e-05
4.68406e-09
0.00449801
-3.85239e-05
5.39587e-09
0.00453227
-3.42607e-05
6.13793e-09
0.00456274
-3.04807e-05
6.86124e-09
0.00458985
-2.71196e-05
7.52083e-09
0.00461397
-2.4122e-05
8.08335e-09
0.0046354
-2.14402e-05
8.527e-09
0.00465442
-1.90338e-05
8.84445e-09
0.00467128
-1.68684e-05
9.0403e-09
0.00468619
-1.49148e-05
9.12893e-09
0.00469933
-1.31481e-05
9.13083e-09
0.00471086
-1.15472e-05
9.06916e-09
0.00472095
-1.00941e-05
8.96605e-09
0.00472971
-8.77342e-06
8.84099e-09
0.00473728
-7.57211e-06
8.71017e-09
0.00474375
-6.47895e-06
8.58516e-09
0.00474922
-5.48431e-06
8.47365e-09
0.0047538
-4.57976e-06
8.3806e-09
0.00475754
-3.75759e-06
8.30844e-09
-3.01012e-06
0.00476055
8.25745e-09
-1.71929e-05
3.84406e-05
-1.99568e-05
1.55302e-05
1.05197e-05
-5.16608e-05
8.39845e-05
-0.000139812
0.000202756
-0.000232896
0.000363587
-0.000319757
0.000560368
-0.000394233
0.000785602
-0.000453304
0.00103136
-0.000496011
0.00128994
-0.000522788
0.00155428
-0.000534977
0.00181824
-0.000534451
0.00207669
-0.000523337
0.00232558
-0.000503823
0.00256183
-0.000478017
0.00278333
-0.000447853
0.00298879
-0.000415037
0.00317759
-0.000381016
0.00334972
-0.00034697
0.00350559
-0.00031382
0.00364597
-0.000282242
0.00377182
-0.000252699
0.00388428
-0.000225466
0.00398451
-0.000200667
0.00407372
-0.000178306
0.00415304
-0.000158299
0.00422356
-0.000140503
0.00428628
-0.000124741
0.0043421
-0.000110815
0.00439182
-9.8526e-05
0.00443616
-8.76806e-05
0.00447573
-7.80994e-05
0.00451109
-6.96194e-05
0.00454271
-6.20963e-05
0.00457099
-5.54036e-05
0.0045963
-4.94322e-05
0.00461895
-4.40883e-05
0.00463921
-3.9292e-05
0.00465732
-3.49752e-05
0.00467348
-3.108e-05
0.00468789
-2.7557e-05
0.00470071
-2.43644e-05
0.00471208
-2.14663e-05
0.00472214
-1.88321e-05
0.004731
-1.64358e-05
0.00473878
-1.42549e-05
0.00474556
-1.22702e-05
0.00475145
-1.04649e-05
0.00475651
-8.82347e-06
-7.33033e-06
0.00476083
-7.24155e-06
4.56821e-05
6.93233e-06
1.35634e-06
5.23601e-05
-9.70886e-05
0.000138373
-0.000225824
0.000264848
-0.000359372
0.000428199
-0.000483108
0.000622795
-0.000588828
0.000841978
-0.000672487
0.0010788
-0.000732829
0.00132652
-0.00077051
0.00157898
-0.000787437
0.00183078
-0.000786254
0.00207741
-0.000769963
0.00231523
-0.000741651
0.00254152
-0.000704299
0.00275431
-0.000660647
0.0029524
-0.000613122
0.00313517
-0.000563792
0.00330255
-0.000514349
0.00345485
-0.000466122
0.00359271
-0.000420098
0.00371696
-0.000376954
0.0038286
-0.000337105
0.00392868
-0.000300746
0.00401827
-0.000267897
0.00409842
-0.000238451
0.00417013
-0.000212211
0.00423432
-0.000188929
0.00429183
-0.000168327
0.00434342
-0.000150119
0.00438977
-0.000134028
0.00443147
-0.000119796
0.00446904
-0.000107187
0.00450293
-9.5991e-05
0.00453355
-8.60234e-05
0.00456124
-7.71244e-05
0.00458631
-6.91568e-05
0.00460902
-6.20027e-05
0.00462961
-5.55617e-05
0.00464828
-4.97484e-05
0.00466521
-4.44896e-05
0.00468057
-3.97231e-05
0.0046945
-3.53958e-05
0.00470713
-3.14619e-05
0.00471857
-2.78826e-05
0.00472894
-2.46245e-05
0.00473833
-2.16587e-05
0.00474683
-1.89601e-05
0.00475451
-1.65053e-05
-1.42701e-05
0.00476145
7.27644e-06
3.84057e-05
3.84779e-05
-2.98451e-05
0.000104676
-0.000163287
0.000205736
-0.000326885
0.000340146
-0.000493781
0.000504401
-0.000647363
0.000693821
-0.000778249
0.000903069
-0.000881735
0.00112659
-0.000956348
0.00135896
-0.00100288
0.00159515
-0.00102363
0.00183071
-0.00102181
0.00206183
-0.00100108
0.0022854
-0.00096522
0.002499
-0.000917901
0.00270088
-0.00086252
0.00288986
-0.000802103
0.00306531
-0.000739241
0.00322703
-0.000676077
0.00337522
-0.000614304
0.00351031
-0.000555193
0.00363299
-0.00049963
0.00374405
-0.000448172
0.0038444
-0.000401095
0.00393496
-0.000358452
0.00401664
-0.000320132
0.00409033
-0.000285905
0.00415687
-0.000255468
0.00421702
-0.000228479
0.00427149
-0.000204581
0.00432089
-0.000183428
0.00436578
-0.00016469
0.00440666
-0.000148068
0.00444396
-0.000133292
0.00447806
-0.000120126
0.0045093
-0.000108363
0.00453797
-9.78242e-05
0.00456432
-8.83572e-05
0.00458859
-7.98308e-05
0.00461098
-7.21328e-05
0.00463166
-6.51676e-05
0.00465079
-5.88532e-05
0.00466851
-5.31194e-05
0.00468495
-4.79062e-05
0.00470023
-4.31618e-05
0.00471445
-3.88421e-05
0.0047277
-3.49088e-05
0.00474007
-3.13281e-05
0.00475163
-2.80688e-05
-2.50977e-05
0.00476246
2.162e-05
1.67857e-05
7.5928e-05
-8.41531e-05
0.000162267
-0.000249626
0.000276243
-0.00044086
0.000414927
-0.000632464
0.000575467
-0.000807904
0.000754726
-0.000957508
0.000949156
-0.00107617
0.00115492
-0.00116211
0.00136808
-0.00121604
0.00158484
-0.0012404
0.00180168
-0.00123865
0.00201545
-0.00121485
0.00222349
-0.00117326
0.00242363
-0.00111804
0.0026142
-0.00105309
0.00279402
-0.000981925
0.00296235
-0.000907571
0.00311884
-0.000832564
0.00326347
-0.000758932
0.00339649
-0.000688214
0.00351837
-0.000621507
0.00362971
-0.000559516
0.00373123
-0.000502616
0.0038237
-0.000450917
0.00390789
-0.000404323
0.00398457
-0.00036259
0.00405449
-0.000325385
0.00411833
-0.000292318
0.00417673
-0.000262977
0.00423026
-0.000236957
0.00427944
-0.000213872
0.00432473
-0.000193365
0.00436656
-0.000175115
0.00440527
-0.000158837
0.00444119
-0.000144283
0.0044746
-0.000131236
0.00450575
-0.00011951
0.00453487
-0.000108945
0.00456214
-9.94034e-05
0.00458774
-9.07684e-05
0.00461182
-8.29387e-05
0.00463453
-7.58278e-05
0.00465599
-6.93612e-05
0.0046763
-6.34749e-05
0.00469557
-5.8114e-05
0.00471389
-5.32307e-05
0.00473135
-4.8783e-05
0.00474801
-4.47315e-05
-4.10337e-05
0.00476395
4.36804e-05
-2.68947e-05
0.000123094
-0.000163567
0.000225339
-0.000351871
0.000344862
-0.000560383
0.000479434
-0.000767036
0.000627988
-0.000956457
0.000789611
-0.00111913
0.000962936
-0.00124949
0.00114601
-0.00134518
0.00133641
-0.00140645
0.00153146
-0.00143544
0.00172838
-0.00143557
0.00192452
-0.00141099
0.00211744
-0.00136618
0.00230505
-0.00130564
0.0024856
-0.00123365
0.00265777
-0.00115409
0.0028206
-0.0010704
0.00297352
-0.000985479
0.00311625
-0.000901665
0.00324882
-0.000820779
0.00337145
-0.00074414
0.00348456
-0.000672625
0.00358867
-0.000606732
0.0036844
-0.000546646
0.0037724
-0.000492317
0.00385332
-0.000443513
0.00392782
-0.000399885
0.00399651
-0.000361014
0.00405999
-0.000326452
0.00411878
-0.000295745
0.00417336
-0.000268458
0.00422418
-0.000244186
0.00427163
-0.000222563
0.00431605
-0.000203259
0.00435776
-0.000185988
0.00439702
-0.000170497
0.00443408
-0.00015657
0.00446915
-0.000144017
0.00450243
-0.000132679
0.00453408
-0.000122415
0.00456425
-0.000113108
0.00459307
-0.000104653
0.00462067
-9.6964e-05
0.00464716
-8.99633e-05
0.00467263
-8.35855e-05
0.00469718
-7.77736e-05
0.00472087
-7.24773e-05
0.00474379
-6.76495e-05
-6.3239e-05
0.00476599
7.62414e-05
-0.000103136
0.000178588
-0.000265913
0.00028577
-0.000459053
0.000397398
-0.000672011
0.000515362
-0.000885001
0.000641741
-0.00108284
0.000778172
-0.00125556
0.000925355
-0.00139667
0.00108291
-0.00150273
0.00124952
-0.00157306
0.00142319
-0.00160911
0.00160155
-0.00161393
0.00178207
-0.00159152
0.00196231
-0.00154642
0.00214002
-0.00148335
0.00231324
-0.00140687
0.00248038
-0.00132124
0.00264023
-0.00123025
0.00279191
-0.00113716
0.0029349
-0.00104466
0.00306897
-0.000954852
0.00319414
-0.000869315
0.00331064
-0.000789121
0.00341883
-0.000714918
0.00351918
-0.000646998
0.00361224
-0.000585375
0.00369858
-0.000529854
0.00377878
-0.000480089
0.00385342
-0.000435649
0.00392302
-0.000396056
0.0039881
-0.00036082
0.0040491
-0.000329465
0.00410646
-0.000301543
0.00416054
-0.000276646
0.00421169
-0.000254404
0.00426019
-0.000234493
0.00430632
-0.000216628
0.00435032
-0.000200562
0.00439238
-0.000186078
0.00443269
-0.000172994
0.00447143
-0.00016115
0.00450873
-0.000150408
0.00454472
-0.000140649
0.00457953
-0.000131773
0.00461326
-0.00012369
0.004646
-0.000116324
0.00467783
-0.00010961
0.00470884
-0.000103487
0.0047391
-9.79028e-05
0.00476866
-9.28008e-05
0.00477326
-1.27207e-05
8.27319e-09
0.00478561
-1.23627e-05
8.42734e-09
0.00479763
-1.20297e-05
8.60408e-09
0.00480934
-1.17122e-05
8.80323e-09
0.00482072
-1.1395e-05
9.02259e-09
0.00483177
-1.10578e-05
9.25657e-09
0.00484244
-1.06769e-05
9.4951e-09
0.00485266
-1.0229e-05
9.72316e-09
0.00486235
-9.69723e-06
9.92088e-09
0.00487141
-9.0775e-06
1.00646e-08
0.00487979
-8.38331e-06
1.01299e-08
0.00488742
-7.64663e-06
1.00958e-08
0.00489433
-6.91334e-06
9.9485e-09
0.00490055
-6.23407e-06
9.68466e-09
0.00490619
-5.65292e-06
9.31357e-09
0.00491138
-5.19797e-06
8.85549e-09
0.00491625
-4.87633e-06
8.33657e-09
0.00492092
-4.67536e-06
7.78345e-09
0.00492548
-4.56845e-06
7.21921e-09
0.00493
-4.52312e-06
6.6609e-09
0.0049345
-4.50848e-06
6.11911e-09
0.00493899
-4.50006e-06
5.59977e-09
0.00494347
-4.48182e-06
5.1065e-09
0.00494791
-4.44549e-06
4.64115e-09
0.0049523
-4.38877e-06
4.20311e-09
0.0049566
-4.31303e-06
3.78946e-09
0.00496082
-4.22147e-06
3.39607e-09
0.00496494
-4.1178e-06
3.01921e-09
0.00496894
-4.00546e-06
2.65659e-09
0.00497283
-3.8874e-06
2.30725e-09
0.00497659
-3.7659e-06
1.97081e-09
0.00498023
-3.64273e-06
1.64548e-09
0.00498375
-3.51919e-06
1.32882e-09
0.00498714
-3.39624e-06
1.01982e-09
0.00499042
-3.27456e-06
7.21534e-10
0.00499357
-3.15468e-06
4.42734e-10
0.00499661
-3.03695e-06
1.92901e-10
0.00499953
-2.92164e-06
-2.15686e-11
0.00500234
-2.80893e-06
-2.03106e-10
0.00500504
-2.6989e-06
-3.61999e-10
0.00500763
-2.59163e-06
-5.13096e-10
0.00501012
-2.48714e-06
-6.67483e-10
0.0050125
-2.38544e-06
-8.27369e-10
0.00501479
-2.28653e-06
-9.88936e-10
0.00501698
-2.1904e-06
-1.1541e-09
0.00501908
-2.09698e-06
-1.32902e-09
0.00502109
-2.00621e-06
-1.52533e-09
0.00502301
-1.91806e-06
-1.75574e-09
0.00502484
-1.83246e-06
-2.0207e-09
0.0050266
-1.74938e-06
-2.31624e-09
0.00502827
-1.6688e-06
-2.63087e-09
0.00502986
-1.59068e-06
-2.94649e-09
0.00503138
-1.515e-06
-3.2394e-09
0.00503282
-1.44172e-06
-3.49345e-09
0.0050342
-1.37082e-06
-3.69725e-09
0.00503551
-1.30223e-06
-3.84773e-09
0.00503675
-1.23592e-06
-3.9519e-09
0.00503792
-1.1718e-06
-4.03781e-09
0.00503903
-1.10981e-06
-4.14259e-09
0.00504009
-1.0499e-06
-4.28125e-09
0.00504109