/*--------------------------------*- C++ -*----------------------------------*\
| =========                 |                                                 |
| \\      /  F ield         | OpenFOAM: The Open Source CFD Toolbox           |
|  \\    /   O peration     | Version:  2412                                  |
|   \\  /    A nd           | Website:  www.openfoam.com                      |
|    \\/     M anipulation  |                                                 |
\*---------------------------------------------------------------------------*/
FoamFile
{
    version     2.0;
    format      ascii;
    arch        "LSB;label=32;scalar=64";
    class       volVectorField;
    location    "6.5";
    object      U;
}
// * * * * * * * * * * * * * * * * * * * * * * * * * * * * * * * * * * * * * //

dimensions      [0 1 -1 0 0 0 0];

internalField   nonuniform List<vector> 
63420
(
(0.100051 -1.11863e-07 0)
(0.0999649 4.54341e-06 0)
(0.0999668 1.34398e-05 0)
(0.0998449 2.13744e-05 0)
(0.0997175 2.32929e-05 0)
(0.0995985 1.98822e-05 0)
(0.0995072 1.43947e-05 0)
(0.0994478 9.67472e-06 0)
(0.0994082 6.89811e-06 0)
(0.0993779 5.92013e-06 0)
(0.0993494 6.10402e-06 0)
(0.0993186 6.84973e-06 0)
(0.0992842 7.77176e-06 0)
(0.0992462 8.68328e-06 0)
(0.0992051 9.52211e-06 0)
(0.0991613 1.02866e-05 0)
(0.0991152 1.09973e-05 0)
(0.0990671 1.16781e-05 0)
(0.0990171 1.23499e-05 0)
(0.0989654 1.30287e-05 0)
(0.0989121 1.37264e-05 0)
(0.0988569 1.44519e-05 0)
(0.0988001 1.52116e-05 0)
(0.0987414 1.60107e-05 0)
(0.0986809 1.68534e-05 0)
(0.0986185 1.77431e-05 0)
(0.098554 1.86831e-05 0)
(0.0984875 1.96761e-05 0)
(0.0984188 2.0725e-05 0)
(0.0983479 2.18327e-05 0)
(0.0982747 2.30021e-05 0)
(0.098199 2.42361e-05 0)
(0.0981209 2.55378e-05 0)
(0.0980402 2.69103e-05 0)
(0.0979569 2.83569e-05 0)
(0.0978708 2.98814e-05 0)
(0.0977819 3.14873e-05 0)
(0.09769 3.31788e-05 0)
(0.0975952 3.49603e-05 0)
(0.0974972 3.68363e-05 0)
(0.097396 3.88121e-05 0)
(0.0972915 4.08928e-05 0)
(0.0971835 4.30846e-05 0)
(0.097072 4.53939e-05 0)
(0.0969568 4.78276e-05 0)
(0.0968379 5.03939e-05 0)
(0.0967151 5.31014e-05 0)
(0.0965882 5.596e-05 0)
(0.096457 5.89809e-05 0)
(0.0963216 6.21766e-05 0)
(0.0961816 6.55606e-05 0)
(0.0960368 6.91481e-05 0)
(0.0958872 7.29564e-05 0)
(0.0957323 7.70125e-05 0)
(0.0955721 8.13753e-05 0)
(0.100051 -3.24077e-07 0)
(0.0999649 1.35269e-05 0)
(0.0999678 4.00033e-05 0)
(0.0998478 6.3695e-05 0)
(0.0997223 6.95214e-05 0)
(0.0996044 5.94879e-05 0)
(0.0995131 4.32344e-05 0)
(0.099453 2.92192e-05 0)
(0.0994125 2.0955e-05 0)
(0.0993812 1.80281e-05 0)
(0.0993519 1.85563e-05 0)
(0.0993205 2.07601e-05 0)
(0.0992857 2.34948e-05 0)
(0.0992475 2.62042e-05 0)
(0.0992062 2.87023e-05 0)
(0.0991623 3.09833e-05 0)
(0.0991161 3.3107e-05 0)
(0.099068 3.51441e-05 0)
(0.0990181 3.71557e-05 0)
(0.0989665 3.91894e-05 0)
(0.0989131 4.12803e-05 0)
(0.0988581 4.34544e-05 0)
(0.0988013 4.57314e-05 0)
(0.0987427 4.81264e-05 0)
(0.0986822 5.06517e-05 0)
(0.0986198 5.33179e-05 0)
(0.0985555 5.61342e-05 0)
(0.098489 5.91094e-05 0)
(0.0984204 6.22521e-05 0)
(0.0983496 6.55705e-05 0)
(0.0982765 6.90733e-05 0)
(0.098201 7.27692e-05 0)
(0.098123 7.66674e-05 0)
(0.0980424 8.07774e-05 0)
(0.0979592 8.51092e-05 0)
(0.0978733 8.96736e-05 0)
(0.0977845 9.44818e-05 0)
(0.0976929 9.95461e-05 0)
(0.0975982 0.000104879 0)
(0.0975004 0.000110495 0)
(0.0973994 0.000116409 0)
(0.0972951 0.000122637 0)
(0.0971873 0.000129196 0)
(0.0970761 0.000136107 0)
(0.0969612 0.00014339 0)
(0.0968426 0.000151068 0)
(0.09672 0.000159168 0)
(0.0965935 0.000167719 0)
(0.0964628 0.000176754 0)
(0.0963277 0.00018631 0)
(0.0961882 0.000196428 0)
(0.0960439 0.000207151 0)
(0.0958948 0.000218532 0)
(0.0957406 0.000230647 0)
(0.0955811 0.00024367 0)
(0.100051 -5.04278e-07 0)
(0.0999648 2.22352e-05 0)
(0.0999696 6.57633e-05 0)
(0.0998537 0.000104976 0)
(0.0997317 0.000114934 0)
(0.099616 9.87868e-05 0)
(0.0995248 7.22591e-05 0)
(0.0994633 4.92492e-05 0)
(0.0994209 3.55921e-05 0)
(0.0993877 3.06722e-05 0)
(0.0993568 3.14381e-05 0)
(0.0993243 3.49843e-05 0)
(0.0992887 3.94319e-05 0)
(0.09925 4.38627e-05 0)
(0.0992084 4.7965e-05 0)
(0.0991643 5.17239e-05 0)
(0.0991181 5.52337e-05 0)
(0.09907 5.86081e-05 0)
(0.0990201 6.19458e-05 0)
(0.0989685 6.53238e-05 0)
(0.0989152 6.87994e-05 0)
(0.0988603 7.24151e-05 0)
(0.0988036 7.62029e-05 0)
(0.0987451 8.01878e-05 0)
(0.0986848 8.43898e-05 0)
(0.0986226 8.88264e-05 0)
(0.0985584 9.35129e-05 0)
(0.0984921 9.84638e-05 0)
(0.0984237 0.000103693 0)
(0.0983531 0.000109215 0)
(0.0982802 0.000115043 0)
(0.0982049 0.000121192 0)
(0.0981271 0.000127677 0)
(0.0980468 0.000134514 0)
(0.0979639 0.000141719 0)
(0.0978783 0.000149311 0)
(0.0977898 0.000157308 0)
(0.0976985 0.000165729 0)
(0.0976041 0.000174597 0)
(0.0975067 0.000183934 0)
(0.0974061 0.000193766 0)
(0.0973023 0.000204118 0)
(0.097195 0.000215019 0)
(0.0970843 0.000226502 0)
(0.09697 0.000238602 0)
(0.0968519 0.000251356 0)
(0.09673 0.000264807 0)
(0.0966042 0.000279003 0)
(0.0964742 0.000293999 0)
(0.09634 0.000309853 0)
(0.0962013 0.000326631 0)
(0.0960581 0.000344404 0)
(0.0959101 0.000363254 0)
(0.0957571 0.000383303 0)
(0.095599 0.000404814 0)
(0.100051 -6.33389e-07 0)
(0.0999646 3.04949e-05 0)
(0.0999724 9.02164e-05 0)
(0.0998621 0.000144573 0)
(0.0997454 0.00015903 0)
(0.0996326 0.000137593 0)
(0.0995415 0.000101585 0)
(0.0994782 7.00642e-05 0)
(0.099433 5.11659e-05 0)
(0.0993972 4.41805e-05 0)
(0.099364 4.50121e-05 0)
(0.0993298 4.97137e-05 0)
(0.0992932 5.57134e-05 0)
(0.0992537 6.17421e-05 0)
(0.0992117 6.73595e-05 0)
(0.0991673 7.25339e-05 0)
(0.099121 7.73864e-05 0)
(0.0990729 8.20672e-05 0)
(0.099023 8.67084e-05 0)
(0.0989715 9.14136e-05 0)
(0.0989184 9.62602e-05 0)
(0.0988636 0.000101306 0)
(0.0988071 0.000106594 0)
(0.0987488 0.000112159 0)
(0.0986887 0.000118028 0)
(0.0986267 0.000124225 0)
(0.0985627 0.000130771 0)
(0.0984967 0.000137687 0)
(0.0984286 0.000144991 0)
(0.0983583 0.000152703 0)
(0.0982857 0.000160843 0)
(0.0982107 0.00016943 0)
(0.0981333 0.000178486 0)
(0.0980534 0.000188033 0)
(0.0979709 0.000198093 0)
(0.0978857 0.00020869 0)
(0.0977977 0.000219852 0)
(0.0977069 0.000231606 0)
(0.0976131 0.000243981 0)
(0.0975162 0.000257008 0)
(0.0974163 0.000270722 0)
(0.097313 0.000285161 0)
(0.0972065 0.000300362 0)
(0.0970965 0.000316371 0)
(0.096983 0.000333233 0)
(0.0968658 0.000351003 0)
(0.0967449 0.000369738 0)
(0.0966201 0.000389503 0)
(0.0964912 0.00041037 0)
(0.0963582 0.000432419 0)
(0.0962209 0.000455739 0)
(0.0960792 0.000480422 0)
(0.0959328 0.000506578 0)
(0.0957817 0.000534362 0)
(0.0956256 0.000564111 0)
(0.100051 -6.98302e-07 0)
(0.0999645 3.81564e-05 0)
(0.0999759 0.000112911 0)
(0.0998728 0.000181927 0)
(0.0997626 0.000201371 0)
(0.0996537 0.000175746 0)
(0.0995627 0.000131315 0)
(0.0994969 9.19245e-05 0)
(0.0994483 6.79849e-05 0)
(0.0994091 5.88373e-05 0)
(0.0993732 5.95054e-05 0)
(0.0993369 6.51139e-05 0)
(0.0992988 7.24516e-05 0)
(0.0992585 7.9914e-05 0)
(0.0992159 8.69278e-05 0)
(0.0991713 9.34342e-05 0)
(0.0991248 9.95709e-05 0)
(0.0990767 0.000105517 0)
(0.0990269 0.000111431 0)
(0.0989755 0.00011744 0)
(0.0989225 0.000123639 0)
(0.0988679 0.000130098 0)
(0.0988116 0.000136872 0)
(0.0987536 0.000144002 0)
(0.0986938 0.000151525 0)
(0.0986321 0.000159468 0)
(0.0985685 0.00016786 0)
(0.0985028 0.000176725 0)
(0.0984351 0.000186089 0)
(0.0983651 0.000195974 0)
(0.098293 0.000206407 0)
(0.0982185 0.000217412 0)
(0.0981416 0.000229016 0)
(0.0980622 0.000241247 0)
(0.0979802 0.000254135 0)
(0.0978956 0.00026771 0)
(0.0978082 0.000282005 0)
(0.097718 0.000297055 0)
(0.0976249 0.000312897 0)
(0.0975288 0.000329572 0)
(0.0974297 0.000347122 0)
(0.0973273 0.000365593 0)
(0.0972217 0.000385036 0)
(0.0971127 0.000405504 0)
(0.0970003 0.000427057 0)
(0.0968843 0.000449761 0)
(0.0967646 0.000473686 0)
(0.0966412 0.000498913 0)
(0.0965138 0.000525531 0)
(0.0963824 0.000553636 0)
(0.0962469 0.000583335 0)
(0.0961071 0.000614741 0)
(0.0959629 0.00064798 0)
(0.0958141 0.00068323 0)
(0.0956607 0.000720872 0)
(0.10005 -6.91493e-07 0)
(0.0999643 4.50974e-05 0)
(0.09998 0.000133484 0)
(0.0998851 0.000216587 0)
(0.0997825 0.00024161 0)
(0.0996779 0.000213113 0)
(0.0995871 0.000161524 0)
(0.0995186 0.000115032 0)
(0.0994661 8.62904e-05 0)
(0.099423 7.48651e-05 0)
(0.0993838 7.50965e-05 0)
(0.0993452 8.13148e-05 0)
(0.0993055 8.97347e-05 0)
(0.0992641 9.84338e-05 0)
(0.0992209 0.000106701 0)
(0.099176 0.000114439 0)
(0.0991294 0.000121789 0)
(0.0990812 0.000128949 0)
(0.0990316 0.000136099 0)
(0.0989803 0.000143383 0)
(0.0989276 0.00015091 0)
(0.0988732 0.000158763 0)
(0.0988172 0.000167004 0)
(0.0987595 0.000175683 0)
(0.0987001 0.000184841 0)
(0.0986388 0.000194514 0)
(0.0985755 0.000204733 0)
(0.0985103 0.000215528 0)
(0.098443 0.00022693 0)
(0.0983736 0.000238966 0)
(0.098302 0.000251667 0)
(0.098228 0.000265064 0)
(0.0981517 0.000279188 0)
(0.0980729 0.000294073 0)
(0.0979916 0.000309754 0)
(0.0979077 0.000326268 0)
(0.0978211 0.000343655 0)
(0.0977318 0.000361956 0)
(0.0976396 0.000381217 0)
(0.0975444 0.000401484 0)
(0.0974463 0.000422809 0)
(0.097345 0.000445246 0)
(0.0972406 0.000468856 0)
(0.0971328 0.000493701 0)
(0.0970217 0.000519853 0)
(0.0969072 0.000547386 0)
(0.0967891 0.000576385 0)
(0.0966673 0.000606942 0)
(0.0965417 0.00063916 0)
(0.0964123 0.000673149 0)
(0.096279 0.000709029 0)
(0.0961416 0.000746925 0)
(0.096 0.000786974 0)
(0.0958541 0.000829354 0)
(0.0957038 0.000874438 0)
(0.10005 -5.81496e-07 0)
(0.0999641 5.11651e-05 0)
(0.0999843 0.000151754 0)
(0.0998985 0.000248221 0)
(0.0998039 0.00027951 0)
(0.0997041 0.000249598 0)
(0.0996135 0.000192251 0)
(0.0995421 0.000139512 0)
(0.0994855 0.000106237 0)
(0.0994382 9.24095e-05 0)
(0.0993956 9.19033e-05 0)
(0.0993545 9.84033e-05 0)
(0.099313 0.000107622 0)
(0.0992705 0.000117338 0)
(0.0992267 0.000126699 0)
(0.0991814 0.000135555 0)
(0.0991346 0.000144038 0)
(0.0990865 0.000152354 0)
(0.0990369 0.000160697 0)
(0.0989859 0.000169222 0)
(0.0989334 0.00017805 0)
(0.0988794 0.000187272 0)
(0.0988238 0.000196959 0)
(0.0987665 0.000207165 0)
(0.0987074 0.000217938 0)
(0.0986465 0.000229319 0)
(0.0985838 0.000241343 0)
(0.0985191 0.000254045 0)
(0.0984524 0.000267459 0)
(0.0983835 0.000281619 0)
(0.0983125 0.000296559 0)
(0.0982392 0.000312316 0)
(0.0981636 0.000328925 0)
(0.0980856 0.000346426 0)
(0.0980051 0.000364859 0)
(0.0979221 0.000384267 0)
(0.0978364 0.000404696 0)
(0.097748 0.000426194 0)
(0.0976569 0.000448812 0)
(0.0975629 0.000472605 0)
(0.0974659 0.000497632 0)
(0.0973659 0.000523955 0)
(0.0972629 0.000551642 0)
(0.0971566 0.000580766 0)
(0.0970471 0.000611405 0)
(0.0969343 0.000643645 0)
(0.096818 0.00067758 0)
(0.0966982 0.000713312 0)
(0.0965748 0.000750953 0)
(0.0964477 0.000790624 0)
(0.0963169 0.000832455 0)
(0.0961822 0.000876577 0)
(0.0960437 0.000923124 0)
(0.0959011 0.000972248 0)
(0.0957546 0.00102423 0)
(0.0954054 8.6221e-05 -4.98807e-24)
(0.0952307 9.13144e-05 -5.07872e-24)
(0.0950462 9.66613e-05 -3.30192e-26)
(0.0948514 0.000102162 1.55812e-23)
(0.0946463 0.000107789 -5.16252e-24)
(0.0944307 0.000113452 -5.30482e-24)
(0.0942047 0.000119045 -1.63118e-23)
(0.0939686 0.000124519 1.6201e-23)
(0.0937227 0.000129897 5.53621e-24)
(0.0934671 0.000135281 0)
(0.0932017 0.000140858 5.71027e-24)
(0.092926 0.000146888 -5.80404e-24)
(0.092639 0.000153677 4.76865e-23)
(0.0923388 0.00016155 -1.0216e-22)
(0.0920233 0.000170809 5.45823e-23)
(0.0916896 0.000181716 4.41633e-23)
(0.0913344 0.000194474 5.66714e-23)
(0.0909543 0.000209231 -6.48337e-24)
(0.0905454 0.000226091 6.62027e-24)
(0.090104 0.00024514 -6.76541e-24)
(0.0896259 0.000266466 0)
(0.089107 0.000290187 7.08315e-24)
(0.0885429 0.000316473 -7.25729e-24)
(0.0879288 0.000345559 0)
(0.0872595 0.000377766 -7.64051e-24)
(0.0865292 0.000413508 0)
(0.0857311 0.00045331 -8.07737e-24)
(0.0848576 0.00049782 -1.35334e-22)
(0.0838995 0.00054783 1.43705e-22)
(0.0828465 0.000604308 -1.44272e-22)
(0.0816861 0.000668434 1.44053e-22)
(0.0804035 0.000741656 0)
(0.0789814 0.000825761 0)
(0.0773985 0.000922969 1.76897e-22)
(0.0756297 0.00103605 -1.66445e-22)
(0.0736441 0.00116848 0)
(0.0714042 0.00132457 0)
(0.068864 0.00150961 0)
(0.0659675 0.00172982 0)
(0.062647 0.00199208 0)
(0.0588222 0.00230292 0)
(0.0544028 0.00266649 0)
(0.0492942 0.00308082 0)
(0.0434124 0.0035317 0)
(0.0367131 0.00398353 -1.677e-23)
(0.0292397 0.0043667 -5.78373e-22)
(0.0211769 0.00456266 5.77506e-22)
(0.0129406 0.00438911 6.29615e-22)
(0.00556949 0.00356788 -6.28671e-22)
(0.00114171 0.00167069 0)
(0.0954151 0.000258131 -5.04233e-24)
(0.0952408 0.000273339 -1.02717e-23)
(0.0950568 0.000289279 -5.37044e-24)
(0.0948627 0.000305835 5.02134e-24)
(0.0946582 0.000322743 -5.23025e-24)
(0.0944433 0.000339713 3.74341e-23)
(0.0942179 0.00035649 -5.87881e-23)
(0.0939822 0.000372951 5.45408e-24)
(0.0937365 0.000389162 7.27027e-23)
(0.093481 0.000405426 -1.00417e-22)
(0.0932153 0.000422297 -9.79102e-23)
(0.092939 0.000440541 8.6275e-23)
(0.092651 0.000461069 0)
(0.0923497 0.000484832 6.01259e-24)
(0.0920328 0.00051273 -1.83615e-23)
(0.0916977 0.000545536 -2.07996e-22)
(0.0913411 0.000583852 1.99473e-22)
(0.0909597 0.000628119 -2.12047e-22)
(0.0905499 0.000678652 -1.98909e-23)
(0.0901077 0.000735712 6.78025e-24)
(0.0896293 0.000799573 0)
(0.0891105 0.000870598 -7.1015e-24)
(0.088547 0.000949301 -2.28698e-22)
(0.0879341 0.0010364 4.77832e-22)
(0.0872667 0.00113286 2.63378e-22)
(0.0865388 0.00123993 -4.96896e-22)
(0.0857439 0.00135917 5.34884e-22)
(0.0848745 0.00149255 -5.42757e-22)
(0.0839216 0.00164241 -8.612e-24)
(0.082875 0.00181167 0)
(0.0817225 0.00200385 0)
(0.0804499 0.00222326 0)
(0.0790401 0.00247524 0)
(0.0774728 0.00276641 -1.02489e-23)
(0.0757236 0.00310501 -6.96017e-22)
(0.0737631 0.00350135 -3.02763e-23)
(0.0715555 0.00396824 7.24406e-22)
(0.069057 0.0045213 7.91444e-22)
(0.0662148 0.00517895 -7.90396e-22)
(0.0629649 0.00596132 -2.6343e-23)
(0.0592317 0.00688744 -2.75924e-23)
(0.0549294 0.007969 -9.55782e-22)
(0.0499671 0.00919919 9.2424e-22)
(0.0442611 0.0105346 -3.16755e-23)
(0.0377596 0.0118681 1.68873e-23)
(0.0304843 0.0129919 -1.17624e-21)
(0.0225779 0.0135528 1.17591e-21)
(0.0143836 0.0130097 -2.4612e-21)
(0.00679575 0.0105473 2.42005e-21)
(0.00164366 0.00490349 -2.47941e-21)
(0.0954342 0.000428675 -2.98466e-23)
(0.0952609 0.000453911 -1.04428e-23)
(0.095078 0.000480403 4.03588e-23)
(0.0948852 0.000507927 -8.28922e-23)
(0.094682 0.00053603 1.77299e-22)
(0.0944683 0.000564261 -8.39575e-23)
(0.0942441 0.00059226 1.46292e-26)
(0.0940094 0.000619841 1.08795e-23)
(0.0937644 0.000647117 1.89466e-22)
(0.0935089 0.000674588 -1.78221e-22)
(0.0932429 0.000703151 0)
(0.0929656 0.000734053 1.49378e-26)
(0.0926761 0.000768766 0)
(0.0923727 0.000808831 2.06475e-22)
(0.0920535 0.000855703 -1.82e-22)
(0.0917159 0.000910635 -3.9175e-22)
(0.091357 0.000974612 2.14543e-23)
(0.0909735 0.00104836 -4.1218e-22)
(0.090562 0.00113241 1.33101e-23)
(0.0901188 0.00122722 -4.40603e-22)
(0.0896401 0.00133327 4.54098e-22)
(0.089122 0.00145119 -4.62229e-22)
(0.0885601 0.00158186 4.76398e-22)
(0.0879499 0.0017265 1.49858e-23)
(0.0872864 0.00188673 -1.5391e-23)
(0.0865638 0.00206465 1.58229e-23)
(0.0857757 0.00226288 -5.29796e-22)
(0.0849149 0.00248464 5.46103e-22)
(0.0839727 0.00273388 5.81055e-22)
(0.0829394 0.00301539 -5.63219e-22)
(0.0818033 0.00333499 0)
(0.080551 0.00369985 0)
(0.0791665 0.00411872 1.98168e-23)
(0.0776309 0.00460249 1.36678e-21)
(0.0759217 0.0051647 3.41542e-23)
(0.074012 0.00582218 -1.37691e-21)
(0.0718696 0.00659577 0)
(0.0694555 0.00751081 -2.41536e-23)
(0.0667228 0.0085969 1.68693e-21)
(0.0636153 0.00988612 -3.37219e-21)
(0.0600664 0.0114081 3.58486e-21)
(0.0559997 0.0131797 1.14702e-22)
(0.0513313 0.0151867 -1.87164e-21)
(0.0459778 0.0173541 -2.04146e-21)
(0.039872 0.0195027 2.10391e-21)
(0.0329908 0.0212902 1.61014e-24)
(0.0253917 0.0221373 -3.60407e-23)
(0.0172737 0.0211564 2.37701e-21)
(0.00922882 0.0170501 -2.30173e-21)
(0.00260818 0.00785385 -2.30063e-21)
(0.0954627 0.000597101 1.96731e-23)
(0.0952908 0.000632145 -9.97482e-24)
(0.0951096 0.000668995 2.01148e-26)
(0.0949186 0.000707217 1.02476e-23)
(0.0947174 0.000746319 -2.01866e-26)
(0.0945056 0.000785743 1.69913e-22)
(0.0942833 0.000825012 -3.20946e-22)
(0.0940502 0.000863894 1.72422e-22)
(0.0938063 0.000902561 -1.1026e-23)
(0.0935514 0.000941696 2.03542e-22)
(0.0932851 0.000982517 -1.81041e-22)
(0.0930069 0.0010267 -3.7512e-22)
(0.0927157 0.00107622 7.5712e-22)
(0.0924102 0.00113315 -7.71441e-22)
(0.0920883 0.00119944 7.86478e-22)
(0.091748 0.00127677 -7.89829e-22)
(0.0913864 0.00136648 -4.17982e-22)
(0.0910007 0.00146957 2.18883e-26)
(0.0905877 0.00158681 0)
(0.0901439 0.00171886 -4.29152e-22)
(0.0896657 0.00186645 4.42634e-22)
(0.0891494 0.0020305 0)
(0.0885909 0.00221231 -9.54493e-22)
(0.0879856 0.00241362 9.39014e-22)
(0.0873288 0.00263672 1.55375e-23)
(0.086615 0.00288457 -3.48832e-26)
(0.085838 0.00316082 1.64193e-23)
(0.084991 0.00346998 0)
(0.084066 0.00381753 -5.06909e-26)
(0.0830537 0.00421012 0)
(0.0819434 0.00465581 -1.86447e-23)
(0.080723 0.00516446 1.2612e-21)
(0.0793779 0.00574816 -1.26085e-21)
(0.0778914 0.00642182 -2.08717e-23)
(0.0762439 0.00720392 4.32542e-23)
(0.0744124 0.00811733 -1.49374e-21)
(0.0723699 0.00919022 1.44731e-21)
(0.0700845 0.0104565 2.45712e-23)
(0.0675184 0.0119555 -3.65399e-25)
(0.0646269 0.0137289 2.63554e-23)
(0.0613571 0.0158141 -1.81681e-21)
(0.0576463 0.0182294 3.67925e-21)
(0.0534211 0.0209491 -1.92128e-21)
(0.0485982 0.0238634 2.00199e-21)
(0.0430869 0.0267216 -2.09595e-21)
(0.0367959 0.0290554 -4.18947e-21)
(0.0296482 0.0300796 8.55226e-21)
(0.0216276 0.0285819 -4.33224e-21)
(0.0129184 0.0228284 0)
(0.00404076 0.0103921 -4.06401e-21)
(0.0955001 0.000762599 -9.75825e-24)
(0.0953301 0.00080709 -3.98197e-23)
(0.0951511 0.00085389 1.2065e-22)
(0.0949625 0.000902537 -1.62809e-22)
(0.0947639 0.000952438 7.16835e-23)
(0.0945549 0.00100294 1.04984e-23)
(0.0943352 0.0010535 -1.06656e-23)
(0.0941045 0.00110387 -2.54742e-26)
(0.0938625 0.00115428 1.10239e-23)
(0.0936088 0.0012056 -2.24062e-23)
(0.093343 0.00125932 -3.68274e-22)
(0.0930645 0.00131751 3.80068e-22)
(0.0927722 0.00138256 -3.70662e-22)
(0.0924649 0.00145698 3.82635e-22)
(0.092141 0.00154315 0)
(0.0917984 0.00164314 -2.48159e-26)
(0.0914349 0.00175859 0)
(0.0910479 0.00189078 -4.12012e-22)
(0.0906344 0.00204071 4.38784e-22)
(0.0901914 0.00220927 -1.3776e-23)
(0.0897155 0.00239747 -9.28072e-22)
(0.0892031 0.00260658 9.14371e-22)
(0.0886504 0.00283833 -1.48617e-23)
(0.0880532 0.003095 0)
(0.0874068 0.00337959 0)
(0.0867063 0.0036959 -1.06472e-21)
(0.0859458 0.0040486 1.03238e-21)
(0.085119 0.00444346 0)
(0.0842187 0.00488743 -3.54227e-23)
(0.0832364 0.00538893 0)
(0.0821629 0.00595816 1.89718e-23)
(0.0809874 0.00660751 -1.9572e-23)
(0.0796977 0.00735212 -2.03854e-23)
(0.0782799 0.00821058 2.10425e-23)
(0.0767181 0.00920577 1.38655e-21)
(0.0749947 0.0103659 -1.43104e-21)
(0.0730895 0.0117252 3.12077e-21)
(0.07098 0.0133247 -3.12285e-21)
(0.0686407 0.0152111 3.32993e-21)
(0.0660422 0.0174329 1.05741e-22)
(0.0631495 0.0200315 -3.51915e-21)
(0.0599183 0.0230224 -2.8288e-23)
(0.0562894 0.0263647 1.32965e-24)
(0.0521801 0.0299125 1.7864e-24)
(0.0474704 0.0333479 2.39351e-24)
(0.0419828 0.0360928 -6.20295e-23)
(0.03546 0.0371929 -2.85211e-23)
(0.027585 0.0351593 -2.70708e-23)
(0.0180138 0.0278415 0)
(0.00596594 0.0125067 8.51323e-24)
(0.0955462 0.000924349 -4.84243e-23)
(0.0953785 0.000977968 2.91286e-23)
(0.0952021 0.00103443 9.95314e-24)
(0.0950166 0.00109325 1.52618e-22)
(0.0948213 0.00115378 -1.52683e-22)
(0.0946158 0.0012153 1.57703e-22)
(0.0943996 0.00127725 -3.49936e-22)
(0.0941722 0.00133939 4.97733e-22)
(0.093933 0.00140205 -3.48551e-22)
(0.0936817 0.00146625 -3.61007e-22)
(0.0934176 0.00153376 -1.7833e-23)
(0.0931399 0.00160694 7.32252e-22)
(0.0928478 0.00168857 -7.70737e-22)
(0.0925401 0.00178152 3.59363e-22)
(0.0922155 0.00188853 3.87269e-22)
(0.0918724 0.00201197 4.04327e-22)
(0.0915087 0.00215376 -3.06365e-23)
(0.0911222 0.00231545 8.24081e-22)
(0.0907104 0.00249826 8.50038e-22)
(0.0902706 0.00270339 2.10127e-23)
(0.0897997 0.00293215 -9.00726e-22)
(0.0892943 0.0031862 0)
(0.0887511 0.00346777 0)
(0.0881661 0.00377974 -1.00256e-21)
(0.087535 0.00412585 9.88163e-22)
(0.0868534 0.00451076 1.06412e-21)
(0.086116 0.00494023 -1.0657e-21)
(0.0853172 0.00542124 0)
(0.0844506 0.00596222 1.19e-21)
(0.0835093 0.00657334 -1.1923e-21)
(0.0824854 0.00726685 0)
(0.0813702 0.00805754 -2.58397e-21)
(0.0801542 0.00896337 2.6079e-21)
(0.0788271 0.0100062 -2.15734e-23)
(0.077378 0.0112127 -2.8924e-21)
(0.0757956 0.0126151 2.91921e-21)
(0.0740683 0.0142521 0)
(0.0721853 0.0161689 3.29633e-21)
(0.0701361 0.0184152 -3.27606e-21)
(0.0679106 0.0210402 2.6688e-23)
(0.0654963 0.0240807 3.65048e-21)
(0.0628727 0.0275395 -7.33904e-21)
(0.06 0.0313498 5.81362e-24)
(0.0568002 0.0353219 2.63737e-23)
(0.0531257 0.0390718 3.84552e-21)
(0.0487087 0.0419336 4.20518e-24)
(0.0430914 0.0428408 -3.31241e-21)
(0.0355718 0.0401388 3.39565e-21)
(0.0250154 0.0314406 0)
(0.00866405 0.0138795 2.96847e-23)
(0.0956003 0.00108157 9.54094e-24)
(0.0954355 0.00114368 8.78093e-23)
(0.0952625 0.00120922 -7.83051e-23)
(0.0950807 0.00127768 1.00392e-23)
(0.0948895 0.00134837 1.54153e-22)
(0.0946884 0.00142057 -1.54406e-22)
(0.0944766 0.00149371 -3.30255e-22)
(0.0942536 0.00156759 5.21629e-24)
(0.0940187 0.00164265 -5.84834e-24)
(0.0937712 0.00172009 3.66193e-22)
(0.0935103 0.0018019 -3.57125e-22)
(0.0932354 0.00189074 7.57529e-22)
(0.0929455 0.00198966 -3.77319e-22)
(0.0926398 0.00210187 1.21819e-23)
(0.092317 0.00223037 1.24575e-23)
(0.0919759 0.00237782 8.23318e-22)
(0.0916149 0.00254639 -4.87615e-24)
(0.0912321 0.00273786 8.58904e-22)
(0.0908253 0.00295374 1.37147e-23)
(0.0903923 0.00319554 0)
(0.0899303 0.00346496 0)
(0.0894366 0.00376413 -9.61576e-22)
(0.0889078 0.00409585 9.64006e-22)
(0.0883408 0.0044637 0)
(0.0877317 0.00487224 1.62037e-23)
(0.0870765 0.00532711 0)
(0.086371 0.00583521 -1.1189e-21)
(0.0856105 0.00640489 2.27807e-21)
(0.0847898 0.00704618 -1.15925e-21)
(0.0839035 0.00777109 -2.45794e-21)
(0.0829458 0.00859404 -8.3642e-23)
(0.0819105 0.00953237 -8.87554e-23)
(0.0807916 0.0106069 -9.39112e-23)
(0.0795829 0.0118428 2.76877e-21)
(0.0782792 0.0132702 2.97808e-21)
(0.0768764 0.0149247 -2.98517e-21)
(0.0753726 0.016848 0)
(0.0737695 0.0190862 3.32497e-21)
(0.0720729 0.0216866 -3.33269e-21)
(0.0702927 0.0246896 -3.56316e-21)
(0.0684408 0.0281129 3.54358e-21)
(0.0665233 0.0319251 2.91097e-23)
(0.0645248 0.0360054 3.60917e-21)
(0.062381 0.0400881 -1.03624e-22)
(0.0599337 0.0436959 -3.57978e-21)
(0.0568558 0.0460737 2.73723e-23)
(0.0525447 0.046119 0)
(0.0460015 0.042244 -2.16735e-23)
(0.0351204 0.0322996 -9.87903e-22)
(0.0139697 0.013798 4.89488e-22)
(-0.000229123 0.000224291 0)
(-0.000607559 0.000143029 2.72188e-22)
(-0.000583044 -0.000203956 -2.72597e-22)
(0.000194706 -0.000669243 -2.44461e-22)
(0.00185078 -0.00116066 2.44829e-22)
(0.00436453 -0.00162155 -6.73812e-24)
(0.00764699 -0.00201803 0)
(0.0115682 -0.00233333 0)
(0.0159797 -0.00256214 0)
(0.020731 -0.00270679 0)
(0.0256795 -0.00277449 0)
(0.0306976 -0.00277531 0)
(0.035676 -0.00272066 0)
(0.0405253 -0.00262223 0)
(0.0451761 -0.00249117 0)
(0.0495776 -0.00233771 1.02332e-23)
(0.0536963 -0.00217078 -9.68114e-24)
(0.0575132 -0.0019979 0)
(0.0610217 -0.00182519 0)
(0.0642249 -0.00165734 -2.62239e-24)
(0.0671338 -0.00149781 2.6264e-24)
(0.0697645 -0.00134889 -1.57912e-24)
(0.0721365 -0.00121196 1.155e-25)
(0.0742716 -0.00108756 0)
(0.076192 -0.000975675 1.19203e-25)
(0.0779194 -0.000875819 0)
(0.0794747 -0.000787221 0)
(0.0808774 -0.000708933 0)
(0.082145 -0.000639929 1.78053e-25)
(0.0832935 -0.000579173 0)
(0.0843368 -0.00052567 -2.11217e-25)
(0.0852872 -0.000478499 2.26602e-25)
(0.0861556 -0.000436829 -2.40879e-25)
(0.0869512 -0.000399924 2.3082e-24)
(0.0876822 -0.000367144 -2.32319e-24)
(0.0883556 -0.000337937 -1.95208e-24)
(0.0889775 -0.000311833 4.24674e-24)
(0.0895533 -0.00028843 -2.30412e-24)
(0.0900876 -0.000267389 -3.00941e-25)
(0.0905845 -0.000248421 3.07006e-25)
(0.0910476 -0.000231282 0)
(0.0914801 -0.000215764 3.16351e-25)
(0.0918848 -0.000201692 -1.59941e-24)
(0.0922643 -0.000188913 1.60408e-24)
(0.0926209 -0.000177301 -3.24447e-25)
(0.0929565 -0.000166747 9.76457e-25)
(0.0932732 -0.000157155 -3.2501e-25)
(0.0935726 -0.000148445 -6.5303e-25)
(0.0938563 -0.000140542 3.266e-25)
(0.0941258 -0.000133371 -3.2623e-25)
(-0.000232403 0.00062558 -1.10051e-21)
(-0.000470336 0.000320426 -1.14689e-21)
(-0.000116265 -0.000713015 1.12993e-21)
(0.0010175 -0.00208151 -4.87335e-22)
(0.00299567 -0.0035258 4.89255e-22)
(0.00576877 -0.00487671 6.78469e-24)
(0.00923609 -0.00603653 -1.248e-23)
(0.0132664 -0.00695741 -3.23779e-22)
(0.0177177 -0.00762442 3.1333e-22)
(0.0224498 -0.00804468 -7.75001e-24)
(0.0273325 -0.0082395 -6.35548e-24)
(0.0322503 -0.00823843 1.39422e-22)
(0.0371054 -0.00807486 -1.39608e-22)
(0.0418184 -0.00778291 -8.26974e-23)
(0.0463283 -0.00739527 2.08351e-23)
(0.0505907 -0.00694178 6.20556e-23)
(0.0545767 -0.00644858 -5.70424e-25)
(0.0582708 -0.00593776 -9.91732e-25)
(0.061668 -0.0054272 0)
(0.0647726 -0.00493078 0)
(0.0675954 -0.00445864 0)
(0.0701521 -0.0040176 -1.29753e-25)
(0.0724613 -0.00361173 7.76498e-24)
(0.0745435 -0.00324274 -8.51178e-24)
(0.0764197 -0.00291057 8.52527e-24)
(0.0781106 -0.00261387 -3.96635e-24)
(0.0796358 -0.0023504 -9.84114e-24)
(0.0810137 -0.00211742 5.15164e-24)
(0.0822609 -0.00191191 -1.78512e-25)
(0.0833925 -0.00173084 -4.22046e-25)
(0.0844219 -0.00157129 2.11678e-25)
(0.0853608 -0.00143053 -7.04911e-25)
(0.0862195 -0.00130612 7.76709e-24)
(0.087007 -0.00119589 -1.67075e-23)
(0.0877311 -0.00109794 8.1424e-24)
(0.0883986 -0.00101064 -8.44011e-25)
(0.0890155 -0.000932604 2.85943e-25)
(0.0895869 -0.000862628 0)
(0.0901174 -0.000799705 -5.19793e-24)
(0.090611 -0.000742977 4.58658e-24)
(0.0910711 -0.000691715 4.41201e-24)
(0.0915009 -0.000645301 -6.00658e-24)
(0.0919033 -0.000603205 3.19695e-25)
(0.0922806 -0.000564978 1.61891e-24)
(0.0926352 -0.000530238 -2.92362e-24)
(0.0929691 -0.000498655 -3.25546e-25)
(0.0932841 -0.000469951 -2.28964e-24)
(0.093582 -0.000443879 -3.27734e-25)
(0.0938642 -0.000420213 6.56182e-25)
(0.0941322 -0.00039873 9.78987e-25)
(-0.000235341 0.000869486 -1.18567e-21)
(-0.000162809 0.000235057 1.22292e-21)
(0.000861082 -0.00147311 -1.18627e-21)
(0.00266781 -0.00368929 -1.69916e-23)
(0.00524213 -0.00600358 -8.2893e-25)
(0.00849225 -0.00815391 -8.6467e-22)
(0.0122932 -0.00999349 8.93168e-22)
(0.0165139 -0.0114501 6.81174e-22)
(0.0210266 -0.0125018 -9.25589e-23)
(0.0257119 -0.0131607 -1.03361e-21)
(0.0304625 -0.0134609 8.65757e-22)
(0.0351862 -0.0134494 -3.80795e-22)
(0.0398062 -0.0131792 -4.59287e-24)
(0.0442616 -0.0127043 0)
(0.0485061 -0.0120764 1.48564e-22)
(0.0525073 -0.0113429 -3.75534e-23)
(0.0562448 -0.0105453 -1.08933e-22)
(0.0597086 -0.0097188 2.28883e-24)
(0.0628974 -0.00889201 0)
(0.0658169 -0.00808718 0)
(0.068478 -0.00732068 1.50806e-23)
(0.0708953 -0.00660366 -1.45693e-23)
(0.0730859 -0.00594276 -1.13686e-23)
(0.0750682 -0.005341 1.20042e-23)
(0.0768608 -0.00479843 4.10828e-25)
(0.0784822 -0.00431303 -4.10097e-25)
(0.0799499 -0.00388136 4.19235e-25)
(0.0812803 -0.00349907 -1.25689e-23)
(0.0824882 -0.0031614 1.30159e-23)
(0.0835874 -0.00286349 -1.37399e-23)
(0.0845899 -0.00260068 1.46531e-23)
(0.0855063 -0.00236859 4.79748e-25)
(0.0863462 -0.00216326 1.69115e-23)
(0.0871179 -0.00198118 -3.40107e-23)
(0.0878285 -0.00181929 1.81739e-23)
(0.0884845 -0.00167492 9.93799e-24)
(0.0890915 -0.00154579 -8.77237e-24)
(0.0896543 -0.00142996 0)
(0.0901773 -0.00132577 -1.58793e-26)
(0.0906642 -0.00123181 0)
(0.0911185 -0.00114689 1.02315e-23)
(0.0915431 -0.00106998 -9.6143e-24)
(0.0919408 -0.00100022 6.54883e-25)
(0.0923139 -0.00093685 -8.69316e-27)
(0.0926646 -0.000879249 5.23932e-24)
(0.0929949 -0.000826872 -9.8455e-24)
(0.0933066 -0.000779251 5.25342e-24)
(0.0936014 -0.000735978 -2.62851e-24)
(0.0938807 -0.000696677 1.97581e-24)
(0.0941458 -0.000660966 6.53585e-25)
(-0.000141873 0.000851417 -2.66866e-21)
(0.000465976 -0.000250335 0)
(0.00241195 -0.00261476 2.47618e-21)
(0.00514498 -0.00557955 -4.81607e-21)
(0.00852013 -0.00862497 2.35523e-21)
(0.0123875 -0.0114332 9.24191e-22)
(0.0166032 -0.0138264 -9.70865e-22)
(0.021045 -0.0157159 7.35889e-22)
(0.0256085 -0.0170753 -1.3754e-21)
(0.0302041 -0.0179212 6.29224e-22)
(0.0347568 -0.0182982 7.94934e-24)
(0.0392048 -0.0182672 7.39093e-25)
(0.043499 -0.0178968 4.6715e-24)
(0.0476018 -0.017257 -2.30954e-22)
(0.0514861 -0.016415 2.23852e-22)
(0.0551342 -0.0154327 4.94728e-24)
(0.0585364 -0.0143643 -1.70476e-24)
(0.0616898 -0.013256 8.45266e-23)
(0.0645974 -0.0121457 -8.41656e-23)
(0.0672668 -0.0110629 -1.08897e-24)
(0.0697088 -0.0100297 0)
(0.0719369 -0.00906102 2.26092e-25)
(0.0739657 -0.00816626 0)
(0.0758111 -0.00734967 5.99523e-25)
(0.0774887 -0.00661178 1.45839e-25)
(0.0790141 -0.0059502 4.13981e-25)
(0.0804019 -0.00536059 -3.07545e-23)
(0.0816659 -0.00483735 3.04365e-23)
(0.0828187 -0.00437429 0)
(0.0838721 -0.00396504 -1.64984e-23)
(0.0848363 -0.0036034 1.71369e-23)
(0.0857207 -0.00328357 0)
(0.0865337 -0.00300026 -4.68682e-26)
(0.0872824 -0.00274875 -1.93162e-23)
(0.0879736 -0.0025249 3.85919e-23)
(0.0886129 -0.00232512 -3.88506e-23)
(0.0892053 -0.00214632 3.96522e-23)
(0.0897555 -0.00198583 -4.02966e-23)
(0.0902675 -0.00184141 2.02855e-23)
(0.0907447 -0.00171112 1.03876e-23)
(0.0911903 -0.00159331 -9.08425e-24)
(0.0916073 -0.00148659 -6.65484e-25)
(0.091998 -0.00138976 -1.05649e-23)
(0.0923649 -0.00130178 2.25113e-23)
(0.0927099 -0.00122177 -1.06174e-23)
(0.093035 -0.001149 9.29852e-27)
(0.0933418 -0.0010828 6.58826e-25)
(0.093632 -0.00102261 -7.23046e-27)
(0.093907 -0.000967897 -6.55334e-25)
(0.0941679 -0.000918112 1.31023e-24)
(0.000151641 0.000537082 -2.4337e-24)
(0.00165428 -0.00121774 -2.51803e-23)
(0.0047192 -0.00418965 -2.33918e-23)
(0.00851775 -0.00774517 -2.16218e-23)
(0.0127723 -0.011334 -3.83741e-23)
(0.0172837 -0.0146213 -1.16966e-24)
(0.0219041 -0.0174168 1.5038e-23)
(0.0265322 -0.0196223 -1.42821e-23)
(0.0310958 -0.0212078 -1.24615e-23)
(0.0355422 -0.0221915 1.19059e-21)