/*--------------------------------*- C++ -*----------------------------------*\
| =========                 |                                                 |
| \\      /  F ield         | OpenFOAM: The Open Source CFD Toolbox           |
|  \\    /   O peration     | Version:  2412                                  |
|   \\  /    A nd           | Website:  www.openfoam.com                      |
|    \\/     M anipulation  |                                                 |
\*---------------------------------------------------------------------------*/
FoamFile
{
    version     2.0;
    format      ascii;
    arch        "LSB;label=32;scalar=64";
    class       volVectorField;
    location    "6.5";
    object      vorticity;
}
// * * * * * * * * * * * * * * * * * * * * * * * * * * * * * * * * * * * * * //

dimensions      [0 0 -1 0 0 0 0];

internalField   nonuniform List<vector> 
63420
(
(0 0 1.57774e-05)
(0 0 4.74437e-05)
(0 0 4.97103e-05)
(0 0 5.86827e-06)
(0 0 -5.33743e-05)
(0 0 -9.16669e-05)
(0 0 -9.75954e-05)
(0 0 -8.10722e-05)
(0 0 -5.71707e-05)
(0 0 -3.59771e-05)
(0 0 -2.10847e-05)
(0 0 -1.21013e-05)
(0 0 -7.27012e-06)
(0 0 -4.90717e-06)
(0 0 -3.84895e-06)
(0 0 -3.42013e-06)
(0 0 -3.2728e-06)
(0 0 -3.24246e-06)
(0 0 -3.25723e-06)
(0 0 -3.28758e-06)
(0 0 -3.32183e-06)
(0 0 -3.3552e-06)
(0 0 -3.38608e-06)
(0 0 -3.41382e-06)
(0 0 -3.43869e-06)
(0 0 -3.46054e-06)
(0 0 -3.47926e-06)
(0 0 -3.49421e-06)
(0 0 -3.50498e-06)
(0 0 -3.51102e-06)
(0 0 -3.51222e-06)
(0 0 -3.50838e-06)
(0 0 -3.49946e-06)
(0 0 -3.48523e-06)
(0 0 -3.46538e-06)
(0 0 -3.4394e-06)
(0 0 -3.4066e-06)
(0 0 -3.36631e-06)
(0 0 -3.31781e-06)
(0 0 -3.26044e-06)
(0 0 -3.19351e-06)
(0 0 -3.11626e-06)
(0 0 -3.02769e-06)
(0 0 -2.92651e-06)
(0 0 -2.81101e-06)
(0 0 -2.67911e-06)
(0 0 -2.52847e-06)
(0 0 -2.35727e-06)
(0 0 -2.16578e-06)
(0 0 -1.95919e-06)
(0 0 -1.74945e-06)
(0 0 -1.54553e-06)
(0 0 -1.29517e-06)
(0 0 -6.65812e-07)
(0 4.9495e-23 1.65216e-06)
(0 0 4.69979e-05)
(0 0 0.00014114)
(0 0 0.000148267)
(0 0 1.85096e-05)
(0 0 -0.000157241)
(0 0 -0.000271086)
(0 0 -0.000288994)
(0 0 -0.00024025)
(0 0 -0.00016953)
(0 0 -0.000106766)
(0 0 -6.26466e-05)
(0 0 -3.60272e-05)
(0 0 -2.17085e-05)
(0 0 -1.47021e-05)
(0 0 -1.15612e-05)
(0 0 -1.02868e-05)
(0 0 -9.84861e-06)
(0 0 -9.76045e-06)
(0 0 -9.80848e-06)
(0 0 -9.90388e-06)
(0 0 -1.00113e-05)
(0 0 -1.01168e-05)
(0 0 -1.02155e-05)
(0 0 -1.03055e-05)
(0 0 -1.03865e-05)
(0 0 -1.0458e-05)
(0 0 -1.05193e-05)
(0 0 -1.05695e-05)
(0 0 -1.06075e-05)
(0 0 -1.06325e-05)
(0 0 -1.06437e-05)
(0 0 -1.06405e-05)
(0 0 -1.06222e-05)
(0 0 -1.0588e-05)
(0 0 -1.05371e-05)
(0 0 -1.04682e-05)
(0 0 -1.03799e-05)
(0 0 -1.02707e-05)
(0 0 -1.01386e-05)
(0 0 -9.98191e-06)
(0 0 -9.79821e-06)
(0 0 -9.58486e-06)
(0 0 -9.3385e-06)
(0 0 -9.05494e-06)
(0 0 -8.72891e-06)
(0 0 -8.3541e-06)
(0 0 -7.92363e-06)
(0 0 -7.43202e-06)
(0 0 -6.87988e-06)
(0 0 -6.28219e-06)
(0 0 -5.67403e-06)
(0 0 -5.08304e-06)
(0 0 -4.36074e-06)
(0 0 -2.54508e-06)
(0 4.99724e-23 4.17063e-06)
(0 0 7.7308e-05)
(0 0 0.000231776)
(0 0 0.000245059)
(0 0 3.44713e-05)
(0 0 -0.000252455)
(0 0 -0.000439274)
(0 0 -0.000469729)
(0 0 -0.00039114)
(0 0 -0.000276305)
(0 0 -0.000174164)
(0 0 -0.000102284)
(0 0 -5.88865e-05)
(0 0 -3.55343e-05)
(0 0 -2.41062e-05)
(0 0 -1.89841e-05)
(0 0 -1.69082e-05)
(0 0 -1.61979e-05)
(0 0 -1.60599e-05)
(0 0 -1.61449e-05)
(0 0 -1.63075e-05)
(0 0 -1.64898e-05)
(0 0 -1.66693e-05)
(0 0 -1.68378e-05)
(0 0 -1.69926e-05)
(0 0 -1.71325e-05)
(0 0 -1.72569e-05)
(0 0 -1.73644e-05)
(0 0 -1.74538e-05)
(0 0 -1.75238e-05)
(0 0 -1.7573e-05)
(0 0 -1.76001e-05)
(0 0 -1.76042e-05)
(0 0 -1.75839e-05)
(0 0 -1.75381e-05)
(0 0 -1.74652e-05)
(0 0 -1.73635e-05)
(0 0 -1.72308e-05)
(0 0 -1.70648e-05)
(0 0 -1.68626e-05)
(0 0 -1.66213e-05)
(0 0 -1.6337e-05)
(0 0 -1.60054e-05)
(0 0 -1.56209e-05)
(0 0 -1.51768e-05)
(0 0 -1.46644e-05)
(0 0 -1.40738e-05)
(0 0 -1.33939e-05)
(0 0 -1.2616e-05)
(0 0 -1.17413e-05)
(0 0 -1.07943e-05)
(0 0 -9.83306e-06)
(0 0 -8.90808e-06)
(0 0 -7.8011e-06)
(0 0 -5.02644e-06)
(0 2.95082e-22 5.36461e-06)
(0 0 0.000106084)
(0 0 0.000317493)
(0 0 0.000339379)
(0 0 5.65392e-05)
(0 0 -0.000332771)
(0 0 -0.000588452)
(0 0 -0.000632544)
(0 0 -0.000528136)
(0 0 -0.000373703)
(0 0 -0.000235823)
(0 0 -0.000138602)
(0 0 -7.98381e-05)
(0 0 -4.81955e-05)
(0 0 -3.2706e-05)
(0 0 -2.57656e-05)
(0 0 -2.29575e-05)
(0 0 -2.20026e-05)
(0 0 -2.18248e-05)
(0 0 -2.19499e-05)
(0 0 -2.21804e-05)
(0 0 -2.24376e-05)
(0 0 -2.26914e-05)
(0 0 -2.29307e-05)
(0 0 -2.31516e-05)
(0 0 -2.33526e-05)
(0 0 -2.35325e-05)
(0 0 -2.36899e-05)
(0 0 -2.3823e-05)
(0 0 -2.39301e-05)
(0 0 -2.40097e-05)
(0 0 -2.40601e-05)
(0 0 -2.40799e-05)
(0 0 -2.40675e-05)
(0 0 -2.40211e-05)
(0 0 -2.39388e-05)
(0 0 -2.38183e-05)
(0 0 -2.36568e-05)
(0 0 -2.34513e-05)
(0 0 -2.31983e-05)
(0 0 -2.28936e-05)
(0 0 -2.25323e-05)
(0 0 -2.21085e-05)
(0 0 -2.1615e-05)
(0 0 -2.10424e-05)
(0 0 -2.03798e-05)
(0 0 -1.96138e-05)
(0 0 -1.87301e-05)
(0 0 -1.77175e-05)
(0 0 -1.6578e-05)
(0 0 -1.53453e-05)
(0 0 -1.41003e-05)
(0 0 -1.29237e-05)
(0 0 -1.15716e-05)
(0 0 -8.20992e-06)
(0 -1.93805e-22 4.67516e-06)
(0 0 0.000132677)
(0 0 0.000396709)
(0 0 0.000431035)
(0 0 8.79602e-05)
(0 0 -0.00039175)
(0 0 -0.000710899)
(0 0 -0.000770364)
(0 0 -0.000645811)
(0 0 -0.000458037)
(0 0 -0.000289413)
(0 0 -0.00017016)
(0 0 -9.79482e-05)
(0 0 -5.902e-05)
(0 0 -3.99524e-05)
(0 0 -3.14091e-05)
(0 0 -2.79569e-05)
(0 0 -2.67893e-05)
(0 0 -2.65801e-05)
(0 0 -2.67447e-05)
(0 0 -2.70394e-05)
(0 0 -2.73673e-05)
(0 0 -2.76913e-05)
(0 0 -2.7998e-05)
(0 0 -2.82826e-05)
(0 0 -2.85432e-05)
(0 0 -2.87782e-05)
(0 0 -2.89859e-05)
(0 0 -2.91643e-05)
(0 0 -2.93117e-05)
(0 0 -2.9426e-05)
(0 0 -2.95055e-05)
(0 0 -2.95484e-05)
(0 0 -2.95528e-05)
(0 0 -2.95166e-05)
(0 0 -2.94375e-05)
(0 0 -2.93127e-05)
(0 0 -2.91391e-05)
(0 0 -2.89131e-05)
(0 0 -2.86304e-05)
(0 0 -2.82862e-05)
(0 0 -2.78747e-05)
(0 0 -2.73888e-05)
(0 0 -2.68196e-05)
(0 0 -2.61565e-05)
(0 0 -2.53861e-05)
(0 0 -2.44929e-05)
(0 0 -2.34601e-05)
(0 0 -2.22749e-05)
(0 0 -2.09407e-05)
(0 0 -1.94996e-05)
(0 0 -1.80553e-05)
(0 0 -1.67298e-05)
(0 0 -1.53168e-05)
(0 0 -1.18791e-05)
(0 9.56818e-23 1.88661e-06)
(0 0 0.00015646)
(0 0 0.000468227)
(0 0 0.000520258)
(0 0 0.000131991)
(0 0 -0.000423466)
(0 0 -0.000799737)
(0 0 -0.000876986)
(0 0 -0.000739432)
(0 0 -0.000526079)
(0 0 -0.000332864)
(0 0 -0.000195631)
(0 0 -0.00011231)
(0 0 -6.73145e-05)
(0 0 -4.52498e-05)
(0 0 -3.53577e-05)
(0 0 -3.13614e-05)
(0 0 -3.00131e-05)
(0 0 -2.97763e-05)
(0 0 -2.99733e-05)
(0 0 -3.03218e-05)
(0 0 -3.07092e-05)
(0 0 -3.10929e-05)
(0 0 -3.14574e-05)
(0 0 -3.17972e-05)
(0 0 -3.211e-05)
(0 0 -3.2394e-05)
(0 0 -3.26473e-05)
(0 0 -3.28677e-05)
(0 0 -3.30534e-05)
(0 0 -3.32023e-05)
(0 0 -3.33125e-05)
(0 0 -3.33819e-05)
(0 0 -3.34085e-05)
(0 0 -3.33898e-05)
(0 0 -3.33234e-05)
(0 0 -3.32061e-05)
(0 0 -3.30345e-05)
(0 0 -3.28046e-05)
(0 0 -3.25117e-05)
(0 0 -3.21504e-05)
(0 0 -3.17142e-05)
(0 0 -3.11952e-05)
(0 0 -3.05836e-05)
(0 0 -2.98675e-05)
(0 0 -2.90325e-05)
(0 0 -2.80614e-05)
(0 0 -2.69361e-05)
(0 0 -2.5643e-05)
(0 0 -2.41871e-05)
(0 0 -2.26186e-05)
(0 0 -2.10639e-05)
(0 0 -1.97e-05)
(0 0 -1.84418e-05)
(0 0 -1.55774e-05)
(0 4.72105e-22 -2.98189e-06)
(0 0 0.000177082)
(0 0 0.000531348)
(0 0 0.000607451)
(0 0 0.000191176)
(0 0 -0.000423555)
(0 0 -0.000850023)
(0 0 -0.000948005)
(0 0 -0.000805656)
(0 0 -0.000575545)
(0 0 -0.000364691)
(0 0 -0.000214037)
(0 0 -0.000122231)
(0 0 -7.25267e-05)
(0 0 -4.81076e-05)
(0 0 -3.71438e-05)
(0 0 -3.27079e-05)
(0 0 -3.12075e-05)
(0 0 -3.09409e-05)
(0 0 -3.11563e-05)
(0 0 -3.15407e-05)
(0 0 -3.19693e-05)
(0 0 -3.2395e-05)
(0 0 -3.28006e-05)
(0 0 -3.31803e-05)
(0 0 -3.35313e-05)
(0 0 -3.38517e-05)
(0 0 -3.41394e-05)
(0 0 -3.43925e-05)
(0 0 -3.46088e-05)
(0 0 -3.47863e-05)
(0 0 -3.4923e-05)
(0 0 -3.50167e-05)
(0 0 -3.50652e-05)
(0 0 -3.5066e-05)
(0 0 -3.50163e-05)
(0 0 -3.49131e-05)
(0 0 -3.47525e-05)
(0 0 -3.45304e-05)
(0 0 -3.42416e-05)
(0 0 -3.38805e-05)
(0 0 -3.34402e-05)
(0 0 -3.29122e-05)
(0 0 -3.22864e-05)
(0 0 -3.15503e-05)
(0 0 -3.06887e-05)
(0 0 -2.9684e-05)
(0 0 -2.85176e-05)
(0 0 -2.71761e-05)
(0 0 -2.56663e-05)
(0 0 -2.40452e-05)
(0 0 -2.24608e-05)
(0 0 -2.11586e-05)
(0 0 -2.02744e-05)
(0 0 -1.87884e-05)
(0 -9.24012e-23 -1.00335e-05)
(-1.49458e-23 8.03703e-21 -2.0826e-06)
(-1.59403e-22 7.89705e-21 -6.13746e-06)
(3.82559e-23 -2.13911e-22 -1.23292e-05)
(3.32973e-23 -2.35981e-20 -2.10317e-05)
(-1.01059e-22 8.07984e-21 -3.23001e-05)
(4.00579e-22 7.93299e-21 -4.56876e-05)
(-8.60917e-22 2.30983e-20 -6.01332e-05)
(3.3474e-22 -2.35025e-20 -7.39695e-05)
(6.76825e-22 -7.54915e-21 -8.50964e-05)
(-9.75623e-22 -3.95281e-24 -9.13103e-05)
(-9.80734e-22 -7.58116e-21 -9.07165e-05)
(8.60716e-22 7.18037e-21 -8.21211e-05)
(5.76837e-22 -5.94059e-20 -6.52976e-05)
(-1.04608e-21 1.27734e-19 -4.10564e-05)
(3.39303e-22 -6.88553e-20 -1.1106e-05)
(-1.36414e-21 -5.19481e-20 2.22505e-05)
(2.49328e-21 -6.61121e-20 5.64883e-05)
(-1.98958e-21 7.83909e-21 8.92747e-05)
(-2.16325e-22 -7.29299e-21 0.000118715)
(9.09785e-23 7.31105e-21 0.00014353)
(-3.38381e-24 -1.38404e-22 0.000163051)
(-8.60841e-23 -7.06254e-21 0.00017715)
(-2.14601e-21 7.14118e-21 0.000186111)
(4.51672e-21 1.38104e-23 0.000190463)
(1.33089e-21 6.9495e-21 0.000190831)
(-3.51701e-21 -5.75905e-24 0.000187827)
(5.07352e-21 8.15917e-21 0.000181966)
(-5.79802e-21 1.05245e-19 0.000173626)
(5.86206e-22 -1.13088e-19 0.000163028)
(-2.14051e-21 1.03672e-19 0.000150235)
(2.08166e-21 -1.04907e-19 0.000135154)
(5.20287e-23 1.4387e-21 0.000117514)
(-6.78299e-23 -1.76913e-21 9.68137e-05)
(2.77627e-21 -1.00035e-19 7.21521e-05)
(-9.11997e-21 9.72089e-20 4.18635e-05)
(-3.47019e-22 -1.66298e-21 2.718e-06)
(6.67945e-21 1.46086e-23 -5.17063e-05)
(7.28385e-21 1.59305e-23 -0.000134174)
(-7.26055e-21 -1.58795e-23 -0.000269507)
(-2.41533e-22 -5.28256e-25 -0.000504182)
(-2.52514e-22 -5.52274e-25 -0.000920978)
(-8.73061e-21 -1.90947e-23 -0.00165883)
(8.42676e-21 1.84302e-23 -0.00293562)
(-2.79877e-22 1.67084e-22 -0.0050681)
(-6.61379e-24 8.6309e-21 -0.00847883)
(-2.70516e-20 5.55733e-20 -0.0136777)
(2.60443e-20 -7.34686e-20 -0.0212032)
(-6.29787e-21 -1.0503e-20 -0.0315099)
(6.91186e-21 2.88017e-20 -0.044797)
(-2.26612e-20 -6.32784e-21 -0.0606791)
(-2.75961e-22 8.05522e-21 -6.57268e-06)
(-1.02531e-22 1.58355e-20 -1.85549e-05)
(3.43975e-22 7.69719e-21 -3.68885e-05)
(-9.55351e-22 -7.91368e-21 -6.26953e-05)
(1.77112e-21 7.52955e-21 -9.61624e-05)
(-5.86989e-22 -5.40887e-20 -0.000136011)
(-1.60985e-22 8.59832e-20 -0.000179151)
(-6.71177e-23 -9.05727e-21 -0.000220707)
(2.24794e-21 -9.90277e-20 -0.000254539)
(-2.28838e-21 1.40053e-19 -0.000274194)
(-7.12201e-22 1.27858e-19 -0.000274115)
(5.06794e-22 -1.15223e-19 -0.000250793)
(-4.25089e-22 7.98656e-22 -0.000203544)
(3.02149e-21 -7.33478e-21 -0.000134714)
(-2.30986e-21 2.45955e-20 -4.92717e-05)
(-5.88288e-21 2.43143e-19 4.60668e-05)
(1.20475e-21 -2.29044e-19 0.000143963)
(-5.43628e-21 2.45595e-19 0.000237542)
(-2.58196e-22 1.97657e-20 0.000321309)
(-4.14472e-21 -7.48132e-21 0.000391516)
(4.36782e-21 1.56186e-22 0.000446192)
(-4.36288e-21 9.42321e-21 0.000484952)
(1.75003e-21 2.14547e-19 0.000508581)
(5.01582e-21 -4.55388e-19 0.000518566)
(4.10448e-21 -2.17705e-19 0.00051668)
(-6.12173e-21 4.4096e-19 0.000504638)
(2.38949e-21 -4.41142e-19 0.000483879)
(-5.49195e-22 4.52918e-19 0.000455426)
(3.54359e-21 1.26836e-21 0.000419843)
(-3.99361e-21 -1.04621e-22 0.000377222)
(-1.34132e-21 -2.93361e-24 0.000327182)
(0 0 0.000268818)
(1.98525e-22 1.03028e-22 0.000200515)
(1.19013e-20 1.30838e-20 0.000119452)
(-1.463e-20 3.75746e-19 2.04725e-05)
(-1.68284e-20 -2.46705e-20 -0.000106354)
(1.75545e-20 -3.71987e-19 -0.0002807)
(2.58813e-20 -3.22938e-19 -0.000541577)
(-7.26729e-21 3.45667e-19 -0.000964726)
(-3.36974e-20 2.12016e-21 -0.00169169)
(3.32638e-20 1.86795e-20 -0.00297406)
(-4.27753e-20 2.5082e-19 -0.00523308)
(2.17997e-20 -2.613e-19 -0.00912788)
(-1.97379e-20 1.59419e-20 -0.0156144)
(2.19941e-20 8.62916e-21 -0.0259658)
(-6.44523e-20 1.24113e-19 -0.0417163)
(6.44164e-20 -1.21418e-19 -0.0644827)
(-1.01168e-19 9.17009e-20 -0.0956112)
(9.75942e-20 -1.02508e-19 -0.135627)
(-2.09035e-20 -7.05035e-22 -0.181844)
(1.29547e-23 4.7674e-20 -1.10923e-05)
(-7.7974e-23 1.50275e-20 -3.05485e-05)
(3.45347e-22 -6.23975e-20 -6.04194e-05)
(-7.08082e-22 1.24213e-19 -0.000102559)
(1.57901e-21 -2.66183e-19 -0.000157334)
(6.01855e-22 1.26737e-19 -0.000222782)
(-2.66386e-21 -9.49889e-22 -0.000294057)
(1.67595e-21 -1.73621e-20 -0.000363468)
(1.1026e-21 -2.60044e-19 -0.000421286)
(1.30815e-21 2.48075e-19 -0.000457268)
(-9.35002e-22 -1.77345e-21 -0.000462568)
(-4.56776e-21 -1.76765e-23 -0.000431567)
(7.26573e-21 -2.00961e-21 -0.000363119)
(-5.14511e-21 -2.54526e-19 -0.000260867)
(6.35492e-21 2.31832e-19 -0.000132605)
(-1.06723e-20 4.60607e-19 1.1111e-05)
(-5.41399e-21 -1.27687e-20 0.000158702)
(-3.24709e-21 4.74553e-19 0.000299349)
(3.93206e-22 -1.44224e-20 0.00042435)
(-1.13711e-20 4.62178e-19 0.000527737)
(1.12086e-20 -4.80267e-19 0.000606338)
(-7.78362e-21 4.5979e-19 0.00065942)
(3.64672e-22 -4.78522e-19 0.000688071)
(5.57588e-21 -9.288e-21 0.000694463)
(-2.71818e-21 1.40559e-20 0.000681191)
(5.90305e-21 -8.81247e-21 0.000650744)
(-1.78871e-20 4.3384e-19 0.000605149)
(1.57676e-20 -4.63212e-19 0.000545763)
(1.71229e-20 -4.30787e-19 0.000473185)
(-1.36483e-20 4.33552e-19 0.000387244)
(-1.17098e-21 -5.59016e-21 0.000286977)
(1.21314e-20 -1.31288e-22 0.00017054)
(-1.40071e-20 -2.6292e-20 3.48737e-05)
(5.02916e-20 -7.95693e-19 -0.000125146)
(1.76758e-20 5.78157e-20 -0.000318651)
(-6.85076e-20 7.51254e-19 -0.000562965)
(4.30794e-21 -1.33789e-20 -0.00089214)
(-1.22896e-20 -5.72135e-21 -0.00137342)
(1.09864e-19 -6.3797e-19 -0.00213696)
(-2.0332e-19 1.25704e-18 -0.00342529)
(2.07348e-19 -1.2563e-18 -0.0056681)
(7.86366e-20 8.95455e-20 -0.00958223)
(-1.62236e-19 5.54631e-19 -0.0162852)
(-1.73505e-19 3.85973e-19 -0.0273925)
(1.63183e-19 -4.5884e-19 -0.0450514)
(-2.4824e-20 2.15725e-20 -0.071849)
(6.14329e-20 -1.94438e-20 -0.110513)
(1.82376e-19 -1.13531e-19 -0.163279)
(-1.97647e-19 1.77813e-19 -0.230829)
(-2.8295e-20 -4.58269e-20 -0.303629)
(3.95766e-22 -3.1424e-20 -1.55443e-05)
(-3.8045e-22 1.59148e-20 -4.19094e-05)
(7.65279e-22 -1.88268e-22 -8.254e-05)
(-7.00707e-22 -1.56515e-20 -0.00013995)
(-1.06439e-21 -1.58488e-21 -0.000214738)
(3.17182e-21 -2.45606e-19 -0.000304478)
(-4.18548e-21 4.65656e-19 -0.00040299)
(1.96892e-21 -2.51011e-19 -0.000500362)
(-1.95288e-21 1.51184e-20 -0.000583991)
(4.49207e-21 -2.74832e-19 -0.000640549)
(-5.66222e-21 2.51318e-19 -0.000658481)
(-2.69032e-21 4.78907e-19 -0.000630388)
(8.03649e-21 -9.70337e-19 -0.00055465)
(-1.01044e-20 9.7027e-19 -0.000435852)
(1.43953e-20 -9.66532e-19 -0.000283959)
(-7.74704e-21 9.59543e-19 -0.000112532)
(-8.32747e-21 4.87399e-19 6.352e-05)
(-7.48021e-22 -4.11491e-21 0.000230224)
(4.90897e-21 4.25544e-21 0.00037628)
(-5.59529e-21 4.5174e-19 0.000493878)
(-4.943e-21 -4.74935e-19 0.000578698)
(1.60783e-20 1.385e-20 0.000629517)
(-3.04605e-20 9.14177e-19 0.000647394)
(2.16686e-20 -9.18235e-19 0.000634733)
(2.37994e-21 -4.99895e-21 0.00059443)
(-1.06128e-20 -8.31936e-23 0.000529201)
(1.59641e-20 -1.39246e-20 0.000441114)
(-5.22535e-21 1.34023e-22 0.000331322)
(-5.77067e-21 -5.23284e-23 0.000199935)
(5.46372e-21 2.12567e-22 4.59833e-05)
(-3.8974e-21 9.23027e-22 -0.00013262)
(5.95836e-20 -8.216e-19 -0.000339235)
(-5.32078e-20 8.46066e-19 -0.000578983)
(-1.73343e-20 -2.84258e-22 -0.000859979)
(2.00518e-20 -1.01893e-20 -0.00119613)
(-9.58915e-20 7.61281e-19 -0.00161321)
(1.14352e-19 -7.6572e-19 -0.00216118)
(-2.50027e-20 2.77221e-21 -0.00293811)
(1.75848e-20 -6.69233e-23 -0.00413315)
(4.17066e-20 7.50524e-21 -0.00609793)
(-2.57453e-19 5.80829e-19 -0.00945375)
(3.74887e-19 -1.18258e-18 -0.0152341)
(-1.8273e-19 6.01099e-19 -0.0250457)
(2.77112e-19 -4.6492e-19 -0.0412073)
(-2.66997e-19 5.49744e-19 -0.0668062)
(-6.41637e-19 5.70606e-19 -0.105588)
(1.21616e-18 -1.21648e-18 -0.161558)
(-5.9873e-19 6.17666e-19 -0.238016)
(2.1061e-20 -2.5155e-21 -0.335619)
(5.10981e-21 -3.91795e-20 -0.42953)
(-7.82668e-22 1.60086e-20 -1.97441e-05)
(-1.82625e-22 6.11055e-20 -5.26826e-05)
(1.80782e-21 -1.85795e-19 -0.000103509)
(-9.37387e-22 2.49564e-19 -0.000175197)
(-5.2274e-22 -1.10649e-19 -0.000268583)
(9.19843e-23 -1.47144e-20 -0.000381052)
(-4.85401e-22 1.55928e-20 -0.000505619)
(3.31264e-21 -2.05517e-22 -0.000630914)
(-3.20208e-21 -1.52307e-20 -0.000742355)
(-5.63573e-21 3.44797e-20 -0.000824429)
(-5.61178e-21 4.87187e-19 -0.000863604)
(1.80748e-20 -5.06662e-19 -0.000851116)
(-2.24936e-20 4.73228e-19 -0.000784875)
(1.82398e-20 -4.92513e-19 -0.000669985)
(-3.27953e-21 3.71144e-21 -0.000517802)
(1.19588e-20 5.67576e-23 -0.000343898)
(4.5585e-21 4.04426e-21 -0.000165472)
(-2.51354e-21 4.61486e-19 1.26664e-06)
(1.85941e-20 -4.99936e-19 0.000143114)
(6.98343e-21 2.83049e-20 0.00025074)
(-4.2317e-20 9.54465e-19 0.000318723)
(2.43065e-20 -9.58262e-19 0.000345099)
(1.11525e-20 2.36914e-20 0.00033043)
(-1.95858e-20 -2.53184e-22 0.000276727)
(1.28151e-20 1.04508e-20 0.000186478)
(-3.3373e-20 9.22807e-19 6.18658e-05)
(2.62474e-20 -9.15187e-19 -9.57721e-05)
(3.07667e-21 1.04344e-20 -0.000286278)
(1.06529e-20 2.81252e-20 -0.000510842)
(-1.2483e-20 -5.95941e-22 -0.000772076)
(1.12926e-21 -1.34917e-20 -0.00107409)
(-4.03135e-20 1.37189e-20 -0.00142273)
(3.82792e-20 1.30991e-20 -0.00182622)
(-3.61754e-21 -2.68748e-20 -0.00229679)
(7.60162e-20 -7.71994e-19 -0.00285432)
(-6.58643e-20 7.95518e-19 -0.00353425)
(2.61369e-19 -1.53931e-18 -0.00440394)
(-2.36693e-19 1.55471e-18 -0.00559422)
(2.98998e-19 -1.4652e-18 -0.00735662)
(7.81669e-20 1.36875e-19 -0.0101584)
(-3.47643e-19 1.40016e-18 -0.0148253)
(-1.33208e-19 -2.47297e-20 -0.0227318)
(1.80634e-20 3.73685e-22 -0.0360169)
(-2.0509e-20 5.69258e-22 -0.0577795)
(6.0544e-20 1.80762e-21 -0.0921892)
(2.9622e-20 1.48403e-20 -0.144435)
(-1.26588e-19 5.61708e-21 -0.220354)
(7.23397e-20 5.50528e-21 -0.325203)
(-1.85449e-22 -3.48149e-22 -0.460158)
(4.03068e-20 7.13936e-22 -0.570916)
(-5.92177e-22 7.69985e-20 -2.36142e-05)
(1.70666e-21 -4.70108e-20 -6.37866e-05)
(-1.87294e-21 -1.66637e-20 -0.00012504)
(4.52495e-21 -2.30204e-19 -0.000210473)
(-1.90654e-21 2.32222e-19 -0.000321215)
(1.54302e-21 -2.29789e-19 -0.000454799)
(-1.04566e-20 5.06879e-19 -0.000604056)
(1.02559e-20 -7.10528e-19 -0.000757016)
(-6.44166e-21 5.03132e-19 -0.000898127)
(-4.32829e-21 4.90012e-19 -0.0010107)
(-2.09495e-21 3.45932e-21 -0.00108005)
(2.17674e-20 -9.63231e-19 -0.00109651)
(-1.77316e-20 1.00377e-18 -0.00105756)
(2.89441e-21 -4.73035e-19 -0.00096839)
(9.97023e-21 -4.75178e-19 -0.000840951)
(2.07865e-20 -4.67939e-19 -0.000691812)
(-3.02581e-21 7.24268e-21 -0.000539432)
(3.4422e-20 -9.71506e-19 -0.000401361)
(2.44462e-20 -9.33278e-19 -0.000292119)
(6.8671e-21 2.17987e-20 -0.000222284)
(-2.06781e-20 9.7073e-19 -0.000198455)
(-2.18644e-20 -8.78334e-21 -0.000223715)
(1.33459e-20 9.70761e-21 -0.000298617)
(-4.56238e-20 9.43193e-19 -0.000422332)
(3.5436e-20 -9.59749e-19 -0.000593681)
(6.8759e-20 -9.21869e-19 -0.000811986)
(-7.00707e-20 9.53879e-19 -0.00107768)
(1.63468e-20 -2.17014e-20 -0.00139269)
(6.15248e-20 -9.23109e-19 -0.00176069)
(-9.15681e-20 9.47812e-19 -0.0021872)
(4.74294e-21 1.34142e-20 -0.00267976)
(-1.96972e-19 1.74161e-18 -0.00324825)
(1.75136e-19 -1.80925e-18 -0.00390567)
(5.29344e-20 6.68247e-20 -0.00467008)
(-2.56373e-19 1.65757e-18 -0.00556892)
(2.31795e-19 -1.73083e-18 -0.00664857)
(-3.45318e-20 -3.77277e-21 -0.00799409)
(4.7256e-19 -1.5694e-18 -0.00976813)
(-4.39859e-19 1.6235e-18 -0.0122822)
(-7.3524e-20 -7.91886e-20 -0.0161166)
(6.98306e-19 -1.38199e-18 -0.022303)
(-1.21942e-18 2.86439e-18 -0.0325715)
(-7.79751e-20 -1.60872e-19 -0.0496371)
(-1.05611e-19 -1.24461e-19 -0.0774791)
(8.13568e-19 -1.26435e-18 -0.121561)
(4.43039e-20 7.05417e-20 -0.188992)
(-9.55998e-19 8.55293e-19 -0.288672)
(9.36461e-19 -9.4199e-19 -0.430856)
(1.07776e-20 3.25346e-20 -0.622346)
(1.05532e-20 -3.05701e-21 -0.756119)
(6.28161e-22 -1.61096e-20 -2.73343e-05)
(1.43991e-21 -1.36807e-19 -7.82659e-05)
(-1.61589e-21 1.23508e-19 -0.000151289)
(-1.4446e-21 -1.75673e-20 -0.000250191)
(5.07508e-21 -2.28871e-19 -0.000376741)
(-4.62111e-21 2.35889e-19 -0.00052903)
(-4.51074e-21 4.75978e-19 -0.000700315)
(-5.48194e-21 -1.97408e-20 -0.00087887)
(2.63868e-21 -4.68823e-21 -0.00104917)
(1.34389e-20 -5.07837e-19 -0.00119435)
(-1.01467e-20 4.75555e-19 -0.00129939)
(1.33714e-20 -1.00688e-18 -0.00135421)
(-1.33826e-21 5.03951e-19 -0.00135586)
(-4.09319e-21 -1.92245e-20 -0.00130919)
(-5.42485e-21 -2.32243e-20 -0.00122594)
(2.28188e-20 -9.90448e-19 -0.00112262)
(-1.45397e-21 -1.98427e-20 -0.00101781)
(2.09866e-20 -1.00957e-18 -0.0009294)
(-6.01778e-21 -7.31921e-21 -0.000872357)
(-1.79174e-22 1.29977e-22 -0.000857894)
(1.24542e-20 9.17322e-21 -0.000893355)
(-4.70932e-20 9.74768e-19 -0.00098265)
(4.08147e-20 -9.968e-19 -0.0011272)
(1.38807e-20 9.06961e-21 -0.00132706)
(-9.62847e-21 -1.53156e-20 -0.00158187)
(-6.69944e-21 1.07558e-20 -0.00189172)
(-6.77112e-20 9.45327e-19 -0.00225765)
(1.46728e-19 -1.93203e-18 -0.00268199)
(-6.8525e-20 1.01048e-18 -0.00316842)
(-1.78543e-19 1.87284e-18 -0.00372197)
(-3.13337e-20 -4.53499e-20 -0.0043488)
(4.74906e-21 -2.45088e-20 -0.00505614)
(-6.97681e-20 -5.4061e-20 -0.00585241)
(2.44889e-19 -1.88214e-18 -0.00674832)
(3.92313e-19 -1.74479e-18 -0.00776019)
(-3.45562e-19 1.8351e-18 -0.00891843)
(-3.71477e-20 -6.00905e-20 -0.010287)
(4.65468e-19 -1.68031e-18 -0.0120043)
(-4.03948e-19 1.78446e-18 -0.0143619)
(-6.76424e-19 1.58882e-18 -0.0179435)
(5.66242e-19 -1.68255e-18 -0.0238464)
(8.59189e-20 -1.23323e-20 -0.033998)
(9.08923e-19 -1.50698e-18 -0.0515466)
(1.43939e-19 1.23693e-19 -0.081278)
(-1.06663e-18 1.48623e-18 -0.130003)
(-1.85774e-20 -4.41775e-20 -0.206967)
(3.76916e-20 5.91715e-22 -0.32506)
(-3.82646e-20 1.7102e-20 -0.506046)
(-5.70916e-19 5.97616e-19 -0.791135)
(5.61533e-19 -6.07584e-19 -1.09875)
(-9.75481e-21 -2.6969e-21 0.00417934)
(-7.99211e-21 1.30251e-21 -0.00531667)
(7.42487e-21 6.58698e-21 -0.0127698)
(-8.55212e-21 -7.65569e-21 -0.0183101)
(8.98594e-21 1.11549e-22 -0.0220893)
(-2.51226e-22 2.06078e-21 -0.0243123)
(-1.10204e-22 -6.71386e-23 -0.0252155)
(-2.95205e-21 6.45643e-24 -0.0250463)
(2.86212e-21 -6.25973e-24 -0.0240487)
(-7.0925e-23 1.5512e-25 -0.0224522)
(-5.82718e-23 1.27446e-25 -0.0204623)
(1.28073e-21 -2.80108e-24 -0.0182551)
(-1.28485e-21 2.81009e-24 -0.0159748)
(-7.62518e-22 1.6677e-24 -0.0137336)
(1.96614e-22 -1.02625e-22 -0.011614)
(3.47658e-21 6.45158e-20 -0.00967201)
(-2.58925e-21 -6.02183e-20 -0.00794041)
(-5.50164e-24 -9.67997e-23 -0.0064334)
(-9.47151e-25 2.61908e-23 -0.00515042)
(-2.00738e-21 -8.26308e-20 -0.00408012)
(2.01282e-21 8.27624e-20 -0.00320386)
(-1.408e-21 -8.40514e-20 -0.00249876)
(2.47355e-22 5.70203e-21 -0.00194023)
(-7.99911e-23 1.39542e-25 -0.00150358)
(2.16484e-22 6.05947e-21 -0.0011663)
(-2.01824e-23 1.27397e-24 -0.000907933)
(-9.30197e-23 2.03443e-25 -0.000711112)
(4.88347e-23 -1.88494e-24 -0.000561432)
(9.89102e-23 6.58199e-21 -0.000447256)
(-4.10735e-24 3.8989e-24 -0.000359477)
(-8.03183e-23 -6.7866e-21 -0.000291152)
(6.80952e-23 6.87488e-21 -0.000237102)
(6.56722e-24 -6.97959e-21 -0.000193541)
(1.69529e-22 6.35749e-20 -0.000157745)
(-2.47942e-22 -6.37035e-20 -0.000127772)
(-1.87313e-22 -5.05165e-20 -0.000102251)
(4.05374e-22 1.08653e-19 -8.02106e-05)
(-2.18776e-22 -5.82198e-20 -6.09581e-05)
(-9.06624e-23 -7.39299e-21 -4.39912e-05)
(8.21737e-23 7.42007e-21 -2.89356e-05)
(4.28593e-23 -1.82719e-25 -1.55034e-05)
(-2.62613e-23 7.54432e-21 -3.46538e-06)
(-1.03723e-22 -3.79601e-20 7.36848e-06)
(1.20997e-22 3.80468e-20 1.71626e-05)
(-5.48167e-23 -7.66442e-21 2.60676e-05)
(4.81095e-23 2.31703e-20 3.4235e-05)
(-2.66504e-23 -7.7143e-21 4.18381e-05)
(-3.99275e-23 -1.56169e-20 4.91017e-05)
(2.17802e-23 7.82449e-21 5.63403e-05)
(-9.36435e-24 -7.87617e-21 6.39777e-05)
(-1.43676e-20 2.24948e-20 0.0107055)
(1.0777e-20 -1.93698e-20 -0.0175924)
(-5.6269e-21 -9.42213e-21 -0.0395997)
(-1.22647e-20 -3.19741e-21 -0.0557228)
(1.15602e-20 4.33198e-21 -0.0665113)
(-8.46171e-21 5.43052e-21 -0.0726582)
(6.54948e-21 1.59489e-21 -0.0749221)
(-3.07124e-20 -8.23411e-20 -0.0740698)
(3.5738e-20 7.37431e-20 -0.0708419)
(-1.17232e-20 -5.14643e-22 -0.0659224)
(6.578e-21 -5.99985e-21 -0.059915)
(3.69458e-20 1.7436e-19 -0.05333)
(-4.10804e-20 -1.71105e-19 -0.0465803)
(-3.77803e-20 -2.22265e-19 -0.0399842)
(3.67924e-21 -2.34476e-20 -0.0337727)
(3.5536e-20 2.43695e-19 -0.0280998)
(-1.34942e-21 -3.62457e-21 -0.0230545)
(-1.2135e-21 -9.30144e-21 -0.0186721)
(1.11057e-24 -9.89564e-24 -0.0149469)
(2.4418e-23 -5.34046e-26 -0.0118428)
(1.18101e-22 7.64686e-25 -0.00930379)
(-3.28944e-22 -5.62771e-21 -0.007262)
(1.6364e-20 3.56684e-19 -0.00564518)
(-1.80349e-20 -3.86507e-19 -0.00438167)
(1.3953e-20 3.88334e-19 -0.00340503)
(-7.79931e-21 -1.93292e-19 -0.00265701)
(-1.20692e-20 -4.07934e-19 -0.00208686)
(5.62045e-21 2.06055e-19 -0.00165271)
(1.60395e-23 -6.54966e-21 -0.00132095)
(-5.01783e-22 -1.3444e-20 -0.00106533)
(2.27293e-22 6.80641e-21 -0.000865844)
(-3.77054e-22 -2.07715e-20 -0.000707585)
(3.18449e-21 2.17479e-19 -0.000579664)
(-6.63572e-21 -4.58453e-19 -0.000474248)
(3.01025e-21 2.19798e-19 -0.000385759)
(-1.6284e-22 -2.15076e-20 -0.00031025)
(-7.47891e-23 7.24735e-21 -0.000244923)
(1.98206e-23 5.45963e-23 -0.00018778)
(-1.13538e-21 -1.25728e-19 -0.000137362)
(9.71581e-22 1.10998e-19 -9.25822e-05)
(8.2347e-22 1.05093e-19 -5.26004e-05)
(-1.15495e-21 -1.42719e-19 -1.67444e-05)
(5.73362e-23 7.49865e-21 1.55438e-05)
(1.90101e-22 3.82511e-20 4.47465e-05)
(-3.95554e-22 -6.88447e-20 7.13064e-05)
(-1.33816e-22 -7.71159e-21 9.56689e-05)
(-2.26579e-22 -5.42781e-20 0.000118344)
(-8.44653e-23 -7.91378e-21 0.000139998)
(9.21682e-23 1.55657e-20 0.00016158)
(1.00284e-22 2.35672e-20 0.000184423)
(-1.48819e-20 -2.73337e-22 0.011276)
(1.63937e-20 3.40727e-21 -0.0351132)
(4.21591e-21 8.98677e-21 -0.0704954)
(-3.86386e-20 -1.18407e-20 -0.0956163)
(1.535e-20 7.87659e-21 -0.111745)
(-7.85092e-20 -1.11855e-19 -0.120274)
(8.718e-20 9.11016e-20 -0.122605)
(1.29672e-19 2.01432e-19 -0.120087)
(-9.16718e-21 6.72417e-20 -0.11397)
(-2.54098e-19 -5.26072e-19 -0.105373)
(2.74179e-19 6.1479e-19 -0.0952538)
(-1.37051e-19 -3.18198e-19 -0.0844035)
(-2.8122e-22 -1.03981e-20 -0.0734474)
(-1.12551e-21 -1.51136e-21 -0.0628568)
(1.23263e-19 5.2222e-19 -0.0529655)
(-1.09797e-20 3.34079e-20 -0.043989)
(-1.09555e-19 -5.45907e-19 -0.0360446)
(4.12211e-21 1.80164e-20 -0.0291707)
(-8.16349e-22 2.71077e-23 -0.0233452)
(1.60172e-23 -1.49598e-22 -0.0185025)
(3.56592e-20 3.57349e-19 -0.0145484)
(-3.45119e-20 -3.45936e-19 -0.0113731)
(-2.82521e-20 -3.69242e-19 -0.00886058)
(2.98231e-20 3.93057e-19 -0.00689875)
(8.21234e-22 1.25486e-20 -0.00538222)
(-7.86587e-22 -1.26945e-20 -0.00421965)
(5.25163e-22 1.30626e-20 -0.00333252)
(-1.62823e-20 -4.10413e-19 -0.00265552)
(1.72429e-20 4.24003e-19 -0.0021366)
(-1.33919e-20 -4.08882e-19 -0.00173514)
(1.43628e-20 4.36373e-19 -0.00142027)
(3.17138e-22 1.38547e-20 -0.00116904)
(1.05349e-20 4.51703e-19 -0.000964729)
(-2.03396e-20 -8.93601e-19 -0.000795338)
(1.04918e-20 4.70284e-19 -0.000652335)
(4.02921e-21 2.4664e-19 -0.000529689)
(-3.53178e-21 -2.17559e-19 -0.000423127)
(-3.88447e-22 -8.48003e-23 -0.000329588)
(1.64167e-22 -1.35903e-23 -0.000246835)
(6.36797e-23 -1.02003e-22 -0.000173185)
(2.70205e-21 2.40199e-19 -0.000107328)
(-2.72959e-21 -2.2527e-19 -4.82066e-05)
(9.43325e-23 1.50563e-20 5.06596e-06)
(1.47e-22 -5.35377e-23 5.32629e-05)
(9.9082e-22 1.22751e-19 9.7097e-05)
(-2.02464e-21 -2.30679e-19 0.000137287)
(1.04402e-21 1.23327e-19 0.000174656)
(-5.20652e-22 -6.21453e-20 0.000210296)
(3.75906e-22 4.65935e-20 0.000245808)
(9.76823e-23 1.5625e-20 0.000283614)
(1.39067e-21 2.62457e-20 0.000834577)
(8.59957e-21 -5.07135e-20 -0.0621619)
(7.58608e-20 1.25352e-19 -0.108586)
(-2.30506e-19 -2.18372e-19 -0.139861)
(1.70085e-19 8.76439e-20 -0.158505)
(1.22733e-19 1.78778e-19 -0.166919)
(-1.4209e-19 -1.51391e-19 -0.16731)
(1.61722e-19 2.45793e-19 -0.161658)
(-3.53019e-19 -5.33977e-19 -0.15171)
(2.07666e-19 2.75724e-19 -0.138956)
(-9.11315e-21 1.23144e-20 -0.124629)
(-5.71339e-21 7.84592e-22 -0.109712)
(8.5623e-21 9.01066e-21 -0.0949543)
(-1.84104e-19 -5.25076e-19 -0.0809035)
(1.74136e-19 5.04676e-19 -0.0679313)
(2.44734e-21 2.02044e-20 -0.0562646)
(-7.40629e-22 -1.01251e-20 -0.0460123)
(1.3251e-19 6.58605e-19 -0.0371914)
(-1.3252e-19 -6.56894e-19 -0.0297493)
(-1.80245e-21 -1.19274e-20 -0.0235848)
(-1.41825e-22 -1.21879e-23 -0.0185655)
(5.09812e-22 1.88021e-22 -0.0145432)
(1.10359e-22 -4.27062e-24 -0.0113662)
(8.0272e-22 1.24446e-20 -0.00888692)
(7.09645e-22 1.14539e-22 -0.00697188)
(7.8159e-22 1.31631e-20 -0.00550247)
(-5.40057e-20 -8.60592e-19 -0.00437915)
(5.37169e-20 8.47356e-19 -0.00351937)
(-5.87514e-22 4.65557e-22 -0.00285743)
(-1.90961e-20 -4.41684e-19 -0.0023423)
(2.03646e-20 4.55517e-19 -0.00193537)
(-2.20873e-22 1.70522e-22 -0.00160803)
(-1.25206e-22 1.54624e-22 -0.00133955)
(-1.38316e-20 -4.74222e-19 -0.00111506)
(2.68247e-20 9.37645e-19 -0.00092405)
(-2.45594e-20 -9.30173e-19 -0.000759102)
(2.25631e-20 9.36864e-19 -0.000614959)
(-2.07128e-20 -9.42863e-19 -0.000487849)
(9.81784e-21 4.72625e-19 -0.000374999)
(4.5295e-21 2.39481e-19 -0.000274302)
(-3.94532e-21 -2.09206e-19 -0.000184098)
(-1.77396e-22 -1.50618e-20 -0.000103025)
(-3.47243e-21 -2.42939e-19 -2.99257e-05)
(7.29058e-21 5.17024e-19 3.62205e-05)
(-3.43698e-21 -2.43672e-19 9.63616e-05)
(9.39792e-23 -1.03384e-22 0.000151455)
(2.08037e-22 1.53865e-20 0.0002026)
(-1.00477e-22 7.18107e-24 0.000251277)
(-1.3037e-22 -1.5508e-20 0.000299757)
(2.96257e-22 3.10894e-20 0.000351823)
(2.6776e-20 3.52337e-23 -0.0257034)
(-4.4024e-22 -2.54424e-22 -0.103953)
(-5.76613e-20 -8.0878e-22 -0.157435)
(7.9123e-20 -2.12212e-21 -0.1904)
(-2.70219e-20 -4.46598e-21 -0.207491)
(-3.3651e-20 -1.24083e-21 -0.212472)
(1.479e-20 3.3061e-21 -0.208431)
(-8.09337e-21 -4.68938e-21 -0.197943)
(5.11594e-20 -1.77933e-20 -0.183146)
(4.53047e-19 8.05266e-19 -0.165783)
(-1.25796e-20 9.82634e-20 -0.147233)
(-4.73935e-19 -9.14379e-19 -0.128545)
(4.52894e-19 1.05373e-18 -0.110493)
(-4.61706e-19 -1.05199e-18 -0.0936104)