/*--------------------------------*- C++ -*----------------------------------*\
| =========                 |                                                 |
| \\      /  F ield         | OpenFOAM: The Open Source CFD Toolbox           |
|  \\    /   O peration     | Version:  2412                                  |
|   \\  /    A nd           | Website:  www.openfoam.com                      |
|    \\/     M anipulation  |                                                 |
\*---------------------------------------------------------------------------*/
FoamFile
{
    version     2.0;
    format      ascii;
    arch        "LSB;label=32;scalar=64";
    class       surfaceScalarField;
    location    "21.5";
    object      phi;
}
// * * * * * * * * * * * * * * * * * * * * * * * * * * * * * * * * * * * * * //

dimensions      [0 3 -1 0 0 0 0];

oriented        oriented;

internalField   nonuniform List<scalar> 
10421
(
0.00126936
-0.000148021
2.05845e-08
0.00141832
-0.000148979
2.17878e-08
0.00156739
-0.000149091
2.28801e-08
0.00171579
-0.000148423
2.28424e-08
0.00186281
-0.00014704
2.24471e-08
0.00200779
-0.000145007
2.16096e-08
0.00215016
-0.000142388
2.04635e-08
0.00228938
-0.000139244
1.91229e-08
0.00242501
-0.00013564
1.76593e-08
0.00255663
-0.000131636
1.6115e-08
0.0026839
-0.000127292
1.45121e-08
0.00280656
-0.000122668
1.28653e-08
0.00292436
-0.000117817
1.11811e-08
0.00303715
-0.000112794
9.46912e-09
0.00314479
-0.000107648
7.74002e-09
0.00324721
-0.000102426
6.00985e-09
0.00334437
-9.71696e-05
4.29894e-09
0.00343629
-9.19194e-05
2.62942e-09
0.003523
-8.67105e-05
1.02822e-09
0.00360457
-8.15746e-05
-4.77164e-10
0.00368112
-7.65398e-05
-1.8626e-09
0.00375275
-7.16303e-05
-3.10439e-09
0.00381962
-6.68667e-05
-4.18325e-09
0.00388189
-6.2266e-05
-5.08502e-09
0.00393974
-5.7842e-05
-5.79845e-09
0.00399335
-5.36046e-05
-6.31657e-09
0.00404292
-4.95604e-05
-6.63565e-09
-4.57123e-05
0.00408864
-6.75522e-09
0.00128867
-0.000293642
0.00143537
-0.000295675
0.00158231
-0.000296035
0.00172873
-0.000294844
0.00187392
-0.000292233
0.00201724
-0.000288326
0.0021581
-0.000283249
0.00229599
-0.000277125
0.00243042
-0.000270077
0.00256102
-0.000262228
0.00268742
-0.000253697
0.00280935
-0.000244597
0.00292657
-0.000235041
0.00303891
-0.000225132
0.00314623
-0.000214972
0.00324846
-0.000204651
0.00334555
-0.000194257
0.0034375
-0.000183867
0.00352434
-0.000173553
0.00360614
-0.000163379
0.003683
-0.000153401
0.00375504
-0.000143666
0.00382239
-0.000134218
0.00388521
-0.000125089
0.00394368
-0.000116309
0.00399797
-0.000107896
0.00404828
-9.98649e-05
-9.22191e-05
0.00409478
0.00132378
-0.000434726
0.00146618
-0.000438072
0.00160909
-0.000438947
0.00175177
-0.000437524
0.00189353
-0.000433985
0.00203372
-0.000428516
0.00217176
-0.000421296
0.00230715
-0.000412507
0.0024394
-0.000402328
0.00256811
-0.000390938
0.00269292
-0.000378514
0.00281355
-0.000365225
0.00292975
-0.000351236
0.00304132
-0.000336704
0.00314812
-0.000321777
0.00325007
-0.000306594
0.00334709
-0.000291284
0.00343919
-0.000275963
0.00352638
-0.00026074
0.00360871
-0.000245711
0.00368627
-0.000230959
0.00375916
-0.00021656
0.00382752
-0.000202575
0.00389148
-0.000189057
0.00395122
-0.000176047
0.0040069
-0.000163578
0.00405871
-0.000151668
-0.000140321
0.00410681
0.00136835
0.00150482
-0.000574542
0.0016422
-0.00057633
0.00177977
-0.000575095
0.00191685
-0.000571071
0.00205283
-0.000564491
0.00218712
-0.000555583
0.00231919
-0.000544579
0.00244857
-0.000531712
0.00257485
-0.000517215
0.00269765
-0.000501317
0.00281667
-0.000484242
0.00293164
-0.000466207
0.00304235
-0.000447418
0.00314865
-0.000428074
0.00325041
-0.000408357
0.00334757
-0.000388439
0.00344008
-0.000368479
0.00352796
-0.000348619
0.00361124
-0.000328989
0.00368998
-0.000309703
0.00376428
-0.000290859
0.00383425
-0.000272544
0.00390002
-0.000254828
0.00396174
-0.000237767
0.00401957
-0.000221406
0.00407367
-0.000205769
-0.000190859
0.00412421
0.00154369
-0.000703968
0.00167456
-0.000707193
0.00180616
-0.000706698
0.00193784
-0.000702756
0.00206899
-0.000695638
0.00219903
-0.000685616
0.00232741
-0.000672965
0.00245366
-0.000657964
0.00257735
-0.000640897
0.00269807
-0.000622044
0.00281551
-0.000601679
0.00292937
-0.000580069
0.00303943
-0.000557473
0.00314549
-0.000534133
0.00324741
-0.00051028
0.0033451
-0.00048613
0.0034385
-0.000461881
0.0035276
-0.000437712
0.00361239
-0.000413787
0.00369294
-0.000390251
0.00376931
-0.00036723
0.0038416
-0.000344832
0.00390992
-0.000323147
0.0039744
-0.000302251
0.0040352
-0.000282196
0.00409245
-0.000263019
-0.000244716
0.0041463
0.00157466
-0.000825803
0.00169857
-0.000831107
0.00182389
-0.000832019
0.00194997
-0.000828838
0.0020762
-0.000821865
0.00220199
-0.000811401
0.00232678
-0.000797761
0.00245008
-0.000781266
0.00257143
-0.000762245
0.00269041
-0.000741025
0.00280666
-0.000717931
0.00291987
-0.000693278
0.00302977
-0.000667374
0.00313615
-0.00064051
0.00323883
-0.000612963
0.0033377
-0.000584994
0.00343266
-0.00055684
0.00352367
-0.000528722
0.00361072
-0.000500838
0.00369383
-0.000473364
0.00377306
-0.000446455
0.00384847
-0.000420245
0.00392017
-0.000394845
0.00398826
-0.000370347
0.00405289
-0.00034682
0.00411418
-0.000324308
-0.00030281
0.00417227
0.0015903
0.00170747
-0.000948285
0.00182681
-0.000951353
0.00194765
-0.000949683
0.00206939
-0.000943599
0.00219141
-0.000933426
0.00231316
-0.000919509
0.0024341
-0.000902207
0.00255374
-0.000881889
0.00267165
-0.00085893
0.00278742
-0.000833699
0.0029007
-0.000806563
0.0030112
-0.000777876
0.00311867
-0.00074798
0.00322291
-0.000717199
0.00332375
-0.000685837
0.00342109
-0.000654178
0.00351485
-0.000622482
0.003605
-0.000590983
0.00369153
-0.000559893
0.00377447
-0.000529397
0.00385388
-0.000499653
0.00392983
-0.000470799
0.00400243
-0.000442944
0.00407178
-0.000416174
0.00413802
-0.000390545
0.00420128
-0.000366075
0.00413986
-5.1213e-05
-6.72592e-09
0.00418865
-4.87827e-05
-6.63336e-09
0.00423504
-4.63915e-05
-6.40469e-09
0.0042791
-4.40545e-05
-6.04703e-09
0.00432089
-4.17819e-05
-5.56454e-09
0.00436048
-3.95812e-05
-4.96869e-09
0.00439794
-3.74594e-05
-4.27274e-09
0.00443337
-3.54219e-05
-3.49322e-09
0.00446684
-3.34731e-05
-2.64782e-09
0.00449846
-3.16161e-05
-1.75384e-09
0.00452831
-2.98532e-05
-8.28765e-10
0.0045565
-2.81851e-05
1.10399e-10
0.00458311
-2.66118e-05
1.04681e-09
0.00460824
-2.51321e-05
1.96729e-09
0.00463198
-2.3744e-05
2.86095e-09
0.00465442
-2.24445e-05
3.71889e-09
0.00467565
-2.123e-05
4.53744e-09
0.00469574
-2.0096e-05
5.31579e-09
0.00471477
-1.90375e-05
6.05353e-09
0.00473281
-1.8049e-05
6.75274e-09
0.00474993
-1.71243e-05
7.41724e-09
0.00476618
-1.62567e-05
8.04881e-09
0.00478161
-1.54392e-05
8.64723e-09
0.00479626
-1.46644e-05
9.21119e-09
0.00481018
-1.39251e-05
9.73534e-09
0.00482338
-1.32143e-05
1.02098e-08
0.0048359
-1.25264e-05
1.06225e-08
0.00484774
-1.18569e-05
1.09592e-08
0.00485894
-1.12036e-05
1.12029e-08
0.00486949
-1.0567e-05
1.13374e-08
0.00487943
-9.94966e-06
1.13513e-08
0.00488878
-9.35641e-06
1.12358e-08
0.00489756
-8.7933e-06
1.09874e-08
0.00490581
-8.26651e-06
1.06111e-08
0.00491359
-7.78118e-06
1.01191e-08
0.00492092
-7.34037e-06
9.52662e-09
0.00492785
-6.94448e-06
8.8549e-09
0.00493444
-6.59112e-06
8.12797e-09
0.0049407
-6.27561e-06
7.36763e-09
0.00494669
-5.99178e-06
6.59406e-09
0.00495242
-5.7329e-06
5.82521e-09
0.0049579
-5.49265e-06
5.07533e-09
0.00496316
-5.26567e-06
4.35406e-09
-5.04802e-06
3.67404e-09
0.00414535
-0.000101777
0.00419354
-9.69749e-05
0.0042394
-9.22497e-05
0.00428297
-8.76297e-05
0.00432433
-8.31343e-05
0.00436352
-7.87787e-05
0.00440064
-7.45766e-05
0.00443576
-7.0539e-05
0.00446896
-6.66749e-05
0.00450033
-6.2991e-05
0.00452997
-5.94917e-05
0.00455797
-5.61792e-05
0.00458441
-5.30536e-05
0.00460939
-5.01126e-05
0.004633
-4.73526e-05
0.00465532
-4.47677e-05
0.00467644
-4.23508e-05
0.00469644
-4.00934e-05
0.00471539
-3.79856e-05
0.00473335
-3.60164e-05
0.0047504
-3.41738e-05
0.00476659
-3.24445e-05
0.00478197
-3.08147e-05
0.00479657
-2.92698e-05
0.00481044
-2.77954e-05
0.00482361
-2.63782e-05
0.00483609
-2.50064e-05
0.0048479
-2.36716e-05
0.00485907
-2.23696e-05
0.0048696
-2.11008e-05
0.00487952
-1.98706e-05
0.00488885
-1.86885e-05
0.00489763
-1.75664e-05
0.00490588
-1.65165e-05
0.00491365
-1.5549e-05
0.00492097
-1.46698e-05
0.00492791
-1.38799e-05
0.00493449
-1.31744e-05
0.00494076
-1.25442e-05
0.00494675
-1.19769e-05
0.00495247
-1.14594e-05
0.00495796
-1.0979e-05
0.00496322
-1.05252e-05
-1.00901e-05
0.0041561
-0.000151067
0.00420313
-0.000144007
0.00424794
-0.000137059
0.00429057
-0.000130261
0.00433108
-0.00012364
0.00436952
-0.000117219
0.00440596
-0.000111018
0.00444047
-0.000105054
0.00447314
-9.93407e-05
0.00450404
-9.38897e-05
0.00453325
-8.87076e-05
0.00456087
-8.37985e-05
0.00458698
-7.9163e-05
0.00461167
-7.47985e-05
0.00463502
-7.06997e-05
0.00465711
-6.68586e-05
0.00467802
-6.32649e-05
0.00469783
-5.99064e-05
0.00471662
-5.67686e-05
0.00473444
-5.38356e-05
0.00475135
-5.10897e-05
0.00476742
-4.85116e-05
0.00478269
-4.60809e-05
0.00479719
-4.37762e-05
0.00481097
-4.15766e-05
0.00482406
-3.9462e-05
0.00483647
-3.74155e-05
0.00484822
-3.54245e-05
0.00485933
-3.34828e-05
0.00486982
-3.15909e-05
0.00487971
-2.97568e-05
0.00488901
-2.79943e-05
0.00489777
-2.63208e-05
0.00490601
-2.47543e-05
0.00491377
-2.33098e-05
0.00492109
-2.19961e-05
0.00492803
-2.08145e-05
0.00493461
-1.9758e-05
0.00494088
-1.88131e-05
0.00494687
-1.79618e-05
0.00495259
-1.71845e-05
0.00495807
-1.64628e-05
0.00496333
-1.5781e-05
-1.51275e-05
0.00417168
-0.000198533
0.00421705
-0.000189381
0.00426036
-0.00018037
0.00430164
-0.000171542
0.00434094
-0.000162932
0.00437829
-0.000154571
0.00441375
-0.000146485
0.0044474
-0.000138698
0.00447929
-0.00013123
0.0045095
-0.000124097
0.0045381
-0.000117309
0.00456517
-0.000110871
0.00459079
-0.000104787
0.00461505
-9.9053e-05
0.00463801
-9.36634e-05
0.00465976
-8.86084e-05
0.00468037
-8.38751e-05
0.00469991
-7.94478e-05
0.00471845
-7.53083e-05
0.00473605
-7.14361e-05
0.00475277
-6.78084e-05
0.00476866
-6.44003e-05
0.00478377
-6.11855e-05
0.00479813
-5.81363e-05
0.00481177
-5.52255e-05
0.00482474
-5.24271e-05
0.00483704
-4.97192e-05
0.0048487
-4.70854e-05
0.00485974
-4.45173e-05
0.00487016
-4.20158e-05
0.00488
-3.95908e-05
0.00488926
-3.72602e-05
0.00489799
-3.50465e-05
0.00490621
-3.29731e-05
0.00491396
-3.10593e-05
0.00492128
-2.93167e-05
0.00492821
-2.77468e-05
0.00493479
-2.6341e-05
0.00494106
-2.50816e-05
0.00494705
-2.39454e-05
0.00495277
-2.2907e-05
0.00495825
-2.19423e-05
0.0049635
-2.10309e-05
-2.01576e-05
0.0041915
-0.000243728
0.0042348
-0.000232689
0.00427624
-0.00022181
0.00431584
-0.000211135
0.00435361
-0.000200703
0.00438959
-0.000190553
0.00442383
-0.000180722
0.00445637
-0.00017124
0.00448727
-0.000162133
0.0045166
-0.000153422
0.00454441
-0.000145122
0.00457078
-0.000137242
0.00459578
-0.000129786
0.00461948
-0.000122751
0.00464195
-0.000116132
0.00466326
-0.000109916
0.00468347
-0.000104091
0.00470266
-9.86362e-05
0.00472088
-9.35313e-05
0.0047382
-8.87515e-05
0.00475466
-8.42696e-05
0.00477031
-8.0056e-05
0.00478521
-7.60787e-05
0.00479938
-7.23048e-05
0.00481285
-6.87012e-05
0.00482566
-6.52367e-05
0.00483783
-6.18846e-05
0.00484937
-5.86251e-05
0.0048603
-5.5448e-05
0.00487064
-5.2354e-05
0.0048804
-4.93549e-05
0.00488961
-4.64722e-05
0.0048983
-4.37329e-05
0.00490649
-4.1165e-05
0.00491422
-3.87919e-05
0.00492153
-3.66276e-05
0.00492846
-3.46743e-05
0.00493504
-3.29215e-05
0.00494131
-3.13481e-05
0.00494729
-2.99261e-05
0.00495301
-2.86248e-05
0.00495848
-2.74151e-05
0.00496372
-2.62722e-05
-2.51776e-05
0.00421486
-0.000286319
0.00425581
-0.000273634
0.0042951
-0.000261106
0.00433275
-0.000248783
0.00436876
-0.000236712
0.00440315
-0.000224943
0.00443595
-0.000213521
0.00446719
-0.000202486
0.00449693
-0.000191871
0.00452521
-0.000181703
0.00455209
-0.000172
0.00457762
-0.000162777
0.00460188
-0.000154037
0.00462491
-0.000145782
0.00464678
-0.000138003
0.00466755
-0.000130692
0.00468729
-0.000123829
0.00470605
-0.000117397
0.00472389
-0.00011137
0.00474086
-0.00010572
0.00475701
-0.000100417
0.00477238
-9.54275e-05
0.00478701
-9.07141e-05
0.00480095
-8.62393e-05
0.00481421
-8.1965e-05
0.00482683
-7.78556e-05
0.00483883
-7.38802e-05
0.00485022
-7.00158e-05
0.00486102
-6.62504e-05
0.00487125
-6.25845e-05
0.00488093
-5.90316e-05
0.00489007
-5.56159e-05
0.00489871
-5.23684e-05
0.00490686
-4.9321e-05
0.00491457
-4.65007e-05
0.00492187
-4.39239e-05
0.00492879
-4.1593e-05
0.00493536
-3.94964e-05
0.00494162
-3.76098e-05
0.0049476
-3.59012e-05
0.00495331
-3.43353e-05
0.00495877
-3.28785e-05
0.004964
-3.1502e-05
-3.01843e-05
0.00424107
-0.00032611
0.00427947
-0.000312035
0.00431645
-0.000298083
0.00435198
-0.00028431
0.00438605
-0.000270785
0.00441868
-0.000257569
0.00444988
-0.000244719
0.00447967
-0.000232283
0.0045081
-0.0002203
0.0045352
-0.000208804
0.00456102
-0.000197818
0.0045856
-0.000187359
0.004609
-0.000177435
0.00463127
-0.000168047
0.00465245
-0.000159191
0.00467261
-0.000150853
0.0046918
-0.000143017
0.00471007
-0.000135663
0.00472746
-0.000128762
0.00474403
-0.000122286
0.00475981
-0.000116201
0.00477485
-0.000110468
0.00478919
-0.000105049
0.00480285
-9.99004e-05
0.00481586
-9.49812e-05
0.00482826
-9.02514e-05
0.00484005
-8.56765e-05
0.00485127
-8.12309e-05
0.00486192
-7.6901e-05
0.00487202
-7.26869e-05
0.00488159
-6.86032e-05
0.00489065
-6.46764e-05
0.00489923
-6.09405e-05
0.00490734
-5.7431e-05
0.00491501
-5.41776e-05
0.00492229
-5.11988e-05
0.00492919
-4.84974e-05
0.00493576
-4.60608e-05
0.00494201
-4.38625e-05
0.00494798
-4.18668e-05
0.00495368
-4.00348e-05
0.00495913
-3.83288e-05
0.00496434
-3.67167e-05
-3.51741e-05
0.00447487
-0.000364846
-0.00443613
0.00451234
-0.000349505
0.0045485
-0.000334244
0.00458333
-0.000319144
0.00461683
-0.000304284
0.004649
-0.000289736
0.00467984
-0.000275564
0.00470938
-0.000261825
0.00473765
-0.000248565
0.00476467
-0.000235822
0.00479048
-0.000223626
0.00481511
-0.000211996
0.00483862
-0.000200944
0.00486105
-0.000190472
0.00488243
-0.000180577
0.00490283
-0.000171247
0.00492228
-0.000162465
0.00494082
-0.000154209
0.00495851
-0.000146452
0.00497539
-0.000139161
0.00499149
-0.0001323
0.00500685
-0.000125829
0.0050215
-0.000119706
0.00503549
-0.000113885
0.00504883
-0.00010832
0.00506155
-0.00010297
0.00507366
-9.7795e-05
0.0050852
-9.27687e-05
0.00509618
-8.78753e-05
0.0051066
-8.31147e-05
0.0051165
-7.8502e-05
0.00512589
-7.40654e-05
0.00513479
-6.98414e-05
0.00514323
-6.58681e-05
0.00515123
-6.21778e-05
0.00515882
-5.87905e-05
0.00516603
-5.57098e-05
0.0051729
-5.29222e-05
0.00517943
-5.03994e-05
0.00518567
-4.8103e-05
0.00519162
-4.59907e-05
0.00519732
-4.40217e-05
0.00520276
-4.21607e-05
-4.03808e-05
0.00450818
-0.000400512
-0.00447252
0.00454274
-0.000384063
0.00457617
-0.000367672
0.00460846
-0.000351431
0.0046396
-0.000335424
0.00466959
-0.000319727
0.00469843
-0.000304412
0.00472615
-0.000289541
0.00475275
-0.000275165
0.00477826
-0.000261329
0.0048027
-0.000248064
0.00482609
-0.000235395
0.00484849
-0.000223335
0.0048699
-0.000211889
0.00489038
-0.000201055
0.00490995
-0.000190822
0.00492866
-0.000181174
0.00494654
-0.000172088
0.00496363
-0.000163537
0.00497995
-0.000155487
0.00499555
-0.000147901
0.00501046
-0.000140737
0.00502471
-0.00013395
0.00503832
-0.000127493
0.00505131
-0.000121318
0.00506372
-0.000115378
0.00507556
-0.000109636
0.00508685
-0.00010406
0.00509761
-9.86342e-05
0.00510786
-9.33578e-05
0.0051176
-8.8246e-05
0.00512686
-8.3328e-05
0.00513566
-7.86419e-05
0.00514402
-7.42277e-05
0.00515196
-7.01193e-05
0.00515951
-6.63382e-05
0.00516669
-6.28885e-05
0.00517352
-5.97565e-05
0.00518004
-5.69125e-05
0.00518625
-5.43162e-05
0.00519218
-5.19231e-05
0.00519785
-4.96895e-05
0.00520327
-4.7578e-05
-4.55596e-05
0.00454332
-0.000432992
-0.00451084
0.00457488
-0.000415618
0.00460549
-0.000398286
0.00463515
-0.000381092
0.00466385
-0.000364124
0.00469159
-0.000347464
0.00471836
-0.000331184
0.00474418
-0.000315353
0.00476904
-0.000300026
0.00479296
-0.00028525
0.00481595
-0.000271061
0.00483805
-0.000257486
0.00485925
-0.000244541
0.0048796
-0.000232234
0.0048991
-0.000220563
0.0049178
-0.000209521
0.00493572
-0.00019909
0.00495288
-0.000189249
0.00496931
-0.000179971
0.00498505
-0.000171222
0.00500011
-0.000162963
0.00501453
-0.000155154
0.00502832
-0.000147746
0.00504152
-0.000140692
0.00505415
-0.000133942
0.00506622
-0.00012745
0.00507776
-0.000121173
0.00508878
-0.00011508
0.0050993
-0.000109155
0.00510933
-0.000103395
0.0051189
-9.78156e-05
0.00512802
-9.2446e-05
0.00513671
-8.73251e-05
0.00514497
-8.2494e-05
0.00515284
-7.79878e-05
0.00516033
-7.38288e-05
0.00516746
-7.00218e-05
0.00517426
-6.6553e-05
0.00518074
-6.33922e-05
0.00518692
-6.0498e-05
0.00519282
-5.78242e-05
0.00519846
-5.53256e-05
0.00520384
-5.29627e-05
-5.0705e-05
0.00457998
-0.000462187
-0.00455079
0.00460845
-0.000444089
0.00463618
-0.000426015
0.00466316
-0.000408065
0.00468936
-0.000390329
0.00471479
-0.00037289
0.00473943
-0.000355826
0.00476328
-0.000339207
0.00478635
-0.000323092
0.00480863
-0.000307531
0.00483013
-0.000292562
0.00485086
-0.000278216
0.00487083
-0.000264511
0.00489005
-0.000251456
0.00490854
-0.000239054
0.00492632
-0.000227296
0.0049434
-0.000216169
0.0049598
-0.00020565
0.00497554
-0.000195714
0.00499065
-0.000186327
0.00500514
-0.000177452
0.00501903
-0.000169047
0.00503235
-0.000161064
0.00504511
-0.000153454
0.00505734
-0.000146168
0.00506904
-0.000139159
0.00508025
-0.000132383
0.00509098
-0.000125808
0.00510124
-0.000119417
0.00511105
-0.000113207
0.00512043
-0.000107192
0.00512939
-0.000101401
0.00513793
-9.58735e-05
0.00514609
-9.06506e-05
0.00515387
-8.57677e-05
0.00516129
-8.12479e-05
0.00516836
-7.70964e-05
0.00517511
-7.32997e-05
0.00518155
-6.98278e-05
0.00518769
-6.66388e-05
0.00519355
-6.36857e-05
0.00519915
-6.09224e-05
0.00520449
-5.83081e-05
-5.5811e-05
0.00461782
-0.000488043
-0.00459196
0.00464316
-0.000469431
0.00466797
-0.00045082
0.00469221
-0.000432313
0.00471589
-0.000414001
0.00473897
-0.000395971
0.00476145
-0.000378303
0.00478331
-0.000361067
0.00480454
-0.000344327
0.00482514
-0.000328134
0.00484511
-0.00031253
0.00486444
-0.000297547
0.00488314
-0.000283206
0.0049012
-0.000269519
0.00491863
-0.000256489
0.00493545
-0.000244112
0.00495166
-0.000232374
0.00496726
-0.000221256
0.00498228
-0.000210733
0.00499673
-0.000200772
0.00501061
-0.000191338
0.00502395
-0.000182388
0.00503677
-0.000173876
0.00504907
-0.000165754
0.00506087
-0.000157973
0.0050722
-0.000150484
0.00508306
-0.000143245
0.00509347
-0.000136224
0.00510346
-0.000129401
0.00511302
-0.000122774
0.00512219
-0.000116356
0.00513096
-0.000110175
0.00513936
-0.000104269
0.00514739
-9.86802e-05
0.00515506
-9.34427e-05
0.00516239
-8.85799e-05
0.0051694
-8.40978e-05
0.00517608
-7.99835e-05
0.00518246
-7.62073e-05
0.00518855
-7.27279e-05
0.00519436
-6.94982e-05
0.00519991
-6.64717e-05
0.00520521
-6.3607e-05
-6.08715e-05
0.00465648
-0.000510555
-0.00463396
0.00467868
-0.000491638
0.00470056
-0.000472695
0.00472208
-0.000453829
0.00474321
-0.000435134
0.00476393
-0.000416698
0.00478423
-0.000398601
0.00480408
-0.000380918
0.00482347
-0.000363712
0.00484237
-0.000347039
0.00486078
-0.000330941
0.00487869
-0.000315453
0.00489608
-0.000300599
0.00491296
-0.000286393
0.00492931
-0.000272841
0.00494514
-0.00025994
0.00496044
-0.000247679
0.00497523
-0.000236041
0.0049895
-0.000225001
0.00500326
-0.000214532
0.00501651
-0.000204596
0.00502928
-0.000195154
0.00504157
-0.000186162
0.00505338
-0.000177572
0.00506475
-0.000169336
0.00507567
-0.000161406
0.00508617
-0.000153741
0.00509625
-0.000146309
0.00510594
-0.00013909
0.00511525
-0.000132079
0.00512418
-0.000125291
0.00513276
-0.00011875
0.00514098
-0.000112496
0.00514887
-0.000106566
0.00515642
-0.000100996
0.00516365
-9.58088e-05
0.00517056
-9.10111e-05
0.00517717
-8.65904e-05
0.00518348
-8.25184e-05
0.00518951
-7.87543e-05
0.00519526
-7.5252e-05
0.00520075
-7.1965e-05
0.005206
-6.88521e-05
-6.58799e-05
0.0046956
-0.00052977
-0.00467638
0.00471471
-0.00051075
0.00473368
-0.000491672
0.00475249
-0.000472639
0.00477111
-0.000453746
0.00478949
-0.000435082
0.00480762
-0.000416729
0.00482546
-0.000398762
0.004843
-0.000381247
0.0048602
-0.00036424
0.00487705
-0.000347786
0.00489352
-0.000331923
0.00490959
-0.000316676
0.00492526
-0.000302063
0.00494051
-0.000288091
0.00495533
-0.00027476
0.00496971
-0.000262062
0.00498366
-0.000249982
0.00499715
-0.000238498
0.00501021
-0.000227584
0.00502282
-0.000217206
0.00503499
-0.000207327
0.00504673
-0.000197904
0.00505805
-0.000188891
0.00506895
-0.000180241
0.00507946
-0.00017191
0.00508957
-0.000163857
0.00509931
-0.000156049
0.00510869
-0.000148467
0.00511772
-0.000141108
0.00512641
-0.00013398
0.00513477
-0.000127111
0.00514281
-0.000120535
0.00515053
-0.00011429
0.00515795
-0.00010841
0.00516506
-0.000102918
0.00517187
-9.78206e-05
0.00517838
-9.31062e-05
0.00518461
-8.87478e-05
0.00519056
-8.47063e-05
0.00519625
-8.09367e-05
0.00520168
-7.73935e-05
0.00520686
-7.40355e-05
-7.08296e-05
0.00473483
-0.000545778
-0.00471882
0.00475092
-0.000526845
0.00476707
-0.000507818
0.00478323
-0.0004888
0.00479937
-0.000469886
0.00481545
-0.000451164
0.00483144
-0.000432718
0.0048473
-0.000414624
0.004863
-0.000396947
0.00487851
-0.000379746
0.00489379
-0.00036307
0.00490882
-0.000346956
0.00492358
-0.000331432
0.00493804
-0.000316519
0.00495217
-0.000302228
0.00496597
-0.000288559
0.00497942
-0.000275509
0.0049925
-0.000263065
0.00500521
-0.000251208
0.00501754
-0.000239915
0.00502949
-0.000229154
0.00504105
-0.000218891
0.00505224
-0.000209086
0.00506304
-0.000199696
0.00507348
-0.000190676
0.00508355
-0.000181983
0.00509327
-0.000173578
0.00510265
-0.000165431
0.00511171
-0.000157521
0.00512044
-0.000149844
0.00512887
-0.00014241
0.005137
-0.000135241
0.00514484
-0.000128372
0.00515239
-0.000121837
0.00515964
-0.00011567
0.00516662
-0.000109892
0.00517331
-0.000104511
0.00517972
-9.95165e-05
0.00518585
-9.48826e-05
0.00519172
-9.05723e-05
0.00519733
-8.65421e-05
0.00520268
-8.2748e-05
0.00520779
-7.91495e-05
-7.57139e-05
0.00477383
-0.000558713
-0.0047609
0.00478703
-0.00054004
0.00480044
-0.000521234
0.00481404
-0.000502399
0.00482778
-0.000483627
0.00484162
-0.000465005
0.00485553
-0.000446619
0.00486944
-0.000428542
0.00488334
-0.000410844
0.00489718
-0.000393583
0.00491092
-0.000376809
0.00492452
-0.000360562
0.00493796
-0.000344873
0.00495121
-0.000329764
0.00496423
-0.000315248
0.004977
-0.000301332
0.00498951
-0.000288012
0.00500172
-0.00027528
0.00501363
-0.000263121
0.00502523
-0.000251512
0.0050365
-0.000240428
0.00504745
-0.000229835
0.00505806
-0.000219698
0.00506834
-0.000209976
0.00507829
-0.000200628
0.00508792
-0.000191613
0.00509724
-0.000182895
0.00510625
-0.000174443
0.00511497
-0.000166239
0.0051234
-0.000158277
0.00513156
-0.000150566
0.00513945
-0.000143127
0.00514706
-0.000135991
0.00515442
-0.000129191
0.00516151
-0.000122759
0.00516833
-0.000116715
0.00517489
-0.000111068
0.00518118
-0.000105807
0.0051872
-0.00010091
0.00519297
-9.63407e-05
0.00519849
-9.20581e-05
0.00520376
-8.80197e-05
0.0052088
-8.41865e-05
-8.0526e-05
0.00481232
-0.000568736
-0.00480229
0.00482276
-0.000550479
0.00483357
-0.00053205
0.00484472
-0.000513547
0.00485616
-0.000495065
0.00486784
-0.000476688
0.00487972
-0.0004585
0.00489175
-0.000440576
0.0049039
-0.000422985
0.0049161
-0.000405787
0.00492832
-0.000389032
0.00494052
-0.000372763
0.00495266
-0.000357013
0.00496471
-0.000341806
0.00497662
-0.000327159
0.00498836
-0.00031308
0.00499992
-0.000299571
0.00501127
-0.000286625
0.00502238
-0.000274231
0.00503324
-0.00026237
0.00504383
-0.00025102
0.00505414
-0.000240152
0.00506418
-0.000229732
0.00507393
-0.000219724
0.00508339
-0.00021009
0.00509257
-0.000200793
0.00510147
-0.000191798
0.0051101
-0.000183076
0.00511848
-0.000174611
0.00512659
-0.000166395
0.00513446
-0.000158437
0.00514209
-0.000150755
0.00514948
-0.000143378
0.00515663
-0.000136338
0.00516353
-0.000129663
0.00517019
-0.000123373
0.0051766
-0.000117477
0.00518275
-0.000111965
0.00518866
-0.000106818
0.00519432
-0.000102
0.00519974
-9.74746e-05
0.00520492
-9.32e-05
0.00520987
-8.91388e-05
-8.52595e-05
0.00485001
-0.00057604
-0.0048427
0.00485786
-0.000558334
0.00486623
-0.000540414
0.00487506
-0.000522378
0.00488431
-0.000504316
0.00489393
-0.000486312
0.00490388
-0.000468447
0.0049141
-0.000450797
0.00492454
-0.00043343
0.00493516
-0.000416407
0.00494591
-0.000399779
0.00495674
-0.00038359
0.0049676
-0.000367876
0.00497846
-0.000352663
0.00498927
-0.000337971
0.005
-0.000323812
0.00501062
-0.000310189
0.00502109
-0.0002971
0.0050314
-0.000284537
0.00504152
-0.000272486
0.00505142
-0.000260927
0.00506111
-0.000249835
0.00507056
-0.000239182
0.00507977
-0.000228934
0.00508873
-0.000219057
0.00509746
-0.000209516
0.00510594
-0.00020028
0.00511419
-0.000191323
0.0051222
-0.000182628
0.00513
-0.000174189
0.00513757
-0.000166012
0.00514493
-0.000158114
0.00515208
-0.000150522
0.005159
-0.000143264
0.00516571
-0.000136368
0.00517219
-0.000129852
0.00517843
-0.000123725
0.00518445
-0.000117978
0.00519022
-0.000112594
0.00519576
-0.000107541
0.00520107
-0.000102782
0.00520615
-9.82805e-05
0.00521101
-9.39992e-05
-8.99079e-05
0.00488668
-0.000580829
-0.00488189
0.00489214
-0.000563789
0.00489822
-0.000546494
0.00490488
-0.000529039
0.00491207
-0.00051151
0.00491975
-0.00049399
0.00492786
-0.000476558
0.00493635
-0.000459289
0.00494517
-0.00044225
0.00495427
-0.000425502
0.00496359
-0.000409098
0.00497308
-0.000393083
0.0049827
-0.000377494
0.0049924
-0.00036236
0.00500213
-0.000347704
0.00501186
-0.00033354
0.00502154
-0.000319875
0.00503116
-0.000306711
0.00504066
-0.000294043
0.00505004
-0.000281861
0.00505926
-0.000270149
0.00506831
-0.000258885
0.00507717
-0.000248046
0.00508584
-0.000237602
0.00509431
-0.000227523
0.00510257
-0.000217777
0.00511062
-0.000208337
0.00511848
-0.000199178
0.00512614
-0.000190285
0.0051336
-0.000181651
0.00514087
-0.000173283
0.00514795
-0.000165195
0.00515484
-0.000157412
0.00516154
-0.00014996
0.00516803
-0.000142863
0.00517432
-0.000136141
0.00518039
-0.0001298
0.00518625
-0.000123835
0.00519188
-0.000118228
0.0051973
-0.000112952
0.00520249
-0.000107972
0.00520746
-0.000103253
0.00521222
-9.87607e-05
-9.44653e-05
0.00492216
-0.000583322
-0.00491967
0.00492541
-0.000567042
0.00492939
-0.000550467
0.00493403
-0.000533688
0.00493931
-0.000516787
0.00494517
-0.000499846
0.00495155
-0.000482941
0.00495841
-0.000466145
0.00496568
-0.000449524
0.00497332
-0.000433141
0.00498127
-0.000417047
0.00498947
-0.000401289
0.00499788
-0.000385905
0.00500645
-0.000370928
0.00501513
-0.000356382
0.00502388
-0.000342284
0.00503264
-0.000328645
0.0050414
-0.000315469
0.00505012
-0.000302756
0.00505876
-0.0002905
0.00506729
-0.000278687
0.00507571
-0.000267302
0.00508399
-0.000256324
0.00509212
-0.000245728
0.00510008
-0.000235487
0.00510788
-0.000225574
0.0051155
-0.000215965
0.00512296
-0.000206636
0.00513025
-0.000197575
0.00513738
-0.000188776
0.00514434
-0.000180243
0.00515113
-0.00017199
0.00515776
-0.000164039
0.00516421
-0.000156414
0.00517049
-0.000149138
0.00517658
-0.000142228
0.00518247
-0.000135692
0.00518816
-0.000129525
0.00519364
-0.000123711
0.00519891
-0.000118226
0.00520398
-0.000113037
0.00520884
-0.000108111
0.00521349
-0.000103417
-9.8926e-05
0.0049563
-0.00058374
-0.00495588
0.00495755
-0.000568293
0.0049596
-0.000552513
0.0049624
-0.000536487
0.0049659
-0.000520293
0.00497006
-0.000504009
0.00497483
-0.000487709
0.00498015
-0.000471464
0.00498597
-0.00045534
0.00499222
-0.000439397
0.00499886
-0.000423688
0.00500584
-0.000408261
0.00501309
-0.000393155
0.00502056
-0.000378404
0.00502822
-0.000364035
0.005036
-0.000350068
0.00504387
-0.000336517
0.00505179
-0.000323389
0.00505972
-0.000310688
0.00506764
-0.000298411
0.0050755
-0.000286549
0.00508329
-0.000275091
0.00509098
-0.000264019
0.00509857
-0.000253312
0.00510603
-0.00024295
0.00511336
-0.000232907
0.00512056
-0.000223162
0.00512762
-0.000213696
0.00513454
-0.000204496
0.00514132
-0.000195558
0.00514796
-0.000186886
0.00515446
-0.000178492
0.00516082
-0.000170396
0.00516703
-0.000162619
0.00517307
-0.000155184
0.00517895
-0.000148105
0.00518465
-0.000141392
0.00519016
-0.000135039
0.00519549
-0.000129034
0.00520061
-0.000123353
0.00520555
-0.000117968
0.00521028
-0.000112848
0.00521483
-0.000107962
-0.000103285
0.004989
-0.000582302
-0.00499043
0.00498845
-0.000567744
0.00498875
-0.000552817
0.00498986
-0.000537602
0.00499175
-0.000522176
0.00499435
-0.000506611
0.00499762
-0.000490979
0.00500151
-0.00047535
0.00500595
-0.000459787
0.0050109
-0.000444349
0.00501631
-0.00042909
0.0050221
-0.000414057
0.00502824
-0.000399292
0.00503466
-0.00038483
0.00504133
-0.000370698
0.00504818
-0.000356921
0.00505518
-0.000343514
0.00506228
-0.00033049
0.00506944
-0.000317854
0.00507664
-0.000305606
0.00508383
-0.000293744
0.005091
-0.000282257
0.00509812
-0.000271134
0.00510516
-0.000260359
0.00511213
-0.000249912
0.00511899
-0.000239775
0.00512576
-0.000229928
0.00513242
-0.000220355
0.00513897
-0.000211045
0.0051454
-0.000201995
0.00515173
-0.000193208
0.00515793
-0.000184696
0.00516401
-0.000176476
0.00516996
-0.000168569
0.00517577
-0.000160993
0.00518143
-0.000153765
0.00518693
-0.000146892
0.00519226
-0.000140371
0.00519742
-0.00013419
0.00520239
-0.000128328
0.00520718
-0.00012276
0.00521179
-0.000117457
0.00521622
-0.000112391
-0.000107536
0.00502019
-0.000579221
-0.00502327
0.00501803
-0.000565589
0.00501677
-0.000551555
0.00501636
-0.000537196
0.00501677
-0.000522583
0.00501794
-0.000507784
0.00501984
-0.000492871
0.00502239
-0.000477908
0.00502556
-0.000462957
0.00502929
-0.000448078
0.00503353
-0.000433323
0.00503821
-0.000418739
0.00504329
-0.000404369
0.00504871
-0.000390249
0.00505442
-0.000376409
0.00506037
-0.000362874
0.00506652
-0.000349664
0.00507282
-0.000336793
0.00507924
-0.00032427
0.00508573
-0.0003121
0.00509227
-0.000300282
0.00509882
-0.000288811
0.00510537
-0.000277678
0.00511188
-0.000266873
0.00511835
-0.000256379
0.00512475
-0.000246181
0.00513109
-0.000236264
0.00513735
-0.000226614
0.00514352