/*--------------------------------*- C++ -*----------------------------------*\
| =========                 |                                                 |
| \\      /  F ield         | OpenFOAM: The Open Source CFD Toolbox           |
|  \\    /   O peration     | Version:  2412                                  |
|   \\  /    A nd           | Website:  www.openfoam.com                      |
|    \\/     M anipulation  |                                                 |
\*---------------------------------------------------------------------------*/
FoamFile
{
    version     2.0;
    format      ascii;
    arch        "LSB;label=32;scalar=64";
    class       volScalarField;
    location    "18.5";
    object      p;
}
// * * * * * * * * * * * * * * * * * * * * * * * * * * * * * * * * * * * * * //

dimensions      [0 2 -2 0 0 0 0];

internalField   nonuniform List<scalar> 
5285
(
-7.33829e-06
-6.85732e-06
-6.40842e-06
-5.98894e-06
-5.5966e-06
-5.22941e-06
-4.88543e-06
-4.56296e-06
-4.26043e-06
-3.97646e-06
-3.70975e-06
-3.45915e-06
-3.22353e-06
-3.00187e-06
-2.79331e-06
-2.59705e-06
-2.41233e-06
-2.23848e-06
-2.07484e-06
-1.92081e-06
-1.77589e-06
-1.63964e-06
-1.51155e-06
-1.3912e-06
-1.27817e-06
-1.17208e-06
-1.0726e-06
-9.79438e-07
-8.92241e-07
-8.10673e-07
-7.34508e-07
-7.47681e-06
-6.97657e-06
-6.5103e-06
-6.07513e-06
-5.66871e-06
-5.28891e-06
-4.93372e-06
-4.60132e-06
-4.29005e-06
-3.9984e-06
-3.725e-06
-3.46859e-06
-3.22799e-06
-3.00211e-06
-2.79e-06
-2.59077e-06
-2.40362e-06
-2.22781e-06
-2.06264e-06
-1.90746e-06
-1.76172e-06
-1.62491e-06
-1.49651e-06
-1.37605e-06
-1.26309e-06
-1.15724e-06
-1.05811e-06
-9.65384e-07
-8.78706e-07
-7.97728e-07
-7.22195e-07
-6.5184e-07
-5.86324e-07
-5.25429e-07
-4.68862e-07
-4.16426e-07
-3.67863e-07
-3.23008e-07
-2.8148e-07
-2.43432e-07
-2.079e-07
-1.76187e-07
-1.45302e-07
-1.20371e-07
-9.14458e-08
-7.58676e-08
-4.27381e-08
-4.45605e-08
6.61192e-09
-3.17861e-08
6.62124e-08
-4.67864e-08
1.48771e-07
-1.00141e-07
2.64614e-07
-1.94031e-07
4.08055e-07
-3.06457e-07
5.41271e-07
-3.79125e-07
5.93735e-07
-3.34461e-07
5.01305e-07
-1.37409e-07
2.84369e-07
1.26703e-07
1.04145e-07
2.43153e-07
2.12511e-07
-2.32555e-08
8.16016e-07
-7.60844e-06
-7.08985e-06
-6.60686e-06
-6.15659e-06
-5.7366e-06
-5.34464e-06
-4.97864e-06
-4.63666e-06
-4.31694e-06
-4.0179e-06
-3.73805e-06
-3.47606e-06
-3.23067e-06
-3.00073e-06
-2.7852e-06
-2.58315e-06
-2.39369e-06
-2.21603e-06
-2.04942e-06
-1.89318e-06
-1.74669e-06
-1.6094e-06
-1.48075e-06
-1.36025e-06
-1.24743e-06
-1.14185e-06
-1.04311e-06
-9.50871e-07
-8.64753e-07
-7.84398e-07
-7.09535e-07
-6.39848e-07
-5.75031e-07
-5.14841e-07
-4.58981e-07
-4.07241e-07
-3.59355e-07
-3.15155e-07
-2.74259e-07
-2.36813e-07
-2.01866e-07
-1.70694e-07
-1.40341e-07
-1.15854e-07
-8.74377e-08
-7.21753e-08
-3.96146e-08
-4.15145e-08
8.88233e-09
-2.91453e-08
6.75818e-08
-4.42708e-08
1.49151e-07
-9.7486e-08
2.63974e-07
-1.91201e-07
4.06649e-07
-3.03794e-07
5.39776e-07
-3.77382e-07
5.93022e-07
-3.34319e-07
5.01823e-07
-1.3887e-07
2.85865e-07
1.24154e-07
1.0633e-07
2.39886e-07
2.15754e-07
-2.70864e-08
8.24045e-07
-7.73288e-06
-7.19671e-06
-6.69766e-06
-6.23292e-06
-5.79991e-06
-5.3963e-06
-5.0199e-06
-4.66872e-06
-4.3409e-06
-4.03475e-06
-3.74872e-06
-3.48138e-06
-3.23142e-06
-2.9976e-06
-2.77883e-06
-2.57409e-06
-2.38246e-06
-2.20307e-06
-2.03514e-06
-1.87793e-06
-1.73078e-06
-1.59308e-06
-1.46426e-06
-1.34378e-06
-1.23114e-06
-1.12589e-06
-1.0276e-06
-9.35889e-07
-8.50372e-07
-7.70675e-07
-6.96516e-07
-6.2753e-07
-5.63447e-07
-5.03988e-07
-4.48859e-07
-3.97837e-07
-3.50648e-07
-3.07123e-07
-2.66875e-07
-2.30047e-07
-1.95702e-07
-1.65081e-07
-1.35275e-07
-1.11241e-07
-8.33473e-08
-6.84064e-08
-3.64283e-08
-3.8404e-08
1.1197e-08
-2.64471e-08
6.89738e-08
-4.16959e-08
1.49528e-07
-9.4765e-08
2.63301e-07
-1.88291e-07
4.05188e-07
-3.01052e-07
5.38225e-07
-3.75577e-07
5.92261e-07
-3.34132e-07
5.02276e-07
-1.40248e-07
2.87198e-07
1.2181e-07
1.08168e-07
2.37003e-07
2.1838e-07
-3.02748e-08
8.31009e-07
-7.84968e-06
-7.29662e-06
-6.78227e-06
-6.30372e-06
-5.85828e-06
-5.44354e-06
-5.05724e-06
-4.69727e-06
-4.36171e-06
-4.04878e-06
-3.75686e-06
-3.48443e-06
-3.23012e-06
-2.99263e-06
-2.77079e-06
-2.56354e-06
-2.36987e-06
-2.18888e-06
-2.01973e-06
-1.86165e-06
-1.71393e-06
-1.57592e-06
-1.447e-06
-1.32661e-06
-1.21423e-06
-1.10937e-06
-1.01157e-06
-9.20432e-07
-8.35559e-07
-7.56558e-07
-6.83132e-07
-6.14881e-07
-5.51566e-07
-4.92867e-07
-4.38494e-07
-3.88212e-07
-3.41741e-07
-2.98911e-07
-2.5933e-07
-2.23136e-07
-1.89406e-07
-1.59348e-07
-1.30103e-07
-1.06534e-07
-7.91747e-08
-6.45609e-08
-3.31794e-08
-3.52292e-08
1.35552e-08
-2.36914e-08
7.03876e-08
-3.90616e-08
1.49899e-07
-9.19774e-08
2.62595e-07
-1.85302e-07
4.03672e-07
-2.98229e-07
5.36615e-07
-3.73711e-07
5.9145e-07
-3.33898e-07
5.02661e-07
-1.41536e-07
2.88349e-07
1.19695e-07
1.09622e-07
2.34546e-07
2.20322e-07
-3.27592e-08
8.36786e-07
-7.95802e-06
-7.389e-06
-6.86018e-06
-6.36854e-06
-5.91132e-06
-5.48602e-06
-5.09031e-06
-4.722e-06
-4.3791e-06
-4.05975e-06
-3.76224e-06
-3.48501e-06
-3.2266e-06
-2.98565e-06
-2.76094e-06
-2.55134e-06
-2.35579e-06
-2.17335e-06
-2.00312e-06
-1.84429e-06
-1.69609e-06
-1.55786e-06
-1.42893e-06
-1.30871e-06
-1.19664e-06
-1.09222e-06
-9.94977e-07
-9.04468e-07
-8.20286e-07
-7.42023e-07
-6.69367e-07
-6.01908e-07
-5.39389e-07
-4.81479e-07
-4.27887e-07
-3.78369e-07
-3.32638e-07
-2.90521e-07
-2.51626e-07
-2.16082e-07
-1.82981e-07
-1.535e-07
-1.24827e-07
-1.01733e-07
-7.49217e-08
-6.0641e-08
-2.98686e-08
-3.19921e-08
1.59559e-08
-2.08796e-08
7.18227e-08
-3.63691e-08
1.50265e-07
-8.91221e-08
2.61856e-07
-1.82232e-07
4.02102e-07
-2.95326e-07
5.34947e-07
-3.71783e-07
5.90591e-07
-3.33615e-07
5.02973e-07
-1.42724e-07
2.89307e-07
1.17835e-07
1.10655e-07
2.32563e-07
2.21524e-07
-3.44757e-08
8.41256e-07
-8.05763e-06
-7.47364e-06
-6.93119e-06
-6.42721e-06
-5.95886e-06
-5.5236e-06
-5.11899e-06
-4.74281e-06
-4.39298e-06
-4.06757e-06
-3.76481e-06
-3.48306e-06
-3.2208e-06
-2.97663e-06
-2.74926e-06
-2.53749e-06
-2.34023e-06
-2.15648e-06
-1.98529e-06
-1.82582e-06
-1.67726e-06
-1.53889e-06
-1.41004e-06
-1.29006e-06
-1.17839e-06
-1.07448e-06
-9.77837e-07
-8.88007e-07
-8.04562e-07
-7.2708e-07
-6.5523e-07
-5.88593e-07
-5.269e-07
-4.69809e-07
-4.17025e-07
-3.68295e-07
-3.23326e-07
-2.81944e-07
-2.43754e-07
-2.08877e-07
-1.76421e-07
-1.4753e-07
-1.19444e-07
-9.68365e-08
-7.05846e-08
-5.66437e-08
-2.64935e-08
-2.86907e-08
1.84002e-08
-1.80102e-08
7.32793e-08
-3.36174e-08
1.50625e-07
-8.61985e-08
2.61081e-07
-1.79082e-07
4.00474e-07
-2.92345e-07
5.33218e-07
-3.69796e-07
5.89681e-07
-3.33288e-07
5.03205e-07
-1.4381e-07
2.90048e-07
1.16247e-07
1.11221e-07
2.31093e-07
2.21905e-07
-3.53691e-08
8.44291e-07
-8.14824e-06
-7.55025e-06
-6.99503e-06
-6.47947e-06
-6.00069e-06
-5.55607e-06
-5.14312e-06
-4.75955e-06
-4.40322e-06
-4.07213e-06
-3.76446e-06
-3.4785e-06
-3.21267e-06
-2.96551e-06
-2.73569e-06
-2.52194e-06
-2.32314e-06
-2.13823e-06
-1.96623e-06
-1.80624e-06
-1.65742e-06
-1.51902e-06
-1.39033e-06
-1.27068e-06
-1.15946e-06
-1.05613e-06
-9.60148e-07
-8.7105e-07
-7.8839e-07
-7.11731e-07
-6.40724e-07
-5.74944e-07
-5.14107e-07
-4.57865e-07
-4.05916e-07
-3.57998e-07
-3.13815e-07
-2.73186e-07
-2.35721e-07
-2.01528e-07
-1.69732e-07
-1.41443e-07
-1.13956e-07
-9.18467e-08
-6.61669e-08
-5.2572e-08
-2.30571e-08
-2.53273e-08
2.08861e-08
-1.5085e-08
7.47557e-08
-3.08073e-08
1.50978e-07
-8.32066e-08
2.6027e-07
-1.75852e-07
3.98788e-07
-2.89283e-07
5.31429e-07
-3.67749e-07
5.8872e-07
-3.32914e-07
5.03354e-07
-1.44784e-07
2.90559e-07
1.1496e-07
1.11283e-07
2.30186e-07
2.21407e-07
-3.53737e-08
8.45779e-07
-8.22949e-06
-7.6185e-06
-7.05142e-06
-6.52508e-06
-6.03658e-06
-5.58323e-06
-5.16251e-06
-4.77206e-06
-4.40968e-06
-4.07332e-06
-3.76109e-06
-3.47123e-06
-3.20211e-06
-2.95223e-06
-2.72017e-06
-2.50465e-06
-2.30449e-06
-2.11858e-06
-1.9459e-06
-1.78551e-06
-1.63656e-06
-1.49823e-06
-1.36979e-06
-1.25054e-06
-1.13986e-06
-1.03716e-06
-9.41907e-07
-8.53595e-07
-7.71768e-07
-6.95976e-07
-6.25851e-07
-5.60963e-07
-5.01015e-07
-4.45651e-07
-3.94564e-07
-3.47483e-07
-3.04107e-07
-2.64253e-07
-2.2753e-07
-1.94038e-07
-1.62916e-07
-1.35243e-07
-1.08368e-07
-8.67666e-08
-6.16709e-08
-4.84279e-08
-1.95613e-08
-2.19037e-08
2.34119e-08
-1.21049e-08
7.62502e-08
-2.79393e-08
1.51321e-07
-8.01462e-08
2.59421e-07
-1.7254e-07
3.97043e-07
-2.86141e-07
5.2958e-07
-3.65643e-07
5.8771e-07
-3.32491e-07
5.0342e-07
-1.45638e-07
2.90825e-07
1.14e-07
1.10805e-07
2.29892e-07
2.19969e-07
-3.44273e-08
8.45609e-07
-8.30109e-06
-7.67811e-06
-7.10007e-06
-6.56379e-06
-6.0663e-06
-5.60489e-06
-5.17699e-06
-4.78018e-06
-4.41221e-06
-4.071e-06
-3.75458e-06
-3.46116e-06
-3.18905e-06
-2.9367e-06
-2.70264e-06
-2.48556e-06
-2.28422e-06
-2.09747e-06
-1.92427e-06
-1.76362e-06
-1.61464e-06
-1.47649e-06
-1.34839e-06
-1.22964e-06
-1.11957e-06
-1.01758e-06
-9.23109e-07
-8.35639e-07
-7.54694e-07
-6.79813e-07
-6.1061e-07
-5.46652e-07
-4.87625e-07
-4.3317e-07
-3.82971e-07
-3.36751e-07
-2.94205e-07
-2.55146e-07
-2.19184e-07
-1.8641e-07
-1.55976e-07
-1.28932e-07
-1.02681e-07
-8.15978e-08
-5.70981e-08
-4.42128e-08
-1.60076e-08
-1.84208e-08
2.59764e-08
-9.07072e-09
7.77619e-08
-2.50138e-08
1.51655e-07
-7.70169e-08
2.58533e-07
-1.69147e-07
3.95238e-07
-2.82919e-07
5.27669e-07
-3.63478e-07
5.86651e-07
-3.32021e-07
5.03399e-07
-1.46364e-07
2.90831e-07
1.13393e-07
1.09745e-07
2.3026e-07
2.17531e-07
-3.2471e-08
8.43674e-07
-8.36273e-06
-7.72881e-06
-7.14076e-06
-6.59537e-06
-6.08966e-06
-5.62087e-06
-5.18639e-06
-4.78376e-06
-4.4107e-06
-4.06506e-06
-3.74485e-06
-3.44821e-06
-3.17342e-06
-2.91886e-06
-2.68306e-06
-2.46463e-06
-2.2623e-06
-2.07489e-06
-1.90131e-06
-1.74055e-06
-1.59166e-06
-1.4538e-06
-1.32614e-06
-1.20797e-06
-1.09859e-06
-9.97373e-07
-9.03749e-07
-8.17177e-07
-7.37166e-07
-6.63241e-07
-5.95001e-07
-5.3201e-07
-4.73938e-07
-4.20423e-07
-3.71139e-07
-3.25805e-07
-2.84111e-07
-2.45868e-07
-2.10684e-07
-1.78644e-07
-1.48913e-07
-1.22511e-07
-9.68969e-08
-7.63418e-08
-5.24499e-08
-3.99279e-08
-1.23974e-08
-1.48797e-08
2.85785e-08
-5.98322e-09
7.92894e-08
-2.2031e-08
1.51978e-07
-7.38186e-08
2.57605e-07
-1.65671e-07
3.93372e-07
-2.79616e-07
5.25698e-07
-3.61255e-07
5.85543e-07
-3.31503e-07
5.03288e-07
-1.46957e-07
2.90561e-07
1.13164e-07
1.08065e-07
2.31338e-07
2.14029e-07
-2.94484e-08
8.39873e-07
-8.41415e-06
-7.77036e-06
-7.17327e-06
-6.61963e-06
-6.10647e-06
-5.631e-06
-5.19056e-06
-4.78268e-06
-4.40502e-06
-4.0554e-06
-3.73179e-06
-3.43229e-06
-3.15513e-06
-2.89866e-06
-2.66136e-06
-2.44181e-06
-2.23869e-06
-2.0508e-06
-1.87701e-06
-1.71626e-06
-1.5676e-06
-1.43013e-06
-1.30302e-06
-1.18551e-06
-1.0769e-06
-9.76538e-07
-8.83825e-07
-7.98209e-07
-7.19183e-07
-6.46261e-07
-5.79026e-07
-5.17039e-07
-4.59956e-07
-4.0741e-07
-3.5907e-07
-3.14646e-07
-2.73827e-07
-2.36419e-07
-2.02033e-07
-1.70743e-07
-1.4173e-07
-1.15982e-07
-9.10173e-08
-7.10003e-08
-4.77278e-08
-3.55746e-08
-8.73184e-09
-1.12816e-08
3.12169e-08
-2.84314e-09
8.08316e-08
-1.89913e-08
1.52288e-07
-7.05512e-08
2.56635e-07
-1.62113e-07
3.91444e-07
-2.76232e-07
5.23666e-07
-3.58974e-07
5.84387e-07
-3.30939e-07
5.03087e-07
-1.4741e-07
2.90001e-07
1.13338e-07
1.05724e-07
2.33176e-07
2.09406e-07
-2.53057e-08
8.34115e-07
-8.45512e-06
-7.80255e-06
-7.19738e-06
-6.63639e-06
-6.11657e-06
-5.63512e-06
-5.18937e-06
-4.77681e-06
-4.39506e-06
-4.04193e-06
-3.71533e-06
-3.41333e-06
-3.13412e-06
-2.87603e-06
-2.63749e-06
-2.41705e-06
-2.21336e-06
-2.02517e-06
-1.85132e-06
-1.69074e-06
-1.54243e-06
-1.40548e-06
-1.27902e-06
-1.16227e-06
-1.05451e-06
-9.55069e-07
-8.63333e-07
-7.78732e-07
-7.00744e-07
-6.28872e-07
-5.62685e-07
-5.01741e-07
-4.45681e-07
-3.94135e-07
-3.46765e-07
-3.03277e-07
-2.63356e-07
-2.26803e-07
-1.93233e-07
-1.62709e-07
-1.34429e-07
-1.09348e-07
-8.50444e-08
-6.55751e-08
-4.29335e-08
-3.11544e-08
-5.01258e-09
-7.62756e-09
3.38905e-08
3.48707e-10
8.23874e-08
-1.5895e-08
1.52585e-07
-6.72143e-08
2.55623e-07
-1.58472e-07
3.89452e-07
-2.72766e-07
5.21572e-07
-3.56638e-07
5.83183e-07
-3.30329e-07
5.02793e-07
-1.47719e-07
2.89136e-07
1.13939e-07
1.02685e-07
2.3582e-07
2.03604e-07
-1.99926e-08
8.26314e-07
-8.48544e-06
-7.82517e-06
-7.21293e-06
-6.64547e-06
-6.11981e-06
-5.63311e-06
-5.1827e-06
-4.76603e-06
-4.38073e-06
-4.02454e-06
-3.69537e-06
-3.39125e-06
-3.11034e-06
-2.85093e-06
-2.61142e-06
-2.39033e-06
-2.18627e-06
-1.99797e-06
-1.82424e-06
-1.66397e-06
-1.51615e-06
-1.37982e-06
-1.25412e-06
-1.13823e-06
-1.0314e-06
-9.32962e-07
-8.42271e-07
-7.58745e-07
-6.81849e-07
-6.11075e-07
-5.4598e-07
-4.86116e-07
-4.31115e-07
-3.806e-07
-3.34228e-07
-2.917e-07
-2.52699e-07
-2.17022e-07
-1.84286e-07
-1.54544e-07
-1.27011e-07
-1.0261e-07
-7.898e-08
-6.00679e-08
-3.80686e-08
-2.66687e-08
-1.24102e-09
-3.91884e-09
3.65979e-08
3.59153e-09
8.39554e-08
-1.27425e-08
1.52867e-07
-6.38078e-08
2.54566e-07
-1.54748e-07
3.87395e-07
-2.6922e-07
5.19417e-07
-3.54246e-07
5.81935e-07
-3.29676e-07
5.02407e-07
-1.4788e-07
2.87955e-07
1.14989e-07
9.89092e-08
2.39317e-07
1.9657e-07
-1.3463e-08
8.16396e-07
-8.50492e-06
-7.83807e-06
-7.21975e-06
-6.64674e-06
-6.11604e-06
-5.62483e-06
-5.17042e-06
-4.75025e-06
-4.36192e-06
-4.00316e-06
-3.67185e-06
-3.366e-06
-3.08373e-06
-2.8233e-06
-2.5831e-06
-2.36159e-06
-2.15739e-06
-1.96918e-06
-1.79573e-06
-1.63593e-06
-1.48873e-06
-1.35316e-06
-1.22832e-06
-1.11338e-06
-1.00758e-06
-9.10214e-07
-8.20636e-07
-7.38247e-07
-6.62497e-07
-5.9287e-07
-5.28911e-07
-4.70167e-07
-4.16259e-07
-3.66806e-07
-3.21461e-07
-2.79918e-07
-2.4186e-07
-2.07078e-07
-1.75195e-07
-1.46251e-07
-1.1948e-07
-9.57707e-08
-7.28262e-08
-5.44806e-08
-3.31349e-08
-2.21191e-08
2.58138e-09
-1.56665e-10
3.93381e-08
6.88444e-09
8.55347e-08
-9.5342e-09
1.53133e-07
-6.03318e-08
2.53463e-07
-1.5094e-07
3.85273e-07
-2.65593e-07
5.17201e-07
-3.51802e-07
5.80644e-07
-3.28982e-07
5.0193e-07
-1.47888e-07
2.86444e-07
1.16511e-07
9.43612e-08
2.43711e-07
1.88254e-07
-5.67544e-09
8.04298e-07
-8.51341e-06
-7.8411e-06
-7.21771e-06
-6.64005e-06
-6.10515e-06
-5.61018e-06
-5.15244e-06
-4.72937e-06
-4.33856e-06
-3.97772e-06
-3.6447e-06
-3.3375e-06
-3.05423e-06
-2.7931e-06
-2.55248e-06
-2.33082e-06
-2.12669e-06
-1.93876e-06
-1.76578e-06
-1.60661e-06
-1.46017e-06
-1.32548e-06
-1.20161e-06
-1.08772e-06
-9.83034e-07
-8.86822e-07
-7.98427e-07
-7.17237e-07
-6.4269e-07
-5.7426e-07
-5.1148e-07
-4.53896e-07
-4.01116e-07
-3.52757e-07
-3.08466e-07
-2.67933e-07
-2.3084e-07
-1.96975e-07
-1.65961e-07
-1.37832e-07
-1.11837e-07
-8.88319e-08
-6.6585e-08
-4.8815e-08
-2.81341e-08
-1.75072e-08
6.45315e-09
3.6577e-09
4.21096e-08
1.02265e-08
8.7124e-08
-6.27074e-09
1.53382e-07
-5.67865e-08
2.52315e-07
-1.47048e-07
3.83085e-07
-2.61887e-07
5.14926e-07
-3.49308e-07
5.79314e-07
-3.28252e-07
5.01363e-07
-1.47742e-07
2.84595e-07
1.18525e-07
8.90073e-08
2.49045e-07
1.78613e-07
3.40609e-09
7.89967e-07
-8.51079e-06
-7.83412e-06
-7.20668e-06
-6.62531e-06
-6.08703e-06
-5.58905e-06
-5.12866e-06
-4.70331e-06
-4.31056e-06
-3.94814e-06
-3.61387e-06
-3.30572e-06
-3.02179e-06
-2.76028e-06
-2.51953e-06
-2.29797e-06
-2.09415e-06
-1.9067e-06
-1.73437e-06
-1.57599e-06
-1.43046e-06
-1.29677e-06
-1.17399e-06
-1.06125e-06
-9.57761e-07
-8.62783e-07
-7.75643e-07
-6.95715e-07
-6.22427e-07
-5.55244e-07
-4.9369e-07
-4.37304e-07
-3.85688e-07
-3.38454e-07
-2.95245e-07
-2.55748e-07
-2.19643e-07
-1.86714e-07
-1.56588e-07
-1.29289e-07
-1.04084e-07
-8.1796e-08
-6.02584e-08
-4.30729e-08
-2.30679e-08
-1.28344e-08
1.03726e-08
7.52323e-09
4.49108e-08
1.36176e-08
8.87212e-08
-2.95103e-09
1.53611e-07
-5.31688e-08
2.51114e-07
-1.43067e-07
3.80823e-07
-2.58092e-07
5.12583e-07
-3.46756e-07
5.77937e-07
-3.27478e-07
5.007e-07
-1.47435e-07
2.82395e-07
1.2105e-07
8.28187e-08
2.55353e-07
1.67607e-07
1.38139e-08
7.73356e-07
-8.49694e-06
-7.81704e-06
-7.18657e-06
-6.6024e-06
-6.0616e-06
-5.56136e-06
-5.09901e-06
-4.67199e-06
-4.27788e-06
-3.91436e-06
-3.57928e-06
-3.2706e-06
-2.98638e-06
-2.72482e-06
-2.48423e-06
-2.26302e-06
-2.05974e-06
-1.87298e-06
-1.70149e-06
-1.54405e-06
-1.39957e-06
-1.26702e-06
-1.14544e-06
-1.03396e-06
-9.3176e-07
-8.38097e-07
-7.52283e-07
-6.73682e-07
-6.01711e-07
-5.35825e-07
-4.75541e-07
-4.20395e-07
-3.69978e-07
-3.23901e-07
-2.81803e-07
-2.43366e-07
-2.08271e-07
-1.76298e-07
-1.47078e-07
-1.20624e-07
-9.62242e-08
-7.4665e-08
-5.38486e-08
-3.72563e-08
-1.79384e-08
-8.10212e-09
1.43379e-08
1.14394e-08
4.77393e-08
1.70586e-08
9.03223e-08
4.2859e-10
1.53813e-07
-4.94704e-08
2.49849e-07
-1.38983e-07
3.78469e-07
-2.5419e-07
5.10148e-07
-3.44122e-07
5.7649e-07
-3.26643e-07
4.99926e-07
-1.46955e-07
2.79832e-07
1.24101e-07
7.57739e-08
2.62663e-07
1.55206e-07
2.55784e-08
7.54424e-07
-8.4718e-06
-7.78977e-06
-7.15728e-06
-6.57125e-06
-6.02876e-06
-5.52704e-06
-5.06342e-06
-4.63536e-06
-4.24043e-06
-3.87634e-06
-3.54091e-06
-3.23209e-06
-2.94795e-06
-2.68666e-06
-2.44653e-06
-2.22595e-06
-2.02343e-06
-1.83758e-06
-1.66711e-06
-1.51079e-06
-1.36751e-06
-1.23623e-06
-1.11597e-06
-1.00584e-06
-9.05028e-07
-8.12762e-07
-7.28348e-07
-6.51139e-07
-5.80542e-07
-5.16005e-07
-4.57038e-07
-4.03171e-07
-3.5399e-07
-3.09101e-07
-2.68141e-07
-2.3079e-07
-1.96727e-07
-1.6573e-07
-1.37434e-07
-1.11841e-07
-8.82595e-08
-6.74412e-08
-4.73575e-08
-3.13671e-08
-1.2747e-08
-3.3124e-09
1.83481e-08
1.54037e-08
5.05957e-08
2.05454e-08
9.19309e-08
3.86062e-09
1.53996e-07
-4.57053e-08
2.48538e-07
-1.34819e-07
3.76051e-07
-2.50215e-07
5.07662e-07
-3.41454e-07
5.75023e-07
-3.25792e-07
4.99079e-07
-1.46327e-07
2.76914e-07
1.27688e-07
6.78437e-08
2.71011e-07
1.41381e-07
3.87076e-08
7.33181e-07
-8.43528e-06
-7.75226e-06
-7.11878e-06
-6.53181e-06
-5.98848e-06
-5.48604e-06
-5.02184e-06
-4.59337e-06
-4.19819e-06
-3.83403e-06
-3.49871e-06
-3.19017e-06
-2.90648e-06
-2.6458e-06
-2.40642e-06
-2.18673e-06
-1.98522e-06
-1.80049e-06
-1.63122e-06
-1.47619e-06
-1.33426e-06
-1.20438e-06
-1.08556e-06
-9.76902e-07
-8.77564e-07
-7.8678e-07
-7.0384e-07
-6.28088e-07
-5.58923e-07
-4.95787e-07
-4.38182e-07
-3.85635e-07
-3.37726e-07
-2.94057e-07
-2.54263e-07
-2.18023e-07
-1.85015e-07
-1.55014e-07
-1.27658e-07
-1.02942e-07
-8.01926e-08
-6.01276e-08
-4.07871e-08
-2.54088e-08
-7.4938e-09
1.52932e-09
2.24076e-08
1.94047e-08
5.34943e-08
2.40525e-08
9.35827e-08
7.28991e-09
1.54237e-07
-4.19808e-08
2.47321e-07
-1.30759e-07
3.73798e-07
-2.46439e-07
5.05434e-07
-3.39081e-07
5.73865e-07
-3.25233e-07
4.98414e-07
-1.45726e-07
2.73723e-07
1.31824e-07
5.89507e-08
2.80495e-07
1.26089e-07
5.31272e-08
7.09805e-07
-8.38834e-06
-7.70547e-06
-7.07203e-06
-6.48504e-06
-5.9417e-06
-5.43931e-06
-4.97523e-06
-4.54696e-06
-4.1521e-06
-3.78837e-06
-3.45361e-06
-3.14575e-06
-2.86286e-06
-2.6031e-06
-2.36475e-06
-2.1462e-06
-1.94591e-06
-1.76249e-06
-1.59459e-06
-1.44099e-06
-1.30054e-06
-1.17216e-06
-1.05487e-06
-9.47747e-07
-8.49949e-07
-7.60697e-07
-6.79274e-07
-6.05014e-07
-5.37309e-07
-4.75597e-07
-4.19371e-07
-3.68157e-07
-3.21529e-07
-2.79086e-07
-2.40463e-07
-2.05335e-07
-1.73381e-07
-1.44374e-07
-1.17957e-07
-9.4115e-08
-7.21931e-08
-5.28783e-08
-3.42752e-08
-1.95074e-08
-2.28857e-09
6.31945e-09
2.64333e-08
2.33538e-08
5.63806e-08
2.74952e-08
9.5259e-08
1.06198e-08
1.54565e-07
-3.84246e-08
2.46291e-07
-1.26976e-07
3.71864e-07
-2.43071e-07
5.03657e-07
-3.37214e-07
5.73203e-07
-3.25126e-07
4.98064e-07
-1.45245e-07
2.70355e-07
1.36441e-07
4.92277e-08
2.90977e-07
1.09644e-07
6.84787e-08
6.84899e-07
-8.33125e-06
-7.64959e-06
-7.01714e-06
-6.43099e-06
-5.88844e-06
-5.38679e-06
-4.92347e-06
-4.49599e-06
-4.10198e-06
-3.73916e-06
-3.40538e-06
-3.09859e-06
-2.81685e-06
-2.55832e-06
-2.32127e-06
-2.10409e-06
-1.90524e-06
-1.72331e-06
-1.55695e-06
-1.40493e-06
-1.26607e-06
-1.13931e-06
-1.02364e-06
-9.18145e-07
-8.2196e-07
-7.34303e-07
-6.54449e-07
-5.81727e-07
-5.15522e-07
-4.55266e-07
-4.00448e-07
-3.50589e-07
-3.0526e-07
-2.6406e-07
-2.2662e-07
-1.92615e-07
-1.61724e-07
-1.33718e-07
-1.08246e-07
-8.52815e-08
-6.4192e-08
-4.56275e-08
-2.77681e-08
-1.36044e-08
2.90419e-09
1.11192e-08
3.04305e-08
2.73365e-08
5.92021e-08
3.10262e-08
9.67932e-08
1.41463e-08
1.54608e-07
-3.4489e-08
2.44756e-07
-1.22561e-07
3.69157e-07
-2.38814e-07
5.00893e-07
-3.34321e-07
5.71524e-07
-3.24085e-07
4.96891e-07
-1.4409e-07
2.66396e-07
1.41583e-07
3.88635e-08
3.02209e-07
9.20189e-08
8.52704e-08
6.57469e-07
-8.26207e-06
-7.58266e-06
-6.95217e-06
-6.36777e-06
-5.82682e-06
-5.32668e-06
-4.8648e-06
-4.43874e-06
-4.04614e-06
-3.68475e-06
-3.35242e-06
-3.04712e-06
-2.76692e-06
-2.50996e-06
-2.27454e-06
-2.05903e-06
-1.86189e-06
-1.68169e-06
-1.51709e-06
-1.36683e-06
-1.22976e-06
-1.10479e-06
-9.90895e-07
-8.87156e-07
-7.92709e-07
-7.06762e-07
-6.28583e-07
-5.57495e-07
-4.92876e-07
-4.34155e-07
-3.80817e-07
-3.32381e-07
-2.88413e-07
-2.4851e-07
-2.12304e-07
-1.79468e-07
-1.49683e-07
-1.22717e-07
-9.8224e-08
-7.61684e-08
-5.59411e-08
-3.81518e-08
-2.10631e-08
-7.52018e-09
8.24904e-09
1.60689e-08
3.45349e-08
3.14551e-08
6.20769e-08
3.47056e-08
9.83041e-08
1.78732e-08
1.54514e-07
-3.02529e-08
2.42931e-07
-1.17713e-07
3.66004e-07
-2.34016e-07
4.97593e-07
-3.30883e-07
5.69342e-07
-3.226e-07
4.95287e-07
-1.42526e-07
2.61872e-07
1.47401e-07
2.74422e-08
3.14647e-07
7.26629e-08
1.03822e-07
6.27028e-07
-8.18018e-06
-7.50411e-06
-6.8766e-06
-6.29488e-06
-5.75639e-06
-5.25854e-06
-4.79883e-06
-4.37484e-06
-3.98425e-06
-3.62484e-06
-3.29447e-06
-2.99112e-06
-2.71286e-06
-2.45786e-06
-2.2244e-06
-2.01086e-06
-1.81571e-06
-1.6375e-06
-1.47489e-06
-1.32662e-06
-1.19153e-06
-1.06851e-06
-9.56555e-07
-8.54723e-07
-7.62147e-07
-6.78031e-07
-6.01636e-07
-5.32281e-07
-4.69341e-07
-4.12239e-07
-3.60458e-07
-3.13513e-07
-2.70969e-07
-2.32421e-07
-1.97501e-07
-1.65883e-07
-1.37247e-07
-1.1136e-07
-8.78832e-08
-6.67694e-08
-4.74347e-08
-3.04472e-08
-1.41551e-08
-1.25343e-09
1.37523e-08
2.1165e-08
3.87581e-08
3.56956e-08
6.50314e-08
3.84965e-08
9.98494e-08
2.17194e-08
1.54399e-07
-2.58729e-08
2.41024e-07
-1.12695e-07
3.62728e-07
-2.2906e-07
4.94186e-07
-3.27359e-07
5.67117e-07
-3.211e-07
4.93607e-07
-1.40805e-07
2.56907e-07
1.53892e-07
1.4872e-08
3.28402e-07
5.15167e-08
1.24037e-07
5.9381e-07
-8.08493e-06
-7.41334e-06
-6.78987e-06
-6.21181e-06
-5.67669e-06
-5.18196e-06
-4.72517e-06
-4.30395e-06
-3.91601e-06
-3.55915e-06
-3.23126e-06
-2.93033e-06
-2.65445e-06
-2.40181e-06
-2.17068e-06
-1.95944e-06
-1.76657e-06
-1.59062e-06
-1.43025e-06
-1.2842e-06
-1.15128e-06
-1.03041e-06
-9.20558e-07
-8.20785e-07
-7.30221e-07
-6.48063e-07
-5.73568e-07
-5.06052e-07
-4.44885e-07
-3.8949e-07
-3.39345e-07
-2.93964e-07
-2.5291e-07
-2.15778e-07
-1.82199e-07
-1.51847e-07
-1.24406e-07
-9.96395e-08
-7.72159e-08
-5.70779e-08
-3.86668e-08
-2.25088e-08
-7.03963e-09
5.1993e-09
1.9418e-08
2.64094e-08
4.31043e-08
4.00578e-08
6.80706e-08
4.2396e-08
1.01436e-07
2.56781e-08
1.54272e-07
-2.13595e-08
2.39047e-07
-1.07522e-07
3.59344e-07
-2.23962e-07
4.90691e-07
-3.23771e-07
5.64873e-07
-3.19611e-07
4.91877e-07
-1.38952e-07
2.51514e-07
1.61049e-07
1.14188e-09
3.43492e-07
2.85544e-08
1.45933e-07
5.57815e-07
-7.97565e-06
-7.30973e-06
-6.69141e-06
-6.11805e-06
-5.58724e-06
-5.09651e-06
-4.64344e-06
-4.22571e-06
-3.84108e-06
-3.48738e-06
-3.16253e-06
-2.86453e-06
-2.5915e-06
-2.34162e-06
-2.1132e-06
-1.90461e-06
-1.71434e-06
-1.54094e-06
-1.38306e-06
-1.23946e-06
-1.10894e-06
-9.90403e-07
-8.82835e-07
-7.85284e-07
-6.96878e-07
-6.16811e-07
-5.44338e-07
-4.78771e-07
-4.19479e-07
-3.65882e-07
-3.17455e-07
-2.73714e-07
-2.34218e-07
-1.98564e-07
-1.66383e-07
-1.37349e-07
-1.1115e-07
-8.75462e-08
-6.62144e-08
-4.7087e-08
-2.96314e-08
-1.43314e-08
2.87901e-10
1.18416e-08
2.52494e-08
3.18047e-08
4.75763e-08
4.45435e-08
7.11965e-08
4.6406e-08
1.03065e-07
2.97539e-08
1.54129e-07
-1.67009e-08
2.36985e-07
-1.02168e-07
3.55819e-07
-2.18678e-07
4.87057e-07
-3.20064e-07
5.62556e-07
-3.18088e-07
4.90064e-07
-1.36952e-07
2.45693e-07
1.68864e-07
-1.37374e-08
3.59903e-07
3.77433e-09
1.69527e-07
5.19029e-07
-7.85169e-06
-7.1927e-06
-6.58069e-06
-6.0131e-06
-5.48758e-06
-5.00174e-06
-4.55322e-06
-4.13976e-06
-3.75914e-06
-3.40924e-06
-3.088e-06
-2.79347e-06
-2.52376e-06
-2.2771e-06
-2.05178e-06
-1.84621e-06
-1.65887e-06
-1.48831e-06
-1.33321e-06
-1.1923e-06
-1.0644e-06
-9.48416e-07
-8.43317e-07
-7.48158e-07
-6.62065e-07
-5.84229e-07
-5.13905e-07
-4.50402e-07
-3.93089e-07
-3.41385e-07
-2.94764e-07
-2.52741e-07
-2.14875e-07
-1.80764e-07
-1.50039e-07
-1.22378e-07
-9.74682e-08
-7.50713e-08
-5.48711e-08
-3.67904e-08
-2.0323e-08
-5.91046e-09
7.83179e-09
1.86767e-08
3.12503e-08
3.73528e-08
5.21772e-08
4.91533e-08
7.44125e-08
5.05257e-08
1.04739e-07
3.39452e-08
1.53972e-07
-1.18964e-08
2.34834e-07
-9.6625e-08
3.52139e-07
-2.1319e-07
4.83261e-07
-3.16215e-07
5.60145e-07
-3.16516e-07
4.88161e-07
-1.34807e-07
2.39449e-07
1.7732e-07
-2.97505e-08
3.77613e-07
-2.28095e-08
1.94808e-07
4.77476e-07
-7.71241e-06
-7.06164e-06
-6.45715e-06
-5.89644e-06
-5.37724e-06
-4.89724e-06
-4.45414e-06
-4.04573e-06
-3.66985e-06
-3.32442e-06
-3.00741e-06
-2.71689e-06
-2.45102e-06
-2.20804e-06
-1.98625e-06
-1.78408e-06
-1.60001e-06
-1.43263e-06
-1.28058e-06
-1.14263e-06
-1.01759e-06
-9.04368e-07
-8.01935e-07
-7.09346e-07
-6.25728e-07
-5.5027e-07
-4.82228e-07
-4.20911e-07
-3.65686e-07
-3.15974e-07
-2.71248e-07
-2.31025e-07
-1.94863e-07
-1.62361e-07
-1.33155e-07
-1.06921e-07
-8.33511e-08
-6.22062e-08
-4.31785e-08
-2.61815e-08
-1.0736e-08
2.75868e-09
1.55962e-08
2.57078e-08
3.7424e-08
4.30554e-08
5.69104e-08
5.38873e-08
7.77226e-08
5.47528e-08
1.06463e-07
3.8248e-08
1.53806e-07
-6.95014e-09
2.32597e-07
-9.08935e-08
3.48302e-07
-2.07493e-07
4.79295e-07
-3.12212e-07
5.57629e-07
-3.14891e-07
4.86169e-07
-1.3253e-07
2.32802e-07
1.86393e-07
-4.68734e-08
3.96592e-07
-5.11665e-08
2.21747e-07
4.33216e-07
-7.55717e-06
-6.91598e-06
-6.32024e-06
-5.76756e-06
-5.25575e-06
-4.78256e-06
-4.34579e-06
-3.94326e-06
-3.57289e-06
-3.23262e-06
-2.92047e-06
-2.63456e-06
-2.37307e-06
-2.13424e-06
-1.91643e-06
-1.71806e-06
-1.53764e-06
-1.37375e-06
-1.22507e-06
-1.09035e-06
-9.68418e-07
-8.58182e-07
-7.5862e-07
-6.68787e-07
-5.87812e-07
-5.14887e-07
-4.49266e-07
-3.90259e-07
-3.37237e-07
-2.89621e-07
-2.46884e-07
-2.08545e-07
-1.74164e-07
-1.43342e-07
-1.15716e-07
-9.0967e-08
-6.87887e-08
-4.89425e-08
-3.11293e-08
-1.52543e-08
-8.65058e-10
1.16804e-08
2.35852e-08
3.29377e-08
4.37738e-08
4.89141e-08
6.17793e-08
5.87453e-08
8.1131e-08
5.90853e-08
1.08242e-07
4.26581e-08
1.53638e-07
-1.86691e-09
2.3028e-07
-8.49745e-08
3.44306e-07
-2.01578e-07
4.75146e-07
-3.08044e-07
5.54996e-07
-3.1321e-07
4.84092e-07
-1.30135e-07
2.2577e-07
1.96052e-07
-6.5069e-08
4.1679e-07
-8.12458e-08
2.50292e-07
3.86338e-07
-7.38536e-06
-6.75512e-06
-6.16943e-06
-5.62597e-06
-5.12265e-06
-4.6573e-06
-4.22778e-06
-3.832e-06
-3.46792e-06
-3.13354e-06
-2.82693e-06
-2.54624e-06
-2.28967e-06
-2.05551e-06
-1.84214e-06
-1.64799e-06
-1.47159e-06
-1.31155e-06
-1.16655e-06
-1.03535e-06
-9.16789e-07
-8.09777e-07
-7.13301e-07
-6.2642e-07
-5.48266e-07
-4.78032e-07
-4.14977e-07
-3.58413e-07
-3.07712e-07
-2.62299e-07
-2.21648e-07
-1.85281e-07
-1.52761e-07
-1.23691e-07
-9.77111e-08
-7.45051e-08
-5.37716e-08
-3.52721e-08
-1.87166e-08
-4.00298e-09
9.29485e-09
2.08588e-08
3.18025e-08
4.03694e-08
5.03029e-08
5.49305e-08
6.6787e-08
6.3727e-08
8.46414e-08
6.35206e-08
1.10083e-07
4.71706e-08
1.53473e-07
3.34832e-09
2.27887e-07
-7.88688e-08
3.40148e-07
-1.95438e-07
4.70801e-07
-3.03696e-07
5.52233e-07
-3.11463e-07
4.8193e-07
-1.27637e-07
2.18382e-07
2.06256e-07
-8.4287e-08
4.38142e-07
-1.12975e-07
2.8037e-07
3.36965e-07
-7.19639e-06
-6.57852e-06
-6.00419e-06
-5.47118e-06
-4.97748e-06
-4.52102e-06
-4.09973e-06
-3.7116e-06
-3.35463e-06
-3.02689e-06
-2.72651e-06
-2.45166e-06
-2.2006e-06
-1.97164e-06
-1.76319e-06
-1.57371e-06
-1.40174e-06
-1.24591e-06
-1.10492e-06
-9.77538e-07
-8.62618e-07
-7.59077e-07
-6.65911e-07
-5.82185e-07
-5.07035e-07
-4.39661e-07
-3.79322e-07
-3.25337e-07
-2.77081e-07
-2.33981e-07
-1.95518e-07
-1.61214e-07
-1.30637e-07
-1.03393e-07
-7.91266e-08
-5.75248e-08
-3.82908e-08
-2.11874e-08
-5.93402e-09
7.57802e-09
1.97484e-08
3.02977e-08
4.02516e-08
4.80052e-08
5.70141e-08
6.11056e-08
7.19362e-08
6.88321e-08
8.82576e-08
6.8056e-08
1.1199e-07
5.17805e-08
1.53319e-07
8.68976e-09
2.25421e-07
-7.2578e-08
3.35824e-07
-1.89065e-07
4.66248e-07
-2.99152e-07
5.49324e-07
-3.09644e-07
4.79684e-07
-1.25055e-07
2.10668e-07
2.16956e-07
-1.04463e-07
4.60563e-07
-1.46256e-07
3.11881e-07
2.85258e-07
-6.98967e-06
-6.38563e-06
-5.82402e-06
-5.30272e-06
-4.81982e-06
-4.37333e-06
-3.96127e-06
-3.5817e-06
-3.2327e-06
-2.91239e-06
-2.61895e-06
-2.35061e-06
-2.10565e-06
-1.88245e-06
-1.67942e-06
-1.49506e-06
-1.32794e-06
-1.1767e-06
-1.04006e-06
-9.16813e-07
-8.05817e-07
-7.06005e-07
-6.16382e-07
-5.36022e-07
-4.64069e-07
-3.99727e-07
-3.42262e-07
-2.90997e-07
-2.45313e-07
-2.04644e-07
-1.68472e-07
-1.36325e-07
-1.07775e-07
-8.24347e-08
-5.99512e-08
-4.0016e-08
-2.23378e-08
-6.68127e-09
7.22454e-09
1.94937e-08
3.04998e-08
4.00005e-08
4.89357e-08
5.58474e-08
6.39099e-08
6.74407e-08
7.72297e-08
7.40598e-08
9.19834e-08
7.26883e-08
1.1397e-07
5.6482e-08
1.53183e-07
1.41507e-08
2.22889e-07
-6.61049e-08
3.31333e-07
-1.8245e-07
4.61472e-07
-2.94395e-07
5.46251e-07
-3.07743e-07
4.77356e-07
-1.22407e-07
2.02663e-07
2.28092e-07
-1.25519e-07
4.8395e-07
-1.80971e-07
3.447e-07
2.31416e-07
-6.76467e-06
-6.17595e-06
-5.62844e-06
-5.12014e-06
-4.64923e-06
-4.21383e-06
-3.81203e-06
-3.44198e-06
-3.10182e-06
-2.78975e-06
-2.50399e-06
-2.24284e-06
-2.00462e-06
-1.78773e-06
-1.59065e-06
-1.41189e-06
-1.25005e-06
-1.1038e-06
-9.71869e-07
-8.53079e-07
-7.46302e-07
-6.50486e-07
-5.64649e-07
-4.87875e-07
-4.19317e-07
-3.58187e-07
-3.03758e-07
-2.5536e-07
-2.12382e-07
-1.74261e-07
-1.40488e-07
-1.10596e-07
-8.41619e-08
-6.08034e-08
-4.01739e-08
-2.19695e-08
-5.9048e-09
8.25282e-09
2.07645e-08
3.17485e-08
4.15529e-08
4.99703e-08
5.78575e-08
6.38979e-08
7.09927e-08
7.39363e-08
8.267e-08
7.94092e-08
9.58222e-08
7.74143e-08
1.16026e-07
6.1269e-08
1.53072e-07
1.97234e-08
2.20298e-07
-5.94533e-08
3.26674e-07
-1.75588e-07
4.5646e-07
-2.89408e-07
5.42997e-07
-3.05748e-07
4.74945e-07
-1.19715e-07
1.94409e-07
2.39597e-07
-1.47362e-07
5.08184e-07
-2.16973e-07
3.78674e-07
1.75682e-07