/*--------------------------------*- C++ -*----------------------------------*\
| =========                 |                                                 |
| \\      /  F ield         | OpenFOAM: The Open Source CFD Toolbox           |
|  \\    /   O peration     | Version:  2412                                  |
|   \\  /    A nd           | Website:  www.openfoam.com                      |
|    \\/     M anipulation  |                                                 |
\*---------------------------------------------------------------------------*/
FoamFile
{
    version     2.0;
    format      ascii;
    arch        "LSB;label=32;scalar=64";
    class       surfaceScalarField;
    location    "16.5";
    object      phi;
}
// * * * * * * * * * * * * * * * * * * * * * * * * * * * * * * * * * * * * * //

dimensions      [0 3 -1 0 0 0 0];

oriented        oriented;

internalField   nonuniform List<scalar> 
10422
(
0.00575181
-3.60029e-05
-0.00575013
3.43198e-05
0.00575282
-2.22862e-05
2.12778e-05
0.00575316
-8.51882e-06
8.18029e-06
0.00575283
5.27548e-06
-4.94445e-06
0.00575183
1.90633e-05
-1.80646e-05
0.00575017
3.28058e-05
-3.11449e-05
0.00574786
4.6465e-05
-4.41512e-05
0.0057449
6.00049e-05
-5.70505e-05
0.00574132
7.33902e-05
-6.98106e-05
0.00573714
8.65862e-05
-8.23999e-05
0.00573237
9.95583e-05
-9.47867e-05
0.00572703
0.000112272
-0.000106939
0.00572116
0.000124692
-0.000118824
0.00571479
0.000136783
-0.00013041
0.00570794
0.00014851
-0.000141661
0.00570065
0.000159836
-0.000152544
0.00569295
0.000170725
-0.000163024
0.00568487
0.000181144
-0.000173066
0.00567645
0.000191057
-0.00018264
0.00566773
0.000200435
-0.000191712
0.00565874
0.00020925
-0.000200256
0.00564951
0.000217479
-0.000208248
0.00564007
0.000225103
-0.000215669
0.000232109
-0.000222504
0.00576544
-3.77771e-05
-0.00576367
0.0057665
-2.33447e-05
0.00576685
-8.86138e-06
0.00576647
5.64783e-06
0.00576539
2.01481e-05
0.0057636
3.45966e-05
0.00576111
4.89516e-05
0.00575794
6.31733e-05
0.00575411
7.72231e-05
0.00574963
9.10628e-05
0.00574454
0.000104655
0.00573885
0.000117961
0.00573259
0.000130945
0.00572581
0.000143568
0.00571853
0.000155792
0.00571078
0.00016758
0.00570261
0.000178894
0.00569406
0.000189699
0.00568515
0.000199962
0.00567594
0.000209651
0.00566645
0.000218741
0.00565672
0.000227208
0.00564679
0.000235035
0.00024221
0.00577979
-3.96534e-05
-0.00577791
0.0057809
-2.44578e-05
0.00578125
-9.21001e-06
0.00578084
6.06319e-06
0.00577966
2.13243e-05
0.00577773
3.65262e-05
0.00577506
5.1623e-05
0.00577166
6.6571e-05
0.00576756
8.13277e-05
0.00576277
9.58512e-05
0.00575732
0.0001101
0.00575125
0.000124034
0.00574458
0.000137612
0.00573736
0.000150794
0.00572961
0.00016354
0.00572138
0.000175809
0.00571271
0.000187565
0.00570364
0.000198771
0.00569421
0.000209393
0.00568446
0.0002194
0.00567443
0.000228768
0.00566416
0.000237474
0.0056537
0.000245503
0.000252844
0.0057949
-4.16425e-05
-0.00579291
0.00579608
-2.56317e-05
0.00579643
-9.56656e-06
0.00579597
6.52344e-06
0.0057947
2.25976e-05
0.00579262
3.86041e-05
0.00578975
5.44926e-05
0.00578611
7.02148e-05
0.00578171
8.5724e-05
0.00577659
0.000100974
0.00577077
0.000115921
0.00576428
0.000130519
0.00575717
0.000144725
0.00574947
0.000158496
0.00574122
0.000171789
0.00573247
0.000184563
0.00572325
0.000196778
0.00571363
0.000208399
0.00570363
0.000219391
0.0056933
0.000229724
0.0056827
0.000239374
0.00567185
0.00024832
0.0056608
0.00025655
0.000264054
0.00581083
-4.37552e-05
-0.00580872
0.00581207
-2.68722e-05
0.00581244
-9.93286e-06
0.00581193
7.03087e-06
0.00581056
2.39744e-05
0.00580832
4.08408e-05
0.00580524
5.75745e-05
0.00580133
7.41227e-05
0.00579662
9.04338e-05
0.00579114
0.000106458
0.00578491
0.000122145
0.00577798
0.000137447
0.00577039
0.000152317
0.00576218
0.000166709
0.00575339
0.000180578
0.00574407
0.00019388
0.00573427
0.000206576
0.00572405
0.000218627
0.00571344
0.000230001
0.00570249
0.000240668
0.00569126
0.000250605
0.00567979
0.000259794
0.00566811
0.000268222
0.000275885
0.00582764
-4.60028e-05
-0.00582539
0.00582895
-2.81861e-05
0.00582933
-1.03108e-05
0.00582877
7.58819e-06
0.00582729
2.54619e-05
0.00582488
4.32479e-05
0.00582157
6.08848e-05
0.00581738
7.83146e-05
0.00581233
9.54808e-05
0.00580646
0.000112328
0.0057998
0.000128803
0.0057924
0.000144852
0.00578429
0.000160426
0.00577552
0.000175474
0.00576615
0.000189949
0.00575622
0.000203806
0.0057458
0.000217004
0.00573492
0.000229504
0.00572365
0.000241273
0.00571203
0.000252283
0.00570012
0.000262513
0.00568797
0.000271945
0.00567562
0.000280571
0.000288387
0.00584538
-4.83978e-05
-0.00584298
0.00584677
-2.95803e-05
0.00584717
-1.07021e-05
0.00584655
8.19864e-06
0.00584495
2.70684e-05
0.00584236
4.58384e-05
0.0058388
6.44412e-05
0.0058343
8.28129e-05
0.00582889
0.000100891
0.0058226
0.000118616
0.00581548
0.000135929
0.00580756
0.000152773
0.00579889
0.000169092
0.00578953
0.000184834
0.00577953
0.000199949
0.00576895
0.00021439
0.00575784
0.000228113
0.00574626
0.000241081
0.00573427
0.000253261
0.00572193
0.000264624
0.0057093
0.000275152
0.00569641
0.00028483
0.00568333
0.000293651
0.000301614
0.00586412
-5.09535e-05
-0.00586157
0.0058656
-3.10624e-05
0.00586601
-1.11087e-05
0.00586534
8.86618e-06
0.00586361
2.88034e-05
0.00586082
4.86273e-05
0.005857
6.82636e-05
0.00585217
8.76423e-05
0.00584636
0.000106695
0.00583962
0.000125356
0.00583199
0.000143561
0.00582352
0.000161249
0.00581425
0.00017836
0.00580424
0.000194837
0.00579357
0.000210628
0.00578227
0.000225684
0.00577043
0.000239959
0.00575809
0.000253416
0.00574533
0.000266021
0.00573221
0.000277749
0.00571878
0.000288581
0.0057051
0.000298506
0.00569123
0.000307519
0.000315624
0.00588394
-5.36843e-05
-0.00588121
0.00588552
-3.26402e-05
0.00588594
-1.15318e-05
0.00588521
9.59573e-06
0.00588333
3.06779e-05
0.00588033
5.16314e-05
0.00587622
7.23748e-05
0.00587103
9.28309e-05
0.0058648
0.000112925
0.00585757
0.000132585
0.00584939
0.000151742
0.00584031
0.000170328
0.00583039
0.000188279
0.00581969
0.000205536
0.00580828
0.000222042
0.00579622
0.000237745
0.00578358
0.000252601
0.00577042
0.000266569
0.00575683
0.000279617
0.00574286
0.000291721
0.00572857
0.000302864
0.00571404
0.000313037
0.00569932
0.00032224
0.000330477
0.0059049
-5.66055e-05
-0.00590198
0.00590659
-3.43219e-05
0.00590703
-1.19725e-05
0.00590623
1.03934e-05
0.0059042
3.27048e-05
0.00590096
5.48704e-05
0.00589654
7.68004e-05
0.00589096
9.84102e-05
0.00588426
0.000119618
0.0058765
0.000140346
0.00586773
0.000160517
0.005858
0.00018006
0.00584737
0.000198905
0.00583592
0.000216989
0.00582371
0.000234251
0.00581081
0.000250639
0.00579731
0.000266105
0.00578327
0.000280608
0.00576877
0.000294117
0.00575388
0.00030661
0.00573868
0.00031807
0.00572322
0.000328492
0.00570758
0.000337879
0.00034624
0.0059271
-5.97336e-05
-0.00592398
0.0059289
-3.61157e-05
0.00592936
-1.24309e-05
0.00592848
1.12666e-05
0.00592629
3.48993e-05
0.00592279
5.83665e-05
0.00591802
8.15697e-05
0.00591202
0.000104416
0.00590482
0.000126817
0.00589648
0.000148685
0.00588706
0.00016994
0.00587661
0.000190502
0.00586522
0.000210298
0.00585295
0.00022926
0.00583988
0.000247324
0.00582608
0.000264434
0.00581164
0.000280541
0.00579665
0.000295606
0.00578117
0.000309595
0.00576529
0.000322488
0.00574909
0.000334272
0.00573264
0.000344943
0.00571601
0.000354509
0.000362981
0.00595063
-6.30859e-05
-0.00594728
0.00595255
-3.80299e-05
0.00595302
-1.29066e-05
0.00595206
1.22248e-05
0.00594968
3.72791e-05
0.0059459
6.21457e-05
0.00594076
8.67163e-05
0.00593429
0.000110889
0.00592653
0.000134568
0.00591756
0.000157657
0.00590743
0.000180069
0.00589622
0.000201718
0.00588399
0.000222527
0.00587083
0.000242421
0.00585682
0.000261334
0.00584205
0.000279207
0.0058266
0.00029599
0.00581056
0.000311641
0.00579403
0.00032613
0.00577708
0.000339436
0.0057598
0.000351548
0.00574228
0.000362468
0.00572458
0.000372203
0.000380773
0.00597559
-6.66811e-05
-0.00597199
0.00597763
-4.00729e-05
0.00597812
-1.33978e-05
0.00597707
1.32793e-05
0.00597448
3.9865e-05
0.00597039
6.62376e-05
0.00596483
9.22782e-05
0.00595784
0.000117876
0.00594949
0.000142924
0.00593982
0.00016732
0.00592892
0.000190969
0.00591686
0.000213779
0.00590372
0.000235665
0.00588959
0.00025655
0.00587456
0.000276363
0.00585873
0.000295042
0.00584218
0.000312535
0.00582503
0.000328801
0.00580735
0.000343808
0.00578924
0.000357539
0.00577081
0.000369985
0.00575213
0.000381149
0.00573329
0.000391045
0.000399694
0.00600209
-7.05386e-05
-0.00599823
0.00600427
-4.22527e-05
0.00600477
-1.39014e-05
0.0060036
1.44441e-05
0.00600079
4.26814e-05
0.00599635
7.06766e-05
0.00599033
9.82991e-05
0.00598278
0.000125427
0.00597375
0.000151946
0.00596333
0.000177743
0.00595159
0.000202715
0.0059386
0.000226763
0.00592447
0.000249798
0.00590929
0.000271735
0.00589315
0.000292501
0.00587616
0.000312031
0.00585842
0.000330271
0.00584005
0.000347179
0.00582113
0.000362724
0.00580178
0.00037689
0.00578209
0.000389672
0.00576216
0.000401075
0.00574209
0.000411118
0.000419827
0.00603024
-7.46788e-05
-0.0060261
0.00603257
-4.45766e-05
0.00603308
-1.44122e-05
0.00603179
1.57364e-05
0.00602871
4.5757e-05
0.00602388
7.55021e-05
0.00601736
0.000104829
0.00600918
0.000133604
0.00599942
0.000161701
0.00598817
0.000188999
0.00597549
0.000215387
0.0059615
0.000240758
0.00594628
0.000265016
0.00592994
0.000288072
0.0059126
0.000309847
0.00589435
0.000330275
0.00587533
0.000349299
0.00585563
0.000366877
0.00583537
0.00038298
0.00581467
0.000397591
0.00579364
0.000410708
0.00577237
0.000422342
0.00575097
0.000432515
0.000441259
0.00606019
-7.9123e-05
-0.00605575
0.00606267
-4.70513e-05
0.00606318
-1.49229e-05
0.00606174
1.7177e-05
0.00605837
4.91254e-05
0.00605311
8.076e-05
0.00604602
0.000111924
0.00603715
0.000142472
0.00602658
0.000172265
0.00601441
0.000201175
0.00600072
0.000229078
0.00598561
0.000255862
0.00596921
0.000281423
0.00595161
0.000305668
0.00593295
0.000328512
0.00591333
0.000349886
0.0058929
0.000369732
0.00587177
0.000388008
0.00585007
0.000404685
0.00582791
0.000419748
0.00580542
0.000433198
0.00578271
0.000445051
0.00575989
0.000455333
0.000464083
0.00609208
-8.38919e-05
-0.00608731
0.00609471
-4.96815e-05
0.00609521
-1.54228e-05
0.0060936
1.87916e-05
0.0060899
5.28266e-05
0.00608415
8.65038e-05
0.00607643
0.000119651
0.00606679
0.000152108
0.00605533
0.000183727
0.00604214
0.000214365
0.00602732
0.000243891
0.006011
0.000272184
0.00599329
0.000299133
0.00597432
0.00032464
0.00595422
0.000348616
0.00593312
0.000370986
0.00591116
0.000391693
0.00588847
0.000410693
0.0058652
0.000427959
0.00584147
0.000443479
0.00581741
0.000457256
0.00579315
0.000469311
0.0057688
0.000479676
0.000488396
0.00612606
-0.00612095
0.00612885
0.00612932
0.0061275
0.00612342
0.00611713
0.0061087
0.0060982
0.00608575
0.00607143
0.00605538
0.00603772
0.00601858
0.0059981
0.000345119
0.00597643
0.00037029
0.00595371
0.000393709
0.00593008
0.000415314
0.00590571
0.000435065
0.00588074
0.000452933
0.00585531
0.00046891
0.00582956
0.000483004
0.00580363
0.000495239
0.00577765
0.000505655
0.000514302
0.00602298
0.00599958
0.00597509
0.00594967
0.00592347
0.00589665
0.00586939
0.00584182
0.0058141
0.00578637
0.00541804
-0.000124018
-0.00540578
0.000111753
0.00544331
-0.000126428
0.000101155
0.00548133
-0.000128312
9.02941e-05
0.00553167
-0.000129538
7.91976e-05
0.00559376
-0.000129981
6.78949e-05
0.00566687
-0.000129525
5.64165e-05
-0.000128056
4.47901e-05
0.0054289
-0.000136646
-0.00541627
0.00545456
-0.00015209
0.00549299
-0.000166743
0.00554377
-0.000180315
0.00560632
-0.000192527
0.00567991
-0.000203114
-0.000211818
0.00544027
-0.000149663
-0.00542725
0.00546635
-0.000178167
0.00550522
-0.000205615
0.00555647
-0.000231561
0.00561951
-0.000255567
0.00569361
-0.000277222
-0.00029612
0.00545217
-0.000163099
-0.00543874
0.0054787
-0.00020469
0.00551804
-0.000244963
0.00556979
-0.000283309
0.00563336
-0.000319138
0.00570803
-0.000351887
-0.000381004
0.00546464
-0.000176984
-0.00545076
0.00549165
-0.000231693
0.00553151
-0.000284821
0.00558379
-0.000335598
0.00564794
-0.00038328
0.00572321
-0.000427155
-0.000466519
0.00547771
-0.000191357
-0.00546334
0.00550523
-0.000259215
0.00554564
-0.000325229
0.00559851
-0.000388471
0.00566327
-0.000448041
0.00573919
-0.000503074
-0.000552716
0.00549141
-0.000206254
-0.00547651
0.00551949
-0.000287297
0.00556049
-0.000366232
0.005614
-0.000441975
0.00567943
-0.000513468
0.00575605
-0.000579698
-0.000639651
0.00550578
-0.00022172
-0.00549031
0.00553447
-0.000315984
0.00557611
-0.000407878
0.0056303
-0.00049616
0.00569645
-0.000579617
0.00577383
-0.000657084
-0.000727387
0.00552086
-0.000237802
-0.00550478
0.0055502
-0.000345325
0.00559254
-0.000450219
0.00564746
-0.000551083
0.00571439
-0.000646547
0.0057926
-0.000735295
-0.00081599
0.00553669
-0.000254551
-0.00551994
0.00556674
-0.000375375
0.00560984
-0.000493313
0.00566556
-0.000606803
0.00573333
-0.000714322
0.00581244
-0.000814401
-0.000905534
0.00555333
-0.000272024
-0.00553586
0.00558415
-0.000406193
0.00562806
-0.000537221
0.00568464
-0.000663387
0.00575334
-0.000783014
0.00583341
-0.000894477
-0.000996098
0.00557083
-0.000290277
-0.00555258
0.00560248
-0.000437842
0.00564727
-0.000582011
0.00570479
-0.000720908
0.00577448
-0.000852699
0.00585561
-0.000975605
-0.00108777
0.00558924
-0.000309382
-0.00557014
0.00562179
-0.000470395
0.00566754
-0.00062776
0.00572608
-0.000779446
0.00579684
-0.000923463
0.00587912
-0.00105788
-0.00118065
0.00560862
-0.000329416
-0.00558859
0.00564216
-0.000503931
0.00568895
-0.00067455
0.00574859
-0.000839088
0.00582053
-0.000995398
0.00590404
-0.00114139
-0.00127484
0.00562905
-0.00035046
-0.00560801
0.00566365
-0.000538535
0.00571158
-0.000722472
0.00577242
-0.000899929
0.00584563
-0.00106861
0.00593049
-0.00122625
-0.00137045
0.00565059
-0.000372605
-0.00562844
0.00568636
-0.000574304
0.00573551
-0.000771626
0.00579766
-0.000962077
0.00587225
-0.0011432
0.00595859
-0.00131259
-0.00146761
0.00567332
-0.000395952
-0.00564997
0.00571036
-0.000611342
0.00576085
-0.000822123
0.00582442
-0.00102565
0.00590053
-0.00121931
0.00598846
-0.00140052
-0.00156646
0.00569733
-0.000420612
-0.00567267
0.00573575
-0.000649765
0.00578771
-0.000874084
0.00585283
-0.00109077
0.00593058
-0.00129705
0.00602026
-0.0014902
-0.00166715
0.0057227
-0.000446707
-0.00569661
0.00576264
-0.000689702
0.0058162
0.00588301
0.00596256
0.00605414
0.00574955
-0.00572188
0.00559961
-0.000103985
-0.00567219
0.000176565
0.00553738
-0.000106217
0.000168441
0.00548636
-0.000108886
0.000159914
0.00544722
-0.000111858
0.000150997
0.00542051
-0.000114996
0.000141703
0.00540662
-0.000118161
0.00013205
-0.000121215
0.000122059
0.00560849
-3.15682e-05
-0.0056809
0.00554646
-4.41914e-05
0.00549566
-5.80867e-05
0.00545678
-7.29766e-05
0.00543036
-8.8573e-05
0.00541678
-0.000104583
-0.000120709
0.00561772
4.06657e-05
-0.00568995
0.00555591
1.76178e-05
0.00550536
-7.53428e-06
0.00546675
-3.43735e-05
0.00544064
-6.24579e-05
0.0054274
-9.13412e-05
-0.000120565
0.00562731
0.000112697
-0.00569934
0.00556574
7.91904e-05
0.00551546
4.27446e-05
0.00547716
3.9304e-06
0.00545137
-3.66747e-05
0.00543849
-7.84602e-05
-0.000120811
0.00563728
0.000184504
-0.00570909
0.00557597
0.000140503
0.00552598
9.27312e-05
0.00548801
4.19023e-05
0.00546258
-1.12488e-05
0.00545009
-6.59694e-05
-0.000121477
0.00564763
0.000256064
-0.00571919
0.0055866
0.000201532
0.00553694
0.000142397
0.00549932
7.95193e-05
0.00547429
1.37855e-05
0.00546222
-5.39005e-05
-0.000122598
0.00565838
0.000327351
-0.00572967
0.00559767
0.00026225
0.00554835
0.000191712
0.00551112
0.000116749
0.00548651
3.83959e-05
0.0054749
-4.22888e-05
-0.00012421
0.00566955
0.000398338
-0.00574054
0.00560917
0.000322626
0.00556024
0.000240643
0.00552343
0.000153556
0.00549928
6.25468e-05
0.00548817
-3.11729e-05
-0.000126354
0.00568114
0.000468992
-0.0057518
0.00562114
0.000382626
0.00557263
0.000289156
0.00553629
0.000189903
0.00551263
8.61977e-05
0.00550206
-2.0594e-05
-0.000129075
0.00569318
0.000539279
-0.00576347
0.0056336
0.000442213
0.00558554
0.000337209
0.0055497
0.000225745
0.0055266
0.000109302
0.0055166
-1.05928e-05
-0.000132424
0.00570569
0.000609159
-0.00577557
0.00564655
0.000501346
0.005599
0.00038476
0.00556371
0.000261038
0.00554121
0.000131803
0.00553182
-1.20519e-06
-0.000136463
0.00571866
0.000678588
-0.00578809
0.00566003
0.000559977
0.00561303
0.000431759
0.00557834
0.000295734
0.00555646
0.000153681
0.00554783
7.42513e-06
-0.000141215
0.00573214
0.000747515
-0.00580106
0.00567406
0.000618055
0.00562767
0.000478151
0.00559363
0.000329772
0.00557247
0.000174842
0.00556457
1.53226e-05
-0.00014678
0.00574612
0.000815884
-0.00581449
0.00568865
0.00067552
0.00564293
0.000523874
0.00560961
0.000363085
0.00558923
0.000195227
0.00558215
2.24035e-05
-0.000153222
0.00576062
0.000883631
-0.00582837
0.00570384
0.000732306
0.00565885
0.00056886
0.00562633
0.000395606
0.00560679
0.000214766
0.00560061
2.85861e-05
-0.000160618
0.00577567
0.000950684
-0.00584272
0.00571963
0.00078834
0.00567546
0.000613031
0.00564381
0.000427254
0.0056252
0.000233376
0.00562001
3.3785e-05
-0.000169055
0.00579126
0.00101696
-0.00585754
0.00573607
0.000843537
0.00569279
0.000656303
0.00566211
0.00045794
0.00564452
0.000250966
0.0056404
3.79066e-05
-0.000178631
0.00580742
0.00108237
-0.00587283
0.00575315
0.000897802
0.00571088
0.000698578
0.00568125
0.000487566
0.00566478
0.000267434
0.00566185
4.08451e-05
-0.000189451
0.00582414
0.00577092
0.00572975
0.00570129
0.00568606
0.00568442
4.24848e-05
-0.000201639
0.0057082
0.00537997
-0.000234869
0.000229176
0.0053859
-0.000238302
0.000232371
0.00539207
-0.000241648
0.000235476
0.00539849
-0.00024489
0.000238473
0.00540515
-0.00024801
0.000241347
0.00541206
-0.000250994
0.000244083
0.00541922
-0.000253824
0.000246665
0.00542663
-0.000256482
0.000249076
0.00543428
-0.000258952
0.0002513
0.00544218
-0.000261213
0.000253318
0.00545031
-0.000263247
0.000255112
0.00545868
-0.000265032
0.000256663
0.00546728
-0.00026655
0.000257952
0.0054761
-0.000267779
0.000258961
0.00548513
-0.000268698
0.000259669
0.00549436
-0.000269287
0.000260056
0.00550378
-0.000269523
0.000260104
0.00551337
-0.000269385
0.000259792
0.00552312
-0.000268854
0.000259102
0.00553301
-0.000267908
0.000258015
0.00554303
-0.000266527
0.000256513
0.00555314
-0.000264693
0.000254579
0.00556333
-0.000262388
0.000252197
0.00557357
-0.000259595
0.000249352
0.00558384
-0.000256298
0.000246029
0.00559411
-0.000252483
0.000242218
0.00560434
-0.000248139
0.000237908
0.00561451
-0.000243256
0.000233089
0.00562457
-0.000237826
0.000227757
0.00563451
-0.000231843
0.000221906
0.00564428
-0.000225304
0.000215534
0.00565385
-0.000218208
0.000208642
0.00566317
-0.000210551
0.00020123
-0.000202314
0.000193295
0.00537652
-0.000240645
0.00538255
-0.00024433
0.00538883
-0.000247931
0.00539538
-0.000251432
0.00540218
-0.000254814
0.00540925
-0.000258062
0.00541658
-0.000261157
0.00542418
-0.000264081
0.00543204
-0.000266815
0.00544017
-0.000269338
0.00544855
-0.000271631
0.00545719
-0.000273671
0.00546608
-0.000275438
0.00547521
-0.000276908
0.00548457
-0.00027806
0.00549415
-0.00027887
0.00550394
-0.000279315
0.00551393
-0.000279372
0.0055241
-0.000279019
0.00553442
-0.000278234
0.00554489
-0.000276993
0.00555547
-0.000275278
0.00556615
-0.000273066
0.0055769
-0.00027034
0.00558768
-0.000267082
0.00559847
-0.000263276
0.00560924
-0.000258909
0.00561995
-0.000253968
0.00563057
-0.000248446
0.00564106
-0.000242333
0.00565139
-0.000235627
0.0056615
-0.000228322
0.00567136
-0.000220411
-0.000211855
0.00537283
-0.000246498
0.00537895
-0.000250448
0.00538534
-0.00025432
0.00539201
-0.000258096
0.00539895
-0.000261756
0.00540617
-0.000265285
0.00541368
-0.000268663
0.00542147
-0.000271871
0.00542954
-0.000274889
0.0054379
-0.000277696
0.00544654
-0.000280269
0.00545545
-0.000282585
0.00546464
-0.000284623
0.00547409
-0.000286357
0.00548379
-0.000287763
0.00549374
-0.000288817
0.00550392
-0.000289495
0.00551431
-0.00028977
0.00552491
-0.000289618
0.00553569
-0.000289014
0.00554663
-0.000287935
0.00555771
-0.000286357
0.0055689
-0.000284257
0.00558018
-0.000281616
0.00559151
-0.000278412
0.00560286
-0.000274629
0.0056142
-0.00027025
0.0056255
-0.000265261
0.0056367
-0.000259652
0.00564779
-0.000253415
0.0056587
-0.000246541
0.0056694
-0.000239025
0.00567984
-0.000230853
-0.000221964
0.00536889
-0.000252423
0.00537509
-0.000256653
0.00538158
-0.00026081
0.00538836
-0.000264877
0.00539544
-0.000268833
0.00540282
-0.000272661
0.00541049
-0.000276341
0.00541848
-0.000279854
0.00542676
-0.000283177
0.00543536
-0.000286287
0.00544425
-0.000289163
0.00545344
-0.000291779
0.00546293
-0.000294111
0.00547271
-0.000296133
0.00548277
-0.000297819
0.00549309
-0.000299143
0.00550367
-0.000300077
0.0055145
-0.000300594
0.00552555
-0.000300667
0.0055368
-0.00030027
0.00554824
-0.000299375
0.00555984
-0.000297957
0.00557158
-0.000295991
0.00558341
-0.000293453
0.00559532
-0.000290321
0.00560727
-0.000286576
0.00561922
-0.000282198
0.00563113
-0.000277173
0.00564296
-0.000271486
0.00565468
-0.000265128
0.00566622
-0.000258089
0.00567756
-0.00025036
0.00568862
-0.00024192
-0.000232684
0.00536467
-0.000258412
0.00537095
-0.000262937
0.00537754
-0.000267395
0.00538443
-0.00027177
0.00539164
-0.00027604
0.00539916
-0.000280186
0.00540701
-0.000284189
0.00541518
-0.000288027
0.00542368
-0.000291676
0.00543251
-0.000295115
0.00544166
-0.000298317
0.00545114
-0.000301258
0.00546094
-0.00030391
0.00547105
-0.000306246
0.00548147
-0.000308238
0.00549219
-0.000309858
0.00550319
-0.000311076
0.00551446
-0.000311862
0.00552598
-0.000312188
0.00553773
-0.000312023
0.00554969
-0.000311338
0.00556184
-0.000310104
0.00557414
-0.000308295
0.00558657
-0.000305883
0.0055991
-0.000302844
0.00561167
-0.000299154
0.00562427
-0.000294793
0.00563684
-0.000289743
0.00564934
-0.000283989
0.00566173
-0.000277516
0.00567396
-0.000270315
0.00568597
-0.000262372
0.00569771
-0.000253658
-0.000244062
0.00536016
-0.000264458
0.00536651
-0.000269292
0.00537319
-0.000274069
0.00538019
-0.000278769
0.00538752
-0.000283371
0.00539519
-0.000287856
0.0054032
-0.000292202
0.00541156
-0.000296387
0.00542027
-0.000300388
0.00542934
-0.000304179
0.00543875
-0.000307733
0.00544852
-0.000311025
0.00545863
-0.000314024
0.00546909
-0.000316703
0.00547988
-0.00031903
0.005491
-0.000320976
0.00550243
-0.000322507
0.00551416
-0.000323592
0.00552617
-0.000324199
0.00553845
-0.000324295
0.00555096
-0.000323849
0.00556368
-0.000322827
0.00557659
-0.000321201
0.00558964
-0.00031894
0.00560281
-0.000316015
0.00561606
-0.000312402
0.00562935
-0.000308077
0.00564262
-0.000303017
0.00565584
-0.000297206
0.00566895
-0.000290628
0.0056819
-0.000283269
0.00569464
-0.000275113
0.0057071
-0.00026612
-0.000256149
0.00535534
-0.000270551
0.00536176
-0.00027571
0.00536852
-0.000280822
0.00537561
-0.000285866
0.00538306
-0.00029082
0.00539087
-0.000295664
0.00539904
-0.000300377
0.00540759
-0.000304933
0.00541651
-0.000309309
0.00542581
-0.000313478
0.00543549
-0.000317412
0.00544555
-0.000321083
0.00545598
-0.00032446
0.00546679
-0.000327511
0.00547797
-0.000330205
0.0054895
-0.000332507
0.00550137
-0.000334384
0.00551358
-0.000335801
0.00552611
-0.000336722
0.00553892
-0.000337112
0.00555201
-0.000336935
0.00556534
-0.000336156
0.00557888
-0.000334742
0.0055926
-0.000332659
0.00560646
-0.000329875
0.00562042
-0.000326362
0.00563443
-0.000322092
0.00564846
-0.000317041
0.00566244
-0.000311188
0.00567632
-0.000304515
0.00569006
-0.000297004
0.00570358
-0.000288635
0.00571682
-0.000279359
-0.000269001
0.00535021
-0.000276681
0.00535668
-0.000282182
0.0053635
-0.000287647
0.00537069
-0.000293053
0.00537825
-0.000298379
0.00538619
-0.000303605
0.00539452
-0.000308706
0.00540324
-0.000313659
0.00541237
-0.000318436
0.0054219
-0.000323011
0.00543185
-0.000327354
0.0054422
-0.000331435
0.00545296
-0.00033522
0.00546412
-0.000338677
0.00547569
-0.000341771
0.00548765
-0.000344465
0.00549999
-0.000346723
0.00551269
-0.000348506
0.00552574
-0.000349776
0.00553913
-0.000350495
0.00555282
-0.000350623
0.00556678
-0.000350121
0.00558099
-0.000348951
0.00559541
-0.000347077
0.00561
-0.000344464
0.00562471
-0.000341077
0.00563951
-0.000336887
0.00565433
-0.000331865
0.00566913
-0.000325987
0.00568385
-0.000319231
0.00569842
-0.000311577
0.00571278
-0.000302998
0.00572686
-0.000293436
-0.000282676
0.00534473
-0.000282836
0.00535124
-0.000288696
0.00535812
-0.000294531
0.00536539
-0.00030032
0.00537305
-0.00030604
0.00538112
-0.000311669
0.00538959
-0.000317184
0.00539849
-0.000322558
0.00540782
-0.000327765
0.00541759
-0.000332775
0.00542779
-0.000337558
0.00543844
-0.00034208
0.00544952
-0.000346308
0.00546105
-0.000350206
0.00547302
-0.000353736
0.00548541
-0.000356859
0.00549823
-0.000359536
0.00551145
-0.000361725
0.00552505
-0.000363384
0.00553903
-0.00036447
0.00555335
-0.000364941
0.00556798
-0.000364753
0.00558289
-0.000363865
0.00559805
-0.000362236
0.00561341
-0.000359825
0.00562893
-0.000356596
0.00564456
-0.000352512
0.00566023
-0.000347543
0.00567591
-0.00034166
0.00569151
-0.000334837
0.00570699
-0.00032705
0.00572225
-0.000318267
0.00573723
-0.000308416
-0.000297242
0.00533889
-0.000289004
0.00534543
-0.000295239
0.00535237
-0.000301463
0.0053597
-0.000307655
0.00536745
-0.00031379
0.00537563
-0.000319847
0.00538425
-0.0003258
0.00539331
-0.000331624
0.00540284
-0.00033729
0.00541283
-0.000342766
0.00542329
-0.000348021
0.00543423
-0.00035302
0.00544565
-0.000357727
0.00545754
-0.000362103
0.00546992
-0.000366108
0.00548276
-0.000369701
0.00549606
-0.000372838
0.00550981
-0.000375474
0.00552399
-0.000377564
0.00553858
-0.000379061
0.00555356
-0.000379918
0.00556889
-0.000380087
0.00558455
-0.000379521
0.00560049
-0.000378175
0.00561667
-0.000376005
0.00563304
-0.000372967
0.00564955
-0.000369022
0.00566614
-0.000364133
0.00568275
-0.000358268
0.00569931
-0.000351397
0.00571575
-0.00034349
0.00573199
-0.00033451
0.00574795
-0.000324369
-0.000312768
0.00533268
-0.000295171
0.00533924
-0.000301799
0.0053462
-0.00030843
0.00535359
-0.000315045
0.00536142
-0.000321618
0.0053697
-0.000328127
0.00537845
-0.000334546
0.00538767
-0.000340847
0.00539738
-0.000347002
0.00540759
-0.000352977
0.00541831
-0.000358739
0.00542954
-0.000364251
0.00544129
-0.000369475
0.00545356
-0.00037437
0.00546634
-0.000378893
0.00547964
-0.000382999
0.00549345
-0.000386642
0.00550774
-0.000389772
0.00552252
-0.00039234
0.00553775
-0.000394294
0.00555342
-0.000395583
0.00556948
-0.000396155
0.00558592
-0.000395958
0.00560269
-0.00039494
0.00561973
-0.000393051
0.00563701
-0.000390244
0.00565446
-0.000386474
0.00567203
-0.000381698
0.00568964
-0.000375879
0.00570722
-0.000368981
0.0057247
-0.000360971
0.005742
-0.000351803
0.005759
-0.000341375
-0.000329333
0.00532607
-0.00030132
0.00533263
-0.000308358
0.00533962
-0.000315416
0.00534705
-0.000322475
0.00535494
-0.000329509
0.00536331
-0.000336495
0.00537217
-0.000343407
0.00538154
-0.000350216
0.00539143
-0.000356891
0.00540185
-0.0003634
0.00541282
-0.000369706
0.00542434
-0.00037577
0.00543641
-0.000381553
0.00544905
-0.00038701
0.00546225
-0.000392096
0.00547602
-0.000396762
0.00549033
-0.000400959
0.0055052
-0.000404633
0.00552059
-0.000407729
0.00553648
-0.000410193
0.00555287
-0.000411967
0.00556971
-0.000412994
0.00558697
-0.000413215
0.0056046
-0.000412574
0.00562256
-0.000411015
0.0056408
-0.000408484
0.00565926
-0.00040493
0.00567787
-0.000400304
0.00569655
-0.000394562
0.00571523
-0.000387665
0.00573384
-0.000379573
0.00575226
-0.00037023
0.0057704
-0.000359516
-0.000347022
0.00531906
-0.000307435
0.0053256
-0.000314899
0.00533259
-0.000322404
0.00534004
-0.000329928
0.00534798
-0.000337447
0.00535642
-0.000344936
0.00536538
-0.000352369
0.00537488
-0.000359716
0.00538494
-0.000366946
0.00539556
-0.000374024
0.00540677
-0.000380912
0.00541857
-0.00038757
0.00543097
-0.000393955
0.00544398
-0.000400021
0.0054576
-0.000405719
0.00547184
-0.000410996
0.00548668
-0.0004158
0.00550212
-0.000420072
0.00551814
-0.000423754
0.00553473
-0.000426784
0.00555187
-0.0004291
0.00556951
-0.000430639
0.00558763
-0.000431336
0.00560619
-0.000431128
0.00562512
-0.000429952
0.00564438
-0.000427747
0.00566391
-0.000424455
0.00568363
-0.000420022
0.00570346
-0.000414396
0.00572333
-0.000407531
0.00574314
-0.00039938
0.00576278
-0.000389879
0.00578216
-0.000378887
-0.000365929
0.00531162
-0.000313495
0.00531812
-0.000321403
0.00532509
-0.000329374
0.00533255
-0.000337385
0.00534051
-0.000345412
0.00534901
-0.000353431
0.00535805
-0.000361415
0.00536767
-0.000369332
0.00537788
-0.000377152
0.00538869
-0.000384836
0.00540012
-0.000392347
0.0054122
-0.000399643
0.00542492
-0.000406677
0.0054383
-0.0004134
0.00545234
-0.000419762
0.00546705
-0.000425706
0.00548242
-0.000431173
0.00549846
-0.000436103
0.00551513
-0.000440431
0.00553244
-0.000444091
0.00555035
-0.000447012
0.00556884
-0.000449127
0.00558787
-0.000450363
0.00560739
-0.000450649
0.00562735
-0.000449917
0.0056477
-0.000448096
0.00566837
-0.000445121
0.00568927
-0.00044093
0.00571034
-0.000435463
0.00573148
-0.000428668
0.00575259
-0.000420488
0.00577356
-0.00041085
0.00579426
-0.000399588
-0.000386157
0.00530373
-0.00031948
0.00531017
-0.000327849
0.0053171
-0.000336305
0.00532454
-0.000344825
0.00533252
-0.000353385
0.00534105
-0.000361961
0.00535015
-0.000370524
0.00535987
-0.000379045
0.00537021
-0.00038749
0.00538119
-0.000395821
0.00539284
-0.000403998
0.00540517
-0.000411976
0.0054182
-0.000419708
0.00543195
-0.000427142
0.00544641
-0.000434224
0.0054616
-0.000440893
0.00547751
-0.000447087
0.00549415
-0.000452739
0.00551149
-0.00045778
0.00552954
-0.000462137
0.00554826
-0.000465734
0.00556763
-0.000468494
0.00558761
-0.00047034
0.00560815
-0.000471191
0.0056292
-0.000470969
0.0056507
-0.000469598
0.00567258
-0.000467001
0.00569476
-0.000463109
0.00571715
-0.000457853
0.00573966
-0.000451171
0.00576217
-0.000442999
0.00578457
-0.000433249
0.00580671
-0.000421732
-0.000407819
0.00529538
-0.000325365
0.00530174
-0.000334213
0.00530861
-0.000343172
0.005316
-0.000352223
0.00532396
-0.00036134
0.0053325
-0.0003705
0.00534165
-0.000379675
0.00535144
-0.000388833