/*--------------------------------*- C++ -*----------------------------------*\
| =========                 |                                                 |
| \\      /  F ield         | OpenFOAM: The Open Source CFD Toolbox           |
|  \\    /   O peration     | Version:  2412                                  |
|   \\  /    A nd           | Website:  www.openfoam.com                      |
|    \\/     M anipulation  |                                                 |
\*---------------------------------------------------------------------------*/
FoamFile
{
    version     2.0;
    format      ascii;
    arch        "LSB;label=32;scalar=64";
    class       volVectorField;
    location    "7.5";
    object      vorticity;
}
// * * * * * * * * * * * * * * * * * * * * * * * * * * * * * * * * * * * * * //

dimensions      [0 0 -1 0 0 0 0];

internalField   nonuniform List<vector> 
5285
(
(2.45979e-21 -6.59353e-20 -2.44354e-05)
(-1.95646e-21 7.80785e-21 -1.40143e-06)
(-2.10652e-22 -7.26939e-21 2.21116e-05)
(8.75993e-23 7.2852e-21 4.4444e-05)
(-3.32554e-24 -1.36021e-22 6.42841e-05)
(-8.29211e-23 -7.0373e-21 8.06319e-05)
(-2.11131e-21 7.11284e-21 9.29021e-05)
(4.44035e-21 1.35924e-23 0.000100862)
(1.307e-21 6.92081e-21 0.000104557)
(-3.45806e-21 -5.6468e-24 0.000104216)
(4.98745e-21 8.10669e-21 0.000100151)
(-5.72065e-21 1.04764e-19 9.26809e-05)
(5.97521e-22 -1.12553e-19 8.20558e-05)
(-2.12778e-21 1.03136e-19 6.84135e-05)
(2.06984e-21 -1.0435e-19 5.17334e-05)
(5.11806e-23 1.41525e-21 3.17834e-05)
(-6.6734e-23 -1.74054e-21 8.02347e-06)
(2.76743e-21 -9.94133e-20 -2.05983e-05)
(-9.00437e-21 9.65706e-20 -5.60785e-05)
(-3.40966e-22 -1.63611e-21 -0.000102244)
(6.57071e-21 1.43708e-23 -0.000166484)
(7.1633e-21 1.56668e-23 -0.000262959)
(-7.14038e-21 -1.56167e-23 -0.000418197)
(-2.37431e-22 -5.19285e-25 -0.000680147)
(-2.48134e-22 -5.42694e-25 -0.00113162)
(-8.57342e-21 -1.87509e-23 -0.00190814)
(8.27514e-21 1.80986e-23 -0.00321838)
(-2.7455e-22 1.63814e-22 -0.00536235)
(-1.30904e-23 8.46965e-21 -0.00873897)
(-2.6571e-20 5.46499e-20 -0.0138317)
(2.55842e-20 -7.21741e-20 -0.0211573)
(-6.1305e-21 -1.03283e-20 -0.0311629)
(6.73185e-21 2.82435e-20 -0.0440636)
(-2.21814e-20 -6.1939e-21 -0.0595239)
(1.27969e-21 -2.28375e-19 -8.79319e-05)
(-5.44358e-21 2.44847e-19 -2.24389e-05)
(-2.63046e-22 1.97348e-20 4.41462e-05)
(-4.07112e-21 -7.45279e-21 0.000107317)
(4.29217e-21 1.53495e-22 0.000163039)
(-4.28995e-21 9.35827e-21 0.00020839)
(1.63931e-21 2.13781e-19 0.000241644)
(5.09774e-21 -4.53534e-19 0.000262086)
(4.13174e-21 -2.16895e-19 0.000269802)
(-6.19758e-21 4.39168e-19 0.000265401)
(2.55832e-21 -4.39183e-19 0.000249738)
(-7.54792e-22 4.50836e-19 0.000223661)
(3.48306e-21 1.32581e-21 0.000187823)
(-3.92786e-21 -1.02902e-22 0.000142528)
(-1.31946e-21 -2.88579e-24 8.76033e-05)
(0 -0 2.22407e-05)
(1.95293e-22 1.01362e-22 -5.53005e-05)
(1.17039e-20 1.29331e-20 -0.000148316)
(-1.4821e-20 3.73241e-19 -0.000262974)
(-1.65982e-20 -2.45404e-20 -0.000411017)
(1.77401e-20 -3.69258e-19 -0.000615039)
(2.60239e-20 -3.20385e-19 -0.000918252)
(-7.72242e-21 3.42735e-19 -0.00140148)
(-3.31492e-20 2.15766e-21 -0.0022106)
(3.26534e-20 1.8417e-20 -0.00359709)
(-4.2727e-20 2.47915e-19 -0.00597171)
(2.2093e-20 -2.58157e-19 -0.00996571)
(-1.93794e-20 1.56886e-20 -0.0164849)
(2.15687e-20 8.43515e-21 -0.0267318)
(-6.3603e-20 1.22109e-19 -0.0421622)
(6.35583e-20 -1.19474e-19 -0.064329)
(-9.94236e-20 9.00506e-20 -0.0945565)
(9.59206e-20 -1.00615e-19 -0.133418)
(-2.04587e-20 -6.91859e-22 -0.178403)
(-5.31495e-21 -1.26498e-20 -0.000193702)
(-3.51202e-21 4.73234e-19 -9.67137e-05)
(3.94027e-22 -1.438e-20 1.83203e-06)
(-1.14541e-20 4.60726e-19 9.45167e-05)
(1.13044e-20 -4.78698e-19 0.000174963)
(-7.92119e-21 4.58159e-19 0.000238465)
(6.38469e-22 -4.76758e-19 0.000282177)
(5.49068e-21 -9.32038e-21 0.000304829)
(-2.68375e-21 1.40032e-20 0.000306387)
(5.81586e-21 -8.84311e-21 0.000287613)
(-1.79372e-20 4.32057e-19 0.000249629)
(1.58613e-20 -4.61102e-19 0.000193518)
(1.72673e-20 -4.28928e-19 0.000120014)
(-1.38347e-20 4.31478e-19 2.92644e-05)
(-1.15175e-21 -5.49835e-21 -7.93853e-05)
(1.19332e-20 -1.29153e-22 -0.000207667)
(-1.37573e-20 -2.60029e-20 -0.000358894)
(5.08046e-20 -7.90929e-19 -0.000539027)
(1.74962e-20 5.74845e-20 -0.000758939)
(-6.87999e-20 7.46461e-19 -0.00103903)
(4.23484e-21 -1.31612e-20 -0.00141829)
(-1.21191e-20 -5.51877e-21 -0.00197098)
(1.10137e-19 -6.32791e-19 -0.00283567)
(-2.04151e-19 1.24597e-18 -0.00426184)
(2.08366e-19 -1.24376e-18 -0.00667841)
(7.72398e-20 8.87594e-20 -0.010784)
(-1.61661e-19 5.48235e-19 -0.0176487)
(-1.72307e-19 3.80987e-19 -0.0288046)
(1.62247e-19 -4.52534e-19 -0.0462825)
(-2.42897e-20 2.11569e-20 -0.0725415)
(6.00843e-20 -1.90094e-20 -0.110205)
(1.7923e-19 -1.11586e-19 -0.161473)
(-1.94138e-19 1.74476e-19 -0.227106)
(-2.76796e-20 -4.48476e-20 -0.297953)
(-8.63826e-21 4.86327e-19 -0.000365606)
(-7.3805e-22 -4.03843e-21 -0.0002538)
(4.82241e-21 4.18153e-21 -0.000140826)
(-5.87141e-21 4.5042e-19 -3.63639e-05)
(-4.46755e-21 -4.73426e-19 5.11573e-05)
(1.58013e-20 1.36126e-20 0.000115426)
(-3.07097e-20 9.11148e-19 0.000152487)
(2.20602e-20 -9.14942e-19 0.00016036)
(2.35052e-21 -5.10301e-21 0.000138605)
(-1.04308e-20 -8.564e-23 8.77485e-05)
(1.57139e-20 -1.38731e-20 8.71129e-06)
(-5.13867e-21 1.3179e-22 -9.77055e-05)
(-5.67095e-21 -5.55257e-23 -0.000231231)
(5.37399e-21 2.09063e-22 -0.000392451)
(-3.85746e-21 1.06598e-21 -0.000583104)
(6.0145e-20 -8.17596e-19 -0.000806472)
(-5.38656e-20 8.41654e-19 -0.00106811)
(-1.70761e-20 -1.44366e-22 -0.0013774)
(1.97815e-20 -1.02866e-20 -0.00175075)
(-9.65942e-20 7.5655e-19 -0.00221836)
(1.1467e-19 -7.6067e-19 -0.0028372)
(-2.45437e-20 2.62304e-21 -0.00371524)
(1.72818e-20 -7.37129e-23 -0.00505334)
(4.10279e-20 7.2643e-21 -0.00721247)
(-2.56213e-19 5.75637e-19 -0.010812)
(3.74809e-19 -1.17086e-18 -0.0168585)
(-1.82826e-19 5.94744e-19 -0.0268909)
(2.74729e-19 -4.59093e-19 -0.0431106)
(-2.64997e-19 5.42303e-19 -0.0684432)
(-6.32683e-19 5.6265e-19 -0.106459)
(1.19844e-18 -1.19757e-18 -0.16102)
(-5.8939e-19 6.07193e-19 -0.235374)
(2.0612e-20 -2.45477e-21 -0.330284)
(5.00021e-21 -3.83334e-20 -0.421648)
(4.47627e-21 3.97279e-21 -0.000622303)
(-2.97764e-21 4.60374e-19 -0.000516979)
(1.88056e-20 -4.98603e-19 -0.000411892)
(6.84906e-21 2.80289e-20 -0.000318536)
(-4.25642e-20 9.5179e-19 -0.000247055)
(2.48546e-20 -9.55318e-19 -0.00020521)
(1.09482e-20 2.34879e-20 -0.000198135)
(-1.9252e-20 -2.48858e-22 -0.00022879)
(1.25973e-20 1.02753e-20 -0.000298464)
(-3.40175e-20 9.19636e-19 -0.000407448)
(2.69792e-20 -9.11776e-19 -0.000555709)
(3.02503e-21 1.02592e-20 -0.000743496)
(1.04301e-20 2.80128e-20 -0.000971838)
(-1.22755e-20 -5.86083e-22 -0.00124295)
(1.13507e-21 -1.34332e-20 -0.00156061)
(-3.9682e-20 1.36565e-20 -0.00193067)
(3.76186e-20 1.30358e-20 -0.00236203)
(-3.51738e-21 -2.65828e-20 -0.00286861)
(7.7369e-20 -7.67852e-19 -0.00347365)
(-6.74624e-20 7.91288e-19 -0.00421836)
(2.63539e-19 -1.52976e-18 -0.00517925)
(-2.39319e-19 1.54493e-18 -0.00650004)
(3.01572e-19 -1.45418e-18 -0.00844736)
(7.71653e-20 1.36032e-19 -0.0115003)
(-3.50008e-19 1.38903e-18 -0.0164817)
(-1.30763e-19 -2.41917e-20 -0.0247297)
(1.77509e-20 3.80278e-22 -0.0382942)
(-2.00748e-20 5.72124e-22 -0.060121)
(5.92525e-20 1.78343e-21 -0.0941709)
(2.88804e-20 1.4633e-20 -0.145406)
(-1.23834e-19 5.54121e-21 -0.219477)
(7.06613e-20 5.41583e-21 -0.321559)
(-1.81342e-22 -3.40432e-22 -0.452956)
(3.94362e-20 7.00478e-22 -0.560693)
(-2.96907e-21 7.17818e-21 -0.00097845)
(3.50567e-20 -9.69214e-19 -0.000903862)
(2.51799e-20 -9.31099e-19 -0.000832395)
(6.7257e-21 2.16031e-20 -0.000776931)
(-2.14978e-20 9.68225e-19 -0.000749078)
(-2.14851e-20 -8.62957e-21 -0.000758001)
(1.31154e-20 9.54212e-21 -0.000810224)
(-4.61393e-20 9.40449e-19 -0.000910122)
(3.61044e-20 -9.56543e-19 -0.00106048)
(6.90831e-20 -9.1909e-19 -0.0012632)
(-7.03766e-20 9.50585e-19 -0.00152011)
(1.60718e-20 -2.13383e-20 -0.00183358)
(6.24409e-20 -9.1978e-19 -0.00220714)
(-9.19938e-20 9.44098e-19 -0.00264597)
(4.66442e-21 1.31928e-20 -0.00315732)
(-1.98713e-19 1.73435e-18 -0.00375123)
(1.77286e-19 -1.80108e-18 -0.00444159)
(5.20088e-20 6.5871e-20 -0.00524863)
(-2.58781e-19 1.64943e-18 -0.00620393)
(2.34675e-19 -1.72167e-18 -0.00736096)
(-3.39381e-20 -3.68694e-21 -0.00881608)
(4.73414e-19 -1.56011e-18 -0.010748)
(-4.41222e-19 1.61316e-18 -0.0134872)
(-7.20464e-20 -7.7881e-20 -0.0176295)
(6.96424e-19 -1.37203e-18 -0.0242038)
(-1.21878e-18 2.84045e-18 -0.0348964)
(-7.57818e-20 -1.60087e-19 -0.0523119)
(-1.02239e-19 -1.24295e-19 -0.0802363)
(8.0777e-19 -1.25053e-18 -0.123868)
(4.32889e-20 6.8959e-20 -0.190022)
(-9.41147e-19 8.42617e-19 -0.287341)
(9.22266e-19 -9.27432e-19 -0.425922)
(1.0633e-20 3.17607e-20 -0.61265)
(1.03501e-20 -3.00434e-21 -0.74288)
(-1.38342e-21 -1.98899e-20 -0.00140059)
(2.20746e-20 -1.00748e-18 -0.001373)
(-5.89188e-21 -7.4299e-21 -0.00135173)
(-1.77133e-22 1.27669e-22 -0.0013501)
(1.22367e-20 9.01415e-21 -0.00138042)
(-4.76939e-20 9.7238e-19 -0.00145261)
(4.15296e-20 -9.94085e-19 -0.00157395)
(1.36431e-20 8.9123e-21 -0.00174964)
(-9.44104e-21 -1.52692e-20 -0.0019832)
(-6.58649e-21 1.05748e-20 -0.00227726)
(-6.85279e-20 9.42594e-19 -0.00263422)
(1.48361e-19 -1.92572e-18 -0.00305681)
(-6.95184e-20 1.0065e-18 -0.00354861)
(-1.8064e-19 1.86612e-18 -0.00411427)
(-3.12926e-20 -4.52208e-20 -0.00475972)
(4.13973e-21 -2.47709e-20 -0.00549239)
(-6.91952e-20 -5.38722e-20 -0.00632178)
(2.47616e-19 -1.87381e-18 -0.00726109)
(3.93947e-19 -1.73728e-18 -0.00833139)
(-3.48017e-19 1.82615e-18 -0.00957144)
(-3.65005e-20 -5.90439e-20 -0.0110587)
(4.68265e-19 -1.67136e-18 -0.0129515)
(-4.07914e-19 1.7737e-18 -0.0155663)
(-6.76839e-19 1.57941e-18 -0.0195105)
(5.68689e-19 -1.67132e-18 -0.0258874)
(8.442e-20 -1.21327e-20 -0.0365849)
(9.03921e-19 -1.49355e-18 -0.0546324)
(1.39418e-19 1.2357e-19 -0.0845899)
(-1.05726e-18 1.47106e-18 -0.13294)
(-1.8056e-20 -4.32594e-20 -0.208538)
(3.6794e-20 5.77332e-22 -0.323903)
(-3.7493e-20 1.66651e-20 -0.500431)
(-5.6104e-19 5.87429e-19 -0.778818)
(5.51973e-19 -5.9707e-19 -1.07963)
(-9.85982e-21 -2.75912e-21 0.00547824)
(-8.46229e-21 8.63911e-22 -0.00331739)
(7.88095e-21 7.25467e-21 -0.0103156)
(-8.24286e-21 -5.70649e-21 -0.01564)
(8.68907e-21 -2.10658e-21 -0.0194302)
(-2.0577e-22 2.29065e-21 -0.0218583)
(-1.18435e-22 -7.12924e-23 -0.0231176)
(-3.26748e-21 7.1463e-24 -0.023409)
(3.1693e-21 -6.93157e-24 -0.0229299)
(-8.0692e-23 1.76481e-25 -0.0218661)
(-6.77719e-23 1.48224e-25 -0.0203857)
(1.55362e-21 -3.39792e-24 -0.0186356)
(-1.55861e-21 3.40884e-24 -0.0167396)
(-9.7091e-22 2.12348e-24 -0.0147985)
(2.35136e-22 -1.38765e-22 -0.0128908)
(3.73546e-21 5.87686e-20 -0.0110753)
(-2.67275e-21 -5.47453e-20 -0.00939281)
(-6.87899e-24 -1.30992e-22 -0.00786924)
(-1.0865e-24 3.0044e-23 -0.00651775)
(-2.17219e-21 -7.76782e-20 -0.00534145)
(2.17843e-21 7.77861e-20 -0.00433543)
(-1.5589e-21 -7.99748e-20 -0.00348919)
(-1.44754e-20 2.28631e-20 0.0148306)
(1.4778e-20 -1.69046e-20 -0.0113907)
(-9.50346e-21 -1.22692e-20 -0.0321403)
(-8.85859e-21 1.72347e-21 -0.0477403)
(8.19244e-21 -6.80017e-22 -0.0586746)
(-9.03793e-21 5.50917e-21 -0.0655237)
(7.19719e-21 2.31524e-21 -0.0689123)
(-2.58263e-20 -6.73565e-20 -0.0694668)
(3.17665e-20 5.85011e-20 -0.0677893)
(-1.28856e-20 4.18756e-22 -0.0644378)
(7.97598e-21 -5.67826e-21 -0.0599112)
(3.4486e-20 1.5276e-19 -0.0546401)
(-3.93256e-20 -1.48657e-19 -0.0489835)
(-3.72531e-20 -1.99479e-19 -0.0432305)
(3.48278e-21 -2.38457e-20 -0.0376048)
(3.55439e-20 2.20518e-19 -0.0322712)
(-1.62969e-21 -3.07655e-21 -0.0273434)
(-1.26227e-21 -8.62868e-21 -0.0228916)
(1.43463e-24 -1.27832e-23 -0.0189502)
(2.80104e-23 -6.12616e-26 -0.0155248)
(1.1429e-22 5.35916e-25 -0.0125991)
(-3.59391e-22 -5.31246e-21 -0.0101401)
(-1.47515e-20 -4.38413e-22 0.0189758)
(1.02652e-20 -9.02908e-22 -0.0240784)
(1.0526e-20 1.3563e-20 -0.0577528)
(-3.94393e-20 -1.19257e-20 -0.0824239)
(1.57999e-20 8.46674e-21 -0.0991499)
(-6.4017e-20 -8.94658e-20 -0.109117)
(7.266e-20 6.6177e-20 -0.113494)
(1.16986e-19 1.68627e-19 -0.11339)
(-1.01079e-20 6.47009e-20 -0.109832)
(-2.31114e-19 -4.50777e-19 -0.103747)
(2.55946e-19 5.30303e-19 -0.0959437)
(-1.29642e-19 -2.74658e-19 -0.0871028)
(2.30414e-22 -1.03239e-20 -0.0777822)
(-1.28804e-21 -1.90203e-21 -0.0684214)
(1.24157e-19 4.75761e-19 -0.059354)
(-9.56272e-21 3.57011e-20 -0.0508204)
(-1.11745e-19 -5.01645e-19 -0.0429819)
(4.48415e-21 1.63852e-20 -0.0359332)
(-9.82654e-22 3.39383e-23 -0.0297157)
(1.4643e-23 -1.49349e-22 -0.0243284)
(3.89983e-20 3.39665e-19 -0.0197376)
(-3.77249e-20 -3.2878e-19 -0.0158861)
(1.45506e-21 2.6302e-20 0.013773)
(8.5899e-21 -5.12716e-20 -0.0453266)
(4.81677e-20 1.02658e-19 -0.0902613)
(-1.68906e-19 -1.59422e-19 -0.121702)
(1.36228e-19 5.01519e-20 -0.141858)
(1.03572e-19 1.52556e-19 -0.152785)
(-1.22386e-19 -1.22708e-19 -0.156335)
(1.42429e-19 2.09483e-19 -0.154156)
(-3.18032e-19 -4.55867e-19 -0.147709)
(1.94311e-19 2.3393e-19 -0.138257)
(-1.08802e-20 1.22881e-20 -0.126869)
(-6.42899e-21 7.85785e-22 -0.114419)
(9.41572e-21 8.74872e-21 -0.1016)
(-1.83176e-19 -4.7891e-19 -0.0889466)
(1.72501e-19 4.59006e-19 -0.0768491)
(2.04846e-21 1.92767e-20 -0.0655805)
(-4.65777e-22 -9.59409e-21 -0.0553142)
(1.39291e-19 6.18533e-19 -0.0461437)
(-1.39381e-19 -6.16427e-19 -0.038098)
(-1.90519e-21 -1.15393e-20 -0.0311569)
(-1.412e-22 -1.37522e-23 -0.025263)
(5.45639e-22 2.25518e-22 -0.0203318)
(2.68329e-20 5.14626e-23 -0.00638567)
(-2.61244e-22 -1.03014e-22 -0.0803958)
(-5.8355e-20 -5.4339e-22 -0.133339)
(8.11648e-20 -1.7616e-21 -0.167794)
(-2.69933e-20 -3.63702e-21 -0.18785)
(-3.51045e-20 -1.17342e-21 -0.196751)
(1.48094e-20 2.776e-21 -0.197122)
(-8.42266e-21 -4.00621e-21 -0.191144)
(5.60678e-20 -1.84158e-20 -0.180649)
(4.16828e-19 7.13866e-19 -0.167156)
(-5.7506e-21 1.00573e-19 -0.151901)
(-4.45032e-19 -8.21002e-19 -0.135863)
(4.40421e-19 9.61161e-19 -0.11979)
(-4.50107e-19 -9.5904e-19 -0.104238)
(2.05193e-19 5.5707e-19 -0.0895981)
(-2.13185e-19 -5.77355e-19 -0.0761285)
(4.29934e-21 7.26073e-21 -0.0639793)
(-7.2195e-21 -9.78491e-21 -0.0532156)
(1.70078e-21 -1.08074e-20 -0.0438363)
(2.22457e-21 1.07745e-20 -0.0357904)
(9.6252e-22 2.5435e-23 -0.0289902)
(-5.08805e-21 -2.34402e-20 -0.0233245)
(-1.01081e-22 3.43929e-22 -0.0186664)
(-8.62168e-20 9.31572e-24 -0.0482031)
(2.76533e-20 2.98813e-20 -0.136758)
(-1.10779e-19 -2.20439e-19 -0.191515)
(1.53536e-19 1.634e-19 -0.222884)
(-3.41514e-20 5.28633e-20 -0.237918)
(-3.28649e-19 -4.90472e-19 -0.241086)
(-5.12566e-20 -1.27069e-19 -0.235619)
(-5.31588e-20 -1.21581e-19 -0.224053)
(9.86871e-19 1.49495e-18 -0.208418)
(-5.6696e-19 -7.42551e-19 -0.19033)
(4.49308e-20 -1.29393e-20 -0.171055)
(5.8026e-19 1.04995e-18 -0.151557)
(-5.82497e-19 -1.01835e-18 -0.13255)
(1.04262e-20 -4.4296e-21 -0.114539)
(-5.08796e-19 -1.2577e-18 -0.0978614)
(5.17444e-19 1.25247e-18 -0.082719)
(-1.3853e-20 -6.43256e-22 -0.0692101)
(-4.31012e-19 -1.42708e-18 -0.0573515)
(4.37946e-19 1.42849e-18 -0.0470988)
(-3.60437e-21 -9.42557e-21 -0.0383627)
(1.72989e-19 7.8066e-19 -0.0310222)
(-1.63739e-19 -7.52631e-19 -0.0249367)
(-1.63143e-21 -1.41335e-21 -0.0199571)
(-7.60301e-20 -5.83941e-20 -0.12232)
(1.0597e-19 1.86158e-20 -0.213028)
(-1.66669e-22 3.83825e-20 -0.25273)
(-3.52581e-20 -3.72616e-22 -0.270951)
(2.27972e-20 -2.2528e-20 -0.275463)
(4.6921e-19 6.72762e-19 -0.269898)
(3.17924e-20 1.58992e-19 -0.257205)
(-5.20482e-19 -7.86429e-19 -0.239781)
(-3.09354e-20 -3.50214e-22 -0.219485)
(-6.16804e-19 -1.07551e-18 -0.197754)
(6.58664e-19 1.01814e-18 -0.175683)
(6.34062e-19 1.24082e-18 -0.154088)
(-6.58303e-19 -1.19509e-18 -0.13355)
(1.22422e-20 -1.97443e-20 -0.11446)
(6.18296e-19 1.40749e-18 -0.0970584)
(-6.27605e-19 -1.38187e-18 -0.0814685)
(-5.47601e-19 -1.50997e-18 -0.0677208)
(4.08584e-20 -5.64101e-20 -0.0557771)
(3.12939e-20 -4.66326e-20 -0.0455483)
(3.99499e-20 -3.34387e-20 -0.0369092)
(4.39234e-19 1.61785e-18 -0.0297107)
(1.80829e-19 8.36822e-19 -0.0237902)
(-3.53387e-19 -1.69871e-18 -0.0189825)
(7.94637e-20 1.24109e-19 -0.143614)
(-4.44637e-20 -0 -0.189793)
(2.939e-22 -0 -0.211618)
(0 -0 -0.219975)
(-2.48043e-22 -0 -0.219408)
(-2.84426e-20 -0 -0.212401)
(2.68437e-21 -0 -0.200639)
(2.59457e-20 -0 -0.18552)
(-1.63032e-22 -0 -0.168262)
(1.79569e-20 -0 -0.149899)
(-1.77579e-20 -0 -0.131281)
(-1.33867e-20 -0 -0.113082)
(1.33303e-20 -0 -0.0958087)
(0 -0 -0.0798204)
(-8.06664e-21 -0 -0.0653464)
(8.03233e-21 -0 -0.0525088)
(5.58076e-21 -0 -0.0413423)
(-9.35553e-22 -0 -0.0318139)
(-7.7584e-22 -0 -0.023839)
(-6.59924e-22 -0 -0.0172967)
(-3.1598e-21 -0 -0.0120423)
(-1.09284e-21 -0 -0.00791737)
(2.04364e-21 -0 -0.00475798)
(9.35168e-22 -0 -0.00241024)
(0 -7.03903e-20 -0.264793)
(0 -0 -0.263076)
(0 -0 -0.263477)
(0 -0 -0.259426)
(0 -0 -0.250292)
(0 -0 -0.236895)
(0 -0 -0.220219)
(0 -0 -0.201245)
(0 -0 -0.180918)
(0 -0 -0.160088)
(0 -0 -0.13948)
(0 -0 -0.119673)
(0 -0 -0.101107)
(0 -0 -0.0840816)
(0 -0 -0.0687801)
(0 -0 -0.0552842)
(0 -0 -0.0435948)
(0 -0 -0.0336504)
(0 -0 -0.0253436)
(0 -0 -0.0185349)
(0 -0 -0.013065)
(0 -0 -0.0087639)
(0 -0 -0.00546146)
(0 5.60226e-22 -0.338465)
(0 -0 -0.319009)
(0 -0 -0.304945)
(0 -0 -0.290301)
(0 -0 -0.273269)
(0 -0 -0.253868)
(0 -0 -0.232597)
(0 -0 -0.210112)
(0 -0 -0.187127)
(0 -0 -0.164322)
(0 -0 -0.142283)
(0 -0 -0.121479)
(0 -0 -0.10225)
(0 -0 -0.084818)
(0 -0 -0.0692943)
(0 -0 -0.0557036)
(0 -0 -0.0440003)
(0 -0 -0.0340869)
(0 -0 -0.0258296)
(0 -0 -0.0190709)
(0 -0 -0.0136405)
(0 -0 -0.00936364)
(0 -0 -0.0060666)
(0 -0 -0.374487)
(0 -0 -0.348182)
(0 -0 -0.326149)
(0 -0 -0.304544)
(0 -0 -0.281912)
(0 -0 -0.258181)
(0 -0 -0.233681)
(0 -0 -0.208892)
(0 -0 -0.184365)
(0 -0 -0.160634)
(0 -0 -0.138157)
(0 -0 -0.117286)
(0 -0 -0.0982612)
(0 -0 -0.0812146)
(0 -0 -0.0661854)
(0 -0 -0.0531383)
(0 -0 -0.0419817)
(0 -0 -0.0325843)
(0 -0 -0.0247898)
(0 -0 -0.018428)
(0 -0 -0.0133233)
(0 -0 -0.00930195)
(0 -0 -0.00619631)
(0 -5.22542e-22 -0.379722)
(0 -0 -0.351815)
(0 -0 -0.326566)
(0 -0 -0.301633)
(0 -0 -0.276182)
(0 -0 -0.250319)
(0 -0 -0.224388)
(0 -0 -0.198814)
(0 -0 -0.174054)
(0 -0 -0.150537)
(0 -0 -0.128616)
(0 -0 -0.108545)
(0 -0 -0.0904749)
(0 -0 -0.0744605)
(0 -0 -0.0604789)
(0 -0 -0.0484458)
(0 -0 -0.0382336)
(0 -0 -0.0296868)
(0 -0 -0.022635)
(0 -0 -0.0169023)
(0 -0 -0.0123149)
(0 -0 -0.00870562)
(0 -0 -0.00591743)
(0 -6.16621e-20 -0.360939)
(0 -0 -0.334344)
(0 -0 -0.309108)
(0 -0 -0.283777)
(0 -0 -0.258035)
(0 -0 -0.232172)
(0 -0 -0.206601)
(0 -0 -0.181746)
(0 -0 -0.158016)
(0 -0 -0.135771)
(0 -0 -0.115287)
(0 -0 -0.0967421)
(0 -0 -0.0802192)
(0 -0 -0.065718)
(0 -0 -0.0531711)
(0 -0 -0.042462)
(0 -0 -0.0334418)
(0 -0 -0.0259436)
(0 -0 -0.0197935)
(0 -0 -0.0148185)
(0 -0 -0.0108527)
(0 -0 -0.0077406)
(0 -0 -0.00533939)
(0 6.18688e-20 -0.325307)
(0 -0 -0.301672)
(0 -0 -0.278517)
(0 -0 -0.254862)
(0 -0 -0.230752)
(0 -0 -0.206596)
(0 -0 -0.182854)
(0 -0 -0.159956)
(0 -0 -0.138283)
(0 -0 -0.118147)
(0 -0 -0.0997692)
(0 -0 -0.0832769)
(0 -0 -0.068708)
(0 -0 -0.0560268)
(0 -0 -0.0451412)
(0 -0 -0.0359203)
(0 -0 -0.0282094)
(0 -0 -0.0218427)
(0 -0 -0.0166531)
(0 -0 -0.0124785)
(0 -0 -0.0091666)
(0 -0 -0.0065775)
(0 -0 -0.00458501)
(0 4.13276e-22 -0.279845)
(0 -0 -0.259977)
(0 -0 -0.240065)
(0 -0 -0.219358)
(0 -0 -0.198118)
(0 -0 -0.176804)
(0 -0 -0.155887)
(0 -0 -0.135784)
(0 -0 -0.116853)
(0 -0 -0.0993666)
(0 -0 -0.0835089)
(0 -0 -0.069372)
(0 -0 -0.0569677)
(0 -0 -0.0462436)
(0 -0 -0.0370999)
(0 -0 -0.029406)
(0 -0 -0.0230143)
(0 -0 -0.017771)
(0 -0 -0.0135239)
(0 -0 -0.0101277)
(0 -0 -0.00744816)
(0 -0 -0.00536353)
(0 -0 -0.00376555)
(0 -3.71413e-22 -0.230746)
(0 -0 -0.21485)
(0 -0 -0.198645)
(0 -0 -0.181479)
(0 -0 -0.16372)
(0 -0 -0.145823)
(0 -0 -0.128235)
(0 -0 -0.111347)
(0 -0 -0.0954824)
(0 -0 -0.0808815)
(0 -0 -0.0676978)
(0 -0 -0.0560015)
(0 -0 -0.0457919)
(0 -0 -0.0370126)
(0 -0 -0.0295683)
(0 -0 -0.0233399)
(0 -0 -0.0181958)
(0 -0 -0.0140013)
(0 -0 -0.0106244)
(0 -0 -0.00794077)
(0 -0 -0.00583625)
(0 -0 -0.00420847)
(0 -0 -0.00296715)
(0 4.14013e-20 -0.18291)
(0 -0 -0.170761)
(0 -0 -0.158215)
(0 -0 -0.144661)
(0 -0 -0.130487)
(0 -0 -0.116115)
(0 -0 -0.101944)
(0 -0 -0.0883218)
(0 -0 -0.0755336)
(0 -0 -0.0637866)
(0 -0 -0.0532095)
(0 -0 -0.0438576)
(0 -0 -0.0357255)
(0 -0 -0.0287613)
(0 -0 -0.0228818)
(0 -0 -0.0179854)
(0 -0 -0.0139614)
(0 -0 -0.0106979)
(0 -0 -0.00808596)
(0 -0 -0.00602332)
(0 -0 -0.00441647)
(0 -0 -0.00318202)
(0 -0 -0.00224684)
(0 -4.09321e-20 -0.139718)
(0 -0 -0.130819)
(0 -0 -0.121549)
(0 -0 -0.111317)
(0 -0 -0.100479)
(0 -0 -0.0894005)
(0 -0 -0.0784233)
(0 -0 -0.0678457)
(0 -0 -0.0579087)
(0 -0 -0.0487867)
(0 -0 -0.0405861)
(0 -0 -0.0333517)
(0 -0 -0.0270773)
(0 -0 -0.0217197)
(0 -0 -0.0172108)
(0 -0 -0.013469)
(0 -0 -0.0104064)
(0 -0 -0.00793418)
(0 -0 -0.0059665)
(0 -0 -0.00442258)
(0 -0 -0.00322852)
(0 -0 -0.00231847)
(0 -0 -0.00163476)
(0 -3.21401e-20 -0.103055)
(0 -0 -0.0967846)
(0 -0 -0.0902327)
(0 -0 -0.0828252)
(0 -0 -0.074862)
(0 -0 -0.0666428)
(0 -0 -0.0584483)
(0 -0 -0.0505237)
(0 -0 -0.0430667)
(0 -0 -0.0362194)
(0 -0 -0.0300679)
(0 -0 -0.0246478)
(0 -0 -0.0199544)
(0 -0 -0.0159536)
(0 -0 -0.0125932)
(0 -0 -0.00981092)
(0 -0 -0.00754028)
(0 -0 -0.00571454)
(0 -0 -0.00426885)
(0 -0 -0.00314197)
(0 -0 -0.00227749)
(0 -0 -0.00162493)
(0 -0 -0.00113989)
(0 3.20061e-20 -0.0735438)
(0 -0 -0.0692699)
(0 -0 -0.06483)
(0 -0 -0.0596752)
(0 -0 -0.0540385)
(0 -0 -0.048155)
(0 -0 -0.0422466)
(0 -0 -0.0365079)
(0 -0 -0.0310954)
(0 -0 -0.0261212)
(0 -0 -0.0216524)
(0 -0 -0.0177167)
(0 -0 -0.0143104)
(0 -0 -0.0114082)
(0 -0 -0.00897173)
(0 -0 -0.00695612)
(0 -0 -0.00531383)
(0 -0 -0.00399714)
(0 -0 -0.00295943)
(0 -0 -0.00215611)
(0 -0 -0.00154562)
(0 -0 -0.00109029)
(0 -0 -0.000756702)
(0 -0 -0.0508793)
(0 -0 -0.0480396)
(0 -0 -0.0451489)
(0 -0 -0.0416913)
(0 -0 -0.0378375)
(0 -0 -0.0337643)
(0 -0 -0.0296415)
(0 -0 -0.025618)
(0 -0 -0.0218137)
(0 -0 -0.0183135)
(0 -0 -0.0151679)
(0 -0 -0.0123967)
(0 -0 -0.00999693)
(0 -0 -0.00795023)
(0 -0 -0.00622976)
(0 -0 -0.00480487)
(0 -0 -0.00364366)
(0 -0 -0.0027141)
(0 -0 -0.00198449)
(0 -0 -0.00142385)
(0 -0 -0.00100258)
(0 -0 -0.000693308)
(0 -0 -0.000471304)
(0 -2.20478e-20 -0.0341968)
(0 -0 -0.0323361)
(0 -0 -0.0305223)
(0 -0 -0.0282798)
(0 -0 -0.0257271)
(0 -0 -0.0229929)
(0 -0 -0.0202029)
(0 -0 -0.0174679)
(0 -0 -0.0148763)
(0 -0 -0.01249)
(0 -0 -0.0103445)
(0 -0 -0.00845278)
(0 -0 -0.00681149)
(0 -0 -0.00540739)
(0 -0 -0.00422249)
(0 -0 -0.00323731)
(0 -0 -0.00243217)
(0 -0 -0.00178735)
(0 -0 -0.00128285)
(0 -0 -0.000898301)
(0 -0 -0.00061342)
(0 -0 -0.00040878)
(0 -0 -0.000266295)
(0 2.19571e-20 -0.0223835)
(0 -0 -0.0211616)
(0 -0 -0.0200596)
(0 -0 -0.0186468)
(0 -0 -0.0170022)
(0 -0 -0.015217)
(0 -0 -0.0133821)
(0 -0 -0.0115775)
(0 -0 -0.0098662)
(0 -0 -0.00829099)
(0 -0 -0.00687477)
(0 -0 -0.00562424)
(0 -0 -0.00453519)
(0 -0 -0.00359777)
(0 -0 -0.00280043)
(0 -0 -0.00213198)
(0 -0 -0.00158193)
(0 -0 -0.00113985)
(0 -0 -0.000794548)
(0 -0 -0.000533666)
(0 -0 -0.000343905)
(0 -0 -0.000211763)
(0 -0 -0.000124071)
(0 1.74607e-20 -0.0143087)
(0 -0 -0.0134882)
(0 -0 -0.0128344)
(0 -0 -0.0119635)
(0 -0 -0.0109271)
(0 -0 -0.00978877)
(0 -0 -0.00861325)
(0 -0 -0.00745693)
(0 -0 -0.00636294)
(0 -0 -0.0053588)
(0 -0 -0.00445717)
(0 -0 -0.00365931)
(0 -0 -0.00295974)
(0 -0 -0.0023507)
(0 -0 -0.00182513)
(0 -0 -0.00137777)
(0 -0 -0.00100479)
(0 -0 -0.000702506)
(0 -0 -0.000466182)
(0 -0 -0.000289304)
(0 -0 -0.00016366)
(0 -0 -8.00341e-05)
(0 -0 -2.87844e-05)
(0 -1.73887e-20 -0.00896428)
(0 -0 -0.00838893)
(0 -0 -0.00800378)
(0 -0 -0.0074722)
(0 -0 -0.00682782)
(0 -0 -0.00611511)
(0 -0 -0.00537983)
(0 -0 -0.00466096)
(0 -0 -0.00398667)
(0 -0 -0.00337269)
(0 -0 -0.00282358)
(0 -0 -0.00233603)
(0 -0 -0.00190321)
(0 -0 -0.00151854)
(0 -0 -0.00117793)
(0 -0 -0.000880276)
(0 -0 -0.00062642)
(0 -0 -0.000417485)
(0 -0 -0.000253309)
(0 -0 -0.000131536)
(0 -0 -4.75657e-05)
(0 -0 4.80425e-06)
(0 -0 3.27476e-05)
(0 -0 -0.0055276)
(0 -0 -0.00509974)
(0 -0 -0.00486779)
(0 -0 -0.00454019)
(0 -0 -0.00413971)
(0 -0 -0.00369822)
(0 -0 -0.00324837)
(0 -0 -0.00281665)
(0 -0 -0.0024202)
(0 -0 -0.00206593)
(0 -0 -0.00175213)
(0 -0 -0.00147182)
(0 -0 -0.0012169)
(0 -0 -0.000981366)
(0 -0 -0.000763118)
(0 -0 -0.00056386)
(0 -0 -0.000387677)
(0 -0 -0.000239027)
(0 -0 -0.000120939)
(0 -0 -3.39533e-05)
(0 -0 2.40301e-05)
(0 -0 5.71358e-05)
(0 -0 7.08557e-05)
(0 -0 -0.00337236)
(0 -0 -0.0030336)
(0 -0 -0.00288419)
(0 -0 -0.00267436)
(0 -0 -0.00242088)
(0 -0 -0.00214766)
(0 -0 -0.0018785)
(0 -0 -0.00163114)
(0 -0 -0.00141477)
(0 -0 -0.00122978)
(0 -0 -0.00106971)
(0 -0 -0.000924757)
(0 -0 -0.000785695)
(0 -0 -0.000646828)
(0 -0 -0.000507345)
(0 -0 -0.000370866)
(0 -0 -0.000243702)
(0 -0 -0.000132602)
(0 -0 -4.27893e-05)
(0 -0 2.32129e-05)
(0 -0 6.57969e-05)
(0 -0 8.76856e-05)
(0 -0 9.32479e-05)
(0 -9.20892e-23 -0.0020478)
(0 -0 -0.0017644)
(0 -0 -0.00165647)
(0 -0 -0.00151198)
(0 -0 -0.00134475)
(0 -0 -0.00117386)
(0 -0 -0.00101724)
(0 -0 -0.00088655)
(0 -0 -0.000785282)
(0 -0 -0.000709037)
(0 -0 -0.000647831)
(0 -0 -0.000589731)
(0 -0 -0.000524626)
(0 -0 -0.000446981)
(0 -0 -0.000356865)
(0 -0 -0.000259224)
(0 -0 -0.000161904)
(0 -0 -7.32272e-05)
(0 -0 8.40295e-08)
(0 -0 5.41606e-05)
(0 -0 8.82444e-05)
(0 -0 0.000104126)
(0 -0 0.000105439)
(0 -5.18344e-21 -0.00124486)
(0 -0 -0.0009977)
(0 -0 -0.000908626)
(0 -0 -0.00079898)
(0 -0 -0.000681429)
(0 -0 -0.000572205)
(0 -0 -0.000485317)
(0 -0 -0.000428175)
(0 -0 -0.000400164)
(0 -0 -0.000393375)
(0 -0 -0.000395222)
(0 -0 -0.000392191)
(0 -0 -0.000373539)
(0 -0 -0.000333854)
(0 -0 -0.000273852)
(0 -0 -0.000199429)
(0 -0 -0.00011951)
(0 -0 -4.35097e-05)
(0 -0 2.08246e-05)
(0 -0 6.87126e-05)
(0 -0 9.86273e-05)
(0 -0 0.000111748)
(0 -0 0.000111229)
(0 9.86498e-21 -0.000760404)
(0 -0 -0.000538686)
(0 -0 -0.00045672)
(0 -0 -0.000364988)
(0 -0 -0.000275955)
(0 -0 -0.000204153)
(0 -0 -0.000160927)
(0 -0 -0.000150638)
(0 -0 -0.000169651)
(0 -0 -0.000207453)
(0 -0 -0.000249538)
(0 -0 -0.000281253)
(0 -0 -0.000291436)
(0 -0 -0.000274822)
(0 -0 -0.000232646)
(0 -0 -0.000171524)
(0 -0 -0.000101167)
(0 -0 -3.17613e-05)
(0 -0 2.82377e-05)
(0 -0 7.34324e-05)
(0 -0 0.000101784)
(0 -0 0.000114075)
(0 -0 0.000113155)
(0 -4.6835e-21 -0.000465926)
(0 -0 -0.000263359)
(0 -0 -0.000182868)
(0 -0 -0.000100119)
(0 -0 -2.78079e-05)
(0 -0 2.05885e-05)
(0 -0 3.56307e-05)
(0 -0 1.52351e-05)
(0 -0 -3.46785e-05)
(0 -0 -0.000101628)
(0 -0 -0.000169681)
(0 -0 -0.000223378)
(0 -0 -0.000251323)
(0 -0 -0.00024844)
(0 -0 -0.000216422)
(0 -0 -0.000162461)
(0 -0 -9.68669e-05)
(0 -0 -3.03868e-05)
(0 -0 2.80295e-05)
(0 -0 7.25646e-05)
(0 -0 0.000100841)
(0 -0 0.000113386)
(0 -0 0.000112858)
(0 -0 -0.000282798)
(0 -0 -9.55028e-05)
(0 -0 -1.41128e-05)
(0 -0 6.40789e-05)
(0 -0 0.000126004)
(0 -0 0.000158904)
(0 -0 0.000154797)
(0 -0 0.000113382)
(0 -0 4.23734e-05)
(0 -0 -4.42192e-05)
(0 -0 -0.000129395)
(0 -0 -0.000197143)
(0 -0 -0.000235972)
(0 -0 -0.000241048)
(0 -0 -0.000214489)
(0 -0 -0.000163975)
(0 -0 -0.000100292)
(0 -0 -3.46052e-05)
(0 -0 2.37831e-05)
(0 -0 6.87702e-05)
(0 -0 9.77571e-05)
(0 -0 0.000111111)
(0 -0 0.000111375)
(0 -5.66535e-23 -0.000164348)
(0 -0 1.02751e-05)
(0 -0 9.33058e-05)
(0 -0 0.000168952)
(0 -0 0.000223774)
(0 -0 0.000245578)
(0 -0 0.000227573)
(0 -0 0.000170922)
(0 -0 8.48006e-05)
(0 -0 -1.55684e-05)
(0 -0 -0.000112374)
(0 -0 -0.000189242)
(0 -0 -0.0002347)
(0 -0 -0.000244194)
(0 -0 -0.000220251)
(0 -0 -0.000170985)
(0 -0 -0.000107572)
(0 -0 -4.14997e-05)
(0 -0 1.76782e-05)
(0 -0 6.36664e-05)
(0 -0 9.37247e-05)
(0 -0 0.000108126)
(0 -0 0.00010935)
(0 -0 -8.35558e-05)
(0 -0 8.02803e-05)
(0 -0 0.000164927)
(0 -0 0.00023881)
(0 -0 0.000288185)
(0 -0 0.000301352)
(0 -0 0.000272551)
(0 -0 0.000204197)
(0 -0 0.000106689)
(0 -0 -3.76288e-06)
(0 -0 -0.00010873)
(0 -0 -0.000191613)
(0 -0 -0.000241044)
(0 -0 -0.000252781)
(0 -0 -0.000229749)
(0 -0 -0.000180458)
(0 -0 -0.00011641)
(0 -0 -4.9346e-05)
(0 -0 1.09992e-05)
(0 -0 5.82051e-05)
(0 -0 8.94483e-05)
(0 -0 0.000104957)
(0 -0 0.000107195)
(0 2.93256e-21 -2.49202e-05)
(0 -0 0.000129512)
(0 -0 0.000215365)
(0 -0 0.000287664)
(0 -0 0.000332412)
(0 -0 0.000338368)
(0 -0 0.000300692)
(0 -0 0.000222895)
(0 -0 0.000116427)
(0 -0 -1.68736e-06)
(0 -0 -0.000112547)
(0 -0 -0.000199435)
(0 -0 -0.000251147)
(0 -0 -0.000263776)
(0 -0 -0.000240639)
(0 -0 -0.000190601)
(0 -0 -0.000125452)
(0 -0 -5.71298e-05)
(0 -0 4.50441e-06)
(0 -0 5.29536e-05)
(0 -0 8.53556e-05)
(0 -0 0.000101936)
(0 -0 0.000105259)
(0 -5.59034e-21 2.02468e-05)
(0 -0 0.000167075)
(0 -0 0.000253199)
(0 -0 0.000323716)
(0 -0 0.000364243)
(0 -0 0.00036389)
(0 -0 0.000318633)
(0 -0 0.000232955)
(0 -0 0.000119216)
(0 -0 -4.87827e-06)
(0 -0 -0.000120069)
(0 -0 -0.000209601)
(0 -0 -0.00026248)
(0 -0 -0.000275147)
(0 -0 -0.000251299)
(0 -0 -0.000200132)
(0 -0 -0.000133678)
(0 -0 -6.40329e-05)
(0 -0 -1.14205e-06)
(0 -0 4.84606e-05)
(0 -0 8.19094e-05)
(0 -0 9.94618e-05)
(0 -0 0.000103566)
(0 2.65887e-21 5.65313e-05)
(0 -0 0.000195703)
(0 -0 0.000283777)
(0 -0 0.000351787)
(0 -0 0.000388249)
(0 -0 0.000382225)
(0 -0 0.000330358)
(0 -0 0.000237983)
(0 -0 0.000118251)
(0 -0 -1.05655e-05)
(0 -0 -0.000128939)
(0 -0 -0.000220139)
(0 -0 -0.000273417)
(0 -0 -0.000285568)
(0 -0 -0.000260652)
(0 -0 -0.000208171)
(0 -0 -0.000140368)
(0 -0 -6.9457e-05)
(0 -0 -5.43345e-06)
(0 -0 4.51627e-05)
(0 -0 7.94808e-05)
(0 -0 9.77837e-05)
(0 -0 0.000102282)
(0 -0 8.34452e-05)
(0 -0 0.000217096)
(0 -0 0.000305077)
(0 -0 0.000373111)
(0 -0 0.000405697)
(0 -0 0.000394528)
(0 -0 0.000336837)
(0 -0 0.000238722)
(0 -0 0.000114025)
(0 -0 -1.85069e-05)
(0 -0 -0.000139157)
(0 -0 -0.000231273)
(0 -0 -0.000284374)
(0 -0 -0.000295612)
(0 -0 -0.0002694)
(0 -0 -0.000215516)
(0 -0 -0.000146383)
(0 -0 -7.43008e-05)
(0 -0 -9.28561e-06)
(0 -0 4.21413e-05)
(0 -0 7.7162e-05)
(0 -0 9.59972e-05)
(0 -0 0.000100922)
(0 -0 0.000231106)
(0 -0 0.00031893)
(0 -0 0.000385786)
(0 -0 0.000415691)
(0 -0 0.000400038)
(0 -0 0.000337236)
(0 -0 0.000234213)
(0 -0 0.000105441)
(0 -0 -2.99374e-05)
(0 -0 -0.000152084)
(0 -0 -0.000244471)
(0 -0 -0.000296909)
(0 -0 -0.000306908)
(0 -0 -0.000279218)
(0 -0 -0.00022387)
(0 -0 -0.000153437)
(0 -0 -8.02748e-05)
(0 -0 -1.43904e-05)
(0 -0 3.77357e-05)