/*--------------------------------*- C++ -*----------------------------------*\
| =========                 |                                                 |
| \\      /  F ield         | OpenFOAM: The Open Source CFD Toolbox           |
|  \\    /   O peration     | Version:  2412                                  |
|   \\  /    A nd           | Website:  www.openfoam.com                      |
|    \\/     M anipulation  |                                                 |
\*---------------------------------------------------------------------------*/
FoamFile
{
    version     2.0;
    format      ascii;
    arch        "LSB;label=32;scalar=64";
    class       volScalarField;
    location    "11";
    object      p;
}
// * * * * * * * * * * * * * * * * * * * * * * * * * * * * * * * * * * * * * //

dimensions      [0 2 -2 0 0 0 0];

internalField   nonuniform List<scalar> 
5285
(
-1.13419e-05
-1.06746e-05
-1.00396e-05
-9.43543e-06
-8.86091e-06
-8.31479e-06
-7.79586e-06
-7.30298e-06
-6.83504e-06
-6.39097e-06
-5.96975e-06
-5.57038e-06
-5.19193e-06
-4.83349e-06
-4.49419e-06
-4.17319e-06
-3.8697e-06
-3.58295e-06
-3.31221e-06
-3.05676e-06
-2.81593e-06
-2.58907e-06
-2.37555e-06
-2.17477e-06
-1.98615e-06
-1.80911e-06
-1.64313e-06
-1.48769e-06
-1.34227e-06
-1.20639e-06
-1.07958e-06
-9.61382e-07
-8.51355e-07
-7.49065e-07
-6.54104e-07
-5.66066e-07
-4.8457e-07
-4.09236e-07
-3.39707e-07
-2.75626e-07
-2.16651e-07
-1.62466e-07
-1.12717e-07
-6.7198e-08
-2.53686e-08
1.24699e-08
4.79791e-08
7.82397e-08
1.10715e-07
1.29872e-07
1.69592e-07
1.60713e-07
2.42087e-07
1.46644e-07
3.71693e-07
2.83088e-08
6.43679e-07
-2.91678e-07
1.15851e-06
-8.69737e-07
1.88137e-06
-1.49475e-06
2.3771e-06
-1.47739e-06
1.8167e-06
-5.40911e-08
-9.84356e-08
2.28037e-06
-1.80877e-06
3.20442e-06
-6.19482e-07
-1.17534e-05
-1.10677e-05
-1.04148e-05
-9.79338e-06
-9.20208e-06
-8.6397e-06
-8.10501e-06
-7.59686e-06
-7.11412e-06
-6.65572e-06
-6.22064e-06
-5.80787e-06
-5.41647e-06
-5.04552e-06
-4.69417e-06
-4.36156e-06
-4.0469e-06
-3.74942e-06
-3.46838e-06
-3.20306e-06
-2.95279e-06
-2.7169e-06
-2.49477e-06
-2.28578e-06
-2.08936e-06
-1.90491e-06
-1.73191e-06
-1.56982e-06
-1.41812e-06
-1.27632e-06
-1.14394e-06
-1.0205e-06
-9.05561e-07
-7.98671e-07
-6.99413e-07
-6.07367e-07
-5.2214e-07
-4.43341e-07
-3.70596e-07
-3.03541e-07
-2.41817e-07
-1.85098e-07
-1.33017e-07
-8.53539e-08
-4.15581e-08
-1.92761e-09
3.52522e-08
6.69571e-08
1.00938e-07
1.21073e-07
1.62484e-07
1.53606e-07
2.37853e-07
1.39909e-07
3.7145e-07
1.97234e-08
6.49504e-07
-3.04604e-07
1.17166e-06
-8.86571e-07
1.89789e-06
-1.50783e-06
2.38597e-06
-1.47571e-06
1.81125e-06
-4.06014e-08
-1.05182e-07
2.28611e-06
-1.80246e-06
3.1987e-06
-6.12875e-07
-1.21564e-05
-1.14529e-05
-1.07828e-05
-1.01446e-05
-9.53707e-06
-8.9589e-06
-8.40891e-06
-7.88589e-06
-7.38874e-06
-6.91637e-06
-6.46774e-06
-6.04187e-06
-5.6378e-06
-5.25461e-06
-4.89144e-06
-4.54744e-06
-4.22181e-06
-3.91378e-06
-3.62261e-06
-3.34758e-06
-3.08801e-06
-2.84323e-06
-2.61261e-06
-2.39553e-06
-2.19141e-06
-1.99965e-06
-1.81972e-06
-1.65106e-06
-1.49317e-06
-1.34551e-06
-1.20762e-06
-1.07901e-06
-9.5921e-07
-8.47772e-07
-7.44264e-07
-6.48254e-07
-5.59336e-07
-4.77108e-07
-4.01182e-07
-3.31183e-07
-2.66738e-07
-2.0751e-07
-1.53121e-07
-1.03337e-07
-5.75912e-08
-1.61891e-08
2.26474e-08
5.57813e-08
9.12524e-08
1.12358e-07
1.55442e-07
1.46559e-07
2.33671e-07
1.33203e-07
3.71258e-07
1.11204e-08
6.55423e-07
-3.17681e-07
1.18509e-06
-9.03904e-07
1.91513e-06
-1.52204e-06
2.39616e-06
-1.4756e-06
1.80689e-06
-2.75338e-08
-1.13378e-07
2.29474e-06
-1.80164e-06
3.19866e-06
-6.17308e-07
-1.25507e-05
-1.18301e-05
-1.11433e-05
-1.0489e-05
-9.86574e-06
-9.27229e-06
-8.70744e-06
-8.16998e-06
-7.6588e-06
-7.17282e-06
-6.71098e-06
-6.27231e-06
-5.85584e-06
-5.46067e-06
-5.08592e-06
-4.73075e-06
-4.39436e-06
-4.07597e-06
-3.77484e-06
-3.49026e-06
-3.22153e-06
-2.968e-06
-2.72902e-06
-2.50398e-06
-2.29226e-06
-2.0933e-06
-1.90652e-06
-1.73139e-06
-1.56737e-06
-1.41394e-06
-1.27061e-06
-1.13687e-06
-1.01228e-06
-8.96347e-07
-7.88638e-07
-6.88709e-07
-5.96141e-07
-5.10523e-07
-4.3145e-07
-3.58538e-07
-2.91403e-07
-2.29693e-07
-1.73018e-07
-1.21137e-07
-7.34611e-08
-3.03073e-08
1.01696e-08
4.47177e-08
8.16618e-08
1.03731e-07
1.48463e-07
1.39591e-07
2.2951e-07
1.26596e-07
3.71007e-07
2.68716e-09
6.61146e-07
-3.30461e-07
1.19817e-06
-9.20865e-07
1.93202e-06
-1.53609e-06
2.40633e-06
-1.47579e-06
1.8027e-06
-1.45268e-08
-1.22676e-07
2.30525e-06
-1.80489e-06
3.20296e-06
-6.31429e-07
-1.29361e-05
-1.2199e-05
-1.14963e-05
-1.08264e-05
-1.0188e-05
-9.57976e-06
-9.0005e-06
-8.44903e-06
-7.92422e-06
-7.42498e-06
-6.95027e-06
-6.49911e-06
-6.07054e-06
-5.66364e-06
-5.27755e-06
-4.91144e-06
-4.56449e-06
-4.23593e-06
-3.92502e-06
-3.63105e-06
-3.35333e-06
-3.09118e-06
-2.84397e-06
-2.61107e-06
-2.39188e-06
-2.18581e-06
-1.99229e-06
-1.81076e-06
-1.6407e-06
-1.48157e-06
-1.33287e-06
-1.19408e-06
-1.06475e-06
-9.44376e-07
-8.32516e-07
-7.28716e-07
-6.32541e-07
-5.43571e-07
-4.61387e-07
-3.85596e-07
-3.158e-07
-2.51637e-07
-1.92702e-07
-1.38747e-07
-8.91613e-08
-4.42756e-08
-2.17605e-09
3.37714e-08
7.21701e-08
9.51983e-08
1.4155e-07
1.32707e-07
2.25366e-07
1.20096e-07
3.70685e-07
-5.55275e-09
6.66635e-07
-3.42888e-07
1.2108e-06
-9.37341e-07
1.9484e-06
-1.5498e-06
2.41627e-06
-1.4761e-06
1.79851e-06
-1.50241e-09
-1.33011e-07
2.31742e-06
-1.81183e-06
3.21123e-06
-6.54479e-07
-1.33125e-05
-1.25597e-05
-1.18417e-05
-1.11568e-05
-1.05037e-05
-9.8812e-06
-9.28802e-06
-8.72296e-06
-8.18491e-06
-7.67278e-06
-7.18554e-06
-6.7222e-06
-6.2818e-06
-5.86345e-06
-5.46627e-06
-5.08943e-06
-4.73213e-06
-4.3936e-06
-4.0731e-06
-3.76991e-06
-3.48334e-06
-3.21272e-06
-2.95741e-06
-2.71678e-06
-2.49022e-06
-2.27715e-06
-2.07698e-06
-1.88916e-06
-1.71314e-06
-1.54838e-06
-1.39438e-06
-1.25061e-06
-1.1166e-06
-9.91841e-07
-8.75882e-07
-7.68258e-07
-6.6852e-07
-5.76239e-07
-4.90982e-07
-4.12346e-07
-3.3992e-07
-2.73333e-07
-2.12164e-07
-1.56159e-07
-1.04686e-07
-5.80877e-08
-1.43848e-08
2.29469e-08
6.27817e-08
8.67615e-08
1.34707e-07
1.25908e-07
2.21246e-07
1.137e-07
3.70303e-07
-1.3614e-08
6.7192e-07
-3.55e-07
1.22305e-06
-9.53401e-07
1.96436e-06
-1.56326e-06
2.42608e-06
-1.47657e-06
1.79437e-06
1.15293e-08
-1.44365e-07
2.33125e-06
-1.82236e-06
3.22336e-06
-6.85808e-07
-1.36797e-05
-1.2912e-05
-1.21792e-05
-1.148e-05
-1.08128e-05
-1.01765e-05
-9.56989e-06
-8.99168e-06
-8.4408e-06
-7.91615e-06
-7.41671e-06
-6.9415e-06
-6.48957e-06
-6.06003e-06
-5.65201e-06
-5.26469e-06
-4.89725e-06
-4.54894e-06
-4.21902e-06
-3.90677e-06
-3.61151e-06
-3.33257e-06
-3.0693e-06
-2.82106e-06
-2.58726e-06
-2.36729e-06
-2.16057e-06
-1.96654e-06
-1.78465e-06
-1.61435e-06
-1.45512e-06
-1.30643e-06
-1.1678e-06
-1.03872e-06
-9.18718e-07
-8.07319e-07
-7.04064e-07
-6.08514e-07
-5.20222e-07
-4.38777e-07
-3.63754e-07
-2.94771e-07
-2.31396e-07
-1.73366e-07
-1.20028e-07
-7.17379e-08
-2.64513e-08
1.22488e-08
5.35008e-08
7.84244e-08
1.27936e-07
1.19196e-07
2.17153e-07
1.07408e-07
3.69868e-07
-2.15023e-08
6.77011e-07
-3.66812e-07
1.23495e-06
-9.69074e-07
1.97993e-06
-1.5765e-06
2.43576e-06
-1.47721e-06
1.79028e-06
2.45655e-08
-1.56696e-07
2.34664e-06
-1.8363e-06
3.23914e-06
-7.24674e-07
-1.40378e-05
-1.32557e-05
-1.25089e-05
-1.17959e-05
-1.11152e-05
-1.04657e-05
-9.84604e-06
-9.25512e-06
-8.6918e-06
-8.155e-06
-7.64371e-06
-7.15695e-06
-6.69379e-06
-6.25333e-06
-5.83472e-06
-5.43713e-06
-5.05978e-06
-4.70189e-06
-4.36274e-06
-4.04161e-06
-3.73782e-06
-3.4507e-06
-3.1796e-06
-2.92389e-06
-2.68295e-06
-2.45619e-06
-2.24303e-06
-2.04289e-06
-1.85521e-06
-1.67944e-06
-1.51506e-06
-1.36153e-06
-1.21835e-06
-1.085e-06
-9.61007e-07
-8.45884e-07
-7.39158e-07
-6.40382e-07
-5.49095e-07
-4.64878e-07
-3.8729e-07
-3.15943e-07
-2.50389e-07
-1.9036e-07
-1.35181e-07
-8.52205e-08
-3.83707e-08
1.68157e-09
4.43312e-08
7.01903e-08
1.21242e-07
1.12574e-07
2.1309e-07
1.0122e-07
3.69382e-07
-2.92179e-08
6.81914e-07
-3.78326e-07
1.24648e-06
-9.84359e-07
1.9951e-06
-1.58951e-06
2.4453e-06
-1.478e-06
1.78622e-06
3.76121e-08
-1.69944e-07
2.36349e-06
-1.85341e-06
3.25832e-06
-7.70275e-07
-1.43865e-05
-1.35908e-05
-1.28307e-05
-1.21045e-05
-1.14108e-05
-1.07486e-05
-1.01164e-05
-9.51321e-06
-8.93785e-06
-8.38928e-06
-7.86648e-06
-7.36849e-06
-6.89439e-06
-6.44329e-06
-6.01434e-06
-5.60672e-06
-5.21966e-06
-4.8524e-06
-4.5042e-06
-4.17437e-06
-3.86221e-06
-3.56706e-06
-3.28827e-06
-3.02521e-06
-2.77726e-06
-2.54383e-06
-2.32432e-06
-2.11817e-06
-1.92479e-06
-1.74364e-06
-1.57419e-06
-1.41588e-06
-1.26821e-06
-1.13066e-06
-1.00273e-06
-8.83938e-07
-7.73789e-07
-6.71832e-07
-5.77591e-07
-4.90637e-07
-4.10521e-07
-3.3684e-07
-2.69137e-07
-2.07135e-07
-1.50139e-07
-9.85299e-08
-5.01377e-08
-8.7504e-09
3.52769e-08
6.20628e-08
1.14628e-07
1.06044e-07
2.0906e-07
9.51381e-08
3.68849e-07
-3.67613e-08
6.86631e-07
-3.89544e-07
1.25767e-06
-9.99257e-07
2.00987e-06
-1.60226e-06
2.45467e-06
-1.4789e-06
1.78215e-06
5.06725e-08
-1.84048e-07
2.38167e-06
-1.87344e-06
3.28065e-06
-8.21806e-07
-1.47258e-05
-1.39173e-05
-1.31444e-05
-1.24056e-05
-1.16996e-05
-1.10251e-05
-1.03809e-05
-9.76587e-06
-9.17889e-06
-8.61892e-06
-8.08496e-06
-7.57606e-06
-7.09131e-06
-6.62984e-06
-6.19081e-06
-5.7734e-06
-5.37686e-06
-5.00042e-06
-4.64337e-06
-4.305e-06
-3.98463e-06
-3.68161e-06
-3.39527e-06
-3.12499e-06
-2.87016e-06
-2.63017e-06
-2.40442e-06
-2.19235e-06
-1.99337e-06
-1.80692e-06
-1.63247e-06
-1.46946e-06
-1.31738e-06
-1.17568e-06
-1.04388e-06
-9.21464e-07
-8.07943e-07
-7.0285e-07
-6.05696e-07
-5.16046e-07
-4.33435e-07
-3.57454e-07
-2.87632e-07
-2.23684e-07
-1.64896e-07
-1.1166e-07
-6.17475e-08
-1.90428e-08
2.63419e-08
5.40451e-08
1.08096e-07
9.96074e-08
2.05065e-07
8.91632e-08
3.68271e-07
-4.41335e-08
6.91168e-07
-4.0047e-07
1.2685e-06
-1.01377e-06
2.02425e-06
-1.61476e-06
2.46387e-06
-1.47989e-06
1.77808e-06
6.37457e-08
-1.98944e-07
2.40108e-06
-1.89614e-06
3.30586e-06
-8.78476e-07
-1.50557e-05
-1.4235e-05
-1.34501e-05
-1.26993e-05
-1.19814e-05
-1.12952e-05
-1.06395e-05
-1.00131e-05
-9.41487e-06
-8.84387e-06
-8.2991e-06
-7.77961e-06
-7.28451e-06
-6.81294e-06
-6.36408e-06
-5.93713e-06
-5.53132e-06
-5.14591e-06
-4.78019e-06
-4.43347e-06
-4.10506e-06
-3.79431e-06
-3.50057e-06
-3.22321e-06
-2.96161e-06
-2.71517e-06
-2.4833e-06
-2.2654e-06
-2.06091e-06
-1.86926e-06
-1.68989e-06
-1.52225e-06
-1.36582e-06
-1.22005e-06
-1.08442e-06
-9.58449e-07
-8.41605e-07
-7.33423e-07
-6.334e-07
-5.41092e-07
-4.56025e-07
-3.77776e-07
-3.05865e-07
-2.39999e-07
-1.79445e-07
-1.24607e-07
-7.31951e-08
-2.91912e-08
1.75299e-08
4.61405e-08
1.0165e-07
9.32679e-08
2.01108e-07
8.32963e-08
3.67652e-07
-5.13356e-08
6.9553e-07
-4.11108e-07
1.279e-06
-1.0279e-06
2.03824e-06
-1.62699e-06
2.47288e-06
-1.48095e-06
1.77397e-06
7.68274e-08
-2.14564e-07
2.42158e-06
-1.92127e-06
3.33368e-06
-9.39531e-07
-1.53761e-05
-1.45439e-05
-1.37476e-05
-1.29855e-05
-1.22563e-05
-1.1559e-05
-1.08921e-05
-1.02547e-05
-9.64572e-06
-9.06407e-06
-8.50883e-06
-7.97907e-06
-7.47393e-06
-6.99254e-06
-6.53411e-06
-6.09784e-06
-5.68298e-06
-5.28882e-06
-4.91462e-06
-4.55972e-06
-4.22344e-06
-3.90512e-06
-3.60412e-06
-3.31981e-06
-3.05158e-06
-2.79881e-06
-2.56092e-06
-2.33731e-06
-2.1274e-06
-1.93062e-06
-1.74642e-06
-1.57423e-06
-1.41352e-06
-1.26374e-06
-1.12436e-06
-9.94877e-07
-8.74762e-07
-7.6354e-07
-6.60691e-07
-5.65767e-07
-4.78279e-07
-3.97798e-07
-3.2383e-07
-2.56074e-07
-1.93781e-07
-1.37363e-07
-8.44757e-08
-3.91914e-08
8.84473e-09
3.83522e-08
9.52921e-08
8.70271e-08
1.97192e-07
7.75382e-08
3.66995e-07
-5.83687e-08
6.99721e-07
-4.21459e-07
1.28916e-06
-1.04165e-06
2.05183e-06
-1.63895e-06
2.48168e-06
-1.48204e-06
1.76984e-06
8.99108e-08
-2.30842e-07
2.44307e-06
-1.94858e-06
3.36385e-06
-1.00425e-06
-1.56869e-05
-1.4844e-05
-1.40369e-05
-1.32641e-05
-1.25242e-05
-1.18162e-05
-1.11387e-05
-1.04908e-05
-9.87139e-06
-9.27947e-06
-8.71411e-06
-8.17441e-06
-7.65951e-06
-7.16859e-06
-6.70084e-06
-6.25549e-06
-5.83182e-06
-5.4291e-06
-5.04663e-06
-4.68373e-06
-4.33974e-06
-4.01401e-06
-3.7059e-06
-3.41478e-06
-3.14004e-06
-2.88106e-06
-2.63726e-06
-2.40803e-06
-2.19281e-06
-1.991e-06
-1.80205e-06
-1.62538e-06
-1.46047e-06
-1.30674e-06
-1.16366e-06
-1.03073e-06
-9.07401e-07
-7.93188e-07
-6.87558e-07
-5.90059e-07
-5.0019e-07
-4.17511e-07
-3.41518e-07
-2.71903e-07
-2.07897e-07
-1.49925e-07
-9.55845e-08
-4.90394e-08
2.90131e-10
3.06833e-08
8.90265e-08
8.08872e-08
1.9332e-07
7.18899e-08
3.66305e-07
-6.5234e-08
7.03746e-07
-4.31529e-07
1.299e-06
-1.05502e-06
2.06503e-06
-1.65064e-06
2.49027e-06
-1.48317e-06
1.76566e-06
1.02987e-07
-2.47709e-07
2.46543e-06
-1.97783e-06
3.39611e-06
-1.07198e-06
-1.59882e-05
-1.51353e-05
-1.43181e-05
-1.35351e-05
-1.27851e-05
-1.20668e-05
-1.13793e-05
-1.07213e-05
-1.00919e-05
-9.49003e-06
-8.9149e-06
-8.36557e-06
-7.84122e-06
-7.34103e-06
-6.86423e-06
-6.41005e-06
-5.97778e-06
-5.56671e-06
-5.17616e-06
-4.80545e-06
-4.45393e-06
-4.12094e-06
-3.80587e-06
-3.50807e-06
-3.22695e-06
-2.96189e-06
-2.71229e-06
-2.47755e-06
-2.25711e-06
-2.05035e-06
-1.85675e-06
-1.67567e-06
-1.50663e-06
-1.34903e-06
-1.20232e-06
-1.066e-06
-9.39508e-07
-8.22354e-07
-7.1399e-07
-6.13959e-07
-5.21748e-07
-4.36907e-07
-3.58923e-07
-2.87478e-07
-2.21786e-07
-1.62285e-07
-1.06517e-07
-5.87308e-08
-8.13025e-09
2.3137e-08
8.28557e-08
7.48505e-08
1.89495e-07
6.63521e-08
3.65583e-07
-7.19328e-08
7.07611e-07
-4.41321e-07
1.30851e-06
-1.06802e-06
2.07784e-06
-1.66203e-06
2.49864e-06
-1.4843e-06
1.76143e-06
1.16045e-07
-2.65094e-07
2.48855e-06
-2.00879e-06
3.43019e-06
-1.14209e-06
-1.62799e-05
-1.54177e-05
-1.45911e-05
-1.37985e-05
-1.30389e-05
-1.2311e-05
-1.16137e-05
-1.09461e-05
-1.03071e-05
-9.69571e-06
-9.11114e-06
-8.55252e-06
-8.01901e-06
-7.50983e-06
-7.02423e-06
-6.56146e-06
-6.12082e-06
-5.70162e-06
-5.30318e-06
-4.92484e-06
-4.56595e-06
-4.22588e-06
-3.90399e-06
-3.59966e-06
-3.31229e-06
-3.04126e-06
-2.78598e-06
-2.54584e-06
-2.32027e-06
-2.10867e-06
-1.91049e-06
-1.7251e-06
-1.55201e-06
-1.3906e-06
-1.24032e-06
-1.10067e-06
-9.7107e-07
-8.51028e-07
-7.39977e-07
-6.37457e-07
-5.42944e-07
-4.55979e-07
-3.76037e-07
-3.02793e-07
-2.35444e-07
-1.7444e-07
-1.17268e-07
-6.82619e-08
-1.64128e-08
1.57162e-08
7.67827e-08
6.89189e-08
1.85719e-07
6.09256e-08
3.64833e-07
-7.84664e-08
7.11319e-07
-4.50838e-07
1.31771e-06
-1.08065e-06
2.09026e-06
-1.67314e-06
2.50677e-06
-1.48543e-06
1.75715e-06
1.29073e-07
-2.8293e-07
2.51231e-06
-2.04122e-06
3.46586e-06
-1.21403e-06
-1.6562e-05
-1.56912e-05
-1.48558e-05
-1.40543e-05
-1.32856e-05
-1.25485e-05
-1.18421e-05
-1.11652e-05
-1.0517e-05
-9.89646e-06
-9.30282e-06
-8.73521e-06
-8.19284e-06
-7.67495e-06
-7.18081e-06
-6.70969e-06
-6.26091e-06
-5.83378e-06
-5.42765e-06
-5.04187e-06
-4.67579e-06
-4.32878e-06
-4.00023e-06
-3.68951e-06
-3.39602e-06
-3.11915e-06
-2.8583e-06
-2.61288e-06
-2.38229e-06
-2.16593e-06
-1.96326e-06
-1.77364e-06
-1.59657e-06
-1.43143e-06
-1.27765e-06
-1.13473e-06
-1.00207e-06
-8.79196e-07
-7.65507e-07
-6.60543e-07
-5.6377e-07
-4.74717e-07
-3.92853e-07
-3.17841e-07
-2.48865e-07
-1.86384e-07
-1.27833e-07
-7.76285e-08
-2.45541e-08
8.42386e-09
7.08104e-08
6.30946e-08
1.81995e-07
5.56111e-08
3.64059e-07
-8.4836e-08
7.14876e-07
-4.60084e-07
1.3266e-06
-1.09291e-06
2.1023e-06
-1.68396e-06
2.51466e-06
-1.48655e-06
1.75282e-06
1.42056e-07
-3.01148e-07
2.53661e-06
-2.0749e-06
3.50287e-06
-1.28727e-06
-1.68346e-05
-1.59559e-05
-1.51123e-05
-1.43024e-05
-1.35252e-05
-1.27795e-05
-1.20643e-05
-1.13786e-05
-1.07216e-05
-1.00923e-05
-9.48988e-06
-8.9136e-06
-8.36267e-06
-7.83635e-06
-7.33393e-06
-6.8547e-06
-6.398e-06
-5.96316e-06
-5.54953e-06
-5.15649e-06
-4.78339e-06
-4.42962e-06
-4.09456e-06
-3.77759e-06
-3.47812e-06
-3.19553e-06
-2.92924e-06
-2.67863e-06
-2.44313e-06
-2.22211e-06
-2.01505e-06
-1.82127e-06
-1.6403e-06
-1.4715e-06
-1.31428e-06
-1.16815e-06
-1.03251e-06
-9.06849e-07
-7.9057e-07
-6.83209e-07
-5.84217e-07
-4.93116e-07
-4.09364e-07
-3.32617e-07
-2.62042e-07
-1.98112e-07
-1.38208e-07
-8.6827e-08
-3.25508e-08
1.2628e-09
6.49418e-08
5.73794e-08
1.78326e-07
5.04093e-08
3.63263e-07
-9.1043e-08
7.18286e-07
-4.69061e-07
1.33518e-06
-1.10481e-06
2.11395e-06
-1.69447e-06
2.52231e-06
-1.48763e-06
1.74844e-06
1.54981e-07
-3.19679e-07
2.56135e-06
-2.10961e-06
3.54098e-06
-1.36136e-06
-1.70978e-05
-1.62117e-05
-1.53606e-05
-1.4543e-05
-1.37577e-05
-1.30038e-05
-1.22803e-05
-1.15863e-05
-1.09208e-05
-1.02831e-05
-9.6723e-06
-9.08767e-06
-8.52847e-06
-7.994e-06
-7.48355e-06
-6.99645e-06
-6.53206e-06
-6.08971e-06
-5.6688e-06
-5.26868e-06
-4.88874e-06
-4.52836e-06
-4.18694e-06
-3.86387e-06
-3.55856e-06
-3.27038e-06
-2.99876e-06
-2.74308e-06
-2.50276e-06
-2.27719e-06
-2.06582e-06
-1.86797e-06
-1.68318e-06
-1.5108e-06
-1.35021e-06
-1.20093e-06
-1.06235e-06
-9.33974e-07
-8.15156e-07
-7.05443e-07
-6.04277e-07
-5.11166e-07
-4.25563e-07
-3.47113e-07
-2.74969e-07
-2.09618e-07
-1.48388e-07
-9.58534e-08
-4.03995e-08
-5.76422e-09
5.91796e-08
5.17753e-08
1.74715e-07
4.53208e-08
3.6245e-07
-9.70889e-08
7.21555e-07
-4.77775e-07
1.34346e-06
-1.11634e-06
2.12521e-06
-1.70468e-06
2.5297e-06
-1.48867e-06
1.74401e-06
1.67831e-07
-3.38456e-07
2.58641e-06
-2.14516e-06
3.57997e-06
-1.43585e-06
-1.73514e-05
-1.64588e-05
-1.56007e-05
-1.47759e-05
-1.39831e-05
-1.32215e-05
-1.24902e-05
-1.17882e-05
-1.11147e-05
-1.04689e-05
-9.85004e-06
-9.25738e-06
-8.69021e-06
-8.14785e-06
-7.62963e-06
-7.13491e-06
-6.66304e-06
-6.21341e-06
-5.7854e-06
-5.37839e-06
-4.99179e-06
-4.62497e-06
-4.27735e-06
-3.94833e-06
-3.6373e-06
-3.34367e-06
-3.06683e-06
-2.8062e-06
-2.56118e-06
-2.33114e-06
-2.11556e-06
-1.91372e-06
-1.7252e-06
-1.54931e-06
-1.38542e-06
-1.23306e-06
-1.09161e-06
-9.60559e-07
-8.39255e-07
-7.27237e-07
-6.2394e-07
-5.28862e-07
-4.41443e-07
-3.61324e-07
-2.87642e-07
-2.20897e-07
-1.58368e-07
-1.04703e-07
-4.80964e-08
-1.26538e-08
5.35263e-08
4.6285e-08
1.71164e-07
4.03466e-08
3.61623e-07
-1.02975e-07
7.24686e-07
-4.86228e-07
1.35145e-06
-1.12751e-06
2.1361e-06
-1.71458e-06
2.53683e-06
-1.48966e-06
1.73953e-06
1.8059e-07
-3.57414e-07
2.6117e-06
-2.18134e-06
3.61962e-06
-1.51038e-06
-1.75957e-05
-1.66971e-05
-1.58327e-05
-1.50012e-05
-1.42014e-05
-1.34326e-05
-1.26939e-05
-1.19844e-05
-1.13032e-05
-1.06497e-05
-1.00231e-05
-9.42271e-06
-8.84785e-06
-8.29787e-06
-7.77214e-06
-7.27003e-06
-6.79093e-06
-6.33422e-06
-5.89931e-06
-5.48561e-06
-5.09251e-06
-4.71943e-06
-4.36576e-06
-4.03092e-06
-3.71432e-06
-3.41536e-06
-3.13344e-06
-2.86797e-06
-2.61835e-06
-2.38395e-06
-2.16426e-06
-1.95852e-06
-1.76634e-06
-1.58702e-06
-1.4199e-06
-1.26452e-06
-1.12024e-06
-9.86592e-07
-8.62856e-07
-7.48581e-07
-6.432e-07
-5.46194e-07
-4.56998e-07
-3.75243e-07
-3.00055e-07
-2.31945e-07
-1.68145e-07
-1.13372e-07
-5.5638e-08
-1.9403e-08
4.79849e-08
4.09106e-08
1.67676e-07
3.54874e-08
3.60786e-07
-1.08704e-07
7.27685e-07
-4.94424e-07
1.35915e-06
-1.13834e-06
2.14661e-06
-1.72418e-06
2.5437e-06
-1.49059e-06
1.735e-06
1.93241e-07
-3.76488e-07
2.63713e-06
-2.21797e-06
3.65974e-06
-1.58458e-06
2.55031e-06
-1.49145e-06
1.73044e-06
2.05768e-07
-3.95614e-07
2.6626e-06
-2.25485e-06
3.70011e-06
-1.65815e-06
2.45003e-05
2.33092e-05
2.21557e-05
2.10395e-05
1.99607e-05
1.89191e-05
1.79144e-05
1.69464e-05
1.60148e-05
1.51191e-05
1.42591e-05
1.34341e-05
1.26437e-05
1.18872e-05
1.11642e-05
1.04739e-05
9.81572e-06
9.18888e-06
8.59266e-06
8.02629e-06
7.48898e-06
6.97992e-06
6.49827e-06
6.04319e-06
5.61381e-06
5.20926e-06
4.82866e-06
4.47111e-06
4.13574e-06
3.82165e-06
3.52794e-06
3.25373e-06
2.99813e-06
2.76028e-06
2.5393e-06
2.33434e-06
2.14456e-06
1.96914e-06
1.80724e-06
1.65809e-06
1.5209e-06
1.39491e-06
1.27937e-06
1.17357e-06
1.07679e-06
9.88351e-07
9.07584e-07
8.33826e-07
7.66443e-07
7.04795e-07
6.48254e-07
5.96205e-07
5.47957e-07
5.0305e-07
4.60142e-07
4.20687e-07
3.76914e-07
3.49001e-07
2.75971e-07
3.14896e-07
7.9851e-08
4.09898e-07
-3.13316e-07
5.02813e-07
-2.90122e-07
-8.05793e-07
1.38944e-06
-2.39484e-06
-1.09967e-06
3.46364e-07
2.44096e-05
2.32231e-05
2.2074e-05
2.09621e-05
1.98875e-05
1.88499e-05
1.78491e-05
1.68849e-05
1.59568e-05
1.50647e-05
1.42079e-05
1.33861e-05
1.25987e-05
1.18452e-05
1.11249e-05
1.04372e-05
9.78153e-06
9.15705e-06
8.56306e-06
7.99881e-06
7.4635e-06
6.95632e-06
6.47645e-06
6.02304e-06
5.59523e-06
5.19215e-06
4.81292e-06
4.45666e-06
4.12249e-06
3.80952e-06
3.51685e-06
3.24361e-06
2.98891e-06
2.75189e-06
2.53169e-06
2.32744e-06
2.13833e-06
1.96351e-06
1.80217e-06
1.65354e-06
1.51682e-06
1.39126e-06
1.27611e-06
1.17067e-06
1.07422e-06
9.86082e-07
9.0559e-07
8.32083e-07
7.64931e-07
7.03493e-07
6.47146e-07
5.95278e-07
5.47195e-07
5.02458e-07
4.59668e-07
4.20473e-07
3.76543e-07
3.49643e-07
2.74633e-07
3.18833e-07
7.32013e-08
4.24553e-07
-3.32917e-07
5.32317e-07
-3.0817e-07
-8.01107e-07
1.42186e-06
-2.44917e-06
-9.86234e-07
3.51117e-07
2.42336e-05
2.30561e-05
2.19156e-05
2.08121e-05
1.97456e-05
1.87158e-05
1.77225e-05
1.67655e-05
1.58445e-05
1.4959e-05
1.41087e-05
1.3293e-05
1.25115e-05
1.17636e-05
1.10487e-05
1.03661e-05
9.71523e-06
9.09533e-06
8.50568e-06
7.94553e-06
7.4141e-06
6.91057e-06
6.43414e-06
5.98396e-06
5.55919e-06
5.15895e-06
4.78239e-06
4.42863e-06
4.09679e-06
3.78599e-06
3.49534e-06
3.22398e-06
2.97103e-06
2.73563e-06
2.51692e-06
2.31407e-06
2.12622e-06
1.95258e-06
1.79233e-06
1.64469e-06
1.50888e-06
1.38416e-06
1.26978e-06
1.16504e-06
1.06923e-06
9.81678e-07
9.0172e-07
8.287e-07
7.61994e-07
7.00965e-07
6.44994e-07
5.93477e-07
5.45715e-07
5.01303e-07
4.58766e-07
4.2e-07
3.75998e-07
3.50383e-07
2.73394e-07
3.23088e-07
6.79733e-08
4.36811e-07
-3.43675e-07
5.48381e-07
-3.11847e-07
-7.84469e-07
1.41404e-06
-2.40366e-06
-8.72615e-07
3.02197e-07
2.39782e-05
2.28136e-05
2.16856e-05
2.05943e-05
1.95395e-05
1.85211e-05
1.75388e-05
1.65924e-05
1.56815e-05
1.48057e-05
1.39647e-05
1.3158e-05
1.2385e-05
1.16453e-05
1.09381e-05
1.02629e-05
9.61901e-06
9.00576e-06
8.42241e-06
7.86821e-06
7.3424e-06
6.84417e-06
6.37273e-06
5.92725e-06
5.50688e-06
5.11078e-06
4.73809e-06
4.38795e-06
4.05949e-06
3.75184e-06
3.46413e-06
3.19549e-06
2.94508e-06
2.71203e-06
2.49549e-06
2.29464e-06
2.10866e-06
1.93672e-06
1.77804e-06
1.63185e-06
1.49737e-06
1.37386e-06
1.26059e-06
1.15687e-06
1.06199e-06
9.75282e-07
8.96099e-07
8.23787e-07
7.57728e-07
6.97293e-07
6.41869e-07
5.9086e-07
5.43566e-07
4.99623e-07
4.57458e-07
4.19301e-07
3.75243e-07
3.5134e-07
2.71898e-07
3.28522e-07
6.19176e-08
4.5188e-07
-3.55508e-07
5.68506e-07
-3.1441e-07
-7.61256e-07
1.40517e-06
-2.35149e-06
-7.38697e-07
2.40411e-07
2.36489e-05
2.25009e-05
2.13891e-05
2.03135e-05
1.92739e-05
1.82701e-05
1.7302e-05
1.63691e-05
1.54713e-05
1.46082e-05
1.37792e-05
1.2984e-05
1.2222e-05
1.14927e-05
1.07955e-05
1.01299e-05
9.49502e-06
8.89033e-06
8.31509e-06
7.76856e-06
7.24999e-06
6.7586e-06
6.29359e-06
5.85415e-06
5.43946e-06
5.04869e-06
4.68099e-06
4.33551e-06
4.0114e-06
3.70781e-06
3.42389e-06
3.15877e-06
2.91162e-06
2.68159e-06
2.46786e-06
2.2696e-06
2.086e-06
1.91627e-06
1.75962e-06
1.61529e-06
1.48252e-06
1.36057e-06
1.24874e-06
1.14633e-06
1.05265e-06
9.67035e-07
8.88851e-07
8.17451e-07
7.52226e-07
6.92557e-07
6.37837e-07
5.87484e-07
5.40793e-07
4.97457e-07
4.55769e-07
4.18399e-07
3.74269e-07
3.52553e-07
2.70028e-07
3.35347e-07
5.44213e-08
4.70881e-07
-3.70792e-07
5.95889e-07
-3.20611e-07
-7.30944e-07
1.40287e-06
-2.30879e-06
-5.77795e-07
1.74076e-07
2.32511e-05
2.21233e-05
2.10311e-05
1.99744e-05
1.89532e-05
1.79671e-05
1.7016e-05
1.60997e-05
1.52177e-05
1.43697e-05
1.35552e-05
1.27739e-05
1.20252e-05
1.13086e-05
1.06235e-05
9.9693e-06
9.34535e-06
8.751e-06
8.18555e-06
7.64828e-06
7.13845e-06
6.6553e-06
6.19805e-06
5.76591e-06
5.35808e-06
4.97373e-06
4.61205e-06
4.2722e-06
3.95335e-06
3.65466e-06
3.3753e-06
3.11443e-06
2.87122e-06
2.64485e-06
2.4345e-06
2.23936e-06
2.05865e-06
1.89158e-06
1.73738e-06
1.59529e-06
1.46458e-06
1.34453e-06
1.23443e-06
1.1336e-06
1.04137e-06
9.57075e-07
8.80097e-07
8.09798e-07
7.45581e-07
6.86837e-07
6.32967e-07
5.83406e-07
5.37442e-07
4.94841e-07
4.53722e-07
4.17314e-07
3.73071e-07
3.54028e-07
2.67749e-07
3.43512e-07
4.55334e-08
4.93409e-07
-3.88994e-07
6.2913e-07
-3.29673e-07
-6.94629e-07
1.40517e-06
-2.2733e-06
-3.93546e-07
9.8303e-08
2.27903e-05
2.16859e-05
2.06164e-05
1.95818e-05
1.85818e-05
1.76163e-05
1.6685e-05
1.57877e-05
1.4924e-05
1.40935e-05
1.3296e-05
1.25307e-05
1.17974e-05
1.10955e-05
1.04244e-05
9.78343e-06
9.1721e-06
8.58971e-06
8.03559e-06
7.50903e-06
7.00932e-06
6.53571e-06
6.08744e-06
5.66375e-06
5.26385e-06
4.88695e-06
4.53223e-06
4.1989e-06
3.88613e-06
3.59312e-06
3.31904e-06
3.06308e-06
2.82443e-06
2.60229e-06
2.39585e-06
2.20434e-06
2.02697e-06
1.86298e-06
1.71161e-06
1.57213e-06
1.44381e-06
1.32595e-06
1.21785e-06
1.11886e-06
1.0283e-06
9.45535e-07
8.69955e-07
8.00932e-07
7.37882e-07
6.80209e-07
6.27323e-07
5.78681e-07
5.33555e-07
4.9181e-07
4.51336e-07
4.1607e-07
3.71636e-07
3.55786e-07
2.65003e-07
3.53013e-07
3.52123e-08
5.19223e-07
-4.09829e-07
6.67232e-07
-3.40685e-07
-6.54243e-07
1.41186e-06
-2.24438e-06
-1.91457e-07
1.05406e-08
2.22717e-05
2.11938e-05
2.01499e-05
1.914e-05
1.8164e-05
1.72216e-05
1.63127e-05
1.54368e-05
1.45937e-05
1.37831e-05
1.30044e-05
1.22573e-05
1.15413e-05
1.08559e-05
1.02004e-05
9.57444e-06
8.9773e-06
8.40836e-06
7.86697e-06
7.35245e-06
6.86411e-06
6.40122e-06
5.96306e-06
5.54887e-06
5.15788e-06
4.78934e-06
4.44246e-06
4.11645e-06
3.81052e-06
3.52389e-06
3.25575e-06
3.00531e-06
2.77179e-06
2.55441e-06
2.35238e-06
2.16494e-06
1.99132e-06
1.83079e-06
1.68261e-06
1.54606e-06
1.42043e-06
1.30503e-06
1.1992e-06
1.10226e-06
1.01359e-06
9.32548e-07
8.5854e-07
7.90953e-07
7.29216e-07
6.72748e-07
6.20968e-07
5.7336e-07
5.29175e-07
4.884e-07
4.48632e-07
4.14689e-07
3.69948e-07
3.57856e-07
2.61711e-07
3.63892e-07
2.33348e-08
5.48241e-07
-4.33292e-07
7.09698e-07
-3.53352e-07
-6.11165e-07
1.42347e-06
-2.22331e-06
2.45033e-08
-8.89256e-08
2.17006e-05
2.06518e-05
1.96362e-05
1.86536e-05
1.77041e-05
1.67872e-05
1.59028e-05
1.50506e-05
1.42302e-05
1.34413e-05
1.26835e-05
1.19564e-05
1.12594e-05
1.05921e-05
9.954e-06
9.34446e-06
8.76292e-06
8.20878e-06
7.6814e-06
7.18013e-06
6.7043e-06
6.25321e-06
5.82615e-06
5.42241e-06
5.04123e-06
4.68189e-06
4.34362e-06
4.02567e-06
3.72727e-06
3.44766e-06
3.18606e-06
2.9417e-06
2.71383e-06
2.50168e-06
2.3045e-06
2.12154e-06
1.95206e-06
1.79535e-06
1.65067e-06
1.51735e-06
1.39468e-06
1.282e-06
1.17865e-06
1.08398e-06
9.97387e-07
9.1824e-07
8.45963e-07
7.79958e-07
7.19667e-07
6.64525e-07
6.13964e-07
5.67496e-07
5.24341e-07
4.84644e-07
4.45624e-07
4.13199e-07
3.67984e-07
3.60278e-07
2.57779e-07
3.76209e-07
9.75383e-09
5.80419e-07
-4.59409e-07
7.56086e-07
-3.6748e-07
-5.6644e-07
1.44011e-06
-2.21106e-06
2.51374e-07
-1.99219e-07
2.10818e-05
2.00647e-05
1.90797e-05
1.81269e-05
1.7206e-05
1.63168e-05
1.54591e-05
1.46325e-05
1.38367e-05
1.30714e-05
1.23362e-05
1.16307e-05
1.09543e-05
1.03067e-05
9.68728e-06
9.09552e-06
8.53088e-06
7.99275e-06
7.48053e-06
6.9936e-06
6.5313e-06
6.09297e-06
5.67794e-06
5.28549e-06
4.91494e-06
4.56555e-06
4.23661e-06
3.92738e-06
3.63713e-06
3.36511e-06
3.11058e-06
2.87281e-06
2.65105e-06
2.44457e-06
2.25263e-06
2.07453e-06
1.90953e-06
1.75694e-06
1.61607e-06
1.48624e-06
1.36678e-06
1.25703e-06
1.15638e-06
1.06417e-06
9.79828e-07
9.02735e-07
8.32333e-07
7.68041e-07
7.09316e-07
6.55613e-07
6.0637e-07
5.61139e-07
5.19093e-07
4.80577e-07
4.42329e-07
4.11628e-07
3.65717e-07
3.631e-07
2.53104e-07
3.90042e-07
-5.68817e-09
6.1572e-07
-4.88195e-07
8.05946e-07
-3.82822e-07
-5.21034e-07
1.4617e-06
-2.20793e-06
4.8649e-07
-3.19469e-07
2.04202e-05
1.9437e-05
1.8485e-05
1.7564e-05
1.66738e-05
1.58142e-05
1.4985e-05
1.41858e-05
1.34163e-05
1.26763e-05
1.19652e-05
1.12827e-05
1.06284e-05
1.00018e-05
9.40237e-06
8.82962e-06
8.28301e-06
7.76198e-06
7.26595e-06
6.79433e-06
6.34648e-06
5.92178e-06
5.51958e-06
5.13921e-06
4.77999e-06
4.44123e-06
4.12225e-06
3.82233e-06
3.54078e-06
3.27687e-06
3.02991e-06
2.79917e-06
2.58394e-06
2.38351e-06
2.19718e-06
2.02426e-06
1.86405e-06
1.71588e-06
1.57907e-06
1.45297e-06
1.33694e-06
1.23034e-06
1.13256e-06
1.04299e-06
9.61047e-07
8.8615e-07
8.17754e-07
7.55293e-07
6.98243e-07
6.46076e-07
5.98241e-07
5.54335e-07
5.13466e-07
4.76233e-07
4.38757e-07
4.10008e-07
3.63114e-07
3.66377e-07
2.47573e-07
4.05479e-07
-2.31529e-08
6.54116e-07
-5.19648e-07
8.58829e-07
-3.99108e-07
-4.75835e-07
1.48813e-06
-2.21388e-06
7.27343e-07
-4.48705e-07
1.97205e-05
1.87733e-05
1.78561e-05
1.69688e-05
1.61112e-05
1.5283e-05
1.44839e-05
1.37137e-05
1.29721e-05
1.22587e-05
1.15732e-05
1.09151e-05
1.02841e-05
9.67963e-06
9.10132e-06
8.54864e-06
8.02108e-06
7.51812e-06
7.03919e-06
6.58373e-06
6.15115e-06
5.74085e-06
5.3522e-06
4.98457e-06
4.63733e-06
4.3098e-06
4.00134e-06
3.71126e-06
3.4389e-06
3.18357e-06
2.94459e-06
2.72128e-06
2.51295e-06
2.31893e-06
2.13853e-06
1.97109e-06
1.81594e-06
1.67244e-06
1.53992e-06
1.41778e-06
1.30537e-06
1.20209e-06
1.10736e-06
1.02057e-06
9.41172e-07
8.68599e-07
8.02323e-07
7.418e-07
6.86521e-07
6.35981e-07
5.89633e-07
5.47133e-07
5.07495e-07
4.71646e-07
4.34918e-07
4.08372e-07
3.60137e-07
3.70173e-07
2.41068e-07
4.22616e-07
-4.27972e-08
6.95572e-07
-5.53742e-07
9.14292e-07
-4.1605e-07
-4.31624e-07
1.51924e-06
-2.22862e-06
9.71592e-07
-5.85785e-07
1.8987e-05
1.80777e-05
1.71972e-05
1.63452e-05
1.55217e-05
1.47264e-05
1.3959e-05
1.32193e-05
1.25068e-05
1.18214e-05
1.11626e-05
1.05301e-05
9.92345e-06
9.34225e-06
8.78605e-06
8.25439e-06
7.74678e-06
7.26272e-06
6.8017e-06
6.36316e-06
5.94656e-06
5.55132e-06
5.17686e-06
4.82258e-06
4.48787e-06
4.1721e-06
3.87465e-06
3.59487e-06
3.33214e-06
3.08579e-06
2.85518e-06
2.63965e-06
2.43855e-06
2.25123e-06
2.07704e-06
1.91534e-06
1.7655e-06
1.62689e-06
1.49888e-06
1.38087e-06
1.27226e-06
1.17247e-06
1.08092e-06
9.97054e-07
9.20327e-07
8.50189e-07
7.86137e-07
7.27645e-07
6.74222e-07
6.25389e-07
5.80597e-07
5.39575e-07
5.01212e-07
4.66848e-07
4.30818e-07
4.06759e-07
3.56743e-07
3.74558e-07
2.33466e-07
4.41552e-07
-6.47641e-08
7.40039e-07
-5.90409e-07
9.71877e-07
-4.33338e-07
-3.8908e-07
1.5548e-06
-2.25163e-06
1.21704e-06
-7.2941e-07
1.8224e-05
1.73542e-05
1.65119e-05
1.56969e-05
1.4909e-05
1.41479e-05
1.34135e-05
1.27054e-05
1.20233e-05