/*--------------------------------*- C++ -*----------------------------------*\
| =========                 |                                                 |
| \\      /  F ield         | OpenFOAM: The Open Source CFD Toolbox           |
|  \\    /   O peration     | Version:  2412                                  |
|   \\  /    A nd           | Website:  www.openfoam.com                      |
|    \\/     M anipulation  |                                                 |
\*---------------------------------------------------------------------------*/
FoamFile
{
    version     2.0;
    format      ascii;
    arch        "LSB;label=32;scalar=64";
    class       volVectorField;
    location    "11";
    object      U;
}
// * * * * * * * * * * * * * * * * * * * * * * * * * * * * * * * * * * * * * //

dimensions      [0 1 -1 0 0 0 0];

internalField   nonuniform List<vector> 
5285
(
(0.0998676 0.000885298 0)
(0.0998722 0.000839809 0)
(0.0998773 0.000795819 0)
(0.0998827 0.00075333 0)
(0.0998884 0.000712339 0)
(0.0998943 0.000672837 0)
(0.0999005 0.000634813 0)
(0.0999068 0.000598256 0)
(0.0999132 0.000563149 0)
(0.0999196 0.000529474 0)
(0.0999261 0.000497212 0)
(0.0999325 0.000466339 0)
(0.099939 0.000436829 0)
(0.0999453 0.000408655 0)
(0.0999515 0.000381789 0)
(0.0999576 0.0003562 0)
(0.0999636 0.000331857 0)
(0.0999694 0.000308729 0)
(0.099975 0.000286783 0)
(0.0999804 0.000265986 0)
(0.0999856 0.000246305 0)
(0.0999905 0.000227706 0)
(0.0999953 0.000210155 0)
(0.0999998 0.000193617 0)
(0.100004 0.000178059 0)
(0.100008 0.000163446 0)
(0.100012 0.000149742 0)
(0.100016 0.000136912 0)
(0.100019 0.000124923 0)
(0.100022 0.000113739 0)
(0.100025 0.000103328 0)
(0.100027 9.36584e-05 0)
(0.10003 8.46965e-05 0)
(0.100032 7.64113e-05 0)
(0.100034 6.87718e-05 0)
(0.100036 6.17479e-05 0)
(0.100038 5.53102e-05 0)
(0.100039 4.94309e-05 0)
(0.10004 4.40838e-05 0)
(0.100042 3.92445e-05 0)
(0.100043 3.48901e-05 0)
(0.100043 3.09979e-05 0)
(0.100044 2.75475e-05 0)
(0.100045 2.45185e-05 0)
(0.100045 2.18936e-05 0)
(0.100046 1.96591e-05 0)
(0.100046 1.78003e-05 0)
(0.100047 1.6315e-05 0)
(0.100047 1.51872e-05 0)
(0.100047 1.44387e-05 0)
(0.100048 1.40261e-05 0)
(0.100048 1.40584e-05 0)
(0.100049 1.434e-05 0)
(0.100048 1.53248e-05 0)
(0.10005 1.62025e-05 0)
(0.100049 1.86204e-05 0)
(0.100053 1.96972e-05 0)
(0.100048 2.46765e-05 0)
(0.10006 2.48911e-05 0)
(0.100044 3.46422e-05 0)
(0.100073 3.20824e-05 0)
(0.100037 4.98525e-05 0)
(0.100094 4.25497e-05 0)
(0.100028 7.12585e-05 0)
(0.100123 5.94102e-05 0)
(0.100022 9.96994e-05 0)
(0.10016 8.77007e-05 0)
(0.10002 0.000133856 0)
(0.100225 0.000150873 0)
(0.100042 0.000140001 0)
(0.100246 0.000260866 0)
(0.099849 0.000883125 0)
(0.0998547 0.000837491 0)
(0.0998608 0.000793389 0)
(0.0998672 0.00075082 0)
(0.0998739 0.000709774 0)
(0.0998808 0.000670243 0)
(0.0998878 0.000632212 0)
(0.099895 0.000595666 0)
(0.0999022 0.000560587 0)
(0.0999094 0.000526955 0)
(0.0999166 0.000494748 0)
(0.0999238 0.00046394 0)
(0.0999308 0.000434505 0)
(0.0999378 0.000406413 0)
(0.0999446 0.000379634 0)
(0.0999513 0.000354137 0)
(0.0999578 0.00032989 0)
(0.0999641 0.000306861 0)
(0.0999702 0.000285014 0)
(0.099976 0.000264318 0)
(0.0999816 0.000244736 0)
(0.099987 0.000226236 0)
(0.0999921 0.000208783 0)
(0.099997 0.000192341 0)
(0.100002 0.000176876 0)
(0.100006 0.000162352 0)
(0.10001 0.000148735 0)
(0.100014 0.000135989 0)
(0.100017 0.000124079 0)
(0.100021 0.000112971 0)
(0.100024 0.000102633 0)
(0.100027 9.30305e-05 0)
(0.100029 8.41326e-05 0)
(0.100032 7.59073e-05 0)
(0.100034 6.83235e-05 0)
(0.100036 6.13512e-05 0)
(0.100038 5.49612e-05 0)
(0.100039 4.91258e-05 0)
(0.100041 4.38188e-05 0)
(0.100042 3.90158e-05 0)
(0.100043 3.46939e-05 0)
(0.100044 3.08306e-05 0)
(0.100045 2.74053e-05 0)
(0.100045 2.43981e-05 0)
(0.100046 2.17918e-05 0)
(0.100047 1.95726e-05 0)
(0.100047 1.77262e-05 0)
(0.100048 1.625e-05 0)
(0.100048 1.51285e-05 0)
(0.100048 1.43825e-05 0)
(0.100049 1.39701e-05 0)
(0.100049 1.39973e-05 0)
(0.10005 1.42745e-05 0)
(0.100049 1.52422e-05 0)
(0.100051 1.61154e-05 0)
(0.10005 1.84908e-05 0)
(0.100055 1.95799e-05 0)
(0.100049 2.44569e-05 0)
(0.100062 2.47441e-05 0)
(0.100046 3.42588e-05 0)
(0.100075 3.19155e-05 0)
(0.100039 4.9192e-05 0)
(0.100096 4.23628e-05 0)
(0.10003 7.01533e-05 0)
(0.100125 5.92018e-05 0)
(0.100025 9.77125e-05 0)
(0.100163 8.77841e-05 0)
(0.100024 0.000129829 0)
(0.100227 0.000149975 0)
(0.100048 0.000138398 0)
(0.10025 0.000250017 0)
(0.0998302 0.000880462 0)
(0.099837 0.00083471 0)
(0.0998442 0.000790523 0)
(0.0998516 0.000747898 0)
(0.0998592 0.000706823 0)
(0.0998671 0.000667286 0)
(0.099875 0.00062927 0)
(0.099883 0.000592757 0)
(0.099891 0.000557727 0)
(0.099899 0.000524157 0)
(0.0999069 0.000492023 0)
(0.0999148 0.000461299 0)
(0.0999225 0.000431954 0)
(0.0999301 0.00040396 0)
(0.0999376 0.000377284 0)
(0.0999448 0.000351893 0)
(0.0999518 0.000327756 0)
(0.0999586 0.000304837 0)
(0.0999652 0.000283102 0)
(0.0999715 0.000262517 0)
(0.0999776 0.000243046 0)
(0.0999833 0.000224655 0)
(0.0999888 0.000207308 0)
(0.099994 0.00019097 0)
(0.099999 0.000175605 0)
(0.100004 0.000161179 0)
(0.100008 0.000147655 0)
(0.100012 0.000134999 0)
(0.100016 0.000123175 0)
(0.10002 0.000112148 0)
(0.100023 0.000101887 0)
(0.100026 9.23576e-05 0)
(0.100029 8.35279e-05 0)
(0.100031 7.53663e-05 0)
(0.100034 6.78418e-05 0)
(0.100036 6.09245e-05 0)
(0.100038 5.45852e-05 0)
(0.100039 4.87965e-05 0)
(0.100041 4.35321e-05 0)
(0.100042 3.87676e-05 0)
(0.100043 3.44803e-05 0)
(0.100044 3.06476e-05 0)
(0.100045 2.72491e-05 0)
(0.100046 2.42652e-05 0)
(0.100047 2.16786e-05 0)
(0.100047 1.94758e-05 0)
(0.100048 1.76427e-05 0)
(0.100048 1.61764e-05 0)
(0.100049 1.50617e-05 0)
(0.100049 1.43187e-05 0)
(0.10005 1.39067e-05 0)
(0.10005 1.39289e-05 0)
(0.100051 1.42014e-05 0)
(0.100051 1.51524e-05 0)
(0.100052 1.60198e-05 0)
(0.100051 1.83538e-05 0)
(0.100056 1.94514e-05 0)
(0.10005 2.42297e-05 0)
(0.100063 2.45811e-05 0)
(0.100047 3.38685e-05 0)
(0.100077 3.17246e-05 0)
(0.10004 4.85249e-05 0)
(0.100098 4.21425e-05 0)
(0.100032 6.90383e-05 0)
(0.100127 5.89505e-05 0)
(0.100027 9.57138e-05 0)
(0.100165 8.77857e-05 0)
(0.100028 0.000125842 0)
(0.100228 0.000148934 0)
(0.100055 0.000136653 0)
(0.100254 0.000239319 0)
(0.0998111 0.000877305 0)
(0.099819 0.000831462 0)
(0.0998273 0.000787217 0)
(0.0998357 0.000744562 0)
(0.0998444 0.000703482 0)
(0.0998531 0.000663963 0)
(0.0998619 0.000625985 0)
(0.0998708 0.000589526 0)
(0.0998796 0.000554566 0)
(0.0998884 0.000521078 0)
(0.0998971 0.000489037 0)
(0.0999057 0.000458413 0)
(0.0999141 0.000429177 0)
(0.0999223 0.000401296 0)
(0.0999304 0.000374737 0)
(0.0999382 0.000349468 0)
(0.0999458 0.000325453 0)
(0.0999531 0.000302657 0)
(0.0999601 0.000281045 0)
(0.0999669 0.000260582 0)
(0.0999733 0.000241233 0)
(0.0999795 0.00022296 0)
(0.0999854 0.000205729 0)
(0.099991 0.000189503 0)
(0.0999962 0.000174248 0)
(0.100001 0.000159926 0)
(0.100006 0.000146503 0)
(0.10001 0.000133942 0)
(0.100014 0.000122209 0)
(0.100018 0.00011127 0)
(0.100022 0.000101091 0)
(0.100025 9.16388e-05 0)
(0.100028 8.28816e-05 0)
(0.100031 7.47877e-05 0)
(0.100033 6.73262e-05 0)
(0.100035 6.04672e-05 0)
(0.100037 5.41817e-05 0)
(0.100039 4.84423e-05 0)
(0.100041 4.3223e-05 0)
(0.100042 3.84993e-05 0)
(0.100044 3.42486e-05 0)
(0.100045 3.04484e-05 0)
(0.100046 2.70784e-05 0)
(0.100047 2.41191e-05 0)
(0.100047 2.15536e-05 0)
(0.100048 1.93683e-05 0)
(0.100049 1.75493e-05 0)
(0.100049 1.60937e-05 0)
(0.10005 1.49863e-05 0)
(0.10005 1.42468e-05 0)
(0.100051 1.38354e-05 0)
(0.100051 1.38529e-05 0)
(0.100052 1.41206e-05 0)
(0.100052 1.50545e-05 0)
(0.100054 1.59159e-05 0)
(0.100052 1.82079e-05 0)
(0.100057 1.9313e-05 0)
(0.100051 2.39922e-05 0)
(0.100065 2.44053e-05 0)
(0.100048 3.3466e-05 0)
(0.100078 3.15158e-05 0)
(0.100042 4.7844e-05 0)
(0.1001 4.1896e-05 0)
(0.100034 6.79072e-05 0)
(0.100129 5.86591e-05 0)
(0.10003 9.37077e-05 0)
(0.100167 8.76903e-05 0)
(0.100033 0.000121933 0)
(0.100229 0.000147718 0)
(0.100063 0.000134763 0)
(0.100257 0.000228844 0)
(0.0997918 0.000873647 0)
(0.0998009 0.000827743 0)
(0.0998102 0.000783466 0)
(0.0998197 0.000740807 0)
(0.0998293 0.000699748 0)
(0.099839 0.000660271 0)
(0.0998487 0.000622353 0)
(0.0998584 0.000585972 0)
(0.0998681 0.000551102 0)
(0.0998777 0.000517716 0)
(0.0998871 0.000485787 0)
(0.0998964 0.000455282 0)
(0.0999055 0.000426171 0)
(0.0999144 0.000398419 0)
(0.099923 0.000371994 0)
(0.0999314 0.000346859 0)
(0.0999395 0.00032298 0)
(0.0999473 0.00030032 0)
(0.0999549 0.000278844 0)
(0.0999621 0.000258515 0)
(0.099969 0.000239296 0)
(0.0999756 0.000221152 0)
(0.0999818 0.000204046 0)
(0.0999878 0.000187941 0)
(0.0999934 0.000172802 0)
(0.0999986 0.000158593 0)
(0.100004 0.000145277 0)
(0.100008 0.000132818 0)
(0.100013 0.000121183 0)
(0.100017 0.000110336 0)
(0.10002 0.000100244 0)
(0.100024 9.08738e-05 0)
(0.100027 8.21934e-05 0)
(0.10003 7.41711e-05 0)
(0.100032 6.67761e-05 0)
(0.100035 5.99787e-05 0)
(0.100037 5.375e-05 0)
(0.100039 4.80628e-05 0)
(0.100041 4.28911e-05 0)
(0.100042 3.82105e-05 0)
(0.100044 3.39984e-05 0)
(0.100045 3.02325e-05 0)
(0.100046 2.68926e-05 0)
(0.100047 2.39595e-05 0)
(0.100048 2.14162e-05 0)
(0.100048 1.92495e-05 0)
(0.100049 1.74456e-05 0)
(0.10005 1.60014e-05 0)
(0.10005 1.4902e-05 0)
(0.100051 1.41664e-05 0)
(0.100051 1.3756e-05 0)
(0.100052 1.37688e-05 0)
(0.100053 1.40317e-05 0)
(0.100053 1.49484e-05 0)
(0.100055 1.58032e-05 0)
(0.100053 1.80528e-05 0)
(0.100059 1.91644e-05 0)
(0.100053 2.37442e-05 0)
(0.100066 2.42162e-05 0)
(0.10005 3.30516e-05 0)
(0.10008 3.12883e-05 0)
(0.100043 4.71495e-05 0)
(0.100102 4.16225e-05 0)
(0.100036 6.67613e-05 0)
(0.100132 5.83257e-05 0)
(0.100033 9.17001e-05 0)
(0.100169 8.74872e-05 0)
(0.100037 0.000118124 0)
(0.100229 0.00014631 0)
(0.100071 0.000132721 0)
(0.100259 0.000218652 0)
(0.0997723 0.000869483 0)
(0.0997825 0.000823546 0)
(0.0997929 0.000779266 0)
(0.0998034 0.00073663 0)
(0.099814 0.000695617 0)
(0.0998247 0.000656207 0)
(0.0998353 0.000618374 0)
(0.0998459 0.000582092 0)
(0.0998564 0.000547334 0)
(0.0998668 0.000514071 0)
(0.099877 0.000482271 0)
(0.099887 0.000451904 0)
(0.0998967 0.000422935 0)
(0.0999063 0.00039533 0)
(0.0999155 0.000369053 0)
(0.0999245 0.000344067 0)
(0.0999331 0.000320338 0)
(0.0999415 0.000297827 0)
(0.0999495 0.000276498 0)
(0.0999572 0.000256313 0)
(0.0999645 0.000237236 0)
(0.0999715 0.00021923 0)
(0.0999781 0.000202258 0)
(0.0999844 0.000186283 0)
(0.0999903 0.000171268 0)
(0.0999959 0.000157178 0)
(0.100001 0.000143976 0)
(0.100006 0.000131627 0)
(0.100011 0.000120095 0)
(0.100015 0.000109345 0)
(0.100019 9.93455e-05 0)
(0.100023 9.00621e-05 0)
(0.100026 8.14628e-05 0)
(0.100029 7.35161e-05 0)
(0.100032 6.61912e-05 0)
(0.100034 5.94587e-05 0)
(0.100037 5.32899e-05 0)
(0.100039 4.76576e-05 0)
(0.100041 4.25359e-05 0)
(0.100042 3.79007e-05 0)
(0.100044 3.37293e-05 0)
(0.100045 2.99996e-05 0)
(0.100046 2.66914e-05 0)
(0.100047 2.37858e-05 0)
(0.100048 2.12661e-05 0)
(0.100049 1.91191e-05 0)
(0.10005 1.73312e-05 0)
(0.10005 1.58992e-05 0)
(0.100051 1.48084e-05 0)
(0.100051 1.40772e-05 0)
(0.100052 1.3668e-05 0)
(0.100052 1.36764e-05 0)
(0.100053 1.39344e-05 0)
(0.100053 1.48338e-05 0)
(0.100056 1.56814e-05 0)
(0.100054 1.78885e-05 0)
(0.10006 1.90051e-05 0)
(0.100054 2.34858e-05 0)
(0.100067 2.40132e-05 0)
(0.100051 3.26255e-05 0)
(0.100082 3.10413e-05 0)
(0.100045 4.64424e-05 0)
(0.100104 4.1321e-05 0)
(0.100037 6.56023e-05 0)
(0.100134 5.79483e-05 0)
(0.100035 8.96963e-05 0)
(0.100171 8.71695e-05 0)
(0.100042 0.000114431 0)
(0.100229 0.000144702 0)
(0.100079 0.000130527 0)
(0.100262 0.000208794 0)
(0.0997526 0.000864808 0)
(0.0997639 0.000818867 0)
(0.0997754 0.000774612 0)
(0.0997869 0.000732027 0)
(0.0997986 0.000691087 0)
(0.0998102 0.000651769 0)
(0.0998218 0.000614044 0)
(0.0998332 0.000577884 0)
(0.0998446 0.00054326 0)
(0.0998557 0.000510139 0)
(0.0998667 0.000478491 0)
(0.0998774 0.000448279 0)
(0.0998879 0.00041947 0)
(0.099898 0.000392027 0)
(0.0999079 0.000365913 0)
(0.0999174 0.000341092 0)
(0.0999266 0.000317525 0)
(0.0999355 0.000295176 0)
(0.099944 0.000274006 0)
(0.0999521 0.000253977 0)
(0.0999599 0.000235052 0)
(0.0999673 0.000217194 0)
(0.0999743 0.000200365 0)
(0.0999809 0.000184528 0)
(0.0999872 0.000169646 0)
(0.0999931 0.000155683 0)
(0.0999986 0.000142602 0)
(0.100004 0.000130367 0)
(0.100009 0.000118944 0)
(0.100013 0.000108298 0)
(0.100017 9.83957e-05 0)
(0.100021 8.92036e-05 0)
(0.100025 8.06896e-05 0)
(0.100028 7.28224e-05 0)
(0.100031 6.55713e-05 0)
(0.100034 5.8907e-05 0)
(0.100036 5.2801e-05 0)
(0.100038 4.72264e-05 0)
(0.10004 4.21573e-05 0)
(0.100042 3.75696e-05 0)
(0.100044 3.34409e-05 0)
(0.100045 2.97492e-05 0)
(0.100046 2.64745e-05 0)
(0.100047 2.3598e-05 0)
(0.100048 2.11031e-05 0)
(0.100049 1.89769e-05 0)
(0.10005 1.72059e-05 0)
(0.100051 1.57868e-05 0)
(0.100051 1.47053e-05 0)
(0.100052 1.39789e-05 0)
(0.100053 1.35713e-05 0)
(0.100053 1.35753e-05 0)
(0.100054 1.38284e-05 0)
(0.100054 1.47104e-05 0)
(0.100056 1.55504e-05 0)
(0.100055 1.77148e-05 0)
(0.100061 1.88349e-05 0)
(0.100055 2.32169e-05 0)
(0.100069 2.37961e-05 0)
(0.100052 3.21879e-05 0)
(0.100083 3.07747e-05 0)
(0.100046 4.5723e-05 0)
(0.100106 4.09911e-05 0)
(0.100039 6.44312e-05 0)
(0.100136 5.75257e-05 0)
(0.100037 8.77002e-05 0)
(0.100173 8.67326e-05 0)
(0.100046 0.000110866 0)
(0.100228 0.000142892 0)
(0.100088 0.000128187 0)
(0.100263 0.000199303 0)
(0.0997326 0.000859615 0)
(0.0997451 0.000813701 0)
(0.0997577 0.000769501 0)
(0.0997704 0.000726995 0)
(0.099783 0.000686155 0)
(0.0997956 0.000646954 0)
(0.0998081 0.000609362 0)
(0.0998204 0.000573348 0)
(0.0998326 0.000538879 0)
(0.0998446 0.000505922 0)
(0.0998563 0.000474443 0)
(0.0998677 0.000444406 0)
(0.0998788 0.000415774 0)
(0.0998897 0.000388509 0)
(0.0999001 0.000362575 0)
(0.0999102 0.000337932 0)
(0.09992 0.000314543 0)
(0.0999294 0.000292367 0)
(0.0999384 0.000271368 0)
(0.0999469 0.000251507 0)
(0.0999551 0.000232745 0)
(0.0999629 0.000215044 0)
(0.0999703 0.000198367 0)
(0.0999773 0.000182677 0)
(0.0999839 0.000167935 0)
(0.0999901 0.000154106 0)
(0.099996 0.000141153 0)
(0.100001 0.00012904 0)
(0.100007 0.000117732 0)
(0.100011 0.000107195 0)
(0.100016 9.73943e-05 0)
(0.10002 8.8298e-05 0)
(0.100023 7.98737e-05 0)
(0.100027 7.20899e-05 0)
(0.10003 6.49161e-05 0)
(0.100033 5.83233e-05 0)
(0.100035 5.22832e-05 0)
(0.100038 4.67689e-05 0)
(0.10004 4.17549e-05 0)
(0.100042 3.72171e-05 0)
(0.100043 3.31332e-05 0)
(0.100045 2.94813e-05 0)
(0.100046 2.62416e-05 0)
(0.100047 2.33957e-05 0)
(0.100048 2.0927e-05 0)
(0.100049 1.88226e-05 0)
(0.10005 1.70696e-05 0)
(0.100051 1.56641e-05 0)
(0.100052 1.45924e-05 0)
(0.100052 1.38714e-05 0)
(0.100053 1.34657e-05 0)
(0.100054 1.34655e-05 0)
(0.100055 1.37136e-05 0)
(0.100055 1.45781e-05 0)
(0.100057 1.54099e-05 0)
(0.100056 1.75315e-05 0)
(0.100062 1.86537e-05 0)
(0.100055 2.29375e-05 0)
(0.10007 2.35649e-05 0)
(0.100053 3.17386e-05 0)
(0.100084 3.04884e-05 0)
(0.100047 4.49912e-05 0)
(0.100107 4.06329e-05 0)
(0.100041 6.32489e-05 0)
(0.100138 5.70572e-05 0)
(0.10004 8.57149e-05 0)
(0.100175 8.61753e-05 0)
(0.100051 0.000107433 0)
(0.100227 0.000140884 0)
(0.100096 0.00012571 0)
(0.100264 0.000190201 0)
(0.0997126 0.000853899 0)
(0.0997262 0.000808044 0)
(0.0997399 0.000763929 0)
(0.0997536 0.000721531 0)
(0.0997673 0.000680818 0)
(0.0997809 0.000641761 0)
(0.0997943 0.000604326 0)
(0.0998075 0.000568481 0)
(0.0998205 0.00053419 0)
(0.0998333 0.000501418 0)
(0.0998458 0.000470128 0)
(0.0998579 0.000440284 0)
(0.0998697 0.000411847 0)
(0.0998812 0.000384778 0)
(0.0998923 0.000359038 0)
(0.099903 0.000334589 0)
(0.0999133 0.00031139 0)
(0.0999232 0.000289402 0)
(0.0999326 0.000268586 0)
(0.0999417 0.000248903 0)
(0.0999503 0.000230314 0)
(0.0999585 0.000212781 0)
(0.0999662 0.000196265 0)
(0.0999736 0.00018073 0)
(0.0999805 0.000166136 0)
(0.0999871 0.000152449 0)
(0.0999932 0.00013963 0)
(0.0999989 0.000127645 0)
(0.100004 0.000116458 0)
(0.100009 0.000106035 0)
(0.100014 9.63414e-05 0)
(0.100018 8.73456e-05 0)
(0.100022 7.9015e-05 0)
(0.100026 7.13185e-05 0)
(0.100029 6.42257e-05 0)
(0.100032 5.77078e-05 0)
(0.100035 5.17365e-05 0)
(0.100037 4.62853e-05 0)
(0.100039 4.13288e-05 0)
(0.100041 3.68431e-05 0)
(0.100043 3.2806e-05 0)
(0.100045 2.91958e-05 0)
(0.100046 2.59928e-05 0)
(0.100047 2.31788e-05 0)
(0.100049 2.07375e-05 0)
(0.10005 1.86562e-05 0)
(0.10005 1.6922e-05 0)
(0.100051 1.5531e-05 0)
(0.100052 1.44697e-05 0)
(0.100053 1.37545e-05 0)
(0.100054 1.3351e-05 0)
(0.100054 1.33469e-05 0)
(0.100055 1.35899e-05 0)
(0.100055 1.44369e-05 0)
(0.100058 1.52599e-05 0)
(0.100056 1.73386e-05 0)
(0.100062 1.84614e-05 0)
(0.100056 2.26475e-05 0)
(0.100071 2.33194e-05 0)
(0.100054 3.12777e-05 0)
(0.100086 3.01825e-05 0)
(0.100048 4.42474e-05 0)
(0.100109 4.02464e-05 0)
(0.100042 6.2056e-05 0)
(0.100139 5.65428e-05 0)
(0.100042 8.37427e-05 0)
(0.100176 8.54985e-05 0)
(0.100055 0.000104132 0)
(0.100226 0.000138687 0)
(0.100103 0.000123109 0)
(0.100265 0.0001815 0)
(0.0996924 0.000847654 0)
(0.0997072 0.000801891 0)
(0.099722 0.000757893 0)
(0.0997368 0.000715631 0)
(0.0997515 0.000675074 0)
(0.0997661 0.000636187 0)
(0.0997804 0.000598935 0)
(0.0997945 0.000563282 0)
(0.0998084 0.000529192 0)
(0.099822 0.000496626 0)
(0.0998352 0.000465546 0)
(0.0998481 0.000435914 0)
(0.0998606 0.00040769 0)
(0.0998727 0.000380833 0)
(0.0998844 0.000355304 0)
(0.0998956 0.000331062 0)
(0.0999065 0.000308067 0)
(0.0999169 0.000286279 0)
(0.0999268 0.000265659 0)
(0.0999363 0.000246165 0)
(0.0999454 0.00022776 0)
(0.099954 0.000210404 0)
(0.0999621 0.000194059 0)
(0.0999698 0.000178687 0)
(0.0999771 0.000164249 0)
(0.0999839 0.000150711 0)
(0.0999903 0.000138033 0)
(0.0999963 0.000126182 0)
(0.100002 0.000115122 0)
(0.100007 0.000104818 0)
(0.100012 9.52371e-05 0)
(0.100016 8.63464e-05 0)
(0.100021 7.81139e-05 0)
(0.100024 7.05085e-05 0)
(0.100028 6.35002e-05 0)
(0.100031 5.70603e-05 0)
(0.100034 5.11609e-05 0)
(0.100036 4.57755e-05 0)
(0.100039 4.0879e-05 0)
(0.100041 3.64476e-05 0)
(0.100043 3.24592e-05 0)
(0.100044 2.88926e-05 0)
(0.100046 2.57279e-05 0)
(0.100047 2.29474e-05 0)
(0.100048 2.05348e-05 0)
(0.100049 1.84776e-05 0)
(0.10005 1.67631e-05 0)
(0.100051 1.53874e-05 0)
(0.100052 1.43372e-05 0)
(0.100053 1.36283e-05 0)
(0.100054 1.32273e-05 0)
(0.100054 1.32195e-05 0)
(0.100056 1.34573e-05 0)
(0.100056 1.42867e-05 0)
(0.100058 1.51004e-05 0)
(0.100057 1.71362e-05 0)
(0.100063 1.8258e-05 0)
(0.100057 2.23469e-05 0)
(0.100072 2.30599e-05 0)
(0.100054 3.08055e-05 0)
(0.100087 2.98572e-05 0)
(0.100049 4.34919e-05 0)
(0.10011 3.98319e-05 0)
(0.100043 6.08536e-05 0)
(0.100141 5.59824e-05 0)
(0.100044 8.17854e-05 0)
(0.100177 8.47055e-05 0)
(0.100059 0.00010096 0)
(0.100225 0.000136316 0)
(0.100111 0.000120399 0)
(0.100265 0.0001732 0)
(0.0996721 0.000840876 0)
(0.0996881 0.000795238 0)
(0.0997041 0.000751388 0)
(0.09972 0.000709294 0)
(0.0997357 0.000668921 0)
(0.0997512 0.000630231 0)
(0.0997665 0.000593188 0)
(0.0997815 0.000557752 0)
(0.0997962 0.000523885 0)
(0.0998106 0.000491546 0)
(0.0998246 0.000460697 0)
(0.0998382 0.000431296 0)
(0.0998513 0.000403302 0)
(0.0998641 0.000376674 0)
(0.0998764 0.000351371 0)
(0.0998882 0.000327352 0)
(0.0998996 0.000304575 0)
(0.0999105 0.000283001 0)
(0.0999209 0.000262587 0)
(0.0999309 0.000243295 0)
(0.0999404 0.000225083 0)
(0.0999494 0.000207914 0)
(0.0999579 0.000191749 0)
(0.0999659 0.000176548 0)
(0.0999735 0.000162275 0)
(0.0999807 0.000148892 0)
(0.0999874 0.000136364 0)
(0.0999936 0.000124653 0)
(0.0999995 0.000113725 0)
(0.100005 0.000103546 0)
(0.10001 9.40818e-05 0)
(0.100015 8.53007e-05 0)
(0.100019 7.71704e-05 0)
(0.100023 6.966e-05 0)
(0.100026 6.27398e-05 0)
(0.10003 5.63811e-05 0)
(0.100033 5.05565e-05 0)
(0.100036 4.52397e-05 0)
(0.100038 4.04055e-05 0)
(0.10004 3.60307e-05 0)
(0.100042 3.20931e-05 0)
(0.100044 2.85717e-05 0)
(0.100046 2.5447e-05 0)
(0.100047 2.27014e-05 0)
(0.100048 2.03188e-05 0)
(0.100049 1.82868e-05 0)
(0.10005 1.6593e-05 0)
(0.100051 1.52334e-05 0)
(0.100052 1.41948e-05 0)
(0.100053 1.34926e-05 0)
(0.100054 1.30945e-05 0)
(0.100055 1.30831e-05 0)
(0.100056 1.33158e-05 0)
(0.100056 1.41275e-05 0)
(0.100059 1.49314e-05 0)
(0.100057 1.69242e-05 0)
(0.100064 1.80437e-05 0)
(0.100057 2.2036e-05 0)
(0.100072 2.27863e-05 0)
(0.100055 3.03219e-05 0)
(0.100088 2.95126e-05 0)
(0.10005 4.27249e-05 0)
(0.100111 3.93896e-05 0)
(0.100045 5.96424e-05 0)
(0.100142 5.53764e-05 0)
(0.100046 7.98439e-05 0)
(0.100178 8.38007e-05 0)
(0.100063 9.79107e-05 0)
(0.100224 0.000133787 0)
(0.100118 0.000117596 0)
(0.100265 0.000165297 0)
(0.0996518 0.00083356 0)
(0.099669 0.000788082 0)
(0.0996861 0.000744412 0)
(0.0997031 0.000702517 0)
(0.0997198 0.000662357 0)
(0.0997364 0.000623893 0)
(0.0997526 0.000587084 0)
(0.0997685 0.000551889 0)
(0.099784 0.000518268 0)
(0.0997992 0.000486179 0)
(0.0998139 0.00045558 0)
(0.0998282 0.000426429 0)
(0.0998421 0.000398684 0)
(0.0998555 0.000372302 0)
(0.0998684 0.000347242 0)
(0.0998808 0.00032346 0)
(0.0998927 0.000300915 0)
(0.0999042 0.000279566 0)
(0.0999151 0.000259372 0)
(0.0999255 0.000240292 0)
(0.0999354 0.000222285 0)
(0.0999447 0.000205313 0)
(0.0999536 0.000189336 0)
(0.099962 0.000174315 0)
(0.09997 0.000160214 0)
(0.0999774 0.000146995 0)
(0.0999844 0.000134621 0)
(0.0999909 0.000123056 0)
(0.099997 0.000112267 0)
(0.100003 0.000102218 0)
(0.100008 9.28759e-05 0)
(0.100013 8.42088e-05 0)
(0.100017 7.61849e-05 0)
(0.100021 6.87734e-05 0)
(0.100025 6.19446e-05 0)
(0.100029 5.56705e-05 0)
(0.100032 4.99236e-05 0)
(0.100035 4.46779e-05 0)
(0.100037 3.99087e-05 0)
(0.10004 3.55925e-05 0)
(0.100042 3.17077e-05 0)
(0.100043 2.82334e-05 0)
(0.100045 2.51503e-05 0)
(0.100047 2.24409e-05 0)
(0.100048 2.00897e-05 0)
(0.100049 1.8084e-05 0)
(0.10005 1.64118e-05 0)
(0.100051 1.50689e-05 0)
(0.100052 1.40426e-05 0)
(0.100053 1.33477e-05 0)
(0.100054 1.29527e-05 0)
(0.100055 1.29379e-05 0)
(0.100056 1.31654e-05 0)
(0.100056 1.39595e-05 0)
(0.100059 1.4753e-05 0)
(0.100058 1.67028e-05 0)
(0.100064 1.78184e-05 0)
(0.100058 2.17147e-05 0)
(0.100073 2.24989e-05 0)
(0.100056 2.98273e-05 0)
(0.100089 2.91491e-05 0)
(0.100051 4.19469e-05 0)
(0.100113 3.89199e-05 0)
(0.100046 5.84232e-05 0)
(0.100144 5.47256e-05 0)
(0.100048 7.79189e-05 0)
(0.100179 8.279e-05 0)
(0.100067 9.49753e-05 0)
(0.100223 0.000131118 0)
(0.100124 0.000114719 0)
(0.100265 0.00015778 0)
(0.0996315 0.000825702 0)
(0.0996499 0.000780419 0)
(0.0996682 0.000736963 0)
(0.0996862 0.000695298 0)
(0.099704 0.000655381 0)
(0.0997215 0.00061717 0)
(0.0997387 0.000580622 0)
(0.0997555 0.000545694 0)
(0.0997719 0.000512343 0)
(0.0997878 0.000480525 0)
(0.0998033 0.000450197 0)
(0.0998184 0.000421316 0)
(0.0998329 0.000393838 0)
(0.0998469 0.000367719 0)
(0.0998604 0.000342916 0)
(0.0998734 0.000319386 0)
(0.0998859 0.000297088 0)
(0.0998978 0.000275977 0)
(0.0999092 0.000256014 0)
(0.09992 0.000237157 0)
(0.0999303 0.000219366 0)
(0.0999401 0.0002026 0)
(0.0999494 0.00018682 0)
(0.0999581 0.000171989 0)
(0.0999664 0.000158067 0)
(0.0999741 0.000145018 0)
(0.0999814 0.000132806 0)
(0.0999882 0.000121394 0)
(0.0999945 0.000110749 0)
(0.1 0.000100835 0)
(0.100006 9.16198e-05 0)
(0.100011 8.30713e-05 0)
(0.100016 7.51578e-05 0)
(0.10002 6.78489e-05 0)
(0.100024 6.11152e-05 0)
(0.100027 5.49287e-05 0)
(0.100031 4.92624e-05 0)
(0.100034 4.40906e-05 0)
(0.100036 3.93885e-05 0)
(0.100039 3.51333e-05 0)
(0.100041 3.13032e-05 0)
(0.100043 2.78777e-05 0)
(0.100045 2.48378e-05 0)
(0.100046 2.21662e-05 0)
(0.100048 1.98474e-05 0)
(0.100049 1.78691e-05 0)
(0.10005 1.62194e-05 0)
(0.100051 1.48941e-05 0)
(0.100052 1.38807e-05 0)
(0.100053 1.31935e-05 0)
(0.100054 1.2802e-05 0)
(0.100055 1.27841e-05 0)
(0.100056 1.30063e-05 0)
(0.100057 1.37827e-05 0)
(0.100059 1.45652e-05 0)
(0.100058 1.64721e-05 0)
(0.100065 1.75824e-05 0)
(0.100058 2.13833e-05 0)
(0.100074 2.21978e-05 0)
(0.100056 2.93219e-05 0)
(0.10009 2.87668e-05 0)
(0.100052 4.11582e-05 0)
(0.100114 3.84231e-05 0)
(0.100047 5.71967e-05 0)
(0.100145 5.40307e-05 0)
(0.10005 7.60106e-05 0)
(0.10018 8.16796e-05 0)
(0.100071 9.21451e-05 0)
(0.100222 0.000128328 0)
(0.10013 0.000111784 0)
(0.100265 0.000150636 0)
(0.0996112 0.000817298 0)
(0.0996308 0.000772245 0)
(0.0996503 0.000729038 0)
(0.0996694 0.000687635 0)
(0.0996882 0.000647992 0)
(0.0997067 0.000610062 0)
(0.0997248 0.000573802 0)
(0.0997425 0.000539166 0)
(0.0997598 0.000506108 0)
(0.0997765 0.000474584 0)
(0.0997928 0.000444548 0)
(0.0998085 0.000415956 0)
(0.0998237 0.000388763 0)
(0.0998384 0.000362924 0)
(0.0998525 0.000338395 0)
(0.0998661 0.000315133 0)
(0.099879 0.000293093 0)
(0.0998915 0.000272235 0)
(0.0999033 0.000252515 0)
(0.0999146 0.000233893 0)
(0.0999253 0.000216326 0)
(0.0999355 0.000199777 0)
(0.0999451 0.000184204 0)
(0.0999542 0.000169569 0)
(0.0999628 0.000155835 0)
(0.0999708 0.000142964 0)
(0.0999784 0.00013092 0)
(0.0999854 0.000119667 0)
(0.099992 0.000109171 0)
(0.0999981 9.93975e-05 0)
(0.100004 9.03141e-05 0)
(0.100009 8.18886e-05 0)
(0.100014 7.40896e-05 0)
(0.100018 6.6887e-05 0)
(0.100022 6.02518e-05 0)
(0.100026 5.41561e-05 0)
(0.10003 4.85734e-05 0)
(0.100033 4.34779e-05 0)
(0.100036 3.88455e-05 0)
(0.100038 3.46533e-05 0)
(0.10004 3.08798e-05 0)
(0.100042 2.75049e-05 0)
(0.100044 2.45097e-05 0)
(0.100046 2.18772e-05 0)
(0.100047 1.95922e-05 0)
(0.100049 1.76424e-05 0)
(0.10005 1.60161e-05 0)
(0.100051 1.47091e-05 0)
(0.100052 1.37092e-05 0)
(0.100053 1.30301e-05 0)
(0.100054 1.26424e-05 0)
(0.100055 1.26215e-05 0)
(0.100057 1.28385e-05 0)
(0.100057 1.35972e-05 0)
(0.10006 1.43683e-05 0)
(0.100058 1.62322e-05 0)
(0.100065 1.73357e-05 0)
(0.100059 2.10419e-05 0)
(0.100074 2.18832e-05 0)
(0.100057 2.88059e-05 0)
(0.100091 2.8366e-05 0)
(0.100052 4.03591e-05 0)
(0.100115 3.78998e-05 0)
(0.100048 5.59637e-05 0)
(0.100146 5.32927e-05 0)
(0.100052 7.41191e-05 0)
(0.100181 8.04763e-05 0)
(0.100074 8.94109e-05 0)
(0.100221 0.000125434 0)
(0.100135 0.000108806 0)
(0.100264 0.00014385 0)
(0.099591 0.000808344 0)
(0.0996119 0.00076356 0)
(0.0996324 0.000720636 0)
(0.0996527 0.000679528 0)
(0.0996726 0.000640189 0)
(0.099692 0.00060257 0)
(0.0997111 0.000566625 0)
(0.0997297 0.000532306 0)
(0.0997477 0.000499565 0)
(0.0997653 0.000468357 0)
(0.0997823 0.000438634 0)
(0.0997987 0.000410351 0)
(0.0998146 0.000383461 0)
(0.0998299 0.000357919 0)
(0.0998446 0.00033368 0)
(0.0998587 0.0003107 0)
(0.0998723 0.000288934 0)
(0.0998852 0.00026834 0)
(0.0998975 0.000248876 0)
(0.0999092 0.000230499 0)
(0.0999204 0.000213168 0)
(0.0999309 0.000196844 0)
(0.0999409 0.000181487 0)
(0.0999503 0.000167058 0)
(0.0999592 0.000153518 0)
(0.0999676 0.000140832 0)
(0.0999754 0.000128963 0)
(0.0999827 0.000117875 0)
(0.0999895 0.000107534 0)
(0.0999959 9.79064e-05 0)
(0.100002 8.89595e-05 0)
(0.100007 8.06613e-05 0)
(0.100012 7.29809e-05 0)
(0.100017 6.58883e-05 0)
(0.100021 5.93549e-05 0)
(0.100025 5.33532e-05 0)
(0.100029 4.78567e-05 0)
(0.100032 4.28403e-05 0)
(0.100035 3.82798e-05 0)
(0.100037 3.41527e-05 0)
(0.10004 3.04378e-05 0)
(0.100042 2.71153e-05 0)
(0.100044 2.41663e-05 0)
(0.100045 2.15743e-05 0)
(0.100047 1.93242e-05 0)
(0.100048 1.7404e-05 0)
(0.10005 1.5802e-05 0)
(0.100051 1.4514e-05 0)
(0.100052 1.35282e-05 0)
(0.100053 1.28578e-05 0)
(0.100054 1.24742e-05 0)
(0.100055 1.24505e-05 0)
(0.100057 1.26621e-05 0)
(0.100057 1.34032e-05 0)
(0.10006 1.41624e-05 0)
(0.100059 1.59833e-05 0)
(0.100065 1.70786e-05 0)
(0.100059 2.06908e-05 0)
(0.100075 2.15553e-05 0)
(0.100057 2.82795e-05 0)
(0.100091 2.79472e-05 0)
(0.100053 3.95502e-05 0)
(0.100116 3.73504e-05 0)
(0.100049 5.47247e-05 0)
(0.100147 5.25127e-05 0)
(0.100054 7.22441e-05 0)
(0.100182 7.91868e-05 0)
(0.100077 8.67638e-05 0)
(0.10022 0.000122453 0)
(0.10014 0.0001058 0)
(0.100263 0.000137405 0)
(0.0995709 0.000798838 0)
(0.099593 0.00075436 0)
(0.0996147 0.000711755 0)
(0.0996361 0.000670976 0)
(0.099657 0.000631972 0)
(0.0996775 0.000594694 0)
(0.0996974 0.000559091 0)
(0.0997169 0.000525115 0)
(0.0997358 0.000492716 0)
(0.0997541 0.000461846 0)
(0.0997719 0.000432457 0)
(0.0997891 0.000404502 0)
(0.0998056 0.000377934 0)
(0.0998215 0.000352706 0)
(0.0998368 0.000328773 0)
(0.0998515 0.000306089 0)
(0.0998655 0.000284611 0)
(0.099879 0.000264295 0)
(0.0998917 0.000245098 0)
(0.0999039 0.000226977 0)
(0.0999154 0.000209893 0)
(0.0999264 0.000193804 0)
(0.0999367 0.000178671 0)
(0.0999465 0.000164455 0)
(0.0999557 0.000151119 0)
(0.0999643 0.000138624 0)
(0.0999724 0.000126936 0)
(0.09998 0.000116019 0)
(0.099987 0.000105839 0)
(0.0999936 9.63623e-05 0)
(0.0999997 8.75565e-05 0)
(0.100005 7.939e-05 0)
(0.100011 7.18321e-05 0)
(0.100015 6.48532e-05 0)
(0.10002 5.8425e-05 0)
(0.100024 5.25203e-05 0)
(0.100027 4.71129e-05 0)
(0.100031 4.2178e-05 0)
(0.100034 3.76918e-05 0)
(0.100037 3.3632e-05 0)
(0.100039 2.99775e-05 0)
(0.100041 2.67089e-05 0)
(0.100043 2.38077e-05 0)
(0.100045 2.12576e-05 0)
(0.100047 1.90436e-05 0)
(0.100048 1.7154e-05 0)
(0.10005 1.55772e-05 0)
(0.100051 1.4309e-05 0)
(0.100052 1.33379e-05 0)
(0.100053 1.26766e-05 0)
(0.100054 1.22973e-05 0)
(0.100055 1.22711e-05 0)
(0.100057 1.24774e-05 0)
(0.100057 1.32008e-05 0)
(0.10006 1.39475e-05 0)
(0.100059 1.57256e-05 0)
(0.100066 1.68112e-05 0)
(0.100059 2.03302e-05 0)
(0.100075 2.12144e-05 0)
(0.100058 2.77432e-05 0)
(0.100092 2.75107e-05 0)
(0.100054 3.87318e-05 0)
(0.100117 3.67755e-05 0)
(0.10005 5.34804e-05 0)
(0.100148 5.16922e-05 0)
(0.100055 7.03853e-05 0)
(0.100182 7.78175e-05 0)
(0.10008 8.41952e-05 0)
(0.100219 0.000119402 0)
(0.100145 0.00010278 0)
(0.100262 0.000131284 0)
(0.0995509 0.000788778 0)
(0.0995742 0.000744645 0)
(0.0995971 0.000702395 0)
(0.0996196 0.000661978 0)
(0.0996416 0.000623342 0)
(0.099663 0.000586434 0)
(0.0996839 0.000551201 0)
(0.0997043 0.000517594 0)
(0.099724 0.00048556 0)
(0.0997431 0.000455051 0)
(0.0997616 0.000426018 0)
(0.0997795 0.000398411 0)
(0.0997967 0.000372183 0)
(0.0998132 0.000347286 0)
(0.0998291 0.000323675 0)
(0.0998444 0.000301303 0)
(0.0998589 0.000280126 0)
(0.0998728 0.0002601 0)
(0.099886 0.000241182 0)