/*--------------------------------*- C++ -*----------------------------------*\
| =========                 |                                                 |
| \\      /  F ield         | OpenFOAM: The Open Source CFD Toolbox           |
|  \\    /   O peration     | Version:  2412                                  |
|   \\  /    A nd           | Website:  www.openfoam.com                      |
|    \\/     M anipulation  |                                                 |
\*---------------------------------------------------------------------------*/
FoamFile
{
    version     2.0;
    format      ascii;
    arch        "LSB;label=32;scalar=64";
    class       volVectorField;
    location    "1.5";
    object      vorticity;
}
// * * * * * * * * * * * * * * * * * * * * * * * * * * * * * * * * * * * * * //

dimensions      [0 0 -1 0 0 0 0];

internalField   nonuniform List<vector> 
5285
(
(3.47778e-21 -6.76702e-20 0.000754603)
(-2.82765e-21 8.25623e-21 0.000751045)
(-3.2933e-22 -7.49866e-21 0.000747331)
(1.51697e-22 7.5504e-21 0.000743705)
(-4.80519e-24 -1.96552e-22 0.000740436)
(-1.47926e-22 -7.25441e-21 0.000737712)
(-3.00245e-21 7.39678e-21 0.000735371)
(6.37127e-21 1.89914e-23 0.000732789)
(1.89691e-21 7.19408e-21 0.000729129)
(-4.94414e-21 -8.62644e-24 0.000723718)
(7.13729e-21 8.95832e-21 0.000716574)
(-7.75142e-21 1.09085e-19 0.000708886)
(4.14313e-22 -1.17777e-19 0.00070255)
(-2.5444e-21 1.0851e-19 0.000698858)
(2.46387e-21 -1.10289e-19 0.000697632)
(7.2255e-23 1.99801e-21 0.000697332)
(-9.33931e-23 -2.43586e-21 0.000696153)
(3.11369e-21 -1.05631e-19 0.000693824)
(-1.1914e-20 1.03727e-19 0.000692294)
(-4.6428e-22 -2.28951e-21 0.000694223)
(9.17279e-21 2.00618e-23 0.000700982)
(9.98721e-21 2.1843e-23 0.000712046)
(-9.95525e-21 -2.17731e-23 0.00072578)
(-3.31784e-22 -7.25644e-25 0.000739733)
(-3.47527e-22 -7.60077e-25 0.000747658)
(-1.2063e-20 -2.6383e-23 0.00072848)
(1.16413e-20 2.54607e-23 0.000612266)
(-3.91619e-22 2.35183e-22 0.000177004)
(2.34782e-22 1.18066e-20 -0.00120849)
(-3.57737e-20 7.25345e-20 -0.00502961)
(3.43317e-20 -9.84068e-20 -0.013966)
(-1.03792e-20 -1.47269e-20 -0.031164)
(1.12614e-20 4.13832e-20 -0.0573683)
(-3.35834e-20 -9.2866e-21 -0.0872601)
(8.11686e-22 -2.35153e-19 0.00233319)
(-6.80587e-21 2.53022e-19 0.00232626)
(-2.64779e-22 1.94301e-20 0.00231888)
(-5.91699e-21 -7.78481e-21 0.00231167)
(6.2119e-21 2.21841e-22 0.00230552)
(-6.15227e-21 1.05788e-20 0.00230105)
(3.87474e-21 2.19702e-19 0.00229766)
(4.12924e-21 -4.72332e-19 0.00229322)
(3.92471e-21 -2.22103e-19 0.00228502)
(-5.27139e-21 4.55564e-19 0.00227101)
(-6.55482e-22 -4.58136e-19 0.00225152)
(3.34828e-21 4.72462e-19 0.00223052)
(4.9788e-21 -6.00265e-22 0.00221389)
(-5.5704e-21 -1.45834e-22 0.00220521)
(-1.86277e-21 -4.07406e-24 0.00220344)
(0 -0 0.00220364)
(2.74689e-22 1.42026e-22 0.00220043)
(1.64906e-20 1.60645e-20 0.00219324)
(-1.1612e-20 4.00368e-19 0.0021879)
(-2.20816e-20 -2.84856e-20 0.00219176)
(1.45625e-20 -4.00994e-19 0.00220795)
(2.32772e-20 -3.46784e-19 0.00223393)
(2.28428e-21 3.78134e-19 0.00226389)
(-4.57447e-20 2.44954e-22 0.00228911)
(4.65849e-20 2.33365e-20 0.00228775)
(-3.88972e-20 2.85786e-19 0.00218954)
(1.08304e-20 -3.02144e-19 0.00176925)
(-2.6942e-20 2.06321e-20 0.000331254)
(3.08647e-20 1.30093e-20 -0.00405832)
(-7.32797e-20 1.59789e-19 -0.015877)
(7.36321e-20 -1.55512e-19 -0.0430995)
(-1.35936e-19 1.27881e-19 -0.0949506)
(1.30809e-19 -1.44054e-19 -0.173383)
(-3.12353e-20 -1.26434e-21 -0.2604)
(-8.01831e-21 -1.33792e-20 0.00402346)
(-1.52712e-21 4.86466e-19 0.00402239)
(4.72847e-22 -1.47379e-20 0.00402029)
(-1.24309e-20 4.73233e-19 0.00401819)
(1.20549e-20 -4.9348e-19 0.00401776)
(-6.62967e-21 4.7341e-19 0.00402024)
(-4.02268e-21 -4.94591e-19 0.00402452)
(7.70919e-21 -7.67694e-21 0.00402643)
(-3.61174e-21 1.4495e-20 0.0040207)
(8.07325e-21 -7.22622e-21 0.00400385)
(-1.8376e-20 4.48049e-19 0.00397723)
(1.52499e-20 -4.84407e-19 0.00394863)
(1.56349e-20 -4.44686e-19 0.00392803)
(-1.1081e-20 4.5354e-19 0.00392035)
(-1.63119e-21 -7.78874e-21 0.00392247)
(1.68173e-20 -1.81551e-22 0.00392562)
(-1.98144e-20 -3.20966e-20 0.00392143)
(4.30638e-20 -8.41695e-19 0.00390963)
(2.17227e-20 6.61968e-20 0.00389928)
(-6.6159e-20 7.98412e-19 0.00390046)
(5.98163e-21 -1.84237e-20 0.00391567)
(-1.6146e-20 -1.11795e-20 0.00393829)
(1.03261e-19 -6.8751e-19 0.00395653)
(-1.80085e-19 1.37527e-18 0.00395208)
(1.71074e-19 -1.40575e-18 0.00387905)
(1.01479e-19 1.04474e-19 0.00359712)
(-1.58211e-19 6.36767e-19 0.00267664)
(-1.68327e-19 4.51557e-19 -0.000148203)
(1.51549e-19 -5.51069e-19 -0.00824839)
(-3.67816e-20 3.02324e-20 -0.0291729)
(9.23389e-20 -2.95428e-20 -0.0760139)
(2.45058e-19 -1.53753e-19 -0.163474)
(-2.6891e-19 2.49997e-19 -0.293998)
(-4.32034e-20 -6.82605e-20 -0.431081)
(-7.64264e-21 4.94811e-19 0.00556548)
(-1.02518e-21 -5.95076e-21 0.00557683)
(7.01401e-21 6.05463e-21 0.00558606)
(-2.83571e-21 4.61398e-19 0.00559457)
(-1.2368e-20 -4.88539e-19 0.00560501)
(2.28095e-20 1.96177e-20 0.00561984)
(-2.96152e-20 9.36574e-19 0.00563772)
(1.73147e-20 -9.47932e-19 0.00565176)
(3.15658e-21 -1.62265e-21 0.00565312)
(-1.49881e-20 -6.66427e-23 0.00563669)
(2.20826e-20 -1.43314e-20 0.00560573)
(-7.31366e-21 1.87883e-22 0.00557251)
(-8.13644e-21 -1.75911e-23 0.00555048)
(7.61256e-21 2.9609e-22 0.00554427)
(-4.9438e-21 -3.34965e-21 0.00554773)
(5.26073e-20 -8.55629e-19 0.00554911)
(-4.39213e-20 8.89744e-19 0.0055389)
(-2.34641e-20 -4.59676e-21 0.00551754)
(2.65389e-20 -6.0273e-21 0.00549491)
(-8.55562e-20 8.05048e-19 0.00548035)
(1.12544e-19 -8.18826e-19 0.00547325)
(-3.538e-20 7.25449e-21 0.00546206)
(2.43589e-20 5.18719e-23 0.00542851)
(5.64021e-20 1.36736e-20 0.00534178)
(-2.70748e-19 6.3233e-19 0.00512089)
(3.39748e-19 -1.31696e-18 0.00452232)
(-1.56885e-19 6.78266e-19 0.00282632)
(2.86073e-19 -5.4169e-19 -0.00197984)
(-2.65434e-19 6.59372e-19 -0.0149631)
(-7.57519e-19 6.84638e-19 -0.0469358)
(1.4711e-18 -1.53597e-18 -0.115909)
(-7.51579e-19 8.14306e-19 -0.241258)
(3.15988e-20 -3.02288e-21 -0.424914)
(7.45031e-21 -5.93526e-20 -0.60149)
(6.56171e-21 5.78237e-21 0.00627595)
(2.29848e-21 4.68974e-19 0.00629228)
(2.03238e-20 -5.11505e-19 0.00630417)
(1.00958e-20 3.43117e-20 0.0063132)
(-4.49719e-20 9.72519e-19 0.00632336)
(1.9529e-20 -9.83572e-19 0.00633926)
(1.60131e-20 2.78537e-20 0.00636022)
(-2.76754e-20 -3.58128e-22 0.00637607)
(1.80831e-20 1.46876e-20 0.00637283)
(-2.39118e-20 9.45736e-19 0.00634326)
(1.45156e-20 -9.45556e-19 0.00629281)
(4.32312e-21 1.46617e-20 0.00623742)
(1.57807e-20 2.90795e-20 0.00619196)
(-1.74556e-20 -8.31921e-22 0.00615921)
(1.09764e-21 -1.3961e-20 0.00613001)
(-5.53842e-20 1.42919e-20 0.00609149)
(5.37855e-20 1.36321e-20 0.00603532)
(-5.80056e-21 -3.27187e-20 0.00596217)
(5.24104e-20 -8.07333e-19 0.00587904)
(-3.67977e-20 8.31134e-19 0.0057908)
(2.23238e-19 -1.62791e-18 0.00569288)
(-1.88322e-19 1.64877e-18 0.0055705)
(2.38295e-19 -1.58253e-18 0.00540133)
(8.71434e-20 1.57507e-19 0.00514268)
(-2.78799e-19 1.51421e-18 0.0046704)
(-1.86057e-19 -3.76413e-20 0.00360117)
(2.47227e-20 1.43273e-22 0.000818055)
(-3.00616e-20 3.68198e-22 -0.00667489)
(8.91816e-20 2.15638e-21 -0.0260274)
(4.78665e-20 1.77729e-20 -0.0717239)
(-1.90207e-19 6.58097e-21 -0.166838)
(1.13345e-19 7.06942e-21 -0.335223)
(-2.82536e-22 -5.30732e-22 -0.578031)
(6.11331e-20 9.84701e-22 -0.783783)
(-3.35906e-21 6.38126e-21 0.0053302)
(3.55047e-20 -9.90284e-19 0.00532507)
(1.93862e-20 -9.46229e-19 0.00531055)
(8.49754e-21 2.82548e-20 0.00528817)
(-1.22226e-20 9.88479e-19 0.0052635)
(-3.10634e-20 -1.25124e-20 0.00524432)
(1.89273e-20 1.37134e-20 0.0052317)
(-4.05625e-20 9.60508e-19 0.00521142)
(2.65676e-20 -9.88897e-19 0.00516184)
(6.84225e-20 -9.37162e-19 0.00507218)
(-7.01775e-20 9.81508e-19 0.00494938)
(2.2971e-20 -3.04324e-20 0.00481079)
(4.84234e-20 -9.46282e-19 0.00467031)
(-9.02528e-20 9.8012e-19 0.00452799)
(6.61882e-21 1.85898e-20 0.00437154)
(-1.75593e-19 1.79524e-18 0.0041865)
(1.44406e-19 -1.88309e-18 0.00396463)
(7.45034e-20 8.81629e-20 0.00370502)
(-2.19579e-19 1.72131e-18 0.00340966)
(1.84243e-19 -1.81724e-18 0.00307756)
(-4.7874e-20 -5.3859e-21 0.00270056)
(4.59124e-19 -1.64605e-18 0.00226326)
(-4.14627e-19 1.72445e-18 0.00174451)
(-1.06131e-19 -1.07082e-19 0.0010991)
(6.94196e-19 -1.45656e-18 0.000170831)
(-1.11426e-18 3.0958e-18 -0.00156623)
(-9.6448e-20 -1.81056e-19 -0.00568024)
(-1.56084e-19 -1.28064e-19 -0.0163217)
(8.08584e-19 -1.40744e-18 -0.0430966)
(6.86303e-20 1.08051e-19 -0.104814)
(-1.20519e-18 1.04368e-18 -0.230819)
(1.16584e-18 -1.1751e-18 -0.452436)
(9.57277e-21 5.21958e-20 -0.775961)
(1.45683e-20 -4.03394e-21 -1.01445)
(-1.43947e-21 -1.94982e-20 0.00256022)
(1.29772e-20 -1.02294e-18 0.00250179)
(-8.84105e-21 -4.01513e-21 0.00242676)
(-2.27598e-22 1.85925e-22 0.00233644)
(1.77278e-20 1.30251e-20 0.00223808)
(-4.24436e-20 9.87971e-19 0.002143)
(3.3437e-20 -1.01776e-18 0.002055)
(1.96329e-20 1.28788e-20 0.00195571)
(-1.40382e-20 -1.56567e-20 0.00181429)
(-9.42903e-21 1.5119e-20 0.00161583)
(-5.76249e-20 9.58843e-19 0.00136898)
(1.27241e-19 -1.97774e-18 0.00109278)
(-5.48448e-20 1.05212e-18 0.000801796)
(-1.50932e-19 1.9205e-18 0.000496804)
(-3.34525e-20 -5.17261e-20 0.000165948)
(1.8286e-20 -2.16245e-20 -0.000203809)
(-8.37406e-20 -6.18263e-20 -0.000617082)
(2.0551e-19 -1.9551e-18 -0.00106894)
(3.7704e-19 -1.79109e-18 -0.00154738)
(-3.11249e-19 1.91435e-18 -0.00203593)
(-5.19037e-20 -8.39559e-20 -0.00251419)
(4.07077e-19 -1.74556e-18 -0.00295213)
(-3.19467e-19 1.88969e-18 -0.00330005)
(-6.37775e-19 1.64742e-18 -0.00349581)
(4.8276e-19 -1.78214e-18 -0.00355316)
(1.17854e-19 -1.58179e-20 -0.0038681)
(8.98917e-19 -1.6169e-18 -0.00604875)
(2.21328e-19 1.36685e-19 -0.0148391)
(-1.12649e-18 1.62155e-18 -0.0417056)
(-3.19835e-20 -6.40711e-20 -0.109499)
(6.05491e-20 9.63167e-22 -0.255049)
(-5.3518e-20 3.1119e-20 -0.526538)
(-7.60292e-19 7.80051e-19 -0.975923)
(7.38853e-19 -8.02341e-19 -1.44533)
(-1.12171e-20 -2.93415e-21 0.00759288)
(-7.83736e-21 4.97022e-22 -0.0226247)
(7.22296e-21 7.7911e-21 -0.0456849)
(-1.43136e-20 -1.99672e-20 -0.0551234)
(1.47754e-20 1.23655e-20 -0.0520499)
(-7.17707e-22 9.62977e-22 -0.0420408)
(-8.79647e-23 -5.63686e-23 -0.0304992)
(-2.06373e-21 4.51359e-24 -0.0205329)
(1.997e-21 -4.36763e-24 -0.0131451)
(-5.07903e-23 1.11083e-25 -0.00816491)
(-4.46106e-23 9.75678e-26 -0.00500964)
(1.1936e-21 -2.61053e-24 -0.00308916)
(-1.19745e-21 2.61894e-24 -0.00194812)
(-1.10699e-21 2.4211e-24 -0.0012778)
(3.28276e-23 -2.82224e-22 -0.000883641)
(2.9583e-21 9.30806e-20 -0.000648698)
(-1.73649e-21 -8.68089e-20 -0.00050481)
(-2.40571e-23 -2.65053e-22 -0.000412716)
(-1.01108e-23 2.79584e-22 -0.000349975)
(-1.21837e-21 -1.0313e-19 -0.000304553)
(1.23213e-21 1.03038e-19 -0.000270772)
(-7.14096e-22 -9.96143e-20 -0.000245823)
(-1.71502e-20 2.54932e-20 0.0161189)
(-2.36509e-21 -2.61448e-20 -0.0717556)
(8.22188e-21 -6.9694e-21 -0.138079)
(-4.62716e-20 -3.36052e-20 -0.164464)
(4.4975e-20 3.54644e-20 -0.154464)
(-6.96142e-21 6.39499e-21 -0.124407)
(4.01158e-21 -2.415e-21 -0.0900599)
(-6.0531e-20 -2.03947e-19 -0.0604955)
(6.25926e-20 1.93914e-19 -0.0386244)
(-9.63571e-21 -5.65391e-21 -0.0239081)
(4.65758e-21 -1.01309e-20 -0.0146029)
(3.26079e-20 3.11341e-19 -0.00894989)
(-3.61197e-20 -3.08132e-19 -0.00559569)
(-2.59192e-20 -3.48362e-19 -0.00362554)
(6.38318e-21 -1.6724e-20 -0.00246542)
(2.21448e-20 3.62671e-19 -0.00177186)
(-2.38583e-21 -4.72956e-21 -0.0013454)
(-5.85959e-22 -1.23095e-20 -0.0010713)
(4.12493e-24 -3.67548e-23 -0.000883805)
(2.6066e-22 -5.7009e-25 -0.000747375)
(8.41469e-22 1.35559e-23 -0.000645036)
(-8.27996e-22 -7.70301e-21 -0.000568326)
(-2.07753e-20 4.01356e-22 0.00245346)
(4.787e-20 2.38269e-20 -0.133669)
(-2.27889e-20 -9.4153e-21 -0.23384)
(-4.52831e-20 -1.46205e-20 -0.27072)
(1.7125e-20 6.10819e-21 -0.251181)
(-2.10428e-19 -2.94997e-19 -0.201048)
(2.22401e-19 2.8446e-19 -0.144948)
(2.1587e-19 4.50515e-19 -0.0970164)
(-3.43016e-20 8.22174e-20 -0.0617025)
(-3.3857e-19 -1.05187e-18 -0.0380187)
(3.04155e-19 1.16003e-18 -0.0230884)
(-1.3971e-19 -5.85605e-19 -0.0140406)
(-9.20954e-23 -1.36114e-20 -0.00867649)
(-1.1871e-21 -2.59099e-21 -0.00551877)
(7.96037e-20 7.52198e-19 -0.0036478)
(-1.34524e-20 1.70792e-20 -0.00251794)
(-6.4281e-20 -7.54459e-19 -0.00181424)
(4.65345e-21 2.25236e-20 -0.00135583)
(-2.49828e-21 8.9043e-23 -0.00103833)
(1.66611e-22 -1.15816e-21 -0.000804149)
(1.7297e-20 4.28628e-19 -0.000624805)
(-1.72562e-20 -4.12296e-19 -0.0004863)
(9.5692e-22 3.36054e-20 -0.048346)
(1.12624e-20 -6.20605e-20 -0.218507)
(2.88668e-19 3.30289e-19 -0.334881)
(-7.56517e-19 -7.16482e-19 -0.370085)
(4.88452e-19 3.87745e-19 -0.336212)
(2.92952e-19 3.99738e-19 -0.266286)
(-3.2182e-19 -3.80779e-19 -0.190863)
(2.80039e-19 5.04413e-19 -0.127267)
(-5.45742e-19 -1.06459e-18 -0.0807172)
(2.77875e-19 5.44163e-19 -0.0496293)
(-5.95452e-21 1.49865e-20 -0.0300931)
(-5.29096e-21 4.55108e-22 -0.0182745)
(8.38006e-21 1.365e-20 -0.0112589)
(-1.31952e-19 -7.54677e-19 -0.00710224)
(1.23392e-19 7.26038e-19 -0.00460658)
(-9.05756e-22 2.72424e-20 -0.0030688)
(1.90651e-21 -1.49157e-20 -0.00208617)
(7.04578e-20 8.3004e-19 -0.00142798)
(-7.16856e-20 -8.2525e-19 -0.000959961)
(-3.48339e-22 -1.58809e-20 -0.000605393)
(-1.11258e-21 -3.48182e-23 -0.000323925)
(1.21448e-21 3.19671e-23 -9.50056e-05)
(3.41436e-20 -1.64116e-22 -0.153955)
(-1.61917e-21 -1.64632e-21 -0.336952)
(-7.03451e-20 -3.35904e-21 -0.440726)
(8.92462e-20 -5.77416e-21 -0.455791)
(-3.58159e-20 -1.20328e-20 -0.401127)
(-3.49386e-20 -2.01209e-21 -0.312788)
(1.84897e-20 7.43791e-21 -0.222528)
(-8.57769e-21 -9.27145e-21 -0.14792)
(4.42587e-20 -2.04632e-20 -0.0937946)
(5.46488e-19 1.32282e-18 -0.0578261)
(-9.07621e-20 6.28506e-20 -0.0352981)
(-4.87224e-19 -1.41507e-18 -0.0216939)
(3.57914e-19 1.49533e-18 -0.0136068)
(-3.66831e-19 -1.49212e-18 -0.00877956)
(1.29505e-19 7.97087e-19 -0.00583439)
(-1.35963e-19 -8.22735e-19 -0.00397213)
(3.10009e-21 9.91083e-21 -0.00273971)
(-1.04532e-20 -1.30464e-20 -0.00187955)
(7.59838e-21 -1.36609e-20 -0.00124169)
(1.07727e-21 1.36198e-20 -0.000737764)
(2.85069e-21 1.03217e-22 -0.000318523)
(-4.70334e-21 -2.81298e-20 4.08067e-05)
(-6.84375e-22 2.32687e-21 0.000351591)
(-1.03888e-19 1.31416e-21 -0.335814)
(3.38479e-20 3.46888e-20 -0.497795)
(-5.12557e-19 -7.51203e-19 -0.54605)
(5.71124e-19 6.92732e-19 -0.518338)
(-3.84737e-20 5.82547e-20 -0.437219)
(-8.61504e-19 -1.22456e-18 -0.334135)
(1.20677e-20 -1.18098e-19 -0.235725)
(4.84335e-20 -7.55934e-20 -0.156375)
(1.63273e-18 2.85495e-18 -0.0993797)
(-8.24469e-19 -1.4015e-18 -0.0616988)
(4.25624e-20 -3.76321e-22 -0.0382054)
(5.50194e-19 1.59022e-18 -0.0240911)
(-5.5365e-19 -1.55543e-18 -0.0157381)
(8.7064e-21 -2.30076e-21 -0.0107534)
(-3.3672e-19 -1.70087e-18 -0.00768578)
(3.4539e-19 1.6962e-18 -0.00570376)
(-1.64808e-20 -1.96806e-22 -0.00434337)
(-2.28862e-19 -1.78947e-18 -0.00334568)
(2.36238e-19 1.78759e-18 -0.00256313)
(-2.76219e-21 -1.0881e-20 -0.00190992)
(8.68274e-20 9.2772e-19 -0.00133865)
(-7.62313e-20 -8.91534e-19 -0.000828201)
(-4.30675e-21 -5.06847e-21 -0.000371398)
(-3.08449e-19 -3.68457e-19 -0.638717)
(3.45419e-19 3.20401e-19 -0.663413)
(-4.26698e-21 4.276e-20 -0.602741)
(-4.20674e-20 -4.35334e-22 -0.520048)
(2.87217e-20 -1.77759e-20 -0.418268)
(1.06179e-18 1.53111e-18 -0.311702)
(-3.58671e-20 1.20662e-19 -0.216157)
(-1.05274e-18 -1.6103e-18 -0.140859)
(-2.26136e-20 3.74364e-21 -0.0874123)
(-8.07053e-19 -1.70681e-18 -0.0525934)
(8.42655e-19 1.64536e-18 -0.0314524)
(6.18195e-19 1.76556e-18 -0.0193121)
(-6.40713e-19 -1.72044e-18 -0.0126033)
(1.23858e-20 -2.00033e-20 -0.00895016)
(4.29461e-19 1.82133e-18 -0.00692307)
(-4.41845e-19 -1.79008e-18 -0.00572448)
(-3.20246e-19 -1.86708e-18 -0.00493107)
(4.92199e-20 -3.51212e-20 -0.00432488)
(2.57615e-20 -2.56698e-20 -0.00379714)
(3.24237e-20 -1.49434e-20 -0.00329719)
(2.20507e-19 1.90379e-18 -0.002807)
(8.47211e-20 9.67319e-19 -0.00232813)
(-1.70107e-19 -1.93817e-18 -0.00187167)
(9.6898e-20 1.844e-19 -0.484943)
(-5.4374e-20 -0 -0.437846)
(3.56958e-22 -0 -0.387674)
(0 -0 -0.336334)
(-2.79505e-22 -0 -0.278624)
(-3.01751e-20 -0 -0.215712)
(4.12789e-21 -0 -0.154101)
(2.62304e-20 -0 -0.100733)
(-1.49982e-22 -0 -0.0595451)
(1.65534e-20 -0 -0.0308644)
(-1.63718e-20 -0 -0.0126405)
(-1.26012e-20 -0 -0.0020139)
(1.25469e-20 -0 0.00363471)
(0 -0 0.00626984)
(-9.12486e-21 -0 0.00719251)
(9.08576e-21 -0 0.00719916)
(7.79003e-21 -0 0.00675634)
(-4.57835e-22 -0 0.00613075)
(-3.77409e-22 -0 0.00547012)
(-3.66038e-22 -0 0.00484862)
(-6.51714e-21 -0 0.00429501)
(-2.94836e-21 -0 0.00381176)
(5.86123e-21 -0 0.00339071)
(2.86712e-21 -0 0.00302134)
(0 -1.03115e-19 -0.573188)
(0 -0 -0.450556)
(0 -0 -0.365745)
(0 -0 -0.29939)
(0 -0 -0.239036)
(0 -0 -0.181004)
(0 -0 -0.127826)
(0 -0 -0.0834626)
(0 -0 -0.0500192)
(0 -0 -0.0270756)
(0 -0 -0.0126072)
(0 -0 -0.00416133)
(0 -0 0.000394402)
(0 -0 0.00261142)
(0 -0 0.00349629)
(0 -0 0.00365754)
(0 -0 0.00345135)
(0 -0 0.00308351)
(0 -0 0.00266952)
(0 -0 0.00226807)
(0 -0 0.00190216)
(0 -0 0.00157489)
(0 -0 0.00128098)
(0 7.34486e-22 -0.527213)
(0 -0 -0.403567)
(0 -0 -0.31336)
(0 -0 -0.244727)
(0 -0 -0.187661)
(0 -0 -0.137879)
(0 -0 -0.0954719)
(0 -0 -0.0617792)
(0 -0 -0.0371852)
(0 -0 -0.0206651)
(0 -0 -0.0103764)
(0 -0 -0.00439187)
(0 -0 -0.00113542)
(0 -0 0.000500066)
(0 -0 0.00121572)
(0 -0 0.00142798)
(0 -0 0.00137808)
(0 -0 0.00120518)
(0 -0 0.000987826)
(0 -0 0.000766545)
(0 -0 0.000558025)
(0 -0 0.00036557)
(0 -0 0.000187551)
(0 -0 -0.41493)
(0 -0 -0.316359)
(0 -0 -0.240476)
(0 -0 -0.181631)
(0 -0 -0.134272)
(0 -0 -0.0954688)
(0 -0 -0.0644199)
(0 -0 -0.0409486)
(0 -0 -0.0244334)
(0 -0 -0.0136321)
(0 -0 -0.00703169)
(0 -0 -0.00323855)
(0 -0 -0.00118193)
(0 -0 -0.000138284)
(0 -0 0.000338102)
(0 -0 0.000505899)
(0 -0 0.000511793)
(0 -0 0.000439061)
(0 -0 0.00033436)
(0 -0 0.000221986)
(0 -0 0.000112468)
(0 -0 8.59092e-06)
(0 -0 -9.01027e-05)
(0 -5.74903e-22 -0.291851)
(0 -0 -0.222171)
(0 -0 -0.166643)
(0 -0 -0.122742)
(0 -0 -0.0880007)
(0 -0 -0.0607303)
(0 -0 -0.0399508)
(0 -0 -0.0248994)
(0 -0 -0.0146602)
(0 -0 -0.00813593)
(0 -0 -0.0042284)
(0 -0 -0.00201561)
(0 -0 -0.000825635)
(0 -0 -0.000220044)
(0 -0 6.40493e-05)
(0 -0 0.000175489)
(0 -0 0.000196493)
(0 -0 0.000172557)
(0 -0 0.000128759)
(0 -0 7.82427e-05)
(0 -0 2.7058e-05)
(0 -0 -2.28034e-05)
(0 -0 -7.13913e-05)
(0 -6.01714e-20 -0.187675)
(0 -0 -0.142213)
(0 -0 -0.105211)
(0 -0 -0.0757108)
(0 -0 -0.0528334)
(0 -0 -0.0355451)
(0 -0 -0.0228954)
(0 -0 -0.0140407)
(0 -0 -0.00817295)
(0 -0 -0.00450861)
(0 -0 -0.00234887)
(0 -0 -0.00114124)
(0 -0 -0.000497001)
(0 -0 -0.000168722)
(0 -0 -1.11368e-05)
(0 -0 5.62205e-05)
(0 -0 7.66287e-05)
(0 -0 7.3327e-05)
(0 -0 5.88347e-05)
(0 -0 3.97406e-05)
(0 -0 1.92888e-05)
(0 -0 -1.2538e-06)
(0 -0 -2.19634e-05)
(0 6.04045e-20 -0.11206)
(0 -0 -0.084112)
(0 -0 -0.061059)
(0 -0 -0.0427445)
(0 -0 -0.0289931)
(0 -0 -0.0190631)
(0 -0 -0.0120918)
(0 -0 -0.0073502)
(0 -0 -0.0042607)
(0 -0 -0.00235015)
(0 -0 -0.00123177)
(0 -0 -0.00060998)
(0 -0 -0.000279427)
(0 -0 -0.000110383)
(0 -0 -2.73688e-05)
(0 -0 1.08317e-05)
(0 -0 2.58999e-05)
(0 -0 2.91374e-05)
(0 -0 2.64801e-05)
(0 -0 2.10682e-05)
(0 -0 1.45787e-05)
(0 -0 7.75132e-06)
(0 -0 3.73547e-07)
(0 3.62597e-22 -0.0629744)
(0 -0 -0.0465006)
(0 -0 -0.0327898)
(0 -0 -0.0220497)
(0 -0 -0.0143902)
(0 -0 -0.00922195)
(0 -0 -0.00579503)
(0 -0 -0.00353376)
(0 -0 -0.00206907)
(0 -0 -0.00115686)
(0 -0 -0.000617359)
(0 -0 -0.000314749)
(0 -0 -0.000152644)
(0 -0 -6.87754e-05)
(0 -0 -2.64352e-05)
(0 -0 -5.55633e-06)
(0 -0 4.2867e-06)
(0 -0 8.40084e-06)
(0 -0 9.51349e-06)
(0 -0 9.08899e-06)
(0 -0 8.00337e-06)
(0 -0 6.67642e-06)
(0 -0 4.77504e-06)
(0 -3.12481e-22 -0.0338119)
(0 -0 -0.0242997)
(0 -0 -0.0163258)
(0 -0 -0.0102234)
(0 -0 -0.00621135)
(0 -0 -0.00381036)
(0 -0 -0.00238675)
(0 -0 -0.00149594)
(0 -0 -0.000912442)
(0 -0 -0.00053279)
(0 -0 -0.000297216)
(0 -0 -0.000159642)
(0 -0 -8.35337e-05)
(0 -0 -4.29263e-05)
(0 -0 -2.15314e-05)
(0 -0 -1.01496e-05)
(0 -0 -3.96361e-06)
(0 -0 -5.46474e-07)
(0 -0 1.3349e-06)
(0 -0 2.37019e-06)
(0 -0 3.05105e-06)
(0 -0 3.62393e-06)
(0 -0 3.67958e-06)
(0 3.33414e-20 -0.0177174)
(0 -0 -0.012175)
(0 -0 -0.00748654)
(0 -0 -0.00400423)
(0 -0 -0.00198756)
(0 -0 -0.00104948)
(0 -0 -0.000659237)
(0 -0 -0.000466293)
(0 -0 -0.000329097)
(0 -0 -0.00021833)
(0 -0 -0.000135529)
(0 -0 -8.03477e-05)
(0 -0 -4.68449e-05)
(0 -0 -2.75995e-05)
(0 -0 -1.66698e-05)
(0 -0 -1.02736e-05)
(0 -0 -6.31865e-06)
(0 -0 -3.73225e-06)
(0 -0 -1.96278e-06)
(0 -0 -6.69784e-07)
(0 -0 4.57406e-07)
(0 -0 1.57541e-06)
(0 -0 2.23697e-06)
(0 -3.2969e-20 -0.00937809)
(0 -0 -0.0059954)
(0 -0 -0.00308526)
(0 -0 -0.000986331)
(0 -0 2.56684e-05)
(0 -0 0.000260456)
(0 -0 0.00016622)
(0 -0 3.22169e-05)
(0 -0 -4.26274e-05)
(0 -0 -6.18505e-05)
(0 -0 -5.39206e-05)
(0 -0 -3.94172e-05)
(0 -0 -2.70047e-05)
(0 -0 -1.8372e-05)
(0 -0 -1.27243e-05)
(0 -0 -8.96686e-06)
(0 -0 -6.33634e-06)
(0 -0 -4.40093e-06)
(0 -0 -2.92191e-06)
(0 -0 -1.71927e-06)
(0 -0 -5.70389e-07)
(0 -0 6.3815e-07)
(0 -0 1.44873e-06)
(0 -2.55733e-20 -0.00529336)
(0 -0 -0.00305168)
(0 -0 -0.00106251)
(0 -0 0.000349191)
(0 -0 0.000899112)
(0 -0 0.000834091)
(0 -0 0.000539706)
(0 -0 0.000267453)
(0 -0 9.81466e-05)
(0 -0 1.78044e-05)
(0 -0 -1.10098e-05)
(0 -0 -1.70643e-05)
(0 -0 -1.5514e-05)
(0 -0 -1.24334e-05)
(0 -0 -9.61968e-06)
(0 -0 -7.35544e-06)
(0 -0 -5.55332e-06)
(0 -0 -4.10045e-06)
(0 -0 -2.91158e-06)
(0 -0 -1.88532e-06)
(0 -0 -8.41187e-07)
(0 -0 3.18383e-07)
(0 -0 1.13846e-06)
(0 2.54688e-20 -0.00340012)
(0 -0 -0.00175707)
(0 -0 -0.000228961)
(0 -0 0.000862565)
(0 -0 0.00122625)
(0 -0 0.00105895)
(0 -0 0.000700054)
(0 -0 0.000378547)
(0 -0 0.000170139)
(0 -0 6.11577e-05)
(0 -0 1.35784e-05)
(0 -0 -3.58161e-06)
(0 -0 -8.11697e-06)
(0 -0 -8.23483e-06)
(0 -0 -7.10923e-06)
(0 -0 -5.78338e-06)
(0 -0 -4.54707e-06)
(0 -0 -3.46566e-06)
(0 -0 -2.53741e-06)
(0 -0 -1.69982e-06)
(0 -0 -7.90619e-07)
(0 -0 2.82155e-07)
(0 -0 1.06762e-06)
(0 -0 -0.00257919)
(0 -0 -0.00125674)
(0 -0 4.67192e-05)
(0 -0 0.00100186)
(0 -0 0.00131026)
(0 -0 0.00112951)
(0 -0 0.000765196)
(0 -0 0.000433143)
(0 -0 0.000210171)
(0 -0 8.73113e-05)
(0 -0 2.93216e-05)
(0 -0 5.51812e-06)
(0 -0 -2.82563e-06)
(0 -0 -5.00938e-06)
(0 -0 -5.00857e-06)
(0 -0 -4.33482e-06)
(0 -0 -3.51773e-06)
(0 -0 -2.73524e-06)
(0 -0 -2.03328e-06)
(0 -0 -1.3687e-06)
(0 -0 -5.90242e-07)
(0 -0 3.86739e-07)
(0 -0 1.1156e-06)
(0 -1.76978e-20 -0.00226032)
(0 -0 -0.0011189)
(0 -0 7.77352e-05)
(0 -0 0.000984439)
(0 -0 0.00129521)
(0 -0 0.00113668)
(0 -0 0.000789626)
(0 -0 0.000462224)
(0 -0 0.000234961)
(0 -0 0.000104859)
(0 -0 4.04453e-05)
(0 -0 1.22239e-05)
(0 -0 1.24394e-06)
(0 -0 -2.40602e-06)
(0 -0 -3.2202e-06)
(0 -0 -3.03301e-06)
(0 -0 -2.54259e-06)
(0 -0 -2.00216e-06)
(0 -0 -1.48707e-06)
(0 -0 -9.67913e-07)
(0 -0 -3.06718e-07)
(0 -0 5.70945e-07)
(0 -0 1.22672e-06)
(0 1.76249e-20 -0.00216681)
(0 -0 -0.00113627)
(0 -0 1.09738e-05)
(0 -0 0.00090933)
(0 -0 0.00124505)
(0 -0 0.0011202)
(0 -0 0.000797039)
(0 -0 0.000479283)
(0 -0 0.000251822)
(0 -0 0.000117575)
(0 -0 4.88101e-05)
(0 -0 1.74129e-05)
(0 -0 4.48329e-06)
(0 -0 -2.67795e-07)
(0 -0 -1.70177e-06)
(0 -0 -1.89173e-06)
(0 -0 -1.65907e-06)
(0 -0 -1.31021e-06)
(0 -0 -9.42966e-07)
(0 -0 -5.42572e-07)
(0 -0 1.32162e-08)
(0 -0 7.90357e-07)
(0 -0 1.36454e-06)
(0 1.39945e-20 -0.00216974)
(0 -0 -0.00121353)
(0 -0 -8.79157e-05)
(0 -0 0.000819154)
(0 -0 0.00118647)
(0 -0 0.00109644)
(0 -0 0.000797294)
(0 -0 0.000490074)
(0 -0 0.00026397)
(0 -0 0.000127167)
(0 -0 5.52781e-05)
(0 -0 2.14997e-05)
(0 -0 7.08143e-06)
(0 -0 1.48223e-06)
(0 -0 -4.33315e-07)
(0 -0 -9.19181e-07)
(0 -0 -8.88681e-07)
(0 -0 -6.88833e-07)
(0 -0 -4.37519e-07)
(0 -0 -1.3543e-07)
(0 -0 3.25122e-07)
(0 -0 1.00588e-06)
(0 -0 1.49983e-06)
(0 -1.39366e-20 -0.00221118)
(0 -0 -0.00130856)
(0 -0 -0.000190935)
(0 -0 0.000731219)
(0 -0 0.00112991)
(0 -0 0.00107186)
(0 -0 0.000794459)
(0 -0 0.000497143)
(0 -0 0.000272932)
(0 -0 0.000134496)
(0 -0 6.03072e-05)
(0 -0 2.4716e-05)
(0 -0 9.15007e-06)
(0 -0 2.89256e-06)
(0 -0 6.00546e-07)
(0 -0 -1.17074e-07)
(0 -0 -2.43728e-07)
(0 -0 -1.59215e-07)
(0 -0 3.71779e-10)
(0 -0 2.20161e-07)
(0 -0 5.97008e-07)
(0 -0 1.19162e-06)
(0 -0 1.61421e-06)
(0 -0 -0.00226582)
(0 -0 -0.00140353)
(0 -0 -0.000286905)
(0 -0 0.000651902)
(0 -0 0.00107907)
(0 -0 0.00104884)
(0 -0 0.000790257)
(0 -0 0.00050173)
(0 -0 0.000279538)
(0 -0 0.000140074)
(0 -0 6.41884e-05)
(0 -0 2.72193e-05)
(0 -0 1.07706e-05)
(0 -0 4.0026e-06)
(0 -0 1.418e-06)
(0 -0 5.22028e-07)
(0 -0 2.7593e-07)
(0 -0 2.72159e-07)
(0 -0 3.58503e-07)
(0 -0 5.09685e-07)
(0 -0 8.16463e-07)
(0 -0 1.33913e-06)
(0 -0 1.70236e-06)
(0 -0 -0.00232293)
(0 -0 -0.00149141)
(0 -0 -0.000371987)
(0 -0 0.000582949)
(0 -0 0.00103481)
(0 -0 0.00102811)
(0 -0 0.000785436)
(0 -0 0.000504514)
(0 -0 0.00028431)
(0 -0 0.00014425)
(0 -0 6.71351e-05)
(0 -0 2.91319e-05)
(0 -0 1.20105e-05)
(0 -0 4.85166e-06)
(0 -0 2.04559e-06)
(0 -0 1.01789e-06)
(0 -0 6.8446e-07)
(0 -0 6.13563e-07)
(0 -0 6.4063e-07)
(0 -0 7.36029e-07)
(0 -0 9.88042e-07)
(0 -0 1.45434e-06)
(0 -0 1.77014e-06)
(0 -7.0295e-23 -0.00237802)
(0 -0 -0.00156989)
(0 -0 -0.000445493)
(0 -0 0.000524167)
(0 -0 0.000996891)
(0 -0 0.00100972)
(0 -0 0.000780312)
(0 -0 0.000505905)
(0 -0 0.000287611)
(0 -0 0.000147286)
(0 -0 6.9316e-05)
(0 -0 3.05549e-05)
(0 -0 1.29325e-05)
(0 -0 5.48375e-06)
(0 -0 2.5175e-06)
(0 -0 1.39714e-06)
(0 -0 1.00129e-06)
(0 -0 8.7885e-07)
(0 -0 8.58919e-07)
(0 -0 9.12714e-07)
(0 -0 1.12576e-06)
(0 -0 1.54984e-06)
(0 -0 1.8296e-06)
(0 -3.9134e-21 -0.00242933)
(0 -0 -0.00163863)
(0 -0 -0.000508036)
(0 -0 0.000474608)
(0 -0 0.000964596)
(0 -0 0.000993435)
(0 -0 0.000775008)
(0 -0 0.000506176)
(0 -0 0.000289712)
(0 -0 0.00014939)
(0 -0 7.08678e-05)
(0 -0 3.15764e-05)
(0 -0 1.35967e-05)
(0 -0 5.9428e-06)
(0 -0 2.86564e-06)
(0 -0 1.68195e-06)
(0 -0 1.242e-06)
(0 -0 1.08182e-06)
(0 -0 1.02923e-06)
(0 -0 1.05639e-06)
(0 -0 1.24269e-06)
(0 -0 1.63341e-06)
(0 -0 1.88453e-06)
(0 7.37072e-21 -0.00247625)
(0 -0 -0.00169811)
(0 -0 -0.000560708)
(0 -0 0.000433092)
(0 -0 0.000937119)
(0 -0 0.00097893)
(0 -0 0.000769561)
(0 -0 0.00050552)
(0 -0 0.000290821)
(0 -0 0.000150724)
(0 -0 7.19049e-05)
(0 -0 3.22738e-05)
(0 -0 1.40557e-05)
(0 -0 6.26373e-06)
(0 -0 3.11286e-06)
(0 -0 1.88825e-06)
(0 -0 1.42065e-06)
(0 -0 1.23825e-06)
(0 -0 1.16787e-06)
(0 -0 1.179e-06)
(0 -0 1.34387e-06)
(0 -0 1.70402e-06)
(0 -0 1.92785e-06)
(0 -3.45914e-21 -0.00251866)
(0 -0 -0.00174912)
(0 -0 -0.00060471)
(0 -0 0.000398458)
(0 -0 0.000913689)
(0 -0 0.000965895)
(0 -0 0.00076398)
(0 -0 0.000504088)
(0 -0 0.00029111)
(0 -0 0.00015143)
(0 -0 7.25275e-05)
(0 -0 3.27143e-05)
(0 -0 1.43528e-05)
(0 -0 6.47535e-06)
(0 -0 3.28122e-06)
(0 -0 2.03626e-06)
(0 -0 1.55763e-06)
(0 -0 1.3671e-06)
(0 -0 1.28836e-06)
(0 -0 1.28766e-06)
(0 -0 1.43323e-06)
(0 -0 1.76487e-06)
(0 -0 1.96035e-06)
(0 -0 -0.00255668)
(0 -0 -0.00179253)
(0 -0 -0.000641174)
(0 -0 0.000369671)
(0 -0 0.000893641)
(0 -0 0.000954067)
(0 -0 0.000758277)
(0 -0 0.000502015)
(0 -0 0.000290735)
(0 -0 0.000151638)
(0 -0 7.28303e-05)
(0 -0 3.29626e-05)
(0 -0 1.45342e-05)
(0 -0 6.61585e-06)
(0 -0 3.40617e-06)
(0 -0 2.1593e-06)
(0 -0 1.68191e-06)
(0 -0 1.49016e-06)
(0 -0 1.40609e-06)
(0 -0 1.3966e-06)
(0 -0 1.528e-06)
(0 -0 1.83491e-06)
(0 -0 1.99804e-06)
(0 -3.79502e-23 -0.00259052)
(0 -0 -0.00182913)
(0 -0 -0.000671094)
(0 -0 0.000345858)
(0 -0 0.000876432)
(0 -0 0.000943248)
(0 -0 0.000752489)
(0 -0 0.000499443)
(0 -0 0.00028985)
(0 -0 0.000151477)
(0 -0 7.2909e-05)
(0 -0 3.309e-05)
(0 -0 1.46594e-05)
(0 -0 6.73919e-06)
(0 -0 3.5364e-06)
(0 -0 2.29866e-06)
(0 -0 1.82627e-06)
(0 -0 1.63383e-06)
(0 -0 1.54647e-06)
(0 -0 1.53391e-06)
(0 -0 1.65768e-06)
(0 -0 1.94226e-06)
(0 -0 2.06735e-06)
(0 -0 -0.00262037)
(0 -0 -0.00185963)
(0 -0 -0.000695314)
(0 -0 0.000326298)
(0 -0 0.000861629)
(0 -0 0.000933302)
(0 -0 0.000746675)
(0 -0 0.000496512)
(0 -0 0.000288601)
(0 -0 0.000151063)
(0 -0 7.28503e-05)
(0 -0 3.31651e-05)
(0 -0 1.47866e-05)
(0 -0 6.89474e-06)
(0 -0 3.71173e-06)
(0 -0 2.48564e-06)
(0 -0 2.01669e-06)
(0 -0 1.82321e-06)
(0 -0 1.73557e-06)
(0 -0 1.72403e-06)
(0 -0 1.84305e-06)
(0 -0 2.11234e-06)
(0 -0 2.21638e-06)
(0 1.81797e-21 -0.00264646)
(0 -0 -0.0018847)
(0 -0 -0.00071457)
(0 -0 0.000310382)
(0 -0 0.000848884)
(0 -0 0.00092413)
(0 -0 0.000740891)
(0 -0 0.000493333)
(0 -0 0.000287091)
(0 -0 0.00015047)
(0 -0 7.27036e-05)
(0 -0 3.32206e-05)
(0 -0 1.49352e-05)
(0 -0 7.09067e-06)
(0 -0 3.93236e-06)
(0 -0 2.71675e-06)
(0 -0 2.24953e-06)
(0 -0 2.05488e-06)
(0 -0 1.96678e-06)
(0 -0 1.95439e-06)
(0 -0 2.07283e-06)
(0 -0 2.36172e-06)
(0 -0 2.52494e-06)
(0 -3.37915e-21 -0.00266914)
(0 -0 -0.00190501)
(0 -0 -0.00072959)
(0 -0 0.000297561)
(0 -0 0.000837884)
(0 -0 0.000915626)
(0 -0 0.000735147)
(0 -0 0.000489942)
(0 -0 0.000285336)
(0 -0 0.000149686)
(0 -0 7.24332e-05)
(0 -0 3.32023e-05)
(0 -0 1.50376e-05)
(0 -0 7.25098e-06)
(0 -0 4.11937e-06)
(0 -0 2.91347e-06)
(0 -0 2.44733e-06)
(0 -0 2.25025e-06)
(0 -0 2.15819e-06)
(0 -0 2.14296e-06)
(0 -0 2.27823e-06)
(0 -0 2.64621e-06)
(0 -0 2.90082e-06)
(0 1.56222e-21 -0.00268899)
(0 -0 -0.00192132)
(0 -0 -0.000741095)
(0 -0 0.000287256)
(0 -0 0.000828301)
(0 -0 0.000907632)
(0 -0 0.000729361)
(0 -0 0.000486264)
(0 -0 0.000283237)
(0 -0 0.000148584)
(0 -0 7.18884e-05)
(0 -0 3.29425e-05)
(0 -0 1.49163e-05)
(0 -0 7.19495e-06)
(0 -0 4.09251e-06)
(0 -0 2.89813e-06)
(0 -0 2.43562e-06)
(0 -0 2.23845e-06)
(0 -0 2.14466e-06)
(0 -0 2.13401e-06)
(0 -0 2.3029e-06)
(0 -0 2.75886e-06)
(0 -0 3.2051e-06)
(0 -0 -0.00270599)
(0 -0 -0.00193427)
(0 -0 -0.000749607)
(0 -0 0.000279083)
(0 -0 0.000819877)
(0 -0 0.000900032)
(0 -0 0.000723472)
(0 -0 0.000482237)
(0 -0 0.000280707)
(0 -0 0.000147049)
(0 -0 7.09294e-05)
(0 -0 3.22872e-05)
(0 -0 1.44103e-05)
(0 -0 6.75929e-06)
(0 -0 3.68965e-06)
(0 -0 2.51246e-06)
(0 -0 2.06238e-06)
(0 -0 1.87619e-06)
(0 -0 1.79389e-06)
(0 -0 1.80176e-06)
(0 -0 2.01058e-06)
(0 -0 2.53196e-06)
(0 -0 3.07321e-06)
(0 -0 -0.00194336)
(0 -0 -0.000755375)
(0 -0 0.000272871)
(0 -0 0.000812601)
(0 -0 0.000892908)
(0 -0 0.000717632)
(0 -0 0.000478035)
(0 -0 0.000277908)
(0 -0 0.000145215)
(0 -0 6.96684e-05)
(0 -0 3.13307e-05)
(0 -0 1.36034e-05)