/*--------------------------------*- C++ -*----------------------------------*\
| =========                 |                                                 |
| \\      /  F ield         | OpenFOAM: The Open Source CFD Toolbox           |
|  \\    /   O peration     | Version:  2412                                  |
|   \\  /    A nd           | Website:  www.openfoam.com                      |
|    \\/     M anipulation  |                                                 |
\*---------------------------------------------------------------------------*/
FoamFile
{
    version     2.0;
    format      ascii;
    arch        "LSB;label=32;scalar=64";
    class       volVectorField;
    location    "4.5";
    object      U;
}
// * * * * * * * * * * * * * * * * * * * * * * * * * * * * * * * * * * * * * //

dimensions      [0 1 -1 0 0 0 0];

internalField   nonuniform List<vector> 
5285
(
(0.0990973 0.00297607 0)
(0.0991142 0.00307379 0)
(0.0991339 0.00317443 0)
(0.0991568 0.00327802 0)
(0.0991829 0.00338465 0)
(0.0992127 0.00349444 0)
(0.0992464 0.00360756 0)
(0.0992843 0.00372419 0)
(0.0993268 0.00384448 0)
(0.0993743 0.00396851 0)
(0.0994271 0.00409631 0)
(0.0994858 0.00422781 0)
(0.0995507 0.00436292 0)
(0.0996224 0.00450147 0)
(0.0997015 0.00464327 0)
(0.0997884 0.00478811 0)
(0.0991921 0.00295891 0)
(0.0992121 0.00305386 0)
(0.099235 0.0031515 0)
(0.0992611 0.00325185 0)
(0.0992905 0.00335497 0)
(0.0993235 0.00346097 0)
(0.0993606 0.00357001 0)
(0.0994018 0.00368223 0)
(0.0994476 0.00379775 0)
(0.0994984 0.00391662 0)
(0.0995545 0.00403884 0)
(0.0996164 0.00416433 0)
(0.0996844 0.00429295 0)
(0.0997591 0.00442452 0)
(0.0998409 0.00455884 0)
(0.0999304 0.00469566 0)
(0.0992842 0.00293879 0)
(0.0993071 0.00303091 0)
(0.0993329 0.0031255 0)
(0.0993619 0.00322256 0)
(0.0993943 0.00332215 0)
(0.0994304 0.00342436 0)
(0.0994704 0.00352931 0)
(0.0995147 0.00363712 0)
(0.0995635 0.00374789 0)
(0.0996171 0.00386165 0)
(0.0996761 0.00397836 0)
(0.0997407 0.00409793 0)
(0.0998114 0.00422019 0)
(0.0998886 0.00434495 0)
(0.0999727 0.00447199 0)
(0.100064 0.00460103 0)
(0.0993736 0.00291591 0)
(0.0993991 0.00300517 0)
(0.0994277 0.00309668 0)
(0.0994594 0.00319044 0)
(0.0994945 0.00328649 0)
(0.0995333 0.00338489 0)
(0.099576 0.00348577 0)
(0.0996229 0.0035892 0)
(0.0996743 0.00369527 0)
(0.0997306 0.00380399 0)
(0.099792 0.00391528 0)
(0.099859 0.00402904 0)
(0.0999319 0.00414509 0)
(0.100011 0.00426322 0)
(0.100097 0.00438319 0)
(0.10019 0.00450472 0)
(0.0994602 0.00289049 0)
(0.0994882 0.00297686 0)
(0.0995192 0.00306528 0)
(0.0995533 0.00315573 0)
(0.0995909 0.00324824 0)
(0.0996322 0.00334286 0)
(0.0996773 0.00343969 0)
(0.0997266 0.0035388 0)
(0.0997803 0.00364023 0)
(0.0998388 0.00374399 0)
(0.0999023 0.00384998 0)
(0.0999713 0.00395807 0)
(0.100046 0.00406807 0)
(0.100127 0.00417976 0)
(0.100214 0.00429288 0)
(0.100309 0.00440717 0)
(0.099544 0.00286272 0)
(0.0995742 0.00294619 0)
(0.0996075 0.00303152 0)
(0.0996439 0.00311867 0)
(0.0996837 0.00320766 0)
(0.0997271 0.00329854 0)
(0.0997744 0.00339137 0)
(0.0998257 0.00348621 0)
(0.0998815 0.0035831 0)
(0.0999418 0.00368199 0)
(0.100007 0.00378279 0)
(0.100078 0.00388536 0)
(0.100154 0.0039895 0)
(0.100236 0.00409496 0)
(0.100325 0.00420149 0)
(0.10042 0.00430881 0)
(0.099625 0.00283281 0)
(0.0996573 0.00291339 0)
(0.0996926 0.00299564 0)
(0.099731 0.00307951 0)
(0.0997728 0.00316501 0)
(0.0998182 0.00325219 0)
(0.0998673 0.00334108 0)
(0.0999205 0.00343173 0)
(0.0999779 0.00352416 0)
(0.10004 0.0036183 0)
(0.100107 0.00371406 0)
(0.100179 0.00381127 0)
(0.100256 0.00390973 0)
(0.100339 0.00400918 0)
(0.100428 0.00410936 0)
(0.100524 0.00421 0)
(0.0997033 0.00280094 0)
(0.0997374 0.00287864 0)
(0.0997745 0.00295783 0)
(0.0998148 0.00303846 0)
(0.0998583 0.00312052 0)
(0.0999054 0.00320405 0)
(0.0999562 0.00328907 0)
(0.100011 0.00337563 0)
(0.10007 0.0034637 0)
(0.100133 0.00355323 0)
(0.100201 0.00364409 0)
(0.100274 0.00373611 0)
(0.100352 0.00382907 0)
(0.100436 0.00392274 0)
(0.100525 0.00401683 0)
(0.100621 0.00411108 0)
(0.0997788 0.00276728 0)
(0.0998146 0.00284213 0)
(0.0998534 0.00291829 0)
(0.0998952 0.00299572 0)
(0.0999403 0.00307441 0)
(0.0999889 0.00315435 0)
(0.100041 0.0032356 0)
(0.100097 0.00331815 0)
(0.100157 0.00340198 0)
(0.100222 0.00348702 0)
(0.10029 0.00357314 0)
(0.100364 0.00366015 0)
(0.100443 0.00374783 0)
(0.100527 0.00383594 0)
(0.100617 0.00392421 0)
(0.100712 0.00401235 0)
(0.0998515 0.00273202 0)
(0.0998889 0.00280404 0)
(0.0999291 0.00287723 0)
(0.0999724 0.00295151 0)
(0.100019 0.00302687 0)
(0.100069 0.00310332 0)
(0.100122 0.00318087 0)
(0.100179 0.00325953 0)
(0.10024 0.00333925 0)
(0.100305 0.00341995 0)
(0.100375 0.00350148 0)
(0.100449 0.00358366 0)
(0.100528 0.00366627 0)
(0.100612 0.00374905 0)
(0.100702 0.00383174 0)
(0.100797 0.00391407 0)
(0.0999216 0.0026953 0)
(0.0999603 0.00276455 0)
(0.100002 0.0028348 0)
(0.100046 0.002906 0)
(0.100094 0.00297812 0)
(0.100145 0.00305115 0)
(0.100199 0.00312511 0)
(0.100257 0.00319998 0)
(0.100319 0.00327572 0)
(0.100385 0.00335222 0)
(0.100455 0.00342934 0)
(0.100529 0.00350688 0)
(0.100609 0.00358462 0)
(0.100693 0.00366231 0)
(0.100782 0.00373968 0)
(0.100876 0.00381647 0)
(0.0999889 0.00265729 0)
(0.100029 0.00272381 0)
(0.100072 0.00279119 0)
(0.100117 0.00285937 0)
(0.100166 0.00292832 0)
(0.100218 0.00299803 0)
(0.100273 0.00306851 0)
(0.100331 0.00313972 0)
(0.100394 0.00321161 0)
(0.10046 0.00328407 0)
(0.10053 0.00335694 0)
(0.100605 0.00343002 0)
(0.100684 0.0035031 0)
(0.100768 0.00357592 0)
(0.100856 0.00364823 0)
(0.10095 0.00371977 0)
(0.100054 0.00261812 0)
(0.100095 0.00268196 0)
(0.100138 0.00274653 0)
(0.100185 0.00281178 0)
(0.100234 0.00287765 0)
(0.100287 0.00294414 0)
(0.100343 0.00301124 0)
(0.100402 0.00307892 0)
(0.100465 0.0031471 0)
(0.100531 0.00321567 0)
(0.100601 0.00328446 0)
(0.100676 0.00335328 0)
(0.100755 0.0034219 0)
(0.100838 0.00349009 0)
(0.100926 0.00355758 0)
(0.101018 0.00362413 0)
(0.100115 0.00257793 0)
(0.100157 0.00263915 0)
(0.100202 0.00270099 0)
(0.100249 0.00276337 0)
(0.100299 0.00282626 0)
(0.100353 0.00288964 0)
(0.100409 0.00295348 0)
(0.100468 0.00301775 0)
(0.100531 0.00308237 0)
(0.100598 0.0031472 0)
(0.100668 0.00321209 0)
(0.100742 0.00327684 0)
(0.100821 0.00334121 0)
(0.100903 0.00340498 0)
(0.10099 0.0034679 0)
(0.101081 0.00352972 0)
(0.100175 0.00253683 0)
(0.100217 0.0025955 0)
(0.100263 0.00265468 0)
(0.10031 0.0027143 0)
(0.100361 0.0027743 0)
(0.100415 0.00283468 0)
(0.100471 0.00289539 0)
(0.100531 0.00295638 0)
(0.100594 0.00301758 0)
(0.100661 0.00307884 0)
(0.100731 0.00313999 0)
(0.100804 0.00320084 0)
(0.100882 0.00326116 0)
(0.100964 0.00332073 0)
(0.10105 0.00337932 0)
(0.10114 0.00343668 0)
(0.100231 0.00249496 0)
(0.100274 0.00255114 0)
(0.10032 0.00260774 0)
(0.100368 0.00266468 0)
(0.10042 0.00272191 0)
(0.100474 0.00277939 0)
(0.10053 0.0028371 0)
(0.10059 0.00289496 0)
(0.100653 0.00295288 0)
(0.100719 0.00301072 0)
(0.100789 0.00306831 0)
(0.100862 0.00312545 0)
(0.100939 0.00318191 0)
(0.10102 0.0032375 0)
(0.101104 0.00329197 0)
(0.101193 0.00334511 0)
(0.100284 0.00245241 0)
(0.100328 0.00250619 0)
(0.100374 0.00256029 0)
(0.100423 0.00261464 0)
(0.100475 0.0026692 0)
(0.100529 0.00272391 0)
(0.100586 0.00277874 0)
(0.100646 0.00283361 0)
(0.100708 0.00288841 0)
(0.100774 0.00294299 0)
(0.100843 0.00299718 0)
(0.100916 0.00305078 0)
(0.100992 0.00310358 0)
(0.101071 0.00315538 0)
(0.101155 0.00320596 0)
(0.101242 0.00325511 0)
(0.100335 0.00240931 0)
(0.100379 0.00246074 0)
(0.100426 0.00251243 0)
(0.100475 0.0025643 0)
(0.100527 0.0026163 0)
(0.100581 0.00266837 0)
(0.100638 0.00272045 0)
(0.100697 0.00277247 0)
(0.10076 0.00282429 0)
(0.100825 0.00287576 0)
(0.100894 0.00292671 0)
(0.100965 0.00297694 0)
(0.10104 0.00302626 0)
(0.101119 0.00307447 0)
(0.101201 0.00312137 0)
(0.101286 0.00316676 0)
(0.100383 0.00236576 0)
(0.100427 0.00241492 0)
(0.100474 0.00246429 0)
(0.100524 0.00251377 0)
(0.100576 0.00256332 0)
(0.10063 0.00261286 0)
(0.100686 0.00266234 0)
(0.100746 0.00271164 0)
(0.100808 0.00276062 0)
(0.100873 0.00280914 0)
(0.10094 0.00285701 0)
(0.101011 0.00290405 0)
(0.101085 0.00295006 0)
(0.101162 0.00299487 0)
(0.101243 0.00303828 0)
(0.101327 0.00308012 0)
(0.100429 0.00232187 0)
(0.100474 0.00236885 0)
(0.100521 0.00241597 0)
(0.10057 0.00246316 0)
(0.100622 0.00251037 0)
(0.100676 0.00255751 0)
(0.100733 0.0026045 0)
(0.100791 0.00265122 0)
(0.100853 0.00269752 0)
(0.100917 0.00274323 0)
(0.100984 0.00278817 0)
(0.101054 0.00283217 0)
(0.101127 0.00287505 0)
(0.101203 0.00291664 0)
(0.101282 0.00295676 0)
(0.101364 0.00299526 0)
(0.100591 1.2569e-05 0)
(0.0995949 0.000446059 0)
(0.100105 0.000980471 0)
(0.0998063 0.00122447 0)
(0.0997369 0.00115747 0)
(0.0996863 0.000959189 0)
(0.0996219 0.000774132 0)
(0.0995887 0.000651946 0)
(0.0995633 0.000586389 0)
(0.100591 1.2564e-05 0)
(0.0995949 0.000459237 0)
(0.100104 0.00100976 0)
(0.0998028 0.00126018 0)
(0.0997319 0.00118951 0)
(0.0996808 0.000983483 0)
(0.0996169 0.00079137 0)
(0.0995848 0.000664405 0)
(0.099561 0.000596095 0)
(0.0995407 0.000565388 0)
(0.0995236 0.00055552 0)
(0.0995079 0.000556911 0)
(0.0994928 0.000564923 0)
(0.0994779 0.000577468 0)
(0.099463 0.000593585 0)
(0.099448 0.00061277 0)
(0.0994327 0.00063471 0)
(0.0994172 0.000659178 0)
(0.0994014 0.000686003 0)
(0.0993854 0.000715047 0)
(0.0993692 0.000746204 0)
(0.0993527 0.000779391 0)
(0.0993361 0.000814544 0)
(0.0993194 0.000851615 0)
(0.0993026 0.000890568 0)
(0.0992858 0.000931379 0)
(0.099269 0.00097403 0)
(0.0992524 0.00101851 0)
(0.0992359 0.00106481 0)
(0.0992196 0.00111294 0)
(0.0992036 0.00116288 0)
(0.099188 0.00121463 0)
(0.0991728 0.00126821 0)
(0.099158 0.0013236 0)
(0.0991438 0.00138081 0)
(0.0991302 0.00143984 0)
(0.0991173 0.00150068 0)
(0.0991051 0.00156332 0)
(0.0990938 0.00162776 0)
(0.0990834 0.00169399 0)
(0.0990739 0.00176199 0)
(0.0990655 0.00183175 0)
(0.0990582 0.00190324 0)
(0.0990521 0.00197643 0)
(0.0990472 0.00205132 0)
(0.0990437 0.00212785 0)
(0.0990416 0.002206 0)
(0.0990409 0.00228572 0)
(0.0990418 0.00236698 0)
(0.0990444 0.00244972 0)
(0.0990485 0.00253389 0)
(0.0990545 0.00261942 0)
(0.0990622 0.00270622 0)
(0.0990718 0.0027942 0)
(0.0990834 0.00288324 0)
(0.100591 1.25123e-05 0)
(0.099595 0.000472718 0)
(0.100103 0.00103972 0)
(0.0997991 0.0012966 0)
(0.0997265 0.00122196 0)
(0.0996748 0.00100779 0)
(0.0996114 0.000808264 0)
(0.0995806 0.000676281 0)
(0.0995585 0.00060508 0)
(0.09954 0.00057287 0)
(0.0995248 0.000562286 0)
(0.099511 0.00056339 0)
(0.0994976 0.000571354 0)
(0.0994844 0.000583993 0)
(0.0994712 0.000600289 0)
(0.0994577 0.000619706 0)
(0.0994439 0.00064191 0)
(0.0994299 0.00066666 0)
(0.0994155 0.00069377 0)
(0.0994009 0.000723098 0)
(0.0993861 0.000754529 0)
(0.0993711 0.000787975 0)
(0.0993559 0.000823369 0)
(0.0993407 0.000860658 0)
(0.0993254 0.000899803 0)
(0.0993101 0.000940777 0)
(0.0992949 0.000983559 0)
(0.0992799 0.00102813 0)
(0.0992651 0.00107449 0)
(0.0992506 0.00112263 0)
(0.0992364 0.00117254 0)
(0.0992226 0.00122422 0)
(0.0992092 0.00127767 0)
(0.0991964 0.00133288 0)
(0.0991842 0.00138985 0)
(0.0991727 0.00144857 0)
(0.099162 0.00150903 0)
(0.099152 0.00157123 0)
(0.0991429 0.00163515 0)
(0.0991348 0.00170078 0)
(0.0991278 0.00176809 0)
(0.0991218 0.00183707 0)
(0.099117 0.0019077 0)
(0.0991134 0.00197993 0)
(0.0991111 0.00205375 0)
(0.0991102 0.00212912 0)
(0.0991108 0.00220599 0)
(0.0991129 0.00228432 0)
(0.0991165 0.00236407 0)
(0.0991219 0.00244518 0)
(0.0991289 0.00252759 0)
(0.0991377 0.00261124 0)
(0.0991483 0.00269602 0)
(0.0991608 0.00278185 0)
(0.0991752 0.0028686 0)
(0.100592 1.24099e-05 0)
(0.0995951 0.000486532 0)
(0.100101 0.00107042 0)
(0.099795 0.0013338 0)
(0.0997206 0.00125488 0)
(0.0996682 0.0010321 0)
(0.0996053 0.000824791 0)
(0.0995759 0.000687533 0)
(0.0995556 0.000613301 0)
(0.099539 0.000579526 0)
(0.0995259 0.000568214 0)
(0.099514 0.000569043 0)
(0.0995025 0.000576983 0)
(0.099491 0.000589739 0)
(0.0994794 0.000606236 0)
(0.0994675 0.000625903 0)
(0.0994552 0.000648381 0)
(0.0994427 0.000673415 0)
(0.0994298 0.000700808 0)
(0.0994166 0.000730409 0)
(0.0994032 0.000762098 0)
(0.0993896 0.000795782 0)
(0.0993758 0.000831389 0)
(0.099362 0.000868864 0)
(0.0993482 0.000908166 0)
(0.0993345 0.000949262 0)
(0.0993209 0.000992131 0)
(0.0993075 0.00103675 0)
(0.0992943 0.00108312 0)
(0.0992815 0.00113122 0)
(0.099269 0.00118104 0)
(0.099257 0.00123259 0)
(0.0992456 0.00128584 0)
(0.0992347 0.0013408 0)
(0.0992245 0.00139745 0)
(0.099215 0.0014558 0)
(0.0992063 0.00151581 0)
(0.0991985 0.00157749 0)
(0.0991916 0.00164081 0)
(0.0991858 0.00170576 0)
(0.099181 0.00177232 0)
(0.0991774 0.00184045 0)
(0.0991749 0.00191013 0)
(0.0991738 0.00198132 0)
(0.099174 0.002054 0)
(0.0991757 0.00212811 0)
(0.0991788 0.00220363 0)
(0.0991835 0.00228049 0)
(0.0991898 0.00235866 0)
(0.0991977 0.00243806 0)
(0.0992074 0.00251865 0)
(0.0992189 0.00260033 0)
(0.0992322 0.00268303 0)
(0.0992474 0.00276664 0)
(0.0992645 0.00285104 0)
(0.100592 1.22513e-05 0)
(0.0995952 0.000500712 0)
(0.100099 0.00110192 0)
(0.0997905 0.00137185 0)
(0.0997141 0.0012883 0)
(0.099661 0.00105644 0)
(0.0995987 0.000840922 0)
(0.0995708 0.000698117 0)
(0.0995523 0.000620707 0)
(0.0995379 0.00058531 0)
(0.0995269 0.000573263 0)
(0.099517 0.000573839 0)
(0.0995074 0.000581784 0)
(0.0994977 0.00059469 0)
(0.0994878 0.000611416 0)
(0.0994774 0.000631353 0)
(0.0994667 0.000654119 0)
(0.0994556 0.000679442 0)
(0.0994441 0.000707117 0)
(0.0994324 0.000736982 0)
(0.0994203 0.000768914 0)
(0.0994082 0.000802816 0)
(0.0993958 0.000838611 0)
(0.0993835 0.000876243 0)
(0.0993712 0.000915666 0)
(0.0993589 0.000956846 0)
(0.0993469 0.00099976 0)
(0.099335 0.00104439 0)
(0.0993235 0.00109071 0)
(0.0993123 0.00113872 0)
(0.0993016 0.0011884 0)
(0.0992914 0.00123975 0)
(0.0992817 0.00129275 0)
(0.0992727 0.00134739 0)
(0.0992644 0.00140367 0)
(0.0992569 0.00146157 0)
(0.0992503 0.00152107 0)
(0.0992445 0.00158216 0)
(0.0992398 0.00164482 0)
(0.0992361 0.00170902 0)
(0.0992336 0.00177474 0)
(0.0992322 0.00184194 0)
(0.0992321 0.0019106 0)
(0.0992333 0.00198068 0)
(0.0992359 0.00205214 0)
(0.09924 0.00212494 0)
(0.0992455 0.00219903 0)
(0.0992527 0.00227435 0)
(0.0992615 0.00235087 0)
(0.0992719 0.0024285 0)
(0.0992841 0.00250719 0)
(0.0992981 0.00258687 0)
(0.0993139 0.00266743 0)
(0.0993317 0.00274877 0)
(0.0993513 0.00283077 0)
(0.100592 1.20295e-05 0)
(0.0995953 0.000515299 0)
(0.100097 0.00113431 0)
(0.0997855 0.00141084 0)
(0.0997069 0.00132227 0)
(0.0996531 0.00108079 0)
(0.0995914 0.000856621 0)
(0.0995651 0.000707977 0)
(0.0995487 0.00062724 0)
(0.0995365 0.000590169 0)
(0.0995277 0.000577391 0)
(0.09952 0.000577743 0)
(0.0995123 0.000585735 0)
(0.0995045 0.000598829 0)
(0.0994962 0.000615817 0)
(0.0994875 0.00063605 0)
(0.0994783 0.000659121 0)
(0.0994687 0.000684743 0)
(0.0994586 0.000712699 0)
(0.0994483 0.000742823 0)
(0.0994376 0.000774985 0)
(0.0994268 0.000809085 0)
(0.0994159 0.000845045 0)
(0.099405 0.000882804 0)
(0.0993941 0.000922315 0)
(0.0993834 0.000963543 0)
(0.0993728 0.00100646 0)
(0.0993626 0.00105104 0)
(0.0993526 0.00109728 0)
(0.0993431 0.00114515 0)
(0.099334 0.00119464 0)
(0.0993255 0.00124573 0)
(0.0993177 0.00129843 0)
(0.0993105 0.0013527 0)
(0.0993041 0.00140854 0)
(0.0992985 0.00146593 0)
(0.0992938 0.00152486 0)
(0.0992901 0.00158529 0)
(0.0992874 0.00164721 0)
(0.0992858 0.0017106 0)
(0.0992854 0.00177541 0)
(0.0992862 0.00184163 0)
(0.0992883 0.0019092 0)
(0.0992918 0.0019781 0)
(0.0992967 0.00204828 0)
(0.099303 0.0021197 0)
(0.0993109 0.00219229 0)
(0.0993204 0.00226602 0)
(0.0993315 0.00234082 0)
(0.0993444 0.00241664 0)
(0.0993589 0.00249339 0)
(0.0993753 0.002571 0)
(0.0993935 0.00264937 0)
(0.0994135 0.00272841 0)
(0.0994355 0.00280798 0)
(0.100592 1.17336e-05 0)
(0.0995954 0.000530341 0)
(0.100095 0.00116768 0)
(0.09978 0.00145087 0)
(0.0996989 0.00135684 0)
(0.0996443 0.00110516 0)
(0.0995834 0.000871837 0)
(0.0995588 0.000717045 0)
(0.0995447 0.00063283 0)
(0.099535 0.000594042 0)
(0.0995285 0.00058055 0)
(0.0995229 0.000580722 0)
(0.0995173 0.00058881 0)
(0.0995113 0.000602141 0)
(0.0995048 0.000619432 0)
(0.0994977 0.000639991 0)
(0.0994901 0.000663388 0)
(0.0994819 0.000689319 0)
(0.0994733 0.000717559 0)
(0.0994643 0.000747937 0)
(0.099455 0.000780318 0)
(0.0994456 0.000814599 0)
(0.0994361 0.000850699 0)
(0.0994266 0.000888558 0)
(0.0994171 0.000928126 0)
(0.0994078 0.000969367 0)
(0.0993988 0.00101225 0)
(0.09939 0.00105675 0)
(0.0993816 0.00110285 0)
(0.0993737 0.00115053 0)
(0.0993663 0.00119978 0)
(0.0993595 0.00125057 0)
(0.0993534 0.0013029 0)
(0.099348 0.00135675 0)
(0.0993434 0.00141209 0)
(0.0993397 0.00146892 0)
(0.0993369 0.00152721 0)
(0.0993351 0.00158693 0)
(0.0993344 0.00164806 0)
(0.0993348 0.00171056 0)
(0.0993365 0.00177442 0)
(0.0993394 0.00183958 0)
(0.0993436 0.00190601 0)
(0.0993492 0.00197367 0)
(0.0993563 0.00204251 0)
(0.0993648 0.00211249 0)
(0.0993749 0.00218354 0)
(0.0993866 0.00225562 0)
(0.0994 0.00232866 0)
(0.099415 0.0024026 0)
(0.0994318 0.00247737 0)
(0.0994504 0.00255288 0)
(0.0994707 0.00262904 0)
(0.099493 0.00270574 0)
(0.0995171 0.00278286 0)
(0.100593 1.13489e-05 0)
(0.0995956 0.0005459 0)
(0.100092 0.00120215 0)
(0.0997738 0.00149204 0)
(0.09969 0.00139208 0)
(0.0996345 0.00112952 0)
(0.0995745 0.000886509 0)
(0.0995519 0.000725237 0)
(0.0995403 0.000637397 0)
(0.0995332 0.000596862 0)
(0.0995292 0.000582689 0)
(0.0995259 0.00058274 0)
(0.0995224 0.000590988 0)
(0.0995184 0.000604613 0)
(0.0995136 0.000622253 0)
(0.0995081 0.000643174 0)
(0.099502 0.00066692 0)
(0.0994952 0.000693174 0)
(0.099488 0.000721704 0)
(0.0994804 0.000752332 0)
(0.0994725 0.000784921 0)
(0.0994645 0.000819367 0)
(0.0994563 0.000855587 0)
(0.0994482 0.00089352 0)
(0.0994401 0.000933115 0)
(0.0994323 0.000974333 0)
(0.0994247 0.00101714 0)
(0.0994174 0.00106152 0)
(0.0994105 0.00110744 0)
(0.0994042 0.00115489 0)
(0.0993984 0.00120385 0)
(0.0993932 0.00125429 0)
(0.0993888 0.00130621 0)
(0.0993851 0.00135958 0)
(0.0993823 0.00141437 0)
(0.0993804 0.00147058 0)
(0.0993794 0.00152818 0)
(0.0993795 0.00158713 0)
(0.0993807 0.00164741 0)
(0.0993831 0.00170898 0)
(0.0993867 0.00177181 0)
(0.0993916 0.00183587 0)
(0.0993979 0.0019011 0)
(0.0994055 0.00196747 0)
(0.0994147 0.00203492 0)
(0.0994253 0.00210341 0)
(0.0994375 0.00217287 0)
(0.0994513 0.00224326 0)
(0.0994667 0.0023145 0)
(0.0994838 0.00238654 0)
(0.0995027 0.00245929 0)
(0.0995233 0.00253267 0)
(0.0995458 0.00260659 0)
(0.09957 0.00268094 0)
(0.0995961 0.0027556 0)
(0.100593 1.08572e-05 0)
(0.0995958 0.000562056 0)
(0.100089 0.00123786 0)
(0.0997667 0.00153451 0)
(0.0996798 0.00142803 0)
(0.0996235 0.00115384 0)
(0.0995646 0.000900553 0)
(0.0995443 0.000732453 0)
(0.0995355 0.000640846 0)
(0.0995312 0.000598554 0)
(0.0995299 0.000583753 0)
(0.099529 0.00058376 0)
(0.0995276 0.000592246 0)
(0.0995255 0.000606233 0)
(0.0995225 0.000624276 0)
(0.0995187 0.000645599 0)
(0.099514 0.000669722 0)
(0.0995088 0.000696316 0)
(0.0995029 0.000725142 0)
(0.0994967 0.000756018 0)
(0.0994901 0.000788806 0)
(0.0994834 0.000823401 0)
(0.0994766 0.000859721 0)
(0.0994698 0.000897703 0)
(0.0994631 0.000937296 0)
(0.0994567 0.00097846 0)
(0.0994505 0.00102116 0)
(0.0994447 0.00106538 0)
(0.0994393 0.00111109 0)
(0.0994345 0.00115826 0)
(0.0994303 0.00120688 0)
(0.0994267 0.00125693 0)
(0.0994239 0.00130838 0)
(0.0994219 0.00136122 0)
(0.0994208 0.00141542 0)
(0.0994206 0.00147096 0)
(0.0994214 0.00152781 0)
(0.0994233 0.00158594 0)
(0.0994264 0.00164532 0)
(0.0994306 0.00170591 0)
(0.0994361 0.00176767 0)
(0.099443 0.00183057 0)
(0.0994511 0.00189456 0)
(0.0994607 0.00195959 0)
(0.0994718 0.00202561 0)
(0.0994844 0.00209256 0)
(0.0994986 0.0021604 0)
(0.0995143 0.00222906 0)
(0.0995317 0.00229847 0)
(0.0995508 0.00236857 0)
(0.0995716 0.00243928 0)
(0.0995942 0.00251052 0)
(0.0996185 0.00258219 0)
(0.0996446 0.00265418 0)
(0.0996726 0.00272637 0)
(0.100593 1.02368e-05 0)
(0.0995961 0.000578915 0)
(0.100086 0.00127498 0)
(0.0997585 0.00157843 0)
(0.0996683 0.00146476 0)
(0.0996112 0.00117809 0)
(0.0995537 0.000913858 0)
(0.099536 0.000738567 0)
(0.0995303 0.000643066 0)
(0.099529 0.00059903 0)
(0.0995305 0.000583683 0)
(0.0995322 0.000583744 0)
(0.099533 0.000592562 0)
(0.0995329 0.00060699 0)
(0.0995317 0.0006255 0)
(0.0995294 0.00064727 0)
(0.0995263 0.000671802 0)
(0.0995224 0.000698754 0)
(0.099518 0.000727883 0)
(0.099513 0.000759006 0)
(0.0995078 0.000791986 0)
(0.0995024 0.000826716 0)
(0.0994969 0.000863117 0)
(0.0994914 0.000901124 0)
(0.0994861 0.000940687 0)
(0.099481 0.000981767 0)
(0.0994762 0.00102433 0)
(0.0994718 0.00106835 0)
(0.0994679 0.0011138 0)
(0.0994646 0.00116066 0)
(0.0994619 0.0012089 0)
(0.0994599 0.00125851 0)
(0.0994586 0.00130945 0)
(0.0994583 0.00136172 0)
(0.0994588 0.00141528 0)
(0.0994603 0.0014701 0)
(0.0994628 0.00152616 0)
(0.0994665 0.00158342 0)
(0.0994713 0.00164185 0)
(0.0994774 0.00170141 0)
(0.0994847 0.00176206 0)
(0.0994933 0.00182376 0)
(0.0995033 0.00188646 0)
(0.0995148 0.00195011 0)
(0.0995277 0.00201466 0)
(0.0995421 0.00208005 0)
(0.0995582 0.00214623 0)
(0.0995758 0.00221313 0)
(0.099595 0.00228068 0)
(0.0996159 0.00234883 0)
(0.0996385 0.00241748 0)
(0.0996628 0.00248657 0)
(0.0996889 0.00255598 0)
(0.0997168 0.00262562 0)
(0.0997464 0.00269535 0)
(0.100594 9.46518e-06 0)
(0.0995963 0.000596623 0)
(0.100081 0.00131375 0)
(0.0997489 0.00162399 0)
(0.099655 0.00150231 0)
(0.0995972 0.00120217 0)
(0.0995415 0.00092628 0)
(0.0995269 0.000743426 0)
(0.0995246 0.000643927 0)
(0.0995267 0.000598197 0)
(0.0995312 0.000582415 0)
(0.0995355 0.000582655 0)
(0.0995386 0.000591917 0)
(0.0995405 0.000606879 0)
(0.099541 0.000625925 0)
(0.0995404 0.000648194 0)
(0.0995387 0.000673167 0)
(0.0995362 0.000700498 0)
(0.0995331 0.00072994 0)
(0.0995295 0.000761311 0)
(0.0995256 0.000794475 0)
(0.0995214 0.000829327 0)
(0.0995172 0.00086579 0)
(0.0995131 0.000903799 0)
(0.099509 0.000943306 0)
(0.0995053 0.000984272 0)
(0.0995018 0.00102666 0)
(0.0994988 0.00107045 0)
(0.0994963 0.00111561 0)
(0.0994944 0.00116211 0)
(0.0994932 0.00120994 0)
(0.0994927 0.00125906 0)
(0.099493 0.00130946 0)
(0.0994942 0.00136111 0)
(0.0994963 0.00141398 0)
(0.0994995 0.00146805 0)
(0.0995037 0.00152327 0)
(0.099509 0.00157962 0)
(0.0995155 0.00163706 0)
(0.0995232 0.00169555 0)
(0.0995323 0.00175505 0)
(0.0995426 0.00181551 0)
(0.0995544 0.00187688 0)
(0.0995676 0.00193912 0)
(0.0995823 0.00200216 0)
(0.0995985 0.00206596 0)
(0.0996162 0.00213045 0)
(0.0996356 0.00219557 0)
(0.0996565 0.00226126 0)
(0.0996792 0.00232743 0)
(0.0997034 0.00239403 0)
(0.0997294 0.00246095 0)
(0.0997571 0.00252811 0)
(0.0997865 0.0025954 0)
(0.0998176 0.0026627 0)
(0.100595 8.52312e-06 0)
(0.0995964 0.000615383 0)
(0.100076 0.00135444 0)
(0.0997373 0.00167139 0)
(0.0996394 0.00154071 0)
(0.0995812 0.00122596 0)
(0.0995278 0.000937626 0)
(0.0995168 0.000746839 0)
(0.0995185 0.000643279 0)
(0.0995243 0.000595951 0)
(0.099532 0.000579886 0)
(0.099539 0.00058046 0)
(0.0995445 0.000590298 0)
(0.0995483 0.000605898 0)
(0.0995506 0.000625558 0)
(0.0995515 0.00064838 0)
(0.0995513 0.000673832 0)
(0.0995502 0.000701564 0)
(0.0995484 0.000731328 0)
(0.0995461 0.000762948 0)
(0.0995434 0.000796289 0)
(0.0995405 0.000831251 0)
(0.0995375 0.000867757 0)
(0.0995346 0.000905747 0)
(0.0995319 0.000945173 0)
(0.0995294 0.000985996 0)
(0.0995273 0.00102818 0)
(0.0995257 0.00107171 0)
(0.0995245 0.00111654 0)
(0.099524 0.00116265 0)
(0.0995242 0.00121002 0)
(0.0995252 0.00125863 0)
(0.099527 0.00130844 0)
(0.0995297 0.00135944 0)
(0.0995333 0.00141158 0)
(0.099538 0.00146485 0)
(0.0995438 0.0015192 0)
(0.0995507 0.0015746 0)
(0.0995588 0.00163101 0)
(0.0995682 0.00168839 0)
(0.0995789 0.0017467 0)
(0.0995909 0.00180589 0)
(0.0996044 0.0018659 0)
(0.0996192 0.0019267 0)
(0.0996355 0.00198821 0)
(0.0996534 0.0020504 0)
(0.0996728 0.00211318 0)
(0.0996937 0.0021765 0)
(0.0997163 0.0022403 0)
(0.0997405 0.0023045 0)
(0.0997663 0.00236903 0)
(0.0997938 0.0024338 0)
(0.099823 0.00249872 0)
(0.0998538 0.00256368 0)
(0.0998863 0.00262856 0)
(0.100596 7.4025e-06 0)
(0.0995963 0.000635486 0)
(0.100069 0.00139742 0)
(0.0997232 0.00172088 0)
(0.0996211 0.00157996 0)
(0.0995628 0.00124927 0)
(0.0995125 0.000947642 0)
(0.0995059 0.000748576 0)
(0.0995121 0.000640947 0)
(0.0995218 0.000592177 0)
(0.0995329 0.000576032 0)
(0.0995428 0.000577126 0)
(0.0995506 0.000587695 0)
(0.0995564 0.000604049 0)
(0.0995604 0.000624408 0)
(0.0995629 0.000647844 0)
(0.0995641 0.000673813 0)
(0.0995643 0.000701967 0)
(0.0995638 0.000732065 0)
(0.0995627 0.000763934 0)
(0.0995612 0.000797446 0)
(0.0995595 0.000832506 0)
(0.0995578 0.000869039 0)
(0.0995561 0.000906988 0)
(0.0995546 0.000946309 0)
(0.0995534 0.000986963 0)
(0.0995526 0.00102892 0)
(0.0995522 0.00107214 0)
(0.0995524 0.00111661 0)
(0.0995533 0.0011623 0)
(0.0995549 0.00120919 0)
(0.0995572 0.00125724 0)
(0.0995605 0.00130643 0)
(0.0995646 0.00135673 0)
(0.0995697 0.00140811 0)
(0.0995759 0.00146054 0)
(0.0995832 0.00151398 0)
(0.0995917 0.0015684 0)
(0.0996013 0.00162375 0)
(0.0996123 0.00167999 0)
(0.0996245 0.00173708 0)
(0.0996381 0.00179497 0)
(0.0996531 0.0018536 0)
(0.0996695 0.00191293 0)
(0.0996874 0.00197289 0)
(0.0997068 0.00203344 0)
(0.0997277 0.0020945 0)
(0.0997502 0.00215602 0)
(0.0997743 0.00221793 0)
(0.0997999 0.00228016 0)
(0.0998272 0.00234262 0)
(0.099856 0.00240525 0)
(0.0998865 0.00246794 0)
(0.0999187 0.00253059 0)
(0.0999524 0.00259309 0)
(0.100597 6.11674e-06 0)
(0.0995957 0.000657332 0)
(0.10006 0.00144313 0)
(0.0997059 0.00177269 0)
(0.0995993 0.00161997 0)
(0.0995417 0.00127183 0)
(0.0994955 0.000956007 0)
(0.099494 0.000748362 0)
(0.0995052 0.000636739 0)
(0.0995194 0.00058676 0)
(0.0995341 0.000570791 0)
(0.0995468 0.00057263 0)
(0.099557 0.000584106 0)
(0.0995648 0.000601344 0)
(0.0995705 0.000622494 0)
(0.0995744 0.000646603 0)
(0.099577 0.000673129 0)
(0.0995785 0.000701729 0)
(0.0995792 0.000732171 0)
(0.0995793 0.000764291 0)
(0.099579 0.000797967 0)
(0.0995785 0.000833111 0)
(0.099578 0.000869654 0)
(0.0995775 0.000907543 0)
(0.0995772 0.000946735 0)
(0.0995772 0.000987193 0)
(0.0995776 0.00102889 0)
(0.0995785 0.00107179 0)
(0.09958 0.00111587 0)
(0.0995822 0.0011611 0)
(0.0995851 0.00120747 0)
(0.0995888 0.00125493 0)
(0.0995934 0.00130346 0)
(0.0995989 0.00135304 0)
(0.0996055 0.00140362 0)
(0.0996131 0.00145518 0)
(0.0996218 0.00150768 0)
(0.0996318 0.00156108 0)
(0.0996429 0.00161534 0)
(0.0996553 0.00167042 0)
(0.099669 0.00172626 0)
(0.0996841 0.00178282 0)
(0.0997006 0.00184005 0)
(0.0997185 0.00189789 0)
(0.0997378 0.00195629 0)
(0.0997587 0.00201518 0)
(0.099781 0.00207452 0)
(0.0998049 0.00213423 0)
(0.0998304 0.00219424 0)
(0.0998573 0.0022545 0)
(0.0998859 0.00231491 0)
(0.0999161 0.00237541 0)
(0.0999478 0.0024359 0)
(0.0999811 0.00249627 0)
(0.100016 0.00255642 0)
(0.100598 4.71228e-06 0)
(0.0995944 0.000681453 0)
(0.100048 0.00149211 0)
(0.0996847 0.00182709 0)
(0.0995736 0.0016606 0)
(0.0995177 0.00129326 0)
(0.0994766 0.000962325 0)
(0.0994813 0.000745883 0)
(0.0994982 0.000630449 0)
(0.0995171 0.000579585 0)
(0.0995355 0.000564113 0)
(0.0995512 0.00056696 0)
(0.0995637 0.000579539 0)
(0.0995734 0.000597801 0)
(0.0995807 0.000619837 0)
(0.0995861 0.000644683 0)
(0.09959 0.000671806 0)
(0.0995928 0.000700874 0)
(0.0995946 0.00073167 0)
(0.0995959 0.000764039 0)
(0.0995967 0.000797873 0)
(0.0995973 0.00083309 0)
(0.0995979 0.000869627 0)
(0.0995986 0.000907435 0)
(0.0995994 0.000946475 0)
(0.0996006 0.000986713 0)
(0.0996022 0.00102812 0)
(0.0996044 0.00107067 0)
(0.0996071 0.00111433 0)
(0.0996105 0.00115908 0)
(0.0996147 0.00120489 0)
(0.0996197 0.00125173 0)
(0.0996256 0.00129958 0)
(0.0996325 0.0013484 0)
(0.0996404 0.00139815 0)
(0.0996494 0.00144882 0)
(0.0996596 0.00150035 0)
(0.0996709 0.0015527 0)
(0.0996834 0.00160584 0)
(0.0996972 0.00165972 0)
(0.0997123 0.00171429 0)
(0.0997288 0.00176951 0)
(0.0997467 0.00182531 0)
(0.099766 0.00188165 0)
(0.0997867 0.00193847 0)
(0.0998089 0.00199571 0)
(0.0998326 0.00205331 0)
(0.0998578 0.00211121 0)
(0.0998845 0.00216934 0)
(0.0999127 0.00222763 0)
(0.0999425 0.00228601 0)
(0.0999738 0.0023444 0)
(0.100007 0.00240271 0)
(0.100041 0.00246084 0)
(0.100077 0.00251867 0)
(0.1006 3.27548e-06 0)
(0.0995922 0.000708514 0)
(0.100033 0.00154495 0)
(0.0996592 0.00188427 0)
(0.0995439 0.00170161 0)
(0.0994908 0.0013131 0)
(0.0994562 0.000966145 0)
(0.099468 0.000740805 0)
(0.0994912 0.000621873 0)
(0.0995151 0.000570552 0)
(0.0995374 0.000555963 0)
(0.0995559 0.000560119 0)
(0.0995707 0.000574016 0)
(0.0995823 0.00059345 0)
(0.0995912 0.00061647 0)
(0.099598 0.000642117 0)
(0.0996031 0.000669873 0)
(0.099607 0.00069943 0)
(0.09961 0.000730587 0)
(0.0996123 0.000763206 0)
(0.0996142 0.00079719 0)
(0.0996159 0.000832466 0)
(0.0996176 0.00086898 0)
(0.0996194 0.000906687 0)
(0.0996213 0.000945553 0)
(0.0996236 0.000985547 0)
(0.0996264 0.00102664 0)
(0.0996297 0.00106881 0)
(0.0996336 0.00111202 0)
(0.0996383 0.00115626 0)
(0.0996437 0.00120149 0)
(0.09965 0.00124768 0)
(0.0996572 0.00129481 0)
(0.0996653 0.00134285 0)
(0.0996745 0.00139175 0)
(0.0996848 0.00144149 0)
(0.0996963 0.00149202 0)
(0.0997089 0.00154331 0)
(0.0997227 0.00159531 0)
(0.0997379 0.00164797 0)
(0.0997543 0.00170125 0)
(0.0997721 0.0017551 0)
(0.0997913 0.00180947 0)
(0.0998119 0.0018643 0)
(0.0998339 0.00191953 0)
(0.0998573 0.00197511 0)
(0.0998823 0.00203097 0)
(0.0999087 0.00208706 0)
(0.0999365 0.00214331 0)
(0.0999659 0.00219966 0)
(0.0999968 0.00225602 0)
(0.100029 0.00231233 0)
(0.100063 0.00236849 0)
(0.100098 0.0024244 0)
(0.100135 0.00247997 0)
(0.100602 1.92913e-06 0)
(0.0995889 0.000739268 0)
(0.100014 0.00160224 0)
(0.0996295 0.00194435 0)
(0.0995105 0.00174265 0)
(0.0994617 0.00133082 0)
(0.0994349 0.000966995 0)
(0.0994547 0.000732808 0)
(0.0994847 0.000610839 0)
(0.0995138 0.000559591 0)
(0.0995399 0.000546335 0)
(0.0995613 0.000552132 0)
(0.0995783 0.000567576 0)
(0.0995916 0.000588334 0)
(0.0996019 0.000612434 0)
(0.09961 0.000638942 0)