/*--------------------------------*- C++ -*----------------------------------*\
| =========                 |                                                 |
| \\      /  F ield         | OpenFOAM: The Open Source CFD Toolbox           |
|  \\    /   O peration     | Version:  2412                                  |
|   \\  /    A nd           | Website:  www.openfoam.com                      |
|    \\/     M anipulation  |                                                 |
\*---------------------------------------------------------------------------*/
FoamFile
{
    version     2.0;
    format      ascii;
    arch        "LSB;label=32;scalar=64";
    class       surfaceScalarField;
    location    "17";
    object      phi;
}
// * * * * * * * * * * * * * * * * * * * * * * * * * * * * * * * * * * * * * //

dimensions      [0 3 -1 0 0 0 0];

oriented        oriented;

internalField   nonuniform List<scalar> 
10424
(
0.00525686
-0.000123951
0.0052587
-0.000119187
0.0052605
-0.000114523
0.00526226
-0.000109958
0.00526398
-0.000105491
0.00526565
-0.000101122
0.00526728
-9.68516e-05
0.00526886
-9.26802e-05
0.00527039
-8.86083e-05
0.00527187
-8.46363e-05
0.00527329
-8.07645e-05
0.00527467
-7.69933e-05
0.00527599
-7.33229e-05
0.00527726
-6.97535e-05
0.00527848
-6.6285e-05
0.00527964
-6.29175e-05
0.00528076
-5.96511e-05
0.00528182
-5.64855e-05
0.00528283
-5.34206e-05
0.00528378
-5.04563e-05
0.00528469
-4.75921e-05
0.00528555
-4.48277e-05
0.00528637
-4.21627e-05
0.00528713
-3.95965e-05
0.00528786
-3.71285e-05
0.00528853
-3.47581e-05
0.00528917
-3.24844e-05
0.00528976
-3.03066e-05
0.00529032
-2.82238e-05
0.00529083
-2.6235e-05
-2.43393e-05
0.00525823
-0.000125726
0.00525998
-0.000120934
0.0052617
-0.000116239
0.00526338
-0.000111639
0.00526502
-0.000107135
0.00526663
-0.000102726
0.00526819
-9.8413e-05
0.0052697
-9.41973e-05
0.00527117
-9.00795e-05
0.0052726
-8.60604e-05
0.00527397
-8.21404e-05
0.0052753
-7.83203e-05
0.00527658
-7.46004e-05
0.00527781
-7.0981e-05
0.00527898
-6.74624e-05
0.00528011
-6.40449e-05
0.00528119
-6.07285e-05
0.00528222
-5.75134e-05
0.0052832
-5.43995e-05
0.00528413
-5.13867e-05
0.00528501
-4.84748e-05
0.00528584
-4.56635e-05
0.00528663
-4.29526e-05
0.00528738
-4.03416e-05
0.00528808
-3.78299e-05
0.00528874
-3.5417e-05
0.00528936
-3.3102e-05
0.00528994
-3.08843e-05
0.00529047
-2.8763e-05
0.00529098
-2.67371e-05
0.00529144
-2.48057e-05
0.00529188
-2.29675e-05
0.00529227
-2.12215e-05
0.00529264
-1.95666e-05
0.00529298
-1.80015e-05
0.00529329
-1.65247e-05
0.00529358
-1.51351e-05
0.00529384
-1.38311e-05
0.00529407
-1.26116e-05
0.00529428
-1.14752e-05
0.00529448
-1.04208e-05
0.00529465
-9.44751e-06
0.00529481
-8.55411e-06
0.00529495
-7.74076e-06
0.00529508
-7.00559e-06
0.00529519
-6.35165e-06
0.00529529
-5.77344e-06
0.00529539
-5.2833e-06
0.00529547
-4.86164e-06
0.00529555
-4.54979e-06
0.00529563
-4.28222e-06
0.0052957
-4.18399e-06
0.00529577
-4.05868e-06
0.00529585
-4.24835e-06
0.00529592
-4.23101e-06
0.00529601
-4.84703e-06
0.0052961
-4.87127e-06
0.00529622
-6.13361e-06
0.00529633
-6.12022e-06
0.00529651
-8.30343e-06
0.00529666
-8.25995e-06
0.00529692
-1.1558e-05
0.00529713
-1.18488e-05
0.00529752
-1.59927e-05
0.00529785
-1.80067e-05
0.00529841
-2.12753e-05
0.005299
-2.8651e-05
0.00529971
-2.74829e-05
0.00530086
-4.22242e-05
0.00530192
-4.21759e-05
-5.20794e-05
0.00525961
-0.000127406
0.00526127
-0.000122592
0.0052629
-0.000117871
0.00526451
-0.000113241
0.00526608
-0.000108704
0.00526761
-0.000104259
0.0052691
-9.99082e-05
0.00527056
-9.56522e-05
0.00527197
-9.14922e-05
0.00527334
-8.74294e-05
0.00527467
-8.34646e-05
0.00527594
-7.95986e-05
0.00527718
-7.58321e-05
0.00527836
-7.21656e-05
0.0052795
-6.85996e-05
0.00528059
-6.51345e-05
0.00528163
-6.17706e-05
0.00528262
-5.85082e-05
0.00528357
-5.53473e-05
0.00528447
-5.22881e-05
0.00528533
-4.93304e-05
0.00528614
-4.64741e-05
0.00528691
-4.3719e-05
0.00528763
-4.10647e-05
0.00528831
-3.85108e-05
0.00528895
-3.60567e-05
0.00528955
-3.37019e-05
0.00529011
-3.14455e-05
0.00529063
-2.92868e-05
0.00529112
-2.72249e-05
0.00529157
-2.52588e-05
0.00529199
-2.33874e-05
0.00529238
-2.16097e-05
0.00529274
-1.99244e-05
0.00529307
-1.83304e-05
0.00529337
-1.68263e-05
0.00529365
-1.54108e-05
0.0052939
-1.40825e-05
0.00529413
-1.28401e-05
0.00529433
-1.16823e-05
0.00529452
-1.0608e-05
0.00529469
-9.61631e-06
0.00529484
-8.706e-06
0.00529498
-7.87724e-06
0.0052951
-7.12814e-06
0.00529521
-6.46186e-06
0.00529531
-5.87273e-06
0.0052954
-5.37343e-06
0.00529548
-4.94383e-06
0.00529556
-4.62644e-06
0.00529563
-4.35378e-06
0.0052957
-4.25465e-06
0.00529577
-4.12644e-06
0.00529584
-4.32206e-06
0.00529591
-4.3023e-06
0.005296
-4.93566e-06
0.00529609
-4.95437e-06
0.00529621
-6.25345e-06
0.00529631
-6.22548e-06
0.00529648
-8.47701e-06
0.00529663
-8.40243e-06
0.00529689
-1.18168e-05
0.00529709
-1.20529e-05
0.00529748
-1.63815e-05
0.00529779
-1.83201e-05
0.00529836
-2.18419e-05
0.00529892
-2.92146e-05
0.00529965
-2.82067e-05
0.0053008
-4.33731e-05
0.00530182
-4.32024e-05
-5.39194e-05
0.00526101
-0.000128992
0.00526257
-0.000124161
0.00526412
-0.000119419
0.00526565
-0.000114764
0.00526714
-0.000110198
0.0052686
-0.000105722
0.00527003
-0.000101337
0.00527142
-9.70445e-05
0.00527278
-9.2846e-05
0.00527409
-8.8743e-05
0.00527536
-8.47367e-05
0.00527659
-8.08279e-05
0.00527778
-7.70178e-05
0.00527892
-7.3307e-05
0.00528002
-6.96962e-05
0.00528107
-6.6186e-05
0.00528207
-6.2777e-05
0.00528304
-5.94695e-05
0.00528395
-5.62638e-05
0.00528482
-5.31601e-05
0.00528565
-5.01585e-05
0.00528644
-4.72589e-05
0.00528718
-4.44613e-05
0.00528788
-4.17654e-05
0.00528854
-3.91708e-05
0.00528916
-3.66771e-05
0.00528974
-3.42836e-05
0.00529029
-3.19899e-05
0.0052908
-2.9795e-05
0.00529127
-2.76981e-05
0.00529171
-2.56985e-05
0.00529212
-2.37948e-05
0.00529249
-2.19862e-05
0.00529284
-2.02716e-05
0.00529316
-1.86495e-05
0.00529345
-1.71188e-05
0.00529372
-1.56781e-05
0.00529396
-1.43261e-05
0.00529418
-1.30615e-05
0.00529438
-1.18829e-05
0.00529456
-1.07892e-05
0.00529473
-9.77956e-06
0.00529487
-8.85277e-06
0.00529501
-8.00901e-06
0.00529512
-7.24636e-06
0.00529523
-6.56805e-06
0.00529533
-5.96829e-06
0.00529541
-5.4601e-06
0.00529549
-5.02276e-06
0.00529557
-4.70003e-06
0.00529563
-4.42239e-06
0.0052957
-4.32247e-06
0.00529577
-4.19136e-06
0.00529584
-4.39304e-06
0.00529591
-4.37066e-06
0.00529599
-5.02152e-06
0.00529607
-5.03413e-06
0.00529619
-6.37032e-06
0.00529629
-6.3266e-06
0.00529646
-8.64738e-06
0.0052966
-8.53931e-06
0.00529685
-1.20725e-05
0.00529705
-1.22484e-05
0.00529744
-1.67691e-05
0.00529773
-1.86175e-05
0.00529831
-2.24154e-05
0.00529884
-2.97503e-05
0.00529958
-2.89393e-05
0.00530073
-4.45234e-05
0.00530172
-4.41922e-05
-5.57994e-05
0.0052624
-0.000130484
0.00526389
-0.000125642
0.00526535
-0.000120883
0.00526679
-0.000116208
0.00526821
-0.000111618
0.00526961
-0.000107115
0.00527097
-0.000102699
0.0052723
-9.83741e-05
0.00527359
-9.41408e-05
0.00527485
-9.0001e-05
0.00527607
-8.59563e-05
0.00527725
-8.20079e-05
0.00527839
-7.81571e-05
0.00527949
-7.44047e-05
0.00528054
-7.07518e-05
0.00528156
-6.71991e-05
0.00528253
-6.37473e-05
0.00528345
-6.0397e-05
0.00528434
-5.71485e-05
0.00528518
-5.40024e-05
0.00528598
-5.09588e-05
0.00528674
-4.80178e-05
0.00528746
-4.51794e-05
0.00528814
-4.24434e-05
0.00528877
-3.98096e-05
0.00528937
-3.72777e-05
0.00528994
-3.4847e-05
0.00529047
-3.25171e-05
0.00529096
-3.02873e-05
0.00529142
-2.81567e-05
0.00529184
-2.61245e-05
0.00529224
-2.41896e-05
0.0052926
-2.23511e-05
0.00529294
-2.06078e-05
0.00529325
-1.89586e-05
0.00529353
-1.74021e-05
0.00529379
-1.5937e-05
0.00529403
-1.45619e-05
0.00529424
-1.32756e-05
0.00529443
-1.20768e-05
0.00529461
-1.09642e-05
0.00529477
-9.93718e-06
0.00529491
-8.99436e-06
0.00529503
-8.13601e-06
0.00529515
-7.36016e-06
0.00529525
-6.67016e-06
0.00529534
-6.06007e-06
0.00529543
-5.54324e-06
0.0052955
-5.09839e-06
0.00529557
-4.7705e-06
0.00529564
-4.48799e-06
0.0052957
-4.38743e-06
0.00529576
-4.25341e-06
0.00529583
-4.46125e-06
0.0052959
-4.43604e-06
0.00529598
-5.10455e-06
0.00529606
-5.11051e-06
0.00529617
-6.48417e-06
0.00529627
-6.42351e-06
0.00529643
-8.81446e-06
0.00529657
-8.67047e-06
0.00529682
-1.23248e-05
0.005297
-1.24351e-05
0.00529739
-1.71554e-05
0.00529767
-1.88983e-05
0.00529825
-2.29965e-05
0.00529876
-3.0256e-05
0.0052995
-2.9682e-05
0.00530065
-4.56749e-05
0.0053016
-4.514e-05
-5.77185e-05
0.00526381
-0.000131884
0.0052652
-0.000127034
0.00526658
-0.000122264
0.00526795
-0.000117573
0.00526929
-0.000112963
0.00527061
-0.000108437
0.00527191
-0.000103995
0.00527318
-9.96408e-05
0.00527441
-9.53762e-05
0.00527561
-9.12031e-05
0.00527678
-8.71233e-05
0.00527791
-8.31384e-05
0.005279
-7.92497e-05
0.00528006
-7.54586e-05
0.00528107
-7.17661e-05
0.00528205
-6.81734e-05
0.00528298
-6.46812e-05
0.00528387
-6.12902e-05
0.00528473
-5.80013e-05
0.00528554
-5.48147e-05
0.00528631
-5.1731e-05
0.00528704
-4.87504e-05
0.00528774
-4.58729e-05
0.00528839
-4.30985e-05
0.00528901
-4.04271e-05
0.00528959
-3.78583e-05
0.00529014
-3.53919e-05
0.00529065
-3.30271e-05
0.00529112
-3.07635e-05
0.00529156
-2.86002e-05
0.00529198
-2.65366e-05
0.00529236
-2.45715e-05
0.00529271
-2.2704e-05
0.00529304
-2.09331e-05
0.00529334
-1.92575e-05
0.00529361
-1.76759e-05
0.00529386
-1.61871e-05
0.00529409
-1.47897e-05
0.00529429
-1.34824e-05
0.00529448
-1.22639e-05
0.00529465
-1.11331e-05
0.0052948
-1.00891e-05
0.00529494
-9.13069e-06
0.00529506
-8.25815e-06
0.00529517
-7.46949e-06
0.00529527
-6.76814e-06
0.00529536
-6.14801e-06
0.00529544
-5.62282e-06
0.00529551
-5.17066e-06
0.00529558
-4.8378e-06
0.00529564
-4.55055e-06
0.0052957
-4.44948e-06
0.00529576
-4.31254e-06
0.00529582
-4.52664e-06
0.00529589
-4.49839e-06
0.00529597
-5.1847e-06
0.00529604
-5.18344e-06
0.00529615
-6.59495e-06
0.00529624
-6.51614e-06
0.00529641
-8.97816e-06
0.00529653
-8.79583e-06
0.00529678
-1.25738e-05
0.00529696
-1.2613e-05
0.00529734
-1.75403e-05
0.00529761
-1.9162e-05
0.0052982
-2.35859e-05
0.00529867
-3.07293e-05
0.00529942
-3.0436e-05
0.00530058
-4.68272e-05
0.00530148
-4.60399e-05
-5.96757e-05
0.00526522
-0.00013319
0.00526652
-0.000128339
0.00526782
-0.000123562
0.00526911
-0.000118859
0.00527038
-0.000114234
0.00527163
-0.000109688
0.00527286
-0.000105224
0.00527406
-0.000100845
0.00527524
-9.65523e-05
0.00527638
-9.23492e-05
0.0052775
-8.82375e-05
0.00527858
-8.4219e-05
0.00527962
-8.02954e-05
0.00528063
-7.64683e-05
0.00528161
-7.27389e-05
0.00528254
-6.91086e-05
0.00528344
-6.55783e-05
0.0052843
-6.21491e-05
0.00528512
-5.88217e-05
0.0052859
-5.55968e-05
0.00528664
-5.24749e-05
0.00528735
-4.94564e-05
0.00528802
-4.65416e-05
0.00528865
-4.37304e-05
0.00528925
-4.10229e-05
0.00528981
-3.84188e-05
0.00529033
-3.59179e-05
0.00529083
-3.35196e-05
0.00529129
-3.12234e-05
0.00529171
-2.90287e-05
0.00529211
-2.69347e-05
0.00529248
-2.49404e-05
0.00529282
-2.30449e-05
0.00529314
-2.12472e-05
0.00529342
-1.95461e-05
0.00529369
-1.79403e-05
0.00529393
-1.64285e-05
0.00529415
-1.50095e-05
0.00529435
-1.36818e-05
0.00529453
-1.24442e-05
0.00529469
-1.12956e-05
0.00529484
-1.02352e-05
0.00529497
-9.26169e-06
0.00529509
-8.37539e-06
0.00529519
-7.57429e-06
0.00529529
-6.86194e-06
0.00529537
-6.23207e-06
0.00529545
-5.69878e-06
0.00529551
-5.23953e-06
0.00529558
-4.90191e-06
0.00529564
-4.61003e-06
0.0052957
-4.50857e-06
0.00529575
-4.36872e-06
0.00529582
-4.58918e-06
0.00529587
-4.55767e-06
0.00529595
-5.26193e-06
0.00529602
-5.25288e-06
0.00529613
-6.70259e-06
0.00529622
-6.60442e-06
0.00529638
-9.13843e-06
0.0052965
-8.91531e-06
0.00529674
-1.28192e-05
0.00529691
-1.27818e-05
0.00529729
-1.79237e-05
0.00529754
-1.94079e-05
0.00529814
-2.41841e-05
0.00529858
-3.1168e-05
0.00529934
-3.12029e-05
0.0053005
-4.79803e-05
0.00530134
-4.68861e-05
-6.16697e-05
0.00526663
-0.000134406
0.00526785
-0.000129557
0.00526906
-0.000124777
0.00527027
-0.000120067
0.00527147
-0.000115431
0.00527265
-0.000110869
0.00527381
-0.000106387
0.00527495
-0.000101986
0.00527607
-9.7669e-05
0.00527716
-9.34391e-05
0.00527822
-8.92986e-05
0.00527925
-8.52496e-05
0.00528025
-8.1294e-05
0.00528121
-7.74336e-05
0.00528214
-7.36699e-05
0.00528304
-7.00045e-05
0.0052839
-6.64385e-05
0.00528472
-6.29732e-05
0.00528551
-5.96095e-05
0.00528626
-5.63483e-05
0.00528698
-5.31902e-05
0.00528766
-5.01357e-05
0.0052883
-4.71852e-05
0.00528891
-4.43389e-05
0.00528948
-4.15968e-05
0.00529002
-3.89589e-05
0.00529053
-3.64249e-05
0.00529101
-3.39944e-05
0.00529145
-3.16669e-05
0.00529186
-2.94419e-05
0.00529225
-2.73186e-05
0.0052926
-2.52961e-05
0.00529293
-2.33736e-05
0.00529323
-2.15501e-05
0.00529351
-1.98243e-05
0.00529377
-1.8195e-05
0.005294
-1.6661e-05
0.00529421
-1.5221e-05
0.0052944
-1.38736e-05
0.00529458
-1.26176e-05
0.00529473
-1.14518e-05
0.00529487
-1.03754e-05
0.005295
-9.38729e-06
0.00529511
-8.48766e-06
0.00529521
-7.67452e-06
0.0052953
-6.9515e-06
0.00529538
-6.31221e-06
0.00529545
-5.77108e-06
0.00529552
-5.30498e-06
0.00529558
-4.96277e-06
0.00529564
-4.6664e-06
0.00529569
-4.56469e-06
0.00529574
-4.42191e-06
0.0052958
-4.64883e-06
0.00529586
-4.61386e-06
0.00529593
-5.3362e-06
0.005296
-5.3188e-06
0.0052961
-6.80706e-06
0.00529619
-6.68831e-06
0.00529635
-9.29517e-06
0.00529646
-9.02884e-06
0.0052967
-1.30609e-05
0.00529686
-1.29414e-05
0.00529724
-1.83056e-05
0.00529747
-1.96357e-05
0.00529808
-2.47918e-05
0.00529848
-3.15697e-05
0.00529926
-3.19838e-05
0.00530041
-4.91337e-05
0.0053012
-4.76728e-05
-6.36985e-05
0.00526804
-0.000135531
0.00526917
-0.000130689
0.0052703
-0.00012591
0.00527143
-0.000121198
0.00527256
-0.000116553
0.00527367
-0.000111981
0.00527476
-0.000107483
0.00527584
-0.000103064
0.0052769
-9.87262e-05
0.00527793
-9.44729e-05
0.00527894
-9.03067e-05
0.00527992
-8.62301e-05
0.00528087
-8.22453e-05
0.00528179
-7.83543e-05
0.00528268
-7.45589e-05
0.00528354
-7.08609e-05
0.00528436
-6.72616e-05
0.00528515
-6.37624e-05
0.00528591
-6.03646e-05
0.00528663
-5.7069e-05
0.00528731
-5.38766e-05
0.00528797
-5.07879e-05
0.00528858
-4.78035e-05
0.00528917
-4.49238e-05
0.00528972
-4.21487e-05
0.00529024
-3.94784e-05
0.00529073
-3.69127e-05
0.00529119
-3.44513e-05
0.00529161
-3.20937e-05
0.00529201
-2.98396e-05
0.00529238
-2.76881e-05
0.00529272
-2.56386e-05
0.00529304
-2.369e-05
0.00529333
-2.18415e-05
0.0052936
-2.00919e-05
0.00529384
-1.844e-05
0.00529407
-1.68846e-05
0.00529427
-1.54243e-05
0.00529445
-1.40579e-05
0.00529462
-1.2784e-05
0.00529477
-1.16016e-05
0.0052949
-1.05098e-05
0.00529502
-9.50745e-06
0.00529513
-8.59492e-06
0.00529523
-7.77012e-06
0.00529531
-7.0368e-06
0.00529539
-6.38839e-06
0.00529546
-5.83971e-06
0.00529552
-5.36696e-06
0.00529558
-5.02038e-06
0.00529563
-4.71964e-06
0.00529568
-4.61781e-06
0.00529573
-4.4721e-06
0.00529579
-4.70559e-06
0.00529584
-4.66693e-06
0.00529591
-5.40749e-06
0.00529598
-5.38116e-06
0.00529608
-6.90832e-06
0.00529616
-6.76776e-06
0.00529631
-9.44835e-06
0.00529642
-9.13635e-06
0.00529666
-1.32988e-05
0.00529681
-1.30917e-05
0.00529719
-1.86856e-05
0.0052974
-1.98448e-05
0.00529801
-2.54094e-05
0.00529838
-3.19325e-05
0.00529917
-3.27801e-05
0.00530033
-5.02873e-05
0.00530105
-4.8394e-05
-6.576e-05
0.00526945
-0.000136566
0.00527049
-0.000131735
0.00527155
-0.000126962
0.0052726
-0.000122251
0.00527365
-0.000117603
0.00527469
-0.000113022
0.00527572
-0.000108513
0.00527674
-0.000104079
0.00527773
-9.9724e-05
0.00527871
-9.54504e-05
0.00527967
-9.12617e-05
0.0052806
-8.71604e-05
0.0052815
-8.31492e-05
0.00528238
-7.92303e-05
0.00528322
-7.54058e-05
0.00528404
-7.16776e-05
0.00528483
-6.80473e-05
0.00528558
-6.45165e-05
0.0052863
-6.10866e-05
0.00528699
-5.77588e-05
0.00528765
-5.45339e-05
0.00528827
-5.1413e-05
0.00528887
-4.83964e-05
0.00528943
-4.54848e-05
0.00528996
-4.26784e-05
0.00529046
-3.99772e-05
0.00529092
-3.73812e-05
0.00529136
-3.48901e-05
0.00529177
-3.25038e-05
0.00529216
-3.02217e-05
0.00529251
-2.80432e-05
0.00529284
-2.59676e-05
0.00529314
-2.3994e-05
0.00529342
-2.21215e-05
0.00529368
-2.0349e-05
0.00529392
-1.86753e-05
0.00529413
-1.70992e-05
0.00529433
-1.56193e-05
0.0052945
-1.42345e-05
0.00529466
-1.29434e-05
0.0052948
-1.17448e-05
0.00529493
-1.06382e-05
0.00529505
-9.62214e-06
0.00529515
-8.69714e-06
0.00529524
-7.86108e-06
0.00529532
-7.1178e-06
0.00529539
-6.46059e-06
0.00529546
-5.90464e-06
0.00529552
-5.42548e-06
0.00529557
-5.07472e-06
0.00529562
-4.76973e-06
0.00529567
-4.66792e-06
0.00529572
-4.51928e-06
0.00529577
-4.75942e-06
0.00529582
-4.71686e-06
0.00529589
-5.47579e-06
0.00529595
-5.43994e-06
0.00529605
-7.00634e-06
0.00529612
-6.84274e-06
0.00529627
-9.5979e-06
0.00529637
-9.23781e-06
0.00529661
-1.35329e-05
0.00529675
-1.32328e-05
0.00529713
-1.90637e-05
0.00529732
-2.0035e-05
0.00529795
-2.60372e-05
0.00529827
-3.22546e-05
0.00529908
-3.35927e-05
0.00530023
-5.14407e-05
0.00530088
-4.90445e-05
-6.78513e-05
0.00527085
-0.000137513
0.00527182
-0.000132697
0.00527279
-0.000127934
0.00527376
-0.000123227
0.00527474
-0.000118579
0.00527571
-0.000113995
0.00527668
-0.000109478
0.00527763
-0.000105032
0.00527857
-0.000100663
0.00527949
-9.63719e-05
0.00528039
-9.21635e-05
0.00528127
-8.80405e-05
0.00528213
-8.40057e-05
0.00528296
-8.00616e-05
0.00528376
-7.62104e-05
0.00528454
-7.24544e-05
0.00528529
-6.87955e-05
0.00528601
-6.52354e-05
0.0052867
-6.17756e-05
0.00528735
-5.84174e-05
0.00528798
-5.51621e-05
0.00528858
-5.20106e-05
0.00528915
-4.89637e-05
0.00528969
-4.60219e-05
0.00529019
-4.31856e-05
0.00529067
-4.0455e-05
0.00529112
-3.78301e-05
0.00529154
-3.53109e-05
0.00529193
-3.2897e-05
0.0052923
-3.05881e-05
0.00529264
-2.83837e-05
0.00529296
-2.62831e-05
0.00529325
-2.42854e-05
0.00529352
-2.23898e-05
0.00529376
-2.05953e-05
0.00529399
-1.89006e-05
0.00529419
-1.73046e-05
0.00529438
-1.5806e-05
0.00529455
-1.44034e-05
0.0052947
-1.30956e-05
0.00529484
-1.18816e-05
0.00529496
-1.07606e-05
0.00529507
-9.73133e-06
0.00529517
-8.7943e-06
0.00529525
-7.94737e-06
0.00529533
-7.19451e-06
0.0052954
-6.52881e-06
0.00529546
-5.96586e-06
0.00529551
-5.48052e-06
0.00529556
-5.12578e-06
0.00529561
-4.81667e-06
0.00529566
-4.71501e-06
0.0052957
-4.56344e-06
0.00529575
-4.81033e-06
0.0052958
-4.76366e-06
0.00529587
-5.54108e-06
0.00529592
-5.49512e-06
0.00529602
-7.1011e-06
0.00529609
-6.91322e-06
0.00529623
-9.74378e-06
0.00529633
-9.33319e-06
0.00529656
-1.37629e-05
0.00529669
-1.33646e-05
0.00529706
-1.94397e-05
0.00529724
-2.0206e-05
0.00529787
-2.66753e-05
0.00529815
-3.25344e-05
0.00529898
-3.44222e-05
0.00530014
-5.25932e-05
0.00530071
-4.96196e-05
-6.99692e-05
0.00527225
-0.000138372
0.00527313
-0.000133575
0.00527402
-0.000128826
0.00527492
-0.000124127
0.00527583
-0.000119483
0.00527673
-0.000114898
0.00527763
-0.000110376
0.00527852
-0.000105923
0.0052794
-0.000101542
0.00528027
-9.72372e-05
0.00528111
-9.30122e-05
0.00528194
-8.88704e-05
0.00528275
-8.48146e-05
0.00528354
-8.08479e-05
0.0052843
-7.69727e-05
0.00528504
-7.31914e-05
0.00528575
-6.95061e-05
0.00528643
-6.59188e-05
0.00528709
-6.24312e-05
0.00528772
-5.90448e-05
0.00528832
-5.5761e-05
0.00528889
-5.25808e-05
0.00528943
-4.95053e-05
0.00528994
-4.65349e-05
0.00529042
-4.36704e-05
0.00529088
-4.09118e-05
0.00529131
-3.82595e-05
0.00529171
-3.57133e-05
0.00529209
-3.32732e-05
0.00529244
-3.09387e-05
0.00529277
-2.87095e-05
0.00529307
-2.6585e-05
0.00529335
-2.45643e-05
0.0052936
-2.26466e-05
0.00529384
-2.08309e-05
0.00529405
-1.91161e-05
0.00529425
-1.75009e-05
0.00529443
-1.59842e-05
0.00529459
-1.45645e-05
0.00529474
-1.32408e-05
0.00529487
-1.20118e-05
0.00529498
-1.0877e-05
0.00529509
-9.835e-06
0.00529518
-8.88639e-06
0.00529526
-8.02901e-06
0.00529533
-7.26691e-06
0.0052954
-6.59305e-06
0.00529545
-6.02339e-06
0.00529551
-5.53209e-06
0.00529555
-5.17358e-06
0.0052956
-4.86048e-06
0.00529564
-4.75911e-06
0.00529568
-4.60459e-06
0.00529573
-4.85832e-06
0.00529577
-4.80733e-06
0.00529584
-5.60336e-06
0.00529589
-5.54672e-06
0.00529598
-7.1926e-06
0.00529604
-6.9792e-06
0.00529619
-9.88596e-06
0.00529628
-9.42248e-06
0.0052965
-1.39889e-05
0.00529662
-1.3487e-05
0.005297
-1.98131e-05
0.00529715
-2.0358e-05
0.0052978
-2.73234e-05
0.00529804
-3.2771e-05
0.00529888
-3.5269e-05
0.00530003
-5.37443e-05
0.00530053
-5.01157e-05
-7.21102e-05
0.00527365
-0.000139145
0.00527444
-0.000134371
0.00527526
-0.000129639
0.00527608
-0.000124952
0.00527691
-0.000120315
0.00527775
-0.000115733
0.00527858
-0.00011121
0.00527941
-0.000106752
0.00528023
-0.000102363
0.00528104
-9.80467e-05
0.00528184
-9.3808e-05
0.00528262
-8.965e-05
0.00528338
-8.55761e-05
0.00528412
-8.15894e-05
0.00528484
-7.76926e-05
0.00528554
-7.38884e-05
0.00528621
-7.01791e-05
0.00528686
-6.65668e-05
0.00528748
-6.30535e-05
0.00528807
-5.96409e-05
0.00528864
-5.63304e-05
0.00528919
-5.31234e-05
0.0052897
-5.00209e-05
0.00529019
-4.70238e-05
0.00529065
-4.41325e-05
0.00529109
-4.13476e-05
0.0052915
-3.86692e-05
0.00529188
-3.60975e-05
0.00529224
-3.36323e-05
0.00529258
-3.12735e-05
0.00529289
-2.90207e-05
0.00529318
-2.68732e-05
0.00529344
-2.48305e-05
0.00529369
-2.28916e-05
0.00529391
-2.10557e-05
0.00529412
-1.93216e-05
0.00529431
-1.76881e-05
0.00529447
-1.6154e-05
0.00529463
-1.47179e-05
0.00529477
-1.33789e-05
0.00529489
-1.21356e-05
0.005295
-1.09874e-05
0.0052951
-9.93318e-06
0.00529519
-8.97343e-06
0.00529526
-8.10599e-06
0.00529533
-7.33504e-06
0.00529539
-6.65333e-06
0.00529544
-6.07724e-06
0.00529549
-5.58023e-06
0.00529554
-5.21814e-06
0.00529558
-4.90118e-06
0.00529562
-4.80022e-06
0.00529566
-4.64276e-06
0.0052957
-4.90343e-06
0.00529574
-4.8479e-06
0.0052958
-5.66266e-06
0.00529585
-5.59475e-06
0.00529594
-7.28085e-06
0.005296
-7.04069e-06
0.00529614
-1.00244e-05
0.00529622
-9.50568e-06
0.00529644
-1.42106e-05
0.00529656
-1.36003e-05
0.00529693
-2.01837e-05
0.00529706
-2.04911e-05
0.00529772
-2.79809e-05
0.00529791
-3.29642e-05
0.00529878
-3.61327e-05
0.00529992
-5.48931e-05
0.00530034
-5.05303e-05
-7.42698e-05
0.00527503
-0.000139833
0.00527575
-0.000135085
0.00527648
-0.000130373
0.00527723
-0.000125702
0.00527799
-0.000121075
0.00527876
-0.000116499
0.00527953
-0.000111978
0.0052803
-0.000107519
0.00528106
-0.000103124
0.00528181
-9.88004e-05
0.00528255
-9.45508e-05
0.00528328
-9.03795e-05
0.005284
-8.62902e-05
0.00528469
-8.2286e-05
0.00528537
-7.83701e-05
0.00528603
-7.45454e-05
0.00528666
-7.08143e-05
0.00528728
-6.71792e-05
0.00528787
-6.36423e-05
0.00528843
-6.02055e-05
0.00528897
-5.68703e-05
0.00528948
-5.36384e-05
0.00528997
-5.05107e-05
0.00529044
-4.74883e-05
0.00529088
-4.4572e-05
0.00529129
-4.17621e-05
0.00529168
-3.90592e-05
0.00529205
-3.64632e-05
0.00529239
-3.39743e-05
0.00529271
-3.15924e-05
0.00529301
-2.9317e-05
0.00529328
-2.71478e-05
0.00529353
-2.5084e-05
0.00529377
-2.3125e-05
0.00529398
-2.12697e-05
0.00529418
-1.95171e-05
0.00529436
-1.78661e-05
0.00529452
-1.63153e-05
0.00529466
-1.48636e-05
0.00529479
-1.35098e-05
0.00529491
-1.22528e-05
0.00529501
-1.10918e-05
0.00529511
-1.00259e-05
0.00529519
-9.05545e-06
0.00529526
-8.17836e-06
0.00529533
-7.39892e-06
0.00529538
-6.70969e-06
0.00529543
-6.12746e-06
0.00529548
-5.62496e-06
0.00529552
-5.2595e-06
0.00529556
-4.93882e-06
0.00529559
-4.8384e-06
0.00529563
-4.678e-06
0.00529567
-4.94568e-06
0.00529571
-4.88539e-06
0.00529577
-5.71901e-06
0.00529581
-5.63923e-06
0.0052959
-7.36586e-06
0.00529595
-7.0977e-06
0.00529609
-1.01592e-05
0.00529616
-9.58283e-06
0.00529638
-1.4428e-05
0.00529649
-1.37045e-05
0.00529685
-2.05511e-05
0.00529697
-2.06055e-05
0.00529763
-2.86471e-05
0.00529778
-3.31142e-05
0.00529866
-3.70122e-05
0.00529981
-5.60384e-05
0.00530014
-5.08624e-05
-7.64433e-05
0.00527641
-0.000140437
0.00527704
-0.000135718
0.0052777
-0.00013103
0.00527838
-0.000126377
0.00527907
-0.000121765
0.00527977
-0.000117198
0.00528047
-0.000112683
0.00528118
-0.000108224
0.00528188
-0.000103828
0.00528258
-9.94986e-05
0.00528327
-9.52409e-05
0.00528395
-9.10591e-05
0.00528461
-8.69568e-05
0.00528527
-8.29378e-05
0.0052859
-7.90053e-05
0.00528652
-7.51623e-05
0.00528711
-7.14118e-05
0.00528769
-6.77561e-05
0.00528825
-6.41977e-05
0.00528878
-6.07387e-05
0.00528929
-5.73808e-05
0.00528978
-5.41256e-05
0.00529024
-5.09745e-05
0.00529068
-4.79286e-05
0.0052911
-4.49888e-05
0.00529149
-4.21555e-05
0.00529186
-3.94294e-05
0.00529221
-3.68106e-05
0.00529253
-3.42992e-05
0.00529284
-3.18953e-05
0.00529312
-2.95986e-05
0.00529338
-2.74087e-05
0.00529362
-2.53249e-05
0.00529384
-2.33466e-05
0.00529405
-2.14729e-05
0.00529423
-1.97027e-05
0.0052944
-1.80349e-05
0.00529455
-1.64683e-05
0.00529469
-1.50016e-05
0.00529482
-1.36337e-05
0.00529493
-1.23635e-05
0.00529502
-1.11903e-05
0.00529511
-1.01131e-05
0.00529519
-9.13248e-06
0.00529526
-8.24616e-06
0.00529532
-7.4586e-06
0.00529537
-6.76218e-06
0.00529542
-6.17409e-06
0.00529546
-5.66634e-06
0.0052955
-5.29772e-06
0.00529553
-4.97344e-06
0.00529556
-4.87369e-06
0.0052956
-4.71035e-06
0.00529564
-4.98513e-06
0.00529567
-4.91987e-06
0.00529572
-5.77245e-06
0.00529577
-5.68022e-06
0.00529585
-7.44767e-06
0.0052959
-7.15029e-06
0.00529603
-1.02902e-05
0.0052961
-9.65398e-06
0.00529632
-1.4641e-05
0.00529641
-1.37997e-05
0.00529677
-2.0915e-05
0.00529687
-2.0702e-05
0.00529754
-2.93205e-05
0.00529765
-3.32223e-05
0.00529855
-3.79059e-05
0.00529969
-5.71791e-05
0.00529994
-5.1113e-05
-7.86255e-05
0.00527778
-0.000140958
0.00527833
-0.000136272
0.00527891
-0.000131611
0.00527951
-0.00012698
0.00528013
-0.000122384
0.00528076
-0.00011783
0.0052814
-0.000113323
0.00528205
-0.000108868
0.00528269
-0.000104473
0.00528334
-0.000100141
0.00528397
-9.58785e-05
0.0052846
-9.16888e-05
0.00528522
-8.75763e-05
0.00528583
-8.35449e-05
0.00528642
-7.95982e-05
0.005287
-7.57394e-05
0.00528756
-7.19716e-05
0.0052881
-6.82975e-05
0.00528862
-6.47197e-05
0.00528913
-6.12404e-05
0.00528961
-5.78616e-05
0.00529007
-5.45851e-05
0.0052905
-5.14124e-05
0.00529092
-4.83446e-05
0.00529131
-4.53828e-05
0.00529169
-4.25277e-05
0.00529204
-3.97798e-05
0.00529237
-3.71395e-05
0.00529267
-3.4607e-05
0.00529296
-3.21824e-05
0.00529323
-2.98655e-05
0.00529347
-2.76559e-05
0.0052937
-2.55532e-05
0.00529391
-2.35566e-05
0.00529411
-2.16654e-05
0.00529428
-1.98784e-05
0.00529444
-1.81947e-05
0.00529459
-1.6613e-05
0.00529472
-1.5132e-05
0.00529483
-1.37506e-05
0.00529494
-1.24678e-05
0.00529503
-1.1283e-05
0.00529511
-1.0195e-05
0.00529518
-9.2046e-06
0.00529525
-8.30947e-06
0.0052953
-7.51415e-06
0.00529535
-6.81086e-06
0.00529539
-6.2172e-06
0.00529543
-5.70444e-06
0.00529547
-5.33285e-06
0.0052955
-5.00511e-06
0.00529553
-4.90616e-06
0.00529556
-4.73988e-06
0.0052956
-5.02184e-06
0.00529563
-4.95139e-06
0.00529568
-5.82305e-06
0.00529572
-5.71778e-06
0.0052958
-7.52634e-06
0.00529584
-7.19849e-06
0.00529597
-1.04175e-05
0.00529604
-9.71919e-06
0.00529625
-1.48495e-05
0.00529633
-1.38862e-05
0.00529669
-2.12747e-05
0.00529677
-2.07813e-05
0.00529745
-2.99994e-05
0.00529752
-3.32904e-05
0.00529842
-3.88112e-05
0.00529956
-5.83134e-05
0.00529973
-5.12847e-05
-8.08105e-05
0.00527913
-0.000141397
0.0052796
-0.000136747
0.00528011
-0.000132116
0.00528064
-0.00012751
0.00528119
-0.000122934
0.00528175
-0.000118395
0.00528233
-0.000113899
0.00528291
-0.000109452
0.0052835
-0.00010506
0.00528409
-0.000100729
0.00528468
-9.64638e-05
0.00528526
-9.22688e-05
0.00528583
-8.81487e-05
0.00528639
-8.41074e-05
0.00528694
-8.01489e-05
0.00528748
-7.62766e-05
0.005288
-7.24938e-05
0.00528851
-6.88035e-05
0.005289
-6.52083e-05
0.00528947
-6.17108e-05
0.00528992
-5.8313e-05
0.00529035
-5.5017e-05
0.00529076
-5.18243e-05
0.00529115
-4.87363e-05
0.00529152
-4.57542e-05
0.00529187
-4.28787e-05
0.00529221
-4.01104e-05
0.00529252
-3.745e-05
0.00529281
-3.48977e-05
0.00529308
-3.24536e-05
0.00529333
-3.01176e-05
0.00529356
-2.78895e-05
0.00529378
-2.57689e-05
0.00529398
-2.3755e-05
0.00529416
-2.18471e-05
0.00529433
-2.00443e-05
0.00529448
-1.83454e-05
0.00529461
-1.67493e-05
0.00529474
-1.52547e-05
0.00529484
-1.38605e-05
0.00529494
-1.25657e-05
0.00529503
-1.13698e-05
0.00529511
-1.02716e-05
0.00529517
-9.27189e-06
0.00529523
-8.36835e-06
0.00529528
-7.56566e-06
0.00529533
-6.85583e-06
0.00529537
-6.25689e-06
0.0052954
-5.73935e-06
0.00529544
-5.365e-06
0.00529546
-5.03393e-06
0.00529549
-4.93591e-06
0.00529552
-4.76668e-06
0.00529556
-5.0559e-06
0.00529558
-4.98005e-06
0.00529563
-5.87089e-06
0.00529567
-5.75199e-06
0.00529574
-7.60194e-06
0.00529579
-7.24239e-06
0.00529591
-1.05412e-05
0.00529597
-9.77855e-06
0.00529617
-1.50535e-05
0.00529625
-1.39642e-05
0.00529661
-2.16297e-05
0.00529667
-2.08445e-05
0.00529735
-3.06815e-05
0.00529738
-3.33215e-05
0.0052983
-3.97245e-05
0.00529942
-5.94395e-05
0.00529952
-5.13821e-05
-8.29921e-05
0.00528047
-0.000141755
0.00528087
-0.000137144
0.0052813
-0.000132546
0.00528176
-0.000127968
0.00528224
-0.000123415
0.00528274
-0.000118894
0.00528325
-0.000114412
0.00528377
-0.000109976
0.0052843
-0.00010559
0.00528484
-0.000101262
0.00528537
-9.69972e-05
0.0052859
-9.27995e-05
0.00528643
-8.86742e-05
0.00528694
-8.46255e-05
0.00528745
-8.06576e-05
0.00528795
-7.67741e-05
0.00528843
-7.29785e-05
0.0052889
-6.92741e-05
0.00528936
-6.56636e-05
0.0052898
-6.21498e-05
0.00529022
-5.87349e-05
0.00529063
-5.54212e-05
0.00529101
-5.22103e-05
0.00529138
-4.91038e-05
0.00529173
-4.61029e-05
0.00529206
-4.32085e-05
0.00529237
-4.04214e-05
0.00529266
-3.77422e-05
0.00529293
-3.51713e-05
0.00529319
-3.27089e-05
0.00529343
-3.03551e-05
0.00529365
-2.81096e-05
0.00529385
-2.5972e-05
0.00529404
-2.39419e-05
0.00529421
-2.20183e-05
0.00529436
-2.02004e-05
0.00529451
-1.84872e-05
0.00529463
-1.68774e-05
0.00529475
-1.53699e-05
0.00529485
-1.39636e-05
0.00529494
-1.26575e-05
0.00529503
-1.14509e-05
0.0052951
-1.0343e-05
0.00529516
-9.33444e-06
0.00529521
-8.42292e-06
0.00529526
-7.61323e-06
0.0052953
-6.89719e-06
0.00529534
-6.29325e-06
0.00529537
-5.77117e-06
0.0052954
-5.39426e-06
0.00529543
-5.06e-06
0.00529545
-4.96303e-06
0.00529548
-4.79085e-06
0.00529551
-5.08739e-06
0.00529553
-5.00594e-06
0.00529558
-5.91605e-06
0.00529561
-5.78292e-06
0.00529568
-7.67456e-06
0.00529572
-7.28207e-06
0.00529584
-1.06614e-05
0.0052959
-9.83216e-06
0.0052961
-1.52529e-05
0.00529617
-1.40339e-05