/*--------------------------------*- C++ -*----------------------------------*\
| =========                 |                                                 |
| \\      /  F ield         | OpenFOAM: The Open Source CFD Toolbox           |
|  \\    /   O peration     | Version:  2412                                  |
|   \\  /    A nd           | Website:  www.openfoam.com                      |
|    \\/     M anipulation  |                                                 |
\*---------------------------------------------------------------------------*/
FoamFile
{
    version     2.0;
    format      ascii;
    arch        "LSB;label=32;scalar=64";
    class       volVectorField;
    location    "14";
    object      U;
}
// * * * * * * * * * * * * * * * * * * * * * * * * * * * * * * * * * * * * * //

dimensions      [0 1 -1 0 0 0 0];

internalField   nonuniform List<vector> 
5285
(
(0.0998398 0.00102893 0)
(0.0998444 0.000976268 0)
(0.0998496 0.000925336 0)
(0.0998553 0.000876114 0)
(0.0998614 0.000828604 0)
(0.0998679 0.000782804 0)
(0.0998746 0.000738708 0)
(0.0998816 0.000696301 0)
(0.0998887 0.000655569 0)
(0.099896 0.000616491 0)
(0.0999033 0.000579046 0)
(0.0999106 0.000543208 0)
(0.0999179 0.000508949 0)
(0.0999252 0.00047624 0)
(0.0999323 0.000445047 0)
(0.0999394 0.000415337 0)
(0.0999463 0.000387074 0)
(0.099953 0.00036022 0)
(0.0999595 0.000334737 0)
(0.0999658 0.000310587 0)
(0.0999719 0.00028773 0)
(0.0999777 0.000266127 0)
(0.0999833 0.000245738 0)
(0.0999886 0.000226523 0)
(0.0999937 0.000208441 0)
(0.0999985 0.000191453 0)
(0.100003 0.000175517 0)
(0.100007 0.000160594 0)
(0.100011 0.000146643 0)
(0.100015 0.000133624 0)
(0.100018 0.000121497 0)
(0.100022 0.000110224 0)
(0.100025 9.97681e-05 0)
(0.100027 9.00916e-05 0)
(0.10003 8.11584e-05 0)
(0.100032 7.29331e-05 0)
(0.100034 6.53813e-05 0)
(0.100036 5.84696e-05 0)
(0.100038 5.21662e-05 0)
(0.100039 4.6441e-05 0)
(0.10004 4.12662e-05 0)
(0.100041 3.66152e-05 0)
(0.100042 3.24627e-05 0)
(0.100043 2.87851e-05 0)
(0.100044 2.55583e-05 0)
(0.100045 2.27674e-05 0)
(0.100045 2.03845e-05 0)
(0.100046 1.84183e-05 0)
(0.100046 1.6815e-05 0)
(0.100046 1.5655e-05 0)
(0.100047 1.47696e-05 0)
(0.100047 1.44782e-05 0)
(0.100048 1.42066e-05 0)
(0.100047 1.50134e-05 0)
(0.10005 1.51176e-05 0)
(0.100047 1.75905e-05 0)
(0.100053 1.75455e-05 0)
(0.100046 2.27866e-05 0)
(0.10006 2.16613e-05 0)
(0.100043 3.13644e-05 0)
(0.10007 2.80444e-05 0)
(0.100038 4.41195e-05 0)
(0.100085 3.80924e-05 0)
(0.100034 6.18875e-05 0)
(0.100105 5.41376e-05 0)
(0.100032 8.60278e-05 0)
(0.100136 8.09474e-05 0)
(0.100029 0.000111859 0)
(0.100186 0.000144369 0)
(0.100061 0.000120086 0)
(0.100188 0.000218237 0)
(0.0998179 0.00102677 0)
(0.0998238 0.000973887 0)
(0.0998302 0.000922784 0)
(0.0998371 0.000873431 0)
(0.0998443 0.000825825 0)
(0.0998518 0.000779962 0)
(0.0998596 0.00073583 0)
(0.0998676 0.000693413 0)
(0.0998757 0.000652693 0)
(0.0998838 0.000613647 0)
(0.099892 0.00057625 0)
(0.0999001 0.000540474 0)
(0.0999082 0.00050629 0)
(0.0999162 0.000473665 0)
(0.0999241 0.000442565 0)
(0.0999318 0.000412953 0)
(0.0999393 0.000384794 0)
(0.0999466 0.000358048 0)
(0.0999537 0.000332675 0)
(0.0999605 0.000308637 0)
(0.0999671 0.000285892 0)
(0.0999734 0.000264401 0)
(0.0999794 0.000244122 0)
(0.0999851 0.000225016 0)
(0.0999906 0.00020704 0)
(0.0999957 0.000190155 0)
(0.100001 0.000174319 0)
(0.100005 0.000159492 0)
(0.100009 0.000145633 0)
(0.100013 0.000132701 0)
(0.100017 0.000120658 0)
(0.100021 0.000109464 0)
(0.100024 9.90824e-05 0)
(0.100027 8.94759e-05 0)
(0.100029 8.0608e-05 0)
(0.100032 7.24436e-05 0)
(0.100034 6.49481e-05 0)
(0.100036 5.80883e-05 0)
(0.100038 5.18325e-05 0)
(0.100039 4.61508e-05 0)
(0.100041 4.10153e-05 0)
(0.100042 3.63996e-05 0)
(0.100043 3.22783e-05 0)
(0.100044 2.86281e-05 0)
(0.100045 2.54249e-05 0)
(0.100045 2.26542e-05 0)
(0.100046 2.02882e-05 0)
(0.100046 1.83352e-05 0)
(0.100047 1.67426e-05 0)
(0.100047 1.55883e-05 0)
(0.100048 1.47083e-05 0)
(0.100048 1.44132e-05 0)
(0.100049 1.41447e-05 0)
(0.100048 1.49321e-05 0)
(0.100051 1.50456e-05 0)
(0.100048 1.74672e-05 0)
(0.100055 1.74568e-05 0)
(0.100047 2.25817e-05 0)
(0.100061 2.15536e-05 0)
(0.100044 3.10199e-05 0)
(0.100072 2.7914e-05 0)
(0.10004 4.35535e-05 0)
(0.100087 3.7929e-05 0)
(0.100036 6.09508e-05 0)
(0.100107 5.39974e-05 0)
(0.100035 8.42646e-05 0)
(0.100138 8.11246e-05 0)
(0.100032 0.000108835 0)
(0.100189 0.000142561 0)
(0.100066 0.00011991 0)
(0.100193 0.000211222 0)
(0.0997958 0.00102403 0)
(0.0998029 0.000970968 0)
(0.0998106 0.000919724 0)
(0.0998186 0.000870268 0)
(0.099827 0.000822595 0)
(0.0998356 0.000776695 0)
(0.0998444 0.000732554 0)
(0.0998534 0.000690153 0)
(0.0998624 0.000649469 0)
(0.0998715 0.000610478 0)
(0.0998805 0.00057315 0)
(0.0998895 0.000537457 0)
(0.0998983 0.000503367 0)
(0.0999071 0.000470845 0)
(0.0999156 0.000439854 0)
(0.099924 0.000410359 0)
(0.0999321 0.000382319 0)
(0.09994 0.000355695 0)
(0.0999477 0.000330446 0)
(0.099955 0.000306533 0)
(0.0999621 0.000283912 0)
(0.0999689 0.000262544 0)
(0.0999753 0.000242386 0)
(0.0999815 0.000223398 0)
(0.0999873 0.000205538 0)
(0.0999928 0.000188765 0)
(0.099998 0.000173036 0)
(0.100003 0.000158313 0)
(0.100007 0.000144552 0)
(0.100012 0.000131715 0)
(0.100016 0.000119761 0)
(0.100019 0.000108651 0)
(0.100023 9.83494e-05 0)
(0.100026 8.88174e-05 0)
(0.100029 8.00191e-05 0)
(0.100031 7.19193e-05 0)
(0.100034 6.44836e-05 0)
(0.100036 5.7679e-05 0)
(0.100038 5.14738e-05 0)
(0.100039 4.58382e-05 0)
(0.100041 4.07445e-05 0)
(0.100042 3.61661e-05 0)
(0.100043 3.20779e-05 0)
(0.100044 2.84568e-05 0)
(0.100045 2.52789e-05 0)
(0.100046 2.25295e-05 0)
(0.100047 2.01815e-05 0)
(0.100047 1.82427e-05 0)
(0.100048 1.66614e-05 0)
(0.100048 1.55137e-05 0)
(0.100049 1.46392e-05 0)
(0.100049 1.4341e-05 0)
(0.10005 1.40753e-05 0)
(0.100049 1.48441e-05 0)
(0.100052 1.49651e-05 0)
(0.100049 1.73374e-05 0)
(0.100056 1.73574e-05 0)
(0.100048 2.23704e-05 0)
(0.100062 2.14314e-05 0)
(0.100045 3.06686e-05 0)
(0.100073 2.77638e-05 0)
(0.100041 4.29789e-05 0)
(0.100089 3.774e-05 0)
(0.100038 6.00006e-05 0)
(0.100109 5.38225e-05 0)
(0.100037 8.24902e-05 0)
(0.10014 8.12304e-05 0)
(0.100036 0.000105826 0)
(0.10019 0.000140685 0)
(0.100071 0.000119588 0)
(0.100197 0.00020422 0)
(0.0997733 0.00102072 0)
(0.0997818 0.000967503 0)
(0.0997907 0.000916149 0)
(0.0997999 0.000866621 0)
(0.0998094 0.000818909 0)
(0.0998192 0.000773001 0)
(0.099829 0.000728878 0)
(0.099839 0.000686517 0)
(0.099849 0.000645894 0)
(0.099859 0.000606979 0)
(0.0998689 0.000569744 0)
(0.0998787 0.000534155 0)
(0.0998883 0.000500178 0)
(0.0998978 0.000467778 0)
(0.0999071 0.000436915 0)
(0.0999161 0.000407552 0)
(0.0999249 0.000379647 0)
(0.0999334 0.00035316 0)
(0.0999416 0.00032805 0)
(0.0999494 0.000304273 0)
(0.099957 0.000281789 0)
(0.0999642 0.000260556 0)
(0.0999711 0.00024053 0)
(0.0999777 0.00022167 0)
(0.0999839 0.000203934 0)
(0.0999898 0.000187281 0)
(0.0999953 0.000171669 0)
(0.1 0.000157056 0)
(0.100005 0.000143401 0)
(0.10001 0.000130664 0)
(0.100014 0.000118805 0)
(0.100018 0.000107786 0)
(0.100022 9.75683e-05 0)
(0.100025 8.81155e-05 0)
(0.100028 7.9391e-05 0)
(0.100031 7.13597e-05 0)
(0.100033 6.39873e-05 0)
(0.100035 5.72411e-05 0)
(0.100037 5.10894e-05 0)
(0.100039 4.55026e-05 0)
(0.100041 4.0453e-05 0)
(0.100042 3.59142e-05 0)
(0.100043 3.18611e-05 0)
(0.100045 2.82708e-05 0)
(0.100046 2.51196e-05 0)
(0.100046 2.23929e-05 0)
(0.100047 2.0064e-05 0)
(0.100048 1.81403e-05 0)
(0.100048 1.65713e-05 0)
(0.100049 1.54307e-05 0)
(0.10005 1.45622e-05 0)
(0.10005 1.42611e-05 0)
(0.100051 1.39983e-05 0)
(0.10005 1.47485e-05 0)
(0.100053 1.48768e-05 0)
(0.10005 1.71995e-05 0)
(0.100057 1.7249e-05 0)
(0.100049 2.21498e-05 0)
(0.100064 2.12976e-05 0)
(0.100046 3.03067e-05 0)
(0.100075 2.75977e-05 0)
(0.100043 4.23915e-05 0)
(0.10009 3.75287e-05 0)
(0.10004 5.90353e-05 0)
(0.100111 5.36116e-05 0)
(0.10004 8.07124e-05 0)
(0.100142 8.12497e-05 0)
(0.10004 0.000102855 0)
(0.100191 0.000138731 0)
(0.100076 0.000119102 0)
(0.100201 0.000197268 0)
(0.0997507 0.00101682 0)
(0.0997604 0.000963486 0)
(0.0997706 0.000912054 0)
(0.099781 0.000862485 0)
(0.0997917 0.000814764 0)
(0.0998025 0.000768875 0)
(0.0998135 0.000724797 0)
(0.0998244 0.000682503 0)
(0.0998354 0.000641965 0)
(0.0998463 0.000603151 0)
(0.0998571 0.00056603 0)
(0.0998677 0.000530566 0)
(0.0998781 0.000496723 0)
(0.0998884 0.000464463 0)
(0.0998983 0.000433746 0)
(0.099908 0.000404532 0)
(0.0999175 0.000376778 0)
(0.0999265 0.000350443 0)
(0.0999353 0.000325485 0)
(0.0999437 0.000301859 0)
(0.0999518 0.000279524 0)
(0.0999595 0.000258436 0)
(0.0999668 0.000238552 0)
(0.0999738 0.000219831 0)
(0.0999804 0.000202229 0)
(0.0999866 0.000185705 0)
(0.0999925 0.000170216 0)
(0.099998 0.000155721 0)
(0.100003 0.000142178 0)
(0.100008 0.000129548 0)
(0.100012 0.000117791 0)
(0.100017 0.000106867 0)
(0.10002 9.67389e-05 0)
(0.100024 8.73698e-05 0)
(0.100027 7.87233e-05 0)
(0.10003 7.07644e-05 0)
(0.100033 6.34589e-05 0)
(0.100035 5.67742e-05 0)
(0.100037 5.0679e-05 0)
(0.100039 4.51436e-05 0)
(0.100041 4.01406e-05 0)
(0.100042 3.56435e-05 0)
(0.100044 3.16274e-05 0)
(0.100045 2.80696e-05 0)
(0.100046 2.49466e-05 0)
(0.100047 2.22439e-05 0)
(0.100048 1.99354e-05 0)
(0.100048 1.80277e-05 0)
(0.100049 1.64716e-05 0)
(0.100049 1.53388e-05 0)
(0.10005 1.44769e-05 0)
(0.10005 1.41732e-05 0)
(0.100052 1.39134e-05 0)
(0.100051 1.4645e-05 0)
(0.100054 1.47802e-05 0)
(0.100051 1.70533e-05 0)
(0.100058 1.7131e-05 0)
(0.10005 2.19201e-05 0)
(0.100065 2.11516e-05 0)
(0.100047 2.99343e-05 0)
(0.100076 2.74151e-05 0)
(0.100044 4.17916e-05 0)
(0.100092 3.72943e-05 0)
(0.100041 5.80561e-05 0)
(0.100113 5.33621e-05 0)
(0.100042 7.89374e-05 0)
(0.100144 8.11716e-05 0)
(0.100044 9.99401e-05 0)
(0.100192 0.000136695 0)
(0.100082 0.000118435 0)
(0.100205 0.000190399 0)
(0.0997278 0.00101233 0)
(0.0997388 0.000958911 0)
(0.0997503 0.000907433 0)
(0.0997619 0.000857855 0)
(0.0997738 0.000810155 0)
(0.0997857 0.000764315 0)
(0.0997977 0.000720309 0)
(0.0998097 0.000678108 0)
(0.0998217 0.00063768 0)
(0.0998335 0.000598992 0)
(0.0998451 0.000562007 0)
(0.0998566 0.00052669 0)
(0.0998678 0.000493001 0)
(0.0998788 0.0004609 0)
(0.0998895 0.000430347 0)
(0.0998999 0.000401298 0)
(0.0999099 0.000373712 0)
(0.0999196 0.000347544 0)
(0.0999289 0.000322751 0)
(0.0999379 0.000299289 0)
(0.0999465 0.000277114 0)
(0.0999546 0.000256183 0)
(0.0999624 0.000236453 0)
(0.0999698 0.00021788 0)
(0.0999768 0.000200421 0)
(0.0999834 0.000184034 0)
(0.0999896 0.000168677 0)
(0.0999954 0.000154308 0)
(0.100001 0.000140885 0)
(0.100006 0.000128368 0)
(0.100011 0.000116717 0)
(0.100015 0.000105894 0)
(0.100019 9.58607e-05 0)
(0.100023 8.65799e-05 0)
(0.100026 7.80156e-05 0)
(0.100029 7.01329e-05 0)
(0.100032 6.28979e-05 0)
(0.100034 5.62781e-05 0)
(0.100037 5.02422e-05 0)
(0.100039 4.47609e-05 0)
(0.100041 3.98067e-05 0)
(0.100042 3.53536e-05 0)
(0.100044 3.13764e-05 0)
(0.100045 2.78529e-05 0)
(0.100046 2.47597e-05 0)
(0.100047 2.20823e-05 0)
(0.100048 1.97952e-05 0)
(0.100049 1.79046e-05 0)
(0.100049 1.63623e-05 0)
(0.10005 1.52378e-05 0)
(0.100051 1.43829e-05 0)
(0.100051 1.4077e-05 0)
(0.100052 1.38202e-05 0)
(0.100052 1.45335e-05 0)
(0.100055 1.46749e-05 0)
(0.100052 1.68986e-05 0)
(0.100059 1.7003e-05 0)
(0.100051 2.16811e-05 0)
(0.100066 2.09929e-05 0)
(0.100049 2.95515e-05 0)
(0.100077 2.72153e-05 0)
(0.100045 4.11798e-05 0)
(0.100094 3.70359e-05 0)
(0.100043 5.70646e-05 0)
(0.100115 5.30716e-05 0)
(0.100044 7.7171e-05 0)
(0.100145 8.09879e-05 0)
(0.100048 9.70944e-05 0)
(0.100192 0.000134577 0)
(0.100088 0.000117576 0)
(0.100209 0.000183641 0)
(0.0997047 0.00100724 0)
(0.0997171 0.000953772 0)
(0.0997298 0.000902282 0)
(0.0997427 0.000852726 0)
(0.0997557 0.000805079 0)
(0.0997688 0.000759317 0)
(0.0997819 0.000715411 0)
(0.0997949 0.00067333 0)
(0.0998078 0.000633038 0)
(0.0998206 0.000594498 0)
(0.0998331 0.000557674 0)
(0.0998454 0.000522525 0)
(0.0998574 0.00048901 0)
(0.0998692 0.000457088 0)
(0.0998806 0.000426716 0)
(0.0998916 0.000397851 0)
(0.0999023 0.000370447 0)
(0.0999126 0.000344461 0)
(0.0999225 0.000319848 0)
(0.0999319 0.000296563 0)
(0.099941 0.000274561 0)
(0.0999496 0.000253799 0)
(0.0999579 0.000234233 0)
(0.0999657 0.000215818 0)
(0.099973 0.000198511 0)
(0.09998 0.00018227 0)
(0.0999865 0.000167053 0)
(0.0999926 0.000152816 0)
(0.0999984 0.00013952 0)
(0.100004 0.000127122 0)
(0.100009 0.000115585 0)
(0.100013 0.000104868 0)
(0.100018 9.49336e-05 0)
(0.100021 8.57457e-05 0)
(0.100025 7.72679e-05 0)
(0.100028 6.94652e-05 0)
(0.100031 6.23042e-05 0)
(0.100034 5.57523e-05 0)
(0.100036 4.97787e-05 0)
(0.100038 4.43542e-05 0)
(0.10004 3.94513e-05 0)
(0.100042 3.50441e-05 0)
(0.100044 3.11079e-05 0)
(0.100045 2.76203e-05 0)
(0.100046 2.45584e-05 0)
(0.100047 2.19078e-05 0)
(0.100048 1.96432e-05 0)
(0.100049 1.77707e-05 0)
(0.10005 1.62429e-05 0)
(0.10005 1.51275e-05 0)
(0.100051 1.428e-05 0)
(0.100052 1.39723e-05 0)
(0.100053 1.37185e-05 0)
(0.100052 1.44136e-05 0)
(0.100056 1.45609e-05 0)
(0.100053 1.67353e-05 0)
(0.10006 1.68648e-05 0)
(0.100052 2.14328e-05 0)
(0.100067 2.08214e-05 0)
(0.10005 2.91583e-05 0)
(0.100079 2.69982e-05 0)
(0.100046 4.05562e-05 0)
(0.100095 3.67532e-05 0)
(0.100045 5.60618e-05 0)
(0.100116 5.27384e-05 0)
(0.100047 7.54175e-05 0)
(0.100147 8.0693e-05 0)
(0.100053 9.43279e-05 0)
(0.100192 0.000132374 0)
(0.100094 0.000116521 0)
(0.100212 0.000177017 0)
(0.0996814 0.00100154 0)
(0.0996952 0.000948062 0)
(0.0997092 0.000896595 0)
(0.0997233 0.000847094 0)
(0.0997375 0.000799531 0)
(0.0997517 0.000753877 0)
(0.0997659 0.000710101 0)
(0.09978 0.000668167 0)
(0.0997938 0.000628037 0)
(0.0998075 0.000589671 0)
(0.099821 0.000553029 0)
(0.0998341 0.00051807 0)
(0.0998469 0.00048475 0)
(0.0998594 0.000453027 0)
(0.0998715 0.000422854 0)
(0.0998832 0.000394189 0)
(0.0998945 0.000366984 0)
(0.0999054 0.000341195 0)
(0.0999159 0.000316776 0)
(0.0999259 0.000293681 0)
(0.0999355 0.000271865 0)
(0.0999446 0.000251283 0)
(0.0999532 0.000231891 0)
(0.0999614 0.000213644 0)
(0.0999692 0.000196499 0)
(0.0999765 0.000180413 0)
(0.0999834 0.000165342 0)
(0.0999898 0.000151246 0)
(0.0999958 0.000138083 0)
(0.100001 0.000125812 0)
(0.100007 0.000114392 0)
(0.100012 0.000103787 0)
(0.100016 9.39575e-05 0)
(0.10002 8.48671e-05 0)
(0.100024 7.64798e-05 0)
(0.100027 6.87611e-05 0)
(0.10003 6.16775e-05 0)
(0.100033 5.51968e-05 0)
(0.100036 4.92884e-05 0)
(0.100038 4.39233e-05 0)
(0.10004 3.9074e-05 0)
(0.100042 3.47151e-05 0)
(0.100044 3.08217e-05 0)
(0.100045 2.73718e-05 0)
(0.100046 2.43427e-05 0)
(0.100047 2.17202e-05 0)
(0.100048 1.94793e-05 0)
(0.100049 1.76257e-05 0)
(0.10005 1.61133e-05 0)
(0.100051 1.50076e-05 0)
(0.100052 1.4168e-05 0)
(0.100052 1.38588e-05 0)
(0.100054 1.36082e-05 0)
(0.100053 1.42852e-05 0)
(0.100056 1.44378e-05 0)
(0.100053 1.65632e-05 0)
(0.100061 1.67163e-05 0)
(0.100053 2.11751e-05 0)
(0.100068 2.06368e-05 0)
(0.10005 2.87548e-05 0)
(0.10008 2.67637e-05 0)
(0.100048 3.9921e-05 0)
(0.100096 3.64458e-05 0)
(0.100046 5.50488e-05 0)
(0.100118 5.23612e-05 0)
(0.100049 7.36805e-05 0)
(0.100148 8.02836e-05 0)
(0.100057 9.16468e-05 0)
(0.100192 0.00013009 0)
(0.100099 0.000115271 0)
(0.100215 0.000170545 0)
(0.0996579 0.000995235 0)
(0.0996731 0.000941775 0)
(0.0996884 0.000890367 0)
(0.0997038 0.000840956 0)
(0.0997192 0.000793509 0)
(0.0997346 0.000747994 0)
(0.0997498 0.000704377 0)
(0.0997649 0.000662617 0)
(0.0997798 0.000622675 0)
(0.0997944 0.000584508 0)
(0.0998087 0.000548072 0)
(0.0998227 0.000513325 0)
(0.0998363 0.000480221 0)
(0.0998496 0.000448715 0)
(0.0998624 0.000418761 0)
(0.0998748 0.000390313 0)
(0.0998867 0.000363323 0)
(0.0998982 0.000337746 0)
(0.0999092 0.000313535 0)
(0.0999198 0.000290643 0)
(0.0999298 0.000269025 0)
(0.0999394 0.000248635 0)
(0.0999485 0.000229427 0)
(0.0999571 0.000211359 0)
(0.0999653 0.000194384 0)
(0.0999729 0.000178461 0)
(0.0999801 0.000163547 0)
(0.0999869 0.000149598 0)
(0.0999932 0.000136575 0)
(0.0999991 0.000124436 0)
(0.100005 0.000113141 0)
(0.10001 0.000102653 0)
(0.100014 9.29324e-05 0)
(0.100019 8.3944e-05 0)
(0.100023 7.56514e-05 0)
(0.100026 6.80205e-05 0)
(0.100029 6.10178e-05 0)
(0.100032 5.46115e-05 0)
(0.100035 4.87712e-05 0)
(0.100038 4.3468e-05 0)
(0.10004 3.86749e-05 0)
(0.100042 3.43662e-05 0)
(0.100043 3.05175e-05 0)
(0.100045 2.71071e-05 0)
(0.100046 2.41124e-05 0)
(0.100047 2.15192e-05 0)
(0.100049 1.93033e-05 0)
(0.10005 1.74697e-05 0)
(0.10005 1.59733e-05 0)
(0.100051 1.4878e-05 0)
(0.100052 1.40468e-05 0)
(0.100052 1.37365e-05 0)
(0.100054 1.34891e-05 0)
(0.100053 1.41482e-05 0)
(0.100057 1.43056e-05 0)
(0.100054 1.63823e-05 0)
(0.100062 1.65574e-05 0)
(0.100053 2.09079e-05 0)
(0.100069 2.04392e-05 0)
(0.100051 2.83408e-05 0)
(0.100081 2.65118e-05 0)
(0.100049 3.92744e-05 0)
(0.100098 3.61137e-05 0)
(0.100048 5.40263e-05 0)
(0.100119 5.19394e-05 0)
(0.100051 7.19622e-05 0)
(0.100149 7.97593e-05 0)
(0.100061 8.90538e-05 0)
(0.100191 0.000127726 0)
(0.100105 0.000113831 0)
(0.100218 0.000164241 0)
(0.0996344 0.000988305 0)
(0.0996509 0.000934906 0)
(0.0996676 0.000883593 0)
(0.0996842 0.000834306 0)
(0.0997008 0.000787009 0)
(0.0997174 0.000741665 0)
(0.0997337 0.000698236 0)
(0.0997498 0.00065668 0)
(0.0997657 0.000616952 0)
(0.0997812 0.000579008 0)
(0.0997964 0.000542803 0)
(0.0998113 0.00050829 0)
(0.0998257 0.000475423 0)
(0.0998397 0.000444154 0)
(0.0998532 0.000414437 0)
(0.0998663 0.000386223 0)
(0.0998789 0.000359465 0)
(0.0998909 0.000334115 0)
(0.0999025 0.000310126 0)
(0.0999136 0.00028745 0)
(0.0999241 0.000266042 0)
(0.0999342 0.000245855 0)
(0.0999437 0.000226843 0)
(0.0999527 0.000208963 0)
(0.0999613 0.000192168 0)
(0.0999693 0.000176417 0)
(0.0999768 0.000161666 0)
(0.0999839 0.000147873 0)
(0.0999905 0.000134996 0)
(0.0999967 0.000122995 0)
(0.100002 0.000111831 0)
(0.100008 0.000101464 0)
(0.100013 9.18585e-05 0)
(0.100017 8.29765e-05 0)
(0.100021 7.47829e-05 0)
(0.100025 6.72434e-05 0)
(0.100028 6.03251e-05 0)
(0.100032 5.39964e-05 0)
(0.100034 4.82271e-05 0)
(0.100037 4.29885e-05 0)
(0.100039 3.82537e-05 0)
(0.100041 3.39975e-05 0)
(0.100043 3.01955e-05 0)
(0.100045 2.68262e-05 0)
(0.100046 2.38674e-05 0)
(0.100047 2.1305e-05 0)
(0.100049 1.9115e-05 0)
(0.10005 1.73024e-05 0)
(0.100051 1.5823e-05 0)
(0.100051 1.47387e-05 0)
(0.100052 1.39162e-05 0)
(0.100053 1.36054e-05 0)
(0.100055 1.33612e-05 0)
(0.100054 1.40026e-05 0)
(0.100057 1.41642e-05 0)
(0.100054 1.61924e-05 0)
(0.100062 1.63881e-05 0)
(0.100054 2.06311e-05 0)
(0.10007 2.02286e-05 0)
(0.100052 2.79164e-05 0)
(0.100082 2.62425e-05 0)
(0.10005 3.86167e-05 0)
(0.100099 3.57567e-05 0)
(0.100049 5.29953e-05 0)
(0.100121 5.14726e-05 0)
(0.100053 7.02643e-05 0)
(0.10015 7.91213e-05 0)
(0.100065 8.65486e-05 0)
(0.100191 0.000125287 0)
(0.10011 0.000112211 0)
(0.10022 0.000158115 0)
(0.0996107 0.000980746 0)
(0.0996287 0.000927449 0)
(0.0996467 0.000876269 0)
(0.0996646 0.000827142 0)
(0.0996824 0.000780029 0)
(0.0997001 0.000734888 0)
(0.0997175 0.000691678 0)
(0.0997347 0.000650353 0)
(0.0997515 0.000610867 0)
(0.099768 0.000573172 0)
(0.0997841 0.000537221 0)
(0.0997998 0.000502965 0)
(0.099815 0.000470355 0)
(0.0998298 0.000439344 0)
(0.099844 0.000409882 0)
(0.0998577 0.00038192 0)
(0.0998709 0.00035541 0)
(0.0998836 0.000330302 0)
(0.0998958 0.000306549 0)
(0.0999074 0.000284103 0)
(0.0999184 0.000262917 0)
(0.0999289 0.000242944 0)
(0.0999389 0.000224139 0)
(0.0999483 0.000206456 0)
(0.0999572 0.000189851 0)
(0.0999656 0.00017428 0)
(0.0999735 0.0001597 0)
(0.0999809 0.000146069 0)
(0.0999877 0.000133346 0)
(0.0999942 0.00012149 0)
(0.1 0.000110462 0)
(0.100006 0.000100223 0)
(0.100011 9.0736e-05 0)
(0.100015 8.1965e-05 0)
(0.10002 7.38743e-05 0)
(0.100024 6.64301e-05 0)
(0.100027 5.95997e-05 0)
(0.100031 5.33517e-05 0)
(0.100034 4.76561e-05 0)
(0.100036 4.24847e-05 0)
(0.100039 3.78107e-05 0)
(0.100041 3.3609e-05 0)
(0.100043 2.98556e-05 0)
(0.100044 2.65291e-05 0)
(0.100046 2.36077e-05 0)
(0.100047 2.10773e-05 0)
(0.100049 1.89146e-05 0)
(0.10005 1.71239e-05 0)
(0.100051 1.56622e-05 0)
(0.100052 1.45896e-05 0)
(0.100053 1.37764e-05 0)
(0.100053 1.34652e-05 0)
(0.100055 1.32244e-05 0)
(0.100054 1.38483e-05 0)
(0.100058 1.40137e-05 0)
(0.100055 1.59937e-05 0)
(0.100063 1.62083e-05 0)
(0.100054 2.03449e-05 0)
(0.100071 2.0005e-05 0)
(0.100053 2.74818e-05 0)
(0.100083 2.59559e-05 0)
(0.100051 3.79481e-05 0)
(0.1001 3.5375e-05 0)
(0.10005 5.19564e-05 0)
(0.100122 5.09608e-05 0)
(0.100055 6.85875e-05 0)
(0.100151 7.83727e-05 0)
(0.100069 8.41288e-05 0)
(0.10019 0.00012278 0)
(0.100116 0.000110424 0)
(0.100222 0.000152173 0)
(0.0995871 0.000972554 0)
(0.0996064 0.000919399 0)
(0.0996257 0.000868391 0)
(0.0996449 0.000819461 0)
(0.099664 0.000772566 0)
(0.0996828 0.000727661 0)
(0.0997014 0.000684701 0)
(0.0997196 0.000643637 0)
(0.0997374 0.00060442 0)
(0.0997548 0.000566999 0)
(0.0997718 0.000531326 0)
(0.0997883 0.00049735 0)
(0.0998043 0.000465019 0)
(0.0998198 0.000434285 0)
(0.0998348 0.000405097 0)
(0.0998492 0.000377405 0)
(0.099863 0.000351158 0)
(0.0998763 0.000326308 0)
(0.099889 0.000302805 0)
(0.0999011 0.000280602 0)
(0.0999126 0.000259651 0)
(0.0999236 0.000239904 0)
(0.099934 0.000221315 0)
(0.0999438 0.00020384 0)
(0.0999531 0.000187433 0)
(0.0999619 0.000172051 0)
(0.0999701 0.00015765 0)
(0.0999778 0.000144189 0)
(0.0999849 0.000131626 0)
(0.0999916 0.000119921 0)
(0.0999978 0.000109034 0)
(0.100004 9.8928e-05 0)
(0.100009 8.95652e-05 0)
(0.100014 8.09095e-05 0)
(0.100018 7.29259e-05 0)
(0.100022 6.55807e-05 0)
(0.100026 5.88416e-05 0)
(0.10003 5.26774e-05 0)
(0.100033 4.70585e-05 0)
(0.100035 4.19568e-05 0)
(0.100038 3.73458e-05 0)
(0.10004 3.32008e-05 0)
(0.100042 2.94978e-05 0)
(0.100044 2.62159e-05 0)
(0.100046 2.33333e-05 0)
(0.100047 2.08364e-05 0)
(0.100048 1.87019e-05 0)
(0.10005 1.69341e-05 0)
(0.100051 1.5491e-05 0)
(0.100052 1.44307e-05 0)
(0.100053 1.36273e-05 0)
(0.100053 1.33162e-05 0)
(0.100055 1.30787e-05 0)
(0.100054 1.36854e-05 0)
(0.100058 1.38539e-05 0)
(0.100055 1.57862e-05 0)
(0.100063 1.60181e-05 0)
(0.100055 2.00493e-05 0)
(0.100071 1.97685e-05 0)
(0.100053 2.7037e-05 0)
(0.100084 2.56521e-05 0)
(0.100051 3.7269e-05 0)
(0.100101 3.49687e-05 0)
(0.100051 5.09105e-05 0)
(0.100123 5.04046e-05 0)
(0.100057 6.6932e-05 0)
(0.100152 7.75181e-05 0)
(0.100073 8.17901e-05 0)
(0.100189 0.00012021 0)
(0.100121 0.000108485 0)
(0.100224 0.000146419 0)
(0.0995633 0.000963722 0)
(0.0995841 0.000910751 0)
(0.0996048 0.000859954 0)
(0.0996253 0.000811259 0)
(0.0996456 0.000764618 0)
(0.0996656 0.000719982 0)
(0.0996852 0.000677303 0)
(0.0997045 0.00063653 0)
(0.0997233 0.000597609 0)
(0.0997417 0.00056049 0)
(0.0997595 0.000525119 0)
(0.0997769 0.000491445 0)
(0.0997937 0.000459416 0)
(0.0998099 0.000428979 0)
(0.0998256 0.000400083 0)
(0.0998406 0.000372677 0)
(0.0998551 0.000346711 0)
(0.099869 0.000322133 0)
(0.0998822 0.000298896 0)
(0.0998948 0.000276948 0)
(0.0999069 0.000256243 0)
(0.0999183 0.000236734 0)
(0.0999291 0.000218373 0)
(0.0999394 0.000201115 0)
(0.099949 0.000184916 0)
(0.0999581 0.000169731 0)
(0.0999666 0.000155517 0)
(0.0999746 0.000142232 0)
(0.0999821 0.000129836 0)
(0.099989 0.000118288 0)
(0.0999955 0.000107549 0)
(0.100001 9.75806e-05 0)
(0.100007 8.83466e-05 0)
(0.100012 7.98107e-05 0)
(0.100017 7.19381e-05 0)
(0.100021 6.46957e-05 0)
(0.100025 5.80511e-05 0)
(0.100029 5.19738e-05 0)
(0.100032 4.64344e-05 0)
(0.100035 4.1405e-05 0)
(0.100037 3.68593e-05 0)
(0.10004 3.2773e-05 0)
(0.100042 2.91223e-05 0)
(0.100044 2.58866e-05 0)
(0.100045 2.30444e-05 0)
(0.100047 2.05822e-05 0)
(0.100048 1.84772e-05 0)
(0.100049 1.67332e-05 0)
(0.100051 1.53094e-05 0)
(0.100052 1.42621e-05 0)
(0.100053 1.34688e-05 0)
(0.100053 1.31583e-05 0)
(0.100055 1.29243e-05 0)
(0.100055 1.35139e-05 0)
(0.100059 1.36851e-05 0)
(0.100056 1.55698e-05 0)
(0.100064 1.58176e-05 0)
(0.100055 1.97445e-05 0)
(0.100072 1.95192e-05 0)
(0.100054 2.65823e-05 0)
(0.100085 2.53314e-05 0)
(0.100052 3.65796e-05 0)
(0.100102 3.45379e-05 0)
(0.100053 4.98581e-05 0)
(0.100124 4.98045e-05 0)
(0.100059 6.52975e-05 0)
(0.100152 7.65628e-05 0)
(0.100077 7.95271e-05 0)
(0.100189 0.000117583 0)
(0.100125 0.000106409 0)
(0.100225 0.000140854 0)
(0.0995396 0.000954244 0)
(0.0995619 0.000901501 0)
(0.0995839 0.000850956 0)
(0.0996057 0.000802535 0)
(0.0996272 0.000756183 0)
(0.0996484 0.000711851 0)
(0.0996691 0.000669485 0)
(0.0996894 0.000629032 0)
(0.0997092 0.000590437 0)
(0.0997285 0.000553644 0)
(0.0997473 0.000518601 0)
(0.0997655 0.000485252 0)
(0.0997831 0.000453545 0)
(0.0998 0.000423425 0)
(0.0998164 0.000394841 0)
(0.0998321 0.000367739 0)
(0.0998472 0.00034207 0)
(0.0998617 0.00031778 0)
(0.0998755 0.000294821 0)
(0.0998886 0.000273143 0)
(0.0999011 0.000252697 0)
(0.099913 0.000233436 0)
(0.0999242 0.000215313 0)
(0.0999349 0.000198283 0)
(0.0999449 0.000182299 0)
(0.0999543 0.00016732 0)
(0.0999632 0.000153301 0)
(0.0999715 0.0001402 0)
(0.0999792 0.000127977 0)
(0.0999865 0.000116592 0)
(0.0999932 0.000106006 0)
(0.0999994 9.61811e-05 0)
(0.100005 8.70805e-05 0)
(0.10001 7.86688e-05 0)
(0.100015 7.09113e-05 0)
(0.10002 6.37752e-05 0)
(0.100024 5.72287e-05 0)
(0.100027 5.12413e-05 0)
(0.100031 4.57841e-05 0)
(0.100034 4.08294e-05 0)
(0.100037 3.63514e-05 0)
(0.100039 3.23258e-05 0)
(0.100041 2.87293e-05 0)
(0.100043 2.55414e-05 0)
(0.100045 2.27411e-05 0)
(0.100047 2.03148e-05 0)
(0.100048 1.82404e-05 0)
(0.100049 1.65213e-05 0)
(0.100051 1.51175e-05 0)
(0.100052 1.40838e-05 0)
(0.100053 1.33012e-05 0)
(0.100053 1.29916e-05 0)
(0.100055 1.2761e-05 0)
(0.100055 1.33339e-05 0)
(0.100059 1.35073e-05 0)
(0.100056 1.53449e-05 0)
(0.100064 1.56069e-05 0)
(0.100056 1.94305e-05 0)
(0.100073 1.92572e-05 0)
(0.100055 2.61178e-05 0)
(0.100086 2.49939e-05 0)
(0.100053 3.58803e-05 0)
(0.100103 3.4083e-05 0)
(0.100054 4.87998e-05 0)
(0.100125 4.91616e-05 0)
(0.100061 6.36834e-05 0)
(0.100153 7.55127e-05 0)
(0.10008 7.73337e-05 0)
(0.100188 0.000114908 0)
(0.10013 0.000104214 0)
(0.100226 0.000135477 0)
(0.099516 0.000944116 0)
(0.0995397 0.000891644 0)
(0.0995631 0.000841394 0)
(0.0995862 0.000793285 0)
(0.0996089 0.00074726 0)
(0.0996312 0.000703266 0)
(0.0996531 0.000661246 0)
(0.0996744 0.000621144 0)
(0.0996952 0.000582902 0)
(0.0997155 0.000546463 0)
(0.0997351 0.000511772 0)
(0.0997541 0.000478772 0)
(0.0997725 0.000447408 0)
(0.0997902 0.000417626 0)
(0.0998073 0.000389372 0)
(0.0998237 0.000362592 0)
(0.0998394 0.000337235 0)
(0.0998544 0.000313249 0)
(0.0998687 0.000290583 0)
(0.0998824 0.000269187 0)
(0.0998954 0.000249012 0)
(0.0999077 0.000230011 0)
(0.0999194 0.000212137 0)
(0.0999304 0.000195343 0)
(0.0999408 0.000179585 0)
(0.0999506 0.000164819 0)
(0.0999598 0.000151003 0)
(0.0999684 0.000138093 0)
(0.0999764 0.000126051 0)
(0.0999839 0.000114835 0)
(0.0999908 0.000104407 0)
(0.0999972 9.47301e-05 0)
(0.100003 8.57677e-05 0)
(0.100009 7.74843e-05 0)
(0.100014 6.98459e-05 0)
(0.100018 6.28198e-05 0)
(0.100023 5.63746e-05 0)
(0.100026 5.04802e-05 0)
(0.10003 4.51079e-05 0)
(0.100033 4.02305e-05 0)
(0.100036 3.58224e-05 0)
(0.100038 3.18595e-05 0)
(0.100041 2.8319e-05 0)
(0.100043 2.51805e-05 0)
(0.100045 2.24235e-05 0)
(0.100046 2.00345e-05 0)
(0.100048 1.79917e-05 0)
(0.100049 1.62984e-05 0)
(0.10005 1.49154e-05 0)
(0.100051 1.3896e-05 0)
(0.100053 1.31245e-05 0)
(0.100053 1.28162e-05 0)
(0.100056 1.25892e-05 0)
(0.100055 1.31455e-05 0)
(0.100059 1.33205e-05 0)
(0.100056 1.51113e-05 0)
(0.100065 1.53862e-05 0)
(0.100056 1.91074e-05 0)
(0.100073 1.89828e-05 0)
(0.100055 2.56437e-05 0)
(0.100086 2.46398e-05 0)
(0.100054 3.51714e-05 0)
(0.100104 3.36044e-05 0)
(0.100055 4.7736e-05 0)
(0.100126 4.84768e-05 0)
(0.100063 6.20887e-05 0)
(0.100154 7.43741e-05 0)
(0.100083 7.52035e-05 0)
(0.100187 0.000112189 0)
(0.100134 0.000101917 0)
(0.100227 0.000130287 0)
(0.0994925 0.000933333 0)
(0.0995176 0.000881179 0)
(0.0995423 0.000831265 0)
(0.0995667 0.000783509 0)
(0.0995907 0.000737849 0)
(0.0996142 0.000694228 0)
(0.0996372 0.000652587 0)
(0.0996596 0.000612866 0)
(0.0996814 0.000575006 0)
(0.0997025 0.000538948 0)
(0.099723 0.000504633 0)
(0.0997429 0.000472005 0)
(0.099762 0.000441007 0)
(0.0997805 0.000411583 0)
(0.0997982 0.000383678 0)
(0.0998153 0.000357238 0)
(0.0998316 0.00033221 0)
(0.0998472 0.000308542 0)
(0.0998621 0.000286182 0)
(0.0998762 0.000265082 0)
(0.0998897 0.00024519 0)
(0.0999025 0.00022646 0)
(0.0999146 0.000208845 0)
(0.099926 0.000192298 0)
(0.0999367 0.000176774 0)
(0.0999469 0.000162231 0)
(0.0999564 0.000148624 0)
(0.0999652 0.000135913 0)
(0.0999735 0.000124056 0)
(0.0999813 0.000113015 0)
(0.0999884 0.000102752 0)
(0.0999951 9.32282e-05 0)
(0.100001 8.44086e-05 0)
(0.100007 7.6258e-05 0)
(0.100012 6.87425e-05 0)
(0.100017 6.18299e-05 0)
(0.100021 5.54893e-05 0)
(0.100025 4.96908e-05 0)
(0.100029 4.44061e-05 0)
(0.100032 3.96085e-05 0)
(0.100035 3.52724e-05 0)
(0.100038 3.13743e-05 0)
(0.10004 2.78915e-05 0)
(0.100042 2.48041e-05 0)
(0.100044 2.20918e-05 0)
(0.100046 1.97414e-05 0)
(0.100048 1.77313e-05 0)
(0.100049 1.60647e-05 0)
(0.10005 1.47033e-05 0)
(0.100051 1.36988e-05 0)
(0.100053 1.29388e-05 0)
(0.100053 1.26322e-05 0)
(0.100056 1.24088e-05 0)
(0.100055 1.29488e-05 0)
(0.100059 1.31249e-05 0)
(0.100056 1.48694e-05 0)
(0.100065 1.51555e-05 0)
(0.100056 1.87755e-05 0)
(0.100074 1.86962e-05 0)
(0.100055 2.51603e-05 0)
(0.100087 2.42695e-05 0)
(0.100054 3.44533e-05 0)
(0.100105 3.31023e-05 0)
(0.100056 4.66673e-05 0)
(0.100127 4.77513e-05 0)
(0.100064 6.05123e-05 0)
(0.100154 7.31535e-05 0)
(0.100086 7.31301e-05 0)
(0.100187 0.000109435 0)
(0.100138 9.95319e-05 0)
(0.100228 0.00012528 0)
(0.099469 0.000921892 0)
(0.0994956 0.000870102 0)
(0.0995217 0.00082057 0)
(0.0995475 0.000773207 0)
(0.0995727 0.00072795 0)
(0.0995973 0.000684737 0)
(0.0996214 0.000643508 0)
(0.0996448 0.0006042 0)
(0.0996676 0.000566751 0)
(0.0996897 0.0005311 0)
(0.0997111 0.000497187 0)
(0.0997317 0.000464955 0)
(0.0997517 0.000434344 0)
(0.0997709 0.000405297 0)
(0.0997893 0.00037776 0)
(0.099807 0.000351677 0)
(0.0998239 0.000326995 0)
(0.0998401 0.00030366 0)