/*--------------------------------*- C++ -*----------------------------------*\
| =========                 |                                                 |
| \\      /  F ield         | OpenFOAM: The Open Source CFD Toolbox           |
|  \\    /   O peration     | Version:  2412                                  |
|   \\  /    A nd           | Website:  www.openfoam.com                      |
|    \\/     M anipulation  |                                                 |
\*---------------------------------------------------------------------------*/
FoamFile
{
    version     2.0;
    format      ascii;
    arch        "LSB;label=32;scalar=64";
    class       volVectorField;
    location    "10.5";
    object      U;
}
// * * * * * * * * * * * * * * * * * * * * * * * * * * * * * * * * * * * * * //

dimensions      [0 1 -1 0 0 0 0];

internalField   nonuniform List<vector> 
5285
(
(0.0992502 -0.00514489 0)
(0.0991911 -0.00499241 0)
(0.0991372 -0.00484088 0)
(0.0990883 -0.0046905 0)
(0.0994075 -0.00507794 0)
(0.0993447 -0.004932 0)
(0.0992869 -0.00478669 0)
(0.0992339 -0.00464221 0)
(0.0991857 -0.00449877 0)
(0.0991422 -0.00435657 0)
(0.0991032 -0.00421581 0)
(0.0990686 -0.00407665 0)
(0.0990383 -0.00393925 0)
(0.0990121 -0.00380378 0)
(0.0989899 -0.00367035 0)
(0.0989716 -0.00353911 0)
(0.098957 -0.00341013 0)
(0.098946 -0.00328352 0)
(0.0989383 -0.00315934 0)
(0.0989339 -0.00303765 0)
(0.0989327 -0.00291853 0)
(0.0989344 -0.00280205 0)
(0.0989388 -0.00268832 0)
(0.098946 -0.00257742 0)
(0.0989556 -0.00246948 0)
(0.0989675 -0.00236462 0)
(0.0989816 -0.00226291 0)
(0.0989977 -0.00216442 0)
(0.0990155 -0.00206917 0)
(0.099035 -0.00197714 0)
(0.0990559 -0.00188828 0)
(0.0990781 -0.00180251 0)
(0.0991014 -0.00171975 0)
(0.0991257 -0.00163992 0)
(0.0991508 -0.00156293 0)
(0.0991766 -0.00148871 0)
(0.099203 -0.00141719 0)
(0.0992297 -0.0013483 0)
(0.0992569 -0.00128198 0)
(0.0992842 -0.00121816 0)
(0.0993116 -0.00115678 0)
(0.0993391 -0.00109778 0)
(0.0993665 -0.00104111 0)
(0.0993938 -0.000986693 0)
(0.0994208 -0.000934473 0)
(0.0994476 -0.00088439 0)
(0.0994741 -0.000836382 0)
(0.0995001 -0.000790393 0)
(0.0995579 -0.00500733 0)
(0.0994918 -0.00486785 0)
(0.0994305 -0.0047287 0)
(0.0993739 -0.00459008 0)
(0.099322 -0.00445221 0)
(0.0992746 -0.00431528 0)
(0.0992317 -0.00417949 0)
(0.0991932 -0.00404501 0)
(0.099159 -0.00391201 0)
(0.0991288 -0.00378065 0)
(0.0991027 -0.00365107 0)
(0.0990804 -0.00352341 0)
(0.0990618 -0.00339777 0)
(0.0990468 -0.00327425 0)
(0.0990352 -0.00315292 0)
(0.0990269 -0.00303388 0)
(0.0990218 -0.00291718 0)
(0.0990198 -0.00280292 0)
(0.0990205 -0.00269121 0)
(0.0990241 -0.00258214 0)
(0.0990301 -0.00247584 0)
(0.0990386 -0.00237244 0)
(0.0990493 -0.00227201 0)
(0.0990621 -0.00217463 0)
(0.0990768 -0.00208033 0)
(0.0990931 -0.0019891 0)
(0.0991111 -0.0019009 0)
(0.0991304 -0.00181566 0)
(0.099151 -0.00173331 0)
(0.0991726 -0.00165378 0)
(0.0991952 -0.00157699 0)
(0.0992185 -0.00150288 0)
(0.0992426 -0.00143139 0)
(0.0992671 -0.00136246 0)
(0.0992921 -0.00129603 0)
(0.0993174 -0.00123205 0)
(0.099343 -0.00117046 0)
(0.0993686 -0.00111121 0)
(0.0993943 -0.00105425 0)
(0.0994199 -0.000999512 0)
(0.0994454 -0.000946945 0)
(0.0994707 -0.000896493 0)
(0.0994958 -0.0008481 0)
(0.0995205 -0.00080171 0)
(0.0997013 -0.00493354 0)
(0.0996323 -0.00480042 0)
(0.0995679 -0.00466735 0)
(0.0995082 -0.00453454 0)
(0.0994529 -0.0044022 0)
(0.0994022 -0.00427052 0)
(0.0993558 -0.0041397 0)
(0.0993137 -0.00400991 0)
(0.0992758 -0.00388134 0)
(0.099242 -0.00375414 0)
(0.0992121 -0.00362847 0)
(0.0991861 -0.00350446 0)
(0.0991638 -0.00338222 0)
(0.0991451 -0.00326187 0)
(0.0991298 -0.00314349 0)
(0.0991179 -0.00302717 0)
(0.0991092 -0.002913 0)
(0.0991035 -0.00280106 0)
(0.0991008 -0.00269146 0)
(0.0991009 -0.00258432 0)
(0.0991035 -0.00247977 0)
(0.0991087 -0.00237793 0)
(0.0991162 -0.00227889 0)
(0.0991258 -0.00218273 0)
(0.0991374 -0.00208948 0)
(0.0991508 -0.00199915 0)
(0.0991658 -0.00191171 0)
(0.0991824 -0.00182709 0)
(0.0992003 -0.00174525 0)
(0.0992193 -0.00166611 0)
(0.0992394 -0.00158962 0)
(0.0992604 -0.00151571 0)
(0.0992821 -0.00144433 0)
(0.0993045 -0.00137544 0)
(0.0993274 -0.00130898 0)
(0.0993507 -0.00124491 0)
(0.0993744 -0.00118319 0)
(0.0993982 -0.00112375 0)
(0.0994222 -0.00106656 0)
(0.0994462 -0.00101155 0)
(0.0994701 -0.000958694 0)
(0.099494 -0.000907924 0)
(0.0995176 -0.000859192 0)
(0.099541 -0.000812446 0)
(0.099838 -0.00485702 0)
(0.0997665 -0.00473013 0)
(0.0996994 -0.00460305 0)
(0.0996369 -0.00447597 0)
(0.0995787 -0.00434909 0)
(0.0995249 -0.00422263 0)
(0.0994753 -0.00409676 0)
(0.09943 -0.00397167 0)
(0.0993888 -0.00384753 0)
(0.0993516 -0.00372452 0)
(0.0993183 -0.00360278 0)
(0.0992889 -0.00348247 0)
(0.0992631 -0.0033637 0)
(0.0992409 -0.00324658 0)
(0.0992222 -0.00313122 0)
(0.0992069 -0.0030177 0)
(0.0991947 -0.00290613 0)
(0.0991857 -0.00279659 0)
(0.0991796 -0.00268921 0)
(0.0991763 -0.00258409 0)
(0.0991758 -0.00248138 0)
(0.0991778 -0.00238119 0)
(0.0991821 -0.00228363 0)
(0.0991887 -0.00218878 0)
(0.0991973 -0.00209669 0)
(0.0992079 -0.00200735 0)
(0.0992201 -0.00192076 0)
(0.099234 -0.00183687 0)
(0.0992492 -0.00175562 0)
(0.0992658 -0.00167697 0)
(0.0992834 -0.00160085 0)
(0.0993021 -0.00152722 0)
(0.0993216 -0.00145604 0)
(0.0993419 -0.00138726 0)
(0.0993627 -0.00132085 0)
(0.0993841 -0.00125676 0)
(0.0994059 -0.00119496 0)
(0.0994279 -0.0011354 0)
(0.0994502 -0.00107804 0)
(0.0994726 -0.00102283 0)
(0.099495 -0.000969725 0)
(0.0995173 -0.000918687 0)
(0.0995396 -0.000869662 0)
(0.0995617 -0.000822603 0)
(0.099968 -0.00477817 0)
(0.0998944 -0.00465738 0)
(0.099825 -0.00453617 0)
(0.09976 -0.00441472 0)
(0.0996993 -0.00429324 0)
(0.0996427 -0.00417193 0)
(0.0995904 -0.00405098 0)
(0.0995421 -0.00393056 0)
(0.0994979 -0.00381086 0)
(0.0994576 -0.00369204 0)
(0.0994212 -0.00357426 0)
(0.0993886 -0.00345767 0)
(0.0993596 -0.0033424 0)
(0.0993342 -0.00322857 0)
(0.0993123 -0.00311628 0)
(0.0992937 -0.00300564 0)
(0.0992783 -0.00289673 0)
(0.0992661 -0.00278967 0)
(0.0992568 -0.00268457 0)
(0.0992504 -0.00258155 0)
(0.0992468 -0.00248076 0)
(0.0992457 -0.00238231 0)
(0.0992471 -0.00228632 0)
(0.0992508 -0.00219287 0)
(0.0992566 -0.00210201 0)
(0.0992643 -0.00201377 0)
(0.0992739 -0.00192812 0)
(0.0992851 -0.00184503 0)
(0.0992979 -0.00176447 0)
(0.099312 -0.00168638 0)
(0.0993273 -0.00161072 0)
(0.0993436 -0.00153745 0)
(0.099361 -0.00146654 0)
(0.0993791 -0.00139795 0)
(0.099398 -0.00133166 0)
(0.0994174 -0.00126762 0)
(0.0994374 -0.0012058 0)
(0.0994577 -0.00114617 0)
(0.0994783 -0.0010887 0)
(0.099499 -0.00103333 0)
(0.0995199 -0.000980044 0)
(0.0995408 -0.000928784 0)
(0.0995617 -0.000879512 0)
(0.0995825 -0.000832183 0)
(0.100092 -0.00469739 0)
(0.100016 -0.00458255 0)
(0.0999448 -0.00446707 0)
(0.0998777 -0.00435115 0)
(0.0998147 -0.00423498 0)
(0.0997558 -0.00411875 0)
(0.0997009 -0.00400266 0)
(0.09965 -0.00388688 0)
(0.0996031 -0.00377158 0)
(0.09956 -0.00365695 0)
(0.0995207 -0.00354313 0)
(0.0994852 -0.00343028 0)
(0.0994532 -0.00331854 0)
(0.0994248 -0.00320803 0)
(0.0993999 -0.00309885 0)
(0.0993783 -0.00299113 0)
(0.0993599 -0.00288495 0)
(0.0993447 -0.00278042 0)
(0.0993324 -0.00267767 0)
(0.0993231 -0.00257683 0)
(0.0993165 -0.00247802 0)
(0.0993125 -0.00238139 0)
(0.0993111 -0.00228705 0)
(0.099312 -0.00219508 0)
(0.099315 -0.00210554 0)
(0.0993201 -0.00201846 0)
(0.0993271 -0.00193383 0)
(0.0993358 -0.00185163 0)
(0.0993461 -0.00177183 0)
(0.0993578 -0.00169438 0)
(0.0993708 -0.00161926 0)
(0.099385 -0.00154643 0)
(0.0994002 -0.00147586 0)
(0.0994163 -0.00140753 0)
(0.0994332 -0.00134141 0)
(0.0994508 -0.00127749 0)
(0.0994689 -0.00121572 0)
(0.0994874 -0.00115608 0)
(0.0995064 -0.00109855 0)
(0.0995256 -0.00104309 0)
(0.0995449 -0.000989655 0)
(0.0995644 -0.000938221 0)
(0.0995839 -0.000888745 0)
(0.0996034 -0.000841188 0)
(0.100209 -0.00461503 0)
(0.100132 -0.00450597 0)
(0.100059 -0.00439609 0)
(0.09999 -0.00428557 0)
(0.0999251 -0.00417461 0)
(0.0998641 -0.00406338 0)
(0.099807 -0.00395208 0)
(0.0997537 -0.00384088 0)
(0.0997044 -0.00372995 0)
(0.0996588 -0.00361948 0)
(0.0996169 -0.00350961 0)
(0.0995787 -0.00340051 0)
(0.099544 -0.00329231 0)
(0.0995129 -0.00318514 0)
(0.0994851 -0.00307911 0)
(0.0994607 -0.00297433 0)
(0.0994395 -0.00287092 0)
(0.0994214 -0.00276898 0)
(0.0994063 -0.00266864 0)
(0.0993942 -0.00257003 0)
(0.0993848 -0.00247328 0)
(0.0993781 -0.00237853 0)
(0.0993739 -0.0022859 0)
(0.0993722 -0.00219548 0)
(0.0993726 -0.00210734 0)
(0.0993751 -0.0020215 0)
(0.0993796 -0.00193797 0)
(0.0993859 -0.00185673 0)
(0.0993938 -0.00177776 0)
(0.0994032 -0.00170103 0)
(0.099414 -0.00162651 0)
(0.099426 -0.00155419 0)
(0.0994392 -0.00148403 0)
(0.0994533 -0.00141602 0)
(0.0994683 -0.00135015 0)
(0.099484 -0.00128639 0)
(0.0995003 -0.00122473 0)
(0.0995172 -0.00116514 0)
(0.0995345 -0.00110761 0)
(0.0995521 -0.00105209 0)
(0.09957 -0.000998566 0)
(0.0995881 -0.000947003 0)
(0.0996062 -0.000897366 0)
(0.0996244 -0.000849622 0)
(0.10032 -0.00453142 0)
(0.100242 -0.00442797 0)
(0.100168 -0.00432354 0)
(0.100097 -0.0042183 0)
(0.10003 -0.00411242 0)
(0.0999677 -0.0040061 0)
(0.0999086 -0.0038995 0)
(0.0998533 -0.00379282 0)
(0.0998018 -0.00368622 0)
(0.0997539 -0.00357987 0)
(0.0997097 -0.00347393 0)
(0.099669 -0.00336856 0)
(0.0996319 -0.00326389 0)
(0.0995982 -0.00316007 0)
(0.0995679 -0.0030572 0)
(0.0995408 -0.00295541 0)
(0.099517 -0.0028548 0)
(0.0994962 -0.00275549 0)
(0.0994785 -0.0026576 0)
(0.0994637 -0.00256126 0)
(0.0994517 -0.00246662 0)
(0.0994424 -0.00237382 0)
(0.0994357 -0.00228296 0)
(0.0994313 -0.00219416 0)
(0.0994293 -0.00210748 0)
(0.0994293 -0.00202295 0)
(0.0994314 -0.00194058 0)
(0.0994353 -0.00186037 0)
(0.099441 -0.00178231 0)
(0.0994482 -0.00170636 0)
(0.0994568 -0.00163252 0)
(0.0994668 -0.00156076 0)
(0.0994779 -0.00149107 0)
(0.0994901 -0.00142345 0)
(0.0995032 -0.00135788 0)
(0.0995171 -0.00129435 0)
(0.0995317 -0.00123285 0)
(0.0995469 -0.00117337 0)
(0.0995625 -0.00111588 0)
(0.0995786 -0.00106036 0)
(0.099595 -0.00100678 0)
(0.0996117 -0.000955136 0)
(0.0996285 -0.000905381 0)
(0.0996454 -0.000857488 0)
(0.100425 -0.00444686 0)
(0.100346 -0.00434885 0)
(0.100271 -0.00424971 0)
(0.100199 -0.00414959 0)
(0.100131 -0.00404868 0)
(0.100067 -0.00394715 0)
(0.100006 -0.00384518 0)
(0.0999488 -0.00374294 0)
(0.0998954 -0.0036406 0)
(0.0998455 -0.00353832 0)
(0.0997991 -0.00343628 0)
(0.0997563 -0.00333462 0)
(0.0997168 -0.00323348 0)
(0.0996808 -0.003133 0)
(0.0996481 -0.00303331 0)
(0.0996186 -0.00293451 0)
(0.0995923 -0.00283672 0)
(0.0995691 -0.00274006 0)
(0.0995489 -0.00264466 0)
(0.0995316 -0.00255065 0)
(0.0995172 -0.00245816 0)
(0.0995054 -0.00236735 0)
(0.0994962 -0.00227833 0)
(0.0994894 -0.0021912 0)
(0.099485 -0.00210603 0)
(0.0994827 -0.00202287 0)
(0.0994825 -0.00194173 0)
(0.0994841 -0.00186262 0)
(0.0994876 -0.00178552 0)
(0.0994926 -0.00171042 0)
(0.0994992 -0.00163731 0)
(0.0995071 -0.00156618 0)
(0.0995163 -0.00149703 0)
(0.0995266 -0.00142984 0)
(0.0995378 -0.00136463 0)
(0.0995499 -0.00130139 0)
(0.0995628 -0.0012401 0)
(0.0995764 -0.00118077 0)
(0.0995905 -0.00112337 0)
(0.0996051 -0.00106789 0)
(0.09962 -0.00101432 0)
(0.0996353 -0.000962628 0)
(0.0996508 -0.000912794 0)
(0.0996663 -0.000864791 0)
(0.100524 -0.00436163 0)
(0.100445 -0.00426888 0)
(0.100369 -0.00417486 0)
(0.100296 -0.00407972 0)
(0.100227 -0.00398365 0)
(0.100161 -0.0038868 0)
(0.100099 -0.00378935 0)
(0.10004 -0.00369146 0)
(0.0999852 -0.00359331 0)
(0.0999335 -0.00349506 0)
(0.0998852 -0.00339686 0)
(0.0998404 -0.00329887 0)
(0.0997989 -0.00320124 0)
(0.0997607 -0.0031041 0)
(0.0997258 -0.00300757 0)
(0.0996941 -0.00291177 0)
(0.0996655 -0.00281682 0)
(0.09964 -0.00272283 0)
(0.0996175 -0.00262995 0)
(0.0995979 -0.00253829 0)
(0.0995811 -0.002448 0)
(0.0995669 -0.00235922 0)
(0.0995554 -0.00227207 0)
(0.0995463 -0.00218666 0)
(0.0995396 -0.00210307 0)
(0.0995351 -0.00202133 0)
(0.0995327 -0.00194148 0)
(0.0995322 -0.00186352 0)
(0.0995335 -0.00178744 0)
(0.0995365 -0.00171325 0)
(0.0995411 -0.00164093 0)
(0.099547 -0.00157048 0)
(0.0995543 -0.00150192 0)
(0.0995627 -0.00143523 0)
(0.0995722 -0.00137043 0)
(0.0995826 -0.00130752 0)
(0.0995938 -0.0012465 0)
(0.0996058 -0.00118736 0)
(0.0996183 -0.0011301 0)
(0.0996314 -0.00107471 0)
(0.099645 -0.00102118 0)
(0.0996588 -0.000969486 0)
(0.099673 -0.000919612 0)
(0.0996873 -0.000871535 0)
(0.100618 -0.00427599 0)
(0.100538 -0.00418831 0)
(0.100461 -0.00409924 0)
(0.100388 -0.00400893 0)
(0.100318 -0.00391755 0)
(0.100251 -0.00382526 0)
(0.100188 -0.00373222 0)
(0.100128 -0.0036386 0)
(0.100071 -0.00354456 0)
(0.100018 -0.00345026 0)
(0.099968 -0.00335586 0)
(0.0999214 -0.0032615 0)
(0.099878 -0.00316734 0)
(0.0998379 -0.00307351 0)
(0.099801 -0.00298014 0)
(0.0997673 -0.00288734 0)
(0.0997366 -0.00279523 0)
(0.0997089 -0.00270393 0)
(0.0996842 -0.00261357 0)
(0.0996624 -0.00252429 0)
(0.0996434 -0.00243622 0)
(0.0996271 -0.00234951 0)
(0.0996133 -0.00226428 0)
(0.0996021 -0.00218064 0)
(0.0995932 -0.00209867 0)
(0.0995866 -0.00201841 0)
(0.099582 -0.00193989 0)
(0.0995795 -0.00186313 0)
(0.0995788 -0.00178813 0)
(0.0995798 -0.00171489 0)
(0.0995824 -0.00164341 0)
(0.0995865 -0.0015737 0)
(0.0995919 -0.00150578 0)
(0.0995985 -0.00143964 0)
(0.0996063 -0.0013753 0)
(0.099615 -0.00131277 0)
(0.0996246 -0.00125206 0)
(0.0996349 -0.00119317 0)
(0.099646 -0.00113609 0)
(0.0996576 -0.00108083 0)
(0.0996697 -0.00102738 0)
(0.0996822 -0.000975719 0)
(0.0996951 -0.000925841 0)
(0.0997082 -0.000877727 0)
(0.100706 -0.00419016 0)
(0.100626 -0.00410736 0)
(0.100549 -0.00402307 0)
(0.100475 -0.00393744 0)
(0.100405 -0.00385061 0)
(0.100337 -0.00376275 0)
(0.100273 -0.00367401 0)
(0.100212 -0.00358455 0)
(0.100154 -0.00349454 0)
(0.100099 -0.00340411 0)
(0.100048 -0.00331344 0)
(0.0999993 -0.00322268 0)
(0.0999543 -0.00313195 0)
(0.0999125 -0.0030414 0)
(0.0998737 -0.00295116 0)
(0.0998381 -0.00286134 0)
(0.0998054 -0.00277207 0)
(0.0997758 -0.00268346 0)
(0.0997491 -0.00259564 0)
(0.0997252 -0.00250875 0)
(0.0997041 -0.00242294 0)
(0.0996857 -0.00233832 0)
(0.0996699 -0.00225505 0)
(0.0996566 -0.00217321 0)
(0.0996457 -0.00209289 0)
(0.099637 -0.00201415 0)
(0.0996305 -0.00193701 0)
(0.0996259 -0.0018615 0)
(0.0996233 -0.00178763 0)
(0.0996224 -0.00171539 0)
(0.0996231 -0.0016448 0)
(0.0996254 -0.00157588 0)
(0.099629 -0.00150864 0)
(0.0996339 -0.00144309 0)
(0.0996399 -0.00137926 0)
(0.099647 -0.00131716 0)
(0.099655 -0.0012568 0)
(0.0996639 -0.00119819 0)
(0.0996734 -0.00114134 0)
(0.0996836 -0.00108625 0)
(0.0996943 -0.00103292 0)
(0.0997055 -0.000981333 0)
(0.099717 -0.000931489 0)
(0.0997289 -0.000883372 0)
(0.100789 -0.00410437 0)
(0.100709 -0.00402626 0)
(0.100632 -0.00394657 0)
(0.100558 -0.00386545 0)
(0.100487 -0.00378303 0)
(0.100419 -0.00369946 0)
(0.100353 -0.00361491 0)
(0.100291 -0.00352951 0)
(0.100232 -0.00344342 0)
(0.100177 -0.0033568 0)
(0.100124 -0.00326979 0)
(0.100074 -0.00318255 0)
(0.100028 -0.00309521 0)
(0.0999843 -0.00300791 0)
(0.0999439 -0.00292077 0)
(0.0999066 -0.00283392 0)
(0.0998722 -0.00274747 0)
(0.0998407 -0.00266154 0)
(0.0998121 -0.00257627 0)
(0.0997863 -0.00249179 0)
(0.0997633 -0.00240823 0)
(0.099743 -0.00232574 0)
(0.0997252 -0.00224444 0)
(0.0997099 -0.00216443 0)
(0.099697 -0.00208581 0)
(0.0996864 -0.00200862 0)
(0.099678 -0.00193291 0)
(0.0996715 -0.00185869 0)
(0.099667 -0.00178598 0)
(0.0996643 -0.00171479 0)
(0.0996632 -0.00164514 0)
(0.0996637 -0.00157705 0)
(0.0996656 -0.00151053 0)
(0.0996688 -0.00144562 0)
(0.0996732 -0.00138234 0)
(0.0996787 -0.0013207 0)
(0.0996851 -0.00126074 0)
(0.0996925 -0.00120246 0)
(0.0997005 -0.00114588 0)
(0.0997093 -0.00109099 0)
(0.0997187 -0.00103781 0)
(0.0997285 -0.000986339 0)
(0.0997388 -0.000936563 0)
(0.0997494 -0.000888476 0)
(0.100868 -0.00401879 0)
(0.100788 -0.00394519 0)
(0.100711 -0.00386993 0)
(0.100636 -0.00379315 0)
(0.100565 -0.00371499 0)
(0.100496 -0.00363559 0)
(0.10043 -0.00355509 0)
(0.100368 -0.00347363 0)
(0.100308 -0.00339138 0)
(0.100251 -0.00330847 0)
(0.100197 -0.00322505 0)
(0.100146 -0.00314127 0)
(0.100098 -0.00305727 0)
(0.100054 -0.00297317 0)
(0.100012 -0.0028891 0)
(0.0999728 -0.00280519 0)
(0.0999367 -0.00272154 0)
(0.0999036 -0.00263829 0)
(0.0998733 -0.00255556 0)
(0.0998457 -0.00247348 0)
(0.0998209 -0.00239219 0)
(0.0997987 -0.00231184 0)
(0.0997791 -0.00223253 0)
(0.099762 -0.00215439 0)
(0.0997473 -0.00207749 0)
(0.0997348 -0.00200189 0)
(0.0997245 -0.00192764 0)
(0.0997163 -0.00185474 0)
(0.09971 -0.00178324 0)
(0.0997055 -0.00171313 0)
(0.0997027 -0.00164446 0)
(0.0997015 -0.00157723 0)
(0.0997017 -0.00151148 0)
(0.0997033 -0.00144725 0)
(0.0997061 -0.00138455 0)
(0.09971 -0.00132343 0)
(0.0997149 -0.0012639 0)
(0.0997207 -0.00120598 0)
(0.0997274 -0.0011497 0)
(0.0997348 -0.00109506 0)
(0.0997428 -0.00104208 0)
(0.0997513 -0.000990745 0)
(0.0997604 -0.00094107 0)
(0.0997698 -0.000893046 0)
(0.100941 -0.00393361 0)
(0.100862 -0.00386432 0)
(0.100785 -0.00379331 0)
(0.100711 -0.00372072 0)
(0.100639 -0.00364666 0)
(0.10057 -0.00357128 0)
(0.100504 -0.00349471 0)
(0.10044 -0.00341709 0)
(0.10038 -0.00333857 0)
(0.100322 -0.00325928 0)
(0.100267 -0.00317937 0)
(0.100215 -0.00309899 0)
(0.100166 -0.00301826 0)
(0.10012 -0.00293731 0)
(0.100077 -0.00285627 0)
(0.100037 -0.00277526 0)
(0.0999992 -0.0026944 0)
(0.0999645 -0.00261381 0)
(0.0999326 -0.0025336 0)
(0.0999034 -0.00245393 0)
(0.0998769 -0.00237492 0)
(0.099853 -0.0022967 0)
(0.0998317 -0.00221941 0)
(0.0998128 -0.00214315 0)
(0.0997964 -0.002068 0)
(0.0997822 -0.00199402 0)
(0.0997701 -0.00192125 0)
(0.0997602 -0.00184971 0)
(0.0997521 -0.00177944 0)
(0.099746 -0.00171046 0)
(0.0997415 -0.00164279 0)
(0.0997386 -0.00157647 0)
(0.0997372 -0.00151153 0)
(0.0997372 -0.001448 0)
(0.0997384 -0.00138593 0)
(0.0997408 -0.00132535 0)
(0.0997443 -0.00126629 0)
(0.0997487 -0.00120878 0)
(0.0997539 -0.00115283 0)
(0.0997599 -0.00109847 0)
(0.0997666 -0.00104571 0)
(0.0997739 -0.000994559 0)
(0.0997817 -0.000945018 0)
(0.0997899 -0.000897088 0)
(0.10101 -0.00384898 0)
(0.100931 -0.00378381 0)
(0.100855 -0.00371688 0)
(0.100781 -0.00364831 0)
(0.100709 -0.00357821 0)
(0.10064 -0.00350671 0)
(0.100573 -0.00343394 0)
(0.10051 -0.00336004 0)
(0.100449 -0.00328514 0)
(0.10039 -0.00320938 0)
(0.100335 -0.0031329 0)
(0.100282 -0.00305583 0)
(0.100232 -0.00297831 0)
(0.100185 -0.00290046 0)
(0.10014 -0.00282241 0)
(0.100099 -0.00274427 0)
(0.10006 -0.00266615 0)
(0.100024 -0.00258819 0)
(0.0999902 -0.0025105 0)
(0.0999595 -0.00243322 0)
(0.0999314 -0.00235648 0)
(0.099906 -0.00228041 0)
(0.099883 -0.00220515 0)
(0.0998625 -0.00213078 0)
(0.0998444 -0.00205739 0)
(0.0998285 -0.00198505 0)
(0.0998148 -0.00191379 0)
(0.0998032 -0.00184364 0)
(0.0997935 -0.00177464 0)
(0.0997857 -0.00170681 0)
(0.0997796 -0.00164018 0)
(0.0997752 -0.00157479 0)
(0.0997722 -0.00151069 0)
(0.0997706 -0.00144791 0)
(0.0997704 -0.0013865 0)
(0.0997713 -0.00132649 0)
(0.0997733 -0.00126794 0)
(0.0997762 -0.00121086 0)
(0.0997801 -0.00115528 0)
(0.0997848 -0.00110124 0)
(0.0997902 -0.00104873 0)
(0.0997962 -0.000997791 0)
(0.0998028 -0.000948414 0)
(0.0998098 -0.000900608 0)
(0.101075 -0.00376502 0)
(0.100997 -0.0037038 0)
(0.100921 -0.00364077 0)
(0.100847 -0.00357606 0)
(0.100776 -0.00350976 0)
(0.100707 -0.003442 0)
(0.10064 -0.00337291 0)
(0.100576 -0.00330261 0)
(0.100514 -0.00323122 0)
(0.100455 -0.00315889 0)
(0.100399 -0.00308575 0)
(0.100346 -0.00301192 0)
(0.100295 -0.00293754 0)
(0.100247 -0.00286273 0)
(0.100201 -0.00278761 0)
(0.100158 -0.00271229 0)
(0.100118 -0.0026369 0)
(0.100081 -0.00256154 0)
(0.100046 -0.00248634 0)
(0.100014 -0.00241144 0)
(0.0999845 -0.00233696 0)
(0.0999575 -0.00226304 0)
(0.099933 -0.0021898 0)
(0.099911 -0.00211734 0)
(0.0998913 -0.00204573 0)
(0.0998739 -0.00197504 0)
(0.0998586 -0.00190531 0)
(0.0998454 -0.00183658 0)
(0.0998341 -0.00176887 0)
(0.0998248 -0.00170221 0)
(0.0998171 -0.00163665 0)
(0.0998111 -0.00157223 0)
(0.0998066 -0.00150899 0)
(0.0998036 -0.00144699 0)
(0.0998018 -0.00138627 0)
(0.0998013 -0.00132687 0)
(0.0998018 -0.00126885 0)
(0.0998034 -0.00121224 0)
(0.0998059 -0.00115707 0)
(0.0998093 -0.00110336 0)
(0.0998134 -0.00105115 0)
(0.0998182 -0.00100045 0)
(0.0998236 -0.000951265 0)
(0.0998295 -0.000903612 0)
(0.101137 -0.00368188 0)
(0.101059 -0.00362441 0)
(0.100983 -0.00356512 0)
(0.10091 -0.0035041 0)
(0.100839 -0.00344146 0)
(0.10077 -0.0033773 0)
(0.100703 -0.00331175 0)
(0.100639 -0.00324492 0)
(0.100577 -0.00317694 0)
(0.100518 -0.00310794 0)
(0.100461 -0.00303804 0)
(0.100407 -0.00296738 0)
(0.100355 -0.00289607 0)
(0.100306 -0.00282423 0)
(0.10026 -0.00275199 0)
(0.100216 -0.00267945 0)
(0.100175 -0.00260673 0)
(0.100136 -0.00253394 0)
(0.1001 -0.00246121 0)
(0.100067 -0.00238867 0)
(0.100036 -0.00231644 0)
(0.100008 -0.00224466 0)
(0.0999819 -0.00217345 0)
(0.0999584 -0.00210289 0)
(0.0999372 -0.00203307 0)
(0.0999183 -0.00196405 0)
(0.0999015 -0.00189587 0)
(0.0998868 -0.00182856 0)
(0.099874 -0.00176216 0)
(0.0998631 -0.0016967 0)
(0.099854 -0.00163224 0)
(0.0998465 -0.0015688 0)
(0.0998405 -0.00150646 0)
(0.099836 -0.00144526 0)
(0.0998328 -0.00138526 0)
(0.0998308 -0.0013265 0)
(0.09983 -0.00126905 0)
(0.0998302 -0.00121293 0)
(0.0998314 -0.00115819 0)
(0.0998335 -0.00110486 0)
(0.0998363 -0.00105297 0)
(0.0998399 -0.00100254 0)
(0.0998441 -0.000953579 0)
(0.0998488 -0.000906108 0)
(0.101194 -0.00359964 0)
(0.101117 -0.00354576 0)
(0.101042 -0.00349003 0)
(0.10097 -0.00343255 0)
(0.100899 -0.00337341 0)
(0.10083 -0.00331271 0)
(0.100763 -0.00325057 0)
(0.100699 -0.0031871 0)
(0.100637 -0.00312241 0)
(0.100578 -0.00305664 0)
(0.100521 -0.0029899 0)
(0.100466 -0.00292231 0)
(0.100414 -0.00285399 0)
(0.100364 -0.00278507 0)
(0.100317 -0.00271564 0)
(0.100272 -0.00264583 0)
(0.10023 -0.00257574 0)
(0.10019 -0.00250549 0)
(0.100153 -0.0024352 0)
(0.100118 -0.00236499 0)
(0.100086 -0.002295 0)
(0.100057 -0.00222534 0)
(0.10003 -0.00215614 0)
(0.100005 -0.00208749 0)
(0.0999821 -0.00201947 0)
(0.0999617 -0.00195212 0)
(0.0999435 -0.00188549 0)
(0.0999274 -0.00181963 0)
(0.0999131 -0.00175456 0)
(0.0999008 -0.00169032 0)
(0.0998902 -0.00162696 0)
(0.0998812 -0.00156455 0)
(0.0998738 -0.00150312 0)
(0.0998679 -0.00144275 0)
(0.0998633 -0.00138349 0)
(0.0998599 -0.00132541 0)
(0.0998578 -0.00126854 0)
(0.0998567 -0.00121295 0)
(0.0998566 -0.00115868 0)
(0.0998573 -0.00110575 0)
(0.099859 -0.00105421 0)
(0.0998613 -0.00100407 0)
(0.0998643 -0.000955363 0)
(0.099868 -0.000908101 0)
(0.105599 -0.00951041 0)
(0.105142 -0.00946678 0)
(0.104703 -0.00939866 0)
(0.104282 -0.00930854 0)
(0.10388 -0.00919896 0)
(0.103498 -0.00907245 0)
(0.103135 -0.00893141 0)
(0.102791 -0.0087781 0)
(0.102467 -0.00861455 0)
(0.102162 -0.00844263 0)
(0.101876 -0.00826399 0)
(0.101608 -0.0080801 0)
(0.101357 -0.00789224 0)
(0.101123 -0.00770158 0)
(0.100906 -0.00750913 0)
(0.100704 -0.0073158 0)
(0.100518 -0.00712239 0)
(0.100345 -0.00692961 0)
(0.100186 -0.00673809 0)
(0.10004 -0.00654838 0)
(0.0999062 -0.00636095 0)
(0.0997834 -0.00617623 0)
(0.0996713 -0.00599456 0)
(0.0995692 -0.00581625 0)
(0.0994765 -0.00564154 0)
(0.0993925 -0.00547063 0)
(0.0993167 -0.00530368 0)
(0.105624 -0.0090578 0)
(0.105191 -0.00903016 0)
(0.104773 -0.00897895 0)
(0.104372 -0.00890644 0)
(0.103987 -0.00881497 0)
(0.103619 -0.00870685 0)
(0.10327 -0.00858435 0)
(0.102937 -0.00844953 0)
(0.102623 -0.00830434 0)
(0.102326 -0.00815049 0)
(0.102046 -0.00798955 0)
(0.101783 -0.00782289 0)
(0.101537 -0.00765175 0)
(0.101306 -0.00747723 0)
(0.101091 -0.0073003 0)
(0.10089 -0.00712184 0)
(0.100704 -0.00694263 0)
(0.100531 -0.00676337 0)
(0.100371 -0.00658469 0)
(0.100223 -0.00640713 0)
(0.100087 -0.00623118 0)
(0.0999614 -0.00605729 0)
(0.0998464 -0.0058858 0)
(0.0997411 -0.00571704 0)
(0.099645 -0.00555129 0)
(0.0995574 -0.00538875 0)
(0.0994778 -0.00522962 0)
(0.105636 -0.00862933 0)
(0.105225 -0.00861558 0)
(0.104828 -0.00857916 0)
(0.104445 -0.00852219 0)
(0.104077 -0.00844682 0)
(0.103724 -0.00835521 0)
(0.103387 -0.00824944 0)
(0.103066 -0.00813145 0)
(0.102761 -0.00800304 0)
(0.102473 -0.0078658 0)
(0.1022 -0.00772121 0)
(0.101942 -0.00757056 0)
(0.1017 -0.00741501 0)
(0.101473 -0.0072556 0)
(0.10126 -0.00709326 0)
(0.101061 -0.00692884 0)
(0.100876 -0.00676308 0)
(0.100703 -0.00659668 0)
(0.100543 -0.00643024 0)
(0.100394 -0.00626433 0)
(0.100256 -0.00609942 0)
(0.100129 -0.00593596 0)
(0.100012 -0.00577433 0)
(0.0999039 -0.00561485 0)
(0.0998049 -0.00545782 0)
(0.0997143 -0.00530347 0)
(0.0996315 -0.00515201 0)
(0.105636 -0.00822368 0)
(0.105247 -0.00822189 0)
(0.104869 -0.00819839 0)
(0.104503 -0.00815511 0)
(0.104151 -0.00809407 0)
(0.103813 -0.00801726 0)
(0.103488 -0.0079266 0)
(0.103179 -0.0078239 0)
(0.102884 -0.00771081 0)
(0.102603 -0.00758884 0)
(0.102338 -0.00745934 0)
(0.102086 -0.00732353 0)
(0.101849 -0.0071825 0)
(0.101626 -0.00703722 0)
(0.101416 -0.00688857 0)
(0.10122 -0.00673737 0)
(0.101035 -0.00658434 0)
(0.100863 -0.00643014 0)
(0.100703 -0.00627538 0)
(0.100554 -0.00612059 0)
(0.100415 -0.00596626 0)
(0.100287 -0.00581284 0)
(0.100168 -0.00566072 0)
(0.100058 -0.00551023 0)
(0.0999565 -0.00536167 0)
(0.0998633 -0.00521531 0)
(0.0997778 -0.00507136 0)
(0.105626 -0.00783955 0)
(0.105256 -0.00784801 0)
(0.104897 -0.00783574 0)
(0.104548 -0.00780453 0)
(0.104211 -0.00775622 0)
(0.103887 -0.00769267 0)
(0.103575 -0.00761564 0)
(0.103277 -0.00752682 0)
(0.102991 -0.00742773 0)
(0.10272 -0.00731977 0)
(0.102461 -0.00720419 0)
(0.102216 -0.00708213 0)
(0.101984 -0.0069546 0)
(0.101765 -0.00682252 0)
(0.101559 -0.00668672 0)
(0.101365 -0.00654796 0)
(0.101183 -0.00640694 0)
(0.101012 -0.0062643 0)
(0.100852 -0.00612063 0)
(0.100703 -0.00597645 0)
(0.100564 -0.00583225 0)
(0.100435 -0.00568847 0)
(0.100314 -0.0055455 0)
(0.100203 -0.0054037 0)
(0.1001 -0.00526335 0)
(0.100005 -0.00512475 0)
(0.0999168 -0.00498812 0)
(0.105605 -0.00747582 0)
(0.105255 -0.00749298 0)
(0.104913 -0.00749044 0)
(0.104581 -0.00746981 0)
(0.104259 -0.00743279 0)
(0.103948 -0.0073811 0)
(0.103648 -0.00731636 0)
(0.103361 -0.00724012 0)
(0.103085 -0.00715381 0)
(0.102822 -0.0070587 0)
(0.102571 -0.00695596 0)
(0.102333 -0.00684662 0)
(0.102106 -0.00673164 0)
(0.101892 -0.00661187 0)
(0.101689 -0.0064881 0)
(0.101498 -0.00636103 0)
(0.101318 -0.00623134 0)
(0.101149 -0.00609964 0)
(0.10099 -0.00596648 0)
(0.100842 -0.00583241 0)
(0.100703 -0.00569788 0)
(0.100573 -0.00556333 0)
(0.100452 -0.00542916 0)
(0.10034 -0.00529572 0)
(0.100235 -0.00516332 0)
(0.100138 -0.00503224 0)
(0.100049 -0.00490272 0)
(0.105577 -0.0071314 0)
(0.105245 -0.0071559 0)
(0.10492 -0.00716171 0)
(0.104603 -0.00715031 0)
(0.104295 -0.00712327 0)
(0.103997 -0.00708216 0)
(0.10371 -0.00702849 0)
(0.103433 -0.00696367 0)
(0.103167 -0.006889 0)
(0.102912 -0.00680568 0)
(0.102669 -0.00671475 0)
(0.102437 -0.00661719 0)
(0.102216 -0.00651387 0)
(0.102007 -0.00640558 0)
(0.101808 -0.00629305 0)
(0.10162 -0.00617695 0)
(0.101443 -0.00605793 0)
(0.101276 -0.00593655 0)
(0.101119 -0.00581337 0)
(0.100971 -0.0056889 0)
(0.100833 -0.00556358 0)
(0.100703 -0.00543787 0)
(0.100582 -0.00531213 0)
(0.100469 -0.00518674 0)
(0.100363 -0.00506199 0)
(0.100265 -0.00493818 0)
(0.100174 -0.00481556 0)
(0.105541 -0.00680522 0)
(0.105226 -0.00683583 0)
(0.104917 -0.00684876 0)
(0.104615 -0.00684539 0)
(0.104321 -0.00682715 0)
(0.104036 -0.00679547 0)
(0.10376 -0.00675175 0)
(0.103493 -0.00669727 0)
(0.103237 -0.00663323 0)
(0.10299 -0.0065607 0)
(0.102755 -0.00648066 0)
(0.102529 -0.00639398 0)
(0.102315 -0.00630148 0)
(0.10211 -0.00620387 0)
(0.101916 -0.00610185 0)
(0.101732 -0.00599605 0)
(0.101558 -0.00588705 0)
(0.101393 -0.00577541 0)
(0.101238 -0.00566167 0)
(0.101091 -0.0055463 0)
(0.100954 -0.00542976 0)
(0.100824 -0.00531246 0)
(0.100703 -0.0051948 0)
(0.10059 -0.00507712 0)
(0.100484 -0.00495975 0)
(0.100385 -0.00484296 0)
(0.100292 -0.00472702 0)
(0.105499 -0.00649626 0)
(0.1052 -0.00653188 0)
(0.104906 -0.00655085 0)
(0.104619 -0.00655442 0)
(0.104338 -0.00654391 0)
(0.104065 -0.00652063 0)
(0.1038 -0.00648584 0)
(0.103543 -0.00644073 0)
(0.103296 -0.00638636 0)
(0.103058 -0.00632372 0)
(0.10283 -0.0062537 0)
(0.102611 -0.00617708 0)
(0.102403 -0.00609461 0)
(0.102203 -0.00600695 0)
(0.102014 -0.00591474 0)
(0.101833 -0.00581857 0)
(0.101662 -0.00571899 0)
(0.1015 -0.00561653 0)
(0.101347 -0.0055117 0)
(0.101202 -0.00540495 0)
(0.101066 -0.00529674 0)
(0.100938 -0.00518747 0)
(0.100817 -0.00507752 0)
(0.100703 -0.00496724 0)
(0.100597 -0.00485694 0)
(0.100498 -0.00474692 0)
(0.100404 -0.00463742 0)
(0.105451 -0.00620352 0)
(0.105168 -0.00624319 0)
(0.104888 -0.00626723 0)
(0.104614 -0.00627678 0)
(0.104346 -0.00627305 0)
(0.104084 -0.00625723 0)
(0.10383 -0.00623047 0)
(0.103584 -0.00619383 0)
(0.103346 -0.00614828 0)
(0.103116 -0.0060947 0)
(0.102896 -0.00603388 0)
(0.102684 -0.00596656 0)
(0.102481 -0.00589338 0)
(0.102287 -0.00581497 0)
(0.102102 -0.00573191 0)
(0.101926 -0.00564474 0)
(0.101758 -0.005554 0)
(0.101599 -0.00546017 0)
(0.101448 -0.00536374 0)
(0.101305 -0.00526516 0)
(0.10117 -0.00516485 0)
(0.101043 -0.00506322 0)
(0.100923 -0.00496062 0)
(0.10081 -0.00485741 0)
(0.100704 -0.00475389 0)
(0.100604 -0.00465036 0)
(0.10051 -0.00454708 0)
(0.105399 -0.00592607 0)
(0.10513 -0.00596895 0)
(0.104864 -0.0059972 0)
(0.104602 -0.00601188 0)
(0.104346 -0.00601408 0)
(0.104096 -0.00600489 0)
(0.103852 -0.00598533 0)
(0.103616 -0.00595635 0)
(0.103386 -0.00591882 0)
(0.103165 -0.00587353 0)
(0.102952 -0.00582119 0)
(0.102747 -0.00576243 0)
(0.10255 -0.00569786 0)
(0.102362 -0.00562804 0)
(0.102181 -0.0055535 0)
(0.102009 -0.00547475 0)
(0.101845 -0.00539228 0)
(0.101689 -0.00530657 0)
(0.101541 -0.00521806 0)
(0.1014 -0.00512718 0)
(0.101267 -0.00503436 0)
(0.101141 -0.00493996 0)
(0.101022 -0.00484437 0)
(0.100909 -0.0047479 0)
(0.100803 -0.00465088 0)
(0.100704 -0.00455358 0)
(0.10061 -0.00445628 0)
(0.105341 -0.00566301 0)
(0.105086 -0.00570838 0)
(0.104833 -0.00574011 0)
(0.104584 -0.00575916 0)
(0.104339 -0.00576655 0)
(0.1041 -0.00576323 0)
(0.103866 -0.00575012 0)