/*--------------------------------*- C++ -*----------------------------------*\
| =========                 |                                                 |
| \\      /  F ield         | OpenFOAM: The Open Source CFD Toolbox           |
|  \\    /   O peration     | Version:  2412                                  |
|   \\  /    A nd           | Website:  www.openfoam.com                      |
|    \\/     M anipulation  |                                                 |
\*---------------------------------------------------------------------------*/
FoamFile
{
    version     2.0;
    format      ascii;
    arch        "LSB;label=32;scalar=64";
    class       volVectorField;
    location    "5.5";
    object      U;
}
// * * * * * * * * * * * * * * * * * * * * * * * * * * * * * * * * * * * * * //

dimensions      [0 1 -1 0 0 0 0];

internalField   nonuniform List<vector> 
5285
(
(0.100744 0.00276958 0)
(0.100692 0.00272356 0)
(0.100641 0.00267648 0)
(0.100592 0.00262843 0)
(0.100544 0.00257949 0)
(0.100498 0.00252974 0)
(0.100454 0.00247924 0)
(0.100411 0.00242805 0)
(0.10037 0.00237618 0)
(0.100331 0.00232367 0)
(0.100294 0.00227057 0)
(0.100258 0.00221697 0)
(0.100225 0.002163 0)
(0.100193 0.00210882 0)
(0.100163 0.00205459 0)
(0.100135 0.00200042 0)
(0.100109 0.0019464 0)
(0.100085 0.00189257 0)
(0.100062 0.00183894 0)
(0.100042 0.00178553 0)
(0.100023 0.00173232 0)
(0.100005 0.00167935 0)
(0.0999896 0.00162665 0)
(0.0999754 0.00157426 0)
(0.0999627 0.00152226 0)
(0.0999513 0.00147069 0)
(0.0999413 0.00141962 0)
(0.0999326 0.00136913 0)
(0.0999251 0.00131926 0)
(0.0999188 0.00127008 0)
(0.0999135 0.00122165 0)
(0.0999092 0.00117401 0)
(0.0999059 0.00112722 0)
(0.0999035 0.00108131 0)
(0.0999019 0.00103632 0)
(0.0999011 0.000992299 0)
(0.0999011 0.000949265 0)
(0.0999016 0.000907249 0)
(0.0999028 0.000866276 0)
(0.0999046 0.000826364 0)
(0.0999068 0.000787531 0)
(0.0999095 0.000749789 0)
(0.0999126 0.000713148 0)
(0.099916 0.000677616 0)
(0.100696 0.00282564 0)
(0.100644 0.00277694 0)
(0.100593 0.00272721 0)
(0.100543 0.00267654 0)
(0.100496 0.00262502 0)
(0.10045 0.00257273 0)
(0.100406 0.00251976 0)
(0.100364 0.00246614 0)
(0.100323 0.00241191 0)
(0.100284 0.0023571 0)
(0.100248 0.00230175 0)
(0.100213 0.00224597 0)
(0.10018 0.00218987 0)
(0.100149 0.00213362 0)
(0.10012 0.00207737 0)
(0.100093 0.00202127 0)
(0.100068 0.00196539 0)
(0.100044 0.00190979 0)
(0.100023 0.00185449 0)
(0.100003 0.0017995 0)
(0.0999852 0.00174481 0)
(0.0999689 0.00169046 0)
(0.0999543 0.00163647 0)
(0.0999412 0.00158289 0)
(0.0999296 0.00152977 0)
(0.0999194 0.00147717 0)
(0.0999106 0.00142516 0)
(0.099903 0.00137379 0)
(0.0998966 0.00132312 0)
(0.0998913 0.00127321 0)
(0.0998872 0.00122411 0)
(0.099884 0.00117586 0)
(0.0998818 0.00112851 0)
(0.0998805 0.00108211 0)
(0.09988 0.00103668 0)
(0.0998802 0.000992261 0)
(0.0998812 0.000948878 0)
(0.0998827 0.000906555 0)
(0.0998849 0.000865314 0)
(0.0998876 0.000825171 0)
(0.0998908 0.000786141 0)
(0.0998944 0.000748234 0)
(0.0998983 0.000711458 0)
(0.0999026 0.000675817 0)
(0.100645 0.0028819 0)
(0.100593 0.00283041 0)
(0.100542 0.00277793 0)
(0.100493 0.00272455 0)
(0.100445 0.00267037 0)
(0.1004 0.00261548 0)
(0.100356 0.00255995 0)
(0.100314 0.00250384 0)
(0.100274 0.00244719 0)
(0.100236 0.00239001 0)
(0.1002 0.00233237 0)
(0.100166 0.00227435 0)
(0.100134 0.00221608 0)
(0.100104 0.00215772 0)
(0.100076 0.00209945 0)
(0.100049 0.00204138 0)
(0.100025 0.00198363 0)
(0.100003 0.00192626 0)
(0.0999824 0.00186928 0)
(0.0999638 0.0018127 0)
(0.099947 0.00175654 0)
(0.0999319 0.00170081 0)
(0.0999184 0.00164553 0)
(0.0999064 0.00159076 0)
(0.099896 0.00153654 0)
(0.0998869 0.00148293 0)
(0.0998792 0.00142998 0)
(0.0998728 0.00137775 0)
(0.0998676 0.00132629 0)
(0.0998635 0.00127566 0)
(0.0998604 0.00122591 0)
(0.0998584 0.00117708 0)
(0.0998573 0.0011292 0)
(0.0998571 0.00108232 0)
(0.0998577 0.00103647 0)
(0.099859 0.000991676 0)
(0.0998609 0.000947965 0)
(0.0998635 0.000905357 0)
(0.0998667 0.000863871 0)
(0.0998704 0.00082352 0)
(0.0998744 0.000784315 0)
(0.0998789 0.000746265 0)
(0.0998838 0.000709374 0)
(0.0998889 0.000673644 0)
(0.100592 0.00293826 0)
(0.100539 0.00288388 0)
(0.100488 0.00282855 0)
(0.100439 0.00277237 0)
(0.100392 0.00271544 0)
(0.100347 0.00265787 0)
(0.100304 0.00259973 0)
(0.100262 0.00254106 0)
(0.100223 0.00248192 0)
(0.100186 0.00242233 0)
(0.10015 0.00236234 0)
(0.100117 0.00230203 0)
(0.100086 0.00224156 0)
(0.100057 0.00218107 0)
(0.10003 0.00212073 0)
(0.100005 0.0020607 0)
(0.0999814 0.00200107 0)
(0.0999602 0.00194192 0)
(0.0999409 0.00188326 0)
(0.0999235 0.00182511 0)
(0.0999078 0.00176747 0)
(0.0998939 0.00171036 0)
(0.0998815 0.00165381 0)
(0.0998708 0.00159786 0)
(0.0998615 0.00154255 0)
(0.0998537 0.00148793 0)
(0.0998472 0.00143405 0)
(0.0998419 0.00138098 0)
(0.0998379 0.00132876 0)
(0.099835 0.00127743 0)
(0.0998331 0.00122705 0)
(0.0998323 0.00117764 0)
(0.0998323 0.00112926 0)
(0.0998332 0.00108193 0)
(0.0998349 0.00103568 0)
(0.0998373 0.000990535 0)
(0.0998403 0.000946519 0)
(0.0998439 0.00090365 0)
(0.0998481 0.000861941 0)
(0.0998527 0.000821404 0)
(0.0998578 0.000782047 0)
(0.0998632 0.000743876 0)
(0.0998689 0.000706892 0)
(0.0998749 0.000671095 0)
(0.100535 0.00299462 0)
(0.100482 0.00293724 0)
(0.100432 0.00287896 0)
(0.100383 0.0028199 0)
(0.100336 0.00276015 0)
(0.100292 0.00269982 0)
(0.100249 0.00263898 0)
(0.100208 0.0025777 0)
(0.10017 0.00251601 0)
(0.100133 0.00245395 0)
(0.100099 0.00239156 0)
(0.100066 0.00232894 0)
(0.100036 0.00226622 0)
(0.100008 0.00220356 0)
(0.0999821 0.00214116 0)
(0.0999581 0.00207915 0)
(0.0999362 0.00201764 0)
(0.0999162 0.00195671 0)
(0.0998981 0.00189637 0)
(0.0998819 0.00183665 0)
(0.0998674 0.00177755 0)
(0.0998547 0.00171908 0)
(0.0998436 0.00166126 0)
(0.0998341 0.00160414 0)
(0.0998261 0.00154775 0)
(0.0998195 0.00149214 0)
(0.0998143 0.00143736 0)
(0.0998103 0.00138347 0)
(0.0998075 0.00133049 0)
(0.0998058 0.00127849 0)
(0.0998052 0.0012275 0)
(0.0998055 0.00117755 0)
(0.0998067 0.00112868 0)
(0.0998087 0.00108092 0)
(0.0998115 0.0010343 0)
(0.099815 0.000988826 0)
(0.0998191 0.00094453 0)
(0.0998238 0.000901423 0)
(0.099829 0.000859516 0)
(0.0998346 0.000818817 0)
(0.0998406 0.000779332 0)
(0.099847 0.000741062 0)
(0.0998536 0.000704007 0)
(0.0998605 0.000668164 0)
(0.100474 0.00305086 0)
(0.100422 0.00299037 0)
(0.100372 0.00292906 0)
(0.100324 0.00286701 0)
(0.100277 0.00280436 0)
(0.100233 0.0027412 0)
(0.100191 0.00267761 0)
(0.100151 0.00261365 0)
(0.100114 0.00254936 0)
(0.100078 0.00248478 0)
(0.100045 0.00241995 0)
(0.100014 0.00235496 0)
(0.0999845 0.00228997 0)
(0.0999575 0.00222514 0)
(0.0999327 0.00216064 0)
(0.09991 0.00209665 0)
(0.0998893 0.00203326 0)
(0.0998706 0.00197056 0)
(0.0998538 0.00190856 0)
(0.0998389 0.00184728 0)
(0.0998258 0.00178673 0)
(0.0998143 0.00172691 0)
(0.0998046 0.00166784 0)
(0.0997964 0.00160956 0)
(0.0997897 0.00155212 0)
(0.0997844 0.00149554 0)
(0.0997805 0.00143987 0)
(0.0997778 0.00138517 0)
(0.0997763 0.00133147 0)
(0.0997759 0.00127881 0)
(0.0997765 0.00122724 0)
(0.099778 0.00117677 0)
(0.0997804 0.00112744 0)
(0.0997837 0.00107928 0)
(0.0997876 0.00103231 0)
(0.0997922 0.000986537 0)
(0.0997975 0.000941987 0)
(0.0998032 0.000898668 0)
(0.0998094 0.000856588 0)
(0.0998161 0.000815752 0)
(0.099823 0.000776162 0)
(0.0998303 0.000737817 0)
(0.0998379 0.000700714 0)
(0.0998456 0.000664847 0)
(0.10041 0.00310684 0)
(0.100358 0.00304315 0)
(0.100309 0.0029787 0)
(0.100261 0.0029136 0)
(0.100215 0.00284796 0)
(0.100172 0.0027819 0)
(0.100131 0.00271549 0)
(0.100092 0.0026488 0)
(0.100055 0.00258186 0)
(0.100021 0.00251471 0)
(0.0999884 0.00244739 0)
(0.0999584 0.00238002 0)
(0.0999305 0.00231272 0)
(0.0999049 0.00224569 0)
(0.0998814 0.00217911 0)
(0.09986 0.00211313 0)
(0.0998407 0.00204787 0)
(0.0998234 0.0019834 0)
(0.099808 0.00191975 0)
(0.0997945 0.00185693 0)
(0.0997828 0.00179494 0)
(0.0997728 0.00173379 0)
(0.0997644 0.00167349 0)
(0.0997576 0.00161408 0)
(0.0997523 0.0015556 0)
(0.0997484 0.00149807 0)
(0.0997458 0.00144155 0)
(0.0997445 0.00138607 0)
(0.0997443 0.00133167 0)
(0.0997452 0.00127838 0)
(0.0997471 0.00122625 0)
(0.0997499 0.00117529 0)
(0.0997536 0.00112553 0)
(0.099758 0.00107699 0)
(0.0997632 0.0010297 0)
(0.099769 0.000983654 0)
(0.0997753 0.000938878 0)
(0.0997821 0.000895374 0)
(0.0997894 0.000853147 0)
(0.0997971 0.0008122 0)
(0.099805 0.00077253 0)
(0.0998133 0.000734134 0)
(0.0998218 0.000697007 0)
(0.0998304 0.00066114 0)
(0.100343 0.00316243 0)
(0.100291 0.00309543 0)
(0.100242 0.00302775 0)
(0.100195 0.0029595 0)
(0.10015 0.00289081 0)
(0.100108 0.00282178 0)
(0.100068 0.0027525 0)
(0.10003 0.00268302 0)
(0.0999941 0.00261338 0)
(0.0999608 0.00254362 0)
(0.0999297 0.00247379 0)
(0.099901 0.00240399 0)
(0.0998745 0.00233438 0)
(0.0998503 0.00226514 0)
(0.0998282 0.00219646 0)
(0.0998083 0.0021285 0)
(0.0997905 0.00206137 0)
(0.0997746 0.00199516 0)
(0.0997607 0.00192987 0)
(0.0997487 0.00186553 0)
(0.0997385 0.00180212 0)
(0.09973 0.00173966 0)
(0.0997231 0.00167816 0)
(0.0997178 0.00161765 0)
(0.099714 0.00155815 0)
(0.0997115 0.0014997 0)
(0.0997104 0.00144235 0)
(0.0997105 0.00138611 0)
(0.0997117 0.00133104 0)
(0.0997139 0.00127716 0)
(0.0997172 0.0012245 0)
(0.0997213 0.00117308 0)
(0.0997263 0.00112292 0)
(0.0997319 0.00107404 0)
(0.0997383 0.00102645 0)
(0.0997453 0.000980164 0)
(0.0997528 0.00093519 0)
(0.0997607 0.00089153 0)
(0.0997691 0.000849185 0)
(0.0997778 0.000808152 0)
(0.0997867 0.000768429 0)
(0.099796 0.000730009 0)
(0.0998054 0.000692882 0)
(0.0998149 0.000657038 0)
(0.100271 0.00321746 0)
(0.10022 0.00314705 0)
(0.100172 0.00307605 0)
(0.100126 0.00300459 0)
(0.100082 0.00293277 0)
(0.10004 0.00286071 0)
(0.100001 0.0027885 0)
(0.0999647 0.00271618 0)
(0.0999303 0.00264381 0)
(0.0998983 0.0025714 0)
(0.0998687 0.00249902 0)
(0.0998414 0.00242679 0)
(0.0998164 0.00235485 0)
(0.0997937 0.00228339 0)
(0.0997732 0.00221261 0)
(0.0997549 0.00214267 0)
(0.0997386 0.0020737 0)
(0.0997244 0.00200575 0)
(0.0997121 0.00193885 0)
(0.0997017 0.00187301 0)
(0.0996931 0.00180822 0)
(0.0996862 0.00174448 0)
(0.0996809 0.0016818 0)
(0.0996771 0.00162021 0)
(0.0996748 0.00155972 0)
(0.0996739 0.00150039 0)
(0.0996742 0.00144223 0)
(0.0996758 0.00138528 0)
(0.0996784 0.00132957 0)
(0.0996821 0.00127512 0)
(0.0996867 0.00122197 0)
(0.0996922 0.00117012 0)
(0.0996985 0.00111959 0)
(0.0997055 0.0010704 0)
(0.0997131 0.00102255 0)
(0.0997212 0.000976053 0)
(0.0997299 0.000930912 0)
(0.099739 0.000887125 0)
(0.0997485 0.00084469 0)
(0.0997582 0.000803602 0)
(0.0997682 0.000763853 0)
(0.0997784 0.000725434 0)
(0.0997888 0.000688334 0)
(0.0997992 0.000652537 0)
(0.100196 0.00327177 0)
(0.100146 0.00319786 0)
(0.100098 0.00312346 0)
(0.100053 0.00304869 0)
(0.10001 0.00297368 0)
(0.0999701 0.00289854 0)
(0.0999323 0.00282334 0)
(0.099897 0.00274815 0)
(0.099864 0.002673 0)
(0.0998335 0.00259792 0)
(0.0998054 0.00252298 0)
(0.0997797 0.00244829 0)
(0.0997563 0.002374 0)
(0.0997353 0.00230033 0)
(0.0997164 0.00222746 0)
(0.0996998 0.00215556 0)
(0.0996853 0.00208475 0)
(0.0996728 0.00201509 0)
(0.0996622 0.00194661 0)
(0.0996535 0.0018793 0)
(0.0996466 0.00181315 0)
(0.0996413 0.00174816 0)
(0.0996377 0.00168434 0)
(0.0996356 0.0016217 0)
(0.0996349 0.00156027 0)
(0.0996355 0.00150008 0)
(0.0996375 0.00144116 0)
(0.0996405 0.00138353 0)
(0.0996447 0.00132722 0)
(0.0996498 0.00127224 0)
(0.0996559 0.00121863 0)
(0.0996628 0.00116638 0)
(0.0996704 0.00111552 0)
(0.0996787 0.00106605 0)
(0.0996876 0.00101798 0)
(0.099697 0.000971307 0)
(0.0997069 0.000926031 0)
(0.0997171 0.000882149 0)
(0.0997277 0.000839656 0)
(0.0997385 0.000798541 0)
(0.0997496 0.000758795 0)
(0.0997608 0.000720405 0)
(0.0997721 0.000683356 0)
(0.0997834 0.000647632 0)
(0.100116 0.00332517 0)
(0.100067 0.00324766 0)
(0.100021 0.00316978 0)
(0.0999769 0.00309164 0)
(0.0999356 0.00301338 0)
(0.0998967 0.0029351 0)
(0.0998604 0.00285688 0)
(0.0998266 0.00277877 0)
(0.0997952 0.00270082 0)
(0.0997664 0.00262305 0)
(0.0997399 0.00254552 0)
(0.0997159 0.00246837 0)
(0.0996943 0.00239175 0)
(0.099675 0.00231586 0)
(0.099658 0.00224091 0)
(0.0996432 0.00216707 0)
(0.0996305 0.00209445 0)
(0.0996198 0.00202311 0)
(0.0996111 0.00195307 0)
(0.0996042 0.00188432 0)
(0.099599 0.00181685 0)
(0.0995956 0.00175065 0)
(0.0995937 0.00168572 0)
(0.0995933 0.00162208 0)
(0.0995943 0.00155975 0)
(0.0995966 0.00149875 0)
(0.0996002 0.0014391 0)
(0.0996048 0.00138082 0)
(0.0996106 0.00132395 0)
(0.0996172 0.00126849 0)
(0.0996248 0.00121445 0)
(0.0996331 0.00116185 0)
(0.0996421 0.0011107 0)
(0.0996518 0.00106099 0)
(0.099662 0.00101273 0)
(0.0996726 0.000965911 0)
(0.0996837 0.000920535 0)
(0.0996951 0.000876592 0)
(0.0997069 0.000834072 0)
(0.0997188 0.000792962 0)
(0.0997309 0.000753248 0)
(0.0997431 0.000714915 0)
(0.0997554 0.000677946 0)
(0.0997677 0.000642321 0)
(0.100033 0.00337746 0)
(0.0999851 0.00329628 0)
(0.09994 0.00321484 0)
(0.0998975 0.00313327 0)
(0.0998576 0.00305169 0)
(0.0998204 0.00297023 0)
(0.0997857 0.00288895 0)
(0.0997535 0.0028079 0)
(0.0997239 0.00272712 0)
(0.0996969 0.00264664 0)
(0.0996723 0.00256654 0)
(0.0996502 0.00248692 0)
(0.0996304 0.00240796 0)
(0.0996131 0.00232988 0)
(0.099598 0.00225287 0)
(0.0995851 0.00217711 0)
(0.0995744 0.00210271 0)
(0.0995656 0.00202972 0)
(0.0995588 0.00195816 0)
(0.0995538 0.00188801 0)
(0.0995506 0.00181926 0)
(0.099549 0.00175189 0)
(0.0995489 0.0016859 0)
(0.0995503 0.0016213 0)
(0.0995531 0.0015581 0)
(0.0995572 0.00149633 0)
(0.0995624 0.001436 0)
(0.0995688 0.00137713 0)
(0.0995761 0.00131974 0)
(0.0995843 0.00126383 0)
(0.0995934 0.00120942 0)
(0.0996032 0.0011565 0)
(0.0996136 0.00110509 0)
(0.0996247 0.00105519 0)
(0.0996362 0.00100677 0)
(0.0996482 0.000959854 0)
(0.0996605 0.000914414 0)
(0.0996731 0.000870444 0)
(0.099686 0.000827931 0)
(0.099699 0.000786857 0)
(0.0997122 0.000747207 0)
(0.0997254 0.000708961 0)
(0.0997387 0.000672099 0)
(0.0997519 0.0006366 0)
(0.0999455 0.00342844 0)
(0.0998992 0.00334349 0)
(0.0998556 0.00325843 0)
(0.0998147 0.00317337 0)
(0.0997765 0.00308844 0)
(0.099741 0.00300375 0)
(0.0997081 0.00291938 0)
(0.0996779 0.00283537 0)
(0.0996502 0.00275176 0)
(0.0996251 0.00266857 0)
(0.0996025 0.00258588 0)
(0.0995824 0.0025038 0)
(0.0995647 0.00242253 0)
(0.0995494 0.00234227 0)
(0.0995364 0.00226323 0)
(0.0995256 0.00218558 0)
(0.099517 0.00210942 0)
(0.0995103 0.00203483 0)
(0.0995055 0.00196179 0)
(0.0995025 0.00189028 0)
(0.0995013 0.0018203 0)
(0.0995016 0.0017518 0)
(0.0995035 0.0016848 0)
(0.0995068 0.00161929 0)
(0.0995114 0.00155528 0)
(0.0995173 0.00149279 0)
(0.0995243 0.00143183 0)
(0.0995323 0.00137241 0)
(0.0995413 0.00131454 0)
(0.0995512 0.00125824 0)
(0.0995618 0.0012035 0)
(0.0995731 0.00115032 0)
(0.099585 0.0010987 0)
(0.0995975 0.00104863 0)
(0.0996104 0.00100011 0)
(0.0996237 0.000953123 0)
(0.0996373 0.000907657 0)
(0.0996511 0.000863697 0)
(0.0996652 0.000821225 0)
(0.0996793 0.000780221 0)
(0.0996936 0.000740666 0)
(0.0997078 0.000702537 0)
(0.0997221 0.000665812 0)
(0.0997362 0.000630466 0)
(0.0998542 0.00347787 0)
(0.0998095 0.0033891 0)
(0.0997676 0.00330035 0)
(0.0997285 0.00321175 0)
(0.0996922 0.00312342 0)
(0.0996586 0.00303548 0)
(0.0996277 0.002948 0)
(0.0995995 0.00286102 0)
(0.099574 0.00277457 0)
(0.099551 0.00268867 0)
(0.0995306 0.00260341 0)
(0.0995127 0.0025189 0)
(0.0994972 0.00243533 0)
(0.0994841 0.00235292 0)
(0.0994734 0.00227188 0)
(0.0994648 0.00219237 0)
(0.0994583 0.00211451 0)
(0.0994538 0.00203835 0)
(0.0994511 0.00196388 0)
(0.0994503 0.00189107 0)
(0.0994511 0.0018199 0)
(0.0994535 0.00175034 0)
(0.0994574 0.00168238 0)
(0.0994627 0.00161601 0)
(0.0994693 0.00155124 0)
(0.099477 0.00148808 0)
(0.0994858 0.00142654 0)
(0.0994956 0.00136663 0)
(0.0995063 0.00130835 0)
(0.0995178 0.00125169 0)
(0.0995301 0.00119667 0)
(0.099543 0.00114327 0)
(0.0995564 0.00109148 0)
(0.0995703 0.0010413 0)
(0.0995846 0.000992717 0)
(0.0995992 0.000945707 0)
(0.0996141 0.000900254 0)
(0.0996292 0.000856342 0)
(0.0996444 0.000813947 0)
(0.0996597 0.000773048 0)
(0.099675 0.000733621 0)
(0.0996903 0.000695641 0)
(0.0997055 0.000659082 0)
(0.0997206 0.000623917 0)
(0.0997587 0.00352552 0)
(0.0997158 0.00343285 0)
(0.0996759 0.00334037 0)
(0.0996389 0.00324819 0)
(0.0996046 0.00315644 0)
(0.0995732 0.00306524 0)
(0.0995446 0.00297464 0)
(0.0995186 0.00288468 0)
(0.0994953 0.00279539 0)
(0.0994747 0.00270681 0)
(0.0994566 0.00261899 0)
(0.099441 0.00253207 0)
(0.099428 0.00244623 0)
(0.0994172 0.00236171 0)
(0.0994088 0.00227871 0)
(0.0994026 0.0021974 0)
(0.0993984 0.00211788 0)
(0.0993962 0.00204021 0)
(0.0993958 0.00196436 0)
(0.0993972 0.0018903 0)
(0.0994002 0.00181801 0)
(0.0994048 0.00174744 0)
(0.0994108 0.00167857 0)
(0.0994181 0.00161141 0)
(0.0994266 0.00154594 0)
(0.0994363 0.00148217 0)
(0.099447 0.00142011 0)
(0.0994587 0.00135976 0)
(0.0994711 0.00130111 0)
(0.0994844 0.00124416 0)
(0.0994982 0.00118891 0)
(0.0995127 0.00113534 0)
(0.0995277 0.00108344 0)
(0.099543 0.00103319 0)
(0.0995587 0.000984586 0)
(0.0995747 0.000937594 0)
(0.0995909 0.000892197 0)
(0.0996072 0.000848371 0)
(0.0996236 0.000806091 0)
(0.0996401 0.000765333 0)
(0.0996565 0.000726068 0)
(0.0996729 0.000688269 0)
(0.0996891 0.000651907 0)
(0.0997051 0.000616952 0)
(0.0996589 0.00357112 0)
(0.0996182 0.00347452 0)
(0.0995805 0.00337826 0)
(0.0995457 0.00328247 0)
(0.0995138 0.00318729 0)
(0.0994848 0.0030928 0)
(0.0994585 0.00299909 0)
(0.099435 0.00290617 0)
(0.0994142 0.00281406 0)
(0.0993961 0.00272281 0)
(0.0993805 0.00263246 0)
(0.0993675 0.00254317 0)
(0.0993569 0.00245511 0)
(0.0993487 0.00236852 0)
(0.0993428 0.00228361 0)
(0.099339 0.00220054 0)
(0.0993373 0.00211943 0)
(0.0993375 0.0020403 0)
(0.0993395 0.00196314 0)
(0.0993433 0.0018879 0)
(0.0993486 0.00181454 0)
(0.0993554 0.00174302 0)
(0.0993635 0.00167332 0)
(0.099373 0.00160543 0)
(0.0993836 0.00153932 0)
(0.0993953 0.00147501 0)
(0.0994079 0.00141249 0)
(0.0994215 0.00135176 0)
(0.0994358 0.00129281 0)
(0.0994507 0.00123563 0)
(0.0994663 0.0011802 0)
(0.0994824 0.00112651 0)
(0.0994989 0.00107455 0)
(0.0995158 0.00102429 0)
(0.0995329 0.000975704 0)
(0.0995503 0.000928775 0)
(0.0995678 0.000883476 0)
(0.0995854 0.000839778 0)
(0.099603 0.000797652 0)
(0.0996206 0.000757071 0)
(0.0996381 0.000718002 0)
(0.0996555 0.000680417 0)
(0.0996727 0.000644283 0)
(0.0996898 0.000609568 0)
(0.099555 0.00361442 0)
(0.0995166 0.00351383 0)
(0.0994814 0.00341377 0)
(0.0994491 0.00331436 0)
(0.0994197 0.00321574 0)
(0.0993933 0.00311798 0)
(0.0993697 0.00302116 0)
(0.0993489 0.0029253 0)
(0.0993308 0.00283041 0)
(0.0993153 0.00273651 0)
(0.0993025 0.00264369 0)
(0.0992921 0.00255206 0)
(0.0992842 0.00246183 0)
(0.0992787 0.00237323 0)
(0.0992754 0.00228647 0)
(0.0992743 0.00220171 0)
(0.0992751 0.00211906 0)
(0.0992779 0.00203855 0)
(0.0992824 0.00196014 0)
(0.0992885 0.00188378 0)
(0.0992962 0.00180944 0)
(0.0993054 0.00173705 0)
(0.0993158 0.00166658 0)
(0.0993275 0.00159802 0)
(0.0993402 0.00153135 0)
(0.099354 0.00146657 0)
(0.0993686 0.00140366 0)
(0.0993841 0.00134261 0)
(0.0994002 0.00128341 0)
(0.099417 0.00122606 0)
(0.0994343 0.00117051 0)
(0.0994521 0.00111677 0)
(0.0994702 0.00106479 0)
(0.0994886 0.00101457 0)
(0.0995072 0.000966059 0)
(0.0995259 0.000919242 0)
(0.0995448 0.000874084 0)
(0.0995636 0.000830556 0)
(0.0995825 0.000788625 0)
(0.0996012 0.000748258 0)
(0.0996199 0.000709423 0)
(0.0996383 0.000672085 0)
(0.0996565 0.000636211 0)
(0.0996745 0.000601765 0)
(0.0994467 0.00365511 0)
(0.099411 0.00355052 0)
(0.0993784 0.00344664 0)
(0.0993489 0.00334362 0)
(0.0993224 0.00324156 0)
(0.0992988 0.00314055 0)
(0.0992781 0.00304065 0)
(0.0992601 0.00294188 0)
(0.0992449 0.00284424 0)
(0.0992323 0.00274776 0)
(0.0992224 0.0026525 0)
(0.0992149 0.00255861 0)
(0.0992099 0.00246627 0)
(0.0992072 0.00237572 0)
(0.0992067 0.00228717 0)
(0.0992083 0.0022008 0)
(0.0992118 0.00211669 0)
(0.0992172 0.00203486 0)
(0.0992244 0.00195528 0)
(0.0992331 0.00187789 0)
(0.0992433 0.00180263 0)
(0.0992548 0.00172944 0)
(0.0992676 0.00165829 0)
(0.0992816 0.00158914 0)
(0.0992965 0.00152198 0)
(0.0993124 0.00145679 0)
(0.0993291 0.00139356 0)
(0.0993466 0.00133227 0)
(0.0993646 0.0012729 0)
(0.0993832 0.00121543 0)
(0.0994023 0.00115984 0)
(0.0994217 0.00110609 0)
(0.0994414 0.00105416 0)
(0.0994614 0.00100402 0)
(0.0994815 0.000955643 0)
(0.0995016 0.000908985 0)
(0.0995218 0.000864016 0)
(0.099542 0.000820701 0)
(0.0995621 0.000779005 0)
(0.099582 0.000738892 0)
(0.0996017 0.000700326 0)
(0.0996212 0.00066327 0)
(0.0996405 0.000627688 0)
(0.0996594 0.000593543 0)
(0.0993341 0.00369289 0)
(0.0993013 0.00358429 0)
(0.0992718 0.00347661 0)
(0.0992453 0.00336998 0)
(0.0992218 0.00326451 0)
(0.0992013 0.00316028 0)
(0.0991837 0.00305735 0)
(0.0991688 0.00295572 0)
(0.0991567 0.00285539 0)
(0.0991473 0.00275638 0)
(0.0991404 0.00265876 0)
(0.099136 0.00256266 0)
(0.0991339 0.00246828 0)
(0.0991342 0.00237586 0)
(0.0991367 0.00228561 0)
(0.0991412 0.00219769 0)
(0.0991476 0.0021122 0)
(0.0991557 0.00202914 0)
(0.0991656 0.00194848 0)
(0.099177 0.00187014 0)
(0.0991897 0.00179405 0)
(0.0992038 0.00172015 0)
(0.099219 0.00164839 0)
(0.0992353 0.00157874 0)
(0.0992526 0.00151117 0)
(0.0992706 0.00144566 0)
(0.0992895 0.00138218 0)
(0.0993089 0.00132072 0)
(0.0993289 0.00126124 0)
(0.0993494 0.00120373 0)
(0.0993703 0.00114815 0)
(0.0993914 0.00109446 0)
(0.0994128 0.00104264 0)
(0.0994343 0.000992649 0)
(0.0994559 0.000944446 0)
(0.0994775 0.000897997 0)
(0.099499 0.000853264 0)
(0.0995205 0.000810207 0)
(0.0995418 0.000768789 0)
(0.0995629 0.000728969 0)
(0.0995837 0.00069071 0)
(0.0996043 0.000653972 0)
(0.0996245 0.000618715 0)
(0.0996444 0.000584901 0)
(0.0992171 0.00372746 0)
(0.0991877 0.00361486 0)
(0.0991614 0.00350339 0)
(0.0991382 0.00339319 0)
(0.0991181 0.00328435 0)
(0.0991009 0.00317695 0)
(0.0990866 0.00307104 0)
(0.0990751 0.00296661 0)
(0.0990663 0.00286366 0)
(0.0990601 0.00276219 0)
(0.0990565 0.00266228 0)
(0.0990553 0.00256406 0)
(0.0990565 0.00246773 0)
(0.0990599 0.00237352 0)
(0.0990654 0.00228166 0)
(0.099073 0.00219229 0)
(0.0990823 0.00210551 0)
(0.0990934 0.00202132 0)
(0.0991061 0.00193966 0)
(0.0991202 0.00186045 0)
(0.0991357 0.00178363 0)
(0.0991523 0.00170911 0)
(0.0991701 0.00163683 0)
(0.0991888 0.00156677 0)
(0.0992084 0.00149887 0)
(0.0992287 0.00143312 0)
(0.0992497 0.00136948 0)
(0.0992712 0.00130792 0)
(0.0992932 0.00124842 0)
(0.0993156 0.00119094 0)
(0.0993383 0.00113543 0)
(0.0993612 0.00108187 0)
(0.0993842 0.00103022 0)
(0.0994073 0.000980429 0)
(0.0994304 0.000932461 0)
(0.0994534 0.000886274 0)
(0.0994763 0.000841825 0)
(0.0994991 0.000799073 0)
(0.0995216 0.000757975 0)
(0.0995439 0.00071849 0)
(0.0995659 0.000680575 0)
(0.0995875 0.000644189 0)
(0.0996088 0.000609292 0)
(0.0996296 0.00057584 0)
(0.10327 0.00338723 0)
(0.103136 0.00341203 0)
(0.103003 0.00343071 0)
(0.102873 0.00344349 0)
(0.102745 0.00345067 0)
(0.10262 0.00345253 0)
(0.102497 0.0034494 0)
(0.102378 0.00344159 0)
(0.102262 0.00342941 0)
(0.102149 0.00341318 0)
(0.102039 0.00339319 0)
(0.101933 0.00336974 0)
(0.10183 0.00334311 0)
(0.10173 0.00331358 0)
(0.101634 0.0032814 0)
(0.101542 0.00324683 0)
(0.101453 0.0032101 0)
(0.101367 0.00317145 0)
(0.101285 0.00313107 0)
(0.101206 0.00308919 0)
(0.101131 0.00304599 0)
(0.101059 0.00300164 0)
(0.100989 0.00295633 0)
(0.100923 0.0029102 0)
(0.10086 0.00286341 0)
(0.1008 0.00281609 0)
(0.1033 0.00352613 0)
(0.103159 0.00354889 0)
(0.10302 0.00356526 0)
(0.102883 0.00357552 0)
(0.10275 0.00357995 0)
(0.102619 0.00357888 0)
(0.102492 0.00357266 0)
(0.102368 0.00356162 0)
(0.102247 0.0035461 0)
(0.10213 0.00352643 0)
(0.102017 0.00350294 0)
(0.101907 0.00347594 0)
(0.101801 0.00344573 0)
(0.101699 0.0034126 0)
(0.1016 0.00337682 0)
(0.101506 0.00333867 0)
(0.101415 0.00329838 0)
(0.101327 0.0032562 0)
(0.101243 0.00321236 0)
(0.101163 0.00316706 0)
(0.101086 0.0031205 0)
(0.101013 0.00307287 0)
(0.100943 0.00302435 0)
(0.100876 0.00297509 0)
(0.100813 0.00292524 0)
(0.100752 0.00287496 0)
(0.103328 0.00367225 0)
(0.10318 0.00369255 0)
(0.103034 0.00370622 0)
(0.102891 0.00371354 0)
(0.102752 0.00371485 0)
(0.102616 0.00371048 0)
(0.102483 0.00370081 0)
(0.102354 0.00368619 0)
(0.102229 0.00366698 0)
(0.102108 0.00364356 0)
(0.101991 0.00361625 0)
(0.101878 0.00358539 0)
(0.101769 0.0035513 0)
(0.101664 0.00351429 0)
(0.101563 0.00347465 0)
(0.101466 0.00343266 0)
(0.101373 0.00338857 0)
(0.101284 0.00334265 0)
(0.101198 0.00329512 0)
(0.101117 0.0032462 0)
(0.101039 0.00319609 0)
(0.100965 0.003145 0)
(0.100894 0.0030931 0)
(0.100827 0.00304056 0)
(0.100762 0.00298752 0)
(0.100702 0.00293414 0)
(0.103354 0.00382583 0)
(0.103198 0.00384325 0)
(0.103045 0.00385379 0)
(0.102896 0.00385777 0)
(0.102751 0.00385554 0)
(0.102609 0.00384748 0)
(0.102471 0.00383396 0)
(0.102337 0.00381539 0)
(0.102208 0.00379214 0)
(0.102083 0.0037646 0)
(0.101962 0.00373314 0)
(0.101845 0.0036981 0)
(0.101733 0.00365983 0)
(0.101625 0.00361864 0)
(0.101522 0.00357486 0)
(0.101423 0.00352876 0)
(0.101328 0.00348063 0)
(0.101237 0.00343072 0)
(0.10115 0.00337928 0)
(0.101067 0.00332653 0)
(0.100988 0.00327269 0)
(0.100913 0.00321796 0)
(0.100841 0.00316251 0)
(0.100774 0.00310653 0)
(0.100709 0.00305016 0)
(0.100648 0.00299355 0)
(0.103376 0.00398713 0)
(0.103213 0.0040012 0)
(0.103053 0.00400817 0)
(0.102897 0.00400837 0)
(0.102745 0.00400218 0)
(0.102598 0.00398999 0)
(0.102455 0.00397223 0)
(0.102316 0.0039493 0)
(0.102182 0.00392163 0)
(0.102053 0.00388961 0)
(0.101928 0.00385363 0)
(0.101808 0.00381407 0)
(0.101693 0.00377129 0)
(0.101582 0.00372562 0)
(0.101476 0.0036774 0)
(0.101375 0.00362692 0)
(0.101278 0.00357448 0)
(0.101185 0.00352034 0)
(0.101097 0.00346475 0)
(0.101013 0.00340797 0)
(0.100933 0.00335019 0)
(0.100857 0.00329163 0)
(0.100785 0.00323247 0)
(0.100717 0.00317289 0)
(0.100652 0.00311304 0)
(0.100591 0.00305307 0)
(0.103395 0.00415635 0)
(0.103224 0.00416663 0)
(0.103056 0.00416956 0)
(0.102894 0.00416552 0)
(0.102735 0.00415491 0)
(0.102582 0.00413815 0)
(0.102433 0.0041157 0)
(0.10229 0.004088 0)
(0.102151 0.00405549 0)
(0.102017 0.00401859 0)
(0.101889 0.00397772 0)
(0.101766 0.00393328 0)
(0.101647 0.00388565 0)
(0.101534 0.00383518 0)
(0.101426 0.00378221 0)
(0.101322 0.00372706 0)
(0.101224 0.00367003 0)
(0.10113 0.00361141 0)
(0.10104 0.00355145 0)
(0.100955 0.0034904 0)
(0.100874 0.00342849 0)
(0.100798 0.00336591 0)
(0.100725 0.00330286 0)
(0.100657 0.00323952 0)
(0.100592 0.00317604 0)
(0.100531 0.00311258 0)
(0.103409 0.00433376 0)
(0.10323 0.00433975 0)
(0.103055 0.00433815 0)
(0.102885 0.00432938 0)
(0.10272 0.00431386 0)
(0.102561 0.00429207 0)
(0.102407 0.00426447 0)
(0.102258 0.00423154 0)
(0.102115 0.00419376 0)
(0.101977 0.00415157 0)
(0.101845 0.00410541 0)
(0.101718 0.00405571 0)
(0.101597 0.00400287 0)
(0.101481 0.00394725 0)
(0.10137 0.00388921 0)
(0.101265 0.00382909 0)
(0.101164 0.0037672 0)
(0.101069 0.00370384 0)
(0.100978 0.00363926 0)
(0.100892 0.00357372 0)
(0.100811 0.00350745 0)
(0.100734 0.00344067 0)
(0.100661 0.00337355 0)
(0.100592 0.00330629 0)
(0.100527 0.00323904 0)
(0.100466 0.00317196 0)
(0.103419 0.00451959 0)
(0.103231 0.00452078 0)
(0.103048 0.00451414 0)
(0.102871 0.00450011 0)
(0.1027 0.00447917 0)
(0.102534 0.00445183 0)
(0.102374 0.0044186 0)
(0.10222 0.00437997 0)
(0.102073 0.00433645 0)
(0.101931 0.00428853 0)
(0.101795 0.00423667 0)
(0.101665 0.00418131 0)
(0.10154 0.00412287 0)
(0.101422 0.00406175 0)
(0.101309 0.00399831 0)
(0.101202 0.00393291 0)
(0.1011 0.00386587 0)
(0.101003 0.00379748 0)
(0.100911 0.00372804 0)
(0.100825 0.00365778 0)
(0.100743 0.00358695 0)
(0.100665 0.00351576 0)
(0.100592 0.0034444 0)
(0.100524 0.00337306 0)
(0.100459 0.0033019 0)
(0.100398 0.00323105 0)
(0.103423 0.00471411 0)
(0.103226 0.00470995 0)
(0.103036 0.00469771 0)
(0.102852 0.00467787 0)
(0.102673 0.00465097 0)
(0.102501 0.00461755 0)
(0.102336 0.00457814 0)
(0.102177 0.00453331 0)
(0.102024 0.00448357 0)
(0.101878 0.00442945 0)
(0.101738 0.00437144 0)
(0.101605 0.00431 0)
(0.101478 0.00424557 0)
(0.101357 0.00417858 0)
(0.101242 0.00410939 0)
(0.101133 0.00403839 0)
(0.10103 0.00396589 0)
(0.100932 0.00389221 0)
(0.100839 0.00381763 0)
(0.100752 0.00374242 0)
(0.10067 0.00366682 0)
(0.100592 0.00359103 0)
(0.100519 0.00351525 0)
(0.100451 0.00343967 0)
(0.100386 0.00336444 0)
(0.100326 0.0032897 0)
(0.103421 0.00491762 0)
(0.103216 0.00490751 0)
(0.103017 0.00488907 0)
(0.102825 0.00486283 0)
(0.10264 0.00482937 0)
(0.102462 0.00478928 0)
(0.102291 0.00474316 0)
(0.102126 0.00469157 0)
(0.101969 0.0046351 0)
(0.101819 0.00457429 0)
(0.101676 0.00450966 0)
(0.101539 0.0044417 0)
(0.101409 0.00437087 0)
(0.101286 0.00429761 0)
(0.101169 0.00422232 0)
(0.101059 0.00414537 0)
(0.100954 0.0040671 0)
(0.100855 0.00398785 0)
(0.100762 0.00390788 0)
(0.100674 0.00382748 0)
(0.100592 0.00374687 0)
(0.100514 0.00366629 0)
(0.100441 0.00358591 0)
(0.100373 0.00350593 0)
(0.100309 0.00342649 0)
(0.10025 0.00334774 0)
(0.103414 0.00513041 0)
(0.103199 0.00511372 0)
(0.102992 0.00508842 0)
(0.102792 0.00505513 0)
(0.1026 0.00501448 0)
(0.102415 0.00496711 0)
(0.102238 0.00491365 0)
(0.102069 0.00485475 0)
(0.101907 0.00479099 0)
(0.101753 0.00472297 0)
(0.101606 0.00465122 0)
(0.101467 0.00457628 0)
(0.101334 0.00449862 0)
(0.101209 0.00441869 0)
(0.10109 0.00433691 0)
(0.100978 0.00425368 0)
(0.100872 0.00416933 0)
(0.100773 0.0040842 0)
(0.100679 0.00399858 0)
(0.100591 0.00391274 0)
(0.100509 0.00382692 0)
(0.100431 0.00374134 0)
(0.100359 0.00365619 0)
(0.100291 0.00357165 0)
(0.100228 0.00348786 0)
(0.100169 0.00340498 0)
(0.103399 0.00535283 0)
(0.103175 0.00532883 0)
(0.10296 0.00529597 0)
(0.102752 0.00525492 0)
(0.102553 0.00520638 0)
(0.102361 0.00515106 0)
(0.102178 0.00508964 0)
(0.102004 0.0050228 0)
(0.101838 0.00495117 0)
(0.101679 0.00487538 0)
(0.101529 0.00479601 0)
(0.101387 0.0047136 0)
(0.101252 0.00462865 0)
(0.101125 0.00454164 0)
(0.101004 0.00445299 0)
(0.100891 0.00436311 0)
(0.100785 0.00427236 0)