/*--------------------------------*- C++ -*----------------------------------*\
| =========                 |                                                 |
| \\      /  F ield         | OpenFOAM: The Open Source CFD Toolbox           |
|  \\    /   O peration     | Version:  2412                                  |
|   \\  /    A nd           | Website:  www.openfoam.com                      |
|    \\/     M anipulation  |                                                 |
\*---------------------------------------------------------------------------*/
FoamFile
{
    version     2.0;
    format      ascii;
    arch        "LSB;label=32;scalar=64";
    class       volScalarField;
    location    "30";
    object      error;
}
// * * * * * * * * * * * * * * * * * * * * * * * * * * * * * * * * * * * * * //

dimensions      [0 0 0 0 0 0 0];

internalField   nonuniform List<scalar> 
5285
(
0.0891402
0.088082
0.0869724
0.0858113
0.0845993
0.0833371
0.0820259
0.0806674
0.0792635
0.0778166
0.0763293
0.0748046
0.0732459
0.0716567
0.0700407
0.0684015
0.066743
0.0650688
0.0633826
0.0616876
0.0599871
0.0582841
0.0565814
0.0548817
0.0531873
0.0515007
0.0498242
0.0481599
0.04651
0.0448766
0.043262
0.0416681
0.040097
0.0385506
0.0370308
0.0355393
0.0340777
0.0326476
0.03125
0.0298863
0.0285572
0.0272636
0.0260059
0.0247846
0.0911475
0.0900332
0.0888661
0.0876466
0.0863751
0.0850527
0.0836805
0.0822603
0.0807942
0.0792847
0.0777345
0.0761469
0.0745253
0.0728734
0.0711951
0.0694942
0.0677747
0.0660404
0.0642951
0.0625423
0.0607854
0.0590276
0.0572717
0.0555205
0.0537765
0.0520423
0.05032
0.048612
0.0469205
0.0452476
0.0435954
0.041966
0.0403613
0.0387834
0.037234
0.0357147
0.0342273
0.0327729
0.031353
0.0299685
0.0286203
0.0273091
0.0260354
0.0247996
0.0932127
0.0920387
0.0908109
0.0895296
0.0881955
0.0868096
0.0853734
0.0838885
0.0823574
0.0807824
0.0791668
0.0775136
0.0758267
0.0741098
0.0723669
0.0706021
0.0688195
0.0670232
0.065217
0.0634046
0.0615897
0.0597754
0.0579648
0.0561608
0.054366
0.0525829
0.050814
0.0490614
0.0473274
0.0456142
0.0439239
0.0422584
0.0406199
0.0390101
0.0374308
0.0358836
0.0343701
0.0328916
0.0314492
0.030044
0.0286767
0.0273481
0.0260585
0.0248084
0.095337
0.0940999
0.0928077
0.0914612
0.0900611
0.0886085
0.0871049
0.0855523
0.0839531
0.0823099
0.0806259
0.0789046
0.0771498
0.0753654
0.0735556
0.0717247
0.069877
0.0680166
0.0661476
0.0642739
0.0623992
0.0605269
0.0586602
0.056802
0.0549551
0.0531221
0.0513054
0.0495073
0.0477301
0.045976
0.0442469
0.042545
0.0408722
0.0392302
0.0376208
0.0360456
0.034506
0.0330032
0.0315384
0.0301125
0.0287263
0.0273804
0.0260751
0.0248108
0.097522
0.0962178
0.0948577
0.0934423
0.0919726
0.0904498
0.0888755
0.0872519
0.0855815
0.0838671
0.0821119
0.0803197
0.0784944
0.07664
0.074761
0.0728617
0.0709466
0.0690201
0.0670864
0.0651495
0.0632134
0.0612815
0.0593571
0.0574434
0.0555432
0.0536592
0.0517938
0.0499493
0.0481282
0.0463324
0.0445641
0.0428253
0.0411178
0.0394434
0.0378038
0.0362004
0.0346346
0.0331076
0.0316205
0.030174
0.028769
0.0274059
0.026085
0.0248067
0.0997688
0.0983938
0.0969618
0.0954738
0.0939308
0.0923342
0.0906857
0.0889878
0.0872429
0.0854541
0.0836248
0.0817588
0.0798602
0.0779332
0.0759825
0.0740125
0.0720279
0.0700332
0.0680328
0.0660309
0.0640315
0.0620384
0.060055
0.0580844
0.0561297
0.0541935
0.0522784
0.0503868
0.0485209
0.0466829
0.0448749
0.0430987
0.0413563
0.0396493
0.0379792
0.0363476
0.0347557
0.0332045
0.0316951
0.0302282
0.0288045
0.0274245
0.0260883
0.0247962
0.102079
0.100629
0.0991212
0.0975566
0.0959364
0.0942622
0.092536
0.0907601
0.0889373
0.0870709
0.0851643
0.0832216
0.0812469
0.0792447
0.0772197
0.0751766
0.0731201
0.0710551
0.068986
0.0669173
0.064853
0.0627971
0.0607531
0.0587243
0.0567139
0.0547244
0.0527587
0.0508191
0.0489078
0.047027
0.0451788
0.0433649
0.0415873
0.0398475
0.0381469
0.036487
0.034869
0.0332937
0.0317621
0.030275
0.0288328
0.027436
0.0260847
0.0247791
0.104454
0.102925
0.101337
0.0996917
0.0979903
0.0962346
0.0944268
0.0925693
0.0906651
0.0887177
0.0867306
0.084708
0.0826543
0.0805741
0.0784722
0.0763534
0.0742229
0.0720853
0.0699455
0.067808
0.0656771
0.0635567
0.0614507
0.0593624
0.057295
0.0552513
0.053234
0.0512456
0.0492882
0.0473641
0.0454753
0.0436234
0.0418104
0.0400376
0.0383065
0.0366183
0.0349742
0.0333749
0.0318214
0.0303141
0.0288537
0.0274403
0.0260742
0.0247553
0.106895
0.105282
0.10361
0.10188
0.100093
0.0982519
0.0963585
0.0944156
0.0924264
0.0903944
0.0883235
0.0862179
0.0840821
0.081921
0.0797394
0.0775425
0.0753354
0.0731231
0.0709105
0.0687023
0.0665029
0.0643166
0.062147
0.0599979
0.0578724
0.0557734
0.0537037
0.0516657
0.0496616
0.0476937
0.0457638
0.0438737
0.042025
0.0402192
0.0384576
0.0367412
0.035071
0.033448
0.0318726
0.0303455
0.028867
0.0274374
0.0260567
0.0247249
0.109404
0.107703
0.105941
0.104122
0.102245
0.100314
0.0983315
0.0962993
0.0942213
0.0921012
0.0899429
0.0877509
0.08553
0.0832849
0.081021
0.0787433
0.0764572
0.0741679
0.0718803
0.0695995
0.0673299
0.0650758
0.0628413
0.0606301
0.0584453
0.05629
0.054167
0.0520787
0.0500274
0.0480152
0.046044
0.0441154
0.042231
0.040392
0.0385998
0.0368553
0.0351593
0.0335126
0.0319157
0.030369
0.0288728
0.0274272
0.0260322
0.0246878
0.111981
0.110186
0.108332
0.106418
0.104448
0.102423
0.100346
0.0982206
0.0960499
0.0938378
0.0915887
0.0893069
0.0869975
0.0846656
0.0823163
0.0799552
0.0775876
0.0752188
0.0728542
0.0704987
0.0681571
0.0658338
0.0635328
0.0612581
0.0590129
0.0568004
0.0546233
0.0524841
0.050385
0.0483281
0.0463152
0.044348
0.0424277
0.0405557
0.038733
0.0369604
0.0352388
0.0335687
0.0319504
0.0303844
0.0288708
0.0274096
0.0260006
0.0246439
0.114626
0.112735
0.110782
0.10877
0.106701
0.104577
0.102403
0.10018
0.0979122
0.0956044
0.0932606
0.0908856
0.0884844
0.0860624
0.0836249
0.0811775
0.0787258
0.0762753
0.0738314
0.0713992
0.0689838
0.0665895
0.0642207
0.0618813
0.0595746
0.0573039
0.0550719
0.0528811
0.0507338
0.0486319
0.0465771
0.044571
0.0426148
0.0407097
0.0388567
0.0370563
0.0353093
0.033616
0.0319767
0.0303917
0.028861
0.0273845
0.025962
0.0245933
0.117342
0.115347
0.113291
0.111176
0.109004
0.106778
0.104501
0.102176
0.099808
0.0974005
0.0949584
0.0924866
0.0899902
0.0874749
0.0849461
0.0824096
0.0798712
0.0773365
0.0748111
0.0723002
0.0698091
0.0673423
0.0649042
0.0624988
0.0601296
0.0577997
0.0555121
0.0532692
0.0510731
0.0489259
0.046829
0.044784
0.042792
0.040854
0.0389707
0.0371427
0.0353705
0.0336544
0.0319944
0.0303907
0.0288433
0.0273518
0.0259162
0.0245359
0.120126
0.118025
0.115861
0.113638
0.111359
0.109025
0.106641
0.10421
0.101737
0.099226
0.0966817
0.0941094
0.0915144
0.0889024
0.0862793
0.0836508
0.081023
0.0784016
0.0757924
0.0732009
0.0706322
0.0680912
0.0655824
0.0631098
0.060677
0.0582872
0.0559433
0.0536477
0.0514025
0.0492096
0.0470706
0.0449866
0.0429588
0.040988
0.0390747
0.0372194
0.0354224
0.0336837
0.0320035
0.0303815
0.0288177
0.0273117
0.0258632
0.0244718
0.12298
0.120767
0.118491
0.116155
0.113763
0.111318
0.108822
0.106281
0.103699
0.10108
0.09843
0.0957535
0.0930563
0.0903444
0.0876237
0.0849003
0.0821804
0.0794698
0.0767746
0.0741003
0.0714523
0.0688355
0.0662546
0.0637135
0.0612161
0.0587656
0.0563647
0.0540159
0.0517213
0.0494827
0.0473013
0.0451785
0.043115
0.0411116
0.0391686
0.0372862
0.0354647
0.0337039
0.0320037
0.0303638
0.0287841
0.027264
0.0258032
0.024401
0.125903
0.123572
0.121179
0.118726
0.116217
0.113655
0.111044
0.108389
0.105694
0.102963
0.100203
0.0974182
0.0946153
0.0918
0.0889786
0.0861574
0.0833425
0.0805403
0.0777567
0.0749976
0.0722684
0.0695742
0.0669198
0.0643092
0.0617462
0.0592341
0.0567757
0.0543733
0.052029
0.0497444
0.0475208
0.0453591
0.0432602
0.0412244
0.0392519
0.037343
0.0354973
0.0337148
0.0319951
0.0303378
0.0287426
0.0272088
0.025736
0.0243235
0.128891
0.126439
0.123924
0.12135
0.11872
0.116037
0.113306
0.110532
0.107719
0.104873
0.101999
0.0991026
0.0961904
0.0932685
0.0903432
0.0874211
0.0845086
0.0816121
0.0787379
0.0758919
0.0730797
0.0703066
0.0675772
0.0648959
0.0622665
0.0596921
0.0571756
0.0547193
0.0523251
0.0499944
0.0477286
0.0455283
0.043394
0.0413262
0.0393247
0.0373895
0.0355202
0.0337164
0.0319776
0.0303034
0.0286931
0.0271461
0.0256618
0.0242394
0.131944
0.129366
0.126725
0.124025
0.121269
0.118462
0.115607
0.11271
0.109775
0.106809
0.103817
0.100806
0.0977808
0.0947488
0.0917164
0.0886904
0.0856776
0.0826843
0.0797172
0.0767823
0.0738853
0.0710316
0.0682261
0.065473
0.0627762
0.0601389
0.0575638
0.0550532
0.0526089
0.0502323
0.0479242
0.0456855
0.0435163
0.0414168
0.0393867
0.0374256
0.0355331
0.0337086
0.0319513
0.0302605
0.0286357
0.027076
0.0255806
0.0241487
0.135058
0.13235
0.129579
0.126749
0.123863
0.120927
0.117944
0.11492
0.11186
0.108771
0.105657
0.102527
0.0993853
0.0962398
0.0930972
0.0899644
0.0868484
0.0837559
0.0806936
0.0776677
0.0746841
0.0717484
0.0688654
0.0660395
0.0632745
0.0605736
0.0579396
0.0553745
0.0528801
0.0504574
0.0481075
0.0458305
0.0436268
0.041496
0.0394377
0.0374514
0.0355362
0.0336914
0.0319161
0.0302094
0.0285705
0.0269985
0.0254925
0.0240517
0.138229
0.135388
0.132483
0.129519
0.1265
0.12343
0.120316
0.117161
0.113972
0.110755
0.107517
0.104264
0.101003
0.0977404
0.0944844
0.0912419
0.08802
0.0848258
0.081666
0.0785472
0.0754753
0.0724561
0.0694944
0.0665947
0.0637607
0.0609958
0.0583024
0.0556827
0.053138
0.0506696
0.0482779
0.0459631
0.0437252
0.0415636
0.0394777
0.0374666
0.0355294
0.0336649
0.031872
0.0301499
0.0284975
0.0269138
0.0253977
0.0239483
0.0993204
0.0998044
0.100208
0.100531
0.100773
0.100936
0.10102
0.101025
0.100955
0.10081
0.100593
0.100306
0.0999505
0.0995294
0.099045
0.0984996
0.0978955
0.0972351
0.0965205
0.095754
0.0949377
0.0940737
0.0931642
0.0922112
0.091217
0.0901836
0.102262
0.102755
0.103163
0.103484
0.10372
0.103871
0.103939
0.103924
0.103829
0.103656
0.103407
0.103084
0.10269
0.102228
0.1017
0.101108
0.100455
0.0997447
0.0989782
0.0981584
0.0972875
0.0963678
0.0954018
0.0943916
0.0933395
0.092248
0.105349
0.10585
0.106259
0.106578
0.106805
0.106942
0.106991
0.106953
0.106831
0.106626
0.106341
0.105979
0.105543
0.105036
0.104459
0.103817
0.103112
0.102347
0.101525
0.100648
0.0997182
0.0987389
0.0977123
0.0966409
0.0955272
0.0943738
0.108587
0.109095
0.109505
0.109818
0.110034
0.110155
0.110183
0.110118
0.109965
0.109725
0.109401
0.108996
0.108514
0.107957
0.107328
0.106632
0.10587
0.105047
0.104164
0.103225
0.102232
0.101189
0.100098
0.0989612
0.0977818
0.0965624
0.111986
0.1125
0.112908
0.113213
0.113416
0.113517
0.11352
0.113426
0.113237
0.112958
0.112591
0.112139
0.111606
0.110996
0.110311
0.109556
0.108733
0.107846
0.106898
0.105893
0.104833
0.103721
0.102561
0.101354
0.100105
0.0988156
0.115555
0.116072
0.116477
0.116771
0.116957
0.117036
0.11701
0.116882
0.116655
0.116332
0.115918
0.115414
0.114826
0.114157
0.113411
0.112592
0.111703
0.110748
0.109731
0.108654
0.107522
0.106337
0.105103
0.103823
0.102499
0.101135
0.119303
0.11982
0.120219
0.1205
0.120666
0.120718
0.12066
0.120494
0.120224
0.119853
0.119386
0.118826
0.118178
0.117446
0.116634
0.115746
0.114786
0.113758
0.112665
0.111513
0.110303
0.10904
0.107727
0.106368
0.104965
0.103522
0.123239
0.123754
0.124144
0.124408
0.12455
0.124572
0.124477
0.124268
0.12395
0.123527
0.123002
0.122381
0.121667
0.120866
0.119983
0.11902
0.117983
0.116877
0.115704
0.11447
0.113178
0.111832
0.110435
0.108991
0.107505
0.105978
0.127373
0.127884
0.12826
0.128504
0.128617
0.128604
0.128467
0.128211
0.12784
0.127358
0.126771
0.126082
0.125298
0.124423
0.123461
0.122419
0.1213
0.120109
0.118851
0.117529
0.116149
0.114714
0.113229
0.111696
0.11012
0.108505
0.131715
0.132218
0.132578
0.132796
0.132877
0.132823
0.132639
0.13233
0.1319
0.131354
0.130698
0.129936
0.129075
0.128119
0.127074
0.125946
0.124738
0.123457
0.122107
0.120693
0.119219
0.11769
0.11611
0.114483
0.112813
0.111104
0.136276
0.136766
0.137105
0.137293
0.137335
0.137236
0.136999
0.136631
0.136135
0.135519
0.134787
0.133946
0.133001
0.131959
0.130824
0.129603
0.128302
0.126924
0.125477
0.123964
0.12239
0.120761
0.119081
0.117353
0.115584
0.113776
0.141065
0.141539
0.14185
0.142002
0.142
0.141849
0.141553
0.141119
0.140552
0.139858
0.139044
0.138117
0.137082
0.135946
0.134715
0.133395
0.131992
0.130512
0.12896
0.127342
0.125663
0.123928
0.122142
0.120309
0.118434
0.116523
0.146092
0.146543
0.146822
0.146932
0.146879
0.146668
0.146306
0.145799
0.145153
0.144375
0.143472
0.142451
0.141319
0.140082
0.138747
0.137321
0.135811
0.134221
0.132559
0.13083
0.129039
0.127192
0.125294
0.12335
0.121365
0.119343
0.151365
0.151788
0.152027
0.152088
0.151977
0.1517
0.151264
0.150676
0.149943
0.149073
0.148073
0.14695
0.145713
0.144368
0.142923
0.141384
0.139759
0.138054
0.136274
0.134427
0.132518
0.130553
0.128537
0.126476
0.124375
0.122239
0.156892
0.157279
0.157471
0.157475
0.157297
0.156946
0.156428
0.155751
0.154923
0.153952
0.152847
0.151616
0.150266
0.148806
0.147242
0.145583
0.143836
0.142008
0.140105
0.138133
0.1361
0.134011
0.131872
0.129688
0.127465
0.125209
0.162677
0.16302
0.163157
0.163095
0.162843
0.162408
0.161799
0.161024
0.160093
0.159013
0.157795
0.156446
0.154975
0.153392
0.151703
0.149917
0.148041
0.146083
0.144049
0.141947
0.139783
0.137564
0.135295
0.132983
0.130634
0.128252
0.168723
0.169013
0.169085
0.168948
0.168611
0.168084
0.167374
0.166492
0.165448
0.164251
0.162911
0.161436
0.159837
0.158122
0.156301
0.15438
0.152369
0.150274
0.148104
0.145865
0.143565
0.14121
0.138806
0.136361
0.133878
0.131366
0.175026
0.175253
0.175251
0.175029
0.174598
0.173967
0.173147
0.172149
0.170983
0.169659
0.168189
0.16658
0.164845
0.162991
0.161029
0.158967
0.156814
0.154577
0.152264
0.149883
0.147441
0.144945
0.142401
0.139816
0.137197
0.134549
0.18158
0.181734
0.181646
0.181328
0.180792
0.180048
0.179109
0.177985
0.176687
0.175229
0.173619
0.171869
0.169989
0.16799
0.165881
0.163671
0.161369
0.158984
0.156523
0.153994
0.151405
0.148762
0.146074
0.143346
0.140585
0.137797
0.170844
0.168481
0.166025
0.163486
0.160872
0.15819
0.15545
0.152657
0.14982
0.146944
0.144037
0.141106
0.03356
0.0334878
0.0334092
0.0333245
0.0332335
0.0331364
0.0330333
0.0329241
0.032809
0.0326881
0.0325615
0.0324292
0.0322913
0.0321479
0.0319992
0.0318452
0.031686
0.0315217
0.0313525
0.0311785
0.0309998
0.0308165
0.0306287
0.0304365
0.0302401
0.0300397
0.0335158
0.0334471
0.033372
0.0332909
0.0332036
0.0331102
0.0330107
0.0329054
0.0327941
0.032677
0.0325542
0.0324258
0.0322918
0.0321524
0.0320076
0.0318575
0.0317022
0.0315419
0.0313766
0.0312065
0.0310317
0.0308522
0.0306682
0.0304799
0.0302874
0.0300907
0.0335238
0.0334587
0.0333872
0.0333097
0.033226
0.0331363
0.0330406
0.032939
0.0328315
0.0327182
0.0325992
0.0324745
0.0323443
0.0322087
0.0320677
0.0319213
0.0317699
0.0316133
0.0314517
0.0312853
0.0311141
0.0309383
0.0307579
0.0305732
0.0303841
0.0301909
0.0335818
0.0335202
0.0334524
0.0333786
0.0332986
0.0332126
0.0331206
0.0330228
0.032919
0.0328095
0.0326942
0.0325733
0.0324469
0.0323149
0.0321776
0.0320349
0.031887
0.031734
0.031576
0.0314131
0.0312454
0.031073
0.030896
0.0307145
0.0305287
0.0303387
0.0336876
0.0336298
0.0335657
0.0334957
0.0334195
0.0333373
0.0332491
0.033155
0.033055
0.0329492
0.0328377
0.0327205
0.0325977
0.0324694
0.0323356
0.0321965
0.0320521
0.0319026
0.031748
0.0315884
0.0314239
0.0312547
0.0310809
0.0309024
0.0307196
0.0305325
0.0338397
0.0337858
0.0337256
0.0336595
0.0335871
0.0335088
0.0334244
0.0333342
0.033238
0.0331359
0.0330281
0.0329146
0.0327954
0.0326707
0.0325404
0.0324048
0.0322638
0.0321176
0.0319662
0.0318098
0.0316484
0.0314822
0.0313113
0.0311357
0.0309556
0.0307711
0.0340366
0.0339867
0.0339306
0.0338684
0.0338001
0.0337257
0.0336453
0.0335589
0.0334665
0.0333683
0.0332642
0.0331544
0.0330388
0.0329176
0.0327908
0.0326586
0.0325209
0.0323778
0.0322296
0.0320762
0.0319177
0.0317543
0.0315861
0.0314131
0.0312355
0.0310533
0.0342771
0.0342314
0.0341794
0.0341214
0.0340572
0.0339869
0.0339105
0.0338281
0.0337397
0.0336453
0.033545
0.0334388
0.0333269
0.0332092
0.0330858
0.0329568
0.0328223
0.0326824
0.0325371
0.0323866
0.0322308
0.03207
0.0319043
0.0317337
0.0315583
0.0313782
0.03456
0.0345187
0.0344711
0.0344175
0.0343575
0.0342914
0.0342192
0.0341409
0.0340564
0.033966
0.0338695
0.033767
0.0336586
0.0335444
0.0334244
0.0332987
0.0331673
0.0330304
0.0328879
0.0327401
0.0325869
0.0324286
0.0322651
0.0320966
0.0319231
0.0317449
0.0348845
0.0348479
0.0348048
0.0347557
0.0347002
0.0346385
0.0345706
0.0344965
0.0344161
0.0343296
0.034237
0.0341383
0.0340335
0.0339228
0.0338061
0.0336836
0.0335552
0.0334211
0.0332814
0.0331361
0.0329853
0.0328292
0.0326677
0.0325011
0.0323293
0.0321527
0.03525
0.0352182
0.03518
0.0351356
0.0350848
0.0350276
0.0349641
0.0348943
0.0348181
0.0347357
0.034647
0.0345521
0.0344509
0.0343436
0.0342303
0.0341108
0.0339854
0.0338541
0.033717
0.033574
0.0334255
0.0332713
0.0331117
0.0329466
0.0327763
0.0326008
0.035656
0.0356293
0.0355961
0.0355567
0.0355107
0.0354582
0.0353993
0.035334
0.0352621
0.0351838
0.0350991
0.035008
0.0349105
0.0348067
0.0346965
0.0345801
0.0344576
0.0343289
0.0341942
0.0340535
0.0339069
0.0337545
0.0335964
0.0334327
0.0332635
0.0330889
0.036102
0.0360807
0.0360528
0.0360186
0.0359776
0.0359301
0.035876
0.0358152
0.0357478
0.0356737
0.0355931
0.0355058
0.035412
0.0353116
0.0352046
0.0350912
0.0349714
0.0348453
0.0347128
0.0345741
0.0344293
0.0342785
0.0341217
0.033959
0.0337906
0.0336165
0.0365878
0.0365723
0.03655
0.0365211
0.0364855
0.036443
0.0363939
0.0363379
0.036275
0.0362053
0.0361288
0.0360454
0.0359552
0.0358582
0.0357544
0.0356439
0.0355268
0.035403
0.0352726
0.0351358
0.0349925
0.0348429
0.0346871
0.0345252
0.0343572
0.0341833
0.0371135
0.0371039
0.0370874
0.0370643
0.0370341
0.0369971
0.036953
0.0369019
0.0368438
0.0367785
0.0367062
0.0366267
0.0365402
0.0364466
0.0363459
0.0362382
0.0361235
0.0360019
0.0358735
0.0357382
0.0355963
0.0354477
0.0352925
0.035131
0.0349631
0.034789
0.0376788
0.0376756
0.0376653
0.0376481
0.0376237
0.0375922
0.0375535
0.0375075
0.0374541
0.0373934
0.0373253
0.0372498
0.037167
0.0370767
0.036979
0.036874
0.0367617
0.0366422
0.0365154
0.0363815
0.0362406
0.0360926
0.0359379
0.0357763
0.0356081
0.0354333
0.038284
0.0382875
0.0382836
0.0382728
0.0382544
0.0382287
0.0381955
0.0381547
0.0381063
0.0380502
0.0379864
0.0379149
0.0378357
0.0377487
0.037654
0.0375515
0.0374414
0.0373237
0.0371984
0.0370656
0.0369254
0.0367778
0.0366229
0.036461
0.036292
0.0361161
0.0389293
0.0389397
0.0389427
0.0389384
0.0389264
0.0389067
0.0388792
0.0388438
0.0388004
0.0387491
0.0386897
0.0386222
0.0385465
0.0384628
0.0383709
0.0382709
0.0381628
0.0380467
0.0379226
0.0377905
0.0376507
0.0375031
0.0373478
0.037185
0.0370148
0.0368373
0.0396149
0.0396327
0.0396429
0.0396454
0.03964
0.0396265
0.0396049
0.0395751
0.039537
0.0394904
0.0394354
0.0393719
0.0392998
0.0392192
0.03913
0.0390322
0.0389259
0.0388112
0.038688
0.0385564
0.0384166
0.0382685
0.0381124
0.0379483
0.0377763
0.0375966
0.0403412
0.0403668
0.0403844
0.0403942
0.0403955
0.0403886
0.0403731
0.040349
0.0403162
0.0402745
0.0402239
0.0401644
0.0400958
0.0400182
0.0399316
0.0398359
0.0397312
0.0396175
0.0394949
0.0393634
0.0392232
0.0390742
0.0389167
0.0387508
0.0385766
0.0383942
0.0411085
0.0411423
0.0411678
0.0411851
0.0411936
0.0411934
0.0411842
0.041166
0.0411386
0.0411018
0.0410557
0.0410001
0.0409349
0.0408602
0.0407759
0.0406821
0.0405787
0.0404658
0.0403434
0.0402116
0.0400706
0.0399203
0.0397609
0.0395926
0.0394155
0.0392297
0.0419174
0.0419598
0.0419936
0.0420187
0.0420346
0.0420414
0.0420387
0.0420265
0.0420046
0.0419728
0.0419311
0.0418794
0.0418176
0.0417456
0.0416635
0.0415713
0.0414689
0.0413564
0.0412338
0.0411013
0.0409589
0.0408068
0.040645
0.0404737
0.0402931
0.0401033
0.0427685
0.0428199
0.0428623
0.0428955
0.0429192
0.0429331
0.0429372
0.0429311
0.0429148
0.042888
0.0428507
0.0428028
0.0427442
0.0426748
0.0425946
0.0425037
0.042402
0.0422895
0.0421664
0.0420326
0.0418884
0.0417338
0.041569
0.0413941
0.0412093
0.0410148
0.0436622
0.0437231
0.0437744
0.0438162
0.0438478
0.0438692
0.0438801
0.0438803
0.0438697
0.0438479
0.043815
0.0437708
0.0437152
0.0436482
0.0435697
0.0434797
0.0433783
0.0432655
0.0431413
0.0430058
0.0428592
0.0427016
0.0425331
0.0423539
0.0421642
0.0419641
0.0445992
0.04467
0.0447307
0.0447813
0.0448212
0.0448503
0.0448682
0.0448748
0.0448698
0.0448531
0.0448245
0.0447839
0.0447312
0.0446663
0.0445891
0.0444998
0.0443983
0.0442846
0.0441589
0.0440211
0.0438715
0.0437102
0.0435373
0.043353
0.0431576
0.0429513
0.0455802
0.0456613
0.0457318
0.0457916
0.04584
0.0458769
0.0459021
0.0459152
0.0459159
0.0459042
0.0458798
0.0458426
0.0457925
0.0457294
0.0456534
0.0455643
0.0454622
0.0453472
0.0452193
0.0450787
0.0449254
0.0447597
0.0445817
0.0443916
0.0441897
0.0439762
0.0466059
0.0466977
0.0467784
0.0468477
0.0469049
0.0469499
0.0469824
0.047002
0.0470085
0.0470017
0.0469814
0.0469474
0.0468997
0.0468382
0.0467628
0.0466735
0.0465704
0.0464535
0.0463229
0.0461788
0.0460211
0.0458503
0.0456663
0.0454696
0.0452603
0.0450387
0.0476769
0.04778
0.0478712
0.0479502
0.0480165
0.0480698
0.0481097
0.0481359
0.0481481
0.0481462
0.0481298
0.0480989
0.0480533
0.047993
0.0479178
0.0478279
0.0477233
0.0476039
0.0474699
0.0473215
0.0471588
0.046982
0.0467913
0.046587
0.0463694
0.0461388
0.0487941
0.0489087
0.0490109
0.0491
0.0491756
0.0492373
0.0492847
0.0493175
0.0493355
0.0493382
0.0493256
0.0492975
0.0492537
0.0491941
0.0491188
0.0490278
0.0489209
0.0487985
0.0486605
0.0485071
0.0483385
0.0481549
0.0479565
0.0477438
0.0475169
0.0472762
0.049958
0.0500848
0.0501982
0.0502977
0.0503828
0.0504531
0.0505081
0.0505475
0.050571
0.0505783
0.0505693
0.0505436
0.0505012
0.0504421
0.0503661
0.0502733
0.0501638
0.0500375
0.0498947
0.0497356
0.0495602
0.049369
0.0491621
0.0489398
0.0487027
0.0484509
0.0511695
0.0513088
0.0514338
0.051544
0.0516388
0.0517177
0.0517804
0.0518264
0.0518554
0.0518671
0.0518613
0.0518377
0.0517964
0.0517371
0.05166
0.0515649
0.0514519
0.0513211
0.0511728
0.051007
0.0508241
0.0506242
0.0504078
0.0501751
0.0499265
0.0496625
0.0524293
0.0525815
0.0527185
0.0528396
0.0529442
0.0530319
0.0531022
0.0531547
0.053189
0.0532048
0.053202
0.0531802
0.0531395
0.0530796
0.0530006
0.0529025
0.0527854
0.0526494
0.0524947
0.0523215
0.05213
0.0519205
0.0516935
0.0514493
0.0511882
0.0509109
0.0537382
0.0539037
0.0540529
0.0541851
0.0542997
0.0543962
0.0544741
0.0545329
0.0545724
0.0545921
0.0545918
0.0545714
0.0545307
0.0544696
0.0543882
0.0542864
0.0541645
0.0540224
0.0538604
0.0536788
0.0534778
0.0532578
0.0530191
0.0527622
0.0524875
0.0521956
0.0550968
0.055276
0.0554377
0.0555813
0.0557059
0.0558112
0.0558966
0.0559616
0.0560059
0.0560291
0.056031
0.0560114
0.0559702
0.0559073
0.0558228
0.0557166
0.055589
0.05544
0.0552698
0.0550788
0.0548673
0.0546356
0.0543842
0.0541135
0.053824
0.0535163
0.0565059
0.0566991
0.0568736
0.0570286
0.0571634
0.0572774
0.0573701
0.0574411
0.0574899
0.0575162
0.0575198
0.0575005
0.0574582
0.0573929
0.0573045
0.0571931
0.0570589
0.056902
0.0567228
0.0565214
0.0562983
0.0560538
0.0557885
0.0555028
0.0551973
0.0548726
0.0579663
0.0581738
0.0583613
0.0585278
0.0586727
0.0587953
0.0588952
0.0589718
0.0590248
0.0590538
0.0590585
0.0590389
0.0589948
0.0589262
0.0588331
0.0587156
0.058574
0.0584083
0.0582189
0.0580061
0.0577703
0.0575119
0.0572315
0.0569296
0.0566069
0.0562639
0.0594788
0.0597008
0.0599014
0.0600795
0.0602344
0.0603655
0.0604723
0.0605542
0.0606108
0.0606419
0.0606472
0.0606266
0.0605799
0.0605072
0.0604086
0.0602841
0.060134
0.0599585
0.0597579
0.0595326
0.059283
0.0590095
0.0587128
0.0583935
0.0580521
0.0576895
0.0610439
0.0612808
0.0614946
0.0616843
0.0618491
0.0619885
0.0621018
0.0621885
0.0622484
0.0622809
0.0622861
0.0622636
0.0622136
0.062136
0.0620308
0.0618983
0.0617387
0.0615523
0.0613394
0.0611004
0.0608357
0.060546
0.0602317
0.0598937
0.0595325
0.0591489
0.0626627
0.0629146
0.0631416
0.0633429
0.0635174
0.0636647
0.0637841
0.0638752
0.0639376
0.063971
0.0639752
0.0639501
0.0638958
0.0638122
0.0636995
0.063558
0.0633878
0.0631893
0.0629628
0.0627089
0.062428
0.0621207
0.0617876
0.0614295
0.0610471
0.0606412
0.0643359
0.0646029
0.0648432
0.0650558
0.0652398
0.0653947
0.0655198
0.0656146
0.0656789
0.0657123
0.0657147
0.065686
0.0656264
0.0655358
0.0654145
0.0652628
0.0650808
0.064869
0.0646278
0.0643577
0.0640592
0.063733
0.0633798
0.0630003
0.0625953
0.0621657
0.0660644
0.0663466
0.0666001
0.0668239
0.0670171
0.067179
0.0673092
0.0674071
0.0674724
0.067505
0.0675046
0.0674714
0.0674054
0.0673067
0.0671756
0.0670123
0.0668173
0.0665909
0.0663336
0.066046
0.0657286
0.0653822
0.0650074
0.0646051
0.0641761
0.0637214
0.0678489
0.0681465
0.0684131
0.0686478
0.0688497
0.0690183
0.0691528
0.0692531
0.0693186
0.0693494
0.0693452
0.0693063
0.0692327
0.0691246
0.0689824
0.0688064
0.0685969
0.0683546
0.0680798
0.0677733
0.0674356
0.0670675
0.0666697
0.0662431
0.0657887
0.0653075
0.0696906
0.0700033
0.0702829
0.0705283
0.0707384
0.070913
0.0710513
0.0711529
0.0712178
0.0712456
0.0712366
0.0711907
0.0711083
0.0709895
0.0708348
0.0706446
0.0704193
0.0701595
0.0698659
0.0695389
0.0691794
0.0687881
0.0683658
0.0679135
0.0674322
0.0669229
0.0715902
0.0719182
0.0722105
0.072466
0.0726839
0.0728638
0.073005
0.0731072
0.0731702
0.0731941
0.0731789
0.0731248
0.0730322
0.0729013
0.0727326
0.0725267
0.072284
0.0720053
0.0716911
0.0713422
0.0709592
0.0705432
0.0700949
0.0696154
0.0691056
0.0685667
0.0735487
0.0738918
0.0741965
0.0744618
0.0746869
0.0748713
0.0750145
0.0751162
0.0751764
0.075195
0.0751723
0.0751086
0.0750043
0.0748598
0.0746756
0.0744524
0.0741907
0.0738913
0.073555
0.0731824
0.0727745
0.0723321
0.0718561
0.0713477
0.0708079
0.0702379
0.0755672
0.0759252
0.076242
0.0765165
0.0767481
0.0769362
0.0770804
0.0771805
0.0772366
0.0772487
0.0772171
0.0771423
0.0770247
0.0768649
0.0766635
0.0764213
0.076139
0.0758172
0.075457
0.0750591
0.0746244
0.0741539
0.0736486
0.0731096
0.0725381
0.0719353
0.0776465
0.0780191
0.0783476
0.0786308
0.0788681
0.079059
0.0792032
0.0793006
0.0793512
0.0793554
0.0793134
0.0792259
0.0790934
0.0789166
0.0786963
0.0784333
0.0781284
0.0777826
0.0773966
0.0769715
0.0765082
0.0760078
0.0754714
0.0749001
0.0742952
0.0736579
0.0797876
0.0801746
0.0805143
0.0808055
0.0810477
0.0812404
0.0813835
0.0814768
0.0815206
0.0815153
0.0814614
0.0813595
0.0812104
0.0810149
0.0807738
0.0804881
0.0801588
0.0797868
0.0793732
0.078919
0.0784252
0.0778931
0.0773237
0.0767182
0.0760781
0.0754047
0.0819914
0.0823925
0.0827428
0.0830413
0.0832874
0.0834809
0.0836216
0.0837096
0.0837452
0.0837289
0.0836613
0.0835433
0.0833757
0.0831595
0.0828957
0.0825854
0.0822296
0.0818296
0.0813863
0.080901
0.0803748
0.0798089
0.0792046
0.0785631
0.077886
0.0771747
0.0842587
0.0846734
0.0850338
0.0853387
0.0855879
0.085781
0.0859181
0.0859993
0.0860251
0.0859961
0.0859131
0.0857771
0.0855892
0.0853503
0.0850618
0.0847248
0.0843406
0.0839103
0.0834353
0.0829168
0.0823561
0.0817544
0.0811132
0.0804339
0.0797178
0.0789666
0.0865904
0.0870182
0.0873879
0.0876985
0.0879496
0.0881412
0.0882733
0.0883462
0.0883606
0.0883172
0.088217
0.0880611
0.0878508
0.0875873
0.0872719
0.0869061
0.0864912
0.0860286
0.0855197
0.0849659
0.0843685
0.083729
0.0830488
0.0823294
0.0815725
0.0807795
0.0889871
0.0894275
0.0898058
0.090121
0.090373
0.0905618
0.0906874
0.0907505
0.0907517
0.0906921
0.0905728
0.0903951
0.0901603
0.08987
0.0895257
0.0891289
0.0886811
0.0881839
0.0876388
0.0870474
0.0864112
0.0857316
0.0850103
0.0842489
0.083449
0.0826124
0.0914494
0.0919018
0.0922878
0.0926067
0.0928584
0.0930429
0.0931606
0.0932122
0.0931986
0.0931209
0.0929804
0.0927788
0.0925175
0.0921982
0.0918227
0.0913925
0.0909096
0.0903755
0.089792
0.0891607
0.0884834
0.0877616
0.086997
0.0861914
0.0853465
0.0844642
0.093978
0.0944416
0.0948345
0.0951559
0.0954059
0.0955848
0.095693
0.0957313
0.095701
0.0956032
0.0954397
0.095212
0.0949219
0.0945714
0.0941624
0.0936966
0.0931762
0.0926029
0.0919786
0.0913051
0.0905843
0.0898179
0.0890079
0.0881559
0.0872639
0.0863339
0.0965731
0.0970472
0.097446
0.0977687
0.0980157
0.0981874
0.0982845
0.0983078
0.0982588
0.098139
0.0979502
0.0976942
0.0973732
0.0969892
0.0965442
0.0960405
0.0954801
0.0948652
0.0941977
0.0934797
0.0927131
0.0918999
0.091042
0.0901415
0.0892002
0.0882205
0.0298404
0.0296408
0.0294336
0.0292188
0.0289962
0.0287655
0.0285268
0.0282797
0.0280243
0.0277603
0.0274876
0.0272062
0.0269159
0.0266167
0.0263085
0.0259912
0.0256649
0.0253294
0.0249849
0.0246312
0.0242686
0.023897
0.0235165
0.0231272
0.0227294
0.0223231
0.0219085
0.0214859
0.0210555
0.0206175
0.0201723
0.0197202
0.0192615
0.0187965
0.0183257
0.0178494
0.0173681
0.0168823
0.0163924
0.015899
0.0154028
0.0149043
0.0144043
0.0139035
0.0134029
0.029895
0.0296989
0.0294954
0.0292842
0.0290652
0.0288382
0.0286031
0.0283598
0.028108
0.0278477
0.0275788
0.0273011
0.0270145
0.026719
0.0264145
0.0261009
0.0257782
0.0254463
0.0251053
0.0247552
0.024396
0.0240277
0.0236506
0.0232646
0.0228699
0.0224667
0.0220551
0.0216354
0.0212078
0.0207725
0.0203299
0.0198803
0.019424
0.0189613
0.0184927
0.0180185
0.0175392
0.0170552
0.016567
0.0160753
0.0155805
0.0150833
0.0145844
0.0140845
0.0135846
0.0299986
0.0298057
0.0296054
0.0293975
0.0291818
0.0289581
0.0287262
0.0284861
0.0282376
0.0279806
0.0277149
0.0274403
0.0271569
0.0268645
0.0265631
0.0262525
0.0259328
0.0256038
0.0252657
0.0249184
0.0245619
0.0241963
0.0238217
0.0234381
0.0230458
0.0226449
0.0222355
0.0218179
0.0213922
0.0209588
0.020518
0.0200701
0.0196153
0.0191541
0.0186868
0.0182139
0.0177358
0.017253
0.0167658
0.0162749
0.0157809
0.0152843
0.0147859
0.0142863
0.0137864
0.0301494
0.0299595
0.0297621
0.0295571
0.0293442
0.0291234
0.0288945
0.0286572
0.0284115
0.0281572
0.0278942
0.0276223
0.0273415
0.0270517
0.0267527
0.0264446
0.0261272
0.0258005
0.0254645
0.0251193
0.0247648
0.0244011
0.0240283
0.0236464
0.0232557
0.0228562
0.0224481
0.0220317
0.0216072
0.0211748
0.0207349
0.0202877
0.0198336
0.0193731
0.0189063
0.0184339
0.0179561
0.0174735
0.0169866
0.0164958
0.0160018
0.015505
0.0150063
0.0145062
0.0140056
0.030346
0.0301587
0.0299639
0.0297615
0.0295512