/*--------------------------------*- C++ -*----------------------------------*\
| =========                 |                                                 |
| \\      /  F ield         | OpenFOAM: The Open Source CFD Toolbox           |
|  \\    /   O peration     | Version:  2412                                  |
|   \\  /    A nd           | Website:  www.openfoam.com                      |
|    \\/     M anipulation  |                                                 |
\*---------------------------------------------------------------------------*/
FoamFile
{
    version     2.0;
    format      ascii;
    arch        "LSB;label=32;scalar=64";
    class       volScalarField;
    location    "30";
    object      p;
}
// * * * * * * * * * * * * * * * * * * * * * * * * * * * * * * * * * * * * * //

dimensions      [0 2 -2 0 0 0 0];

internalField   nonuniform List<scalar> 
5285
(
-0.000213171
-0.000205602
-0.000198031
-0.000190471
-0.000182936
-0.00017544
-0.000167998
-0.000160622
-0.000153328
-0.000146128
-0.000139035
-0.000132062
-0.000125221
-0.000118525
-0.000111984
-0.000105607
-9.94056e-05
-9.33871e-05
-8.75592e-05
-8.19287e-05
-7.65011e-05
-7.12811e-05
-6.62723e-05
-6.14774e-05
-5.68979e-05
-5.25346e-05
-4.83871e-05
-4.44543e-05
-4.0734e-05
-3.72235e-05
-3.39191e-05
-3.08165e-05
-2.79108e-05
-2.51964e-05
-2.26674e-05
-2.03174e-05
-1.81395e-05
-1.61266e-05
-1.42716e-05
-1.25669e-05
-1.10049e-05
-9.57813e-06
-8.27893e-06
-7.09985e-06
-0.000217416
-0.000209492
-0.000201577
-0.000193683
-0.000185825
-0.000178018
-0.000170276
-0.000162614
-0.000155047
-0.000147587
-0.000140248
-0.000133044
-0.000125987
-0.000119089
-0.00011236
-0.00010581
-9.94499e-05
-9.32869e-05
-8.73285e-05
-8.15809e-05
-7.60495e-05
-7.07383e-05
-6.56505e-05
-6.07881e-05
-5.6152e-05
-5.17424e-05
-4.75583e-05
-4.35976e-05
-3.98579e-05
-3.63353e-05
-3.30258e-05
-2.99241e-05
-2.70249e-05
-2.43219e-05
-2.18084e-05
-1.94776e-05
-1.73219e-05
-1.5334e-05
-1.35059e-05
-1.18298e-05
-1.02977e-05
-8.90162e-06
-7.63368e-06
-6.48614e-06
-0.000221573
-0.000213284
-0.000205015
-0.000196778
-0.000188588
-0.000180462
-0.000172416
-0.000164463
-0.000156618
-0.000148895
-0.000141309
-0.000133873
-0.000126599
-0.000119498
-0.000112583
-0.000105862
-9.93461e-05
-9.30418e-05
-8.69565e-05
-8.10962e-05
-7.54656e-05
-7.00682e-05
-6.49066e-05
-5.99821e-05
-5.52952e-05
-5.08451e-05
-4.66301e-05
-4.26475e-05
-3.8894e-05
-3.53652e-05
-3.20561e-05
-2.89609e-05
-2.60734e-05
-2.33868e-05
-2.08938e-05
-1.85867e-05
-1.64578e-05
-1.44989e-05
-1.27017e-05
-1.10578e-05
-9.55896e-06
-8.19682e-06
-6.96305e-06
-5.84975e-06
-0.000225629
-0.000216964
-0.00020833
-0.000199741
-0.000191213
-0.000182762
-0.000174404
-0.000166155
-0.000158029
-0.000150042
-0.000142206
-0.000134537
-0.000127046
-0.000119744
-0.000112644
-0.000105755
-9.90859e-05
-9.26441e-05
-8.64364e-05
-8.04681e-05
-7.47434e-05
-6.92653e-05
-6.40357e-05
-5.90553e-05
-5.43236e-05
-4.98392e-05
-4.55996e-05
-4.16014e-05
-3.78403e-05
-3.43113e-05
-3.10085e-05
-2.79255e-05
-2.50553e-05
-2.23904e-05
-1.99229e-05
-1.76445e-05
-1.55468e-05
-1.36212e-05
-1.18589e-05
-1.0251e-05
-8.78892e-06
-7.46388e-06
-6.26726e-06
-5.19092e-06
-0.00022957
-0.000220517
-0.000211509
-0.000202559
-0.000193684
-0.000184901
-0.000176227
-0.000167678
-0.000159268
-0.000151013
-0.000142928
-0.000135025
-0.000127317
-0.000119817
-0.000112534
-0.00010548
-9.86613e-05
-9.20865e-05
-8.57612e-05
-7.96903e-05
-7.38773e-05
-6.83247e-05
-6.30335e-05
-5.80036e-05
-5.32338e-05
-4.87218e-05
-4.44642e-05
-4.0457e-05
-3.66949e-05
-3.3172e-05
-2.98818e-05
-2.6817e-05
-2.39699e-05
-2.13322e-05
-1.88954e-05
-1.66507e-05
-1.4589e-05
-1.2701e-05
-1.09777e-05
-9.40967e-06
-7.98783e-06
-6.70318e-06
-5.54669e-06
-4.51007e-06
-0.00023338
-0.000223929
-0.000214536
-0.000205217
-0.000195988
-0.000186867
-0.000177871
-0.000169018
-0.000160321
-0.000151797
-0.000143461
-0.000135325
-0.000127402
-0.000119705
-0.000112243
-0.000105027
-9.80641e-05
-9.13612e-05
-8.4924e-05
-7.87565e-05
-7.28618e-05
-6.72413e-05
-6.18954e-05
-5.6823e-05
-5.20223e-05
-4.74898e-05
-4.32216e-05
-3.92123e-05
-3.54561e-05
-3.19461e-05
-2.8675e-05
-2.56347e-05
-2.28166e-05
-2.02119e-05
-1.78113e-05
-1.56053e-05
-1.35843e-05
-1.17385e-05
-1.00583e-05
-8.53403e-06
-7.15605e-06
-5.91507e-06
-4.80175e-06
-3.8076e-06
-0.000237042
-0.000227182
-0.000217395
-0.000207698
-0.000198107
-0.000188643
-0.000179321
-0.00017016
-0.000161175
-0.000152381
-0.000143793
-0.000135425
-0.00012729
-0.000119398
-0.000111762
-0.000104388
-9.72857e-05
-9.04606e-05
-8.39177e-05
-7.76605e-05
-7.1691e-05
-6.601e-05
-6.06169e-05
-5.55098e-05
-5.06857e-05
-4.61406e-05
-4.18691e-05
-3.78654e-05
-3.41223e-05
-3.06323e-05
-2.73871e-05
-2.43777e-05
-2.1595e-05
-1.90291e-05
-1.66703e-05
-1.45083e-05
-1.25329e-05
-1.07339e-05
-9.10117e-06
-7.62452e-06
-6.29403e-06
-5.10005e-06
-4.03293e-06
-3.08403e-06
-0.000240539
-0.000230258
-0.000220068
-0.000209985
-0.000200027
-0.000190213
-0.000180561
-0.00017109
-0.000161814
-0.000152749
-0.000143911
-0.000135313
-0.000126968
-0.000118886
-0.000111079
-0.000103553
-9.63175e-05
-8.93768e-05
-8.27353e-05
-7.63958e-05
-7.03593e-05
-6.46258e-05
-5.91937e-05
-5.40601e-05
-4.9221e-05
-4.46712e-05
-4.04047e-05
-3.64142e-05
-3.2692e-05
-2.92294e-05
-2.60171e-05
-2.30456e-05
-2.03046e-05
-1.77837e-05
-1.54724e-05
-1.33598e-05
-1.14351e-05
-9.68763e-06
-8.10662e-06
-6.6816e-06
-5.40225e-06
-4.25863e-06
-3.24077e-06
-2.33988e-06
-0.000243852
-0.000233141
-0.000222538
-0.000212061
-0.000201728
-0.00019156
-0.000181575
-0.00017179
-0.000162223
-0.000152889
-0.000143802
-0.000134976
-0.000126425
-0.000118157
-0.000110184
-0.000102513
-9.51509e-05
-8.8102e-05
-8.13698e-05
-7.49561e-05
-6.88612e-05
-6.30839e-05
-5.76216e-05
-5.24703e-05
-4.76249e-05
-4.30793e-05
-3.88261e-05
-3.48573e-05
-3.1164e-05
-2.77364e-05
-2.45646e-05
-2.16379e-05
-1.89454e-05
-1.64758e-05
-1.42179e-05
-1.21602e-05
-1.02914e-05
-8.60006e-06
-7.07519e-06
-5.70584e-06
-4.48133e-06
-3.39142e-06
-2.42588e-06
-1.57577e-06
-0.000246961
-0.000235809
-0.000224785
-0.000213906
-0.000203193
-0.000192666
-0.000182345
-0.000172246
-0.000162387
-0.000152784
-0.000143451
-0.000134401
-0.000125648
-0.0001172
-0.000109068
-0.000101259
-9.37773e-05
-8.66283e-05
-7.98141e-05
-7.33354e-05
-6.71913e-05
-6.13796e-05
-5.58965e-05
-5.0737e-05
-4.58948e-05
-4.13624e-05
-3.71317e-05
-3.31932e-05
-2.95371e-05
-2.61528e-05
-2.30291e-05
-2.01545e-05
-1.75173e-05
-1.51055e-05
-1.29071e-05
-1.09099e-05
-9.10211e-06
-7.47185e-06
-6.00756e-06
-4.69793e-06
-3.53196e-06
-2.49913e-06
-1.58895e-06
-7.92384e-07
-0.000249847
-0.000238243
-0.000226788
-0.000215502
-0.000204403
-0.000193514
-0.000182854
-0.00017244
-0.00016229
-0.00015242
-0.000142844
-0.000133575
-0.000124625
-0.000116003
-0.00010772
-9.97794e-05
-9.21879e-05
-8.49481e-05
-7.80614e-05
-7.15275e-05
-6.53443e-05
-5.95083e-05
-5.40147e-05
-4.8857e-05
-4.40279e-05
-3.95186e-05
-3.53197e-05
-3.14208e-05
-2.78107e-05
-2.44779e-05
-2.14103e-05
-1.85954e-05
-1.60207e-05
-1.36732e-05
-1.15404e-05
-9.60957e-06
-7.8681e-06
-6.30375e-06
-4.90448e-06
-3.65866e-06
-2.55493e-06
-1.58255e-06
-7.30766e-07
9.53308e-09
-0.000252485
-0.00024042
-0.000228527
-0.000216826
-0.000205337
-0.000194083
-0.000183083
-0.000172355
-0.000161915
-0.000151781
-0.000141966
-0.000132483
-0.000123343
-0.000114555
-0.000106128
-9.80663e-05
-9.03742e-05
-8.30538e-05
-7.61051e-05
-6.95266e-05
-6.33151e-05
-5.74658e-05
-5.19725e-05
-4.68274e-05
-4.20219e-05
-3.7546e-05
-3.33889e-05
-2.9539e-05
-2.59842e-05
-2.27117e-05
-1.97083e-05
-1.69609e-05
-1.44558e-05
-1.21796e-05
-1.01187e-05
-8.25992e-06
-6.59015e-06
-5.09661e-06
-3.76688e-06
-2.58893e-06
-1.55115e-06
-6.42557e-07
1.47824e-07
8.29159e-07
-0.000254854
-0.000242318
-0.000229979
-0.000217858
-0.000205975
-0.000194354
-0.000183013
-0.000171971
-0.000161245
-0.000150851
-0.000140802
-0.000131112
-0.00012179
-0.000112844
-0.000104283
-9.61099e-05
-8.83278e-05
-8.09377e-05
-7.39385e-05
-6.73271e-05
-6.10991e-05
-5.52482e-05
-4.97667e-05
-4.46457e-05
-3.98748e-05
-3.5443e-05
-3.13381e-05
-2.75473e-05
-2.40572e-05
-2.08539e-05
-1.79234e-05
-1.52514e-05
-1.28234e-05
-1.06252e-05
-8.64273e-06
-6.86194e-06
-5.26927e-06
-3.85148e-06
-2.59576e-06
-1.48977e-06
-5.21618e-07
3.19879e-07
1.04589e-06
1.6656e-06
-0.000256928
-0.000243913
-0.000231121
-0.000218575
-0.000206295
-0.000194305
-0.000182624
-0.000171271
-0.000160262
-0.000149613
-0.000139338
-0.000129448
-0.000119952
-0.000110859
-0.000102174
-9.39006e-05
-8.60404e-05
-7.85928e-05
-7.15554e-05
-6.49237e-05
-5.86917e-05
-5.28516e-05
-4.73944e-05
-4.23094e-05
-3.7585e-05
-3.32086e-05
-2.91668e-05
-2.54454e-05
-2.20298e-05
-1.89051e-05
-1.60562e-05
-1.34676e-05
-1.11244e-05
-9.01133e-06
-7.11362e-06
-5.41676e-06
-3.90662e-06
-2.56953e-06
-1.3923e-06
-3.6232e-07
5.32559e-07
1.30369e-06
1.9624e-06
2.5179e-06
-0.000258682
-0.000245179
-0.000231929
-0.000218954
-0.000206275
-0.000193915
-0.000181896
-0.000170235
-0.000158948
-0.000148051
-0.000137557
-0.000127476
-0.000117817
-0.000108587
-9.97905e-05
-9.14294e-05
-8.35039e-05
-7.60121e-05
-6.89499e-05
-6.23114e-05
-5.60889e-05
-5.0273e-05
-4.4853e-05
-3.98167e-05
-3.51511e-05
-3.0842e-05
-2.68745e-05
-2.32333e-05
-1.99024e-05
-1.68659e-05
-1.41074e-05
-1.16107e-05
-9.35989e-06
-7.33904e-06
-5.53267e-06
-3.92571e-06
-2.50354e-06
-1.25208e-06
-1.57813e-07
7.92149e-07
1.61016e-06
2.3077e-06
2.89626e-06
3.385e-06
-0.000260089
-0.00024609
-0.000232377
-0.000218969
-0.00020589
-0.000193163
-0.000180808
-0.000168844
-0.000157286
-0.000146149
-0.000135444
-0.000125183
-0.000115372
-0.000106018
-9.71224e-05
-8.86872e-05
-8.07106e-05
-7.31889e-05
-6.61164e-05
-5.94855e-05
-5.32868e-05
-4.75092e-05
-4.21402e-05
-3.71661e-05
-3.25722e-05
-2.83426e-05
-2.44613e-05
-2.09113e-05
-1.76757e-05
-1.4737e-05
-1.20781e-05
-9.68181e-06
-7.53121e-06
-5.60975e-06
-3.9013e-06
-2.39023e-06
-1.06146e-06
9.94616e-08
1.10635e-06
1.97232e-06
2.70992e-06
3.33073e-06
3.84634e-06
4.26587e-06
-0.000261119
-0.000246619
-0.000232437
-0.000218595
-0.000205117
-0.000192024
-0.000179338
-0.000167077
-0.000155255
-0.000143886
-0.000132983
-0.000122553
-0.000112604
-0.000103138
-9.41588e-05
-8.56645e-05
-7.7652e-05
-7.01159e-05
-6.30488e-05
-5.64411e-05
-5.02815e-05
-4.45571e-05
-3.92537e-05
-3.43558e-05
-2.98469e-05
-2.57099e-05
-2.19269e-05
-1.84797e-05
-1.535e-05
-1.25193e-05
-9.9693e-06
-7.68196e-06
-5.63954e-06
-3.82474e-06
-2.22082e-06
-8.11638e-07
4.183e-07
1.48379e-06
2.39891e-06
3.17699e-06
3.83069e-06
4.37168e-06
4.81161e-06
5.15952e-06
-0.000261741
-0.000246734
-0.000232082
-0.000217805
-0.000203928
-0.000190474
-0.000177463
-0.000164912
-0.000152835
-0.000141247
-0.000130156
-0.000119572
-0.000109498
-9.99371e-05
-9.08895e-05
-8.23525e-05
-7.43208e-05
-6.67872e-05
-5.97421e-05
-5.31741e-05
-4.70699e-05
-4.14147e-05
-3.61922e-05
-3.13852e-05
-2.69756e-05
-2.29444e-05
-1.92723e-05
-1.59397e-05
-1.2927e-05
-1.02145e-05
-7.78298e-06
-5.61334e-06
-3.68708e-06
-1.98622e-06
-4.93442e-07
8.07872e-07
1.9336e-06
2.89885e-06
3.71791e-06
4.40427e-06
4.97068e-06
5.42887e-06
5.7905e-06
6.06449e-06
-0.000261927
-0.000246409
-0.000231284
-0.000216574
-0.000202302
-0.000188491
-0.000175162
-0.000162331
-0.000150011
-0.000138215
-0.000126952
-0.000116228
-0.000106045
-9.64061e-05
-8.73078e-05
-7.87457e-05
-7.07129e-05
-6.31997e-05
-5.61945e-05
-4.96837e-05
-4.3652e-05
-3.80825e-05
-3.29569e-05
-2.82561e-05
-2.39601e-05
-2.00484e-05
-1.65001e-05
-1.32942e-05
-1.04097e-05
-7.82582e-06
-5.52222e-06
-3.47899e-06
-1.67682e-06
-9.71013e-08
1.27802e-06
2.46561e-06
3.48189e-06
4.34222e-06
5.06106e-06
5.65202e-06
6.12792e-06
6.50045e-06
6.78131e-06
6.97921e-06
-0.000261648
-0.000245617
-0.000230019
-0.000214878
-0.000200216
-0.000186056
-0.000172418
-0.000159318
-0.000146768
-0.000134779
-0.000123359
-0.000112511
-0.000102238
-9.25388e-05
-8.34085e-05
-7.48405e-05
-6.68255e-05
-5.93517e-05
-5.24052e-05
-4.597e-05
-4.00286e-05
-3.45619e-05
-2.95497e-05
-2.49708e-05
-2.08034e-05
-1.70252e-05
-1.36137e-05
-1.05466e-05
-7.80147e-06
-5.35654e-06
-3.19036e-06
-1.28218e-06
3.88032e-07
1.83952e-06
3.09062e-06
4.15878e-06
5.06052e-06
5.8114e-06
6.42604e-06
6.91809e-06
7.30038e-06
7.58458e-06
7.78233e-06
7.90213e-06
-0.0004173
-0.00041229
-0.000406783
-0.000400813
-0.000394427
-0.000387663
-0.000380556
-0.00037314
-0.000365451
-0.000357522
-0.000349386
-0.000341075
-0.000332619
-0.000324048
-0.00031539
-0.000306672
-0.000297918
-0.000289153
-0.000280398
-0.000271676
-0.000263005
-0.000254403
-0.000245887
-0.000237473
-0.000229174
-0.000221003
-0.000435766
-0.000430177
-0.000424078
-0.000417505
-0.000410508
-0.000403127
-0.0003954
-0.000387362
-0.000379052
-0.000370505
-0.000361756
-0.000352838
-0.000343784
-0.000334624
-0.000325388
-0.000316104
-0.000306797
-0.000297494
-0.000288216
-0.000278986
-0.000269823
-0.000260747
-0.000251774
-0.00024292
-0.000234199
-0.000225624
-0.000454923
-0.000448713
-0.00044198
-0.000434762
-0.000427112
-0.000419074
-0.000410686
-0.000401987
-0.000393018
-0.000383815
-0.000374417
-0.000364858
-0.000355172
-0.000345391
-0.000335546
-0.000325667
-0.00031578
-0.000305912
-0.000296087
-0.000286326
-0.000276651
-0.000267081
-0.000257632
-0.000248322
-0.000239164
-0.000230171
-0.000474802
-0.000467925
-0.000460512
-0.000452604
-0.000444257
-0.000435517
-0.000426425
-0.000417024
-0.000407354
-0.000397457
-0.000387372
-0.000377134
-0.000366781
-0.000356346
-0.00034586
-0.000335356
-0.00032486
-0.0003144
-0.000304001
-0.000293686
-0.000283477
-0.000273392
-0.000263449
-0.000253665
-0.000244054
-0.000234628
-0.000495431
-0.000487839
-0.000479697
-0.000471051
-0.000461959
-0.00045247
-0.000442629
-0.000432481
-0.000422068
-0.000411435
-0.000400621
-0.000389667
-0.000378609
-0.000367484
-0.000356324
-0.000345162
-0.000334028
-0.000322948
-0.000311949
-0.000301055
-0.000290288
-0.000279667
-0.000269211
-0.000258935
-0.000248855
-0.000238983
-0.000516842
-0.000508482
-0.000499559
-0.000490123
-0.000480235
-0.000469949
-0.00045931
-0.000448367
-0.000437165
-0.000425751
-0.000414167
-0.000402455
-0.000390654
-0.000378801
-0.000366931
-0.000355079
-0.000343273
-0.000331545
-0.000319919
-0.00030842
-0.000297072
-0.000285893
-0.000274903
-0.000264118
-0.000253553
-0.000243219
-0.000539067
-0.000529883
-0.000520124
-0.000509843
-0.000499105
-0.000487967
-0.000476478
-0.00046469
-0.000452651
-0.000440409
-0.000428009
-0.000415496
-0.00040291
-0.000390291
-0.000377674
-0.000365096
-0.000352587
-0.000340178
-0.000327896
-0.000315767
-0.000303813
-0.000292054
-0.000280511
-0.000269198
-0.00025813
-0.00024732
-0.000562141
-0.000552071
-0.000541416
-0.00053023
-0.000518585
-0.000506539
-0.000494146
-0.000481459
-0.00046853
-0.000455411
-0.000442148
-0.000428788
-0.000415374
-0.000401946
-0.000388544
-0.000375203
-0.000361957
-0.000348836
-0.000335869
-0.000323081
-0.000310496
-0.000298135
-0.000286016
-0.000274156
-0.00026257
-0.000251269
-0.000586099
-0.000575078
-0.000563462
-0.000551309
-0.000538693
-0.000525679
-0.000512323
-0.00049868
-0.000484808
-0.000470758
-0.000456581
-0.000442326
-0.000428038
-0.00041376
-0.000399531
-0.00038539
-0.00037137
-0.000357504
-0.00034382
-0.000330345
-0.000317103
-0.000304116
-0.000291401
-0.000278976
-0.000266854
-0.000255047
-0.000610976
-0.000598935
-0.000586289
-0.000573101
-0.000559449
-0.000545403
-0.00053102
-0.000516362
-0.000501487
-0.000486452
-0.000471308
-0.000456107
-0.000440897
-0.000425722
-0.000410624
-0.000395642
-0.000380811
-0.000366165
-0.000351733
-0.000337542
-0.000323617
-0.000309979
-0.000296646
-0.000283636
-0.000270961
-0.000258634
-0.000636811
-0.000623675
-0.000609924
-0.000595629
-0.000580871
-0.000565724
-0.000550249
-0.000534511
-0.000518572
-0.000502491
-0.000486325
-0.000470125
-0.000453942
-0.000437823
-0.000421811
-0.000405946
-0.000390266
-0.000374803
-0.00035959
-0.000344653
-0.000330017
-0.000315703
-0.000301731
-0.000288116
-0.000274871
-0.000262008
-0.000663642
-0.00064933
-0.000634397
-0.000618917
-0.000602978
-0.000586656
-0.000570018
-0.000553133
-0.000536065
-0.000518876
-0.000501627
-0.000484371
-0.000467163
-0.000450049
-0.000433076
-0.000416285
-0.000399715
-0.000383399
-0.000367371
-0.000351656
-0.000336281
-0.000321267
-0.000306632
-0.000292393
-0.000278562
-0.000265148
-0.00069151
-0.000675935
-0.000659735
-0.000642988
-0.000625787
-0.000608213
-0.000590337
-0.000572232
-0.000553966
-0.000535604
-0.000517209
-0.000498839
-0.000480548
-0.000462388
-0.000444405
-0.000426643
-0.00040914
-0.000391933
-0.000375053
-0.00035853
-0.000342387
-0.000326647
-0.000311327
-0.000296443
-0.000282008
-0.00026803
-0.000720455
-0.000703525
-0.000685967
-0.000667865
-0.000649316
-0.000630407
-0.000611215
-0.000591813
-0.000572275
-0.00055267
-0.000533064
-0.000513516
-0.000494085
-0.000474823
-0.00045578
-0.000436998
-0.00041852
-0.000400381
-0.000382614
-0.000365249
-0.000348309
-0.000331816
-0.000315789
-0.000300242
-0.000285185
-0.000270629
-0.000750518
-0.000732134
-0.000713122
-0.000693571
-0.000673583
-0.000653252
-0.000632657
-0.000611878
-0.000590991
-0.00057007
-0.000549183
-0.000528392
-0.000507759
-0.000487338
-0.00046718
-0.000447331
-0.000427831
-0.000408719
-0.000390028
-0.000371787
-0.000354021
-0.000336749
-0.000319991
-0.00030376
-0.000288067
-0.000272918
-0.000781744
-0.0007618
-0.00074123
-0.000720129
-0.000698606
-0.000676759
-0.000654672
-0.000632429
-0.000610112
-0.000587797
-0.000565555
-0.000543453
-0.000521553
-0.000499913
-0.000478585
-0.000457616
-0.000437049
-0.000416922
-0.000397268
-0.000378117
-0.000359493
-0.000341417
-0.000323905
-0.000306971
-0.000290624
-0.000274869
-0.000814176
-0.000792559
-0.000770321
-0.000747563
-0.000724402
-0.000700939
-0.000677264
-0.000653468
-0.000629633
-0.000605842
-0.000582169
-0.000558683
-0.000535449
-0.000512527
-0.000489971
-0.000467829
-0.000446145
-0.000424958
-0.000404303
-0.000384207
-0.000364695
-0.000345787
-0.000327499
-0.000309843
-0.000292826
-0.000276454
-0.000847855
-0.000824442
-0.000800419
-0.000775891
-0.000750981
-0.000725798
-0.000700435
-0.000674988
-0.000649546
-0.000624193
-0.000599007
-0.000574061
-0.000549423
-0.000525153
-0.000501311
-0.000477943
-0.000455091
-0.000432799
-0.000411101
-0.000390025
-0.000369594
-0.000349827
-0.00033074
-0.000312343
-0.000294641
-0.000277639
-0.000882814
-0.000857478
-0.000831543
-0.000805125
-0.000778351
-0.000751335
-0.000724179
-0.000696981
-0.000669835
-0.00064283
-0.000616047
-0.000589563
-0.000563447
-0.000537763
-0.000512569
-0.000487919
-0.000463855
-0.00044041
-0.000417628
-0.000395535
-0.000374154
-0.000353503
-0.000333594
-0.000314437
-0.000296037
-0.000278394
-0.000523715
-0.000497723
-0.000472388
-0.000447751
-0.000423845
-0.0004007
-0.000378339
-0.000356777
-0.000336027
-0.000316094
-0.000296983
-0.00027869
8.09304e-05
7.80834e-05
7.52938e-05
7.25626e-05
6.98906e-05
6.72759e-05
6.47185e-05
6.22184e-05
5.97754e-05
5.73891e-05
5.50593e-05
5.27854e-05
5.05672e-05
4.84041e-05
4.62957e-05
4.42414e-05
4.22408e-05
4.02932e-05
3.83982e-05
3.6555e-05
3.4763e-05
3.30217e-05
3.13303e-05
2.96881e-05
2.80945e-05
2.65487e-05
8.04807e-05
7.76337e-05
7.48445e-05
7.2114e-05
6.9443e-05
6.68296e-05
6.42738e-05
6.17756e-05
5.93347e-05
5.69508e-05
5.46236e-05
5.23526e-05
5.01375e-05
4.79777e-05
4.58728e-05
4.38223e-05
4.18256e-05
3.98822e-05
3.79915e-05
3.61528e-05
3.43656e-05
3.26291e-05
3.09427e-05
2.93056e-05
2.77172e-05
2.61768e-05
7.96047e-05
7.67579e-05
7.39695e-05
7.12404e-05
6.85714e-05
6.59606e-05
6.34078e-05
6.09132e-05
5.84765e-05
5.60973e-05
5.37752e-05
5.15099e-05
4.93008e-05
4.71476e-05
4.50497e-05
4.30065e-05
4.10176e-05
3.90823e-05
3.72001e-05
3.53703e-05
3.35922e-05
3.18651e-05
3.01884e-05
2.85614e-05
2.69832e-05
2.54533e-05
7.83232e-05
7.54768e-05
7.26897e-05
6.99628e-05
6.72968e-05
6.46898e-05
6.21417e-05
5.96525e-05
5.72219e-05
5.48497e-05
5.25352e-05
5.02782e-05
4.80782e-05
4.59346e-05
4.3847e-05
4.18148e-05
3.98373e-05
3.79141e-05
3.60444e-05
3.42275e-05
3.24629e-05
3.07498e-05
2.90874e-05
2.74751e-05
2.59121e-05
2.43975e-05
7.6654e-05
7.38083e-05
7.1023e-05
6.82991e-05
6.56372e-05
6.30354e-05
6.04935e-05
5.80116e-05
5.55893e-05
5.32262e-05
5.0922e-05
4.8676e-05
4.64879e-05
4.43571e-05
4.22831e-05
4.02652e-05
3.83029e-05
3.63955e-05
3.45423e-05
3.27426e-05
3.09957e-05
2.93009e-05
2.76574e-05
2.60644e-05
2.45212e-05
2.30269e-05
7.46126e-05
7.1768e-05
6.89852e-05
6.62653e-05
6.36086e-05
6.10134e-05
5.84794e-05
5.60067e-05
5.35947e-05
5.12432e-05
4.89517e-05
4.67196e-05
4.45464e-05
4.24315e-05
4.03744e-05
3.83744e-05
3.64309e-05
3.45431e-05
3.27103e-05
3.09319e-05
2.9207e-05
2.75348e-05
2.59146e-05
2.43456e-05
2.28268e-05
2.13576e-05
7.22123e-05
6.93693e-05
6.65899e-05
6.38749e-05
6.12249e-05
5.86378e-05
5.61135e-05
5.36519e-05
5.12526e-05
4.89151e-05
4.66389e-05
4.44235e-05
4.22682e-05
4.01725e-05
3.81357e-05
3.61571e-05
3.4236e-05
3.23717e-05
3.05634e-05
2.88104e-05
2.71117e-05
2.54666e-05
2.38742e-05
2.23336e-05
2.0844e-05
1.94045e-05
6.94646e-05
6.6624e-05
6.38489e-05
6.11401e-05
5.84981e-05
5.59209e-05
5.34082e-05
5.09598e-05
4.85755e-05
4.62546e-05
4.39965e-05
4.18007e-05
3.96665e-05
3.75933e-05
3.55803e-05
3.36268e-05
3.1732e-05
2.98951e-05
2.81153e-05
2.63918e-05
2.47236e-05
2.31099e-05
2.15498e-05
2.00423e-05
1.85865e-05
1.71815e-05
6.63794e-05
6.35421e-05
6.07723e-05
5.80711e-05
5.54388e-05
5.28733e-05
5.03743e-05
4.79416e-05
4.55747e-05
4.32731e-05
4.10361e-05
3.8863e-05
3.67532e-05
3.47059e-05
3.27202e-05
3.07955e-05
2.89309e-05
2.71255e-05
2.53784e-05
2.36887e-05
2.20554e-05
2.04777e-05
1.89544e-05
1.74846e-05
1.60674e-05
1.47016e-05
6.29652e-05
6.01322e-05
5.73692e-05
5.46771e-05
5.20563e-05
4.95045e-05
4.70215e-05
4.46069e-05
4.22602e-05
3.99808e-05
3.77679e-05
3.56208e-05
3.35388e-05
3.1521e-05
2.95665e-05
2.76746e-05
2.58442e-05
2.40744e-05
2.23642e-05
2.07127e-05
1.91189e-05
1.75816e-05
1.60999e-05
1.46726e-05
1.32986e-05
1.1977e-05
5.92292e-05
5.64017e-05
5.3647e-05
5.09658e-05
4.83585e-05
4.58228e-05
4.33582e-05
4.09644e-05
3.86408e-05
3.63867e-05
3.42012e-05
3.20836e-05
3.0033e-05
2.80485e-05
2.61292e-05
2.4274e-05
2.2482e-05
2.07522e-05
1.90835e-05
1.74747e-05
1.59249e-05
1.44328e-05
1.29974e-05
1.16174e-05
1.02917e-05
9.01915e-06
5.51775e-05
5.2357e-05
4.96123e-05
4.69441e-05
4.43526e-05
4.18353e-05
3.93919e-05
3.70218e-05
3.47244e-05
3.24989e-05
3.03444e-05
2.826e-05
2.62446e-05
2.42974e-05
2.24173e-05
2.06032e-05
1.88541e-05
1.71687e-05
1.5546e-05
1.39847e-05
1.24837e-05
1.10417e-05
9.6575e-06
8.32982e-06
7.0574e-06
5.83897e-06
5.08152e-05
4.80035e-05
4.52708e-05
4.26178e-05
4.00446e-05
3.75485e-05
3.51291e-05
3.27859e-05
3.05182e-05
2.83248e-05
2.6205e-05
2.41576e-05
2.21816e-05
2.02759e-05
1.84394e-05
1.66709e-05
1.49692e-05
1.3333e-05
1.17611e-05
1.02522e-05
8.80495e-06
7.41805e-06
6.09016e-06
4.8199e-06
3.60592e-06
2.44683e-06
4.61466e-05
4.33457e-05
4.06272e-05
3.79919e-05
3.54397e-05
3.29679e-05
3.05758e-05
2.82629e-05
2.60283e-05
2.3871e-05
2.17898e-05
1.97837e-05
1.78514e-05
1.59917e-05
1.42034e-05
1.24851e-05
1.08357e-05
9.2536e-06
7.73753e-06
6.28605e-06
4.89775e-06
3.57117e-06
2.30484e-06
1.09731e-06
-5.29276e-08
-1.14734e-06
4.11752e-05
3.83873e-05
3.56856e-05
3.30708e-05
3.05426e-05
2.80983e-05
2.5737e-05
2.34581e-05
2.12607e-05
1.91434e-05
1.71052e-05
1.51447e-05
1.32606e-05
1.14517e-05
9.71643e-06
8.05346e-06
6.46132e-06
4.93851e-06
3.48351e-06
2.09479e-06
7.70793e-07
-4.90065e-07
-1.68937e-06
-2.82872e-06
-3.90971e-06
-4.93397e-06
3.59038e-05
3.31315e-05
3.04494e-05
2.78582e-05
2.53574e-05
2.2944e-05
2.06173e-05
1.83765e-05
1.62203e-05
1.41476e-05
1.21568e-05
1.02467e-05
8.41578e-06
6.66255e-06
4.98548e-06
3.383e-06
1.85351e-06
3.95378e-07
-9.9306e-07
-2.31348e-06
-3.5676e-06
-4.75711e-06
-5.88375e-06
-6.94925e-06
-7.95534e-06
-8.90377e-06
3.03348e-05
2.75809e-05
2.49215e-05
2.23572e-05
1.98873e-05
1.75089e-05
1.52209e-05
1.30224e-05
1.0912e-05
8.88845e-06
6.95007e-06
5.09536e-06
3.32272e-06
1.6305e-06
1.70157e-08
-1.51946e-06
-2.9807e-06
-4.36849e-06
-5.68464e-06
-6.93099e-06
-8.10939e-06
-9.22172e-06
-1.02698e-05
-1.12556e-05
-1.2181e-05
-1.30478e-05
2.44698e-05
2.17374e-05
1.91041e-05
1.65704e-05
1.41356e-05
1.17962e-05
9.55131e-06
7.39976e-06
5.3401e-06
3.37069e-06
1.48986e-06
-3.04108e-07
-2.01298e-06
-3.63858e-06
-5.18278e-06
-6.64746e-06
-8.03456e-06
-9.34606e-06
-1.05839e-05
-1.17502e-05
-1.28468e-05
-1.38759e-05
-1.48394e-05
-1.57394e-05
-1.6578e-05
-1.73571e-05
1.83102e-05
1.56027e-05
1.29993e-05
1.05003e-05
8.10466e-06
5.80894e-06
3.61191e-06
1.5123e-06
-4.91526e-07
-2.40139e-06
-4.21915e-06
-5.9467e-06
-7.58601e-06
-9.13908e-06
-1.0608e-05
-1.19947e-05
-1.33015e-05
-1.45305e-05
-1.56838e-05
-1.67637e-05
-1.77722e-05
-1.87117e-05
-1.95844e-05
-2.03924e-05
-2.11379e-05
-2.18232e-05
1.18568e-05
9.17809e-06
6.60864e-06
4.14864e-06
1.7969e-06
-4.5029e-07
-2.59432e-06
-4.63665e-06
-6.57911e-06
-8.42372e-06
-1.01725e-05
-1.18277e-05
-1.33913e-05
-1.48656e-05
-1.62528e-05
-1.75553e-05
-1.87753e-05
-1.99152e-05
-2.09775e-05
-2.19643e-05
-2.28783e-05
-2.37217e-05
-2.44969e-05
-2.52064e-05
-2.58524e-05
-2.64375e-05
5.11012e-06
2.46436e-06
-6.66706e-08
-2.48288e-06
-4.78571e-06
-6.9791e-06
-9.06465e-06
-1.1044e-05
-1.29192e-05
-1.46925e-05
-1.63661e-05
-1.79424e-05
-1.94239e-05
-2.08128e-05
-2.21117e-05
-2.33231e-05
-2.44496e-05
-2.54937e-05
-2.6458e-05
-2.73451e-05
-2.81575e-05
-2.8898e-05
-2.95691e-05
-3.01733e-05
-3.07133e-05
-3.11916e-05
-1.9295e-06
-4.53781e-06
-7.02559e-06
-9.39288e-06
-1.16414e-05
-1.37753e-05
-1.57965e-05
-1.77068e-05
-1.95084e-05
-2.12039e-05
-2.27958e-05
-2.42866e-05
-2.5679e-05
-2.69756e-05
-2.81792e-05
-2.92925e-05
-3.03183e-05
-3.12594e-05
-3.21187e-05
-3.28988e-05
-3.36028e-05
-3.42333e-05
-3.47932e-05
-3.52853e-05
-3.57124e-05
-3.60771e-05
-9.2621e-06
-1.18281e-05
-1.42674e-05
-1.65802e-05
-1.87686e-05
-2.0837e-05
-2.27876e-05
-2.46222e-05
-2.63436e-05
-2.79545e-05
-2.94576e-05
-3.08558e-05
-3.21519e-05
-3.33489e-05
-3.44498e-05
-3.54576e-05
-3.63754e-05
-3.72061e-05
-3.79528e-05
-3.86187e-05
-3.92068e-05
-3.972e-05
-4.01616e-05
-4.05344e-05
-4.08415e-05
-4.10857e-05
-1.68879e-05
-1.94062e-05
-2.17913e-05
-2.40438e-05
-2.61658e-05
-2.81623e-05
-3.00355e-05
-3.17877e-05
-3.34218e-05
-3.49407e-05
-3.63477e-05
-3.76457e-05
-3.8838e-05
-3.99278e-05
-4.09183e-05
-4.18128e-05
-4.26147e-05
-4.33273e-05
-4.39538e-05
-4.44977e-05
-4.49623e-05
-4.53508e-05
-4.56665e-05
-4.59127e-05
-4.60925e-05
-4.62092e-05
-2.48072e-05
-2.72721e-05
-2.95971e-05
-3.17827e-05
-3.38318e-05
-3.57494e-05
-3.75381e-05
-3.92005e-05
-4.07397e-05
-4.21592e-05
-4.34622e-05
-4.46522e-05
-4.57326e-05
-4.67071e-05
-4.75791e-05
-4.83523e-05
-4.90303e-05
-4.96166e-05
-5.0115e-05
-5.05289e-05
-5.08621e-05
-5.1118e-05
-5.13002e-05
-5.14122e-05
-5.14574e-05
-5.14393e-05
-3.30206e-05
-3.54259e-05
-3.76842e-05
-3.97963e-05
-4.17653e-05
-4.35967e-05
-4.52933e-05
-4.68581e-05
-4.82946e-05
-4.96064e-05
-5.07972e-05
-5.18709e-05
-5.28311e-05
-5.36819e-05
-5.4427e-05
-5.50704e-05
-5.5616e-05
-5.60677e-05
-5.64295e-05
-5.67053e-05
-5.68989e-05
-5.70142e-05
-5.7055e-05
-5.7025e-05
-5.6928e-05
-5.67675e-05
-4.15287e-05
-4.38678e-05
-4.60525e-05
-4.80837e-05
-4.9965e-05
-5.17024e-05
-5.32989e-05
-5.47579e-05
-5.60832e-05
-5.72789e-05
-5.83489e-05
-5.92975e-05
-6.01288e-05
-6.0847e-05
-6.14564e-05
-6.19612e-05
-6.23657e-05
-6.26741e-05
-6.28907e-05
-6.30198e-05
-6.30655e-05
-6.30319e-05
-6.29231e-05
-6.27432e-05
-6.24962e-05
-6.21858e-05
-5.03322e-05
-5.2598e-05
-5.47016e-05
-5.66441e-05
-5.84298e-05
-6.00649e-05
-6.15528e-05
-6.28973e-05
-6.41026e-05
-6.51731e-05
-6.61133e-05
-6.69277e-05
-6.76208e-05
-6.81973e-05
-6.86618e-05
-6.90188e-05
-6.92731e-05
-6.94292e-05
-6.94918e-05
-6.94653e-05
-6.93544e-05
-6.91634e-05
-6.88968e-05
-6.85588e-05
-6.81537e-05
-6.76856e-05
-5.94318e-05
-6.16167e-05
-6.36312e-05
-6.54769e-05
-6.71584e-05
-6.86824e-05
-7.00528e-05
-7.12736e-05
-7.23496e-05
-7.32856e-05
-7.40864e-05
-7.4757e-05
-7.53024e-05
-7.57276e-05
-7.60376e-05
-7.62374e-05
-7.6332e-05
-7.63265e-05
-7.62257e-05
-7.60347e-05
-7.57582e-05
-7.54011e-05
-7.4968e-05
-7.44635e-05
-7.38923e-05
-7.32587e-05
-6.88282e-05
-7.09242e-05
-7.28412e-05
-7.45813e-05
-7.61496e-05
-7.75532e-05
-7.87965e-05
-7.98841e-05
-8.0821e-05
-8.16126e-05
-8.22641e-05
-8.2781e-05
-8.31686e-05
-8.34325e-05
-8.3578e-05
-8.36107e-05
-8.35359e-05
-8.33591e-05
-8.30856e-05
-8.27206e-05
-8.22694e-05
-8.17372e-05
-8.11289e-05
-8.04495e-05
-7.97038e-05
-7.88966e-05
-7.85222e-05
-8.05206e-05
-8.23312e-05
-8.39564e-05
-8.54019e-05
-8.66754e-05
-8.77818e-05
-8.87259e-05
-8.95135e-05
-9.01503e-05
-9.06421e-05
-9.09948e-05
-9.12143e-05
-9.13065e-05
-9.12773e-05
-9.11326e-05
-9.08784e-05
-9.05203e-05
-9.00641e-05
-8.95156e-05
-8.88804e-05
-8.81638e-05
-8.73714e-05
-8.65083e-05
-8.55798e-05
-8.45908e-05
-8.85144e-05
-9.04061e-05
-9.21008e-05
-9.36013e-05
-9.49139e-05
-9.60471e-05
-9.70059e-05
-9.7796e-05
-9.84235e-05
-9.88947e-05
-9.9216e-05
-9.93937e-05
-9.94342e-05
-9.9344e-05
-9.91294e-05
-9.87968e-05
-9.83526e-05
-9.7803e-05
-9.71542e-05
-9.64123e-05
-9.55833e-05
-9.46731e-05
-9.36875e-05
-9.26319e-05
-9.1512e-05
-9.0333e-05
-9.88054e-05
-0.000100581
-0.000102149
-0.000103515
-0.000104684
-0.000105666
-0.000106466
-0.000107091
-0.000107548
-0.000107842
-0.000107981
-0.000107973
-0.000107823
-0.000107539
-0.000107128
-0.000106597
-0.000105952
-0.0001052
-0.000104348
-0.000103403
-0.000102371
-0.000101257
-0.000100069
-9.88119e-05
-9.7492e-05
-9.61146e-05
-0.000109396
-0.000111044
-0.000112477
-0.000113696
-0.000114711
-0.00011553
-0.000116161
-0.000116609
-0.000116882
-0.000116987
-0.000116933
-0.000116727
-0.000116375
-0.000115886
-0.000115267
-0.000114526
-0.000113669
-0.000112705
-0.000111639
-0.00011048
-0.000109234
-0.000107908
-0.000106508
-0.00010504
-0.000103511
-0.000101927
-0.000120286
-0.000121797
-0.000123082
-0.000124144
-0.000124992
-0.000125637
-0.000126085
-0.000126344
-0.000126422
-0.000126327
-0.000126067
-0.00012565
-0.000125085
-0.000124379
-0.00012354
-0.000122577
-0.000121497
-0.000120309
-0.000119019
-0.000117636
-0.000116166
-0.000114617
-0.000112995
-0.000111308