/*--------------------------------*- C++ -*----------------------------------*\
| =========                 |                                                 |
| \\      /  F ield         | OpenFOAM: The Open Source CFD Toolbox           |
|  \\    /   O peration     | Version:  2412                                  |
|   \\  /    A nd           | Website:  www.openfoam.com                      |
|    \\/     M anipulation  |                                                 |
\*---------------------------------------------------------------------------*/
FoamFile
{
    version     2.0;
    format      ascii;
    arch        "LSB;label=32;scalar=64";
    class       volScalarField;
    location    "17.5";
    object      p;
}
// * * * * * * * * * * * * * * * * * * * * * * * * * * * * * * * * * * * * * //

dimensions      [0 2 -2 0 0 0 0];

internalField   nonuniform List<scalar> 
5285
(
-8.63096e-06
-8.09837e-06
-7.5976e-06
-7.12638e-06
-6.68256e-06
-6.26432e-06
-5.86993e-06
-5.49787e-06
-5.14669e-06
-4.81512e-06
-4.50193e-06
-4.20595e-06
-3.92625e-06
-3.66196e-06
-3.41218e-06
-3.1761e-06
-2.95307e-06
-2.74233e-06
-2.54328e-06
-2.35553e-06
-2.17837e-06
-2.01125e-06
-1.85381e-06
-1.70559e-06
-1.5661e-06
-1.43502e-06
-1.31195e-06
-1.19645e-06
-1.08826e-06
-9.87063e-07
-8.92403e-07
-8.71558e-06
-8.16737e-06
-7.65265e-06
-7.16894e-06
-6.71406e-06
-6.28606e-06
-5.88312e-06
-5.50363e-06
-5.14602e-06
-4.80894e-06
-4.49109e-06
-4.19125e-06
-3.90836e-06
-3.6415e-06
-3.38971e-06
-3.15213e-06
-2.92801e-06
-2.71659e-06
-2.5172e-06
-2.32935e-06
-2.15236e-06
-1.98564e-06
-1.82878e-06
-1.68126e-06
-1.54261e-06
-1.41246e-06
-1.29037e-06
-1.17594e-06
-1.06883e-06
-9.68716e-07
-8.75173e-07
-7.87992e-07
-7.06789e-07
-6.31284e-07
-5.61181e-07
-4.96125e-07
-4.35945e-07
-3.80456e-07
-3.29133e-07
-2.82062e-07
-2.38396e-07
-1.99074e-07
-1.61796e-07
-1.3024e-07
-9.66029e-08
-7.48792e-08
-3.92529e-08
-3.4826e-08
1.65614e-08
-1.51617e-08
8.16169e-08
-2.68471e-08
1.71702e-07
-8.35611e-08
3.01828e-07
-1.92502e-07
4.70938e-07
-3.33158e-07
6.38498e-07
-4.37272e-07
7.16339e-07
-4.02052e-07
6.11069e-07
-1.63982e-07
3.25544e-07
1.90996e-07
4.76855e-08
3.96333e-07
1.00082e-07
1.42881e-07
7.48039e-07
-8.79309e-06
-8.23011e-06
-7.70207e-06
-7.20646e-06
-6.74102e-06
-6.3037e-06
-5.89261e-06
-5.50602e-06
-5.14231e-06
-4.8e-06
-4.47774e-06
-4.17425e-06
-3.88839e-06
-3.61914e-06
-3.3655e-06
-3.12656e-06
-2.90149e-06
-2.6895e-06
-2.48988e-06
-2.30204e-06
-2.12532e-06
-1.95909e-06
-1.80286e-06
-1.65613e-06
-1.51837e-06
-1.38921e-06
-1.26817e-06
-1.15484e-06
-1.04886e-06
-9.49886e-07
-8.57503e-07
-7.71442e-07
-6.91353e-07
-6.1693e-07
-5.47881e-07
-4.83858e-07
-4.24657e-07
-3.70084e-07
-3.19645e-07
-2.73403e-07
-2.3054e-07
-1.91946e-07
-1.55356e-07
-1.24419e-07
-9.14279e-08
-7.01769e-08
-3.52019e-08
-3.09784e-08
1.95606e-08
-1.19158e-08
8.35439e-08
-2.38192e-08
1.72425e-07
-8.04224e-08
3.01284e-07
-1.89101e-07
4.69335e-07
-3.2981e-07
6.36602e-07
-4.34907e-07
7.15327e-07
-4.01652e-07
6.11736e-07
-1.65787e-07
3.27773e-07
1.87542e-07
5.11784e-08
3.9157e-07
1.05689e-07
1.36518e-07
7.61138e-07
-8.86321e-06
-8.28622e-06
-7.74549e-06
-7.23858e-06
-6.76311e-06
-6.31696e-06
-5.89814e-06
-5.50484e-06
-5.13536e-06
-4.78813e-06
-4.46174e-06
-4.15484e-06
-3.86622e-06
-3.59478e-06
-3.33947e-06
-3.09932e-06
-2.87345e-06
-2.66102e-06
-2.46128e-06
-2.27357e-06
-2.09721e-06
-1.93154e-06
-1.77604e-06
-1.63017e-06
-1.49338e-06
-1.36526e-06
-1.24533e-06
-1.13316e-06
-1.02836e-06
-9.30568e-07
-8.39386e-07
-7.54482e-07
-6.75547e-07
-6.02243e-07
-5.34279e-07
-4.71313e-07
-4.13116e-07
-3.59487e-07
-3.09953e-07
-2.64562e-07
-2.22517e-07
-1.84667e-07
-1.48785e-07
-1.18478e-07
-8.61478e-08
-6.53751e-08
-3.10686e-08
-2.70519e-08
2.26186e-08
-8.59775e-09
8.55023e-08
-2.07234e-08
1.7315e-07
-7.72051e-08
3.00707e-07
-1.85605e-07
4.67669e-07
-3.26365e-07
6.34636e-07
-4.32463e-07
7.1426e-07
-4.01204e-07
6.12345e-07
-1.67521e-07
3.29845e-07
1.84287e-07
5.43124e-08
3.87208e-07
1.10644e-07
1.30833e-07
7.73179e-07
-8.92556e-06
-8.3352e-06
-7.78251e-06
-7.26494e-06
-6.78003e-06
-6.32556e-06
-5.89948e-06
-5.49988e-06
-5.12499e-06
-4.77318e-06
-4.44295e-06
-4.1329e-06
-3.84175e-06
-3.56833e-06
-3.31154e-06
-3.07035e-06
-2.84383e-06
-2.6311e-06
-2.43136e-06
-2.2439e-06
-2.068e-06
-1.903e-06
-1.74831e-06
-1.60337e-06
-1.46763e-06
-1.34062e-06
-1.22186e-06
-1.1109e-06
-1.00733e-06
-9.10767e-07
-8.20819e-07
-7.37113e-07
-6.59371e-07
-5.87222e-07
-5.20373e-07
-4.58492e-07
-4.01325e-07
-3.48665e-07
-3.00059e-07
-2.55538e-07
-2.14327e-07
-1.77238e-07
-1.42082e-07
-1.12418e-07
-8.07631e-08
-6.04756e-08
-2.6854e-08
-2.30474e-08
2.57346e-08
-5.20898e-09
8.74914e-08
-1.75595e-08
1.73878e-07
-7.39092e-08
3.00095e-07
-1.82014e-07
4.65939e-07
-3.22822e-07
6.32599e-07
-4.2994e-07
7.13136e-07
-4.00708e-07
6.12889e-07
-1.69176e-07
3.31743e-07
1.81258e-07
5.7045e-08
3.83297e-07
1.14869e-07
1.25902e-07
7.84012e-07
-8.97937e-06
-8.37655e-06
-7.81269e-06
-7.28515e-06
-6.79142e-06
-6.32918e-06
-5.89632e-06
-5.49086e-06
-5.11096e-06
-4.75492e-06
-4.42117e-06
-4.10826e-06
-3.81483e-06
-3.53965e-06
-3.28158e-06
-3.03954e-06
-2.81254e-06
-2.59966e-06
-2.40005e-06
-2.21295e-06
-2.03763e-06
-1.87339e-06
-1.71961e-06
-1.57569e-06
-1.44107e-06
-1.31525e-06
-1.19772e-06
-1.08803e-06
-9.85744e-07
-8.90458e-07
-8.01789e-07
-7.19343e-07
-6.42829e-07
-5.7187e-07
-5.06169e-07
-4.45398e-07
-3.89286e-07
-3.37622e-07
-2.89966e-07
-2.46335e-07
-2.05974e-07
-1.69664e-07
-1.35251e-07
-1.06242e-07
-7.5276e-08
-5.54814e-08
-2.25606e-08
-1.89671e-08
2.89066e-08
-1.75137e-09
8.95106e-08
-1.43285e-08
1.74607e-07
-7.05343e-08
2.99448e-07
-1.78327e-07
4.64144e-07
-3.1918e-07
6.30492e-07
-4.2734e-07
7.11956e-07
-4.00162e-07
6.13367e-07
-1.70741e-07
3.33452e-07
1.78483e-07
5.93353e-08
3.79892e-07
1.18292e-07
1.21801e-07
7.93484e-07
-9.02444e-06
-8.41009e-06
-7.83586e-06
-7.29907e-06
-6.79714e-06
-6.32771e-06
-5.88859e-06
-5.47772e-06
-5.09322e-06
-4.73331e-06
-4.39636e-06
-4.08087e-06
-3.78542e-06
-3.50873e-06
-3.24959e-06
-3.00688e-06
-2.77956e-06
-2.56668e-06
-2.36734e-06
-2.18074e-06
-2.00612e-06
-1.84274e-06
-1.68996e-06
-1.54715e-06
-1.41372e-06
-1.28915e-06
-1.17293e-06
-1.06456e-06
-9.63611e-07
-8.69656e-07
-7.82307e-07
-7.01158e-07
-6.25908e-07
-5.56173e-07
-4.91653e-07
-4.32022e-07
-3.76993e-07
-3.26349e-07
-2.79666e-07
-2.36947e-07
-1.97454e-07
-1.61939e-07
-1.28287e-07
-9.9947e-08
-6.96838e-08
-5.03905e-08
-1.81868e-08
-1.48094e-08
3.21355e-08
1.77562e-09
9.15601e-08
-1.10297e-08
1.75336e-07
-6.70802e-08
2.98764e-07
-1.74546e-07
4.62281e-07
-3.15441e-07
6.2831e-07
-4.24665e-07
7.10717e-07
-3.9957e-07
6.13772e-07
-1.72218e-07
3.3495e-07
1.7598e-07
6.11323e-08
3.77037e-07
1.20822e-07
1.18601e-07
8.01435e-07
-9.06053e-06
-8.43556e-06
-7.8518e-06
-7.3065e-06
-6.79704e-06
-6.321e-06
-5.87613e-06
-5.46034e-06
-5.07165e-06
-4.70824e-06
-4.36844e-06
-4.05068e-06
-3.75348e-06
-3.47551e-06
-3.21553e-06
-2.97234e-06
-2.74489e-06
-2.53216e-06
-2.33323e-06
-2.14726e-06
-1.97345e-06
-1.81104e-06
-1.65935e-06
-1.51774e-06
-1.38559e-06
-1.26235e-06
-1.14748e-06
-1.0405e-06
-9.40941e-07
-8.48367e-07
-7.62381e-07
-6.82568e-07
-6.08618e-07
-5.40144e-07
-4.76836e-07
-4.18372e-07
-3.64452e-07
-3.14856e-07
-2.69167e-07
-2.27381e-07
-1.88773e-07
-1.54071e-07
-1.21197e-07
-9.35369e-08
-6.39904e-08
-4.52065e-08
-1.37357e-08
-1.05768e-08
3.54187e-08
5.36989e-09
9.3638e-08
-7.6638e-09
1.76062e-07
-6.3547e-08
2.98041e-07
-1.70669e-07
4.6035e-07
-3.11604e-07
6.26054e-07
-4.21915e-07
7.09421e-07
-3.98932e-07
6.14102e-07
-1.73596e-07
3.36224e-07
1.73779e-07
6.23957e-08
3.7479e-07
1.22387e-07
1.16383e-07
8.07717e-07
-9.08735e-06
-8.45272e-06
-7.86027e-06
-7.30722e-06
-6.7909e-06
-6.30887e-06
-5.85881e-06
-5.43857e-06
-5.04613e-06
-4.67964e-06
-4.33733e-06
-4.01761e-06
-3.71894e-06
-3.43996e-06
-3.17934e-06
-2.93589e-06
-2.70848e-06
-2.49607e-06
-2.29771e-06
-2.1125e-06
-1.93962e-06
-1.77829e-06
-1.62779e-06
-1.48746e-06
-1.35666e-06
-1.23482e-06
-1.12139e-06
-1.01585e-06
-9.17736e-07
-8.26592e-07
-7.42014e-07
-6.63579e-07
-5.90966e-07
-5.23787e-07
-4.61725e-07
-4.04455e-07
-3.51671e-07
-3.03146e-07
-2.58475e-07
-2.17641e-07
-1.79936e-07
-1.46063e-07
-1.13983e-07
-8.70151e-08
-5.8199e-08
-3.99322e-08
-9.20991e-09
-6.27129e-09
3.87542e-08
9.02986e-09
9.57427e-08
-4.23158e-09
1.76786e-07
-5.99348e-08
2.97278e-07
-1.66696e-07
4.5835e-07
-3.07668e-07
6.23724e-07
-4.1909e-07
7.08067e-07
-3.98246e-07
6.14355e-07
-1.74868e-07
3.37257e-07
1.71907e-07
6.30824e-08
3.73207e-07
1.22912e-07
1.15223e-07
8.1218e-07
-9.10465e-06
-8.46131e-06
-7.86104e-06
-7.30102e-06
-6.77856e-06
-6.29116e-06
-5.83647e-06
-5.4123e-06
-5.01657e-06
-4.64738e-06
-4.30294e-06
-3.98158e-06
-3.68175e-06
-3.402e-06
-3.14099e-06
-2.89748e-06
-2.67031e-06
-2.45839e-06
-2.26073e-06
-2.07642e-06
-1.9046e-06
-1.74446e-06
-1.59526e-06
-1.45631e-06
-1.32694e-06
-1.20658e-06
-1.09464e-06
-9.90612e-07
-8.93996e-07
-8.04332e-07
-7.21208e-07
-6.44194e-07
-5.72958e-07
-5.07108e-07
-4.46322e-07
-3.90275e-07
-3.38652e-07
-2.91224e-07
-2.47592e-07
-2.0773e-07
-1.70946e-07
-1.37917e-07
-1.06647e-07
-8.03839e-08
-5.23115e-08
-3.45697e-08
-4.61111e-09
-1.89428e-09
4.21405e-08
1.27543e-08
9.78729e-08
-7.33472e-10
1.77504e-07
-5.62434e-08
2.96473e-07
-1.62627e-07
4.56279e-07
-3.03632e-07
6.21319e-07
-4.16191e-07
7.06658e-07
-3.97515e-07
6.1453e-07
-1.76028e-07
3.38035e-07
1.70393e-07
6.31482e-08
3.72344e-07
1.2232e-07
1.15196e-07
8.14677e-07
-9.11216e-06
-8.4611e-06
-7.85391e-06
-7.28772e-06
-6.75984e-06
-6.26773e-06
-5.809e-06
-5.3814e-06
-4.98286e-06
-4.6114e-06
-4.26519e-06
-3.94254e-06
-3.64183e-06
-3.36159e-06
-3.10044e-06
-2.85709e-06
-2.63034e-06
-2.41909e-06
-2.2223e-06
-2.03903e-06
-1.8684e-06
-1.70956e-06
-1.56176e-06
-1.42427e-06
-1.29643e-06
-1.17762e-06
-1.06725e-06
-9.64784e-07
-8.69723e-07
-7.81592e-07
-6.99968e-07
-6.24417e-07
-5.54594e-07
-4.9011e-07
-4.30632e-07
-3.75835e-07
-3.254e-07
-2.79093e-07
-2.36521e-07
-1.97652e-07
-1.61806e-07
-1.29637e-07
-9.91916e-08
-7.36454e-08
-4.63301e-08
-2.91209e-08
5.88773e-11
2.55284e-09
4.55759e-08
1.65421e-08
1.00027e-07
2.83003e-09
1.78215e-07
-5.24728e-08
2.95625e-07
-1.5846e-07
4.54136e-07
-2.99497e-07
6.18838e-07
-4.1322e-07
7.05195e-07
-3.96738e-07
6.14626e-07
-1.7707e-07
3.38542e-07
1.69261e-07
6.25482e-08
3.72259e-07
1.20534e-07
1.16374e-07
8.15063e-07
-9.10968e-06
-8.45191e-06
-7.8387e-06
-7.26717e-06
-6.73461e-06
-6.23844e-06
-5.77626e-06
-5.34578e-06
-4.9449e-06
-4.5716e-06
-4.22402e-06
-3.90041e-06
-3.59914e-06
-3.31869e-06
-3.05764e-06
-2.81467e-06
-2.58855e-06
-2.37814e-06
-2.18239e-06
-2.00031e-06
-1.83099e-06
-1.67358e-06
-1.52728e-06
-1.39136e-06
-1.26512e-06
-1.14793e-06
-1.0392e-06
-9.38369e-07
-8.4492e-07
-7.58374e-07
-6.78297e-07
-6.04251e-07
-5.35881e-07
-4.72795e-07
-4.14657e-07
-3.61139e-07
-3.11919e-07
-2.66756e-07
-2.25266e-07
-1.87408e-07
-1.52518e-07
-1.21225e-07
-9.16197e-08
-6.6802e-08
-4.02569e-08
-2.35879e-08
4.7982e-09
7.06856e-09
4.90589e-08
2.0392e-08
1.02204e-07
6.45838e-09
1.78918e-07
-4.8623e-08
2.94732e-07
-1.54196e-07
4.51919e-07
-2.95263e-07
6.16282e-07
-4.10176e-07
7.03677e-07
-3.95919e-07
6.14642e-07
-1.77991e-07
3.38764e-07
1.68539e-07
6.12383e-08
3.73007e-07
1.17482e-07
1.18826e-07
8.13204e-07
-9.09701e-06
-8.43355e-06
-7.81524e-06
-7.23921e-06
-6.70271e-06
-6.20317e-06
-5.73814e-06
-5.30534e-06
-4.9026e-06
-4.5279e-06
-4.17934e-06
-3.85514e-06
-3.55362e-06
-3.27324e-06
-3.01255e-06
-2.7702e-06
-2.54492e-06
-2.33554e-06
-2.14099e-06
-1.96024e-06
-1.79237e-06
-1.6365e-06
-1.49182e-06
-1.35755e-06
-1.23301e-06
-1.11753e-06
-1.01051e-06
-9.11368e-07
-8.1959e-07
-7.3468e-07
-6.56198e-07
-5.837e-07
-5.16822e-07
-4.5517e-07
-3.98403e-07
-3.46192e-07
-2.98211e-07
-2.54217e-07
-2.1383e-07
-1.77003e-07
-1.43086e-07
-1.12684e-07
-8.39335e-08
-5.9856e-08
-3.40942e-08
-1.79727e-08
9.60497e-09
1.16513e-08
5.25879e-08
2.43028e-08
1.04403e-07
1.0151e-08
1.79612e-07
-4.46939e-08
2.93793e-07
-1.49835e-07
4.49626e-07
-2.90927e-07
6.1365e-07
-4.07062e-07
7.02107e-07
-3.95059e-07
6.14577e-07
-1.78785e-07
3.38686e-07
1.68251e-07
5.91752e-08
3.74642e-07
1.13092e-07
1.22619e-07
8.08971e-07
-9.07399e-06
-8.40587e-06
-7.78339e-06
-7.2037e-06
-6.66403e-06
-6.1618e-06
-5.69456e-06
-5.25998e-06
-4.8559e-06
-4.48025e-06
-4.13111e-06
-3.80667e-06
-3.50524e-06
-3.22523e-06
-2.96516e-06
-2.72365e-06
-2.49942e-06
-2.29126e-06
-2.09808e-06
-1.91882e-06
-1.75254e-06
-1.59833e-06
-1.45537e-06
-1.32286e-06
-1.2001e-06
-1.08641e-06
-9.81163e-07
-8.83784e-07
-7.93735e-07
-7.10516e-07
-6.33676e-07
-5.62769e-07
-4.9742e-07
-4.37236e-07
-3.81872e-07
-3.30997e-07
-2.84281e-07
-2.41479e-07
-2.02217e-07
-1.6644e-07
-1.33512e-07
-1.04016e-07
-7.61355e-08
-5.28098e-08
-2.78443e-08
-1.22774e-08
1.44772e-08
1.62996e-08
5.61612e-08
2.82733e-08
1.06621e-07
1.39073e-08
1.80294e-07
-4.06857e-08
2.92805e-07
-1.45374e-07
4.47257e-07
-2.86492e-07
6.10941e-07
-4.03879e-07
7.00487e-07
-3.94161e-07
6.14433e-07
-1.79451e-07
3.38298e-07
1.68422e-07
5.63166e-08
3.7722e-07
1.07295e-07
1.27813e-07
8.02244e-07
-9.04046e-06
-8.36872e-06
-7.74303e-06
-7.16053e-06
-6.61847e-06
-6.11425e-06
-5.64541e-06
-5.20963e-06
-4.80471e-06
-4.42857e-06
-4.07927e-06
-3.75496e-06
-3.45394e-06
-3.1746e-06
-2.91542e-06
-2.67501e-06
-2.45204e-06
-2.24529e-06
-2.05364e-06
-1.87603e-06
-1.71148e-06
-1.55906e-06
-1.41793e-06
-1.28728e-06
-1.16639e-06
-1.05457e-06
-9.51174e-07
-8.55621e-07
-7.6736e-07
-6.85884e-07
-6.10734e-07
-5.41461e-07
-4.7768e-07
-4.19e-07
-3.6507e-07
-3.15558e-07
-2.70133e-07
-2.28546e-07
-1.9043e-07
-1.55722e-07
-1.238e-07
-9.52251e-08
-6.82283e-08
-4.56659e-08
-2.15096e-08
-6.5043e-09
1.94131e-08
2.10118e-08
5.97774e-08
3.23022e-08
1.08858e-07
1.77264e-08
1.80963e-07
-3.65985e-08
2.91769e-07
-1.40816e-07
4.4481e-07
-2.81956e-07
6.08157e-07
-4.00629e-07
6.9882e-07
-3.93229e-07
6.14212e-07
-1.79986e-07
3.37587e-07
1.69073e-07
5.26219e-08
3.80792e-07
1.00029e-07
1.34463e-07
7.92919e-07
-8.9963e-06
-8.32199e-06
-7.69404e-06
-7.10959e-06
-6.56592e-06
-6.06042e-06
-5.59063e-06
-5.15422e-06
-4.74898e-06
-4.37281e-06
-4.02376e-06
-3.69998e-06
-3.39971e-06
-3.12133e-06
-2.86332e-06
-2.62423e-06
-2.40275e-06
-2.19762e-06
-2.00768e-06
-1.83187e-06
-1.66919e-06
-1.51869e-06
-1.3795e-06
-1.25081e-06
-1.13188e-06
-1.02201e-06
-9.20542e-07
-8.26881e-07
-7.40469e-07
-6.6079e-07
-5.87378e-07
-5.19781e-07
-4.57608e-07
-4.00466e-07
-3.48002e-07
-2.99881e-07
-2.55772e-07
-2.15423e-07
-1.78473e-07
-1.44851e-07
-1.13953e-07
-8.63135e-08
-6.02148e-08
-3.84269e-08
-1.50924e-08
-6.5546e-10
2.44106e-08
2.57862e-08
6.34346e-08
3.63883e-08
1.11111e-07
2.16076e-08
1.81618e-07
-3.24327e-08
2.90681e-07
-1.36159e-07
4.42284e-07
-2.77322e-07
6.05297e-07
-3.97316e-07
6.97109e-07
-3.92269e-07
6.13917e-07
-1.8039e-07
3.36544e-07
1.70228e-07
4.80527e-08
3.85407e-07
9.12347e-08
1.4262e-07
7.80901e-07
-8.94143e-06
-8.26559e-06
-7.63633e-06
-7.05081e-06
-6.50631e-06
-6.00023e-06
-5.53014e-06
-5.09368e-06
-4.68864e-06
-4.31293e-06
-3.96456e-06
-3.64167e-06
-3.3425e-06
-3.0654e-06
-2.80882e-06
-2.57132e-06
-2.35154e-06
-2.14822e-06
-1.96018e-06
-1.78634e-06
-1.62566e-06
-1.4772e-06
-1.34008e-06
-1.21346e-06
-1.09658e-06
-9.88739e-07
-8.89272e-07
-7.97568e-07
-7.13064e-07
-6.35236e-07
-5.63611e-07
-4.97734e-07
-4.37207e-07
-3.81639e-07
-3.30671e-07
-2.83969e-07
-2.41201e-07
-2.02113e-07
-1.66349e-07
-1.33833e-07
-1.03973e-07
-7.72842e-08
-5.20978e-08
-3.10954e-08
-8.59523e-09
5.26699e-09
2.94678e-08
3.06214e-08
6.71311e-08
4.05309e-08
1.13379e-07
2.55517e-08
1.82255e-07
-2.81854e-08
2.89537e-07
-1.31398e-07
4.39671e-07
-2.72579e-07
6.02352e-07
-3.93931e-07
6.95346e-07
-3.91273e-07
6.13542e-07
-1.80657e-07
3.35158e-07
1.71904e-07
4.25771e-08
3.91106e-07
8.08639e-08
1.52327e-07
7.66109e-07
-8.87576e-06
-8.19945e-06
-7.56984e-06
-6.98411e-06
-6.43957e-06
-5.93364e-06
-5.46389e-06
-5.02797e-06
-4.62367e-06
-4.24888e-06
-3.90162e-06
-3.58001e-06
-3.28228e-06
-3.00678e-06
-2.75192e-06
-2.51625e-06
-2.29841e-06
-2.0971e-06
-1.91114e-06
-1.73942e-06
-1.5809e-06
-1.43461e-06
-1.29966e-06
-1.17521e-06
-1.06048e-06
-9.54759e-07
-8.57366e-07
-7.67688e-07
-6.85153e-07
-6.09229e-07
-5.39439e-07
-4.75324e-07
-4.16483e-07
-3.62522e-07
-3.13082e-07
-2.67827e-07
-2.26425e-07
-1.8862e-07
-1.54062e-07
-1.22669e-07
-9.38649e-08
-6.81405e-08
-4.388e-08
-2.36741e-08
-2.02062e-09
1.12611e-08
3.45821e-08
3.55165e-08
7.08641e-08
4.47303e-08
1.15658e-07
2.95619e-08
1.82868e-07
-2.38481e-08
2.88323e-07
-1.26517e-07
4.3695e-07
-2.67705e-07
5.99295e-07
-3.90445e-07
6.93504e-07
-3.90218e-07
6.13068e-07
-1.80772e-07
3.33414e-07
1.74116e-07
3.61726e-08
3.97917e-07
6.888e-08
1.6362e-07
7.48469e-07
-8.79926e-06
-8.12351e-06
-7.4945e-06
-6.90943e-06
-6.36564e-06
-5.86059e-06
-5.39182e-06
-4.95703e-06
-4.554e-06
-4.18062e-06
-3.83491e-06
-3.51498e-06
-3.21905e-06
-2.94544e-06
-2.69259e-06
-2.45902e-06
-2.24333e-06
-2.04424e-06
-1.86054e-06
-1.69111e-06
-1.5349e-06
-1.39092e-06
-1.25826e-06
-1.13608e-06
-1.0236e-06
-9.20073e-07
-8.2483e-07
-7.37245e-07
-6.56738e-07
-5.82774e-07
-5.14867e-07
-4.52558e-07
-3.95441e-07
-3.43123e-07
-2.95241e-07
-2.51461e-07
-2.11449e-07
-1.74949e-07
-1.41616e-07
-1.11364e-07
-8.36312e-08
-5.88854e-08
-3.55645e-08
-1.61656e-08
4.6292e-09
1.73243e-08
3.97525e-08
4.04687e-08
7.46337e-08
4.89826e-08
1.1795e-07
3.36307e-08
1.83463e-07
-1.94353e-08
2.87057e-07
-1.21542e-07
4.34152e-07
-2.6274e-07
5.96172e-07
-3.86913e-07
6.91639e-07
-3.89161e-07
6.12543e-07
-1.80769e-07
3.31327e-07
1.76877e-07
2.88019e-08
4.05892e-07
5.52339e-08
1.76525e-07
7.27958e-07
-8.71188e-06
-8.03775e-06
-7.41029e-06
-6.82676e-06
-6.28452e-06
-5.78105e-06
-5.31393e-06
-4.88086e-06
-4.47963e-06
-4.10815e-06
-3.76441e-06
-3.44655e-06
-3.15277e-06
-2.88139e-06
-2.63083e-06
-2.3996e-06
-2.18631e-06
-1.98965e-06
-1.8084e-06
-1.64142e-06
-1.48766e-06
-1.34612e-06
-1.21588e-06
-1.09608e-06
-9.85928e-07
-8.84687e-07
-7.91671e-07
-7.06246e-07
-6.27828e-07
-5.55877e-07
-4.89902e-07
-4.29442e-07
-3.74088e-07
-3.23446e-07
-2.77154e-07
-2.34874e-07
-1.96276e-07
-1.61103e-07
-1.29015e-07
-9.9921e-08
-7.32758e-08
-4.95229e-08
-2.71541e-08
-8.57397e-09
1.13532e-08
2.34513e-08
4.49818e-08
4.54675e-08
7.84524e-08
5.32634e-08
1.20289e-07
3.7704e-08
1.84118e-07
-1.50571e-08
2.85888e-07
-1.1667e-07
4.31527e-07
-2.57988e-07
5.93334e-07
-3.8372e-07
6.90146e-07
-3.88474e-07
6.12279e-07
-1.80867e-07
3.28995e-07
1.80208e-07
2.03474e-08
4.15191e-07
3.98146e-08
1.91023e-07
7.0471e-07
-8.61562e-06
-7.94414e-06
-7.31914e-06
-6.73795e-06
-6.198e-06
-5.69678e-06
-5.23192e-06
-4.80111e-06
-4.40217e-06
-4.03301e-06
-3.69165e-06
-3.3762e-06
-3.08488e-06
-2.81599e-06
-2.56796e-06
-2.33928e-06
-2.12856e-06
-1.93447e-06
-1.7558e-06
-1.59139e-06
-1.44018e-06
-1.30116e-06
-1.1734e-06
-1.05604e-06
-9.48269e-07
-8.49349e-07
-7.58587e-07
-6.75344e-07
-5.99032e-07
-5.29105e-07
-4.65069e-07
-4.06462e-07
-3.52873e-07
-3.03906e-07
-2.592e-07
-2.18417e-07
-1.81228e-07
-1.47375e-07
-1.16525e-07
-8.85823e-08
-6.30169e-08
-4.02504e-08
-1.88259e-08
-1.05966e-09
1.80102e-08
2.95116e-08
5.01617e-08
5.04037e-08
8.22455e-08
5.74727e-08
1.22641e-07
4.16724e-08
1.84853e-07
-1.08557e-08
2.84908e-07
-1.12096e-07
4.29247e-07
-2.53693e-07
5.9101e-07
-3.81119e-07
6.89247e-07
-3.8835e-07
6.12434e-07
-1.81164e-07
3.26508e-07
1.84067e-07
1.09101e-08
4.25713e-07
2.29022e-08
2.06775e-07
6.79312e-07
-8.51027e-06
-7.84239e-06
-7.22073e-06
-6.64266e-06
-6.1057e-06
-5.60738e-06
-5.14535e-06
-4.71733e-06
-4.32116e-06
-3.95476e-06
-3.61615e-06
-3.30346e-06
-3.01489e-06
-2.74878e-06
-2.50351e-06
-2.2776e-06
-2.06963e-06
-1.8783e-06
-1.70235e-06
-1.54064e-06
-1.39209e-06
-1.25568e-06
-1.13049e-06
-1.01563e-06
-9.1031e-07
-8.13764e-07
-7.25302e-07
-6.4428e-07
-5.70106e-07
-5.02231e-07
-4.40157e-07
-3.83423e-07
-3.31613e-07
-2.84336e-07
-2.41226e-07
-2.01947e-07
-1.66173e-07
-1.33645e-07
-1.04036e-07
-7.72478e-08
-5.27654e-08
-3.09852e-08
-1.05091e-08
6.44874e-09
2.46506e-08
3.55745e-08
5.53124e-08
5.53657e-08
8.59757e-08
6.17616e-08
1.24854e-07
4.58322e-08
1.85298e-07
-6.26358e-09
2.83393e-07
-1.06839e-07
4.26112e-07
-2.48396e-07
5.87551e-07
-3.77322e-07
6.87146e-07
-3.8712e-07
6.11616e-07
-1.80691e-07
3.23381e-07
1.88441e-07
8.51929e-10
4.36953e-07
4.75109e-09
2.24077e-07
6.5092e-07
-8.39241e-06
-7.72916e-06
-7.11179e-06
-6.53773e-06
-6.00457e-06
-5.50989e-06
-5.05137e-06
-4.62677e-06
-4.23394e-06
-3.87082e-06
-3.53545e-06
-3.22596e-06
-2.94056e-06
-2.67758e-06
-2.43542e-06
-2.21258e-06
-2.00766e-06
-1.81933e-06
-1.64634e-06
-1.48755e-06
-1.34185e-06
-1.20825e-06
-1.08579e-06
-9.73595e-07
-8.70856e-07
-7.76814e-07
-6.90771e-07
-6.1208e-07
-5.40144e-07
-4.74414e-07
-4.14388e-07
-3.59605e-07
-3.09648e-07
-2.64124e-07
-2.22671e-07
-1.84952e-07
-1.50643e-07
-1.19487e-07
-9.11627e-08
-6.55667e-08
-4.22035e-08
-2.1441e-08
-1.94544e-09
1.41812e-08
3.14831e-08
4.1821e-08
6.06034e-08
6.04885e-08
8.97865e-08
6.6217e-08
1.27063e-07
5.02086e-08
1.85613e-07
-1.34544e-09
2.81571e-07
-1.011e-07
4.22476e-07
-2.42474e-07
5.83465e-07
-3.72878e-07
6.84451e-07
-3.85373e-07
6.10325e-07
-1.79801e-07
3.19694e-07
1.93481e-07
-1.0301e-08
4.49464e-07
-1.53144e-08
2.43346e-07
6.18964e-07
-8.26147e-06
-7.60389e-06
-6.9918e-06
-6.42267e-06
-5.89417e-06
-5.40392e-06
-4.94964e-06
-4.52911e-06
-4.14023e-06
-3.78094e-06
-3.44932e-06
-3.14348e-06
-2.86168e-06
-2.60222e-06
-2.36352e-06
-2.14408e-06
-1.9425e-06
-1.75744e-06
-1.58767e-06
-1.43202e-06
-1.28939e-06
-1.15878e-06
-1.03923e-06
-9.29861e-07
-8.29855e-07
-7.38453e-07
-6.54954e-07
-5.78708e-07
-5.09116e-07
-4.45627e-07
-3.87738e-07
-3.34987e-07
-2.86956e-07
-2.43255e-07
-2.03521e-07
-1.67419e-07
-1.34627e-07
-1.04891e-07
-7.78952e-08
-5.35318e-08
-3.13249e-08
-1.16132e-08
6.87051e-09
2.21401e-08
3.85141e-08
4.82489e-08
6.60456e-08
6.57602e-08
9.37026e-08
7.08046e-08
1.29326e-07
5.4722e-08
1.85917e-07
3.73742e-09
2.79662e-07
-9.51599e-08
4.18695e-07
-2.36353e-07
5.79243e-07
-3.68318e-07
6.81705e-07
-3.83625e-07
6.08993e-07
-1.78806e-07
3.15596e-07
1.99191e-07
-2.26922e-08
4.63442e-07
-3.74457e-08
2.64554e-07
5.83619e-07
-8.1168e-06
-7.46601e-06
-6.86024e-06
-6.29701e-06
-5.77406e-06
-5.28905e-06
-4.83976e-06
-4.42401e-06
-4.0397e-06
-3.68484e-06
-3.35749e-06
-3.0558e-06
-2.77803e-06
-2.52251e-06
-2.28764e-06
-2.07195e-06
-1.87402e-06
-1.69253e-06
-1.52623e-06
-1.37396e-06
-1.23463e-06
-1.1072e-06
-9.90748e-07
-8.84372e-07
-7.87255e-07
-6.98636e-07
-6.17811e-07
-5.44129e-07
-4.7699e-07
-4.15842e-07
-3.60181e-07
-3.09547e-07
-2.6352e-07
-2.21712e-07
-1.83761e-07
-1.49335e-07
-1.18115e-07
-8.98473e-08
-6.42255e-08
-4.11358e-08
-2.0123e-08
-1.49603e-09
1.5944e-08
3.03295e-08
4.57478e-08
5.48607e-08
7.16435e-08
7.11812e-08
9.77293e-08
7.55217e-08
1.3165e-07
5.93654e-08
1.8622e-07
8.97334e-09
2.77681e-07
-8.90359e-08
4.14784e-07
-2.30053e-07
5.74904e-07
-3.63667e-07
6.78933e-07
-3.81903e-07
6.07651e-07
-1.77735e-07
3.11108e-07
2.05565e-07
-3.63335e-08
4.78905e-07
-6.16769e-08
2.87727e-07
5.44876e-07
-7.95778e-06
-7.31496e-06
-6.71659e-06
-6.16027e-06
-5.64379e-06
-5.16489e-06
-4.72138e-06
-4.31112e-06
-3.93206e-06
-3.58222e-06
-3.25971e-06
-2.96269e-06
-2.68942e-06
-2.43826e-06
-2.20763e-06
-1.99604e-06
-1.80209e-06
-1.62446e-06
-1.46192e-06
-1.31328e-06
-1.17746e-06
-1.05345e-06
-9.40277e-07
-8.37071e-07
-7.43005e-07
-6.57316e-07
-5.79301e-07
-5.08306e-07
-4.43734e-07
-3.85031e-07
-3.31694e-07
-2.83263e-07
-2.39321e-07
-1.99479e-07
-1.63378e-07
-1.30688e-07
-1.01095e-07
-7.43468e-08
-5.01451e-08
-2.83714e-08
-8.59139e-09
8.916e-09
2.52801e-08
3.87537e-08
5.31884e-08
6.16593e-08
7.74002e-08
7.67534e-08
1.01869e-07
8.03701e-08
1.34035e-07
6.41427e-08
1.86518e-07
1.43735e-08
2.7561e-07
-8.27007e-08
4.10709e-07
-2.23522e-07
5.70388e-07
-3.58858e-07
6.76069e-07
-3.80153e-07
6.06254e-07
-1.76566e-07
3.06224e-07
2.12587e-07
-5.12061e-08
4.95829e-07
-8.80001e-08
3.12874e-07
5.02722e-07
-7.7838e-06
-7.15015e-06
-6.56032e-06
-6.01196e-06
-5.50292e-06
-5.03102e-06
-4.59411e-06
-4.1901e-06
-3.81699e-06
-3.47282e-06
-3.15572e-06
-2.8639e-06
-2.59564e-06
-2.34929e-06
-2.1233e-06
-1.91619e-06
-1.72657e-06
-1.55312e-06
-1.39461e-06
-1.24988e-06
-1.11782e-06
-9.97428e-07
-8.87749e-07
-7.87897e-07
-6.9705e-07
-6.14446e-07
-5.39382e-07
-4.71205e-07
-4.09317e-07
-3.53167e-07
-3.02253e-07
-2.56115e-07
-2.14339e-07
-1.76538e-07
-1.42356e-07
-1.11465e-07
-8.35562e-08
-5.83799e-08
-3.56459e-08
-1.52316e-08
3.27616e-09
1.96282e-08
3.48836e-08
4.74164e-08
6.08398e-08
6.86472e-08
8.33195e-08
8.24776e-08
1.06126e-07
8.53488e-08
1.36486e-07
6.90519e-08
1.86815e-07
1.99375e-08
2.73449e-07
-7.61475e-08
4.06455e-07
-2.16743e-07
5.6567e-07
-3.53862e-07
6.73083e-07
-3.78349e-07
6.04789e-07
-1.753e-07
3.00954e-07
2.20238e-07
-6.72895e-08
5.14186e-07
-1.16395e-07
3.39975e-07
4.57197e-07
-7.59425e-06
-6.97104e-06
-6.39092e-06
-5.8516e-06
-5.35101e-06
-4.88704e-06
-4.45758e-06
-4.06062e-06
-3.69417e-06
-3.35634e-06
-3.04527e-06
-2.75922e-06
-2.49647e-06
-2.2554e-06
-2.03448e-06
-1.83225e-06
-1.64732e-06
-1.47839e-06
-1.32422e-06
-1.18365e-06
-1.05561e-06
-9.39074e-07
-8.33095e-07
-7.36791e-07
-6.49339e-07
-5.69981e-07
-4.98014e-07
-4.32788e-07
-3.73707e-07
-3.20221e-07
-2.71832e-07
-2.28081e-07
-1.88557e-07
-1.52875e-07
-1.20681e-07
-9.16536e-08
-6.54883e-08
-4.19376e-08
-2.07202e-08
-1.70965e-09
1.54856e-08
3.06457e-08
4.47593e-08
5.63214e-08
6.87057e-08
7.58265e-08
8.94048e-08
8.83541e-08
1.10504e-07
9.04558e-08
1.39009e-07
7.40883e-08
1.87117e-07
2.56597e-08
2.71204e-07
-6.93784e-08
4.02022e-07
-2.09708e-07
5.60737e-07
-3.48664e-07
6.69961e-07
-3.76483e-07
6.03255e-07
-1.73948e-07
2.95315e-07
2.2849e-07
-8.45544e-08
5.33935e-07
-1.46821e-07
3.68991e-07
4.08389e-07
-7.38855e-06
-6.77707e-06
-6.20787e-06
-5.67872e-06
-5.18763e-06
-4.73254e-06
-4.31143e-06
-3.92233e-06
-3.5633e-06
-3.2325e-06
-2.92811e-06
-2.6484e-06
-2.3917e-06
-2.15641e-06
-1.94101e-06
-1.74407e-06
-1.5642e-06
-1.40013e-06
-1.25061e-06
-1.11451e-06
-9.90748e-07
-8.78307e-07
-7.76249e-07
-6.83692e-07
-5.99819e-07
-5.23874e-07
-4.55157e-07
-3.93022e-07
-3.36874e-07
-2.86168e-07
-2.40408e-07
-1.99141e-07
-1.61956e-07
-1.28473e-07
-9.83407e-08
-7.12431e-08
-4.68815e-08
-2.50114e-08
-5.36045e-09
1.2201e-08
2.80427e-08
4.19733e-08
5.49115e-08
6.54721e-08
7.67899e-08
8.31991e-08
9.56595e-08
9.4383e-08
1.15008e-07
9.56889e-08
1.4161e-07
7.92469e-08
1.87433e-07
3.15339e-08
2.68879e-07
-6.23958e-08
3.97408e-07
-2.0241e-07
5.55578e-07
-3.43247e-07
6.66684e-07
-3.74546e-07
6.01648e-07
-1.72522e-07
2.8933e-07
2.37306e-07
-1.02957e-07
5.5502e-07
-1.79217e-07
3.99854e-07
3.56427e-07
-7.16611e-06
-6.56772e-06
-6.01068e-06
-5.49285e-06
-5.01233e-06
-4.56713e-06
-4.15529e-06
-3.77489e-06
-3.42407e-06
-3.10102e-06
-2.80396e-06
-2.53121e-06
-2.28112e-06
-2.05212e-06
-1.84272e-06
-1.65149e-06
-1.47709e-06
-1.31823e-06
-1.1737e-06
-1.04236e-06
-9.23147e-07
-8.15054e-07
-7.17144e-07
-6.28543e-07
-5.48438e-07
-4.7608e-07
-4.10771e-07
-3.5187e-07
-2.98786e-07
-2.5098e-07
-2.07959e-07
-1.69275e-07
-1.3452e-07
-1.03317e-07
-7.53218e-08
-5.02223e-08
-2.77264e-08
-7.59324e-09
1.04403e-08
2.65063e-08
4.09527e-08
5.36156e-08
6.53444e-08
7.48716e-08
8.50956e-08
9.07666e-08
1.02087e-07
1.00564e-07
1.19641e-07
1.01046e-07
1.44295e-07
8.45225e-08
1.87769e-07
3.75535e-08
2.66482e-07
-5.52025e-08
3.92611e-07
-1.94841e-07
5.50175e-07
-3.37593e-07
6.63234e-07
-3.72522e-07
5.99964e-07
-1.71036e-07
2.83026e-07
2.46641e-07
-1.2244e-07
5.7736e-07
-2.13491e-07
4.32469e-07
3.01488e-07
-6.9264e-06
-6.34246e-06
-5.79886e-06
-5.29356e-06
-4.82471e-06
-4.39042e-06
-3.98879e-06
-3.61799e-06
-3.27619e-06
-2.96163e-06
-2.67259e-06
-2.40743e-06
-2.16453e-06
-1.94235e-06
-1.73944e-06
-1.55438e-06
-1.38584e-06
-1.23257e-06
-1.09337e-06
-9.67104e-07
-8.52726e-07
-7.49239e-07
-6.55715e-07
-5.71286e-07
-4.95147e-07
-4.26555e-07
-3.64818e-07
-3.093e-07
-2.59416e-07
-2.14632e-07
-1.74463e-07
-1.38464e-07
-1.06231e-07
-7.73936e-08
-5.16124e-08
-2.85809e-08
-8.01418e-09
1.03245e-08
2.66886e-08
4.12119e-08
5.42206e-08
6.55766e-08
7.60617e-08
8.45227e-08
9.36257e-08
9.85304e-08
1.0869e-07
1.06897e-07
1.24408e-07
1.06523e-07
1.4707e-07
8.99092e-08
1.88133e-07
4.37108e-08
2.64019e-07
-4.78023e-08
3.8763e-07
-1.86991e-07
5.44514e-07
-3.3168e-07
6.59585e-07
-3.70396e-07
5.98197e-07
-1.69504e-07
2.76434e-07
2.56439e-07
-1.42928e-07
6.00858e-07
-2.49525e-07
4.6671e-07
2.43799e-07
-6.66888e-06
-6.10081e-06
-5.57197e-06
-5.0804e-06
-4.62436e-06
-4.20203e-06
-3.8116e-06
-3.45129e-06
-3.11935e-06
-2.81406e-06
-2.53376e-06
-2.27684e-06
-2.04173e-06
-1.82693e-06
-1.631e-06
-1.45257e-06
-1.29033e-06
-1.14304e-06
-1.00951e-06
-8.88649e-07
-7.79403e-07
-6.80793e-07
-5.91899e-07
-5.11866e-07
-4.39898e-07
-3.75258e-07
-3.17262e-07
-2.6528e-07
-2.18735e-07
-1.77102e-07
-1.399e-07
-1.0669e-07
-7.70752e-08
-5.069e-08
-2.72015e-08
-6.30962e-09
1.22632e-08
2.87487e-08
4.33904e-08
5.63228e-08
6.78507e-08
7.786e-08
8.70666e-08
9.44277e-08
1.02383e-07
1.06492e-07
1.1547e-07
1.13382e-07
1.29312e-07
1.12118e-07
1.49941e-07
9.54005e-08
1.88535e-07
4.99973e-08
2.61498e-07
-4.02003e-08
3.82464e-07
-1.78855e-07
5.38579e-07
-3.25489e-07
6.55715e-07
-3.6815e-07
5.9634e-07
-1.6794e-07
2.69591e-07
2.66636e-07
-1.64332e-07
6.25392e-07
-2.87171e-07
5.02419e-07
1.83641e-07
-6.39309e-06
-5.84231e-06
-5.32955e-06
-4.85297e-06
-4.4109e-06
-4.00162e-06
-3.62339e-06
-3.2745e-06
-2.95327e-06
-2.65805e-06
-2.38722e-06
-2.13922e-06
-1.91252e-06
-1.70567e-06
-1.51725e-06
-1.34593e-06
-1.19043e-06
-1.04951e-06
-9.22036e-07
-8.06909e-07
-7.03101e-07
-6.09645e-07
-5.25636e-07
-4.5023e-07
-3.82644e-07
-3.22147e-07
-2.68066e-07
-2.19779e-07
-1.76718e-07
-1.38365e-07
-1.0425e-07
-7.39379e-08
-4.70384e-08
-2.31941e-08
-2.07909e-09
1.66001e-08
3.31129e-08
4.76854e-08
6.05508e-08
7.18433e-08
8.18467e-08
9.04689e-08
9.83617e-08
1.04589e-07
1.11369e-07
1.14651e-07
1.22431e-07
1.20017e-07
1.34356e-07
1.17828e-07
1.52913e-07
1.0099e-07
1.88983e-07
5.64035e-08
2.58928e-07
-3.24033e-08
3.77114e-07
-1.70427e-07
5.32354e-07
-3.18996e-07
6.51597e-07
-3.65765e-07
5.94386e-07
-1.66362e-07
2.62535e-07
2.77159e-07
-1.8655e-07
6.50821e-07
-3.26252e-07
5.39404e-07
1.21345e-07
-6.09856e-06
-5.56652e-06
-5.07122e-06
-4.61089e-06