/*--------------------------------*- C++ -*----------------------------------*\
| =========                 |                                                 |
| \\      /  F ield         | OpenFOAM: The Open Source CFD Toolbox           |
|  \\    /   O peration     | Version:  2412                                  |
|   \\  /    A nd           | Website:  www.openfoam.com                      |
|    \\/     M anipulation  |                                                 |
\*---------------------------------------------------------------------------*/
FoamFile
{
    version     2.0;
    format      ascii;
    arch        "LSB;label=32;scalar=64";
    class       volVectorField;
    location    "23";
    object      U;
}
// * * * * * * * * * * * * * * * * * * * * * * * * * * * * * * * * * * * * * //

dimensions      [0 1 -1 0 0 0 0];

internalField   nonuniform List<vector> 
5285
(
(0.0983027 -2.15399e-05 0)
(0.0984028 -2.0206e-05 0)
(0.0984986 -1.89437e-05 0)
(0.0985901 -1.77454e-05 0)
(0.0986776 -1.6607e-05 0)
(0.098761 -1.55261e-05 0)
(0.0988406 -1.45013e-05 0)
(0.0989163 -1.35313e-05 0)
(0.0989884 -1.26148e-05 0)
(0.099057 -1.17501e-05 0)
(0.0991221 -1.09353e-05 0)
(0.0991839 -1.01683e-05 0)
(0.0992425 -9.44692e-06 0)
(0.099298 -8.76903e-06 0)
(0.0993506 -8.13239e-06 0)
(0.0994003 -7.53488e-06 0)
(0.0994472 -6.97448e-06 0)
(0.0994916 -6.44925e-06 0)
(0.0995334 -5.95737e-06 0)
(0.0995728 -5.49709e-06 0)
(0.0996099 -5.06671e-06 0)
(0.0996448 -4.66456e-06 0)
(0.0996776 -4.28902e-06 0)
(0.0997083 -3.93856e-06 0)
(0.099737 -3.6118e-06 0)
(0.0997639 -3.30748e-06 0)
(0.0997891 -3.02446e-06 0)
(0.0998125 -2.76162e-06 0)
(0.0998343 -2.51775e-06 0)
(0.0998546 -2.29155e-06 0)
(0.0998735 -2.08174e-06 0)
(0.0998909 -1.88718e-06 0)
(0.0999071 -1.70705e-06 0)
(0.099922 -1.54077e-06 0)
(0.0999357 -1.38792e-06 0)
(0.0999483 -1.24797e-06 0)
(0.0999599 -1.12018e-06 0)
(0.0999705 -1.00367e-06 0)
(0.0999801 -8.97413e-07 0)
(0.0999889 -8.00533e-07 0)
(0.099997 -7.12159e-07 0)
(0.100004 -6.319e-07 0)
(0.100011 -5.59175e-07 0)
(0.100017 -4.9417e-07 0)
(0.100022 -4.3584e-07 0)
(0.100027 -3.84839e-07 0)
(0.100031 -3.38741e-07 0)
(0.100035 -2.99949e-07 0)
(0.100039 -2.63837e-07 0)
(0.100042 -2.3678e-07 0)
(0.100046 -2.09354e-07 0)
(0.100047 -1.94711e-07 0)
(0.100052 -1.74785e-07 0)
(0.100051 -1.73771e-07 0)
(0.100057 -1.59384e-07 0)
(0.100055 -1.72673e-07 0)
(0.100064 -1.63027e-07 0)
(0.100059 -1.92008e-07 0)
(0.100071 -1.88609e-07 0)
(0.100063 -2.32611e-07 0)
(0.10008 -2.41655e-07 0)
(0.100069 -2.97285e-07 0)
(0.10009 -3.25972e-07 0)
(0.100078 -3.95996e-07 0)
(0.100105 -4.42195e-07 0)
(0.100092 -5.4024e-07 0)
(0.100124 -6.28687e-07 0)
(0.100113 -6.39332e-07 0)
(0.100149 -9.85769e-07 0)
(0.100147 -8.47327e-07 0)
(0.100183 -1.03359e-06 0)
(0.0983038 -6.45468e-05 0)
(0.0984038 -6.05563e-05 0)
(0.0984995 -5.67799e-05 0)
(0.098591 -5.31947e-05 0)
(0.0986784 -4.97883e-05 0)
(0.0987618 -4.65538e-05 0)
(0.0988413 -4.34869e-05 0)
(0.098917 -4.05837e-05 0)
(0.0989891 -3.78402e-05 0)
(0.0990576 -3.52515e-05 0)
(0.0991226 -3.2812e-05 0)
(0.0991844 -3.05157e-05 0)
(0.0992429 -2.83561e-05 0)
(0.0992984 -2.63268e-05 0)
(0.0993509 -2.44212e-05 0)
(0.0994006 -2.2633e-05 0)
(0.0994475 -2.09561e-05 0)
(0.0994919 -1.93844e-05 0)
(0.0995337 -1.79123e-05 0)
(0.0995731 -1.65346e-05 0)
(0.0996101 -1.52459e-05 0)
(0.099645 -1.40414e-05 0)
(0.0996777 -1.29163e-05 0)
(0.0997084 -1.18661e-05 0)
(0.0997372 -1.08868e-05 0)
(0.0997641 -9.97434e-06 0)
(0.0997892 -9.12518e-06 0)
(0.0998126 -8.3358e-06 0)
(0.0998344 -7.60277e-06 0)
(0.0998547 -6.92268e-06 0)
(0.0998735 -6.29221e-06 0)
(0.099891 -5.70833e-06 0)
(0.0999071 -5.16841e-06 0)
(0.099922 -4.67011e-06 0)
(0.0999357 -4.21136e-06 0)
(0.0999483 -3.79009e-06 0)
(0.0999599 -3.40409e-06 0)
(0.0999705 -3.05116e-06 0)
(0.0999802 -2.72886e-06 0)
(0.099989 -2.43518e-06 0)
(0.099997 -2.16787e-06 0)
(0.100004 -1.92575e-06 0)
(0.100011 -1.70662e-06 0)
(0.100017 -1.51062e-06 0)
(0.100022 -1.33426e-06 0)
(0.100027 -1.17981e-06 0)
(0.100031 -1.04036e-06 0)
(0.100035 -9.23385e-07 0)
(0.100039 -8.14976e-07 0)
(0.100042 -7.33765e-07 0)
(0.100046 -6.51388e-07 0)
(0.100047 -6.06763e-07 0)
(0.100052 -5.45567e-07 0)
(0.100051 -5.40375e-07 0)
(0.100057 -4.95217e-07 0)
(0.100055 -5.32815e-07 0)
(0.100064 -5.01689e-07 0)
(0.100059 -5.85774e-07 0)
(0.100071 -5.73677e-07 0)
(0.100063 -7.0273e-07 0)
(0.10008 -7.27272e-07 0)
(0.100069 -8.9239e-07 0)
(0.10009 -9.77714e-07 0)
(0.100078 -1.18562e-06 0)
(0.100105 -1.32397e-06 0)
(0.100092 -1.61819e-06 0)
(0.100124 -1.88187e-06 0)
(0.100113 -1.91382e-06 0)
(0.100149 -2.94422e-06 0)
(0.100147 -2.53218e-06 0)
(0.100183 -3.08729e-06 0)
(0.0983059 -0.000107525 0)
(0.0984058 -0.000100874 0)
(0.0985014 -9.45818e-05 0)
(0.0985928 -8.8609e-05 0)
(0.0986801 -8.29349e-05 0)
(0.0987634 -7.7548e-05 0)
(0.0988427 -7.24407e-05 0)
(0.0989184 -6.76064e-05 0)
(0.0989903 -6.30382e-05 0)
(0.0990587 -5.87277e-05 0)
(0.0991237 -5.46657e-05 0)
(0.0991853 -5.0842e-05 0)
(0.0992438 -4.72462e-05 0)
(0.0992992 -4.38673e-05 0)
(0.0993516 -4.06944e-05 0)
(0.0994013 -3.77171e-05 0)
(0.0994482 -3.49249e-05 0)
(0.0994924 -3.2308e-05 0)
(0.0995342 -2.9857e-05 0)
(0.0995735 -2.75627e-05 0)
(0.0996106 -2.54167e-05 0)
(0.0996454 -2.34107e-05 0)
(0.0996781 -2.15368e-05 0)
(0.0997087 -1.97876e-05 0)
(0.0997375 -1.81563e-05 0)
(0.0997643 -1.66363e-05 0)
(0.0997894 -1.52215e-05 0)
(0.0998128 -1.3906e-05 0)
(0.0998346 -1.26842e-05 0)
(0.0998549 -1.15506e-05 0)
(0.0998737 -1.04998e-05 0)
(0.0998911 -9.52695e-06 0)
(0.0999072 -8.62751e-06 0)
(0.0999221 -7.79743e-06 0)
(0.0999358 -7.03302e-06 0)
(0.0999484 -6.33064e-06 0)
(0.09996 -5.68661e-06 0)
(0.0999706 -5.09741e-06 0)
(0.0999802 -4.55921e-06 0)
(0.099989 -4.06887e-06 0)
(0.099997 -3.62274e-06 0)
(0.100004 -3.21886e-06 0)
(0.100011 -2.85342e-06 0)
(0.100017 -2.52651e-06 0)
(0.100022 -2.2322e-06 0)
(0.100027 -1.97437e-06 0)
(0.100032 -1.74161e-06 0)
(0.100035 -1.54651e-06 0)
(0.100039 -1.36584e-06 0)
(0.100042 -1.23052e-06 0)
(0.100046 -1.09322e-06 0)
(0.100047 -1.01865e-06 0)
(0.100052 -9.16198e-07 0)
(0.100051 -9.06848e-07 0)
(0.100057 -8.30923e-07 0)
(0.100055 -8.92857e-07 0)
(0.100064 -8.40237e-07 0)
(0.100059 -9.79462e-07 0)
(0.100071 -9.58621e-07 0)
(0.100063 -1.17277e-06 0)
(0.10008 -1.21278e-06 0)
(0.100069 -1.48728e-06 0)
(0.10009 -1.62974e-06 0)
(0.100078 -1.97404e-06 0)
(0.100105 -2.20796e-06 0)
(0.100092 -2.69236e-06 0)
(0.100124 -3.13855e-06 0)
(0.100113 -3.18941e-06 0)
(0.100149 -4.89535e-06 0)
(0.100147 -4.22421e-06 0)
(0.100183 -5.14571e-06 0)
(0.0983091 -0.000150454 0)
(0.0984089 -0.000141138 0)
(0.0985043 -0.000132326 0)
(0.0985955 -0.000123964 0)
(0.0986826 -0.000116024 0)
(0.0987657 -0.000108486 0)
(0.0988449 -0.000101342 0)
(0.0989204 -9.45796e-05 0)
(0.0989921 -8.81902e-05 0)
(0.0990604 -8.21617e-05 0)
(0.0991252 -7.64808e-05 0)
(0.0991867 -7.11334e-05 0)
(0.0992451 -6.61045e-05 0)
(0.0993004 -6.13789e-05 0)
(0.0993527 -5.69416e-05 0)
(0.0994023 -5.27776e-05 0)
(0.0994491 -4.88725e-05 0)
(0.0994933 -4.52125e-05 0)
(0.0995349 -4.17844e-05 0)
(0.0995742 -3.85754e-05 0)
(0.0996112 -3.55735e-05 0)
(0.099646 -3.27674e-05 0)
(0.0996786 -3.01459e-05 0)
(0.0997092 -2.76989e-05 0)
(0.0997379 -2.54166e-05 0)
(0.0997647 -2.329e-05 0)
(0.0997898 -2.13104e-05 0)
(0.0998132 -1.94696e-05 0)
(0.0998349 -1.77598e-05 0)
(0.0998552 -1.61733e-05 0)
(0.0998739 -1.47027e-05 0)
(0.0998913 -1.33413e-05 0)
(0.0999074 -1.20828e-05 0)
(0.0999223 -1.09214e-05 0)
(0.099936 -9.85168e-06 0)
(0.0999486 -8.86853e-06 0)
(0.0999601 -7.96679e-06 0)
(0.0999707 -7.14158e-06 0)
(0.0999803 -6.38773e-06 0)
(0.0999891 -5.70094e-06 0)
(0.0999971 -5.07619e-06 0)
(0.100004 -4.51073e-06 0)
(0.100011 -3.99915e-06 0)
(0.100017 -3.54144e-06 0)
(0.100022 -3.12932e-06 0)
(0.100027 -2.76821e-06 0)
(0.100032 -2.44224e-06 0)
(0.100035 -2.16911e-06 0)
(0.100039 -1.91626e-06 0)
(0.100042 -1.72689e-06 0)
(0.100046 -1.53471e-06 0)
(0.100047 -1.43025e-06 0)
(0.100052 -1.28655e-06 0)
(0.100051 -1.27312e-06 0)
(0.100057 -1.16639e-06 0)
(0.100055 -1.25275e-06 0)
(0.100064 -1.17855e-06 0)
(0.100059 -1.37304e-06 0)
(0.100071 -1.34333e-06 0)
(0.100063 -1.6427e-06 0)
(0.10008 -1.69809e-06 0)
(0.100069 -2.08181e-06 0)
(0.10009 -2.2822e-06 0)
(0.100078 -2.76048e-06 0)
(0.100105 -3.09555e-06 0)
(0.100092 -3.76035e-06 0)
(0.100124 -4.40089e-06 0)
(0.100113 -4.46677e-06 0)
(0.100149 -6.83456e-06 0)
(0.100147 -5.92799e-06 0)
(0.100183 -7.21178e-06 0)
(0.0983134 -0.000193312 0)
(0.098413 -0.000181323 0)
(0.0985082 -0.000169988 0)
(0.0985991 -0.000159237 0)
(0.098686 -0.000149031 0)
(0.0987688 -0.000139346 0)
(0.0988478 -0.000130168 0)
(0.098923 -0.000121483 0)
(0.0989946 -0.000113278 0)
(0.0990626 -0.000105537 0)
(0.0991273 -9.82421e-05 0)
(0.0991886 -9.13757e-05 0)
(0.0992468 -8.49183e-05 0)
(0.099302 -7.88503e-05 0)
(0.0993542 -7.31523e-05 0)
(0.0994036 -6.78052e-05 0)
(0.0994503 -6.27904e-05 0)
(0.0994944 -5.80903e-05 0)
(0.099536 -5.36876e-05 0)
(0.0995752 -4.95663e-05 0)
(0.099612 -4.57108e-05 0)
(0.0996467 -4.21064e-05 0)
(0.0996793 -3.87392e-05 0)
(0.0997099 -3.55959e-05 0)
(0.0997385 -3.26642e-05 0)
(0.0997652 -2.99322e-05 0)
(0.0997903 -2.7389e-05 0)
(0.0998136 -2.5024e-05 0)
(0.0998353 -2.2827e-05 0)
(0.0998555 -2.07884e-05 0)
(0.0998743 -1.88989e-05 0)
(0.0998916 -1.71498e-05 0)
(0.0999077 -1.55328e-05 0)
(0.0999225 -1.40406e-05 0)
(0.0999362 -1.26661e-05 0)
(0.0999488 -1.14027e-05 0)
(0.0999603 -1.02436e-05 0)
(0.0999708 -9.18282e-06 0)
(0.0999805 -8.21366e-06 0)
(0.0999892 -7.33072e-06 0)
(0.0999972 -6.52764e-06 0)
(0.100004 -5.80084e-06 0)
(0.100011 -5.14333e-06 0)
(0.100017 -4.55504e-06 0)
(0.100022 -4.02527e-06 0)
(0.100027 -3.56106e-06 0)
(0.100032 -3.142e-06 0)
(0.100035 -2.79098e-06 0)
(0.100039 -2.466e-06 0)
(0.100042 -2.22273e-06 0)
(0.100046 -1.97567e-06 0)
(0.100047 -1.84149e-06 0)
(0.100052 -1.65645e-06 0)
(0.100051 -1.63916e-06 0)
(0.100057 -1.50144e-06 0)
(0.100055 -1.61252e-06 0)
(0.100064 -1.51644e-06 0)
(0.100059 -1.76658e-06 0)
(0.100071 -1.72757e-06 0)
(0.100063 -2.11258e-06 0)
(0.10008 -2.18298e-06 0)
(0.100069 -2.67594e-06 0)
(0.10009 -2.93514e-06 0)
(0.100078 -3.5443e-06 0)
(0.100105 -3.98792e-06 0)
(0.100092 -4.82001e-06 0)
(0.100124 -5.67081e-06 0)
(0.100114 -5.74661e-06 0)
(0.100148 -8.75754e-06 0)
(0.100147 -7.64784e-06 0)
(0.100183 -9.28809e-06 0)
(0.0983188 -0.000236073 0)
(0.0984181 -0.000221404 0)
(0.098513 -0.000207542 0)
(0.0986036 -0.000194401 0)
(0.0986902 -0.000181932 0)
(0.0987727 -0.000170104 0)
(0.0988514 -0.000158899 0)
(0.0989264 -0.000148298 0)
(0.0989977 -0.000138283 0)
(0.0990655 -0.000128836 0)
(0.0991299 -0.000119934 0)
(0.099191 -0.000111555 0)
(0.099249 -0.000103675 0)
(0.099304 -9.62699e-05 0)
(0.099356 -8.93162e-05 0)
(0.0994053 -8.27905e-05 0)
(0.0994518 -7.66702e-05 0)
(0.0994958 -7.09335e-05 0)
(0.0995372 -6.55598e-05 0)
(0.0995763 -6.05292e-05 0)
(0.0996131 -5.58228e-05 0)
(0.0996477 -5.14228e-05 0)
(0.0996802 -4.73121e-05 0)
(0.0997106 -4.34746e-05 0)
(0.0997392 -3.98952e-05 0)
(0.0997659 -3.65596e-05 0)
(0.0997908 -3.34543e-05 0)
(0.0998141 -3.05664e-05 0)
(0.0998358 -2.78836e-05 0)
(0.0998559 -2.5394e-05 0)
(0.0998747 -2.30865e-05 0)
(0.099892 -2.09505e-05 0)
(0.099908 -1.8976e-05 0)
(0.0999228 -1.71537e-05 0)
(0.0999364 -1.54751e-05 0)
(0.099949 -1.3932e-05 0)
(0.0999605 -1.25162e-05 0)
(0.099971 -1.12203e-05 0)
(0.0999806 -1.00362e-05 0)
(0.0999894 -8.95755e-06 0)
(0.0999974 -7.97647e-06 0)
(0.100005 -7.08867e-06 0)
(0.100011 -6.28551e-06 0)
(0.100017 -5.56691e-06 0)
(0.100022 -4.9197e-06 0)
(0.100027 -4.35262e-06 0)
(0.100032 -3.84059e-06 0)
(0.100035 -3.4119e-06 0)
(0.100039 -3.01484e-06 0)
(0.100042 -2.7179e-06 0)
(0.100046 -2.4159e-06 0)
(0.100047 -2.25229e-06 0)
(0.100052 -2.02572e-06 0)
(0.100051 -2.00493e-06 0)
(0.100057 -1.83587e-06 0)
(0.100055 -1.97218e-06 0)
(0.100064 -1.85369e-06 0)
(0.100059 -2.1601e-06 0)
(0.100071 -2.11111e-06 0)
(0.100063 -2.58245e-06 0)
(0.10008 -2.66723e-06 0)
(0.100069 -3.26963e-06 0)
(0.10009 -3.58854e-06 0)
(0.100078 -4.3249e-06 0)
(0.100105 -4.88606e-06 0)
(0.100092 -5.86942e-06 0)
(0.100124 -6.94993e-06 0)
(0.100114 -7.02948e-06 0)
(0.100148 -1.06605e-05 0)
(0.100147 -9.38759e-06 0)
(0.100183 -1.13769e-05 0)
(0.0983253 -0.00027871 0)
(0.0984242 -0.000261354 0)
(0.0985188 -0.000244962 0)
(0.098609 -0.000229431 0)
(0.0986952 -0.000214702 0)
(0.0987774 -0.000200738 0)
(0.0988557 -0.000187512 0)
(0.0989304 -0.000175003 0)
(0.0990013 -0.000163188 0)
(0.0990688 -0.000152043 0)
(0.099133 -0.000141542 0)
(0.0991939 -0.000131658 0)
(0.0992516 -0.000122362 0)
(0.0993064 -0.000113626 0)
(0.0993582 -0.000105423 0)
(0.0994073 -9.77242e-05 0)
(0.0994536 -9.05033e-05 0)
(0.0994974 -8.37348e-05 0)
(0.0995388 -7.73941e-05 0)
(0.0995777 -7.14579e-05 0)
(0.0996144 -6.59041e-05 0)
(0.0996488 -6.07114e-05 0)
(0.0996812 -5.586e-05 0)
(0.0997116 -5.13308e-05 0)
(0.0997401 -4.71061e-05 0)
(0.0997667 -4.31689e-05 0)
(0.0997916 -3.95033e-05 0)
(0.0998148 -3.60941e-05 0)
(0.0998364 -3.29269e-05 0)
(0.0998565 -2.99878e-05 0)
(0.0998751 -2.72636e-05 0)
(0.0998924 -2.47418e-05 0)
(0.0999084 -2.24107e-05 0)
(0.0999232 -2.02593e-05 0)
(0.0999368 -1.82775e-05 0)
(0.0999493 -1.64554e-05 0)
(0.0999607 -1.47835e-05 0)
(0.0999712 -1.3253e-05 0)
(0.0999808 -1.18547e-05 0)
(0.0999896 -1.05807e-05 0)
(0.0999975 -9.4221e-06 0)
(0.100005 -8.37367e-06 0)
(0.100011 -7.42522e-06 0)
(0.100017 -6.57659e-06 0)
(0.100023 -5.81227e-06 0)
(0.100027 -5.14249e-06 0)
(0.100032 -4.53783e-06 0)
(0.100035 -4.0315e-06 0)
(0.100039 -3.56273e-06 0)
(0.100042 -3.21198e-06 0)
(0.100046 -2.85554e-06 0)
(0.100047 -2.66209e-06 0)
(0.100052 -2.39469e-06 0)
(0.100051 -2.36971e-06 0)
(0.100057 -2.17028e-06 0)
(0.100055 -2.3308e-06 0)
(0.100064 -2.19108e-06 0)
(0.100059 -2.55257e-06 0)
(0.100071 -2.49482e-06 0)
(0.100063 -3.05126e-06 0)
(0.10008 -3.15162e-06 0)
(0.100069 -3.86191e-06 0)
(0.10009 -4.2431e-06 0)
(0.100078 -5.10115e-06 0)
(0.100104 -5.79125e-06 0)
(0.100093 -6.90654e-06 0)
(0.100123 -8.24004e-06 0)
(0.100114 -8.31519e-06 0)
(0.100148 -1.25414e-05 0)
(0.100146 -1.11491e-05 0)
(0.100184 -1.3482e-05 0)
(0.0983331 -0.000322209 0)
(0.0984316 -0.000302097 0)
(0.0985257 -0.000283112 0)
(0.0986155 -0.000265138 0)
(0.0987012 -0.0002481 0)
(0.098783 -0.000231955 0)
(0.0988609 -0.00021667 0)
(0.0989351 -0.000202217 0)
(0.0990057 -0.000188568 0)
(0.0990729 -0.000175695 0)
(0.0991367 -0.000163566 0)
(0.0991973 -0.000152149 0)
(0.0992547 -0.000141413 0)
(0.0993092 -0.000131323 0)
(0.0993608 -0.000121847 0)
(0.0994097 -0.000112954 0)
(0.0994558 -0.000104612 0)
(0.0994994 -9.67922e-05 0)
(0.0995406 -8.94664e-05 0)
(0.0995794 -8.26074e-05 0)
(0.0996159 -7.61898e-05 0)
(0.0996502 -7.01893e-05 0)
(0.0996825 -6.45827e-05 0)
(0.0997127 -5.93482e-05 0)
(0.0997411 -5.44654e-05 0)
(0.0997676 -4.99146e-05 0)
(0.0997924 -4.56775e-05 0)
(0.0998155 -4.17367e-05 0)
(0.0998371 -3.80753e-05 0)
(0.0998571 -3.46775e-05 0)
(0.0998757 -3.1528e-05 0)
(0.0998929 -2.86125e-05 0)
(0.0999088 -2.59175e-05 0)
(0.0999236 -2.34302e-05 0)
(0.0999371 -2.11388e-05 0)
(0.0999496 -1.9032e-05 0)
(0.099961 -1.70988e-05 0)
(0.0999715 -1.53288e-05 0)
(0.099981 -1.37117e-05 0)
(0.0999897 -1.22383e-05 0)
(0.0999977 -1.08985e-05 0)
(0.100005 -9.68597e-06 0)
(0.100011 -8.58928e-06 0)
(0.100017 -7.60773e-06 0)
(0.100023 -6.72405e-06 0)
(0.100027 -5.94907e-06 0)
(0.100032 -5.25033e-06 0)
(0.100035 -4.66398e-06 0)
(0.100039 -4.12306e-06 0)
(0.100042 -3.71589e-06 0)
(0.100046 -3.30584e-06 0)
(0.100047 -3.07934e-06 0)
(0.100052 -2.77357e-06 0)
(0.100051 -2.74024e-06 0)
(0.100057 -2.51471e-06 0)
(0.100055 -2.69435e-06 0)
(0.100064 -2.53933e-06 0)
(0.100059 -2.95032e-06 0)
(0.100071 -2.89073e-06 0)
(0.100063 -3.52719e-06 0)
(0.10008 -3.65031e-06 0)
(0.100069 -4.46437e-06 0)
(0.10009 -4.91652e-06 0)
(0.100078 -5.8894e-06 0)
(0.100104 -6.72728e-06 0)
(0.100093 -7.95335e-06 0)
(0.100123 -9.57471e-06 0)
(0.100114 -9.63302e-06 0)
(0.100148 -1.4445e-05 0)
(0.100146 -1.29737e-05 0)
(0.100184 -1.56605e-05 0)
(0.0983423 -0.000366517 0)
(0.0984403 -0.000343581 0)
(0.0985339 -0.000321944 0)
(0.0986231 -0.000301472 0)
(0.0987083 -0.000282081 0)
(0.0987896 -0.000263714 0)
(0.098867 -0.000246334 0)
(0.0989407 -0.000229904 0)
(0.0990109 -0.000214391 0)
(0.0990776 -0.000199762 0)
(0.099141 -0.000185979 0)
(0.0992013 -0.000173006 0)
(0.0992584 -0.000160806 0)
(0.0993126 -0.000149339 0)
(0.0993639 -0.00013857 0)
(0.0994125 -0.000128463 0)
(0.0994584 -0.000118981 0)
(0.0995018 -0.000110092 0)
(0.0995427 -0.000101764 0)
(0.0995813 -9.39667e-05 0)
(0.0996176 -8.66702e-05 0)
(0.0996518 -7.98474e-05 0)
(0.0996839 -7.34721e-05 0)
(0.0997141 -6.75196e-05 0)
(0.0997423 -6.19665e-05 0)
(0.0997687 -5.67909e-05 0)
(0.0997934 -5.19717e-05 0)
(0.0998164 -4.74892e-05 0)
(0.0998379 -4.33244e-05 0)
(0.0998578 -3.94591e-05 0)
(0.0998763 -3.58763e-05 0)
(0.0998935 -3.25596e-05 0)
(0.0999094 -2.94936e-05 0)
(0.099924 -2.6664e-05 0)
(0.0999375 -2.4057e-05 0)
(0.0999499 -2.16599e-05 0)
(0.0999613 -1.94601e-05 0)
(0.0999718 -1.74461e-05 0)
(0.0999813 -1.56058e-05 0)
(0.09999 -1.39291e-05 0)
(0.0999979 -1.24045e-05 0)
(0.100005 -1.10246e-05 0)
(0.100012 -9.77681e-06 0)
(0.100017 -8.65955e-06 0)
(0.100023 -7.65439e-06 0)
(0.100027 -6.77173e-06 0)
(0.100032 -5.97761e-06 0)
(0.100035 -5.30883e-06 0)
(0.100039 -4.69545e-06 0)
(0.100042 -4.22918e-06 0)
(0.100046 -3.76657e-06 0)
(0.100047 -3.50362e-06 0)
(0.100052 -3.16222e-06 0)
(0.100051 -3.1161e-06 0)
(0.100057 -2.86915e-06 0)
(0.100055 -3.06237e-06 0)
(0.100064 -2.89849e-06 0)
(0.100059 -3.35286e-06 0)
(0.100071 -3.2989e-06 0)
(0.100063 -4.00975e-06 0)
(0.10008 -4.16334e-06 0)
(0.100069 -5.07649e-06 0)
(0.10009 -5.60894e-06 0)
(0.100078 -6.6886e-06 0)
(0.100104 -7.69533e-06 0)
(0.100093 -9.00734e-06 0)
(0.100123 -1.09559e-05 0)
(0.100115 -1.09832e-05 0)
(0.100147 -1.63676e-05 0)
(0.100146 -1.48655e-05 0)
(0.100184 -1.79163e-05 0)
(0.0983529 -0.00041057 0)
(0.0984502 -0.000384811 0)
(0.0985431 -0.000360528 0)
(0.0986318 -0.000337567 0)
(0.0987163 -0.000315832 0)
(0.098797 -0.000295258 0)
(0.0988738 -0.000275796 0)
(0.098947 -0.000257404 0)
(0.0990167 -0.000240043 0)
(0.099083 -0.000223672 0)
(0.099146 -0.000208249 0)
(0.0992058 -0.000193733 0)
(0.0992625 -0.00018008 0)
(0.0993164 -0.000167249 0)
(0.0993674 -0.000155197 0)
(0.0994156 -0.000143884 0)
(0.0994613 -0.000133271 0)
(0.0995044 -0.000123321 0)
(0.0995451 -0.000113998 0)
(0.0995835 -0.000105268 0)
(0.0996197 -9.7098e-05 0)
(0.0996537 -8.9458e-05 0)
(0.0996856 -8.23187e-05 0)
(0.0997156 -7.56524e-05 0)
(0.0997437 -6.9433e-05 0)
(0.09977 -6.3636e-05 0)
(0.0997945 -5.82379e-05 0)
(0.0998174 -5.32165e-05 0)
(0.0998388 -4.85507e-05 0)
(0.0998586 -4.42204e-05 0)
(0.0998771 -4.02063e-05 0)
(0.0998942 -3.64903e-05 0)
(0.09991 -3.30551e-05 0)
(0.0999246 -2.98846e-05 0)
(0.099938 -2.69635e-05 0)
(0.0999504 -2.42773e-05 0)
(0.0999617 -2.18122e-05 0)
(0.0999721 -1.9555e-05 0)
(0.0999816 -1.74926e-05 0)
(0.0999902 -1.56134e-05 0)
(0.0999981 -1.39047e-05 0)
(0.100005 -1.23581e-05 0)
(0.100012 -1.09599e-05 0)
(0.100018 -9.70743e-06 0)
(0.100023 -8.58131e-06 0)
(0.100028 -7.59136e-06 0)
(0.100032 -6.70231e-06 0)
(0.100036 -5.95131e-06 0)
(0.10004 -5.26595e-06 0)
(0.100042 -4.74055e-06 0)
(0.100046 -4.22593e-06 0)
(0.100047 -3.92624e-06 0)
(0.100052 -3.54995e-06 0)
(0.100051 -3.4904e-06 0)
(0.100057 -3.22299e-06 0)
(0.100055 -3.42886e-06 0)
(0.100064 -3.25724e-06 0)
(0.100059 -3.75389e-06 0)
(0.100071 -3.70664e-06 0)
(0.100063 -4.49078e-06 0)
(0.100079 -4.67582e-06 0)
(0.100069 -5.68657e-06 0)
(0.10009 -6.30216e-06 0)
(0.100078 -7.48172e-06 0)
(0.100104 -8.67202e-06 0)
(0.100093 -1.00447e-05 0)
(0.100122 -1.23509e-05 0)
(0.100115 -1.23369e-05 0)
(0.100147 -1.82607e-05 0)
(0.100146 -1.67868e-05 0)
(0.100184 -2.01943e-05 0)
(0.0983646 -0.00045432 0)
(0.0984612 -0.000425746 0)
(0.0985534 -0.000398825 0)
(0.0986414 -0.000373387 0)
(0.0987252 -0.000349323 0)
(0.0988052 -0.000326557 0)
(0.0988815 -0.000305031 0)
(0.0989541 -0.000284695 0)
(0.0990232 -0.000265502 0)
(0.0990889 -0.000247406 0)
(0.0991514 -0.000230359 0)
(0.0992108 -0.000214314 0)
(0.0992671 -0.000199222 0)
(0.0993206 -0.000185038 0)
(0.0993712 -0.000171714 0)
(0.0994192 -0.000159207 0)
(0.0994645 -0.000147472 0)
(0.0995074 -0.00013647 0)
(0.0995478 -0.000126159 0)
(0.099586 -0.000116503 0)
(0.0996219 -0.000107467 0)
(0.0996557 -9.90155e-05 0)
(0.0996875 -9.11173e-05 0)
(0.0997173 -8.37419e-05 0)
(0.0997452 -7.68605e-05 0)
(0.0997713 -7.04459e-05 0)
(0.0997958 -6.44724e-05 0)
(0.0998186 -5.89153e-05 0)
(0.0998398 -5.37515e-05 0)
(0.0998596 -4.89587e-05 0)
(0.0998779 -4.45157e-05 0)
(0.0998949 -4.04025e-05 0)
(0.0999106 -3.66e-05 0)
(0.0999251 -3.30904e-05 0)
(0.0999385 -2.98567e-05 0)
(0.0999508 -2.6883e-05 0)
(0.0999621 -2.41538e-05 0)
(0.0999725 -2.16547e-05 0)
(0.0999819 -1.93711e-05 0)
(0.0999905 -1.72904e-05 0)
(0.0999983 -1.53985e-05 0)
(0.100005 -1.36859e-05 0)
(0.100012 -1.21379e-05 0)
(0.100018 -1.07508e-05 0)
(0.100023 -9.50429e-06 0)
(0.100028 -8.40755e-06 0)
(0.100032 -7.42395e-06 0)
(0.100036 -6.59116e-06 0)
(0.10004 -5.83403e-06 0)
(0.100042 -5.24992e-06 0)
(0.100046 -4.68334e-06 0)
(0.100047 -4.34735e-06 0)
(0.100052 -3.93599e-06 0)
(0.100051 -3.86357e-06 0)
(0.100057 -3.57527e-06 0)
(0.100055 -3.7945e-06 0)
(0.100064 -3.6144e-06 0)
(0.100059 -4.15424e-06 0)
(0.100071 -4.11263e-06 0)
(0.100063 -4.97115e-06 0)
(0.100079 -5.18653e-06 0)
(0.100069 -6.29527e-06 0)
(0.10009 -6.99514e-06 0)
(0.100078 -8.26913e-06 0)
(0.100104 -9.65653e-06 0)
(0.100093 -1.10655e-05 0)
(0.100122 -1.37592e-05 0)
(0.100115 -1.36944e-05 0)
(0.100146 -2.01237e-05 0)
(0.100146 -1.87391e-05 0)
(0.100184 -2.24936e-05 0)
(0.0983777 -0.000497717 0)
(0.0984735 -0.000466341 0)
(0.0985648 -0.000436796 0)
(0.098652 -0.000408898 0)
(0.0987351 -0.000382524 0)
(0.0988143 -0.000357585 0)
(0.0988898 -0.000334014 0)
(0.0989618 -0.000311754 0)
(0.0990303 -0.000290749 0)
(0.0990955 -0.000270946 0)
(0.0991574 -0.000252292 0)
(0.0992163 -0.000234734 0)
(0.0992722 -0.000218219 0)
(0.0993252 -0.000202695 0)
(0.0993755 -0.000188112 0)
(0.0994231 -0.000174421 0)
(0.0994681 -0.000161575 0)
(0.0995106 -0.000149529 0)
(0.0995508 -0.00013824 0)
(0.0995887 -0.000127667 0)
(0.0996244 -0.00011777 0)
(0.0996579 -0.000108514 0)
(0.0996895 -9.98628e-05 0)
(0.0997191 -9.17835e-05 0)
(0.0997469 -8.42448e-05 0)
(0.0997729 -7.72169e-05 0)
(0.0997971 -7.06718e-05 0)
(0.0998198 -6.45826e-05 0)
(0.0998409 -5.89239e-05 0)
(0.0998606 -5.36715e-05 0)
(0.0998788 -4.88022e-05 0)
(0.0998957 -4.42941e-05 0)
(0.0999113 -4.01264e-05 0)
(0.0999258 -3.62796e-05 0)
(0.0999391 -3.27351e-05 0)
(0.0999513 -2.94754e-05 0)
(0.0999626 -2.64836e-05 0)
(0.0999728 -2.37438e-05 0)
(0.0999822 -2.12403e-05 0)
(0.0999908 -1.8959e-05 0)
(0.0999986 -1.68848e-05 0)
(0.100006 -1.50072e-05 0)
(0.100012 -1.33101e-05 0)
(0.100018 -1.17892e-05 0)
(0.100023 -1.04228e-05 0)
(0.100028 -9.21982e-06 0)
(0.100032 -8.14212e-06 0)
(0.100036 -7.22799e-06 0)
(0.10004 -6.39939e-06 0)
(0.100042 -5.75695e-06 0)
(0.100046 -5.13855e-06 0)
(0.100047 -4.76663e-06 0)
(0.100052 -4.32016e-06 0)
(0.100051 -4.23529e-06 0)
(0.100057 -3.92584e-06 0)
(0.100055 -4.15897e-06 0)
(0.100064 -3.96986e-06 0)
(0.100058 -4.55359e-06 0)
(0.100071 -4.51676e-06 0)
(0.100063 -5.45052e-06 0)
(0.100079 -5.69526e-06 0)
(0.100069 -6.90229e-06 0)
(0.10009 -7.68756e-06 0)
(0.100078 -9.05063e-06 0)
(0.100104 -1.06483e-05 0)
(0.100093 -1.20699e-05 0)
(0.100121 -1.51798e-05 0)
(0.100116 -1.50551e-05 0)
(0.100146 -2.19576e-05 0)
(0.100145 -2.07218e-05 0)
(0.100184 -2.48145e-05 0)
(0.0983921 -0.000540706 0)
(0.0984869 -0.000506548 0)
(0.0985773 -0.000474401 0)
(0.0986635 -0.000444065 0)
(0.0987458 -0.000415402 0)
(0.0988242 -0.000388314 0)
(0.098899 -0.000362721 0)
(0.0989702 -0.000338558 0)
(0.0990381 -0.000315762 0)
(0.0991026 -0.000294273 0)
(0.099164 -0.000274031 0)
(0.0992223 -0.000254978 0)
(0.0992777 -0.000237055 0)
(0.0993303 -0.000220207 0)
(0.0993801 -0.000204379 0)
(0.0994273 -0.000189517 0)
(0.099472 -0.000175571 0)
(0.0995142 -0.000162492 0)
(0.099554 -0.000150233 0)
(0.0995916 -0.000138751 0)
(0.0996271 -0.000128002 0)
(0.0996604 -0.000117948 0)
(0.0996917 -0.00010855 0)
(0.0997211 -9.97724e-05 0)
(0.0997487 -9.15815e-05 0)
(0.0997745 -8.3945e-05 0)
(0.0997987 -7.68326e-05 0)
(0.0998212 -7.02151e-05 0)
(0.0998422 -6.4065e-05 0)
(0.0998617 -5.83561e-05 0)
(0.0998798 -5.30633e-05 0)
(0.0998966 -4.81629e-05 0)
(0.0999121 -4.36324e-05 0)
(0.0999265 -3.94506e-05 0)
(0.0999397 -3.55972e-05 0)
(0.0999519 -3.20532e-05 0)
(0.099963 -2.88003e-05 0)
(0.0999733 -2.58213e-05 0)
(0.0999826 -2.30991e-05 0)
(0.0999911 -2.06185e-05 0)
(0.0999989 -1.83631e-05 0)
(0.100006 -1.63212e-05 0)
(0.100012 -1.44759e-05 0)
(0.100018 -1.28218e-05 0)
(0.100023 -1.13363e-05 0)
(0.100028 -1.00277e-05 0)
(0.100032 -8.85638e-06 0)
(0.100036 -7.86139e-06 0)
(0.10004 -6.96167e-06 0)
(0.100042 -6.26129e-06 0)
(0.100046 -5.59129e-06 0)
(0.100047 -5.18376e-06 0)
(0.100052 -4.70226e-06 0)
(0.100051 -4.60524e-06 0)
(0.100057 -4.27456e-06 0)
(0.100055 -4.52193e-06 0)
(0.100063 -4.32349e-06 0)
(0.100058 -4.9516e-06 0)
(0.100071 -4.91887e-06 0)
(0.100063 -5.92855e-06 0)
(0.100079 -6.20178e-06 0)
(0.100068 -7.50734e-06 0)
(0.10009 -8.37901e-06 0)
(0.100078 -9.82613e-06 0)
(0.100103 -1.16463e-05 0)
(0.100093 -1.30584e-05 0)
(0.100121 -1.66119e-05 0)
(0.100116 -1.64185e-05 0)
(0.100146 -2.37642e-05 0)
(0.100145 -2.27332e-05 0)
(0.100184 -2.7157e-05 0)
(0.0984078 -0.000583232 0)
(0.0985014 -0.000546321 0)
(0.0985908 -0.000511599 0)
(0.0986761 -0.000478851 0)
(0.0987574 -0.000447927 0)
(0.098835 -0.000418716 0)
(0.0989089 -0.000391127 0)
(0.0989794 -0.000365087 0)
(0.0990465 -0.000340523 0)
(0.0991104 -0.00031737 0)
(0.0991711 -0.00029556 0)
(0.0992289 -0.000275031 0)
(0.0992837 -0.000255719 0)
(0.0993358 -0.000237563 0)
(0.0993852 -0.000220504 0)
(0.0994319 -0.000204485 0)
(0.0994762 -0.000189451 0)
(0.0995181 -0.000175349 0)
(0.0995576 -0.000162131 0)
(0.0995949 -0.000149748 0)
(0.09963 -0.000138156 0)
(0.0996631 -0.000127311 0)
(0.0996942 -0.000117173 0)
(0.0997234 -0.000107704 0)
(0.0997507 -9.88664e-05 0)
(0.0997764 -9.06265e-05 0)
(0.0998003 -8.29512e-05 0)
(0.0998227 -7.58096e-05 0)
(0.0998435 -6.91718e-05 0)
(0.0998629 -6.30099e-05 0)
(0.0998809 -5.72967e-05 0)
(0.0998976 -5.20069e-05 0)
(0.099913 -4.71161e-05 0)
(0.0999273 -4.26015e-05 0)
(0.0999404 -3.84413e-05 0)
(0.0999525 -3.4615e-05 0)
(0.0999636 -3.11027e-05 0)
(0.0999737 -2.7886e-05 0)
(0.099983 -2.49465e-05 0)
(0.0999915 -2.22678e-05 0)
(0.0999992 -1.98322e-05 0)
(0.100006 -1.76272e-05 0)
(0.100012 -1.56346e-05 0)
(0.100018 -1.38482e-05 0)
(0.100023 -1.22442e-05 0)
(0.100028 -1.08306e-05 0)
(0.100032 -9.56628e-06 0)
(0.100036 -8.49094e-06 0)
(0.10004 -7.52051e-06 0)
(0.100042 -6.76259e-06 0)
(0.100046 -6.04125e-06 0)
(0.100047 -5.59844e-06 0)
(0.100052 -5.08202e-06 0)
(0.100051 -4.97316e-06 0)
(0.100057 -4.62116e-06 0)
(0.100055 -4.88314e-06 0)
(0.100063 -4.67502e-06 0)
(0.100058 -5.34801e-06 0)
(0.10007 -5.31869e-06 0)
(0.100062 -6.40499e-06 0)
(0.100079 -6.70575e-06 0)
(0.100068 -8.11021e-06 0)
(0.10009 -9.06893e-06 0)
(0.100078 -1.05957e-05 0)
(0.100103 -1.26495e-05 0)
(0.100093 -1.40318e-05 0)
(0.10012 -1.80538e-05 0)
(0.100116 -1.77839e-05 0)
(0.100145 -2.55456e-05 0)
(0.100145 -2.47715e-05 0)
(0.100184 -2.95207e-05 0)
(0.0984247 -0.000625238 0)
(0.0985172 -0.000585611 0)
(0.0986054 -0.000548348 0)
(0.0986896 -0.000513222 0)
(0.0987699 -0.000480068 0)
(0.0988465 -0.000448763 0)
(0.0989196 -0.000419208 0)
(0.0989892 -0.000391317 0)
(0.0990555 -0.000365012 0)
(0.0991187 -0.000340218 0)
(0.0991788 -0.000316864 0)
(0.0992359 -0.000294879 0)
(0.0992902 -0.000274196 0)
(0.0993417 -0.000254749 0)
(0.0993906 -0.000236475 0)
(0.0994369 -0.000219313 0)
(0.0994808 -0.000203204 0)
(0.0995222 -0.000188093 0)
(0.0995614 -0.000173926 0)
(0.0995983 -0.000160653 0)
(0.0996332 -0.000148226 0)
(0.099666 -0.000136599 0)
(0.0996968 -0.000125728 0)
(0.0997258 -0.000115573 0)
(0.0997529 -0.000106095 0)
(0.0997783 -9.72573e-05 0)
(0.0998021 -8.90243e-05 0)
(0.0998243 -8.13629e-05 0)
(0.0998449 -7.42417e-05 0)
(0.0998642 -6.76303e-05 0)
(0.099882 -6.15001e-05 0)
(0.0998986 -5.58238e-05 0)
(0.0999139 -5.05755e-05 0)
(0.0999281 -4.57307e-05 0)
(0.0999411 -4.12659e-05 0)
(0.0999531 -3.71592e-05 0)
(0.0999641 -3.33895e-05 0)
(0.0999742 -2.99368e-05 0)
(0.0999834 -2.67815e-05 0)
(0.0999918 -2.39059e-05 0)
(0.0999995 -2.12915e-05 0)
(0.100006 -1.89245e-05 0)
(0.100013 -1.67855e-05 0)
(0.100018 -1.48677e-05 0)
(0.100024 -1.31459e-05 0)
(0.100028 -1.16281e-05 0)
(0.100032 -1.02713e-05 0)
(0.100036 -9.11621e-06 0)
(0.10004 -8.07551e-06 0)
(0.100042 -7.26049e-06 0)
(0.100046 -6.48809e-06 0)
(0.100047 -6.01036e-06 0)
(0.100052 -5.45913e-06 0)
(0.100051 -5.33877e-06 0)
(0.100057 -4.96537e-06 0)
(0.100055 -5.24235e-06 0)
(0.100063 -5.02417e-06 0)
(0.100058 -5.74259e-06 0)
(0.10007 -5.71587e-06 0)
(0.100062 -6.87963e-06 0)
(0.100079 -7.20676e-06 0)
(0.100068 -8.71072e-06 0)
(0.10009 -9.75668e-06 0)
(0.100077 -1.13595e-05 0)
(0.100103 -1.36564e-05 0)
(0.100092 -1.49912e-05 0)
(0.10012 -1.95038e-05 0)
(0.100116 -1.91503e-05 0)
(0.100145 -2.73047e-05 0)
(0.100144 -2.68341e-05 0)
(0.100184 -3.19048e-05 0)
(0.0984429 -0.000666667 0)
(0.0985341 -0.000624369 0)
(0.0986211 -0.000584608 0)
(0.0987041 -0.000547141 0)
(0.0987833 -0.000511793 0)
(0.0988589 -0.000478429 0)
(0.098931 -0.000446939 0)
(0.0989997 -0.000417227 0)
(0.0990652 -0.000389209 0)
(0.0991276 -0.000362801 0)
(0.099187 -0.000337925 0)
(0.0992435 -0.000314507 0)
(0.0992971 -0.000292474 0)
(0.0993481 -0.000271755 0)
(0.0993964 -0.000252283 0)
(0.0994423 -0.000233993 0)
(0.0994857 -0.000216824 0)
(0.0995267 -0.000200715 0)
(0.0995655 -0.000185611 0)
(0.0996021 -0.000171459 0)
(0.0996366 -0.000158206 0)
(0.0996691 -0.000145805 0)
(0.0996996 -0.000134209 0)
(0.0997283 -0.000123376 0)
(0.0997552 -0.000113264 0)
(0.0997804 -0.000103834 0)
(0.099804 -9.50482e-05 0)
(0.099826 -8.6872e-05 0)
(0.0998465 -7.92715e-05 0)
(0.0998656 -7.22147e-05 0)
(0.0998833 -6.56711e-05 0)
(0.0998997 -5.96116e-05 0)
(0.0999149 -5.40087e-05 0)
(0.099929 -4.88363e-05 0)
(0.0999419 -4.40694e-05 0)
(0.0999538 -3.96846e-05 0)