/*--------------------------------*- C++ -*----------------------------------*\
| =========                 |                                                 |
| \\      /  F ield         | OpenFOAM: The Open Source CFD Toolbox           |
|  \\    /   O peration     | Version:  2412                                  |
|   \\  /    A nd           | Website:  www.openfoam.com                      |
|    \\/     M anipulation  |                                                 |
\*---------------------------------------------------------------------------*/
FoamFile
{
    version     2.0;
    format      ascii;
    arch        "LSB;label=32;scalar=64";
    class       surfaceScalarField;
    location    "2.5";
    object      phi;
}
// * * * * * * * * * * * * * * * * * * * * * * * * * * * * * * * * * * * * * //

dimensions      [0 3 -1 0 0 0 0];

oriented        oriented;

internalField   nonuniform List<scalar> 
10423
(
-0.00013147
-0.00580635
0.00577363
-0.000121631
-0.00578347
0.00576238
-0.000146285
0.00574983
-0.000170363
0.00573612
-0.000192678
0.00572136
-0.000212355
0.00570572
-0.000229073
0.00568935
-0.000243052
0.00567239
-0.000254807
0.005655
-0.000264878
0.00563733
-0.000273662
0.00561949
-0.000281376
0.00560163
-0.000288095
0.00558385
-0.00029382
0.00556625
-0.000298531
0.00554892
-0.000302217
0.00553194
-0.000304892
0.00551539
-0.000306589
0.00549932
-0.000307357
0.00548377
-0.000307257
0.00546879
-0.000306356
0.00545441
-0.000304721
0.00544064
-0.00030242
-0.000299523
0.00575332
-0.000112784
-0.00576217
0.00574317
-0.000136129
0.0057318
-0.000159
0.00571934
-0.000180214
0.00570589
-0.000198904
0.00569158
-0.000214766
0.00567656
-0.000228028
0.00566096
-0.000239206
0.00564492
-0.000248837
0.00562857
-0.000257312
0.00561203
-0.000264838
0.00559541
-0.000271482
0.00557883
-0.000277238
0.00556238
-0.000282074
0.00554613
-0.000285972
0.00553017
-0.000288934
0.00551457
-0.000290984
0.00549937
-0.000292162
0.00548463
-0.000292519
0.00547039
-0.000292112
0.00545667
-0.000291003
0.0054435
-0.000289251
-0.000286918
0.00573436
-0.00010483
-0.00574232
0.0057252
-0.000126961
0.0057149
-0.000148701
0.00570355
-0.000168872
0.00569127
-0.000186621
0.00567816
-0.000201658
0.00566436
-0.00021422
0.00564998
-0.000224828
0.00563515
-0.000234014
0.00562001
-0.000242163
0.00560464
-0.000249477
0.00558918
-0.000256015
0.0055737
-0.00026176
0.0055583
-0.000266676
0.00554306
-0.000270733
0.00552805
-0.000273926
0.00551334
-0.00027627
0.00549898
-0.000277796
0.005485
-0.000278548
0.00547147
-0.000278574
0.00545839
-0.000277928
0.0054458
-0.000276665
-0.000274837
0.00571666
-9.76911e-05
-0.00572379
0.00570838
-0.000118687
0.00569904
-0.000139361
0.00568871
-0.00015854
0.00567748
-0.000175387
0.00566544
-0.000189626
0.00565273
-0.000201506
0.00563945
-0.00021155
0.00562573
-0.000220289
0.00561167
-0.000228104
0.00559738
-0.000235188
0.00558296
-0.000241594
0.00556849
-0.000247298
0.00555407
-0.000252254
0.00553977
-0.000256428
0.00552565
-0.000259805
0.00551177
-0.000262393
0.00549819
-0.000264214
0.00548495
-0.000265306
0.00547208
-0.00026571
0.00545963
-0.000265473
0.0054476
-0.000264642
-0.000263267
0.00570011
-9.13e-05
-0.0057065
0.00569266
-0.00011123
0.00568418
-0.000130891
0.00567476
-0.000149119
0.00566447
-0.000165094
0.0056534
-0.000178558
0.00564167
-0.000189771
0.00562938
-0.00019926
0.00561664
-0.000207555
0.00560357
-0.000215029
0.00559025
-0.000221872
0.00557679
-0.000228128
0.00556325
-0.000233766
0.00554973
-0.000238734
0.00553629
-0.000242989
0.005523
-0.000246511
0.00550991
-0.000249299
0.00549706
-0.000251371
0.00548451
-0.000252756
0.00547229
-0.000253489
0.00546043
-0.000253611
0.00544895
-0.000253165
-0.000252194
0.00568466
-8.5606e-05
-0.00569035
0.00567795
-0.000104524
0.00567028
-0.000123212
0.00566168
-0.000140519
0.00565223
-0.000155645
0.00564202
-0.000168351
0.00563116
-0.000178911
0.00561975
-0.000187854
0.00560791
-0.000195707
0.00559572
-0.000202841
0.00558328
-0.000209437
0.00557069
-0.000215531
0.00555801
-0.000221086
0.00554532
-0.000226043
0.00553268
-0.000230353
0.00552016
-0.000233987
0.0055078
-0.000236941
0.00549565
-0.000239224
0.00548376
-0.00024086
0.00547215
-0.00024188
0.00546085
-0.000242318
0.0054499
-0.000242212
-0.000241602
0.00567024
-8.05722e-05
-0.00567527
0.00566423
-9.85179e-05
0.00565728
-0.000116258
0.00564942
-0.000132662
0.00564073
-0.000146951
0.00563128
-0.00015891
0.0056212
-0.000168825
0.00561058
-0.00017723
0.00559952
-0.00018465
0.00558813
-0.000191448
0.00557649
-0.000197796
0.00556468
-0.000203724
0.00555278
-0.000209186
0.00554085
-0.000214117
0.00552896
-0.000218459
0.00551715
-0.000222181
0.00550548
-0.00022527
0.00549399
-0.000227732
0.00548271
-0.000229584
0.00547169
-0.000230853
0.00546094
-0.000231569
0.00545049
-0.000231765
-0.000231476
0.00565679
-7.61754e-05
-0.00566119
0.00565145
-9.31703e-05
0.00564516
-0.000109971
0.00563797
-0.000125472
0.00562994
-0.000138925
0.00562117
-0.00015014
0.00561177
-0.000159417
0.00560183
-0.000167294
0.00559147
-0.000174292
0.00558079
-0.000180763
0.00556986
-0.00018687
0.00555877
-0.000192634
0.00554758
-0.000197999
0.00553636
-0.000202894
0.00552515
-0.000207255
0.00551402
-0.000211044
0.00550299
-0.000214244
0.00549212
-0.000216856
0.00548143
-0.000218895
0.00547095
-0.000220381
0.00546073
-0.00022134
0.00545076
-0.000221803
-0.0002218
0.00564429
-7.24058e-05
-0.00564806
0.00563957
-8.84508e-05
0.0056339
-0.000104299
0.0056273
-0.000118879
0.00561986
-0.000131482
0.00561167
-0.000141947
0.00560284
-0.00015059
0.0055935
-0.000157952
0.00558375
-0.000164543
0.00557369
-0.000170704
0.0055634
-0.000176584
0.00555296
-0.000182192
0.00554243
-0.000187464
0.00553185
-0.000192319
0.00552129
-0.000196689
0.00551078
-0.000200531
0.00550035
-0.000203823
0.00549006
-0.000206563
0.00547993
-0.000208761
0.00546998
-0.000210436
0.00546025
-0.000211609
0.00545075
-0.000212307
-0.000212559
0.00563268
-6.92632e-05
-0.00563582
0.00562857
-8.43353e-05
0.00562346
-9.9192e-05
0.00561739
-0.000112812
0.00561045
-0.000124536
0.00560274
-0.000134237
0.0055944
-0.00014225
0.00558556
-0.000149111
0.00557633
-0.000155319
0.00556683
-0.000161195
0.00555711
-0.000166871
0.00554726
-0.00017234
0.00553732
-0.000177527
0.00552735
-0.000182345
0.00551738
-0.000186719
0.00550745
-0.000190603
0.0054976
-0.000193971
0.00548785
-0.00019682
0.00547825
-0.000199155
0.0054688
-0.000200992
0.00545955
-0.000202352
0.0054505
-0.000203258
-0.000203735
0.00562193
-6.67504e-05
-0.00562444
0.00561839
-8.07997e-05
0.0056138
-9.46e-05
0.00560818
-0.000107198
0.00560165
-0.000117998
0.00559433
-0.000126917
0.00558638
-0.000134304
0.00557796
-0.000140688
0.00556918
-0.000146545
0.00556016
-0.000152171
0.00555096
-0.000157672
0.00554165
-0.000163025
0.00553226
-0.000168143
0.00552285
-0.00017293
0.00551343
-0.000177307
0.00550406
-0.000181225
0.00549474
-0.000184657
0.00548552
-0.000187597
0.00547641
-0.000190049
0.00546745
-0.000192027
0.00545864
-0.000193549
0.00545002
-0.000194637
-0.000195314
0.00561193
-6.48579e-05
-0.00561383
0.00560894
-7.78091e-05
0.00560481
-9.04631e-05
0.00559957
-0.000101959
0.00559335
-0.00011178
0.00558633
-0.000119897
0.00557869
-0.00012667
0.00557062
-0.000132611
0.00556223
-0.000138161
0.00555364
-0.00014358
0.00554491
-0.000148945
0.0055361
-0.000154211
0.00552723
-0.000159277
0.00551834
-0.000164041
0.00550946
-0.000168422
0.0055006
-0.000172369
0.0054918
-0.000175853
0.00548307
-0.000178869
0.00547444
-0.00018142
0.00546593
-0.000183518
0.00545757
-0.000185181
0.00544936
-0.000186427
-0.00018728
0.00560255
-6.35416e-05
-0.00560386
0.00560004
-7.53032e-05
0.00559629
-8.67073e-05
0.00559134
-9.70123e-05
0.00558536
-0.000105803
0.00557857
-0.000113106
0.00557119
-0.00011929
0.00556342
-0.000124833
0.00555539
-0.000130131
0.0055472
-0.000135395
0.00553892
-0.000140666
0.00553059
-0.000145874
0.00552222
-0.000150907
0.00551383
-0.000155657
0.00550545
-0.000160042
0.00549709
-0.00016401
0.00548878
-0.000167536
0.00548052
-0.000170613
0.00547235
-0.000173246
0.00546427
-0.000175445
0.00545632
-0.000177228
0.0054485
-0.000178612
-0.000179618
0.00559352
-6.26967e-05
-0.00559436
0.00559139
-7.31803e-05
0.00558793
-8.32406e-05
0.0055832
-9.22834e-05
0.00557741
-0.000100012
0.00557081
-0.000106512
0.00556367
-0.000112148
0.00555619
-0.000117353
0.00554852
-0.00012246
0.00554074
-0.000127621
0.00553292
-0.000132837
0.00552505
-0.000138013
0.00551717
-0.000143026
0.00550928
-0.000147765
0.00550139
-0.00015215
0.00549351
-0.000156131
0.00548566
-0.000159686
0.00547786
-0.00016281
0.00547012
-0.000165507
0.00546246
-0.00016779
0.00545491
-0.000169673
0.00544747
-0.000171175
-0.000172314
0.00558449
-6.21397e-05
-0.00558505
0.0055826
-7.12908e-05
0.00557932
-7.99573e-05
0.00557475
-8.77143e-05
0.00556913
-9.43928e-05
0.00556275
-0.000100135
0.00555589
-0.000105287
0.00554876
-0.000110222
0.00554149
-0.000115195
0.00553417
-0.000120298
0.00552682
-0.000125486
0.00551945
-0.000130643
0.00551206
-0.000135638
0.00550466
-0.000140361
0.00549724
-0.000144736
0.00548983
-0.000148718
0.00548243
-0.000152288
0.00547506
-0.000155442
0.00546774
-0.000158186
0.00546049
-0.000160534
0.00545332
-0.0001625
0.00544624
-0.000164101
-0.000165353
0.00557512
-6.1616e-05
-0.00557564
0.00557328
-6.94489e-05
0.00557007
-7.67529e-05
0.00556564
-8.32795e-05
0.00556023
-8.89852e-05
0.00555415
-9.40558e-05
0.00554767
-9.88075e-05
0.00554099
-0.000103539
0.00553422
-0.000108424
0.00552741
-0.000113492
0.00552059
-0.000118659
0.00551374
-0.000123792
0.00550686
-0.000128757
0.00549994
-0.000133448
0.005493
-0.000137796
0.00548604
-0.00014176
0.00547908
-0.000145326
0.00547213
-0.000148493
0.00546521
-0.000151267
0.00545834
-0.000153663
0.00545153
-0.000155693
0.00544481
-0.000157374
-0.000158723
0.0055652
-6.08452e-05
-0.00556597
0.00556322
-6.74678e-05
0.00556001
-7.35455e-05
0.00555572
-7.89931e-05
0.00555061
-8.3874e-05
0.00554496
-8.84003e-05
0.00553899
-9.2845e-05
0.00553288
-9.74284e-05
0.00552671
-0.000102249
0.0055205
-0.000107279
0.00551424
-0.000112406
0.00550794
-0.000117488
0.00550158
-0.000122394
0.00549515
-0.000127027
0.00548868
-0.000131321
0.00548217
-0.000135246
0.00547563
-0.000138787
0.00546908
-0.000141947
0.00546255
-0.000144734
0.00545605
-0.00014716
0.00544959
-0.000149238
0.0054432
-0.000150983
-0.000152411
0.00555481
-0.00555606
-5.95945e-05
0.00555255
-6.52084e-05
0.00554931
-7.02963e-05
0.00554521
-7.48996e-05
0.0055405
-7.91586e-05
0.00553539
-8.32912e-05
0.00553006
-8.75199e-05
0.00552463
-9.1993e-05
0.00551912
-9.67451e-05
0.00551355
-0.000101709
0.0055079
-0.000106755
0.00550216
-0.000111744
0.00549632
-0.000116552
0.00549038
-0.00012109
0.00548436
-0.000125302
0.00547827
-0.000129161
0.00547214
-0.000132656
0.00546599
-0.000135791
0.00545982
-0.000138571
0.00545367
-0.00014101
0.00544756
-0.00014312
0.00544149
-0.000144913
-0.000146405
0.00551719
0.000150625
-0.00550755
0.00038994
0.00549399
0.000141242
-0.0054846
0.00551618
0.000367743
0.00555096
0.000590541
0.00559794
0.000805934
0.0056566
0.00101045
0.00572632
0.00120112
0.00137557
0.00547237
0.000132086
-0.00546321
0.00549435
0.000345757
0.00552893
0.000555963
0.00557571
0.000759151
0.00563418
0.000951985
0.00570368
0.00113161
0.00129578
0.00545218
0.000123127
-0.00544322
0.00547398
0.000323953
0.00550839
0.000521558
0.005555
0.000712537
0.00561329
0.000893696
0.0056826
0.0010623
0.00121621
0.00543329
0.000114336
-0.00542449
0.00545493
0.000302304
0.00548919
0.000487298
0.00553566
0.000666067
0.0055938
0.000835557
0.00566295
0.000993161
0.00113683
0.00541556
0.000105689
-0.00540692
0.00543709
0.000280783
0.00547123
0.000453156
0.00551758
0.000619712
0.0055756
0.000777541
0.0056446
0.000924161
0.00105764
0.0053989
9.71625e-05
-0.00539037
0.00542032
0.000259366
0.00545437
0.000419106
0.00550064
0.000573444
0.00555856
0.000719619
0.00562745
0.000855273
0.000978581
0.00538319
8.87369e-05
-0.00537476
0.00540452
0.000238028
0.00543851
0.000385116
0.00548473
0.000527229
0.00554259
0.000661753
0.00561141
0.00078646
0.000899634
0.00536832
8.03941e-05
-0.00535997
0.0053896
0.000216743
0.00542356
0.000351156
0.00546976
0.000481029
0.00552761
0.000603903
0.00559639
0.000717679
0.000820754
0.0053542
7.21191e-05
-0.00534592
0.00537546
0.000195487
0.00540942
0.00031719
0.00545565
0.000434802
0.00551353
0.00054602
0.00558233
0.000648881
0.000741892
0.00534074
6.39005e-05
-0.00533252
0.00536199
0.000174236
0.005396
0.000283182
0.00544231
0.000388499
0.00550028
0.000488048
0.00556915
0.000580005
0.000662987
0.00532788
5.5732e-05
-0.00531971
0.00534915
0.000152967
0.00538323
0.000249094
0.00542966
0.000342067
0.00548779
0.000429924
0.00555681
0.000510983
0.000583974
0.00531556
4.76136e-05
-0.00530744
0.00533686
0.000131666
0.00537106
0.000214893
0.00541767
0.000295458
0.00547601
0.000371585
0.00554525
0.000441744
0.000504783
0.00530379
3.95538e-05
-0.00529573
0.00532513
0.000110328
0.00535947
0.00018056
0.00540629
0.000248638
0.00546489
0.000312984
0.0055344
0.000372233
0.000425356
0.00529267
3.15717e-05
-0.00528469
0.00531403
8.89693e-05
0.00534848
0.000146105
0.00539551
0.000201606
0.00545439
0.000254113
0.00552418
0.000302434
0.000345676
0.00528235
2.36983e-05
-0.00527448
0.00530369
6.76374e-05
0.0053382
0.000111587
0.00538538
0.000154429
0.00544446
0.000195036
0.00551448
0.00023241
0.000265798
0.00527308
1.59778e-05
-0.00526536
0.0052943
4.64172e-05
0.00532876
7.71261e-05
0.00537593
0.000107255
0.00543505
0.000135919
0.00550513
0.000162329
0.000185884
0.00526507
8.46467e-06
-0.00525756
0.00528606
2.54297e-05
0.00532028
4.29071e-05
0.00536722
6.03185e-05
0.0054261
7.70314e-05
0.00549596
9.24714e-05
0.000106201
0.00525844
1.21697e-06
-0.00525119
0.00527905
4.81455e-06
0.00531281
9.14702e-06
0.00535923
1.39027e-05
0.00541756
1.87004e-05
0.00548685
2.31836e-05
2.70806e-05
0.00525305
-0.00524612
-5.71834e-06
0.00527317
-1.53062e-05
0.00530628
-2.39585e-05
0.00535191
-3.17347e-05
0.00540939
-3.87736e-05
0.00547779
-4.52223e-05
-5.11892e-05
0.00551078
-0.000325249
-8.8883e-05
0.00569246
-0.00130186
-0.00576726
0.00562803
-0.00112694
0.00557484
-0.000937753
0.0055335
-0.000737001
0.00550449
-0.000526771
0.00548812
-0.000308883
-8.53637e-05
0.00567254
-0.00122686
-0.00574754
0.0056079
-0.0010623
0.00555447
-0.000884318
0.00551287
-0.000695406
0.00548359
-0.000497493
0.00546697
-0.000292262
-8.16006e-05
0.00565382
-0.00115171
-0.00572898
0.005589
-0.00099748
0.00553536
-0.000830676
0.00549354
-0.000653589
0.00546404
-0.000467988
0.00544719
-0.000275418
-7.76264e-05
0.0056362
-0.00107642
-0.00571149
0.00557122
-0.000932503
0.0055174
-0.000776855
0.00547539
-0.000611578
0.00544569
-0.000438284
0.00542865
-0.00025838
-7.34692e-05
0.00561959
-0.00100102
-0.00569499
0.00555448
-0.000867391
0.0055005
-0.000722877
0.00545832
-0.000569395
0.00542844
-0.000408405
0.00541123
-0.000241171
-6.91532e-05
0.00560392
-0.000925526
-0.00567942
0.00553869
-0.000802159
0.00548457
-0.000668757
0.00544223
-0.000527056
0.00541219
-0.000378366
0.00539483
-0.000223809
-6.46983e-05
0.00558911
-0.000849944
-0.00566469
0.00552377
-0.000736815
0.00546951
-0.000614502
0.00542703
-0.00048457
0.00539684
-0.000348179
0.00537934
-0.000206308
-6.01207e-05
0.0055751
-0.000774278
-0.00565077
0.00550965
-0.000671361
0.00545526
-0.000560115
0.00541263
-0.000441938
0.0053823
-0.000317846
0.00536466
-0.000188673
-5.54318e-05
0.00556184
-0.000698526
-0.00563759
0.00549627
-0.000605794
0.00544175
-0.00050559
0.00539897
-0.000399157
0.00536849
-0.000287364
0.00535072
-0.000170904
-5.06381e-05
0.00554928
-0.000622683
-0.00562512
0.00548359
-0.000540106
0.00542892
-0.000450918
0.00538597
-0.000356213
0.00535533
-0.000256721
0.00533742
-0.000152995
-4.574e-05
0.00553739
-0.000546743
-0.00561333
0.00547156
-0.000474284
0.00541673
-0.000396081
0.0053736
-0.000313087
0.00534278
-0.0002259
0.00532472
-0.000134931
-4.07316e-05
0.00552615
-0.000470698
-0.00560219
0.00546018
-0.000408317
0.00540516
-0.000341063
0.00536183
-0.000269759
0.00533081
-0.000194876
0.00531257
-0.000116692
-3.56005e-05
0.00551556
-0.000394548
-0.00559171
0.00544944
-0.000342199
0.00539423
-0.000285853
0.00535069
-0.000226212
0.00531944
-0.00016363
0.00530101
-9.82561e-05
-3.03294e-05
0.00550566
-0.000318307
-0.0055819
0.0054394
-0.000275942
0.005384
-0.000230458
0.00534024
-0.000182446
0.00530876
-0.000132155
0.00529012
-7.96106e-05
-2.49006e-05
0.00549646
-0.000242013
-0.00557276
0.00543011
-0.000209587
0.00537457
-0.000174916
0.00533061
-0.000138494
0.00529893
-0.000100471
0.00528008
-6.07603e-05
-1.93009e-05
0.00548803
-0.000165733
-0.00556431
0.00542165
-0.000143211
0.00536605
-0.000119311
0.00532199
-9.44338e-05
0.00529015
-6.86394e-05
0.00527113
-4.17387e-05
-1.35274e-05
0.00548038
-8.95666e-05
-0.00555654
0.0054141
-7.69301e-05
0.00535855
-6.37681e-05
0.00531451
-5.03869e-05
0.00528263
-3.6762e-05
0.0052635
-2.26084e-05
-7.58906e-06
0.00547351
-1.36226e-05
-0.00554945
0.00540746
-1.08763e-05
0.00535212
-8.43314e-06
0.00530823
-6.49849e-06
0.00527643
-4.96235e-06
0.00525728
-3.45019e-06
-1.50401e-06
0.00546737
-0.005543
6.20097e-05
0.00540165
5.4841e-05
0.00534665
4.65691e-05
0.00530305
3.71045e-05
0.00527144
2.66481e-05
0.00525233
1.56599e-05
4.70617e-06
0.0053009
0.000227616
0.00530645
0.000234046
0.00531247
0.000240523
0.00531899
0.000247026
0.00532603
0.000253531
0.00533362
0.00026001
0.00534179
0.000266432
0.00535056
0.000272762
0.00535996
0.000278959
0.00537001
0.00028498
0.00538074
0.000290779
0.00539216
0.000296301
0.00540429
0.000301492
0.00541714
0.000306288
0.00543072
0.000310622
0.00544502
0.000314425
0.00546003
0.000317621
0.00547575
0.000320129
0.00549215
0.000321868
0.00550919
0.000322751
0.00552683
0.000322692
0.00554502
0.000321602
0.00556368
0.000319393
0.00558273
0.00031598
0.00560208
0.000311282
0.00562162
0.00030522
0.00564121
0.000297728
0.00566074
0.000288745
0.00568004
0.000278226
0.00569896
0.000266139
0.00571733
0.000252464
0.00573497
0.000237182
0.0057517
0.000220211
0.000201158
0.00530732
0.000222441
0.00531292
0.000228448
0.00531896
0.000234477
0.00532548
0.000240509
0.00533249
0.000246519
0.00534002
0.000252479
0.0053481
0.000258359
0.00535673
0.000264123
0.00536596
0.000269734
0.00537579
0.000275151
0.00538624
0.000280327
0.00539733
0.000285214
0.00540906
0.000289758
0.00542145
0.000293901
0.00543449
0.000297582
0.00544818
0.000300736
0.0054625
0.000303293
0.00547745
0.000305181
0.00549299
0.000306327
0.00550909
0.000306652
0.0055257
0.00030608
0.00554277
0.000304534
0.00556023
0.000301935
0.005578
0.000298212
0.00559599
0.000293292
0.0056141
0.000287112
0.00563221
0.000279615
0.0056502
0.000270751
0.00566794
0.000260486
0.00568529
0.000248795
0.00570208
0.000235667
0.00571818
0.000221088
0.0057334
0.000204989
0.000187018
0.00531332
0.000217227
0.00531894
0.000222829
0.00532498
0.000228432
0.00533147
0.000234017
0.00533843
0.000239558
0.00534588
0.00024503
0.00535384
0.000250401
0.00536232
0.000255639
0.00537135
0.000260706
0.00538094
0.000265563
0.0053911
0.000270167
0.00540184
0.000274471
0.00541318
0.000278427
0.0054251
0.000281979
0.00543761
0.000285072
0.0054507
0.000287645
0.00546436
0.000289635
0.00547856
0.000290978
0.00549328
0.000291606
0.00550848
0.00029145
0.00552412
0.000290443
0.00554014
0.000288516
0.00555647
0.000285602
0.00557305
0.000281636
0.00558978
0.00027656
0.00560657
0.000270318
0.00562333
0.000262863
0.00563992
0.000254155
0.00565624
0.000244166
0.00567216
0.00023288
0.00568754
0.00022029
0.00570224
0.000206388
0.00571611
0.000191113
0.00017415
0.00531891
0.000211993
0.00532453
0.00021721
0.00533055
0.000222409
0.005337
0.00022757
0.00534389
0.00023267
0.00535123
0.000237683
0.00535906
0.000242579
0.00536737
0.000247325
0.00537619
0.000251888
0.00538552
0.000256228
0.00539538
0.000260307
0.00540577
0.000264079
0.0054167
0.0002675
0.00542816
0.000270518
0.00544015
0.000273082
0.00545266
0.000275137
0.00546567
0.000276626
0.00547916
0.00027749
0.0054931
0.000277668
0.00550745
0.0002771
0.00552216
0.000275726
0.0055372
0.000273484
0.00555248
0.000270317
0.00556795
0.000266169
0.00558352
0.00026099
0.0055991
0.000254733
0.00561461
0.000247358
0.00562993
0.000238835
0.00564495
0.000229139
0.00565957
0.000218262
0.00567366
0.000206199
0.0056871
0.000192947
0.00569977
0.00017845
0.000162426
0.00532412
0.000206759
0.00532972
0.00021161
0.0053357
0.000216425
0.00534209
0.000221187
0.00534888
0.000225872
0.00535611
0.000230455
0.00536378
0.000234907
0.00537191
0.000239197
0.00538051
0.000243292
0.00538958
0.000247157
0.00539913
0.000250753
0.00540917
0.000254041
0.0054197
0.000256976
0.0054307
0.000259512
0.00544218
0.000261602
0.00545412
0.000263196
0.00546651
0.000264242
0.00547931
0.000264687
0.0054925
0.000264477
0.00550604
0.000263557
0.00551989
0.000261874
0.005534
0.000259376
0.00554831
0.000256011
0.00556275
0.000251732
0.00557724
0.000246496
0.00559171
0.000240262
0.00560607
0.000233
0.00562022
0.000224682
0.00563407
0.000215292
0.00564751
0.000204823
0.00566043
0.000193275
0.00567274
0.000180645
0.0056843
0.000166884
0.000151736
0.00532896
0.000201542
0.00533453
0.000206045
0.00534045
0.000210498
0.00534676
0.000214883
0.00535345
0.000219178
0.00536055
0.000223358
0.00536806
0.000227397
0.00537599
0.000231263
0.00538435
0.000234927
0.00539316
0.000238355
0.0054024
0.00024151
0.00541209
0.000244355
0.00542221
0.000246851
0.00543277
0.000248953
0.00544375
0.00025062
0.00545514
0.000251805
0.00546693
0.00025246
0.00547907
0.00025254
0.00549156
0.000251994
0.00550434
0.000250776
0.00551737
0.000248837
0.00553062
0.000246132
0.00554401
0.000242617
0.00555749
0.00023825
0.00557099
0.000232995
0.00558444
0.000226818
0.00559774
0.000219693
0.00561083
0.000211598
0.0056236
0.000202521
0.00563596
0.000192458
0.00564783
0.000181411
0.00565909
0.000169379
0.00566966
0.000156314
0.000141984
0.00533345
0.000196356
0.00533897
0.000200529
0.00534483
0.00020464
0.00535104
0.000208671
0.00535762
0.000212601
0.00536457
0.000216406
0.00537191
0.000220059
0.00537964
0.000223534
0.00538776
0.000226799
0.00539629
0.000229825
0.00540523
0.000232578
0.00541456
0.000235021
0.00542429
0.000237119
0.00543442
0.000238832
0.00544492
0.00024012
0.00545578
0.000240942
0.00546698
0.000241255
0.00547851
0.000241017
0.00549032
0.000240184
0.00550238
0.000238715
0.00551465
0.000236566
0.00552708
0.000233698
0.00553963
0.000230073
0.00555222
0.000225655
0.0055648
0.000220413
0.0055773
0.00021432
0.00558964
0.000207352
0.00560175
0.000199494
0.00561353
0.000190735
0.00562492
0.000181074
0.00563581
0.000170515
0.00564614
0.000159055
0.0056558
0.000146651
0.000133088
0.00533762
0.000191214
0.00534307
0.000195075
0.00534885
0.000198864
0.00535496
0.000202562
0.00536141
0.00020615
0.00536821
0.000209605
0.00537537
0.000212901
0.00538289
0.000216013
0.00539078
0.000218912
0.00539903
0.00022157
0.00540765
0.000223954
0.00541664
0.000226033
0.00542599
0.000227772
0.00543568
0.000229135
0.00544572
0.000230086
0.00545607
0.000230588
0.00546673
0.000230601
0.00547765
0.000230089
0.00548883
0.000229011
0.00550021
0.000227332
0.00551176
0.000225013
0.00552344
0.00022202
0.00553519
0.00021832
0.00554697
0.000213882
0.0055587
0.000208681
0.00557033
0.000202693
0.00558178
0.000195899
0.00559299
0.000188288
0.00560387
0.00017985
0.00561436
0.000170588
0.00562437
0.000160503
0.00563383
0.000149595
0.00564266
0.00013782
0.000124979
0.00534148
0.000186126
0.00534686
0.000189693
0.00535254
0.000193179
0.00535854
0.000196566
0.00536485
0.000199835
0.0053715
0.000202963
0.00537847
0.000205928
0.00538578
0.000208705
0.00539342
0.000211268
0.0054014
0.000213588
0.00540972
0.000215638
0.00541837
0.000217386
0.00542734
0.000218801
0.00543662
0.000219851
0.0054462
0.000220503
0.00545607
0.000220722
0.0054662
0.000220474
0.00547656
0.000219725
0.00548713
0.00021844
0.00549788
0.000216587
0.00550876
0.000214133
0.00551973
0.000211047
0.00553075
0.000207302
0.00554176
0.000202872
0.00555271
0.000197734
0.00556353
0.000191869
0.00557417
0.000185263
0.00558455
0.000177905
0.00559461
0.000169791
0.00560427
0.000160922
0.00561348
0.000151301
0.00562214
0.000140926
0.00563021
0.000129753
0.000117597
0.00534504
0.000181103
0.00535034
0.000184393
0.00535593
0.000187594
0.0053618
0.00019069
0.00536798
0.00019366
0.00537445
0.000196486
0.00538124
0.000199145
0.00538833
0.000201613
0.00539573
0.000203866
0.00540344
0.000205878
0.00541146
0.000207622
0.00541977
0.000209071
0.00542838
0.000210196
0.00543726
0.000210966
0.00544641
0.000211352
0.00545581
0.000211323
0.00546544
0.000210848
0.00547527
0.000209896
0.00548527
0.000208437
0.00549541
0.000206442
0.00550566
0.000203883
0.00551598
0.000200733
0.00552631
0.000196969
0.00553662
0.000192568
0.00554684
0.000187512
0.00555692
0.000181785
0.00556681
0.000175376
0.00557644
0.000168278
0.00558574
0.000160488
0.00559465
0.000152007
0.00560311
0.00014284
0.00561106
0.000132984
0.00561842
0.000122393
0.000110892
0.00534833
0.000176153
0.00535354
0.000179183
0.00535902
0.000182117
0.00536477
0.000184939
0.0053708
0.000187632
0.00537711
0.000190177
0.0053837
0.000192552
0.00539058
0.000194736
0.00539774
0.000196705
0.00540518
0.000198436
0.0054129
0.000199903
0.00542089
0.000201082
0.00542914
0.000201945
0.00543764
0.000202466
0.00544638
0.000202617
0.00545533
0.00020237
0.00546448
0.000201698
0.0054738
0.000200573
0.00548327
0.00019897
0.00549285
0.000196861
0.00550251
0.000194223
0.00551221
0.000191033
0.00552191
0.00018727
0.00553156
0.000182917
0.00554112
0.000177958
0.00555052
0.000172381
0.00555972
0.000166178
0.00556865
0.000159343
0.00557726
0.000151876
0.00558549
0.00014378
0.00559327
0.000135059
0.00560055
0.000125709
0.00560725
0.000115686
0.000104819
0.00535137
0.000171282
0.00535649
0.000174067
0.00536185
0.000176751
0.00536748
0.000179319
0.00537335
0.000181754
0.00537949
0.000184038
0.00538589
0.000186151
0.00539256
0.000188073
0.00539948
0.000189782
0.00540666
0.000191257
0.00541409
0.000192473
0.00542176
0.000193408
0.00542967
0.000194037
0.0054378
0.000194336
0.00544614
0.000194279
0.00545466
0.000193842
0.00546336
0.000193001
0.0054722
0.00019173
0.00548117
0.000190006
0.00549022
0.000187808
0.00549933
0.000185113
0.00550846
0.000181903
0.00551757
0.000178161
0.00552661
0.000173871
0.00553555
0.000169021
0.00554433
0.000163603
0.0055529
0.00015761
0.0055612
0.000151041
0.00556918
0.000143895
0.00557678
0.000136179
0.00558394
0.000127898
0.0055906
0.000119047
0.00559671
0.000109582
9.93365e-05
0.00535418
0.000166497
0.00535919
0.000169052
0.00536444
0.000171502
0.00536993
0.000173833
0.00537565
0.000176028
0.00538162
0.000178071
0.00538783
0.000179943
0.00539428
0.000181624
0.00540096
0.000183095
0.00540788
0.000184336
0.00541503
0.000185325
0.0054224
0.00018604
0.00542998
0.00018646
0.00543775
0.000186561
0.00544571
0.000186322
0.00545383
0.00018572
0.0054621
0.000184732
0.00547049
0.000183339
0.00547898
0.000181518
0.00548754
0.000179251
0.00549613
0.000176519
0.00550473
0.000173306
0.00551329
0.000169598
0.00552178
0.000165383
0.00553015
0.000160652
0.00553836
0.000155398
0.00554635
0.000149619
0.00555407
0.000143314
0.00556148
0.000136488
0.00556851
0.000129146
0.00557511
0.000121299
0.00558122
0.000112941
0.00558677
0.000104028
9.43992e-05
0.00535675
0.000161802
0.00536166
0.000164142
0.00536679
0.000166373
0.00537214
0.000168483
0.00537771
0.000170455
0.0053835
0.000172275
0.00538952
0.000173924
0.00539576
0.000175385
0.00540222
0.000176639
0.00540889
0.000177668
0.00541576
0.000178451
0.00542283
0.000178968
0.00543009
0.0001792
0.00543753
0.000179127
0.00544512
0.000178727
0.00545286
0.000177981
0.00546072
0.00017687
0.00546868
0.000175374
0.00547673
0.000173476
0.00548482
0.000171157
0.00549293
0.000168404
0.00550104
0.000165203
0.00550909
0.000161541
0.00551707
0.000157411
0.00552491
0.000152804
0.00553259
0.000147718
0.00554006
0.000142153
0.00554726
0.00013611
0.00555415
0.000129597
0.00556068
0.000122624
0.00556677
0.000115201
0.00557239
0.000107329
0.00557745
9.89651e-05
8.99512e-05
0.00535908
0.000157202
0.00536388
0.000159339
0.00536889
0.000161367
0.0053741
0.00016327
0.00537952
0.000165037
0.00538514
0.00016665
0.00539097
0.000168095
0.00539701
0.000169353
0.00540324
0.000170409
0.00540966
0.000171245
0.00541627
0.000171841
0.00542305
0.000172182
0.00543001
0.000172247
0.00543712
0.000172019
0.00544436
0.000171479
0.00545174
0.000170609
0.00545921
0.000169392
0.00546678
0.000167812
0.0054744
0.000165852
0.00548206
0.000163499
0.00548973
0.000160738
0.00549737
0.00015756
0.00550496
0.000153954
0.00551245
0.000149914
0.00551982
0.000145435
0.00552702
0.000140518
0.00553401
0.000135163
0.00554075
0.000129377
0.00554717
0.000123169
0.00555324
0.000116553
0.0055589
0.000109544
0.00556408
0.000102147
0.00556873
9.4323e-05
8.59185e-05
0.00536116
0.000152698
0.00536585
0.000154647
0.00537073
0.000156484
0.00537581
0.000158196
0.00538107
0.000159772
0.00538653
0.000161195
0.00539217
0.000162451
0.005398
0.000163525
0.00540401
0.0001644
0.00541019
0.00016506
0.00541655
0.000165489
0.00542306
0.00016567
0.00542972
0.000165587
0.00543651
0.000165222
0.00544343
0.00016456
0.00545046
0.000163583
0.00545757
0.000162278
0.00546476
0.000160629
0.00547199
0.000158623
0.00547924
0.000156247
0.00548649
0.00015349
0.0054937
0.000150343
0.00550086
0.000146799
0.00550792
0.000142854
0.00551485
0.000138505
0.00552161
0.000133754
0.00552817
0.000128605
0.00553448
0.000123066
0.0055405
0.00011715
0.00554618
0.000110876
0.00555146
0.000104263
0.00555629
9.73206e-05
0.00556059
9.00165e-05
8.22037e-05
0.00536296
0.000148293
0.00536754
0.000150065
0.0053723
0.000151725
0.00537724
0.00015326
0.00538235
0.000154659
0.00538764
0.000155907
0.0053931
0.00015699
0.00539873
0.000157894
0.00540453
0.000158605
0.00541048
0.000159106
0.00541658
0.000159384
0.00542283
0.000159423
0.00542921
0.000159207
0.00543571
0.000158723
0.00544231
0.000157954
0.00544901
0.000156887
0.00545578
0.000155507
0.00546261
0.000153803
0.00546947
0.000151762
0.00547634
0.000149374
0.0054832
0.00014663
0.00549002
0.000143522
0.00549678
0.000140045
0.00550343
0.000136196
0.00550996
0.000131976
0.00551633
0.000127386
0.0055225
0.000122434
0.00552844
0.00011713
0.0055341
0.00011149
0.00553944
0.000105535