/*--------------------------------*- C++ -*----------------------------------*\
| =========                 |                                                 |
| \\      /  F ield         | OpenFOAM: The Open Source CFD Toolbox           |
|  \\    /   O peration     | Version:  2412                                  |
|   \\  /    A nd           | Website:  www.openfoam.com                      |
|    \\/     M anipulation  |                                                 |
\*---------------------------------------------------------------------------*/
FoamFile
{
    version     2.0;
    format      ascii;
    arch        "LSB;label=32;scalar=64";
    class       volVectorField;
    location    "2.5";
    object      vorticity;
}
// * * * * * * * * * * * * * * * * * * * * * * * * * * * * * * * * * * * * * //

dimensions      [0 0 -1 0 0 0 0];

internalField   nonuniform List<vector> 
5285
(
(0 -2.01396e-23 -0.00118022)
(0 1.07708e-21 -0.00120324)
(0 -0 -0.0015951)
(0 -0 -0.00161199)
(0 -0 -0.00126996)
(0 -0 -0.000729313)
(0 -0 -0.000185815)
(0 -0 0.000217504)
(0 -0 0.000429213)
(0 -0 0.000474876)
(0 -0 0.000416481)
(0 -0 0.000315645)
(0 -0 0.000214599)
(0 -0 0.000133665)
(0 -0 7.73605e-05)
(0 -0 4.20799e-05)
(0 -0 2.1762e-05)
(0 -0 1.08687e-05)
(0 -0 5.38491e-06)
(0 -0 2.78586e-06)
(0 -0 1.64985e-06)
(0 -0 1.24764e-06)
(0 -0 1.17637e-06)
(0 -0 1.2173e-06)
(0 -2.04077e-21 -0.00122401)
(0 -0 -0.00161485)
(0 -0 -0.00162472)
(0 -0 -0.00127662)
(0 -0 -0.000732468)
(0 -0 -0.000187991)
(0 -0 0.000214883)
(0 -0 0.000425904)
(0 -0 0.000471305)
(0 -0 0.000413189)
(0 -0 0.000312972)
(0 -0 0.000212631)
(0 -0 0.000132314)
(0 -0 7.64668e-05)
(0 -0 4.14871e-05)
(0 -0 2.13502e-05)
(0 -0 1.05588e-05)
(0 -0 5.13036e-06)
(0 -0 2.56044e-06)
(0 -0 1.4345e-06)
(0 -0 1.01585e-06)
(0 -0 8.98651e-07)
(0 -0 8.24184e-07)
(0 9.32069e-22 -0.00124286)
(0 -0 -0.00163166)
(0 -0 -0.00163473)
(0 -0 -0.00128083)
(0 -0 -0.000733693)
(0 -0 -0.000188722)
(0 -0 0.000213316)
(0 -0 0.000423345)
(0 -0 0.000468255)
(0 -0 0.000410249)
(0 -0 0.000310538)
(0 -0 0.000210832)
(0 -0 0.00013109)
(0 -0 7.56797e-05)
(0 -0 4.09926e-05)
(0 -0 2.10346e-05)
(0 -0 1.03459e-05)
(0 -0 4.97398e-06)
(0 -0 2.43357e-06)
(0 -0 1.31865e-06)
(0 -0 8.85379e-07)
(0 -0 7.11683e-07)
(0 -0 6.01103e-07)
(0 -1.03876e-23 -0.00125975)
(0 -0 -0.00164602)
(0 -0 -0.00164224)
(0 -0 -0.00128301)
(0 -0 -0.000733289)
(0 -0 -0.000188194)
(0 -0 0.000212696)
(0 -0 0.000421486)
(0 -0 0.000465711)
(0 -0 0.000407669)
(0 -0 0.000308354)
(0 -0 0.000209208)
(0 -0 0.000129995)
(0 -0 7.49946e-05)
(0 -0 4.05872e-05)
(0 -0 2.08031e-05)
(0 -0 1.02155e-05)
(0 -0 4.89946e-06)
(0 -0 2.38774e-06)
(0 -0 1.2837e-06)
(0 -0 8.45036e-07)
(0 -0 6.44087e-07)
(0 -0 4.94537e-07)
(0 -8.38863e-24 -0.00127481)
(0 -0 -0.00165796)
(0 -0 -0.00164757)
(0 -0 -0.00128327)
(0 -0 -0.000731286)
(0 -0 -0.000186385)
(0 -0 0.000213079)
(0 -0 0.000420392)
(0 -0 0.00046373)
(0 -0 0.000405484)
(0 -0 0.000306436)
(0 -0 0.000207754)
(0 -0 0.000129007)
(0 -0 7.43775e-05)
(0 -0 4.02274e-05)
(0 -0 2.06052e-05)
(0 -0 1.01123e-05)
(0 -0 4.84784e-06)
(0 -0 2.36154e-06)
(0 -0 1.26601e-06)
(0 -0 8.23116e-07)
(0 -0 6.08521e-07)
(0 -0 4.43947e-07)
(0 -2.05701e-22 -0.00128782)
(0 -0 -0.00166731)
(0 -0 -0.00165038)
(0 -0 -0.00128128)
(0 -0 -0.00072739)
(0 -0 -0.000183037)
(0 -0 0.000214672)
(0 -0 0.000420209)
(0 -0 0.000462396)
(0 -0 0.000403721)
(0 -0 0.000304762)
(0 -0 0.000206414)
(0 -0 0.000128043)
(0 -0 7.37281e-05)
(0 -0 3.98023e-05)
(0 -0 2.03236e-05)
(0 -0 9.91508e-06)
(0 -0 4.69647e-06)
(0 -0 2.23201e-06)
(0 -0 1.14291e-06)
(0 -0 6.95777e-07)
(0 -0 4.71116e-07)
(0 -0 2.93851e-07)
(0 3.51458e-22 -0.00129816)
(0 -0 -0.0016732)
(0 -0 -0.00164968)
(0 -0 -0.00127604)
(0 -0 -0.000720667)
(0 -0 -0.000177371)
(0 -0 0.000218063)
(0 -0 0.000421336)
(0 -0 0.000461939)
(0 -0 0.000402477)
(0 -0 0.000303329)
(0 -0 0.000205115)
(0 -0 0.000126987)
(0 -0 7.29047e-05)
(0 -0 3.91555e-05)
(0 -0 1.97942e-05)
(0 -0 9.45651e-06)
(0 -0 4.27701e-06)
(0 -0 1.83133e-06)
(0 -0 7.47952e-07)
(0 -0 2.98053e-07)
(0 -0 6.70923e-08)
(0 -0 -1.18345e-07)
(0 -2.54971e-22 -0.00130429)
(0 -0 -0.00167348)
(0 -0 -0.00164296)
(0 -0 -0.00126498)
(0 -0 -0.000708794)
(0 -0 -0.000167469)
(0 -0 0.000224696)
(0 -0 0.000424754)
(0 -0 0.000462948)
(0 -0 0.000402042)
(0 -0 0.000302219)
(0 -0 0.000203807)
(0 -0 0.00012571)
(0 -0 7.17338e-05)
(0 -0 3.80907e-05)
(0 -0 1.88102e-05)
(0 -0 8.52596e-06)
(0 -0 3.37837e-06)
(0 -0 9.498e-07)
(0 -0 -1.26166e-07)
(0 -0 -5.74605e-07)
(0 -0 -8.0552e-07)
(0 -0 -9.91296e-07)
(0 9.88099e-23 -0.00130257)
(0 -0 -0.00166317)
(0 -0 -0.00162448)
(0 -0 -0.00124235)
(0 -0 -0.000686578)
(0 -0 -0.000149084)
(0 -0 0.000237739)
(0 -0 0.000432622)
(0 -0 0.000466757)
(0 -0 0.000403143)
(0 -0 0.000301756)
(0 -0 0.000202564)
(0 -0 0.000124143)
(0 -0 7.0071e-05)
(0 -0 3.64277e-05)
(0 -0 1.71767e-05)
(0 -0 6.92435e-06)
(0 -0 1.8028e-06)
(0 -0 -6.06436e-07)
(0 -0 -1.66837e-06)
(0 -0 -2.10617e-06)
(0 -0 -2.32633e-06)
(0 -0 -2.50084e-06)
(0 -0 -0.00128519)
(0 -0 -0.00163173)
(0 -0 -0.00158238)
(0 -0 -0.0011964)
(0 -0 -0.00064355)
(0 -0 -0.000113729)
(0 -0 0.000263502)
(0 -0 0.000449269)
(0 -0 0.000476124)
(0 -0 0.000407419)
(0 -0 0.00030285)
(0 -0 0.000201862)
(0 -0 0.000122526)
(0 -0 6.80377e-05)
(0 -0 3.4234e-05)
(0 -0 1.49409e-05)
(0 -0 4.69544e-06)
(0 -0 -4.02002e-07)
(0 -0 -2.78255e-06)
(0 -0 -3.8159e-06)
(0 -0 -4.22638e-06)
(0 -0 -4.41863e-06)
(0 -0 -4.56492e-06)
(0 -2.99336e-23 -0.00123709)
(0 -0 -0.00155951)
(0 -0 -0.00149493)
(0 -0 -0.00110588)
(0 -0 -0.000561035)
(0 -0 -4.64221e-05)
(0 -0 0.000313076)
(0 -0 0.000482363)
(0 -0 0.000496076)
(0 -0 0.000418074)
(0 -0 0.000307563)
(0 -0 0.000203108)
(0 -0 0.000121918)
(0 -0 6.65248e-05)
(0 -0 3.23275e-05)
(0 -0 1.2895e-05)
(0 -0 2.62696e-06)
(0 -0 -2.4435e-06)
(0 -0 -4.77814e-06)
(0 -0 -5.76006e-06)
(0 -0 -6.119e-06)
(0 -0 -6.25977e-06)
(0 -0 -6.35557e-06)
(0 3.29454e-23 -0.00113316)
(0 -0 -0.00141472)
(0 -0 -0.00132774)
(0 -0 -0.000937892)
(0 -0 -0.000410575)
(0 -0 7.53607e-05)
(0 -0 0.000403002)
(0 -0 0.00054338)
(0 -0 0.000534338)
(0 -0 0.000440345)
(0 -0 0.000319637)
(0 -0 0.000209222)
(0 -0 0.000124824)
(0 -0 6.78454e-05)
(0 -0 3.29407e-05)
(0 -0 1.32412e-05)
(0 -0 2.91172e-06)
(0 -0 -2.13095e-06)
(0 -0 -4.40261e-06)
(0 -0 -5.31046e-06)
(0 -0 -5.5944e-06)
(0 -0 -5.66142e-06)
(0 -0 -5.68634e-06)
(0 5.58171e-23 -0.000939055)
(0 -0 -0.00115546)
(0 -0 -0.00103682)
(0 -0 -0.000651404)
(0 -0 -0.00015763)
(0 -0 0.000278273)
(0 -0 0.000552476)
(0 -0 0.000645565)
(0 -0 0.000600004)
(0 -0 0.00048076)
(0 -0 0.000344175)
(0 -0 0.000224597)
(0 -0 0.000135317)
(0 -0 7.59384e-05)
(0 -0 3.99559e-05)
(0 -0 1.98318e-05)
(0 -0 9.37842e-06)
(0 -0 4.34079e-06)
(0 -0 2.12467e-06)
(0 -0 1.28867e-06)
(0 -0 1.07891e-06)
(0 -0 1.08478e-06)
(0 -0 1.12945e-06)
(0 -5.66512e-23 -0.000620532)
(0 -0 -0.000742424)
(0 -0 -0.000583132)
(0 -0 -0.000212184)
(0 -0 0.000224682)
(0 -0 0.000581504)
(0 -0 0.000774269)
(0 -0 0.000797227)
(0 -0 0.000698795)
(0 -0 0.000543818)
(0 -0 0.000385268)
(0 -0 0.000253288)
(0 -0 0.000157532)
(0 -0 9.50102e-05)
(0 -0 5.76071e-05)
(0 -0 3.6886e-05)
(0 -0 2.62023e-05)
(0 -0 2.10872e-05)
(0 -0 1.88531e-05)
(0 -0 1.80202e-05)
(0 -0 1.782e-05)
(0 -0 1.78385e-05)
(0 -0 1.7897e-05)
(0 5.36036e-24 -0.000164539)
(0 -0 -0.000165169)
(0 -0 3.89044e-05)
(0 -0 0.000379587)
(0 -0 0.000731194)
(0 -0 0.000976864)
(0 -0 0.00105943)
(0 -0 0.000990452)
(0 -0 0.00082479)
(0 -0 0.000625782)
(0 -0 0.000441046)
(0 -0 0.000294781)
(0 -0 0.000191808)
(0 -0 0.000125862)
(0 -0 8.689e-05)
(0 -0 6.54345e-05)
(0 -0 5.43637e-05)
(0 -0 4.89983e-05)
(0 -0 4.6568e-05)
(0 -0 4.55632e-05)
(0 -0 4.52064e-05)
(0 -0 4.50829e-05)
(0 -0 4.50132e-05)
(0 4.98394e-23 0.000394053)
(0 -0 0.000526776)
(0 -0 0.000769611)
(0 -0 0.00106013)
(0 -0 0.00130026)
(0 -0 0.00140979)
(0 -0 0.00136323)
(0 -0 0.00119084)
(0 -0 0.00095274)
(0 -0 0.000708531)
(0 -0 0.000498383)
(0 -0 0.000339127)
(0 -0 0.000230034)
(0 -0 0.000161339)
(0 -0 0.000121082)
(0 -0 9.88964e-05)
(0 -0 8.72776e-05)
(0 -0 8.14189e-05)
(0 -0 7.85187e-05)
(0 -0 7.70666e-05)
(0 -0 7.62899e-05)
(0 -0 7.57791e-05)
(0 -0 7.5356e-05)
(0 -4.24674e-23 0.000959724)
(0 -0 0.00121215)
(0 -0 0.00147504)
(0 -0 0.00169674)
(0 -0 0.00181192)
(0 -0 0.00177997)
(0 -0 0.00160701)
(0 -0 0.00133947)
(0 -0 0.00103951)
(0 -0 0.000760269)
(0 -0 0.000532915)
(0 -0 0.000366464)
(0 -0 0.000254882)
(0 -0 0.000185445)
(0 -0 0.000144839)
(0 -0 0.000122224)
(0 -0 0.000110017)
(0 -0 0.000103463)
(0 -0 9.98253e-05)
(0 -0 9.76434e-05)
(0 -0 9.61722e-05)
(0 -0 9.50167e-05)
(0 -0 9.40022e-05)
(0 7.96262e-24 0.00140071)
(0 -0 0.0017308)
(0 -0 0.0019858)
(0 -0 0.00212878)
(0 -0 0.00212716)
(0 -0 0.001976)
(0 -0 0.00170661)
(0 -0 0.00137516)
(0 -0 0.001041)
(0 -0 0.000748424)
(0 -0 0.000519237)
(0 -0 0.000355552)
(0 -0 0.000247425)
(0 -0 0.000180513)
(0 -0 0.000141193)
(0 -0 0.000118868)
(0 -0 0.000106315)
(0 -0 9.90761e-05)
(0 -0 9.46133e-05)
(0 -0 9.15766e-05)
(0 -0 8.92778e-05)
(0 -0 8.73476e-05)
(0 -0 8.56182e-05)
(-1.80741e-23 8.86819e-21 0.00114128)
(3.73902e-22 -8.42308e-21 0.00148261)
(1.04913e-23 -8.98878e-21 0.00117975)
(-9.17252e-23 3.0979e-19 0.00152298)
(1.8534e-22 -1.771e-20 0.00157226)
(5.98459e-22 -5.78443e-22 0.00130984)
(6.31901e-21 5.63201e-19 0.000792056)
(-1.7218e-20 -1.14348e-18 0.00014816)
(7.12238e-22 -2.03079e-20 2.65485e-05)
(-1.94611e-23 9.05294e-21 0.00121377)
(-2.33184e-22 -5.57159e-19 0.00155839)
(-1.41733e-21 -5.68279e-19 0.00160458)
(3.41427e-22 6.05696e-22 0.00133513)
(-1.20613e-20 -1.17645e-18 0.000806932)
(1.5413e-20 1.18528e-18 0.000146969)
(1.80867e-20 1.16873e-18 -7.80589e-05)
(1.89567e-22 -7.9269e-20 0.00124361)
(3.52028e-22 2.91447e-19 0.00158949)
(3.7794e-21 1.11748e-18 0.00163302)
(3.04355e-21 5.88302e-19 0.00135698)
(6.55848e-21 5.79129e-19 0.000819058)
(-3.01428e-20 -2.30816e-18 0.00014422)
(-3.93391e-20 -2.3788e-18 -0.000169795)
(-1.71014e-22 7.92972e-20 0.00126957)
(-6.45212e-23 9.04957e-21 0.00161679)
(-2.40921e-21 -5.84555e-19 0.00165784)
(-6.71005e-21 -1.15727e-18 0.00137594)
(-4.55142e-22 -9.23607e-22 0.000828729)
(9.93681e-21 5.98679e-19 0.000140137)
(2.05663e-20 1.1729e-18 -0.000250517)
(-1.27156e-22 6.14123e-20 0.00129196)
(2.06699e-23 2.64598e-20 0.0016405)
(-5.77148e-22 -3.00267e-19 0.00167948)
(6.43139e-21 1.13596e-18 0.00139211)
(1.57067e-22 -3.13584e-24 0.000836275)
(6.58209e-21 5.95009e-19 0.000135022)
(-1.13038e-21 -1.76029e-20 -0.000321828)
(2.38863e-22 -1.31719e-19 0.00131085)
(1.87347e-24 -8.82628e-21 0.00166082)
(7.97379e-22 2.65198e-19 0.00169812)
(-6.09527e-21 -1.13315e-18 0.00140581)
(3.94861e-21 5.68158e-19 0.000842033)
(5.36139e-21 6.08409e-19 0.000129135)
(-4.01686e-22 -1.77776e-20 -0.000385011)
(-1.28769e-22 7.02941e-20 0.00132593)
(-2.49102e-23 -7.30932e-24 0.00167757)
(-4.46376e-23 -1.0011e-22 0.00171369)
(3.0635e-21 5.66089e-19 0.00141713)
(-4.40285e-21 -5.85512e-19 0.000846187)
(-1.07882e-20 -1.12286e-18 0.000122688)
(-6.55526e-21 -5.73511e-19 -0.000441049)
(8.64194e-24 8.78779e-21 0.00133599)
(1.66346e-22 1.48988e-19 0.00168971)
(3.37193e-23 -2.35491e-23 0.00172543)
(-4.95898e-23 -4.44261e-23 0.00142561)
(3.67702e-21 5.46876e-19 0.000848616)
(1.07654e-20 1.15278e-18 0.000115839)
(1.31091e-20 1.12299e-18 -0.000490544)
(2.48448e-24 -8.78081e-21 0.00133799)
(-4.77694e-23 -1.31706e-19 0.00169442)
(6.37214e-23 -6.62227e-25 0.00173103)
(-1.2334e-21 -2.8092e-19 0.00142967)
(-3.72219e-21 -5.64407e-19 0.000848578)
(-4.03467e-22 1.65258e-20 0.000108669)
(-1.29455e-20 -1.15132e-18 -0.000533477)
(1.25508e-24 -3.93263e-23 0.00132533)
(-1.92505e-22 -1.22562e-19 0.00168549)
(-7.7207e-22 -2.80159e-19 0.00172529)
(1.04405e-21 2.46081e-19 0.00142566)
(2.74092e-22 3.51615e-20 0.000844274)
(-4.58319e-21 -5.63444e-19 0.000101317)
(6.14857e-21 5.46383e-19 -0.000568528)
(-2.52915e-23 -8.69952e-21 0.0012855)
(1.48127e-22 1.66619e-19 0.00165102)
(6.49458e-22 2.63021e-19 0.00169819)
(2.53689e-23 1.74595e-20 0.0014065)
(-8.91793e-23 -1.75452e-20 0.000832367)
(-4.3475e-21 -5.59698e-19 9.44431e-05)
(-1.24674e-22 4.81751e-23 -0.000591669)
(1.78969e-23 4.37447e-20 0.00119748)
(3.70158e-23 -8.7803e-21 0.00157092)
(-2.08558e-24 -1.74201e-20 0.00163283)
(1.36169e-21 2.79432e-19 0.00136051)
(-3.663e-23 -1.0167e-23 0.000807753)
(6.76849e-21 8.72221e-19 9.02269e-05)
(5.22553e-21 5.39039e-19 -0.000593956)
(1.73431e-23 -4.38107e-20 0.00103083)
(3.80479e-23 2.62729e-20 0.00141609)
(8.86404e-23 -1.92703e-22 0.00150486)
(-2.61387e-21 -5.93463e-19 0.00127118)
(9.54933e-23 1.75089e-20 0.000764158)
(-4.05935e-21 -5.38487e-19 9.38401e-05)
(-5.38994e-21 -5.71777e-19 -0.000559175)
(-9.16506e-24 8.75229e-21 0.00074985)
(4.16692e-23 8.67949e-21 0.00115237)
(-5.72828e-22 -1.39518e-19 0.00128597)
(1.08301e-21 2.79196e-19 0.00112006)
(-1.4634e-22 -1.74015e-20 0.000696136)
(2.25264e-21 2.94345e-19 0.000114616)
(-2.82101e-21 -2.92564e-19 -0.000463562)
(2.27997e-25 -8.75776e-21 0.000326177)
(-2.55596e-23 8.88329e-21 0.00075256)
(9.017e-22 2.61873e-19 0.000954025)
(7.88166e-23 -8.09201e-23 0.000893839)
(1.08514e-21 1.55733e-19 0.000602322)
(-2.34392e-21 -2.92802e-19 0.00016494)
(2.67585e-21 2.9155e-19 -0.000281446)
(-3.13986e-23 -8.70095e-21 -0.000239959)
(1.4885e-22 6.11419e-20 0.000216385)
(-3.88653e-22 -1.39765e-19 0.000509359)
(-7.45937e-23 -1.74173e-20 0.000594865)
(-1.80319e-21 -2.76505e-19 0.000488348)
(2.22277e-21 2.92312e-19 0.000254505)
(-4.425e-23 -1.71394e-20 1.44636e-07)
(2.33746e-23 1.75314e-20 -0.000898048)
(1.01604e-22 8.73387e-21 -0.000409718)
(2.97554e-22 6.97307e-20 -9.80727e-06)
(4.27858e-24 2.42301e-23 0.000249694)
(8.13317e-22 1.38104e-19 0.0003666)
(-7.64087e-23 -1.72235e-20 0.000379986)
(-1.35652e-21 -1.35507e-19 0.000361138)
(-1.73194e-24 -8.79712e-21 -0.00154185)
(-1.63085e-23 -1.75919e-20 -0.0010284)
(-3.49866e-22 -8.72477e-20 -0.000525405)
(1.07782e-22 1.74141e-20 -9.20166e-05)
(3.15534e-22 3.44269e-20 0.000251303)
(7.50022e-22 8.52291e-20 0.000516081)
(1.1113e-21 1.18139e-19 0.000736183)
(1.04297e-23 8.75532e-21 -0.00203545)
(-7.78517e-23 -2.62938e-20 -0.00151612)
(3.64309e-23 1.74458e-20 -0.00094056)
(-1.94769e-22 -3.46776e-20 -0.000372497)
(-1.15508e-22 -1.7205e-20 0.000151617)
(-3.8293e-22 -5.10279e-20 0.000618293)
(-1.11915e-22 -1.67544e-20 0.00102872)
(-3.48054e-21 2.75787e-19 7.05496e-05)
(-8.86395e-23 8.9238e-21 0.000614338)
(1.37672e-21 -1.78582e-20 0.000143863)
(-3.46769e-20 1.21108e-18 -0.000184416)
(1.36697e-20 -5.96443e-19 -0.000391819)
(5.49878e-24 2.07963e-22 -0.000470196)
(6.65402e-23 -1.78162e-20 -0.000315536)
(-4.01135e-22 2.65516e-20 8.94668e-05)
(7.77702e-23 -8.82631e-21 0.000645607)
(3.3047e-20 -1.19904e-18 8.33338e-05)
(2.81296e-20 -1.14463e-18 -0.00022018)
(-1.32125e-20 5.60048e-19 -0.000418042)
(1.28716e-22 -9.42592e-23 -0.000483189)
(-7.57081e-21 5.66793e-19 -0.000313211)
(-2.8619e-21 2.90976e-19 0.000106045)
(-6.97907e-23 8.80835e-21 0.000673227)
(-6.52346e-20 2.32957e-18 3.0573e-05)
(-5.76089e-20 2.33521e-18 -0.000252023)
(1.83833e-22 -1.57875e-21 -0.000441536)
(8.58571e-21 -5.51206e-19 -0.00049494)
(1.50846e-20 -1.15058e-18 -0.000311405)
(5.18926e-21 -5.55469e-19 0.000120616)
(-3.2734e-22 6.15693e-20 0.000697517)
(3.32524e-20 -1.16697e-18 -1.56219e-05)
(1.5935e-20 -5.60092e-19 -0.000280597)
(6.73562e-23 7.82921e-22 -0.000462847)
(-1.72769e-20 1.1186e-18 -0.000505865)
(-7.28193e-21 5.48158e-19 -0.000310299)
(-2.69323e-21 2.90945e-19 0.000133023)
(3.41799e-22 -6.17259e-20 0.000718483)
(-4.33388e-22 -1.86881e-20 -5.62285e-05)
(1.23961e-20 -5.56737e-19 -0.000306503)
(3.83368e-22 -8.72454e-23 -0.000482567)
(1.64607e-20 -1.13308e-18 -0.000516454)
(-2.621e-21 2.6463e-19 -0.000310212)
(-1.88904e-22 2.62671e-20 0.000143132)
(3.5066e-22 -7.89531e-20 0.000736271)
(-1.67358e-22 -1.85342e-20 -9.21479e-05)
(9.01795e-21 -5.35205e-19 -0.000330358)
(8.94341e-21 -5.65944e-19 -0.00050126)
(-1.52293e-20 1.13065e-18 -0.000527201)
(3.35598e-21 -3.00264e-19 -0.000311529)
(5.82364e-23 -8.6413e-21 0.00015075)
(-6.60793e-22 1.49186e-19 0.00075084)
(-1.08124e-20 5.71954e-19 -0.000124208)
(-2.10883e-20 1.15445e-18 -0.000352748)
(-8.88126e-21 5.47267e-19 -0.000519546)
(1.45927e-20 -1.12807e-18 -0.000538737)
(-1.16329e-22 6.63933e-22 -0.000314842)
(5.9733e-23 -1.3235e-23 0.000155358)
(3.17689e-22 -7.02452e-20 0.000761768)
(2.33413e-20 -1.15478e-18 -0.000153223)
(2.05346e-20 -1.11308e-18 -0.000374364)
(8.23965e-21 -5.79573e-19 -0.000538258)
(-7.84895e-21 5.63725e-19 -0.00055206)
(-5.26031e-23 -4.24756e-22 -0.000321293)
(6.57836e-22 -1.31324e-19 0.00015572)
(-5.44696e-23 8.82337e-21 0.000767791)
(-1.12822e-20 5.47526e-19 -0.000180096)
(-2.37159e-21 1.85936e-20 -0.00039617)
(-8.54933e-21 5.63096e-19 -0.000558739)
(-2.41981e-21 2.79995e-19 -0.000568983)
(-1.95529e-22 -1.4926e-22 -0.000333189)
(-1.01548e-21 1.49093e-19 0.000149095)
(4.16557e-23 -8.82919e-21 0.000765894)
(1.06693e-20 -5.77631e-19 -0.000205924)
(-9.63968e-21 5.62155e-19 -0.000419626)
(-2.69693e-24 3.43036e-20 -0.000583252)
(3.56702e-21 -3.15366e-19 -0.000592821)
(-1.91628e-21 2.80146e-19 -0.000355015)
(-6.61402e-22 1.57221e-19 0.00012992)
(8.40662e-25 -9.25565e-23 0.000749748)
(-1.10826e-21 1.66998e-21 -0.000232036)
(-6.67745e-21 5.58138e-19 -0.0004469)
(2.21771e-22 -1.80421e-20 -0.000615501)
(-1.80413e-22 1.72857e-20 -0.00062932)
(2.39603e-21 -2.9774e-19 -0.000394835)
(6.5464e-22 -1.13713e-19 8.79294e-05)
(4.76007e-23 -8.6895e-21 0.000707466)
(-8.45883e-22 -1.7183e-20 -0.00025986)
(1.12705e-20 -7.99956e-19 -0.000480955)
(1.32371e-23 6.09922e-22 -0.000661045)
(2.08895e-21 -2.78945e-19 -0.000687532)
(-6.81249e-23 -1.72385e-20 -0.000465709)
(-1.11337e-22 -8.7527e-21 6.20287e-06)
(2.17957e-23 -2.61909e-20 0.000619228)
(-8.80597e-21 5.35865e-19 -0.000290579)
(-8.19056e-21 5.70769e-19 -0.000525296)
(-1.57706e-22 1.72157e-20 -0.000727191)
(-4.57315e-21 5.22666e-19 -0.000779897)
(-1.83e-22 -4.12664e-22 -0.000586017)
(-3.46377e-22 9.61197e-20 -0.000139404)
(-6.80205e-23 2.61995e-20 0.000456507)
(-2.78962e-21 2.56925e-19 -0.000324711)
(3.68044e-21 -2.59336e-19 -0.000583208)
(3.12951e-22 -1.72903e-20 -0.000821693)
(2.81707e-21 -2.78453e-19 -0.000920252)
(-5.88178e-22 1.39673e-19 -0.000776707)
(2.73928e-22 -6.13829e-20 -0.000376822)
(-1.42585e-23 8.80003e-21 0.000185986)
(4.03711e-21 -2.55929e-19 -0.00036203)
(-3.06403e-21 2.57794e-19 -0.000656469)
(9.11262e-22 -1.21238e-19 -0.000949644)
(-2.01376e-22 -1.3912e-22 -0.00111838)
(1.72416e-21 -2.96458e-19 -0.0010533)
(-5.75799e-23 9.0152e-21 -0.000727436)
(2.53295e-23 8.72748e-21 -0.000218433)
(-2.69339e-22 -1.73189e-20 -0.000402141)
(3.4019e-21 -2.56779e-19 -0.000743666)
(-2.63403e-21 2.76325e-19 -0.00110851)
(1.11834e-22 -1.75343e-20 -0.00137095)
(-1.02935e-21 1.39577e-19 -0.00141237)
(1.52431e-23 -8.86883e-21 -0.00118856)
(4.99322e-23 -2.62849e-20 -0.000755322)
(-1.54943e-21 1.35099e-19 -0.000445139)
(-5.57486e-23 -1.75001e-20 -0.000838338)
(2.18577e-21 -2.06625e-19 -0.0012827)
(-7.05663e-23 1.63641e-22 -0.00165169)
(4.49593e-22 -6.96751e-20 -0.00181718)
(-8.39265e-23 8.85937e-21 -0.00171505)
(-3.79019e-23 1.00425e-23 -0.00137465)
(2.11154e-21 -1.51526e-19 -0.000490785)
(4.0962e-22 -5.07288e-20 -0.000927414)
(-9.00775e-22 6.88583e-20 -0.00144107)
(-6.96178e-23 1.72614e-20 -0.00190788)
(-2.04941e-22 1.74878e-20 -0.00219308)
(-5.81836e-23 1.75271e-20 -0.00221379)
(-1.74169e-23 8.75502e-21 -0.00197198)
(-5.67232e-24 -1.66399e-20 -0.000535699)
(-9.86895e-22 8.4891e-20 -0.000991355)
(-6.01334e-23 1.70103e-20 -0.00154168)
(2.64174e-22 -3.45953e-20 -0.00207077)
(-2.72883e-22 5.2379e-20 -0.00244384)
(-2.10685e-23 8.72238e-21 -0.00256523)
(-9.8287e-24 8.78075e-21 -0.00241327)
(0 -0 -6.97386e-07)
(0 -0 -7.12672e-07)
(0 -0 -4.63137e-07)
(0 -0 -7.76393e-08)
(0 -0 2.57724e-07)
(0 -0 3.98387e-07)
(0 -0 3.66226e-07)
(0 -0 2.18177e-07)
(0 -0 1.85203e-08)
(0 -0 -1.80805e-07)
(0 -0 -3.48524e-07)
(0 -0 -4.72157e-07)
(0 -0 -5.52501e-07)
(0 -0 -5.97503e-07)
(0 -0 -6.17212e-07)
(0 -0 -6.20791e-07)
(0 -0 -6.15151e-07)
(0 -0 -6.04806e-07)
(0 -0 -5.91129e-07)
(0 -0 -5.73295e-07)
(0 -0 -5.49948e-07)
(0 -0 -5.20572e-07)
(0 -0 -4.86465e-07)
(0 -0 -4.49973e-07)
(0 -0 -4.10958e-07)
(0 -0 -3.60212e-07)
(0 -0 -2.62207e-07)
(0 -0 -3.03696e-08)
(0 -0 4.17874e-07)
(0 -0 5.06308e-07)
(0 -0 -4.26894e-06)
(0 -0 -3.44366e-05)
(0 -0 -0.000165633)
(0 -9.90752e-24 -0.000753816)
(0 -0 -4.34611e-07)
(0 -0 -4.155e-07)
(0 -0 -2.06776e-07)
(0 -0 2.57636e-07)
(0 -0 6.82087e-07)
(0 -0 8.40712e-07)
(0 -0 7.61402e-07)
(0 -0 5.22641e-07)
(0 -0 2.14372e-07)
(0 -0 -8.91416e-08)
(0 -0 -3.42654e-07)
(0 -0 -5.28413e-07)
(0 -0 -6.49593e-07)
(0 -0 -7.19511e-07)
(0 -0 -7.54339e-07)
(0 -0 -7.68055e-07)
(0 -0 -7.70714e-07)
(0 -0 -7.68223e-07)
(0 -0 -7.62154e-07)
(0 -0 -7.516e-07)
(0 -0 -7.35021e-07)
(0 -0 -7.11433e-07)
(0 -0 -6.81046e-07)
(0 -0 -6.44766e-07)
(0 -0 -6.0193e-07)
(0 -0 -5.4289e-07)
(0 -0 -4.30733e-07)
(0 -0 -1.7347e-07)
(0 -0 3.33894e-07)
(0 -0 6.04631e-07)
(0 -0 -3.47414e-06)
(0 -0 -3.06542e-05)
(0 -0 -0.000148806)
(0 -8.507e-22 -0.000664898)
(0 -0 -2.19041e-07)
(0 -0 -2.66436e-07)
(0 -0 -8.36882e-08)
(0 -0 4.35706e-07)
(0 -0 8.94718e-07)
(0 -0 1.05626e-06)
(0 -0 9.52357e-07)
(0 -0 6.71264e-07)
(0 -0 3.13975e-07)
(0 -0 -3.62413e-08)
(0 -0 -3.27955e-07)
(0 -0 -5.41814e-07)
(0 -0 -6.82159e-07)
(0 -0 -7.65081e-07)
(0 -0 -8.09494e-07)
(0 -0 -8.3149e-07)
(0 -0 -8.42409e-07)
(0 -0 -8.48164e-07)
(0 -0 -8.50173e-07)
(0 -0 -8.47737e-07)
(0 -0 -8.39087e-07)
(0 -0 -8.22614e-07)
(0 -0 -7.97375e-07)
(0 -0 -7.63036e-07)
(0 -0 -7.17959e-07)
(0 -0 -6.51527e-07)
(0 -0 -5.26146e-07)
(0 -0 -2.45133e-07)
(0 -0 3.15484e-07)
(0 -0 7.44169e-07)
(0 -0 -2.73475e-06)
(0 -0 -2.73252e-05)
(0 -0 -0.000134112)
(0 1.72812e-21 -0.000588044)
(0 -0 -9.85692e-08)
(0 -0 -1.89998e-07)
(0 -0 -3.41158e-08)
(0 -0 4.61402e-07)
(0 -0 9.00525e-07)
(0 -0 1.05093e-06)
(0 -0 9.45999e-07)
(0 -0 6.71416e-07)
(0 -0 3.24685e-07)
(0 -0 -1.44576e-08)
(0 -0 -2.96319e-07)
(0 -0 -5.03358e-07)
(0 -0 -6.40145e-07)
(0 -0 -7.22695e-07)
(0 -0 -7.696e-07)
(0 -0 -7.96466e-07)
(0 -0 -8.13743e-07)
(0 -0 -8.26483e-07)
(0 -0 -8.36075e-07)
(0 -0 -8.41527e-07)
(0 -0 -8.41098e-07)
(0 -0 -8.32614e-07)
(0 -0 -8.14167e-07)
(0 -0 -7.84116e-07)
(0 -0 -7.39224e-07)
(0 -0 -6.67941e-07)
(0 -0 -5.31429e-07)
(0 -0 -2.28731e-07)
(0 -0 3.7885e-07)
(0 -0 9.43109e-07)
(0 -0 -2.01977e-06)
(0 -0 -2.43648e-05)
(0 -0 -0.000121251)
(0 -9.00546e-22 -0.000521388)
(0 -0 -4.75839e-08)
(0 -0 -1.81149e-07)
(0 -0 -8.49577e-08)
(0 -0 3.47007e-07)
(0 -0 7.40447e-07)
(0 -0 8.76652e-07)
(0 -0 7.89906e-07)
(0 -0 5.56624e-07)
(0 -0 2.61451e-07)
(0 -0 -2.67615e-08)
(0 -0 -2.66144e-07)
(0 -0 -4.42104e-07)
(0 -0 -5.58892e-07)
(0 -0 -6.30806e-07)
(0 -0 -6.73762e-07)
(0 -0 -7.01142e-07)
(0 -0 -7.214e-07)
(0 -0 -7.38457e-07)
(0 -0 -7.53166e-07)
(0 -0 -7.64448e-07)
(0 -0 -7.70618e-07)
(0 -0 -7.69163e-07)
(0 -0 -7.57064e-07)
(0 -0 -7.31268e-07)
(0 -0 -6.87007e-07)
(0 -0 -6.11253e-07)
(0 -0 -4.63611e-07)
(0 -0 -1.40171e-07)
(0 -0 5.09795e-07)
(0 -0 1.19206e-06)
(0 -0 -1.32544e-06)
(0 -0 -2.17192e-05)
(0 -0 -0.000109961)
(0 -1.42733e-23 -0.00046346)
(0 -0 -8.43643e-08)
(0 -0 -2.63634e-07)
(0 -0 -2.34361e-07)
(0 -0 1.26564e-07)
(0 -0 4.70449e-07)
(0 -0 5.95769e-07)
(0 -0 5.36527e-07)
(0 -0 3.59121e-07)
(0 -0 1.31787e-07)
(0 -0 -9.06301e-08)
(0 -0 -2.75404e-07)
(0 -0 -4.11215e-07)
(0 -0 -5.01618e-07)
(0 -0 -5.58162e-07)
(0 -0 -5.9381e-07)
(0 -0 -6.18676e-07)
(0 -0 -6.38996e-07)
(0 -0 -6.57575e-07)
(0 -0 -6.74665e-07)
(0 -0 -6.89686e-07)
(0 -0 -7.00765e-07)
(0 -0 -7.04719e-07)
(0 -0 -6.97828e-07)
(0 -0 -6.75647e-07)
(0 -0 -6.31607e-07)
(0 -0 -5.5146e-07)
(0 -0 -3.93753e-07)
(0 -0 -5.18499e-08)
(0 -0 6.3533e-07)
(0 -0 1.4188e-06)
(0 -0 -7.1575e-07)
(0 -0 -1.94119e-05)
(0 -0 -0.000100085)
(0 -1.5156e-23 -0.000413062)
(0 -0 -2.50305e-07)
(0 -0 -4.69093e-07)
(0 -0 -4.97272e-07)
(0 -0 -1.98151e-07)
(0 -0 1.03957e-07)
(0 -0 2.22437e-07)
(0 -0 1.91523e-07)
(0 -0 6.74821e-08)
(0 -0 -9.5723e-08)
(0 -0 -2.56891e-07)
(0 -0 -3.91106e-07)
(0 -0 -4.89536e-07)
(0 -0 -5.55495e-07)
(0 -0 -5.97294e-07)
(0 -0 -6.24951e-07)
(0 -0 -6.45664e-07)
(0 -0 -6.63941e-07)
(0 -0 -6.81747e-07)
(0 -0 -6.99426e-07)
(0 -0 -7.16327e-07)
(0 -0 -7.30221e-07)
(0 -0 -7.37945e-07)
(0 -0 -7.35061e-07)
(0 -0 -7.1555e-07)
(0 -0 -6.71829e-07)
(0 -0 -5.88899e-07)
(0 -0 -4.23928e-07)
(0 -0 -6.78624e-08)
(0 -0 6.48891e-07)
(0 -0 1.51625e-06)
(0 -0 -2.91019e-07)
(0 -0 -1.75108e-05)
(0 -0 -9.15453e-05)
(0 5.58328e-22 -0.000369243)
(0 -0 -6.45685e-07)
(0 -0 -8.92235e-07)
(0 -0 -9.62446e-07)
(0 -0 -7.09127e-07)
(0 -0 -4.37492e-07)
(0 -0 -3.22609e-07)
(0 -0 -3.29731e-07)
(0 -0 -4.11521e-07)
(0 -0 -5.24921e-07)
(0 -0 -6.38445e-07)
(0 -0 -7.33905e-07)
(0 -0 -8.04163e-07)
(0 -0 -8.51079e-07)
(0 -0 -8.81106e-07)
(0 -0 -9.01374e-07)
(0 -0 -9.17199e-07)
(0 -0 -9.32161e-07)
(0 -0 -9.47425e-07)
(0 -0 -9.63363e-07)
(0 -0 -9.79318e-07)
(0 -0 -9.93512e-07)
(0 -0 -1.00269e-06)
(0 -0 -1.00152e-06)
(0 -0 -9.83492e-07)
(0 -0 -9.40628e-07)
(0 -0 -8.56789e-07)
(0 -0 -6.88137e-07)
(0 -0 -3.23586e-07)
(0 -0 4.14721e-07)
(0 -0 1.35055e-06)
(0 -0 -1.78565e-07)
(0 -0 -1.6117e-05)
(0 -0 -8.43277e-05)
(0 -1.15249e-21 -0.000331283)
(0 -0 -1.4532e-06)
(0 -0 -1.71596e-06)
(0 -0 -1.8131e-06)
(0 -0 -1.59063e-06)
(0 -0 -1.33928e-06)
(0 -0 -1.22537e-06)
(0 -0 -1.21559e-06)
(0 -0 -1.26763e-06)
(0 -0 -1.3467e-06)
(0 -0 -1.42814e-06)
(0 -0 -1.49727e-06)
(0 -0 -1.54835e-06)
(0 -0 -1.58206e-06)
(0 -0 -1.60331e-06)
(0 -0 -1.61713e-06)
(0 -0 -1.62791e-06)
(0 -0 -1.638e-06)
(0 -0 -1.64814e-06)
(0 -0 -1.65907e-06)
(0 -0 -1.67052e-06)
(0 -0 -1.681e-06)
(0 -0 -1.68734e-06)
(0 -0 -1.68445e-06)
(0 -0 -1.66582e-06)
(0 -0 -1.62284e-06)
(0 -0 -1.53888e-06)
(0 -0 -1.36928e-06)
(0 -0 -9.99894e-07)
(0 -0 -2.44859e-07)
(0 -0 7.47563e-07)
(0 -0 -5.46656e-07)
(0 -0 -1.53812e-05)
(0 -0 -7.85058e-05)
(0 5.59936e-22 -0.000298722)
(0 -0 -2.89924e-06)
(0 -0 -3.16992e-06)
(0 -0 -3.28316e-06)
(0 -0 -3.08107e-06)
(0 -0 -2.84298e-06)
(0 -0 -2.72898e-06)
(0 -0 -2.70766e-06)
(0 -0 -2.74077e-06)
(0 -0 -2.79808e-06)
(0 -0 -2.85911e-06)
(0 -0 -2.91156e-06)
(0 -0 -2.94992e-06)
(0 -0 -2.97454e-06)
(0 -0 -2.98887e-06)
(0 -0 -2.99663e-06)
(0 -0 -3.00115e-06)
(0 -0 -3.00366e-06)
(0 -0 -3.0052e-06)
(0 -0 -3.00651e-06)
(0 -0 -3.0075e-06)
(0 -0 -3.00762e-06)
(0 -0 -3.00463e-06)
(0 -0 -2.99386e-06)
(0 -0 -2.96893e-06)
(0 -0 -2.92133e-06)
(0 -0 -2.83408e-06)
(0 -0 -2.66075e-06)
(0 -0 -2.28367e-06)
(0 -0 -1.51057e-06)
(0 -0 -4.676e-07)
(0 -0 -1.56539e-06)
(0 -0 -1.54707e-05)
(0 -0 -7.4227e-05)
(0 -6.36142e-22 -0.000271383)
(0 -0 -5.06164e-06)
(0 -0 -5.33685e-06)
(0 -0 -5.4611e-06)
(0 -0 -5.27379e-06)
(0 -0 -5.0451e-06)
(0 -0 -4.93184e-06)
(0 -0 -4.90357e-06)
(0 -0 -4.92519e-06)
(0 -0 -4.96932e-06)
(0 -0 -5.01761e-06)
(0 -0 -5.05898e-06)
(0 -0 -5.08837e-06)
(0 -0 -5.10567e-06)
(0 -0 -5.11315e-06)
(0 -0 -5.11359e-06)
(0 -0 -5.10887e-06)
(0 -0 -5.09982e-06)
(0 -0 -5.08703e-06)
(0 -0 -5.0709e-06)
(0 -0 -5.05248e-06)
(0 -0 -5.03246e-06)
(0 -0 -5.00926e-06)
(0 -0 -4.97897e-06)
(0 -0 -4.93613e-06)
(0 -0 -4.87233e-06)
(0 -0 -4.76966e-06)
(0 -0 -4.57974e-06)
(0 -0 -4.18205e-06)
(0 -0 -3.37955e-06)
(0 -0 -2.28368e-06)
(0 -0 -3.22372e-06)
(0 -0 -1.63986e-05)
(0 -0 -7.15705e-05)
(0 -1.96213e-23 -0.00024929)
(0 -0 -7.42012e-06)
(0 -0 -7.70124e-06)
(0 -0 -7.83532e-06)
(0 -0 -7.66186e-06)
(0 -0 -7.44352e-06)
(0 -0 -7.33345e-06)
(0 -0 -7.30294e-06)
(0 -0 -7.31886e-06)
(0 -0 -7.35546e-06)
(0 -0 -7.3958e-06)
(0 -0 -7.42914e-06)
(0 -0 -7.45104e-06)
(0 -0 -7.46084e-06)
(0 -0 -7.45979e-06)
(0 -0 -7.44973e-06)
(0 -0 -7.43112e-06)
(0 -0 -7.40387e-06)
(0 -0 -7.36773e-06)
(0 -0 -7.32371e-06)
(0 -0 -7.27381e-06)
(0 -0 -7.21929e-06)
(0 -0 -7.15947e-06)
(0 -0 -7.09182e-06)
(0 -0 -7.0115e-06)
(0 -0 -6.90997e-06)
(0 -0 -6.7686e-06)
(0 -0 -6.5376e-06)
(0 -0 -6.0943e-06)
(0 -0 -5.23957e-06)
(0 -0 -4.08262e-06)
(0 -0 -4.91707e-06)
(0 -0 -1.76279e-05)
(0 -0 -7.01928e-05)
(0 -3.75735e-23 -0.000232406)
(0 -0 -8.18962e-06)
(0 -0 -8.48033e-06)
(0 -0 -8.62746e-06)
(0 -0 -8.47112e-06)
(0 -0 -8.26712e-06)
(0 -0 -8.16516e-06)
(0 -0 -8.13808e-06)
(0 -0 -8.1542e-06)
(0 -0 -8.18855e-06)
(0 -0 -8.22472e-06)
(0 -0 -8.25277e-06)
(0 -0 -8.26809e-06)
(0 -0 -8.26955e-06)
(0 -0 -8.25798e-06)
(0 -0 -8.23351e-06)
(0 -0 -8.1952e-06)
(0 -0 -8.14204e-06)
(0 -0 -8.07357e-06)
(0 -0 -7.99106e-06)
(0 -0 -7.89665e-06)
(0 -0 -7.79211e-06)
(0 -0 -7.67783e-06)
(0 -0 -7.55209e-06)
(0 -0 -7.41039e-06)
(0 -0 -7.24461e-06)
(0 -0 -7.03605e-06)
(0 -0 -6.73401e-06)
(0 -0 -6.2151e-06)
(0 -0 -5.28371e-06)
(0 -0 -4.06657e-06)
(0 -0 -4.88881e-06)
(0 -0 -1.75334e-05)
(0 -0 -6.88217e-05)
(0 6.28106e-22 -0.000220167)
(0 -0 -3.91873e-06)
(0 -0 -4.22342e-06)
(0 -0 -4.38755e-06)
(0 -0 -4.25266e-06)
(0 -0 -4.06798e-06)
(0 -0 -3.98071e-06)
(0 -0 -3.96433e-06)
(0 -0 -3.98768e-06)
(0 -0 -4.02642e-06)
(0 -0 -4.06441e-06)
(0 -0 -4.09182e-06)
(0 -0 -4.10388e-06)
(0 -0 -4.09944e-06)
(0 -0 -4.07832e-06)
(0 -0 -4.03925e-06)
(0 -0 -3.98071e-06)
(0 -0 -3.90097e-06)
(0 -0 -3.79922e-06)
(0 -0 -3.67649e-06)
(0 -0 -3.53489e-06)
(0 -0 -3.37639e-06)
(0 -0 -3.20162e-06)
(0 -0 -3.0092e-06)
(0 -0 -2.79564e-06)
(0 -0 -2.55391e-06)
(0 -0 -2.2659e-06)
(0 -0 -1.88135e-06)
(0 -0 -1.27924e-06)
(0 -0 -2.7626e-07)
(0 -0 9.5423e-07)
(0 -0 -3.89196e-08)
(0 -0 -1.3221e-05)
(0 -0 -6.50494e-05)
(0 3.19013e-22 -0.000211156)
(0 -0 9.59672e-06)
(0 -0 9.27998e-06)
(0 -0 9.10055e-06)
(0 -0 9.21359e-06)
(0 -0 9.37604e-06)
(0 -0 9.44373e-06)
(0 -0 9.44276e-06)
(0 -0 9.40386e-06)
(0 -0 9.3514e-06)
(0 -0 9.30168e-06)
(0 -0 9.2647e-06)
(0 -0 9.24497e-06)
(0 -0 9.24376e-06)
(0 -0 9.26201e-06)
(0 -0 9.30088e-06)
(0 -0 9.36225e-06)
(0 -0 9.44832e-06)
(0 -0 9.55989e-06)
(0 -0 9.69616e-06)
(0 -0 9.85554e-06)
(0 -0 1.00367e-05)
(0 -0 1.02392e-05)
(0 -0 1.04635e-05)
(0 -0 1.07114e-05)
(0 -0 1.09879e-05)
(0 -0 1.13091e-05)
(0 -0 1.17224e-05)
(0 -0 1.23415e-05)
(0 -0 1.33252e-05)
(0 -0 1.4415e-05)
(0 -0 1.29172e-05)
(0 -0 -1.6518e-06)
(0 -0 -5.62881e-05)
(0 -3.17102e-22 -0.000203577)
(0 -0 3.41549e-05)
(0 -0 3.38437e-05)
(0 -0 3.36624e-05)
(0 -0 3.37635e-05)
(0 -0 3.39093e-05)
(0 -0 3.39587e-05)
(0 -0 3.39369e-05)
(0 -0 3.38749e-05)
(0 -0 3.37972e-05)
(0 -0 3.37204e-05)
(0 -0 3.36544e-05)
(0 -0 3.3603e-05)
(0 -0 3.35674e-05)
(0 -0 3.35477e-05)
(0 -0 3.35445e-05)
(0 -0 3.35592e-05)
(0 -0 3.35932e-05)
(0 -0 3.36467e-05)