/*--------------------------------*- C++ -*----------------------------------*\
| =========                 |                                                 |
| \\      /  F ield         | OpenFOAM: The Open Source CFD Toolbox           |
|  \\    /   O peration     | Version:  2412                                  |
|   \\  /    A nd           | Website:  www.openfoam.com                      |
|    \\/     M anipulation  |                                                 |
\*---------------------------------------------------------------------------*/
FoamFile
{
    version     2.0;
    format      ascii;
    arch        "LSB;label=32;scalar=64";
    class       volScalarField;
    location    "6.5";
    object      p;
}
// * * * * * * * * * * * * * * * * * * * * * * * * * * * * * * * * * * * * * //

dimensions      [0 2 -2 0 0 0 0];

internalField   nonuniform List<scalar> 
5285
(
-2.51544e-05
-2.3914e-05
-2.27135e-05
-2.15524e-05
-2.04301e-05
-1.93462e-05
-1.83001e-05
-1.72913e-05
-1.63193e-05
-1.53834e-05
-1.44833e-05
-1.36183e-05
-1.27878e-05
-1.19913e-05
-1.12283e-05
-1.04979e-05
-9.79976e-06
-9.13308e-06
-8.4972e-06
-7.89143e-06
-7.31509e-06
-6.76743e-06
-6.2477e-06
-5.75515e-06
-5.28899e-06
-4.8484e-06
-4.43261e-06
-4.04077e-06
-3.67207e-06
-3.32564e-06
-3.00064e-06
-2.46652e-05
-2.34458e-05
-2.2266e-05
-2.11251e-05
-2.00226e-05
-1.89581e-05
-1.79309e-05
-1.69404e-05
-1.59862e-05
-1.50678e-05
-1.41844e-05
-1.33357e-05
-1.2521e-05
-1.17397e-05
-1.09913e-05
-1.02751e-05
-9.59045e-06
-8.93676e-06
-8.31332e-06
-7.71946e-06
-7.15447e-06
-6.61765e-06
-6.10823e-06
-5.62549e-06
-5.16863e-06
-4.73686e-06
-4.3294e-06
-3.94543e-06
-3.58414e-06
-3.24469e-06
-2.92625e-06
-2.62799e-06
-2.34905e-06
-2.08863e-06
-1.84584e-06
-1.61986e-06
-1.40988e-06
-1.21502e-06
-1.03453e-06
-8.67523e-07
-7.13272e-07
-5.70882e-07
-4.39734e-07
-3.18881e-07
-2.07696e-07
-1.05417e-07
-1.11581e-08
7.55497e-08
1.55831e-07
2.2962e-07
2.99768e-07
3.6128e-07
4.30115e-07
4.67504e-07
5.74149e-07
5.08985e-07
8.32453e-07
3.15076e-07
1.52145e-06
-5.82109e-07
3.27766e-06
-2.79622e-06
6.35823e-06
-5.55613e-06
8.32743e-06
-4.42292e-06
3.6298e-06
4.97365e-06
-7.47161e-06
1.52473e-05
-1.14133e-05
-2.4164e-05
-2.29664e-05
-2.18078e-05
-2.06878e-05
-1.96057e-05
-1.8561e-05
-1.75532e-05
-1.65816e-05
-1.56458e-05
-1.47451e-05
-1.3879e-05
-1.3047e-05
-1.22484e-05
-1.14827e-05
-1.07492e-05
-1.00474e-05
-9.37666e-06
-8.73625e-06
-8.12553e-06
-7.54384e-06
-6.99047e-06
-6.46472e-06
-5.96584e-06
-5.49311e-06
-5.04574e-06
-4.62297e-06
-4.22402e-06
-3.84809e-06
-3.49437e-06
-3.16205e-06
-2.8503e-06
-2.55833e-06
-2.28527e-06
-2.03035e-06
-1.79268e-06
-1.57149e-06
-1.36595e-06
-1.17522e-06
-9.98541e-07
-8.35076e-07
-6.84093e-07
-5.44727e-07
-4.16354e-07
-2.98067e-07
-1.89238e-07
-8.91157e-08
3.14285e-09
8.80297e-08
1.6662e-07
2.38873e-07
3.07553e-07
3.67797e-07
4.35277e-07
4.71791e-07
5.76694e-07
5.11991e-07
8.31301e-07
3.19416e-07
1.51276e-06
-5.70348e-07
3.25433e-06
-2.77006e-06
6.31844e-06
-5.52303e-06
8.29452e-06
-4.41844e-06
3.6482e-06
4.91726e-06
-7.38005e-06
1.51339e-05
-1.12353e-05
-2.3651e-05
-2.24758e-05
-2.13392e-05
-2.02406e-05
-1.91795e-05
-1.81552e-05
-1.71673e-05
-1.62151e-05
-1.5298e-05
-1.44156e-05
-1.35671e-05
-1.27522e-05
-1.19701e-05
-1.12203e-05
-1.05022e-05
-9.81511e-06
-9.15848e-06
-8.53163e-06
-7.93392e-06
-7.36465e-06
-6.82313e-06
-6.30869e-06
-5.82057e-06
-5.35806e-06
-4.92039e-06
-4.5068e-06
-4.11654e-06
-3.7488e-06
-3.40281e-06
-3.07776e-06
-2.77284e-06
-2.48728e-06
-2.22022e-06
-1.9709e-06
-1.73847e-06
-1.52215e-06
-1.32114e-06
-1.13462e-06
-9.61839e-07
-8.01984e-07
-6.54335e-07
-5.18052e-07
-3.92511e-07
-2.7684e-07
-1.70412e-07
-7.24925e-08
1.77265e-08
1.00756e-07
1.77621e-07
2.48306e-07
3.1549e-07
3.74438e-07
4.40536e-07
4.76159e-07
5.79271e-07
5.15066e-07
8.30063e-07
3.23914e-07
1.50371e-06
-5.58094e-07
3.23004e-06
-2.74281e-06
6.27706e-06
-5.48867e-06
8.26037e-06
-4.41389e-06
3.66685e-06
4.85969e-06
-7.28753e-06
1.50193e-05
-1.1054e-05
-2.31264e-05
-2.19743e-05
-2.08602e-05
-1.97837e-05
-1.87441e-05
-1.77408e-05
-1.67733e-05
-1.58409e-05
-1.49431e-05
-1.40793e-05
-1.32489e-05
-1.24514e-05
-1.16862e-05
-1.09526e-05
-1.02502e-05
-9.57817e-06
-8.93599e-06
-8.323e-06
-7.73855e-06
-7.18196e-06
-6.65255e-06
-6.14963e-06
-5.67248e-06
-5.22039e-06
-4.79261e-06
-4.3884e-06
-4.00698e-06
-3.64761e-06
-3.30949e-06
-2.99186e-06
-2.6939e-06
-2.41487e-06
-2.15392e-06
-1.91032e-06
-1.68322e-06
-1.47187e-06
-1.27547e-06
-1.09324e-06
-9.24438e-07
-7.68262e-07
-6.2401e-07
-4.9087e-07
-3.68214e-07
-2.55209e-07
-1.51229e-07
-5.55545e-08
3.25865e-08
1.13724e-07
1.88829e-07
2.57915e-07
3.23576e-07
3.81201e-07
4.45888e-07
4.80608e-07
5.81878e-07
5.18208e-07
8.28735e-07
3.28578e-07
1.49427e-06
-5.45328e-07
3.20475e-06
-2.71444e-06
6.23404e-06
-5.45305e-06
8.22501e-06
-4.40932e-06
3.68577e-06
4.80099e-06
-7.19435e-06
1.49042e-05
-1.08699e-05
-2.25904e-05
-2.1462e-05
-2.03711e-05
-1.93172e-05
-1.82997e-05
-1.73179e-05
-1.63713e-05
-1.54592e-05
-1.45811e-05
-1.37364e-05
-1.29245e-05
-1.21448e-05
-1.13968e-05
-1.06799e-05
-9.99339e-06
-9.33674e-06
-8.7093e-06
-8.11044e-06
-7.53951e-06
-6.99585e-06
-6.47877e-06
-5.98761e-06
-5.52164e-06
-5.08018e-06
-4.66247e-06
-4.2678e-06
-3.8954e-06
-3.54455e-06
-3.21445e-06
-2.90438e-06
-2.61351e-06
-2.34114e-06
-2.08641e-06
-1.84863e-06
-1.62696e-06
-1.42066e-06
-1.22898e-06
-1.05111e-06
-8.86353e-07
-7.33925e-07
-5.93132e-07
-4.63191e-07
-3.43475e-07
-2.33184e-07
-1.31696e-07
-3.8309e-08
4.77167e-08
1.26926e-07
2.00238e-07
2.67697e-07
3.31806e-07
3.88082e-07
4.5133e-07
4.85133e-07
5.84512e-07
5.21419e-07
8.27313e-07
3.33412e-07
1.48444e-06
-5.3203e-07
3.17845e-06
-2.68493e-06
6.18938e-06
-5.41619e-06
8.18847e-06
-4.40481e-06
3.70497e-06
4.74124e-06
-7.10081e-06
1.47887e-05
-1.06836e-05
-2.20431e-05
-2.09391e-05
-1.98721e-05
-1.88414e-05
-1.78465e-05
-1.68867e-05
-1.59615e-05
-1.50701e-05
-1.42122e-05
-1.3387e-05
-1.25939e-05
-1.18325e-05
-1.11021e-05
-1.04021e-05
-9.73189e-06
-9.0909e-06
-8.4785e-06
-7.89404e-06
-7.33689e-06
-6.8064e-06
-6.30189e-06
-5.8227e-06
-5.36812e-06
-4.93747e-06
-4.53002e-06
-4.14507e-06
-3.78185e-06
-3.43967e-06
-3.11774e-06
-2.81535e-06
-2.5317e-06
-2.2661e-06
-2.01771e-06
-1.78585e-06
-1.56971e-06
-1.36856e-06
-1.18166e-06
-1.00824e-06
-8.47602e-07
-6.98987e-07
-5.61714e-07
-4.35028e-07
-3.18303e-07
-2.10774e-07
-1.11822e-07
-2.07637e-08
6.31105e-08
1.40357e-07
2.11844e-07
2.77646e-07
3.40177e-07
3.9508e-07
4.56858e-07
4.89735e-07
5.87169e-07
5.24699e-07
8.25791e-07
3.38423e-07
1.47419e-06
-5.18182e-07
3.15109e-06
-2.65425e-06
6.14305e-06
-5.37809e-06
8.15078e-06
-4.40043e-06
3.72447e-06
4.68048e-06
-7.00725e-06
1.46735e-05
-1.04959e-05
-2.14848e-05
-2.04058e-05
-1.93632e-05
-1.83564e-05
-1.73846e-05
-1.64474e-05
-1.5544e-05
-1.46739e-05
-1.38365e-05
-1.30312e-05
-1.22574e-05
-1.15146e-05
-1.08021e-05
-1.01194e-05
-9.46579e-06
-8.84076e-06
-8.24366e-06
-7.67388e-06
-7.13076e-06
-6.61368e-06
-6.12196e-06
-5.65496e-06
-5.21197e-06
-4.79233e-06
-4.39532e-06
-4.02025e-06
-3.66638e-06
-3.33301e-06
-3.01939e-06
-2.72482e-06
-2.44851e-06
-2.1898e-06
-1.94786e-06
-1.72202e-06
-1.5115e-06
-1.31559e-06
-1.13355e-06
-9.64652e-07
-8.082e-07
-6.63463e-07
-5.29769e-07
-4.06393e-07
-2.9271e-07
-1.87989e-07
-9.16165e-08
-2.92601e-09
7.87611e-08
1.54011e-07
2.23642e-07
2.87759e-07
3.48684e-07
4.0219e-07
4.6247e-07
4.9441e-07
5.89847e-07
5.28049e-07
8.24163e-07
3.43616e-07
1.46352e-06
-5.03765e-07
3.12266e-06
-2.62236e-06
6.09502e-06
-5.33876e-06
8.11198e-06
-4.39627e-06
3.74429e-06
4.61878e-06
-6.91402e-06
1.4559e-05
-1.03075e-05
-2.09156e-05
-1.98623e-05
-1.88448e-05
-1.78623e-05
-1.69143e-05
-1.6e-05
-1.5119e-05
-1.42706e-05
-1.34542e-05
-1.26692e-05
-1.19151e-05
-1.11912e-05
-1.0497e-05
-9.83184e-06
-9.19519e-06
-8.58641e-06
-8.00491e-06
-7.45005e-06
-6.92122e-06
-6.41778e-06
-5.93907e-06
-5.48446e-06
-5.05326e-06
-4.64482e-06
-4.25842e-06
-3.8934e-06
-3.54902e-06
-3.22462e-06
-2.91945e-06
-2.63283e-06
-2.36398e-06
-2.11227e-06
-1.87688e-06
-1.65716e-06
-1.45236e-06
-1.26176e-06
-1.08467e-06
-9.20361e-07
-7.68166e-07
-6.27369e-07
-4.97312e-07
-3.77298e-07
-2.66707e-07
-1.64838e-07
-7.10869e-08
1.51964e-08
9.46617e-08
1.67882e-07
2.35626e-07
2.9803e-07
3.57324e-07
4.09409e-07
4.68163e-07
4.99157e-07
5.92543e-07
5.31468e-07
8.22426e-07
3.48998e-07
1.4524e-06
-4.8876e-07
3.09311e-06
-2.58925e-06
6.04527e-06
-5.29822e-06
8.07211e-06
-4.39242e-06
3.76447e-06
4.55619e-06
-6.8215e-06
1.44457e-05
-1.01195e-05
-2.03358e-05
-1.93089e-05
-1.8317e-05
-1.73594e-05
-1.64356e-05
-1.55449e-05
-1.46867e-05
-1.38604e-05
-1.30655e-05
-1.23012e-05
-1.15671e-05
-1.08625e-05
-1.01869e-05
-9.53965e-06
-8.92021e-06
-8.32797e-06
-7.76232e-06
-7.22265e-06
-6.70834e-06
-6.21877e-06
-5.75329e-06
-5.31128e-06
-4.89206e-06
-4.495e-06
-4.11938e-06
-3.76457e-06
-3.42984e-06
-3.11455e-06
-2.81795e-06
-2.53941e-06
-2.27814e-06
-2.03353e-06
-1.8048e-06
-1.5913e-06
-1.3923e-06
-1.2071e-06
-1.03504e-06
-8.75389e-07
-7.27515e-07
-5.90719e-07
-4.64356e-07
-3.47757e-07
-2.40305e-07
-1.41333e-07
-5.02427e-08
3.35957e-08
1.10805e-07
1.81963e-07
2.47792e-07
3.08456e-07
3.66093e-07
4.16735e-07
4.73934e-07
5.03974e-07
5.95255e-07
5.34958e-07
8.20573e-07
3.54575e-07
1.44083e-06
-4.73149e-07
3.06243e-06
-2.55489e-06
5.99378e-06
-5.25648e-06
8.03123e-06
-4.38899e-06
3.78502e-06
4.49277e-06
-6.73007e-06
1.43341e-05
-9.93284e-06
-1.97456e-05
-1.87457e-05
-1.778e-05
-1.68479e-05
-1.59489e-05
-1.50822e-05
-1.42473e-05
-1.34436e-05
-1.26704e-05
-1.19272e-05
-1.12135e-05
-1.05286e-05
-9.87189e-06
-9.24288e-06
-8.64097e-06
-8.06554e-06
-7.51601e-06
-6.99177e-06
-6.49222e-06
-6.01674e-06
-5.56471e-06
-5.13549e-06
-4.72844e-06
-4.34292e-06
-3.97826e-06
-3.63381e-06
-3.30888e-06
-3.00284e-06
-2.71495e-06
-2.4446e-06
-2.19103e-06
-1.95363e-06
-1.73166e-06
-1.52446e-06
-1.33135e-06
-1.15163e-06
-9.84668e-07
-8.29754e-07
-6.86266e-07
-5.5353e-07
-4.30916e-07
-3.1778e-07
-2.13515e-07
-1.17482e-07
-2.90928e-08
5.22639e-08
1.27185e-07
1.9625e-07
2.60133e-07
3.19031e-07
3.74986e-07
4.24164e-07
4.79781e-07
5.08859e-07
5.97979e-07
5.38518e-07
8.186e-07
3.60352e-07
1.4288e-06
-4.56915e-07
3.03059e-06
-2.51926e-06
5.94053e-06
-5.21358e-06
7.98939e-06
-4.38608e-06
3.80601e-06
4.42859e-06
-6.64016e-06
1.42248e-05
-9.74879e-06
-1.91453e-05
-1.81729e-05
-1.7234e-05
-1.6328e-05
-1.54542e-05
-1.4612e-05
-1.38009e-05
-1.30201e-05
-1.22692e-05
-1.15475e-05
-1.08545e-05
-1.01896e-05
-9.55216e-06
-8.94168e-06
-8.35756e-06
-7.79922e-06
-7.26607e-06
-6.75751e-06
-6.27295e-06
-5.81178e-06
-5.37339e-06
-4.95716e-06
-4.56245e-06
-4.18867e-06
-3.83511e-06
-3.50119e-06
-3.1862e-06
-2.88954e-06
-2.61048e-06
-2.34844e-06
-2.10268e-06
-1.8726e-06
-1.65748e-06
-1.45668e-06
-1.26954e-06
-1.09538e-06
-9.3359e-07
-7.83475e-07
-6.44436e-07
-5.15818e-07
-3.97005e-07
-2.87383e-07
-1.86349e-07
-9.32966e-08
-7.64637e-09
7.11929e-08
1.43793e-07
2.10734e-07
2.72646e-07
3.29751e-07
3.84e-07
4.31692e-07
4.85699e-07
5.13809e-07
6.00712e-07
5.42148e-07
8.16501e-07
3.66335e-07
1.41628e-06
-4.40037e-07
2.99755e-06
-2.48232e-06
5.88551e-06
-5.16953e-06
7.94666e-06
-4.38381e-06
3.82748e-06
4.36371e-06
-6.55221e-06
1.41185e-05
-9.56873e-06
-1.85351e-05
-1.75909e-05
-1.66794e-05
-1.57999e-05
-1.49519e-05
-1.41347e-05
-1.33477e-05
-1.25903e-05
-1.1862e-05
-1.11622e-05
-1.04903e-05
-9.84566e-06
-9.22782e-06
-8.63616e-06
-8.07013e-06
-7.52913e-06
-7.0126e-06
-6.51996e-06
-6.05061e-06
-5.60396e-06
-5.17941e-06
-4.77636e-06
-4.39419e-06
-4.03229e-06
-3.69001e-06
-3.36675e-06
-3.06184e-06
-2.77469e-06
-2.5046e-06
-2.25098e-06
-2.01314e-06
-1.79047e-06
-1.58229e-06
-1.38798e-06
-1.2069e-06
-1.03837e-06
-8.81824e-07
-7.36573e-07
-6.02043e-07
-4.77598e-07
-3.62639e-07
-2.56577e-07
-1.58818e-07
-6.8787e-08
1.40874e-08
9.03747e-08
1.60623e-07
2.25411e-07
2.85324e-07
3.40612e-07
3.9313e-07
4.39316e-07
4.91687e-07
5.18823e-07
6.03453e-07
5.45849e-07
8.14271e-07
3.7253e-07
1.40327e-06
-4.225e-07
2.9633e-06
-2.44405e-06
5.8287e-06
-5.12436e-06
7.90311e-06
-4.38232e-06
3.84949e-06
4.29818e-06
-6.46666e-06
1.40156e-05
-9.39426e-06
-1.79152e-05
-1.69998e-05
-1.61162e-05
-1.52638e-05
-1.4442e-05
-1.36502e-05
-1.28879e-05
-1.21543e-05
-1.1449e-05
-1.07714e-05
-1.01209e-05
-9.49697e-06
-8.899e-06
-8.32645e-06
-7.77877e-06
-7.25538e-06
-6.75572e-06
-6.27922e-06
-5.8253e-06
-5.39338e-06
-4.98287e-06
-4.59318e-06
-4.2237e-06
-3.87386e-06
-3.543e-06
-3.23055e-06
-2.93586e-06
-2.65835e-06
-2.39733e-06
-2.15226e-06
-1.92243e-06
-1.70728e-06
-1.50614e-06
-1.3184e-06
-1.14344e-06
-9.80629e-07
-8.29391e-07
-6.89068e-07
-5.59105e-07
-4.38887e-07
-3.27831e-07
-2.25375e-07
-1.30935e-07
-4.39635e-08
3.60991e-08
1.09801e-07
1.77668e-07
2.40274e-07
2.98162e-07
3.51607e-07
4.02373e-07
4.47033e-07
4.97741e-07
5.23898e-07
6.06198e-07
5.4962e-07
8.11906e-07
3.78942e-07
1.38975e-06
-4.04285e-07
2.9278e-06
-2.40444e-06
5.77009e-06
-5.07812e-06
7.85882e-06
-4.38175e-06
3.87211e-06
4.23204e-06
-6.384e-06
1.3917e-05
-9.22714e-06
-1.7286e-05
-1.63999e-05
-1.55447e-05
-1.47199e-05
-1.39249e-05
-1.3159e-05
-1.24216e-05
-1.17123e-05
-1.10304e-05
-1.03754e-05
-9.74662e-06
-9.14362e-06
-8.56583e-06
-8.01267e-06
-7.48361e-06
-6.97808e-06
-6.49553e-06
-6.0354e-06
-5.59712e-06
-5.18012e-06
-4.78383e-06
-4.40768e-06
-4.05107e-06
-3.71344e-06
-3.39415e-06
-3.09266e-06
-2.80831e-06
-2.54056e-06
-2.28874e-06
-2.05231e-06
-1.8306e-06
-1.62306e-06
-1.42904e-06
-1.24796e-06
-1.07921e-06
-9.22175e-07
-7.76313e-07
-6.40979e-07
-5.1564e-07
-3.99701e-07
-2.92597e-07
-1.93791e-07
-1.0271e-07
-1.88367e-08
5.83794e-08
1.29463e-07
1.94919e-07
2.55316e-07
3.11154e-07
3.62734e-07
4.11724e-07
4.54838e-07
5.03858e-07
5.29033e-07
6.08944e-07
5.53461e-07
8.09401e-07
3.85575e-07
1.37572e-06
-3.85378e-07
2.89103e-06
-2.36346e-06
5.70967e-06
-5.03085e-06
7.8139e-06
-4.38227e-06
3.89545e-06
4.16536e-06
-6.30473e-06
1.38232e-05
-9.06935e-06
-1.66477e-05
-1.57915e-05
-1.49653e-05
-1.41685e-05
-1.34007e-05
-1.26611e-05
-1.19492e-05
-1.12645e-05
-1.06063e-05
-9.97416e-06
-9.36751e-06
-8.78579e-06
-8.22845e-06
-7.69496e-06
-7.18478e-06
-6.69735e-06
-6.23213e-06
-5.78859e-06
-5.36615e-06
-4.96427e-06
-4.58239e-06
-4.21995e-06
-3.87637e-06
-3.5511e-06
-3.24352e-06
-2.95312e-06
-2.67924e-06
-2.42137e-06
-2.17886e-06
-1.95118e-06
-1.73769e-06
-1.53785e-06
-1.35104e-06
-1.17669e-06
-1.01422e-06
-8.63036e-07
-7.22613e-07
-5.92326e-07
-4.71665e-07
-3.60057e-07
-2.56951e-07
-1.61839e-07
-7.41569e-08
6.58255e-09
8.09187e-08
1.49354e-07
2.1237e-07
2.7053e-07
3.24294e-07
3.73985e-07
4.21178e-07
4.62729e-07
5.10035e-07
5.34224e-07
6.11689e-07
5.57372e-07
8.06752e-07
3.92435e-07
1.36115e-06
-3.65763e-07
2.85297e-06
-2.3211e-06
5.64744e-06
-4.9826e-06
7.76844e-06
-4.38405e-06
3.91961e-06
4.09818e-06
-6.22936e-06
1.3735e-05
-8.92302e-06
-1.60006e-05
-1.51748e-05
-1.4378e-05
-1.36098e-05
-1.28696e-05
-1.21568e-05
-1.14707e-05
-1.08109e-05
-1.01769e-05
-9.568e-06
-8.98375e-06
-8.42359e-06
-7.887e-06
-7.37344e-06
-6.88238e-06
-6.41329e-06
-5.96564e-06
-5.53889e-06
-5.13249e-06
-4.74592e-06
-4.37862e-06
-4.03006e-06
-3.69966e-06
-3.3869e-06
-3.09118e-06
-2.81199e-06
-2.54871e-06
-2.30084e-06
-2.06774e-06
-1.84891e-06
-1.64373e-06
-1.45168e-06
-1.27216e-06
-1.10462e-06
-9.48509e-07
-8.03235e-07
-6.68313e-07
-5.43131e-07
-4.27201e-07
-3.19971e-07
-2.20909e-07
-1.29531e-07
-4.52864e-08
3.22836e-08
1.03708e-07
1.69463e-07
2.30013e-07
2.85911e-07
3.37578e-07
3.85357e-07
4.30733e-07
4.70701e-07
5.16268e-07
5.3947e-07
6.1443e-07
5.61352e-07
8.03952e-07
3.9953e-07
1.34603e-06
-3.45407e-07
2.81356e-06
-2.27729e-06
5.58332e-06
-4.93332e-06
7.72245e-06
-4.38718e-06
3.94462e-06
4.0305e-06
-6.15827e-06
1.36529e-05
-8.79019e-06
-1.53449e-05
-1.455e-05
-1.37833e-05
-1.30441e-05
-1.23319e-05
-1.16462e-05
-1.09864e-05
-1.0352e-05
-9.74237e-06
-9.15705e-06
-8.59551e-06
-8.0572e-06
-7.54163e-06
-7.04825e-06
-6.57656e-06
-6.12604e-06
-5.69616e-06
-5.2864e-06
-4.89624e-06
-4.52516e-06
-4.17261e-06
-3.83809e-06
-3.52103e-06
-3.22092e-06
-2.93719e-06
-2.66934e-06
-2.41677e-06
-2.179e-06
-1.95542e-06
-1.74555e-06
-1.54877e-06
-1.36459e-06
-1.19244e-06
-1.03178e-06
-8.82094e-07
-7.42798e-07
-6.13437e-07
-4.93414e-07
-3.82265e-07
-2.7946e-07
-1.84485e-07
-9.68811e-08
-1.61111e-08
5.82555e-08
1.26736e-07
1.89783e-07
2.47841e-07
3.01452e-07
3.50998e-07
3.96845e-07
4.40382e-07
4.78751e-07
5.22554e-07
5.44768e-07
6.17162e-07
5.65406e-07
8.0099e-07
4.06879e-07
1.33031e-06
-3.24237e-07
2.77267e-06
-2.23184e-06
5.51707e-06
-4.88276e-06
7.6757e-06
-4.39156e-06
3.97051e-06
3.96226e-06
-6.09162e-06
1.35771e-05
-8.67267e-06
-1.4681e-05
-1.39176e-05
-1.31813e-05
-1.24716e-05
-1.17879e-05
-1.11297e-05
-1.04965e-05
-9.88775e-06
-9.30291e-06
-8.74148e-06
-8.20293e-06
-7.68676e-06
-7.19246e-06
-6.71952e-06
-6.26744e-06
-5.8357e-06
-5.4238e-06
-5.03124e-06
-4.6575e-06
-4.30208e-06
-3.96445e-06
-3.64411e-06
-3.34053e-06
-3.05322e-06
-2.7816e-06
-2.52522e-06
-2.28348e-06
-2.05592e-06
-1.84196e-06
-1.64113e-06
-1.45284e-06
-1.27662e-06
-1.11191e-06
-9.58203e-07
-8.15008e-07
-6.81751e-07
-5.58006e-07
-4.43195e-07
-3.36877e-07
-2.38542e-07
-1.47696e-07
-6.39039e-08
1.33565e-08
8.44872e-08
1.49995e-07
2.10305e-07
2.65845e-07
3.17145e-07
3.6455e-07
4.08443e-07
4.50123e-07
4.86876e-07
5.28891e-07
5.50116e-07
6.19885e-07
5.69526e-07
7.97874e-07
4.14461e-07
1.31404e-06
-3.02335e-07
2.73046e-06
-2.185e-06
5.44907e-06
-4.83148e-06
7.62888e-06
-4.3979e-06
3.99768e-06
3.89354e-06
-6.03037e-06
1.3509e-05
-8.57342e-06
-1.40093e-05
-1.32777e-05
-1.25723e-05
-1.18925e-05
-1.12377e-05
-1.06074e-05
-1.00012e-05
-9.41845e-06
-8.85871e-06
-8.32146e-06
-7.8062e-06
-7.31244e-06
-6.83967e-06
-6.3874e-06
-5.95514e-06
-5.5424e-06
-5.14869e-06
-4.77351e-06
-4.41637e-06
-4.07677e-06
-3.75422e-06
-3.44822e-06
-3.15827e-06
-2.88387e-06
-2.6245e-06
-2.37969e-06
-2.14889e-06
-1.93165e-06
-1.7274e-06
-1.5357e-06
-1.35598e-06
-1.1878e-06
-1.03061e-06
-8.83922e-07
-7.47279e-07
-6.20119e-07
-5.02045e-07
-3.92497e-07
-2.91056e-07
-1.97234e-07
-1.10556e-07
-3.06136e-08
4.31032e-08
1.10967e-07
1.73473e-07
2.3102e-07
2.84018e-07
3.32984e-07
3.78227e-07
4.20146e-07
4.5995e-07
4.9507e-07
5.35278e-07
5.55502e-07
6.22617e-07
5.73666e-07
7.947e-07
4.22072e-07
1.29762e-06
-2.80432e-07
2.68817e-06
-2.13877e-06
5.38218e-06
-4.78317e-06
7.58606e-06
-4.40979e-06
4.02793e-06
3.82544e-06
-5.97888e-06
1.34548e-05
-8.49978e-06
-1.33439e-05
-1.26441e-05
-1.19693e-05
-1.13191e-05
-1.0693e-05
-1.00905e-05
-9.51098e-06
-8.95405e-06
-8.41919e-06
-7.90592e-06
-7.41373e-06
-6.94216e-06
-6.49071e-06
-6.05892e-06
-5.64629e-06
-5.25236e-06
-4.87664e-06
-4.51866e-06
-4.17795e-06
-3.85401e-06
-3.54638e-06
-3.25456e-06
-2.97808e-06
-2.71647e-06
-2.4692e-06
-2.23585e-06
-2.01586e-06
-1.80882e-06
-1.61417e-06
-1.4315e-06
-1.26026e-06
-1.10001e-06
-9.50258e-07
-8.10509e-07
-6.80343e-07
-5.59211e-07
-4.46742e-07
-3.42395e-07
-2.45774e-07
-1.56413e-07
-7.38547e-08
2.28377e-09
7.24983e-08
1.37133e-07
1.96672e-07
2.51489e-07
3.01974e-07
3.48632e-07
3.91738e-07
4.31705e-07
4.69655e-07
5.03159e-07
5.4158e-07
5.6081e-07
6.25304e-07
5.77724e-07
7.91568e-07
4.29475e-07
1.28154e-06
-2.593e-07
2.64726e-06
-2.09505e-06
5.31923e-06
-4.74074e-06
7.55033e-06
-4.42895e-06
4.06163e-06
3.76003e-06
-5.94074e-06
1.34191e-05
-8.45681e-06
-1.26791e-05
-1.20111e-05
-1.13671e-05
-1.07466e-05
-1.01492e-05
-9.57437e-06
-9.02164e-06
-8.49052e-06
-7.98054e-06
-7.49123e-06
-7.0221e-06
-6.57271e-06
-6.14256e-06
-5.73121e-06
-5.33819e-06
-4.96304e-06
-4.60529e-06
-4.26449e-06
-3.94016e-06
-3.63185e-06
-3.3391e-06
-3.06144e-06
-2.7984e-06
-2.54954e-06
-2.31435e-06
-2.09241e-06
-1.88321e-06
-1.68634e-06
-1.50127e-06
-1.3276e-06
-1.16482e-06
-1.01249e-06
-8.70148e-07
-7.37318e-07
-6.13609e-07
-4.98487e-07
-3.91607e-07
-2.92446e-07
-2.0063e-07
-1.15716e-07
-3.7266e-08
3.50798e-08
1.01803e-07
1.63218e-07
2.19799e-07
2.71892e-07
3.19873e-07
3.6423e-07
4.05205e-07
4.43226e-07
4.79323e-07
5.11223e-07
5.47836e-07
5.66137e-07
6.27861e-07
5.81991e-07
7.87913e-07
4.37836e-07
1.26357e-06
-2.34996e-07
2.60112e-06
-2.04389e-06
5.24641e-06
-4.68749e-06
7.50421e-06
-4.4415e-06
4.09297e-06
3.6913e-06
-5.89846e-06
1.33782e-05
-8.42016e-06
-1.19944e-05
-1.13592e-05
-1.07469e-05
-1.01571e-05
-9.58931e-06
-9.04308e-06
-8.51795e-06
-8.01344e-06
-7.52911e-06
-7.06449e-06
-6.61913e-06
-6.19258e-06
-5.78439e-06
-5.3941e-06
-5.02127e-06
-4.66545e-06
-4.32619e-06
-4.00306e-06
-3.69561e-06
-3.40339e-06
-3.12595e-06
-2.86285e-06
-2.61364e-06
-2.37789e-06
-2.15512e-06
-1.94494e-06
-1.74683e-06
-1.56042e-06
-1.3852e-06
-1.22079e-06
-1.06669e-06
-9.22508e-07
-7.87789e-07
-6.62075e-07
-5.45005e-07
-4.36062e-07
-3.34927e-07
-2.41098e-07
-1.54223e-07
-7.38816e-08
3.45893e-10
6.87927e-08
1.31925e-07
1.90031e-07
2.43571e-07
2.92865e-07
3.3827e-07
3.80261e-07
4.19045e-07
4.55065e-07
4.89254e-07
5.19509e-07
5.54246e-07
5.71627e-07
6.30411e-07
5.86495e-07
7.83838e-07
4.46973e-07
1.24399e-06
-2.08243e-07
2.55076e-06
-1.98741e-06
5.16653e-06
-4.62803e-06
7.45288e-06
-4.45329e-06
4.12532e-06
3.61928e-06
-5.85769e-06
1.334e-05
-8.39816e-06
-1.12894e-05
-1.0688e-05
-1.01085e-05
-9.55031e-06
-9.01308e-06
-8.49635e-06
-7.99966e-06
-7.52259e-06
-7.06469e-06
-6.62552e-06
-6.20464e-06
-5.80162e-06
-5.41602e-06
-5.04741e-06
-4.69536e-06
-4.35944e-06
-4.03923e-06
-3.73428e-06
-3.44419e-06
-3.16851e-06
-2.90683e-06
-2.65871e-06
-2.42372e-06
-2.20146e-06
-1.99146e-06
-1.79335e-06
-1.60665e-06
-1.431e-06
-1.2659e-06
-1.11101e-06
-9.6585e-07
-8.30033e-07
-7.03149e-07
-5.84748e-07
-4.74502e-07
-3.71911e-07
-2.7668e-07
-1.88331e-07
-1.06534e-07
-3.08915e-08
3.8996e-08
1.03436e-07
1.62879e-07
2.17583e-07
2.67998e-07
3.14414e-07
3.57173e-07
3.96731e-07
4.33263e-07
4.67224e-07
4.99453e-07
5.28017e-07
5.60821e-07
5.77264e-07
6.32995e-07
5.91148e-07
7.79523e-07
4.56523e-07
1.22345e-06
-1.80214e-07
2.49805e-06
-1.92846e-06
5.0835e-06
-4.56717e-06
7.40137e-06
-4.46863e-06
4.16064e-06
3.54535e-06
-5.82362e-06
1.33119e-05
-8.39872e-06
-1.05637e-05
-9.99731e-06
-9.45153e-06
-8.92599e-06
-8.42025e-06
-7.93392e-06
-7.46655e-06
-7.01775e-06
-6.58707e-06
-6.1741e-06
-5.77843e-06
-5.39963e-06
-5.0373e-06
-4.691e-06
-4.36034e-06
-4.0449e-06
-3.74427e-06
-3.45803e-06
-3.18579e-06
-2.92713e-06
-2.68164e-06
-2.44892e-06
-2.22856e-06
-2.02016e-06
-1.82329e-06
-1.6376e-06
-1.46263e-06
-1.29802e-06
-1.14334e-06
-9.98225e-07
-8.62244e-07
-7.35027e-07
-6.16193e-07
-5.05307e-07
-4.02072e-07
-3.06007e-07
-2.16843e-07
-1.34125e-07
-5.75441e-08
1.32708e-08
7.86995e-08
1.39023e-07
1.94675e-07
2.45885e-07
2.93089e-07
3.36548e-07
3.76589e-07
4.13647e-07
4.47865e-07
4.7971e-07
5.09923e-07
5.36748e-07
5.67563e-07
5.83042e-07
6.35624e-07
5.95925e-07
7.75009e-07
4.66408e-07
1.20207e-06
-1.51068e-07
2.44315e-06
-1.86718e-06
4.99732e-06
-4.50483e-06
7.34947e-06
-4.48736e-06
4.19885e-06
3.46936e-06
-5.79616e-06
1.32934e-05
-8.42191e-06
-9.81714e-06
-9.28675e-06
-8.77579e-06
-8.28386e-06
-7.81059e-06
-7.35557e-06
-6.91841e-06
-6.49871e-06
-6.09606e-06
-5.71008e-06
-5.34035e-06
-4.98648e-06
-4.64808e-06
-4.32474e-06
-4.01608e-06
-3.72169e-06
-3.4412e-06
-3.1742e-06
-2.92031e-06
-2.67914e-06
-2.4503e-06
-2.23341e-06
-2.02808e-06
-1.83393e-06
-1.65056e-06
-1.47762e-06
-1.31469e-06
-1.16145e-06
-1.01745e-06
-8.82388e-07
-7.55839e-07
-6.37456e-07
-5.2689e-07
-4.23724e-07
-3.2769e-07
-2.38328e-07
-1.55395e-07
-7.84591e-08
-7.236e-09
5.86207e-08
1.1947e-07
1.75566e-07
2.27325e-07
2.74946e-07
3.18852e-07
3.59275e-07
3.96523e-07
4.31013e-07
4.62854e-07
4.92525e-07
5.20668e-07
5.45704e-07
5.74476e-07
5.88959e-07
6.38306e-07
6.00809e-07
7.7032e-07
4.76588e-07
1.17988e-06
-1.20822e-07
2.38598e-06
-1.80332e-06
4.90741e-06
-4.44011e-06
7.29599e-06
-4.50845e-06
4.23935e-06
3.391e-06
-5.77426e-06
1.32828e-05
-8.46567e-06
-9.04937e-06
-8.55611e-06
-8.08101e-06
-7.62372e-06
-7.18388e-06
-6.76111e-06
-6.35504e-06
-5.96529e-06
-5.59149e-06
-5.23327e-06
-4.89023e-06
-4.56201e-06
-4.24822e-06
-3.94849e-06
-3.66245e-06
-3.38971e-06
-3.12992e-06
-2.88269e-06
-2.64767e-06
-2.42447e-06
-2.21274e-06
-2.01211e-06
-1.82222e-06
-1.64271e-06
-1.4732e-06
-1.31336e-06
-1.16281e-06
-1.02123e-06
-8.8821e-07
-7.63463e-07
-6.466e-07
-5.37288e-07
-4.35212e-07
-3.39972e-07
-2.51332e-07
-1.68851e-07
-9.23156e-08
-2.1317e-08
4.4406e-08
1.05172e-07
1.61321e-07
2.13076e-07
2.60838e-07
3.04776e-07
3.45296e-07
3.82601e-07
4.16982e-07
4.48834e-07
4.78237e-07
5.05673e-07
5.31691e-07
5.54885e-07
5.81564e-07
5.9501e-07
6.41052e-07
6.05778e-07
7.65492e-07
4.86997e-07
1.15695e-06
-8.95796e-08
2.32658e-06
-1.73683e-06
4.81347e-06
-4.37248e-06
7.24011e-06
-4.53116e-06
4.28164e-06
3.31006e-06
-5.75715e-06
1.32785e-05
-8.52769e-06
-8.26019e-06
-7.80516e-06
-7.36699e-06
-6.94536e-06
-6.53992e-06
-6.15033e-06
-5.77625e-06
-5.41733e-06
-5.07321e-06
-4.74353e-06
-4.42794e-06
-4.12608e-06
-3.8376e-06
-3.56214e-06
-3.29934e-06
-3.04885e-06
-2.81033e-06
-2.58342e-06
-2.36777e-06
-2.16304e-06
-1.96888e-06
-1.78496e-06
-1.61092e-06
-1.44644e-06
-1.29116e-06
-1.14478e-06
-1.00693e-06
-8.77317e-07
-7.55573e-07
-6.41417e-07
-5.34495e-07
-4.34494e-07
-3.41132e-07
-2.54028e-07
-1.72976e-07
-9.75587e-08
-2.7588e-08
3.73175e-08
9.73962e-08
1.52939e-07
2.04262e-07
2.51564e-07
2.95225e-07
3.35381e-07
3.72427e-07
4.06532e-07
4.37972e-07
4.67116e-07
4.94015e-07
5.19156e-07
5.42995e-07
5.64293e-07
5.8883e-07
6.01191e-07
6.43871e-07
6.10808e-07
7.60562e-07
4.97561e-07
1.1334e-06
-5.74873e-08
2.26508e-06
-1.66778e-06
4.71534e-06
-4.30153e-06
7.18115e-06
-4.55484e-06
4.32527e-06
3.22637e-06
-5.74415e-06
1.32792e-05
-8.60512e-06
-7.44941e-06
-7.03372e-06
-6.63354e-06
-6.24859e-06
-5.87854e-06
-5.52309e-06
-5.18191e-06
-4.85468e-06
-4.54106e-06
-4.24073e-06
-3.95336e-06
-3.67859e-06
-3.41611e-06
-3.16558e-06
-2.92667e-06
-2.69903e-06
-2.48235e-06
-2.2763e-06
-2.08055e-06
-1.89478e-06
-1.71867e-06
-1.55189e-06
-1.39412e-06
-1.24507e-06
-1.1044e-06
-9.71828e-07
-8.4701e-07
-7.29686e-07
-6.19508e-07
-5.16219e-07
-4.19498e-07
-3.29051e-07
-2.44629e-07
-1.65871e-07
-9.2604e-08
-2.44327e-08
3.88034e-08
9.74581e-08
1.51747e-07
2.01931e-07
2.48305e-07
2.91039e-07
3.30491e-07
3.6677e-07
4.00252e-07
4.31074e-07
4.59496e-07
4.85862e-07
5.10193e-07
5.32977e-07
5.54582e-07
5.73927e-07
5.96275e-07
6.07495e-07
6.46772e-07
6.15876e-07
7.55569e-07
5.08201e-07
1.10933e-06
-2.47026e-08
2.20161e-06
-1.59625e-06
4.61287e-06
-4.22687e-06
7.11837e-06
-4.57878e-06
4.36969e-06
3.13978e-06
-5.73442e-06
1.32832e-05
-8.69449e-06
-6.61687e-06
-6.24164e-06
-5.88052e-06
-5.53328e-06
-5.19961e-06
-4.87924e-06
-4.57188e-06
-4.27721e-06
-3.99495e-06
-3.72477e-06
-3.46637e-06
-3.21944e-06
-2.98366e-06
-2.75873e-06
-2.54434e-06
-2.34017e-06
-2.14592e-06
-1.96128e-06
-1.78595e-06
-1.61964e-06
-1.46204e-06
-1.31285e-06
-1.17179e-06
-1.03857e-06
-9.1288e-07
-7.94472e-07
-6.83024e-07
-5.78303e-07
-4.79988e-07
-3.87845e-07
-3.01586e-07
-2.20936e-07
-1.45682e-07
-7.54845e-08
-1.01999e-08
5.05406e-08
1.06871e-07
1.59116e-07
2.07468e-07
2.52158e-07
2.93458e-07
3.31507e-07
3.66645e-07
3.98948e-07
4.28775e-07
4.56231e-07
4.81559e-07
5.05075e-07
5.26773e-07
5.47138e-07
5.66452e-07
5.83788e-07
6.03903e-07
6.13918e-07
6.49765e-07
6.20958e-07
7.50552e-07
5.1884e-07
1.08484e-06
8.60631e-09
2.13633e-06
-1.52234e-06
4.50594e-06
-4.14812e-06
7.05101e-06
-4.60217e-06
4.4143e-06
3.05012e-06
-5.72704e-06
1.32885e-05
-8.79179e-06
-5.76247e-06
-5.4288e-06
-5.10782e-06
-4.79932e-06
-4.50303e-06
-4.2187e-06
-3.94606e-06
-3.68485e-06
-3.43477e-06
-3.19555e-06
-2.9669e-06
-2.74855e-06
-2.54018e-06
-2.34153e-06
-2.1523e-06
-1.9722e-06
-1.80096e-06
-1.63829e-06
-1.48392e-06
-1.33757e-06
-1.19895e-06
-1.06781e-06
-9.43879e-07
-8.26889e-07
-7.16568e-07
-6.12683e-07
-5.14946e-07
-4.23145e-07
-3.36992e-07
-2.56275e-07
-1.80741e-07
-1.10134e-07
-4.42785e-08
1.71454e-08
7.42481e-08
1.27372e-07
1.76626e-07
2.22301e-07
2.64569e-07
3.03627e-07
3.39726e-07
3.72975e-07
4.03691e-07
4.31919e-07
4.58e-07
4.82006e-07
5.04162e-07
5.24757e-07
5.43756e-07
5.61639e-07
5.78609e-07
5.93875e-07
6.11714e-07
6.20456e-07
6.52857e-07
6.2603e-07
7.45549e-07
5.29396e-07
1.06006e-06
4.22585e-08
2.06942e-06
-1.44622e-06
4.39446e-06
-4.06491e-06
6.97827e-06
-4.62417e-06
4.4584e-06
2.9573e-06
-5.72102e-06
1.3293e-05
-8.89261e-06
-4.88616e-06
-4.59516e-06
-4.31539e-06
-4.04666e-06
-3.78873e-06
-3.5414e-06
-3.30441e-06
-3.07752e-06
-2.86047e-06
-2.65303e-06
-2.45491e-06
-2.26586e-06
-2.08562e-06
-1.91392e-06
-1.7505e-06
-1.5951e-06
-1.44746e-06
-1.30732e-06
-1.17443e-06
-1.04853e-06
-9.29391e-07
-8.1675e-07
-7.10369e-07
-6.10017e-07
-5.15444e-07
-4.26444e-07
-3.42757e-07
-2.64196e-07
-1.90506e-07
-1.21497e-07
-5.69511e-08
3.36463e-09
5.95924e-08
1.12027e-07
1.60748e-07
2.06069e-07
2.48072e-07
2.87018e-07
3.23053e-07
3.56342e-07
3.87114e-07
4.15446e-07
4.41632e-07
4.65686e-07
4.87929e-07
5.08402e-07
5.27308e-07
5.4491e-07
5.61144e-07
5.76482e-07
5.91051e-07
6.04187e-07
6.19709e-07
6.27102e-07
6.56055e-07
6.31071e-07
7.40594e-07
5.39789e-07
1.03511e-06
7.60611e-08
2.00109e-06
-1.36807e-06
4.2784e-06
-3.97689e-06
6.89938e-06
-4.64386e-06
4.5012e-06
2.86123e-06
-5.71531e-06
1.32945e-05
-8.99234e-06
-3.98793e-06
-3.74071e-06
-3.50321e-06
-3.27527e-06
-3.05671e-06
-2.84732e-06
-2.64689e-06
-2.45521e-06
-2.27204e-06
-2.09718e-06
-1.93036e-06
-1.77137e-06
-1.61996e-06
-1.47589e-06
-1.33893e-06
-1.20884e-06
-1.08538e-06
-9.6833e-07
-8.57456e-07
-7.5253e-07
-6.53334e-07
-5.59645e-07
-4.7125e-07
-3.87942e-07
-3.09502e-07
-2.35747e-07
-1.66451e-07
-1.0145e-07
-4.05241e-08
1.6495e-08
6.97878e-08
1.19565e-07
1.65934e-07
2.09164e-07
2.49302e-07
2.86633e-07
3.21214e-07
3.53268e-07
3.82922e-07
4.10306e-07
4.35622e-07
4.58921e-07
4.80468e-07
5.0025e-07
5.18563e-07
5.35418e-07
5.50997e-07
5.65533e-07
5.78936e-07
5.91665e-07
6.03778e-07
6.14723e-07
6.27888e-07
6.33852e-07
6.59365e-07
6.36058e-07
7.35723e-07
5.49941e-07
1.01009e-06
1.09811e-07
1.93156e-06
-1.28812e-06
4.15777e-06
-3.8838e-06
6.81355e-06
-4.66032e-06
4.54183e-06
2.76191e-06
-5.70889e-06
1.32903e-05
-9.08627e-06
-3.06787e-06
-2.86551e-06
-2.67134e-06
-2.48522e-06
-2.30699e-06
-2.13649e-06
-1.97354e-06
-1.81794e-06
-1.6695e-06
-1.52801e-06
-1.39328e-06
-1.26508e-06
-1.14321e-06
-1.02745e-06