/*--------------------------------*- C++ -*----------------------------------*\
| =========                 |                                                 |
| \\      /  F ield         | OpenFOAM: The Open Source CFD Toolbox           |
|  \\    /   O peration     | Version:  2412                                  |
|   \\  /    A nd           | Website:  www.openfoam.com                      |
|    \\/     M anipulation  |                                                 |
\*---------------------------------------------------------------------------*/
FoamFile
{
    version     2.0;
    format      ascii;
    arch        "LSB;label=32;scalar=64";
    class       volVectorField;
    location    "6.5";
    object      vorticity;
}
// * * * * * * * * * * * * * * * * * * * * * * * * * * * * * * * * * * * * * //

dimensions      [0 0 -1 0 0 0 0];

internalField   nonuniform List<vector> 
5285
(
(0 -0 -1.43903e-07)
(0 -0 -2.79034e-08)
(0 -0 6.49609e-08)
(0 -0 1.35205e-07)
(0 -0 1.87141e-07)
(0 -0 2.2396e-07)
(0 -0 2.49889e-07)
(0 -0 2.68421e-07)
(0 -0 2.81645e-07)
(0 -0 2.90346e-07)
(0 -0 2.94925e-07)
(0 -0 2.95536e-07)
(0 -0 2.92475e-07)
(0 -0 2.86315e-07)
(0 -0 2.77083e-07)
(0 -0 2.65639e-07)
(0 -0 2.52614e-07)
(0 -0 2.39641e-07)
(0 -0 2.2558e-07)
(0 -0 2.10695e-07)
(0 -0 1.94954e-07)
(0 -0 1.79484e-07)
(0 -0 1.6461e-07)
(0 -0 1.49621e-07)
(0 -0 1.35227e-07)
(0 -0 1.22955e-07)
(0 -0 1.10664e-07)
(0 -0 9.92626e-08)
(0 -0 8.60613e-08)
(0 -0 7.58435e-08)
(0 -0 6.4277e-08)
(0 -0 -1.83647e-07)
(0 -0 -6.83654e-08)
(0 -0 1.8586e-08)
(0 -0 8.24634e-08)
(0 -0 1.30013e-07)
(0 -0 1.65878e-07)
(0 -0 1.94286e-07)
(0 -0 2.17197e-07)
(0 -0 2.34709e-07)
(0 -0 2.46826e-07)
(0 -0 2.53568e-07)
(0 -0 2.55074e-07)
(0 -0 2.52068e-07)
(0 -0 2.45645e-07)
(0 -0 2.36105e-07)
(0 -0 2.24436e-07)
(0 -0 2.11462e-07)
(0 -0 1.98496e-07)
(0 -0 1.84244e-07)
(0 -0 1.68608e-07)
(0 -0 1.51762e-07)
(0 -0 1.35175e-07)
(0 -0 1.19853e-07)
(0 -0 1.05202e-07)
(0 -0 9.13532e-08)
(0 -0 7.93513e-08)
(0 -0 6.7026e-08)
(0 -0 5.55466e-08)
(0 -0 4.26973e-08)
(0 -0 3.36715e-08)
(0 -0 2.19175e-08)
(0 -0 1.18566e-08)
(0 -0 1.71004e-09)
(0 -0 -2.44529e-09)
(0 -0 -1.03188e-08)
(0 -0 -1.75894e-08)
(0 -0 -2.38967e-08)
(0 -0 -3.14034e-08)
(0 -0 -3.70613e-08)
(0 -0 -4.59583e-08)
(0 -0 -4.80551e-08)
(0 -0 -5.28363e-08)
(0 -0 -5.8927e-08)
(0 -0 -6.03419e-08)
(0 -0 -6.8345e-08)
(0 -0 -7.00447e-08)
(0 -0 -7.62912e-08)
(0 -0 -7.66532e-08)
(0 -0 -7.72667e-08)
(0 -0 -8.58245e-08)
(0 -0 -8.53727e-08)
(0 -0 -8.61333e-08)
(0 -0 -9.26642e-08)
(0 -0 -9.27512e-08)
(0 -0 -9.33773e-08)
(0 -0 -9.67121e-08)
(0 -0 -1.07171e-07)
(0 -0 -1.00025e-07)
(0 -0 -1.14826e-07)
(0 -0 -9.50267e-08)
(0 -0 -1.42772e-07)
(0 -0 -6.62114e-08)
(0 -0 -2.04879e-07)
(0 -0 3.89513e-09)
(0 -0 -3.16019e-07)
(0 -0 1.21246e-07)
(0 -0 -6.73886e-07)
(0 -0 2.40088e-06)
(0 -0 -1.36692e-05)
(0 -0 5.22225e-05)
(0 -0 -0.000100329)
(0 -0 -2.54508e-07)
(0 -0 -1.38167e-07)
(0 -0 -5.56604e-08)
(0 -0 3.01107e-09)
(0 -0 4.70125e-08)
(0 -0 8.27358e-08)
(0 -0 1.14032e-07)
(0 -0 1.41346e-07)
(0 -0 1.6328e-07)
(0 -0 1.7884e-07)
(0 -0 1.87774e-07)
(0 -0 1.90409e-07)
(0 -0 1.87749e-07)
(0 -0 1.8117e-07)
(0 -0 1.71593e-07)
(0 -0 1.6016e-07)
(0 -0 1.47393e-07)
(0 -0 1.34238e-07)
(0 -0 1.19865e-07)
(0 -0 1.03716e-07)
(0 -0 8.59788e-08)
(0 -0 6.87896e-08)
(0 -0 5.3436e-08)
(0 -0 3.91011e-08)
(0 -0 2.58611e-08)
(0 -0 1.44636e-08)
(0 -0 2.05392e-09)
(0 -0 -9.49271e-09)
(0 -0 -2.17586e-08)
(0 -0 -2.95842e-08)
(0 -0 -4.13732e-08)
(0 -0 -5.12057e-08)
(0 -0 -6.2015e-08)
(0 -0 -6.7545e-08)
(0 -0 -7.66821e-08)
(0 -0 -8.39149e-08)
(0 -0 -8.98745e-08)
(0 -0 -9.70815e-08)
(0 -0 -1.02675e-07)
(0 -0 -1.1135e-07)
(0 -0 -1.14038e-07)
(0 -0 -1.17997e-07)
(0 -0 -1.23343e-07)
(0 -0 -1.25267e-07)
(0 -0 -1.32212e-07)
(0 -0 -1.34349e-07)
(0 -0 -1.4074e-07)
(0 -0 -1.42275e-07)
(0 -0 -1.42889e-07)
(0 -0 -1.5025e-07)
(0 -0 -1.50194e-07)
(0 -0 -1.51293e-07)
(0 -0 -1.57816e-07)
(0 -0 -1.57884e-07)
(0 -0 -1.5798e-07)
(0 -0 -1.60267e-07)
(0 -0 -1.71243e-07)
(0 -0 -1.64625e-07)
(0 -0 -1.79284e-07)
(0 -0 -1.58086e-07)
(0 -0 -2.08173e-07)
(0 -0 -1.25728e-07)
(0 -0 -2.73305e-07)
(0 -0 -4.84979e-08)
(0 -0 -3.87732e-07)
(0 -0 7.87362e-08)
(0 -0 -7.74981e-07)
(0 -0 2.53644e-06)
(0 -0 -1.47414e-05)
(0 -0 5.58639e-05)
(0 -0 -0.000106226)
(0 -0 -3.60987e-07)
(0 -0 -2.44327e-07)
(0 -0 -1.62053e-07)
(0 -0 -1.06297e-07)
(0 -0 -6.42749e-08)
(0 -0 -2.80672e-08)
(0 -0 6.08352e-09)
(0 -0 3.74228e-08)
(0 -0 6.32678e-08)
(0 -0 8.18987e-08)
(0 -0 9.2882e-08)
(0 -0 9.66705e-08)
(0 -0 9.4547e-08)
(0 -0 8.81074e-08)
(0 -0 7.87434e-08)
(0 -0 6.76645e-08)
(0 -0 5.52062e-08)
(0 -0 4.19489e-08)
(0 -0 2.75032e-08)
(0 -0 1.1027e-08)
(0 -0 -7.13679e-09)
(0 -0 -2.45285e-08)
(0 -0 -3.96943e-08)
(0 -0 -5.34625e-08)
(0 -0 -6.5964e-08)
(0 -0 -7.68382e-08)
(0 -0 -8.9206e-08)
(0 -0 -1.00617e-07)
(0 -0 -1.12118e-07)
(0 -0 -1.18907e-07)
(0 -0 -1.30422e-07)
(0 -0 -1.39887e-07)
(0 -0 -1.51115e-07)
(0 -0 -1.58218e-07)
(0 -0 -1.68318e-07)
(0 -0 -1.75586e-07)
(0 -0 -1.81251e-07)
(0 -0 -1.87956e-07)
(0 -0 -1.93478e-07)
(0 -0 -2.0147e-07)
(0 -0 -2.04736e-07)
(0 -0 -2.07975e-07)
(0 -0 -2.12413e-07)
(0 -0 -2.15055e-07)
(0 -0 -2.20517e-07)
(0 -0 -2.2302e-07)
(0 -0 -2.2915e-07)
(0 -0 -2.32062e-07)
(0 -0 -2.32657e-07)
(0 -0 -2.38371e-07)
(0 -0 -2.38875e-07)
(0 -0 -2.40541e-07)
(0 -0 -2.4639e-07)
(0 -0 -2.46797e-07)
(0 -0 -2.46424e-07)
(0 -0 -2.47554e-07)
(0 -0 -2.58275e-07)
(0 -0 -2.52473e-07)
(0 -0 -2.67016e-07)
(0 -0 -2.44534e-07)
(0 -0 -2.96226e-07)
(0 -0 -2.084e-07)
(0 -0 -3.6462e-07)
(0 -0 -1.22598e-07)
(0 -0 -4.83656e-07)
(0 -0 1.7791e-08)
(0 -0 -9.05412e-07)
(0 -0 2.67803e-06)
(0 -0 -1.59612e-05)
(0 -0 5.9894e-05)
(0 -0 -0.000112591)
(0 -0 -4.99575e-07)
(0 -0 -3.79861e-07)
(0 -0 -2.96047e-07)
(0 -0 -2.4101e-07)
(0 -0 -1.99586e-07)
(0 -0 -1.62545e-07)
(0 -0 -1.26064e-07)
(0 -0 -9.16762e-08)
(0 -0 -6.29305e-08)
(0 -0 -4.2025e-08)
(0 -0 -2.94818e-08)
(0 -0 -2.47463e-08)
(0 -0 -2.63228e-08)
(0 -0 -3.24965e-08)
(0 -0 -4.155e-08)
(0 -0 -5.22579e-08)
(0 -0 -6.44165e-08)
(0 -0 -7.77952e-08)
(0 -0 -9.23259e-08)
(0 -0 -1.08928e-07)
(0 -0 -1.27096e-07)
(0 -0 -1.44297e-07)
(0 -0 -1.59058e-07)
(0 -0 -1.72128e-07)
(0 -0 -1.83889e-07)
(0 -0 -1.94293e-07)
(0 -0 -2.06481e-07)
(0 -0 -2.17562e-07)
(0 -0 -2.28184e-07)
(0 -0 -2.34137e-07)
(0 -0 -2.45045e-07)
(0 -0 -2.54043e-07)
(0 -0 -2.65541e-07)
(0 -0 -2.74086e-07)
(0 -0 -2.84793e-07)
(0 -0 -2.92003e-07)
(0 -0 -2.97372e-07)
(0 -0 -3.03535e-07)
(0 -0 -3.08768e-07)
(0 -0 -3.15627e-07)
(0 -0 -3.19445e-07)
(0 -0 -3.21888e-07)
(0 -0 -3.25431e-07)
(0 -0 -3.28638e-07)
(0 -0 -3.32513e-07)
(0 -0 -3.35166e-07)
(0 -0 -3.40678e-07)
(0 -0 -3.44768e-07)
(0 -0 -3.45388e-07)
(0 -0 -3.49148e-07)
(0 -0 -3.50161e-07)
(0 -0 -3.52288e-07)
(0 -0 -3.57117e-07)
(0 -0 -3.57746e-07)
(0 -0 -3.57234e-07)
(0 -0 -3.57095e-07)
(0 -0 -3.66922e-07)
(0 -0 -3.61997e-07)
(0 -0 -3.761e-07)
(0 -0 -3.52337e-07)
(0 -0 -4.05168e-07)
(0 -0 -3.12133e-07)
(0 -0 -4.76793e-07)
(0 -0 -2.1667e-07)
(0 -0 -6.02128e-07)
(0 -0 -5.93302e-08)
(0 -0 -1.06288e-06)
(0 -0 2.83164e-06)
(0 -0 -1.73456e-05)
(0 -0 6.438e-05)
(0 -0 -0.00011947)
(0 -0 -6.48756e-07)
(0 -0 -5.26103e-07)
(0 -0 -4.40421e-07)
(0 -0 -3.8488e-07)
(0 -0 -3.43181e-07)
(0 -0 -3.0534e-07)
(0 -0 -2.67433e-07)
(0 -0 -2.31349e-07)
(0 -0 -2.01041e-07)
(0 -0 -1.78927e-07)
(0 -0 -1.65544e-07)
(0 -0 -1.60262e-07)
(0 -0 -1.61456e-07)
(0 -0 -1.67389e-07)
(0 -0 -1.76172e-07)
(0 -0 -1.86611e-07)
(0 -0 -1.98579e-07)
(0 -0 -2.1213e-07)
(0 -0 -2.26779e-07)
(0 -0 -2.43328e-07)
(0 -0 -2.61139e-07)
(0 -0 -2.77814e-07)
(0 -0 -2.92005e-07)
(0 -0 -3.04332e-07)
(0 -0 -3.15437e-07)
(0 -0 -3.2544e-07)
(0 -0 -3.37292e-07)
(0 -0 -3.47851e-07)
(0 -0 -3.57532e-07)
(0 -0 -3.62847e-07)
(0 -0 -3.72963e-07)
(0 -0 -3.81621e-07)
(0 -0 -3.92938e-07)
(0 -0 -4.02513e-07)
(0 -0 -4.13308e-07)
(0 -0 -4.20312e-07)
(0 -0 -4.25336e-07)
(0 -0 -4.30892e-07)
(0 -0 -4.35607e-07)
(0 -0 -4.41012e-07)
(0 -0 -4.45102e-07)
(0 -0 -4.46687e-07)
(0 -0 -4.49386e-07)
(0 -0 -4.52847e-07)
(0 -0 -4.55189e-07)
(0 -0 -4.57705e-07)
(0 -0 -4.62256e-07)
(0 -0 -4.67134e-07)
(0 -0 -4.67644e-07)
(0 -0 -4.69383e-07)
(0 -0 -4.70629e-07)
(0 -0 -4.72911e-07)
(0 -0 -4.76398e-07)
(0 -0 -4.77025e-07)
(0 -0 -4.76539e-07)
(0 -0 -4.75108e-07)
(0 -0 -4.83514e-07)
(0 -0 -4.79109e-07)
(0 -0 -4.92562e-07)
(0 -0 -4.67193e-07)
(0 -0 -5.20963e-07)
(0 -0 -4.22407e-07)
(0 -0 -5.95572e-07)
(0 -0 -3.16149e-07)
(0 -0 -7.28454e-07)
(0 -0 -1.38279e-07)
(0 -0 -1.23191e-06)
(0 -0 3.01619e-06)
(0 -0 -1.89017e-05)
(0 -0 6.94159e-05)
(0 -0 -0.000126904)
(0 -0 -7.66988e-07)
(0 -0 -6.4313e-07)
(0 -0 -5.56155e-07)
(0 -0 -4.99751e-07)
(0 -0 -4.57476e-07)
(0 -0 -4.19228e-07)
(0 -0 -3.81034e-07)
(0 -0 -3.44764e-07)
(0 -0 -3.14353e-07)
(0 -0 -2.92211e-07)
(0 -0 -2.7883e-07)
(0 -0 -2.73538e-07)
(0 -0 -2.74662e-07)
(0 -0 -2.8052e-07)
(0 -0 -2.89188e-07)
(0 -0 -2.99548e-07)
(0 -0 -3.11497e-07)
(0 -0 -3.25272e-07)
(0 -0 -3.40057e-07)
(0 -0 -3.56405e-07)
(0 -0 -3.73589e-07)
(0 -0 -3.89496e-07)
(0 -0 -4.0302e-07)
(0 -0 -4.14642e-07)
(0 -0 -4.25218e-07)
(0 -0 -4.34892e-07)
(0 -0 -4.46249e-07)
(0 -0 -4.56111e-07)
(0 -0 -4.64827e-07)
(0 -0 -4.69657e-07)
(0 -0 -4.78871e-07)
(0 -0 -4.87018e-07)
(0 -0 -4.97785e-07)
(0 -0 -5.07797e-07)
(0 -0 -5.18131e-07)
(0 -0 -5.24727e-07)
(0 -0 -5.29322e-07)
(0 -0 -5.3421e-07)
(0 -0 -5.38185e-07)
(0 -0 -5.41979e-07)
(0 -0 -5.45914e-07)
(0 -0 -5.46589e-07)
(0 -0 -5.48486e-07)
(0 -0 -5.51784e-07)
(0 -0 -5.52755e-07)
(0 -0 -5.54803e-07)
(0 -0 -5.58116e-07)
(0 -0 -5.63214e-07)
(0 -0 -5.6338e-07)
(0 -0 -5.63192e-07)
(0 -0 -5.64247e-07)
(0 -0 -5.66244e-07)
(0 -0 -5.68157e-07)
(0 -0 -5.68418e-07)
(0 -0 -5.67922e-07)
(0 -0 -5.65177e-07)
(0 -0 -5.71801e-07)
(0 -0 -5.67185e-07)
(0 -0 -5.79912e-07)
(0 -0 -5.52166e-07)
(0 -0 -6.07139e-07)
(0 -0 -5.01874e-07)
(0 -0 -6.8424e-07)
(0 -0 -3.83632e-07)
(0 -0 -8.24894e-07)
(0 -0 -1.8237e-07)
(0 -0 -1.37311e-06)
(0 -0 3.27254e-06)
(0 -0 -2.06142e-05)
(0 -0 7.51256e-05)
(0 -0 -0.000134921)
(0 -0 -7.76613e-07)
(0 -0 -6.53361e-07)
(0 -0 -5.6621e-07)
(0 -0 -5.09322e-07)
(0 -0 -4.66789e-07)
(0 -0 -4.28927e-07)
(0 -0 -3.91785e-07)
(0 -0 -3.5693e-07)
(0 -0 -3.27946e-07)
(0 -0 -3.07058e-07)
(0 -0 -2.94671e-07)
(0 -0 -2.90104e-07)
(0 -0 -2.91702e-07)
(0 -0 -2.97881e-07)
(0 -0 -3.06795e-07)
(0 -0 -3.17432e-07)
(0 -0 -3.29667e-07)
(0 -0 -3.43809e-07)
(0 -0 -3.58832e-07)
(0 -0 -3.74976e-07)
(0 -0 -3.91477e-07)
(0 -0 -4.06591e-07)
(0 -0 -4.19526e-07)
(0 -0 -4.30639e-07)
(0 -0 -4.40921e-07)
(0 -0 -4.50412e-07)
(0 -0 -4.61221e-07)
(0 -0 -4.70332e-07)
(0 -0 -4.78162e-07)
(0 -0 -4.8268e-07)
(0 -0 -4.91022e-07)
(0 -0 -4.98548e-07)
(0 -0 -5.08476e-07)
(0 -0 -5.18328e-07)
(0 -0 -5.27755e-07)
(0 -0 -5.33771e-07)
(0 -0 -5.37872e-07)
(0 -0 -5.4208e-07)
(0 -0 -5.45176e-07)
(0 -0 -5.47388e-07)
(0 -0 -5.50746e-07)
(0 -0 -5.50506e-07)
(0 -0 -5.51643e-07)
(0 -0 -5.54364e-07)
(0 -0 -5.54191e-07)
(0 -0 -5.55478e-07)
(0 -0 -5.57382e-07)
(0 -0 -5.62088e-07)
(0 -0 -5.61658e-07)
(0 -0 -5.59758e-07)
(0 -0 -5.60184e-07)
(0 -0 -5.61434e-07)
(0 -0 -5.61663e-07)
(0 -0 -5.61139e-07)
(0 -0 -5.60426e-07)
(0 -0 -5.56343e-07)
(0 -0 -5.60956e-07)
(0 -0 -5.55279e-07)
(0 -0 -5.67199e-07)
(0 -0 -5.36247e-07)
(0 -0 -5.92722e-07)
(0 -0 -4.79348e-07)
(0 -0 -6.71664e-07)
(0 -0 -3.47743e-07)
(0 -0 -8.19926e-07)
(0 -0 -1.20079e-07)
(0 -0 -1.41516e-06)
(0 -0 3.67653e-06)
(0 -0 -2.24322e-05)
(0 -0 8.16562e-05)
(0 -0 -0.000143509)
(0 -0 -5.47228e-07)
(0 -0 -4.26584e-07)
(0 -0 -3.40836e-07)
(0 -0 -2.84553e-07)
(0 -0 -2.42766e-07)
(0 -0 -2.06559e-07)
(0 -0 -1.7207e-07)
(0 -0 -1.40384e-07)
(0 -0 -1.14511e-07)
(0 -0 -9.6376e-08)
(0 -0 -8.62698e-08)
(0 -0 -8.35224e-08)
(0 -0 -8.65435e-08)
(0 -0 -9.38634e-08)
(0 -0 -1.03776e-07)
(0 -0 -1.15392e-07)
(0 -0 -1.28535e-07)
(0 -0 -1.43492e-07)
(0 -0 -1.59156e-07)
(0 -0 -1.75456e-07)
(0 -0 -1.91654e-07)
(0 -0 -2.06384e-07)
(0 -0 -2.19194e-07)
(0 -0 -2.30334e-07)
(0 -0 -2.40836e-07)
(0 -0 -2.50556e-07)
(0 -0 -2.61078e-07)
(0 -0 -2.69708e-07)
(0 -0 -2.77019e-07)
(0 -0 -2.81608e-07)
(0 -0 -2.89409e-07)
(0 -0 -2.96502e-07)
(0 -0 -3.05612e-07)
(0 -0 -3.14984e-07)
(0 -0 -3.23377e-07)
(0 -0 -3.28867e-07)
(0 -0 -3.32599e-07)
(0 -0 -3.36307e-07)
(0 -0 -3.38627e-07)
(0 -0 -3.39565e-07)
(0 -0 -3.42153e-07)
(0 -0 -3.41165e-07)
(0 -0 -3.41704e-07)
(0 -0 -3.43634e-07)
(0 -0 -3.42647e-07)
(0 -0 -3.43078e-07)
(0 -0 -3.43616e-07)
(0 -0 -3.47489e-07)
(0 -0 -3.4635e-07)
(0 -0 -3.43104e-07)
(0 -0 -3.4263e-07)
(0 -0 -3.42823e-07)
(0 -0 -3.41448e-07)
(0 -0 -3.39839e-07)
(0 -0 -3.38669e-07)
(0 -0 -3.33288e-07)
(0 -0 -3.35847e-07)
(0 -0 -3.2841e-07)
(0 -0 -3.39482e-07)
(0 -0 -3.04717e-07)
(0 -0 -3.62938e-07)
(0 -0 -2.40283e-07)
(0 -0 -4.43196e-07)
(0 -0 -9.39825e-08)
(0 -0 -5.99075e-07)
(0 -0 1.63251e-07)
(0 -0 -1.24493e-06)
(0 -0 4.34435e-06)
(0 -0 -2.42487e-05)
(0 -0 8.91479e-05)
(0 -0 -0.000152582)
(0 -0 1.1001e-07)
(0 -0 2.25781e-07)
(0 -0 3.08082e-07)
(0 -0 3.61977e-07)
(0 -0 4.01316e-07)
(0 -0 4.34055e-07)
(0 -0 4.6392e-07)
(0 -0 4.90393e-07)
(0 -0 5.11152e-07)
(0 -0 5.24633e-07)
(0 -0 5.30674e-07)
(0 -0 5.29925e-07)
(0 -0 5.23895e-07)
(0 -0 5.13952e-07)
(0 -0 5.01638e-07)
(0 -0 4.87725e-07)
(0 -0 4.72451e-07)
(0 -0 4.55612e-07)
(0 -0 4.38277e-07)
(0 -0 4.2077e-07)
(0 -0 4.03755e-07)
(0 -0 3.88257e-07)
(0 -0 3.74423e-07)
(0 -0 3.62081e-07)
(0 -0 3.50265e-07)
(0 -0 3.39322e-07)
(0 -0 3.28187e-07)
(0 -0 3.19119e-07)
(0 -0 3.11359e-07)
(0 -0 3.05781e-07)
(0 -0 2.97607e-07)
(0 -0 2.90153e-07)
(0 -0 2.81216e-07)
(0 -0 2.72e-07)
(0 -0 2.64127e-07)
(0 -0 2.58571e-07)
(0 -0 2.54594e-07)
(0 -0 2.50739e-07)
(0 -0 2.48581e-07)
(0 -0 2.48129e-07)
(0 -0 2.45962e-07)
(0 -0 2.47107e-07)
(0 -0 2.46638e-07)
(0 -0 2.4523e-07)
(0 -0 2.46402e-07)
(0 -0 2.4648e-07)
(0 -0 2.4684e-07)
(0 -0 2.43766e-07)
(0 -0 2.45339e-07)
(0 -0 2.49264e-07)
(0 -0 2.50483e-07)
(0 -0 2.51253e-07)
(0 -0 2.53788e-07)
(0 -0 2.56409e-07)
(0 -0 2.58035e-07)
(0 -0 2.64406e-07)
(0 -0 2.6358e-07)
(0 -0 2.73008e-07)
(0 -0 2.62543e-07)
(0 -0 3.01227e-07)
(0 -0 2.4083e-07)
(0 -0 3.73346e-07)
(0 -0 1.59001e-07)
(0 -0 5.34932e-07)
(0 -0 -5.51337e-09)
(0 -0 8.2419e-07)
(0 -0 -7.07968e-07)
(0 -0 5.42694e-06)
(0 -0 -2.58809e-05)
(0 -0 9.76661e-05)
(0 -0 -0.000161939)
(0 -0 1.42962e-06)
(0 -0 1.53812e-06)
(0 -0 1.61459e-06)
(0 -0 1.66378e-06)
(0 -0 1.69837e-06)
(0 -0 1.72531e-06)
(0 -0 1.74815e-06)
(0 -0 1.76695e-06)
(0 -0 1.78011e-06)
(0 -0 1.78644e-06)
(0 -0 1.78593e-06)
(0 -0 1.7792e-06)
(0 -0 1.7677e-06)
(0 -0 1.75272e-06)
(0 -0 1.73566e-06)
(0 -0 1.71719e-06)
(0 -0 1.69761e-06)
(0 -0 1.67681e-06)
(0 -0 1.65574e-06)
(0 -0 1.63489e-06)
(0 -0 1.61482e-06)
(0 -0 1.59628e-06)
(0 -0 1.57919e-06)
(0 -0 1.56343e-06)
(0 -0 1.5482e-06)
(0 -0 1.53403e-06)
(0 -0 1.5203e-06)
(0 -0 1.50879e-06)
(0 -0 1.49858e-06)
(0 -0 1.49011e-06)
(0 -0 1.47964e-06)
(0 -0 1.47002e-06)
(0 -0 1.45958e-06)
(0 -0 1.44909e-06)
(0 -0 1.44016e-06)
(0 -0 1.43298e-06)
(0 -0 1.42723e-06)
(0 -0 1.4217e-06)
(0 -0 1.41819e-06)
(0 -0 1.41661e-06)
(0 -0 1.41356e-06)
(0 -0 1.41347e-06)
(0 -0 1.41177e-06)
(0 -0 1.40975e-06)
(0 -0 1.40982e-06)
(0 -0 1.40926e-06)
(0 -0 1.40928e-06)
(0 -0 1.40611e-06)
(0 -0 1.40709e-06)
(0 -0 1.41043e-06)
(0 -0 1.41146e-06)
(0 -0 1.41234e-06)
(0 -0 1.41493e-06)
(0 -0 1.41773e-06)
(0 -0 1.41916e-06)
(0 -0 1.42557e-06)
(0 -0 1.42546e-06)
(0 -0 1.43622e-06)
(0 -0 1.42542e-06)
(0 -0 1.46722e-06)
(0 -0 1.40352e-06)
(0 -0 1.54541e-06)
(0 -0 1.31797e-06)
(0 -0 1.72088e-06)
(0 -0 1.14138e-06)
(0 -0 2.04225e-06)
(0 -0 3.72639e-07)
(0 -0 7.08548e-06)
(0 -0 -2.70624e-05)
(0 -0 0.000107089)
(0 -0 -0.000171211)
(0 -0 3.65315e-06)
(0 -0 3.75227e-06)
(0 -0 3.82061e-06)
(0 -0 3.8626e-06)
(0 -0 3.88985e-06)
(0 -0 3.90832e-06)
(0 -0 3.92137e-06)
(0 -0 3.92959e-06)
(0 -0 3.9321e-06)
(0 -0 3.92808e-06)
(0 -0 3.91765e-06)
(0 -0 3.9015e-06)
(0 -0 3.881e-06)
(0 -0 3.85742e-06)
(0 -0 3.83204e-06)
(0 -0 3.80548e-06)
(0 -0 3.77806e-06)
(0 -0 3.74983e-06)
(0 -0 3.72149e-06)
(0 -0 3.69365e-06)
(0 -0 3.66674e-06)
(0 -0 3.64134e-06)
(0 -0 3.61722e-06)
(0 -0 3.59433e-06)
(0 -0 3.57209e-06)
(0 -0 3.55112e-06)
(0 -0 3.53124e-06)
(0 -0 3.51369e-06)
(0 -0 3.49744e-06)
(0 -0 3.48264e-06)
(0 -0 3.46644e-06)
(0 -0 3.45134e-06)
(0 -0 3.43615e-06)
(0 -0 3.42133e-06)
(0 -0 3.40822e-06)
(0 -0 3.39636e-06)
(0 -0 3.38586e-06)
(0 -0 3.37574e-06)
(0 -0 3.36797e-06)
(0 -0 3.3623e-06)
(0 -0 3.35564e-06)
(0 -0 3.35159e-06)
(0 -0 3.3461e-06)
(0 -0 3.34095e-06)
(0 -0 3.33748e-06)
(0 -0 3.33386e-06)
(0 -0 3.3311e-06)
(0 -0 3.3256e-06)
(0 -0 3.32373e-06)
(0 -0 3.32416e-06)
(0 -0 3.32285e-06)
(0 -0 3.32178e-06)
(0 -0 3.32219e-06)
(0 -0 3.32313e-06)
(0 -0 3.32247e-06)
(0 -0 3.32683e-06)
(0 -0 3.32518e-06)
(0 -0 3.33521e-06)
(0 -0 3.32182e-06)
(0 -0 3.36445e-06)
(0 -0 3.29489e-06)
(0 -0 3.44394e-06)
(0 -0 3.2e-06)
(0 -0 3.62811e-06)
(0 -0 3.00341e-06)
(0 -0 3.97695e-06)
(0 -0 2.15297e-06)
(0 -0 9.44224e-06)
(0 -0 -2.74536e-05)
(0 -0 0.000116948)
(0 -0 -0.000179825)
(0 -0 6.96389e-06)
(0 -0 7.0526e-06)
(0 -0 7.11125e-06)
(0 -0 7.14402e-06)
(0 -0 7.16156e-06)
(0 -0 7.16892e-06)
(0 -0 7.16928e-06)
(0 -0 7.16372e-06)
(0 -0 7.15201e-06)
(0 -0 7.13372e-06)
(0 -0 7.10917e-06)
(0 -0 7.07911e-06)
(0 -0 7.04491e-06)
(0 -0 7.00785e-06)
(0 -0 6.96915e-06)
(0 -0 6.9294e-06)
(0 -0 6.88897e-06)
(0 -0 6.84802e-06)
(0 -0 6.80704e-06)
(0 -0 6.76668e-06)
(0 -0 6.72726e-06)
(0 -0 6.68923e-06)
(0 -0 6.65235e-06)
(0 -0 6.61664e-06)
(0 -0 6.58175e-06)
(0 -0 6.54837e-06)
(0 -0 6.51663e-06)
(0 -0 6.4873e-06)
(0 -0 6.45933e-06)
(0 -0 6.43267e-06)
(0 -0 6.40525e-06)
(0 -0 6.37927e-06)
(0 -0 6.35402e-06)
(0 -0 6.32966e-06)
(0 -0 6.30713e-06)
(0 -0 6.28552e-06)
(0 -0 6.26529e-06)
(0 -0 6.24569e-06)
(0 -0 6.2288e-06)
(0 -0 6.21422e-06)
(0 -0 6.19922e-06)
(0 -0 6.18662e-06)
(0 -0 6.17289e-06)
(0 -0 6.16022e-06)
(0 -0 6.14901e-06)
(0 -0 6.13811e-06)
(0 -0 6.12838e-06)
(0 -0 6.11646e-06)
(0 -0 6.10775e-06)
(0 -0 6.10132e-06)
(0 -0 6.09379e-06)
(0 -0 6.08698e-06)
(0 -0 6.08132e-06)
(0 -0 6.07652e-06)
(0 -0 6.07009e-06)
(0 -0 6.06847e-06)
(0 -0 6.06123e-06)
(0 -0 6.0664e-06)
(0 -0 6.04615e-06)
(0 -0 6.08512e-06)
(0 -0 6.00488e-06)
(0 -0 6.15626e-06)
(0 -0 5.88966e-06)
(0 -0 6.33801e-06)
(0 -0 5.65806e-06)
(0 -0 6.70217e-06)
(0 -0 4.70227e-06)
(0 -0 1.25093e-05)
(0 -0 -2.66765e-05)
(0 -0 0.000126256)
(0 -0 -0.000186979)
(0 -0 1.14066e-05)
(0 -0 1.14859e-05)
(0 -0 1.15349e-05)
(0 -0 1.15576e-05)
(0 -0 1.1564e-05)
(0 -0 1.15582e-05)
(0 -0 1.15432e-05)
(0 -0 1.15206e-05)
(0 -0 1.14908e-05)
(0 -0 1.14539e-05)
(0 -0 1.14102e-05)
(0 -0 1.13608e-05)
(0 -0 1.13071e-05)
(0 -0 1.12504e-05)
(0 -0 1.11918e-05)
(0 -0 1.11321e-05)
(0 -0 1.10716e-05)
(0 -0 1.10107e-05)
(0 -0 1.09496e-05)
(0 -0 1.08891e-05)
(0 -0 1.08293e-05)
(0 -0 1.07707e-05)
(0 -0 1.0713e-05)
(0 -0 1.06564e-05)
(0 -0 1.06009e-05)
(0 -0 1.0547e-05)
(0 -0 1.04951e-05)
(0 -0 1.04457e-05)
(0 -0 1.03978e-05)
(0 -0 1.03512e-05)
(0 -0 1.03046e-05)
(0 -0 1.02598e-05)
(0 -0 1.02166e-05)
(0 -0 1.01749e-05)
(0 -0 1.01352e-05)
(0 -0 1.00963e-05)
(0 -0 1.00589e-05)
(0 -0 1.00224e-05)
(0 -0 9.98911e-06)
(0 -0 9.95838e-06)
(0 -0 9.92785e-06)
(0 -0 9.89971e-06)
(0 -0 9.87091e-06)
(0 -0 9.84394e-06)
(0 -0 9.81851e-06)
(0 -0 9.79381e-06)
(0 -0 9.77071e-06)
(0 -0 9.74596e-06)
(0 -0 9.72417e-06)
(0 -0 9.70478e-06)
(0 -0 9.68491e-06)
(0 -0 9.66633e-06)
(0 -0 9.64849e-06)
(0 -0 9.63178e-06)
(0 -0 9.61346e-06)
(0 -0 9.59952e-06)
(0 -0 9.58017e-06)
(0 -0 9.5737e-06)
(0 -0 9.53961e-06)
(0 -0 9.56753e-06)
(0 -0 9.46864e-06)
(0 -0 9.61411e-06)
(0 -0 9.31484e-06)
(0 -0 9.77422e-06)
(0 -0 9.02359e-06)
(0 -0 1.01313e-05)
(0 -0 7.92813e-06)
(0 -0 1.61111e-05)
(0 -0 -2.43717e-05)
(0 -0 0.000133365)
(0 -0 -0.000191666)
(0 -0 1.68178e-05)
(0 -0 1.68915e-05)
(0 -0 1.69333e-05)
(0 -0 1.69472e-05)
(0 -0 1.69424e-05)
(0 -0 1.69224e-05)
(0 -0 1.68902e-05)
(0 -0 1.68477e-05)
(0 -0 1.6796e-05)
(0 -0 1.67357e-05)
(0 -0 1.66675e-05)
(0 -0 1.65927e-05)
(0 -0 1.65127e-05)
(0 -0 1.64289e-05)
(0 -0 1.63425e-05)
(0 -0 1.62543e-05)
(0 -0 1.61649e-05)
(0 -0 1.60748e-05)
(0 -0 1.59841e-05)
(0 -0 1.58936e-05)
(0 -0 1.58034e-05)
(0 -0 1.5714e-05)
(0 -0 1.56252e-05)
(0 -0 1.55373e-05)
(0 -0 1.54505e-05)
(0 -0 1.53653e-05)
(0 -0 1.52825e-05)
(0 -0 1.5202e-05)
(0 -0 1.51232e-05)
(0 -0 1.50459e-05)
(0 -0 1.49692e-05)
(0 -0 1.4895e-05)
(0 -0 1.48232e-05)
(0 -0 1.47536e-05)
(0 -0 1.46862e-05)
(0 -0 1.46197e-05)
(0 -0 1.4555e-05)
(0 -0 1.44916e-05)
(0 -0 1.44318e-05)
(0 -0 1.4375e-05)
(0 -0 1.4319e-05)
(0 -0 1.42656e-05)
(0 -0 1.42122e-05)
(0 -0 1.41615e-05)
(0 -0 1.41127e-05)
(0 -0 1.40651e-05)
(0 -0 1.40197e-05)
(0 -0 1.39731e-05)
(0 -0 1.39294e-05)
(0 -0 1.38885e-05)
(0 -0 1.38476e-05)
(0 -0 1.38086e-05)
(0 -0 1.37699e-05)
(0 -0 1.37324e-05)
(0 -0 1.36933e-05)
(0 -0 1.36578e-05)
(0 -0 1.3617e-05)
(0 -0 1.3589e-05)
(0 -0 1.35309e-05)
(0 -0 1.3537e-05)
(0 -0 1.34078e-05)
(0 -0 1.3535e-05)
(0 -0 1.31886e-05)
(0 -0 1.36448e-05)
(0 -0 1.28016e-05)
(0 -0 1.39603e-05)
(0 -0 1.152e-05)
(0 -0 1.98303e-05)
(0 -0 -2.02645e-05)
(0 -0 0.00013595)
(0 -0 -0.000192736)
(0 -0 2.28011e-05)
(0 -0 2.28763e-05)
(0 -0 2.2916e-05)
(0 -0 2.29245e-05)
(0 -0 2.29104e-05)
(0 -0 2.28767e-05)
(0 -0 2.28263e-05)
(0 -0 2.27616e-05)
(0 -0 2.26846e-05)
(0 -0 2.25963e-05)
(0 -0 2.2498e-05)
(0 -0 2.23912e-05)
(0 -0 2.22775e-05)
(0 -0 2.21583e-05)
(0 -0 2.2035e-05)
(0 -0 2.19086e-05)
(0 -0 2.17798e-05)
(0 -0 2.16495e-05)
(0 -0 2.15179e-05)
(0 -0 2.13859e-05)
(0 -0 2.12535e-05)
(0 -0 2.1121e-05)
(0 -0 2.09887e-05)
(0 -0 2.08568e-05)
(0 -0 2.07258e-05)
(0 -0 2.05963e-05)
(0 -0 2.04691e-05)
(0 -0 2.03441e-05)
(0 -0 2.02209e-05)
(0 -0 2.00995e-05)
(0 -0 1.99795e-05)
(0 -0 1.98626e-05)
(0 -0 1.9749e-05)
(0 -0 1.96384e-05)
(0 -0 1.95304e-05)
(0 -0 1.94235e-05)
(0 -0 1.93187e-05)
(0 -0 1.92157e-05)
(0 -0 1.91168e-05)
(0 -0 1.90213e-05)
(0 -0 1.89273e-05)
(0 -0 1.88364e-05)
(0 -0 1.87461e-05)
(0 -0 1.86596e-05)
(0 -0 1.85759e-05)
(0 -0 1.84937e-05)
(0 -0 1.84145e-05)
(0 -0 1.83345e-05)
(0 -0 1.82576e-05)
(0 -0 1.8184e-05)
(0 -0 1.81108e-05)
(0 -0 1.80404e-05)
(0 -0 1.79695e-05)
(0 -0 1.78996e-05)
(0 -0 1.78279e-05)
(0 -0 1.77589e-05)
(0 -0 1.76841e-05)
(0 -0 1.76218e-05)
(0 -0 1.75262e-05)
(0 -0 1.74961e-05)
(0 -0 1.73212e-05)
(0 -0 1.7414e-05)
(0 -0 1.70012e-05)
(0 -0 1.7435e-05)
(0 -0 1.64707e-05)
(0 -0 1.76622e-05)
(0 -0 1.49448e-05)
(0 -0 2.30135e-05)
(0 -0 -1.42194e-05)
(0 -0 0.000131174)
(0 -0 -0.000189016)
(0 -0 2.87767e-05)
(0 -0 2.88633e-05)
(0 -0 2.89085e-05)
(0 -0 2.8917e-05)
(0 -0 2.88972e-05)
(0 -0 2.88515e-05)
(0 -0 2.87828e-05)
(0 -0 2.86944e-05)
(0 -0 2.85889e-05)
(0 -0 2.84683e-05)
(0 -0 2.83344e-05)
(0 -0 2.81889e-05)
(0 -0 2.80338e-05)
(0 -0 2.78705e-05)
(0 -0 2.77005e-05)
(0 -0 2.75251e-05)
(0 -0 2.73454e-05)
(0 -0 2.71629e-05)
(0 -0 2.6978e-05)
(0 -0 2.67917e-05)
(0 -0 2.66039e-05)
(0 -0 2.6415e-05)
(0 -0 2.62253e-05)
(0 -0 2.60352e-05)
(0 -0 2.58456e-05)
(0 -0 2.56569e-05)
(0 -0 2.54702e-05)
(0 -0 2.52855e-05)
(0 -0 2.51028e-05)
(0 -0 2.49223e-05)
(0 -0 2.47437e-05)
(0 -0 2.45691e-05)
(0 -0 2.43986e-05)
(0 -0 2.42319e-05)
(0 -0 2.40685e-05)
(0 -0 2.39065e-05)
(0 -0 2.37471e-05)
(0 -0 2.35898e-05)
(0 -0 2.34372e-05)
(0 -0 2.32884e-05)
(0 -0 2.31418e-05)
(0 -0 2.29989e-05)
(0 -0 2.28576e-05)
(0 -0 2.27212e-05)
(0 -0 2.25888e-05)
(0 -0 2.24584e-05)
(0 -0 2.2332e-05)
(0 -0 2.2205e-05)
(0 -0 2.20816e-05)
(0 -0 2.1962e-05)
(0 -0 2.18433e-05)
(0 -0 2.17281e-05)
(0 -0 2.16116e-05)
(0 -0 2.14955e-05)
(0 -0 2.13772e-05)
(0 -0 2.12602e-05)
(0 -0 2.11369e-05)
(0 -0 2.10247e-05)
(0 -0 2.08755e-05)
(0 -0 2.07923e-05)
(0 -0 2.05532e-05)
(0 -0 2.05922e-05)
(0 -0 2.00899e-05)
(0 -0 2.04785e-05)
(0 -0 1.93589e-05)
(0 -0 2.05608e-05)
(0 -0 1.75223e-05)
(0 -0 2.48643e-05)
(0 -0 -6.26107e-06)
(0 -0 0.000116113)
(0 -0 -0.000179468)
(0 -0 3.41122e-05)
(0 -0 3.42213e-05)
(0 -0 3.42805e-05)
(0 -0 3.42955e-05)
(0 -0 3.42742e-05)
(0 -0 3.42188e-05)
(0 -0 3.41324e-05)
(0 -0 3.40189e-05)
(0 -0 3.38822e-05)
(0 -0 3.37251e-05)
(0 -0 3.35501e-05)
(0 -0 3.33594e-05)
(0 -0 3.31551e-05)
(0 -0 3.29389e-05)
(0 -0 3.27121e-05)
(0 -0 3.24767e-05)
(0 -0 3.22344e-05)
(0 -0 3.19874e-05)
(0 -0 3.17366e-05)
(0 -0 3.14829e-05)
(0 -0 3.12264e-05)
(0 -0 3.09672e-05)
(0 -0 3.0706e-05)
(0 -0 3.04432e-05)
(0 -0 3.01799e-05)
(0 -0 2.99168e-05)
(0 -0 2.9655e-05)
(0 -0 2.93949e-05)
(0 -0 2.91368e-05)
(0 -0 2.88815e-05)
(0 -0 2.86287e-05)
(0 -0 2.83806e-05)
(0 -0 2.81373e-05)
(0 -0 2.78989e-05)
(0 -0 2.76646e-05)
(0 -0 2.74322e-05)
(0 -0 2.72029e-05)
(0 -0 2.6976e-05)
(0 -0 2.67541e-05)
(0 -0 2.65367e-05)
(0 -0 2.63219e-05)
(0 -0 2.61118e-05)
(0 -0 2.59042e-05)
(0 -0 2.57029e-05)
(0 -0 2.55071e-05)
(0 -0 2.5314e-05)
(0 -0 2.51261e-05)
(0 -0 2.49375e-05)
(0 -0 2.47532e-05)
(0 -0 2.45734e-05)
(0 -0 2.4395e-05)
(0 -0 2.42206e-05)
(0 -0 2.4044e-05)
(0 -0 2.38667e-05)
(0 -0 2.36867e-05)
(0 -0 2.3506e-05)
(0 -0 2.33182e-05)
(0 -0 2.31394e-05)
(0 -0 2.29193e-05)
(0 -0 2.27646e-05)
(0 -0 2.24413e-05)
(0 -0 2.24057e-05)
(0 -0 2.17891e-05)
(0 -0 2.2108e-05)
(0 -0 2.0796e-05)
(0 -0 2.19846e-05)
(0 -0 1.85806e-05)
(0 -0 2.4622e-05)
(0 -0 3.45074e-06)
(0 -0 8.83653e-05)
(0 -0 -0.000163365)
(0 -0 3.83056e-05)
(0 -0 3.84472e-05)
(0 -0 3.85281e-05)
(0 -0 3.85549e-05)
(0 -0 3.85357e-05)
(0 -0 3.84723e-05)
(0 -0 3.83682e-05)
(0 -0 3.82281e-05)
(0 -0 3.80572e-05)
(0 -0 3.78593e-05)
(0 -0 3.76378e-05)
(0 -0 3.73956e-05)
(0 -0 3.71347e-05)
(0 -0 3.68569e-05)
(0 -0 3.65638e-05)
(0 -0 3.6258e-05)
(0 -0 3.59419e-05)
(0 -0 3.56188e-05)
(0 -0 3.52901e-05)
(0 -0 3.49569e-05)
(0 -0 3.46192e-05)
(0 -0 3.42769e-05)
(0 -0 3.39309e-05)
(0 -0 3.35817e-05)
(0 -0 3.32308e-05)
(0 -0 3.28787e-05)
(0 -0 3.25273e-05)
(0 -0 3.21771e-05)
(0 -0 3.1829e-05)
(0 -0 3.14841e-05)
(0 -0 3.11422e-05)
(0 -0 3.08058e-05)
(0 -0 3.04749e-05)
(0 -0 3.01502e-05)
(0 -0 2.98303e-05)
(0 -0 2.95132e-05)
(0 -0 2.91994e-05)
(0 -0 2.88883e-05)
(0 -0 2.85824e-05)
(0 -0 2.82816e-05)
(0 -0 2.79839e-05)
(0 -0 2.76919e-05)
(0 -0 2.74035e-05)
(0 -0 2.71228e-05)
(0 -0 2.68496e-05)
(0 -0 2.65796e-05)
(0 -0 2.63164e-05)
(0 -0 2.60522e-05)
(0 -0 2.57931e-05)
(0 -0 2.55393e-05)
(0 -0 2.52872e-05)
(0 -0 2.50398e-05)
(0 -0 2.4789e-05)
(0 -0 2.4536e-05)
(0 -0 2.42794e-05)
(0 -0 2.40198e-05)
(0 -0 2.37521e-05)
(0 -0 2.34908e-05)
(0 -0 2.31827e-05)
(0 -0 2.29391e-05)
(0 -0 2.25121e-05)
(0 -0 2.23824e-05)
(0 -0 2.16275e-05)
(0 -0 2.1854e-05)
(0 -0 2.03138e-05)
(0 -0 2.14677e-05)
(0 -0 1.76584e-05)
(0 -0 2.17894e-05)
(0 -0 1.46835e-05)
(0 -0 4.67488e-05)
(0 -0 -0.000140468)
(0 -0 4.11601e-05)
(0 -0 4.13406e-05)
(0 -0 4.14474e-05)
(0 -0 4.14888e-05)
(0 -0 4.14729e-05)
(0 -0 4.14013e-05)
(0 -0 4.12779e-05)
(0 -0 4.11085e-05)
(0 -0 4.08996e-05)
(0 -0 4.06564e-05)
(0 -0 4.03832e-05)
(0 -0 4.00832e-05)
(0 -0 3.97587e-05)
(0 -0 3.94115e-05)
(0 -0 3.90435e-05)
(0 -0 3.86581e-05)
(0 -0 3.82585e-05)
(0 -0 3.78493e-05)
(0 -0 3.74327e-05)
(0 -0 3.70097e-05)
(0 -0 3.65805e-05)
(0 -0 3.61445e-05)
(0 -0 3.57027e-05)
(0 -0 3.52558e-05)
(0 -0 3.48056e-05)
(0 -0 3.43529e-05)
(0 -0 3.38998e-05)
(0 -0 3.34474e-05)
(0 -0 3.29973e-05)
(0 -0 3.25507e-05)
(0 -0 3.21077e-05)
(0 -0 3.16707e-05)
(0 -0 3.124e-05)
(0 -0 3.08167e-05)
(0 -0 3.03995e-05)
(0 -0 2.99858e-05)
(0 -0 2.95758e-05)
(0 -0 2.91683e-05)
(0 -0 2.87662e-05)
(0 -0 2.83696e-05)
(0 -0 2.79766e-05)
(0 -0 2.75905e-05)
(0 -0 2.7209e-05)
(0 -0 2.68368e-05)
(0 -0 2.64743e-05)
(0 -0 2.61158e-05)
(0 -0 2.57656e-05)
(0 -0 2.5414e-05)
(0 -0 2.50682e-05)
(0 -0 2.47286e-05)
(0 -0 2.4391e-05)
(0 -0 2.40589e-05)
(0 -0 2.37218e-05)
(0 -0 2.33808e-05)
(0 -0 2.30351e-05)
(0 -0 2.26839e-05)
(0 -0 2.23232e-05)
(0 -0 2.1966e-05)
(0 -0 2.15559e-05)
(0 -0 2.1209e-05)
(0 -0 2.06624e-05)
(0 -0 2.0423e-05)
(0 -0 1.95101e-05)
(0 -0 1.9626e-05)
(0 -0 1.78286e-05)
(0 -0 1.89318e-05)
(0 -0 1.46883e-05)
(0 -0 1.63339e-05)
(0 -0 2.72043e-05)
(0 -0 -8.1322e-06)
(0 -0 -0.000111212)
(0 -0 4.28604e-05)
(0 -0 4.30795e-05)
(0 -0 4.32112e-05)
(0 -0 4.32655e-05)
(0 -0 4.32507e-05)
(0 -0 4.31683e-05)
(0 -0 4.30226e-05)
(0 -0 4.28206e-05)
(0 -0 4.25701e-05)
(0 -0 4.22777e-05)
(0 -0 4.19486e-05)
(0 -0 4.15867e-05)
(0 -0 4.11941e-05)
(0 -0 4.07728e-05)
(0 -0 4.03249e-05)
(0 -0 3.98545e-05)
(0 -0 3.93663e-05)
(0 -0 3.88658e-05)
(0 -0 3.8356e-05)
(0 -0 3.78383e-05)
(0 -0 3.73125e-05)
(0 -0 3.67777e-05)
(0 -0 3.62349e-05)
(0 -0 3.56851e-05)
(0 -0 3.51301e-05)
(0 -0 3.45712e-05)
(0 -0 3.40108e-05)
(0 -0 3.34508e-05)
(0 -0 3.28932e-05)
(0 -0 3.23395e-05)
(0 -0 3.17896e-05)
(0 -0 3.12464e-05)
(0 -0 3.07101e-05)
(0 -0 3.01828e-05)
(0 -0 2.96627e-05)
(0 -0 2.91468e-05)
(0 -0 2.8635e-05)
(0 -0 2.81254e-05)
(0 -0 2.76212e-05)
(0 -0 2.71228e-05)
(0 -0 2.66285e-05)
(0 -0 2.61422e-05)
(0 -0 2.56615e-05)
(0 -0 2.51918e-05)
(0 -0 2.47341e-05)
(0 -0 2.4281e-05)
(0 -0 2.38379e-05)
(0 -0 2.33929e-05)
(0 -0 2.29544e-05)
(0 -0 2.2523e-05)
(0 -0 2.20939e-05)
(0 -0 2.16707e-05)
(0 -0 2.12413e-05)
(0 -0 2.08059e-05)
(0 -0 2.03647e-05)
(0 -0 1.99156e-05)
(0 -0 1.94553e-05)
(0 -0 1.89961e-05)
(0 -0 1.84763e-05)
(0 -0 1.80208e-05)
(0 -0 1.73455e-05)
(0 -0 1.69915e-05)
(0 -0 1.59103e-05)
(0 -0 1.5909e-05)
(0 -0 1.38419e-05)
(0 -0 1.48871e-05)
(0 -0 1.02095e-05)
(0 -0 8.97269e-06)
(0 -0 4.05303e-05)
(0 -0 -7.21485e-05)
(0 -0 -7.75714e-05)
(0 -0 4.39893e-05)
(0 -0 4.42397e-05)
(0 -0 4.43897e-05)
(0 -0 4.44506e-05)
(0 -0 4.44307e-05)
(0 -0 4.43315e-05)
(0 -0 4.41576e-05)
(0 -0 4.39175e-05)
(0 -0 4.36202e-05)
(0 -0 4.32738e-05)
(0 -0 4.28844e-05)
(0 -0 4.24561e-05)
(0 -0 4.19913e-05)
(0 -0 4.14918e-05)
(0 -0 4.09602e-05)
(0 -0 4.04013e-05)
(0 -0 3.9821e-05)
(0 -0 3.92261e-05)
(0 -0 3.86205e-05)
(0 -0 3.80056e-05)
(0 -0 3.73808e-05)
(0 -0 3.6745e-05)
(0 -0 3.60991e-05)
(0 -0 3.54442e-05)
(0 -0 3.47824e-05)
(0 -0 3.41153e-05)
(0 -0 3.34459e-05)
(0 -0 3.27766e-05)
(0 -0 3.21097e-05)
(0 -0 3.14473e-05)
(0 -0 3.07888e-05)
(0 -0 3.01376e-05)
(0 -0 2.9494e-05)
(0 -0 2.88608e-05)
(0 -0 2.82362e-05)
(0 -0 2.76166e-05)
(0 -0 2.70014e-05)
(0 -0 2.63877e-05)
(0 -0 2.57794e-05)
(0 -0 2.51772e-05)
(0 -0 2.45793e-05)
(0 -0 2.39907e-05)
(0 -0 2.34087e-05)
(0 -0 2.28393e-05)
(0 -0 2.22842e-05)
(0 -0 2.17345e-05)
(0 -0 2.11962e-05)
(0 -0 2.06556e-05)
(0 -0 2.01219e-05)
(0 -0 1.95963e-05)
(0 -0 1.90734e-05)
(0 -0 1.85567e-05)
(0 -0 1.80327e-05)
(0 -0 1.75006e-05)
(0 -0 1.69618e-05)
(0 -0 1.64127e-05)
(0 -0 1.58507e-05)
(0 -0 1.52877e-05)
(0 -0 1.46569e-05)
(0 -0 1.40907e-05)
(0 -0 1.32868e-05)
(0 -0 1.28156e-05)