/*--------------------------------*- C++ -*----------------------------------*\
| =========                 |                                                 |
| \\      /  F ield         | OpenFOAM: The Open Source CFD Toolbox           |
|  \\    /   O peration     | Version:  2412                                  |
|   \\  /    A nd           | Website:  www.openfoam.com                      |
|    \\/     M anipulation  |                                                 |
\*---------------------------------------------------------------------------*/
FoamFile
{
    version     2.0;
    format      ascii;
    arch        "LSB;label=32;scalar=64";
    class       volScalarField;
    location    "30";
    object      error;
}
// * * * * * * * * * * * * * * * * * * * * * * * * * * * * * * * * * * * * * //

dimensions      [0 0 0 0 0 0 0];

internalField   nonuniform List<scalar> 
5285
(
0.896043
0.876083
0.85557
0.834572
0.813157
0.79139
0.769336
0.747058
0.724617
0.702077
0.679494
0.656927
0.634432
0.61206
0.589863
0.56789
0.546185
0.524792
0.503751
0.483097
0.462867
0.443089
0.423791
0.404999
0.386733
0.369011
0.35185
0.335261
0.885738
0.866113
0.845946
0.825302
0.804248
0.782846
0.761159
0.739248
0.717174
0.694996
0.672773
0.65056
0.628411
0.606379
0.584513
0.562861
0.541467
0.520375
0.499623
0.479248
0.459283
0.43976
0.420705
0.402142
0.384094
0.366579
0.349611
0.333206
0.865671
0.8467
0.827211
0.807261
0.786912
0.766223
0.745252
0.724058
0.702698
0.681228
0.659703
0.638178
0.616704
0.595331
0.574108
0.553081
0.532292
0.511784
0.491594
0.471759
0.452312
0.433281
0.414696
0.39658
0.378955
0.361838
0.345248
0.329197
0.83686
0.818842
0.800332
0.781386
0.762056
0.742395
0.722456
0.702293
0.681958
0.661504
0.640982
0.620443
0.599936
0.579509
0.559206
0.539072
0.519148
0.499475
0.480089
0.461025
0.442315
0.42399
0.406075
0.388595
0.371572
0.355025
0.338971
0.323423
0.78388
0.766619
0.748945
0.730903
0.712541
0.693904
0.675039
0.655994
0.636816
0.617553
0.598251
0.578956
0.55971
0.540559
0.521541
0.502698
0.484067
0.465683
0.447581
0.429791
0.412342
0.395261
0.378573
0.3623
0.34646
0.331071
0.316145
0.743377
0.727585
0.711407
0.694876
0.678032
0.660914
0.643561
0.626016
0.60832
0.590516
0.572646
0.554751
0.536871
0.519047
0.501317
0.483717
0.466285
0.449053
0.432055
0.41532
0.398877
0.382752
0.36697
0.351552
0.33652
0.32189
0.30767
0.699011
0.68486
0.670344
0.65549
0.640326
0.624883
0.609196
0.593299
0.577229
0.561023
0.544719
0.528353
0.511963
0.495585
0.479255
0.463008
0.446877
0.430895
0.415093
0.3995
0.384145
0.369054
0.35425
0.339757
0.325595
0.31178
0.298319
0.319215
0.30361
0.288358
0.273485
0.259014
0.244966
0.231361
0.218217
0.205551
0.193377
0.181709
0.170554
0.159918
0.149806
0.140215
0.131143
0.122581
0.11452
0.106946
0.0998425
0.0931921
0.0869742
0.0811668
0.0757472
0.0706919
0.0659772
0.0615798
0.0574768
0.0536466
0.0500686
0.0467238
0.043595
0.0406666
0.0379252
0.0353588
0.0329571
0.0307112
0.0286129
0.0266547
0.0248291
0.0231284
0.0215443
0.020068
0.0186909
0.317349
0.301931
0.286853
0.272141
0.257818
0.243905
0.230422
0.21739
0.204826
0.192744
0.181157
0.170075
0.159505
0.149451
0.139911
0.130883
0.122361
0.114333
0.106789
0.0997108
0.0930821
0.0868826
0.081091
0.0756848
0.0706409
0.065936
0.0615469
0.0574511
0.053627
0.0500543
0.0467141
0.0435893
0.0406644
0.0379259
0.0353619
0.0329621
0.0307176
0.0286203
0.0266626
0.0248371
0.0231361
0.0215515
0.0200745
0.0186965
0.313707
0.298651
0.283911
0.269512
0.255476
0.241826
0.228583
0.215768
0.203401
0.191498
0.180071
0.169134
0.158692
0.148751
0.139311
0.130372
0.121926
0.113965
0.106478
0.09945
0.0928639
0.0867009
0.0809404
0.0755607
0.0705394
0.0658537
0.0614811
0.0573995
0.0535877
0.0500255
0.0466945
0.0435776
0.0406595
0.0379268
0.0353676
0.0329716
0.0307299
0.0286345
0.0266778
0.0248525
0.023151
0.0215654
0.020087
0.0187075
0.308454
0.293917
0.27966
0.265708
0.252082
0.238808
0.225909
0.213408
0.201325
0.189679
0.178486
0.167756
0.1575
0.147724
0.138431
0.129619
0.121286
0.113423
0.10602
0.0990647
0.0925411
0.0864316
0.0807168
0.0753761
0.0703881
0.0657309
0.0613827
0.057322
0.0535282
0.0499817
0.0466643
0.0435591
0.0406512
0.037927
0.0353749
0.0329846
0.0307471
0.0286546
0.0266995
0.0248746
0.0231725
0.0215855
0.0201052
0.0187234
0.301823
0.287931
0.274274
0.260877
0.247763
0.23496
0.222493
0.210387
0.198664
0.187345
0.176446
0.165981
0.155963
0.146398
0.137291
0.128644
0.120454
0.112717
0.105423
0.0985616
0.0921188
0.0860785
0.0804231
0.0751331
0.0701884
0.0655683
0.0612518
0.0572185
0.0534484
0.0499224
0.0466227
0.0435329
0.0406382
0.0379253
0.0353825
0.0329997
0.030768
0.0286793
0.0267264
0.0249022
0.0231995
0.0216109
0.0201281
0.0187435
0.294081
0.280926
0.267955
0.255194
0.242669
0.230409
0.218443
0.206798
0.195496
0.18456
0.174008
0.163857
0.154118
0.144804
0.135919
0.127467
0.119449
0.111861
0.104698
0.097949
0.0916033
0.0856466
0.0800627
0.074834
0.0699419
0.0653668
0.061089
0.057089
0.0533477
0.0498467
0.0465687
0.0434978
0.0406193
0.0379203
0.0353891
0.0330155
0.0307909
0.0287072
0.0267572
0.024934
0.0232308
0.0216404
0.020155
0.0187672
0.285511
0.273147
0.260911
0.248837
0.236953
0.22529
0.213877
0.202741
0.191907
0.181398
0.171234
0.161434
0.15201
0.142977
0.134343
0.126113
0.118289
0.110872
0.103857
0.0972366
0.0910022
0.0851413
0.0796398
0.0744819
0.0696505
0.0651277
0.0608949
0.0569337
0.0532259
0.0497541
0.0465015
0.0434526
0.0405932
0.0379103
0.0353927
0.0330302
0.030814
0.0287363
0.02679
0.0249685
0.023265
0.0216728
0.0201847
0.0187934
0.276179
0.264627
0.253165
0.241822
0.230626
0.219609
0.208797
0.198217
0.187896
0.177857
0.168121
0.158707
0.149633
0.140912
0.132556
0.124573
0.116968
0.109741
0.102893
0.096418
0.0903094
0.0845572
0.0791494
0.0740722
0.0693103
0.0648472
0.060666
0.0567494
0.0530803
0.0496421
0.0464188
0.0433954
0.040558
0.037894
0.0353922
0.0330426
0.0308364
0.028766
0.0268243
0.025005
0.0233017
0.021708
0.020217
0.0188223
0.266176
0.25547
0.244816
0.234242
0.223774
0.213441
0.203268
0.193282
0.183509
0.173972
0.164696
0.1557
0.147003
0.138621
0.130568
0.122854
0.115486
0.10847
0.101805
0.0954904
0.0895213
0.0838901
0.078587
0.0736002
0.0689162
0.0645206
0.0603976
0.0565316
0.0529064
0.0495064
0.0463164
0.043322
0.0405098
0.0378675
0.0353839
0.0330493
0.0308549
0.0287931
0.0268573
0.0250411
0.0233386
0.0217438
0.0202504
0.0188523
0.255897
0.24605
0.236217
0.226424
0.216694
0.207054
0.19753
0.188148
0.178933
0.169911
0.161104
0.152537
0.144228
0.136195
0.128456
0.121021
0.113902
0.107104
0.100633
0.094487
0.0886654
0.0831626
0.077971
0.0730808
0.0684806
0.0641575
0.0600974
0.056286
0.0527084
0.0493499
0.0461961
0.0432333
0.0404485
0.0378298
0.0353663
0.0330482
0.0308671
0.0288153
0.0268864
0.0250743
0.0233734
0.0217782
0.0202829
0.0188819
0.245523
0.236538
0.227525
0.21851
0.209514
0.200565
0.191686
0.182906
0.174248
0.16574
0.157405
0.149268
0.14135
0.133672
0.12625
0.1191
0.112235
0.105662
0.0993892
0.0934185
0.0877502
0.0823813
0.0773065
0.0725179
0.0680061
0.0637597
0.0597664
0.056013
0.0524861
0.0491719
0.0460569
0.0431279
0.0403726
0.0377794
0.0353375
0.0330375
0.030871
0.0288305
0.0269096
0.0251027
0.0234044
0.0218097
0.0203133
0.0189099
0.235239
0.227097
0.218886
0.21063
0.202351
0.194075
0.185828
0.177636
0.169525
0.161521
0.153651
0.145939
0.138409
0.131082
0.123978
0.117113
0.110503
0.104158
0.098087
0.0922947
0.0867834
0.0815524
0.0765982
0.0719151
0.0674952
0.0633289
0.0594056
0.0557133
0.0522397
0.0489722
0.0458981
0.043005
0.0402809
0.0377147
0.035296
0.0330155
0.0308648
0.0288368
0.0269253
0.0251247
0.0234301
0.0218369
0.0203402
0.0189354
0.225218
0.217879
0.210433
0.202901
0.195307
0.187676
0.180034
0.172407
0.164822
0.157306
0.149886
0.142587
0.135436
0.128453
0.121662
0.11508
0.108723
0.102606
0.0967369
0.0911244
0.0857722
0.0806815
0.0758506
0.0712756
0.0669505
0.0628671
0.0590163
0.0553875
0.0519695
0.0487507
0.0457193
0.0428637
0.0401724
0.0376346
0.0352404
0.0329807
0.0308472
0.0288329
0.0269319
0.0251389
0.0234492
0.0218587
0.0203628
0.0189575
0.215606
0.209014
0.202279
0.195423
0.18847
0.181444
0.17437
0.167276
0.16019
0.153137
0.146147
0.139245
0.132458
0.12581
0.119322
0.113016
0.106909
0.101016
0.0953486
0.0899157
0.0847231
0.0797737
0.0750678
0.0706029
0.0663745
0.0623762
0.0585999
0.0550365
0.0516759
0.0485076
0.0455205
0.0427037
0.0400465
0.0375385
0.0351699
0.0329321
0.0308169
0.0288176
0.0269284
0.0251442
0.0234606
0.021874
0.0203801
0.0189754
0.206524
0.200606
0.194516
0.188276
0.181909
0.175438
0.16889
0.16229
0.155668
0.14905
0.142464
0.135938
0.129498
0.12317
0.116975
0.110937
0.105073
0.0993999
0.0939306
0.0886755
0.0836419
0.0788341
0.0742538
0.0699001
0.0657698
0.061858
0.0581578
0.0546614
0.0513597
0.0482432
0.0453017
0.042525
0.039903
0.0374257
0.0350839
0.032869
0.0307733
0.0287902
0.0269139
0.0251397
0.0234636
0.0218821
0.0203915
0.0189886
0.198052
0.192727
0.187208
0.181516
0.175673
0.169703
0.16363
0.157482
0.151286
0.14507
0.138861
0.132687
0.126575
0.120549
0.114635
0.108853
0.103225
0.0977656
0.0924903
0.0874103
0.082534
0.077867
0.0734123
0.0691702
0.0651389
0.0613146
0.0576917
0.0542634
0.0510218
0.0479583
0.0450634
0.0423278
0.039742
0.0372964
0.0349823
0.0327913
0.030716
0.02875
0.0268879
0.025125
0.0234577
0.0218826
0.0203966
0.0189967
0.190236
0.185418
0.180391
0.175176
0.169792
0.164264
0.158616
0.152874
0.147065
0.141216
0.135353
0.129506
0.1237
0.11796
0.112311
0.106775
0.101373
0.0961207
0.0910343
0.0861257
0.0814043
0.0768767
0.0725469
0.0684163
0.0644843
0.0607481
0.0572033
0.053844
0.0506635
0.0476537
0.0448064
0.0421128
0.0395639
0.0371508
0.0348651
0.0326989
0.030645
0.0286972
0.0268503
0.0250999
0.0234426
0.0218752
0.020395
0.0189994
0.183087
0.178689
0.174076
0.169265
0.164277
0.159134
0.153859
0.148478
0.143015
0.137497
0.131952
0.126405
0.120883
0.115411
0.110013
0.104711
0.0995243
0.0944717
0.0895683
0.0848269
0.0802574
0.0758672
0.0716611
0.0676415
0.0638086
0.0601608
0.0566944
0.0534048
0.0502859
0.0473308
0.0445317
0.0418807
0.0393693
0.0369895
0.034733
0.0325923
0.0305606
0.0286319
0.0268013
0.0250645
0.0234183
0.0218599
0.0203868
0.0189966
0.17658
0.172523
0.168249
0.163776
0.159123
0.154309
0.149359
0.144294
0.139139
0.13392
0.128662
0.123391
0.118132
0.11291
0.107747
0.102665
0.0976852
0.0928241
0.0880976
0.0835185
0.0790974
0.0748421
0.0707581
0.0668485
0.0631144
0.0595548
0.0561672
0.0529476
0.0498908
0.0469906
0.0442404
0.0416325
0.0391594
0.0368132
0.0345865
0.032472
0.0304633
0.0285546
0.0267411
0.025019
0.0233851
0.0218369
0.020372
0.0189884
0.170669
0.16688
0.16288
0.158684
0.15431
0.149777
0.145105
0.140316
0.135434
0.130483
0.125485
0.120466
0.115449
0.110459
0.105517
0.100644
0.0958603
0.0911826
0.0866265
0.0822048
0.0779283
0.0738051
0.0698413
0.0660404
0.0624041
0.0589324
0.0556235
0.052474
0.0494796
0.0466349
0.0439337
0.0413695
0.038935
0.0366231
0.0344267
0.032339
0.0303539
0.0284659
0.0266705
0.024964
0.0233434
0.0218064
0.0203508
0.0189749
0.165289
0.161707
0.157923
0.153952
0.14981
0.145513
0.141081
0.136534
0.131893
0.12718
0.122418
0.117629
0.112836
0.108061
0.103326
0.0986508
0.0940535
0.0895512
0.085159
0.0808896
0.0767537
0.0727596
0.0689136
0.0652198
0.0616805
0.0582961
0.0550654
0.0519859
0.049054
0.0462649
0.0436133
0.0410929
0.0386975
0.0364202
0.0342546
0.0321942
0.0302333
0.0283667
0.0265901
0.0249
0.0232937
0.0217689
0.0203237
0.0189564
0.160367
0.156942
0.153329
0.14954
0.14559
0.141494
0.137268
0.132932
0.128504
0.124005
0.119456
0.114878
0.110292
0.105718
0.101177
0.0966879
0.0922679
0.0879333
0.0836986
0.0795763
0.0755768
0.0717085
0.067978
0.0643895
0.0609459
0.0576479
0.054495
0.0514853
0.0486158
0.0458825
0.0432804
0.0408043
0.0384481
0.0362058
0.0340713
0.0320387
0.0301025
0.0282579
0.0265008
0.0248279
0.0232366
0.0217249
0.0202909
0.0189332
0.155826
0.152521
0.149043
0.145403
0.141614
0.137688
0.133642
0.129492
0.125255
0.120949
0.116595
0.11221
0.107815
0.103429
0.0990709
0.0947575
0.090506
0.0863316
0.0822483
0.0782679
0.0744007
0.070655
0.0670372
0.0635522
0.0602026
0.05699
0.0539143
0.050974
0.0481667
0.045489
0.0429367
0.0405048
0.0381882
0.0359812
0.0338781
0.0318736
0.0299626
0.0281405
0.0264035
0.0247484
0.0231729
0.0216751
0.0202531
0.0189056
0.151594
0.148382
0.145014
0.141498
0.137846
0.134069
0.130181
0.126196
0.122131
0.118002
0.113826
0.109621
0.105404
0.101194
0.0970075
0.0928608
0.0887697
0.0847487
0.0808107
0.0769672
0.0732281
0.0696015
0.0660939
0.06271
0.0594531
0.0563247
0.0533252
0.0504538
0.0477084
0.0450862
0.0425835
0.0401961
0.0379191
0.0357475
0.0336762
0.0317002
0.0298147
0.0280155
0.026299
0.0246624
0.0231033
0.0216199
0.0202106
0.0188742
0.147606
0.144471
0.141195
0.137786
0.134254
0.13061
0.126863
0.123029
0.119121
0.115154
0.111144
0.107106
0.103056
0.0990115
0.0949873
0.0909989
0.0870608
0.0831864
0.079388
0.0756766
0.0720615
0.0685506
0.0651504
0.0618655
0.0586993
0.0556538
0.0527297
0.0499264
0.0472424
0.0446755
0.0422223
0.0398793
0.037642
0.0355061
0.0334667
0.0315194
0.0296597
0.0278838
0.0261883
0.0245706
0.0230284
0.0215601
0.0201641
0.0188393
0.143808
0.14074
0.137547
0.134234
0.130811
0.127287
0.123671
0.119976
0.116214
0.112398
0.108542
0.104661
0.100768
0.09688
0.09301
0.0891723
0.0853803
0.0816465
0.0779824
0.0743983
0.0709031
0.0675046
0.0642088
0.0610205
0.0579433
0.0549793
0.0521293
0.0493934
0.0467703
0.0442582
0.0418545
0.0395557
0.0373582
0.035258
0.0332507
0.0313323
0.0294987
0.0277464
0.0260723
0.0244738
0.022949
0.0214962
0.0201139
0.0188012
0.140157
0.137153
0.134036
0.130814
0.127493
0.124082
0.120588
0.117024
0.113398
0.109725
0.106015
0.102282
0.0985385
0.0947988
0.0910755
0.0873816
0.0837294
0.0801304
0.0765954
0.0731341
0.0697549
0.0664652
0.0632711
0.0601771
0.0571869
0.0543027
0.0515258
0.0488563
0.0462935
0.0438358
0.0414811
0.0392266
0.0370688
0.0350043
0.0330293
0.03114
0.0293327
0.0276042
0.0259517
0.0243728
0.0228657
0.0214287
0.0200607
0.0187605
0.136619
0.133679
0.130639
0.127505
0.124282
0.120979
0.117602
0.114162
0.110667
0.107129
0.103558
0.0999656
0.0963646
0.0927666
0.0891835
0.0856272
0.0821089
0.0786393
0.0752285
0.0718856
0.0686186
0.0654344
0.062339
0.0593369
0.0564317
0.0536258
0.0509206
0.0483165
0.0458132
0.0434095
0.0411035
0.0388929
0.0367748
0.0347461
0.0328034
0.0309432
0.0291624
0.027458
0.0258273
0.0242683
0.0227791
0.0213583
0.0200047
0.0187174
0.133172
0.130299
0.127336
0.12429
0.121165
0.117967
0.114704
0.111383
0.108014
0.104605
0.101167
0.0977102
0.0942451
0.0907826
0.0873338
0.0839093
0.0805194
0.0771743
0.0738831
0.0706543
0.0674957
0.0644137
0.0614141
0.0585015
0.0556792
0.0529499
0.050315
0.0477753
0.0453307
0.0429803
0.0407227
0.0385558
0.0364772
0.0344842
0.0325738
0.0307429
0.0289887
0.0273084
0.0256998
0.0241607
0.0226897
0.0212854
0.0199466
0.0186724
0.129801
0.126998
0.124116
0.121159
0.11813
0.115037
0.111885
0.108681
0.105433
0.10215
0.0988403
0.0955132
0.0921786
0.0888462
0.0855262
0.0822281
0.0789617
0.0757362
0.0725601
0.0694414
0.0663874
0.0634045
0.0604979
0.0576721
0.0549307
0.0522762
0.0497103
0.0472339
0.0448471
0.0425494
0.0403396
0.0382161
0.0361768
0.0342194
0.0323412
0.0305397
0.0288121
0.0271561
0.0255696
0.0240507
0.022598
0.0212103
0.0198865
0.0186256
0.126496
0.123769
0.120971
0.118104
0.115174
0.112184
0.109142
0.106052
0.102923
0.0997612
0.0965752
0.0933732
0.0901642
0.0869569
0.0837605
0.080584
0.0774362
0.0743257
0.0712604
0.0682479
0.0652951
0.0624078
0.0595914
0.0568501
0.0541874
0.051606
0.0491075
0.0466932
0.0443633
0.0421175
0.0399551
0.0378746
0.0358744
0.0339524
0.0321065
0.0303342
0.0286333
0.0270017
0.0254374
0.0239388
0.0225045
0.0211336
0.0198248
0.0185774
0.123255
0.120609
0.117897
0.115123
0.112291
0.109406
0.106471
0.103494
0.10048
0.0974365
0.0943704
0.0912892
0.0882011
0.0851142
0.0820368
0.0789771
0.0759434
0.0729435
0.0699849
0.0670748
0.0642195
0.0614248
0.0586957
0.0560364
0.0534503
0.0509401
0.0485077
0.0461542
0.0438802
0.0416856
0.0395699
0.037532
0.0355706
0.0336839
0.03187
0.030127
0.0284528
0.0268455
0.0253035
0.0238252
0.0224095
0.0210554
0.0197618
0.0185281
0.120077
0.117515
0.114893
0.112214
0.109481
0.106699
0.103871
0.101005
0.0981036
0.0951749
0.0922248
0.0892605
0.086289
0.083318
0.080355
0.0774076
0.0744835
0.07159
0.0687341
0.0659226
0.0631615
0.0604562
0.0578117
0.055232
0.0527204
0.0502796
0.0479116
0.0456177
0.0433985
0.0412543
0.0391847
0.0371889
0.035266
0.0334143
0.0316324
0.0299185
0.028271
0.0266881
0.0251683
0.0237104
0.0223133
0.0209761
0.0196978
0.0184778
0.116965
0.114491
0.11196
0.109377
0.106743
0.104063
0.101342
0.0985832
0.0957926
0.0929755
0.090138
0.0872864
0.0844274
0.0815679
0.0787149
0.0758755
0.0730568
0.0702656
0.0675086
0.064792
0.0621217
0.0595029
0.0569402
0.0544376
0.0519984
0.0496252
0.0473201
0.0450844
0.042919
0.0408243
0.0388002
0.036846
0.0349611
0.0331442
0.0313941
0.0297093
0.0280883
0.0265297
0.0250322
0.0235947
0.0222161
0.0208958
0.0196329
0.0184267
0.113923
0.111538
0.1091
0.106612
0.104078
0.1015
0.0988824
0.0962298
0.0935466
0.0908379
0.0881093
0.0853666
0.082616
0.0798638
0.0771166
0.0743809
0.0716635
0.0689706
0.0663087
0.0636836
0.0611008
0.0585654
0.0560818
0.0536539
0.051285
0.0489775
0.0467337
0.044555
0.0424424
0.0403963
0.0384168
0.0365038
0.0346565
0.0328741
0.0311555
0.0294996
0.027905
0.0263707
0.0248954
0.0234782
0.0221183
0.0208149
0.0195673
0.0183749
0.110953
0.108658
0.106314
0.103923
0.101486
0.0990088
0.0964933
0.0939441
0.0913654
0.0887618
0.0861384
0.0835007
0.0808544
0.0782053
0.0755597
0.0729237
0.0703035
0.0677052
0.0651346
0.0625975
0.0600991
0.0576442
0.0552371
0.0528815
0.0505807
0.0483372
0.0461532
0.04403
0.041969
0.0399706
0.0380352
0.0361626
0.0343525
0.0326042
0.0309169
0.0292897
0.0277215
0.0262113
0.0247581
0.0233613
0.0220199
0.0207335
0.0195012
0.0183227
0.108062
0.105858
0.103606
0.101309
0.0989702
0.0965904
0.094175
0.0917263
0.0892487
0.0867466
0.0842247
0.0816881
0.0791421
0.0765922
0.0740441
0.0715037
0.0689768
0.0664692
0.0639865
0.061534
0.0591169
0.0567396
0.0544064
0.0521209
0.0498861
0.0477048
0.0455788
0.04351
0.0414994
0.0395478
0.0376556
0.0358229
0.0340495
0.032335
0.0306787
0.02908
0.0275379
0.0260517
0.0246207
0.0232441
0.0219212
0.0206517
0.0194348
0.0182701
0.0965301
0.0942467
0.0919273
0.0895761
0.0871963
0.0847921
0.0823679
0.0799284
0.0774787
0.0750238
0.0725693
0.0701206
0.0676832
0.0652627
0.0628643
0.0604932
0.0581543
0.0558519
0.05359
0.0513722
0.0492015
0.0470805
0.0450112
0.0429953
0.041034
0.0391283
0.0372785
0.0354851
0.0337479
0.0320667
0.0304411
0.0288706
0.0273546
0.0258923
0.0244832
0.0231267
0.0218224
0.0205697
0.0193681
0.0182173
0.639339
0.62647
0.613292
0.599827
0.586096
0.572124
0.557939
0.543569
0.529045
0.514398
0.49966
0.484863
0.470039
0.455219
0.440435
0.425717
0.411096
0.3966
0.382258
0.368095
0.354138
0.340411
0.326935
0.31373
0.300814
0.288195
0.598447
0.587751
0.576783
0.565544
0.55404
0.542284
0.530292
0.51808
0.50567
0.493084
0.480346
0.467482
0.454517
0.441479
0.428394
0.41529
0.402195
0.389134
0.376135
0.363224
0.350426
0.337765
0.325267
0.312951
0.30084
0.28895
0.277298
0.541634
0.532961
0.524067
0.514936
0.505566
0.495956
0.486109
0.476033
0.46574
0.455244
0.444561
0.43371
0.422711
0.411585
0.400354
0.389042
0.377672
0.366269
0.354857
0.34346
0.332103
0.32081
0.309605
0.298509
0.287545
0.276733
0.266091
0.482851
0.476348
0.469671
0.462791
0.455689
0.448351
0.440771
0.432944
0.424874
0.416566
0.408029
0.399273
0.390314
0.381168
0.371852
0.362386
0.352791
0.343088
0.333301
0.323453
0.313567
0.303667
0.293777
0.283921
0.274122
0.264403
0.254784
0.423576
0.419375
0.415035
0.410513
0.405775
0.400793
0.39555
0.390032
0.384233
0.378149
0.371783
0.365142
0.358233
0.35107
0.343666
0.336038
0.328206
0.32019
0.31201
0.303691
0.295256
0.286729
0.278134
0.269498
0.260845
0.252199
0.243585
0.365277
0.363493
0.361586
0.359497
0.357176
0.354586
0.351698
0.348489
0.344946
0.34106
0.336828
0.332252
0.327338
0.322096
0.316538
0.31068
0.30454
0.298138
0.291496
0.284636
0.277584
0.270365
0.263005
0.255531
0.247969
0.240347
0.23269
0.30947
0.310197
0.310784
0.311158
0.311257
0.311034
0.310453
0.309485
0.308112
0.306324
0.304115
0.301485
0.298441
0.294991
0.291148
0.286929
0.282352
0.277439
0.272211
0.266695
0.260915
0.254899
0.248675
0.242271
0.235716
0.22904
0.22227
0.25779
0.261082
0.26417
0.266968
0.269411
0.271446
0.273035
0.27415
0.274774
0.274897
0.274516
0.273634
0.272259
0.270402
0.268079
0.265309
0.262111
0.25851
0.25453
0.250198
0.245542
0.24059
0.235373
0.22992
0.224263
0.218433
0.212458
0.212108
0.217926
0.223407
0.228468
0.233049
0.237105
0.240604
0.243527
0.245863
0.247609
0.24877
0.249353
0.249371
0.248841
0.247781
0.246215
0.244165
0.241658
0.238721
0.235382
0.231672
0.22762
0.223259
0.218619
0.213733
0.208633
0.20335
0.174662
0.182734
0.19027
0.197211
0.203522
0.209177
0.214162
0.218472
0.22211
0.225084
0.227406
0.229092
0.23016
0.230632
0.230532
0.229885
0.228717
0.227057
0.224933
0.222376
0.219417
0.216087
0.212417
0.208441
0.20419
0.199697
0.194995
0.147952
0.157545
0.166404
0.174517
0.18188
0.188492
0.194361
0.199497
0.203913
0.207627
0.210658
0.213028
0.214759
0.215876
0.216404
0.216372
0.215805
0.214734
0.213188
0.211196
0.208789
0.205999
0.202856
0.199394
0.195643
0.191635
0.187402
0.133801
0.143612
0.152652
0.160927
0.168447
0.17522
0.18126
0.18658
0.191197
0.195129
0.198396
0.201019
0.203022
0.204427
0.205259
0.205544
0.205308
0.204578
0.203383
0.20175
0.199709
0.197288
0.194517
0.191428
0.188049
0.184411
0.180544
0.131559
0.140183
0.148219
0.155645
0.162448
0.168622
0.174163
0.179075
0.183364
0.187041
0.190119
0.192612
0.194539
0.195916
0.196765
0.197107
0.196964
0.19636
0.195318
0.193863
0.192022
0.189821
0.187286
0.184445
0.181326
0.177956
0.174363
0.137702
0.144343
0.150661
0.156597
0.16211
0.167165
0.17174
0.175821
0.1794
0.182474
0.185046
0.187121
0.188707
0.189815
0.19046
0.190655
0.190418
0.189766
0.18872
0.1873
0.185527
0.183423
0.181012
0.178318
0.175365
0.172178
0.168781
0.147927
0.15251
0.156971
0.161241
0.165265
0.168995
0.172397
0.175442
0.178111
0.180391
0.182274
0.183756
0.184837
0.185522
0.185816
0.185728
0.185268
0.18445
0.183288
0.181797
0.179994
0.177898
0.175527
0.172902
0.170043
0.166973
0.163711
0.15902
0.161837
0.164644
0.167379
0.16999
0.17243
0.174658
0.176645
0.178365
0.179798
0.180931
0.181753
0.18226
0.182448
0.182318
0.181874
0.18112
0.180066
0.178719
0.177092
0.175197
0.173048
0.170661
0.168051
0.165236
0.162234
0.159064
0.169125
0.170559
0.172029
0.173489
0.174894
0.176204
0.177385
0.178407
0.179244
0.179876
0.180287
0.180463
0.180397
0.180082
0.179514
0.178694
0.177622
0.176304
0.174743
0.172949
0.170929
0.168695
0.166257
0.16363
0.160827
0.157863
0.154753
0.177351
0.177757
0.178207
0.178669
0.179111
0.179501
0.179811
0.180015
0.180093
0.180025
0.179795
0.17939
0.178801
0.17802
0.177042
0.175864
0.174486
0.172907
0.171133
0.169166
0.167013
0.164682
0.162181
0.159522
0.156714
0.15377
0.150704
0.183383
0.183053
0.182759
0.182477
0.182185
0.181862
0.181486
0.181036
0.180497
0.179852
0.179087
0.178192
0.177157
0.175974
0.174638
0.173145
0.171493
0.169681
0.167711
0.165586
0.163309
0.160886
0.158324
0.15563
0.152813
0.149884
0.146853
0.187225
0.186393
0.185578
0.184764
0.18394
0.183089
0.182196
0.181248
0.180232
0.179136
0.177948
0.176661
0.175265
0.173755
0.172125
0.170372
0.168492
0.166486
0.164353
0.162095
0.159714
0.157214
0.154601
0.151881
0.14906
0.146147
0.143151
0.189056
0.187901
0.18674
0.185567
0.184373
0.18315
0.181889
0.180579
0.179212
0.17778
0.176275
0.17469
0.17302
0.171258
0.169402
0.167447
0.165391
0.163234
0.160975
0.158615
0.156157
0.153602
0.150955
0.148222
0.145407
0.142518
0.139561
0.189138
0.187793
0.186422
0.185021
0.183589
0.182121
0.180611
0.179053
0.177444
0.175777
0.174048
0.172251
0.170384
0.168442
0.166422
0.164322
0.162141
0.159877
0.157531
0.155103
0.152595
0.150009
0.147349
0.144618
0.141822
0.138966
0.136056
0.187762
0.186325
0.184843
0.183316
0.181746
0.18013
0.178468
0.176756
0.174992
0.173174
0.171299
0.169364
0.167368
0.165307
0.163181
0.160989
0.158728
0.156399
0.154002
0.151538
0.149008
0.146415
0.143761
0.141051
0.138287
0.135475
0.132621
0.185217
0.183757
0.182236
0.180657
0.179023
0.177335
0.175594
0.173799
0.171951
0.170049
0.168092
0.16608
0.164011
0.161885
0.159702
0.15746
0.15516
0.152803
0.150388
0.147917
0.145391
0.142813
0.140185
0.13751
0.134793
0.132036
0.129246
0.181771
0.180334
0.178824
0.177245
0.175601
0.173896
0.172132
0.170309
0.168431
0.166497
0.164508
0.162466
0.16037
0.158222
0.15602
0.153767
0.151463
0.149107
0.146703
0.14425
0.14175
0.139207
0.136621
0.133997
0.131337
0.128646
0.125928
0.177661
0.176277
0.17481
0.173267
0.171651
0.169968
0.16822
0.166409
0.16454
0.162613
0.160632
0.158596
0.156509
0.154371
0.152184
0.149949
0.147667
0.145339
0.142967
0.140553
0.138099
0.135606
0.133077
0.130516
0.127925
0.125308
0.122669
0.173088
0.171774
0.170372
0.168887
0.167324
0.165688
0.163984
0.162214
0.160382
0.158491
0.156544
0.154543
0.152491
0.15039
0.148241
0.146046
0.143808
0.141528
0.139207
0.136848
0.134453
0.132024
0.129564
0.127075
0.124561
0.122025
0.119471
0.16822
0.166985
0.165658
0.164244
0.162749
0.161177
0.159534
0.157823
0.156048
0.154213
0.15232
0.150374
0.148376
0.146329
0.144237
0.1421
0.139921
0.137703
0.135447
0.133156
0.130832
0.128477
0.126094
0.123685
0.121255
0.118805
0.116339
0.163191
0.162037
0.16079
0.159453
0.158034
0.156536
0.154965
0.153325
0.151619
0.149852
0.148027
0.146148
0.144217
0.142239
0.140214
0.138147
0.13604
0.133894
0.131713
0.129498
0.127253
0.124979
0.122679
0.120356
0.118013
0.115653
0.113279
0.158106
0.157033
0.155865
0.154609
0.153268
0.151849
0.150356
0.148792
0.147163
0.145472
0.143722
0.141919
0.140064
0.138161
0.136213
0.134224
0.132194
0.130129
0.128028
0.125896
0.123735
0.121546
0.119334
0.1171
0.114847
0.112578
0.110297
0.713199
0.698383
0.683227
0.667762
0.652016
0.636021
0.619809
0.603415
0.586874
0.570221
0.553493
0.536726
0.519954
0.503215
0.486541
0.469967
0.453526
0.437249
0.421165
0.405304
0.389693
0.374357
0.35932
0.344604
0.330227
0.316208
0.302549
0.753445
0.737178
0.720547
0.703582
0.686326
0.668816
0.651093
0.633196
0.615168
0.597049
0.578881
0.560702
0.542555
0.524476
0.506504
0.488675
0.471024
0.453585
0.436388
0.419464
0.402841
0.386544
0.370597
0.355022
0.339839
0.325064
0.310704
0.790562
0.772986
0.75501
0.736682
0.718046
0.699149
0.680039
0.660762
0.641364
0.621893
0.602394
0.582912
0.56349
0.54417
0.524993
0.505999
0.487224
0.468703
0.45047
0.432556
0.414988
0.397794
0.380998
0.36462
0.348681
0.333197
0.318178
0.841066
0.822851
0.804153
0.785027
0.765524
0.7457
0.725606
0.705296
0.684822
0.664236
0.64359
0.622934
0.602315
0.581782
0.561379
0.54115
0.521136
0.501377
0.481909
0.462767
0.443983
0.425587
0.407604
0.39006
0.372975
0.356368
0.340257
0.324654
0.867802
0.848732
0.829147
0.809107
0.788671
0.767899
0.74685
0.725582
0.704151
0.682615
0.661027
0.639443
0.617912
0.596486
0.575213
0.554137
0.533303
0.512752
0.492521
0.472647
0.453161
0.434096
0.415476
0.397327
0.379671
0.362524
0.345905
0.329826
0.886501
0.866841
0.84664
0.825964
0.804879
0.783448
0.761733
0.739795
0.717696
0.695495
0.673249
0.651014
0.628845
0.606794
0.58491
0.563241
0.541831
0.520723
0.499957
0.479568
0.45959
0.440054
0.420986
0.402412
0.384353
0.366827
0.349849
0.333434
0.896127
0.876164
0.855647
0.834646
0.813228
0.791458
0.7694
0.747119
0.724676
0.702132
0.679547
0.656978
0.63448
0.612107
0.589908
0.567933
0.546226
0.524831
0.503788
0.483133
0.462901
0.443122
0.423823
0.40503
0.386763
0.36904
0.351877
0.335287
0.289554
0.277015
0.26461
0.252372
0.240327
0.228506
0.21694
0.205655
0.194676
0.184025
0.173723
0.163788
0.154234
0.145075
0.136318
0.12797
0.120033
0.112507
0.105388
0.0986688
0.0923402
0.0863902
0.0808047
0.0755679
0.0706627
0.0660709
0.061774
0.0577533
0.0539905
0.0504677
0.047168
0.0440755
0.0411756
0.0384551
0.0359023
0.0335069
0.0312598
0.029153
0.0271793
0.0253319
0.0236044
0.0219898
0.020481
0.019071
0.296982
0.283704
0.270612
0.257734
0.245094
0.232723
0.220648
0.208896
0.197491
0.186453
0.175803
0.165555
0.155724
0.146318
0.137346
0.128809
0.12071
0.113044
0.105805
0.0989844
0.0925706
0.0865494
0.0809047
0.0756189
0.0706732
0.0660482
0.0617241
0.057681
0.0538999
0.050362
0.04705
0.0439475
0.0410398
0.0383135
0.0357569
0.0333596
0.0311125
0.0290078
0.0270379
0.0251961
0.0234754
0.0218688
0.0203684
0.0189669
0.303768
0.289794
0.276057
0.262582
0.249392
0.236514
0.223975
0.211798
0.200006
0.188619
0.177654
0.167126
0.157045
0.147419
0.138254
0.12955
0.121305
0.113515
0.10617
0.0992603
0.0927715
0.0866878
0.0809912
0.0756626
0.0706818
0.0660279
0.0616801
0.0576177
0.0538206
0.0502697
0.0469471
0.043836
0.0409216
0.0381903
0.0356304
0.0332316
0.0309847
0.0288818
0.0269155
0.0250787
0.0233642
0.0217645
0.0202717
0.0188778
0.309633
0.295047
0.280741
0.266742
0.25307
0.239751
0.226809
0.214265
0.202141
0.190454
0.17922
0.168452
0.158159
0.148346
0.139017
0.130171
0.121804
0.113909
0.106475
0.0994903
0.0929387
0.0868026
0.0810628
0.0756985
0.0706885
0.0660107
0.0616433
0.0575649
0.0537547
0.0501931
0.0468616
0.0437435
0.0408235
0.0380881
0.0355256
0.0331255
0.0308789
0.0287776
0.0268144
0.0249818
0.0232725
0.0216788
0.0201923
0.0188048
0.31431
0.299229
0.284464
0.270042
0.255982
0.242309
0.229044
0.216208
0.203819
0.191895
0.180448
0.169491
0.15903
0.14907
0.139612
0.130654
0.122192
0.114215
0.106712
0.0996684
0.0930679
0.0868912
0.0811179
0.0757261
0.0706934
0.0659972
0.0616147
0.057524
0.0537037
0.0501338
0.0467956
0.043672
0.0407478
0.0380093
0.0354447
0.0330437
0.0307973
0.0286974
0.0267365
0.0249073
0.0232021
0.0216131
0.0201315
0.0187491
0.317568
0.30214
0.287053
0.272333
0.258002
0.24408
0.23059
0.21755
0.204977
0.192888
0.181294
0.170205
0.159628
0.149566
0.14002
0.130986
0.122457
0.114424
0.106873
0.0997899
0.0931559
0.0869515
0.0811552
0.0757446
0.0706966
0.0659878
0.0615951
0.057496
0.0536689
0.0500934
0.0467506
0.0436233
0.0406962
0.0379556
0.0353897
0.0329881
0.0307419
0.0286429
0.0266837
0.0248568
0.0231544
0.0215686
0.0200904
0.0187115
0.31924
0.303634
0.288381
0.273507