/*--------------------------------*- C++ -*----------------------------------*\
| =========                 |                                                 |
| \\      /  F ield         | OpenFOAM: The Open Source CFD Toolbox           |
|  \\    /   O peration     | Version:  2412                                  |
|   \\  /    A nd           | Website:  www.openfoam.com                      |
|    \\/     M anipulation  |                                                 |
\*---------------------------------------------------------------------------*/
FoamFile
{
    version     2.0;
    format      ascii;
    arch        "LSB;label=32;scalar=64";
    class       surfaceScalarField;
    location    "30";
    object      phi;
}
// * * * * * * * * * * * * * * * * * * * * * * * * * * * * * * * * * * * * * //

dimensions      [0 3 -1 0 0 0 0];

oriented        oriented;

internalField   nonuniform List<scalar> 
10421
(
0.000551889
-9.74841e-05
2.47157e-08
0.000652679
-0.000100822
3.08378e-08
0.000756374
-0.00010373
3.59461e-08
0.000862557
-0.000106223
3.93918e-08
0.000970827
-0.000108311
4.14635e-08
0.00108079
-0.000110007
4.2303e-08
0.00119207
-0.00011132
4.21796e-08
0.00130429
-0.000112263
4.13526e-08
0.0014171
-0.000112847
4.00413e-08
0.00153014
-0.000113085
3.84161e-08
0.0016431
-0.000112991
3.65989e-08
0.00175564
-0.000112579
3.46756e-08
0.00186747
-0.000111863
3.26977e-08
0.0019783
-0.000110859
3.0696e-08
0.00208786
-0.000109584
2.86853e-08
0.00219588
-0.000108054
2.66687e-08
0.00230214
-0.000106286
2.46437e-08
0.00240642
-0.000104297
2.26045e-08
0.0025085
-0.000102106
2.05438e-08
0.00260822
-9.97302e-05
1.84585e-08
0.00270539
-9.71884e-05
1.6346e-08
0.00279987
-9.44986e-05
1.42083e-08
0.00289154
-9.1679e-05
1.2053e-08
0.00298028
-8.87477e-05
9.89118e-09
0.00306599
-8.5722e-05
7.73833e-09
0.0031486
-8.26179e-05
5.61394e-09
0.00322805
-7.94488e-05
3.5354e-09
-7.62235e-05
0.00330427
1.51007e-09
0.000584363
-0.000193317
0.000683533
-0.000199991
0.000785627
-0.000205825
0.000890244
-0.00021084
0.000996992
-0.000215059
0.00110549
-0.000218505
0.00121537
-0.000221196
0.00132626
-0.000223153
0.00143781
-0.000224401
0.00154969
-0.000224961
0.00166156
-0.000224861
0.00177311
-0.000224128
0.00188403
-0.00022279
0.00199405
-0.000220878
0.00210289
-0.000218423
0.00221029
-0.000215458
0.00231602
-0.000212016
0.00241986
-0.000208133
0.0025216
-0.000203843
0.00262105
-0.000199183
0.00271805
-0.000194187
0.00281244
-0.000188894
0.0029041
-0.000183337
0.00299291
-0.000177555
0.00307877
-0.00017158
0.00316159
-0.000165444
0.00324132
-0.000159175
-0.000152787
0.00331788
0.000645649
-0.000286044
0.000741729
-0.000296071
0.000840779
-0.000304875
0.000942422
-0.000312482
0.00104629
-0.000318925
0.00115201
-0.000324231
0.00125925
-0.000328428
0.00136763
-0.000331542
0.00147684
-0.000333604
0.00158653
-0.000334649
0.00169638
-0.000334711
0.00180608
-0.000333831
0.00191534
-0.000332048
0.00202387
-0.000329407
0.00213139
-0.000325953
0.00223767
-0.000321733
0.00234245
-0.000316798
0.00244552
-0.000311198
0.00254666
-0.000304983
0.00264568
-0.000298208
0.00274242
-0.000290926
0.00283672
-0.000283189
0.00292843
-0.000275052
0.00301744
-0.000266567
0.00310365
-0.000257785
0.00318696
-0.000248755
0.0032673
-0.000239514
-0.000230081
0.00334459
0.000728953
0.000820763
-0.000387881
0.00091562
-0.000399731
0.00101318
-0.000410041
0.0011131
-0.000418848
0.00121505
-0.000426182
0.0013187
-0.000432072
0.0014237
-0.000436548
0.00152975
-0.000439648
0.00163651
-0.000441409
0.00174367
-0.000441876
0.00185094
-0.000441097
0.00195801
-0.000439123
0.00206461
-0.000436008
0.00217047
-0.000431812
0.00227534
-0.000426595
0.00237896
-0.00042042
0.00248111
-0.000413352
0.00258159
-0.000405459
0.00268019
-0.00039681
0.00277674
-0.000387474
0.00287107
-0.00037752
0.00296304
-0.00036702
0.00305251
-0.000356043
0.00313938
-0.000344655
0.00322355
-0.000332921
0.00330492
-0.000320889
-0.000308578
0.00338342
0.000912076
-0.000474612
0.00100197
-0.000489627
0.00109473
-0.000502797
0.00119004
-0.000514158
0.0012876
-0.000523742
0.0013871
-0.000531571
0.00148822
-0.000537677
0.00159067
-0.000542095
0.00169413
-0.000544868
0.0017983
-0.000546045
0.00190288
-0.000545679
0.00200759
-0.00054383
0.00211214
-0.000540561
0.00221627
-0.000535941
0.00231972
-0.000530041
0.00242224
-0.000522939
0.0025236
-0.000514712
0.00262358
-0.000505442
0.00272198
-0.000495212
0.00281861
-0.000484107
0.00291331
-0.000472213
0.0030059
-0.000459616
0.00309626
-0.000446401
0.00318426
-0.000432652
0.00326978
-0.000418446
0.00335274
-0.000403845
-0.000388866
0.00343303
0.00100609
-0.00055587
0.00109068
-0.00057422
0.00117834
-0.000590461
0.00126881
-0.000604624
0.0013618
-0.000616732
0.00145703
-0.000626801
0.00155421
-0.000634855
0.00165304
-0.000640927
0.00175323
-0.00064506
0.00185449
-0.000647302
0.00195652
-0.000647711
0.00205904
-0.00064635
0.00216177
-0.000643291
0.00226444
-0.00063861
0.00236679
-0.000632387
0.00246856
-0.000624711
0.00256952
-0.000615671
0.00266944
-0.000605362
0.00276811
-0.00059388
0.00286533
-0.000581326
0.00296091
-0.000567799
0.0030547
-0.000553402
0.00314653
-0.000538235
0.00323628
-0.000522397
0.00332381
-0.000505979
0.00340902
-0.000489056
-0.000471655
0.00349181
0.00109307
0.00117253
-0.000653676
0.00125532
-0.000673248
0.00134119
-0.000690503
0.00142992
-0.000705453
0.00152122
-0.0007181
0.00161482
-0.00072846
0.00171045
-0.000736558
0.00180782
-0.00074243
0.00190664
-0.000746126
0.00200663
-0.000747701
0.00210751
-0.000747222
0.00220898
-0.000744763
0.00231078
-0.000740408
0.00241263
-0.000734245
0.00251429
-0.000726369
0.0026155
-0.000716883
0.00271603
-0.000705892
0.00281566
-0.000693505
0.00291417
-0.000679836
0.00301137
-0.000665
0.00310708
-0.000649113
0.00320114
-0.000632291
0.00329339
-0.00061465
0.00338371
-0.000596295
0.00347197
-0.000577317
0.00355808
-0.000557766
0.00338484
-8.0571e-05
-4.80786e-10
0.00346379
-7.89501e-05
-2.52439e-09
0.00354099
-7.71856e-05
-4.66227e-09
0.00361629
-7.52959e-05
-6.85446e-09
0.00368959
-7.32893e-05
-9.0398e-09
0.00376077
-7.11722e-05
-1.11612e-08
0.00382974
-6.89522e-05
-1.31636e-08
0.00389639
-6.66379e-05
-1.49974e-08
0.00396064
-6.42395e-05
-1.6619e-08
0.00402243
-6.1769e-05
-1.79923e-08
0.00408169
-5.92399e-05
-1.90868e-08
0.00413838
-5.6667e-05
-1.98777e-08
0.00419246
-5.40665e-05
-2.03508e-08
0.00424394
-5.14549e-05
-2.04982e-08
0.00429281
-4.88495e-05
-2.03207e-08
0.0043391
-4.62672e-05
-1.98284e-08
0.00438284
-4.37245e-05
-1.90411e-08
0.00442409
-4.1237e-05
-1.79846e-08
0.00446293
-3.88191e-05
-1.66918e-08
0.00449943
-3.64837e-05
-1.52014e-08
0.00453368
-3.42418e-05
-1.35549e-08
0.0045658
-3.21021e-05
-1.17939e-08
0.00459588
-3.00716e-05
-9.96031e-09
0.00462404
-2.81547e-05
-8.09361e-09
0.0046504
-2.63537e-05
-6.22806e-09
0.00467508
-2.46687e-05
-4.39249e-09
0.00469818
-2.30978e-05
-2.61178e-09
0.00471981
-2.16372e-05
-9.04644e-10
0.0047401
-2.02817e-05
7.16508e-10
0.00475912
-1.90244e-05
2.24195e-09
0.00477697
-1.78574e-05
3.66455e-09
0.00479374
-1.67722e-05
4.97895e-09
0.00480949
-1.57597e-05
6.17913e-09
0.0048243
-1.48112e-05
7.25707e-09
0.00483821
-1.39184e-05
8.20243e-09
0.00485127
-1.30741e-05
9.00349e-09
0.00486353
-1.22729e-05
9.64649e-09
0.00487504
-1.15114e-05
1.01178e-08
0.00488581
-1.0788e-05
1.04064e-08
0.00489591
-1.01032e-05
1.05058e-08
0.00490535
-9.45896e-06
1.04148e-08
0.0049142
-8.85769e-06
1.0141e-08
0.00492249
-8.30161e-06
9.70106e-09
-7.79198e-06
9.12867e-09
0.0033974
-0.000160084
0.00347534
-0.000156896
0.00355158
-0.000153427
0.003626
-0.000149708
0.00369846
-0.000145754
0.00376887
-0.000141577
0.0038371
-0.000137191
0.00390308
-0.000132613
0.00396671
-0.000127865
0.00402791
-0.000122971
0.00408662
-0.000117956
0.00414281
-0.000112853
0.00419643
-0.000107692
0.00424749
-0.000102507
0.00429597
-9.73322e-05
0.0043419
-9.22018e-05
0.00438533
-8.71485e-05
0.00442629
-8.22036e-05
0.00446487
-7.73958e-05
0.00450114
-7.27507e-05
0.00453519
-6.82903e-05
0.00456712
-6.40324e-05
0.00459704
-5.99906e-05
0.00462506
-5.61739e-05
0.00465129
-5.25871e-05
0.00467585
-4.92305e-05
0.00469885
-4.61004e-05
0.00472041
-4.31894e-05
0.00474061
-4.0487e-05
0.00475957
-3.79798e-05
0.00477736
-3.56523e-05
0.00479408
-3.34874e-05
0.00480978
-3.14675e-05
0.00482455
-2.95748e-05
0.00483842
-2.77931e-05
0.00485146
-2.61083e-05
0.00486369
-2.45096e-05
0.00487517
-2.299e-05
0.00488593
-2.15467e-05
0.00489601
-2.01805e-05
0.00490544
-1.88952e-05
0.00491428
-1.76957e-05
0.00492257
-1.65862e-05
-1.55692e-05
0.00342204
-0.000237536
0.00349803
-0.000232883
0.00357242
-0.000227822
0.0036451
-0.000222386
0.00371594
-0.000216594
0.00378483
-0.00021046
0.00385164
-0.000204008
0.00391629
-0.000197262
0.00397868
-0.000190255
0.00403873
-0.000183022
0.00409638
-0.000175606
0.00415158
-0.000168052
0.0042043
-0.000160408
0.00425451
-0.000152724
0.00430223
-0.000145051
0.00434747
-0.000137441
0.00439026
-0.000129941
0.00443066
-0.0001226
0.00446872
-0.00011546
0.00450453
-0.000108559
0.00453817
-0.000101929
0.00456974
-9.55989e-05
0.00459934
-8.95874e-05
0.00462707
-8.39087e-05
0.00465305
-7.85698e-05
0.00467739
-7.35716e-05
0.0047002
-6.89089e-05
0.00472158
-6.45709e-05
0.00474164
-6.05421e-05
0.00476046
-5.68029e-05
0.00477814
-5.33304e-05
0.00479475
-5.00996e-05
0.00481037
-4.70841e-05
0.00482505
-4.42581e-05
0.00483886
-4.15974e-05
0.00485183
-3.90812e-05
0.00486401
-3.66934e-05
0.00487545
-3.44237e-05
0.00488617
-3.22678e-05
0.00489621
-3.02271e-05
0.00490563
-2.83069e-05
0.00491444
-2.65143e-05
0.00492271
-2.48559e-05
-2.33352e-05
0.00345791
-0.000312027
0.00353109
-0.000306061
0.00360284
-0.000299568
0.00367302
-0.000292574
0.00374152
-0.000285094
0.00380821
-0.000277149
0.00387297
-0.000268768
0.0039357
-0.000259985
0.00399629
-0.000250845
0.00405466
-0.000241398
0.00411076
-0.000231699
0.00416451
-0.000221808
0.0042159
-0.000211792
0.00426489
-0.000201716
0.00431149
-0.000191649
0.0043557
-0.000181657
0.00439757
-0.000171806
0.00443713
-0.000162158
0.00447444
-0.000152769
0.00450957
-0.00014369
0.0045426
-0.000134965
0.00457363
-0.000126629
0.00460275
-0.000118708
0.00463007
-0.000111223
0.00465568
-0.000104182
0.00467969
-9.75861e-05
0.00470221
-9.14299e-05
0.00472334
-8.56993e-05
0.00474318
-8.03743e-05
0.0047618
-7.54295e-05
0.00477931
-7.08351e-05
0.00479577
-6.65584e-05
0.00481125
-6.25653e-05
0.00482581
-5.88219e-05
0.00483951
-5.52967e-05
0.00485239
-5.19625e-05
0.0048645
-4.87981e-05
0.00487586
-4.579e-05
0.00488653
-4.29326e-05
0.00489653
-4.02275e-05
0.0049059
-3.76814e-05
0.00491469
-3.53039e-05
0.00492294
-3.3103e-05
-3.10838e-05
0.00350381
-0.00038281
0.00357347
-0.000375726
0.0036419
-0.000367999
0.00370897
-0.000359635
0.00377452
-0.000350647
0.00383843
-0.000341061
0.00390058
-0.000330914
0.00396085
-0.000320254
0.00401914
-0.000309136
0.00407536
-0.000297624
0.00412945
-0.000285789
0.00418135
-0.000273706
0.00423102
-0.000261458
0.00427843
-0.000249126
0.00432357
-0.000236796
0.00436647
-0.000224549
0.00440713
-0.000212467
0.0044456
-0.000200627
0.00448192
-0.000189097
0.00451617
-0.000177942
0.00454842
-0.000167214
0.00457875
-0.000156958
0.00460725
-0.000147208
0.00463402
-0.000137987
0.00465914
-0.000129308
0.00468273
-0.000121173
0.00470488
-0.000113574
0.00472567
-0.000106496
0.00474521
-9.9914e-05
0.00476358
-9.37979e-05
0.00478086
-8.81116e-05
0.00479711
-8.28155e-05
0.00481242
-7.78681e-05
0.00482682
-7.32283e-05
0.00484038
-6.88577e-05
0.00485314
-6.4723e-05
0.00486514
-6.07984e-05
0.00487642
-5.70673e-05
0.00488701
-5.35226e-05
0.00489695
-5.01662e-05
0.00490628
-4.70063e-05
0.00491503
-4.40541e-05
0.00492324
-4.13196e-05
-3.88086e-05
0.00355832
-0.000449323
0.00362395
-0.000441354
0.00368856
-0.000432609
0.003752
-0.000423072
0.00381411
-0.000412762
0.00387476
-0.000401714
0.00393383
-0.000389979
0.00399119
-0.000377615
0.00404675
-0.000364692
0.00410041
-0.000351287
0.00415211
-0.000337485
0.00420178
-0.000323378
0.00424938
-0.000309062
0.00429489
-0.000294634
0.00433829
-0.000280195
0.00437959
-0.000265844
0.00441879
-0.000251675
0.00445594
-0.000237778
0.00449108
-0.000224237
0.00452427
-0.000211126
0.00455556
-0.000198508
0.00458504
-0.000186437
0.00461279
-0.000174953
0.00463888
-0.000164083
0.00466342
-0.000153843
0.00468648
-0.000144238
0.00470816
-0.000135258
0.00472856
-0.000126886
0.00474774
-0.000119095
0.00476579
-0.00011185
0.00478278
-0.000105108
0.00479879
-9.88247e-05
0.00481388
-9.29516e-05
0.00482809
-8.74409e-05
0.00484148
-8.2248e-05
0.00485409
-7.73342e-05
0.00486596
-7.26694e-05
0.00487713
-6.8234e-05
0.00488763
-6.40196e-05
0.00489749
-6.00281e-05
0.00490675
-5.62688e-05
0.00491545
-5.27545e-05
0.00492363
-4.94969e-05
-4.65027e-05
0.00361998
-0.000511225
0.00368125
-0.000502621
0.00374169
-0.000493053
0.00380114
-0.000482518
0.00385944
-0.000471059
0.00391645
-0.000458726
0.00397205
-0.000445582
0.00402613
-0.000431696
0.00407859
-0.000417151
0.00412934
-0.000402038
0.00417831
-0.000386456
0.00422544
-0.000370508
0.00427068
-0.000354306
0.00431401
-0.000337961
0.00435541
-0.000321589
0.00439486
-0.000305302
0.0044324
-0.000289208
0.00446803
-0.000273411
0.0045018
-0.000258005
0.00453375
-0.000243076
0.00456394
-0.000228697
0.00459243
-0.000214929
0.0046193
-0.000201819
0.00464461
-0.000189399
0.00466846
-0.000177689
0.00469091
-0.000166693
0.00471206
-0.000156404
0.00473197
-0.000146802
0.00475074
-0.000137857
0.00476842
-0.00012953
0.00478508
-0.000121776
0.0048008
-0.000114543
0.00481563
-0.000107777
0.00482961
-0.000101425
0.0048428
-9.54371e-05
0.00485524
-8.97691e-05
0.00486695
-8.43873e-05
0.00487799
-7.92694e-05
0.00488837
-7.44056e-05
0.00489814
-6.97977e-05
0.00490733
-6.54559e-05
0.00491597
-6.13945e-05
0.0049241
-5.76262e-05
-5.41586e-05
0.00386589
-0.000571229
-0.00380588
0.00392529
-0.000562022
0.00398392
-0.000551686
0.00404165
-0.000540245
0.00409833
-0.000527742
0.00415384
-0.000514239
0.00420807
-0.000499806
0.0042609
-0.000484523
0.00431223
-0.000468484
0.00436198
-0.00045179
0.00441008
-0.000434552
0.00445646
-0.000416888
0.00450107
-0.00039892
0.00454388
-0.000380775
0.00458488
-0.00036258
0.00462404
-0.000344462
0.00466137
-0.000326542
0.00469689
-0.000308935
0.00473064
-0.000291749
0.00476264
-0.000275078
0.00479295
-0.000259005
0.00482162
-0.0002436
0.00484871
-0.000228916
0.0048743
-0.00021499
0.00489846
-0.000201844
0.00492125
-0.000189487
0.00494276
-0.00017791
0.00496305
-0.000167094
0.0049822
-0.000157006
0.00500028
-0.000147605
0.00501734
-0.000138841
0.00503346
-0.000130658
0.00504868
-0.000122997
0.00506305
-0.0001158
0.00507663
-0.000109011
0.00508944
-0.000102583
0.00510153
-9.64783e-05
0.00511293
-9.06714e-05
0.00512368
-8.51517e-05
0.0051338
-7.99205e-05
0.00514334
-7.49887e-05
0.00515231
-7.03717e-05
0.00516077
-6.60835e-05
-6.2132e-05
0.00394569
-0.000625971
-0.00389095
0.0039999
-0.00061623
0.00405345
-0.000605236
0.00410623
-0.000593023
0.00415812
-0.000579638
0.00420903
-0.000565143
0.00425884
-0.000549615
0.00430745
-0.000533141
0.00435479
-0.000515822
0.00440077
-0.000497769
0.00444532
-0.000479101
0.00448838
-0.000459946
0.0045299
-0.00044044
0.00456984
-0.000420719
0.00460818
-0.000400923
0.00464491
-0.000381189
0.00468002
-0.000361651
0.00471352
-0.000342434
0.00474543
-0.000323657
0.00477577
-0.000305423
0.00480459
-0.000287824
0.00483193
-0.000270938
0.00485784
-0.000254822
0.00488237
-0.00023952
0.00490558
-0.000225058
0.00492754
-0.000211445
0.0049483
-0.000198676
0.00496794
-0.00018673
0.00498651
-0.000175574
0.00500407
-0.000165165
0.00502067
-0.000155448
0.00503638
-0.000146366
0.00505124
-0.000137855
0.00506529
-0.000129853
0.00507859
-0.000122302
0.00509115
-0.000115148
0.00510302
-0.000108351
0.00511424
-0.000101885
0.00512482
-9.5737e-05
0.00513481
-8.9908e-05
0.00514423
-8.44094e-05
0.00515312
-7.92572e-05
0.0051615
-7.44662e-05
-7.00448e-05
0.00403015
-0.000675151
-0.00398097
0.00407891
-0.000664983
0.00412713
-0.000653463
0.00417474
-0.000640628
0.00422163
-0.000626528
0.00426771
-0.000611226
0.0043129
-0.000594801
0.0043571
-0.000577347
0.00440025
-0.000558967
0.00444226
-0.00053978
0.00448307
-0.000519913
0.00452263
-0.000499503
0.00456088
-0.000478692
0.00459779
-0.000457628
0.00463333
-0.00043646
0.00466747
-0.000415334
0.00470022
-0.000394395
0.00473156
-0.000373777
0.00476151
-0.000353606
0.00479008
-0.000333997
0.00481731
-0.000315049
0.00484321
-0.000296844
0.00486784
-0.000279448
0.00489123
-0.000262908
0.00491342
-0.000247255
0.00493448
-0.0002325
0.00495444
-0.00021864
0.00497336
-0.000205654
0.0049913
-0.000193509
0.0050083
-0.000182161
0.0050244
-0.000171554
0.00503966
-0.000161628
0.00505413
-0.000152317
0.00506783
-0.000143554
0.0050808
-0.000135279
0.00509309
-0.000127436
0.00510472
-0.000119983
0.00511573
-0.000112889
0.00512613
-0.000106143
0.00513597
-9.97436e-05
0.00514526
-9.3703e-05
0.00515404
-8.80376e-05
0.00516234
-8.27625e-05
-7.78865e-05
0.00411809
-0.000718552
-0.00407469
0.00416119
-0.000708088
0.00420392
-0.000696191
0.00424619
-0.000682898
0.00428792
-0.00066826
0.00432904
-0.000652342
0.00436946
-0.000635225
0.00440912
-0.000617003
0.00444794
-0.000597786
0.00448585
-0.000577695
0.0045228
-0.000556863
0.00455873
-0.000535434
0.0045936
-0.000513557
0.00462736
-0.000491387
0.00465998
-0.00046908
0.00469143
-0.000446791
0.00472171
-0.000424671
0.0047508
-0.000402865
0.0047787
-0.000381506
0.00480541
-0.000360714
0.00483096
-0.000340597
0.00485536
-0.000321242
0.00487863
-0.000302721
0.00490081
-0.000285087
0.00492193
-0.000268372
0.00494202
-0.000252593
0.00496113
-0.000237747
0.00497929
-0.000223815
0.00499655
-0.000210765
0.00501294
-0.000198553
0.00502851
-0.000187122
0.00504329
-0.00017641
0.00505732
-0.00016635
0.00507064
-0.000156874
0.00508328
-0.000147918
0.00509527
-0.000139425
0.00510664
-0.000131351
0.00511741
-0.000123664
0.00512762
-0.000116351
0.00513729
-0.000109411
0.00514644
-0.000102854
0.0051551
-9.66991e-05
0.0051633
-9.096e-05
-8.5646e-05
0.00420827
-0.000756059
-0.00417076
0.00424562
-0.000745444
0.00428276
-0.000733328
0.00431961
-0.000719749
0.00435611
-0.000704757
0.00439218
-0.000688419
0.00442777
-0.000670814
0.00446281
-0.00065204
0.00449723
-0.000632209
0.00453098
-0.000611444
0.004564
-0.000589883
0.00459624
-0.000567672
0.00462765
-0.000544967
0.00465819
-0.000521927
0.00468782
-0.000498715
0.00471652
-0.000475491
0.00474427
-0.000452414
0.00477104
-0.000429634
0.00479682
-0.000407291
0.00482162
-0.000385512
0.00484543
-0.000364408
0.00486826
-0.000344075
0.00489013
-0.000324588
0.00491105
-0.000306004
0.00493104
-0.000288361
0.00495012
-0.000271678
0.00496833
-0.000255954
0.00498569
-0.000241174
0.00500223
-0.000227306
0.00501798
-0.000214306
0.00503298
-0.000202119
0.00504725
-0.000190682
0.00506083
-0.000179927
0.00507374
-0.000169787
0.00508602
-0.000160195
0.00509768
-0.000151093
0.00510877
-0.000142436
0.0051193
-0.000134192
0.00512929
-0.000126344
0.00513877
-0.000118893
0.00514777
-0.000111849
0.00515629
-0.000105228
0.00516438
-9.90462e-05
-9.33118e-05
0.00429948
-0.000787666
-0.00426787
0.00433108
-0.000777046
0.00436262
-0.000764872
0.00439405
-0.000751179
0.00442531
-0.000736018
0.00445635
-0.000719454
0.0044871
-0.000701567
0.00451752
-0.000682455
0.00454754
-0.00066223
0.00457711
-0.000641018
0.00460619
-0.000618958
0.00463471
-0.000596199
0.00466265
-0.0005729
0.00468994
-0.000549224
0.00471657
-0.000525337
0.00474248
-0.000501406
0.00476766
-0.000477592
0.00479207
-0.00045405
0.00481571
-0.000430926
0.00483855
-0.000408352
0.00486059
-0.000386445
0.00488181
-0.000365303
0.00490224
-0.000345009
0.00492185
-0.000325622
0.00494068
-0.000307185
0.00495872
-0.000289718
0.00497599
-0.000273227
0.00499251
-0.000257697
0.00500831
-0.000243098
0.00502339
-0.00022939
0.00503779
-0.000216517
0.00505153
-0.000204418
0.00506462
-0.000193025
0.00507711
-0.00018227
0.005089
-0.000172088
0.00510033
-0.00016242
0.00511111
-0.00015322
0.00512137
-0.000144454
0.00513114
-0.000136106
0.00514042
-0.000128176
0.00514924
-0.000120672
0.00515763
-0.000113611
0.00516559
-0.000107008
-0.000100872
0.00439054
-0.000813467
-0.00436474
0.00441648
-0.000802985
0.00444252
-0.000790908
0.00446861
-0.00077727
0.00449471
-0.000762119
0.00452078
-0.000745519
0.00454676
-0.000727549
0.00457261
-0.000708306
0.00459828
-0.000687902
0.00462372
-0.000666462
0.00464889
-0.000644127
0.00467374
-0.000621047
0.00469822
-0.000597382
0.0047223
-0.000573296
0.00474592
-0.000548959
0.00476905
-0.000524539
0.00479166
-0.000500202
0.00481372
-0.000476106
0.00483519
-0.000452401
0.00485606
-0.000429221
0.00487631
-0.000406689
0.00489591
-0.000384908
0.00491486
-0.000363962
0.00493316
-0.000343917
0.00495079
-0.000324817
0.00496776
-0.000306689
0.00498408
-0.00028954
0.00499974
-0.000273359
0.00501476
-0.000258119
0.00502915
-0.000243781
0.00504293
-0.000230294
0.00505611
-0.000217596
0.0050687
-0.000205622
0.00508074
-0.000194306
0.00509223
-0.000183581
0.0051032
-0.00017339
0.00511367
-0.000163686
0.00512365
-0.000154436
0.00513316
-0.000145623
0.00514223
-0.000137244
0.00515087
-0.00012931
0.00515909
-0.000121835
0.00516692
-0.000114834
-0.000108315
0.00448038
-0.000833647
-0.0044602
0.00450083
-0.000823438
0.00452153
-0.000811606
0.00454244
-0.000798181
0.00456353
-0.00078321
0.00458476
-0.000766754
0.0046061
-0.000748889
0.00462751
-0.000729712
0.00464894
-0.000709332
0.00467035
-0.000687875
0.0046917
-0.000665479
0.00471295
-0.000642293
0.00473405
-0.000618478
0.00475495
-0.000594199
0.00477562
-0.000569626
0.004796
-0.000544928
0.00481608
-0.000520274
0.00483579
-0.000495823
0.00485512
-0.000471727
0.00487402
-0.000448126
0.00489248
-0.000425142
0.00491045
-0.000402884
0.00492793
-0.000381439
0.00494489
-0.000360876
0.00496132
-0.000341245
0.0049772
-0.000322574
0.00499254
-0.000304876
0.00500732
-0.000288142
0.00502155
-0.000272349
0.00503523
-0.000257462
0.00504837
-0.000243431
0.00506097
-0.000230199
0.00507305
-0.000217703
0.00508462
-0.000205876
0.0050957
-0.000194656
0.00510629
-0.000183986
0.00511643
-0.000173819
0.00512611
-0.000164123
0.00513537
-0.000154879
0.00514421
-0.000146085
0.00515265
-0.000137749
0.0051607
-0.000129887
0.00516838
-0.00012251
-0.000115629
0.004568
-0.000848469
-0.00455318
0.00458322
-0.000838656
0.00459882
-0.000827203
0.00461478
-0.000814139
0.00463107
-0.000799504
0.00464768
-0.000783357
0.00466456
-0.000765774
0.00468169
-0.000746846
0.00469904
-0.00072668
0.00471657
-0.0007054
0.00473423
-0.000683141
0.00475199
-0.000660052
0.0047698
-0.000636291
0.00478762
-0.000612022
0.00480541
-0.000587414
0.00482312
-0.000562638
0.00484071
-0.000537861
0.00485813
-0.000513244
0.00487534
-0.00048894
0.00489231
-0.00046509
0.00490898
-0.000441821
0.00492534
-0.000419241
0.00494135
-0.000397444
0.00495697
-0.0003765
0.00497219
-0.000356463
0.00498698
-0.000337366
0.00500133
-0.000319224
0.00501522
-0.000302034
0.00502865
-0.000285776
0.00504161
-0.000270418
0.00505409
-0.000255915
0.0050661
-0.000242213
0.00507765
-0.000229252
0.00508875
-0.000216969
0.00509939
-0.000205302
0.0051096
-0.000194197
0.00511939
-0.000183607
0.00512877
-0.000173502
0.00513775
-0.000163862
0.00514635
-0.000154685
0.00515458
-0.000145978
0.00516245
-0.000137753
0.00516996
-0.000130026
-0.000122802
0.00465258
-0.000858261
-0.00464279
0.00466288
-0.000848954
0.00467368
-0.000838001
0.00468497
-0.000825426
0.00469673
-0.000811268
0.00470895
-0.000795582
0.00472162
-0.000778438
0.0047347
-0.000759925
0.00474816
-0.000740146
0.00476198
-0.000719221
0.00477612
-0.000697282
0.00479055
-0.000674475
0.00480521
-0.000650955
0.00482007
-0.000626884
0.00483509
-0.000602429
0.00485021
-0.000577758
0.00486539
-0.000553039
0.00488057
-0.000528432
0.00489572
-0.00050409
0.00491079
-0.000480156
0.00492573
-0.000456757
0.00494049
-0.000434005
0.00495504
-0.000411994
0.00496934
-0.0003908
0.00498335
-0.000370478
0.00499705
-0.000351066
0.00501041
-0.000332583
0.00502341
-0.00031503
0.00503602
-0.000298392
0.00504825
-0.000282641
0.00506007
-0.000267737
0.00507148
-0.000253629
0.00508249
-0.00024026
0.0050931
-0.000227572
0.0051033
-0.000215506
0.00511311
-0.00020401
0.00512255
-0.000193039
0.00513161
-0.000182562
0.00514031
-0.000172562
0.00514865
-0.000163033
0.00515666
-0.000153983
0.00516433
-0.000145424
0.00517167
-0.000137368
-0.000129823
0.00473342
-0.000863401
-0.00472828
0.00473916
-0.000854693
0.0047455
-0.000844342
0.00475245
-0.000832371
0.00475999
-0.000818813
0.00476813
-0.000803719
0.00477684
-0.000787154
0.00478612
-0.000769203
0.00479594
-0.000749964
0.00480627
-0.000729554
0.00481709
-0.000708099
0.00482836
-0.000685741
0.00484003
-0.000662631
0.00485208
-0.000638928
0.00486444
-0.000614795
0.00487708
-0.000590399
0.00488995
-0.000565903
0.00490298
-0.000541469
0.00491614
-0.000517247
0.00492937
-0.00049338
0.00494261
-0.000469997
0.00495581
-0.00044721
0.00496893
-0.000425116
0.00498193
-0.000403794
0.00499475
-0.000383302
0.00500737
-0.000363682
0.00501974
-0.000344956
0.00503184
-0.000327131
0.00504364
-0.000310196
0.00505513
-0.000294127
0.00506628
-0.00027889
0.00507709
-0.000264438
0.00508755
-0.000250719
0.00509766
-0.000237678
0.00510741
-0.000225261
0.00511682
-0.000213418
0.00512589
-0.000202105
0.00513462
-0.000191294
0.00514302
-0.000180967
0.00515111
-0.000171118
0.00515888
-0.000161755
0.00516634
-0.000152887
0.0051735
-0.000144527
-0.000136681
0.00480997
-0.0008643
-0.00480907
0.00481154
-0.000856268
0.00481381
-0.000846607
0.00481677
-0.000835335
0.00482044
-0.00082248
0.00482481
-0.00080809
0.00482988
-0.000792224
0.00483564
-0.000774962
0.00484207
-0.000756398
0.00484916
-0.00073664
0.00485687
-0.000715813
0.00486518
-0.000694051
0.00487405
-0.000671501
0.00488344
-0.000648317
0.00489331
-0.000624659
0.00490359
-0.000600688
0.00491426
-0.000576566
0.00492524
-0.00055245
0.00493648
-0.000528491
0.00494793
-0.00050483
0.00495953
-0.000481596
0.00497122
-0.000458902
0.00498295
-0.000436847
0.00499467
-0.000415511
0.00500633
-0.000394956
0.00501787
-0.000375228
0.00502927
-0.000356353
0.00504048
-0.000338341
0.00505147
-0.000321189
0.00506222
-0.000304876
0.0050727
-0.000289372
0.0050829
-0.000274637
0.00509281
-0.000260624
0.00510241
-0.000247282
0.00511171
-0.00023456
0.0051207
-0.000222412
0.0051294
-0.000210798
0.00513779
-0.000199689
0.00514589
-0.000189069
0.00515371
-0.000178932
0.00516124
-0.000169283
0.00516848
-0.000160133
0.00517545
-0.000151492
-0.000143367
0.00488183
-0.000861389
-0.00488474
0.00487966
-0.000854095
0.00487824
-0.000845193
0.00487761
-0.000834696
0.00487776
-0.000822631
0.0048787
-0.000809036
0.00488045
-0.000793969
0.00488299
-0.000777503
0.00488632
-0.000759725
0.00489041
-0.000740739
0.00489526
-0.000720661
0.00490083
-0.000699623
0.0049071
-0.000677763
0.00491401
-0.00065523
0.00492153
-0.000632178
0.00492961
-0.000608766
0.00493819
-0.000585149
0.00494722
-0.000561483
0.00495665
-0.000537915
0.0049664
-0.000514585
0.00497642
-0.00049162
0.00498666
-0.000469136
0.00499704
-0.00044723
0.00500752
-0.000425986
0.00501803
-0.000405468
0.00502852
-0.000385725
0.00503896
-0.000366788
0.00504929
-0.000348673
0.00505948
-0.000331378
0.00506949
-0.00031489
0.00507931
-0.000299184
0.0050889
-0.000284226
0.00509825
-0.000269973
0.00510734
-0.000256379
0.00511618
-0.000243399
0.00512476
-0.000230989
0.00513307
-0.000219112
0.00514112
-0.000207741
0.00514891
-0.00019686
0.00515645
-0.000186465
0.00516372
-0.00017656
0.00517074
-0.000167153
0.00517751
-0.000158254
-0.00014987
0.00494875
-0.000855111
-0.00495503
0.00494326
-0.000848598
0.00493857
-0.000840507
0.00493472
-0.000830845
0.00493172
-0.000819635
0.0049296
-0.000806909
0.00492835
-0.000792721
0.00492798
-0.000777136
0.00492849
-0.000760236
0.00492987
-0.000742118
0.0049321
-0.000722893
0.00493516
-0.000702683
0.00493902
-0.000681622
0.00494365
-0.000659852
0.00494899
-0.000637521
0.004955
-0.000614782
0.00496164
-0.000591785
0.00496884
-0.000568682
0.00497654
-0.000545618
0.00498469
-0.000522729
0.00499321
-0.000500142
0.00500205
-0.000477971
0.00501113
-0.000456315
0.0050204
-0.000435259
0.00502981
-0.00041487
0.00503928
-0.000395199
0.00504877
-0.000376283
0.00505824
-0.000358139
0.00506764
-0.000340773
0.00507692
-0.000324177
0.00508607
-0.000308331
0.00509505
-0.000293206
0.00510384
-0.000278766
0.00511243
-0.000264969
0.00512081
-0.000251775
0.00512896
-0.000239143
0.00513689
-0.000227041
0.0051446
-0.000215444
0.00515207
-0.000204336
0.00515932
-0.000193712
0.00516633
-0.000183577
0.00517312
-0.000173938
0.00517967
-0.000164805
-0.000156184
0.00501061
-0.0008459
-0.00501982
0.00500221
-0.0008402
0.00499466
-0.000832955
0.00498799
-0.00082417
0.00498221
-0.000813862
0.00497737
-0.00080206
0.00497346
-0.00078881
0.00497049
-0.000774173
0.00496848
-0.000758223
0.00496741
-0.00074105
0.00496728
-0.000722759
0.00496806
-0.000703463
0.00496973
-0.000683291
0.00497225
-0.000662376
0.00497559
-0.000640861
0.0049797
-0.00061889
0.00498453
-0.000596611
0.00499001
-0.00057417
0.0049961
-0.000551706
0.00500273
-0.000529355
0.00500982
-0.00050724
0.00501733
-0.000485474
0.00502517
-0.000464158
0.00503329
-0.000443376
0.00504162
-0.000423199
0.0050501
-0.00040368
0.00505867
-0.000384858
0.00506729
-0.000366758
0.00507591
-0.000349388
0.00508448
-0.000332747
0.00509297
-0.00031682
0.00510134
-0.000301583
0.00510958
-0.000287005
0.00511766
-0.000273052
0.00512558
-0.000259687
0.00513331
-0.000246874
0.00514085
-0.000234584
0.0051482
-0.000222794
0.00515535
-0.000211489
0.00516231
-0.000200666
0.00516906
-0.000190328
0.0051756
-0.000180483
0.00518194
-0.000171138
-0.0001623
0.0050674
-0.000834182
-0.00507911
0.0050565
-0.000829309
0.00504648
-0.000822931
0.00503736
-0.000815049
0.00502917
-0.000805676
0.00502195
-0.000794834
0.0050157
-0.000782565
0.00501045
-0.000768922
0.0050062
-0.000753975
0.00500296
-0.000737805
0.00500071
-0.000720509
0.00499944
-0.000702195
0.00499913
-0.000682981
0.00499975
-0.000662995
0.00500126
-0.000642371
0.00500362
-0.000621249
0.00500677
-0.000599768
0.00501067
-0.000578069
0.00501525
-0.000556288
0.00502045
-0.000534556
0.00502621
-0.000512995
0.00503245
-0.000491715
0.00503911
-0.000470818
0.00504612
-0.000450387
0.00505342
-0.000430496
0.00506094
-0.0004112
0.00506862