/*--------------------------------*- C++ -*----------------------------------*\
| =========                 |                                                 |
| \\      /  F ield         | OpenFOAM: The Open Source CFD Toolbox           |
|  \\    /   O peration     | Version:  2412                                  |
|   \\  /    A nd           | Website:  www.openfoam.com                      |
|    \\/     M anipulation  |                                                 |
\*---------------------------------------------------------------------------*/
FoamFile
{
    version     2.0;
    format      ascii;
    arch        "LSB;label=32;scalar=64";
    class       volVectorField;
    location    "30";
    object      UA;
}
// * * * * * * * * * * * * * * * * * * * * * * * * * * * * * * * * * * * * * //

dimensions      [0 1 -1 0 0 0 0];

internalField   nonuniform List<vector> 
5285
(
(0.0905599 -0.00031122 0)
(0.0911152 -0.000283572 0)
(0.091623 -0.000259072 0)
(0.0920884 -0.000237286 0)
(0.0925161 -0.00021785 0)
(0.0929101 -0.000200456 0)
(0.0932737 -0.000184845 0)
(0.0936101 -0.000170795 0)
(0.0939219 -0.000158116 0)
(0.0942114 -0.000146646 0)
(0.0944807 -0.000136245 0)
(0.0947316 -0.000126792 0)
(0.0949658 -0.000118182 0)
(0.0951848 -0.000110323 0)
(0.0953897 -0.000103136 0)
(0.0955819 -9.65507e-05 0)
(0.0957623 -9.05059e-05 0)
(0.0959318 -8.49476e-05 0)
(0.0960914 -7.9828e-05 0)
(0.0962418 -7.51051e-05 0)
(0.0963837 -7.07414e-05 0)
(0.0965176 -6.67035e-05 0)
(0.0966443 -6.29618e-05 0)
(0.0967642 -5.94899e-05 0)
(0.0968778 -5.62641e-05 0)
(0.0969855 -5.3263e-05 0)
(0.0970877 -5.04675e-05 0)
(0.0971848 -4.78605e-05 0)
(0.0905812 -0.000933309 0)
(0.0911341 -0.000850344 0)
(0.0916398 -0.000776829 0)
(0.0921036 -0.000711462 0)
(0.0925299 -0.000653148 0)
(0.0929227 -0.000600967 0)
(0.0932853 -0.000554136 0)
(0.0936208 -0.00051199 0)
(0.0939318 -0.000473961 0)
(0.0942207 -0.00043956 0)
(0.0944894 -0.000408367 0)
(0.0947399 -0.000380019 0)
(0.0949737 -0.000354201 0)
(0.0951922 -0.000330637 0)
(0.0953968 -0.000309088 0)
(0.0955887 -0.000289345 0)
(0.0957688 -0.000271224 0)
(0.0959381 -0.000254562 0)
(0.0960975 -0.000239217 0)
(0.0962477 -0.000225061 0)
(0.0963894 -0.000211982 0)
(0.0965232 -0.000199881 0)
(0.0966497 -0.000188668 0)
(0.0967694 -0.000178263 0)
(0.0968829 -0.000168597 0)
(0.0969904 -0.000159605 0)
(0.0970925 -0.000151229 0)
(0.0971895 -0.000143418 0)
(0.0906236 -0.00155435 0)
(0.0911717 -0.00141601 0)
(0.0916734 -0.00129343 0)
(0.0921338 -0.00118445 0)
(0.0925573 -0.00108725 0)
(0.0929477 -0.00100027 0)
(0.0933083 -0.00092223 0)
(0.0936421 -0.000852003 0)
(0.0939516 -0.000788645 0)
(0.0942392 -0.00073134 0)
(0.0945068 -0.000679386 0)
(0.0947563 -0.000632176 0)
(0.0949892 -0.000589185 0)
(0.095207 -0.000549954 0)
(0.095411 -0.000514082 0)
(0.0956022 -0.000481221 0)
(0.0957818 -0.000451063 0)
(0.0959507 -0.000423337 0)
(0.0961096 -0.000397804 0)
(0.0962594 -0.000374254 0)
(0.0964007 -0.000352498 0)
(0.0965342 -0.00033237 0)
(0.0966604 -0.000313721 0)
(0.0967799 -0.000296419 0)
(0.0968931 -0.000280346 0)
(0.0970004 -0.000265395 0)
(0.0971023 -0.00025147 0)
(0.097199 -0.000238485 0)
(0.0906865 -0.00217367 0)
(0.0912274 -0.00197984 0)
(0.0917232 -0.00180812 0)
(0.0921786 -0.00165548 0)
(0.092598 -0.00151936 0)
(0.0929848 -0.00139758 0)
(0.0933424 -0.00128834 0)
(0.0936736 -0.00119005 0)
(0.093981 -0.0011014 0)
(0.0942667 -0.00102123 0)
(0.0945327 -0.000948569 0)
(0.0947807 -0.000882554 0)
(0.0950124 -0.00082245 0)
(0.0952291 -0.000767614 0)
(0.0954321 -0.000717485 0)
(0.0956225 -0.000671571 0)
(0.0958013 -0.000629442 0)
(0.0959694 -0.000590717 0)
(0.0961277 -0.000555063 0)
(0.0962769 -0.000522181 0)
(0.0964177 -0.000491811 0)
(0.0965507 -0.000463717 0)
(0.0966764 -0.000437693 0)
(0.0967955 -0.000413551 0)
(0.0969083 -0.000391127 0)
(0.0970152 -0.000370271 0)
(0.0971168 -0.000350849 0)
(0.0972132 -0.000332741 0)
(0.0913008 -0.00254114 0)
(0.0917887 -0.00232016 0)
(0.0922376 -0.00212378 0)
(0.0926514 -0.00194869 0)
(0.0930336 -0.00179211 0)
(0.0933873 -0.00165167 0)
(0.0937152 -0.00152536 0)
(0.0940197 -0.00141146 0)
(0.0943029 -0.00130849 0)
(0.0945667 -0.00121519 0)
(0.0948129 -0.00113045 0)
(0.0950429 -0.00105332 0)
(0.0952582 -0.000982966 0)
(0.0954599 -0.00091867 0)
(0.0956491 -0.000859796 0)
(0.0958269 -0.000805788 0)
(0.0959941 -0.000756158 0)
(0.0961516 -0.000710472 0)
(0.0963 -0.00066835 0)
(0.0964401 -0.000629453 0)
(0.0965725 -0.000593479 0)
(0.0966976 -0.000560162 0)
(0.0968161 -0.000529261 0)
(0.0969284 -0.000500564 0)
(0.0970349 -0.000473878 0)
(0.097136 -0.000449032 0)
(0.097232 -0.000425869 0)
(0.0913908 -0.00309924 0)
(0.0918691 -0.00282884 0)
(0.0923099 -0.0025886 0)
(0.092717 -0.00237449 0)
(0.0930936 -0.00218307 0)
(0.0934425 -0.00201145 0)
(0.0937663 -0.00185715 0)
(0.0940672 -0.00171807 0)
(0.0943474 -0.00159238 0)
(0.0946087 -0.00147853 0)
(0.0948526 -0.00137517 0)
(0.0950806 -0.00128112 0)
(0.0952941 -0.00119537 0)
(0.0954943 -0.00111702 0)
(0.0956821 -0.00104531 0)
(0.0958587 -0.00097954 0)
(0.0960247 -0.000919123 0)
(0.0961812 -0.000863524 0)
(0.0963287 -0.000812276 0)
(0.0964679 -0.000764965 0)
(0.0965995 -0.000721222 0)
(0.0967239 -0.000680719 0)
(0.0968417 -0.000643162 0)
(0.0969533 -0.000608292 0)
(0.0970592 -0.000575872 0)
(0.0971597 -0.000545693 0)
(0.0972552 -0.000517566 0)
(0.0914964 -0.00365353 0)
(0.0919633 -0.00333347 0)
(0.0923947 -0.00304922 0)
(0.0927939 -0.00279599 0)
(0.0931639 -0.0025697 0)
(0.0935072 -0.00236691 0)
(0.0938262 -0.00218468 0)
(0.0941232 -0.00202048 0)
(0.0943999 -0.00187217 0)
(0.0946581 -0.00173789 0)
(0.0948994 -0.00161603 0)
(0.0951251 -0.0015052 0)
(0.0953366 -0.00140418 0)
(0.0955349 -0.00131194 0)
(0.0957211 -0.00122753 0)
(0.0958962 -0.00115015 0)
(0.096061 -0.00107909 0)
(0.0962162 -0.00101372 0)
(0.0963626 -0.000953493 0)
(0.0965009 -0.000897906 0)
(0.0966315 -0.000846527 0)
(0.0967551 -0.000798968 0)
(0.0968721 -0.000754881 0)
(0.096983 -0.000713958 0)
(0.0970882 -0.000675921 0)
(0.097188 -0.000640522 0)
(0.0972829 -0.000607536 0)
(0.0972774 -4.54602e-05 0)
(0.0973665 -4.32458e-05 0)
(0.097453 -4.11327e-05 0)
(0.0975369 -3.91169e-05 0)
(0.0976183 -3.71941e-05 0)
(0.0976972 -3.53606e-05 0)
(0.0977737 -3.36124e-05 0)
(0.0978479 -3.19461e-05 0)
(0.0979198 -3.03579e-05 0)
(0.0979896 -2.88446e-05 0)
(0.0980571 -2.74029e-05 0)
(0.0981226 -2.60297e-05 0)
(0.098186 -2.47219e-05 0)
(0.0982474 -2.34767e-05 0)
(0.0983069 -2.22912e-05 0)
(0.0983645 -2.11629e-05 0)
(0.0984203 -2.0089e-05 0)
(0.0984744 -1.90673e-05 0)
(0.0985267 -1.80953e-05 0)
(0.0985773 -1.71707e-05 0)
(0.0986263 -1.62914e-05 0)
(0.0986737 -1.54553e-05 0)
(0.0987196 -1.46603e-05 0)
(0.0987639 -1.39047e-05 0)
(0.0988069 -1.31865e-05 0)
(0.0988484 -1.2504e-05 0)
(0.0988886 -1.18555e-05 0)
(0.0989274 -1.12394e-05 0)
(0.098965 -1.06542e-05 0)
(0.0990013 -1.00985e-05 0)
(0.0990364 -9.57068e-06 0)
(0.0990703 -9.06956e-06 0)
(0.0991031 -8.59382e-06 0)
(0.0991348 -8.14223e-06 0)
(0.0991655 -7.71362e-06 0)
(0.0991951 -7.30687e-06 0)
(0.0992237 -6.92093e-06 0)
(0.0992513 -6.55477e-06 0)
(0.099278 -6.20741e-06 0)
(0.0993038 -5.87794e-06 0)
(0.0993287 -5.56546e-06 0)
(0.0993527 -5.26914e-06 0)
(0.0993759 -4.98818e-06 0)
(0.0993983 -4.7218e-06 0)
(0.0972819 -0.000136229 0)
(0.0973708 -0.000129597 0)
(0.097457 -0.00012327 0)
(0.0975406 -0.000117232 0)
(0.0976218 -0.000111474 0)
(0.0977005 -0.000105982 0)
(0.0977768 -0.000100745 0)
(0.0978508 -9.57538e-05 0)
(0.0979225 -9.09962e-05 0)
(0.097992 -8.64627e-05 0)
(0.0980594 -8.21434e-05 0)
(0.0981247 -7.80291e-05 0)
(0.098188 -7.41106e-05 0)
(0.0982493 -7.03795e-05 0)
(0.0983087 -6.68273e-05 0)
(0.0983662 -6.34461e-05 0)
(0.0984219 -6.02282e-05 0)
(0.0984758 -5.71662e-05 0)
(0.098528 -5.42531e-05 0)
(0.0985785 -5.14821e-05 0)
(0.0986274 -4.88466e-05 0)
(0.0986748 -4.63406e-05 0)
(0.0987206 -4.39579e-05 0)
(0.0987649 -4.16929e-05 0)
(0.0988078 -3.95401e-05 0)
(0.0988492 -3.74943e-05 0)
(0.0988893 -3.55503e-05 0)
(0.0989281 -3.37035e-05 0)
(0.0989656 -3.19492e-05 0)
(0.0990019 -3.0283e-05 0)
(0.099037 -2.87007e-05 0)
(0.0990709 -2.71983e-05 0)
(0.0991036 -2.5772e-05 0)
(0.0991353 -2.4418e-05 0)
(0.0991659 -2.31329e-05 0)
(0.0991955 -2.19134e-05 0)
(0.099224 -2.07562e-05 0)
(0.0992516 -1.96583e-05 0)
(0.0992783 -1.86167e-05 0)
(0.0993041 -1.76288e-05 0)
(0.0993289 -1.66918e-05 0)
(0.099353 -1.58032e-05 0)
(0.0993762 -1.49607e-05 0)
(0.0993986 -1.41619e-05 0)
(0.097291 -0.000226543 0)
(0.0973792 -0.000215531 0)
(0.0974649 -0.000205022 0)
(0.097548 -0.000194994 0)
(0.0976287 -0.000185428 0)
(0.0977069 -0.000176304 0)
(0.0977828 -0.000167604 0)
(0.0978564 -0.000159309 0)
(0.0979278 -0.000151402 0)
(0.097997 -0.000143868 0)
(0.0980641 -0.000136688 0)
(0.0981291 -0.000129849 0)
(0.098192 -0.000123334 0)
(0.0982531 -0.000117131 0)
(0.0983122 -0.000111225 0)
(0.0983695 -0.000105602 0)
(0.0984249 -0.000100251 0)
(0.0984786 -9.51581e-05 0)
(0.0985307 -9.03128e-05 0)
(0.098581 -8.57036e-05 0)
(0.0986297 -8.13196e-05 0)
(0.0986769 -7.71505e-05 0)
(0.0987226 -7.31865e-05 0)
(0.0987668 -6.9418e-05 0)
(0.0988095 -6.58359e-05 0)
(0.0988509 -6.24316e-05 0)
(0.0988909 -5.91967e-05 0)
(0.0989295 -5.61232e-05 0)
(0.098967 -5.32036e-05 0)
(0.0990031 -5.04304e-05 0)
(0.0990381 -4.77968e-05 0)
(0.0990719 -4.5296e-05 0)
(0.0991046 -4.29218e-05 0)
(0.0991362 -4.06679e-05 0)
(0.0991668 -3.85286e-05 0)
(0.0991963 -3.64983e-05 0)
(0.0992248 -3.45717e-05 0)
(0.0992523 -3.27437e-05 0)
(0.0992789 -3.10095e-05 0)
(0.0993047 -2.93646e-05 0)
(0.0993295 -2.78044e-05 0)
(0.0993535 -2.63248e-05 0)
(0.0993766 -2.49218e-05 0)
(0.099399 -2.35916e-05 0)
(0.0973045 -0.000316104 0)
(0.0973919 -0.000300771 0)
(0.0974768 -0.000286135 0)
(0.0975591 -0.000272168 0)
(0.0976391 -0.000258842 0)
(0.0977166 -0.00024613 0)
(0.0977919 -0.000234005 0)
(0.0978649 -0.000222445 0)
(0.0979357 -0.000211423 0)
(0.0980044 -0.000200919 0)
(0.098071 -0.000190908 0)
(0.0981355 -0.00018137 0)
(0.0981981 -0.000172285 0)
(0.0982587 -0.000163631 0)
(0.0983174 -0.000155391 0)
(0.0983744 -0.000147547 0)
(0.0984295 -0.000140079 0)
(0.0984829 -0.000132972 0)
(0.0985346 -0.00012621 0)
(0.0985847 -0.000119776 0)
(0.0986332 -0.000113656 0)
(0.0986802 -0.000107835 0)
(0.0987256 -0.0001023 0)
(0.0987696 -9.70379e-05 0)
(0.0988121 -9.20354e-05 0)
(0.0988533 -8.72808e-05 0)
(0.0988931 -8.27624e-05 0)
(0.0989317 -7.84691e-05 0)
(0.0989689 -7.43904e-05 0)
(0.099005 -7.05161e-05 0)
(0.0990398 -6.68364e-05 0)
(0.0990735 -6.33422e-05 0)
(0.0991061 -6.00244e-05 0)
(0.0991376 -5.68746e-05 0)
(0.099168 -5.38848e-05 0)
(0.0991975 -5.10471e-05 0)
(0.0992259 -4.83542e-05 0)
(0.0992534 -4.57991e-05 0)
(0.0992799 -4.33749e-05 0)
(0.0993055 -4.10753e-05 0)
(0.0993303 -3.88941e-05 0)
(0.0993542 -3.68254e-05 0)
(0.0993774 -3.48638e-05 0)
(0.0993997 -3.30038e-05 0)
(0.0973225 -0.000404618 0)
(0.0974087 -0.000385048 0)
(0.0974925 -0.000366363 0)
(0.0975738 -0.000348527 0)
(0.0976528 -0.000331506 0)
(0.0977295 -0.000315265 0)
(0.0978039 -0.000299773 0)
(0.0978762 -0.000284997 0)
(0.0979462 -0.000270909 0)
(0.0980142 -0.000257478 0)
(0.0980801 -0.000244676 0)
(0.0981441 -0.000232476 0)
(0.0982061 -0.000220853 0)
(0.0982662 -0.000209782 0)
(0.0983244 -0.000199237 0)
(0.0983809 -0.000189197 0)
(0.0984356 -0.000179638 0)
(0.0984886 -0.000170539 0)
(0.0985399 -0.000161879 0)
(0.0985897 -0.00015364 0)
(0.0986378 -0.000145801 0)
(0.0986844 -0.000138345 0)
(0.0987296 -0.000131254 0)
(0.0987733 -0.000124511 0)
(0.0988156 -0.000118101 0)
(0.0988565 -0.000112007 0)
(0.0988961 -0.000106216 0)
(0.0989345 -0.000100712 0)
(0.0989715 -9.54831e-05 0)
(0.0990074 -9.05156e-05 0)
(0.0990421 -8.57972e-05 0)
(0.0990756 -8.13162e-05 0)
(0.0991081 -7.70611e-05 0)
(0.0991394 -7.30211e-05 0)
(0.0991697 -6.91859e-05 0)
(0.099199 -6.55457e-05 0)
(0.0992274 -6.20908e-05 0)
(0.0992547 -5.88125e-05 0)
(0.0992812 -5.57019e-05 0)
(0.0993067 -5.27509e-05 0)
(0.0993314 -4.99517e-05 0)
(0.0993553 -4.72968e-05 0)
(0.0993783 -4.47791e-05 0)
(0.0994006 -4.23917e-05 0)
(0.0973447 -0.000491803 0)
(0.0974296 -0.000468101 0)
(0.097512 -0.000445463 0)
(0.0975921 -0.000423848 0)
(0.0976699 -0.000403215 0)
(0.0977455 -0.000383522 0)
(0.0978189 -0.000364732 0)
(0.0978901 -0.000346807 0)
(0.0979593 -0.000329711 0)
(0.0980264 -0.000313409 0)
(0.0980915 -0.000297867 0)
(0.0981547 -0.000283053 0)
(0.098216 -0.000268936 0)
(0.0982755 -0.000255486 0)
(0.0983331 -0.000242673 0)
(0.098389 -0.00023047 0)
(0.0984431 -0.000218851 0)
(0.0984956 -0.000207789 0)
(0.0985465 -0.000197259 0)
(0.0985958 -0.000187238 0)
(0.0986435 -0.000177703 0)
(0.0986898 -0.000168631 0)
(0.0987346 -0.000160003 0)
(0.0987779 -0.000151797 0)
(0.0988199 -0.000143994 0)
(0.0988606 -0.000136576 0)
(0.0988999 -0.000129525 0)
(0.098938 -0.000122823 0)
(0.0989748 -0.000116455 0)
(0.0990104 -0.000110405 0)
(0.0990449 -0.000104657 0)
(0.0990783 -9.91979e-05 0)
(0.0991105 -9.40134e-05 0)
(0.0991417 -8.90904e-05 0)
(0.0991719 -8.44165e-05 0)
(0.099201 -7.99797e-05 0)
(0.0992292 -7.57685e-05 0)
(0.0992564 -7.1772e-05 0)
(0.0992828 -6.79797e-05 0)
(0.0993082 -6.43817e-05 0)
(0.0993328 -6.09684e-05 0)
(0.0993566 -5.77308e-05 0)
(0.0993795 -5.46602e-05 0)
(0.0994017 -5.17484e-05 0)
(0.0973711 -0.000577385 0)
(0.0974543 -0.000549676 0)
(0.0975352 -0.000523203 0)
(0.0976138 -0.000497917 0)
(0.0976902 -0.00047377 0)
(0.0977645 -0.000450718 0)
(0.0978367 -0.000428715 0)
(0.0979068 -0.000407718 0)
(0.0979748 -0.000387687 0)
(0.0980409 -0.00036858 0)
(0.0981051 -0.00035036 0)
(0.0981674 -0.000332988 0)
(0.0982279 -0.000316429 0)
(0.0982865 -0.000300649 0)
(0.0983435 -0.000285612 0)
(0.0983986 -0.000271288 0)
(0.0984522 -0.000257646 0)
(0.0985041 -0.000244655 0)
(0.0985544 -0.000232286 0)
(0.0986031 -0.000220513 0)
(0.0986504 -0.000209308 0)
(0.0986962 -0.000198646 0)
(0.0987405 -0.000188503 0)
(0.0987835 -0.000178855 0)
(0.0988251 -0.000169679 0)
(0.0988654 -0.000160954 0)
(0.0989044 -0.000152659 0)
(0.0989421 -0.000144774 0)
(0.0989787 -0.000137281 0)
(0.0990141 -0.00013016 0)
(0.0990483 -0.000123394 0)
(0.0990814 -0.000116967 0)
(0.0991134 -0.000110863 0)
(0.0991444 -0.000105066 0)
(0.0991744 -9.95613e-05 0)
(0.0992034 -9.43353e-05 0)
(0.0992314 -8.93745e-05 0)
(0.0992585 -8.4666e-05 0)
(0.0992847 -8.01977e-05 0)
(0.09931 -7.59578e-05 0)
(0.0993344 -7.19351e-05 0)
(0.0993581 -6.81192e-05 0)
(0.0993809 -6.44997e-05 0)
(0.099403 -6.1067e-05 0)
(0.0974024 -0.000663086 0)
(0.0974836 -0.000631425 0)
(0.0975626 -0.000601163 0)
(0.0976395 -0.000572247 0)
(0.0977143 -0.000544623 0)
(0.097787 -0.000518241 0)
(0.0978577 -0.00049305 0)
(0.0979265 -0.000469003 0)
(0.0979933 -0.000446053 0)
(0.0980582 -0.000424155 0)
(0.0981212 -0.000403266 0)
(0.0981825 -0.000383343 0)
(0.098242 -0.000364347 0)
(0.0982997 -0.000346238 0)
(0.0983557 -0.000328978 0)
(0.0984101 -0.000312532 0)
(0.0984629 -0.000296863 0)
(0.0985141 -0.000281938 0)
(0.0985637 -0.000267726 0)
(0.0986118 -0.000254193 0)
(0.0986585 -0.000241311 0)
(0.0987038 -0.000229051 0)
(0.0987476 -0.000217384 0)
(0.0987901 -0.000206284 0)
(0.0988312 -0.000195726 0)
(0.0988711 -0.000185684 0)
(0.0989097 -0.000176135 0)
(0.0989471 -0.000167056 0)
(0.0989833 -0.000158427 0)
(0.0990184 -0.000150225 0)
(0.0990523 -0.000142431 0)
(0.0990852 -0.000135026 0)
(0.0991169 -0.000127991 0)
(0.0991477 -0.00012131 0)
(0.0991774 -0.000114964 0)
(0.0992062 -0.000108939 0)
(0.099234 -0.000103219 0)
(0.0992609 -9.77891e-05 0)
(0.0992869 -9.26354e-05 0)
(0.0993121 -8.77445e-05 0)
(0.0993364 -8.31037e-05 0)
(0.0993599 -7.87008e-05 0)
(0.0993826 -7.45242e-05 0)
(0.0994046 -7.05626e-05 0)
(0.0974386 -0.000748495 0)
(0.0975175 -0.000712968 0)
(0.0975944 -0.000678994 0)
(0.0976692 -0.000646516 0)
(0.0977422 -0.000615475 0)
(0.0978131 -0.000585815 0)
(0.0978822 -0.000557482 0)
(0.0979493 -0.000530425 0)
(0.0980147 -0.000504591 0)
(0.0980782 -0.000479932 0)
(0.09814 -0.000456399 0)
(0.0982 -0.000433947 0)
(0.0982583 -0.000412532 0)
(0.098315 -0.000392109 0)
(0.09837 -0.000372637 0)
(0.0984235 -0.000354077 0)
(0.0984754 -0.000336389 0)
(0.0985257 -0.000319536 0)
(0.0985746 -0.000303481 0)
(0.098622 -0.000288191 0)
(0.098668 -0.000273632 0)
(0.0987126 -0.000259771 0)
(0.0987559 -0.000246578 0)
(0.0987978 -0.000234023 0)
(0.0988384 -0.000222077 0)
(0.0988778 -0.000210712 0)
(0.098916 -0.000199904 0)
(0.0989529 -0.000189625 0)
(0.0989888 -0.000179853 0)
(0.0990234 -0.000170563 0)
(0.099057 -0.000161733 0)
(0.0990895 -0.000153342 0)
(0.099121 -0.00014537 0)
(0.0991515 -0.000137796 0)
(0.099181 -0.000130602 0)
(0.0992095 -0.00012377 0)
(0.0992371 -0.000117282 0)
(0.0992638 -0.000111123 0)
(0.0992896 -0.000105276 0)
(0.0993146 -9.97266e-05 0)
(0.0993387 -9.44602e-05 0)
(0.0993621 -8.9463e-05 0)
(0.0993846 -8.47219e-05 0)
(0.0994064 -8.02244e-05 0)
(0.0974788 -0.00083132 0)
(0.0975552 -0.000792125 0)
(0.0976297 -0.000754624 0)
(0.0977024 -0.000718753 0)
(0.0977732 -0.000684452 0)
(0.0978422 -0.000651662 0)
(0.0979094 -0.000620323 0)
(0.0979749 -0.00059038 0)
(0.0980386 -0.000561778 0)
(0.0981006 -0.000534465 0)
(0.0981609 -0.000508388 0)
(0.0982196 -0.000483499 0)
(0.0982767 -0.000459748 0)
(0.0983321 -0.000437089 0)
(0.0983861 -0.000415478 0)
(0.0984384 -0.00039487 0)
(0.0984893 -0.000375224 0)
(0.0985388 -0.000356498 0)
(0.0985868 -0.000338654 0)
(0.0986334 -0.000321654 0)
(0.0986786 -0.000305461 0)
(0.0987225 -0.00029004 0)
(0.0987651 -0.000275358 0)
(0.0988064 -0.000261381 0)
(0.0988465 -0.00024808 0)
(0.0988853 -0.000235422 0)
(0.098923 -0.000223381 0)
(0.0989595 -0.000211927 0)
(0.0989949 -0.000201034 0)
(0.0990291 -0.000190676 0)
(0.0990623 -0.00018083 0)
(0.0990945 -0.00017147 0)
(0.0991256 -0.000162576 0)
(0.0991558 -0.000154124 0)
(0.099185 -0.000146095 0)
(0.0992132 -0.000138468 0)
(0.0992405 -0.000131225 0)
(0.099267 -0.000124346 0)
(0.0992926 -0.000117816 0)
(0.0993174 -0.000111617 0)
(0.0993413 -0.000105732 0)
(0.0993645 -0.000100148 0)
(0.0993869 -9.48493e-05 0)
(0.0994085 -8.9822e-05 0)
(0.0975228 -0.00091132 0)
(0.0975965 -0.000868672 0)
(0.0976685 -0.000827842 0)
(0.0977388 -0.000788764 0)
(0.0978073 -0.000751375 0)
(0.0978742 -0.000715613 0)
(0.0979394 -0.000681415 0)
(0.0980029 -0.000648723 0)
(0.0980649 -0.00061748 0)
(0.0981252 -0.000587629 0)
(0.098184 -0.000559117 0)
(0.0982412 -0.000531889 0)
(0.0982968 -0.000505896 0)
(0.098351 -0.000481087 0)
(0.0984037 -0.000457414 0)
(0.0984549 -0.000434831 0)
(0.0985048 -0.000413294 0)
(0.0985532 -0.000392758 0)
(0.0986003 -0.000373181 0)
(0.098646 -0.000354523 0)
(0.0986904 -0.000336746 0)
(0.0987335 -0.00031981 0)
(0.0987753 -0.000303679 0)
(0.098816 -0.00028832 0)
(0.0988554 -0.000273697 0)
(0.0988936 -0.000259778 0)
(0.0989307 -0.000246533 0)
(0.0989667 -0.00023393 0)
(0.0990016 -0.000221942 0)
(0.0990354 -0.00021054 0)
(0.0990682 -0.000199697 0)
(0.0990999 -0.000189389 0)
(0.0991307 -0.00017959 0)
(0.0991605 -0.000170277 0)
(0.0991894 -0.000161427 0)
(0.0992173 -0.00015302 0)
(0.0992444 -0.000145033 0)
(0.0992706 -0.000137447 0)
(0.0992959 -0.000130243 0)
(0.0993204 -0.000123404 0)
(0.0993442 -0.000116911 0)
(0.0993671 -0.000110747 0)
(0.0993893 -0.000104898 0)
(0.0994108 -9.93479e-05 0)
(0.0975705 -0.000988276 0)
(0.0976413 -0.000942404 0)
(0.0977105 -0.000898458 0)
(0.0977782 -0.000856371 0)
(0.0978443 -0.000816077 0)
(0.0979089 -0.000777513 0)
(0.0979719 -0.000740614 0)
(0.0980334 -0.00070532 0)
(0.0980934 -0.000671571 0)
(0.0981519 -0.000639308 0)
(0.098209 -0.000608476 0)
(0.0982646 -0.000579018 0)
(0.0983188 -0.000550882 0)
(0.0983715 -0.000524014 0)
(0.0984229 -0.000498366 0)
(0.0984729 -0.000473887 0)
(0.0985216 -0.000450531 0)
(0.0985689 -0.000428251 0)
(0.0986149 -0.000407004 0)
(0.0986597 -0.000386746 0)
(0.0987032 -0.000367436 0)
(0.0987455 -0.000349033 0)
(0.0987865 -0.000331499 0)
(0.0988264 -0.000314798 0)
(0.0988651 -0.000298892 0)
(0.0989027 -0.000283747 0)
(0.0989392 -0.00026933 0)
(0.0989746 -0.000255608 0)
(0.099009 -0.000242552 0)
(0.0990423 -0.00023013 0)
(0.0990746 -0.000218314 0)
(0.0991059 -0.000207078 0)
(0.0991363 -0.000196394 0)
(0.0991657 -0.000186237 0)
(0.0991942 -0.000176584 0)
(0.0992218 -0.00016741 0)
(0.0992486 -0.000158693 0)
(0.0992745 -0.000150412 0)
(0.0992996 -0.000142547 0)
(0.0993238 -0.000135078 0)
(0.0993473 -0.000127985 0)
(0.0993701 -0.000121252 0)
(0.0993921 -0.000114861 0)
(0.0994134 -0.000108795 0)
(0.0976214 -0.001062 0)
(0.0976891 -0.00101314 0)
(0.0977555 -0.000966301 0)
(0.0978204 -0.000921412 0)
(0.0978839 -0.000878408 0)
(0.0979461 -0.000837221 0)
(0.0980068 -0.000797788 0)
(0.0980661 -0.000760047 0)
(0.0981241 -0.000723935 0)
(0.0981807 -0.000689395 0)
(0.098236 -0.000656366 0)
(0.0982899 -0.000624792 0)
(0.0983424 -0.000594619 0)
(0.0983937 -0.000565791 0)
(0.0984436 -0.000538258 0)
(0.0984923 -0.000511967 0)
(0.0985397 -0.00048687 0)
(0.0985859 -0.000462918 0)
(0.0986308 -0.000440067 0)
(0.0986745 -0.000418269 0)
(0.0987171 -0.000397483 0)
(0.0987584 -0.000377666 0)
(0.0987986 -0.000358777 0)
(0.0988377 -0.000340777 0)
(0.0988757 -0.000323629 0)
(0.0989126 -0.000307295 0)
(0.0989484 -0.000291741 0)
(0.0989832 -0.000276933 0)
(0.099017 -0.000262837 0)
(0.0990498 -0.000249422 0)
(0.0990816 -0.000236659 0)
(0.0991124 -0.000224517 0)
(0.0991423 -0.000212969 0)
(0.0991713 -0.000201988 0)
(0.0991995 -0.000191548 0)
(0.0992267 -0.000181624 0)
(0.0992531 -0.000172192 0)
(0.0992787 -0.000163231 0)
(0.0993035 -0.000154716 0)
(0.0993275 -0.000146629 0)
(0.0993508 -0.000138948 0)
(0.0993733 -0.000131654 0)
(0.099395 -0.000124729 0)
(0.0994161 -0.000118156 0)
(0.0976754 -0.00113231 0)
(0.0977399 -0.00108072 0)
(0.0978032 -0.00103122 0)
(0.0978653 -0.000983746 0)
(0.0979261 -0.000938232 0)
(0.0979856 -0.00089461 0)
(0.098044 -0.000852818 0)
(0.098101 -0.000812792 0)
(0.0981568 -0.000774469 0)
(0.0982114 -0.00073779 0)
(0.0982647 -0.000702695 0)
(0.0983168 -0.000669126 0)
(0.0983677 -0.000637027 0)
(0.0984174 -0.000606343 0)
(0.0984658 -0.00057702 0)
(0.0985131 -0.000549006 0)
(0.0985592 -0.00052225 0)
(0.0986041 -0.000496703 0)
(0.0986478 -0.000472317 0)
(0.0986904 -0.000449045 0)
(0.0987319 -0.000426843 0)
(0.0987723 -0.000405666 0)
(0.0988116 -0.000385473 0)
(0.0988499 -0.000366223 0)
(0.098887 -0.000347876 0)
(0.0989232 -0.000330393 0)
(0.0989583 -0.000313739 0)
(0.0989924 -0.000297877 0)
(0.0990256 -0.000282774 0)
(0.0990578 -0.000268395 0)
(0.0990891 -0.00025471 0)
(0.0991194 -0.000241687 0)
(0.0991489 -0.000229298 0)
(0.0991774 -0.000217513 0)
(0.0992051 -0.000206305 0)
(0.099232 -0.000195649 0)
(0.0992581 -0.000185518 0)
(0.0992833 -0.00017589 0)
(0.0993078 -0.00016674 0)
(0.0993315 -0.000158047 0)
(0.0993545 -0.000149788 0)
(0.0993767 -0.000141944 0)
(0.0993983 -0.000134496 0)
(0.0994191 -0.000127424 0)
(0.0977322 -0.00119908 0)
(0.0977934 -0.001145 0)
(0.0978535 -0.00109308 0)
(0.0979125 -0.00104325 0)
(0.0979705 -0.000995433 0)
(0.0980274 -0.000949571 0)
(0.0980832 -0.000905599 0)
(0.0981379 -0.000863456 0)
(0.0981914 -0.000823078 0)
(0.0982439 -0.000784406 0)
(0.0982952 -0.000747379 0)
(0.0983454 -0.000711941 0)
(0.0983945 -0.000678033 0)
(0.0984425 -0.000645601 0)
(0.0984894 -0.000614589 0)
(0.0985351 -0.000584944 0)
(0.0985798 -0.000556615 0)
(0.0986234 -0.000529552 0)
(0.0986659 -0.000503706 0)
(0.0987074 -0.000479028 0)
(0.0987478 -0.000455473 0)
(0.0987871 -0.000432995 0)
(0.0988255 -0.000411552 0)
(0.0988628 -0.000391101 0)
(0.0988991 -0.0003716 0)
(0.0989345 -0.000353012 0)
(0.0989689 -0.000335296 0)
(0.0990023 -0.000318417 0)
(0.0990348 -0.000302339 0)
(0.0990664 -0.000287027 0)
(0.0990971 -0.000272448 0)
(0.0991269 -0.000258571 0)
(0.0991558 -0.000245363 0)
(0.0991839 -0.000232796 0)
(0.0992112 -0.000220841 0)
(0.0992377 -0.000209471 0)
(0.0992633 -0.000198659 0)
(0.0992882 -0.000188379 0)
(0.0993124 -0.000178608 0)
(0.0993358 -0.000169322 0)
(0.0993584 -0.000160498 0)
(0.0993804 -0.000152116 0)
(0.0994017 -0.000144153 0)
(0.0994223 -0.000136592 0)
(0.0977914 -0.00126218 0)
(0.0978492 -0.00120588 0)
(0.0979061 -0.00115179 0)
(0.097962 -0.00109982 0)
(0.0980171 -0.00104991 0)
(0.0980712 -0.00100201 0)
(0.0981244 -0.00095604 0)
(0.0981766 -0.000911952 0)
(0.0982278 -0.00086968 0)
(0.098278 -0.000829164 0)
(0.0983273 -0.000790346 0)
(0.0983755 -0.000753168 0)
(0.0984227 -0.000717572 0)
(0.0984689 -0.000683502 0)
(0.0985142 -0.000650905 0)
(0.0985584 -0.000619727 0)
(0.0986016 -0.000589915 0)
(0.0986438 -0.000561419 0)
(0.098685 -0.000534189 0)
(0.0987253 -0.000508176 0)
(0.0987645 -0.000483334 0)
(0.0988028 -0.000459616 0)
(0.0988401 -0.000436979 0)
(0.0988765 -0.000415379 0)
(0.0989119 -0.000394773 0)
(0.0989465 -0.000375123 0)
(0.0989801 -0.000356387 0)
(0.0990128 -0.000338529 0)
(0.0990446 -0.000321511 0)
(0.0990755 -0.000305298 0)
(0.0991056 -0.000289855 0)
(0.0991348 -0.000275149 0)
(0.0991632 -0.000261149 0)
(0.0991908 -0.000247824 0)
(0.0992176 -0.000235143 0)
(0.0992437 -0.000223078 0)
(0.0992689 -0.000211602 0)
(0.0992934 -0.000200688 0)
(0.0993172 -0.000190311 0)
(0.0993403 -0.000180446 0)
(0.0993627 -0.00017107 0)
(0.0993843 -0.00016216 0)
(0.0994054 -0.000153694 0)
(0.0994257 -0.000145653 0)
(0.0978529 -0.00132152 0)
(0.0979072 -0.00126327 0)
(0.0979607 -0.00120724 0)
(0.0980135 -0.00115336 0)
(0.0980656 -0.00110158 0)
(0.0981168 -0.00105183 0)
(0.0981673 -0.00100406 0)
(0.0982169 -0.000958205 0)
(0.0982657 -0.000914203 0)
(0.0983137 -0.000871998 0)
(0.0983608 -0.00083153 0)
(0.098407 -0.000792745 0)
(0.0984523 -0.000755584 0)
(0.0984967 -0.000719993 0)
(0.0985402 -0.000685918 0)
(0.0985828 -0.000653305 0)
(0.0986245 -0.000622102 0)
(0.0986653 -0.000592259 0)
(0.0987051 -0.000563724 0)
(0.0987441 -0.00053645 0)
(0.0987821 -0.000510389 0)
(0.0988193 -0.000485495 0)
(0.0988556 -0.000461722 0)
(0.098891 -0.000439027 0)
(0.0989255 -0.000417367 0)
(0.0989591 -0.000396701 0)
(0.0989919 -0.000376988 0)
(0.0990238 -0.00035819 0)
(0.0990549 -0.000340268 0)
(0.0990851 -0.000323188 0)
(0.0991146 -0.000306912 0)
(0.0991432 -0.000291407 0)
(0.0991711 -0.000276641 0)
(0.0991982 -0.000262581 0)
(0.0992245 -0.000249196 0)
(0.09925 -0.000236457 0)
(0.0992749 -0.000224336 0)
(0.099299 -0.000212805 0)
(0.0993224 -0.000201838 0)
(0.0993451 -0.000191409 0)
(0.0993671 -0.000181494 0)
(0.0993885 -0.000172069 0)
(0.0994093 -0.000163112 0)
(0.0994294 -0.000154602 0)
(0.0979164 -0.00137703 0)
(0.097967 -0.00131709 0)
(0.0980172 -0.00125937 0)
(0.0980667 -0.00120382 0)
(0.0981157 -0.00115038 0)
(0.0981641 -0.00109899 0)
(0.0982118 -0.0010496 0)
(0.0982588 -0.00100216 0)
(0.0983052 -0.000956589 0)
(0.0983508 -0.000912848 0)
(0.0983956 -0.000870877 0)
(0.0984397 -0.000830619 0)
(0.0984831 -0.000792019 0)
(0.0985256 -0.000755024 0)
(0.0985673 -0.00071958 0)
(0.0986083 -0.000685635 0)
(0.0986484 -0.000653136 0)
(0.0986877 -0.000622032 0)
(0.0987261 -0.000592275 0)
(0.0987638 -0.000563816 0)
(0.0988006 -0.000536607 0)
(0.0988366 -0.000510601 0)
(0.0988717 -0.000485753 0)
(0.0989061 -0.000462019 0)
(0.0989396 -0.000439356 0)
(0.0989724 -0.000417722 0)
(0.0990043 -0.000397076 0)
(0.0990354 -0.000377379 0)
(0.0990657 -0.000358592 0)
(0.0990953 -0.000340679 0)
(0.099124 -0.000323602 0)
(0.0991521 -0.000307328 0)
(0.0991793 -0.000291823 0)
(0.0992059 -0.000277053 0)
(0.0992317 -0.000262988 0)
(0.0992567 -0.000249597 0)
(0.0992811 -0.000236851 0)
(0.0993048 -0.000224721 0)
(0.0993278 -0.000213181 0)
(0.0993502 -0.000202203 0)
(0.0993719 -0.000191763 0)
(0.0993929 -0.000181837 0)
(0.0994134 -0.0001724 0)
(0.0994332 -0.000163432 0)
(0.0979814 -0.00142868 0)
(0.0980285 -0.00136729 0)
(0.0980752 -0.00130813 0)
(0.0981215 -0.00125113 0)
(0.0981674 -0.00119625 0)
(0.0982128 -0.00114343 0)
(0.0982577 -0.00109262 0)
(0.0983021 -0.00104375 0)
(0.0983459 -0.000996789 0)
(0.0983891 -0.000951669 0)
(0.0984317 -0.000908339 0)
(0.0984737 -0.000866745 0)
(0.098515 -0.000826835 0)
(0.0985556 -0.000788555 0)
(0.0985955 -0.000751853 0)
(0.0986347 -0.000716678 0)
(0.0986732 -0.000682978 0)
(0.098711 -0.000650705 0)
(0.098748 -0.000619809 0)
(0.0987843 -0.000590242 0)
(0.0988198 -0.000561956 0)
(0.0988546 -0.000534905 0)
(0.0988886 -0.000509044 0)
(0.0989219 -0.000484329 0)
(0.0989544 -0.000460716 0)
(0.0989862 -0.000438164 0)
(0.0990172 -0.000416631 0)
(0.0990475 -0.000396077 0)
(0.0990771 -0.000376464 0)
(0.0991059 -0.000357754 0)
(0.099134 -0.000339911 0)
(0.0991613 -0.000322898 0)
(0.099188 -0.000306682 0)
(0.0992139 -0.00029123 0)
(0.0992392 -0.000276508 0)
(0.0992638 -0.000262487 0)
(0.0992877 -0.000249136 0)
(0.0993109 -0.000236427 0)
(0.0993336 -0.00022433 0)
(0.0993555 -0.00021282 0)
(0.0993768 -0.00020187 0)
(0.0993976 -0.000191455 0)
(0.0994177 -0.000181552 0)
(0.0994372 -0.000172137 0)
(0.0980479 -0.00147644 0)
(0.0980913 -0.00141387 0)
(0.0981346 -0.0013535 0)
(0.0981776 -0.00129528 0)
(0.0982204 -0.00123917 0)
(0.0982628 -0.00118511 0)
(0.0983049 -0.00113306 0)
(0.0983466 -0.00108296 0)
(0.0983878 -0.00103477 0)
(0.0984286 -0.000988423 0)
(0.0984689 -0.00094388 0)
(0.0985087 -0.000901088 0)
(0.0985479 -0.000859994 0)
(0.0985866 -0.000820549 0)
(0.0986246 -0.000782701 0)
(0.0986621 -0.000746401 0)
(0.0986989 -0.000711599 0)
(0.0987351 -0.000678247 0)
(0.0987707 -0.000646297 0)
(0.0988055 -0.0006157 0)
(0.0988398 -0.000586411 0)
(0.0988733 -0.000558384 0)
(0.0989062 -0.000531573 0)
(0.0989383 -0.000505935 0)
(0.0989698 -0.000481427 0)
(0.0990006 -0.000458007 0)
(0.0990307 -0.000435634 0)
(0.0990601 -0.000414267 0)
(0.0990889 -0.000393868 0)
(0.0991169 -0.000374398 0)
(0.0991443 -0.000355822 0)
(0.099171 -0.000338103 0)
(0.099197 -0.000321206 0)
(0.0992224 -0.000305097 0)
(0.0992471 -0.000289745 0)
(0.0992711 -0.000275117 0)
(0.0992946 -0.000261182 0)
(0.0993174 -0.000247912 0)
(0.0993395 -0.000235278 0)
(0.0993611 -0.000223252 0)
(0.0993821 -0.000211807 0)
(0.0994024 -0.000200918 0)
(0.0994222 -0.000190561 0)
(0.0994414 -0.000180711 0)
(0.0981154 -0.00152031 0)
(0.0981553 -0.0014568 0)
(0.0981951 -0.00139546 0)
(0.0982348 -0.00133625 0)
(0.0982745 -0.00127911 0)
(0.0983139 -0.00122402 0)
(0.0983531 -0.00117091 0)
(0.0983921 -0.00111975 0)
(0.0984308 -0.00107049 0)
(0.0984691 -0.00102308 0)
(0.0985071 -0.000977473 0)
(0.0985446 -0.000933619 0)
(0.0985818 -0.00089147 0)
(0.0986184 -0.000850979 0)
(0.0986546 -0.000812098 0)
(0.0986903 -0.000774778 0)