/*--------------------------------*- C++ -*----------------------------------*\
| =========                 |                                                 |
| \\      /  F ield         | OpenFOAM: The Open Source CFD Toolbox           |
|  \\    /   O peration     | Version:  2412                                  |
|   \\  /    A nd           | Website:  www.openfoam.com                      |
|    \\/     M anipulation  |                                                 |
\*---------------------------------------------------------------------------*/
FoamFile
{
    version     2.0;
    format      ascii;
    arch        "LSB;label=32;scalar=64";
    class       surfaceScalarField;
    location    "12";
    object      phi;
}
// * * * * * * * * * * * * * * * * * * * * * * * * * * * * * * * * * * * * * //

dimensions      [0 3 -1 0 0 0 0];

oriented        oriented;

internalField   nonuniform List<scalar> 
10424
(
0.00536274
0.000195597
-0.00536728
-0.000191053
0.00535829
0.000196589
-0.000192146
0.00535396
0.000197432
-0.000193095
0.00534973
0.000198121
-0.000193896
0.00534562
0.000198654
-0.000194545
0.00534163
0.000199028
-0.00019504
0.00533777
0.000199242
-0.00019538
0.00533404
0.000199295
-0.000195561
0.00533044
0.000199185
-0.000195584
0.00532697
0.000198913
-0.000195448
0.00532365
0.000198479
-0.000195153
0.00532046
0.000197885
-0.000194699
0.00531742
0.000197131
-0.000194088
0.00531452
0.000196219
-0.00019332
0.00531177
0.000195152
-0.000192398
0.00530916
0.000193932
-0.000191324
0.0053067
0.000192561
-0.000190099
0.00530438
0.000191043
-0.000188727
0.00530221
0.000189381
-0.00018721
0.00530018
0.000187579
-0.000185552
0.0052983
0.000185642
-0.000183758
0.00529656
0.000183575
-0.000181833
0.00529496
0.000181386
-0.000179783
0.00529349
0.00017908
-0.000177614
0.00529216
0.000176664
-0.000175331
0.00529095
0.000174144
-0.00017294
0.00528987
0.000171523
-0.000170445
0.00528892
0.000168807
-0.000167848
0.00528807
0.000165997
-0.000165153
0.00528734
0.000163096
-0.000162361
0.0052867
0.000160106
-0.000159474
0.00528617
0.000157031
-0.000156496
0.00528573
0.000153874
-0.000153431
0.00528537
0.000150641
-0.000150283
0.00528509
0.000147337
-0.000147059
0.00528489
0.000143968
-0.000143764
0.00528475
0.000140542
-0.000140406
0.00528468
0.000137065
-0.000136992
0.00528466
0.000133544
-0.000133528
0.0052847
0.000129986
-0.000130023
0.00528478
0.000126399
-0.000126484
0.00528491
0.000122789
-0.000122917
0.00528508
0.000119163
-0.00011933
0.000115527
-0.000115729
0.0053596
0.000200205
-0.00536421
0.00535511
0.000201088
0.00535072
0.000201815
0.00534646
0.000202384
0.00534232
0.000202792
0.00533831
0.000203036
0.00533444
0.000203117
0.0053307
0.000203032
0.0053271
0.000202782
0.00532365
0.000202367
0.00532034
0.000201788
0.00531718
0.000201046
0.00531417
0.000200143
0.0053113
0.000199081
0.00530859
0.000197863
0.00530603
0.000196492
0.00530362
0.00019497
0.00530136
0.000193302
0.00529926
0.00019149
0.00529729
0.00018954
0.00529548
0.000187457
0.00529381
0.000185246
0.00529228
0.000182915
0.00529089
0.00018047
0.00528963
0.000177919
0.00528851
0.000175268
0.00528751
0.000172522
0.00528663
0.000169684
0.00528587
0.000166759
0.00528522
0.000163749
0.00528467
0.000160656
0.00528422
0.000157484
0.00528385
0.000154236
0.00528358
0.000150919
0.00528338
0.000147536
0.00528325
0.000144095
0.00528319
0.000140602
0.00528319
0.000137063
0.00528325
0.000133486
0.00528336
0.000129877
0.00528351
0.000126244
0.00528371
0.000122593
0.00528394
0.00011893
0.000115262
0.00535626
0.000204873
-0.00536093
0.00535171
0.000205637
0.00534729
0.00020624
0.005343
0.000206679
0.00533883
0.000206953
0.00533481
0.000207059
0.00533093
0.000206998
0.0053272
0.000206768
0.00532361
0.00020637
0.00532017
0.000205804
0.00531689
0.000205072
0.00531376
0.000204176
0.00531078
0.000203117
0.00530796
0.000201899
0.0053053
0.000200525
0.0053028
0.000198998
0.00530045
0.000197321
0.00529825
0.000195497
0.00529621
0.000193532
0.00529432
0.000191431
0.00529258
0.000189197
0.00529098
0.00018684
0.00528953
0.000184364
0.00528823
0.000181779
0.00528705
0.000179092
0.00528601
0.000176309
0.0052851
0.000173435
0.00528431
0.000170477
0.00528363
0.000167436
0.00528306
0.000164316
0.0052826
0.000161121
0.00528223
0.000157852
0.00528195
0.000154515
0.00528175
0.000151114
0.00528164
0.000147654
0.00528159
0.000144141
0.00528161
0.000140583
0.00528169
0.000136984
0.00528182
0.000133353
0.005282
0.000129695
0.00528223
0.000126018
0.00528249
0.000122328
0.00528279
0.00011863
0.000114932
0.0053527
0.000209596
-0.00535743
0.00534811
0.000210231
0.00534365
0.000210699
0.00533933
0.000211
0.00533515
0.00021113
0.00533112
0.000211089
0.00532724
0.000210877
0.00532352
0.000210494
0.00531995
0.000209939
0.00531654
0.000209216
0.00531328
0.000208324
0.00531019
0.000207266
0.00530726
0.000206046
0.0053045
0.000204666
0.00530189
0.00020313
0.00529945
0.000201442
0.00529716
0.000199605
0.00529504
0.000197623
0.00529307
0.000195501
0.00529126
0.000193244
0.0052896
0.000190858
0.00528809
0.000188351
0.00528672
0.000185729
0.0052855
0.000183002
0.00528441
0.000180177
0.00528346
0.000177261
0.00528264
0.00017426
0.00528193
0.00017118
0.00528135
0.000168024
0.00528087
0.000164795
0.00528049
0.000161497
0.00528021
0.000158134
0.00528002
0.000154708
0.00527991
0.000151224
0.00527987
0.000147688
0.00527991
0.000144106
0.00528001
0.000140484
0.00528016
0.000136827
0.00528037
0.000133144
0.00528063
0.000129439
0.00528093
0.00012572
0.00528126
0.000121993
0.00528163
0.000118263
0.000114536
0.00534891
0.000214366
-0.00535368
0.00534428
0.000214862
0.00533979
0.000215186
0.00533545
0.000215338
0.00533126
0.000215316
0.00532723
0.000215119
0.00532336
0.000214748
0.00531966
0.000214202
0.00531611
0.000213484
0.00531273
0.000212594
0.00530952
0.000211535
0.00530648
0.00021031
0.0053036
0.000208922
0.00530089
0.000207375
0.00529835
0.000205671
0.00529598
0.000203817
0.00529377
0.000201815
0.00529172
0.00019967
0.00528983
0.000197387
0.0052881
0.000194972
0.00528653
0.000192432
0.00528511
0.000189773
0.00528383
0.000187003
0.0052827
0.000184132
0.00528171
0.000181168
0.00528085
0.000178119
0.00528012
0.000174991
0.00527951
0.000171789
0.00527902
0.000168518
0.00527863
0.000165182
0.00527835
0.000161783
0.00527816
0.000158325
0.00527805
0.000154811
0.00527803
0.000151247
0.00527808
0.000147637
0.0052782
0.000143987
0.00527838
0.000140303
0.00527862
0.00013659
0.0052789
0.000132857
0.00527924
0.000129107
0.00527961
0.000125349
0.00528001
0.000121587
0.00528045
0.000117827
0.000114075
0.00534486
0.000219177
-0.00534967
0.0053402
0.000219523
0.0053357
0.000219693
0.00533135
0.000219687
0.00532716
0.000219502
0.00532314
0.00021914
0.00531929
0.0002186
0.0053156
0.000217884
0.00531209
0.000216994
0.00530876
0.000215931
0.0053056
0.000214698
0.00530261
0.000213298
0.00529979
0.000211736
0.00529715
0.000210015
0.00529468
0.00020814
0.00529239
0.000206115
0.00529026
0.000203944
0.0052883
0.000201632
0.0052865
0.000199186
0.00528486
0.00019661
0.00528338
0.000193912
0.00528205
0.000191099
0.00528088
0.00018818
0.00527984
0.000185165
0.00527895
0.000182062
0.00527819
0.000178879
0.00527756
0.000175623
0.00527705
0.000172301
0.00527665
0.000168916
0.00527636
0.000165473
0.00527617
0.000161974
0.00527607
0.000158422
0.00527606
0.000154823
0.00527612
0.00015118
0.00527626
0.000147497
0.00527647
0.000143781
0.00527673
0.000140037
0.00527705
0.000136272
0.00527742
0.00013249
0.00527783
0.000128698
0.00527827
0.000124903
0.00527875
0.000121108
0.00527926
0.000117321
0.000113546
0.00534056
0.00022402
-0.0053454
0.00533587
0.000224205
0.00533136
0.000224211
0.00532701
0.000224036
0.00532283
0.00022368
0.00531883
0.000223143
0.005315
0.000222426
0.00531135
0.000221531
0.00530789
0.00022046
0.0053046
0.000219216
0.0053015
0.000217802
0.00529858
0.000216222
0.00529583
0.000214479
0.00529327
0.00021258
0.00529088
0.000210527
0.00528867
0.000208326
0.00528663
0.000205983
0.00528476
0.000203502
0.00528306
0.000200888
0.00528152
0.000198149
0.00528014
0.000195291
0.00527892
0.000192323
0.00527784
0.000189254
0.00527691
0.000186093
0.00527612
0.000182851
0.00527547
0.000179534
0.00527494
0.000176152
0.00527453
0.00017271
0.00527423
0.000169212
0.00527404
0.000165663
0.00527395
0.000162066
0.00527395
0.000158424
0.00527403
0.00015474
0.00527419
0.00015102
0.00527442
0.000147267
0.00527472
0.000143488
0.00527507
0.000139686
0.00527547
0.00013587
0.00527592
0.000132043
0.0052764
0.000128211
0.00527693
0.000124381
0.00527748
0.000120557
0.00527805
0.000116745
0.00011295
0.00533597
0.000228885
-0.00534084
0.00533128
0.0002289
0.00532676
0.00022873
0.00532242
0.000228376
0.00531826
0.000227838
0.00531429
0.000227116
0.0053105
0.000226214
0.0053069
0.000225131
0.00530349
0.000223872
0.00530026
0.00022244
0.00529723
0.000220837
0.00529438
0.00021907
0.00529171
0.000217142
0.00528924
0.000215058
0.00528694
0.000212824
0.00528482
0.000210444
0.00528288
0.000207924
0.00528111
0.000205269
0.00527952
0.000202486
0.00527808
0.000199582
0.00527681
0.000196563
0.0052757
0.000193438
0.00527473
0.000190218
0.00527391
0.000186912
0.00527324
0.00018353
0.00527269
0.000180081
0.00527227
0.000176573
0.00527197
0.000173012
0.00527178
0.000169403
0.00527169
0.00016575
0.0052717
0.000162056
0.0052718
0.000158324
0.00527198
0.000154559
0.00527224
0.000150764
0.00527256
0.000146944
0.00527294
0.000143103
0.00527338
0.000139247
0.00527387
0.000135382
0.0052744
0.000131512
0.00527497
0.000127644
0.00527557
0.000123782
0.00527619
0.000119931
0.00527684
0.000116097
0.000112284
0.00533109
0.000233764
-0.00533597
0.0053264
0.000233595
0.00532189
0.000233239
0.00531757
0.000232696
0.00531344
0.000231966
0.00530951
0.000231051
0.00530577
0.000229952
0.00530223
0.000228674
0.00529888
0.000227219
0.00529573
0.000225591
0.00529277
0.000223794
0.00529001
0.000221833
0.00528744
0.000219714
0.00528505
0.000217441
0.00528286
0.00021502
0.00528084
0.000212457
0.00527901
0.000209757
0.00527735
0.000206927
0.00527587
0.000203972
0.00527455
0.0002009
0.00527339
0.000197719
0.00527239
0.000194437
0.00527155
0.000191065
0.00527085
0.000187614
0.00527028
0.000184093
0.00526985
0.000180512
0.00526955
0.000176879
0.00526936
0.000173201
0.00526928
0.000169483
0.0052693
0.000165728
0.00526941
0.00016194
0.00526962
0.000158122
0.0052699
0.000154277
0.00527025
0.00015041
0.00527067
0.000146525
0.00527115
0.000142626
0.00527168
0.000138718
0.00527225
0.000134807
0.00527287
0.000130898
0.00527352
0.000126995
0.00527419
0.000123104
0.0052749
0.00011923
0.00527562
0.000115377
0.00011155
0.00532591
0.000238643
-0.00533079
0.00532123
0.00023828
0.00531674
0.000237727
0.00531245
0.000236983
0.00530837
0.000236051
0.00530449
0.000234933
0.00530081
0.000233631
0.00529733
0.000232148
0.00529406
0.000230489
0.005291
0.000228658
0.00528813
0.00022666
0.00528546
0.0002245
0.00528299
0.000222183
0.00528072
0.000219717
0.00527863
0.000217106
0.00527673
0.000214356
0.00527502
0.000211474
0.00527348
0.000208465
0.00527211
0.000205337
0.00527092
0.000202096
0.00526989
0.000198751
0.00526901
0.000195312
0.00526829
0.000191788
0.00526771
0.000188192
0.00526727
0.000184533
0.00526696
0.000180822
0.00526677
0.000177066
0.0052667
0.000173273
0.00526674
0.000169447
0.00526687
0.000165593
0.0052671
0.000161713
0.00526741
0.000157812
0.00526779
0.000153891
0.00526825
0.000149955
0.00526877
0.000146007
0.00526934
0.000142053
0.00526996
0.000138097
0.00527062
0.000134143
0.00527132
0.000130197
0.00527206
0.000126264
0.00527281
0.000122347
0.00527359
0.000118452
0.00527438
0.000114583
0.000110744
0.00532042
0.00024351
-0.00532528
0.00531575
0.000242942
0.0053113
0.00024218
0.00530706
0.000241226
0.00530303
0.000240081
0.00529921
0.00023875
0.00529561
0.000237235
0.00529222
0.00023554
0.00528904
0.000233669
0.00528607
0.000231629
0.0052833
0.000229423
0.00528074
0.000227058
0.00527839
0.00022454
0.00527623
0.000221875
0.00527426
0.00021907
0.00527249
0.000216131
0.0052709
0.000213063
0.00526949
0.000209874
0.00526826
0.000206571
0.00526719
0.00020316
0.00526629
0.000199652
0.00526555
0.000196055
0.00526495
0.000192381
0.00526451
0.00018864
0.00526419
0.000184845
0.00526401
0.000181005
0.00526395
0.000177128
0.005264
0.000173222
0.00526415
0.000169292
0.00526441
0.000165341
0.00526475
0.000161373
0.00526517
0.00015739
0.00526566
0.000153396
0.00526622
0.000149394
0.00526684
0.000145388
0.00526751
0.000141382
0.00526823
0.000137381
0.00526898
0.000133388
0.00526977
0.000129409
0.00527059
0.000125448
0.00527142
0.000121509
0.00527228
0.000117597
0.00527315
0.000113715
0.000109868
0.00531459
0.000248352
-0.00531943
0.00530996
0.000247565
0.00530556
0.000246584
0.00530138
0.000245408
0.00529742
0.000244042
0.00529368
0.000242488
0.00529016
0.000240751
0.00528687
0.000238836
0.00528379
0.000236747
0.00528093
0.00023449
0.00527828
0.00023207
0.00527584
0.000229495
0.00527361
0.000226771
0.00527158
0.000223905
0.00526975
0.000220902
0.00526811
0.000217771
0.00526666
0.000214516
0.00526539
0.000211145
0.00526429
0.000207666
0.00526337
0.000204085
0.00526261
0.000200413
0.005262
0.000196659
0.00526155
0.000192835
0.00526124
0.000188952
0.00526106
0.000185022
0.00526101
0.000181055
0.00526108
0.00017706
0.00526126
0.000173044
0.00526154
0.000169012
0.00526191
0.000164968
0.00526237
0.000160915
0.0052629
0.000156855
0.00526351
0.000152791
0.00526418
0.000148727
0.0052649
0.000144666
0.00526567
0.000140612
0.00526648
0.000136568
0.00526733
0.00013254
0.00526821
0.000128532
0.00526911
0.000124547
0.00527003
0.000120589
0.00527096
0.000116663
0.00527191
0.000112772
0.000108919
0.00530842
0.000253152
-0.00531322
0.00530385
0.000252136
0.00529951
0.000250923
0.0052954
0.000249515
0.00529153
0.000247917
0.00528788
0.000246132
0.00528447
0.000244165
0.00528128
0.000242021
0.00527832
0.000239707
0.00527558
0.000237227
0.00527307
0.000234589
0.00527076
0.000231799
0.00526867
0.000228865
0.00526678
0.000225793
0.00526509
0.000222591
0.0052636
0.000219264
0.00526229
0.000215821
0.00526117
0.000212268
0.00526023
0.000208611
0.00525945
0.000204861
0.00525884
0.000201025
0.00525838
0.000197115
0.00525807
0.000193143
0.00525791
0.000189119
0.00525787
0.000185057
0.00525796
0.000180966
0.00525816
0.000176856
0.00525848
0.000172733
0.00525889
0.000168603
0.00525938
0.000164469
0.00525997
0.000160334
0.00526062
0.0001562
0.00526134
0.000152071
0.00526212
0.000147949
0.00526295
0.000143837
0.00526382
0.000139738
0.00526473
0.000135657
0.00526567
0.000131598
0.00526664
0.000127564
0.00526763
0.000123559
0.00526863
0.000119586
0.00526965
0.00011565
0.00527067
0.000111753
0.000107898
0.00530189
0.000257894
-0.00530664
0.00529739
0.000256636
0.00529314
0.000255181
0.00528912
0.000253531
0.00528535
0.000251691
0.00528181
0.000249666
0.00527852
0.00024746
0.00527546
0.000245081
0.00527263
0.000242534
0.00527003
0.000239826
0.00526766
0.000236964
0.0052655
0.000233955
0.00526356
0.000230807
0.00526182
0.000227527
0.00526029
0.000224123
0.00525896
0.0002206
0.00525781
0.000216967
0.00525685
0.000213231
0.00525606
0.000209398
0.00525544
0.000205479
0.00525499
0.000201481
0.00525469
0.000197417
0.00525453
0.000193297
0.00525451
0.000189136
0.00525463
0.000184944
0.00525486
0.000180732
0.00525521
0.00017651
0.00525566
0.000172284
0.0052562
0.000168059
0.00525683
0.000163839
0.00525754
0.000159627
0.00525831
0.000155424
0.00525915
0.000151233
0.00526004
0.000147057
0.00526098
0.000142898
0.00526196
0.00013876
0.00526297
0.000134646
0.00526401
0.000130559
0.00526507
0.000126503
0.00526615
0.000122482
0.00526724
0.000118498
0.00526833
0.000114556
0.00526943
0.000110657
0.000106804
0.00529501
0.000262559
-0.00529967
0.00529059
0.000261048
0.00528643
0.000259339
0.00528253
0.000257437
0.00527887
0.000255345
0.00527547
0.000253071
0.00527231
0.00025062
0.00526939
0.000247998
0.00526671
0.000245212
0.00526427
0.000242271
0.00526205
0.00023918
0.00526006
0.000235949
0.00525828
0.000232584
0.00525671
0.000229094
0.00525535
0.000225486
0.00525418
0.000221767
0.00525321
0.000217944
0.00525241
0.000214025
0.0052518
0.000210017
0.00525135
0.000205929
0.00525106
0.000201771
0.00525092
0.000197554
0.00525092
0.000193291
0.00525107
0.000188994
0.00525133
0.000184675
0.00525172
0.000180346
0.00525221
0.000176016
0.00525281
0.000171691
0.00525349
0.000167376
0.00525425
0.000163075
0.00525509
0.00015879
0.00525599
0.000154523
0.00525695
0.000150275
0.00525796
0.000146049
0.00525901
0.000141848
0.00526009
0.000137675
0.00526121
0.000133531
0.00526235
0.000129422
0.0052635
0.000125349
0.00526467
0.000121316
0.00526584
0.000117325
0.00526701
0.00011338
0.00526819
0.000109483
0.000105636
0.00528774
0.000267128
-0.00529231
0.00528344
0.000265352
0.0052794
0.000263378
0.00527562
0.000261213
0.0052721
0.000258861
0.00526885
0.00025633
0.00526584
0.000253625
0.00526308
0.000250755
0.00526057
0.000247725
0.0052583
0.000244546
0.00525625
0.000241223
0.00525444
0.000237766
0.00525284
0.000234183
0.00525145
0.000230481
0.00525027
0.000226668
0.00524928
0.000222752
0.00524849
0.000218739
0.00524787
0.000214638
0.00524744
0.000210456
0.00524716
0.000206202
0.00524705
0.000201886
0.00524708
0.00019752
0.00524726
0.000193116
0.00524756
0.000188687
0.00524799
0.000184246
0.00524854
0.000179803
0.00524918
0.000175369
0.00524992
0.000170949
0.00525075
0.000166549
0.00525165
0.000162172
0.00525263
0.000157819
0.00525366
0.000153492
0.00525474
0.000149192
0.00525587
0.000144922
0.00525703
0.000140684
0.00525822
0.00013648
0.00525944
0.000132313
0.00526068
0.000128185
0.00526193
0.0001241
0.00526319
0.000120059
0.00526444
0.000116066
0.0052657
0.000112123
0.00526695
0.000108231
0.000104394
0.00528009
0.000271579
-0.00528454
0.00527592
0.000269526
0.00527202
0.000267277
0.00526839
0.00026484
0.00526503
0.000262219
0.00526194
0.000259423
0.00525911
0.000256458
0.00525653
0.000253333
0.0052542
0.000250055
0.00525211
0.000246633
0.00525026
0.000243076
0.00524863
0.000239391
0.00524723
0.000235587
0.00524604
0.000231673
0.00524505
0.000227655
0.00524426
0.000223543
0.00524366
0.000219342
0.00524323
0.000215061
0.00524298
0.000210706
0.0052429
0.000206289
0.00524297
0.000201818
0.00524318
0.000197305
0.00524353
0.000192764
0.00524401
0.000188207
0.00524461
0.000183648
0.00524532
0.000179097
0.00524612
0.000174563
0.00524702
0.000170054
0.00524799
0.000165574
0.00524904
0.000161125
0.00525015
0.00015671
0.00525131
0.000152328
0.00525252
0.000147983
0.00525377
0.000143674
0.00525505
0.000139404
0.00525635
0.000135175
0.00525768
0.000130988
0.00525902
0.000126847
0.00526036
0.000122754
0.00526171
0.000118711
0.00526306
0.000114719
0.0052644
0.000110782
0.00526573
0.000106901
0.000103078
0.00527204
0.000275889
-0.00527635
0.00526802
0.000273547
0.00526429
0.000271014
0.00526083
0.000268294
0.00525765
0.000265397
0.00525475
0.000262329
0.00525211
0.000259098
0.00524973
0.000255713
0.0052476
0.000252183
0.00524572
0.000248516
0.00524407
0.000244721
0.00524265
0.000240807
0.00524146
0.000236782
0.00524048
0.000232656
0.0052397
0.000228435
0.00523911
0.000224127
0.00523872
0.00021974
0.0052385
0.000215281
0.00523844
0.000210757
0.00523855
0.000206179
0.00523881
0.000201557
0.00523922
0.000196902
0.00523975
0.000192228
0.00524041
0.000187548
0.00524118
0.000182875
0.00524206
0.000178221
0.00524303
0.000173594
0.00524408
0.000169001
0.00524521
0.000164446
0.00524641
0.000159932
0.00524766
0.000155459
0.00524895
0.00015103
0.00525029
0.000146643
0.00525167
0.000142301
0.00525307
0.000138005
0.00525448
0.000133756
0.00525592
0.000129556
0.00525736
0.000125407
0.0052588
0.000121311
0.00526024
0.00011727
0.00526167
0.000113285
0.0052631
0.000109359
0.00526451
0.000105492
0.000101686
0.00526359
0.000280032
-0.00526774
0.00525975
0.000277391
0.0052562
0.000274563
0.00525294
0.000271554
0.00524997
0.000268372
0.00524727
0.000265026
0.00524484
0.000261524
0.00524268
0.000257876
0.00524077
0.00025409
0.00523911
0.000250176
0.00523769
0.000246142
0.0052365
0.000241998
0.00523553
0.000237753
0.00523477
0.000233415
0.00523421
0.000228992
0.00523385
0.000224492
0.00523367
0.000219921
0.00523366
0.000215287
0.00523382
0.000210599
0.00523414
0.000205864
0.0052346
0.000201095
0.0052352
0.000196303
0.00523592
0.000191501
0.00523677
0.000186703
0.00523772
0.000181922
0.00523877
0.00017717
0.00523991
0.000172455
0.00524113
0.000167784
0.00524242
0.00016316
0.00524376
0.000158587
0.00524516
0.000154064
0.00524659
0.000149592
0.00524807
0.000145171
0.00524957
0.000140802
0.00525108
0.000136486
0.00525262
0.000132223
0.00525416
0.000128015
0.0052557
0.000123864
0.00525724
0.00011977
0.00525878
0.000115736
0.0052603
0.000111763
0.00526181
0.000107852
0.0052633
0.000104003
0.00010022
0.00525473
-0.00525868
0.00525109
0.00524776
0.00524472
0.00524197
0.0052395
0.00523731
0.00523539
0.00523372
0.00523231
0.00523113
0.00523018
0.00522945
0.00522893
0.0052286
0.00522847
0.00522852
0.00522874
0.00522912
0.00522965
0.00523032
0.00523112
0.00523205
0.00523309
0.00523423
0.00523546
0.00523678
0.00523816
0.00523961
0.00524111
0.00524265
0.00524423
0.00524584
0.00524747
0.00524911
0.00525076
0.00525241
0.00525406
0.0052557
0.00525732
0.00525894
0.00526053
0.00526209
0.00555394
0.000226828
-0.000217609
0.00554471
0.000229712
-0.000220477
0.00553549
0.000232147
-0.000222927
0.00552631
0.000234164
-0.000224987
0.0055172
0.000235789
-0.000226684
0.00550819
0.000237049
-0.00022804
0.0054993
0.000237966
-0.000229075
0.00549055
0.000238559
-0.000229806
0.00548195
0.000238845
-0.000230247
0.00547352
0.000238838
-0.00023041
0.00546527
0.000238552
-0.000230306
0.00545722
0.000237998
-0.000229944
0.00544937
0.000237187
-0.000229335
0.00544173
0.000236131
-0.000228488
0.0054343
0.000234841
-0.000227412
0.00542709
0.000233329
-0.000226118
0.0054201
0.000231607
-0.000224618
0.00541333
0.000229688
-0.000222923
0.00540679
0.000227586
-0.000221047
0.00540048
0.000225315
-0.000219002
0.00539439
0.000222888
-0.0002168
0.00538853
0.000220319
-0.000214456
0.00538289
0.000217623
-0.000211983
0.00537747
0.000214812
-0.000209392
0.00537227
0.0002119
-0.000206698
0.000208899
-0.000203911
0.00555794
0.000236515
0.00554824
0.000239414
0.00553855
0.000241831
0.00552892
0.000243797
0.00551937
0.000245342
0.00550992
0.000246494
0.00550061
0.000247278
0.00549145
0.000247716
0.00548247
0.000247829
0.00547368
0.000247633
0.00546508
0.000247144
0.0054567
0.000246376
0.00544855
0.000245343
0.00544062
0.000244057
0.00543293
0.000242532
0.00542548
0.000240781
0.00541827
0.000238817
0.0054113
0.000236656
0.00540458
0.00023431
0.00539809
0.000231795
0.00539186
0.000229126
0.00538586
0.000226317
0.0053801
0.000223383
0.00537457
0.000220337
0.00536928
0.000217194
0.000213967
0.00556191
0.000246701
0.00555171
0.000249611
0.00554154
0.000252002
0.00553143
0.000253908
0.00552141
0.000255361
0.00551151
0.000256391
0.00550176
0.000257026
0.00549219
0.000257292
0.00548281
0.000257211
0.00547364
0.000256805
0.00546469
0.000256092
0.00545598
0.000255088
0.00544751
0.00025381
0.00543929
0.000252272
0.00543134
0.00025049
0.00542364
0.000248479
0.0054162
0.000246253
0.00540903
0.000243827
0.00540212
0.000241219
0.00539548
0.000238442
0.00538909
0.000235513
0.00538296
0.000232447
0.00537708
0.000229259
0.00537146
0.000225964
0.00536607
0.000222576
0.000219109
0.00556582
0.000257416
0.0055551
0.00026033
0.00554441
0.000262687
0.0055338
0.000264521
0.00552329
0.000265867
0.00551293
0.000266758
0.00550273
0.000267225
0.00549272
0.000267298
0.00548293
0.000267003
0.00547337
0.000266364
0.00546406
0.000265403
0.00545501
0.00026414
0.00544622
0.000262593
0.00543772
0.00026078
0.00542949
0.000258718
0.00542154
0.000256423
0.00541388
0.000253913
0.00540651
0.000251203
0.00539942
0.000248311
0.00539261
0.000245253
0.00538607
0.000242046
0.00537981
0.000238705
0.00537383
0.000235248
0.0053681
0.000231688
0.00536264
0.000228041
0.000224321
0.00556963
0.000268694
0.00555836
0.000271602
0.00554714
0.000273911
0.005536
0.000275659
0.00552499
0.000276881
0.00551413
0.000277613
0.00550347
0.000277892
0.00549301
0.000277749
0.0054828
0.000277215
0.00547285
0.000276319
0.00546316
0.000275085
0.00545377
0.000273537
0.00544466
0.000271696
0.00543586
0.000269583
0.00542736
0.000267216
0.00541917
0.000264615
0.00541129
0.000261797
0.00540371
0.000258781
0.00539643
0.000255584
0.00538946
0.000252225
0.00538279
0.000248721
0.0053764
0.000245088
0.00537031
0.000241344
0.00536449
0.000237504
0.00535895
0.000233583
0.000229595
0.00557333
0.000280574
0.00556148
0.000283459
0.00554968
0.000285704
0.005538
0.000287346
0.00552645
0.000288423
0.00551509
0.000288975
0.00550394
0.00028904
0.00549304
0.000288657
0.00548239
0.000287859
0.00547203
0.000286678
0.00546197
0.000285145
0.00545223
0.000283285
0.0054428
0.000281124
0.0054337
0.000278683
0.00542493
0.000275986
0.00541649
0.000273053
0.00540838
0.000269904
0.0054006
0.000266558
0.00539315
0.000263035
0.00538602
0.000259354
0.00537921
0.000255533
0.00537271
0.000251589
0.00536651
0.000247541
0.00536061
0.000243404
0.005355
0.000239193
0.000234925
0.00557688
0.000293093
0.00556441
0.000295937
0.00555201
0.000298096
0.00553975
0.000299608
0.00552766
0.000300515
0.00551577
0.00030086
0.00550413
0.000300686
0.00549275
0.000300034
0.00548167
0.000298943
0.0054709
0.00029745
0.00546045
0.000295588
0.00545035
0.000293387
0.0054406
0.000290877
0.0054312
0.000288082
0.00542216
0.000285028
0.00541347
0.000281737
0.00540515
0.000278231
0.00539717
0.000274531
0.00538955
0.000270659
0.00538227
0.000266634
0.00537533
0.000262475
0.00536871
0.000258202
0.00536242
0.000253831
0.00535645
0.00024938
0.00535078
0.000244866
0.000240302
0.00558026
0.000306294
0.00556713
0.000309072
0.0055541
0.000311118
0.00554124
0.000312473
0.00552857
0.000313181
0.00551614
0.00031329
0.00550399
0.000312845
0.00549213
0.000311893
0.00548059
0.000310478
0.0054694
0.00030864
0.00545857
0.000306419
0.00544811
0.000303847
0.00543803
0.000300957
0.00542833
0.000297779
0.00541902
0.000294338
0.0054101
0.000290662
0.00540155
0.000286773
0.00539339
0.000282695
0.0053856
0.00027845
0.00537818
0.000274058
0.00537111
0.000269541
0.00536439
0.000264918
0.00535802
0.000260206
0.00535197
0.000255425
0.00534625
0.000250589
0.000245716
0.00558344
0.000320222
0.00556961
0.000322903
0.00555593
0.000324805
0.00554243
0.00032597
0.00552916
0.000326446
0.00551617
0.000326283
0.00550348
0.000325533
0.00549113
0.000324247
0.00547913
0.000322473
0.00546752
0.000320258
0.00545629
0.000317642
0.00544547
0.000314666
0.00543506
0.000311365
0.00542507
0.000307772
0.00541549
0.000303916
0.00540633
0.000299825
0.00539758
0.000295526
0.00538923
0.000291043
0.00538128
0.0002864
0.00537372
0.000281619
0.00536654
0.000276721
0.00535973
0.000271727
0.00535328
0.000266657
0.00534718
0.000261527
0.00534141
0.000256355
0.000251156
0.0055864
0.000334923
0.00557184
0.000337472
0.00555745
0.000339192
0.00554329
0.000340129
0.0055294
0.000340334
0.00551582
0.000339862
0.00550259
0.000338769
0.00548972
0.00033711
0.00547726
0.000334939
0.00546521
0.000332308
0.00545359
0.000329263
0.0054424
0.000325848
0.00543167
0.000322101
0.00542138
0.000318059
0.00541154
0.000313756
0.00540215
0.00030922
0.00539319
0.000304482
0.00538467
0.000299567
0.00537657
0.0002945
0.00536888
0.000289305
0.0053616
0.000284005
0.0053547
0.00027862
0.00534819
0.00027317
0.00534204
0.000267674
0.00533625
0.000262149
0.00025661
0.00558912
0.000350449
0.00557377
0.000352823
0.00555864
0.000354319
0.00554379
0.000354984
0.00552925
0.000354874
0.00551506
0.000354049
0.00550126
0.000352569
0.00548788
0.000350495
0.00547493
0.000347886
0.00546244
0.000344799
0.00545042
0.000341285
0.00543887
0.000337392
0.00542781
0.000333163
0.00541723
0.000328638
0.00540714
0.000323853
0.00539752
0.000318841
0.00538836
0.000313633
0.00537967
0.000308257
0.00537143
0.00030274
0.00536363
0.000297107
0.00535626
0.000291381
0.00534929
0.000285583
0.00534273
0.000279735
0.00533655
0.000273854
0.00533074
0.000267959
0.000262066
0.00559156
0.00036685
0.00557538
0.000369002
0.00555948
0.000370224
0.00554389
0.000370568
0.00552867
0.000370094
0.00551385
0.000368867
0.00549947
0.000366952
0.00548555
0.000364416
0.00547211
0.000361324
0.00545917
0.000357736
0.00544675
0.00035371
0.00543484
0.000349298
0.00542346
0.000344548
0.00541259
0.000339502
0.00540224
0.0003342
0.00539241
0.000328678
0.00538307
0.000322969
0.00537423
0.000317103
0.00536586
0.000311108
0.00535795
0.000305011
0.0053505
0.000298835
0.00534348
0.000292602
0.00533688
0.000286335
0.00533068
0.000280052
0.00532487
0.000273771
0.000267507
0.00559369
0.000384182
0.00557664
0.000386058
0.00555991
0.000386951
0.00554356
0.000386918
0.00552763
0.000386025
0.00551216
0.00038434
0.00549717
0.000381937
0.0054827
0.000378888
0.00546876
0.000375261
0.00545537
0.000371125
0.00544254
0.000366541
0.00543027
0.000361566
0.00541857
0.000356252
0.00540742
0.000350646
0.00539683
0.00034479
0.00538679
0.000338722
0.00537728
0.000332479
0.00536829
0.000326092
0.00535981
0.00031959
0.00535182
0.000313001
0.0053443
0.000306351
0.00533724
0.000299662
0.00533062
0.000292955
0.00532442
0.000286251
0.00531863
0.000279567
0.000272918
0.00559548
0.000402502
0.00557749
0.00040404
0.0055599
0.000404542
0.00554275
0.00040407
0.00552608
0.000402695
0.00550993
0.000400494
0.00549432
0.000397544
0.00547928
0.000393923
0.00546484
0.000389708
0.00545099
0.000384971
0.00543775
0.000379779
0.00542513
0.000374193
0.00541311
0.000368271
0.00540169
0.000362061
0.00539087
0.000355611
0.00538063
0.00034896
0.00537096
0.000342148
0.00536185
0.000335207
0.00535327
0.000328169
0.00534521
0.000321062
0.00533765
0.000313913
0.00533057
0.000306744
0.00532394
0.000299577
0.00531776
0.000292433
0.005312
0.000285329
0.00027828
0.00559687
0.000421869
0.00557791
0.000423001
0.00555941
0.000423042
0.00554141
0.000422062
0.00552397
0.000420138
0.00550711
0.000417352
0.00549087
0.00041379
0.00547525
0.000409536
0.00546029
0.000404673
0.00544598
0.000399277
0.00543234
0.000393423
0.00541936
0.000387175
0.00540703
0.000380595
0.00539536
0.000373737
0.00538432
0.00036665
0.0053739
0.000359378
0.00536409
0.00035196
0.00535486
0.000344432
0.0053462
0.000336827
0.00533809
0.000329174
0.00533051
0.000321499