/*--------------------------------*- C++ -*----------------------------------*\
| =========                 |                                                 |
| \\      /  F ield         | OpenFOAM: The Open Source CFD Toolbox           |
|  \\    /   O peration     | Version:  2412                                  |
|   \\  /    A nd           | Website:  www.openfoam.com                      |
|    \\/     M anipulation  |                                                 |
\*---------------------------------------------------------------------------*/
FoamFile
{
    version     2.0;
    format      ascii;
    arch        "LSB;label=32;scalar=64";
    class       surfaceScalarField;
    location    "24";
    object      phi;
}
// * * * * * * * * * * * * * * * * * * * * * * * * * * * * * * * * * * * * * //

dimensions      [0 3 -1 0 0 0 0];

oriented        oriented;

internalField   nonuniform List<scalar> 
10423
(
0.00528022
0.000190586
-0.000190598
0.00528032
0.000184583
-0.000184682
0.0052805
0.000178575
-0.000178753
0.00528074
0.000172571
-0.000172817
0.00528105
0.000166581
-0.000166886
0.0052814
0.000160614
-0.000160971
0.0052818
0.000154683
-0.000155082
0.00528224
0.000148796
-0.000149232
0.00528271
0.000142964
-0.00014343
0.0052832
0.000137196
-0.000137686
0.0052837
0.000131502
-0.00013201
0.00528423
0.000125888
-0.00012641
0.00528476
0.000120364
-0.000120893
0.00528529
0.000114935
-0.000115469
0.00528583
0.000109608
-0.000110144
0.00528636
0.000104391
-0.000104923
0.00528688
9.9288e-05
-9.98148e-05
0.0052874
9.43045e-05
-9.48229e-05
0.00528791
8.94449e-05
-8.99528e-05
0.00528841
8.47134e-05
-8.52086e-05
0.00528889
8.01133e-05
-8.05941e-05
0.00528935
7.56476e-05
-7.61126e-05
0.0052898
7.13189e-05
-7.17669e-05
0.00529023
6.71293e-05
-6.75592e-05
0.00529064
6.30805e-05
-6.34916e-05
0.00529103
5.91739e-05
-5.95655e-05
0.0052914
5.54106e-05
-5.57823e-05
0.00529176
5.17912e-05
-5.21428e-05
0.00529209
4.83163e-05
-4.86477e-05
0.0052924
4.4986e-05
-4.52971e-05
0.00529269
4.18e-05
-4.20911e-05
0.00529296
3.87579e-05
-3.90293e-05
0.00529321
3.58587e-05
-3.61107e-05
0.00529345
3.31014e-05
-3.33345e-05
0.00529366
3.04846e-05
-3.06994e-05
0.00529386
2.80069e-05
-2.82039e-05
0.00529404
2.56664e-05
-2.58464e-05
0.0052942
2.34615e-05
-2.36252e-05
0.00529435
2.139e-05
-2.1538e-05
0.00529448
1.94502e-05
-1.95835e-05
0.0052946
1.76389e-05
-1.77583e-05
0.00529471
1.59559e-05
-1.60622e-05
0.0052948
1.43956e-05
-1.44897e-05
0.00529488
1.29626e-05
-1.30455e-05
0.00529496
1.16443e-05
-1.17168e-05
0.00529502
1.04581e-05
-1.05213e-05
0.00529508
9.37115e-06
-9.42569e-06
0.00529512
8.43474e-06
-8.48235e-06
0.00529516
7.56432e-06
-7.60464e-06
0.0052952
6.89428e-06
-6.93046e-06
0.00529523
6.21816e-06
-6.24785e-06
0.00529526
5.85598e-06
-5.88541e-06
0.00529528
5.34011e-06
-5.36267e-06
0.00529531
5.36564e-06
-5.39391e-06
0.00529533
4.95992e-06
-4.97887e-06
0.00529536
5.50284e-06
-5.53688e-06
0.00529538
5.1477e-06
-5.16676e-06
0.00529543
6.39633e-06
-6.44531e-06
0.00529545
6.04439e-06
-6.06785e-06
0.00529553
8.24961e-06
-8.32749e-06
0.00529556
7.88754e-06
-7.91795e-06
0.0052957
1.1387e-05
-1.15217e-05
0.00529572
1.10614e-05
-1.10877e-05
0.00529598
1.62439e-05
-1.65001e-05
0.00529597
1.65423e-05
-1.65373e-05
0.00529639
2.24296e-05
-2.28483e-05
0.00529658
2.79815e-05
-2.81647e-05
0.00529675
2.77531e-05
-2.7926e-05
0.00529774
4.66267e-05
-4.76172e-05
0.00529804
4.45565e-05
-4.48546e-05
6.3174e-05
-6.405e-05
0.00527842
0.00019047
0.00527862
0.000184382
0.0052789
0.0001783
0.00527924
0.000172231
0.00527963
0.000166185
0.00528008
0.00016017
0.00528056
0.000154199
0.00528108
0.000148279
0.00528162
0.000142421
0.00528218
0.000136633
0.00528276
0.000130924
0.00528335
0.0001253
0.00528394
0.00011977
0.00528454
0.00011434
0.00528513
0.000109016
0.00528572
0.000103805
0.00528629
9.87105e-05
0.00528686
9.37381e-05
0.00528741
8.88919e-05
0.00528795
8.41757e-05
0.00528847
7.95925e-05
0.00528897
7.51452e-05
0.00528946
7.08359e-05
0.00528992
6.66666e-05
0.00529036
6.26389e-05
0.00529078
5.87538e-05
0.00529118
5.50123e-05
0.00529156
5.14149e-05
0.00529191
4.79621e-05
0.00529224
4.46536e-05
0.00529255
4.14892e-05
0.00529284
3.84683e-05
0.00529311
3.55899e-05
0.00529336
3.28529e-05
0.00529359
3.02557e-05
0.0052938
2.77968e-05
0.00529399
2.54745e-05
0.00529417
2.3287e-05
0.00529432
2.1232e-05
0.00529447
1.93078e-05
0.00529459
1.75113e-05
0.00529471
1.58421e-05
0.00529481
1.42948e-05
0.0052949
1.28737e-05
0.00529498
1.15664e-05
0.00529504
1.03899e-05
0.0052951
9.31218e-06
0.00529515
8.38317e-06
0.0052952
7.52036e-06
0.00529524
6.85489e-06
0.00529527
6.1854e-06
0.0052953
5.8239e-06
0.00529533
5.3148e-06
0.00529536
5.33509e-06
0.00529538
4.93828e-06
0.00529542
5.46668e-06
0.00529544
5.12572e-06
0.00529549
6.34513e-06
0.00529552
6.01751e-06
0.0052956
8.169e-06
0.00529563
7.8529e-06
0.00529577
1.12486e-05
0.0052958
1.10294e-05
0.00529606
1.59827e-05
0.00529607
1.65383e-05
0.00529649
2.2005e-05
0.00529669
2.77858e-05
0.00529687
2.75655e-05
0.00529787
4.56277e-05
0.00529819
4.42361e-05
6.22694e-05
0.0052766
0.000190249
0.0052769
0.000184079
0.00527728
0.000177926
0.00527771
0.000171795
0.0052782
0.000165696
0.00527874
0.000159638
0.0052793
0.000153629
0.0052799
0.000147681
0.00528052
0.0001418
0.00528116
0.000135995
0.00528181
0.000130275
0.00528247
0.000124645
0.00528312
0.000119113
0.00528378
0.000113685
0.00528443
0.000108367
0.00528507
0.000103165
0.0052857
9.80818e-05
0.00528631
9.31236e-05
0.00528691
8.82937e-05
0.00528749
8.35954e-05
0.00528805
7.90318e-05
0.00528859
7.46052e-05
0.00528911
7.03178e-05
0.0052896
6.61711e-05
0.00529008
6.21665e-05
0.00529052
5.8305e-05
0.00529095
5.45873e-05
0.00529135
5.10139e-05
0.00529173
4.75847e-05
0.00529208
4.42998e-05
0.00529241
4.11587e-05
0.00529272
3.81605e-05
0.00529301
3.53043e-05
0.00529327
3.25888e-05
0.00529351
3.00124e-05
0.00529374
2.75737e-05
0.00529394
2.52707e-05
0.00529413
2.31016e-05
0.00529429
2.1064e-05
0.00529444
1.91564e-05
0.00529458
1.73755e-05
0.0052947
1.57209e-05
0.00529481
1.41872e-05
0.0052949
1.27786e-05
0.00529499
1.1483e-05
0.00529506
1.03168e-05
0.00529512
9.2487e-06
0.00529518
8.32752e-06
0.00529523
7.47269e-06
0.00529527
6.81213e-06
0.00529531
6.14952e-06
0.00529534
5.78898e-06
0.00529537
5.28674e-06
0.0052954
5.30201e-06
0.00529543
4.91401e-06
0.00529547
5.4281e-06
0.00529549
5.10096e-06
0.00529554
6.29136e-06
0.00529557
5.98739e-06
0.00529566
8.08533e-06
0.0052957
7.81415e-06
0.00529584
1.11062e-05
0.00529588
1.09914e-05
0.00529614
1.57172e-05
0.00529616
1.65237e-05
0.00529659
2.15766e-05
0.00529679
2.75764e-05
0.005297
2.73622e-05
0.005298
4.46251e-05
0.00529835
4.38906e-05
6.13367e-05
0.00527476
0.000189918
0.00527517
0.000183671
0.00527564
0.00017745
0.00527618
0.000171262
0.00527676
0.000165114
0.00527738
0.000159015
0.00527804
0.000152974
0.00527872
0.000147
0.00527942
0.0001411
0.00528013
0.000135283
0.00528085
0.000129555
0.00528157
0.000123922
0.00528229
0.000118392
0.00528301
0.00011297
0.00528372
0.000107661
0.00528441
0.00010247
0.00528509
9.7402e-05
0.00528575
9.24609e-05
0.0052864
8.765e-05
0.00528702
8.29725e-05
0.00528762
7.8431e-05
0.0052882
7.40277e-05
0.00528875
6.97645e-05
0.00528928
6.56427e-05
0.00528978
6.16634e-05
0.00529026
5.78276e-05
0.00529071
5.41357e-05
0.00529114
5.05879e-05
0.00529154
4.71844e-05
0.00529191
4.39247e-05
0.00529227
4.08083e-05
0.00529259
3.78344e-05
0.00529289
3.50018e-05
0.00529317
3.23091e-05
0.00529343
2.97549e-05
0.00529367
2.73374e-05
0.00529388
2.50548e-05
0.00529408
2.29051e-05
0.00529426
2.0886e-05
0.00529442
1.89958e-05
0.00529456
1.72313e-05
0.00529469
1.5592e-05
0.00529481
1.40727e-05
0.00529491
1.26773e-05
0.005295
1.13939e-05
0.00529507
1.02385e-05
0.00529514
9.18061e-06
0.0052952
8.26771e-06
0.00529525
7.42122e-06
0.0052953
6.76593e-06
0.00529534
6.11045e-06
0.00529538
5.75112e-06
0.00529541
5.25585e-06
0.00529544
5.26631e-06
0.00529547
4.88704e-06
0.00529551
5.38702e-06
0.00529554
5.07335e-06
0.0052956
6.23495e-06
0.00529563
5.95393e-06
0.00529572
7.99854e-06
0.00529576
7.77113e-06
0.0052959
1.09601e-05
0.00529595
1.0947e-05
0.00529622
1.54482e-05
0.00529624
1.64974e-05
0.00529668
2.11461e-05
0.0052969
2.73521e-05
0.00529712
2.71421e-05
0.00529812
4.36233e-05
0.00529849
4.3518e-05
6.03759e-05
0.0052729
0.000189478
0.00527342
0.000183156
0.005274
0.000176871
0.00527463
0.000170629
0.00527531
0.000164436
0.00527602
0.000158301
0.00527676
0.000152232
0.00527753
0.000146236
0.0052783
0.000140322
0.00527909
0.000134495
0.00527988
0.000128763
0.00528067
0.000123131
0.00528146
0.000117606
0.00528224
0.000112193
0.005283
0.000106896
0.00528375
0.000101721
0.00528448
9.66709e-05
0.00528519
9.17498e-05
0.00528588
8.69608e-05
0.00528655
8.23068e-05
0.00528719
7.77901e-05
0.0052878
7.34126e-05
0.00528839
6.91759e-05
0.00528895
6.50813e-05
0.00528949
6.11296e-05
0.00528999
5.73215e-05
0.00529047
5.36573e-05
0.00529092
5.01372e-05
0.00529135
4.67609e-05
0.00529174
4.35281e-05
0.00529211
4.04381e-05
0.00529246
3.74899e-05
0.00529278
3.46823e-05
0.00529307
3.20139e-05
0.00529334
2.9483e-05
0.00529359
2.70879e-05
0.00529382
2.48268e-05
0.00529403
2.26975e-05
0.00529422
2.06979e-05
0.00529439
1.8826e-05
0.00529454
1.70787e-05
0.00529468
1.54556e-05
0.0052948
1.39513e-05
0.0052949
1.25697e-05
0.005295
1.12991e-05
0.00529508
1.01551e-05
0.00529516
9.10783e-06
0.00529522
8.20365e-06
0.00529528
7.36587e-06
0.00529533
6.71618e-06
0.00529537
6.06808e-06
0.00529541
5.71024e-06
0.00529544
5.22204e-06
0.00529548
5.22792e-06
0.00529551
4.85727e-06
0.00529555
5.34336e-06
0.00529558
5.04279e-06
0.00529564
6.17582e-06
0.00529568
5.91704e-06
0.00529577
7.90862e-06
0.00529582
7.72369e-06
0.00529597
1.08104e-05
0.00529602
1.08958e-05
0.00529629
1.51764e-05
0.00529633
1.64579e-05
0.00529676
2.07153e-05
0.005297
2.71119e-05
0.00529724
2.69047e-05
0.00529824
4.26259e-05
0.00529864
4.31164e-05
5.93871e-05
0.00527103
0.000188924
0.00527165
0.000182532
0.00527233
0.000176188
0.00527307
0.000169896
0.00527384
0.000163663
0.00527465
0.000157496
0.00527548
0.000151402
0.00527632
0.000145389
0.00527718
0.000139463
0.00527805
0.000133631
0.00527891
0.000127899
0.00527977
0.000122272
0.00528062
0.000116756
0.00528146
0.000111355
0.00528228
0.000106074
0.00528308
0.000100917
0.00528387
9.58883e-05
0.00528463
9.09902e-05
0.00528536
8.62261e-05
0.00528607
8.15984e-05
0.00528675
7.71091e-05
0.0052874
7.27599e-05
0.00528803
6.85522e-05
0.00528862
6.4487e-05
0.00528919
6.0565e-05
0.00528972
5.67867e-05
0.00529023
5.31522e-05
0.0052907
4.96615e-05
0.00529115
4.63144e-05
0.00529157
4.31101e-05
0.00529196
4.00481e-05
0.00529232
3.71271e-05
0.00529265
3.43459e-05
0.00529297
3.1703e-05
0.00529325
2.91967e-05
0.00529351
2.68253e-05
0.00529375
2.45866e-05
0.00529397
2.24789e-05
0.00529417
2.04995e-05
0.00529435
1.86469e-05
0.00529451
1.69177e-05
0.00529466
1.53114e-05
0.00529478
1.38229e-05
0.0052949
1.24557e-05
0.005295
1.11985e-05
0.00529509
1.00665e-05
0.00529517
9.03028e-06
0.00529523
8.13525e-06
0.00529529
7.30656e-06
0.00529535
6.66282e-06
0.00529539
6.02234e-06
0.00529544
5.66626e-06
0.00529547
5.18523e-06
0.00529551
5.18675e-06
0.00529555
4.82463e-06
0.00529559
5.29703e-06
0.00529563
5.00921e-06
0.00529569
6.11391e-06
0.00529573
5.87665e-06
0.00529582
7.81553e-06
0.00529587
7.6717e-06
0.00529603
1.06571e-05
0.00529609
1.08373e-05
0.00529636
1.49025e-05
0.00529641
1.64043e-05
0.00529684
2.02856e-05
0.0052971
2.68548e-05
0.00529736
2.66494e-05
0.00529834
4.16363e-05
0.00529878
4.26844e-05
5.83708e-05
0.00526914
0.000188255
0.00526987
0.000181797
0.00527066
0.000175398
0.0052715
0.000169061
0.00527237
0.000162792
0.00527327
0.000156597
0.00527418
0.000150483
0.00527512
0.000144457
0.00527606
0.000138524
0.005277
0.000132691
0.00527793
0.000126963
0.00527886
0.000121344
0.00527978
0.000115841
0.00528067
0.000110456
0.00528155
0.000105194
0.00528241
0.000100059
0.00528325
9.50541e-05
0.00528405
9.01822e-05
0.00528484
8.54458e-05
0.00528559
8.08471e-05
0.00528631
7.63879e-05
0.005287
7.20696e-05
0.00528766
6.78933e-05
0.00528828
6.38598e-05
0.00528888
5.99697e-05
0.00528944
5.62233e-05
0.00528997
5.26205e-05
0.00529047
4.91611e-05
0.00529094
4.58448e-05
0.00529138
4.26708e-05
0.00529179
3.96382e-05
0.00529217
3.67459e-05
0.00529253
3.39925e-05
0.00529285
3.13765e-05
0.00529316
2.8896e-05
0.00529343
2.65493e-05
0.00529368
2.43343e-05
0.00529391
2.22491e-05
0.00529412
2.0291e-05
0.00529431
1.84585e-05
0.00529448
1.67481e-05
0.00529463
1.51595e-05
0.00529477
1.36874e-05
0.00529489
1.23353e-05
0.00529499
1.10921e-05
0.00529509
9.9725e-06
0.00529517
8.94792e-06
0.00529524
8.06247e-06
0.00529531
7.24323e-06
0.00529536
6.60579e-06
0.00529541
5.97317e-06
0.00529546
5.61911e-06
0.0052955
5.14536e-06
0.00529554
5.14273e-06
0.00529558
4.78907e-06
0.00529563
5.24798e-06
0.00529566
4.97255e-06
0.00529573
6.04917e-06
0.00529577
5.83269e-06
0.00529587
7.71926e-06
0.00529593
7.61504e-06
0.00529608
1.05004e-05
0.00529615
1.07713e-05
0.00529642
1.4627e-05
0.00529649
1.63357e-05
0.00529692
1.98583e-05
0.0052972
2.65801e-05
0.00529747
2.63757e-05
0.00529845
4.06571e-05
0.00529891
4.22211e-05
5.7328e-05
0.00526723
0.000187469
0.00526808
0.00018095
0.00526898
0.0001745
0.00526991
0.000168123
0.00527088
0.000161822
0.00527188
0.000155604
0.00527289
0.000149474
0.0052739
0.000143439
0.00527492
0.000137504
0.00527594
0.000131674
0.00527695
0.000125954
0.00527795
0.000120348
0.00527893
0.00011486
0.00527989
0.000109495
0.00528083
0.000104256
0.00528174
9.91461e-05
0.00528262
9.41685e-05
0.00528348
8.93257e-05
0.00528431
8.462e-05
0.0052851
8.00531e-05
0.00528586
7.56266e-05
0.00528659
7.13417e-05
0.00528728
6.71993e-05
0.00528794
6.31999e-05
0.00528857
5.93439e-05
0.00528916
5.56313e-05
0.00528972
5.20622e-05
0.00529024
4.8636e-05
0.00529074
4.53522e-05
0.0052912
4.22101e-05
0.00529163
3.92086e-05
0.00529203
3.63465e-05
0.0052924
3.36223e-05
0.00529274
3.10344e-05
0.00529305
2.8581e-05
0.00529334
2.62602e-05
0.00529361
2.40699e-05
0.00529385
2.20081e-05
0.00529407
2.00723e-05
0.00529427
1.82607e-05
0.00529444
1.65701e-05
0.0052946
1.49998e-05
0.00529475
1.35448e-05
0.00529487
1.22085e-05
0.00529498
1.09799e-05
0.00529508
9.8732e-06
0.00529517
8.86067e-06
0.00529525
7.98524e-06
0.00529532
7.17582e-06
0.00529538
6.54502e-06
0.00529543
5.92052e-06
0.00529548
5.56875e-06
0.00529552
5.10238e-06
0.00529557
5.09583e-06
0.00529561
4.75053e-06
0.00529566
5.19616e-06
0.0052957
4.93277e-06
0.00529577
5.98154e-06
0.00529582
5.78509e-06
0.00529591
7.6198e-06
0.00529598
7.55362e-06
0.00529614
1.03404e-05
0.00529621
1.06975e-05
0.00529649
1.43504e-05
0.00529657
1.62514e-05
0.00529699
1.94343e-05
0.00529729
2.62874e-05
0.00529758
2.60835e-05
0.00529855
3.96906e-05
0.00529904
4.17256e-05
5.62595e-05
0.00526531
0.000186562
0.00526627
0.000179988
0.00526728
0.000173493
0.00526833
0.000167079
0.00526939
0.000160752
0.00527048
0.000154515
0.00527158
0.000148375
0.00527269
0.000142336
0.00527379
0.000136403
0.00527488
0.00013058
0.00527596
0.000124872
0.00527703
0.000119282
0.00527808
0.000113814
0.0052791
0.000108473
0.00528009
0.00010326
0.00528106
9.81783e-05
0.005282
9.32314e-05
0.0052829
8.84209e-05
0.00528378
8.37487e-05
0.00528461
7.92165e-05
0.00528541
7.48254e-05
0.00528618
7.05765e-05
0.00528691
6.64702e-05
0.0052876
6.25072e-05
0.00528826
5.86874e-05
0.00528888
5.50109e-05
0.00528946
5.14773e-05
0.00529001
4.80862e-05
0.00529053
4.48368e-05
0.00529101
4.17282e-05
0.00529146
3.87593e-05
0.00529188
3.59288e-05
0.00529226
3.32352e-05
0.00529262
3.06768e-05
0.00529295
2.82516e-05
0.00529325
2.59579e-05
0.00529353
2.37934e-05
0.00529378
2.17561e-05
0.00529401
1.98434e-05
0.00529422
1.80536e-05
0.0052944
1.63835e-05
0.00529457
1.48323e-05
0.00529472
1.33952e-05
0.00529485
1.20752e-05
0.00529497
1.08617e-05
0.00529508
9.76853e-06
0.00529517
8.76853e-06
0.00529525
7.90354e-06
0.00529532
7.1043e-06
0.00529539
6.48048e-06
0.00529544
5.86434e-06
0.0052955
5.51513e-06
0.00529554
5.05624e-06
0.00529559
5.04598e-06
0.00529563
4.70896e-06
0.00529569
5.14152e-06
0.00529573
4.88981e-06
0.0052958
5.91101e-06
0.00529585
5.73382e-06
0.00529596
7.51716e-06
0.00529602
7.48735e-06
0.00529619
1.01773e-05
0.00529627
1.06157e-05
0.00529654
1.4073e-05
0.00529665
1.61508e-05
0.00529707
1.90144e-05
0.00529738
2.59765e-05
0.00529769
2.57727e-05
0.00529864
3.87382e-05
0.00529917
4.11979e-05
5.51668e-05
0.00526338
0.000185534
0.00526446
0.000178909
0.00526558
0.000172374
0.00526673
0.00016593
0.0052679
0.000159581
0.00526909
0.000153331
0.00527028
0.000147185
0.00527147
0.000141146
0.00527265
0.000135219
0.00527382
0.000129408
0.00527498
0.000123716
0.00527611
0.000118147
0.00527722
0.000112703
0.00527831
0.000107388
0.00527936
0.000102205
0.00528038
9.71559e-05
0.00528137
9.22428e-05
0.00528233
8.74676e-05
0.00528324
8.28321e-05
0.00528412
7.83373e-05
0.00528496
7.39843e-05
0.00528577
6.97739e-05
0.00528653
6.57063e-05
0.00528725
6.17819e-05
0.00528794
5.80006e-05
0.00528859
5.43621e-05
0.0052892
5.08661e-05
0.00528978
4.75118e-05
0.00529031
4.42985e-05
0.00529082
4.12251e-05
0.00529129
3.82904e-05
0.00529172
3.5493e-05
0.00529213
3.28314e-05
0.0052925
3.03036e-05
0.00529284
2.7908e-05
0.00529316
2.56424e-05
0.00529345
2.35048e-05
0.00529371
2.14929e-05
0.00529395
1.96043e-05
0.00529417
1.78372e-05
0.00529436
1.61884e-05
0.00529454
1.46571e-05
0.00529469
1.32384e-05
0.00529483
1.19354e-05
0.00529496
1.07376e-05
0.00529507
9.65847e-06
0.00529516
8.67145e-06
0.00529525
7.81734e-06
0.00529533
7.02864e-06
0.00529539
6.41213e-06
0.00529545
5.8046e-06
0.00529551
5.45821e-06
0.00529556
5.00692e-06
0.00529561
4.99317e-06
0.00529566
4.66433e-06
0.00529571
5.08404e-06
0.00529576
4.84365e-06
0.00529583
5.83755e-06
0.00529589
5.67883e-06
0.00529599
7.41135e-06
0.00529607
7.41617e-06
0.00529623
1.00111e-05
0.00529632
1.05257e-05
0.0052966
1.37953e-05
0.00529672
1.60337e-05
0.00529713
1.85991e-05
0.00529746
2.56472e-05
0.00529779
2.54434e-05
0.00529873
3.78011e-05
0.00529929
4.06379e-05
5.40512e-05
0.00526144
0.000184381
0.00526264
0.000177711
0.00526387
0.000171142
0.00526513
0.000164673
0.0052664
0.000158308
0.00526768
0.00015205
0.00526897
0.000145902
0.00527024
0.000139869
0.00527151
0.000133953
0.00527276
0.000128158
0.00527399
0.000122487
0.00527519
0.000116942
0.00527637
0.000111526
0.00527752
0.000106243
0.00527863
0.000101093
0.00527971
9.60788e-05
0.00528075
9.12028e-05
0.00528175
8.64662e-05
0.00528271
8.18702e-05
0.00528363
7.74157e-05
0.00528451
7.31036e-05
0.00528535
6.89341e-05
0.00528615
6.49077e-05
0.00528691
6.10242e-05
0.00528762
5.72835e-05
0.0052883
5.36852e-05
0.00528894
5.02286e-05
0.00528954
4.69131e-05
0.0052901
4.37376e-05
0.00529062
4.0701e-05
0.00529111
3.7802e-05
0.00529156
3.50392e-05
0.00529199
3.24108e-05
0.00529237
2.99151e-05
0.00529273
2.75501e-05
0.00529306
2.53139e-05
0.00529336
2.32041e-05
0.00529364
2.12187e-05
0.00529388
1.93551e-05
0.00529411
1.76115e-05
0.00529431
1.59848e-05
0.0052945
1.44741e-05
0.00529466
1.30745e-05
0.00529481
1.17892e-05
0.00529494
1.06076e-05
0.00529505
9.54301e-06
0.00529515
8.56944e-06
0.00529524
7.72663e-06
0.00529532
6.94882e-06
0.0052954
6.33998e-06
0.00529546
5.74129e-06
0.00529552
5.39799e-06
0.00529557
4.95438e-06
0.00529563
4.93737e-06
0.00529568
4.61663e-06
0.00529574
5.0237e-06
0.00529579
4.79426e-06
0.00529586
5.76115e-06
0.00529592
5.62011e-06
0.00529603
7.30238e-06
0.00529611
7.34004e-06
0.00529628
9.8419e-06
0.00529637
1.04274e-05
0.00529665
1.35174e-05
0.00529679
1.58999e-05
0.0052972
1.81887e-05
0.00529754
2.52998e-05
0.00529789
2.50959e-05
0.00529881
3.68797e-05
0.0052994
4.00461e-05
5.29146e-05
0.0052595
0.000183102
0.00526081
0.000176393
0.00526216
0.000169795
0.00526353
0.000163307
0.0052649
0.000156932
0.00526628
0.000150671
0.00526766
0.000144527
0.00526902
0.000138504
0.00527037
0.000132604
0.0052717
0.00012683
0.005273
0.000121184
0.00527428
0.000115668
0.00527552
0.000110284
0.00527673
0.000105035
0.0052779
9.99221e-05
0.00527903
9.49472e-05
0.00528012
9.01117e-05
0.00528117
8.54167e-05
0.00528218
8.08632e-05
0.00528314
7.64519e-05
0.00528406
7.21833e-05
0.00528494
6.80575e-05
0.00528577
6.40745e-05
0.00528656
6.02343e-05
0.00528731
5.65364e-05
0.00528801
5.29802e-05
0.00528868
4.95651e-05
0.0052893
4.62901e-05
0.00528988
4.31541e-05
0.00529043
4.0156e-05
0.00529093
3.72943e-05
0.00529141
3.45674e-05
0.00529184
3.19737e-05
0.00529225
2.95113e-05
0.00529262
2.71782e-05
0.00529296
2.49724e-05
0.00529327
2.28915e-05
0.00529356
2.09335e-05
0.00529382
1.90959e-05
0.00529405
1.73766e-05
0.00529426
1.57727e-05
0.00529446
1.42833e-05
0.00529463
1.29036e-05
0.00529478
1.16365e-05
0.00529491
1.04717e-05
0.00529504
9.42217e-06
0.00529514
8.46251e-06
0.00529524
7.63141e-06
0.00529532
6.86485e-06
0.0052954
6.264e-06
0.00529546
5.67439e-06
0.00529553
5.33445e-06
0.00529558
4.89863e-06
0.00529564
4.87857e-06
0.00529569
4.56585e-06
0.00529576
4.96048e-06
0.00529581
4.74165e-06
0.00529589
5.68182e-06
0.00529595
5.55765e-06
0.00529606
7.19028e-06
0.00529614
7.25894e-06
0.00529632
9.66984e-06
0.00529642
1.03207e-05
0.0052967
1.32395e-05
0.00529685
1.57494e-05
0.00529726
1.77833e-05
0.00529762
2.49344e-05
0.00529799
2.47307e-05
0.00529889
3.59742e-05
0.00529952
3.94231e-05
5.17588e-05
0.00525754
0.000181694
0.00525898
0.000174953
0.00526045
0.000168332
0.00526192
0.000161831
0.0052634
0.000155451
0.00526488
0.000149193
0.00526635
0.000143059
0.0052678
0.000137052
0.00526923
0.000131173
0.00527064
0.000125424
0.00527202
0.000119807
0.00527336
0.000114324
0.00527467
0.000108976
0.00527594
0.000103766
0.00527717
9.86937e-05
0.00527835
9.37613e-05
0.00527949
8.89695e-05
0.00528059
8.43194e-05
0.00528164
7.98115e-05
0.00528265
7.54462e-05
0.00528361
7.12237e-05
0.00528452
6.71441e-05
0.00528539
6.32071e-05
0.00528621
5.94124e-05
0.00528699
5.57594e-05
0.00528772
5.22475e-05
0.00528841
4.88757e-05
0.00528906
4.5643e-05
0.00528966
4.25483e-05
0.00529023
3.95903e-05
0.00529076
3.67673e-05
0.00529125
3.40779e-05
0.0052917
3.15202e-05
0.00529212
2.90923e-05
0.0052925
2.67923e-05
0.00529286
2.46179e-05
0.00529318
2.25671e-05
0.00529348
2.06375e-05
0.00529375
1.88266e-05
0.00529399
1.71326e-05
0.00529421
1.55523e-05
0.00529441
1.40849e-05
0.00529459
1.27257e-05
0.00529475
1.14774e-05
0.00529489
1.033e-05
0.00529502
9.29597e-06
0.00529513
8.35066e-06
0.00529523
7.5317e-06
0.00529532
6.77674e-06
0.0052954
6.18421e-06
0.00529547
5.60392e-06
0.00529553
5.26759e-06
0.00529559
4.83966e-06
0.00529565
4.81676e-06
0.00529571
4.51198e-06
0.00529577
4.8944e-06
0.00529583
4.68581e-06
0.00529591
5.59955e-06
0.00529598
5.49145e-06
0.00529609
7.07509e-06
0.00529618
7.17284e-06
0.00529635
9.49499e-06
0.00529647
1.02058e-05
0.00529675
1.29617e-05
0.00529691
1.55825e-05
0.00529731
1.7383e-05
0.0052977
2.45515e-05
0.00529808
2.4348e-05
0.00529897
3.50844e-05
0.00529962
3.877e-05
5.05858e-05
0.00525559
0.000180155
0.00525715
0.000173388
0.00525873
0.000166752
0.00526032
0.000160244
0.00526191
0.000153865
0.00526348
0.000147616
0.00526504
0.000141497
0.00526659
0.000135511
0.0052681
0.000129657
0.00526959
0.000123939
0.00527104
0.000118356
0.00527245
0.000112911
0.00527382
0.000107603
0.00527515
0.000102435
0.00527644
9.74077e-05
0.00527768
9.25212e-05
0.00527887
8.77766e-05
0.00528002
8.31745e-05
0.00528111
7.87151e-05
0.00528216
7.43987e-05
0.00528316
7.02251e-05
0.00528411
6.61942e-05
0.00528501
6.23056e-05
0.00528586
5.85587e-05
0.00528667
5.49528e-05
0.00528743
5.14872e-05
0.00528815
4.81606e-05
0.00528882
4.49722e-05
0.00528944
4.19204e-05
0.00529003
3.9004e-05
0.00529058
3.62214e-05
0.00529108
3.35708e-05
0.00529155
3.10504e-05
0.00529199
2.86584e-05
0.00529239
2.63925e-05
0.00529276
2.42508e-05
0.00529309
2.22309e-05
0.0052934
2.03306e-05
0.00529368
1.85474e-05
0.00529393
1.68794e-05
0.00529416
1.53235e-05
0.00529437
1.38789e-05
0.00529455
1.25408e-05
0.00529472
1.13119e-05
0.00529486
1.01824e-05
0.00529499
9.16444e-06
0.00529511
8.23393e-06
0.00529522
7.42751e-06
0.00529531
6.6845e-06
0.00529539
6.10062e-06
0.00529547
5.52988e-06
0.00529554
5.19742e-06
0.0052956
4.77749e-06
0.00529566
4.75197e-06
0.00529572
4.45503e-06
0.00529579
4.82545e-06
0.00529585
4.62676e-06
0.00529593
5.51437e-06
0.005296
5.42153e-06
0.00529612
6.95684e-06
0.00529621
7.08178e-06
0.00529639
9.31743e-06
0.00529651
1.00825e-05
0.00529679
1.26842e-05
0.00529697
1.53993e-05
0.00529737
1.69874e-05
0.00529777
2.41516e-05
0.00529817
2.39487e-05
0.00529904
3.42097e-05
0.00529973
3.8088e-05
4.93977e-05
0.00525363
0.000178484
0.00525532
0.000171698
0.00525702
0.000165053
0.00525872
0.000158545
0.00526041
0.000152174
0.00526209
0.000145939
0.00526374
0.000139841
0.00526537
0.000133881
0.00526697
0.000128059
0.00526854
0.000122376
0.00527006
0.000116832
0.00527154
0.000111428
0.00527298
0.000106165
0.00527437
0.000101044
0.00527572
9.60642e-05
0.00527701
9.12272e-05
0.00527825
8.65332e-05
0.00527945
8.19823e-05
0.00528059
7.75745e-05
0.00528167
7.33098e-05
0.00528271
6.91878e-05
0.0052837
6.52082e-05
0.00528463
6.13704e-05
0.00528552
5.76736e-05
0.00528635
5.4117e-05
0.00528714
5.06995e-05
0.00528788
4.74202e-05
0.00528858
4.42777e-05
0.00528923
4.12706e-05
0.00528983
3.83975e-05
0.0052904
3.56566e-05
0.00529092
3.30463e-05
0.00529141
3.05645e-05
0.00529186
2.82095e-05
0.00529227
2.5979e-05
0.00529265
2.3871e-05
0.005293
2.18831e-05
0.00529332
2.00131e-05
0.0052936
1.82584e-05
0.00529387
1.66173e-05
0.0052941
1.50865e-05
0.00529432
1.36653e-05
0.00529451
1.2349e-05
0.00529468
1.11401e-05
0.00529483
1.00291e-05
0.00529497
9.02763e-06
0.00529509
8.11236e-06
0.0052952
7.31888e-06
0.0052953
6.58816e-06
0.00529539
6.01325e-06
0.00529546
5.45231e-06
0.00529554
5.12397e-06
0.0052956
4.71213e-06
0.00529567
4.6842e-06
0.00529573
4.39503e-06
0.0052958
4.75366e-06
0.00529586
4.5645e-06
0.00529595
5.42631e-06
0.00529603
5.34789e-06
0.00529615
6.83559e-06
0.00529624
6.98576e-06
0.00529642
9.13723e-06
0.00529655
9.9509e-06
0.00529683
1.24068e-05
0.00529703
1.52003e-05
0.00529742
1.65963e-05
0.00529784
2.37353e-05
0.00529825
2.35334e-05
0.00529911
3.33492e-05
0.00529982
3.73784e-05
4.81965e-05
0.00525167
0.000176677
0.00525349
0.00016988
0.00525531
0.000163233
0.00525712
0.000156732
0.00525892
0.000150375
0.0052607
0.000144161
0.00526245
0.00013809
0.00526417
0.000132162
0.00526585
0.000126377
0.00526749
0.000120734
0.00526909
0.000115234
0.00527064
0.000109876
0.00527214
0.000104662
0.0052736
9.9591e-05
0.005275
9.46635e-05
0.00527635
8.98797e-05
0.00527764
8.52396e-05
0.00527888
8.07431e-05
0.00528006
7.639e-05
0.00528119
7.21798e-05
0.00528227
6.81122e-05
0.00528329
6.41864e-05
0.00528426
6.04017e-05
0.00528517
5.67573e-05
0.00528604
5.32521e-05
0.00528685
4.98849e-05
0.00528762
4.66547e-05
0.00528834
4.35599e-05
0.00528901
4.05992e-05
0.00528964
3.77708e-05
0.00529022
3.50732e-05
0.00529076
3.25045e-05
0.00529126
3.00628e-05
0.00529173
2.7746e-05
0.00529215
2.5552e-05
0.00529255
2.34787e-05
0.0052929
2.15238e-05
0.00529323
1.9685e-05
0.00529353
1.79598e-05
0.0052938
1.63463e-05
0.00529405
1.48414e-05
0.00529427
1.34443e-05
0.00529447
1.21503e-05
0.00529465
1.0962e-05
0.0052948
9.86999e-06
0.00529495
8.88559e-06
0.00529507
7.986e-06
0.00529519
7.20587e-06
0.00529529
6.48777e-06
0.00529538
5.92215e-06
0.00529546
5.37122e-06
0.00529554
5.04726e-06
0.0052956
4.6436e-06
0.00529567
4.61348e-06
0.00529574
4.332e-06
0.00529581
4.67905e-06
0.00529588
4.49909e-06
0.00529597
5.33539e-06
0.00529605
5.27059e-06
0.00529617
6.71138e-06
0.00529627
6.88483e-06
0.00529645
8.95447e-06
0.00529659
9.8112e-06
0.00529687
1.21296e-05
0.00529708
1.49858e-05
0.00529747
1.62095e-05
0.0052979
2.33034e-05
0.00529833
2.31028e-05
0.00529918
3.25022e-05
0.00529992
3.66427e-05
4.69844e-05
0.00524972
0.000174735
0.00525166
0.000167934
0.0052536
0.000161293
0.00525553
0.000154805
0.00525744
0.000148469
0.00525931
0.000142283
0.00526116
0.000136245
0.00526297
0.000130354
0.00526473
0.000124611
0.00526645
0.000119013
0.00526813
0.000113562
0.00526975
0.000108255
0.00527131
0.000103094
0.00527283
9.80776e-05
0.00527429
9.3206e-05
0.00527569
8.8479e-05
0.00527703
8.38962e-05
0.00527832
7.94573e-05
0.00527954
7.51619e-05
0.00528071
7.10091e-05
0.00528183
6.69985e-05
0.00528289
6.31291e-05
0.00528389
5.94e-05
0.00528483
5.58102e-05
0.00528573
5.23585e-05
0.00528657
4.90436e-05
0.00528736
4.58643e-05
0.0052881
4.28191e-05
0.00528879
3.99063e-05
0.00528944
3.71244e-05
0.00529004
3.44715e-05
0.0052906
3.19458e-05
0.00529112
2.95453e-05
0.0052916
2.7268e-05
0.00529204
2.51116e-05
0.00529244
2.30741e-05
0.00529281
2.11532e-05
0.00529315
1.93465e-05
0.00529346
1.76516e-05
0.00529374
1.60665e-05
0.00529399
1.45882e-05
0.00529422
1.32159e-05
0.00529442
1.1945e-05
0.00529461
1.07778e-05
0.00529477
9.70529e-06
0.00529492
8.7384e-06
0.00529505
7.8549e-06
0.00529517
7.08851e-06
0.00529527
6.38336e-06
0.00529537
5.82735e-06
0.00529545
5.28666e-06
0.00529553
4.96733e-06
0.0052956
4.57195e-06
0.00529568
4.53984e-06
0.00529574
4.26597e-06
0.00529582
4.60166e-06
0.00529589
4.43053e-06
0.00529598
5.24165e-06
0.00529606
5.18964e-06
0.00529619
6.58426e-06
0.0052963
6.77904e-06
0.00529648
8.76922e-06
0.00529663
9.66349e-06
0.00529691
1.18526e-05
0.00529714
1.47565e-05
0.00529752
1.58263e-05
0.00529797
2.28565e-05
0.00529841
2.26575e-05
0.00529925
3.16674e-05
0.00530001
3.58825e-05
4.57633e-05
0.00524777
0.000172654
0.00524984
0.000165858
0.00525191
0.00015923
0.00525395
0.000152764
0.00525596
0.000146456
0.00525794
0.000140303
0.00525988
0.000134304
0.00526178
0.000128458
0.00526363
0.000122762
0.00526543
0.000117215
0.00526717
0.000111816
0.00526886
0.000106566
0.00527049
0.000101462
0.00527207
9.6504e-05
0.00527358
9.16921e-05
0.00527503
8.70255e-05
0.00527643
8.25035e-05
0.00527776
7.81254e-05
0.00527903
7.38906e-05
0.00528024
6.97982e-05
0.00528139
6.58472e-05
0.00528248
6.20368e-05
0.00528352
5.83656e-05
0.0052845
5.48326e-05
0.00528542
5.14366e-05
0.00528629
4.8176e-05
0.0052871
4.50495e-05
0.00528786
4.20555e-05
0.00528858
3.91924e-05
0.00528924
3.64584e-05
0.00528986
3.38517e-05
0.00529044
3.13703e-05
0.00529097
2.90124e-05
0.00529147
2.67757e-05
0.00529192
2.46581e-05
0.00529234
2.26574e-05
0.00529272
2.07714e-05