/*--------------------------------*- C++ -*----------------------------------*\
| =========                 |                                                 |
| \\      /  F ield         | OpenFOAM: The Open Source CFD Toolbox           |
|  \\    /   O peration     | Version:  2412                                  |
|   \\  /    A nd           | Website:  www.openfoam.com                      |
|    \\/     M anipulation  |                                                 |
\*---------------------------------------------------------------------------*/
FoamFile
{
    version     2.0;
    format      ascii;
    arch        "LSB;label=32;scalar=64";
    class       volVectorField;
    location    "24";
    object      U;
}
// * * * * * * * * * * * * * * * * * * * * * * * * * * * * * * * * * * * * * //

dimensions      [0 1 -1 0 0 0 0];

internalField   nonuniform List<vector> 
5285
(
(0.09976 0.00158613 0)
(0.0997611 0.00150641 0)
(0.0997638 0.00142913 0)
(0.0997678 0.00135429 0)
(0.0997731 0.0012819 0)
(0.0997794 0.00121199 0)
(0.0997865 0.00114455 0)
(0.0997945 0.00107959 0)
(0.099803 0.0010171 0)
(0.0998121 0.000957077 0)
(0.0998216 0.000899494 0)
(0.0998313 0.000844328 0)
(0.0998413 0.000791547 0)
(0.0998513 0.000741115 0)
(0.0998614 0.000692991 0)
(0.0998715 0.000647133 0)
(0.0998816 0.000603491 0)
(0.0998914 0.000562013 0)
(0.0999012 0.000522647 0)
(0.0999106 0.000485333 0)
(0.0999199 0.000450013 0)
(0.0999288 0.000416626 0)
(0.0999374 0.00038511 0)
(0.0999457 0.0003554 0)
(0.0999537 0.000327434 0)
(0.0999613 0.000301148 0)
(0.0999685 0.000276479 0)
(0.0999753 0.000253362 0)
(0.0999817 0.000231736 0)
(0.0999878 0.000211538 0)
(0.0999935 0.000192707 0)
(0.0999988 0.000175182 0)
(0.100004 0.000158902 0)
(0.100008 0.000143808 0)
(0.100013 0.000129843 0)
(0.100016 0.000116949 0)
(0.10002 0.000105073 0)
(0.100023 9.41619e-05 0)
(0.100026 8.41623e-05 0)
(0.100029 7.50266e-05 0)
(0.100031 6.67027e-05 0)
(0.100033 5.91521e-05 0)
(0.100035 5.23181e-05 0)
(0.100037 4.61831e-05 0)
(0.100038 4.06694e-05 0)
(0.10004 3.58068e-05 0)
(0.100041 3.14527e-05 0)
(0.100042 2.77522e-05 0)
(0.100043 2.43966e-05 0)
(0.100043 2.17985e-05 0)
(0.100044 1.92708e-05 0)
(0.100044 1.77946e-05 0)
(0.100046 1.59027e-05 0)
(0.100044 1.56732e-05 0)
(0.100047 1.41942e-05 0)
(0.100044 1.54566e-05 0)
(0.10005 1.41588e-05 0)
(0.100044 1.72811e-05 0)
(0.100053 1.5981e-05 0)
(0.100044 2.14417e-05 0)
(0.100057 2.00439e-05 0)
(0.100043 2.84807e-05 0)
(0.100063 2.69975e-05 0)
(0.100043 3.91274e-05 0)
(0.100074 3.87551e-05 0)
(0.100042 5.20034e-05 0)
(0.100091 6.32234e-05 0)
(0.100047 6.14693e-05 0)
(0.1001 0.000101998 0)
(0.100083 9.48753e-05 0)
(0.100113 0.000132351 0)
(0.099725 0.0015856 0)
(0.0997281 0.00150519 0)
(0.0997326 0.00142732 0)
(0.0997385 0.001352 0)
(0.0997455 0.00127921 0)
(0.0997535 0.00120897 0)
(0.0997623 0.00114128 0)
(0.0997718 0.00107614 0)
(0.0997818 0.00101352 0)
(0.0997923 0.000953411 0)
(0.0998031 0.000895787 0)
(0.0998142 0.000840617 0)
(0.0998253 0.000787862 0)
(0.0998366 0.000737484 0)
(0.0998478 0.000689438 0)
(0.0998589 0.000643675 0)
(0.0998699 0.000600144 0)
(0.0998808 0.00055879 0)
(0.0998913 0.000519557 0)
(0.0999017 0.000482383 0)
(0.0999117 0.000447209 0)
(0.0999213 0.000413971 0)
(0.0999306 0.000382604 0)
(0.0999396 0.000353045 0)
(0.0999481 0.000325229 0)
(0.0999563 0.00029909 0)
(0.099964 0.000274564 0)
(0.0999713 0.000251588 0)
(0.0999782 0.000230098 0)
(0.0999847 0.000210031 0)
(0.0999908 0.000191325 0)
(0.0999964 0.000173919 0)
(0.100002 0.000157752 0)
(0.100007 0.000142765 0)
(0.100011 0.000128901 0)
(0.100015 0.000116103 0)
(0.100019 0.000104315 0)
(0.100022 9.34859e-05 0)
(0.100026 8.35624e-05 0)
(0.100028 7.44969e-05 0)
(0.100031 6.62375e-05 0)
(0.100033 5.87456e-05 0)
(0.100035 5.19652e-05 0)
(0.100037 4.5878e-05 0)
(0.100039 4.04077e-05 0)
(0.10004 3.55826e-05 0)
(0.100041 3.12629e-05 0)
(0.100042 2.75896e-05 0)
(0.100043 2.42611e-05 0)
(0.100044 2.16795e-05 0)
(0.100045 1.91744e-05 0)
(0.100045 1.77014e-05 0)
(0.100047 1.58317e-05 0)
(0.100045 1.55876e-05 0)
(0.100048 1.41363e-05 0)
(0.100045 1.53584e-05 0)
(0.100051 1.41026e-05 0)
(0.100045 1.71463e-05 0)
(0.100054 1.59147e-05 0)
(0.100045 2.12367e-05 0)
(0.100058 1.99616e-05 0)
(0.100045 2.81411e-05 0)
(0.100065 2.69268e-05 0)
(0.100045 3.85085e-05 0)
(0.100076 3.87572e-05 0)
(0.100043 5.10337e-05 0)
(0.100093 6.27976e-05 0)
(0.100049 6.1072e-05 0)
(0.100102 9.98421e-05 0)
(0.100085 9.42204e-05 0)
(0.100117 0.000130499 0)
(0.0996897 0.00158421 0)
(0.0996947 0.00150314 0)
(0.0997012 0.00142473 0)
(0.0997089 0.00134896 0)
(0.0997176 0.00127581 0)
(0.0997273 0.0012053 0)
(0.0997378 0.0011374 0)
(0.0997488 0.0010721 0)
(0.0997604 0.00100939 0)
(0.0997723 0.000949231 0)
(0.0997845 0.0008916 0)
(0.0997968 0.000836458 0)
(0.0998092 0.000783761 0)
(0.0998217 0.000733467 0)
(0.099834 0.000685525 0)
(0.0998462 0.000639884 0)
(0.0998582 0.000596489 0)
(0.0998699 0.000555282 0)
(0.0998814 0.000516203 0)
(0.0998925 0.000479191 0)
(0.0999033 0.000444181 0)
(0.0999137 0.00041111 0)
(0.0999237 0.00037991 0)
(0.0999333 0.000350517 0)
(0.0999424 0.000322865 0)
(0.0999511 0.000296887 0)
(0.0999594 0.000272518 0)
(0.0999672 0.000249693 0)
(0.0999746 0.00022835 0)
(0.0999815 0.000208423 0)
(0.0999879 0.000189852 0)
(0.0999939 0.000172574 0)
(0.0999995 0.000156528 0)
(0.100005 0.000141656 0)
(0.10001 0.000127899 0)
(0.100014 0.000115202 0)
(0.100018 0.000103508 0)
(0.100022 9.27662e-05 0)
(0.100025 8.29236e-05 0)
(0.100028 7.39325e-05 0)
(0.100031 6.57413e-05 0)
(0.100033 5.83116e-05 0)
(0.100035 5.15878e-05 0)
(0.100037 4.55514e-05 0)
(0.100039 4.01269e-05 0)
(0.10004 3.53416e-05 0)
(0.100042 3.10581e-05 0)
(0.100043 2.74138e-05 0)
(0.100044 2.41138e-05 0)
(0.100044 2.15501e-05 0)
(0.100046 1.90683e-05 0)
(0.100045 1.76e-05 0)
(0.100047 1.57524e-05 0)
(0.100046 1.54951e-05 0)
(0.100049 1.40707e-05 0)
(0.100046 1.5254e-05 0)
(0.100052 1.40383e-05 0)
(0.100046 1.70054e-05 0)
(0.100055 1.58393e-05 0)
(0.100046 2.10244e-05 0)
(0.100059 1.98684e-05 0)
(0.100046 2.77921e-05 0)
(0.100066 2.68416e-05 0)
(0.100046 3.78789e-05 0)
(0.100077 3.87361e-05 0)
(0.100045 5.0053e-05 0)
(0.100095 6.23422e-05 0)
(0.100052 6.06411e-05 0)
(0.100105 9.76732e-05 0)
(0.100087 9.35153e-05 0)
(0.10012 0.000128588 0)
(0.0996539 0.00158191 0)
(0.099661 0.00150024 0)
(0.0996694 0.00142133 0)
(0.0996789 0.00134516 0)
(0.0996895 0.0012717 0)
(0.099701 0.00120094 0)
(0.0997131 0.00113287 0)
(0.0997257 0.00106747 0)
(0.0997388 0.0010047 0)
(0.0997522 0.000944531 0)
(0.0997657 0.000886929 0)
(0.0997794 0.000831847 0)
(0.099793 0.000779241 0)
(0.0998066 0.000729059 0)
(0.0998201 0.00068125 0)
(0.0998333 0.000635758 0)
(0.0998463 0.000592524 0)
(0.099859 0.000551487 0)
(0.0998713 0.000512586 0)
(0.0998833 0.000475755 0)
(0.0998949 0.000440929 0)
(0.099906 0.000408042 0)
(0.0999167 0.000377027 0)
(0.0999269 0.000347816 0)
(0.0999367 0.000320341 0)
(0.0999459 0.000294538 0)
(0.0999547 0.000270338 0)
(0.099963 0.000247678 0)
(0.0999708 0.000226491 0)
(0.0999781 0.000206715 0)
(0.099985 0.000188288 0)
(0.0999913 0.000171146 0)
(0.0999973 0.00015523 0)
(0.100003 0.000140479 0)
(0.100008 0.000126837 0)
(0.100012 0.000114246 0)
(0.100017 0.000102652 0)
(0.100021 9.20026e-05 0)
(0.100024 8.22453e-05 0)
(0.100027 7.33328e-05 0)
(0.10003 6.52138e-05 0)
(0.100033 5.78497e-05 0)
(0.100035 5.11857e-05 0)
(0.100037 4.52028e-05 0)
(0.100039 3.98266e-05 0)
(0.10004 3.50833e-05 0)
(0.100042 3.0838e-05 0)
(0.100043 2.72245e-05 0)
(0.100044 2.39545e-05 0)
(0.100045 2.14099e-05 0)
(0.100046 1.89525e-05 0)
(0.100046 1.74898e-05 0)
(0.100048 1.56648e-05 0)
(0.100047 1.5395e-05 0)
(0.10005 1.39975e-05 0)
(0.100047 1.51426e-05 0)
(0.100053 1.39664e-05 0)
(0.100047 1.68573e-05 0)
(0.100056 1.57554e-05 0)
(0.100047 2.08041e-05 0)
(0.10006 1.97647e-05 0)
(0.100047 2.74336e-05 0)
(0.100067 2.67414e-05 0)
(0.100047 3.72399e-05 0)
(0.100079 3.8689e-05 0)
(0.100047 4.90656e-05 0)
(0.100097 6.18546e-05 0)
(0.100054 6.01742e-05 0)
(0.100107 9.55017e-05 0)
(0.10009 9.27545e-05 0)
(0.100123 0.000126618 0)
(0.0996178 0.00157871 0)
(0.0996269 0.00149648 0)
(0.0996373 0.00141712 0)
(0.0996488 0.00134059 0)
(0.0996612 0.00126686 0)
(0.0996744 0.00119591 0)
(0.0996882 0.00112771 0)
(0.0997024 0.00106224 0)
(0.099717 0.000999451 0)
(0.0997318 0.000939309 0)
(0.0997468 0.00088177 0)
(0.0997618 0.000826783 0)
(0.0997767 0.000774298 0)
(0.0997914 0.00072426 0)
(0.099806 0.000676612 0)
(0.0998203 0.000631296 0)
(0.0998343 0.000588248 0)
(0.0998479 0.000547405 0)
(0.0998612 0.000508703 0)
(0.099874 0.000472075 0)
(0.0998863 0.000437453 0)
(0.0998982 0.000404769 0)
(0.0999096 0.000373954 0)
(0.0999204 0.00034494 0)
(0.0999308 0.000317659 0)
(0.0999406 0.000292044 0)
(0.0999499 0.000268026 0)
(0.0999587 0.000245541 0)
(0.0999669 0.000224523 0)
(0.0999747 0.000204908 0)
(0.0999819 0.000186633 0)
(0.0999886 0.000169636 0)
(0.0999949 0.000153856 0)
(0.100001 0.000139235 0)
(0.100006 0.000125713 0)
(0.100011 0.000113235 0)
(0.100015 0.000101747 0)
(0.10002 9.11948e-05 0)
(0.100023 8.15276e-05 0)
(0.100027 7.26979e-05 0)
(0.10003 6.46547e-05 0)
(0.100032 5.73597e-05 0)
(0.100035 5.07585e-05 0)
(0.100037 4.48319e-05 0)
(0.100039 3.95066e-05 0)
(0.100041 3.48075e-05 0)
(0.100042 3.06024e-05 0)
(0.100043 2.70214e-05 0)
(0.100045 2.37827e-05 0)
(0.100045 2.12587e-05 0)
(0.100047 1.88267e-05 0)
(0.100047 1.73706e-05 0)
(0.100049 1.55688e-05 0)
(0.100047 1.52871e-05 0)
(0.100051 1.39166e-05 0)
(0.100048 1.5024e-05 0)
(0.100053 1.38866e-05 0)
(0.100048 1.67018e-05 0)
(0.100057 1.56627e-05 0)
(0.100048 2.05756e-05 0)
(0.100062 1.96501e-05 0)
(0.100048 2.70656e-05 0)
(0.100069 2.66251e-05 0)
(0.100049 3.65934e-05 0)
(0.10008 3.86126e-05 0)
(0.100049 4.80755e-05 0)
(0.100098 6.13321e-05 0)
(0.100056 5.96696e-05 0)
(0.100109 9.33362e-05 0)
(0.100092 9.19338e-05 0)
(0.100127 0.00012459 0)
(0.0995813 0.00157458 0)
(0.0995925 0.00149184 0)
(0.0996049 0.00141207 0)
(0.0996183 0.00133524 0)
(0.0996326 0.00126129 0)
(0.0996476 0.00119019 0)
(0.0996631 0.00112191 0)
(0.0996789 0.0010564 0)
(0.0996951 0.000993638 0)
(0.0997114 0.00093356 0)
(0.0997277 0.00087612 0)
(0.099744 0.000821263 0)
(0.0997602 0.000768932 0)
(0.0997762 0.000719068 0)
(0.0997919 0.00067161 0)
(0.0998072 0.000626496 0)
(0.0998222 0.00058366 0)
(0.0998368 0.000543036 0)
(0.0998509 0.000504556 0)
(0.0998646 0.000468151 0)
(0.0998777 0.000433752 0)
(0.0998903 0.000401289 0)
(0.0999023 0.000370692 0)
(0.0999138 0.000341891 0)
(0.0999248 0.000314818 0)
(0.0999352 0.000289404 0)
(0.099945 0.000265581 0)
(0.0999543 0.000243283 0)
(0.099963 0.000222444 0)
(0.0999711 0.000202999 0)
(0.0999787 0.000184887 0)
(0.0999859 0.000168043 0)
(0.0999925 0.000152408 0)
(0.0999986 0.000137923 0)
(0.100004 0.000124529 0)
(0.100009 0.00011217 0)
(0.100014 0.000100792 0)
(0.100018 9.03425e-05 0)
(0.100022 8.077e-05 0)
(0.100026 7.20273e-05 0)
(0.100029 6.40638e-05 0)
(0.100032 5.68414e-05 0)
(0.100035 5.03061e-05 0)
(0.100037 4.44386e-05 0)
(0.100039 3.91666e-05 0)
(0.100041 3.45139e-05 0)
(0.100042 3.03509e-05 0)
(0.100043 2.68042e-05 0)
(0.100045 2.35984e-05 0)
(0.100046 2.10962e-05 0)
(0.100047 1.86906e-05 0)
(0.100047 1.7242e-05 0)
(0.100049 1.54639e-05 0)
(0.100048 1.51713e-05 0)
(0.100051 1.38275e-05 0)
(0.100048 1.48981e-05 0)
(0.100054 1.37986e-05 0)
(0.100049 1.6539e-05 0)
(0.100058 1.55608e-05 0)
(0.100049 2.03389e-05 0)
(0.100063 1.95241e-05 0)
(0.100049 2.66888e-05 0)
(0.10007 2.64917e-05 0)
(0.10005 3.5941e-05 0)
(0.100081 3.85041e-05 0)
(0.100051 4.70865e-05 0)
(0.100099 6.07725e-05 0)
(0.100059 5.9126e-05 0)
(0.100111 9.11842e-05 0)
(0.100094 9.10501e-05 0)
(0.10013 0.000122504 0)
(0.0995445 0.0015695 0)
(0.0995578 0.0014863 0)
(0.0995723 0.00140619 0)
(0.0995877 0.00132909 0)
(0.0996039 0.00125497 0)
(0.0996206 0.00118377 0)
(0.0996378 0.00111545 0)
(0.0996554 0.00104996 0)
(0.0996731 0.000987256 0)
(0.0996908 0.000927281 0)
(0.0997086 0.000869977 0)
(0.0997262 0.000815284 0)
(0.0997436 0.00076314 0)
(0.0997608 0.000713481 0)
(0.0997776 0.000666243 0)
(0.0997941 0.000621359 0)
(0.0998101 0.00057876 0)
(0.0998256 0.000538378 0)
(0.0998406 0.000500142 0)
(0.099855 0.000463982 0)
(0.099869 0.000429826 0)
(0.0998823 0.000397602 0)
(0.099895 0.00036724 0)
(0.0999072 0.000338669 0)
(0.0999187 0.000311818 0)
(0.0999297 0.000286619 0)
(0.09994 0.000263003 0)
(0.0999498 0.000240904 0)
(0.0999589 0.000220254 0)
(0.0999675 0.000200991 0)
(0.0999755 0.000183049 0)
(0.099983 0.000166368 0)
(0.0999899 0.000150886 0)
(0.0999963 0.000136543 0)
(0.100002 0.000123283 0)
(0.100008 0.000111049 0)
(0.100013 9.97876e-05 0)
(0.100017 8.94458e-05 0)
(0.100021 7.99725e-05 0)
(0.100025 7.13209e-05 0)
(0.100028 6.34409e-05 0)
(0.100031 5.62945e-05 0)
(0.100034 4.98282e-05 0)
(0.100037 4.40225e-05 0)
(0.100039 3.88064e-05 0)
(0.100041 3.42023e-05 0)
(0.100042 3.00834e-05 0)
(0.100044 2.65727e-05 0)
(0.100045 2.34012e-05 0)
(0.100046 2.09222e-05 0)
(0.100048 1.85439e-05 0)
(0.100047 1.7104e-05 0)
(0.10005 1.535e-05 0)
(0.100048 1.50473e-05 0)
(0.100052 1.37302e-05 0)
(0.100049 1.47646e-05 0)
(0.100055 1.37023e-05 0)
(0.100049 1.63686e-05 0)
(0.100059 1.54495e-05 0)
(0.10005 2.0094e-05 0)
(0.100064 1.93864e-05 0)
(0.10005 2.63034e-05 0)
(0.100071 2.63402e-05 0)
(0.100052 3.52842e-05 0)
(0.100083 3.83614e-05 0)
(0.100053 4.61016e-05 0)
(0.1001 6.0174e-05 0)
(0.100061 5.85422e-05 0)
(0.100113 8.90523e-05 0)
(0.100096 9.01006e-05 0)
(0.100133 0.000120362 0)
(0.0995075 0.00156345 0)
(0.0995229 0.00147985 0)
(0.0995395 0.00139944 0)
(0.0995569 0.00132214 0)
(0.099575 0.00124789 0)
(0.0995935 0.00117664 0)
(0.0996125 0.00110833 0)
(0.0996317 0.0010429 0)
(0.0996509 0.000980301 0)
(0.0996702 0.000920468 0)
(0.0996894 0.000863338 0)
(0.0997083 0.000808845 0)
(0.099727 0.000756921 0)
(0.0997454 0.000707499 0)
(0.0997633 0.00066051 0)
(0.0997808 0.000615883 0)
(0.0997978 0.000573548 0)
(0.0998143 0.000533433 0)
(0.0998302 0.000495464 0)
(0.0998455 0.000459569 0)
(0.0998602 0.000425675 0)
(0.0998742 0.000393709 0)
(0.0998877 0.000363599 0)
(0.0999005 0.000335273 0)
(0.0999126 0.000308659 0)
(0.0999241 0.000283689 0)
(0.099935 0.000260293 0)
(0.0999452 0.000238404 0)
(0.0999548 0.000217955 0)
(0.0999638 0.000198882 0)
(0.0999722 0.000181121 0)
(0.09998 0.00016461 0)
(0.0999873 0.000149288 0)
(0.099994 0.000135096 0)
(0.1 0.000121977 0)
(0.100006 0.000109874 0)
(0.100011 9.87338e-05 0)
(0.100016 8.85045e-05 0)
(0.10002 7.9135e-05 0)
(0.100024 7.05787e-05 0)
(0.100028 6.2786e-05 0)
(0.100031 5.57189e-05 0)
(0.100034 4.93247e-05 0)
(0.100036 4.35837e-05 0)
(0.100039 3.84258e-05 0)
(0.10004 3.38726e-05 0)
(0.100042 2.97997e-05 0)
(0.100044 2.63266e-05 0)
(0.100045 2.3191e-05 0)
(0.100046 2.07365e-05 0)
(0.100048 1.83866e-05 0)
(0.100048 1.69563e-05 0)
(0.10005 1.5227e-05 0)
(0.100049 1.49149e-05 0)
(0.100053 1.36244e-05 0)
(0.10005 1.46234e-05 0)
(0.100056 1.35974e-05 0)
(0.10005 1.61905e-05 0)
(0.100059 1.53288e-05 0)
(0.10005 1.98408e-05 0)
(0.100064 1.92367e-05 0)
(0.100051 2.59098e-05 0)
(0.100072 2.61699e-05 0)
(0.100053 3.46242e-05 0)
(0.100084 3.81826e-05 0)
(0.100055 4.51234e-05 0)
(0.100101 5.95355e-05 0)
(0.100064 5.79176e-05 0)
(0.100114 8.69457e-05 0)
(0.100098 8.90836e-05 0)
(0.100136 0.000118165 0)
(0.0994701 0.00155641 0)
(0.0994878 0.00147247 0)
(0.0995065 0.00139183 0)
(0.0995259 0.00131438 0)
(0.0995459 0.00124005 0)
(0.0995663 0.0011688 0)
(0.099587 0.00110054 0)
(0.0996079 0.00103522 0)
(0.0996287 0.000972768 0)
(0.0996495 0.000913119 0)
(0.0996701 0.000856201 0)
(0.0996904 0.000801943 0)
(0.0997103 0.000750274 0)
(0.0997299 0.00070112 0)
(0.099749 0.00065441 0)
(0.0997675 0.00061007 0)
(0.0997855 0.000568024 0)
(0.0998029 0.000528199 0)
(0.0998197 0.00049052 0)
(0.0998359 0.000454912 0)
(0.0998513 0.0004213 0)
(0.0998661 0.00038961 0)
(0.0998802 0.000359769 0)
(0.0998937 0.000331704 0)
(0.0999064 0.000305342 0)
(0.0999185 0.000280614 0)
(0.0999299 0.000257451 0)
(0.0999406 0.000235783 0)
(0.0999506 0.000215546 0)
(0.09996 0.000196674 0)
(0.0999688 0.000179102 0)
(0.099977 0.00016277 0)
(0.0999846 0.000147616 0)
(0.0999916 0.000133582 0)
(0.0999981 0.000120609 0)
(0.100004 0.000108644 0)
(0.10001 9.76304e-05 0)
(0.100015 8.75187e-05 0)
(0.100019 7.82575e-05 0)
(0.100023 6.98007e-05 0)
(0.100027 6.20989e-05 0)
(0.10003 5.51145e-05 0)
(0.100033 4.87954e-05 0)
(0.100036 4.31218e-05 0)
(0.100038 3.80247e-05 0)
(0.10004 3.35245e-05 0)
(0.100042 2.94996e-05 0)
(0.100044 2.6066e-05 0)
(0.100045 2.29676e-05 0)
(0.100046 2.0539e-05 0)
(0.100048 1.82184e-05 0)
(0.100048 1.67987e-05 0)
(0.100051 1.50946e-05 0)
(0.100049 1.4774e-05 0)
(0.100053 1.351e-05 0)
(0.10005 1.44744e-05 0)
(0.100056 1.34838e-05 0)
(0.100051 1.60046e-05 0)
(0.10006 1.51984e-05 0)
(0.100051 1.95794e-05 0)
(0.100065 1.90749e-05 0)
(0.100052 2.5508e-05 0)
(0.100073 2.59804e-05 0)
(0.100054 3.39621e-05 0)
(0.100085 3.79662e-05 0)
(0.100056 4.41539e-05 0)
(0.100102 5.88559e-05 0)
(0.100066 5.7252e-05 0)
(0.100116 8.48684e-05 0)
(0.1001 8.79981e-05 0)
(0.100138 0.000115916 0)
(0.0994325 0.00154836 0)
(0.0994525 0.00146415 0)
(0.0994733 0.00138332 0)
(0.0994948 0.00130578 0)
(0.0995168 0.00123144 0)
(0.099539 0.00116023 0)
(0.0995615 0.00109208 0)
(0.099584 0.00102691 0)
(0.0996065 0.000964655 0)
(0.0996288 0.00090523 0)
(0.0996508 0.000848563 0)
(0.0996724 0.000794578 0)
(0.0996936 0.000743198 0)
(0.0997144 0.000694345 0)
(0.0997346 0.000647944 0)
(0.0997542 0.000603917 0)
(0.0997732 0.000562188 0)
(0.0997916 0.000522678 0)
(0.0998093 0.000485312 0)
(0.0998262 0.000450012 0)
(0.0998425 0.000416702 0)
(0.099858 0.000385306 0)
(0.0998728 0.000355751 0)
(0.0998868 0.000327962 0)
(0.0999002 0.000301868 0)
(0.0999128 0.000277396 0)
(0.0999247 0.000254477 0)
(0.0999359 0.000233043 0)
(0.0999464 0.000213028 0)
(0.0999562 0.000194366 0)
(0.0999654 0.000176993 0)
(0.0999739 0.000160848 0)
(0.0999819 0.00014587 0)
(0.0999892 0.000132 0)
(0.0999959 0.000119181 0)
(0.100002 0.000107358 0)
(0.100008 9.64777e-05 0)
(0.100013 8.64885e-05 0)
(0.100018 7.73401e-05 0)
(0.100022 6.89868e-05 0)
(0.100026 6.13796e-05 0)
(0.100029 5.44814e-05 0)
(0.100033 4.82405e-05 0)
(0.100035 4.2637e-05 0)
(0.100038 3.7603e-05 0)
(0.10004 3.31581e-05 0)
(0.100042 2.9183e-05 0)
(0.100044 2.57906e-05 0)
(0.100045 2.2731e-05 0)
(0.100046 2.03295e-05 0)
(0.100048 1.80392e-05 0)
(0.100048 1.66312e-05 0)
(0.100051 1.49528e-05 0)
(0.10005 1.46245e-05 0)
(0.100053 1.33869e-05 0)
(0.10005 1.43175e-05 0)
(0.100057 1.33615e-05 0)
(0.100051 1.58109e-05 0)
(0.100061 1.50582e-05 0)
(0.100052 1.93098e-05 0)
(0.100066 1.89006e-05 0)
(0.100053 2.50986e-05 0)
(0.100074 2.5771e-05 0)
(0.100055 3.32986e-05 0)
(0.100086 3.77113e-05 0)
(0.100058 4.31945e-05 0)
(0.100103 5.81351e-05 0)
(0.100069 5.65453e-05 0)
(0.100117 8.28231e-05 0)
(0.100102 8.68439e-05 0)
(0.100141 0.000113618 0)
(0.0993948 0.00153929 0)
(0.099417 0.00145487 0)
(0.09944 0.00137393 0)
(0.0994636 0.00129635 0)
(0.0994875 0.00122205 0)
(0.0995117 0.00115094 0)
(0.099536 0.00108295 0)
(0.0995602 0.00101798 0)
(0.0995842 0.000955957 0)
(0.099608 0.0008968 0)
(0.0996314 0.000840424 0)
(0.0996544 0.000786749 0)
(0.0996769 0.000735692 0)
(0.0996989 0.000687173 0)
(0.0997202 0.000641111 0)
(0.0997409 0.000597427 0)
(0.0997609 0.00055604 0)
(0.0997802 0.00051687 0)
(0.0997988 0.000479839 0)
(0.0998166 0.000444869 0)
(0.0998336 0.00041188 0)
(0.0998498 0.000380798 0)
(0.0998653 0.000351546 0)
(0.09988 0.00032405 0)
(0.0998939 0.000298236 0)
(0.0999071 0.000274033 0)
(0.0999195 0.000251372 0)
(0.0999312 0.000230184 0)
(0.0999421 0.000210401 0)
(0.0999524 0.000191959 0)
(0.0999619 0.000174794 0)
(0.0999708 0.000158845 0)
(0.0999791 0.00014405 0)
(0.0999867 0.000130352 0)
(0.0999937 0.000117693 0)
(0.1 0.000106018 0)
(0.100006 9.52758e-05 0)
(0.100012 8.5414e-05 0)
(0.100016 7.63829e-05 0)
(0.100021 6.81371e-05 0)
(0.100025 6.06284e-05 0)
(0.100029 5.38195e-05 0)
(0.100032 4.76598e-05 0)
(0.100035 4.21291e-05 0)
(0.100037 3.71608e-05 0)
(0.10004 3.27732e-05 0)
(0.100042 2.88499e-05 0)
(0.100043 2.55004e-05 0)
(0.100045 2.24809e-05 0)
(0.100046 2.0108e-05 0)
(0.100048 1.7849e-05 0)
(0.100048 1.64537e-05 0)
(0.100051 1.48015e-05 0)
(0.10005 1.44663e-05 0)
(0.100054 1.32551e-05 0)
(0.100051 1.41525e-05 0)
(0.100057 1.32304e-05 0)
(0.100052 1.56092e-05 0)
(0.100061 1.49082e-05 0)
(0.100052 1.9032e-05 0)
(0.100067 1.87139e-05 0)
(0.100054 2.46816e-05 0)
(0.100075 2.55416e-05 0)
(0.100056 3.26346e-05 0)
(0.100086 3.74174e-05 0)
(0.10006 4.22461e-05 0)
(0.100103 5.7373e-05 0)
(0.100071 5.57981e-05 0)
(0.100119 8.08117e-05 0)
(0.100104 8.56215e-05 0)
(0.100144 0.000111275 0)
(0.0993568 0.00152918 0)
(0.0993814 0.00144461 0)
(0.0994067 0.00136362 0)
(0.0994323 0.00128607 0)
(0.0994583 0.00121187 0)
(0.0994843 0.00114092 0)
(0.0995104 0.00107313 0)
(0.0995363 0.00100841 0)
(0.0995619 0.000946673 0)
(0.0995872 0.000887826 0)
(0.0996121 0.000831782 0)
(0.0996365 0.000778454 0)
(0.0996603 0.000727757 0)
(0.0996834 0.000679604 0)
(0.0997059 0.000633913 0)
(0.0997276 0.000590599 0)
(0.0997486 0.000549581 0)
(0.0997689 0.000510776 0)
(0.0997883 0.000474104 0)
(0.0998069 0.000439484 0)
(0.0998247 0.000406837 0)
(0.0998417 0.000376086 0)
(0.0998578 0.000347154 0)
(0.0998731 0.000319966 0)
(0.0998876 0.000294448 0)
(0.0999014 0.000270529 0)
(0.0999143 0.000248137 0)
(0.0999264 0.000227206 0)
(0.0999378 0.000207666 0)
(0.0999485 0.000189454 0)
(0.0999584 0.000172506 0)
(0.0999676 0.00015676 0)
(0.0999762 0.000142157 0)
(0.0999842 0.000128637 0)
(0.0999915 0.000116144 0)
(0.0999982 0.000104624 0)
(0.100004 9.4025e-05 0)
(0.10001 8.42954e-05 0)
(0.100015 7.53861e-05 0)
(0.10002 6.72519e-05 0)
(0.100024 5.98452e-05 0)
(0.100028 5.31291e-05 0)
(0.100031 4.70535e-05 0)
(0.100034 4.15983e-05 0)
(0.100037 3.66979e-05 0)
(0.100039 3.23699e-05 0)
(0.100042 2.85003e-05 0)
(0.100043 2.51954e-05 0)
(0.100045 2.22175e-05 0)
(0.100046 1.98744e-05 0)
(0.100048 1.76478e-05 0)
(0.100049 1.62662e-05 0)
(0.100051 1.46406e-05 0)
(0.10005 1.42994e-05 0)
(0.100054 1.31145e-05 0)
(0.100051 1.39795e-05 0)
(0.100058 1.30904e-05 0)
(0.100052 1.53997e-05 0)
(0.100062 1.47484e-05 0)
(0.100053 1.87461e-05 0)
(0.100067 1.85145e-05 0)
(0.100055 2.42573e-05 0)
(0.100075 2.52919e-05 0)
(0.100057 3.19704e-05 0)
(0.100087 3.70844e-05 0)
(0.100062 4.13093e-05 0)
(0.100104 5.65702e-05 0)
(0.100074 5.5011e-05 0)
(0.10012 7.88347e-05 0)
(0.100106 8.43322e-05 0)
(0.100146 0.000108889 0)
(0.0993188 0.001518 0)
(0.0993457 0.00143336 0)
(0.0993732 0.00135238 0)
(0.099401 0.00127493 0)
(0.099429 0.00120089 0)
(0.099457 0.00113016 0)
(0.0994848 0.00106263 0)
(0.0995124 0.000998209 0)
(0.0995397 0.0009368 0)
(0.0995665 0.000878308 0)
(0.0995928 0.000822637 0)
(0.0996186 0.000769695 0)
(0.0996436 0.000719392 0)
(0.099668 0.000671639 0)
(0.0996916 0.000626348 0)
(0.0997144 0.000583435 0)
(0.0997364 0.000542812 0)
(0.0997575 0.000504397 0)
(0.0997778 0.000468107 0)
(0.0997973 0.000433859 0)
(0.0998158 0.000401574 0)
(0.0998335 0.000371172 0)
(0.0998503 0.000342577 0)
(0.0998663 0.000315713 0)
(0.0998814 0.000290506 0)
(0.0998956 0.000266883 0)
(0.099909 0.000244774 0)
(0.0999217 0.00022411 0)
(0.0999335 0.000204824 0)
(0.0999445 0.000186852 0)
(0.0999549 0.00017013 0)
(0.0999645 0.000154596 0)
(0.0999734 0.00014019 0)
(0.0999816 0.000126856 0)
(0.0999892 0.000114536 0)
(0.0999962 0.000103177 0)
(0.100003 9.27256e-05 0)
(0.100008 8.31331e-05 0)
(0.100014 7.43499e-05 0)
(0.100019 6.63313e-05 0)
(0.100023 5.90302e-05 0)
(0.100027 5.24101e-05 0)
(0.10003 4.64217e-05 0)
(0.100034 4.10446e-05 0)
(0.100037 3.62146e-05 0)
(0.100039 3.19483e-05 0)
(0.100041 2.81343e-05 0)
(0.100043 2.48757e-05 0)
(0.100045 2.19408e-05 0)
(0.100046 1.96288e-05 0)
(0.100048 1.74355e-05 0)
(0.100049 1.60686e-05 0)
(0.100051 1.44702e-05 0)
(0.10005 1.41237e-05 0)
(0.100054 1.2965e-05 0)
(0.100051 1.37985e-05 0)
(0.100058 1.29416e-05 0)
(0.100052 1.51822e-05 0)
(0.100062 1.45786e-05 0)
(0.100054 1.84521e-05 0)
(0.100068 1.83025e-05 0)
(0.100055 2.3826e-05 0)
(0.100076 2.50218e-05 0)
(0.100058 3.13065e-05 0)
(0.100088 3.67125e-05 0)
(0.100063 4.0384e-05 0)
(0.100104 5.57274e-05 0)
(0.100076 5.41852e-05 0)
(0.100121 7.6892e-05 0)
(0.100108 8.29778e-05 0)
(0.100148 0.000106466 0)
(0.0992806 0.00150575 0)
(0.09931 0.00142111 0)
(0.0993397 0.00134022 0)
(0.0993697 0.00126293 0)
(0.0993997 0.00118911 0)
(0.0994296 0.00111865 0)
(0.0994593 0.00105144 0)
(0.0994886 0.000987367 0)
(0.0995175 0.000926336 0)
(0.0995459 0.000868243 0)
(0.0995736 0.000812986 0)
(0.0996007 0.000760469 0)
(0.099627 0.000710597 0)
(0.0996526 0.000663278 0)
(0.0996773 0.00061842 0)
(0.0997012 0.000575935 0)
(0.0997241 0.000535735 0)
(0.0997462 0.000497735 0)
(0.0997674 0.000461849 0)
(0.0997876 0.000427995 0)
(0.099807 0.000396091 0)
(0.0998254 0.000366057 0)
(0.0998429 0.000337817 0)
(0.0998594 0.000311292 0)
(0.0998751 0.000286409 0)
(0.0998899 0.000263096 0)
(0.0999038 0.000241282 0)
(0.0999169 0.000220897 0)
(0.0999292 0.000201876 0)
(0.0999406 0.000184153 0)
(0.0999513 0.000167665 0)
(0.0999612 0.000152351 0)
(0.0999705 0.000138152 0)
(0.099979 0.000125009 0)
(0.0999869 0.000112868 0)
(0.0999941 0.000101675 0)
(0.100001 9.13781e-05 0)
(0.100007 8.19274e-05 0)
(0.100012 7.32746e-05 0)
(0.100017 6.53756e-05 0)
(0.100022 5.81837e-05 0)
(0.100026 5.1663e-05 0)
(0.10003 4.57645e-05 0)
(0.100033 4.04682e-05 0)
(0.100036 3.57109e-05 0)
(0.100038 3.15084e-05 0)
(0.100041 2.77518e-05 0)
(0.100043 2.45412e-05 0)
(0.100045 2.16507e-05 0)
(0.100046 1.93712e-05 0)
(0.100048 1.72121e-05 0)
(0.100049 1.58609e-05 0)
(0.100051 1.42902e-05 0)
(0.10005 1.39393e-05 0)
(0.100055 1.28068e-05 0)
(0.100052 1.36095e-05 0)
(0.100058 1.27838e-05 0)
(0.100053 1.49569e-05 0)
(0.100063 1.4399e-05 0)
(0.100054 1.81502e-05 0)
(0.100069 1.80778e-05 0)
(0.100056 2.33879e-05 0)
(0.100077 2.47313e-05 0)
(0.100059 3.06429e-05 0)
(0.100089 3.63021e-05 0)
(0.100065 3.947e-05 0)
(0.100105 5.48457e-05 0)
(0.100078 5.33217e-05 0)
(0.100122 7.49827e-05 0)
(0.100109 8.15605e-05 0)
(0.100151 0.000104009 0)
(0.0992424 0.0014924 0)
(0.0992742 0.00140784 0)
(0.0993063 0.00132711 0)
(0.0993384 0.00125004 0)
(0.0993705 0.00117651 0)
(0.0994024 0.00110639 0)
(0.0994339 0.00103955 0)
(0.0994649 0.000975883 0)
(0.0994954 0.00091528 0)
(0.0995253 0.000857631 0)
(0.0995545 0.000802832 0)
(0.0995829 0.000750779 0)
(0.0996105 0.000701374 0)
(0.0996373 0.000654522 0)
(0.0996631 0.000610128 0)
(0.099688 0.000568101 0)
(0.099712 0.000528351 0)
(0.099735 0.00049079 0)
(0.099757 0.000455332 0)
(0.0997781 0.000421893 0)
(0.0997982 0.00039039 0)
(0.0998173 0.000360743 0)
(0.0998354 0.000332873 0)
(0.0998526 0.000306704 0)
(0.0998689 0.000282161 0)
(0.0998842 0.00025917 0)
(0.0998986 0.000237663 0)
(0.0999122 0.000217569 0)
(0.0999248 0.000198822 0)
(0.0999367 0.000181358 0)
(0.0999478 0.000165114 0)
(0.099958 0.000150028 0)
(0.0999676 0.000136042 0)
(0.0999764 0.000123098 0)
(0.0999845 0.000111143 0)
(0.099992 0.000100121 0)
(0.0999989 8.99829e-05 0)
(0.100005 8.06788e-05 0)
(0.100011 7.21608e-05 0)
(0.100016 6.43852e-05 0)
(0.100021 5.73061e-05 0)
(0.100025 5.08878e-05 0)
(0.100029 4.50822e-05 0)
(0.100032 3.98693e-05 0)
(0.100035 3.5187e-05 0)
(0.100038 3.10504e-05 0)
(0.100041 2.7353e-05 0)
(0.100042 2.41921e-05 0)
(0.100045 2.13475e-05 0)
(0.100046 1.91017e-05 0)
(0.100048 1.69777e-05 0)
(0.100049 1.56432e-05 0)
(0.100052 1.41007e-05 0)
(0.10005 1.37462e-05 0)
(0.100055 1.26398e-05 0)
(0.100052 1.34124e-05 0)
(0.100058 1.26173e-05 0)
(0.100053 1.47237e-05 0)
(0.100063 1.42096e-05 0)
(0.100055 1.78404e-05 0)
(0.100069 1.78406e-05 0)
(0.100057 2.29431e-05 0)
(0.100077 2.44206e-05 0)
(0.10006 2.99799e-05 0)
(0.100089 3.58541e-05 0)
(0.100067 3.85668e-05 0)
(0.100105 5.39264e-05 0)
(0.100081 5.24221e-05 0)
(0.100123 7.31053e-05 0)
(0.100111 8.00833e-05 0)
(0.100153 0.000101522 0)
(0.0992042 0.00147793 0)
(0.0992385 0.00139353 0)
(0.0992729 0.00131304 0)
(0.0993072 0.00123627 0)
(0.0993414 0.0011631 0)
(0.0993752 0.00109337 0)
(0.0994085 0.00102696 0)
(0.0994413 0.000963755 0)
(0.0994735 0.00090363 0)
(0.0995049 0.000846473 0)
(0.0995355 0.000792173 0)
(0.0995653 0.000740625 0)
(0.0995941 0.000691724 0)
(0.0996221 0.000645373 0)
(0.099649 0.000601475 0)
(0.099675 0.000559935 0)
(0.0996999 0.000520661 0)
(0.0997239 0.000483565 0)
(0.0997467 0.000448558 0)
(0.0997686 0.000415556 0)
(0.0997894 0.000384474 0)
(0.0998092 0.000355231 0)
(0.099828 0.000327749 0)
(0.0998458 0.000301951 0)
(0.0998627 0.000277761 0)
(0.0998785 0.000255107 0)
(0.0998934 0.000233918 0)
(0.0999074 0.000214126 0)
(0.0999205 0.000195665 0)
(0.0999328 0.000178469 0)
(0.0999442 0.000162476 0)
(0.0999548 0.000147627 0)
(0.0999647 0.000133861 0)
(0.0999738 0.000121123 0)
(0.0999822 0.000109359 0)
(0.0999899 9.85149e-05 0)
(0.099997 8.85406e-05 0)
(0.100003 7.93877e-05 0)
(0.100009 7.10087e-05 0)
(0.100015 6.33604e-05 0)
(0.10002 5.63975e-05 0)
(0.100024 5.00848e-05 0)
(0.100028 4.4375e-05 0)
(0.100031 3.92481e-05 0)
(0.100035 3.46432e-05 0)
(0.100037 3.05745e-05 0)
(0.10004 2.69382e-05 0)
(0.100042 2.38285e-05 0)
(0.100045 2.1031e-05 0)
(0.100046 1.88203e-05 0)
(0.100048 1.67324e-05 0)
(0.100049 1.54157e-05 0)
(0.100052 1.39018e-05 0)
(0.100051 1.35445e-05 0)
(0.100055 1.24641e-05 0)
(0.100052 1.32074e-05 0)
(0.100059 1.24421e-05 0)
(0.100053 1.44829e-05 0)
(0.100063 1.40105e-05 0)
(0.100055 1.75229e-05 0)
(0.10007 1.75909e-05 0)
(0.100057 2.24918e-05 0)
(0.100078 2.409e-05 0)
(0.100061 2.93173e-05 0)
(0.10009 3.53695e-05 0)
(0.100068 3.76736e-05 0)
(0.100106 5.2971e-05 0)
(0.100083 5.14878e-05 0)
(0.100124 7.1258e-05 0)
(0.100112 7.85491e-05 0)
(0.100155 9.90108e-05 0)
(0.099166 0.00146234 0)
(0.0992028 0.00137818 0)
(0.0992396 0.001298 0)
(0.0992761 0.00122162 0)
(0.0993124 0.00114886 0)
(0.0993482 0.00107959 0)
(0.0993834 0.00101368 0)
(0.0994179 0.000950984 0)
(0.0994517 0.000891387 0)
(0.0994846 0.000834768 0)
(0.0995166 0.000781012 0)
(0.0995478 0.000730008 0)
(0.0995779 0.000681649 0)
(0.099607 0.000635834 0)
(0.0996351 0.000592463 0)
(0.0996621 0.000551439 0)
(0.099688 0.000512669 0)
(0.0997128 0.000476063 0)
(0.0997366 0.00044153 0)
(0.0997592 0.000408985 0)
(0.0997808 0.000378344 0)