/*--------------------------------*- C++ -*----------------------------------*\
| =========                 |                                                 |
| \\      /  F ield         | OpenFOAM: The Open Source CFD Toolbox           |
|  \\    /   O peration     | Version:  2412                                  |
|   \\  /    A nd           | Website:  www.openfoam.com                      |
|    \\/     M anipulation  |                                                 |
\*---------------------------------------------------------------------------*/
FoamFile
{
    version     2.0;
    format      ascii;
    arch        "LSB;label=32;scalar=64";
    class       volVectorField;
    location    "24";
    object      vorticity;
}
// * * * * * * * * * * * * * * * * * * * * * * * * * * * * * * * * * * * * * //

dimensions      [0 0 -1 0 0 0 0];

internalField   nonuniform List<vector> 
5285
(
(0 -0 -1.74667e-05)
(0 -0 -2.04849e-05)
(0 -0 -2.34838e-05)
(0 -0 -2.63595e-05)
(0 -0 -2.89641e-05)
(0 -0 -3.12568e-05)
(0 -0 -3.32318e-05)
(0 -0 -3.49029e-05)
(0 -0 -3.62939e-05)
(0 -0 -3.74299e-05)
(0 -0 -3.83335e-05)
(0 -0 -3.9024e-05)
(0 -0 -3.95199e-05)
(0 -0 -3.98399e-05)
(0 -0 -4.00032e-05)
(0 -0 -4.0029e-05)
(0 -0 -3.99356e-05)
(0 -0 -3.97407e-05)
(0 -0 -3.94603e-05)
(0 -0 -3.91091e-05)
(0 -0 -3.86997e-05)
(0 -0 -3.82429e-05)
(0 -0 -3.77473e-05)
(0 -0 -3.72196e-05)
(0 -0 -3.66652e-05)
(0 -0 -3.60882e-05)
(0 -0 -3.54921e-05)
(0 -0 -3.48803e-05)
(0 -0 -3.4256e-05)
(0 -0 -3.3623e-05)
(0 -0 -3.29848e-05)
(0 -0 -3.2345e-05)
(0 -0 -3.17058e-05)
(0 -0 -3.10687e-05)
(0 -0 -3.04345e-05)
(0 -0 -2.98037e-05)
(0 -0 -2.91773e-05)
(0 -0 -2.85565e-05)
(0 -0 -2.79425e-05)
(0 -0 -2.7337e-05)
(0 -0 -2.67396e-05)
(0 -0 -2.61508e-05)
(0 -0 -2.55672e-05)
(0 -0 -2.49922e-05)
(0 -0 -2.44211e-05)
(0 -0 -2.38657e-05)
(0 -0 -2.33119e-05)
(0 -0 -2.2788e-05)
(0 -0 -2.22504e-05)
(0 -0 -2.17669e-05)
(0 -0 -2.12298e-05)
(0 -0 -2.07991e-05)
(0 -0 -2.02339e-05)
(0 -0 -1.98877e-05)
(0 -0 -1.92498e-05)
(0 -0 -1.90346e-05)
(0 -0 -1.82437e-05)
(0 -0 -1.82234e-05)
(0 -0 -1.71801e-05)
(0 -0 -1.74488e-05)
(0 -0 -1.60636e-05)
(0 -0 -1.66277e-05)
(0 -0 -1.5185e-05)
(0 -0 -1.46639e-05)
(0 -0 -1.73974e-05)
(0 -0 -6.05567e-06)
(0 -0 -2.71996e-05)
(0 -0 6.8754e-07)
(0 -0 -1.25451e-05)
(0 -0 -1.634e-05)
(0 -0 -2.67744e-05)
(0 -0 -1.56564e-05)
(0 -0 -1.84033e-05)
(0 -0 -2.11553e-05)
(0 -0 -2.38097e-05)
(0 -0 -2.62222e-05)
(0 -0 -2.835e-05)
(0 -0 -3.0186e-05)
(0 -0 -3.17421e-05)
(0 -0 -3.30399e-05)
(0 -0 -3.41025e-05)
(0 -0 -3.49502e-05)
(0 -0 -3.56005e-05)
(0 -0 -3.60702e-05)
(0 -0 -3.63766e-05)
(0 -0 -3.65376e-05)
(0 -0 -3.6571e-05)
(0 -0 -3.64941e-05)
(0 -0 -3.63232e-05)
(0 -0 -3.60734e-05)
(0 -0 -3.57584e-05)
(0 -0 -3.53898e-05)
(0 -0 -3.49775e-05)
(0 -0 -3.45296e-05)
(0 -0 -3.40524e-05)
(0 -0 -3.35507e-05)
(0 -0 -3.30285e-05)
(0 -0 -3.24889e-05)
(0 -0 -3.19351e-05)
(0 -0 -3.13701e-05)
(0 -0 -3.07972e-05)
(0 -0 -3.02199e-05)
(0 -0 -2.96411e-05)
(0 -0 -2.90631e-05)
(0 -0 -2.84872e-05)
(0 -0 -2.7914e-05)
(0 -0 -2.73442e-05)
(0 -0 -2.67786e-05)
(0 -0 -2.62184e-05)
(0 -0 -2.56646e-05)
(0 -0 -2.51187e-05)
(0 -0 -2.45803e-05)
(0 -0 -2.40499e-05)
(0 -0 -2.35243e-05)
(0 -0 -2.30067e-05)
(0 -0 -2.24925e-05)
(0 -0 -2.19932e-05)
(0 -0 -2.14946e-05)
(0 -0 -2.10244e-05)
(0 -0 -2.05398e-05)
(0 -0 -2.01072e-05)
(0 -0 -1.96216e-05)
(0 -0 -1.92392e-05)
(0 -0 -1.87251e-05)
(0 -0 -1.84237e-05)
(0 -0 -1.7838e-05)
(0 -0 -1.76631e-05)
(0 -0 -1.69291e-05)
(0 -0 -1.69427e-05)
(0 -0 -1.59658e-05)
(0 -0 -1.62567e-05)
(0 -0 -1.49523e-05)
(0 -0 -1.55342e-05)
(0 -0 -1.41255e-05)
(0 -0 -1.38885e-05)
(0 -0 -1.57496e-05)
(0 -0 -7.04883e-06)
(0 -0 -2.28872e-05)
(0 -0 -2.85333e-06)
(0 -0 -9.7665e-06)
(0 -0 -1.43166e-05)
(0 -0 -2.66036e-05)
(0 -0 -1.39284e-05)
(0 -0 -1.64055e-05)
(0 -0 -1.89102e-05)
(0 -0 -2.1347e-05)
(0 -0 -2.35697e-05)
(0 -0 -2.55346e-05)
(0 -0 -2.72331e-05)
(0 -0 -2.86752e-05)
(0 -0 -2.98805e-05)
(0 -0 -3.08699e-05)
(0 -0 -3.16616e-05)
(0 -0 -3.22714e-05)
(0 -0 -3.27143e-05)
(0 -0 -3.30063e-05)
(0 -0 -3.3164e-05)
(0 -0 -3.3204e-05)
(0 -0 -3.31423e-05)
(0 -0 -3.29943e-05)
(0 -0 -3.27739e-05)
(0 -0 -3.24936e-05)
(0 -0 -3.21643e-05)
(0 -0 -3.17951e-05)
(0 -0 -3.13934e-05)
(0 -0 -3.0965e-05)
(0 -0 -3.05145e-05)
(0 -0 -3.00454e-05)
(0 -0 -2.95607e-05)
(0 -0 -2.90632e-05)
(0 -0 -2.85558e-05)
(0 -0 -2.80414e-05)
(0 -0 -2.75232e-05)
(0 -0 -2.70038e-05)
(0 -0 -2.64854e-05)
(0 -0 -2.59689e-05)
(0 -0 -2.5455e-05)
(0 -0 -2.49445e-05)
(0 -0 -2.4438e-05)
(0 -0 -2.39367e-05)
(0 -0 -2.34414e-05)
(0 -0 -2.29534e-05)
(0 -0 -2.24724e-05)
(0 -0 -2.19986e-05)
(0 -0 -2.15293e-05)
(0 -0 -2.10675e-05)
(0 -0 -2.06085e-05)
(0 -0 -2.01637e-05)
(0 -0 -1.97188e-05)
(0 -0 -1.93007e-05)
(0 -0 -1.88675e-05)
(0 -0 -1.84842e-05)
(0 -0 -1.80485e-05)
(0 -0 -1.77128e-05)
(0 -0 -1.72485e-05)
(0 -0 -1.69904e-05)
(0 -0 -1.64555e-05)
(0 -0 -1.63193e-05)
(0 -0 -1.56408e-05)
(0 -0 -1.56871e-05)
(0 -0 -1.47751e-05)
(0 -0 -1.5087e-05)
(0 -0 -1.38623e-05)
(0 -0 -1.44598e-05)
(0 -0 -1.30881e-05)
(0 -0 -1.31179e-05)
(0 -0 -1.41576e-05)
(0 -0 -7.96278e-06)
(0 -0 -1.87653e-05)
(0 -0 -6.19486e-06)
(0 -0 -7.10479e-06)
(0 -0 -1.24052e-05)
(0 -0 -2.63827e-05)
(0 -0 -1.22739e-05)
(0 -0 -1.44856e-05)
(0 -0 -1.67516e-05)
(0 -0 -1.8977e-05)
(0 -0 -2.10154e-05)
(0 -0 -2.2822e-05)
(0 -0 -2.43869e-05)
(0 -0 -2.57181e-05)
(0 -0 -2.68333e-05)
(0 -0 -2.77512e-05)
(0 -0 -2.8488e-05)
(0 -0 -2.90578e-05)
(0 -0 -2.9474e-05)
(0 -0 -2.97514e-05)
(0 -0 -2.99051e-05)
(0 -0 -2.99507e-05)
(0 -0 -2.99032e-05)
(0 -0 -2.97767e-05)
(0 -0 -2.9584e-05)
(0 -0 -2.93367e-05)
(0 -0 -2.90449e-05)
(0 -0 -2.87168e-05)
(0 -0 -2.83593e-05)
(0 -0 -2.79776e-05)
(0 -0 -2.7576e-05)
(0 -0 -2.71578e-05)
(0 -0 -2.67257e-05)
(0 -0 -2.62822e-05)
(0 -0 -2.583e-05)
(0 -0 -2.53718e-05)
(0 -0 -2.49102e-05)
(0 -0 -2.44478e-05)
(0 -0 -2.39864e-05)
(0 -0 -2.35269e-05)
(0 -0 -2.307e-05)
(0 -0 -2.26163e-05)
(0 -0 -2.21665e-05)
(0 -0 -2.17216e-05)
(0 -0 -2.12824e-05)
(0 -0 -2.08499e-05)
(0 -0 -2.04238e-05)
(0 -0 -2.00044e-05)
(0 -0 -1.95889e-05)
(0 -0 -1.91805e-05)
(0 -0 -1.87745e-05)
(0 -0 -1.83817e-05)
(0 -0 -1.79881e-05)
(0 -0 -1.76199e-05)
(0 -0 -1.7236e-05)
(0 -0 -1.68998e-05)
(0 -0 -1.65119e-05)
(0 -0 -1.62209e-05)
(0 -0 -1.58041e-05)
(0 -0 -1.55872e-05)
(0 -0 -1.51011e-05)
(0 -0 -1.50018e-05)
(0 -0 -1.43769e-05)
(0 -0 -1.44536e-05)
(0 -0 -1.36048e-05)
(0 -0 -1.39356e-05)
(0 -0 -1.27891e-05)
(0 -0 -1.33991e-05)
(0 -0 -1.20683e-05)
(0 -0 -1.23421e-05)
(0 -0 -1.26249e-05)
(0 -0 -8.76242e-06)
(0 -0 -1.48764e-05)
(0 -0 -9.26297e-06)
(0 -0 -4.58158e-06)
(0 -0 -1.06191e-05)
(0 -0 -2.60788e-05)
(0 -0 -1.06839e-05)
(0 -0 -1.26417e-05)
(0 -0 -1.46792e-05)
(0 -0 -1.67025e-05)
(0 -0 -1.85646e-05)
(0 -0 -2.02199e-05)
(0 -0 -2.16571e-05)
(0 -0 -2.28824e-05)
(0 -0 -2.39113e-05)
(0 -0 -2.47607e-05)
(0 -0 -2.54448e-05)
(0 -0 -2.59759e-05)
(0 -0 -2.63662e-05)
(0 -0 -2.66291e-05)
(0 -0 -2.67786e-05)
(0 -0 -2.68293e-05)
(0 -0 -2.67948e-05)
(0 -0 -2.66884e-05)
(0 -0 -2.65218e-05)
(0 -0 -2.63058e-05)
(0 -0 -2.60493e-05)
(0 -0 -2.57601e-05)
(0 -0 -2.54443e-05)
(0 -0 -2.51069e-05)
(0 -0 -2.47517e-05)
(0 -0 -2.43816e-05)
(0 -0 -2.39993e-05)
(0 -0 -2.3607e-05)
(0 -0 -2.32072e-05)
(0 -0 -2.28021e-05)
(0 -0 -2.23943e-05)
(0 -0 -2.19859e-05)
(0 -0 -2.15785e-05)
(0 -0 -2.1173e-05)
(0 -0 -2.077e-05)
(0 -0 -2.03702e-05)
(0 -0 -1.99741e-05)
(0 -0 -1.95827e-05)
(0 -0 -1.91965e-05)
(0 -0 -1.88166e-05)
(0 -0 -1.84424e-05)
(0 -0 -1.80743e-05)
(0 -0 -1.77098e-05)
(0 -0 -1.73518e-05)
(0 -0 -1.69959e-05)
(0 -0 -1.66523e-05)
(0 -0 -1.63073e-05)
(0 -0 -1.59861e-05)
(0 -0 -1.56488e-05)
(0 -0 -1.5357e-05)
(0 -0 -1.50143e-05)
(0 -0 -1.47653e-05)
(0 -0 -1.43935e-05)
(0 -0 -1.42154e-05)
(0 -0 -1.37755e-05)
(0 -0 -1.37106e-05)
(0 -0 -1.31367e-05)
(0 -0 -1.32416e-05)
(0 -0 -1.24533e-05)
(0 -0 -1.28008e-05)
(0 -0 -1.17299e-05)
(0 -0 -1.23492e-05)
(0 -0 -1.10624e-05)
(0 -0 -1.15547e-05)
(0 -0 -1.11541e-05)
(0 -0 -9.42121e-06)
(0 -0 -1.12527e-05)
(0 -0 -1.20009e-05)
(0 -0 -2.21052e-06)
(0 -0 -8.96907e-06)
(0 -0 -2.56667e-05)
(0 -0 -9.15372e-06)
(0 -0 -1.08724e-05)
(0 -0 -1.26947e-05)
(0 -0 -1.45278e-05)
(0 -0 -1.62242e-05)
(0 -0 -1.77374e-05)
(0 -0 -1.90547e-05)
(0 -0 -2.01805e-05)
(0 -0 -2.11283e-05)
(0 -0 -2.19131e-05)
(0 -0 -2.25475e-05)
(0 -0 -2.30422e-05)
(0 -0 -2.3408e-05)
(0 -0 -2.36571e-05)
(0 -0 -2.38025e-05)
(0 -0 -2.38576e-05)
(0 -0 -2.38353e-05)
(0 -0 -2.37477e-05)
(0 -0 -2.36055e-05)
(0 -0 -2.34186e-05)
(0 -0 -2.31952e-05)
(0 -0 -2.29424e-05)
(0 -0 -2.26658e-05)
(0 -0 -2.23698e-05)
(0 -0 -2.20579e-05)
(0 -0 -2.17329e-05)
(0 -0 -2.13973e-05)
(0 -0 -2.10529e-05)
(0 -0 -2.07021e-05)
(0 -0 -2.03469e-05)
(0 -0 -1.99894e-05)
(0 -0 -1.96315e-05)
(0 -0 -1.92746e-05)
(0 -0 -1.89197e-05)
(0 -0 -1.85671e-05)
(0 -0 -1.82175e-05)
(0 -0 -1.78717e-05)
(0 -0 -1.75302e-05)
(0 -0 -1.71937e-05)
(0 -0 -1.68628e-05)
(0 -0 -1.65371e-05)
(0 -0 -1.6217e-05)
(0 -0 -1.58999e-05)
(0 -0 -1.5589e-05)
(0 -0 -1.52797e-05)
(0 -0 -1.4982e-05)
(0 -0 -1.46823e-05)
(0 -0 -1.4405e-05)
(0 -0 -1.41111e-05)
(0 -0 -1.38607e-05)
(0 -0 -1.35601e-05)
(0 -0 -1.33502e-05)
(0 -0 -1.30203e-05)
(0 -0 -1.28782e-05)
(0 -0 -1.24815e-05)
(0 -0 -1.24482e-05)
(0 -0 -1.19224e-05)
(0 -0 -1.20526e-05)
(0 -0 -1.13219e-05)
(0 -0 -1.16833e-05)
(0 -0 -1.06852e-05)
(0 -0 -1.13098e-05)
(0 -0 -1.00704e-05)
(0 -0 -1.07526e-05)
(0 -0 -9.74978e-06)
(0 -0 -9.92109e-06)
(0 -0 -7.92141e-06)
(0 -0 -1.4367e-05)
(0 -0 -6.59577e-09)
(0 -0 -7.46335e-06)
(0 -0 -2.51316e-05)
(0 -0 -7.68076e-06)
(0 -0 -9.17759e-06)
(0 -0 -1.08003e-05)
(0 -0 -1.24571e-05)
(0 -0 -1.40002e-05)
(0 -0 -1.53821e-05)
(0 -0 -1.65886e-05)
(0 -0 -1.76225e-05)
(0 -0 -1.84955e-05)
(0 -0 -1.92207e-05)
(0 -0 -1.98091e-05)
(0 -0 -2.02701e-05)
(0 -0 -2.06133e-05)
(0 -0 -2.08497e-05)
(0 -0 -2.09913e-05)
(0 -0 -2.10506e-05)
(0 -0 -2.10396e-05)
(0 -0 -2.09694e-05)
(0 -0 -2.08499e-05)
(0 -0 -2.069e-05)
(0 -0 -2.04974e-05)
(0 -0 -2.02784e-05)
(0 -0 -2.0038e-05)
(0 -0 -1.97804e-05)
(0 -0 -1.95088e-05)
(0 -0 -1.92256e-05)
(0 -0 -1.89331e-05)
(0 -0 -1.86332e-05)
(0 -0 -1.83277e-05)
(0 -0 -1.80186e-05)
(0 -0 -1.77076e-05)
(0 -0 -1.73965e-05)
(0 -0 -1.70864e-05)
(0 -0 -1.67781e-05)
(0 -0 -1.64721e-05)
(0 -0 -1.61691e-05)
(0 -0 -1.58696e-05)
(0 -0 -1.55743e-05)
(0 -0 -1.52835e-05)
(0 -0 -1.49979e-05)
(0 -0 -1.47169e-05)
(0 -0 -1.44409e-05)
(0 -0 -1.41676e-05)
(0 -0 -1.39001e-05)
(0 -0 -1.36337e-05)
(0 -0 -1.33783e-05)
(0 -0 -1.31203e-05)
(0 -0 -1.28833e-05)
(0 -0 -1.26293e-05)
(0 -0 -1.24169e-05)
(0 -0 -1.2155e-05)
(0 -0 -1.19809e-05)
(0 -0 -1.16898e-05)
(0 -0 -1.15804e-05)
(0 -0 -1.12238e-05)
(0 -0 -1.12191e-05)
(0 -0 -1.0738e-05)
(0 -0 -1.08907e-05)
(0 -0 -1.02139e-05)
(0 -0 -1.05866e-05)
(0 -0 -9.65771e-06)
(0 -0 -1.02838e-05)
(0 -0 -9.09424e-06)
(0 -0 -9.9369e-06)
(0 -0 -8.41649e-06)
(0 -0 -1.02535e-05)
(0 -0 -4.90091e-06)
(0 -0 -1.63378e-05)
(0 -0 2.02022e-06)
(0 -0 -6.10779e-06)
(0 -0 -2.44659e-05)
(0 -0 -6.26602e-06)
(0 -0 -7.55992e-06)
(0 -0 -9.00041e-06)
(0 -0 -1.04966e-05)
(0 -0 -1.19001e-05)
(0 -0 -1.31627e-05)
(0 -0 -1.42687e-05)
(0 -0 -1.52192e-05)
(0 -0 -1.60243e-05)
(0 -0 -1.66954e-05)
(0 -0 -1.72422e-05)
(0 -0 -1.76728e-05)
(0 -0 -1.79955e-05)
(0 -0 -1.82204e-05)
(0 -0 -1.83588e-05)
(0 -0 -1.84222e-05)
(0 -0 -1.84217e-05)
(0 -0 -1.83675e-05)
(0 -0 -1.8269e-05)
(0 -0 -1.81341e-05)
(0 -0 -1.79697e-05)
(0 -0 -1.77817e-05)
(0 -0 -1.75746e-05)
(0 -0 -1.73522e-05)
(0 -0 -1.71174e-05)
(0 -0 -1.68726e-05)
(0 -0 -1.66196e-05)
(0 -0 -1.63603e-05)
(0 -0 -1.60964e-05)
(0 -0 -1.58294e-05)
(0 -0 -1.5561e-05)
(0 -0 -1.52926e-05)
(0 -0 -1.50252e-05)
(0 -0 -1.47595e-05)
(0 -0 -1.4496e-05)
(0 -0 -1.42354e-05)
(0 -0 -1.39782e-05)
(0 -0 -1.3725e-05)
(0 -0 -1.34759e-05)
(0 -0 -1.32315e-05)
(0 -0 -1.29912e-05)
(0 -0 -1.27554e-05)
(0 -0 -1.25219e-05)
(0 -0 -1.22937e-05)
(0 -0 -1.20664e-05)
(0 -0 -1.18493e-05)
(0 -0 -1.16292e-05)
(0 -0 -1.14288e-05)
(0 -0 -1.12111e-05)
(0 -0 -1.10332e-05)
(0 -0 -1.08066e-05)
(0 -0 -1.06648e-05)
(0 -0 -1.04089e-05)
(0 -0 -1.0329e-05)
(0 -0 -1.00091e-05)
(0 -0 -1.00296e-05)
(0 -0 -9.58981e-06)
(0 -0 -9.76183e-06)
(0 -0 -9.13537e-06)
(0 -0 -9.51636e-06)
(0 -0 -8.6528e-06)
(0 -0 -9.27636e-06)
(0 -0 -8.13904e-06)
(0 -0 -9.11197e-06)
(0 -0 -7.15999e-06)
(0 -0 -1.04187e-05)
(0 -0 -2.20268e-06)
(0 -0 -1.79063e-05)
(0 -0 3.86141e-06)
(0 -0 -4.90591e-06)
(0 -0 -2.36709e-05)
(0 -0 -4.91296e-06)
(0 -0 -6.02401e-06)
(0 -0 -7.30079e-06)
(0 -0 -8.65293e-06)
(0 -0 -9.93167e-06)
(0 -0 -1.10877e-05)
(0 -0 -1.21039e-05)
(0 -0 -1.29801e-05)
(0 -0 -1.37246e-05)
(0 -0 -1.43477e-05)
(0 -0 -1.48575e-05)
(0 -0 -1.5261e-05)
(0 -0 -1.55656e-05)
(0 -0 -1.57806e-05)
(0 -0 -1.59164e-05)
(0 -0 -1.59837e-05)
(0 -0 -1.5993e-05)
(0 -0 -1.59537e-05)
(0 -0 -1.58742e-05)
(0 -0 -1.57621e-05)
(0 -0 -1.56235e-05)
(0 -0 -1.54637e-05)
(0 -0 -1.52869e-05)
(0 -0 -1.50964e-05)
(0 -0 -1.4895e-05)
(0 -0 -1.46848e-05)
(0 -0 -1.44676e-05)
(0 -0 -1.42451e-05)
(0 -0 -1.40187e-05)
(0 -0 -1.37898e-05)
(0 -0 -1.35599e-05)
(0 -0 -1.333e-05)
(0 -0 -1.31011e-05)
(0 -0 -1.28739e-05)
(0 -0 -1.26487e-05)
(0 -0 -1.24264e-05)
(0 -0 -1.22072e-05)
(0 -0 -1.19919e-05)
(0 -0 -1.17803e-05)
(0 -0 -1.1573e-05)
(0 -0 -1.13692e-05)
(0 -0 -1.11694e-05)
(0 -0 -1.09717e-05)
(0 -0 -1.07788e-05)
(0 -0 -1.05865e-05)
(0 -0 -1.04038e-05)
(0 -0 -1.02176e-05)
(0 -0 -1.005e-05)
(0 -0 -9.86487e-06)
(0 -0 -9.7178e-06)
(0 -0 -9.52283e-06)
(0 -0 -9.4099e-06)
(0 -0 -9.18577e-06)
(0 -0 -9.13186e-06)
(0 -0 -8.84514e-06)
(0 -0 -8.88777e-06)
(0 -0 -8.4856e-06)
(0 -0 -8.67375e-06)
(0 -0 -8.09377e-06)
(0 -0 -8.48015e-06)
(0 -0 -7.67785e-06)
(0 -0 -8.29496e-06)
(0 -0 -7.21168e-06)
(0 -0 -8.28529e-06)
(0 -0 -5.9863e-06)
(0 -0 -1.04248e-05)
(0 -0 1.69096e-07)
(0 -0 -1.90811e-05)
(0 -0 5.51114e-06)
(0 -0 -3.85875e-06)
(0 -0 -2.27559e-05)
(0 -0 -3.62721e-06)
(0 -0 -4.57584e-06)
(0 -0 -5.70775e-06)
(0 -0 -6.93288e-06)
(0 -0 -8.10183e-06)
(0 -0 -9.16426e-06)
(0 -0 -1.01019e-05)
(0 -0 -1.09129e-05)
(0 -0 -1.16045e-05)
(0 -0 -1.21855e-05)
(0 -0 -1.26631e-05)
(0 -0 -1.30431e-05)
(0 -0 -1.33322e-05)
(0 -0 -1.35388e-05)
(0 -0 -1.36726e-05)
(0 -0 -1.37439e-05)
(0 -0 -1.37622e-05)
(0 -0 -1.37364e-05)
(0 -0 -1.36744e-05)
(0 -0 -1.35829e-05)
(0 -0 -1.34675e-05)
(0 -0 -1.33331e-05)
(0 -0 -1.31834e-05)
(0 -0 -1.30216e-05)
(0 -0 -1.28501e-05)
(0 -0 -1.2671e-05)
(0 -0 -1.24858e-05)
(0 -0 -1.22961e-05)
(0 -0 -1.21032e-05)
(0 -0 -1.19084e-05)
(0 -0 -1.17127e-05)
(0 -0 -1.15172e-05)
(0 -0 -1.13227e-05)
(0 -0 -1.11297e-05)
(0 -0 -1.09387e-05)
(0 -0 -1.07503e-05)
(0 -0 -1.05651e-05)
(0 -0 -1.03833e-05)
(0 -0 -1.02051e-05)
(0 -0 -1.00306e-05)
(0 -0 -9.85922e-06)
(0 -0 -9.69147e-06)
(0 -0 -9.52535e-06)
(0 -0 -9.36383e-06)
(0 -0 -9.20254e-06)
(0 -0 -9.05026e-06)
(0 -0 -8.89406e-06)
(0 -0 -8.75542e-06)
(0 -0 -8.59911e-06)
(0 -0 -8.47924e-06)
(0 -0 -8.31235e-06)
(0 -0 -8.22474e-06)
(0 -0 -8.02884e-06)
(0 -0 -7.99761e-06)
(0 -0 -7.7406e-06)
(0 -0 -7.80205e-06)
(0 -0 -7.43396e-06)
(0 -0 -7.6351e-06)
(0 -0 -7.09775e-06)
(0 -0 -7.48662e-06)
(0 -0 -6.74146e-06)
(0 -0 -7.34836e-06)
(0 -0 -6.32044e-06)
(0 -0 -7.46651e-06)
(0 -0 -4.90127e-06)
(0 -0 -1.02866e-05)
(0 -0 2.21711e-06)
(0 -0 -1.98836e-05)
(0 -0 6.96643e-06)
(0 -0 -2.96478e-06)
(0 -0 -2.17363e-05)
(0 -0 -2.41605e-06)
(0 -0 -3.22241e-06)
(0 -0 -4.22811e-06)
(0 -0 -5.34306e-06)
(0 -0 -6.41706e-06)
(0 -0 -7.39877e-06)
(0 -0 -8.26867e-06)
(0 -0 -9.02373e-06)
(0 -0 -9.6699e-06)
(0 -0 -1.02149e-05)
(0 -0 -1.06648e-05)
(0 -0 -1.10248e-05)
(0 -0 -1.13008e-05)
(0 -0 -1.15005e-05)
(0 -0 -1.16331e-05)
(0 -0 -1.17082e-05)
(0 -0 -1.17349e-05)
(0 -0 -1.17215e-05)
(0 -0 -1.16751e-05)
(0 -0 -1.1602e-05)
(0 -0 -1.15074e-05)
(0 -0 -1.13955e-05)
(0 -0 -1.127e-05)
(0 -0 -1.11337e-05)
(0 -0 -1.09887e-05)
(0 -0 -1.0837e-05)
(0 -0 -1.06801e-05)
(0 -0 -1.05194e-05)
(0 -0 -1.03561e-05)
(0 -0 -1.01912e-05)
(0 -0 -1.00257e-05)
(0 -0 -9.86056e-06)
(0 -0 -9.69628e-06)
(0 -0 -9.53339e-06)
(0 -0 -9.3724e-06)
(0 -0 -9.21393e-06)
(0 -0 -9.05842e-06)
(0 -0 -8.90622e-06)
(0 -0 -8.75717e-06)
(0 -0 -8.61148e-06)
(0 -0 -8.46845e-06)
(0 -0 -8.32868e-06)
(0 -0 -8.19026e-06)
(0 -0 -8.05611e-06)
(0 -0 -7.92191e-06)
(0 -0 -7.79618e-06)
(0 -0 -7.66619e-06)
(0 -0 -7.5528e-06)
(0 -0 -7.42171e-06)
(0 -0 -7.32553e-06)
(0 -0 -7.18321e-06)
(0 -0 -7.11755e-06)
(0 -0 -6.94647e-06)
(0 -0 -6.93465e-06)
(0 -0 -6.70399e-06)
(0 -0 -6.7811e-06)
(0 -0 -6.4436e-06)
(0 -0 -6.65467e-06)
(0 -0 -6.15625e-06)
(0 -0 -6.54482e-06)
(0 -0 -5.85271e-06)
(0 -0 -6.44592e-06)
(0 -0 -5.47414e-06)
(0 -0 -6.66649e-06)
(0 -0 -3.91011e-06)
(0 -0 -1.00237e-05)
(0 -0 3.95027e-06)
(0 -0 -2.03459e-05)
(0 -0 8.22713e-06)
(0 -0 -2.21998e-06)
(0 -0 -2.06321e-05)
(0 -0 -1.28799e-06)
(0 -0 -1.97145e-06)
(0 -0 -2.8689e-06)
(0 -0 -3.88979e-06)
(0 -0 -4.88309e-06)
(0 -0 -5.79639e-06)
(0 -0 -6.60904e-06)
(0 -0 -7.31683e-06)
(0 -0 -7.92464e-06)
(0 -0 -8.43923e-06)
(0 -0 -8.86592e-06)
(0 -0 -9.20916e-06)
(0 -0 -9.47431e-06)
(0 -0 -9.66856e-06)
(0 -0 -9.80057e-06)
(0 -0 -9.87943e-06)
(0 -0 -9.91379e-06)
(0 -0 -9.91138e-06)
(0 -0 -9.87891e-06)
(0 -0 -9.82211e-06)
(0 -0 -9.74576e-06)
(0 -0 -9.65381e-06)
(0 -0 -9.5495e-06)
(0 -0 -9.43541e-06)
(0 -0 -9.31364e-06)
(0 -0 -9.18592e-06)
(0 -0 -9.05371e-06)
(0 -0 -8.91827e-06)
(0 -0 -8.7807e-06)
(0 -0 -8.64192e-06)
(0 -0 -8.50276e-06)
(0 -0 -8.36392e-06)
(0 -0 -8.22591e-06)
(0 -0 -8.08919e-06)
(0 -0 -7.95425e-06)
(0 -0 -7.82171e-06)
(0 -0 -7.69198e-06)
(0 -0 -7.56533e-06)
(0 -0 -7.44153e-06)
(0 -0 -7.32072e-06)
(0 -0 -7.2022e-06)
(0 -0 -7.08658e-06)
(0 -0 -6.97207e-06)
(0 -0 -6.86152e-06)
(0 -0 -6.7507e-06)
(0 -0 -6.64783e-06)
(0 -0 -6.54043e-06)
(0 -0 -6.44875e-06)
(0 -0 -6.3394e-06)
(0 -0 -6.26357e-06)
(0 -0 -6.14253e-06)
(0 -0 -6.09558e-06)
(0 -0 -5.94609e-06)
(0 -0 -5.95059e-06)
(0 -0 -5.74308e-06)
(0 -0 -5.83285e-06)
(0 -0 -5.52267e-06)
(0 -0 -5.74077e-06)
(0 -0 -5.27774e-06)
(0 -0 -5.66339e-06)
(0 -0 -5.02038e-06)
(0 -0 -5.59676e-06)
(0 -0 -4.68137e-06)
(0 -0 -5.8964e-06)
(0 -0 -3.01688e-06)
(0 -0 -9.65894e-06)
(0 -0 5.3829e-06)
(0 -0 -2.05074e-05)
(0 -0 9.29594e-06)
(0 -0 -1.61792e-06)
(0 -0 -1.94666e-05)
(0 -0 -2.52614e-07)
(0 -0 -8.31281e-07)
(0 -0 -1.6372e-06)
(0 -0 -2.57905e-06)
(0 -0 -3.5049e-06)
(0 -0 -4.36119e-06)
(0 -0 -5.1262e-06)
(0 -0 -5.79471e-06)
(0 -0 -6.37066e-06)
(0 -0 -6.86001e-06)
(0 -0 -7.26746e-06)
(0 -0 -7.59687e-06)
(0 -0 -7.85315e-06)
(0 -0 -8.04307e-06)
(0 -0 -8.17488e-06)
(0 -0 -8.25727e-06)
(0 -0 -8.29847e-06)
(0 -0 -8.30576e-06)
(0 -0 -8.28546e-06)
(0 -0 -8.24286e-06)
(0 -0 -8.18239e-06)
(0 -0 -8.10767e-06)
(0 -0 -8.0217e-06)
(0 -0 -7.92683e-06)
(0 -0 -7.82504e-06)
(0 -0 -7.71797e-06)
(0 -0 -7.60697e-06)
(0 -0 -7.49324e-06)
(0 -0 -7.37777e-06)
(0 -0 -7.26139e-06)
(0 -0 -7.14479e-06)
(0 -0 -7.02854e-06)
(0 -0 -6.91305e-06)
(0 -0 -6.79875e-06)
(0 -0 -6.68612e-06)
(0 -0 -6.57575e-06)
(0 -0 -6.46805e-06)
(0 -0 -6.36322e-06)
(0 -0 -6.26095e-06)
(0 -0 -6.16134e-06)
(0 -0 -6.0637e-06)
(0 -0 -5.96864e-06)
(0 -0 -5.87447e-06)
(0 -0 -5.78402e-06)
(0 -0 -5.69309e-06)
(0 -0 -5.60963e-06)
(0 -0 -5.52142e-06)
(0 -0 -5.44814e-06)
(0 -0 -5.35731e-06)
(0 -0 -5.29871e-06)
(0 -0 -5.19587e-06)
(0 -0 -5.16464e-06)
(0 -0 -5.03373e-06)
(0 -0 -5.05165e-06)
(0 -0 -4.86433e-06)
(0 -0 -4.96397e-06)
(0 -0 -4.67807e-06)
(0 -0 -4.90049e-06)
(0 -0 -4.4696e-06)
(0 -0 -4.84989e-06)
(0 -0 -4.25228e-06)
(0 -0 -4.80905e-06)
(0 -0 -3.94981e-06)
(0 -0 -5.1668e-06)
(0 -0 -2.22412e-06)
(0 -0 -9.21651e-06)
(0 -0 6.53378e-06)
(0 -0 -2.04119e-05)
(0 -0 1.01782e-05)
(0 -0 -1.15001e-06)
(0 -0 -1.82641e-05)
(0 -0 6.79698e-07)
(0 -0 1.89443e-07)
(0 -0 -5.40093e-07)
(0 -0 -1.4165e-06)
(0 -0 -2.28674e-06)
(0 -0 -3.0962e-06)
(0 -0 -3.82212e-06)
(0 -0 -4.45839e-06)
(0 -0 -5.00817e-06)
(0 -0 -5.47675e-06)
(0 -0 -5.86831e-06)
(0 -0 -6.1863e-06)
(0 -0 -6.43527e-06)
(0 -0 -6.62169e-06)
(0 -0 -6.75347e-06)
(0 -0 -6.83895e-06)
(0 -0 -6.88603e-06)
(0 -0 -6.90162e-06)
(0 -0 -6.89168e-06)
(0 -0 -6.86117e-06)
(0 -0 -6.8142e-06)
(0 -0 -6.75412e-06)
(0 -0 -6.68368e-06)
(0 -0 -6.60511e-06)
(0 -0 -6.52023e-06)
(0 -0 -6.4306e-06)
(0 -0 -6.33752e-06)
(0 -0 -6.24211e-06)
(0 -0 -6.1453e-06)
(0 -0 -6.04783e-06)
(0 -0 -5.95027e-06)
(0 -0 -5.85308e-06)
(0 -0 -5.7566e-06)
(0 -0 -5.6612e-06)
(0 -0 -5.56737e-06)
(0 -0 -5.47568e-06)
(0 -0 -5.38651e-06)
(0 -0 -5.30002e-06)
(0 -0 -5.21584e-06)
(0 -0 -5.13402e-06)
(0 -0 -5.05388e-06)
(0 -0 -4.97607e-06)
(0 -0 -4.89898e-06)
(0 -0 -4.82537e-06)
(0 -0 -4.75111e-06)
(0 -0 -4.68391e-06)
(0 -0 -4.61176e-06)
(0 -0 -4.55385e-06)
(0 -0 -4.47858e-06)
(0 -0 -4.43435e-06)
(0 -0 -4.34689e-06)
(0 -0 -4.32863e-06)
(0 -0 -4.21356e-06)
(0 -0 -4.24226e-06)
(0 -0 -4.07244e-06)
(0 -0 -4.17939e-06)
(0 -0 -3.91502e-06)
(0 -0 -4.13927e-06)
(0 -0 -3.7376e-06)
(0 -0 -4.11029e-06)
(0 -0 -3.55471e-06)
(0 -0 -4.08947e-06)
(0 -0 -3.28572e-06)
(0 -0 -4.487e-06)
(0 -0 -1.53266e-06)
(0 -0 -8.72047e-06)
(0 -0 7.42509e-06)
(0 -0 -2.01051e-05)
(0 -0 1.08817e-05)
(0 -0 -8.05753e-07)
(0 -0 -1.7049e-05)
(0 -0 1.49842e-06)
(0 -0 1.08219e-06)
(0 -0 4.15675e-07)
(0 -0 -4.07114e-07)
(0 -0 -1.232e-06)
(0 -0 -2.00332e-06)
(0 -0 -2.69743e-06)
(0 -0 -3.30739e-06)
(0 -0 -3.83571e-06)
(0 -0 -4.28713e-06)
(0 -0 -4.66544e-06)
(0 -0 -4.97382e-06)
(0 -0 -5.21657e-06)
(0 -0 -5.39991e-06)
(0 -0 -5.53148e-06)
(0 -0 -5.61935e-06)
(0 -0 -5.67115e-06)
(0 -0 -5.6935e-06)
(0 -0 -5.69204e-06)
(0 -0 -5.67148e-06)
(0 -0 -5.63562e-06)
(0 -0 -5.58761e-06)
(0 -0 -5.53001e-06)
(0 -0 -5.46488e-06)
(0 -0 -5.39396e-06)
(0 -0 -5.31872e-06)
(0 -0 -5.24044e-06)
(0 -0 -5.16015e-06)
(0 -0 -5.07876e-06)
(0 -0 -4.99692e-06)
(0 -0 -4.9151e-06)
(0 -0 -4.83369e-06)
(0 -0 -4.75294e-06)
(0 -0 -4.6732e-06)
(0 -0 -4.59494e-06)
(0 -0 -4.51871e-06)
(0 -0 -4.44486e-06)
(0 -0 -4.37351e-06)
(0 -0 -4.30425e-06)
(0 -0 -4.2371e-06)
(0 -0 -4.17138e-06)
(0 -0 -4.10779e-06)
(0 -0 -4.0448e-06)
(0 -0 -3.98508e-06)
(0 -0 -3.9246e-06)
(0 -0 -3.87077e-06)
(0 -0 -3.81187e-06)
(0 -0 -3.76659e-06)
(0 -0 -3.70419e-06)
(0 -0 -3.67175e-06)
(0 -0 -3.59714e-06)
(0 -0 -3.58939e-06)
(0 -0 -3.48771e-06)
(0 -0 -3.52481e-06)
(0 -0 -3.37008e-06)
(0 -0 -3.48202e-06)
(0 -0 -3.23679e-06)
(0 -0 -3.46058e-06)
(0 -0 -3.08559e-06)
(0 -0 -3.44863e-06)
(0 -0 -2.93212e-06)
(0 -0 -3.44276e-06)
(0 -0 -2.69355e-06)
(0 -0 -3.86447e-06)
(0 -0 -9.41485e-07)
(0 -0 -8.19349e-06)
(0 -0 8.0813e-06)
(0 -0 -1.96317e-05)
(0 -0 1.14163e-05)
(0 -0 -5.73233e-07)
(0 -0 -1.58443e-05)
(0 -0 2.19419e-06)
(0 -0 1.83947e-06)
(0 -0 1.22455e-06)
(0 -0 4.45506e-07)
(0 -0 -3.4247e-07)
(0 -0 -1.08278e-06)
(0 -0 -1.75092e-06)
(0 -0 -2.33929e-06)
(0 -0 -2.84978e-06)
(0 -0 -3.28675e-06)
(0 -0 -3.65372e-06)
(0 -0 -3.95366e-06)
(0 -0 -4.1907e-06)
(0 -0 -4.37092e-06)
(0 -0 -4.50175e-06)
(0 -0 -4.59103e-06)
(0 -0 -4.64619e-06)
(0 -0 -4.67361e-06)
(0 -0 -4.67866e-06)
(0 -0 -4.66584e-06)
(0 -0 -4.63874e-06)
(0 -0 -4.60026e-06)
(0 -0 -4.55284e-06)
(0 -0 -4.49843e-06)
(0 -0 -4.43863e-06)
(0 -0 -4.37489e-06)
(0 -0 -4.30845e-06)
(0 -0 -4.24029e-06)
(0 -0 -4.17128e-06)
(0 -0 -4.10203e-06)
(0 -0 -4.0329e-06)
(0 -0 -3.96424e-06)
(0 -0 -3.89621e-06)
(0 -0 -3.82914e-06)
(0 -0 -3.76348e-06)
(0 -0 -3.69977e-06)
(0 -0 -3.63831e-06)
(0 -0 -3.57919e-06)
(0 -0 -3.52198e-06)
(0 -0 -3.46668e-06)
(0 -0 -3.41262e-06)
(0 -0 -3.36053e-06)
(0 -0 -3.30895e-06)
(0 -0 -3.2605e-06)
(0 -0 -3.21118e-06)
(0 -0 -3.16818e-06)
(0 -0 -3.12e-06)
(0 -0 -3.0849e-06)
(0 -0 -3.03299e-06)
(0 -0 -3.01007e-06)
(0 -0 -2.94604e-06)
(0 -0 -2.94663e-06)
(0 -0 -2.85616e-06)
(0 -0 -2.89956e-06)
(0 -0 -2.75783e-06)
(0 -0 -2.87268e-06)
(0 -0 -2.64453e-06)
(0 -0 -2.86581e-06)
(0 -0 -2.51536e-06)
(0 -0 -2.86688e-06)
(0 -0 -2.3869e-06)
(0 -0 -2.87159e-06)
(0 -0 -2.1758e-06)
(0 -0 -3.30459e-06)
(0 -0 -4.47814e-07)
(0 -0 -7.65585e-06)
(0 -0 8.52813e-06)
(0 -0 -1.90339e-05)
(0 -0 1.17933e-05)
(0 -0 -4.39521e-07)
(0 -0 -1.46706e-05)
(0 -0 2.76074e-06)
(0 -0 2.45638e-06)
(0 -0 1.88362e-06)
(0 -0 1.14052e-06)
(0 -0 3.82864e-07)
(0 -0 -3.31924e-07)
(0 -0 -9.78576e-07)
(0 -0 -1.54885e-06)
(0 -0 -2.04416e-06)
(0 -0 -2.46853e-06)
(0 -0 -2.82533e-06)
(0 -0 -3.11738e-06)
(0 -0 -3.34871e-06)
(0 -0 -3.52536e-06)
(0 -0 -3.65458e-06)
(0 -0 -3.74404e-06)
(0 -0 -3.80103e-06)
(0 -0 -3.83171e-06)
(0 -0 -3.84125e-06)
(0 -0 -3.83397e-06)
(0 -0 -3.81327e-06)
(0 -0 -3.78186e-06)
(0 -0 -3.74208e-06)
(0 -0 -3.69578e-06)
(0 -0 -3.64442e-06)
(0 -0 -3.58946e-06)
(0 -0 -3.53213e-06)
(0 -0 -3.4733e-06)
(0 -0 -3.41387e-06)
(0 -0 -3.3544e-06)
(0 -0 -3.29516e-06)
(0 -0 -3.23649e-06)
(0 -0 -3.17845e-06)
(0 -0 -3.12132e-06)
(0 -0 -3.06562e-06)
(0 -0 -3.01176e-06)
(0 -0 -2.96005e-06)
(0 -0 -2.91057e-06)
(0 -0 -2.86283e-06)
(0 -0 -2.81688e-06)
(0 -0 -2.77201e-06)
(0 -0 -2.72902e-06)
(0 -0 -2.68649e-06)
(0 -0 -2.64697e-06)
(0 -0 -2.60653e-06)
(0 -0 -2.57208e-06)
(0 -0 -2.53243e-06)
(0 -0 -2.50539e-06)
(0 -0 -2.46186e-06)
(0 -0 -2.44646e-06)
(0 -0 -2.39106e-06)
(0 -0 -2.39807e-06)
(0 -0 -2.31694e-06)
(0 -0 -2.36478e-06)
(0 -0 -2.23427e-06)
(0 -0 -2.35019e-06)
(0 -0 -2.13741e-06)
(0 -0 -2.35432e-06)
(0 -0 -2.02664e-06)
(0 -0 -2.36499e-06)
(0 -0 -1.91939e-06)
(0 -0 -2.37657e-06)
(0 -0 -1.733e-06)
(0 -0 -2.81058e-06)
(0 -0 -4.72687e-08)
(0 -0 -7.12482e-06)
(0 -0 8.79154e-06)
(0 -0 -1.83498e-05)
(0 -0 1.20255e-05)
(0 -0 -3.91153e-07)
(0 -0 -1.35454e-05)
(0 -0 3.28469e-06)
(0 -0 3.01967e-06)
(0 -0 2.4788e-06)
(0 -0 1.7629e-06)
(0 -0 1.02753e-06)
(0 -0 3.30955e-07)
(0 -0 -3.00746e-07)
(0 -0 -8.58682e-07)
(0 -0 -1.34386e-06)
(0 -0 -1.75999e-06)
(0 -0 -2.11036e-06)
(0 -0 -2.39768e-06)
(0 -0 -2.62593e-06)
(0 -0 -2.80125e-06)
(0 -0 -2.93068e-06)
(0 -0 -3.02171e-06)
(0 -0 -3.08159e-06)
(0 -0 -3.11632e-06)
(0 -0 -3.13086e-06)
(0 -0 -3.12938e-06)
(0 -0 -3.11518e-06)
(0 -0 -3.0907e-06)
(0 -0 -3.05824e-06)
(0 -0 -3.01967e-06)
(0 -0 -2.97615e-06)
(0 -0 -2.92926e-06)
(0 -0 -2.88026e-06)
(0 -0 -2.82982e-06)
(0 -0 -2.77894e-06)
(0 -0 -2.72813e-06)
(0 -0 -2.6776e-06)
(0 -0 -2.62771e-06)
(0 -0 -2.57837e-06)
(0 -0 -2.52984e-06)
(0 -0 -2.48273e-06)
(0 -0 -2.43733e-06)
(0 -0 -2.39388e-06)
(0 -0 -2.35255e-06)
(0 -0 -2.31278e-06)
(0 -0 -2.27462e-06)
(0 -0 -2.23744e-06)
(0 -0 -2.20196e-06)
(0 -0 -2.16694e-06)
(0 -0 -2.13476e-06)
(0 -0 -2.10165e-06)
(0 -0 -2.07414e-06)
(0 -0 -2.04146e-06)
(0 -0 -2.02088e-06)
(0 -0 -1.98418e-06)
(0 -0 -1.97476e-06)
(0 -0 -1.92647e-06)
(0 -0 -1.93844e-06)
(0 -0 -1.86502e-06)
(0 -0 -1.91602e-06)
(0 -0 -1.79482e-06)
(0 -0 -1.91087e-06)
(0 -0 -1.71104e-06)
(0 -0 -1.92327e-06)
(0 -0 -1.61491e-06)
(0 -0 -1.94089e-06)
(0 -0 -1.52463e-06)
(0 -0 -1.95623e-06)
(0 -0 -1.36384e-06)
(0 -0 -2.38353e-06)
(0 -0 2.65902e-07)
(0 -0 -6.61436e-06)
(0 -0 8.89693e-06)
(0 -0 -1.76121e-05)
(0 -0 1.21261e-05)
(0 -0 -4.1457e-07)
(0 -0 -1.24828e-05)
(0 -0 3.83684e-06)
(0 -0 3.59837e-06)
(0 -0 3.07741e-06)
(0 -0 2.37804e-06)
(0 -0 1.65433e-06)
(0 -0 9.65891e-07)
(0 -0 3.3977e-07)
(0 -0 -2.14381e-07)
(0 -0 -6.97212e-07)
(0 -0 -1.11213e-06)
(0 -0 -1.4624e-06)
(0 -0 -1.75067e-06)
(0 -0 -1.9808e-06)
(0 -0 -2.15935e-06)
(0 -0 -2.29297e-06)
(0 -0 -2.38901e-06)
(0 -0 -2.45481e-06)
(0 -0 -2.49624e-06)
(0 -0 -2.51807e-06)
(0 -0 -2.52426e-06)
(0 -0 -2.51823e-06)
(0 -0 -2.50197e-06)
(0 -0 -2.4779e-06)
(0 -0 -2.44795e-06)
(0 -0 -2.41283e-06)
(0 -0 -2.37445e-06)
(0 -0 -2.33405e-06)
(0 -0 -2.29202e-06)
(0 -0 -2.24959e-06)
(0 -0 -2.20721e-06)
(0 -0 -2.16502e-06)
(0 -0 -2.12345e-06)
(0 -0 -2.08225e-06)
(0 -0 -2.04161e-06)
(0 -0 -2.00239e-06)
(0 -0 -1.96464e-06)
(0 -0 -1.92851e-06)
(0 -0 -1.8944e-06)
(0 -0 -1.86157e-06)
(0 -0 -1.83016e-06)
(0 -0 -1.79961e-06)
(0 -0 -1.77051e-06)
(0 -0 -1.74187e-06)
(0 -0 -1.71583e-06)
(0 -0 -1.68887e-06)
(0 -0 -1.66702e-06)
(0 -0 -1.64012e-06)
(0 -0 -1.62477e-06)
(0 -0 -1.59366e-06)
(0 -0 -1.58899e-06)
(0 -0 -1.54656e-06)
(0 -0 -1.56228e-06)
(0 -0 -1.49522e-06)
(0 -0 -1.54838e-06)
(0 -0 -1.43481e-06)
(0 -0 -1.55034e-06)
(0 -0 -1.36128e-06)
(0 -0 -1.56874e-06)
(0 -0 -1.27653e-06)
(0 -0 -1.59119e-06)
(0 -0 -1.19951e-06)
(0 -0 -1.60739e-06)
(0 -0 -1.06044e-06)
(0 -0 -2.02225e-06)
(0 -0 5.04629e-07)
(0 -0 -6.13362e-06)
(0 -0 8.87631e-06)
(0 -0 -1.68446e-05)
(0 -0 1.21186e-05)
(0 -0 -4.88837e-07)
(0 -0 -1.14801e-05)
(0 -0 4.44051e-06)
(0 -0 4.21423e-06)
(0 -0 3.70361e-06)
(0 -0 3.01006e-06)
(0 -0 2.28773e-06)
(0 -0 1.59721e-06)
(0 -0 9.66911e-07)
(0 -0 4.07531e-07)
(0 -0 -8.09807e-08)
(0 -0 -5.02265e-07)
(0 -0 -8.58728e-07)
(0 -0 -1.15418e-06)
(0 -0 -1.39235e-06)
(0 -0 -1.57863e-06)
(0 -0 -1.72071e-06)
(0 -0 -1.82642e-06)
(0 -0 -1.90167e-06)
(0 -0 -1.95256e-06)
(0 -0 -1.98463e-06)
(0 -0 -2.00078e-06)
(0 -0 -2.00446e-06)
(0 -0 -1.99877e-06)
(0 -0 -1.98473e-06)
(0 -0 -1.96407e-06)
(0 -0 -1.93898e-06)
(0 -0 -1.9101e-06)
(0 -0 -1.87838e-06)
(0 -0 -1.84568e-06)
(0 -0 -1.81218e-06)
(0 -0 -1.77823e-06)
(0 -0 -1.74471e-06)
(0 -0 -1.71098e-06)
(0 -0 -1.67769e-06)
(0 -0 -1.6453e-06)
(0 -0 -1.61304e-06)
(0 -0 -1.58253e-06)
(0 -0 -1.55371e-06)
(0 -0 -1.52566e-06)
(0 -0 -1.49939e-06)
(0 -0 -1.4739e-06)
(0 -0 -1.44887e-06)
(0 -0 -1.42581e-06)
(0 -0 -1.40231e-06)
(0 -0 -1.38188e-06)
(0 -0 -1.3599e-06)
(0 -0 -1.34312e-06)
(0 -0 -1.32074e-06)
(0 -0 -1.30969e-06)
(0 -0 -1.28328e-06)
(0 -0 -1.28236e-06)
(0 -0 -1.24471e-06)
(0 -0 -1.26325e-06)
(0 -0 -1.20166e-06)
(0 -0 -1.25602e-06)
(0 -0 -1.14878e-06)
(0 -0 -1.26338e-06)
(0 -0 -1.08279e-06)
(0 -0 -1.28597e-06)
(0 -0 -1.00671e-06)
(0 -0 -1.31131e-06)
(0 -0 -9.39556e-07)
(0 -0 -1.32702e-06)
(0 -0 -8.19112e-07)
(0 -0 -1.72433e-06)
(0 -0 6.76308e-07)
(0 -0 -5.68992e-06)
(0 -0 8.75201e-06)
(0 -0 -1.6069e-05)
(0 -0 1.20164e-05)
(0 -0 -6.01108e-07)
(0 -0 -1.05417e-05)
(0 -0 -6.34354e-07)
(0 -0 -1.48647e-06)
(0 -0 7.89081e-07)
(0 -0 -5.28782e-06)
(0 -0 8.54398e-06)
(0 -0 -1.5301e-05)
(0 -0 1.18326e-05)
(0 -0 -7.39595e-07)
(0 -0 -9.66971e-06)
(0 -0 -2.80348e-06)
(0 -0 -2.94749e-06)
(0 -0 -3.07342e-06)
(0 -0 -3.18035e-06)
(0 -0 -3.27e-06)
(0 -0 -3.34347e-06)
(0 -0 -3.40215e-06)
(0 -0 -3.44743e-06)
(0 -0 -3.4807e-06)
(0 -0 -3.50329e-06)
(0 -0 -3.5164e-06)
(0 -0 -3.52113e-06)
(0 -0 -3.51847e-06)
(0 -0 -3.50932e-06)
(0 -0 -3.49445e-06)
(0 -0 -3.47457e-06)
(0 -0 -3.45031e-06)
(0 -0 -3.42226e-06)
(0 -0 -3.3909e-06)
(0 -0 -3.35667e-06)
(0 -0 -3.31996e-06)
(0 -0 -3.28108e-06)
(0 -0 -3.24033e-06)
(0 -0 -3.198e-06)
(0 -0 -3.15439e-06)
(0 -0 -3.10979e-06)
(0 -0 -3.06442e-06)
(0 -0 -3.01843e-06)
(0 -0 -2.97194e-06)
(0 -0 -2.92502e-06)
(0 -0 -2.87776e-06)
(0 -0 -2.83026e-06)
(0 -0 -2.78264e-06)
(0 -0 -2.73502e-06)
(0 -0 -2.68754e-06)
(0 -0 -2.6403e-06)
(0 -0 -2.59336e-06)