/*--------------------------------*- C++ -*----------------------------------*\
| =========                 |                                                 |
| \\      /  F ield         | OpenFOAM: The Open Source CFD Toolbox           |
|  \\    /   O peration     | Version:  2412                                  |
|   \\  /    A nd           | Website:  www.openfoam.com                      |
|    \\/     M anipulation  |                                                 |
\*---------------------------------------------------------------------------*/
FoamFile
{
    version     2.0;
    format      ascii;
    arch        "LSB;label=32;scalar=64";
    class       surfaceScalarField;
    location    "12";
    object      phi;
}
// * * * * * * * * * * * * * * * * * * * * * * * * * * * * * * * * * * * * * //

dimensions      [0 3 -1 0 0 0 0];

oriented        oriented;

internalField   nonuniform List<scalar> 
10424
(
0.00500289
-3.03383e-06
-7.58277e-10
0.00500579
-2.90273e-06
-9.48294e-10
0.00500857
-2.77543e-06
-1.13253e-09
0.00501122
-2.65194e-06
-1.31889e-09
0.00501376
-2.53224e-06
-1.51208e-09
0.00501617
-2.41627e-06
-1.719e-09
0.00501848
-2.30396e-06
-1.9444e-09
0.00502068
-2.19524e-06
-2.19615e-09
0.00502277
-2.09004e-06
-2.47411e-09
0.00502476
-1.98828e-06
-2.7752e-09
0.00502665
-1.8899e-06
-3.088e-09
0.00502845
-1.79486e-06
-3.39497e-09
0.00503016
-1.70308e-06
-3.6775e-09
0.00503178
-1.61453e-06
-3.91863e-09
0.00503331
-1.52911e-06
-4.11149e-09
0.00503476
-1.44678e-06
-4.26146e-09
0.00503613
-1.36743e-06
-4.388e-09
0.00503743
-1.29098e-06
-4.51464e-09
0.00503865
-1.21737e-06
-4.65828e-09
0.0050398
-1.14654e-06
-4.811e-09
0.00504089
-1.07847e-06
-4.93429e-09
0.0050419
-1.01316e-06
-4.98372e-09
0.00504286
-9.50579e-07
-4.93599e-09
0.00504376
-8.90655e-07
-4.80709e-09
0.00504459
-8.33284e-07
-4.65489e-09
0.00504538
-7.7833e-07
-4.57527e-09
0.00504611
-7.25671e-07
-4.64826e-09
0.00504679
-6.75258e-07
-4.87698e-09
0.00504742
-6.2714e-07
-5.15985e-09
0.00504801
-5.81376e-07
-5.38835e-09
0.00504855
-5.38041e-07
-5.44105e-09
0.00504905
-4.97127e-07
-5.28569e-09
0.00504951
-4.58589e-07
-4.94312e-09
0.00504994
-4.22282e-07
-4.53064e-09
0.00505033
-3.88068e-07
-4.15187e-09
0.00505069
-3.55834e-07
-3.87944e-09
0.00505102
-3.25518e-07
-3.73014e-09
0.00505132
-2.97057e-07
-3.72551e-09
0.0050516
-2.70531e-07
-3.76055e-09
0.00505185
-2.4599e-07
-3.7649e-09
0.00505207
-2.23452e-07
-3.68813e-09
0.00505228
-2.0291e-07
-3.51431e-09
0.00505247
-1.84302e-07
-3.3201e-09
0.00505264
-1.67504e-07
-3.24945e-09
0.0050528
-1.52538e-07
-3.2833e-09
0.00505294
-1.39427e-07
-3.44883e-09
0.00505307
-1.28314e-07
-3.54095e-09
0.00505319
-1.19331e-07
-3.63594e-09
0.00505331
-1.12421e-07
-3.54745e-09
0.00505342
-1.08246e-07
-3.39911e-09
0.00505353
-1.05714e-07
-3.08565e-09
0.00505364
-1.07454e-07
-2.67365e-09
0.00505375
-1.08769e-07
-2.40215e-09
0.00505387
-1.18554e-07
-2.15408e-09
0.005054
-1.22562e-07
-1.79159e-09
0.00505414
-1.4599e-07
-1.35778e-09
0.00505429
-1.49292e-07
-9.35327e-10
0.00505449
-1.95067e-07
-6.13181e-10
0.00505468
-1.92084e-07
-1.54141e-10
0.00505495
-2.71949e-07
2.63565e-10
0.00505521
-2.5875e-07
1.36675e-10
0.00505559
-3.79748e-07
4.61491e-10
0.00505596
-3.65449e-07
7.57882e-10
0.00505647
-5.19933e-07
7.36487e-10
0.005057
-5.22318e-07
5.58544e-10
0.00505772
-7.20478e-07
1.49014e-09
0.00505837
-6.58777e-07
2.8021e-09
0.00505945
-1.08123e-06
2.34575e-09
0.00506032
-8.74593e-07
4.50697e-09
0.00506101
-6.94338e-07
2.69556e-09
-1.74308e-06
4.23836e-09
0.00500292
-6.06582e-06
0.00500582
-5.80398e-06
0.0050086
-5.54973e-06
0.00501125
-5.3031e-06
0.00501378
-5.06404e-06
0.0050162
-4.83244e-06
0.0050185
-4.60819e-06
0.0050207
-4.39113e-06
0.00502279
-4.18112e-06
0.00502478
-3.97801e-06
0.00502667
-3.78168e-06
0.00502847
-3.59199e-06
0.00503017
-3.40882e-06
0.00503179
-3.23202e-06
0.00503332
-3.06147e-06
0.00503477
-2.89702e-06
0.00503614
-2.73851e-06
0.00503744
-2.58581e-06
0.00503866
-2.43878e-06
0.00503981
-2.29732e-06
0.00504089
-2.16136e-06
0.00504191
-2.03084e-06
0.00504287
-1.90566e-06
0.00504376
-1.78572e-06
0.0050446
-1.67087e-06
0.00504538
-1.56091e-06
0.00504611
-1.4557e-06
0.00504679
-1.35513e-06
0.00504742
-1.25921e-06
0.00504801
-1.16793e-06
0.00504855
-1.08134e-06
0.00504905
-9.99375e-07
0.00504952
-9.21974e-07
0.00504994
-8.48964e-07
0.00505034
-7.80172e-07
0.0050507
-7.15446e-07
0.00505103
-6.54678e-07
0.00505133
-5.97766e-07
0.0050516
-5.44762e-07
0.00505185
-4.95693e-07
0.00505208
-4.50552e-07
0.00505228
-4.09303e-07
0.00505247
-3.71902e-07
0.00505264
-3.38242e-07
0.0050528
-3.08352e-07
0.00505294
-2.82299e-07
0.00505307
-2.60169e-07
0.0050532
-2.42304e-07
0.00505331
-2.28395e-07
0.00505342
-2.19906e-07
0.00505353
-2.14523e-07
0.00505364
-2.17599e-07
0.00505375
-2.1996e-07
0.00505387
-2.39286e-07
0.005054
-2.46944e-07
0.00505415
-2.93381e-07
0.0050543
-2.99544e-07
0.00505449
-3.90798e-07
0.00505468
-3.84346e-07
0.00505496
-5.43715e-07
0.00505521
-5.17385e-07
0.00505559
-7.59125e-07
0.00505596
-7.30205e-07
0.00505648
-1.03916e-06
0.005057
-1.04468e-06
0.00505772
-1.4381e-06
0.00505838
-1.31952e-06
0.00505945
-2.15166e-06
0.00506033
-1.75355e-06
0.00506103
-1.39519e-06
-3.46582e-06
0.00500299
-9.0926e-06
0.00500588
-8.70037e-06
0.00500865
-8.31951e-06
0.0050113
-7.95005e-06
0.00501383
-7.59193e-06
0.00501624
-7.245e-06
0.00501854
-6.90907e-06
0.00502073
-6.58392e-06
0.00502282
-6.26934e-06
0.00502481
-5.96511e-06
0.0050267
-5.67102e-06
0.00502849
-5.38689e-06
0.0050302
-5.11249e-06
0.00503181
-4.84762e-06
0.00503334
-4.59208e-06
0.00503479
-4.34566e-06
0.00503616
-4.10813e-06
0.00503745
-3.87929e-06
0.00503867
-3.65896e-06
0.00503982
-3.44698e-06
0.00504091
-3.24322e-06
0.00504192
-3.04757e-06
0.00504288
-2.85989e-06
0.00504377
-2.68001e-06
0.00504461
-2.50773e-06
0.00504539
-2.34284e-06
0.00504612
-2.18514e-06
0.0050468
-2.03447e-06
0.00504743
-1.89079e-06
0.00504802
-1.75406e-06
0.00504856
-1.62425e-06
0.00504906
-1.50128e-06
0.00504952
-1.38506e-06
0.00504995
-1.27538e-06
0.00505034
-1.17204e-06
0.0050507
-1.07485e-06
0.00505103
-9.83661e-07
0.00505133
-8.98324e-07
0.00505161
-8.18865e-07
0.00505186
-7.4529e-07
0.00505208
-6.77562e-07
0.00505229
-6.15625e-07
0.00505248
-5.59446e-07
0.00505265
-5.08939e-07
0.0050528
-4.6414e-07
0.00505295
-4.25159e-07
0.00505308
-3.92023e-07
0.0050532
-3.65286e-07
0.00505332
-3.44392e-07
0.00505343
-3.31589e-07
0.00505354
-3.23365e-07
0.00505365
-3.27779e-07
0.00505376
-3.31187e-07
0.00505388
-3.60074e-07
0.005054
-3.71374e-07
0.00505415
-4.40839e-07
0.0050543
-4.49839e-07
0.0050545
-5.86623e-07
0.00505469
-5.76639e-07
0.00505496
-8.15614e-07
0.00505522
-7.76034e-07
0.0050556
-1.13869e-06
0.00505596
-1.09507e-06
0.00505648
-1.55842e-06
0.00505701
-1.5682e-06
0.00505772
-2.15303e-06
0.00505839
-1.9896e-06
0.00505945
-3.2056e-06
0.00506034
-2.64983e-06
0.00506106
-2.11397e-06
-5.1571e-06
0.00500308
-1.21116e-05
0.00500597
-1.15895e-05
0.00500874
-1.10825e-05
0.00501138
-1.05907e-05
0.0050139
-1.0114e-05
0.0050163
-9.65214e-06
0.0050186
-9.20493e-06
0.00502079
-8.77207e-06
0.00502287
-8.35327e-06
0.00502486
-7.94825e-06
0.00502674
-7.55672e-06
0.00502853
-7.17842e-06
0.00503023
-6.81306e-06
0.00503185
-6.46038e-06
0.00503337
-6.12008e-06
0.00503482
-5.79189e-06
0.00503619
-5.47553e-06
0.00503748
-5.17074e-06
0.0050387
-4.87728e-06
0.00503985
-4.59493e-06
0.00504093
-4.32352e-06
0.00504194
-4.06288e-06
0.00504289
-3.81281e-06
0.00504379
-3.57311e-06
0.00504462
-3.34352e-06
0.0050454
-3.1238e-06
0.00504613
-2.91369e-06
0.00504681
-2.71301e-06
0.00504744
-2.52166e-06
0.00504803
-2.33954e-06
0.00504857
-2.16658e-06
0.00504907
-2.00267e-06
0.00504953
-1.84768e-06
0.00504996
-1.70139e-06
0.00505035
-1.56355e-06
0.00505071
-1.43394e-06
0.00505104
-1.31237e-06
0.00505134
-1.19864e-06
0.00505161
-1.09277e-06
0.00505186
-9.94716e-07
0.00505209
-9.04432e-07
0.0050523
-8.21835e-07
0.00505248
-7.46904e-07
0.00505265
-6.79573e-07
0.00505281
-6.19884e-07
0.00505295
-5.67992e-07
0.00505308
-5.23865e-07
0.00505321
-4.88272e-07
0.00505332
-4.60405e-07
0.00505344
-4.43298e-07
0.00505354
-4.32239e-07
0.00505365
-4.38003e-07
0.00505377
-4.42462e-07
0.00505389
-4.80931e-07
0.00505401
-4.95867e-07
0.00505416
-5.88392e-07
0.00505431
-6.00192e-07
0.0050545
-7.82577e-07
0.0050547
-7.68972e-07
0.00505497
-1.08771e-06
0.00505523
-1.0347e-06
0.00505561
-1.51851e-06
0.00505597
-1.4601e-06
0.00505649
-2.07774e-06
0.00505702
-2.09341e-06
0.00505773
-2.86409e-06
0.00505841
-2.67313e-06
0.00505944
-4.2358e-06
0.00506036
-3.57109e-06
0.00506111
-2.85855e-06
-6.80304e-06
0.00500321
-1.51203e-05
0.00500609
-1.44689e-05
0.00500885
-1.38365e-05
0.00501148
-1.3223e-05
0.00501399
-1.26282e-05
0.00501639
-1.20521e-05
0.00501868
-1.14941e-05
0.00502086
-1.09541e-05
0.00502294
-1.04315e-05
0.00502492
-9.92613e-06
0.0050268
-9.43757e-06
0.00502859
-8.96548e-06
0.00503028
-8.50952e-06
0.00503189
-8.06933e-06
0.00503342
-7.64458e-06
0.00503486
-7.23491e-06
0.00503622
-6.83998e-06
0.00503751
-6.45948e-06
0.00503873
-6.09311e-06
0.00503987
-5.74061e-06
0.00504095
-5.40174e-06
0.00504197
-5.07628e-06
0.00504292
-4.764e-06
0.00504381
-4.46462e-06
0.00504464
-4.17786e-06
0.00504542
-3.90343e-06
0.00504615
-3.64104e-06
0.00504683
-3.39047e-06
0.00504746
-3.15154e-06
0.00504804
-2.92413e-06
0.00504858
-2.70812e-06
0.00504908
-2.50335e-06
0.00504955
-2.30967e-06
0.00504997
-2.12683e-06
0.00505036
-1.95456e-06
0.00505072
-1.79259e-06
0.00505105
-1.64069e-06
0.00505135
-1.49863e-06
0.00505162
-1.36638e-06
0.00505187
-1.2439e-06
0.0050521
-1.1311e-06
0.00505231
-1.02788e-06
0.00505249
-9.34235e-07
0.00505266
-8.50109e-07
0.00505282
-7.75558e-07
0.00505296
-7.10775e-07
0.00505309
-6.55677e-07
0.00505322
-6.11247e-07
0.00505333
-5.76425e-07
0.00505344
-5.55026e-07
0.00505355
-5.41141e-07
0.00505366
-5.48271e-07
0.00505377
-5.53788e-07
0.0050539
-6.01861e-07
0.00505402
-6.20431e-07
0.00505417
-7.36049e-07
0.00505432
-7.50608e-07
0.00505451
-9.78672e-07
0.00505471
-9.61347e-07
0.00505498
-1.36001e-06
0.00505524
-1.29339e-06
0.00505562
-1.89864e-06
0.00505598
-1.8253e-06
0.0050565
-2.59711e-06
0.00505703
-2.62071e-06
0.00505774
-3.57024e-06
0.00505844
-3.37361e-06
0.00505944
-5.2362e-06
0.00506039
-4.52379e-06
0.00506117
-3.63553e-06
-8.39185e-06
0.00500337
-1.8116e-05
0.00500624
-1.73364e-05
0.00500898
-1.65793e-05
0.0050116
-1.58448e-05
0.00501411
-1.51328e-05
0.0050165
-1.4443e-05
0.00501878
-1.3775e-05
0.00502095
-1.31283e-05
0.00502303
-1.25026e-05
0.005025
-1.18974e-05
0.00502687
-1.13123e-05
0.00502865
-1.07469e-05
0.00503034
-1.02008e-05
0.00503195
-9.67354e-06
0.00503347
-9.1647e-06
0.00503491
-8.6739e-06
0.00503627
-8.20073e-06
0.00503755
-7.74482e-06
0.00503877
-7.30582e-06
0.00503991
-6.88342e-06
0.00504098
-6.47733e-06
0.005042
-6.08728e-06
0.00504294
-5.71298e-06
0.00504383
-5.35411e-06
0.00504467
-5.01036e-06
0.00504544
-4.68139e-06
0.00504617
-4.36687e-06
0.00504685
-4.06654e-06
0.00504748
-3.78017e-06
0.00504806
-3.50759e-06
0.0050486
-3.24864e-06
0.0050491
-3.00312e-06
0.00504956
-2.77085e-06
0.00504998
-2.55155e-06
0.00505038
-2.34493e-06
0.00505073
-2.15067e-06
0.00505106
-1.96851e-06
0.00505136
-1.79818e-06
0.00505163
-1.63962e-06
0.00505188
-1.49276e-06
0.00505211
-1.3575e-06
0.00505231
-1.2337e-06
0.0050525
-1.12138e-06
0.00505267
-1.0205e-06
0.00505283
-9.3112e-07
0.00505297
-8.53475e-07
0.0050531
-7.87431e-07
0.00505323
-7.34187e-07
0.00505334
-6.92429e-07
0.00505345
-6.66755e-07
0.00505356
-6.50057e-07
0.00505367
-6.5857e-07
0.00505378
-6.65155e-07
0.0050539
-7.22858e-07
0.00505403
-7.45054e-07
0.00505418
-8.83806e-07
0.00505433
-9.01072e-07
0.00505452
-1.17491e-06
0.00505472
-1.15374e-06
0.00505499
-1.63254e-06
0.00505525
-1.55205e-06
0.00505563
-2.27909e-06
0.00505599
-2.19066e-06
0.00505651
-3.1165e-06
0.00505704
-3.15044e-06
0.00505774
-4.27066e-06
0.00505846
-4.09382e-06
0.00505943
-6.20211e-06
0.00506042
-5.51304e-06
0.00506123
-4.44997e-06
-9.91437e-06
0.00500356
-2.10964e-05
0.00500642
-2.01894e-05
0.00500914
-1.93086e-05
0.00501175
-1.84542e-05
0.00501425
-1.76258e-05
0.00501663
-1.68232e-05
0.0050189
-1.60459e-05
0.00502106
-1.52934e-05
0.00502313
-1.45652e-05
0.00502509
-1.38609e-05
0.00502696
-1.31798e-05
0.00502873
-1.25217e-05
0.00503042
-1.18859e-05
0.00503201
-1.1272e-05
0.00503353
-1.06796e-05
0.00503496
-1.0108e-05
0.00503632
-9.55701e-06
0.0050376
-9.02605e-06
0.00503881
-8.51476e-06
0.00503995
-8.02277e-06
0.00504102
-7.54974e-06
0.00504203
-7.09536e-06
0.00504298
-6.65929e-06
0.00504386
-6.24116e-06
0.00504469
-5.84063e-06
0.00504547
-5.45731e-06
0.00504619
-5.09085e-06
0.00504687
-4.74092e-06
0.0050475
-4.40727e-06
0.00504808
-4.08967e-06
0.00504862
-3.78791e-06
0.00504912
-3.50177e-06
0.00504958
-3.23102e-06
0.00505
-2.97537e-06
0.00505039
-2.73449e-06
0.00505075
-2.50803e-06
0.00505107
-2.29569e-06
0.00505137
-2.09718e-06
0.00505164
-1.91238e-06
0.00505189
-1.7412e-06
0.00505212
-1.58353e-06
0.00505232
-1.43923e-06
0.00505251
-1.30828e-06
0.00505268
-1.19069e-06
0.00505284
-1.08652e-06
0.00505298
-9.96043e-07
0.00505311
-9.19087e-07
0.00505323
-8.57047e-07
0.00505335
-8.08397e-07
0.00505346
-7.78429e-07
0.00505357
-7.59006e-07
0.00505368
-7.68789e-07
0.00505379
-7.76686e-07
0.00505391
-8.43649e-07
0.00505404
-8.70115e-07
0.00505419
-1.03102e-06
0.00505434
-1.05247e-06
0.00505453
-1.36998e-06
0.00505473
-1.34781e-06
0.005055
-1.90317e-06
0.00505526
-1.81309e-06
0.00505564
-2.65727e-06
0.005056
-2.55859e-06
0.00505652
-3.63394e-06
0.00505706
-3.68383e-06
0.00505775
-4.96491e-06
0.00505849
-4.83416e-06
0.00505942
-7.13312e-06
0.00506045
-6.53889e-06
0.00506131
-5.30873e-06
-1.13612e-05
0.00524367
-2.42006e-05
0.00524665
-2.31613e-05
0.00524949
-2.21521e-05
0.00525221
-2.11731e-05
0.00525481
-2.02239e-05
0.00525729
-1.93041e-05
0.00525965
-1.84133e-05
0.00526191
-1.75508e-05
0.00526406
-1.67161e-05
0.00526611
-1.59086e-05
0.00526806
-1.51278e-05
0.00526991
-1.43731e-05
0.00527167
-1.3644e-05
0.00527334
-1.294e-05
0.00527492
-1.22604e-05
0.00527641
-1.16048e-05
0.00527783
-1.09727e-05
0.00527917
-1.03635e-05
0.00528043
-9.7769e-06
0.00528162
-9.21237e-06
0.00528274
-8.66956e-06
0.00528379
-8.14809e-06
0.00528478
-7.64759e-06
0.00528571
-7.16765e-06
0.00528657
-6.70787e-06
0.00528738
-6.26784e-06
0.00528814
-5.84717e-06
0.00528884
-5.44548e-06
0.0052895
-5.06247e-06
0.00529011
-4.69787e-06
0.00529067
-4.35142e-06
0.00529119
-4.02287e-06
0.00529167
-3.71195e-06
0.00529212
-3.41834e-06
0.00529252
-3.14168e-06
0.0052929
-2.88159e-06
0.00529324
-2.63773e-06
0.00529355
-2.40976e-06
0.00529384
-2.19755e-06
0.0052941
-2.00099e-06
0.00529433
-1.81991e-06
0.00529455
-1.65418e-06
0.00529474
-1.50379e-06
0.00529492
-1.36874e-06
0.00529508
-1.24913e-06
0.00529523
-1.14523e-06
0.00529537
-1.05691e-06
0.0052955
-9.85621e-07
0.00529562
-9.29907e-07
0.00529574
-8.95207e-07
0.00529585
-8.73434e-07
0.00529597
-8.8368e-07
0.00529608
-8.94545e-07
0.00529621
-9.68548e-07
0.00529634
-1.00389e-06
0.00529649
-1.18112e-06
0.00529666
-1.2173e-06
0.00529685
-1.56579e-06
0.00529707
-1.56262e-06
0.00529734
-2.17257e-06
0.00529763
-2.10314e-06
0.00529801
-3.03619e-06
0.00529841
-2.96092e-06
0.00529894
-4.16288e-06
0.00529951
-4.25283e-06
0.00530023
-5.68629e-06
0.00530102
-5.62434e-06
0.00530197
-8.08481e-06
0.00530307
-7.63583e-06
0.00530404
-6.27777e-06
-1.27747e-05
0.00524395
-2.72823e-05
0.0052469
-2.61123e-05
0.00524972
-2.49761e-05
0.00525243
-2.38739e-05
0.00525501
-2.28051e-05
0.00525747
-2.17694e-05
0.00525982
-2.07661e-05
0.00526207
-1.97946e-05
0.00526421
-1.88544e-05
0.00526624
-1.79447e-05
0.00526818
-1.7065e-05
0.00527002
-1.62146e-05
0.00527177
-1.5393e-05
0.00527343
-1.45995e-05
0.005275
-1.38335e-05
0.00527649
-1.30944e-05
0.0052779
-1.23818e-05
0.00527923
-1.16949e-05
0.00528049
-1.10334e-05
0.00528167
-1.03968e-05
0.00528279
-9.7846e-06
0.00528384
-9.19644e-06
0.00528482
-8.63186e-06
0.00528574
-8.09044e-06
0.00528661
-7.57172e-06
0.00528742
-7.07527e-06
0.00528817
-6.60065e-06
0.00528887
-6.14745e-06
0.00528952
-5.71531e-06
0.00529013
-5.30392e-06
0.00529069
-4.91298e-06
0.00529121
-4.5422e-06
0.00529169
-4.19128e-06
0.00529213
-3.85987e-06
0.00529254
-3.54758e-06
0.00529291
-3.25399e-06
0.00529325
-2.97873e-06
0.00529356
-2.72143e-06
0.00529385
-2.48192e-06
0.00529411
-2.26005e-06
0.00529434
-2.05566e-06
0.00529456
-1.86859e-06
0.00529475
-1.69883e-06
0.00529493
-1.54639e-06
0.00529509
-1.41139e-06
0.00529524
-1.29412e-06
0.00529538
-1.19449e-06
0.00529551
-1.11398e-06
0.00529563
-1.05125e-06
0.00529574
-1.01181e-06
0.00529586
-9.87785e-07
0.00529597
-9.98381e-07
0.00529609
-1.01247e-06
0.00529622
-1.09312e-06
0.00529635
-1.13802e-06
0.0052965
-1.33053e-06
0.00529667
-1.38302e-06
0.00529686
-1.76021e-06
0.00529708
-1.77911e-06
0.00529734
-2.43974e-06
0.00529764
-2.39561e-06
0.00529801
-3.41245e-06
0.00529842
-3.36591e-06
0.00529894
-4.68947e-06
0.00529952
-4.82593e-06
0.00530023
-6.40036e-06
0.00530104
-6.43789e-06
0.00530196
-8.9969e-06
0.0053031
-8.77517e-06
0.00530412
-7.29696e-06
-1.41016e-05
0.00524426
-3.03388e-05
0.00524719
-2.90397e-05
0.00524999
-2.77782e-05
0.00525267
-2.65542e-05
0.00525523
-2.53673e-05
0.00525768
-2.4217e-05
0.00526002
-2.31025e-05
0.00526224
-2.20233e-05
0.00526437
-2.09787e-05
0.00526639
-1.99679e-05
0.00526832
-1.89902e-05
0.00527015
-1.8045e-05
0.00527189
-1.71317e-05
0.00527354
-1.62495e-05
0.0052751
-1.53978e-05
0.00527658
-1.45759e-05
0.00527798
-1.37833e-05
0.00527931
-1.30194e-05
0.00528056
-1.22835e-05
0.00528174
-1.15753e-05
0.00528285
-1.08942e-05
0.00528389
-1.02398e-05
0.00528487
-9.61154e-06
0.00528579
-9.009e-06
0.00528665
-8.4317e-06
0.00528745
-7.87914e-06
0.0052882
-7.35087e-06
0.0052889
-6.84642e-06
0.00528955
-6.36542e-06
0.00529015
-5.90748e-06
0.00529071
-5.47228e-06
0.00529123
-5.05948e-06
0.00529171
-4.66876e-06
0.00529215
-4.29972e-06
0.00529255
-3.95195e-06
0.00529292
-3.62502e-06
0.00529326
-3.31849e-06
0.00529357
-3.03199e-06
0.00529386
-2.76529e-06
0.00529412
-2.51824e-06
0.00529435
-2.29064e-06
0.00529456
-2.08232e-06
0.00529476
-1.89329e-06
0.00529494
-1.72353e-06
0.0052951
-1.57321e-06
0.00529525
-1.44262e-06
0.00529538
-1.33172e-06
0.00529551
-1.24204e-06
0.00529563
-1.17234e-06
0.00529575
-1.12819e-06
0.00529586
-1.10193e-06
0.00529598
-1.11291e-06
0.0052961
-1.13023e-06
0.00529622
-1.21757e-06
0.00529635
-1.27197e-06
0.0052965
-1.47985e-06
0.00529667
-1.5485e-06
0.00529686
-1.95459e-06
0.00529708
-1.99524e-06
0.00529735
-2.70696e-06
0.00529764
-2.68757e-06
0.00529801
-3.7889e-06
0.00529842
-3.77055e-06
0.00529895
-5.21586e-06
0.00529952
-5.40172e-06
0.00530023
-7.1071e-06
0.00530107
-7.27561e-06
0.00530194
-9.86841e-06
0.00530312
-9.95928e-06
0.00530418
-8.36005e-06
-1.5349e-05
0.0052446
-3.33675e-05
0.0052475
-3.19411e-05
0.00525028
-3.0556e-05
0.00525294
-2.92119e-05
0.00525548
-2.79085e-05
0.00525791
-2.6645e-05
0.00526023
-2.54208e-05
0.00526244
-2.42352e-05
0.00526455
-2.30873e-05
0.00526656
-2.19765e-05
0.00526847
-2.0902e-05
0.00527029
-1.9863e-05
0.00527201
-1.88588e-05
0.00527365
-1.78888e-05
0.00527521
-1.69522e-05
0.00527668
-1.60483e-05
0.00527807
-1.51764e-05
0.00527939
-1.4336e-05
0.00528063
-1.35265e-05
0.0052818
-1.27472e-05
0.00528291
-1.19977e-05
0.00528395
-1.12775e-05
0.00528492
-1.0586e-05
0.00528583
-9.9228e-06
0.00528669
-9.28728e-06
0.00528749
-8.67898e-06
0.00528824
-8.09738e-06
0.00528893
-7.542e-06
0.00528958
-7.01241e-06
0.00529018
-6.50819e-06
0.00529074
-6.02898e-06
0.00529125
-5.5744e-06
0.00529173
-5.14409e-06
0.00529216
-4.73763e-06
0.00529257
-4.35457e-06
0.00529294
-3.99445e-06
0.00529327
-3.65681e-06
0.00529358
-3.34124e-06
0.00529387
-3.0475e-06
0.00529412
-2.77538e-06
0.00529436
-2.52469e-06
0.00529457
-2.29524e-06
0.00529476
-2.08701e-06
0.00529494
-1.90003e-06
0.0052951
-1.73446e-06
0.00529525
-1.59062e-06
0.00529539
-1.4685e-06
0.00529551
-1.3697e-06
0.00529563
-1.29307e-06
0.00529575
-1.24424e-06
0.00529586
-1.21577e-06
0.00529598
-1.22717e-06
0.0052961
-1.24772e-06
0.00529622
-1.3418e-06
0.00529635
-1.40565e-06
0.0052965
-1.62897e-06
0.00529667
-1.71363e-06
0.00529686
-2.14881e-06
0.00529708
-2.21086e-06
0.00529735
-2.97412e-06
0.00529764
-2.97881e-06
0.00529801
-4.16544e-06
0.00529842
-4.17459e-06
0.00529894
-5.74196e-06
0.00529952
-5.97982e-06
0.00530022
-7.80693e-06
0.00530108
-8.1358e-06
0.00530192
-1.07029e-05
0.00530314
-1.11851e-05
0.00530425
-9.4632e-06
-1.65236e-05
0.00524498
-3.63657e-05
0.00524785
-3.4814e-05
0.0052506
-3.33071e-05
0.00525324
-3.18448e-05
0.00525576
-3.04265e-05
0.00525816
-2.90516e-05
0.00526046
-2.77192e-05
0.00526265
-2.64285e-05
0.00526475
-2.51788e-05
0.00526674
-2.39692e-05
0.00526863
-2.27989e-05
0.00527044
-2.16672e-05
0.00527215
-2.05733e-05
0.00527378
-1.95164e-05
0.00527532
-1.84957e-05
0.00527679
-1.75105e-05
0.00527817
-1.65602e-05
0.00527948
-1.56441e-05
0.00528071
-1.47614e-05
0.00528188
-1.39117e-05
0.00528297
-1.30944e-05
0.00528401
-1.2309e-05
0.00528498
-1.15547e-05
0.00528588
-1.08313e-05
0.00528673
-1.0138e-05
0.00528753
-9.47429e-06
0.00528827
-8.83974e-06
0.00528896
-8.23377e-06
0.00528961
-7.6559e-06
0.0052902
-7.1057e-06
0.00529076
-6.58275e-06
0.00529127
-6.08664e-06
0.00529174
-5.61697e-06
0.00529218
-5.17331e-06
0.00529258
-4.75516e-06
0.00529295
-4.36204e-06
0.00529328
-3.99347e-06
0.00529359
-3.649e-06
0.00529387
-3.32836e-06
0.00529413
-3.03131e-06
0.00529436
-2.75765e-06
0.00529457
-2.50717e-06
0.00529477
-2.27986e-06
0.00529494
-2.07575e-06
0.0052951
-1.89501e-06
0.00529525
-1.73799e-06
0.00529539
-1.60472e-06
0.00529551
-1.49685e-06
0.00529563
-1.41332e-06
0.00529575
-1.35986e-06
0.00529586
-1.3292e-06
0.00529598
-1.34106e-06
0.00529609
-1.36483e-06
0.00529622
-1.4657e-06
0.00529635
-1.53893e-06
0.0052965
-1.77779e-06
0.00529666
-1.87825e-06
0.00529686
-2.34276e-06
0.00529707
-2.42578e-06
0.00529734
-3.24111e-06
0.00529763
-3.26911e-06
0.00529801
-4.54195e-06
0.00529841
-4.57773e-06
0.00529894
-6.2677e-06
0.00529952
-6.55976e-06
0.00530021
-8.50045e-06
0.00530109
-9.01608e-06
0.00530189
-1.15052e-05
0.00530316
-1.24486e-05
0.00530429
-1.06014e-05
-1.76344e-05
0.00524539
-3.93307e-05
0.00524823
-3.76559e-05
0.00525095
-3.60294e-05
0.00525356
-3.44508e-05
0.00525605
-3.29196e-05
0.00525844
-3.14349e-05
0.00526071
-2.99959e-05
0.00526289
-2.86017e-05
0.00526496
-2.72516e-05
0.00526693
-2.59446e-05
0.00526882
-2.46798e-05
0.0052706
-2.34565e-05
0.00527231
-2.22739e-05
0.00527392
-2.11311e-05
0.00527545
-2.00273e-05
0.0052769
-1.89618e-05
0.00527828
-1.79338e-05
0.00527958
-1.69427e-05
0.0052808
-1.59877e-05
0.00528196
-1.50682e-05
0.00528305
-1.41837e-05
0.00528407
-1.33335e-05
0.00528503
-1.25171e-05
0.00528594
-1.17338e-05
0.00528678
-1.09832e-05
0.00528757
-1.02646e-05
0.00528831
-9.57749e-06
0.005289
-8.92129e-06
0.00528964
-8.29549e-06
0.00529023
-7.69962e-06
0.00529078
-7.13323e-06
0.00529129
-6.59588e-06
0.00529176
-6.08712e-06
0.00529219
-5.60649e-06
0.00529259
-5.15348e-06
0.00529296
-4.72756e-06
0.00529329
-4.32824e-06
0.0052936
-3.95504e-06
0.00529388
-3.60765e-06
0.00529413
-3.28583e-06
0.00529436
-2.98934e-06
0.00529457
-2.71796e-06
0.00529477
-2.47169e-06
0.00529494
-2.25054e-06
0.0052951
-2.05472e-06
0.00529525
-1.8846e-06
0.00529538
-1.74026e-06
0.00529551
-1.62337e-06
0.00529563
-1.533e-06
0.00529574
-1.47495e-06
0.00529586
-1.44212e-06
0.00529597
-1.45447e-06
0.00529609
-1.48145e-06
0.00529621
-1.58915e-06
0.00529634
-1.67168e-06
0.00529649
-1.92618e-06
0.00529666
-2.04222e-06
0.00529685
-2.5363e-06
0.00529706
-2.63982e-06
0.00529733
-3.50777e-06
0.00529762
-3.55822e-06
0.005298
-4.91827e-06
0.0052984
-4.97965e-06
0.00529892
-6.79298e-06
0.0052995
-7.14097e-06
0.00530019
-9.18842e-06
0.00530109
-9.91358e-06
0.00530187
-1.22806e-05
0.00530316
-1.37448e-05
0.00530433
-1.1769e-05
-1.86923e-05
0.00524583
-4.22599e-05
0.00524864
-4.04644e-05
0.00525133
-3.87206e-05
0.00525391
-3.70278e-05
0.00525638
-3.53856e-05
0.00525873
-3.3793e-05
0.00526099
-3.22492e-05
0.00526314
-3.07532e-05
0.00526519
-2.93042e-05
0.00526715
-2.79012e-05
0.00526901
-2.65433e-05
0.00527078
-2.52297e-05
0.00527247
-2.39595e-05
0.00527407
-2.27319e-05
0.00527559
-2.1546e-05
0.00527703
-2.04011e-05
0.00527839
-1.92963e-05
0.00527968
-1.8231e-05
0.0052809
-1.72044e-05
0.00528204
-1.62158e-05
0.00528313
-1.52647e-05
0.00528414
-1.43505e-05
0.0052851
-1.34724e-05
0.00528599
-1.263e-05
0.00528683
-1.18225e-05
0.00528762
-1.10494e-05
0.00528835
-1.03102e-05
0.00528903
-9.60414e-06
0.00528967
-8.93079e-06
0.00529026
-8.2896e-06
0.00529081
-7.68009e-06
0.00529131
-7.10179e-06
0.00529178
-6.55422e-06
0.00529221
-6.03688e-06
0.0052926
-5.54924e-06
0.00529297
-5.09075e-06
0.0052933
-4.66089e-06
0.0052936
-4.25915e-06
0.00529388
-3.8852e-06
0.00529413
-3.53876e-06
0.00529437
-3.21959e-06
0.00529457
-2.92745e-06
0.00529477
-2.66233e-06
0.00529494
-2.42426e-06
0.0052951
-2.21346e-06
0.00529524
-2.03032e-06
0.00529538
-1.87497e-06
0.0052955
-1.74914e-06
0.00529562
-1.65197e-06
0.00529574
-1.58937e-06
0.00529585
-1.5544e-06
0.00529596
-1.56729e-06
0.00529608
-1.59747e-06
0.0052962
-1.71204e-06
0.00529633
-1.80378e-06
0.00529648
-2.07401e-06
0.00529664
-2.2054e-06
0.00529684
-2.72929e-06
0.00529705
-2.8528e-06
0.00529732
-3.77394e-06
0.0052976
-3.84591e-06
0.00529798
-5.29425e-06
0.00529838
-5.38004e-06
0.00529891
-7.31772e-06
0.00529949
-7.7228e-06
0.00530017
-9.87172e-06
0.00530108
-1.08251e-05
0.00530184
-1.30353e-05
0.00530316
-1.50683e-05
0.00530435
-1.29601e-05
-1.97092e-05
0.00524631
-4.5151e-05
0.00524908
-4.32373e-05
0.00525174
-4.13784e-05
0.00525429
-3.95738e-05
0.00525672
-3.78226e-05
0.00525905
-3.61242e-05
0.00526128
-3.44774e-05
0.00526341
-3.28814e-05
0.00526544
-3.13351e-05
0.00526738
-2.98376e-05
0.00526922
-2.8388e-05
0.00527098
-2.69854e-05
0.00527265
-2.56289e-05
0.00527423
-2.43177e-05
0.00527574
-2.30508e-05
0.00527717
-2.18274e-05
0.00527852
-2.06468e-05
0.00527979
-1.95081e-05
0.005281
-1.84107e-05
0.00528214
-1.73539e-05
0.00528321
-1.6337e-05
0.00528422
-1.53593e-05
0.00528517
-1.44202e-05
0.00528606
-1.35191e-05
0.00528689
-1.26553e-05
0.00528767
-1.18283e-05
0.00528839
-1.10373e-05
0.00528907
-1.02819e-05
0.0052897
-9.56138e-06
0.00529029
-8.87525e-06
0.00529083
-8.22298e-06
0.00529133
-7.60405e-06
0.0052918
-7.01797e-06
0.00529222
-6.46421e-06
0.00529262
-5.9422e-06
0.00529298
-5.45138e-06
0.00529331
-4.99118e-06
0.00529361
-4.56111e-06
0.00529389
-4.16079e-06
0.00529414
-3.78991e-06
0.00529437
-3.44821e-06
0.00529457
-3.13546e-06
0.00529476
-2.85163e-06
0.00529494
-2.59677e-06
0.00529509
-2.37108e-06
0.00529524
-2.17502e-06
0.00529537
-2.00874e-06
0.0052955
-1.87403e-06
0.00529561
-1.77012e-06
0.00529573
-1.70302e-06
0.00529584
-1.66594e-06
0.00529595
-1.67939e-06
0.00529607
-1.71275e-06
0.00529619
-1.83423e-06
0.00529632
-1.93508e-06
0.00529647
-2.22114e-06
0.00529663
-2.36762e-06
0.00529682
-2.92157e-06
0.00529703
-3.06453e-06
0.0052973
-4.03946e-06
0.00529759
-4.13193e-06
0.00529796
-5.66972e-06
0.00529836
-5.77855e-06
0.00529888
-7.84183e-06
0.00529947
-8.30456e-06
0.00530014
-1.05513e-05
0.00530107
-1.17475e-05
0.00530181
-1.37751e-05
0.00530315
-1.6414e-05
0.00530436
-1.4169e-05
-2.06975e-05
0.00524682
-4.80014e-05
0.00524955
-4.59721e-05
0.00525218
-4.40007e-05
0.00525469
-4.20866e-05
0.0052571
-4.02289e-05
0.0052594
-3.84267e-05
0.0052616
-3.66789e-05
0.0052637
-3.49846e-05
0.00526571
-3.33428e-05
0.00526763
-3.17525e-05
0.00526945
-3.02127e-05
0.00527119
-2.87226e-05
0.00527284
-2.72811e-05
0.00527441
-2.58874e-05
0.0052759
-2.45406e-05
0.00527731
-2.32399e-05
0.00527865
-2.19844e-05
0.00527992
-2.07734e-05
0.00528111
-1.96061e-05
0.00528224
-1.84817e-05
0.0052833
-1.73997e-05
0.0052843
-1.63593e-05
0.00528524
-1.53598e-05
0.00528612
-1.44006e-05
0.00528695
-1.34811e-05
0.00528772
-1.26006e-05
0.00528844
-1.17585e-05
0.00528911
-1.09541e-05
0.00528974
-1.01869e-05
0.00529032
-9.45621e-06
0.00529086
-8.76154e-06
0.00529136
-8.10234e-06
0.00529182
-7.47807e-06
0.00529224
-6.88818e-06
0.00529263
-6.33208e-06
0.00529299
-5.80918e-06
0.00529332
-5.3189e-06
0.00529362
-4.86071e-06
0.00529389
-4.43421e-06
0.00529414
-4.03908e-06
0.00529437
-3.67504e-06
0.00529457
-3.34183e-06
0.00529476
-3.03943e-06
0.00529493
-2.76789e-06
0.00529509
-2.52745e-06
0.00529523
-2.31856e-06
0.00529536
-2.14144e-06
0.00529549
-1.99791e-06
0.0052956
-1.88732e-06
0.00529572
-1.81578e-06
0.00529583
-1.7766e-06
0.00529594
-1.79066e-06
0.00529605
-1.82719e-06
0.00529618
-1.95561e-06
0.00529631
-2.06547e-06
0.00529645
-2.36743e-06
0.00529661
-2.52874e-06
0.0052968
-3.11299e-06
0.00529701
-3.27481e-06
0.00529728
-4.30416e-06
0.00529756
-4.41604e-06
0.00529794
-6.04452e-06
0.00529833
-6.17482e-06
0.00529886
-8.36525e-06
0.00529944
-8.88554e-06
0.00530012
-1.1228e-05
0.00530105
-1.26775e-05
0.00530178
-1.45056e-05
0.00530314
-1.77769e-05
0.00530436
-1.53903e-05
-2.16692e-05
0.00524736
-5.08086e-05
0.00525006
-4.86667e-05
0.00525264
-4.65856e-05
0.00525512
-4.45645e-05
0.00525749
-4.26025e-05
0.00525977
-4.06988e-05
0.00526194
-3.88521e-05
0.00526402
-3.70616e-05
0.005266
-3.53261e-05
0.00526789
-3.36446e-05
0.0052697
-3.20162e-05
0.00527141
-3.044e-05
0.00527305
-2.89149e-05
0.0052746
-2.74401e-05
0.00527607
-2.60146e-05
0.00527747
-2.46377e-05
0.00527879
-2.33084e-05
0.00528005
-2.20259e-05
0.00528123
-2.07896e-05
0.00528235
-1.95986e-05
0.0052834
-1.84522e-05
0.00528439
-1.73498e-05
0.00528532
-1.62907e-05
0.0052862
-1.52741e-05
0.00528701
-1.42995e-05
0.00528778
-1.33661e-05
0.00528849
-1.24733e-05
0.00528916
-1.16204e-05
0.00528978
-1.08069e-05
0.00529036
-1.00321e-05
0.00529089
-9.29543e-06
0.00529138
-8.59633e-06
0.00529184
-7.93422e-06
0.00529226
-7.30852e-06
0.00529265
-6.71862e-06
0.005293
-6.16392e-06
0.00529333
-5.64381e-06
0.00529362
-5.15773e-06
0.00529389
-4.70528e-06
0.00529414
-4.2861e-06
0.00529437
-3.89989e-06
0.00529457
-3.54639e-06
0.00529476
-3.22558e-06
0.00529493
-2.93751e-06
0.00529508
-2.68241e-06
0.00529522
-2.4608e-06
0.00529536
-2.27293e-06
0.00529548
-2.12068e-06
0.00529559
-2.00346e-06
0.00529571
-1.92752e-06
0.00529582
-1.88629e-06
0.00529593
-1.90098e-06
0.00529604
-1.94065e-06
0.00529616
-2.07605e-06
0.00529629
-2.1948e-06
0.00529643
-2.51276e-06