/*--------------------------------*- C++ -*----------------------------------*\
| =========                 |                                                 |
| \\      /  F ield         | OpenFOAM: The Open Source CFD Toolbox           |
|  \\    /   O peration     | Version:  2412                                  |
|   \\  /    A nd           | Website:  www.openfoam.com                      |
|    \\/     M anipulation  |                                                 |
\*---------------------------------------------------------------------------*/
FoamFile
{
    version     2.0;
    format      ascii;
    arch        "LSB;label=32;scalar=64";
    class       volScalarField;
    location    "19.5";
    object      p;
}
// * * * * * * * * * * * * * * * * * * * * * * * * * * * * * * * * * * * * * //

dimensions      [0 2 -2 0 0 0 0];

internalField   nonuniform List<scalar> 
63420
(
0.00094184
0.000942099
0.000942923
0.000944195
0.000945899
0.000948022
0.000950546
0.000953459
0.000956748
0.000960403
0.000964417
0.000968778
0.000973481
0.000978517
0.000983881
0.000989569
0.000995577
0.0010019
0.00100855
0.00101552
0.00102281
0.00103042
0.00103835
0.00104661
0.0010552
0.00106413
0.00107338
0.00108297
0.0010929
0.00110317
0.00111378
0.00112474
0.00113605
0.00114771
0.00115973
0.00117211
0.00118485
0.00119796
0.00121145
0.00122531
0.00123954
0.00125417
0.00126918
0.00128458
0.00130038
0.00131658
0.00133319
0.00135021
0.00136764
0.00138549
0.00140376
0.00142246
0.0014416
0.00146118
0.00148119
0.00094178
0.000942039
0.000942862
0.000944134
0.000945836
0.000947958
0.00095048
0.000953391
0.000956677
0.00096033
0.00096434
0.000968699
0.000973398
0.00097843
0.00098379
0.000989472
0.000995476
0.0010018
0.00100844
0.0010154
0.00102268
0.00103028
0.00103821
0.00104647
0.00105505
0.00106396
0.0010732
0.00108278
0.0010927
0.00110296
0.00111356
0.0011245
0.0011358
0.00114744
0.00115945
0.00117181
0.00118453
0.00119763
0.00121109
0.00122493
0.00123914
0.00125374
0.00126873
0.0012841
0.00129987
0.00131605
0.00133262
0.0013496
0.001367
0.00138481
0.00140304
0.0014217
0.00144079
0.00146031
0.00148028
0.000941661
0.000941919
0.000942741
0.000944011
0.000945711
0.00094783
0.000950348
0.000953254
0.000956536
0.000960184
0.000964188
0.000968539
0.000973231
0.000978255
0.000983606
0.00098928
0.000995273
0.00100158
0.00100821
0.00101516
0.00102243
0.00103002
0.00103793
0.00104617
0.00105473
0.00106363
0.00107285
0.00108241
0.0010923
0.00110254
0.00111311
0.00112403
0.0011353
0.00114691
0.00115888
0.00117121
0.0011839
0.00119696
0.00121038
0.00122417
0.00123834
0.00125289
0.00126783
0.00128315
0.00129886
0.00131497
0.00133148
0.00134839
0.00136572
0.00138345
0.0014016
0.00142017
0.00143917
0.0014586
0.00147846
0.000941482
0.00094174
0.00094256
0.000943827
0.000945524
0.000947638
0.000950151
0.000953051
0.000956325
0.000959964
0.000963959
0.0009683
0.000972981
0.000977993
0.000983331
0.000988991
0.000994968
0.00100126
0.00100788
0.00101481
0.00102205
0.00102962
0.00103751
0.00104572
0.00105426
0.00106313
0.00107232
0.00108185
0.00109171
0.00110191
0.00111245
0.00112332
0.00113455
0.00114612
0.00115804
0.00117032
0.00118296
0.00119595
0.00120931
0.00122304
0.00123715
0.00125162
0.00126648
0.00128172
0.00129735
0.00131337
0.00132978
0.00134659
0.0013638
0.00138142
0.00139945
0.00141789
0.00143675
0.00145603
0.00147573
0.000941244
0.000941501
0.000942319
0.000943582
0.000945274
0.000947382
0.000949888
0.000952779
0.000956044
0.000959672
0.000963654
0.000967982
0.000972648
0.000977644
0.000982965
0.000988606
0.000994564
0.00100084
0.00100743
0.00101433
0.00102155
0.00102909
0.00103695
0.00104513
0.00105364
0.00106247
0.00107162
0.00108111
0.00109092
0.00110107
0.00111156
0.00112238
0.00113355
0.00114506
0.00115692
0.00116913
0.0011817
0.00119462
0.0012079
0.00122154
0.00123555
0.00124993
0.00126469
0.00127982
0.00129533
0.00131123
0.00132752
0.00134419
0.00136126
0.00137873
0.00139659
0.00141486
0.00143354
0.00145263
0.00147212
0.000940946
0.000941203
0.000942018
0.000943277
0.000944963
0.000947062
0.000949559
0.00095244
0.000955692
0.000959307
0.000963274
0.000967585
0.000972233
0.000977209
0.000982508
0.000988125
0.000994058
0.0010003
0.00100687
0.00101374
0.00102093
0.00102843
0.00103625
0.00104439
0.00105286
0.00106164
0.00107075
0.00108018
0.00108994
0.00110003
0.00111045
0.00112121
0.00113231
0.00114375
0.00115553
0.00116765
0.00118013
0.00119295
0.00120613
0.00121967
0.00123357
0.00124783
0.00126246
0.00127746
0.00129283
0.00130858
0.0013247
0.00134121
0.0013581
0.00137538
0.00139304
0.0014111
0.00142955
0.0014484
0.00146764
0.000940589
0.000940846
0.000941657
0.00094291
0.000944589
0.00094668
0.000949166
0.000952034
0.000955272
0.00095887
0.000962819
0.00096711
0.000971735
0.000976687
0.00098196
0.00098755
0.000993453
0.000999668
0.00100619
0.00101303
0.00102018
0.00102764
0.00103542
0.00104351
0.00105192
0.00106065
0.0010697
0.00107907
0.00108876
0.00109878
0.00110913
0.00111981
0.00113083
0.00114217
0.00115386
0.00116588
0.00117825
0.00119097
0.00120403
0.00121744
0.0012312
0.00124532
0.0012598
0.00127464
0.00128984
0.00130541
0.00132135
0.00133766
0.00135433
0.00137139
0.00138882
0.00140663
0.00142481
0.00144337
0.0014623
0.00150171
0.00152295
0.00154512
0.00156824
0.00159238
0.00161761
0.00164398
0.00167157
0.00170045
0.00173072
0.00176245
0.00179574
0.00183071
0.00186746
0.00190611
0.00194681
0.0019897
0.00203495
0.00208272
0.00213321
0.00218663
0.00224322
0.00230323
0.00236695
0.00243467
0.00250674
0.00258355
0.0026655
0.00275306
0.00284674
0.00294709
0.00305473
0.00317034
0.00329465
0.00342845
0.00357257
0.00372786
0.00389513
0.00407509
0.00426819
0.00447445
0.00469315
0.00492251
0.00515944
0.00539991
0.00563973
0.00587498
0.00611194
0.0064167
0.00688029
0.00150078
0.00152204
0.00154418
0.0015673
0.00159144
0.00161666
0.00164303
0.00167061
0.00169949
0.00172975
0.00176148
0.00179476
0.00182972
0.00186645
0.00190509
0.00194578
0.00198864
0.00203385
0.00208159
0.00213203
0.0021854
0.00224192
0.00230184
0.00236544
0.00243303
0.00250494
0.00258154
0.00266324
0.00275048
0.00284376
0.00294362
0.00305064
0.00316546
0.00328876
0.00342128
0.00356374
0.0037169
0.0038814
0.00405776
0.00424616
0.00444626
0.00465689
0.00487569
0.00509887
0.00532148
0.00553844
0.0057453
0.00594745
0.00620676
0.00660734
0.00149891
0.00152015
0.0015423
0.00156541
0.00158954
0.00161476
0.00164112
0.0016687
0.00169757
0.00172782
0.00175953
0.0017928
0.00182773
0.00186445
0.00190306
0.0019437
0.00198652
0.00203167
0.00207933
0.00212968
0.00218294
0.00223932
0.00229907
0.00236246
0.00242978
0.00250137
0.00257756
0.00265876
0.00274538
0.00283788
0.00293676
0.00304254
0.00315581
0.00327713
0.00340711
0.00354632
0.00369527
0.0038543
0.00402351
0.00420254
0.00439034
0.0045848
0.00478237
0.00497781
0.00516438
0.00533511
0.0054847
0.00561705
0.0057814
0.00606854
0.00149609
0.00151733
0.00153947
0.00156257
0.0015867
0.0016119
0.00163825
0.00166581
0.00169467
0.0017249
0.00175659
0.00178983
0.00182473
0.0018614
0.00189996
0.00194054
0.00198328
0.00202834
0.00207588
0.00212609
0.00217916
0.00223532
0.0022948
0.00235786
0.00242478
0.00249586
0.00257144
0.00265186
0.00273752
0.00282883
0.00292622
0.00303013
0.00314103
0.00325936
0.00338552
0.00351982
0.00366244
0.00381327
0.0039718
0.00413686
0.00430632
0.00447668
0.0046426
0.00479665
0.00492946
0.00503112
0.00509493
0.00512603
0.00515821
0.0052454
0.00149237
0.0015136
0.00153573
0.00155882
0.00158294
0.00160813
0.00163447
0.00166202
0.00169086
0.00172107
0.00175274
0.00178595
0.00182082
0.00185744
0.00189595
0.00193645
0.0019791
0.00202405
0.00207145
0.00212148
0.00217433
0.00223021
0.00228935
0.00235198
0.00241837
0.00248879
0.00256355
0.00264296
0.00272735
0.00281708
0.00291247
0.00301388
0.0031216
0.00323589
0.00335688
0.00348455
0.0036186
0.0037583
0.00390233
0.00404844
0.00419308
0.0043309
0.00445428
0.00455295
0.00461422
0.00462432
0.00457378
0.00447073
0.00433785
0.00411618
0.00148774
0.00150897
0.00153111
0.00155422
0.00157834
0.00160356
0.00162992
0.0016575
0.00168637
0.00171661
0.00174831
0.00178156
0.00181646
0.00185312
0.00189165
0.00193218
0.00197484
0.00201979
0.00206717
0.00211717
0.00216995
0.00222573
0.00228471
0.00234712
0.0024132
0.00248321
0.00255742
0.0026361
0.00271953
0.00280799
0.00290172
0.00300094
0.00310578
0.00321623
0.00333212
0.00345294
0.00357773
0.00370486
0.00383173
0.00395433
0.00406677
0.00416069
0.00422462
0.00424382
0.00420047
0.00407563
0.00385531
0.00354844
0.00316959
0.00253092
0.0014822
0.00150336
0.00152544
0.0015485
0.00157257
0.00159774
0.00162405
0.00165158
0.00168041
0.0017106
0.00174225
0.00177545
0.0018103
0.0018469
0.00188537
0.00192583
0.00196841
0.00201327
0.00206054
0.0021104
0.00216303
0.00221861
0.00227734
0.00233945
0.00240515
0.00247468
0.00254827
0.00262617
0.00270861
0.00279579
0.00288786
0.00298493
0.00308694
0.00319365
0.00330454
0.00341858
0.0035341
0.00364836
0.00375716
0.00385424
0.00393048
0.0039732
0.00396546
0.0038861
0.00371055
0.00341236
0.00297397
0.00240871
0.00168065
0.000497967
-0.00349218
-0.00356272
-0.00358067
-0.00356047
-0.00351453
-0.00344554
-0.00335487
-0.00324737
-0.00312282
-0.0029837
-0.00283239
-0.00267116
-0.00250227
-0.00232815
-0.00215103
-0.00197309
-0.00179638
-0.00162277
-0.00145394
-0.00129135
-0.00113622
-0.000989536
-0.000852076
-0.000724377
-0.000606759
-0.000499348
-0.000402097
-0.000314808
-0.000237156
-0.000168708
-0.00010895
-5.73085e-05
-1.31681e-05
2.41072e-05
5.51603e-05
8.06264e-05
0.000101122
0.000117238
0.000129529
0.000138513
0.000144664
0.000148414
0.000150154
0.000150228
0.000148943
0.000146565
0.000143326
0.000139422
0.000135022
0.000130267
-0.00357399
-0.00362133
-0.00362541
-0.00359708
-0.00354573
-0.00347283
-0.00337834
-0.00327154
-0.00314696
-0.00300783
-0.00285651
-0.00269525
-0.00252638
-0.00235218
-0.00217486
-0.00199659
-0.00181942
-0.00164521
-0.00147566
-0.00131224
-0.0011562
-0.00100854
-0.000870047
-0.000741284
-0.000622594
-0.000514113
-0.000415807
-0.000327493
-0.000248851
-0.000179458
-0.000118804
-6.63179e-05
-2.13877e-05
1.66228e-05
4.83569e-05
7.44512e-05
9.55247e-05
0.000112169
0.000124944
0.000134368
0.00014092
0.000145035
0.000147105
0.000147478
0.000146463
0.00014433
0.000141311
0.000137607
0.000133387
0.000128797
-0.00373678
-0.00373647
-0.00371324
-0.00366882
-0.00360672
-0.0035276
-0.00343306
-0.0033202
-0.00319356
-0.0030542
-0.00290258
-0.00274139
-0.00257266
-0.00239839
-0.00222078
-0.00204197
-0.00186398
-0.0016887
-0.00151783
-0.00135287
-0.00119511
-0.00104559
-0.000905128
-0.000774331
-0.000653571
-0.000543024
-0.000442677
-0.00035237
-0.000271805
-0.00020057
-0.000138167
-8.40326e-05
-3.75573e-05
1.89286e-06
3.49619e-05
6.22887e-05
8.4496e-05
0.00010218
0.000115905
0.000126196
0.000133537
0.000138368
0.000141088
0.00014205
0.000141568
0.000139916
0.000137332
0.00013402
0.000130154
0.000125887
-0.0039864
-0.00389989
-0.00384094
-0.00377213
-0.0036936
-0.00360379
-0.00350346
-0.00338826
-0.00325778
-0.00311849
-0.00296736
-0.00280647
-0.00263793
-0.00246369
-0.00228581
-0.00210636
-0.00192734
-0.00175063
-0.00157799
-0.00141093
-0.0012508
-0.0010987
-0.000955488
-0.00082183
-0.000698153
-0.000584676
-0.00048143
-0.000388286
-0.000304975
-0.000231106
-0.000166198
-0.000109697
-6.10015e-05
-1.94798e-05
1.55122e-05
4.46164e-05
6.84601e-05
8.76459e-05
0.000102745
0.000114289
0.000122772
0.00012864
0.000132301
0.000134116
0.000134405
0.000133451
0.000131496
0.000128753
0.000125399
0.000121602
-0.00430019
-0.0041126
-0.00400516
-0.00390137
-0.00380063
-0.0036964
-0.00358844
-0.00346803
-0.00333726
-0.00319629
-0.00304489
-0.00288439
-0.00271632
-0.00254239
-0.00236448
-0.00218457
-0.00200461
-0.00182651
-0.00165199
-0.00148266
-0.00131988
-0.00116483
-0.00101844
-0.000881426
-0.000754286
-0.000637299
-0.000530548
-0.000433949
-0.000347269
-0.000270149
-0.000202129
-0.000142673
-9.11911e-05
-4.70568e-05
-9.62834e-06
2.17372e-05
4.76711e-05
6.87819e-05
8.56475e-05
9.88095e-05
0.000108768
0.000115982
0.000120866
0.00012379
0.000125084
0.000125037
0.000123903
0.0001219
0.000119214
0.000116026
-0.00463081
-0.00437446
-0.00420652
-0.00405848
-0.00392494
-0.00380219
-0.00368015
-0.00355183
-0.00341717
-0.00327446
-0.00312319
-0.00296382
-0.00279727
-0.00262488
-0.00244828
-0.00226923
-0.0020896
-0.00191121
-0.00173578
-0.00156494
-0.00140011
-0.00124251
-0.00109317
-0.000952869
-0.000822194
-0.000701492
-0.000590925
-0.00049047
-0.000399952
-0.000319057
-0.000247365
-0.000184371
-0.000129506
-8.21616e-05
-4.17066e-05
-7.50332e-06
2.10777e-05
4.46465e-05
6.37852e-05
7.90411e-05
9.09224e-05
9.98951e-05
0.000106383
0.000110765
0.000113382
0.000114532
0.000114476
0.000113443
0.00011163
0.000109228
-0.00494808
-0.00470085
-0.00447524
-0.00426863
-0.00408608
-0.00394355
-0.00379953
-0.00365877
-0.00351692
-0.00337049
-0.00321799
-0.00305887
-0.00289337
-0.00272228
-0.00254683
-0.00236854
-0.00218907
-0.00201016
-0.00183351
-0.00166076
-0.00149338
-0.00133267
-0.00117974
-0.00103547
-0.000900545
-0.000775393
-0.000660264
-0.000555216
-0.000460139
-0.000374777
-0.000298756
-0.000231606
-0.000172786
-0.000121706
-7.77459e-05
-4.0274e-05
-8.66079e-06
1.77073e-05
3.94189e-05
5.70302e-05
7.10598e-05
8.19855e-05
9.02427e-05
9.62243e-05
0.000100282
0.000102726
0.000103831
0.000103835
0.000102948
0.000101361
0.000125265
0.000120018
0.000114597
0.000109087
0.000103544
9.80165e-05
9.25463e-05
8.71685e-05
8.19114e-05
7.67977e-05
7.18456e-05
6.70686e-05
6.2477e-05
5.80776e-05
5.38746e-05
4.98699e-05
4.60636e-05
4.24539e-05
3.9038e-05
3.5812e-05
3.2771e-05
2.99097e-05
2.72225e-05
2.47034e-05
2.23462e-05
2.0145e-05
1.80937e-05
1.61864e-05
1.44172e-05
1.27804e-05
1.12701e-05
9.88034e-06
8.60527e-06
7.43881e-06
6.37484e-06
5.40725e-06
4.52997e-06
3.73705e-06
3.02271e-06
2.38138e-06
1.80777e-06
1.29684e-06
8.43827e-07
4.44379e-07
9.38338e-08
-2.10954e-07
-4.74316e-07
-6.99658e-07
-8.90207e-07
-1.0491e-06
-1.17924e-06
-1.28339e-06
-1.3641e-06
-1.4238e-06
-1.46472e-06
-1.48897e-06
-1.4985e-06
-1.49512e-06
-1.4805e-06
-1.4562e-06
-1.42364e-06
-1.38411e-06
-1.3388e-06
-1.2888e-06
-1.2351e-06
-1.17858e-06
-1.12004e-06
-1.06019e-06
-9.99653e-07
-9.38993e-07
-8.78688e-07
-8.19162e-07
-7.60781e-07
-7.03849e-07
-6.48616e-07
-5.95297e-07
-5.44048e-07
-4.95009e-07
-4.48259e-07
-4.03902e-07
-3.61871e-07
-3.22368e-07
-2.84989e-07
-2.50456e-07
-2.17261e-07
-1.88093e-07
-1.57805e-07
-1.35472e-07
-1.04831e-07
-9.36138e-08
-5.4854e-08
-6.54927e-08
-1.91422e-09
-5.69961e-08
6.30959e-08
-7.63662e-08
1.50381e-07
-1.30219e-07
2.64265e-07
-2.13966e-07
3.91701e-07
-2.99819e-07
4.93226e-07
-3.34657e-07
5.11544e-07
-2.63036e-07
4.09883e-07
-7.72306e-08
2.25851e-07
1.36434e-07
9.4498e-08
2.08771e-07
1.94258e-07
-2.60107e-08
6.36394e-07
0.000123968
0.000118822
0.000113494
0.00010808
0.000102627
9.7182e-05
9.17881e-05
8.64802e-05
8.12871e-05
7.62319e-05
7.13329e-05
6.66042e-05
6.20565e-05
5.76969e-05
5.35301e-05
4.95583e-05
4.57817e-05
4.21991e-05
3.88078e-05
3.5604e-05
3.25833e-05
2.97404e-05
2.70699e-05
2.4566e-05
2.22227e-05
2.0034e-05
1.79942e-05
1.60972e-05
1.43375e-05
1.27091e-05
1.12065e-05
9.82362e-06
8.55473e-06
7.3938e-06
6.33478e-06
5.37161e-06
4.49828e-06
3.70889e-06
2.99771e-06
2.35921e-06
1.78813e-06
1.27947e-06
8.2849e-07
4.30864e-07
8.19511e-08
-2.21379e-07
-4.83437e-07
-7.07617e-07
-8.97131e-07
-1.0551e-06
-1.18443e-06
-1.28785e-06
-1.36793e-06
-1.42706e-06
-1.46749e-06
-1.4913e-06
-1.50045e-06
-1.49674e-06
-1.48184e-06
-1.45729e-06
-1.42451e-06
-1.3848e-06
-1.33934e-06
-1.28921e-06
-1.23539e-06
-1.17878e-06
-1.12016e-06
-1.06024e-06
-9.99658e-07
-9.38956e-07
-8.78618e-07
-8.19067e-07
-7.60667e-07
-7.03722e-07
-6.48481e-07
-5.95157e-07
-5.43907e-07
-4.94869e-07
-4.48121e-07
-4.03768e-07
-3.61742e-07
-3.22245e-07
-2.84872e-07
-2.50347e-07
-2.17159e-07
-1.87997e-07
-1.57718e-07
-1.35389e-07
-1.04759e-07
-9.3542e-08
-5.47997e-08
-6.54291e-08
-1.87802e-09
-5.6935e-08
6.31131e-08
-7.6304e-08
1.50378e-07
-1.30157e-07
2.64248e-07
-2.13908e-07
3.91682e-07
-2.9978e-07
4.93219e-07
-3.34649e-07
5.11557e-07
-2.63056e-07
4.09913e-07
-7.72669e-08
2.25878e-07
1.36416e-07
9.45097e-08
2.08756e-07
1.94346e-07
-2.6134e-08
6.36706e-07
0.000121387
0.000116446
0.000111305
0.00010608
0.000100805
9.55246e-05
9.02818e-05
8.51127e-05
8.00464e-05
7.51068e-05
7.03131e-05
6.56804e-05
6.12197e-05
5.69393e-05
5.28443e-05
4.89377e-05
4.52204e-05
4.16915e-05
3.8349e-05
3.51896e-05
3.22092e-05
2.9403e-05
2.67658e-05
2.42922e-05
2.19764e-05
1.98128e-05
1.77957e-05
1.59195e-05
1.41784e-05
1.2567e-05
1.10795e-05
9.71043e-06
8.45385e-06
7.30395e-06
6.2548e-06
5.30046e-06
4.43501e-06
3.65267e-06
2.94779e-06
2.31494e-06
1.74891e-06
1.24478e-06
7.97864e-07
4.03874e-07
5.82222e-08
-2.42197e-07
-5.01654e-07
-7.23513e-07
-9.1096e-07
-1.06709e-06
-1.19479e-06
-1.29677e-06
-1.37557e-06
-1.43358e-06
-1.47302e-06
-1.49597e-06
-1.50436e-06
-1.49999e-06
-1.48452e-06
-1.45947e-06
-1.42627e-06
-1.38619e-06
-1.34041e-06
-1.29002e-06
-1.23598e-06
-1.17918e-06
-1.12041e-06
-1.06036e-06
-9.99669e-07
-9.38883e-07
-8.7848e-07
-8.18879e-07
-7.60442e-07
-7.0347e-07
-6.48212e-07
-5.94877e-07
-5.43624e-07
-4.94588e-07
-4.47845e-07
-4.035e-07
-3.61485e-07
-3.22e-07
-2.8464e-07
-2.50128e-07
-2.16956e-07
-1.87808e-07
-1.57548e-07
-1.35226e-07
-1.04618e-07
-9.34008e-08
-5.46941e-08
-6.53048e-08
-1.80697e-09
-5.68139e-08
6.31471e-08
-7.61817e-08
1.50372e-07
-1.30035e-07
2.64212e-07
-2.13796e-07
3.91642e-07
-2.99703e-07
4.932e-07
-3.34632e-07
5.11583e-07
-2.63098e-07
4.09971e-07
-7.73378e-08
2.25929e-07
1.36375e-07
9.45366e-08
2.08724e-07
1.94519e-07
-2.63841e-08
6.37326e-07
0.000117554
0.000112917
0.000108061
0.000103116
9.81052e-05
9.30672e-05
8.80476e-05
8.30832e-05
7.82041e-05
7.34355e-05
6.87975e-05
6.43066e-05
5.99749e-05
5.58118e-05
5.18234e-05
4.80136e-05
4.43842e-05
4.09352e-05
3.76653e-05
3.45718e-05
3.16514e-05
2.88997e-05
2.63122e-05
2.38837e-05
2.1609e-05
1.94827e-05
1.74995e-05
1.5654e-05
1.39408e-05
1.23546e-05
1.08899e-05
9.54126e-06
8.30305e-06
7.16962e-06
6.1352e-06
5.19404e-06
4.34038e-06
3.56857e-06
2.87312e-06
2.2487e-06
1.69024e-06
1.19288e-06
7.52042e-07
3.63492e-07
2.27187e-08
-2.73347e-07
-5.28911e-07
-7.47297e-07
-9.31651e-07
-1.08503e-06
-1.21029e-06
-1.31011e-06
-1.387e-06
-1.44333e-06
-1.48129e-06
-1.50295e-06
-1.51021e-06
-1.50485e-06
-1.48852e-06
-1.46274e-06
-1.42889e-06
-1.38826e-06
-1.34202e-06
-1.29123e-06
-1.23686e-06
-1.17978e-06
-1.12077e-06
-1.06053e-06
-9.99685e-07
-9.38773e-07
-8.78273e-07
-8.18597e-07
-7.60104e-07
-7.03092e-07
-6.47808e-07
-5.94458e-07
-5.432e-07
-4.94167e-07
-4.47432e-07
-4.03099e-07
-3.611e-07
-3.21632e-07
-2.84293e-07
-2.49802e-07
-2.16654e-07
-1.87526e-07
-1.57293e-07
-1.34982e-07
-1.04408e-07
-9.3191e-08
-5.45364e-08
-6.51198e-08
-1.70161e-09
-5.66363e-08
6.31965e-08
-7.60029e-08
1.50363e-07
-1.29857e-07
2.64162e-07
-2.13634e-07
3.91588e-07
-2.99597e-07
4.9318e-07
-3.34615e-07
5.11627e-07
-2.63168e-07
4.10062e-07
-7.74482e-08
2.26008e-07
1.36308e-07
9.45769e-08
2.08671e-07
1.9478e-07
-2.67628e-08
6.38252e-07
0.000112518
0.000108284
0.000103808
9.92327e-05
9.45651e-05
8.98434e-05
8.51145e-05
8.0417e-05
7.57822e-05
7.12367e-05
6.68023e-05
6.24969e-05
5.83342e-05
5.43249e-05
5.04763e-05
4.67937e-05
4.328e-05
3.99361e-05
3.67618e-05
3.37552e-05
3.09138e-05
2.82341e-05
2.57119e-05
2.3343e-05
2.11225e-05
1.90455e-05
1.71071e-05
1.53023e-05
1.3626e-05
1.20731e-05
1.06384e-05
9.31685e-06
8.10296e-06
6.99133e-06
5.97643e-06
5.05273e-06
4.2147e-06
3.45687e-06
2.77393e-06
2.16072e-06
1.6123e-06
1.12394e-06
6.91168e-07
3.09844e-07
-2.44456e-08
-3.14731e-07
-5.65124e-07
-7.78896e-07
-9.59141e-07
-1.10887e-06
-1.23089e-06
-1.32783e-06
-1.40219e-06
-1.45628e-06
-1.49228e-06
-1.51222e-06
-1.51798e-06
-1.51131e-06
-1.49384e-06
-1.46707e-06
-1.43237e-06
-1.39102e-06
-1.34415e-06
-1.29284e-06
-1.23802e-06
-1.18057e-06
-1.12125e-06
-1.06076e-06
-9.99702e-07
-9.38625e-07
-8.77994e-07
-8.18219e-07
-7.59652e-07
-7.02587e-07
-6.47269e-07
-5.939e-07
-5.42634e-07
-4.93605e-07
-4.46881e-07
-4.02564e-07
-3.60586e-07
-3.21143e-07
-2.83831e-07
-2.49368e-07
-2.16252e-07
-1.8715e-07
-1.56953e-07
-1.34658e-07
-1.04129e-07
-9.29135e-08
-5.43255e-08
-6.48758e-08
-1.55939e-09
-5.6406e-08
6.32669e-08
-7.57754e-08
1.50362e-07
-1.29637e-07
2.64115e-07
-2.13445e-07
3.91542e-07
-2.99488e-07
4.93188e-07
-3.34626e-07
5.11718e-07
-2.6329e-07
4.10203e-07
-7.76094e-08
2.26119e-07
1.36216e-07
9.46292e-08
2.08598e-07
1.95129e-07
-2.72786e-08
6.39491e-07
0.000106339
0.00010261
9.86112e-05
9.44856e-05
9.02345e-05
8.58964e-05
8.15205e-05
7.71469e-05
7.28089e-05
6.85349e-05
6.43486e-05
6.02696e-05
5.63135e-05
5.24922e-05
4.88151e-05
4.52885e-05
4.19167e-05
3.8702e-05
3.56452e-05
3.27457e-05
3.00016e-05
2.74105e-05
2.49691e-05
2.26737e-05
2.052e-05
1.85039e-05
1.66209e-05
1.48662e-05
1.32354e-05
1.17237e-05
1.03263e-05
9.03818e-06
7.85439e-06
6.76977e-06
5.77909e-06
4.87706e-06
4.05842e-06
3.31795e-06
2.65056e-06
2.05127e-06
1.51533e-06
1.03817e-06
6.1543e-07
2.43095e-07
-8.31227e-08
-3.66219e-07
-6.1018e-07
-8.18213e-07
-9.93346e-07
-1.13853e-06
-1.25651e-06
-1.34989e-06
-1.42109e-06
-1.4724e-06
-1.50596e-06
-1.52375e-06
-1.52764e-06
-1.51934e-06
-1.50045e-06
-1.47245e-06
-1.4367e-06
-1.39444e-06
-1.3468e-06
-1.29483e-06
-1.23946e-06
-1.18154e-06
-1.12184e-06
-1.06103e-06
-9.99719e-07
-9.38435e-07
-8.77643e-07
-8.17744e-07
-7.59084e-07
-7.01954e-07
-6.46593e-07
-5.932e-07
-5.41927e-07
-4.92901e-07
-4.46191e-07
-4.01894e-07
-3.59944e-07
-3.20531e-07
-2.83254e-07
-2.48825e-07
-2.1575e-07
-1.86681e-07
-1.56529e-07
-1.34255e-07
-1.03783e-07
-9.25675e-08
-5.40628e-08
-6.45709e-08
-1.38341e-09
-5.61184e-08
6.33519e-08
-7.5491e-08
1.50358e-07
-1.2936e-07
2.64051e-07
-2.13206e-07
3.91479e-07
-2.99346e-07
4.9319e-07
-3.34634e-07
5.11825e-07
-2.63436e-07
4.10374e-07
-7.78066e-08
2.26256e-07
1.36098e-07
9.47005e-08
2.08495e-07
1.95573e-07
-2.79255e-08
6.41018e-07
9.91029e-05
9.59782e-05
9.25484e-05
8.89428e-05
8.51717e-05
8.12769e-05
7.7309e-05
7.33105e-05
6.93166e-05
6.5358e-05
6.14605e-05
5.76456e-05
5.39305e-05
5.03294e-05
4.6853e-05
4.35095e-05
4.03044e-05
3.72417e-05
3.43233e-05
3.15498e-05
2.89206e-05
2.64341e-05
2.4088e-05
2.18794e-05
1.98048e-05
1.78607e-05
1.60431e-05
1.43479e-05
1.2771e-05
1.13081e-05
9.9547e-06
8.70632e-06
7.55827e-06
6.50573e-06
5.54381e-06
4.66756e-06
3.87201e-06
3.15223e-06
2.50336e-06
1.92068e-06
1.39962e-06
9.35806e-07
5.25038e-07
1.63427e-07
-1.53164e-07
-4.27679e-07
-6.63965e-07
-8.65148e-07
-1.03418e-06
-1.17393e-06
-1.2871e-06
-1.37622e-06
-1.44365e-06
-1.49165e-06
-1.52228e-06
-1.53752e-06
-1.53917e-06
-1.52892e-06
-1.50834e-06
-1.47888e-06
-1.44186e-06
-1.39852e-06
-1.34996e-06
-1.2972e-06
-1.24117e-06
-1.1827e-06
-1.12254e-06
-1.06135e-06
-9.99732e-07
-9.38203e-07
-8.77217e-07
-8.1717e-07
-7.58401e-07
-7.01193e-07
-6.45782e-07
-5.9236e-07
-5.41077e-07
-4.92057e-07
-4.45363e-07
-4.01091e-07
-3.59174e-07
-3.19797e-07
-2.82563e-07
-2.48175e-07
-2.15149e-07
-1.86117e-07
-1.56023e-07
-1.3377e-07
-1.03374e-07
-9.21445e-08
-5.3763e-08
-6.41835e-08
-1.20686e-09
-5.57256e-08
6.33825e-08
-7.50546e-08
1.50222e-07
-1.28861e-07
2.63764e-07
-2.12666e-07
3.91107e-07
-2.9885e-07
4.92847e-07
-3.34297e-07
5.11627e-07
-2.63331e-07
4.10362e-07
-7.79036e-08
2.2636e-07
1.35946e-07
9.4837e-08
2.08315e-07
1.96111e-07
-2.86123e-08
6.42646e-07
9.0666e-05
8.82823e-05
8.55374e-05
8.25276e-05
7.93024e-05
7.59132e-05
7.24118e-05
6.88428e-05
6.52441e-05
6.16486e-05
5.80842e-05
5.45745e-05
5.11389e-05
4.77933e-05
4.45503e-05
4.14199e-05
3.84094e-05
3.55241e-05
3.27676e-05
3.01416e-05
2.76469e-05
2.52831e-05
2.30488e-05
2.09421e-05
1.89604e-05
1.71009e-05
1.53602e-05
1.3735e-05
1.22215e-05
1.08161e-05
9.51467e-06
8.31314e-06
7.20726e-06
6.19263e-06
5.26473e-06
4.41898e-06
3.65077e-06
2.95549e-06
2.32859e-06
1.7656e-06
1.26221e-06
8.14235e-07
4.17674e-07
6.8793e-08
-2.36384e-07
-5.00701e-07
-7.27867e-07
-9.20913e-07
-1.0827e-06
-1.21601e-06
-1.32346e-06
-1.40751e-06
-1.47047e-06
-1.51451e-06
-1.54168e-06
-1.55388e-06
-1.55287e-06
-1.5403e-06
-1.51771e-06
-1.48651e-06
-1.448e-06
-1.40336e-06
-1.35371e-06
-1.30002e-06
-1.2432e-06
-1.18407e-06
-1.12336e-06
-1.06173e-06
-9.99742e-07
-9.37921e-07
-8.76706e-07
-8.16484e-07
-7.57584e-07
-7.00284e-07
-6.44812e-07
-5.91357e-07
-5.40062e-07
-4.91048e-07
-4.44375e-07
-4.00133e-07
-3.58255e-07
-3.18921e-07
-2.81739e-07
-2.47399e-07
-2.14434e-07
-1.85443e-07
-1.55424e-07
-1.33185e-07
-1.02897e-07
-9.16248e-08
-5.34311e-08
-6.36827e-08
-1.05617e-09
-5.51714e-08
6.3294e-08
-7.43644e-08
1.4983e-07
-1.27968e-07
2.63046e-07
-2.11571e-07
3.90138e-07
-2.97678e-07
4.91821e-07
-3.3328e-07
5.10815e-07
-2.62714e-07
4.09971e-07
-7.77841e-08
2.26389e-07
1.35733e-07
9.51055e-08
2.07986e-07
1.96778e-07
-2.92837e-08
6.44274e-07
8.1275e-05
7.96613e-05
7.76322e-05
7.52747e-05
7.26532e-05
6.98249e-05
6.6843e-05
6.3754e-05
6.05983e-05
5.74108e-05
5.42218e-05
5.10569e-05
4.79376e-05
4.48818e-05
4.19042e-05
3.90165e-05
3.62278e-05
3.35453e-05
3.09738e-05
2.85169e-05
2.61764e-05
2.39534e-05
2.18476e-05
1.9858e-05
1.79832e-05
1.6221e-05
1.4569e-05
1.30244e-05
1.15841e-05
1.0245e-05
9.0035e-06
7.85612e-06
6.79903e-06
5.82828e-06
4.93982e-06
4.12947e-06
3.39302e-06
2.72623e-06
2.12488e-06
1.58483e-06
1.10201e-06
6.72496e-07
2.92493e-07
-4.15452e-08
-3.33432e-07
-5.85849e-07
-8.02375e-07
-9.85932e-07
-1.13926e-06
-1.26506e-06
-1.36584e-06
-1.44398e-06
-1.50172e-06
-1.54117e-06
-1.56429e-06
-1.57293e-06
-1.56882e-06
-1.55356e-06
-1.52862e-06
-1.49538e-06
-1.45512e-06
-1.40899e-06
-1.35805e-06
-1.30327e-06
-1.24554e-06
-1.18565e-06
-1.1243e-06
-1.06214e-06
-9.99731e-07
-9.3757e-07
-8.76088e-07
-8.15662e-07
-7.56611e-07
-6.99204e-07
-6.43664e-07
-5.9017e-07
-5.38863e-07
-4.89857e-07
-4.43208e-07
-3.99002e-07
-3.57171e-07
-3.1789e-07
-2.80767e-07
-2.46486e-07
-2.1359e-07
-1.84653e-07
-1.54712e-07
-1.32508e-07
-1.02321e-07
-9.10399e-08
-5.30007e-08
-6.31553e-08
-7.88664e-10
-5.46515e-08
6.33724e-08
-7.38033e-08
1.49698e-07
-1.27341e-07
2.62723e-07
-2.10906e-07
3.89712e-07
-2.97084e-07
4.91438e-07
-3.32904e-07
5.10629e-07
-2.62655e-07
4.10039e-07
-7.80099e-08
2.26631e-07
1.35396e-07
9.54421e-08
2.07554e-07
1.97712e-07
-3.04361e-08
6.46765e-07
7.12448e-05
7.04018e-05
6.91021e-05
6.74261e-05
6.54412e-05
6.32069e-05
6.07775e-05
5.82011e-05
5.552e-05
5.27712e-05
4.99868e-05
4.71946e-05
4.4418e-05
4.16771e-05
3.89883e-05
3.63654e-05
3.38192e-05
3.13585e-05
2.89899e-05
2.67185e-05
2.45476e-05
2.24795e-05
2.05152e-05
1.86548e-05
1.68979e-05
1.52432e-05
1.36891e-05
1.22335e-05
1.08742e-05
9.60846e-06
8.43347e-06
7.34614e-06
6.34322e-06
5.42126e-06
4.57667e-06
3.80575e-06
3.10472e-06
2.46973e-06
1.89693e-06
1.3825e-06
9.22685e-07
5.13819e-07
1.52342e-07
-1.65086e-07
-4.421e-07
-6.81193e-07
-8.8581e-07
-1.05874e-06
-1.20261e-06
-1.31998e-06
-1.41329e-06
-1.48482e-06
-1.53671e-06
-1.571e-06
-1.58959e-06
-1.59426e-06
-1.58668e-06
-1.56838e-06
-1.54081e-06
-1.5053e-06
-1.46308e-06
-1.41526e-06
-1.36289e-06
-1.3069e-06
-1.24814e-06
-1.18738e-06
-1.12532e-06
-1.06258e-06
-9.99695e-07
-9.37154e-07
-8.75374e-07
-8.14721e-07
-7.55501e-07
-6.97976e-07
-6.42359e-07
-5.88824e-07
-5.37503e-07
-4.88507e-07
-4.41886e-07
-3.97723e-07
-3.55944e-07
-3.16723e-07
-2.79669e-07
-2.45454e-07
-2.12635e-07
-1.83763e-07
-1.53905e-07
-1.31749e-07
-1.01662e-07
-9.03929e-08
-5.24943e-08
-6.25906e-08
-4.42002e-10
-5.41289e-08
6.35486e-08
-7.32891e-08
1.49703e-07
-1.26828e-07
2.62597e-07
-2.10438e-07
3.89549e-07
-2.96762e-07
4.91371e-07
-3.32844e-07
5.10761e-07
-2.62893e-07
4.10365e-07
-7.84563e-08
2.27041e-07
1.34918e-07
9.59071e-08
2.0696e-07
1.98916e-07
-3.19732e-08
6.49925e-07
6.06704e-05
6.06063e-05
6.00497e-05
5.90752e-05
5.77495e-05
5.61329e-05
5.42806e-05
5.22416e-05
5.006e-05
4.77743e-05
4.54185e-05
4.30221e-05
4.06106e-05
3.82058e-05
3.58261e-05
3.3487e-05
3.12013e-05
2.89794e-05
2.68296e-05
2.47586e-05
2.27711e-05
2.08707e-05
1.90597e-05
1.73395e-05
1.57105e-05
1.41726e-05
1.2725e-05
1.13664e-05
1.00952e-05
8.90956e-06
7.80709e-06
6.78538e-06
5.8417e-06
4.97315e-06
4.17667e-06
3.44903e-06
2.78691e-06
2.18688e-06
1.6455e-06
1.15929e-06
7.24828e-07
3.38721e-07
-2.32883e-09
-3.01435e-07
-5.62038e-07
-7.86433e-07
-9.77912e-07
-1.13912e-06
-1.27254e-06
-1.38062e-06
-1.46568e-06
-1.5299e-06
-1.57534e-06
-1.60394e-06
-1.61752e-06
-1.6178e-06
-1.60637e-06
-1.58473e-06
-1.55426e-06
-1.51623e-06
-1.47184e-06
-1.42216e-06
-1.36821e-06
-1.31087e-06
-1.25098e-06
-1.18927e-06
-1.12643e-06
-1.06304e-06
-9.99627e-07
-9.36667e-07
-8.7456e-07
-8.13656e-07
-7.54252e-07
-6.96597e-07
-6.40896e-07
-5.87316e-07
-5.35983e-07
-4.86999e-07
-4.4041e-07
-3.96294e-07
-3.54576e-07
-3.15422e-07
-2.78443e-07
-2.44305e-07
-2.1157e-07
-1.8277e-07
-1.53005e-07
-1.30904e-07
-1.00926e-07
-8.9675e-08
-5.19266e-08
-6.19665e-08
-5.00688e-11
-5.35543e-08
6.37522e-08
-7.27248e-08
1.49715e-07
-1.26261e-07
2.62455e-07
-2.0991e-07
3.89354e-07
-2.96384e-07
4.91271e-07
-3.32749e-07
5.10885e-07
-2.63146e-07
4.10734e-07
-7.89833e-08
2.27557e-07
1.34289e-07
9.65494e-08
2.06151e-07
2.00394e-07
-3.38023e-08
6.53563e-07
4.96559e-05
5.03792e-05
5.05744e-05
5.03128e-05
4.966e-05
4.86765e-05
4.74179e-05
4.59343e-05
4.42704e-05
4.24664e-05
4.05578e-05
3.85756e-05
3.65472e-05
3.44959e-05
3.24422e-05
3.04031e-05
2.83934e-05
2.64249e-05
2.45078e-05
2.26501e-05
2.08582e-05
1.91369e-05
1.74899e-05
1.59196e-05
1.44278e-05
1.30152e-05
1.16819e-05
1.04275e-05
9.25112e-06
8.15157e-06
7.12726e-06
6.17631e-06
5.29661e-06
4.48583e-06
3.74142e-06
3.06069e-06
2.44079e-06
1.87874e-06
1.37151e-06
9.16009e-07
5.09137e-07
1.47815e-07
-1.70984e-07
-4.50127e-07
-6.9284e-07
-9.01216e-07
-1.07837e-06
-1.22679e-06
-1.34882e-06
-1.44677e-06
-1.52283e-06
-1.57908e-06
-1.61747e-06
-1.63985e-06
-1.64797e-06
-1.64346e-06
-1.62784e-06
-1.60254e-06
-1.56889e-06
-1.52812e-06
-1.48137e-06
-1.42966e-06
-1.37397e-06
-1.31517e-06
-1.25404e-06
-1.1913e-06
-1.1276e-06
-1.0635e-06
-9.9952e-07
-9.36104e-07
-8.7364e-07
-8.12464e-07
-7.52859e-07
-6.95064e-07
-6.39274e-07
-5.85646e-07
-5.343e-07
-4.8533e-07
-4.38778e-07
-3.94716e-07
-3.53064e-07
-3.13986e-07
-2.77091e-07
-2.43036e-07
-2.10395e-07
-1.81676e-07