/*--------------------------------*- C++ -*----------------------------------*\
| =========                 |                                                 |
| \\      /  F ield         | OpenFOAM: The Open Source CFD Toolbox           |
|  \\    /   O peration     | Version:  2412                                  |
|   \\  /    A nd           | Website:  www.openfoam.com                      |
|    \\/     M anipulation  |                                                 |
\*---------------------------------------------------------------------------*/
FoamFile
{
    version     2.0;
    format      ascii;
    arch        "LSB;label=32;scalar=64";
    class       surfaceScalarField;
    location    "19.5";
    object      phi;
}
// * * * * * * * * * * * * * * * * * * * * * * * * * * * * * * * * * * * * * //

dimensions      [0 3 -1 0 0 0 0];

oriented        oriented;

internalField   nonuniform List<scalar> 
126304
(
0.00505063
1.28667e-07
-4.39653e-12
0.00505025
3.75725e-07
-2.08388e-13
0.00504964
6.09811e-07
1.46429e-11
0.00504881
8.30336e-07
4.28412e-11
0.00504777
1.03899e-06
8.24714e-11
0.00504653
1.24806e-06
1.15176e-10
0.00504504
1.48491e-06
9.84224e-11
0.00504326
1.78458e-06
-2.35668e-11
0.00504108
2.1725e-06
-2.90328e-10
0.00503844
2.64804e-06
-6.94668e-10
0.00503526
3.17908e-06
-1.17127e-09
0.00503155
3.7108e-06
-1.61191e-09
0.00502737
4.18334e-06
-1.89953e-09
0.00502282
4.54964e-06
-1.94449e-09
0.00501804
4.78637e-06
-1.70812e-09
0.00501314
4.89576e-06
-1.20718e-09
0.00500824
4.89999e-06
-5.0222e-10
0.00500341
4.83206e-06
3.22893e-10
0.00499868
4.72676e-06
1.18193e-09
0.00499406
4.61417e-06
2.00167e-09
0.00498955
4.51622e-06
2.73025e-09
0.0049851
4.44618e-06
3.33879e-09
0.00498068
4.40978e-06
3.81852e-09
0.00497627
4.40734e-06
4.17547e-09
0.00497183
4.43578e-06
4.42433e-09
0.00496734
4.49048e-06
4.58378e-09
0.00496276
4.56645e-06
4.67276e-09
0.0049581
4.65912e-06
4.70864e-09
0.00495333
4.76471e-06
4.70594e-09
0.00494845
4.88029e-06
4.67603e-09
0.00494344
5.00373e-06
4.62717e-09
0.0049383
5.13359e-06
4.56514e-09
0.00493303
5.26892e-06
4.49389e-09
0.00492761
5.40916e-06
4.41611e-09
0.00492205
5.55398e-06
4.33348e-09
0.00491635
5.70324e-06
4.24691e-09
0.00491049
5.85689e-06
4.1569e-09
0.00490447
6.01493e-06
4.06373e-09
0.00489829
6.17741e-06
3.96766e-09
0.00489194
6.34436e-06
3.86881e-09
0.00488542
6.51585e-06
3.76719e-09
0.00487872
6.69192e-06
3.66287e-09
0.00487185
6.87262e-06
3.55597e-09
0.00486478
7.05799e-06
3.4466e-09
0.00485753
7.24808e-06
3.33491e-09
0.00485009
7.44293e-06
3.22099e-09
0.00484244
7.64258e-06
3.10501e-09
0.00483459
7.84708e-06
2.98715e-09
0.00482653
8.0565e-06
2.86765e-09
0.00481826
8.27092e-06
2.74676e-09
0.00480977
8.49049e-06
2.62462e-09
0.00480105
8.71549e-06
2.5013e-09
0.0047921
8.94675e-06
2.37687e-09
0.00478291
9.18655e-06
2.25135e-09
9.44152e-06
0.00477347
2.12553e-09
0.00505063
2.57244e-07
0.00505025
7.51175e-07
0.00504964
1.2192e-06
0.00504881
1.66015e-06
0.00504778
2.07737e-06
0.00504653
2.4953e-06
0.00504504
2.96836e-06
0.00504326
3.5663e-06
0.0050411
4.33995e-06
0.00503846
5.28825e-06
0.00503529
6.34751e-06
0.00503159
7.40874e-06
0.00502742
8.35279e-06
0.00502288
9.08574e-06
0.00501811
9.56088e-06
0.00501322
9.78234e-06
0.00500833
9.794e-06
0.0050035
9.66138e-06
0.00499877
9.4537e-06
0.00499416
9.23082e-06
0.00498964
9.03656e-06
0.00498518
8.89742e-06
0.00498077
8.82499e-06
0.00497636
8.81999e-06
0.00497192
8.87643e-06
0.00496742
8.98515e-06
0.00496285
9.13629e-06
0.00495819
9.32077e-06
0.00495342
9.53108e-06
0.00494854
9.76137e-06
0.00494354
1.00074e-05
0.00493841
1.02664e-05
0.00493314
1.05362e-05
0.00492773
1.0816e-05
0.00492218
1.11049e-05
0.00491648
1.14027e-05
0.00491063
1.17092e-05
0.00490462
1.20246e-05
0.00489845
1.23488e-05
0.00489211
1.26819e-05
0.0048856
1.3024e-05
0.00487892
1.33753e-05
0.00487206
1.37358e-05
0.00486501
1.41057e-05
0.00485777
1.44848e-05
0.00485034
1.48735e-05
0.00484271
1.52717e-05
0.00483488
1.56796e-05
0.00482684
1.60972e-05
0.00481858
1.65247e-05
0.00481011
1.69624e-05
0.00480142
1.74109e-05
0.00479249
1.78716e-05
0.00478333
1.83492e-05
1.88561e-05
0.00477391
0.00505063
3.85651e-07
0.00505025
1.12608e-06
0.00504965
1.82773e-06
0.00504882
2.48882e-06
0.00504778
3.11437e-06
0.00504653
3.74067e-06
0.00504505
4.4487e-06
0.00504328
5.34246e-06
0.00504112
6.49803e-06
0.00503849
7.91442e-06
0.00503534
9.49729e-06
0.00503167
1.10846e-05
0.00502752
1.24986e-05
0.00502301
1.3599e-05
0.00501825
1.43154e-05
0.00501338
1.46532e-05
0.0050085
1.46771e-05
0.00500368
1.44846e-05
0.00499895
1.41785e-05
0.00499434
1.38483e-05
0.00498981
1.35595e-05
0.00498536
1.33519e-05
0.00498094
1.32432e-05
0.00497652
1.32347e-05
0.00497208
1.33178e-05
0.00496759
1.34789e-05
0.00496302
1.37034e-05
0.00495837
1.3978e-05
0.00495361
1.42913e-05
0.00494873
1.46347e-05
0.00494374
1.50018e-05
0.00493862
1.53883e-05
0.00493336
1.57914e-05
0.00492797
1.62093e-05
0.00492243
1.6641e-05
0.00491675
1.7086e-05
0.00491091
1.75442e-05
0.00490492
1.80156e-05
0.00489877
1.85001e-05
0.00489245
1.89981e-05
0.00488597
1.95095e-05
0.00487931
2.00345e-05
0.00487247
2.05732e-05
0.00486545
2.11258e-05
0.00485824
2.16924e-05
0.00485084
2.2273e-05
0.00484325
2.28678e-05
0.00483545
2.34769e-05
0.00482745
2.41005e-05
0.00481923
2.47387e-05
0.0048108
2.5392e-05
0.00480215
2.60611e-05
0.00479328
2.67482e-05
0.00478417
2.74594e-05
2.82126e-05
0.00477481
0.00505063
5.13803e-07
0.00505025
1.50016e-06
0.00504965
2.43495e-06
0.00504882
3.31579e-06
0.00504779
4.1493e-06
0.00504654
4.98325e-06
0.00504507
5.92443e-06
0.0050433
7.11042e-06
0.00504116
8.64239e-06
0.00503855
1.05201e-05
0.00503543
1.26199e-05
0.00503178
1.47281e-05
0.00502767
1.66099e-05
0.00502319
1.80788e-05
0.00501847
1.90405e-05
0.00501362
1.95007e-05
0.00500875
1.95441e-05
0.00500394
1.92984e-05
0.00499922
1.88998e-05
0.0049946
1.84665e-05
0.00499007
1.80857e-05
0.00498561
1.78107e-05
0.00498119
1.76654e-05
0.00497677
1.76521e-05
0.00497233
1.77598e-05
0.00496784
1.79709e-05
0.00496328
1.82663e-05
0.00495863
1.86283e-05
0.00495388
1.90421e-05
0.00494902
1.94961e-05
0.00494403
1.9982e-05
0.00493893
2.0494e-05
0.00493369
2.10282e-05
0.00492832
2.15822e-05
0.00492281
2.21548e-05
0.00491715
2.27452e-05
0.00491134
2.33532e-05
0.00490537
2.39786e-05
0.00489925
2.46216e-05
0.00489297
2.52823e-05
0.00488652
2.59608e-05
0.00487989
2.66574e-05
0.0048731
2.7372e-05
0.00486612
2.8105e-05
0.00485895
2.88564e-05
0.0048516
2.96262e-05
0.00484405
3.04147e-05
0.00483631
3.1222e-05
0.00482836
3.20482e-05
0.0048202
3.28936e-05
0.00481184
3.37586e-05
0.00480326
3.46441e-05
0.00479445
3.55527e-05
0.00478542
3.64915e-05
3.74814e-05
0.00477615
0.00505063
6.41621e-07
0.00505026
1.87314e-06
0.00504965
3.04045e-06
0.00504883
4.14048e-06
0.00504779
5.18147e-06
0.00504656
6.22212e-06
0.00504509
7.39413e-06
0.00504333
8.86777e-06
0.0050412
1.07691e-05
0.00503862
1.30994e-05
0.00503553
1.57075e-05
0.00503193
1.83302e-05
0.00502787
2.06768e-05
0.00502343
2.25155e-05
0.00501874
2.37276e-05
0.00501392
2.43182e-05
0.00500908
2.43899e-05
0.00500428
2.40998e-05
0.00499956
2.3616e-05
0.00499494
2.30851e-05
0.00499041
2.26156e-05
0.00498595
2.22744e-05
0.00498152
2.2092e-05
0.0049771
2.20722e-05
0.00497266
2.2202e-05
0.00496817
2.246e-05
0.00496361
2.28229e-05
0.00495897
2.3269e-05
0.00495424
2.378e-05
0.00494939
2.43416e-05
0.00494443
2.49433e-05
0.00493934
2.55779e-05
0.00493413
2.62405e-05
0.00492879
2.69282e-05
0.0049233
2.76391e-05
0.00491767
2.83724e-05
0.0049119
2.91275e-05
0.00490597
2.99045e-05
0.00489989
3.07033e-05
0.00489365
3.15241e-05
0.00488724
3.2367e-05
0.00488067
3.32321e-05
0.00487392
3.41197e-05
0.004867
3.50298e-05
0.00485989
3.59625e-05
0.0048526
3.6918e-05
0.00484512
3.78964e-05
0.00483744
3.88978e-05
0.00482957
3.99223e-05
0.00482149
4.09702e-05
0.00481321
4.20419e-05
0.00480471
4.31384e-05
0.004796
4.42621e-05
0.00478708
4.54204e-05
4.66351e-05
0.00477792
0.00505063
7.69028e-07
0.00505026
2.24474e-06
0.00504965
3.64379e-06
0.00504883
4.96233e-06
0.0050478
6.21017e-06
0.00504657
7.45637e-06
0.00504511
8.85645e-06
0.00504336
1.06123e-05
0.00504126
1.28747e-05
0.00503871
1.56473e-05
0.00503566
1.87536e-05
0.00503211
2.1883e-05
0.0050281
2.46909e-05
0.00502371
2.69008e-05
0.00501907
2.83692e-05
0.00501429
2.90991e-05
0.00500947
2.92097e-05
0.00500468
2.88855e-05
0.00499997
2.83252e-05
0.00499536
2.7703e-05
0.00499082
2.71487e-05
0.00498635
2.67428e-05
0.00498192
2.65228e-05
0.0049775
2.64944e-05
0.00497306
2.66431e-05
0.00496858
2.69444e-05
0.00496403
2.73709e-05
0.0049594
2.7897e-05
0.00495468
2.85013e-05
0.00494985
2.91667e-05
0.00494492
2.98806e-05
0.00493986
3.06345e-05
0.00493468
3.14223e-05
0.00492937
3.22403e-05
0.00492392
3.30865e-05
0.00491833
3.39596e-05
0.0049126
3.48589e-05
0.00490672
3.57843e-05
0.00490069
3.67357e-05
0.0048945
3.77132e-05
0.00488815
3.8717e-05
0.00488163
3.97472e-05
0.00487495
4.08038e-05
0.00486809
4.18871e-05
0.00486106
4.2997e-05
0.00485384
4.41337e-05
0.00484644
4.52973e-05
0.00483885
4.64878e-05
0.00483107
4.77053e-05
0.00482309
4.89501e-05
0.00481491
5.02224e-05
0.00480652
5.15231e-05
0.00479793
5.28542e-05
0.00478913
5.42224e-05
5.5647e-05
0.00478012
0.00505063
8.95903e-07
0.00505026
2.61475e-06
0.00504966
4.24455e-06
0.00504884
5.78076e-06
0.00504782
7.23469e-06
0.00504659
8.68511e-06
0.00504513
1.03101e-05
0.0050434
1.23421e-05
0.00504132
1.49562e-05
0.00503881
1.81597e-05
0.00503581
2.17527e-05
0.00503231
2.538e-05
0.00502836
2.86451e-05
0.00502403
3.12275e-05
0.00501944
3.29588e-05
0.0050147
3.3838e-05
0.00500992
3.3999e-05
0.00500515
3.36521e-05
0.00500045
3.3025e-05
0.00499583
3.23187e-05
0.0049913
3.16839e-05
0.00498683
3.12148e-05
0.00498239
3.09567e-05
0.00497797
3.09174e-05
0.00497353
3.10815e-05
0.00496905
3.14218e-05
0.00496452
3.19074e-05
0.00495991
3.2509e-05
0.0049552
3.3202e-05
0.0049504
3.39668e-05
0.0049455
3.47889e-05
0.00494047
3.5658e-05
0.00493533
3.65671e-05
0.00493006
3.7512e-05
0.00492465
3.84898e-05
0.00491911
3.9499e-05
0.00491343
4.05388e-05
0.00490761
4.16089e-05
0.00490164
4.27092e-05
0.00489551
4.38396e-05
0.00488923
4.50002e-05
0.00488278
4.61912e-05
0.00487617
4.74125e-05
0.0048694
4.86642e-05
0.00486245
4.99464e-05
0.00485532
5.12591e-05
0.00484802
5.26023e-05
0.00484053
5.39761e-05
0.00483285
5.53805e-05
0.00482499
5.68155e-05
0.00481693
5.82813e-05
0.00480867
5.97785e-05
0.00480022
6.13085e-05
0.00479157
6.2875e-05
0.00478272
6.44894e-05
0.00477402
-5.52946e-07
2.0222e-09
0.00477404
-2.63256e-08
2.0061e-09
0.00477351
5.26902e-07
1.83548e-09
0.00477239
1.12165e-06
1.72781e-09
0.00477063
1.75662e-06
1.6247e-09
0.00476819
2.43559e-06
1.51405e-09
0.00476503
3.16255e-06
1.39657e-09
0.00476109
3.94189e-06
1.27227e-09
0.00475631
4.77853e-06
1.14096e-09
0.00475063
5.67796e-06
1.00269e-09
0.00474398
6.64629e-06
8.57145e-10
0.00473629
7.69035e-06
7.04297e-10
0.00472747
8.81776e-06
5.44338e-10
0.00471743
1.00371e-05
3.77249e-10
0.00470608
1.13578e-05
2.02482e-10
0.00469329
1.27908e-05
1.79782e-11
0.00467894
1.43482e-05
-1.78866e-10
0.00466289
1.60441e-05
-3.83367e-10
0.004645
1.78941e-05
-5.86885e-10
0.00462508
1.99165e-05
-7.90476e-10
0.00460295
2.21318e-05
-9.95032e-10
0.00457839
2.45641e-05
-1.19978e-09
0.00455115
2.72415e-05
-1.40273e-09
0.00452096
3.01967e-05
-1.60274e-09
0.00448749
3.34681e-05
-1.79755e-09
0.00445039
3.71015e-05
-1.98522e-09
0.00440924
4.11509e-05
-2.16463e-09
0.00436356
4.56811e-05
-2.33432e-09
0.00431279
5.077e-05
-2.49375e-09
0.00425629
5.65112e-05
-2.64294e-09
0.00419327
6.30188e-05
-2.78177e-09
0.00412284
7.04311e-05
-2.91102e-09
0.00404393
7.89177e-05
-3.0322e-09
0.00395524
8.86859e-05
-3.14659e-09
0.00385526
9.99894e-05
-3.25552e-09
0.00374213
0.000113136
-3.36075e-09
0.00361363
0.000128494
-3.46403e-09
0.00346714
0.000146493
-3.56663e-09
0.00329954
0.000167607
-3.66948e-09
0.00310723
0.000192311
-3.77378e-09
0.00288625
0.000220989
-3.88076e-09
0.00263249
0.000253758
-3.99128e-09
0.00234234
0.000290162
-4.10493e-09
0.00201364
0.000328697
-4.21751e-09
0.00164756
0.000366085
-4.31441e-09
0.00125132
0.000396249
-4.35909e-09
0.000842317
0.000409008
-4.27601e-09
0.000453889
0.000388432
-3.92673e-09
0.000143586
0.000310305
-3.08965e-09
0.000143588
-1.45273e-09
0.0047731
2.66289e-07
0.00477176
1.30935e-06
0.00476987
2.42056e-06
0.00476738
3.60696e-06
0.00476426
4.87443e-06
0.00476047
6.2299e-06
0.00475595
7.68131e-06
0.00475065
9.23749e-06
0.00474452
1.09083e-05
0.0047375
1.27047e-05
0.00472951
1.4639e-05
0.00472047
1.67248e-05
0.00471031
1.89775e-05
0.00469893
2.1414e-05
0.00468624
2.40536e-05
0.00467211
2.69178e-05
0.00465643
3.00312e-05
0.00463905
3.34217e-05
0.00461982
3.71211e-05
0.00459857
4.11653e-05
0.00457511
4.55961e-05
0.00454921
5.04616e-05
0.00452064
5.58178e-05
0.0044891
6.17304e-05
0.00445429
6.82766e-05
0.00441585
7.55475e-05
0.00437335
8.36517e-05
0.00432631
9.27186e-05
0.00427418
0.000102904
0.00421629
0.000114394
0.0041519
0.000127416
0.00408008
0.000142247
0.00399978
0.000159222
0.00390971
0.000178753
0.00380836
0.000201342
0.00369389
0.000227597
0.00356415
0.000258242
0.00341652
0.000294117
0.00324799
0.000336145
0.00305505
0.000385243
0.00283391
0.000442133
0.00258068
0.000506986
0.00229201
0.000578832
0.0019661
0.000654606
0.00160445
0.000727737
0.00121456
0.000786135
0.000813985
0.000809585
0.00043571
0.000766707
0.000135207
0.000610808
0.000278795
0.00477128
3.80042e-06
0.00476723
5.3602e-06
0.00476262
7.02266e-06
0.00475743
8.79675e-06
0.00475162
1.0692e-05
0.00474513
1.27191e-05
0.00473792
1.48901e-05
0.00472994
1.72181e-05
0.00472113
1.97182e-05
0.00471143
2.24068e-05
0.00470076
2.53023e-05
0.00468906
2.84252e-05
0.00467624
3.17986e-05
0.00466221
3.54482e-05
0.00464686
3.94027e-05
0.00463008
4.36947e-05
0.00461175
4.83609e-05
0.00459173
5.34436e-05
0.00456986
5.89903e-05
0.00454597
6.50554e-05
0.00451986
7.17015e-05
0.00449132
7.90011e-05
0.0044601
8.70385e-05
0.00442592
9.59124e-05
0.00438846
0.000105739
0.00434735
0.000116655
0.00430218
0.000128824
0.00425246
0.000142439
0.00419763
0.000157733
0.00413704
0.000174986
0.00406992
0.000194537
0.00399537
0.000216795
0.00391233
0.000242261
0.00381954
0.000271542
0.00371551
0.000305377
0.00359845
0.000344657
0.00346625
0.000390438
0.00331644
0.000443934
0.00314612
0.000506462
0.00295205
0.000579309
0.00273075
0.000663436
0.00247878
0.000758959
0.00219334
0.000864266
0.00187332
0.000974632
0.00152086
0.00108019
0.00114395
0.00116305
0.000760144
0.00119339
0.000401979
0.00112487
0.000122343
0.000890444
0.000401138
0.00476858
1.13667e-05
0.00476051
1.34366e-05
0.00475189
1.56427e-05
0.00474269
1.79968e-05
0.00473287
2.05121e-05
0.00472238
2.32028e-05
0.00471119
2.60852e-05
0.00469923
2.91771e-05
0.00468645
3.24984e-05
0.00467278
3.60711e-05
0.00465817
3.992e-05
0.00464252
4.40724e-05
0.00462576
4.85591e-05
0.00460779
5.34145e-05
0.00458852
5.8677e-05
0.00456782
6.43901e-05
0.00454558
7.06032e-05
0.00452165
7.73725e-05
0.00449588
8.47621e-05
0.00446809
9.28444e-05
0.00443809
0.000101703
0.00440565
0.000111436
0.00437054
0.000122155
0.00433246
0.000133993
0.00429109
0.000147105
0.00424607
0.000161674
0.00419698
0.000177917
0.00414332
0.000196093
0.00408455
0.00021651
0.00401999
0.000239541
0.00394889
0.000265633
0.00387036
0.000295327
0.00378334
0.000329278
0.00368661
0.000368281
0.00357869
0.000413294
0.00345788
0.000465464
0.00332218
0.000526138
0.00316927
0.000596847
0.00299651
0.000679221
0.00280102
0.000774797
0.00257983
0.000884631
0.00233018
0.0010086
0.00205017
0.00114427
0.00173967
0.00128514
0.00140177
0.00141809
0.00104497
0.00151985
0.000686389
0.00155197
0.000356697
0.00145456
0.000104089
0.00114305
0.000505227
0.00476506
2.42275e-05
0.0047517
2.67966e-05
0.00473781
2.95349e-05
0.00472335
3.24576e-05
0.00470828
3.55811e-05
0.00469256
3.89238e-05
0.00467614
4.2506e-05
0.00465896
4.63501e-05
0.00464098
5.04809e-05
0.00462213
5.49262e-05
0.00460233
5.97168e-05
0.00458152
6.48872e-05
0.0045596
7.04758e-05
0.00453649
7.65256e-05
0.00451208
8.30851e-05
0.00448626
9.02087e-05
0.00445891
9.79583e-05
0.00442987
0.000106405
0.00439901
0.000115628
0.00436613
0.00012572
0.00433105
0.000136785
0.00429354
0.000148945
0.00425335
0.000162343
0.0042102
0.000177144
0.00416377
0.000193542
0.00411367
0.000211768
0.0040595
0.000232092
0.00400075
0.000254837
0.00393687
0.000280389
0.00386721
0.000309209
0.00379099
0.000341849
0.00370734
0.000378977
0.00361523
0.000421394
0.00351344
0.000470064
0.00340059
0.000526142
0.00327506
0.000590994
0.003135
0.000666201
0.00297832
0.000753525
0.00280276
0.000854789
0.00260593
0.00097162
0.00238561
0.00110495
0.00214003
0.00125418
0.00186851
0.0014158
0.00157229
0.00158135
0.00125574
0.00173464
0.000927838
0.00184775
0.000604398
0.00187541
0.000311221
0.00174774
8.61171e-05
0.00136816
0.000591344
0.00476077
4.35754e-05
0.00474094
4.66265e-05
0.00472059
4.98804e-05
0.0046997
5.33553e-05
0.00467821
5.70712e-05
0.00465608
6.10501e-05
0.00463327
6.53164e-05
0.00460972
6.9897e-05
0.00458538
7.48217e-05
0.00456018
8.01238e-05
0.00453406
8.58403e-05
0.00450694
9.20127e-05
0.00447872
9.86872e-05
0.00444933
0.000105916
0.00441866
0.000113756
0.0043866
0.000122275
0.00435301
0.000131546
0.00431776
0.000141654
0.00428069
0.000152698
0.00424162
0.000164786
0.00420036
0.000178045
0.00415669
0.000192624
0.00411034
0.000208692
0.00406103
0.00022645
0.00400844
0.000246133
0.00395219
0.000268015
0.00389186
0.000292425
0.00382695
0.000319748
0.00375689
0.000350446
0.00368103
0.000385066
0.00359862
0.000424265
0.00350877
0.000468827
0.00341047
0.000519687
0.00330258
0.00057796
0.00318376
0.000644963
0.00305252
0.000722226
0.00290725
0.000811481
0.00274618
0.000914594
0.00256757
0.0010334
0.00236983
0.00116936
0.00215182
0.00132296
0.00191328
0.00149273
0.0016554
0.00167368
0.00138155
0.0018552
0.001098
0.0020182
0.000814522
0.00213122
0.000544625
0.00214531
0.000304154
0.00198821
0.000104984
0.00156733
0.000696328
0.00475579
7.05093e-05
0.0047284
7.40167e-05
0.00470052
7.77637e-05
0.0046721
8.17692e-05
0.00464312
8.60562e-05
0.00461352
9.06503e-05
0.00458325
9.55793e-05
0.00455228
0.000100875
0.00452053
0.000106571
0.00448794
0.000112707
0.00445446
0.000119326
0.00442
0.000126476
0.00438447
0.000134211
0.0043478
0.000142593
0.00430986
0.000151688
0.00427056
0.000161575
0.00422977
0.000172339
0.00418734
0.000184082
0.00414312
0.000196917
0.00409694
0.000210973
0.00404858
0.000226398
0.00399784
0.000243366
0.00394446
0.000262077
0.00388814
0.000282765
0.00382857
0.000305706
0.00376536
0.000331222
0.00369809
0.000359694
0.00362627
0.000391574
0.00354932
0.000427396
0.00346659
0.000467796
0.00337732
0.000513528
0.00328066
0.000565488
0.00317562
0.000624734
0.00306106
0.000692511
0.00293576
0.000770266
0.00279835
0.000859638
0.00264741
0.00096242
0.00248156
0.00108044
0.00229964
0.00121533
0.00210094
0.00136806
0.00188567
0.00153823
0.00165548
0.00172292
0.00141413
0.00191503
0.00116817
0.00210115
0.00092745
0.00225892
0.000704666
0.00235401
0.000512825
0.00233715
0.000356347
0.00214469
0.000215693
0.00170798
0.000912021
-2.98609e-05
2.98616e-05
-7.6228e-10
-8.53986e-05
5.55396e-05
-1.91733e-09
-0.000145817
6.04208e-05
-2.82225e-09
-0.00019891
5.30969e-05
-3.53183e-09
-0.000237876
3.89703e-05
-4.04777e-09
-0.000259192
2.13199e-05
-4.40301e-09
-0.000260839
1.65221e-06
-4.7095e-09
-0.000243697
-1.71379e-05
-4.39246e-09
-0.000207766
-3.59265e-05
-4.02868e-09
-0.00015398
-5.3783e-05
-3.49202e-09
-8.35337e-05
-7.04432e-05
-2.7273e-09
2.21294e-06
-8.57449e-05
-1.74517e-09
0.000101797
-9.95831e-05
-5.61163e-10
0.000213723
-0.000111927
7.95934e-10
0.000336484
-0.000122764
2.30358e-09
0.000468587
-0.000132107
3.9361e-09
0.000608566
-0.000139985
5.67134e-09
0.000755003
-0.000146444
7.49106e-09
0.000906531
-0.000151538
9.3767e-09
0.00106185
-0.000155334
1.12936e-08
0.00121974
-0.000157903
1.31091e-08
0.00137905
-0.000159323
1.46239e-08
0.00153871
-0.000159669
1.57482e-08
0.00169771
-0.000159023
1.65198e-08
0.00185517
-0.000157472
1.7071e-08
0.00201026
-0.000155111
1.72571e-08
0.00216227
-0.00015203
1.70422e-08
0.00231057
-0.000148318
1.64894e-08
0.00245462
-0.00014406
1.56683e-08
0.00259395
-0.000139341
1.46455e-08
0.00272817
-0.000134242
1.34713e-08
0.002857
-0.000128837
1.21788e-08
0.00298019
-0.0001232
1.07898e-08
0.00309758
-0.000117398
9.32305e-09
0.00320906
-0.000111493
7.7998e-09
0.0033146
-0.000105542
6.24423e-09
0.00341419
-9.95967e-05
4.68628e-09
0.00350789
-9.37029e-05
3.15859e-09
0.00359579
-8.79012e-05
1.69557e-09
0.00367802
-8.22267e-05
3.28097e-10
0.00375473
-7.67093e-05
-9.1436e-10
0.0038261
-7.1374e-05
-2.00998e-09
0.00389235
-6.62409e-05
-2.94184e-09
0.00395367
-6.13255e-05
-3.70001e-09
0.00401032
-5.66393e-05
-4.28051e-09
0.00406251
-5.21901e-05
-4.684e-09
0.0041105
-4.79818e-05
-4.91485e-09
0.00415452
-4.40151e-05
-4.98045e-09
0.00419481
-4.02876e-05
-4.88945e-09
-3.67937e-05
0.00423161
-4.65037e-09
-2.61908e-05
5.60524e-05
-7.48142e-05
0.000104163
-0.000127309
0.000112915
-0.000172961
9.87489e-05
-0.000205592
7.16009e-05
-0.000222007
3.77357e-05
-0.000219944
-4.11561e-07
-0.000200635
-3.64463e-05
-0.000163556
-7.30061e-05
-0.000109593
-0.000107745
-3.9759e-05
-0.000140278
4.46997e-05
-0.000170204
0.000142474
-0.000197357
0.000252195
-0.000221648
0.000372462
-0.000243032
0.000501875
-0.000261519
0.000639046
-0.000277156
0.000782623
-0.000290021
0.000931299
-0.000300213
0.00108382
-0.000307854
0.001239
-0.00031308
0.00139571
-0.000316037
0.00155291
-0.000316872
0.00170963
-0.00031574
0.00186497
-0.00031281
0.00201812
-0.000308267
0.00216838
-0.000302289
0.00231511
-0.00029505
0.00245777
-0.00028672
0.0025959
-0.000277463
0.00272909
-0.000267439
0.00285706
-0.000256801
0.00297955
-0.00024569
0.00309639
-0.000234242
0.00320748
-0.000222579
0.00331275
-0.000210817
0.00341221
-0.000199058
0.0035059
-0.000187393
0.00359391
-0.000175905
0.00367634
-0.000164663
0.00375336
-0.000153727
0.00382514
-0.000143149
0.00389186
-0.000132967
0.00395375
-0.000123215
0.00401103
-0.000113914
0.00406392
-0.000105082
0.00411266
-9.67257e-05
0.00415749
-8.88475e-05
0.00419865
-8.14424e-05
-7.44985e-05
0.00423635
-1.97141e-05
7.57665e-05
-5.45083e-05
0.000138957
-9.18339e-05
0.000150241
-0.000123259
0.000130174
-0.000143763
9.2105e-05
-0.000150476
4.44488e-05
-0.000142647
-8.24038e-06
-0.00011902
-6.00734e-05
-7.97714e-05
-0.000112255
-2.55925e-05
-0.000161924
4.27838e-05
-0.000208654
0.000124559
-0.000251978
0.000218695
-0.000291494
0.000324045
-0.000326997
0.00043941
-0.000358397
0.000563567
-0.000385676
0.000695282
-0.000408871
0.000833328
-0.000428067
0.000976503
-0.000443389
0.00112364
-0.000454993
0.00127363
-0.000463063
0.00142539
-0.000467802
0.00157793
-0.000469415
0.00173031
-0.000468118
0.00188165
-0.000464153
0.00203117
-0.000457781
0.00217815
-0.000449266
0.00232196
-0.000438861
0.00246205
-0.000426814
0.00259796
-0.000413369
0.00272928
-0.00039876
0.00285569
-0.000383213
0.00297694
-0.00036694
0.00309284
-0.000350141
0.00320326
-0.000333002
0.00330814
-0.000315692
0.00340744
-0.000298366
0.00350121
-0.000281162
0.00358951
-0.000264203
0.00367244
-0.000247594
0.00375014
-0.000231427
0.00382277
-0.000215778
0.00389051
-0.000200708
0.00395356
-0.000186266
0.00401214
-0.000172488
0.00406645
-0.000159397
0.00411674
-0.000147008
0.00416321
-0.000135324
0.00420611
-0.000124337
-0.000114028
0.00424564
-8.30447e-06
8.4071e-05
-2.49117e-05
0.000155565
-4.1403e-05
0.000166732
-5.32302e-05
0.000142001
-5.73072e-05
9.61819e-05
-5.13512e-05
3.84929e-05
-3.47486e-05
-2.4843e-05
-5.60966e-06
-8.92123e-05
3.53337e-05
-0.000153198
8.89085e-05
-0.000215499
0.000154804
-0.000274549
0.000232424
-0.000329599
0.000321086
-0.000380156
0.000419986
-0.000425897
0.000528217
-0.000466628
0.000644801
-0.00050226
0.000768714
-0.000532784
0.000898907
-0.00055826
0.00103432
-0.000578804
0.00117391
-0.000594582
0.00131665
-0.000605802
0.00146155
-0.000612701
0.00160766
-0.00061553
0.00175409
-0.000614549
0.00189999
-0.000610053
0.00204458
-0.00060237
0.00218716
-0.00059184
0.00232709
-0.000578788
0.00246381
-0.000563536
0.00259684
-0.0005464
0.00272576
-0.000527686
0.00285024
-0.000507689
0.00296999
-0.000486692
0.00308481
-0.000464957
0.00319454
-0.000442731
0.00329909
-0.000420241
0.00339841
-0.000397692
0.00349252
-0.00037527
0.00358146
-0.000353139
0.0036653
-0.000331442
0.00374418
-0.000310302
0.00381822
-0.000289821
0.0038876
-0.000270084
0.00395249
-0.000251157
0.00401309
-0.000233089
0.00406961
-0.000215914
0.00412225
-0.000199652
0.00417124
-0.000184309
0.00421677
-0.000169875
-0.000156321
0.00425907
6.44438e-06
7.76266e-05
1.31383e-05
0.000148871
2.20793e-05
0.000157791
3.31945e-05
0.000130886
4.78657e-05
8.15107e-05
6.7914e-05
1.84445e-05
9.35842e-05
-5.05132e-05
0.000127418
-0.000123046
0.000170354
-0.000196135
0.000222662
-0.000267806
0.00028469
-0.000336578
0.000356478
-0.000401387
0.000437819
-0.000461498
0.000528315
-0.000516392
0.000627407
-0.000565721
0.000734418
-0.000609271
0.000848575
-0.00064694
0.000969037
-0.000678721
0.00109492
-0.000704685
0.00122531
-0.000724973
0.00135929
-0.000739785
0.00149596
-0.00074937
0.00163443
-0.000754002
0.00177386
-0.000753972
0.00191341
-0.000749605
0.00205232
-0.000741279
0.00218988
-0.000729399
0.00232545
-0.000714358
0.00245845
-0.000696542
0.00258839
-0.000676333
0.00271481
-0.000654108
0.00283735
-0.000630228
0.0029557
-0.000605041
0.00306961
-0.000578875
0.00317892
-0.000552037
0.00328349
-0.000524809
0.00338325
-0.000497452
0.00347817
-0.000470197
0.00356829
-0.000443252
0.00365364
-0.000416799
0.00373433
-0.000390993
0.00381048
-0.000365965
0.00388222
-0.000341825
0.00394972
-0.000318656
0.00401315
-0.000296524
0.00407271
-0.000275473
0.00412859
-0.00025553
0.00418098
-0.000236705
0.0042301
-0.000218988
-0.000202338
0.00427611
2.21823e-05
5.54443e-05
5.63763e-05
0.000114677
9.33749e-05
0.000120793
0.000129813
9.44475e-05
0.000165059
4.6265e-05
0.00019889
-1.53865e-05
0.000233506
-8.51291e-05
0.000271554
-0.000161095
0.000314558
-0.000239138
0.000363765
-0.000317013
0.000420104
-0.000392916
0.000484188
-0.000465471
0.000556327
-0.000533637
0.000636573
-0.000596638
0.000724756
-0.000653904
0.000820525
-0.00070504
0.000923381
-0.000749796
0.00103271
-0.00078805
0.00114781
-0.000819783
0.00126791
-0.000845074
0.00139221
-0.000864082
0.00151987
-0.000877038
0.00165009
-0.000884216
0.00178203
-0.000885918
0.00191491
-0.000882481
0.00204795
-0.000874318
0.00218043
-0.00086188
0.00231169
-0.000845621
0.00244114
-0.000825986
0.00256822
-0.000803418
0.00269247
-0.000778359
0.00281348
-0.000751236
0.0029309
-0.000722462
0.00304446
-0.000692428
0.00315392
-0.000661503
0.00325914
-0.000630027
0.00336
-0.000598315
0.00345645
-0.000566648
0.00354848
-0.000535279
0.00363611
-0.000504429
0.00371941
-0.000474292
0.00379847
-0.000445027
0.00387341
-0.000416768
0.00394438
-0.000389622
0.00401153
-0.00036367
0.00407502
-0.00033897
0.00413505
-0.000315557
0.00419179
-0.000293446
0.00424543
-0.000272628
-0.000253056
0.00429615
4.07981e-05
1.46462e-05
0.000107261
4.82141e-05
0.000173237
5.48165e-05
0.000232869
3.48157e-05
0.000286695
-7.56146e-06
0.000330866
-5.95578e-05
0.000371866
-0.000126129
0.000411571
-0.000200799
0.000452452
-0.00028002
0.000496503
-0.000361064
0.000545309
-0.000441722
0.00060006
-0.000520221
0.000661575
-0.000595153
0.000730346
-0.000665409
0.00080658
-0.000730138
0.000890244
-0.000788704
0.000981105
-0.000840657
0.00107877
-0.00088571
0.00118269
-0.000923713
0.00129226
-0.000954641
0.00140676
-0.000978581
0.00152544
-0.000995713
0.00164751
-0.00100629
0.0017722
-0.00101061
0.00189872
-0.001009
0.00202629
-0.00100189
0.00215418
-0.000989765
0.00228169
-0.000973128
0.00240818
-0.000952478
0.00253308
-0.000928316
0.00265586
-0.000901145
0.00277608
-0.000871456
0.00289335
-0.000839728
0.00300734
-0.000806415
0.00311778
-0.000771949
0.00322449
-0.000736731
0.0033273
-0.000701131
0.00342614
-0.000665484
0.00352095
-0.00063009
0.00361173
-0.000595213
0.00369853
-0.000561084
0.0037814
-0.000527897
0.00386044
-0.000495812
0.00393578
-0.00046496
0.00400755
-0.00043544
0.0040759
-0.000407325
0.00414101
-0.00038066
0.00420303
-0.000355467
0.00426214
-0.000331741
0.00431853
-0.000309442
0.00427456
-4.29415e-05
-4.29786e-09
0.00431531
-4.07466e-05
-3.87496e-09
0.00435393
-3.8624e-05
-3.33693e-09
0.00439052
-3.65833e-05
-2.7101e-09
0.00442515
-3.46293e-05
-2.01574e-09
0.00445792
-3.27653e-05
-1.27128e-09
0.00448891
-3.09929e-05
-4.9267e-10
0.00451822
-2.93131e-05
3.05916e-10
0.00454595
-2.77254e-05
1.10991e-09
0.00457218
-2.62289e-05
1.90644e-09
0.00459699
-2.48214e-05
2.68441e-09
0.00462049
-2.35004e-05
3.43513e-09
0.00464275
-2.22628e-05
4.15307e-09
0.00466385
-2.11047e-05
4.83568e-09
0.00468387
-2.0022e-05
5.48301e-09
0.00470287
-1.90101e-05
6.09712e-09
0.00472093
-1.8064e-05
6.68166e-09
0.0047381
-1.71783e-05
7.24088e-09
0.00475444
-1.63469e-05
7.7784e-09
0.00476999
-1.55635e-05
8.29632e-09
0.00478481
-1.48212e-05
8.79444e-09
0.00479891
-1.4113e-05
9.26974e-09
0.00481233
-1.34317e-05
9.71555e-09
0.00482509
-1.27708e-05
1.01216e-08
0.00483721
-1.2125e-05
1.04746e-08
0.00484869
-1.14906e-05
1.07585e-08
0.00485954
-1.08665e-05
1.09568e-08
0.00486978
-1.0254e-05
1.10542e-08
0.00487943
-9.65727e-06
1.10379e-08
0.0048885
-9.08264e-06
1.09003e-08
0.00489703
-8.5375e-06
1.06397e-08
0.00490505
-8.02912e-06
1.02613e-08
0.0049126
-7.56328e-06
9.77645e-09
0.00491974
-7.14324e-06
9.20132e-09
0.0049265
-6.76912e-06
8.55588e-09
0.00493293
-6.43797e-06
7.86187e-09
0.00493906
-6.14438e-06
7.14004e-09
0.00494494
-5.88149e-06
6.40862e-09
0.00495058
-5.64203e-06
5.68305e-09
0.00495599
-5.41935e-06
4.97569e-09
0.00496119
-5.20798e-06
4.29513e-09
0.00496619
-5.004e-06
3.64703e-09
0.004971
-4.80492e-06
3.03427e-09
0.0049756
-4.60951e-06
2.45936e-09
0.00498002
-4.41709e-06
1.94191e-09
0.00498424
-4.22817e-06
1.45346e-09
0.00498829
-4.04308e-06
9.98536e-10
0.00499215
-3.86224e-06
5.83049e-10
0.00499583
-3.68605e-06
2.05629e-10
0.00499935
-3.51483e-06
-1.37711e-10
0.0050027
-3.34879e-06
-4.52998e-10
0.00500589
-3.18803e-06
-7.47742e-10
0.00500892
-3.0326e-06
-1.03058e-09
0.0050118
-2.88248e-06
-1.31083e-09
0.00501454
-2.73761e-06
-1.59759e-09
0.00501714
-2.59791e-06
-1.89832e-09
0.00501961
-2.46326e-06