/*--------------------------------*- C++ -*----------------------------------*\
| =========                 |                                                 |
| \\      /  F ield         | OpenFOAM: The Open Source CFD Toolbox           |
|  \\    /   O peration     | Version:  2412                                  |
|   \\  /    A nd           | Website:  www.openfoam.com                      |
|    \\/     M anipulation  |                                                 |
\*---------------------------------------------------------------------------*/
FoamFile
{
    version     2.0;
    format      ascii;
    arch        "LSB;label=32;scalar=64";
    class       volVectorField;
    location    "19.5";
    object      U;
}
// * * * * * * * * * * * * * * * * * * * * * * * * * * * * * * * * * * * * * //

dimensions      [0 1 -1 0 0 0 0];

internalField   nonuniform List<vector> 
63420
(
(0.0999997 4.35532e-07 0)
(0.099995 1.29725e-06 0)
(0.0999852 2.14751e-06 0)
(0.0999708 2.98248e-06 0)
(0.0999523 3.80642e-06 0)
(0.0999297 4.66383e-06 0)
(0.0999029 5.66044e-06 0)
(0.099871 6.94022e-06 0)
(0.0998323 8.62013e-06 0)
(0.0997851 1.07198e-05 0)
(0.0997276 1.31292e-05 0)
(0.0996593 1.56327e-05 0)
(0.0995808 1.79754e-05 0)
(0.0994938 1.9938e-05 0)
(0.0994008 2.1391e-05 0)
(0.0993044 2.2312e-05 0)
(0.099207 2.27715e-05 0)
(0.0991104 2.28981e-05 0)
(0.0990156 2.28403e-05 0)
(0.0989231 2.2736e-05 0)
(0.0988328 2.26932e-05 0)
(0.0987442 2.27841e-05 0)
(0.0986566 2.30468e-05 0)
(0.0985694 2.34932e-05 0)
(0.0984819 2.41173e-05 0)
(0.0983936 2.49034e-05 0)
(0.0983039 2.58322e-05 0)
(0.0982126 2.68849e-05 0)
(0.0981193 2.80457e-05 0)
(0.0980238 2.93023e-05 0)
(0.0979259 3.06462e-05 0)
(0.0978255 3.20722e-05 0)
(0.0977224 3.35779e-05 0)
(0.0976167 3.51628e-05 0)
(0.0975081 3.68282e-05 0)
(0.0973966 3.85761e-05 0)
(0.0972821 4.04095e-05 0)
(0.0971646 4.23317e-05 0)
(0.0970438 4.43465e-05 0)
(0.0969198 4.64578e-05 0)
(0.0967925 4.86698e-05 0)
(0.0966617 5.09866e-05 0)
(0.0965274 5.34127e-05 0)
(0.0963894 5.59525e-05 0)
(0.0962478 5.86108e-05 0)
(0.0961023 6.13925e-05 0)
(0.095953 6.43024e-05 0)
(0.0957996 6.7346e-05 0)
(0.0956422 7.05287e-05 0)
(0.0954805 7.38566e-05 0)
(0.0953146 7.73365e-05 0)
(0.0951443 8.09768e-05 0)
(0.0949694 8.47914e-05 0)
(0.0947899 8.88098e-05 0)
(0.0946056 9.31062e-05 0)
(0.0999997 1.30625e-06 0)
(0.099995 3.89079e-06 0)
(0.0999852 6.44122e-06 0)
(0.0999709 8.94601e-06 0)
(0.0999524 1.14179e-05 0)
(0.0999298 1.39897e-05 0)
(0.099903 1.69768e-05 0)
(0.0998711 2.08093e-05 0)
(0.0998325 2.58368e-05 0)
(0.0997854 3.21191e-05 0)
(0.0997281 3.93289e-05 0)
(0.09966 4.68234e-05 0)
(0.0995817 5.38417e-05 0)
(0.099495 5.97289e-05 0)
(0.0994022 6.40968e-05 0)
(0.099306 6.68776e-05 0)
(0.0992087 6.82798e-05 0)
(0.0991122 6.8686e-05 0)
(0.0990174 6.85391e-05 0)
(0.098925 6.825e-05 0)
(0.0988346 6.81418e-05 0)
(0.0987459 6.84298e-05 0)
(0.0986583 6.9229e-05 0)
(0.0985711 7.05751e-05 0)
(0.0984836 7.24509e-05 0)
(0.0983953 7.48099e-05 0)
(0.0983056 7.75952e-05 0)
(0.0982143 8.07511e-05 0)
(0.0981211 8.42302e-05 0)
(0.0980256 8.79961e-05 0)
(0.0979278 9.20235e-05 0)
(0.0978275 9.62971e-05 0)
(0.0977246 0.000100809 0)
(0.0976189 0.000105559 0)
(0.0975105 0.00011055 0)
(0.0973992 0.000115789 0)
(0.0972848 0.000121283 0)
(0.0971675 0.000127044 0)
(0.0970469 0.000133082 0)
(0.0969231 0.000139408 0)
(0.096796 0.000146037 0)
(0.0966654 0.000152979 0)
(0.0965314 0.000160248 0)
(0.0963937 0.000167858 0)
(0.0962523 0.000175822 0)
(0.0961072 0.000184155 0)
(0.0959581 0.000192872 0)
(0.0958051 0.000201989 0)
(0.095648 0.000211522 0)
(0.0954868 0.00022149 0)
(0.0953212 0.000231912 0)
(0.0951513 0.000242813 0)
(0.094977 0.000254234 0)
(0.094798 0.000266263 0)
(0.0946142 0.000279116 0)
(0.0999997 2.17609e-06 0)
(0.099995 6.4815e-06 0)
(0.0999852 1.07303e-05 0)
(0.0999709 1.49034e-05 0)
(0.0999524 1.90219e-05 0)
(0.0999299 2.33051e-05 0)
(0.0999031 2.82753e-05 0)
(0.0998713 3.46455e-05 0)
(0.0998329 4.2997e-05 0)
(0.0997859 5.34321e-05 0)
(0.099729 6.54115e-05 0)
(0.0996613 7.78725e-05 0)
(0.0995835 8.95539e-05 0)
(0.0994972 9.93679e-05 0)
(0.0994049 0.000106667 0)
(0.099309 0.000111335 0)
(0.099212 0.000113712 0)
(0.0991156 0.00011443 0)
(0.099021 0.000114223 0)
(0.0989285 0.000113771 0)
(0.0988381 0.000113611 0)
(0.0987494 0.000114102 0)
(0.0986617 0.000115436 0)
(0.0985745 0.000117675 0)
(0.0984869 0.000120791 0)
(0.0983986 0.00012471 0)
(0.098309 0.000129336 0)
(0.0982178 0.000134579 0)
(0.0981246 0.000140361 0)
(0.0980293 0.00014662 0)
(0.0979316 0.000153315 0)
(0.0978315 0.000160421 0)
(0.0977288 0.000167924 0)
(0.0976235 0.000175824 0)
(0.0975153 0.000184125 0)
(0.0974043 0.000192838 0)
(0.0972903 0.000201977 0)
(0.0971733 0.000211558 0)
(0.0970531 0.000221601 0)
(0.0969297 0.000232124 0)
(0.096803 0.000243148 0)
(0.0966729 0.000254693 0)
(0.0965394 0.000266781 0)
(0.0964022 0.000279435 0)
(0.0962614 0.000292678 0)
(0.0961168 0.000306533 0)
(0.0959684 0.000321025 0)
(0.0958161 0.00033618 0)
(0.0956597 0.000352025 0)
(0.0954992 0.00036859 0)
(0.0953345 0.000385907 0)
(0.0951655 0.000404019 0)
(0.094992 0.000422989 0)
(0.094814 0.000442956 0)
(0.0946313 0.000464268 0)
(0.0999997 3.04448e-06 0)
(0.0999951 9.06746e-06 0)
(0.0999852 1.50118e-05 0)
(0.099971 2.08506e-05 0)
(0.0999525 2.66132e-05 0)
(0.09993 3.26031e-05 0)
(0.0999034 3.95443e-05 0)
(0.0998716 4.84278e-05 0)
(0.0998334 6.0065e-05 0)
(0.0997868 7.46042e-05 0)
(0.0997303 9.13035e-05 0)
(0.0996633 0.000108691 0)
(0.0995862 0.000125015 0)
(0.0995006 0.000138759 0)
(0.0994088 0.000149015 0)
(0.0993135 0.000155613 0)
(0.0992169 0.000159018 0)
(0.0991208 0.000160102 0)
(0.0990262 0.00015988 0)
(0.0989338 0.000159301 0)
(0.0988433 0.000159111 0)
(0.0987545 0.000159814 0)
(0.0986668 0.000161681 0)
(0.0985794 0.000164801 0)
(0.0984919 0.000169141 0)
(0.0984035 0.000174596 0)
(0.098314 0.000181039 0)
(0.0982229 0.000188343 0)
(0.0981299 0.0001964 0)
(0.0980348 0.000205126 0)
(0.0979374 0.000214463 0)
(0.0978376 0.000224375 0)
(0.0977352 0.000234845 0)
(0.0976302 0.000245869 0)
(0.0975225 0.000257454 0)
(0.0974119 0.000269614 0)
(0.0972984 0.00028237 0)
(0.0971819 0.000295744 0)
(0.0970623 0.000309761 0)
(0.0969396 0.000324448 0)
(0.0968135 0.000339833 0)
(0.0966841 0.000355945 0)
(0.0965513 0.000372813 0)
(0.0964149 0.000390469 0)
(0.096275 0.000408944 0)
(0.0961313 0.000428271 0)
(0.0959838 0.000448484 0)
(0.0958325 0.000469619 0)
(0.0956772 0.000491713 0)
(0.0955178 0.000514806 0)
(0.0953543 0.000538942 0)
(0.0951866 0.000564179 0)
(0.0950145 0.0005906 0)
(0.094838 0.000618385 0)
(0.0946569 0.000647979 0)
(0.0999997 3.9109e-06 0)
(0.0999951 1.16468e-05 0)
(0.0999853 1.92826e-05 0)
(0.0999711 2.67835e-05 0)
(0.0999527 3.41868e-05 0)
(0.0999302 4.18767e-05 0)
(0.0999036 5.07727e-05 0)
(0.0998721 6.21366e-05 0)
(0.0998341 7.70077e-05 0)
(0.0997879 9.55854e-05 0)
(0.0997321 0.000116937 0)
(0.0996658 0.000139197 0)
(0.0995895 0.000160134 0)
(0.0995048 0.000177812 0)
(0.0994139 0.000191061 0)
(0.0993193 0.000199647 0)
(0.0992232 0.00020415 0)
(0.0991274 0.00020567 0)
(0.099033 0.000205497 0)
(0.0989406 0.000204837 0)
(0.0988501 0.000204648 0)
(0.0987612 0.000205575 0)
(0.0986733 0.000207972 0)
(0.0985859 0.000211958 0)
(0.0984983 0.000217495 0)
(0.09841 0.000224457 0)
(0.0983206 0.000232682 0)
(0.0982296 0.000242012 0)
(0.0981368 0.000252308 0)
(0.098042 0.000263466 0)
(0.097945 0.000275409 0)
(0.0978456 0.000288092 0)
(0.0977437 0.000301493 0)
(0.0976392 0.000315605 0)
(0.097532 0.000330439 0)
(0.0974221 0.000346011 0)
(0.0973092 0.000362346 0)
(0.0971934 0.000379472 0)
(0.0970746 0.000397422 0)
(0.0969526 0.000416228 0)
(0.0968275 0.000435927 0)
(0.096699 0.000456554 0)
(0.0965672 0.000478147 0)
(0.0964318 0.000500746 0)
(0.096293 0.000524389 0)
(0.0961505 0.00054912 0)
(0.0960043 0.000574979 0)
(0.0958543 0.000602013 0)
(0.0957004 0.000630267 0)
(0.0955425 0.000659792 0)
(0.0953806 0.000690643 0)
(0.0952145 0.000722886 0)
(0.0950443 0.000756624 0)
(0.0948697 0.000792057 0)
(0.0946907 0.000829688 0)
(0.0999997 4.77498e-06 0)
(0.0999951 1.42175e-05 0)
(0.0999853 2.35399e-05 0)
(0.0999712 3.26981e-05 0)
(0.0999528 4.17377e-05 0)
(0.0999305 5.11194e-05 0)
(0.099904 6.19498e-05 0)
(0.0998726 7.5754e-05 0)
(0.099835 9.37956e-05 0)
(0.0997893 0.000116332 0)
(0.0997342 0.000142253 0)
(0.0996688 0.000169318 0)
(0.0995936 0.000194833 0)
(0.0995099 0.000216449 0)
(0.09942 0.000232731 0)
(0.0993262 0.000243376 0)
(0.0992307 0.000249062 0)
(0.0991353 0.000251105 0)
(0.0990412 0.000251056 0)
(0.0989488 0.000250374 0)
(0.0988583 0.000250221 0)
(0.0987693 0.000251387 0)
(0.0986813 0.00025431 0)
(0.0985938 0.000259143 0)
(0.0985062 0.000265848 0)
(0.098418 0.000274278 0)
(0.0983287 0.000284243 0)
(0.0982379 0.000295554 0)
(0.0981454 0.000308044 0)
(0.098051 0.000321588 0)
(0.0979544 0.000336093 0)
(0.0978555 0.000351503 0)
(0.0977542 0.00036779 0)
(0.0976503 0.000384947 0)
(0.0975438 0.000402983 0)
(0.0974346 0.00042192 0)
(0.0973226 0.000441785 0)
(0.0972077 0.000462613 0)
(0.0970898 0.000484442 0)
(0.0969689 0.000507311 0)
(0.0968448 0.000531262 0)
(0.0967175 0.00055634 0)
(0.0965868 0.000582589 0)
(0.0964528 0.000610055 0)
(0.0963153 0.000638787 0)
(0.0961743 0.000668833 0)
(0.0960296 0.000700245 0)
(0.0958813 0.000733075 0)
(0.0957291 0.000767379 0)
(0.0955731 0.000803214 0)
(0.0954132 0.000840646 0)
(0.0952492 0.000879748 0)
(0.0950812 0.000920631 0)
(0.094909 0.000963498 0)
(0.0947326 0.00100886 0)
(0.0999997 5.63601e-06 0)
(0.0999951 1.67785e-05 0)
(0.0999854 2.77807e-05 0)
(0.0999713 3.85905e-05 0)
(0.099953 4.92609e-05 0)
(0.0999308 6.03244e-05 0)
(0.0999044 7.3066e-05 0)
(0.0998732 8.92641e-05 0)
(0.099836 0.000110404 0)
(0.0997909 0.000136805 0)
(0.0997366 0.000167201 0)
(0.0996722 0.000198994 0)
(0.0995982 0.000229046 0)
(0.0995157 0.000254601 0)
(0.0994269 0.000273963 0)
(0.099334 0.000286745 0)
(0.0992393 0.000293711 0)
(0.0991444 0.000296376 0)
(0.0990505 0.000296537 0)
(0.0989583 0.000295898 0)
(0.0988677 0.000295823 0)
(0.0987787 0.000297245 0)
(0.0986906 0.000300688 0)
(0.0986031 0.000306345 0)
(0.0985155 0.000314182 0)
(0.0984273 0.000324036 0)
(0.0983382 0.000335692 0)
(0.0982477 0.000348931 0)
(0.0981556 0.000363563 0)
(0.0980616 0.000379439 0)
(0.0979655 0.000396452 0)
(0.0978673 0.000414536 0)
(0.0977666 0.000433657 0)
(0.0976636 0.000453805 0)
(0.0975579 0.000474991 0)
(0.0974496 0.000497236 0)
(0.0973386 0.000520574 0)
(0.0972247 0.000545043 0)
(0.097108 0.000570686 0)
(0.0969882 0.000597549 0)
(0.0968654 0.00062568 0)
(0.0967395 0.00065513 0)
(0.0966103 0.000685951 0)
(0.0964778 0.000718194 0)
(0.096342 0.000751916 0)
(0.0962027 0.000787173 0)
(0.0960598 0.000824024 0)
(0.0959134 0.000862527 0)
(0.0957634 0.000902747 0)
(0.0956095 0.000944749 0)
(0.0954519 0.000988603 0)
(0.0952905 0.00103439 0)
(0.0951251 0.00108221 0)
(0.0949557 0.00113226 0)
(0.0947824 0.00118493 0)
(0.0944154 9.78941e-05 -4.50653e-24)
(0.0942174 0.000102936 -4.59429e-24)
(0.0940095 0.000108364 -3.17649e-26)
(0.0937914 0.000114157 1.41169e-23)
(0.0935621 0.000120342 -4.67616e-24)
(0.0933211 0.000126959 -4.813e-24)
(0.0930673 0.000134048 -1.48212e-23)
(0.0928001 0.000141654 1.47162e-23)
(0.0925183 0.000149825 5.03596e-24)
(0.0922209 0.000158615 0)
(0.0919068 0.000168087 5.20339e-24)
(0.0915746 0.000178306 -5.29348e-24)
(0.091223 0.00018935 4.35499e-23)
(0.0908503 0.000201302 -9.33394e-23)
(0.090455 0.000214259 4.98933e-23)
(0.090035 0.000228326 4.04386e-23)
(0.0895884 0.000243625 5.18908e-23)
(0.0891127 0.000260295 -5.9432e-24)
(0.0886054 0.000278494 6.07333e-24)
(0.0880636 0.0002984 -6.21096e-24)
(0.0874841 0.000320219 0)
(0.0868632 0.00034419 6.51111e-24)
(0.086197 0.000370593 -6.67495e-24)
(0.0854807 0.000399752 0)
(0.0847093 0.000432051 -7.034e-24)
(0.0838766 0.000467943 0)
(0.0829759 0.000507968 -7.44092e-24)
(0.0819993 0.00055277 -1.24706e-22)
(0.0809376 0.000603123 1.3242e-22)
(0.0797804 0.000659961 -1.32936e-22)
(0.078515 0.000724419 1.32733e-22)
(0.077127 0.000797877 0)
(0.075599 0.000882023 0)
(0.0739104 0.000978926 1.62704e-22)
(0.0720366 0.00109111 -1.53088e-22)
(0.0699481 0.00122165 0)
(0.0676096 0.00137423 0)
(0.0649786 0.00155311 0)
(0.0620049 0.00176302 0)
(0.0586295 0.0020087 0)
(0.0547855 0.00229396 0)
(0.0504011 0.00261988 0)
(0.0454057 0.00298186 0)
(0.0397434 0.0033648 0)
(0.0333975 0.00373592 -1.50289e-23)
(0.0264301 0.00403451 -5.15752e-22)
(0.0190248 0.0041595 5.14979e-22)
(0.0115608 0.00395629 5.59484e-22)
(0.00495109 0.00318742 -5.58645e-22)
(0.00100968 0.0014824 0)
(0.0944244 0.000293445 -4.55923e-24)
(0.0942265 0.00030861 -9.29935e-24)
(0.094019 0.000324828 -4.87494e-24)
(0.0938011 0.000342146 4.54063e-24)
(0.0935721 0.000360653 -4.74129e-24)
(0.0933314 0.000380458 3.39801e-23)
(0.093078 0.000401681 -5.33657e-23)
(0.0928112 0.000424451 4.95695e-24)
(0.0925299 0.000448916 6.61683e-23)
(0.092233 0.000475238 -9.1386e-23)
(0.0919195 0.000503601 -8.92548e-23)
(0.091588 0.000534205 7.86483e-23)
(0.0912372 0.00056728 0)
(0.0908654 0.000603079 5.49329e-24)
(0.0904711 0.000641886 -1.67894e-23)
(0.0900522 0.000684024 -1.90429e-22)
(0.0896068 0.000729855 1.82779e-22)
(0.0891325 0.000779797 -1.94299e-22)
(0.0886268 0.000834321 -1.82464e-23)
(0.0880868 0.000893963 6.22458e-24)
(0.0875093 0.000959342 0)
(0.0868907 0.00103118 -6.52797e-24)
(0.0862271 0.0011103 -2.10393e-22)
(0.0855138 0.00119769 4.39687e-22)
(0.0847458 0.00129449 2.42591e-22)
(0.0839171 0.00140206 -4.57514e-22)
(0.083021 0.00152202 4.92759e-22)
(0.0820498 0.00165631 -5.00012e-22)
(0.0809946 0.00180722 -7.93559e-24)
(0.0798449 0.00197756 0)
(0.0785887 0.00217071 0)
(0.0772117 0.0023908 0)
(0.0756972 0.00264285 0)
(0.0740252 0.00293303 -9.4296e-24)
(0.0721721 0.00326883 -6.39456e-22)
(0.0701097 0.00365938 -2.70273e-23)
(0.0678041 0.00411555 6.64751e-22)
(0.065215 0.00464997 7.23915e-22)
(0.0622948 0.00527652 -7.22956e-22)
(0.0589876 0.00600902 -2.40095e-23)
(0.0552302 0.00685838 -2.50783e-23)
(0.0509537 0.00782733 -8.64618e-22)
(0.0460899 0.00890139 8.36142e-22)
(0.0405818 0.0100348 -2.84828e-23)
(0.034405 0.0111291 1.51339e-23)
(0.0276016 0.0120033 -1.04872e-21)
(0.0203187 0.0123562 1.04834e-21)
(0.0128727 0.0117286 -2.18741e-21)
(0.00605272 0.00942467 2.15083e-21)
(0.00145736 0.00435163 -2.20379e-21)
(0.0944423 0.000488025 -2.69695e-23)
(0.0942448 0.000513255 -9.46468e-24)
(0.0940378 0.000540156 3.65054e-23)
(0.0938204 0.000568888 -7.51022e-23)
(0.093592 0.000599605 1.60708e-22)
(0.093352 0.000632483 -7.61328e-23)
(0.0930994 0.000667717 1.4184e-26)
(0.0928334 0.000705526 9.88646e-24)
(0.0925531 0.000746154 1.72403e-22)
(0.0922574 0.000789871 -1.62173e-22)
(0.0919452 0.000836982 0)
(0.0916151 0.000887825 1.45906e-26)
(0.0912659 0.000942776 0)
(0.090896 0.00100226 1.88698e-22)
(0.0905036 0.00106675 -1.6633e-22)
(0.090087 0.00113679 -3.58634e-22)
(0.0896441 0.00121297 1.99462e-23)
(0.0891727 0.00129599 -3.77634e-22)
(0.0886702 0.00138664 1.22092e-23)
(0.0881339 0.00148581 -4.04558e-22)
(0.0875605 0.00159453 4.16952e-22)
(0.0869466 0.001714 -4.24934e-22)
(0.0862884 0.0018456 4.37961e-22)
(0.0855813 0.00199096 1.37854e-23)
(0.0848203 0.002152 -1.4164e-23)
(0.0839997 0.00233097 1.45665e-23)
(0.0831132 0.00253055 -4.87973e-22)
(0.0821531 0.00275396 5.02996e-22)
(0.0811109 0.00300502 5.35257e-22)
(0.0799768 0.00328836 -5.18829e-22)
(0.0787392 0.00360958 0)
(0.0773847 0.00397547 0)
(0.0758976 0.00439432 1.82333e-23)
(0.0742594 0.00487621 1.25649e-21)
(0.0724483 0.00543344 3.01621e-23)
(0.0704385 0.00608084 -1.26459e-21)
(0.0681995 0.00683605 0)
(0.0656951 0.00771939 -2.20966e-23)
(0.0628827 0.00875304 1.53888e-21)
(0.059713 0.00995869 -3.07209e-21)
(0.0561294 0.0113528 3.25665e-21)
(0.0520699 0.012938 9.80499e-23)
(0.0474703 0.0146879 -1.69195e-21)
(0.0422714 0.0165247 -1.8313e-21)
(0.036433 0.0182845 1.88732e-21)
(0.0299567 0.0196696 1.4595e-24)
(0.0229149 0.0201859 -3.2083e-23)
(0.0154997 0.0190795 2.11328e-21)
(0.00823878 0.0152425 -2.04637e-21)
(0.00231769 0.00697231 -2.04691e-21)
(0.0944691 0.000680935 1.77693e-23)
(0.0942722 0.000716042 -9.01783e-24)
(0.0940658 0.000753477 1.94871e-26)
(0.0938493 0.000793453 9.28015e-24)
(0.0936219 0.000836191 -1.9598e-26)
(0.0933829 0.000881936 1.54195e-22)
(0.0931316 0.000930965 -2.91384e-22)
(0.092867 0.000983583 1.56606e-22)
(0.0925883 0.00104013 -1.0027e-23)
(0.0922944 0.00110099 1.85349e-22)
(0.0919842 0.00116659 -1.64867e-22)
(0.0916564 0.00123739 -3.42201e-22)
(0.0913097 0.00131392 6.90983e-22)
(0.0909425 0.00139678 -7.04656e-22)
(0.0905533 0.00148663 7.18994e-22)
(0.0901403 0.00158421 -7.22652e-22)
(0.0897014 0.00169038 -3.82591e-22)
(0.0892344 0.00180609 2.25441e-26)
(0.088737 0.00193246 0)
(0.0882063 0.00207072 -3.93964e-22)
(0.0876395 0.00222232 4.06331e-22)
(0.087033 0.00238893 0)
(0.0863831 0.00257248 -8.77715e-22)
(0.0856856 0.00277525 8.63472e-22)
(0.0849356 0.00299991 1.42988e-23)
(0.0841279 0.0032496 -3.71324e-26)
(0.0832561 0.00352807 1.51141e-23)
(0.0823134 0.00383976 0)
(0.0812917 0.00419 -5.32004e-26)
(0.0801818 0.0045852 0)
(0.0789731 0.0050331 -1.71607e-23)
(0.0776535 0.00554305 1.16045e-21)
(0.0762089 0.00612641 -1.16014e-21)
(0.0746228 0.00679699 -1.91911e-23)
(0.0728762 0.0075715 3.97236e-23)
(0.0709471 0.00846999 -1.36938e-21)
(0.0688097 0.00951614 1.32681e-21)
(0.0664341 0.0107369 2.24787e-23)
(0.0637856 0.0121614 -3.5694e-25)
(0.0608239 0.0138172 2.39759e-23)
(0.057503 0.0157239 -1.64628e-21)
(0.0537708 0.017881 3.32787e-21)
(0.049569 0.0202478 -1.73471e-21)
(0.0448355 0.0227122 1.79378e-21)
(0.0395062 0.0250464 -1.87787e-21)
(0.0335215 0.026844 -3.73077e-21)
(0.0268362 0.0274353 7.6111e-21)
(0.0194563 0.0257891 -3.85304e-21)
(0.0115548 0.0204235 0)
(0.00359578 0.00923233 -3.62309e-21)
(0.0945045 0.000871516 -8.81323e-24)
(0.0943085 0.000916289 -3.60062e-23)
(0.0941031 0.000964023 1.09159e-22)
(0.0938877 0.00101499 -1.47406e-22)
(0.0936617 0.00106948 6.49247e-23)
(0.0934243 0.00112781 9.5223e-24)
(0.0931747 0.00119033 -9.68242e-24)
(0.0929122 0.00125745 -2.4626e-26)
(0.0926358 0.00132959 1.00251e-23)
(0.0923444 0.00140725 -2.03928e-23)
(0.092037 0.00149096 -3.3562e-22)
(0.0917124 0.00158133 3.46373e-22)
(0.0913692 0.00167903 -3.38381e-22)
(0.0910061 0.00178482 3.49304e-22)
(0.0906214 0.00189956 0)
(0.0902133 0.00202418 -2.48579e-26)
(0.08978 0.00215978 0)
(0.0893194 0.0023076 -3.77611e-22)
(0.0888291 0.00246905 4.02147e-22)
(0.0883065 0.00264572 -1.26403e-23)
(0.0877487 0.00283945 -8.52233e-22)
(0.0871526 0.00305238 8.39653e-22)
(0.0865145 0.003287 -1.36606e-23)
(0.0858305 0.0035462 0)
(0.0850962 0.0038334 0)
(0.0843064 0.0041526 -9.79773e-22)
(0.0834556 0.00450857 9.50006e-22)
(0.0825373 0.00490697 0)
(0.0815443 0.00535455 -3.26049e-23)
(0.0804683 0.00585942 0)
(0.0793002 0.00643131 1.74619e-23)
(0.0780294 0.00708198 -1.79966e-23)
(0.0766438 0.0078256 -1.87464e-23)
(0.07513 0.0086793 1.9322e-23)
(0.0734726 0.00966368 1.27166e-21)
(0.0716544 0.0108033 -1.31249e-21)
(0.0696562 0.0121266 2.85354e-21)
(0.0674561 0.013666 -2.85537e-21)
(0.0650298 0.0154554 3.03113e-21)
(0.0623495 0.0175258 8.71826e-23)
(0.0593828 0.019897 -3.19417e-21)
(0.0560906 0.0225623 -2.55097e-23)
(0.0524234 0.0254638 1.26395e-24)
(0.0483155 0.0284553 1.67363e-24)
(0.0436741 0.0312498 2.20927e-24)
(0.0383625 0.0333471 -5.5194e-23)
(0.0321783 0.0339341 -2.53253e-23)
(0.0248663 0.0317427 -2.40776e-23)
(0.0161369 0.0249322 0)
(0.00531556 0.0111246 7.50018e-24)
(0.0945485 0.00105916 -4.37351e-23)
(0.0943536 0.00111338 2.63083e-23)
(0.0941495 0.0011712 9.00277e-24)
(0.0939358 0.00123295 1.38216e-22)
(0.0937117 0.00129899 -1.38267e-22)
(0.0934764 0.00136971 1.43072e-22)
(0.0932293 0.00144554 -3.176e-22)
(0.0929696 0.00152697 4.52214e-22)
(0.0926962 0.00161454 -3.16766e-22)
(0.0924083 0.00170882 -3.28667e-22)
(0.0921047 0.00181048 -1.65325e-23)
(0.0917843 0.00192027 6.67533e-22)
(0.091446 0.00203899 -7.03215e-22)
(0.0910881 0.00216758 3.28009e-22)
(0.0907094 0.00230707 3.54066e-22)
(0.090308 0.00245862 3.70223e-22)
(0.0898822 0.00262356 -2.8597e-23)
(0.08943 0.00280341 7.54546e-22)
(0.0889492 0.00299988 7.79391e-22)
(0.0884374 0.00321492 1.97829e-23)
(0.0878918 0.00345079 -8.26376e-22)
(0.0873095 0.00371009 0)
(0.0866873 0.00399586 0)
(0.0860215 0.00431164 -9.21639e-22)
(0.0853079 0.00466157 9.08402e-22)
(0.0845422 0.00505055 9.78795e-22)
(0.0837193 0.00548435 -9.80245e-22)
(0.0828336 0.00596983 0)
(0.0818789 0.00651516 1.09473e-21)
(0.0808482 0.00713006 -1.09683e-21)
(0.0797339 0.00782619 0)
(0.0785274 0.0086175 -2.37446e-21)
(0.0772197 0.00952072 2.39645e-21)
(0.0758006 0.0105558 -1.98095e-23)
(0.0742594 0.0117465 -2.65009e-21)
(0.0725851 0.0131205 2.67468e-21)
(0.0707662 0.0147096 0)
(0.0687912 0.0165484 3.00298e-21)
(0.0666484 0.0186718 -2.98446e-21)
(0.0643254 0.0211091 2.41843e-23)
(0.061807 0.0238733 3.29363e-21)
(0.0590713 0.0269433 -6.60776e-21)
(0.0560812 0.0302359 1.93448e-23)
(0.0527705 0.0335652 3.70437e-23)
(0.049019 0.0365873 3.42698e-21)
(0.0446099 0.0387286 3.81665e-24)
(0.0391671 0.039082 -2.94143e-21)
(0.032101 0.0362414 3.0154e-21)
(0.0224263 0.0281673 0)
(0.00772597 0.0123581 2.68342e-23)
(0.0946007 0.00124305 8.61315e-24)
(0.0944075 0.00130619 7.93583e-23)
(0.0942055 0.0013736 -7.07712e-23)
(0.093994 0.00144566 9.08627e-24)
(0.0937725 0.00152279 1.3969e-22)
(0.0935402 0.00160545 -1.39911e-22)
(0.0932964 0.00169415 -2.99802e-22)
(0.0930403 0.00178946 4.45608e-24)
(0.092771 0.00189201 -5.60403e-24)
(0.0924877 0.00200249 3.33029e-22)
(0.0921892 0.00212169 -3.25357e-22)
(0.0918745 0.00225048 6.90436e-22)
(0.0915424 0.00238984 -3.44047e-22)
(0.0911916 0.00254087 1.11226e-23)
(0.0908206 0.0027048 1.13834e-23)
(0.0904281 0.00288301 7.53103e-22)
(0.0900121 0.00307708 -5.00767e-24)
(0.0895711 0.00328883 7.86222e-22)
(0.0891028 0.00352029 1.25686e-23)
(0.0886051 0.00377379 0)
(0.0880756 0.00405203 0)
(0.0875116 0.00435812 -8.82875e-22)
(0.0869102 0.00469568 8.85106e-22)
(0.0862683 0.00506894 0)
(0.0855823 0.00548285 1.48955e-23)
(0.0848483 0.00594325 0)
(0.0840623 0.006457 -1.02893e-21)
(0.0832195 0.00703225 2.09492e-21)
(0.0823152 0.00767867 -1.06607e-21)
(0.0813439 0.00840772 -2.25963e-21)
(0.0803 0.00923306 -7.59662e-23)
(0.0791776 0.0101709 -8.01495e-23)
(0.0779707 0.0112405 -8.42399e-23)
(0.0766734 0.0124645 2.5409e-21)
(0.0752803 0.0138694 2.72645e-21)
(0.0737872 0.015485 -2.73294e-21)
(0.0721912 0.0173446 0)
(0.0704919 0.0194819 3.02452e-21)
(0.0686911 0.0219275 -3.03155e-21)
(0.066793 0.0247 -3.21913e-21)
(0.0648009 0.0277929 3.2014e-21)
(0.0627122 0.0311528 2.61712e-23)
(0.0605055 0.0346485 3.21701e-21)
(0.058121 0.038029 -1.05565e-22)
(0.0554243 0.0408729 -3.17774e-21)
(0.0521445 0.0425356 2.42477e-23)
(0.0477826 0.042085 0)
(0.0414989 0.0381738 -1.92987e-23)
(0.031459 0.0289686 -9.12331e-22)
(0.0124503 0.0122968 4.27301e-22)
(-0.000233048 0.000311815 0)
(-0.000996934 0.000579577 3.18519e-22)
(-0.00210387 0.000625114 -3.18998e-22)
(-0.0031757 0.000547454 -3.16418e-22)
(-0.00402771 0.00040153 3.16894e-22)
(-0.00458084 0.000220423 -9.69849e-24)
(-0.00479064 2.45192e-05 0)
(-0.00464889 -0.000173115 0)
(-0.00416405 -0.000366588 0)
(-0.00334335 -0.000549933 0)
(-0.00220441 -0.000720884 0)
(-0.00076931 -0.000877734 0)
(0.000937592 -0.00101957 0)
(0.00289065 -0.00114613 0)
(0.00506364 -0.00125735 0)
(0.00743026 -0.0013534 8.58326e-23)
(0.00996437 -0.00143461 -8.08093e-23)
(0.0126403 -0.00150146 0)
(0.0154332 -0.00155455 0)
(0.0183191 -0.00159456 -5.56141e-23)
(0.0212751 -0.00162224 5.56991e-23)
(0.0242795 -0.00163838 -3.94493e-23)
(0.027312 -0.00164376 2.47727e-24)
(0.0303533 -0.0016392 0)
(0.0333859 -0.00162561 1.77386e-24)
(0.0363936 -0.00160393 0)
(0.0393618 -0.00157507 0)
(0.0422778 -0.00153991 0)
(0.04513 -0.00149931 7.05604e-25)
(0.0479086 -0.00145411 0)
(0.0506052 -0.0014051 -3.31694e-25)
(0.0532129 -0.00135304 1.80334e-25)
(0.0557258 -0.00129864 -5.05006e-26)
(0.0581398 -0.00124258 -9.87432e-25)
(0.0604517 -0.00118545 1.08096e-24)
(0.0626594 -0.00112783 1.90628e-24)
(0.0647619 -0.00107022 -4.41576e-24)
(0.0667592 -0.00101307 2.57161e-24)
(0.0686519 -0.000956778 3.75177e-25)
(0.0704417 -0.000901699 -4.02943e-25)
(0.0721305 -0.000848124 0)
(0.073721 -0.000796298 -4.34668e-25)
(0.0752165 -0.000746422 2.22354e-24)
(0.0766203 -0.000698652 -2.22767e-24)
(0.0779364 -0.000653101 4.3962e-25)
(0.0791686 -0.000609846 -1.29775e-24)
(0.0803211 -0.000568931 4.40603e-25)
(0.0813983 -0.000530364 8.24552e-25)
(0.0824043 -0.000494123 -4.10985e-25)
(0.0833434 -0.000460159 3.88608e-25)
(-0.000299774 0.000896277 -1.21109e-21)
(-0.00110387 0.00165851 -1.32307e-21)
(-0.0021016 0.00178729 1.30413e-21)
(-0.00300683 0.00156052 -6.23104e-22)
(-0.0036799 0.00113512 6.2425e-22)
(-0.00406194 0.000607919 9.76578e-24)
(-0.00411784 3.98038e-05 -1.92563e-23)
(-0.00384519 -0.000542707 -6.00033e-22)
(-0.00325294 -0.00111227 5.82144e-22)
(-0.00234637 -0.00165121 -1.72059e-23)
(-0.00114255 -0.00215451 -1.63677e-23)
(0.000338981 -0.0026169 4.75478e-22)
(0.00207575 -0.00303582 -4.7611e-22)
(0.0040441 -0.00341027 -4.13325e-22)
(0.00621992 -0.00373984 3.25093e-23)
(0.00857872 -0.00402486 3.81875e-22)
(0.011096 -0.00426624 -5.17909e-24)
(0.0137477 -0.00446529 -9.56413e-24)
(0.0165101 -0.00462368 0)
(0.0193606 -0.00474337 0)
(0.0222773 -0.00482653 0)
(0.0252395 -0.00487544 -2.88113e-24)
(0.0282276 -0.00489242 1.41279e-22)
(0.0312232 -0.00487981 -1.53474e-22)
(0.0342093 -0.00484031 1.03537e-22)
(0.0371703 -0.00477667 -6.23212e-23)
(0.0400921 -0.00469161 -7.77199e-23)
(0.0429623 -0.00458773 3.4572e-23)
(0.0457697 -0.00446758 -7.07421e-25)
(0.0485048 -0.00433365 -1.10803e-24)
(0.0511593 -0.00418829 3.32417e-25)
(0.0537266 -0.00403377 -6.20346e-25)
(0.0562009 -0.0038722 1.0047e-25)
(0.0585782 -0.00370558 2.88411e-24)
(0.0608552 -0.00353574 -2.95894e-24)
(0.0630301 -0.00336434 6.2953e-25)
(0.0651019 -0.00319292 -2.89302e-25)
(0.0670703 -0.00302281 0)
(0.0689362 -0.00285522 6.45584e-24)
(0.0707009 -0.00269119 -5.72587e-24)
(0.0723667 -0.00253159 -5.95586e-24)
(0.0739359 -0.00237717 8.0511e-24)
(0.0754118 -0.00222853 -4.40891e-25)
(0.0767977 -0.00208614 -2.19036e-24)
(0.0780973 -0.00195033 3.91464e-24)
(0.0793145 -0.00182135 4.33212e-25)
(0.0804534 -0.00169932 2.91928e-24)
(0.0815182 -0.00158428 3.50218e-25)
(0.082513 -0.00147615 -8.36789e-25)
(0.0834419 -0.00137478 -1.17313e-24)
(-0.000416756 0.00136862 -1.26143e-21)
(-0.00127741 0.00250001 1.38059e-21)
(-0.00204534 0.00269377 -1.33936e-21)
(-0.00262242 0.00233602 -2.07621e-23)
(-0.00294804 0.00166717 -4.25191e-25)
(-0.00299778 0.000837613 -1.25483e-21)
(-0.00276647 -6.07166e-05 1.29598e-21)
(-0.00225302 -0.000984666 1.21456e-21)
(-0.00145495 -0.00189251 -3.03489e-23)
(-0.000385763 -0.00275329 -2.22708e-21)
(0.000938764 -0.00356012 2.15206e-21)
(0.00250548 -0.00430481 -1.02397e-21)
(0.00429563 -0.00498231 -1.50184e-23)
(0.00628984 -0.00558986 0)
(0.00846793 -0.00612626 8.00701e-22)
(0.0108089 -0.00659166 -7.79852e-23)
(0.0132914 -0.0069871 -7.1216e-22)
(0.0158942 -0.00731439 1.96152e-23)
(0.0185962 -0.00757594 0)
(0.0213769 -0.00777471 0)
(0.0242167 -0.00791402 2.08205e-22)
(0.0270965 -0.00799747 -2.02169e-22)
(0.0299983 -0.00802863 -1.51187e-22)
(0.0329052 -0.00801139 1.60915e-22)
(0.0358013 -0.00794977 3.94126e-24)
(0.038672 -0.00784838 -3.29126e-24)
(0.0415041 -0.0077116 2.6997e-24)
(0.0442859 -0.00754367 -5.62185e-23)
(0.0470069 -0.00734875 5.84397e-23)
(0.049658 -0.00713088 -2.93665e-23)
(0.0522315 -0.00689394 3.17748e-23)
(0.0547208 -0.00664166 4.41388e-25)
(0.0571208 -0.00637752 3.23457e-24)
(0.0594272 -0.0061048 1.65479e-25)
(0.0616372 -0.00582654 -3.71606e-24)
(0.0637489 -0.00554549 -7.32027e-24)
(0.0657612 -0.00526419 6.47345e-24)
(0.067674 -0.00498487 0)
(0.0694881 -0.00470953 -6.56462e-26)
(0.0712047 -0.00443989 0)
(0.0728258 -0.00417744 -1.29284e-23)
(0.0743539 -0.00392339 1.20474e-23)
(0.0757919 -0.00367876 -8.10538e-25)
(0.077143 -0.00344433 -3.96746e-26)
(0.0784108 -0.00322069 -6.72516e-24)
(0.0795991 -0.00300822 1.24778e-23)
(0.0807116 -0.00280716 -6.63036e-24)
(0.0817524 -0.00261755 3.12154e-24)
(0.0827255 -0.0024393 -2.38599e-24)
(0.0836347 -0.0022721 -7.89667e-25)
(-0.000552265 0.00163678 -2.7357e-21)
(-0.00142699 0.00297187 0)
(-0.00181838 0.00320713 2.82355e-21)
(-0.00192152 0.00274466 -5.63841e-21)
(-0.00175851 0.00188958 2.836e-21)
(-0.0013505 0.000826435 1.28764e-21)
(-0.000719323 -0.000335637 -1.3511e-21)
(0.00012429 -0.00153282 1.24449e-21)
(0.00119425 -0.00271168 -2.45827e-21)
(0.00248021 -0.00384347 1.19487e-21)
(0.00396226 -0.00491235 1.76152e-23)
(0.00563657 -0.00590459 4.20733e-25)
(0.00749171 -0.00681197 1.52765e-23)
(0.00951364 -0.00762964 -9.06034e-22)
(0.0116872 -0.00835512 8.78457e-22)
(0.0139963 -0.00898765 2.47718e-23)
(0.0164239 -0.00952786 -1.11322e-23)
(0.0189527 -0.00997746 6.26015e-22)
(0.0215653 -0.0103391 -6.25837e-22)
(0.0242443 -0.0106163 -8.50701e-24)
(0.0269727 -0.0108131 0)
(0.029734 -0.0109341 3.51791e-25)
(0.0325123 -0.010984 0)
(0.0352926 -0.0109675 5.01512e-24)
(0.0380606 -0.0108902 2.97355e-25)
(0.0408031 -0.0107579 3.32239e-24)
(0.0435081 -0.0105767 -1.66716e-22)
(0.0461647 -0.0103522 1.64292e-22)
(0.0487635 -0.0100902 0)
(0.051296 -0.00979617 -3.72916e-23)
(0.053755 -0.00947534 3.85982e-23)
(0.0561344 -0.00913285 0)
(0.0584292 -0.00877351 -1.58651e-25)
(0.0606358 -0.00840183 -4.27033e-25)
(0.0627511 -0.00802203 -5.32715e-24)
(0.0647734 -0.00763793 1.6382e-23)
(0.0667018 -0.00725305 -2.53592e-23)
(0.068536 -0.00687051 3.27944e-23)
(0.0702768 -0.00649309 -1.81154e-23)
(0.0719252 -0.00612321 -1.12261e-23)
(0.0734832 -0.00576294 9.78581e-24)
(0.0749529 -0.005414 7.24395e-25)
(0.0763372 -0.00507782 1.26892e-23)
(0.077639 -0.0047555 -2.69498e-23)
(0.0788616 -0.00444788 1.26889e-23)
(0.0800086 -0.00415552 4.41361e-26)
(0.0810836 -0.00387876 -7.97566e-25)
(0.0820903 -0.00361767 -3.5971e-26)
(0.0830323 -0.00337212 7.58715e-25)
(0.0839135 -0.00314163 -1.4405e-24)
(-0.00060652 0.00162353 -1.77282e-24)
(-0.00134512 0.00299561 -2.55959e-23)
(-0.00122629 0.00323753 -2.47507e-23)
(-0.000735716 0.00271103 -2.39785e-23)
(1.75084e-05 0.00174745 -4.58211e-23)
(0.000962018 0.000546486 -5.99822e-25)
(0.00205356 -0.000790171 2.13304e-23)
(0.00328059 -0.00217915 -2.11063e-23)
(0.00465404 -0.00355649 -2.02994e-23)