/*--------------------------------*- C++ -*----------------------------------*\
| =========                 |                                                 |
| \\      /  F ield         | OpenFOAM: The Open Source CFD Toolbox           |
|  \\    /   O peration     | Version:  2412                                  |
|   \\  /    A nd           | Website:  www.openfoam.com                      |
|    \\/     M anipulation  |                                                 |
\*---------------------------------------------------------------------------*/
FoamFile
{
    version     2.0;
    format      ascii;
    arch        "LSB;label=32;scalar=64";
    class       volVectorField;
    location    "19.5";
    object      vorticity;
}
// * * * * * * * * * * * * * * * * * * * * * * * * * * * * * * * * * * * * * //

dimensions      [0 0 -1 0 0 0 0];

internalField   nonuniform List<vector> 
63420
(
(0 0 5.89176e-06)
(0 0 5.87561e-06)
(0 0 5.82783e-06)
(0 0 5.75206e-06)
(0 0 5.83285e-06)
(0 0 6.45772e-06)
(0 0 7.99315e-06)
(0 0 1.04344e-05)
(0 0 1.3207e-05)
(0 0 1.5302e-05)
(0 0 1.5683e-05)
(0 0 1.37272e-05)
(0 0 9.47082e-06)
(0 0 3.56927e-06)
(0 0 -2.96112e-06)
(0 0 -9.07309e-06)
(0 0 -1.39558e-05)
(0 0 -1.71697e-05)
(0 0 -1.86477e-05)
(0 0 -1.86066e-05)
(0 0 -1.7423e-05)
(0 0 -1.55178e-05)
(0 0 -1.32729e-05)
(0 0 -1.09862e-05)
(0 0 -8.85899e-06)
(0 0 -7.00413e-06)
(0 0 -5.46569e-06)
(0 0 -4.24043e-06)
(0 0 -3.29732e-06)
(0 0 -2.59251e-06)
(0 0 -2.0794e-06)
(0 0 -1.71468e-06)
(0 0 -1.46122e-06)
(0 0 -1.28896e-06)
(0 0 -1.17457e-06)
(0 0 -1.10056e-06)
(0 0 -1.05418e-06)
(0 0 -1.02631e-06)
(0 0 -1.01057e-06)
(0 0 -1.0026e-06)
(0 0 -9.9941e-07)
(0 0 -9.99005e-07)
(0 0 -1.00005e-06)
(0 0 -1.00168e-06)
(0 0 -1.00329e-06)
(0 0 -1.00449e-06)
(0 0 -1.00492e-06)
(0 0 -1.00403e-06)
(0 0 -1.00034e-06)
(0 0 -9.8885e-07)
(0 0 -9.5245e-07)
(0 0 -8.33881e-07)
(0 0 -4.4782e-07)
(0 0 7.86203e-07)
(0 4.47168e-23 4.62506e-06)
(0 0 1.7671e-05)
(0 0 1.76237e-05)
(0 0 1.74822e-05)
(0 0 1.7257e-05)
(0 0 1.74978e-05)
(0 0 1.93612e-05)
(0 0 2.39435e-05)
(0 0 3.12365e-05)
(0 0 3.95329e-05)
(0 0 4.58263e-05)
(0 0 4.70226e-05)
(0 0 4.12568e-05)
(0 0 2.86259e-05)
(0 0 1.10735e-05)
(0 0 -8.37688e-06)
(0 0 -2.6605e-05)
(0 0 -4.11911e-05)
(0 0 -5.08193e-05)
(0 0 -5.52828e-05)
(0 0 -5.52213e-05)
(0 0 -5.17522e-05)
(0 0 -4.61264e-05)
(0 0 -3.94801e-05)
(0 0 -3.27008e-05)
(0 0 -2.63885e-05)
(0 0 -2.08809e-05)
(0 0 -1.63106e-05)
(0 0 -1.26692e-05)
(0 0 -9.86538e-06)
(0 0 -7.76952e-06)
(0 0 -6.24353e-06)
(0 0 -5.15892e-06)
(0 0 -4.40549e-06)
(0 0 -3.89397e-06)
(0 0 -3.55501e-06)
(0 0 -3.33659e-06)
(0 0 -3.20074e-06)
(0 0 -3.12035e-06)
(0 0 -3.07645e-06)
(0 0 -3.05596e-06)
(0 0 -3.05001e-06)
(0 0 -3.05262e-06)
(0 0 -3.0598e-06)
(0 0 -3.06893e-06)
(0 0 -3.07823e-06)
(0 0 -3.08646e-06)
(0 0 -3.09256e-06)
(0 0 -3.09494e-06)
(0 0 -3.08924e-06)
(0 0 -3.061e-06)
(0 0 -2.96065e-06)
(0 0 -2.62216e-06)
(0 0 -1.50731e-06)
(0 0 2.07315e-06)
(0 4.51846e-23 1.32406e-05)
(0 0 2.94378e-05)
(0 0 2.93595e-05)
(0 0 2.91257e-05)
(0 0 2.87524e-05)
(0 0 2.91472e-05)
(0 0 3.22253e-05)
(0 0 3.98123e-05)
(0 0 5.19151e-05)
(0 0 6.57304e-05)
(0 0 7.62947e-05)
(0 0 7.84806e-05)
(0 0 6.91751e-05)
(0 0 4.85014e-05)
(0 0 1.96389e-05)
(0 0 -1.24355e-05)
(0 0 -4.25691e-05)
(0 0 -6.67533e-05)
(0 0 -8.27946e-05)
(0 0 -9.03297e-05)
(0 0 -9.03961e-05)
(0 0 -8.48246e-05)
(0 0 -7.5672e-05)
(0 0 -6.48109e-05)
(0 0 -5.37065e-05)
(0 0 -4.33519e-05)
(0 0 -3.43081e-05)
(0 0 -2.67974e-05)
(0 0 -2.08094e-05)
(0 0 -1.61965e-05)
(0 0 -1.27467e-05)
(0 0 -1.0234e-05)
(0 0 -8.44753e-06)
(0 0 -7.20623e-06)
(0 0 -6.36332e-06)
(0 0 -5.80477e-06)
(0 0 -5.44495e-06)
(0 0 -5.22134e-06)
(0 0 -5.0893e-06)
(0 0 -5.01754e-06)
(0 0 -4.98453e-06)
(0 0 -4.97562e-06)
(0 0 -4.98096e-06)
(0 0 -4.99397e-06)
(0 0 -5.01029e-06)
(0 0 -5.027e-06)
(0 0 -5.04206e-06)
(0 0 -5.05375e-06)
(0 0 -5.05951e-06)
(0 0 -5.05259e-06)
(0 0 -5.01054e-06)
(0 0 -4.85657e-06)
(0 0 -4.33296e-06)
(0 0 -2.60129e-06)
(0 0 2.98043e-06)
(0 2.66637e-22 2.04528e-05)
(0 0 4.11842e-05)
(0 0 4.10747e-05)
(0 0 4.07506e-05)
(0 0 4.02317e-05)
(0 0 4.07707e-05)
(0 0 4.50253e-05)
(0 0 5.55486e-05)
(0 0 7.23925e-05)
(0 0 9.17175e-05)
(0 0 0.000106668)
(0 0 0.000110123)
(0 0 9.77128e-05)
(0 0 6.9531e-05)
(0 0 2.99081e-05)
(0 0 -1.4312e-05)
(0 0 -5.601e-05)
(0 0 -8.96206e-05)
(0 0 -0.000112072)
(0 0 -0.000122816)
(0 0 -0.000123249)
(0 0 -0.000115869)
(0 0 -0.000103502)
(0 0 -8.87275e-05)
(0 0 -7.35687e-05)
(0 0 -5.94023e-05)
(0 0 -4.70102e-05)
(0 0 -3.67069e-05)
(0 0 -2.84849e-05)
(0 0 -2.21462e-05)
(0 0 -1.74027e-05)
(0 0 -1.39456e-05)
(0 0 -1.14863e-05)
(0 0 -9.77667e-06)
(0 0 -8.61514e-06)
(0 0 -7.84508e-06)
(0 0 -7.34876e-06)
(0 0 -7.04016e-06)
(0 0 -6.85784e-06)
(0 0 -6.75875e-06)
(0 0 -6.71321e-06)
(0 0 -6.70103e-06)
(0 0 -6.70863e-06)
(0 0 -6.72696e-06)
(0 0 -6.74999e-06)
(0 0 -6.77369e-06)
(0 0 -6.79527e-06)
(0 0 -6.81239e-06)
(0 0 -6.82173e-06)
(0 0 -6.81479e-06)
(0 0 -6.76353e-06)
(0 0 -6.57228e-06)
(0 0 -5.91926e-06)
(0 0 -3.75223e-06)
(0 0 3.26791e-06)
(0 -1.7505e-22 2.53816e-05)
(0 0 5.29026e-05)
(0 0 5.27613e-05)
(0 0 5.23496e-05)
(0 0 5.16882e-05)
(0 0 5.23584e-05)
(0 0 5.77383e-05)
(0 0 7.11057e-05)
(0 0 9.25976e-05)
(0 0 0.000117417)
(0 0 0.000136905)
(0 0 0.000141997)
(0 0 0.00012706)
(0 0 9.20813e-05)
(0 0 4.24315e-05)
(0 0 -1.3295e-05)
(0 0 -6.60999e-05)
(0 0 -0.000108905)
(0 0 -0.000137759)
(0 0 -0.000151894)
(0 0 -0.000153008)
(0 0 -0.000144213)
(0 0 -0.000129047)
(0 0 -0.00011076)
(0 0 -9.19071e-05)
(0 0 -7.42365e-05)
(0 0 -5.87471e-05)
(0 0 -4.58486e-05)
(0 0 -3.5543e-05)
(0 0 -2.75897e-05)
(0 0 -2.16328e-05)
(0 0 -1.72879e-05)
(0 0 -1.41947e-05)
(0 0 -1.20429e-05)
(0 0 -1.05798e-05)
(0 0 -9.60897e-06)
(0 0 -8.98265e-06)
(0 0 -8.59273e-06)
(0 0 -8.36196e-06)
(0 0 -8.23618e-06)
(0 0 -8.17804e-06)
(0 0 -8.16212e-06)
(0 0 -8.17133e-06)
(0 0 -8.19424e-06)
(0 0 -8.22327e-06)
(0 0 -8.25334e-06)
(0 0 -8.28094e-06)
(0 0 -8.3032e-06)
(0 0 -8.31629e-06)
(0 0 -8.31073e-06)
(0 0 -8.25592e-06)
(0 0 -8.04801e-06)
(0 0 -7.3379e-06)
(0 0 -4.97769e-06)
(0 0 2.71646e-06)
(0 8.64157e-23 2.72128e-05)
(0 0 6.45863e-05)
(0 0 6.44107e-05)
(0 0 6.39147e-05)
(0 0 6.31148e-05)
(0 0 6.39009e-05)
(0 0 7.03441e-05)
(0 0 8.64434e-05)
(0 0 0.000112468)
(0 0 0.000142759)
(0 0 0.000166959)
(0 0 0.000174128)
(0 0 0.000157353)
(0 0 0.000116433)
(0 0 5.76397e-05)
(0 0 -8.82065e-06)
(0 0 -7.21777e-05)
(0 0 -0.000123894)
(0 0 -0.000159136)
(0 0 -0.000176877)
(0 0 -0.000179049)
(0 0 -0.000169307)
(0 0 -0.000151843)
(0 0 -0.000130525)
(0 0 -0.000108413)
(0 0 -8.76091e-05)
(0 0 -6.93249e-05)
(0 0 -5.40692e-05)
(0 0 -4.18614e-05)
(0 0 -3.2428e-05)
(0 0 -2.53546e-05)
(0 0 -2.01902e-05)
(0 0 -1.65102e-05)
(0 0 -1.39477e-05)
(0 0 -1.22036e-05)
(0 0 -1.1045e-05)
(0 0 -1.02965e-05)
(0 0 -9.82969e-06)
(0 0 -9.55261e-06)
(0 0 -9.40088e-06)
(0 0 -9.33001e-06)
(0 0 -9.30974e-06)
(0 0 -9.31968e-06)
(0 0 -9.34622e-06)
(0 0 -9.38031e-06)
(0 0 -9.4159e-06)
(0 0 -9.44883e-06)
(0 0 -9.4758e-06)
(0 0 -9.49266e-06)
(0 0 -9.48984e-06)
(0 0 -9.43732e-06)
(0 0 -9.23495e-06)
(0 0 -8.5491e-06)
(0 0 -6.28293e-06)
(0 0 1.13172e-06)
(0 4.26389e-22 2.51613e-05)
(0 0 7.62266e-05)
(0 0 7.60139e-05)
(0 0 7.54379e-05)
(0 0 7.45044e-05)
(0 0 7.53892e-05)
(0 0 8.28255e-05)
(0 0 0.000101528)
(0 0 0.000131951)
(0 0 0.000167681)
(0 0 0.000196782)
(0 0 0.000206512)
(0 0 0.00018867)
(0 0 0.000142766)
(0 0 7.58237e-05)
(0 0 -4.97813e-07)
(0 0 -7.37767e-05)
(0 0 -0.000134078)
(0 0 -0.000175686)
(0 0 -0.000197268)
(0 0 -0.000200919)
(0 0 -0.000190755)
(0 0 -0.000171552)
(0 0 -0.000147746)
(0 0 -0.000122863)
(0 0 -9.93417e-05)
(0 0 -7.86037e-05)
(0 0 -6.12591e-05)
(0 0 -4.73537e-05)
(0 0 -3.65918e-05)
(0 0 -2.85114e-05)
(0 0 -2.26047e-05)
(0 0 -1.8391e-05)
(0 0 -1.54534e-05)
(0 0 -1.34516e-05)
(0 0 -1.212e-05)
(0 0 -1.12581e-05)
(0 0 -1.07193e-05)
(0 0 -1.03983e-05)
(0 0 -1.02214e-05)
(0 0 -1.01376e-05)
(0 0 -1.01123e-05)
(0 0 -1.01219e-05)
(0 0 -1.01509e-05)
(0 0 -1.0189e-05)
(0 0 -1.02291e-05)
(0 0 -1.02665e-05)
(0 0 -1.02975e-05)
(0 0 -1.0318e-05)
(0 0 -1.0319e-05)
(0 0 -1.02738e-05)
(0 0 -1.00966e-05)
(0 0 -9.51148e-06)
(0 0 -7.63803e-06)
(0 0 -1.63771e-06)
(0 -8.34158e-23 1.83427e-05)
(-1.68966e-23 7.94933e-21 2.73098e-06)
(-1.45994e-22 7.81625e-21 2.13303e-06)
(3.26756e-23 -1.95438e-22 1.32733e-06)
(3.73813e-23 -2.33364e-20 2.71979e-07)
(-9.15134e-23 7.97241e-21 -1.07011e-06)
(3.59618e-22 7.83088e-21 -2.72813e-06)
(-7.86401e-22 2.28312e-20 -4.72716e-06)
(3.08411e-22 -2.31988e-20 -7.09085e-06)
(6.21215e-22 -7.46492e-21 -9.84342e-06)
(-8.87882e-22 -3.68747e-24 -1.30118e-05)
(-8.87526e-22 -7.47994e-21 -1.6627e-05)
(7.774e-22 7.10603e-21 -2.07254e-05)
(5.60346e-22 -5.85411e-20 -2.53508e-05)
(-1.03435e-21 1.25677e-19 -3.05548e-05)
(3.55783e-22 -6.76093e-20 -3.63944e-05)
(-1.21757e-21 -5.09777e-20 -4.29259e-05)
(2.336e-21 -6.49137e-20 -5.0205e-05)
(-1.83407e-21 7.64908e-21 -5.83086e-05)
(-1.87035e-22 -7.13748e-21 -6.73323e-05)
(7.17737e-23 7.14231e-21 -7.73665e-05)
(-3.1086e-24 -1.27146e-22 -8.84889e-05)
(-6.67715e-23 -6.88965e-21 -0.00010078)
(-1.98692e-21 6.94944e-21 -0.000114329)
(4.15615e-21 1.27721e-23 -0.000129226)
(1.21274e-21 6.7473e-21 -0.000145572)
(-3.23816e-21 -5.25586e-24 -0.00016348)
(4.65967e-21 7.83494e-21 -0.000183088)
(-5.46326e-21 1.01682e-19 -0.000204581)
(6.77126e-22 -1.09187e-19 -0.000228208)
(-2.10567e-21 9.97418e-20 -0.00025433)
(2.05118e-21 -1.00872e-19 -0.00028348)
(4.79403e-23 1.32565e-21 -0.000316477)
(-6.23876e-23 -1.62718e-21 -0.00035461)
(2.74136e-21 -9.54712e-20 -0.000399977)
(-8.54887e-21 9.26511e-20 -0.000456077)
(-3.11601e-22 -1.5295e-21 -0.00052885)
(6.12939e-21 1.34056e-23 -0.000628468)
(6.66237e-21 1.45713e-23 -0.00077229)
(-6.64105e-21 -1.45246e-23 -0.000989582)
(-2.20137e-22 -4.81462e-25 -0.00132863)
(-2.29507e-22 -5.01955e-25 -0.00186679)
(-7.89788e-21 -1.72734e-23 -0.00272356)
(7.62352e-21 1.66734e-23 -0.00407546)
(-2.51692e-22 1.49735e-22 -0.00616988)
(-3.24974e-23 7.74968e-21 -0.00933211)
(-2.44037e-20 5.01621e-20 -0.0139569)
(2.35052e-20 -6.60998e-20 -0.020472)
(-5.5098e-21 -9.39244e-21 -0.0292603)
(6.05644e-21 2.56707e-20 -0.0405339)
(-2.0142e-20 -5.62301e-21 -0.0540806)
(-2.56191e-22 7.96091e-21 7.89306e-06)
(-1.03572e-22 1.56604e-20 6.0316e-06)
(2.99919e-22 7.61704e-21 3.49413e-06)
(-8.62372e-22 -7.82926e-21 1.54673e-07)
(1.60158e-21 7.46859e-21 -4.08831e-06)
(-4.94329e-22 -5.34849e-20 -9.31794e-06)
(-2.17084e-22 8.49272e-20 -1.56057e-05)
(-5.62469e-23 -8.84163e-21 -2.30202e-05)
(2.15193e-21 -9.78058e-20 -3.16346e-05)
(-2.23759e-21 1.38085e-19 -4.15312e-05)
(-8.20419e-22 1.26183e-19 -5.28072e-05)
(6.04973e-22 -1.13515e-19 -6.55779e-05)
(-3.88278e-22 7.27931e-22 -7.99802e-05)
(2.76983e-21 -7.23018e-21 -9.61766e-05)
(-2.15763e-21 2.40352e-20 -0.000114349)
(-5.90918e-21 2.38802e-19 -0.000134675)
(1.61434e-21 -2.24566e-19 -0.000157333)
(-5.53025e-21 2.40656e-19 -0.000182559)
(-2.93415e-22 1.94838e-20 -0.000210661)
(-3.79387e-21 -7.29978e-21 -0.000241929)
(4.01053e-21 1.43473e-22 -0.000276616)
(-4.02314e-21 9.06273e-21 -0.000314988)
(1.00214e-21 2.09036e-19 -0.000357337)
(5.86652e-21 -4.42597e-19 -0.000403969)
(4.46856e-21 -2.11442e-19 -0.000455219)
(-6.94324e-21 4.28046e-19 -0.000511471)
(3.62134e-21 -4.2682e-19 -0.000573191)
(-1.96801e-21 4.37935e-19 -0.000640981)
(3.24826e-21 1.45918e-21 -0.000715657)
(-3.67854e-21 -9.63977e-23 -0.000798373)
(-1.23592e-21 -2.70308e-24 -0.000890815)
(0 0 -0.000995532)
(1.82661e-22 9.47912e-23 -0.00111651)
(1.09192e-20 1.22428e-20 -0.00126018)
(-1.56092e-20 3.57621e-19 -0.00143724)
(-1.55905e-20 -2.40084e-20 -0.00166579)
(1.84171e-20 -3.52743e-19 -0.00197677)
(2.63093e-20 -3.04808e-19 -0.00242296)
(-9.31473e-21 3.25602e-19 -0.00309323)
(-3.0822e-20 2.16552e-21 -0.00413411)
(3.00892e-20 1.71639e-20 -0.00578015)
(-4.17217e-20 2.32236e-19 -0.00839317)
(2.25802e-20 -2.41561e-19 -0.0125072)
(-1.7815e-20 1.45185e-20 -0.0188698)
(1.97447e-20 7.63749e-21 -0.0284631)
(-5.92559e-20 1.12239e-19 -0.0424781)
(5.91808e-20 -1.09863e-19 -0.0622021)
(-9.09671e-20 8.20341e-20 -0.0887665)
(8.77838e-20 -9.16002e-20 -0.122738)
(-1.85987e-20 -6.28708e-22 -0.162115)
(-4.23294e-23 4.71654e-20 1.26337e-05)
(-8.53734e-23 1.49137e-20 9.2867e-06)
(3.74593e-22 -6.17837e-20 4.6279e-06)
(-7.96257e-22 1.22911e-19 -1.53763e-06)
(1.75618e-21 -2.63117e-19 -9.35381e-06)
(3.83736e-22 1.25113e-19 -1.8936e-05)
(-2.42711e-21 -8.62062e-22 -3.03897e-05)
(1.55017e-21 -1.69992e-20 -4.38251e-05)
(1.46273e-21 -2.56773e-19 -5.93672e-05)
(7.42295e-22 2.44666e-19 -7.71638e-05)
(-8.50506e-22 -1.61378e-21 -9.73916e-05)
(-4.18019e-21 -1.55996e-23 -0.000120262)
(6.63084e-21 -1.83663e-21 -0.000146025)
(-3.93109e-21 -2.50479e-19 -0.000174981)
(5.13262e-21 2.27624e-19 -0.000207461)
(-1.13538e-20 4.52329e-19 -0.000243799)
(-4.80885e-21 -1.20562e-20 -0.000284328)
(-4.70101e-21 4.6541e-19 -0.000329489)
(4.0713e-22 -1.41278e-20 -0.000379847)
(-1.23331e-20 4.51988e-19 -0.000435947)
(1.22532e-20 -4.69413e-19 -0.000498283)
(-9.15304e-21 4.4829e-19 -0.000567381)
(2.40387e-21 -4.66276e-19 -0.000643822)
(5.20187e-21 -9.3073e-21 -0.000728227)
(-2.58332e-21 1.36656e-20 -0.000821281)
(5.51793e-21 -8.81062e-21 -0.000923771)
(-1.88217e-20 4.20302e-19 -0.00103664)
(1.69265e-20 -4.47958e-19 -0.0011611)
(1.84255e-20 -4.16257e-19 -0.00129872)
(-1.51285e-20 4.1817e-19 -0.00145168)
(-1.07855e-21 -5.14957e-21 -0.00162308)
(1.11623e-20 -1.20795e-22 -0.00181749)
(-1.27708e-20 -2.46777e-20 -0.00204196)
(5.31451e-20 -7.60229e-19 -0.0023077)
(1.65374e-20 5.60878e-20 -0.00263314)
(-7.00081e-20 7.15929e-19 -0.00304937)
(3.93825e-21 -1.22885e-20 -0.00360928)
(-1.13926e-20 -4.83571e-21 -0.00440296)
(1.09783e-19 -6.01091e-19 -0.00558194)
(-2.04244e-19 1.18058e-18 -0.00739573)
(2.08349e-19 -1.17311e-18 -0.0102432)
(7.09334e-20 8.47127e-20 -0.0147386)
(-1.56573e-19 5.13707e-19 -0.0217874)
(-1.64372e-19 3.54486e-19 -0.0326562)
(1.55341e-19 -4.20239e-19 -0.0490093)
(-2.2101e-20 1.93707e-20 -0.0728677)
(5.46e-20 -1.72399e-20 -0.106415)
(1.63949e-19 -1.01849e-19 -0.151528)
(-1.77472e-19 1.5898e-19 -0.208957)
(-2.52593e-20 -4.07583e-20 -0.270835)
(4.04365e-22 -3.11054e-20 1.65728e-05)
(-3.64198e-22 1.57284e-20 1.12167e-05)
(6.85399e-22 -1.70416e-22 3.60864e-06)
(-6.12291e-22 -1.54751e-20 -6.44991e-06)
(-9.57751e-22 -1.43809e-21 -1.9089e-05)
(3.33258e-21 -2.42902e-19 -3.44229e-05)
(-4.70389e-21 4.59965e-19 -5.25787e-05)
(2.2986e-21 -2.47654e-19 -7.37109e-05)
(-1.81834e-21 1.49417e-20 -9.80113e-05)
(4.84732e-21 -2.71204e-19 -0.000125715)
(-5.83572e-21 2.47453e-19 -0.000157107)
(-4.13439e-21 4.7247e-19 -0.000192528)
(1.08188e-20 -9.55878e-19 -0.000232383)
(-1.30135e-20 9.54851e-19 -0.000277148)
(1.72503e-20 -9.50408e-19 -0.00032736)
(-1.13683e-20 9.41906e-19 -0.000383561)
(-9.92969e-21 4.79148e-19 -0.000446305)
(-7.05782e-22 -3.76005e-21 -0.000516312)
(4.5e-21 3.9065e-21 -0.000594495)
(-7.66767e-21 4.4203e-19 -0.000681756)
(-1.89738e-21 -4.64216e-19 -0.000778939)
(1.47711e-20 1.2729e-20 -0.000886971)
(-3.37067e-20 8.91337e-19 -0.00100688)
(2.55654e-20 -8.94283e-19 -0.00113978)
(2.26973e-21 -5.34693e-21 -0.00128694)
(-9.73994e-21 -9.09531e-23 -0.00144978)
(1.48092e-20 -1.3518e-20 -0.00163001)
(-4.81288e-21 1.23417e-22 -0.00182977)
(-5.28572e-21 -6.51001e-23 -0.00205177)
(5.03305e-21 1.95606e-22 -0.00229964)
(-3.72452e-21 1.44186e-21 -0.00257837)
(6.3306e-20 -7.90087e-19 -0.00289514)
(-5.73982e-20 8.12562e-19 -0.00326065)
(-1.60637e-20 2.09503e-22 -0.00369162)
(1.87128e-20 -1.03129e-20 -0.00421515)
(-9.90547e-20 7.25341e-19 -0.00487642)
(1.15571e-19 -7.28549e-19 -0.00575196)
(-2.26854e-20 2.2005e-21 -0.00697173)
(1.60309e-20 -9.25331e-23 -0.00875405)
(3.81149e-20 6.41377e-21 -0.0114582)
(-2.47698e-19 5.44216e-19 -0.0156579)
(3.67462e-19 -1.10323e-18 -0.0222366)
(-1.79415e-19 5.59008e-19 -0.0324959)
(2.60634e-19 -4.27822e-19 -0.0482604)
(-2.52294e-19 5.03987e-19 -0.07194)
(-5.87853e-19 5.20118e-19 -0.106492)
(1.10994e-18 -1.10216e-18 -0.155159)
(-5.43403e-19 5.5654e-19 -0.220724)
(1.87587e-20 -2.15229e-21 -0.303935)
(4.5202e-21 -3.49297e-20 -0.383487)
(-7.33424e-22 1.5809e-20 1.91632e-05)
(-2.89383e-22 6.05488e-20 1.06619e-05)
(2.00771e-21 -1.83839e-19 -1.46881e-06)
(-1.36889e-21 2.46698e-19 -1.72428e-05)
(-2.37985e-22 -1.0924e-19 -3.66879e-05)
(1.14707e-22 -1.46049e-20 -5.98937e-05)
(-4.73815e-22 1.53934e-20 -8.70187e-05)
(3.0193e-21 -1.86055e-22 -0.00011829)
(-2.86881e-21 -1.50477e-20 -0.000154004)
(-5.23273e-21 3.37378e-20 -0.000194527)
(-7.02547e-21 4.80531e-19 -0.000240301)
(1.84431e-20 -4.99433e-19 -0.000291852)
(-2.27532e-20 4.65914e-19 -0.000349798)
(1.89702e-20 -4.84651e-19 -0.000414864)
(-2.9986e-21 3.38813e-21 -0.000487866)
(1.09612e-20 4.74896e-23 -0.000569647)
(4.16776e-21 3.7065e-21 -0.00066108)
(-5.33073e-21 4.52777e-19 -0.000763283)
(2.02605e-20 -4.89962e-19 -0.000877657)
(6.32304e-21 2.6888e-20 -0.00100561)
(-4.58211e-20 9.33578e-19 -0.00114854)
(2.92006e-20 -9.36217e-19 -0.00130798)
(1.01517e-20 2.25967e-20 -0.00148567)
(-1.80074e-20 -2.32748e-22 -0.00168351)
(1.17832e-20 9.61693e-21 -0.00190368)
(-3.89898e-20 8.97187e-19 -0.00214867)
(3.22091e-20 -8.88744e-19 -0.00242143)
(2.8312e-21 9.60188e-21 -0.00272554)
(9.51442e-21 2.72297e-20 -0.00306549)
(-1.14836e-20 -5.48494e-22 -0.00344707)
(1.18093e-21 -1.30209e-20 -0.00387799)
(-3.72455e-20 1.32215e-20 -0.00436888)
(3.50306e-20 1.25946e-20 -0.00493515)
(-3.10616e-21 -2.52203e-20 -0.0056001)
(8.28035e-20 -7.39004e-19 -0.00640065)
(-7.38821e-20 7.61727e-19 -0.00739741)
(2.7009e-19 -1.46563e-18 -0.00869214)
(-2.47719e-19 1.47984e-18 -0.0104568)
(3.06928e-19 -1.38465e-18 -0.0129801)
(7.14437e-20 1.3182e-19 -0.0167371)
(-3.52842e-19 1.31917e-18 -0.0224877)
(-1.20534e-19 -2.21306e-20 -0.0314039)
(1.64071e-20 3.86198e-22 -0.0452185)
(-1.82842e-20 5.60399e-22 -0.0663773)
(5.40088e-20 1.65936e-21 -0.0981616)
(2.59771e-20 1.35484e-20 -0.144723)
(-1.1274e-19 5.12094e-21 -0.210876)
(6.42034e-20 4.96396e-21 -0.301123)
(-1.64564e-22 -3.08953e-22 -0.416718)
(3.59358e-20 6.36348e-22 -0.5103)
(-7.2167e-22 7.62087e-20 1.96032e-05)
(1.64891e-21 -4.64673e-20 5.44915e-06)
(-1.65919e-21 -1.63806e-20 -1.39983e-05)
(4.7015e-21 -2.27677e-19 -3.82945e-05)
(-2.3292e-21 2.29547e-19 -6.73626e-05)
(2.07847e-21 -2.27128e-19 -0.000101328)
(-1.10502e-20 5.00851e-19 -0.000140454)
(1.17038e-20 -7.01397e-19 -0.00018511)
(-7.56689e-21 4.95963e-19 -0.000235765)
(-6.03099e-21 4.83487e-19 -0.000292989)
(-2.2015e-21 3.9607e-21 -0.000357455)
(2.45859e-20 -9.49736e-19 -0.000429952)
(-2.15358e-20 9.88334e-19 -0.0005114)
(5.22263e-21 -4.64961e-19 -0.000602869)
(1.22034e-20 -4.67227e-19 -0.000705568)
(2.25091e-20 -4.59711e-19 -0.000820767)
(-3.25052e-21 6.63102e-21 -0.000949808)
(3.85433e-20 -9.53313e-19 -0.00109438)
(2.99338e-20 -9.15233e-19 -0.00125657)
(6.5832e-21 2.11878e-20 -0.00143853)
(-2.70214e-20 9.50552e-19 -0.00164249)
(-2.00744e-20 -8.05838e-21 -0.00187091)
(1.22571e-20 8.924e-21 -0.00212662)
(-5.11905e-20 9.20257e-19 -0.00241279)
(4.16829e-20 -9.34762e-19 -0.00273303)
(7.32759e-20 -8.97837e-19 -0.00309149)
(-7.45019e-20 9.27377e-19 -0.00349311)
(1.50303e-20 -1.99627e-20 -0.00394377)
(6.83425e-20 -8.94911e-19 -0.0044507)
(-9.6023e-20 9.17725e-19 -0.00502298)
(4.36299e-21 1.23148e-20 -0.00567229)
(-2.08328e-19 1.68046e-18 -0.00641416)
(1.88549e-19 -1.74342e-18 -0.00727018)
(4.83543e-20 6.18991e-20 -0.00827177)
(-2.68372e-19 1.59028e-18 -0.00946712)
(2.46159e-19 -1.65813e-18 -0.0109334)
(-3.1494e-20 -3.29e-21 -0.012798)
(4.72316e-19 -1.49481e-18 -0.0152751)
(-4.42187e-19 1.54372e-18 -0.018723)
(-6.60497e-20 -7.22879e-20 -0.0237334)
(6.78226e-19 -1.3043e-18 -0.0312567)
(-1.19368e-18 2.68956e-18 -0.0427674)
(-6.56099e-20 -1.55106e-19 -0.0604632)
(-8.78556e-20 -1.21714e-19 -0.0874836)
(7.69548e-19 -1.17058e-18 -0.128141)
(3.93879e-20 6.281e-20 -0.188179)
(-8.67384e-19 7.7546e-19 -0.275065)
(8.5046e-19 -8.52806e-19 -0.397773)
(9.16618e-21 2.88854e-20 -0.56273)
(9.30179e-21 -2.72183e-21 -0.67611)
(6.0652e-22 -1.58697e-20 1.68414e-05)
(1.69675e-21 -1.35385e-19 -8.89564e-06)
(-1.81669e-21 1.22094e-19 -3.98171e-05)
(-1.26535e-21 -1.71826e-20 -7.59923e-05)
(5.35584e-21 -2.26261e-19 -0.000117655)
(-4.94663e-21 2.32701e-19 -0.000165152)
(-5.88428e-21 4.70063e-19 -0.000218949)
(-5.08868e-21 -1.94304e-20 -0.000279615)
(2.20153e-21 -4.56599e-21 -0.000347822)
(1.45007e-20 -5.01245e-19 -0.000424356)
(-1.18391e-20 4.6899e-19 -0.000510123)
(1.78788e-20 -9.9219e-19 -0.000606165)
(-4.15735e-21 4.95944e-19 -0.000713682)
(-3.63794e-21 -1.86535e-20 -0.000834056)
(-4.85586e-21 -2.23136e-20 -0.000968837)
(2.87256e-20 -9.73456e-19 -0.00111966)
(-1.62128e-21 -2.01603e-20 -0.00128825)
(2.76421e-20 -9.91529e-19 -0.00147674)
(-5.39136e-21 -7.71251e-21 -0.00168774)
(-1.69672e-22 1.19097e-22 -0.00192396)
(1.14283e-20 8.42241e-21 -0.00218816)
(-5.33745e-20 9.53877e-19 -0.00248342)
(4.7648e-20 -9.74328e-19 -0.00281319)
(1.27565e-20 8.32716e-21 -0.00318126)
(-8.68782e-21 -1.49313e-20 -0.00359188)
(-6.16331e-21 9.89087e-21 -0.0040498)
(-7.48215e-20 9.20642e-19 -0.00456045)
(1.60751e-19 -1.87808e-18 -0.00513006)
(-7.62886e-20 9.79289e-19 -0.00576595)
(-1.93458e-19 1.81491e-18 -0.00647684)
(-3.04567e-20 -4.55205e-20 -0.00727344)
(2.55002e-21 -2.65431e-20 -0.00816937)
(-6.60474e-20 -5.38371e-20 -0.00918298)
(2.60632e-19 -1.81345e-18 -0.0103407)
(4.00304e-19 -1.67875e-18 -0.0116838)
(-3.57633e-19 1.76181e-18 -0.0132803)
(-3.38926e-20 -5.48277e-20 -0.0152477)
(4.7408e-19 -1.605e-18 -0.0177929)
(-4.18462e-19 1.69984e-18 -0.0212778)
(-6.68324e-19 1.50982e-18 -0.0263246)
(5.6851e-19 -1.59441e-18 -0.0339712)
(7.80815e-20 -1.11832e-20 -0.0458843)
(8.67756e-19 -1.40857e-18 -0.0646276)
(1.20459e-19 1.22022e-19 -0.093977)
(-1.00213e-18 1.37955e-18 -0.139288)
(-1.61941e-20 -3.95057e-20 -0.207991)
(3.34702e-20 5.25382e-22 -0.310933)
(-3.38164e-20 1.56318e-20 -0.467256)
(-5.11003e-19 5.34645e-19 -0.713926)
(5.02343e-19 -5.43841e-19 -0.980746)
(-1.07245e-20 -3.15747e-21 0.0102079)
(-1.07292e-20 -5.4837e-22 0.00513786)
(1.00602e-20 1.00879e-20 0.000849834)
(-6.97671e-21 2.42958e-21 -0.00272999)
(7.49952e-21 -1.18698e-20 -0.00568154)
(4.66667e-23 3.49913e-21 -0.0080866)
(-1.70392e-22 -9.66099e-23 -0.0100202)
(-5.4708e-21 1.19652e-23 -0.0115455)
(5.31761e-21 -1.16301e-23 -0.0127202)
(-1.57461e-22 3.44383e-25 -0.0135932)
(-1.50072e-22 3.28222e-25 -0.0142046)
(4.36773e-21 -9.55265e-24 -0.0145887)
(-4.38176e-21 9.58334e-24 -0.0147758)
(-3.8111e-21 8.33526e-24 -0.014793)
(3.3504e-22 -8.57906e-22 -0.0146643)
(6.02848e-21 1.16507e-20 -0.0144117)
(-2.43872e-21 -9.19188e-21 -0.014055)
(-5.78709e-23 -8.0797e-22 -0.0136123)
(-2.00866e-23 5.55438e-22 -0.0131)
(-2.51754e-21 -2.54558e-20 -0.0125329)
(2.54919e-21 2.4788e-20 -0.0119239)
(-1.88543e-21 -3.00896e-20 -0.0112842)
(1.17806e-21 1.79895e-21 -0.0106243)
(-1.44255e-21 1.02135e-23 -0.00995422)
(9.75925e-22 2.68192e-21 -0.00928315)
(-3.48201e-22 1.9026e-23 -0.00861822)
(-7.34618e-22 1.60668e-24 -0.00796517)
(3.27596e-22 -7.76303e-24 -0.00732906)
(2.25785e-22 3.63925e-21 -0.00671425)
(-1.07898e-23 1.03924e-23 -0.00612425)
(-2.18752e-22 -4.09293e-21 -0.00556185)
(2.09663e-22 4.30531e-21 -0.00502912)
(-2.07747e-22 -4.50676e-21 -0.00452754)
(1.00571e-21 4.30902e-20 -0.00405803)
(-9.99422e-22 -4.34068e-20 -0.00362101)
(-5.03964e-22 -3.62498e-20 -0.00321649)
(1.16998e-21 7.90376e-20 -0.00284407)
(-6.54405e-22 -4.29713e-20 -0.00250305)
(-9.7516e-23 -5.59517e-21 -0.00219244)
(9.56056e-23 5.78618e-21 -0.00191102)
(-5.78588e-23 4.37674e-25 -0.00165741)
(2.13428e-22 6.05254e-21 -0.00143004)
(-3.52416e-22 -3.12333e-20 -0.00122728)
(3.19261e-22 3.14512e-20 -0.00104741)
(-7.36985e-23 -6.47018e-21 -0.000888666)
(2.07216e-22 1.98124e-20 -0.000749269)
(2.92601e-23 -6.60016e-21 -0.000627443)
(-1.27431e-22 -1.36072e-20 -0.000521403)
(3.04563e-23 6.84544e-21 -0.000429335)
(-9.22253e-23 -6.98478e-21 -0.000349396)
(-1.54666e-20 2.53765e-20 0.0295497)
(3.14065e-20 -9.23847e-21 0.0144688)
(-2.54308e-20 -2.26862e-20 0.00162119)
(7.98629e-21 2.28009e-20 -0.00902042)
(-8.40129e-21 -2.22746e-20 -0.017732)
(-1.2547e-20 6.13548e-21 -0.0247887)
(1.11121e-20 6.56013e-21 -0.0304337)
(8.00839e-21 1.20096e-20 -0.0348645)
(4.5854e-21 -2.34253e-20 -0.0382562)
(-2.19171e-20 6.26749e-21 -0.0407594)
(2.02838e-20 -4.97848e-21 -0.0424944)
(3.87459e-21 1.0649e-20 -0.0435617)
(-1.53611e-20 2.82628e-21 -0.0440521)
(-1.71961e-20 -3.07734e-20 -0.0440452)
(6.94648e-21 -1.93326e-20 -0.0436125)
(1.78898e-20 3.75615e-20 -0.0428187)
(-6.63929e-21 3.10312e-21 -0.0417223)
(-7.3797e-22 -2.3891e-21 -0.0403764)
(1.07102e-23 -9.54322e-23 -0.0388292)
(5.17842e-22 -1.13257e-24 -0.037124)
(1.44807e-21 2.18143e-23 -0.0352991)
(-1.66701e-21 -3.36564e-21 -0.0333873)
(2.19522e-20 1.4589e-19 -0.0314184)
(-2.44244e-20 -1.56226e-19 -0.029422)
(2.43885e-20 1.78605e-19 -0.0274255)
(-1.26707e-20 -8.19398e-20 -0.0254497)
(-2.39009e-20 -2.06323e-19 -0.0235113)
(1.14301e-20 1.05813e-19 -0.0216248)
(2.8537e-22 -3.29812e-21 -0.019803)
(-1.20485e-21 -7.911e-21 -0.0180559)
(5.34669e-22 4.09697e-21 -0.0163916)
(-1.07871e-21 -1.30784e-20 -0.014816)
(9.22532e-21 1.4395e-19 -0.0133334)
(-1.94157e-20 -3.08536e-19 -0.0119462)
(8.79423e-21 1.50218e-19 -0.0106556)
(-9.96307e-22 -1.54571e-20 -0.00946151)
(2.78884e-22 5.29944e-21 -0.00836264)
(-2.1851e-23 -6.7158e-23 -0.00735682)
(-4.10063e-21 -9.70453e-20 -0.00644105)
(3.48925e-21 8.59119e-20 -0.00561166)
(2.55248e-21 8.40605e-20 -0.00486448)
(-3.75652e-21 -1.1463e-19 -0.00419488)
(9.0155e-23 6.31031e-21 -0.00359797)
(7.83853e-22 3.20753e-20 -0.00306862)
(-1.72585e-21 -5.77813e-20 -0.00260162)
(3.44207e-23 -6.55887e-21 -0.0021917)
(-1.0835e-21 -4.69601e-20 -0.00183359)
(-2.02162e-22 -7.1121e-21 -0.00152197)
(2.5295e-22 1.35278e-20 -0.00125139)
(3.03052e-22 2.08151e-20 -0.00101613)
(-1.42185e-20 -1.05971e-21 0.0456313)
(-1.47276e-20 -1.61006e-20 0.0207671)
(3.69759e-20 3.01748e-20 -0.000569835)
(-4.4047e-20 -1.25972e-20 -0.0179369)
(1.81498e-20 1.19772e-20 -0.0319405)
(1.95862e-20 1.57173e-20 -0.043144)
(-1.07661e-20 -5.40248e-20 -0.0520106)
(2.84846e-20 -6.08218e-21 -0.0589012)
(-2.78389e-20 4.37345e-20 -0.0641122)
(-3.78764e-20 -1.54438e-20 -0.0678984)
(7.48993e-20 8.27196e-21 -0.0704601)
(-4.81488e-20 4.73058e-21 -0.0719594)
(5.91206e-21 -1.11293e-20 -0.0725432)
(-3.13529e-21 -8.06521e-21 -0.0723415)
(7.36728e-20 1.00412e-19 -0.0714696)
(-3.22684e-21 3.76269e-20 -0.0700309)
(-6.76623e-20 -1.2152e-19 -0.0681193)
(9.81915e-21 -1.95662e-21 -0.0658195)
(-6.07505e-21 2.27351e-22 -0.0632084)
(2.84171e-22 -2.06571e-21 -0.0603552)
(4.03998e-20 1.3352e-19 -0.0573211)
(-3.98502e-20 -1.23552e-19 -0.0541577)
(-4.08978e-20 -1.60549e-19 -0.0509131)
(4.4028e-20 1.65439e-19 -0.0476319)
(2.8653e-22 7.58197e-21 -0.0443577)
(-8.78478e-22 -6.3973e-21 -0.0411262)
(5.25914e-22 7.39268e-21 -0.0379619)
(-3.57115e-20 -2.29306e-19 -0.0348877)
(3.85922e-20 2.36089e-19 -0.0319231)
(-3.44376e-20 -2.47727e-19 -0.0290841)
(3.68072e-20 2.64164e-19 -0.0263829)
(8.41344e-22 9.09124e-21 -0.0238285)
(3.20791e-20 3.03102e-19 -0.0214273)
(-6.24664e-20 -6.09259e-19 -0.0191829)
(3.18608e-20 3.25901e-19 -0.0170968)
(1.501e-20 1.794e-19 -0.0151684)
(-1.33528e-20 -1.58614e-19 -0.0133952)
(3.1659e-22 6.3183e-23 -0.0117736)
(-5.38738e-22 -1.08765e-22 -0.0102983)
(-6.24187e-23 1.2794e-22 -0.00896332)
(1.05443e-20 1.93259e-19 -0.00776157)
(-1.0209e-20 -1.81642e-19 -0.00668546)
(8.45012e-22 1.26502e-20 -0.00572693)
(-4.66646e-22 -9.42938e-24 -0.0048776)
(3.99974e-21 1.04205e-19 -0.00412894)
(-7.37864e-21 -1.97381e-19 -0.00347234)
(3.63255e-21 1.06229e-19 -0.0028992)
(-1.84841e-21 -5.46345e-20 -0.00240084)
(1.39462e-21 4.07945e-20 -0.00196814)
(3.30741e-22 1.37059e-20 -0.00159096)
(1.91586e-21 2.69504e-20 0.0553506)
(8.73637e-21 -5.47951e-20 0.0211698)
(-7.1483e-20 1.72186e-20 -0.00832831)
(1.11558e-19 7.66281e-20 -0.0316599)
(-2.41157e-20 -1.06947e-19 -0.050026)
(-6.21357e-21 3.09208e-20 -0.0644373)
(-9.40567e-21 1.10983e-20 -0.0756513)
(6.07089e-21 1.78189e-20 -0.0842261)
(-5.56693e-20 -2.53847e-20 -0.0905865)
(8.68396e-20 -5.62035e-21 -0.0950775)
(-2.5112e-20 1.28673e-20 -0.097971)
(-1.28308e-20 6.82809e-22 -0.099491)
(1.8275e-20 9.78312e-21 -0.0998324)
(-1.01556e-19 -1.20447e-19 -0.099166)
(8.54341e-20 9.93886e-20 -0.0976433)
(-7.85655e-21 1.3447e-20 -0.0954)
(7.2395e-21 -8.38544e-21 -0.0925586)
(1.04091e-19 2.17558e-19 -0.0892299)
(-1.07422e-19 -2.04772e-19 -0.0855141)
(-2.53535e-22 -1.04148e-20 -0.0815014)
(-1.98085e-21 -7.65826e-23 -0.0772715)
(2.26629e-21 4.72725e-22 -0.0728931)
(1.46716e-21 -5.38176e-23 -0.0684245)
(-2.69713e-21 6.02514e-21 -0.0639252)
(3.48355e-21 4.12383e-22 -0.0594509)
(1.22061e-21 8.13603e-21 -0.055047)
(-1.10588e-19 -4.77291e-19 -0.0507488)
(1.10705e-19 4.67673e-19 -0.0465828)
(-2.10049e-21 1.99717e-21 -0.0425739)
(-4.8508e-20 -2.75042e-19 -0.0387421)
(5.195e-20 2.83667e-19 -0.0351026)
(-2.76943e-22 3.83309e-22 -0.0316667)
(-1.87427e-22 -2.37449e-22 -0.0284417)
(-4.4264e-20 -3.33328e-19 -0.0254317)
(8.57132e-20 6.6847e-19 -0.0226378)
(-8.01365e-20 -6.79569e-19 -0.0200585)
(7.65708e-20 7.00345e-19 -0.0176901)
(-7.23156e-20 -7.20004e-19 -0.0155267)
(3.49643e-20 3.65118e-19 -0.013561)
(1.54787e-20 1.90897e-19 -0.0117844)
(-1.35963e-20 -1.67201e-19 -0.0101871)
(-1.13165e-21 -1.24189e-20 -0.00875861)
(-1.27293e-20 -2.02343e-19 -0.00748777)
(2.66433e-20 4.34523e-19 -0.00636316)
(-1.22537e-20 -2.06581e-19 -0.00537314)
(1.22601e-22 2.09405e-22 -0.00450604)
(5.00303e-22 1.3339e-20 -0.00375021)
(-1.06286e-22 -7.87292e-23 -0.00309377)
(-4.84323e-22 -1.36634e-20 -0.00252398)
(1.04225e-21 2.77223e-20 -0.00202556)
(2.74734e-20 9.77721e-23 0.0545745)
(3.41998e-22 3.97124e-22 0.0115889)
(-6.19452e-20 4.25297e-22 -0.0251332)
(9.13884e-20 -3.47766e-22 -0.0529053)
(-2.7387e-20 -1.45349e-22 -0.0740082)
(-4.3477e-20 -8.78225e-22 -0.0901207)
(1.4413e-20 2.34274e-22 -0.102361)
(-1.13556e-20 -4.19246e-22 -0.111484)
(9.1253e-20 -2.50659e-20 -0.118031)
(7.68608e-20 1.50407e-19 -0.122417)
(4.94047e-21 7.98995e-20 -0.124973)
(-1.1273e-19 -2.09481e-19 -0.125968)
(1.6758e-19 2.63903e-19 -0.125627)
(-1.85536e-19 -2.55855e-19 -0.124148)
(9.11048e-20 1.69733e-19 -0.121707)
(-1.02453e-19 -1.78028e-19 -0.118462)
(5.34849e-21 -4.89496e-21 -0.114553)
(-2.29682e-20 -3.15456e-21 -0.110109)