/*--------------------------------*- C++ -*----------------------------------*\
| =========                 |                                                 |
| \\      /  F ield         | OpenFOAM: The Open Source CFD Toolbox           |
|  \\    /   O peration     | Version:  2412                                  |
|   \\  /    A nd           | Website:  www.openfoam.com                      |
|    \\/     M anipulation  |                                                 |
\*---------------------------------------------------------------------------*/
FoamFile
{
    version     2.0;
    format      ascii;
    arch        "LSB;label=32;scalar=64";
    class       surfaceScalarField;
    location    "14";
    object      phi;
}
// * * * * * * * * * * * * * * * * * * * * * * * * * * * * * * * * * * * * * //

dimensions      [0 3 -1 0 0 0 0];

oriented        oriented;

internalField   nonuniform List<scalar> 
10424
(
0.00505063
1.29417e-07
2.75449e-11
0.00505026
3.7121e-07
8.62298e-11
0.00504967
5.8917e-07
1.63544e-10
0.00504883
8.40299e-07
1.81591e-10
0.00504759
1.23513e-06
-2.35234e-11
0.00504574
1.85275e-06
-5.66629e-10
0.00504308
2.65975e-06
-1.38196e-09
0.00503957
3.50986e-06
-2.21695e-09
0.00503536
4.21961e-06
-2.75479e-09
0.0050307
4.65662e-06
-2.76721e-09
0.00502592
4.78566e-06
-2.20099e-09
0.00502126
4.65992e-06
-1.16887e-09
0.00501688
4.37999e-06
1.22979e-10
0.00501283
4.04966e-06
1.45853e-09
0.00500908
3.74737e-06
2.67059e-09
0.00500556
3.51688e-06
3.66344e-09
0.00500218
3.3717e-06
4.40709e-09
0.00499887
3.30543e-06
4.91823e-09
0.00499556
3.30224e-06
5.23774e-09
0.00499221
3.34436e-06
5.41352e-09
0.00498879
3.41633e-06
5.48978e-09
0.00498528
3.50654e-06
5.5016e-09
0.00498167
3.60727e-06
5.47443e-09
0.00497795
3.7139e-06
5.42472e-09
0.00497412
3.82402e-06
5.36249e-09
0.00497018
3.93663e-06
5.2928e-09
0.00496612
4.05151e-06
5.21803e-09
0.00496195
4.16883e-06
5.13863e-09
0.00495765
4.28895e-06
5.05469e-09
0.00495324
4.41224e-06
4.96587e-09
0.00494869
4.53903e-06
4.87205e-09
0.00494402
4.6696e-06
4.77296e-09
0.00493921
4.80418e-06
4.66853e-09
0.00493426
4.94292e-06
4.55871e-09
0.00492917
5.08597e-06
4.44357e-09
0.00492393
5.23342e-06
4.32328e-09
0.00491854
5.38534e-06
4.19782e-09
0.004913
5.54179e-06
4.06729e-09
0.00490729
5.70282e-06
3.93176e-09
0.00490142
5.86847e-06
3.79156e-09
0.00489538
6.03878e-06
3.64723e-09
0.00488916
6.21379e-06
3.49914e-09
0.00488276
6.39354e-06
3.34763e-09
0.00487618
6.57808e-06
3.19313e-09
0.00486941
6.76745e-06
3.03606e-09
0.00486245
6.9617e-06
2.87682e-09
0.00485528
7.16091e-06
2.71595e-09
0.00484791
7.36514e-06
2.55394e-09
0.00484034
7.57448e-06
2.39113e-09
0.00483255
7.78906e-06
2.22785e-09
0.00482454
8.00903e-06
2.06453e-09
0.0048163
8.23473e-06
1.90152e-09
0.00480783
8.46696e-06
1.73913e-09
0.00479912
8.70793e-06
1.57764e-09
8.96398e-06
0.00479015
1.4171e-09
0.00505063
2.58751e-07
0.00505026
7.4233e-07
0.00504967
1.17837e-06
0.00504883
1.67978e-06
0.0050476
2.46608e-06
0.00504575
3.69508e-06
0.00504311
5.30146e-06
0.00503963
6.99549e-06
0.00503543
8.41262e-06
0.0050308
9.28906e-06
0.00502603
9.55346e-06
0.00502138
9.3104e-06
0.005017
8.759e-06
0.00501295
8.10536e-06
0.00500919
7.50563e-06
0.00500566
7.04726e-06
0.00500227
6.75762e-06
0.00499896
6.62452e-06
0.00499564
6.61678e-06
0.00499229
6.69931e-06
0.00498886
6.84147e-06
0.00498535
7.02023e-06
0.00498173
7.22021e-06
0.00497802
7.43221e-06
0.00497419
7.65139e-06
0.00497025
7.87568e-06
0.0049662
8.10464e-06
0.00496203
8.33859e-06
0.00495774
8.57819e-06
0.00495333
8.82416e-06
0.00494879
9.07716e-06
0.00494412
9.33772e-06
0.00493932
9.60629e-06
0.00493438
9.8832e-06
0.00492929
1.01687e-05
0.00492406
1.04629e-05
0.00491868
1.07661e-05
0.00491315
1.10783e-05
0.00490745
1.13996e-05
0.00490159
1.17302e-05
0.00489556
1.207e-05
0.00488935
1.24191e-05
0.00488297
1.27777e-05
0.0048764
1.31458e-05
0.00486964
1.35235e-05
0.00486269
1.3911e-05
0.00485555
1.43082e-05
0.0048482
1.47155e-05
0.00484064
1.51328e-05
0.00483287
1.55606e-05
0.00482488
1.59991e-05
0.00481666
1.64488e-05
0.00480822
1.69115e-05
0.00479954
1.73913e-05
1.79003e-05
0.0047906
0.00505063
3.8787e-07
0.00505026
1.11309e-06
0.00504967
1.76731e-06
0.00504883
2.51728e-06
0.00504761
3.68892e-06
0.00504578
5.51814e-06
0.00504318
7.91061e-06
0.00503973
1.0438e-05
0.00503559
1.2559e-05
0.005031
1.38795e-05
0.00502626
1.42905e-05
0.00502163
1.39445e-05
0.00501725
1.31357e-05
0.00501318
1.21698e-05
0.00500941
1.12798e-05
0.00500586
1.05967e-05
0.00500246
1.01626e-05
0.00499912
9.96055e-06
0.00499579
9.945e-06
0.00499243
1.00643e-05
0.00498899
1.0273e-05
0.00498548
1.0537e-05
0.00498186
1.08334e-05
0.00497815
1.11484e-05
0.00497433
1.14746e-05
0.00497039
1.18089e-05
0.00496635
1.21506e-05
0.00496218
1.24999e-05
0.00495791
1.28579e-05
0.0049535
1.32255e-05
0.00494898
1.36037e-05
0.00494432
1.39934e-05
0.00493953
1.4395e-05
0.00493461
1.48091e-05
0.00492954
1.5236e-05
0.00492433
1.5676e-05
0.00491896
1.61294e-05
0.00491345
1.65962e-05
0.00490777
1.70766e-05
0.00490193
1.75708e-05
0.00489592
1.80787e-05
0.00488974
1.86006e-05
0.00488338
1.91365e-05
0.00487684
1.96866e-05
0.00487011
2.02509e-05
0.00486319
2.08297e-05
0.00485608
2.1423e-05
0.00484876
2.20312e-05
0.00484124
2.26543e-05
0.00483351
2.32928e-05
0.00482556
2.39471e-05
0.00481739
2.4618e-05
0.00480899
2.53078e-05
0.00480036
2.60223e-05
2.67786e-05
0.00479149
0.00505063
5.16669e-07
0.00505026
1.48331e-06
0.00504967
2.3558e-06
0.00504884
3.35186e-06
0.00504762
4.9e-06
0.00504583
7.31339e-06
0.00504327
1.04728e-05
0.00503989
1.38184e-05
0.00503581
1.66379e-05
0.00503128
1.84091e-05
0.00502659
1.89828e-05
0.00502198
1.85546e-05
0.0050176
1.75085e-05
0.00501353
1.62465e-05
0.00500973
1.50764e-05
0.00500615
1.41733e-05
0.00500272
1.35948e-05
0.00499936
1.33208e-05
0.00499601
1.32927e-05
0.00499263
1.34433e-05
0.00498919
1.37134e-05
0.00498567
1.4058e-05
0.00498206
1.44467e-05
0.00497835
1.48612e-05
0.00497453
1.52915e-05
0.0049706
1.57334e-05
0.00496657
1.61856e-05
0.00496242
1.66485e-05
0.00495816
1.71232e-05
0.00495377
1.7611e-05
0.00494926
1.8113e-05
0.00494462
1.86303e-05
0.00493986
1.91635e-05
0.00493495
1.97134e-05
0.00492991
2.02803e-05
0.00492472
2.08646e-05
0.00491938
2.14665e-05
0.00491389
2.20862e-05
0.00490824
2.2724e-05
0.00490243
2.33798e-05
0.00489646
2.40539e-05
0.00489031
2.47464e-05
0.00488399
2.54574e-05
0.00487749
2.6187e-05
0.00487081
2.69354e-05
0.00486393
2.77027e-05
0.00485687
2.84893e-05
0.0048496
2.92952e-05
0.00484214
3.01207e-05
0.00483446
3.09664e-05
0.00482658
3.18325e-05
0.00481848
3.27203e-05
0.00481015
3.36323e-05
0.0048016
3.45753e-05
3.55695e-05
0.00479281
0.00505063
6.4505e-07
0.00505026
1.85277e-06
0.00504967
2.94364e-06
0.00504884
4.18268e-06
0.00504764
6.0962e-06
0.00504588
9.0735e-06
0.00504338
1.29755e-05
0.00504008
1.712e-05
0.00503609
2.06312e-05
0.00503163
2.28613e-05
0.005027
2.36179e-05
0.00502242
2.31335e-05
0.00501805
2.18756e-05
0.00501396
2.03379e-05
0.00501014
1.89008e-05
0.00500653
1.77835e-05
0.00500306
1.70608e-05
0.00499967
1.6711e-05
0.0049963
1.66644e-05
0.0049929
1.68398e-05
0.00498945
1.71646e-05
0.00498593
1.75836e-05
0.00498231
1.80594e-05
0.00497861
1.85689e-05
0.0049748
1.90997e-05
0.00497089
1.9646e-05
0.00496686
2.0206e-05
0.00496273
2.07801e-05
0.00495849
2.13694e-05
0.00495412
2.19754e-05
0.00494964
2.25993e-05
0.00494502
2.32424e-05
0.00494028
2.39054e-05
0.00493541
2.45891e-05
0.00493039
2.5294e-05
0.00492524
2.60205e-05
0.00491993
2.67689e-05
0.00491448
2.75393e-05
0.00490887
2.8332e-05
0.00490311
2.91471e-05
0.00489718
2.99847e-05
0.00489108
3.0845e-05
0.00488481
3.1728e-05
0.00487836
3.2634e-05
0.00487173
3.35631e-05
0.00486492
3.45154e-05
0.00485792
3.54913e-05
0.00485072
3.64908e-05
0.00484333
3.75144e-05
0.00483573
3.85624e-05
0.00482793
3.96354e-05
0.00481991
4.07343e-05
0.00481168
4.18619e-05
0.00480323
4.30253e-05
4.42452e-05
0.00479456
0.00505063
7.72924e-07
0.00505026
2.22124e-06
0.00504967
3.53057e-06
0.00504885
5.00895e-06
0.00504767
7.27495e-06
0.00504595
1.07926e-05
0.00504352
1.54091e-05
0.00504031
2.03298e-05
0.00503641
2.45244e-05
0.00503205
2.72225e-05
0.00502748
2.81852e-05
0.00502294
2.76748e-05
0.00501858
2.62348e-05
0.00501448
2.4445e-05
0.00501062
2.27563e-05
0.00500697
2.14318e-05
0.00500347
2.05652e-05
0.00500004
2.01353e-05
0.00499665
2.00634e-05
0.00499323
2.02556e-05
0.00498977
2.06274e-05
0.00498624
2.11138e-05
0.00498263
2.16704e-05
0.00497892
2.22697e-05
0.00497513
2.28964e-05
0.00497123
2.35433e-05
0.00496723
2.4208e-05
0.00496312
2.48904e-05
0.0049589
2.55917e-05
0.00495456
2.63134e-05
0.0049501
2.70569e-05
0.00494552
2.78235e-05
0.00494081
2.8614e-05
0.00493597
2.94292e-05
0.004931
3.02697e-05
0.00492588
3.1136e-05
0.00492062
3.20281e-05
0.00491521
3.29465e-05
0.00490965
3.38912e-05
0.00490394
3.48624e-05
0.00489806
3.58603e-05
0.00489202
3.68849e-05
0.00488581
3.79363e-05
0.00487943
3.90147e-05
0.00487288
4.01203e-05
0.00486614
4.12533e-05
0.00485922
4.24137e-05
0.00485211
4.36019e-05
0.0048448
4.48181e-05
0.0048373
4.60627e-05
0.0048296
4.73362e-05
0.0048217
4.86394e-05
0.00481358
4.99748e-05
0.00480526
5.13485e-05
5.27795e-05
0.00479673
0.00505063
9.0016e-07
0.00505026
2.58854e-06
0.00504968
4.11628e-06
0.00504886
5.82999e-06
0.0050477
8.43436e-06
0.00504602
1.24667e-05
0.00504367
1.77665e-05
0.00504056
2.34382e-05
0.00503677
2.83069e-05
0.00503251
3.14826e-05
0.00502802
3.26766e-05
0.00502352
3.2173e-05
0.00501918
3.05833e-05
0.00501505
2.85675e-05
0.00501117
2.66443e-05
0.00500748
2.51206e-05
0.00500393
2.41104e-05
0.00500047
2.35958e-05
0.00499704
2.34912e-05
0.00499361
2.36916e-05
0.00499013
2.41017e-05
0.0049866
2.46476e-05
0.00498299
2.52781e-05
0.0049793
2.59612e-05
0.00497552
2.66787e-05
0.00497164
2.7422e-05
0.00496766
2.81875e-05
0.00496357
2.89749e-05
0.00495938
2.97853e-05
0.00495507
3.06199e-05
0.00495065
3.14802e-05
0.00494611
3.23675e-05
0.00494144
3.32828e-05
0.00493664
3.42269e-05
0.00493171
3.52001e-05
0.00492664
3.62031e-05
0.00492144
3.7236e-05
0.00491608
3.8299e-05
0.00491058
3.93923e-05
0.00490493
4.0516e-05
0.00489912
4.16702e-05
0.00489315
4.2855e-05
0.00488701
4.40705e-05
0.00488071
4.53168e-05
0.00487424
4.6594e-05
0.00486759
4.79023e-05
0.00486076
4.92418e-05
0.00485375
5.06127e-05
0.00484655
5.20153e-05
0.00483917
5.34497e-05
0.00483159
5.49164e-05
0.00482381
5.64161e-05
0.00481583
5.79504e-05
0.00480766
5.9523e-05
0.00479929
6.11447e-05
0.00479122
-1.06999e-06
1.26403e-09
0.00479178
-5.58731e-07
1.13407e-09
0.00479178
-3.42397e-10
9.99892e-10
0.00479121
5.7382e-07
8.33821e-10
0.00479
1.20121e-06
6.68752e-10
0.00478813
1.87187e-06
5.03985e-10
0.00478554
2.59056e-06
3.31607e-10
0.00478218
3.36155e-06
1.53295e-10
0.00477799
4.18933e-06
-2.95275e-11
0.00477291
5.07879e-06
-2.15436e-10
0.00476688
6.0352e-06
-4.02369e-10
0.00475981
7.06428e-06
-5.88431e-10
0.00475164
8.17236e-06
-7.71495e-10
0.00474228
9.36647e-06
-9.49582e-10
0.00473162
1.06546e-05
-1.12031e-09
1.20459e-05
-1.2891e-09
0.0047903
-7.69207e-07
0.00478948
2.57735e-07
0.00478813
1.34966e-06
0.00478619
2.51556e-06
0.00478363
3.76485e-06
0.0047804
5.10315e-06
0.00477645
6.53775e-06
0.00477173
8.07697e-06
0.00476619
9.72984e-06
0.00475976
1.15061e-05
0.00475238
1.34163e-05
0.00474398
1.54719e-05
0.00473446
1.76857e-05
0.00472376
2.00717e-05
0.00471177
2.2646e-05
2.5427e-05
0.00478846
2.25243e-06
0.00478494
3.78346e-06
0.00478087
5.41696e-06
0.00477622
7.16277e-06
0.00477096
9.03098e-06
0.00476503
1.10321e-05
0.00475839
1.31776e-05
0.00475099
1.548e-05
0.00474276
1.79528e-05
0.00473366
2.06107e-05
0.0047236
2.34696e-05
0.00471253
2.65468e-05
0.00470035
2.98616e-05
0.00468699
3.34351e-05
0.00467234
3.72916e-05
4.14591e-05
0.00478575
9.30844e-06
0.0047782
1.13392e-05
0.00477011
1.35072e-05
0.00476144
1.58243e-05
0.00475217
1.83038e-05
0.00474224
2.096e-05
0.00473161
2.38084e-05
0.00472023
2.68657e-05
0.00470803
3.01502e-05
0.00469496
3.36814e-05
0.00468095
3.74807e-05
0.00466592
4.15714e-05
0.00464981
4.59792e-05
0.00463251
5.07327e-05
0.00461394
5.58645e-05
6.14123e-05
0.0047822
2.16638e-05
0.00476936
2.41845e-05
0.00475599
2.68759e-05
0.00474206
2.97529e-05
0.00472753
3.28322e-05
0.00471236
3.6132e-05
0.0046965
3.96715e-05
0.00467989
4.34721e-05
0.00466249
4.75563e-05
0.00464422
5.1949e-05
0.00462502
5.66767e-05
0.00460482
6.17689e-05
0.00458355
6.72578e-05
0.0045611
7.31797e-05
0.00453739
7.95758e-05
8.64937e-05
0.00477788
4.05128e-05
0.00475855
4.35072e-05
0.00473872
4.6706e-05
0.00471835
5.01272e-05
0.00469739
5.37909e-05
0.0046758
5.77187e-05
0.00465354
6.1934e-05
0.00463055
6.64622e-05
0.00460678
7.13305e-05
0.00458216
7.65685e-05
0.00455663
8.22085e-05
0.00453011
8.82858e-05
0.00450253
9.48396e-05
0.00447379
0.000101914
0.00444381
0.000109558
0.000117831
0.00477285
6.69564e-05
0.00474596
7.04001e-05
0.00471858
7.40847e-05
0.00469068
7.80293e-05
0.00466221
8.22569e-05
0.00463314
8.67922e-05
0.00460341
9.16624e-05
0.00457297
9.68966e-05
0.00454178
0.000102527
0.00450976
0.000108587
0.00447685
0.000115116
0.00444298
0.000122154
0.00440808
0.000129747
0.00437204
0.000137948
0.00433479
0.000146815
0.000156416
0.00502318
7.62947e-05
-0.00503252
0.00501341
8.01641e-05
0.00500319
8.43038e-05
0.00499249
8.87356e-05
0.00498126
9.3484e-05
0.00496948
9.85757e-05
0.0049571
0.00010404
0.00494409
0.00010991
0.00493039
0.000116218
0.00491598
0.000123005
0.00490078
0.00013031
0.00488476
0.000138179
0.00486784
0.000146663
0.00484997
0.000155817
0.00483108
0.000165705
0.000176403
0.00502702
8.54167e-05
-0.00503614
0.00501748
8.96999e-05
0.00500751
9.42788e-05
0.00499707
9.91778e-05
0.00498613
0.000104424
0.00497466
0.000110045
0.00496262
0.000116074
0.00494999
0.000122545
0.00493671
0.000129495
0.00492275
0.000136966
0.00490806
0.000145001
0.00489259
0.000153649
0.00487629
0.000162964
0.0048591
0.000173007
0.00484096
0.000183845
0.000195557
0.00503131
9.42837e-05
-0.00504017
0.00502204
9.89644e-05
0.00501236
0.000103963
0.00500223
0.000109307
0.00499163
0.000115025
0.00498053
0.000121147
0.00496889
0.000127707
0.0049567
0.000134742
0.0049439
0.000142292
0.00493047
0.0001504
0.00491635
0.000159113
0.00490152
0.000168482
0.00488592
0.000178565
0.0048695
0.000189425
0.00485222
0.000201132
0.000213769
0.00503601
0.000102866
-0.00504459
0.00502705
0.000107924
0.00501769
0.000113321
0.00500791
0.000119084
0.00499769
0.000125245
0.00498701
0.000131835
0.00497582
0.00013889
0.00496412
0.000146449
0.00495186
0.000154553
0.00493901
0.000163249
0.00492554
0.000172583
0.00491141
0.000182612
0.00489658
0.000193393
0.00488101
0.000204992
0.00486466
0.000217482
0.000230947
0.00504109
0.000111142
-0.00504937
0.00503246
0.000116553
0.00502346
0.000122322
0.00501407
0.000128477
0.00500427
0.000135049
0.00499403
0.000142072
0.00498333
0.000149584
0.00497216
0.000157624
0.00496048
0.000166235
0.00494826
0.000175464
0.00493549
0.000185362
0.00492211
0.000195983
0.00490812
0.000207389
0.00489346
0.000219647
0.00487812
0.00023283
0.000247024
0.00504653
0.00011909
-0.00505448
0.00503825
0.00012483
0.00502963
0.000130943
0.00502065
0.000137459
0.00501129
0.000144409
0.00500153
0.000151829
0.00499136
0.000159756
0.00498075
0.000168232
0.00496969
0.0001773
0.00495814
0.000187008
0.0049461
0.000197407
0.00493353
0.000208554
0.00492041
0.00022051
0.00490671
0.000233343
0.00489241
0.000247127
0.000261947
0.00505229
0.000126694
-0.0050599
0.00504439
0.000132736
0.00503617
0.000139165
0.00502761
0.000146009
0.00501872
0.000153303
0.00500947
0.000161082
0.00499984
0.000169383
0.00498983
0.000178248
0.0049794
0.000187721
0.00496856
0.000197852
0.00495728
0.000208691
0.00494554
0.000220294
0.00493332
0.000232725
0.00492062
0.000246049
0.0049074
0.000260341
0.000275684
0.00505835
0.000133941
-0.0050656
0.00505083
0.000140258
0.00504303
0.000146971
0.00503492
0.000154113
0.00502651
0.000161714
0.00501778
0.000169812
0.00500872
0.000178444
0.00499932
0.000187652
0.00498956
0.000197479
0.00497943
0.000207975
0.00496893
0.000219191
0.00495804
0.000231183
0.00494676
0.000244012
0.00493506
0.000257743
0.00492295
0.000272452
0.000288217
0.00506468
0.00014082
-0.00507156
0.00505756
0.000147383
0.00505018
0.000154351
0.00504254
0.000161756
0.00503462
0.00016963
0.00502643
0.000178007
0.00501794
0.000186927
0.00500916
0.00019643
0.00500008
0.000206561
0.00499069
0.000217366
0.00498099
0.000228897
0.00497096
0.000241209
0.00496061
0.000254361
0.00494994
0.000268419
0.00493893
0.000283453
0.000299542
0.00507126
0.000147321
-0.00507776
0.00506454
0.000154102
0.00505759
0.000161295
0.00505042
0.00016893
0.00504301
0.00017704
0.00503536
0.000185658
0.00502746
0.000194824
0.00501931
0.000204576
0.00501092
0.000214958
0.00500226
0.000226017
0.00499336
0.000237803
0.0049842
0.000250369
0.00497479
0.000263773
0.00496513
0.000278077
0.00495523
0.000293351
0.000309668
0.00507804
0.000153438
-0.00508416
0.00507173
0.00016041
0.00506523
0.000167797
0.00505853
0.00017563
0.00505163
0.00018394
0.00504453
0.000192761
0.00503722
0.00020213
0.00502971
0.000212086
0.005022
0.00022267
0.00501409
0.00023393
0.00500598
0.000245911
0.00499768
0.000258667
0.0049892
0.000272253
0.00498055
0.000286729
0.00497174
0.000302159
0.000318614
0.00508501
0.000159167
-0.00509074
0.00507912
0.000166302
0.00507306
0.000173854
0.00506684
0.000181853
0.00506045
0.000190328
0.0050539
0.000199314
0.00504718
0.000208845
0.00504031
0.000218961
0.00503328
0.0002297
0.0050261
0.000241108
0.00501878
0.000253229
0.00501134
0.000266114
0.00500377
0.000279816
0.00499611
0.000294391
0.00498837
0.0003099
0.00032641
0.00509215
0.000164506
-0.00509748
0.00508667
0.000171777
0.00508106
0.000179465
0.00507531
0.000187598
0.00506944
0.000196205
0.00506343
0.000205319
0.0050573
0.000214974
0.00505106
0.000225207
0.0050447
0.000236056
0.00503825
0.000247562
0.00503171
0.00025977
0.00502509
0.000272726
0.00501843
0.000286481
0.00501173
0.000301089
0.00500503
0.000316604
0.00033309
0.00509941
0.000169455
-0.00510436
0.00509435
0.000176836
0.00508919
0.000184631
0.00508392
0.000192868
0.00507855
0.000201575
0.00507308
0.000210783
0.00506753
0.000220524
0.00506191
0.000230833
0.00505622
0.000241747
0.00505047
0.000253306
0.00504469
0.00026555
0.00503889
0.000278524
0.0050331
0.000292275
0.00502734
0.000306852
0.00502164
0.000322307
0.000338696
0.00510679
0.000174015
-0.00511135
0.00510214
0.00018148
0.00509742
0.000189356
0.00509262
0.000197668
0.00508775
0.000206443
0.00508282
0.000215711
0.00507784
0.000225503
0.00507282
0.00023585
0.00506778
0.00024679
0.00506273
0.000258357
0.00505769
0.00027059
0.00505268
0.000283532
0.00504773
0.000297225
0.00504287
0.000311714
0.00503813
0.000327047
0.000343276
0.00511424
0.000178189
-0.00511842
0.00511001
0.000185715
0.00510572
0.000193646
0.00510138
0.000202005
0.00509701
0.000210819
0.0050926
0.000220116
0.00508818
0.000229924
0.00508376
0.000240274
0.00507935
0.0002512
0.00507497
0.000262735
0.00507064
0.000274915
0.0050664
0.000287778
0.00506226
0.000301363
0.00505826
0.000315713
0.00505444
0.00033087
0.000346879
0.00512176
0.000181983
-0.00512555
0.00511793
0.000189547
0.00511407
0.000197507
0.00511019
0.000205887
0.00510629
0.000214712
0.0051024
0.000224008
0.00509852
0.000233801
0.00509468
0.000244121
0.00509088
0.000254998
0.00508715
0.000266463
0.00508352
0.000278549
0.00508
0.000291291
0.00507664
0.000304726
0.00507346
0.000318889
0.00507051
0.00033382
0.000349559
0.00512931
0.000185403
-0.00513273
0.00512588
0.000192982
0.00512244
0.000200949
0.005119
0.000209326
0.00511558
0.000218135
0.00511218
0.000227402
0.00510883
0.000237151
0.00510554
0.000247409
0.00510234
0.000258204
0.00509923
0.000269565
0.00509626
0.000281522
0.00509345
0.000294106
0.00509082
0.000307349
0.00508843
0.000321284
0.0050863
0.000335946
0.000351369
0.00513688
0.000188457
-0.00513994
0.00513384
0.00019603
0.0051308
0.000203982
0.0051278
0.000212332
0.00512483
0.000221102
0.00512192
0.000230314
0.00511908
0.000239992
0.00511633
0.00025016
0.00511369
0.000260843
0.00511119
0.000272069
0.00510884
0.000283863
0.0051067
0.000296254
0.00510477
0.000309271
0.00510312
0.000322942
0.00510177
0.000337297
0.000352366
0.00514445
0.000191152
-0.00514714
0.00514178
0.000198701
0.00513914
0.000206616
0.00513655
0.000214918
0.00513403
0.000223626
0.00513158
0.00023276
0.00512923
0.000242342
0.005127
0.000252394
0.0051249
0.000262939
0.00512297
0.000274001
0.00512123
0.000285604
0.00511971
0.000297772
0.00511845
0.000310531
0.00511749
0.000323906
0.00511686
0.000337922
0.000352603
0.00515198
0.0001935
-0.00515433
0.00514968
0.000201005
0.00514743
0.000208866
0.00514525
0.0002171
0.00514315
0.000225724
0.00514115
0.000234758
0.00513927
0.000244222
0.00513753
0.000254134
0.00513595
0.000264517
0.00513456
0.00027539
0.00513339
0.000286776
0.00513247
0.000298695
0.00513183
0.000311169
0.00513152
0.000324221
0.00513157
0.00033787
0.000352137
0.00515948
0.00019551
-0.00516149
0.00515753
0.000202956
0.00515565
0.000210744
0.00515386
0.000218891
0.00515217
0.000227413
0.0051506
0.000236328
0.00514917
0.000245652
0.0051479
0.000255405
0.00514681
0.000265603
0.00514594
0.000276265
0.0051453
0.000287411
0.00514494
0.000299059
0.00514488
0.000311226
0.00514517
0.000323931
0.00514585
0.000337191
0.000351021
0.00516691
0.000197194
-0.0051686
0.0051653
0.000204564
0.00516378
0.000212264
0.00516237
0.000220308
0.00516107
0.000228711
0.00515991
0.000237488
0.00515891
0.000246655
0.00515808
0.000256229
0.00515746
0.000266224
0.00515707
0.000276656
0.00515694
0.000287543
0.0051571
0.000298899
0.00515758
0.00031074
0.00515844
0.00032308
0.00515969
0.000335933
0.000349309
0.00517427
0.000198563
-0.00517564
0.00517299
0.000205844
0.00517181
0.000213441
0.00517076
0.000221366
0.00516983
0.000229635
0.00516906
0.000238259
0.00516846
0.000247253
0.00516806
0.000256631
0.00516788
0.000266406
0.00516794
0.000276592
0.00516828
0.000287204
0.00516893
0.000298252
0.00516992
0.000309751
0.00517129
0.000321711
0.00517308
0.000334142
0.000347052
0.00518154
0.00019963
-0.00518261
0.00518057
0.000206809
0.00517973
0.00021429
0.00517901
0.000222084
0.00517844
0.000230203
0.00517804
0.00023866
0.00517782
0.000247467
0.00517782
0.000256635
0.00517805
0.000266177
0.00517854
0.000276103
0.00517932
0.000286425
0.00518042
0.000297153
0.00518187
0.000308297
0.00518372
0.000319865
0.00518599
0.000331864
0.000344299
0.00518871
0.000200409
-0.00518948
0.00518804
0.000207474
0.00518751
0.000214826
0.00518711
0.000222476
0.00518688
0.000230435
0.00518683
0.000238713
0.00518698
0.00024732
0.00518734
0.000256267
0.00518796
0.000265562
0.00518884
0.000275217
0.00519003
0.000285239
0.00519155
0.000295636
0.00519343
0.000306416
0.00519571
0.000317584
0.00519843
0.000329144
0.000341098
0.00519576
0.000200911
-0.00519626
0.00519538
0.000207851
0.00519514
0.000215065
0.00519506
0.000222561
0.00519514
0.000230349
0.00519542
0.000238437
0.0051959
0.000246834
0.00519662
0.000255549
0.00519759
0.000264589
0.00519885
0.000273963
0.00520041
0.000283676
0.00520231
0.000293734
0.00520459
0.000304143
0.00520726
0.000314906
0.00521038
0.000326023
0.000337494
0.00520268
0.00020115
-0.00520292
0.00520258
0.000207957
0.00520262
0.000215023
0.00520283
0.000222356
0.00520321
0.000229963
0.0052038
0.000237853
0.0052046
0.000246031
0.00520564
0.000254506
0.00520695
0.000263283
0.00520854
0.000272368
0.00521045
0.000281766
0.00521271
0.000291481
0.00521534
0.000301514
0.00521837
0.000311868
0.00522185
0.000322542
0.000333531
0.00520948
0.000201139
-0.00520947
0.00520963
0.000207805
0.00520994
0.000214715
0.00521042
0.000221877
0.00521108
0.000229296
0.00521196
0.00023698
0.00521305
0.000244933
0.0052144
0.000253161
0.00521601
0.000261669
0.00521792
0.00027046
0.00522015
0.000279539
0.00522272
0.000288906
0.00522568
0.000298562
0.00522904
0.000308508
0.00523284
0.000318738
0.000329249
0.00521613
-0.00521588
0.00521652
0.00521708
0.00521782
0.00521875
0.00521989
0.00522126
0.00522289
0.00522479
0.00522698
0.0052295
0.00523236
0.00523561
0.00523926
0.00524335
0.00529276
1.03242e-06
0.00529238
2.97226e-06
0.00529177
4.72829e-06
0.00529091
6.68413e-06
0.00528972
9.62732e-06
0.00528802
1.417e-05
0.00528563
2.01509e-05
0.00528249
2.65811e-05
0.00527865
3.21449e-05
0.0052743
3.58313e-05
0.00526968
3.72953e-05
0.00526502
3.68355e-05
0.00526048
3.51255e-05
0.00525614
3.29025e-05
0.00525203
3.07529e-05
0.00524813
2.90294e-05
0.00524437
2.78696e-05
0.0052407
2.72612e-05
0.00523708
2.71137e-05
0.00523346
2.7313e-05
0.00522981
2.77536e-05
0.0052261
2.83528e-05
0.00522233
2.90527e-05
0.00521847
2.98167e-05
0.00521453
3.06236e-05
0.00521048
3.14626e-05
0.00520634
3.23294e-05
0.00520209
3.3223e-05
0.00519774
3.41438e-05
0.00519326
3.50933e-05
0.00518867
3.60728e-05
0.00518395
3.70834e-05
0.00517911
3.81261e-05
0.00517414
3.92017e-05
0.00516903
4.03106e-05
0.00516378
4.14532e-05
0.00515838
4.26297e-05
0.00515284
4.38403e-05
0.00514715
4.5085e-05
0.0051413
4.6364e-05
0.00513529
4.76773e-05
0.00512912
4.9025e-05
0.00512279
5.0407e-05
0.00511628
5.18235e-05
0.0051096
5.32746e-05
0.00510274
5.47602e-05
0.0050957
5.62806e-05
0.00508848
5.78358e-05
0.00508107
5.9426e-05
0.00507347
6.10513e-05
0.00506567
6.2712e-05
0.00505768
6.44084e-05
0.00504949
6.61414e-05
0.0050411
6.7913e-05
6.97272e-05
0.00529276
1.16379e-06
0.00529238
3.35409e-06
0.00529177
5.33808e-06
0.00529092
7.5313e-06
0.00528975
1.07971e-05
0.0052881
1.58205e-05
0.00528581
2.24462e-05
0.00528278
2.96049e-05
0.00527908
3.58515e-05
0.00527485
4.00583e-05
0.00527033
4.18201e-05
0.00526572
4.14415e-05
0.0052612
3.96485e-05
0.00525685
3.72489e-05
0.00525271
3.48931e-05
0.00524876
3.29798e-05
0.00524496
3.16713e-05
0.00524126
3.0964e-05
0.0052376
3.07651e-05
0.00523396
3.09532e-05
0.0052303
3.1414e-05
0.0052266
3.2057e-05
0.00522283
3.28178e-05
0.005219
3.36553e-05
0.00521507
3.4545e-05
0.00521106
3.54744e-05
0.00520695
3.64375e-05
0.00520274
3.74327e-05
0.00519843
3.846e-05
0.005194
3.95205e-05
0.00518946
4.06153e-05
0.0051848
4.17454e-05
0.00518001
4.29118e-05
0.0051751
4.4115e-05
0.00517005
4.53554e-05
0.00516487
4.66334e-05
0.00515955
4.79491e-05
0.00515409
4.93025e-05
0.00514848
5.06938e-05
0.00514272
5.21229e-05
0.00513681
5.35899e-05
0.00513074
5.50945e-05
0.00512451
5.6637e-05
0.00511812
5.82172e-05
0.00511156
5.98352e-05
0.00510483
6.14909e-05
0.00509792
6.31844e-05
0.00509084
6.49157e-05
0.00508358
6.66848e-05
0.00507614
6.84918e-05
0.00506852
7.03368e-05
0.00506071
7.22198e-05
0.00505271
7.41414e-05
0.00504452
7.61024e-05
7.81045e-05
0.00529276
1.2942e-06
0.00529238
3.73367e-06
0.00529178
5.94509e-06
0.00529094
8.37106e-06
0.00528979
1.1944e-05
0.00528819
1.74194e-05
0.00528598
2.46546e-05
0.00528308
3.25122e-05
0.0052795
3.94288e-05
0.00527539
4.41641e-05
0.00527096
4.62497e-05
0.00526642
4.59879e-05
0.00526192
4.41481e-05
0.00525756
4.16015e-05
0.0052534
3.90596e-05
0.00524941
3.69661e-05
0.00524557
3.55104e-05
0.00524184
3.46995e-05
0.00523816
3.4441e-05
0.00523451
3.4608e-05
0.00523084
3.50789e-05
0.00522714
3.57561e-05
0.00522339
3.65693e-05
0.00521957
3.74727e-05
0.00521568
3.84388e-05
0.0052117
3.94526e-05
0.00520763
4.05069e-05
0.00520347
4.1599e-05
0.0051992
4.27284e-05
0.00519482
4.38956e-05
0.00519034
4.51015e-05
0.00518573
4.6347e-05
0.00518101
4.76328e-05
0.00517617
4.89592e-05
0.0051712
5.03268e-05
0.0051661
5.17355e-05
0.00516086
5.31854e-05
0.00515549
5.46767e-05
0.00514997
5.62091e-05
0.00514431
5.77825e-05
0.0051385
5.9397e-05
0.00513255
6.10523e-05
0.00512643
6.27484e-05
0.00512017
6.44851e-05
0.00511374
6.62624e-05
0.00510715
6.80801e-05
0.0051004
6.99382e-05
0.00509347
7.18366e-05
0.00508638
7.37752e-05
0.00507912
7.57539e-05
0.00507169
7.77726e-05
0.00506407
7.98314e-05
0.00505629
8.19302e-05
0.00504832
8.40693e-05
8.62493e-05
0.00529276
1.42354e-06
0.00529239
4.11066e-06
0.00529178
6.54874e-06
0.00529095
9.203e-06
0.00528983
1.30686e-05
0.00528828
1.89695e-05
0.00528615
2.67813e-05
0.00528335
3.53095e-05
0.0052799
4.28829e-05
0.00527591
4.8153e-05
0.00527157
5.05856e-05
0.00526709
5.04729e-05
0.00526262
4.86197e-05
0.00525827
4.5954e-05
0.00525408
4.32448e-05
0.00525007
4.09809e-05
0.0052462
3.93796e-05
0.00524243
3.84609e-05
0.00523874
3.81351e-05
0.00523508
3.82717e-05
0.00523141
3.87432e-05
0.00522772
3.94454e-05
0.00522399
4.03025e-05
0.0052202
4.12644e-05
0.00521634
4.23001e-05
0.0052124
4.33924e-05
0.00520837
4.45325e-05
0.00520425
4.57166e-05
0.00520004
4.69433e-05
0.00519572
4.82128e-05
0.0051913
4.95254e-05
0.00518676
5.08818e-05
0.00518211
5.22824e-05
0.00517735
5.37275e-05
0.00517245
5.52172e-05
0.00516744
5.67515e-05
0.00516229
5.83305e-05
0.00515702
5.99538e-05
0.0051516
6.16214e-05
0.00514605
6.3333e-05
0.00514036
6.50884e-05
0.00513453
6.68874e-05
0.00512855
6.87297e-05
0.00512242
7.06152e-05
0.00511613
7.25435e-05
0.0051097
7.45146e-05
0.00510311
7.65282e-05
0.00509636
7.8584e-05
0.00508946
8.06818e-05
0.00508239
8.28215e-05
0.00507516
8.50027e-05
0.00506776
8.72252e-05
0.00506021
8.94889e-05
0.00505248
9.17936e-05
9.41392e-05
0.00529277
1.55173e-06
0.00529239
4.48474e-06
0.00529179
7.1484e-06
0.00529097
1.00268e-05
0.00528986
1.41723e-05
0.00528836
2.0475e-05
0.00528631
2.88335e-05
0.00528361
3.80062e-05
0.00528027
4.62233e-05
0.00527639
5.20325e-05
0.00527214
5.48312e-05
0.00526772
5.48959e-05
0.00526328
5.30588e-05
0.00525894
5.02991e-05
0.00525474
4.74401e-05
0.00525071
4.50148e-05
0.00524682
4.32696e-05
0.00524304
4.22397e-05
0.00523933
4.18398e-05
0.00523567
4.19376e-05
0.00523201
4.24007e-05
0.00522834
4.31192e-05
0.00522463
4.40122e-05
0.00522087
4.50252e-05
0.00521704
4.6124e-05
0.00521315
4.72889e-05
0.00520917
4.85094e-05
0.00520511
4.97803e-05
0.00520095
5.10996e-05
0.0051967
5.24665e-05
0.00519234
5.38811e-05
0.00518788
5.53436e-05
0.00518331
5.68542e-05
0.00517862
5.84128e-05
0.00517382
6.00195e-05
0.0051689
6.1674e-05
0.00516385
6.33761e-05
0.00515868
6.51256e-05
0.00515338
6.6922e-05
0.00514795
6.8765e-05
0.00514238
7.06543e-05
0.00513668
7.25895e-05
0.00513084
7.45702e-05
0.00512486
7.65961e-05
0.00511873
7.86668e-05
0.00511247
8.07819e-05
0.00510605
8.29412e-05
0.00509949
8.51441e-05
0.00509279
8.73904e-05
0.00508593
8.96796e-05
0.00507892
9.20113e-05
0.00507176
9.43851e-05
0.00506445
9.68006e-05
0.00505698
9.92572e-05