/*--------------------------------*- C++ -*----------------------------------*\
| =========                 |                                                 |
| \\      /  F ield         | OpenFOAM: The Open Source CFD Toolbox           |
|  \\    /   O peration     | Version:  2412                                  |
|   \\  /    A nd           | Website:  www.openfoam.com                      |
|    \\/     M anipulation  |                                                 |
\*---------------------------------------------------------------------------*/
FoamFile
{
    version     2.0;
    format      ascii;
    arch        "LSB;label=32;scalar=64";
    class       volVectorField;
    location    "13";
    object      U;
}
// * * * * * * * * * * * * * * * * * * * * * * * * * * * * * * * * * * * * * //

dimensions      [0 1 -1 0 0 0 0];

internalField   nonuniform List<vector> 
5285
(
(0.0999997 4.40454e-07 0)
(0.099995 1.2585e-06 0)
(0.0999856 2.0594e-06 0)
(0.0999718 3.24119e-06 0)
(0.09995 5.3373e-06 0)
(0.0999143 8.51686e-06 0)
(0.0998601 1.23237e-05 0)
(0.0997869 1.58947e-05 0)
(0.0996989 1.8432e-05 0)
(0.0996034 1.95618e-05 0)
(0.0995077 1.94008e-05 0)
(0.0994173 1.83877e-05 0)
(0.0993347 1.70438e-05 0)
(0.0992598 1.57933e-05 0)
(0.0991914 1.48881e-05 0)
(0.0991273 1.44173e-05 0)
(0.0990656 1.43584e-05 0)
(0.0990044 1.46335e-05 0)
(0.0989428 1.51525e-05 0)
(0.0988798 1.58365e-05 0)
(0.0988151 1.66275e-05 0)
(0.0987484 1.74881e-05 0)
(0.0986796 1.83975e-05 0)
(0.0986087 1.93465e-05 0)
(0.0985357 2.03332e-05 0)
(0.0984604 2.13596e-05 0)
(0.0983829 2.24297e-05 0)
(0.0983032 2.35482e-05 0)
(0.0982212 2.47198e-05 0)
(0.0981367 2.59491e-05 0)
(0.0980498 2.72403e-05 0)
(0.0979604 2.85974e-05 0)
(0.0978684 3.00243e-05 0)
(0.0977737 3.15246e-05 0)
(0.0976762 3.31019e-05 0)
(0.0975759 3.47598e-05 0)
(0.0974726 3.65019e-05 0)
(0.0973662 3.83319e-05 0)
(0.0972567 4.02536e-05 0)
(0.0971441 4.22708e-05 0)
(0.097028 4.43876e-05 0)
(0.0969086 4.66083e-05 0)
(0.0967857 4.89371e-05 0)
(0.0966592 5.13787e-05 0)
(0.096529 5.39378e-05 0)
(0.096395 5.66197e-05 0)
(0.0962571 5.94294e-05 0)
(0.0961153 6.23728e-05 0)
(0.0959693 6.54558e-05 0)
(0.0958192 6.86848e-05 0)
(0.0956647 7.20673e-05 0)
(0.0955059 7.56122e-05 0)
(0.0953425 7.93336e-05 0)
(0.0951744 8.32605e-05 0)
(0.0950015 8.74654e-05 0)
(0.0999997 1.3213e-06 0)
(0.099995 3.77664e-06 0)
(0.0999856 6.18011e-06 0)
(0.0999718 9.71662e-06 0)
(0.09995 1.59777e-05 0)
(0.0999146 2.54725e-05 0)
(0.0998609 3.68468e-05 0)
(0.0997881 4.75306e-05 0)
(0.0997007 5.51426e-05 0)
(0.0996057 5.85628e-05 0)
(0.0995104 5.81323e-05 0)
(0.09942 5.51535e-05 0)
(0.0993373 5.11782e-05 0)
(0.0992623 4.74714e-05 0)
(0.0991937 4.47861e-05 0)
(0.0991294 4.33905e-05 0)
(0.0990674 4.32198e-05 0)
(0.099006 4.40443e-05 0)
(0.0989442 4.55963e-05 0)
(0.0988811 4.76416e-05 0)
(0.0988164 5.00075e-05 0)
(0.0987496 5.25826e-05 0)
(0.0986809 5.5305e-05 0)
(0.09861 5.81472e-05 0)
(0.098537 6.11032e-05 0)
(0.0984618 6.41789e-05 0)
(0.0983844 6.7386e-05 0)
(0.0983047 7.07383e-05 0)
(0.0982228 7.425e-05 0)
(0.0981384 7.79345e-05 0)
(0.0980517 8.18046e-05 0)
(0.0979624 8.58723e-05 0)
(0.0978705 9.01488e-05 0)
(0.0977759 9.46451e-05 0)
(0.0976786 9.9372e-05 0)
(0.0975784 0.00010434 0)
(0.0974752 0.00010956 0)
(0.0973691 0.000115043 0)
(0.0972598 0.000120801 0)
(0.0971473 0.000126844 0)
(0.0970315 0.000133186 0)
(0.0969123 0.000139838 0)
(0.0967897 0.000146813 0)
(0.0966634 0.000154127 0)
(0.0965335 0.000161792 0)
(0.0963998 0.000169823 0)
(0.0962622 0.000178238 0)
(0.0961207 0.000187052 0)
(0.0959751 0.000196283 0)
(0.0958253 0.000205952 0)
(0.0956713 0.000216078 0)
(0.0955129 0.00022669 0)
(0.0953499 0.000237829 0)
(0.0951824 0.000249579 0)
(0.09501 0.000262149 0)
(0.0999997 2.20099e-06 0)
(0.099995 6.29447e-06 0)
(0.0999856 1.02995e-05 0)
(0.0999718 1.61675e-05 0)
(0.0999502 2.65314e-05 0)
(0.0999153 4.22478e-05 0)
(0.0998623 6.10983e-05 0)
(0.0997906 7.88445e-05 0)
(0.0997043 9.15439e-05 0)
(0.0996102 9.73258e-05 0)
(0.0995155 9.67319e-05 0)
(0.0994254 9.18985e-05 0)
(0.0993426 8.53845e-05 0)
(0.0992672 7.92833e-05 0)
(0.0991981 7.48473e-05 0)
(0.0991333 7.25293e-05 0)
(0.0990709 7.22307e-05 0)
(0.0990092 7.35781e-05 0)
(0.0989471 7.61326e-05 0)
(0.0988838 7.95091e-05 0)
(0.0988189 8.34224e-05 0)
(0.0987521 8.76881e-05 0)
(0.0986834 9.22031e-05 0)
(0.0986125 9.69212e-05 0)
(0.0985396 0.000101832 0)
(0.0984645 0.000106944 0)
(0.0983872 0.000112276 0)
(0.0983078 0.000117852 0)
(0.098226 0.000123693 0)
(0.0981418 0.000129823 0)
(0.0980553 0.000136262 0)
(0.0979662 0.000143029 0)
(0.0978746 0.000150145 0)
(0.0977803 0.000157625 0)
(0.0976833 0.000165489 0)
(0.0975834 0.000173754 0)
(0.0974806 0.000182438 0)
(0.0973748 0.000191559 0)
(0.0972659 0.000201135 0)
(0.0971538 0.000211187 0)
(0.0970384 0.000221733 0)
(0.0969197 0.000232795 0)
(0.0967975 0.000244395 0)
(0.0966718 0.000256554 0)
(0.0965424 0.000269297 0)
(0.0964093 0.000282649 0)
(0.0962723 0.000296636 0)
(0.0961315 0.000311285 0)
(0.0959866 0.000326625 0)
(0.0958376 0.00034269 0)
(0.0956843 0.000359514 0)
(0.0955268 0.00037714 0)
(0.0953648 0.000395637 0)
(0.0951982 0.000415137 0)
(0.0950269 0.000435972 0)
(0.0999997 3.07878e-06 0)
(0.099995 8.81163e-06 0)
(0.0999856 1.44164e-05 0)
(0.0999718 2.25788e-05 0)
(0.0999505 3.69452e-05 0)
(0.0999162 5.87324e-05 0)
(0.0998643 8.49112e-05 0)
(0.0997942 0.000109638 0)
(0.0997094 0.000127444 0)
(0.0996167 0.000135702 0)
(0.0995228 0.000135116 0)
(0.0994331 0.000128607 0)
(0.0993502 0.000119704 0)
(0.0992744 0.000111308 0)
(0.0992046 0.00010517 0)
(0.0991391 0.000101933 0)
(0.099076 0.000101481 0)
(0.0990138 0.000103309 0)
(0.0989512 0.000106817 0)
(0.0988877 0.000111476 0)
(0.0988226 0.000116892 0)
(0.0987558 0.000122809 0)
(0.098687 0.000129083 0)
(0.0986163 0.000135649 0)
(0.0985435 0.00014249 0)
(0.0984686 0.000149617 0)
(0.0983915 0.000157056 0)
(0.0983123 0.000164837 0)
(0.0982308 0.000172992 0)
(0.0981469 0.00018155 0)
(0.0980607 0.000190541 0)
(0.097972 0.000199991 0)
(0.0978808 0.000209926 0)
(0.0977869 0.000220372 0)
(0.0976903 0.000231352 0)
(0.0975909 0.000242892 0)
(0.0974886 0.000255016 0)
(0.0973833 0.000267749 0)
(0.097275 0.000281116 0)
(0.0971635 0.000295146 0)
(0.0970488 0.000309864 0)
(0.0969307 0.000325301 0)
(0.0968092 0.000341486 0)
(0.0966843 0.00035845 0)
(0.0965557 0.000376225 0)
(0.0964235 0.000394847 0)
(0.0962875 0.000414352 0)
(0.0961476 0.000434777 0)
(0.0960038 0.000456162 0)
(0.0958559 0.000478552 0)
(0.0957038 0.000501994 0)
(0.0955475 0.000526548 0)
(0.0953869 0.000552302 0)
(0.0952218 0.00057943 0)
(0.0950521 0.00060836 0)
(0.0999997 3.95401e-06 0)
(0.099995 1.13275e-05 0)
(0.0999856 1.85297e-05 0)
(0.0999719 2.89367e-05 0)
(0.0999508 4.71724e-05 0)
(0.0999173 7.48293e-05 0)
(0.0998669 0.000108139 0)
(0.0997987 0.000139736 0)
(0.0997159 0.000162674 0)
(0.0996249 0.000173559 0)
(0.0995322 0.000173206 0)
(0.0994429 0.000165261 0)
(0.0993598 0.000154169 0)
(0.0992834 0.000143613 0)
(0.0992129 0.000135836 0)
(0.0991465 0.000131688 0)
(0.0990826 0.000131048 0)
(0.0990197 0.000133299 0)
(0.0989567 0.000137695 0)
(0.0988927 0.000143571 0)
(0.0988275 0.00015043 0)
(0.0987605 0.000157946 0)
(0.0986918 0.000165935 0)
(0.0986212 0.00017431 0)
(0.0985486 0.000183048 0)
(0.0984739 0.000192162 0)
(0.0983971 0.000201681 0)
(0.0983182 0.000211643 0)
(0.0982371 0.000222087 0)
(0.0981537 0.000233051 0)
(0.0980679 0.00024457 0)
(0.0979797 0.000256678 0)
(0.0978889 0.000269409 0)
(0.0977956 0.000282793 0)
(0.0976996 0.000296861 0)
(0.0976008 0.000311645 0)
(0.0974992 0.000327175 0)
(0.0973946 0.000343484 0)
(0.097287 0.000360604 0)
(0.0971763 0.00037857 0)
(0.0970624 0.000397415 0)
(0.0969453 0.000417177 0)
(0.0968248 0.000437894 0)
(0.0967008 0.000459604 0)
(0.0965734 0.000482349 0)
(0.0964423 0.000506173 0)
(0.0963075 0.00053112 0)
(0.0961689 0.000557239 0)
(0.0960265 0.00058458 0)
(0.0958801 0.000613197 0)
(0.0957296 0.000643149 0)
(0.095575 0.000674509 0)
(0.0954162 0.00070738 0)
(0.0952531 0.000741962 0)
(0.0950855 0.000778737 0)
(0.0999997 4.82618e-06 0)
(0.099995 1.38413e-05 0)
(0.0999856 2.26379e-05 0)
(0.0999719 3.52301e-05 0)
(0.0999512 5.7175e-05 0)
(0.0999187 9.04596e-05 0)
(0.0998699 0.000130661 0)
(0.0998039 0.000168994 0)
(0.0997235 0.000197091 0)
(0.0996344 0.000210783 0)
(0.099543 0.000210935 0)
(0.0994543 0.00020184 0)
(0.0993711 0.0001888 0)
(0.0992941 0.000176246 0)
(0.0992227 0.000166909 0)
(0.0991553 0.000161858 0)
(0.0990905 0.00016099 0)
(0.0990268 0.000163597 0)
(0.0989632 0.000168801 0)
(0.0988989 0.000175815 0)
(0.0988334 0.000184044 0)
(0.0987664 0.000193096 0)
(0.0986977 0.000202744 0)
(0.0986272 0.000212881 0)
(0.0985548 0.000223475 0)
(0.0984805 0.000234539 0)
(0.0984041 0.000246106 0)
(0.0983256 0.000258219 0)
(0.0982449 0.000270923 0)
(0.098162 0.000284263 0)
(0.0980768 0.00029828 0)
(0.0979891 0.000313016 0)
(0.097899 0.000328509 0)
(0.0978064 0.000344797 0)
(0.0977111 0.000361916 0)
(0.0976131 0.000379905 0)
(0.0975123 0.0003988 0)
(0.0974086 0.000418639 0)
(0.0973019 0.000439463 0)
(0.0971922 0.000461311 0)
(0.0970794 0.000484226 0)
(0.0969634 0.00050825 0)
(0.096844 0.00053343 0)
(0.0967214 0.000559813 0)
(0.0965952 0.000587447 0)
(0.0964656 0.000616385 0)
(0.0963323 0.000646681 0)
(0.0961954 0.00067839 0)
(0.0960546 0.000711573 0)
(0.0959101 0.000746293 0)
(0.0957616 0.000782618 0)
(0.0956091 0.000820631 0)
(0.0954525 0.000860443 0)
(0.0952917 0.000902259 0)
(0.0951267 0.000946564 0)
(0.0999997 5.69446e-06 0)
(0.099995 1.63522e-05 0)
(0.0999857 2.67391e-05 0)
(0.099972 4.14499e-05 0)
(0.0999517 6.6925e-05 0)
(0.0999201 0.000105565 0)
(0.0998732 0.000152389 0)
(0.0998096 0.000197304 0)
(0.0997318 0.000230586 0)
(0.099645 0.000247282 0)
(0.0995551 0.000248242 0)
(0.099467 0.00023832 0)
(0.0993837 0.000223603 0)
(0.099306 0.000209235 0)
(0.0992336 0.000198429 0)
(0.0991652 0.000192486 0)
(0.0990994 0.000191346 0)
(0.0990349 0.000194232 0)
(0.0989707 0.000200156 0)
(0.098906 0.000208218 0)
(0.0988402 0.000217734 0)
(0.0987732 0.000228247 0)
(0.0987046 0.00023949 0)
(0.0986343 0.000251335 0)
(0.0985622 0.000263738 0)
(0.0984882 0.00027671 0)
(0.0984123 0.000290286 0)
(0.0983343 0.000304513 0)
(0.0982542 0.000319442 0)
(0.0981719 0.000335123 0)
(0.0980873 0.000351603 0)
(0.0980004 0.000368929 0)
(0.097911 0.000387145 0)
(0.0978192 0.000406295 0)
(0.0977247 0.000426422 0)
(0.0976276 0.000447568 0)
(0.0975278 0.000469776 0)
(0.0974252 0.000493091 0)
(0.0973196 0.000517558 0)
(0.0972111 0.000543225 0)
(0.0970995 0.000570138 0)
(0.0969848 0.00059835 0)
(0.0968669 0.000627911 0)
(0.0967458 0.000658877 0)
(0.0966212 0.000691305 0)
(0.0964933 0.000725252 0)
(0.0963618 0.000760781 0)
(0.0962268 0.000797957 0)
(0.0960881 0.000836847 0)
(0.0959457 0.000877522 0)
(0.0957995 0.000920058 0)
(0.0956495 0.000964543 0)
(0.0954955 0.00101109 0)
(0.0953376 0.00105987 0)
(0.0951757 0.0011113 0)
(0.0948227 9.21595e-05 -4.62653e-24)
(0.0946362 9.71369e-05 -4.71449e-24)
(0.09444 0.000102421 -3.19045e-26)
(0.0942337 0.000108111 1.44783e-23)
(0.0940164 0.000114216 -4.79631e-24)
(0.0937874 0.000120757 -4.93381e-24)
(0.0935459 0.00012777 -1.51857e-23)
(0.093291 0.000135294 1.50796e-23)
(0.0930218 0.000143369 5.15788e-24)
(0.0927371 0.000152041 0)
(0.0924359 0.000161354 5.32636e-24)
(0.092117 0.000171361 -5.41709e-24)
(0.0917792 0.000182117 4.45486e-23)
(0.0914209 0.000193687 -9.54674e-23)
(0.0910407 0.000206146 5.10234e-23)
(0.0906369 0.000219583 4.13338e-23)
(0.0948316 0.000276154 -4.67917e-24)
(0.0946453 0.000290984 -9.53989e-24)
(0.0944494 0.000306909 -4.99659e-24)
(0.0942433 0.000323971 4.66013e-24)
(0.0940264 0.000342237 -4.86174e-24)
(0.0937978 0.000361807 3.48272e-23)
(0.0935568 0.000382792 -5.46954e-23)
(0.0933024 0.000405308 5.07842e-24)
(0.0930337 0.000429481 6.77585e-23)
(0.0927497 0.000455439 -9.35841e-23)
(0.0924492 0.000483323 -9.13525e-23)
(0.0921311 0.000513286 8.04967e-23)
(0.0917941 0.000545497 0)
(0.0914368 0.000580149 5.61856e-24)
(0.0910576 0.00061747 -1.7168e-23)
(0.090655 0.000657729 -1.9465e-22)
(0.0948493 0.000459184 -2.76861e-23)
(0.0946634 0.000483855 -9.70567e-24)
(0.0944682 0.000510315 3.74619e-23)
(0.0942627 0.000538617 -7.70243e-23)
(0.0940465 0.000568913 1.64796e-22)
(0.0938187 0.000601381 -7.80582e-23)
(0.0935785 0.000636205 1.42357e-26)
(0.0933252 0.000673578 1.01292e-23)
(0.0930576 0.000713705 1.76558e-22)
(0.0927749 0.000756803 -1.6608e-22)
(0.0924759 0.000803107 0)
(0.0921594 0.000852871 1.46754e-26)
(0.0918241 0.00090638 0)
(0.0914688 0.000963959 1.92982e-22)
(0.0910918 0.00102599 -1.70106e-22)
(0.0906915 0.00109292 -3.66586e-22)
(0.0948758 0.000640584 1.8244e-23)
(0.0946906 0.000675007 -9.25577e-24)
(0.0944961 0.000711758 1.95615e-26)
(0.0942916 0.000751085 9.51923e-24)
(0.0940765 0.000793209 -1.96603e-26)
(0.0938499 0.000838363 1.58053e-22)
(0.0936112 0.000886799 -2.9863e-22)
(0.0933594 0.000938788 1.60478e-22)
(0.0930937 0.000994615 -1.02707e-23)
(0.092813 0.00105459 1.89769e-22)
(0.0925162 0.00111903 -1.68797e-22)
(0.0922022 0.00118831 -3.50162e-22)
(0.0918697 0.00126282 7.0696e-22)
(0.0915174 0.00134302 -7.20756e-22)
(0.0911438 0.00142945 7.35231e-22)
(0.0907472 0.00152274 -7.38785e-22)
(0.0949108 0.000819629 -9.0489e-24)
(0.0947266 0.000863503 -3.69532e-23)
(0.0945332 0.000910361 1.12007e-22)
(0.0943301 0.000960491 -1.51215e-22)
(0.0941164 0.00101418 6.65939e-23)
(0.0938916 0.00107174 9.76225e-24)
(0.0936549 0.00113348 -9.92346e-24)
(0.0934054 0.00119976 -2.47197e-26)
(0.0931421 0.00127094 1.02687e-23)
(0.0928642 0.00134743 -2.08827e-23)
(0.0925706 0.00142963 -3.43535e-22)
(0.0922601 0.00151802 3.54541e-22)
(0.0919315 0.00161312 -3.46169e-22)
(0.0915835 0.00171552 3.57346e-22)
(0.0912145 0.0018259 0)
(0.0908231 0.0019451 -2.51375e-26)
(0.0949542 0.00099573 -4.49041e-23)
(0.0947712 0.00104884 2.70114e-23)
(0.0945794 0.00110559 9.2385e-24)
(0.094378 0.00116632 1.41773e-22)
(0.0941664 0.00123137 -1.41829e-22)
(0.093944 0.00130113 1.46666e-22)
(0.0937099 0.00137598 -3.25533e-22)
(0.0934634 0.00145635 4.63347e-22)
(0.0932035 0.0015427 -3.24533e-22)
(0.0929294 0.00163551 -3.3653e-22)
(0.0926399 0.0017353 -1.68281e-23)
(0.092334 0.00184263 6.83207e-22)
(0.0920105 0.00195815 -7.19525e-22)
(0.0916681 0.0020826 3.35573e-22)
(0.0913054 0.00221682 3.62032e-22)
(0.0909208 0.00236185 3.78361e-22)
(0.0950057 0.00116809 8.8448e-24)
(0.0948245 0.00122993 8.14598e-23)
(0.0946348 0.00129609 -7.26444e-23)
(0.0944359 0.00136693 9.32208e-24)
(0.0942271 0.00144288 1.43255e-22)
(0.0940078 0.00152437 -1.43484e-22)
(0.0937773 0.00161187 -3.07267e-22)
(0.0935347 0.00170588 4.66227e-24)
(0.0932792 0.00180694 -5.64362e-24)
(0.0930099 0.00191561 3.41116e-22)
(0.0927258 0.00203252 -3.33063e-22)
(0.0924259 0.00215837 7.06689e-22)
(0.092109 0.00229391 -3.52096e-22)
(0.0917739 0.00244003 1.13777e-23)
(0.0914193 0.00259777 1.16414e-23)
(0.0910437 0.00276836 7.69877e-22)
(0.0950661 0.00133955 0)
(0.0948879 0.00140853 0)
(0.0947014 0.00148238 0)
(0.0945061 0.00156148 0)
(0.0943012 0.00164627 0)
(0.0940863 0.00173723 0)
(0.0938606 0.00183486 0)
(0.0936233 0.00193972 0)
(0.0933737 0.00205239 0)
(0.0931109 0.00217351 0)
(0.092834 0.00230376 0)
(0.0925421 0.00244391 0)
(0.092234 0.0025948 0)
(0.0919086 0.00275741 0)
(0.0915647 0.00293289 0)
(0.091201 0.00312259 0)
(0.0951364 0.00151201 0)
(0.0949624 0.00158881 0)
(0.0947804 0.00167097 0)
(0.0945899 0.00175893 0)
(0.0943903 0.00185317 0)
(0.0941811 0.0019542 0)
(0.0939616 0.00206257 0)
(0.0937312 0.00217888 0)
(0.0934892 0.00230376 0)
(0.0932347 0.00243791 0)
(0.092967 0.00258207 0)
(0.0926851 0.00273706 0)
(0.092388 0.0029038 0)
(0.0920749 0.00308335 0)
(0.0917445 0.00327692 0)
(0.0913957 0.00348596 0)
(0.0952147 0.00168001 0)
(0.0950457 0.00176447 0)
(0.094869 0.00185474 0)
(0.0946842 0.00195132 0)
(0.0944908 0.00205471 0)
(0.0942883 0.00216546 0)
(0.0940762 0.00228417 0)
(0.0938538 0.00241148 0)
(0.0936204 0.00254808 0)
(0.0933755 0.00269471 0)
(0.0931183 0.00285216 0)
(0.0928479 0.00302132 0)
(0.0925636 0.00320318 0)
(0.0922644 0.00339884 0)
(0.0919494 0.00360959 0)
(0.0916175 0.00383695 0)
(0.0953004 0.00184286 0)
(0.095137 0.00193459 0)
(0.0949662 0.00203256 0)
(0.0947879 0.00213725 0)
(0.0946014 0.00224923 0)
(0.0944065 0.00236908 0)
(0.0942025 0.00249743 0)
(0.093989 0.00263497 0)
(0.0937655 0.00278242 0)
(0.0935312 0.00294056 0)
(0.0932856 0.00311025 0)
(0.093028 0.00329241 0)
(0.0927577 0.00348807 0)
(0.0924739 0.00369841 0)
(0.0921757 0.00392476 0)
(0.0918624 0.00416869 0)
(0.0953931 0.00200007 0)
(0.0952356 0.00209866 0)
(0.0950714 0.00220383 0)
(0.0949 0.00231612 0)
(0.0947212 0.0024361 0)
(0.0945344 0.00256439 0)
(0.0943394 0.00270165 0)
(0.0941356 0.0028486 0)
(0.0939226 0.00300599 0)
(0.0936998 0.00317464 0)
(0.0934668 0.00335544 0)
(0.0932229 0.00354935 0)
(0.0929676 0.00375746 0)
(0.0927003 0.00398095 0)
(0.0924203 0.00422121 0)
(0.0921268 0.00447983 0)
(0.0954921 0.00215127 0)
(0.0953411 0.00225625 0)
(0.0951838 0.00236812 0)
(0.0950199 0.00248744 0)
(0.0948491 0.00261481 0)
(0.0946711 0.00275085 0)
(0.0944855 0.00289627 0)
(0.094292 0.00305178 0)
(0.0940902 0.00321818 0)
(0.0938796 0.00339631 0)
(0.0936599 0.00358708 0)
(0.0934305 0.00379148 0)
(0.0931911 0.00401063 0)
(0.0929411 0.00424573 0)
(0.09268 0.00449819 0)
(0.0924073 0.0047696 0)
(0.095597 0.00229613 0)
(0.0954527 0.00240699 0)
(0.0953027 0.00252502 0)
(0.0951467 0.00265078 0)
(0.0949843 0.00278488 0)
(0.0948155 0.00292797 0)
(0.0946398 0.00308074 0)
(0.0944571 0.00324395 0)
(0.0942669 0.0034184 0)
(0.0940691 0.00360494 0)
(0.0938631 0.00380452 0)
(0.0936488 0.00401812 0)
(0.0934258 0.00424688 0)
(0.0931938 0.00449202 0)
(0.0929523 0.00475493 0)
(0.092701 0.0050372 0)
(0.0957074 0.00243435 0)
(0.0955701 0.00255058 0)
(0.0954276 0.00267421 0)
(0.0952797 0.0028058 0)
(0.0951261 0.00294596 0)
(0.0949668 0.00309535 0)
(0.0948014 0.00325468 0)
(0.0946297 0.0034247 0)
(0.0944516 0.00360622 0)
(0.0942668 0.0038001 0)
(0.094075 0.00400729 0)
(0.0938762 0.0042288 0)
(0.0936699 0.00446573 0)
(0.0934561 0.00471931 0)
(0.0932346 0.00499094 0)
(0.0930051 0.00528214 0)
(0.0958226 0.00256572 0)
(0.0956925 0.0026868 0)
(0.0955578 0.00281544 0)
(0.0954182 0.00295223 0)
(0.0952737 0.00309778 0)
(0.095124 0.00325273 0)
(0.0949691 0.0034178 0)
(0.0948088 0.00359373 0)
(0.0946429 0.00378135 0)
(0.0944714 0.0039815 0)
(0.0942941 0.00419512 0)
(0.0941108 0.00442323 0)
(0.0939216 0.00466691 0)
(0.0937262 0.00492738 0)
(0.0935247 0.00520599 0)
(0.0933171 0.00550424 0)
(0.0959423 0.00269005 0)
(0.0958195 0.00281544 0)
(0.0956927 0.00294854 0)
(0.0955616 0.0030899 0)
(0.0954262 0.00324014 0)
(0.0952865 0.00339991 0)
(0.0951422 0.00356991 0)
(0.0949933 0.00375088 0)
(0.0948399 0.00394362 0)
(0.0946817 0.00414898 0)
(0.0945189 0.00436788 0)
(0.0943513 0.00460132 0)
(0.094179 0.00485036 0)
(0.0940021 0.00511619 0)
(0.0938206 0.00540011 0)
(0.0936346 0.00570356 0)
(0.0960658 0.00280721 0)
(0.0959505 0.00293639 0)
(0.0958317 0.00307335 0)
(0.0957093 0.00321867 0)
(0.0955832 0.00337294 0)
(0.0954533 0.00353679 0)
(0.0953197 0.00371092 0)
(0.0951824 0.00389605 0)
(0.0950414 0.00409297 0)
(0.0948966 0.00430251 0)
(0.0947482 0.00452556 0)
(0.0945962 0.0047631 0)
(0.0944408 0.00501616 0)
(0.0942821 0.00528587 0)
(0.0941203 0.0055735 0)
(0.0939557 0.00588041 0)
(0.0961928 0.0029171 0)
(0.0960851 0.00304954 0)
(0.0959743 0.00318981 0)
(0.0958605 0.00333847 0)
(0.0957437 0.0034961 0)
(0.0956238 0.00366332 0)
(0.095501 0.0038408 0)
(0.0953751 0.00402925 0)
(0.0952465 0.00422943 0)
(0.095115 0.00444215 0)
(0.0949809 0.00466828 0)
(0.0948443 0.00490874 0)
(0.0947055 0.00516453 0)
(0.0945647 0.00543674 0)
(0.0944222 0.00572655 0)
(0.0942784 0.00603525 0)
(0.0963227 0.00301967 0)
(0.0962225 0.00315486 0)
(0.0961199 0.00329789 0)
(0.0960148 0.00344929 0)
(0.0959072 0.00360964 0)
(0.0957973 0.00377953 0)
(0.095685 0.00395961 0)
(0.0955706 0.00415057 0)
(0.0954542 0.00435313 0)
(0.0953358 0.00456808 0)
(0.0952158 0.00479625 0)
(0.0950944 0.00503851 0)
(0.0949718 0.00529582 0)
(0.0948484 0.0055692 0)
(0.0947247 0.00585977 0)
(0.0946012 0.00616872 0)
(0.0964551 0.0031149 0)
(0.0963625 0.00325234 0)
(0.0962679 0.00339759 0)
(0.0961714 0.00355116 0)
(0.0960731 0.0037136 0)
(0.095973 0.0038855 0)
(0.0958712 0.00406746 0)
(0.0957681 0.00426015 0)
(0.0956636 0.00446426 0)
(0.0955582 0.00468053 0)
(0.0954519 0.00490976 0)
(0.0953452 0.00515277 0)
(0.0952385 0.00541047 0)
(0.0951321 0.0056838 0)
(0.0950265 0.0059738 0)
(0.0949225 0.00628159 0)
(0.0965894 0.00320281 0)
(0.0965044 0.00334202 0)
(0.0964178 0.00348897 0)
(0.0963298 0.00364416 0)
(0.0962406 0.0038081 0)
(0.0961502 0.00398135 0)
(0.0960588 0.00416451 0)
(0.0959667 0.00435819 0)
(0.095874 0.00456306 0)
(0.0957811 0.00477981 0)
(0.0956883 0.00500919 0)
(0.0955959 0.00525197 0)
(0.0955045 0.005509 0)
(0.0954144 0.00578116 0)
(0.0953264 0.00606939 0)
(0.0952409 0.0063747 0)
(0.0967254 0.00328345 0)
(0.0966478 0.00342397 0)
(0.0965691 0.00357212 0)
(0.0964896 0.00372839 0)
(0.0964093 0.00389326 0)
(0.0963284 0.00406727 0)
(0.0962471 0.00425097 0)
(0.0961658 0.00444496 0)
(0.0960846 0.00464984 0)
(0.0960039 0.00486628 0)
(0.0959241 0.00509496 0)
(0.0958455 0.00533662 0)
(0.0957688 0.00559201 0)
(0.0956944 0.00586196 0)
(0.095623 0.00614732 0)
(0.0955554 0.006449 0)
(0.0968624 0.00335691 0)
(0.0967922 0.00349829 0)
(0.0967213 0.00364717 0)
(0.09665 0.00380402 0)
(0.0965785 0.00396929 0)
(0.0965069 0.00414348 0)
(0.0964355 0.00432711 0)
(0.0963647 0.00452075 0)
(0.0962946 0.00472496 0)
(0.0962257 0.00494035 0)
(0.0961584 0.00516756 0)
(0.0960932 0.00540726 0)
(0.0960305 0.00566014 0)
(0.0959711 0.00592695 0)
(0.0959156 0.00620845 0)
(0.0958648 0.00650546 0)
(0.0970002 0.0034233 0)
(0.0969371 0.00356511 0)
(0.0968739 0.00371428 0)
(0.0968107 0.00387122 0)
(0.0967477 0.00403638 0)
(0.0966852 0.00421022 0)
(0.0966234 0.00439322 0)
(0.0965627 0.00458591 0)
(0.0965034 0.00478881 0)
(0.0964458 0.00500248 0)
(0.0963906 0.00522751 0)
(0.0963381 0.0054645 0)
(0.0962889 0.00571408 0)
(0.0962437 0.00597692 0)
(0.0962032 0.00625369 0)
(0.0961682 0.00654511 0)
(0.0971383 0.00348275 0)
(0.0970822 0.0036246 0)
(0.0970265 0.00377363 0)
(0.0969711 0.00393022 0)
(0.0969164 0.00409479 0)
(0.0968627 0.00426778 0)
(0.0968102 0.00444963 0)
(0.0967593 0.00464081 0)
(0.0967103 0.00484182 0)
(0.0966637 0.00505316 0)
(0.0966199 0.00527536 0)
(0.0965795 0.00550896 0)
(0.0965431 0.00575454 0)
(0.0965114 0.00601267 0)
(0.096485 0.00628395 0)
(0.0964649 0.006569 0)
(0.0972763 0.00353541 0)
(0.0972271 0.00367693 0)
(0.0971786 0.00382542 0)
(0.0971309 0.00398125 0)
(0.0970843 0.0041448 0)
(0.097039 0.00431647 0)
(0.0969954 0.00449667 0)
(0.0969539 0.00468585 0)
(0.0969148 0.00488443 0)
(0.0968786 0.00509289 0)
(0.0968458 0.00531168 0)
(0.0968169 0.00554131 0)
(0.0967926 0.00578226 0)
(0.0967735 0.00603504 0)
(0.0967604 0.00630017 0)
(0.0967542 0.00657817 0)
(0.0974139 0.00358147 0)
(0.0973714 0.0037223 0)
(0.0973299 0.00386988 0)
(0.0972895 0.00402456 0)
(0.0972507 0.00418668 0)
(0.0972136 0.00435662 0)
(0.0971786 0.00453474 0)
(0.0971461 0.00472145 0)
(0.0971164 0.00491713 0)
(0.0970901 0.0051222 0)
(0.0970677 0.00533709 0)
(0.0970496 0.0055622 0)
(0.0970367 0.00579798 0)
(0.0970294 0.00604487 0)
(0.0970287 0.00630328 0)
(0.0970354 0.00657366 0)
(0.0975507 0.00362112 0)
(0.0975147 0.00376093 0)
(0.09748 0.00390727 0)
(0.0974467 0.00406044 0)
(0.0974153 0.00422077 0)
(0.0973861 0.00438858 0)
(0.0973593 0.00456422 0)
(0.0973353 0.00474804 0)
(0.0973146 0.0049404 0)
(0.0972977 0.00514165 0)
(0.0972851 0.00535217 0)
(0.0972773 0.00557232 0)
(0.097275 0.00580247 0)
(0.0972788 0.00604298 0)
(0.0972896 0.00629422 0)
(0.0973082 0.00655653 0)
(0.0976865 0.00365457 0)
(0.0976567 0.00379306 0)
(0.0976285 0.00393784 0)
(0.0976021 0.00408918 0)
(0.0975779 0.00424737 0)
(0.0975561 0.00441271 0)
(0.0975371 0.00458551 0)
(0.0975213 0.00476608 0)
(0.0975091 0.00495473 0)
(0.097501 0.00515179 0)
(0.0974976 0.00535755 0)
(0.0974994 0.00557234 0)
(0.097507 0.00579646 0)
(0.0975212 0.00603022 0)
(0.0975426 0.0062739 0)
(0.0975722 0.00652777 0)
(0.0978209 0.00368203 0)
(0.0977971 0.00381893 0)
(0.0977752 0.00396186 0)
(0.0977554 0.00411107 0)
(0.0977379 0.00426683 0)
(0.0977233 0.00442939 0)
(0.0977117 0.00459903 0)
(0.0977036 0.00477602 0)
(0.0976994 0.00496064 0)
(0.0976997 0.00515316 0)
(0.0977049 0.00535384 0)
(0.0977156 0.00556294 0)
(0.0977325 0.00578072 0)
(0.0977562 0.00600741 0)
(0.0977874 0.00624323 0)
(0.097827 0.00648838 0)
(0.0979538 0.00370374 0)
(0.0979357 0.0038388 0)
(0.0979198 0.00397962 0)
(0.0979062 0.00412644 0)
(0.0978953 0.00427949 0)
(0.0978873 0.00443899 0)
(0.0978828 0.00460519 0)
(0.097882 0.00477832 0)
(0.0978854 0.00495863 0)
(0.0978934 0.00514633 0)
(0.0979067 0.00534164 0)
(0.0979257 0.00554479 0)
(0.0979511 0.00575595 0)
(0.0979835 0.00597533 0)
(0.0980237 0.00620307 0)
(0.0980725 0.0064393 0)
(0.0980848 0.00371993 0)
(0.0980722 0.00385293 0)
(0.098062 0.00399141 0)
(0.0980544 0.0041356 0)
(0.0980496 0.00428569 0)
(0.098048 0.0044419 0)
(0.0980501 0.00460441 0)
(0.0980561 0.00477345 0)
(0.0980666 0.0049492 0)
(0.0980819 0.00513184 0)
(0.0981027 0.00532157 0)
(0.0981294 0.00551854 0)
(0.0981626 0.0057229 0)
(0.0982031 0.00593477 0)
(0.0982515 0.00615427 0)
(0.0983086 0.00638146 0)
(0.0982137 0.00373085 0)
(0.0982064 0.00386158 0)
(0.0982016 0.00399752 0)
(0.0981996 0.00413887 0)
(0.0982007 0.0042858 0)
(0.0982052 0.00443849 0)
(0.0982134 0.00459712 0)
(0.0982259 0.00476185 0)
(0.0982429 0.00493284 0)
(0.098265 0.00511025 0)
(0.0982927 0.0052942 0)
(0.0983265 0.00548483 0)
(0.098367 0.00568223 0)
(0.0984147 0.00588649 0)
(0.0984705 0.00609765 0)
(0.0985351 0.00631572 0)
(0.0983404 0.00373675 0)
(0.0983381 0.00386502 0)
(0.0983385 0.00399824 0)
(0.0983418 0.00413657 0)
(0.0983483 0.00428016 0)
(0.0983585 0.00442917 0)
(0.0983726 0.00458373 0)
(0.098391 0.00474398 0)
(0.0984141 0.00491006 0)
(0.0984425 0.00508207 0)
(0.0984766 0.00526012 0)
(0.0985169 0.00544429 0)
(0.0985639 0.00563463 0)
(0.0986184 0.00583119 0)
(0.0986808 0.00603397 0)
(0.098752 0.00624294 0)
(0.0984647 0.00373788 0)
(0.0984672 0.00386354 0)
(0.0984724 0.00399387 0)
(0.0984807 0.00412903 0)
(0.0984924 0.00426912 0)
(0.0985078 0.00441429 0)
(0.0985274 0.00456464 0)
(0.0985513 0.00472028 0)
(0.0985802 0.00488132 0)
(0.0986143 0.00504783 0)
(0.0986542 0.00521987 0)
(0.0987004 0.0053975 0)
(0.0987535 0.00558074 0)
(0.0988139 0.00576958 0)
(0.0988824 0.00596399 0)
(0.0989595 0.00616389 0)
(0.0985865 0.00373448 0)
(0.0985934 0.00385739 0)
(0.0986032 0.0039847 0)
(0.0986162 0.00411655 0)
(0.0986327 0.00425302 0)
(0.0986531 0.00439423 0)
(0.0986777 0.00454025 0)
(0.0987068 0.00469118 0)
(0.0987409 0.00484709 0)
(0.0987803 0.00500801 0)
(0.0988256 0.005174 0)
(0.0988772 0.00534505 0)
(0.0989356 0.00552117 0)
(0.0990014 0.00570231 0)
(0.0990752 0.00588839 0)
(0.0991575 0.00607931 0)
(0.0999997 6.57736e-06 0)
(0.0999951 1.89195e-05 0)
(0.0999857 3.09285e-05 0)
(0.0999721 4.77363e-05 0)
(0.0999521 7.66314e-05 0)
(0.0999217 0.000120459 0)
(0.0998768 0.000173768 0)
(0.0998158 0.000225249 0)
(0.0997408 0.000263864 0)
(0.0996563 0.000283848 0)
(0.0995681 0.000285963 0)
(0.0994808 0.000275543 0)
(0.0993974 0.000259407 0)
(0.0993191 0.000243385 0)
(0.0992457 0.000231175 0)
(0.0991762 0.000224333 0)
(0.0991094 0.000222867 0)
(0.099044 0.000225956 0)
(0.0989792 0.000232519 0)
(0.0989141 0.000241556 0)
(0.0988481 0.000252297 0)
(0.0987811 0.000264224 0)
(0.0987126 0.00027703 0)
(0.0986426 0.00029056 0)
(0.0985708 0.000304761 0)
(0.0984973 0.000319638 0)
(0.0984219 0.000335226 0)
(0.0983445 0.000351575 0)
(0.098265 0.00036874 0)
(0.0981834 0.000386775 0)
(0.0980997 0.000405734 0)
(0.0980136 0.000425668 0)
(0.0979251 0.000446627 0)
(0.0978343 0.000468659 0)
(0.0977408 0.000491811 0)
(0.0976448 0.000516133 0)
(0.0975462 0.000541673 0)
(0.0974448 0.000568481 0)
(0.0973405 0.000596608 0)
(0.0972334 0.000626107 0)
(0.0971233 0.000657032 0)
(0.0970102 0.000689441 0)
(0.096894 0.000723391 0)
(0.0967746 0.000758945 0)
(0.0966519 0.000796164 0)
(0.096526 0.000835116 0)
(0.0963966 0.00087587 0)
(0.0962639 0.000918496 0)
(0.0961276 0.00096307 0)
(0.0959878 0.00100967 0)
(0.0958443 0.00105838 0)
(0.0956971 0.00110928 0)
(0.0955462 0.00116249 0)
(0.0953915 0.00121814 0)
(0.0952331 0.00127644 0)
(0.0999997 7.47369e-06 0)
(0.0999951 2.15406e-05 0)
(0.0999857 3.5202e-05 0)
(0.0999722 5.40771e-05 0)
(0.0999527 8.62603e-05 0)
(0.0999234 0.000135072 0)
(0.0998805 0.000194689 0)
(0.0998222 0.000252695 0)
(0.09975 0.000296787 0)
(0.0996681 0.000320361 0)
(0.0995816 0.00032401 0)
(0.0994952 0.000313465 0)
(0.0994118 0.000296203 0)
(0.0993329 0.000278713 0)
(0.0992586 0.00026518 0)
(0.099188 0.000257436 0)
(0.0991202 0.000255587 0)
(0.0990541 0.000258794 0)
(0.0989886 0.000265903 0)
(0.0989231 0.000275827 0)
(0.098857 0.000287718 0)
(0.09879 0.000300999 0)
(0.0987217 0.000315321 0)
(0.098652 0.000330505 0)
(0.0985807 0.000346481 0)
(0.0985077 0.00036325 0)
(0.0984329 0.000380843 0)
(0.0983563 0.000399313 0)
(0.0982776 0.000418716 0)
(0.0981969 0.000439111 0)
(0.098114 0.000460555 0)
(0.0980289 0.000483104 0)
(0.0979415 0.000506812 0)
(0.0978517 0.000531732 0)
(0.0977595 0.000557917 0)
(0.0976648 0.00058542 0)
(0.0975675 0.000614295 0)
(0.0974675 0.000644597 0)
(0.0973648 0.000676382 0)
(0.0972593 0.00070971 0)
(0.0971509 0.000744639 0)
(0.0970396 0.000781233 0)
(0.0969253 0.000819555 0)
(0.096808 0.000859674 0)
(0.0966876 0.000901659 0)
(0.0965639 0.000945582 0)
(0.0964371 0.000991518 0)
(0.0963069 0.00103954 0)
(0.0961734 0.00108974 0)
(0.0960365 0.0011422 0)
(0.0958962 0.001197 0)
(0.0957523 0.00125423 0)
(0.0956049 0.00131401 0)
(0.095454 0.00137644 0)
(0.0952995 0.00144167 0)
(0.0999997 8.36369e-06 0)
(0.0999951 2.41525e-05 0)
(0.0999858 3.9459e-05 0)
(0.0999723 6.03245e-05 0)
(0.0999532 9.55894e-05 0)
(0.099925 0.000149066 0)
(0.0998841 0.000214668 0)
(0.0998284 0.000279 0)
(0.099759 0.000328576 0)
(0.0996796 0.00035595 0)
(0.0995949 0.000361475 0)
(0.0995094 0.000351175 0)
(0.0994261 0.000333109 0)
(0.0993468 0.000314375 0)
(0.0992716 0.000299636 0)
(0.0992001 0.000291012 0)
(0.0991314 0.000288734 0)
(0.0990646 0.000291971 0)
(0.0989986 0.000299518 0)