/*--------------------------------*- C++ -*----------------------------------*\
| =========                 |                                                 |
| \\      /  F ield         | OpenFOAM: The Open Source CFD Toolbox           |
|  \\    /   O peration     | Version:  2412                                  |
|   \\  /    A nd           | Website:  www.openfoam.com                      |
|    \\/     M anipulation  |                                                 |
\*---------------------------------------------------------------------------*/
FoamFile
{
    version     2.0;
    format      ascii;
    arch        "LSB;label=32;scalar=64";
    class       surfaceScalarField;
    location    "4.5";
    object      phi;
}
// * * * * * * * * * * * * * * * * * * * * * * * * * * * * * * * * * * * * * //

dimensions      [0 3 -1 0 0 0 0];

oriented        oriented;

internalField   nonuniform List<scalar> 
10424
(
0.00505059
1.69517e-07
-2.80065e-10
0.00504544
5.15263e-06
-3.57293e-09
0.00503775
7.69864e-06
-7.13118e-09
0.00503029
7.46202e-06
-6.56912e-09
0.00502555
4.74551e-06
-3.08979e-09
0.0050232
2.35191e-06
9.23746e-10
0.00502215
1.04457e-06
3.9142e-09
0.00502149
6.54567e-07
5.62137e-09
0.00502071
7.73097e-07
6.41304e-09
0.00501964
1.05689e-06
6.65285e-09
0.0050183
1.34112e-06
6.59686e-09
0.00501672
1.57442e-06
6.4436e-09
0.00501496
1.75395e-06
6.2946e-09
0.00501306
1.89236e-06
6.18609e-09
0.00501105
2.00337e-06
6.1144e-09
0.00500894
2.09755e-06
6.07062e-09
0.00500676
2.18221e-06
6.02166e-09
0.00500449
2.26212e-06
5.9528e-09
0.00500214
2.34034e-06
5.86124e-09
0.00499972
2.41885e-06
5.761e-09
0.00499721
2.49891e-06
5.6565e-09
0.00499463
2.58136e-06
5.53258e-09
0.00499195
2.66674e-06
5.38296e-09
0.00498919
2.75539e-06
5.21548e-09
0.00498634
2.84754e-06
5.0392e-09
0.00498339
2.94333e-06
4.86395e-09
0.00498034
3.0429e-06
4.6825e-09
0.00497719
3.14635e-06
4.4918e-09
0.00497394
3.25375e-06
4.28256e-09
0.00497057
3.36519e-06
4.05844e-09
0.00496708
3.48074e-06
3.81707e-09
0.00496348
3.60047e-06
3.56724e-09
0.00495975
3.72447e-06
3.31167e-09
0.00495589
3.85285e-06
3.05651e-09
0.00495191
3.98572e-06
2.80228e-09
0.00494778
4.12322e-06
2.5466e-09
0.00494351
4.26552e-06
2.28675e-09
0.0049391
4.4128e-06
2.01749e-09
0.00493453
4.56529e-06
1.7383e-09
0.00492981
4.72323e-06
1.44813e-09
0.00492492
4.88693e-06
1.14958e-09
0.00491986
5.05674e-06
8.4585e-10
0.00491463
5.23306e-06
5.40272e-10
0.00490921
5.4164e-06
2.35355e-10
0.0049036
5.60737e-06
-6.93524e-11
0.0048978
5.80669e-06
-3.74862e-10
0.00489178
6.01525e-06
-6.82289e-10
0.00488555
6.23414e-06
-9.90605e-10
0.00487909
6.46467e-06
-1.29658e-09
0.00487238
6.70834e-06
-1.59368e-09
0.00486541
6.9667e-06
-1.87405e-09
0.00485817
7.24091e-06
-2.1301e-09
0.00485065
7.53104e-06
-2.35595e-09
0.00484281
7.83545e-06
-2.54725e-09
8.15166e-06
0.00483466
-2.70178e-09
0.0050506
3.29276e-07
0.00504555
1.02027e-05
0.00503801
1.52355e-05
0.00503065
1.48271e-05
0.00502591
9.47692e-06
0.00502351
4.75432e-06
0.00502239
2.16411e-06
0.00502167
1.38051e-06
0.00502084
1.60323e-06
0.00501974
2.15541e-06
0.00501837
2.71141e-06
0.00501677
3.16918e-06
0.005015
3.52237e-06
0.0050131
3.79539e-06
0.00501109
4.01497e-06
0.00500899
4.20176e-06
0.0050068
4.36998e-06
0.00500453
4.52901e-06
0.00500219
4.68484e-06
0.00499976
4.84135e-06
0.00499726
5.00104e-06
0.00499468
5.16553e-06
0.00499201
5.33588e-06
0.00498925
5.51276e-06
0.0049864
5.69663e-06
0.00498346
5.8878e-06
0.00498041
6.08651e-06
0.00497727
6.29294e-06
0.00497401
6.50725e-06
0.00497065
6.7296e-06
0.00496717
6.96012e-06
0.00496357
7.19898e-06
0.00495985
7.44636e-06
0.004956
7.70244e-06
0.00495202
7.96748e-06
0.0049479
8.24173e-06
0.00494364
8.52553e-06
0.00493923
8.81923e-06
0.00493467
9.12327e-06
0.00492996
9.43814e-06
0.00492508
9.76442e-06
0.00492004
1.01028e-05
0.00491482
1.04541e-05
0.00490941
1.08193e-05
0.00490382
1.11996e-05
0.00489803
1.15963e-05
0.00489203
1.20113e-05
0.00488582
1.24466e-05
0.00487938
1.29047e-05
0.0048727
1.33886e-05
0.00486577
1.39012e-05
0.00485856
1.44448e-05
0.00485108
1.50194e-05
0.00484329
1.56218e-05
1.62473e-05
0.00483519
0.00505062
4.67249e-07
0.00504577
1.50497e-05
0.00503854
2.24628e-05
0.00503136
2.20157e-05
0.00502664
1.41908e-05
0.00502414
7.25829e-06
0.00502288
3.42597e-06
0.00502202
2.23691e-06
0.00502109
2.53321e-06
0.00501992
3.32264e-06
0.00501851
4.1259e-06
0.00501689
4.79108e-06
0.0050151
5.3067e-06
0.00501319
5.70711e-06
0.00501117
6.03062e-06
0.00500907
6.30697e-06
0.00500688
6.55674e-06
0.00500462
6.79345e-06
0.00500228
7.02585e-06
0.00499986
7.25957e-06
0.00499736
7.49823e-06
0.00499478
7.7442e-06
0.00499212
7.999e-06
0.00498937
8.26362e-06
0.00498653
8.53873e-06
0.00498359
8.82478e-06
0.00498055
9.12211e-06
0.00497742
9.43099e-06
0.00497417
9.75165e-06
0.00497082
1.00843e-05
0.00496735
1.04291e-05
0.00496376
1.07864e-05
0.00496005
1.11564e-05
0.00495621
1.15394e-05
0.00495225
1.19357e-05
0.00494814
1.23457e-05
0.0049439
1.27699e-05
0.00493951
1.32089e-05
0.00493497
1.36631e-05
0.00493027
1.41335e-05
0.00492542
1.46207e-05
0.00492039
1.51259e-05
0.0049152
1.56501e-05
0.00490982
1.61948e-05
0.00490426
1.67617e-05
0.0048985
1.73528e-05
0.00489254
1.79706e-05
0.00488637
1.8618e-05
0.00487998
1.92985e-05
0.00487335
2.00165e-05
0.00486648
2.07758e-05
0.00485934
2.15798e-05
0.00485193
2.24284e-05
0.00484424
2.3317e-05
2.42382e-05
0.00483625
0.00505066
5.67633e-07
0.00504612
1.95834e-05
0.00503936
2.92305e-05
0.00503242
2.89499e-05
0.00502772
1.88879e-05
0.00502506
9.91798e-06
0.00502359
4.89989e-06
0.00502254
3.28532e-06
0.00502147
3.60897e-06
0.0050202
4.58959e-06
0.00501872
5.60424e-06
0.00501706
6.45198e-06
0.00501525
7.11375e-06
0.00501333
7.6311e-06
0.00501131
8.05182e-06
0.0050092
8.41335e-06
0.00500702
8.74169e-06
0.00500476
9.05403e-06
0.00500242
9.36148e-06
0.00500001
9.67122e-06
0.00499752
9.9879e-06
0.00499495
1.03145e-05
0.00499229
1.0653e-05
0.00498955
1.10046e-05
0.00498672
1.13702e-05
0.0049838
1.17504e-05
0.00498077
1.21456e-05
0.00497765
1.25562e-05
0.00497442
1.29823e-05
0.00497108
1.34244e-05
0.00496762
1.38826e-05
0.00496405
1.43572e-05
0.00496036
1.48487e-05
0.00495654
1.53573e-05
0.00495259
1.58835e-05
0.00494851
1.64278e-05
0.00494429
1.69908e-05
0.00493993
1.75732e-05
0.00493541
1.81758e-05
0.00493075
1.87995e-05
0.00492592
1.94453e-05
0.00492094
2.01145e-05
0.00491578
2.08087e-05
0.00491044
2.15295e-05
0.00490493
2.2279e-05
0.00489922
2.30599e-05
0.00489331
2.38752e-05
0.0048872
2.47284e-05
0.00488088
2.56241e-05
0.00487433
2.65671e-05
0.00486754
2.75626e-05
0.00486051
2.86142e-05
0.00485321
2.97218e-05
0.00484565
3.08794e-05
3.20777e-05
0.00483781
0.00505071
6.13564e-07
0.0050466
2.3692e-05
0.00504043
3.54044e-05
0.00503382
3.55627e-05
0.00502913
2.35755e-05
0.00502626
1.27858e-05
0.00502451
6.64937e-06
0.00502322
4.58023e-06
0.00502195
4.87033e-06
0.00502056
5.98278e-06
0.005019
7.16301e-06
0.00501729
8.16179e-06
0.00501546
8.94909e-06
0.00501352
9.57015e-06
0.00501149
1.00796e-05
0.00500938
1.05207e-05
0.0050072
1.09238e-05
0.00500495
1.13092e-05
0.00500262
1.16897e-05
0.00500022
1.2074e-05
0.00499774
1.24674e-05
0.00499518
1.28735e-05
0.00499253
1.32947e-05
0.00498981
1.37324e-05
0.00498699
1.41876e-05
0.00498408
1.46609e-05
0.00498107
1.5153e-05
0.00497796
1.56641e-05
0.00497475
1.61946e-05
0.00497143
1.67448e-05
0.004968
1.73151e-05
0.00496445
1.79057e-05
0.00496078
1.85171e-05
0.00495699
1.91497e-05
0.00495307
1.98041e-05
0.00494902
2.04808e-05
0.00494483
2.11805e-05
0.0049405
2.1904e-05
0.00493602
2.26523e-05
0.00493139
2.34264e-05
0.00492661
2.42276e-05
0.00492167
2.50574e-05
0.00491656
2.59175e-05
0.00491128
2.68099e-05
0.00490582
2.77371e-05
0.00490018
2.87019e-05
0.00489435
2.97078e-05
0.00488831
3.0759e-05
0.00488208
3.18603e-05
0.00487563
3.30173e-05
0.00486896
3.42355e-05
0.00486205
3.55188e-05
0.00485491
3.68667e-05
0.00484751
3.82716e-05
3.97218e-05
0.00483987
0.00505078
5.87473e-07
0.00504719
2.72856e-05
0.00504172
4.0871e-05
0.00503548
4.18085e-05
0.00503079
2.82613e-05
0.00502767
1.59051e-05
0.0050256
8.72482e-06
0.00502401
6.16384e-06
0.00502254
6.3478e-06
0.005021
7.52226e-06
0.00501934
8.81463e-06
0.00501758
9.92779e-06
0.00501571
1.08167e-05
0.00501375
1.15261e-05
0.00501172
1.21143e-05
0.00500961
1.26285e-05
0.00500743
1.3102e-05
0.00500519
1.35571e-05
0.00500287
1.40084e-05
0.00500048
1.44653e-05
0.00499801
1.4934e-05
0.00499547
1.54183e-05
0.00499284
1.59209e-05
0.00499013
1.64434e-05
0.00498733
1.6987e-05
0.00498444
1.75523e-05
0.00498145
1.814e-05
0.00497836
1.87503e-05
0.00497517
1.93838e-05
0.00497188
2.00407e-05
0.00496847
2.07214e-05
0.00496495
2.14263e-05
0.00496131
2.21558e-05
0.00495755
2.29104e-05
0.00495367
2.36906e-05
0.00494965
2.44972e-05
0.0049455
2.5331e-05
0.00494121
2.61927e-05
0.00493678
2.70836e-05
0.0049322
2.80047e-05
0.00492747
2.89574e-05
0.00492258
2.99434e-05
0.00491754
3.09647e-05
0.00491232
3.20233e-05
0.00490694
3.31219e-05
0.00490138
3.42636e-05
0.00489563
3.54522e-05
0.0048897
3.66918e-05
0.00488357
3.79878e-05
0.00487724
3.93458e-05
0.00487071
4.07713e-05
0.00486396
4.22681e-05
0.00485699
4.38349e-05
0.0048498
4.54624e-05
4.71352e-05
0.00484239
0.00505083
5.12253e-07
0.00504789
3.02258e-05
0.00504313
4.56323e-05
0.00503731
4.76264e-05
0.00503262
3.2957e-05
0.00502922
1.93036e-05
0.00502679
1.11536e-05
0.00502489
8.0613e-06
0.00502318
8.05934e-06
0.00502148
9.21979e-06
0.00501973
1.05665e-05
0.00501791
1.17543e-05
0.005016
1.27187e-05
0.00501403
1.34997e-05
0.00501199
1.41557e-05
0.00500988
1.47357e-05
0.00500771
1.52746e-05
0.00500547
1.5796e-05
0.00500316
1.63153e-05
0.00500078
1.68428e-05
0.00499833
1.73849e-05
0.00499581
1.79459e-05
0.0049932
1.85285e-05
0.00499051
1.91344e-05
0.00498773
1.9765e-05
0.00498486
2.04208e-05
0.0049819
2.11025e-05
0.00497884
2.18106e-05
0.00497568
2.25454e-05
0.00497241
2.33072e-05
0.00496904
2.40964e-05
0.00496555
2.49134e-05
0.00496195
2.57587e-05
0.00495822
2.66328e-05
0.00495438
2.75364e-05
0.0049504
2.847e-05
0.0049463
2.94347e-05
0.00494206
3.04313e-05
0.00493768
3.14609e-05
0.00493316
3.25248e-05
0.0049285
3.36246e-05
0.00492368
3.47618e-05
0.00491871
3.59386e-05
0.00491357
3.71571e-05
0.00490827
3.84201e-05
0.00490281
3.97307e-05
0.00489717
4.10927e-05
0.00489135
4.25104e-05
0.00488535
4.39888e-05
0.00487916
4.55335e-05
0.00487278
4.71497e-05
0.00486621
4.88405e-05
0.00485944
5.06038e-05
0.00485247
5.24274e-05
0.00484532
5.42885e-05
0.00483661
-1.94405e-06
-2.83461e-09
0.00483806
-1.44512e-06
-2.97555e-09
0.00483904
-9.76596e-07
-3.08533e-09
0.00483961
-5.67414e-07
-3.17198e-09
0.00483986
-2.45912e-07
-3.32204e-09
0.00483986
-8.81384e-10
-3.64637e-09
0.00483971
1.60374e-07
-3.18866e-09
0.00483943
2.83625e-07
-3.25796e-09
0.004839
4.32148e-07
-3.3621e-09
0.00483833
6.67472e-07
-3.42017e-09
0.00483729
1.04921e-06
-3.44195e-09
0.00483567
1.62234e-06
-3.43031e-09
0.00483326
2.41069e-06
-3.39813e-09
0.00482985
3.41799e-06
-3.34873e-09
0.00482522
4.63333e-06
-3.28943e-09
6.03818e-06
-3.22656e-09
0.00483579
-2.54218e-06
0.00483589
-1.54648e-06
0.00483552
-6.0844e-07
0.00483473
2.28396e-07
0.0048336
8.83391e-07
0.00483222
1.37959e-06
0.00483065
1.73193e-06
0.00482891
2.01857e-06
0.00482699
2.35259e-06
0.0048248
2.859e-06
0.0048222
3.65335e-06
0.004819
4.82152e-06
0.004815
6.40983e-06
0.00480999
8.42633e-06
0.00480377
1.08507e-05
1.36479e-05
0.00483416
-4.58199e-07
0.00483158
1.03262e-06
0.00482853
2.44488e-06
0.00482506
3.70127e-06
0.00482121
4.73186e-06
0.00481706
5.52442e-06
0.00481267
6.12145e-06
0.00480806
6.63298e-06
0.00480319
7.21947e-06
0.00479799
8.06063e-06
0.00479232
9.32103e-06
0.00478602
1.11226e-05
0.0047789
1.35316e-05
0.00477077
1.65603e-05
0.00476144
2.01813e-05
2.43474e-05
0.00483175
5.60498e-06
0.0048252
7.58183e-06
0.00481817
9.46962e-06
0.00481071
1.11694e-05
0.00480283
1.26028e-05
0.00479461
1.37482e-05
0.00478607
1.46617e-05
0.00477722
1.54819e-05
0.00476803
1.6409e-05
0.00475842
1.76675e-05
0.00474828
1.94621e-05
0.00473746
2.1945e-05
0.00472579
2.5199e-05
0.00471311
2.92412e-05
0.00469925
3.40408e-05
3.95428e-05
0.00482857
1.68993e-05
0.00481681
1.9349e-05
0.00480457
2.171e-05
0.00479187
2.38695e-05
0.00477873
2.57393e-05
0.00476518
2.72954e-05
0.00475124
2.86038e-05
0.0047369
2.98248e-05
0.00472212
3.11893e-05
0.00470683
3.2955e-05
0.00469094
3.53574e-05
0.00467431
3.85717e-05
0.00465681
4.26944e-05
0.00463831
4.77484e-05
0.00461864
5.37031e-05
6.05023e-05
0.00482467
3.46122e-05
0.00480651
3.75143e-05
0.00478788
4.03395e-05
0.00476878
4.29667e-05
0.00474922
4.53022e-05
0.00472919
4.73217e-05
0.0047087
4.90985e-05
0.00468772
5.08081e-05
0.0046662
5.27022e-05
0.0046441
5.50611e-05
0.00462131
5.8141e-05
0.00459775
6.21331e-05
0.0045733
6.71448e-05
0.00454784
7.32059e-05
0.00452126
8.02901e-05
8.83457e-05
0.00482009
5.98452e-05
0.00479443
6.31714e-05
0.00476833
6.64442e-05
0.00474175
6.95373e-05
0.0047147
7.23555e-05
0.00468715
7.48757e-05
0.00465907
7.71767e-05
0.00463043
7.94439e-05
0.00460119
8.19413e-05
0.00457129
8.49625e-05
0.00454066
8.87754e-05
0.00450921
9.35809e-05
0.00447686
9.94944e-05
0.00444351
0.000106553
0.00440907
0.000114737
0.000124004
0.00507324
6.77175e-05
-0.00508111
0.00506498
7.14311e-05
0.00505629
7.51322e-05
0.00504713
7.87043e-05
0.00503743
8.20573e-05
0.00502713
8.51672e-05
0.00501621
8.81053e-05
0.00500461
9.10438e-05
0.00499232
9.42312e-05
0.00497933
9.79482e-05
0.00496565
0.000102457
0.00495127
0.00010796
0.00493618
0.000114586
0.00492034
0.000122387
0.00490372
0.000131365
0.000141498
0.00507751
7.52575e-05
-0.00508505
0.00506961
7.93295e-05
0.00506131
8.34334e-05
0.00505255
8.74665e-05
0.00504326
9.13485e-05
0.00503337
9.50578e-05
0.00502281
9.86581e-05
0.00501155
0.000102305
0.00499956
0.000106224
0.00498683
0.000110676
0.00497338
0.000115908
0.00495922
0.000122119
0.00494436
0.000129442
0.0049288
0.000137947
0.00491251
0.000147655
0.000158566
0.00508209
8.24435e-05
-0.00508928
0.00507458
8.68402e-05
0.0050667
9.13138e-05
0.00505839
9.57783e-05
0.00504957
0.000100166
0.00504017
0.000104462
0.00503011
0.000108721
0.00501933
0.000113081
0.00500781
0.000117744
0.00499554
0.000122942
0.00498255
0.000128902
0.00496885
0.000135815
0.00495448
0.000143814
0.00493945
0.000152982
0.00492374
0.00016336
0.000174969
0.00508692
8.92718e-05
-0.00509374
0.0050798
9.39585e-05
0.00507235
9.87652e-05
0.0050645
0.000103623
0.00505619
0.000108481
0.00504732
0.000113328
0.00503782
0.000118217
0.00502764
0.000123267
0.00501673
0.000128653
0.00500509
0.00013458
0.00499274
0.000141252
0.00497971
0.000148844
0.00496604
0.00015749
0.00495174
0.000167279
0.00493683
0.000178269
0.0001905
0.00509193
9.57488e-05
-0.0050984
0.00508519
0.000100693
0.00507816
0.000105796
0.00507078
0.000111007
0.00506297
0.00011629
0.00505466
0.000121641
0.00504576
0.000127111
0.00503623
0.000132803
0.00502601
0.000138868
0.00501511
0.000145483
0.00500353
0.000152828
0.00499132
0.000161062
0.00497849
0.000170313
0.0049651
0.000180676
0.00495114
0.000192221
0.000205002
0.0050971
0.000101886
-0.00510323
0.00509073
0.000107058
0.0050841
0.000112424
0.00507716
0.000117948
0.00506984
0.000123607
0.00506208
0.000129409
0.00505379
0.000135399
0.00504492
0.00014167
0.00503544
0.000148351
0.00502533
0.000155595
0.0050146
0.000163557
0.00500328
0.00017238
0.00499141
0.000182184
0.00497902
0.000193067
0.00496613
0.000205104
0.000218363
0.00510241
0.000107693
-0.00510822
0.0050964
0.000113069
0.00509015
0.000118668
0.00508363
0.000124467
0.00507678
0.000130457
0.00506954
0.000136652
0.00506184
0.000143098
0.00505363
0.000149877
0.00504488
0.000157102
0.00503558
0.000164902
0.00502572
0.000173412
0.00501534
0.00018276
0.00500447
0.000193056
0.00499314
0.000204395
0.00498139
0.000216858
0.000230518
0.00510786
0.000113181
-0.00511335
0.00510219
0.000118739
0.00509632
0.000124544
0.0050902
0.000130584
0.0050838
0.000136861
0.00507705
0.000143395
0.00506992
0.000150233
0.00506235
0.000157448
0.00505431
0.000165138
0.0050458
0.000173417
0.00503681
0.0001824
0.00502737
0.000192199
0.00501751
0.000202917
0.00500726
0.000214643
0.00499666
0.000227459
0.000241442
0.00511346
0.000118354
-0.00511863
0.00510812
0.000124075
0.0051026
0.000130062
0.00509688
0.000136313
0.0050909
0.000142837
0.00508464
0.000149659
0.00507804
0.000156826
0.00507108
0.000164407
0.00506373
0.000172487
0.00505599
0.000181165
0.00504784
0.000190542
0.00503933
0.000200716
0.00503046
0.000211781
0.00502129
0.00022382
0.00501183
0.000236913
0.000251138
0.00511919
0.000123214
-0.00512405
0.00511419
0.00012908
0.00510902
0.000135228
0.00510368
0.000141661
0.00509812
0.000148394
0.00509232
0.000155458
0.00508625
0.000162897
0.00507988
0.000170777
0.00507319
0.000179174
0.00506618
0.000188174
0.00505886
0.000197867
0.00505123
0.000208339
0.00504334
0.000219674
0.00503521
0.00023195
0.00502688
0.000245242
0.000259627
0.00512506
0.000127762
-0.00512961
0.00512039
0.000133755
0.00511557
0.000140041
0.00511061
0.000146629
0.00510546
0.000153538
0.00510012
0.000160799
0.00509456
0.000168458
0.00508876
0.000176575
0.00508272
0.000185221
0.00507642
0.000194472
0.00506988
0.000204406
0.00506312
0.000215101
0.00505616
0.000226631
0.00504904
0.000239068
0.0050418
0.000252483
0.000266948
0.00513105
0.000131995
-0.00513529
0.00512671
0.000138097
0.00512225
0.0001445
0.00511767
0.000151216
0.00511294
0.000158267
0.00510805
0.000165686
0.00510299
0.000173517
0.00509775
0.000181816
0.00509232
0.000190649
0.00508671
0.000200083
0.00508093
0.000210189
0.00507499
0.000221035
0.00506894
0.000232688
0.00506279
0.000245213
0.0050566
0.000258676
0.000273144
0.00513715
0.000135912
-0.00514107
0.00513315
0.000142104
0.00512904
0.000148602
0.00512484
0.000155421
0.00512052
0.000162583
0.00511609
0.000170121
0.00511153
0.000178079
0.00510683
0.000186509
0.00510201
0.000195472
0.00509706
0.000205029
0.00509201
0.000215243
0.00508687
0.000226174
0.00508168
0.000237883
0.00507646
0.000250428
0.00507127
0.000263869
0.000278267
0.00514334
0.000139512
-0.00514694
0.00513967
0.000145775
0.00513593
0.000152346
0.00513211
0.000159241
0.00512821
0.000166484
0.00512422
0.000174106
0.00512015
0.00018215
0.00511599
0.000190666
0.00511176
0.000199708
0.00510746
0.000209332
0.0051031
0.000219595
0.00509873
0.000230551
0.00509436
0.000242253
0.00509003
0.000254754
0.00508579
0.000268108
0.000282369
0.00514961
0.000142794
-0.00515289
0.00514627
0.000149109
0.00514289
0.000155731
0.00513945
0.000162678
0.00513596
0.000169973
0.00513242
0.000177646
0.00512883
0.000185738
0.0051252
0.000194297
0.00512154
0.000203371
0.00511786
0.000213013
0.00511418
0.000223272
0.00511053
0.000234198
0.00510695
0.000245838
0.00510347
0.000258238
0.00510013
0.000271445
0.000285509
0.00515592
0.000145761
-0.00515889
0.00515292
0.000152107
0.00514989
0.000158759
0.00514684
0.000165734
0.00514376
0.000173052
0.00514066
0.000180746
0.00513755
0.000188852
0.00513443
0.000197414
0.00513132
0.000206479
0.00512824
0.000216094
0.00512521
0.000226303
0.00512226
0.00023715
0.00511942
0.000248677
0.00511673
0.000260923
0.00511425
0.000273932
0.000287745
0.00516227
0.000148413
-0.00516492
0.0051596
0.000154773
0.00515693
0.000161434
0.00515425
0.000168413
0.00515157
0.00017573
0.0051489
0.000183415
0.00514625
0.000191503
0.00514363
0.000200034
0.00514106
0.000209052
0.00513855
0.0002186
0.00513614
0.000228716
0.00513385
0.000239441
0.00513172
0.000250809
0.00512978
0.000262857
0.0051281
0.00027562
0.000289134
0.00516863
0.000150757
-0.00517097
0.00516629
0.000157111
0.00516396
0.000163762
0.00516165
0.000170722
0.00515937
0.000178014
0.00515712
0.000185663
0.00515492
0.000193704
0.00515278
0.000202173
0.00515072
0.000211111
0.00514877
0.000220555
0.00514694
0.000230542
0.00514528
0.000241106
0.00514381
0.000252276
0.00514258
0.000264085
0.00514164
0.000276562
0.000289738
0.00517498
0.000152798
-0.00517703
0.00517297
0.000159129
0.00517098
0.000165749
0.00516903
0.000172671
0.00516713
0.000179915
0.00516529
0.000187504
0.00516352
0.000195471
0.00516184
0.00020385
0.00516028
0.000212678
0.00515884
0.000221987
0.00515757
0.000231812
0.0051565
0.000242181
0.00515566
0.00025312
0.00515509
0.000264655
0.00515484
0.000276812
0.000289615
0.00518132
0.000154542
-0.00518306
0.00517961
0.000160835
0.00517796
0.000167407
0.00517636
0.000174271
0.00517483
0.000181445
0.00517338
0.000188953
0.00517203
0.000196822
0.00517079
0.000205086
0.00516969
0.000213776
0.00516875
0.000222924
0.00516801
0.000232558
0.00516749
0.000242703
0.00516723
0.000253381
0.00516727
0.000264614
0.00516766
0.000276421
0.000288823
0.00518761
0.000155999
-0.00518907
0.00518621
0.000162237
0.00518487
0.000168744
0.00518361
0.000175533
0.00518244
0.000182619
0.00518136
0.000190025
0.00518041
0.000197776
0.00517959
0.000205902
0.00517894
0.000214432
0.00517847
0.000223394
0.00517822
0.000232813
0.00517821
0.000242709
0.00517849
0.000253102
0.00517909
0.000264008
0.00518007
0.000275443
0.000287421
0.00519385
0.000157177
-0.00519503
0.00519274
0.000163346
0.00519171
0.000169774
0.00519077
0.000176471
0.00518994
0.000183452
0.00518923
0.000190738
0.00518865
0.000198352
0.00518823
0.00020632
0.005188
0.00021467
0.00518796
0.000223425
0.00518817
0.000232608
0.00518864
0.000242236
0.00518942
0.000252323
0.00519055
0.000262883
0.00519206
0.000273927
0.000285465
0.00520002
0.000158087
-0.00520093
0.00519919
0.000164174
0.00519846
0.000170508
0.00519783
0.000177099
0.00519732
0.00018396
0.00519695
0.00019111
0.00519673
0.00019857
0.00519669
0.000206364
0.00519684
0.000214516
0.00519722
0.000223048
0.00519785
0.000231978
0.00519877
0.00024132
0.0052
0.000251085
0.0052016
0.000261283
0.00520361
0.000271922
0.000283007
0.00520611
0.00015874
-0.00520676
0.00520555
0.000164732
0.0052051
0.00017096
0.00520477
0.000177432
0.00520457
0.00018416
0.00520452
0.00019116
0.00520463
0.000198451
0.00520494
0.000206057
0.00520546
0.000213997
0.00520622
0.000222291
0.00520724
0.000230954
0.00520857
0.000239996
0.00521022
0.000249427
0.00521225
0.000259252
0.0052147
0.000269475
0.000280101
0.0052121
0.000159145
-0.00521251
0.0052118
0.000165033
0.00521162
0.000171144
0.00521156
0.000177485
0.00521166
0.000184068
0.00521191
0.000190906
0.00521234
0.000198018
0.00521298
0.000205422
0.00521384
0.000213139
0.00521494
0.000221183
0.00521633
0.000229567
0.00521803
0.0002383
0.00522007
0.000247387
0.00522249
0.000256831
0.00522533
0.000266634
0.000276794
0.00521799
0.000159316
-0.00521816
0.00521793
0.000165089
0.005218
0.000171074
0.00521821
0.000177275
0.00521858
0.000183702
0.00521912
0.000190368
0.00521985
0.00019729
0.00522078
0.000204483
0.00522196
0.000211966
0.00522339
0.000219752
0.00522511
0.000227849
0.00522714
0.000236265
0.00522953
0.000245002
0.0052323
0.000254061
0.00523549
0.000263439
0.000273135
0.00522376
0.000159264
-0.00522371
0.00522394
0.000164914
0.00522425
0.000170763
0.00522471
0.000176816
0.00522533
0.000183079
0.00522613
0.000189565
0.00522713
0.000196288
0.00522835
0.000203263
0.00522982
0.000210505
0.00523154
0.000218025
0.00523356
0.00022583
0.0052359
0.000233924
0.0052386
0.000242307
0.00524168
0.000250978
0.00524519
0.000259933
0.000269166
0.00522941
0.000159001
-0.00522915
0.00522981
0.000164522
0.00523034
0.000170228
0.00523103
0.000176124
0.0052319
0.000182216
0.00523295
0.000188515
0.0052342
0.000195033
0.00523568
0.000201784
0.0052374
0.000208779
0.0052394
0.000216029
0.00524169
0.000223537
0.00524431
0.000231307
0.00524728
0.000239336
0.00525064
0.00024762
0.00525442
0.000256154
0.000264929
0.00523493
0.000158539
-0.00523447
0.00523553
0.000163924
0.00523628
0.000169482
0.00523719
0.000175216
0.00523827
0.000181132
0.00523955
0.000187238
0.00524104
0.000193546
0.00524275
0.000200068
0.00524472
0.000206813
0.00524696
0.000213789
0.0052495
0.000221
0.00525236
0.000228445
0.00525557
0.00023612
0.00525917
0.000244021
0.00526319
0.000252138
0.000260463
0.00524032
-0.00523967
0.00524111
0.00524205
0.00524316
0.00524445
0.00524594
0.00524764
0.00524957
0.00525176
0.00525422
0.00525697
0.00526005
0.00526348
0.00526729
0.00527151
0.00529278
6.29989e-07
0.00529101
3.19958e-05
0.00528623
5.04092e-05
0.00528089
5.29691e-05
0.00527588
3.79609e-05
0.00527201
2.31733e-05
0.0052691
1.40648e-05
0.00526677
1.03951e-05
0.00526472
1.01078e-05
0.00526277
1.11702e-05
0.00526082
1.25119e-05
0.00525884
1.37344e-05
0.00525681
1.47493e-05
0.00525473
1.55865e-05
0.00525258
1.63014e-05
0.00525037
1.69421e-05
0.00524811
1.75437e-05
0.00524577
1.81304e-05
0.00524337
1.8718e-05
0.00524089
1.93169e-05
0.00523834
1.99338e-05
0.00523572
2.05732e-05
0.00523301
2.12378e-05
0.00523021
2.19294e-05
0.00522733
2.26493e-05
0.00522435
2.33982e-05
0.00522128
2.41767e-05
0.0052181
2.49852e-05
0.00521482
2.5824e-05
0.00521144
2.66935e-05
0.00520794
2.7594e-05
0.00520433
2.8526e-05
0.0052006
2.94899e-05
0.00519674
3.04862e-05
0.00519276
3.15157e-05
0.00518866
3.25789e-05
0.00518441
3.36769e-05
0.00518003
3.48106e-05
0.00517551
3.59811e-05
0.00517085
3.71897e-05
0.00516604
3.84379e-05
0.00516107
3.97275e-05
0.00515595
4.10605e-05
0.00515067
4.2439e-05
0.00514522
4.38659e-05
0.00513961
4.5344e-05
0.00513382
4.68771e-05
0.00512786
4.84691e-05
0.00512173
5.01248e-05
0.00511541
5.18491e-05
0.00510891
5.36466e-05
0.00510224
5.55197e-05
0.00509537
5.74652e-05
0.00508833
5.94698e-05
6.1506e-05
0.00529282
7.0296e-07
0.00529173
3.30823e-05
0.0052877
5.44474e-05
0.00528281
5.7853e-05
0.00527782
4.29501e-05
0.00527368
2.73212e-05
0.0052704
1.73354e-05
0.00526775
1.30538e-05
0.00526545
1.24023e-05
0.00526333
1.32885e-05
0.00526128
1.45647e-05
0.00525924
1.57794e-05
0.00525717
1.68162e-05
0.00525506
1.76909e-05
0.00525291
1.8452e-05
0.00525071
1.91448e-05
0.00524845
1.98032e-05
0.00524613
2.04507e-05
0.00524375
2.1103e-05
0.00524129
2.17704e-05
0.00523877
2.24598e-05
0.00523616
2.31753e-05
0.00523348
2.39199e-05
0.00523072
2.46952e-05
0.00522786
2.55024e-05
0.00522492
2.63423e-05
0.00522188
2.72154e-05
0.00521874
2.81219e-05
0.00521551
2.90623e-05
0.00521216
3.00369e-05
0.00520871
3.1046e-05
0.00520515
3.20899e-05
0.00520147
3.31691e-05
0.00519767
3.42842e-05
0.00519375
3.54358e-05
0.0051897
3.66245e-05
0.00518553
3.78514e-05
0.00518122
3.91173e-05
0.00517678
4.04233e-05
0.0051722
4.17708e-05
0.00516748
4.31613e-05
0.00516261
4.45963e-05
0.00515759
4.60779e-05
0.00515242
4.76081e-05
0.0051471
4.91894e-05
0.00514162
5.08247e-05
0.00513598
5.25171e-05
0.00513017
5.42704e-05
0.00512421
5.60886e-05
0.00511808
5.79759e-05
0.00511179
5.99359e-05
0.00510534
6.197e-05
0.00509874
6.40744e-05
0.00509197
6.62356e-05
6.84268e-05
0.00529289
7.11081e-07
0.00529228
3.36871e-05
0.00528895
5.77766e-05
0.00528445
6.23513e-05
0.00527951
4.78908e-05
0.00527515
3.16824e-05
0.00527158
2.09065e-05
0.00526864
1.599e-05
0.00526614
1.49117e-05
0.00526387
1.55561e-05
0.00526172
1.67141e-05
0.00525961
1.7883e-05
0.00525751
1.89157e-05
0.0052554
1.98101e-05
0.00525324
2.06054e-05
0.00525105
2.13418e-05
0.0052488
2.20508e-05
0.00524649
2.27545e-05
0.00524413
2.34679e-05
0.0052417
2.42009e-05
0.0052392
2.496e-05
0.00523662
2.57494e-05
0.00523397
2.65716e-05
0.00523124
2.74284e-05
0.00522842
2.83207e-05
0.00522551
2.92493e-05
0.00522251
3.02144e-05
0.00521942
3.12165e-05
0.00521623
3.22558e-05
0.00521293
3.33325e-05
0.00520953
3.44469e-05
0.00520602
3.55994e-05
0.0052024
3.67904e-05
0.00519866
3.80203e-05
0.00519481
3.92897e-05
0.00519083
4.05995e-05
0.00518674
4.19502e-05
0.00518251
4.3343e-05
0.00517815
4.47789e-05
0.00517367
4.6259e-05
0.00516904
4.77848e-05
0.00516428
4.93578e-05
0.00515938
5.09797e-05
0.00515433
5.26526e-05
0.00514915
5.43785e-05
0.00514381
5.61601e-05
0.00513833
5.79999e-05
0.0051327
5.99011e-05
0.00512692
6.18669e-05
0.00512099
6.39006e-05
0.00511492
6.60048e-05
0.00510872
6.81796e-05
0.00510237
7.04207e-05
0.00509589
7.2715e-05
7.50375e-05
0.00529292
6.80632e-07
0.00529266
3.39551e-05
0.00528988
6.05515e-05
0.00528572
6.65171e-05
0.00528086
5.27506e-05
0.00527636
3.61761e-05
0.00527257
2.46958e-05
0.00526942
1.91395e-05
0.00526674
1.75926e-05
0.00526435
1.79466e-05
0.00526212
1.89446e-05
0.00525997
2.00363e-05
0.00525784
2.10422e-05
0.00525571
2.19405e-05
0.00525356
2.27587e-05
0.00525137
2.35307e-05
0.00524914
2.42842e-05
0.00524685
2.50396e-05
0.00524451
2.58104e-05
0.0052421
2.66059e-05
0.00523963
2.7432e-05
0.00523709
2.82926e-05
0.00523447
2.91901e-05
0.00523177
3.01259e-05
0.00522899
3.11008e-05
0.00522613
3.21154e-05
0.00522317
3.317e-05
0.00522012
3.42647e-05
0.00521698
3.53998e-05
0.00521374
3.65755e-05
0.00521039
3.77918e-05
0.00520694
3.90492e-05
0.00520338
4.03479e-05
0.00519971
4.16884e-05
0.00519593
4.30712e-05
0.00519204
4.44969e-05
0.00518802
4.59663e-05
0.00518388
4.74802e-05
0.00517962
4.90396e-05
0.00517524
5.06456e-05
0.00517072
5.22994e-05
0.00516608
5.40024e-05
0.0051613
5.57561e-05
0.00515639
5.75622e-05
0.00515135
5.94226e-05
0.00514617
6.13392e-05
0.00514085
6.33142e-05
0.0051354
6.535e-05
0.00512982
6.74489e-05
0.00512411
6.96131e-05
0.00511827
7.1844e-05
0.00511231
7.41408e-05
0.00510623
7.64982e-05
0.00510004
7.8904e-05
8.13353e-05
0.00529294
6.3706e-07
0.00529285
3.40461e-05
0.00529046
6.29378e-05
0.00528656
7.04193e-05
0.00528181
5.74973e-05
0.00527727
4.07166e-05
0.00527335
2.86128e-05
0.00527006
2.24303e-05
0.00526726
2.03959e-05
0.00526478
2.0429e-05
0.00526248
2.12376e-05
0.00526029
2.22279e-05
0.00525815
2.31888e-05
0.00525601
2.40774e-05
0.00525386
2.49086e-05
0.00525168
2.57087e-05
0.00524946
2.65012e-05
0.0052472
2.73036e-05
0.00524488
2.81281e-05
0.00524251
2.89828e-05
0.00524006
2.98731e-05
0.00523756
3.08023e-05
0.00523497
3.17723e-05
0.00523231
3.27844e-05
0.00522958
3.38393e-05
0.00522675
3.49372e-05
0.00522385
3.60783e-05
0.00522085
3.72626e-05
0.00521776
3.84903e-05
0.00521457
3.97614e-05
0.00521129
4.1076e-05
0.0052079
4.24342e-05
0.00520441
4.38364e-05
0.00520082
4.52828e-05
0.00519712
4.6774e-05
0.0051933
4.83104e-05
0.00518938
4.98926e-05
0.00518534
5.15215e-05
0.00518118
5.31979e-05
0.0051769
5.49226e-05
0.0051725
5.66967e-05
0.00516798
5.85215e-05
0.00516334
6.0398e-05
0.00515858
6.23277e-05
0.00515369
6.4312e-05
0.00514867
6.63524e-05
0.00514354
6.84505e-05
0.00513828
7.06078e-05
0.0051329
7.28257e-05
0.00512741
7.51055e-05
0.00512181
7.74471e-05
0.0051161
7.98488e-05