/*--------------------------------*- C++ -*----------------------------------*\
| =========                 |                                                 |
| \\      /  F ield         | OpenFOAM: The Open Source CFD Toolbox           |
|  \\    /   O peration     | Version:  2412                                  |
|   \\  /    A nd           | Website:  www.openfoam.com                      |
|    \\/     M anipulation  |                                                 |
\*---------------------------------------------------------------------------*/
FoamFile
{
    version     2.0;
    format      ascii;
    arch        "LSB;label=32;scalar=64";
    class       volScalarField;
    location    "4.5";
    object      p;
}
// * * * * * * * * * * * * * * * * * * * * * * * * * * * * * * * * * * * * * //

dimensions      [0 2 -2 0 0 0 0];

internalField   nonuniform List<scalar> 
63420
(
0.00115047
0.00120166
0.0011503
0.00118023
0.00117368
0.00117566
0.00117994
0.00118246
0.00118601
0.00119003
0.00119433
0.00119901
0.00120408
0.0012095
0.00121528
0.00122141
0.0012279
0.00123473
0.00124192
0.00124946
0.00125734
0.00126557
0.00127416
0.0012831
0.00129239
0.00130203
0.00131204
0.0013224
0.00133313
0.00134422
0.00135568
0.00136752
0.00137973
0.00139233
0.0014053
0.00141867
0.00143243
0.00144659
0.00146115
0.00147611
0.00149149
0.00150729
0.0015235
0.00154015
0.00155722
0.00157473
0.00159268
0.00161108
0.00162993
0.00164924
0.00166901
0.00168925
0.00170996
0.00173116
0.00175284
0.00115037
0.00120162
0.00115024
0.00118014
0.00117363
0.00117559
0.00117987
0.00118239
0.00118593
0.00118995
0.00119424
0.00119893
0.00120399
0.0012094
0.00121518
0.00122131
0.00122779
0.00123462
0.0012418
0.00124933
0.00125721
0.00126543
0.00127401
0.00128294
0.00129222
0.00130186
0.00131185
0.0013222
0.00133292
0.001344
0.00135545
0.00136727
0.00137947
0.00139205
0.00140501
0.00141836
0.0014321
0.00144623
0.00146077
0.00147572
0.00149107
0.00150684
0.00152303
0.00153964
0.00155668
0.00157416
0.00159208
0.00161044
0.00162925
0.00164852
0.00166825
0.00168844
0.0017091
0.00173024
0.00175187
0.00115018
0.00120153
0.00115011
0.00117995
0.00117353
0.00117543
0.00117973
0.00118225
0.00118578
0.0011898
0.00119408
0.00119876
0.00120381
0.00120922
0.00121499
0.0012211
0.00122757
0.00123439
0.00124156
0.00124908
0.00125694
0.00126515
0.00127371
0.00128263
0.00129189
0.0013015
0.00131148
0.00132181
0.0013325
0.00134356
0.00135498
0.00136677
0.00137894
0.00139149
0.00140441
0.00141773
0.00143143
0.00144552
0.00146002
0.00147492
0.00149022
0.00150594
0.00152207
0.00153863
0.00155561
0.00157302
0.00159087
0.00160916
0.00162789
0.00164708
0.00166672
0.00168682
0.00170738
0.00172842
0.00174993
0.00114989
0.00120142
0.00114992
0.00117968
0.00117338
0.00117521
0.00117952
0.00118204
0.00118556
0.00118957
0.00119384
0.00119851
0.00120355
0.00120894
0.00121469
0.0012208
0.00122725
0.00123406
0.00124121
0.0012487
0.00125654
0.00126473
0.00127327
0.00128216
0.00129139
0.00130098
0.00131092
0.00132122
0.00133187
0.00134289
0.00135427
0.00136603
0.00137815
0.00139065
0.00140352
0.00141678
0.00143043
0.00144446
0.00145889
0.00147372
0.00148895
0.00150459
0.00152065
0.00153712
0.00155401
0.00157132
0.00158907
0.00160725
0.00162587
0.00164493
0.00166444
0.0016844
0.00170482
0.00172569
0.00174703
0.00114949
0.00120129
0.00114966
0.00117933
0.00117318
0.0011749
0.00117923
0.00118175
0.00118526
0.00118926
0.00119352
0.00119817
0.0012032
0.00120857
0.00121431
0.00122039
0.00122683
0.00123361
0.00124073
0.0012482
0.00125601
0.00126417
0.00127268
0.00128153
0.00129073
0.00130028
0.00131018
0.00132043
0.00133104
0.00134201
0.00135334
0.00136503
0.0013771
0.00138953
0.00140234
0.00141553
0.00142909
0.00144305
0.00145739
0.00147213
0.00148727
0.00150281
0.00151875
0.00153511
0.00155188
0.00156906
0.00158667
0.00160471
0.00162317
0.00164207
0.00166141
0.00168119
0.00170141
0.00172208
0.0017432
0.00114899
0.00120115
0.00114932
0.00117888
0.00117294
0.00117452
0.00117888
0.0011814
0.00118488
0.00118887
0.00119312
0.00119775
0.00120276
0.00120812
0.00121383
0.00121989
0.00122629
0.00123304
0.00124014
0.00124758
0.00125535
0.00126348
0.00127194
0.00128075
0.0012899
0.0012994
0.00130925
0.00131945
0.00133
0.00134091
0.00135217
0.00136379
0.00137578
0.00138814
0.00140086
0.00141396
0.00142744
0.00144129
0.00145553
0.00147016
0.00148517
0.00150058
0.00151639
0.00153261
0.00154923
0.00156625
0.00158369
0.00160155
0.00161983
0.00163853
0.00165765
0.00167721
0.00169719
0.0017176
0.00173845
0.00114845
0.00120088
0.00114904
0.00117826
0.00117268
0.00117406
0.00117846
0.00118098
0.00118443
0.00118841
0.00119264
0.00119725
0.00120223
0.00120756
0.00121325
0.00121928
0.00122565
0.00123237
0.00123943
0.00124683
0.00125456
0.00126264
0.00127106
0.00127981
0.00128891
0.00129836
0.00130814
0.00131827
0.00132876
0.00133959
0.00135077
0.00136231
0.00137421
0.00138647
0.0013991
0.00141209
0.00142545
0.00143919
0.0014533
0.00146779
0.00148267
0.00149793
0.00151358
0.00152962
0.00154606
0.0015629
0.00158014
0.00159779
0.00161584
0.0016343
0.00165317
0.00167246
0.00169217
0.00171228
0.0017328
0.00177507
0.0017981
0.00182212
0.00184718
0.00187334
0.00190063
0.00192934
0.0019593
0.00199063
0.00202345
0.00205788
0.00209402
0.00213202
0.00217201
0.00221416
0.00225862
0.00230558
0.00235522
0.00240775
0.0024634
0.00252241
0.00258507
0.00265167
0.00272255
0.0027981
0.00287873
0.00296493
0.0030572
0.00315614
0.00326242
0.00337676
0.00350001
0.00363308
0.00377701
0.00393297
0.00410221
0.00428614
0.00448624
0.00470402
0.00494088
0.00519787
0.0054753
0.00577204
0.00608475
0.00640746
0.00673181
0.00704729
0.00735466
0.0077296
0.00828481
0.00177407
0.00179709
0.0018211
0.00184615
0.00187238
0.00189983
0.00192837
0.00195829
0.00198962
0.00202244
0.00205687
0.00209302
0.00213103
0.00217103
0.00221317
0.00225763
0.00230458
0.0023542
0.0024067
0.00246231
0.00252127
0.00258386
0.00265037
0.00272116
0.00279658
0.00287705
0.00296304
0.00305506
0.00315369
0.00325957
0.00337342
0.00349604
0.0036283
0.00377121
0.00392583
0.00409336
0.00427505
0.00447222
0.00468614
0.0049179
0.00516813
0.00543657
0.00572133
0.00601808
0.00631959
0.00661611
0.00689627
0.00715987
0.00747781
0.00795547
0.00177207
0.00179509
0.00181912
0.00184421
0.00187037
0.00189772
0.0019263
0.00195621
0.00198755
0.0020204
0.00205485
0.00209102
0.00212904
0.00216905
0.0022112
0.00225564
0.00230256
0.00235215
0.00240459
0.00246012
0.00251898
0.00258144
0.0026478
0.00271838
0.00279355
0.00287371
0.00295931
0.00305085
0.00314887
0.00325398
0.00336685
0.00348823
0.00361892
0.0037598
0.00391182
0.00407597
0.00425326
0.00444465
0.00465095
0.00487261
0.0051094
0.00535988
0.00562061
0.00588524
0.00614396
0.0063842
0.00659314
0.00676894
0.00696817
0.00730563
0.0017691
0.00179211
0.00181611
0.00184115
0.00186731
0.00189465
0.00192323
0.00195315
0.00198449
0.00201734
0.00205181
0.00208799
0.00212603
0.00216604
0.00220818
0.00225261
0.00229948
0.002349
0.00240135
0.00245676
0.00251547
0.00257773
0.00264384
0.00271411
0.0027889
0.00286858
0.00295358
0.00304438
0.00314146
0.0032454
0.0033568
0.0034763
0.00360461
0.00374244
0.00389054
0.00404962
0.00422031
0.00440307
0.00459802
0.00480465
0.00502146
0.00524523
0.00547017
0.00568688
0.00588168
0.00603762
0.00613959
0.00618767
0.00622183
0.0063128
0.00176513
0.00178814
0.00181212
0.00183716
0.00186331
0.00189064
0.00191922
0.00194914
0.00198049
0.00201335
0.00204783
0.00208404
0.00212209
0.00216212
0.00220426
0.00224866
0.0022955
0.00234495
0.0023972
0.00245246
0.00251098
0.002573
0.00263881
0.00270869
0.00278299
0.00286207
0.00294631
0.00303614
0.00313201
0.00323442
0.00334387
0.00346089
0.00358603
0.0037198
0.00386266
0.00401495
0.00417679
0.00434796
0.00452762
0.00471401
0.00490388
0.0050917
0.00526857
0.00542106
0.00553058
0.00557445
0.00553346
0.00541172
0.00523935
0.00495275
0.00176022
0.00178323
0.00180722
0.00183226
0.00185841
0.00188575
0.00191435
0.0019443
0.00197568
0.00200861
0.00204318
0.00207949
0.00211766
0.0021578
0.00220006
0.00224456
0.00229148
0.00234099
0.00239329
0.00244857
0.00250707
0.00256905
0.00263475
0.00270449
0.00277857
0.00285732
0.00294111
0.00303032
0.00312535
0.00322661
0.00333453
0.00344951
0.00357191
0.00370201
0.00383994
0.00398556
0.00413835
0.00429709
0.00445957
0.00462201
0.00477831
0.00491896
0.00502981
0.00509096
0.00507634
0.00495563
0.00470387
0.0043268
0.00384943
0.0030557
0.00175436
0.0017773
0.00180123
0.00182622
0.00185231
0.00187959
0.00190812
0.00193802
0.00196936
0.00200226
0.00203681
0.00207313
0.0021113
0.00215146
0.00219371
0.0022382
0.00228509
0.00233454
0.00238675
0.00244192
0.00250029
0.00256209
0.00262758
0.00269704
0.00277076
0.00284907
0.00293229
0.00302076
0.00311483
0.00321485
0.00332114
0.00343398
0.00355357
0.00367994
0.00381289
0.0039518
0.0040954
0.00424142
0.00438596
0.00452266
0.00464153
0.0047274
0.00475841
0.0047052
0.00453163
0.00419758
0.00367264
0.00297147
0.00206947
0.000633119
-0.00308323
-0.00302542
-0.0028804
-0.00266141
-0.00238878
-0.00208355
-0.00176675
-0.0014577
-0.00117199
-0.000920213
-0.000707828
-0.000535823
-0.000401868
-0.000301545
-0.000229448
-0.00018002
-0.000148104
-0.000129235
-0.000119749
-0.000116761
-0.000118077
-0.000122076
-0.000127597
-0.000133832
-0.00014023
-0.000146433
-0.000152219
-0.000157461
-0.000162097
-0.000166105
-0.000169493
-0.000172287
-0.000174521
-0.000176236
-0.000177475
-0.000178279
-0.00017869
-0.000178746
-0.000178485
-0.000177941
-0.000177143
-0.000176121
-0.000174902
-0.000173508
-0.000171961
-0.000170281
-0.000168487
-0.000166593
-0.000164616
-0.000162569
-0.00323792
-0.00313638
-0.00296899
-0.00273953
-0.00246014
-0.00215057
-0.00183046
-0.0015181
-0.00122863
-0.000972565
-0.000755448
-0.000578482
-0.000439562
-0.000334465
-0.000257925
-0.000204472
-0.000168985
-0.000147003
-0.000134835
-0.000129558
-0.000128934
-0.000131297
-0.000135443
-0.000140521
-0.000145949
-0.000151337
-0.000156437
-0.000161101
-0.000165248
-0.00016884
-0.000171875
-0.000174366
-0.000176341
-0.000177832
-0.000178877
-0.000179512
-0.000179776
-0.000179704
-0.000179329
-0.000178684
-0.000177798
-0.000176697
-0.000175407
-0.00017395
-0.000172346
-0.000170616
-0.000168775
-0.000166841
-0.000164827
-0.000162746
-0.00354136
-0.00333574
-0.00313931
-0.00288913
-0.00259635
-0.00227863
-0.00195244
-0.00163409
-0.00133782
-0.00107388
-0.000847981
-0.0006617
-0.000513359
-0.000399123
-0.000314017
-0.000252755
-0.000210306
-0.000182223
-0.00016478
-0.000154988
-0.000150527
-0.000149647
-0.00015106
-0.000153841
-0.000157336
-0.0001611
-0.000164832
-0.000168342
-0.000171513
-0.000174277
-0.000176606
-0.000178494
-0.000179951
-0.000180997
-0.000181656
-0.000181956
-0.000181928
-0.000181599
-0.000180999
-0.000180155
-0.000179092
-0.000177835
-0.000176405
-0.000174823
-0.000173107
-0.000171276
-0.000169345
-0.000167329
-0.000165241
-0.000163096
-0.0039373
-0.00363128
-0.00338299
-0.00310138
-0.00278918
-0.00245938
-0.00212426
-0.0017975
-0.00149193
-0.0012173
-0.00097942
-0.000780323
-0.000618907
-0.000491879
-0.000394696
-0.000322357
-0.000269982
-0.000233166
-0.000208149
-0.000191857
-0.000181861
-0.000176295
-0.000173754
-0.000173205
-0.0001739
-0.000175306
-0.000177052
-0.000178885
-0.000180636
-0.000182195
-0.000183498
-0.000184509
-0.000185213
-0.000185609
-0.000185707
-0.000185519
-0.000185064
-0.000184363
-0.000183435
-0.000182301
-0.000180981
-0.000179495
-0.000177861
-0.000176096
-0.000174217
-0.000172239
-0.000170175
-0.00016804
-0.000165846
-0.000163604
-0.00442581
-0.00400728
-0.0036875
-0.00336127
-0.00302173
-0.00267533
-0.00232903
-0.00199293
-0.00167769
-0.00139198
-0.00114136
-0.000928176
-0.000751916
-0.000609942
-0.000498286
-0.000412385
-0.000347636
-0.000299768
-0.000265046
-0.000240344
-0.000223133
-0.00021142
-0.000203674
-0.000198731
-0.000195724
-0.000194012
-0.000193132
-0.000192749
-0.000192625
-0.000192595
-0.000192545
-0.0001924
-0.000192113
-0.000191656
-0.000191015
-0.000190187
-0.000189173
-0.000187981
-0.000186621
-0.000185107
-0.000183449
-0.000181663
-0.00017976
-0.000177756
-0.000175661
-0.000173489
-0.000171252
-0.00016896
-0.000166624
-0.000164255
-0.00483622
-0.00438284
-0.00399482
-0.00361999
-0.00325336
-0.0028939
-0.00254219
-0.0022038
-0.00188613
-0.00159578
-0.00133742
-0.00111342
-0.000923827
-0.000766849
-0.000639379
-0.000537616
-0.000457564
-0.00039538
-0.000347592
-0.000311202
-0.000283704
-0.000263058
-0.000247632
-0.00023614
-0.000227582
-0.000221182
-0.000216351
-0.000212641
-0.000209715
-0.000207319
-0.000205267
-0.000203423
-0.000201688
-0.000199992
-0.000198286
-0.000196538
-0.000194727
-0.000192841
-0.000190874
-0.000188826
-0.000186699
-0.000184496
-0.000182225
-0.000179892
-0.000177505
-0.000175071
-0.000172598
-0.000170096
-0.000167572
-0.000165036
-0.00513636
-0.0047963
-0.00438391
-0.00396115
-0.00356063
-0.00317925
-0.00281261
-0.00246309
-0.00213552
-0.00183459
-0.00156398
-0.00132579
-0.00112034
-0.000946398
-0.000801466
-0.000682316
-0.000585441
-0.000507382
-0.000444935
-0.000395264
-0.000355926
-0.00032487
-0.000300395
-0.000281114
-0.000265897
-0.00025384
-0.000244217
-0.000236457
-0.00023011
-0.000224823
-0.000220324
-0.000216405
-0.000212905
-0.000209703
-0.000206708
-0.000203852
-0.000201085
-0.000198372
-0.000195688
-0.000193015
-0.000190341
-0.00018766
-0.000184968
-0.000182263
-0.000179547
-0.000176822
-0.000174091
-0.000171359
-0.000168631
-0.000165915
-0.000160458
-0.000158277
-0.000156011
-0.00015367
-0.000151259
-0.000148786
-0.000146253
-0.000143663
-0.000141015
-0.000138312
-0.000135554
-0.000132745
-0.000129891
-0.000126997
-0.000124069
-0.000121115
-0.000118141
-0.000115153
-0.000112157
-0.000109158
-0.000106161
-0.00010317
-0.00010019
-9.72226e-05
-9.42728e-05
-9.13434e-05
-8.84376e-05
-8.55582e-05
-8.2708e-05
-7.98897e-05
-7.71059e-05
-7.43588e-05
-7.16508e-05
-6.8984e-05
-6.63603e-05
-6.37816e-05
-6.12497e-05
-5.87662e-05
-5.63326e-05
-5.39501e-05
-5.16201e-05
-4.93437e-05
-4.71219e-05
-4.49555e-05
-4.28452e-05
-4.0792e-05
-3.87958e-05
-3.68576e-05
-3.49774e-05
-3.31554e-05
-3.13918e-05
-2.96866e-05
-2.80395e-05
-2.64505e-05
-2.49191e-05
-2.3445e-05
-2.20277e-05
-2.06665e-05
-1.9361e-05
-1.81102e-05
-1.69133e-05
-1.57696e-05
-1.4678e-05
-1.36375e-05
-1.2647e-05
-1.17055e-05
-1.08116e-05
-9.96418e-06
-9.1619e-06
-8.40347e-06
-7.68752e-06
-7.01267e-06
-6.37749e-06
-5.78056e-06
-5.2204e-06
-4.69557e-06
-4.20454e-06
-3.74587e-06
-3.31804e-06
-2.91963e-06
-2.54898e-06
-2.20498e-06
-1.88562e-06
-1.59011e-06
-1.31636e-06
-1.0633e-06
-8.29584e-07
-6.13264e-07
-4.13775e-07
-2.28914e-07
-5.77591e-08
1.00938e-07
2.49328e-07
3.87605e-07
5.1866e-07
6.42235e-07
7.62349e-07
8.74765e-07
9.97886e-07
1.08329e-06
1.27754e-06
1.18473e-06
1.84013e-06
7.22007e-07
3.5961e-06
-1.75487e-06
8.50956e-06
-7.90549e-06
1.61576e-05
-1.23636e-05
1.41352e-05
2.49141e-06
-1.15071e-05
3.29366e-05
-3.05079e-05
-0.000160611
-0.000158409
-0.000156125
-0.000153767
-0.000151341
-0.000148854
-0.000146308
-0.000143705
-0.000141046
-0.000138332
-0.000135565
-0.000132749
-0.000129888
-0.000126989
-0.000124057
-0.0001211
-0.000118123
-0.000115134
-0.000112136
-0.000109136
-0.000106138
-0.000103146
-0.000100165
-9.71971e-05
-9.42469e-05
-9.13173e-05
-8.84114e-05
-8.5532e-05
-8.2682e-05
-7.98639e-05
-7.70804e-05
-7.43337e-05
-7.16261e-05
-6.89598e-05
-6.63366e-05
-6.37586e-05
-6.12273e-05
-5.87445e-05
-5.63115e-05
-5.39297e-05
-5.16005e-05
-4.93248e-05
-4.71037e-05
-4.49379e-05
-4.28284e-05
-4.07759e-05
-3.87805e-05
-3.68429e-05
-3.49634e-05
-3.31421e-05
-3.13792e-05
-2.96745e-05
-2.80281e-05
-2.64397e-05
-2.49089e-05
-2.34354e-05
-2.20186e-05
-2.0658e-05
-1.93529e-05
-1.81026e-05
-1.69062e-05
-1.5763e-05
-1.46718e-05
-1.36317e-05
-1.26416e-05
-1.17004e-05
-1.08069e-05
-9.95983e-06
-9.15786e-06
-8.39974e-06
-7.68406e-06
-7.00948e-06
-6.37455e-06
-5.77786e-06
-5.21792e-06
-4.6933e-06
-4.20246e-06
-3.74398e-06
-3.31631e-06
-2.91806e-06
-2.54756e-06
-2.20369e-06
-1.88446e-06
-1.58906e-06
-1.31543e-06
-1.06246e-06
-8.2884e-07
-6.12598e-07
-4.13193e-07
-2.28398e-07
-5.73164e-08
1.01327e-07
2.49655e-07
3.87877e-07
5.18894e-07
6.42402e-07
7.62495e-07
8.74857e-07
9.97937e-07
1.08333e-06
1.27746e-06
1.18485e-06
1.83972e-06
7.22481e-07
3.595e-06
-1.75371e-06
8.50796e-06
-7.90484e-06
1.61582e-05
-1.23667e-05
1.41396e-05
2.48759e-06
-1.15076e-05
3.29415e-05
-3.0521e-05
-0.000160911
-0.000158668
-0.000156347
-0.000153956
-0.000151501
-0.000148986
-0.000146414
-0.000143787
-0.000141106
-0.000138371
-0.000135586
-0.000132755
-0.000129881
-0.000126972
-0.000124032
-0.000121069
-0.000118088
-0.000115094
-0.000112093
-0.000109091
-0.000106091
-0.000103097
-0.000100114
-9.7146e-05
-9.41951e-05
-9.12651e-05
-8.83589e-05
-8.54796e-05
-8.26298e-05
-7.98122e-05
-7.70293e-05
-7.42834e-05
-7.15767e-05
-6.89114e-05
-6.62893e-05
-6.37125e-05
-6.11825e-05
-5.87009e-05
-5.62693e-05
-5.38889e-05
-5.15611e-05
-4.92868e-05
-4.70672e-05
-4.49029e-05
-4.27948e-05
-4.07437e-05
-3.87497e-05
-3.68135e-05
-3.49354e-05
-3.31155e-05
-3.13538e-05
-2.96505e-05
-2.80053e-05
-2.64181e-05
-2.48885e-05
-2.34161e-05
-2.20004e-05
-2.06409e-05
-1.93368e-05
-1.80875e-05
-1.68921e-05
-1.57497e-05
-1.46594e-05
-1.36201e-05
-1.26308e-05
-1.16904e-05
-1.07975e-05
-9.95112e-06
-9.14979e-06
-8.39227e-06
-7.67716e-06
-7.00311e-06
-6.36869e-06
-5.77246e-06
-5.21297e-06
-4.68875e-06
-4.19831e-06
-3.74018e-06
-3.31285e-06
-2.91492e-06
-2.54471e-06
-2.20112e-06
-1.88214e-06
-1.58696e-06
-1.31356e-06
-1.06078e-06
-8.2735e-07
-6.11269e-07
-4.12028e-07
-2.27371e-07
-5.64305e-08
1.02097e-07
2.50308e-07
3.88419e-07
5.19347e-07
6.42746e-07
7.62769e-07
8.75039e-07
9.98027e-07
1.08342e-06
1.27727e-06
1.18505e-06
1.83891e-06
7.23415e-07
3.5928e-06
-1.75139e-06
8.50473e-06
-7.90352e-06
1.61591e-05
-1.23728e-05
1.41481e-05
2.47995e-06
-1.15084e-05
3.29512e-05
-3.05467e-05
-0.000161344
-0.000159042
-0.00015667
-0.000154231
-0.000151732
-0.000149177
-0.000146566
-0.000143904
-0.00014119
-0.000138426
-0.000135615
-0.000132762
-0.00012987
-0.000126946
-0.000123995
-0.000121023
-0.000118034
-0.000115035
-0.000112029
-0.000109023
-0.00010602
-0.000103024
-0.000100039
-9.70691e-05
-9.41172e-05
-9.11866e-05
-8.82802e-05
-8.54009e-05
-8.25516e-05
-7.97346e-05
-7.69526e-05
-7.42079e-05
-7.15025e-05
-6.88387e-05
-6.62183e-05
-6.36433e-05
-6.11151e-05
-5.86356e-05
-5.6206e-05
-5.38277e-05
-5.1502e-05
-4.92299e-05
-4.70125e-05
-4.48503e-05
-4.27444e-05
-4.06954e-05
-3.87036e-05
-3.67695e-05
-3.48934e-05
-3.30755e-05
-3.13158e-05
-2.96144e-05
-2.79711e-05
-2.63857e-05
-2.48578e-05
-2.33872e-05
-2.19731e-05
-2.06152e-05
-1.93127e-05
-1.80648e-05
-1.68708e-05
-1.57297e-05
-1.46407e-05
-1.36027e-05
-1.26146e-05
-1.16753e-05
-1.07835e-05
-9.93807e-06
-9.13769e-06
-8.38107e-06
-7.66681e-06
-6.99356e-06
-6.35989e-06
-5.76436e-06
-5.20554e-06
-4.68194e-06
-4.19208e-06
-3.73449e-06
-3.30767e-06
-2.91022e-06
-2.54044e-06
-2.19726e-06
-1.87866e-06
-1.58382e-06
-1.31075e-06
-1.05826e-06
-8.25116e-07
-6.09281e-07
-4.10281e-07
-2.25834e-07
-5.51017e-08
1.03247e-07
2.51286e-07
3.89232e-07
5.20022e-07
6.43264e-07
7.63174e-07
8.75314e-07
9.98156e-07
1.08355e-06
1.277e-06
1.18535e-06
1.83771e-06
7.24798e-07
3.58952e-06
-1.74797e-06
8.49998e-06
-7.9017e-06
1.61608e-05
-1.23822e-05
1.41613e-05
2.46839e-06
-1.15097e-05
3.29659e-05
-3.05848e-05
-0.000161894
-0.00015952
-0.000157081
-0.000154581
-0.000152025
-0.000149417
-0.000146758
-0.000144049
-0.000141294
-0.000138493
-0.00013565
-0.000132768
-0.000129854
-0.000126911
-0.000123945
-0.00012096
-0.000117962
-0.000114955
-0.000111944
-0.000108932
-0.000105925
-0.000102926
-9.99384e-05
-9.69664e-05
-9.40131e-05
-9.10817e-05
-8.8175e-05
-8.52958e-05
-8.2447e-05
-7.9631e-05
-7.68503e-05
-7.41071e-05
-7.14036e-05
-6.87418e-05
-6.61236e-05
-6.35509e-05
-6.10254e-05
-5.85484e-05
-5.61216e-05
-5.37461e-05
-5.14233e-05
-4.9154e-05
-4.69395e-05
-4.47802e-05
-4.26772e-05
-4.06311e-05
-3.8642e-05
-3.67107e-05
-3.48374e-05
-3.30222e-05
-3.12652e-05
-2.95663e-05
-2.79255e-05
-2.63425e-05
-2.4817e-05
-2.33486e-05
-2.19368e-05
-2.0581e-05
-1.92805e-05
-1.80346e-05
-1.68424e-05
-1.57032e-05
-1.46159e-05
-1.35795e-05
-1.2593e-05
-1.16551e-05
-1.07647e-05
-9.92067e-06
-9.12156e-06
-8.36613e-06
-7.65301e-06
-6.98082e-06
-6.34817e-06
-5.75357e-06
-5.19564e-06
-4.67286e-06
-4.18378e-06
-3.72692e-06
-3.30077e-06
-2.90394e-06
-2.53476e-06
-2.19211e-06
-1.87403e-06
-1.57964e-06
-1.30701e-06
-1.0549e-06
-8.22139e-07
-6.06633e-07
-4.07954e-07
-2.23788e-07
-5.33305e-08
1.04777e-07
2.52587e-07
3.90314e-07
5.20917e-07
6.43956e-07
7.63708e-07
8.75682e-07
9.98324e-07
1.08372e-06
1.27664e-06
1.18573e-06
1.83612e-06
7.26583e-07
3.58526e-06
-1.74365e-06
8.49406e-06
-7.89996e-06
1.6164e-05
-1.23959e-05
1.41796e-05
2.45273e-06
-1.1512e-05
3.29871e-05
-3.06356e-05
-0.000162546
-0.000160085
-0.000157568
-0.000154994
-0.00015237
-0.000149698
-0.00014698
-0.000144217
-0.000141413
-0.000138568
-0.000135686
-0.000132772
-0.00012983
-0.000126865
-0.000123881
-0.000120882
-0.000117872
-0.000114856
-0.000111836
-0.000108818
-0.000105806
-0.000102803
-9.9812e-05
-9.68376e-05
-9.38827e-05
-9.09502e-05
-8.80431e-05
-8.51642e-05
-8.23161e-05
-7.95013e-05
-7.67222e-05
-7.3981e-05
-7.12797e-05
-6.86205e-05
-6.60052e-05
-6.34355e-05
-6.09131e-05
-5.84395e-05
-5.60161e-05
-5.36441e-05
-5.13248e-05
-4.90592e-05
-4.68482e-05
-4.46926e-05
-4.25932e-05
-4.05506e-05
-3.85652e-05
-3.66373e-05
-3.47675e-05
-3.29556e-05
-3.12019e-05
-2.95062e-05
-2.78685e-05
-2.62886e-05
-2.4766e-05
-2.33005e-05
-2.18914e-05
-2.05382e-05
-1.92403e-05
-1.79968e-05
-1.6807e-05
-1.567e-05
-1.45849e-05
-1.35505e-05
-1.25659e-05
-1.16299e-05
-1.07413e-05
-9.89894e-06
-9.10141e-06
-8.34748e-06
-7.63578e-06
-6.96492e-06
-6.33352e-06
-5.7401e-06
-5.18328e-06
-4.66152e-06
-4.17342e-06
-3.71745e-06
-3.29215e-06
-2.89611e-06
-2.52766e-06
-2.18568e-06
-1.86824e-06
-1.57442e-06
-1.30234e-06
-1.05072e-06
-8.18421e-07
-6.03329e-07
-4.05048e-07
-2.21235e-07
-5.11177e-08
1.06687e-07
2.54212e-07
3.91666e-07
5.22034e-07
6.44823e-07
7.64372e-07
8.76143e-07
9.98531e-07
1.08392e-06
1.27618e-06
1.1862e-06
1.83413e-06
7.28827e-07
3.57991e-06
-1.73821e-06
8.48659e-06
-7.89773e-06
1.6168e-05
-1.2413e-05
1.42026e-05
2.43313e-06
-1.15149e-05
3.30134e-05
-3.06956e-05
-0.000163279
-0.000160721
-0.000158115
-0.000155459
-0.000152756
-0.000150012
-0.000147227
-0.000144403
-0.000141542
-0.000138648
-0.000135723
-0.000132773
-0.0001298
-0.000126809
-0.000123804
-0.000120788
-0.000117764
-0.000114736
-0.000111707
-0.000108682
-0.000105663
-0.000102654
-9.96598e-05
-9.66825e-05
-9.37255e-05
-9.07919e-05
-8.78845e-05
-8.50059e-05
-8.21588e-05
-7.93454e-05
-7.65683e-05
-7.38294e-05
-7.1131e-05
-6.84749e-05
-6.5863e-05
-6.32969e-05
-6.07784e-05
-5.83087e-05
-5.58894e-05
-5.35217e-05
-5.12067e-05
-4.89454e-05
-4.67388e-05
-4.45875e-05
-4.24924e-05
-4.04542e-05
-3.8473e-05
-3.65493e-05
-3.46836e-05
-3.28757e-05
-3.1126e-05
-2.94342e-05
-2.78002e-05
-2.62239e-05
-2.47049e-05
-2.32427e-05
-2.18369e-05
-2.04869e-05
-1.9192e-05
-1.79515e-05
-1.67646e-05
-1.56303e-05
-1.45477e-05
-1.35158e-05
-1.25335e-05
-1.15998e-05
-1.07133e-05
-9.87287e-06
-9.07725e-06
-8.32512e-06
-7.61511e-06
-6.94584e-06
-6.31595e-06
-5.72394e-06
-5.16845e-06
-4.64792e-06
-4.16099e-06
-3.7061e-06
-3.28182e-06
-2.88672e-06
-2.51914e-06
-2.17798e-06
-1.86129e-06
-1.56816e-06
-1.29674e-06
-1.0457e-06
-8.13962e-07
-5.99369e-07
-4.01562e-07
-2.18176e-07
-4.84643e-08
1.08975e-07
2.56159e-07
3.93287e-07
5.2337e-07
6.45864e-07
7.65163e-07
8.76699e-07
9.9877e-07
1.08419e-06
1.27559e-06
1.18689e-06
1.83145e-06
7.3218e-07
3.5721e-06
-1.72905e-06
8.47313e-06
-7.88818e-06
1.61637e-05
-1.24239e-05
1.4223e-05
2.41049e-06
-1.15101e-05
3.30292e-05
-3.07445e-05
-0.000164104
-0.000161436
-0.000158725
-0.000155974
-0.000153184
-0.000150358
-0.000147498
-0.000144606
-0.000141685
-0.000138736
-0.000135765
-0.000132773
-0.000129765
-0.000126745
-0.000123715
-0.000120678
-0.000117636
-0.000114594
-0.000111553
-0.000108518
-0.000105491
-0.000102476
-9.94772e-05
-9.64964e-05
-9.35372e-05
-9.06023e-05
-8.76944e-05
-8.48163e-05
-8.19703e-05
-7.91588e-05
-7.63841e-05
-7.36482e-05
-7.09531e-05
-6.83008e-05
-6.5693e-05
-6.31313e-05
-6.06173e-05
-5.81525e-05
-5.57381e-05
-5.33755e-05
-5.10656e-05
-4.88094e-05
-4.66081e-05
-4.4462e-05
-4.23721e-05
-4.0339e-05
-3.83629e-05
-3.64442e-05
-3.45834e-05
-3.27804e-05
-3.10353e-05
-2.93481e-05
-2.77187e-05
-2.61467e-05
-2.46319e-05
-2.31738e-05
-2.17719e-05
-2.04257e-05
-1.91345e-05
-1.78975e-05
-1.67138e-05
-1.55828e-05
-1.45033e-05
-1.34743e-05
-1.24948e-05
-1.15637e-05
-1.06798e-05
-9.84176e-06
-9.0484e-06
-8.29841e-06
-7.59044e-06
-6.92307e-06
-6.29498e-06
-5.70465e-06
-5.15075e-06
-4.63169e-06
-4.14616e-06
-3.69255e-06
-3.26949e-06
-2.8755e-06
-2.50898e-06
-2.16878e-06
-1.853e-06
-1.56069e-06
-1.29005e-06
-1.03971e-06
-8.08638e-07
-5.94643e-07
-3.97401e-07
-2.14527e-07
-4.52965e-08
1.11706e-07
2.58481e-07
3.95223e-07
5.24963e-07
6.47109e-07
7.66104e-07
8.77367e-07
9.99043e-07
1.08453e-06
1.27481e-06
1.18791e-06
1.82776e-06
7.37279e-07
3.56045e-06
-1.71359e-06
8.44906e-06
-7.86435e-06
1.61419e-05
-1.24187e-05
1.42336e-05
2.38533e-06
-1.14889e-05
3.3018e-05
-3.07624e-05
-0.000165014
-0.00016222
-0.000159394
-0.000156536
-0.000153648
-0.000150731
-0.000147788
-0.000144821
-0.000141831
-0.000138823
-0.000135798
-0.000132761
-0.000129715
-0.000126661
-0.000123603
-0.000120542
-0.000117481
-0.000114423
-0.000111369
-0.000108322
-0.000105287
-0.000102265
-9.92606e-05
-9.6276e-05
-9.33142e-05
-9.03779e-05
-8.74698e-05
-8.45923e-05
-8.17479e-05
-7.89387e-05
-7.61669e-05
-7.34345e-05
-7.07435e-05
-6.80957e-05
-6.54927e-05
-6.29362e-05
-6.04277e-05
-5.79686e-05
-5.55601e-05
-5.32034e-05
-5.08996e-05
-4.86496e-05
-4.64543e-05
-4.43144e-05
-4.22306e-05
-4.02036e-05
-3.82334e-05
-3.63207e-05
-3.44656e-05
-3.26683e-05
-3.09288e-05
-2.9247e-05
-2.76228e-05
-2.60559e-05
-2.4546e-05
-2.30928e-05
-2.16955e-05
-2.03538e-05
-1.90668e-05
-1.78339e-05
-1.66543e-05
-1.5527e-05
-1.44511e-05
-1.34256e-05
-1.24494e-05
-1.15214e-05
-1.06404e-05
-9.8052e-06
-9.01451e-06
-8.26704e-06
-7.56144e-06
-6.89631e-06
-6.27034e-06
-5.68198e-06
-5.12995e-06
-4.61262e-06
-4.12873e-06
-3.67663e-06
-3.25499e-06
-2.86233e-06
-2.49704e-06
-2.15797e-06
-1.84326e-06
-1.55191e-06
-1.28219e-06
-1.03267e-06
-8.02382e-07
-5.89091e-07
-3.92512e-07
-2.1024e-07
-4.15737e-08
1.14913e-07
2.6121e-07
3.97497e-07
5.26834e-07
6.48572e-07
7.6721e-07
8.78143e-07
9.9939e-07
1.08485e-06
1.27408e-06
1.18862e-06
1.8245e-06
7.41017e-07
3.55108e-06
-1.70302e-06
8.43277e-06
-7.85297e-06
1.61359e-05
-1.2431e-05
1.42571e-05
2.35784e-06
-1.14811e-05
3.30327e-05
-3.08134e-05
-0.000165969
-0.000163043
-0.000160094
-0.000157122
-0.000154129
-0.000151116
-0.000148085
-0.000145038
-0.000141977
-0.000138905
-0.000135825
-0.000132739
-0.000129651
-0.000126562
-0.000123473
-0.000120387
-0.000117304
-0.000114227
-0.000111158
-0.000108099
-0.000105054
-0.000102024
-9.9014e-05
-9.60252e-05
-9.30607e-05
-9.0123e-05
-8.72148e-05
-8.43382e-05
-8.14956e-05
-7.86891e-05
-7.59207e-05
-7.31925e-05
-7.05062e-05
-6.78635e-05
-6.52661e-05
-6.27156e-05
-6.02133e-05
-5.77607e-05
-5.53588e-05
-5.30089e-05
-5.0712e-05
-4.84689e-05
-4.62806e-05
-4.41477e-05
-4.20708e-05
-4.00506e-05
-3.80872e-05
-3.61811e-05
-3.43326e-05
-3.25417e-05
-3.08085e-05
-2.91328e-05
-2.75145e-05
-2.59534e-05
-2.44492e-05
-2.30013e-05
-2.16093e-05
-2.02725e-05
-1.89904e-05
-1.77622e-05
-1.6587e-05
-1.54639e-05
-1.43921e-05
-1.33705e-05
-1.2398e-05
-1.14736e-05
-1.05959e-05
-9.76392e-06
-8.97624e-06
-8.23161e-06
-7.52871e-06
-6.86611e-06
-6.24252e-06
-5.65638e-06
-5.10647e-06
-4.59109e-06
-4.10905e-06
-3.65867e-06
-3.23863e-06
-2.84745e-06
-2.48355e-06
-2.14577e-06
-1.83226e-06
-1.542e-06
-1.27331e-06
-1.02472e-06
-7.95319e-07
-5.82825e-07
-3.86992e-07
-2.05402e-07
-3.7371e-08
1.18532e-07
2.6429e-07
4.00064e-07
5.28945e-07
6.50223e-07
7.68459e-07
8.79013e-07
9.99801e-07
1.08517e-06
1.2734e-06
1.1891e-06
1.82149e-06
7.43892e-07
3.54296e-06
-1.69512e-06
8.42021e-06
-7.84737e-06
1.61365e-05
-1.24502e-05
1.4285e-05
2.32967e-06
-1.14776e-05
3.30556e-05
-3.0875e-05
-0.000166955
-0.000163888
-0.00016081
-0.000157719
-0.000154617
-0.000151504
-0.000148382
-0.000145252
-0.000142118
-0.00013898
-0.000135842
-0.000132705
-0.000129573
-0.000126445
-0.000123323
-0.000120208
-0.000117102
-0.000114005
-0.000110919
-0.000107847
-0.000104791
-0.000101753
-9.87365e-05
-9.57433e-05
-9.2776e-05
-8.98371e-05
-8.69288e-05
-8.40535e-05
-8.12132e-05
-7.84098e-05
-7.56455e-05
-7.2922e-05
-7.0241e-05
-6.76042e-05
-6.50132e-05
-6.24694e-05
-5.99741e-05
-5.75287e-05
-5.51343e-05
-5.2792e-05
-5.05028e-05
-4.82675e-05
-4.6087e-05
-4.39618e-05
-4.18926e-05
-3.98801e-05
-3.79243e-05
-3.60257e-05
-3.41844e-05
-3.24007e-05
-3.06744e-05
-2.90056e-05
-2.73939e-05
-2.58393e-05
-2.43412e-05
-2.28994e-05
-2.15132e-05
-2.01821e-05
-1.89054e-05
-1.76823e-05
-1.65121e-05
-1.53938e-05
-1.43265e-05
-1.33092e-05
-1.23409e-05
-1.14203e-05
-1.05464e-05
-9.71795e-06
-8.93362e-06
-8.19216e-06
-7.49225e-06
-6.83246e-06
-6.21154e-06
-5.62788e-06
-5.08031e-06
-4.56712e-06
-4.08713e-06
-3.63865e-06
-3.22041e-06
-2.83089e-06
-2.46854e-06
-2.13218e-06
-1.82001e-06
-1.53096e-06
-1.26343e-06
-1.01588e-06
-7.87453e-07
-5.75847e-07
-3.80844e-07
-2.00016e-07
-3.26901e-08
1.22562e-07
2.67719e-07
4.02923e-07
5.31294e-07
6.52064e-07
7.69848e-07
8.79978e-07
1.00027e-06
1.08548e-06
1.2727e-06
1.1895e-06
1.81843e-06
7.46564e-07
3.53469e-06
-1.68727e-06
8.40683e-06
-7.84059e-06
1.61343e-05
-1.24664e-05
1.43099e-05
2.30182e-06
-1.14704e-05
3.30707e-05
-3.09259e-05
-0.000167955
-0.000164742
-0.00016153
-0.000158316
-0.000155102
-0.000151886
-0.000148671
-0.000145457
-0.000142247
-0.000139042
-0.000135844
-0.000132654
-0.000129475
-0.000126307
-0.00012315
-0.000120005
-0.000116873
-0.000113755
-0.000110651
-0.000107565
-0.000104497
-0.000101451
-9.84273e-05
-9.54295e-05
-9.24595e-05
-8.95195e-05
-8.66116e-05
-8.37378e-05
-8.09002e-05
-7.81007e-05
-7.53409e-05
-7.26228e-05
-6.99479e-05
-6.73177e-05
-6.47337e-05
-6.21974e-05
-5.971e-05
-5.72727e-05
-5.48866e-05
-5.25527e-05
-5.0272e-05
-4.80453e-05