/*--------------------------------*- C++ -*----------------------------------*\
| =========                 |                                                 |
| \\      /  F ield         | OpenFOAM: The Open Source CFD Toolbox           |
|  \\    /   O peration     | Version:  2412                                  |
|   \\  /    A nd           | Website:  www.openfoam.com                      |
|    \\/     M anipulation  |                                                 |
\*---------------------------------------------------------------------------*/
FoamFile
{
    version     2.0;
    format      ascii;
    arch        "LSB;label=32;scalar=64";
    class       surfaceScalarField;
    location    "4.5";
    object      phi;
}
// * * * * * * * * * * * * * * * * * * * * * * * * * * * * * * * * * * * * * //

dimensions      [0 3 -1 0 0 0 0];

oriented        oriented;

internalField   nonuniform List<scalar> 
126304
(
0.00505059
1.69517e-07
-2.80065e-10
0.00504544
5.15263e-06
-3.57293e-09
0.00503775
7.69864e-06
-7.13118e-09
0.00503029
7.46202e-06
-6.56912e-09
0.00502555
4.74551e-06
-3.08979e-09
0.0050232
2.35191e-06
9.23746e-10
0.00502215
1.04457e-06
3.9142e-09
0.00502149
6.54567e-07
5.62137e-09
0.00502071
7.73097e-07
6.41304e-09
0.00501964
1.05689e-06
6.65285e-09
0.0050183
1.34112e-06
6.59686e-09
0.00501672
1.57442e-06
6.4436e-09
0.00501496
1.75395e-06
6.2946e-09
0.00501306
1.89236e-06
6.18609e-09
0.00501105
2.00337e-06
6.1144e-09
0.00500894
2.09755e-06
6.07062e-09
0.00500676
2.18221e-06
6.02166e-09
0.00500449
2.26212e-06
5.9528e-09
0.00500214
2.34034e-06
5.86124e-09
0.00499972
2.41885e-06
5.761e-09
0.00499721
2.49891e-06
5.6565e-09
0.00499463
2.58136e-06
5.53258e-09
0.00499195
2.66674e-06
5.38296e-09
0.00498919
2.75539e-06
5.21548e-09
0.00498634
2.84754e-06
5.0392e-09
0.00498339
2.94333e-06
4.86395e-09
0.00498034
3.0429e-06
4.6825e-09
0.00497719
3.14635e-06
4.4918e-09
0.00497394
3.25375e-06
4.28256e-09
0.00497057
3.36519e-06
4.05844e-09
0.00496708
3.48074e-06
3.81707e-09
0.00496348
3.60047e-06
3.56724e-09
0.00495975
3.72447e-06
3.31167e-09
0.00495589
3.85285e-06
3.05651e-09
0.00495191
3.98572e-06
2.80228e-09
0.00494778
4.12322e-06
2.5466e-09
0.00494351
4.26552e-06
2.28675e-09
0.0049391
4.4128e-06
2.01749e-09
0.00493453
4.56529e-06
1.7383e-09
0.00492981
4.72323e-06
1.44813e-09
0.00492492
4.88693e-06
1.14958e-09
0.00491986
5.05674e-06
8.4585e-10
0.00491463
5.23306e-06
5.40272e-10
0.00490921
5.4164e-06
2.35355e-10
0.0049036
5.60737e-06
-6.93524e-11
0.0048978
5.80669e-06
-3.74862e-10
0.00489178
6.01525e-06
-6.82289e-10
0.00488555
6.23414e-06
-9.90605e-10
0.00487909
6.46467e-06
-1.29658e-09
0.00487238
6.70834e-06
-1.59368e-09
0.00486541
6.9667e-06
-1.87405e-09
0.00485817
7.24091e-06
-2.1301e-09
0.00485065
7.53104e-06
-2.35595e-09
0.00484281
7.83545e-06
-2.54725e-09
8.15166e-06
0.00483466
-2.70178e-09
0.0050506
3.29276e-07
0.00504555
1.02027e-05
0.00503801
1.52355e-05
0.00503065
1.48271e-05
0.00502591
9.47692e-06
0.00502351
4.75432e-06
0.00502239
2.16411e-06
0.00502167
1.38051e-06
0.00502084
1.60323e-06
0.00501974
2.15541e-06
0.00501837
2.71141e-06
0.00501677
3.16918e-06
0.005015
3.52237e-06
0.0050131
3.79539e-06
0.00501109
4.01497e-06
0.00500899
4.20176e-06
0.0050068
4.36998e-06
0.00500453
4.52901e-06
0.00500219
4.68484e-06
0.00499976
4.84135e-06
0.00499726
5.00104e-06
0.00499468
5.16553e-06
0.00499201
5.33588e-06
0.00498925
5.51276e-06
0.0049864
5.69663e-06
0.00498346
5.8878e-06
0.00498041
6.08651e-06
0.00497727
6.29294e-06
0.00497401
6.50725e-06
0.00497065
6.7296e-06
0.00496717
6.96012e-06
0.00496357
7.19898e-06
0.00495985
7.44636e-06
0.004956
7.70244e-06
0.00495202
7.96748e-06
0.0049479
8.24173e-06
0.00494364
8.52553e-06
0.00493923
8.81923e-06
0.00493467
9.12327e-06
0.00492996
9.43814e-06
0.00492508
9.76442e-06
0.00492004
1.01028e-05
0.00491482
1.04541e-05
0.00490941
1.08193e-05
0.00490382
1.11996e-05
0.00489803
1.15963e-05
0.00489203
1.20113e-05
0.00488582
1.24466e-05
0.00487938
1.29047e-05
0.0048727
1.33886e-05
0.00486577
1.39012e-05
0.00485856
1.44448e-05
0.00485108
1.50194e-05
0.00484329
1.56218e-05
1.62473e-05
0.00483519
0.00505062
4.67249e-07
0.00504577
1.50497e-05
0.00503854
2.24628e-05
0.00503136
2.20157e-05
0.00502664
1.41908e-05
0.00502414
7.25829e-06
0.00502288
3.42597e-06
0.00502202
2.23691e-06
0.00502109
2.53321e-06
0.00501992
3.32264e-06
0.00501851
4.1259e-06
0.00501689
4.79108e-06
0.0050151
5.3067e-06
0.00501319
5.70711e-06
0.00501117
6.03062e-06
0.00500907
6.30697e-06
0.00500688
6.55674e-06
0.00500462
6.79345e-06
0.00500228
7.02585e-06
0.00499986
7.25957e-06
0.00499736
7.49823e-06
0.00499478
7.7442e-06
0.00499212
7.999e-06
0.00498937
8.26362e-06
0.00498653
8.53873e-06
0.00498359
8.82478e-06
0.00498055
9.12211e-06
0.00497742
9.43099e-06
0.00497417
9.75165e-06
0.00497082
1.00843e-05
0.00496735
1.04291e-05
0.00496376
1.07864e-05
0.00496005
1.11564e-05
0.00495621
1.15394e-05
0.00495225
1.19357e-05
0.00494814
1.23457e-05
0.0049439
1.27699e-05
0.00493951
1.32089e-05
0.00493497
1.36631e-05
0.00493027
1.41335e-05
0.00492542
1.46207e-05
0.00492039
1.51259e-05
0.0049152
1.56501e-05
0.00490982
1.61948e-05
0.00490426
1.67617e-05
0.0048985
1.73528e-05
0.00489254
1.79706e-05
0.00488637
1.8618e-05
0.00487998
1.92985e-05
0.00487335
2.00165e-05
0.00486648
2.07758e-05
0.00485934
2.15798e-05
0.00485193
2.24284e-05
0.00484424
2.3317e-05
2.42382e-05
0.00483625
0.00505066
5.67633e-07
0.00504612
1.95834e-05
0.00503936
2.92305e-05
0.00503242
2.89499e-05
0.00502772
1.88879e-05
0.00502506
9.91798e-06
0.00502359
4.89989e-06
0.00502254
3.28532e-06
0.00502147
3.60897e-06
0.0050202
4.58959e-06
0.00501872
5.60424e-06
0.00501706
6.45198e-06
0.00501525
7.11375e-06
0.00501333
7.6311e-06
0.00501131
8.05182e-06
0.0050092
8.41335e-06
0.00500702
8.74169e-06
0.00500476
9.05403e-06
0.00500242
9.36148e-06
0.00500001
9.67122e-06
0.00499752
9.9879e-06
0.00499495
1.03145e-05
0.00499229
1.0653e-05
0.00498955
1.10046e-05
0.00498672
1.13702e-05
0.0049838
1.17504e-05
0.00498077
1.21456e-05
0.00497765
1.25562e-05
0.00497442
1.29823e-05
0.00497108
1.34244e-05
0.00496762
1.38826e-05
0.00496405
1.43572e-05
0.00496036
1.48487e-05
0.00495654
1.53573e-05
0.00495259
1.58835e-05
0.00494851
1.64278e-05
0.00494429
1.69908e-05
0.00493993
1.75732e-05
0.00493541
1.81758e-05
0.00493075
1.87995e-05
0.00492592
1.94453e-05
0.00492094
2.01145e-05
0.00491578
2.08087e-05
0.00491044
2.15295e-05
0.00490493
2.2279e-05
0.00489922
2.30599e-05
0.00489331
2.38752e-05
0.0048872
2.47284e-05
0.00488088
2.56241e-05
0.00487433
2.65671e-05
0.00486754
2.75626e-05
0.00486051
2.86142e-05
0.00485321
2.97218e-05
0.00484565
3.08794e-05
3.20777e-05
0.00483781
0.00505071
6.13564e-07
0.0050466
2.3692e-05
0.00504043
3.54044e-05
0.00503382
3.55627e-05
0.00502913
2.35755e-05
0.00502626
1.27858e-05
0.00502451
6.64937e-06
0.00502322
4.58023e-06
0.00502195
4.87033e-06
0.00502056
5.98278e-06
0.005019
7.16301e-06
0.00501729
8.16179e-06
0.00501546
8.94909e-06
0.00501352
9.57015e-06
0.00501149
1.00796e-05
0.00500938
1.05207e-05
0.0050072
1.09238e-05
0.00500495
1.13092e-05
0.00500262
1.16897e-05
0.00500022
1.2074e-05
0.00499774
1.24674e-05
0.00499518
1.28735e-05
0.00499253
1.32947e-05
0.00498981
1.37324e-05
0.00498699
1.41876e-05
0.00498408
1.46609e-05
0.00498107
1.5153e-05
0.00497796
1.56641e-05
0.00497475
1.61946e-05
0.00497143
1.67448e-05
0.004968
1.73151e-05
0.00496445
1.79057e-05
0.00496078
1.85171e-05
0.00495699
1.91497e-05
0.00495307
1.98041e-05
0.00494902
2.04808e-05
0.00494483
2.11805e-05
0.0049405
2.1904e-05
0.00493602
2.26523e-05
0.00493139
2.34264e-05
0.00492661
2.42276e-05
0.00492167
2.50574e-05
0.00491656
2.59175e-05
0.00491128
2.68099e-05
0.00490582
2.77371e-05
0.00490018
2.87019e-05
0.00489435
2.97078e-05
0.00488831
3.0759e-05
0.00488208
3.18603e-05
0.00487563
3.30173e-05
0.00486896
3.42355e-05
0.00486205
3.55188e-05
0.00485491
3.68667e-05
0.00484751
3.82716e-05
3.97218e-05
0.00483987
0.00505078
5.87473e-07
0.00504719
2.72856e-05
0.00504172
4.0871e-05
0.00503548
4.18085e-05
0.00503079
2.82613e-05
0.00502767
1.59051e-05
0.0050256
8.72482e-06
0.00502401
6.16384e-06
0.00502254
6.3478e-06
0.005021
7.52226e-06
0.00501934
8.81463e-06
0.00501758
9.92779e-06
0.00501571
1.08167e-05
0.00501375
1.15261e-05
0.00501172
1.21143e-05
0.00500961
1.26285e-05
0.00500743
1.3102e-05
0.00500519
1.35571e-05
0.00500287
1.40084e-05
0.00500048
1.44653e-05
0.00499801
1.4934e-05
0.00499547
1.54183e-05
0.00499284
1.59209e-05
0.00499013
1.64434e-05
0.00498733
1.6987e-05
0.00498444
1.75523e-05
0.00498145
1.814e-05
0.00497836
1.87503e-05
0.00497517
1.93838e-05
0.00497188
2.00407e-05
0.00496847
2.07214e-05
0.00496495
2.14263e-05
0.00496131
2.21558e-05
0.00495755
2.29104e-05
0.00495367
2.36906e-05
0.00494965
2.44972e-05
0.0049455
2.5331e-05
0.00494121
2.61927e-05
0.00493678
2.70836e-05
0.0049322
2.80047e-05
0.00492747
2.89574e-05
0.00492258
2.99434e-05
0.00491754
3.09647e-05
0.00491232
3.20233e-05
0.00490694
3.31219e-05
0.00490138
3.42636e-05
0.00489563
3.54522e-05
0.0048897
3.66918e-05
0.00488357
3.79878e-05
0.00487724
3.93458e-05
0.00487071
4.07713e-05
0.00486396
4.22681e-05
0.00485699
4.38349e-05
0.0048498
4.54624e-05
4.71352e-05
0.00484239
0.00505083
5.12253e-07
0.00504789
3.02258e-05
0.00504313
4.56323e-05
0.00503731
4.76264e-05
0.00503262
3.2957e-05
0.00502922
1.93036e-05
0.00502679
1.11536e-05
0.00502489
8.0613e-06
0.00502318
8.05934e-06
0.00502148
9.21979e-06
0.00501973
1.05665e-05
0.00501791
1.17543e-05
0.005016
1.27187e-05
0.00501403
1.34997e-05
0.00501199
1.41557e-05
0.00500988
1.47357e-05
0.00500771
1.52746e-05
0.00500547
1.5796e-05
0.00500316
1.63153e-05
0.00500078
1.68428e-05
0.00499833
1.73849e-05
0.00499581
1.79459e-05
0.0049932
1.85285e-05
0.00499051
1.91344e-05
0.00498773
1.9765e-05
0.00498486
2.04208e-05
0.0049819
2.11025e-05
0.00497884
2.18106e-05
0.00497568
2.25454e-05
0.00497241
2.33072e-05
0.00496904
2.40964e-05
0.00496555
2.49134e-05
0.00496195
2.57587e-05
0.00495822
2.66328e-05
0.00495438
2.75364e-05
0.0049504
2.847e-05
0.0049463
2.94347e-05
0.00494206
3.04313e-05
0.00493768
3.14609e-05
0.00493316
3.25248e-05
0.0049285
3.36246e-05
0.00492368
3.47618e-05
0.00491871
3.59386e-05
0.00491357
3.71571e-05
0.00490827
3.84201e-05
0.00490281
3.97307e-05
0.00489717
4.10927e-05
0.00489135
4.25104e-05
0.00488535
4.39888e-05
0.00487916
4.55335e-05
0.00487278
4.71497e-05
0.00486621
4.88405e-05
0.00485944
5.06038e-05
0.00485247
5.24274e-05
0.00484532
5.42885e-05
0.00483661
-1.94405e-06
-2.83461e-09
0.00483806
-1.44512e-06
-2.97555e-09
0.00483904
-9.76596e-07
-3.08533e-09
0.00483961
-5.67414e-07
-3.17198e-09
0.00483986
-2.45912e-07
-3.32204e-09
0.00483986
-8.81384e-10
-3.64637e-09
0.00483971
1.60374e-07
-3.18866e-09
0.00483943
2.83625e-07
-3.25796e-09
0.004839
4.32148e-07
-3.3621e-09
0.00483833
6.67472e-07
-3.42017e-09
0.00483729
1.04921e-06
-3.44195e-09
0.00483567
1.62234e-06
-3.43031e-09
0.00483326
2.41069e-06
-3.39813e-09
0.00482985
3.41799e-06
-3.34873e-09
0.00482522
4.63333e-06
-3.28943e-09
0.00481918
6.03818e-06
-3.22656e-09
0.00481157
7.61332e-06
-3.15689e-09
0.00480223
9.34422e-06
-3.09663e-09
0.00479101
1.12243e-05
-3.07057e-09
0.00477776
1.32561e-05
-3.07742e-09
0.00476231
1.54511e-05
-3.11017e-09
0.00474448
1.78293e-05
-3.15387e-09
0.00472407
2.0418e-05
-3.18586e-09
0.00470082
2.3252e-05
-3.18354e-09
0.00467445
2.6373e-05
-3.12969e-09
0.00464462
2.98301e-05
-3.01615e-09
0.00461094
3.36809e-05
-2.84452e-09
0.00457295
3.79932e-05
-2.62516e-09
0.00453011
4.28472e-05
-2.37483e-09
0.00448177
4.83387e-05
-2.11387e-09
0.00442719
5.4584e-05
-1.86292e-09
0.00436546
6.17254e-05
-1.63823e-09
0.00429553
6.99393e-05
-1.44975e-09
0.00421608
7.94461e-05
-1.30123e-09
0.00412556
9.05228e-05
-1.19004e-09
0.00402204
0.000103521
-1.10746e-09
0.00390316
0.000118884
-1.04158e-09
0.00376598
0.000137176
-9.8053e-10
0.0036069
0.000159088
-9.14243e-10
0.00342146
0.000185438
-8.38865e-10
0.00320436
0.000217099
-7.55017e-10
0.00294956
0.000254801
-6.68767e-10
0.00265085
0.000298716
-5.86897e-10
0.00230312
0.000347727
-5.08552e-10
0.00190483
0.000398293
-4.22279e-10
0.00146192
0.00044291
-3.14746e-10
0.000993573
0.000468344
-1.82266e-10
0.000539856
0.000453717
-5.85274e-11
0.00017197
0.000367886
-1.48415e-12
0.00017197
-2.16073e-11
0.00483579
-2.54218e-06
0.00483589
-1.54648e-06
0.00483552
-6.0844e-07
0.00483473
2.28396e-07
0.0048336
8.83391e-07
0.00483222
1.37959e-06
0.00483065
1.73193e-06
0.00482891
2.01857e-06
0.00482699
2.35259e-06
0.0048248
2.859e-06
0.0048222
3.65335e-06
0.004819
4.82152e-06
0.004815
6.40983e-06
0.00480999
8.42633e-06
0.00480377
1.08507e-05
0.00479616
1.36479e-05
0.00478699
1.6782e-05
0.00477611
2.02261e-05
0.00476337
2.39689e-05
0.00474861
2.80168e-05
0.00473166
3.23938e-05
0.00471235
3.71402e-05
0.00469046
4.2311e-05
0.00466574
4.79757e-05
0.00463789
5.42175e-05
0.00460659
6.11347e-05
0.00457143
6.88425e-05
0.00453194
7.74761e-05
0.00448759
8.71956e-05
0.00443774
9.81925e-05
0.00438163
0.000110699
0.00431835
0.000124998
0.00424685
0.000141442
0.00416583
0.000160468
0.00407372
0.000182627
0.00396863
0.000208614
0.00384821
0.000239308
0.00370957
0.000275817
0.00354915
0.000319503
0.00336262
0.000371963
0.00314484
0.000434883
0.00289
0.000509639
0.00259225
0.000596471
0.00224695
0.000693022
0.00185312
0.00079213
0.0014172
0.000878829
0.000958696
0.000926845
0.000517317
0.000895097
0.000161621
0.000723582
0.00033359
0.00483416
-4.58199e-07
0.00483158
1.03262e-06
0.00482853
2.44488e-06
0.00482506
3.70127e-06
0.00482121
4.73186e-06
0.00481706
5.52442e-06
0.00481267
6.12145e-06
0.00480806
6.63298e-06
0.00480319
7.21947e-06
0.00479799
8.06063e-06
0.00479232
9.32103e-06
0.00478602
1.11226e-05
0.0047789
1.35316e-05
0.00477077
1.65603e-05
0.00476144
2.01813e-05
0.00475074
2.43474e-05
0.00473851
2.90099e-05
0.0047246
3.41341e-05
0.00470886
3.97073e-05
0.00469114
4.57423e-05
0.00467125
5.22771e-05
0.00464902
5.93732e-05
0.00462422
6.71139e-05
0.00459659
7.56032e-05
0.00456584
8.49658e-05
0.00453163
9.53489e-05
0.00449354
0.000106925
0.00445112
0.000119896
0.00440382
0.000134503
0.00435098
0.000151032
0.00429185
0.000169828
0.00422553
0.000191317
0.00415095
0.000216021
0.00406683
0.000244589
0.00397162
0.000277838
0.00386344
0.000316793
0.00374
0.000362747
0.0035985
0.000417318
0.00343552
0.000482484
0.00324694
0.000560539
0.00302796
0.000653864
0.00277329
0.000764313
0.00247778
0.000891977
0.00213776
0.00103305
0.00175326
0.00117663
0.00133162
0.00130047
0.000892656
0.00136581
0.000475596
0.00131216
0.000145703
0.00105347
0.000479293
0.00483175
5.60498e-06
0.0048252
7.58183e-06
0.00481817
9.46962e-06
0.00481071
1.11694e-05
0.00480283
1.26028e-05
0.00479461
1.37482e-05
0.00478607
1.46617e-05
0.00477722
1.54819e-05
0.00476803
1.6409e-05
0.00475842
1.76675e-05
0.00474828
1.94621e-05
0.00473746
2.1945e-05
0.00472579
2.5199e-05
0.00471311
2.92412e-05
0.00469925
3.40408e-05
0.00468406
3.95428e-05
0.00466738
4.56925e-05
0.00464906
5.24521e-05
0.00462895
5.98123e-05
0.0046069
6.77953e-05
0.00458272
7.64555e-05
0.00455622
8.58766e-05
0.00452716
9.61705e-05
0.00449529
0.000107476
0.0044603
0.000119959
0.00442183
0.000133815
0.00437948
0.000149275
0.00433277
0.000166606
0.00428114
0.000186129
0.00422395
0.000208223
0.00416043
0.00023335
0.00408968
0.000262069
0.00401063
0.00029507
0.00392201
0.000333209
0.0038223
0.000377552
0.00370966
0.000429434
0.00358188
0.000490526
0.00343629
0.000562901
0.00326971
0.000649067
0.00307836
0.000751886
0.00285799
0.000874237
0.00260411
0.00101819
0.0023127
0.00118339
0.00198146
0.00136428
0.00161193
0.00154616
0.00121248
0.00169992
0.000802714
0.00177558
0.000419784
0.00169509
0.000123045
0.00135021
0.000602338
0.00482857
1.68993e-05
0.00481681
1.9349e-05
0.00480457
2.171e-05
0.00479187
2.38695e-05
0.00477873
2.57393e-05
0.00476518
2.72954e-05
0.00475124
2.86038e-05
0.0047369
2.98248e-05
0.00472212
3.11893e-05
0.00470683
3.2955e-05
0.00469094
3.53574e-05
0.00467431
3.85717e-05
0.00465681
4.26944e-05
0.00463831
4.77484e-05
0.00461864
5.37031e-05
0.00459768
6.05023e-05
0.00457529
6.8091e-05
0.0045513
7.64348e-05
0.00452558
8.55321e-05
0.00449796
9.54186e-05
0.00446825
0.000106167
0.00443624
0.000117884
0.0044017
0.000130711
0.00436435
0.000144823
0.00432389
0.000160425
0.00427994
0.000177762
0.0042321
0.00019712
0.00417987
0.000218836
0.00412269
0.000243306
0.00405991
0.000271006
0.00399075
0.000302506
0.00391432
0.0003385
0.00382955
0.000379839
0.00373519
0.000427572
0.00362974
0.000482998
0.00351145
0.000547728
0.00337821
0.000623762
0.00322757
0.000713545
0.00305665
0.000819984
0.00286222
0.000946313
0.00264083
0.00109563
0.00238915
0.00126987
0.00210474
0.0014678
0.00178721
0.00168181
0.00143997
0.0018934
0.00107246
0.00206743
0.000703166
0.00214487
0.000363636
0.00203462
0.000100608
0.00161324
0.000702946
0.00482467
3.46122e-05
0.00480651
3.75143e-05
0.00478788
4.03395e-05
0.00476878
4.29667e-05
0.00474922
4.53022e-05
0.00472919
4.73217e-05
0.0047087
4.90985e-05
0.00468772
5.08081e-05
0.0046662
5.27022e-05
0.0046441
5.50611e-05
0.00462131
5.8141e-05
0.00459775
6.21331e-05
0.0045733
6.71448e-05
0.00454784
7.32059e-05
0.00452126
8.02901e-05
0.00449341
8.83457e-05
0.00446418
9.73237e-05
0.00443342
0.000107199
0.00440097
0.000117982
0.00436666
0.000129726
0.0043303
0.000142524
0.00429168
0.000156508
0.00425054
0.000171849
0.0042066
0.000188756
0.00415955
0.000207477
0.00410901
0.000228305
0.00405455
0.000251582
0.00399567
0.000277712
0.00393181
0.00030717
0.00386229
0.000340523
0.00378635
0.000378451
0.00370307
0.00042178
0.00361139
0.000471513
0.00351009
0.000528879
0.0033977
0.000595383
0.00327256
0.00067287
0.00313273
0.00076359
0.00297604
0.000870235
0.00280012
0.000995904
0.00260254
0.00114389
0.0023811
0.00131707
0.0021343
0.00151668
0.00186211
0.00173999
0.00156703
0.00197689
0.00125519
0.00220524
0.000937393
0.00238523
0.000629862
0.0024524
0.00035263
0.00231185
0.000121679
0.00184419
0.000824626
0.00482009
5.98452e-05
0.00479443
6.31714e-05
0.00476833
6.64442e-05
0.00474175
6.95373e-05
0.0047147
7.23555e-05
0.00468715
7.48757e-05
0.00465907
7.71767e-05
0.00463043
7.94439e-05
0.00460119
8.19413e-05
0.00457129
8.49625e-05
0.00454066
8.87754e-05
0.00450921
9.35809e-05
0.00447686
9.94944e-05
0.00444351
0.000106553
0.00440907
0.000114737
0.00437341
0.000124004
0.00433641
0.000134318
0.00429795
0.000145667
0.00425785
0.000158079
0.00421595
0.000171626
0.00417205
0.000186424
0.00412593
0.000202632
0.00407733
0.000220451
0.00402596
0.000240125
0.00397149
0.000261944
0.00391355
0.000286249
0.00385169
0.00031344
0.00378541
0.000343985
0.00371415
0.000378439
0.00363721
0.000417459
0.00355382
0.000461836
0.00346308
0.000512521
0.00336393
0.000570663
0.00325515
0.00063766
0.00313533
0.000715201
0.00300288
0.000805322
0.00285603
0.000910444
0.00269289
0.00103337
0.00251163
0.00117716
0.00231073
0.0013448
0.00208945
0.00153835
0.00184859
0.00175754
0.0015914
0.00199718
0.00132464
0.00224365
0.00105936
0.00247051
0.000810708
0.00263388
0.000594545
0.00266856
0.000416918
0.00248948
0.000254857
0.00200625
0.00107948
-1.72907e-05
1.72906e-05
1.53922e-10
-1.00067e-05
-7.28485e-06
8.21508e-10
4.73444e-05
-5.73527e-05
1.6163e-09
0.000164401
-0.000117058
2.24249e-09
0.000340306
-0.000175908
2.58209e-09
0.000567458
-0.000227155
2.63638e-09
0.000834598
-0.000267143
2.48606e-09
0.00112905
-0.000294451
2.25117e-09
0.00143826
-0.000309219
2.05296e-09
0.00175091
-0.000312649
1.98631e-09
0.00205749
-0.000306583
2.09939e-09
0.00235065
-0.000293158
2.3908e-09
0.00262517
-0.00027453
2.81988e-09
0.00287785
-0.00025268
3.31647e-09
0.00310714
-0.000229298
3.80165e-09
0.00331286
-0.000205723
4.20323e-09
0.0034958
-0.000182943
4.4654e-09
0.00365741
-0.000161614
4.55403e-09
0.00379953
-0.000142122
4.45451e-09
0.00392416
-0.000124633
4.17145e-09
0.00403331
-0.000109155
3.70929e-09
0.0041289
-9.55914e-05
3.038e-09
0.00421268
-8.37834e-05
2.28087e-09
0.00428622
-7.35416e-05
1.74148e-09
0.00435089
-6.46697e-05
1.73601e-09
0.00440786
-5.69798e-05
2.28665e-09
0.00445816
-5.03009e-05
3.14058e-09
0.00450264
-4.44818e-05
4.16379e-09
0.00454203
-3.93929e-05
5.28713e-09
0.00457694
-3.49244e-05
6.43101e-09
0.00460792
-3.09842e-05
7.50442e-09
0.00463541
-2.74957e-05
8.42714e-09
0.00465979
-2.43951e-05
9.14555e-09
0.00468141
-2.1629e-05
9.63825e-09
0.00470056
-1.91533e-05
9.91384e-09
0.00471748
-1.69307e-05
1.00047e-08
0.0047324
-1.49301e-05
9.95491e-09
0.00474551
-1.31252e-05
9.81054e-09
0.004757
-1.14937e-05
9.61323e-09
0.004767
-1.00166e-05
9.39573e-09
0.00477567
-8.67805e-06
9.18159e-09
0.00478313
-7.46431e-06
8.9859e-09
0.00478948
-6.36401e-06
8.81631e-09
0.00479484
-5.36772e-06
8.67573e-09
0.0047993
-4.46785e-06
8.56495e-09
0.00480295
-3.65835e-06
8.48308e-09
0.00480588
-2.93426e-06
8.42858e-09
0.00480816
-2.29076e-06
8.40012e-09
0.00480987
-1.72145e-06
8.39642e-09
-1.21595e-06
0.00481108
8.41569e-09
-1.08602e-05
2.81508e-05
9.01056e-06
-2.71556e-05
7.8012e-05
-0.000126354
0.0002037
-0.000242747
0.000384074
-0.000356282
0.000611347
-0.000454427
0.000874806
-0.000530602
0.00116269
-0.000582335
0.00146349
-0.000610021
0.00176685
-0.000616009
0.0020641
-0.00060383
0.00234849
-0.000577547
0.00261522
-0.000541259
0.00286128
-0.000498741
0.0030852
-0.000453219
0.00328674
-0.000407267
0.00346659
-0.00036279
0.00362605
-0.000321071
0.00376679
-0.000282868
0.00389068
-0.000248523
0.0039996
-0.000218066
0.00409533
-0.000191326
0.00417955
-0.000168004
0.00425375
-0.000147741
0.00431924
-0.000130161
0.00437716
-0.000114902
0.00442849
-0.000101632
0.00447407
-9.00596e-05
0.00451461
-7.993e-05
0.00455071
-7.10289e-05
0.0045829
-6.31757e-05
0.00461163
-5.62195e-05
0.00463727
-5.00345e-05
0.00466015
-4.45154e-05
0.00468058
-3.95746e-05
0.00469878
-3.51384e-05
0.004715
-3.11448e-05
0.00472941
-2.75415e-05
0.0047422
-2.42842e-05
0.00475352
-2.13351e-05
0.00476351
-1.86622e-05
0.00477228
-1.62383e-05
0.00477996
-1.40405e-05
0.00478664
-1.20499e-05
0.00479242
-1.02512e-05
0.0047974
-8.63216e-06
0.00480165
-7.1826e-06
0.00480525
-5.89276e-06
0.00480828
-4.74981e-06
-3.73301e-06
0.00481079
3.85311e-06
2.42976e-05
4.29183e-05
-6.62208e-05
0.000132031
-0.000215467
0.00027239
-0.000383106
0.000459657
-0.000543549
0.000685965
-0.000680735
0.000941732
-0.000786369
0.00121692
-0.000857525
0.00150192
-0.000895015
0.00178811
-0.000902205
0.00206829
-0.000884007
0.00233677
-0.00084603
0.00258945
-0.000793933
0.00282365
-0.000732946
0.003038
-0.000667571
0.00323217
-0.00060143
0.0034066
-0.000537228
0.00356235
-0.000476821
0.00370081
-0.000421325
0.00382356
-0.000371268
0.00393223
-0.000326738
0.00402842
-0.00028752
0.00411364
-0.000253216
0.00418923
-0.000223332
0.00425641
-0.000197343
0.00431624
-0.000174736
0.00436965
-0.00015504
0.00441743
-0.000137836
0.00446025
-0.000122757
0.00449872
-0.000109492
0.00453332
-9.77791e-05
0.0045645
-8.73966e-05
0.00459262
-7.81598e-05
0.00461802
-6.99141e-05
0.00464098
-6.25297e-05
0.00466174
-5.58978e-05
0.00468052
-4.99264e-05
0.00469751
-4.45378e-05
0.0047129
-3.96659e-05
0.00472681
-3.52546e-05
0.00473941
-3.12558e-05
0.0047508
-2.76289e-05
0.0047611
-2.43393e-05
0.00477041
-2.13585e-05
0.00477882
-1.86633e-05
0.00478642
-1.62349e-05
0.0047933
-1.40576e-05
0.00479952
-1.21164e-05
0.00480516
-1.0392e-05
-8.85334e-06
0.00481028
1.95189e-05
4.77872e-06
8.44138e-05
-0.000131116
0.000197425
-0.000328478
0.000353723
-0.000539404
0.00054673
-0.000736556
0.000768882
-0.000902886
0.00101234
-0.00102983
0.00126944
-0.00111462
0.00153298
-0.00115855
0.00179653
-0.00116576
0.00205463
-0.00114211
0.00230285
-0.00109424
0.00253783
-0.00102892
0.00275729
-0.000952408
0.0029599
-0.000870175
0.00314514
-0.000786671
0.00331319
-0.000705276
0.00346472
-0.000628352
0.00360076
-0.000557364
0.00372254
-0.00049305
0.00383139
-0.000435592
0.00392866
-0.000384784
0.00401562
-0.000340175
0.00409346
-0.00030118
0.00416328
-0.000267162
0.00422604
-0.000237491
0.00428258
-0.000211582
0.00433365
-0.000188904
0.00437989
-0.000168996
0.00442186
-0.00015146
0.00446004
-0.000135959
0.00449485
-0.000122207
0.00452665
-0.000109964
0.00455577
-9.90296e-05
0.00458247
-8.92331e-05
0.004607
-8.0432e-05
0.00462958
-7.25056e-05
0.0046504
-6.53516e-05
0.00466961
-5.88827e-05
0.00468738
-5.30244e-05
0.00470384
-4.7713e-05
0.00471911
-4.28942e-05
0.00473329
-3.85221e-05
0.00474649
-3.45582e-05
0.0047588
-3.09708e-05
0.0047703
-2.77344e-05
0.00478107
-2.48275e-05
0.00479118
-2.22293e-05
0.0048007
-1.99137e-05
-1.78398e-05
0.00480969
3.55411e-05
-3.07623e-05
0.000127857
-0.000223431
0.000263112
-0.000463733
0.000431105
-0.000707397
0.000624151
-0.000929602
0.000836061
-0.0011148
0.0010615
-0.00125527
0.00129556
-0.00134868
0.00153366
-0.00139665
0.00177156
-0.00140366
0.00200545
-0.00137599
0.00223202
-0.00132082
0.00244857
-0.00124546
0.00265302
-0.00115686
0.00284399
-0.00106114
0.0030207
-0.000963383
0.00318295
-0.000867529
0.00333101
-0.000776406
0.00346548
-0.000691834
0.00358722
-0.000614791
0.00369723
-0.000545605
0.00379658
-0.000484131
0.00388632
-0.000429918
0.00396748
-0.00038234
0.00404101
-0.00034069
0.00410777
-0.000304252
0.00416854
-0.000272351
0.004224
-0.000244369
0.00427477
-0.000219761
0.00432136
-0.000198055
0.00436425
-0.000178846
0.00440383
-0.00016179
0.00444046
-0.000146595
0.00447445
-0.000133017
0.00450606
-0.000120847
0.00453554
-0.00010991
0.00456309
-0.000100059
0.00458891
-9.11654e-05
0.00461315
-8.31227e-05
0.00463596
-7.58381e-05
0.00465748
-6.92324e-05
0.00467782
-6.32377e-05
0.0046971
-5.77962e-05
0.0047154
-5.28596e-05
0.00473282
-4.83875e-05
0.00474943
-4.43468e-05
0.00476531
-4.07097e-05
0.00478053
-3.74493e-05
0.00479515
-3.45332e-05
-3.19103e-05
0.00480922
6.34954e-05
-9.42577e-05
0.000181321
-0.000341257
0.000328348
-0.00061076
0.00049512
-0.000874169
0.000675984
-0.00111047
0.00086748
-0.00130629
0.00106723
-0.00145502
0.0012731
-0.00155455
0.00148282
-0.00160637
0.00169392
-0.00161476
0.0019038
-0.00158588
0.00210988
-0.0015269
0.00230974
-0.00144532
0.00250127
-0.0013484
0.00268283
-0.0012427
0.00285324
-0.0011338
0.00301186
-0.00102615
0.00315848
-0.000923026
0.00329329
-0.000826635
0.00341674
-0.00073825
0.00352954
-0.000658401
0.00363248
-0.000587067
0.00372641
-0.000523855
0.00381221
-0.000468141
0.00389071
-0.000419189
0.00396269
-0.00037623
0.00402886
-0.000338522
0.00408987
-0.000305377
0.00414629
-0.00027618
0.00419863
-0.000250393
0.00424733
-0.000227549
0.00429279
-0.00020725
0.00433535
-0.000189157
0.00437532
-0.000172982
0.00441295
-0.00015848
0.00444849
-0.000145445
0.00448213
-0.000133702
0.00451406
-0.0001231
0.00454445
-0.000113512
0.00457344
-0.000104826
0.00460116
-9.69482e-05
0.00462772
-8.97973e-05
0.00465322
-8.33036e-05
0.00467777
-7.74083e-05
0.00470145
-7.20619e-05
0.00472432
-6.72236e-05
0.00474647
-6.28584e-05
0.00476796
-5.89331e-05
0.00478883
-5.54088e-05
-5.22264e-05
0.00480915
0.000103799
-0.000198057
0.000236263
-0.000473721
0.000376203
-0.0007507
0.000522899
-0.00102086
0.000676733
-0.0012643
0.000837927
-0.00146749
0.00100666
-0.00162375
0.00118268
-0.00173056
0.00136503
-0.00178872
0.00155209
-0.00180183
0.00174174
-0.00177552
0.00193151
-0.00171667
0.0021189
-0.00163271
0.00230152
-0.00153102
0.00247733
-0.0014185
0.0026447
-0.00130117
0.00280252
-0.00118397
0.00295016
-0.00107066
0.00308741
-0.000963883
0.00321442
-0.000865255
0.00333159
-0.000775578
0.00343954
-0.000695011
0.00353895
-0.000623264
0.00363057
-0.000559761
0.00371514
-0.000503767
0.0037934
-0.000454483
0.003866
-0.000411122
0.00393356
-0.000372936
0.00399663
-0.00033925
0.0040557
-0.000309465
0.00411121
-0.000283059
0.00416354
-0.000259582
0.00421303
-0.000238648
0.00425998
-0.000219928
0.00430464
-0.000203143
0.00434725
-0.000188054
0.00438801
-0.00017446
0.00442709
-0.000162187
0.00446467
-0.000151086
0.00450087
-0.00014103
0.00453583
-0.000131909
0.00456966
-0.000123628
0.00460247
-0.000116104
0.00463433
-0.000109269
0.00466533
-0.000103064
0.00469554
-9.74386e-05
0.00472504
-9.23515e-05
0.00475386
-8.77625e-05
0.00478208
-8.36267e-05
0.00480974
-7.98812e-05
0.00482232
-1.12499e-05
8.50334e-09
0.00483337
-1.10541e-05
8.73376e-09
0.00484419
-1.08327e-05
8.98466e-09
0.00485472
-1.05399e-05
9.2466e-09
0.00486484
-1.01248e-05
9.50359e-09
0.00487437
-9.54633e-06
9.73258e-09
0.00488315
-8.79074e-06
9.90418e-09
0.00489103
-7.88552e-06
9.98651e-09
0.00489792
-6.90093e-06
9.95108e-09
0.00490385
-5.93553e-06
9.77994e-09
0.00490893
-5.08985e-06
9.47236e-09
0.00491336
-4.43874e-06
9.0474e-09
0.00491736
-4.01366e-06
8.5394e-09
0.00492115
-3.80091e-06
7.98828e-09
0.0049249
-3.75379e-06
7.42997e-09
0.00492871
-3.8114e-06
6.88851e-09
0.00493262
-3.91599e-06
6.37316e-09
0.00493663
-4.02358e-06
5.88206e-09
0.00494073
-4.10727e-06
5.41074e-09
0.00494489
-4.15504e-06
4.95854e-09
0.00494905
-4.16523e-06
4.52925e-09
0.00495318
-4.14191e-06
4.12765e-09
0.00495727
-4.09139e-06
3.75526e-09
0.00496129
-4.02013e-06
3.40746e-09
0.00496522
-3.93379e-06
3.0751e-09
0.00496905
-3.8369e-06
2.75058e-09
0.00497278
-3.73292e-06
2.43251e-09
0.00497641
-3.62447e-06
2.12424e-09
0.00497992
-3.51345e-06
1.82804e-09
0.00498332
-3.40127e-06
1.54134e-09
0.0049866
-3.28895e-06
1.25868e-09
0.00498978
-3.17724e-06
9.75774e-10
0.00499285
-3.06671e-06
6.94392e-10
0.0049958
-2.95776e-06
4.25096e-10
0.00499865
-2.8507e-06
1.84237e-10
0.0050014
-2.74576e-06
-1.49075e-11
0.00500404
-2.64309e-06
-1.72112e-10
0.00500659
-2.54277e-06
-3.01125e-10
0.00500903
-2.44485e-06
-4.24593e-10
0.00501138
-2.34933e-06
-5.62094e-10
0.00501364
-2.25625e-06
-7.16634e-10
0.00501581
-2.16562e-06
-8.76606e-10
0.00501788
-2.07743e-06
-1.02804e-09
0.00501988
-1.99165e-06
-1.16948e-09
0.00502179
-1.90825e-06
-1.3263e-09
0.00502361
-1.82712e-06
-1.5217e-09
0.00502536
-1.7482e-06
-1.76518e-09
0.00502704
-1.6715e-06
-2.04885e-09
0.00502864
-1.59701e-06
-2.357e-09
0.00503017
-1.52469e-06
-2.6742e-09
0.00503162
-1.45451e-06
-2.98466e-09
0.00503301
-1.38648e-06
-3.25964e-09
0.00503434
-1.32056e-06
-3.48155e-09
0.0050356
-1.25672e-06
-3.66039e-09
0.0050368
-1.19491e-06
-3.78452e-09
0.00503793
-1.13507e-06
-3.86884e-09
0.00503902
-1.07714e-06
-3.93576e-09
0.00504004
-1.02108e-06
-4.03356e-09
0.00504101
-9.66835e-07
-4.17803e-09
0.00504193
-9.14389e-07
-4.3544e-09
0.0050428
-8.63743e-07
-4.53628e-09