/*--------------------------------*- C++ -*----------------------------------*\
| =========                 |                                                 |
| \\      /  F ield         | OpenFOAM: The Open Source CFD Toolbox           |
|  \\    /   O peration     | Version:  2412                                  |
|   \\  /    A nd           | Website:  www.openfoam.com                      |
|    \\/     M anipulation  |                                                 |
\*---------------------------------------------------------------------------*/
FoamFile
{
    version     2.0;
    format      ascii;
    arch        "LSB;label=32;scalar=64";
    class       volVectorField;
    location    "4.5";
    object      U;
}
// * * * * * * * * * * * * * * * * * * * * * * * * * * * * * * * * * * * * * //

dimensions      [0 1 -1 0 0 0 0];

internalField   nonuniform List<vector> 
63420
(
(0.100588 5.82035e-07 0)
(0.0995703 1.78829e-05 0)
(0.100014 2.72684e-05 0)
(0.0996061 2.69057e-05 0)
(0.099533 1.74062e-05 0)
(0.0994768 8.73893e-06 0)
(0.0994368 3.89853e-06 0)
(0.0994272 2.45858e-06 0)
(0.0994145 2.98951e-06 0)
(0.099396 4.21188e-06 0)
(0.0993721 5.4817e-06 0)
(0.0993428 6.58279e-06 0)
(0.0993095 7.49175e-06 0)
(0.0992732 8.25197e-06 0)
(0.0992344 8.9156e-06 0)
(0.0991936 9.52477e-06 0)
(0.0991511 1.01099e-05 0)
(0.099107 1.06918e-05 0)
(0.0990613 1.12847e-05 0)
(0.0990141 1.18984e-05 0)
(0.0989653 1.25397e-05 0)
(0.0989149 1.32143e-05 0)
(0.0988629 1.39262e-05 0)
(0.0988091 1.46789e-05 0)
(0.0987536 1.54752e-05 0)
(0.0986962 1.63176e-05 0)
(0.0986369 1.72091e-05 0)
(0.0985755 1.8152e-05 0)
(0.0985121 1.91493e-05 0)
(0.0984465 2.02035e-05 0)
(0.0983787 2.13176e-05 0)
(0.0983086 2.24943e-05 0)
(0.098236 2.3737e-05 0)
(0.098161 2.50488e-05 0)
(0.0980834 2.64334e-05 0)
(0.0980031 2.78949e-05 0)
(0.09792 2.94373e-05 0)
(0.0978341 3.10656e-05 0)
(0.0977452 3.27848e-05 0)
(0.0976533 3.46005e-05 0)
(0.0975582 3.65188e-05 0)
(0.0974598 3.85468e-05 0)
(0.0973579 4.06922e-05 0)
(0.0972526 4.2964e-05 0)
(0.0971435 4.53722e-05 0)
(0.0970306 4.7929e-05 0)
(0.0969136 5.06482e-05 0)
(0.0967924 5.35464e-05 0)
(0.0966668 5.6643e-05 0)
(0.0965365 5.99604e-05 0)
(0.0964013 6.3523e-05 0)
(0.0962608 6.7353e-05 0)
(0.0961147 7.1463e-05 0)
(0.0959627 7.585e-05 0)
(0.0958046 8.05013e-05 0)
(0.100588 1.71321e-06 0)
(0.099571 5.32601e-05 0)
(0.100017 8.11637e-05 0)
(0.0996129 8.02932e-05 0)
(0.0995403 5.21287e-05 0)
(0.0994838 2.64132e-05 0)
(0.0994424 1.20254e-05 0)
(0.0994313 7.71947e-06 0)
(0.0994175 9.27218e-06 0)
(0.0993981 1.28859e-05 0)
(0.0993736 1.6648e-05 0)
(0.0993441 1.9916e-05 0)
(0.0993105 2.26189e-05 0)
(0.099274 2.48842e-05 0)
(0.0992352 2.68657e-05 0)
(0.0991944 2.86878e-05 0)
(0.0991519 3.04397e-05 0)
(0.0991078 3.21829e-05 0)
(0.0990621 3.39594e-05 0)
(0.099015 3.57984e-05 0)
(0.0989662 3.77208e-05 0)
(0.0989159 3.97425e-05 0)
(0.0988639 4.18758e-05 0)
(0.0988102 4.41308e-05 0)
(0.0987548 4.65163e-05 0)
(0.0986974 4.90403e-05 0)
(0.0986382 5.17107e-05 0)
(0.0985769 5.45354e-05 0)
(0.0985136 5.75221e-05 0)
(0.0984481 6.0679e-05 0)
(0.0983804 6.40147e-05 0)
(0.0983104 6.75378e-05 0)
(0.0982379 7.12578e-05 0)
(0.098163 7.51849e-05 0)
(0.0980855 7.93299e-05 0)
(0.0980054 8.37045e-05 0)
(0.0979225 8.83214e-05 0)
(0.0978367 9.31947e-05 0)
(0.097748 9.83394e-05 0)
(0.0976562 0.000103772 0)
(0.0975613 0.000109512 0)
(0.0974631 0.000115579 0)
(0.0973615 0.000121996 0)
(0.0972564 0.00012879 0)
(0.0971476 0.000135992 0)
(0.097035 0.000143637 0)
(0.0969184 0.000151766 0)
(0.0967976 0.000160427 0)
(0.0966725 0.000169678 0)
(0.0965427 0.000179587 0)
(0.096408 0.000190223 0)
(0.0962681 0.000201653 0)
(0.0961228 0.000213914 0)
(0.0959717 0.000226998 0)
(0.0958145 0.000240866 0)
(0.100587 2.74801e-06 0)
(0.0995725 8.75944e-05 0)
(0.100024 0.000133433 0)
(0.0996265 0.000132707 0)
(0.0995551 8.67347e-05 0)
(0.0994976 4.46469e-05 0)
(0.0994535 2.09651e-05 0)
(0.0994395 1.37465e-05 0)
(0.0994233 1.61558e-05 0)
(0.0994023 2.19832e-05 0)
(0.0993768 2.80928e-05 0)
(0.0993465 3.34241e-05 0)
(0.0993126 3.78509e-05 0)
(0.0992759 4.15752e-05 0)
(0.0992369 4.48441e-05 0)
(0.0991961 4.78585e-05 0)
(0.0991536 5.07629e-05 0)
(0.0991095 5.36571e-05 0)
(0.0990639 5.66092e-05 0)
(0.0990168 5.96671e-05 0)
(0.0989682 6.28649e-05 0)
(0.0989179 6.62287e-05 0)
(0.0988661 6.97785e-05 0)
(0.0988125 7.35309e-05 0)
(0.0987572 7.75006e-05 0)
(0.0987 8.17008e-05 0)
(0.0986409 8.61447e-05 0)
(0.0985798 9.0845e-05 0)
(0.0985166 9.58147e-05 0)
(0.0984513 0.000101067 0)
(0.0983838 0.000106617 0)
(0.098314 0.000112478 0)
(0.0982418 0.000118666 0)
(0.0981671 0.000125198 0)
(0.0980899 0.000132092 0)
(0.09801 0.000139367 0)
(0.0979274 0.000147044 0)
(0.097842 0.000155146 0)
(0.0977536 0.000163699 0)
(0.0976622 0.000172729 0)
(0.0975677 0.000182267 0)
(0.09747 0.000192347 0)
(0.0973688 0.000203007 0)
(0.0972642 0.000214291 0)
(0.097156 0.000226247 0)
(0.097044 0.000238933 0)
(0.0969281 0.000252417 0)
(0.0968081 0.000266775 0)
(0.0966838 0.000282103 0)
(0.096555 0.000298505 0)
(0.0964214 0.000316097 0)
(0.0962828 0.000334982 0)
(0.0961389 0.000355223 0)
(0.0959895 0.000376802 0)
(0.0958342 0.000399659 0)
(0.100587 3.59082e-06 0)
(0.0995749 0.000120151 0)
(0.100036 0.000182978 0)
(0.0996471 0.00018356 0)
(0.0995771 0.000121199 0)
(0.0995182 6.384e-05 0)
(0.0994698 3.12616e-05 0)
(0.0994515 2.10359e-05 0)
(0.099432 2.40223e-05 0)
(0.0994086 3.17688e-05 0)
(0.0993815 3.99885e-05 0)
(0.0993503 4.72139e-05 0)
(0.0993157 5.3251e-05 0)
(0.0992787 5.83594e-05 0)
(0.0992396 6.28664e-05 0)
(0.0991987 6.70399e-05 0)
(0.0991562 7.10736e-05 0)
(0.0991122 7.51017e-05 0)
(0.0990667 7.92165e-05 0)
(0.0990197 8.34826e-05 0)
(0.0989712 8.79467e-05 0)
(0.0989211 9.2644e-05 0)
(0.0988694 9.76021e-05 0)
(0.0988161 0.000102844 0)
(0.0987609 0.000108389 0)
(0.098704 0.000114257 0)
(0.0986451 0.000120465 0)
(0.0985842 0.000127031 0)
(0.0985214 0.000133973 0)
(0.0984563 0.000141309 0)
(0.0983891 0.00014906 0)
(0.0983196 0.000157244 0)
(0.0982477 0.000165885 0)
(0.0981734 0.000175005 0)
(0.0980966 0.000184628 0)
(0.0980171 0.000194783 0)
(0.097935 0.000205497 0)
(0.09785 0.000216802 0)
(0.0977622 0.000228733 0)
(0.0976714 0.000241328 0)
(0.0975774 0.000254627 0)
(0.0974803 0.000268678 0)
(0.0973799 0.000283532 0)
(0.0972761 0.000299249 0)
(0.0971687 0.000315895 0)
(0.0970577 0.000333547 0)
(0.0969428 0.000352296 0)
(0.0968239 0.000372246 0)
(0.0967009 0.00039352 0)
(0.0965735 0.00041626 0)
(0.0964415 0.000440616 0)
(0.0963048 0.000466727 0)
(0.096163 0.00049467 0)
(0.096016 0.000524425 0)
(0.0958636 0.000555907 0)
(0.100586 4.09011e-06 0)
(0.0995784 0.000150253 0)
(0.100051 0.000228684 0)
(0.0996743 0.000232365 0)
(0.0996057 0.000155548 0)
(0.0995447 8.43987e-05 0)
(0.0994908 4.34372e-05 0)
(0.099467 3.00476e-05 0)
(0.0994432 3.32177e-05 0)
(0.0994168 4.24795e-05 0)
(0.0993877 5.24868e-05 0)
(0.0993552 6.13785e-05 0)
(0.09932 6.88732e-05 0)
(0.0992826 7.52653e-05 0)
(0.0992432 8.0944e-05 0)
(0.0992023 8.62318e-05 0)
(0.0991598 9.13635e-05 0)
(0.0991159 9.65026e-05 0)
(0.0990705 0.000101762 0)
(0.0990237 0.000107222 0)
(0.0989754 0.00011294 0)
(0.0989255 0.000118959 0)
(0.0988741 0.000125314 0)
(0.0988209 0.000132034 0)
(0.0987661 0.000139143 0)
(0.0987094 0.000146666 0)
(0.0986508 0.000154626 0)
(0.0985903 0.000163043 0)
(0.0985278 0.000171942 0)
(0.0984632 0.000181346 0)
(0.0983963 0.000191279 0)
(0.0983273 0.000201768 0)
(0.0982558 0.000212839 0)
(0.098182 0.000224522 0)
(0.0981057 0.000236849 0)
(0.0980268 0.000249853 0)
(0.0979452 0.000263572 0)
(0.0978609 0.000278043 0)
(0.0977738 0.000293312 0)
(0.0976837 0.000309425 0)
(0.0975906 0.000326434 0)
(0.0974943 0.000344397 0)
(0.0973949 0.000363379 0)
(0.0972921 0.000383452 0)
(0.0971858 0.000404699 0)
(0.097076 0.000427214 0)
(0.0969624 0.000451107 0)
(0.0968451 0.000476504 0)
(0.0967237 0.000503552 0)
(0.0965982 0.000532421 0)
(0.0964683 0.000563289 0)
(0.096334 0.000596316 0)
(0.0961949 0.000631595 0)
(0.0960511 0.000669095 0)
(0.0959022 0.00070871 0)
(0.100585 4.06491e-06 0)
(0.0995828 0.000177273 0)
(0.100069 0.000269589 0)
(0.099707 0.000278725 0)
(0.0996396 0.000189853 0)
(0.0995762 0.000106691 0)
(0.0995155 5.7943e-05 0)
(0.0994852 4.11691e-05 0)
(0.0994565 4.40275e-05 0)
(0.0994265 5.43078e-05 0)
(0.0993951 6.57098e-05 0)
(0.0993613 7.59914e-05 0)
(0.0993252 8.47591e-05 0)
(0.0992873 9.23135e-05 0)
(0.0992478 9.90835e-05 0)
(0.0992068 0.000105431 0)
(0.0991644 0.000111622 0)
(0.0991206 0.000117844 0)
(0.0990754 0.000124226 0)
(0.0990288 0.000130861 0)
(0.0989807 0.000137817 0)
(0.0989311 0.000145143 0)
(0.0988799 0.00015288 0)
(0.0988271 0.000161064 0)
(0.0987726 0.000169723 0)
(0.0987163 0.000178886 0)
(0.0986581 0.000188579 0)
(0.098598 0.000198831 0)
(0.0985359 0.000209667 0)
(0.0984718 0.000221117 0)
(0.0984054 0.00023321 0)
(0.0983369 0.000245977 0)
(0.098266 0.000259451 0)
(0.0981928 0.000273668 0)
(0.0981172 0.000288664 0)
(0.098039 0.00030448 0)
(0.0979581 0.00032116 0)
(0.0978746 0.000338752 0)
(0.0977883 0.000357306 0)
(0.0976992 0.000376879 0)
(0.0976071 0.000397532 0)
(0.0975119 0.000419334 0)
(0.0974136 0.000442359 0)
(0.0973121 0.000466692 0)
(0.0972072 0.00049243 0)
(0.0970989 0.00051968 0)
(0.096987 0.000548566 0)
(0.0968715 0.000579233 0)
(0.0967521 0.000611845 0)
(0.0966289 0.00064659 0)
(0.0965016 0.000683663 0)
(0.0963701 0.00072324 0)
(0.0962344 0.000765416 0)
(0.0960942 0.000810143 0)
(0.0959496 0.000857272 0)
(0.100585 3.65692e-06 0)
(0.0995876 0.000199962 0)
(0.100089 0.000305685 0)
(0.0997433 0.000322035 0)
(0.0996766 0.000224255 0)
(0.0996107 0.000131004 0)
(0.0995427 7.50773e-05 0)
(0.0995053 5.46761e-05 0)
(0.0994712 5.66503e-05 0)
(0.0994374 6.73851e-05 0)
(0.0994036 7.9741e-05 0)
(0.0993682 9.11024e-05 0)
(0.0993313 0.000100936 0)
(0.0992929 0.000109516 0)
(0.0992531 0.000117286 0)
(0.0992121 0.000124631 0)
(0.0991697 0.000131838 0)
(0.099126 0.000139109 0)
(0.0990811 0.000146588 0)
(0.0990347 0.000154377 0)
(0.0989869 0.000162551 0)
(0.0989377 0.000171166 0)
(0.0988869 0.000180269 0)
(0.0988344 0.000189898 0)
(0.0987803 0.000200089 0)
(0.0987244 0.000210872 0)
(0.0986667 0.00022228 0)
(0.0986072 0.000234344 0)
(0.0985456 0.000247094 0)
(0.098482 0.000260565 0)
(0.0984163 0.000274789 0)
(0.0983484 0.000289804 0)
(0.0982782 0.000305647 0)
(0.0982057 0.000322358 0)
(0.0981308 0.000339982 0)
(0.0980535 0.000358565 0)
(0.0979735 0.000378157 0)
(0.097891 0.000398812 0)
(0.0978057 0.000420589 0)
(0.0977177 0.000443552 0)
(0.0976268 0.000467771 0)
(0.0975329 0.000493322 0)
(0.097436 0.00052029 0)
(0.097336 0.00054877 0)
(0.0972327 0.000578867 0)
(0.0971262 0.000610701 0)
(0.0970163 0.000644406 0)
(0.0969029 0.000680138 0)
(0.0967859 0.000718073 0)
(0.0966653 0.000758407 0)
(0.0965409 0.000801343 0)
(0.0964127 0.000847062 0)
(0.0962807 0.000895649 0)
(0.0961448 0.000947025 0)
(0.0960049 0.00100094 0)
(0.0956396 8.54675e-05 -5.32704e-24)
(0.0954664 9.03392e-05 -5.42111e-24)
(0.0952844 9.48844e-05 -3.44002e-26)
(0.0950944 9.8801e-05 1.66211e-23)
(0.0948979 0.000101796 -5.50766e-24)
(0.0946968 0.000103789 -5.65556e-24)
(0.0944928 0.000105094 -1.73792e-23)
(0.094287 0.000106126 1.72633e-23)
(0.0940798 0.000107427 5.89549e-24)
(0.0938701 0.000109641 0)
(0.0936556 0.000113359 6.07579e-24)
(0.0934329 0.000119016 -6.17295e-24)
(0.0931982 0.000126839 5.06845e-23)
(0.0929473 0.00013686 -1.08561e-22)
(0.092676 0.000148967 5.79891e-23)
(0.0923808 0.00016297 4.68821e-23)
(0.0920582 0.00017867 6.01611e-23)
(0.0917055 0.000195917 -6.87892e-24)
(0.09132 0.000214641 7.02151e-24)
(0.090899 0.000234866 -7.1727e-24)
(0.0904399 0.000256704 0)
(0.0899396 0.000280354 7.50375e-24)
(0.0893947 0.000306091 -7.68518e-24)
(0.0888014 0.000334261 0)
(0.0881548 0.000365282 -8.0845e-24)
(0.0874496 0.000399647 0)
(0.0866793 0.000437932 -8.53991e-24)
(0.0858365 0.000480815 -1.42997e-22)
(0.0849123 0.000529098 1.51841e-22)
(0.0838965 0.000583738 -1.52331e-22)
(0.0827767 0.000645899 1.52099e-22)
(0.0815386 0.000717004 0)
(0.080165 0.000798815 0)
(0.0786351 0.000893535 1.86584e-22)
(0.076924 0.00100394 -1.75559e-22)
(0.0750013 0.00113353 0)
(0.0728297 0.00128676 0)
(0.0703632 0.00146924 0)
(0.0675446 0.00168791 0)
(0.0643038 0.00195092 0)
(0.0605552 0.00226698 0)
(0.0561981 0.00264334 0)
(0.0511215 0.00308165 0)
(0.0452186 0.00357062 0)
(0.0384182 0.00407465 -1.78404e-23)
(0.03074 0.00451845 -6.17176e-22)
(0.0223595 0.00477016 6.16251e-22)
(0.0137117 0.00462649 6.73611e-22)
(0.00591582 0.00378204 -6.726e-22)
(0.00121471 0.00177627 0)
(0.0956504 0.000255685 -5.38331e-24)
(0.0954781 0.000270254 -1.09608e-23)
(0.0952968 0.000283843 -5.72423e-24)
(0.0951074 0.000295588 5.36075e-24)
(0.0949112 0.000304911 -5.57806e-24)
(0.09471 0.00031151 3.9902e-23)
(0.0945053 0.000315947 -6.26625e-23)
(0.0942982 0.000319429 5.81036e-24)
(0.0940888 0.000323658 7.7402e-23)
(0.0938761 0.000330563 -1.0691e-22)
(0.0936581 0.000341905 -1.04158e-22)
(0.0934316 0.000358974 9.17801e-23)
(0.0931929 0.000382453 0)
(0.092938 0.000412441 6.38943e-24)
(0.0926632 0.000448606 -1.95053e-23)
(0.0923649 0.000490396 -2.2082e-22)
(0.0920399 0.000537239 2.11687e-22)
(0.0916852 0.000588706 -2.25031e-22)
(0.0912983 0.000644605 -2.10973e-23)
(0.0908765 0.000705018 7.18844e-24)
(0.0904171 0.000770293 0)
(0.089917 0.000841029 -7.52318e-24)
(0.0893729 0.000918052 -2.42136e-22)
(0.0887808 0.0010024 5.05808e-22)
(0.088136 0.00109533 2.7853e-22)
(0.0874332 0.0011983 -5.25673e-22)
(0.0866659 0.00131305 5.65415e-22)
(0.085827 0.0014416 -5.73733e-22)
(0.0849076 0.00158634 -9.09817e-24)
(0.0838976 0.00175015 0)
(0.0827852 0.00193649 0)
(0.0815563 0.00214963 0)
(0.0801941 0.00239481 0)
(0.0786787 0.0026786 -1.08115e-23)
(0.0769859 0.00300926 -7.34129e-22)
(0.0750868 0.00339723 -3.19273e-23)
(0.0729456 0.00385573 7.64066e-22)
(0.0705187 0.00440137 8.35082e-22)
(0.0677523 0.00505466 -8.33976e-22)
(0.0645801 0.00583967 -2.78227e-23)
(0.0609219 0.00678184 -2.91678e-23)
(0.0566827 0.00790204 -1.01203e-21)
(0.0517568 0.0092041 9.78599e-22)
(0.0460395 0.0106529 -3.36464e-23)
(0.0394535 0.012141 1.79652e-23)
(0.0319965 0.0134433 -1.2558e-21)
(0.0237988 0.0141671 1.25552e-21)
(0.0152152 0.0137095 -2.63439e-21)
(0.00720697 0.0111759 2.59031e-21)
(0.00174637 0.00521095 -2.65345e-21)
(0.095672 0.000424112 -3.1873e-23)
(0.0955012 0.000448315 -1.11378e-23)
(0.0953214 0.000471076 4.3081e-23)
(0.0951334 0.000491019 -8.84254e-23)
(0.0949382 0.000507194 1.891e-22)
(0.0947369 0.000519232 -8.95295e-23)
(0.094531 0.000527808 1.52627e-26)
(0.0943213 0.000534834 1.15908e-23)
(0.0941078 0.000543085 2.01731e-22)
(0.0938898 0.000555656 -1.89756e-22)
(0.0936653 0.000575372 0)
(0.0934318 0.000604316 1.48701e-26)
(0.0931858 0.000643597 0)
(0.092924 0.000693396 2.19398e-22)
(0.0926428 0.000753206 -1.93391e-22)
(0.092339 0.000822174 -4.15932e-22)
(0.0920094 0.000899427 2.26073e-23)
(0.0916514 0.000984328 -4.37458e-22)
(0.0912622 0.00107662 1.41176e-23)
(0.0908392 0.00117647 -4.67079e-22)
(0.0903796 0.0012845 4.81383e-22)
(0.0898804 0.00140171 -4.89619e-22)
(0.0893381 0.00152949 5.04625e-22)
(0.0887488 0.00166955 1.58652e-23)
(0.0881079 0.00182396 -1.62878e-23)
(0.0874101 0.00199518 1.67383e-23)
(0.0866493 0.00218606 -5.60085e-22)
(0.0858184 0.00239995 5.7732e-22)
(0.0849089 0.00264083 6.13835e-22)
(0.0839113 0.00291345 -5.94988e-22)
(0.082814 0.00322356 0)
(0.0816039 0.00357817 0)
(0.0802651 0.00398598 2.09167e-23)
(0.0787792 0.00445778 1.44209e-21)
(0.0771238 0.00500714 3.59327e-23)
(0.0752723 0.00565114 -1.45267e-21)
(0.0731927 0.00641136 0)
(0.070846 0.00731484 -2.54977e-23)
(0.0681848 0.0083947 1.78158e-21)
(0.0651512 0.00968953 -3.56283e-21)
(0.0616752 0.0112395 3.79109e-21)
(0.0576734 0.0130764 1.24382e-22)
(0.0530507 0.0152028 -1.9833e-21)
(0.0477059 0.0175561 -2.17218e-21)
(0.0415488 0.0199555 2.23865e-21)
(0.0345314 0.0220295 1.66427e-24)
(0.0266916 0.0231342 -3.85394e-23)
(0.0182264 0.0222823 2.54698e-21)
(0.00976709 0.0180524 -2.46631e-21)
(0.00276701 0.00833882 -2.46421e-21)
(0.095704 0.000589667 2.10121e-23)
(0.0955356 0.000623378 -1.06499e-23)
(0.0953582 0.000655393 2.07619e-26)
(0.0951723 0.000683923 1.09338e-23)
(0.0949785 0.000707507 -2.09593e-26)
(0.0947776 0.000725788 1.81128e-22)
(0.0945704 0.000739767 -3.42067e-22)
(0.0943576 0.000751931 1.83735e-22)
(0.0941391 0.000765893 -1.17432e-23)
(0.0939143 0.000785699 2.16651e-22)
(0.0936817 0.000815045 -1.92696e-22)
(0.0934391 0.000856667 -3.98956e-22)
(0.093184 0.000912043 8.05068e-22)
(0.0929133 0.000981449 -8.1997e-22)
(0.0926242 0.00106428 8.35626e-22)
(0.0923136 0.00115948 -8.38857e-22)
(0.0919787 0.001266 -4.43839e-22)
(0.0916168 0.0013831 2.12962e-26)
(0.0912253 0.00151053 0)
(0.0908015 0.00164863 -4.54986e-22)
(0.0903425 0.00179829 4.69285e-22)
(0.0898453 0.00196095 0)
(0.0893065 0.00213854 -1.01075e-21)
(0.0887222 0.00233345 9.94369e-22)
(0.0880879 0.00254857 1.64428e-23)
(0.0873986 0.00278728 -3.43784e-26)
(0.0866484 0.00305354 1.73654e-23)
(0.0858304 0.00335203 0)
(0.0849369 0.00368826 -4.97388e-26)
(0.0839587 0.0040688 0)
(0.0828854 0.00450162 -1.96942e-23)
(0.0817048 0.00499643 1.33152e-21)
(0.0804027 0.00556519 -1.33114e-21)
(0.0789625 0.00622274 -2.20265e-23)
(0.0773649 0.00698764 4.56537e-23)
(0.075587 0.00788318 -1.57671e-21)
(0.0736018 0.0089386 1.52769e-21)
(0.0713776 0.0101903 2.59386e-23)
(0.0688766 0.0116826 -3.63264e-25)
(0.0660535 0.0134662 2.78821e-23)
(0.0628538 0.0155929 -1.92437e-21)
(0.0592116 0.0181008 3.90043e-21)
(0.0550467 0.020986 -2.03849e-21)
(0.0502631 0.0241541 2.13366e-21)
(0.0447501 0.0273491 -2.2339e-21)
(0.0383891 0.0300617 -4.48682e-21)
(0.0310724 0.0314196 9.1668e-21)
(0.0227616 0.0300783 -4.64736e-21)
(0.0136449 0.0241426 0)
(0.00428049 0.0110188 -4.36046e-21)
(0.0957461 0.000751295 -1.04227e-23)
(0.0955807 0.000794246 -4.25116e-23)
(0.0954065 0.000835397 1.28775e-22)
(0.0952235 0.000872666 -1.73724e-22)
(0.0950319 0.000904397 7.64783e-23)
(0.0948321 0.000930149 1.11939e-23)
(0.0946242 0.000951135 -1.1368e-23)
(0.0944087 0.000970306 -2.62285e-26)
(0.0941853 0.000991927 1.1741e-23)
(0.0939536 0.00102076 -2.38559e-23)
(0.0937126 0.00106117 -3.91877e-22)
(0.0934608 0.00111638 4.04424e-22)
(0.0931962 0.00118817 -3.94114e-22)
(0.0929165 0.00127691 4.06851e-22)
(0.0926194 0.00138198 0)
(0.0923022 0.00150227 -2.39134e-26)
(0.0919623 0.00163667 0)
(0.0915973 0.00178445 -4.37226e-22)
(0.0912045 0.00194547 4.65637e-22)
(0.0907812 0.00212029 -1.46094e-23)
(0.0903245 0.00231014 -9.83698e-22)
(0.0898316 0.00251688 9.69173e-22)
(0.0892988 0.00274299 -1.5742e-23)
(0.0887226 0.00299152 0)
(0.0880986 0.00326613 0)
(0.087422 0.0035711 -1.12638e-21)
(0.0866874 0.00391148 1.09217e-21)
(0.0858884 0.0042932 0)
(0.085018 0.00472323 -3.74426e-23)
(0.084068 0.00520992 0)
(0.0830289 0.00576333 2.00398e-23)
(0.0818903 0.0063957 -2.06762e-23)
(0.08064 0.00712204 -2.15242e-23)
(0.0792642 0.00796091 2.2226e-23)
(0.0777471 0.00893538 1.46427e-21)
(0.0760711 0.0100742 -1.51126e-21)
(0.0742162 0.0114132 3.29746e-21)
(0.0721601 0.0129967 -3.29969e-21)
(0.0698777 0.0148777 3.52329e-21)
(0.0673407 0.0171161 1.16051e-22)
(0.0645154 0.019771 -3.72772e-21)
(0.0613588 0.0228817 -3.00756e-23)
(0.0578109 0.0264327 1.33119e-24)
(0.0537824 0.0302943 1.80365e-24)
(0.0491363 0.0341389 2.44033e-24)
(0.0436638 0.0373362 -6.65917e-23)
(0.0370619 0.038826 -3.07653e-23)
(0.0289646 0.0369615 -2.92465e-23)
(0.0189909 0.0294003 0)
(0.00630899 0.0132353 8.99894e-24)
(0.0957976 0.000908046 -5.17223e-23)
(0.0956358 0.000959914 3.11122e-23)
(0.0954654 0.00101015 1.06247e-23)
(0.0952863 0.00105647 1.62832e-22)
(0.095098 0.00109711 -1.62906e-22)
(0.0949002 0.00113161 1.68134e-22)
(0.0946929 0.00116132 -3.7302e-22)
(0.0944759 0.00118955 5.30339e-22)
(0.094249 0.00122099 -3.71341e-22)
(0.0940119 0.00126092 -3.84337e-22)
(0.0937639 0.00131414 -1.88456e-23)
(0.0935042 0.0013842 7.79154e-22)
(0.0932315 0.00147311 -8.19808e-22)
(0.0929444 0.00158136 3.8218e-22)
(0.0926407 0.00170839 4.11536e-22)
(0.0923186 0.00185315 4.29327e-22)
(0.0919755 0.00201459 -3.21834e-23)
(0.0916093 0.00219215 8.75029e-22)
(0.0912173 0.00238589 9.01842e-22)
(0.0907969 0.00259668 2.19015e-23)
(0.0903454 0.00282612 -9.55233e-22)
(0.0898597 0.00307655 0)
(0.0893366 0.00335099 0)
(0.0887725 0.00365316 -1.06156e-21)
(0.0881636 0.00398749 1.04631e-21)
(0.0875053 0.00435919 1.12593e-21)
(0.0867927 0.00477435 -1.1276e-21)
(0.0860203 0.00524014 0)
(0.0851819 0.00576502 1.25799e-21)
(0.0842704 0.00635905 -1.26042e-21)
(0.083278 0.00703434 0)
(0.0821962 0.00780555 -2.7301e-21)
(0.0810154 0.00869057 2.75537e-21)
(0.0797253 0.00971133 -2.27867e-23)
(0.0783148 0.0108948 -3.05645e-21)
(0.0767727 0.0122743 3.08477e-21)
(0.0750875 0.0138906 0)
(0.0732487 0.015793 3.48898e-21)
(0.0712472 0.0180391 -3.46755e-21)
(0.0690757 0.0206914 2.83239e-23)
(0.0667266 0.0238069 3.88186e-21)
(0.0641863 0.0274144 -7.81452e-21)
(0.0614214 0.0314735 -6.04909e-24)
(0.0583543 0.0358088 1.41863e-23)
(0.0548238 0.0400207 4.12685e-21)
(0.0505256 0.0433803 4.33746e-24)
(0.0449388 0.0447026 -3.58846e-21)
(0.0372799 0.0421599 3.6786e-21)
(0.0263244 0.0331558 0)
(0.00914333 0.0146567 3.24478e-23)
(0.0958576 0.00105901 1.01926e-23)
(0.0957 0.00111916 9.37664e-23)
(0.0955343 0.00117809 -8.36164e-23)
(0.0953599 0.00123342 1.07139e-23)
(0.095176 0.00128334 1.6443e-22)
(0.0949819 0.00132741 -1.64704e-22)
(0.0947769 0.0013671 -3.52014e-22)
(0.0945606 0.00140594 5.69035e-24)
(0.0943326 0.00144889 -6.10027e-24)
(0.0940927 0.00150151 3.90044e-22)
(0.0938406 0.00156885 -3.80132e-22)
(0.0935761 0.00165468 8.06196e-22)
(0.0932986 0.00176115 -4.01494e-22)
(0.0930069 0.00188888 1.29542e-23)
(0.0926998 0.00203744 1.32424e-23)
(0.0923757 0.00220594 8.74764e-22)
(0.0920326 0.00239357 -4.81458e-24)
(0.0916683 0.00259999 9.12191e-22)
(0.0912805 0.00282563 1.45551e-23)
(0.0908667 0.00307173 0)
(0.0904242 0.00334033 0)
(0.0899503 0.00363431 -1.01912e-21)
(0.0894418 0.00395731 1.02169e-21)
(0.0888957 0.00431373 0)
(0.0883083 0.00470885 1.71557e-23)
(0.0876759 0.00514883 0)
(0.0869941 0.00564092 -1.18377e-21)
(0.0862585 0.0061936 2.40981e-21)
(0.0854638 0.00681692 -1.22613e-21)
(0.0846048 0.00752278 -2.59856e-21)
(0.0836756 0.00832549 -8.80158e-23)
(0.08267 0.00924228 -9.35835e-23)
(0.0815818 0.010294 -9.927e-23)
(0.0804049 0.0115061 2.9265e-21)
(0.0791337 0.0129094 3.14893e-21)
(0.0777641 0.014541 -3.15643e-21)
(0.0762945 0.0164455 0)
(0.0747271 0.0186745 3.52364e-21)
(0.07307 0.0212851 -3.53181e-21)
(0.0713376 0.0243327 -3.78948e-21)
(0.0695503 0.0278568 3.76871e-21)
(0.0677261 0.0318521 3.10404e-23)
(0.0658634 0.0362209 3.87762e-21)
(0.0639061 0.0407047 -9.39171e-23)
(0.0616878 0.0447986 -3.86336e-21)
(0.0588443 0.0476709 2.96417e-23)
(0.0546975 0.048093 0)
(0.0481375 0.044312 -2.3644e-23)
(0.0369036 0.0339973 -1.13155e-21)
(0.0147133 0.0145344 5.18861e-22)
(-0.000226722 0.000186912 0)
(-0.000422258 -5.13074e-05 2.63334e-22)
(0.000122393 -0.000566956 -2.63729e-22)
(0.00170787 -0.00118197 -2.25857e-22)
(0.00440322 -0.00178903 2.26196e-22)
(0.00811966 -0.00231846 -5.93594e-24)
(0.0126785 -0.00273215 0)
(0.0178593 -0.00301526 0)
(0.0234322 -0.00316932 0)
(0.0291804 -0.00320698 0)
(0.0349145 -0.00314751 0)
(0.0404813 -0.00301311 0)
(0.0457662 -0.00282605 0)
(0.0506923 -0.00260666 0)
(0.0552159 -0.00237215 0)
(0.0593206 -0.00213609 7.47148e-24)
(0.0630113 -0.0019084 -7.03078e-24)
(0.0663078 -0.00169563 0)
(0.0692393 -0.00150157 0)
(0.0718401 -0.00132778 -5.38021e-24)
(0.0741461 -0.00117429 5.38843e-24)
(0.0761922 -0.00104004 -5.37366e-24)
(0.0780114 -0.000923384 3.78412e-25)
(0.0796332 -0.000822389 0)
(0.0810839 -0.000735062 4.12948e-25)
(0.0823862 -0.000659501 0)
(0.0835598 -0.000593979 0)
(0.0846212 -0.000536976 0)
(0.0855847 -0.000487195 4.7524e-25)
(0.0864624 -0.000443537 0)
(0.0872644 -0.000405085 -4.97123e-25)
(0.0879995 -0.000371075 5.05596e-25)
(0.0886753 -0.000340874 -5.12523e-25)
(0.0892982 -0.000313956 4.65784e-24)
(0.0898738 -0.000289881 -4.66839e-24)
(0.090407 -0.000268284 -3.66583e-24)
(0.090902 -0.000248858 7.8734e-24)
(0.0913627 -0.000231345 -4.20941e-24)
(0.0917922 -0.000215527 -5.27552e-25)
(0.0921937 -0.000201218 5.26614e-25)
(0.0925697 -0.000188263 0)
(0.0929225 -0.000176528 5.22616e-25)
(0.0932544 -0.000165902 -2.58725e-24)
(0.0935674 -0.000156294 2.58705e-24)
(0.0938632 -0.000147632 -5.12398e-25)
(0.0941436 -0.000139857 1.518e-24)
(0.0944101 -0.000132923 -5.07977e-25)
(0.0946644 -0.000126783 -9.93766e-25)
(0.0949079 -0.000121376 4.95995e-25)
(0.0951418 -0.0001166 -4.87982e-25)
(-0.000188552 0.000485728 -1.09761e-21)
(-0.000131069 -0.00030001 -1.11543e-21)
(0.000878631 -0.00182657 1.0987e-21)
(0.0029287 -0.003633 -4.52615e-22)
(0.00600865 -0.00540577 4.54825e-22)
(0.00999854 -0.00694461 5.97691e-24)
(0.0147091 -0.00814267 -1.06968e-23)
(0.019928 -0.00895924 -2.57701e-22)
(0.0254445 -0.0094001 2.49107e-22)
(0.0310658 -0.00950261 -5.81063e-24)
(0.0366269 -0.00932288 -4.55912e-24)
(0.0419964 -0.00892524 9.26974e-23)
(0.0470775 -0.00837415 -9.28212e-23)
(0.0518065 -0.00772855 -5.4084e-23)
(0.0561482 -0.00703843 1.18838e-23)
(0.0600912 -0.00634332 4.23291e-23)
(0.0636423 -0.00567216 -4.54295e-25)
(0.0668211 -0.00504428 -9.45176e-25)
(0.0696552 -0.00447085 0)
(0.0721765 -0.00395668 0)
(0.0744184 -0.00350193 0)
(0.0764133 -0.00310369 -3.65391e-25)
(0.0781916 -0.00275722 2.42937e-23)
(0.079781 -0.00245691 -2.63868e-23)
(0.0812059 -0.00219694 2.71309e-23)
(0.0824876 -0.00197176 -1.33045e-23)
(0.0836446 -0.00177633 -2.9047e-23)
(0.0846926 -0.00160617 1.47701e-23)
(0.0856452 -0.00145747 -4.76466e-25)
(0.0865138 -0.00132698 -1.00024e-24)
(0.0873083 -0.00121201 4.98209e-25)
(0.0880372 -0.00111028 -1.53798e-24)
(0.0887077 -0.00101992 1.60556e-23)
(0.0893261 -0.000939374 -3.38522e-23)
(0.0898978 -0.000867327 1.62135e-23)
(0.0904276 -0.000802691 -1.5879e-24)
(0.0909197 -0.000744551 5.27394e-25)
(0.0913778 -0.000692135 0)
(0.091805 -0.000644789 -8.98565e-24)
(0.0922044 -0.00060196 7.93497e-24)
(0.0925785 -0.000563176 7.33409e-24)
(0.0929296 -0.000528041 -9.97414e-24)
(0.09326 -0.000496222 5.19581e-25)
(0.0935714 -0.000467444 2.56254e-24)
(0.0938658 -0.000441487 -4.63564e-24)
(0.0941448 -0.000418175 -5.07679e-25)
(0.09441 -0.000397366 -3.51337e-24)
(0.0946628 -0.000378922 -4.76523e-25)
(0.0949048 -0.000362655 1.00414e-24)
(0.0951371 -0.000348262 1.46817e-24)
(-9.28446e-05 0.000552982 -1.19627e-21)
(0.000514281 -0.000907414 1.20014e-21)
(0.00243409 -0.00341407 -1.16417e-21)
(0.00534205 -0.0063124 -1.60855e-23)
(0.00912498 -0.00911542 -9.4599e-25)
(0.0136043 -0.0115258 -7.61494e-22)
(0.018576 -0.0133892 7.86642e-22)
(0.0238467 -0.0146494 5.54483e-22)
(0.0292435 -0.0153194 -9.47865e-23)
(0.0346185 -0.0154594 -7.90989e-22)
(0.0398515 -0.0151574 6.36228e-22)
(0.0448507 -0.0145133 -2.73986e-22)
(0.0495511 -0.0136275 -3.26699e-24)
(0.0539126 -0.0125916 0)
(0.0579153 -0.011484 1.06775e-22)
(0.0615567 -0.0103667 -2.08459e-23)
(0.0648469 -0.00928582 -8.43361e-23)
(0.067805 -0.0082722 2.15863e-24)
(0.0704558 -0.00734413 0)
(0.0728273 -0.00650979 0)
(0.0749478 -0.00576996 2.78932e-23)
(0.0768452 -0.00512042 -2.69716e-23)
(0.0785456 -0.00455395 -2.75527e-23)
(0.0800727 -0.00406186 2.9271e-23)
(0.0814477 -0.00363499 9.65978e-25)
(0.0826895 -0.00326456 -9.81898e-25)
(0.0838142 -0.00294253 9.98765e-25)
(0.0848359 -0.00266178 -3.07761e-23)
(0.085767 -0.00241614 3.18215e-23)
(0.0866179 -0.00220038 -3.08359e-23)
(0.0873976 -0.00201011 3.29163e-23)
(0.088114 -0.00184166 1.03546e-24)
(0.088774 -0.00169196 3.38984e-23)
(0.0893833 -0.00155846 -6.69957e-23)
(0.0899472 -0.001439 3.52101e-23)
(0.0904703 -0.0013318 1.82135e-23)
(0.0909564 -0.00123535 -1.60829e-23)
(0.0914092 -0.00114839 0)
(0.0918318 -0.00106982 -1.214e-26)
(0.092227 -0.000998734 0)
(0.0925974 -0.000934351 1.68911e-23)
(0.0929451 -0.00087601 -1.58663e-23)
(0.0932722 -0.000823156 1.0504e-24)
(0.0935807 -0.000775329 -6.37285e-27)
(0.0938722 -0.000732158 8.17859e-24)
(0.0941484 -0.000693346 -1.52729e-23)
(0.0944108 -0.00065865 8.1059e-24)
(0.0946608 -0.000627833 -3.96652e-24)
(0.0948997 -0.000600584 2.99585e-24)
(0.0951288 -0.000576395 9.84826e-25)
(0.00017842 0.000344571 -2.70284e-21)
(0.00169503 -0.0019943 0)
(0.00484608 -0.00545997 2.40435e-21)
(0.00890092 -0.00929503 -4.62653e-21)
(0.013587 -0.0129229 2.23579e-21)
(0.0186655 -0.0160012 8.28564e-22)
(0.0239302 -0.0183577 -8.70798e-22)
(0.0292232 -0.0199341 6.15803e-22)
(0.0344256 -0.0207538 -1.13171e-21)
(0.0394494 -0.0208959 5.07581e-22)
(0.0442317 -0.0204723 6.22039e-24)
(0.0487307 -0.0196095 7.84172e-25)
(0.0529213 -0.0184339 3.3229e-24)
(0.0567921 -0.0170619 -1.69605e-22)
(0.0603426 -0.0155936 1.64352e-22)
(0.0635808 -0.0141092 3.85083e-24)
(0.066521 -0.0126687 -1.41208e-24)
(0.069182 -0.0113132 8.32902e-23)
(0.0715848 -0.0100676 -8.29753e-23)
(0.073752 -0.00894357 -1.27235e-24)
(0.0757062 -0.00794317 0)
(0.0774689 -0.00706171 1.82314e-25)
(0.0790608 -0.0062904 0)
(0.0805005 -0.00561819 1.09567e-24)
(0.0818051 -0.00503345 1.13371e-25)
(0.0829899 -0.00452471 9.91203e-25)
(0.0840682 -0.00408145 -6.81267e-23)
(0.085052 -0.00369425 6.7215e-23)
(0.0859518 -0.00335493 0)
(0.0867766 -0.00305649 -3.44617e-23)
(0.0875344 -0.00279302 3.56377e-23)
(0.0882324 -0.00255954 0)
(0.0888766 -0.00235189 -3.5979e-26)
(0.0894724 -0.00216659 -3.61783e-23)
(0.0900246 -0.00200071 7.13196e-23)
(0.0905375 -0.0018518 -7.01614e-23)
(0.0910147 -0.00171777 7.00369e-23)
(0.0914596 -0.00159688 -6.97758e-23)
(0.0918752 -0.00148764 3.48061e-23)
(0.092264 -0.00138878 1.72035e-23)
(0.0926286 -0.00129921 -1.50643e-23)
(0.0929711 -0.00121801 -1.06968e-24)
(0.0932935 -0.00114441 -1.67692e-23)
(0.0935974 -0.00107777 3.54858e-23)
(0.0938847 -0.00101755 -1.66254e-23)
(0.0941567 -0.00096333 6.56586e-27)
(0.0944149 -0.00091476 1.0073e-24)
(0.0946607 -0.000871497 -4.83966e-27)
(0.0948952 -0.000833104 -9.82957e-25)
(0.0951196 -0.000798876 1.94363e-24)
(0.000684883 -0.000267511 -2.46473e-24)
(0.00359749 -0.0036936 -2.53115e-23)
(0.00824637 -0.0080031 -2.31613e-23)
(0.0135792 -0.0125407 -2.10354e-23)
(0.0192014 -0.0167296 -3.63958e-23)
(0.0248484 -0.0202349 -1.31116e-24)
(0.0303405 -0.0228933 1.33989e-23)
(0.0355738 -0.0246538 -1.26265e-23)
(0.0404948 -0.0255489 -1.072e-23)
(0.0450813 -0.025669 9.64487e-22)
(0.049331 -0.0251393 -1.91982e-22)