/*--------------------------------*- C++ -*----------------------------------*\
| =========                 |                                                 |
| \\      /  F ield         | OpenFOAM: The Open Source CFD Toolbox           |
|  \\    /   O peration     | Version:  2412                                  |
|   \\  /    A nd           | Website:  www.openfoam.com                      |
|    \\/     M anipulation  |                                                 |
\*---------------------------------------------------------------------------*/
FoamFile
{
    version     2.0;
    format      ascii;
    arch        "LSB;label=32;scalar=64";
    class       volVectorField;
    location    "4.5";
    object      vorticity;
}
// * * * * * * * * * * * * * * * * * * * * * * * * * * * * * * * * * * * * * //

dimensions      [0 0 -1 0 0 0 0];

internalField   nonuniform List<vector> 
63420
(
(0 0 6.50927e-05)
(0 0 8.50863e-05)
(0 0 -3.53197e-06)
(0 0 -0.000102695)
(0 0 -0.000139526)
(0 0 -0.000119215)
(0 0 -7.88613e-05)
(0 0 -4.41089e-05)
(0 0 -2.21962e-05)
(0 0 -1.07941e-05)
(0 0 -5.63423e-06)
(0 0 -3.54941e-06)
(0 0 -2.7936e-06)
(0 0 -2.55596e-06)
(0 0 -2.5031e-06)
(0 0 -2.50932e-06)
(0 0 -2.53093e-06)
(0 0 -2.55513e-06)
(0 0 -2.57954e-06)
(0 0 -2.60171e-06)
(0 0 -2.61923e-06)
(0 0 -2.63164e-06)
(0 0 -2.6399e-06)
(0 0 -2.64566e-06)
(0 0 -2.64869e-06)
(0 0 -2.64778e-06)
(0 0 -2.64145e-06)
(0 0 -2.62866e-06)
(0 0 -2.60914e-06)
(0 0 -2.5828e-06)
(0 0 -2.54995e-06)
(0 0 -2.51043e-06)
(0 0 -2.46385e-06)
(0 0 -2.4091e-06)
(0 0 -2.34484e-06)
(0 0 -2.26977e-06)
(0 0 -2.18261e-06)
(0 0 -2.08257e-06)
(0 0 -1.96865e-06)
(0 0 -1.84004e-06)
(0 0 -1.6954e-06)
(0 0 -1.53287e-06)
(0 0 -1.34961e-06)
(0 0 -1.14182e-06)
(0 0 -9.04648e-07)
(0 0 -6.32185e-07)
(0 0 -3.17515e-07)
(0 0 4.60058e-08)
(0 0 4.5838e-07)
(0 0 8.94157e-07)
(0 0 1.26156e-06)
(0 0 1.34199e-06)
(0 0 7.57042e-07)
(0 0 -8.78527e-07)
(0 5.28584e-23 -3.22553e-06)
(0 0 0.000193816)
(0 0 0.000251975)
(0 0 -1.25467e-05)
(0 0 -0.000307447)
(0 0 -0.000416493)
(0 0 -0.000355627)
(0 0 -0.000235357)
(0 0 -0.000131899)
(0 0 -6.67057e-05)
(0 0 -3.28064e-05)
(0 0 -1.74782e-05)
(0 0 -1.12895e-05)
(0 0 -9.04698e-06)
(0 0 -8.34428e-06)
(0 0 -8.19307e-06)
(0 0 -8.22222e-06)
(0 0 -8.30244e-06)
(0 0 -8.39254e-06)
(0 0 -8.47966e-06)
(0 0 -8.55791e-06)
(0 0 -8.62422e-06)
(0 0 -8.67824e-06)
(0 0 -8.72114e-06)
(0 0 -8.75369e-06)
(0 0 -8.77485e-06)
(0 0 -8.78268e-06)
(0 0 -8.77507e-06)
(0 0 -8.75038e-06)
(0 0 -8.70733e-06)
(0 0 -8.64503e-06)
(0 0 -8.56276e-06)
(0 0 -8.45965e-06)
(0 0 -8.33436e-06)
(0 0 -8.18489e-06)
(0 0 -8.00886e-06)
(0 0 -7.80366e-06)
(0 0 -7.5665e-06)
(0 0 -7.29456e-06)
(0 0 -6.98461e-06)
(0 0 -6.63282e-06)
(0 0 -6.23407e-06)
(0 0 -5.7817e-06)
(0 0 -5.26704e-06)
(0 0 -4.67911e-06)
(0 0 -4.00422e-06)
(0 0 -3.22518e-06)
(0 0 -2.32107e-06)
(0 0 -1.27103e-06)
(0 0 -7.33951e-08)
(0 0 1.19838e-06)
(0 0 2.2758e-06)
(0 0 2.51783e-06)
(0 0 8.13393e-07)
(0 0 -3.97455e-06)
(0 5.33517e-23 -1.08782e-05)
(0 0 0.00031848)
(0 0 0.000410929)
(0 0 -2.49966e-05)
(0 0 -0.000508516)
(0 0 -0.000686398)
(0 0 -0.000585676)
(0 0 -0.000387925)
(0 0 -0.000218049)
(0 0 -0.000111084)
(0 0 -5.55066e-05)
(0 0 -3.04055e-05)
(0 0 -2.02948e-05)
(0 0 -1.66525e-05)
(0 0 -1.55332e-05)
(0 0 -1.53173e-05)
(0 0 -1.53972e-05)
(0 0 -1.55616e-05)
(0 0 -1.57418e-05)
(0 0 -1.5915e-05)
(0 0 -1.60727e-05)
(0 0 -1.62113e-05)
(0 0 -1.63306e-05)
(0 0 -1.64319e-05)
(0 0 -1.6515e-05)
(0 0 -1.65781e-05)
(0 0 -1.66186e-05)
(0 0 -1.6634e-05)
(0 0 -1.66221e-05)
(0 0 -1.65808e-05)
(0 0 -1.65086e-05)
(0 0 -1.6404e-05)
(0 0 -1.62652e-05)
(0 0 -1.609e-05)
(0 0 -1.58758e-05)
(0 0 -1.56192e-05)
(0 0 -1.53165e-05)
(0 0 -1.49635e-05)
(0 0 -1.45558e-05)
(0 0 -1.40879e-05)
(0 0 -1.35533e-05)
(0 0 -1.29436e-05)
(0 0 -1.22478e-05)
(0 0 -1.14519e-05)
(0 0 -1.05386e-05)
(0 0 -9.48635e-06)
(0 0 -8.26794e-06)
(0 0 -6.85005e-06)
(0 0 -5.19954e-06)
(0 0 -3.31388e-06)
(0 0 -1.31013e-06)
(0 0 3.84605e-07)
(0 0 7.50254e-07)
(0 0 -1.98517e-06)
(0 0 -9.65406e-06)
(0 3.15116e-22 -2.08016e-05)
(0 0 0.000435729)
(0 0 0.00055891)
(0 0 -3.7539e-05)
(0 0 -0.00069706)
(0 0 -0.000939284)
(0 0 -0.000801523)
(0 0 -0.000531629)
(0 0 -0.000299898)
(0 0 -0.000154038)
(0 0 -7.82961e-05)
(0 0 -4.41308e-05)
(0 0 -3.0409e-05)
(0 0 -2.55049e-05)
(0 0 -2.40376e-05)
(0 0 -2.37993e-05)
(0 0 -2.39628e-05)
(0 0 -2.42406e-05)
(0 0 -2.45382e-05)
(0 0 -2.48245e-05)
(0 0 -2.50885e-05)
(0 0 -2.53268e-05)
(0 0 -2.55394e-05)
(0 0 -2.57272e-05)
(0 0 -2.58894e-05)
(0 0 -2.60234e-05)
(0 0 -2.6126e-05)
(0 0 -2.61946e-05)
(0 0 -2.62267e-05)
(0 0 -2.62198e-05)
(0 0 -2.61718e-05)
(0 0 -2.60802e-05)
(0 0 -2.59429e-05)
(0 0 -2.57569e-05)
(0 0 -2.55188e-05)
(0 0 -2.52248e-05)
(0 0 -2.48701e-05)
(0 0 -2.44494e-05)
(0 0 -2.39569e-05)
(0 0 -2.33855e-05)
(0 0 -2.27265e-05)
(0 0 -2.19686e-05)
(0 0 -2.10973e-05)
(0 0 -2.00945e-05)
(0 0 -1.89377e-05)
(0 0 -1.7599e-05)
(0 0 -1.60433e-05)
(0 0 -1.42275e-05)
(0 0 -1.21092e-05)
(0 0 -9.68629e-06)
(0 0 -7.11274e-06)
(0 0 -4.94712e-06)
(0 0 -4.52334e-06)
(0 0 -8.1683e-06)
(0 0 -1.83348e-05)
(0 -2.06996e-22 -3.33244e-05)
(0 0 0.000541277)
(0 0 0.000695485)
(0 0 -4.11929e-05)
(0 0 -0.000857996)
(0 0 -0.00116022)
(0 0 -0.000991959)
(0 0 -0.00065935)
(0 0 -0.000373271)
(0 0 -0.000193075)
(0 0 -9.95017e-05)
(0 0 -5.73296e-05)
(0 0 -4.04384e-05)
(0 0 -3.44502e-05)
(0 0 -3.27088e-05)
(0 0 -3.24839e-05)
(0 0 -3.27534e-05)
(0 0 -3.31623e-05)
(0 0 -3.35938e-05)
(0 0 -3.40096e-05)
(0 0 -3.4397e-05)
(0 0 -3.47528e-05)
(0 0 -3.50776e-05)
(0 0 -3.53716e-05)
(0 0 -3.56335e-05)
(0 0 -3.586e-05)
(0 0 -3.60478e-05)
(0 0 -3.61942e-05)
(0 0 -3.62965e-05)
(0 0 -3.63521e-05)
(0 0 -3.63585e-05)
(0 0 -3.63128e-05)
(0 0 -3.62121e-05)
(0 0 -3.60531e-05)
(0 0 -3.5832e-05)
(0 0 -3.55444e-05)
(0 0 -3.51849e-05)
(0 0 -3.47476e-05)
(0 0 -3.42253e-05)
(0 0 -3.361e-05)
(0 0 -3.28914e-05)
(0 0 -3.20561e-05)
(0 0 -3.10874e-05)
(0 0 -2.99641e-05)
(0 0 -2.866e-05)
(0 0 -2.71432e-05)
(0 0 -2.53731e-05)
(0 0 -2.33004e-05)
(0 0 -2.08771e-05)
(0 0 -1.81032e-05)
(0 0 -1.51616e-05)
(0 0 -1.27096e-05)
(0 0 -1.23169e-05)
(0 0 -1.67439e-05)
(0 0 -2.89988e-05)
(0 1.02197e-22 -4.74922e-05)
(0 0 0.000630269)
(0 0 0.00082235)
(0 0 -2.32508e-05)
(0 0 -0.000972832)
(0 0 -0.00133179)
(0 0 -0.00114421)
(0 0 -0.000762947)
(0 0 -0.000433211)
(0 0 -0.000225003)
(0 0 -0.000116764)
(0 0 -6.79832e-05)
(0 0 -4.84806e-05)
(0 0 -4.16106e-05)
(0 0 -3.96599e-05)
(0 0 -3.94641e-05)
(0 0 -3.98388e-05)
(0 0 -4.03731e-05)
(0 0 -4.09318e-05)
(0 0 -4.14711e-05)
(0 0 -4.19774e-05)
(0 0 -4.2448e-05)
(0 0 -4.28834e-05)
(0 0 -4.32838e-05)
(0 0 -4.36471e-05)
(0 0 -4.39698e-05)
(0 0 -4.42486e-05)
(0 0 -4.44806e-05)
(0 0 -4.46636e-05)
(0 0 -4.47949e-05)
(0 0 -4.48715e-05)
(0 0 -4.48906e-05)
(0 0 -4.48488e-05)
(0 0 -4.47425e-05)
(0 0 -4.45677e-05)
(0 0 -4.43197e-05)
(0 0 -4.39928e-05)
(0 0 -4.35804e-05)
(0 0 -4.30752e-05)
(0 0 -4.24681e-05)
(0 0 -4.17481e-05)
(0 0 -4.09008e-05)
(0 0 -3.99081e-05)
(0 0 -3.87472e-05)
(0 0 -3.73904e-05)
(0 0 -3.58034e-05)
(0 0 -3.39434e-05)
(0 0 -3.17585e-05)
(0 0 -2.91992e-05)
(0 0 -2.62693e-05)
(0 0 -2.31725e-05)
(0 0 -2.06294e-05)
(0 0 -2.03642e-05)
(0 0 -2.54559e-05)
(0 0 -3.946e-05)
(0 5.0426e-22 -6.13852e-05)
(0 0 0.000699944)
(0 0 0.000942485)
(0 0 2.8646e-05)
(0 0 -0.00102483)
(0 0 -0.00143864)
(0 0 -0.00124716)
(0 0 -0.00083533)
(0 0 -0.000475322)
(0 0 -0.000246892)
(0 0 -0.000127826)
(0 0 -7.40996e-05)
(0 0 -5.26251e-05)
(0 0 -4.50839e-05)
(0 0 -4.29707e-05)
(0 0 -4.27929e-05)
(0 0 -4.32435e-05)
(0 0 -4.38691e-05)
(0 0 -4.45208e-05)
(0 0 -4.5151e-05)
(0 0 -4.57458e-05)
(0 0 -4.63029e-05)
(0 0 -4.68227e-05)
(0 0 -4.73052e-05)
(0 0 -4.77479e-05)
(0 0 -4.81474e-05)
(0 0 -4.85004e-05)
(0 0 -4.88044e-05)
(0 0 -4.90571e-05)
(0 0 -4.92561e-05)
(0 0 -4.93984e-05)
(0 0 -4.94809e-05)
(0 0 -4.95003e-05)
(0 0 -4.94529e-05)
(0 0 -4.93345e-05)
(0 0 -4.91404e-05)
(0 0 -4.88648e-05)
(0 0 -4.85009e-05)
(0 0 -4.80411e-05)
(0 0 -4.74764e-05)
(0 0 -4.67954e-05)
(0 0 -4.59834e-05)
(0 0 -4.50221e-05)
(0 0 -4.38887e-05)
(0 0 -4.25554e-05)
(0 0 -4.0988e-05)
(0 0 -3.91438e-05)
(0 0 -3.6972e-05)
(0 0 -3.44256e-05)
(0 0 -3.15136e-05)
(0 0 -2.8452e-05)
(0 0 -2.59895e-05)
(0 0 -2.59265e-05)
(0 0 -3.15704e-05)
(0 0 -4.71645e-05)
(0 -9.87125e-23 -7.31085e-05)
(-1.48318e-23 8.06008e-21 -1.50319e-05)
(-1.69472e-22 7.91346e-21 -3.12755e-05)
(4.16504e-23 -2.2756e-22 -5.34282e-05)
(3.19138e-23 -2.36561e-20 -7.97658e-05)
(-1.08022e-22 8.11384e-21 -0.000106335)
(4.29802e-22 7.96234e-21 -0.00012736)
(-9.13112e-22 2.31606e-20 -0.000136446)
(3.52994e-22 -2.35906e-20 -0.000128308)
(7.15558e-22 -7.56763e-21 -0.000100327)
(-1.03871e-21 -4.15814e-24 -5.33634e-05)
(-1.04922e-21 -7.61434e-21 8.47938e-06)
(9.21639e-22 7.19501e-21 7.89533e-05)
(5.89814e-22 -5.97267e-20 0.000151192)
(-1.06086e-21 1.28569e-19 0.000219137)
(3.33431e-22 -6.94085e-20 0.000278464)
(-1.46216e-21 -5.23531e-20 0.00032691)
(2.62301e-21 -6.65962e-20 0.000364058)
(-2.10722e-21 7.92928e-21 0.000390837)
(-2.33492e-22 -7.35425e-21 0.000408898)
(1.00482e-22 7.37794e-21 0.000420115)
(-3.58606e-24 -1.46678e-22 0.000426249)
(-9.5539e-23 -7.12389e-21 0.000428774)
(-2.26745e-21 7.21214e-21 0.000428814)
(4.78116e-21 1.45556e-23 0.00042715)
(1.41254e-21 7.02002e-21 0.000424272)
(-3.72073e-21 -6.16007e-24 0.000420429)
(5.36966e-21 8.31054e-21 0.000415697)
(-6.06854e-21 1.06418e-19 0.00041003)
(5.51581e-22 -1.1442e-19 0.000403328)
(-2.18808e-21 1.05021e-19 0.000395475)
(2.12613e-21 -1.06334e-19 0.000386357)
(5.49349e-23 1.51907e-21 0.000375844)
(-7.15444e-23 -1.86601e-21 0.000363732)
(2.81024e-21 -1.01621e-19 0.000349622)
(-9.51404e-21 9.88836e-20 0.000332717)
(-3.65957e-22 -1.75403e-21 0.000311355)
(7.04514e-21 1.54084e-23 0.000281962)
(7.68546e-21 1.68089e-23 0.000236651)
(-7.66087e-21 -1.67551e-23 0.00015808)
(-2.551e-22 -5.57928e-25 9.299e-06)
(-2.66932e-22 -5.83807e-25 -0.000284276)
(-9.24446e-21 -2.02185e-23 -0.000862795)
(8.92238e-21 1.95141e-23 -0.00196779)
(-2.97278e-22 1.7775e-22 -0.00397566)
(1.87496e-23 9.14888e-21 -0.00740867)
(-2.85796e-20 5.84483e-20 -0.0128987)
(2.75051e-20 -7.75629e-20 -0.0210854)
(-6.87674e-21 -1.1039e-20 -0.0324476)
(7.53207e-21 3.06006e-20 -0.0470885)
(-2.42518e-20 -6.77002e-21 -0.06438)
(-2.92329e-22 8.08186e-21 -4.52109e-05)
(-1.05059e-22 1.58758e-20 -9.29285e-05)
(3.7289e-22 7.70862e-21 -0.000158166)
(-1.01986e-21 -7.93331e-21 -0.000235971)
(1.89119e-21 7.52971e-21 -0.000314857)
(-6.55791e-22 -5.42149e-20 -0.000377976)
(-1.16425e-22 8.62586e-20 -0.000406677)
(-7.58338e-23 -9.16889e-21 -0.000385502)
(2.29167e-21 -9.93644e-20 -0.000306757)
(-2.28886e-21 1.40717e-19 -0.000172873)
(-6.09474e-22 1.28389e-19 4.257e-06)
(4.14474e-22 -1.1586e-19 0.000206506)
(-4.51779e-22 8.49686e-22 0.000413964)
(3.20505e-21 -7.37151e-21 0.000609067)
(-2.42866e-21 2.48781e-20 0.000779294)
(-6.0089e-21 2.44834e-19 0.000918078)
(1.07333e-21 -2.30832e-19 0.00102421)
(-5.54957e-21 2.47626e-19 0.00110031)
(-2.53721e-22 1.98108e-20 0.00115115)
(-4.39781e-21 -7.55742e-21 0.00118208)
(4.63027e-21 1.65529e-22 0.00119819)
(-4.61715e-21 9.62205e-21 0.0012037)
(2.08399e-21 2.16344e-19 0.00120183)
(4.8229e-21 -4.60014e-19 0.00119482)
(4.03517e-21 -2.19525e-19 0.00118402)
(-5.92311e-21 4.45309e-19 0.0011701)
(1.85635e-21 -4.45972e-19 0.00115323)
(1.09119e-22 4.58144e-19 0.00113321)
(3.75076e-21 1.04005e-21 0.00110967)
(-4.21961e-21 -1.10527e-22 0.0010822)
(-1.41625e-21 -3.09748e-24 0.0010504)
(0 0 0.0010138)
(2.09536e-22 1.08683e-22 0.000971712)
(1.25699e-20 1.35629e-20 0.000922858)
(-1.40212e-20 3.82253e-19 0.000864734)
(-1.75927e-20 -2.51284e-20 0.000792189)
(1.69492e-20 -3.79232e-19 0.000694182)
(2.5361e-20 -3.29602e-19 0.000546409)
(-5.70926e-21 3.53603e-19 0.000295542)
(-3.55062e-20 1.93943e-21 -0.0001717)
(3.52825e-20 1.94902e-20 -0.00108316)
(-4.26041e-20 2.59055e-19 -0.00286519)
(2.05219e-20 -2.70351e-19 -0.00624947)
(-2.08954e-20 1.6739e-20 -0.0123715)
(2.3384e-20 9.27746e-21 -0.0228015)
(-6.693e-20 1.30301e-19 -0.0394343)
(6.69294e-20 -1.27402e-19 -0.0641838)
(-1.06648e-19 9.69069e-20 -0.0984656)
(1.02844e-19 -1.08526e-19 -0.142517)
(-2.23893e-20 -7.50745e-22 -0.192839)
(3.22885e-23 4.78002e-20 -7.45983e-05)
(-7.62545e-23 1.50213e-20 -0.000150937)
(3.45494e-22 -6.25091e-20 -0.000255798)
(-6.756e-22 1.24457e-19 -0.000381621)
(1.49792e-21 -2.66906e-19 -0.000510464)
(7.43475e-22 1.27202e-19 -0.00061581)
(-2.83289e-21 -1.0132e-21 -0.000668221)
(1.76176e-21 -1.75343e-20 -0.00064324)
(7.48461e-22 -2.60934e-19 -0.000528577)
(1.80717e-21 2.49147e-19 -0.00032783)
(-9.95772e-22 -1.88823e-21 -5.9446e-05)
(-4.84793e-21 -2.41074e-23 0.000248366)
(7.72598e-21 -2.13537e-21 0.000564613)
(-5.92259e-21 -2.55993e-19 0.000861966)
(7.15167e-21 2.33593e-19 0.00112094)
(-1.06224e-20 4.63703e-19 0.00133131)
(-5.73251e-21 -1.30037e-20 0.0014911)
(-2.75346e-21 4.7801e-19 0.00160432)
(4.00242e-22 -1.45279e-20 0.00167817)
(-1.13972e-20 4.65703e-19 0.00172086)
(1.12002e-20 -4.84156e-19 0.00174009)
(-7.51539e-21 4.63758e-19 0.00174229)
(-3.68342e-22 -4.82898e-19 0.0017323)
(5.87579e-21 -9.1211e-21 0.00171342)
(-2.84124e-21 1.41824e-20 0.00168764)
(6.20777e-21 -8.65062e-21 0.00165584)
(-1.77953e-20 4.3811e-19 0.00161807)
(1.55277e-20 -4.68553e-19 0.00157381)
(1.67094e-20 -4.35203e-19 0.00152223)
(-1.30873e-20 4.38768e-19 0.00146243)
(-1.23701e-21 -5.90547e-21 0.00139347)
(1.28078e-20 -1.38558e-22 0.00131433)
(-1.48554e-20 -2.7213e-20 0.00122353)
(4.87005e-20 -8.07864e-19 0.00111864)
(1.82552e-20 5.89314e-20 0.00099506)
(-6.76311e-20 7.63602e-19 0.000843665)
(4.55407e-21 -1.41149e-20 0.000645059)
(-1.28553e-20 -6.45052e-21 0.000356762)
(1.08618e-19 -6.51506e-19 -0.00011407)
(-1.9967e-19 1.28678e-18 -0.000963769)
(2.02577e-19 -1.29105e-18 -0.00258491)
(8.29452e-20 9.19012e-20 -0.00570717)
(-1.63041e-19 5.72855e-19 -0.0115739)
(-1.76088e-19 4.00409e-19 -0.0221017)
(1.6487e-19 -4.77538e-19 -0.0399268)
(-2.66139e-20 2.29291e-20 -0.068222)
(6.59692e-20 -2.09059e-20 -0.110191)
(1.92241e-19 -1.19569e-19 -0.168177)
(-2.08762e-19 1.88511e-19 -0.242389)
(-3.04011e-20 -4.90948e-20 -0.321677)
(4.06712e-22 -3.14971e-20 -0.000101934)
(-3.99032e-22 1.59679e-20 -0.000202612)
(8.19607e-22 -2.00357e-22 -0.000341838)
(-7.57952e-22 -1.56932e-20 -0.000510333)
(-1.13882e-21 -1.68994e-21 -0.000685345)
(3.05471e-21 -2.46134e-19 -0.000832899)
(-3.76951e-21 4.6708e-19 -0.000915062)
(1.68597e-21 -2.51994e-19 -0.000900129)
(-2.04356e-21 1.5154e-20 -0.000771906)
(4.12281e-21 -2.75842e-19 -0.000534503)
(-5.43785e-21 2.52679e-19 -0.000211008)
(-1.62069e-21 4.80682e-19 0.000163017)
(6.11998e-21 -9.75012e-19 0.000548441)
(-8.41294e-21 9.75546e-19 0.000910732)
(1.30901e-20 -9.72144e-19 0.00122524)
(-6.19779e-21 9.66122e-19 0.00147894)
(-7.8151e-21 4.90054e-19 0.00166915)
(-7.8598e-22 -4.38038e-21 0.00180061)
(5.20878e-21 4.51161e-21 0.00188211)
(-5.03749e-21 4.54871e-19 0.00192361)
(-6.17318e-21 -4.78676e-19 0.00193442)
(1.70374e-20 1.46719e-20 0.00192229)
(-3.00359e-20 9.21236e-19 0.00189297)
(2.0747e-20 -9.26265e-19 0.00185031)
(2.48599e-21 -4.58228e-21 0.00179644)
(-1.12396e-20 -7.65559e-23 0.00173209)
(1.68307e-20 -1.40461e-20 0.00165687)
(-5.52404e-21 1.4172e-22 0.00156959)
(-6.11216e-21 -4.29677e-23 0.00146861)
(5.77191e-21 2.24573e-22 0.00135212)
(-4.03785e-21 3.76669e-22 0.0012182)
(5.79085e-20 -8.31369e-19 0.00106473)
(-5.12023e-20 8.5723e-19 0.000888933)
(-1.82139e-20 -8.24484e-22 0.000686575)
(2.09736e-20 -9.74107e-21 0.000450363)
(-9.36128e-20 7.7322e-19 0.000166346)
(1.13357e-19 -7.78856e-19 -0.000194453)
(-2.6544e-20 3.33708e-21 -0.000694962)
(1.85953e-20 -4.37876e-23 -0.0014721)
(4.39333e-20 8.35626e-21 -0.00281413)
(-2.60383e-19 5.94522e-19 -0.00529435)
(3.72471e-19 -1.21464e-18 -0.00997135)
(-1.8086e-19 6.18779e-19 -0.0186363)
(2.83091e-19 -4.81684e-19 -0.0340336)
(-2.71607e-19 5.71741e-19 -0.0599256)
(-6.68352e-19 5.93892e-19 -0.100853)
(1.26963e-18 -1.27399e-18 -0.16146)
(-6.27411e-19 6.50345e-19 -0.245191)
(2.25694e-20 -2.6903e-21 -0.352065)
(5.46661e-21 -4.20496e-20 -0.454407)
(-8.26859e-22 1.60745e-20 -0.000125235)
(-1.47782e-22 6.11855e-20 -0.000245157)
(1.77633e-21 -1.86218e-19 -0.000412362)
(-7.58808e-22 2.50283e-19 -0.000616835)
(-6.73909e-22 -1.11066e-19 -0.000832993)
(7.77218e-23 -1.4706e-20 -0.00102212)
(-4.92341e-22 1.5647e-20 -0.00114065)
(3.52379e-21 -2.18016e-22 -0.00115181)
(-3.44714e-21 -1.52716e-20 -0.00103633)
(-5.9139e-21 3.48288e-20 -0.000798)
(-4.48259e-21 4.88953e-19 -0.000462191)
(1.76995e-20 -5.08747e-19 -6.85144e-05)
(-2.25081e-20 4.75468e-19 0.000339244)
(1.79219e-20 -4.95041e-19 0.000722333)
(-3.48336e-21 3.94632e-21 0.00105296)
(1.26929e-20 7.07837e-23 0.00131619)
(4.84354e-21 4.29182e-21 0.00150858)
(-1.52498e-21 4.64092e-19 0.00163486)
(1.85188e-20 -5.03224e-19 0.00170418)
(7.43316e-21 2.9215e-20 0.00172701)
(-4.22967e-20 9.60585e-19 0.00171308)
(2.32327e-20 -9.65363e-19 0.00167034)
(1.18508e-20 2.43431e-20 0.0016046)
(-2.07393e-20 -2.68145e-22 0.00151949)
(1.35666e-20 1.10561e-20 0.00141672)
(-3.14744e-20 9.30103e-19 0.00129629)
(2.40392e-20 -9.23421e-19 0.00115683)
(3.25475e-21 1.10383e-20 0.000995928)
(1.14094e-20 2.83952e-20 0.000810493)
(-1.31962e-20 -6.29796e-22 0.000597074)
(1.11377e-21 -1.36315e-20 0.000351955)
(-4.24753e-20 1.38726e-20 7.09847e-05)
(4.05305e-20 1.32529e-20 -0.000250948)
(-3.95158e-21 -2.78026e-20 -0.000620928)
(7.16438e-20 -7.82128e-19 -0.00105009)
(-6.0668e-20 8.05836e-19 -0.00155834)
(2.53987e-19 -1.56329e-18 -0.0021855)
(-2.27786e-19 1.57948e-18 -0.00301666)
(2.89221e-19 -1.49403e-18 -0.00423591)
(8.07014e-20 1.39649e-19 -0.00622992)
(-3.37756e-19 1.42914e-18 -0.00976618)
(-1.41284e-19 -2.65775e-20 -0.0162582)
(1.90833e-20 3.44964e-22 -0.0280914)
(-2.19573e-20 5.51208e-22 -0.048918)
(6.48697e-20 1.87891e-21 -0.0837712)
(3.21639e-20 1.54506e-20 -0.138845)
(-1.35895e-19 5.83412e-21 -0.220791)
(7.81212e-20 5.77841e-21 -0.335082)
(-1.99303e-22 -3.74189e-22 -0.482127)
(4.32615e-20 7.56388e-22 -0.602837)
(-5.6523e-22 7.71856e-20 -0.000142219)
(1.78446e-21 -4.71714e-20 -0.000276582)
(-2.01323e-21 -1.67857e-20 -0.000465164)
(4.52994e-21 -2.30766e-19 -0.000698107)
(-1.73981e-21 2.32887e-19 -0.000949149)
(1.19617e-21 -2.30373e-19 -0.00117784)
(-1.00597e-20 5.08253e-19 -0.0013381)
(9.09225e-21 -7.12842e-19 -0.00139049)
(-5.51966e-21 5.05302e-19 -0.0013136)
(-2.96988e-21 4.91584e-19 -0.00110999)
(-2.10582e-21 2.92842e-21 -0.000804844)
(1.97979e-20 -9.66569e-19 -0.000438422)
(-1.54065e-20 1.00814e-18 -5.56243e-05)
(1.49308e-21 -4.75702e-19 0.000303517)
(9.09563e-21 -4.77451e-19 0.000609975)
(2.07045e-20 -4.70156e-19 0.000847716)
(-3.25003e-21 7.2853e-21 0.00101229)
(3.37138e-20 -9.7705e-19 0.00110754)
(2.31487e-20 -9.3817e-19 0.00114176)
(7.17655e-21 2.26159e-20 0.00112455)
(-1.89513e-20 9.76519e-19 0.00106477)
(-2.31753e-20 -9.31481e-21 0.000969479)
(1.41415e-20 1.02789e-20 0.000843505)
(-4.43493e-20 9.49328e-19 0.000689417)
(3.36271e-20 -9.67523e-19 0.000507674)
(6.80361e-20 -9.2794e-19 0.000296807)
(-6.94106e-20 9.61719e-19 5.36556e-05)
(1.72943e-20 -2.29511e-20 -0.00022632)
(5.87709e-20 -9.30759e-19 -0.000548673)
(-9.05007e-20 9.56782e-19 -0.00091968)
(5.01233e-21 1.4166e-20 -0.00134624)
(-1.91822e-19 1.75864e-18 -0.00183611)
(1.68607e-19 -1.82929e-18 -0.00239846)
(5.60791e-20 7.00026e-20 -0.00304507)
(-2.48735e-19 1.67702e-18 -0.00379267)
(2.22564e-19 -1.7537e-18 -0.00466856)
(-3.65153e-20 -4.04171e-21 -0.00572401)
(4.68995e-19 -1.592e-18 -0.00706535)
(-4.34576e-19 1.64965e-18 -0.00892069)
(-7.84587e-20 -8.34773e-20 -0.01177)
(7.00946e-19 -1.40617e-18 -0.016571)
(-1.21322e-18 2.92615e-18 -0.0250992)
(-8.44335e-20 -1.63133e-19 -0.0403719)
(-1.16492e-19 -1.24444e-19 -0.0670529)
(8.26692e-19 -1.30194e-18 -0.111681)
(4.77927e-20 7.59585e-20 -0.182633)
(-1.00145e-18 8.92711e-19 -0.289883)
(9.79454e-19 -9.85825e-19 -0.444127)
(1.09715e-20 3.52405e-20 -0.651479)
(1.11723e-20 -3.21361e-21 -0.796826)
(6.56927e-22 -1.62069e-20 -0.000151054)
(1.38445e-21 -1.37136e-19 -0.000297486)
(-1.58688e-21 1.23904e-19 -0.000501306)
(-1.56065e-21 -1.77602e-20 -0.000754348)
(4.99275e-21 -2.29472e-19 -0.001032)
(-4.5112e-21 2.36901e-19 -0.0012951)
(-3.56292e-21 4.77413e-19 -0.00149817)
(-5.68081e-21 -1.99612e-20 -0.00160155)
(2.98749e-21 -4.87136e-21 -0.00158264)
(1.25933e-20 -5.0935e-19 -0.00144208)
(-8.98337e-21 4.77042e-19 -0.00120266)
(1.03987e-20 -1.01056e-18 -0.000902201)
(4.76241e-22 5.06261e-19 -0.000583566)
(-4.40871e-21 -1.95276e-20 -0.000285438)
(-5.81748e-21 -2.37746e-20 -3.63501e-05)
(2.08343e-20 -9.94852e-19 0.000147322)
(-1.6594e-21 -1.97363e-20 0.000260114)
(1.88805e-20 -1.01429e-18 0.000304423)
(-6.43084e-21 -6.89512e-21 0.000286968)
(-1.86007e-22 1.37956e-22 0.000215753)
(1.32058e-20 9.72216e-21 9.81484e-05)
(-4.58356e-20 9.79999e-19 -6.00769e-05)
(3.91661e-20 -1.00315e-18 -0.000255182)
(1.47009e-20 9.61246e-21 -0.000485504)
(-1.02677e-20 -1.54226e-20 -0.000751359)
(-7.08905e-21 1.13796e-20 -0.00105489)
(-6.53637e-20 9.51222e-19 -0.00139981)
(1.42051e-19 -1.94665e-18 -0.00179106)
(-6.55822e-20 1.02056e-18 -0.00223429)
(-1.72347e-19 1.8884e-18 -0.00273532)
(-3.14994e-20 -4.59805e-20 -0.00329972)
(6.83312e-21 -2.38019e-20 -0.00393254)
(-7.16783e-20 -5.48935e-20 -0.00463819)
(2.3655e-19 -1.90244e-18 -0.00542061)
(3.87393e-19 -1.76186e-18 -0.00628428)
(-3.37857e-19 1.85701e-18 -0.00723808)
(-3.93261e-20 -6.36132e-20 -0.00830694)
(4.55185e-19 -1.70137e-18 -0.00956258)
(-3.8975e-19 1.81155e-18 -0.0111945)
(-6.72035e-19 1.61048e-18 -0.0136559)
(5.55085e-19 -1.71033e-18 -0.0179301)
(9.0838e-20 -1.29552e-20 -0.0259521)
(9.19155e-19 -1.54109e-18 -0.0411691)
(1.58735e-19 1.23956e-19 -0.0691332)
(-1.09093e-18 1.52621e-18 -0.117945)
(-2.04195e-20 -4.72438e-20 -0.198463)
(4.08341e-20 6.42478e-22 -0.325085)
(-4.06912e-20 1.88268e-20 -0.520686)
(-6.01182e-19 6.28328e-19 -0.8275)
(5.90438e-19 -6.39698e-19 -1.15637)
(-9.73361e-21 -2.60852e-21 0.00138529)
(-7.10623e-21 2.2942e-21 -0.0103497)
(6.55883e-21 5.23022e-21 -0.0192916)
(-9.47603e-21 -1.23341e-20 -0.0255549)
(9.89036e-21 5.25257e-21 -0.0292852)
(-3.62272e-22 1.56921e-21 -0.0307598)
(-9.4378e-23 -5.91516e-23 -0.0303666)
(-2.34959e-21 5.13879e-24 -0.0285549)
(2.27547e-21 -4.97668e-24 -0.0257849)
(-5.31766e-23 1.16302e-25 -0.022482)
(-4.18015e-23 9.1424e-26 -0.0190038)
(8.51515e-22 -1.86235e-24 -0.0156232)
(-8.54256e-22 1.86834e-24 -0.0125261)
(-4.98686e-22 1.09068e-24 -0.00981935)
(1.12805e-22 -7.48612e-23 -0.00754526)
(2.98029e-21 7.63774e-20 -0.0056986)
(-2.31124e-21 -7.14397e-20 -0.00424303)
(-6.08536e-24 -7.02947e-23 -0.00312527)
(-1.94321e-24 5.37341e-23 -0.00228606)
(-1.62123e-21 -9.18567e-20 -0.00166774)
(1.62657e-21 9.19897e-20 -0.00121884)
(-1.08424e-21 -9.12935e-20 -0.000896167)
(3.18218e-22 6.12264e-21 -0.000665227)
(-2.47968e-22 2.02603e-25 -0.000499451)
(3.06124e-22 6.44336e-21 -0.000379298)
(-6.33669e-23 4.40435e-24 -0.000290653)
(-2.74556e-22 6.00481e-25 -0.000223754)
(1.40003e-22 -5.0522e-24 -0.000171987)
(6.89275e-23 6.85519e-21 -0.000130901)
(-9.74683e-24 9.73842e-24 -9.74931e-05)
(-5.54925e-23 -7.02312e-21 -6.9746e-05)
(4.0244e-23 7.09184e-21 -4.62905e-05)
(1.04285e-22 -7.20261e-21 -2.61776e-05)
(-4.44779e-23 6.52535e-20 -8.7333e-06)
(-1.2329e-22 -6.53117e-20 6.53387e-06)
(-1.828e-22 -5.17025e-20 1.99917e-05)
(3.75073e-22 1.1101e-19 3.19232e-05)
(-1.98526e-22 -5.93999e-20 4.25536e-05)
(-1.16359e-22 -7.55284e-21 5.20671e-05)
(1.04827e-22 7.54894e-21 6.06185e-05)
(7.12428e-23 -1.08438e-25 6.83396e-05)
(-7.34251e-23 7.67239e-21 7.53437e-05)
(-9.02574e-23 -3.85211e-20 8.17317e-05)
(1.19408e-22 3.85877e-20 8.7604e-05)
(-6.48787e-23 -7.76236e-21 9.30859e-05)
(3.58393e-23 2.34612e-20 9.83787e-05)
(-4.02322e-23 -7.80464e-21 0.000103849)
(-3.6047e-23 -1.58003e-20 0.000110162)
(2.51872e-23 7.91221e-21 0.000118419)
(-1.15926e-25 -7.95906e-21 0.000130204)
(-1.44433e-20 2.21384e-20 0.00119558)
(1.94777e-21 -2.56495e-20 -0.0333871)
(3.02354e-21 -2.9012e-21 -0.0594059)
(-2.0554e-20 -1.4927e-20 -0.0772615)
(1.97484e-20 1.62899e-20 -0.087542)
(-7.35151e-21 5.37337e-21 -0.0912059)
(5.23439e-21 2.30857e-23 -0.0894841)
(-4.17542e-20 -1.18406e-19 -0.0837397)
(4.50075e-20 1.10089e-19 -0.0753307)
(-9.66429e-21 -2.54407e-21 -0.0654883)
(4.1555e-21 -6.96004e-21 -0.0552329)
(4.04679e-20 2.23095e-19 -0.0453334)
(-4.34398e-20 -2.21131e-19 -0.0363064)
(-3.68255e-20 -2.71295e-19 -0.0284433)
(4.59299e-21 -2.17413e-20 -0.0218529)
(3.33318e-20 2.9214e-19 -0.0165104)
(-1.07821e-21 -4.54548e-21 -0.0123044)
(-1.03016e-21 -1.06115e-20 -0.00907717)
(1.05844e-24 -9.43109e-24 -0.00665527)
(5.0097e-23 -1.09567e-25 -0.00487099)
(2.13362e-22 2.67493e-24 -0.0035751)
(-3.46134e-22 -6.29541e-21 -0.00264277)
(1.22414e-20 3.83407e-19 -0.0019742)
(-1.35234e-20 -4.1529e-19 -0.00149281)
(1.05395e-20 4.11253e-19 -0.00114236)
(-5.92493e-21 -2.05625e-19 -0.000882817)
(-9.09834e-21 -4.28711e-19 -0.000685991)
(4.06829e-21 2.15732e-19 -0.000532781)
(2.09883e-22 -6.7228e-21 -0.000410432)
(-5.79391e-22 -1.39443e-20 -0.000310385)
(3.86001e-22 7.04264e-21 -0.000226893)
(-2.83357e-22 -2.14958e-20 -0.000156042)
(2.68359e-21 2.2367e-19 -9.5104e-05)
(-5.62636e-21 -4.70695e-19 -4.21279e-05)
(2.61063e-21 2.25293e-19 4.32003e-06)
(-1.42544e-23 -2.19225e-20 4.53205e-05)
(-1.90482e-22 7.39636e-21 8.17114e-05)
(3.64299e-23 9.47058e-23 0.000114162)
(-9.12796e-22 -1.28044e-19 0.000143226)
(7.8558e-22 1.12951e-19 0.000169366)
(7.52418e-22 1.0685e-19 0.000192982)
(-1.02505e-21 -1.44975e-19 0.000214413)
(6.63403e-23 7.562e-21 0.000233966)
(1.45331e-22 3.87848e-20 0.000251939)
(-2.888e-22 -6.97674e-20 0.000268703)
(-1.87936e-22 -7.81418e-21 0.000284845)
(-1.53751e-22 -5.49242e-20 0.000301434)
(-8.58621e-23 -8.0029e-21 0.000320405)
(8.91945e-23 1.57424e-20 0.000344985)
(9.3325e-23 2.38259e-20 0.000379864)
(-1.53532e-20 3.82765e-23 -0.00814165)
(3.17779e-20 1.44288e-20 -0.0636133)
(-1.12017e-20 -2.21021e-21 -0.104224)
(-3.75412e-20 -1.19885e-20 -0.130835)
(1.4603e-20 6.70406e-21 -0.144973)
(-1.13132e-19 -1.67224e-19 -0.148623)
(1.22093e-19 1.51704e-19 -0.144028)
(1.58959e-19 2.79931e-19 -0.133488)
(-9.39082e-21 7.2852e-20 -0.119179)
(-3.01634e-19 -7.01501e-19 -0.103001)
(3.08296e-19 8.06686e-19 -0.0864832)
(-1.49917e-19 -4.15546e-19 -0.0707502)
(-1.04468e-21 -1.08546e-20 -0.0565358)
(-8.93684e-22 -1.0855e-21 -0.0442351)
(1.14725e-19 6.17415e-19 -0.0339742)
(-1.38894e-20 2.72447e-20 -0.0256849)
(-9.84249e-20 -6.34444e-19 -0.0191752)
(3.60434e-21 2.0832e-20 -0.0141889)
(-8.0462e-22 2.57526e-23 -0.0104507)
(3.67891e-23 -2.76736e-22 -0.00769749)
(2.78601e-20 3.89302e-19 -0.00569681)
(-2.70506e-20 -3.76599e-19 -0.00425488)
(-2.16836e-20 -3.95524e-19 -0.00321783)
(2.29914e-20 4.20634e-19 -0.00246757)
(3.95884e-22 1.3443e-20 -0.00191725)
(-4.92458e-22 -1.33545e-20 -0.00150611)
(1.41683e-22 1.38463e-20 -0.00119119)
(-1.20587e-20 -4.27707e-19 -0.000943229)
(1.31488e-20 4.41686e-19 -0.000742892)
(-1.05252e-20 -4.23031e-19 -0.000577249)
(1.13054e-20 4.5135e-19 -0.000437625)
(2.53753e-22 1.42966e-20 -0.000318111)
(8.12275e-21 4.64261e-19 -0.00021458)
(-1.59977e-20 -9.1689e-19 -0.000124067)
(8.62689e-21 4.8166e-19 -4.43726e-05)
(2.80913e-21 2.52241e-19 2.61799e-05)
(-2.44851e-21 -2.22214e-19 8.89163e-05)
(-6.71911e-22 -1.55855e-22 0.000144921)
(3.59772e-22 -7.94934e-24 0.000195109)
(1.02129e-22 -1.68243e-22 0.000240263)
(2.09037e-21 2.44054e-19 0.000281062)
(-2.18865e-21 -2.28767e-19 0.000318091)
(-5.42121e-25 1.52109e-20 0.000351867)
(2.77049e-22 -7.46063e-23 0.000382894)
(7.70734e-22 1.2437e-19 0.000411774)
(-1.69568e-21 -2.33546e-19 0.000439441)
(9.0012e-22 1.24786e-19 0.000467575)
(-4.44692e-22 -6.2812e-20 0.000499222)
(3.12438e-22 4.71014e-20 0.000539509)
(8.5981e-23 1.58071e-20 0.000596054)
(1.32576e-21 2.65508e-20 -0.0314736)
(8.66879e-21 -5.03433e-20 -0.106031)
(1.43867e-19 1.87168e-19 -0.157016)
(-3.81534e-19 -3.73218e-19 -0.187605)
(2.53412e-19 1.83433e-19 -0.201255)
(1.68232e-19 2.4501e-19 -0.201486)
(-1.89154e-19 -2.22904e-19 -0.191734)
(2.04397e-19 3.32442e-19 -0.175192)
(-4.29025e-19 -7.171e-19 -0.154677)
(2.36828e-19 3.71859e-19 -0.132525)
(-5.94122e-21 1.26391e-20 -0.110539)
(-4.57908e-21 7.45305e-22 -0.0899894)
(7.27312e-21 9.97029e-21 -0.071668)
(-1.7743e-19 -6.19736e-19 -0.0559645)
(1.68744e-19 5.9763e-19 -0.0429568)
(2.50053e-21 2.23499e-20 -0.0325032)
(-7.39819e-22 -1.14703e-20 -0.0243259)
(1.11508e-19 7.33869e-19 -0.0180798)
(-1.11576e-19 -7.32318e-19 -0.0134058)
(-1.41978e-21 -1.29223e-20 -0.00996606)
(-2.64722e-22 -1.29011e-23 -0.00746518)
(5.42973e-22 1.14185e-22 -0.00565928)
(2.67512e-22 -1.04334e-23 -0.00435455)
(-3.1217e-24 1.31826e-20 -0.00340408)
(9.52835e-22 6.40902e-23 -0.00270041)
(5.10611e-22 1.4199e-20 -0.00216741)
(-4.10918e-20 -8.9843e-19 -0.00175317)
(4.1236e-20 8.83839e-19 -0.00142179)
(-1.2208e-21 1.00824e-21 -0.00114975)
(-1.40894e-20 -4.56555e-19 -0.000921452)
(1.55581e-20 4.70442e-19 -0.000726447)
(-4.18387e-22 3.5377e-22 -0.000557632)
(-1.12539e-22 3.36001e-22 -0.000410036)
(-1.04816e-20 -4.86032e-19 -0.000280063)
(2.10218e-20 9.59674e-19 -0.000165018)
(-1.9657e-20 -9.50384e-19 -6.27976e-05)
(1.79552e-20 9.55866e-19 2.8307e-05)
(-1.64783e-20 -9.60637e-19 0.000109743)
(7.78213e-21 4.8098e-19 0.00018277)
(3.8385e-21 2.43571e-19 0.000248495)
(-3.31001e-21 -2.12553e-19 0.000307887)
(-6.16596e-23 -1.52805e-20 0.000361788)
(-2.86137e-21 -2.46406e-19 0.000410938)
(6.03109e-21 5.23928e-19 0.000456042)
(-2.89496e-21 -2.46711e-19 0.000497913)
(1.10242e-22 -1.7193e-22 0.000537765)
(2.10686e-22 1.55658e-20 0.000577755)
(-1.20177e-22 1.96317e-23 0.000621793)
(-1.08331e-22 -1.56799e-20 0.000676563)
(2.53591e-22 3.13999e-20 0.000752354)
(2.70695e-20 -1.35163e-23 -0.0769211)
(-9.12991e-22 -6.7371e-22 -0.167033)
(-5.71207e-20 -1.53333e-21 -0.221143)
(7.58131e-20 -3.10269e-21 -0.248637)
(-2.76511e-20 -6.639e-21 -0.256007)
(-3.11067e-20 -1.43231e-21 -0.248675)
(1.49309e-20 4.62035e-21 -0.231214)
(-7.65123e-21 -6.31198e-21 -0.207471)
(4.24363e-20 -1.71441e-20 -0.180591)
(5.20468e-19 1.00795e-18 -0.153025)
(-3.25193e-20 8.83764e-20 -0.126557)
(-5.20224e-19 -1.11605e-18 -0.102378)
(4.57541e-19 1.24218e-18 -0.0811713)
(-4.65056e-19 -1.24082e-18 -0.0632118)
(1.91867e-19 6.88439e-19 -0.0484699)
(-1.98548e-19 -7.11714e-19 -0.0367051)
(3.51691e-21 9.90027e-21 -0.0275521)