/*--------------------------------*- C++ -*----------------------------------*\
| =========                 |                                                 |
| \\      /  F ield         | OpenFOAM: The Open Source CFD Toolbox           |
|  \\    /   O peration     | Version:  2412                                  |
|   \\  /    A nd           | Website:  www.openfoam.com                      |
|    \\/     M anipulation  |                                                 |
\*---------------------------------------------------------------------------*/
FoamFile
{
    version     2.0;
    format      ascii;
    arch        "LSB;label=32;scalar=64";
    class       volScalarField;
    location    "24";
    object      p;
}
// * * * * * * * * * * * * * * * * * * * * * * * * * * * * * * * * * * * * * //

dimensions      [0 2 -2 0 0 0 0];

internalField   nonuniform List<scalar> 
63420
(
0.000923693
0.000923954
0.000924784
0.000926064
0.00092778
0.000929916
0.000932457
0.000935389
0.0009387
0.000942381
0.000946422
0.000950817
0.000955559
0.000960642
0.000966061
0.000971812
0.00097789
0.000984292
0.000991015
0.000998058
0.00100542
0.0010131
0.00102111
0.00102943
0.00103808
0.00104706
0.00105637
0.00106601
0.00107599
0.00108631
0.00109697
0.00110797
0.00111933
0.00113104
0.0011431
0.00115553
0.00116832
0.00118147
0.001195
0.0012089
0.00122318
0.00123785
0.0012529
0.00126834
0.00128417
0.00130041
0.00131705
0.0013341
0.00135156
0.00136943
0.00138773
0.00140645
0.0014256
0.00144519
0.00146522
0.000923633
0.000923894
0.000924723
0.000926002
0.000927717
0.000929852
0.000932391
0.000935321
0.000938629
0.000942307
0.000946346
0.000950737
0.000955475
0.000960554
0.000965969
0.000971715
0.000977787
0.000984184
0.000990901
0.000997938
0.00100529
0.00101297
0.00102096
0.00102928
0.00103792
0.00104689
0.00105619
0.00106582
0.00107579
0.00108609
0.00109674
0.00110773
0.00111908
0.00113077
0.00114282
0.00115523
0.001168
0.00118113
0.00119464
0.00120852
0.00122278
0.00123742
0.00125244
0.00126786
0.00128366
0.00129987
0.00131648
0.00133349
0.00135091
0.00136875
0.001387
0.00140568
0.00142479
0.00144433
0.00146431
0.000923513
0.000923774
0.000924601
0.000925879
0.000927591
0.000929723
0.000932258
0.000935184
0.000938488
0.00094216
0.000946192
0.000950577
0.000955307
0.000960378
0.000965784
0.000971521
0.000977583
0.000983969
0.000990674
0.000997698
0.00100504
0.0010127
0.00102068
0.00102898
0.00103761
0.00104656
0.00105584
0.00106545
0.00107539
0.00108567
0.00109629
0.00110726
0.00111857
0.00113024
0.00114225
0.00115463
0.00116736
0.00118046
0.00119393
0.00120776
0.00122197
0.00123657
0.00125154
0.0012669
0.00128265
0.00129879
0.00131533
0.00133228
0.00134963
0.00136739
0.00138556
0.00140415
0.00142317
0.00144261
0.00146248
0.000923333
0.000923593
0.000924419
0.000925694
0.000927402
0.00092953
0.00093206
0.000934979
0.000938275
0.000941939
0.000945962
0.000950337
0.000955056
0.000960115
0.000965508
0.00097123
0.000977277
0.000983646
0.000990334
0.000997339
0.00100466
0.0010123
0.00102026
0.00102853
0.00103713
0.00104605
0.0010553
0.00106488
0.00107479
0.00108504
0.00109562
0.00110655
0.00111782
0.00112944
0.00114141
0.00115373
0.00116641
0.00117945
0.00119285
0.00120663
0.00122077
0.00123529
0.00125019
0.00126546
0.00128113
0.00129718
0.00131363
0.00133047
0.00134771
0.00136535
0.0013834
0.00140187
0.00142074
0.00144004
0.00145975
0.000923093
0.000923353
0.000924176
0.000925448
0.000927151
0.000929272
0.000931795
0.000934706
0.000937992
0.000941645
0.000945656
0.000950017
0.000954722
0.000959764
0.00096514
0.000970843
0.000976869
0.000983216
0.000989881
0.000996861
0.00100416
0.00101177
0.00101969
0.00102794
0.0010365
0.00104539
0.00105459
0.00106413
0.001074
0.0010842
0.00109473
0.0011056
0.00111682
0.00112837
0.00114028
0.00115253
0.00116514
0.00117811
0.00119143
0.00120512
0.00121917
0.00123359
0.00124839
0.00126356
0.00127911
0.00129504
0.00131136
0.00132806
0.00134516
0.00136265
0.00138054
0.00139883
0.00141753
0.00143663
0.00145613
0.000922794
0.000923053
0.000923873
0.00092514
0.000926837
0.000928951
0.000931465
0.000934364
0.000937639
0.000941279
0.000945274
0.000949618
0.000954304
0.000959327
0.00096468
0.000970359
0.000976361
0.00098268
0.000989315
0.000996264
0.00100353
0.0010111
0.00101899
0.00102719
0.00103571
0.00104455
0.00105371
0.0010632
0.00107301
0.00108315
0.00109362
0.00110442
0.00111557
0.00112705
0.00113887
0.00115105
0.00116356
0.00117643
0.00118966
0.00120324
0.00121718
0.00123148
0.00124615
0.00126119
0.00127659
0.00129238
0.00130853
0.00132507
0.00134199
0.00135929
0.00137699
0.00139506
0.00141353
0.00143239
0.00145164
0.000922435
0.000922693
0.000923509
0.000924771
0.000926461
0.000928566
0.000931069
0.000933956
0.000937216
0.000940839
0.000944816
0.00094914
0.000953804
0.000958803
0.00096413
0.000969781
0.000975751
0.000982038
0.000988638
0.000995549
0.00100277
0.0010103
0.00101815
0.0010263
0.00103477
0.00104355
0.00105265
0.00106208
0.00107182
0.00108189
0.00109229
0.00110301
0.00111407
0.00112547
0.0011372
0.00114927
0.00116168
0.00117444
0.00118754
0.00120099
0.0012148
0.00122896
0.00124348
0.00125836
0.0012736
0.0012892
0.00130517
0.00132151
0.00133821
0.0013553
0.00137275
0.00139058
0.00140878
0.00142736
0.0014463
0.00148575
0.00150699
0.00152915
0.00155226
0.00157639
0.00160159
0.00162793
0.00165548
0.00168432
0.00171453
0.00174619
0.0017794
0.00181427
0.00185091
0.00188943
0.00192998
0.0019727
0.00201775
0.0020653
0.00211553
0.00216866
0.00222492
0.00228456
0.00234785
0.00241509
0.00248662
0.0025628
0.00264405
0.0027308
0.00282356
0.00292286
0.00302931
0.00314353
0.00326626
0.00339822
0.00354023
0.00369308
0.00385755
0.00403429
0.00422371
0.00442578
0.00463978
0.00486396
0.00509533
0.00533003
0.00556417
0.00579419
0.00602654
0.0063263
0.00678265
0.00148481
0.00150606
0.00152821
0.00155132
0.00157544
0.00160064
0.00162698
0.00165453
0.00168336
0.00171356
0.00174522
0.00177843
0.00181328
0.00184991
0.00188842
0.00192895
0.00197164
0.00201666
0.00206417
0.00211436
0.00216743
0.00222362
0.00228317
0.00234635
0.00241346
0.00248482
0.0025608
0.00264179
0.00272823
0.00282059
0.0029194
0.00302522
0.00313865
0.00326037
0.00339106
0.00353143
0.00368216
0.00384388
0.00401706
0.00420182
0.00439782
0.00460387
0.00481765
0.0050355
0.00525269
0.00546444
0.00566667
0.00586498
0.00612022
0.00651469
0.00148293
0.00150418
0.00152632
0.00154943
0.00157355
0.00159874
0.00162507
0.00165261
0.00168144
0.00171163
0.00174327
0.00177646
0.0018113
0.0018479
0.00188638
0.00192687
0.00196952
0.00201448
0.00206192
0.00211202
0.00216498
0.00222103
0.00228041
0.00234337
0.00241022
0.00248126
0.00255684
0.00263733
0.00272314
0.00281473
0.00291255
0.00301714
0.00312903
0.00324877
0.00337693
0.00351406
0.00366061
0.0038169
0.00398299
0.00415849
0.00434234
0.00453245
0.00472534
0.00491594
0.00509777
0.00526425
0.00541046
0.0055405
0.00570275
0.00598588
0.00148012
0.00150136
0.0015235
0.00154659
0.0015707
0.00159588
0.0016222
0.00164973
0.00167854
0.00170871
0.00174034
0.0017735
0.0018083
0.00184486
0.00188329
0.00192372
0.00196629
0.00201116
0.00205848
0.00210843
0.00216122
0.00221705
0.00227616
0.0023388
0.00240524
0.00247577
0.00255073
0.00263045
0.00271531
0.0028057
0.00290204
0.00300476
0.00311428
0.00323104
0.00335539
0.00348764
0.0036279
0.00377606
0.00393158
0.00409327
0.00425901
0.00442536
0.00458712
0.00473707
0.0048662
0.00496504
0.00502736
0.00505842
0.00509128
0.0051783
0.00147639
0.00149762
0.00151975
0.00154284
0.00156694
0.00159211
0.00161842
0.00164594
0.00167474
0.00170489
0.00173649
0.00176963
0.0018044
0.00184091
0.00187929
0.00191965
0.00196213
0.00200688
0.00205406
0.00210384
0.0021564
0.00221196
0.00227073
0.00233294
0.00239885
0.00246873
0.00254287
0.00262157
0.00270516
0.00279397
0.00288831
0.00298852
0.00309487
0.0032076
0.00332681
0.00345245
0.0035842
0.00372133
0.00386249
0.00400545
0.0041467
0.00428101
0.00440093
0.00449651
0.00455552
0.00456475
0.00451529
0.00441528
0.00428666
0.00407072
0.00147175
0.00149299
0.00151513
0.00153823
0.00156235
0.00158754
0.00161388
0.00164142
0.00167025
0.00170044
0.00173207
0.00176524
0.00180005
0.0018366
0.001875
0.00191538
0.00195788
0.00200264
0.0020498
0.00209954
0.00215205
0.0022075
0.00226611
0.0023281
0.00239371
0.00246318
0.00253677
0.00261474
0.00269736
0.00278489
0.00287756
0.00297556
0.00307901
0.00318789
0.00330198
0.00342077
0.0035433
0.00366792
0.00379204
0.00391172
0.00402116
0.00411217
0.00417359
0.0041911
0.0041475
0.00402456
0.00380895
0.00350963
0.00314032
0.00251568
0.0014662
0.00148737
0.00150946
0.00153251
0.00155657
0.00158172
0.00160801
0.00163551
0.00166429
0.00169444
0.00172602
0.00175915
0.0017939
0.0018304
0.00186874
0.00190906
0.00195148
0.00199615
0.00204321
0.00209283
0.00214518
0.00220044
0.00225882
0.00232052
0.00238575
0.00245474
0.00252773
0.00260493
0.00268656
0.00277281
0.00286383
0.00295968
0.00306031
0.00316545
0.00327455
0.00338659
0.00349989
0.00361172
0.00371793
0.00381234
0.00388602
0.00392655
0.00391746
0.0038382
0.00366501
0.00337239
0.00294358
0.00239171
0.00168034
0.000522133
-0.00349422
-0.00356287
-0.00358498
-0.00357416
-0.00354217
-0.00349193
-0.00342502
-0.00334275
-0.00324881
-0.00314283
-0.0030264
-0.00290122
-0.00276852
-0.00262959
-0.00248576
-0.00233837
-0.00218868
-0.00203796
-0.0018874
-0.00173814
-0.00159124
-0.00144763
-0.00130818
-0.00117376
-0.00104505
-0.000922548
-0.000806666
-0.000697741
-0.000596012
-0.000501612
-0.000414577
-0.000334859
-0.000262334
-0.000196813
-0.000138046
-8.5737e-05
-3.95508e-05
8.7697e-07
3.59313e-05
6.60096e-05
9.1515e-05
0.000112849
0.000130406
0.000144568
0.000155704
0.00016416
0.000170264
0.000174318
0.000176601
0.000177369
-0.00356692
-0.00361442
-0.0036238
-0.00360539
-0.00356827
-0.0035146
-0.0034452
-0.00336046
-0.00326705
-0.00316106
-0.00304461
-0.00291954
-0.00278695
-0.0026481
-0.00250432
-0.00235693
-0.00220718
-0.00205631
-0.00190551
-0.00175594
-0.00160863
-0.00146454
-0.00132455
-0.00118952
-0.00106016
-0.000936981
-0.000820392
-0.000710741
-0.000608279
-0.000513146
-0.000425385
-0.000344956
-0.00027174
-0.000205551
-0.000146143
-9.32221e-05
-4.64559e-05
-5.48072e-06
3.00881e-05
6.0648e-05
8.66025e-05
0.000108354
0.000126298
0.000140819
0.000152285
0.000161047
0.000167432
0.000171745
0.000174265
0.000175255
-0.00371149
-0.00371603
-0.00370016
-0.00366667
-0.00361924
-0.00355871
-0.00348542
-0.00340062
-0.00330346
-0.00319654
-0.00307929
-0.00295462
-0.00282221
-0.00268354
-0.00253999
-0.00239268
-0.00224286
-0.00209175
-0.00194055
-0.00179041
-0.00164238
-0.00149741
-0.00135639
-0.00122021
-0.0010896
-0.000965127
-0.000847186
-0.000736141
-0.000632265
-0.000535714
-0.000446549
-0.00036474
-0.000290179
-0.00022269
-0.000162033
-0.00010792
-6.00218e-05
-1.7977e-05
1.85978e-05
5.01e-05
7.6934e-05
9.95035e-05
0.000118207
0.00013343
0.000145545
0.000154904
0.00016184
0.000166661
0.000169648
0.000171076
-0.00393379
-0.00386056
-0.00381146
-0.0037552
-0.00369205
-0.00362133
-0.00354143
-0.00345349
-0.00335436
-0.0032482
-0.00312611
-0.00300331
-0.00287174
-0.00273356
-0.00259034
-0.00244322
-0.00229339
-0.00214203
-0.00199035
-0.00183947
-0.00169047
-0.00154433
-0.00140192
-0.00126415
-0.00113182
-0.00100551
-0.000885678
-0.000772671
-0.000666797
-0.00056824
-0.000477081
-0.000393309
-0.000316833
-0.000247487
-0.000185044
-0.000129224
-7.97018e-05
-3.6121e-05
1.89983e-06
3.4758e-05
6.28586e-05
8.66073e-05
0.000106405
0.000122642
0.000135693
0.000145916
0.000153649
0.000159203
0.000162865
0.000164927
-0.00421478
-0.00404908
-0.0039552
-0.00386601
-0.00378184
-0.00369787
-0.00360902
-0.00351673
-0.00341444
-0.00330516
-0.00318718
-0.00306277
-0.00293126
-0.00279369
-0.00265104
-0.00250434
-0.00235469
-0.00220326
-0.00205119
-0.00189963
-0.00174966
-0.00160227
-0.00145836
-0.00131881
-0.00118449
-0.00105607
-0.000933993
-0.000818656
-0.000710387
-0.000609408
-0.000515826
-0.000429653
-0.000350819
-0.000279177
-0.000214514
-0.00015656
-0.000105001
-5.94844e-05
-1.9634e-05
1.4946e-05
4.46605e-05
6.99166e-05
9.11175e-05
0.000108657
0.000122914
0.000134252
0.000143012
0.000149513
0.000154051
0.000156935
-0.00451087
-0.0042824
-0.00413321
-0.0040037
-0.00389031
-0.00378506
-0.003685
-0.00358382
-0.00347685
-0.00336509
-0.00324709
-0.00312273
-0.00299221
-0.00285599
-0.00271474
-0.00256934
-0.00242077
-0.00227011
-0.00211845
-0.0019669
-0.00181656
-0.00166842
-0.0015234
-0.00138239
-0.00124627
-0.00111577
-0.000991438
-0.000873674
-0.000762847
-0.000659219
-0.000562936
-0.000474042
-0.000392497
-0.000318179
-0.000250896
-0.000190399
-0.000136386
-8.85186e-05
-4.64266e-05
-9.72081e-06
2.20004e-05
4.91428e-05
7.21098e-05
9.12967e-05
0.000107086
0.000119843
0.000129916
0.000137627
0.000143285
0.000147212
-0.00479523
-0.00457509
-0.00437347
-0.00419324
-0.00403739
-0.00389529
-0.00378485
-0.0036695
-0.00355499
-0.00343902
-0.00331904
-0.00319425
-0.00306429
-0.00292915
-0.0027892
-0.00264507
-0.00249756
-0.00234763
-0.00219629
-0.00204463
-0.0018937
-0.00174457
-0.00159814
-0.0014553
-0.00131698
-0.00118398
-0.0010569
-0.000936229
-0.000822353
-0.000715588
-0.000616121
-0.000524037
-0.00043933
-0.000361907
-0.000291602
-0.000228186
-0.000171374
-0.000120838
-7.62193e-05
-3.71321e-05
-3.17781e-06
2.60495e-05
5.09552e-05
7.1938e-05
8.93852e-05
0.000103668
0.00011514
0.000124131
0.000130961
0.000135948
0.000176851
0.000175161
0.0001725
0.000169036
0.000164894
0.000160192
0.000155038
0.000149533
0.000143767
0.00013782
0.000131764
0.000125661
0.000119565
0.000113524
0.000107577
0.000101756
9.6087e-05
9.05911e-05
8.52838e-05
8.01765e-05
7.52768e-05
7.0589e-05
6.61151e-05
6.18545e-05
5.78052e-05
5.39634e-05
5.03245e-05
4.68832e-05
4.36333e-05
4.05686e-05
3.76825e-05
3.49684e-05
3.24197e-05
3.00295e-05
2.77914e-05
2.56985e-05
2.37441e-05
2.19215e-05
2.02239e-05
1.86444e-05
1.71767e-05
1.58135e-05
1.455e-05
1.33759e-05
1.22902e-05
1.12891e-05
1.03583e-05
9.49884e-06
8.70589e-06
7.97407e-06
7.29929e-06
6.67763e-06
6.10536e-06
5.57897e-06
5.09518e-06
4.65089e-06
4.2432e-06
3.86937e-06
3.52684e-06
3.21323e-06
2.92629e-06
2.66393e-06
2.42422e-06
2.20532e-06
2.00557e-06
1.82339e-06
1.65734e-06
1.50609e-06
1.36838e-06
1.24307e-06
1.1291e-06
1.02549e-06
9.31334e-07
8.45818e-07
7.68193e-07
6.97729e-07
6.33844e-07
5.75899e-07
5.23469e-07
4.75911e-07
4.33084e-07
3.94004e-07
3.59377e-07
3.26919e-07
2.99746e-07
2.71748e-07
2.52406e-07
2.25557e-07
2.16549e-07
1.85077e-07
1.92545e-07
1.4632e-07
1.82024e-07
1.04802e-07
1.87276e-07
5.6747e-08
2.09233e-07
1.46506e-09
2.44412e-07
-5.55295e-08
2.82262e-07
-1.01078e-07
3.06632e-07
-1.19045e-07
3.03648e-07
-1.02166e-07
2.76379e-07
-6.70413e-08
2.57459e-07
-6.15487e-08
3.08043e-07
-1.54572e-07
4.97422e-07
-4.12356e-07
8.70651e-07
0.000174974
0.000173404
0.00017086
0.000167522
0.000163504
0.000158918
0.000153874
0.000148471
0.0001428
0.00013694
0.000130964
0.000124935
0.000118907
0.000112928
0.000107037
0.000101267
9.56447e-05
9.01912e-05
8.49223e-05
7.98498e-05
7.49817e-05
7.03226e-05
6.58746e-05
6.16375e-05
5.76094e-05
5.37869e-05
5.01655e-05
4.674e-05
4.35045e-05
4.04528e-05
3.75784e-05
3.4875e-05
3.23358e-05
2.99544e-05
2.7724e-05
2.56382e-05
2.36901e-05
2.18732e-05
2.01807e-05
1.86058e-05
1.71422e-05
1.57826e-05
1.45224e-05
1.33512e-05
1.22682e-05
1.12694e-05
1.03408e-05
9.48318e-06
8.69194e-06
7.96164e-06
7.28824e-06
6.66781e-06
6.09664e-06
5.57124e-06
5.08833e-06
4.64483e-06
4.23784e-06
3.86463e-06
3.52266e-06
3.20954e-06
2.92304e-06
2.66107e-06
2.4217e-06
2.20311e-06
2.00363e-06
1.8217e-06
1.65585e-06
1.50478e-06
1.36724e-06
1.24207e-06
1.12822e-06
1.02472e-06
9.30666e-07
8.45234e-07
7.67685e-07
6.97286e-07
6.33458e-07
5.75564e-07
5.23176e-07
4.75658e-07
4.32861e-07
3.93812e-07
3.59209e-07
3.26772e-07
2.99619e-07
2.7164e-07
2.52309e-07
2.25476e-07
2.16474e-07
1.85017e-07
1.92484e-07
1.46279e-07
1.81972e-07
1.04776e-07
1.8723e-07
5.67311e-08
2.0919e-07
1.45734e-09
2.44377e-07
-5.55357e-08
2.82234e-07
-1.01084e-07
3.0661e-07
-1.19051e-07
3.03629e-07
-1.02174e-07
2.7636e-07
-6.704e-08
2.57413e-07
-6.15074e-08
3.07969e-07
-1.54525e-07
4.974e-07
-4.12367e-07
8.70846e-07
0.00017124
0.000169913
0.000167603
0.000164518
0.000160745
0.00015639
0.000151563
0.000146363
0.000140879
0.000135192
0.000129375
0.000123492
0.000117598
0.000111741
0.000105962
0.000100294
9.47641e-05
8.93946e-05
8.42022e-05
7.9199e-05
7.43938e-05
6.97916e-05
6.53952e-05
6.12049e-05
5.72192e-05
5.34351e-05
4.98485e-05
4.64545e-05
4.32475e-05
4.02216e-05
3.73708e-05
3.46885e-05
3.21685e-05
2.98044e-05
2.75897e-05
2.55179e-05
2.35825e-05
2.17769e-05
2.00945e-05
1.85287e-05
1.70732e-05
1.5721e-05
1.44672e-05
1.3302e-05
1.22242e-05
1.12301e-05
1.03057e-05
9.4519e-06
8.66406e-06
7.93683e-06
7.26616e-06
6.64819e-06
6.07922e-06
5.55579e-06
5.07465e-06
4.63271e-06
4.22712e-06
3.85516e-06
3.5143e-06
3.20217e-06
2.91654e-06
2.65535e-06
2.41668e-06
2.1987e-06
1.99975e-06
1.81829e-06
1.65287e-06
1.50217e-06
1.36495e-06
1.24007e-06
1.12647e-06
1.02319e-06
9.29331e-07
8.4407e-07
7.66666e-07
6.96401e-07
6.32688e-07
5.74894e-07
5.22597e-07
4.7515e-07
4.32423e-07
3.93426e-07
3.58873e-07
3.26482e-07
2.99364e-07
2.7142e-07
2.52114e-07
2.25315e-07
2.16319e-07
1.849e-07
1.92359e-07
1.46196e-07
1.81866e-07
1.04727e-07
1.87135e-07
5.67064e-08
2.09103e-07
1.44404e-09
2.44296e-07
-5.55402e-08
2.82175e-07
-1.01093e-07
3.06568e-07
-1.19071e-07
3.036e-07
-1.02196e-07
2.76325e-07
-6.70444e-08
2.57346e-07
-6.14622e-08
3.0786e-07
-1.54465e-07
4.9739e-07
-4.12417e-07
8.71236e-07
0.000165694
0.000164733
0.000162784
0.000160075
0.000156664
0.000152649
0.000148141
0.000143239
0.000138031
0.000132599
0.000127017
0.000121349
0.000115653
0.000109977
0.000104363
9.88455e-05
9.3453e-05
8.82084e-05
8.31293e-05
7.82292e-05
7.35173e-05
6.89999e-05
6.46803e-05
6.05596e-05
5.66369e-05
5.291e-05
4.93752e-05
4.60281e-05
4.28637e-05
3.98764e-05
3.70605e-05
3.44099e-05
3.19185e-05
2.95802e-05
2.73888e-05
2.5338e-05
2.34214e-05
2.16327e-05
1.99656e-05
1.84134e-05
1.697e-05
1.56287e-05
1.43847e-05
1.32282e-05
1.21583e-05
1.11712e-05
1.02532e-05
9.40508e-06
8.62233e-06
7.89967e-06
7.23311e-06
6.61882e-06
6.05314e-06
5.53266e-06
5.05415e-06
4.61457e-06
4.21107e-06
3.84098e-06
3.50178e-06
3.19113e-06
2.90681e-06
2.64679e-06
2.40915e-06
2.19208e-06
1.99395e-06
1.8132e-06
1.64841e-06
1.49826e-06
1.36153e-06
1.23708e-06
1.12386e-06
1.0209e-06
9.27333e-07
8.42326e-07
7.65144e-07
6.95076e-07
6.31533e-07
5.73891e-07
5.21725e-07
4.74389e-07
4.31762e-07
3.92849e-07
3.5837e-07
3.26046e-07
2.98981e-07
2.71092e-07
2.51821e-07
2.25072e-07
2.1609e-07
1.84721e-07
1.92173e-07
1.46072e-07
1.8171e-07
1.04651e-07
1.86995e-07
5.66661e-08
2.08976e-07
1.42413e-09
2.44181e-07
-5.55496e-08
2.82089e-07
-1.01109e-07
3.06508e-07
-1.19102e-07
3.03558e-07
-1.02233e-07
2.76276e-07
-6.70533e-08
2.57247e-07
-6.13992e-08
3.07705e-07
-1.5438e-07
4.97379e-07
-4.12497e-07
8.71814e-07
0.000158407
0.00015794
0.000156481
0.000154265
0.000151325
0.000147754
0.00014366
0.000139144
0.000134295
0.000129194
0.000123918
0.000118532
0.000113093
0.000107654
0.000102256
9.69357e-05
9.17232e-05
8.66425e-05
8.17125e-05
7.69477e-05
7.23588e-05
6.79529e-05
6.37346e-05
5.97056e-05
5.58662e-05
5.22147e-05
4.87483e-05
4.54633e-05
4.23552e-05
3.94189e-05
3.66492e-05
3.40404e-05
3.15869e-05
2.92828e-05
2.71222e-05
2.50991e-05
2.32076e-05
2.14413e-05
1.97943e-05
1.82601e-05
1.6833e-05
1.55061e-05
1.42751e-05
1.31302e-05
1.20708e-05
1.1093e-05
1.01834e-05
9.34281e-06
8.56684e-06
7.85027e-06
7.18916e-06
6.57975e-06
6.01846e-06
5.50189e-06
5.02688e-06
4.59043e-06
4.18972e-06
3.82211e-06
3.48512e-06
3.17643e-06
2.89387e-06
2.6354e-06
2.39913e-06
2.18328e-06
1.98622e-06
1.80642e-06
1.64247e-06
1.49306e-06
1.35698e-06
1.23309e-06
1.12037e-06
1.01786e-06
9.24674e-07
8.40005e-07
7.63118e-07
6.93312e-07
6.29996e-07
5.72554e-07
5.20562e-07
4.73376e-07
4.3088e-07
3.9208e-07
3.577e-07
3.25466e-07
2.98472e-07
2.70654e-07
2.51431e-07
2.24745e-07
2.15785e-07
1.84482e-07
1.91928e-07
1.45904e-07
1.81506e-07
1.04544e-07
1.86816e-07
5.66048e-08
2.08816e-07
1.38858e-09
2.44042e-07
-5.55757e-08
2.81988e-07
-1.01147e-07
3.06443e-07
-1.19159e-07
3.03518e-07
-1.02295e-07
2.76223e-07
-6.70757e-08
2.57126e-07
-6.13275e-08
3.07513e-07
-1.54284e-07
4.97384e-07
-4.12627e-07
8.72593e-07
0.000149471
0.000149637
0.000148799
0.000147185
0.000144815
0.000141779
0.000138186
0.000134136
0.00012972
0.000125021
0.000120115
0.00011507
0.000109946
0.000104795
9.96608e-05
9.4582e-05
8.95898e-05
8.47099e-05
7.99628e-05
7.53644e-05
7.09266e-05
6.66581e-05
6.25644e-05
5.86486e-05
5.49118e-05
5.13534e-05
4.79715e-05
4.47632e-05
4.17245e-05
3.88513e-05
3.61387e-05
3.35817e-05
3.11751e-05
2.89133e-05
2.67909e-05
2.48023e-05
2.29417e-05
2.12033e-05
1.95812e-05
1.80695e-05
1.66623e-05
1.53535e-05
1.41386e-05
1.30082e-05
1.19618e-05
1.09955e-05
1.00964e-05
9.26526e-06
8.49772e-06
7.78872e-06
7.1344e-06
6.53108e-06
5.97524e-06
5.46355e-06
4.9929e-06
4.56034e-06
4.16311e-06
3.79859e-06
3.46436e-06
3.15812e-06
2.87773e-06
2.62119e-06
2.38663e-06
2.1723e-06
1.97658e-06
1.79796e-06
1.63506e-06
1.48657e-06
1.35129e-06
1.22812e-06
1.11603e-06
1.01406e-06
9.21358e-07
8.37111e-07
7.60592e-07
6.91111e-07
6.28078e-07
5.70886e-07
5.1911e-07
4.72111e-07
4.29779e-07
3.91121e-07
3.56864e-07
3.24741e-07
2.97836e-07
2.70108e-07
2.50945e-07
2.24338e-07
2.15405e-07
1.84183e-07
1.91623e-07
1.45695e-07
1.81251e-07
1.04412e-07
1.86591e-07
5.65299e-08
2.08614e-07
1.34792e-09
2.43867e-07
-5.56042e-08
2.81858e-07
-1.01189e-07
3.06358e-07
-1.19226e-07
3.03463e-07
-1.02367e-07
2.76154e-07
-6.7101e-08
2.56975e-07
-6.1239e-08
3.07276e-07
-1.54166e-07
4.97387e-07
-4.1278e-07
8.73515e-07
0.000138994
0.000139944
0.000139862
0.000138948
0.000137232
0.000134811
0.000131793
0.00012828
0.000124363
0.000120127
0.000115651
0.000111002
0.000106243
0.000101427
9.6601e-05
9.18042e-05
8.70699e-05
8.24255e-05
7.7893e-05
7.34901e-05
6.92303e-05
6.51235e-05
6.11768e-05
5.73945e-05
5.37789e-05
5.03306e-05
4.70487e-05
4.3931e-05
4.09747e-05
3.81762e-05
3.55314e-05
3.30358e-05
3.06847e-05
2.84732e-05
2.63961e-05
2.44484e-05
2.26246e-05
2.09193e-05
1.93269e-05
1.78419e-05
1.64586e-05
1.51712e-05
1.39755e-05
1.28625e-05
1.18315e-05
1.08791e-05
9.99254e-06
9.17257e-06
8.4151e-06
7.71514e-06
7.06894e-06
6.47289e-06
5.92356e-06
5.4177e-06
4.95226e-06
4.52436e-06
4.13127e-06
3.77046e-06
3.43952e-06
3.13621e-06
2.85842e-06
2.6042e-06
2.37168e-06
2.15916e-06
1.96504e-06
1.78784e-06
1.62619e-06
1.4788e-06
1.34449e-06
1.22217e-06
1.11082e-06
1.00952e-06
9.17387e-07
8.33644e-07
7.57567e-07
6.88474e-07
6.25781e-07
5.68885e-07
5.17368e-07
4.70595e-07
4.28459e-07
3.89973e-07
3.55861e-07
3.23873e-07
2.97073e-07
2.69455e-07
2.50357e-07
2.23854e-07
2.14942e-07
1.83836e-07
1.91239e-07
1.45468e-07
1.80912e-07
1.04297e-07
1.86264e-07
5.65156e-08
2.0828e-07
1.41335e-09
2.43526e-07
-5.54876e-08
2.81536e-07
-1.01065e-07
3.06078e-07
-1.19131e-07
3.03233e-07
-1.02307e-07
2.75941e-07
-6.70197e-08
2.56693e-07
-6.10363e-08
3.0688e-07
-1.53877e-07
4.97177e-07
-4.12671e-07
8.74218e-07
0.00012676
0.000128726
0.000129569
0.000129454
0.00012848
0.000126754
0.000124389
0.000121485
0.000118137
0.000114431
0.000110446
0.000106253
0.000101914
9.74859e-05
9.30163e-05
8.85466e-05
8.41119e-05
7.97415e-05
7.54592e-05
7.12845e-05
6.72326e-05
6.33151e-05
5.95406e-05
5.59149e-05
5.24417e-05
4.91227e-05
4.59582e-05
4.29473e-05
4.00879e-05
3.73774e-05
3.48124e-05
3.23892e-05
3.01036e-05
2.79514e-05
2.5928e-05
2.40286e-05
2.22483e-05
2.05822e-05
1.9025e-05
1.75715e-05
1.62166e-05
1.49546e-05
1.37817e-05
1.26892e-05
1.16766e-05
1.07406e-05
9.86895e-06
9.06231e-06
8.3168e-06
7.62759e-06
6.99103e-06
6.40363e-06
5.86204e-06
5.36311e-06
4.90387e-06
4.4815e-06
4.09335e-06
3.73694e-06
3.40992e-06
3.1101e-06
2.83542e-06
2.58394e-06
2.35386e-06
2.1435e-06
1.95129e-06
1.77578e-06
1.61561e-06
1.46953e-06
1.33638e-06
1.21507e-06
1.10462e-06
1.00409e-06
9.12648e-07
8.29507e-07
7.53958e-07
6.85327e-07
6.23038e-07
5.66497e-07
5.15289e-07
4.68785e-07
4.26881e-07
3.88601e-07
3.54662e-07
3.22837e-07
2.96158e-07
2.68678e-07
2.49649e-07
2.23284e-07
2.14374e-07
1.83443e-07
1.90751e-07
1.45241e-07
1.80447e-07
1.0424e-07
1.85767e-07
5.6632e-08
2.07714e-07
1.69258e-09
2.42884e-07
-5.50821e-08
2.80859e-07
-1.00609e-07
3.05429e-07
-1.18713e-07
3.02672e-07
-1.01977e-07
2.75463e-07
-6.67321e-08
2.56189e-07
-6.06305e-08
3.06216e-07
-1.53275e-07
4.96558e-07
-4.12031e-07
8.74406e-07
0.00011334
0.000116281
0.000118049
0.000118791
0.000118622
0.000117658
0.000116011
0.000113782
0.000111066
0.00010795
0.000104514
0.000100831
9.69656e-05
9.29742e-05
8.89072e-05
8.48078e-05
8.0713e-05
7.6654e-05
7.26568e-05
6.87425e-05
6.49282e-05
6.12273e-05
5.76502e-05
5.42041e-05
5.08944e-05
4.77242e-05
4.4695e-05
4.1807e-05
3.90594e-05
3.64504e-05
3.39776e-05
3.16379e-05
2.94282e-05
2.73446e-05
2.53832e-05
2.35397e-05
2.18099e-05
2.01892e-05
1.86728e-05
1.7256e-05
1.59341e-05
1.47017e-05
1.35553e-05
1.24868e-05
1.14956e-05
1.05788e-05
9.72453e-06
8.93345e-06
8.20191e-06
7.52525e-06
6.89995e-06
6.32265e-06
5.7901e-06
5.29928e-06
4.84727e-06
4.43137e-06
4.049e-06
3.69773e-06
3.3753e-06
3.07955e-06
2.80849e-06
2.56023e-06
2.333e-06
2.12516e-06
1.93519e-06
1.76165e-06
1.60322e-06
1.45868e-06
1.32688e-06
1.20676e-06
1.09735e-06
9.97736e-07
9.07098e-07
8.24662e-07
7.4973e-07
6.81641e-07
6.19825e-07
5.63698e-07
5.12851e-07
4.66663e-07
4.25032e-07
3.86992e-07
3.53258e-07
3.2162e-07
2.95088e-07
2.67761e-07
2.48828e-07
2.22602e-07
2.1373e-07
1.82949e-07
1.90225e-07
1.4491e-07
1.79989e-07
1.04057e-07
1.85336e-07
5.65793e-08
2.07283e-07
1.74236e-09
2.42455e-07
-5.49706e-08
2.80463e-07
-1.00493e-07
3.05095e-07
-1.18642e-07
3.02412e-07
-1.01957e-07
2.75234e-07
-6.66967e-08
2.55885e-07
-6.04556e-08
3.05784e-07
-1.53007e-07
4.96395e-07
-4.1202e-07
8.75527e-07
9.91369e-05
0.00010302
0.000105707
0.000107326
0.000107993
0.000107826
0.000106934
0.000105418
0.000103372
0.000100884
9.80361e-05
9.49003e-05
9.1543e-05
8.80227e-05
8.43911e-05
8.06932e-05
7.69678e-05
7.3248e-05
6.95617e-05
6.59321e-05
6.23781e-05
5.89149e-05
5.55545e-05
5.23062e-05
4.91766e-05
4.61704e-05
4.32905e-05
4.05384e-05
3.79144e-05
3.54178e-05
3.3047e-05
3.08001e-05
2.86744e-05
2.66669e-05
2.47744e-05
2.29932e-05
2.13196e-05
1.97494e-05
1.82786e-05
1.69027e-05
1.56176e-05
1.44183e-05
1.33016e-05
1.22598e-05
1.12926e-05
1.03973e-05
9.56248e-06
8.78883e-06
8.07295e-06
7.41036e-06
6.79769e-06
6.23171e-06
5.70931e-06
5.22757e-06
4.78369e-06
4.37505e-06
3.99915e-06
3.65367e-06
3.33638e-06
3.04521e-06
2.77822e-06
2.53356e-06
2.30954e-06
2.10454e-06
1.91707e-06
1.74575e-06
1.58928e-06
1.44647e-06
1.31618e-06
1.1974e-06
1.08916e-06
9.90584e-07
9.00851e-07
8.19208e-07
7.4497e-07
6.77489e-07
6.16206e-07
5.60545e-07
5.10105e-07
4.64271e-07
4.22949e-07
3.85179e-07
3.51676e-07
3.20247e-07
2.93885e-07
2.66724e-07
2.47908e-07
2.21824e-07
2.13015e-07
1.82376e-07
1.89654e-07
1.44506e-07
1.79515e-07
1.03795e-07
1.8492e-07
5.64314e-08
2.06906e-07
1.67094e-09
2.42121e-07
-5.50105e-08
2.80196e-07
-1.00554e-07
3.04913e-07
-1.18756e-07
3.02305e-07
-1.0211e-07
2.75142e-07
-6.68147e-08
2.55701e-07
-6.04301e-08
3.05494e-07
-1.52941e-07
4.96493e-07
-4.12364e-07
8.77233e-07
8.428e-05
8.90979e-05
9.27026e-05
9.52089e-05
9.67299e-05
9.73801e-05
9.72665e-05
9.64885e-05
9.51401e-05
9.33095e-05
9.10775e-05
8.85179e-05
8.56977e-05
8.26765e-05
7.95075e-05
7.62372e-05
7.29063e-05
6.95497e-05
6.6197e-05
6.28733e-05
5.95996e-05
5.63928e-05
5.32668e-05
5.02325e-05
4.72981e-05
4.447e-05
4.17523e-05
3.91481e-05
3.66586e-05
3.42845e-05
3.20251e-05
2.98793e-05
2.78455e-05
2.59212e-05
2.41041e-05
2.23911e-05
2.07789e-05
1.92643e-05
1.78434e-05
1.65126e-05
1.52679e-05
1.4105e-05
1.30211e-05
1.20088e-05
1.10681e-05
1.01965e-05
9.38319e-06
8.6288e-06
7.93022e-06
7.28318e-06
6.68447e-06
6.13101e-06
5.61983e-06
5.14813e-06
4.71324e-06
4.31264e-06
3.94392e-06
3.60483e-06
3.29324e-06
3.00714e-06
2.74465e-06
2.50399e-06
2.28351e-06
2.08166e-06
1.89697e-06
1.72811e-06
1.57382e-06
1.43291e-06
1.30431e-06
1.18701e-06
1.08008e-06
9.82642e-07
8.93912e-07
8.13149e-07
7.39683e-07
6.72877e-07
6.12185e-07
5.57041e-07
5.07052e-07
4.61613e-07
4.20633e-07
3.83163e-07
3.49918e-07
3.1872e-07
2.92547e-07
2.65569e-07
2.46884e-07
2.20958e-07
2.1222e-07
1.81737e-07
1.89021e-07
1.44054e-07
1.7899e-07
1.035e-07
1.84459e-07
5.62645e-08
2.06487e-07
1.5922e-09
2.41747e-07
-5.50508e-08
2.79893e-07
-1.00614e-07
3.04705e-07
-1.18879e-07
3.02186e-07
-1.02289e-07
2.75055e-07
-6.6974e-08
2.55536e-07
-6.04551e-08
3.0523e-07
-1.52926e-07
4.96638e-07
-4.1277e-07
8.79139e-07
6.89333e-05
7.46768e-05
7.91916e-05
8.25842e-05
8.49629e-05
8.64383e-05
8.7115e-05
8.70903e-05
8.6457e-05
8.53024e-05
8.37069e-05
8.17447e-05
7.94831e-05
7.69827e-05
7.42978e-05
7.14764e-05
6.85606e-05
6.5587e-05
6.2587e-05
5.95877e-05
5.66116e-05
5.36777e-05
5.08015e-05
4.79956e-05
4.527e-05
4.26324e-05
4.00888e-05
3.76432e-05
3.52984e-05
3.30559e-05
3.09164e-05
2.88797e-05
2.69449e-05
2.51105e-05
2.33748e-05
2.17355e-05
2.019e-05
1.87355e-05
1.73689e-05
1.60869e-05
1.48863e-05
1.3763e-05
1.27148e-05
1.17346e-05
1.08227e-05
9.97709e-06
9.18713e-06
8.45377e-06
7.77409e-06
7.14403e-06
6.56056e-06
6.02078e-06
5.52187e-06
5.06115e-06
4.63609e-06
4.24427e-06
3.8834e-06
3.5513e-06
3.24595e-06
2.9654e-06
2.70784e-06
2.47156e-06
2.25497e-06
2.05656e-06
1.87493e-06
1.70876e-06
1.55684e-06
1.41803e-06
1.29128e-06
1.17561e-06
1.0701e-06
9.73921e-07
8.86293e-07
8.06496e-07
7.33875e-07
6.6781e-07
6.07766e-07
5.5319e-07
5.03697e-07
4.5869e-07
4.18086e-07
3.80946e-07
3.47984e-07
3.1704e-07
2.91076e-07
2.64299e-07
2.45758e-07
2.20003e-07
2.11347e-07
1.81033e-07
1.88326e-07
1.43556e-07
1.78412e-07
1.03177e-07
1.83951e-07
5.60851e-08
2.0602e-07
1.51593e-09
2.41322e-07
-5.50782e-08
2.7954e-07
-1.0066e-07
3.04454e-07
-1.18995e-07
3.02041e-07
-1.02478e-07
2.74962e-07
-6.71644e-08
2.55381e-07
-6.05238e-08
3.04983e-07
-1.5295e-07
4.96806e-07
-4.13206e-07
8.81174e-07
5.32693e-05
5.99166e-05
6.5323e-05
6.95889e-05
7.28176e-05
7.51156e-05
7.6584e-05
7.73175e-05
7.74072e-05
7.69387e-05
7.59921e-05
7.46409e-05
7.29528e-05
7.09888e-05
6.88041e-05
6.64477e-05
6.39632e-05
6.13886e-05