/*--------------------------------*- C++ -*----------------------------------*\
| =========                 |                                                 |
| \\      /  F ield         | OpenFOAM: The Open Source CFD Toolbox           |
|  \\    /   O peration     | Version:  2412                                  |
|   \\  /    A nd           | Website:  www.openfoam.com                      |
|    \\/     M anipulation  |                                                 |
\*---------------------------------------------------------------------------*/
FoamFile
{
    version     2.0;
    format      ascii;
    arch        "LSB;label=32;scalar=64";
    class       surfaceScalarField;
    location    "24";
    object      phi;
}
// * * * * * * * * * * * * * * * * * * * * * * * * * * * * * * * * * * * * * //

dimensions      [0 3 -1 0 0 0 0];

oriented        oriented;

internalField   nonuniform List<scalar> 
126304
(
0.00505063
1.29502e-07
2.07399e-11
0.00505025
3.77661e-07
5.03175e-11
0.00504964
6.1264e-07
6.33928e-11
0.0050488
8.36119e-07
6.86596e-11
0.00504775
1.04941e-06
7.4494e-11
0.0050465
1.25332e-06
8.56908e-11
0.00504505
1.44973e-06
1.02213e-10
0.0050434
1.6442e-06
1.16756e-10
0.00504156
1.8477e-06
1.12421e-10
0.00503948
2.07554e-06
6.42249e-11
0.00503714
2.34305e-06
-5.28288e-11
0.00503448
2.65962e-06
-2.52007e-10
0.00503145
3.02384e-06
-5.25489e-10
0.00502803
3.42204e-06
-8.41297e-10
0.0050242
3.83078e-06
-1.14803e-09
0.00501998
4.22226e-06
-1.38627e-09
0.00501541
4.57055e-06
-1.50261e-09
0.00501056
4.85667e-06
-1.46118e-09
0.00500549
5.0714e-06
-1.24956e-09
0.00500027
5.21537e-06
-8.79024e-10
0.00499498
5.29732e-06
-3.80057e-10
0.00498965
5.33117e-06
2.05037e-10
0.00498431
5.33292e-06
8.30512e-10
0.00497899
5.31809e-06
1.45417e-09
0.00497369
5.29998e-06
2.04162e-09
0.0049684
5.28876e-06
2.56822e-09
0.0049631
5.2913e-06
3.01938e-09
0.00495779
5.31152e-06
3.3896e-09
0.00495244
5.35096e-06
3.68039e-09
0.00494702
5.40947e-06
3.89799e-09
0.00494153
5.48581e-06
4.05129e-09
0.00493595
5.57818e-06
4.15028e-09
0.00493026
5.6846e-06
4.20495e-09
0.00492445
5.80314e-06
4.22447e-09
0.00491852
5.93207e-06
4.21675e-09
0.00491244
6.06995e-06
4.18833e-09
0.00490622
6.2156e-06
4.14444e-09
0.00489985
6.36811e-06
4.08912e-09
0.00489332
6.52681e-06
4.02535e-09
0.00488663
6.69119e-06
3.95534e-09
0.00487976
6.86091e-06
3.8807e-09
0.00487272
7.03574e-06
3.80262e-09
0.0048655
7.21552e-06
3.72187e-09
0.0048581
7.40016e-06
3.63895e-09
0.0048505
7.58961e-06
3.55421e-09
0.00484272
7.78386e-06
3.46783e-09
0.00483473
7.9829e-06
3.37991e-09
0.00482654
8.18677e-06
3.29061e-09
0.00481814
8.39551e-06
3.20001e-09
0.00480953
8.60919e-06
3.10819e-09
0.0048007
8.82795e-06
3.01519e-09
0.00479164
9.0521e-06
2.92103e-09
0.00478236
9.28247e-06
2.82577e-09
0.00477283
9.52146e-06
2.72961e-09
9.77588e-06
0.00476306
2.6329e-09
0.00505063
2.58939e-07
0.00505025
7.55101e-07
0.00504964
1.22491e-06
0.0050488
1.67171e-06
0.00504775
2.09815e-06
0.0050465
2.50583e-06
0.00504505
2.89852e-06
0.00504341
3.28729e-06
0.00504156
3.69397e-06
0.00503949
4.14908e-06
0.00503715
4.6832e-06
0.00503449
5.31509e-06
0.00503148
6.04204e-06
0.00502806
6.8369e-06
0.00502424
7.65302e-06
0.00502003
8.43502e-06
0.00501547
9.1312e-06
0.00501062
9.70367e-06
0.00500556
1.01339e-05
0.00500035
1.04231e-05
0.00499506
1.05886e-05
0.00498973
1.06579e-05
0.0049844
1.0663e-05
0.00497908
1.06347e-05
0.00497378
1.05996e-05
0.00496849
1.05779e-05
0.0049632
1.05835e-05
0.00495789
1.06241e-05
0.00495254
1.07029e-05
0.00494713
1.08196e-05
0.00494164
1.09719e-05
0.00493606
1.11561e-05
0.00493038
1.13683e-05
0.00492458
1.16046e-05
0.00491865
1.18618e-05
0.00491258
1.21367e-05
0.00490637
1.24272e-05
0.00490001
1.27315e-05
0.00489349
1.3048e-05
0.0048868
1.33759e-05
0.00487995
1.37145e-05
0.00487292
1.40633e-05
0.00486571
1.44219e-05
0.00485832
1.47902e-05
0.00485075
1.51681e-05
0.00484297
1.55556e-05
0.004835
1.59526e-05
0.00482683
1.63592e-05
0.00481845
1.67754e-05
0.00480986
1.72015e-05
0.00480105
1.76376e-05
0.00479202
1.80844e-05
0.00478276
1.85434e-05
0.00477326
1.90192e-05
1.95251e-05
0.00476351
0.00505063
3.88204e-07
0.00505025
1.132e-06
0.00504964
1.83633e-06
0.00504881
2.50612e-06
0.00504776
3.14538e-06
0.00504651
3.75655e-06
0.00504506
4.34524e-06
0.00504342
4.92792e-06
0.00504158
5.53717e-06
0.00503951
6.21853e-06
0.00503717
7.0177e-06
0.00503452
7.96284e-06
0.00503152
9.05012e-06
0.00502811
1.02392e-05
0.00502431
1.14606e-05
0.00502011
1.26317e-05
0.00501557
1.36752e-05
0.00501074
1.45344e-05
0.00500569
1.51813e-05
0.00500049
1.56175e-05
0.00499521
1.58684e-05
0.0049899
1.59753e-05
0.00498457
1.59855e-05
0.00497926
1.59453e-05
0.00497397
1.58942e-05
0.00496868
1.58626e-05
0.0049634
1.58712e-05
0.00495809
1.59319e-05
0.00495274
1.60494e-05
0.00494734
1.62234e-05
0.00494186
1.64503e-05
0.00493629
1.6725e-05
0.00493062
1.70416e-05
0.00492483
1.73944e-05
0.00491891
1.77782e-05
0.00491286
1.81888e-05
0.00490666
1.86227e-05
0.00490032
1.90771e-05
0.00489382
1.955e-05
0.00488715
2.00399e-05
0.00488032
2.05458e-05
0.00487332
2.10668e-05
0.00486614
2.16026e-05
0.00485877
2.21529e-05
0.00485122
2.27175e-05
0.00484348
2.32962e-05
0.00483555
2.38891e-05
0.00482741
2.44963e-05
0.00481907
2.51178e-05
0.00481052
2.57538e-05
0.00480175
2.64047e-05
0.00479276
2.70712e-05
0.00478355
2.77556e-05
0.0047741
2.84642e-05
2.92153e-05
0.00476441
0.00505063
5.17215e-07
0.00505025
1.50809e-06
0.00504964
2.44645e-06
0.00504881
3.33875e-06
0.00504776
4.19038e-06
0.00504652
5.0046e-06
0.00504507
5.78884e-06
0.00504344
6.56487e-06
0.0050416
7.37578e-06
0.00503953
8.28188e-06
0.00503721
9.34383e-06
0.00503457
1.05992e-05
0.00503158
1.20433e-05
0.00502819
1.3623e-05
0.00502441
1.52467e-05
0.00502024
1.68048e-05
0.00501572
1.81948e-05
0.00501091
1.93412e-05
0.00500588
2.02064e-05
0.00500071
2.0792e-05
0.00499545
2.11314e-05
0.00499014
2.12788e-05
0.00498483
2.12969e-05
0.00497953
2.12468e-05
0.00497424
2.11811e-05
0.00496897
2.11404e-05
0.00496368
2.11521e-05
0.00495838
2.12323e-05
0.00495305
2.13874e-05
0.00494765
2.16172e-05
0.00494218
2.19172e-05
0.00493663
2.22805e-05
0.00493097
2.26994e-05
0.0049252
2.31664e-05
0.0049193
2.36748e-05
0.00491327
2.42188e-05
0.0049071
2.47938e-05
0.00490078
2.53962e-05
0.00489431
2.60232e-05
0.00488768
2.66728e-05
0.00488088
2.73436e-05
0.00487391
2.80345e-05
0.00486677
2.8745e-05
0.00485945
2.94747e-05
0.00485194
3.02231e-05
0.00484425
3.09903e-05
0.00483636
3.17762e-05
0.00482828
3.25808e-05
0.00481999
3.34042e-05
0.0048115
3.42466e-05
0.00480279
3.51084e-05
0.00479387
3.59905e-05
0.00478473
3.68955e-05
0.00477537
3.78306e-05
3.88176e-05
0.00476576
0.00505063
6.45889e-07
0.00505025
1.88309e-06
0.00504965
3.05485e-06
0.00504881
4.16901e-06
0.00504777
5.23239e-06
0.00504653
6.24908e-06
0.00504509
7.22828e-06
0.00504346
8.19692e-06
0.00504162
9.2083e-06
0.00503957
1.03372e-05
0.00503725
1.1659e-05
0.00503463
1.32207e-05
0.00503166
1.50171e-05
0.0050283
1.69829e-05
0.00502454
1.90048e-05
0.0050204
2.09472e-05
0.00501591
2.26826e-05
0.00501113
2.41167e-05
0.00500614
2.52024e-05
0.00500099
2.59406e-05
0.00499575
2.63722e-05
0.00499046
2.65639e-05
0.00498517
2.65932e-05
0.00497988
2.6536e-05
0.0049746
2.64576e-05
0.00496933
2.64087e-05
0.00496406
2.64236e-05
0.00495877
2.65225e-05
0.00495345
2.67138e-05
0.00494807
2.69976e-05
0.00494261
2.73683e-05
0.00493708
2.78177e-05
0.00493144
2.83362e-05
0.00492569
2.89147e-05
0.00491982
2.95448e-05
0.00491382
3.02193e-05
0.00490768
3.09326e-05
0.0049014
3.168e-05
0.00489496
3.2458e-05
0.00488837
3.32643e-05
0.00488162
3.40969e-05
0.0048747
3.49546e-05
0.00486761
3.58366e-05
0.00486034
3.67421e-05
0.00485289
3.7671e-05
0.00484526
3.86229e-05
0.00483744
3.95979e-05
0.00482942
4.05958e-05
0.00482121
4.16167e-05
0.0048128
4.26608e-05
0.00480418
4.37284e-05
0.00479535
4.48205e-05
0.0047863
4.59397e-05
0.00477704
4.70934e-05
4.83041e-05
0.00476755
0.00505063
7.74151e-07
0.00505026
2.25673e-06
0.00504965
3.66112e-06
0.00504882
4.99632e-06
0.00504778
6.27067e-06
0.00504654
7.48912e-06
0.00504511
8.66255e-06
0.00504348
9.82288e-06
0.00504166
1.10333e-05
0.00503961
1.23826e-05
0.00503731
1.39608e-05
0.00503471
1.58242e-05
0.00503176
1.79674e-05
0.00502843
2.03138e-05
0.0050247
2.27292e-05
0.0050206
2.50526e-05
0.00501615
2.7132e-05
0.00501141
2.88545e-05
0.00500645
3.01629e-05
0.00500133
3.10574e-05
0.00499612
3.15856e-05
0.00499086
3.1826e-05
0.00498558
3.18706e-05
0.00498031
3.18094e-05
0.00497504
3.17206e-05
0.00496979
3.16644e-05
0.00496453
3.16825e-05
0.00495925
3.17992e-05
0.00495394
3.20251e-05
0.00494858
3.23604e-05
0.00494315
3.27992e-05
0.00493763
3.33316e-05
0.00493202
3.39465e-05
0.0049263
3.46331e-05
0.00492047
3.53814e-05
0.0049145
3.61829e-05
0.00490841
3.70308e-05
0.00490217
3.79196e-05
0.00489578
3.88452e-05
0.00488924
3.98044e-05
0.00488254
4.07951e-05
0.00487568
4.18156e-05
0.00486865
4.28649e-05
0.00486145
4.39422e-05
0.00485407
4.50471e-05
0.00484652
4.61792e-05
0.00483878
4.73383e-05
0.00483085
4.85244e-05
0.00482273
4.97375e-05
0.00481441
5.09776e-05
0.0048059
5.22449e-05
0.00479718
5.35404e-05
0.00478825
5.4866e-05
0.00477911
5.62285e-05
5.7648e-05
0.00476977
0.00505063
9.01879e-07
0.00505026
2.62879e-06
0.00504965
4.26481e-06
0.00504883
5.82009e-06
0.0050478
7.3045e-06
0.00504656
8.72382e-06
0.00504513
1.00906e-05
0.00504351
1.14415e-05
0.0050417
1.28493e-05
0.00503966
1.44164e-05
0.00503738
1.62469e-05
0.0050348
1.84067e-05
0.00503187
2.08906e-05
0.00502858
2.36114e-05
0.00502489
2.64149e-05
0.00502083
2.91154e-05
0.00501642
3.1537e-05
0.00501173
3.35486e-05
0.00500681
3.50824e-05
0.00500173
3.61372e-05
0.00499655
3.67668e-05
0.00499131
3.70609e-05
0.00498606
3.71251e-05
0.0049808
3.70635e-05
0.00497556
3.69665e-05
0.00497032
3.69043e-05
0.00496507
3.69255e-05
0.00495982
3.70589e-05
0.00495452
3.73173e-05
0.00494918
3.77017e-05
0.00494378
3.82052e-05
0.00493829
3.88171e-05
0.00493271
3.95246e-05
0.00492703
4.03153e-05
0.00492123
4.11777e-05
0.00491531
4.21022e-05
0.00490926
4.30806e-05
0.00490308
4.41065e-05
0.00489675
4.51753e-05
0.00489027
4.62831e-05
0.00488364
4.74273e-05
0.00487685
4.8606e-05
0.00486989
4.98179e-05
0.00486277
5.10621e-05
0.00485548
5.23378e-05
0.00484802
5.36447e-05
0.00484037
5.49824e-05
0.00483255
5.63508e-05
0.00482453
5.77497e-05
0.00481633
5.91791e-05
0.00480794
6.06391e-05
0.00479935
6.21302e-05
0.00479056
6.36536e-05
0.00478158
6.52134e-05
0.0047724
6.68212e-05
0.00476325
-1.92491e-07
2.54998e-09
0.00476291
3.37813e-07
2.49229e-09
0.004762
9.02104e-07
2.43743e-09
0.00476049
1.50415e-06
2.37711e-09
0.00475835
2.14673e-06
2.31192e-09
0.00475551
2.83335e-06
2.24225e-09
0.00475194
3.56793e-06
2.16791e-09
0.00474758
4.35483e-06
2.08877e-09
0.00474238
5.19893e-06
2.00445e-09
0.00473627
6.10571e-06
1.91477e-09
0.00472919
7.08125e-06
1.81927e-09
0.00472106
8.13241e-06
1.71769e-09
0.00471179
9.26685e-06
1.60982e-09
0.00470129
1.04932e-05
1.49762e-09
0.00468947
1.18212e-05
1.37388e-09
0.00467621
1.32619e-05
1.2571e-09
0.00466138
1.48277e-05
1.10508e-09
0.00464485
1.65327e-05
9.39303e-10
0.00462645
1.83932e-05
7.80401e-10
0.00460602
2.04276e-05
6.00832e-10
0.00458337
2.2657e-05
4.31664e-10
0.00455826
2.51061e-05
2.57137e-10
0.00453046
2.78032e-05
7.44574e-11
0.00449968
3.07812e-05
-1.16678e-10
0.0044656
3.40788e-05
-3.1568e-10
0.00442786
3.77412e-05
-5.22063e-10
0.00438604
4.18221e-05
-7.34555e-10
0.00433965
4.63851e-05
-9.52309e-10
0.00428815
5.15067e-05
-1.17441e-09
0.00423087
5.72785e-05
-1.39966e-09
0.00416706
6.38118e-05
-1.62704e-09
0.00409582
7.12418e-05
-1.85592e-09
0.00401609
7.9734e-05
-2.08543e-09
0.0039266
8.9491e-05
-2.31539e-09
0.00382584
0.00010076
-2.54575e-09
0.003712
0.000113843
-2.77652e-09
0.0035829
0.000129098
-3.00833e-09
0.00343596
0.000146944
-3.24235e-09
0.00326813
0.000167839
-3.47973e-09
0.00307589
0.000192241
-3.72197e-09
0.00285538
0.000220513
-3.97039e-09
0.00260264
0.000252748
-4.2251e-09
0.00231417
0.000288474
-4.48299e-09
0.00198799
0.000326185
-4.73299e-09
0.00162536
0.000362635
-4.94782e-09
0.00123352
0.00039184
-5.07125e-09
0.000829718
0.00040381
-4.99997e-09
0.000446778
0.000382945
-4.56504e-09
0.000141236
0.000305546
-3.52378e-09
0.000141237
-1.58402e-09
0.00476233
9.84229e-07
0.00476063
2.04236e-06
0.00475836
3.1694e-06
0.00475549
4.3712e-06
0.00475199
5.65398e-06
0.0047478
7.02474e-06
0.00474287
8.49137e-06
0.00473716
1.00626e-05
0.00473061
1.17483e-05
0.00472316
1.35594e-05
0.00471473
1.55081e-05
0.00470526
1.7608e-05
0.00469465
1.98747e-05
0.00468282
2.23254e-05
0.00466966
2.49795e-05
0.00465506
2.78592e-05
0.0046389
3.09894e-05
0.00462104
3.43984e-05
0.00460131
3.81185e-05
0.00457955
4.21869e-05
0.00455556
4.6646e-05
0.00452912
5.15449e-05
0.00449999
5.69405e-05
0.00446787
6.28987e-05
0.00443245
6.94968e-05
0.00439337
7.68254e-05
0.0043502
8.49919e-05
0.00430246
9.41236e-05
0.00424959
0.000104373
0.00419095
0.000115923
0.00412576
0.000128995
0.00405315
0.000143859
0.00397204
0.000160843
0.00388118
0.000180349
0.00377907
0.000202868
0.00366392
0.000228991
0.0035336
0.000259427
0.00338555
0.000294991
0.00321681
0.000336579
0.00302398
0.00038507
0.00280335
0.000441144
0.00255116
0.000504931
0.00226421
0.000575426
0.00194084
0.000649561
0.00158264
0.000720834
0.00119714
0.000777342
0.000801696
0.00079925
0.000428813
0.000755828
0.000132965
0.000601393
0.000274203
0.00476052
4.87651e-06
0.00475611
6.45866e-06
0.00475113
8.1438e-06
0.00474556
9.94062e-06
0.00473936
1.18586e-05
0.00473247
1.39084e-05
0.00472486
1.61019e-05
0.00471647
1.84523e-05
0.00470725
2.09744e-05
0.00469712
2.36847e-05
0.00468603
2.66016e-05
0.00467389
2.97457e-05
0.00466063
3.314e-05
0.00464614
3.68107e-05
0.00463033
4.0787e-05
0.00461309
4.51021e-05
0.00459429
4.97935e-05
0.00457378
5.49038e-05
0.00455142
6.04818e-05
0.00452702
6.65831e-05
0.00450039
7.32717e-05
0.00447132
8.06215e-05
0.00443954
8.87177e-05
0.00440478
9.76596e-05
0.00436671
0.000107563
0.00432497
0.000118565
0.00427914
0.000130825
0.00422873
0.000144536
0.00417318
0.000159923
0.00411184
0.000177263
0.00404395
0.000196884
0.00396862
0.000219188
0.0038848
0.000244662
0.00379125
0.000273899
0.0036865
0.000307621
0.00356879
0.000346697
0.00343606
0.000392156
0.00328588
0.000445178
0.00311542
0.000507037
0.00292152
0.000578967
0.0027008
0.000661867
0.00244994
0.000755792
0.00216628
0.000859082
0.00184882
0.000967018
0.00149982
0.00106984
0.00112723
0.00114993
0.000748452
0.00117803
0.000395485
0.0011088
0.000120259
0.000876619
0.000394462
0.00475784
1.27985e-05
0.0047494
1.48976e-05
0.00474041
1.71332e-05
0.00473084
1.9517e-05
0.00472063
2.2062e-05
0.00470976
2.47824e-05
0.00469817
2.76943e-05
0.00468581
3.08154e-05
0.00467261
3.41656e-05
0.00465853
3.77668e-05
0.00464349
4.16437e-05
0.00462741
4.58239e-05
0.00461021
5.03382e-05
0.0045918
5.52214e-05
0.00457208
6.05128e-05
0.00455092
6.62567e-05
0.00452821
7.25032e-05
0.00450381
7.93095e-05
0.00447755
8.67407e-05
0.00444926
9.48713e-05
0.00441874
0.000103787
0.00438578
0.000113586
0.00435011
0.000124384
0.00431146
0.000136312
0.0042695
0.000149525
0.00422386
0.000164206
0.00417412
0.000180569
0.00411978
0.000198867
0.0040603
0.000219405
0.00399502
0.000242546
0.00392318
0.000268725
0.0038439
0.00029847
0.00375614
0.000332422
0.00365868
0.000371355
0.0035501
0.000416204
0.00342871
0.000468089
0.00329254
0.000528319
0.00313934
0.000598381
0.00296653
0.000679849
0.0027713
0.000774191
0.00255079
0.000882384
0.00230235
0.00100423
0.00202419
0.00113724
0.00171629
0.00127492
0.00138183
0.0014043
0.00102927
0.00150249
0.000675519
0.00153178
0.000350757
0.00143356
0.00010226
0.00112512
0.000496722
0.00475434
2.6012e-05
0.00474062
2.86166e-05
0.00472636
3.13908e-05
0.00471153
3.43494e-05
0.00469608
3.7509e-05
0.00467998
4.08878e-05
0.00466317
4.45058e-05
0.0046456
4.83855e-05
0.00462721
5.25516e-05
0.00460795
5.70317e-05
0.00458773
6.18567e-05
0.0045665
6.7061e-05
0.00454415
7.26836e-05
0.0045206
7.87678e-05
0.00449575
8.5363e-05
0.00446949
9.25246e-05
0.00444167
0.000100316
0.00441217
0.000108808
0.00438083
0.000118084
0.00434747
0.000128236
0.00431188
0.000139372
0.00427385
0.000151615
0.00423313
0.00016511
0.00418942
0.000180022
0.0041424
0.000196545
0.0040917
0.000214907
0.00403689
0.000235377
0.00397749
0.00025827
0.00391293
0.000283965
0.00384256
0.000312912
0.00376563
0.00034565
0.00368128
0.000382829
0.00358847
0.000425231
0.00348603
0.000473796
0.00337258
0.000529649
0.00324655
0.000594122
0.00310612
0.000668752
0.00294925
0.000755245
0.00277375
0.000855355
0.00257731
0.000970629
0.00235779
0.00110191
0.00211352
0.0012485
0.00184393
0.00140683
0.00155034
0.0015685
0.00123716
0.00171748
0.000913322
0.00182633
0.000594423
0.00185068
0.000305816
0.00172216
8.45325e-05
0.0013464
0.000581255
0.00475007
4.57085e-05
0.00472989
4.88006e-05
0.00470918
5.20959e-05
0.00468792
5.56122e-05
0.00466606
5.93698e-05
0.00464356
6.33905e-05
0.00462037
6.76984e-05
0.00459643
7.23204e-05
0.0045717
7.7286e-05
0.0045461
8.26287e-05
0.00451957
8.83853e-05
0.00449203
9.45974e-05
0.00446341
0.000101312
0.00443359
0.000108581
0.00440249
0.000116463
0.00436999
0.000125027
0.00433596
0.000134347
0.00430026
0.000144511
0.00426272
0.000155617
0.00422318
0.000167777
0.00418143
0.000181121
0.00413725
0.000195799
0.00409038
0.000211982
0.00404053
0.000229872
0.00398737
0.000249701
0.00393053
0.000271744
0.00386959
0.000296322
0.00380404
0.000323815
0.00373334
0.000354673
0.00365682
0.000389432
0.00357374
0.000428731
0.00348323
0.000473334
0.00338431
0.000524152
0.00327583
0.000582272
0.00315651
0.000648976
0.00302488
0.000725751
0.00287935
0.00081428
0.00271823
0.000916363
0.00253983
0.00103376
0.00234262
0.00116783
0.00212556
0.00131898
0.00188844
0.00148562
0.00163253
0.00166274
0.00136127
0.00183977
0.00108087
0.00199787
0.000801063
0.00210614
0.000535137
0.00211661
0.000298611
0.00195869
0.000102984
0.00154203
0.000684239
0.00474513
7.29859e-05
0.00471739
7.65385e-05
0.00468915
8.03312e-05
0.00466038
8.43829e-05
0.00463104
8.87164e-05
0.00460107
9.33571e-05
0.00457043
9.83326e-05
0.00453908
0.000103674
0.00450695
0.000109416
0.00447398
0.000115598
0.0044401
0.000122262
0.00440525
0.000129457
0.00436932
0.000137237
0.00433224
0.000145665
0.00429389
0.000154808
0.00425417
0.000164746
0.00421295
0.000175568
0.00417009
0.000187374
0.00412542
0.000200282
0.00407878
0.000214421
0.00402995
0.000229945
0.00397873
0.000247028
0.00392484
0.000265872
0.003868
0.000286711
0.00380788
0.00030982
0.0037441
0.000335517
0.00367625
0.000364178
0.00360382
0.000396245
0.00352625
0.000432241
0.0034429
0.000472785
0.00335302
0.000518611
0.00325576
0.000570592
0.00315015
0.000629759
0.0030351
0.000697322
0.00290939
0.000774687
0.0027717
0.000863446
0.00262064
0.000965335
0.00245489
0.00108211
0.00227334
0.00121531
0.00207534
0.00136583
0.00186117
0.00153315
0.00163251
0.00171427
0.00139315
0.0019021
0.00114962
0.0020833
0.000911664
0.00223582
0.00069182
0.00232598
0.000502884
0.00230554
0.000349149
0.00211243
0.000211352
0.00167982
0.000895591
-2.77686e-05
2.7769e-05
-3.68071e-10
-8.07309e-05
5.29637e-05
-1.3582e-09
-0.000140346
5.96174e-05
-2.5339e-09
-0.000195766
5.54241e-05
-3.77264e-09
-0.000240974
4.52127e-05
-4.97965e-09
-0.000272867
3.18995e-05
-6.09337e-09
-0.000290053
1.71929e-05
-7.12349e-09
-0.000291808
1.76314e-06
-8.13017e-09
-0.000279214
-1.25855e-05
-8.48848e-09
-0.00025252
-2.66852e-05
-8.81991e-09
-0.000212397
-4.01138e-05
-8.9397e-09
-0.000159723
-5.26653e-05
-8.75375e-09
-9.53894e-05
-6.43259e-05
-8.21181e-09
-2.03038e-05
-7.50783e-05
-7.26004e-09
6.46163e-05
-8.49142e-05
-5.8354e-09
0.000158459
-9.38385e-05
-3.86175e-09
0.000260325
-0.000101865
-1.256e-09
0.000369329
-0.000109007
2.05336e-09
0.000484607
-0.000115284
6.11341e-09
0.000605313
-0.000120717
1.10356e-08
0.000730628
-0.000125331
1.61508e-08
0.000859753
-0.000129148
2.17157e-08
0.000991915
-0.000132188
2.649e-08
0.00112636
-0.000134477
3.006e-08
0.00126237
-0.000136043
3.28113e-08
0.00139926
-0.000136925
3.37485e-08
0.00153639
-0.000137164
3.3518e-08
0.00167316
-0.000136799
3.22885e-08
0.001809
-0.000135872
3.04211e-08
0.0019434
-0.000134422
2.82232e-08
0.00207586
-0.000132492
2.59086e-08
0.00220596
-0.000130123
2.36009e-08
0.0023333
-0.000127359
2.13526e-08
0.00245752
-0.000124241
1.91759e-08
0.00257832
-0.000120812
1.70573e-08
0.00269541
-0.000117113
1.4979e-08
0.00280858
-0.000113184
1.29249e-08
0.00291764
-0.000109066
1.08838e-08
0.00302243
-0.000104796
8.85379e-09
0.00312283
-0.000100411
6.83902e-09
0.00321877
-9.59456e-05
4.84939e-09
0.0033102
-9.14319e-05
2.90288e-09
0.0033971
-8.69007e-05
1.01884e-09
0.00347948
-8.23801e-05
-7.80127e-10
0.00355738
-7.78958e-05
-2.46816e-09
0.00363086
-7.34713e-05
-4.02051e-09
0.00369999
-6.9127e-05
-5.41273e-09
0.00376488
-6.48808e-05
-6.62071e-09
0.00382563
-6.07467e-05
-7.6259e-09
-5.67352e-05
0.00388237
-8.42035e-09
-2.43735e-05
5.21425e-05
-7.09219e-05
9.95121e-05
-0.000123061
0.000111756
-0.000171303
0.000103666
-0.000210207
8.41174e-05
-0.000236937
5.86291e-05
-0.000250235
3.0491e-05
-0.000248891
4.18743e-07
-0.000234577
-2.68988e-05
-0.000206914
-5.43487e-05
-0.000166514
-8.05133e-05
-0.000114184
-0.000104996
-5.06947e-05
-0.000127815
2.31362e-05
-0.000148909
0.000106471
-0.000168249
0.000198481
-0.000185848
0.00029833
-0.000201713
0.000405188
-0.000215865
0.000518237
-0.000228333
0.000636675
-0.000239154
0.000759714
-0.00024837
0.000886588
-0.000256022
0.00101655
-0.000262149
0.00114887
-0.000266795
0.00128284
-0.000270015
0.0014178
-0.000271882
0.00155311
-0.000272474
0.00168818
-0.00027187
0.00182245
-0.000270146
0.00195541
-0.000267383
0.00208658
-0.000263661
0.00221552
-0.000259063
0.00234184
-0.000253673
0.00246517
-0.000247575
0.00258521
-0.00024085
0.00270168
-0.000233582
0.00281434
-0.000225852
0.00292301
-0.000217737
0.00302753
-0.000209313
0.00312777
-0.000200655
0.00322366
-0.000191829
0.00331513
-0.000182902
0.00340216
-0.000173935
0.00348477
-0.000164983
0.00356297
-0.000156099
0.00363683
-0.000147329
0.00370642
-0.000138714
0.00377183
-0.000130291
0.00383317
-0.000122086
-0.00011412
0.00389055
-1.84134e-05
7.05559e-05
-5.20968e-05
0.000133195
-8.98805e-05
0.00014954
-0.00012438
0.000138165
-0.000151232
0.00011097
-0.00016808
7.54773e-05
-0.000173585
3.59959e-05
-0.000167678
-5.48776e-06
-0.000149752
-4.48254e-05
-0.000120388
-8.3712e-05
-7.94551e-05
-0.000121446
-2.78761e-05
-0.000156575
3.38485e-05
-0.00018954
0.000105143
-0.000220203
0.000185354
-0.00024846
0.000273779
-0.000274273
0.000369703
-0.000297637
0.000472402
-0.000318565
0.00058115
-0.00033708
0.000695219
-0.000353223
0.00081389
-0.000367041
0.000936453
-0.000378585
0.00106221
-0.000387906
0.00119047
-0.000395056
0.00132057
-0.000400111
0.00145185
-0.00040317
0.00158372
-0.000404342
0.00171559
-0.00040374
0.00184692
-0.000401475
0.0019772
-0.000397659
0.00210595
-0.000392412
0.00223274
-0.000385851
0.00235716
-0.0003781
0.00247887
-0.00036928
0.00259753
-0.000359515
0.00271288
-0.000348925
0.00282466
-0.000337632
0.00293267
-0.00032575
0.00303675
-0.000313394
0.00313676
-0.000300671
0.00323262
-0.000287685
0.00332425
-0.000274534
0.00341163
-0.000261309
0.00349474
-0.000248095
0.00357361
-0.000234969
0.00364828
-0.000222001
0.00371882
-0.000209255
0.00378531
-0.000196783
0.00384785
-0.000184628
-0.000172814
0.00390655
-7.9948e-06
7.85507e-05
-2.46644e-05
0.000149865
-4.26841e-05
0.00016756
-5.81532e-05
0.000153634
-6.85041e-05
0.00012132
-7.20343e-05
7.90075e-05
-6.74059e-05
3.13674e-05
-5.45843e-05
-1.83093e-05
-3.22181e-05
-6.71916e-05
-2.45035e-07
-0.000115685
4.02548e-05
-0.000161946
9.02127e-05
-0.000206533
0.00014919
-0.000248517
0.00021673
-0.000287743
0.000292373
-0.000324103
0.000375619
-0.000357519
0.000465922
-0.00038794
0.000562705
-0.000415347
0.000665365
-0.000439741
0.000773284
-0.000461142
0.000885834
-0.000479591
0.00100238
-0.000495133
0.00112229
-0.000507818
0.00124494
-0.000517704
0.0013697
-0.000524866
0.00149595
-0.00052942
0.00162311
-0.000531507
0.00175064
-0.000531262
0.00187798
-0.000528824
0.00200466
-0.000524334
0.00213019
-0.000517941
0.00225414
-0.000509798
0.0023761
-0.000500062
0.00249571
-0.000488891
0.00261264
-0.000476445
0.0027266
-0.000462884
0.00283733
-0.000448363
0.00294462
-0.000433038
0.00304828
-0.000417058
0.00314818
-0.000400566
0.00324419
-0.000383699
0.00333624
-0.000366588
0.00342429
-0.000349355
0.00350831
-0.000332113
0.0035883
-0.000314965
0.00366431
-0.000298008
0.00373638
-0.000281323
0.00380458
-0.000264984
0.003869
-0.000249047
-0.000233539
0.00392972
5.73554e-06
7.28151e-05
1.09428e-05
0.000144658
1.7223e-05
0.00016128
2.41646e-05
0.000146692
3.28118e-05
0.000112673
4.43402e-05
6.74791e-05
6.02052e-05
1.55024e-05
8.03943e-05
-3.84985e-05
0.000106955
-9.37525e-05
0.000140114
-0.000148844
0.000180702
-0.000202535
0.000228517
-0.000254347
0.000283727
-0.000303728
0.000346296
-0.000350312
0.000416053
-0.000393861
0.000492734
-0.000434199
0.000575996
-0.000471203
0.000665437
-0.000504788
0.000760603
-0.000534907
0.000861002
-0.000561542
0.000966113
-0.000584702
0.0010754
-0.000604417
0.0011883
-0.000620722
0.00130425
-0.000633656
0.00142268
-0.000643289
0.001543
-0.000649744
0.00166467
-0.000653177
0.00178715
-0.000653745
0.00190993
-0.000651604
0.00203251
-0.000646916
0.00215443
-0.000639856
0.00227524
-0.000630606
0.00239453
-0.000619352
0.00251192
-0.000606288
0.00262709
-0.000591607
0.00273971
-0.000575503
0.00284951
-0.00055817
0.00295627
-0.000539797
0.00305978
-0.000520569
0.00315988
-0.000500665
0.00325644
-0.000480256
0.00334935
-0.000459505
0.00343856
-0.000438565
0.00352403
-0.000417579
0.00360574
-0.000396677
0.00368371
-0.000375979
0.00375798
-0.000355591
0.0038286
-0.000335604
0.00389564
-0.00031609
-0.000297079
0.00395918
2.01698e-05
5.26453e-05
5.10666e-05
0.000113761
8.40989e-05
0.000128247
0.000115753
0.000115038
0.000144979
8.34476e-05
0.000172812
3.9646e-05
0.000199502
-1.11879e-05
0.000226906
-6.59024e-05
0.000257168
-0.000124015
0.000291281
-0.000182956
0.000330212
-0.000241465
0.000374564
-0.0002987
0.000424791
-0.000353955
0.000481179
-0.0004067
0.000543852
-0.000456533
0.000612799
-0.000503146
0.000687897
-0.000546301
0.000768931
-0.000585822
0.000855607
-0.000621583
0.000947569
-0.000653503
0.00104441
-0.000681543
0.00114569
-0.000705692
0.00125092
-0.000725959
0.00135962
-0.000742353
0.00147125
-0.000754917
0.00158527
-0.00076377
0.00170117
-0.000769076
0.00181843
-0.000771
0.00193653
-0.00076971
0.002055
-0.000765382
0.00217335
-0.000758211
0.00229115
-0.000748401
0.00240796
-0.000736169
0.00252341
-0.000721733
0.00263712
-0.000705322
0.00274878
-0.000687161
0.00285809
-0.000667479
0.0029648
-0.000646501
0.00306867
-0.000624446
0.00316954
-0.000601528
0.00326724
-0.000577954
0.00336165
-0.000553917
0.00345269
-0.000529604
0.00354029
-0.000505186
0.00362444
-0.000480823
0.00370512
-0.00045666
0.00378236
-0.000432827
0.00385619
-0.000409435
0.00392667
-0.000386573
-0.00036428
0.00399387
3.68517e-05
1.57936e-05
9.79894e-05
5.26233e-05
0.00015903
6.72071e-05
0.000213993
6.00741e-05
0.000261222
3.62192e-05
0.000304132
-3.26392e-06
0.000338839
-4.58947e-05
0.000371673
-9.87367e-05
0.000403947
-0.000156289
0.000437402
-0.000216412
0.000473456
-0.000277518
0.000513179
-0.000338424
0.000557402
-0.000398178
0.000606729
-0.000456027
0.000661565
-0.000511369
0.000722143
-0.000563724
0.000788553
-0.000612711
0.000860758
-0.000658028
0.000938621
-0.000699445
0.00102191
-0.000736795
0.00111033
-0.000769965
0.00120353
-0.000798893
0.00130111
-0.000823538
0.00140263
-0.000843873
0.00150762
-0.000859904
0.00161558
-0.000871722
0.00172599
-0.000879488
0.00183836
-0.000883371
0.00195219
-0.000883538
0.00206698
-0.000880178
0.00218227
-0.000873497
0.00229759
-0.000863719
0.0024125
-0.000851082
0.0025266
-0.000835833
0.00263951
-0.000818228
0.00275087
-0.000798525
0.00286037
-0.000776984
0.00296774
-0.000753866
0.00307272
-0.000729425
0.0031751
-0.00070391
0.0032747
-0.00067756
0.00337139
-0.000650606
0.00346506
-0.000623265
0.00355561
-0.000595741
0.00364301
-0.000568221
0.00372723
-0.000540879
0.00380827
-0.00051387
0.00388616
-0.000487327
0.00396095
-0.000461359
0.0040327
-0.000436031
0.003944
-6.16185e-05
-9.06975e-09
0.00400313
-5.91239e-05
-9.70526e-09
0.00405975
-5.66092e-05
-1.02302e-08
0.00411386
-5.40943e-05
-1.06283e-08
0.00416546
-5.15931e-05
-1.08672e-08
0.00421459
-4.91175e-05
-1.09236e-08
0.00426128
-4.66791e-05
-1.07829e-08
0.00430558
-4.42887e-05
-1.04415e-08
0.00434755
-4.19565e-05
-9.90747e-09
0.00438725
-3.96919e-05
-9.19885e-09
0.00442476
-3.75033e-05
-8.33863e-09
0.00446017
-3.53981e-05
-7.35222e-09
0.00449355
-3.33826e-05
-6.26918e-09
0.00452502
-3.14614e-05
-5.11726e-09
0.00455466
-2.96379e-05
-3.92166e-09
0.00458258
-2.79142e-05
-2.70654e-09
0.00460887
-2.62906e-05
-1.49454e-09
0.00463364
-2.47665e-05
-3.02662e-10
0.00465698
-2.33396e-05
8.56721e-10
0.00467898
-2.2007e-05
1.97188e-09
0.00469974
-2.07642e-05
3.03664e-09
0.00471935
-1.96062e-05
4.04868e-09
0.00473787
-1.85271e-05
5.00692e-09
0.00475538
-1.75201e-05
5.91084e-09
0.00477195
-1.65781e-05
6.76115e-09
0.00478764
-1.56934e-05
7.55765e-09
0.00480249
-1.48583e-05
8.29577e-09
0.00481654
-1.4065e-05
8.96874e-09
0.00482984
-1.33068e-05
9.56796e-09
0.00484241
-1.25779e-05
1.00803e-08
0.00485427
-1.1874e-05
1.04902e-08
0.00486546
-1.11933e-05
1.07828e-08
0.00487598
-1.05361e-05
1.09444e-08
0.00488588
-9.90491e-06
1.0964e-08
0.00489517
-9.30378e-06
1.08361e-08
0.0049039
-8.73769e-06
1.05629e-08
0.0049121
-8.21135e-06
1.01525e-08
0.00491981
-7.7282e-06
9.62004e-09
0.0049271
-7.28964e-06
8.98674e-09
0.00493398
-6.89466e-06
8.2766e-09
0.00494051
-6.53994e-06
7.51386e-09
0.00494673
-6.22038e-06
6.7232e-09
0.00495265
-5.92992e-06
5.9266e-09
0.00495831
-5.66244e-06
5.15026e-09
0.00496372
-5.41198e-06
4.40126e-09
0.00496889
-5.17441e-06
3.66646e-09
0.00497383
-4.94643e-06
2.98308e-09
0.00497855
-4.72583e-06
2.34327e-09
0.00498306
-4.51143e-06
1.75263e-09
0.00498737
-4.30274e-06
1.21014e-09
0.00499146
-4.09971e-06
7.1524e-10
0.00499537
-3.90248e-06
2.66074e-10
0.00499908
-3.71126e-06
-1.40973e-10
0.00500261
-3.5262e-06
-5.13074e-10
0.00500595
-3.34743e-06
-8.59202e-10
0.00500913
-3.17498e-06
-1.1885e-09
0.00501214