/*--------------------------------*- C++ -*----------------------------------*\
| =========                 |                                                 |
| \\      /  F ield         | OpenFOAM: The Open Source CFD Toolbox           |
|  \\    /   O peration     | Version:  2412                                  |
|   \\  /    A nd           | Website:  www.openfoam.com                      |
|    \\/     M anipulation  |                                                 |
\*---------------------------------------------------------------------------*/
FoamFile
{
    version     2.0;
    format      ascii;
    arch        "LSB;label=32;scalar=64";
    class       volVectorField;
    location    "24";
    object      U;
}
// * * * * * * * * * * * * * * * * * * * * * * * * * * * * * * * * * * * * * //

dimensions      [0 1 -1 0 0 0 0];

internalField   nonuniform List<vector> 
63420
(
(0.0999997 4.38272e-07 0)
(0.099995 1.30375e-06 0)
(0.0999851 2.1573e-06 0)
(0.0999707 3.00318e-06 0)
(0.099952 3.84469e-06 0)
(0.0999292 4.68356e-06 0)
(0.0999024 5.52584e-06 0)
(0.0998718 6.39243e-06 0)
(0.0998373 7.32745e-06 0)
(0.0997987 8.39614e-06 0)
(0.0997552 9.66884e-06 0)
(0.099706 1.11961e-05 0)
(0.09965 1.29856e-05 0)
(0.0995863 1.49912e-05 0)
(0.0995146 1.71185e-05 0)
(0.0994348 1.92456e-05 0)
(0.0993475 2.12492e-05 0)
(0.0992539 2.30293e-05 0)
(0.0991553 2.45258e-05 0)
(0.0990532 2.57229e-05 0)
(0.0989488 2.66454e-05 0)
(0.0988434 2.73473e-05 0)
(0.0987377 2.78987e-05 0)
(0.0986322 2.8373e-05 0)
(0.0985271 2.88377e-05 0)
(0.0984223 2.93486e-05 0)
(0.0983175 2.99472e-05 0)
(0.0982126 3.06607e-05 0)
(0.0981071 3.15049e-05 0)
(0.0980006 3.24857e-05 0)
(0.0978927 3.3603e-05 0)
(0.0977832 3.48526e-05 0)
(0.0976717 3.62287e-05 0)
(0.097558 3.7725e-05 0)
(0.0974418 3.93358e-05 0)
(0.0973229 4.10566e-05 0)
(0.0972013 4.28843e-05 0)
(0.0970767 4.4817e-05 0)
(0.096949 4.68543e-05 0)
(0.0968181 4.89969e-05 0)
(0.0966839 5.12464e-05 0)
(0.0965463 5.36052e-05 0)
(0.0964052 5.60764e-05 0)
(0.0962605 5.86636e-05 0)
(0.096112 6.13708e-05 0)
(0.0959598 6.42024e-05 0)
(0.0958037 6.71633e-05 0)
(0.0956436 7.02584e-05 0)
(0.0954794 7.34932e-05 0)
(0.0953111 7.68735e-05 0)
(0.0951385 8.04061e-05 0)
(0.0949614 8.40996e-05 0)
(0.0947799 8.79681e-05 0)
(0.0945938 9.20419e-05 0)
(0.0944029 9.63978e-05 0)
(0.0999997 1.31481e-06 0)
(0.099995 3.91102e-06 0)
(0.0999851 6.47128e-06 0)
(0.0999707 9.00839e-06 0)
(0.099952 1.15324e-05 0)
(0.0999292 1.40486e-05 0)
(0.0999025 1.65751e-05 0)
(0.0998719 1.91743e-05 0)
(0.0998375 2.1978e-05 0)
(0.0997988 2.51811e-05 0)
(0.0997554 2.89939e-05 0)
(0.0997062 3.35677e-05 0)
(0.0996503 3.89258e-05 0)
(0.0995868 4.49308e-05 0)
(0.0995152 5.13018e-05 0)
(0.0994355 5.76745e-05 0)
(0.0993484 6.36805e-05 0)
(0.099255 6.90213e-05 0)
(0.0991565 7.35162e-05 0)
(0.0990546 7.7118e-05 0)
(0.0989503 7.98999e-05 0)
(0.098845 8.20224e-05 0)
(0.0987394 8.36941e-05 0)
(0.098634 8.51342e-05 0)
(0.0985289 8.65444e-05 0)
(0.0984241 8.8091e-05 0)
(0.0983194 8.98978e-05 0)
(0.0982146 9.20472e-05 0)
(0.0981091 9.45856e-05 0)
(0.0980026 9.75317e-05 0)
(0.0978949 0.000100885 0)
(0.0977854 0.000104634 0)
(0.097674 0.000108761 0)
(0.0975604 0.000113247 0)
(0.0974443 0.000118076 0)
(0.0973256 0.000123234 0)
(0.0972041 0.000128711 0)
(0.0970797 0.000134504 0)
(0.0969522 0.000140609 0)
(0.0968215 0.00014703 0)
(0.0966875 0.000153771 0)
(0.0965501 0.00016084 0)
(0.0964092 0.000168245 0)
(0.0962648 0.000175997 0)
(0.0961166 0.000184109 0)
(0.0959647 0.000192593 0)
(0.0958089 0.000201464 0)
(0.0956492 0.000210736 0)
(0.0954854 0.000220426 0)
(0.0953174 0.000230552 0)
(0.0951452 0.000241133 0)
(0.0949686 0.000252195 0)
(0.0947876 0.00026378 0)
(0.0946019 0.000275975 0)
(0.0944115 0.000289008 0)
(0.0999997 2.19046e-06 0)
(0.099995 6.51549e-06 0)
(0.0999851 1.07807e-05 0)
(0.0999708 1.50072e-05 0)
(0.0999521 1.92119e-05 0)
(0.0999293 2.34036e-05 0)
(0.0999026 2.76125e-05 0)
(0.0998721 3.19418e-05 0)
(0.0998377 3.66102e-05 0)
(0.0997991 4.19411e-05 0)
(0.0997558 4.82837e-05 0)
(0.0997068 5.58901e-05 0)
(0.099651 6.48002e-05 0)
(0.0995877 7.47873e-05 0)
(0.0995164 8.53861e-05 0)
(0.099437 9.59925e-05 0)
(0.0993503 0.000105995 0)
(0.0992571 0.000114897 0)
(0.099159 0.000122396 0)
(0.0990573 0.000128414 0)
(0.0989534 0.000133068 0)
(0.0988483 0.000136626 0)
(0.0987428 0.000139431 0)
(0.0986375 0.000141848 0)
(0.0985325 0.000144211 0)
(0.0984278 0.000146797 0)
(0.0983232 0.000149812 0)
(0.0982184 0.000153393 0)
(0.0981131 0.000157618 0)
(0.0980067 0.00016252 0)
(0.0978991 0.000168098 0)
(0.0977898 0.000174332 0)
(0.0976786 0.000181195 0)
(0.0975652 0.000188654 0)
(0.0974494 0.000196684 0)
(0.0973309 0.000205261 0)
(0.0972097 0.000214371 0)
(0.0970856 0.000224003 0)
(0.0969585 0.000234157 0)
(0.0968282 0.000244835 0)
(0.0966946 0.000256045 0)
(0.0965577 0.0002678 0)
(0.0964174 0.000280114 0)
(0.0962734 0.000293004 0)
(0.0961258 0.000306492 0)
(0.0959745 0.000320597 0)
(0.0958194 0.000335345 0)
(0.0956603 0.000350759 0)
(0.0954972 0.000366866 0)
(0.09533 0.000383695 0)
(0.0951586 0.000401278 0)
(0.0949829 0.000419657 0)
(0.0948028 0.000438898 0)
(0.0946181 0.000459142 0)
(0.0944288 0.000480747 0)
(0.0999997 3.06466e-06 0)
(0.099995 9.11527e-06 0)
(0.0999851 1.50825e-05 0)
(0.0999708 2.09953e-05 0)
(0.0999522 2.68777e-05 0)
(0.0999295 3.2742e-05 0)
(0.0999028 3.863e-05 0)
(0.0998724 4.46855e-05 0)
(0.099838 5.1212e-05 0)
(0.0997996 5.86597e-05 0)
(0.0997564 6.75154e-05 0)
(0.0997075 7.81317e-05 0)
(0.0996521 9.05666e-05 0)
(0.0995891 0.000104507 0)
(0.0995181 0.000119308 0)
(0.0994392 0.000134129 0)
(0.099353 0.000148117 0)
(0.0992603 0.00016058 0)
(0.0991627 0.000171094 0)
(0.0990614 0.000179545 0)
(0.0989578 0.000186094 0)
(0.098853 0.00019111 0)
(0.0987478 0.00019507 0)
(0.0986427 0.000198482 0)
(0.0985379 0.00020181 0)
(0.0984333 0.00020544 0)
(0.0983289 0.000209663 0)
(0.0982242 0.000214669 0)
(0.098119 0.00022057 0)
(0.0980128 0.000227411 0)
(0.0979054 0.000235193 0)
(0.0977964 0.000243891 0)
(0.0976854 0.000253464 0)
(0.0975724 0.000263871 0)
(0.0974569 0.000275073 0)
(0.0973389 0.00028704 0)
(0.0972182 0.00029975 0)
(0.0970946 0.000313191 0)
(0.096968 0.00032736 0)
(0.0968383 0.00034226 0)
(0.0967053 0.000357902 0)
(0.0965691 0.000374304 0)
(0.0964295 0.000391485 0)
(0.0962863 0.000409469 0)
(0.0961396 0.000428285 0)
(0.0959892 0.000447961 0)
(0.0958349 0.000468531 0)
(0.0956769 0.000490027 0)
(0.0955149 0.000512487 0)
(0.0953488 0.000535948 0)
(0.0951786 0.000560457 0)
(0.0950042 0.000586068 0)
(0.0948255 0.000612867 0)
(0.0946423 0.000641037 0)
(0.0944546 0.000671035 0)
(0.0999997 3.93689e-06 0)
(0.099995 1.17085e-05 0)
(0.0999852 1.93738e-05 0)
(0.0999709 2.69686e-05 0)
(0.0999524 3.45242e-05 0)
(0.0999297 4.2057e-05 0)
(0.0999031 4.96199e-05 0)
(0.0998727 5.73957e-05 0)
(0.0998385 6.57714e-05 0)
(0.0998002 7.5321e-05 0)
(0.0997572 8.66671e-05 0)
(0.0997086 0.000100262 0)
(0.0996534 0.000116185 0)
(0.0995909 0.00013404 0)
(0.0995205 0.000153008 0)
(0.0994422 0.000172016 0)
(0.0993565 0.000189977 0)
(0.0992645 0.000206001 0)
(0.0991675 0.000219543 0)
(0.0990667 0.000230449 0)
(0.0989636 0.000238923 0)
(0.0988592 0.000245428 0)
(0.0987543 0.000250572 0)
(0.0986495 0.000255001 0)
(0.0985449 0.00025931 0)
(0.0984405 0.000263993 0)
(0.0983363 0.000269422 0)
(0.0982318 0.000275844 0)
(0.0981268 0.000283404 0)
(0.0980209 0.000292162 0)
(0.0979138 0.000302122 0)
(0.0978051 0.00031325 0)
(0.0976945 0.0003255 0)
(0.0975819 0.000338817 0)
(0.0974669 0.000353154 0)
(0.0973495 0.00036847 0)
(0.0972293 0.000384739 0)
(0.0971064 0.000401944 0)
(0.0969805 0.00042008 0)
(0.0968516 0.000439154 0)
(0.0967196 0.000459177 0)
(0.0965842 0.000480171 0)
(0.0964456 0.000502161 0)
(0.0963035 0.000525178 0)
(0.0961578 0.000549257 0)
(0.0960086 0.000574433 0)
(0.0958556 0.000600748 0)
(0.0956989 0.000628245 0)
(0.0955383 0.000656968 0)
(0.0953737 0.000686966 0)
(0.0952051 0.000718294 0)
(0.0950324 0.000751018 0)
(0.0948555 0.00078524 0)
(0.0946743 0.000821167 0)
(0.0944887 0.000859312 0)
(0.0999997 4.80677e-06 0)
(0.099995 1.42933e-05 0)
(0.0999852 2.36516e-05 0)
(0.099971 3.29229e-05 0)
(0.0999525 4.21464e-05 0)
(0.0999299 5.13421e-05 0)
(0.0999035 6.05743e-05 0)
(0.0998732 7.00634e-05 0)
(0.0998391 8.02769e-05 0)
(0.099801 9.19099e-05 0)
(0.0997582 0.000105718 0)
(0.0997099 0.000122254 0)
(0.0996551 0.000141619 0)
(0.0995931 0.00016334 0)
(0.0995233 0.000186431 0)
(0.0994457 0.000209594 0)
(0.0993608 0.000231509 0)
(0.0992696 0.000251094 0)
(0.0991733 0.000267678 0)
(0.0990732 0.000281069 0)
(0.0989707 0.000291502 0)
(0.0988668 0.000299534 0)
(0.0987623 0.000305897 0)
(0.0986578 0.000311372 0)
(0.0985535 0.000316681 0)
(0.0984494 0.000322425 0)
(0.0983454 0.000329057 0)
(0.0982411 0.000336884 0)
(0.0981364 0.000346082 0)
(0.0980308 0.000356728 0)
(0.0979241 0.00036883 0)
(0.0978158 0.000382352 0)
(0.0977057 0.000397235 0)
(0.0975937 0.000413416 0)
(0.0974793 0.000430837 0)
(0.0973626 0.000449451 0)
(0.0972432 0.000469225 0)
(0.0971211 0.000490137 0)
(0.0969962 0.000512183 0)
(0.0968682 0.000535368 0)
(0.0967372 0.000559707 0)
(0.096603 0.000585224 0)
(0.0964656 0.000611951 0)
(0.0963247 0.000639922 0)
(0.0961805 0.000669179 0)
(0.0960327 0.000699766 0)
(0.0958813 0.000731731 0)
(0.0957262 0.000765123 0)
(0.0955674 0.000799997 0)
(0.0954047 0.00083641 0)
(0.0952381 0.000874423 0)
(0.0950675 0.000914112 0)
(0.0948928 0.000955586 0)
(0.0947141 0.000999054 0)
(0.0945311 0.00104503 0)
(0.0999997 5.67358e-06 0)
(0.0999951 1.68683e-05 0)
(0.0999853 2.7913e-05 0)
(0.0999711 3.88541e-05 0)
(0.0999527 4.97388e-05 0)
(0.0999302 6.0591e-05 0)
(0.0999039 7.14856e-05 0)
(0.0998737 8.26792e-05 0)
(0.0998398 9.47172e-05 0)
(0.0998019 0.000108412 0)
(0.0997593 0.000124649 0)
(0.0997114 0.000144081 0)
(0.0996571 0.000166835 0)
(0.0995957 0.000192367 0)
(0.0995266 0.000219529 0)
(0.0994498 0.000246808 0)
(0.0993658 0.000272656 0)
(0.0992755 0.000295799 0)
(0.09918 0.000315443 0)
(0.0990807 0.000331348 0)
(0.0989789 0.000343781 0)
(0.0988755 0.000353382 0)
(0.0987716 0.000361004 0)
(0.0986675 0.000367557 0)
(0.0985635 0.000373886 0)
(0.0984597 0.0003807 0)
(0.098356 0.000388534 0)
(0.0982521 0.00039775 0)
(0.0981478 0.00040856 0)
(0.0980426 0.000421062 0)
(0.0979363 0.000435265 0)
(0.0978285 0.000451132 0)
(0.0977191 0.000468596 0)
(0.0976077 0.000487586 0)
(0.0974941 0.000508033 0)
(0.0973782 0.000529884 0)
(0.0972597 0.000553097 0)
(0.0971386 0.00057765 0)
(0.0970148 0.000603534 0)
(0.096888 0.000630756 0)
(0.0967582 0.000659332 0)
(0.0966254 0.00068929 0)
(0.0964894 0.000720664 0)
(0.0963501 0.000753496 0)
(0.0962075 0.000787831 0)
(0.0960614 0.000823721 0)
(0.0959119 0.000861219 0)
(0.0957588 0.000900383 0)
(0.095602 0.000941274 0)
(0.0954416 0.000983954 0)
(0.0952773 0.00102849 0)
(0.0951092 0.00107497 0)
(0.0949372 0.00112349 0)
(0.0947613 0.00117424 0)
(0.0945814 0.00122764 0)
(0.094206 0.000101259 -4.45859e-24)
(0.0940012 0.000106395 -4.54649e-24)
(0.0937866 0.000111877 -3.17301e-26)
(0.0935615 0.000117728 1.39737e-23)
(0.0933252 0.000123978 -4.62852e-24)
(0.0930769 0.000130662 -4.76532e-24)
(0.0928158 0.000137818 -1.46779e-23)
(0.0925411 0.000145489 1.45733e-23)
(0.0922517 0.000153726 4.98817e-24)
(0.0919467 0.00016258 0)
(0.0916248 0.000172114 5.15538e-24)
(0.0912847 0.000182394 -5.24531e-24)
(0.0909251 0.000193497 4.31615e-23)
(0.0905444 0.000205509 -9.25123e-23)
(0.0901408 0.000218527 4.94542e-23)
(0.0897126 0.00023266 4.00913e-23)
(0.0892575 0.000248031 5.14451e-23)
(0.0887732 0.000264781 -5.89297e-24)
(0.0882572 0.00028307 6.02252e-24)
(0.0877066 0.000303083 -6.15948e-24)
(0.087118 0.000325029 0)
(0.0864878 0.000349154 6.45798e-24)
(0.0858119 0.000375738 -6.62082e-24)
(0.0850856 0.000405109 0)
(0.0843037 0.000437652 -6.97742e-24)
(0.0834602 0.000473816 0)
(0.082548 0.000514136 -7.38114e-24)
(0.0815594 0.000559245 -1.237e-22)
(0.0804853 0.000609902 1.31351e-22)
(0.0793149 0.000667021 -1.31848e-22)
(0.078036 0.00073171 1.31647e-22)
(0.076634 0.000805315 0)
(0.0750919 0.000889485 0)
(0.0733892 0.000986238 1.61286e-22)
(0.0715018 0.00109804 -1.51753e-22)
(0.0694007 0.0012279 0)
(0.067051 0.0013794 0)
(0.0644112 0.00155669 0)
(0.0614319 0.00176437 0)
(0.0580556 0.00200697 0)
(0.054217 0.0022881 0)
(0.0498463 0.00260863 0)
(0.0448754 0.00296379 0)
(0.0392511 0.00333847 0)
(0.0329591 0.00370021 -1.48345e-23)
(0.026063 0.00398926 -5.0875e-22)
(0.018746 0.00410644 5.07987e-22)
(0.0113829 0.00390035 5.51634e-22)
(0.00487135 0.00313858 -5.50806e-22)
(0.000992585 0.0014582 0)
(0.0942151 0.000303551 -4.51133e-24)
(0.0940105 0.00031894 -9.20376e-24)
(0.0937961 0.000335351 -4.82722e-24)
(0.0935712 0.000352866 4.493e-24)
(0.0933351 0.000371576 -4.69365e-24)
(0.0930872 0.000391585 3.36462e-23)
(0.0928265 0.00041301 -5.28417e-23)
(0.0925522 0.000435981 4.90924e-24)
(0.0922633 0.000460643 6.55457e-23)
(0.0919588 0.000487159 -9.05253e-23)
(0.0916375 0.000515709 -8.84364e-23)
(0.0912981 0.000546498 7.79271e-23)
(0.0909392 0.000579754 0)
(0.0905593 0.000615735 5.4446e-24)
(0.0901568 0.00065473 -1.66424e-23)
(0.0897296 0.000697066 -1.88791e-22)
(0.0892757 0.000743115 1.81225e-22)
(0.0887928 0.000793298 -1.92648e-22)
(0.0882783 0.000848097 -1.80937e-23)
(0.0877294 0.000908061 6.17299e-24)
(0.0871428 0.000973824 0)
(0.0865149 0.00104612 -6.47471e-24)
(0.0858416 0.00112578 -2.08691e-22)
(0.0851183 0.00121381 4.36136e-22)
(0.0843398 0.00131134 2.40645e-22)
(0.0835002 0.00141972 -4.53836e-22)
(0.0825927 0.00154056 4.88795e-22)
(0.0816096 0.00167575 -4.9599e-22)
(0.0805418 0.00182757 -7.87141e-24)
(0.0793791 0.00199873 0)
(0.0781093 0.00219256 0)
(0.0767184 0.00241307 0)
(0.0751898 0.00266517 0)
(0.0735038 0.00295487 -9.34827e-24)
(0.0716371 0.0032895 -6.33732e-22)
(0.0695619 0.00367797 -2.66137e-23)
(0.067245 0.00413089 6.58629e-22)
(0.0646469 0.00466052 7.16783e-22)
(0.0617207 0.00528032 -7.15833e-22)
(0.058412 0.00600358 -2.37583e-23)
(0.054659 0.00684059 -2.48046e-23)
(0.0503949 0.00779341 -8.54544e-22)
(0.0455537 0.00884711 8.26406e-22)
(0.0400811 0.00995585 -2.81288e-23)
(0.0339551 0.0110223 1.49382e-23)
(0.0272197 0.0118682 -1.03454e-21)
(0.020022 0.0121981 1.03415e-21)
(0.0126753 0.0115624 -2.15699e-21)
(0.00595569 0.00927984 2.12092e-21)
(0.001433 0.00428027 -2.17289e-21)
(0.0942331 0.000504844 -2.66833e-23)
(0.0940289 0.000530404 -9.36942e-24)
(0.0938149 0.000557651 3.61247e-23)
(0.0935906 0.000586728 -7.43407e-23)
(0.0933551 0.000617789 1.59091e-22)
(0.0931078 0.000651008 -7.5372e-23)
(0.0928478 0.000686581 1.41801e-26)
(0.0925744 0.000724723 9.79109e-24)
(0.0922865 0.000765679 1.70776e-22)
(0.0919831 0.000809718 -1.60643e-22)
(0.091663 0.000857142 0)
(0.091325 0.000908292 1.45711e-26)
(0.0909677 0.000963548 0)
(0.0905896 0.00102334 1.87034e-22)
(0.090189 0.00108814 -1.64863e-22)
(0.089764 0.00115851 -3.55549e-22)
(0.0893126 0.00123506 1.98121e-23)
(0.0888326 0.00131848 -3.74421e-22)
(0.0883212 0.00140959 1.2107e-23)
(0.0877759 0.0015093 -4.01216e-22)
(0.0871933 0.00161867 4.13508e-22)
(0.0865701 0.0017389 -4.21474e-22)
(0.085902 0.00187141 4.34397e-22)
(0.0851848 0.00201782 1.3674e-23)
(0.0844134 0.00218006 -1.40499e-23)
(0.0835819 0.00236037 1.44493e-23)
(0.0826839 0.00256139 -4.84044e-22)
(0.0817119 0.00278628 4.98946e-22)
(0.0806573 0.0030388 5.30906e-22)
(0.0795102 0.00332348 -5.14612e-22)
(0.0782591 0.00364576 0)
(0.0768908 0.0040123 0)
(0.0753897 0.00443115 1.80783e-23)
(0.0737375 0.00491219 1.24549e-21)
(0.0719128 0.00546739 2.96142e-23)
(0.0698901 0.00611126 -1.25323e-21)
(0.0676395 0.00686096 0)
(0.0651255 0.00773627 -2.18816e-23)
(0.0623063 0.00875863 1.52306e-21)
(0.0591337 0.00994887 -3.03983e-21)
(0.0555527 0.0113225 3.22098e-21)
(0.0515027 0.0128809 9.60932e-23)
(0.0469218 0.0145972 -1.67219e-21)
(0.0417534 0.0163936 -1.8081e-21)
(0.0359597 0.0181079 1.8634e-21)
(0.0295446 0.019447 1.4367e-24)
(0.0225819 0.0199264 -3.16462e-23)
(0.0152628 0.0188077 2.0845e-21)
(0.00810719 0.015007 -2.0185e-21)
(0.00227922 0.00685699 -2.01902e-21)
(0.0942601 0.000704452 1.75795e-23)
(0.0940565 0.000740027 -8.92298e-24)
(0.0938432 0.000777939 1.94974e-26)
(0.0936196 0.000818393 9.18531e-24)
(0.093385 0.000861606 -1.96005e-26)
(0.0931388 0.000907825 1.52674e-22)
(0.09288 0.000957322 -2.8853e-22)
(0.092608 0.0010104 1.55083e-22)
(0.0923216 0.00106741 -9.93153e-24)
(0.09202 0.00112872 1.83621e-22)
(0.0917018 0.00119475 -1.63331e-22)
(0.0913661 0.00126598 -3.391e-22)
(0.0910112 0.00134294 6.84762e-22)
(0.0906359 0.00142623 -6.98396e-22)
(0.0902383 0.00151652 7.12687e-22)
(0.0898168 0.00161457 -7.1639e-22)
(0.0893693 0.00172125 -3.79295e-22)
(0.0888936 0.00183754 2.24825e-26)
(0.0883873 0.00196455 0)
(0.0878476 0.00210357 -3.90707e-22)
(0.0872714 0.00225607 4.02971e-22)
(0.0866553 0.00242375 0)
(0.0859956 0.00260856 -8.70602e-22)
(0.085288 0.0028128 8.56474e-22)
(0.0845275 0.00303912 1.41837e-23)
(0.0837088 0.00329065 -3.70046e-26)
(0.0828256 0.00357108 1.49922e-23)
(0.081871 0.0038848 0)
(0.0808369 0.00423702 -5.30659e-26)
(0.0797141 0.004634 0)
(0.0784921 0.00508329 -1.70187e-23)
(0.0771587 0.00559402 1.15065e-21)
(0.0757001 0.00617727 -1.15034e-21)
(0.0741001 0.00684652 -1.90247e-23)
(0.0723398 0.00761805 3.937e-23)
(0.0703976 0.00851145 -1.35666e-21)
(0.0682482 0.00954976 1.31449e-21)
(0.0658621 0.0107592 2.226e-23)
(0.0632054 0.0121678 -3.54958e-25)
(0.0602389 0.013802 2.37223e-23)
(0.0569175 0.0156801 -1.62779e-21)
(0.0531905 0.0178003 3.28968e-21)
(0.0490016 0.0201207 -1.71438e-21)
(0.0442907 0.0225297 1.77111e-21)
(0.0389967 0.0248021 -1.85413e-21)
(0.033063 0.0265378 -3.68151e-21)
(0.0264478 0.0270801 7.5105e-21)
(0.0191596 0.0254193 -3.80205e-21)
(0.0113702 0.0201058 0)
(0.00353598 0.00907804 -3.57676e-21)
(0.0942959 0.000901726 -8.71899e-24)
(0.094093 0.000947092 -3.56289e-23)
(0.0938807 0.000995426 1.08027e-22)
(0.0936582 0.00104699 -1.45894e-22)
(0.093425 0.00110208 6.4263e-23)
(0.0931803 0.00116101 9.42756e-24)
(0.0929233 0.00122413 -9.58747e-24)
(0.0926532 0.00129183 -2.46125e-26)
(0.0923691 0.00136455 9.92962e-24)
(0.0920699 0.00144278 -2.0201e-23)
(0.0917546 0.00152705 -3.3253e-22)
(0.0914219 0.00161797 3.43186e-22)
(0.0910705 0.00171622 -3.35351e-22)
(0.0906991 0.00182256 3.46175e-22)
(0.0903059 0.00193786 0)
(0.0898893 0.0020631 -2.47969e-26)
(0.0894473 0.00219936 0)
(0.0889779 0.00234793 -3.74426e-22)
(0.0884785 0.00251021 3.98755e-22)
(0.0879467 0.00268786 -1.25353e-23)
(0.0873795 0.00288275 -8.45232e-22)
(0.0867737 0.00309706 8.32756e-22)
(0.0861258 0.00333328 -1.35495e-23)
(0.0854316 0.00359434 0)
(0.0846866 0.00388363 0)
(0.0838859 0.00420514 -9.71871e-22)
(0.0830236 0.00456357 9.42345e-22)
(0.0820934 0.00496448 0)
(0.081088 0.00541448 -3.23396e-23)
(0.0799993 0.00592149 0)
(0.0788179 0.00649501 1.73173e-23)
(0.0775335 0.00714649 -1.78448e-23)
(0.076134 0.00788976 -1.85863e-23)
(0.0746062 0.00874153 1.91524e-23)
(0.0729349 0.00972188 1.2601e-21)
(0.0711032 0.0108547 -1.30056e-21)
(0.0690922 0.0121678 2.82594e-21)
(0.0668805 0.0136925 -2.82774e-21)
(0.0644442 0.0154614 2.99954e-21)
(0.0617561 0.0175042 8.49298e-23)
(0.0587846 0.0198391 -3.15951e-21)
(0.0554917 0.0224576 -2.5214e-23)
(0.0518292 0.0253009 1.25051e-24)
(0.0477332 0.0282234 1.65286e-24)
(0.0431142 0.0309414 2.17808e-24)
(0.0378395 0.032963 -5.44833e-23)
(0.0317128 0.0334909 -2.50104e-23)
(0.0244862 0.0312836 -2.37949e-23)
(0.0158777 0.0245409 0)
(0.00522653 0.0109366 7.35687e-24)
(0.0943402 0.00109604 -4.32677e-23)
(0.0941384 0.00115096 2.60271e-23)
(0.0939274 0.0012095 8.90895e-24)
(0.0937066 0.00127196 1.36805e-22)
(0.0934752 0.00133872 -1.36855e-22)
(0.0932326 0.00141016 1.41654e-22)
(0.092978 0.00148671 -3.14474e-22)
(0.0927106 0.00156884 4.47839e-22)
(0.0924295 0.0016571 -3.13715e-22)
(0.0921337 0.00175207 -3.25592e-22)
(0.0918222 0.00185441 -1.64224e-23)
(0.0914937 0.00196486 6.61419e-22)
(0.091147 0.00208425 -6.96861e-22)
(0.0907808 0.00221351 3.25063e-22)
(0.0903935 0.00235369 3.5097e-22)
(0.0899835 0.00250599 3.67063e-22)
(0.0895489 0.00267175 -2.84273e-23)
(0.0890878 0.00285251 7.48101e-22)
(0.0885978 0.00305001 7.72874e-22)
(0.0880766 0.00326625 1.96796e-23)
(0.0875215 0.00350354 -8.19528e-22)
(0.0869295 0.00376451 0)
(0.0862972 0.00405223 0)
(0.085621 0.00437023 -9.14184e-22)
(0.0848968 0.00472267 9.01054e-22)
(0.0841201 0.00511438 9.70895e-22)
(0.0832857 0.00555106 -9.72333e-22)
(0.0823881 0.00603945 0)
(0.0814211 0.00658752 1.08576e-21)
(0.0803776 0.00720477 -1.08785e-21)
(0.0792501 0.00790258 0)
(0.0780301 0.00869452 -2.35418e-21)
(0.0767085 0.0095969 2.37599e-21)
(0.0752753 0.0106292 -1.96356e-23)
(0.07372 0.0118144 -2.62575e-21)
(0.0720316 0.0131797 2.65012e-21)
(0.0701989 0.0147558 0)
(0.0682106 0.0165762 2.97245e-21)
(0.0660552 0.0186744 -2.95411e-21)
(0.0637206 0.0210781 2.39225e-23)
(0.0611919 0.0237984 3.25595e-21)
(0.0584475 0.0268125 -6.5307e-21)
(0.0554512 0.0300365 2.0385e-23)
(0.0521383 0.0332855 3.74783e-23)
(0.0483917 0.0362197 3.38405e-21)
(0.044 0.0382755 3.75482e-24)
(0.0385963 0.0385639 -2.90757e-21)
(0.0316047 0.0357092 2.98071e-21)
(0.0220607 0.0277186 0)
(0.00759433 0.0121456 2.66959e-23)
(0.094393 0.00128656 8.52041e-24)
(0.0941928 0.00135051 7.85201e-23)
(0.0939838 0.00141874 -7.00241e-23)
(0.0937652 0.00149163 8.99262e-24)
(0.0935364 0.00156958 1.3828e-22)
(0.0932967 0.00165307 -1.38497e-22)
(0.0930454 0.0017426 -2.96863e-22)
(0.0927816 0.00183872 4.36795e-24)
(0.0925045 0.00194208 -5.59513e-24)
(0.0922132 0.00205336 3.29859e-22)
(0.0919067 0.00217335 -3.22348e-22)
(0.0915838 0.00230293 6.84095e-22)
(0.0912434 0.00244308 -3.40909e-22)
(0.0908841 0.00259491 1.10233e-23)
(0.0905045 0.00275966 1.12831e-23)
(0.0901032 0.00293877 7.46585e-22)
(0.0896783 0.00313382 -5.0432e-24)
(0.0892282 0.00334666 7.79499e-22)
(0.0887506 0.00357937 1.24629e-23)
(0.0882434 0.00383432 0)
(0.0877042 0.00411426 0)
(0.0871303 0.00442234 -8.75669e-22)
(0.0865188 0.00476221 8.77881e-22)
(0.0858664 0.0051381 0)
(0.0851696 0.00555493 1.47753e-23)
(0.0844245 0.00601848 0)
(0.083627 0.00653552 -1.02062e-21)
(0.0827724 0.00711403 2.07796e-21)
(0.0818557 0.00776345 -1.05742e-21)
(0.0808717 0.00849498 -2.24094e-21)
(0.0798146 0.0093219 -7.50533e-23)
(0.0786785 0.01026 -7.91032e-23)
(0.0774575 0.0113281 -8.30447e-23)
(0.0761458 0.0125481 2.51871e-21)
(0.074738 0.0139458 2.70131e-21)
(0.0732299 0.0155502 -2.70774e-21)
(0.0716187 0.0173935 0)
(0.0699039 0.0195082 2.99353e-21)
(0.0680873 0.0219231 -3.00049e-21)
(0.0661728 0.0246554 -3.18343e-21)
(0.0641635 0.0276966 3.16589e-21)
(0.0620563 0.0309919 2.58651e-23)
(0.0598301 0.03441 3.17773e-21)
(0.0574257 0.0377022 -1.04545e-22)
(0.0547117 0.0404531 -3.13869e-21)
(0.0514231 0.0420301 2.39536e-23)
(0.0470726 0.0415208 0)
(0.0408405 0.0376078 -1.91197e-23)
(0.0309296 0.0285019 -9.22347e-22)
(0.012231 0.0120808 4.18255e-22)
(-0.000213701 0.000290055 0)
(-0.000931569 0.00055278 3.18719e-22)
(-0.0020019 0.000616948 -3.19197e-22)
(-0.00308352 0.000571634 -3.18266e-22)
(-0.00401149 0.000465911 3.18745e-22)
(-0.00471781 0.00032892 -9.82205e-24)
(-0.00516737 0.00017827 0)
(-0.00534128 2.42952e-05 0)
(-0.00524387 -0.00012593 0)
(-0.0048876 -0.0002711 0)
(-0.00427899 -0.000408816 0)
(-0.0034306 -0.000537486 0)
(-0.00235771 -0.000657031 0)
(-0.00107556 -0.000767261 0)
(0.000400362 -0.000868139 0)
(0.00205439 -0.000959765 1.03083e-22)
(0.00387084 -0.00104229 -9.69744e-23)
(0.00583427 -0.00111589 0)
(0.00792935 -0.00118077 0)
(0.010141 -0.00123716 -7.62748e-23)
(0.0124546 -0.00128531 7.63912e-23)
(0.0148557 -0.00132546 -5.91447e-23)
(0.0173301 -0.00135782 3.78713e-24)
(0.019864 -0.00138262 0)
(0.0224439 -0.00140019 3.03758e-24)
(0.0250572 -0.00141091 0)
(0.0276913 -0.0014152 0)
(0.0303348 -0.00141346 0)
(0.0329767 -0.0014061 1.74837e-24)
(0.0356068 -0.00139353 0)
(0.0382156 -0.00137617 -1.22321e-24)
(0.0407941 -0.00135444 9.91521e-25)
(0.0433342 -0.00132876 -7.80162e-25)
(0.0458286 -0.00129956 4.50757e-24)
(0.0482707 -0.00126724 -4.34139e-24)
(0.0506544 -0.00123222 -1.20806e-24)
(0.0529748 -0.00119489 1.80113e-24)
(0.0552273 -0.00115566 -4.55277e-25)
(0.0574082 -0.00111488 9.73256e-26)
(0.0595146 -0.00107292 -1.8702e-25)
(0.0615441 -0.00103011 0)
(0.0634949 -0.000986787 -3.27651e-25)
(0.0653659 -0.00094324 2.01262e-24)
(0.0671566 -0.000899748 -2.05838e-24)
(0.0688669 -0.000856565 4.58344e-25)
(0.0704972 -0.000813919 -1.48166e-24)
(0.0720484 -0.000772016 4.94367e-25)
(0.0735218 -0.000731031 1.04212e-24)
(0.0749189 -0.000691105 -5.25512e-25)
(0.0762417 -0.000652346 5.28955e-25)
(-0.000277788 0.000833873 -1.20864e-21)
(-0.00103932 0.00158391 -1.32146e-21)
(-0.00201689 0.00176757 1.3026e-21)
(-0.00295214 0.00163561 -6.25867e-22)
(-0.00372082 0.00132809 6.26936e-22)
(-0.00427298 0.000929681 9.89021e-24)
(-0.00458313 0.000492225 -1.95929e-23)
(-0.00463484 4.668e-05 -6.19446e-22)
(-0.00443512 -0.000396773 6.01103e-22)
(-0.00399666 -0.000824176 -1.80445e-23)
(-0.00332192 -0.0012301 -1.74043e-23)
(-0.00242241 -0.0016088 5.19633e-22)
(-0.00131234 -0.00196127 -5.20324e-22)
(-4.95845e-06 -0.0022868 -4.70427e-22)
(0.00148573 -0.00258511 2.662e-23)
(0.00314537 -0.00285649 4.45026e-22)
(0.00495953 -0.00310124 -6.29638e-24)
(0.00691389 -0.00331977 -1.18993e-23)
(0.00899409 -0.0035126 0)
(0.0111859 -0.00368039 0)
(0.0134755 -0.00382383 0)
(0.0158491 -0.00394361 -4.19916e-24)
(0.0182932 -0.00404034 2.20767e-22)
(0.0207943 -0.0041147 -2.3959e-22)
(0.0233399 -0.00416765 1.8199e-22)
(0.0259173 -0.00420028 -1.03765e-22)
(0.0285147 -0.00421381 -1.5275e-22)
(0.0311209 -0.00420941 7.12162e-23)
(0.0337252 -0.00418828 -1.75287e-24)
(0.0363178 -0.00415161 -3.05762e-24)
(0.0388893 -0.00410065 1.22587e-24)
(0.041431 -0.00403663 -3.06798e-24)
(0.0439351 -0.00396078 2.14857e-23)
(0.0463942 -0.00387437 -3.94584e-23)
(0.0488019 -0.00377863 1.60246e-23)
(0.0511525 -0.00367476 -8.54146e-25)
(0.0534407 -0.00356398 1.2655e-25)
(0.0556624 -0.00344743 0)
(0.0578139 -0.00332623 2.18807e-24)
(0.0598921 -0.00320146 -1.95769e-24)
(0.0618947 -0.00307413 -4.13046e-24)
(0.06382 -0.0029452 5.5638e-24)
(0.065667 -0.00281556 -3.80738e-25)
(0.0674349 -0.00268604 -2.24414e-24)
(0.0691238 -0.0025574 3.91514e-24)
(0.0707341 -0.00243034 4.84309e-25)
(0.0722665 -0.00230545 3.50885e-24)
(0.0737224 -0.00218327 5.34717e-25)
(0.0751032 -0.00206421 -1.02429e-24)
(0.0764107 -0.00194858 -1.5748e-24)
(-0.000389731 0.00127444 -1.25278e-21)
(-0.00121592 0.00239432 1.3744e-21)
(-0.00199704 0.00267584 -1.33336e-21)
(-0.00264306 0.00246909 -2.07794e-23)
(-0.00310253 0.00198823 -3.55936e-25)
(-0.0033568 0.00136479 -1.26999e-21)
(-0.00339709 0.000678136 1.31164e-21)
(-0.00322292 -2.53253e-05 1.24999e-21)
(-0.00283594 -0.000728792 -1.83797e-23)
(-0.00224024 -0.00140801 -2.33133e-21)
(-0.00144009 -0.00205937 2.28365e-21)
(-0.000444105 -0.00266604 -1.09465e-21)
(0.000734506 -0.00323327 -1.64109e-23)
(0.0020877 -0.00375926 0)
(0.00360424 -0.004243 9.26307e-22)
(0.00527232 -0.00468439 -6.8937e-23)
(0.00708002 -0.00508353 -8.45091e-22)
(0.00901505 -0.00544085 2.42726e-23)
(0.0110649 -0.00575701 0)
(0.0132171 -0.00603286 0)
(0.0154592 -0.00626936 2.91753e-22)
(0.0177787 -0.00646752 -2.83187e-22)
(0.0201632 -0.00662823 -2.32075e-22)
(0.0226007 -0.00675261 2.47121e-22)
(0.0250789 -0.00684189 6.47625e-24)
(0.0275867 -0.00689798 -5.75063e-24)
(0.0301127 -0.00692271 5.06158e-24)
(0.0326464 -0.00691798 -1.23589e-22)
(0.035178 -0.0068857 1.28121e-22)
(0.0376978 -0.00682781 -8.57484e-23)
(0.0401971 -0.00674627 9.21415e-23)
(0.0426676 -0.00664311 2.08267e-24)
(0.0451018 -0.00652034 4.80679e-23)
(0.0474927 -0.00638001 -8.30548e-23)
(0.0498341 -0.00622413 3.71324e-23)
(0.0521204 -0.00605471 8.50654e-24)
(0.0543466 -0.00587371 -7.50927e-24)
(0.0565087 -0.00568303 0)
(0.058603 -0.00548453 -8.33554e-26)
(0.0606267 -0.00527998 0)
(0.0625773 -0.00507105 -8.42479e-24)
(0.0644534 -0.00485933 7.74671e-24)
(0.0662537 -0.00464632 -6.65896e-25)
(0.0679776 -0.00443338 -5.39718e-26)
(0.0696251 -0.00422178 -7.1894e-24)
(0.0711964 -0.00401266 1.37869e-23)
(0.0726925 -0.00380704 -7.58263e-24)
(0.0741143 -0.00360579 3.97015e-24)
(0.0754633 -0.0034096 -2.97085e-24)
(0.0767413 -0.00321892 -1.03098e-24)
(-0.000519942 0.00152807 -2.69945e-21)
(-0.00137648 0.0028599 0)
(-0.00183092 0.00321072 2.80633e-21)
(-0.00205662 0.00294594 -5.61417e-21)
(-0.00207827 0.0023375 2.82908e-21)
(-0.00191915 0.00154645 1.29784e-21)
(-0.00159087 0.000668843 -1.36168e-21)
(-0.00110345 -0.000239967 1.27481e-21)
(-0.000457654 -0.00115018 -2.53162e-21)
(0.000343729 -0.00203862 1.23731e-21)
(0.00130913 -0.00288805 1.84964e-23)
(0.00243446 -0.00369125 3.18244e-25)
(0.0037012 -0.00444758 1.66932e-23)
(0.00511115 -0.0051519 -1.01539e-21)
(0.00665753 -0.00580257 9.84495e-22)
(0.0083319 -0.00639878 2.87159e-23)
(0.0101254 -0.00694019 -1.33189e-23)
(0.0120287 -0.00742686 7.77023e-22)
(0.0140319 -0.00785922 -7.76977e-22)
(0.0161246 -0.00823802 -1.09916e-23)
(0.0182965 -0.00856424 0)
(0.020537 -0.00883898 3.09373e-25)
(0.0228354 -0.00906332 0)
(0.0251807 -0.00923834 7.6041e-24)
(0.0275626 -0.00936581 2.80155e-25)
(0.0299704 -0.00944783 5.80505e-24)
(0.0323943 -0.00948701 -3.17806e-22)
(0.0348247 -0.00948578 3.13054e-22)
(0.0372524 -0.00944665 0)
(0.0396687 -0.00937217 -9.84397e-23)
(0.0420654 -0.00926498 1.01623e-22)
(0.0444348 -0.00912779 0)
(0.0467697 -0.00896333 -1.7937e-25)
(0.0490638 -0.00877437 -4.22685e-23)
(0.0513109 -0.00856367 7.17871e-23)
(0.0535059 -0.00833397 -4.94822e-23)
(0.0556441 -0.00808797 3.08575e-23)
(0.0577215 -0.0078283 -1.42002e-23)
(0.0597347 -0.0075575 3.12645e-24)
(0.0616808 -0.00727802 -4.62273e-24)
(0.0635577 -0.0069922 3.89242e-24)
(0.0653636 -0.00670225 4.6343e-25)
(0.0670975 -0.00641022 1.09381e-23)
(0.0687587 -0.00611805 -2.45563e-23)
(0.0703471 -0.00582748 1.21875e-23)
(0.071863 -0.00554011 6.12643e-26)
(0.0733071 -0.00525738 -9.35999e-25)
(0.0746804 -0.00498048 -5.08919e-26)
(0.0759841 -0.00471039 9.87205e-25)
(0.0772199 -0.00444763 -1.95344e-24)
(-0.000577808 0.00152152 -1.58759e-24)
(-0.00132947 0.00290511 -2.51243e-23)
(-0.00133431 0.00328555 -2.43773e-23)
(-0.00102952 0.00299225 -2.37054e-23)
(-0.00051902 0.00231818 -4.5597e-23)
(0.000128704 0.00143231 -4.95e-25)
(0.000884016 0.000443223 2.15058e-23)
(0.00172986 -0.000601608 -2.1348e-23)
(0.00266848 -0.00165908 -2.07098e-23)