/*--------------------------------*- C++ -*----------------------------------*\
| =========                 |                                                 |
| \\      /  F ield         | OpenFOAM: The Open Source CFD Toolbox           |
|  \\    /   O peration     | Version:  2412                                  |
|   \\  /    A nd           | Website:  www.openfoam.com                      |
|    \\/     M anipulation  |                                                 |
\*---------------------------------------------------------------------------*/
FoamFile
{
    version     2.0;
    format      ascii;
    arch        "LSB;label=32;scalar=64";
    class       volVectorField;
    location    "24";
    object      vorticity;
}
// * * * * * * * * * * * * * * * * * * * * * * * * * * * * * * * * * * * * * //

dimensions      [0 0 -1 0 0 0 0];

internalField   nonuniform List<vector> 
63420
(
(0 0 5.92312e-06)
(0 0 5.89984e-06)
(0 0 5.87951e-06)
(0 0 5.85584e-06)
(0 0 5.81927e-06)
(0 0 5.78393e-06)
(0 0 5.8271e-06)
(0 0 6.1007e-06)
(0 0 6.78128e-06)
(0 0 7.9685e-06)
(0 0 9.5856e-06)
(0 0 1.13434e-05)
(0 0 1.27968e-05)
(0 0 1.34721e-05)
(0 0 1.30126e-05)
(0 0 1.12835e-05)
(0 0 8.40269e-06)
(0 0 4.69933e-06)
(0 0 6.2246e-07)
(0 0 -3.36309e-06)
(0 0 -6.86429e-06)
(0 0 -9.61342e-06)
(0 0 -1.14843e-05)
(0 0 -1.24786e-05)
(0 0 -1.26934e-05)
(0 0 -1.22832e-05)
(0 0 -1.14243e-05)
(0 0 -1.02868e-05)
(0 0 -9.01781e-06)
(0 0 -7.73202e-06)
(0 0 -6.51077e-06)
(0 0 -5.40488e-06)
(0 0 -4.44032e-06)
(0 0 -3.62441e-06)
(0 0 -2.95181e-06)
(0 0 -2.40953e-06)
(0 0 -1.98074e-06)
(0 0 -1.64755e-06)
(0 0 -1.3927e-06)
(0 0 -1.20063e-06)
(0 0 -1.05787e-06)
(0 0 -9.53219e-07)
(0 0 -8.7756e-07)
(0 0 -8.23666e-07)
(0 0 -7.85892e-07)
(0 0 -7.59898e-07)
(0 0 -7.42301e-07)
(0 0 -7.30267e-07)
(0 0 -7.20543e-07)
(0 0 -7.06658e-07)
(0 0 -6.69844e-07)
(0 0 -5.49882e-07)
(0 0 -1.5413e-07)
(0 0 1.11778e-06)
(0 4.42412e-23 5.07614e-06)
(0 0 1.77686e-05)
(0 0 1.76976e-05)
(0 0 1.76356e-05)
(0 0 1.75644e-05)
(0 0 1.74554e-05)
(0 0 1.73504e-05)
(0 0 1.74798e-05)
(0 0 1.82971e-05)
(0 0 2.033e-05)
(0 0 2.38776e-05)
(0 0 2.87128e-05)
(0 0 3.39743e-05)
(0 0 3.83341e-05)
(0 0 4.03779e-05)
(0 0 3.90389e-05)
(0 0 3.39104e-05)
(0 0 2.5341e-05)
(0 0 1.43091e-05)
(0 0 2.15228e-06)
(0 0 -9.74334e-06)
(0 0 -2.02044e-05)
(0 0 -2.84304e-05)
(0 0 -3.40425e-05)
(0 0 -3.70428e-05)
(0 0 -3.7719e-05)
(0 0 -3.65295e-05)
(0 0 -3.39985e-05)
(0 0 -3.0633e-05)
(0 0 -2.68707e-05)
(0 0 -2.30542e-05)
(0 0 -1.94262e-05)
(0 0 -1.61387e-05)
(0 0 -1.32696e-05)
(0 0 -1.08415e-05)
(0 0 -8.83876e-06)
(0 0 -7.22324e-06)
(0 0 -5.94512e-06)
(0 0 -4.95131e-06)
(0 0 -4.1906e-06)
(0 0 -3.61668e-06)
(0 0 -3.18959e-06)
(0 0 -2.87596e-06)
(0 0 -2.64866e-06)
(0 0 -2.48614e-06)
(0 0 -2.37158e-06)
(0 0 -2.29199e-06)
(0 0 -2.23728e-06)
(0 0 -2.19899e-06)
(0 0 -2.16751e-06)
(0 0 -2.12396e-06)
(0 0 -2.01385e-06)
(0 0 -1.66247e-06)
(0 0 -5.10267e-07)
(0 0 3.18959e-06)
(0 4.47099e-23 1.47132e-05)
(0 0 2.96019e-05)
(0 0 2.94832e-05)
(0 0 2.93793e-05)
(0 0 2.92607e-05)
(0 0 2.90799e-05)
(0 0 2.89054e-05)
(0 0 2.91186e-05)
(0 0 3.04717e-05)
(0 0 3.38423e-05)
(0 0 3.97319e-05)
(0 0 4.77719e-05)
(0 0 5.6542e-05)
(0 0 6.38443e-05)
(0 0 6.7333e-05)
(0 0 6.52313e-05)
(0 0 5.68528e-05)
(0 0 4.27613e-05)
(0 0 2.45654e-05)
(0 0 4.47336e-06)
(0 0 -1.52215e-05)
(0 0 -3.25736e-05)
(0 0 -4.62515e-05)
(0 0 -5.56204e-05)
(0 0 -6.06757e-05)
(0 0 -6.18862e-05)
(0 0 -6.00054e-05)
(0 0 -5.58967e-05)
(0 0 -5.03971e-05)
(0 0 -4.42303e-05)
(0 0 -3.79632e-05)
(0 0 -3.19982e-05)
(0 0 -2.65884e-05)
(0 0 -2.18638e-05)
(0 0 -1.7863e-05)
(0 0 -1.45617e-05)
(0 0 -1.18976e-05)
(0 0 -9.78907e-06)
(0 0 -8.14908e-06)
(0 0 -6.89339e-06)
(0 0 -5.94581e-06)
(0 0 -5.24051e-06)
(0 0 -4.72247e-06)
(0 0 -4.34697e-06)
(0 0 -4.07849e-06)
(0 0 -3.88926e-06)
(0 0 -3.75783e-06)
(0 0 -3.6676e-06)
(0 0 -3.60469e-06)
(0 0 -3.55365e-06)
(0 0 -3.48482e-06)
(0 0 -3.3135e-06)
(0 0 -2.7683e-06)
(0 0 -9.77483e-07)
(0 0 4.79114e-06)
(0 2.63807e-22 2.28224e-05)
(0 0 4.1415e-05)
(0 0 4.12484e-05)
(0 0 4.11025e-05)
(0 0 4.09367e-05)
(0 0 4.06848e-05)
(0 0 4.04411e-05)
(0 0 4.07344e-05)
(0 0 4.26106e-05)
(0 0 4.7295e-05)
(0 0 5.54968e-05)
(0 0 6.67201e-05)
(0 0 7.90065e-05)
(0 0 8.93099e-05)
(0 0 9.43668e-05)
(0 0 9.16919e-05)
(0 0 8.03055e-05)
(0 0 6.09614e-05)
(0 0 3.58686e-05)
(0 0 8.07629e-06)
(0 0 -1.92377e-05)
(0 0 -4.33691e-05)
(0 0 -6.24583e-05)
(0 0 -7.5609e-05)
(0 0 -8.27982e-05)
(0 0 -8.46613e-05)
(0 0 -8.22316e-05)
(0 0 -7.66983e-05)
(0 0 -6.92172e-05)
(0 0 -6.07897e-05)
(0 0 -5.2202e-05)
(0 0 -4.40137e-05)
(0 0 -3.65778e-05)
(0 0 -3.00774e-05)
(0 0 -2.45685e-05)
(0 0 -2.00199e-05)
(0 0 -1.63472e-05)
(0 0 -1.34394e-05)
(0 0 -1.11769e-05)
(0 0 -9.44413e-06)
(0 0 -8.1364e-06)
(0 0 -7.16302e-06)
(0 0 -6.44823e-06)
(0 0 -5.93042e-06)
(0 0 -5.56059e-06)
(0 0 -5.30044e-06)
(0 0 -5.12037e-06)
(0 0 -4.99751e-06)
(0 0 -4.91293e-06)
(0 0 -4.84614e-06)
(0 0 -4.75928e-06)
(0 0 -4.54621e-06)
(0 0 -3.86768e-06)
(0 0 -1.62933e-06)
(0 0 5.62236e-06)
(0 -1.73181e-22 2.84404e-05)
(0 0 5.32002e-05)
(0 0 5.29853e-05)
(0 0 5.27969e-05)
(0 0 5.2584e-05)
(0 0 5.22623e-05)
(0 0 5.19499e-05)
(0 0 5.23181e-05)
(0 0 5.47003e-05)
(0 0 6.06665e-05)
(0 0 7.11397e-05)
(0 0 8.55159e-05)
(0 0 0.000101327)
(0 0 0.000114707)
(0 0 0.000121495)
(0 0 0.000118498)
(0 0 0.000104427)
(0 0 8.01906e-05)
(0 0 4.85585e-05)
(0 0 1.33815e-05)
(0 0 -2.13092e-05)
(0 0 -5.2068e-05)
(0 0 -7.6512e-05)
(0 0 -9.34759e-05)
(0 0 -0.000102903)
(0 0 -0.000105575)
(0 0 -0.000102787)
(0 0 -9.60325e-05)
(0 0 -8.67734e-05)
(0 0 -7.62772e-05)
(0 0 -6.55426e-05)
(0 0 -5.52826e-05)
(0 0 -4.59491e-05)
(0 0 -3.77792e-05)
(0 0 -3.08481e-05)
(0 0 -2.51203e-05)
(0 0 -2.04924e-05)
(0 0 -1.6826e-05)
(0 0 -1.39719e-05)
(0 0 -1.17852e-05)
(0 0 -1.01345e-05)
(0 0 -8.90558e-06)
(0 0 -8.00322e-06)
(0 0 -7.34976e-06)
(0 0 -6.8834e-06)
(0 0 -6.55581e-06)
(0 0 -6.32969e-06)
(0 0 -6.17624e-06)
(0 0 -6.07189e-06)
(0 0 -5.99212e-06)
(0 0 -5.89409e-06)
(0 0 -5.66148e-06)
(0 0 -4.92537e-06)
(0 0 -2.4914e-06)
(0 0 5.45054e-06)
(0 8.54917e-23 3.07186e-05)
(0 0 6.49512e-05)
(0 0 6.46854e-05)
(0 0 6.4454e-05)
(0 0 6.41946e-05)
(0 0 6.38045e-05)
(0 0 6.3424e-05)
(0 0 6.38611e-05)
(0 0 6.67285e-05)
(0 0 7.39369e-05)
(0 0 8.66313e-05)
(0 0 0.000104122)
(0 0 0.000123466)
(0 0 0.000140013)
(0 0 0.000148727)
(0 0 0.000145712)
(0 0 0.000129344)
(0 0 0.000100653)
(0 0 6.29159e-05)
(0 0 2.07376e-05)
(0 0 -2.10341e-05)
(0 0 -5.82348e-05)
(0 0 -8.79635e-05)
(0 0 -0.000108777)
(0 0 -0.000120566)
(0 0 -0.000124237)
(0 0 -0.000121318)
(0 0 -0.00011359)
(0 0 -0.000102799)
(0 0 -9.04663e-05)
(0 0 -7.77948e-05)
(0 0 -6.56464e-05)
(0 0 -5.45707e-05)
(0 0 -4.48595e-05)
(0 0 -3.66099e-05)
(0 0 -2.97851e-05)
(0 0 -2.42656e-05)
(0 0 -1.98895e-05)
(0 0 -1.64805e-05)
(0 0 -1.38672e-05)
(0 0 -1.18932e-05)
(0 0 -1.04231e-05)
(0 0 -9.34328e-06)
(0 0 -8.5611e-06)
(0 0 -8.00284e-06)
(0 0 -7.6108e-06)
(0 0 -7.34046e-06)
(0 0 -7.1575e-06)
(0 0 -7.0342e-06)
(0 0 -6.94305e-06)
(0 0 -6.83968e-06)
(0 0 -6.61001e-06)
(0 0 -5.90002e-06)
(0 0 -3.56756e-06)
(0 0 4.07745e-06)
(0 4.21832e-22 2.88516e-05)
(0 0 7.66591e-05)
(0 0 7.63397e-05)
(0 0 7.60653e-05)
(0 0 7.57602e-05)
(0 0 7.53035e-05)
(0 0 7.48558e-05)
(0 0 7.53548e-05)
(0 0 7.86835e-05)
(0 0 8.70887e-05)
(0 0 0.000101946)
(0 0 0.000122505)
(0 0 0.000145388)
(0 0 0.0001652)
(0 0 0.000176057)
(0 0 0.000173364)
(0 0 0.000155141)
(0 0 0.00012249)
(0 0 7.91409e-05)
(0 0 3.03991e-05)
(0 0 -1.81149e-05)
(0 0 -6.1543e-05)
(0 0 -9.64728e-05)
(0 0 -0.000121174)
(0 0 -0.000135464)
(0 0 -0.000140345)
(0 0 -0.000137554)
(0 0 -0.00012913)
(0 0 -0.000117086)
(0 0 -0.00010318)
(0 0 -8.881e-05)
(0 0 -7.49814e-05)
(0 0 -6.234e-05)
(0 0 -5.12334e-05)
(0 0 -4.17831e-05)
(0 0 -3.39546e-05)
(0 0 -2.76161e-05)
(0 0 -2.25857e-05)
(0 0 -1.86636e-05)
(0 0 -1.56545e-05)
(0 0 -1.338e-05)
(0 0 -1.16849e-05)
(0 0 -1.04389e-05)
(0 0 -9.53583e-06)
(0 0 -8.89093e-06)
(0 0 -8.43787e-06)
(0 0 -8.12545e-06)
(0 0 -7.91427e-06)
(0 0 -7.77295e-06)
(0 0 -7.67192e-06)
(0 0 -7.56835e-06)
(0 0 -7.36169e-06)
(0 0 -6.75656e-06)
(0 0 -4.83434e-06)
(0 0 1.34284e-06)
(0 -8.25177e-23 2.1916e-05)
(-1.74607e-23 7.93133e-21 3.09957e-06)
(-1.4487e-22 7.7984e-21 2.46192e-06)
(3.19183e-23 -1.93811e-22 1.60647e-06)
(3.85731e-23 -2.3279e-20 4.90599e-07)
(-9.05828e-23 7.95143e-21 -9.21572e-07)
(3.5526e-22 7.80969e-21 -2.6589e-06)
(-7.7957e-22 2.27695e-20 -4.74508e-06)
(3.06264e-22 -2.3134e-20 -7.20104e-06)
(6.16249e-22 -7.44443e-21 -1.00472e-05)
(-8.7952e-22 -3.66627e-24 -1.33053e-05)
(-8.78471e-22 -7.4573e-21 -1.69995e-05)
(7.69337e-22 7.08571e-21 -2.11577e-05)
(5.59213e-22 -5.83518e-20 -2.58124e-05)
(-1.03397e-21 1.25254e-19 -3.10012e-05)
(3.57585e-22 -6.73705e-20 -3.67657e-05)
(-1.20397e-21 -5.07919e-20 -4.31655e-05)
(2.32129e-21 -6.46795e-20 -5.02478e-05)
(-1.81957e-21 7.61776e-21 -5.81117e-05)
(-1.84354e-22 -7.10942e-21 -6.68015e-05)
(7.00251e-23 7.11308e-21 -7.64298e-05)
(-3.08305e-24 -1.26101e-22 -8.70816e-05)
(-6.49788e-23 -6.86011e-21 -9.88751e-05)
(-1.97215e-21 6.91815e-21 -0.000111942)
(4.12259e-21 1.26734e-23 -0.000126432)
(1.20158e-21 6.71497e-21 -0.000142514)
(-3.21213e-21 -5.21279e-24 -0.000160384)
(4.62056e-21 7.79087e-21 -0.000180268)
(-5.43358e-21 1.01129e-19 -0.000202439)
(6.87759e-22 -1.08589e-19 -0.000227231)
(-2.10462e-21 9.91469e-20 -0.00025508)
(2.05054e-21 -1.00267e-19 -0.000286576)
(4.7548e-23 1.31481e-21 -0.000322574)
(-6.18439e-23 -1.613e-21 -0.000364385)
(2.7401e-21 -9.47839e-20 -0.00041411)
(-8.49309e-21 9.19784e-20 -0.000475245)
(-3.07241e-22 -1.51616e-21 -0.000553733)
(6.07294e-21 1.32821e-23 -0.000659752)
(6.59673e-21 1.44277e-23 -0.00081066)
(-6.57562e-21 -1.43815e-23 -0.00103564)
(-2.17834e-22 -4.76425e-25 -0.00138266)
(-2.27002e-22 -4.96476e-25 -0.00192823)
(-7.80585e-21 -1.70722e-23 -0.00279002)
(7.53476e-21 1.64793e-23 -0.00414109)
(-2.48568e-22 1.47798e-22 -0.00622296)
(-3.41541e-23 7.64569e-21 -0.00935209)
(-2.40887e-20 4.94459e-20 -0.0139114)
(2.32024e-20 -6.51648e-20 -0.0203149)
(-5.44036e-21 -9.22675e-21 -0.0289328)
(5.97937e-21 2.5279e-20 -0.0399713)
(-1.98596e-20 -5.54411e-21 -0.0532304)
(-2.54977e-22 7.94194e-21 9.14167e-06)
(-1.04875e-22 1.56227e-20 7.167e-06)
(2.94361e-22 7.59762e-21 4.48376e-06)
(-8.52902e-22 -7.81129e-21 9.65738e-07)
(1.58465e-21 7.45174e-21 -3.48824e-06)
(-4.81832e-22 -5.33458e-20 -8.95804e-06)
(-2.29087e-22 8.46983e-20 -1.55098e-05)
(-5.48383e-23 -8.80886e-21 -2.32043e-05)
(2.14856e-21 -9.75248e-20 -3.21031e-05)
(-2.24133e-21 1.3767e-19 -4.22733e-05)
(-8.36042e-22 1.258e-19 -5.37921e-05)
(6.1882e-22 -1.13156e-19 -6.67491e-05)
(-3.84824e-22 7.21239e-22 -8.12481e-05)
(2.74634e-21 -7.20678e-21 -9.74093e-05)
(-2.1436e-21 2.39417e-20 -0.000115376)
(-5.91142e-21 2.37943e-19 -0.000135313)
(1.65132e-21 -2.23723e-19 -0.000157455)
(-5.53774e-21 2.39743e-19 -0.000181962)
(-2.96536e-22 1.94163e-20 -0.000209124)
(-3.76138e-21 -7.26933e-21 -0.000239182)
(3.97741e-21 1.42293e-22 -0.000272475)
(-3.99163e-21 9.0157e-21 -0.00030938)
(9.30603e-22 2.08101e-19 -0.000350315)
(5.95151e-21 -4.40533e-19 -0.000395756)
(4.50999e-21 -2.10402e-19 -0.000446246)
(-7.03085e-21 4.25966e-19 -0.000502409)
(3.75582e-21 -4.24576e-19 -0.000564973)
(-2.12084e-21 4.35615e-19 -0.000634805)
(3.21988e-21 1.46321e-21 -0.000712974)
(-3.6487e-21 -9.56175e-23 -0.000800853)
(-1.22581e-21 -2.68097e-24 -0.000900301)
(0 0 -0.00101398)
(1.81107e-22 9.39737e-23 -0.00114594)
(1.08209e-20 1.21443e-20 -0.00130262)
(-1.57264e-20 3.54897e-19 -0.00149472)
(-1.5456e-20 -2.39502e-20 -0.00174034)
(1.85124e-20 -3.49897e-19 -0.00207047)
(2.63309e-20 -3.02086e-19 -0.00253783)
(-9.50887e-21 3.22679e-19 -0.00323105)
(-3.05108e-20 2.14514e-21 -0.00429566)
(2.9747e-20 1.69754e-20 -0.00596361)
(-4.15081e-20 2.29618e-19 -0.00859112)
(2.25717e-20 -2.38835e-19 -0.0127016)
(-1.75978e-20 1.43455e-20 -0.019025)
(1.94948e-20 7.53288e-21 -0.0285169)
(-5.85499e-20 1.10645e-19 -0.0423326)
(5.84706e-20 -1.08307e-19 -0.061718)
(-8.9612e-20 8.07436e-20 -0.0877665)
(8.64765e-20 -9.01778e-20 -0.121028)
(-1.8345e-20 -6.17467e-22 -0.159557)
(-5.36841e-23 4.7059e-20 1.46674e-05)
(-8.77607e-23 1.48811e-20 1.11188e-05)
(3.84329e-22 -6.16448e-20 6.20017e-06)
(-8.21446e-22 1.22614e-19 -2.83978e-07)
(1.80741e-21 -2.62451e-19 -8.47537e-06)
(3.46019e-22 1.24779e-19 -1.84833e-05)
(-2.40502e-21 -8.53438e-22 -3.04039e-05)
(1.54021e-21 -1.69405e-20 -4.43335e-05)
(1.52332e-21 -2.56033e-19 -6.03786e-05)
(6.6292e-22 2.43939e-19 -7.8662e-05)
(-8.42443e-22 -1.59855e-21 -9.93278e-05)
(-4.14408e-21 -1.54362e-23 -0.000122545)
(6.57112e-21 -1.82044e-21 -0.000148512)
(-3.81071e-21 -2.49631e-19 -0.000177456)
(5.0125e-21 2.26817e-19 -0.000209643)
(-1.14186e-20 4.5069e-19 -0.000245409)
(-4.75566e-21 -1.19585e-20 -0.000285123)
(-4.83469e-21 4.63661e-19 -0.000329202)
(4.08325e-22 -1.40725e-20 -0.000378058)
(-1.24208e-20 4.50139e-19 -0.000432234)
(1.23487e-20 -4.67475e-19 -0.000492344)
(-9.28489e-21 4.46316e-19 -0.000559097)
(2.59804e-21 -4.64205e-19 -0.00063328)
(5.16789e-21 -9.27995e-21 -0.000715793)
(-2.57137e-21 1.36e-20 -0.000807661)
(5.48285e-21 -8.78128e-21 -0.000910065)
(-1.89421e-20 4.18102e-19 -0.00102438)
(1.70689e-20 -4.45569e-19 -0.00115225)
(1.8595e-20 -4.13905e-19 -0.00129565)
(-1.53132e-20 4.15768e-19 -0.00145715)
(-1.06976e-21 -5.10771e-21 -0.00164011)
(1.1068e-20 -1.19765e-22 -0.00184932)
(-1.26481e-20 -2.44868e-20 -0.00209192)
(5.35124e-20 -7.54749e-19 -0.00237915)
(1.64008e-20 5.59153e-20 -0.00272946)
(-7.0215e-20 7.10497e-19 -0.00317394)
(3.90036e-21 -1.21784e-20 -0.00376553)
(-1.12964e-20 -4.76885e-21 -0.00459426)
(1.09627e-19 -5.9546e-19 -0.00581113)
(-2.03985e-19 1.16916e-18 -0.00766387)
(2.07963e-19 -1.16105e-18 -0.0105467)
(7.00271e-20 8.41075e-20 -0.0150643)
(-1.55622e-19 5.07918e-19 -0.0221039)
(-1.62954e-19 3.50005e-19 -0.0329022)
(1.54053e-19 -4.14942e-19 -0.0490788)
(-2.18116e-20 1.91249e-20 -0.0725949)
(5.38826e-20 -1.70083e-20 -0.105564)
(1.61494e-19 -1.00231e-19 -0.149799)
(-1.74853e-19 1.56591e-19 -0.206022)
(-2.4952e-20 -4.02034e-20 -0.266533)
(4.10229e-22 -3.10374e-20 1.92266e-05)
(-3.648e-22 1.56909e-20 1.35536e-05)
(6.76796e-22 -1.68562e-22 5.53669e-06)
(-6.01249e-22 -1.54372e-20 -5.01971e-06)
(-9.4663e-22 -1.42401e-21 -1.8239e-05)
(3.39041e-21 -2.42277e-19 -3.42256e-05)
(-4.8331e-21 4.58723e-19 -5.30926e-05)
(2.37247e-21 -2.46955e-19 -7.49759e-05)
(-1.8082e-21 1.48999e-20 -0.000100042)
(4.91577e-21 -2.70396e-19 -0.000128491)
(-5.88289e-21 2.46674e-19 -0.000160566)
(-4.31143e-21 4.70999e-19 -0.00019655)
(1.11507e-20 -9.52773e-19 -0.000236776)
(-1.33363e-20 9.5163e-19 -0.000281623)
(1.755e-20 -9.471e-19 -0.000331537)
(-1.17243e-20 9.3847e-19 -0.000387055)
(-1.00854e-20 4.77437e-19 -0.00044881)
(-7.02155e-22 -3.72768e-21 -0.000517449)
(4.46214e-21 3.8742e-21 -0.000593707)
(-7.86225e-21 4.40218e-19 -0.000678465)
(-1.61255e-21 -4.62281e-19 -0.000772738)
(1.46502e-20 1.26251e-20 -0.000877696)
(-3.40424e-20 8.87301e-19 -0.000994649)
(2.59613e-20 -8.90173e-19 -0.0011251)
(2.26025e-21 -5.34938e-21 -0.00127075)
(-9.6583e-21 -9.01957e-23 -0.00143359)
(1.47031e-20 -1.34483e-20 -0.00161591)
(-4.77413e-21 1.22425e-22 -0.00182044)
(-5.23906e-21 -6.46478e-23 -0.00205047)
(4.99213e-21 1.93988e-22 -0.00231014)
(-3.71022e-21 1.46009e-21 -0.00260483)
(6.3815e-20 -7.84956e-19 -0.00294201)
(-5.79521e-20 8.0724e-19 -0.00333254)
(-1.59393e-20 2.25241e-22 -0.00379319)
(1.8582e-20 -1.0263e-20 -0.0043511)
(-9.94092e-20 7.19594e-19 -0.00505147)
(1.15722e-19 -7.22741e-19 -0.00597091)
(-2.24467e-20 2.1732e-21 -0.00723921)
(1.58675e-20 -9.24612e-23 -0.00907384)
(3.77211e-20 6.32514e-21 -0.0118312)
(-2.46246e-19 5.38547e-19 -0.0160782)
(3.65778e-19 -1.09135e-18 -0.0226837)
(-1.78561e-19 5.52812e-19 -0.032923)
(2.58231e-19 -4.22487e-19 -0.0485774)
(-2.50051e-19 4.97654e-19 -0.0719928)
(-5.80652e-19 5.1273e-19 -0.106041)
(1.09562e-18 -1.08633e-18 -0.153865)
(-5.35987e-19 5.48421e-19 -0.218153)
(1.85095e-20 -2.10796e-21 -0.299613)
(4.45242e-21 -3.4486e-20 -0.377341)
(-7.31338e-22 1.57712e-20 2.22528e-05)
(-3.13233e-22 6.04174e-20 1.32689e-05)
(2.06718e-21 -1.83411e-19 5.22625e-07)
(-1.46606e-21 2.46091e-19 -1.59858e-05)
(-1.85543e-22 -1.08957e-19 -3.62719e-05)
(1.19978e-22 -1.45722e-20 -6.04111e-05)
(-4.75668e-22 1.53512e-20 -8.85446e-05)
(2.99184e-21 -1.84347e-22 -0.000120877)
(-2.83418e-21 -1.50056e-20 -0.000157672)
(-5.19981e-21 3.36166e-20 -0.000199257)
(-7.22753e-21 4.79055e-19 -0.000246021)
(1.8548e-20 -4.97875e-19 -0.00029842)
(-2.28186e-20 4.64366e-19 -0.000356983)
(1.90823e-20 -4.83023e-19 -0.000422318)
(-2.97229e-21 3.35777e-21 -0.000495121)
(1.08687e-20 4.70448e-23 -0.000576227)
(4.13121e-21 3.67523e-21 -0.000666614)
(-5.6e-21 4.51035e-19 -0.000767319)
(2.04241e-20 -4.88042e-19 -0.000879509)
(6.26189e-21 2.67268e-20 -0.00100457)
(-4.61768e-20 9.29619e-19 -0.0011441)
(2.96843e-20 -9.32181e-19 -0.00129993)
(1.00585e-20 2.24646e-20 -0.00147416)
(-1.78616e-20 -2.30859e-22 -0.00166916)
(1.16879e-20 9.53937e-21 -0.00188767)
(-3.96319e-20 8.92657e-19 -0.00213285)
(3.28801e-20 -8.842e-19 -0.00240838)
(2.80836e-21 9.52442e-21 -0.00271861)
(9.40192e-21 2.70772e-20 -0.00306875)
(-1.13896e-20 -5.44005e-22 -0.00346522)
(1.18858e-21 -1.29421e-20 -0.00391625)
(-3.69515e-20 1.31373e-20 -0.00443286)
(3.4713e-20 1.25111e-20 -0.00503066)
(-3.05195e-21 -2.50181e-20 -0.00573306)
(8.35865e-20 -7.33475e-19 -0.00657705)
(-7.47922e-20 7.56053e-19 -0.0076233)
(2.70891e-19 -1.45348e-18 -0.00897362)
(-2.48758e-19 1.46756e-18 -0.0107997)
(3.07215e-19 -1.37181e-18 -0.013389)
(7.048e-20 1.31208e-19 -0.0172124)
(-3.52583e-19 1.30624e-18 -0.02302)
(-1.19175e-19 -2.18878e-20 -0.0319637)
(1.62244e-20 3.82879e-22 -0.0457403)
(-1.8047e-20 5.54504e-22 -0.0667372)
(5.33283e-20 1.63849e-21 -0.0981495)
(2.56156e-20 1.33638e-20 -0.144014)
(-1.11303e-19 5.04524e-21 -0.209006)
(6.34165e-20 4.88798e-21 -0.297491)
(-1.6234e-22 -3.04785e-22 -0.410664)
(3.54797e-20 6.26135e-22 -0.502024)
(-7.54081e-22 7.60407e-20 2.29114e-05)
(1.6544e-21 -4.63595e-20 8.02365e-06)
(-1.6344e-21 -1.63335e-20 -1.23452e-05)
(4.78052e-21 -2.27122e-19 -3.76859e-05)
(-2.4324e-21 2.28978e-19 -6.79211e-05)
(2.19179e-21 -2.26537e-19 -0.000103162)
(-1.12419e-20 4.99521e-19 -0.000143651)
(1.20198e-20 -6.99431e-19 -0.000189735)
(-7.79612e-21 4.94509e-19 -0.000241848)
(-6.29328e-21 4.82046e-19 -0.000300514)
(-2.20063e-21 3.96008e-21 -0.000366346)
(2.50081e-20 -9.46767e-19 -0.000440055)
(-2.20261e-20 9.85083e-19 -0.000522459)
(5.4965e-21 -4.63361e-19 -0.000614494)
(1.24454e-20 -4.65573e-19 -0.000717222)
(2.26877e-20 -4.57996e-19 -0.000831891)
(-3.26138e-21 6.51188e-21 -0.000959967)
(3.89701e-20 -9.49687e-19 -0.00110309)
(3.04816e-20 -9.11589e-19 -0.00126304)
(6.56268e-21 2.11603e-20 -0.00144194)
(-2.76554e-20 9.46611e-19 -0.00164225)
(-1.99098e-20 -7.99161e-21 -0.00186679)
(1.21573e-20 8.85182e-21 -0.00211878)
(-5.18191e-20 9.15927e-19 -0.00240192)
(4.23721e-20 -9.30273e-19 -0.0027205)
(7.38583e-20 -8.93325e-19 -0.00307948)
(-7.50767e-20 9.22632e-19 -0.00348461)
(1.49089e-20 -1.98004e-20 -0.0039427)
(6.92196e-20 -8.89833e-19 -0.00446185)
(-9.66803e-20 9.12461e-19 -0.00505189)
(4.32704e-21 1.2206e-20 -0.00572514)
(-2.09918e-19 1.66963e-18 -0.00649761)
(1.90348e-19 -1.73208e-18 -0.00739119)
(4.79024e-20 6.13748e-20 -0.00843747)
(-2.69826e-19 1.57849e-18 -0.00968473)
(2.47853e-19 -1.64574e-18 -0.0112102)
(-3.11758e-20 -3.23118e-21 -0.0131416)
(4.71895e-19 -1.4819e-18 -0.0156923)
(-4.42026e-19 1.5303e-18 -0.0192192)
(-6.52741e-20 -7.15217e-20 -0.0243081)
(6.74744e-19 -1.29102e-18 -0.0318965)
(-1.18791e-18 2.66111e-18 -0.0434322)
(-6.40066e-20 -1.54238e-19 -0.0610648)
(-8.57247e-20 -1.2115e-19 -0.0878569)
(7.62558e-19 -1.15608e-18 -0.128006)
(3.89137e-20 6.20498e-20 -0.187102)
(-8.55325e-19 7.63746e-19 -0.272415)
(8.3854e-19 -8.4013e-19 -0.392693)
(8.82466e-21 2.85506e-20 -0.554216)
(9.12428e-21 -2.67191e-21 -0.664884)
(6.08425e-22 -1.58285e-20 2.01103e-05)
(1.76303e-21 -1.35079e-19 -6.84332e-06)
(-1.87333e-21 1.21806e-19 -3.90838e-05)
(-1.24336e-21 -1.7125e-20 -7.67027e-05)
(5.45564e-21 -2.25692e-19 -0.000119919)
(-5.05121e-21 2.32075e-19 -0.000169087)
(-6.16118e-21 4.68787e-19 -0.000224654)
(-5.03856e-21 -1.94004e-20 -0.000287166)
(2.17058e-21 -4.57811e-21 -0.000357261)
(1.47383e-20 -4.998e-19 -0.000435677)
(-1.21014e-20 4.67548e-19 -0.000523256)
(1.85037e-20 -9.89051e-19 -0.00062096)
(-4.51387e-21 4.94311e-19 -0.000729881)
(-3.59327e-21 -1.8571e-20 -0.000851259)
(-4.80134e-21 -2.21994e-20 -0.000986488)
(2.93621e-20 -9.69903e-19 -0.00113713)
(-1.6239e-21 -2.01997e-20 -0.00130503)
(2.83376e-20 -9.87791e-19 -0.0014923)
(-5.33272e-21 -7.71637e-21 -0.00170131)
(-1.68901e-22 1.18093e-22 -0.00193464)
(1.1334e-20 8.35366e-21 -0.00219534)
(-5.4068e-20 9.49683e-19 -0.00248683)
(4.83925e-20 -9.69981e-19 -0.002813)
(1.26531e-20 8.25918e-21 -0.00317824)
(-8.59875e-21 -1.48593e-20 -0.00358754)
(-6.11358e-21 9.81098e-21 -0.00404653)
(-7.57308e-20 9.15841e-19 -0.0045616)
(1.62583e-19 -1.86798e-18 -0.00514002)
(-7.72903e-20 9.73813e-19 -0.00579009)
(-1.95496e-19 1.80417e-18 -0.00652146)
(-3.03942e-20 -4.56589e-20 -0.00734564)
(2.34567e-21 -2.68639e-20 -0.00827688)
(-6.56402e-20 -5.39429e-20 -0.00933404)
(2.62735e-19 -1.80117e-18 -0.010544)
(4.01403e-19 -1.66645e-18 -0.0119484)
(-3.59138e-19 1.74877e-18 -0.0136159)
(-3.35615e-20 -5.42926e-20 -0.0156648)
(4.74457e-19 -1.5913e-18 -0.0183024)
(-4.19447e-19 1.68515e-18 -0.0218899)
(-6.66189e-19 1.49546e-18 -0.0270449)
(5.67459e-19 -1.57913e-18 -0.0347919)
(7.72314e-20 -1.10318e-20 -0.0467678)
(8.60973e-19 -1.39229e-18 -0.0654794)
(1.17709e-19 1.21723e-19 -0.0946069)
(-9.9252e-19 1.36244e-18 -0.139359)
(-1.59911e-20 -3.90066e-20 -0.206964)
(3.30852e-20 5.19602e-22 -0.307987)
(-3.32381e-20 1.56175e-20 -0.461145)
(-5.02556e-19 5.25544e-19 -0.702662)
(4.93802e-19 -5.34829e-19 -0.963725)
(-1.07024e-20 -3.15951e-21 0.00965054)
(-1.06706e-20 -3.43359e-22 0.00523486)
(1.0001e-20 9.90496e-21 0.0015004)
(-6.90927e-21 2.27713e-21 -0.00161987)
(7.43325e-21 -1.17548e-20 -0.00420043)
(6.44597e-23 3.53095e-21 -0.00631821)
(-1.73394e-22 -9.78389e-23 -0.00804508)
(-5.6478e-21 1.23523e-23 -0.00944208)
(5.49079e-21 -1.20089e-23 -0.0105586)
(-1.65136e-22 3.61169e-25 -0.0114373)
(-1.59575e-22 3.49007e-25 -0.0121121)
(4.77333e-21 -1.04397e-23 -0.0126116)
(-4.78867e-21 1.04733e-23 -0.0129585)
(-4.33761e-21 9.48679e-24 -0.0131716)
(2.87612e-22 -1.03008e-21 -0.0132679)
(6.27448e-21 4.65659e-21 -0.0132616)
(-2.1946e-21 -2.32832e-21 -0.0131655)
(-7.33678e-23 -9.69588e-22 -0.0129914)
(-2.75488e-23 7.61783e-22 -0.0127496)
(-2.2647e-21 -1.4973e-20 -0.0124497)
(2.30397e-21 1.40669e-20 -0.0120996)
(-1.58705e-21 -1.83853e-20 -0.0117063)
(1.6763e-21 8.12802e-22 -0.0112766)
(-2.25186e-21 1.24621e-23 -0.0108178)
(1.48057e-21 1.81428e-21 -0.0103374)
(-5.52427e-22 3.25195e-23 -0.00984201)
(-1.44382e-21 3.15777e-24 -0.00933601)
(6.74904e-22 -1.89363e-23 -0.00882399)
(1.9105e-22 2.67053e-21 -0.0083103)
(-2.97982e-23 2.97651e-23 -0.00779884)
(-1.96884e-22 -3.10972e-21 -0.00729304)
(1.78786e-22 3.30813e-21 -0.00679599)
(-1.23801e-25 -3.55859e-21 -0.00631038)
(6.93159e-22 3.42207e-20 -0.00583856)
(-9.17907e-22 -3.43958e-20 -0.00538253)
(-6.13016e-22 -2.96041e-20 -0.004944)
(1.38314e-21 6.46485e-20 -0.00452432)
(-7.71769e-22 -3.5296e-20 -0.00412458)
(-1.61392e-22 -4.71316e-21 -0.00374559)
(1.58021e-22 4.89285e-21 -0.00338791)
(-4.01399e-23 1.48956e-24 -0.00305185)
(2.19374e-22 5.21779e-21 -0.0027375)
(-4.50658e-22 -2.72408e-20 -0.00244476)
(4.18916e-22 2.74789e-20 -0.00217334)
(-1.07468e-22 -5.71956e-21 -0.0019228)
(2.75752e-22 1.769e-20 -0.00169251)
(3.56408e-23 -5.87944e-21 -0.00148171)
(-1.75404e-22 -1.23122e-20 -0.00128941)
(4.40795e-23 6.20466e-21 -0.00111435)
(-1.29638e-22 -6.39439e-21 -0.000954895)
(-1.53928e-20 2.5332e-20 0.0279649)
(3.08647e-20 -9.94009e-21 0.0148238)
(-2.49174e-20 -2.19097e-20 0.00362013)
(8.65346e-21 2.27275e-20 -0.00566413)
(-9.03431e-21 -2.22543e-20 -0.0132861)
(-1.27075e-20 6.15277e-21 -0.0195033)
(1.13207e-20 6.83911e-21 -0.0245495)
(1.17206e-20 1.68371e-20 -0.0286155)
(1.48262e-21 -2.85044e-20 -0.0318508)
(-2.27464e-20 6.74339e-21 -0.0343849)
(2.17606e-20 -5.07709e-21 -0.0363213)
(-2.04327e-21 -4.25842e-21 -0.0377435)
(-1.02953e-20 1.92034e-20 -0.0387188)
(-1.14365e-20 -9.16833e-21 -0.0393028)
(8.38614e-21 -1.70652e-20 -0.0395447)
(1.19778e-20 1.19712e-20 -0.0394869)
(-7.75625e-21 4.24222e-21 -0.0391672)
(-4.54236e-22 -1.32007e-21 -0.0386195)
(1.33252e-23 -1.18733e-22 -0.0378748)
(7.1022e-22 -1.55332e-24 -0.0369608)
(2.04444e-21 3.21477e-23 -0.0359015)
(-2.12296e-21 -3.40869e-21 -0.0347173)
(1.71951e-20 9.73059e-20 -0.0334274)
(-1.93185e-20 -1.02679e-19 -0.0320551)
(2.1284e-20 1.22558e-19 -0.0306185)
(-1.09778e-20 -5.30282e-20 -0.0291394)
(-2.13602e-20 -1.4786e-19 -0.0276312)
(9.74473e-21 7.50261e-20 -0.0261069)
(9.28025e-22 -1.94369e-21 -0.0245792)
(-1.70526e-21 -5.98457e-21 -0.0230593)
(1.11831e-21 3.10528e-21 -0.0215572)
(-1.05782e-21 -1.03175e-20 -0.020082)
(9.95838e-21 1.13654e-19 -0.0186416)
(-2.11488e-20 -2.44356e-19 -0.0172427)
(9.76007e-21 1.19263e-19 -0.0158913)
(-9.06735e-22 -1.23881e-20 -0.0145922)
(1.04369e-22 4.32954e-21 -0.0133495)
(5.28147e-24 -2.0549e-23 -0.0121663)
(-4.81507e-21 -8.18415e-20 -0.0110449)
(4.10499e-21 7.23598e-20 -0.00998693)
(3.20586e-21 7.22981e-20 -0.0089932)
(-4.68614e-21 -9.85771e-20 -0.00806397)
(1.26654e-22 5.47841e-21 -0.00719889)
(1.01641e-21 2.83264e-20 -0.00639707)
(-2.22956e-21 -5.09913e-20 -0.00565713)
(1.54885e-23 -5.84979e-21 -0.00497722)
(-1.46053e-21 -4.22776e-20 -0.00435502)
(-2.91785e-22 -6.60154e-21 -0.00378756)
(3.49313e-22 1.22025e-20 -0.00327099)
(4.28286e-22 1.90171e-20 -0.00280003)
(-1.38952e-20 -1.08673e-21 0.043295)
(-1.41155e-20 -1.55147e-20 0.0215945)
(3.6223e-20 2.95666e-20 0.00293835)
(-4.37903e-20 -1.25422e-20 -0.0122413)
(1.80399e-20 1.215e-20 -0.0245093)
(2.59971e-20 2.04678e-20 -0.0343927)
(-1.7213e-20 -5.95981e-20 -0.0423349)
(1.81054e-20 -1.80432e-20 -0.0486784)
(-3.12168e-20 4.04194e-20 -0.0536868)
(-1.02583e-20 2.08517e-20 -0.0575745)
(4.44762e-20 -4.08267e-20 -0.060508)
(-3.32387e-20 3.25732e-20 -0.0626254)
(6.82105e-21 -1.12501e-20 -0.0640366)
(-3.38657e-21 -9.32223e-21 -0.0648281)
(5.51023e-20 4.66188e-20 -0.0650786)
(-4.0471e-21 3.42229e-20 -0.0648566)
(-4.85784e-20 -6.25566e-20 -0.0642221)
(1.09574e-20 -5.48047e-21 -0.0632292)
(-7.54203e-21 2.81466e-22 -0.061927)
(4.07173e-22 -2.89468e-21 -0.0603598)
(3.21113e-20 8.79989e-20 -0.0585657)
(-3.2245e-20 -7.70207e-20 -0.0565781)
(-3.47153e-20 -1.12047e-19 -0.0544291)
(3.79846e-20 1.11129e-19 -0.0521496)
(-8.0678e-22 6.75753e-21 -0.0497758)
(-2.77972e-22 -4.63094e-21 -0.0473353)
(-4.67885e-22 6.22571e-21 -0.0448542)
(-3.18238e-20 -1.71155e-19 -0.0423524)
(3.57927e-20 1.7522e-19 -0.0398494)
(-3.39531e-20 -1.89297e-19 -0.0373631)
(3.63055e-20 2.01305e-19 -0.0349093)
(8.44795e-22 7.26839e-21 -0.0325022)
(3.28626e-20 2.41564e-19 -0.0301543)
(-6.52563e-20 -4.86874e-19 -0.0278763)
(3.43301e-20 2.61042e-19 -0.0256776)
(1.58579e-20 1.47933e-19 -0.0235658)
(-1.4163e-20 -1.30162e-19 -0.0215472)
(-1.33497e-22 -7.29705e-23 -0.0196266)
(-3.37443e-22 -1.5766e-22 -0.0178076)
(-3.14188e-23 8.28971e-23 -0.0160926)
(1.28146e-20 1.66771e-19 -0.0144828)
(-1.24739e-20 -1.56725e-19 -0.0129784)
(1.01874e-21 1.10611e-20 -0.0115787)
(-5.0566e-22 -4.33309e-23 -0.0102821)
(5.25638e-21 9.27978e-20 -0.00908636)
(-9.83412e-21 -1.7651e-19 -0.00798827)
(4.8889e-21 9.53217e-20 -0.00698395)
(-2.56309e-21 -4.97289e-20 -0.00606843)
(1.92228e-21 3.70198e-20 -0.00523499)
(4.61132e-22 1.24762e-20 -0.0044739)
(1.96799e-21 2.6593e-20 0.0528202)
(8.58675e-21 -5.42676e-20 0.0229049)
(-7.35555e-20 1.545e-20 -0.00298633)
(1.20427e-19 8.27599e-20 -0.0234331)
(-3.10295e-20 -1.11624e-19 -0.0395518)
(-1.47823e-20 2.36887e-20 -0.0522878)
(-3.64506e-22 1.85264e-20 -0.0623646)
(-9.28694e-21 3.51717e-21 -0.0703081)
(-2.32501e-20 9.3132e-21 -0.0764994)
(7.15635e-20 -2.60138e-20 -0.0812286)
(-2.66237e-20 1.28364e-20 -0.0847243)
(-1.34798e-20 6.36828e-22 -0.0871652)
(1.93917e-20 1.02534e-20 -0.0886938)
(-7.63903e-20 -7.17227e-20 -0.0894272)
(5.99032e-20 5.0039e-20 -0.0894671)
(-1.02884e-20 1.26806e-20 -0.0889017)
(9.30009e-21 -8.82541e-21 -0.0878088)
(7.7296e-20 1.43758e-19 -0.0862585)
(-8.16094e-20 -1.27961e-19 -0.0843142)
(5.94035e-22 -1.05902e-20 -0.0820334)
(-2.77845e-21 -9.634e-23 -0.0794675)
(2.90561e-21 4.93371e-22 -0.0766583)
(2.25246e-21 -8.39568e-23 -0.0736495)
(-5.5225e-21 4.41194e-21 -0.0704796)
(5.0147e-21 4.47239e-22 -0.0671936)
(7.59095e-22 7.83579e-21 -0.0638303)
(-9.9924e-20 -3.5952e-19 -0.0604241)
(1.01326e-19 3.48808e-19 -0.0569999)
(-4.48409e-21 4.07788e-21 -0.0535828)
(-4.4896e-20 -2.14583e-19 -0.0501957)
(4.97363e-20 2.20135e-19 -0.0468594)
(-8.92354e-22 1.00779e-21 -0.0435921)
(-1.56894e-22 1.06893e-22 -0.04041)
(-4.57969e-20 -2.71825e-19 -0.0373271)
(9.10247e-20 5.46932e-19 -0.0343552)
(-8.75808e-20 -5.6117e-19 -0.0315043)
(8.52254e-20 5.84173e-19 -0.0287822)
(-8.21e-20 -6.06099e-19 -0.026195)
(4.01124e-20 3.08397e-19 -0.0237472)
(1.87664e-20 1.64646e-19 -0.0214415)
(-1.63864e-20 -1.43859e-19 -0.0192794)
(-1.3229e-21 -1.09151e-20 -0.0172607)
(-1.62185e-20 -1.78458e-19 -0.0153843)
(3.42519e-20 3.84814e-19 -0.0136477)
(-1.59245e-20 -1.83687e-19 -0.0120475)
(1.78152e-22 2.53914e-22 -0.0105794)
(6.88137e-22 1.20372e-20 -0.00923787)
(-1.56645e-22 -1.25143e-22 -0.00801589)
(-6.76386e-22 -1.24776e-20 -0.00690365)
(1.47441e-21 2.55187e-20 -0.00588574)
(2.71062e-20 9.57517e-23 0.0527233)
(3.33583e-22 3.9972e-22 0.014979)
(-6.12288e-20 4.54486e-22 -0.0174012)
(9.06572e-20 -2.74082e-22 -0.0418179)
(-2.71276e-20 4.26769e-23 -0.0603804)
(-4.35061e-20 -8.28314e-22 -0.0746438)
(1.41213e-20 6.59516e-23 -0.0856927)
(-1.16006e-20 -1.18804e-22 -0.0942437)
(9.3758e-20 -2.56524e-20 -0.10077)
(2.60788e-20 9.23511e-20 -0.105627)
(-6.46247e-22 7.19525e-20 -0.10908)
(-5.45702e-20 -1.41149e-19 -0.111333)
(1.0267e-19 1.72172e-19 -0.112554)
(-1.21445e-19 -1.63118e-19 -0.112878)
(5.39993e-20 1.10332e-19 -0.112419)
(-6.55761e-20 -1.16167e-19 -0.111277)
(5.19704e-21 -7.11423e-21 -0.109542)
(-2.70155e-20 -1.92918e-21 -0.107292)
(2.39306e-20 -3.70181e-21 -0.104601)
(1.56273e-21 2.87493e-21 -0.101534)