/*--------------------------------*- C++ -*----------------------------------*\
| =========                 |                                                 |
| \\      /  F ield         | OpenFOAM: The Open Source CFD Toolbox           |
|  \\    /   O peration     | Version:  2412                                  |
|   \\  /    A nd           | Website:  www.openfoam.com                      |
|    \\/     M anipulation  |                                                 |
\*---------------------------------------------------------------------------*/
FoamFile
{
    version     2.0;
    format      ascii;
    arch        "LSB;label=32;scalar=64";
    class       volScalarField;
    location    "28";
    object      p;
}
// * * * * * * * * * * * * * * * * * * * * * * * * * * * * * * * * * * * * * //

dimensions      [0 2 -2 0 0 0 0];

internalField   nonuniform List<scalar> 
63420
(
0.000911337
0.0009116
0.000912435
0.000913724
0.00091545
0.000917601
0.000920159
0.000923111
0.000926444
0.000930148
0.000934216
0.00093864
0.000943414
0.000948532
0.00095399
0.000959785
0.000965913
0.00097237
0.000979156
0.000986267
0.000993703
0.00100146
0.00100954
0.00101795
0.00102668
0.00103573
0.00104511
0.00105483
0.00106487
0.00107526
0.00108598
0.00109704
0.00110846
0.00112022
0.00113234
0.00114482
0.00115766
0.00117087
0.00118444
0.00119839
0.00121272
0.00122743
0.00124253
0.00125801
0.00127389
0.00129017
0.00130685
0.00132394
0.00134143
0.00135935
0.00137768
0.00139643
0.00141561
0.00143523
0.00145528
0.000911276
0.000911539
0.000912373
0.000913662
0.000915387
0.000917537
0.000920093
0.000923042
0.000926372
0.000930074
0.000934139
0.00093856
0.00094333
0.000948444
0.000953898
0.000959687
0.00096581
0.000972262
0.000979042
0.000986147
0.000993576
0.00100133
0.0010094
0.0010178
0.00102652
0.00103556
0.00104493
0.00105464
0.00106467
0.00107504
0.00108575
0.00109681
0.0011082
0.00111995
0.00113206
0.00114452
0.00115734
0.00117053
0.00118408
0.00119801
0.00121232
0.001227
0.00124207
0.00125753
0.00127338
0.00128963
0.00130628
0.00132333
0.00134079
0.00135866
0.00137695
0.00139566
0.0014148
0.00143437
0.00145437
0.000911155
0.000911418
0.000912251
0.000913537
0.00091526
0.000917407
0.000919959
0.000922904
0.00092623
0.000929926
0.000933985
0.000938399
0.000943161
0.000948267
0.000953712
0.000959492
0.000965605
0.000972046
0.000978814
0.000985906
0.000993321
0.00100106
0.00100912
0.0010175
0.0010262
0.00103522
0.00104458
0.00105426
0.00106427
0.00107462
0.0010853
0.00109633
0.0011077
0.00111942
0.00113149
0.00114391
0.0011567
0.00116985
0.00118336
0.00119725
0.00121151
0.00122615
0.00124116
0.00125657
0.00127236
0.00128855
0.00130513
0.00132211
0.0013395
0.0013573
0.00137551
0.00139413
0.00141317
0.00143264
0.00145254
0.000910974
0.000911236
0.000912067
0.000913351
0.000915071
0.000917212
0.000919759
0.000922698
0.000926016
0.000929704
0.000933754
0.000938157
0.000942909
0.000948002
0.000953434
0.0009592
0.000965297
0.000971721
0.000978471
0.000985544
0.000992939
0.00100065
0.00100869
0.00101704
0.00102572
0.00103472
0.00104404
0.00105369
0.00106367
0.00107398
0.00108463
0.00109561
0.00110694
0.00111861
0.00113063
0.00114301
0.00115574
0.00116883
0.00118229
0.00119611
0.0012103
0.00122486
0.0012398
0.00125513
0.00127083
0.00128693
0.00130342
0.0013203
0.00133758
0.00135526
0.00137334
0.00139184
0.00141074
0.00143006
0.0014498
0.000910733
0.000910994
0.000911823
0.000913103
0.000914818
0.000916953
0.000919493
0.000922423
0.000925731
0.000929409
0.000933446
0.000937836
0.000942572
0.00094765
0.000953064
0.000958811
0.000964887
0.00097129
0.000978016
0.000985063
0.000992431
0.00100012
0.00100812
0.00101644
0.00102508
0.00103404
0.00104333
0.00105293
0.00106287
0.00107313
0.00108373
0.00109466
0.00110593
0.00111754
0.0011295
0.00114181
0.00115447
0.00116748
0.00118085
0.00119459
0.00120869
0.00122316
0.001238
0.00125321
0.00126881
0.00128478
0.00130114
0.00131788
0.00133502
0.00135255
0.00137047
0.00138879
0.00140752
0.00142665
0.00144618
0.000910431
0.000910692
0.000911518
0.000912793
0.000914502
0.00091663
0.00091916
0.000922079
0.000925376
0.000929039
0.000933061
0.000937435
0.000942153
0.00094721
0.000952602
0.000958325
0.000964376
0.000970751
0.000977447
0.000984463
0.000991797
0.000999447
0.00100741
0.00101569
0.00102429
0.0010332
0.00104244
0.00105199
0.00106187
0.00107207
0.00108261
0.00109347
0.00110467
0.00111621
0.00112809
0.00114031
0.00115288
0.0011658
0.00117907
0.0011927
0.00120669
0.00122104
0.00123575
0.00125083
0.00126628
0.00128211
0.00129831
0.00131488
0.00133184
0.00134918
0.0013669
0.00138502
0.00140352
0.0014224
0.00144168
0.00091007
0.00091033
0.000911152
0.000912422
0.000914123
0.000916242
0.000918762
0.000921668
0.00092495
0.000928597
0.000932601
0.000936954
0.00094165
0.000946683
0.000952049
0.000957744
0.000963764
0.000970106
0.000976767
0.000983745
0.000991038
0.000998644
0.00100656
0.0010148
0.00102334
0.0010322
0.00104137
0.00105086
0.00106068
0.00107081
0.00108127
0.00109205
0.00110317
0.00111461
0.0011264
0.00113852
0.00115098
0.00116379
0.00117694
0.00119044
0.0012043
0.0012185
0.00123307
0.00124799
0.00126327
0.00127892
0.00129493
0.0013113
0.00132805
0.00134517
0.00136266
0.00138052
0.00139875
0.00141736
0.00143633
0.00147583
0.0014971
0.00151927
0.00154239
0.00156653
0.00159173
0.00161808
0.00164562
0.00167445
0.00170463
0.00173627
0.00176945
0.00180427
0.00184085
0.0018793
0.00191976
0.00196238
0.00200731
0.00205472
0.0021048
0.00215775
0.00221379
0.00227318
0.00233619
0.00240311
0.00247428
0.00255005
0.00263082
0.00271704
0.00280918
0.00290778
0.00301343
0.00312675
0.00324843
0.00337921
0.00351986
0.00367116
0.00383384
0.00400854
0.00419564
0.00439509
0.00460614
0.00482705
0.00505493
0.005286
0.00551657
0.00574328
0.00597271
0.00626924
0.00672089
0.00147489
0.00149616
0.00151833
0.00154145
0.00156558
0.00159078
0.00161712
0.00164467
0.00167349
0.00170367
0.0017353
0.00176847
0.00180328
0.00183984
0.00187828
0.00191873
0.00196132
0.00200622
0.0020536
0.00210363
0.00215652
0.00221249
0.0022718
0.0023347
0.00240148
0.00247248
0.00254805
0.00262857
0.00271447
0.00280622
0.00290433
0.00300935
0.00312188
0.00324257
0.00337208
0.00351109
0.00366028
0.00382024
0.0039914
0.00417388
0.0043673
0.00457047
0.00478111
0.00499561
0.0052094
0.00541787
0.0056172
0.00581308
0.00606571
0.0064562
0.00147301
0.00149427
0.00151644
0.00153956
0.00156368
0.00158888
0.00161521
0.00164275
0.00167156
0.00170174
0.00173335
0.00176651
0.0018013
0.00183784
0.00187625
0.00191666
0.00195921
0.00200405
0.00205135
0.00210129
0.00215407
0.0022099
0.00226904
0.00233173
0.00239825
0.00246893
0.00254409
0.00262411
0.00270939
0.00280037
0.0028975
0.0030013
0.00311228
0.003231
0.003358
0.00349379
0.00363882
0.00379338
0.0039575
0.00413079
0.00431217
0.00449955
0.00468952
0.00487709
0.00505597
0.00521979
0.00536389
0.0054925
0.00565341
0.00593391
0.00147019
0.00149145
0.00151361
0.00153672
0.00156083
0.00158602
0.00161234
0.00163987
0.00166867
0.00169882
0.00173041
0.00176354
0.0017983
0.0018348
0.00187316
0.00191351
0.00195598
0.00200073
0.00204791
0.00209771
0.00215031
0.00220593
0.0022648
0.00232716
0.00239328
0.00246346
0.002538
0.00261726
0.00270158
0.00279137
0.00288702
0.00298895
0.00309759
0.00321333
0.00333654
0.00346747
0.00360625
0.00375274
0.00390636
0.00406594
0.00422937
0.00439323
0.0045524
0.00469981
0.00482666
0.00492378
0.00498522
0.00501633
0.00504966
0.00513653
0.00146646
0.00148771
0.00150986
0.00153296
0.00155707
0.00158225
0.00160856
0.00163607
0.00166486
0.001695
0.00172657
0.00175967
0.0017944
0.00183086
0.00186916
0.00190944
0.00195182
0.00199645
0.0020435
0.00209312
0.0021455
0.00220085
0.00225937
0.00232131
0.0023869
0.00245642
0.00253015
0.00260839
0.00269146
0.00277966
0.00287333
0.00297276
0.00307824
0.00318996
0.00330804
0.00343241
0.00356273
0.00369824
0.00383762
0.00397862
0.00411778
0.00424991
0.00436771
0.00446141
0.00451907
0.00452786
0.00447919
0.00438124
0.00425543
0.00404316
0.00146181
0.00148307
0.00150523
0.00152834
0.00155247
0.00157767
0.00160401
0.00163155
0.00166037
0.00169054
0.00172215
0.00175529
0.00179005
0.00182654
0.00186487
0.00190517
0.00194757
0.00199221
0.00203924
0.00208883
0.00214115
0.00219639
0.00225476
0.00231648
0.00238177
0.00245088
0.00252406
0.00260157
0.00268367
0.0027706
0.00286259
0.00295982
0.0030624
0.00317028
0.00328326
0.0034008
0.00352192
0.00364499
0.00376742
0.00388529
0.00399289
0.00408213
0.00414204
0.00415858
0.00411494
0.00399336
0.00378093
0.00348662
0.00312362
0.00250812
0.00145625
0.00147745
0.00149955
0.00152261
0.0015467
0.00157185
0.00159815
0.00162564
0.00165442
0.00168454
0.00171611
0.0017492
0.00178391
0.00182035
0.00185863
0.00189887
0.00194119
0.00198575
0.00203268
0.00208214
0.00213431
0.00218937
0.00224751
0.00230894
0.00237387
0.00244251
0.0025151
0.00259184
0.00267296
0.00275863
0.00284898
0.00294408
0.00304384
0.00314802
0.00325603
0.00336685
0.00347878
0.00358913
0.00369376
0.00378654
0.00385867
0.0038979
0.00388805
0.00380898
0.00363746
0.00334861
0.00292619
0.00238319
0.00168288
0.000540905
-0.00347283
-0.0035379
-0.0035604
-0.00355317
-0.00352729
-0.00348568
-0.00343012
-0.00336217
-0.00328334
-0.00319612
-0.00310025
-0.0029969
-0.00288718
-0.00277195
-0.00265209
-0.00252845
-0.00240185
-0.0022731
-0.00214299
-0.00201228
-0.00188172
-0.00175198
-0.00162376
-0.00149774
-0.00137452
-0.0012546
-0.00113846
-0.00102652
-0.000919161
-0.000816698
-0.000719382
-0.00062741
-0.000540921
-0.000459996
-0.000384668
-0.000314918
-0.000250683
-0.000191858
-0.000138302
-8.98406e-05
-4.62727e-05
-7.37441e-06
2.70967e-05
5.73964e-05
8.37901e-05
0.000106548
0.000125942
0.00014224
0.000155704
0.000166592
-0.00353931
-0.00358482
-0.00359548
-0.00358106
-0.00355029
-0.00350537
-0.00344764
-0.00337835
-0.00329906
-0.00321111
-0.00311493
-0.00301153
-0.00290184
-0.00278669
-0.00266687
-0.00254328
-0.00241672
-0.00228796
-0.00215779
-0.00202697
-0.00189624
-0.00176628
-0.00163778
-0.00151142
-0.00138784
-0.00126752
-0.00115093
-0.00103852
-0.000930673
-0.000827701
-0.000729865
-0.000637367
-0.00055035
-0.0004689
-0.000393053
-0.000322795
-0.000258064
-0.000198758
-0.000144737
-9.58306e-05
-5.18373e-05
-1.2534e-05
2.23212e-05
5.29843e-05
7.97206e-05
0.000102801
0.000122499
0.000139083
0.000152815
0.00016396
-0.00367165
-0.00367755
-0.0036646
-0.00363594
-0.00359525
-0.00354361
-0.00348149
-0.00340931
-0.00332888
-0.00323973
-0.00314306
-0.00303948
-0.00292993
-0.00281504
-0.0026951
-0.0025718
-0.00244537
-0.00231663
-0.00218638
-0.00205539
-0.00192437
-0.00179401
-0.001665
-0.00153802
-0.00141373
-0.00129265
-0.00117523
-0.00106192
-0.000953131
-0.00084918
-0.000750343
-0.000656829
-0.000568791
-0.000486324
-0.000409472
-0.000338225
-0.00027253
-0.000212288
-0.000157365
-0.000107591
-6.27676e-05
-2.26742e-05
1.29308e-05
4.43031e-05
7.17088e-05
9.54201e-05
0.000115711
0.000132854
0.000147111
0.000158763
-0.00387578
-0.00380984
-0.00376563
-0.00371549
-0.00365977
-0.00359818
-0.00352942
-0.00345241
-0.00337036
-0.00327989
-0.00318282
-0.0030784
-0.00296918
-0.00285458
-0.00273525
-0.00261215
-0.00248589
-0.00235724
-0.00222695
-0.00209575
-0.00196438
-0.00183352
-0.00170383
-0.00157602
-0.00145077
-0.00132862
-0.00121005
-0.0010955
-0.000985383
-0.00088006
-0.000779812
-0.000684864
-0.000595381
-0.000511472
-0.00043319
-0.000360538
-0.000293468
-0.00023189
-0.000175676
-0.00012466
-7.86482e-05
-3.74217e-05
-7.40542e-07
3.16506e-05
6.00182e-05
8.46358e-05
0.000105781
0.000123727
0.000138741
0.000151127
-0.00413506
-0.00398286
-0.00389659
-0.00381538
-0.00373947
-0.00366496
-0.00358751
-0.00350476
-0.00342014
-0.00332783
-0.00322976
-0.00312586
-0.00301662
-0.00290231
-0.00278352
-0.00266086
-0.002535
-0.00240661
-0.00227641
-0.00214512
-0.00201347
-0.00188213
-0.00175178
-0.00162309
-0.00149677
-0.00137342
-0.00125352
-0.00113752
-0.00102586
-0.000918913
-0.00081698
-0.000720306
-0.000629074
-0.000543406
-0.000463373
-0.000388987
-0.000320215
-0.000256976
-0.000199148
-0.000146575
-9.90673e-05
-5.64094e-05
-1.83645e-05
1.53212e-05
4.49141e-05
7.06888e-05
9.29244e-05
0.000111899
0.000127889
0.00014122
-0.00440875
-0.00419786
-0.00405991
-0.00394078
-0.00383734
-0.0037431
-0.00365284
-0.00356737
-0.00347354
-0.0033777
-0.00327829
-0.00317418
-0.00306528
-0.0029518
-0.00283404
-0.00271246
-0.00258761
-0.00246009
-0.00233057
-0.00219973
-0.00206828
-0.0019369
-0.00180625
-0.001677
-0.00154985
-0.00142545
-0.00130431
-0.0011869
-0.00107367
-0.000965027
-0.000861293
-0.000762736
-0.00066956
-0.000581912
-0.000499878
-0.000423492
-0.000352734
-0.000287538
-0.000227795
-0.000173358
-0.000124047
-7.96524e-05
-3.99428e-05
-4.66798e-06
2.6436e-05
5.36428e-05
7.72323e-05
9.74851e-05
0.000114694
0.000129201
-0.00467214
-0.00446901
-0.00428159
-0.00411484
-0.00397343
-0.0038489
-0.00373933
-0.00363957
-0.00353936
-0.00343927
-0.00333719
-0.00323189
-0.00312287
-0.00300991
-0.00289301
-0.00277244
-0.00264856
-0.0025219
-0.00239302
-0.00226257
-0.00213123
-0.00199967
-0.00186856
-0.00173853
-0.00161031
-0.00148458
-0.00136189
-0.00124274
-0.00112761
-0.00101692
-0.000911044
-0.000810263
-0.000714812
-0.00062486
-0.000540518
-0.00046184
-0.000388823
-0.000321417
-0.000259527
-0.000203016
-0.000151711
-0.000105412
-6.38904e-05
-2.68998e-05
5.8225e-06
3.45499e-05
5.95627e-05
8.11445e-05
9.9599e-05
0.000115268
0.000175167
0.000181613
0.00018623
0.000189211
0.000190699
0.000190833
0.000189758
0.000187613
0.000184532
0.000180646
0.000176079
0.000170948
0.000165366
0.000159434
0.000153247
0.000146889
0.000140436
0.000133953
0.000127497
0.000121118
0.000114854
0.000108739
0.000102797
9.70504e-05
9.15117e-05
8.61913e-05
8.10951e-05
7.62258e-05
7.15836e-05
6.71663e-05
6.29704e-05
5.89907e-05
5.52217e-05
5.16567e-05
4.82889e-05
4.51111e-05
4.21161e-05
3.92965e-05
3.66449e-05
3.41538e-05
3.1816e-05
2.96235e-05
2.75705e-05
2.56451e-05
2.38456e-05
2.21672e-05
2.05927e-05
1.91224e-05
1.77501e-05
1.64688e-05
1.52729e-05
1.41572e-05
1.31167e-05
1.21466e-05
1.12425e-05
1.04003e-05
9.61613e-06
8.88613e-06
8.20691e-06
7.57523e-06
6.98791e-06
6.44215e-06
5.9352e-06
5.46447e-06
5.02764e-06
4.6224e-06
4.24668e-06
3.89856e-06
3.57609e-06
3.2776e-06
3.00151e-06
2.74628e-06
2.51045e-06
2.29278e-06
2.09196e-06
1.90679e-06
1.73635e-06
1.57937e-06
1.43526e-06
1.30266e-06
1.18136e-06
1.0697e-06
9.68502e-07
8.74367e-07
7.91279e-07
7.11115e-07
6.45083e-07
5.74607e-07
5.26445e-07
4.5968e-07
4.32803e-07
3.61551e-07
3.62262e-07
2.75586e-07
3.13151e-07
1.9819e-07
2.83045e-07
1.28228e-07
2.67699e-07
6.70226e-08
2.60767e-07
1.80082e-08
2.55772e-07
-1.62326e-08
2.50635e-07
-3.96695e-08
2.52561e-07
-6.74238e-08
2.82544e-07
-1.27946e-07
3.73841e-07
-2.59524e-07
5.66499e-07
-5.04038e-07
8.94066e-07
0.000172812
0.000179369
0.000184103
0.000187224
0.000188852
0.000189123
0.00018818
0.000186161
0.000183199
0.000179424
0.000174961
0.000169928
0.000164436
0.000158588
0.000152477
0.00014619
0.000139802
0.000133379
0.000126978
0.000120648
0.00011443
0.000108355
0.000102452
9.67386e-05
9.12307e-05
8.5938e-05
8.08669e-05
7.60203e-05
7.13986e-05
6.69998e-05
6.28206e-05
5.8856e-05
5.51006e-05
5.15479e-05
4.81912e-05
4.50234e-05
4.20374e-05
3.9226e-05
3.65817e-05
3.40972e-05
3.17653e-05
2.9578e-05
2.75297e-05
2.56085e-05
2.38129e-05
2.21378e-05
2.05664e-05
1.90988e-05
1.7729e-05
1.64499e-05
1.5256e-05
1.4142e-05
1.31031e-05
1.21344e-05
1.12316e-05
1.03906e-05
9.60742e-06
8.87834e-06
8.19995e-06
7.56901e-06
6.98236e-06
6.4372e-06
5.93078e-06
5.46052e-06
5.02413e-06
4.61926e-06
4.24389e-06
3.89607e-06
3.57387e-06
3.27562e-06
2.99975e-06
2.74471e-06
2.50905e-06
2.29154e-06
2.09086e-06
1.9058e-06
1.73548e-06
1.57859e-06
1.43457e-06
1.30204e-06
1.18082e-06
1.06922e-06
9.68073e-07
8.73989e-07
7.90946e-07
7.10821e-07
6.44819e-07
5.7438e-07
5.26238e-07
4.59503e-07
4.32643e-07
3.61416e-07
3.62131e-07
2.75484e-07
3.13045e-07
1.98113e-07
2.82963e-07
1.28177e-07
2.67631e-07
6.69821e-08
2.60718e-07
1.79762e-08
2.55732e-07
-1.62577e-08
2.50596e-07
-3.96778e-08
2.52513e-07
-6.74157e-08
2.82487e-07
-1.27922e-07
3.73767e-07
-2.5949e-07
5.66446e-07
-5.03998e-07
8.94074e-07
0.000168128
0.000174914
0.000179887
0.000183284
0.000185193
0.000185735
0.000185053
0.000183281
0.000180554
0.000176999
0.000172742
0.000167901
0.000162587
0.000156904
0.000150946
0.0001448
0.000138541
0.000132236
0.000125943
0.000119713
0.000113584
0.000107592
0.000101763
9.61172e-05
9.06703e-05
8.5433e-05
8.04119e-05
7.56105e-05
7.10295e-05
6.66676e-05
6.25217e-05
5.85872e-05
5.4859e-05
5.13308e-05
4.79962e-05
4.48484e-05
4.18804e-05
3.90851e-05
3.64554e-05
3.3984e-05
3.16639e-05
2.94871e-05
2.74483e-05
2.55356e-05
2.37475e-05
2.20792e-05
2.05138e-05
1.90517e-05
1.76868e-05
1.6412e-05
1.52221e-05
1.41117e-05
1.30759e-05
1.21101e-05
1.12099e-05
1.03711e-05
9.59e-06
8.86277e-06
8.18605e-06
7.55658e-06
6.97127e-06
6.4273e-06
5.92194e-06
5.45265e-06
5.01709e-06
4.61299e-06
4.23831e-06
3.89108e-06
3.56943e-06
3.27168e-06
2.99624e-06
2.74157e-06
2.50627e-06
2.28905e-06
2.08863e-06
1.90384e-06
1.73371e-06
1.57704e-06
1.43318e-06
1.30081e-06
1.17974e-06
1.06825e-06
9.67226e-07
8.73234e-07
7.90274e-07
7.10226e-07
6.44301e-07
5.73911e-07
5.25831e-07
4.59154e-07
4.32311e-07
3.61146e-07
3.61865e-07
2.75275e-07
3.12828e-07
1.97975e-07
2.82785e-07
1.28075e-07
2.67484e-07
6.69092e-08
2.60601e-07
1.79255e-08
2.55652e-07
-1.63039e-08
2.50521e-07
-3.97028e-08
2.52437e-07
-6.74057e-08
2.82369e-07
-1.27852e-07
3.73606e-07
-2.59386e-07
5.66301e-07
-5.03892e-07
8.94071e-07
0.000161175
0.000168313
0.000173658
0.000177468
0.000179788
0.00018073
0.000180429
0.000179022
0.000176638
0.000173407
0.000169453
0.000164894
0.000159843
0.000154404
0.000148671
0.000142733
0.000136665
0.000130536
0.000124404
0.00011832
0.000112325
0.000106455
0.000100736
9.51905e-05
8.98345e-05
8.46795e-05
7.97328e-05
7.49987e-05
7.04785e-05
6.61716e-05
6.20752e-05
5.81857e-05
5.44979e-05
5.10063e-05
4.77047e-05
4.45868e-05
4.16456e-05
3.88746e-05
3.62666e-05
3.38148e-05
3.15122e-05
2.93512e-05
2.73265e-05
2.54264e-05
2.36496e-05
2.19914e-05
2.04352e-05
1.89812e-05
1.76236e-05
1.63554e-05
1.51713e-05
1.40662e-05
1.30351e-05
1.20736e-05
1.11773e-05
1.0342e-05
9.56391e-06
8.83945e-06
8.16521e-06
7.53796e-06
6.95465e-06
6.41247e-06
5.9087e-06
5.44084e-06
5.00655e-06
4.6036e-06
4.22993e-06
3.88362e-06
3.56279e-06
3.26576e-06
2.99096e-06
2.73687e-06
2.50209e-06
2.28532e-06
2.08531e-06
1.90089e-06
1.73107e-06
1.5747e-06
1.4311e-06
1.29897e-06
1.17811e-06
1.06679e-06
9.65946e-07
8.72097e-07
7.89263e-07
7.09334e-07
6.43515e-07
5.73212e-07
5.25214e-07
4.58624e-07
4.31816e-07
3.60739e-07
3.6147e-07
2.74963e-07
3.1251e-07
1.97756e-07
2.82528e-07
1.27914e-07
2.67276e-07
6.67925e-08
2.60436e-07
1.78413e-08
2.5553e-07
-1.63732e-08
2.5041e-07
-3.97399e-08
2.52318e-07
-6.73887e-08
2.82192e-07
-1.27749e-07
3.73368e-07
-2.59235e-07
5.66093e-07
-5.03744e-07
8.94077e-07
0.000152047
0.00015967
0.000165527
0.000169882
0.000172739
0.000174196
0.00017439
0.000173453
0.000171514
0.000168701
0.000165139
0.000160947
0.000156238
0.000151116
0.000145678
0.000140011
0.000134193
0.000128294
0.000122372
0.000116481
0.000110662
0.000104952
9.93784e-05
9.3965e-05
8.87288e-05
8.36822e-05
7.88337e-05
7.41884e-05
6.97486e-05
6.55142e-05
6.14835e-05
5.76533e-05
5.40191e-05
5.05759e-05
4.73181e-05
4.42395e-05
4.1334e-05
3.8595e-05
3.60159e-05
3.359e-05
3.13107e-05
2.91705e-05
2.71645e-05
2.52812e-05
2.35195e-05
2.18747e-05
2.03306e-05
1.88874e-05
1.75395e-05
1.628e-05
1.51037e-05
1.40057e-05
1.2981e-05
1.20251e-05
1.11338e-05
1.03031e-05
9.52918e-06
8.80842e-06
8.13747e-06
7.51318e-06
6.93253e-06
6.39272e-06
5.89108e-06
5.42512e-06
4.99252e-06
4.59109e-06
4.21878e-06
3.87367e-06
3.55393e-06
3.25788e-06
2.98393e-06
2.73061e-06
2.49651e-06
2.28035e-06
2.08088e-06
1.89695e-06
1.72757e-06
1.5716e-06
1.42833e-06
1.29651e-06
1.17594e-06
1.06485e-06
9.64235e-07
8.70581e-07
7.87914e-07
7.08146e-07
6.42462e-07
5.72282e-07
5.24387e-07
4.57912e-07
4.31158e-07
3.60193e-07
3.60947e-07
2.74547e-07
3.12093e-07
1.97455e-07
2.82194e-07
1.2769e-07
2.67012e-07
6.66245e-08
2.60229e-07
1.77151e-08
2.55376e-07
-1.64743e-08
2.50272e-07
-3.9798e-08
2.52168e-07
-6.73747e-08
2.81967e-07
-1.27626e-07
3.73066e-07
-2.59053e-07
5.65842e-07
-5.03578e-07
8.94109e-07
0.000140862
0.000149125
0.000155646
0.000160667
0.000164169
0.000166248
0.000167035
0.000166663
0.000165258
0.000162949
0.00015986
0.000156112
0.000151816
0.00014708
0.000141999
0.000136663
0.00013115
0.000125531
0.000119868
0.000114212
0.000108608
0.000103094
9.77001e-05
9.24493e-05
8.73605e-05
8.24476e-05
7.77202e-05
7.31845e-05
6.88438e-05
6.46991e-05
6.07495e-05
5.69926e-05
5.34247e-05
5.00415e-05
4.68378e-05
4.38081e-05
4.09467e-05
3.82474e-05
3.57041e-05
3.33103e-05
3.10599e-05
2.89457e-05
2.6963e-05
2.51005e-05
2.33575e-05
2.17294e-05
2.02003e-05
1.87706e-05
1.74347e-05
1.61861e-05
1.50196e-05
1.39303e-05
1.29134e-05
1.19647e-05
1.10797e-05
1.02547e-05
9.48589e-06
8.76972e-06
8.10289e-06
7.48228e-06
6.90494e-06
6.36808e-06
5.86908e-06
5.4055e-06
4.97502e-06
4.57548e-06
4.20487e-06
3.86127e-06
3.54287e-06
3.24803e-06
2.97516e-06
2.72279e-06
2.48955e-06
2.27414e-06
2.07536e-06
1.89204e-06
1.72319e-06
1.56771e-06
1.42487e-06
1.29344e-06
1.17322e-06
1.06244e-06
9.62094e-07
8.68686e-07
7.86229e-07
7.06661e-07
6.41142e-07
5.71123e-07
5.2335e-07
4.57021e-07
4.30337e-07
3.59511e-07
3.60296e-07
2.74029e-07
3.11575e-07
1.97076e-07
2.8178e-07
1.27408e-07
2.66685e-07
6.64144e-08
2.59973e-07
1.75571e-08
2.5518e-07
-1.65971e-08
2.50097e-07
-3.98672e-08
2.51975e-07
-6.73536e-08
2.81684e-07
-1.2747e-07
3.72687e-07
-2.58821e-07
5.65525e-07
-5.03362e-07
8.94116e-07
0.000127734
0.000136838
0.000144187
0.000149984
0.000154227
0.000157015
0.000158479
0.000158751
0.000157957
0.000156225
0.000153681
0.000150444
0.000146627
0.000142337
0.000137671
0.00013272
0.000127563
0.000122272
0.00011691
0.00011153
0.00010618
0.000100896
9.57122e-05
9.06526e-05
8.57377e-05
8.09825e-05
7.6398e-05
7.19919e-05
6.77685e-05
6.373e-05
5.98765e-05
5.62065e-05
5.27172e-05
4.94051e-05
4.62656e-05
4.3294e-05
4.04849e-05
3.78329e-05
3.53321e-05
3.29766e-05
3.07606e-05
2.86773e-05
2.67222e-05
2.48847e-05
2.31639e-05
2.15557e-05
2.00445e-05
1.86309e-05
1.73094e-05
1.60738e-05
1.49189e-05
1.38401e-05
1.28326e-05
1.18923e-05
1.1015e-05
1.01968e-05
9.43408e-06
8.7234e-06
8.06149e-06
7.4453e-06
6.87191e-06
6.33858e-06
5.84275e-06
5.382e-06
4.95406e-06
4.55679e-06
4.1882e-06
3.8464e-06
3.52963e-06
3.23623e-06
2.96464e-06
2.71342e-06
2.48121e-06
2.26671e-06
2.06875e-06
1.88615e-06
1.71796e-06
1.56305e-06
1.42073e-06
1.28976e-06
1.16995e-06
1.05954e-06
9.59524e-07
8.66413e-07
7.84205e-07
7.04882e-07
6.39551e-07
5.69738e-07
5.22095e-07
4.55962e-07
4.29336e-07
3.58713e-07
3.59488e-07
2.73444e-07
3.10911e-07
1.96674e-07
2.81222e-07
1.27143e-07
2.6621e-07
6.62533e-08
2.59569e-07
1.74704e-08
2.54836e-07
-1.6635e-08
2.49779e-07
-3.9842e-08
2.51634e-07
-6.72164e-08
2.81225e-07
-1.27146e-07
3.72066e-07
-2.58335e-07
5.64878e-07
-5.02771e-07
8.9371e-07
0.000112382
0.000122653
0.000131041
0.000137725
0.000142801
0.000146385
0.000148611
0.000149608
0.000149504
0.000148428
0.000146503
0.000143849
0.00014058
0.000136803
0.000132615
0.000128107
0.000123362
0.00011845
0.000113438
0.00010838
0.000103324
9.83095e-05
9.3371e-05
8.85352e-05
8.38238e-05
7.92535e-05
7.48369e-05
7.05829e-05
6.64974e-05
6.25839e-05
5.88435e-05
5.52759e-05
5.18793e-05
4.8651e-05
4.55874e-05
4.26843e-05
3.99372e-05
3.7341e-05
3.48905e-05
3.25803e-05
3.0405e-05
2.83583e-05
2.6436e-05
2.4628e-05
2.29337e-05
2.1349e-05
1.98592e-05
1.84646e-05
1.71603e-05
1.59401e-05
1.47991e-05
1.37327e-05
1.27364e-05
1.18062e-05
1.09379e-05
1.01278e-05
9.37236e-06
8.66821e-06
8.01216e-06
7.40121e-06
6.83252e-06
6.30341e-06
5.81135e-06
5.35398e-06
4.92906e-06
4.53449e-06
4.16832e-06
3.82868e-06
3.51383e-06
3.22214e-06
2.95209e-06
2.70224e-06
2.47125e-06
2.25784e-06
2.06085e-06
1.87913e-06
1.7117e-06
1.5575e-06
1.41579e-06
1.28537e-06
1.16606e-06
1.05608e-06
9.56452e-07
8.63699e-07
7.81784e-07
7.0276e-07
6.37641e-07
5.68093e-07
5.20578e-07
4.54715e-07
4.28114e-07
3.57796e-07
3.58476e-07
2.72808e-07
3.10041e-07
1.96285e-07
2.80446e-07
1.26956e-07
2.65498e-07
6.6223e-08
2.58911e-07
1.75497e-08
2.54235e-07
-1.64894e-08
2.4921e-07
-3.96249e-08
2.51039e-07
-6.68598e-08
2.80467e-07
-1.26522e-07
3.71035e-07
-2.5739e-07
5.6364e-07
-5.01483e-07
8.92543e-07
9.57684e-05
0.000107057
0.000116432
0.000124043
0.000130008
0.000134452
0.000137505
0.000139296
0.000139951
0.000139597
0.000138358
0.000136353
0.000133695
0.000130491
0.000126839
0.000122831
0.000118549
0.000114067
0.000109451
0.000104757
0.000100036
9.53288e-05
9.06707e-05
8.60907e-05
8.16124e-05
7.72541e-05
7.30301e-05
6.89511e-05
6.50244e-05
6.12547e-05
5.76448e-05
5.41955e-05
5.0906e-05
4.77746e-05
4.47987e-05
4.1975e-05
3.92995e-05
3.6768e-05
3.43759e-05
3.21182e-05
2.99902e-05
2.7986e-05
2.61018e-05
2.43282e-05
2.26646e-05
2.11074e-05
1.96425e-05
1.82703e-05
1.6986e-05
1.57837e-05
1.46589e-05
1.3607e-05
1.26238e-05
1.17053e-05
1.08476e-05
1.0047e-05
9.30009e-06
8.60359e-06
7.95439e-06
7.34958e-06
6.78639e-06
6.26221e-06
5.77456e-06
5.32114e-06
4.89976e-06
4.50836e-06
4.14501e-06
3.80789e-06
3.4953e-06
3.20563e-06
2.93737e-06
2.68913e-06
2.45957e-06
2.24744e-06
2.05158e-06
1.87088e-06
1.70437e-06
1.55097e-06
1.40999e-06
1.28022e-06
1.16148e-06
1.05202e-06
9.52847e-07
8.60508e-07
7.78946e-07
7.0026e-07
6.35407e-07
5.66146e-07
5.18817e-07
4.5322e-07
4.26718e-07
3.56666e-07
3.57357e-07
2.71974e-07
3.09131e-07
1.95695e-07
2.79691e-07
1.26554e-07
2.64868e-07
6.59607e-08
2.58384e-07
1.73853e-08
2.53794e-07
-1.65869e-08
2.48812e-07
-3.96424e-08
2.50618e-07
-6.67358e-08
2.79901e-07
-1.26163e-07
3.70268e-07
-2.5682e-07
5.62851e-07
-5.00788e-07
8.92165e-07
7.834e-05
9.05687e-05
0.000100892
0.00010943
0.000116301
0.000121629
0.00012554
0.000128158
0.000129609
0.000130017
0.000129504
0.000128188
0.000126181
0.00012359
0.000120514
0.000117044
0.000113263
0.000109246
0.000105059
0.000100763
9.64063e-05
9.2034e-05
8.76826e-05
8.33831e-05
7.91605e-05
7.50354e-05
7.10236e-05
6.71374e-05
6.33859e-05
5.97754e-05
5.63098e-05
5.29913e-05
4.98205e-05
4.67966e-05
4.39181e-05
4.11825e-05
3.85867e-05
3.61271e-05
3.38e-05
3.16009e-05
2.95255e-05
2.75688e-05
2.57272e-05
2.3992e-05
2.23628e-05
2.08364e-05
1.93993e-05
1.8052e-05
1.67902e-05
1.56081e-05
1.45013e-05
1.34658e-05
1.24973e-05
1.1592e-05
1.07461e-05
9.95616e-06
9.21882e-06
8.53089e-06
7.88939e-06
7.29148e-06
6.73447e-06
6.21583e-06
5.73315e-06
5.28418e-06
4.86678e-06
4.47893e-06
4.11876e-06
3.78449e-06
3.47443e-06
3.18702e-06
2.92079e-06
2.67435e-06
2.4464e-06
2.23571e-06
2.04114e-06
1.86159e-06
1.6961e-06
1.54362e-06
1.40345e-06
1.27441e-06
1.15632e-06
1.04744e-06
9.48782e-07
8.56907e-07
7.75745e-07
6.97434e-07
6.32889e-07
5.63942e-07
5.1684e-07
4.51518e-07
4.25163e-07
3.55365e-07
3.56129e-07
2.70992e-07
3.08155e-07
1.94968e-07
2.78914e-07
1.26017e-07
2.64252e-07
6.55603e-08
2.57901e-07
1.70801e-08
2.53418e-07
-1.68231e-08
2.48493e-07
-3.97946e-08
2.50281e-07
-6.67447e-08
2.79429e-07
-1.25949e-07
3.69626e-07
-2.56442e-07
5.62275e-07
-5.00386e-07
8.92234e-07
6.02535e-05
7.33903e-05
8.46359e-05
9.40932e-05
0.000101872
0.000108091
0.000112873
0.000116337
0.000118605
0.0001198
0.000120041
0.000119443
0.000118119
0.000116172
0.000113702
0.0001108
0.00010755
0.000104027
0.0001003
9.64267e-05
9.24613e-05
8.84486e-05
8.44272e-05
8.04299e-05
7.64836e-05
7.26106e-05
6.88286e-05
6.51517e-05
6.15906e-05
5.81531e-05
5.48447e-05
5.16689e-05
4.86276e-05
4.57212e-05
4.29491e-05
4.03099e-05
3.78013e-05
3.54206e-05
3.31647e-05
3.10298e-05
2.90124e-05
2.71078e-05
2.53132e-05
2.36202e-05
2.20288e-05
2.05365e-05
1.91301e-05
1.78104e-05
1.65733e-05
1.54135e-05
1.43268e-05
1.33093e-05
1.2357e-05
1.14663e-05
1.06336e-05
9.85542e-06
9.12866e-06
8.45024e-06
7.81726e-06
7.22699e-06
6.67684e-06
6.16434e-06
5.68718e-06
5.24314e-06
4.83014e-06
4.44624e-06
4.0896e-06
3.75847e-06
3.45123e-06
3.16634e-06
2.90236e-06
2.65792e-06
2.43177e-06
2.22268e-06
2.02954e-06
1.85125e-06
1.6869e-06
1.53544e-06
1.39617e-06
1.26795e-06
1.15057e-06
1.04235e-06
9.44256e-07
8.52896e-07
7.72182e-07
6.94287e-07
6.30086e-07
5.61486e-07
5.14639e-07
4.49621e-07
4.23433e-07
3.53914e-07
3.54764e-07
2.69897e-07
3.0707e-07
1.94157e-07
2.78049e-07
1.2542e-07
2.63566e-07
6.51151e-08
2.57364e-07
1.67397e-08
2.53001e-07
-1.70889e-08
2.48143e-07
-3.99735e-08
2.4992e-07
-6.6775e-08
2.78928e-07
-1.25742e-07
3.6894e-07
-2.56043e-07
5.61642e-07
-4.9994e-07
8.92346e-07
4.17346e-05
5.5745e-05
6.78813e-05
7.82341e-05
8.69053e-05
9.40086e-05
9.96592e-05
0.000103973
0.000107068
0.000109062
0.000110072
0.000110211
0.000109588
0.000108307
0.000106467
0.000104157
0.000101461
9.84557e-05
9.52093e-05
9.17829e-05
8.82302e-05
8.45979e-05
8.09266e-05
7.72504e-05
7.35983e-05
6.99943e-05
6.64579e-05
6.3005e-05
5.9648e-05
5.63962e-05
5.32568e-05
5.02345e-05
4.73327e-05
4.45529e-05
4.18957e-05
3.93606e-05
3.69464e-05
3.4651e-05
3.24723e-05
3.04071e-05
2.84525e-05
2.66045e-05
2.48608e-05
2.32138e-05
2.16637e-05
2.02085e-05
1.88356e-05
1.75459e-05
1.63359e-05
1.52004e-05
1.41357e-05
1.31379e-05
1.22034e-05
1.13286e-05
1.05102e-05
9.74495e-06
9.02978e-06
8.36176e-06
7.73812e-06
7.15623e-06
6.61359e-06
6.10783e-06
5.6367e-06
5.19807e-06
4.78991e-06
4.41033e-06
4.05756e-06
3.72989e-06
3.42574e-06
3.14361e-06
2.88209e-06
2.63986e-06
2.41568e-06
2.20834e-06
2.01677e-06
1.83989e-06
1.67678e-06
1.52644e-06
1.38817e-06
1.26084e-06
1.14425e-06
1.03673e-06
9.39274e-07
8.48481e-07
7.68258e-07
6.90822e-07
6.26999e-07
5.58782e-07
5.12214e-07
4.47531e-07
4.21528e-07
3.52317e-07
3.5326e-07
2.68694e-07
3.05873e-07
1.93267e-07
2.77093e-07
1.24768e-07
2.62803e-07
6.46334e-08
2.56762e-07
1.63739e-08
2.52531e-07
-1.73741e-08
2.47753e-07
-4.01693e-08
2.49524e-07
-6.68173e-08
2.7839e-07
-1.25531e-07
3.68197e-07
-2.55607e-07
5.60924e-07
-4.99416e-07
8.92434e-07
2.3009e-05
3.78449e-05
5.0828e-05
6.20402e-05
7.15758e-05
7.95416e-05
8.60465e-05
9.12012e-05
9.51187e-05
9.79131e-05
9.96969e-05
0.000100581
0.000100671
0.000100069
9.8872e-05
9.71696e-05
9.50452e-05
9.25748e-05
8.98276e-05