/*--------------------------------*- C++ -*----------------------------------*\
| =========                 |                                                 |
| \\      /  F ield         | OpenFOAM: The Open Source CFD Toolbox           |
|  \\    /   O peration     | Version:  2412                                  |
|   \\  /    A nd           | Website:  www.openfoam.com                      |
|    \\/     M anipulation  |                                                 |
\*---------------------------------------------------------------------------*/
FoamFile
{
    version     2.0;
    format      ascii;
    arch        "LSB;label=32;scalar=64";
    class       surfaceScalarField;
    location    "28";
    object      phi;
}
// * * * * * * * * * * * * * * * * * * * * * * * * * * * * * * * * * * * * * //

dimensions      [0 3 -1 0 0 0 0];

oriented        oriented;

internalField   nonuniform List<scalar> 
126304
(
0.00505063
1.30365e-07
2.14341e-11
0.00505025
3.80108e-07
6.30395e-11
0.00504963
6.16414e-07
9.94355e-11
0.00504879
8.40937e-07
1.27744e-10
0.00504773
1.05539e-06
1.46843e-10
0.00504647
1.26118e-06
1.58405e-10
0.00504501
1.45934e-06
1.6584e-10
0.00504336
1.65086e-06
1.7233e-10
0.00504152
1.83739e-06
1.79043e-10
0.0050395
2.02218e-06
1.83111e-10
0.00503729
2.21088e-06
1.7639e-10
0.00503488
2.41129e-06
1.46392e-10
0.00503225
2.63201e-06
7.91349e-11
0.00502937
2.88023e-06
-3.6375e-11
0.00502621
3.15934e-06
-2.03184e-10
0.00502274
3.46734e-06
-4.12792e-10
0.00501894
3.79655e-06
-6.44706e-10
0.00501481
4.13472e-06
-8.69279e-10
0.00501034
4.46721e-06
-1.05289e-09
0.00500557
4.77949e-06
-1.16379e-09
0.00500051
5.05949e-06
-1.17741e-09
0.00499521
5.29914e-06
-1.08027e-09
0.00498972
5.49506e-06
-8.71431e-10
0.00498407
5.64829e-06
-5.6135e-10
0.0049783
5.76353e-06
-1.69163e-10
0.00497246
5.84791e-06
2.80422e-10
0.00496655
5.90978e-06
7.60661e-10
0.00496059
5.95759e-06
1.24609e-09
0.00495459
5.99912e-06
1.7148e-09
0.00494854
6.04092e-06
2.1498e-09
0.00494245
6.08808e-06
2.53921e-09
0.00493631
6.14424e-06
2.87609e-09
0.00493009
6.21171e-06
3.15794e-09
0.0049238
6.29169e-06
3.38567e-09
0.00491741
6.38454e-06
3.56261e-09
0.00491091
6.49002e-06
3.69361e-09
0.0049043
6.6075e-06
3.78428e-09
0.00489756
6.73614e-06
3.84054e-09
0.00489068
6.87503e-06
3.86819e-09
0.00488366
7.02325e-06
3.87258e-09
0.00487647
7.17995e-06
3.85833e-09
0.00486912
7.34439e-06
3.82943e-09
0.0048616
7.51594e-06
3.78918e-09
0.00485391
7.69406e-06
3.74014e-09
0.00484603
7.87833e-06
3.68433e-09
0.00483795
8.06843e-06
3.62341e-09
0.00482969
8.26411e-06
3.55858e-09
0.00482122
8.46519e-06
3.49078e-09
0.00481254
8.67156e-06
3.42072e-09
0.00480366
8.88317e-06
3.34891e-09
0.00479455
9.10008e-06
3.27571e-09
0.00478523
9.32253e-06
3.20137e-09
0.00477567
9.55131e-06
3.12603e-09
0.00476588
9.78884e-06
3.04971e-09
1.0042e-05
0.00475583
2.9703e-09
0.00505063
2.60665e-07
0.00505025
7.60008e-07
0.00504963
1.2325e-06
0.00504879
1.68141e-06
0.00504774
2.11018e-06
0.00504648
2.52161e-06
0.00504502
2.91778e-06
0.00504337
3.30069e-06
0.00504153
3.67359e-06
0.00503951
4.04301e-06
0.0050373
4.42017e-06
0.00503489
4.82064e-06
0.00503226
5.26158e-06
0.00502938
5.75732e-06
0.00502623
6.31467e-06
0.00502277
6.92969e-06
0.00501898
7.5871e-06
0.00501485
8.26252e-06
0.00501039
8.92674e-06
0.00500562
9.55082e-06
0.00500057
1.01107e-05
0.00499528
1.05901e-05
0.00498979
1.09824e-05
0.00498415
1.12895e-05
0.00497839
1.15208e-05
0.00497255
1.16904e-05
0.00496664
1.1815e-05
0.00496069
1.19114e-05
0.00495469
1.19951e-05
0.00494865
1.20791e-05
0.00494257
1.21738e-05
0.00493643
1.22862e-05
0.00493022
1.24211e-05
0.00492393
1.25808e-05
0.00491755
1.27662e-05
0.00491106
1.29767e-05
0.00490446
1.32111e-05
0.00489772
1.34677e-05
0.00489085
1.37448e-05
0.00488384
1.40404e-05
0.00487666
1.4353e-05
0.00486933
1.4681e-05
0.00486182
1.50231e-05
0.00485414
1.53784e-05
0.00484627
1.57459e-05
0.00483821
1.61251e-05
0.00482996
1.65153e-05
0.00482151
1.69163e-05
0.00481285
1.73278e-05
0.00480399
1.77497e-05
0.00479491
1.81821e-05
0.0047856
1.86255e-05
0.00477607
1.90813e-05
0.00476631
1.95543e-05
2.00579e-05
0.00475629
0.00505063
3.90793e-07
0.00505025
1.13937e-06
0.00504963
1.84771e-06
0.00504879
2.52069e-06
0.00504774
3.16347e-06
0.00504648
3.78023e-06
0.00504502
4.37412e-06
0.00504338
4.94811e-06
0.00504154
5.50708e-06
0.00503953
6.06076e-06
0.00503732
6.62593e-06
0.00503492
7.22581e-06
0.00503229
7.88609e-06
0.00502942
8.62822e-06
0.00502627
9.46244e-06
0.00502282
1.0383e-05
0.00501904
1.1367e-05
0.00501492
1.23783e-05
0.00501048
1.33731e-05
0.00500572
1.43083e-05
0.00500068
1.51476e-05
0.00499541
1.5867e-05
0.00498993
1.6456e-05
0.0049843
1.69177e-05
0.00497856
1.72658e-05
0.00497273
1.75215e-05
0.00496683
1.77095e-05
0.00496089
1.78551e-05
0.0049549
1.79812e-05
0.00494887
1.81076e-05
0.0049428
1.82495e-05
0.00493667
1.84178e-05
0.00493047
1.86194e-05
0.00492419
1.88581e-05
0.00491782
1.91349e-05
0.00491135
1.94492e-05
0.00490476
1.97992e-05
0.00489805
2.01824e-05
0.0048912
2.05961e-05
0.0048842
2.10377e-05
0.00487705
2.15045e-05
0.00486973
2.19943e-05
0.00486225
2.25053e-05
0.00485459
2.30359e-05
0.00484676
2.35848e-05
0.00483873
2.4151e-05
0.00483051
2.47337e-05
0.0048221
2.53324e-05
0.00481348
2.59467e-05
0.00480465
2.65764e-05
0.00479561
2.72217e-05
0.00478635
2.78831e-05
0.00477687
2.85627e-05
0.00476716
2.92669e-05
3.00144e-05
0.0047572
0.00505063
5.20666e-07
0.00505025
1.51791e-06
0.00504963
2.46164e-06
0.0050488
3.3582e-06
0.00504775
4.21451e-06
0.00504649
5.03614e-06
0.00504504
5.82729e-06
0.00504339
6.59192e-06
0.00504156
7.33649e-06
0.00503955
8.07391e-06
0.00503735
8.8264e-06
0.00503495
9.62476e-06
0.00503233
1.05031e-05
0.00502947
1.14899e-05
0.00502634
1.2599e-05
0.0050229
1.38228e-05
0.00501913
1.51312e-05
0.00501503
1.64763e-05
0.00501061
1.78001e-05
0.00500587
1.90452e-05
0.00500085
2.01636e-05
0.0049956
2.11229e-05
0.00499015
2.19093e-05
0.00498454
2.25266e-05
0.00497881
2.29927e-05
0.004973
2.33356e-05
0.00496712
2.35881e-05
0.00496119
2.37835e-05
0.00495522
2.39527e-05
0.0049492
2.41215e-05
0.00494314
2.43103e-05
0.00493703
2.45338e-05
0.00493084
2.48011e-05
0.00492459
2.51173e-05
0.00491824
2.54841e-05
0.00491178
2.59004e-05
0.00490522
2.63641e-05
0.00489853
2.68718e-05
0.00489171
2.742e-05
0.00488474
2.80051e-05
0.00487762
2.86237e-05
0.00487034
2.92729e-05
0.0048629
2.99501e-05
0.00485528
3.06533e-05
0.00484748
3.13807e-05
0.0048395
3.2131e-05
0.00483133
3.29031e-05
0.00482297
3.36962e-05
0.00481441
3.45099e-05
0.00480564
3.53438e-05
0.00479666
3.6198e-05
0.00478747
3.70731e-05
0.00477806
3.79715e-05
0.00476843
3.89008e-05
3.98827e-05
0.00475856
0.00505063
6.50201e-07
0.00505025
1.89536e-06
0.00504964
3.07385e-06
0.0050488
4.19334e-06
0.00504775
5.26256e-06
0.0050465
6.28844e-06
0.00504505
7.27625e-06
0.00504341
8.23092e-06
0.00504159
9.16048e-06
0.00503958
1.00809e-05
0.00503739
1.10198e-05
0.005035
1.20154e-05
0.00503239
1.31101e-05
0.00502954
1.43395e-05
0.00502642
1.57208e-05
0.005023
1.72449e-05
0.00501926
1.88749e-05
0.00501518
2.0551e-05
0.00501078
2.22016e-05
0.00500607
2.37552e-05
0.00500108
2.5152e-05
0.00499585
2.63514e-05
0.00499043
2.7336e-05
0.00498484
2.811e-05
0.00497914
2.86955e-05
0.00497335
2.91272e-05
0.00496749
2.94454e-05
0.00496158
2.96917e-05
0.00495563
2.99043e-05
0.00494964
3.01156e-05
0.0049436
3.0351e-05
0.0049375
3.06287e-05
0.00493134
3.09605e-05
0.00492511
3.13526e-05
0.00491878
3.18071e-05
0.00491236
3.23233e-05
0.00490583
3.2898e-05
0.00489917
3.35275e-05
0.00489238
3.42072e-05
0.00488546
3.49328e-05
0.00487838
3.57e-05
0.00487115
3.65052e-05
0.00486375
3.73453e-05
0.00485619
3.82174e-05
0.00484845
3.91196e-05
0.00484053
4.00501e-05
0.00483243
4.10075e-05
0.00482413
4.19908e-05
0.00481564
4.29993e-05
0.00480695
4.40326e-05
0.00479806
4.50906e-05
0.00478896
4.61738e-05
0.00477965
4.72847e-05
0.00477012
4.84308e-05
4.96349e-05
0.00476036
0.00505063
7.79323e-07
0.00505025
2.27145e-06
0.00504964
3.68392e-06
0.00504881
5.02553e-06
0.00504777
6.30687e-06
0.00504652
7.53625e-06
0.00504507
8.71997e-06
0.00504344
9.86394e-06
0.00504162
1.09777e-05
0.00503962
1.20803e-05
0.00503744
1.32045e-05
0.00503506
1.43959e-05
0.00503246
1.57049e-05
0.00502963
1.71742e-05
0.00502653
1.88246e-05
0.00502313
2.06455e-05
0.00501941
2.25934e-05
0.00501536
2.45974e-05
0.00501099
2.65722e-05
0.00500631
2.84325e-05
0.00500136
3.01067e-05
0.00499616
3.15464e-05
0.00499077
3.27299e-05
0.00498522
3.3662e-05
0.00497954
3.43687e-05
0.00497378
3.48907e-05
0.00496795
3.52762e-05
0.00496207
3.55745e-05
0.00495614
3.58312e-05
0.00495017
3.6085e-05
0.00494416
3.63663e-05
0.00493809
3.66971e-05
0.00493196
3.70916e-05
0.00492575
3.75575e-05
0.00491946
3.80974e-05
0.00491307
3.87104e-05
0.00490658
3.93931e-05
0.00489996
4.01409e-05
0.00489322
4.09486e-05
0.00488635
4.18109e-05
0.00487932
4.27228e-05
0.00487215
4.368e-05
0.00486481
4.46786e-05
0.00485732
4.57154e-05
0.00484965
4.67878e-05
0.0048418
4.78936e-05
0.00483378
4.90313e-05
0.00482557
5.01996e-05
0.00481717
5.13974e-05
0.00480858
5.26243e-05
0.00479979
5.38798e-05
0.0047908
5.51643e-05
0.00478161
5.64798e-05
0.00477221
5.78329e-05
5.92439e-05
0.0047626
0.00505063
9.07909e-07
0.00505025
2.64595e-06
0.00504965
4.29141e-06
0.00504882
5.85419e-06
0.00504778
7.34672e-06
0.00504654
8.77867e-06
0.0050451
1.01574e-05
0.00504347
1.14898e-05
0.00504166
1.27869e-05
0.00503967
1.40706e-05
0.0050375
1.53788e-05
0.00503513
1.67642e-05
0.00503255
1.82852e-05
0.00502973
1.99913e-05
0.00502665
2.19071e-05
0.00502328
2.40209e-05
0.00501959
2.62826e-05
0.00501557
2.86107e-05
0.00501124
3.09066e-05
0.0050066
3.30715e-05
0.00500168
3.50222e-05
0.00499653
3.6702e-05
0.00499117
3.80854e-05
0.00498566
3.91771e-05
0.00498002
4.00067e-05
0.00497429
4.06209e-05
0.00496849
4.10753e-05
0.00496264
4.14267e-05
0.00495674
4.17281e-05
0.0049508
4.20243e-05
0.00494482
4.23509e-05
0.00493878
4.27334e-05
0.00493268
4.31887e-05
0.00492652
4.37258e-05
0.00492026
4.4348e-05
0.00491392
4.50545e-05
0.00490747
4.58415e-05
0.00490091
4.67037e-05
0.00489422
4.76351e-05
0.0048874
4.86297e-05
0.00488045
4.96817e-05
0.00487334
5.0786e-05
0.00486608
5.19382e-05
0.00485866
5.31344e-05
0.00485108
5.43716e-05
0.00484332
5.56473e-05
0.0048354
5.69594e-05
0.00482729
5.83065e-05
0.004819
5.96872e-05
0.00481052
6.11008e-05
0.00480185
6.25466e-05
0.00479299
6.40247e-05
0.00478394
6.5536e-05
0.00477469
6.70844e-05
0.00476525
6.86816e-05
0.00475574
9.15353e-08
2.89456e-09
0.00475511
6.26351e-07
2.88138e-09
0.00475391
1.19665e-06
2.85495e-09
0.0047521
1.80441e-06
2.82302e-09
0.00474965
2.45277e-06
2.78774e-09
0.0047465
3.14522e-06
2.74897e-09
0.00474261
3.88566e-06
2.70653e-09
0.00473793
4.67844e-06
2.66023e-09
0.0047324
5.52842e-06
2.60979e-09
0.00472596
6.44104e-06
2.55512e-09
0.00471853
7.42238e-06
2.49609e-09
0.00471005
8.47925e-06
2.43242e-09
0.00470043
9.61928e-06
2.3639e-09
0.00468958
1.08511e-05
2.29213e-09
0.00467739
1.21844e-05
2.21099e-09
0.00466376
1.36301e-05
2.13561e-09
0.00464855
1.52007e-05
2.03131e-09
0.00463164
1.69104e-05
1.9142e-09
0.00461286
1.87752e-05
1.80266e-09
0.00459205
2.08136e-05
1.67347e-09
0.004569
2.3047e-05
1.55149e-09
0.0045435
2.54998e-05
1.42356e-09
0.0045153
2.82005e-05
1.28632e-09
0.00448411
3.1182e-05
1.139e-09
0.00444963
3.44829e-05
9.81125e-10
0.00441148
3.81487e-05
8.12343e-10
0.00436925
4.22328e-05
6.32404e-10
0.00432245
4.67989e-05
4.4102e-10
0.00427052
5.19229e-05
2.37742e-10
0.00421283
5.76961e-05
2.26043e-11
0.0041486
6.42288e-05
-2.04733e-10
0.00407695
7.16552e-05
-4.4445e-10
0.00399681
8.0139e-05
-6.96866e-10
0.00390693
8.98803e-05
-9.62137e-10
0.00380581
0.000101124
-1.24044e-09
0.00369164
0.000114165
-1.53221e-09
0.00356229
0.000129358
-1.83796e-09
0.00341517
0.000147113
-2.15828e-09
0.0032473
0.000167878
-2.49335e-09
0.0030552
0.000192098
-2.84293e-09
0.00283509
0.000220121
-3.206e-09
0.00258306
0.000252025
-3.57891e-09
0.00229574
0.000287325
-3.95313e-09
0.00197123
0.000324514
-4.31074e-09
0.00161087
0.000360364
-4.61662e-09
0.00122192
0.000388955
-4.80775e-09
0.000821511
0.000400418
-4.77935e-09
0.000442147
0.000379368
-4.37152e-09
0.000139705
0.000302445
-3.36553e-09
0.000139707
-1.50321e-09
0.00475483
1.55133e-06
0.00475284
2.62024e-06
0.00475028
3.75848e-06
0.00474711
4.97162e-06
0.00474329
6.26585e-06
0.00473879
7.64818e-06
0.00473355
9.12643e-06
0.00472752
1.07094e-05
0.00472064
1.24067e-05
0.00471285
1.42294e-05
0.00470409
1.61896e-05
0.00469426
1.83009e-05
0.00468331
2.05787e-05
0.00467112
2.30402e-05
0.0046576
2.57048e-05
0.00464263
2.85945e-05
0.0046261
3.17342e-05
0.00460786
3.51523e-05
0.00458775
3.88812e-05
0.00456561
4.29577e-05
0.00454123
4.74246e-05
0.0045144
5.2331e-05
0.00448486
5.77336e-05
0.00445235
6.36988e-05
0.00441653
7.03036e-05
0.00437704
7.76389e-05
0.00433346
8.58118e-05
0.00428531
9.49493e-05
0.00423203
0.000105203
0.00417297
0.000116756
0.00410737
0.000129826
0.00403434
0.000144683
0.00395283
0.000161649
0.00386159
0.000181123
0.00375913
0.000203587
0.00364366
0.000229627
0.00351309
0.000259937
0.00336488
0.000295318
0.00319612
0.000336643
0.00300345
0.000384768
0.00278322
0.000440343
0.00253178
0.000503467
0.002246
0.000573111
0.0019243
0.000646206
0.00156838
0.00071629
0.00118575
0.000771583
0.000793669
0.000792497
0.000424308
0.000748729
0.000131501
0.000595252
0.000271208
0.00475303
5.72667e-06
0.00474832
7.32494e-06
0.00474305
9.0265e-06
0.00473719
1.084e-05
0.00473068
1.27749e-05
0.00472348
1.48417e-05
0.00471556
1.70523e-05
0.00470685
1.942e-05
0.00469729
2.19593e-05
0.00468684
2.46867e-05
0.00467541
2.76205e-05
0.00466293
3.07813e-05
0.00464931
3.41921e-05
0.00463447
3.78787e-05
0.00461831
4.18705e-05
0.0046007
4.62004e-05
0.00458153
5.09059e-05
0.00456065
5.60297e-05
0.00453791
6.16205e-05
0.00451314
6.77339e-05
0.00448613
7.44339e-05
0.00445666
8.17946e-05
0.0044245
8.99013e-05
0.00438934
9.88534e-05
0.00435088
0.000108767
0.00430874
0.000119778
0.0042625
0.000132048
0.00421169
0.000145767
0.00415573
0.000161161
0.00409398
0.000178503
0.00402569
0.000198121
0.00394996
0.000220412
0.00386575
0.000245857
0.00377183
0.000275043
0.00366673
0.000308682
0.00354873
0.000347629
0.00341577
0.000392895
0.00326546
0.000445636
0.003095
0.000507097
0.0029013
0.000578472
0.00268102
0.00066062
0.00243094
0.00075355
0.00214848
0.000855569
0.00183273
0.000961958
0.001486
0.00106302
0.00111626
0.00114132
0.000740771
0.00116799
0.000391216
0.00109828
0.000118889
0.000867579
0.000390097
0.00475036
1.3931e-05
0.00474163
1.60511e-05
0.00473235
1.8308e-05
0.00472248
2.07135e-05
0.00471197
2.32803e-05
0.00470079
2.60229e-05
0.00468889
2.8957e-05
0.0046762
3.21005e-05
0.00466269
3.5473e-05
0.00464828
3.90965e-05
0.00463291
4.29955e-05
0.00461649
4.71974e-05
0.00459895
5.1733e-05
0.00458019
5.6637e-05
0.00456011
6.19485e-05
0.0045386
6.77116e-05
0.00451553
7.39765e-05
0.00449076
8.08003e-05
0.00446413
8.82481e-05
0.00443547
9.63944e-05
0.00440458
0.000105325
0.00437124
0.000115139
0.00433519
0.000125949
0.00429615
0.00013789
0.0042538
0.000151117
0.00420777
0.00016581
0.00415763
0.000182185
0.00410291
0.000200494
0.00404303
0.000221039
0.00397735
0.000244181
0.00390512
0.000270354
0.00382545
0.000300079
0.00373732
0.00033399
0.00363951
0.00037285
0.00353061
0.000417583
0.00340895
0.000469288
0.00327259
0.000529253
0.0031193
0.000598932
0.00294654
0.000679859
0.00275155
0.000773454
0.00253154
0.000880638
0.00228393
0.00100116
0.00200701
0.00113248
0.00170084
0.00126813
0.00136865
0.00139521
0.00101888
0.0014911
0.000668316
0.00151855
0.000346813
0.00141979
0.000101043
0.00111335
0.00049114
0.00474687
2.74257e-05
0.00473286
3.00556e-05
0.00471832
3.28555e-05
0.00470319
3.58401e-05
0.00468744
3.90262e-05
0.00467104
4.24316e-05
0.00465392
4.60765e-05
0.00463603
4.99832e-05
0.00461733
5.41762e-05
0.00459774
5.86832e-05
0.0045772
6.35349e-05
0.00455564
6.87655e-05
0.00453296
7.44138e-05
0.00450907
8.05231e-05
0.00448388
8.71424e-05
0.00445726
9.43274e-05
0.0044291
0.000102141
0.00439924
0.000110654
0.00436754
0.00011995
0.00433381
0.000130121
0.00429786
0.000141274
0.00425947
0.000153535
0.00421837
0.000167046
0.00417429
0.000181974
0.00412689
0.000198512
0.00407581
0.000216889
0.00402063
0.000237372
0.00396084
0.000260277
0.0038959
0.000285979
0.00382516
0.000314926
0.00374786
0.000347653
0.00366314
0.000384802
0.00356998
0.000427146
0.00346722
0.000475613
0.00335349
0.000531312
0.00322722
0.00059555
0.00308664
0.000669836
0.00292974
0.000755836
0.00275434
0.000855258
0.00255821
0.000969586
0.00233925
0.0010996
0.00209587
0.00124454
0.00182756
0.00140079
0.00153572
0.00155997
0.00122476
0.00170617
0.000903613
0.00181225
0.000587731
0.00183443
0.000302174
0.00170534
8.34557e-05
0.00133207
0.000574596
0.00474262
4.74019e-05
0.00472215
5.05227e-05
0.00470116
5.38473e-05
0.00467961
5.73934e-05
0.00465745
6.11812e-05
0.00463465
6.52324e-05
0.00461116
6.95712e-05
0.00458692
7.4224e-05
0.00456187
7.92207e-05
0.00453596
8.45942e-05
0.00450911
9.03815e-05
0.00448126
9.66238e-05
0.0044523
0.000103368
0.00442216
0.000110665
0.00439073
0.000118576
0.00435789
0.000127166
0.00432352
0.000136512
0.00428747
0.0001467
0.00424959
0.000157828
0.0042097
0.00017001
0.0041676
0.000183374
0.00412307
0.000198071
0.00407584
0.000214273
0.00402563
0.000232181
0.00397212
0.000252027
0.00391492
0.000274086
0.00385361
0.000298679
0.00378771
0.000326183
0.00371664
0.000357047
0.00363976
0.000391803
0.00355633
0.000431083
0.00346549
0.000475643
0.00336625
0.000526384
0.00325749
0.000584376
0.00313792
0.00065088
0.00300612
0.000727358
0.0028605
0.000815454
0.00269941
0.000916928
0.00252119
0.00103348
0.00232437
0.0011664
0.00210794
0.00131603
0.00187177
0.00148071
0.00161717
0.00165539
0.0013476
0.00182953
0.00106931
0.00198446
0.000791938
0.00208962
0.000528673
0.0020977
0.000294813
0.0019392
0.000101602
0.00152528
0.000676198
0.00473769
7.49566e-05
0.00470968
7.85404e-05
0.00468116
8.2365e-05
0.0046521
8.64493e-05
0.00462247
9.0816e-05
0.00459221
9.54903e-05
0.00456128
0.0001005
0.00452963
0.000105876
0.0044972
0.000111652
0.00446393
0.000117868
0.00442974
0.000124565
0.00439457
0.000131794
0.00435833
0.000139607
0.00432093
0.000148066
0.00428227
0.00015724
0.00424223
0.000167207
0.00420068
0.000178057
0.00415749
0.00018989
0.0041125
0.000202822
0.00406552
0.000216985
0.00401636
0.000232531
0.0039648
0.000249635
0.00391058
0.000268499
0.0038534
0.000289358
0.00379294
0.000312485
0.00372883
0.0003382
0.00366063
0.000366876
0.00358786
0.000398954
0.00350995
0.000434953
0.00342627
0.000475487
0.00333607
0.000521285
0.0032385
0.000573208
0.00313261
0.000632273
0.00301732
0.000699672
0.00289141
0.000776786
0.00275359
0.000865177
0.00260251
0.000966537
0.00243686
0.00108257
0.00225557
0.00121477
0.00205805
0.00136393
0.0018446
0.00152948
0.00161695
0.00170836
0.0013789
0.00189344
0.00113696
0.00207147
0.000900849
0.00222058
0.00068298
0.00230749
0.000496022
0.00228466
0.000344185
0.00209104
0.000208382
0.00166108
0.00088458
-2.58741e-05
2.58744e-05
-3.2731e-10
-7.57077e-05
4.98349e-05
-1.34015e-09
-0.000132533
5.68275e-05
-2.63014e-09
-0.000186473
5.39446e-05
-4.09801e-09
-0.000232107
4.56397e-05
-5.66006e-09
-0.000266691
3.45914e-05
-7.25706e-09
-0.000289056
2.23734e-05
-8.84697e-09
-0.0002989
9.85434e-06
-1.03291e-08
-0.000296359
-2.52919e-06
-1.13852e-08
-0.000282376
-1.39711e-05
-1.27899e-08
-0.000257358
-2.50035e-05
-1.38377e-08
-0.000221956
-3.53875e-05
-1.45082e-08
-0.000176861
-4.50806e-05
-1.47508e-08
-0.000122744
-5.41018e-05
-1.44591e-08
-6.02574e-05
-6.24735e-05
-1.3501e-08
9.96333e-06
-7.02091e-05
-1.17313e-08
8.72962e-05
-7.73239e-05
-8.99925e-09
0.000171145
-8.38441e-05
-5.17729e-09
0.000260931
-8.97858e-05
-1.90627e-10
0.00035609
-9.51644e-05
5.99202e-09
0.000456071
-9.99938e-05
1.28088e-08
0.000560334
-0.000104283
2.01764e-08
0.000668346
-0.000108039
2.70286e-08
0.00077958
-0.000111267
3.27764e-08
0.000893522
-0.000113979
3.74854e-08
0.00100967
-0.000116193
4.03776e-08
0.00112756
-0.000117926
4.18144e-08
0.00124671
-0.000119195
4.19517e-08
0.00136669
-0.000120017
4.10984e-08
0.00148706
-0.00012041
3.9555e-08
0.00160741
-0.000120393
3.75772e-08
0.00172736
-0.000119986
3.53559e-08
0.00184654
-0.000119209
3.30265e-08
0.00196459
-0.000118082
3.06729e-08
0.00208119
-0.000116629
2.83407e-08
0.00219604
-0.000114872
2.60512e-08
0.00230885
-0.000112832
2.38056e-08
0.00241936
-0.000110535
2.15952e-08
0.00252734
-0.000108004
1.94078e-08
0.00263259
-0.000105261
1.72298e-08
0.00273491
-0.000102332
1.50524e-08
0.00283413
-9.92394e-05
1.28718e-08
0.00293013
-9.60067e-05
1.06872e-08
0.00302278
-9.26567e-05
8.50632e-09
0.00311198
-8.92119e-05
6.34162e-09
0.00319767
-8.56939e-05
4.20993e-09
0.00327979
-8.21233e-05
2.13354e-09
0.00335831
-7.85189e-05
1.37048e-10
0.00343321
-7.48967e-05
-1.75624e-09
-7.12686e-05
0.00350448
-3.53279e-09
-2.27464e-05
4.86209e-05
-6.66392e-05
9.37276e-05
-0.000116471
0.000106659
-0.00016362
0.000101094
-0.000203201
8.52213e-05
-0.00023271
6.41e-05
-0.000251026
4.06891e-05
-0.000257764
1.6593e-05
-0.000253165
-7.12815e-06
-0.000237785
-2.93514e-05
-0.000212027
-5.07613e-05
-0.000176436
-7.0979e-05
-0.000131614
-8.99026e-05
-7.81574e-05
-0.000107558
-1.66214e-05
-0.00012401
5.23805e-05
-0.000139211
0.0001283
-0.000153244
0.000210588
-0.000166131
0.0002987
-0.000177898
0.000392108
-0.000188572
0.000490288
-0.000198175
0.00059273
-0.000206724
0.00069892
-0.00021423
0.000808355
-0.000220702
0.000920536
-0.00022616
0.00103498
-0.000230636
0.00115122
-0.000234163
0.0012688
-0.000236774
0.00138728
-0.000238502
0.00150625
-0.00023938
0.0016253
-0.000239444
0.00174405
-0.000238731
0.00186212
-0.000237281
0.00197917
-0.000235135
0.00209488
-0.000232337
0.00220894
-0.000228929
0.00232106
-0.000224959
0.002431
-0.00022047
0.0025385
-0.000215512
0.00264337
-0.000210129
0.00274541
-0.00020437
0.00284445
-0.000198281
0.00294035
-0.000191908
0.00303299
-0.000185298
0.00312227
-0.000178494
0.00320812
-0.000171539
0.00329047
-0.000164476
0.00336929
-0.00015734
0.00344456
-0.000150165
-0.000142971
0.00351626
-1.72561e-05
6.5877e-05
-4.91977e-05
0.000125669
-8.55702e-05
0.000143032
-0.000119705
0.000135228
-0.000147727
0.000113244
-0.000167604
8.39761e-05
-0.000178294
5.138e-05
-0.000179211
1.75097e-05
-0.000170733
-1.56065e-05
-0.000152818
-4.72661e-05
-0.00012579
-7.77899e-05
-8.99162e-05
-0.000106852
-4.56941e-05
-0.000134125
6.45841e-06
-0.000159711
6.60342e-05
-0.000183585
0.000132647
-0.000205824
0.00020582
-0.000226417
0.000285082
-0.000245393
0.000369965
-0.000262782
0.000460003
-0.00027861
0.000554731
-0.000292902
0.000653683
-0.000305676
0.000756396
-0.000316942
0.000862399
-0.000326705
0.000971226
-0.000334987
0.00108242
-0.00034183
0.00119554
-0.00034728
0.00131014
-0.000351381
0.00142582
-0.000354177
0.00154215
-0.000355716
0.00165876
-0.000356046
0.00177525
-0.000355222
0.00189127
-0.000353299
0.00200647
-0.000350336
0.00212053
-0.000346397
0.00223314
-0.000341544
0.00234403
-0.000335845
0.00245292
-0.000329366
0.00255959
-0.000322177
0.00266381
-0.000314347
0.00276538
-0.000305944
0.00286414
-0.00029704
0.00295994
-0.000287702
0.00305264
-0.000277999
0.00314214
-0.000267996
0.00322836
-0.000257758
0.00331123
-0.000247347
0.00339071
-0.000236817
0.00346676
-0.000226217
-0.000215574
0.00353936
-7.64562e-06
7.35226e-05
-2.36986e-05
0.000141722
-4.14754e-05
0.000160809
-5.75137e-05
0.000151266
-6.96188e-05
0.000125349
-7.63754e-05
9.07327e-05
-7.68273e-05
5.18319e-05
-6.99431e-05
1.06255e-05
-5.63575e-05
-2.91921e-05
-3.52127e-05
-6.84109e-05
-6.56545e-06
-0.000106437
2.92612e-05
-0.000142679
7.23196e-05
-0.000177183
0.000122367
-0.000209758
0.000179139
-0.000240358
0.000242304
-0.000268989
0.00031154
-0.000295653
0.000386501
-0.000320354
0.000466821
-0.000343102
0.000552122
-0.000363911
0.000642016
-0.000382796
0.000736105
-0.000399766
0.000833984
-0.000414821
0.000935238
-0.000427959
0.00103944
-0.000439191
0.00114617
-0.000448559
0.00125501
-0.000456123
0.00136556
-0.000461932
0.00147742
-0.000466037
0.0015902
-0.000468492
0.00170351
-0.000469359
0.00181699
-0.000468702
0.00193029
-0.000466591
0.00204305
-0.000463102
0.00215497
-0.000458312
0.00226573
-0.000452305
0.00237505
-0.000445165
0.00248266
-0.000436979
0.00258832
-0.000427838
0.00269181
-0.00041783
0.00279291
-0.000407049
0.00289145
-0.000395583
0.00298728
-0.000383526
0.00308024
-0.000370965
0.00317024
-0.000357988
0.00325716
-0.000344681
0.00334094
-0.000331125
0.00342151
-0.000317394
0.00349885
-0.00030355
-0.000289624
0.0035729
5.20563e-06
6.83169e-05
9.67637e-06
0.000137251
1.48609e-05
0.000155624
2.02226e-05
0.000145905
2.65422e-05
0.000119029
3.4774e-05
8.25009e-05
4.5897e-05
4.07089e-05
6.10706e-05
-4.54814e-06
8.01302e-05
-4.82517e-05
0.000104463
-9.27437e-05
0.000134257
-0.000136231
0.000169834
-0.000178256
0.000211227
-0.000218576
0.000258474
-0.000257005
0.000311536
-0.000293419
0.000370298
-0.000327752
0.000434597
-0.000359951
0.000504224
-0.000389981
0.000578936
-0.000417814
0.000658458
-0.000443434
0.000742492
-0.00046683
0.000830721
-0.000487995
0.00092281
-0.00050691
0.0010184
-0.00052355
0.00111712
-0.000537911
0.00121859
-0.000550027
0.00132243
-0.00055996
0.00142826
-0.000567761
0.0015357
-0.000573484
0.0016444
-0.000577184
0.00175397
-0.000578929
0.00186406
-0.000578791
0.00197431
-0.000576851
0.00208441
-0.000573196
0.00219402
-0.000567919
0.00230283
-0.000561116
0.00241055
-0.000552891
0.00251692
-0.000543348
0.00262168
-0.000532595
0.00272459
-0.000520743
0.00282545
-0.000507904
0.00292405
-0.000494188
0.00302023
-0.000479709
0.00311385
-0.000464577
0.00320476
-0.0004489
0.00329286
-0.000432784
0.00337807
-0.000416331
0.00346031
-0.000399632
0.00353952
-0.000382765
-0.000365765
0.00361566
1.87158e-05
4.96012e-05
4.73083e-05
0.000108659
7.78359e-05
0.000125097
0.000106885
0.000116856
0.000133228
9.26866e-05
0.000157441
5.82874e-05
0.000180945
1.72051e-05
0.000203277
-2.68806e-05
0.000227847
-7.28212e-05
0.00025492
-0.000119817
0.000285359
-0.00016667
0.000319796
-0.000212694
0.000358667
-0.000257446
0.000402271
-0.000300609
0.000450801
-0.000341949
0.000504345
-0.000381296
0.000562913
-0.000418519
0.000626444
-0.000453512
0.000694824
-0.000486193
0.000767888
-0.000516498
0.000845433
-0.000544376
0.000927225
-0.000569786
0.001013
-0.000592687
0.00110247
-0.00061302
0.00119531
-0.00063075
0.00129118
-0.000645899
0.00138974
-0.000658521
0.00149065
-0.000668665
0.00159354
-0.000676376
0.00169807
-0.000681711
0.00180387
-0.000684736
0.00191061
-0.000685528
0.00201793
-0.000684173
0.00212551
-0.000680769
0.00223301
-0.000675418
0.00234012
-0.000668231
0.00244655
-0.000659324
0.00255202
-0.000648818
0.00265627
-0.000636839
0.00275904
-0.000623516
0.00286012
-0.00060898
0.00295929
-0.000593362
0.00305638
-0.000576794
0.00315121
-0.000559409
0.00324364
-0.000541336
0.00333356
-0.0005227
0.00342085
-0.000503624
0.00350544
-0.000484218
0.00358725
-0.000464576
-0.000444743
0.00366623
3.42317e-05
1.53694e-05
9.13911e-05
5.14996e-05
0.000148613
6.78743e-05
0.000200218
6.52516e-05
0.000244578
4.8326e-05
0.000282955
1.99106e-05
0.000316155
-1.59945e-05
0.000345443
-5.61685e-05
0.000373713
-0.000101091
0.00040224
-0.000148344
0.000432224
-0.000196654
0.000464631
-0.000245101
0.000500207
-0.000293022
0.000539514
-0.000339916
0.000582964
-0.000385399
0.000630837
-0.000429169
0.000683306
-0.000470988
0.000740455
-0.000510661
0.000802289
-0.000548028
0.000868751
-0.00058296
0.000939728
-0.000615352
0.00101506
-0.000645123
0.00109457
-0.00067219
0.00117801
-0.00069646
0.00126512
-0.00071786
0.0013556
-0.00073638
0.00144914
-0.00075206
0.00154541
-0.000764941
0.00164409
-0.000775057
0.00174484
-0.000782456
0.0018473
-0.000787201
0.00195115
-0.00078937
0.00205602
-0.000789051
0.0021616
-0.000786346
0.00226755
-0.000781366
0.00237355
-0.000774232
0.0024793
-0.000765072
0.0025845
-0.000754023
0.00268889
-0.000741225
0.00279219
-0.000726824
0.00289418
-0.000710969
0.00299463
-0.000693812
0.00309335
-0.000675505
0.00319014
-0.0006562
0.00328485
-0.000636048
0.00337734
-0.000615195
0.0034675
-0.000593783
0.00355523
-0.000571945
0.00364044
-0.000549791
0.0037231
-0.000527396
0.00358016
-7.56712e-05
-5.23381e-09
0.0036538
-7.36338e-05
-6.97948e-09
0.00372529
-7.14826e-05
-8.73642e-09
0.00379454
-6.92382e-05
-1.04666e-08
0.00386146
-6.69126e-05
-1.21127e-08
0.00392599
-6.45162e-05
-1.36211e-08
0.00398807
-6.20603e-05
-1.49429e-08
0.00404764
-5.95569e-05
-1.60381e-08
0.00410468
-5.70189e-05
-1.68764e-08
0.00415916
-5.446e-05
-1.74366e-08
0.00421107
-5.18949e-05
-1.77052e-08
0.00426042
-4.93384e-05
-1.76798e-08
0.00430725
-4.68055e-05
-1.7367e-08
0.00435157
-4.43111e-05
-1.67801e-08
0.00439346
-4.18691e-05
-1.59401e-08
0.00443297
-3.94928e-05
-1.48761e-08
0.00447018
-3.71939e-05
-1.36211e-08
0.00450517
-3.49826e-05
-1.22105e-08
0.00453805
-3.28675e-05
-1.06826e-08
0.00456891
-3.08551e-05
-9.07529e-09
0.00459787
-2.895e-05
-7.42294e-09
0.00462503
-2.71549e-05
-5.75748e-09
0.0046505
-2.54705e-05
-4.10776e-09
0.0046744
-2.38957e-05
-2.49647e-09
0.00469683
-2.24278e-05
-9.40606e-10
0.00471789
-2.10622e-05
5.47068e-10
0.00473768
-1.97935e-05
1.95681e-09
0.0047563
-1.86148e-05
3.28369e-09
0.00477381
-1.75184e-05
4.52367e-09
0.0047903
-1.6496e-05
5.67272e-09
0.00480583
-1.5539e-05
6.72679e-09
0.00482046
-1.46391e-05
7.67911e-09
0.00483424
-1.37883e-05
8.51964e-09
0.00484721
-1.298e-05
9.2356e-09
0.00485941
-1.22091e-05
9.81472e-09
0.00487088
-1.14724e-05
1.02418e-08
0.00488163
-1.07691e-05
1.05041e-08
0.00489172
-1.01e-05
1.05942e-08
0.00490118
-9.46778e-06
1.05094e-08
0.00491005
-8.87553e-06
1.02531e-08
0.00491836
-8.32635e-06
9.83869e-09
0.00492618
-7.82219e-06
9.28631e-09
0.00493353
-7.36329e-06
8.62036e-09
0.00494047
-6.94798e-06
7.87864e-09
0.00494704
-6.57213e-06
7.08882e-09
0.00495326
-6.23129e-06
6.24242e-09
0.00495918
-5.91972e-06
5.40163e-09
0.0049648
-5.63158e-06
4.574e-09
0.00497016
-5.36173e-06
3.77925e-09
0.00497526
-5.10606e-06
3.02518e-09
0.00498012
-4.86156e-06
2.31994e-09
0.00498475
-4.62624e-06
1.66973e-09
0.00498915
-4.39895e-06
1.07584e-09
0.00499332
-4.17912e-06
5.36755e-10
0.00499729
-3.96656e-06
4.99365e-11
0.00500105
-3.76124e-06
-3.91711e-10
0.00500462
-3.56318e-06