/*--------------------------------*- C++ -*----------------------------------*\
| =========                 |                                                 |
| \\      /  F ield         | OpenFOAM: The Open Source CFD Toolbox           |
|  \\    /   O peration     | Version:  2412                                  |
|   \\  /    A nd           | Website:  www.openfoam.com                      |
|    \\/     M anipulation  |                                                 |
\*---------------------------------------------------------------------------*/
FoamFile
{
    version     2.0;
    format      ascii;
    arch        "LSB;label=32;scalar=64";
    class       volVectorField;
    location    "28";
    object      U;
}
// * * * * * * * * * * * * * * * * * * * * * * * * * * * * * * * * * * * * * //

dimensions      [0 1 -1 0 0 0 0];

internalField   nonuniform List<vector> 
63420
(
(0.0999997 4.41192e-07 0)
(0.099995 1.31216e-06 0)
(0.099985 2.17046e-06 0)
(0.0999705 3.02027e-06 0)
(0.0999517 3.86634e-06 0)
(0.0999288 4.71265e-06 0)
(0.0999018 5.56221e-06 0)
(0.099871 6.41808e-06 0)
(0.0998365 7.28611e-06 0)
(0.0997983 8.17933e-06 0)
(0.0997564 9.12155e-06 0)
(0.0997108 1.01476e-05 0)
(0.099661 1.12986e-05 0)
(0.0996066 1.26122e-05 0)
(0.099547 1.41121e-05 0)
(0.0994815 1.57989e-05 0)
(0.0994098 1.7646e-05 0)
(0.0993313 1.96031e-05 0)
(0.0992461 2.16035e-05 0)
(0.0991545 2.35759e-05 0)
(0.099057 2.54554e-05 0)
(0.0989543 2.71928e-05 0)
(0.0988472 2.87599e-05 0)
(0.0987367 3.01504e-05 0)
(0.0986236 3.13777e-05 0)
(0.0985085 3.24703e-05 0)
(0.098392 3.34665e-05 0)
(0.0982745 3.44085e-05 0)
(0.0981561 3.53381e-05 0)
(0.0980369 3.6293e-05 0)
(0.0979168 3.73054e-05 0)
(0.0977957 3.84005e-05 0)
(0.0976734 3.95971e-05 0)
(0.0975496 4.09081e-05 0)
(0.0974241 4.23416e-05 0)
(0.0972967 4.39019e-05 0)
(0.097167 4.55909e-05 0)
(0.0970349 4.74088e-05 0)
(0.0969002 4.93551e-05 0)
(0.0967626 5.14287e-05 0)
(0.0966219 5.36292e-05 0)
(0.0964781 5.59562e-05 0)
(0.096331 5.84101e-05 0)
(0.0961804 6.09921e-05 0)
(0.0960262 6.37038e-05 0)
(0.0958683 6.65478e-05 0)
(0.0957066 6.95271e-05 0)
(0.095541 7.26454e-05 0)
(0.0953713 7.59071e-05 0)
(0.0951975 7.93172e-05 0)
(0.0950195 8.28816e-05 0)
(0.0948371 8.66087e-05 0)
(0.0946502 9.05121e-05 0)
(0.0944588 9.46224e-05 0)
(0.0942625 9.90174e-05 0)
(0.0999997 1.32357e-06 0)
(0.099995 3.93641e-06 0)
(0.099985 6.51126e-06 0)
(0.0999705 9.06051e-06 0)
(0.0999518 1.15984e-05 0)
(0.0999288 1.41369e-05 0)
(0.0999019 1.66851e-05 0)
(0.0998711 1.92522e-05 0)
(0.0998366 2.18558e-05 0)
(0.0997984 2.45347e-05 0)
(0.0997566 2.73603e-05 0)
(0.099711 3.04366e-05 0)
(0.0996612 3.38862e-05 0)
(0.0996069 3.78223e-05 0)
(0.0995474 4.23157e-05 0)
(0.099482 4.73682e-05 0)
(0.0994103 5.29012e-05 0)
(0.099332 5.8764e-05 0)
(0.0992469 6.4758e-05 0)
(0.0991555 7.067e-05 0)
(0.0990581 7.63064e-05 0)
(0.0989555 8.15198e-05 0)
(0.0988486 8.62256e-05 0)
(0.0987382 9.04044e-05 0)
(0.0986252 9.4096e-05 0)
(0.0985103 9.73855e-05 0)
(0.0983939 0.000100387 0)
(0.0982764 0.000103225 0)
(0.0981581 0.000106026 0)
(0.098039 0.000108902 0)
(0.097919 0.000111948 0)
(0.0977981 0.000115241 0)
(0.0976758 0.000118837 0)
(0.0975522 0.000122774 0)
(0.0974268 0.000127076 0)
(0.0972995 0.000131758 0)
(0.09717 0.000136824 0)
(0.097038 0.000142275 0)
(0.0969035 0.00014811 0)
(0.096766 0.000154327 0)
(0.0966256 0.000160922 0)
(0.096482 0.000167896 0)
(0.0963351 0.000175251 0)
(0.0961848 0.000182988 0)
(0.0960309 0.000191114 0)
(0.0958733 0.000199636 0)
(0.0957119 0.000208562 0)
(0.0955466 0.000217905 0)
(0.0953773 0.000227677 0)
(0.0952039 0.000237892 0)
(0.0950262 0.00024857 0)
(0.0948443 0.000259733 0)
(0.0946579 0.000271423 0)
(0.094467 0.00028373 0)
(0.0942713 0.000296883 0)
(0.0999997 2.20507e-06 0)
(0.099995 6.55786e-06 0)
(0.099985 1.08475e-05 0)
(0.0999706 1.50944e-05 0)
(0.0999518 1.93223e-05 0)
(0.0999289 2.35511e-05 0)
(0.099902 2.7796e-05 0)
(0.0998713 3.20723e-05 0)
(0.0998368 3.64092e-05 0)
(0.0997987 4.08714e-05 0)
(0.099757 4.55771e-05 0)
(0.0997114 5.06991e-05 0)
(0.0996618 5.64412e-05 0)
(0.0996075 6.29917e-05 0)
(0.0995481 7.04684e-05 0)
(0.0994829 7.8875e-05 0)
(0.0994114 8.80818e-05 0)
(0.0993333 9.7839e-05 0)
(0.0992485 0.000107817 0)
(0.0991573 0.000117661 0)
(0.0990602 0.00012705 0)
(0.0989579 0.000135738 0)
(0.0988513 0.000143583 0)
(0.0987412 0.000150554 0)
(0.0986285 0.000156714 0)
(0.0985137 0.000162206 0)
(0.0983976 0.000167216 0)
(0.0982803 0.000171954 0)
(0.0981622 0.000176627 0)
(0.0980433 0.000181423 0)
(0.0979235 0.0001865 0)
(0.0978027 0.000191985 0)
(0.0976807 0.000197971 0)
(0.0975573 0.000204524 0)
(0.0974322 0.000211683 0)
(0.0973051 0.000219471 0)
(0.0971759 0.000227897 0)
(0.0970443 0.000236964 0)
(0.09691 0.000246668 0)
(0.096773 0.000257006 0)
(0.096633 0.000267974 0)
(0.0964898 0.000279571 0)
(0.0963434 0.000291799 0)
(0.0961936 0.000304665 0)
(0.0960402 0.000318175 0)
(0.0958832 0.000332343 0)
(0.0957225 0.000347183 0)
(0.0955578 0.000362713 0)
(0.0953892 0.000378955 0)
(0.0952166 0.000395933 0)
(0.0950398 0.000413676 0)
(0.0948587 0.000432224 0)
(0.0946732 0.000451641 0)
(0.0944833 0.00047207 0)
(0.0942886 0.000493876 0)
(0.0999997 3.08511e-06 0)
(0.099995 9.1746e-06 0)
(0.099985 1.51762e-05 0)
(0.0999706 2.11175e-05 0)
(0.0999519 2.70323e-05 0)
(0.0999291 3.29483e-05 0)
(0.0999022 3.88867e-05 0)
(0.0998716 4.4869e-05 0)
(0.0998372 5.09358e-05 0)
(0.0997992 5.71771e-05 0)
(0.0997575 6.37574e-05 0)
(0.0997121 7.09178e-05 0)
(0.0996625 7.89422e-05 0)
(0.0996085 8.80935e-05 0)
(0.0995493 9.8537e-05 0)
(0.0994843 0.000110279 0)
(0.0994131 0.00012314 0)
(0.0993353 0.000136772 0)
(0.0992509 0.000150717 0)
(0.0991601 0.000164481 0)
(0.0990634 0.000177615 0)
(0.0989615 0.000189775 0)
(0.0988553 0.000200763 0)
(0.0987456 0.00021053 0)
(0.0986332 0.000219167 0)
(0.0985189 0.000226868 0)
(0.098403 0.000233895 0)
(0.0982861 0.000240537 0)
(0.0981683 0.000247084 0)
(0.0980496 0.000253798 0)
(0.0979302 0.0002609 0)
(0.0978097 0.000268566 0)
(0.097688 0.00027693 0)
(0.0975649 0.00028608 0)
(0.0974401 0.000296074 0)
(0.0973135 0.000306944 0)
(0.0971847 0.000318704 0)
(0.0970536 0.000331356 0)
(0.0969198 0.000344896 0)
(0.0967834 0.00035932 0)
(0.096644 0.000374623 0)
(0.0965015 0.000390803 0)
(0.0963558 0.000407863 0)
(0.0962067 0.00042581 0)
(0.0960542 0.000444656 0)
(0.0958981 0.000464417 0)
(0.0957382 0.000485113 0)
(0.0955746 0.000506771 0)
(0.0954071 0.000529417 0)
(0.0952356 0.000553087 0)
(0.09506 0.000577818 0)
(0.0948802 0.000603663 0)
(0.0946961 0.000630708 0)
(0.0945076 0.000659134 0)
(0.0943146 0.00068941 0)
(0.0999997 3.96317e-06 0)
(0.099995 1.17847e-05 0)
(0.0999851 1.94942e-05 0)
(0.0999707 2.71259e-05 0)
(0.0999521 3.47232e-05 0)
(0.0999293 4.23219e-05 0)
(0.0999025 4.99494e-05 0)
(0.0998719 5.76329e-05 0)
(0.0998376 6.54246e-05 0)
(0.0997997 7.34393e-05 0)
(0.0997582 8.18869e-05 0)
(0.0997129 9.10754e-05 0)
(0.0996636 0.000101368 0)
(0.0996097 0.000113102 0)
(0.0995508 0.000126489 0)
(0.0994862 0.000141541 0)
(0.0994153 0.000158028 0)
(0.099338 0.00017551 0)
(0.0992541 0.0001934 0)
(0.0991638 0.000211067 0)
(0.0990676 0.000227935 0)
(0.0989663 0.000243564 0)
(0.0988606 0.000257696 0)
(0.0987514 0.000270267 0)
(0.0986395 0.00028139 0)
(0.0985256 0.000291311 0)
(0.0984102 0.000300362 0)
(0.0982937 0.000308915 0)
(0.0981763 0.000317338 0)
(0.098058 0.000325966 0)
(0.0979389 0.000335084 0)
(0.0978188 0.000344919 0)
(0.0976976 0.00035564 0)
(0.097575 0.000367363 0)
(0.0974507 0.000380163 0)
(0.0973246 0.000394081 0)
(0.0971964 0.000409137 0)
(0.0970659 0.000425332 0)
(0.0969329 0.000442664 0)
(0.0967971 0.000461125 0)
(0.0966586 0.00048071 0)
(0.096517 0.000501417 0)
(0.0963722 0.000523248 0)
(0.0962242 0.000546214 0)
(0.0960727 0.000570327 0)
(0.0959178 0.000595609 0)
(0.0957592 0.000622084 0)
(0.0955969 0.000649784 0)
(0.0954308 0.000678745 0)
(0.0952607 0.000709007 0)
(0.0950867 0.000740618 0)
(0.0949087 0.000773642 0)
(0.0947264 0.000808177 0)
(0.0945399 0.000844431 0)
(0.094349 0.000882928 0)
(0.0999997 4.83887e-06 0)
(0.099995 1.43864e-05 0)
(0.0999851 2.37988e-05 0)
(0.0999708 3.31152e-05 0)
(0.0999522 4.23896e-05 0)
(0.0999295 5.16654e-05 0)
(0.0999029 6.09761e-05 0)
(0.0998724 7.0355e-05 0)
(0.0998382 7.98653e-05 0)
(0.0998005 8.9646e-05 0)
(0.0997591 9.99515e-05 0)
(0.099714 0.000111155 0)
(0.0996649 0.000123699 0)
(0.0996113 0.000137992 0)
(0.0995527 0.000154295 0)
(0.0994884 0.000172623 0)
(0.0994181 0.000192704 0)
(0.0993413 0.000214002 0)
(0.0992579 0.000235809 0)
(0.0991682 0.000257358 0)
(0.0990728 0.000277947 0)
(0.0989721 0.000297039 0)
(0.0988671 0.000314317 0)
(0.0987585 0.000329701 0)
(0.0986473 0.00034332 0)
(0.0985339 0.000355473 0)
(0.0984191 0.00036656 0)
(0.098303 0.00037703 0)
(0.0981861 0.00038733 0)
(0.0980684 0.000397868 0)
(0.0979497 0.000408991 0)
(0.0978302 0.000420976 0)
(0.0977095 0.000434028 0)
(0.0975874 0.000448293 0)
(0.0974638 0.000463861 0)
(0.0973383 0.000480785 0)
(0.0972109 0.000499088 0)
(0.0970812 0.000518774 0)
(0.096949 0.00053984 0)
(0.0968142 0.000562276 0)
(0.0966767 0.000586077 0)
(0.0965362 0.00061124 0)
(0.0963926 0.000637768 0)
(0.0962458 0.00066567 0)
(0.0960957 0.000694964 0)
(0.0959422 0.000725674 0)
(0.0957852 0.000757829 0)
(0.0956245 0.000791466 0)
(0.0954602 0.000826626 0)
(0.095292 0.000863356 0)
(0.09512 0.000901713 0)
(0.094944 0.000941764 0)
(0.094764 0.000983617 0)
(0.09458 0.00102748 0)
(0.0943917 0.00107388 0)
(0.0999997 5.7115e-06 0)
(0.099995 1.69783e-05 0)
(0.0999852 2.8087e-05 0)
(0.0999709 3.90815e-05 0)
(0.0999524 5.00261e-05 0)
(0.0999298 6.09722e-05 0)
(0.0999033 7.19591e-05 0)
(0.0998729 8.30261e-05 0)
(0.0998389 9.42473e-05 0)
(0.0998013 0.000105785 0)
(0.0997602 0.000117937 0)
(0.0997153 0.000131141 0)
(0.0996664 0.000145914 0)
(0.0996131 0.000162739 0)
(0.0995549 0.000181925 0)
(0.0994911 0.000203492 0)
(0.0994213 0.000227126 0)
(0.0993451 0.000252203 0)
(0.0992625 0.000277893 0)
(0.0991735 0.000303298 0)
(0.0990788 0.000327591 0)
(0.0989789 0.00035014 0)
(0.0988747 0.000370566 0)
(0.0987669 0.000388769 0)
(0.0986563 0.000404898 0)
(0.0985437 0.000419294 0)
(0.0984295 0.000432428 0)
(0.0983141 0.000444822 0)
(0.0981977 0.000457 0)
(0.0980806 0.000469442 0)
(0.0979625 0.000482555 0)
(0.0978436 0.000496667 0)
(0.0977235 0.000512021 0)
(0.0976022 0.000528789 0)
(0.0974793 0.000547081 0)
(0.0973547 0.000566958 0)
(0.0972281 0.00058845 0)
(0.0970994 0.000611563 0)
(0.0969682 0.000636293 0)
(0.0968346 0.000662631 0)
(0.0966983 0.000690568 0)
(0.0965591 0.000720101 0)
(0.0964169 0.000751234 0)
(0.0962716 0.000783977 0)
(0.0961232 0.000818348 0)
(0.0959714 0.000854375 0)
(0.0958162 0.000892091 0)
(0.0956575 0.000931537 0)
(0.0954952 0.000972759 0)
(0.0953292 0.00101581 0)
(0.0951596 0.00106075 0)
(0.0949861 0.00110765 0)
(0.0948087 0.00115662 0)
(0.0946275 0.00120783 0)
(0.0944424 0.00126171 0)
(0.0940604 0.000103924 -4.42883e-24)
(0.0938503 0.000109116 -4.51687e-24)
(0.0936302 0.000114649 -3.17493e-26)
(0.0933996 0.00012055 1.38854e-23)
(0.0931577 0.000126851 -4.59911e-24)
(0.0929037 0.000133585 -4.73599e-24)
(0.0926369 0.000140793 -1.459e-23)
(0.0923563 0.000148516 1.44855e-23)
(0.0920609 0.000156804 4.95892e-24)
(0.0917498 0.00016571 0)
(0.0914218 0.000175294 5.12608e-24)
(0.0910755 0.000185623 -5.21594e-24)
(0.0907096 0.000196775 4.29252e-23)
(0.0903225 0.000208833 -9.20093e-23)
(0.0899125 0.000221895 4.91874e-23)
(0.0894777 0.000236069 3.98805e-23)
(0.089016 0.000251479 5.11746e-23)
(0.0885251 0.000268266 -5.86248e-24)
(0.0880023 0.000286589 5.99168e-24)
(0.0874449 0.000306633 -6.12822e-24)
(0.0868495 0.000328608 0)
(0.0862124 0.000352759 6.42566e-24)
(0.0855296 0.000379368 -6.58784e-24)
(0.0847964 0.000408762 0)
(0.0840075 0.000441326 -6.94281e-24)
(0.0831569 0.000477512 0)
(0.0822377 0.00051785 -7.3444e-24)
(0.081242 0.000562975 -1.23078e-22)
(0.0801607 0.000613641 1.30691e-22)
(0.0789832 0.000670757 -1.31172e-22)
(0.0776972 0.000735423 1.30972e-22)
(0.0762882 0.000808973 0)
(0.0747391 0.000893038 0)
(0.0730298 0.000989613 1.60395e-22)
(0.0711361 0.00110113 -1.50914e-22)
(0.0690293 0.00123056 0)
(0.0666749 0.0013814 0)
(0.0640317 0.00155776 0)
(0.061051 0.0017641 0)
(0.057676 0.00200485 0)
(0.0538426 0.00228346 0)
(0.0494821 0.00260066 0)
(0.0445282 0.00295153 0)
(0.0389293 0.00332097 0)
(0.032673 0.00367673 -1.47121e-23)
(0.0258236 0.00395966 -5.04337e-22)
(0.0185644 0.00407183 5.03581e-22)
(0.011267 0.00386391 5.46682e-22)
(0.00481942 0.00310679 -5.45862e-22)
(0.000981454 0.00144245 0)
(0.0940695 0.000311571 -4.48167e-24)
(0.0938596 0.000327112 -9.14471e-24)
(0.0936397 0.000343674 -4.79787e-24)
(0.0934093 0.000361341 4.4635e-24)
(0.0931677 0.000380205 -4.66428e-24)
(0.092914 0.000400369 3.3441e-23)
(0.0926475 0.00042195 -5.25196e-23)
(0.0923673 0.000445077 4.87998e-24)
(0.0920725 0.000469894 6.5165e-23)
(0.0917619 0.000496563 -8.99989e-23)
(0.0914344 0.000525266 -8.79372e-23)
(0.0910888 0.000556204 7.74873e-23)
(0.0907236 0.000589605 0)
(0.0903374 0.000625725 5.415e-24)
(0.0899283 0.000664854 -1.65531e-23)
(0.0894946 0.000707317 -1.87797e-22)
(0.0890341 0.000753485 1.80283e-22)
(0.0885445 0.00080378 -1.91646e-22)
(0.0880233 0.000858681 -1.8001e-23)
(0.0874676 0.000918741 6.14167e-24)
(0.0868741 0.000984592 0)
(0.0862393 0.00105697 -6.44231e-24)
(0.085559 0.00113671 -2.07653e-22)
(0.0848288 0.0012248 4.33969e-22)
(0.0840433 0.0013224 2.39451e-22)
(0.0831966 0.00143085 -4.51584e-22)
(0.082282 0.00155174 4.86355e-22)
(0.0812917 0.00168698 -4.93513e-22)
(0.0802168 0.00183882 -7.83172e-24)
(0.079047 0.00200998 0)
(0.0777701 0.00220373 0)
(0.0763721 0.00242407 0)
(0.0748365 0.00267585 0)
(0.0731438 0.002965 -9.29723e-24)
(0.0712707 0.00329877 -6.30132e-22)
(0.0691897 0.00368592 -2.63491e-23)
(0.0668679 0.00413688 6.54775e-22)
(0.0642662 0.00466368 7.12288e-22)
(0.0613383 0.00527948 -7.11344e-22)
(0.0580305 0.00599717 -2.36002e-23)
(0.054282 0.00682662 -2.46324e-23)
(0.0500273 0.00776944 -8.482e-22)
(0.0452018 0.00881033 8.20276e-22)
(0.0397531 0.00990345 -2.79062e-23)
(0.0336608 0.0109521 1.48149e-23)
(0.02697 0.0117799 -1.02562e-21)
(0.0198282 0.012095 1.02523e-21)
(0.0125463 0.011454 -2.13784e-21)
(0.00589235 0.00918547 2.10208e-21)
(0.00141711 0.00423379 -2.15338e-21)
(0.0940877 0.000518214 -2.65056e-23)
(0.0938781 0.000544017 -9.3107e-24)
(0.0936587 0.000571512 3.5889e-23)
(0.0934288 0.00060084 -7.38709e-23)
(0.0931877 0.000632156 1.58094e-22)
(0.0929346 0.000665632 -7.49034e-23)
(0.0926689 0.000701462 1.41892e-26)
(0.0923896 0.000739863 9.7326e-24)
(0.0920957 0.000781075 1.69781e-22)
(0.0917862 0.000825369 -1.59707e-22)
(0.0914599 0.000873045 0)
(0.0911157 0.000924441 1.45683e-26)
(0.0907521 0.000979936 0)
(0.0903675 0.00103996 1.86022e-22)
(0.0899604 0.00110498 -1.63971e-22)
(0.0895289 0.00117556 -3.53676e-22)
(0.0890708 0.00125231 1.9731e-23)
(0.088584 0.00133592 -3.72471e-22)
(0.0880659 0.0014272 1.2045e-23)
(0.0875138 0.00152707 -3.99186e-22)
(0.0869243 0.00163658 4.11416e-22)
(0.0862941 0.00175695 -4.19368e-22)
(0.0856191 0.00188958 4.32226e-22)
(0.0848948 0.00203612 1.3606e-23)
(0.0841163 0.00219846 -1.39801e-23)
(0.0832777 0.00237887 1.43775e-23)
(0.0823726 0.00257999 -4.81625e-22)
(0.0813934 0.00280496 4.96452e-22)
(0.0803315 0.00305752 5.28212e-22)
(0.0791772 0.00334217 -5.12e-22)
(0.0779189 0.00366432 0)
(0.0765435 0.00403056 0)
(0.0750353 0.00444886 1.79815e-23)
(0.0733762 0.00492896 1.23859e-21)
(0.071545 0.0054827 2.92604e-23)
(0.0695163 0.00612432 -1.24611e-21)
(0.0672605 0.00687072 0)
(0.0647425 0.00774127 -2.17466e-23)
(0.061921 0.00875692 1.51312e-21)
(0.0587484 0.00993787 -3.01955e-21)
(0.0551706 0.0112989 3.19856e-21)
(0.0511282 0.0128407 9.48687e-23)
(0.0465606 0.0145359 -1.65979e-21)
(0.0414128 0.0163065 -1.79353e-21)
(0.0356488 0.0179917 1.84839e-21)
(0.0292741 0.0193013 1.42143e-24)
(0.0223635 0.0197568 -3.13718e-23)
(0.0151075 0.0186303 2.06646e-21)
(0.00802095 0.0148532 -2.00103e-21)
(0.00225405 0.00678171 -2.00149e-21)
(0.0941149 0.000723157 1.74616e-23)
(0.0939058 0.000759067 -8.86417e-24)
(0.093687 0.000797321 1.9523e-26)
(0.0934579 0.000838121 9.12673e-24)
(0.0932177 0.000881685 -1.96196e-26)
(0.0929657 0.000928257 1.51739e-22)
(0.0927011 0.00097811 -2.86777e-22)
(0.0924231 0.00103155 1.54148e-22)
(0.0921308 0.00108891 -9.87302e-24)
(0.091823 0.00115057 1.82565e-22)
(0.0914987 0.00121694 -1.62393e-22)
(0.0911566 0.00128852 -3.3721e-22)
(0.0907954 0.00136581 6.80974e-22)
(0.0904136 0.00144942 -6.94587e-22)
(0.0900096 0.00154001 7.08853e-22)
(0.0895814 0.00163836 -7.12586e-22)
(0.0891273 0.00174531 -3.77295e-22)
(0.0886448 0.00186186 2.24626e-26)
(0.0881316 0.00198911 0)
(0.087585 0.00212835 -3.88728e-22)
(0.0870019 0.00228106 4.00929e-22)
(0.0863788 0.00244892 0)
(0.0857121 0.00263392 -8.66263e-22)
(0.0849973 0.00283832 8.52205e-22)
(0.0842297 0.00306479 1.41132e-23)
(0.0834038 0.00331647 -3.69331e-26)
(0.0825134 0.00359703 1.49174e-23)
(0.0815514 0.00391085 0)
(0.08051 0.00426311 -5.29396e-26)
(0.0793798 0.00466004 0)
(0.0781505 0.00510913 -1.69305e-23)
(0.0768099 0.00561942 1.14454e-21)
(0.0753441 0.00620186 -1.14423e-21)
(0.073737 0.00686975 -1.89206e-23)
(0.0719699 0.00763917 3.91486e-23)
(0.0700214 0.00852937 -1.34869e-21)
(0.0678663 0.00956298 1.30677e-21)
(0.0654756 0.0107657 2.21226e-23)
(0.0628156 0.0121648 -3.53145e-25)
(0.0598477 0.013786 2.35637e-23)
(0.0565275 0.0156466 -1.61621e-21)
(0.0528052 0.0177437 3.26577e-21)
(0.0486258 0.0200349 -1.70166e-21)
(0.0439305 0.0224086 1.75694e-21)
(0.0386603 0.0246413 -1.83929e-21)
(0.0327605 0.0263371 -3.65077e-21)
(0.0261917 0.0268476 7.44777e-21)
(0.018964 0.0251773 -3.77028e-21)
(0.0112486 0.0198977 0)
(0.0034967 0.00897698 -3.54791e-21)
(0.0941509 0.000925753 -8.66044e-24)
(0.0939426 0.000971542 -3.5395e-23)
(0.0937247 0.0010203 1.07326e-22)
(0.0934966 0.00107231 -1.4496e-22)
(0.0932577 0.00112784 6.38543e-23)
(0.0930072 0.00118721 9.36924e-24)
(0.0927444 0.00125077 -9.52913e-24)
(0.0924684 0.00131892 -2.46225e-26)
(0.0921782 0.00139209 9.87112e-24)
(0.0918729 0.00147076 -2.00838e-23)
(0.0915513 0.00155547 -3.30645e-22)
(0.0912124 0.00164681 3.41241e-22)
(0.0908546 0.00174548 -3.33506e-22)
(0.0904767 0.00185223 3.4427e-22)
(0.090077 0.00196792 0)
(0.0896537 0.00209352 -2.47802e-26)
(0.089205 0.00223014 0)
(0.0887287 0.00237903 -3.72491e-22)
(0.0882225 0.00254162 3.96694e-22)
(0.0876837 0.00271955 -1.24715e-23)
(0.0871095 0.0029147 -8.40972e-22)
(0.0864966 0.00312925 8.28559e-22)
(0.0858415 0.0033657 -1.34819e-23)
(0.0851401 0.00362697 0)
(0.0843879 0.00391646 0)
(0.0835798 0.00423815 -9.6702e-22)
(0.0827102 0.00459674 9.37641e-22)
(0.0817726 0.00499776 0)
(0.0807597 0.00544781 -3.21758e-23)
(0.0796635 0.00595473 0)
(0.0784746 0.00652795 1.72276e-23)
(0.0771827 0.00717881 -1.77506e-23)
(0.0757758 0.00792099 -1.84865e-23)
(0.0742407 0.00877095 1.90468e-23)
(0.0725623 0.00974849 1.25288e-21)
(0.0707239 0.0108771 -1.29312e-21)
(0.0687065 0.0121841 2.8087e-21)
(0.0664892 0.0137001 -2.81049e-21)
(0.0640482 0.0154568 2.97982e-21)
(0.0613568 0.0174829 8.35347e-23)
(0.0583837 0.0197954 -3.1379e-21)
(0.0550915 0.0223848 -2.50303e-23)
(0.0514331 0.0251913 1.24094e-24)
(0.0473459 0.0280696 1.63852e-24)
(0.0427422 0.0307382 2.15694e-24)
(0.0374923 0.0327108 -5.40435e-23)
(0.031404 0.0332001 -2.48178e-23)
(0.0242343 0.0309822 -2.36239e-23)
(0.0157062 0.0242837 0)
(0.00516775 0.0108128 7.26231e-24)
(0.0941955 0.00112537 -4.29773e-23)
(0.0939882 0.0011808 2.58525e-23)
(0.0937717 0.00123984 8.85084e-24)
(0.0935452 0.00130282 1.35934e-22)
(0.0933081 0.0013701 -1.35982e-22)
(0.0930597 0.00144206 1.40782e-22)
(0.0927992 0.00151914 -3.12551e-22)
(0.0925259 0.00160181 4.45154e-22)
(0.0922387 0.0016906 -3.11845e-22)
(0.0919367 0.0017861 -3.23712e-22)
(0.0916189 0.00188896 -1.63578e-23)
(0.0912841 0.00199992 6.57688e-22)
(0.0909311 0.0021198 -6.9299e-22)
(0.0905583 0.00224955 3.2327e-22)
(0.0901644 0.00239019 3.49088e-22)
(0.0897477 0.00254293 3.65144e-22)
(0.0893063 0.0027091 -2.83244e-23)
(0.0888383 0.00289025 7.44186e-22)
(0.0883414 0.00308811 7.68913e-22)
(0.0878132 0.00330469 1.96142e-23)
(0.0872509 0.00354229 -8.15362e-22)
(0.0866517 0.00380355 0)
(0.0860122 0.00409153 0)
(0.0853287 0.00440979 -9.09623e-22)
(0.0845971 0.00476246 8.96558e-22)
(0.0838129 0.00515438 9.66041e-22)
(0.082971 0.00559123 -9.67472e-22)
(0.0820659 0.00607973 0)
(0.0810912 0.0066278 1.08022e-21)
(0.0800401 0.00724489 -1.0823e-21)
(0.0789048 0.00794225 0)
(0.0776771 0.00873333 -2.34161e-21)
(0.0763478 0.00963421 2.3633e-21)
(0.0749069 0.0106641 -1.95275e-23)
(0.073344 0.0118457 -2.61064e-21)
(0.0716482 0.0132056 2.63487e-21)
(0.0698083 0.0147739 0)
(0.0678131 0.0165834 2.9535e-21)
(0.0656512 0.0186666 -2.93528e-21)
(0.0633106 0.0210498 2.37608e-23)
(0.0607765 0.023743 3.23261e-21)
(0.0580276 0.0267222 -6.483e-21)
(0.0550282 0.0299027 2.09831e-23)
(0.0517148 0.0331 3.76703e-23)
(0.0479722 0.0359774 3.35762e-21)
(0.0435927 0.0379775 3.71345e-24)
(0.0382154 0.0382231 -2.88729e-21)
(0.031274 0.0353586 2.95992e-21)
(0.0218173 0.0274222 0)
(0.00750683 0.0120047 2.66335e-23)
(0.0942486 0.00132118 8.46273e-24)
(0.0940429 0.00138569 7.8e-23)
(0.0938283 0.0014545 -6.95606e-23)
(0.093604 0.00152797 8.9347e-24)
(0.0933695 0.00160652 1.3741e-22)
(0.093124 0.00169061 -1.37625e-22)
(0.0928667 0.00178075 -2.95057e-22)
(0.092597 0.00187748 4.31055e-24)
(0.0923138 0.00198145 -5.59283e-24)
(0.0920164 0.00209334 3.27918e-22)
(0.0917035 0.00221393 -3.20511e-22)
(0.0913743 0.0023441 6.80225e-22)
(0.0910274 0.00248482 -3.38995e-22)
(0.0906615 0.00263721 1.09629e-23)
(0.0902753 0.0028025 1.12221e-23)
(0.0898672 0.00298212 7.42624e-22)
(0.0894356 0.00317766 -5.06488e-24)
(0.0889784 0.00339095 7.75413e-22)
(0.0884939 0.00362408 1.23987e-23)
(0.0879796 0.00387943 0)
(0.0874332 0.00415974 0)
(0.086852 0.00446816 -8.71273e-22)
(0.0862331 0.00480835 8.73474e-22)
(0.0855732 0.00518453 0)
(0.0848689 0.00560165 1.47016e-23)
(0.0841162 0.00606545 0)
(0.083311 0.00658268 -1.0155e-21)
(0.0824486 0.00716131 2.06751e-21)
(0.0815241 0.0078107 -1.05208e-21)
(0.0805321 0.00854197 -2.22939e-21)
(0.079467 0.00936828 -7.44829e-23)
(0.0783229 0.0103052 -7.84545e-23)
(0.0770938 0.0113713 -8.23082e-23)
(0.0757739 0.0125883 2.50499e-21)
(0.0743578 0.0139813 2.68579e-21)
(0.0728414 0.015579 -2.69218e-21)
(0.0712218 0.0174126 0)
(0.0694984 0.0195138 2.97443e-21)
(0.0676729 0.0219104 -2.98135e-21)
(0.065749 0.024618 -3.16146e-21)
(0.0637296 0.0276271 3.14404e-21)
(0.0616114 0.0308819 2.56763e-23)
(0.0593734 0.0342506 3.15373e-21)
(0.0569568 0.0374858 -1.03774e-22)
(0.0542321 0.0401762 -3.11497e-21)
(0.0509384 0.041697 2.37762e-23)
(0.0465964 0.0411484 0)
(0.0403992 0.0372333 -1.90189e-23)
(0.0305751 0.0281919 -9.31291e-22)
(0.0120841 0.0119365 4.12241e-22)
(-0.000198031 0.000270255 0)
(-0.000869658 0.00052009 3.16509e-22)
(-0.00188199 0.000588095 -3.16985e-22)
(-0.00292165 0.000556452 -3.16662e-22)
(-0.00383863 0.000470404 3.17138e-22)
(-0.00457242 0.00035673 -9.80032e-24)
(-0.00509344 0.000231561 0)
(-0.00538913 0.000104276 0)
(-0.00545821 -1.98264e-05 0)
(-0.00531061 -0.000139659 0)
(-0.00495794 -0.000253182 0)
(-0.00440862 -0.000359688 0)
(-0.00367363 -0.000459027 0)
(-0.00276463 -0.000551475 0)
(-0.00169267 -0.000637349 0)
(-0.00046856 -0.000716719 1.12266e-22)
(0.000897013 -0.000789831 -1.05569e-22)
(0.00239366 -0.000856944 0)
(0.00401133 -0.00091824 0)
(0.00574017 -0.000973889 -8.92101e-23)
(0.00757054 -0.00102403 8.93463e-23)
(0.00949301 -0.00106876 -7.25202e-23)
(0.011498 -0.00110814 4.69161e-24)
(0.0135762 -0.00114224 0)
(0.0157182 -0.00117116 3.98573e-24)
(0.017915 -0.0011951 0)
(0.0201578 -0.00121422 0)
(0.0224378 -0.00122871 0)
(0.0247469 -0.00123874 2.68553e-24)
(0.0270769 -0.0012445 0)
(0.0294201 -0.00124616 -2.11046e-24)
(0.0317688 -0.00124394 1.84467e-24)
(0.0341159 -0.00123803 -1.59407e-24)
(0.0364545 -0.00122865 1.12445e-23)
(0.0387781 -0.00121602 -1.10404e-23)
(0.0410807 -0.00120035 -5.70408e-24)
(0.0433563 -0.00118188 1.11058e-23)
(0.0455997 -0.00116083 -5.21136e-24)
(0.0478059 -0.00113743 -4.17311e-25)
(0.0499703 -0.00111192 2.74179e-25)
(0.0520889 -0.00108453 0)
(0.054158 -0.00105549 2.94951e-26)
(0.0561743 -0.00102503 5.74773e-25)
(0.058135 -0.000993377 -6.66253e-25)
(0.0600376 -0.000960741 2.43332e-25)
(0.0618801 -0.000927339 -1.00511e-24)
(0.0636609 -0.000893373 3.23279e-25)
(0.0653788 -0.000859026 8.66113e-25)
(0.0670329 -0.000824458 -4.46184e-25)
(0.0686225 -0.00078979 4.95848e-25)
(-0.00025877 0.000777323 -1.19926e-21)
(-0.000973991 0.00149132 -1.31086e-21)
(-0.00190364 0.00168631 1.29218e-21)
(-0.00281042 0.00159419 -6.22211e-22)
(-0.00358185 0.00134408 6.23238e-22)
(-0.00417395 0.00101354 9.86833e-24)
(-0.00456567 0.000649023 -1.95885e-23)
(-0.00474802 0.00027754 -6.24042e-22)
(-0.00472211 -8.54299e-05 6.05631e-22)
(-0.00449647 -0.000436195 -1.8309e-23)
(-0.00407964 -0.000769119 -1.77852e-23)
(-0.00347933 -0.00108237 5.38473e-22)
(-0.00270518 -0.0013749 -5.39189e-22)
(-0.00176754 -0.00164758 -4.97924e-22)
(-0.000675904 -0.00190133 2.22541e-23)
(0.000560218 -0.00213596 4.76968e-22)
(0.00193093 -0.00235247 -6.90184e-24)
(0.00342676 -0.00255143 -1.32088e-23)
(0.00503846 -0.0027333 0)
(0.00675688 -0.00289853 0)
(0.00857298 -0.00304753 0)
(0.0104778 -0.00318057 -5.07309e-24)
(0.0124623 -0.00329783 2.76753e-22)
(0.0145175 -0.00339948 -3.00208e-22)
(0.0166345 -0.00348589 2.42024e-22)
(0.0188046 -0.00355754 -1.34166e-22)
(0.0210193 -0.00361496 -2.14038e-22)
(0.0232701 -0.00365866 1.01837e-22)
(0.0255492 -0.00368912 -2.69245e-24)
(0.0278485 -0.00370688 -4.8882e-24)
(0.0301605 -0.00371249 2.11506e-24)
(0.032478 -0.00370651 -5.63114e-24)
(0.0347938 -0.00368953 4.6048e-23)
(0.0371013 -0.00366219 -8.95674e-23)
(0.0393941 -0.00362512 3.92558e-23)
(0.0416661 -0.00357898 -2.87952e-24)
(0.0439118 -0.00352443 7.48497e-25)
(0.0461258 -0.00346217 0)
(0.0483033 -0.00339287 -6.15167e-24)
(0.0504399 -0.00331724 5.4112e-24)
(0.0525315 -0.00323596 1.18409e-24)
(0.0545744 -0.00314972 -1.65909e-24)
(0.0565655 -0.00305921 -7.32918e-26)
(0.0585019 -0.00296509 -1.12396e-24)
(0.0603812 -0.00286801 1.78621e-24)
(0.0622014 -0.00276861 3.11769e-25)
(0.0639609 -0.00266749 2.64132e-24)
(0.0656586 -0.0025652 5.73138e-25)
(0.0672933 -0.00246221 -7.98569e-25)
(0.0688646 -0.00235886 -1.4437e-24)
(-0.000364746 0.00118937 -1.23926e-21)
(-0.00114556 0.00225767 1.36069e-21)
(-0.00189903 0.00255727 -1.32006e-21)
(-0.00254248 0.00241332 -2.06219e-23)
(-0.00303119 0.00202327 -3.1482e-25)
(-0.00335088 0.00150742 -1.26662e-21)
(-0.00349602 0.00093647 1.30815e-21)
(-0.00346317 0.000351854 1.25633e-21)
(-0.00325686 -0.000222046 -1.19249e-23)
(-0.00288361 -0.000778488 -2.36336e-21)
(-0.00234678 -0.00130883 2.3311e-21)
(-0.00165132 -0.00181067 -1.12159e-21)
(-0.000804133 -0.00228055 -1.70019e-23)
(0.000186181 -0.0027202 0)
(0.0013137 -0.00313004 9.88943e-22)
(0.00257109 -0.0035106 -6.11754e-23)
(0.00394978 -0.00386284 -9.14612e-22)
(0.00544241 -0.00418727 2.68686e-23)
(0.00704121 -0.00448449 0)
(0.00873827 -0.00475512 0)
(0.0105257 -0.00499968 3.45519e-22)
(0.0123955 -0.00521856 -3.35302e-22)
(0.0143395 -0.00541195 -2.88587e-22)
(0.0163496 -0.00558012 3.0736e-22)
(0.0184176 -0.00572343 8.35065e-24)
(0.0205356 -0.00584274 -7.64884e-24)
(0.0226954 -0.00593882 6.96682e-24)
(0.0248894 -0.00601245 -1.82181e-22)
(0.0271099 -0.00606442 1.88667e-22)
(0.0293497 -0.00609552 -1.39927e-22)
(0.0316014 -0.00610664 1.50045e-22)
(0.0338582 -0.00609867 3.79774e-24)
(0.0361134 -0.00607256 9.90308e-23)
(0.0383605 -0.00602933 -1.80593e-22)
(0.0405934 -0.00596999 8.67109e-23)
(0.0428064 -0.00589563 3.07289e-23)
(0.044994 -0.00580732 -2.71401e-23)
(0.0471512 -0.00570619 0)
(0.0492732 -0.00559336 -9.14873e-26)
(0.0513558 -0.00546997 0)
(0.0533949 -0.00533716 3.9658e-24)
(0.0553872 -0.00519606 -3.94471e-24)
(0.0573293 -0.00504778 -3.60663e-26)
(0.0592186 -0.00489344 -6.33433e-26)
(0.0610527 -0.00473411 -4.03041e-24)
(0.0628297 -0.00457084 8.46257e-24)
(0.0645479 -0.00440462 -5.07682e-24)
(0.0662061 -0.00423636 3.29038e-24)
(0.0678033 -0.00406683 -2.36752e-24)
(0.0693389 -0.00389652 -9.00893e-25)
(-0.000488205 0.00142903 -2.65955e-21)
(-0.00130422 0.00270272 0)
(-0.00176149 0.00307715 2.77459e-21)
(-0.00202019 0.00289351 -5.55526e-21)
(-0.00210687 0.00240272 2.80177e-21)
(-0.00204619 0.00175221 1.29154e-21)
(-0.00185192 0.00102772 -1.355e-21)
(-0.00152518 0.000281256 1.27762e-21)
(-0.00107332 -0.000460777 -2.5435e-21)
(-0.000500414 -0.00118539 1.24626e-21)
(0.000196518 -0.00188037 1.87867e-23)
(0.00101818 -0.00254024 2.54215e-25)
(0.00196186 -0.00316322 1.72944e-23)
(0.00302102 -0.00374957 -1.06599e-21)
(0.00419353 -0.00429837 1.03356e-21)
(0.00547531 -0.00481062 3.06918e-23)
(0.00686102 -0.00528652 -1.44785e-23)
(0.00834532 -0.00572647 8.61894e-22)
(0.00992241 -0.00613096 -8.61942e-22)
(0.0115862 -0.00650051 -1.24659e-23)
(0.0133303 -0.00683558 0)
(0.0151481 -0.00713652 2.59973e-25)
(0.0170329 -0.00740348 0)
(0.0189773 -0.00763646 9.41733e-24)
(0.0209745 -0.00783603 2.4516e-25)
(0.0230171 -0.00800295 7.72127e-24)
(0.0250981 -0.00813836 -4.41768e-22)
(0.0272105 -0.00824319 4.35116e-22)
(0.0293474 -0.00831843 0)
(0.031502 -0.0083651 -1.56454e-22)
(0.0336677 -0.00838431 1.61427e-22)
(0.035838 -0.00837724 0)
(0.0380067 -0.00834516 -1.7831e-25)
(0.0401678 -0.00828939 -9.22299e-23)
(0.0423155 -0.00821131 1.67006e-22)
(0.0444444 -0.00811237 -1.36924e-22)
(0.0465494 -0.00799404 1.11722e-22)
(0.0486256 -0.00785783 -8.82951e-23)
(0.0506686 -0.00770529 3.8463e-23)
(0.0526742 -0.00753796 9.62747e-24)
(0.0546387 -0.00735741 -8.68559e-24)
(0.0565586 -0.00716519 -2.78074e-25)
(0.058431 -0.00696285 1.55815e-24)
(0.0602532 -0.0067519 -6.17712e-24)
(0.0620228 -0.00653384 4.2691e-24)
(0.063738 -0.00631012 7.33635e-26)
(0.0653972 -0.0060821 -6.57123e-25)
(0.0669991 -0.00585105 -6.21895e-26)
(0.0685426 -0.00561802 8.48676e-25)
(0.0700273 -0.00538358 -1.78826e-24)
(-0.000545168 0.00142639 -1.46627e-24)
(-0.00127054 0.00275393 -2.46682e-23)
(-0.00131549 0.00316309 -2.39786e-23)
(-0.00108563 0.00296317 -2.33624e-23)
(-0.000681119 0.00242555 -4.50838e-23)
(-0.000168554 0.00170394 -4.38284e-25)
(0.000422464 0.000892726 2.14045e-23)
(0.00108526 4.99327e-05 -2.12624e-23)