/*--------------------------------*- C++ -*----------------------------------*\
| =========                 |                                                 |
| \\      /  F ield         | OpenFOAM: The Open Source CFD Toolbox           |
|  \\    /   O peration     | Version:  2412                                  |
|   \\  /    A nd           | Website:  www.openfoam.com                      |
|    \\/     M anipulation  |                                                 |
\*---------------------------------------------------------------------------*/
FoamFile
{
    version     2.0;
    format      ascii;
    arch        "LSB;label=32;scalar=64";
    class       volVectorField;
    location    "28";
    object      vorticity;
}
// * * * * * * * * * * * * * * * * * * * * * * * * * * * * * * * * * * * * * //

dimensions      [0 0 -1 0 0 0 0];

internalField   nonuniform List<vector> 
63420
(
(0 0 5.96164e-06)
(0 0 5.93505e-06)
(0 0 5.90976e-06)
(0 0 5.88616e-06)
(0 0 5.86339e-06)
(0 0 5.8381e-06)
(0 0 5.80905e-06)
(0 0 5.78937e-06)
(0 0 5.82105e-06)
(0 0 5.97929e-06)
(0 0 6.35642e-06)
(0 0 7.02571e-06)
(0 0 7.99827e-06)
(0 0 9.1927e-06)
(0 0 1.04333e-05)
(0 0 1.14801e-05)
(0 0 1.20824e-05)
(0 0 1.20365e-05)
(0 0 1.12322e-05)
(0 0 9.67349e-06)
(0 0 7.47398e-06)
(0 0 4.82892e-06)
(0 0 1.97625e-06)
(0 0 -8.4409e-07)
(0 0 -3.42371e-06)
(0 0 -5.60757e-06)
(0 0 -7.30297e-06)
(0 0 -8.47755e-06)
(0 0 -9.14961e-06)
(0 0 -9.37434e-06)
(0 0 -9.22927e-06)
(0 0 -8.80115e-06)
(0 0 -8.17556e-06)
(0 0 -7.4298e-06)
(0 0 -6.62878e-06)
(0 0 -5.82334e-06)
(0 0 -5.05055e-06)
(0 0 -4.33512e-06)
(0 0 -3.69138e-06)
(0 0 -3.12563e-06)
(0 0 -2.63818e-06)
(0 0 -2.22531e-06)
(0 0 -1.88077e-06)
(0 0 -1.59701e-06)
(0 0 -1.36603e-06)
(0 0 -1.17996e-06)
(0 0 -1.03141e-06)
(0 0 -9.13397e-07)
(0 0 -8.18695e-07)
(0 0 -7.37081e-07)
(0 0 -6.46063e-07)
(0 0 -4.8093e-07)
(0 0 -4.14205e-08)
(0 0 1.29017e-06)
(0 4.39458e-23 5.36788e-06)
(0 0 1.78848e-05)
(0 0 1.7805e-05)
(0 0 1.77286e-05)
(0 0 1.76572e-05)
(0 0 1.75882e-05)
(0 0 1.7512e-05)
(0 0 1.74249e-05)
(0 0 1.73662e-05)
(0 0 1.74611e-05)
(0 0 1.79342e-05)
(0 0 1.90616e-05)
(0 0 2.10625e-05)
(0 0 2.39708e-05)
(0 0 2.75445e-05)
(0 0 3.12595e-05)
(0 0 3.43998e-05)
(0 0 3.6216e-05)
(0 0 3.60994e-05)
(0 0 3.37187e-05)
(0 0 2.90846e-05)
(0 0 2.25339e-05)
(0 0 1.46481e-05)
(0 0 6.13636e-06)
(0 0 -2.28538e-06)
(0 0 -9.99491e-06)
(0 0 -1.65287e-05)
(0 0 -2.16089e-05)
(0 0 -2.51377e-05)
(0 0 -2.71683e-05)
(0 0 -2.78643e-05)
(0 0 -2.74559e-05)
(0 0 -2.62011e-05)
(0 0 -2.4355e-05)
(0 0 -2.21478e-05)
(0 0 -1.97732e-05)
(0 0 -1.73827e-05)
(0 0 -1.50873e-05)
(0 0 -1.29607e-05)
(0 0 -1.10461e-05)
(0 0 -9.3626e-06)
(0 0 -7.91133e-06)
(0 0 -6.68145e-06)
(0 0 -5.65455e-06)
(0 0 -4.80823e-06)
(0 0 -4.11878e-06)
(0 0 -3.56285e-06)
(0 0 -3.11843e-06)
(0 0 -2.76482e-06)
(0 0 -2.48063e-06)
(0 0 -2.23587e-06)
(0 0 -1.96504e-06)
(0 0 -1.48019e-06)
(0 0 -1.99459e-07)
(0 0 3.6743e-06)
(0 4.4416e-23 1.55447e-05)
(0 0 2.97957e-05)
(0 0 2.96627e-05)
(0 0 2.95353e-05)
(0 0 2.94159e-05)
(0 0 2.93007e-05)
(0 0 2.91737e-05)
(0 0 2.90288e-05)
(0 0 2.89309e-05)
(0 0 2.90878e-05)
(0 0 2.98724e-05)
(0 0 3.17436e-05)
(0 0 3.50674e-05)
(0 0 3.99033e-05)
(0 0 4.5853e-05)
(0 0 5.20497e-05)
(0 0 5.73068e-05)
(0 0 6.03797e-05)
(0 0 6.0255e-05)
(0 0 5.63778e-05)
(0 0 4.87597e-05)
(0 0 3.79532e-05)
(0 0 2.4918e-05)
(0 0 1.08272e-05)
(0 0 -3.13295e-06)
(0 0 -1.59298e-05)
(0 0 -2.67925e-05)
(0 0 -3.5257e-05)
(0 0 -4.11577e-05)
(0 0 -4.45791e-05)
(0 0 -4.57892e-05)
(0 0 -4.51672e-05)
(0 0 -4.31389e-05)
(0 0 -4.01257e-05)
(0 0 -3.65087e-05)
(0 0 -3.26085e-05)
(0 0 -2.86767e-05)
(0 0 -2.48973e-05)
(0 0 -2.13932e-05)
(0 0 -1.82366e-05)
(0 0 -1.54596e-05)
(0 0 -1.30647e-05)
(0 0 -1.10344e-05)
(0 0 -9.33865e-06)
(0 0 -7.94076e-06)
(0 0 -6.80173e-06)
(0 0 -5.88314e-06)
(0 0 -5.14876e-06)
(0 0 -4.56456e-06)
(0 0 -4.09571e-06)
(0 0 -3.69424e-06)
(0 0 -3.25745e-06)
(0 0 -2.49261e-06)
(0 0 -4.92571e-07)
(0 0 5.55389e-06)
(0 2.62051e-22 2.41325e-05)
(0 0 4.16863e-05)
(0 0 4.15e-05)
(0 0 4.13214e-05)
(0 0 4.1154e-05)
(0 0 4.09927e-05)
(0 0 4.08152e-05)
(0 0 4.06128e-05)
(0 0 4.04756e-05)
(0 0 4.06924e-05)
(0 0 4.17827e-05)
(0 0 4.43872e-05)
(0 0 4.90199e-05)
(0 0 5.577e-05)
(0 0 6.40905e-05)
(0 0 7.2781e-05)
(0 0 8.01927e-05)
(0 0 8.45919e-05)
(0 0 8.45611e-05)
(0 0 7.93173e-05)
(0 0 6.88638e-05)
(0 0 5.39568e-05)
(0 0 3.59208e-05)
(0 0 1.63812e-05)
(0 0 -3.01482e-06)
(0 0 -2.08297e-05)
(0 0 -3.59868e-05)
(0 0 -4.78348e-05)
(0 0 -5.61358e-05)
(0 0 -6.10003e-05)
(0 0 -6.27943e-05)
(0 0 -6.20395e-05)
(0 0 -5.93239e-05)
(0 0 -5.52306e-05)
(0 0 -5.02878e-05)
(0 0 -4.49404e-05)
(0 0 -3.95386e-05)
(0 0 -3.43384e-05)
(0 0 -2.9512e-05)
(0 0 -2.51604e-05)
(0 0 -2.13296e-05)
(0 0 -1.80241e-05)
(0 0 -1.52207e-05)
(0 0 -1.28785e-05)
(0 0 -1.09473e-05)
(0 0 -9.37349e-06)
(0 0 -8.10432e-06)
(0 0 -7.0899e-06)
(0 0 -6.28355e-06)
(0 0 -5.63808e-06)
(0 0 -5.09048e-06)
(0 0 -4.51009e-06)
(0 0 -3.52921e-06)
(0 0 -1.00765e-06)
(0 0 6.60927e-06)
(0 -1.72019e-22 3.01318e-05)
(0 0 5.3549e-05)
(0 0 5.3309e-05)
(0 0 5.30788e-05)
(0 0 5.28633e-05)
(0 0 5.2656e-05)
(0 0 5.24283e-05)
(0 0 5.2169e-05)
(0 0 5.19923e-05)
(0 0 5.22664e-05)
(0 0 5.36545e-05)
(0 0 5.69781e-05)
(0 0 6.29005e-05)
(0 0 7.15462e-05)
(0 0 8.22294e-05)
(0 0 9.34285e-05)
(0 0 0.000103045)
(0 0 0.000108862)
(0 0 0.000109061)
(0 0 0.000102624)
(0 0 8.95343e-05)
(0 0 7.07352e-05)
(0 0 4.78986e-05)
(0 0 2.30857e-05)
(0 0 -1.60738e-06)
(0 0 -2.43458e-05)
(0 0 -4.375e-05)
(0 0 -5.89792e-05)
(0 0 -6.97178e-05)
(0 0 -7.60947e-05)
(0 0 -7.85653e-05)
(0 0 -7.77856e-05)
(0 0 -7.44981e-05)
(0 0 -6.9441e-05)
(0 0 -6.32847e-05)
(0 0 -5.65951e-05)
(0 0 -4.98183e-05)
(0 0 -4.32819e-05)
(0 0 -3.72063e-05)
(0 0 -3.17225e-05)
(0 0 -2.68904e-05)
(0 0 -2.27181e-05)
(0 0 -1.91773e-05)
(0 0 -1.62177e-05)
(0 0 -1.37765e-05)
(0 0 -1.17866e-05)
(0 0 -1.01817e-05)
(0 0 -8.89906e-06)
(0 0 -7.88023e-06)
(0 0 -7.06701e-06)
(0 0 -6.38505e-06)
(0 0 -5.68757e-06)
(0 0 -4.57152e-06)
(0 0 -1.78975e-06)
(0 0 6.58159e-06)
(0 8.49175e-23 3.26504e-05)
(0 0 6.53773e-05)
(0 0 6.50812e-05)
(0 0 6.47991e-05)
(0 0 6.45356e-05)
(0 0 6.42825e-05)
(0 0 6.40051e-05)
(0 0 6.36895e-05)
(0 0 6.34732e-05)
(0 0 6.3801e-05)
(0 0 6.54776e-05)
(0 0 6.95029e-05)
(0 0 7.6691e-05)
(0 0 8.7209e-05)
(0 0 0.000100244)
(0 0 0.000113969)
(0 0 0.000125849)
(0 0 0.000133196)
(0 0 0.000133789)
(0 0 0.00012637)
(0 0 0.000110886)
(0 0 8.84491e-05)
(0 0 6.10559e-05)
(0 0 3.11844e-05)
(0 0 1.36396e-06)
(0 0 -2.61824e-05)
(0 0 -4.97752e-05)
(0 0 -6.83817e-05)
(0 0 -8.16025e-05)
(0 0 -8.95755e-05)
(0 0 -9.28351e-05)
(0 0 -9.21614e-05)
(0 0 -8.84418e-05)
(0 0 -8.2562e-05)
(0 0 -7.53286e-05)
(0 0 -6.7424e-05)
(0 0 -5.93877e-05)
(0 0 -5.16171e-05)
(0 0 -4.43811e-05)
(0 0 -3.78405e-05)
(0 0 -3.20706e-05)
(0 0 -2.70837e-05)
(0 0 -2.28483e-05)
(0 0 -1.93057e-05)
(0 0 -1.63821e-05)
(0 0 -1.39978e-05)
(0 0 -1.20742e-05)
(0 0 -1.05366e-05)
(0 0 -9.31573e-06)
(0 0 -8.34406e-06)
(0 0 -7.53975e-06)
(0 0 -6.75309e-06)
(0 0 -5.59176e-06)
(0 0 -2.85825e-06)
(0 0 5.25144e-06)
(0 4.19001e-22 3.08436e-05)
(0 0 7.71624e-05)
(0 0 7.68076e-05)
(0 0 7.64738e-05)
(0 0 7.61626e-05)
(0 0 7.5864e-05)
(0 0 7.55375e-05)
(0 0 7.51664e-05)
(0 0 7.49103e-05)
(0 0 7.52882e-05)
(0 0 7.72422e-05)
(0 0 8.19488e-05)
(0 0 9.03748e-05)
(0 0 0.000102738)
(0 0 0.000118111)
(0 0 0.00013438)
(0 0 0.000148589)
(0 0 0.00015759)
(0 0 0.000158763)
(0 0 0.000150602)
(0 0 0.000133001)
(0 0 0.000107217)
(0 0 7.55468e-05)
(0 0 4.08634e-05)
(0 0 6.1118e-06)
(0 0 -2.61079e-05)
(0 0 -5.382e-05)
(0 0 -7.57975e-05)
(0 0 -9.15496e-05)
(0 0 -0.000101213)
(0 0 -0.000105389)
(0 0 -0.000104969)
(0 0 -0.000100977)
(0 0 -9.44354e-05)
(0 0 -8.62804e-05)
(0 0 -7.73061e-05)
(0 0 -6.81422e-05)
(0 0 -5.92544e-05)
(0 0 -5.09594e-05)
(0 0 -4.34484e-05)
(0 0 -3.68132e-05)
(0 0 -3.10718e-05)
(0 0 -2.61908e-05)
(0 0 -2.21048e-05)
(0 0 -1.87302e-05)
(0 0 -1.59765e-05)
(0 0 -1.37536e-05)
(0 0 -1.19762e-05)
(0 0 -1.05654e-05)
(0 0 -9.44556e-06)
(0 0 -8.53104e-06)
(0 0 -7.68122e-06)
(0 0 -6.55981e-06)
(0 0 -4.19502e-06)
(0 0 2.44884e-06)
(0 -8.19591e-23 2.37636e-05)
(-1.7909e-23 7.91885e-21 3.3457e-06)
(-1.44224e-22 7.78586e-21 2.69328e-06)
(3.13963e-23 -1.92856e-22 1.81334e-06)
(3.95143e-23 -2.32384e-20 6.62601e-07)
(-9.00081e-23 7.93682e-21 -7.94924e-07)
(3.52475e-22 7.79476e-21 -2.58797e-06)
(-7.75484e-22 2.27254e-20 -4.73997e-06)
(3.05055e-22 -2.30881e-20 -7.27146e-06)
(6.13326e-22 -7.42961e-21 -1.02023e-05)
(-8.74406e-22 -3.65419e-24 -1.35533e-05)
(-8.72829e-22 -7.44095e-21 -1.73477e-05)
(7.64298e-22 7.07067e-21 -2.16122e-05)
(5.59019e-22 -5.82138e-20 -2.63775e-05)
(-1.03486e-21 1.24947e-19 -3.16793e-05)
(3.59305e-22 -6.71985e-20 -3.7557e-05)
(-1.19534e-21 -5.06563e-20 -4.40653e-05)
(2.31298e-21 -6.45082e-20 -5.1249e-05)
(-1.81089e-21 7.59534e-21 -5.91981e-05)
(-1.82607e-22 -7.08889e-21 -6.79594e-05)
(6.88495e-23 7.09173e-21 -7.76378e-05)
(-3.06752e-24 -1.25465e-22 -8.83171e-05)
(-6.37943e-23 -6.83838e-21 -0.000100112)
(-1.96322e-21 6.89529e-21 -0.000113152)
(4.10211e-21 1.26119e-23 -0.000127589)
(1.19469e-21 6.69136e-21 -0.000143598)
(-3.19618e-21 -5.18829e-24 -0.000161386)
(4.59649e-21 7.76e-21 -0.000181196)
(-5.41487e-21 1.0073e-19 -0.000203327)
(6.93803e-22 -1.08159e-19 -0.000228148)
(-2.10303e-21 9.87246e-20 -0.000256136)
(2.04922e-21 -9.98386e-20 -0.000287933)
(4.73043e-23 1.30806e-21 -0.000324456)
(-6.15023e-23 -1.60409e-21 -0.000367084)
(2.73757e-21 -9.4311e-20 -0.000417996)
(-8.45647e-21 9.15173e-20 -0.000480778)
(-3.04458e-22 -1.50778e-21 -0.000561469)
(6.0374e-21 1.32044e-23 -0.000670342)
(6.55535e-21 1.43372e-23 -0.000824829)
(-6.53438e-21 -1.42913e-23 -0.00105411)
(-2.16384e-22 -4.73254e-25 -0.00140598)
(-2.25426e-22 -4.93028e-25 -0.0019564)
(-7.7479e-21 -1.69454e-23 -0.00282181)
(7.47886e-21 1.6357e-23 -0.00417295)
(-2.46604e-22 1.46578e-22 -0.00624753)
(-3.50469e-23 7.57937e-21 -0.00935623)
(-2.38876e-20 4.89775e-20 -0.0138742)
(2.3009e-20 -6.45586e-20 -0.0202067)
(-5.39947e-21 -9.11577e-21 -0.0287156)
(5.93364e-21 2.50255e-20 -0.0396032)
(-1.96813e-20 -5.49434e-21 -0.0526766)
(-2.5442e-22 7.92876e-21 9.84451e-06)
(-1.05987e-22 1.55962e-20 7.82125e-06)
(2.90607e-22 7.58367e-21 5.05902e-06)
(-8.4696e-22 -7.79875e-21 1.4304e-06)
(1.57411e-21 7.43957e-21 -3.16626e-06)
(-4.73165e-22 -5.32465e-20 -8.81034e-06)
(-2.38301e-22 8.45359e-20 -1.5567e-05)
(-5.38626e-23 -8.78661e-21 -2.34954e-05)
(2.14868e-21 -9.73223e-20 -3.26552e-05)
(-2.24683e-21 1.37374e-19 -4.31113e-05)
(-8.48561e-22 1.25523e-19 -5.49377e-05)
(6.29773e-22 -1.12898e-19 -6.82202e-05)
(-3.82723e-22 7.17157e-22 -8.30581e-05)
(2.73218e-21 -7.18963e-21 -9.95659e-05)
(-2.1357e-21 2.38758e-20 -0.000117879)
(-5.91921e-21 2.37315e-19 -0.000138152)
(1.67963e-21 -2.23107e-19 -0.000160598)
(-5.54862e-21 2.39079e-19 -0.000185376)
(-2.99027e-22 1.93648e-20 -0.000212758)
(-3.74152e-21 -7.24721e-21 -0.000242984)
(3.95728e-21 1.41576e-22 -0.000276377)
(-3.97254e-21 8.98329e-21 -0.000313303)
(8.83702e-22 2.07411e-19 -0.000354178)
(6.00922e-21 -4.39028e-19 -0.000399481)
(4.53571e-21 -2.09637e-19 -0.000449773)
(-7.08717e-21 4.24446e-19 -0.000505713)
(3.8361e-21 -4.22952e-19 -0.000568079)
(-2.21231e-21 4.33941e-19 -0.000637817)
(3.20235e-21 1.46204e-21 -0.000716096)
(-3.63025e-21 -9.51349e-23 -0.000804416)
(-1.21953e-21 -2.66722e-24 -0.000904789)
(0 0 -0.00102006)
(1.80136e-22 9.34608e-23 -0.00115448)
(1.07594e-20 1.20798e-20 -0.00131474)
(-1.57814e-20 3.53039e-19 -0.00151179)
(-1.53718e-20 -2.39023e-20 -0.00176403)
(1.85539e-20 -3.47974e-19 -0.0021027)
(2.63277e-20 -3.00262e-19 -0.00258078)
(-9.61422e-21 3.20728e-19 -0.00328686)
(-3.03146e-20 2.12926e-21 -0.00436591)
(2.95324e-20 1.68538e-20 -0.00604816)
(-4.13605e-20 2.27896e-19 -0.0086861)
(2.25537e-20 -2.37046e-19 -0.0127962)
(-1.74608e-20 1.42345e-20 -0.0190966)
(1.93378e-20 7.46788e-21 -0.0285257)
(-5.80876e-20 1.096e-19 -0.0422156)
(5.80055e-20 -1.07286e-19 -0.0613851)
(-8.87243e-20 7.98973e-20 -0.0871031)
(8.56195e-20 -8.92494e-20 -0.119907)
(-1.81854e-20 -6.09868e-22 -0.157889)
(-6.22976e-23 4.6985e-20 1.57919e-05)
(-8.96525e-23 1.48574e-20 1.21521e-05)
(3.92155e-22 -6.1547e-20 7.08704e-06)
(-8.41335e-22 1.22404e-19 4.0029e-07)
(1.84797e-21 -2.6198e-19 -8.04921e-06)
(3.1837e-22 1.24544e-19 -1.8369e-05)
(-2.39165e-21 -8.48128e-22 -3.06526e-05)
(1.53476e-21 -1.69002e-20 -4.49937e-05)
(1.57e-21 -2.55501e-19 -6.14951e-05)
(6.04996e-22 2.43419e-19 -8.0276e-05)
(-8.37508e-22 -1.58924e-21 -0.000101476)
(-4.12231e-21 -1.53336e-23 -0.000125257)
(6.53475e-21 -1.81059e-21 -0.00015181)
(-3.72676e-21 -2.49014e-19 -0.000181354)
(4.93e-21 2.26236e-19 -0.000214143)
(-1.14775e-20 4.49494e-19 -0.000250492)
(-4.72285e-21 -1.18849e-20 -0.000290744)
(-4.93591e-21 4.62385e-19 -0.000335297)
(4.09529e-22 -1.40319e-20 -0.000384558)
(-1.24916e-20 4.4878e-19 -0.00043905)
(1.24248e-20 -4.66055e-19 -0.000499367)
(-9.37901e-21 4.4487e-19 -0.000566198)
(2.73063e-21 -4.62692e-19 -0.000640326)
(5.14755e-21 -9.25546e-21 -0.000722658)
(-2.56426e-21 1.35522e-20 -0.000814248)
(5.46145e-21 -8.75565e-21 -0.000916332)
(-1.90121e-20 4.16506e-19 -0.00103037)
(1.71523e-20 -4.43849e-19 -0.00115813)
(1.86861e-20 -4.12213e-19 -0.00130177)
(-1.54141e-20 4.14053e-19 -0.00146405)
(-1.06431e-21 -5.08178e-21 -0.00164859)
(1.10093e-20 -1.19121e-22 -0.00186048)
(-1.25725e-20 -2.43612e-20 -0.00210721)
(5.36816e-20 -7.5097e-19 -0.0024004)
(1.63149e-20 5.57808e-20 -0.00275894)
(-7.02848e-20 7.06781e-19 -0.00321441)
(3.8768e-21 -1.21092e-20 -0.0038202)
(-1.12348e-20 -4.7309e-21 -0.00466668)
(1.09477e-19 -5.91693e-19 -0.00590479)
(-2.03726e-19 1.16156e-18 -0.00778119)
(2.07627e-19 -1.15307e-18 -0.0106871)
(6.94583e-20 8.3715e-20 -0.0152207)
(-1.54982e-19 5.04107e-19 -0.0222573)
(-1.62013e-19 3.47047e-19 -0.0330138)
(1.53192e-19 -4.11468e-19 -0.0490805)
(-2.16315e-20 1.89702e-20 -0.0723796)
(5.34373e-20 -1.68643e-20 -0.10498)
(1.59885e-19 -9.91623e-20 -0.14865)
(-1.73146e-19 1.55041e-19 -0.204095)
(-2.47624e-20 -3.98549e-20 -0.26372)
(4.15225e-22 -3.099e-20 2.07135e-05)
(-3.65761e-22 1.56649e-20 1.48884e-05)
(6.71274e-22 -1.67411e-22 6.63216e-06)
(-5.93807e-22 -1.54105e-20 -4.24846e-06)
(-9.39577e-22 -1.41536e-21 -1.78726e-05)
(3.43774e-21 -2.4183e-19 -3.43401e-05)
(-4.93519e-21 4.57839e-19 -5.37595e-05)
(2.43025e-21 -2.46459e-19 -7.6262e-05)
(-1.8029e-21 1.48698e-20 -0.000102009)
(4.97222e-21 -2.69813e-19 -0.000131197)
(-5.92475e-21 2.46119e-19 -0.000164061)
(-4.44665e-21 4.69928e-19 -0.000200877)
(1.14074e-20 -9.50524e-19 -0.000241967)
(-1.35879e-20 9.49296e-19 -0.000287701)
(1.7788e-20 -9.44698e-19 -0.000338505)
(-1.19956e-20 9.35981e-19 -0.000394892)
(-1.02087e-20 4.76183e-19 -0.000457456)
(-7.00173e-22 -3.708e-21 -0.000526822)
(4.43914e-21 3.85458e-21 -0.000603714)
(-8.00392e-21 4.38888e-19 -0.000688988)
(-1.41489e-21 -4.60868e-19 -0.000783629)
(1.45766e-20 1.25619e-20 -0.000888781)
(-3.42783e-20 8.8434e-19 -0.00100575)
(2.62335e-20 -8.87175e-19 -0.00113604)
(2.25472e-21 -5.34289e-21 -0.00128141)
(-9.60816e-21 -8.97137e-23 -0.0014439)
(1.46378e-20 -1.33977e-20 -0.00162595)
(-4.75027e-21 1.21815e-22 -0.00183043)
(-5.2103e-21 -6.42906e-23 -0.00206088)
(4.96679e-21 1.92984e-22 -0.00232171)
(-3.7003e-21 1.46459e-21 -0.00261868)
(6.4062e-20 -7.81344e-19 -0.00295965)
(-5.82273e-20 8.03509e-19 -0.00335596)
(-1.58603e-20 2.29107e-22 -0.00382494)
(1.84978e-20 -1.02207e-20 -0.00439431)
(-9.95479e-20 7.15666e-19 -0.00510997)
(1.15736e-19 -7.18786e-19 -0.00604912)
(-2.22987e-20 2.16047e-21 -0.00734201)
(1.5766e-20 -9.20183e-23 -0.0092059)
(3.74728e-20 6.2739e-21 -0.0119955)
(-2.45274e-19 5.34762e-19 -0.0162732)
(3.64597e-19 -1.08346e-18 -0.0228982)
(-1.77963e-19 5.48708e-19 -0.0331284)
(2.56651e-19 -4.18961e-19 -0.0487163)
(-2.48568e-19 4.93495e-19 -0.0719661)
(-5.7595e-19 5.07812e-19 -0.105694)
(1.08625e-18 -1.07589e-18 -0.152976)
(-5.31129e-19 5.43104e-19 -0.216439)
(1.83533e-20 -2.08013e-21 -0.296764)
(4.40951e-21 -3.42101e-20 -0.373309)
(-7.30807e-22 1.57452e-20 2.40062e-05)
(-3.31547e-22 6.03244e-20 1.47728e-05)
(2.11451e-21 -1.83109e-19 1.64952e-06)
(-1.54063e-21 2.45664e-19 -1.5351e-05)
(-1.46646e-22 -1.08759e-19 -3.62336e-05)
(1.24058e-22 -1.45484e-20 -6.10655e-05)
(-4.77653e-22 1.53212e-20 -8.99812e-05)
(2.9752e-21 -1.83302e-22 -0.000123179)
(-2.81204e-21 -1.49752e-20 -0.000160919)
(-5.18174e-21 3.3533e-20 -0.000203521)
(-7.3848e-21 4.77987e-19 -0.000251367)
(1.8647e-20 -4.96752e-19 -0.000304903)
(-2.28923e-20 4.63245e-19 -0.000364649)
(1.9186e-20 -4.81849e-19 -0.000431195)
(-2.9563e-21 3.33929e-21 -0.000505222)
(1.08128e-20 4.67595e-23 -0.000587531)
(4.10901e-21 3.65623e-21 -0.000679054)
(-5.79704e-21 4.49759e-19 -0.000780798)
(2.0559e-20 -4.86643e-19 -0.000893915)
(6.22379e-21 2.66215e-20 -0.00101976)
(-4.64504e-20 9.26716e-19 -0.00115989)
(3.0035e-20 -9.29237e-19 -0.00131613)
(1.0001e-20 2.23762e-20 -0.00149053)
(-1.77725e-20 -2.29707e-22 -0.00168549)
(1.16296e-20 9.49175e-21 -0.0019038)
(-4.0027e-20 8.89356e-19 -0.00214871)
(3.3293e-20 -8.80907e-19 -0.00242406)
(2.79433e-21 9.47685e-21 -0.0027344)
(9.33363e-21 2.69675e-20 -0.00308521)
(-1.13314e-20 -5.41227e-22 -0.0034833)
(1.19234e-21 -1.28859e-20 -0.00393733)
(-3.67675e-20 1.30778e-20 -0.00445883)
(3.45169e-20 1.24523e-20 -0.00506403)
(-3.01983e-21 -2.48853e-20 -0.00577702)
(8.39738e-20 -7.2965e-19 -0.00663557)
(-7.52559e-20 7.52123e-19 -0.00770118)
(2.71193e-19 -1.44519e-18 -0.00907645)
(-2.49207e-19 1.45919e-18 -0.0109336)
(3.07219e-19 -1.36316e-18 -0.0135595)
(6.98888e-20 1.30791e-19 -0.0174229)
(-3.52253e-19 1.29756e-18 -0.0232672)
(-1.18328e-19 -2.17413e-20 -0.0322312)
(1.61097e-20 3.8013e-22 -0.0459875)
(-1.78992e-20 5.50091e-22 -0.066885)
(5.29075e-20 1.62469e-21 -0.0980618)
(2.53942e-20 1.32415e-20 -0.143479)
(-1.10414e-19 4.99434e-21 -0.207719)
(6.2938e-20 4.83755e-21 -0.295058)
(-1.60952e-22 -3.02187e-22 -0.406652)
(3.51963e-20 6.19427e-22 -0.496565)
(-7.79529e-22 7.59234e-20 2.47958e-05)
(1.66087e-21 -4.62848e-20 9.48302e-06)
(-1.61806e-21 -1.63014e-20 -1.147e-05)
(4.84583e-21 -2.2673e-19 -3.75336e-05)
(-2.51266e-21 2.28576e-19 -6.86119e-05)
(2.27876e-21 -2.26115e-19 -0.000104806)
(-1.13984e-20 4.98572e-19 -0.000146353)
(1.22687e-20 -6.98028e-19 -0.000193592)
(-7.97535e-21 4.93477e-19 -0.000246955)
(-6.49414e-21 4.81009e-19 -0.000306957)
(-2.20203e-21 3.94739e-21 -0.000374205)
(2.53473e-20 -9.4462e-19 -0.000449401)
(-2.24107e-20 9.82737e-19 -0.00053335)
(5.70328e-21 -4.62214e-19 -0.000626971)
(1.26345e-20 -4.64372e-19 -0.000731308)
(2.2838e-20 -4.56742e-19 -0.000847572)
(-3.26811e-21 6.41757e-21 -0.000977179)
(3.93136e-20 -9.47054e-19 -0.00112173)
(3.08919e-20 -9.08922e-19 -0.00128298)
(6.5451e-21 2.11579e-20 -0.00146302)
(-2.81158e-20 9.43732e-19 -0.00166426)
(-1.98096e-20 -7.95099e-21 -0.0018895)
(1.20963e-20 8.80765e-21 -0.00214194)
(-5.22368e-20 9.1276e-19 -0.00242529)
(4.28267e-20 -9.27017e-19 -0.00274389)
(7.4216e-20 -8.9003e-19 -0.00310279)
(-7.54296e-20 9.19193e-19 -0.00350795)
(1.48341e-20 -1.97003e-20 -0.0039664)
(6.97033e-20 -8.86174e-19 -0.00448657)
(-9.70278e-20 9.08686e-19 -0.00507873)
(4.3047e-21 1.21383e-20 -0.00575571)
(-2.10697e-19 1.66194e-18 -0.00653414)
(1.91255e-19 -1.72407e-18 -0.00743662)
(4.76242e-20 6.10422e-20 -0.00849558)
(-2.70488e-19 1.57027e-18 -0.00976021)
(2.48661e-19 -1.63715e-18 -0.0113088)
(-3.09773e-20 -3.19478e-21 -0.0132698)
(4.71415e-19 -1.47307e-18 -0.0158574)
(-4.4171e-19 1.52115e-18 -0.0194277)
(-6.47967e-20 -7.10402e-20 -0.0245633)
(6.72381e-19 -1.28203e-18 -0.032193)
(-1.18391e-18 2.64198e-18 -0.0437469)
(-6.29817e-20 -1.5367e-19 -0.061343)
(-8.43591e-20 -1.20779e-19 -0.0879924)
(7.57915e-19 -1.14637e-18 -0.127817)
(3.86258e-20 6.15858e-20 -0.186304)
(-8.47399e-19 7.55911e-19 -0.270592)
(8.30679e-19 -8.31698e-19 -0.389277)
(8.58624e-21 2.83498e-20 -0.548539)
(9.00656e-21 -2.63836e-21 -0.657425)
(6.10728e-22 -1.58004e-20 2.19398e-05)
(1.81519e-21 -1.34864e-19 -5.77638e-06)
(-1.91841e-21 1.21605e-19 -3.8905e-05)
(-1.22859e-21 -1.70863e-20 -7.75397e-05)
(5.53705e-21 -2.25288e-19 -0.000121897)
(-5.13565e-21 2.31636e-19 -0.000172323)
(-6.37413e-21 4.67876e-19 -0.000229262)
(-5.00709e-21 -1.93846e-20 -0.000293256)
(2.15099e-21 -4.59255e-21 -0.000364941)
(1.49315e-20 -4.98762e-19 -0.000445049)
(-1.23084e-20 4.66507e-19 -0.000534417)
(1.89838e-20 -9.86788e-19 -0.000633998)
(-4.78052e-21 4.93139e-19 -0.00074487)
(-3.5646e-21 -1.85149e-20 -0.00086826)
(-4.76672e-21 -2.21238e-20 -0.00100554)
(2.98504e-20 -9.6732e-19 -0.00115824)
(-1.62224e-21 -2.02321e-20 -0.00132815)
(2.88623e-20 -9.85071e-19 -0.00151735)
(-5.29566e-21 -7.71142e-21 -0.00172814)
(-1.68406e-22 1.17483e-22 -0.00196312)
(1.12765e-20 8.31172e-21 -0.00222525)
(-5.45583e-20 9.46613e-19 -0.00251793)
(4.89141e-20 -9.66815e-19 -0.00284503)
(1.25898e-20 8.21772e-21 -0.00321097)
(-8.54382e-21 -1.48067e-20 -0.00362079)
(-6.08307e-21 9.76181e-21 -0.00408024)
(-7.62666e-20 9.12344e-19 -0.0045959)
(1.63642e-19 -1.86068e-18 -0.00517531)
(-7.78614e-20 9.69891e-19 -0.00582718)
(-1.96581e-19 1.79646e-18 -0.00656165)
(-3.03222e-20 -4.57384e-20 -0.00739082)
(2.24538e-21 -2.70516e-20 -0.00832971)
(-6.53696e-20 -5.39937e-20 -0.00939806)
(2.63776e-19 -1.79252e-18 -0.0106238)
(4.01812e-19 -1.65781e-18 -0.0120498)
(-3.59797e-19 1.73967e-18 -0.0137461)
(-3.33574e-20 -5.39626e-20 -0.0158326)
(4.74449e-19 -1.58186e-18 -0.0185178)
(-4.19813e-19 1.6751e-18 -0.022163)
(-6.64636e-19 1.48562e-18 -0.0273832)
(5.66577e-19 -1.56872e-18 -0.0351942)
(7.67021e-20 -1.09329e-20 -0.0472131)
(8.56466e-19 -1.38129e-18 -0.0659091)
(1.15951e-19 1.21543e-19 -0.0948987)
(-9.86191e-19 1.35091e-18 -0.139294)
(-1.58725e-20 -3.86956e-20 -0.206186)
(3.28546e-20 5.16189e-22 -0.305954)
(-3.28615e-20 1.56292e-20 -0.457023)
(-4.96938e-19 5.19447e-19 -0.695115)
(4.881e-19 -5.28814e-19 -0.952327)
(-1.06191e-20 -3.13763e-21 0.00905171)
(-1.05188e-20 -1.45064e-22 0.00505538)
(9.85377e-21 9.64602e-21 0.00168077)
(-6.87687e-21 1.90752e-21 -0.00113282)
(7.39755e-21 -1.13304e-20 -0.00345497)
(6.9163e-23 3.50556e-21 -0.00535853)
(-1.73365e-22 -9.76217e-23 -0.00691233)
(-5.6897e-21 1.24439e-23 -0.00817618)
(5.53215e-21 -1.20994e-23 -0.00919894)
(-1.67556e-22 3.66462e-25 -0.0100193)
(-1.63068e-22 3.56646e-25 -0.0106692)
(4.9464e-21 -1.08183e-23 -0.0111747)
(-4.96229e-21 1.0853e-23 -0.0115563)
(-4.59115e-21 1.00413e-23 -0.0118304)
(2.50995e-22 -1.1217e-21 -0.0120104)
(6.34182e-21 1.31301e-21 -0.0121076)
(-2.02338e-21 9.64732e-22 -0.0121318)
(-8.2238e-23 -1.05551e-21 -0.0120912)
(-3.22207e-23 8.90973e-22 -0.0119933)
(-2.04989e-21 -9.26367e-21 -0.0118445)
(2.09347e-21 8.22049e-21 -0.0116499)
(-1.3276e-21 -1.16198e-20 -0.0114142)
(2.02484e-21 2.16695e-22 -0.011142)
(-2.82153e-21 1.32842e-23 -0.0108383)
(1.85752e-21 1.27975e-21 -0.0105086)
(-6.95813e-22 4.26291e-23 -0.0101574)
(-2.02311e-21 4.42475e-24 -0.00978789)
(9.65139e-22 -2.893e-23 -0.00940348)
(1.46536e-22 2.01375e-21 -0.00900749)
(-4.76478e-23 4.80366e-23 -0.00860296)
(-1.58924e-22 -2.41377e-21 -0.00819276)
(1.28447e-22 2.58319e-21 -0.00777951)
(2.58355e-22 -2.87671e-21 -0.00736567)
(2.10439e-22 2.74196e-20 -0.00695349)
(-6.99242e-22 -2.73993e-20 -0.00654506)
(-6.76292e-22 -2.43011e-20 -0.00614227)
(1.47538e-21 5.29122e-20 -0.00574685)
(-8.16502e-22 -2.89167e-20 -0.00536036)
(-2.40011e-22 -3.98381e-21 -0.00498418)
(2.31414e-22 4.10932e-21 -0.00461951)
(1.1473e-23 2.42233e-24 -0.00426743)
(1.56698e-22 4.46779e-21 -0.00392881)
(-4.97929e-22 -2.34932e-20 -0.00360441)
(4.82867e-22 2.37147e-20 -0.00329478)
(-1.43464e-22 -4.98276e-21 -0.00300037)
(3.10601e-22 1.55667e-20 -0.00272141)
(2.63492e-23 -5.15282e-21 -0.00245794)
(-2.06985e-22 -1.09713e-20 -0.00220969)
(5.80092e-23 5.53379e-21 -0.00197596)
(-1.50935e-22 -5.75887e-21 -0.00175531)
(-1.52475e-20 2.51288e-20 0.0262483)
(2.9854e-20 -1.06281e-20 0.0143419)
(-2.39707e-20 -2.09637e-20 0.00420451)
(8.59568e-21 2.19884e-20 -0.00417513)
(-8.958e-21 -2.15421e-20 -0.0110383)
(-1.26751e-20 6.12512e-21 -0.0166292)
(1.13138e-20 6.89123e-21 -0.0211701)
(1.31771e-20 1.78106e-20 -0.0248482)
(2.02689e-22 -2.9541e-20 -0.0278136)
(-2.29723e-20 6.88249e-21 -0.0301841)
(2.23232e-20 -5.13969e-21 -0.0320546)
(-5.09751e-21 -1.01844e-20 -0.0335015)
(-7.57753e-21 2.57875e-20 -0.034586)
(-8.10231e-21 5.10691e-22 -0.0353565)
(9.25132e-21 -1.55976e-20 -0.0358518)
(8.43875e-21 8.74068e-24 -0.0361053)
(-8.33057e-21 4.81252e-21 -0.0361453)
(-2.69337e-22 -7.69981e-22 -0.0359962)
(1.47916e-23 -1.31799e-22 -0.0356798)
(8.30666e-22 -1.81675e-24 -0.0352149)
(2.43159e-21 3.90465e-23 -0.0346173)
(-2.39616e-21 -3.53907e-21 -0.0339004)
(1.30756e-20 6.84966e-20 -0.0330767)
(-1.48735e-20 -7.08721e-20 -0.0321629)
(1.79719e-20 8.75186e-20 -0.0311721)
(-9.29917e-21 -3.51605e-20 -0.0301195)
(-1.82233e-20 -1.101e-19 -0.0290145)
(7.75605e-21 5.47336e-20 -0.027867)
(1.50078e-21 -9.63221e-22 -0.0266864)
(-2.12885e-21 -4.64707e-21 -0.0254816)
(1.66185e-21 2.40373e-21 -0.0242608)
(-9.45503e-22 -8.39241e-21 -0.0230319)
(9.84474e-21 9.09797e-20 -0.021802)
(-2.1041e-20 -1.95409e-19 -0.0205777)
(9.87995e-21 9.5225e-20 -0.0193651)
(-6.34521e-22 -9.85818e-21 -0.0181698)
(-1.76753e-22 3.52983e-21 -0.0169968)
(4.72185e-23 6.86526e-23 -0.0158508)
(-4.93708e-21 -6.87427e-20 -0.0147356)
(4.21886e-21 6.05668e-20 -0.013655)
(3.52717e-21 6.17402e-20 -0.012612)
(-5.10235e-21 -8.4007e-20 -0.0116092)
(1.62633e-22 4.6412e-21 -0.0106486)
(1.12051e-21 2.47144e-20 -0.00973213)
(-2.44276e-21 -4.44233e-20 -0.00886085)
(-6.00248e-23 -5.15139e-21 -0.00803548)
(-1.65746e-21 -3.75018e-20 -0.00725611)
(-3.65659e-22 -6.04025e-21 -0.00652189)
(4.17149e-22 1.08352e-20 -0.00583054)
(5.20262e-22 1.71038e-20 -0.00517741)
(-1.36091e-20 -1.0876e-21 0.0407007)
(-1.29145e-20 -1.46585e-20 0.0209911)
(3.47917e-20 2.85993e-20 0.00406817)
(-4.33063e-20 -1.24324e-20 -0.0096561)
(1.78258e-20 1.21326e-20 -0.0207141)
(2.79173e-20 2.09616e-20 -0.0296067)
(-1.91939e-20 -6.01031e-20 -0.0367564)
(1.36914e-20 -2.15049e-20 -0.042499)
(-3.28341e-20 3.86835e-20 -0.0470937)
(2.57406e-21 3.35721e-20 -0.0507403)
(2.92731e-20 -5.95573e-20 -0.053593)
(-2.55369e-20 4.35576e-20 -0.0557746)
(7.24004e-21 -1.12582e-20 -0.0573835)
(-3.48342e-21 -9.94821e-21 -0.0584974)
(4.37754e-20 2.07654e-20 -0.0591776)
(-4.92305e-21 3.17015e-20 -0.0594765)
(-3.65978e-20 -3.32732e-20 -0.0594389)
(1.15238e-20 -7.31787e-21 -0.0591036)
(-8.36667e-21 3.11665e-22 -0.058505)
(4.87533e-22 -3.42816e-21 -0.0576732)
(2.55582e-20 6.20751e-20 -0.0566332)
(-2.61871e-20 -5.03155e-20 -0.0554067)
(-2.90744e-20 -8.30708e-20 -0.0540147)
(3.23629e-20 7.84757e-20 -0.0524789)
(-1.68595e-21 6.31047e-21 -0.0508255)
(2.31636e-22 -3.50386e-21 -0.0490747)
(-1.35446e-21 5.60501e-21 -0.0472443)
(-2.65538e-20 -1.32066e-19 -0.0453491)
(3.13325e-20 1.34206e-19 -0.0434042)
(-3.11813e-20 -1.48045e-19 -0.0414234)
(3.33791e-20 1.56769e-19 -0.0394199)
(7.8725e-22 5.89513e-21 -0.0374061)
(3.04714e-20 1.95366e-19 -0.0353932)
(-6.16698e-20 -3.93242e-19 -0.0333918)
(3.35357e-20 2.10397e-19 -0.0314117)
(1.46433e-20 1.2271e-19 -0.0294615)
(-1.31121e-20 -1.07042e-19 -0.0275494)
(-8.45005e-22 -2.63858e-22 -0.0256826)
(8.37252e-23 -1.96317e-22 -0.0238675)
(4.44793e-23 -4.05364e-23 -0.0221097)
(1.34081e-20 1.42863e-19 -0.0204141)
(-1.31657e-20 -1.34096e-19 -0.0187847)
(1.00756e-21 9.49674e-21 -0.0172248)
(-3.63764e-22 -1.04615e-22 -0.0157372)
(5.87198e-21 8.16251e-20 -0.0143237)
(-1.11955e-20 -1.55739e-19 -0.0129853)
(5.62859e-21 8.4306e-20 -0.0117221)
(-3.03154e-21 -4.45789e-20 -0.0105324)
(2.25468e-21 3.30894e-20 -0.00941208)
(5.49249e-22 1.11914e-20 -0.00835223)
(1.98667e-21 2.61993e-20 0.0497955)
(8.43642e-21 -5.35613e-20 0.0225269)
(-7.15349e-20 1.59503e-20 -0.0010395)
(1.18633e-19 8.15403e-20 -0.0195675)
(-3.1414e-20 -1.10912e-19 -0.0341137)
(-1.7543e-20 2.13888e-20 -0.0455781)
(2.68812e-21 2.05056e-20 -0.0546532)
(-1.56856e-20 -1.67553e-21 -0.0618504)
(-8.91534e-21 2.2284e-20 -0.0675392)
(6.41542e-20 -3.37088e-20 -0.0719976)
(-2.71379e-20 1.27256e-20 -0.0754341)
(-1.36753e-20 5.97978e-22 -0.0780107)
(1.97988e-20 1.04812e-20 -0.079853)
(-6.16087e-20 -4.8174e-20 -0.0810604)
(4.50993e-20 2.6231e-20 -0.0817134)
(-1.15914e-20 1.22492e-20 -0.0818789)
(1.04366e-20 -9.12644e-21 -0.0816143)
(5.90965e-20 1.03997e-19 -0.0809693)
(-6.39701e-20 -8.65213e-20 -0.079988)
(1.1436e-21 -1.06848e-20 -0.0787087)
(-3.29211e-21 -1.07609e-22 -0.0771658)
(3.30362e-21 4.91394e-22 -0.0753854)
(2.80115e-21 -1.05252e-22 -0.0733961)
(-7.58775e-21 3.4168e-21 -0.0712246)
(6.08454e-21 4.54486e-22 -0.0689038)
(3.26587e-22 7.91397e-21 -0.0664618)
(-8.59537e-20 -2.81559e-19 -0.0639233)
(8.84823e-20 2.69631e-19 -0.0613059)
(-6.57845e-21 5.86313e-21 -0.0586291)
(-3.81994e-20 -1.71793e-19 -0.055911)
(4.41374e-20 1.74839e-19 -0.0531687)
(-1.5244e-21 1.60045e-21 -0.0504182)
(-1.40943e-22 5.56095e-22 -0.0476743)
(-4.2451e-20 -2.24377e-19 -0.0449507)
(8.67201e-20 4.51549e-19 -0.0422601)
(-8.54779e-20 -4.65983e-19 -0.0396139)
(8.40388e-20 4.88652e-19 -0.0370226)
(-8.20412e-20 -5.10154e-19 -0.0344955)
(4.03457e-20 2.59745e-19 -0.0320409)
(1.98658e-20 1.41549e-19 -0.029666)
(-1.7239e-20 -1.23059e-19 -0.0273772)
(-1.28366e-21 -9.5266e-21 -0.0251796)
(-1.77508e-20 -1.5599e-19 -0.0230775)
(3.77835e-20 3.37219e-19 -0.0210742)
(-1.77572e-20 -1.61374e-19 -0.019172)
(2.37549e-22 2.18485e-22 -0.0173722)
(8.27981e-22 1.07138e-20 -0.0156745)
(-2.16854e-22 -1.63593e-22 -0.0140766)
(-8.03953e-22 -1.12333e-20 -0.0125721)
(1.78128e-21 2.31472e-20 -0.0111462)
(2.6704e-20 9.34545e-23 0.0499421)
(3.13405e-22 3.91005e-22 0.0153952)
(-6.03646e-20 4.55194e-22 -0.0141916)
(8.94926e-20 -2.47986e-22 -0.0363668)
(-2.68213e-20 1.02277e-22 -0.0531333)
(-4.31298e-20 -7.92215e-22 -0.0659733)
(1.38803e-20 5.48202e-24 -0.0759177)
(-1.16338e-20 1.12841e-23 -0.0836667)
(9.40959e-20 -2.57297e-20 -0.0896839)
(1.81935e-21 6.59885e-20 -0.0943025)
(-4.41288e-21 6.70109e-20 -0.0977731)
(-2.53537e-20 -1.09036e-19 -0.100278)
(6.70438e-20 1.26928e-19 -0.101957)
(-8.60423e-20 -1.17419e-19 -0.102923)
(3.21686e-20 7.96908e-20 -0.103266)
(-4.3743e-20 -8.41575e-20 -0.103063)
(5.03405e-21 -8.24433e-21 -0.102375)
(-2.91813e-20 -1.26764e-21 -0.10126)
(2.68118e-20 -3.03579e-21 -0.0997659)
(1.24224e-21 2.10064e-21 -0.0979378)
(7.96682e-21 3.01713e-22 -0.0958133)