/*--------------------------------*- C++ -*----------------------------------*\
| =========                 |                                                 |
| \\      /  F ield         | OpenFOAM: The Open Source CFD Toolbox           |
|  \\    /   O peration     | Version:  2412                                  |
|   \\  /    A nd           | Website:  www.openfoam.com                      |
|    \\/     M anipulation  |                                                 |
\*---------------------------------------------------------------------------*/
FoamFile
{
    version     2.0;
    format      ascii;
    arch        "LSB;label=32;scalar=64";
    class       volScalarField;
    location    "8.5";
    object      p;
}
// * * * * * * * * * * * * * * * * * * * * * * * * * * * * * * * * * * * * * //

dimensions      [0 2 -2 0 0 0 0];

internalField   nonuniform List<scalar> 
5285
(
-2.79761e-05
-2.6721e-05
-2.54956e-05
-2.42977e-05
-2.31281e-05
-2.19884e-05
-2.08793e-05
-1.98014e-05
-1.87553e-05
-1.77415e-05
-1.67604e-05
-1.58121e-05
-1.48968e-05
-1.40147e-05
-1.31657e-05
-1.23498e-05
-1.15667e-05
-1.08162e-05
-1.0098e-05
-9.41185e-06
-8.75712e-06
-8.13337e-06
-7.53998e-06
-6.97635e-06
-6.44187e-06
-5.93575e-06
-5.45726e-06
-5.00563e-06
-4.58012e-06
-4.17986e-06
-3.80394e-06
-3.45154e-06
-3.12173e-06
-2.81351e-06
-2.52601e-06
-2.25824e-06
-2.00934e-06
-1.77821e-06
-1.56413e-06
-1.36612e-06
-1.18323e-06
-1.01456e-06
-8.59389e-07
-7.16825e-07
-5.85867e-07
-4.66203e-07
-3.55878e-07
-2.56041e-07
-1.62061e-07
-8.12854e-08
5.67991e-09
5.71224e-08
1.68433e-07
1.35932e-07
3.85678e-07
6.81369e-08
8.0952e-07
-3.51167e-07
1.71149e-06
-1.38404e-06
3.25251e-06
-2.87819e-06
4.76158e-06
-3.45387e-06
4.21289e-06
-8.4042e-07
-6.83928e-08
4.99359e-06
-5.68972e-06
9.26635e-06
-6.68114e-06
-2.7968e-05
-2.6713e-05
-2.54878e-05
-2.429e-05
-2.31207e-05
-2.19812e-05
-2.08723e-05
-1.97946e-05
-1.87488e-05
-1.77353e-05
-1.67544e-05
-1.58064e-05
-1.48914e-05
-1.40095e-05
-1.31608e-05
-1.23451e-05
-1.15623e-05
-1.0812e-05
-1.00941e-05
-9.40818e-06
-8.75366e-06
-8.13014e-06
-7.53696e-06
-6.97353e-06
-6.43925e-06
-5.93331e-06
-5.455e-06
-5.00354e-06
-4.57819e-06
-4.17808e-06
-3.8023e-06
-3.45003e-06
-3.12035e-06
-2.81225e-06
-2.52485e-06
-2.25718e-06
-2.00838e-06
-1.77734e-06
-1.56335e-06
-1.36541e-06
-1.18259e-06
-1.01398e-06
-8.5887e-07
-7.16366e-07
-5.85445e-07
-4.65845e-07
-3.5554e-07
-2.55758e-07
-1.61803e-07
-8.10631e-08
5.87023e-09
5.72789e-08
1.68571e-07
1.36066e-07
3.85695e-07
6.8343e-08
8.09328e-07
-3.50804e-07
1.71113e-06
-1.38367e-06
3.25218e-06
-2.87802e-06
4.76162e-06
-3.45428e-06
4.21358e-06
-8.41268e-07
-6.77458e-08
4.99328e-06
-5.68996e-06
9.26685e-06
-6.68483e-06
-2.79519e-05
-2.66971e-05
-2.54722e-05
-2.42748e-05
-2.31058e-05
-2.19668e-05
-2.08583e-05
-1.97812e-05
-1.87359e-05
-1.77228e-05
-1.67424e-05
-1.5795e-05
-1.48805e-05
-1.39992e-05
-1.3151e-05
-1.23358e-05
-1.15535e-05
-1.08037e-05
-1.00863e-05
-9.40083e-06
-8.74678e-06
-8.12368e-06
-7.53092e-06
-6.9679e-06
-6.434e-06
-5.92843e-06
-5.45048e-06
-4.99937e-06
-4.57434e-06
-4.17453e-06
-3.79904e-06
-3.44703e-06
-3.11758e-06
-2.80971e-06
-2.52252e-06
-2.25506e-06
-2.00643e-06
-1.77559e-06
-1.56176e-06
-1.36397e-06
-1.1813e-06
-1.01284e-06
-8.57853e-07
-7.15444e-07
-5.84656e-07
-4.65088e-07
-3.5492e-07
-2.55157e-07
-1.61308e-07
-8.05837e-08
6.22377e-09
5.76685e-08
1.68761e-07
1.36397e-07
3.85664e-07
6.87607e-08
8.09015e-07
-3.50182e-07
1.7105e-06
-1.38291e-06
3.25151e-06
-2.87772e-06
4.76178e-06
-3.45519e-06
4.21494e-06
-8.42926e-07
-6.64008e-08
4.99264e-06
-5.69049e-06
9.26783e-06
-6.69201e-06
-2.79276e-05
-2.66732e-05
-2.54487e-05
-2.42519e-05
-2.30835e-05
-2.19451e-05
-2.08374e-05
-1.9761e-05
-1.87164e-05
-1.77041e-05
-1.67245e-05
-1.57779e-05
-1.48642e-05
-1.39837e-05
-1.31363e-05
-1.23219e-05
-1.15403e-05
-1.07913e-05
-1.00746e-05
-9.38981e-06
-8.73645e-06
-8.11399e-06
-7.52187e-06
-6.95946e-06
-6.42613e-06
-5.92112e-06
-5.44371e-06
-4.99311e-06
-4.56856e-06
-4.16919e-06
-3.79413e-06
-3.44252e-06
-3.11343e-06
-2.8059e-06
-2.51903e-06
-2.25188e-06
-2.00352e-06
-1.77296e-06
-1.55938e-06
-1.36182e-06
-1.17937e-06
-1.01111e-06
-8.56315e-07
-7.14062e-07
-5.83448e-07
-4.63974e-07
-3.53969e-07
-2.54278e-07
-1.60561e-07
-7.98923e-08
6.76184e-09
5.82211e-08
1.69064e-07
1.36881e-07
3.85646e-07
6.93774e-08
8.08554e-07
-3.49248e-07
1.70954e-06
-1.38179e-06
3.25053e-06
-2.87731e-06
4.76208e-06
-3.4566e-06
4.21703e-06
-8.45447e-07
-6.43816e-08
4.99173e-06
-5.6913e-06
9.26933e-06
-6.70241e-06
-2.78952e-05
-2.66413e-05
-2.54175e-05
-2.42213e-05
-2.30538e-05
-2.19163e-05
-2.08095e-05
-1.9734e-05
-1.86905e-05
-1.76792e-05
-1.67007e-05
-1.57551e-05
-1.48425e-05
-1.3963e-05
-1.31167e-05
-1.23033e-05
-1.15227e-05
-1.07747e-05
-1.0059e-05
-9.37514e-06
-8.72268e-06
-8.10109e-06
-7.50981e-06
-6.94821e-06
-6.41565e-06
-5.91138e-06
-5.43468e-06
-4.98476e-06
-4.56085e-06
-4.16207e-06
-3.78758e-06
-3.43649e-06
-3.10789e-06
-2.80083e-06
-2.51439e-06
-2.24764e-06
-1.99965e-06
-1.76947e-06
-1.55621e-06
-1.35895e-06
-1.1768e-06
-1.00881e-06
-8.54259e-07
-7.1222e-07
-5.81823e-07
-4.62502e-07
-3.52691e-07
-2.5312e-07
-1.59565e-07
-7.89877e-08
7.48318e-09
5.89374e-08
1.69481e-07
1.37514e-07
3.8565e-07
7.01767e-08
8.07976e-07
-3.48054e-07
1.70834e-06
-1.38042e-06
3.24943e-06
-2.877e-06
4.76276e-06
-3.45876e-06
4.22008e-06
-8.48939e-07
-6.17215e-08
4.99073e-06
-5.69268e-06
9.27169e-06
-6.71585e-06
-2.78547e-05
-2.66015e-05
-2.53784e-05
-2.41831e-05
-2.30166e-05
-2.18802e-05
-2.07746e-05
-1.97003e-05
-1.8658e-05
-1.76481e-05
-1.66709e-05
-1.57266e-05
-1.48154e-05
-1.39372e-05
-1.30922e-05
-1.22801e-05
-1.15008e-05
-1.0754e-05
-1.00395e-05
-9.35681e-06
-8.70547e-06
-8.08498e-06
-7.49474e-06
-6.93416e-06
-6.40256e-06
-5.89922e-06
-5.4234e-06
-4.97432e-06
-4.5512e-06
-4.15318e-06
-3.77939e-06
-3.42896e-06
-3.10097e-06
-2.79449e-06
-2.50859e-06
-2.24235e-06
-1.99483e-06
-1.7651e-06
-1.55226e-06
-1.35538e-06
-1.17358e-06
-1.00593e-06
-8.51685e-07
-7.09918e-07
-5.79784e-07
-4.6067e-07
-3.51087e-07
-2.51682e-07
-1.5832e-07
-7.78694e-08
8.38588e-09
5.98194e-08
1.70007e-07
1.38302e-07
3.85663e-07
7.11784e-08
8.07248e-07
-3.46545e-07
1.70681e-06
-1.37867e-06
3.24802e-06
-2.87656e-06
4.76356e-06
-3.46142e-06
4.22386e-06
-8.53275e-07
-5.83941e-08
4.98943e-06
-5.69424e-06
9.27443e-06
-6.73121e-06
-2.7806e-05
-2.65536e-05
-2.53314e-05
-2.41373e-05
-2.2972e-05
-2.18369e-05
-2.07327e-05
-1.96599e-05
-1.86192e-05
-1.76108e-05
-1.66352e-05
-1.56925e-05
-1.47828e-05
-1.39063e-05
-1.30628e-05
-1.22522e-05
-1.14745e-05
-1.07292e-05
-1.00161e-05
-9.33483e-06
-8.68484e-06
-8.06566e-06
-7.47668e-06
-6.91731e-06
-6.38686e-06
-5.88463e-06
-5.40987e-06
-4.9618e-06
-4.53963e-06
-4.1425e-06
-3.76957e-06
-3.41993e-06
-3.09268e-06
-2.78689e-06
-2.50164e-06
-2.23601e-06
-1.98906e-06
-1.75986e-06
-1.54752e-06
-1.35109e-06
-1.16973e-06
-1.00247e-06
-8.48595e-07
-7.07157e-07
-5.77332e-07
-4.58478e-07
-3.49159e-07
-2.49963e-07
-1.56831e-07
-7.65337e-08
9.4619e-09
6.08822e-08
1.70612e-07
1.39306e-07
3.85567e-07
7.25982e-08
8.05989e-07
-3.44084e-07
1.70396e-06
-1.37507e-06
3.24427e-06
-2.87344e-06
4.76157e-06
-3.46167e-06
4.22601e-06
-8.5729e-07
-5.38985e-08
4.98553e-06
-5.69211e-06
9.27299e-06
-6.74333e-06
-2.77477e-05
-2.64964e-05
-2.52753e-05
-2.40824e-05
-2.29186e-05
-2.17851e-05
-2.06826e-05
-1.96116e-05
-1.85727e-05
-1.75662e-05
-1.65925e-05
-1.56517e-05
-1.47439e-05
-1.38693e-05
-1.30277e-05
-1.2219e-05
-1.14431e-05
-1.06996e-05
-9.9882e-06
-9.30858e-06
-8.66022e-06
-8.04259e-06
-7.45512e-06
-6.89719e-06
-6.36813e-06
-5.86722e-06
-5.39372e-06
-4.94685e-06
-4.52582e-06
-4.12976e-06
-3.75783e-06
-3.40914e-06
-3.08278e-06
-2.77782e-06
-2.49334e-06
-2.22844e-06
-1.98217e-06
-1.75361e-06
-1.54186e-06
-1.34598e-06
-1.16513e-06
-9.98346e-07
-8.44904e-07
-7.0386e-07
-5.74401e-07
-4.55863e-07
-3.46855e-07
-2.47914e-07
-1.55056e-07
-7.49409e-08
1.07348e-08
6.21676e-08
1.71287e-07
1.40606e-07
3.85258e-07
7.46693e-08
8.03815e-07
-3.40014e-07
1.69875e-06
-1.3681e-06
3.23608e-06
-2.86501e-06
4.75382e-06
-3.45661e-06
4.22428e-06
-8.59955e-07
-4.75516e-08
4.97648e-06
-5.68221e-06
9.26262e-06
-6.7475e-06
-2.76791e-05
-2.64289e-05
-2.52091e-05
-2.40179e-05
-2.28558e-05
-2.17242e-05
-2.06237e-05
-1.95548e-05
-1.85181e-05
-1.75138e-05
-1.65423e-05
-1.56037e-05
-1.46982e-05
-1.38258e-05
-1.29864e-05
-1.21799e-05
-1.14061e-05
-1.06647e-05
-9.95538e-06
-9.27772e-06
-8.63126e-06
-8.01548e-06
-7.42978e-06
-6.87355e-06
-6.34612e-06
-5.84676e-06
-5.37474e-06
-4.92927e-06
-4.50957e-06
-4.11477e-06
-3.74403e-06
-3.39645e-06
-3.07113e-06
-2.76715e-06
-2.48359e-06
-2.21955e-06
-1.97408e-06
-1.74626e-06
-1.53521e-06
-1.33997e-06
-1.15972e-06
-9.93495e-07
-8.40563e-07
-6.99983e-07
-5.70952e-07
-4.52792e-07
-3.44145e-07
-2.45511e-07
-1.52968e-07
-7.30852e-08
1.22526e-08
6.3623e-08
1.72183e-07
1.41935e-07
3.85269e-07
7.6445e-08
8.02376e-07
-3.37016e-07
1.69533e-06
-1.36371e-06
3.23148e-06
-2.86116e-06
4.7513e-06
-3.45689e-06
4.22697e-06
-8.65179e-07
-4.14036e-08
4.97067e-06
-5.67799e-06
9.25899e-06
-6.75914e-06
-2.76013e-05
-2.63525e-05
-2.51343e-05
-2.39448e-05
-2.27848e-05
-2.16553e-05
-2.05571e-05
-1.94906e-05
-1.84563e-05
-1.74545e-05
-1.64855e-05
-1.55495e-05
-1.46466e-05
-1.37767e-05
-1.29398e-05
-1.21358e-05
-1.13644e-05
-1.06253e-05
-9.91831e-06
-9.24288e-06
-8.59857e-06
-7.98487e-06
-7.40117e-06
-6.84686e-06
-6.32126e-06
-5.82365e-06
-5.35331e-06
-4.90943e-06
-4.49123e-06
-4.09785e-06
-3.72845e-06
-3.38213e-06
-3.05799e-06
-2.75511e-06
-2.47259e-06
-2.20951e-06
-1.96494e-06
-1.73797e-06
-1.5277e-06
-1.33319e-06
-1.15362e-06
-9.88016e-07
-8.3566e-07
-6.95604e-07
-5.67055e-07
-4.49326e-07
-3.41083e-07
-2.42803e-07
-1.50609e-07
-7.10012e-08
1.39786e-08
6.52322e-08
1.73255e-07
1.43322e-07
3.85492e-07
7.80925e-08
8.01339e-07
-3.34537e-07
1.69278e-06
-1.36055e-06
3.22852e-06
-2.85937e-06
4.75107e-06
-3.45954e-06
4.23165e-06
-8.71715e-07
-3.49777e-08
4.96569e-06
-5.6754e-06
9.25734e-06
-6.77279e-06
-2.75143e-05
-2.62671e-05
-2.50506e-05
-2.38632e-05
-2.27054e-05
-2.15784e-05
-2.04828e-05
-1.9419e-05
-1.83874e-05
-1.73884e-05
-1.64223e-05
-1.54891e-05
-1.4589e-05
-1.3722e-05
-1.28879e-05
-1.20866e-05
-1.13179e-05
-1.05815e-05
-9.877e-06
-9.20405e-06
-8.56215e-06
-7.95077e-06
-7.3693e-06
-6.81712e-06
-6.29356e-06
-5.79791e-06
-5.32942e-06
-4.88731e-06
-4.47079e-06
-4.079e-06
-3.71109e-06
-3.36617e-06
-3.04334e-06
-2.7417e-06
-2.46033e-06
-2.19833e-06
-1.95477e-06
-1.72874e-06
-1.51934e-06
-1.32564e-06
-1.14682e-06
-9.81912e-07
-8.30197e-07
-6.90725e-07
-5.62712e-07
-4.45466e-07
-3.37672e-07
-2.39789e-07
-1.47983e-07
-6.86865e-08
1.59051e-08
6.70092e-08
1.74472e-07
1.44827e-07
3.85807e-07
7.98311e-08
8.00314e-07
-3.31929e-07
1.69008e-06
-1.35708e-06
3.22512e-06
-2.857e-06
4.75014e-06
-3.46158e-06
4.23593e-06
-8.78356e-07
-2.7764e-08
4.95917e-06
-5.67042e-06
9.25294e-06
-6.78304e-06
-2.74182e-05
-2.61726e-05
-2.49582e-05
-2.37731e-05
-2.26178e-05
-2.14935e-05
-2.04007e-05
-1.93399e-05
-1.83114e-05
-1.73155e-05
-1.63525e-05
-1.54225e-05
-1.45256e-05
-1.36616e-05
-1.28306e-05
-1.20324e-05
-1.12667e-05
-1.05331e-05
-9.83147e-06
-9.16127e-06
-8.52202e-06
-7.91319e-06
-7.33418e-06
-6.78435e-06
-6.26305e-06
-5.76954e-06
-5.30311e-06
-4.86294e-06
-4.44827e-06
-4.05822e-06
-3.69196e-06
-3.34858e-06
-3.02721e-06
-2.72692e-06
-2.44682e-06
-2.18601e-06
-1.94356e-06
-1.71856e-06
-1.51013e-06
-1.31732e-06
-1.13933e-06
-9.75185e-07
-8.24175e-07
-6.85348e-07
-5.57926e-07
-4.41213e-07
-3.33914e-07
-2.36471e-07
-1.45092e-07
-6.61421e-08
1.80305e-08
6.89547e-08
1.75831e-07
1.46455e-07
3.86204e-07
8.16789e-08
7.9927e-07
-3.29138e-07
1.68714e-06
-1.35319e-06
3.2211e-06
-2.85385e-06
4.74826e-06
-3.46275e-06
4.23956e-06
-8.84976e-07
-1.97424e-08
4.9509e-06
-5.66266e-06
9.2453e-06
-6.78868e-06
-2.73127e-05
-2.60691e-05
-2.48569e-05
-2.36744e-05
-2.25219e-05
-2.14006e-05
-2.03109e-05
-1.92534e-05
-1.82282e-05
-1.72358e-05
-1.62762e-05
-1.53497e-05
-1.44562e-05
-1.35957e-05
-1.27681e-05
-1.19731e-05
-1.12107e-05
-1.04803e-05
-9.78174e-06
-9.11453e-06
-8.47818e-06
-7.87214e-06
-7.29582e-06
-6.74856e-06
-6.22971e-06
-5.73855e-06
-5.27436e-06
-4.83632e-06
-4.42367e-06
-4.03553e-06
-3.67107e-06
-3.32938e-06
-3.00959e-06
-2.71078e-06
-2.43208e-06
-2.17256e-06
-1.93133e-06
-1.70746e-06
-1.50007e-06
-1.30824e-06
-1.13115e-06
-9.67839e-07
-8.17598e-07
-6.79475e-07
-5.52697e-07
-4.3657e-07
-3.29811e-07
-2.32851e-07
-1.41936e-07
-6.33689e-08
2.0354e-08
7.10673e-08
1.77333e-07
1.48202e-07
3.8669e-07
8.36194e-08
7.98234e-07
-3.26216e-07
1.68404e-06
-1.34901e-06
3.21664e-06
-2.85014e-06
4.74568e-06
-3.46332e-06
4.24278e-06
-8.91694e-07
-1.09431e-08
4.94108e-06
-5.65239e-06
9.23472e-06
-6.78943e-06
-2.71978e-05
-2.59564e-05
-2.47468e-05
-2.3567e-05
-2.24176e-05
-2.12996e-05
-2.02134e-05
-1.91594e-05
-1.8138e-05
-1.71493e-05
-1.61935e-05
-1.52707e-05
-1.43809e-05
-1.35241e-05
-1.27002e-05
-1.19089e-05
-1.11499e-05
-1.0423e-05
-9.72782e-06
-9.06386e-06
-8.43066e-06
-7.82764e-06
-7.25422e-06
-6.70975e-06
-6.19357e-06
-5.70496e-06
-5.2432e-06
-4.80747e-06
-4.39701e-06
-4.01093e-06
-3.64842e-06
-3.30856e-06
-2.99049e-06
-2.69329e-06
-2.4161e-06
-2.15799e-06
-1.91807e-06
-1.69542e-06
-1.48918e-06
-1.29839e-06
-1.12229e-06
-9.59875e-07
-8.10467e-07
-6.73107e-07
-5.47029e-07
-4.31537e-07
-3.25364e-07
-2.2893e-07
-1.38517e-07
-6.03684e-08
2.28744e-08
7.33462e-08
1.78977e-07
1.50066e-07
3.87266e-07
8.56497e-08
7.97213e-07
-3.23173e-07
1.68081e-06
-1.34455e-06
3.21178e-06
-2.84592e-06
4.74249e-06
-3.46336e-06
4.24566e-06
-8.98557e-07
-1.35903e-09
4.92976e-06
-5.63964e-06
9.22125e-06
-6.78491e-06
-2.70735e-05
-2.58345e-05
-2.46277e-05
-2.34511e-05
-2.2305e-05
-2.11906e-05
-2.01082e-05
-1.90581e-05
-1.80406e-05
-1.70559e-05
-1.61042e-05
-1.51855e-05
-1.42998e-05
-1.3447e-05
-1.2627e-05
-1.18396e-05
-1.10845e-05
-1.03613e-05
-9.66972e-06
-9.00927e-06
-8.37946e-06
-7.7797e-06
-7.20941e-06
-6.66795e-06
-6.15465e-06
-5.66878e-06
-5.20964e-06
-4.77639e-06
-4.36828e-06
-3.98444e-06
-3.62403e-06
-3.28614e-06
-2.96992e-06
-2.67446e-06
-2.39889e-06
-2.1423e-06
-1.90379e-06
-1.68246e-06
-1.47744e-06
-1.28779e-06
-1.11274e-06
-9.51298e-07
-8.02787e-07
-6.66248e-07
-5.40924e-07
-4.26117e-07
-3.20576e-07
-2.2471e-07
-1.34836e-07
-5.71416e-08
2.55904e-08
7.57908e-08
1.80762e-07
1.52047e-07
3.87929e-07
8.77717e-08
7.96201e-07
-3.20004e-07
1.67743e-06
-1.33982e-06
3.20651e-06
-2.8412e-06
4.73867e-06
-3.46288e-06
4.24819e-06
-9.05567e-07
9.023e-09
4.91689e-06
-5.62432e-06
9.2048e-06
-6.77472e-06
-2.69396e-05
-2.57034e-05
-2.44996e-05
-2.33264e-05
-2.2184e-05
-2.10735e-05
-1.99952e-05
-1.89493e-05
-1.79361e-05
-1.69558e-05
-1.60084e-05
-1.50941e-05
-1.42128e-05
-1.33643e-05
-1.25486e-05
-1.17653e-05
-1.10143e-05
-1.02952e-05
-9.60746e-06
-8.95078e-06
-8.32459e-06
-7.72833e-06
-7.16141e-06
-6.62316e-06
-6.11295e-06
-5.63003e-06
-5.17368e-06
-4.7431e-06
-4.33752e-06
-3.95606e-06
-3.5979e-06
-3.26212e-06
-2.94789e-06
-2.65429e-06
-2.38046e-06
-2.12549e-06
-1.8885e-06
-1.66858e-06
-1.46487e-06
-1.27644e-06
-1.10251e-06
-9.42111e-07
-7.94559e-07
-6.58901e-07
-5.34384e-07
-4.20314e-07
-3.1545e-07
-2.20193e-07
-1.30897e-07
-5.36899e-08
2.85007e-08
7.84003e-08
1.82685e-07
1.54147e-07
3.88677e-07
8.99874e-08
7.95194e-07
-3.16703e-07
1.6739e-06
-1.33481e-06
3.20082e-06
-2.83594e-06
4.7342e-06
-3.46186e-06
4.25035e-06
-9.12725e-07
2.02099e-08
4.90247e-06
-5.60638e-06
9.1853e-06
-6.75862e-06
-2.67961e-05
-2.55629e-05
-2.43625e-05
-2.3193e-05
-2.20546e-05
-2.09483e-05
-1.98744e-05
-1.8833e-05
-1.78245e-05
-1.68488e-05
-1.59062e-05
-1.49966e-05
-1.41199e-05
-1.32761e-05
-1.24649e-05
-1.16861e-05
-1.09395e-05
-1.02246e-05
-9.54106e-06
-8.8884e-06
-8.26608e-06
-7.67356e-06
-7.11021e-06
-6.57541e-06
-6.06849e-06
-5.58871e-06
-5.13535e-06
-4.70761e-06
-4.30472e-06
-3.9258e-06
-3.57004e-06
-3.23652e-06
-2.9244e-06
-2.63279e-06
-2.36081e-06
-2.10758e-06
-1.87221e-06
-1.65379e-06
-1.45148e-06
-1.26434e-06
-1.09161e-06
-9.32318e-07
-7.85788e-07
-6.51069e-07
-5.27414e-07
-4.14128e-07
-3.09987e-07
-2.1538e-07
-1.267e-07
-5.00148e-08
3.16037e-08
8.11739e-08
1.84747e-07
1.56364e-07
3.89509e-07
9.22979e-08
7.94188e-07
-3.13268e-07
1.67021e-06
-1.3295e-06
3.19469e-06
-2.83015e-06
4.72907e-06
-3.4603e-06
4.25216e-06
-9.20035e-07
3.22045e-08
4.8865e-06
-5.5858e-06
9.16273e-06
-6.73648e-06
-2.66429e-05
-2.5413e-05
-2.42163e-05
-2.30508e-05
-2.19168e-05
-2.0815e-05
-1.97458e-05
-1.87093e-05
-1.77057e-05
-1.67351e-05
-1.57975e-05
-1.48929e-05
-1.40212e-05
-1.31823e-05
-1.2376e-05
-1.1602e-05
-1.086e-05
-1.01497e-05
-9.47054e-06
-8.82214e-06
-8.20395e-06
-7.61539e-06
-7.05586e-06
-6.52471e-06
-6.02128e-06
-5.54484e-06
-5.09466e-06
-4.66993e-06
-4.2699e-06
-3.89368e-06
-3.54046e-06
-3.20934e-06
-2.89947e-06
-2.60996e-06
-2.33996e-06
-2.08857e-06
-1.85491e-06
-1.63809e-06
-1.43726e-06
-1.25149e-06
-1.08004e-06
-9.21924e-07
-7.76478e-07
-6.42756e-07
-5.20015e-07
-4.07564e-07
-3.0419e-07
-2.10275e-07
-1.22246e-07
-4.61178e-08
3.48978e-08
8.41106e-08
1.86944e-07
1.58698e-07
3.90422e-07
9.47046e-08
7.93179e-07
-3.09694e-07
1.66635e-06
-1.32389e-06
3.18812e-06
-2.82382e-06
4.72329e-06
-3.4582e-06
4.25362e-06
-9.27502e-07
4.50069e-08
4.86897e-06
-5.56256e-06
9.13706e-06
-6.70829e-06
-2.64799e-05
-2.52536e-05
-2.40609e-05
-2.28999e-05
-2.17705e-05
-2.06736e-05
-1.96095e-05
-1.85782e-05
-1.75799e-05
-1.66146e-05
-1.56823e-05
-1.47831e-05
-1.39167e-05
-1.3083e-05
-1.22818e-05
-1.15129e-05
-1.07759e-05
-1.00704e-05
-9.39591e-06
-8.75204e-06
-8.13821e-06
-7.55385e-06
-6.99836e-06
-6.47109e-06
-5.97136e-06
-5.49844e-06
-5.05162e-06
-4.63009e-06
-4.23307e-06
-3.85971e-06
-3.50918e-06
-3.18059e-06
-2.8731e-06
-2.58583e-06
-2.31792e-06
-2.06847e-06
-1.83662e-06
-1.62149e-06
-1.42223e-06
-1.23791e-06
-1.06781e-06
-9.10933e-07
-7.66633e-07
-6.33965e-07
-5.12192e-07
-4.00624e-07
-2.98061e-07
-2.04879e-07
-1.1754e-07
-4.20005e-08
3.83814e-08
8.72092e-08
1.89277e-07
1.61149e-07
3.91414e-07
9.72086e-08
7.92165e-07
-3.05978e-07
1.66231e-06
-1.31797e-06
3.1811e-06
-2.81695e-06
4.71684e-06
-3.45557e-06
4.25472e-06
-9.35132e-07
5.86142e-08
4.84991e-06
-5.53668e-06
9.10832e-06
-6.6741e-06
-2.6307e-05
-2.50847e-05
-2.38964e-05
-2.27401e-05
-2.16157e-05
-2.05241e-05
-1.94654e-05
-1.84396e-05
-1.7447e-05
-1.64873e-05
-1.55607e-05
-1.46671e-05
-1.38063e-05
-1.29782e-05
-1.21825e-05
-1.1419e-05
-1.06872e-05
-9.98673e-06
-9.3172e-06
-8.67811e-06
-8.06889e-06
-7.48897e-06
-6.93774e-06
-6.41455e-06
-5.91873e-06
-5.44953e-06
-5.00625e-06
-4.58808e-06
-4.19425e-06
-3.8239e-06
-3.47621e-06
-3.15029e-06
-2.84532e-06
-2.56039e-06
-2.29468e-06
-2.04728e-06
-1.81735e-06
-1.60399e-06
-1.40639e-06
-1.2236e-06
-1.05491e-06
-8.9935e-07
-7.56257e-07
-6.24701e-07
-5.03947e-07
-3.93311e-07
-2.91604e-07
-1.99194e-07
-1.12581e-07
-3.76648e-08
4.20528e-08
9.04686e-08
1.91743e-07
1.63717e-07
3.92483e-07
9.98112e-08
7.9114e-07
-3.02116e-07
1.65809e-06
-1.31174e-06
3.17362e-06
-2.80954e-06
4.70973e-06
-3.4524e-06
4.25546e-06
-9.42927e-07
7.30209e-08
4.82932e-06
-5.50816e-06
9.07653e-06
-6.63401e-06
-2.61241e-05
-2.49062e-05
-2.37227e-05
-2.25714e-05
-2.14525e-05
-2.03664e-05
-1.93135e-05
-1.82936e-05
-1.73069e-05
-1.63533e-05
-1.54327e-05
-1.45451e-05
-1.36903e-05
-1.2868e-05
-1.20781e-05
-1.13201e-05
-1.05938e-05
-9.89876e-06
-9.23444e-06
-8.60037e-06
-7.99601e-06
-7.42076e-06
-6.87402e-06
-6.35513e-06
-5.86341e-06
-5.39813e-06
-4.95857e-06
-4.54393e-06
-4.15345e-06
-3.78626e-06
-3.44156e-06
-3.11845e-06
-2.81611e-06
-2.53366e-06
-2.27026e-06
-2.02502e-06
-1.7971e-06
-1.58561e-06
-1.38974e-06
-1.20857e-06
-1.04137e-06
-8.8718e-07
-7.45356e-07
-6.14967e-07
-4.95285e-07
-3.85628e-07
-2.84821e-07
-1.93223e-07
-1.07373e-07
-3.31125e-08
4.59102e-08
9.38874e-08
1.9434e-07
1.66401e-07
3.93626e-07
1.02514e-07
7.90101e-07
-2.98103e-07
1.65369e-06
-1.3052e-06
3.16567e-06
-2.80156e-06
4.70195e-06
-3.4487e-06
4.25585e-06
-9.50892e-07
8.82186e-08
4.80723e-06
-5.47705e-06
9.04172e-06
-6.58817e-06
-2.59312e-05
-2.47181e-05
-2.35396e-05
-2.23939e-05
-2.12807e-05
-2.02006e-05
-1.91538e-05
-1.81402e-05
-1.71598e-05
-1.62125e-05
-1.52983e-05
-1.4417e-05
-1.35684e-05
-1.27523e-05
-1.19685e-05
-1.12165e-05
-1.0496e-05
-9.80651e-06
-9.14765e-06
-8.51886e-06
-7.91959e-06
-7.34925e-06
-6.80722e-06
-6.29284e-06
-5.80543e-06
-5.34425e-06
-4.9086e-06
-4.49767e-06
-4.11069e-06
-3.74682e-06
-3.40524e-06
-3.08508e-06
-2.78551e-06
-2.50565e-06
-2.24467e-06
-2.0017e-06
-1.77588e-06
-1.56635e-06
-1.3723e-06
-1.19281e-06
-1.02717e-06
-8.74429e-07
-7.33934e-07
-6.04768e-07
-4.86209e-07
-3.77578e-07
-2.77714e-07
-1.86968e-07
-1.01917e-07
-2.83455e-08
4.99517e-08
9.74644e-08
1.97066e-07
1.69201e-07
3.94842e-07
1.05318e-07
7.89042e-07
-2.93936e-07
1.64909e-06
-1.29832e-06
3.15725e-06
-2.79303e-06
4.69349e-06
-3.44447e-06
4.25589e-06
-9.59028e-07
1.04196e-07
4.78366e-06
-5.44338e-06
9.00394e-06
-6.53673e-06
-2.57282e-05
-2.45202e-05
-2.33473e-05
-2.22074e-05
-2.11003e-05
-2.00266e-05
-1.89863e-05
-1.79793e-05
-1.70056e-05
-1.60651e-05
-1.51575e-05
-1.42829e-05
-1.34409e-05
-1.26313e-05
-1.18537e-05
-1.1108e-05
-1.03935e-05
-9.70998e-06
-9.05685e-06
-8.4336e-06
-7.83967e-06
-7.27447e-06
-6.73737e-06
-6.22771e-06
-5.7448e-06
-5.28792e-06
-4.85635e-06
-4.44929e-06
-4.06599e-06
-3.70558e-06
-3.36727e-06
-3.05019e-06
-2.75352e-06
-2.47637e-06
-2.21793e-06
-1.97732e-06
-1.75371e-06
-1.54622e-06
-1.35407e-06
-1.17635e-06
-1.01234e-06
-8.61102e-07
-7.21996e-07
-5.94108e-07
-4.76723e-07
-3.69165e-07
-2.70287e-07
-1.80432e-07
-9.62166e-08
-2.33659e-08
5.41752e-08
1.01198e-07
1.99921e-07
1.72116e-07
3.96128e-07
1.08224e-07
7.87961e-07
-2.8961e-07
1.64428e-06
-1.29111e-06
3.14833e-06
-2.78393e-06
4.68434e-06
-3.4397e-06
4.25557e-06
-9.67339e-07
1.2094e-07
4.75864e-06
-5.40721e-06
8.96326e-06
-6.47988e-06
-2.5515e-05
-2.43125e-05
-2.31456e-05
-2.20119e-05
-2.09114e-05
-1.98445e-05
-1.88111e-05
-1.78111e-05
-1.68444e-05
-1.59109e-05
-1.50104e-05
-1.41427e-05
-1.33076e-05
-1.25048e-05
-1.17339e-05
-1.09947e-05
-1.02866e-05
-9.60922e-06
-8.96207e-06
-8.34461e-06
-7.75626e-06
-7.19643e-06
-6.66448e-06
-6.15975e-06
-5.68155e-06
-5.22915e-06
-4.80184e-06
-4.39883e-06
-4.01935e-06
-3.66257e-06
-3.32767e-06
-3.01381e-06
-2.72015e-06
-2.44583e-06
-2.19003e-06
-1.95189e-06
-1.73058e-06
-1.52523e-06
-1.33507e-06
-1.15918e-06
-9.9687e-07
-8.47206e-07
-7.09547e-07
-5.82993e-07
-4.66831e-07
-3.60392e-07
-2.62543e-07
-1.73618e-07
-9.02736e-08
-1.81759e-08
5.85787e-08
1.05087e-07
2.02901e-07
1.75146e-07
3.97481e-07
1.11234e-07
7.86851e-07
-2.8512e-07
1.63926e-06
-1.28356e-06
3.13892e-06
-2.77425e-06
4.6745e-06
-3.43441e-06
4.2549e-06
-9.75827e-07
1.38433e-07
4.73219e-06
-5.3686e-06
8.91975e-06
-6.41777e-06
-2.52914e-05
-2.4095e-05
-2.29344e-05
-2.18075e-05
-2.07139e-05
-1.96542e-05
-1.8628e-05
-1.76354e-05
-1.66761e-05
-1.575e-05
-1.48569e-05
-1.39966e-05
-1.31687e-05
-1.2373e-05
-1.16091e-05
-1.08766e-05
-1.01752e-05
-9.50426e-06
-8.86335e-06
-8.25193e-06
-7.66941e-06
-7.11517e-06
-6.58859e-06
-6.08899e-06
-5.61569e-06
-5.16797e-06
-4.7451e-06
-4.3463e-06
-3.97082e-06
-3.6178e-06
-3.28646e-06
-2.97593e-06
-2.68542e-06
-2.41405e-06
-2.161e-06
-1.92543e-06
-1.70651e-06
-1.50339e-06
-1.31528e-06
-1.14131e-06
-9.80773e-07
-8.32745e-07
-6.96593e-07
-5.71425e-07
-4.56537e-07
-3.51263e-07
-2.54484e-07
-1.66527e-07
-8.40907e-08
-1.27777e-08
6.31601e-08
1.09129e-07
2.06006e-07
1.78291e-07
3.98899e-07
1.14349e-07
7.85709e-07
-2.80462e-07
1.63402e-06
-1.27565e-06
3.129e-06
-2.76399e-06
4.66396e-06
-3.42859e-06
4.25387e-06
-9.84494e-07
1.56658e-07
4.70435e-06
-5.32761e-06
8.8735e-06
-6.35059e-06
-2.50576e-05
-2.38676e-05
-2.27139e-05
-2.1594e-05
-2.05079e-05
-1.94556e-05
-1.84372e-05
-1.74523e-05
-1.65008e-05
-1.55825e-05
-1.46971e-05
-1.38444e-05
-1.30241e-05
-1.22358e-05
-1.14792e-05
-1.07539e-05
-1.00593e-05
-9.39512e-06
-8.76072e-06
-8.15559e-06
-7.57912e-06
-7.03071e-06
-6.50972e-06
-6.01546e-06
-5.54726e-06
-5.1044e-06
-4.68615e-06
-4.29173e-06
-3.92039e-06
-3.57128e-06
-3.24364e-06
-2.93659e-06
-2.64934e-06
-2.38103e-06
-2.13085e-06
-1.89794e-06
-1.68151e-06
-1.4807e-06
-1.29474e-06
-1.12276e-06
-9.64055e-07
-8.17725e-07
-6.83137e-07
-5.5941e-07
-4.45844e-07
-3.41781e-07
-2.46114e-07
-1.59164e-07
-7.76707e-08
-7.17386e-09
6.79172e-08
1.13324e-07
2.09232e-07
1.81549e-07
4.00378e-07
1.1757e-07
7.84529e-07
-2.7563e-07
1.62856e-06
-1.26739e-06
3.11856e-06
-2.75314e-06
4.65272e-06
-3.42224e-06
4.25249e-06
-9.93341e-07
1.75592e-07
4.67517e-06
-5.28434e-06
8.8246e-06
-6.27852e-06
-2.48132e-05
-2.36303e-05
-2.24838e-05
-2.13716e-05
-2.02932e-05
-1.9249e-05
-1.82386e-05
-1.72618e-05
-1.63185e-05
-1.54083e-05
-1.45311e-05
-1.36864e-05
-1.28739e-05
-1.20934e-05
-1.13444e-05
-1.06264e-05
-9.93907e-06
-9.28185e-06
-8.65422e-06
-8.05562e-06
-7.48545e-06
-6.94309e-06
-6.42789e-06
-5.93917e-06
-5.47627e-06
-5.03846e-06
-4.62501e-06
-4.23514e-06
-3.86809e-06
-3.52305e-06
-3.19923e-06
-2.8958e-06
-2.61193e-06
-2.3468e-06
-2.09958e-06
-1.86944e-06
-1.65559e-06
-1.45717e-06
-1.27344e-06
-1.10352e-06
-9.46723e-07
-8.02154e-07
-6.69187e-07
-5.46953e-07
-4.34758e-07
-3.31949e-07
-2.37436e-07
-1.51531e-07
-7.10163e-08
-1.36662e-09
7.28478e-08
1.17668e-07
2.12579e-07
1.8492e-07
4.01917e-07
1.20899e-07
7.83306e-07
-2.70619e-07
1.62285e-06
-1.25875e-06
3.10759e-06
-2.74169e-06
4.64077e-06
-3.41537e-06
4.25075e-06
-1.00237e-06
1.95212e-07
4.64468e-06
-5.23886e-06
8.77315e-06
-6.20172e-06
-2.45584e-05
-2.3383e-05
-2.22443e-05
-2.11401e-05
-2.007e-05
-1.90341e-05
-1.80322e-05
-1.7064e-05
-1.61292e-05
-1.52276e-05
-1.43587e-05
-1.35224e-05
-1.27182e-05
-1.19457e-05
-1.12046e-05
-1.04943e-05
-9.81444e-06
-9.16448e-06
-8.54387e-06
-7.95205e-06
-7.38841e-06
-6.85232e-06
-6.34313e-06
-5.86017e-06
-5.40276e-06
-4.97018e-06
-4.56169e-06
-4.17654e-06
-3.81395e-06
-3.47312e-06
-3.15327e-06
-2.85356e-06
-2.57321e-06
-2.31136e-06
-2.06721e-06
-1.83994e-06
-1.62875e-06
-1.43282e-06
-1.25139e-06
-1.0836e-06
-9.28782e-07
-7.86036e-07
-6.54746e-07
-5.34058e-07
-4.23282e-07
-3.21772e-07
-2.28455e-07
-1.43631e-07
-6.41306e-08
4.64146e-09
7.79498e-08
1.22162e-07
2.16043e-07
1.88403e-07
4.03512e-07
1.24336e-07
7.82035e-07
-2.65424e-07
1.61689e-06
-1.24973e-06
3.09607e-06
-2.72963e-06
4.62809e-06
-3.40798e-06
4.24866e-06
-1.01159e-06
2.15493e-07
4.61292e-06
-5.19129e-06
8.71928e-06
-6.12037e-06
-2.42931e-05
-2.31256e-05
-2.19952e-05
-2.08995e-05
-1.98381e-05
-1.88111e-05
-1.78181e-05
-1.68588e-05
-1.5933e-05
-1.50402e-05
-1.41802e-05
-1.33526e-05
-1.25569e-05
-1.17928e-05
-1.10599e-05
-1.03576e-05
-9.68548e-06
-9.04304e-06
-8.42971e-06
-7.84491e-06
-7.28804e-06
-6.75844e-06
-6.25548e-06
-5.77848e-06
-5.32675e-06
-4.89958e-06
-4.49624e-06
-4.11596e-06
-3.75798e-06
-3.4215e-06
-3.10575e-06
-2.80991e-06
-2.53318e-06
-2.27473e-06
-2.03376e-06
-1.80945e-06
-1.60102e-06
-1.40766e-06
-1.22861e-06
-1.06302e-06
-9.10241e-07
-7.69379e-07
-6.39822e-07
-5.20731e-07
-4.11421e-07
-3.11254e-07
-2.19173e-07
-1.35468e-07
-5.70166e-08
1.08479e-08
8.32209e-08
1.26802e-07
2.19623e-07
1.91998e-07
4.0516e-07
1.27884e-07
7.80711e-07
-2.6004e-07
1.61068e-06
-1.24033e-06
3.084e-06
-2.71696e-06
4.6147e-06
-3.40008e-06
4.24622e-06
-1.02099e-06
2.36405e-07
4.57996e-06
-5.14173e-06
8.6631e-06
-6.03463e-06
-2.40171e-05
-2.28582e-05
-2.17365e-05
-2.06499e-05
-1.95976e-05
-1.85799e-05
-1.75963e-05
-1.66464e-05
-1.57299e-05
-1.48464e-05
-1.39955e-05
-1.31769e-05
-1.23901e-05
-1.16347e-05
-1.09103e-05
-1.02163e-05
-9.55222e-06
-8.91758e-06
-8.31178e-06
-7.73425e-06
-7.18437e-06
-6.6615e-06
-6.16497e-06
-5.69412e-06
-5.24827e-06
-4.8267e-06
-4.42867e-06
-4.05342e-06
-3.7002e-06
-3.36823e-06
-3.05671e-06
-2.76486e-06
-2.49187e-06
-2.23692e-06
-1.99923e-06
-1.77798e-06
-1.5724e-06
-1.38169e-06
-1.20509e-06
-1.04178e-06
-8.91107e-07
-7.52188e-07
-6.24419e-07
-5.06977e-07
-3.99179e-07
-3.004e-07
-2.09595e-07
-1.27045e-07
-4.96772e-08
1.725e-08
8.86587e-08
1.31587e-07
2.23317e-07
1.95704e-07
4.06858e-07
1.31543e-07
7.79328e-07
-2.54461e-07
1.6042e-06
-1.23052e-06
3.07136e-06
-2.70367e-06
4.60057e-06
-3.39165e-06
4.24342e-06
-1.03058e-06
2.57919e-07
4.54584e-06
-5.09029e-06
8.60476e-06
-5.94467e-06
-2.37305e-05
-2.25807e-05
-2.14683e-05
-2.03912e-05
-1.93486e-05
-1.83406e-05
-1.73668e-05
-1.64266e-05
-1.55199e-05
-1.4646e-05
-1.38047e-05
-1.29955e-05
-1.22179e-05
-1.14715e-05
-1.07559e-05
-1.00705e-05
-9.41471e-06
-8.78813e-06
-8.19012e-06
-7.6201e-06
-7.07745e-06
-6.56151e-06
-6.07164e-06
-5.60714e-06
-5.16735e-06
-4.75155e-06
-4.359e-06
-3.98895e-06
-3.64064e-06
-3.31331e-06
-3.00616e-06
-2.71842e-06
-2.44928e-06
-2.19795e-06
-1.96364e-06
-1.74555e-06
-1.54291e-06
-1.35493e-06
-1.18086e-06
-1.0199e-06
-8.71388e-07
-7.3447e-07
-6.08544e-07
-4.92801e-07
-3.86563e-07
-2.89214e-07
-1.99726e-07
-1.18366e-07
-4.21157e-08
2.38452e-08
9.42609e-08
1.36516e-07
2.27122e-07
1.99519e-07
4.08604e-07
1.35315e-07
7.7788e-07
-2.48682e-07
1.59745e-06
-1.2203e-06
3.05814e-06
-2.68974e-06
4.5857e-06
-3.38272e-06
4.24027e-06
-1.04036e-06
2.80001e-07
4.51062e-06
-5.0371e-06
8.54441e-06
-5.85067e-06
-2.34332e-05
-2.22931e-05
-2.11906e-05
-2.01234e-05
-1.9091e-05
-1.80932e-05
-1.71296e-05
-1.61996e-05
-1.5303e-05
-1.44392e-05
-1.36078e-05
-1.28083e-05
-1.20403e-05
-1.13032e-05
-1.05967e-05
-9.92014e-06
-9.273e-06
-8.65474e-06
-8.06477e-06
-7.50251e-06
-6.96731e-06
-6.45853e-06
-5.97551e-06
-5.51757e-06
-5.08402e-06
-4.67417e-06
-4.28727e-06
-3.92257e-06
-3.57933e-06
-3.25677e-06
-2.95413e-06
-2.67061e-06
-2.40545e-06
-2.15784e-06
-1.92701e-06
-1.71217e-06
-1.51255e-06
-1.32738e-06
-1.15592e-06
-9.97366e-07
-8.51091e-07
-7.16234e-07
-5.92204e-07
-4.7821e-07
-3.73578e-07
-2.77701e-07
-1.89568e-07
-1.09435e-07
-3.43354e-08
3.06307e-08
1.00025e-07
1.41586e-07
2.31036e-07
2.03443e-07
4.10394e-07
1.39201e-07
7.76363e-07
-2.42696e-07
1.5904e-06
-1.20967e-06
3.04432e-06
-2.67518e-06
4.57008e-06
-3.37329e-06
4.23677e-06
-1.05033e-06
3.02617e-07
4.47437e-06
-4.9823e-06
8.4822e-06
-5.75282e-06
-2.31252e-05
-2.19953e-05
-2.09032e-05
-1.98466e-05
-1.88248e-05
-1.78377e-05
-1.68847e-05
-1.59655e-05
-1.50793e-05
-1.4226e-05
-1.34048e-05
-1.26154e-05
-1.18573e-05
-1.11299e-05
-1.04328e-05
-9.76538e-06
-9.12711e-06