/*--------------------------------*- C++ -*----------------------------------*\
| =========                 |                                                 |
| \\      /  F ield         | OpenFOAM: The Open Source CFD Toolbox           |
|  \\    /   O peration     | Version:  2412                                  |
|   \\  /    A nd           | Website:  www.openfoam.com                      |
|    \\/     M anipulation  |                                                 |
\*---------------------------------------------------------------------------*/
FoamFile
{
    version     2.0;
    format      ascii;
    arch        "LSB;label=32;scalar=64";
    class       volVectorField;
    location    "7";
    object      U;
}
// * * * * * * * * * * * * * * * * * * * * * * * * * * * * * * * * * * * * * //

dimensions      [0 1 -1 0 0 0 0];

internalField   nonuniform List<vector> 
5285
(
(0.100027 -3.06798e-09 0)
(0.0999808 3.20958e-06 0)
(0.099973 1.06703e-05 0)
(0.0998781 1.87472e-05 0)
(0.0997597 2.24971e-05 0)
(0.0996384 2.10534e-05 0)
(0.0995372 1.66045e-05 0)
(0.0994653 1.19007e-05 0)
(0.0994156 8.57196e-06 0)
(0.0993788 6.94716e-06 0)
(0.0993467 6.63985e-06 0)
(0.0993143 7.10098e-06 0)
(0.0992792 7.89927e-06 0)
(0.0992408 8.78255e-06 0)
(0.0991992 9.63809e-06 0)
(0.0991548 1.04345e-05 0)
(0.099108 1.11779e-05 0)
(0.099059 1.18873e-05 0)
(0.0990082 1.25825e-05 0)
(0.0989555 1.32803e-05 0)
(0.0989011 1.39937e-05 0)
(0.0988449 1.47325e-05 0)
(0.0987869 1.55041e-05 0)
(0.0987272 1.63143e-05 0)
(0.0986655 1.71676e-05 0)
(0.0986019 1.80678e-05 0)
(0.0985363 1.90183e-05 0)
(0.0984686 2.0022e-05 0)
(0.0983987 2.1082e-05 0)
(0.0983266 2.22011e-05 0)
(0.0982521 2.33822e-05 0)
(0.0981753 2.46283e-05 0)
(0.0980959 2.59424e-05 0)
(0.098014 2.73277e-05 0)
(0.0979293 2.87875e-05 0)
(0.097842 3.03253e-05 0)
(0.0977517 3.19449e-05 0)
(0.0976586 3.36501e-05 0)
(0.0975624 3.54453e-05 0)
(0.097463 3.73349e-05 0)
(0.0973605 3.93237e-05 0)
(0.0972546 4.14171e-05 0)
(0.0971453 4.36206e-05 0)
(0.0970324 4.59404e-05 0)
(0.0969159 4.8383e-05 0)
(0.0967956 5.09559e-05 0)
(0.0966714 5.36672e-05 0)
(0.0965431 5.65258e-05 0)
(0.0964107 5.95418e-05 0)
(0.096274 6.27264e-05 0)
(0.0961328 6.6092e-05 0)
(0.0959869 6.96526e-05 0)
(0.0958362 7.34253e-05 0)
(0.0956804 7.74389e-05 0)
(0.0955193 8.1758e-05 0)
(0.100027 1.48914e-09 0)
(0.0999807 9.56385e-06 0)
(0.0999736 3.1768e-05 0)
(0.0998803 5.5864e-05 0)
(0.0997637 6.71264e-05 0)
(0.0996436 6.2943e-05 0)
(0.0995429 4.97888e-05 0)
(0.0994705 3.58349e-05 0)
(0.0994201 2.59385e-05 0)
(0.0993824 2.10935e-05 0)
(0.0993495 2.01627e-05 0)
(0.0993164 2.15199e-05 0)
(0.0992809 2.38854e-05 0)
(0.0992421 2.65095e-05 0)
(0.0992003 2.90561e-05 0)
(0.0991558 3.14309e-05 0)
(0.099109 3.36515e-05 0)
(0.09906 3.57731e-05 0)
(0.0990092 3.78542e-05 0)
(0.0989565 3.99443e-05 0)
(0.0989021 4.20819e-05 0)
(0.098846 4.42961e-05 0)
(0.0987881 4.66088e-05 0)
(0.0987284 4.9037e-05 0)
(0.0986668 5.15943e-05 0)
(0.0986033 5.4292e-05 0)
(0.0985378 5.71401e-05 0)
(0.0984701 6.01476e-05 0)
(0.0984004 6.33234e-05 0)
(0.0983283 6.66761e-05 0)
(0.098254 7.02142e-05 0)
(0.0981772 7.39466e-05 0)
(0.098098 7.78824e-05 0)
(0.0980162 8.2031e-05 0)
(0.0979317 8.64026e-05 0)
(0.0978445 9.10074e-05 0)
(0.0977544 9.58568e-05 0)
(0.0976614 0.000100962 0)
(0.0975654 0.000106337 0)
(0.0974662 0.000111994 0)
(0.0973639 0.000117948 0)
(0.0972582 0.000124214 0)
(0.0971491 0.000130809 0)
(0.0970365 0.000137752 0)
(0.0969203 0.000145061 0)
(0.0968002 0.00015276 0)
(0.0966764 0.000160873 0)
(0.0965485 0.000169425 0)
(0.0964164 0.000178447 0)
(0.0962801 0.000187972 0)
(0.0961393 0.000198037 0)
(0.095994 0.000208682 0)
(0.0958438 0.000219959 0)
(0.0956886 0.00023195 0)
(0.0955282 0.000244843 0)
(0.100027 3.59241e-08 0)
(0.0999806 1.57458e-05 0)
(0.0999748 5.22496e-05 0)
(0.0998847 9.20622e-05 0)
(0.0997716 0.000110913 0)
(0.0996539 0.000104379 0)
(0.0995539 8.29811e-05 0)
(0.0994808 6.01178e-05 0)
(0.0994288 4.38126e-05 0)
(0.0993893 3.57575e-05 0)
(0.0993549 3.41291e-05 0)
(0.0993206 3.62799e-05 0)
(0.0992842 4.01142e-05 0)
(0.0992448 4.43983e-05 0)
(0.0992027 4.85752e-05 0)
(0.099158 5.24847e-05 0)
(0.099111 5.61514e-05 0)
(0.099062 5.96633e-05 0)
(0.0990112 6.31143e-05 0)
(0.0989586 6.65848e-05 0)
(0.0989043 7.01372e-05 0)
(0.0988482 7.38189e-05 0)
(0.0987904 7.76658e-05 0)
(0.0987309 8.17056e-05 0)
(0.0986694 8.59606e-05 0)
(0.098606 9.04495e-05 0)
(0.0985407 9.51888e-05 0)
(0.0984732 0.000100193 0)
(0.0984036 0.000105478 0)
(0.0983318 0.000111057 0)
(0.0982577 0.000116943 0)
(0.0981812 0.000123153 0)
(0.0981022 0.000129701 0)
(0.0980206 0.000136602 0)
(0.0979364 0.000143874 0)
(0.0978495 0.000151533 0)
(0.0977597 0.000159598 0)
(0.097667 0.000168089 0)
(0.0975714 0.000177026 0)
(0.0974726 0.000186432 0)
(0.0973707 0.00019633 0)
(0.0972654 0.000206746 0)
(0.0971568 0.000217708 0)
(0.0970447 0.000229246 0)
(0.096929 0.000241392 0)
(0.0968096 0.000254182 0)
(0.0966863 0.000267656 0)
(0.0965591 0.000281857 0)
(0.0964279 0.000296835 0)
(0.0962923 0.000312642 0)
(0.0961525 0.000329338 0)
(0.096008 0.000346989 0)
(0.0958589 0.000365676 0)
(0.095705 0.000385528 0)
(0.0955459 0.000406825 0)
(0.100027 1.18464e-07 0)
(0.0999803 2.16479e-05 0)
(0.0999766 7.17329e-05 0)
(0.099891 0.000126777 0)
(0.0997829 0.000153339 0)
(0.0996688 0.000145085 0)
(0.0995698 0.000116186 0)
(0.0994955 8.49624e-05 0)
(0.0994413 6.25041e-05 0)
(0.0993994 5.12546e-05 0)
(0.0993627 4.88096e-05 0)
(0.0993266 5.15887e-05 0)
(0.099289 5.67331e-05 0)
(0.0992488 6.25472e-05 0)
(0.0992061 6.82563e-05 0)
(0.0991611 7.36296e-05 0)
(0.099114 7.86924e-05 0)
(0.0990649 8.35588e-05 0)
(0.0990141 8.83539e-05 0)
(0.0989616 9.31852e-05 0)
(0.0989074 9.81369e-05 0)
(0.0988515 0.000103273 0)
(0.0987939 0.000108643 0)
(0.0987345 0.000114284 0)
(0.0986733 0.000120226 0)
(0.0986101 0.000126496 0)
(0.098545 0.000133116 0)
(0.0984778 0.000140106 0)
(0.0984085 0.000147488 0)
(0.098337 0.00015528 0)
(0.0982632 0.000163502 0)
(0.098187 0.000172174 0)
(0.0981084 0.000181317 0)
(0.0980272 0.000190954 0)
(0.0979434 0.000201107 0)
(0.0978569 0.000211799 0)
(0.0977676 0.000223057 0)
(0.0976755 0.000234907 0)
(0.0975803 0.000247379 0)
(0.0974822 0.000260503 0)
(0.0973808 0.000274312 0)
(0.0972763 0.000288841 0)
(0.0971683 0.000304128 0)
(0.097057 0.000320214 0)
(0.0969421 0.000337145 0)
(0.0968236 0.000354969 0)
(0.0967013 0.000373739 0)
(0.0965751 0.000393516 0)
(0.0964449 0.000414365 0)
(0.0963106 0.000436359 0)
(0.096172 0.000459577 0)
(0.096029 0.000484107 0)
(0.0958815 0.000510056 0)
(0.0957293 0.000537588 0)
(0.0955721 0.000567067 0)
(0.100027 2.63663e-07 0)
(0.0999801 2.71785e-05 0)
(0.0999788 8.98796e-05 0)
(0.0998989 0.000159517 0)
(0.0997971 0.000193955 0)
(0.0996874 0.000184817 0)
(0.0995897 0.000149407 0)
(0.0995142 0.000110551 0)
(0.0994572 8.22789e-05 0)
(0.0994121 6.78565e-05 0)
(0.0993726 6.44368e-05 0)
(0.0993344 6.7625e-05 0)
(0.0992951 7.38691e-05 0)
(0.0992539 8.10403e-05 0)
(0.0992106 8.8151e-05 0)
(0.0991651 9.48938e-05 0)
(0.0991178 0.000101286 0)
(0.0990687 0.000107459 0)
(0.099018 0.000113563 0)
(0.0989656 0.000119728 0)
(0.0989115 0.000126058 0)
(0.0988559 0.000132631 0)
(0.0987985 0.000139508 0)
(0.0987393 0.000146735 0)
(0.0986784 0.000154351 0)
(0.0986155 0.000162387 0)
(0.0985507 0.000170873 0)
(0.0984839 0.000179834 0)
(0.098415 0.000189296 0)
(0.0983439 0.000199283 0)
(0.0982705 0.000209821 0)
(0.0981947 0.000220935 0)
(0.0981166 0.000232652 0)
(0.0980359 0.000244999 0)
(0.0979527 0.000258006 0)
(0.0978668 0.000271702 0)
(0.0977781 0.00028612 0)
(0.0976866 0.000301295 0)
(0.0975922 0.000317263 0)
(0.0974948 0.000334062 0)
(0.0973943 0.000351734 0)
(0.0972906 0.000370324 0)
(0.0971836 0.000389879 0)
(0.0970733 0.00041045 0)
(0.0969594 0.000432094 0)
(0.0968421 0.000454872 0)
(0.096721 0.00047885 0)
(0.0965962 0.000504102 0)
(0.0964674 0.000530709 0)
(0.0963347 0.000558759 0)
(0.0961979 0.000588349 0)
(0.0960568 0.000619585 0)
(0.0959113 0.000652591 0)
(0.0957614 0.00068756 0)
(0.0956067 0.000724909 0)
(0.100027 4.81145e-07 0)
(0.0999798 3.22639e-05 0)
(0.0999813 0.000106422 0)
(0.0999081 0.000189891 0)
(0.0998134 0.000232403 0)
(0.0997089 0.00022338 0)
(0.0996127 0.000182639 0)
(0.0995357 0.000137021 0)
(0.0994755 0.000103342 0)
(0.0994268 8.57737e-05 0)
(0.0993841 8.11924e-05 0)
(0.0993434 8.45291e-05 0)
(0.0993023 9.16216e-05 0)
(0.0992599 9.99432e-05 0)
(0.0992158 0.000108299 0)
(0.09917 0.000116297 0)
(0.0991225 0.000123937 0)
(0.0990734 0.000131358 0)
(0.0990227 0.000138728 0)
(0.0989704 0.000146195 0)
(0.0989166 0.000153877 0)
(0.0988611 0.000161865 0)
(0.098804 0.000170229 0)
(0.0987452 0.000179024 0)
(0.0986846 0.000188295 0)
(0.0986221 0.000198079 0)
(0.0985578 0.000208412 0)
(0.0984914 0.000219324 0)
(0.0984229 0.000230845 0)
(0.0983523 0.000243005 0)
(0.0982794 0.000255834 0)
(0.0982043 0.000269364 0)
(0.0981267 0.000283625 0)
(0.0980467 0.000298651 0)
(0.0979641 0.000314478 0)
(0.097879 0.00033114 0)
(0.0977911 0.000348678 0)
(0.0977004 0.000367133 0)
(0.0976069 0.000386547 0)
(0.0975104 0.000406967 0)
(0.0974109 0.000428443 0)
(0.0973083 0.000451027 0)
(0.0972025 0.000474776 0)
(0.0970934 0.000499752 0)
(0.0969809 0.00052602 0)
(0.0968649 0.000553651 0)
(0.0967454 0.000582725 0)
(0.0966223 0.000613326 0)
(0.0964953 0.000645548 0)
(0.0963646 0.000679492 0)
(0.0962298 0.000715268 0)
(0.096091 0.000752995 0)
(0.0959481 0.000792808 0)
(0.0958009 0.000834899 0)
(0.0956493 0.000879681 0)
(0.100027 7.88176e-07 0)
(0.0999794 3.68164e-05 0)
(0.099984 0.000121214 0)
(0.0999179 0.000217625 0)
(0.099831 0.000268439 0)
(0.0997321 0.000260632 0)
(0.0996376 0.000215864 0)
(0.0995589 0.000164452 0)
(0.0994954 0.000125821 0)
(0.099443 0.000105142 0)
(0.0993969 9.91957e-05 0)
(0.0993534 0.000102394 0)
(0.0993104 0.000110057 0)
(0.0992667 0.000119299 0)
(0.0992218 0.000128725 0)
(0.0991756 0.000137851 0)
(0.0991278 0.000146646 0)
(0.0990787 0.00015525 0)
(0.0990281 0.000163837 0)
(0.098976 0.000172567 0)
(0.0989224 0.00018157 0)
(0.0988673 0.000190947 0)
(0.0988105 0.000200774 0)
(0.0987521 0.000211114 0)
(0.0986919 0.000222018 0)
(0.0986299 0.000233529 0)
(0.098566 0.000245686 0)
(0.0985001 0.000258524 0)
(0.0984322 0.000272079 0)
(0.0983622 0.000286385 0)
(0.09829 0.000301476 0)
(0.0982155 0.000317389 0)
(0.0981386 0.000334159 0)
(0.0980594 0.000351827 0)
(0.0979776 0.000370431 0)
(0.0978933 0.000390015 0)
(0.0978064 0.000410623 0)
(0.0977167 0.000432302 0)
(0.0976242 0.000455103 0)
(0.0975289 0.000479078 0)
(0.0974306 0.000504286 0)
(0.0973292 0.000530785 0)
(0.0972248 0.000558641 0)
(0.0971172 0.000587924 0)
(0.0970063 0.000618708 0)
(0.096892 0.000651074 0)
(0.0967743 0.00068511 0)
(0.0966531 0.000720911 0)
(0.0965283 0.00075858 0)
(0.0963999 0.000798229 0)
(0.0962676 0.000839976 0)
(0.0961315 0.000883947 0)
(0.0959915 0.000930274 0)
(0.0958475 0.000979127 0)
(0.0956995 0.00103083 0)
(0.095352 8.65689e-05 -4.93469e-24)
(0.0951765 9.16414e-05 -5.02484e-24)
(0.0949913 9.70131e-05 -3.27953e-26)
(0.0947958 0.000102595 1.54177e-23)
(0.0945897 0.00010842 -5.10824e-24)
(0.0943726 0.0001144 -5.24971e-24)
(0.0941444 0.000120445 -1.61442e-23)
(0.0939051 0.000126503 1.60341e-23)
(0.0936547 0.000132566 5.47982e-24)
(0.0933933 0.000138682 0)
(0.0931207 0.000144965 5.65295e-24)
(0.0928366 0.000151598 -5.74621e-24)
(0.09254 0.000158824 4.72169e-23)
(0.0922298 0.00016692 -1.01158e-22)
(0.091904 0.000176179 5.40492e-23)
(0.0915602 0.000186881 4.37384e-23)
(0.0953614 0.000259201 -4.98865e-24)
(0.0951864 0.00027434 -1.01632e-23)
(0.0950017 0.000290328 -5.31487e-24)
(0.0948068 0.000307166 4.96783e-24)
(0.0946013 0.000324647 -5.17557e-24)
(0.0943848 0.000342545 3.70466e-23)
(0.0941573 0.000360652 -5.81796e-23)
(0.0939185 0.00037883 5.39815e-24)
(0.0936686 0.000397054 7.19654e-23)
(0.0934075 0.000415465 -9.93979e-23)
(0.093135 0.000434405 -9.69305e-23)
(0.0928507 0.000454419 8.54118e-23)
(0.0925537 0.00047622 0)
(0.0922428 0.000500637 5.95359e-24)
(0.0919162 0.000528532 -1.81826e-23)
(0.0915715 0.000560735 -2.05992e-22)
(0.0953802 0.000430493 -2.95275e-23)
(0.095206 0.000455654 -1.03336e-23)
(0.0950224 0.000482252 3.99305e-23)
(0.0948287 0.000510229 -8.20222e-23)
(0.0946244 0.000539234 1.75444e-22)
(0.0944092 0.000568949 -8.30817e-23)
(0.0941829 0.000599079 1.45603e-26)
(0.0939453 0.000629407 1.07678e-23)
(0.0936964 0.000659902 1.87542e-22)
(0.093436 0.000690799 -1.7641e-22)
(0.0931638 0.000722661 0)
(0.0928793 0.000756376 1.4933e-26)
(0.0925817 0.000793109 0)
(0.0922698 0.000834203 2.04452e-22)
(0.0919418 0.000881061 -1.80217e-22)
(0.0915955 0.00093503 -3.87969e-22)
(0.0954082 0.00059982 1.94621e-23)
(0.0952354 0.000634778 -9.86854e-24)
(0.0950532 0.0006718 2.00783e-26)
(0.0948612 0.000710595 1.01397e-23)
(0.0946587 0.000750883 -2.0091e-26)
(0.0944455 0.000792267 1.6815e-22)
(0.0942212 0.00083435 -3.17628e-22)
(0.0939855 0.000876855 1.70645e-22)
(0.0937382 0.000919757 -1.09134e-23)
(0.093479 0.000963393 2.01486e-22)
(0.0932075 0.00100854 -1.79213e-22)
(0.0929232 0.0010564 -3.71385e-22)
(0.0926252 0.00110855 7.4961e-22)
(0.0923124 0.0011668 -7.63843e-22)
(0.091983 0.00123305 7.78787e-22)
(0.0916351 0.00130911 -7.8216e-22)
(0.095445 0.000766397 -9.65354e-24)
(0.0952739 0.000810777 -3.93958e-23)
(0.0950937 0.000857773 1.19371e-22)
(0.0949039 0.000907119 -1.61091e-22)
(0.094704 0.000958449 7.09291e-23)
(0.0944934 0.0010113 1.03891e-23)
(0.0942718 0.00106522 -1.05553e-23)
(0.0940388 0.00111989 -2.53386e-26)
(0.0937939 0.00117533 1.09113e-23)
(0.0935367 0.00123198 -2.21789e-23)
(0.0932668 0.0012908 -3.64575e-22)
(0.0929834 0.0013533 3.76251e-22)
(0.0926857 0.00142142 -3.6699e-22)
(0.0923725 0.00149737 3.78844e-22)
(0.0920425 0.00158347 0)
(0.0916937 0.00168195 -2.5008e-26)
(0.0954904 0.000929345 -4.79045e-23)
(0.0953214 0.000982867 2.8816e-23)
(0.0951436 0.00103958 9.84741e-24)
(0.0949567 0.00109921 1.51011e-22)
(0.0947599 0.00116136 -1.51075e-22)
(0.0945527 0.00122553 1.56063e-22)
(0.0943347 0.00129124 -3.46309e-22)
(0.0941052 0.00135819 4.92615e-22)
(0.0938637 0.00142644 -3.44975e-22)
(0.0936096 0.00149653 -3.57351e-22)
(0.0933422 0.00156965 -1.76769e-23)
(0.0930609 0.00164755 7.24909e-22)
(0.0927648 0.00173249 -7.63057e-22)
(0.0924527 0.00182706 3.55793e-22)
(0.0921235 0.00193393 3.83471e-22)
(0.0917754 0.00205567 4.00411e-22)
(0.0955438 0.00108793 9.43822e-24)
(0.0953774 0.00114999 8.68709e-23)
(0.0952028 0.00121584 -7.74684e-23)
(0.0950194 0.0012852 9.93301e-24)
(0.0948265 0.00135768 1.52537e-22)
(0.0946236 0.00143274 -1.52786e-22)
(0.09441 0.00150992 -3.26837e-22)
(0.0941851 0.00158895 5.13859e-24)
(0.0939482 0.00166994 -5.81242e-24)
(0.0936985 0.00175361 3.62454e-22)
(0.0934353 0.00184129 -3.53525e-22)
(0.0931578 0.00193502 7.49914e-22)
(0.0928652 0.00203733 -3.73537e-22)
(0.0925564 0.00215112 1.2061e-23)
(0.0922302 0.00227938 1.23347e-23)
(0.0918855 0.002425 8.15257e-22)
(0.0956059 0.00124468 0)
(0.0954433 0.00131355 0)
(0.0952729 0.00138669 0)
(0.0950941 0.00146385 0)
(0.0949063 0.0015446 0)
(0.0947088 0.00162846 0)
(0.094501 0.00171495 0)
(0.0942822 0.00180384 0)
(0.0940515 0.00189529 0)
(0.0938081 0.00199005 0)
(0.0935513 0.00208957 0)
(0.0932801 0.00219597 0)
(0.0929937 0.00231191 0)
(0.0926912 0.00244044 0)
(0.0923715 0.00258471 0)
(0.0920337 0.00274779 0)
(0.0956774 0.00140132 0)
(0.0955198 0.00147752 0)
(0.0953548 0.00155847 0)
(0.0951818 0.00164397 0)
(0.0950004 0.00173369 0)
(0.0948099 0.00182718 0)
(0.0946095 0.00192405 0)
(0.0943985 0.0020241 0)
(0.094176 0.00212755 0)
(0.0939411 0.00223515 0)
(0.093693 0.00234836 0)
(0.0934308 0.00246925 0)
(0.0931535 0.00260051 0)
(0.0928604 0.00274516 0)
(0.0925507 0.00290641 0)
(0.0922235 0.00308738 0)
(0.095756 0.00155284 0)
(0.0956041 0.00163606 0)
(0.0954452 0.00172448 0)
(0.095279 0.00181797 0)
(0.0951048 0.00191626 0)
(0.0949221 0.00201902 0)
(0.0947302 0.00212593 0)
(0.0945282 0.00223688 0)
(0.0943153 0.00235213 0)
(0.0940905 0.00247246 0)
(0.0938529 0.0025993 0)
(0.0936016 0.00273469 0)
(0.0933358 0.00288124 0)
(0.0930548 0.00304194 0)
(0.0927578 0.00321995 0)
(0.0924443 0.00341843 0)
(0.0958411 0.00169862 0)
(0.0956953 0.00178837 0)
(0.0955431 0.00188369 0)
(0.0953841 0.00198455 0)
(0.0952178 0.00209076 0)
(0.0950436 0.00220209 0)
(0.0948608 0.00231833 0)
(0.0946687 0.00243948 0)
(0.0944664 0.00256584 0)
(0.0942529 0.00269822 0)
(0.0940273 0.00283802 0)
(0.0937887 0.00298721 0)
(0.0935364 0.00314832 0)
(0.0932697 0.00332421 0)
(0.0929881 0.00351798 0)
(0.0926912 0.00373274 0)
(0.095932 0.00183834 0)
(0.0957926 0.00193408 0)
(0.0956474 0.00203574 0)
(0.0954959 0.00214332 0)
(0.0953379 0.00225678 0)
(0.0951726 0.00237596 0)
(0.0949995 0.00250079 0)
(0.0948179 0.00263135 0)
(0.0946269 0.00276802 0)
(0.0944255 0.00291163 0)
(0.094213 0.00306354 0)
(0.0939884 0.00322564 0)
(0.0937512 0.00340031 0)
(0.0935007 0.0035903 0)
(0.0932365 0.00379857 0)
(0.0929585 0.00402811 0)
(0.0960281 0.00197176 0)
(0.0958953 0.00207297 0)
(0.0957573 0.00218037 0)
(0.0956136 0.00229406 0)
(0.095464 0.00241407 0)
(0.0953079 0.00254037 0)
(0.0951449 0.00267299 0)
(0.094974 0.00281211 0)
(0.0947947 0.00295818 0)
(0.0946061 0.00311205 0)
(0.0944074 0.00327504 0)
(0.0941978 0.00344895 0)
(0.0939767 0.00363601 0)
(0.0937437 0.0038388 0)
(0.0934985 0.00406012 0)
(0.093241 0.00430282 0)
(0.0961288 0.00209872 0)
(0.0960029 0.00220486 0)
(0.0958722 0.00231743 0)
(0.0957364 0.0024366 0)
(0.0955954 0.00256246 0)
(0.0954486 0.00269512 0)
(0.0952956 0.00283469 0)
(0.0951358 0.00298145 0)
(0.0949684 0.00313592 0)
(0.0947929 0.00329897 0)
(0.0946083 0.00347186 0)
(0.0944142 0.00365631 0)
(0.09421 0.00385439 0)
(0.0939954 0.00406851 0)
(0.0937701 0.00430127 0)
(0.0935343 0.00455537 0)
(0.0962339 0.00221909 0)
(0.0961148 0.00232964 0)
(0.0959915 0.00244682 0)
(0.0958637 0.00257084 0)
(0.0957313 0.00270189 0)
(0.0955938 0.00284014 0)
(0.0954509 0.00298581 0)
(0.0953021 0.00313927 0)
(0.0951468 0.00330109 0)
(0.0949843 0.00347215 0)
(0.0948142 0.00365368 0)
(0.0946357 0.00384728 0)
(0.0944487 0.0040549 0)
(0.0942528 0.00427874 0)
(0.0940479 0.00452122 0)
(0.0938344 0.00478487 0)
(0.0963427 0.0023328 0)
(0.0962306 0.00244726 0)
(0.0961147 0.0025685 0)
(0.0959949 0.00269678 0)
(0.0958711 0.00283235 0)
(0.095743 0.00297545 0)
(0.0956101 0.00312639 0)
(0.0954723 0.00328561 0)
(0.0953289 0.00345371 0)
(0.0951795 0.0036316 0)
(0.0950236 0.00382045 0)
(0.0948609 0.00402178 0)
(0.094691 0.00423737 0)
(0.0945139 0.00446927 0)
(0.0943296 0.0047197 0)
(0.0941383 0.00499099 0)
(0.096455 0.00243978 0)
(0.0963499 0.00255767 0)
(0.0962414 0.00268245 0)
(0.0961297 0.00281442 0)
(0.0960144 0.00295387 0)
(0.0958955 0.00310111 0)
(0.0957727 0.0032565 0)
(0.0956457 0.00342055 0)
(0.0955141 0.0035939 0)
(0.0953775 0.00377743 0)
(0.0952358 0.0039723 0)
(0.0950885 0.00417991 0)
(0.0949356 0.00440192 0)
(0.0947771 0.0046402 0)
(0.094613 0.0048968 0)
(0.0944439 0.00517383 0)
(0.0965704 0.00254001 0)
(0.0964722 0.00266087 0)
(0.0963713 0.00278869 0)
(0.0962675 0.00292379 0)
(0.0961608 0.00306651 0)
(0.096051 0.00321719 0)
(0.0959381 0.00337626 0)
(0.0958217 0.00354425 0)
(0.0957018 0.00372182 0)
(0.0955779 0.00390987 0)
(0.09545 0.00410947 0)
(0.095318 0.00432196 0)
(0.0951817 0.00454886 0)
(0.0950412 0.00479189 0)
(0.094897 0.0050529 0)
(0.0947495 0.00533384 0)
(0.0966885 0.00263348 0)
(0.0965973 0.00275685 0)
(0.0965038 0.00288722 0)
(0.0964079 0.00302493 0)
(0.0963097 0.00317032 0)
(0.096209 0.00332379 0)
(0.0961058 0.00348579 0)
(0.096 0.00365687 0)
(0.0958915 0.00383771 0)
(0.0957801 0.00402917 0)
(0.0956657 0.00423229 0)
(0.0955484 0.00444831 0)
(0.0954283 0.00467865 0)
(0.0953055 0.00492485 0)
(0.0951805 0.00518862 0)
(0.0950538 0.0054717 0)
(0.0968089 0.00272019 0)
(0.0967246 0.00284565 0)
(0.0966385 0.00297809 0)
(0.0965505 0.00311789 0)
(0.0964607 0.00326539 0)
(0.096369 0.00342102 0)
(0.0962755 0.00358524 0)
(0.0961801 0.0037586 0)
(0.0960827 0.00394179 0)
(0.0959835 0.00413563 0)
(0.0958823 0.00434113 0)
(0.0957794 0.00455943 0)
(0.0956749 0.00479182 0)
(0.0955691 0.00503973 0)
(0.0954626 0.00530467 0)
(0.0953559 0.00558825 0)
(0.0969312 0.00280017 0)
(0.0968538 0.00292728 0)
(0.096775 0.00306136 0)
(0.0966948 0.00320274 0)
(0.0966133 0.00335181 0)
(0.0965305 0.00350899 0)
(0.0964465 0.00367474 0)
(0.0963613 0.00384963 0)
(0.0962749 0.00403431 0)
(0.0961875 0.00422959 0)
(0.0960992 0.00443639 0)
(0.0960102 0.00465578 0)
(0.0959208 0.00488896 0)
(0.0958313 0.00513721 0)
(0.0957425 0.0054019 0)
(0.0956549 0.00568445 0)
(0.097055 0.00287348 0)
(0.0969844 0.00300183 0)
(0.0969129 0.00313708 0)
(0.0968404 0.00327958 0)
(0.0967671 0.00342969 0)
(0.0966931 0.00358784 0)
(0.0966184 0.00375449 0)
(0.0965432 0.00393018 0)
(0.0964675 0.00411555 0)
(0.0963917 0.00431136 0)
(0.0963158 0.00451849 0)
(0.0962402 0.00473791 0)
(0.0961652 0.00497071 0)
(0.0960914 0.00521806 0)
(0.0960194 0.00548118 0)
(0.0959499 0.00576132 0)
(0.0971798 0.00294016 0)
(0.0971161 0.00306936 0)
(0.0970517 0.00320536 0)
(0.0969868 0.00334851 0)
(0.0969216 0.00349917 0)
(0.0968561 0.00365774 0)
(0.0967906 0.00382467 0)
(0.0967251 0.00400049 0)
(0.0966599 0.00418581 0)
(0.0965953 0.00438134 0)
(0.0965314 0.00458789 0)
(0.0964687 0.00480636 0)
(0.0964076 0.00503773 0)
(0.0963487 0.00528306 0)
(0.0962927 0.00554342 0)
(0.0962403 0.00581994 0)
(0.0973054 0.00300033 0)
(0.0972483 0.00312999 0)
(0.097191 0.00326632 0)
(0.0971336 0.00340968 0)
(0.0970763 0.0035604 0)
(0.0970192 0.00371887 0)
(0.0969625 0.00388552 0)
(0.0969066 0.00406085 0)
(0.0968515 0.00424543 0)
(0.0967977 0.00443992 0)
(0.0967453 0.00464507 0)
(0.096695 0.00486171 0)
(0.0966472 0.00509071 0)
(0.0966024 0.00533302 0)
(0.0965615 0.00558959 0)
(0.0965252 0.0058614 0)
(0.0974314 0.00305408 0)
(0.0973808 0.00318383 0)
(0.0973304 0.00332011 0)
(0.0972802 0.00346325 0)
(0.0972306 0.00361357 0)
(0.0971817 0.00377145 0)
(0.0971338 0.00393728 0)
(0.097087 0.00411154 0)
(0.0970417 0.00429475 0)
(0.0969983 0.00448753 0)
(0.096957 0.00469055 0)
(0.0969185 0.00490456 0)
(0.0968832 0.00513036 0)
(0.0968518 0.00536877 0)
(0.0968251 0.00562063 0)
(0.0968039 0.0058868 0)
(0.0975574 0.00310155 0)
(0.0975131 0.00323103 0)
(0.0974694 0.00336689 0)
(0.0974264 0.00350941 0)
(0.0973843 0.00365892 0)
(0.0973433 0.00381574 0)
(0.0973037 0.00398026 0)
(0.0972658 0.00415291 0)
(0.09723 0.00433418 0)
(0.0971965 0.00452462 0)
(0.0971658 0.00472485 0)
(0.0971385 0.00493554 0)
(0.0971151 0.0051574 0)
(0.0970963 0.00539115 0)
(0.0970828 0.00563753 0)
(0.0970757 0.00589725 0)
(0.097683 0.00314289 0)
(0.0976449 0.00327178 0)
(0.0976078 0.00340685 0)
(0.0975716 0.00354838 0)
(0.0975368 0.00369667 0)
(0.0975035 0.00385202 0)
(0.097472 0.00401477 0)
(0.0974426 0.00418533 0)
(0.0974157 0.00436414 0)
(0.0973917 0.00455169 0)
(0.0973711 0.00474855 0)
(0.0973544 0.00495531 0)
(0.0973421 0.00517259 0)
(0.0973351 0.00540102 0)
(0.0973341 0.00564124 0)
(0.0973399 0.00589385 0)
(0.0978079 0.00317827 0)
(0.0977759 0.00330625 0)
(0.0977451 0.00344021 0)
(0.0977156 0.00358041 0)
(0.0976877 0.0037271 0)
(0.0976618 0.00388058 0)
(0.097638 0.00404116 0)
(0.0976168 0.00420918 0)
(0.0975985 0.00438506 0)
(0.0975835 0.00456924 0)
(0.0975724 0.00476222 0)
(0.0975656 0.00496451 0)
(0.0975639 0.00517667 0)
(0.0975678 0.00539924 0)
(0.0975783 0.00563275 0)
(0.0975961 0.00587769 0)
(0.0979319 0.00320787 0)
(0.0979058 0.00333465 0)
(0.097881 0.0034672 0)
(0.0978579 0.00360573 0)
(0.0978368 0.0037505 0)
(0.0978179 0.00390175 0)
(0.0978015 0.00405978 0)
(0.097788 0.00422488 0)
(0.0977778 0.00439742 0)
(0.0977714 0.0045778 0)
(0.0977692 0.00476645 0)
(0.0977718 0.00496383 0)
(0.0977798 0.00517041 0)
(0.0977939 0.00538665 0)
(0.0978149 0.00561299 0)
(0.0978437 0.00584984 0)
(0.0980547 0.00323189 0)
(0.0980341 0.00335721 0)
(0.0980152 0.00348806 0)
(0.0979983 0.00362464 0)
(0.0979836 0.00376717 0)
(0.0979714 0.00391588 0)
(0.097962 0.00407102 0)
(0.0979559 0.00423285 0)
(0.0979534 0.0044017 0)
(0.097955 0.00457791 0)
(0.0979611 0.00476186 0)
(0.0979724 0.00495394 0)
(0.0979894 0.00515456 0)
(0.098013 0.0053641 0)
(0.0980437 0.00558292 0)
(0.0980825 0.00581133 0)
(0.098176 0.00325055 0)
(0.0981608 0.00337415 0)
(0.0981475 0.00350305 0)
(0.0981364 0.00363741 0)
(0.0981278 0.00377743 0)
(0.098122 0.00392331 0)
(0.0981193 0.00407527 0)
(0.0981201 0.00423353 0)
(0.0981248 0.00439837 0)
(0.0981339 0.0045701 0)
(0.0981478 0.00474903 0)
(0.0981672 0.00493551 0)
(0.0981926 0.00512986 0)
(0.0982247 0.00533241 0)
(0.0982643 0.00554343 0)
(0.0983122 0.00576317 0)
(0.0982957 0.00326406 0)
(0.0982856 0.00338573 0)
(0.0982776 0.00351244 0)
(0.0982721 0.00364435 0)
(0.0982693 0.00378162 0)
(0.0982695 0.00392441 0)
(0.0982731 0.00407293 0)
(0.0982804 0.00422736 0)
(0.0982918 0.00438794 0)
(0.0983079 0.00455492 0)
(0.098329 0.00472858 0)
(0.0983558 0.0049092 0)
(0.0983889 0.00509705 0)
(0.0984289 0.00529239 0)
(0.0984765 0.00549542 0)
(0.0985326 0.00570632 0)
(0.0984133 0.00327265 0)
(0.0984081 0.00339218 0)
(0.0984053 0.0035165 0)
(0.0984051 0.00364575 0)
(0.0984077 0.00378005 0)
(0.0984136 0.00391955 0)
(0.0984231 0.0040644 0)
(0.0984365 0.00421478 0)
(0.0984542 0.00437088 0)
(0.0984767 0.0045329 0)
(0.0985045 0.00470109 0)
(0.0985382 0.00487566 0)
(0.0985782 0.00505683 0)
(0.0986254 0.00524481 0)
(0.0986802 0.00543973 0)
(0.0987436 0.0056417 0)
(0.0985289 0.00327656 0)
(0.0985284 0.00339378 0)
(0.0985303 0.00351553 0)
(0.0985351 0.00364192 0)
(0.0985429 0.00377307 0)
(0.0985542 0.00390908 0)
(0.0985691 0.0040501 0)
(0.0985882 0.00419624 0)
(0.0986117 0.00434768 0)
(0.0986402 0.00450458 0)
(0.0986742 0.00466713 0)
(0.098714 0.00483552 0)
(0.0987604 0.0050099 0)
(0.098814 0.00519042 0)
(0.0988753 0.00537717 0)
(0.0989452 0.0055702 0)
(0.0986422 0.00327602 0)
(0.0986461 0.00339076 0)
(0.0986526 0.00350979 0)
(0.0986621 0.00363317 0)
(0.0986747 0.00376101 0)
(0.0986909 0.00389339 0)
(0.098711 0.00403041 0)
(0.0987353 0.00417218 0)
(0.0987642 0.00431882 0)
(0.0987982 0.00447047 0)
(0.0988378 0.00462728 0)
(0.0988833 0.00478938 0)
(0.0989354 0.0049569 0)
(0.0989947 0.00512993 0)
(0.0990618 0.00530851 0)
(0.0991374 0.00549263 0)
(0.0987531 0.00327126 0)
(0.0987612 0.00338341 0)
(0.098772 0.00349956 0)
(0.0987858 0.00361981 0)
(0.098803 0.0037442 0)
(0.0988238 0.00387282 0)
(0.0988486 0.00400573 0)
(0.0988778 0.00414301 0)
(0.0989117 0.00428476 0)
(0.0989507 0.00443108 0)
(0.0989953 0.00458207 0)
(0.0990459 0.00473785 0)
(0.0991032 0.00489848 0)
(0.0991676 0.00506402 0)
(0.0992398 0.00523447 0)
(0.0993204 0.00540978 0)
(0.0988615 0.00326254 0)
(0.0988734 0.00337196 0)
(0.0988882 0.00348514 0)
(0.0989062 0.00360214 0)
(0.0989276 0.00372299 0)
(0.0989527 0.00384774 0)
(0.0989819 0.00397645 0)
(0.0990155 0.00410916 0)
(0.0990539 0.00424595 0)
(0.0990975 0.00438688 0)
(0.0991467 0.00453203 0)
(0.0992019 0.00468147 0)
(0.0992637 0.00483524 0)
(0.0993327 0.00499334 0)
(0.0994093 0.00515575 0)
(0.0994942 0.00532237 0)
(0.100027 1.24828e-06 0)
(0.0999791 4.08075e-05 0)
(0.0999868 0.000134587 0)
(0.0999281 0.000243161 0)
(0.0998492 0.000302751 0)
(0.0997562 0.000297349 0)
(0.0996636 0.00024984 0)
(0.0995834 0.000193539 0)
(0.0995165 0.00015033 0)
(0.0994601 0.000126513 0)
(0.0994105 0.000118958 0)
(0.0993643 0.000121712 0)
(0.0993193 0.000129663 0)
(0.0992742 0.000139601 0)
(0.0992285 0.000149933 0)
(0.0991818 0.000160075 0)
(0.0991338 0.000169953 0)
(0.0990847 0.000179692 0)
(0.0990342 0.000189469 0)
(0.0989823 0.00019945 0)
(0.0989291 0.000209771 0)
(0.0988743 0.000220539 0)
(0.0988179 0.000231837 0)
(0.09876 0.000243734 0)
(0.0987003 0.000256284 0)
(0.0986388 0.000269536 0)
(0.0985755 0.000283533 0)
(0.0985102 0.000298315 0)
(0.098443 0.000313922 0)
(0.0983737 0.000330392 0)
(0.0983022 0.000347763 0)
(0.0982285 0.000366078 0)
(0.0981525 0.000385376 0)
(0.0980742 0.000405702 0)
(0.0979934 0.000427102 0)
(0.0979101 0.000449622 0)
(0.0978243 0.000473313 0)
(0.0977358 0.000498229 0)
(0.0976445 0.000524427 0)
(0.0975505 0.000551965 0)
(0.0974536 0.000580907 0)
(0.0973538 0.000611321 0)
(0.097251 0.000643279 0)
(0.0971451 0.000676857 0)
(0.0970361 0.000712139 0)
(0.0969239 0.000749212 0)
(0.0968083 0.000788173 0)
(0.0966894 0.000829124 0)
(0.0965671 0.000872177 0)
(0.0964413 0.000917449 0)
(0.0963119 0.000965066 0)
(0.096179 0.00101515 0)
(0.0960423 0.00106784 0)
(0.095902 0.00112325 0)
(0.095758 0.00118152 0)
(0.100026 1.87534e-06 0)
(0.0999788 4.41915e-05 0)
(0.0999894 0.000146415 0)
(0.099938 0.00026627 0)
(0.099867 0.000335099 0)
(0.0997799 0.000333363 0)
(0.0996893 0.000284504 0)
(0.0996078 0.000224309 0)
(0.0995377 0.000176956 0)
(0.0994776 0.000149992 0)
(0.0994245 0.000140582 0)
(0.0993756 0.000142567 0)
(0.0993286 0.000150501 0)
(0.0992822 0.000160889 0)
(0.0992357 0.000171944 0)
(0.0991885 0.000182973 0)
(0.0991404 0.000193846 0)
(0.0990913 0.000204665 0)
(0.099041 0.000215598 0)
(0.0989894 0.000226809 0)
(0.0989365 0.000238436 0)
(0.0988821 0.000250591 0)
(0.0988263 0.000263362 0)
(0.0987688 0.000276819 0)
(0.0987097 0.000291023 0)
(0.0986489 0.000306025 0)
(0.0985863 0.000321872 0)
(0.0985217 0.000338608 0)
(0.0984553 0.000356277 0)
(0.0983868 0.000374921 0)
(0.0983162 0.000394583 0)
(0.0982434 0.000415307 0)
(0.0981684 0.000437141 0)
(0.0980911 0.000460132 0)
(0.0980115 0.000484331 0)
(0.0979294 0.000509789 0)
(0.0978448 0.000536564 0)
(0.0977577 0.000564714 0)
(0.0976679 0.0005943 0)
(0.0975754 0.000625388 0)
(0.0974802 0.000658048 0)
(0.0973822 0.000692354 0)
(0.0972813 0.000728383 0)
(0.0971774 0.000766219 0)
(0.0970705 0.000805951 0)
(0.0969606 0.000847673 0)
(0.0968475 0.000891488 0)
(0.0967313 0.000937504 0)
(0.0966118 0.000985837 0)
(0.0964891 0.00103661 0)
(0.096363 0.00108995 0)
(0.0962336 0.00114599 0)
(0.0961007 0.00120484 0)
(0.0959645 0.00126661 0)
(0.0958249 0.00133138 0)
(0.100026 2.59434e-06 0)
(0.0999785 4.70503e-05 0)
(0.0999917 0.00015646 0)
(0.0999466 0.000286619 0)
(0.0998828 0.000364831 0)
(0.0998012 0.000367844 0)
(0.0997127 0.000318978 0)
(0.0996304 0.000255932 0)
(0.0995576 0.000204965 0)
(0.0994941 0.000174941 0)
(0.099438 0.000163498 0)
(0.0993866 0.000164431 0)
(0.0993378 0.000172061 0)
(0.0992903 0.00018265 0)
(0.099243 0.000194233 0)
(0.0991955 0.000206002 0)
(0.0991473 0.00021776 0)
(0.0990982 0.000229575 0)
(0.0990482 0.000241598 0)