/*--------------------------------*- C++ -*----------------------------------*\
| =========                 |                                                 |
| \\      /  F ield         | OpenFOAM: The Open Source CFD Toolbox           |
|  \\    /   O peration     | Version:  2412                                  |
|   \\  /    A nd           | Website:  www.openfoam.com                      |
|    \\/     M anipulation  |                                                 |
\*---------------------------------------------------------------------------*/
FoamFile
{
    version     2.0;
    format      ascii;
    arch        "LSB;label=32;scalar=64";
    class       volScalarField;
    location    "26.5";
    object      p;
}
// * * * * * * * * * * * * * * * * * * * * * * * * * * * * * * * * * * * * * //

dimensions      [0 2 -2 0 0 0 0];

internalField   nonuniform List<scalar> 
5285
(
-0.00151672
-0.00138666
-0.00126032
-0.00113824
-0.00102088
-0.000908679
-0.000801987
-0.00070108
-0.00060616
-0.000517357
-0.000434739
-0.000358308
-0.00028801
-0.000223738
-0.000165339
-0.000112618
-6.53479e-05
-2.32709e-05
1.38921e-05
4.64373e-05
7.46721e-05
9.891e-05
0.000119466
0.000136652
0.000150774
0.000162127
0.000170992
0.00017764
-0.00153166
-0.00140117
-0.00127437
-0.0011518
-0.00103391
-0.000921153
-0.000813885
-0.000712389
-0.000616873
-0.000527474
-0.000444264
-0.000367251
-0.000296384
-0.000231559
-0.000172626
-0.000119393
-7.16324e-05
-2.90896e-05
8.51454e-06
4.1476e-05
7.01022e-05
9.47072e-05
0.000115607
0.000133114
0.000147535
0.000159168
0.000168293
0.000175188
-0.00156067
-0.00142939
-0.00130172
-0.00117821
-0.00105931
-0.000945488
-0.000837112
-0.000734481
-0.000637815
-0.000547265
-0.000462909
-0.000384767
-0.000312793
-0.000246893
-0.000186921
-0.000132689
-8.39737e-05
-4.05219e-05
-2.05624e-06
3.17185e-05
6.111e-05
8.64329e-05
0.000108004
0.000126139
0.000141147
0.000153326
0.000162961
0.000170341
-0.00160208
-0.00146974
-0.00134087
-0.00121604
-0.00109574
-0.000980428
-0.000870496
-0.000766267
-0.000667979
-0.000575797
-0.000489816
-0.000410067
-0.000336519
-0.000269085
-0.000207628
-0.000151967
-0.000101884
-5.71285e-05
-1.74262e-05
1.75173e-05
4.80092e-05
7.43651e-05
9.69038e-05
0.000115943
0.000131795
0.000144762
0.000155133
0.000163218
-0.00151978
-0.00138955
-0.00126322
-0.0011413
-0.00102424
-0.000912474
-0.000806339
-0.000706099
-0.000611942
-0.000523981
-0.000442264
-0.000366776
-0.000297442
-0.000234138
-0.000176691
-0.000124891
-7.84935e-05
-3.72276e-05
-8.01721e-07
3.10905e-05
5.87646e-05
8.25405e-05
0.000102738
0.000119673
0.000133653
0.000144974
0.000153968
-0.00157737
-0.001446
-0.00131831
-0.00119483
-0.00107602
-0.00096235
-0.000854192
-0.000751835
-0.000655492
-0.000565306
-0.000481346
-0.000403618
-0.000332067
-0.000266585
-0.000207013
-0.000153154
-0.00010477
-6.15997e-05
-2.33561e-05
1.02635e-05
3.95724e-05
6.489e-05
8.65367e-05
0.00010483
0.000120081
0.0001326
0.000142735
-0.00164319
-0.00151042
-0.00138103
-0.00125561
-0.00113468
-0.00101872
-0.000908149
-0.000803284
-0.000704372
-0.000611585
-0.000525021
-0.000444711
-0.00037062
-0.000302658
-0.000240684
-0.000184509
-0.00013391
-8.8629e-05
-4.83853e-05
-1.2879e-05
1.82023e-05
4.51785e-05
6.83715e-05
8.81017e-05
0.000104683
0.000118439
0.000129714
0.000182333
0.000185234
0.000186614
0.000186662
0.000185524
0.000183339
0.000180246
0.000176374
0.000171848
0.000166781
0.000161281
0.000155448
0.000149372
0.000143134
0.000136807
0.000130454
0.000124129
0.000117879
0.000111742
0.00010575
9.9928e-05
9.4295e-05
8.88652e-05
8.36484e-05
7.86506e-05
7.38747e-05
6.93209e-05
6.49876e-05
6.08714e-05
5.69677e-05
5.32708e-05
4.97747e-05
4.64727e-05
4.33579e-05
4.04234e-05
3.7662e-05
3.50667e-05
3.26302e-05
3.03455e-05
2.82052e-05
2.62024e-05
2.43293e-05
2.25806e-05
2.09448e-05
0.000180145
0.000183164
0.000184662
0.000184847
0.000183846
0.000181793
0.000178825
0.000175072
0.000170656
0.000165692
0.000160288
0.000154544
0.00014855
0.000142388
0.000136129
0.000129839
0.000123572
0.000117375
0.000111287
0.000105339
9.95564e-05
9.39596e-05
8.85626e-05
8.33754e-05
7.84044e-05
7.36527e-05
6.91209e-05
6.48075e-05
6.07092e-05
5.68217e-05
5.31395e-05
4.96566e-05
4.63666e-05
4.32626e-05
4.03379e-05
3.75853e-05
3.49979e-05
3.25686e-05
3.02903e-05
2.81558e-05
2.61581e-05
2.42897e-05
2.25451e-05
2.0913e-05
0.000175792
0.000179052
0.000180793
0.000181251
0.000180521
0.000178727
0.000176006
0.000172486
0.000168289
0.00016353
0.000158316
0.000152747
0.000146915
0.000140902
0.000134781
0.000128617
0.000122465
0.000116373
0.00011038
0.000104519
9.88162e-05
9.32912e-05
8.79593e-05
8.28312e-05
7.79136e-05
7.32102e-05
6.87221e-05
6.44482e-05
6.03856e-05
5.65304e-05
5.28774e-05
4.9421e-05
4.61548e-05
4.30725e-05
4.01672e-05
3.74322e-05
3.48607e-05
3.24456e-05
3.01801e-05
2.8057e-05
2.60697e-05
2.42105e-05
2.24742e-05
2.08495e-05
0.000169329
0.000172956
0.000175072
0.000175936
0.000175606
0.000174195
0.000171837
0.00016866
0.000164785
0.000160326
0.000155391
0.000150081
0.000144488
0.000138695
0.000132777
0.000126799
0.000120817
0.000114881
0.00010903
0.000103299
9.77131e-05
9.22949e-05
8.70598e-05
8.20194e-05
7.71813e-05
7.25498e-05
6.81268e-05
6.39117e-05
5.99024e-05
5.60954e-05
5.2486e-05
4.90689e-05
4.58384e-05
4.27883e-05
3.99121e-05
3.72033e-05
3.46554e-05
3.22616e-05
3.00152e-05
2.79093e-05
2.59374e-05
2.40919e-05
2.2368e-05
2.07544e-05
0.000160841
0.000164968
0.0001676
0.000168999
0.000169188
0.000168273
0.000166386
0.000163653
0.000160194
0.000156124
0.000151551
0.000146578
0.000141297
0.000135792
0.000130139
0.000124404
0.000118645
0.000112913
0.000107248
0.000101687
9.62558e-05
9.0978e-05
8.58704e-05
8.09456e-05
7.62122e-05
7.16756e-05
6.73385e-05
6.32012e-05
5.92622e-05
5.55188e-05
5.19671e-05
4.86021e-05
4.54188e-05
4.24112e-05
3.95735e-05
3.68995e-05
3.43829e-05
3.20173e-05
2.97962e-05
2.77131e-05
2.57615e-05
2.39344e-05
2.22268e-05
2.06279e-05
0.000150438
0.000155216
0.000158508
0.00016056
0.000161377
0.00016106
0.000159739
0.00015754
0.000154583
0.000150982
0.000146848
0.000142282
0.000137379
0.000132223
0.000126893
0.000121455
0.000115969
0.000110486
0.00010505
9.96965e-05
9.44554e-05
8.93502e-05
8.43994e-05
7.96169e-05
7.50126e-05
7.05931e-05
6.63619e-05
6.23206e-05
5.84685e-05
5.48038e-05
5.13233e-05
4.80228e-05
4.48978e-05
4.1943e-05
3.9153e-05
3.6522e-05
3.40442e-05
3.17135e-05
2.95239e-05
2.7469e-05
2.55428e-05
2.37384e-05
2.20511e-05
2.04705e-05
0.000138232
0.000143845
0.000147952
0.000150764
0.000152301
0.000152668
0.000151995
0.000150408
0.000148026
0.000144965
0.000141336
0.000137241
0.000132776
0.000128026
0.000123071
0.000117979
0.000112811
0.000107621
0.000102452
9.73427e-05
9.23245e-05
8.74223e-05
8.26561e-05
7.80414e-05
7.35894e-05
6.9308e-05
6.52021e-05
6.12742e-05
5.75251e-05
5.39536e-05
5.05574e-05
4.73334e-05
4.42775e-05
4.13853e-05
3.86519e-05
3.6072e-05
3.36403e-05
3.13512e-05
2.91989e-05
2.71776e-05
2.52816e-05
2.35042e-05
2.18412e-05
2.02825e-05
0.000123967
0.000130704
0.000135823
0.000139505
0.000141853
0.00014299
0.000143048
0.000142152
0.000140423
0.000137976
0.000134924
0.000131368
0.000127405
0.000123123
0.000118601
0.000113909
0.00010911
0.000104258
9.94001e-05
9.45756e-05
8.98172e-05
8.51521e-05
8.0602e-05
7.61837e-05
7.19102e-05
6.77908e-05
6.3832e-05
6.00377e-05
5.64095e-05
5.29477e-05
4.9651e-05
4.65171e-05
4.35428e-05
4.07245e-05
3.80579e-05
3.55384e-05
3.31611e-05
3.09211e-05
2.88131e-05
2.68316e-05
2.49712e-05
2.3226e-05
2.15917e-05
2.00589e-05
0.00010845
0.000116209
0.000122309
0.000126907
0.000130128
0.000132102
0.000132959
0.000132822
0.000131813
0.000130047
0.000127635
0.000124681
0.00012128
0.000117522
0.000113487
0.000109246
0.000104864
0.000100396
9.58914e-05
9.13905e-05
8.69284e-05
8.2534e-05
7.82308e-05
7.40374e-05
6.99686e-05
6.60354e-05
6.22457e-05
5.8605e-05
5.51162e-05
5.17809e-05
4.85989e-05
4.5569e-05
4.26891e-05
3.99561e-05
3.73668e-05
3.49172e-05
3.26031e-05
3.042e-05
2.83633e-05
2.6428e-05
2.46091e-05
2.29012e-05
2.13004e-05
1.97977e-05
9.21183e-05
0.000100837
0.000107893
0.000113418
0.000117535
0.000120376
0.000122065
0.000122725
0.000122474
0.000121428
0.000119697
0.000117384
0.000114585
0.00011139
0.000107879
0.000104125
0.000100195
9.61435e-05
9.20224e-05
8.78743e-05
8.37358e-05
7.96375e-05
7.56048e-05
7.16584e-05
6.78147e-05
6.40864e-05
6.04831e-05
5.70118e-05
5.36771e-05
5.04817e-05
4.74267e-05
4.45121e-05
4.17367e-05
3.90985e-05
3.6595e-05
3.42231e-05
3.19792e-05
2.98595e-05
2.78599e-05
2.5976e-05
2.42035e-05
2.25372e-05
2.09738e-05
1.95047e-05
7.5117e-05
8.47746e-05
9.27711e-05
9.92215e-05
0.000104244
0.000107964
0.000110504
0.000111982
0.000112515
0.000112217
0.000111196
0.000109554
0.000107387
0.000104785
0.000101829
9.85921e-05
9.5141e-05
9.15343e-05
8.78235e-05
8.40533e-05
8.0262e-05
7.64823e-05
7.27413e-05
6.90615e-05
6.54612e-05
6.19549e-05
5.85539e-05
5.52668e-05
5.20996e-05
4.90565e-05
4.61399e-05
4.33511e-05
4.06898e-05
3.81552e-05
3.57455e-05
3.34586e-05
3.12916e-05
2.92413e-05
2.73044e-05
2.5477e-05
2.37554e-05
2.21349e-05
2.06127e-05
1.91807e-05
5.76491e-05
6.8221e-05
7.71361e-05
8.44982e-05
9.0419e-05
9.5018e-05
9.84129e-05
0.000100718
0.000102048
0.000102514
0.000102221
0.00010127
9.97572e-05
9.77706e-05
9.53916e-05
9.26943e-05
8.97458e-05
8.66057e-05
8.3327e-05
7.99557e-05
7.6532e-05
7.30901e-05
6.96591e-05
6.62633e-05
6.29226e-05
5.96535e-05
5.6469e-05
5.33791e-05
5.03917e-05
4.75123e-05
4.47447e-05
4.20912e-05
3.9553e-05
3.71301e-05
3.48218e-05
3.26267e-05
3.05428e-05
2.85678e-05
2.66988e-05
2.49327e-05
2.32663e-05
2.16956e-05
2.02182e-05
1.88266e-05
3.99208e-05
5.13692e-05
6.1169e-05
6.94162e-05
7.62153e-05
8.16799e-05
8.59222e-05
8.90527e-05
9.11812e-05
9.24152e-05
9.28586e-05
9.26104e-05
9.17643e-05
9.04077e-05
8.86217e-05
8.64805e-05
8.40516e-05
8.13954e-05
7.8566e-05
7.56107e-05
7.25711e-05
6.94832e-05
6.63776e-05
6.32805e-05
6.02136e-05
5.7195e-05
5.42395e-05
5.13587e-05
4.85621e-05
4.58565e-05
4.32473e-05
4.07381e-05
3.8331e-05
3.60274e-05
3.38274e-05
3.17305e-05
2.97356e-05
2.78412e-05
2.60451e-05
2.43448e-05
2.27378e-05
2.12206e-05
1.97914e-05
1.84433e-05
2.21233e-05
3.4398e-05
4.50382e-05
5.41328e-05
6.17795e-05
6.80852e-05
7.31563e-05
7.70983e-05
8.00167e-05
8.20153e-05
8.31945e-05
8.36511e-05
8.34767e-05
8.27575e-05
8.15737e-05
7.99991e-05
7.81013e-05
7.59413e-05
7.35739e-05
7.10475e-05
6.84052e-05
6.56842e-05
6.29167e-05
6.01307e-05
5.73494e-05
5.45928e-05
5.18771e-05
4.92157e-05
4.66195e-05
4.4097e-05
4.16547e-05
3.92976e-05
3.70291e-05
3.48515e-05
3.27661e-05
3.07733e-05
2.88729e-05
2.7064e-05
2.53453e-05
2.37151e-05
2.21713e-05
2.07113e-05
1.93336e-05
1.80319e-05
4.43088e-06
1.74718e-05
2.88987e-05
3.87935e-05
4.72474e-05
5.436e-05
6.02318e-05
6.49627e-05
6.86535e-05
7.14035e-05
7.33098e-05
7.44659e-05
7.49611e-05
7.48798e-05
7.43009e-05
7.32977e-05
7.19373e-05
7.02811e-05
6.83841e-05
6.62959e-05
6.40603e-05
6.17159e-05
5.92966e-05
5.68315e-05
5.43456e-05
5.18604e-05
4.93937e-05
4.69605e-05
4.45731e-05
4.22415e-05
3.99737e-05
3.77757e-05
3.56524e-05
3.3607e-05
3.1642e-05
2.97586e-05
2.79575e-05
2.62388e-05
2.46018e-05
2.30455e-05
2.15686e-05
2.0169e-05
1.88459e-05
1.75935e-05
-1.30005e-05
7.38579e-07
1.28906e-05
2.35308e-05
3.27433e-05
4.06206e-05
4.72566e-05
5.27459e-05
5.71835e-05
6.06645e-05
6.32816e-05
6.5125e-05
6.62812e-05
6.68322e-05
6.68554e-05
6.6423e-05
6.56014e-05
6.44518e-05
6.30297e-05
6.1385e-05
5.95624e-05
5.76016e-05
5.55376e-05
5.34008e-05
5.12179e-05
4.90116e-05
4.68014e-05
4.46037e-05
4.24322e-05
4.02983e-05
3.82114e-05
3.61788e-05
3.42064e-05
3.22987e-05
3.04591e-05
2.86899e-05
2.69927e-05
2.53683e-05
2.38169e-05
2.23381e-05
2.09315e-05
1.95954e-05
1.83297e-05
1.71292e-05
-3.00347e-05
-1.56711e-05
-2.86144e-06
8.46289e-06
1.83791e-05
2.69723e-05
3.43297e-05
4.05399e-05
4.56925e-05
4.98773e-05
5.31827e-05
5.5695e-05
5.74975e-05
5.86697e-05
5.9287e-05
5.94198e-05
5.9134e-05
5.849e-05
5.75431e-05
5.63438e-05
5.49372e-05
5.33639e-05
5.16598e-05
4.98566e-05
4.79821e-05
4.60605e-05
4.41125e-05
4.21561e-05
4.02062e-05
3.82757e-05
3.63751e-05
3.4513e-05
3.26966e-05
3.09314e-05
2.92218e-05
2.75711e-05
2.59817e-05
2.44553e-05
2.2993e-05
2.15951e-05
2.02618e-05
1.89921e-05
1.77864e-05
1.66403e-05
-4.65555e-05
-3.16448e-05
-1.82489e-05
-6.30598e-06
4.25423e-06
1.35095e-05
2.15401e-05
2.84285e-05
3.42585e-05
3.91145e-05
4.30803e-05
4.6238e-05
4.86672e-05
5.04446e-05
5.16431e-05
5.23314e-05
5.25739e-05
5.24305e-05
5.19559e-05
5.12006e-05
5.02101e-05
4.90254e-05
4.76833e-05
4.62166e-05
4.4654e-05
4.30209e-05
4.13394e-05
3.96285e-05
3.79048e-05
3.61821e-05
3.44722e-05
3.2785e-05
3.11288e-05
2.95101e-05
2.79343e-05
2.64058e-05
2.49278e-05
2.35028e-05
2.21328e-05
2.08187e-05
1.95614e-05
1.83607e-05
1.72176e-05
1.61281e-05
-6.24668e-05
-4.70878e-05
-3.31793e-05
-2.06859e-05
-9.54449e-06
3.15349e-07
8.96714e-06
1.64868e-05
2.29524e-05
2.84427e-05
3.30365e-05
3.68115e-05
3.98434e-05
4.22056e-05
4.39684e-05
4.51985e-05
4.59584e-05
4.6307e-05
4.62985e-05
4.59827e-05
4.54055e-05
4.4608e-05
4.36278e-05
4.24982e-05
4.1249e-05
3.99066e-05
3.84941e-05
3.70319e-05
3.55374e-05
3.40258e-05
3.25101e-05
3.10013e-05
2.95086e-05
2.80398e-05
2.66011e-05
2.51979e-05
2.38343e-05
2.25137e-05
2.12387e-05
2.00111e-05
1.88324e-05
1.77031e-05
1.66246e-05
1.55938e-05
-7.76907e-05
-6.19222e-05
-4.75751e-05
-3.46008e-05
-2.29427e-05
-1.25379e-05
-3.31977e-06
4.78139e-06
1.18374e-05
1.79216e-05
2.31074e-05
2.7468e-05
3.10749e-05
3.39981e-05
3.63049e-05
3.80594e-05
3.93226e-05
4.01516e-05
4.05998e-05
4.07165e-05
4.05471e-05
4.01332e-05
3.95124e-05
3.87186e-05
3.77825e-05
3.67313e-05
3.55889e-05
3.43768e-05
3.31136e-05
3.18154e-05
3.04963e-05
2.91684e-05
2.78419e-05
2.65256e-05
2.52268e-05
2.39515e-05
2.27049e-05
2.14911e-05
2.03135e-05
1.91747e-05
1.80768e-05
1.70209e-05
1.60091e-05
1.50389e-05
-9.21668e-05
-7.60859e-05
-6.13736e-05
-4.79875e-05
-3.58779e-05
-2.49889e-05
-1.52606e-05
-6.62975e-06
9.69457e-07
7.60451e-06
1.33437e-05
1.82552e-05
2.24066e-05
2.58639e-05
2.86912e-05
3.09502e-05
3.26994e-05
3.39945e-05
3.48875e-05
3.54269e-05
3.56578e-05
3.56214e-05
3.53555e-05
3.48945e-05
3.42695e-05
3.35082e-05
3.26357e-05
3.1674e-05
3.06428e-05
2.95592e-05
2.84382e-05
2.72929e-05
2.61346e-05
2.49727e-05
2.38157e-05
2.26705e-05
2.1543e-05
2.04381e-05
1.936e-05
1.83119e-05
1.72967e-05
1.63161e-05
1.53728e-05
1.44648e-05
-0.00010585
-8.95314e-05
-7.45252e-05
-6.07953e-05
-4.82986e-05
-3.6986e-05
-2.68044e-05
-1.76967e-05
-9.60304e-06
-2.46177e-06
3.79008e-06
9.21589e-06
1.38788e-05
1.78409e-05
2.1163e-05
2.39038e-05
2.61195e-05
2.78639e-05
2.91875e-05
3.01379e-05
3.07592e-05
3.10924e-05
3.11751e-05
3.1042e-05
3.07243e-05
3.02505e-05
2.96461e-05
2.89339e-05
2.81344e-05
2.72655e-05
2.63432e-05
2.53814e-05
2.43923e-05
2.33863e-05
2.23726e-05
2.1359e-05
2.03522e-05
1.93578e-05
1.83808e-05
1.74251e-05
1.64942e-05
1.55905e-05
1.47172e-05
1.38729e-05
-0.00011871
-0.000102224
-8.69923e-05
-7.29846e-05
-6.01637e-05
-4.84874e-05
-3.79089e-05
-2.83772e-05
-1.98385e-05
-1.22366e-05
-5.51398e-06
3.87872e-07
5.52761e-06
9.96343e-06
1.37525e-05
1.69505e-05
1.96113e-05
2.17862e-05
2.35243e-05
2.48717e-05
2.58718e-05
2.65648e-05
2.69883e-05
2.71765e-05
2.71611e-05
2.69707e-05
2.66314e-05
2.61666e-05
2.55974e-05
2.49424e-05
2.42185e-05
2.34404e-05
2.26209e-05
2.17714e-05
2.09019e-05
2.0021e-05
1.9136e-05
1.82534e-05
1.73788e-05
1.65168e-05
1.56716e-05
1.48461e-05
1.4044e-05
1.32647e-05
-0.000130727
-0.00011414
-9.87482e-05
-8.45257e-05
-7.14414e-05
-5.94597e-05
-4.85397e-05
-3.86365e-05
-2.97019e-05
-2.16853e-05
-1.45345e-05
-8.19575e-06
-2.61492e-06
2.26212e-06
6.48894e-06
1.01181e-05
1.32006e-05
1.57856e-05
1.79203e-05
1.96493e-05
2.10148e-05
2.20565e-05
2.28111e-05
2.33128e-05
2.35932e-05
2.36811e-05
2.36027e-05
2.33821e-05
2.30407e-05
2.2598e-05
2.20713e-05
2.14761e-05
2.0826e-05
2.01332e-05
1.94082e-05
1.86604e-05
1.7898e-05
1.71281e-05
1.63568e-05
1.55895e-05
1.4831e-05
1.40847e-05
1.3355e-05
1.26417e-05
-0.000141894
-0.000125268
-0.000109776
-9.53981e-05
-8.21086e-05
-6.98775e-05
-5.86699e-05
-4.84465e-05
-3.91645e-05
-3.07789e-05
-2.32425e-05
-1.65064e-05
-1.0521e-05
-5.23603e-06
-6.01749e-07
3.43116e-06
6.91089e-06
9.88425e-06
1.23963e-05
1.449e-05
1.62064e-05
1.7584e-05
1.86589e-05
1.9465e-05
2.00334e-05
2.03931e-05
2.05705e-05
2.05898e-05
2.0473e-05
2.024e-05
1.99086e-05
1.9495e-05
1.90134e-05
1.84766e-05
1.78959e-05
1.72814e-05
1.66418e-05
1.59849e-05
1.53176e-05
1.46457e-05
1.39746e-05
1.33083e-05
1.26518e-05
1.20054e-05
-0.000152209
-0.000135601
-0.000120066
-0.000105589
-9.21496e-05
-7.97227e-05
-6.82792e-05
-5.77852e-05
-4.82033e-05
-3.94937e-05
-3.16139e-05
-2.452e-05
-1.81665e-05
-1.25075e-05
-7.49669e-06
-3.08816e-06
7.63392e-07
4.10223e-06
6.97126e-06
9.41173e-06
1.14631e-05
1.31628e-05
1.45461e-05
1.56462e-05
1.64939e-05
1.7118e-05
1.7545e-05
1.77991e-05
1.79027e-05
1.78759e-05
1.77372e-05
1.75031e-05
1.71884e-05
1.68066e-05
1.63695e-05
1.58878e-05
1.53708e-05
1.48271e-05
1.42639e-05
1.36878e-05
1.31046e-05
1.25189e-05
1.19362e-05
1.13573e-05
-0.000161682
-0.000145144
-0.000129618
-0.000115094
-0.000101555
-8.89833e-05
-7.73533e-05
-6.66365e-05
-5.68006e-05
-4.78106e-05
-3.9629e-05
-3.22162e-05
-2.55313e-05
-1.9532e-05
-1.4176e-05
-9.42047e-06
-5.22317e-06
-1.54242e-06
1.66241e-06
4.43067e-06
6.80022e-06
8.80719e-06
1.04859e-05
1.18688e-05
1.29861e-05
1.38663e-05
1.45358e-05
1.50187e-05
1.53377e-05
1.55131e-05
1.55636e-05
1.55063e-05
1.53565e-05
1.5128e-05
1.48333e-05
1.44835e-05
1.40887e-05
1.36577e-05
1.31986e-05
1.27183e-05
1.22232e-05
1.17185e-05
1.12099e-05
1.06989e-05
-0.000170325
-0.000153904
-0.000138435
-0.000123912
-0.000110323
-9.7653e-05
-8.58833e-05
-7.49892e-05
-6.49434e-05
-5.57154e-05
-4.72723e-05
-3.9579e-05
-3.25985e-05
-2.62927e-05
-2.06226e-05
-1.55489e-05
-1.10323e-05
-7.03371e-06
-3.51488e-06
-4.38432e-07
2.23176e-06
4.53045e-06
6.4908e-06
8.14432e-06
9.52071e-06
1.06479e-05
1.15519e-05
1.22571e-05
1.27857e-05
1.31585e-05
1.33943e-05
1.35105e-05
1.35228e-05
1.34455e-05
1.32915e-05
1.30724e-05
1.27987e-05
1.24799e-05
1.21243e-05
1.17396e-05
1.13326e-05
1.09088e-05
1.04746e-05
1.00319e-05
-0.000178158
-0.000161896
-0.000146527
-0.000132049
-0.000118454
-0.000105731
-9.3865e-05
-8.28368e-05
-7.2623e-05
-6.31977e-05
-5.45321e-05
-4.65954e-05
-3.93546e-05
-3.27753e-05
-2.68222e-05
-2.14591e-05
-1.66497e-05
-1.23576e-05
-8.54693e-06
-5.1824e-06
-2.22965e-06
3.44535e-07
2.57209e-06
4.48349e-06
6.10769e-06
7.472e-06
8.6021e-06
9.52197e-06
1.02539e-05
1.08187e-05
1.12353e-05
1.15212e-05
1.16925e-05
1.17637e-05
1.17482e-05
1.16581e-05
1.15042e-05
1.12965e-05
1.10438e-05
1.07542e-05
1.04349e-05
1.00919e-05
9.73196e-06
9.35756e-06
-0.000185202
-0.000169137
-0.000153908
-0.000139515
-0.000125954
-0.000113219
-0.000101299
-9.01767e-05
-7.98348e-05
-7.02508e-05
-6.14002e-05
-5.3256e-05
-4.57891e-05
-3.89688e-05
-3.2763e-05
-2.71389e-05
-2.20631e-05
-1.75019e-05
-1.34218e-05
-9.78954e-06
-6.57273e-06
-3.73971e-06
-1.25989e-06
8.96079e-07
2.75626e-06
4.34728e-06
5.6943e-06
6.82096e-06
7.74937e-06
8.50014e-06
9.09235e-06
9.54363e-06
9.87022e-06
1.0087e-05
1.02075e-05
1.02443e-05
1.02086e-05
1.01106e-05
9.95978e-06
9.76441e-06
9.5322e-06
9.26965e-06
8.98375e-06
8.67752e-06
-0.000191484
-0.000175649
-0.000160594
-0.000146323
-0.000132834
-0.000120125
-0.000108187
-9.70099e-05
-8.65773e-05
-7.68714e-05
-6.78715e-05
-5.95542e-05
-5.18942e-05
-4.48643e-05
-3.84356e-05
-3.25786e-05
-2.72625e-05
-2.24563e-05
-1.8129e-05
-1.42496e-05
-1.07875e-05
-7.71257e-06
-4.99582e-06
-2.60902e-06
-5.25129e-07
1.2817e-06
2.836e-06
4.16098e-06
5.27843e-06
6.20878e-06
6.97106e-06
7.58294e-06
8.06075e-06
8.41957e-06
8.67324e-06
8.83447e-06
8.91487e-06
8.92506e-06
8.8747e-06
8.77255e-06
8.62665e-06
8.44389e-06
8.23159e-06
7.99323e-06
-0.000197031
-0.000181455
-0.000166606
-0.000152489
-0.000139106
-0.000126457
-0.000114538
-0.00010334
-9.28522e-05
-8.30589e-05
-7.39436e-05
-6.54862e-05
-5.76648e-05
-5.04556e-05
-4.38329e-05
-3.77701e-05
-3.22393e-05
-2.72122e-05
-2.26599e-05
-1.85538e-05
-1.4865e-05
-1.15654e-05
-8.62731e-06
-6.02375e-06
-3.72878e-06
-1.71743e-06
3.41126e-08
1.54851e-06
2.84718e-06
3.95026e-06
4.87663e-06
5.64392e-06
6.26849e-06
6.76552e-06
7.14904e-06
7.43197e-06
7.62618e-06
7.74257e-06
7.79111e-06
7.78088e-06
7.72025e-06
7.61646e-06
7.47712e-06
7.30614e-06
-0.000201873
-0.000186581
-0.000171966
-0.000158032
-0.000144786
-0.000132229
-0.000120361
-0.000109175
-9.86637e-05
-8.88156e-05
-7.96166e-05
-7.10503e-05
-6.30978e-05
-5.57384e-05
-4.89496e-05
-4.27075e-05
-3.6987e-05
-3.17623e-05
-2.7007e-05
-2.26945e-05
-1.87979e-05
-1.52907e-05
-1.21469e-05
-9.34086e-06
-6.84769e-06
-4.64343e-06
-2.70501e-06
-1.01042e-06
4.6127e-07
1.72985e-06
2.81397e-06
3.73112e-06
4.49763e-06
5.12872e-06
5.6385e-06
6.04006e-06
6.34547e-06
6.56586e-06
6.71146e-06
6.79161e-06
6.81499e-06
6.78913e-06
6.72193e-06
6.61767e-06
-0.000206042
-0.000191057
-0.000176698
-0.000162973
-0.00014989
-0.000137454
-0.000125666
-0.000114522
-0.000104018
-9.41456e-05
-8.48931e-05
-7.62473e-05
-6.81924e-05
-6.07107e-05
-5.37825e-05
-4.73866e-05
-4.15007e-05
-3.61013e-05
-3.11645e-05
-2.66655e-05
-2.25796e-05
-1.88821e-05
-1.55483e-05
-1.25541e-05
-9.87578e-06
-7.49038e-06
-5.3757e-06
-3.51044e-06
-1.87421e-06
-4.47651e-07
7.87566e-07
1.84873e-06
2.75205e-06
3.51272e-06
4.1449e-06
4.66175e-06
5.07549e-06
5.39743e-06
5.638e-06
5.8068e-06
5.91273e-06
5.96359e-06
5.96754e-06
5.92917e-06
-0.00020957
-0.000194911
-0.00018083
-0.000167338
-0.000154443
-0.000142152
-0.000130469
-0.000119395
-0.000108926
-9.90567e-05
-8.97786e-05
-8.10809e-05
-7.29508e-05
-6.53732e-05
-5.83311e-05
-5.1806e-05
-4.5778e-05
-4.02262e-05
-3.51286e-05
-3.04628e-05
-2.62059e-05
-2.23349e-05
-1.88268e-05
-1.56587e-05
-1.28083e-05
-1.02536e-05
-7.97344e-06
-5.94717e-06
-4.15508e-06
-2.57829e-06
-1.19885e-06
2.34822e-10
1.03502e-06
1.92057e-06
2.67103e-06
3.29961e-06
3.8186e-06
4.23944e-06
4.57272e-06
4.82823e-06
5.01507e-06
5.14129e-06
5.21525e-06
5.2418e-06
-0.000212488
-0.00019817
-0.000184386
-0.000171146
-0.000158462
-0.000146342
-0.000134787
-0.000123806
-0.000113398
-0.000103558
-9.42801e-05
-8.55563e-05
-7.73764e-05
-6.97277e-05
-6.25959e-05
-5.5965e-05
-4.98173e-05
-4.41343e-05
-3.88962e-05
-3.40826e-05
-2.96725e-05
-2.56446e-05
-2.19775e-05
-1.86497e-05
-1.56403e-05
-1.29283e-05
-1.04934e-05
-8.3159e-06
-6.37676e-06
-4.65766e-06
-3.14109e-06
-1.81037e-06
-6.49724e-07
3.55789e-07
1.22021e-06
1.95672e-06
2.57765e-06
3.09452e-06
3.51804e-06
3.85813e-06
4.12407e-06
4.3241e-06
4.46678e-06
4.55717e-06
-0.000214818
-0.000200855
-0.000187382
-0.000174413
-0.000161957
-0.000150029
-0.000138633
-0.000127767
-0.000117442
-0.000107655
-9.84018e-05
-8.96761e-05
-8.14702e-05
-7.3774e-05
-6.65755e-05
-5.9861e-05
-5.36152e-05
-4.78216e-05
-4.24627e-05
-3.75198e-05
-3.2974e-05
-2.88056e-05
-2.49948e-05
-2.15216e-05
-1.83661e-05
-1.55087e-05
-1.29301e-05
-1.06114e-05
-8.53429e-06
-6.68104e-06
-5.03467e-06
-3.57889e-06
-2.29822e-06
-1.17795e-06
-2.04169e-07
6.36225e-07
1.35555e-06
1.96534e-06
2.4764e-06
2.89872e-06
3.24174e-06
3.51384e-06
3.72375e-06
3.87671e-06
-0.000164952
-0.000153232
-0.000142008
-0.000131284
-0.000121065
-0.000111354
-0.000102147
-9.34424e-05
-8.52333e-05
-7.7512e-05
-7.02688e-05
-6.34922e-05
-5.7169e-05
-5.12849e-05
-4.58242e-05
-4.07704e-05
-3.61061e-05
-3.18134e-05
-2.7874e-05
-2.42694e-05
-2.0981e-05
-1.79904e-05
-1.52791e-05
-1.28293e-05
-1.06234e-05
-8.64434e-06
-6.8757e-06
-5.30165e-06
-3.90703e-06
-2.67742e-06
-1.59909e-06
-6.59075e-07
1.54872e-07
8.54286e-07
1.44997e-06
1.95201e-06
2.3699e-06
2.71219e-06
2.98767e-06
3.20192e-06
-0.00157929
-0.00144577
-0.00131633
-0.00119148
-0.00107173
-0.000957497
-0.000849134
-0.000746898
-0.000650972
-0.000561467
-0.000478419
-0.000401799
-0.000331518
-0.000267433
-0.000209352
-0.000157046
-0.000110248
-6.86683e-05
-3.19952e-05
9.62848e-08
2.7939e-05
5.18687e-05
7.22188e-05
8.93146e-05
0.000103468
0.000114988
-0.00174727
-0.00161128
-0.00147854
-0.00134969
-0.00122527
-0.00110576
-0.000991612
-0.000883162
-0.000780683
-0.000684371
-0.000594342
-0.000510649
-0.000433274
-0.000362141
-0.000297121
-0.000238036
-0.00018467
-0.000136769
-9.40558e-05
-5.62301e-05
-2.2978e-05
6.02343e-06
3.11004e-05
5.25777e-05
7.07734e-05
8.59936e-05
9.85345e-05
-0.00176783
-0.00163358
-0.00150243
-0.00137499
-0.00125179
-0.00113332
-0.00102001
-0.000912216
-0.000810203
-0.000714172
-0.000624247
-0.000540488
-0.000462888
-0.000391385
-0.000325861
-0.000266153
-0.000212057
-0.000163336
-0.000119726
-8.09406e-05
-4.66805e-05
-1.66357e-05
9.5075e-06
3.20622e-05
5.13363e-05
6.76276e-05
8.12224e-05
-0.00178729
-0.00165475
-0.00152516
-0.00139913
-0.00127718
-0.00115978
-0.00104737
-0.000940293
-0.000838817
-0.000743145
-0.000653409
-0.000569674
-0.000491945
-0.000420168
-0.000354238
-0.000294005
-0.000239278
-0.000189835
-0.000145423
-0.000105772
-7.05935e-05
-3.95912e-05
-1.2463e-05
1.10932e-05
3.13753e-05
4.86727e-05
6.32646e-05
-0.00180186
-0.00167135
-0.00154367
-0.00141939
-0.00129902
-0.00118304
-0.00107185
-0.000965797
-0.000865158
-0.000770132
-0.000680855
-0.0005974
-0.000519778
-0.000447947
-0.000381814
-0.000321241
-0.000266052
-0.000216038
-0.00017096
-0.000130563
-9.45728e-05
-6.27053e-05
-3.46716e-05
-1.01814e-05
1.10526e-05
2.93105e-05
4.48639e-05
-0.00181002
-0.00168197
-0.00155661
-0.00143451
-0.00131614
-0.00120197
-0.0010924
-0.000987766
-0.000888333
-0.000794305
-0.00070582
-0.000622956
-0.000545735
-0.000474122
-0.000408036
-0.000347353
-0.000291911
-0.000241514
-0.000195941
-0.000154949
-0.00011828
-8.56646e-05
-5.6827e-05
-3.14898e-05
-9.37753e-06
9.77965e-06
2.62439e-05
-0.00181136
-0.00168619
-0.00156358
-0.00144407
-0.00132812
-0.00121617
-0.00110861
-0.00100577
-0.000907909
-0.00081523
-0.000727872
-0.000645918
-0.000569395
-0.00049828
-0.000432502
-0.000371951
-0.000316477
-0.000265901
-0.000220017
-0.000178598
-0.000141401
-0.000108172
-7.86499e-05
-5.25705e-05
-2.96715e-05
-9.69443e-06
7.61234e-06
-0.00180563
-0.00168377
-0.00156432
-0.00144781
-0.00133467
-0.00122534
-0.00112018
-0.00101951
-0.000923587
-0.000832606
-0.000746708
-0.00066598
-0.000590455
-0.000520119
-0.000454913
-0.000394738
-0.000339461
-0.000288917
-0.000242915
-0.000201246
-0.000163681
-0.000129984
-9.99068e-05
-7.32018e-05
-4.96195e-05
-2.89141e-05
-1.08453e-05
-0.00179281
-0.00167465
-0.00155876
-0.00144565
-0.00133572
-0.00122938
-0.00112699
-0.00102885
-0.000935213
-0.000846264
-0.000762145
-0.000682948
-0.000608711
-0.000539428
-0.000475053
-0.000415498
-0.000360645
-0.000310343
-0.000264419
-0.000222679
-0.000184912
-0.000150896
-0.000120402
-9.31949e-05
-6.90406e-05
-4.77065e-05
-2.89647e-05
-0.00177313
-0.00165906
-0.00154711
-0.00143775
-0.00133139
-0.00122839
-0.00112911
-0.00103382
-0.000942783
-0.000856171
-0.000774128
-0.000696744
-0.000624066
-0.000556096
-0.000492796
-0.000434093
-0.000379881
-0.000330026
-0.00028437
-0.000242737
-0.000204931
-0.000170749
-0.000139976
-0.000112393
-8.77824e-05
-6.59243e-05
-4.66039e-05
-0.00174706
-0.0016374
-0.00152972
-0.00142444
-0.00132195
-0.0012226
-0.00112671
-0.00103458
-0.000946416
-0.000862413
-0.000782708
-0.000707392
-0.000636517
-0.000570093
-0.000508092
-0.000450454
-0.000397086
-0.00034787
-0.000302664
-0.000261306
-0.000223621
-0.000189419
-0.000158504
-0.000130673
-0.000105721
-8.34455e-05
-6.36437e-05
-0.00171521
-0.00161027
-0.00150712
-0.00140618
-0.00130782
-0.00121237
-0.00112013
-0.00103138
-0.000946334
-0.00086517
-0.000788026
-0.000714996
-0.000646136
-0.000581463
-0.00052096
-0.000464577
-0.000412236
-0.000363834
-0.000319243
-0.000278319
-0.000240903
-0.000206822
-0.000175896
-0.000147939
-0.000122761
-0.000100173
-7.99868e-05
-0.00167835
-0.00157833
-0.00147993
-0.00138355
-0.00128951
-0.00119815
-0.00110976
-0.00102458
-0.000942833
-0.000864692
-0.00079029
-0.000719725
-0.000653055
-0.000590306
-0.000531469
-0.000476506
-0.000425353
-0.000377918
-0.000334092
-0.000293746
-0.000256735
-0.000222906
-0.000192092
-0.000164125
-0.000138829
-0.000116031
-9.55564e-05
-0.00163731
-0.00154237
-0.00144886
-0.00135716
-0.00126759
-0.00118046
-0.00109603
-0.00101457
-0.000936256
-0.000861274
-0.000789753
-0.00072179
-0.000657449
-0.000596763
-0.00053973
-0.000486325
-0.000436494
-0.00039016
-0.000347229
-0.000307586
-0.000271105
-0.000237644
-0.000207057
-0.000179187
-0.000153877
-0.000130967
-0.000110295
-0.00159292
-0.00150314
-0.0014146
-0.00132766
-0.00124263
-0.0011598
-0.00107943
-0.00100176
-0.000926972
-0.00085524
-0.000786693
-0.000721432
-0.000659522
-0.000601003
-0.000545883
-0.000494144
-0.000445745
-0.000400624
-0.000358698
-0.000319868
-0.000284022
-0.000251036
-0.000220777
-0.000193105
-0.000167875
-0.000144943
-0.00012416
-0.00154603
-0.00146141
-0.00137785
-0.00129569
-0.00121522
-0.00113671
-0.00106043
-0.000986576
-0.000915353
-0.000846918
-0.000781401
-0.000718902
-0.000659491
-0.000603213
-0.000550082
-0.000500092
-0.000453212
-0.000409391
-0.000368561
-0.000330636
-0.000295519
-0.000263099
-0.000233258
-0.000205872
-0.00018081
-0.00015794
-0.000137127
-0.00149739
-0.00141789
-0.00133927
-0.00126184
-0.00118589
-0.00111168
-0.00103946
-0.000969423
-0.000901763
-0.000836634
-0.000774164
-0.000714453
-0.000657577
-0.000603582
-0.000552492
-0.000504309
-0.00045901
-0.000416558
-0.000376896
-0.000339951
-0.000305638
-0.000273863
-0.00024452
-0.000217498
-0.000192681
-0.000169949
-0.000149181
-0.00144771
-0.00137322
-0.00129943
-0.00122665
-0.00115514
-0.00108517
-0.00101694
-0.000950674
-0.00088654
-0.000824691
-0.000765254
-0.00070833
-0.000653994
-0.000602301
-0.000553278
-0.000506936
-0.000463262
-0.000422227
-0.000383787
-0.00034788
-0.000314436
-0.000283371
-0.000254593
-0.000228004
-0.000203501
-0.000180976
-0.00016032
-0.00139758
-0.00132795
-0.00125887
-0.0011906
-0.00112342
-0.00105756
-0.00099325
-0.000930669
-0.000869993
-0.000811371
-0.000754926
-0.000700759
-0.000648948
-0.000599551
-0.000552601
-0.000508115
-0.000466089
-0.000426503
-0.000389323
-0.0003545
-0.000321973
-0.000291672
-0.000263515
-0.000237419
-0.000213289
-0.000191032
-0.000170549