/*--------------------------------*- C++ -*----------------------------------*\
| =========                 |                                                 |
| \\      /  F ield         | OpenFOAM: The Open Source CFD Toolbox           |
|  \\    /   O peration     | Version:  2412                                  |
|   \\  /    A nd           | Website:  www.openfoam.com                      |
|    \\/     M anipulation  |                                                 |
\*---------------------------------------------------------------------------*/
FoamFile
{
    version     2.0;
    format      ascii;
    arch        "LSB;label=32;scalar=64";
    class       volScalarField;
    location    "25";
    object      p;
}
// * * * * * * * * * * * * * * * * * * * * * * * * * * * * * * * * * * * * * //

dimensions      [0 2 -2 0 0 0 0];

internalField   nonuniform List<scalar> 
63420
(
0.000920333
0.000920594
0.000921425
0.000922708
0.000924426
0.000926566
0.000929111
0.000932048
0.000935365
0.000939051
0.000943099
0.000947501
0.000952251
0.000957343
0.000962773
0.000968535
0.000974627
0.000981044
0.000987784
0.000994846
0.00100223
0.00100993
0.00101795
0.0010263
0.00103496
0.00104396
0.00105328
0.00106294
0.00107293
0.00108327
0.00109394
0.00110496
0.00111633
0.00112805
0.00114013
0.00115256
0.00116537
0.00117853
0.00119207
0.00120599
0.00122028
0.00123495
0.00125001
0.00126547
0.00128131
0.00129756
0.00131421
0.00133126
0.00134873
0.00136662
0.00138492
0.00140365
0.00142281
0.0014424
0.00146244
0.000920273
0.000920534
0.000921364
0.000922646
0.000924363
0.000926502
0.000929045
0.000931979
0.000935294
0.000938977
0.000943022
0.000947421
0.000952167
0.000957255
0.00096268
0.000968438
0.000974524
0.000980936
0.00098767
0.000994725
0.0010021
0.00100979
0.00101781
0.00102615
0.00103481
0.00104379
0.00105311
0.00106275
0.00107273
0.00108305
0.00109372
0.00110472
0.00111608
0.00112778
0.00113984
0.00115226
0.00116505
0.00117819
0.00119171
0.00120561
0.00121987
0.00123453
0.00124956
0.00126499
0.0012808
0.00129702
0.00131364
0.00133066
0.00134809
0.00136593
0.0013842
0.00140288
0.001422
0.00144154
0.00146152
0.000920153
0.000920414
0.000921242
0.000922522
0.000924237
0.000926372
0.000928912
0.000931842
0.000935152
0.00093883
0.000942869
0.000947261
0.000951999
0.000957079
0.000962495
0.000968244
0.00097432
0.00098072
0.000987443
0.000994485
0.00100185
0.00100953
0.00101753
0.00102585
0.00103449
0.00104345
0.00105275
0.00106238
0.00107233
0.00108263
0.00109327
0.00110425
0.00111557
0.00112725
0.00113928
0.00115166
0.00116441
0.00117752
0.001191
0.00120485
0.00121907
0.00123367
0.00124866
0.00126403
0.00127979
0.00129594
0.00131249
0.00132945
0.0013468
0.00136457
0.00138275
0.00140135
0.00142037
0.00143982
0.0014597
0.000919972
0.000920233
0.00092106
0.000922337
0.000924048
0.000926179
0.000928713
0.000931637
0.000934939
0.000938609
0.000942639
0.00094702
0.000951748
0.000956816
0.000962219
0.000967953
0.000974013
0.000980397
0.000987102
0.000994125
0.00100147
0.00100912
0.0010171
0.0010254
0.00103401
0.00104295
0.00105222
0.00106181
0.00107174
0.001082
0.0010926
0.00110353
0.00111482
0.00112645
0.00113843
0.00115076
0.00116346
0.00117651
0.00118992
0.00120371
0.00121786
0.00123239
0.0012473
0.00126259
0.00127826
0.00129433
0.00131078
0.00132763
0.00134488
0.00136254
0.0013806
0.00139906
0.00141795
0.00143725
0.00145697
0.000919732
0.000919992
0.000920817
0.00092209
0.000923796
0.000925921
0.000928448
0.000931363
0.000934656
0.000938315
0.000942332
0.0009467
0.000951413
0.000956464
0.00096185
0.000967565
0.000973605
0.000979967
0.000986648
0.000993646
0.00100096
0.00100859
0.00101653
0.0010248
0.00103338
0.00104228
0.00105151
0.00106106
0.00107094
0.00108115
0.0010917
0.00110259
0.00111381
0.00112538
0.0011373
0.00114957
0.00116219
0.00117516
0.0011885
0.0012022
0.00121626
0.0012307
0.0012455
0.00126068
0.00127624
0.00129218
0.00130851
0.00132523
0.00134233
0.00135983
0.00137773
0.00139603
0.00141473
0.00143384
0.00145335
0.000919432
0.000919691
0.000920513
0.000921782
0.000923482
0.000925599
0.000928117
0.000931022
0.000934302
0.000937947
0.000941949
0.000946301
0.000950995
0.000956026
0.00096139
0.000967081
0.000973096
0.00097943
0.000986082
0.000993049
0.00100033
0.00100792
0.00101583
0.00102405
0.00103259
0.00104145
0.00105062
0.00106012
0.00106995
0.0010801
0.00109059
0.00110141
0.00111256
0.00112406
0.00113589
0.00114808
0.00116061
0.00117349
0.00118672
0.00120032
0.00121427
0.00122858
0.00124326
0.00125831
0.00127373
0.00128952
0.00130569
0.00132223
0.00133916
0.00135647
0.00137417
0.00139226
0.00141073
0.0014296
0.00144886
0.000919073
0.000919331
0.000920149
0.000921413
0.000923105
0.000925214
0.00092772
0.000930612
0.000933878
0.000937507
0.000941491
0.000945822
0.000950494
0.000955501
0.000960839
0.000966502
0.000972486
0.000978788
0.000985404
0.000992333
0.000999573
0.00100712
0.00101498
0.00102316
0.00103164
0.00104045
0.00104956
0.001059
0.00106876
0.00107884
0.00108925
0.00109999
0.00111106
0.00112247
0.00113421
0.0011463
0.00115872
0.00117149
0.0011846
0.00119807
0.00121189
0.00122606
0.00124059
0.00125547
0.00127072
0.00128634
0.00130232
0.00131866
0.00133538
0.00135247
0.00136993
0.00138777
0.00140598
0.00142456
0.00144351
0.00148297
0.00150422
0.00152638
0.00154949
0.00157362
0.00159882
0.00162516
0.00165271
0.00168155
0.00171175
0.0017434
0.0017766
0.00181145
0.00184807
0.00188658
0.0019271
0.00196979
0.00201481
0.00206232
0.00211251
0.00216559
0.00222179
0.00228136
0.00234457
0.00241172
0.00248315
0.00255922
0.00264034
0.00272695
0.00281954
0.00291865
0.00302487
0.00313885
0.00326129
0.00339293
0.00353457
0.00368699
0.00385096
0.00402714
0.00421591
0.00441726
0.00463043
0.0048537
0.00508409
0.00531778
0.00555092
0.00578002
0.00601156
0.00631042
0.00676547
0.00148203
0.00150328
0.00152544
0.00154855
0.00157267
0.00159787
0.00162421
0.00165176
0.00168059
0.00171078
0.00174243
0.00177562
0.00181047
0.00184707
0.00188556
0.00192607
0.00196873
0.00201372
0.00206119
0.00211133
0.00216436
0.00222049
0.00227997
0.00234307
0.00241009
0.00248136
0.00255722
0.00263809
0.00272438
0.00281657
0.00291519
0.00302079
0.00313398
0.00325541
0.00338578
0.00352577
0.00367608
0.00383731
0.00400993
0.00419406
0.00438934
0.00459458
0.00480749
0.0050244
0.00524064
0.00545147
0.00565289
0.00585052
0.00610504
0.00649841
0.00148015
0.0015014
0.00152355
0.00154666
0.00157078
0.00159597
0.0016223
0.00164984
0.00167866
0.00170885
0.00174048
0.00177366
0.00180849
0.00184507
0.00188353
0.00192399
0.00196661
0.00201154
0.00205894
0.00210899
0.0021619
0.0022179
0.00227721
0.0023401
0.00240685
0.00247779
0.00255326
0.00263362
0.00271929
0.00281071
0.00290835
0.00301272
0.00312436
0.00324382
0.00337166
0.00350842
0.00365455
0.00381036
0.0039759
0.00415079
0.00433395
0.00452329
0.00471537
0.00490512
0.00508612
0.00525186
0.00539747
0.00552711
0.00568899
0.00597139
0.00147734
0.00149858
0.00152072
0.00154382
0.00156793
0.00159311
0.00161943
0.00164696
0.00167577
0.00170593
0.00173754
0.0017707
0.00180549
0.00184203
0.00188044
0.00192084
0.00196339
0.00200822
0.0020555
0.00210541
0.00215815
0.00221392
0.00227296
0.00233552
0.00240188
0.00247231
0.00254716
0.00262675
0.00271147
0.00280169
0.00289784
0.00300034
0.00310963
0.0032261
0.00335014
0.00348202
0.00362188
0.00376957
0.00392456
0.00408566
0.00425076
0.00441641
0.00457744
0.00472668
0.00485517
0.00495352
0.00501559
0.00504665
0.00507964
0.00516662
0.00147361
0.00149485
0.00151698
0.00154007
0.00156417
0.00158934
0.00161565
0.00164317
0.00167196
0.00170211
0.0017337
0.00176683
0.00180158
0.00183808
0.00187643
0.00191677
0.00195922
0.00200394
0.00205108
0.00210082
0.00215333
0.00220883
0.00226753
0.00232967
0.00239549
0.00246527
0.0025393
0.00261788
0.00270132
0.00278996
0.00288412
0.00298412
0.00309023
0.00320268
0.00332158
0.00344687
0.00357822
0.0037149
0.00385556
0.00399797
0.00413863
0.00427233
0.00439165
0.0044867
0.00454532
0.00455442
0.00450516
0.00440572
0.00427787
0.00406294
0.00146897
0.00149021
0.00151236
0.00153546
0.00155958
0.00158477
0.00161111
0.00163865
0.00166747
0.00169765
0.00172928
0.00176244
0.00179723
0.00183376
0.00187215
0.00191251
0.00195498
0.0019997
0.00204683
0.00209653
0.00214898
0.00220437
0.00226292
0.00232484
0.00239036
0.00245973
0.0025332
0.00261105
0.00269352
0.00278089
0.00287337
0.00297116
0.00307437
0.00318297
0.00329676
0.0034152
0.00353733
0.00366152
0.00378516
0.00390433
0.00401326
0.00410376
0.00416476
0.00418198
0.00413836
0.00401578
0.00380104
0.00350309
0.00313552
0.00251339
0.00146342
0.00148459
0.00150668
0.00152973
0.0015538
0.00157895
0.00160524
0.00163274
0.00166152
0.00169165
0.00172323
0.00175635
0.00179109
0.00182757
0.00186589
0.00190619
0.00194858
0.00199322
0.00204025
0.00208982
0.00214212
0.00219733
0.00225564
0.00231726
0.00238241
0.00245131
0.00252419
0.00260126
0.00268275
0.00276885
0.00285968
0.00295532
0.00305571
0.00316058
0.00326937
0.00338108
0.00349399
0.0036054
0.00371116
0.00380511
0.00387835
0.00391851
0.00390919
0.00382997
0.00365723
0.00336564
0.00293859
0.00238915
0.00168082
0.000527069
-0.00349019
-0.00355801
-0.0035804
-0.00357076
-0.00354067
-0.00349307
-0.0034296
-0.00335176
-0.0032623
-0.00316183
-0.00305145
-0.00293255
-0.00280637
-0.0026741
-0.00253693
-0.002396
-0.00225244
-0.0021074
-0.00196197
-0.00181719
-0.00167404
-0.00153338
-0.00139607
-0.00126292
-0.00113463
-0.00101172
-0.000894633
-0.000783758
-0.000679395
-0.000581748
-0.000490931
-0.000406982
-0.000329863
-0.000259468
-0.000195635
-0.000138147
-8.67461e-05
-4.11367e-05
-9.96165e-07
3.40184e-05
6.42638e-05
9.01034e-05
0.000111902
0.000130021
0.000144812
0.000156615
0.000165755
0.000172537
0.000177248
0.000180154
-0.00356118
-0.00360828
-0.00361817
-0.00360104
-0.00356589
-0.00351495
-0.00344937
-0.00337006
-0.00328017
-0.00317926
-0.00306871
-0.00294984
-0.00282376
-0.00269157
-0.00255442
-0.00241355
-0.00226997
-0.00212483
-0.00197922
-0.0018342
-0.00169072
-0.00154966
-0.00141189
-0.00127821
-0.00114936
-0.00102585
-0.000908126
-0.000796595
-0.000691563
-0.000593241
-0.00050175
-0.000417135
-0.000339362
-0.000268331
-0.000203883
-0.000145804
-9.3838e-05
-4.76917e-05
-7.0433e-06
2.84497e-05
5.9144e-05
8.54036e-05
0.000107594
0.000126077
0.000141206
0.000153322
0.000162752
0.000169803
0.000174761
0.0001779
-0.00370239
-0.00370743
-0.0036925
-0.00366049
-0.0036151
-0.00355726
-0.00348675
-0.00340274
-0.00331342
-0.00321231
-0.00310161
-0.00298291
-0.00285715
-0.00272484
-0.00258807
-0.00244733
-0.00230375
-0.00215847
-0.00201258
-0.00186712
-0.00172306
-0.00158128
-0.00144264
-0.00130797
-0.00117803
-0.00105337
-0.000934447
-0.000821658
-0.000715338
-0.000615713
-0.00052292
-0.000437013
-0.000357972
-0.000285705
-0.000220059
-0.000160829
-0.000107762
-6.05683e-05
-1.8928e-05
1.75002e-05
4.90726e-05
7.61537e-05
9.91105e-05
0.000118306
0.000134097
0.000146827
0.000156826
0.000164403
0.000169847
0.000173445
-0.0039197
-0.00384858
-0.00380095
-0.00374653
-0.00368562
-0.00361769
-0.00354145
-0.00345803
-0.00336226
-0.00325931
-0.00314772
-0.0030291
-0.00290369
-0.00277212
-0.0026356
-0.00249507
-0.00235157
-0.00220618
-0.00205997
-0.00191395
-0.00176913
-0.00162638
-0.00148657
-0.00135055
-0.00121911
-0.00109285
-0.000972233
-0.000857679
-0.000749543
-0.000648077
-0.000553439
-0.000465699
-0.000384854
-0.000310825
-0.000243471
-0.000182594
-0.00012795
-7.9254e-05
-3.61898e-05
1.58212e-06
3.44175e-05
6.26816e-05
8.67426e-05
0.000106967
0.000123712
0.000137328
0.000148146
0.000156482
0.00016263
0.000166892
-0.00419469
-0.00403279
-0.00394111
-0.00385424
-0.00377254
-0.00369151
-0.00360614
-0.0035182
-0.00341965
-0.00331504
-0.00320344
-0.00308486
-0.00295975
-0.0028288
-0.00269284
-0.00255277
-0.00240956
-0.00226424
-0.00211782
-0.00197133
-0.00182576
-0.00168202
-0.00154097
-0.00140344
-0.00127029
-0.00114218
-0.00101959
-0.000902947
-0.000792648
-0.00068897
-0.000592098
-0.000502127
-0.00041907
-0.000342869
-0.000273398
-0.000210473
-0.000153857
-0.000103274
-5.84149e-05
-1.89423e-05
1.54974e-05
4.52688e-05
7.07412e-05
9.22825e-05
0.000110254
0.000125009
0.000136883
0.000146198
0.000153256
0.000158379
-0.00448455
-0.00426101
-0.00411501
-0.00398852
-0.00387822
-0.00377545
-0.0036747
-0.0035811
-0.00347901
-0.00337215
-0.00325978
-0.00314141
-0.00301717
-0.00288745
-0.00275282
-0.00261403
-0.00247193
-0.00232744
-0.00218155
-0.00203524
-0.00188951
-0.00174527
-0.00160338
-0.00146468
-0.00133002
-0.00120014
-0.00107559
-0.000956816
-0.000844234
-0.000738167
-0.000638833
-0.000546356
-0.000460781
-0.000382073
-0.000310129
-0.000244781
-0.000185813
-0.000132959
-8.59192e-05
-4.43651e-05
-7.94812e-06
2.36934e-05
5.09271e-05
7.41212e-05
9.36385e-05
0.000109833
0.000123046
0.000133603
0.000141819
0.000148029
-0.00476301
-0.00454767
-0.00435011
-0.00417395
-0.00402244
-0.00388459
-0.00377908
-0.00366471
-0.00355382
-0.0034426
-0.00332797
-0.00320893
-0.00308506
-0.0029563
-0.00282289
-0.00268533
-0.00254432
-0.00240066
-0.00225524
-0.00210901
-0.00196294
-0.00181799
-0.00167499
-0.0015348
-0.0013983
-0.00126626
-0.00113932
-0.00101797
-0.000902661
-0.000793757
-0.000691517
-0.000596102
-0.000507588
-0.000425972
-0.000351174
-0.00028305
-0.0002214
-0.000165972
-0.000116478
-7.25953e-05
-3.39813e-05
-2.76227e-07
2.88875e-05
5.38796e-05
7.50659e-05
9.28044e-05
0.000107441
0.000119306
0.000128726
0.000136036
0.000181502
0.000181428
0.000180163
0.000177887
0.000174736
0.000170838
0.000166317
0.000161287
0.000155852
0.000150108
0.00014414
0.000138025
0.000131834
0.000125624
0.000119449
0.000113351
0.000107367
0.000101527
9.58543e-05
9.03669e-05
8.50786e-05
7.99984e-05
7.51323e-05
7.0483e-05
6.60509e-05
6.18343e-05
5.78301e-05
5.40338e-05
5.04401e-05
4.70431e-05
4.38363e-05
4.08132e-05
3.7967e-05
3.52908e-05
3.27779e-05
3.04213e-05
2.82141e-05
2.61495e-05
2.42206e-05
2.24202e-05
2.07418e-05
1.91779e-05
1.77234e-05
1.63676e-05
1.51093e-05
1.39442e-05
1.28576e-05
1.18501e-05
1.09166e-05
1.00514e-05
9.24995e-06
8.50812e-06
7.82186e-06
7.18738e-06
6.60113e-06
6.05977e-06
5.56015e-06
5.09933e-06
4.67452e-06
4.28313e-06
3.92271e-06
3.59098e-06
3.28582e-06
3.00524e-06
2.74737e-06
2.51051e-06
2.29303e-06
2.09346e-06
1.91042e-06
1.7426e-06
1.58881e-06
1.44794e-06
1.31898e-06
1.20097e-06
1.09305e-06
9.94389e-07
9.04275e-07
8.21983e-07
7.46985e-07
6.78509e-07
6.16398e-07
5.5943e-07
5.08448e-07
4.60767e-07
4.1984e-07
3.78911e-07
3.48153e-07
3.10369e-07
2.91943e-07
2.51478e-07
2.50843e-07
1.98005e-07
2.25519e-07
1.45554e-07
2.17114e-07
9.07519e-08
2.25468e-07
3.29866e-08
2.46627e-07
-2.31979e-08
2.71307e-07
-6.74981e-08
2.86666e-07
-8.84834e-08
2.83187e-07
-8.31136e-08
2.66263e-07
-6.83044e-08
2.65314e-07
-8.56773e-08
3.32231e-07
-1.93433e-07
5.25869e-07
-4.4905e-07
8.86758e-07
0.000179497
0.000179544
0.000178397
0.000176252
0.000173231
0.000169456
0.000165052
0.000160131
0.000154797
0.000149147
0.000143265
0.000137231
0.000131113
0.00012497
0.000118856
0.000112814
0.000106882
0.000101088
9.54572e-05
9.00082e-05
8.47546e-05
7.97059e-05
7.48683e-05
7.02448e-05
6.5836e-05
6.16406e-05
5.76555e-05
5.38766e-05
5.02985e-05
4.69157e-05
4.37218e-05
4.07103e-05
3.78746e-05
3.5208e-05
3.27036e-05
3.03547e-05
2.81545e-05
2.60962e-05
2.41728e-05
2.23775e-05
2.07035e-05
1.91437e-05
1.76928e-05
1.63402e-05
1.50848e-05
1.39223e-05
1.2838e-05
1.18326e-05
1.0901e-05
1.00374e-05
9.23749e-06
8.49703e-06
7.81197e-06
7.17858e-06
6.59331e-06
6.05282e-06
5.55399e-06
5.09386e-06
4.66967e-06
4.27883e-06
3.9189e-06
3.58761e-06
3.28285e-06
3.00261e-06
2.74505e-06
2.50846e-06
2.29123e-06
2.09187e-06
1.90901e-06
1.74136e-06
1.58772e-06
1.44698e-06
1.31814e-06
1.20023e-06
1.0924e-06
9.93813e-07
9.0377e-07
8.2154e-07
7.46595e-07
6.78168e-07
6.16097e-07
5.59166e-07
5.08216e-07
4.60564e-07
4.19662e-07
3.78757e-07
3.48016e-07
3.10252e-07
2.91836e-07
2.51389e-07
2.50757e-07
1.97941e-07
2.25449e-07
1.45511e-07
2.17055e-07
9.07226e-08
2.25415e-07
3.29676e-08
2.46582e-07
-2.32107e-08
2.71271e-07
-6.75095e-08
2.86639e-07
-8.84942e-08
2.83163e-07
-8.31223e-08
2.66235e-07
-6.82991e-08
2.65267e-07
-8.56494e-08
3.32173e-07
-1.93402e-07
5.25854e-07
-4.4906e-07
8.86911e-07
0.000175508
0.000175799
0.000174893
0.000173011
0.000170246
0.000166715
0.000162541
0.000157835
0.000152702
0.000147238
0.000141528
0.000135652
0.000129679
0.000123669
0.000117677
0.000111746
0.000105915
0.000100213
9.46664e-05
8.92935e-05
8.4109e-05
7.91229e-05
7.4342e-05
6.97699e-05
6.54077e-05
6.12543e-05
5.73074e-05
5.35629e-05
5.00162e-05
4.66616e-05
4.34933e-05
4.0505e-05
3.76903e-05
3.50426e-05
3.25553e-05
3.02218e-05
2.80355e-05
2.59896e-05
2.40774e-05
2.22921e-05
2.06271e-05
1.90752e-05
1.76316e-05
1.62854e-05
1.50358e-05
1.38784e-05
1.27988e-05
1.17975e-05
1.08697e-05
1.00095e-05
9.21261e-06
8.47485e-06
7.79222e-06
7.16101e-06
6.57768e-06
6.03894e-06
5.54166e-06
5.08293e-06
4.65998e-06
4.27024e-06
3.9113e-06
3.58089e-06
3.2769e-06
2.99735e-06
2.74041e-06
2.50437e-06
2.28762e-06
2.08869e-06
1.90621e-06
1.73888e-06
1.58553e-06
1.44506e-06
1.31645e-06
1.19874e-06
1.09109e-06
9.92662e-07
9.02761e-07
8.20652e-07
7.45819e-07
6.77485e-07
6.15497e-07
5.58641e-07
5.07751e-07
4.60159e-07
4.19304e-07
3.78446e-07
3.47738e-07
3.1002e-07
2.91617e-07
2.51214e-07
2.50582e-07
1.9781e-07
2.25306e-07
1.45426e-07
2.16935e-07
9.06665e-08
2.2531e-07
3.29279e-08
2.46491e-07
-2.32359e-08
2.71203e-07
-6.7534e-08
2.86587e-07
-8.85181e-08
2.83121e-07
-8.31439e-08
2.66185e-07
-6.82959e-08
2.65182e-07
-8.55939e-08
3.32047e-07
-1.93325e-07
5.25805e-07
-4.49066e-07
8.87208e-07
0.000169585
0.000170246
0.00016971
0.000168217
0.000165832
0.00016266
0.000158824
0.000154436
0.000149598
0.000144407
0.00013895
0.000133307
0.000127548
0.000121736
0.000115923
0.000110157
0.000104476
9.89109e-05
9.34885e-05
8.82286e-05
8.31467e-05
7.82537e-05
7.35572e-05
6.90615e-05
6.47685e-05
6.06779e-05
5.67877e-05
5.30946e-05
4.95945e-05
4.62821e-05
4.3152e-05
4.01983e-05
3.74148e-05
3.47953e-05
3.23336e-05
3.00231e-05
2.78574e-05
2.58301e-05
2.39346e-05
2.21643e-05
2.05127e-05
1.89729e-05
1.75399e-05
1.62035e-05
1.49624e-05
1.38128e-05
1.27401e-05
1.17451e-05
1.08229e-05
9.96771e-06
9.17534e-06
8.44163e-06
7.76265e-06
7.13469e-06
6.55428e-06
6.01814e-06
5.5232e-06
5.06654e-06
4.64545e-06
4.25737e-06
3.8999e-06
3.57081e-06
3.26799e-06
2.98948e-06
2.73346e-06
2.49823e-06
2.2822e-06
2.08392e-06
1.902e-06
1.73517e-06
1.58227e-06
1.44218e-06
1.31391e-06
1.19651e-06
1.08912e-06
9.90937e-07
9.01247e-07
8.19323e-07
7.44653e-07
6.7646e-07
6.14596e-07
5.57851e-07
5.07054e-07
4.5955e-07
4.18767e-07
3.77979e-07
3.47322e-07
3.09669e-07
2.9129e-07
2.50948e-07
2.50321e-07
1.97615e-07
2.25094e-07
1.45295e-07
2.16756e-07
9.05802e-08
2.25155e-07
3.28691e-08
2.46359e-07
-2.32748e-08
2.71102e-07
-6.75719e-08
2.8651e-07
-8.85569e-08
2.83061e-07
-8.31786e-08
2.66112e-07
-6.82937e-08
2.65057e-07
-8.55146e-08
3.31865e-07
-1.93217e-07
5.25739e-07
-4.49081e-07
8.87647e-07
0.000161803
0.000162966
0.000162933
0.000161954
0.000160062
0.000157357
0.00015396
0.000149982
0.000145528
0.000140692
0.000135564
0.000130225
0.000124746
0.00011919
0.000113613
0.000108062
0.000102577
9.71922e-05
9.19332e-05
8.68219e-05
8.18749e-05
7.71045e-05
7.25191e-05
6.81242e-05
6.39225e-05
5.99146e-05
5.60994e-05
5.24743e-05
4.90357e-05
4.57791e-05
4.26995e-05
3.97915e-05
3.70494e-05
3.44673e-05
3.20393e-05
2.97593e-05
2.76211e-05
2.56184e-05
2.3745e-05
2.19945e-05
2.03607e-05
1.88368e-05
1.74181e-05
1.60945e-05
1.48649e-05
1.37255e-05
1.26621e-05
1.16754e-05
1.07606e-05
9.91214e-06
9.12577e-06
8.39746e-06
7.7233e-06
7.09968e-06
6.52314e-06
5.99048e-06
5.49863e-06
5.04475e-06
4.62612e-06
4.24025e-06
3.88474e-06
3.55739e-06
3.25612e-06
2.979e-06
2.7242e-06
2.49006e-06
2.27499e-06
2.07756e-06
1.89639e-06
1.73024e-06
1.57792e-06
1.43835e-06
1.31054e-06
1.19354e-06
1.08651e-06
9.88641e-07
8.99231e-07
8.17551e-07
7.43099e-07
6.75094e-07
6.13395e-07
5.56798e-07
5.06126e-07
4.58738e-07
4.18051e-07
3.77357e-07
3.46767e-07
3.09198e-07
2.90856e-07
2.50592e-07
2.49975e-07
1.97353e-07
2.24813e-07
1.45116e-07
2.16523e-07
9.0458e-08
2.24956e-07
3.2783e-08
2.46194e-07
-2.33387e-08
2.70979e-07
-6.76354e-08
2.86423e-07
-8.86228e-08
2.82994e-07
-8.32367e-08
2.66027e-07
-6.83015e-08
2.64902e-07
-8.54222e-08
3.31638e-07
-1.93092e-07
5.25674e-07
-4.49128e-07
8.88243e-07
0.000152263
0.00015407
0.000154679
0.000154327
0.000153032
0.00015089
0.000148022
0.00014454
0.000140547
0.000136141
0.000131412
0.000126441
0.000121302
0.000116059
0.000110769
0.000105481
0.000100237
9.50717e-05
9.00131e-05
8.50842e-05
8.03032e-05
7.56834e-05
7.12349e-05
6.69641e-05
6.2875e-05
5.89693e-05
5.52466e-05
5.17054e-05
4.83429e-05
4.51552e-05
4.21381e-05
3.92866e-05
3.65957e-05
3.406e-05
3.16738e-05
2.94315e-05
2.73272e-05
2.53551e-05
2.35091e-05
2.17832e-05
2.01715e-05
1.86674e-05
1.72665e-05
1.59587e-05
1.47435e-05
1.36168e-05
1.2565e-05
1.15886e-05
1.0683e-05
9.8429e-06
9.06402e-06
8.34241e-06
7.67427e-06
7.05604e-06
6.48434e-06
5.95599e-06
5.46801e-06
5.01757e-06
4.60203e-06
4.21889e-06
3.86583e-06
3.54066e-06
3.24133e-06
2.96592e-06
2.71265e-06
2.47987e-06
2.266e-06
2.06963e-06
1.8894e-06
1.72408e-06
1.57249e-06
1.43357e-06
1.30633e-06
1.18984e-06
1.08326e-06
9.85777e-07
8.96714e-07
8.1534e-07
7.41157e-07
6.73388e-07
6.11895e-07
5.55483e-07
5.04968e-07
4.57725e-07
4.17156e-07
3.7658e-07
3.46074e-07
3.08608e-07
2.90314e-07
2.50147e-07
2.49543e-07
1.97027e-07
2.24463e-07
1.44891e-07
2.1623e-07
9.03065e-08
2.24706e-07
3.2679e-08
2.45986e-07
-2.34153e-08
2.70822e-07
-6.77102e-08
2.8631e-07
-8.87013e-08
2.82906e-07
-8.33051e-08
2.65919e-07
-6.83088e-08
2.64707e-07
-8.53076e-08
3.31355e-07
-1.92937e-07
5.25587e-07
-4.49177e-07
8.88937e-07
0.000141073
0.000143691
0.000145085
0.000145461
0.000144851
0.000143354
0.000141094
0.000138181
0.00013472
0.00013081
0.000126541
0.000121996
0.000117251
0.000112372
0.000107417
0.000102437
9.74743e-05
9.25662e-05
8.77425e-05
8.30279e-05
7.84419e-05
7.39996e-05
6.97123e-05
6.5588e-05
6.16319e-05
5.78468e-05
5.42336e-05
5.07917e-05
4.75191e-05
4.44131e-05
4.147e-05
3.86857e-05
3.60555e-05
3.35747e-05
3.12382e-05
2.90406e-05
2.69768e-05
2.5041e-05
2.32277e-05
2.15311e-05
1.99457e-05
1.84652e-05
1.70853e-05
1.57966e-05
1.45984e-05
1.34869e-05
1.24489e-05
1.14848e-05
1.05903e-05
9.76013e-06
8.99017e-06
8.27658e-06
7.61564e-06
7.00385e-06
6.43792e-06
5.91474e-06
5.43137e-06
4.98506e-06
4.57319e-06
4.19334e-06
3.84321e-06
3.52064e-06
3.22362e-06
2.95027e-06
2.69883e-06
2.46766e-06
2.25523e-06
2.06013e-06
1.88103e-06
1.7167e-06
1.56599e-06
1.42785e-06
1.30129e-06
1.1854e-06
1.07935e-06
9.82346e-07
8.93698e-07
8.1269e-07
7.38828e-07
6.71342e-07
6.10097e-07
5.53905e-07
5.03579e-07
4.5651e-07
4.16082e-07
3.7565e-07
3.4524e-07
3.07905e-07
2.89656e-07
2.49625e-07
2.49008e-07
1.9666e-07
2.2401e-07
1.44662e-07
2.15824e-07
9.01942e-08
2.24321e-07
3.26573e-08
2.45619e-07
-2.33742e-08
2.70488e-07
-6.76468e-08
2.86019e-07
-8.86427e-08
2.82655e-07
-8.32523e-08
2.65667e-07
-6.82061e-08
2.64369e-07
-8.50601e-08
3.30886e-07
-1.92581e-07
5.25249e-07
-4.48925e-07
8.89355e-07
0.000128003
0.000131686
0.000134045
0.000135253
0.000135417
0.000134651
0.000133077
0.00013081
0.000127954
0.000124608
0.000120866
0.000116812
0.000112521
0.000108061
0.000103493
9.88684e-05
9.42326e-05
8.96237e-05
8.50737e-05
8.06089e-05
7.62507e-05
7.2016e-05
6.79175e-05
6.39648e-05
6.01646e-05
5.65212e-05
5.30367e-05
4.97115e-05
4.6545e-05
4.35352e-05
4.06793e-05
3.7974e-05
3.54155e-05
3.29996e-05
3.07217e-05
2.85771e-05
2.65609e-05
2.46681e-05
2.28934e-05
2.12316e-05
1.96773e-05
1.82248e-05
1.687e-05
1.56039e-05
1.44259e-05
1.33324e-05
1.23107e-05
1.13613e-05
1.048e-05
9.66161e-06
8.90228e-06
8.19822e-06
7.54582e-06
6.9417e-06
6.38264e-06
5.8656e-06
5.38772e-06
4.94632e-06
4.53884e-06
4.1629e-06
3.81624e-06
3.49677e-06
3.20251e-06
2.93161e-06
2.68234e-06
2.45311e-06
2.24239e-06
2.0488e-06
1.87104e-06
1.70789e-06
1.55823e-06
1.42102e-06
1.29528e-06
1.18011e-06
1.0747e-06
9.7825e-07
8.90097e-07
8.09525e-07
7.36047e-07
6.68899e-07
6.07949e-07
5.52021e-07
5.01918e-07
4.55061e-07
4.14796e-07
3.74542e-07
3.44236e-07
3.07074e-07
2.88855e-07
2.49023e-07
2.48339e-07
1.96263e-07
2.23411e-07
1.44464e-07
2.15239e-07
9.01829e-08
2.2371e-07
3.28126e-08
2.44973e-07
-2.309e-08
2.69833e-07
-6.73019e-08
2.85397e-07
-8.83052e-08
2.82102e-07
-8.29561e-08
2.65156e-07
-6.78929e-08
2.63782e-07
-8.45754e-08
3.30099e-07
-1.9186e-07
5.24438e-07
-4.48083e-07
8.89181e-07
0.000113714
0.000118397
0.00012171
0.000123806
0.000124807
0.000124838
0.000124019
0.000122463
0.000120277
0.00011756
0.000114406
0.000110899
0.000107118
0.00010313
9.8998e-05
9.47758e-05
9.05101e-05
8.62409e-05
8.20022e-05
7.78222e-05
7.37242e-05
6.97266e-05
6.58443e-05
6.20885e-05
5.84674e-05
5.49868e-05
5.16503e-05
4.84597e-05
4.54153e-05
4.25164e-05
3.97612e-05
3.71473e-05
3.46717e-05
3.23307e-05
3.01206e-05
2.80373e-05
2.60765e-05
2.42335e-05
2.25037e-05
2.08822e-05
1.93641e-05
1.79441e-05
1.66185e-05
1.53787e-05
1.42242e-05
1.31519e-05
1.21493e-05
1.12169e-05
1.0351e-05
9.54643e-06
8.7995e-06
8.10658e-06
7.46417e-06
6.869e-06
6.31796e-06
5.8081e-06
5.33665e-06
4.90099e-06
4.49863e-06
4.12726e-06
3.78467e-06
3.46883e-06
3.17779e-06
2.90976e-06
2.66304e-06
2.43606e-06
2.22734e-06
2.03553e-06
1.85934e-06
1.69758e-06
1.54915e-06
1.41301e-06
1.28823e-06
1.17391e-06
1.06924e-06
9.73449e-07
8.85875e-07
8.05814e-07
7.32786e-07
6.66034e-07
6.0543e-07
5.49809e-07
4.99971e-07
4.53357e-07
4.13291e-07
3.73237e-07
3.43068e-07
3.06082e-07
2.87937e-07
2.48283e-07
2.47599e-07
1.95735e-07
2.22792e-07
1.44121e-07
2.14693e-07
8.99949e-08
2.23205e-07
3.27445e-08
2.44503e-07
-2.30793e-08
2.69414e-07
-6.72649e-08
2.85043e-07
-8.82799e-08
2.81809e-07
-8.29434e-08
2.64871e-07
-6.78251e-08
2.63396e-07
-8.43348e-08
3.29559e-07
-1.91492e-07
5.24089e-07
-4.47868e-07
8.89911e-07
9.86239e-05
0.000104265
0.000108518
0.000111517
0.000113385
0.000114246
0.000114218
0.000113412
0.000111934
0.000109885
0.000107358
0.000104437
0.000101202
9.77228e-05
9.4062e-05
9.02753e-05
8.64111e-05
8.25115e-05
7.86121e-05
7.4743e-05
7.09295e-05
6.71919e-05
6.35469e-05
6.00075e-05
5.65835e-05
5.32824e-05
5.01092e-05
4.70672e-05
4.41579e-05
4.13818e-05
3.87381e-05
3.62255e-05
3.38416e-05
3.15839e-05
2.94492e-05
2.74341e-05
2.55347e-05
2.37472e-05
2.20674e-05
2.04908e-05
1.90132e-05
1.76296e-05
1.63366e-05
1.51262e-05
1.3998e-05
1.29493e-05
1.19681e-05
1.10549e-05
1.02062e-05
9.41711e-06
8.68408e-06
8.00364e-06
7.37245e-06
6.78733e-06
6.24529e-06
5.74349e-06
5.27925e-06
4.85002e-06
4.45342e-06
4.08718e-06
3.74917e-06
3.43739e-06
3.14998e-06
2.88517e-06
2.64131e-06
2.41687e-06
2.21041e-06
2.02059e-06
1.84616e-06
1.68596e-06
1.53891e-06
1.404e-06
1.28029e-06
1.16692e-06
1.06309e-06
9.68039e-07
8.81118e-07
8.01632e-07
7.2911e-07
6.62803e-07
6.0259e-07
5.47316e-07
4.97778e-07
4.51436e-07
4.11596e-07
3.71761e-07
3.41756e-07
3.04956e-07
2.86912e-07
2.47433e-07
2.46786e-07
1.9511e-07
2.22133e-07
1.43682e-07
2.14142e-07
8.97014e-08
2.22734e-07
3.25528e-08
2.44106e-07
-2.32146e-08
2.69101e-07
-6.73913e-08
2.84816e-07
-8.84232e-08
2.81646e-07
-8.30906e-08
2.64707e-07
-6.79038e-08
2.63122e-07
-8.42434e-08
3.29158e-07
-1.91325e-07
5.2399e-07
-4.47995e-07
8.91192e-07
8.28691e-05
8.94542e-05
9.46424e-05
9.85517e-05
0.0001013
0.000103008
0.000103793
0.000103762
0.00010302
0.000101667
9.97956e-05
9.74911e-05
9.48323e-05
9.18902e-05
8.8729e-05
8.54054e-05
8.19694e-05
7.84647e-05
7.49287e-05
7.13935e-05
6.7886e-05
6.44287e-05
6.104e-05
5.77345e-05
5.45241e-05
5.14176e-05
4.84218e-05
4.55413e-05
4.27791e-05
4.01367e-05
3.76147e-05
3.52125e-05
3.2929e-05
3.07623e-05
2.871e-05
2.67695e-05
2.49375e-05
2.32109e-05
2.15859e-05
2.00587e-05
1.86256e-05
1.72819e-05
1.60249e-05
1.48469e-05
1.37478e-05
1.27252e-05
1.17676e-05
1.08756e-05
1.00459e-05
9.27391e-06
8.55626e-06
7.88963e-06
7.27083e-06
6.69682e-06
6.16474e-06
5.67187e-06
5.21561e-06
4.79352e-06
4.40328e-06
4.04272e-06
3.70978e-06
3.40252e-06
3.11912e-06
2.85788e-06
2.6172e-06
2.39557e-06
2.19161e-06
2.004e-06
1.83153e-06
1.67306e-06
1.52754e-06
1.39398e-06
1.27147e-06
1.15915e-06
1.05625e-06
9.62027e-07
8.75829e-07
7.96982e-07
7.25022e-07
6.5921e-07
5.99431e-07
5.44541e-07
4.95337e-07
4.49297e-07
4.0971e-07
3.70117e-07
3.40296e-07
3.03701e-07
2.85773e-07
2.46485e-07
2.45883e-07
1.94412e-07
2.21401e-07
1.4319e-07
2.13531e-07
8.93727e-08
2.2221e-07
3.23402e-08
2.43662e-07
-2.33619e-08
2.68748e-07
-6.75276e-08
2.8456e-07
-8.85819e-08
2.81468e-07
-8.32632e-08
2.6454e-07
-6.80174e-08
2.62854e-07
-8.41885e-08
3.28761e-07
-1.91188e-07
5.23904e-07
-4.4815e-07
8.92628e-07
6.66287e-05
7.41435e-05
8.02533e-05
8.50666e-05
8.86955e-05
9.12571e-05
9.28632e-05
9.362e-05
9.36302e-05
9.29916e-05
9.17958e-05
9.01283e-05
8.80674e-05
8.56849e-05
8.30455e-05
8.0207e-05
7.72208e-05
7.41319e-05
7.09797e-05
6.77977e-05
6.46149e-05
6.14553e-05
5.83394e-05
5.52835e-05
5.23012e-05
4.94031e-05
4.65973e-05
4.38901e-05
4.12858e-05
3.87873e-05
3.63961e-05
3.4113e-05
3.19377e-05
2.98692e-05
2.79059e-05
2.6046e-05
2.42871e-05
2.26263e-05
2.10608e-05
1.95873e-05
1.82025e-05
1.69023e-05
1.56845e-05
1.45417e-05
1.34743e-05
1.24802e-05
1.15483e-05
1.06794e-05
9.87045e-06
9.11718e-06
8.41633e-06
7.76479e-06
7.15954e-06
6.59769e-06
6.0765e-06
5.59339e-06
5.14586e-06
4.73157e-06
4.34831e-06
3.99398e-06
3.66658e-06
3.36427e-06
3.08527e-06
2.82794e-06
2.59073e-06
2.37219e-06
2.17096e-06
1.98578e-06
1.81546e-06
1.65889e-06
1.51506e-06
1.38298e-06
1.26178e-06
1.15062e-06
1.04874e-06
9.55418e-07
8.70015e-07
7.91869e-07
7.20526e-07
6.55259e-07
5.95957e-07
5.41489e-07
4.92652e-07
4.46944e-07
4.07636e-07
3.68309e-07
3.3869e-07
3.02319e-07
2.8452e-07
2.45441e-07
2.4489e-07
1.93642e-07
2.20596e-07
1.4265e-07
2.12855e-07
8.90148e-08
2.21626e-07
3.21155e-08
2.43162e-07
-2.35097e-08
2.68343e-07
-6.76602e-08
2.84261e-07
-8.87418e-08
2.8126e-07
-8.34485e-08
2.64359e-07
-6.81559e-08
2.62581e-07
-8.41623e-08
3.28358e-07
-1.91065e-07
5.23808e-07
-4.483e-07
8.94146e-07
5.00886e-05
5.85051e-05
6.55124e-05
7.12116e-05
7.57093e-05
7.91173e-05
8.15433e-05
8.30902e-05
8.3858e-05
8.39423e-05
8.34335e-05
8.24157e-05
8.09673e-05
7.91597e-05
7.70581e-05