/*--------------------------------*- C++ -*----------------------------------*\
| =========                 |                                                 |
| \\      /  F ield         | OpenFOAM: The Open Source CFD Toolbox           |
|  \\    /   O peration     | Version:  2412                                  |
|   \\  /    A nd           | Website:  www.openfoam.com                      |
|    \\/     M anipulation  |                                                 |
\*---------------------------------------------------------------------------*/
FoamFile
{
    version     2.0;
    format      ascii;
    arch        "LSB;label=32;scalar=64";
    class       surfaceScalarField;
    location    "25";
    object      phi;
}
// * * * * * * * * * * * * * * * * * * * * * * * * * * * * * * * * * * * * * //

dimensions      [0 3 -1 0 0 0 0];

oriented        oriented;

internalField   nonuniform List<scalar> 
126304
(
0.00505063
1.29711e-07
2.09417e-11
0.00505025
3.78241e-07
5.722e-11
0.00504964
6.13501e-07
7.90563e-11
0.0050488
8.37196e-07
8.9553e-11
0.00504775
1.05086e-06
9.55257e-11
0.00504649
1.25547e-06
1.02897e-10
0.00504504
1.45215e-06
1.14391e-10
0.0050434
1.64405e-06
1.27614e-10
0.00504156
1.83817e-06
1.32711e-10
0.00503951
2.04586e-06
1.11576e-10
0.00503723
2.28074e-06
4.17582e-11
0.00503468
2.55454e-06
-9.5284e-11
0.0050318
2.87244e-06
-3.05098e-10
0.00502857
3.22998e-06
-5.7395e-10
0.00502496
3.61288e-06
-8.68218e-10
0.00502096
3.99985e-06
-1.14026e-09
0.0050166
4.3671e-06
-1.33883e-09
0.00501191
4.6933e-06
-1.4201e-09
0.00500694
4.96335e-06
-1.35598e-09
0.00500177
5.17022e-06
-1.13849e-09
0.00499646
5.31496e-06
-7.79589e-10
0.00499106
5.40514e-06
-3.07064e-10
0.0049856
5.45257e-06
2.42018e-10
0.00498013
5.47081e-06
8.28014e-10
0.00497466
5.47315e-06
1.41394e-09
0.00496918
5.47119e-06
1.96906e-09
0.00496371
5.47401e-06
2.47087e-09
0.00495822
5.48802e-06
2.90561e-09
0.0049527
5.51714e-06
3.2673e-09
0.00494713
5.56322e-06
3.55616e-09
0.0049415
5.62656e-06
3.7768e-09
0.00493579
5.70646e-06
3.93651e-09
0.00492998
5.80158e-06
4.04388e-09
0.00492407
5.91033e-06
4.10773e-09
0.00491803
6.03107e-06
4.13633e-09
0.00491187
6.16229e-06
4.1371e-09
0.00490556
6.30266e-06
4.11634e-09
0.0048991
6.45107e-06
4.07924e-09
0.00489249
6.60662e-06
4.02982e-09
0.00488572
6.76863e-06
3.97121e-09
0.00487878
6.93658e-06
3.90581e-09
0.00487167
7.11008e-06
3.83541e-09
0.00486437
7.28886e-06
3.76128e-09
0.0048569
7.47275e-06
3.6843e-09
0.00484923
7.66161e-06
3.6051e-09
0.00484137
7.85539e-06
3.52407e-09
0.00483332
8.05404e-06
3.44144e-09
0.00482506
8.25756e-06
3.35742e-09
0.00481659
8.46598e-06
3.27213e-09
0.0048079
8.67936e-06
3.18566e-09
0.004799
8.89783e-06
3.09806e-09
0.00478988
9.12169e-06
3.00932e-09
0.00478052
9.35176e-06
2.9195e-09
0.00477093
9.59047e-06
2.82878e-09
9.84464e-06
0.00476108
2.73807e-09
0.00505063
2.59357e-07
0.00505025
7.56268e-07
0.00504964
1.22665e-06
0.0050488
1.67389e-06
0.00504775
2.10107e-06
0.00504649
2.51013e-06
0.00504504
2.90337e-06
0.0050434
3.28702e-06
0.00504156
3.67504e-06
0.00503952
4.09004e-06
0.00503724
4.55917e-06
0.00503469
5.10586e-06
0.00503182
5.74046e-06
0.0050286
6.45417e-06
0.00502499
7.21863e-06
0.005021
7.9914e-06
0.00501664
8.72511e-06
0.00501196
9.37723e-06
0.005007
9.91755e-06
0.00500184
1.0332e-05
0.00499653
1.06226e-05
0.00499114
1.08042e-05
0.00498569
1.09005e-05
0.00498022
1.09383e-05
0.00497475
1.09442e-05
0.00496928
1.09413e-05
0.00496381
1.09476e-05
0.00495832
1.09761e-05
0.0049528
1.10345e-05
0.00494724
1.11266e-05
0.00494161
1.1253e-05
0.0049359
1.14124e-05
0.0049301
1.16021e-05
0.0049242
1.1819e-05
0.00491817
1.20598e-05
0.00491201
1.23215e-05
0.00490571
1.26015e-05
0.00489926
1.28975e-05
0.00489266
1.32078e-05
0.0048859
1.3531e-05
0.00487897
1.3866e-05
0.00487187
1.42121e-05
0.00486459
1.45687e-05
0.00485712
1.49355e-05
0.00484947
1.53122e-05
0.00484163
1.56987e-05
0.00483359
1.60949e-05
0.00482535
1.65008e-05
0.0048169
1.69164e-05
0.00480823
1.73419e-05
0.00479935
1.77774e-05
0.00479025
1.82236e-05
0.00478092
1.8682e-05
0.00477135
1.91574e-05
1.96628e-05
0.00476154
0.00505063
3.88832e-07
0.00505025
1.13375e-06
0.00504964
1.83894e-06
0.0050488
2.5094e-06
0.00504775
3.14978e-06
0.0050465
3.763e-06
0.00504505
4.3525e-06
0.00504341
4.92757e-06
0.00504158
5.50905e-06
0.00503954
6.13064e-06
0.00503726
6.83293e-06
0.00503472
7.65094e-06
0.00503186
8.6003e-06
0.00502864
9.66803e-06
0.00502505
1.08119e-05
0.00502107
1.19688e-05
0.00501673
1.30678e-05
0.00501206
1.40454e-05
0.00500712
1.48563e-05
0.00500198
1.54793e-05
0.00499668
1.59171e-05
0.00499129
1.61919e-05
0.00498586
1.63387e-05
0.0049804
1.63976e-05
0.00497493
1.64082e-05
0.00496947
1.64051e-05
0.004964
1.64154e-05
0.00495852
1.64583e-05
0.00495301
1.65456e-05
0.00494745
1.66831e-05
0.00494183
1.68717e-05
0.00493614
1.71095e-05
0.00493035
1.73925e-05
0.00492445
1.77162e-05
0.00491843
1.80756e-05
0.00491229
1.84664e-05
0.004906
1.88844e-05
0.00489958
1.93265e-05
0.00489299
1.979e-05
0.00488625
2.02727e-05
0.00487934
2.07732e-05
0.00487227
2.12902e-05
0.00486501
2.1823e-05
0.00485758
2.2371e-05
0.00484995
2.29337e-05
0.00484214
2.3511e-05
0.00483413
2.41027e-05
0.00482593
2.47088e-05
0.00481751
2.53294e-05
0.00480889
2.59645e-05
0.00480005
2.66144e-05
0.004791
2.72801e-05
0.00478172
2.79637e-05
0.0047722
2.86714e-05
2.94218e-05
0.00476244
0.00505063
5.18051e-07
0.00505025
1.51043e-06
0.00504964
2.44994e-06
0.00504881
3.34312e-06
0.00504776
4.19624e-06
0.00504651
5.01318e-06
0.00504506
5.7985e-06
0.00504343
6.56452e-06
0.0050416
7.33877e-06
0.00503956
8.16591e-06
0.0050373
9.09973e-06
0.00503476
1.01868e-05
0.00503191
1.14481e-05
0.00502871
1.28667e-05
0.00502514
1.4387e-05
0.00502118
1.59253e-05
0.00501686
1.73879e-05
0.00501222
1.86903e-05
0.0050073
1.97723e-05
0.00500217
2.06051e-05
0.0049969
2.11922e-05
0.00499153
2.15626e-05
0.00498611
2.17623e-05
0.00498066
2.18445e-05
0.0049752
2.18616e-05
0.00496975
2.18594e-05
0.00496429
2.18742e-05
0.00495882
2.19315e-05
0.00495332
2.20472e-05
0.00494777
2.2229e-05
0.00494216
2.24785e-05
0.00493648
2.2793e-05
0.00493071
2.31675e-05
0.00492483
2.3596e-05
0.00491883
2.4072e-05
0.00491271
2.45896e-05
0.00490645
2.51435e-05
0.00490004
2.57294e-05
0.00489349
2.63437e-05
0.00488678
2.69837e-05
0.00487991
2.76473e-05
0.00487286
2.83328e-05
0.00486565
2.90392e-05
0.00485825
2.97657e-05
0.00485067
3.05117e-05
0.00484291
3.12769e-05
0.00483495
3.20611e-05
0.00482679
3.28643e-05
0.00481844
3.36864e-05
0.00480987
3.45275e-05
0.0048011
3.53881e-05
0.00479211
3.6269e-05
0.0047829
3.71728e-05
0.00477347
3.81068e-05
3.90928e-05
0.0047638
0.00505063
6.46934e-07
0.00505025
1.88601e-06
0.00504964
3.05922e-06
0.00504881
4.17449e-06
0.00504777
5.23971e-06
0.00504652
6.25977e-06
0.00504508
7.24033e-06
0.00504345
8.19665e-06
0.00504162
9.16281e-06
0.0050396
1.01941e-05
0.00503734
1.13574e-05
0.00503481
1.27106e-05
0.00503198
1.42801e-05
0.0050288
1.60455e-05
0.00502525
1.79382e-05
0.00502132
1.98546e-05
0.00501703
2.16786e-05
0.00501242
2.3305e-05
0.00500753
2.46585e-05
0.00500243
2.5703e-05
0.00499718
2.64419e-05
0.00499184
2.69109e-05
0.00498643
2.71666e-05
0.004981
2.72748e-05
0.00497556
2.73006e-05
0.00497012
2.73009e-05
0.00496467
2.73208e-05
0.00495921
2.73925e-05
0.00495372
2.75359e-05
0.00494819
2.77607e-05
0.0049426
2.80691e-05
0.00493694
2.84582e-05
0.00493118
2.89218e-05
0.00492533
2.94524e-05
0.00491936
3.00422e-05
0.00491326
3.06838e-05
0.00490703
3.13707e-05
0.00490067
3.20975e-05
0.00489415
3.28597e-05
0.00488748
3.36538e-05
0.00488065
3.44773e-05
0.00487365
3.53281e-05
0.00486649
3.62047e-05
0.00485915
3.71063e-05
0.00485163
3.80319e-05
0.00484392
3.89813e-05
0.00483603
3.99541e-05
0.00482795
4.09501e-05
0.00481966
4.19694e-05
0.00481118
4.30119e-05
0.00480249
4.4078e-05
0.00479359
4.51686e-05
0.00478447
4.62862e-05
0.00477514
4.74385e-05
4.8648e-05
0.00476559
0.00505063
7.75405e-07
0.00505025
2.26024e-06
0.00504965
3.66636e-06
0.00504882
5.0029e-06
0.00504778
6.27945e-06
0.00504654
7.50188e-06
0.0050451
8.67697e-06
0.00504347
9.82279e-06
0.00504166
1.09798e-05
0.00503964
1.22136e-05
0.00503739
1.36038e-05
0.00503488
1.52196e-05
0.00503207
1.70929e-05
0.00502891
1.92002e-05
0.00502539
2.14605e-05
0.0050215
2.37512e-05
0.00501724
2.59338e-05
0.00501266
2.7883e-05
0.00500781
2.95085e-05
0.00500275
3.07666e-05
0.00499753
3.16605e-05
0.00499221
3.22316e-05
0.00498683
3.25469e-05
0.00498142
3.26844e-05
0.004976
3.27213e-05
0.00497057
3.27258e-05
0.00496514
3.27517e-05
0.0049597
3.28377e-05
0.00495423
3.30077e-05
0.00494871
3.32739e-05
0.00494314
3.36392e-05
0.0049375
3.41002e-05
0.00493177
3.46499e-05
0.00492595
3.52795e-05
0.00492001
3.59797e-05
0.00491395
3.67418e-05
0.00490776
3.75581e-05
0.00490144
3.84221e-05
0.00489497
3.93285e-05
0.00488835
4.0273e-05
0.00488158
4.12525e-05
0.00487464
4.22645e-05
0.00486754
4.33073e-05
0.00486026
4.43797e-05
0.00485281
4.54806e-05
0.00484519
4.66095e-05
0.00483737
4.7766e-05
0.00482937
4.89498e-05
0.00482118
5.01607e-05
0.0048128
5.13988e-05
0.00480421
5.26643e-05
0.00479542
5.39579e-05
0.00478643
5.52817e-05
0.00477722
5.66424e-05
5.80602e-05
0.00476781
0.00505063
9.0334e-07
0.00505026
2.63289e-06
0.00504965
4.27094e-06
0.00504883
5.82778e-06
0.00504779
7.31473e-06
0.00504656
8.73864e-06
0.00504512
1.01074e-05
0.00504351
1.14417e-05
0.0050417
1.27883e-05
0.00503969
1.42227e-05
0.00503745
1.58369e-05
0.00503496
1.77113e-05
0.00503217
1.98835e-05
0.00502905
2.23271e-05
0.00502556
2.49496e-05
0.0050217
2.76098e-05
0.00501748
3.01478e-05
0.00501295
3.24186e-05
0.00500814
3.43167e-05
0.00500312
3.57905e-05
0.00499793
3.68425e-05
0.00499265
3.75197e-05
0.00498729
3.78986e-05
0.00498191
3.80689e-05
0.00497651
3.812e-05
0.00497111
3.81305e-05
0.0049657
3.81632e-05
0.00496027
3.82631e-05
0.00495482
3.84587e-05
0.00494933
3.87644e-05
0.00494378
3.91839e-05
0.00493817
3.97137e-05
0.00493247
4.03461e-05
0.00492668
4.10709e-05
0.00492078
4.18776e-05
0.00491477
4.27562e-05
0.00490863
4.36978e-05
0.00490236
4.46947e-05
0.00489595
4.57408e-05
0.00488939
4.68313e-05
0.00488268
4.79622e-05
0.00487581
4.91309e-05
0.00486878
5.0335e-05
0.00486159
5.15731e-05
0.00485423
5.28441e-05
0.00484669
5.41471e-05
0.00483897
5.54815e-05
0.00483108
5.68471e-05
0.00482299
5.82435e-05
0.00481472
5.96705e-05
0.00480626
6.11283e-05
0.0047976
6.2617e-05
0.00478874
6.41383e-05
0.00477969
6.56959e-05
0.00477045
6.73016e-05
0.0047612
-1.18699e-07
2.66485e-09
0.00476078
4.12686e-07
2.61205e-09
0.0047598
9.78657e-07
2.56405e-09
0.00475822
1.58224e-06
2.51182e-09
0.00475599
2.22637e-06
2.45493e-09
0.00475307
2.91455e-06
2.39366e-09
0.00474942
3.65069e-06
2.32789e-09
0.00474498
4.43915e-06
2.25758e-09
0.00473969
5.28481e-06
2.18248e-09
0.0047335
6.19313e-06
2.10246e-09
0.00472632
7.1702e-06
2.01712e-09
0.0047181
8.22285e-06
1.9262e-09
0.00470874
9.35876e-06
1.82947e-09
0.00469815
1.05865e-05
1.72872e-09
0.00468623
1.19159e-05
1.61694e-09
0.00467287
1.3358e-05
1.51165e-09
0.00465795
1.4925e-05
1.37241e-09
0.00464131
1.66313e-05
1.21999e-09
0.00462282
1.8493e-05
1.07394e-09
0.00460229
2.05286e-05
9.07728e-10
0.00457953
2.27594e-05
7.50909e-10
0.00455432
2.52098e-05
5.88166e-10
0.00452641
2.79082e-05
4.16676e-10
0.00449552
3.08877e-05
2.35889e-10
0.00446134
3.41869e-05
4.60066e-11
0.00442348
3.78512e-05
-1.52829e-10
0.00438155
4.1934e-05
-3.59716e-10
0.00433505
4.64992e-05
-5.74152e-10
0.00428343
5.16229e-05
-7.95482e-10
0.00422603
5.73967e-05
-1.02285e-09
0.0041621
6.39315e-05
-1.25548e-09
0.00409074
7.13622e-05
-1.49289e-09
0.00401089
7.98538e-05
-1.73428e-09
0.00392129
8.96079e-05
-1.97953e-09
0.00382042
0.000100871
-2.2285e-09
0.00370647
0.000113944
-2.48108e-09
0.0035773
0.000129183
-2.73767e-09
0.0034303
0.000147003
-2.99915e-09
0.00326244
0.000167862
-3.26642e-09
0.00307023
0.000192213
-3.5406e-09
0.00284982
0.000220415
-3.82247e-09
0.00259726
0.000252558
-4.11136e-09
0.0023091
0.000288165
-4.40286e-09
0.00198338
0.00032573
-4.68407e-09
0.00162137
0.000362013
-4.92526e-09
0.00123033
0.000391047
-5.06759e-09
0.000827456
0.000402876
-5.00576e-09
0.000445501
0.000381959
-4.57119e-09
0.000140814
0.000304691
-3.5249e-09
0.000140816
-1.58074e-09
0.00476029
1.13138e-06
0.00475851
2.19242e-06
0.00475616
3.32249e-06
0.00475322
4.52734e-06
0.00474963
5.81319e-06
0.00474536
7.18705e-06
0.00474035
8.65678e-06
0.00473456
1.02311e-05
0.00472793
1.19199e-05
0.00472038
1.37341e-05
0.00471187
1.56858e-05
0.0047023
1.77887e-05
0.0046916
2.00583e-05
0.00467968
2.25118e-05
0.00466643
2.51687e-05
0.00465173
2.80511e-05
0.00463547
3.11838e-05
0.00461751
3.45953e-05
0.00459768
3.83179e-05
0.00457582
4.23887e-05
0.00455173
4.68503e-05
0.00452519
5.17519e-05
0.00449595
5.71502e-05
0.00446373
6.31114e-05
0.0044282
6.97128e-05
0.00438901
7.70451e-05
0.00434572
8.52155e-05
0.00429787
9.43514e-05
0.00424489
0.000104605
0.00418613
0.000116159
0.00412083
0.000129234
0.00404809
0.000144099
0.00396686
0.000161082
0.00387589
0.000180582
0.00377367
0.000203088
0.00365843
0.00022919
0.00352802
0.000259592
0.00337991
0.000295106
0.00321115
0.000336621
0.00301836
0.00038501
0.00279783
0.000440944
0.00254584
0.000504545
0.0022592
0.000574802
0.00193629
0.000648647
0.00157871
0.000719589
0.001194
0.000775759
0.000799485
0.000797391
0.000427572
0.000753872
0.000132562
0.000599701
0.000273378
0.00475848
5.09702e-06
0.00475399
6.68354e-06
0.00474894
8.37312e-06
0.00474329
1.01744e-05
0.004737
1.2097e-05
0.00473004
1.41513e-05
0.00472235
1.63494e-05
0.00471387
1.87044e-05
0.00470456
2.12311e-05
0.00469435
2.39459e-05
0.00468317
2.68673e-05
0.00467094
3.00157e-05
0.00465759
3.34144e-05
0.00464301
3.70893e-05
0.00462711
4.10696e-05
0.00460977
4.53887e-05
0.00459087
5.00839e-05
0.00457027
5.51979e-05
0.00454781
6.07796e-05
0.00452331
6.68846e-05
0.00449658
7.35769e-05
0.00446741
8.09305e-05
0.00443552
8.90309e-05
0.00440066
9.79773e-05
0.00436249
0.000107886
0.00432064
0.000118893
0.00427469
0.000131159
0.00422417
0.000144875
0.00416851
0.000160269
0.00410705
0.000177614
0.00403904
0.00019724
0.0039636
0.000219545
0.00387966
0.000245015
0.003786
0.000274243
0.00368115
0.000307946
0.00356335
0.000346989
0.00343054
0.000392396
0.00328031
0.00044534
0.00310984
0.000507089
0.00291599
0.000578863
0.00269538
0.000661553
0.00244472
0.000755199
0.00216139
0.000858135
0.0018444
0.000965639
0.00149602
0.00106797
0.00112421
0.00114756
0.000746338
0.00117527
0.00039431
0.0011059
0.000119882
0.000874129
0.00039326
0.0047558
1.30921e-05
0.00474729
1.51969e-05
0.00473822
1.74383e-05
0.00472857
1.9828e-05
0.00471829
2.23788e-05
0.00470733
2.51052e-05
0.00469566
2.8023e-05
0.00468321
3.11501e-05
0.00466994
3.45062e-05
0.00465577
3.81134e-05
0.00464064
4.19961e-05
0.00462448
4.6182e-05
0.00460719
5.0702e-05
0.00458869
5.55907e-05
0.00456887
6.08874e-05
0.00454762
6.66363e-05
0.00452482
7.28878e-05
0.00450032
7.9699e-05
0.00447396
8.7135e-05
0.00444558
9.52705e-05
0.00441496
0.000104191
0.0043819
0.000113996
0.00434613
0.000124798
0.00430737
0.000136732
0.00426531
0.000149952
0.00421956
0.00016464
0.00416971
0.00018101
0.00411527
0.000199317
0.00405567
0.000219863
0.00399028
0.00024301
0.00391833
0.000269193
0.00383893
0.00029894
0.00375106
0.000332887
0.0036535
0.000371805
0.00354482
0.000416627
0.00342334
0.000468465
0.00328711
0.000528624
0.00313387
0.00059858
0.00296106
0.000679897
0.0027659
0.00077403
0.00254551
0.000881941
0.00229729
0.00100342
0.00201947
0.00113595
0.00171205
0.00127306
0.00137821
0.00140181
0.00102641
0.00149936
0.000673539
0.00152814
0.000349673
0.00142977
0.000101926
0.00112188
0.000495186
0.0047523
2.63782e-05
0.00473851
2.89897e-05
0.00472418
3.17709e-05
0.00470927
3.47366e-05
0.00469374
3.79033e-05
0.00467756
4.12893e-05
0.00466067
4.49146e-05
0.00464302
4.88015e-05
0.00462455
5.29747e-05
0.0046052
5.7462e-05
0.0045849
6.22941e-05
0.00456358
6.75054e-05
0.00454115
7.31347e-05
0.00451751
7.92256e-05
0.00449257
8.58272e-05
0.00446621
9.29951e-05
0.00443831
0.000100792
0.00440872
0.000109291
0.00437728
0.000118572
0.00434382
0.00012873
0.00430814
0.000139872
0.00427001
0.000152122
0.00422919
0.000165623
0.00418538
0.000180542
0.00413826
0.000197073
0.00408745
0.000215444
0.00403254
0.000235923
0.00397303
0.000258826
0.00390836
0.00028453
0.00383789
0.000313484
0.00376085
0.000346227
0.00367639
0.000383405
0.00358348
0.000425799
0.00348094
0.000474343
0.00336741
0.00053016
0.0032413
0.000594571
0.00310082
0.000669108
0.00294393
0.000755465
0.00276844
0.000855384
0.00257208
0.000970392
0.00235271
0.00110132
0.00210868
0.00124744
0.00183944
0.0014052
0.00154633
0.00156617
0.00123376
0.00171438
0.000910658
0.00182246
0.000592588
0.00184621
0.000304818
0.00171754
8.42379e-05
0.00134246
0.000579424
0.00474804
4.61468e-05
0.00472778
4.92468e-05
0.004707
5.25501e-05
0.00468567
5.60746e-05
0.00466373
5.98403e-05
0.00464115
6.38693e-05
0.00461788
6.81855e-05
0.00459386
7.28158e-05
0.00456905
7.77897e-05
0.00454337
8.31406e-05
0.00451676
8.89054e-05
0.00448914
9.51256e-05
0.00446043
0.000101848
0.00443053
0.000109124
0.00439934
0.000117014
0.00436675
0.000125585
0.00433263
0.000134913
0.00429684
0.000145083
0.00425921
0.000156196
0.00421958
0.000168363
0.00417774
0.000181714
0.00413346
0.000196399
0.00408649
0.00021259
0.00403655
0.000230488
0.00398329
0.000250327
0.00392636
0.00027238
0.00386531
0.000296968
0.00379967
0.000324472
0.00372886
0.00035534
0.00365223
0.000390107
0.00356905
0.00042941
0.00347845
0.00047401
0.00337943
0.000524815
0.00327087
0.000582907
0.00315146
0.000649562
0.00301978
0.000726259
0.00287422
0.00081467
0.0027131
0.000916585
0.00253474
0.00103374
0.00233763
0.0011675
0.00212073
0.00131821
0.00188387
0.00148431
0.00162832
0.00166074
0.00135752
0.00183697
0.00107771
0.0019942
0.000798566
0.0021016
0.00053337
0.00211141
0.000297574
0.00195333
0.000102607
0.00153742
0.000682031
0.0047431
7.34954e-05
0.00471529
7.70567e-05
0.00468698
8.08582e-05
0.00465814
8.49188e-05
0.00462872
8.92614e-05
0.00459867
9.39112e-05
0.00456796
9.8896e-05
0.00453653
0.000104247
0.00450432
0.000109998
0.00447128
0.000116189
0.00443732
0.000122862
0.00440238
0.000130066
0.00436637
0.000137855
0.0043292
0.000146291
0.00429078
0.000155443
0.00425097
0.000165389
0.00420967
0.000176218
0.00416672
0.000188032
0.00412197
0.000200947
0.00407524
0.000215094
0.00402632
0.000230626
0.00397501
0.000247717
0.00392103
0.00026657
0.00386409
0.000287419
0.00380388
0.000310538
0.00374002
0.000336247
0.00367207
0.00036492
0.00359954
0.000396999
0.00352187
0.000433005
0.00343842
0.000473556
0.00334845
0.000519385
0.0032511
0.00057136
0.00314541
0.000630507
0.00303028
0.000698033
0.00290451
0.000775335
0.00276677
0.000863996
0.0026157
0.00096574
0.00244997
0.00108231
0.00226848
0.00121523
0.00207062
0.00136536
0.00185664
0.00153219
0.00162826
0.00171269
0.00138925
0.00189975
0.00114616
0.00208007
0.000908711
0.00223164
0.000689408
0.0023209
0.000501013
0.0022998
0.000347796
0.00210655
0.000210541
0.00167468
0.000892572
-2.7282e-05
2.72824e-05
-3.55457e-10
-7.94831e-05
5.22024e-05
-1.33767e-09
-0.000138492
5.90111e-05
-2.53658e-09
-0.000193725
5.52367e-05
-3.83579e-09
-0.000239323
4.56037e-05
-5.14145e-09
-0.000272276
3.29593e-05
-6.39282e-09
-0.000291241
1.89729e-05
-7.56925e-09
-0.000295687
4.4545e-06
-8.66447e-09
-0.000286292
-9.38616e-06
-9.29465e-09
-0.000263534
-2.27474e-05
-9.89492e-09
-0.00022803
-3.54943e-05
-1.0246e-08
-0.000180561
-4.74589e-05
-1.02775e-08
-0.000121948
-5.86024e-05
-9.93764e-09
-5.30245e-05
-6.89147e-05
-9.15591e-09
2.53991e-05
-7.84157e-05
-7.84929e-09
0.000112469
-8.70639e-05
-5.91879e-09
0.000207379
-9.49071e-05
-3.25771e-09
0.000309335
-0.000101956
2.32304e-10
0.000417557
-0.000108226
4.61072e-09
0.000531281
-0.000113734
9.98636e-09
0.000649765
-0.0001185
1.57132e-08
0.000772286
-0.000122542
2.19481e-08
0.000898133
-0.000125875
2.74801e-08
0.00102662
-0.000128515
3.18176e-08
0.00115707
-0.000130486
3.5227e-08
0.00128885
-0.00013182
3.6747e-08
0.00142136
-0.00013255
3.69303e-08
0.00155404
-0.000132707
3.59472e-08
0.00168633
-0.000132326
3.4165e-08
0.00181773
-0.000131439
3.19189e-08
0.00194779
-0.000130081
2.94641e-08
0.00207605
-0.000128288
2.69685e-08
0.00220212
-0.000126095
2.45211e-08
0.00232563
-0.000123539
2.21595e-08
0.00244627
-0.000120656
1.98829e-08
0.00256374
-0.000117483
1.76751e-08
0.00267778
-0.000114055
1.55153e-08
0.00278817
-0.000110409
1.33842e-08
0.00289474
-0.000106578
1.127e-08
0.00299733
-0.000102597
9.16837e-09
0.00309582
-9.84981e-05
7.08121e-09
0.00319012
-9.43123e-05
5.02005e-09
0.00328019
-9.00693e-05
2.99999e-09
0.00336599
-8.5797e-05
1.04038e-09
0.00344751
-8.15212e-05
-8.34436e-10
0.00352478
-7.72661e-05
-2.59935e-09
0.00359784
-7.30534e-05
-4.22834e-09
0.00366674
-6.89022e-05
-5.69437e-09
0.00373158
-6.48284e-05
-6.975e-09
-6.08439e-05
0.00379243
-8.05863e-09
-2.3955e-05
5.12374e-05
-6.98629e-05
9.81103e-05
-0.000121516
0.000110665
-0.000169665
0.000103385
-0.000209018
8.49572e-05
-0.000236821
6.07618e-05
-0.000251781
3.39326e-05
-0.000253193
5.86723e-06
-0.000241895
-2.06839e-05
-0.000218028
-4.66145e-05
-0.000182116
-7.14065e-05
-0.000134836
-9.47396e-05
-7.69043e-05
-0.000116534
-9.02534e-06
-0.000136794
6.79584e-05
-0.000155399
0.000153358
-0.000172463
0.000246415
-0.000187965
0.000346381
-0.000201922
0.00045252
-0.000214364
0.000564107
-0.000225322
0.000680435
-0.000234828
0.000800808
-0.000242915
0.000924543
-0.000249609
0.00105097
-0.000254943
0.00117944
-0.000258958
0.00130933
-0.000261713
0.00144006
-0.000263272
0.00157105
-0.000263697
0.00170177
-0.000263053
0.00183174
-0.000261403
0.00196047
-0.000258816
0.00208754
-0.00025536
0.00221255
-0.000251105
0.00233514
-0.000246123
0.00245497
-0.000240485
0.00257175
-0.000234265
0.00268522
-0.000227532
0.00279517
-0.000220358
0.00290141
-0.000212811
0.00300377
-0.000204959
0.00310214
-0.000196866
0.00319642
-0.000188595
0.00328655
-0.000180205
0.00337251
-0.000171751
0.00345427
-0.000163285
0.00353186
-0.000154855
0.00360531
-0.000146505
0.00367468
-0.000138273
0.00374004
-0.000130191
-0.00012228
0.00380148
-1.8115e-05
6.93524e-05
-5.13898e-05
0.000131385
-8.89104e-05
0.000148185
-0.000123494
0.000137969
-0.00015092
0.000112383
-0.000168943
7.87856e-05
-0.000176508
4.14973e-05
-0.000171985
1.34421e-06
-0.00015732
-3.53491e-05
-0.000131505
-7.2429e-05
-9.49344e-05
-0.000107977
-4.81171e-05
-0.000141557
8.42211e-06
-0.000173073
7.40489e-05
-0.00020242
0.000148268
-0.000229618
0.000230423
-0.000254618
0.000319878
-0.000277419
0.000415988
-0.000298033
0.000518106
-0.000316482
0.000625581
-0.000332797
0.000737769
-0.000347016
0.000854029
-0.000359175
0.000973728
-0.000369309
0.00109624
-0.000377452
0.00122094
-0.000383661
0.00134724
-0.000388014
0.00147457
-0.000390601
0.00160239
-0.000391511
0.00173017
-0.000390834
0.00185742
-0.000388661
0.0019837
-0.000385089
0.00210856
-0.000380218
0.0022316
-0.00037415
0.00235247
-0.000366989
0.00247082
-0.000358841
0.00258637
-0.000349811
0.00269884
-0.000340005
0.00280801
-0.000329527
0.00291368
-0.000318481
0.00301569
-0.000306966
0.0031139
-0.000295078
0.00320822
-0.00028291
0.00329856
-0.000270552
0.0033849
-0.000258086
0.0034672
-0.00024559
0.00354548
-0.000233136
0.00361977
-0.000220791
0.00369011
-0.000208611
0.00375656
-0.000196644
-0.000184918
0.0038192
-7.90634e-06
7.72587e-05
-2.4449e-05
0.000147928
-4.24852e-05
0.000166221
-5.82312e-05
0.000153715
-6.92154e-05
0.000123367
-7.38098e-05
8.33801e-05
-7.07267e-05
3.84141e-05
-6.02328e-05
-9.14961e-06
-4.05423e-05
-5.50396e-05
-1.21135e-05
-0.000100858
2.4972e-05
-0.000145063
7.0741e-05
-0.000187326
0.000124981
-0.000227312
0.000187382
-0.000264822
0.000257528
-0.000299764
0.000334985
-0.000332075
0.000419279
-0.000361713
0.000509905
-0.000388659
0.000606335
-0.000412912
0.000708021
-0.000434484
0.000814408
-0.000453402
0.000924929
-0.000469697
0.00103902
-0.000483397
0.0011561
-0.000494537
0.00127561
-0.000503168
0.00139698
-0.000509382
0.00151967
-0.000513291
0.00164316
-0.000515003
0.00176695
-0.000514626
0.00189057
-0.000512276
0.00201355
-0.000508072
0.00213547
-0.000502142
0.00225594
-0.000494615
0.00237457
-0.000485627
0.00249105
-0.000475312
0.00260505
-0.00046381
0.0027163
-0.000451259
0.00282457
-0.000437795
0.00292964
-0.000423553
0.00303134
-0.000408666
0.00312952
-0.000393261
0.00322408
-0.000377463
0.00331491
-0.000361387
0.00340197
-0.000345146
0.00348523
-0.000328844
0.00356467
-0.000312578
0.00364031
-0.000296435
0.00371219
-0.000280492
0.00378036
-0.000264813
-0.00024943
0.00384488
5.59544e-06
7.16633e-05
1.05846e-05
0.000142939
1.65187e-05
0.000160287
2.29445e-05
0.000147289
3.0833e-05
0.000115478
4.13343e-05
7.28788e-05
5.58513e-05
2.3897e-05
7.40904e-05
-2.73887e-05
9.84147e-05
-7.93639e-05
0.000128961
-0.000131404
0.000166195
-0.000182297
0.000210307
-0.000231438
0.000261392
-0.000278397
0.000319436
-0.000322867
0.000384312
-0.00036464
0.000455805
-0.000403568
0.000533632
-0.00043954
0.000617453
-0.000472481
0.000706881
-0.00050234
0.000801492
-0.000529094
0.00090083
-0.00055274
0.00100442
-0.000573289
0.00111178
-0.000590753
0.00122239
-0.000605147
0.00133573
-0.000616511
0.00145129
-0.000624938
0.00156855
-0.00063055
0.00168702
-0.000633472
0.00180621
-0.000633823
0.00192567
-0.000631733
0.00204494
-0.000627342
0.00216359
-0.000620797
0.00228123
-0.000612254
0.00239748
-0.000601874
0.00251199
-0.000589821
0.00262444
-0.000576263
0.00273455
-0.000561368
0.00284206
-0.000545305
0.00294675
-0.00052824
0.00304842
-0.000510337
0.00314691
-0.000491754
0.00324209
-0.000472645
0.00333386
-0.000453157
0.00342214
-0.000433429
0.00350689
-0.000413592
0.00358808
-0.000393768
0.00366571
-0.000374067
0.00373981
-0.000354587
0.0038104
-0.000335407
-0.000316563
0.00387754
1.97802e-05
5.18831e-05
5.00543e-05
0.000112665
8.23878e-05
0.000127954
0.000113275
0.000116402
0.000141594
8.71594e-05
0.000168148
4.63245e-05
0.000194503
-2.45756e-06
0.000220121
-5.30067e-05
0.000248545
-0.000107788
0.000280485
-0.000163344
0.000316804
-0.000218616
0.000358146
-0.000272781
0.000404966
-0.000325217
0.000457559
-0.000375459
0.000516071
-0.000423153
0.00058053
-0.000468026
0.000650857
-0.000509868
0.00072689
-0.000548513
0.000808392
-0.000583842
0.000895068
-0.00061577
0.000986574
-0.000644246
0.00108253
-0.000669244
0.00118252
-0.000690748
0.00128612
-0.00070874
0.00139284
-0.000723232
0.00150221
-0.000734307
0.00161375
-0.000742092
0.00172699
-0.000746714
0.00184147
-0.000748298
0.00195671
-0.000746982
0.00207229
-0.00074292
0.00218777
-0.000736276
0.00230274
-0.000727225
0.00241682
-0.000715953
0.00252965
-0.000702647
0.00264089
-0.000687504
0.00275024
-0.000670721
0.00285743
-0.000652495
0.00296221
-0.000633023
0.00306438
-0.0006125
0.00316374
-0.000591115
0.00326015
-0.000569053
0.00335348
-0.000546489
0.00344364
-0.000523592
0.00353057
-0.000500519
0.00361422
-0.000477419
0.00369458
-0.000454426
0.00377165
-0.000431658
0.00384546
-0.000409213
-0.000387137
0.00391603
3.61363e-05
1.57468e-05
9.62192e-05
5.25816e-05
0.000156264
6.7909e-05
0.000210365
6.23006e-05
0.000256742
4.07828e-05
0.000298984
4.08243e-06
0.000332466
-3.59395e-05
0.000364476
-8.50163e-05
0.000395558
-0.00013887
0.000427519
-0.000195305
0.000461719
-0.000252816
0.000499217
-0.00031028
0.00054083
-0.00036683
0.000587157
-0.000421786
0.000638613
-0.000474609
0.000695453
-0.000524866
0.000757798
-0.000572213
0.000825654
-0.00061637
0.000898933
-0.000657121
0.000977462
-0.000694299
0.001061
-0.000727785
0.00114926
-0.000757503
0.0012419
-0.000783391
0.00133856
-0.000805391
0.0014388
-0.000823477
0.0015422
-0.000837703
0.00164829
-0.000848186
0.00175663
-0.000855053
0.00186676
-0.000858425
0.00197822
-0.000858445
0.00209057
-0.000855272
0.00220338
-0.000849085
0.00231623
-0.000840073
0.00242872
-0.000828441
0.00254047
-0.000814402
0.00265114
-0.000798173
0.0027604
-0.000779981
0.00286796
-0.000760051
0.00297355
-0.000738611
0.00307693
-0.000715884
0.00317791
-0.000692091
0.0032763
-0.000667447
0.00337197
-0.000642159
0.0034648
-0.000616423
0.00355471
-0.000590426
0.00364163
-0.000564343
0.00372554
-0.000538333
0.00380642
-0.000512538
0.00388428
-0.000487077
0.00395917
-0.000462025
0.00385799
-6.55503e-05
-9.00825e-09
0.00392111
-6.31092e-05
-9.95984e-09
0.00398174
-6.06224e-05
-1.08196e-08
0.00403986
-5.81108e-05
-1.15647e-08
0.00409547
-5.55887e-05
-1.21547e-08
0.00414855
-5.30687e-05
-1.25573e-08
0.00419912
-5.05633e-05
-1.27477e-08
0.00424722
-4.80847e-05
-1.27114e-08
0.00429288
-4.56446e-05
-1.24459e-08
0.00433614
-4.32544e-05
-1.19604e-08
0.00437708
-4.09251e-05
-1.12719e-08
0.00441576
-3.86664e-05
-1.04029e-08
0.00445225
-3.64873e-05
-9.38264e-09
0.00448666
-3.43953e-05
-8.24174e-09
0.00451906
-3.23967e-05
-7.01018e-09
0.00454956
-3.0496e-05
-5.71769e-09
0.00457826
-2.86963e-05
-4.39332e-09
0.00460527
-2.69992e-05
-3.06151e-09
0.00463067
-2.54046e-05
-1.74263e-09
0.00465458
-2.3911e-05
-4.54729e-10
0.0046771
-2.25158e-05
7.89375e-10
0.00469831
-2.1215e-05
1.98081e-09
0.00471831
-2.00036e-05
3.11459e-09
0.00473718
-1.88757e-05
4.18728e-09
0.004755
-1.78246e-05
5.1983e-09
0.00477184
-1.68429e-05
6.1479e-09
0.00478776
-1.59228e-05
7.0337e-09
0.0048028
-1.50563e-05
7.85168e-09
0.00481703
-1.42356e-05
8.59655e-09
0.00483048
-1.34536e-05
9.25858e-09
0.00484317
-1.27043e-05
9.82456e-09
0.00485514
-1.19833e-05
1.02803e-08
0.00486642
-1.12882e-05
1.06113e-08
0.00487703
-1.0619e-05
1.08035e-08
0.004887
-9.97784e-06
1.08462e-08
0.00489635
-9.36826e-06
1.07352e-08
0.00490514
-8.79478e-06
1.04725e-08
0.00491339
-8.26168e-06
1.00667e-08
0.00492115
-7.77206e-06
9.53453e-09
0.00492847
-7.32708e-06
8.89776e-09
0.00493539
-6.9256e-06
8.18032e-09
0.00494194
-6.5643e-06
7.4086e-09
0.00494818
-6.23816e-06
6.60848e-09
0.00495411
-5.94133e-06
5.81121e-09
0.00495977
-5.66735e-06
5.02849e-09
0.00496518
-5.41119e-06
4.24966e-09
0.00497035
-5.16842e-06
3.51712e-09
0.00497528
-4.93568e-06
2.82559e-09
0.00497999
-4.71083e-06
2.18268e-09
0.00498448
-4.4927e-06
1.58898e-09
0.00498876
-4.28075e-06
1.04525e-09
0.00499283
-4.0749e-06
5.50837e-10
0.00499671
-3.87522e-06
1.03462e-10
0.00500039
-3.68188e-06
-3.02599e-10
0.00500388
-3.495e-06
-6.75542e-10
0.0050072
-3.31466e-06
-1.02422e-09
0.00501034
-3.14086e-06
-1.35976e-09