/*--------------------------------*- C++ -*----------------------------------*\
| =========                 |                                                 |
| \\      /  F ield         | OpenFOAM: The Open Source CFD Toolbox           |
|  \\    /   O peration     | Version:  2412                                  |
|   \\  /    A nd           | Website:  www.openfoam.com                      |
|    \\/     M anipulation  |                                                 |
\*---------------------------------------------------------------------------*/
FoamFile
{
    version     2.0;
    format      ascii;
    arch        "LSB;label=32;scalar=64";
    class       volVectorField;
    location    "25";
    object      U;
}
// * * * * * * * * * * * * * * * * * * * * * * * * * * * * * * * * * * * * * //

dimensions      [0 1 -1 0 0 0 0];

internalField   nonuniform List<vector> 
63420
(
(0.0999997 4.38979e-07 0)
(0.099995 1.30573e-06 0)
(0.0999851 2.16028e-06 0)
(0.0999707 3.00697e-06 0)
(0.0999519 3.84994e-06 0)
(0.0999291 4.69152e-06 0)
(0.0999023 5.53501e-06 0)
(0.0998716 6.39176e-06 0)
(0.0998372 7.28948e-06 0)
(0.0997989 8.27563e-06 0)
(0.0997562 9.4109e-06 0)
(0.0997086 1.07525e-05 0)
(0.0996551 1.23338e-05 0)
(0.0995949 1.41479e-05 0)
(0.0995273 1.6143e-05 0)
(0.099452 1.82304e-05 0)
(0.0993691 2.03025e-05 0)
(0.0992792 2.22547e-05 0)
(0.0991833 2.40043e-05 0)
(0.0990827 2.55023e-05 0)
(0.0989787 2.67372e-05 0)
(0.0988723 2.77307e-05 0)
(0.0987647 2.85292e-05 0)
(0.0986564 2.91927e-05 0)
(0.098548 2.97851e-05 0)
(0.0984396 3.0366e-05 0)
(0.0983313 3.09859e-05 0)
(0.0982228 3.16837e-05 0)
(0.0981138 3.24868e-05 0)
(0.0980042 3.34119e-05 0)
(0.0978934 3.44675e-05 0)
(0.0977812 3.56559e-05 0)
(0.0976673 3.69756e-05 0)
(0.0975514 3.84228e-05 0)
(0.0974331 3.99929e-05 0)
(0.0973124 4.16816e-05 0)
(0.097189 4.34851e-05 0)
(0.0970627 4.54008e-05 0)
(0.0969334 4.74271e-05 0)
(0.096801 4.95637e-05 0)
(0.0966653 5.18113e-05 0)
(0.0965262 5.41712e-05 0)
(0.0963836 5.6646e-05 0)
(0.0962374 5.92385e-05 0)
(0.0960876 6.19525e-05 0)
(0.0959339 6.47919e-05 0)
(0.0957764 6.77611e-05 0)
(0.0956149 7.08652e-05 0)
(0.0954493 7.41093e-05 0)
(0.0952796 7.74992e-05 0)
(0.0951056 8.10417e-05 0)
(0.0949272 8.47451e-05 0)
(0.0947443 8.86237e-05 0)
(0.0945568 9.27078e-05 0)
(0.0943645 9.70744e-05 0)
(0.0999997 1.31693e-06 0)
(0.099995 3.91705e-06 0)
(0.0999851 6.48042e-06 0)
(0.0999707 9.02008e-06 0)
(0.099952 1.15485e-05 0)
(0.0999291 1.40727e-05 0)
(0.0999023 1.66028e-05 0)
(0.0998717 1.91726e-05 0)
(0.0998373 2.18648e-05 0)
(0.099799 2.48214e-05 0)
(0.0997564 2.82237e-05 0)
(0.0997088 3.22427e-05 0)
(0.0996554 3.69785e-05 0)
(0.0995953 4.24109e-05 0)
(0.0995278 4.83855e-05 0)
(0.0994526 5.46377e-05 0)
(0.0993699 6.08466e-05 0)
(0.0992801 6.66994e-05 0)
(0.0991844 7.19488e-05 0)
(0.099084 7.64483e-05 0)
(0.0989801 8.01627e-05 0)
(0.0988738 8.31565e-05 0)
(0.0987663 8.55672e-05 0)
(0.0986581 8.7574e-05 0)
(0.0985498 8.9367e-05 0)
(0.0984415 9.11246e-05 0)
(0.0983332 9.29974e-05 0)
(0.0982247 9.51018e-05 0)
(0.0981159 9.75195e-05 0)
(0.0980063 0.000100301 0)
(0.0978956 0.000103471 0)
(0.0977835 0.000107039 0)
(0.0976697 0.000110998 0)
(0.0975538 0.000115338 0)
(0.0974357 0.000120046 0)
(0.0973151 0.000125108 0)
(0.0971918 0.000130514 0)
(0.0970657 0.000136256 0)
(0.0969366 0.000142329 0)
(0.0968044 0.000148732 0)
(0.0966689 0.000155467 0)
(0.09653 0.00016254 0)
(0.0963877 0.000169955 0)
(0.0962418 0.000177724 0)
(0.0960922 0.000185856 0)
(0.0959389 0.000194363 0)
(0.0957816 0.000203259 0)
(0.0956205 0.000212559 0)
(0.0954553 0.000222277 0)
(0.0952859 0.000232432 0)
(0.0951123 0.000243043 0)
(0.0949343 0.000254135 0)
(0.0947519 0.00026575 0)
(0.0945649 0.000277977 0)
(0.0943731 0.000291043 0)
(0.0999997 2.194e-06 0)
(0.099995 6.52557e-06 0)
(0.0999851 1.0796e-05 0)
(0.0999707 1.50268e-05 0)
(0.099952 1.92387e-05 0)
(0.0999292 2.34438e-05 0)
(0.0999025 2.76586e-05 0)
(0.0998719 3.19393e-05 0)
(0.0998375 3.64231e-05 0)
(0.0997993 4.13455e-05 0)
(0.0997568 4.70073e-05 0)
(0.0997093 5.36934e-05 0)
(0.0996561 6.15701e-05 0)
(0.0995961 7.06054e-05 0)
(0.0995289 8.0544e-05 0)
(0.0994539 9.09474e-05 0)
(0.0993714 0.000101283 0)
(0.099282 0.000111031 0)
(0.0991867 0.000119781 0)
(0.0990865 0.000127286 0)
(0.0989829 0.000133489 0)
(0.0988769 0.000138494 0)
(0.0987695 0.000142529 0)
(0.0986615 0.000145889 0)
(0.0985534 0.000148892 0)
(0.0984452 0.000151832 0)
(0.098337 0.00015496 0)
(0.0982287 0.00015847 0)
(0.0981199 0.000162498 0)
(0.0980104 0.000167128 0)
(0.0978999 0.000172404 0)
(0.097788 0.000178338 0)
(0.0976743 0.000184923 0)
(0.0975587 0.000192141 0)
(0.0974408 0.00019997 0)
(0.0973205 0.000208388 0)
(0.0971975 0.000217379 0)
(0.0970717 0.000226927 0)
(0.096943 0.000237026 0)
(0.0968111 0.000247675 0)
(0.0966761 0.000258875 0)
(0.0965377 0.000270635 0)
(0.0963958 0.000282967 0)
(0.0962504 0.000295884 0)
(0.0961014 0.000309405 0)
(0.0959487 0.000323549 0)
(0.0957921 0.000338339 0)
(0.0956316 0.000353798 0)
(0.0954671 0.000369952 0)
(0.0952985 0.000386829 0)
(0.0951257 0.000404462 0)
(0.0949486 0.000422891 0)
(0.0947671 0.000442183 0)
(0.0945811 0.000462479 0)
(0.0943904 0.00048414 0)
(0.0999997 3.06962e-06 0)
(0.099995 9.1294e-06 0)
(0.0999851 1.5104e-05 0)
(0.0999708 2.10228e-05 0)
(0.0999521 2.69153e-05 0)
(0.0999294 3.27981e-05 0)
(0.0999027 3.86945e-05 0)
(0.0998722 4.46826e-05 0)
(0.0998379 5.09531e-05 0)
(0.0997998 5.78334e-05 0)
(0.0997573 6.57429e-05 0)
(0.09971 7.50787e-05 0)
(0.099657 8.60744e-05 0)
(0.0995973 9.86875e-05 0)
(0.0995304 0.000112565 0)
(0.0994558 0.000127097 0)
(0.0993738 0.000141542 0)
(0.0992848 0.000155177 0)
(0.0991899 0.000167427 0)
(0.0990902 0.000177947 0)
(0.098987 0.000186652 0)
(0.0988814 0.000193686 0)
(0.0987743 0.000199363 0)
(0.0986666 0.000204095 0)
(0.0985586 0.00020832 0)
(0.0984507 0.000212452 0)
(0.0983427 0.000216839 0)
(0.0982345 0.000221753 0)
(0.0981259 0.000227384 0)
(0.0980167 0.000233852 0)
(0.0979063 0.000241217 0)
(0.0977947 0.000249498 0)
(0.0976813 0.000258685 0)
(0.097566 0.000268756 0)
(0.0974485 0.000279679 0)
(0.0973286 0.000291425 0)
(0.0972061 0.000303969 0)
(0.0970808 0.000317291 0)
(0.0969525 0.000331383 0)
(0.0968213 0.000346241 0)
(0.0966868 0.000361869 0)
(0.0965491 0.000378278 0)
(0.096408 0.000395483 0)
(0.0962634 0.000413504 0)
(0.0961152 0.000432366 0)
(0.0959634 0.000452096 0)
(0.0958077 0.000472724 0)
(0.0956483 0.000494283 0)
(0.0954848 0.000516808 0)
(0.0953174 0.000540337 0)
(0.0951458 0.000564914 0)
(0.09497 0.000590594 0)
(0.0947899 0.000617465 0)
(0.0946054 0.000645708 0)
(0.0944163 0.000675783 0)
(0.0999997 3.94326e-06 0)
(0.099995 1.17266e-05 0)
(0.0999852 1.94015e-05 0)
(0.0999709 2.7004e-05 0)
(0.0999523 3.45726e-05 0)
(0.0999296 4.2129e-05 0)
(0.099903 4.97026e-05 0)
(0.0998725 5.73931e-05 0)
(0.0998384 6.54434e-05 0)
(0.0998003 7.42711e-05 0)
(0.0997581 8.44118e-05 0)
(0.099711 9.63741e-05 0)
(0.0996582 0.000110459 0)
(0.0995989 0.000126615 0)
(0.0995324 0.000144396 0)
(0.0994584 0.000163026 0)
(0.0993769 0.000181559 0)
(0.0992885 0.000199069 0)
(0.0991942 0.000214817 0)
(0.0990951 0.000228362 0)
(0.0989924 0.000239588 0)
(0.0988872 0.000248675 0)
(0.0987806 0.000256019 0)
(0.0986732 0.000262145 0)
(0.0985656 0.000267613 0)
(0.0984579 0.000272948 0)
(0.0983501 0.000278599 0)
(0.0982422 0.000284914 0)
(0.0981339 0.000292139 0)
(0.0980249 0.000300427 0)
(0.0979148 0.000309858 0)
(0.0978035 0.000320459 0)
(0.0976905 0.000332218 0)
(0.0975757 0.000345107 0)
(0.0974586 0.000359087 0)
(0.0973393 0.00037412 0)
(0.0972173 0.000390174 0)
(0.0970927 0.000407227 0)
(0.0969652 0.000425264 0)
(0.0968347 0.000444282 0)
(0.0967011 0.000464286 0)
(0.0965643 0.000485288 0)
(0.0964241 0.000507308 0)
(0.0962806 0.000530371 0)
(0.0961335 0.000554508 0)
(0.0959828 0.000579752 0)
(0.0958285 0.000606142 0)
(0.0956703 0.000633718 0)
(0.0955083 0.000662524 0)
(0.0953424 0.000692608 0)
(0.0951724 0.000724023 0)
(0.0949983 0.000756837 0)
(0.09482 0.00079115 0)
(0.0946375 0.00082717 0)
(0.0944505 0.000865414 0)
(0.0999997 4.81455e-06 0)
(0.099995 1.43155e-05 0)
(0.0999852 2.36854e-05 0)
(0.099971 3.29662e-05 0)
(0.0999525 4.22054e-05 0)
(0.0999298 5.14298e-05 0)
(0.0999033 6.06752e-05 0)
(0.099873 7.00618e-05 0)
(0.0998389 7.98833e-05 0)
(0.0998011 9.06451e-05 0)
(0.099759 0.000102996 0)
(0.0997122 0.000117556 0)
(0.0996597 0.000134693 0)
(0.0996009 0.00015435 0)
(0.0995349 0.000175992 0)
(0.0994614 0.000198681 0)
(0.0993807 0.000221272 0)
(0.099293 0.000242641 0)
(0.0991994 0.000261889 0)
(0.099101 0.00027847 0)
(0.098999 0.000292239 0)
(0.0988944 0.000303407 0)
(0.0987883 0.000312449 0)
(0.0986813 0.000319997 0)
(0.0985741 0.000326729 0)
(0.0984667 0.000333282 0)
(0.0983593 0.000340202 0)
(0.0982516 0.000347914 0)
(0.0981436 0.000356719 0)
(0.098035 0.000366806 0)
(0.0979253 0.000378276 0)
(0.0978144 0.000391161 0)
(0.0977019 0.000405453 0)
(0.0975876 0.000421116 0)
(0.0974712 0.000438104 0)
(0.0973525 0.000456374 0)
(0.0972314 0.000475886 0)
(0.0971075 0.000496612 0)
(0.0969809 0.000518535 0)
(0.0968514 0.000541651 0)
(0.0967189 0.000565964 0)
(0.0965832 0.000591489 0)
(0.0964442 0.00061825 0)
(0.096302 0.000646276 0)
(0.0961563 0.000675603 0)
(0.096007 0.000706271 0)
(0.0958542 0.000738326 0)
(0.0956977 0.000771814 0)
(0.0955375 0.000806789 0)
(0.0953734 0.000843305 0)
(0.0952054 0.000881425 0)
(0.0950334 0.000921222 0)
(0.0948574 0.000962807 0)
(0.0946773 0.00100639 0)
(0.0944929 0.00105249 0)
(0.0999997 5.68277e-06 0)
(0.0999951 1.68945e-05 0)
(0.0999853 2.79531e-05 0)
(0.0999711 3.89053e-05 0)
(0.0999527 4.98085e-05 0)
(0.0999301 6.06942e-05 0)
(0.0999037 7.16044e-05 0)
(0.0998735 8.26795e-05 0)
(0.0998396 9.42618e-05 0)
(0.099802 0.000106942 0)
(0.0997601 0.00012148 0)
(0.0997136 0.000138603 0)
(0.0996615 0.000158748 0)
(0.0996031 0.000181857 0)
(0.0995378 0.000207309 0)
(0.099465 0.000234012 0)
(0.099385 0.000260628 0)
(0.0992982 0.000285838 0)
(0.0992055 0.000308581 0)
(0.0991079 0.000328213 0)
(0.0990066 0.00034455 0)
(0.0989027 0.00035783 0)
(0.0987972 0.000368604 0)
(0.0986908 0.000377606 0)
(0.098584 0.000385626 0)
(0.098477 0.000393413 0)
(0.09837 0.000401607 0)
(0.0982628 0.00041071 0)
(0.0981552 0.000421079 0)
(0.0980469 0.000432939 0)
(0.0979378 0.000446413 0)
(0.0978274 0.000461542 0)
(0.0977155 0.000478318 0)
(0.0976018 0.000496702 0)
(0.0974862 0.000516643 0)
(0.0973683 0.000538088 0)
(0.097248 0.000560993 0)
(0.0971252 0.000585325 0)
(0.0969997 0.000611063 0)
(0.0968713 0.000638201 0)
(0.09674 0.000666744 0)
(0.0966057 0.000696709 0)
(0.0964682 0.000728121 0)
(0.0963274 0.000761015 0)
(0.0961833 0.00079543 0)
(0.0960359 0.000831414 0)
(0.0958849 0.000869016 0)
(0.0957304 0.000908292 0)
(0.0955722 0.0009493 0)
(0.0954104 0.000992102 0)
(0.0952447 0.00103677 0)
(0.0950752 0.00108337 0)
(0.0949019 0.00113202 0)
(0.0947246 0.0011829 0)
(0.0945433 0.00123644 0)
(0.0941663 0.000101947 -4.45026e-24)
(0.0939601 0.0001071 -4.53819e-24)
(0.0937441 0.000112596 -3.17333e-26)
(0.0935175 0.00011846 1.39489e-23)
(0.0932797 0.000124724 -4.62027e-24)
(0.09303 0.000131421 -4.75709e-24)
(0.0927674 0.00013859 -1.46532e-23)
(0.0924912 0.000146276 1.45486e-23)
(0.0922003 0.000154526 4.97995e-24)
(0.0918936 0.000163394 0)
(0.0915701 0.000172941 5.14714e-24)
(0.0912284 0.000183234 -5.23704e-24)
(0.0908672 0.00019435 4.30949e-23)
(0.0904848 0.000206374 -9.23706e-23)
(0.0900796 0.000219403 4.9379e-23)
(0.0896496 0.000233547 4.00319e-23)
(0.0891928 0.000248928 5.13688e-23)
(0.0887068 0.000265688 -5.88437e-24)
(0.0881891 0.000283988 6.01383e-24)
(0.0876366 0.00030401 -6.15067e-24)
(0.0870462 0.000325966 0)
(0.0864142 0.000350101 6.44888e-24)
(0.0857365 0.000376696 -6.61153e-24)
(0.0850084 0.000406079 0)
(0.0842247 0.000438635 -6.96769e-24)
(0.0833792 0.000474814 0)
(0.0824652 0.00051515 -7.37083e-24)
(0.0814746 0.000560276 -1.23526e-22)
(0.0803985 0.00061095 1.31166e-22)
(0.0792261 0.000668085 -1.31659e-22)
(0.0779451 0.000732784 1.31458e-22)
(0.0765411 0.000806391 0)
(0.0749969 0.000890549 0)
(0.0732923 0.000987268 1.61038e-22)
(0.071403 0.00109901 -1.51519e-22)
(0.0693 0.00122876 0)
(0.0669488 0.00138008 0)
(0.0643078 0.00155712 0)
(0.0613279 0.00176442 0)
(0.0579517 0.0020065 0)
(0.0541144 0.00228692 0)
(0.0497464 0.00260652 0)
(0.04478 0.00296049 0)
(0.0391625 0.0033337 0)
(0.0328803 0.00369377 -1.48005e-23)
(0.025997 0.00398112 -5.07521e-22)
(0.018696 0.00409691 5.0676e-22)
(0.0113509 0.00389031 5.50255e-22)
(0.00485704 0.00312982 -5.4943e-22)
(0.000989518 0.00145386 0)
(0.0941753 0.000305626 -4.50303e-24)
(0.0939694 0.000321056 -9.1872e-24)
(0.0937535 0.000337508 -4.81897e-24)
(0.0935272 0.000355064 4.48473e-24)
(0.0932897 0.000373816 -4.68541e-24)
(0.0930403 0.000393867 3.35886e-23)
(0.0927781 0.000415333 -5.27512e-23)
(0.0925022 0.000438346 4.90102e-24)
(0.0922118 0.000463049 6.54386e-23)
(0.0919057 0.000489605 -9.03773e-23)
(0.0915828 0.000518195 -8.82959e-23)
(0.0912418 0.000549024 7.78033e-23)
(0.0908813 0.000582318 0)
(0.0904997 0.000618335 5.43626e-24)
(0.0900955 0.000657365 -1.66172e-23)
(0.0896666 0.000699735 -1.88511e-22)
(0.089211 0.000745816 1.8096e-22)
(0.0887264 0.00079603 -1.92365e-22)
(0.0882101 0.000850858 -1.80676e-23)
(0.0876594 0.000910852 6.16416e-24)
(0.087071 0.000976645 0)
(0.0864413 0.00104897 -6.46558e-24)
(0.0857661 0.00112867 -2.08399e-22)
(0.085041 0.00121673 4.35526e-22)
(0.0842607 0.0013143 2.40309e-22)
(0.0834192 0.00142273 -4.53203e-22)
(0.0825097 0.00154362 4.88111e-22)
(0.0815246 0.00167886 -4.95295e-22)
(0.0804549 0.00183072 -7.86029e-24)
(0.0792902 0.00200193 0)
(0.0780184 0.00219579 0)
(0.0766254 0.0024163 0)
(0.0750947 0.00266836 0)
(0.0734067 0.00295795 -9.33405e-24)
(0.0715381 0.00329239 -6.32731e-22)
(0.0694611 0.00368052 -2.65408e-23)
(0.0671426 0.00413291 6.57557e-22)
(0.0645433 0.00466177 7.15534e-22)
(0.0616164 0.00528046 -7.14586e-22)
(0.0583077 0.00600216 -2.37144e-23)
(0.0545557 0.00683704 -2.47567e-23)
(0.0502941 0.00778707 -8.5278e-22)
(0.045457 0.00883718 8.24702e-22)
(0.0399909 0.00994157 -2.80668e-23)
(0.0338741 0.0110031 1.49039e-23)
(0.0271509 0.0118439 -1.03205e-21)
(0.0199686 0.0121697 1.03167e-21)
(0.0126397 0.0115325 -2.15165e-21)
(0.00593824 0.00925383 2.11567e-21)
(0.00142862 0.00426746 -2.16746e-21)
(0.0941934 0.000508304 -2.66335e-23)
(0.0939878 0.000533929 -9.35295e-24)
(0.0937724 0.000561243 3.60587e-23)
(0.0935466 0.000590388 -7.42089e-23)
(0.0933097 0.000621518 1.58811e-22)
(0.0930609 0.000654806 -7.52405e-23)
(0.0927994 0.000690448 1.41814e-26)
(0.0925245 0.000728659 9.77465e-24)
(0.092235 0.000769683 1.70496e-22)
(0.09193 0.000813789 -1.6038e-22)
(0.0916083 0.00086128 0)
(0.0912687 0.000912495 1.45692e-26)
(0.0909098 0.000967813 0)
(0.09053 0.00102766 1.86749e-22)
(0.0901277 0.00109253 -1.64612e-22)
(0.089701 0.00116295 -3.55021e-22)
(0.0892479 0.00123955 1.97892e-23)
(0.088766 0.00132303 -3.73871e-22)
(0.088253 0.00141419 1.20896e-23)
(0.0877058 0.00151395 -4.00644e-22)
(0.0871215 0.00162336 4.12919e-22)
(0.0864963 0.00174365 -4.20881e-22)
(0.0858265 0.00187621 4.33785e-22)
(0.0851074 0.00202269 1.36549e-23)
(0.0843341 0.00218499 -1.40303e-23)
(0.0835007 0.00236537 1.44292e-23)
(0.0826008 0.00256647 -4.83365e-22)
(0.0816268 0.00279145 4.98246e-22)
(0.0805702 0.00304405 5.30152e-22)
(0.079421 0.0033288 -5.1388e-22)
(0.0781679 0.00365113 0)
(0.0767976 0.00401766 0)
(0.0752944 0.00443645 1.80513e-23)
(0.0736401 0.0049173 1.24357e-21)
(0.0718134 0.00547216 2.9517e-23)
(0.0697889 0.00611544 -1.25125e-21)
(0.0675366 0.00686426 0)
(0.0650213 0.00773826 -2.1844e-23)
(0.0622013 0.00875875 1.5203e-21)
(0.0590285 0.0099464 -3.03419e-21)
(0.0554481 0.0113165 3.21475e-21)
(0.0514001 0.0128703 9.57511e-23)
(0.0468227 0.0145807 -1.66874e-21)
(0.0416598 0.0163698 -1.80404e-21)
(0.0358742 0.018076 1.85922e-21)
(0.0294702 0.019407 1.43254e-24)
(0.0225218 0.0198797 -3.15698e-23)
(0.01522 0.0187588 2.07947e-21)
(0.00808344 0.0149646 -2.01363e-21)
(0.00227229 0.00683625 -2.01414e-21)
(0.0942205 0.000709291 1.75465e-23)
(0.0940154 0.000744957 -8.9065e-24)
(0.0938007 0.000782962 1.95025e-26)
(0.0935756 0.00082351 9.16888e-24)
(0.0933396 0.000866818 -1.9604e-26)
(0.0930919 0.000913131 1.52412e-22)
(0.0928316 0.000962724 -2.88038e-22)
(0.092558 0.0010159 1.54821e-22)
(0.0922701 0.001073 -9.91508e-24)
(0.0919669 0.0011344 1.83324e-22)
(0.0916472 0.00120052 -1.63067e-22)
(0.0913097 0.00127185 -3.38568e-22)
(0.0909532 0.00134889 6.83696e-22)
(0.0905762 0.00143226 -6.97323e-22)
(0.090177 0.00152264 7.11607e-22)
(0.0897537 0.00162077 -7.15318e-22)
(0.0893045 0.00172752 -3.78731e-22)
(0.088827 0.00184388 2.24752e-26)
(0.0883189 0.00197096 0)
(0.0877774 0.00211005 -3.9015e-22)
(0.0871994 0.00226263 4.02396e-22)
(0.0865815 0.00243038 0)
(0.0859199 0.00261527 -8.69381e-22)
(0.0852104 0.00281959 8.55273e-22)
(0.084448 0.003046 1.41639e-23)
(0.0836273 0.00329764 -3.69816e-26)
(0.0827422 0.00357818 1.49712e-23)
(0.0817856 0.00389201 0)
(0.0807494 0.00424434 -5.30294e-26)
(0.0796246 0.00464142 0)
(0.0784005 0.00509076 -1.6994e-23)
(0.0770651 0.00560148 1.14895e-21)
(0.0756044 0.00618462 -1.14864e-21)
(0.0740023 0.00685359 -1.89957e-23)
(0.07224 0.00762462 3.93083e-23)
(0.0702958 0.0085172 -1.35444e-21)
(0.0681446 0.00955424 1.31234e-21)
(0.0657571 0.0107618 2.22218e-23)
(0.0630993 0.0121678 -3.54502e-25)
(0.0601321 0.0137984 2.36781e-23)
(0.0568109 0.0156716 -1.62456e-21)
(0.053085 0.0177852 3.28302e-21)
(0.0488986 0.0200975 -1.71084e-21)
(0.0441918 0.0224967 1.76716e-21)
(0.0389043 0.024758 -1.84999e-21)
(0.0329799 0.0264826 -3.67292e-21)
(0.0263774 0.0270161 7.49297e-21)
(0.0191058 0.0253527 -3.79317e-21)
(0.0113367 0.0200485 0)
(0.00352517 0.00905021 -3.56869e-21)
(0.0942563 0.000907941 -8.7026e-24)
(0.094052 0.000953423 -3.55633e-23)
(0.0938382 0.00100187 1.0783e-22)
(0.0936143 0.00105356 -1.45633e-22)
(0.0933796 0.00110877 6.41484e-23)
(0.0931334 0.00116781 9.41119e-24)
(0.0928749 0.00123105 -9.57109e-24)
(0.0926033 0.00129888 -2.46132e-26)
(0.0923176 0.00137172 9.91317e-24)
(0.0920168 0.00145006 -2.0168e-23)
(0.0916998 0.00153445 -3.32e-22)
(0.0913655 0.00162548 3.42638e-22)
(0.0910125 0.00172384 -3.34831e-22)
(0.0906394 0.00183029 3.45639e-22)
(0.0902445 0.00194569 0)
(0.0898262 0.00207103 -2.47902e-26)
(0.0893824 0.00220739 0)
(0.0889112 0.00235604 -3.7388e-22)
(0.08841 0.00251842 3.98174e-22)
(0.0878764 0.00269615 -1.25173e-23)
(0.0873074 0.00289114 -8.44032e-22)
(0.0866997 0.00310554 8.31574e-22)
(0.0860498 0.00334186 -1.35305e-23)
(0.0853537 0.00360303 0)
(0.0846068 0.00389244 0)
(0.0838041 0.00421408 -9.70509e-22)
(0.0829399 0.00457265 9.41024e-22)
(0.0820076 0.0049737 0)
(0.0810002 0.00542384 -3.22937e-23)
(0.0799094 0.00593096 0)
(0.0787259 0.00650454 1.72922e-23)
(0.0774393 0.00715599 -1.78185e-23)
(0.0760377 0.00789909 -1.85585e-23)
(0.0745078 0.00875048 1.91229e-23)
(0.0728344 0.00973015 1.25809e-21)
(0.0710007 0.0108619 -1.29849e-21)
(0.0689878 0.0121734 2.82113e-21)
(0.0667743 0.0136956 -2.82293e-21)
(0.0643365 0.0154611 2.99404e-21)
(0.0616473 0.0174993 8.45384e-23)
(0.0586752 0.0198279 -3.15349e-21)
(0.0553823 0.0224382 -2.51626e-23)
(0.0517207 0.0252713 1.24796e-24)
(0.047627 0.0281814 1.649e-24)
(0.0430122 0.0308857 2.17235e-24)
(0.0377441 0.0328937 -5.43601e-23)
(0.0316279 0.0334108 -2.49562e-23)
(0.024417 0.0312006 -2.37467e-23)
(0.0158305 0.0244701 0)
(0.00521036 0.0109025 7.33089e-24)
(0.0943007 0.00110362 -4.31864e-23)
(0.0940975 0.00115869 2.59782e-23)
(0.093885 0.00121736 8.89267e-24)
(0.0936627 0.00127997 1.36561e-22)
(0.0934299 0.00134687 -1.3661e-22)
(0.0931858 0.00141844 1.41409e-22)
(0.0929297 0.00149514 -3.13934e-22)
(0.0926607 0.00157742 4.47084e-22)
(0.092378 0.00166582 -3.1319e-22)
(0.0920806 0.00176093 -3.25063e-22)
(0.0917674 0.0018634 -1.6404e-23)
(0.0914373 0.00197399 6.60369e-22)
(0.091089 0.00209351 -6.95771e-22)
(0.0907211 0.0022229 3.24558e-22)
(0.0903321 0.0023632 3.5044e-22)
(0.0899203 0.00251562 3.66523e-22)
(0.0894839 0.00268149 -2.83983e-23)
(0.089021 0.00286236 7.46998e-22)
(0.0885292 0.00305997 7.71758e-22)
(0.0880062 0.00327633 1.96615e-23)
(0.0874492 0.00351372 -8.18354e-22)
(0.0868552 0.00377481 0)
(0.086221 0.00406265 0)
(0.0855429 0.00438079 -9.12902e-22)
(0.0848167 0.00473337 8.9979e-22)
(0.084038 0.00512523 9.69533e-22)
(0.0832016 0.00556208 -9.70969e-22)
(0.082302 0.00605063 0)
(0.0813329 0.00659885 1.08421e-21)
(0.0802873 0.00721621 -1.0863e-21)
(0.0791576 0.00791406 0)
(0.0779355 0.00870593 -2.35067e-21)
(0.0766116 0.00960804 2.37245e-21)
(0.0751762 0.0106398 -1.96055e-23)
(0.0736187 0.0118241 -2.62154e-21)
(0.0719281 0.013188 2.64586e-21)
(0.0700933 0.014762 0)
(0.0681029 0.0165794 2.96716e-21)
(0.0659455 0.0186734 -2.94885e-21)
(0.063609 0.0210714 2.38773e-23)
(0.0610786 0.0237841 3.24942e-21)
(0.0583328 0.0267884 -6.51735e-21)
(0.0553355 0.0300003 2.05593e-23)
(0.0520223 0.0332348 3.75413e-23)
(0.0482767 0.0361532 3.37664e-21)
(0.0438883 0.0381936 3.74353e-24)
(0.0384918 0.0384702 -2.90183e-21)
(0.0315139 0.0356127 2.97482e-21)
(0.0219938 0.0276371 0)
(0.0075703 0.0121069 2.66764e-23)
(0.0943536 0.00129551 8.50427e-24)
(0.094152 0.00135962 7.83744e-23)
(0.0939415 0.00142801 -6.98943e-23)
(0.0937214 0.00150105 8.97639e-24)
(0.0934911 0.00157917 1.38036e-22)
(0.0932499 0.00166282 -1.38252e-22)
(0.0929971 0.00175251 -2.96356e-22)
(0.0927317 0.0018488 4.3521e-24)
(0.0924531 0.00195232 -5.59422e-24)
(0.0921602 0.00206377 3.29313e-22)
(0.091852 0.00218392 -3.21831e-22)
(0.0915274 0.00231366 6.83006e-22)
(0.0911853 0.00245396 -3.4037e-22)
(0.0908243 0.00260593 1.10063e-23)
(0.090443 0.00277084 1.12659e-23)
(0.0900399 0.00295008 7.45469e-22)
(0.0896133 0.00314527 -5.04925e-24)
(0.0891613 0.00335824 7.78348e-22)
(0.0886819 0.00359107 1.24448e-23)
(0.0881728 0.00384616 0)
(0.0876318 0.00412623 0)
(0.0870559 0.00443445 -8.74432e-22)
(0.0864424 0.00477446 8.76641e-22)
(0.0857881 0.00515051 0)
(0.0850892 0.00556752 1.47546e-23)
(0.0843422 0.00603125 0)
(0.0835426 0.00654848 -1.01918e-21)
(0.0826858 0.00712718 2.07503e-21)
(0.081767 0.00777676 -1.05592e-21)
(0.0807808 0.0085084 -2.23771e-21)
(0.0797215 0.00933534 -7.48957e-23)
(0.0785832 0.0102733 -7.89233e-23)
(0.0773599 0.011341 -8.28396e-23)
(0.0760458 0.0125603 2.51487e-21)
(0.0746357 0.0139568 2.69697e-21)
(0.0731252 0.0155595 -2.70339e-21)
(0.0715115 0.0174001 0)
(0.0697942 0.019511 2.98818e-21)
(0.067975 0.0219208 -2.99513e-21)
(0.0660577 0.0246462 -3.17727e-21)
(0.0640454 0.0276784 3.15977e-21)
(0.061935 0.0309624 2.58122e-23)
(0.0597054 0.0343667 3.17098e-21)
(0.0572975 0.037643 -1.04344e-22)
(0.0545805 0.0403771 -3.13201e-21)
(0.0512903 0.0419386 2.39035e-23)
(0.0469421 0.0414184 0)
(0.0407195 0.0375049 -1.90906e-23)
(0.0308324 0.0284167 -9.24619e-22)
(0.0121907 0.0120412 4.16604e-22)
(-0.000209578 0.000284974 0)
(-0.00091581 0.00054483 3.18297e-22)
(-0.00197256 0.00061068 -3.18775e-22)
(-0.00304613 0.000569715 -3.18047e-22)
(-0.00397559 0.000469944 3.18525e-22)
(-0.00469484 0.000339836 -9.82412e-24)
(-0.00517022 0.000196541 0)
(-0.00538519 5.02154e-05 0)
(-0.0053419 -9.25977e-05 0)
(-0.00505113 -0.000230473 0)
(-0.00452129 -0.000361304 0)
(-0.0037637 -0.000483941 0)
(-0.00279203 -0.000598118 0)
(-0.00162032 -0.000703897 0)
(-0.000262293 -0.000801283 0)
(0.00126781 -0.000890098 1.05848e-22)
(0.00295557 -0.00097072 -9.95627e-23)
(0.00478728 -0.00104333 0)
(0.00674924 -0.00110808 0)
(0.00882792 -0.00116518 -7.99827e-23)
(0.0110101 -0.00121483 8.01048e-23)
(0.0132828 -0.00125721 -6.28895e-23)
(0.0156332 -0.00129246 4.03917e-24)
(0.0180486 -0.00132077 0)
(0.0205167 -0.00134237 3.29553e-24)
(0.0230257 -0.0013576 0)
(0.0255641 -0.00136678 0)
(0.028121 -0.00137024 0)
(0.0306861 -0.00136831 1.99033e-24)
(0.0332497 -0.00136135 0)
(0.0358023 -0.00134969 -1.4456e-24)
(0.0383355 -0.00133369 1.20198e-24)
(0.040841 -0.00131371 -9.77579e-25)
(0.0433116 -0.00129011 6.09838e-24)
(0.0457402 -0.00126324 -5.91985e-24)
(0.0481209 -0.00123347 -2.22334e-24)
(0.050448 -0.00120116 3.88221e-24)
(0.0527166 -0.00116664 -1.50583e-24)
(0.0549226 -0.00113026 -1.18636e-26)
(0.0570623 -0.00109236 -9.22347e-26)
(0.0591326 -0.00105325 0)
(0.0611313 -0.00101324 -2.59963e-25)
(0.0630563 -0.000972616 1.76129e-24)
(0.0649065 -0.000931653 -1.81842e-24)
(0.066681 -0.000890607 4.25645e-25)
(0.0683795 -0.000849715 -1.42297e-24)
(0.0700021 -0.000809191 4.72096e-25)
(0.0715495 -0.000769225 1.03486e-24)
(0.0730224 -0.000729973 -5.23814e-25)
(0.0744221 -0.00069156 5.371e-25)
(-0.000272858 0.000819355 -1.20669e-21)
(-0.00102292 0.00156146 -1.3193e-21)
(-0.00198977 0.0017501 1.30048e-21)
(-0.00292072 0.00163086 -6.25291e-22)
(-0.00369465 0.00134074 6.26347e-22)
(-0.00426318 0.000962163 9.89229e-24)
(-0.00460182 0.000544492 -1.96084e-23)
(-0.0046968 0.000117004 -6.21538e-22)
(-0.00455273 -0.000300535 6.03166e-22)
(-0.00418038 -0.000704765 -1.81408e-23)
(-0.00358481 -0.00108922 -1.75361e-23)
(-0.00277603 -0.00145017 5.25745e-22)
(-0.00176648 -0.00178685 -5.26444e-22)
(-0.000568553 -0.00209935 -4.78971e-22)
(0.000805947 -0.00238672 2.54176e-23)
(0.00234386 -0.00264975 4.54796e-22)
(0.00403158 -0.00288886 -6.47764e-24)
(0.00585665 -0.00310437 -1.22872e-23)
(0.00780635 -0.00329674 0)
(0.00986793 -0.00346653 0)
(0.0120289 -0.00361432 0)
(0.0142769 -0.00374061 -4.44555e-24)
(0.0165997 -0.00384586 2.36279e-22)
(0.0189849 -0.00393054 -2.56388e-22)
(0.0214212 -0.00399542 1.98229e-22)
(0.0238968 -0.00404137 -1.12093e-22)
(0.0264006 -0.00406938 -1.69017e-22)
(0.0289223 -0.00408042 7.92902e-23)
(0.0314517 -0.00407545 -1.99545e-24)
(0.0339794 -0.00405546 -3.52427e-24)
(0.0364962 -0.00402147 1.44875e-24)
(0.0389939 -0.00397451 -3.70105e-24)
(0.0414644 -0.00391565 2.73933e-23)
(0.0439005 -0.00384595 -5.14077e-23)
(0.0462955 -0.00376647 2.15127e-23)
(0.0486434 -0.00367829 -1.31839e-24)
(0.0509387 -0.00358245 2.65696e-25)
(0.0531767 -0.00348 0)
(0.0553531 -0.00337197 4.40679e-25)
(0.0574644 -0.00325933 -4.13932e-25)
(0.0595076 -0.00314304 -3.10111e-24)
(0.0614804 -0.00302402 4.16434e-24)
(0.0633808 -0.00290312 -3.25552e-25)
(0.0652076 -0.00278118 -2.06956e-24)
(0.06696 -0.00265895 3.5736e-24)
(0.0686377 -0.00253713 4.61568e-25)
(0.0702408 -0.00241638 3.42674e-24)
(0.0717697 -0.00229726 5.58647e-25)
(0.0732254 -0.00218024 -1.00625e-24)
(0.0746089 -0.00206566 -1.59234e-24)
(-0.000383342 0.00125259 -1.24969e-21)
(-0.00119863 0.00236141 1.37139e-21)
(-0.00197477 0.00265091 -1.33044e-21)
(-0.0026237 0.0024644 -2.07493e-23)
(-0.00309598 0.00201141 -3.4429e-25)
(-0.00337503 0.00142022 -1.26998e-21)
(-0.00345323 0.000767806 1.31163e-21)
(-0.0033201 0.00010102 1.25224e-21)
(-0.00298513 -0.000566296 -1.58218e-23)
(-0.00245967 -0.00121279 -2.34297e-21)
(-0.00174112 -0.00182845 2.30012e-21)
(-0.000836905 -0.00240783 -1.10383e-21)
(0.00024257 -0.00295005 -1.66036e-23)
(0.00148901 -0.00345425 0)
(0.00289292 -0.00391974 9.45562e-22)
(0.00444296 -0.00434739 -6.68754e-23)
(0.00612865 -0.0047371 -8.6614e-22)
(0.00793929 -0.00508921 2.50431e-23)
(0.0098638 -0.00540431 0)
(0.011891 -0.00568313 0)
(0.0140098 -0.00592644 3.07043e-22)
(0.0162091 -0.00613499 -2.9801e-22)
(0.0184775 -0.00630939 -2.4777e-22)
(0.0208042 -0.00645043 2.6385e-22)
(0.023178 -0.00655905 6.98842e-24)
(0.0255885 -0.00663679 -6.26288e-24)
(0.0280253 -0.00668513 5.56918e-24)
(0.0304784 -0.00670561 -1.3886e-22)
(0.0329386 -0.00669977 1.43906e-22)
(0.0353966 -0.00666919 -9.9466e-23)
(0.0378441 -0.0066155 1.0681e-22)
(0.0402729 -0.00654039 2.50653e-24)
(0.0426756 -0.00644554 6.03606e-23)
(0.045045 -0.00633271 -1.06375e-22)
(0.0473749 -0.00620364 4.88706e-23)
(0.0496594 -0.00606007 1.35604e-23)
(0.0518933 -0.00590374 -1.19739e-23)
(0.0540718 -0.00573636 0)
(0.0561911 -0.00555961 -8.6189e-26)
(0.0582475 -0.00537512 0)
(0.0602381 -0.00518446 -6.00291e-24)
(0.0621608 -0.00498915 5.45678e-24)
(0.0640135 -0.00479063 -5.50975e-25)
(0.0657951 -0.00459024 -5.67412e-26)
(0.0675047 -0.00438926 -6.7281e-24)
(0.0691419 -0.00418886 1.30606e-23)
(0.0707069 -0.00399012 -7.27339e-24)
(0.0722001 -0.00379396 3.94329e-24)
(0.0736223 -0.00360116 -2.93087e-24)
(0.0749744 -0.00341223 -1.03337e-24)
(-0.000511904 0.00150265 -2.68975e-21)
(-0.00135925 0.00282246 0)
(-0.00181721 0.00318372 2.79921e-21)
(-0.00205545 0.00294521 -5.60135e-21)
(-0.00209902 0.00237321 2.82336e-21)
(-0.00197137 0.00162524 1.29721e-21)
(-0.00168481 0.000795478 -1.36099e-21)
(-0.00125054 -6.17576e-05 1.27714e-21)
(-0.000667394 -0.000929115 -2.53758e-21)
(6.91905e-05 -0.00177194 1.24087e-21)
(0.000954503 -0.0025791 1.86071e-23)
(0.00198598 -0.00334484 3.00003e-25)
(0.00315756 -0.00406606 1.68892e-23)
(0.00446531 -0.00473985 -1.03134e-21)
(0.00590379 -0.0053656 9.99963e-22)
(0.00746584 -0.00594262 2.93225e-23)
(0.00914389 -0.00647055 -1.36685e-23)
(0.0109298 -0.00694948 8.02152e-22)
(0.0128149 -0.00737976 -8.02132e-22)
(0.0147902 -0.00776196 -1.14211e-23)
(0.0168465 -0.00809684 0)
(0.0189743 -0.00838516 2.97216e-25)
(0.021164 -0.00862764 0)
(0.0234056 -0.00882492 8.10743e-24)
(0.0256899 -0.00897837 2.72394e-25)
(0.0280069 -0.0090896 6.32216e-24)
(0.0303476 -0.00916075 -3.50669e-22)
(0.0327028 -0.00919376 3.45413e-22)
(0.035064 -0.00919063 0)
(0.037423 -0.00915343 -1.13183e-22)
(0.0397717 -0.00908433 1.1682e-22)
(0.0421026 -0.00898557 0)
(0.0444087 -0.00885944 -1.80724e-25)
(0.0466835 -0.00870829 -5.41499e-23)
(0.0489208 -0.00853449 9.42158e-23)
(0.0511152 -0.00834042 -6.96667e-23)
(0.0532617 -0.00812847 4.91207e-23)
(0.0553559 -0.00790097 -3.05361e-23)
(0.0573937 -0.00766025 1.08126e-23)
(0.0593721 -0.00740855 -1.70488e-24)
(0.061288 -0.00714804 1.31082e-24)
(0.0631392 -0.00688084 3.19562e-25)
(0.0649241 -0.00660892 9.26677e-24)
(0.0666412 -0.00633417 -2.13828e-23)
(0.0682897 -0.00605837 1.0872e-23)
(0.0698694 -0.00578314 6.47235e-26)
(0.0713801 -0.00550998 -9.04795e-25)
(0.0728223 -0.00524019 -5.40272e-26)
(0.0741966 -0.00497483 9.87098e-25)
(0.0755039 -0.00471452 -1.97643e-24)
(-0.000569734 0.00149717 -1.55395e-24)
(-0.00131657 0.00286984 -2.50103e-23)
(-0.00133544 0.00326278 -2.42797e-23)
(-0.00105476 0.00299982 -2.3624e-23)
(-0.00057743 0.00236763 -4.54848e-23)
(2.88492e-05 0.00152976 -4.76966e-25)
(0.000735741 0.000591682 2.1497e-23)
(0.00152352 -0.000393 -2.13439e-23)
(0.00239555 -0.00139176 -2.07318e-23)