/*--------------------------------*- C++ -*----------------------------------*\
| =========                 |                                                 |
| \\      /  F ield         | OpenFOAM: The Open Source CFD Toolbox           |
|  \\    /   O peration     | Version:  2412                                  |
|   \\  /    A nd           | Website:  www.openfoam.com                      |
|    \\/     M anipulation  |                                                 |
\*---------------------------------------------------------------------------*/
FoamFile
{
    version     2.0;
    format      ascii;
    arch        "LSB;label=32;scalar=64";
    class       volVectorField;
    location    "25";
    object      vorticity;
}
// * * * * * * * * * * * * * * * * * * * * * * * * * * * * * * * * * * * * * //

dimensions      [0 0 -1 0 0 0 0];

internalField   nonuniform List<vector> 
63420
(
(0 0 5.93226e-06)
(0 0 5.90763e-06)
(0 0 5.88585e-06)
(0 0 5.86412e-06)
(0 0 5.83477e-06)
(0 0 5.79807e-06)
(0 0 5.79168e-06)
(0 0 5.91409e-06)
(0 0 6.31142e-06)
(0 0 7.1162e-06)
(0 0 8.36183e-06)
(0 0 9.91852e-06)
(0 0 1.149e-05)
(0 0 1.26796e-05)
(0 0 1.30999e-05)
(0 0 1.24831e-05)
(0 0 1.0753e-05)
(0 0 8.03812e-06)
(0 0 4.63125e-06)
(0 0 9.15254e-07)
(0 0 -2.71876e-06)
(0 0 -5.93931e-06)
(0 0 -8.51626e-06)
(0 0 -1.03344e-05)
(0 0 -1.13837e-05)
(0 0 -1.17353e-05)
(0 0 -1.15116e-05)
(0 0 -1.08578e-05)
(0 0 -9.91907e-06)
(0 0 -8.82486e-06)
(0 0 -7.68038e-06)
(0 0 -6.5639e-06)
(0 0 -5.52802e-06)
(0 0 -4.60338e-06)
(0 0 -3.8034e-06)
(0 0 -3.12903e-06)
(0 0 -2.57302e-06)
(0 0 -2.12333e-06)
(0 0 -1.76578e-06)
(0 0 -1.48581e-06)
(0 0 -1.26963e-06)
(0 0 -1.10484e-06)
(0 0 -9.80784e-07)
(0 0 -8.88501e-07)
(0 0 -8.20674e-07)
(0 0 -7.71426e-07)
(0 0 -7.36029e-07)
(0 0 -7.10504e-07)
(0 0 -6.90648e-07)
(0 0 -6.69181e-07)
(0 0 -6.26585e-07)
(0 0 -5.017e-07)
(0 0 -1.00128e-07)
(0 0 1.1828e-06)
(0 4.41584e-23 5.16855e-06)
(0 0 1.77964e-05)
(0 0 1.77217e-05)
(0 0 1.76553e-05)
(0 0 1.75895e-05)
(0 0 1.75016e-05)
(0 0 1.73923e-05)
(0 0 1.73736e-05)
(0 0 1.77396e-05)
(0 0 1.89266e-05)
(0 0 2.13313e-05)
(0 0 2.50548e-05)
(0 0 2.97112e-05)
(0 0 3.44175e-05)
(0 0 3.79897e-05)
(0 0 3.92703e-05)
(0 0 3.74581e-05)
(0 0 3.23222e-05)
(0 0 2.42431e-05)
(0 0 1.40916e-05)
(0 0 3.00853e-06)
(0 0 -7.83958e-06)
(0 0 -1.7463e-05)
(0 0 -2.51738e-05)
(0 0 -3.06261e-05)
(0 0 -3.37878e-05)
(0 0 -3.4869e-05)
(0 0 -3.42331e-05)
(0 0 -3.23119e-05)
(0 0 -2.95375e-05)
(0 0 -2.62956e-05)
(0 0 -2.29001e-05)
(0 0 -1.95844e-05)
(0 0 -1.65058e-05)
(0 0 -1.37562e-05)
(0 0 -1.13759e-05)
(0 0 -9.36843e-06)
(0 0 -7.71239e-06)
(0 0 -6.37232e-06)
(0 0 -5.30618e-06)
(0 0 -4.47077e-06)
(0 0 -3.82512e-06)
(0 0 -3.33247e-06)
(0 0 -2.96103e-06)
(0 0 -2.68416e-06)
(0 0 -2.48007e-06)
(0 0 -2.3312e-06)
(0 0 -2.22348e-06)
(0 0 -2.14506e-06)
(0 0 -2.08349e-06)
(0 0 -2.0175e-06)
(0 0 -1.89036e-06)
(0 0 -1.52461e-06)
(0 0 -3.5556e-07)
(0 0 3.37607e-06)
(0 4.46276e-23 1.49789e-05)
(0 0 2.96483e-05)
(0 0 2.95236e-05)
(0 0 2.94124e-05)
(0 0 2.93025e-05)
(0 0 2.91563e-05)
(0 0 2.89748e-05)
(0 0 2.89433e-05)
(0 0 2.95487e-05)
(0 0 3.15163e-05)
(0 0 3.55068e-05)
(0 0 4.16935e-05)
(0 0 4.94429e-05)
(0 0 5.72962e-05)
(0 0 6.32918e-05)
(0 0 6.55077e-05)
(0 0 6.26078e-05)
(0 0 5.41987e-05)
(0 0 4.08996e-05)
(0 0 2.41446e-05)
(0 0 5.81792e-06)
(0 0 -1.21495e-05)
(0 0 -2.8116e-05)
(0 0 -4.09374e-05)
(0 0 -5.00345e-05)
(0 0 -5.53477e-05)
(0 0 -5.72187e-05)
(0 0 -5.62444e-05)
(0 0 -5.31364e-05)
(0 0 -4.8608e-05)
(0 0 -4.32968e-05)
(0 0 -3.77221e-05)
(0 0 -3.2271e-05)
(0 0 -2.72048e-05)
(0 0 -2.26766e-05)
(0 0 -1.87544e-05)
(0 0 -1.54447e-05)
(0 0 -1.27134e-05)
(0 0 -1.05024e-05)
(0 0 -8.74278e-06)
(0 0 -7.3636e-06)
(0 0 -6.29746e-06)
(0 0 -5.48377e-06)
(0 0 -4.87016e-06)
(0 0 -4.41272e-06)
(0 0 -4.07551e-06)
(0 0 -3.82957e-06)
(0 0 -3.65169e-06)
(0 0 -3.52241e-06)
(0 0 -3.42161e-06)
(0 0 -3.31568e-06)
(0 0 -3.11629e-06)
(0 0 -2.54763e-06)
(0 0 -7.29814e-07)
(0 0 5.08882e-06)
(0 2.63315e-22 2.32442e-05)
(0 0 4.14799e-05)
(0 0 4.13052e-05)
(0 0 4.11491e-05)
(0 0 4.0995e-05)
(0 0 4.07911e-05)
(0 0 4.0538e-05)
(0 0 4.04923e-05)
(0 0 4.13309e-05)
(0 0 4.4064e-05)
(0 0 4.96175e-05)
(0 0 5.82436e-05)
(0 0 6.90753e-05)
(0 0 8.00953e-05)
(0 0 8.85805e-05)
(0 0 9.18529e-05)
(0 0 8.804e-05)
(0 0 7.65728e-05)
(0 0 5.82881e-05)
(0 0 3.51585e-05)
(0 0 9.78872e-06)
(0 0 -1.51439e-05)
(0 0 -3.73563e-05)
(0 0 -5.52502e-05)
(0 0 -6.80091e-05)
(0 0 -7.55368e-05)
(0 0 -7.82951e-05)
(0 0 -7.71023e-05)
(0 0 -7.29385e-05)
(0 0 -6.67888e-05)
(0 0 -5.95353e-05)
(0 0 -5.18983e-05)
(0 0 -4.44158e-05)
(0 0 -3.74516e-05)
(0 0 -3.12203e-05)
(0 0 -2.58185e-05)
(0 0 -2.12573e-05)
(0 0 -1.7491e-05)
(0 0 -1.44409e-05)
(0 0 -1.20128e-05)
(0 0 -1.0109e-05)
(0 0 -8.63717e-06)
(0 0 -7.51379e-06)
(0 0 -6.66678e-06)
(0 0 -6.03564e-06)
(0 0 -5.57077e-06)
(0 0 -5.23222e-06)
(0 0 -4.98801e-06)
(0 0 -4.8115e-06)
(0 0 -4.67576e-06)
(0 0 -4.53752e-06)
(0 0 -4.28568e-06)
(0 0 -3.57514e-06)
(0 0 -1.30113e-06)
(0 0 6.01472e-06)
(0 -1.72855e-22 2.89907e-05)
(0 0 5.32837e-05)
(0 0 5.30584e-05)
(0 0 5.28569e-05)
(0 0 5.26588e-05)
(0 0 5.23978e-05)
(0 0 5.2074e-05)
(0 0 5.20127e-05)
(0 0 5.30758e-05)
(0 0 5.65543e-05)
(0 0 6.36396e-05)
(0 0 7.46723e-05)
(0 0 8.85703e-05)
(0 0 0.000102781)
(0 0 0.000113843)
(0 0 0.000118332)
(0 0 0.000113839)
(0 0 9.96005e-05)
(0 0 7.66438e-05)
(0 0 4.74469e-05)
(0 0 1.53035e-05)
(0 0 -1.63864e-05)
(0 0 -4.47126e-05)
(0 0 -6.76263e-05)
(0 0 -8.40681e-05)
(0 0 -9.38932e-05)
(0 0 -9.76683e-05)
(0 0 -9.64165e-05)
(0 0 -9.13714e-05)
(0 0 -8.37772e-05)
(0 0 -7.47514e-05)
(0 0 -6.52082e-05)
(0 0 -5.58328e-05)
(0 0 -4.70904e-05)
(0 0 -3.92569e-05)
(0 0 -3.24586e-05)
(0 0 -2.6713e-05)
(0 0 -2.19654e-05)
(0 0 -1.81182e-05)
(0 0 -1.50539e-05)
(0 0 -1.26506e-05)
(0 0 -1.07918e-05)
(0 0 -9.37296e-06)
(0 0 -8.30317e-06)
(0 0 -7.50621e-06)
(0 0 -6.91953e-06)
(0 0 -6.49277e-06)
(0 0 -6.18564e-06)
(0 0 -5.96482e-06)
(0 0 -5.79768e-06)
(0 0 -5.63457e-06)
(0 0 -5.35306e-06)
(0 0 -4.57729e-06)
(0 0 -2.10109e-06)
(0 0 5.91337e-06)
(0 8.53309e-23 3.13575e-05)
(0 0 6.50532e-05)
(0 0 6.4775e-05)
(0 0 6.45275e-05)
(0 0 6.42855e-05)
(0 0 6.39684e-05)
(0 0 6.3575e-05)
(0 0 6.34963e-05)
(0 0 6.47733e-05)
(0 0 6.89727e-05)
(0 0 7.75515e-05)
(0 0 9.09501e-05)
(0 0 0.000107894)
(0 0 0.000125324)
(0 0 0.000139065)
(0 0 0.000144965)
(0 0 0.000140071)
(0 0 0.00012341)
(0 0 9.61615e-05)
(0 0 6.12705e-05)
(0 0 2.26818e-05)
(0 0 -1.55119e-05)
(0 0 -4.97901e-05)
(0 0 -7.76582e-05)
(0 0 -9.78071e-05)
(0 0 -0.000110029)
(0 0 -0.000114977)
(0 0 -0.000113859)
(0 0 -0.000108144)
(0 0 -9.93195e-05)
(0 0 -8.87269e-05)
(0 0 -7.74666e-05)
(0 0 -6.63663e-05)
(0 0 -5.59904e-05)
(0 0 -4.66765e-05)
(0 0 -3.8582e-05)
(0 0 -3.17332e-05)
(0 0 -2.60685e-05)
(0 0 -2.14745e-05)
(0 0 -1.78127e-05)
(0 0 -1.4939e-05)
(0 0 -1.27154e-05)
(0 0 -1.10173e-05)
(0 0 -9.7365e-06)
(0 0 -8.78216e-06)
(0 0 -8.0796e-06)
(0 0 -7.5687e-06)
(0 0 -7.20144e-06)
(0 0 -6.93844e-06)
(0 0 -6.74249e-06)
(0 0 -6.56112e-06)
(0 0 -6.27316e-06)
(0 0 -5.51693e-06)
(0 0 -3.13819e-06)
(0 0 4.58052e-06)
(0 4.2104e-22 2.95287e-05)
(0 0 7.67796e-05)
(0 0 7.64458e-05)
(0 0 7.61525e-05)
(0 0 7.5867e-05)
(0 0 7.5495e-05)
(0 0 7.50334e-05)
(0 0 7.49353e-05)
(0 0 7.64142e-05)
(0 0 8.13059e-05)
(0 0 9.13339e-05)
(0 0 0.00010705)
(0 0 0.000127013)
(0 0 0.000147692)
(0 0 0.000164226)
(0 0 0.000171753)
(0 0 0.000166776)
(0 0 0.000148085)
(0 0 0.000116978)
(0 0 7.68182e-05)
(0 0 3.21595e-05)
(0 0 -1.22467e-05)
(0 0 -5.22896e-05)
(0 0 -8.50342e-05)
(0 0 -0.000108915)
(0 0 -0.000123644)
(0 0 -0.00012994)
(0 0 -0.000129173)
(0 0 -0.000123027)
(0 0 -0.000113216)
(0 0 -0.00010129)
(0 0 -8.85272e-05)
(0 0 -7.58929e-05)
(0 0 -6.40485e-05)
(0 0 -5.33929e-05)
(0 0 -4.41166e-05)
(0 0 -3.62567e-05)
(0 0 -2.97482e-05)
(0 0 -2.44645e-05)
(0 0 -2.02493e-05)
(0 0 -1.69387e-05)
(0 0 -1.43752e-05)
(0 0 -1.24163e-05)
(0 0 -1.0938e-05)
(0 0 -9.83587e-06)
(0 0 -9.02421e-06)
(0 0 -8.43388e-06)
(0 0 -8.00972e-06)
(0 0 -7.70693e-06)
(0 0 -7.48477e-06)
(0 0 -7.29114e-06)
(0 0 -7.01755e-06)
(0 0 -6.36066e-06)
(0 0 -4.39067e-06)
(0 0 1.85315e-06)
(0 -8.23614e-23 2.25742e-05)
(-1.75766e-23 7.92792e-21 3.17728e-06)
(-1.44684e-22 7.79498e-21 2.53353e-06)
(3.17771e-23 -1.93538e-22 1.6698e-06)
(3.88173e-23 -2.32679e-20 5.43245e-07)
(-9.04216e-23 7.94745e-21 -8.82076e-07)
(3.54488e-22 7.80564e-21 -2.63503e-06)
(-7.78412e-22 2.27576e-20 -4.73925e-06)
(3.05913e-22 -2.31216e-20 -7.21557e-06)
(6.15416e-22 -7.44044e-21 -1.00842e-05)
(-8.78082e-22 -3.6628e-24 -1.33665e-05)
(-8.76894e-22 -7.4529e-21 -1.70863e-05)
(7.6793e-22 7.08169e-21 -2.12709e-05)
(5.59112e-22 -5.83148e-20 -2.59522e-05)
(-1.03411e-21 1.25171e-19 -3.11668e-05)
(3.58011e-22 -6.73243e-20 -3.69554e-05)
(-1.20158e-21 -5.07556e-20 -4.33759e-05)
(2.31889e-21 -6.46336e-20 -5.04746e-05)
(-1.81711e-21 7.61172e-21 -5.83476e-05)
(-1.83873e-22 -7.10393e-21 -6.70402e-05)
(6.97055e-23 7.10737e-21 -7.66624e-05)
(-3.07867e-24 -1.25922e-22 -8.72992e-05)
(-6.46561e-23 -6.85431e-21 -9.9068e-05)
(-1.96963e-21 6.91205e-21 -0.000112101)
(4.11683e-21 1.26562e-23 -0.000126549)
(1.19965e-21 6.70867e-21 -0.000142585)
(-3.20765e-21 -5.20573e-24 -0.00016041)
(4.61381e-21 7.78255e-21 -0.000180259)
(-5.42832e-21 1.01023e-19 -0.000202414)
(6.89445e-22 -1.08474e-19 -0.000227224)
(-2.10421e-21 9.90337e-20 -0.000255138)
(2.05021e-21 -1.00152e-19 -0.000286764)
(4.74799e-23 1.31292e-21 -0.000322977)
(-6.17488e-23 -1.61052e-21 -0.000365104)
(2.73953e-21 -9.46563e-20 -0.000415268)
(-8.48302e-21 9.18538e-20 -0.000476984)
(-3.06473e-22 -1.51383e-21 -0.000556217)
(6.06306e-21 1.32605e-23 -0.000663163)
(6.58523e-21 1.44025e-23 -0.00081519)
(-6.56416e-21 -1.43565e-23 -0.00104147)
(-2.17431e-22 -4.75544e-25 -0.00138992)
(-2.26564e-22 -4.95517e-25 -0.0019369)
(-7.78974e-21 -1.70369e-23 -0.00279971)
(7.51922e-21 1.64453e-23 -0.00415078)
(-2.48021e-22 1.47459e-22 -0.00623058)
(-3.44176e-23 7.6273e-21 -0.00935398)
(-2.4033e-20 4.93169e-20 -0.0139017)
(2.31488e-20 -6.49975e-20 -0.0202855)
(-5.42872e-21 -9.19641e-21 -0.0288731)
(5.96639e-21 2.5209e-20 -0.0398699)
(-1.981e-20 -5.53026e-21 -0.0530777)
(-2.54802e-22 7.93834e-21 9.3655e-06)
(-1.05157e-22 1.56155e-20 7.37135e-06)
(2.93339e-22 7.59385e-21 4.66184e-06)
(-8.51245e-22 -7.80787e-21 1.11027e-06)
(1.5817e-21 7.44846e-21 -3.38482e-06)
(-4.79492e-22 -5.33189e-20 -8.90326e-06)
(-2.315e-22 8.46543e-20 -1.5511e-05)
(-5.45747e-23 -8.80277e-21 -2.32682e-05)
(2.14838e-21 -9.74702e-20 -3.2236e-05)
(-2.24257e-21 1.3759e-19 -4.24805e-05)
(-8.39285e-22 1.25726e-19 -5.40778e-05)
(6.21668e-22 -1.13086e-19 -6.71157e-05)
(-3.84232e-22 7.2009e-22 -8.16963e-05)
(2.74234e-21 -7.20219e-21 -9.7937e-05)
(-2.14132e-21 2.39239e-20 -0.000115978)
(-5.91301e-21 2.37775e-19 -0.00013598)
(1.65874e-21 -2.23558e-19 -0.000158172)
(-5.5402e-21 2.39565e-19 -0.000182711)
(-2.97178e-22 1.94027e-20 -0.000209884)
(-3.7558e-21 -7.2634e-21 -0.000239929)
(3.97174e-21 1.42091e-22 -0.000273182)
(-3.98624e-21 9.00689e-21 -0.000310019)
(9.17855e-22 2.07917e-19 -0.000350858)
(5.96687e-21 -4.40131e-19 -0.00039618)
(4.51693e-21 -2.10199e-19 -0.000446539)
(-7.04599e-21 4.2556e-19 -0.000502575)
(3.77801e-21 -4.24142e-19 -0.000565039)
(-2.14616e-21 4.35168e-19 -0.000634832)
(3.21498e-21 1.46322e-21 -0.00071306)
(-3.64354e-21 -9.54823e-23 -0.000801142)
(-1.22405e-21 -2.67713e-24 -0.000900987)
(0 0 -0.00101531)
(1.80836e-22 9.38308e-23 -0.00114822)
(1.08037e-20 1.21266e-20 -0.00130622)
(-1.57433e-20 3.54394e-19 -0.00150006)
(-1.54327e-20 -2.39379e-20 -0.00174792)
(1.85257e-20 -3.49375e-19 -0.00208082)
(2.63319e-20 -3.01589e-19 -0.00255153)
(-9.54001e-21 3.22147e-19 -0.00324865)
(-3.04563e-20 2.141e-21 -0.00431752)
(2.96872e-20 1.69418e-20 -0.0059896)
(-4.14686e-20 2.29146e-19 -0.00862005)
(2.25682e-20 -2.38344e-19 -0.0127304)
(-1.75597e-20 1.43148e-20 -0.0190473)
(1.94511e-20 7.5147e-21 -0.0285216)
(-5.84227e-20 1.10357e-19 -0.0423022)
(5.83427e-20 -1.08026e-19 -0.0616275)
(-8.93677e-20 8.05107e-20 -0.0875844)
(8.62407e-20 -8.9922e-20 -0.120719)
(-1.83005e-20 -6.15386e-22 -0.159097)
(-5.59443e-23 4.70388e-20 1.50271e-05)
(-8.82514e-23 1.48747e-20 1.14433e-05)
(3.86348e-22 -6.16182e-20 6.47704e-06)
(-8.26608e-22 1.22557e-19 -6.77331e-08)
(1.81793e-21 -2.62323e-19 -8.33287e-06)
(3.38681e-22 1.24715e-19 -1.84274e-05)
(-2.40124e-21 -8.51948e-22 -3.04467e-05)
(1.53862e-21 -1.69295e-20 -4.44865e-05)
(1.53554e-21 -2.5589e-19 -6.0652e-05)
(6.47512e-22 2.43799e-19 -7.90648e-05)
(-8.41055e-22 -1.59593e-21 -9.98668e-05)
(-4.13793e-21 -1.54071e-23 -0.000123225)
(6.56088e-21 -1.81767e-21 -0.000149333)
(-3.78807e-21 -2.49466e-19 -0.000178416)
(4.99014e-21 2.26661e-19 -0.000210735)
(-1.14334e-20 4.5037e-19 -0.000246616)
(-4.74649e-21 -1.1939e-20 -0.000286422)
(-4.86128e-21 4.63319e-19 -0.000330562)
(4.08617e-22 -1.40617e-20 -0.000379447)
(-1.24389e-20 4.49776e-19 -0.000433612)
(1.23683e-20 -4.67096e-19 -0.000493669)
(-9.30971e-21 4.4593e-19 -0.000560322)
(2.63363e-21 -4.63801e-19 -0.00063436)
(5.16211e-21 -9.27374e-21 -0.00071669)
(-2.56933e-21 1.35873e-20 -0.000808355)
(5.4768e-21 -8.77475e-21 -0.000910563)
(-1.89612e-20 4.17676e-19 -0.00102473)
(1.70918e-20 -4.45109e-19 -0.00115254)
(1.86208e-20 -4.13453e-19 -0.00129606)
(-1.53417e-20 4.15309e-19 -0.00145791)
(-1.06824e-21 -5.10045e-21 -0.00164154)
(1.10516e-20 -1.19586e-22 -0.00185183)
(-1.26269e-20 -2.44523e-20 -0.00209602)
(5.35643e-20 -7.5373e-19 -0.00238543)
(1.63774e-20 5.58801e-20 -0.00273864)
(-7.02397e-20 7.09492e-19 -0.00318683)
(3.89379e-21 -1.21591e-20 -0.00378302)
(-1.12794e-20 -4.75792e-21 -0.0046173)
(1.09591e-19 -5.94433e-19 -0.00584061)
(-2.03925e-19 1.16709e-18 -0.00770033)
(2.07881e-19 -1.15887e-18 -0.0105898)
(6.98686e-20 8.4e-20 -0.015112)
(-1.55449e-19 5.06872e-19 -0.0221507)
(-1.62697e-19 3.49193e-19 -0.0329372)
(1.53819e-19 -4.13987e-19 -0.049083)
(-2.17613e-20 1.90818e-20 -0.0725386)
(5.3758e-20 -1.6968e-20 -0.105405)
(1.61051e-19 -9.99371e-20 -0.149484)
(-1.74383e-19 1.56163e-19 -0.205492)
(-2.48988e-20 -4.01062e-20 -0.265758)
(4.11496e-22 -3.10245e-20 1.97043e-05)
(-3.65012e-22 1.56838e-20 1.39757e-05)
(6.75268e-22 -1.68239e-22 5.88328e-06)
(-5.99221e-22 -1.54299e-20 -4.76851e-06)
(-9.4467e-22 -1.42158e-21 -1.81023e-05)
(3.40258e-21 -2.42156e-19 -3.42216e-05)
(-4.85962e-21 4.58484e-19 -5.32383e-05)
(2.38752e-21 -2.4682e-19 -7.5287e-05)
(-1.80662e-21 1.48918e-20 -0.000100532)
(4.93028e-21 -2.70239e-19 -0.000129174)
(-5.89344e-21 2.46524e-19 -0.000161451)
(-4.34694e-21 4.70712e-19 -0.000197644)
(1.12179e-20 -9.52168e-19 -0.00023808)
(-1.3402e-20 9.51004e-19 -0.000283135)
(1.76118e-20 -9.46456e-19 -0.000333246)
(-1.17955e-20 9.37802e-19 -0.000388942)
(-1.01174e-20 4.77101e-19 -0.000450842)
(-7.01575e-22 -3.72213e-21 -0.000519585)
(4.45566e-21 3.86867e-21 -0.000595904)
(-7.89968e-21 4.39863e-19 -0.000680671)
(-1.55946e-21 -4.61903e-19 -0.000774894)
(1.46295e-20 1.26073e-20 -0.000879738)
(-3.41045e-20 8.86511e-19 -0.000996516)
(2.60336e-20 -8.89372e-19 -0.00112674)
(2.25865e-21 -5.34825e-21 -0.00127214)
(-9.64424e-21 -9.00603e-23 -0.00143474)
(1.46847e-20 -1.34348e-20 -0.00161688)
(-4.76744e-21 1.22254e-22 -0.00182137)
(-5.23101e-21 -6.45502e-23 -0.00205158)
(4.98503e-21 1.93708e-22 -0.00231175)
(-3.7075e-21 1.46197e-21 -0.0026074)
(6.38884e-20 -7.83986e-19 -0.00294609)
(-5.80333e-20 8.06237e-19 -0.00333883)
(-1.59174e-20 2.26884e-22 -0.00380254)
(1.85587e-20 -1.02522e-20 -0.00436447)
(-9.94559e-20 7.1853e-19 -0.00507)
(1.15734e-19 -7.21669e-19 -0.00599582)
(-2.24053e-20 2.16925e-21 -0.00727182)
(1.58392e-20 -9.23643e-23 -0.00911532)
(3.76522e-20 6.31049e-21 -0.0118822)
(-2.45983e-19 5.37512e-19 -0.0161381)
(3.65464e-19 -1.08919e-18 -0.0227492)
(-1.78402e-19 5.51687e-19 -0.0329859)
(2.57798e-19 -4.21519e-19 -0.0486215)
(-2.49646e-19 4.9651e-19 -0.0719907)
(-5.79357e-19 5.11381e-19 -0.10595)
(1.09305e-18 -1.08346e-18 -0.153624)
(-5.3465e-19 5.46956e-19 -0.217683)
(1.84659e-20 -2.10025e-21 -0.29883)
(4.4405e-21 -3.44088e-20 -0.376231)
(-7.31115e-22 1.57641e-20 2.28203e-05)
(-3.18022e-22 6.03921e-20 1.37511e-05)
(2.07943e-21 -1.83329e-19 8.89797e-07)
(-1.48558e-21 2.45975e-19 -1.57607e-05)
(-1.75259e-22 -1.08903e-19 -3.62137e-05)
(1.21044e-22 -1.45658e-20 -6.05428e-05)
(-4.76145e-22 1.53431e-20 -8.88875e-05)
(2.98714e-21 -1.84054e-22 -0.00012145)
(-2.82804e-21 -1.49974e-20 -0.000158495)
(-5.19453e-21 3.35939e-20 -0.000200345)
(-7.2686e-21 4.78768e-19 -0.000247386)
(1.85726e-20 -4.97573e-19 -0.000300072)
(-2.28362e-20 4.64065e-19 -0.000358926)
(1.91082e-20 -4.82707e-19 -0.000424548)
(-2.96778e-21 3.35257e-21 -0.000497628)
(1.0853e-20 4.69647e-23 -0.000578988)
(4.12495e-21 3.66987e-21 -0.00066959)
(-5.65221e-21 4.50694e-19 -0.000770462)
(2.04586e-20 -4.87667e-19 -0.000882765)
(6.25125e-21 2.66978e-20 -0.00100787)
(-4.62475e-20 9.28844e-19 -0.00114738)
(2.97767e-20 -9.31394e-19 -0.00130312)
(1.00424e-20 2.24404e-20 -0.00147717)
(-1.78365e-20 -2.30535e-22 -0.00167192)
(1.16715e-20 9.526e-21 -0.00189016)
(-3.97398e-20 8.91776e-19 -0.00213508)
(3.29931e-20 -8.8332e-19 -0.00241044)
(2.80442e-21 9.51106e-21 -0.00272066)
(9.38279e-21 2.70479e-20 -0.00307107)
(-1.13733e-20 -5.43227e-22 -0.00346822)
(1.18968e-21 -1.29271e-20 -0.00392048)
(-3.69002e-20 1.31214e-20 -0.00443903)
(3.46581e-20 1.24953e-20 -0.00503965)
(-3.04286e-21 -2.49817e-20 -0.00574593)
(8.37037e-20 -7.32443e-19 -0.00659503)
(-7.4931e-20 7.54993e-19 -0.00764781)
(2.70997e-19 -1.45124e-18 -0.00900623)
(-2.48905e-19 1.46529e-18 -0.0108421)
(3.07237e-19 -1.36945e-18 -0.0134425)
(7.03144e-20 1.31096e-19 -0.0172777)
(-3.52513e-19 1.30387e-18 -0.023096)
(-1.18938e-19 -2.18466e-20 -0.0320456)
(1.61925e-20 3.82158e-22 -0.0458165)
(-1.80057e-20 5.53323e-22 -0.0667856)
(5.32105e-20 1.63469e-21 -0.0981322)
(2.55534e-20 1.33302e-20 -0.143872)
(-1.11054e-19 5.0313e-21 -0.208656)
(6.32817e-20 4.87413e-21 -0.296824)
(-1.61952e-22 -3.04059e-22 -0.409562)
(3.54004e-20 6.24286e-22 -0.500523)
(-7.60688e-22 7.60087e-20 2.353e-05)
(1.65591e-21 -4.63391e-20 8.50687e-06)
(-1.62991e-21 -1.63247e-20 -1.20344e-05)
(4.79725e-21 -2.27016e-19 -3.75801e-05)
(-2.45332e-21 2.28869e-19 -6.80488e-05)
(2.21456e-21 -2.26423e-19 -0.000103549)
(-1.12822e-20 4.99265e-19 -0.000144323)
(1.20845e-20 -6.99052e-19 -0.000190714)
(-7.84282e-21 4.9423e-19 -0.000243157)
(-6.34596e-21 4.81767e-19 -0.000302171)
(-2.20085e-21 3.95761e-21 -0.000368368)
(2.50959e-20 -9.4619e-19 -0.000442453)
(-2.21263e-20 9.84452e-19 -0.000525241)
(5.55097e-21 -4.63052e-19 -0.000617656)
(1.24947e-20 -4.6525e-19 -0.000720756)
(2.2726e-20 -4.5766e-19 -0.000835773)
(-3.26313e-21 6.48733e-21 -0.000964155)
(3.90587e-20 -9.48981e-19 -0.00110753)
(3.05893e-20 -9.10876e-19 -0.00126767)
(6.55792e-21 2.11582e-20 -0.00144669)
(-2.77771e-20 9.45841e-19 -0.00164703)
(-1.98816e-20 -7.98017e-21 -0.00187151)
(1.21401e-20 8.8394e-21 -0.00212336)
(-5.19308e-20 9.15082e-19 -0.00240629)
(4.24943e-20 -9.29402e-19 -0.00272462)
(7.39552e-20 -8.92446e-19 -0.00308335)
(-7.51723e-20 9.21713e-19 -0.00348835)
(1.4888e-20 -1.97723e-20 -0.00394649)
(6.93564e-20 -8.88855e-19 -0.00446602)
(-9.67791e-20 9.11451e-19 -0.00505691)
(4.3208e-21 1.21871e-20 -0.00573167)
(-2.10149e-19 1.66756e-18 -0.0065065)
(1.90615e-19 -1.72993e-18 -0.00740346)
(4.78245e-20 6.12826e-20 -0.00845439)
(-2.70034e-19 1.57627e-18 -0.00970777)
(2.48102e-19 -1.64342e-18 -0.0112411)
(-3.11204e-20 -3.22099e-21 -0.0131821)
(4.71787e-19 -1.4795e-18 -0.0157444)
(-4.41964e-19 1.52782e-18 -0.0192846)
(-6.51402e-20 -7.13877e-20 -0.0243875)
(6.74109e-19 -1.28857e-18 -0.031988)
(-1.18684e-18 2.65589e-18 -0.0435291)
(-6.37209e-20 -1.54083e-19 -0.0611516)
(-8.53444e-20 -1.2105e-19 -0.0879039)
(7.61289e-19 -1.15342e-18 -0.127963)
(3.88325e-20 6.19192e-20 -0.18689)
(-8.53144e-19 7.61597e-19 -0.271919)
(8.36379e-19 -8.37814e-19 -0.391758)
(8.76015e-21 2.84938e-20 -0.552658)
(9.09194e-21 -2.66272e-21 -0.662835)
(6.08961e-22 -1.58208e-20 2.07276e-05)
(1.77657e-21 -1.3502e-19 -6.45294e-06)
(-1.88499e-21 1.21752e-19 -3.8948e-05)
(-1.23933e-21 -1.71144e-20 -7.68508e-05)
(5.47658e-21 -2.25583e-19 -0.00012038)
(-5.07299e-21 2.31956e-19 -0.000169889)
(-6.21692e-21 4.68541e-19 -0.000225824)
(-5.02981e-21 -1.93957e-20 -0.00028873)
(2.16512e-21 -4.5815e-21 -0.000359244)
(1.47881e-20 -4.99521e-19 -0.000438102)
(-1.21553e-20 4.67268e-19 -0.000526143)
(1.86295e-20 -9.88442e-19 -0.000624324)
(-4.58429e-21 4.93995e-19 -0.000733733)
(-3.58533e-21 -1.85557e-20 -0.000855602)
(-4.79173e-21 -2.21786e-20 -0.000991313)
(2.94899e-20 -9.6921e-19 -0.00114242)
(-1.62358e-21 -2.02079e-20 -0.00131074)
(2.84755e-20 -9.87063e-19 -0.00149839)
(-5.32242e-21 -7.71559e-21 -0.0017077)
(-1.68765e-22 1.17922e-22 -0.00194126)
(1.13178e-20 8.34186e-21 -0.0022021)
(-5.41976e-20 9.48863e-19 -0.00249364)
(4.85309e-20 -9.69134e-19 -0.00281976)
(1.26353e-20 8.24752e-21 -0.00318489)
(-8.5834e-21 -1.48452e-20 -0.00359403)
(-6.10501e-21 9.79719e-21 -0.00405289)
(-7.5879e-20 9.14908e-19 -0.00456795)
(1.62878e-19 -1.86603e-18 -0.00514658)
(-7.74501e-20 9.72762e-19 -0.00579723)
(-1.95808e-19 1.80211e-18 -0.00652975)
(-3.03783e-20 -4.56809e-20 -0.00735583)
(2.31356e-21 -2.69167e-20 -0.00828996)
(-6.55684e-20 -5.39579e-20 -0.00935125)
(2.63047e-19 -1.79885e-18 -0.0105669)
(4.01544e-19 -1.66413e-18 -0.0119787)
(-3.59349e-19 1.74631e-18 -0.0136557)
(-3.35044e-20 -5.42003e-20 -0.0157167)
(4.74485e-19 -1.58875e-18 -0.0183691)
(-4.1958e-19 1.68243e-18 -0.0219741)
(-6.65785e-19 1.49279e-18 -0.0271483)
(5.67243e-19 -1.5763e-18 -0.034914)
(7.70837e-20 -1.10044e-20 -0.0469022)
(8.59744e-19 -1.38928e-18 -0.0656095)
(1.17219e-19 1.21674e-19 -0.0946986)
(-9.90784e-19 1.35929e-18 -0.139352)
(-1.59572e-20 -3.89196e-20 -0.206759)
(3.30199e-20 5.18631e-22 -0.307435)
(-3.31342e-20 1.5619e-20 -0.460018)
(-5.01013e-19 5.23872e-19 -0.700592)
(4.92238e-19 -5.33178e-19 -0.960599)
(-1.0685e-20 -3.15534e-21 0.00950174)
(-1.06375e-20 -2.92902e-22 0.00520307)
(9.96866e-21 9.84378e-21 0.00156881)
(-6.89986e-21 2.19427e-21 -0.00146656)
(7.42324e-21 -1.16632e-20 -0.00397635)
(6.62726e-23 3.52751e-21 -0.00603637)
(-1.73533e-22 -9.78593e-23 -0.00771733)
(-5.66688e-21 1.2394e-23 -0.00908013)
(5.50963e-21 -1.20501e-23 -0.0101749)
(-1.66018e-22 3.63097e-25 -0.0110424)
(-1.60785e-22 3.51652e-25 -0.0117155)
(4.82947e-21 -1.05625e-23 -0.0122221)
(-4.84499e-21 1.05965e-23 -0.0125842)
(-4.41639e-21 9.65909e-24 -0.0128199)
(2.77623e-22 -1.05766e-21 -0.0129448)
(6.30113e-21 3.62067e-21 -0.0129724)
(-2.14731e-21 -1.30896e-21 -0.0129147)
(-7.59793e-23 -9.95464e-22 -0.0127819)
(-2.8888e-23 7.98815e-22 -0.0125838)
(-2.20809e-21 -1.3276e-20 -0.0123289)
(2.24864e-21 1.23296e-20 -0.0120243)
(-1.51906e-21 -1.64102e-20 -0.0116763)
(1.77306e-21 6.40964e-22 -0.011291)
(-2.40972e-21 1.27517e-23 -0.0108751)
(1.58321e-21 1.66124e-21 -0.0104357)
(-5.92241e-22 3.52711e-23 -0.00997877)
(-1.59757e-21 3.49404e-24 -0.00950836)
(7.51432e-22 -2.15199e-23 -0.00902882)
(1.80418e-22 2.48782e-21 -0.00854427)
(-3.43483e-23 3.44157e-23 -0.00805844)
(-1.88344e-22 -2.91861e-21 -0.00757469)
(1.67404e-22 3.11067e-21 -0.00709606)
(6.09672e-23 -3.37211e-21 -0.00662524)
(5.84177e-22 3.23985e-20 -0.00616464)
(-8.72539e-22 -3.25287e-20 -0.00571638)
(-6.31772e-22 -2.8201e-20 -0.00528229)
(1.4142e-21 6.1565e-20 -0.00486391)
(-7.87846e-22 -3.36301e-20 -0.00446255)
(-1.7958e-22 -4.52237e-21 -0.00407924)
(1.75254e-22 4.69181e-21 -0.00371478)
(-3.01441e-23 1.73965e-24 -0.00336976)
(2.09401e-22 5.02683e-21 -0.00304453)
(-4.66405e-22 -2.6301e-20 -0.00273928)
(4.37511e-22 2.65381e-20 -0.00245398)
(-1.16122e-22 -5.53763e-21 -0.00218846)
(2.87281e-22 1.71695e-20 -0.00194235)
(3.4786e-23 -5.7018e-21 -0.00171511)
(-1.84682e-22 -1.19876e-20 -0.00150598)
(4.7493e-23 6.04292e-21 -0.00131384)
(-1.36432e-22 -6.24281e-21 -0.00113713)
(-1.53606e-20 2.529e-20 0.027539)
(3.06337e-20 -1.01154e-20 0.014743)
(-2.47005e-20 -2.16802e-20 0.00383632)
(8.67428e-21 2.25745e-20 -0.00519733)
(-9.04971e-21 -2.21092e-20 -0.0126114)
(-1.27082e-20 6.14831e-21 -0.01866)
(1.13286e-20 6.8658e-21 -0.0235722)
(1.21728e-20 1.72735e-20 -0.0275388)
(1.09564e-21 -2.89701e-20 -0.0307117)
(-2.28334e-20 6.79707e-21 -0.0332159)
(2.19514e-20 -5.09568e-21 -0.0351494)
(-2.96841e-21 -6.21345e-21 -0.0365945)
(-9.48297e-21 2.13682e-20 -0.0376167)
(-1.04631e-20 -6.10479e-21 -0.0382691)
(8.63782e-21 -1.66519e-20 -0.0385976)
(1.09539e-20 8.2397e-21 -0.0386419)
(-7.93113e-21 4.41681e-21 -0.0384363)
(-4.01965e-22 -1.15386e-21 -0.038012)
(1.37596e-23 -1.22604e-22 -0.0373972)
(7.44746e-22 -1.62883e-24 -0.0366168)
(2.15427e-21 3.40887e-23 -0.0356924)
(-2.20238e-21 -3.43802e-21 -0.0346422)
(1.61147e-20 8.89649e-20 -0.0334837)
(-1.81542e-20 -9.34742e-20 -0.0322382)
(2.0457e-20 1.12571e-19 -0.0309228)
(-1.05513e-20 -4.7917e-20 -0.0295572)
(-2.06016e-20 -1.37204e-19 -0.028154)
(9.26028e-21 6.93327e-20 -0.0267255)
(1.07638e-21 -1.67575e-21 -0.0252836)
(-1.81599e-21 -5.61524e-21 -0.0238391)
(1.25703e-21 2.91258e-21 -0.0224017)
(-1.03537e-21 -9.7861e-21 -0.0209804)
(9.98359e-21 1.07533e-19 -0.0195831)
(-2.12394e-20 -2.31221e-19 -0.0182168)
(9.84435e-21 1.12849e-19 -0.0168877)
(-8.51828e-22 -1.17254e-20 -0.0156011)
(4.22689e-23 4.12014e-21 -0.0143616)
(1.45851e-23 -1.77202e-24 -0.0131729)
(-4.88858e-21 -7.84606e-20 -0.0120381)
(4.16987e-21 6.93264e-20 -0.0109595)
(3.31054e-21 6.96101e-20 -0.00993868)
(-4.82822e-21 -9.48815e-20 -0.00897674)
(1.355e-22 5.27329e-21 -0.00807413)
(1.05286e-21 2.7429e-20 -0.00723078)
(-2.30649e-21 -4.93616e-20 -0.00644608)
(1.90824e-24 -5.6777e-21 -0.00571897)
(-1.52519e-21 -4.11151e-20 -0.00504779)
(-3.11624e-22 -6.46872e-21 -0.0044302)
(3.68606e-22 1.1871e-20 -0.0038628)
(4.54173e-22 1.85588e-20 -0.00334052)
(-1.38223e-20 -1.08822e-21 0.0426541)
(-1.38412e-20 -1.53122e-20 0.0215113)
(3.58965e-20 2.93412e-20 0.00333843)
(-4.36821e-20 -1.25179e-20 -0.0114373)
(1.79925e-20 1.21542e-20 -0.0233721)
(2.67105e-20 2.08367e-20 -0.0329871)
(-1.79429e-20 -6.0001e-20 -0.0407223)
(1.66804e-20 -1.93241e-20 -0.0469194)
(-3.17047e-20 3.9912e-20 -0.0518325)
(-6.25014e-21 2.51768e-20 -0.0556737)
(3.98181e-20 -4.70431e-20 -0.0586103)
(-3.09002e-20 3.6189e-20 -0.0607727)
(6.95309e-21 -1.12592e-20 -0.0622655)
(-3.41929e-21 -9.51475e-21 -0.0631739)
(5.18428e-20 3.86428e-20 -0.0635707)
(-4.26895e-21 3.35357e-20 -0.0635185)
(-4.51581e-20 -5.36157e-20 -0.0630727)
(1.11322e-20 -6.03461e-21 -0.0622828)
(-7.78618e-21 2.90426e-22 -0.0611935)
(4.29928e-22 -3.0464e-21 -0.0598445)
(3.03523e-20 8.04085e-20 -0.0582703)
(-3.06221e-20 -6.92171e-20 -0.0565008)
(-3.32543e-20 -1.03684e-19 -0.0545647)
(3.65351e-20 1.01719e-19 -0.0524905)
(-1.04153e-21 6.62565e-21 -0.0503119)
(-1.43748e-22 -4.31197e-21 -0.0480546)
(-6.97965e-22 6.03963e-21 -0.0457425)
(-3.05752e-20 -1.60259e-19 -0.0433944)
(3.47647e-20 1.63794e-19 -0.0410289)
(-3.33941e-20 -1.77965e-19 -0.0386629)
(3.57156e-20 1.89084e-19 -0.0363121)
(8.34011e-22 6.89966e-21 -0.0339904)
(3.24676e-20 2.29108e-19 -0.0317103)
(-6.47711e-20 -4.61777e-19 -0.0294831)
(3.4343e-20 2.47553e-19 -0.0273185)
(1.5697e-20 1.41271e-19 -0.0252249)
(-1.40298e-20 -1.24081e-19 -0.0232094)
(-2.9026e-22 -1.16402e-22 -0.021278)
(-2.49707e-22 -1.67965e-22 -0.0194353)
(-1.62857e-23 5.87555e-23 -0.017685)
(1.30905e-20 1.60696e-19 -0.0160296)
(-1.27658e-20 -1.50987e-19 -0.0144705)
(1.0311e-21 1.06749e-20 -0.0130084)
(-4.85936e-22 -5.59829e-23 -0.0116431)
(5.4629e-21 9.0038e-20 -0.0103735)
(-1.02643e-20 -1.71409e-19 -0.00919766)
(5.11644e-21 9.26305e-20 -0.00811287)
(-2.70142e-21 -4.84887e-20 -0.00711512)
(2.02215e-21 3.60704e-20 -0.00619842)
(4.8681e-22 1.21664e-20 -0.00535328)
(1.97441e-21 2.64973e-20 0.052081)
(8.54954e-21 -5.41019e-20 0.02291)
(-7.32475e-20 1.54746e-20 -0.00233282)
(1.20504e-19 8.27948e-20 -0.0222471)
(-3.14508e-20 -1.11702e-19 -0.0379329)
(-1.57968e-20 2.28869e-20 -0.0503244)
(7.32091e-22 1.9274e-20 -0.060142)
(-1.14012e-20 1.73359e-21 -0.0679036)
(-1.86386e-20 1.36911e-20 -0.0739809)
(6.92634e-20 -2.85867e-20 -0.0786647)
(-2.68032e-20 1.28092e-20 -0.0821794)
(-1.35537e-20 6.26815e-22 -0.0846948)
(1.95326e-20 1.0325e-20 -0.0863478)
(-7.20947e-20 -6.44899e-20 -0.0872502)
(5.55837e-20 4.27186e-20 -0.0874964)
(-1.06793e-20 1.25559e-20 -0.0871676)
(9.63823e-21 -8.91115e-21 -0.0863354)
(7.2212e-20 1.31943e-19 -0.0850635)
(-7.66904e-20 -1.15646e-19 -0.0834095)
(7.49739e-22 -1.06206e-20 -0.0814251)
(-2.9245e-21 -9.96642e-23 -0.0791566)
(3.01995e-21 4.94358e-22 -0.0766413)
(2.40484e-21 -8.98533e-23 -0.0739184)
(-6.08884e-21 4.12786e-21 -0.0710233)
(5.31187e-21 4.50844e-22 -0.067998)
(6.48063e-22 7.8362e-21 -0.0648785)
(-9.65839e-20 -3.37704e-19 -0.0616968)
(9.8279e-20 3.2669e-19 -0.0584762)
(-5.02831e-21 4.54482e-21 -0.0552404)
(-4.33979e-20 -2.02843e-19 -0.0520116)
(4.85322e-20 2.07735e-19 -0.0488099)
(-1.04929e-21 1.15839e-21 -0.0456536)
(-1.51308e-22 2.11541e-22 -0.0425588)
(-4.52796e-20 -2.59143e-19 -0.0395401)
(9.05833e-20 5.21574e-19 -0.0366101)
(-8.76981e-20 -5.36054e-19 -0.0337796)
(8.56076e-20 5.59148e-19 -0.0310579)
(-8.27788e-20 -5.81157e-19 -0.0284524)
(4.05212e-20 2.95824e-19 -0.0259691)
(1.9202e-20 1.58727e-19 -0.0236125)
(-1.67416e-20 -1.38552e-19 -0.0213857)
(-1.33136e-21 -1.05656e-20 -0.0192904)
(-1.6755e-20 -1.72829e-19 -0.0173271)
(3.54572e-20 3.72964e-19 -0.0154953)
(-1.65291e-20 -1.78166e-19 -0.0137933)
(1.92443e-22 2.52047e-22 -0.0122184)
(7.26834e-22 1.17147e-20 -0.0107666)
(-1.70629e-22 -1.35349e-22 -0.00943225)
(-7.13922e-22 -1.2178e-20 -0.00820643)
(1.56229e-21 2.49532e-20 -0.00707399)
(2.70084e-20 9.51849e-23 0.0520641)
(3.29035e-22 3.9805e-22 0.0152233)
(-6.10224e-20 4.56005e-22 -0.0163777)
(9.03905e-20 -2.65293e-22 -0.0401731)
(-2.70544e-20 6.38082e-23 -0.0582416)
(-4.34148e-20 -8.18307e-22 -0.0721171)
(1.40625e-20 4.58113e-23 -0.0828762)
(-1.16382e-20 -7.79572e-23 -0.0912363)
(9.39459e-20 -2.5699e-20 -0.0976636)
(1.85766e-20 8.4147e-20 -0.102494)
(-1.67529e-21 7.05436e-20 -0.105995)
(-4.56998e-20 -1.31256e-19 -0.108363)
(9.2117e-20 1.58407e-19 -0.109756)
(-1.1098e-19 -1.4921e-19 -0.110304)
(4.76545e-20 1.0113e-19 -0.110111)
(-5.92432e-20 -1.06563e-19 -0.10927)
(5.1563e-21 -7.45716e-21 -0.107862)
(-2.76672e-20 -1.73279e-21 -0.105959)
(2.47823e-20 -3.50764e-21 -0.103627)
(1.4749e-21 2.64819e-21 -0.100926)