/*--------------------------------*- C++ -*----------------------------------*\
| =========                 |                                                 |
| \\      /  F ield         | OpenFOAM: The Open Source CFD Toolbox           |
|  \\    /   O peration     | Version:  2412                                  |
|   \\  /    A nd           | Website:  www.openfoam.com                      |
|    \\/     M anipulation  |                                                 |
\*---------------------------------------------------------------------------*/
FoamFile
{
    version     2.0;
    format      ascii;
    arch        "LSB;label=32;scalar=64";
    class       volVectorField;
    location    "11";
    object      vorticity;
}
// * * * * * * * * * * * * * * * * * * * * * * * * * * * * * * * * * * * * * //

dimensions      [0 0 -1 0 0 0 0];

internalField   nonuniform List<vector> 
5285
(
(0 -0 5.42089e-06)
(0 -0 6.53117e-06)
(0 -0 1.29463e-05)
(0 -0 2.27013e-05)
(0 -0 2.79008e-05)
(0 -0 2.1744e-05)
(0 -0 4.3953e-06)
(0 -0 -1.76491e-05)
(0 -0 -3.64864e-05)
(0 -0 -4.71576e-05)
(0 -0 -4.89266e-05)
(0 -0 -4.40475e-05)
(0 -0 -3.57721e-05)
(0 -0 -2.68745e-05)
(0 -0 -1.9058e-05)
(0 -0 -1.30126e-05)
(0 -0 -8.75252e-06)
(0 -0 -5.96408e-06)
(0 -0 -4.24879e-06)
(0 -0 -3.25064e-06)
(0 -0 -2.70035e-06)
(0 -0 -2.41465e-06)
(0 -0 -2.27799e-06)
(0 -0 -2.22167e-06)
(0 -0 -2.20677e-06)
(0 -0 -2.21213e-06)
(0 -0 -2.22665e-06)
(0 -0 -2.24467e-06)
(0 -0 -2.26335e-06)
(0 -0 -2.28128e-06)
(0 -0 -2.29772e-06)
(0 -0 -2.31225e-06)
(0 -0 -2.32464e-06)
(0 -0 -2.33471e-06)
(0 -0 -2.34231e-06)
(0 -0 -2.34731e-06)
(0 -0 -2.34961e-06)
(0 -0 -2.34911e-06)
(0 -0 -2.34568e-06)
(0 -0 -2.33917e-06)
(0 -0 -2.32939e-06)
(0 -0 -2.31611e-06)
(0 -0 -2.2991e-06)
(0 -0 -2.2781e-06)
(0 -0 -2.25283e-06)
(0 -0 -2.22292e-06)
(0 -0 -2.18796e-06)
(0 -0 -2.14733e-06)
(0 -0 -2.0997e-06)
(0 -0 -2.04091e-06)
(0 -0 -1.95663e-06)
(0 -0 -1.79725e-06)
(0 -0 -1.39766e-06)
(0 -0 -2.29738e-07)
(0 4.6535e-23 3.33012e-06)
(0 -0 1.62791e-05)
(0 -0 1.95674e-05)
(0 -0 3.865e-05)
(0 -0 6.77573e-05)
(0 -0 8.3439e-05)
(0 -0 6.54126e-05)
(0 -0 1.40621e-05)
(0 -0 -5.13768e-05)
(0 -0 -0.000107424)
(0 -0 -0.0001393)
(0 -0 -0.000144759)
(0 -0 -0.000130453)
(0 -0 -0.000106021)
(0 -0 -7.96987e-05)
(0 -0 -5.65505e-05)
(0 -0 -3.86354e-05)
(0 -0 -2.60044e-05)
(0 -0 -1.77326e-05)
(0 -0 -1.26415e-05)
(0 -0 -9.67708e-06)
(0 -0 -8.04166e-06)
(0 -0 -7.19207e-06)
(0 -0 -6.78566e-06)
(0 -0 -6.61867e-06)
(0 -0 -6.57559e-06)
(0 -0 -6.59346e-06)
(0 -0 -6.63905e-06)
(0 -0 -6.69533e-06)
(0 -0 -6.75374e-06)
(0 -0 -6.81004e-06)
(0 -0 -6.86206e-06)
(0 -0 -6.90861e-06)
(0 -0 -6.94891e-06)
(0 -0 -6.98241e-06)
(0 -0 -7.00871e-06)
(0 -0 -7.02749e-06)
(0 -0 -7.03839e-06)
(0 -0 -7.04101e-06)
(0 -0 -7.03491e-06)
(0 -0 -7.0196e-06)
(0 -0 -6.9946e-06)
(0 -0 -6.95931e-06)
(0 -0 -6.91302e-06)
(0 -0 -6.85492e-06)
(0 -0 -6.78407e-06)
(0 -0 -6.69946e-06)
(0 -0 -6.59982e-06)
(0 -0 -6.48329e-06)
(0 -0 -6.34582e-06)
(0 -0 -6.17531e-06)
(0 -0 -5.93014e-06)
(0 -0 -5.46661e-06)
(0 -0 -4.30549e-06)
(0 -0 -9.1072e-07)
(0 4.70021e-23 9.44836e-06)
(0 -0 2.71589e-05)
(0 -0 3.25147e-05)
(0 -0 6.3878e-05)
(0 -0 0.00011203)
(0 -0 0.000138565)
(0 -0 0.000109966)
(0 -0 2.64913e-05)
(0 -0 -8.05609e-05)
(0 -0 -0.000172697)
(0 -0 -0.000225523)
(0 -0 -0.000235149)
(0 -0 -0.000212324)
(0 -0 -0.000172766)
(0 -0 -0.000129963)
(0 -0 -9.224e-05)
(0 -0 -6.30042e-05)
(0 -0 -4.23711e-05)
(0 -0 -2.88483e-05)
(0 -0 -2.05199e-05)
(0 -0 -1.56674e-05)
(0 -0 -1.29886e-05)
(0 -0 -1.15959e-05)
(0 -0 -1.09291e-05)
(0 -0 -1.06548e-05)
(0 -0 -1.05838e-05)
(0 -0 -1.0613e-05)
(0 -0 -1.06879e-05)
(0 -0 -1.07805e-05)
(0 -0 -1.08768e-05)
(0 -0 -1.09698e-05)
(0 -0 -1.10559e-05)
(0 -0 -1.11332e-05)
(0 -0 -1.12004e-05)
(0 -0 -1.12567e-05)
(0 -0 -1.13014e-05)
(0 -0 -1.13339e-05)
(0 -0 -1.13537e-05)
(0 -0 -1.13601e-05)
(0 -0 -1.13524e-05)
(0 -0 -1.13297e-05)
(0 -0 -1.12914e-05)
(0 -0 -1.12364e-05)
(0 -0 -1.11635e-05)
(0 -0 -1.10715e-05)
(0 -0 -1.09589e-05)
(0 -0 -1.0824e-05)
(0 -0 -1.06647e-05)
(0 -0 -1.04779e-05)
(0 -0 -1.02575e-05)
(0 -0 -9.98459e-06)
(0 -0 -9.59501e-06)
(0 -0 -8.86612e-06)
(0 -0 -7.05233e-06)
(0 -0 -1.75293e-06)
(0 2.77456e-22 1.4457e-05)
(0 -0 3.80728e-05)
(0 -0 4.5319e-05)
(0 -0 8.83419e-05)
(0 -0 0.000155043)
(0 -0 0.000193019)
(0 -0 0.000155923)
(0 -0 4.33294e-05)
(0 -0 -0.00010248)
(0 -0 -0.000228906)
(0 -0 -0.000302269)
(0 -0 -0.000316823)
(0 -0 -0.000286928)
(0 -0 -0.000233896)
(0 -0 -0.000176127)
(0 -0 -0.000125041)
(0 -0 -8.53641e-05)
(0 -0 -5.73202e-05)
(0 -0 -3.89192e-05)
(0 -0 -2.75753e-05)
(0 -0 -2.096e-05)
(0 -0 -1.73047e-05)
(0 -0 -1.54025e-05)
(0 -0 -1.44903e-05)
(0 -0 -1.4114e-05)
(0 -0 -1.40155e-05)
(0 -0 -1.40541e-05)
(0 -0 -1.41555e-05)
(0 -0 -1.42814e-05)
(0 -0 -1.44127e-05)
(0 -0 -1.45398e-05)
(0 -0 -1.46577e-05)
(0 -0 -1.47639e-05)
(0 -0 -1.48566e-05)
(0 -0 -1.49347e-05)
(0 -0 -1.49975e-05)
(0 -0 -1.50439e-05)
(0 -0 -1.50734e-05)
(0 -0 -1.50848e-05)
(0 -0 -1.50774e-05)
(0 -0 -1.505e-05)
(0 -0 -1.50016e-05)
(0 -0 -1.49308e-05)
(0 -0 -1.4836e-05)
(0 -0 -1.47157e-05)
(0 -0 -1.45677e-05)
(0 -0 -1.43898e-05)
(0 -0 -1.41791e-05)
(0 -0 -1.39317e-05)
(0 -0 -1.36397e-05)
(0 -0 -1.32799e-05)
(0 -0 -1.27725e-05)
(0 -0 -1.18408e-05)
(0 -0 -9.55095e-06)
(0 -0 -2.8724e-06)
(0 -1.8219e-22 1.76429e-05)
(0 -0 4.90301e-05)
(0 -0 5.79332e-05)
(0 -0 0.000111795)
(0 -0 0.000196382)
(0 -0 0.00024656)
(0 -0 0.000203689)
(0 -0 6.59323e-05)
(0 -0 -0.000114868)
(0 -0 -0.000273204)
(0 -0 -0.00036655)
(0 -0 -0.000387027)
(0 -0 -0.000351966)
(0 -0 -0.000287632)
(0 -0 -0.00021689)
(0 -0 -0.000154037)
(0 -0 -0.00010508)
(0 -0 -7.04043e-05)
(0 -0 -4.7616e-05)
(0 -0 -3.35489e-05)
(0 -0 -2.53358e-05)
(0 -0 -2.07922e-05)
(0 -0 -1.8424e-05)
(0 -0 -1.7286e-05)
(0 -0 -1.68141e-05)
(0 -0 -1.66883e-05)
(0 -0 -1.67333e-05)
(0 -0 -1.6857e-05)
(0 -0 -1.70118e-05)
(0 -0 -1.71737e-05)
(0 -0 -1.73309e-05)
(0 -0 -1.74771e-05)
(0 -0 -1.76091e-05)
(0 -0 -1.77249e-05)
(0 -0 -1.78231e-05)
(0 -0 -1.79027e-05)
(0 -0 -1.79627e-05)
(0 -0 -1.80019e-05)
(0 -0 -1.80194e-05)
(0 -0 -1.8014e-05)
(0 -0 -1.79844e-05)
(0 -0 -1.79292e-05)
(0 -0 -1.78469e-05)
(0 -0 -1.77356e-05)
(0 -0 -1.7593e-05)
(0 -0 -1.74169e-05)
(0 -0 -1.72044e-05)
(0 -0 -1.6952e-05)
(0 -0 -1.66552e-05)
(0 -0 -1.63052e-05)
(0 -0 -1.58768e-05)
(0 -0 -1.52843e-05)
(0 -0 -1.42293e-05)
(0 -0 -1.1697e-05)
(0 -0 -4.35023e-06)
(0 8.99437e-23 1.83808e-05)
(0 -0 6.00372e-05)
(0 -0 7.03205e-05)
(0 -0 0.000134044)
(0 -0 0.000235716)
(0 -0 0.00029897)
(0 -0 0.000253517)
(0 -0 9.5266e-05)
(0 -0 -0.000116065)
(0 -0 -0.000303481)
(0 -0 -0.000416136)
(0 -0 -0.000443695)
(0 -0 -0.000405707)
(0 -0 -0.000332634)
(0 -0 -0.000251273)
(0 -0 -0.000178541)
(0 -0 -0.000121674)
(0 -0 -8.12898e-05)
(0 -0 -5.46953e-05)
(0 -0 -3.8251e-05)
(0 -0 -2.86351e-05)
(0 -0 -2.33068e-05)
(0 -0 -2.05241e-05)
(0 -0 -1.91824e-05)
(0 -0 -1.86222e-05)
(0 -0 -1.84684e-05)
(0 -0 -1.85159e-05)
(0 -0 -1.86563e-05)
(0 -0 -1.88339e-05)
(0 -0 -1.90205e-05)
(0 -0 -1.92022e-05)
(0 -0 -1.93717e-05)
(0 -0 -1.95251e-05)
(0 -0 -1.96603e-05)
(0 -0 -1.97756e-05)
(0 -0 -1.98697e-05)
(0 -0 -1.99415e-05)
(0 -0 -1.99898e-05)
(0 -0 -2.00133e-05)
(0 -0 -2.00108e-05)
(0 -0 -1.99808e-05)
(0 -0 -1.99217e-05)
(0 -0 -1.98315e-05)
(0 -0 -1.97083e-05)
(0 -0 -1.95494e-05)
(0 -0 -1.93521e-05)
(0 -0 -1.91131e-05)
(0 -0 -1.88287e-05)
(0 -0 -1.84938e-05)
(0 -0 -1.80995e-05)
(0 -0 -1.76215e-05)
(0 -0 -1.69784e-05)
(0 -0 -1.58884e-05)
(0 -0 -1.33886e-05)
(0 -0 -6.25631e-06)
(0 4.43792e-22 1.60654e-05)
(0 -0 7.10941e-05)
(0 -0 8.24549e-05)
(0 -0 0.000154961)
(0 -0 0.000272807)
(0 -0 0.00035005)
(0 -0 0.000305478)
(0 -0 0.000131834)
(0 -0 -0.000105129)
(0 -0 -0.000318493)
(0 -0 -0.000449685)
(0 -0 -0.000485568)
(0 -0 -0.000447092)
(0 -0 -0.000368078)
(0 -0 -0.000278675)
(0 -0 -0.000198134)
(0 -0 -0.000134862)
(0 -0 -8.97808e-05)
(0 -0 -6.00184e-05)
(0 -0 -4.15765e-05)
(0 -0 -3.07718e-05)
(0 -0 -2.47726e-05)
(0 -0 -2.16312e-05)
(0 -0 -2.011e-05)
(0 -0 -1.94687e-05)
(0 -0 -1.92858e-05)
(0 -0 -1.93305e-05)
(0 -0 -1.94808e-05)
(0 -0 -1.9674e-05)
(0 -0 -1.98781e-05)
(0 -0 -2.00775e-05)
(0 -0 -2.02641e-05)
(0 -0 -2.04335e-05)
(0 -0 -2.05831e-05)
(0 -0 -2.07113e-05)
(0 -0 -2.08165e-05)
(0 -0 -2.08976e-05)
(0 -0 -2.09531e-05)
(0 -0 -2.09818e-05)
(0 -0 -2.09822e-05)
(0 -0 -2.09527e-05)
(0 -0 -2.08914e-05)
(0 -0 -2.07964e-05)
(0 -0 -2.06652e-05)
(0 -0 -2.0495e-05)
(0 -0 -2.02829e-05)
(0 -0 -2.00252e-05)
(0 -0 -1.97179e-05)
(0 -0 -1.93558e-05)
(0 -0 -1.89305e-05)
(0 -0 -1.84208e-05)
(0 -0 -1.77592e-05)
(0 -0 -1.6718e-05)
(0 -0 -1.45359e-05)
(0 -0 -8.67153e-06)
(0 -8.684e-23 9.9456e-06)
(-1.56064e-23 7.99835e-21 1.57271e-06)
(-1.50787e-22 7.86346e-21 9.38752e-07)
(3.50972e-23 -2.02158e-22 -7.43785e-09)
(3.46987e-23 -2.34883e-20 -1.36711e-06)
(-9.51028e-23 8.03045e-21 -3.25104e-06)
(3.75537e-22 7.88789e-21 -5.77922e-06)
(-8.14076e-22 2.29897e-20 -9.07374e-06)
(3.17854e-22 -2.33705e-20 -1.32441e-05)
(6.41801e-22 -7.51626e-21 -1.83721e-05)
(-9.20687e-22 -3.78018e-24 -2.44921e-05)
(-9.22147e-22 -7.53769e-21 -3.1568e-05)
(8.08174e-22 7.1536e-21 -3.94755e-05)
(5.68317e-22 -5.90168e-20 -4.7991e-05)
(-1.04309e-21 1.26765e-19 -5.67954e-05)
(3.52235e-22 -6.82409e-20 -6.54965e-05)
(-1.27059e-21 -5.14623e-20 -7.36703e-05)
(-2.62596e-22 8.01292e-21 4.49891e-06)
(-1.01404e-22 1.57609e-20 2.55299e-06)
(3.18378e-22 7.66636e-21 -3.6977e-07)
(-8.98079e-22 -7.87748e-21 -4.57021e-06)
(1.66611e-21 7.50965e-21 -1.0376e-05)
(-5.33427e-22 -5.38442e-20 -1.8138e-05)
(-1.88082e-22 8.55318e-20 -2.8211e-05)
(-6.06629e-23 -8.94199e-21 -4.09207e-05)
(2.18589e-21 -9.85221e-20 -5.65144e-05)
(-2.25338e-21 1.39179e-19 -7.50997e-05)
(-7.84847e-22 1.27147e-19 -9.658e-05)
(5.72282e-22 -1.1445e-19 -0.000120599)
(-4.01955e-22 7.54296e-22 -0.000146508)
(2.86371e-21 -7.28824e-21 -0.000173378)
(-2.21651e-21 2.43001e-20 -0.000200062)
(-5.91961e-21 2.41017e-19 -0.00022533)
(-1.26396e-23 4.74528e-20 7.23544e-06)
(-8.01207e-23 1.49924e-20 3.79972e-06)
(3.53352e-22 -6.21476e-20 -1.41071e-06)
(-7.39407e-22 1.23684e-19 -8.87886e-06)
(1.64235e-21 -2.64881e-19 -1.91214e-05)
(4.88135e-22 1.26015e-19 -3.26923e-05)
(-2.5152e-21 -8.95338e-22 -5.01601e-05)
(1.59535e-21 -1.71739e-20 -7.20575e-05)
(1.31608e-21 -2.58674e-19 -9.8801e-05)
(9.65157e-22 2.46578e-19 -0.00013059)
(-8.8211e-22 -1.67349e-21 -0.000167298)
(-4.32469e-21 -1.5928e-23 -0.000208388)
(6.86685e-21 -1.9008e-21 -0.000252854)
(-4.34381e-21 -2.52651e-19 -0.000299238)
(5.55229e-21 2.29776e-19 -0.000345737)
(-1.11553e-20 4.56584e-19 -0.000390406)
(3.93719e-22 -3.12879e-20 9.53173e-06)
(-3.67094e-22 1.58311e-20 4.17122e-06)
(7.16729e-22 -1.77402e-22 -4.01544e-06)
(-6.49165e-22 -1.55761e-20 -1.5625e-05)
(-9.98986e-22 -1.49303e-21 -3.12981e-05)
(3.21995e-21 -2.44513e-19 -5.1746e-05)
(-4.41778e-21 4.63232e-19 -7.77269e-05)
(2.12978e-21 -2.49524e-19 -0.000109974)
(-1.86671e-21 1.50476e-20 -0.000149086)
(4.71155e-21 -2.73285e-19 -0.000195386)
(-5.76888e-21 2.49541e-19 -0.000248779)
(-3.65249e-21 4.76176e-19 -0.000308627)
(9.91569e-21 -9.63874e-19 -0.000373679)
(-1.20936e-20 9.63191e-19 -0.000442085)
(1.63573e-20 -9.58995e-19 -0.000511539)
(-1.01685e-20 9.50997e-19 -0.000579555)
(-7.48019e-22 1.59152e-20 1.10155e-05)
(-2.29362e-22 6.08875e-20 2.74669e-06)
(1.87402e-21 -1.84973e-19 -9.77947e-06)
(-1.1271e-21 2.4832e-19 -2.70836e-05)
(-3.80427e-22 -1.10011e-19 -4.98272e-05)
(1.02163e-22 -1.46823e-20 -7.88371e-05)
(-4.74722e-22 1.55057e-20 -0.000115051)
(3.12856e-21 -1.93068e-22 -0.000159416)
(-2.99569e-21 -1.51556e-20 -0.000212743)
(-5.38105e-21 3.4095e-20 -0.000275537)
(-6.52039e-21 4.8433e-19 -0.000347816)
(1.83288e-20 -5.03488e-19 -0.000428961)
(-2.27322e-20 4.69938e-19 -0.000517629)
(1.87757e-20 -4.88923e-19 -0.000611767)
(-3.103e-21 3.50817e-21 -0.000708779)
(1.13292e-20 4.89316e-23 -0.000805862)
(-6.43917e-22 7.66591e-20 1.1074e-05)
(1.65444e-21 -4.67642e-20 -2.33948e-06)
(-1.74564e-21 -1.65198e-20 -2.16978e-05)
(4.54786e-21 -2.29138e-19 -4.71674e-05)
(-2.08222e-21 2.31063e-19 -7.93947e-05)
(1.80037e-21 -2.28671e-19 -0.00011935)
(-1.06685e-20 5.04329e-19 -0.000168193)
(1.09877e-20 -7.06574e-19 -0.00022713)
(-7.03434e-21 4.99883e-19 -0.000297245)
(-5.363e-21 4.87222e-19 -0.000379303)
(-2.20267e-21 3.83929e-21 -0.000473548)
(2.35887e-20 -9.57413e-19 -0.000579532)
(-2.02352e-20 9.96865e-19 -0.000696014)
(4.421e-21 -4.69262e-19 -0.000820973)
(1.14406e-20 -4.71563e-19 -0.000951793)
(2.18768e-20 -4.64193e-19 -0.00108563)
(6.08852e-22 -1.599e-20 8.83959e-06)
(1.53997e-21 -1.362e-19 -1.50973e-05)
(-1.68715e-21 1.22877e-19 -4.50823e-05)
(-1.33944e-21 -1.73607e-20 -8.17221e-05)
(5.15261e-21 -2.27759e-19 -0.000125985)
(-4.72559e-21 2.34418e-19 -0.000179121)
(-5.20575e-21 4.73424e-19 -0.000242566)
(-5.27498e-21 -1.95531e-20 -0.000317807)
(2.32437e-21 -4.57961e-21 -0.000406211)
(1.40056e-20 -5.05014e-19 -0.000508822)
(-1.11987e-20 4.72736e-19 -0.000626147)
(1.6215e-20 -1.00043e-18 -0.000757978)
(-3.13343e-21 5.00309e-19 -0.000903276)
(-3.80491e-21 -1.89103e-20 -0.00106019)
(-5.06399e-21 -2.26952e-20 -0.00122622)
(2.65465e-20 -9.82822e-19 -0.00139862)
(-8.68616e-23 -0 8.71926e-06)
(-8.01207e-22 -0 2.6888e-05)
(7.15707e-22 -0 4.54987e-05)
(-9.19794e-23 -0 6.39231e-05)
(-1.41562e-21 -0 8.14437e-05)
(1.4203e-21 -0 9.72302e-05)
(3.04591e-21 -0 0.00011039)
(-4.67088e-23 -0 0.000120083)
(5.56948e-23 -0 0.000125688)
(-3.39792e-21 -0 0.00012701)
(3.32251e-21 -0 0.000124505)
(-7.06129e-21 -0 0.000119488)
(3.52399e-21 -0 0.00011426)
(-1.14048e-22 -0 0.000112129)
(-1.16878e-22 -0 0.00011727)
(-7.74152e-21 -0 0.000134392)
(0 -0 -1.5298e-06)
(0 -0 8.19468e-06)
(0 -0 1.91312e-05)
(0 -0 3.02335e-05)
(0 -0 4.05223e-05)
(0 -0 4.89691e-05)
(0 -0 5.45208e-05)
(0 -0 5.61899e-05)
(0 -0 5.32078e-05)
(0 -0 4.52283e-05)
(0 -0 3.25517e-05)
(0 -0 1.6328e-05)
(0 -0 -1.3072e-06)
(0 -0 -1.72075e-05)
(0 -0 -2.73423e-05)
(0 -0 -2.71045e-05)
(0 -0 -5.32713e-06)
(0 -0 -2.66678e-07)
(0 -0 5.56045e-06)
(0 -0 1.1368e-05)
(0 -0 1.623e-05)
(0 -0 1.91051e-05)
(0 -0 1.88925e-05)
(0 -0 1.45328e-05)
(0 -0 5.16083e-06)
(0 -0 -9.69581e-06)
(0 -0 -2.98977e-05)
(0 -0 -5.44935e-05)
(0 -0 -8.15837e-05)
(0 -0 -0.000108289)
(0 -0 -0.000130861)
(0 -0 -0.000144959)
(0 -0 -5.73158e-06)
(0 -0 -3.16826e-06)
(0 -0 -3.92093e-07)
(0 -0 2.01469e-06)
(0 -0 3.25997e-06)
(0 -0 2.38213e-06)
(0 -0 -1.68018e-06)
(0 -0 -9.98214e-06)
(0 -0 -2.34226e-05)
(0 -0 -4.25526e-05)
(0 -0 -6.7366e-05)
(0 -0 -9.71065e-05)
(0 -0 -0.000130132)
(0 -0 -0.000163879)
(0 -0 -0.00019495)
(0 -0 -0.000219366)
(0 -0 -4.30654e-06)
(0 -0 -3.05164e-06)
(0 -0 -1.98159e-06)
(0 -0 -1.57194e-06)
(0 -0 -2.50353e-06)
(0 -0 -5.63914e-06)
(0 -0 -1.19612e-05)
(0 -0 -2.24731e-05)
(0 -0 -3.80599e-05)
(0 -0 -5.931e-05)
(0 -0 -8.63205e-05)
(0 -0 -0.000118516)
(0 -0 -0.000154516)
(0 -0 -0.000192096)
(0 -0 -0.000228254)
(0 -0 -0.000259433)
(0 -0 -1.97195e-06)
(0 -0 -1.37678e-06)
(0 -0 -1.19055e-06)
(0 -0 -1.83354e-06)
(0 -0 -3.90455e-06)
(0 -0 -8.17303e-06)
(0 -0 -1.55296e-05)
(0 -0 -2.6901e-05)
(0 -0 -4.31273e-05)
(0 -0 -6.48022e-05)
(0 -0 -9.20973e-05)
(0 -0 -0.000124596)
(0 -0 -0.000161171)
(0 -0 -0.000199937)
(0 -0 -0.000238306)
(0 -0 -0.000273173)
(0 -0 6.81381e-07)
(0 -0 9.72494e-07)
(0 -0 7.58825e-07)
(0 -0 -3.40931e-07)
(0 -0 -2.85891e-06)
(0 -0 -7.4786e-06)
(0 -0 -1.49961e-05)
(0 -0 -2.62495e-05)
(0 -0 -4.20146e-05)
(0 -0 -6.28663e-05)
(0 -0 -8.90243e-05)
(0 -0 -0.000120206)
(0 -0 -0.000155514)
(0 -0 -0.000193389)
(0 -0 -0.000231648)
(0 -0 -0.000267642)
(0 -0 3.26652e-06)
(0 -0 3.44686e-06)
(0 -0 3.10791e-06)
(0 -0 1.90594e-06)
(0 -0 -6.29782e-07)
(0 -0 -5.10123e-06)
(0 -0 -1.22104e-05)
(0 -0 -2.27016e-05)
(0 -0 -3.72746e-05)
(0 -0 -5.64677e-05)
(0 -0 -8.05256e-05)
(0 -0 -0.000109272)
(0 -0 -0.00014201)
(0 -0 -0.000177478)
(0 -0 -0.000213869)
(0 -0 -0.000248974)
(0 -0 5.54245e-06)
(0 -0 5.71336e-06)
(0 -0 5.39648e-06)
(0 -0 4.28769e-06)
(0 -0 1.976e-06)
(0 -0 -2.06211e-06)
(0 -0 -8.43661e-06)
(0 -0 -1.77969e-05)
(0 -0 -3.07608e-05)
(0 -0 -4.78172e-05)
(0 -0 -6.92157e-05)
(0 -0 -9.48591e-05)
(0 -0 -0.000124218)
(0 -0 -0.000156287)
(0 -0 -0.000189602)
(0 -0 -0.000222349)
(0 -0 7.38115e-06)
(0 -0 7.59122e-06)
(0 -0 7.36712e-06)
(0 -0 6.44527e-06)
(0 -0 4.47247e-06)
(0 -0 9.99842e-07)
(0 -0 -4.49465e-06)
(0 -0 -1.25678e-05)
(0 -0 -2.37536e-05)
(0 -0 -3.84838e-05)
(0 -0 -5.69969e-05)
(0 -0 -7.92494e-05)
(0 -0 -0.000104844)
(0 -0 -0.000132991)
(0 -0 -0.000162518)
(0 -0 -0.000191963)
(0 -0 8.74239e-06)
(0 -0 9.00992e-06)
(0 -0 8.90398e-06)
(0 -0 8.20011e-06)
(0 -0 6.59927e-06)
(0 -0 3.72173e-06)
(0 -0 -8.72966e-07)
(0 -0 -7.65435e-06)
(0 -0 -1.70749e-05)
(0 -0 -2.95055e-05)
(0 -0 -4.5162e-05)
(0 -0 -6.40325e-05)
(0 -0 -8.58194e-05)
(0 -0 -0.000109906)
(0 -0 -0.000135361)
(0 -0 -0.000161022)
(0 -0 9.65e-06)
(0 -0 9.97631e-06)
(0 -0 9.98806e-06)
(0 -0 9.49652e-06)
(0 -0 8.25147e-06)
(0 -0 5.93507e-06)
(0 -0 2.18013e-06)
(0 -0 -3.40356e-06)
(0 -0 -1.11924e-05)
(0 -0 -2.14969e-05)
(0 -0 -3.45024e-05)
(0 -0 -5.02119e-05)
(0 -0 -6.83986e-05)
(0 -0 -8.85791e-05)
(0 -0 -0.000110016)
(0 -0 -0.00013179)
(0 -0 1.01688e-05)
(0 -0 1.05465e-05)
(0 -0 1.06619e-05)
(0 -0 1.03576e-05)
(0 -0 9.42561e-06)
(0 -0 7.60172e-06)
(0 -0 4.58232e-06)
(0 -0 4.67917e-08)
(0 -0 -6.31298e-06)
(0 -0 -1.47506e-05)
(0 -0 -2.5418e-05)
(0 -0 -3.83198e-05)
(0 -0 -5.32771e-05)
(0 -0 -6.99054e-05)
(0 -0 -8.76169e-05)
(0 -0 -0.000105685)
(0 -0 1.03842e-05)
(0 -0 1.08017e-05)
(0 -0 1.10009e-05)
(0 -0 1.08505e-05)
(0 -0 1.01779e-05)
(0 -0 8.76348e-06)
(0 -0 6.3573e-06)
(0 -0 2.69776e-06)
(0 -0 -2.46424e-06)
(0 -0 -9.33122e-06)
(0 -0 -1.80216e-05)
(0 -0 -2.85338e-05)
(0 -0 -4.07187e-05)
(0 -0 -5.42625e-05)
(0 -0 -6.86892e-05)
(0 -0 -8.34205e-05)
(0 -0 1.03847e-05)
(0 -0 1.083e-05)
(0 -0 1.10921e-05)
(0 -0 1.10608e-05)
(0 -0 1.05924e-05)
(0 -0 9.50365e-06)
(0 -0 7.58804e-06)
(0 -0 4.63262e-06)
(0 -0 4.37591e-07)
(0 -0 -5.15565e-06)
(0 -0 -1.22344e-05)
(0 -0 -2.07866e-05)
(0 -0 -3.068e-05)
(0 -0 -4.16498e-05)
(0 -0 -5.3301e-05)
(0 -0 -6.51663e-05)
(0 -0 1.02506e-05)
(0 -0 1.07124e-05)
(0 -0 1.10179e-05)
(0 -0 1.10739e-05)
(0 -0 1.07592e-05)
(0 -0 9.91931e-06)
(0 -0 8.38223e-06)
(0 -0 5.97388e-06)
(0 -0 2.53434e-06)
(0 -0 -2.05868e-06)
(0 -0 -7.86525e-06)
(0 -0 -1.48614e-05)
(0 -0 -2.29233e-05)
(0 -0 -3.18187e-05)
(0 -0 -4.12104e-05)
(0 -0 -5.07114e-05)
(0 -0 1.00468e-05)
(0 -0 1.05154e-05)
(0 -0 1.08479e-05)
(0 -0 1.09639e-05)
(0 -0 1.07598e-05)
(0 -0 1.01032e-05)
(0 -0 8.84892e-06)
(0 -0 6.85305e-06)
(0 -0 3.98699e-06)
(0 -0 1.57513e-07)
(0 -0 -4.6729e-06)
(0 -0 -1.04686e-05)
(0 -0 -1.71094e-05)
(0 -0 -2.43842e-05)
(0 -0 -3.19956e-05)
(0 -0 -3.96143e-05)
(0 -0 9.8201e-06)
(0 -0 1.02879e-05)
(0 -0 1.06341e-05)
(0 -0 1.07882e-05)
(0 -0 1.066e-05)
(0 -0 1.01338e-05)
(0 -0 9.08454e-06)
(0 -0 7.39155e-06)
(0 -0 4.95012e-06)
(0 -0 1.68951e-06)
(0 -0 -2.40985e-06)
(0 -0 -7.30226e-06)
(0 -0 -1.28682e-05)
(0 -0 -1.89107e-05)
(0 -0 -2.51595e-05)
(0 -0 -3.13256e-05)
(0 -0 9.60007e-06)
(0 -0 1.00612e-05)
(0 -0 1.04111e-05)
(0 -0 1.05866e-05)
(0 -0 1.05075e-05)
(0 -0 1.00706e-05)
(0 -0 9.1662e-06)
(0 -0 7.69065e-06)
(0 -0 5.55727e-06)
(0 -0 2.71228e-06)
(0 -0 -8.50192e-07)
(0 -0 -5.07641e-06)
(0 -0 -9.84669e-06)
(0 -0 -1.49732e-05)
(0 -0 -2.02043e-05)
(0 -0 -2.52794e-05)
(0 -0 9.40121e-06)
(0 -0 9.85152e-06)
(0 -0 1.01977e-05)
(0 -0 1.03822e-05)
(0 -0 1.03325e-05)
(0 -0 9.95452e-06)
(0 -0 9.14991e-06)
(0 -0 7.82774e-06)
(0 -0 5.91462e-06)
(0 -0 3.36923e-06)
(0 -0 1.95757e-07)
(0 -0 -3.54614e-06)
(0 -0 -7.73652e-06)
(0 -0 -1.21938e-05)
(0 -0 -1.66798e-05)
(0 -0 -2.09532e-05)
(0 -0 9.22609e-06)
(0 -0 9.66254e-06)
(0 -0 9.99971e-06)
(0 -0 1.01845e-05)
(0 -0 1.015e-05)
(0 -0 9.80919e-06)
(0 -0 9.07192e-06)
(0 -0 7.85677e-06)
(0 -0 6.10005e-06)
(0 -0 3.76943e-06)
(0 -0 8.7623e-07)
(0 -0 -2.51585e-06)
(0 -0 -6.28697e-06)
(0 -0 -1.02605e-05)
(0 -0 -1.42077e-05)
(0 -0 -1.79014e-05)
(0 -0 9.0681e-06)
(0 -0 9.48849e-06)
(0 -0 9.81301e-06)
(0 -0 9.99199e-06)
(0 -0 9.96286e-06)
(0 -0 9.64392e-06)
(0 -0 8.95132e-06)
(0 -0 7.81065e-06)
(0 -0 6.16529e-06)
(0 -0 3.98935e-06)
(0 -0 1.29906e-06)
(0 -0 -1.83939e-06)
(0 -0 -5.30684e-06)
(0 -0 -8.93088e-06)
(0 -0 -1.24902e-05)
(0 -0 -1.57681e-05)
(0 -0 8.91371e-06)
(0 -0 9.31626e-06)
(0 -0 9.62543e-06)
(0 -0 9.7943e-06)
(0 -0 9.76381e-06)
(0 -0 9.45638e-06)
(0 -0 8.79298e-06)
(0 -0 7.7045e-06)
(0 -0 6.13959e-06)
(0 -0 4.07699e-06)
(0 -0 1.53618e-06)
(0 -0 -1.41539e-06)
(0 -0 -4.65984e-06)
(0 -0 -8.02866e-06)
(0 -0 -1.13066e-05)
(0 -0 -1.42853e-05)
(0 -0 8.74451e-06)
(0 -0 9.12753e-06)
(0 -0 9.41922e-06)
(0 -0 9.57489e-06)
(0 -0 9.53839e-06)
(0 -0 9.23542e-06)
(0 -0 8.59077e-06)
(0 -0 7.53951e-06)
(0 -0 6.03429e-06)
(0 -0 4.0572e-06)
(0 -0 1.62982e-06)
(0 -0 -1.18007e-06)
(0 -0 -4.25631e-06)
(0 -0 -7.43413e-06)
(0 -0 -1.05038e-05)
(0 -0 -1.32633e-05)
(0 -0 8.54031e-06)
(0 -0 8.90207e-06)
(0 -0 9.17441e-06)
(0 -0 9.31457e-06)
(0 -0 9.26878e-06)
(0 -0 8.96543e-06)
(0 -0 8.33246e-06)
(0 -0 7.30836e-06)
(0 -0 5.84895e-06)
(0 -0 3.9388e-06)
(0 -0 1.60084e-06)
(0 -0 -1.09739e-06)
(0 -0 -4.04179e-06)
(0 -0 -7.07149e-06)
(0 -0 -9.98176e-06)
(0 -0 -1.25756e-05)
(0 -0 8.28755e-06)
(0 -0 8.62632e-06)
(0 -0 8.87784e-06)
(0 -0 9.00091e-06)
(0 -0 8.94354e-06)
(0 -0 8.63643e-06)
(0 -0 8.01025e-06)
(0 -0 7.00638e-06)
(0 -0 5.58333e-06)
(0 -0 3.72771e-06)
(0 -0 1.46332e-06)
(0 -0 -1.14297e-06)
(0 -0 -3.97953e-06)
(0 -0 -6.88964e-06)
(0 -0 -9.67302e-06)
(0 -0 -1.21364e-05)
(0 -0 8.00289e-06)
(0 -0 8.31798e-06)
(0 -0 8.54839e-06)
(0 -0 8.65403e-06)
(0 -0 8.58396e-06)
(0 -0 8.2709e-06)
(0 -0 7.64813e-06)
(0 -0 6.65976e-06)
(0 -0 5.26683e-06)
(0 -0 3.45765e-06)
(0 -0 1.25651e-06)
(0 -0 -1.27079e-06)
(0 -0 -4.01541e-06)
(0 -0 -6.82504e-06)
(0 -0 -9.50465e-06)
(0 -0 -1.18642e-05)
(0 -0 7.77758e-06)
(0 -0 8.07204e-06)
(0 -0 8.28311e-06)
(0 -0 8.37376e-06)
(0 -0 8.29179e-06)
(0 -0 7.97238e-06)
(0 -0 7.35172e-06)
(0 -0 6.37681e-06)
(0 -0 5.01099e-06)
(0 -0 3.24395e-06)
(0 -0 1.1002e-06)
(0 -0 -1.35566e-06)
(0 -0 -4.01799e-06)
(0 -0 -6.74037e-06)
(0 -0 -9.33724e-06)
(0 -0 -1.16226e-05)
(0 -0 7.78577e-06)
(0 -0 8.06333e-06)
(0 -0 8.26332e-06)
(0 -0 8.34403e-06)
(0 -0 8.25366e-06)
(0 -0 7.93042e-06)
(0 -0 7.31414e-06)
(0 -0 6.35454e-06)
(0 -0 5.01696e-06)
(0 -0 3.29224e-06)
(0 -0 1.20518e-06)
(0 -0 -1.18102e-06)
(0 -0 -3.76486e-06)
(0 -0 -6.40912e-06)
(0 -0 -8.94222e-06)
(0 -0 -1.11783e-05)
(0 -0 8.13493e-06)
(0 -0 8.40789e-06)
(0 -0 8.6055e-06)
(0 -0 8.68021e-06)
(0 -0 8.58827e-06)
(0 -0 8.26596e-06)
(0 -0 7.65951e-06)
(0 -0 6.7205e-06)
(0 -0 5.41596e-06)
(0 -0 3.7379e-06)
(0 -0 1.71121e-06)
(0 -0 -6.02516e-07)
(0 -0 -3.10641e-06)
(0 -0 -5.67366e-06)
(0 -0 -8.14583e-06)
(0 -0 -1.03412e-05)
(0 -0 8.24534e-05)
(0 -0 9.46066e-05)
(0 -0 0.00017495)
(0 -0 0.000308359)
(0 -0 0.000400849)
(0 -0 0.000360832)
(0 -0 0.000176857)
(0 -0 -8.10969e-05)
(0 -0 -0.000317637)
(0 -0 -0.000466927)
(0 -0 -0.000512613)
(0 -0 -0.000476208)
(0 -0 -0.00039409)
(0 -0 -0.000299207)
(0 -0 -0.000212891)
(0 -0 -0.000144682)
(0 -0 -9.58871e-05)
(0 -0 -6.35745e-05)
(0 -0 -4.35027e-05)
(0 -0 -3.17165e-05)
(0 -0 -2.51567e-05)
(0 -0 -2.17111e-05)
(0 -0 -2.00338e-05)
(0 -0 -1.93185e-05)
(0 -0 -1.9105e-05)
(0 -0 -1.91413e-05)
(0 -0 -1.9294e-05)
(0 -0 -1.94944e-05)
(0 -0 -1.97078e-05)
(0 -0 -1.99168e-05)
(0 -0 -2.01127e-05)
(0 -0 -2.02906e-05)
(0 -0 -2.0448e-05)
(0 -0 -2.05828e-05)
(0 -0 -2.06935e-05)
(0 -0 -2.07787e-05)
(0 -0 -2.0837e-05)
(0 -0 -2.0867e-05)
(0 -0 -2.0867e-05)
(0 -0 -2.08354e-05)
(0 -0 -2.07701e-05)
(0 -0 -2.06688e-05)
(0 -0 -2.0529e-05)
(0 -0 -2.03476e-05)
(0 -0 -2.01214e-05)
(0 -0 -1.98465e-05)
(0 -0 -1.95186e-05)
(0 -0 -1.91325e-05)
(0 -0 -1.86807e-05)
(0 -0 -1.81468e-05)
(0 -0 -1.74826e-05)
(0 -0 -1.65392e-05)
(0 -0 -1.48899e-05)
(0 -0 -1.15439e-05)
(0 -0 -5.79903e-06)
(0 -0 9.41084e-05)
(0 -0 0.000106752)
(0 -0 0.000193888)
(0 -0 0.000342083)
(0 -0 0.000450961)
(0 -0 0.000419191)
(0 -0 0.000230118)
(0 -0 -4.39492e-05)
(0 -0 -0.000300691)
(0 -0 -0.000467534)
(0 -0 -0.000524494)
(0 -0 -0.000492787)
(0 -0 -0.000410493)
(0 -0 -0.000312784)
(0 -0 -0.000222798)
(0 -0 -0.000151169)
(0 -0 -9.967e-05)
(0 -0 -6.54378e-05)
(0 -0 -4.41066e-05)
(0 -0 -3.15443e-05)
(0 -0 -2.45305e-05)
(0 -0 -2.08309e-05)
(0 -0 -1.90174e-05)
(0 -0 -1.8232e-05)
(0 -0 -1.79842e-05)
(0 -0 -1.8005e-05)
(0 -0 -1.81519e-05)
(0 -0 -1.83511e-05)
(0 -0 -1.85657e-05)
(0 -0 -1.87769e-05)
(0 -0 -1.89753e-05)
(0 -0 -1.9156e-05)
(0 -0 -1.9316e-05)
(0 -0 -1.94533e-05)
(0 -0 -1.95663e-05)
(0 -0 -1.96535e-05)
(0 -0 -1.97134e-05)
(0 -0 -1.97445e-05)
(0 -0 -1.97452e-05)
(0 -0 -1.97136e-05)
(0 -0 -1.96475e-05)
(0 -0 -1.95447e-05)
(0 -0 -1.94023e-05)
(0 -0 -1.92173e-05)
(0 -0 -1.89862e-05)
(0 -0 -1.87051e-05)
(0 -0 -1.83695e-05)
(0 -0 -1.79745e-05)
(0 -0 -1.75138e-05)
(0 -0 -1.69756e-05)
(0 -0 -1.633e-05)
(0 -0 -1.54922e-05)
(0 -0 -1.42448e-05)
(0 -0 -1.21421e-05)
(0 -0 -8.58872e-06)
(0 -0 0.000105786)
(0 -0 0.000118623)
(0 -0 0.00021139)
(0 -0 0.00037323)
(0 -0 0.000499083)
(0 -0 0.000478762)
(0 -0 0.000289612)
(0 -0 4.44279e-06)
(0 -0 -0.000269143)
(0 -0 -0.000452524)
(0 -0 -0.00052181)
(0 -0 -0.00049712)
(0 -0 -0.000417401)
(0 -0 -0.000319437)
(0 -0 -0.000227867)
(0 -0 -0.000154347)
(0 -0 -0.000101177)
(0 -0 -6.56793e-05)
(0 -0 -4.3479e-05)
(0 -0 -3.03608e-05)
(0 -0 -2.30097e-05)
(0 -0 -1.91133e-05)
(0 -0 -1.71877e-05)
(0 -0 -1.63388e-05)
(0 -0 -1.60546e-05)
(0 -0 -1.60537e-05)
(0 -0 -1.61865e-05)
(0 -0 -1.63759e-05)
(0 -0 -1.65829e-05)
(0 -0 -1.6788e-05)
(0 -0 -1.69812e-05)
(0 -0 -1.71574e-05)
(0 -0 -1.73134e-05)
(0 -0 -1.74471e-05)
(0 -0 -1.7557e-05)
(0 -0 -1.76414e-05)
(0 -0 -1.7699e-05)
(0 -0 -1.7728e-05)
(0 -0 -1.77268e-05)
(0 -0 -1.76935e-05)
(0 -0 -1.76258e-05)
(0 -0 -1.75213e-05)
(0 -0 -1.73773e-05)
(0 -0 -1.71904e-05)
(0 -0 -1.69573e-05)
(0 -0 -1.66738e-05)
(0 -0 -1.63357e-05)
(0 -0 -1.59382e-05)
(0 -0 -1.5476e-05)
(0 -0 -1.49414e-05)
(0 -0 -1.43178e-05)
(0 -0 -1.35629e-05)
(0 -0 -1.25756e-05)
(0 -0 -1.11618e-05)
(0 -0 -9.04442e-06)
(0 -0 0.000117466)
(0 -0 0.000130246)
(0 -0 0.000227605)
(0 -0 0.000401971)
(0 -0 0.000545101)
(0 -0 0.000538791)
(0 -0 0.000353786)
(0 -0 6.18504e-05)
(0 -0 -0.00022558)
(0 -0 -0.000424482)
(0 -0 -0.000506868)
(0 -0 -0.000491099)
(0 -0 -0.000416263)
(0 -0 -0.00032023)
(0 -0 -0.000228863)
(0 -0 -0.000154766)
(0 -0 -0.00010082)
(0 -0 -6.46234e-05)
(0 -0 -4.18935e-05)
(0 -0 -2.84113e-05)
(0 -0 -2.08251e-05)
(0 -0 -1.6782e-05)
(0 -0 -1.47655e-05)
(0 -0 -1.38592e-05)
(0 -0 -1.35369e-05)
(0 -0 -1.35087e-05)
(0 -0 -1.36204e-05)
(0 -0 -1.37925e-05)
(0 -0 -1.39844e-05)
(0 -0 -1.41759e-05)
(0 -0 -1.43569e-05)
(0 -0 -1.4522e-05)
(0 -0 -1.46678e-05)
(0 -0 -1.47925e-05)
(0 -0 -1.48941e-05)
(0 -0 -1.49713e-05)
(0 -0 -1.50225e-05)
(0 -0 -1.5046e-05)
(0 -0 -1.50401e-05)
(0 -0 -1.50028e-05)
(0 -0 -1.49319e-05)
(0 -0 -1.48248e-05)
(0 -0 -1.46788e-05)
(0 -0 -1.44907e-05)
(0 -0 -1.42568e-05)
(0 -0 -1.39733e-05)
(0 -0 -1.36357e-05)
(0 -0 -1.32397e-05)
(0 -0 -1.27808e-05)
(0 -0 -1.22542e-05)
(0 -0 -1.16522e-05)
(0 -0 -1.0958e-05)
(0 -0 -1.01338e-05)
(0 -0 -9.1129e-06)
(0 -0 -7.81747e-06)
(0 -0 0.000129123)
(0 -0 0.000141655)
(0 -0 0.000242728)
(0 -0 0.000428565)
(0 -0 0.000588953)
(0 -0 0.000598453)
(0 -0 0.000420836)
(0 -0 0.000125614)
(0 -0 -0.000173134)
(0 -0 -0.000386568)
(0 -0 -0.000482508)
(0 -0 -0.000477053)
(0 -0 -0.000408868)
(0 -0 -0.000316472)
(0 -0 -0.00022672)
(0 -0 -0.000153095)
(0 -0 -9.9089e-05)
(0 -0 -6.2652e-05)
(0 -0 -3.96679e-05)
(0 -0 -2.59783e-05)
(0 -0 -1.82407e-05)
(0 -0 -1.40922e-05)
(0 -0 -1.20027e-05)
(0 -0 -1.10444e-05)
(0 -0 -1.0683e-05)
(0 -0 -1.06234e-05)
(0 -0 -1.07087e-05)
(0 -0 -1.08573e-05)
(0 -0 -1.10281e-05)
(0 -0 -1.12003e-05)
(0 -0 -1.13635e-05)
(0 -0 -1.15121e-05)
(0 -0 -1.16429e-05)
(0 -0 -1.17537e-05)
(0 -0 -1.1843e-05)
(0 -0 -1.1909e-05)
(0 -0 -1.19502e-05)
(0 -0 -1.19651e-05)
(0 -0 -1.19517e-05)
(0 -0 -1.19082e-05)
(0 -0 -1.18321e-05)
(0 -0 -1.17211e-05)
(0 -0 -1.15723e-05)
(0 -0 -1.13825e-05)
(0 -0 -1.11481e-05)
(0 -0 -1.08653e-05)
(0 -0 -1.05298e-05)
(0 -0 -1.01374e-05)
(0 -0 -9.68444e-06)
(0 -0 -9.16784e-06)
(0 -0 -8.58542e-06)
(0 -0 -7.93472e-06)
(0 -0 -7.21156e-06)
(0 -0 -6.41405e-06)
(0 -0 -5.56751e-06)
(0 -0 0.00014073)
(0 -0 0.000152888)
(0 -0 0.000256983)
(0 -0 0.000453326)
(0 -0 0.000630643)
(0 -0 0.000656948)
(0 -0 0.000488898)
(0 -0 0.000192922)
(0 -0 -0.000115159)
(0 -0 -0.000342193)
(0 -0 -0.000451806)
(0 -0 -0.000457519)
(0 -0 -0.000397163)
(0 -0 -0.000309586)
(0 -0 -0.000222447)
(0 -0 -0.000150047)
(0 -0 -9.65036e-05)
(0 -0 -6.01622e-05)
(0 -0 -3.71276e-05)
(0 -0 -2.33474e-05)
(0 -0 -1.55215e-05)
(0 -0 -1.12994e-05)
(0 -0 -9.15113e-06)
(0 -0 -8.14556e-06)
(0 -0 -7.74487e-06)
(0 -0 -7.65156e-06)
(0 -0 -7.70678e-06)
(0 -0 -7.82812e-06)
(0 -0 -7.97372e-06)
(0 -0 -8.12257e-06)
(0 -0 -8.26402e-06)
(0 -0 -8.39248e-06)
(0 -0 -8.50471e-06)
(0 -0 -8.59852e-06)
(0 -0 -8.6722e-06)
(0 -0 -8.72417e-06)
(0 -0 -8.75286e-06)
(0 -0 -8.7566e-06)
(0 -0 -8.73358e-06)
(0 -0 -8.68177e-06)
(0 -0 -8.59895e-06)
(0 -0 -8.48258e-06)
(0 -0 -8.32984e-06)
(0 -0 -8.13757e-06)
(0 -0 -7.90227e-06)
(0 -0 -7.62012e-06)
(0 -0 -7.28707e-06)
(0 -0 -6.89917e-06)
(0 -0 -6.45308e-06)
(0 -0 -5.94696e-06)
(0 -0 -5.38164e-06)
(0 -0 -4.76224e-06)
(0 -0 -4.10142e-06)
(0 -0 -3.42902e-06)
(0 -0 -2.82018e-06)
(0 -0 0.000152261)
(0 -0 0.000163979)
(0 -0 0.000270601)
(0 -0 0.000476606)
(0 -0 0.000670252)
(0 -0 0.000713591)
(0 -0 0.000556235)
(0 -0 0.000261084)
(0 -0 -5.49118e-05)
(0 -0 -0.000294698)
(0 -0 -0.000417798)
(0 -0 -0.000435004)
(0 -0 -0.000383073)
(0 -0 -0.000300972)
(0 -0 -0.000217032)
(0 -0 -0.000146316)
(0 -0 -9.35576e-05)
(0 -0 -5.75244e-05)
(0 -0 -3.45705e-05)
(0 -0 -2.07762e-05)
(0 -0 -1.29041e-05)
(0 -0 -8.63022e-06)
(0 -0 -6.43357e-06)
(0 -0 -5.38486e-06)
(0 -0 -4.94583e-06)
(0 -0 -4.818e-06)
(0 -0 -4.84168e-06)
(0 -0 -4.93385e-06)
(0 -0 -5.05229e-06)
(0 -0 -5.17578e-06)
(0 -0 -5.29355e-06)
(0 -0 -5.39996e-06)
(0 -0 -5.49174e-06)
(0 -0 -5.5667e-06)
(0 -0 -5.62311e-06)
(0 -0 -5.65938e-06)
(0 -0 -5.67391e-06)
(0 -0 -5.66502e-06)
(0 -0 -5.6309e-06)
(0 -0 -5.56954e-06)
(0 -0 -5.4787e-06)
(0 -0 -5.35586e-06)
(0 -0 -5.19823e-06)
(0 -0 -5.00271e-06)
(0 -0 -4.76587e-06)
(0 -0 -4.484e-06)
(0 -0 -4.1532e-06)
(0 -0 -3.76972e-06)
(0 -0 -3.33057e-06)
(0 -0 -2.83452e-06)
(0 -0 -2.28389e-06)
(0 -0 -1.68731e-06)