/*--------------------------------*- C++ -*----------------------------------*\
| =========                 |                                                 |
| \\      /  F ield         | OpenFOAM: The Open Source CFD Toolbox           |
|  \\    /   O peration     | Version:  2412                                  |
|   \\  /    A nd           | Website:  www.openfoam.com                      |
|    \\/     M anipulation  |                                                 |
\*---------------------------------------------------------------------------*/
FoamFile
{
    version     2.0;
    format      ascii;
    arch        "LSB;label=32;scalar=64";
    class       volScalarField;
    location    "11";
    object      p;
}
// * * * * * * * * * * * * * * * * * * * * * * * * * * * * * * * * * * * * * //

dimensions      [0 2 -2 0 0 0 0];

internalField   nonuniform List<scalar> 
5285
(
-0.000129114
-0.000123819
-0.000118707
-0.000113776
-0.000128722
-0.000123494
-0.000118438
-0.000113555
-0.000108843
-0.0001043
-9.99217e-05
-9.57066e-05
-9.1651e-05
-8.77514e-05
-8.40039e-05
-8.04045e-05
-7.69492e-05
-7.36335e-05
-7.04531e-05
-6.74035e-05
-6.44801e-05
-6.16784e-05
-5.89939e-05
-5.6422e-05
-5.39581e-05
-5.15977e-05
-4.93366e-05
-4.71702e-05
-4.50944e-05
-4.3105e-05
-4.1198e-05
-3.93695e-05
-3.7616e-05
-3.59337e-05
-3.43194e-05
-3.27699e-05
-3.12821e-05
-2.98531e-05
-2.84803e-05
-2.7161e-05
-2.5893e-05
-2.46739e-05
-2.35016e-05
-2.23743e-05
-2.129e-05
-2.02471e-05
-1.92438e-05
-1.82789e-05
-0.00012808
-0.00012293
-0.000117944
-0.000113121
-0.000108461
-0.000103961
-9.96196e-05
-9.54349e-05
-9.14038e-05
-8.75233e-05
-8.37904e-05
-8.02015e-05
-7.6753e-05
-7.34411e-05
-7.02618e-05
-6.7211e-05
-6.42846e-05
-6.14784e-05
-5.87881e-05
-5.62096e-05
-5.37386e-05
-5.13707e-05
-4.91018e-05
-4.69278e-05
-4.48446e-05
-4.28482e-05
-4.09346e-05
-3.91002e-05
-3.73414e-05
-3.56546e-05
-3.40366e-05
-3.24841e-05
-3.09942e-05
-2.9564e-05
-2.81908e-05
-2.6872e-05
-2.56051e-05
-2.43881e-05
-2.32186e-05
-2.20947e-05
-2.10144e-05
-1.99763e-05
-1.89782e-05
-1.80191e-05
-0.000127198
-0.000122138
-0.000117232
-0.000112481
-0.000107883
-0.000103438
-9.91439e-05
-9.49998e-05
-9.1003e-05
-8.71514e-05
-8.34423e-05
-7.98727e-05
-7.64395e-05
-7.31393e-05
-6.99687e-05
-6.69239e-05
-6.40013e-05
-6.1197e-05
-5.85071e-05
-5.59277e-05
-5.34547e-05
-5.10843e-05
-4.88123e-05
-4.6635e-05
-4.45483e-05
-4.25485e-05
-4.06318e-05
-3.87946e-05
-3.70334e-05
-3.53447e-05
-3.37254e-05
-3.21722e-05
-3.06823e-05
-2.92527e-05
-2.78808e-05
-2.6564e-05
-2.52999e-05
-2.40862e-05
-2.29206e-05
-2.18013e-05
-2.07262e-05
-1.96936e-05
-1.87017e-05
-1.77491e-05
-0.000126086
-0.000121127
-0.000116312
-0.000111642
-0.000107117
-0.000102736
-9.84995e-05
-9.44055e-05
-9.04525e-05
-8.66388e-05
-8.29621e-05
-7.94202e-05
-7.60103e-05
-7.27296e-05
-6.95749e-05
-6.65432e-05
-6.36309e-05
-6.08348e-05
-5.81511e-05
-5.55762e-05
-5.31066e-05
-5.07383e-05
-4.84679e-05
-4.62914e-05
-4.42052e-05
-4.22057e-05
-4.02892e-05
-3.84523e-05
-3.66916e-05
-3.50037e-05
-3.33855e-05
-3.18339e-05
-3.03461e-05
-2.8919e-05
-2.75502e-05
-2.6237e-05
-2.49771e-05
-2.3768e-05
-2.26076e-05
-2.1494e-05
-2.0425e-05
-1.9399e-05
-1.84141e-05
-1.74688e-05
-0.000124755
-0.000119905
-0.000115191
-0.000110611
-0.000106169
-0.000101862
-9.76917e-05
-9.36567e-05
-8.97562e-05
-8.59888e-05
-8.23528e-05
-7.88465e-05
-7.54676e-05
-7.22136e-05
-6.90819e-05
-6.60698e-05
-6.31743e-05
-6.03922e-05
-5.77204e-05
-5.51556e-05
-5.26942e-05
-5.0333e-05
-4.80684e-05
-4.5897e-05
-4.38152e-05
-4.18195e-05
-3.99066e-05
-3.80732e-05
-3.63158e-05
-3.46314e-05
-3.30168e-05
-3.1469e-05
-2.99853e-05
-2.85627e-05
-2.71988e-05
-2.58908e-05
-2.46365e-05
-2.34334e-05
-2.22795e-05
-2.11727e-05
-2.01109e-05
-1.90925e-05
-1.81154e-05
-1.71782e-05
-0.000123215
-0.000118484
-0.000113878
-0.000109398
-0.000105046
-0.000100822
-9.67261e-05
-9.27584e-05
-8.89184e-05
-8.52052e-05
-8.16177e-05
-7.81544e-05
-7.48136e-05
-7.15933e-05
-6.84913e-05
-6.55053e-05
-6.26325e-05
-5.98704e-05
-5.72159e-05
-5.46662e-05
-5.22181e-05
-4.98685e-05
-4.76142e-05
-4.54518e-05
-4.33782e-05
-4.139e-05
-3.9484e-05
-3.7657e-05
-3.59059e-05
-3.42275e-05
-3.2619e-05
-3.10774e-05
-2.95998e-05
-2.81837e-05
-2.68263e-05
-2.55252e-05
-2.4278e-05
-2.30824e-05
-2.19362e-05
-2.08374e-05
-1.97838e-05
-1.87739e-05
-1.78055e-05
-1.68774e-05
-0.000121479
-0.000116873
-0.000112383
-0.00010801
-0.000103756
-9.96223e-05
-9.56087e-05
-9.17159e-05
-8.79438e-05
-8.42922e-05
-8.07602e-05
-7.7347e-05
-7.40511e-05
-7.0871e-05
-6.78051e-05
-6.48511e-05
-6.20069e-05
-5.92702e-05
-5.66385e-05
-5.41089e-05
-5.16788e-05
-4.93453e-05
-4.71055e-05
-4.49562e-05
-4.28944e-05
-4.09172e-05
-3.90213e-05
-3.72039e-05
-3.54618e-05
-3.37922e-05
-3.21921e-05
-3.06589e-05
-2.91896e-05
-2.77818e-05
-2.64328e-05
-2.51402e-05
-2.39016e-05
-2.27148e-05
-2.15776e-05
-2.04879e-05
-1.94437e-05
-1.84432e-05
-1.74845e-05
-1.65662e-05
-0.000119557
-0.000115083
-0.000110716
-0.000106457
-0.000102308
-9.82703e-05
-9.43458e-05
-9.05347e-05
-8.68375e-05
-8.32541e-05
-7.97844e-05
-7.64276e-05
-7.3183e-05
-7.00494e-05
-6.70253e-05
-6.41092e-05
-6.12992e-05
-5.85932e-05
-5.59891e-05
-5.34846e-05
-5.10771e-05
-4.8764e-05
-4.65427e-05
-4.44104e-05
-4.23642e-05
-4.04013e-05
-3.85188e-05
-3.67138e-05
-3.49836e-05
-3.33253e-05
-3.17361e-05
-3.02135e-05
-2.87546e-05
-2.7357e-05
-2.60182e-05
-2.47357e-05
-2.35073e-05
-2.23306e-05
-2.12036e-05
-2.01243e-05
-1.90905e-05
-1.81005e-05
-1.71524e-05
-1.62446e-05
-0.00011746
-0.000113124
-0.000108885
-0.000104745
-0.000100707
-9.67731e-05
-9.29439e-05
-8.92208e-05
-8.56046e-05
-8.20957e-05
-7.86942e-05
-7.54e-05
-7.22125e-05
-6.91311e-05
-6.61545e-05
-6.32816e-05
-6.0511e-05
-5.78408e-05
-5.52693e-05
-5.27944e-05
-5.04138e-05
-4.81254e-05
-4.59266e-05
-4.3815e-05
-4.17878e-05
-3.98426e-05
-3.79766e-05
-3.61871e-05
-3.44714e-05
-3.2827e-05
-3.12511e-05
-2.97412e-05
-2.82948e-05
-2.69093e-05
-2.55824e-05
-2.43117e-05
-2.30949e-05
-2.19298e-05
-2.08144e-05
-1.97465e-05
-1.87242e-05
-1.77457e-05
-1.68091e-05
-1.59128e-05
-0.000115201
-0.000111007
-0.0001069
-0.000102885
-9.89638e-05
-9.51379e-05
-9.14095e-05
-8.778e-05
-8.42504e-05
-8.08216e-05
-7.74941e-05
-7.4268e-05
-7.11431e-05
-6.81191e-05
-6.51953e-05
-6.23708e-05
-5.96444e-05
-5.70148e-05
-5.44804e-05
-5.20395e-05
-4.96902e-05
-4.74304e-05
-4.52579e-05
-4.31706e-05
-4.11659e-05
-3.92416e-05
-3.73951e-05
-3.56239e-05
-3.39255e-05
-3.22975e-05
-3.07372e-05
-2.92423e-05
-2.78103e-05
-2.64389e-05
-2.51256e-05
-2.38683e-05
-2.26646e-05
-2.15125e-05
-2.04098e-05
-1.93546e-05
-1.83449e-05
-1.73789e-05
-1.64546e-05
-1.55707e-05
-0.000112789
-0.000108741
-0.000104772
-0.000100885
-9.70848e-05
-9.33722e-05
-8.97494e-05
-8.62185e-05
-8.27806e-05
-7.9437e-05
-7.61885e-05
-7.30355e-05
-6.99783e-05
-6.70168e-05
-6.41506e-05
-6.13792e-05
-5.87017e-05
-5.61171e-05
-5.36242e-05
-5.12215e-05
-4.89073e-05
-4.668e-05
-4.45375e-05
-4.2478e-05
-4.04992e-05
-3.85989e-05
-3.67748e-05
-3.50247e-05
-3.33462e-05
-3.1737e-05
-3.01946e-05
-2.87168e-05
-2.73013e-05
-2.59457e-05
-2.46478e-05
-2.34055e-05
-2.22164e-05
-2.10786e-05
-1.999e-05
-1.89486e-05
-1.79526e-05
-1.7e-05
-1.60891e-05
-1.52183e-05
-0.000110236
-0.000106337
-0.000102508
-9.87544e-05
-9.50786e-05
-9.14832e-05
-8.79704e-05
-8.45424e-05
-8.12007e-05
-7.79469e-05
-7.4782e-05
-7.17068e-05
-6.87218e-05
-6.58273e-05
-6.30233e-05
-6.03094e-05
-5.76852e-05
-5.51498e-05
-5.27024e-05
-5.03418e-05
-4.80667e-05
-4.58754e-05
-4.37665e-05
-4.17381e-05
-3.97882e-05
-3.7915e-05
-3.61163e-05
-3.439e-05
-3.27339e-05
-3.11459e-05
-2.96237e-05
-2.81651e-05
-2.6768e-05
-2.54301e-05
-2.41493e-05
-2.29234e-05
-2.17505e-05
-2.06283e-05
-1.9555e-05
-1.85287e-05
-1.75473e-05
-1.66093e-05
-1.57126e-05
-1.48558e-05
-0.000107553
-0.000103804
-0.000100119
-9.65008e-05
-9.2953e-05
-8.94783e-05
-8.60792e-05
-8.2758e-05
-7.95165e-05
-7.63565e-05
-7.32794e-05
-7.02861e-05
-6.73776e-05
-6.45543e-05
-6.18165e-05
-5.91642e-05
-5.65972e-05
-5.4115e-05
-5.1717e-05
-4.94023e-05
-4.71697e-05
-4.50181e-05
-4.2946e-05
-4.09519e-05
-3.90341e-05
-3.71908e-05
-3.54201e-05
-3.37202e-05
-3.2089e-05
-3.05245e-05
-2.90247e-05
-2.75874e-05
-2.62105e-05
-2.48921e-05
-2.36301e-05
-2.24223e-05
-2.12669e-05
-2.01618e-05
-1.91051e-05
-1.80948e-05
-1.71293e-05
-1.62067e-05
-1.53251e-05
-1.44832e-05
-0.00010475
-0.000101153
-9.76133e-05
-9.4133e-05
-9.0716e-05
-8.73649e-05
-8.40826e-05
-8.08715e-05
-7.77337e-05
-7.46711e-05
-7.16854e-05
-6.87778e-05
-6.59495e-05
-6.32012e-05
-6.05334e-05
-5.79465e-05
-5.54405e-05
-5.30151e-05
-5.06701e-05
-4.84046e-05
-4.6218e-05
-4.41093e-05
-4.20772e-05
-4.01204e-05
-3.82376e-05
-3.6427e-05
-3.46871e-05
-3.30161e-05
-3.14122e-05
-2.98734e-05
-2.8398e-05
-2.6984e-05
-2.56293e-05
-2.43322e-05
-2.30905e-05
-2.19024e-05
-2.07659e-05
-1.96791e-05
-1.86402e-05
-1.76473e-05
-1.66985e-05
-1.57923e-05
-1.49268e-05
-1.41006e-05
-0.000101836
-9.83934e-05
-9.50001e-05
-9.16596e-05
-8.83753e-05
-8.51503e-05
-8.19873e-05
-7.88891e-05
-7.58579e-05
-7.28959e-05
-7.00048e-05
-6.71863e-05
-6.44416e-05
-6.17717e-05
-5.91774e-05
-5.66593e-05
-5.42177e-05
-5.18525e-05
-4.95637e-05
-4.73509e-05
-4.52134e-05
-4.31506e-05
-4.11615e-05
-3.9245e-05
-3.73998e-05
-3.56247e-05
-3.3918e-05
-3.22783e-05
-3.07039e-05
-2.91931e-05
-2.77442e-05
-2.63554e-05
-2.50247e-05
-2.37505e-05
-2.25308e-05
-2.13638e-05
-2.02477e-05
-1.91805e-05
-1.81606e-05
-1.71861e-05
-1.62552e-05
-1.53664e-05
-1.45179e-05
-1.37081e-05
-9.88219e-05
-9.55338e-05
-9.22882e-05
-8.90886e-05
-8.59387e-05
-8.28415e-05
-7.98e-05
-7.68171e-05
-7.3895e-05
-7.10362e-05
-6.82426e-05
-6.55161e-05
-6.28579e-05
-6.02695e-05
-5.77519e-05
-5.53057e-05
-5.29315e-05
-5.06297e-05
-4.84002e-05
-4.6243e-05
-4.41576e-05
-4.21437e-05
-4.02003e-05
-3.83268e-05
-3.65219e-05
-3.47847e-05
-3.31137e-05
-3.15076e-05
-2.9965e-05
-2.84842e-05
-2.70638e-05
-2.5702e-05
-2.43971e-05
-2.31475e-05
-2.19514e-05
-2.08069e-05
-1.97125e-05
-1.86662e-05
-1.76665e-05
-1.67115e-05
-1.57995e-05
-1.49291e-05
-1.40983e-05
-1.33058e-05
-9.57171e-05
-9.25835e-05
-8.94858e-05
-8.6428e-05
-8.34136e-05
-8.04457e-05
-7.75273e-05
-7.46614e-05
-7.18506e-05
-6.90973e-05
-6.64036e-05
-6.37715e-05
-6.12027e-05
-5.86985e-05
-5.62602e-05
-5.38888e-05
-5.15849e-05
-4.93492e-05
-4.71819e-05
-4.5083e-05
-4.30526e-05
-4.10901e-05
-3.91952e-05
-3.73671e-05
-3.56051e-05
-3.39081e-05
-3.22751e-05
-3.07048e-05
-2.9196e-05
-2.77473e-05
-2.63573e-05
-2.50243e-05
-2.3747e-05
-2.25235e-05
-2.13525e-05
-2.0232e-05
-1.91606e-05
-1.81365e-05
-1.71581e-05
-1.62237e-05
-1.53316e-05
-1.44804e-05
-1.36683e-05
-1.2894e-05
-9.25305e-05
-8.95509e-05
-8.66014e-05
-8.36856e-05
-8.08073e-05
-7.79696e-05
-7.51756e-05
-7.24283e-05
-6.97304e-05
-6.70844e-05
-6.44926e-05
-6.19572e-05
-5.94798e-05
-5.70623e-05
-5.47058e-05
-5.24116e-05
-5.01807e-05
-4.80137e-05
-4.59111e-05
-4.38732e-05
-4.19001e-05
-3.99917e-05
-3.81476e-05
-3.63675e-05
-3.46505e-05
-3.29961e-05
-3.14032e-05
-2.98709e-05
-2.83979e-05
-2.69832e-05
-2.56253e-05
-2.4323e-05
-2.30747e-05
-2.18791e-05
-2.07345e-05
-1.96394e-05
-1.85923e-05
-1.75916e-05
-1.66356e-05
-1.57228e-05
-1.48517e-05
-1.40207e-05
-1.32281e-05
-1.24727e-05
-8.9271e-05
-8.64446e-05
-8.36427e-05
-8.0869e-05
-7.8127e-05
-7.542e-05
-7.27512e-05
-7.01235e-05
-6.75398e-05
-6.50027e-05
-6.25145e-05
-6.00775e-05
-5.76937e-05
-5.53648e-05
-5.30923e-05
-5.08777e-05
-4.87219e-05
-4.66259e-05
-4.45904e-05
-4.26158e-05
-4.07024e-05
-3.88503e-05
-3.70594e-05
-3.53293e-05
-3.36597e-05
-3.20499e-05
-3.04992e-05
-2.90067e-05
-2.75715e-05
-2.61926e-05
-2.48687e-05
-2.35986e-05
-2.2381e-05
-2.12146e-05
-2.00979e-05
-1.90296e-05
-1.8008e-05
-1.70318e-05
-1.60994e-05
-1.52093e-05
-1.436e-05
-1.355e-05
-1.27779e-05
-1.20421e-05
-0.000469714
-0.000448898
-0.000428623
-0.000408942
-0.000389901
-0.000371533
-0.000353862
-0.000336902
-0.00032066
-0.000305136
-0.000290325
-0.000276217
-0.000262797
-0.000250047
-0.000237948
-0.000226477
-0.000215612
-0.000205327
-0.000195598
-0.0001864
-0.000177707
-0.000169494
-0.000161737
-0.000154411
-0.000147493
-0.000140961
-0.000134792
-0.000452622
-0.000433415
-0.000414637
-0.000396347
-0.000378591
-0.000361406
-0.00034482
-0.000328852
-0.000313514
-0.000298811
-0.000284743
-0.000271305
-0.000258488
-0.000246279
-0.000234663
-0.000223624
-0.000213141
-0.000203196
-0.000193766
-0.000184831
-0.000176369
-0.000168357
-0.000160775
-0.000153601
-0.000146815
-0.000140395
-0.000134322
-0.000435584
-0.000417891
-0.00040053
-0.00038356
-0.000367031
-0.000350981
-0.000335442
-0.000320436
-0.000305978
-0.00029208
-0.000278744
-0.000265971
-0.000253755
-0.000242089
-0.000230961
-0.00022036
-0.00021027
-0.000200674
-0.000191556
-0.000182898
-0.00017468
-0.000166885
-0.000159493
-0.000152485
-0.000145844
-0.000139551
-0.000133588
-0.000418653
-0.000402382
-0.000386359
-0.000370643
-0.000355282
-0.000340319
-0.000325787
-0.00031171
-0.000298109
-0.000284996
-0.000272379
-0.000260261
-0.000248642
-0.000237518
-0.000226881
-0.000216722
-0.000207031
-0.000197794
-0.000188997
-0.000180626
-0.000172664
-0.000165097
-0.000157907
-0.000151079
-0.000144596
-0.000138442
-0.000132601
-0.000401874
-0.000386939
-0.000372177
-0.000357648
-0.000343399
-0.000329475
-0.000315909
-0.000302729
-0.000289956
-0.000277608
-0.000265694
-0.000254221
-0.000243191
-0.000232605
-0.000222458
-0.000212744
-0.000203455
-0.000194583
-0.000186114
-0.000178039
-0.000170343
-0.000163014
-0.000156037
-0.000149399
-0.000143085
-0.000137081
-0.000131374
-0.000385286
-0.000371604
-0.000358031
-0.000344624
-0.000331432
-0.000318497
-0.000305857
-0.000293539
-0.000281568
-0.000269961
-0.000258732
-0.000247891
-0.000237442
-0.000227387
-0.000217727
-0.000208457
-0.000199573
-0.000191068
-0.000182934
-0.00017516
-0.000167737
-0.000160654
-0.000153899
-0.00014746
-0.000141325
-0.000135482
-0.000129918
-0.000368922
-0.000356415
-0.00034396
-0.000331613
-0.000319422
-0.000307431
-0.000295675
-0.000284185
-0.000272986
-0.000262098
-0.000251535
-0.00024131
-0.00023143
-0.0002219
-0.000212721
-0.000203893
-0.000195414
-0.000187278
-0.00017948
-0.000172013
-0.000164869
-0.000158038
-0.000151512
-0.00014528
-0.000139332
-0.000133658
-0.000128245
-0.00035281
-0.000341403
-0.000329999
-0.000318652
-0.00030741
-0.000296316
-0.000285404
-0.000274708
-0.000264251
-0.000254056
-0.00024414
-0.000234515
-0.000225191
-0.000216175
-0.000207472
-0.000199081
-0.000191004
-0.000183237
-0.000175778
-0.00016862
-0.000161758
-0.000155185
-0.000148894
-0.000142875
-0.000137121
-0.000131622
-0.000126369
-0.000336973
-0.000326595
-0.000316178
-0.000305775
-0.00029543
-0.000285186
-0.00027508
-0.000265142
-0.000255398
-0.000245872
-0.00023658
-0.000227538
-0.000218757
-0.000210245
-0.000202008
-0.000194049
-0.00018637
-0.000178971
-0.00017185
-0.000165003
-0.000158426
-0.000152114
-0.000146061
-0.00014026
-0.000134705
-0.000129388
-0.0001243
-0.000321429
-0.000312014
-0.000302524
-0.000293008
-0.000283511
-0.000274075
-0.000264734
-0.000255521
-0.00024646
-0.000237577
-0.000228888
-0.000220411
-0.000212157
-0.000204137
-0.000196357
-0.000188823
-0.000181538
-0.000174503
-0.000167718
-0.000161181
-0.00015489
-0.000148842
-0.00014303
-0.000137452
-0.0001321
-0.000126969
-0.000122052
-0.000306193
-0.000297679
-0.000289057
-0.000280377
-0.000271681
-0.000263009
-0.000254396
-0.000245874
-0.000237467
-0.000229201
-0.000221094
-0.000213162
-0.00020542
-0.000197879
-0.000190546
-0.000183429
-0.000176531
-0.000169856
-0.000163404
-0.000157176
-0.000151171
-0.000145386
-0.000139819
-0.000134465
-0.000129319
-0.000124378
-0.000119636
-0.000291278
-0.000283604
-0.000275797
-0.000267902
-0.000259962
-0.000252014
-0.000244092
-0.000236227
-0.000228446
-0.000220771
-0.000213223
-0.000205818
-0.000198572
-0.000191495
-0.000184598
-0.000177888
-0.00017137
-0.00016505
-0.000158928
-0.000153007
-0.000147286
-0.000141765
-0.000136442
-0.000131314
-0.000126377
-0.000121629
-0.000117064
-0.000276691
-0.000269803
-0.000262759
-0.000255603
-0.000248374
-0.00024111
-0.000233843
-0.000226605
-0.000219419
-0.000212311
-0.000205299
-0.000198402
-0.000191635
-0.000185009
-0.000178536
-0.000172223
-0.000166078
-0.000160105
-0.000154309
-0.000148691
-0.000143252
-0.000137994
-0.000132915
-0.000128013
-0.000123287
-0.000118733
-0.000114349
-0.00026244
-0.000256285
-0.000249955
-0.000243492
-0.000236934
-0.000230316
-0.000223671
-0.000217027
-0.00021041
-0.000203843
-0.000197346
-0.000190937
-0.000184631
-0.000178442
-0.00017238
-0.000166454
-0.000160672
-0.000155041
-0.000149564
-0.000144245
-0.000139086
-0.000134088
-0.000129252
-0.000124576
-0.000120061
-0.000115703
-0.000111501
-0.000248529
-0.000243058
-0.000237397
-0.000231584
-0.000225657
-0.000219649
-0.000213592
-0.000207512
-0.000201436
-0.000195386
-0.000189382
-0.000183442
-0.000177581
-0.000171813
-0.000166149
-0.0001606
-0.000155172
-0.000149874
-0.000144711
-0.000139686
-0.000134802
-0.000130062
-0.000125467
-0.000121017
-0.000116712
-0.000112551
-0.000108531
-0.000234959
-0.000230126
-0.00022509
-0.000219889
-0.000214555
-0.000209123
-0.000203621
-0.000198078
-0.000192516
-0.000186959
-0.000181426
-0.000175936
-0.000170503
-0.000165141
-0.000159862
-0.000154678
-0.000149595
-0.000144622
-0.000139765
-0.000135029
-0.000130416
-0.000125931
-0.000121575
-0.000117349
-0.000113253
-0.000109287
-0.000105451
-0.000221732
-0.000217494
-0.000213043
-0.000208414
-0.000203638
-0.000198748
-0.000193772
-0.000188736
-0.000183664
-0.000178576
-0.000173494
-0.000168434
-0.000163412
-0.000158441
-0.000153535
-0.000148704
-0.000143956
-0.0001393
-0.000134742
-0.000130288
-0.000125942
-0.000121707
-0.000117587
-0.000113582
-0.000109694
-0.000105923
-0.00010227
-0.000208846
-0.000205163
-0.000201259
-0.000197166
-0.000192915
-0.000188536
-0.000184056
-0.000179501
-0.000174893
-0.000170252
-0.0001656
-0.000160952
-0.000156324
-0.00015173
-0.000147183
-0.000142693
-0.00013827
-0.000133921
-0.000129655
-0.000125477
-0.000121392
-0.000117404
-0.000113515
-0.000109729
-0.000106047
-0.00010247
-9.89987e-05
-0.0001963
-0.000193134
-0.00018974
-0.00018615
-0.000182392
-0.000178494
-0.000174483
-0.000170382
-0.000166214
-0.000161999
-0.000157756
-0.000153502
-0.000149252
-0.00014502
-0.000140819
-0.000136658
-0.000132549
-0.0001285
-0.000124518
-0.000120609
-0.000116779
-0.000113032
-0.000109371
-0.000105801
-0.000102322
-9.89371e-05
-9.56463e-05
-0.00018409
-0.000181406
-0.00017849
-0.00017537
-0.000172074
-0.000168629
-0.00016506
-0.000161389
-0.000157639
-0.000153828
-0.000149975
-0.000146097
-0.000142209
-0.000138324
-0.000134455
-0.000130613
-0.000126808
-0.000123048
-0.000119342
-0.000115695
-0.000112114
-0.000108603
-0.000105167
-0.000101808
-9.85298e-05
-9.5334e-05
-9.22221e-05
-0.000172456
-0.000170211
-0.000167731
-0.000165042
-0.000162172
-0.000159144
-0.000155983
-0.000152711
-0.000149348
-0.000145913
-0.000142425
-0.000138898
-0.000135349
-0.00013179
-0.000128234
-0.000124692
-0.000121175
-0.000117689
-0.000114245
-0.000110848
-0.000107505
-0.00010422
-0.000100998
-9.78434e-05
-9.47584e-05
-9.17455e-05
-8.88069e-05
-0.000161258
-0.00015942
-0.000157343
-0.000155054
-0.000152579
-0.00014994
-0.00014716
-0.000144261
-0.000141261
-0.00013818
-0.000135035
-0.00013184
-0.000128612
-0.000125362
-0.000122104
-0.000118849
-0.000115605
-0.000112383
-0.00010919
-0.000106033
-0.000102918
-9.98518e-05
-9.68378e-05
-9.38805e-05
-9.0983e-05
-8.81483e-05
-8.53786e-05
-0.000150149
-0.000148696
-0.000147004
-0.000145098
-0.000143001
-0.000140735
-0.000138322
-0.000135782
-0.000133134
-0.000130395
-0.000127583
-0.000124711
-0.000121796
-0.000118849
-0.000115882
-0.000112907
-0.000109933
-0.00010697
-0.000104025
-0.000101106
-9.82188e-05
-9.53693e-05
-9.25623e-05
-8.98021e-05
-8.70924e-05
-8.44362e-05
-8.18362e-05
-0.000139136
-0.000138049
-0.000136723
-0.000135182
-0.000133446
-0.000131538
-0.000129478
-0.000127284
-0.000124975
-0.000122567
-0.000120077
-0.00011752
-0.000114909
-0.000112257
-0.000109575
-0.000106876
-0.000104167
-0.000101459
-9.87585e-05
-9.60741e-05
-9.34119e-05
-9.07776e-05
-8.81764e-05
-8.56126e-05
-8.30904e-05
-8.06128e-05
-7.81829e-05
-0.000128228
-0.000127488
-0.00012651
-0.000125316
-0.000123926
-0.00012236
-0.000120637
-0.000118776
-0.000116793
-0.000114706
-0.000112528
-0.000110275
-0.00010796
-0.000105595
-0.000103192
-0.000100762
-9.83127e-05
-9.58548e-05
-9.33958e-05
-9.09431e-05
-8.85032e-05
-8.60822e-05
-8.36852e-05
-8.13169e-05
-7.89813e-05
-7.66822e-05
-7.44225e-05
-0.000117433
-0.000117021
-0.000116373
-0.000115509
-0.000114448
-0.000113208
-0.000111809
-0.000110267
-0.000108599
-0.00010682
-0.000104944
-0.000102986
-0.000100958
-9.88728e-05
-9.67409e-05
-9.4573e-05
-9.23784e-05
-9.01661e-05
-8.7944e-05
-8.57194e-05
-8.3499e-05
-8.12888e-05
-7.90941e-05
-7.69198e-05
-7.477e-05
-7.26487e-05
-7.05589e-05
-0.000106758
-0.000106656
-0.00010632
-0.000105769
-0.000105021
-0.000104094
-0.000103004
-0.000101768
-0.000100401
-9.89186e-05
-9.73342e-05
-9.56611e-05
-9.39116e-05
-9.20975e-05
-9.02295e-05
-8.83178e-05
-8.63717e-05
-8.43998e-05
-8.24101e-05
-8.04098e-05
-7.84056e-05
-7.64034e-05
-7.44088e-05
-7.24267e-05
-7.04614e-05
-6.85168e-05
-6.65965e-05
-9.62113e-05
-9.64011e-05
-9.63601e-05
-9.61059e-05
-9.56552e-05
-9.50245e-05
-9.42298e-05
-9.32864e-05
-9.2209e-05
-9.10117e-05
-8.97076e-05
-8.83096e-05
-8.68294e-05
-8.52782e-05
-8.36666e-05
-8.20043e-05
-8.03005e-05
-7.85636e-05
-7.68015e-05
-7.50212e-05
-7.32295e-05
-7.14324e-05
-6.96353e-05
-6.78432e-05
-6.60607e-05
-6.42917e-05
-6.25398e-05
-8.57988e-05
-8.62633e-05
-8.65006e-05
-8.65271e-05
-8.63583e-05
-8.60096e-05
-8.54961e-05
-8.48322e-05
-8.40317e-05
-8.31079e-05
-8.20735e-05
-8.09405e-05
-7.97203e-05
-7.84236e-05
-7.70605e-05
-7.56407e-05
-7.41728e-05
-7.26652e-05
-7.11255e-05
-6.95609e-05
-6.79777e-05
-6.63822e-05
-6.47797e-05
-6.31753e-05
-6.15735e-05
-5.99784e-05
-5.83938e-05
-7.55276e-05
-7.62499e-05
-7.67492e-05
-7.70407e-05
-7.71387e-05
-7.70577e-05
-7.68117e-05
-7.64142e-05
-7.58783e-05
-7.52166e-05
-7.44409e-05
-7.35629e-05
-7.25933e-05
-7.15424e-05
-7.042e-05
-6.92353e-05
-6.79967e-05
-6.67124e-05
-6.53899e-05
-6.4036e-05
-6.26573e-05
-6.12596e-05
-5.98485e-05
-5.84289e-05
-5.70056e-05
-5.55825e-05
-5.41636e-05
-6.54037e-05
-6.63678e-05
-6.71133e-05
-6.76545e-05
-6.80046e-05
-6.81771e-05
-6.81851e-05
-6.80412e-05
-6.77577e-05
-6.73465e-05
-6.68188e-05
-6.61856e-05
-6.54572e-05
-6.46434e-05
-6.37536e-05
-6.27966e-05
-6.17806e-05
-6.07134e-05
-5.96023e-05
-5.84542e-05
-5.72753e-05
-5.60715e-05
-5.48483e-05
-5.36106e-05
-5.2363e-05
-5.11098e-05
-4.98547e-05
-5.54332e-05
-5.66233e-05
-5.75998e-05
-5.83759e-05
-5.89638e-05
-5.93759e-05
-5.96246e-05
-5.97217e-05
-5.96786e-05
-5.95065e-05
-5.92161e-05
-5.88177e-05
-5.8321e-05
-5.77355e-05
-5.707e-05
-5.63331e-05
-5.55326e-05
-5.46762e-05
-5.37708e-05
-5.28231e-05
-5.18393e-05
-5.08251e-05
-4.9786e-05
-4.87268e-05
-4.76521e-05
-4.65662e-05
-4.54729e-05
-4.56215e-05
-4.70226e-05
-4.82155e-05
-4.92121e-05
-5.00238e-05
-5.06622e-05
-5.11387e-05
-5.14643e-05
-5.16497e-05
-5.17055e-05
-5.16416e-05
-5.14678e-05
-5.11934e-05
-5.08272e-05
-5.03778e-05
-4.98533e-05
-4.92612e-05
-4.86089e-05
-4.79032e-05
-4.71505e-05
-4.63568e-05
-4.55278e-05
-4.46686e-05
-4.37843e-05
-4.28794e-05
-4.1958e-05
-4.10241e-05
-3.59739e-05
-3.75717e-05
-3.89666e-05
-4.01698e-05
-4.11919e-05
-4.20434e-05
-4.2735e-05
-4.3277e-05
-4.36793e-05
-4.39518e-05
-4.41039e-05
-4.41447e-05
-4.4083e-05
-4.39273e-05
-4.36856e-05
-4.33657e-05
-4.29748e-05
-4.25199e-05
-4.20077e-05
-4.14442e-05
-4.08354e-05
-4.01868e-05
-3.95035e-05
-3.87902e-05
-3.80516e-05
-3.72917e-05
-3.65144e-05
-2.64954e-05
-2.82759e-05
-2.98592e-05
-3.12557e-05
-3.24751e-05
-3.3527e-05
-3.44214e-05
-3.51679e-05
-3.57756e-05
-3.62539e-05
-3.66114e-05
-3.68569e-05
-3.69986e-05
-3.70444e-05
-3.7002e-05
-3.68788e-05
-3.66818e-05
-3.64175e-05
-3.60924e-05
-3.57123e-05
-3.5283e-05
-3.48099e-05
-3.42978e-05
-3.37516e-05
-3.31756e-05
-3.25739e-05
-3.19504e-05
-1.71904e-05
-1.91404e-05
-2.08991e-05
-2.2476e-05
-2.388e-05
-2.512e-05
-2.62052e-05
-2.71446e-05
-2.79466e-05
-2.86198e-05
-2.91725e-05
-2.96128e-05
-2.99484e-05
-3.01869e-05
-3.03355e-05
-3.04012e-05
-3.03905e-05
-3.03099e-05
-3.01654e-05
-2.99628e-05
-2.97075e-05
-2.94047e-05
-2.90592e-05
-2.86757e-05
-2.82585e-05
-2.78115e-05
-2.73386e-05
-8.0632e-06
-1.017e-05
-1.20916e-05
-1.38365e-05
-1.54129e-05
-1.68291e-05
-1.80936e-05
-1.92144e-05
-2.01998e-05
-2.10574e-05
-2.17952e-05
-2.24206e-05
-2.2941e-05
-2.33633e-05
-2.36944e-05
-2.3941e-05
-2.41093e-05
-2.42053e-05
-2.42349e-05
-2.42036e-05
-2.41166e-05
-2.39789e-05
-2.37952e-05
-2.357e-05
-2.33074e-05
-2.30115e-05
-2.26859e-05
8.82251e-07
-1.36936e-06
-3.44171e-06
-5.34272e-06
-7.07988e-06
-8.66074e-06
-1.00932e-05
-1.13847e-05
-1.25427e-05
-1.35745e-05
-1.44874e-05
-1.52884e-05
-1.59843e-05
-1.65817e-05
-1.70871e-05
-1.75067e-05
-1.78464e-05
-1.81121e-05
-1.83092e-05
-1.8443e-05
-1.85185e-05
-1.85405e-05
-1.85135e-05
-1.84419e-05
-1.83298e-05
-1.8181e-05
-1.79991e-05
9.64236e-06
7.25747e-06
5.04578e-06
3.00004e-06
1.11339e-06
-6.21074e-07
-2.21059e-06
-3.66208e-06
-4.9824e-06
-6.17836e-06
-7.25666e-06
-8.22384e-06
-9.08627e-06
-9.85017e-06
-1.05216e-05
-1.11064e-05
-1.16101e-05
-1.20384e-05
-1.23963e-05
-1.26889e-05
-1.2921e-05
-1.30972e-05
-1.32219e-05
-1.32992e-05
-1.33331e-05
-1.33273e-05
-1.32854e-05
1.82138e-05
1.57066e-05
1.33665e-05
1.11869e-05
9.16151e-06
7.2841e-06
5.54796e-06
3.94674e-06
2.47413e-06
1.12381e-06
-1.10416e-07
-1.23463e-06
-2.25477e-06
-3.17665e-06
-4.00593e-06
-4.7481e-06
-5.40847e-06
-5.9922e-06
-6.50424e-06
-6.94936e-06
-7.33214e-06
-7.65696e-06
-7.92803e-06
-8.14934e-06
-8.32472e-06
-8.45777e-06
-8.55194e-06
2.65936e-05
2.39744e-05
2.15163e-05
1.92132e-05
1.70594e-05
1.50492e-05
1.31766e-05
1.14355e-05
9.82031e-06
8.32511e-06
6.94417e-06
5.67187e-06
4.50267e-06
3.43116e-06
2.45204e-06
1.56018e-06
7.50563e-07
1.83503e-08
-6.41145e-07
-1.23244e-06
-1.7599e-06
-2.2277e-06
-2.63984e-06
-3.00018e-06
-3.31237e-06
-3.57991e-06
-3.80612e-06
3.47789e-05
3.20575e-05
2.94912e-05
2.70746e-05
2.48022e-05
2.26691e-05
2.06696e-05
1.87982e-05
1.70498e-05
1.54189e-05
1.39002e-05
1.24885e-05
1.11787e-05
9.96572e-06
8.84465e-06
7.81068e-06
6.8591e-06
5.98537e-06
5.18507e-06
4.45392e-06
3.78779e-06
3.18272e-06
2.63487e-06
2.14058e-06
1.69633e-06
1.29876e-06
9.44657e-07
4.27671e-05
3.99529e-05
3.72879e-05
3.4767e-05
3.23855e-05
3.01387e-05
2.80216e-05
2.60291e-05
2.41565e-05
2.23987e-05
2.07509e-05
1.92083e-05
1.77661e-05
1.64197e-05
1.51644e-05
1.39958e-05
1.29094e-05
1.19011e-05
1.09665e-05
1.01018e-05
9.30306e-06
8.56642e-06
7.88829e-06
7.26516e-06
6.69368e-06
6.17063e-06
5.6929e-06
5.0556e-05
4.76577e-05
4.49028e-05
4.22865e-05
3.98048e-05
3.74534e-05
3.52275e-05
3.31226e-05
3.11344e-05
2.92584e-05
2.74899e-05
2.58245e-05
2.4258e-05
2.27858e-05
2.14039e-05
2.01079e-05
1.88939e-05
1.77577e-05
1.66955e-05
1.57035e-05
1.47781e-05
1.39156e-05
1.31126e-05
1.23658e-05
1.1672e-05
1.1028e-05
1.04311e-05
5.81435e-05
5.51694e-05
5.23328e-05
4.96297e-05
4.70562e-05
4.46085e-05
4.22823e-05
4.00736e-05
3.79781e-05
3.59919e-05
3.41108e-05
3.23307e-05
3.06475e-05
2.90573e-05
2.7556e-05
2.61399e-05
2.4805e-05
2.35477e-05
2.23643e-05
2.12512e-05
2.02051e-05
1.92224e-05
1.83e-05
1.74347e-05
1.66235e-05
1.58633e-05
1.51515e-05
6.55275e-05
6.24853e-05
5.95751e-05
5.67931e-05
5.41358e-05
5.16e-05
4.91815e-05
4.68768e-05
4.46821e-05
4.25937e-05
4.06077e-05
3.87204e-05
3.69281e-05
3.52271e-05
3.36137e-05
3.20844e-05
3.06355e-05
2.92636e-05
2.79653e-05
2.67373e-05
2.55763e-05
2.44791e-05
2.34428e-05
2.24641e-05
2.15404e-05
2.06688e-05
1.98466e-05
7.27064e-05
6.96033e-05
6.66268e-05
6.37734e-05
6.104e-05
5.84236e-05
5.59206e-05
5.35275e-05
5.12412e-05
4.9058e-05
4.69747e-05
4.49876e-05
4.30934e-05
4.12888e-05
3.95702e-05
3.79344e-05
3.63781e-05
3.48981e-05
3.34912e-05
3.21542e-05
3.08842e-05
2.96782e-05
2.85331e-05
2.74464e-05
2.64151e-05
2.54368e-05
2.45087e-05
7.96784e-05
7.65213e-05
7.34855e-05
7.05677e-05
6.77654e-05
6.50756e-05
6.24952e-05
6.00211e-05
5.76503e-05
5.53797e-05
5.32061e-05
5.11263e-05
4.91372e-05
4.72357e-05
4.54187e-05
4.36831e-05
4.20259e-05
4.0444e-05
3.89345e-05
3.74945e-05
3.61212e-05
3.48118e-05
3.35635e-05
3.23737e-05
3.12399e-05
3.01595e-05
2.91301e-05
8.6442e-05
8.32373e-05
8.01486e-05
7.71732e-05
7.43085e-05
7.15522e-05
6.89013e-05
6.63531e-05
6.39047e-05
6.15535e-05
5.92964e-05
5.71307e-05
5.50534e-05
5.30618e-05
5.11528e-05
4.93238e-05
4.75718e-05
4.58941e-05
4.42881e-05
4.27509e-05
4.12799e-05
3.98725e-05
3.85262e-05
3.72385e-05
3.6007e-05
3.48292e-05
3.3703e-05
9.29959e-05
8.97494e-05
8.66139e-05
8.35869e-05
8.06663e-05
7.78499e-05
7.51349e-05
7.25191e-05
6.99997e-05
6.75744e-05
6.52404e-05
6.29952e-05
6.08362e-05
5.87606e-05
5.6766e-05
5.48497e-05
5.3009e-05
5.12416e-05
4.95447e-05
4.79159e-05
4.63527e-05
4.48528e-05
4.34137e-05
4.20331e-05
4.07087e-05
3.94383e-05
3.82198e-05
9.93385e-05
9.60557e-05
9.28791e-05
8.98064e-05
8.68358e-05
8.39652e-05
8.11923e-05
7.85149e-05
7.59308e-05
7.34376e-05
7.10329e-05
6.87144e-05
6.64797e-05
6.43264e-05
6.22521e-05
6.02544e-05
5.8331e-05
5.64794e-05
5.46973e-05
5.29825e-05
5.13325e-05
4.97453e-05
4.82184e-05
4.67499e-05
4.53375e-05
4.39791e-05
4.26727e-05
0.000105469
0.000102155
9.89421e-05
9.58291e-05
9.28139e-05
8.98948e-05
8.70697e-05
8.43366e-05
8.16935e-05
7.91382e-05
7.66687e-05
7.42828e-05
7.19783e-05
6.97531e-05
6.76049e-05
6.55316e-05
6.35309e-05
6.16008e-05
5.9739e-05
5.79435e-05
5.6212e-05
5.45425e-05
5.2933e-05
5.13813e-05
4.98856e-05
4.84438e-05
4.7054e-05
0.000111385
0.000108044
0.000104801
0.000101652
9.85978e-05
9.56355e-05
9.27635e-05
8.99801e-05
8.72835e-05
8.46717e-05
8.2143e-05
7.96952e-05
7.73265e-05
7.50349e-05
7.28183e-05
7.06748e-05
6.86025e-05
6.65991e-05
6.46629e-05
6.27918e-05
6.09839e-05
5.92372e-05
5.75498e-05
5.59198e-05
5.43454e-05
5.28247e-05
5.13559e-05
0.000117086
0.000113723
0.000110453
0.000107274
0.000104185
0.000101184
9.82701e-05
9.54415e-05
9.26965e-05
9.00335e-05
8.74507e-05
8.49464e-05
8.25188e-05
8.01661e-05
7.78864e-05
7.5678e-05
7.35391e-05