/*--------------------------------*- C++ -*----------------------------------*\
| =========                 |                                                 |
| \\      /  F ield         | OpenFOAM: The Open Source CFD Toolbox           |
|  \\    /   O peration     | Version:  2412                                  |
|   \\  /    A nd           | Website:  www.openfoam.com                      |
|    \\/     M anipulation  |                                                 |
\*---------------------------------------------------------------------------*/
FoamFile
{
    version     2.0;
    format      ascii;
    arch        "LSB;label=32;scalar=64";
    class       volVectorField;
    location    "11";
    object      U;
}
// * * * * * * * * * * * * * * * * * * * * * * * * * * * * * * * * * * * * * //

dimensions      [0 1 -1 0 0 0 0];

internalField   nonuniform List<vector> 
5285
(
(0.0992683 -0.00529775 0)
(0.0992053 -0.00514127 0)
(0.0991476 -0.00498567 0)
(0.0990951 -0.00483118 0)
(0.0994296 -0.00522648 0)
(0.0993629 -0.00507684 0)
(0.0993012 -0.00492776 0)
(0.0992447 -0.00477946 0)
(0.0991931 -0.00463215 0)
(0.0991464 -0.00448606 0)
(0.0991045 -0.00434137 0)
(0.0990672 -0.00419827 0)
(0.0990343 -0.00405694 0)
(0.0990058 -0.00391754 0)
(0.0989815 -0.00378022 0)
(0.0989612 -0.00364511 0)
(0.0989448 -0.00351232 0)
(0.0989322 -0.00338196 0)
(0.0989231 -0.0032541 0)
(0.0989173 -0.00312881 0)
(0.0989149 -0.00300616 0)
(0.0989155 -0.00288622 0)
(0.0989191 -0.00276907 0)
(0.0989254 -0.00265481 0)
(0.0989344 -0.00254354 0)
(0.0989458 -0.00243537 0)
(0.0989594 -0.0023304 0)
(0.0989752 -0.0022287 0)
(0.0989928 -0.00213032 0)
(0.0990122 -0.00203526 0)
(0.0990331 -0.00194349 0)
(0.0990553 -0.00185493 0)
(0.0990788 -0.00176952 0)
(0.0991034 -0.00168717 0)
(0.0991288 -0.00160778 0)
(0.0991549 -0.00153127 0)
(0.0991817 -0.00145756 0)
(0.0992089 -0.00138658 0)
(0.0992365 -0.00131827 0)
(0.0992644 -0.00125254 0)
(0.0992924 -0.00118934 0)
(0.0993204 -0.00112861 0)
(0.0993484 -0.00107027 0)
(0.0993763 -0.00101426 0)
(0.099404 -0.000960527 0)
(0.0994314 -0.000908996 0)
(0.0994585 -0.000859608 0)
(0.0994851 -0.000812301 0)
(0.0995837 -0.00515156 0)
(0.0995136 -0.00500868 0)
(0.0994485 -0.00486605 0)
(0.0993883 -0.00472389 0)
(0.099333 -0.00458242 0)
(0.0992825 -0.00444184 0)
(0.0992366 -0.00430237 0)
(0.0991953 -0.00416419 0)
(0.0991585 -0.00402748 0)
(0.0991259 -0.0038924 0)
(0.0990975 -0.00375912 0)
(0.0990732 -0.00362778 0)
(0.0990527 -0.0034985 0)
(0.099036 -0.00337138 0)
(0.0990228 -0.00324653 0)
(0.0990131 -0.00312401 0)
(0.0990067 -0.00300391 0)
(0.0990035 -0.00288631 0)
(0.0990033 -0.00277129 0)
(0.0990059 -0.00265896 0)
(0.0990112 -0.00254943 0)
(0.099019 -0.00244281 0)
(0.0990292 -0.00233921 0)
(0.0990416 -0.00223871 0)
(0.0990559 -0.00214135 0)
(0.0990721 -0.00204716 0)
(0.09909 -0.0019561 0)
(0.0991093 -0.00186813 0)
(0.0991299 -0.00178318 0)
(0.0991517 -0.00170116 0)
(0.0991745 -0.001622 0)
(0.0991981 -0.00154563 0)
(0.0992225 -0.00147198 0)
(0.0992475 -0.00140098 0)
(0.0992729 -0.00133258 0)
(0.0992986 -0.0012667 0)
(0.0993247 -0.0012033 0)
(0.0993508 -0.00114232 0)
(0.099377 -0.00108369 0)
(0.0994032 -0.00102737 0)
(0.0994293 -0.000973282 0)
(0.0994552 -0.000921379 0)
(0.0994808 -0.000871601 0)
(0.0995061 -0.000823888 0)
(0.0997305 -0.00507349 0)
(0.0996575 -0.00493725 0)
(0.0995894 -0.00480097 0)
(0.099526 -0.00466488 0)
(0.0994674 -0.00452919 0)
(0.0994134 -0.00439412 0)
(0.099364 -0.00425985 0)
(0.0993191 -0.00412659 0)
(0.0992786 -0.00399452 0)
(0.0992423 -0.00386382 0)
(0.0992101 -0.00373463 0)
(0.0991819 -0.00360712 0)
(0.0991577 -0.00348142 0)
(0.0991372 -0.00335763 0)
(0.0991202 -0.00323586 0)
(0.0991068 -0.00311621 0)
(0.0990967 -0.00299876 0)
(0.0990898 -0.00288359 0)
(0.099086 -0.00277081 0)
(0.099085 -0.00266051 0)
(0.0990869 -0.00255282 0)
(0.0990913 -0.00244786 0)
(0.0990981 -0.00234573 0)
(0.0991072 -0.00224653 0)
(0.0991184 -0.00215031 0)
(0.0991315 -0.00205709 0)
(0.0991464 -0.00196685 0)
(0.0991629 -0.00187956 0)
(0.0991807 -0.00179516 0)
(0.0991998 -0.00171358 0)
(0.0992201 -0.00163475 0)
(0.0992413 -0.00155861 0)
(0.0992633 -0.0014851 0)
(0.099286 -0.00141417 0)
(0.0993092 -0.00134575 0)
(0.099333 -0.0012798 0)
(0.099357 -0.00121627 0)
(0.0993813 -0.0011551 0)
(0.0994058 -0.00109625 0)
(0.0994303 -0.00103967 0)
(0.0994547 -0.00098529 0)
(0.0994791 -0.000933069 0)
(0.0995033 -0.000882949 0)
(0.0995272 -0.000834877 0)
(0.0998703 -0.00499272 0)
(0.0997948 -0.00486298 0)
(0.099724 -0.00473295 0)
(0.0996579 -0.00460284 0)
(0.0995963 -0.00447287 0)
(0.0995393 -0.00434324 0)
(0.0994867 -0.00421415 0)
(0.0994385 -0.00408581 0)
(0.0993946 -0.00395839 0)
(0.0993548 -0.00383206 0)
(0.0993192 -0.00370701 0)
(0.0992876 -0.00358337 0)
(0.0992598 -0.00346129 0)
(0.0992357 -0.0033409 0)
(0.0992153 -0.0032223 0)
(0.0991983 -0.00310558 0)
(0.0991847 -0.00299086 0)
(0.0991744 -0.00287821 0)
(0.0991671 -0.00276775 0)
(0.0991628 -0.00265958 0)
(0.0991613 -0.00255382 0)
(0.0991624 -0.00245061 0)
(0.0991661 -0.00235006 0)
(0.099172 -0.00225225 0)
(0.0991802 -0.00215726 0)
(0.0991904 -0.00206511 0)
(0.0992024 -0.00197579 0)
(0.099216 -0.00188928 0)
(0.0992312 -0.00180553 0)
(0.0992477 -0.00172447 0)
(0.0992654 -0.00164606 0)
(0.0992842 -0.00157024 0)
(0.0993039 -0.00149695 0)
(0.0993244 -0.00142615 0)
(0.0993456 -0.0013578 0)
(0.0993673 -0.00129185 0)
(0.0993894 -0.00122826 0)
(0.0994119 -0.00116697 0)
(0.0994346 -0.00110796 0)
(0.0994574 -0.00105117 0)
(0.0994803 -0.000996558 0)
(0.0995031 -0.000944068 0)
(0.0995259 -0.000893655 0)
(0.0995485 -0.000845268 0)
(0.100003 -0.00490968 0)
(0.0999256 -0.00478629 0)
(0.0998525 -0.00466238 0)
(0.0997839 -0.00453814 0)
(0.0997198 -0.0044138 0)
(0.09966 -0.00428955 0)
(0.0996046 -0.0041656 0)
(0.0995535 -0.00404214 0)
(0.0995065 -0.00391935 0)
(0.0994637 -0.00379741 0)
(0.0994249 -0.00367649 0)
(0.09939 -0.00355676 0)
(0.0993589 -0.00343835 0)
(0.0993316 -0.00332139 0)
(0.0993078 -0.003206 0)
(0.0992876 -0.0030923 0)
(0.0992707 -0.00298036 0)
(0.0992571 -0.00287031 0)
(0.0992465 -0.00276224 0)
(0.099239 -0.00265628 0)
(0.0992343 -0.00255255 0)
(0.0992324 -0.00245117 0)
(0.099233 -0.00235228 0)
(0.099236 -0.00225596 0)
(0.0992412 -0.00216228 0)
(0.0992485 -0.00207129 0)
(0.0992577 -0.00198298 0)
(0.0992687 -0.00189734 0)
(0.0992813 -0.00181432 0)
(0.0992953 -0.00173388 0)
(0.0993106 -0.00165597 0)
(0.099327 -0.00158054 0)
(0.0993445 -0.00150755 0)
(0.0993628 -0.00143697 0)
(0.0993819 -0.00136875 0)
(0.0994016 -0.00130287 0)
(0.0994218 -0.00123928 0)
(0.0994425 -0.00117794 0)
(0.0994635 -0.00111883 0)
(0.0994846 -0.00106189 0)
(0.0995059 -0.00100709 0)
(0.0995273 -0.000954382 0)
(0.0995486 -0.000903722 0)
(0.0995698 -0.000855064 0)
(0.100129 -0.00482478 0)
(0.10005 -0.00470757 0)
(0.099975 -0.00458962 0)
(0.0999043 -0.00447114 0)
(0.0998379 -0.00435232 0)
(0.0997758 -0.00423338 0)
(0.0997178 -0.00411449 0)
(0.0996641 -0.00399587 0)
(0.0996144 -0.00387768 0)
(0.0995687 -0.00376011 0)
(0.099527 -0.00364334 0)
(0.0994892 -0.00352751 0)
(0.0994551 -0.00341279 0)
(0.0994247 -0.0032993 0)
(0.0993979 -0.00318717 0)
(0.0993746 -0.00307651 0)
(0.0993546 -0.00296743 0)
(0.0993379 -0.00286003 0)
(0.0993243 -0.00275443 0)
(0.0993137 -0.00265074 0)
(0.0993061 -0.0025491 0)
(0.0993011 -0.00244964 0)
(0.0992988 -0.00235248 0)
(0.0992989 -0.00225772 0)
(0.0993013 -0.00216545 0)
(0.0993059 -0.0020757 0)
(0.0993125 -0.00198848 0)
(0.0993208 -0.00190379 0)
(0.0993309 -0.00182158 0)
(0.0993424 -0.00174184 0)
(0.0993554 -0.0016645 0)
(0.0993696 -0.00158955 0)
(0.0993848 -0.00151694 0)
(0.099401 -0.00144664 0)
(0.0994181 -0.00137863 0)
(0.0994359 -0.00131288 0)
(0.0994542 -0.00124935 0)
(0.0994731 -0.00118802 0)
(0.0994924 -0.00112886 0)
(0.0995119 -0.00107183 0)
(0.0995317 -0.00101689 0)
(0.0995515 -0.000964015 0)
(0.0995714 -0.000913154 0)
(0.0995913 -0.000864269 0)
(0.100249 -0.00473836 0)
(0.100168 -0.00462715 0)
(0.100092 -0.00451502 0)
(0.100019 -0.00440216 0)
(0.0999508 -0.00428876 0)
(0.0998866 -0.00417502 0)
(0.0998264 -0.00406113 0)
(0.0997703 -0.00394727 0)
(0.0997182 -0.00383364 0)
(0.09967 -0.00372042 0)
(0.0996256 -0.00360777 0)
(0.0995851 -0.00349585 0)
(0.0995483 -0.00338482 0)
(0.0995151 -0.00327482 0)
(0.0994854 -0.00316598 0)
(0.0994592 -0.0030584 0)
(0.0994364 -0.00295221 0)
(0.0994168 -0.00284751 0)
(0.0994003 -0.00274443 0)
(0.0993869 -0.00264307 0)
(0.0993763 -0.00254359 0)
(0.0993686 -0.00244611 0)
(0.0993635 -0.00235076 0)
(0.0993609 -0.00225764 0)
(0.0993606 -0.00216684 0)
(0.0993625 -0.00207841 0)
(0.0993665 -0.00199236 0)
(0.0993724 -0.00190869 0)
(0.09938 -0.00182738 0)
(0.0993892 -0.00174839 0)
(0.0993998 -0.00167171 0)
(0.0994118 -0.0015973 0)
(0.0994249 -0.00152514 0)
(0.0994391 -0.00145519 0)
(0.0994542 -0.00138745 0)
(0.09947 -0.00132189 0)
(0.0994866 -0.00125849 0)
(0.0995037 -0.00119723 0)
(0.0995213 -0.00113807 0)
(0.0995392 -0.001081 0)
(0.0995574 -0.00102598 0)
(0.0995758 -0.000972975 0)
(0.0995943 -0.000921956 0)
(0.0996129 -0.000872885 0)
(0.100362 -0.00465077 0)
(0.10028 -0.00454539 0)
(0.100202 -0.00443891 0)
(0.100128 -0.00433152 0)
(0.100058 -0.0042234 0)
(0.0999925 -0.00411476 0)
(0.0999304 -0.00400577 0)
(0.0998722 -0.00389662 0)
(0.0998179 -0.00378749 0)
(0.0997674 -0.00367856 0)
(0.0997207 -0.00357001 0)
(0.0996777 -0.00346198 0)
(0.0996384 -0.00335464 0)
(0.0996026 -0.00324814 0)
(0.0995703 -0.00314259 0)
(0.0995415 -0.00303812 0)
(0.0995159 -0.00293485 0)
(0.0994936 -0.0028329 0)
(0.0994745 -0.00273237 0)
(0.0994583 -0.0026334 0)
(0.0994451 -0.00253613 0)
(0.0994347 -0.00244069 0)
(0.0994269 -0.0023472 0)
(0.0994217 -0.00225579 0)
(0.0994189 -0.00216653 0)
(0.0994183 -0.00207948 0)
(0.0994198 -0.00199467 0)
(0.0994233 -0.00191209 0)
(0.0994285 -0.00183174 0)
(0.0994354 -0.0017536 0)
(0.0994439 -0.00167763 0)
(0.0994537 -0.00160383 0)
(0.0994647 -0.00153218 0)
(0.0994769 -0.00146265 0)
(0.09949 -0.00139524 0)
(0.099504 -0.00132993 0)
(0.0995188 -0.00126671 0)
(0.0995342 -0.00120557 0)
(0.0995501 -0.00114647 0)
(0.0995665 -0.00108941 0)
(0.0995832 -0.00103435 0)
(0.0996001 -0.000981266 0)
(0.0996172 -0.000930133 0)
(0.0996344 -0.000880916 0)
(0.100469 -0.00456232 0)
(0.100386 -0.00446257 0)
(0.100307 -0.00436157 0)
(0.100232 -0.0042595 0)
(0.100161 -0.00415654 0)
(0.100094 -0.00405287 0)
(0.10003 -0.00394868 0)
(0.0999699 -0.00384415 0)
(0.0999137 -0.00373946 0)
(0.0998612 -0.00363477 0)
(0.0998124 -0.00353027 0)
(0.0997671 -0.0034261 0)
(0.0997255 -0.00332244 0)
(0.0996874 -0.00321942 0)
(0.0996527 -0.00311717 0)
(0.0996213 -0.00301583 0)
(0.0995933 -0.0029155 0)
(0.0995685 -0.00281631 0)
(0.0995468 -0.00271838 0)
(0.0995281 -0.00262184 0)
(0.0995123 -0.00252682 0)
(0.0994994 -0.00243346 0)
(0.0994891 -0.0023419 0)
(0.0994814 -0.00225225 0)
(0.0994761 -0.00216459 0)
(0.0994731 -0.00207899 0)
(0.0994723 -0.00199547 0)
(0.0994734 -0.00191406 0)
(0.0994764 -0.00183473 0)
(0.0994811 -0.00175749 0)
(0.0994874 -0.00168231 0)
(0.0994952 -0.00160918 0)
(0.0995042 -0.00153809 0)
(0.0995144 -0.00146904 0)
(0.0995257 -0.00140202 0)
(0.0995379 -0.00133702 0)
(0.0995509 -0.00127404 0)
(0.0995645 -0.00121306 0)
(0.0995788 -0.00115408 0)
(0.0995936 -0.00109707 0)
(0.0996088 -0.00104201 0)
(0.0996243 -0.000988897 0)
(0.0996401 -0.000937691 0)
(0.099656 -0.000888368 0)
(0.10057 -0.00447329 0)
(0.100487 -0.00437897 0)
(0.100407 -0.00428327 0)
(0.100331 -0.00418636 0)
(0.100259 -0.00408842 0)
(0.10019 -0.00398961 0)
(0.100125 -0.00389011 0)
(0.100063 -0.0037901 0)
(0.100006 -0.00368976 0)
(0.0999513 -0.00358925 0)
(0.0999005 -0.00348875 0)
(0.0998533 -0.00338841 0)
(0.0998096 -0.0032884 0)
(0.0997693 -0.00318884 0)
(0.0997324 -0.00308989 0)
(0.0996988 -0.00299167 0)
(0.0996684 -0.0028943 0)
(0.0996413 -0.00279789 0)
(0.0996172 -0.00270258 0)
(0.0995961 -0.00260849 0)
(0.099578 -0.00251576 0)
(0.0995626 -0.00242454 0)
(0.09955 -0.00233495 0)
(0.0995399 -0.0022471 0)
(0.0995323 -0.0021611 0)
(0.099527 -0.002077 0)
(0.0995239 -0.00199484 0)
(0.0995228 -0.00191464 0)
(0.0995237 -0.0018364 0)
(0.0995263 -0.00176012 0)
(0.0995305 -0.00168578 0)
(0.0995362 -0.00161338 0)
(0.0995433 -0.00154292 0)
(0.0995516 -0.0014744 0)
(0.099561 -0.00140782 0)
(0.0995714 -0.00134318 0)
(0.0995827 -0.00128049 0)
(0.0995947 -0.00121973 0)
(0.0996074 -0.0011609 0)
(0.0996207 -0.00110399 0)
(0.0996344 -0.00104899 0)
(0.0996485 -0.000995876 0)
(0.0996629 -0.000944637 0)
(0.0996775 -0.000895245 0)
(0.100665 -0.00438394 0)
(0.100582 -0.00429486 0)
(0.100502 -0.00420428 0)
(0.100425 -0.00411237 0)
(0.100352 -0.00401928 0)
(0.100282 -0.00392519 0)
(0.100216 -0.00383027 0)
(0.100153 -0.00373469 0)
(0.100094 -0.00363861 0)
(0.100038 -0.00354221 0)
(0.0999852 -0.00344565 0)
(0.0999362 -0.00334909 0)
(0.0998906 -0.00325268 0)
(0.0998484 -0.00315657 0)
(0.0998095 -0.0030609 0)
(0.0997738 -0.0029658 0)
(0.0997413 -0.00287138 0)
(0.099712 -0.00277776 0)
(0.0996857 -0.00268509 0)
(0.0996624 -0.00259348 0)
(0.099642 -0.00250307 0)
(0.0996244 -0.00241401 0)
(0.0996095 -0.00232642 0)
(0.0995972 -0.00224043 0)
(0.0995874 -0.00215612 0)
(0.0995799 -0.00207358 0)
(0.0995746 -0.00199283 0)
(0.0995714 -0.0019139 0)
(0.0995702 -0.0018368 0)
(0.0995707 -0.00176152 0)
(0.0995729 -0.00168808 0)
(0.0995767 -0.00161646 0)
(0.0995819 -0.00154668 0)
(0.0995884 -0.00147875 0)
(0.099596 -0.00141266 0)
(0.0996047 -0.00134843 0)
(0.0996143 -0.00128607 0)
(0.0996247 -0.00122557 0)
(0.0996358 -0.00116695 0)
(0.0996476 -0.00111018 0)
(0.0996599 -0.00105527 0)
(0.0996726 -0.00100221 0)
(0.0996856 -0.000950977 0)
(0.0996989 -0.000901555 0)
(0.100754 -0.00429451 0)
(0.100671 -0.00421047 0)
(0.100591 -0.00412482 0)
(0.100514 -0.00403773 0)
(0.10044 -0.00394936 0)
(0.100369 -0.00385985 0)
(0.100302 -0.00376938 0)
(0.100238 -0.00367811 0)
(0.100178 -0.00358621 0)
(0.10012 -0.00349383 0)
(0.100067 -0.00340114 0)
(0.100016 -0.0033083 0)
(0.0999687 -0.00321546 0)
(0.0999247 -0.00312276 0)
(0.099884 -0.00303035 0)
(0.0998464 -0.00293834 0)
(0.0998119 -0.00284687 0)
(0.0997806 -0.00275605 0)
(0.0997522 -0.00266602 0)
(0.0997269 -0.0025769 0)
(0.0997044 -0.00248883 0)
(0.0996847 -0.00240196 0)
(0.0996676 -0.00231641 0)
(0.0996532 -0.00223231 0)
(0.0996413 -0.00214974 0)
(0.0996317 -0.00206879 0)
(0.0996244 -0.0019895 0)
(0.0996191 -0.00191189 0)
(0.0996159 -0.00183597 0)
(0.0996145 -0.00176176 0)
(0.0996148 -0.00168926 0)
(0.0996167 -0.00161847 0)
(0.09962 -0.00154942 0)
(0.0996247 -0.00148211 0)
(0.0996306 -0.00141657 0)
(0.0996376 -0.0013528 0)
(0.0996456 -0.00129081 0)
(0.0996544 -0.00123063 0)
(0.099664 -0.00117224 0)
(0.0996743 -0.00111567 0)
(0.0996851 -0.00106089 0)
(0.0996964 -0.00100791 0)
(0.0997082 -0.000956719 0)
(0.0997202 -0.000907301 0)
(0.100839 -0.0042052 0)
(0.100756 -0.004126 0)
(0.100675 -0.00404511 0)
(0.100598 -0.00396267 0)
(0.100524 -0.00387885 0)
(0.100453 -0.00379378 0)
(0.100385 -0.00370764 0)
(0.10032 -0.00362057 0)
(0.100258 -0.00353274 0)
(0.1002 -0.00344429 0)
(0.100145 -0.0033554 0)
(0.100093 -0.00326622 0)
(0.100044 -0.00317689 0)
(0.0999983 -0.00308756 0)
(0.0999559 -0.00299837 0)
(0.0999166 -0.00290944 0)
(0.0998803 -0.0028209 0)
(0.0998471 -0.00273287 0)
(0.0998169 -0.00264548 0)
(0.0997896 -0.00255886 0)
(0.0997651 -0.00247315 0)
(0.0997434 -0.00238848 0)
(0.0997244 -0.002305 0)
(0.099708 -0.00222282 0)
(0.099694 -0.00214203 0)
(0.0996825 -0.00206271 0)
(0.0996732 -0.00198491 0)
(0.099666 -0.00190866 0)
(0.0996608 -0.00183397 0)
(0.0996576 -0.00176087 0)
(0.099656 -0.00168935 0)
(0.0996561 -0.00161944 0)
(0.0996577 -0.00155116 0)
(0.0996606 -0.00148453 0)
(0.0996648 -0.00141957 0)
(0.0996702 -0.00135629 0)
(0.0996765 -0.00129473 0)
(0.0996838 -0.0012349 0)
(0.0996919 -0.0011768 0)
(0.0997007 -0.00112045 0)
(0.0997102 -0.00106584 0)
(0.0997201 -0.00101298 0)
(0.0997305 -0.000961871 0)
(0.0997413 -0.000912492 0)
(0.100918 -0.00411622 0)
(0.100835 -0.00404165 0)
(0.100755 -0.00396532 0)
(0.100678 -0.00388737 0)
(0.100603 -0.00380794 0)
(0.100532 -0.00372718 0)
(0.100463 -0.00364522 0)
(0.100398 -0.00356224 0)
(0.100335 -0.00347837 0)
(0.100276 -0.00339377 0)
(0.100219 -0.00330859 0)
(0.100166 -0.003223 0)
(0.100116 -0.00313712 0)
(0.100069 -0.00305111 0)
(0.100025 -0.0029651 0)
(0.0999844 -0.00287922 0)
(0.0999465 -0.00279359 0)
(0.0999116 -0.00270834 0)
(0.0998796 -0.00262358 0)
(0.0998505 -0.00253946 0)
(0.0998242 -0.00245611 0)
(0.0998007 -0.00237367 0)
(0.0997798 -0.00229227 0)
(0.0997615 -0.00221203 0)
(0.0997456 -0.00213305 0)
(0.0997322 -0.00205539 0)
(0.099721 -0.00197912 0)
(0.099712 -0.00190427 0)
(0.099705 -0.00183085 0)
(0.0996999 -0.00175889 0)
(0.0996966 -0.0016884 0)
(0.0996949 -0.00161941 0)
(0.0996948 -0.00155194 0)
(0.099696 -0.00148602 0)
(0.0996986 -0.00142168 0)
(0.0997023 -0.00135895 0)
(0.0997071 -0.00129785 0)
(0.0997129 -0.0012384 0)
(0.0997195 -0.00118063 0)
(0.0997269 -0.00112454 0)
(0.0997349 -0.00107014 0)
(0.0997436 -0.00101744 0)
(0.0997527 -0.000966441 0)
(0.0997623 -0.000917133 0)
(0.100993 -0.00402774 0)
(0.10091 -0.0039576 0)
(0.10083 -0.00388565 0)
(0.100753 -0.00381201 0)
(0.100678 -0.00373681 0)
(0.100607 -0.0036602 0)
(0.100538 -0.0035823 0)
(0.100472 -0.00350327 0)
(0.100409 -0.00342326 0)
(0.100348 -0.00334241 0)
(0.100291 -0.00326086 0)
(0.100237 -0.00317878 0)
(0.100186 -0.00309629 0)
(0.100138 -0.00301355 0)
(0.100092 -0.00293068 0)
(0.10005 -0.00284781 0)
(0.100011 -0.00276506 0)
(0.0999741 -0.00268256 0)
(0.0999405 -0.00260043 0)
(0.0999097 -0.0025188 0)
(0.0998817 -0.00243781 0)
(0.0998564 -0.0023576 0)
(0.0998338 -0.0022783 0)
(0.0998137 -0.00220002 0)
(0.0997961 -0.00212286 0)
(0.0997808 -0.0020469 0)
(0.0997679 -0.00197219 0)
(0.0997571 -0.00189876 0)
(0.0997483 -0.00182664 0)
(0.0997415 -0.00175586 0)
(0.0997364 -0.00168644 0)
(0.0997331 -0.0016184 0)
(0.0997313 -0.00155178 0)
(0.0997309 -0.00148662 0)
(0.0997319 -0.00142294 0)
(0.099734 -0.00136078 0)
(0.0997373 -0.00130018 0)
(0.0997416 -0.00124116 0)
(0.0997468 -0.00118374 0)
(0.0997527 -0.00112795 0)
(0.0997594 -0.0010738 0)
(0.0997668 -0.00102129 0)
(0.0997746 -0.000970435 0)
(0.099783 -0.000921232 0)
(0.101063 -0.0039399 0)
(0.100981 -0.00387401 0)
(0.100901 -0.00380625 0)
(0.100824 -0.00373674 0)
(0.10075 -0.00366562 0)
(0.100678 -0.003593 0)
(0.100609 -0.00351903 0)
(0.100542 -0.00344384 0)
(0.100479 -0.00336756 0)
(0.100418 -0.00329036 0)
(0.10036 -0.00321235 0)
(0.100305 -0.0031337 0)
(0.100253 -0.00305454 0)
(0.100203 -0.002975 0)
(0.100157 -0.00289521 0)
(0.100113 -0.00281531 0)
(0.100073 -0.00273541 0)
(0.100035 -0.00265564 0)
(0.0999995 -0.00257611 0)
(0.0999672 -0.00249697 0)
(0.0999376 -0.00241834 0)
(0.0999107 -0.00234036 0)
(0.0998864 -0.00226316 0)
(0.0998647 -0.00218685 0)
(0.0998454 -0.00211154 0)
(0.0998284 -0.00203729 0)
(0.0998138 -0.00196416 0)
(0.0998013 -0.00189219 0)
(0.0997908 -0.0018214 0)
(0.0997823 -0.00175183 0)
(0.0997756 -0.0016835 0)
(0.0997706 -0.00161645 0)
(0.0997672 -0.00155072 0)
(0.0997653 -0.00148634 0)
(0.0997647 -0.00142335 0)
(0.0997653 -0.00136181 0)
(0.0997671 -0.00130174 0)
(0.0997699 -0.00124318 0)
(0.0997737 -0.00118616 0)
(0.0997783 -0.0011307 0)
(0.0997837 -0.00107682 0)
(0.0997897 -0.00102454 0)
(0.0997963 -0.000973862 0)
(0.0998034 -0.000924794 0)
(0.101128 -0.00385286 0)
(0.101047 -0.00379101 0)
(0.100968 -0.00372726 0)
(0.100892 -0.00366172 0)
(0.100817 -0.0035945 0)
(0.100746 -0.00352574 0)
(0.100676 -0.00345555 0)
(0.10061 -0.00338407 0)
(0.100546 -0.00331142 0)
(0.100484 -0.00323775 0)
(0.100426 -0.00316319 0)
(0.10037 -0.00308789 0)
(0.100317 -0.00301197 0)
(0.100267 -0.00293558 0)
(0.100219 -0.00285883 0)
(0.100174 -0.00278185 0)
(0.100132 -0.00270476 0)
(0.100093 -0.00262768 0)
(0.100057 -0.00255073 0)
(0.100023 -0.00247405 0)
(0.099992 -0.00239777 0)
(0.0999636 -0.00232202 0)
(0.0999378 -0.00224692 0)
(0.0999144 -0.0021726 0)
(0.0998936 -0.00209914 0)
(0.099875 -0.00202662 0)
(0.0998587 -0.00195509 0)
(0.0998446 -0.0018846 0)
(0.0998326 -0.00181517 0)
(0.0998225 -0.00174684 0)
(0.0998142 -0.00167963 0)
(0.0998076 -0.0016136 0)
(0.0998026 -0.00154877 0)
(0.0997991 -0.00148521 0)
(0.099797 -0.00142296 0)
(0.0997962 -0.00136206 0)
(0.0997965 -0.00130255 0)
(0.0997979 -0.00124449 0)
(0.0998003 -0.00118789 0)
(0.0998035 -0.0011328 0)
(0.0998076 -0.00107923 0)
(0.0998123 -0.0010272 0)
(0.0998177 -0.00097673 0)
(0.0998236 -0.000927826 0)
(0.10119 -0.00376672 0)
(0.10111 -0.00370872 0)
(0.101031 -0.0036488 0)
(0.100955 -0.00358706 0)
(0.100881 -0.0035236 0)
(0.10081 -0.00345854 0)
(0.100741 -0.00339199 0)
(0.100674 -0.00332409 0)
(0.10061 -0.00325495 0)
(0.100548 -0.00318471 0)
(0.100489 -0.00311351 0)
(0.100433 -0.00304147 0)
(0.100379 -0.00296872 0)
(0.100328 -0.00289539 0)
(0.100279 -0.00282162 0)
(0.100233 -0.00274751 0)
(0.10019 -0.00267319 0)
(0.10015 -0.00259877 0)
(0.100112 -0.00252438 0)
(0.100077 -0.00245014 0)
(0.100045 -0.00237619 0)
(0.100015 -0.00230265 0)
(0.0999879 -0.00222966 0)
(0.0999631 -0.00215732 0)
(0.0999407 -0.00208572 0)
(0.0999206 -0.00201494 0)
(0.0999028 -0.00194504 0)
(0.0998871 -0.00187604 0)
(0.0998735 -0.00180798 0)
(0.0998619 -0.00174091 0)
(0.099852 -0.00167485 0)
(0.0998439 -0.00160986 0)
(0.0998374 -0.00154598 0)
(0.0998324 -0.00148326 0)
(0.0998289 -0.00142176 0)
(0.0998266 -0.00136154 0)
(0.0998255 -0.00130263 0)
(0.0998255 -0.00124509 0)
(0.0998265 -0.00118895 0)
(0.0998284 -0.00113425 0)
(0.0998312 -0.00108102 0)
(0.0998347 -0.00102928 0)
(0.0998388 -0.000979045 0)
(0.0998436 -0.000930336 0)
(0.101248 -0.0036816 0)
(0.101169 -0.00362727 0)
(0.101091 -0.003571 0)
(0.101016 -0.00351289 0)
(0.100942 -0.00345302 0)
(0.100871 -0.00339151 0)
(0.100802 -0.00332848 0)
(0.100735 -0.00326402 0)
(0.100671 -0.00319828 0)
(0.100609 -0.00313136 0)
(0.100549 -0.00306341 0)
(0.100493 -0.00299454 0)
(0.100438 -0.00292488 0)
(0.100386 -0.00285456 0)
(0.100337 -0.00278369 0)
(0.100291 -0.0027124 0)
(0.100247 -0.0026408 0)
(0.100205 -0.002569 0)
(0.100166 -0.00249713 0)
(0.10013 -0.00242531 0)
(0.100096 -0.00235367 0)
(0.100065 -0.00228233 0)
(0.100037 -0.00221144 0)
(0.100011 -0.00214108 0)
(0.0999867 -0.00207134 0)
(0.0999652 -0.00200231 0)
(0.099946 -0.00193403 0)
(0.0999288 -0.00186654 0)
(0.0999137 -0.00179988 0)
(0.0999006 -0.00173408 0)
(0.0998893 -0.0016692 0)
(0.0998797 -0.00160527 0)
(0.0998717 -0.00154235 0)
(0.0998653 -0.00148051 0)
(0.0998602 -0.00141979 0)
(0.0998565 -0.00136027 0)
(0.099854 -0.00130198 0)
(0.0998527 -0.001245 0)
(0.0998523 -0.00118934 0)
(0.099853 -0.00113507 0)
(0.0998544 -0.00108221 0)
(0.0998567 -0.00103078 0)
(0.0998597 -0.000980817 0)
(0.0998633 -0.000932329 0)
(0.105876 -0.0096493 0)
(0.105407 -0.00961791 0)
(0.104956 -0.00956088 0)
(0.104522 -0.00948057 0)
(0.104108 -0.00937942 0)
(0.103713 -0.00925988 0)
(0.103337 -0.00912439 0)
(0.102981 -0.00897526 0)
(0.102644 -0.00881466 0)
(0.102327 -0.00864458 0)
(0.102029 -0.0084668 0)
(0.101749 -0.00828293 0)
(0.101487 -0.0080944 0)
(0.101243 -0.00790246 0)
(0.101015 -0.00770822 0)
(0.100804 -0.00751266 0)
(0.100608 -0.00731664 0)
(0.100427 -0.00712094 0)
(0.100259 -0.00692623 0)
(0.100105 -0.00673309 0)
(0.0999639 -0.00654204 0)
(0.0998342 -0.00635353 0)
(0.0997156 -0.00616795 0)
(0.0996074 -0.00598562 0)
(0.0995091 -0.00580681 0)
(0.0994199 -0.00563176 0)
(0.0993392 -0.00546063 0)
(0.105891 -0.00918566 0)
(0.105447 -0.00916979 0)
(0.105018 -0.00912933 0)
(0.104605 -0.00906638 0)
(0.104208 -0.00898319 0)
(0.103829 -0.008882 0)
(0.103467 -0.00876508 0)
(0.103124 -0.00863458 0)
(0.102797 -0.00849252 0)
(0.102489 -0.00834076 0)
(0.102198 -0.00818098 0)
(0.101924 -0.00801471 0)
(0.101667 -0.00784327 0)
(0.101426 -0.00766788 0)
(0.101201 -0.00748959 0)
(0.100991 -0.00730935 0)
(0.100796 -0.007128 0)
(0.100615 -0.00694628 0)
(0.100447 -0.00676486 0)
(0.100291 -0.00658433 0)
(0.100148 -0.00640521 0)
(0.100016 -0.00622796 0)
(0.0998943 -0.00605298 0)
(0.0997831 -0.00588062 0)
(0.0996815 -0.00571116 0)
(0.0995887 -0.00554485 0)
(0.0995043 -0.00538191 0)
(0.105892 -0.00874725 0)
(0.105472 -0.00874479 0)
(0.105064 -0.00871878 0)
(0.104671 -0.00867112 0)
(0.104292 -0.00860386 0)
(0.103928 -0.00851909 0)
(0.10358 -0.0084189 0)
(0.103249 -0.00830528 0)
(0.102933 -0.00818013 0)
(0.102634 -0.00804517 0)
(0.10235 -0.00790199 0)
(0.102083 -0.00775201 0)
(0.101831 -0.00759649 0)
(0.101594 -0.00743656 0)
(0.101372 -0.00727324 0)
(0.101164 -0.00710743 0)
(0.10097 -0.00693993 0)
(0.100789 -0.00677148 0)
(0.100621 -0.00660273 0)
(0.100465 -0.00643425 0)
(0.10032 -0.00626658 0)
(0.100186 -0.00610017 0)
(0.100063 -0.00593544 0)
(0.0999493 -0.00577273 0)
(0.0998449 -0.00561237 0)
(0.0997492 -0.00545461 0)
(0.0996616 -0.00529967 0)
(0.105882 -0.00833272 0)
(0.105484 -0.00834176 0)
(0.105097 -0.00832829 0)
(0.104722 -0.00829404 0)
(0.10436 -0.0082409 0)
(0.104012 -0.00817079 0)
(0.103677 -0.00808565 0)
(0.103358 -0.00798733 0)
(0.103053 -0.00787758 0)
(0.102762 -0.00775802 0)
(0.102487 -0.00763012 0)
(0.102226 -0.00749521 0)
(0.10198 -0.00735448 0)
(0.101747 -0.00720899 0)
(0.101529 -0.00705969 0)
(0.101323 -0.00690745 0)
(0.101131 -0.00675304 0)
(0.100951 -0.00659716 0)
(0.100783 -0.00644045 0)
(0.100627 -0.00628348 0)
(0.100482 -0.00612677 0)
(0.100347 -0.00597077 0)
(0.100222 -0.00581591 0)
(0.100106 -0.00566254 0)
(0.0999997 -0.00551099 0)
(0.0999015 -0.00536155 0)
(0.0998112 -0.00521444 0)
(0.105861 -0.00794075 0)
(0.105484 -0.00795956 0)
(0.105117 -0.00795692 0)
(0.10476 -0.00793441 0)
(0.104414 -0.00789375 0)
(0.104081 -0.00783672 0)
(0.10376 -0.0077651 0)
(0.103452 -0.00768061 0)
(0.103157 -0.00758489 0)
(0.102876 -0.00747942 0)
(0.102609 -0.00736559 0)
(0.102355 -0.00724461 0)
(0.102114 -0.00711761 0)
(0.101886 -0.00698557 0)
(0.101672 -0.0068494 0)
(0.101469 -0.00670991 0)
(0.101279 -0.00656784 0)
(0.101101 -0.00642385 0)
(0.100934 -0.00627857 0)
(0.100778 -0.00613255 0)
(0.100633 -0.00598631 0)
(0.100497 -0.00584029 0)
(0.100371 -0.00569492 0)
(0.100254 -0.00555056 0)
(0.100146 -0.00540755 0)
(0.100046 -0.00526617 0)
(0.0999533 -0.00512667 0)
(0.105832 -0.0075701 0)
(0.105475 -0.00759714 0)
(0.105126 -0.00760379 0)
(0.104786 -0.0075915 0)
(0.104456 -0.00756183 0)
(0.104137 -0.00751643 0)
(0.103829 -0.00745695 0)
(0.103532 -0.00738498 0)
(0.103248 -0.00730201 0)
(0.102976 -0.00720944 0)
(0.102717 -0.00710854 0)
(0.10247 -0.00700044 0)
(0.102235 -0.00688617 0)
(0.102013 -0.00676667 0)
(0.101802 -0.00664277 0)
(0.101603 -0.00651523 0)
(0.101416 -0.00638477 0)
(0.10124 -0.00625202 0)
(0.101074 -0.00611757 0)
(0.100919 -0.00598196 0)
(0.100774 -0.0058457 0)
(0.100638 -0.00570922 0)
(0.100511 -0.00557296 0)
(0.100394 -0.00543727 0)
(0.100284 -0.00530249 0)
(0.100182 -0.00516892 0)
(0.100088 -0.00503682 0)
(0.105795 -0.00721958 0)
(0.105456 -0.00725346 0)
(0.105125 -0.00726803 0)
(0.104801 -0.00726458 0)
(0.104486 -0.00724457 0)
(0.104181 -0.00720951 0)
(0.103885 -0.0071609 0)
(0.103601 -0.00710022 0)
(0.103327 -0.00702886 0)
(0.103064 -0.00694808 0)
(0.102812 -0.00685905 0)
(0.102572 -0.00676283 0)
(0.102344 -0.00666038 0)
(0.102127 -0.00655253 0)
(0.101921 -0.00644009 0)
(0.101726 -0.00632377 0)
(0.101541 -0.00620423 0)
(0.101367 -0.00608207 0)
(0.101204 -0.00595787 0)
(0.10105 -0.00583214 0)
(0.100905 -0.00570538 0)
(0.10077 -0.00557802 0)
(0.100643 -0.00545047 0)
(0.100525 -0.0053231 0)
(0.100414 -0.00519626 0)
(0.100311 -0.00507023 0)
(0.100216 -0.00494529 0)
(0.105751 -0.00688804 0)
(0.10543 -0.00692754 0)
(0.105116 -0.00694878 0)
(0.104808 -0.00695296 0)
(0.104507 -0.00694139 0)
(0.104215 -0.00691548 0)
(0.103931 -0.0068766 0)
(0.103657 -0.00682612 0)
(0.103393 -0.00676528 0)
(0.10314 -0.00669528 0)
(0.102896 -0.00661717 0)
(0.102664 -0.00653192 0)
(0.102441 -0.0064404 0)
(0.10223 -0.0063434 0)
(0.102028 -0.00624165 0)
(0.101837 -0.00613582 0)
(0.101656 -0.00602653 0)
(0.101485 -0.00591436 0)
(0.101323 -0.00579984 0)
(0.101171 -0.00568347 0)
(0.101027 -0.00556574 0)
(0.100892 -0.00544706 0)
(0.100766 -0.00532784 0)
(0.100647 -0.00520846 0)
(0.100537 -0.00508924 0)
(0.100433 -0.00497048 0)
(0.100336 -0.00485246 0)
(0.105701 -0.00657439 0)
(0.105397 -0.00661842 0)
(0.105098 -0.00664523 0)
(0.104805 -0.00665593 0)
(0.104518 -0.00665172 0)
(0.104239 -0.00663389 0)
(0.103967 -0.00660371 0)
(0.103704 -0.00656241 0)
(0.10345 -0.00651114 0)
(0.103205 -0.00645098 0)
(0.10297 -0.00638289 0)
(0.102744 -0.00630775 0)
(0.102528 -0.00622635 0)
(0.102322 -0.00613943 0)
(0.102125 -0.00604765 0)
(0.101938 -0.00595164 0)
(0.101761 -0.00585197 0)
(0.101593 -0.00574918 0)
(0.101433 -0.0056438 0)
(0.101283 -0.00553629 0)
(0.101141 -0.00542712 0)
(0.101007 -0.00531671 0)
(0.100881 -0.00520544 0)
(0.100763 -0.00509369 0)
(0.100652 -0.00498178 0)
(0.100548 -0.00487002 0)
(0.10045 -0.00475867 0)
(0.105646 -0.00627757 0)
(0.105358 -0.00632517 0)
(0.105074 -0.00635658 0)
(0.104795 -0.00637281 0)
(0.104521 -0.006375 0)
(0.104254 -0.0063643 0)
(0.103994 -0.00634187 0)
(0.103741 -0.00630885 0)
(0.103496 -0.00626626 0)
(0.10326 -0.00621508 0)
(0.103033 -0.00615618 0)
(0.102814 -0.00609036 0)
(0.102605 -0.00601833 0)
(0.102404 -0.00594077 0)
(0.102213 -0.00585828 0)
(0.10203 -0.00577143 0)
(0.101857 -0.00568077 0)
(0.101691 -0.00558681 0)
(0.101535 -0.00549003 0)
(0.101386 -0.00539089 0)
(0.101246 -0.00528984 0)
(0.101113 -0.00518728 0)
(0.100988 -0.00508358 0)
(0.100871 -0.00497912 0)
(0.10076 -0.00487421 0)
(0.100656 -0.00476916 0)
(0.100558 -0.00466424 0)
(0.105586 -0.00599658 0)
(0.105313 -0.00604691 0)
(0.105044 -0.00608206 0)
(0.104778 -0.00610297 0)
(0.104516 -0.00611068 0)
(0.104261 -0.00610625 0)
(0.104011 -0.00609075 0)
(0.103769 -0.00606516 0)
(0.103534 -0.00603045 0)
(0.103306 -0.00598747 0)
(0.103087 -0.005937 0)
(0.102875 -0.00587976 0)
(0.102672 -0.0058164 0)
(0.102478 -0.00574751 0)
(0.102291 -0.00567366 0)
(0.102113 -0.00559537 0)
(0.101943 -0.00551314 0)
(0.101782 -0.00542746 0)
(0.101628 -0.00533878 0)
(0.101482 -0.00524754 0)
(0.101343 -0.00515416 0)
(0.101212 -0.00505904 0)
(0.101088 -0.00496255 0)
(0.100971 -0.00486503 0)
(0.100861 -0.00476681 0)
(0.100757 -0.00466819 0)
(0.100659 -0.00456945 0)
(0.105522 -0.00573048 0)
(0.105263 -0.0057828 0)
(0.105007 -0.00582094 0)
(0.104754 -0.00584578 0)
(0.104505 -0.00585825 0)
(0.10426 -0.00585934 0)
(0.104022 -0.00584999 0)