/*--------------------------------*- C++ -*----------------------------------*\
| =========                 |                                                 |
| \\      /  F ield         | OpenFOAM: The Open Source CFD Toolbox           |
|  \\    /   O peration     | Version:  2412                                  |
|   \\  /    A nd           | Website:  www.openfoam.com                      |
|    \\/     M anipulation  |                                                 |
\*---------------------------------------------------------------------------*/
FoamFile
{
    version     2.0;
    format      ascii;
    arch        "LSB;label=32;scalar=64";
    class       surfaceScalarField;
    location    "10";
    object      phi;
}
// * * * * * * * * * * * * * * * * * * * * * * * * * * * * * * * * * * * * * //

dimensions      [0 3 -1 0 0 0 0];

oriented        oriented;

internalField   nonuniform List<scalar> 
10424
(
0.00526824
-8.65763e-05
0.00526959
-8.33144e-05
0.0052709
-8.01107e-05
0.00527218
-7.69665e-05
0.00527343
-7.38828e-05
0.00527463
-7.08604e-05
0.00527581
-6.79003e-05
0.00527694
-6.50034e-05
0.00527804
-6.21704e-05
0.0052791
-5.94022e-05
0.00528012
-5.66992e-05
0.0052811
-5.40623e-05
0.00528204
-5.1492e-05
0.00528295
-4.89886e-05
0.00528381
-4.65529e-05
0.00528464
-4.41851e-05
0.00528543
-4.18855e-05
0.00528618
-3.96546e-05
0.00528689
-3.74925e-05
0.00528756
-3.53994e-05
0.00528821
-3.33753e-05
0.00528881
-3.14204e-05
0.00528938
-2.95346e-05
0.00528992
-2.77178e-05
0.00529042
-2.59698e-05
0.00529089
-2.42906e-05
0.00529134
-2.26797e-05
0.00529175
-2.1137e-05
0.00529213
-1.9662e-05
0.00529249
-1.82544e-05
-1.69135e-05
0.00526919
-8.78869e-05
0.00527047
-8.45988e-05
0.00527173
-8.13669e-05
0.00527295
-7.81928e-05
0.00527415
-7.50776e-05
0.00527531
-7.20225e-05
0.00527644
-6.90286e-05
0.00527753
-6.6097e-05
0.00527859
-6.32285e-05
0.00527961
-6.04241e-05
0.0052806
-5.76846e-05
0.00528155
-5.50107e-05
0.00528246
-5.24033e-05
0.00528333
-4.98628e-05
0.00528417
-4.73899e-05
0.00528497
-4.49851e-05
0.00528573
-4.26489e-05
0.00528646
-4.03817e-05
0.00528715
-3.81837e-05
0.00528781
-3.60553e-05
0.00528843
-3.39966e-05
0.00528902
-3.20077e-05
0.00528957
-3.00887e-05
0.00529009
-2.82395e-05
0.00529058
-2.64601e-05
0.00529104
-2.47502e-05
0.00529147
-2.31097e-05
0.00529187
-2.15383e-05
0.00529225
-2.00357e-05
0.00529259
-1.86015e-05
0.00529292
-1.72353e-05
0.00529321
-1.59365e-05
0.00529349
-1.47048e-05
0.00529374
-1.35395e-05
0.00529397
-1.244e-05
0.00529418
-1.14058e-05
0.00529437
-1.04363e-05
0.00529455
-9.53108e-06
0.00529471
-8.68983e-06
0.00529485
-7.91227e-06
0.00529498
-7.19834e-06
0.0052951
-6.54808e-06
0.00529521
-5.96186e-06
0.0052953
-5.44037e-06
0.00529539
-4.98456e-06
0.00529547
-4.59605e-06
0.00529555
-4.27675e-06
0.00529562
-4.02988e-06
0.00529568
-3.85849e-06
0.00529575
-3.76928e-06
0.00529581
-3.76431e-06
0.00529588
-3.86197e-06
0.00529595
-4.0484e-06
0.00529603
-4.38837e-06
0.00529612
-4.78853e-06
0.00529623
-5.48754e-06
0.00529634
-6.08397e-06
0.00529649
-7.39824e-06
0.00529665
-8.05465e-06
0.00529687
-1.0498e-05
0.00529708
-1.08862e-05
0.00529744
-1.52597e-05
0.00529772
-1.50354e-05
0.00529827
-2.19759e-05
0.0052987
-2.1688e-05
0.00529953
-3.01028e-05
0.00530026
-3.34221e-05
0.0053014
-3.71551e-05
0.00530293
-5.25593e-05
0.00530441
-4.50751e-05
-5.68048e-05
0.00527014
-8.91347e-05
0.00527136
-8.58236e-05
0.00527256
-8.25668e-05
0.00527374
-7.93658e-05
0.00527488
-7.62221e-05
0.005276
-7.31371e-05
0.00527708
-7.0112e-05
0.00527813
-6.71482e-05
0.00527915
-6.42466e-05
0.00528013
-6.14083e-05
0.00528108
-5.86344e-05
0.005282
-5.59257e-05
0.00528288
-5.3283e-05
0.00528372
-5.07072e-05
0.00528453
-4.8199e-05
0.00528531
-4.57589e-05
0.00528604
-4.33877e-05
0.00528675
-4.10857e-05
0.00528742
-3.88533e-05
0.00528805
-3.6691e-05
0.00528866
-3.45989e-05
0.00528923
-3.25773e-05
0.00528976
-3.06262e-05
0.00529027
-2.87457e-05
0.00529074
-2.69358e-05
0.00529119
-2.51963e-05
0.00529161
-2.3527e-05
0.005292
-2.19279e-05
0.00529236
-2.03985e-05
0.0052927
-1.89385e-05
0.00529301
-1.75476e-05
0.0052933
-1.62252e-05
0.00529356
-1.49708e-05
0.00529381
-1.3784e-05
0.00529403
-1.26641e-05
0.00529424
-1.16107e-05
0.00529443
-1.06231e-05
0.00529459
-9.70098e-06
0.00529475
-8.84394e-06
0.00529489
-8.05174e-06
0.00529501
-7.32437e-06
0.00529513
-6.66187e-06
0.00529523
-6.06461e-06
0.00529532
-5.53333e-06
0.00529541
-5.06899e-06
0.00529549
-4.67326e-06
0.00529556
-4.34808e-06
0.00529562
-4.09677e-06
0.00529569
-3.92244e-06
0.00529575
-3.83196e-06
0.00529581
-3.82736e-06
0.00529588
-3.92757e-06
0.00529595
-4.11812e-06
0.00529603
-4.46592e-06
0.00529611
-4.87405e-06
0.00529621
-5.58968e-06
0.00529633
-6.19592e-06
0.00529647
-7.54463e-06
0.00529662
-8.2047e-06
0.00529685
-1.0721e-05
0.00529705
-1.10874e-05
0.0052974
-1.56106e-05
0.00529767
-1.53101e-05
0.00529822
-2.25275e-05
0.00529863
-2.2094e-05
0.00529947
-3.09427e-05
0.00530018
-3.41275e-05
0.00530134
-3.83241e-05
0.00530286
-5.40764e-05
0.00530437
-4.65797e-05
-5.95263e-05
0.0052711
-9.03197e-05
0.00527227
-8.69889e-05
0.00527341
-8.37102e-05
0.00527453
-8.04854e-05
0.00527562
-7.73161e-05
0.00527669
-7.42039e-05
0.00527773
-7.11503e-05
0.00527874
-6.81567e-05
0.00527971
-6.52244e-05
0.00528066
-6.23545e-05
0.00528158
-5.95483e-05
0.00528246
-5.68068e-05
0.0052833
-5.4131e-05
0.00528412
-5.15217e-05
0.0052849
-4.89799e-05
0.00528565
-4.65063e-05
0.00528636
-4.41015e-05
0.00528704
-4.17663e-05
0.00528769
-3.9501e-05
0.0052883
-3.73061e-05
0.00528889
-3.51819e-05
0.00528944
-3.31288e-05
0.00528996
-3.11468e-05
0.00529045
-2.92361e-05
0.00529091
-2.73967e-05
0.00529134
-2.56286e-05
0.00529175
-2.39316e-05
0.00529213
-2.23055e-05
0.00529248
-2.07501e-05
0.0052928
-1.92652e-05
0.00529311
-1.78502e-05
0.00529339
-1.65049e-05
0.00529364
-1.52285e-05
0.00529388
-1.40209e-05
0.0052941
-1.28812e-05
0.0052943
-1.18091e-05
0.00529448
-1.08039e-05
0.00529464
-9.86527e-06
0.00529479
-8.99285e-06
0.00529492
-8.18641e-06
0.00529505
-7.44594e-06
0.00529516
-6.77153e-06
0.00529525
-6.16353e-06
0.00529534
-5.62272e-06
0.00529543
-5.15009e-06
0.0052955
-4.74734e-06
0.00529557
-4.41647e-06
0.00529563
-4.16084e-06
0.00529569
-3.98368e-06
0.00529575
-3.892e-06
0.00529581
-3.88779e-06
0.00529588
-3.99055e-06
0.00529594
-4.18516e-06
0.00529602
-4.5407e-06
0.0052961
-4.95658e-06
0.0052962
-5.68877e-06
0.00529631
-6.30426e-06
0.00529645
-7.68758e-06
0.0052966
-8.34999e-06
0.00529682
-1.09403e-05
0.00529701
-1.12819e-05
0.00529736
-1.59581e-05
0.00529762
-1.55748e-05
0.00529817
-2.30774e-05
0.00529856
-2.24839e-05
0.00529941
-3.17893e-05
0.00530009
-3.4805e-05
0.00530129
-3.95232e-05
0.00530278
-5.55752e-05
0.00530431
-4.81031e-05
-6.24045e-05
0.00527207
-9.14419e-05
0.00527318
-8.80947e-05
0.00527426
-8.47972e-05
0.00527533
-8.15514e-05
0.00527637
-7.83594e-05
0.00527739
-7.52227e-05
0.00527838
-7.21431e-05
0.00527935
-6.91223e-05
0.00528029
-6.61616e-05
0.0052812
-6.32625e-05
0.00528207
-6.04262e-05
0.00528292
-5.76539e-05
0.00528374
-5.49468e-05
0.00528452
-5.23059e-05
0.00528527
-4.97323e-05
0.00528599
-4.72268e-05
0.00528668
-4.47902e-05
0.00528734
-4.24232e-05
0.00528796
-4.01264e-05
0.00528856
-3.79003e-05
0.00528912
-3.57454e-05
0.00528966
-3.3662e-05
0.00529016
-3.16503e-05
0.00529063
-2.97105e-05
0.00529108
-2.78427e-05
0.0052915
-2.60469e-05
0.00529189
-2.4323e-05
0.00529225
-2.2671e-05
0.00529259
-2.10905e-05
0.00529291
-1.95813e-05
0.0052932
-1.81431e-05
0.00529347
-1.67755e-05
0.00529372
-1.54779e-05
0.00529395
-1.425e-05
0.00529416
-1.30911e-05
0.00529435
-1.20008e-05
0.00529453
-1.09785e-05
0.00529469
-1.00238e-05
0.00529483
-9.13648e-06
0.00529496
-8.3162e-06
0.00529508
-7.563e-06
0.00529518
-6.877e-06
0.00529528
-6.25856e-06
0.00529536
-5.70849e-06
0.00529544
-5.22781e-06
0.00529551
-4.81825e-06
0.00529558
-4.48184e-06
0.00529564
-4.22204e-06
0.0052957
-4.04215e-06
0.00529576
-3.94935e-06
0.00529581
-3.94555e-06
0.00529587
-4.05086e-06
0.00529594
-4.24945e-06
0.00529601
-4.61267e-06
0.00529609
-5.03606e-06
0.00529619
-5.78474e-06
0.00529629
-6.40893e-06
0.00529643
-7.827e-06
0.00529657
-8.49042e-06
0.00529679
-1.11557e-05
0.00529697
-1.14694e-05
0.00529732
-1.63019e-05
0.00529757
-1.5829e-05
0.00529812
-2.36255e-05
0.00529849
-2.28573e-05
0.00529935
-3.26428e-05
0.00529999
-3.54521e-05
0.00530122
-4.07552e-05
0.0053027
-5.70491e-05
0.00530424
-4.96424e-05
-6.54487e-05
0.00527305
-9.25016e-05
0.00527409
-8.91411e-05
0.00527512
-8.58277e-05
0.00527614
-8.2564e-05
0.00527713
-7.93519e-05
0.0052781
-7.61934e-05
0.00527905
-7.30905e-05
0.00527997
-7.00448e-05
0.00528087
-6.70581e-05
0.00528174
-6.41319e-05
0.00528258
-6.12676e-05
0.00528339
-5.84666e-05
0.00528417
-5.57302e-05
0.00528493
-5.30596e-05
0.00528565
-5.0456e-05
0.00528634
-4.79203e-05
0.00528701
-4.54534e-05
0.00528764
-4.30562e-05
0.00528824
-4.07294e-05
0.00528882
-3.84735e-05
0.00528936
-3.62891e-05
0.00528987
-3.41767e-05
0.00529036
-3.21364e-05
0.00529082
-3.01687e-05
0.00529125
-2.82735e-05
0.00529165
-2.64511e-05
0.00529203
-2.47013e-05
0.00529239
-2.30241e-05
0.00529271
-2.14194e-05
0.00529302
-1.98868e-05
0.0052933
-1.84261e-05
0.00529356
-1.70369e-05
0.0052938
-1.57187e-05
0.00529403
-1.44711e-05
0.00529423
-1.32936e-05
0.00529441
-1.21857e-05
0.00529458
-1.11468e-05
0.00529473
-1.01766e-05
0.00529487
-9.27474e-06
0.005295
-8.44101e-06
0.00529511
-7.67545e-06
0.00529521
-6.9782e-06
0.0052953
-6.34962e-06
0.00529538
-5.79057e-06
0.00529546
-5.30208e-06
0.00529553
-4.88592e-06
0.00529559
-4.54416e-06
0.00529565
-4.28033e-06
0.0052957
-4.09781e-06
0.00529576
-4.00396e-06
0.00529581
-4.0006e-06
0.00529587
-4.10845e-06
0.00529593
-4.31095e-06
0.005296
-4.68178e-06
0.00529608
-5.11243e-06
0.00529617
-5.87752e-06
0.00529627
-6.50986e-06
0.00529641
-7.9628e-06
0.00529654
-8.6259e-06
0.00529675
-1.13672e-05
0.00529693
-1.16498e-05
0.00529727
-1.66419e-05
0.00529752
-1.60726e-05
0.00529806
-2.41715e-05
0.00529842
-2.32134e-05
0.00529928
-3.35031e-05
0.00529989
-3.60663e-05
0.00530116
-4.20233e-05
0.0053026
-5.84911e-05
0.00530416
-5.1194e-05
-6.86689e-05
0.00527403
-9.34989e-05
0.00527502
-9.01281e-05
0.00527599
-8.68019e-05
0.00527695
-8.3523e-05
0.00527789
-8.02936e-05
0.00527881
-7.7116e-05
0.00527972
-7.39921e-05
0.00528059
-7.09241e-05
0.00528145
-6.79136e-05
0.00528228
-6.49625e-05
0.00528309
-6.20724e-05
0.00528386
-5.92447e-05
0.00528461
-5.6481e-05
0.00528534
-5.37826e-05
0.00528603
-5.11506e-05
0.0052867
-4.85864e-05
0.00528734
-4.60909e-05
0.00528794
-4.3665e-05
0.00528853
-4.13096e-05
0.00528908
-3.90253e-05
0.0052896
-3.68128e-05
0.0052901
-3.46726e-05
0.00529057
-3.2605e-05
0.00529101
-3.06104e-05
0.00529142
-2.8689e-05
0.00529181
-2.68409e-05
0.00529218
-2.50662e-05
0.00529252
-2.33648e-05
0.00529283
-2.17366e-05
0.00529313
-2.01814e-05
0.0052934
-1.8699e-05
0.00529365
-1.72889e-05
0.00529389
-1.59508e-05
0.0052941
-1.46843e-05
0.00529429
-1.34887e-05
0.00529447
-1.23637e-05
0.00529463
-1.13088e-05
0.00529478
-1.03235e-05
0.00529491
-9.40753e-06
0.00529503
-8.56077e-06
0.00529514
-7.78321e-06
0.00529524
-7.07505e-06
0.00529533
-6.43665e-06
0.0052954
-5.86889e-06
0.00529548
-5.37284e-06
0.00529554
-4.95029e-06
0.0052956
-4.60337e-06
0.00529565
-4.33565e-06
0.00529571
-4.15061e-06
0.00529576
-4.05578e-06
0.00529581
-4.05289e-06
0.00529587
-4.16327e-06
0.00529592
-4.36961e-06
0.00529599
-4.74795e-06
0.00529606
-5.18565e-06
0.00529615
-5.96705e-06
0.00529625
-6.60697e-06
0.00529638
-8.09492e-06
0.00529651
-8.75634e-06
0.00529672
-1.15746e-05
0.00529689
-1.1823e-05
0.00529723
-1.69779e-05
0.00529746
-1.63052e-05
0.00529801
-2.47153e-05
0.00529834
-2.35518e-05
0.00529921
-3.43704e-05
0.00529979
-3.66446e-05
0.0053011
-4.33313e-05
0.0053025
-5.98929e-05
0.00530406
-5.27535e-05
-7.20758e-05
0.00527502
-9.44341e-05
0.00527594
-9.1056e-05
0.00527686
-8.77199e-05
0.00527777
-8.44286e-05
0.00527866
-8.11846e-05
0.00527953
-7.79903e-05
0.00528039
-7.48481e-05
0.00528122
-7.176e-05
0.00528204
-6.87281e-05
0.00528283
-6.57543e-05
0.0052836
-6.28404e-05
0.00528434
-5.99881e-05
0.00528506
-5.7199e-05
0.00528575
-5.44745e-05
0.00528642
-5.18161e-05
0.00528706
-4.9225e-05
0.00528767
-4.67025e-05
0.00528825
-4.42495e-05
0.00528881
-4.18669e-05
0.00528934
-3.95557e-05
0.00528984
-3.73163e-05
0.00529032
-3.51496e-05
0.00529077
-3.30559e-05
0.0052912
-3.10355e-05
0.0052916
-2.90889e-05
0.00529197
-2.72162e-05
0.00529232
-2.54175e-05
0.00529265
-2.36928e-05
0.00529296
-2.2042e-05
0.00529324
-2.04651e-05
0.0052935
-1.89617e-05
0.00529375
-1.75315e-05
0.00529397
-1.61741e-05
0.00529417
-1.48892e-05
0.00529436
-1.36763e-05
0.00529453
-1.25348e-05
0.00529469
-1.14643e-05
0.00529483
-1.04644e-05
0.00529496
-9.53479e-06
0.00529507
-8.67541e-06
0.00529517
-7.88623e-06
0.00529527
-7.16751e-06
0.00529535
-6.51959e-06
0.00529542
-5.94341e-06
0.00529549
-5.44005e-06
0.00529555
-5.01133e-06
0.00529561
-4.65942e-06
0.00529566
-4.38795e-06
0.00529571
-4.20051e-06
0.00529576
-4.10476e-06
0.00529581
-4.10237e-06
0.00529586
-4.21528e-06
0.00529592
-4.42538e-06
0.00529598
-4.81116e-06
0.00529605
-5.25565e-06
0.00529614
-6.05327e-06
0.00529623
-6.7002e-06
0.00529636
-8.22326e-06
0.00529648
-8.88163e-06
0.00529669
-1.17778e-05
0.00529685
-1.19889e-05
0.00529718
-1.73098e-05
0.0052974
-1.65267e-05
0.00529795
-2.52566e-05
0.00529827
-2.38719e-05
0.00529914
-3.52446e-05
0.00529968
-3.71843e-05
0.00530103
-4.4683e-05
0.00530238
-6.12453e-05
0.00530395
-5.4316e-05
-7.56804e-05
0.005276
-9.53076e-05
0.00527687
-9.19251e-05
0.00527774
-8.85818e-05
0.00527859
-8.52808e-05
0.00527943
-8.20248e-05
0.00528025
-7.88165e-05
0.00528106
-7.56582e-05
0.00528186
-7.25525e-05
0.00528263
-6.95014e-05
0.00528338
-6.65071e-05
0.00528411
-6.35716e-05
0.00528482
-6.06966e-05
0.00528551
-5.78839e-05
0.00528617
-5.51353e-05
0.0052868
-5.24521e-05
0.00528742
-4.98359e-05
0.005288
-4.7288e-05
0.00528856
-4.48093e-05
0.00528909
-4.24011e-05
0.0052896
-4.00642e-05
0.00529009
-3.77995e-05
0.00529054
-3.56074e-05
0.00529098
-3.34888e-05
0.00529139
-3.14439e-05
0.00529177
-2.94731e-05
0.00529213
-2.75768e-05
0.00529247
-2.5755e-05
0.00529278
-2.4008e-05
0.00529308
-2.23355e-05
0.00529335
-2.07377e-05
0.0052936
-1.92141e-05
0.00529383
-1.77645e-05
0.00529405
-1.63886e-05
0.00529425
-1.5086e-05
0.00529443
-1.38562e-05
0.00529459
-1.26987e-05
0.00529474
-1.16132e-05
0.00529487
-1.05992e-05
0.005295
-9.65644e-06
0.0052951
-8.78485e-06
0.0052952
-7.98444e-06
0.00529529
-7.2555e-06
0.00529537
-6.59838e-06
0.00529544
-6.01407e-06
0.0052955
-5.50365e-06
0.00529556
-5.06898e-06
0.00529561
-4.71227e-06
0.00529566
-4.43721e-06
0.00529571
-4.24746e-06
0.00529576
-4.15087e-06
0.0052958
-4.149e-06
0.00529585
-4.26444e-06
0.00529591
-4.47822e-06
0.00529597
-4.87135e-06
0.00529603
-5.32238e-06
0.00529612
-6.13611e-06
0.0052962
-6.78948e-06
0.00529633
-8.34775e-06
0.00529645
-9.00169e-06
0.00529665
-1.19768e-05
0.00529681
-1.21471e-05
0.00529713
-1.76374e-05
0.00529734
-1.67368e-05
0.00529788
-2.5795e-05
0.00529818
-2.41731e-05
0.00529906
-3.61257e-05
0.00529956
-3.76824e-05
0.00530096
-4.60828e-05
0.00530226
-6.25382e-05
0.00530381
-5.58755e-05
-7.94935e-05
0.00527699
-9.61198e-05
0.0052778
-9.27357e-05
0.00527861
-8.9388e-05
0.00527941
-8.60799e-05
0.0052802
-8.28145e-05
0.00528098
-7.95945e-05
0.00528174
-7.64227e-05
0.00528249
-7.33016e-05
0.00528322
-7.02336e-05
0.00528394
-6.72209e-05
0.00528463
-6.42657e-05
0.0052853
-6.137e-05
0.00528596
-5.85358e-05
0.00528659
-5.57648e-05
0.00528719
-5.30586e-05
0.00528778
-5.0419e-05
0.00528833
-4.78471e-05
0.00528887
-4.53445e-05
0.00528938
-4.29121e-05
0.00528987
-4.05509e-05
0.00529033
-3.8262e-05
0.00529077
-3.6046e-05
0.00529118
-3.39036e-05
0.00529157
-3.18352e-05
0.00529194
-2.98415e-05
0.00529229
-2.79226e-05
0.00529261
-2.60788e-05
0.00529291
-2.43102e-05
0.0052932
-2.2617e-05
0.00529346
-2.0999e-05
0.0052937
-1.9456e-05
0.00529392
-1.79878e-05
0.00529413
-1.6594e-05
0.00529432
-1.52743e-05
0.00529449
-1.40283e-05
0.00529465
-1.28556e-05
0.00529479
-1.17555e-05
0.00529492
-1.07279e-05
0.00529503
-9.77241e-06
0.00529514
-8.88903e-06
0.00529523
-8.07778e-06
0.00529531
-7.33898e-06
0.00529539
-6.67298e-06
0.00529545
-6.08083e-06
0.00529551
-5.5636e-06
0.00529557
-5.1232e-06
0.00529562
-4.76188e-06
0.00529566
-4.48337e-06
0.00529571
-4.29143e-06
0.00529575
-4.19407e-06
0.0052958
-4.19276e-06
0.00529584
-4.31072e-06
0.00529589
-4.5281e-06
0.00529595
-4.92848e-06
0.00529601
-5.38581e-06
0.00529609
-6.21553e-06
0.00529618
-6.87477e-06
0.0052963
-8.46831e-06
0.00529641
-9.11645e-06
0.00529661
-1.21713e-05
0.00529676
-1.22978e-05
0.00529708
-1.79606e-05
0.00529728
-1.69354e-05
0.00529781
-2.63303e-05
0.0052981
-2.44551e-05
0.00529898
-3.70135e-05
0.00529944
-3.8136e-05
0.00530089
-4.75351e-05
0.00530211
-6.37612e-05
0.00530366
-5.74255e-05
-8.35259e-05
0.00527798
-9.68711e-05
0.00527873
-9.34882e-05
0.00527948
-9.01386e-05
0.00528023
-8.68261e-05
0.00528097
-8.35538e-05
0.0052817
-8.03246e-05
0.00528242
-7.71415e-05
0.00528312
-7.40073e-05
0.00528382
-7.09245e-05
0.00528449
-6.78955e-05
0.00528515
-6.49228e-05
0.00528579
-6.20084e-05
0.0052864
-5.91544e-05
0.005287
-5.63628e-05
0.00528758
-5.36355e-05
0.00528813
-5.0974e-05
0.00528867
-4.83799e-05
0.00528918
-4.58547e-05
0.00528966
-4.33995e-05
0.00529013
-4.10156e-05
0.00529057
-3.87038e-05
0.00529099
-3.64651e-05
0.00529139
-3.43001e-05
0.00529176
-3.22095e-05
0.00529211
-3.01938e-05
0.00529244
-2.82534e-05
0.00529275
-2.63885e-05
0.00529304
-2.45995e-05
0.00529331
-2.28863e-05
0.00529356
-2.1249e-05
0.00529379
-1.96874e-05
0.00529401
-1.82013e-05
0.0052942
-1.67903e-05
0.00529438
-1.54543e-05
0.00529455
-1.41927e-05
0.0052947
-1.30051e-05
0.00529483
-1.18911e-05
0.00529496
-1.08504e-05
0.00529507
-9.88265e-06
0.00529517
-8.98791e-06
0.00529525
-8.16621e-06
0.00529533
-7.4179e-06
0.0052954
-6.74335e-06
0.00529547
-6.14364e-06
0.00529552
-5.61988e-06
0.00529557
-5.17397e-06
0.00529562
-4.80822e-06
0.00529566
-4.52642e-06
0.0052957
-4.33239e-06
0.00529574
-4.23434e-06
0.00529578
-4.23361e-06
0.00529583
-4.35408e-06
0.00529587
-4.57497e-06
0.00529593
-4.98252e-06
0.00529599
-5.44591e-06
0.00529606
-6.29148e-06
0.00529615
-6.95602e-06
0.00529626
-8.5849e-06
0.00529637
-9.22583e-06
0.00529656
-1.23614e-05
0.0052967
-1.24407e-05
0.00529702
-1.82792e-05
0.00529721
-1.71221e-05
0.00529774
-2.68621e-05
0.005298
-2.47176e-05
0.0052989
-3.79077e-05
0.0052993
-3.85424e-05
0.00530081
-4.90441e-05
0.00530196
-6.49034e-05
0.00530349
-5.89591e-05
-8.7787e-05
0.00527897
-9.75622e-05
0.00527966
-9.41829e-05
0.00528036
-9.08342e-05
0.00528105
-8.75197e-05
0.00528174
-8.42428e-05
0.00528242
-8.10068e-05
0.00528309
-7.78148e-05
0.00528376
-7.46697e-05
0.00528441
-7.15742e-05
0.00528504
-6.85311e-05
0.00528566
-6.55427e-05
0.00528626
-6.26115e-05
0.00528685
-5.97397e-05
0.00528742
-5.69294e-05
0.00528796
-5.41825e-05
0.00528849
-5.15009e-05
0.005289
-4.88862e-05
0.00528948
-4.63399e-05
0.00528995
-4.38635e-05
0.00529039
-4.14581e-05
0.00529081
-3.91249e-05
0.00529121
-3.68647e-05
0.00529159
-3.46784e-05
0.00529194
-3.25666e-05
0.00529228
-3.05301e-05
0.0052926
-2.85691e-05
0.00529289
-2.66842e-05
0.00529317
-2.48756e-05
0.00529343
-2.31433e-05
0.00529366
-2.14876e-05
0.00529388
-1.99081e-05
0.00529409
-1.84049e-05
0.00529428
-1.69775e-05
0.00529445
-1.56258e-05
0.0052946
-1.43492e-05
0.00529475
-1.31475e-05
0.00529487
-1.202e-05
0.00529499
-1.09666e-05
0.0052951
-9.98713e-06
0.00529519
-9.08145e-06
0.00529527
-8.24969e-06
0.00529535
-7.49223e-06
0.00529541
-6.80947e-06
0.00529547
-6.20251e-06
0.00529552
-5.67245e-06
0.00529557
-5.22127e-06
0.00529561
-4.85128e-06
0.00529565
-4.56635e-06
0.00529569
-4.37034e-06
0.00529573
-4.27166e-06
0.00529577
-4.27154e-06
0.00529581
-4.39451e-06
0.00529585
-4.61884e-06
0.0052959
-5.03345e-06
0.00529596
-5.50264e-06
0.00529603
-6.36394e-06
0.00529611
-7.03318e-06
0.00529622
-8.69744e-06
0.00529633
-9.32978e-06
0.00529651
-1.25469e-05
0.00529665
-1.25757e-05
0.00529696
-1.8593e-05
0.00529714
-1.72969e-05
0.00529766
-2.73901e-05
0.00529791
-2.49601e-05
0.00529881
-3.88079e-05
0.00529916
-3.88992e-05
0.00530073
-5.06135e-05
0.00530178
-6.59544e-05
0.00530329
-6.0469e-05
-9.22844e-05
0.00527994
-9.81935e-05
0.00528058
-9.48205e-05
0.00528122
-9.1475e-05
0.00528186
-8.81609e-05
0.0052825
-8.48819e-05
0.00528314
-8.16414e-05
0.00528376
-7.84427e-05
0.00528438
-7.52888e-05
0.00528499
-7.21829e-05
0.00528559
-6.91276e-05
0.00528617
-6.61256e-05
0.00528674
-6.31795e-05
0.00528729
-6.02917e-05
0.00528783
-5.74644e-05
0.00528834
-5.46997e-05
0.00528884
-5.19996e-05
0.00528932
-4.93658e-05
0.00528978
-4.68e-05
0.00529022
-4.43038e-05
0.00529064
-4.18784e-05
0.00529104
-3.9525e-05
0.00529142
-3.72446e-05
0.00529178
-3.50382e-05
0.00529212
-3.29065e-05
0.00529244
-3.08501e-05
0.00529274
-2.88697e-05
0.00529303
-2.69657e-05
0.00529329
-2.51384e-05
0.00529353
-2.33881e-05
0.00529376
-2.17147e-05
0.00529397
-2.01182e-05
0.00529416
-1.85986e-05
0.00529434
-1.71555e-05
0.0052945
-1.57887e-05
0.00529465
-1.44978e-05
0.00529479
-1.32825e-05
0.00529491
-1.21422e-05
0.00529502
-1.10766e-05
0.00529512
-1.00858e-05
0.00529521
-9.16964e-06
0.00529529
-8.32822e-06
0.00529536
-7.56198e-06
0.00529542
-6.87133e-06
0.00529547
-6.2574e-06
0.00529552
-5.72133e-06
0.00529557
-5.2651e-06
0.00529561
-4.89107e-06
0.00529564
-4.60314e-06
0.00529568
-4.40527e-06
0.00529571
-4.30604e-06
0.00529575
-4.30656e-06
0.00529578
-4.43202e-06
0.00529582
-4.65968e-06
0.00529587
-5.08126e-06
0.00529593
-5.556e-06
0.00529599
-6.43287e-06
0.00529607
-7.10624e-06
0.00529618
-8.80591e-06
0.00529627
-9.42825e-06
0.00529646
-1.27278e-05
0.00529658
-1.27027e-05
0.00529689
-1.89019e-05
0.00529705
-1.74596e-05
0.00529758
-2.7914e-05
0.0052978
-2.51826e-05
0.00529871
-3.97133e-05
0.00529901
-3.92044e-05
0.00530064
-5.22461e-05
0.00530159
-6.69045e-05
0.00530307
-6.19479e-05
-9.70223e-05
0.00528091
-9.87657e-05
0.00528149
-9.54014e-05
0.00528208
-9.20615e-05
0.00528267
-8.87502e-05
0.00528326
-8.54714e-05
0.00528385
-8.22286e-05
0.00528443
-7.90254e-05
0.00528501
-7.58649e-05
0.00528557
-7.27505e-05
0.00528613
-6.96851e-05
0.00528668
-6.66715e-05
0.00528721
-6.37124e-05
0.00528773
-6.08104e-05
0.00528823
-5.79679e-05
0.00528872
-5.51871e-05
0.00528919
-5.24701e-05
0.00528964
-4.98188e-05
0.00529008
-4.72351e-05
0.00529049
-4.47204e-05
0.00529089
-4.22764e-05
0.00529127
-3.99041e-05
0.00529163
-3.76049e-05
0.00529197
-3.53795e-05
0.0052923
-3.3229e-05
0.0052926
-3.1154e-05
0.00529288
-2.91552e-05
0.00529315
-2.72331e-05
0.0052934
-2.53881e-05
0.00529363
-2.36205e-05
0.00529385
-2.19303e-05
0.00529405
-2.03177e-05
0.00529423
-1.87824e-05
0.0052944
-1.73243e-05
0.00529456
-1.59432e-05
0.0052947
-1.46386e-05
0.00529482
-1.34102e-05
0.00529494
-1.22575e-05
0.00529504
-1.11804e-05
0.00529514
-1.01787e-05
0.00529522
-9.25248e-06
0.00529529
-8.4018e-06
0.00529536
-7.62714e-06
0.00529542
-6.92893e-06
0.00529547
-6.30836e-06
0.00529551
-5.76653e-06
0.00529555
-5.30547e-06
0.00529559
-4.92759e-06
0.00529562
-4.63683e-06
0.00529565
-4.4372e-06
0.00529569
-4.33749e-06
0.00529572
-4.33867e-06
0.00529575
-4.4666e-06
0.00529579
-4.69753e-06
0.00529584
-5.12595e-06
0.00529589
-5.606e-06
0.00529595
-6.49829e-06
0.00529602
-7.1752e-06
0.00529612
-8.91029e-06
0.00529622
-9.52124e-06
0.00529639
-1.2904e-05
0.00529651
-1.28218e-05
0.00529682
-1.92058e-05
0.00529697
-1.76101e-05
0.00529749
-2.84334e-05
0.00529769
-2.53851e-05
0.0052986
-4.0623e-05
0.00529885
-3.9457e-05
0.00530055
-5.39434e-05
0.00530139
-6.7746e-05
0.00530283
-6.33887e-05
-0.000102001
0.00528187
-9.92794e-05
0.0052824
-9.59261e-05
0.00528293
-9.25941e-05
0.00528347
-8.92879e-05
0.00528401
-8.60115e-05
0.00528455
-8.27687e-05
0.00528509
-7.9563e-05
0.00528562
-7.63981e-05
0.00528615
-7.32773e-05
0.00528667
-7.02037e-05
0.00528717
-6.71804e-05
0.00528767
-6.42102e-05
0.00528816
-6.12959e-05
0.00528863
-5.84399e-05
0.00528909
-5.56447e-05
0.00528953
-5.29124e-05
0.00528996
-5.02452e-05
0.00529037
-4.76449e-05
0.00529076
-4.51134e-05
0.00529113
-4.2652e-05
0.00529149
-4.02623e-05
0.00529183
-3.79454e-05
0.00529216
-3.57024e-05
0.00529246
-3.35341e-05
0.00529275
-3.14416e-05
0.00529302
-2.94254e-05
0.00529327
-2.74862e-05
0.00529351
-2.56245e-05
0.00529373
-2.38405e-05
0.00529393
-2.21345e-05
0.00529412
-2.05064e-05
0.00529429
-1.89562e-05
0.00529445
-1.74839e-05
0.0052946
-1.6089e-05
0.00529473
-1.47714e-05
0.00529485
-1.35306e-05
0.00529496
-1.23661e-05
0.00529506
-1.12779e-05
0.00529515
-1.02659e-05
0.00529522
-9.33e-06
0.00529529
-8.47047e-06
0.00529535
-7.68776e-06
0.00529541
-6.98233e-06
0.00529545
-6.3554e-06
0.0052955
-5.80809e-06
0.00529553
-5.34244e-06
0.00529557
-4.96088e-06
0.0052956
-4.66745e-06
0.00529563
-4.46618e-06
0.00529565
-4.36606e-06
0.00529568
-4.36793e-06
0.00529571
-4.49832e-06
0.00529575
-4.73241e-06
0.00529579
-5.16757e-06
0.00529584
-5.65267e-06
0.0052959
-6.56021e-06
0.00529596
-7.24009e-06
0.00529607
-9.01058e-06
0.00529615
-9.60874e-06
0.00529632
-1.30755e-05
0.00529644
-1.29329e-05
0.00529673
-1.95046e-05
0.00529687
-1.77485e-05
0.00529739
-2.89478e-05
0.00529757
-2.55675e-05
0.00529848
-4.1536e-05
0.00529868
-3.96567e-05
0.00530044
-5.57047e-05
0.00530117
-6.8474e-05
0.00530257
-6.47852e-05
-0.000107213
0.00528282
-9.97352e-05
0.00528329
-9.63952e-05
0.00528377
-9.30734e-05
0.00528426
-8.97745e-05
0.00528475
-8.65026e-05
0.00528524
-8.32619e-05
0.00528573
-8.0056e-05
0.00528623
-7.68886e-05
0.00528671
-7.37634e-05
0.00528719
-7.06836e-05
0.00528766
-6.76525e-05
0.00528813
-6.46731e-05
0.00528858
-6.17481e-05
0.00528902
-5.88804e-05
0.00528945
-5.60724e-05
0.00528986
-5.33265e-05
0.00529026
-5.06449e-05
0.00529065
-4.80297e-05
0.00529101
-4.54826e-05
0.00529137
-4.30054e-05
0.00529171
-4.05995e-05
0.00529203
-3.82662e-05
0.00529233
-3.60067e-05
0.00529262
-3.3822e-05
0.00529289
-3.1713e-05
0.00529314
-2.96805e-05
0.00529338
-2.77252e-05
0.00529361
-2.58476e-05
0.00529381
-2.40482e-05
0.00529401
-2.23271e-05
0.00529419
-2.06845e-05
0.00529435
-1.91202e-05
0.0052945
-1.76343e-05
0.00529464
-1.62264e-05
0.00529476
-1.48964e-05
0.00529487
-1.36437e-05
0.00529498
-1.24681e-05
0.00529507
-1.13693e-05
0.00529515
-1.03473e-05
0.00529522
-9.40227e-06
0.00529529
-8.53427e-06
0.00529534
-7.74389e-06
0.00529539
-7.03158e-06
0.00529543
-6.39859e-06
0.00529547
-5.84606e-06
0.00529551
-5.37605e-06
0.00529554
-4.99103e-06
0.00529556
-4.69506e-06
0.00529559
-4.49226e-06
0.00529562
-4.3918e-06
0.00529564
-4.39439e-06
0.00529567
-4.52721e-06
0.0052957
-4.76439e-06
0.00529574
-5.20617e-06
0.00529578
-5.69606e-06
0.00529584
-6.61869e-06
0.0052959
-7.30095e-06
0.005296
-9.1068e-06
0.00529608
-9.69081e-06
0.00529625
-1.32423e-05
0.00529635
-1.30359e-05
0.00529665
-1.97982e-05
0.00529677
-1.78746e-05
0.00529728
-2.9457e-05
0.00529744
-2.57303e-05
0.00529836
-4.24507e-05
0.00529851
-3.98045e-05
0.00530033
-5.75266e-05
0.00530094
-6.90868e-05
0.00530229
-6.61324e-05
-0.000112646
0.00528376
-0.000100134
0.00528417
-9.68092e-05
0.0052846
-9.34997e-05
0.00528504
-9.02103e-05
0.00528548
-8.69451e-05
0.00528592
-8.37085e-05
0.00528637
-8.05044e-05
0.00528682
-7.73367e-05
0.00528727
-7.4209e-05
0.00528771
-7.1125e-05
0.00528814
-6.80879e-05
0.00528857
-6.5101e-05
0.00528899
-6.21673e-05
0.0052894
-5.92896e-05
0.0052898
-5.64705e-05
0.00529018
-5.37126e-05
0.00529056
-5.10181e-05
0.00529092
-4.83894e-05
0.00529126
-4.58283e-05
0.00529159
-4.33366e-05
0.00529191
-4.09158e-05
0.00529221
-3.85674e-05
0.0052925
-3.62926e-05
0.00529277
-3.40925e-05
0.00529302
-3.19682e-05
0.00529326
-2.99204e-05
0.00529349
-2.795e-05
0.0052937
-2.60576e-05
0.00529389
-2.42437e-05
0.00529407
-2.25084e-05
0.00529424
-2.08519e-05
0.0052944
-1.92744e-05
0.00529454
-1.77756e-05
0.00529467
-1.63554e-05
0.00529478
-1.50136e-05
0.00529489
-1.37497e-05
0.00529498
-1.25634e-05
0.00529507
-1.14546e-05
0.00529515
-1.04232e-05
0.00529521
-9.46936e-06
0.00529527
-8.59332e-06
0.00529532
-7.79563e-06
0.00529537
-7.07678e-06
0.00529541
-6.43804e-06
0.00529544
-5.88056e-06
0.00529547
-5.40641e-06
0.0052955
-5.0181e-06
0.00529553
-4.71976e-06
0.00529555
-4.51554e-06
0.00529557
-4.41481e-06
0.0052956
-4.41814e-06
0.00529562
-4.55338e-06
0.00529565
-4.79354e-06
0.00529569
-5.24183e-06
0.00529573
-5.73627e-06
0.00529578
-6.67379e-06
0.00529584
-7.35787e-06
0.00529593
-9.19903e-06
0.00529601
-9.76749e-06
0.00529617
-1.34044e-05
0.00529626
-1.3131e-05
0.00529655
-2.00866e-05
0.00529667
-1.79886e-05
0.00529717
-2.99607e-05
0.00529731
-2.58737e-05
0.00529823
-4.33652e-05
0.00529833
-3.99026e-05
0.0053002
-5.9403e-05
0.0053007
-6.95871e-05
0.005302
-6.74265e-05
-0.000118278
0.00528468
-0.000100476
0.00528504
-9.71686e-05
0.00528542
-9.38736e-05
0.0052858
-9.05957e-05
0.0052862
-8.73394e-05
0.0052866
-8.4109e-05
0.005287
-8.09087e-05
0.00528741
-7.77426e-05
0.00528781
-7.46144e-05
0.00528822
-7.1528e-05
0.00528861
-6.84869e-05
0.00528901
-6.54944e-05
0.00528939
-6.25536e-05
0.00528977
-5.96675e-05
0.00529014
-5.6839e-05
0.0052905
-5.40706e-05
0.00529085
-5.13649e-05
0.00529118
-4.87241e-05
0.0052915
-4.61504e-05
0.00529181
-4.36456e-05
0.00529211
-4.12113e-05
0.00529239
-3.88491e-05
0.00529266
-3.65602e-05
0.00529291
-3.43459e-05
0.00529315
-3.22073e-05
0.00529337
-3.01453e-05
0.00529358
-2.81608e-05
0.00529378
-2.62545e-05
0.00529396
-2.44269e-05
0.00529413
-2.26783e-05
0.00529429
-2.10089e-05
0.00529444
-1.94188e-05
0.00529457
-1.79079e-05
0.00529469
-1.64761e-05
0.0052948
-1.51231e-05
0.0052949
-1.38486e-05
0.00529499
-1.26522e-05
0.00529507
-1.15339e-05
0.00529514
-1.04935e-05
0.0052952
-9.53139e-06
0.00529525
-8.64772e-06
0.0052953
-7.8431e-06
0.00529534
-7.11804e-06
0.00529538
-6.47385e-06
0.00529541
-5.91168e-06
0.00529544
-5.43363e-06
0.00529546
-5.04223e-06
0.00529548
-4.74167e-06
0.0052955
-4.53614e-06
0.00529552
-4.43521e-06
0.00529554
-4.4393e-06
0.00529557
-4.57693e-06
0.00529559
-4.81999e-06
0.00529563
-5.27466e-06
0.00529566
-5.77339e-06
0.00529572
-6.72563e-06
0.00529577
-7.41093e-06
0.00529586
-9.28735e-06
0.00529593
-9.8389e-06
0.00529609
-1.35619e-05
0.00529617
-1.32183e-05
0.00529646
-2.03699e-05
0.00529656
-1.80905e-05
0.00529706