/*--------------------------------*- C++ -*----------------------------------*\
| =========                 |                                                 |
| \\      /  F ield         | OpenFOAM: The Open Source CFD Toolbox           |
|  \\    /   O peration     | Version:  2412                                  |
|   \\  /    A nd           | Website:  www.openfoam.com                      |
|    \\/     M anipulation  |                                                 |
\*---------------------------------------------------------------------------*/
FoamFile
{
    version     2.0;
    format      ascii;
    arch        "LSB;label=32;scalar=64";
    class       volVectorField;
    location    "25.5";
    object      vorticity;
}
// * * * * * * * * * * * * * * * * * * * * * * * * * * * * * * * * * * * * * //

dimensions      [0 0 -1 0 0 0 0];

internalField   nonuniform List<vector> 
5285
(
(0 -0 3.65056e-05)
(0 -0 3.59581e-05)
(0 -0 3.54194e-05)
(0 -0 3.49357e-05)
(0 -0 3.44741e-05)
(0 -0 3.40405e-05)
(0 -0 3.36016e-05)
(0 -0 3.31494e-05)
(0 -0 3.2678e-05)
(0 -0 3.21834e-05)
(0 -0 3.16658e-05)
(0 -0 3.11359e-05)
(0 -0 3.06375e-05)
(0 -0 3.02953e-05)
(0 -0 3.0288e-05)
(0 -0 3.03856e-05)
(0 -0 3.17132e-05)
(0 -0 3.11877e-05)
(0 -0 3.0675e-05)
(0 -0 3.0168e-05)
(0 -0 2.97231e-05)
(0 -0 2.93067e-05)
(0 -0 2.88859e-05)
(0 -0 2.84537e-05)
(0 -0 2.80044e-05)
(0 -0 2.75347e-05)
(0 -0 2.70449e-05)
(0 -0 2.65461e-05)
(0 -0 2.60825e-05)
(0 -0 2.578e-05)
(0 -0 2.58031e-05)
(0 -0 2.59568e-05)
(0 -0 2.71069e-05)
(0 -0 2.66013e-05)
(0 -0 2.60855e-05)
(0 -0 2.55923e-05)
(0 -0 2.51643e-05)
(0 -0 2.47668e-05)
(0 -0 2.43667e-05)
(0 -0 2.39573e-05)
(0 -0 2.35332e-05)
(0 -0 2.30912e-05)
(0 -0 2.2632e-05)
(0 -0 2.21672e-05)
(0 -0 2.1741e-05)
(0 -0 2.14797e-05)
(0 -0 2.15509e-05)
(0 -0 2.17442e-05)
(0 -0 2.27258e-05)
(0 -0 2.22432e-05)
(0 -0 2.17445e-05)
(0 -0 2.12693e-05)
(0 -0 2.08608e-05)
(0 -0 2.04846e-05)
(0 -0 2.01077e-05)
(0 -0 1.97235e-05)
(0 -0 1.9327e-05)
(0 -0 1.8915e-05)
(0 -0 1.84887e-05)
(0 -0 1.80598e-05)
(0 -0 1.7673e-05)
(0 -0 1.7455e-05)
(0 -0 1.75738e-05)
(0 -0 1.78199e-05)
(0 -0 1.8639e-05)
(0 -0 1.8183e-05)
(0 -0 1.77077e-05)
(0 -0 1.72551e-05)
(0 -0 1.68695e-05)
(0 -0 1.65172e-05)
(0 -0 1.61658e-05)
(0 -0 1.58088e-05)
(0 -0 1.54416e-05)
(0 -0 1.50613e-05)
(0 -0 1.46692e-05)
(0 -0 1.42774e-05)
(0 -0 1.39309e-05)
(0 -0 1.37569e-05)
(0 -0 1.39236e-05)
(0 -0 1.42208e-05)
(0 -0 1.48957e-05)
(0 -0 1.44685e-05)
(0 -0 1.40198e-05)
(0 -0 1.35927e-05)
(0 -0 1.32326e-05)
(0 -0 1.29063e-05)
(0 -0 1.25819e-05)
(0 -0 1.22535e-05)
(0 -0 1.19167e-05)
(0 -0 1.15689e-05)
(0 -0 1.12116e-05)
(0 -0 1.08571e-05)
(0 -0 1.05508e-05)
(0 -0 1.04204e-05)
(0 -0 1.06338e-05)
(0 -0 1.09799e-05)
(0 -0 1.15266e-05)
(0 -0 1.11291e-05)
(0 -0 1.07084e-05)
(0 -0 1.03084e-05)
(0 -0 9.97508e-06)
(0 -0 9.67588e-06)
(0 -0 9.37949e-06)
(0 -0 9.08033e-06)
(0 -0 8.77422e-06)
(0 -0 8.45891e-06)
(0 -0 8.13612e-06)
(0 -0 7.81834e-06)
(0 -0 7.5514e-06)
(0 -0 7.46309e-06)
(0 -0 7.72108e-06)
(0 -0 8.11341e-06)
(0 -0 8.54586e-06)
(0 -0 8.1781e-06)
(0 -0 7.78574e-06)
(0 -0 7.41339e-06)
(0 -0 7.10724e-06)
(0 -0 6.8354e-06)
(0 -0 6.56702e-06)
(0 -0 6.29687e-06)
(0 -0 6.02103e-06)
(0 -0 5.73749e-06)
(0 -0 5.44816e-06)
(0 -0 5.16577e-06)
(0 -0 4.93642e-06)
(0 -0 4.88806e-06)
(0 -0 5.18787e-06)
(0 -0 5.62303e-06)
(0 -0 5.95359e-06)
(0 -0 5.61512e-06)
(0 -0 5.25073e-06)
(0 -0 4.90557e-06)
(0 -0 4.62616e-06)
(0 -0 4.38108e-06)
(0 -0 4.13996e-06)
(0 -0 3.89787e-06)
(0 -0 3.65109e-06)
(0 -0 3.39785e-06)
(0 -0 3.14023e-06)
(0 -0 2.8912e-06)
(0 -0 2.69704e-06)
(0 -0 2.68579e-06)
(0 -0 3.02398e-06)
(0 -0 3.49794e-06)
(0 -0 3.73766e-06)
(0 -0 3.42741e-06)
(0 -0 3.08996e-06)
(0 -0 2.77096e-06)
(0 -0 2.51712e-06)
(0 -0 2.2975e-06)
(0 -0 2.0822e-06)
(0 -0 1.8665e-06)
(0 -0 1.64694e-06)
(0 -0 1.42189e-06)
(0 -0 1.19364e-06)
(0 -0 9.753e-07)
(0 -0 8.13371e-07)
(0 -0 8.35846e-07)
(0 -0 1.20847e-06)
(0 -0 1.71682e-06)
(0 -0 1.87561e-06)
(0 -0 1.59197e-06)
(0 -0 1.27988e-06)
(0 -0 9.85417e-07)
(0 -0 7.55386e-07)
(0 -0 5.59337e-07)
(0 -0 3.67795e-07)
(0 -0 1.7628e-07)
(0 -0 -1.84939e-08)
(0 -0 -2.17986e-07)
(0 -0 -4.19752e-07)
(0 -0 -6.10537e-07)
(0 -0 -7.43654e-07)
(0 -0 -6.91206e-07)
(0 -0 -2.88341e-07)
(0 -0 2.49885e-07)
(0 -0 3.36817e-07)
(0 -0 7.7669e-08)
(0 -0 -2.11146e-07)
(0 -0 -4.83221e-07)
(0 -0 -6.91707e-07)
(0 -0 -8.66588e-07)
(0 -0 -1.0369e-06)
(0 -0 -1.20692e-06)
(0 -0 -1.37976e-06)
(0 -0 -1.55676e-06)
(0 -0 -1.73533e-06)
(0 -0 -1.90205e-06)
(0 -0 -2.0101e-06)
(0 -0 -1.93167e-06)
(0 -0 -1.50279e-06)
(0 -0 -9.38929e-07)
(0 -0 -9.15277e-07)
(0 -0 -1.15254e-06)
(0 -0 -1.42063e-06)
(0 -0 -1.67289e-06)
(0 -0 -1.86251e-06)
(0 -0 -2.01901e-06)
(0 -0 -2.17099e-06)
(0 -0 -2.32255e-06)
(0 -0 -2.47666e-06)
(0 -0 -2.63454e-06)
(0 -0 -2.79348e-06)
(0 -0 -2.93988e-06)
(0 -0 -3.02677e-06)
(0 -0 -2.9263e-06)
(0 -0 -2.4752e-06)
(0 -0 -1.88902e-06)
(0 -0 -1.92079e-06)
(0 -0 -2.13921e-06)
(0 -0 -2.38952e-06)
(0 -0 -2.62487e-06)
(0 -0 -2.79858e-06)
(0 -0 -2.93974e-06)
(0 -0 -3.07653e-06)
(0 -0 -3.21288e-06)
(0 -0 -3.35166e-06)
(0 -0 -3.49396e-06)
(0 -0 -3.63697e-06)
(0 -0 -3.76694e-06)
(0 -0 -3.83656e-06)
(0 -0 -3.71767e-06)
(0 -0 -3.2469e-06)
(0 -0 -2.63924e-06)
(0 -0 -2.72093e-06)
(0 -0 -2.92388e-06)
(0 -0 -3.15957e-06)
(0 -0 -3.38107e-06)
(0 -0 -3.54196e-06)
(0 -0 -3.6709e-06)
(0 -0 -3.79571e-06)
(0 -0 -3.92015e-06)
(0 -0 -4.04703e-06)
(0 -0 -4.17733e-06)
(0 -0 -4.30815e-06)
(0 -0 -4.42551e-06)
(0 -0 -4.48164e-06)
(0 -0 -4.34733e-06)
(0 -0 -3.8567e-06)
(0 -0 -3.22152e-06)
(0 -0 -3.35553e-06)
(0 -0 -3.54658e-06)
(0 -0 -3.77078e-06)
(0 -0 -3.98134e-06)
(0 -0 -4.13231e-06)
(0 -0 -4.25203e-06)
(0 -0 -4.36791e-06)
(0 -0 -4.48365e-06)
(0 -0 -4.60193e-06)
(0 -0 -4.72368e-06)
(0 -0 -4.84586e-06)
(0 -0 -4.9543e-06)
(0 -0 -5.00059e-06)
(0 -0 -4.8531e-06)
(0 -0 -4.33704e-06)
(0 -0 -3.6492e-06)
(0 -0 -3.8611e-06)
(0 -0 -4.04388e-06)
(0 -0 -4.25908e-06)
(0 -0 -4.461e-06)
(0 -0 -4.60449e-06)
(0 -0 -4.7176e-06)
(0 -0 -4.82734e-06)
(0 -0 -4.9373e-06)
(0 -0 -5.05002e-06)
(0 -0 -5.16632e-06)
(0 -0 -5.28311e-06)
(0 -0 -5.38611e-06)
(0 -0 -5.4263e-06)
(0 -0 -5.26813e-06)
(0 -0 -4.7114e-06)
(0 -0 -3.96366e-06)
(0 -0 -4.22148e-06)
(0 -0 -4.40178e-06)
(0 -0 -4.6075e-06)
(0 -0 -4.80048e-06)
(0 -0 -4.9369e-06)
(0 -0 -5.04413e-06)
(0 -0 -5.14863e-06)
(0 -0 -5.25377e-06)
(0 -0 -5.36193e-06)
(0 -0 -5.47383e-06)
(0 -0 -5.58636e-06)
(0 -0 -5.68541e-06)
(0 -0 -5.72231e-06)
(0 -0 -5.55764e-06)
(0 -0 -4.99996e-06)
(0 -0 -4.18264e-06)
(0 -0 -4.30874e-06)
(0 -0 -4.45925e-06)
(0 -0 -4.66293e-06)
(0 -0 -4.83901e-06)
(0 -0 -4.96356e-06)
(0 -0 -5.0604e-06)
(0 -0 -5.15502e-06)
(0 -0 -5.25052e-06)
(0 -0 -5.3492e-06)
(0 -0 -5.45171e-06)
(0 -0 -5.55496e-06)
(0 -0 -5.64541e-06)
(0 -0 -5.67708e-06)
(0 -0 -5.52092e-06)
(0 -0 -5.0097e-06)
(0 -0 -4.26831e-06)
(0 -0 -3.973e-06)
(0 -0 -4.11631e-06)
(0 -0 -4.26963e-06)
(0 -0 -4.43464e-06)
(0 -0 -4.53809e-06)
(0 -0 -4.61694e-06)
(0 -0 -4.69344e-06)
(0 -0 -4.77068e-06)
(0 -0 -4.85095e-06)
(0 -0 -4.93502e-06)
(0 -0 -5.01998e-06)
(0 -0 -5.09308e-06)
(0 -0 -5.11235e-06)
(0 -0 -4.9703e-06)
(0 -0 -4.52233e-06)
(0 -0 -3.99701e-06)
(0 -0 -0.000472468)
(0 -0 -0.00047062)
(0 -0 -0.000469003)
(0 -0 -0.000467523)
(0 -0 -0.000465549)
(0 -0 -0.000462636)
(0 -0 -0.000460987)
(0 -0 -0.000468355)
(0 -0 -0.000498654)
(0 -0 -0.000568208)
(0 -0 -0.000688325)
(0 -0 -0.000857565)
(0 -0 -0.00105779)
(0 -0 -0.00125634)
(0 -0 -0.00141379)
(0 -0 -0.00149418)
(0 -0 -0.00147413)
(0 -0 -0.00134789)
(0 -0 -0.00112746)
(0 -0 -0.000838529)
(0 -0 -0.000514056)
(0 -0 -0.000187598)
(0 -0 0.000112087)
(0 -0 0.000364323)
(0 -0 0.000557615)
(0 -0 0.000688973)
(0 -0 0.000762129)
(0 -0 0.000785297)
(0 -0 0.000768989)
(0 -0 0.000724214)
(0 -0 0.000661197)
(0 -0 0.000588608)
(0 -0 0.000513244)
(0 -0 0.000440013)
(0 -0 0.000372141)
(0 -0 0.00031146)
(0 -0 0.000258746)
(0 -0 0.000214021)
(0 -0 0.000176816)
(0 -0 0.000146384)
(0 -0 0.000121847)
(0 -0 0.000102309)
(0 -0 8.6916e-05)
(0 -0 7.48999e-05)
(0 -0 6.55921e-05)
(0 -0 5.84278e-05)
(0 -0 5.29403e-05)
(0 -0 4.87513e-05)
(0 -0 4.55583e-05)
(0 -0 4.31231e-05)
(0 -0 4.12599e-05)
(0 -0 3.98256e-05)
(0 -0 3.87079e-05)
(0 -0 3.78286e-05)
(0 -0 3.70806e-05)
(0 -0 -0.000470368)
(0 -0 -0.000468521)
(0 -0 -0.000466901)
(0 -0 -0.000465419)
(0 -0 -0.000463466)
(0 -0 -0.000460607)
(0 -0 -0.000458957)
(0 -0 -0.000466011)
(0 -0 -0.000495276)
(0 -0 -0.000562682)
(0 -0 -0.000679407)
(0 -0 -0.000844346)
(0 -0 -0.00104021)
(0 -0 -0.00123553)
(0 -0 -0.00139207)
(0 -0 -0.00147477)
(0 -0 -0.00146055)
(0 -0 -0.00134331)
(0 -0 -0.00113418)
(0 -0 -0.000857617)
(0 -0 -0.000545275)
(0 -0 -0.00022957)
(0 -0 6.15759e-05)
(0 -0 0.000307948)
(0 -0 0.000498147)
(0 -0 0.000628984)
(0 -0 0.000703788)
(0 -0 0.000730266)
(0 -0 0.0007184)
(0 -0 0.000678708)
(0 -0 0.000621001)
(0 -0 0.000553629)
(0 -0 0.000483161)
(0 -0 0.000414366)
(0 -0 0.000350395)
(0 -0 0.000293064)
(0 -0 0.000243166)
(0 -0 0.000200766)
(0 -0 0.000165452)
(0 -0 0.000136534)
(0 -0 0.000113196)
(0 -0 9.45959e-05)
(0 -0 7.99295e-05)
(0 -0 6.84708e-05)
(0 -0 5.95869e-05)
(0 -0 5.27425e-05)
(0 -0 4.74946e-05)
(0 -0 4.34839e-05)
(0 -0 4.0423e-05)
(0 -0 3.80852e-05)
(0 -0 3.62938e-05)
(0 -0 3.49127e-05)
(0 -0 3.38382e-05)
(0 -0 3.29809e-05)
(0 -0 3.22901e-05)
(0 -0 -0.000468017)
(0 -0 -0.000466173)
(0 -0 -0.00046455)
(0 -0 -0.000463067)
(0 -0 -0.000461136)
(0 -0 -0.000458331)
(0 -0 -0.000456681)
(0 -0 -0.000463424)
(0 -0 -0.000491655)
(0 -0 -0.000556904)
(0 -0 -0.000670207)
(0 -0 -0.000830785)
(0 -0 -0.00102218)
(0 -0 -0.00121411)
(0 -0 -0.00136955)
(0 -0 -0.00145432)
(0 -0 -0.00144566)
(0 -0 -0.00133718)
(0 -0 -0.00113912)
(0 -0 -0.000874733)
(0 -0 -0.000574399)
(0 -0 -0.000269391)
(0 -0 1.32073e-05)
(0 -0 0.000253647)
(0 -0 0.000440637)
(0 -0 0.0005708)
(0 -0 0.000647077)
(0 -0 0.00067668)
(0 -0 0.000669071)
(0 -0 0.000634287)
(0 -0 0.000581728)
(0 -0 0.000519427)
(0 -0 0.000453729)
(0 -0 0.00038926)
(0 -0 0.0003291)
(0 -0 0.000275044)
(0 -0 0.000227903)
(0 -0 0.000187782)
(0 -0 0.000154321)
(0 -0 0.00012689)
(0 -0 0.00010473)
(0 -0 8.70525e-05)
(0 -0 7.31021e-05)
(0 -0 6.21937e-05)
(0 -0 5.37296e-05)
(0 -0 4.72031e-05)
(0 -0 4.21945e-05)
(0 -0 3.83628e-05)
(0 -0 3.54355e-05)
(0 -0 3.31972e-05)
(0 -0 3.148e-05)
(0 -0 3.01549e-05)
(0 -0 2.91231e-05)
(0 -0 2.83077e-05)
(0 -0 2.76388e-05)
(0 -0 -0.000465413)
(0 -0 -0.000463573)
(0 -0 -0.000461949)
(0 -0 -0.000460466)
(0 -0 -0.000458557)
(0 -0 -0.000455807)
(0 -0 -0.00045416)
(0 -0 -0.000460595)
(0 -0 -0.0004878)
(0 -0 -0.000550899)
(0 -0 -0.000660773)
(0 -0 -0.000816951)
(0 -0 -0.00100379)
(0 -0 -0.00119217)
(0 -0 -0.00134627)
(0 -0 -0.00143281)
(0 -0 -0.00142937)
(0 -0 -0.00132928)
(0 -0 -0.00114194)
(0 -0 -0.000889439)
(0 -0 -0.00060089)
(0 -0 -0.000306443)
(0 -0 -3.23506e-05)
(0 -0 0.000202112)
(0 -0 0.000385773)
(0 -0 0.000515086)
(0 -0 0.000592621)
(0 -0 0.000625113)
(0 -0 0.000621519)
(0 -0 0.000591406)
(0 -0 0.000543774)
(0 -0 0.000486346)
(0 -0 0.000425241)
(0 -0 0.000364948)
(0 -0 0.000308472)
(0 -0 0.000257587)
(0 -0 0.000213117)
(0 -0 0.000175206)
(0 -0 0.000143546)
(0 -0 0.000117561)
(0 -0 9.65487e-05)
(0 -0 7.97715e-05)
(0 -0 6.65207e-05)
(0 -0 5.61515e-05)
(0 -0 4.80997e-05)
(0 -0 4.18865e-05)
(0 -0 3.71147e-05)
(0 -0 3.34615e-05)
(0 -0 3.06683e-05)
(0 -0 2.85309e-05)
(0 -0 2.68901e-05)
(0 -0 2.56232e-05)
(0 -0 2.46369e-05)
(0 -0 2.38593e-05)
(0 -0 2.32295e-05)
(0 -0 -0.000462556)
(0 -0 -0.00046072)
(0 -0 -0.000459097)
(0 -0 -0.000457613)
(0 -0 -0.000455727)
(0 -0 -0.000453032)
(0 -0 -0.000451389)
(0 -0 -0.000457526)
(0 -0 -0.00048372)
(0 -0 -0.000544689)
(0 -0 -0.000651147)
(0 -0 -0.000802908)
(0 -0 -0.000985117)
(0 -0 -0.00116979)
(0 -0 -0.0013223)
(0 -0 -0.00141026)
(0 -0 -0.00141164)
(0 -0 -0.00131948)
(0 -0 -0.00114242)
(0 -0 -0.000901409)
(0 -0 -0.000624334)
(0 -0 -0.000340243)
(0 -0 -7.45644e-05)
(0 -0 0.000153902)
(0 -0 0.000334119)
(0 -0 0.000462391)
(0 -0 0.00054094)
(0 -0 0.000576044)
(0 -0 0.000576178)
(0 -0 0.000550452)
(0 -0 0.000507479)
(0 -0 0.000454678)
(0 -0 0.000397952)
(0 -0 0.000341648)
(0 -0 0.000288698)
(0 -0 0.000240853)
(0 -0 0.00019895)
(0 -0 0.000163165)
(0 -0 0.000133238)
(0 -0 0.000108648)
(0 -0 8.87441e-05)
(0 -0 7.2838e-05)
(0 -0 6.02656e-05)
(0 -0 5.04204e-05)
(0 -0 4.27705e-05)
(0 -0 3.68638e-05)
(0 -0 3.23249e-05)
(0 -0 2.88482e-05)
(0 -0 2.61886e-05)
(0 -0 2.41528e-05)
(0 -0 2.25896e-05)
(0 -0 2.13828e-05)
(0 -0 2.04443e-05)
(0 -0 1.97061e-05)
(0 -0 1.91122e-05)
(0 -0 -0.000459442)
(0 -0 -0.000457613)
(0 -0 -0.000455991)
(0 -0 -0.000454508)
(0 -0 -0.000452645)
(0 -0 -0.000450005)
(0 -0 -0.000448368)
(0 -0 -0.000454215)
(0 -0 -0.000479421)
(0 -0 -0.000538293)
(0 -0 -0.000641366)
(0 -0 -0.000788714)
(0 -0 -0.000966238)
(0 -0 -0.00114706)
(0 -0 -0.00129772)
(0 -0 -0.00138673)
(0 -0 -0.00139244)
(0 -0 -0.00130771)
(0 -0 -0.00114041)
(0 -0 -0.000910412)
(0 -0 -0.000644429)
(0 -0 -0.00037043)
(0 -0 -0.000113034)
(0 -0 0.000109442)
(0 -0 0.000286106)
(0 -0 0.000413136)
(0 -0 0.000492433)
(0 -0 0.000529845)
(0 -0 0.000533384)
(0 -0 0.000511725)
(0 -0 0.000473108)
(0 -0 0.000424657)
(0 -0 0.000372062)
(0 -0 0.000319534)
(0 -0 0.000269931)
(0 -0 0.000224976)
(0 -0 0.000185516)
(0 -0 0.000151759)
(0 -0 0.00012349)
(0 -0 0.000100234)
(0 -0 8.1392e-05)
(0 -0 6.63223e-05)
(0 -0 5.44026e-05)
(0 -0 4.50626e-05)
(0 -0 3.78015e-05)
(0 -0 3.21924e-05)
(0 -0 2.78805e-05)
(0 -0 2.45766e-05)
(0 -0 2.2049e-05)
(0 -0 2.01142e-05)
(0 -0 1.86291e-05)
(0 -0 1.74835e-05)
(0 -0 1.65939e-05)
(0 -0 1.58965e-05)
(0 -0 1.53386e-05)
(0 -0 -0.000456072)
(0 -0 -0.00045425)
(0 -0 -0.00045263)
(0 -0 -0.00045115)
(0 -0 -0.00044931)
(0 -0 -0.000446724)
(0 -0 -0.000445095)
(0 -0 -0.000450663)
(0 -0 -0.000474908)
(0 -0 -0.000531727)
(0 -0 -0.000631463)
(0 -0 -0.000774423)
(0 -0 -0.000947223)
(0 -0 -0.00112406)
(0 -0 -0.0012726)
(0 -0 -0.00136227)
(0 -0 -0.00137183)
(0 -0 -0.00129395)
(0 -0 -0.00113584)
(0 -0 -0.000916328)
(0 -0 -0.000660999)
(0 -0 -0.000396782)
(0 -0 -0.000147498)
(0 -0 6.90143e-05)
(0 -0 0.000242028)
(0 -0 0.000367616)
(0 -0 0.000447386)
(0 -0 0.000486782)
(0 -0 0.000493383)
(0 -0 0.000475449)
(0 -0 0.00044086)
(0 -0 0.000396457)
(0 -0 0.000347725)
(0 -0 0.000298739)
(0 -0 0.000252283)
(0 -0 0.000210054)
(0 -0 0.000172903)
(0 -0 0.000141066)
(0 -0 0.000114367)
(0 -0 9.23788e-05)
(0 -0 7.45472e-05)
(0 -0 6.02746e-05)
(0 -0 4.89782e-05)
(0 -0 4.01219e-05)
(0 -0 3.32339e-05)
(0 -0 2.79112e-05)
(0 -0 2.38188e-05)
(0 -0 2.06829e-05)
(0 -0 1.82841e-05)
(0 -0 1.64488e-05)
(0 -0 1.50411e-05)
(0 -0 1.39567e-05)
(0 -0 1.31166e-05)
(0 -0 1.24605e-05)
(0 -0 1.19393e-05)
(0 -0 -0.000452443)
(0 -0 -0.000450631)
(0 -0 -0.000449014)
(0 -0 -0.000447537)
(0 -0 -0.00044572)
(0 -0 -0.000443188)
(0 -0 -0.000441569)
(0 -0 -0.000446871)
(0 -0 -0.000470186)
(0 -0 -0.000525004)
(0 -0 -0.000621466)
(0 -0 -0.000760079)
(0 -0 -0.000928138)
(0 -0 -0.00110086)
(0 -0 -0.00124704)
(0 -0 -0.00133698)
(0 -0 -0.00134987)
(0 -0 -0.00127826)
(0 -0 -0.00112871)
(0 -0 -0.000919125)
(0 -0 -0.000673975)
(0 -0 -0.000419192)
(0 -0 -0.000177822)
(0 -0 3.27772e-05)
(0 -0 0.000202056)
(0 -0 0.000326006)
(0 -0 0.00040597)
(0 -0 0.000447022)
(0 -0 0.00045633)
(0 -0 0.000441762)
(0 -0 0.000410859)
(0 -0 0.000370188)
(0 -0 0.000325036)
(0 -0 0.000279347)
(0 -0 0.000235829)
(0 -0 0.000196151)
(0 -0 0.000161165)
(0 -0 0.000131133)
(0 -0 0.000105913)
(0 -0 8.51206e-05)
(0 -0 6.82437e-05)
(0 -0 5.47259e-05)
(0 -0 4.40206e-05)
(0 -0 3.56241e-05)
(0 -0 2.90916e-05)
(0 -0 2.40429e-05)
(0 -0 2.01609e-05)
(0 -0 1.71869e-05)
(0 -0 1.49129e-05)
(0 -0 1.31743e-05)
(0 -0 1.18425e-05)
(0 -0 1.08186e-05)
(0 -0 1.00277e-05)
(0 -0 9.41301e-06)
(0 -0 8.92853e-06)
(0 -0 -0.000448556)
(0 -0 -0.000446753)
(0 -0 -0.000445142)
(0 -0 -0.000443669)
(0 -0 -0.000441875)
(0 -0 -0.000439395)
(0 -0 -0.000437788)
(0 -0 -0.000442837)
(0 -0 -0.000465257)
(0 -0 -0.000518134)
(0 -0 -0.000611395)
(0 -0 -0.000745722)
(0 -0 -0.000909041)
(0 -0 -0.00107756)
(0 -0 -0.00122113)
(0 -0 -0.00131095)
(0 -0 -0.00132666)
(0 -0 -0.00126072)
(0 -0 -0.00111912)
(0 -0 -0.000918863)
(0 -0 -0.000683389)
(0 -0 -0.000437669)
(0 -0 -0.00020399)
(0 -0 7.64348e-07)
(0 -0 0.000166237)
(0 -0 0.000288364)
(0 -0 0.000368251)
(0 -0 0.00041063)
(0 -0 0.00042229)
(0 -0 0.000410728)
(0 -0 0.000383163)
(0 -0 0.000345903)
(0 -0 0.000304043)
(0 -0 0.000261398)
(0 -0 0.000220605)
(0 -0 0.000183298)
(0 -0 0.000150331)
(0 -0 0.000121984)
(0 -0 9.81484e-05)
(0 -0 7.84771e-05)
(0 -0 6.24972e-05)
(0 -0 4.96895e-05)
(0 -0 3.95416e-05)
(0 -0 3.15795e-05)
(0 -0 2.53837e-05)
(0 -0 2.0595e-05)
(0 -0 1.69136e-05)
(0 -0 1.40943e-05)
(0 -0 1.19401e-05)
(0 -0 1.02949e-05)
(0 -0 9.03674e-06)
(0 -0 8.07166e-06)
(0 -0 7.32895e-06)
(0 -0 6.75505e-06)
(0 -0 6.30698e-06)
(0 -0 -0.000444409)
(0 -0 -0.000442617)
(0 -0 -0.000441012)
(0 -0 -0.000439544)
(0 -0 -0.000437773)
(0 -0 -0.000435345)
(0 -0 -0.000433752)
(0 -0 -0.000438562)
(0 -0 -0.000460123)
(0 -0 -0.000511125)
(0 -0 -0.000601268)
(0 -0 -0.000731383)
(0 -0 -0.000889985)
(0 -0 -0.00105421)
(0 -0 -0.00119497)
(0 -0 -0.00128431)
(0 -0 -0.00130234)
(0 -0 -0.00124148)
(0 -0 -0.00110721)
(0 -0 -0.000915673)
(0 -0 -0.000689364)
(0 -0 -0.00045232)
(0 -0 -0.000226095)
(0 -0 -2.70983e-05)
(0 -0 0.000134514)
(0 -0 0.000254647)
(0 -0 0.000334197)
(0 -0 0.000377587)
(0 -0 0.000391249)
(0 -0 0.00038234)
(0 -0 0.00035777)
(0 -0 0.000323602)
(0 -0 0.000284747)
(0 -0 0.000244897)
(0 -0 0.000206613)
(0 -0 0.000171498)
(0 -0 0.000140402)
(0 -0 0.000113621)
(0 -0 9.10736e-05)
(0 -0 7.24479e-05)
(0 -0 5.7306e-05)
(0 -0 4.5163e-05)
(0 -0 3.55378e-05)
(0 -0 2.79839e-05)
(0 -0 2.21053e-05)
(0 -0 1.75621e-05)
(0 -0 1.40704e-05)
(0 -0 1.1398e-05)
(0 -0 9.35799e-06)
(0 -0 7.80211e-06)
(0 -0 6.61453e-06)
(0 -0 5.70618e-06)
(0 -0 5.01005e-06)
(0 -0 4.47565e-06)
(0 -0 4.06307e-06)
(0 -0 -0.000440001)
(0 -0 -0.000438221)
(0 -0 -0.000436624)
(0 -0 -0.000435163)
(0 -0 -0.000433415)
(0 -0 -0.000431037)
(0 -0 -0.00042946)
(0 -0 -0.000434045)
(0 -0 -0.000454786)
(0 -0 -0.00050398)
(0 -0 -0.000591099)
(0 -0 -0.000717089)
(0 -0 -0.000871012)
(0 -0 -0.00103089)
(0 -0 -0.00116865)
(0 -0 -0.00125717)
(0 -0 -0.00127705)
(0 -0 -0.0012207)
(0 -0 -0.00109314)
(0 -0 -0.000909752)
(0 -0 -0.000692095)
(0 -0 -0.000463335)
(0 -0 -0.000244315)
(0 -0 -5.09757e-05)
(0 -0 0.00010674)
(0 -0 0.000224724)
(0 -0 0.000303697)
(0 -0 0.000347795)
(0 -0 0.000363129)
(0 -0 0.00035653)
(0 -0 0.000334623)
(0 -0 0.000303239)
(0 -0 0.00026711)
(0 -0 0.00022981)
(0 -0 0.000193826)
(0 -0 0.000160728)
(0 -0 0.000131357)
(0 -0 0.000106024)
(0 -0 8.46708e-05)
(0 -0 6.7016e-05)
(0 -0 5.26537e-05)
(0 -0 4.113e-05)
(0 -0 3.19928e-05)
(0 -0 2.48207e-05)
(0 -0 1.92392e-05)
(0 -0 1.49266e-05)
(0 -0 1.16137e-05)
(0 -0 9.07995e-06)
(0 -0 7.14787e-06)
(0 -0 5.67666e-06)
(0 -0 4.5562e-06)
(0 -0 3.70185e-06)
(0 -0 3.0501e-06)
(0 -0 2.55342e-06)
(0 -0 2.17489e-06)
(0 -0 -0.000435333)
(0 -0 -0.000433567)
(0 -0 -0.000431979)
(0 -0 -0.000430525)
(0 -0 -0.0004288)
(0 -0 -0.000426472)
(0 -0 -0.000424912)
(0 -0 -0.000429285)
(0 -0 -0.000449245)
(0 -0 -0.000496703)
(0 -0 -0.000580893)
(0 -0 -0.000702857)
(0 -0 -0.000852161)
(0 -0 -0.00100767)
(0 -0 -0.00114226)
(0 -0 -0.00122967)
(0 -0 -0.00125096)
(0 -0 -0.00119858)
(0 -0 -0.00107716)
(0 -0 -0.000901338)
(0 -0 -0.000691833)
(0 -0 -0.000470968)
(0 -0 -0.000258898)
(0 -0 -7.11035e-05)
(0 -0 8.26953e-05)
(0 -0 0.000198398)
(0 -0 0.000276572)
(0 -0 0.000321101)
(0 -0 0.000337793)
(0 -0 0.000333183)
(0 -0 0.000313626)
(0 -0 0.00028473)
(0 -0 0.000251062)
(0 -0 0.000216077)
(0 -0 0.000182193)
(0 -0 0.000150941)
(0 -0 0.000123157)
(0 -0 9.91573e-05)
(0 -0 7.89076e-05)
(0 -0 6.21512e-05)
(0 -0 4.85113e-05)
(0 -0 3.75627e-05)
(0 -0 2.88792e-05)
(0 -0 2.20628e-05)
(0 -0 1.67588e-05)
(0 -0 1.26619e-05)
(0 -0 9.5165e-06)
(0 -0 7.11295e-06)
(0 -0 5.28239e-06)
(0 -0 3.89086e-06)
(0 -0 2.83357e-06)
(0 -0 2.03002e-06)
(0 -0 1.41998e-06)
(0 -0 9.58713e-07)
(0 -0 6.12341e-07)
(0 -0 -0.000430405)
(0 -0 -0.000428653)
(0 -0 -0.000427075)
(0 -0 -0.00042563)
(0 -0 -0.000423929)
(0 -0 -0.000421648)
(0 -0 -0.000420107)
(0 -0 -0.000424282)
(0 -0 -0.000443499)
(0 -0 -0.000489292)
(0 -0 -0.000570656)
(0 -0 -0.0006887)
(0 -0 -0.000833459)
(0 -0 -0.000984587)
(0 -0 -0.00111589)
(0 -0 -0.00120192)
(0 -0 -0.00122423)
(0 -0 -0.00117532)
(0 -0 -0.00105949)
(0 -0 -0.0008907)
(0 -0 -0.000688867)
(0 -0 -0.000475515)
(0 -0 -0.000270141)
(0 -0 -8.77688e-05)
(0 -0 6.2109e-05)
(0 -0 0.000175419)
(0 -0 0.000252598)
(0 -0 0.000297303)
(0 -0 0.000315067)
(0 -0 0.000312147)
(0 -0 0.000294647)
(0 -0 0.000267964)
(0 -0 0.000236507)
(0 -0 0.000203618)
(0 -0 0.000171643)
(0 -0 0.000142079)
(0 -0 0.000115748)
(0 -0 9.29741e-05)
(0 -0 7.37403e-05)
(0 -0 5.78128e-05)
(0 -0 4.48405e-05)
(0 -0 3.44241e-05)
(0 -0 2.61615e-05)
(0 -0 1.96757e-05)
(0 -0 1.463e-05)
(0 -0 1.07344e-05)
(0 -0 7.74544e-06)
(0 -0 5.46355e-06)
(0 -0 3.72786e-06)
(0 -0 2.41073e-06)
(0 -0 1.41231e-06)
(0 -0 6.55952e-07)
(0 -0 8.45087e-08)
(0 -0 -3.44073e-07)
(0 -0 -6.60674e-07)
(0 -0 -0.000425216)
(0 -0 -0.00042348)
(0 -0 -0.000421914)
(0 -0 -0.000420479)
(0 -0 -0.000418801)
(0 -0 -0.000416567)
(0 -0 -0.000415046)
(0 -0 -0.000419037)
(0 -0 -0.000437547)
(0 -0 -0.000481748)
(0 -0 -0.000560387)
(0 -0 -0.000674627)
(0 -0 -0.000814926)
(0 -0 -0.000961691)
(0 -0 -0.00108961)
(0 -0 -0.00117404)
(0 -0 -0.00119701)
(0 -0 -0.00115114)
(0 -0 -0.00104038)
(0 -0 -0.00087812)
(0 -0 -0.000683502)
(0 -0 -0.000477299)
(0 -0 -0.000278368)
(0 -0 -0.00010129)
(0 -0 4.46773e-05)
(0 -0 0.000155503)
(0 -0 0.000231517)
(0 -0 0.00027617)
(0 -0 0.000294747)
(0 -0 0.000293245)
(0 -0 0.000277532)
(0 -0 0.00025281)
(0 -0 0.000223332)
(0 -0 0.000192334)
(0 -0 0.000162093)
(0 -0 0.000134067)
(0 -0 0.000109066)
(0 -0 8.7417e-05)
(0 -0 6.91174e-05)
(0 -0 5.39529e-05)
(0 -0 4.15961e-05)
(0 -0 3.16714e-05)
(0 -0 2.37987e-05)
(0 -0 1.76199e-05)
(0 -0 1.28146e-05)
(0 -0 9.10638e-06)
(0 -0 6.26312e-06)
(0 -0 4.09443e-06)
(0 -0 2.44684e-06)
(0 -0 1.19858e-06)
(0 -0 2.54378e-07)
(0 -0 -4.58762e-07)
(0 -0 -9.95126e-07)
(0 -0 -1.3942e-06)
(0 -0 -1.68383e-06)
(0 -0 -0.000419767)
(0 -0 -0.000418049)
(0 -0 -0.000416496)
(0 -0 -0.000415072)
(0 -0 -0.000413417)
(0 -0 -0.00041123)
(0 -0 -0.00040973)
(0 -0 -0.000413547)
(0 -0 -0.000431388)
(0 -0 -0.000474066)
(0 -0 -0.000550085)
(0 -0 -0.000660638)
(0 -0 -0.000796578)
(0 -0 -0.000939017)
(0 -0 -0.0010635)
(0 -0 -0.00114613)
(0 -0 -0.00116946)
(0 -0 -0.00112621)
(0 -0 -0.00102008)
(0 -0 -0.000863879)
(0 -0 -0.000676052)
(0 -0 -0.000476649)
(0 -0 -0.000283917)
(0 -0 -0.000112001)
(0 -0 3.00806e-05)
(0 -0 0.000138351)
(0 -0 0.000213054)
(0 -0 0.000257457)
(0 -0 0.000276614)
(0 -0 0.000276285)
(0 -0 0.000262117)
(0 -0 0.000239124)
(0 -0 0.000211416)
(0 -0 0.000182122)
(0 -0 0.000153452)
(0 -0 0.000126827)
(0 -0 0.000103042)
(0 -0 8.24245e-05)
(0 -0 6.49832e-05)
(0 -0 5.05197e-05)
(0 -0 3.8729e-05)
(0 -0 2.92586e-05)
(0 -0 2.17474e-05)
(0 -0 1.58542e-05)
(0 -0 1.12728e-05)
(0 -0 7.73895e-06)
(0 -0 5.03099e-06)
(0 -0 2.96707e-06)
(0 -0 1.40064e-06)
(0 -0 2.1543e-07)
(0 -0 -6.79495e-07)
(0 -0 -1.35378e-06)
(0 -0 -1.85898e-06)
(0 -0 -2.2321e-06)
(0 -0 -2.49791e-06)
(0 -0 -0.00041406)
(0 -0 -0.00041236)
(0 -0 -0.000410821)
(0 -0 -0.000409409)
(0 -0 -0.000407778)
(0 -0 -0.000405636)
(0 -0 -0.000404158)
(0 -0 -0.000407815)
(0 -0 -0.00042502)
(0 -0 -0.000466244)
(0 -0 -0.000539745)
(0 -0 -0.000646732)
(0 -0 -0.000778421)
(0 -0 -0.000916589)
(0 -0 -0.00103759)
(0 -0 -0.00111829)
(0 -0 -0.00114172)
(0 -0 -0.00110074)
(0 -0 -0.000998812)
(0 -0 -0.000848251)
(0 -0 -0.00066682)
(0 -0 -0.00047389)
(0 -0 -0.000287122)
(0 -0 -0.000120233)
(0 -0 1.79979e-05)
(0 -0 0.000123661)
(0 -0 0.00019693)
(0 -0 0.00024091)
(0 -0 0.000260445)
(0 -0 0.000261072)
(0 -0 0.000248231)
(0 -0 0.00022676)
(0 -0 0.000200631)
(0 -0 0.000172872)
(0 -0 0.000145627)
(0 -0 0.000120278)
(0 -0 9.76045e-05)
(0 -0 7.79335e-05)
(0 -0 6.1281e-05)
(0 -0 4.74588e-05)
(0 -0 3.61881e-05)
(0 -0 2.71391e-05)
(0 -0 1.99654e-05)
(0 -0 1.43391e-05)
(0 -0 9.96655e-06)
(0 -0 6.59472e-06)
(0 -0 4.01181e-06)
(0 -0 2.0441e-06)
(0 -0 5.51644e-07)
(0 -0 -5.7663e-07)
(0 -0 -1.42758e-06)
(0 -0 -2.06769e-06)
(0 -0 -2.54598e-06)
(0 -0 -2.89702e-06)
(0 -0 -3.1424e-06)
(0 -0 -0.000408094)
(0 -0 -0.000406414)
(0 -0 -0.000404891)
(0 -0 -0.000403493)
(0 -0 -0.000401886)
(0 -0 -0.000399788)
(0 -0 -0.000398333)
(0 -0 -0.000401839)
(0 -0 -0.000418441)
(0 -0 -0.000458278)
(0 -0 -0.000529362)
(0 -0 -0.000632907)
(0 -0 -0.000760462)
(0 -0 -0.000894435)
(0 -0 -0.00101196)
(0 -0 -0.00109062)
(0 -0 -0.00111394)
(0 -0 -0.00107493)
(0 -0 -0.000976848)
(0 -0 -0.000831544)
(0 -0 -0.000656151)
(0 -0 -0.000469393)
(0 -0 -0.000288362)
(0 -0 -0.000126362)
(0 -0 8.06864e-06)
(0 -0 0.000111097)
(0 -0 0.000182839)
(0 -0 0.000226256)
(0 -0 0.000245999)
(0 -0 0.000247397)
(0 -0 0.000235697)
(0 -0 0.00021557)
(0 -0 0.000190855)
(0 -0 0.000164484)
(0 -0 0.000138536)
(0 -0 0.000114355)
(0 -0 9.27021e-05)
(0 -0 7.39029e-05)
(0 -0 5.79786e-05)
(0 -0 4.47382e-05)
(0 -0 3.39194e-05)
(0 -0 2.52688e-05)
(0 -0 1.84149e-05)
(0 -0 1.30398e-05)
(0 -0 8.86191e-06)
(0 -0 5.63979e-06)
(0 -0 3.17134e-06)
(0 -0 1.29089e-06)
(0 -0 -1.35138e-07)
(0 -0 -1.21291e-06)
(0 -0 -2.02545e-06)
(0 -0 -2.6363e-06)
(0 -0 -3.09218e-06)
(0 -0 -3.42532e-06)
(0 -0 -3.65367e-06)
(0 -0 -0.000401871)
(0 -0 -0.000400212)
(0 -0 -0.000398706)
(0 -0 -0.000397323)
(0 -0 -0.00039574)
(0 -0 -0.000393686)
(0 -0 -0.000392255)
(0 -0 -0.000395619)
(0 -0 -0.000411647)
(0 -0 -0.000450154)
(0 -0 -0.000518914)
(0 -0 -0.000619135)
(0 -0 -0.000742677)
(0 -0 -0.000872546)
(0 -0 -0.000986618)
(0 -0 -0.00106318)
(0 -0 -0.00108624)
(0 -0 -0.00104896)
(0 -0 -0.000954443)
(0 -0 -0.000814077)
(0 -0 -0.000644412)
(0 -0 -0.000463552)
(0 -0 -0.000288047)
(0 -0 -0.000130796)
(0 -0 -9.96772e-08)
(0 -0 0.000100291)
(0 -0 0.000170448)
(0 -0 0.000213202)
(0 -0 0.000233022)
(0 -0 0.000235047)
(0 -0 0.00022434)
(0 -0 0.000205413)
(0 -0 0.000181978)
(0 -0 0.000156875)
(0 -0 0.000132118)
(0 -0 0.000109016)
(0 -0 8.83103e-05)
(0 -0 7.03235e-05)
(0 -0 5.50827e-05)
(0 -0 4.24298e-05)
(0 -0 3.20182e-05)
(0 -0 2.36336e-05)
(0 -0 1.70962e-05)
(0 -0 1.19596e-05)
(0 -0 7.96277e-06)
(0 -0 4.87797e-06)
(0 -0 2.51361e-06)
(0 -0 7.11966e-07)
(0 -0 -6.54568e-07)
(0 -0 -1.68753e-06)
(0 -0 -2.46644e-06)
(0 -0 -3.05223e-06)
(0 -0 -3.48965e-06)
(0 -0 -3.80871e-06)
(0 -0 -4.02362e-06)
(0 -0 -0.000395393)
(0 -0 -0.000393756)
(0 -0 -0.000392269)
(0 -0 -0.000390901)
(0 -0 -0.000389344)
(0 -0 -0.000387333)
(0 -0 -0.000385926)
(0 -0 -0.000389156)
(0 -0 -0.000404636)
(0 -0 -0.000441867)
(0 -0 -0.000508388)
(0 -0 -0.000605395)
(0 -0 -0.00072504)
(0 -0 -0.000850898)
(0 -0 -0.000961563)
(0 -0 -0.001036)
(0 -0 -0.00105869)
(0 -0 -0.00102297)
(0 -0 -0.000931773)
(0 -0 -0.000796081)
(0 -0 -0.000631881)
(0 -0 -0.000456682)
(0 -0 -0.000286512)
(0 -0 -0.000133878)
(0 -0 -6.84316e-06)
(0 -0 9.09259e-05)
(0 -0 0.000159466)
(0 -0 0.000201485)
(0 -0 0.000221288)
(0 -0 0.000223829)
(0 -0 0.000213997)
(0 -0 0.000196154)
(0 -0 0.000173891)
(0 -0 0.000149958)
(0 -0 0.000126308)
(0 -0 0.000104211)
(0 -0 8.43923e-05)
(0 -0 6.71711e-05)
(0 -0 5.25899e-05)
(0 -0 4.04594e-05)
(0 -0 3.05463e-05)
(0 -0 2.24777e-05)
(0 -0 1.60712e-05)
(0 -0 1.11653e-05)
(0 -0 7.33813e-06)
(0 -0 4.38277e-06)
(0 -0 2.11832e-06)
(0 -0 3.94206e-07)
(0 -0 -9.11925e-07)
(0 -0 -1.89754e-06)
(0 -0 -2.63909e-06)
(0 -0 -3.19522e-06)
(0 -0 -3.60932e-06)
(0 -0 -3.90885e-06)
(0 -0 -4.11362e-06)
(0 -0 2.93288e-05)
(0 -0 2.16137e-05)
(0 -0 1.54853e-05)
(0 -0 1.06906e-05)
(0 -0 7.01875e-06)
(0 -0 4.18937e-06)
(0 -0 2.02793e-06)
(0 -0 3.88707e-07)
(0 -0 -8.46526e-07)
(0 -0 -1.77192e-06)
(0 -0 -2.46123e-06)
(0 -0 -2.97108e-06)
(0 -0 -3.34256e-06)
(0 -0 -3.61276e-06)
(0 -0 -3.77983e-06)
(0 -0 -1.07812e-05)
(0 -0 -1.07512e-05)
(0 -0 -1.07246e-05)
(0 -0 -1.06989e-05)
(0 -0 -1.06558e-05)
(0 -0 -1.0585e-05)
(0 -0 -1.05596e-05)
(0 -0 -1.08213e-05)
(0 -0 -1.17926e-05)
(0 -0 -1.39574e-05)
(0 -0 -1.76346e-05)
(0 -0 -2.27487e-05)
(0 -0 -2.87177e-05)
(0 -0 -3.45272e-05)
(0 -0 -3.89699e-05)
(0 -0 -4.0959e-05)
(0 -0 -3.98022e-05)
(0 -0 -3.53536e-05)
(0 -0 -2.80143e-05)
(0 -0 -1.86052e-05)
(0 -0 -8.16891e-06)
(0 -0 2.23714e-06)
(0 -0 1.17081e-05)
(0 -0 1.95947e-05)
(0 -0 2.55382e-05)
(0 -0 2.94501e-05)
(0 -0 3.14566e-05)
(0 -0 3.18287e-05)
(0 -0 3.09122e-05)
(0 -0 2.90701e-05)
(0 -0 2.6641e-05)
(0 -0 2.39133e-05)
(0 -0 2.11142e-05)
(0 -0 1.84088e-05)
(0 -0 1.59059e-05)
(0 -0 1.36678e-05)
(0 -0 1.17206e-05)
(0 -0 1.00648e-05)
(0 -0 8.6836e-06)
(0 -0 7.55057e-06)
(0 -0 6.63447e-06)
(0 -0 5.90316e-06)
(0 -0 5.32596e-06)
(0 -0 4.87498e-06)
(0 -0 4.52584e-06)
(0 -0 4.2578e-06)
(0 -0 4.05359e-06)
(0 -0 3.89913e-06)
(0 -0 3.78308e-06)
(0 -0 3.69644e-06)
(0 -0 3.63213e-06)
(0 -0 3.58466e-06)
(0 -0 3.54979e-06)
(0 -0 3.52426e-06)
(0 -0 3.50553e-06)
(0 -0 -3.21523e-05)
(0 -0 -3.20484e-05)
(0 -0 -3.19616e-05)
(0 -0 -3.18816e-05)
(0 -0 -3.17515e-05)
(0 -0 -3.15397e-05)
(0 -0 -3.14615e-05)
(0 -0 -3.22322e-05)
(0 -0 -3.51052e-05)
(0 -0 -4.15212e-05)
(0 -0 -5.24374e-05)
(0 -0 -6.76443e-05)
(0 -0 -8.54301e-05)
(0 -0 -0.000102796)
(0 -0 -0.000116161)
(0 -0 -0.000122293)
(0 -0 -0.000119118)
(0 -0 -0.000106181)
(0 -0 -8.46472e-05)
(0 -0 -5.69304e-05)
(0 -0 -2.61092e-05)
(0 -0 4.68588e-06)
(0 -0 3.27701e-05)
(0 -0 5.62104e-05)
(0 -0 7.39319e-05)
(0 -0 8.56593e-05)
(0 -0 9.17551e-05)
(0 -0 9.30111e-05)
(0 -0 9.0444e-05)
(0 -0 8.51239e-05)
(0 -0 7.80501e-05)
(0 -0 7.00759e-05)
(0 -0 6.18741e-05)
(0 -0 5.39346e-05)
(0 -0 4.65814e-05)
(0 -0 4.00004e-05)
(0 -0 3.42709e-05)
(0 -0 2.93959e-05)
(0 -0 2.53277e-05)
(0 -0 2.19891e-05)
(0 -0 1.92886e-05)
(0 -0 1.71322e-05)
(0 -0 1.54297e-05)
(0 -0 1.40991e-05)
(0 -0 1.30687e-05)
(0 -0 1.22774e-05)
(0 -0 1.16744e-05)
(0 -0 1.12182e-05)
(0 -0 1.08752e-05)
(0 -0 1.06191e-05)
(0 -0 1.04289e-05)
(0 -0 1.02884e-05)
(0 -0 1.01852e-05)
(0 -0 1.01095e-05)
(0 -0 1.0054e-05)
(0 -0 -5.30911e-05)
(0 -0 -5.29082e-05)
(0 -0 -5.27578e-05)
(0 -0 -5.26217e-05)
(0 -0 -5.2406e-05)
(0 -0 -5.20565e-05)
(0 -0 -5.19213e-05)
(0 -0 -5.31672e-05)
(0 -0 -5.78481e-05)
(0 -0 -6.83377e-05)
(0 -0 -8.62343e-05)
(0 -0 -0.000111237)
(0 -0 -0.000140587)
(0 -0 -0.000169401)
(0 -0 -0.000191819)
(0 -0 -0.000202521)
(0 -0 -0.000198061)
(0 -0 -0.000177624)