/*--------------------------------*- C++ -*----------------------------------*\
| =========                 |                                                 |
| \\      /  F ield         | OpenFOAM: The Open Source CFD Toolbox           |
|  \\    /   O peration     | Version:  2412                                  |
|   \\  /    A nd           | Website:  www.openfoam.com                      |
|    \\/     M anipulation  |                                                 |
\*---------------------------------------------------------------------------*/
FoamFile
{
    version     2.0;
    format      ascii;
    arch        "LSB;label=32;scalar=64";
    class       volVectorField;
    location    "1";
    object      vorticity;
}
// * * * * * * * * * * * * * * * * * * * * * * * * * * * * * * * * * * * * * //

dimensions      [0 0 -1 0 0 0 0];

internalField   nonuniform List<vector> 
5285
(
(0 -0 -9.29186e-05)
(0 -0 -5.62101e-05)
(0 -0 -1.35108e-05)
(0 -0 1.02522e-05)
(0 -0 1.50116e-05)
(0 -0 1.09986e-05)
(0 -0 5.89314e-06)
(0 -0 2.42225e-06)
(0 -0 6.20287e-07)
(0 -0 -1.6175e-07)
(0 -0 -4.51295e-07)
(0 -0 -5.67626e-07)
(0 -0 -6.82341e-07)
(0 -0 -9.35289e-07)
(0 -0 -1.41973e-06)
(0 -0 -1.90568e-06)
(0 -0 -8.92465e-05)
(0 -0 -5.22781e-05)
(0 -0 -1.12975e-05)
(0 -0 1.04954e-05)
(0 -0 1.41872e-05)
(0 -0 9.98246e-06)
(0 -0 5.06399e-06)
(0 -0 1.82621e-06)
(0 -0 1.84302e-07)
(0 -0 -4.92274e-07)
(0 -0 -7.24761e-07)
(0 -0 -8.33965e-07)
(0 -0 -9.45232e-07)
(0 -0 -1.11073e-06)
(0 -0 -1.30012e-06)
(0 -0 -1.14346e-06)
(0 -0 -8.51974e-05)
(0 -0 -4.79877e-05)
(0 -0 -8.75196e-06)
(0 -0 1.10621e-05)
(0 -0 1.37129e-05)
(0 -0 9.317e-06)
(0 -0 4.5979e-06)
(0 -0 1.59955e-06)
(0 -0 1.16668e-07)
(0 -0 -4.80153e-07)
(0 -0 -6.91045e-07)
(0 -0 -8.03412e-07)
(0 -0 -8.99611e-07)
(0 -0 -9.83016e-07)
(0 -0 -9.63379e-07)
(0 -0 -3.96091e-07)
(0 -0 -8.09005e-05)
(0 -0 -4.34777e-05)
(0 -0 -5.9877e-06)
(0 -0 1.18824e-05)
(0 -0 1.34906e-05)
(0 -0 8.89323e-06)
(0 -0 4.35769e-06)
(0 -0 1.58428e-06)
(0 -0 2.53001e-07)
(0 -0 -2.83561e-07)
(0 -0 -4.86828e-07)
(0 -0 -5.90544e-07)
(0 -0 -6.52888e-07)
(0 -0 -6.94054e-07)
(0 -0 -6.10384e-07)
(0 -0 -2.45025e-08)
(0 -0 -7.65671e-05)
(0 -0 -3.89388e-05)
(0 -0 -3.17937e-06)
(0 -0 1.27607e-05)
(0 -0 1.33264e-05)
(0 -0 8.52984e-06)
(0 -0 4.16115e-06)
(0 -0 1.59175e-06)
(0 -0 3.93281e-07)
(0 -0 -8.87311e-08)
(0 -0 -2.7891e-07)
(0 -0 -3.70964e-07)
(0 -0 -4.09416e-07)
(0 -0 -4.41621e-07)
(0 -0 -4.03387e-07)
(0 -0 5.38126e-09)
(0 -0 -7.23103e-05)
(0 -0 -3.44845e-05)
(0 -0 -4.3605e-07)
(0 -0 1.35954e-05)
(0 -0 1.31229e-05)
(0 -0 8.11714e-06)
(0 -0 3.90427e-06)
(0 -0 1.52494e-06)
(0 -0 4.48089e-07)
(0 -0 2.28804e-08)
(0 -0 -1.44469e-07)
(0 -0 -2.25828e-07)
(0 -0 -2.62219e-07)
(0 -0 -3.01655e-07)
(0 -0 -3.35331e-07)
(0 -0 -1.45026e-07)
(0 -0 -6.81327e-05)
(0 -0 -3.01345e-05)
(0 -0 2.215e-06)
(0 -0 1.43545e-05)
(0 -0 1.28486e-05)
(0 -0 7.62247e-06)
(0 -0 3.55712e-06)
(0 -0 1.37012e-06)
(0 -0 4.10322e-07)
(0 -0 4.38832e-08)
(0 -0 -9.57023e-08)
(0 -0 -1.58917e-07)
(0 -0 -1.92388e-07)
(0 -0 -2.40514e-07)
(0 -0 -3.21297e-07)
(0 -0 -2.73679e-07)
(0 -0 -6.4003e-05)
(0 -0 -2.58688e-05)
(0 -0 4.78052e-06)
(0 -0 1.50421e-05)
(0 -0 1.25256e-05)
(0 -0 7.09423e-06)
(0 -0 3.16377e-06)
(0 -0 1.14706e-06)
(0 -0 3.05578e-07)
(0 -0 5.63411e-09)
(0 -0 -1.03535e-07)
(0 -0 -1.46256e-07)
(0 -0 -1.67411e-07)
(0 -0 -2.17007e-07)
(0 -0 -3.11722e-07)
(0 -0 -3.1936e-07)
(0 -0 -5.99017e-05)
(0 -0 -2.16599e-05)
(0 -0 7.29382e-06)
(0 -0 1.56936e-05)
(0 -0 1.21729e-05)
(0 -0 6.52618e-06)
(0 -0 2.7223e-06)
(0 -0 8.81723e-07)
(0 -0 1.80052e-07)
(0 -0 -4.25087e-08)
(0 -0 -1.2217e-07)
(0 -0 -1.50968e-07)
(0 -0 -1.65351e-07)
(0 -0 -2.09716e-07)
(0 -0 -3.04398e-07)
(0 -0 -3.29929e-07)
(0 -0 -5.58809e-05)
(0 -0 -1.75619e-05)
(0 -0 9.7006e-06)
(0 -0 1.62551e-05)
(0 -0 1.17317e-05)
(0 -0 5.87068e-06)
(0 -0 2.21273e-06)
(0 -0 5.86574e-07)
(0 -0 3.2237e-08)
(0 -0 -1.26975e-07)
(0 -0 -1.78706e-07)
(0 -0 -1.84853e-07)
(0 -0 -1.89483e-07)
(0 -0 -2.27067e-07)
(0 -0 -3.26028e-07)
(0 -0 -3.81295e-07)
(0 -0 -5.20878e-05)
(0 -0 -1.37385e-05)
(0 -0 1.18352e-05)
(0 -0 1.65775e-05)
(0 -0 1.10781e-05)
(0 -0 5.014e-06)
(0 -0 1.51687e-06)
(0 -0 1.08484e-07)
(0 -0 -3.05531e-07)
(0 -0 -4.0183e-07)
(0 -0 -4.10417e-07)
(0 -0 -3.85165e-07)
(0 -0 -3.75942e-07)
(0 -0 -4.19119e-07)
(0 -0 -5.39662e-07)
(0 -0 -6.30309e-07)
(0 -0 -4.89495e-05)
(0 -0 -1.0618e-05)
(0 -0 1.32655e-05)
(0 -0 1.62284e-05)
(0 -0 9.78662e-06)
(0 -0 3.52635e-06)
(0 -0 1.81166e-07)
(0 -0 -1.02322e-06)
(0 -0 -1.30111e-06)
(0 -0 -1.31771e-06)
(0 -0 -1.27044e-06)
(0 -0 -1.2225e-06)
(0 -0 -1.20327e-06)
(0 -0 -1.25114e-06)
(0 -0 -1.39377e-06)
(0 -0 -1.51306e-06)
(0 -0 -4.77227e-05)
(0 -0 -9.44378e-06)
(0 -0 1.2776e-05)
(0 -0 1.40042e-05)
(0 -0 6.65313e-06)
(0 -0 2.19346e-07)
(0 -0 -2.97665e-06)
(0 -0 -3.99113e-06)
(0 -0 -4.13421e-06)
(0 -0 -4.06037e-06)
(0 -0 -3.96301e-06)
(0 -0 -3.90298e-06)
(0 -0 -3.88157e-06)
(0 -0 -3.9318e-06)
(0 -0 -4.08796e-06)
(0 -0 -4.22974e-06)
(0 -0 -5.10722e-05)
(0 -0 -1.27915e-05)
(0 -0 7.87745e-06)
(0 -0 7.45045e-06)
(0 -0 -7.80445e-07)
(0 -0 -7.38224e-06)
(0 -0 -1.04349e-05)
(0 -0 -1.12769e-05)
(0 -0 -1.12959e-05)
(0 -0 -1.1146e-05)
(0 -0 -1.10215e-05)
(0 -0 -1.09561e-05)
(0 -0 -1.09393e-05)
(0 -0 -1.10008e-05)
(0 -0 -1.11739e-05)
(0 -0 -1.1325e-05)
(0 -0 -6.22675e-05)
(0 -0 -2.37001e-05)
(0 -0 -4.26482e-06)
(0 -0 -6.16755e-06)
(0 -0 -1.52516e-05)
(0 -0 -2.20817e-05)
(0 -0 -2.50659e-05)
(0 -0 -2.57863e-05)
(0 -0 -2.57194e-05)
(0 -0 -2.55314e-05)
(0 -0 -2.54108e-05)
(0 -0 -2.53589e-05)
(0 -0 -2.53575e-05)
(0 -0 -2.54328e-05)
(0 -0 -2.56215e-05)
(0 -0 -2.57755e-05)
(0 -0 -7.8644e-05)
(0 -0 -3.90533e-05)
(0 -0 -2.00982e-05)
(0 -0 -2.31265e-05)
(0 -0 -3.30777e-05)
(0 -0 -4.03031e-05)
(0 -0 -4.33841e-05)
(0 -0 -4.41014e-05)
(0 -0 -4.40325e-05)
(0 -0 -4.38689e-05)
(0 -0 -4.37913e-05)
(0 -0 -4.37857e-05)
(0 -0 -4.383e-05)
(0 -0 -4.39461e-05)
(0 -0 -4.41664e-05)
(0 -0 -4.43423e-05)
(0 -0 -7.61324e-05)
(0 -0 -3.41623e-05)
(0 -0 -1.43246e-05)
(0 -0 -1.7916e-05)
(0 -0 -2.88157e-05)
(0 -0 -3.6728e-05)
(0 -0 -4.01619e-05)
(0 -0 -4.10486e-05)
(0 -0 -4.10898e-05)
(0 -0 -4.10302e-05)
(0 -0 -4.10516e-05)
(0 -0 -4.11371e-05)
(0 -0 -4.127e-05)
(0 -0 -4.148e-05)
(0 -0 -4.17788e-05)
(0 -0 -4.20213e-05)
(0 -0 -4.09443e-06)
(0 -0 4.16778e-05)
(0 -0 6.38689e-05)
(0 -0 6.02815e-05)
(0 -0 4.83693e-05)
(0 -0 3.95524e-05)
(0 -0 3.55988e-05)
(0 -0 3.44621e-05)
(0 -0 3.4288e-05)
(0 -0 3.42525e-05)
(0 -0 3.41479e-05)
(0 -0 3.39768e-05)
(0 -0 3.37545e-05)
(0 -0 3.34477e-05)
(0 -0 3.30621e-05)
(0 -0 3.27397e-05)
(0 -0 0.000154403)
(0 -0 0.000203141)
(0 -0 0.000227094)
(0 -0 0.000223281)
(0 -0 0.000210541)
(0 -0 0.000201234)
(0 -0 0.000197199)
(0 -0 0.000196186)
(0 -0 0.000196192)
(0 -0 0.00019633)
(0 -0 0.000196379)
(0 -0 0.000196327)
(0 -0 0.000196191)
(0 -0 0.000195953)
(0 -0 0.000195624)
(0 -0 0.000195347)
(0 -0 0.000275915)
(0 -0 0.000321287)
(0 -0 0.000340983)
(0 -0 0.000334639)
(0 -0 0.000321614)
(0 -0 0.000313316)
(0 -0 0.000310554)
(0 -0 0.000310626)
(0 -0 0.000311484)
(0 -0 0.0003123)
(0 -0 0.000312911)
(0 -0 0.000313337)
(0 -0 0.000313612)
(0 -0 0.00031373)
(0 -0 0.000313707)
(0 -0 0.000313694)
(0 -0 0.0119609)
(0 -0 -0.00255582)
(0 -0 -0.00443716)
(0 -0 -0.00181461)
(0 -0 -0.000464242)
(0 -0 -8.71474e-05)
(0 -0 -9.84261e-06)
(0 -0 3.0122e-06)
(0 -0 4.91509e-06)
(0 -0 0.0123367)
(0 -0 -0.00264716)
(0 -0 -0.00458587)
(0 -0 -0.00187463)
(0 -0 -0.000479166)
(0 -0 -9.00907e-05)
(0 -0 -1.03641e-05)
(0 -0 2.94243e-06)
(0 -0 5.046e-06)
(0 -0 5.16845e-06)
(0 -0 5.193e-06)
(0 -0 5.3289e-06)
(0 -0 5.2882e-06)
(0 -0 5.25788e-06)
(0 -0 5.19986e-06)
(0 -0 5.07919e-06)
(0 -0 5.04787e-06)
(0 -0 4.97594e-06)
(0 -0 4.95001e-06)
(0 -0 4.86234e-06)
(0 -0 4.83182e-06)
(0 -0 4.79207e-06)
(0 -0 4.69948e-06)
(0 -0 4.70128e-06)
(0 -0 4.73694e-06)
(0 -0 4.74805e-06)
(0 -0 4.82567e-06)
(0 -0 4.92485e-06)
(0 -0 5.03012e-06)
(0 -0 5.08046e-06)
(0 -0 5.18047e-06)
(0 -0 5.39477e-06)
(0 -0 5.64049e-06)
(0 -0 5.86009e-06)
(0 -0 6.15879e-06)
(0 -0 6.5145e-06)
(0 -0 6.88711e-06)
(0 -0 7.2894e-06)
(0 -0 7.71098e-06)
(0 -0 8.20161e-06)
(0 -0 8.7506e-06)
(0 -0 9.35189e-06)
(0 -0 1.00313e-05)
(0 -0 1.08145e-05)
(0 -0 1.16579e-05)
(0 -0 1.25198e-05)
(0 -0 1.3381e-05)
(0 -0 1.42888e-05)
(0 -0 1.52347e-05)
(0 -0 1.60391e-05)
(0 -0 1.57058e-05)
(0 -0 1.05267e-05)
(0 -0 -8.63233e-06)
(0 -0 -4.8372e-05)
(0 -0 -8.91443e-05)
(0 -0 0.0127222)
(0 -0 -0.0027423)
(0 -0 -0.0047394)
(0 -0 -0.00193626)
(0 -0 -0.000494799)
(0 -0 -9.30273e-05)
(0 -0 -1.06751e-05)
(0 -0 3.04362e-06)
(0 -0 5.13605e-06)
(0 -0 5.29576e-06)
(0 -0 5.26553e-06)
(0 -0 5.37821e-06)
(0 -0 5.33711e-06)
(0 -0 5.21315e-06)
(0 -0 5.22422e-06)
(0 -0 5.07377e-06)
(0 -0 5.0641e-06)
(0 -0 4.97533e-06)
(0 -0 4.9911e-06)
(0 -0 4.86822e-06)
(0 -0 4.83266e-06)
(0 -0 4.81406e-06)
(0 -0 4.6775e-06)
(0 -0 4.69236e-06)
(0 -0 4.75598e-06)
(0 -0 4.73452e-06)
(0 -0 4.80855e-06)
(0 -0 4.8978e-06)
(0 -0 4.98997e-06)
(0 -0 5.0078e-06)
(0 -0 5.09765e-06)
(0 -0 5.30773e-06)
(0 -0 5.56982e-06)
(0 -0 5.76419e-06)
(0 -0 6.04854e-06)
(0 -0 6.38144e-06)
(0 -0 6.72214e-06)
(0 -0 7.10115e-06)
(0 -0 7.47092e-06)
(0 -0 7.91157e-06)
(0 -0 8.44381e-06)
(0 -0 9.05733e-06)
(0 -0 9.73618e-06)
(0 -0 1.0481e-05)
(0 -0 1.12464e-05)
(0 -0 1.20152e-05)
(0 -0 1.27729e-05)
(0 -0 1.36131e-05)
(0 -0 1.45189e-05)
(0 -0 1.52763e-05)
(0 -0 1.48226e-05)
(0 -0 9.39753e-06)
(0 -0 -9.94266e-06)
(0 -0 -4.89952e-05)
(0 -0 -8.76739e-05)
(0 -0 0.013118)
(0 -0 -0.00284115)
(0 -0 -0.00489724)
(0 -0 -0.00199981)
(0 -0 -0.000511018)
(0 -0 -9.59747e-05)
(0 -0 -1.0873e-05)
(0 -0 3.27753e-06)
(0 -0 5.30026e-06)
(0 -0 5.55309e-06)
(0 -0 5.5279e-06)
(0 -0 5.50654e-06)
(0 -0 5.52696e-06)
(0 -0 5.33468e-06)
(0 -0 5.33421e-06)
(0 -0 5.22842e-06)
(0 -0 5.20521e-06)
(0 -0 5.10742e-06)
(0 -0 5.11157e-06)
(0 -0 5.01166e-06)
(0 -0 4.92345e-06)
(0 -0 4.91595e-06)
(0 -0 4.81599e-06)
(0 -0 4.81126e-06)
(0 -0 4.86936e-06)
(0 -0 4.84918e-06)
(0 -0 4.90897e-06)
(0 -0 4.9826e-06)
(0 -0 5.05988e-06)
(0 -0 5.10171e-06)
(0 -0 5.22517e-06)
(0 -0 5.40594e-06)
(0 -0 5.64623e-06)
(0 -0 5.84231e-06)
(0 -0 6.11135e-06)
(0 -0 6.42651e-06)
(0 -0 6.73504e-06)
(0 -0 7.08248e-06)
(0 -0 7.44299e-06)
(0 -0 7.87547e-06)
(0 -0 8.40643e-06)
(0 -0 9.00532e-06)
(0 -0 9.65229e-06)
(0 -0 1.03317e-05)
(0 -0 1.10205e-05)
(0 -0 1.17272e-05)
(0 -0 1.24507e-05)
(0 -0 1.32732e-05)
(0 -0 1.41522e-05)
(0 -0 1.48457e-05)
(0 -0 1.4262e-05)
(0 -0 8.60256e-06)
(0 -0 -1.08882e-05)
(0 -0 -4.92157e-05)
(0 -0 -8.57948e-05)
(0 -0 0.0135251)
(0 -0 -0.00294262)
(0 -0 -0.00506014)
(0 -0 -0.00206525)
(0 -0 -0.000527652)
(0 -0 -9.89777e-05)
(0 -0 -1.11072e-05)
(0 -0 3.52412e-06)
(0 -0 5.53098e-06)
(0 -0 5.83124e-06)
(0 -0 5.84818e-06)
(0 -0 5.6993e-06)
(0 -0 5.76647e-06)
(0 -0 5.57264e-06)
(0 -0 5.51516e-06)
(0 -0 5.45947e-06)
(0 -0 5.43245e-06)
(0 -0 5.33346e-06)
(0 -0 5.30451e-06)
(0 -0 5.24881e-06)
(0 -0 5.12007e-06)
(0 -0 5.10224e-06)
(0 -0 5.06087e-06)
(0 -0 5.02541e-06)
(0 -0 5.05339e-06)
(0 -0 5.05542e-06)
(0 -0 5.10026e-06)
(0 -0 5.16591e-06)
(0 -0 5.23472e-06)
(0 -0 5.29099e-06)
(0 -0 5.43245e-06)
(0 -0 5.59305e-06)
(0 -0 5.80894e-06)
(0 -0 6.02949e-06)
(0 -0 6.28219e-06)
(0 -0 6.57096e-06)
(0 -0 6.85157e-06)
(0 -0 7.17632e-06)
(0 -0 7.55179e-06)
(0 -0 7.99045e-06)
(0 -0 8.50902e-06)
(0 -0 9.06942e-06)
(0 -0 9.65665e-06)
(0 -0 1.02805e-05)
(0 -0 1.09238e-05)
(0 -0 1.16113e-05)
(0 -0 1.23442e-05)
(0 -0 1.31575e-05)
(0 -0 1.39971e-05)
(0 -0 1.46087e-05)
(0 -0 1.38939e-05)
(0 -0 8.02357e-06)
(0 -0 -1.15914e-05)
(0 -0 -4.91719e-05)
(0 -0 -8.36545e-05)
(0 -0 0.0139449)
(0 -0 -0.00304729)
(0 -0 -0.00522849)
(0 -0 -0.00213274)
(0 -0 -0.000544765)
(0 -0 -0.000102071)
(0 -0 -1.14164e-05)
(0 -0 3.75242e-06)
(0 -0 5.7924e-06)
(0 -0 6.0928e-06)
(0 -0 6.16296e-06)
(0 -0 5.93781e-06)
(0 -0 6.00338e-06)
(0 -0 5.85131e-06)
(0 -0 5.74679e-06)
(0 -0 5.70276e-06)
(0 -0 5.68172e-06)
(0 -0 5.58434e-06)
(0 -0 5.51195e-06)
(0 -0 5.50056e-06)
(0 -0 5.36553e-06)
(0 -0 5.31549e-06)
(0 -0 5.31187e-06)
(0 -0 5.25475e-06)
(0 -0 5.25744e-06)
(0 -0 5.29604e-06)
(0 -0 5.32617e-06)
(0 -0 5.37818e-06)
(0 -0 5.4418e-06)
(0 -0 5.49045e-06)
(0 -0 5.62723e-06)
(0 -0 5.79819e-06)
(0 -0 5.99655e-06)
(0 -0 6.22213e-06)
(0 -0 6.44528e-06)
(0 -0 6.70208e-06)
(0 -0 6.97592e-06)
(0 -0 7.29881e-06)
(0 -0 7.68664e-06)
(0 -0 8.11666e-06)
(0 -0 8.59431e-06)
(0 -0 9.11081e-06)
(0 -0 9.65341e-06)
(0 -0 1.02541e-05)
(0 -0 1.08776e-05)
(0 -0 1.155e-05)
(0 -0 1.22895e-05)
(0 -0 1.30734e-05)
(0 -0 1.38604e-05)
(0 -0 1.44015e-05)
(0 -0 1.35724e-05)
(0 -0 7.50458e-06)
(0 -0 -1.22262e-05)
(0 -0 -4.90621e-05)
(0 -0 -8.14598e-05)
(0 -0 0.0143782)
(0 -0 -0.00315539)
(0 -0 -0.00540271)
(0 -0 -0.0022025)
(0 -0 -0.000562459)
(0 -0 -0.000105284)
(0 -0 -1.17721e-05)
(0 -0 3.9333e-06)
(0 -0 6.0578e-06)
(0 -0 6.31575e-06)
(0 -0 6.43632e-06)
(0 -0 6.18969e-06)
(0 -0 6.2121e-06)
(0 -0 6.12436e-06)
(0 -0 6.00049e-06)
(0 -0 5.93202e-06)
(0 -0 5.91431e-06)
(0 -0 5.82421e-06)
(0 -0 5.71443e-06)
(0 -0 5.731e-06)
(0 -0 5.6039e-06)
(0 -0 5.50708e-06)
(0 -0 5.5155e-06)
(0 -0 5.46418e-06)
(0 -0 5.44964e-06)
(0 -0 5.51248e-06)
(0 -0 5.52918e-06)
(0 -0 5.55101e-06)
(0 -0 5.60672e-06)
(0 -0 5.6667e-06)
(0 -0 5.80103e-06)
(0 -0 5.98711e-06)
(0 -0 6.15815e-06)
(0 -0 6.35321e-06)
(0 -0 6.54428e-06)
(0 -0 6.79096e-06)
(0 -0 7.08651e-06)
(0 -0 7.40619e-06)
(0 -0 7.77363e-06)
(0 -0 8.17901e-06)
(0 -0 8.61309e-06)
(0 -0 9.10738e-06)
(0 -0 9.63805e-06)
(0 -0 1.022e-05)
(0 -0 1.0824e-05)
(0 -0 1.14586e-05)
(0 -0 1.21732e-05)
(0 -0 1.29192e-05)
(0 -0 1.36606e-05)
(0 -0 1.41479e-05)
(0 -0 1.32163e-05)
(0 -0 6.94997e-06)
(0 -0 -1.29007e-05)
(0 -0 -4.89932e-05)
(0 -0 -7.93178e-05)
(0 -0 0.014826)
(0 -0 -0.00326703)
(0 -0 -0.00558319)
(0 -0 -0.00227465)
(0 -0 -0.000580789)
(0 -0 -0.000108637)
(0 -0 -1.21547e-05)
(0 -0 4.07019e-06)
(0 -0 6.31181e-06)
(0 -0 6.51655e-06)
(0 -0 6.66669e-06)
(0 -0 6.43894e-06)
(0 -0 6.3986e-06)
(0 -0 6.36332e-06)
(0 -0 6.2316e-06)
(0 -0 6.12705e-06)
(0 -0 6.10667e-06)
(0 -0 6.04523e-06)
(0 -0 5.9078e-06)
(0 -0 5.91574e-06)
(0 -0 5.81507e-06)
(0 -0 5.68254e-06)
(0 -0 5.68518e-06)
(0 -0 5.66868e-06)
(0 -0 5.62853e-06)
(0 -0 5.66979e-06)
(0 -0 5.67971e-06)
(0 -0 5.68275e-06)
(0 -0 5.735e-06)
(0 -0 5.82432e-06)
(0 -0 5.9498e-06)
(0 -0 6.12384e-06)
(0 -0 6.26144e-06)
(0 -0 6.43054e-06)
(0 -0 6.62037e-06)
(0 -0 6.86966e-06)
(0 -0 7.17414e-06)
(0 -0 7.46904e-06)
(0 -0 7.79579e-06)
(0 -0 8.18187e-06)
(0 -0 8.59648e-06)
(0 -0 9.08659e-06)
(0 -0 9.61516e-06)
(0 -0 1.01592e-05)
(0 -0 1.07281e-05)
(0 -0 1.13203e-05)
(0 -0 1.19849e-05)
(0 -0 1.26912e-05)
(0 -0 1.33988e-05)
(0 -0 1.38345e-05)
(0 -0 1.27926e-05)
(0 -0 6.32389e-06)
(0 -0 -1.36299e-05)
(0 -0 -4.89593e-05)
(0 -0 -7.7218e-05)
(0 -0 0.0152898)
(0 -0 -0.00338232)
(0 -0 -0.00577036)
(0 -0 -0.00234936)
(0 -0 -0.000599759)
(0 -0 -0.000112119)
(0 -0 -1.25254e-05)
(0 -0 4.2061e-06)
(0 -0 6.5751e-06)
(0 -0 6.7456e-06)
(0 -0 6.88689e-06)
(0 -0 6.70778e-06)
(0 -0 6.59878e-06)
(0 -0 6.57614e-06)
(0 -0 6.44046e-06)
(0 -0 6.30673e-06)
(0 -0 6.26725e-06)
(0 -0 6.24541e-06)
(0 -0 6.07853e-06)
(0 -0 6.04162e-06)
(0 -0 5.99426e-06)
(0 -0 5.86198e-06)
(0 -0 5.84085e-06)
(0 -0 5.84865e-06)
(0 -0 5.77923e-06)
(0 -0 5.78063e-06)
(0 -0 5.79759e-06)
(0 -0 5.80877e-06)
(0 -0 5.8607e-06)
(0 -0 5.95971e-06)
(0 -0 6.05534e-06)
(0 -0 6.20622e-06)
(0 -0 6.3378e-06)
(0 -0 6.50698e-06)
(0 -0 6.71209e-06)
(0 -0 6.94563e-06)
(0 -0 7.22505e-06)
(0 -0 7.49383e-06)
(0 -0 7.78919e-06)
(0 -0 8.16174e-06)
(0 -0 8.58406e-06)
(0 -0 9.06346e-06)
(0 -0 9.5702e-06)
(0 -0 1.00698e-05)
(0 -0 1.05925e-05)
(0 -0 1.11552e-05)
(0 -0 1.17727e-05)
(0 -0 1.24343e-05)
(0 -0 1.30904e-05)
(0 -0 1.34538e-05)
(0 -0 1.22973e-05)
(0 -0 5.64155e-06)
(0 -0 -1.4379e-05)
(0 -0 -4.8918e-05)
(0 -0 -7.51206e-05)
(0 -0 0.0157709)
(0 -0 -0.00350134)
(0 -0 -0.00596472)
(0 -0 -0.00242678)
(0 -0 -0.000619384)
(0 -0 -0.000115737)
(0 -0 -1.28792e-05)
(0 -0 4.3409e-06)
(0 -0 6.82312e-06)
(0 -0 6.97822e-06)
(0 -0 7.08019e-06)
(0 -0 6.96608e-06)
(0 -0 6.79564e-06)
(0 -0 6.75664e-06)
(0 -0 6.63626e-06)
(0 -0 6.49599e-06)
(0 -0 6.41346e-06)
(0 -0 6.41064e-06)
(0 -0 6.22593e-06)
(0 -0 6.13863e-06)
(0 -0 6.13986e-06)
(0 -0 6.02928e-06)
(0 -0 5.96888e-06)
(0 -0 5.96976e-06)
(0 -0 5.89245e-06)
(0 -0 5.88017e-06)
(0 -0 5.91595e-06)
(0 -0 5.9353e-06)
(0 -0 5.97139e-06)
(0 -0 6.05947e-06)
(0 -0 6.13079e-06)
(0 -0 6.26838e-06)
(0 -0 6.41439e-06)
(0 -0 6.57819e-06)
(0 -0 6.78538e-06)
(0 -0 6.99772e-06)
(0 -0 7.24341e-06)
(0 -0 7.50395e-06)
(0 -0 7.78742e-06)
(0 -0 8.13953e-06)
(0 -0 8.57199e-06)
(0 -0 9.02803e-06)
(0 -0 9.48889e-06)
(0 -0 9.95099e-06)
(0 -0 1.04448e-05)
(0 -0 1.09912e-05)
(0 -0 1.15595e-05)
(0 -0 1.21603e-05)
(0 -0 1.27391e-05)
(0 -0 1.30149e-05)
(0 -0 1.17533e-05)
(0 -0 4.94065e-06)
(0 -0 -1.51147e-05)
(0 -0 -4.8847e-05)
(0 -0 -7.30107e-05)
(0 -0 0.0162713)
(0 -0 -0.00362409)
(0 -0 -0.00616685)
(0 -0 -0.00250715)
(0 -0 -0.000639743)
(0 -0 -0.000119522)
(0 -0 -1.32753e-05)
(0 -0 4.44456e-06)
(0 -0 7.01252e-06)
(0 -0 7.16454e-06)
(0 -0 7.19865e-06)
(0 -0 7.14112e-06)
(0 -0 6.93281e-06)
(0 -0 6.86901e-06)
(0 -0 6.77426e-06)
(0 -0 6.65428e-06)
(0 -0 6.51728e-06)
(0 -0 6.50242e-06)
(0 -0 6.33077e-06)
(0 -0 6.21012e-06)
(0 -0 6.22413e-06)
(0 -0 6.12868e-06)
(0 -0 6.02596e-06)
(0 -0 6.01512e-06)
(0 -0 5.96437e-06)
(0 -0 5.95255e-06)
(0 -0 5.99331e-06)
(0 -0 6.00339e-06)
(0 -0 6.02016e-06)
(0 -0 6.10605e-06)
(0 -0 6.17744e-06)
(0 -0 6.29478e-06)
(0 -0 6.44136e-06)
(0 -0 6.58202e-06)
(0 -0 6.77738e-06)
(0 -0 6.98399e-06)
(0 -0 7.20743e-06)
(0 -0 7.45665e-06)
(0 -0 7.74226e-06)
(0 -0 8.08228e-06)
(0 -0 8.49284e-06)
(0 -0 8.91545e-06)
(0 -0 9.34094e-06)
(0 -0 9.78602e-06)
(0 -0 1.0263e-05)
(0 -0 1.07848e-05)
(0 -0 1.1296e-05)
(0 -0 1.18233e-05)
(0 -0 1.23274e-05)
(0 -0 1.25346e-05)
(0 -0 1.11874e-05)
(0 -0 4.23392e-06)
(0 -0 -1.58484e-05)
(0 -0 -4.87761e-05)
(0 -0 -7.09306e-05)
(0 -0 0.0167929)
(0 -0 -0.00375045)
(0 -0 -0.00637736)
(0 -0 -0.00259075)
(0 -0 -0.000660987)
(0 -0 -0.000123577)
(0 -0 -1.38395e-05)
(0 -0 4.4138e-06)
(0 -0 7.04254e-06)
(0 -0 7.21547e-06)
(0 -0 7.16208e-06)
(0 -0 7.12899e-06)
(0 -0 6.90829e-06)
(0 -0 6.81802e-06)
(0 -0 6.72614e-06)
(0 -0 6.6374e-06)
(0 -0 6.44784e-06)
(0 -0 6.40177e-06)
(0 -0 6.26618e-06)
(0 -0 6.11928e-06)
(0 -0 6.11205e-06)
(0 -0 6.03521e-06)
(0 -0 5.91166e-06)
(0 -0 5.89684e-06)
(0 -0 5.88208e-06)
(0 -0 5.85159e-06)
(0 -0 5.8743e-06)
(0 -0 5.87713e-06)
(0 -0 5.88606e-06)
(0 -0 5.96916e-06)
(0 -0 6.05063e-06)
(0 -0 6.13134e-06)
(0 -0 6.26087e-06)
(0 -0 6.3905e-06)
(0 -0 6.56857e-06)
(0 -0 6.7692e-06)
(0 -0 6.98848e-06)
(0 -0 7.22449e-06)
(0 -0 7.51201e-06)
(0 -0 7.84566e-06)
(0 -0 8.21341e-06)
(0 -0 8.60302e-06)
(0 -0 9.00943e-06)
(0 -0 9.44855e-06)
(0 -0 9.89784e-06)
(0 -0 1.03667e-05)
(0 -0 1.08333e-05)
(0 -0 1.13051e-05)
(0 -0 1.17557e-05)
(0 -0 1.19134e-05)
(0 -0 1.04857e-05)
(0 -0 3.39208e-06)
(0 -0 -1.67159e-05)
(0 -0 -4.88411e-05)
(0 -0 -6.90154e-05)
(0 -0 0.0173386)
(0 -0 -0.00387964)
(0 -0 -0.00659682)
(0 -0 -0.002678)
(0 -0 -0.000683457)
(0 -0 -0.000128256)
(0 -0 -1.49338e-05)
(0 -0 3.87906e-06)
(0 -0 6.54119e-06)
(0 -0 6.75605e-06)
(0 -0 6.62849e-06)
(0 -0 6.59131e-06)
(0 -0 6.37326e-06)
(0 -0 6.25625e-06)
(0 -0 6.13692e-06)
(0 -0 6.07543e-06)
(0 -0 5.83673e-06)
(0 -0 5.74485e-06)
(0 -0 5.63982e-06)
(0 -0 5.46378e-06)
(0 -0 5.41949e-06)
(0 -0 5.3753e-06)
(0 -0 5.25695e-06)
(0 -0 5.22782e-06)
(0 -0 5.2282e-06)
(0 -0 5.16006e-06)
(0 -0 5.15668e-06)
(0 -0 5.16863e-06)
(0 -0 5.16969e-06)
(0 -0 5.21746e-06)
(0 -0 5.30377e-06)
(0 -0 5.3605e-06)
(0 -0 5.46799e-06)
(0 -0 5.60067e-06)
(0 -0 5.76915e-06)
(0 -0 5.96032e-06)
(0 -0 6.16252e-06)
(0 -0 6.38262e-06)
(0 -0 6.66879e-06)
(0 -0 6.99144e-06)
(0 -0 7.33181e-06)
(0 -0 7.70552e-06)
(0 -0 8.08241e-06)
(0 -0 8.48058e-06)
(0 -0 8.89261e-06)
(0 -0 9.31466e-06)
(0 -0 9.75372e-06)
(0 -0 1.01875e-05)
(0 -0 1.05914e-05)
(0 -0 1.06973e-05)
(0 -0 9.18166e-06)
(0 -0 1.95113e-06)
(0 -0 -1.81635e-05)
(0 -0 -4.94715e-05)
(0 -0 -6.76918e-05)
(0 -0 0.0179128)
(0 -0 -0.00400841)
(0 -0 -0.00682524)
(0 -0 -0.00276936)
(0 -0 -0.000707856)
(0 -0 -0.000134317)
(0 -0 -1.73576e-05)
(0 -0 2.02162e-06)
(0 -0 4.68165e-06)
(0 -0 4.91178e-06)
(0 -0 4.71573e-06)
(0 -0 4.6377e-06)
(0 -0 4.41e-06)
(0 -0 4.26928e-06)
(0 -0 4.09787e-06)
(0 -0 4.03818e-06)
(0 -0 3.75971e-06)
(0 -0 3.60837e-06)
(0 -0 3.50484e-06)
(0 -0 3.29965e-06)
(0 -0 3.20446e-06)
(0 -0 3.17966e-06)
(0 -0 3.0603e-06)
(0 -0 2.98116e-06)
(0 -0 2.97363e-06)
(0 -0 2.87957e-06)
(0 -0 2.83793e-06)
(0 -0 2.83748e-06)
(0 -0 2.82581e-06)
(0 -0 2.82662e-06)
(0 -0 2.88906e-06)
(0 -0 2.92679e-06)
(0 -0 3.01572e-06)
(0 -0 3.14728e-06)
(0 -0 3.29307e-06)
(0 -0 3.45883e-06)
(0 -0 3.61842e-06)
(0 -0 3.81841e-06)
(0 -0 4.10335e-06)
(0 -0 4.41354e-06)
(0 -0 4.72373e-06)
(0 -0 5.0538e-06)
(0 -0 5.38467e-06)
(0 -0 5.71989e-06)
(0 -0 6.09592e-06)
(0 -0 6.49295e-06)
(0 -0 6.8933e-06)
(0 -0 7.27719e-06)
(0 -0 7.62207e-06)
(0 -0 7.66275e-06)
(0 -0 6.05843e-06)
(0 -0 -1.30601e-06)
(0 -0 -2.14157e-05)
(0 -0 -5.19042e-05)
(0 -0 -6.82111e-05)
(0 -0 0.0185257)
(0 -0 -0.00412518)
(0 -0 -0.00706001)
(0 -0 -0.00286474)
(0 -0 -0.00073499)
(0 -0 -0.00014286)
(0 -0 -2.23301e-05)
(0 -0 -2.42613e-06)
(0 -0 1.70658e-07)
(0 -0 3.26945e-07)
(0 -0 2.14877e-08)
(0 -0 -1.7485e-07)
(0 -0 -4.81537e-07)
(0 -0 -6.77202e-07)
(0 -0 -9.56048e-07)
(0 -0 -1.07344e-06)
(0 -0 -1.3986e-06)
(0 -0 -1.64632e-06)
(0 -0 -1.79089e-06)
(0 -0 -2.02904e-06)
(0 -0 -2.22436e-06)
(0 -0 -2.30449e-06)
(0 -0 -2.4659e-06)
(0 -0 -2.63334e-06)
(0 -0 -2.69703e-06)
(0 -0 -2.83348e-06)
(0 -0 -2.93977e-06)
(0 -0 -3.0031e-06)
(0 -0 -3.06004e-06)
(0 -0 -3.11817e-06)
(0 -0 -3.1265e-06)
(0 -0 -3.13349e-06)
(0 -0 -3.09043e-06)
(0 -0 -2.99922e-06)
(0 -0 -2.93172e-06)
(0 -0 -2.84688e-06)
(0 -0 -2.73549e-06)
(0 -0 -2.56389e-06)
(0 -0 -2.32775e-06)
(0 -0 -2.08748e-06)
(0 -0 -1.85002e-06)
(0 -0 -1.62893e-06)
(0 -0 -1.37441e-06)
(0 -0 -1.1053e-06)
(0 -0 -7.92063e-07)
(0 -0 -4.63521e-07)
(0 -0 -1.5926e-07)
(0 -0 1.33538e-07)
(0 -0 3.95256e-07)
(0 -0 3.35249e-07)
(0 -0 -1.39367e-06)
(0 -0 -8.92981e-06)
(0 -0 -2.90709e-05)
(0 -0 -5.88028e-05)
(0 -0 -7.32743e-05)
(0 -0 0.0192034)
(0 -0 -0.0041947)
(0 -0 -0.00729059)
(0 -0 -0.00296064)
(0 -0 -0.00076374)
(0 -0 -0.000153511)
(0 -0 -2.97031e-05)
(0 -0 -9.45687e-06)
(0 -0 -7.06541e-06)
(0 -0 -7.15082e-06)
(0 -0 -7.68499e-06)
(0 -0 -8.12453e-06)
(0 -0 -8.64784e-06)
(0 -0 -9.01952e-06)
(0 -0 -9.53438e-06)
(0 -0 -9.83285e-06)
(0 -0 -1.02802e-05)
(0 -0 -1.0725e-05)
(0 -0 -1.10245e-05)
(0 -0 -1.13674e-05)
(0 -0 -1.17587e-05)
(0 -0 -1.2024e-05)
(0 -0 -1.23215e-05)
(0 -0 -1.26447e-05)
(0 -0 -1.28706e-05)
(0 -0 -1.31497e-05)
(0 -0 -1.33982e-05)
(0 -0 -1.36046e-05)
(0 -0 -1.38072e-05)
(0 -0 -1.40158e-05)
(0 -0 -1.41826e-05)
(0 -0 -1.43024e-05)
(0 -0 -1.44124e-05)
(0 -0 -1.44889e-05)
(0 -0 -1.45905e-05)
(0 -0 -1.46621e-05)
(0 -0 -1.46659e-05)
(0 -0 -1.46274e-05)
(0 -0 -1.45738e-05)
(0 -0 -1.45479e-05)
(0 -0 -1.44984e-05)
(0 -0 -1.44618e-05)
(0 -0 -1.43872e-05)
(0 -0 -1.42833e-05)
(0 -0 -1.41553e-05)
(0 -0 -1.40294e-05)
(0 -0 -1.39262e-05)
(0 -0 -1.38263e-05)
(0 -0 -1.37593e-05)
(0 -0 -1.40431e-05)
(0 -0 -1.60347e-05)
(0 -0 -2.38753e-05)
(0 -0 -4.41906e-05)
(0 -0 -7.33706e-05)
(0 -0 -8.62054e-05)
(0 -0 0.0200077)
(0 -0 -0.00413249)
(0 -0 -0.00749055)
(0 -0 -0.00304415)
(0 -0 -0.000785194)
(0 -0 -0.000158376)
(0 -0 -3.18469e-05)
(0 -0 -1.15947e-05)
(0 -0 -9.62643e-06)
(0 -0 -1.01921e-05)
(0 -0 -1.11652e-05)
(0 -0 -1.2034e-05)
(0 -0 -1.29745e-05)
(0 -0 -1.37134e-05)
(0 -0 -1.46459e-05)
(0 -0 -1.53303e-05)
(0 -0 -1.6062e-05)
(0 -0 -1.68599e-05)
(0 -0 -1.75263e-05)
(0 -0 -1.81597e-05)
(0 -0 -1.88952e-05)
(0 -0 -1.95039e-05)
(0 -0 -2.00994e-05)
(0 -0 -2.07401e-05)
(0 -0 -2.12986e-05)
(0 -0 -2.18745e-05)
(0 -0 -2.24298e-05)
(0 -0 -2.29483e-05)
(0 -0 -2.34699e-05)
(0 -0 -2.39866e-05)
(0 -0 -2.44837e-05)
(0 -0 -2.4907e-05)
(0 -0 -2.53534e-05)
(0 -0 -2.57904e-05)
(0 -0 -2.6218e-05)
(0 -0 -2.65895e-05)
(0 -0 -2.69234e-05)
(0 -0 -2.72683e-05)
(0 -0 -2.76119e-05)
(0 -0 -2.7971e-05)
(0 -0 -2.83195e-05)
(0 -0 -2.86583e-05)
(0 -0 -2.89963e-05)
(0 -0 -2.93021e-05)
(0 -0 -2.95906e-05)
(0 -0 -2.98943e-05)
(0 -0 -3.02102e-05)
(0 -0 -3.05384e-05)
(0 -0 -3.09303e-05)
(0 -0 -3.17038e-05)
(0 -0 -3.42315e-05)
(0 -0 -4.26456e-05)
(0 -0 -6.34816e-05)
(0 -0 -9.2658e-05)
(0 -0 -0.000104382)
(0 -0 0.0210524)
(0 -0 -0.00380389)
(0 -0 -0.00762409)
(0 -0 -0.00309233)
(0 -0 -0.000777674)
(0 -0 -0.00013556)
(0 -0 -6.50252e-06)
(0 -0 1.37117e-05)
(0 -0 1.52844e-05)
(0 -0 1.42431e-05)
(0 -0 1.28138e-05)
(0 -0 1.14861e-05)
(0 -0 1.00624e-05)
(0 -0 8.90234e-06)
(0 -0 7.53792e-06)
(0 -0 6.38721e-06)
(0 -0 5.28352e-06)
(0 -0 4.07889e-06)
(0 -0 2.95125e-06)
(0 -0 1.93215e-06)
(0 -0 7.81384e-07)
(0 -0 -2.43714e-07)
(0 -0 -1.21746e-06)
(0 -0 -2.27223e-06)
(0 -0 -3.26316e-06)
(0 -0 -4.22272e-06)
(0 -0 -5.19229e-06)
(0 -0 -6.13381e-06)
(0 -0 -7.09392e-06)
(0 -0 -8.0161e-06)
(0 -0 -8.95396e-06)
(0 -0 -9.85888e-06)
(0 -0 -1.07632e-05)
(0 -0 -1.16495e-05)
(0 -0 -1.2528e-05)
(0 -0 -1.33764e-05)
(0 -0 -1.42619e-05)
(0 -0 -1.51654e-05)
(0 -0 -1.60583e-05)
(0 -0 -1.69348e-05)
(0 -0 -1.78501e-05)
(0 -0 -1.87847e-05)
(0 -0 -1.9755e-05)
(0 -0 -2.06978e-05)
(0 -0 -2.16269e-05)
(0 -0 -2.2582e-05)
(0 -0 -2.35603e-05)
(0 -0 -2.45752e-05)
(0 -0 -2.5694e-05)
(0 -0 -2.72343e-05)
(0 -0 -3.05843e-05)
(0 -0 -3.9883e-05)
(0 -0 -6.17321e-05)
(0 -0 -9.19299e-05)
(0 -0 -0.000103666)
(0 -0 0.0224521)
(0 -0 -0.00317218)
(0 -0 -0.00771718)
(0 -0 -0.00310733)
(0 -0 -0.000727341)
(0 -0 -6.59043e-05)
(0 -0 6.78075e-05)
(0 -0 8.94323e-05)
(0 -0 9.1825e-05)
(0 -0 9.13897e-05)
(0 -0 9.04627e-05)
(0 -0 8.95644e-05)
(0 -0 8.84508e-05)
(0 -0 8.75877e-05)
(0 -0 8.65269e-05)
(0 -0 8.55663e-05)
(0 -0 8.46794e-05)
(0 -0 8.3668e-05)
(0 -0 8.26453e-05)
(0 -0 8.1785e-05)
(0 -0 8.07675e-05)
(0 -0 7.98212e-05)
(0 -0 7.89409e-05)
(0 -0 7.79663e-05)
(0 -0 7.70286e-05)
(0 -0 7.6127e-05)
(0 -0 7.51688e-05)
(0 -0 7.4261e-05)
(0 -0 7.33069e-05)
(0 -0 7.23809e-05)
(0 -0 7.1428e-05)
(0 -0 7.0459e-05)
(0 -0 6.95248e-05)
(0 -0 6.86183e-05)
(0 -0 6.76586e-05)
(0 -0 6.66718e-05)
(0 -0 6.5596e-05)
(0 -0 6.45642e-05)
(0 -0 6.3537e-05)
(0 -0 6.24869e-05)
(0 -0 6.13689e-05)
(0 -0 6.01894e-05)
(0 -0 5.89649e-05)
(0 -0 5.77435e-05)
(0 -0 5.65e-05)
(0 -0 5.52151e-05)
(0 -0 5.3897e-05)
(0 -0 5.25192e-05)
(0 -0 5.09931e-05)
(0 -0 4.89937e-05)
(0 -0 4.51283e-05)
(0 -0 3.5212e-05)
(0 -0 1.23507e-05)
(0 -0 -1.97918e-05)
(0 -0 -3.30419e-05)
(0 -0 0.0240768)
(0 -0 -0.00271783)
(0 -0 -0.00801036)
(0 -0 -0.00320115)
(0 -0 -0.000693481)
(0 -0 4.68949e-06)
(0 -0 0.000149505)
(0 -0 0.000176308)
(0 -0 0.000182515)
(0 -0 0.000185366)
(0 -0 0.000187394)
(0 -0 0.000189239)
(0 -0 0.000190621)
(0 -0 0.000192078)
(0 -0 0.000193266)
(0 -0 0.000194332)
(0 -0 0.000195401)
(0 -0 0.000196315)
(0 -0 0.000197067)
(0 -0 0.000197946)
(0 -0 0.000198643)
(0 -0 0.000199302)
(0 -0 0.000199998)
(0 -0 0.000200585)
(0 -0 0.000201163)
(0 -0 0.000201761)
(0 -0 0.000202238)
(0 -0 0.000202774)
(0 -0 0.000203261)
(0 -0 0.000203717)
(0 -0 0.000204164)
(0 -0 0.000204594)
(0 -0 0.000205047)
(0 -0 0.000205514)
(0 -0 0.000205863)
(0 -0 0.000206186)
(0 -0 0.000206436)
(0 -0 0.000206744)
(0 -0 0.000207047)
(0 -0 0.000207273)
(0 -0 0.000207454)
(0 -0 0.000207585)
(0 -0 0.000207673)
(0 -0 0.000207712)
(0 -0 0.000207698)
(0 -0 0.00020765)
(0 -0 0.000207577)
(0 -0 0.000207443)
(0 -0 0.000207142)
(0 -0 0.000206337)
(0 -0 0.000203623)
(0 -0 0.000194779)
(0 -0 0.000172571)
(0 -0 0.000139638)
(0 -0 0.000124938)
(0 -0 0.0252535)
(0 -0 -0.00360107)
(0 -0 -0.008903)
(0 -0 -0.00357172)
(0 -0 -0.000812852)
(0 -0 -4.86635e-05)
(0 -0 0.000115038)
(0 -0 0.000150001)
(0 -0 0.000161987)
(0 -0 0.00016991)
(0 -0 0.000176586)
(0 -0 0.000182802)
(0 -0 0.000188289)
(0 -0 0.000193576)
(0 -0 0.000198466)
(0 -0 0.00020297)
(0 -0 0.000207324)
(0 -0 0.000211495)
(0 -0 0.00021534)
(0 -0 0.00021919)
(0 -0 0.000222827)
(0 -0 0.0002263)
(0 -0 0.000229776)
(0 -0 0.000233109)
(0 -0 0.000236357)
(0 -0 0.00023962)
(0 -0 0.000242727)
(0 -0 0.000245855)
(0 -0 0.000248955)
(0 -0 0.000251982)
(0 -0 0.000255042)
(0 -0 0.000258104)
(0 -0 0.000261127)
(0 -0 0.000264165)
(0 -0 0.000267111)
(0 -0 0.000270054)
(0 -0 0.000273022)
(0 -0 0.00027599)
(0 -0 0.000278948)
(0 -0 0.000281881)
(0 -0 0.000284843)
(0 -0 0.000287802)
(0 -0 0.000290729)
(0 -0 0.00029359)
(0 -0 0.000296417)
(0 -0 0.000299266)
(0 -0 0.000302135)
(0 -0 0.000304976)
(0 -0 0.000307688)
(0 -0 0.000309923)
(0 -0 0.000310274)
(0 -0 0.000304576)
(0 -0 0.000285958)
(0 -0 0.000257375)
(0 -0 0.000246348)
(0 -0 0.0254066)
(0 -0 -0.00616492)
(0 -0 -0.0102598)
(0 -0 -0.00414794)
(0 -0 -0.00109885)
(0 -0 -0.00024594)
(0 -0 -6.27036e-05)
(0 -0 -2.35808e-05)
(0 -0 -9.58613e-06)
(0 -0 5.48633e-09)
(0 -0 8.23924e-06)
(0 -0 1.60286e-05)
(0 -0 2.30984e-05)
(0 -0 2.98281e-05)
(0 -0 3.6176e-05)
(0 -0 4.20642e-05)
(0 -0 4.77035e-05)
(0 -0 5.32035e-05)
(0 -0 5.83119e-05)
(0 -0 6.33362e-05)
(0 -0 6.81908e-05)
(0 -0 7.28025e-05)
(0 -0 7.74092e-05)
(0 -0 8.18849e-05)
(0 -0 8.62237e-05)
(0 -0 9.05811e-05)
(0 -0 9.48105e-05)
(0 -0 9.90299e-05)
(0 -0 0.000103255)
(0 -0 0.000107414)
(0 -0 0.000111637)
(0 -0 0.00011587)
(0 -0 0.000120013)
(0 -0 0.000124198)
(0 -0 0.000128437)
(0 -0 0.00013265)
(0 -0 0.000136959)
(0 -0 0.000141259)
(0 -0 0.000145572)
(0 -0 0.000149983)
(0 -0 0.000154504)
(0 -0 0.00015907)
(0 -0 0.000163631)
(0 -0 0.000168181)
(0 -0 0.000172767)
(0 -0 0.000177436)
(0 -0 0.000182192)
(0 -0 0.000186987)
(0 -0 0.000191746)
(0 -0 0.000196114)
(0 -0 0.000198678)
(0 -0 0.000195516)
(0 -0 0.000181616)
(0 -0 0.000163902)
(0 -0 0.00016583)
(0 -0 0.0247732)
(0 -0 -0.00983527)
(0 -0 -0.011864)
(0 -0 -0.00480408)
(0 -0 -0.0014112)
(0 -0 -0.000463904)
(0 -0 -0.000264924)
(0 -0 -0.000227149)
(0 -0 -0.000217036)
(0 -0 -0.000211254)
(0 -0 -0.000206429)
(0 -0 -0.000201665)
(0 -0 -0.000197268)
(0 -0 -0.000193061)
(0 -0 -0.000188988)
(0 -0 -0.000185194)
(0 -0 -0.000181575)
(0 -0 -0.000177923)
(0 -0 -0.000174575)
(0 -0 -0.000171298)
(0 -0 -0.000168021)
(0 -0 -0.000164954)
(0 -0 -0.000161846)
(0 -0 -0.000158778)
(0 -0 -0.000155802)
(0 -0 -0.000152778)
(0 -0 -0.000149782)
(0 -0 -0.000146768)
(0 -0 -0.000143689)
(0 -0 -0.000140593)
(0 -0 -0.000137419)
(0 -0 -0.000134227)
(0 -0 -0.000131045)