/*--------------------------------*- C++ -*----------------------------------*\
| =========                 |                                                 |
| \\      /  F ield         | OpenFOAM: The Open Source CFD Toolbox           |
|  \\    /   O peration     | Version:  2412                                  |
|   \\  /    A nd           | Website:  www.openfoam.com                      |
|    \\/     M anipulation  |                                                 |
\*---------------------------------------------------------------------------*/
FoamFile
{
    version     2.0;
    format      ascii;
    arch        "LSB;label=32;scalar=64";
    class       volScalarField;
    location    "26.5";
    object      p;
}
// * * * * * * * * * * * * * * * * * * * * * * * * * * * * * * * * * * * * * //

dimensions      [0 2 -2 0 0 0 0];

internalField   nonuniform List<scalar> 
63420
(
0.000915644
0.000915906
0.000916739
0.000918025
0.000919747
0.000921892
0.000924444
0.000927388
0.000930712
0.000934408
0.000938466
0.000942879
0.00094764
0.000952745
0.00095819
0.000963968
0.000970079
0.000976517
0.000983281
0.000990368
0.000997777
0.00100551
0.00101356
0.00102193
0.00103063
0.00103966
0.00104901
0.00105869
0.00106871
0.00107906
0.00108976
0.0011008
0.00111219
0.00112393
0.00113603
0.00114849
0.00116131
0.00117449
0.00118805
0.00120198
0.00121629
0.00123098
0.00124606
0.00126153
0.00127739
0.00129365
0.00131032
0.00132739
0.00134487
0.00136276
0.00138108
0.00139982
0.00141899
0.0014386
0.00145864
0.000915584
0.000915846
0.000916678
0.000917963
0.000919684
0.000921828
0.000924377
0.000927319
0.000930641
0.000934334
0.000938389
0.000942798
0.000947556
0.000952657
0.000958097
0.000963871
0.000969976
0.000976409
0.000983167
0.000990248
0.00099765
0.00100537
0.00101342
0.00102178
0.00103047
0.00103949
0.00104883
0.0010585
0.00106851
0.00107885
0.00108954
0.00110056
0.00111194
0.00112366
0.00113575
0.00114818
0.00116099
0.00117415
0.00118769
0.0012016
0.00121588
0.00123055
0.0012456
0.00126105
0.00127688
0.00129311
0.00130974
0.00132678
0.00134422
0.00136208
0.00138036
0.00139905
0.00141818
0.00143773
0.00145772
0.000915463
0.000915725
0.000916556
0.000917839
0.000919558
0.000921698
0.000924244
0.000927182
0.000930499
0.000934186
0.000938235
0.000942638
0.000947388
0.000952481
0.000957912
0.000963676
0.000969771
0.000976193
0.000982939
0.000990007
0.000997396
0.0010051
0.00101313
0.00102148
0.00103015
0.00103915
0.00104847
0.00105812
0.00106811
0.00107843
0.00108909
0.00110009
0.00111143
0.00112313
0.00113518
0.00114758
0.00116035
0.00117348
0.00118697
0.00120084
0.00121508
0.0012297
0.0012447
0.00126008
0.00127586
0.00129203
0.0013086
0.00132556
0.00134294
0.00136072
0.00137891
0.00139752
0.00141655
0.00143601
0.00145589
0.000915282
0.000915543
0.000916373
0.000917653
0.000919368
0.000921504
0.000924045
0.000926976
0.000930286
0.000933965
0.000938004
0.000942397
0.000947136
0.000952217
0.000957635
0.000963385
0.000969464
0.000975869
0.000982597
0.000989646
0.000997015
0.0010047
0.00101271
0.00102103
0.00102968
0.00103864
0.00104794
0.00105756
0.00106751
0.00107779
0.00108841
0.00109937
0.00111068
0.00112233
0.00113433
0.00114668
0.00115939
0.00117246
0.0011859
0.0011997
0.00121387
0.00122842
0.00124334
0.00125865
0.00127434
0.00129041
0.00130688
0.00132375
0.00134101
0.00135868
0.00137675
0.00139523
0.00141413
0.00143344
0.00145316
0.000915041
0.000915302
0.000916129
0.000917406
0.000919116
0.000921246
0.000923779
0.000926701
0.000930002
0.00093367
0.000937697
0.000942076
0.000946801
0.000951865
0.000957265
0.000962996
0.000969055
0.000975438
0.000982143
0.000989166
0.000996508
0.00100417
0.00101214
0.00102043
0.00102904
0.00103797
0.00104723
0.0010568
0.00106671
0.00107695
0.00108752
0.00109842
0.00110967
0.00112126
0.0011332
0.00114548
0.00115812
0.00117111
0.00118447
0.00119818
0.00121227
0.00122672
0.00124154
0.00125674
0.00127231
0.00128827
0.00130461
0.00132134
0.00133846
0.00135597
0.00137388
0.00139219
0.0014109
0.00143002
0.00144954
0.000914741
0.000915001
0.000915824
0.000917097
0.000918801
0.000920923
0.000923447
0.000926359
0.000929647
0.000933302
0.000937313
0.000941676
0.000946382
0.000951426
0.000956804
0.000962512
0.000968545
0.0009749
0.000981575
0.000988567
0.000995875
0.0010035
0.00101143
0.00101968
0.00102825
0.00103713
0.00104634
0.00105586
0.00106571
0.00107589
0.0010864
0.00109724
0.00110841
0.00111993
0.00113179
0.00114399
0.00115654
0.00116944
0.00118269
0.0011963
0.00121027
0.0012246
0.00123929
0.00125436
0.00126979
0.0012856
0.00130178
0.00131834
0.00133528
0.00135261
0.00137032
0.00138842
0.00140691
0.00142578
0.00144505
0.00091438
0.000914639
0.000915459
0.000916726
0.000918423
0.000920537
0.00092305
0.000925949
0.000929222
0.00093286
0.000936854
0.000941196
0.00094588
0.0009509
0.000956252
0.000961931
0.000967934
0.000974256
0.000980896
0.00098785
0.000995117
0.0010027
0.00101059
0.00101879
0.0010273
0.00103613
0.00104528
0.00105474
0.00106452
0.00107463
0.00108506
0.00109582
0.00110691
0.00111834
0.0011301
0.0011422
0.00115464
0.00116743
0.00118056
0.00119405
0.00120788
0.00122207
0.00123662
0.00125152
0.00126679
0.00128241
0.00129841
0.00131477
0.0013315
0.0013486
0.00136608
0.00138392
0.00140215
0.00142074
0.0014397
0.00147916
0.00150043
0.0015226
0.00154572
0.00156985
0.00159505
0.00162139
0.00164893
0.00167776
0.00170795
0.00173959
0.00177278
0.00180762
0.00184421
0.00188269
0.00192318
0.00196583
0.0020108
0.00205825
0.00210838
0.00216139
0.00221751
0.00227698
0.00234009
0.00240712
0.00247841
0.00255432
0.00263526
0.00272166
0.00281402
0.00291286
0.00301878
0.00313241
0.00325445
0.00338564
0.00352676
0.00367859
0.00384188
0.00401728
0.00420517
0.00440551
0.00461757
0.00483959
0.00506866
0.00530096
0.00553274
0.00576058
0.00599101
0.00628864
0.00674191
0.00147825
0.0014995
0.00152166
0.00154477
0.0015689
0.0015941
0.00162044
0.00164798
0.0016768
0.00170699
0.00173862
0.0017718
0.00180663
0.00184321
0.00188167
0.00192215
0.00196477
0.00200971
0.00205713
0.00210721
0.00216016
0.00221621
0.0022756
0.00233859
0.00240549
0.00247661
0.00255232
0.00263301
0.00271909
0.00281105
0.0029094
0.0030147
0.00312754
0.00324858
0.0033785
0.00351798
0.0036677
0.00382826
0.0040001
0.00418337
0.00437766
0.00458181
0.00479352
0.00500916
0.0052241
0.00543369
0.005634
0.0058307
0.00608423
0.00647609
0.00147636
0.00149761
0.00151977
0.00154288
0.001567
0.0015922
0.00161853
0.00164606
0.00167488
0.00170505
0.00173668
0.00176984
0.00180465
0.00184121
0.00187964
0.00192007
0.00196265
0.00200753
0.00205488
0.00210487
0.00215771
0.00221362
0.00227284
0.00233562
0.00240226
0.00247306
0.00254836
0.00262855
0.00271401
0.00280519
0.00290257
0.00300664
0.00311793
0.003237
0.0033644
0.00350065
0.0036462
0.00380135
0.00396615
0.00414019
0.00432241
0.00451071
0.00470167
0.00489027
0.00507015
0.00523487
0.00537968
0.00550877
0.00567014
0.00595154
0.00147354
0.00149479
0.00151694
0.00154004
0.00156416
0.00158934
0.00161566
0.00164318
0.00167198
0.00170214
0.00173374
0.00176688
0.00180165
0.00183817
0.00187655
0.00191692
0.00195943
0.00200421
0.00205144
0.00210129
0.00215396
0.00220965
0.0022686
0.00233105
0.00239728
0.00246758
0.00254227
0.00262168
0.00270619
0.00279619
0.00289208
0.00299428
0.00310322
0.00321931
0.00334291
0.00347429
0.00361358
0.00376064
0.0039149
0.0040752
0.00423941
0.00440412
0.00456416
0.00471243
0.00484005
0.00493774
0.00499947
0.00503055
0.00506371
0.00515063
0.00146981
0.00149105
0.00151319
0.00153629
0.00156039
0.00158557
0.00161188
0.00163939
0.00166818
0.00169832
0.0017299
0.00176301
0.00179775
0.00183422
0.00187255
0.00191285
0.00195527
0.00199994
0.00204703
0.0020967
0.00214914
0.00220456
0.00226317
0.0023252
0.0023909
0.00246054
0.00253441
0.00261281
0.00269606
0.00278447
0.00287837
0.00297807
0.00308385
0.00319591
0.00331438
0.00343918
0.00356999
0.00370605
0.00384603
0.00398769
0.00412756
0.00426043
0.00437894
0.00447327
0.00453138
0.0045403
0.00449134
0.00439267
0.00426589
0.00405234
0.00146517
0.00148642
0.00150857
0.00153168
0.0015558
0.00158099
0.00160733
0.00163487
0.00166369
0.00169386
0.00172548
0.00175862
0.0017934
0.00182991
0.00186826
0.00190859
0.00195102
0.0019957
0.00204277
0.00209241
0.00214479
0.00220011
0.00225856
0.00232037
0.00238577
0.002455
0.00252832
0.00260599
0.00268827
0.0027754
0.00286763
0.00296512
0.003068
0.00317622
0.00328958
0.00340754
0.00352914
0.00365273
0.00377573
0.00389421
0.00400243
0.00409226
0.00415267
0.00416952
0.00412588
0.00400381
0.00379027
0.00349422
0.00312904
0.00251038
0.00145962
0.0014808
0.00150289
0.00152595
0.00155002
0.00157517
0.00160146
0.00162896
0.00165773
0.00168786
0.00171943
0.00175253
0.00178726
0.00182371
0.00186201
0.00190228
0.00194464
0.00198923
0.0020362
0.00208571
0.00213794
0.00219307
0.0022513
0.00231281
0.00237785
0.00244661
0.00251933
0.00259624
0.00267753
0.0027634
0.00285398
0.00294933
0.00304939
0.00315389
0.00326227
0.0033735
0.00348589
0.00359674
0.0037019
0.00379523
0.00386787
0.00390753
0.00389792
0.00381876
0.00364665
0.00335648
0.00293185
0.00238577
0.00168164
0.000534047
-0.00348259
-0.00354907
-0.00357163
-0.00356338
-0.00353566
-0.00349138
-0.00343224
-0.00335985
-0.00327621
-0.00318288
-0.00308032
-0.00296977
-0.00285238
-0.00272915
-0.0026011
-0.0024692
-0.00233444
-0.00219775
-0.00206008
-0.00192233
-0.00178533
-0.00164987
-0.00151672
-0.00138666
-0.00126032
-0.00113824
-0.00102088
-0.000908679
-0.000801987
-0.00070108
-0.00060616
-0.000517357
-0.000434739
-0.000358308
-0.00028801
-0.000223738
-0.000165339
-0.000112618
-6.53479e-05
-2.32709e-05
1.38921e-05
4.64373e-05
7.46721e-05
9.891e-05
0.000119466
0.000136652
0.000150774
0.000162127
0.000170992
0.00017764
-0.00355121
-0.00359757
-0.00360797
-0.0035924
-0.0035597
-0.00351209
-0.00345084
-0.00337711
-0.00329295
-0.00319903
-0.00309622
-0.00298563
-0.00286831
-0.00274516
-0.00261719
-0.00248533
-0.00235058
-0.00221386
-0.00207608
-0.00193815
-0.00180092
-0.00166516
-0.00153166
-0.00140117
-0.00127437
-0.0011518
-0.00103391
-0.000921153
-0.000813885
-0.000712389
-0.000616873
-0.000527474
-0.000444264
-0.000367251
-0.000296384
-0.000231559
-0.000172626
-0.000119393
-7.16324e-05
-2.90896e-05
8.51454e-06
4.1476e-05
7.01022e-05
9.47072e-05
0.000115607
0.000133114
0.000147535
0.000159168
0.000168293
0.000175188
-0.00368776
-0.00369333
-0.00367954
-0.00364941
-0.00360664
-0.00355229
-0.00348669
-0.00340987
-0.00332472
-0.00322983
-0.00312663
-0.00301593
-0.00289883
-0.00277581
-0.00264803
-0.00251637
-0.00238169
-0.00224493
-0.00210699
-0.00196878
-0.00183113
-0.00169484
-0.00156067
-0.00142939
-0.00130172
-0.00117821
-0.00105931
-0.000945488
-0.000837112
-0.000734481
-0.000637815
-0.000547265
-0.000462909
-0.000384767
-0.000312793
-0.000246893
-0.000186921
-0.000132689
-8.39737e-05
-4.05219e-05
-2.05624e-06
3.17185e-05
6.111e-05
8.64329e-05
0.000108004
0.000126139
0.000141147
0.000153326
0.000162961
0.000170341
-0.00389812
-0.00382978
-0.00378403
-0.00373198
-0.00367394
-0.00360954
-0.00353669
-0.00345289
-0.00336819
-0.00327279
-0.00316943
-0.00305803
-0.00294146
-0.00281899
-0.0026916
-0.00256022
-0.00242571
-0.00228896
-0.00215087
-0.00201231
-0.00187414
-0.00173714
-0.00160208
-0.00146974
-0.00134087
-0.00121604
-0.00109574
-0.000980428
-0.000870496
-0.000766267
-0.000667979
-0.000575797
-0.000489816
-0.000410067
-0.000336519
-0.000269085
-0.000207628
-0.000151967
-0.000101884
-5.71285e-05
-1.74262e-05
1.75173e-05
4.80092e-05
7.43651e-05
9.69038e-05
0.000115943
0.000131795
0.000144762
0.000155133
0.000163218
-0.00416479
-0.00400805
-0.0039193
-0.00383555
-0.00375709
-0.00367974
-0.00359943
-0.0035178
-0.00342316
-0.00332456
-0.00322032
-0.00310956
-0.00299298
-0.00287092
-0.00274408
-0.0026132
-0.00247906
-0.0023425
-0.00220439
-0.00206559
-0.00192695
-0.00178926
-0.00165328
-0.00151978
-0.00138955
-0.00126322
-0.0011413
-0.00102424
-0.000912474
-0.000806339
-0.000706099
-0.000611942
-0.000523981
-0.000442264
-0.000366776
-0.000297442
-0.000234138
-0.000176691
-0.000124891
-7.84935e-05
-3.72276e-05
-8.01721e-07
3.10905e-05
5.87646e-05
8.25405e-05
0.000102738
0.000119673
0.000133653
0.000144974
0.000153968
-0.00444603
-0.00422922
-0.00408753
-0.003965
-0.00385836
-0.00376034
-0.00366542
-0.00357552
-0.00347837
-0.00337775
-0.00327243
-0.00316172
-0.00304572
-0.00292468
-0.00279903
-0.00266934
-0.00253628
-0.00240061
-0.00226314
-0.00212469
-0.00198611
-0.00184819
-0.00171169
-0.00157737
-0.001446
-0.00131831
-0.00119483
-0.00107602
-0.00096235
-0.000854192
-0.000751835
-0.000655492
-0.000565306
-0.000481346
-0.000403618
-0.000332067
-0.000266585
-0.000207013
-0.000153154
-0.00010477
-6.15997e-05
-2.33561e-05
1.02635e-05
3.95724e-05
6.489e-05
8.65367e-05
0.00010483
0.000120081
0.0001326
0.000142735
-0.00471644
-0.0045076
-0.00431545
-0.00414432
-0.0039985
-0.00386919
-0.00375965
-0.00365339
-0.00354856
-0.00344342
-0.00333558
-0.00322396
-0.00310808
-0.00298779
-0.00286318
-0.00273463
-0.00260263
-0.00246784
-0.00233097
-0.0021928
-0.00205415
-0.00191583
-0.0017786
-0.00164319
-0.00151042
-0.00138103
-0.00125561
-0.00113468
-0.00101872
-0.000908149
-0.000803284
-0.000704372
-0.000611585
-0.000525021
-0.000444711
-0.00037062
-0.000302658
-0.000240684
-0.000184509
-0.00013391
-8.8629e-05
-4.83853e-05
-1.2879e-05
1.82023e-05
4.51785e-05
6.83715e-05
8.81017e-05
0.000104683
0.000118439
0.000129714
0.000182333
0.000185234
0.000186614
0.000186662
0.000185524
0.000183339
0.000180246
0.000176374
0.000171848
0.000166781
0.000161281
0.000155448
0.000149372
0.000143134
0.000136807
0.000130454
0.000124129
0.000117879
0.000111742
0.00010575
9.9928e-05
9.4295e-05
8.88652e-05
8.36484e-05
7.86506e-05
7.38747e-05
6.93209e-05
6.49876e-05
6.08714e-05
5.69677e-05
5.32708e-05
4.97747e-05
4.64727e-05
4.33579e-05
4.04234e-05
3.7662e-05
3.50667e-05
3.26302e-05
3.03455e-05
2.82052e-05
2.62024e-05
2.43293e-05
2.25806e-05
2.09448e-05
1.94205e-05
1.80031e-05
1.66766e-05
1.54415e-05
1.42921e-05
1.3222e-05
1.22263e-05
1.13003e-05
1.04394e-05
9.63945e-06
8.89643e-06
8.20663e-06
7.56652e-06
6.97279e-06
6.42233e-06
5.9122e-06
5.43966e-06
5.00214e-06
4.59721e-06
4.22262e-06
3.87624e-06
3.5561e-06
3.26034e-06
2.98724e-06
2.7352e-06
2.5027e-06
2.28834e-06
2.09082e-06
1.90893e-06
1.74152e-06
1.58757e-06
1.44607e-06
1.31614e-06
1.19687e-06
1.08761e-06
9.87365e-07
8.95959e-07
8.11845e-07
7.36007e-07
6.65262e-07
6.0345e-07
5.43006e-07
4.94841e-07
4.40681e-07
4.07663e-07
3.53938e-07
3.40488e-07
2.78278e-07
2.92735e-07
2.09299e-07
2.63925e-07
1.43669e-07
2.52605e-07
8.06508e-08
2.54654e-07
2.32096e-08
2.62343e-07
-2.21701e-08
2.66697e-07
-4.92838e-08
2.62618e-07
-5.94293e-08
2.57182e-07
-6.88841e-08
2.7524e-07
-1.11724e-07
3.58036e-07
-2.34386e-07
5.53101e-07
-4.85024e-07
8.96769e-07
0.000180145
0.000183164
0.000184662
0.000184847
0.000183846
0.000181793
0.000178825
0.000175072
0.000170656
0.000165692
0.000160288
0.000154544
0.00014855
0.000142388
0.000136129
0.000129839
0.000123572
0.000117375
0.000111287
0.000105339
9.95564e-05
9.39596e-05
8.85626e-05
8.33754e-05
7.84044e-05
7.36527e-05
6.91209e-05
6.48075e-05
6.07092e-05
5.68217e-05
5.31395e-05
4.96566e-05
4.63666e-05
4.32626e-05
4.03379e-05
3.75853e-05
3.49979e-05
3.25686e-05
3.02903e-05
2.81558e-05
2.61581e-05
2.42897e-05
2.25451e-05
2.0913e-05
1.9392e-05
1.79776e-05
1.66537e-05
1.5421e-05
1.42738e-05
1.32056e-05
1.22117e-05
1.12872e-05
1.04277e-05
9.62899e-06
8.88711e-06
8.19831e-06
7.5591e-06
6.96618e-06
6.41644e-06
5.90696e-06
5.435e-06
4.99799e-06
4.59352e-06
4.21934e-06
3.87333e-06
3.55351e-06
3.25805e-06
2.9852e-06
2.73339e-06
2.5011e-06
2.28692e-06
2.08956e-06
1.90782e-06
1.74054e-06
1.5867e-06
1.4453e-06
1.31545e-06
1.19626e-06
1.08707e-06
9.8689e-07
8.95538e-07
8.11473e-07
7.35679e-07
6.64972e-07
6.03193e-07
5.42781e-07
4.9464e-07
4.40507e-07
4.07507e-07
3.53806e-07
3.40365e-07
2.78179e-07
2.92636e-07
2.09226e-07
2.63845e-07
1.43618e-07
2.52539e-07
8.0614e-08
2.546e-07
2.31807e-08
2.623e-07
-2.21932e-08
2.66662e-07
-4.93027e-08
2.62586e-07
-5.94411e-08
2.57147e-07
-6.88819e-08
2.75189e-07
-1.117e-07
3.57975e-07
-2.34355e-07
5.53069e-07
-4.85015e-07
8.96851e-07
0.000175792
0.000179052
0.000180793
0.000181251
0.000180521
0.000178727
0.000176006
0.000172486
0.000168289
0.00016353
0.000158316
0.000152747
0.000146915
0.000140902
0.000134781
0.000128617
0.000122465
0.000116373
0.00011038
0.000104519
9.88162e-05
9.32912e-05
8.79593e-05
8.28312e-05
7.79136e-05
7.32102e-05
6.87221e-05
6.44482e-05
6.03856e-05
5.65304e-05
5.28774e-05
4.9421e-05
4.61548e-05
4.30725e-05
4.01672e-05
3.74322e-05
3.48607e-05
3.24456e-05
3.01801e-05
2.8057e-05
2.60697e-05
2.42105e-05
2.24742e-05
2.08495e-05
1.93351e-05
1.79266e-05
1.66081e-05
1.53801e-05
1.42372e-05
1.31729e-05
1.21824e-05
1.1261e-05
1.04043e-05
9.60811e-06
8.86847e-06
8.18169e-06
7.54428e-06
6.95298e-06
6.40468e-06
5.89648e-06
5.42568e-06
4.9897e-06
4.58615e-06
4.21279e-06
3.86751e-06
3.54835e-06
3.25346e-06
2.98114e-06
2.72978e-06
2.49789e-06
2.28408e-06
2.08704e-06
1.90558e-06
1.73856e-06
1.58494e-06
1.44374e-06
1.31408e-06
1.19505e-06
1.08599e-06
9.85938e-07
8.94694e-07
8.10731e-07
7.3502e-07
6.64392e-07
6.02677e-07
5.4233e-07
4.94235e-07
4.40162e-07
4.0719e-07
3.53542e-07
3.40116e-07
2.77979e-07
2.92433e-07
2.09081e-07
2.63682e-07
1.43516e-07
2.52408e-07
8.0538e-08
2.54489e-07
2.31243e-08
2.62215e-07
-2.22375e-08
2.6659e-07
-4.93384e-08
2.62524e-07
-5.94631e-08
2.57073e-07
-6.88712e-08
2.7508e-07
-1.11632e-07
3.57822e-07
-2.34258e-07
5.52974e-07
-4.84965e-07
8.97005e-07
0.000169329
0.000172956
0.000175072
0.000175936
0.000175606
0.000174195
0.000171837
0.00016866
0.000164785
0.000160326
0.000155391
0.000150081
0.000144488
0.000138695
0.000132777
0.000126799
0.000120817
0.000114881
0.00010903
0.000103299
9.77131e-05
9.22949e-05
8.70598e-05
8.20194e-05
7.71813e-05
7.25498e-05
6.81268e-05
6.39117e-05
5.99024e-05
5.60954e-05
5.2486e-05
4.90689e-05
4.58384e-05
4.27883e-05
3.99121e-05
3.72033e-05
3.46554e-05
3.22616e-05
3.00152e-05
2.79093e-05
2.59374e-05
2.40919e-05
2.2368e-05
2.07544e-05
1.92499e-05
1.78502e-05
1.65397e-05
1.53189e-05
1.41824e-05
1.31239e-05
1.21385e-05
1.12218e-05
1.03693e-05
9.57683e-06
8.84055e-06
8.15678e-06
7.52208e-06
6.93319e-06
6.38705e-06
5.88079e-06
5.41171e-06
4.97728e-06
4.57511e-06
4.20298e-06
3.85879e-06
3.5406e-06
3.24658e-06
2.97503e-06
2.72437e-06
2.49309e-06
2.27982e-06
2.08326e-06
1.90223e-06
1.73559e-06
1.58231e-06
1.44141e-06
1.31202e-06
1.19322e-06
1.08438e-06
9.8451e-07
8.93428e-07
8.09616e-07
7.3403e-07
6.6352e-07
6.01904e-07
5.41651e-07
4.93627e-07
4.39641e-07
4.06715e-07
3.53144e-07
3.39743e-07
2.77679e-07
2.92132e-07
2.0886e-07
2.63437e-07
1.4336e-07
2.52211e-07
8.04247e-08
2.54324e-07
2.30395e-08
2.62089e-07
-2.23048e-08
2.66486e-07
-4.93938e-08
2.62434e-07
-5.94976e-08
2.56968e-07
-6.8858e-08
2.74922e-07
-1.11534e-07
3.57602e-07
-2.3412e-07
5.52836e-07
-4.84895e-07
8.97232e-07
0.000160841
0.000164968
0.0001676
0.000168999
0.000169188
0.000168273
0.000166386
0.000163653
0.000160194
0.000156124
0.000151551
0.000146578
0.000141297
0.000135792
0.000130139
0.000124404
0.000118645
0.000112913
0.000107248
0.000101687
9.62558e-05
9.0978e-05
8.58704e-05
8.09456e-05
7.62122e-05
7.16756e-05
6.73385e-05
6.32012e-05
5.92622e-05
5.55188e-05
5.19671e-05
4.86021e-05
4.54188e-05
4.24112e-05
3.95735e-05
3.68995e-05
3.43829e-05
3.20173e-05
2.97962e-05
2.77131e-05
2.57615e-05
2.39344e-05
2.22268e-05
2.06279e-05
1.91367e-05
1.77487e-05
1.64488e-05
1.52375e-05
1.41095e-05
1.30586e-05
1.20802e-05
1.11697e-05
1.03227e-05
9.53522e-06
8.80341e-06
8.12364e-06
7.49253e-06
6.90686e-06
6.3636e-06
5.85991e-06
5.39313e-06
4.96075e-06
4.56041e-06
4.18991e-06
3.84718e-06
3.53029e-06
3.23743e-06
2.96691e-06
2.71716e-06
2.48669e-06
2.27414e-06
2.07823e-06
1.89777e-06
1.73164e-06
1.57881e-06
1.43831e-06
1.30927e-06
1.19079e-06
1.08223e-06
9.82605e-07
8.91741e-07
8.08128e-07
7.32712e-07
6.62358e-07
6.00874e-07
5.40747e-07
4.92819e-07
4.38944e-07
4.06083e-07
3.52612e-07
3.39247e-07
2.77277e-07
2.91732e-07
2.08563e-07
2.63116e-07
1.43146e-07
2.51954e-07
8.02668e-08
2.54114e-07
2.29175e-08
2.6193e-07
-2.24052e-08
2.66362e-07
-4.94788e-08
2.62327e-07
-5.95541e-08
2.5684e-07
-6.88513e-08
2.74724e-07
-1.1142e-07
3.57328e-07
-2.33958e-07
5.52676e-07
-4.8483e-07
8.97548e-07
0.000150438
0.000155216
0.000158508
0.00016056
0.000161377
0.00016106
0.000159739
0.00015754
0.000154583
0.000150982
0.000146848
0.000142282
0.000137379
0.000132223
0.000126893
0.000121455
0.000115969
0.000110486
0.00010505
9.96965e-05
9.44554e-05
8.93502e-05
8.43994e-05
7.96169e-05
7.50126e-05
7.05931e-05
6.63619e-05
6.23206e-05
5.84685e-05
5.48038e-05
5.13233e-05
4.80228e-05
4.48978e-05
4.1943e-05
3.9153e-05
3.6522e-05
3.40442e-05
3.17135e-05
2.95239e-05
2.7469e-05
2.55428e-05
2.37384e-05
2.20511e-05
2.04705e-05
1.89956e-05
1.76223e-05
1.63356e-05
1.51361e-05
1.40187e-05
1.29774e-05
1.20075e-05
1.11047e-05
1.02646e-05
9.48335e-06
8.7571e-06
8.08234e-06
7.45569e-06
6.87402e-06
6.33435e-06
5.83387e-06
5.36995e-06
4.94013e-06
4.54208e-06
4.17361e-06
3.8327e-06
3.51743e-06
3.22601e-06
2.95677e-06
2.70816e-06
2.47871e-06
2.26706e-06
2.07195e-06
1.8922e-06
1.7267e-06
1.57444e-06
1.43443e-06
1.30584e-06
1.18775e-06
1.07954e-06
9.80226e-07
8.89635e-07
8.06268e-07
7.31065e-07
6.60906e-07
5.99586e-07
5.39617e-07
4.91811e-07
4.38073e-07
4.05294e-07
3.51946e-07
3.38625e-07
2.76774e-07
2.91233e-07
2.08193e-07
2.62714e-07
1.4288e-07
2.5163e-07
8.00724e-08
2.53851e-07
2.27691e-08
2.61728e-07
-2.25265e-08
2.66203e-07
-4.95807e-08
2.62191e-07
-5.96213e-08
2.56679e-07
-6.88408e-08
2.74477e-07
-1.11278e-07
3.56987e-07
-2.33755e-07
5.52469e-07
-4.84737e-07
8.97896e-07
0.000138232
0.000143845
0.000147952
0.000150764
0.000152301
0.000152668
0.000151995
0.000150408
0.000148026
0.000144965
0.000141336
0.000137241
0.000132776
0.000128026
0.000123071
0.000117979
0.000112811
0.000107621
0.000102452
9.73427e-05
9.23245e-05
8.74223e-05
8.26561e-05
7.80414e-05
7.35894e-05
6.9308e-05
6.52021e-05
6.12742e-05
5.75251e-05
5.39536e-05
5.05574e-05
4.73334e-05
4.42775e-05
4.13853e-05
3.86519e-05
3.6072e-05
3.36403e-05
3.13512e-05
2.91989e-05
2.71776e-05
2.52816e-05
2.35042e-05
2.18412e-05
2.02825e-05
1.88271e-05
1.74712e-05
1.62002e-05
1.50149e-05
1.39101e-05
1.28802e-05
1.19206e-05
1.1027e-05
1.01952e-05
9.42131e-06
8.70171e-06
8.03291e-06
7.41162e-06
6.83474e-06
6.29935e-06
5.8027e-06
5.34221e-06
4.91545e-06
4.52013e-06
4.1541e-06
3.81536e-06
3.50203e-06
3.21233e-06
2.94463e-06
2.69738e-06
2.46915e-06
2.25858e-06
2.06443e-06
1.88553e-06
1.72079e-06
1.5692e-06
1.42979e-06
1.30173e-06
1.18411e-06
1.07631e-06
9.77374e-07
8.8711e-07
8.04038e-07
7.29089e-07
6.59166e-07
5.9804e-07
5.38265e-07
4.90598e-07
4.37033e-07
4.04339e-07
3.51159e-07
3.37862e-07
2.76194e-07
2.90605e-07
2.07787e-07
2.62181e-07
1.42621e-07
2.51166e-07
7.99266e-08
2.53436e-07
2.27027e-08
2.61366e-07
-2.25455e-08
2.65886e-07
-4.95747e-08
2.61905e-07
-5.95827e-08
2.56374e-07
-6.87167e-08
2.74067e-07
-1.10983e-07
3.56428e-07
-2.33319e-07
5.51965e-07
-4.843e-07
8.97891e-07
0.000123967
0.000130704
0.000135823
0.000139505
0.000141853
0.00014299
0.000143048
0.000142152
0.000140423
0.000137976
0.000134924
0.000131368
0.000127405
0.000123123
0.000118601
0.000113909
0.00010911
0.000104258
9.94001e-05
9.45756e-05
8.98172e-05
8.51521e-05
8.0602e-05
7.61837e-05
7.19102e-05
6.77908e-05
6.3832e-05
6.00377e-05
5.64095e-05
5.29477e-05
4.9651e-05
4.65171e-05
4.35428e-05
4.07245e-05
3.80579e-05
3.55384e-05
3.31611e-05
3.09211e-05
2.88131e-05
2.68316e-05
2.49712e-05
2.3226e-05
2.15917e-05
2.00589e-05
1.86267e-05
1.72914e-05
1.60392e-05
1.48706e-05
1.3781e-05
1.27646e-05
1.18171e-05
1.09344e-05
1.01125e-05
9.34742e-06
8.63574e-06
7.97404e-06
7.35911e-06
6.78792e-06
6.25764e-06
5.76556e-06
5.30915e-06
4.88603e-06
4.49396e-06
4.13084e-06
3.79469e-06
3.48366e-06
3.19602e-06
2.93014e-06
2.68452e-06
2.45774e-06
2.24846e-06
2.05545e-06
1.87757e-06
1.71373e-06
1.56294e-06
1.42425e-06
1.29682e-06
1.17976e-06
1.07246e-06
9.73967e-07
8.84093e-07
8.01374e-07
7.26727e-07
6.57088e-07
5.96189e-07
5.36653e-07
4.89142e-07
4.358e-07
4.03183e-07
3.50238e-07
3.3692e-07
2.7554e-07
2.89801e-07
2.07371e-07
2.61458e-07
1.4242e-07
2.5048e-07
7.99062e-08
2.52765e-07
2.28195e-08
2.6072e-07
-2.23463e-08
2.65281e-07
-4.93433e-08
2.61347e-07
-5.93302e-08
2.55814e-07
-6.83767e-08
2.73381e-07
-1.10413e-07
3.55497e-07
-2.32462e-07
5.50917e-07
-4.83207e-07
8.97199e-07
0.00010845
0.000116209
0.000122309
0.000126907
0.000130128
0.000132102
0.000132959
0.000132822
0.000131813
0.000130047
0.000127635
0.000124681
0.00012128
0.000117522
0.000113487
0.000109246
0.000104864
0.000100396
9.58914e-05
9.13905e-05
8.69284e-05
8.2534e-05
7.82308e-05
7.40374e-05
6.99686e-05
6.60354e-05
6.22457e-05
5.8605e-05
5.51162e-05
5.17809e-05
4.85989e-05
4.5569e-05
4.26891e-05
3.99561e-05
3.73668e-05
3.49172e-05
3.26031e-05
3.042e-05
2.83633e-05
2.6428e-05
2.46091e-05
2.29012e-05
2.13004e-05
1.97977e-05
1.83924e-05
1.70813e-05
1.5851e-05
1.4702e-05
1.36299e-05
1.26294e-05
1.16961e-05
1.08262e-05
1.00157e-05
9.26096e-06
8.55854e-06
7.90513e-06
7.29764e-06
6.73312e-06
6.2088e-06
5.72206e-06
5.27042e-06
4.85157e-06
4.46331e-06
4.10358e-06
3.77046e-06
3.46213e-06
3.1769e-06
2.91317e-06
2.66945e-06
2.44436e-06
2.23659e-06
2.04493e-06
1.86824e-06
1.70546e-06
1.55561e-06
1.41775e-06
1.29106e-06
1.17466e-06
1.06795e-06
9.69969e-07
8.80554e-07
7.98246e-07
7.23957e-07
6.54647e-07
5.94022e-07
5.34755e-07
4.87445e-07
4.34336e-07
4.01848e-07
3.49125e-07
3.35857e-07
2.74714e-07
2.88935e-07
2.06783e-07
2.60733e-07
1.4203e-07
2.49857e-07
7.96688e-08
2.52221e-07
2.26875e-08
2.60254e-07
-2.24173e-08
2.64884e-07
-4.93836e-08
2.60999e-07
-5.93326e-08
2.55452e-07
-6.8275e-08
2.72892e-07
-1.101e-07
3.54826e-07
-2.31975e-07
5.50329e-07
-4.82729e-07
8.97356e-07
9.21183e-05
0.000100837
0.000107893
0.000113418
0.000117535
0.000120376
0.000122065
0.000122725
0.000122474
0.000121428
0.000119697
0.000117384
0.000114585
0.00011139
0.000107879
0.000104125
0.000100195
9.61435e-05
9.20224e-05
8.78743e-05
8.37358e-05
7.96375e-05
7.56048e-05
7.16584e-05
6.78147e-05
6.40864e-05
6.04831e-05
5.70118e-05
5.36771e-05
5.04817e-05
4.74267e-05
4.45121e-05
4.17367e-05
3.90985e-05
3.6595e-05
3.42231e-05
3.19792e-05
2.98595e-05
2.78599e-05
2.5976e-05
2.42035e-05
2.25372e-05
2.09738e-05
1.95047e-05
1.81296e-05
1.68456e-05
1.56397e-05
1.45126e-05
1.34603e-05
1.24775e-05
1.15602e-05
1.07046e-05
9.90696e-06
9.1638e-06
8.47176e-06
7.82767e-06
7.22853e-06
6.6715e-06
6.15388e-06
5.67313e-06
5.22686e-06
4.81279e-06
4.42881e-06
4.0729e-06
3.74319e-06
3.4379e-06
3.15537e-06
2.89405e-06
2.65248e-06
2.4293e-06
2.22322e-06
2.03307e-06
1.85772e-06
1.69613e-06
1.54734e-06
1.41042e-06
1.28456e-06
1.1689e-06
1.06285e-06
9.65461e-07
8.76563e-07
7.94717e-07
7.20834e-07
6.51891e-07
5.91579e-07
5.3261e-07
4.85535e-07
4.32677e-07
4.00352e-07
3.47854e-07
3.34678e-07
2.73754e-07
2.87993e-07
2.06073e-07
2.59972e-07
1.4152e-07
2.49238e-07
7.93027e-08
2.51718e-07
2.24155e-08
2.5986e-07
-2.26376e-08
2.64582e-07
-4.95748e-08
2.60753e-07
-5.948e-08
2.5519e-07
-6.83121e-08
2.72506e-07
-1.09935e-07
3.54288e-07
-2.31687e-07
5.49972e-07
-4.82568e-07
8.98012e-07
7.5117e-05
8.47746e-05
9.27711e-05
9.92215e-05
0.000104244
0.000107964
0.000110504
0.000111982
0.000112515
0.000112217
0.000111196
0.000109554
0.000107387
0.000104785
0.000101829
9.85921e-05
9.5141e-05
9.15343e-05
8.78235e-05
8.40533e-05
8.0262e-05
7.64823e-05
7.27413e-05
6.90615e-05
6.54612e-05
6.19549e-05
5.85539e-05
5.52668e-05
5.20996e-05
4.90565e-05
4.61399e-05
4.33511e-05
4.06898e-05
3.81552e-05
3.57455e-05
3.34586e-05
3.12916e-05
2.92413e-05
2.73044e-05
2.5477e-05
2.37554e-05
2.21349e-05
2.06127e-05
1.91807e-05
1.78389e-05
1.65848e-05
1.54059e-05
1.4303e-05
1.32725e-05
1.23092e-05
1.14096e-05
1.05698e-05
9.78646e-06
9.0561e-06
8.37556e-06
7.74178e-06
7.15189e-06
6.60314e-06
6.09295e-06
5.61884e-06
5.17851e-06
4.76976e-06
4.39052e-06
4.03885e-06
3.71291e-06
3.41099e-06
3.13146e-06
2.87281e-06
2.63362e-06
2.41256e-06
2.20837e-06
2.01989e-06
1.84603e-06
1.68576e-06
1.53815e-06
1.40227e-06
1.27734e-06
1.16251e-06
1.05719e-06
9.60445e-07
8.72123e-07
7.90791e-07
7.17358e-07
6.48824e-07
5.88861e-07
5.30222e-07
4.8341e-07
4.30829e-07
3.98689e-07
3.46437e-07
3.33367e-07
2.72683e-07
2.86947e-07
2.05281e-07
2.59127e-07
1.40949e-07
2.48549e-07
7.88954e-08
2.51159e-07
2.21147e-08
2.5942e-07
-2.28807e-08
2.64245e-07
-4.97887e-08
2.60485e-07
-5.96534e-08
2.54914e-07
-6.83763e-08
2.72107e-07
-1.0979e-07
3.53728e-07
-2.31399e-07
5.49589e-07
-4.82394e-07
8.98761e-07
5.76491e-05
6.8221e-05
7.71361e-05
8.44982e-05
9.0419e-05
9.5018e-05
9.84129e-05
0.000100718
0.000102048
0.000102514
0.000102221
0.00010127
9.97572e-05
9.77706e-05
9.53916e-05
9.26943e-05
8.97458e-05
8.66057e-05
8.3327e-05
7.99557e-05
7.6532e-05
7.30901e-05
6.96591e-05
6.62633e-05
6.29226e-05
5.96535e-05
5.6469e-05
5.33791e-05
5.03917e-05
4.75123e-05
4.47447e-05
4.20912e-05
3.9553e-05
3.71301e-05
3.48218e-05
3.26267e-05
3.05428e-05
2.85678e-05
2.66988e-05
2.49327e-05
2.32663e-05
2.16956e-05
2.02182e-05
1.88266e-05
1.75211e-05
1.62995e-05
1.51501e-05
1.40737e-05
1.30669e-05
1.21251e-05
1.12447e-05
1.04223e-05
9.65446e-06
8.9381e-06
8.27012e-06
7.64763e-06
7.06786e-06
6.52819e-06
6.02612e-06
5.55929e-06
5.12547e-06
4.72253e-06
4.34849e-06
4.00146e-06
3.67966e-06
3.38143e-06
3.1052e-06
2.84948e-06
2.6129e-06
2.39416e-06
2.19204e-06
2.0054e-06
1.83318e-06
1.67436e-06
1.52804e-06
1.39331e-06
1.2694e-06
1.15547e-06
1.05096e-06
9.54927e-07
8.67237e-07
7.8647e-07
7.13532e-07
6.45448e-07
5.85869e-07
5.27593e-07
4.81072e-07
4.28793e-07
3.96858e-07
3.44877e-07
3.31924e-07
2.71503e-07
2.85795e-07
2.0441e-07
2.58194e-07
1.40325e-07
2.47785e-07
7.84545e-08
2.50532e-07
2.17951e-08
2.58922e-07
-2.31351e-08
2.63861e-07
-5.00136e-08
2.60182e-07
-5.98416e-08
2.54615e-07
-6.84579e-08
2.71686e-07
-1.09655e-07
3.53133e-07
-2.31097e-07
5.49152e-07
-4.82174e-07
8.99532e-07
3.99208e-05
5.13692e-05
6.1169e-05
6.94162e-05
7.62153e-05
8.16799e-05
8.59222e-05
8.90527e-05
9.11812e-05
9.24152e-05
9.28586e-05
9.26104e-05
9.17643e-05
9.04077e-05
8.86217e-05
8.64805e-05
8.40516e-05