/*--------------------------------*- C++ -*----------------------------------*\
| =========                 |                                                 |
| \\      /  F ield         | OpenFOAM: The Open Source CFD Toolbox           |
|  \\    /   O peration     | Version:  2412                                  |
|   \\  /    A nd           | Website:  www.openfoam.com                      |
|    \\/     M anipulation  |                                                 |
\*---------------------------------------------------------------------------*/
FoamFile
{
    version     2.0;
    format      ascii;
    arch        "LSB;label=32;scalar=64";
    class       surfaceScalarField;
    location    "26.5";
    object      phi;
}
// * * * * * * * * * * * * * * * * * * * * * * * * * * * * * * * * * * * * * //

dimensions      [0 3 -1 0 0 0 0];

oriented        oriented;

internalField   nonuniform List<scalar> 
126304
(
0.00505063
1.30035e-07
2.08154e-11
0.00505025
3.79159e-07
6.12017e-11
0.00504963
6.14913e-07
9.27393e-11
0.00504879
8.38984e-07
1.13164e-10
0.00504774
1.05306e-06
1.24655e-10
0.00504648
1.25837e-06
1.31739e-10
0.00504503
1.45585e-06
1.38734e-10
0.00504338
1.64696e-06
1.47604e-10
0.00504154
1.83501e-06
1.55756e-10
0.00503952
2.02639e-06
1.54114e-10
0.00503729
2.23055e-06
1.27493e-10
0.00503483
2.45829e-06
5.8139e-11
0.00503211
2.71872e-06
-6.82278e-11
0.00502909
3.01594e-06
-2.55585e-10
0.00502575
3.34687e-06
-4.92935e-10
0.00502205
3.70097e-06
-7.53919e-10
0.00501799
4.06206e-06
-1.00099e-09
0.00501358
4.41143e-06
-1.19261e-09
0.00500885
4.73142e-06
-1.29117e-09
0.00500384
5.00835e-06
-1.26998e-09
0.00499861
5.23431e-06
-1.11758e-09
0.0049932
5.40762e-06
-8.38531e-10
0.00498767
5.53205e-06
-4.50919e-10
0.00498205
5.61543e-06
1.80065e-11
0.00497638
5.66788e-06
5.36417e-10
0.00497068
5.70016e-06
1.07228e-09
0.00496496
5.72242e-06
1.59694e-09
0.00495921
5.74329e-06
2.08759e-09
0.00495344
5.76952e-06
2.5281e-09
0.00494763
5.80584e-06
2.90891e-09
0.00494177
5.8552e-06
3.22626e-09
0.00493585
5.91906e-06
3.48089e-09
0.00492985
5.99775e-06
3.67683e-09
0.00492375
6.0908e-06
3.82008e-09
0.00491755
6.1973e-06
3.91759e-09
0.00491123
6.31606e-06
3.97659e-09
0.00490478
6.44587e-06
4.004e-09
0.00489819
6.58555e-06
4.00606e-09
0.00489146
6.73403e-06
3.98812e-09
0.00488456
6.8904e-06
3.95463e-09
0.0048775
7.05391e-06
3.90926e-09
0.00487028
7.22395e-06
3.85494e-09
0.00486287
7.40004e-06
3.79392e-09
0.00485529
7.58184e-06
3.72785e-09
0.00484751
7.76907e-06
3.658e-09
0.00483955
7.96155e-06
3.58521e-09
0.00483139
8.15915e-06
3.51002e-09
0.00482302
8.36181e-06
3.43288e-09
0.00481445
8.56948e-06
3.35397e-09
0.00480566
8.7822e-06
3.27334e-09
0.00479666
9.00006e-06
3.19081e-09
0.00478743
9.22334e-06
3.10601e-09
0.00477798
9.45284e-06
3.01864e-09
0.00476828
9.69095e-06
2.93091e-09
9.94431e-06
0.00475834
2.87319e-09
0.00505063
2.60005e-07
0.00505025
7.58108e-07
0.00504963
1.22949e-06
0.0050488
1.67749e-06
0.00504774
2.10549e-06
0.00504649
2.51596e-06
0.00504503
2.91079e-06
0.00504338
3.29286e-06
0.00504155
3.6688e-06
0.00503953
4.05134e-06
0.0050373
4.45929e-06
0.00503484
4.91421e-06
0.00503213
5.43427e-06
0.00502911
6.0277e-06
0.00502577
6.6884e-06
0.00502208
7.39545e-06
0.00501802
8.11659e-06
0.00501362
8.81457e-06
0.0050089
9.45414e-06
0.0050039
1.0008e-05
0.00499867
1.04603e-05
0.00499327
1.08076e-05
0.00498775
1.10575e-05
0.00498214
1.12253e-05
0.00497647
1.13313e-05
0.00497078
1.13969e-05
0.00496506
1.14423e-05
0.00495931
1.14848e-05
0.00495355
1.15377e-05
0.00494774
1.16106e-05
0.00494189
1.17094e-05
0.00493597
1.18369e-05
0.00492997
1.1994e-05
0.00492388
1.21797e-05
0.00491769
1.23921e-05
0.00491138
1.26291e-05
0.00490493
1.2888e-05
0.00489835
1.31666e-05
0.00489162
1.34627e-05
0.00488474
1.37747e-05
0.00487769
1.41008e-05
0.00487048
1.444e-05
0.00486309
1.47912e-05
0.00485551
1.51538e-05
0.00484776
1.55273e-05
0.00483981
1.59112e-05
0.00483166
1.63053e-05
0.00482331
1.67094e-05
0.00481476
1.71235e-05
0.00480599
1.75477e-05
0.00479701
1.7982e-05
0.00478781
1.8427e-05
0.00477838
1.88844e-05
0.00476871
1.93587e-05
1.98633e-05
0.00475879
0.00505063
3.89803e-07
0.00505025
1.13652e-06
0.00504964
1.8432e-06
0.0050488
2.51481e-06
0.00504775
3.15642e-06
0.00504649
3.77175e-06
0.00504504
4.36362e-06
0.00504339
4.93636e-06
0.00504156
5.49985e-06
0.00503954
6.07307e-06
0.00503732
6.68414e-06
0.00503487
7.36526e-06
0.00503216
8.14363e-06
0.00502915
9.03165e-06
0.00502582
1.00203e-05
0.00502214
1.10785e-05
0.0050181
1.21582e-05
0.00501371
1.32036e-05
0.005009
1.41621e-05
0.00500401
1.49929e-05
0.0049988
1.5672e-05
0.00499342
1.61942e-05
0.0049879
1.65706e-05
0.0049823
1.68241e-05
0.00497665
1.69848e-05
0.00497096
1.70847e-05
0.00496525
1.71539e-05
0.00495952
1.72183e-05
0.00495376
1.7298e-05
0.00494796
1.74072e-05
0.00494212
1.75549e-05
0.00493621
1.77454e-05
0.00493022
1.79799e-05
0.00492414
1.82571e-05
0.00491796
1.85742e-05
0.00491166
1.89279e-05
0.00490524
1.93145e-05
0.00489867
1.97306e-05
0.00489196
2.01729e-05
0.0048851
2.06387e-05
0.00487807
2.11259e-05
0.00487088
2.16325e-05
0.00486351
2.21571e-05
0.00485597
2.26988e-05
0.00484824
2.32565e-05
0.00484032
2.38299e-05
0.00483221
2.44184e-05
0.0048239
2.50219e-05
0.00481538
2.56401e-05
0.00480665
2.62732e-05
0.00479771
2.69214e-05
0.00478856
2.75853e-05
0.00477917
2.82672e-05
0.00476956
2.89735e-05
2.97227e-05
0.0047597
0.00505063
5.19346e-07
0.00505025
1.51411e-06
0.00504964
2.45563e-06
0.0050488
3.35035e-06
0.00504775
4.2051e-06
0.0050465
5.02484e-06
0.00504505
5.8133e-06
0.00504341
6.57626e-06
0.00504158
7.32679e-06
0.00503957
8.09002e-06
0.00503735
8.90321e-06
0.0050349
9.80909e-06
0.0050322
1.08438e-05
0.00502921
1.2024e-05
0.00502589
1.33381e-05
0.00502223
1.47448e-05
0.0050182
1.61807e-05
0.00501384
1.75719e-05
0.00500915
1.88484e-05
0.00500419
1.99559e-05
0.004999
2.08625e-05
0.00499363
2.15609e-05
0.00498814
2.20654e-05
0.00498255
2.24063e-05
0.00497691
2.26234e-05
0.00497124
2.27589e-05
0.00496554
2.2853e-05
0.00495982
2.29399e-05
0.00495407
2.30465e-05
0.00494829
2.31916e-05
0.00494245
2.33874e-05
0.00493656
2.36398e-05
0.00493059
2.39502e-05
0.00492453
2.43172e-05
0.00491837
2.47371e-05
0.00491209
2.52056e-05
0.00490569
2.57177e-05
0.00489915
2.6269e-05
0.00489247
2.68551e-05
0.00488563
2.74725e-05
0.00487864
2.81182e-05
0.00487148
2.87898e-05
0.00486415
2.94852e-05
0.00485665
3.02032e-05
0.00484896
3.09425e-05
0.00484109
3.17024e-05
0.00483303
3.24823e-05
0.00482477
3.32819e-05
0.00481631
3.41009e-05
0.00480764
3.49393e-05
0.00479876
3.57974e-05
0.00478967
3.6676e-05
0.00478036
3.75775e-05
0.00477083
3.85095e-05
3.94938e-05
0.00476106
0.00505063
6.48552e-07
0.00505025
1.89062e-06
0.00504964
3.06633e-06
0.00504881
4.18353e-06
0.00504776
5.25079e-06
0.00504651
6.27432e-06
0.00504507
7.25879e-06
0.00504343
8.21137e-06
0.00504161
9.14826e-06
0.0050396
1.01006e-05
0.00503739
1.11146e-05
0.00503495
1.22434e-05
0.00503227
1.3532e-05
0.00502929
1.50013e-05
0.00502599
1.66373e-05
0.00502235
1.83892e-05
0.00501835
2.01782e-05
0.00501401
2.1913e-05
0.00500935
2.35063e-05
0.00500441
2.48904e-05
0.00499925
2.60253e-05
0.00499391
2.69014e-05
0.00498844
2.7536e-05
0.00498288
2.79666e-05
0.00497726
2.82421e-05
0.0049716
2.84151e-05
0.00496592
2.85353e-05
0.00496022
2.86454e-05
0.00495448
2.87789e-05
0.00494872
2.89595e-05
0.0049429
2.92023e-05
0.00493703
2.95149e-05
0.00493108
2.98994e-05
0.00492504
3.0354e-05
0.0049189
3.08743e-05
0.00491265
3.14548e-05
0.00490628
3.20897e-05
0.00489978
3.27732e-05
0.00489313
3.35002e-05
0.00488634
3.42661e-05
0.00487939
3.50671e-05
0.00487228
3.59003e-05
0.004865
3.67632e-05
0.00485755
3.76539e-05
0.00484992
3.85711e-05
0.00484211
3.95137e-05
0.00483411
4.0481e-05
0.00482592
4.14724e-05
0.00481754
4.24877e-05
0.00480895
4.35267e-05
0.00480016
4.45896e-05
0.00479115
4.56773e-05
0.00478194
4.67921e-05
0.00477251
4.79417e-05
4.91489e-05
0.00476285
0.00505063
7.77345e-07
0.00505025
2.26576e-06
0.00504964
3.6749e-06
0.00504881
5.01375e-06
0.00504777
6.29275e-06
0.00504653
7.51931e-06
0.00504509
8.69905e-06
0.00504346
9.84051e-06
0.00504164
1.09629e-05
0.00503964
1.21033e-05
0.00503744
1.33165e-05
0.00503502
1.46659e-05
0.00503234
1.62053e-05
0.00502938
1.79601e-05
0.00502611
1.99139e-05
0.00502249
2.20068e-05
0.00501852
2.41455e-05
0.00501421
2.62211e-05
0.00500959
2.81298e-05
0.00500469
2.97902e-05
0.00499956
3.11542e-05
0.00499425
3.22098e-05
0.00498881
3.29769e-05
0.00498328
3.34998e-05
0.00497769
3.38362e-05
0.00497205
3.40487e-05
0.00496639
3.41965e-05
0.00496071
3.43305e-05
0.00495499
3.44909e-05
0.00494925
3.47063e-05
0.00494345
3.49947e-05
0.0049376
3.53658e-05
0.00493168
3.5822e-05
0.00492567
3.63614e-05
0.00491957
3.6979e-05
0.00491336
3.76684e-05
0.00490702
3.84226e-05
0.00490056
3.92349e-05
0.00489396
4.00989e-05
0.00488722
4.10094e-05
0.00488032
4.19619e-05
0.00487327
4.29526e-05
0.00486606
4.39787e-05
0.00485867
4.50379e-05
0.00485111
4.61284e-05
0.00484338
4.7249e-05
0.00483546
4.83987e-05
0.00482736
4.95769e-05
0.00481906
5.0783e-05
0.00481057
5.20168e-05
0.00480188
5.32784e-05
0.00479299
5.45683e-05
0.0047839
5.58886e-05
0.00477459
5.72461e-05
5.8661e-05
0.00476508
0.00505063
9.05603e-07
0.00505026
2.63932e-06
0.00504965
4.2809e-06
0.00504882
5.84045e-06
0.00504779
7.33024e-06
0.00504655
8.75893e-06
0.00504511
1.01331e-05
0.00504349
1.14625e-05
0.00504168
1.27694e-05
0.00503969
1.40965e-05
0.0050375
1.55071e-05
0.00503509
1.70746e-05
0.00503243
1.88614e-05
0.0050295
2.08973e-05
0.00502625
2.31642e-05
0.00502266
2.55935e-05
0.00501873
2.80777e-05
0.00501446
3.0491e-05
0.00500987
3.27131e-05
0.00500502
3.46495e-05
0.00499993
3.62436e-05
0.00499466
3.74806e-05
0.00498925
3.83829e-05
0.00498375
3.90007e-05
0.00497818
3.94008e-05
0.00497258
3.9655e-05
0.00496694
3.98319e-05
0.00496128
3.99907e-05
0.0049556
4.0178e-05
0.00494987
4.04272e-05
0.00494411
4.07598e-05
0.00493829
4.1187e-05
0.0049324
4.17122e-05
0.00492643
4.23332e-05
0.00492036
4.30446e-05
0.00491419
4.38391e-05
0.0049079
4.47086e-05
0.00490149
4.56453e-05
0.00489495
4.66421e-05
0.00488827
4.76928e-05
0.00488144
4.8792e-05
0.00487445
4.99356e-05
0.00486731
5.11199e-05
0.00486001
5.23424e-05
0.00485254
5.3601e-05
0.00484489
5.48941e-05
0.00483707
5.62204e-05
0.00482907
5.75792e-05
0.00482088
5.89697e-05
0.0048125
6.03916e-05
0.00480394
6.18447e-05
0.00479518
6.33291e-05
0.00478622
6.48462e-05
0.00477707
6.63999e-05
0.00476773
6.80019e-05
0.00475834
-1.02222e-08
2.98577e-09
0.00475782
5.20914e-07
2.76214e-09
0.00475673
1.08957e-06
2.70369e-09
0.00475503
1.69539e-06
2.66872e-09
0.00475268
2.34175e-06
2.62752e-09
0.00474965
3.03216e-06
2.58101e-09
0.00474588
3.77053e-06
2.52948e-09
0.00474131
4.56122e-06
2.47305e-09
0.0047359
5.40912e-06
2.41175e-09
0.00472958
6.31965e-06
2.34567e-09
0.00472228
7.29892e-06
2.27454e-09
0.00471392
8.35374e-06
2.19826e-09
0.00470443
9.49176e-06
2.11669e-09
0.00469371
1.07216e-05
2.03149e-09
0.00468165
1.2053e-05
1.93609e-09
0.00466815
1.34969e-05
1.84673e-09
0.00465308
1.50658e-05
1.72554e-09
0.00463631
1.67738e-05
1.59186e-09
0.00461767
1.86372e-05
1.46402e-09
0.00459699
2.06743e-05
1.31707e-09
0.00457409
2.29065e-05
1.17823e-09
0.00454873
2.53583e-05
1.0332e-09
0.00452067
2.80581e-05
8.79019e-10
0.00448963
3.1039e-05
7.14827e-10
0.00445529
3.43395e-05
5.40519e-10
0.00441728
3.8005e-05
3.55853e-10
0.00437519
4.20891e-05
1.61121e-10
0.00432854
4.66555e-05
-4.36083e-11
0.00427676
5.17802e-05
-2.58252e-10
0.0042192
5.75546e-05
-4.82419e-10
0.00415512
6.40894e-05
-7.1577e-10
0.0040836
7.1519e-05
-9.58224e-10
0.00400359
8.00077e-05
-1.2094e-09
0.00391384
8.97562e-05
-1.46932e-09
0.00381283
0.00010101
-1.738e-09
0.00369876
0.000114067
-2.01534e-09
0.00356948
0.000129283
-2.30163e-09
0.00342242
0.000147069
-2.5975e-09
0.00325454
0.000167879
-2.90346e-09
0.00306238
0.000192161
-3.21999e-09
0.00284212
0.000220269
-3.54688e-09
0.00258984
0.000252285
-3.88202e-09
0.00230211
0.00028773
-4.21899e-09
0.00197702
0.000325097
-4.54212e-09
0.00161587
0.000361152
-4.81867e-09
0.00122592
0.000389952
-4.98702e-09
0.000824341
0.000401589
-4.94113e-09
0.000443744
0.000380601
-4.51536e-09
0.000140233
0.000303514
-3.4792e-09
0.000140235
-1.55802e-09
0.00475743
1.34541e-06
0.00475554
2.41015e-06
0.00475309
3.54448e-06
0.00475003
4.75368e-06
0.00474633
6.0439e-06
0.00474194
7.42216e-06
0.00473681
8.8963e-06
0.0047309
1.04751e-05
0.00472414
1.21683e-05
0.00471647
1.39868e-05
0.00470783
1.59429e-05
0.00469813
1.80502e-05
0.0046873
2.0324e-05
0.00467524
2.27816e-05
0.00466185
2.54424e-05
0.00464702
2.83286e-05
0.00463062
3.14649e-05
0.00461251
3.48798e-05
0.00459255
3.86057e-05
0.00457054
4.26796e-05
0.0045463
4.71442e-05
0.00451961
5.20485e-05
0.00449022
5.74495e-05
0.00445785
6.34133e-05
0.00442217
7.00173e-05
0.00438282
7.73521e-05
0.00433939
8.55251e-05
0.00429138
9.46633e-05
0.00423824
0.000104919
0.00417932
0.000116474
0.00411386
0.000129549
0.00404097
0.000144411
0.00395959
0.000161388
0.00386847
0.000180876
0.00376612
0.000203362
0.00365075
0.000229433
0.00352024
0.000259788
0.00337208
0.000295233
0.00320331
0.000336649
0.00301057
0.000384899
0.0027902
0.000440644
0.00253849
0.000503993
0.00225229
0.000573926
0.00193001
0.000647376
0.0015733
0.000717866
0.00118968
0.000773574
0.000796438
0.000794828
0.000425862
0.000751177
0.000132006
0.00059737
0.000272241
0.00475563
5.41741e-06
0.00475103
7.01002e-06
0.00474587
8.70582e-06
0.00474011
1.05135e-05
0.00473371
1.24425e-05
0.00472663
1.45033e-05
0.00471881
1.67079e-05
0.00471022
1.90694e-05
0.00470079
2.16026e-05
0.00469045
2.43239e-05
0.00467914
2.72517e-05
0.00466678
3.04065e-05
0.0046533
3.38114e-05
0.00463859
3.74923e-05
0.00462255
4.14785e-05
0.00460507
4.58032e-05
0.00458604
5.05037e-05
0.00456529
5.56228e-05
0.00454269
6.12093e-05
0.00451805
6.73188e-05
0.00449118
7.40155e-05
0.00446185
8.13732e-05
0.00442983
8.94775e-05
0.00439481
9.84277e-05
0.00435649
0.00010834
0.00431449
0.000119351
0.00426839
0.000131621
0.00421772
0.00014534
0.0041619
0.000160737
0.00410029
0.000178084
0.00403213
0.000197708
0.00395653
0.000220009
0.00387245
0.00024547
0.00377865
0.000274679
0.00367366
0.000308351
0.00355575
0.000347346
0.00342285
0.000392681
0.00327257
0.000445519
0.0031021
0.000507117
0.00290832
0.000578682
0.00268788
0.000661085
0.00243751
0.000754354
0.00215464
0.000856806
0.00183829
0.000963722
0.00149077
0.00106538
0.00112005
0.0011443
0.000743422
0.00117145
0.000392689
0.00110191
0.000119362
0.000870697
0.000391603
0.00475295
1.35188e-05
0.00474433
1.56316e-05
0.00473516
1.78811e-05
0.00472539
2.0279e-05
0.004715
2.28381e-05
0.00470393
2.55729e-05
0.00469214
2.84992e-05
0.00467957
3.16348e-05
0.00466617
3.49994e-05
0.00465188
3.8615e-05
0.00463663
4.25062e-05
0.00462033
4.67003e-05
0.00460292
5.12283e-05
0.00458428
5.61249e-05
0.00456433
6.14292e-05
0.00454295
6.71854e-05
0.00452001
7.34439e-05
0.00449537
8.02616e-05
0.00446888
8.77039e-05
0.00444035
9.58452e-05
0.0044096
0.000104771
0.00437639
0.000114581
0.00434048
0.000125389
0.00430158
0.000137328
0.00425936
0.000150553
0.00421347
0.000165245
0.00416347
0.00018162
0.00410888
0.000199931
0.00404914
0.00022048
0.00398359
0.000243629
0.00391149
0.000269811
0.00383195
0.00029955
0.00374393
0.000333482
0.00364624
0.000372375
0.00353744
0.000417153
0.00341586
0.000468924
0.00327955
0.000528984
0.00312628
0.000598796
0.00295349
0.000679909
0.00275841
0.000773759
0.00253821
0.000881286
0.0022903
0.00100226
0.00201295
0.00113416
0.00170618
0.00127049
0.00137321
0.00139836
0.00102247
0.00149504
0.000670804
0.00152312
0.000348176
0.00142454
0.000101464
0.00111741
0.000493067
0.00474946
2.69107e-05
0.00473556
2.95319e-05
0.00472112
3.23229e-05
0.0047061
3.52985e-05
0.00469046
3.84753e-05
0.00467416
4.18714e-05
0.00465716
4.55069e-05
0.00463939
4.9404e-05
0.0046208
5.35876e-05
0.00460133
5.8085e-05
0.00458091
6.29272e-05
0.00455946
6.81485e-05
0.0045369
7.37876e-05
0.00451314
7.98879e-05
0.00448807
8.64987e-05
0.00446158
9.36754e-05
0.00443354
0.000101481
0.00440381
0.000109987
0.00437224
0.000119276
0.00433865
0.000129441
0.00430283
0.00014059
0.00426456
0.000152846
0.0042236
0.000166354
0.00417965
0.000181279
0.00413238
0.000197816
0.00408144
0.000216192
0.00402638
0.000236676
0.00396673
0.000259584
0.00390192
0.000285291
0.0038313
0.000314246
0.00375412
0.000346986
0.00366952
0.000384154
0.00357648
0.000426527
0.00347381
0.000475036
0.00336017
0.000530795
0.00323398
0.00059512
0.00309343
0.000669527
0.00293653
0.000755698
0.00276108
0.000855356
0.00256484
0.000970006
0.00234567
0.00110045
0.00210198
0.00124595
0.00183323
0.00140291
0.00154078
0.00156294
0.00122905
0.00171009
0.000906971
0.00181711
0.000590047
0.00184004
0.000303435
0.00171115
8.38289e-05
0.00133701
0.000576896
0.00474521
4.67845e-05
0.00472484
4.98955e-05
0.00470395
5.321e-05
0.00468251
5.67458e-05
0.00466046
6.05231e-05
0.00463777
6.45637e-05
0.00461438
6.88916e-05
0.00459025
7.35337e-05
0.00456532
7.85194e-05
0.00453952
8.3882e-05
0.00451279
8.96584e-05
0.00448505
9.58901e-05
0.00445622
0.000102623
0.00442619
0.000109911
0.00439488
0.000117812
0.00436216
0.000126392
0.00432791
0.000135729
0.00429199
0.000145909
0.00425424
0.00015703
0.00421447
0.000169205
0.0041725
0.000182564
0.00412809
0.000197256
0.00408099
0.000213455
0.00403091
0.00023136
0.00397752
0.000251205
0.00392045
0.000273264
0.00385926
0.000297859
0.00379348
0.000325367
0.00372254
0.000356238
0.00364578
0.000391005
0.00356246
0.000430301
0.00347173
0.000474887
0.00337259
0.000525664
0.00326392
0.00058371
0.00314442
0.00065029
0.00301267
0.000726876
0.00286707
0.000815125
0.00270596
0.000916809
0.00252767
0.00103365
0.00233071
0.00116697
0.00211405
0.00131711
0.00187755
0.00148245
0.00162249
0.00165796
0.00135234
0.00183309
0.00107332
0.00198911
0.000795101
0.00209533
0.000530915
0.00210423
0.000296131
0.00194593
0.000102082
0.00153106
0.000678978
0.00474027
7.42374e-05
0.00471236
7.78107e-05
0.00468394
8.16244e-05
0.00465499
8.56975e-05
0.00462546
9.00527e-05
0.00459531
9.47153e-05
0.00456449
9.9713e-05
0.00453295
0.000105077
0.00450062
0.000110841
0.00446746
0.000117045
0.00443339
0.000123731
0.00439833
0.000130947
0.00436221
0.000138749
0.00432492
0.000147197
0.00428637
0.00015636
0.00424645
0.000166317
0.00420502
0.000177157
0.00416195
0.000188981
0.00411707
0.000201906
0.00407021
0.000216062
0.00402118
0.000231602
0.00396973
0.000248701
0.00391562
0.000267561
0.00385857
0.000288418
0.00379823
0.000311544
0.00373423
0.00033726
0.00366615
0.000365939
0.0035935
0.000398022
0.0035157
0.000434031
0.00343213
0.00047458
0.00334203
0.000520399
0.00324456
0.000572354
0.00313876
0.000631465
0.00302354
0.00069893
0.00289769
0.000776139
0.00275991
0.000864662
0.00260882
0.000966207
0.00244314
0.0010825
0.00226175
0.00121504
0.00206406
0.00136466
0.00185035
0.00153081
0.00162235
0.00171046
0.00138384
0.00189647
0.00114135
0.00207558
0.000904604
0.00222586
0.000686051
0.00231388
0.000498407
0.00229187
0.000345911
0.00209843
0.000209413
0.00166756
0.000888391
-2.65637e-05
2.65641e-05
-3.25695e-10
-7.75838e-05
5.10214e-05
-1.31789e-09
-0.000135549
5.79674e-05
-2.56607e-09
-0.000190245
5.47005e-05
-3.95751e-09
-0.000236041
4.58011e-05
-5.40253e-09
-0.00027006
3.40258e-05
-6.84059e-09
-0.000291044
2.09925e-05
-8.23546e-09
-0.000298605
7.57013e-06
-9.53105e-09
-0.000293107
-5.48732e-06
-1.04504e-08
-0.00027525
-1.78455e-05
-1.14249e-08
-0.000245553
-2.96849e-05
-1.21254e-08
-0.000204715
-4.08254e-05
-1.24867e-08
-0.000153481
-5.1222e-05
-1.245e-08
-9.25886e-05
-6.08802e-05
-1.1924e-08
-2.27716e-05
-6.98063e-05
-1.07978e-08
5.5252e-05
-7.80147e-05
-8.9436e-09
0.000140778
-8.55199e-05
-6.22744e-09
0.000233121
-9.23399e-05
-2.53084e-09
0.000331609
-9.84905e-05
2.21882e-09
0.000435589
-0.000103988
8.10274e-09
0.000544421
-0.000108847
1.45068e-08
0.000657481
-0.000113081
2.14584e-08
0.000774151
-0.000116698
2.78097e-08
0.000893828
-0.00011971
3.30038e-08
0.00101592
-0.000122131
3.71845e-08
0.00113987
-0.000123986
3.94736e-08
0.00126513
-0.000125298
4.03157e-08
0.00139118
-0.000126091
3.98714e-08
0.00151753
-0.000126388
3.84846e-08
0.00164371
-0.000126216
3.64843e-08
0.00176927
-0.000125599
3.41389e-08
0.0018938
-0.000124563
3.16444e-08
0.00201691
-0.000123137
2.91249e-08
0.00213823
-0.000121349
2.66516e-08
0.00225743
-0.000119226
2.42516e-08
0.00237421
-0.000116798
2.19267e-08
0.00248828
-0.000114094
1.96649e-08
0.00259941
-0.000111144
1.74474e-08
0.00270737
-0.000107977
1.52573e-08
0.00281198
-0.00010462
1.30816e-08
0.00291307
-0.000101104
1.09129e-08
0.00301052
-9.74552e-05
8.75287e-09
0.00310421
-9.37008e-05
6.60822e-09
0.00319408
-8.98666e-05
4.49159e-09
0.00328005
-8.59776e-05
2.42235e-09
0.00336211
-8.20572e-05
4.22682e-10
0.00344024
-7.81274e-05
-1.48211e-09
0.00351445
-7.42078e-05
-3.26427e-09
0.00358477
-7.03153e-05
-4.89912e-09
-6.64625e-05
0.00365124
-6.37249e-09
-2.33369e-05
4.9901e-05
-6.82414e-05
9.59258e-05
-0.000119032
0.000108758
-0.000166788
0.000102457
-0.00020643
8.5443e-05
-0.000235326
6.29216e-05
-0.000252268
3.79352e-05
-0.000256764
1.20657e-05
-0.00024925
-1.30013e-05
-0.000230121
-3.69745e-05
-0.000199832
-5.99738e-05
-0.000158975
-8.1683e-05
-0.000108204
-0.000101993
-4.81603e-05
-0.000120923
2.04883e-05
-0.000138455
9.7085e-05
-0.000154611
0.00018099
-0.000169425
0.000271566
-0.000182915
0.000368183
-0.000195107
0.000470223
-0.000206028
0.000577079
-0.000215703
0.000688154
-0.000224156
0.000802855
-0.000231399
0.0009206
-0.000237454
0.00104082
-0.000242348
0.00116295
-0.000246123
0.00128648
-0.000248827
0.0014109
-0.000250504
0.00153571
-0.0002512
0.00166045
-0.000250962
0.0017847
-0.00024984
0.00190802
-0.000247885
0.00203003
-0.000245151
0.00215037
-0.000241692
0.00226871
-0.000237565
0.00238474
-0.000232827
0.00249818
-0.000227535
0.00260879
-0.000221748
0.00271633
-0.000215523
0.00282063
-0.000208918
0.00292151
-0.000201988
0.00301885
-0.00019479
0.00311252
-0.000187376
0.00320246
-0.000179798
0.00328858
-0.000172106
0.00337087
-0.000164347
0.00344931
-0.000156565
0.0035239
-0.000148798
0.00359467
-0.000141081
-0.000133436
0.00366164
-1.76734e-05
6.75745e-05
-5.02881e-05
0.00012854
-8.7282e-05
0.000145752
-0.000121746
0.00013692
-0.00014964
0.000113338
-0.000168824
8.21053e-05
-0.000178167
4.72786e-05
-0.000176854
1.07521e-05
-0.000165612
-2.42429e-05
-0.000144199
-5.83874e-05
-0.000112925
-9.12483e-05
-7.21187e-05
-0.000122489
-2.2311e-05
-0.000151801
3.59907e-05
-0.000179225
0.000102304
-0.000204768
0.000176109
-0.000228416
0.000256861
-0.000250177
0.000344013
-0.000270068
0.000437017
-0.000288112
0.000535325
-0.000304336
0.000638388
-0.000318767
0.00074566
-0.000331428
0.0008566
-0.000342339
0.00097066
-0.000351515
0.0010873
-0.000358992
0.00120601
-0.000364826
0.00132626
-0.000369081
0.00144758
-0.000371822
0.00156949
-0.000373111
0.00169154
-0.000373014
0.00181331
-0.000371603
0.00193437
-0.000368949
0.00205435
-0.000365131
0.00217288
-0.000360227
0.00228964
-0.000354321
0.00240431
-0.000347494
0.00251661
-0.000339833
0.00262628
-0.000331423
0.00273311
-0.000322349
0.00283688
-0.000312695
0.00293744
-0.000302547
0.00303464
-0.000291985
0.00312835
-0.00028109
0.00321849
-0.000269939
0.00330499
-0.000258605
0.00338781
-0.000247161
0.00346691
-0.00023567
0.0035423
-0.000224192
0.003614
-0.000212776
-0.000201454
0.00368202
-7.76943e-06
7.53439e-05
-2.40748e-05
0.000144846
-4.20257e-05
0.000163703
-5.8018e-05
0.000152913
-6.9739e-05
0.000125059
-7.56976e-05
8.80638e-05
-7.50043e-05
4.65854e-05
-6.56402e-05
1.38807e-06
-4.96944e-05
-4.01887e-05
-2.54132e-05
-8.26686e-05
7.0001e-06
-0.000123662
4.72686e-05
-0.000162758
9.53859e-05
-0.000199918
0.000151071
-0.00023491
0.000213977
-0.000267675
0.000283743
-0.000298182
0.000359976
-0.00032641
0.000442259
-0.000352351
0.000530156
-0.000376008
0.000623211
-0.000397391
0.00072096
-0.000416516
0.00082293
-0.000433398
0.000928638
-0.000448047
0.0010376
-0.000460474
0.00114931
-0.000470707
0.00126329
-0.000478806
0.00137906
-0.000484852
0.00149616
-0.000488921
0.00161414
-0.000491088
0.00173256
-0.000491432
0.00185099
-0.00049004
0.00196905
-0.000487005
0.00208634
-0.000482423
0.00220251
-0.000476396
0.00231722
-0.000469028
0.00243015
-0.000460429
0.00254103
-0.000450708
0.00264958
-0.000439977
0.00275558
-0.000428346
0.00285881
-0.000415928
0.0029591
-0.000402834
0.00305628
-0.00038917
0.00315024
-0.000375044
0.00324086
-0.000360558
0.00332806
-0.000345809
0.00341179
-0.000330893
0.00349202
-0.000315896
0.00356873
-0.000300897
0.00364191
-0.000285962
-0.000271125
0.00371158
5.39994e-06
6.99439e-05
1.01196e-05
0.000140126
1.56509e-05
0.000158172
2.14914e-05
0.000147072
2.85145e-05
0.000118035
3.7785e-05
7.87933e-05
5.06574e-05
3.3713e-05
6.63491e-05
-1.43036e-05
8.80458e-05
-6.18853e-05
0.0001152
-0.000109822
0.000148326
-0.000156788
0.000187759
-0.000202191
0.000233545
-0.000245704
0.000285713
-0.000287077
0.000344188
-0.00032615
0.000408817
-0.000362811
0.000479387
-0.000396979
0.000555632
-0.000428596
0.000637245
-0.000457622
0.000723886
-0.000484032
0.000815186
-0.000507815
0.000910756
-0.000528968
0.00101019
-0.000547483
0.00111306
-0.000563347
0.00121893
-0.000576573
0.00132734
-0.000587218
0.00143786
-0.00059537
0.00155005
-0.00060111
0.00166348
-0.000604518
0.00177773
-0.000605684
0.0018924
-0.000604704
0.00200708
-0.000601685
0.00212139
-0.00059674
0.00223499
-0.000589989
0.00234751
-0.000581557
0.00245866
-0.000571575
0.00256813
-0.000560175
0.00267564
-0.000547493
0.00278096
-0.000533666
0.00288386
-0.00051883
0.00298415
-0.000503122
0.00308166
-0.000486676
0.00317624
-0.000469623
0.00326777
-0.00045209
0.00335616
-0.000434201
0.00344134
-0.000416073
0.00352326
-0.000397815
0.00360189
-0.000379526
0.00367722
-0.000361288
-0.000343141
0.00374923
1.92286e-05
5.07154e-05
4.8636e-05
0.000110719
8.00356e-05
0.000126772
0.00010996
0.000117147
0.000137215
9.0781e-05
0.000162432
5.35766e-05
0.000187182
8.96278e-06
0.000211022
-3.81439e-05
0.000237277
-8.81397e-05
0.000266538
-0.000139084
0.000299621
-0.000189872
0.000337174
-0.000239744
0.000379644
-0.000288174
0.000427337
-0.000334771
0.00048043
-0.000379243
0.00053899
-0.000421371
0.00060299
-0.000460979
0.000672328
-0.000497934
0.000746837
-0.000532131
0.000826295
-0.00056349
0.000910439
-0.000591958
0.000998966
-0.000617496
0.00109155
-0.000640067
0.00118783
-0.000659627
0.00128741
-0.000676156
0.0013899
-0.000689702
0.00149488
-0.000700348
0.00160194
-0.000708174
0.00171068
-0.000713261
0.0018207
-0.000715697
0.00193158
-0.000715587
0.00204294
-0.000713046
0.0021544
-0.000708201
0.0022656
-0.000701184
0.00237618
-0.000692141
0.00248582
-0.000681218
0.00259422
-0.000668571
0.00270109
-0.000654358
0.00280616
-0.000638738
0.0029092
-0.000621872
0.00301
-0.000603923
0.00310837
-0.000585048
0.00320416
-0.000565406
0.00329721
-0.000545148
0.00338744
-0.000524423
0.00347473
-0.000503371
0.00355904
-0.000482123
0.00364032
-0.000460801
0.00371853
-0.000439505
-0.000418284
0.00379368
3.51342e-05
1.55811e-05
9.37029e-05
5.215e-05
0.000152301
6.81743e-05
0.000205135
6.43132e-05
0.000250553
4.53624e-05
0.000290422
1.37077e-05
0.000323883
-2.44985e-05
0.00035447
-6.87304e-05
0.000384032
-0.000117702
0.000414118
-0.000169169
0.000446004
-0.000221757
0.000480707
-0.000274447
0.00051901
-0.000326477
0.0005615
-0.00037726
0.000608594
-0.000426338
0.000660568
-0.000473344
0.000717576
-0.000517987
0.000779672
-0.00056003
0.000846822
-0.00059928
0.000918919
-0.000635588
0.000995797
-0.000668836
0.00107724
-0.00069894
0.00116299
-0.00072582
0.00125276
-0.000749393
0.00134621
-0.000769603
0.00144297
-0.000786462
0.00154266
-0.000800044
0.00164491
-0.000810422
0.00174932
-0.000817668
0.00185549
-0.000821868
0.00196303
-0.000823128
0.00207155
-0.000821566
0.00218067
-0.000817318
0.00229001
-0.000810529
0.00239923
-0.000801356
0.00250797
-0.000789965
0.00261593
-0.000776529
0.0027228
-0.000761226
0.0028283
-0.000744239
0.00293218
-0.000725752
0.00303421
-0.000705951
0.00313418
-0.00068502
0.00323192
-0.000663141
0.00332726
-0.000640493
0.00342009
-0.000617248
0.00351029
-0.000593571
0.00359778
-0.000569619
0.00368251
-0.000545533
0.00376444
-0.000521436
0.00384357
-0.000497405
0.00372222
-7.09775e-05
-7.73836e-09
0.00379093
-6.86969e-05
-9.12985e-09
0.00385727
-6.63339e-05
-1.04743e-08
0.00392119
-6.39099e-05
-1.17397e-08
0.00398264
-6.14386e-05
-1.28748e-08
0.00404159
-5.89324e-05
-1.38356e-08
0.00409801
-5.64037e-05
-1.45839e-08
0.00415189
-5.38656e-05
-1.50912e-08
0.00420324
-5.1331e-05
-1.53399e-08
0.00425207
-4.88135e-05
-1.53239e-08
0.00429841
-4.63264e-05
-1.50464e-08
0.0043423
-4.38827e-05
-1.45181e-08
0.00438381
-4.1495e-05
-1.37604e-08
0.004423
-3.91749e-05
-1.27991e-08
0.00445994
-3.69327e-05
-1.16645e-08
0.00449473
-3.47775e-05
-1.03896e-08
0.00452746
-3.27167e-05
-9.00996e-09
0.00455822
-3.0756e-05
-7.5589e-09
0.00458713
-2.88993e-05
-6.06749e-09
0.00461428
-2.71488e-05
-4.56497e-09
0.00463979
-2.55048e-05
-3.07634e-09
0.00466376
-2.39663e-05
-1.62109e-09
0.00468629
-2.25304e-05
-2.14949e-10
0.00470748
-2.11932e-05
1.13118e-09
0.00472743
-1.99492e-05
2.40976e-09
0.00474621
-1.87923e-05
3.61775e-09
0.00476393
-1.77152e-05
4.75184e-09
0.00478063
-1.67101e-05
5.80961e-09
0.00479639
-1.57687e-05
6.78883e-09
0.00481127
-1.48829e-05
7.68419e-09
0.0048253
-1.40448e-05
8.48721e-09
0.00483854
-1.32473e-05
9.18738e-09
0.00485102
-1.24848e-05
9.77173e-09
0.00486276
-1.17536e-05
1.02255e-08
0.0048738
-1.10521e-05
1.05341e-08
0.00488417
-1.03806e-05
1.06865e-08
0.0048939
-9.74159e-06
1.06756e-08
0.00490303
-9.13857e-06
1.05007e-08
0.00491159
-8.57541e-06
1.01689e-08
0.00491964
-8.0553e-06
9.69469e-09
0.00492721
-7.57997e-06
9.09789e-09
0.00493435
-7.1491e-06
8.40381e-09
0.0049411
-6.76022e-06
7.64067e-09
0.00494751
-6.40912e-06
6.84548e-09
0.00495359
-6.08987e-06
6.03738e-09
0.00495938
-5.79705e-06
5.20862e-09
0.0049649
-5.52501e-06
4.41125e-09
0.00497017
-5.2688e-06
3.64553e-09
0.00497519
-5.02469e-06
2.9238e-09
0.00497998
-4.79008e-06
2.25004e-09
0.00498454
-4.56337e-06
1.62747e-09
0.00498888
-4.34374e-06
1.05804e-09
0.00499301
-4.13084e-06
5.41678e-10
0.00499694
-3.92465e-06
7.45569e-11
0.00500066
-3.72522e-06
-3.49254e-10
0.0050042
-3.53265e-06
-7.37914e-10