/*--------------------------------*- C++ -*----------------------------------*\
| =========                 |                                                 |
| \\      /  F ield         | OpenFOAM: The Open Source CFD Toolbox           |
|  \\    /   O peration     | Version:  2412                                  |
|   \\  /    A nd           | Website:  www.openfoam.com                      |
|    \\/     M anipulation  |                                                 |
\*---------------------------------------------------------------------------*/
FoamFile
{
    version     2.0;
    format      ascii;
    arch        "LSB;label=32;scalar=64";
    class       volVectorField;
    location    "26.5";
    object      U;
}
// * * * * * * * * * * * * * * * * * * * * * * * * * * * * * * * * * * * * * //

dimensions      [0 1 -1 0 0 0 0];

internalField   nonuniform List<vector> 
63420
(
(0.0999997 4.40077e-07 0)
(0.099995 1.30889e-06 0)
(0.099985 2.1652e-06 0)
(0.0999706 3.01331e-06 0)
(0.0999518 3.85787e-06 0)
(0.0999289 4.70226e-06 0)
(0.099902 5.54903e-06 0)
(0.0998713 6.40298e-06 0)
(0.0998369 7.27679e-06 0)
(0.0997987 8.19654e-06 0)
(0.0997566 9.20307e-06 0)
(0.0997104 1.03462e-05 0)
(0.0996593 1.1672e-05 0)
(0.0996028 1.32082e-05 0)
(0.09954 1.49519e-05 0)
(0.0994703 1.68658e-05 0)
(0.0993935 1.88825e-05 0)
(0.0993096 2.0917e-05 0)
(0.099219 2.28826e-05 0)
(0.0991224 2.47052e-05 0)
(0.0990207 2.63342e-05 0)
(0.0989152 2.77475e-05 0)
(0.0988067 2.89504e-05 0)
(0.0986962 2.99707e-05 0)
(0.0985843 3.08517e-05 0)
(0.0984717 3.1644e-05 0)
(0.0983586 3.23992e-05 0)
(0.098245 3.31643e-05 0)
(0.0981311 3.39792e-05 0)
(0.0980165 3.48746e-05 0)
(0.0979011 3.58728e-05 0)
(0.0977845 3.69882e-05 0)
(0.0976666 3.82289e-05 0)
(0.0975469 3.95984e-05 0)
(0.0974252 4.10969e-05 0)
(0.0973014 4.27229e-05 0)
(0.097175 4.4474e-05 0)
(0.097046 4.63477e-05 0)
(0.0969141 4.8342e-05 0)
(0.0967792 5.04554e-05 0)
(0.0966411 5.26875e-05 0)
(0.0964998 5.50385e-05 0)
(0.096355 5.75096e-05 0)
(0.0962066 6.01028e-05 0)
(0.0960546 6.28208e-05 0)
(0.0958989 6.56668e-05 0)
(0.0957392 6.86448e-05 0)
(0.0955757 7.1759e-05 0)
(0.095408 7.50144e-05 0)
(0.0952362 7.84165e-05 0)
(0.0950602 8.19717e-05 0)
(0.0948798 8.56883e-05 0)
(0.0946949 8.95802e-05 0)
(0.0945054 9.36774e-05 0)
(0.0943111 9.80543e-05 0)
(0.0999997 1.32022e-06 0)
(0.099995 3.92658e-06 0)
(0.099985 6.49539e-06 0)
(0.0999706 9.03942e-06 0)
(0.0999519 1.15727e-05 0)
(0.099929 1.41054e-05 0)
(0.0999021 1.66452e-05 0)
(0.0998714 1.92066e-05 0)
(0.099837 2.18274e-05 0)
(0.0997988 2.45856e-05 0)
(0.0997568 2.76033e-05 0)
(0.0997106 3.10291e-05 0)
(0.0996596 3.50014e-05 0)
(0.0996031 3.96027e-05 0)
(0.0995404 4.48253e-05 0)
(0.0994709 5.05575e-05 0)
(0.0993942 5.65984e-05 0)
(0.0993104 6.26947e-05 0)
(0.0992199 6.85869e-05 0)
(0.0991235 7.40536e-05 0)
(0.099022 7.89438e-05 0)
(0.0989166 8.31905e-05 0)
(0.0988082 8.68093e-05 0)
(0.0986978 8.98828e-05 0)
(0.0985861 9.25397e-05 0)
(0.0984735 9.4931e-05 0)
(0.0983605 9.72104e-05 0)
(0.098247 9.95186e-05 0)
(0.0981331 0.000101974 0)
(0.0980186 0.00010467 0)
(0.0979033 0.000107671 0)
(0.0977868 0.000111023 0)
(0.097669 0.000114748 0)
(0.0975494 0.000118857 0)
(0.0974279 0.000123352 0)
(0.0973041 0.000128229 0)
(0.0971779 0.000133479 0)
(0.097049 0.000139096 0)
(0.0969173 0.000145074 0)
(0.0967826 0.000151408 0)
(0.0966448 0.000158097 0)
(0.0965036 0.000165143 0)
(0.0963591 0.000172548 0)
(0.096211 0.000180319 0)
(0.0960593 0.000188463 0)
(0.0959038 0.000196991 0)
(0.0957445 0.000205913 0)
(0.0955813 0.000215243 0)
(0.095414 0.000224996 0)
(0.0952426 0.000235187 0)
(0.0950669 0.000245837 0)
(0.094887 0.000256969 0)
(0.0947025 0.000268624 0)
(0.0945135 0.000280893 0)
(0.0943198 0.000294001 0)
(0.0999997 2.19949e-06 0)
(0.099995 6.54146e-06 0)
(0.0999851 1.0821e-05 0)
(0.0999707 1.50591e-05 0)
(0.0999519 1.92792e-05 0)
(0.0999291 2.34983e-05 0)
(0.0999023 2.77293e-05 0)
(0.0998716 3.19961e-05 0)
(0.0998372 3.63617e-05 0)
(0.0997991 4.09552e-05 0)
(0.0997572 4.59794e-05 0)
(0.0997111 5.16814e-05 0)
(0.0996602 5.82907e-05 0)
(0.0996038 6.59458e-05 0)
(0.0995413 7.46339e-05 0)
(0.099472 8.41707e-05 0)
(0.0993955 9.42235e-05 0)
(0.099312 0.000104371 0)
(0.0992218 0.000114184 0)
(0.0991256 0.000123292 0)
(0.0990244 0.000131445 0)
(0.0989193 0.00013853 0)
(0.0988112 0.000144571 0)
(0.098701 0.000149706 0)
(0.0985895 0.000154146 0)
(0.0984771 0.000158143 0)
(0.0983643 0.000161952 0)
(0.098251 0.000165805 0)
(0.0981372 0.000169901 0)
(0.0980229 0.000174392 0)
(0.0979077 0.000179391 0)
(0.0977914 0.000184969 0)
(0.0976737 0.000191168 0)
(0.0975544 0.000198005 0)
(0.0974331 0.000205481 0)
(0.0973096 0.000213591 0)
(0.0971837 0.000222323 0)
(0.0970552 0.000231664 0)
(0.0969238 0.000241605 0)
(0.0967895 0.000252139 0)
(0.096652 0.000263262 0)
(0.0965113 0.000274978 0)
(0.0963673 0.000287292 0)
(0.0962197 0.000300212 0)
(0.0960685 0.000313754 0)
(0.0959137 0.000327931 0)
(0.095755 0.000342764 0)
(0.0955924 0.000358274 0)
(0.0954259 0.000374485 0)
(0.0952552 0.000391423 0)
(0.0950804 0.000409119 0)
(0.0949013 0.000427615 0)
(0.0947178 0.000446975 0)
(0.0945298 0.000467344 0)
(0.0943371 0.000489083 0)
(0.0999997 3.07729e-06 0)
(0.099995 9.15165e-06 0)
(0.0999851 1.51391e-05 0)
(0.0999707 2.10682e-05 0)
(0.099952 2.6972e-05 0)
(0.0999292 3.28744e-05 0)
(0.0999025 3.87934e-05 0)
(0.0998719 4.47624e-05 0)
(0.0998376 5.08687e-05 0)
(0.0997996 5.72924e-05 0)
(0.0997577 6.43156e-05 0)
(0.0997117 7.22826e-05 0)
(0.099661 8.1514e-05 0)
(0.0996049 9.22037e-05 0)
(0.0995426 0.000104336 0)
(0.0994735 0.000117655 0)
(0.0993975 0.000131699 0)
(0.0993143 0.000145882 0)
(0.0992246 0.000159604 0)
(0.0991288 0.00017235 0)
(0.0990281 0.000183767 0)
(0.0989233 0.000193697 0)
(0.0988156 0.000202172 0)
(0.0987058 0.000209381 0)
(0.0985946 0.000215618 0)
(0.0984825 0.000221231 0)
(0.0983699 0.000226575 0)
(0.0982568 0.000231977 0)
(0.0981433 0.000237711 0)
(0.0980292 0.000243993 0)
(0.0979143 0.000250979 0)
(0.0977983 0.000258769 0)
(0.0976809 0.000267423 0)
(0.0975619 0.000276964 0)
(0.0974409 0.000287398 0)
(0.0973178 0.000298715 0)
(0.0971924 0.000310898 0)
(0.0970643 0.000323932 0)
(0.0969335 0.000337802 0)
(0.0967997 0.000352499 0)
(0.0966629 0.00036802 0)
(0.0965229 0.000384366 0)
(0.0963795 0.000401545 0)
(0.0962327 0.00041957 0)
(0.0960824 0.000438459 0)
(0.0959284 0.000458235 0)
(0.0957707 0.000478923 0)
(0.0956091 0.000500552 0)
(0.0954437 0.000523155 0)
(0.0952742 0.000546769 0)
(0.0951005 0.000571436 0)
(0.0949227 0.000597209 0)
(0.0947406 0.000624176 0)
(0.0945541 0.000652518 0)
(0.094363 0.000682702 0)
(0.0999997 3.95312e-06 0)
(0.099995 1.17552e-05 0)
(0.0999851 1.94465e-05 0)
(0.0999708 2.70624e-05 0)
(0.0999522 3.46456e-05 0)
(0.0999294 4.22269e-05 0)
(0.0999027 4.98295e-05 0)
(0.0998722 5.7496e-05 0)
(0.099838 6.53378e-05 0)
(0.0998001 7.35845e-05 0)
(0.0997584 8.25962e-05 0)
(0.0997126 9.28131e-05 0)
(0.0996621 0.000104646 0)
(0.0996062 0.000118344 0)
(0.0995443 0.000133891 0)
(0.0994756 0.000150962 0)
(0.0994 0.000168969 0)
(0.0993174 0.000187165 0)
(0.0992282 0.00020478 0)
(0.099133 0.000221158 0)
(0.0990328 0.000235842 0)
(0.0989286 0.000248627 0)
(0.0988214 0.000259551 0)
(0.098712 0.00026885 0)
(0.0986012 0.0002769 0)
(0.0984895 0.000284143 0)
(0.0983773 0.000291033 0)
(0.0982645 0.000297987 0)
(0.0981513 0.000305358 0)
(0.0980375 0.000313422 0)
(0.097923 0.000322379 0)
(0.0978073 0.000332361 0)
(0.0976903 0.000343444 0)
(0.0975717 0.000355661 0)
(0.0974513 0.000369018 0)
(0.0973287 0.000383503 0)
(0.0972039 0.000399097 0)
(0.0970764 0.00041578 0)
(0.0969463 0.000433533 0)
(0.0968133 0.000452344 0)
(0.0966773 0.000472208 0)
(0.0965382 0.000493128 0)
(0.0963958 0.000515113 0)
(0.09625 0.00053818 0)
(0.0961008 0.00056235 0)
(0.095948 0.000587651 0)
(0.0957915 0.000614117 0)
(0.0956313 0.000641782 0)
(0.0954672 0.000670688 0)
(0.0952993 0.00070088 0)
(0.0951272 0.00073241 0)
(0.0949511 0.000765342 0)
(0.0947709 0.000799778 0)
(0.0945863 0.000835925 0)
(0.0943973 0.000874304 0)
(0.0999997 4.82659e-06 0)
(0.099995 1.43504e-05 0)
(0.0999852 2.37406e-05 0)
(0.0999709 3.30376e-05 0)
(0.0999523 4.22947e-05 0)
(0.0999297 5.15493e-05 0)
(0.0999031 6.08298e-05 0)
(0.0998727 7.01878e-05 0)
(0.0998386 7.97583e-05 0)
(0.0998009 8.98189e-05 0)
(0.0997593 0.000100806 0)
(0.0997137 0.000113254 0)
(0.0996635 0.000127663 0)
(0.0996079 0.000144338 0)
(0.0995464 0.000163262 0)
(0.0994782 0.000184047 0)
(0.0994032 0.000205982 0)
(0.0993212 0.000228161 0)
(0.0992326 0.000249652 0)
(0.0991382 0.000269653 0)
(0.0990387 0.000287606 0)
(0.0989351 0.000303258 0)
(0.0988285 0.000316647 0)
(0.0987197 0.000328058 0)
(0.0986094 0.00033794 0)
(0.0984982 0.00034683 0)
(0.0983863 0.000355277 0)
(0.098274 0.000363787 0)
(0.0981612 0.00037279 0)
(0.0980478 0.000382625 0)
(0.0979337 0.000393535 0)
(0.0978185 0.000405682 0)
(0.097702 0.000419161 0)
(0.097584 0.000434015 0)
(0.0974641 0.000450252 0)
(0.0973423 0.000467858 0)
(0.0972181 0.000486812 0)
(0.0970915 0.000507087 0)
(0.0969623 0.000528664 0)
(0.0968302 0.000551526 0)
(0.0966953 0.000575667 0)
(0.0965572 0.00060109 0)
(0.096416 0.000627806 0)
(0.0962716 0.000655834 0)
(0.0961237 0.0006852 0)
(0.0959723 0.000715936 0)
(0.0958174 0.00074808 0)
(0.0956588 0.000781676 0)
(0.0954965 0.000816771 0)
(0.0953304 0.000853418 0)
(0.0951604 0.000891675 0)
(0.0949864 0.000931617 0)
(0.0948084 0.00097335 0)
(0.0946262 0.00101708 0)
(0.0944399 0.00106335 0)
(0.0999997 5.69699e-06 0)
(0.099995 1.69358e-05 0)
(0.0999852 2.80182e-05 0)
(0.099971 3.89898e-05 0)
(0.0999525 4.9914e-05 0)
(0.09993 6.08351e-05 0)
(0.0999035 7.17865e-05 0)
(0.0998732 8.28289e-05 0)
(0.0998393 9.41197e-05 0)
(0.0998017 0.000105983 0)
(0.0997604 0.00011893 0)
(0.099715 0.000133587 0)
(0.0996651 0.000150541 0)
(0.0996099 0.000170155 0)
(0.0995488 0.000192414 0)
(0.0994813 0.000216868 0)
(0.0994069 0.00024269 0)
(0.0993256 0.000268819 0)
(0.0992379 0.000294163 0)
(0.0991442 0.000317776 0)
(0.0990455 0.000339001 0)
(0.0989427 0.000357531 0)
(0.0988368 0.000373405 0)
(0.0987287 0.000386949 0)
(0.098619 0.000398685 0)
(0.0985083 0.00040924 0)
(0.098397 0.000419256 0)
(0.0982852 0.000429326 0)
(0.0981729 0.000439957 0)
(0.09806 0.000451547 0)
(0.0979463 0.000464386 0)
(0.0978317 0.000478668 0)
(0.0977158 0.000494504 0)
(0.0975985 0.000511949 0)
(0.0974794 0.000531013 0)
(0.0973583 0.000551683 0)
(0.0972351 0.000573934 0)
(0.0971094 0.000597736 0)
(0.0969812 0.000623064 0)
(0.0968504 0.000649901 0)
(0.0967166 0.00067824 0)
(0.0965799 0.000708081 0)
(0.0964401 0.000739437 0)
(0.0962972 0.00077233 0)
(0.0961509 0.000806788 0)
(0.0960013 0.000842848 0)
(0.0958482 0.000880554 0)
(0.0956916 0.000919954 0)
(0.0955314 0.000961102 0)
(0.0953675 0.00100406 0)
(0.0951998 0.00104888 0)
(0.0950283 0.00109565 0)
(0.0948529 0.00114448 0)
(0.0946737 0.00119554 0)
(0.0944904 0.00124926 0)
(0.0941109 0.000102931 -4.43887e-24)
(0.0939027 0.000108116 -4.52685e-24)
(0.0936846 0.000113638 -3.17423e-26)
(0.093456 0.000119523 1.39151e-23)
(0.0932161 0.000125806 -4.60901e-24)
(0.0929642 0.000132523 -4.74585e-24)
(0.0926995 0.000139712 -1.46195e-23)
(0.092421 0.000147417 1.4515e-23)
(0.0921278 0.000155687 4.96874e-24)
(0.0918189 0.000164574 0)
(0.0914931 0.00017414 5.1359e-24)
(0.0911491 0.000184452 -5.22578e-24)
(0.0907854 0.000195586 4.30043e-23)
(0.0904006 0.000207628 -9.21776e-23)
(0.089993 0.000220674 4.92767e-23)
(0.0895605 0.000234833 3.9951e-23)
(0.0891012 0.000250229 5.1265e-23)
(0.0886128 0.000267003 -5.87267e-24)
(0.0880925 0.000285315 6.00198e-24)
(0.0875375 0.000305349 -6.13866e-24)
(0.0869445 0.000327316 0)
(0.0863099 0.000351461 6.43646e-24)
(0.0856296 0.000378065 -6.59886e-24)
(0.0848989 0.000407457 0)
(0.0841125 0.000440021 -6.95439e-24)
(0.0832644 0.000476208 0)
(0.0823476 0.000516552 -7.35671e-24)
(0.0813544 0.000561684 -1.23287e-22)
(0.0802756 0.000612363 1.30913e-22)
(0.0791005 0.000669498 -1.31399e-22)
(0.0778169 0.00073419 1.31199e-22)
(0.0764102 0.000807779 0)
(0.0748634 0.000891899 0)
(0.0731562 0.000988554 1.60696e-22)
(0.0712645 0.00110019 -1.51197e-22)
(0.0691594 0.00122977 0)
(0.0668063 0.00138085 0)
(0.064164 0.00155754 0)
(0.0611835 0.00176434 0)
(0.0578078 0.00200572 0)
(0.0539724 0.00228519 0)
(0.0496082 0.00260351 0)
(0.0446483 0.00295585 0)
(0.0390404 0.00332707 0)
(0.0327717 0.00368487 -1.47537e-23)
(0.0259062 0.00396989 -5.05836e-22)
(0.018627 0.00408377 5.05078e-22)
(0.011307 0.00387648 5.48365e-22)
(0.00483733 0.00311775 -5.47542e-22)
(0.000985294 0.00144788 0)
(0.09412 0.00030863 -4.49171e-24)
(0.093912 0.000324127 -9.16458e-24)
(0.0936941 0.000340642 -4.80773e-24)
(0.0934657 0.000358257 4.47345e-24)
(0.0932261 0.000377068 -4.67416e-24)
(0.0929745 0.000397178 3.351e-23)
(0.0927101 0.000418704 -5.26279e-23)
(0.0924321 0.000441775 4.88981e-24)
(0.0921394 0.000466537 6.52927e-23)
(0.091831 0.000493152 -9.01755e-23)
(0.0915058 0.0005218 -8.81045e-23)
(0.0911624 0.000552685 7.76347e-23)
(0.0907995 0.000586034 0)
(0.0904156 0.000622104 5.4249e-24)
(0.0900088 0.000661184 -1.6583e-23)
(0.0895775 0.000703602 -1.88129e-22)
(0.0891194 0.000749728 1.80598e-22)
(0.0886323 0.000799984 -1.9198e-22)
(0.0881135 0.000854851 -1.8032e-23)
(0.0875602 0.00091488 6.15213e-24)
(0.0869692 0.000980707 0)
(0.0863369 0.00105306 -6.45314e-24)
(0.0856591 0.00113279 -2.08e-22)
(0.0849313 0.00122087 4.34694e-22)
(0.0841483 0.00131847 2.39851e-22)
(0.0833042 0.00142692 -4.52338e-22)
(0.0823921 0.00154784 4.87173e-22)
(0.0814043 0.0016831 -4.94343e-22)
(0.0803319 0.00183497 -7.84505e-24)
(0.0791644 0.00200619 0)
(0.0778899 0.00220002 0)
(0.0764943 0.00242047 0)
(0.074961 0.00267242 0)
(0.0732704 0.00296182 -9.31448e-24)
(0.0713993 0.00329593 -6.31351e-22)
(0.0693201 0.00368357 -2.64399e-23)
(0.0669998 0.00413523 6.5608e-22)
(0.064399 0.00466302 7.13812e-22)
(0.0614715 0.00528019 -7.12867e-22)
(0.0581631 0.00599978 -2.36539e-23)
(0.0544128 0.0068318 -2.46908e-23)
(0.0501546 0.00777802 -8.50355e-22)
(0.0453236 0.00882327 8.22358e-22)
(0.0398664 0.00992171 -2.79817e-23)
(0.0337624 0.0109765 1.48568e-23)
(0.0270562 0.0118104 -1.02865e-21)
(0.0198951 0.0121306 1.02826e-21)
(0.0125908 0.0114914 -2.14434e-21)
(0.0059142 0.009218 2.10848e-21)
(0.00142259 0.00424982 -2.16001e-21)
(0.0941381 0.000513343 -2.65656e-23)
(0.0939305 0.000539058 -9.33046e-24)
(0.093713 0.000566466 3.59685e-23)
(0.0934851 0.000595706 -7.40291e-23)
(0.0932461 0.000626933 1.58429e-22)
(0.0929951 0.000660319 -7.50611e-23)
(0.0927315 0.000696058 1.41843e-26)
(0.0924543 0.000734368 9.75225e-24)
(0.0921626 0.000775489 1.70115e-22)
(0.0918553 0.000819692 -1.60021e-22)
(0.0915313 0.000867278 0)
(0.0911893 0.000918587 1.45676e-26)
(0.090828 0.000973996 0)
(0.0904458 0.00103393 1.86361e-22)
(0.090041 0.00109888 -1.64269e-22)
(0.0896118 0.00116938 -3.54302e-22)
(0.0891562 0.00124606 1.97579e-23)
(0.0886718 0.00132961 -3.73123e-22)
(0.0881562 0.00142083 1.20657e-23)
(0.0876065 0.00152065 -3.99865e-22)
(0.0870195 0.00163012 4.12115e-22)
(0.0863918 0.00175045 -4.20072e-22)
(0.0857193 0.00188306 4.32951e-22)
(0.0849976 0.00202959 1.36287e-23)
(0.0842216 0.00219193 -1.40035e-23)
(0.0833855 0.00237235 1.44016e-23)
(0.0824829 0.00257349 -4.82436e-22)
(0.0815062 0.0027985 4.97288e-22)
(0.0804468 0.00305112 5.29117e-22)
(0.079295 0.00333587 -5.12877e-22)
(0.0780391 0.00365816 0)
(0.076666 0.00402459 0)
(0.0751602 0.00444318 1.80142e-23)
(0.0735033 0.00492369 1.24092e-21)
(0.0716741 0.00547801 2.93824e-23)
(0.0696473 0.00612046 -1.24852e-21)
(0.0673931 0.00686804 0)
(0.0648762 0.00774025 -2.17923e-23)
(0.0620553 0.0087582 1.51649e-21)
(0.0588824 0.00994232 -3.02643e-21)
(0.0553032 0.0113076 3.20617e-21)
(0.051258 0.0128551 9.52842e-23)
(0.0466856 0.0145575 -1.664e-21)
(0.0415305 0.0163368 -1.79847e-21)
(0.0357562 0.0180319 1.85348e-21)
(0.0293675 0.0193517 1.42676e-24)
(0.0224388 0.0198153 -3.1465e-23)
(0.0151611 0.0186915 2.07258e-21)
(0.0080507 0.0149062 -2.00695e-21)
(0.00226273 0.00680768 -2.00744e-21)
(0.0941652 0.000716337 1.75014e-23)
(0.0939581 0.00075213 -8.88401e-24)
(0.0937413 0.000790265 1.95108e-26)
(0.0935142 0.000830944 9.14646e-24)
(0.093276 0.000874386 -1.96103e-26)
(0.0930261 0.000920834 1.52054e-22)
(0.0927637 0.000970562 -2.87366e-22)
(0.0924879 0.00102387 1.54463e-22)
(0.0921977 0.00108111 -9.89266e-24)
(0.0918921 0.00114264 1.82919e-22)
(0.0915701 0.0012089 -1.62708e-22)
(0.0912303 0.00128035 -3.37843e-22)
(0.0908714 0.00135752 6.82243e-22)
(0.0904919 0.00144101 -6.95862e-22)
(0.0900902 0.0015315 7.10135e-22)
(0.0896645 0.00162974 -7.13858e-22)
(0.0892127 0.0017366 -3.77963e-22)
(0.0887327 0.00185306 2.24667e-26)
(0.088222 0.00198023 0)
(0.0876779 0.0021194 -3.89389e-22)
(0.0870973 0.00227205 4.01611e-22)
(0.0864767 0.00243987 0)
(0.0858125 0.00262483 -8.67714e-22)
(0.0851003 0.00282921 8.53633e-22)
(0.0843352 0.00305569 1.41368e-23)
(0.0835118 0.00330738 -3.69533e-26)
(0.082624 0.00358798 1.49425e-23)
(0.0816646 0.00390185 0)
(0.0806257 0.0042542 -5.29802e-26)
(0.079498 0.00465127 0)
(0.0782712 0.00510055 -1.69602e-23)
(0.076933 0.00561112 1.1466e-21)
(0.0754696 0.00619397 -1.14629e-21)
(0.0738647 0.00686244 -1.89557e-23)
(0.0720999 0.00763269 3.92234e-23)
(0.0701533 0.00852408 -1.35139e-21)
(0.068 0.00955936 1.30938e-21)
(0.0656106 0.0107644 2.21692e-23)
(0.0629515 0.0121668 -3.53821e-25)
(0.0599838 0.0137924 2.36174e-23)
(0.056663 0.015659 -1.62013e-21)
(0.0529388 0.0177639 3.27387e-21)
(0.048756 0.020065 -1.70597e-21)
(0.0440552 0.0224508 1.76174e-21)
(0.0387766 0.024697 -1.84432e-21)
(0.032865 0.0264065 -3.66117e-21)
(0.0262801 0.0269279 7.46898e-21)
(0.0190316 0.0252608 -3.78102e-21)
(0.0112906 0.0199695 0)
(0.00351025 0.00901185 -3.55765e-21)
(0.0942011 0.000916989 -8.68021e-24)
(0.0939948 0.000962632 -3.54739e-23)
(0.0937789 0.00101125 1.07562e-22)
(0.0935529 0.0010631 -1.45275e-22)
(0.0933161 0.00111847 6.3992e-23)
(0.0930677 0.00117769 9.38886e-24)
(0.092807 0.0012411 -9.54874e-24)
(0.0925331 0.00130909 -2.46159e-26)
(0.0922451 0.0013821 9.89076e-24)
(0.091942 0.00146061 -2.01231e-23)
(0.0916227 0.00154516 -3.31277e-22)
(0.0912861 0.00163636 3.41893e-22)
(0.0909306 0.00173488 -3.34124e-22)
(0.090555 0.00184148 3.44908e-22)
(0.0901577 0.00195703 0)
(0.0897368 0.00208251 -2.47828e-26)
(0.0892906 0.002219 0)
(0.0888167 0.00236778 -3.73137e-22)
(0.088313 0.00253027 3.97383e-22)
(0.0877767 0.00270811 -1.24928e-23)
(0.087205 0.00290319 -8.42396e-22)
(0.0865947 0.00311768 8.29962e-22)
(0.0859422 0.00335409 -1.35045e-23)
(0.0852433 0.00361534 0)
(0.0844937 0.00390483 0)
(0.0836882 0.00422654 -9.68645e-22)
(0.0828212 0.00458517 9.39217e-22)
(0.0818862 0.00498628 0)
(0.0808759 0.00543644 -3.22308e-23)
(0.0797823 0.00594354 0)
(0.078596 0.00651702 1.72578e-23)
(0.0773065 0.00716826 -1.77823e-23)
(0.0759021 0.00791096 -1.85202e-23)
(0.0743693 0.00876169 1.90824e-23)
(0.0726933 0.00974032 1.25532e-21)
(0.070857 0.0108705 -1.29563e-21)
(0.0688416 0.0121797 2.81453e-21)
(0.066626 0.0136986 -2.81633e-21)
(0.0641864 0.0154595 2.98649e-21)
(0.0614959 0.0174914 8.40061e-23)
(0.0585231 0.0198115 -3.14521e-21)
(0.0552305 0.0224107 -2.50923e-23)
(0.0515704 0.0252298 1.24435e-24)
(0.0474801 0.0281231 1.64358e-24)
(0.042871 0.0308086 2.16435e-24)
(0.0376123 0.032798 -5.41917e-23)
(0.0315107 0.0333005 -2.48823e-23)
(0.0243213 0.0310862 -2.36809e-23)
(0.0157654 0.0243725 0)
(0.00518805 0.0108556 7.29503e-24)
(0.0942456 0.00111467 -4.30753e-23)
(0.0940404 0.00116992 2.59114e-23)
(0.0938258 0.00122879 8.87044e-24)
(0.0936014 0.0012916 1.36228e-22)
(0.0933664 0.00135869 -1.36276e-22)
(0.0931201 0.00143047 1.41075e-22)
(0.0928618 0.00150736 -3.13198e-22)
(0.0925906 0.00158985 4.46056e-22)
(0.0923056 0.00167845 -3.12473e-22)
(0.0920059 0.00177376 -3.24343e-22)
(0.0916903 0.00187644 -1.63791e-23)
(0.0913578 0.00198721 6.58939e-22)
(0.0910071 0.00210692 -6.94287e-22)
(0.0906367 0.00223649 3.2387e-22)
(0.0902452 0.00237698 3.49718e-22)
(0.0898309 0.00252956 3.65786e-22)
(0.089392 0.00269559 -2.83585e-23)
(0.0889264 0.0028766 7.45495e-22)
(0.088432 0.00307435 7.70237e-22)
(0.0879063 0.00329083 1.96361e-23)
(0.0873467 0.00352834 -8.16754e-22)
(0.08675 0.00378954 0)
(0.0861131 0.00407748 0)
(0.0854322 0.00439571 -9.1115e-22)
(0.0847032 0.00474838 8.98063e-22)
(0.0839217 0.00514033 9.67668e-22)
(0.0830825 0.00557725 -9.69101e-22)
(0.08218 0.00606585 0)
(0.0812079 0.00661408 1.08208e-21)
(0.0801595 0.0072314 -1.08416e-21)
(0.0790269 0.0079291 0)
(0.0778018 0.00872066 -2.34584e-21)
(0.076475 0.00962224 2.36758e-21)
(0.0750367 0.0106531 -1.9564e-23)
(0.0734763 0.0118361 -2.61574e-21)
(0.0717829 0.0131979 2.64002e-21)
(0.0699453 0.014769 0)
(0.0679523 0.0165823 2.9599e-21)
(0.0657924 0.0186706 -2.94164e-21)
(0.0634536 0.0210608 2.38153e-23)
(0.0609211 0.0237632 3.24048e-21)
(0.0581736 0.0267543 -6.49908e-21)
(0.0551751 0.0299496 2.07897e-23)
(0.0518616 0.0331645 3.76182e-23)
(0.0481175 0.0360614 3.36651e-21)
(0.0437337 0.0380805 3.72786e-24)
(0.0383472 0.0383408 -2.89403e-21)
(0.0313884 0.0354797 2.96683e-21)
(0.0219014 0.0275246 0)
(0.00753708 0.0120534 2.66511e-23)
(0.0942986 0.00130855 8.48222e-24)
(0.094095 0.00137287 7.81755e-23)
(0.0938824 0.00144148 -6.9717e-23)
(0.0936602 0.00151475 8.95422e-24)
(0.0934277 0.00159309 1.37703e-22)
(0.0931843 0.00167697 -1.37919e-22)
(0.0929292 0.0017669 -2.95664e-22)
(0.0926617 0.00186342 4.33029e-24)
(0.0923807 0.00196717 -5.59317e-24)
(0.0920855 0.00207885 3.28569e-22)
(0.0917749 0.00219923 -3.21127e-22)
(0.091448 0.00232919 6.81522e-22)
(0.0911034 0.00246971 -3.39637e-22)
(0.0907399 0.00262189 1.09831e-23)
(0.0903561 0.002787 1.12425e-23)
(0.0899505 0.00296643 7.43949e-22)
(0.0895213 0.00316181 -5.05726e-24)
(0.0890666 0.00337495 7.76779e-22)
(0.0885846 0.00360794 1.24201e-23)
(0.0880729 0.00386317 0)
(0.0875291 0.00414339 0)
(0.0869505 0.00445174 -8.72743e-22)
(0.0863342 0.00479187 8.74948e-22)
(0.085677 0.00516803 0)
(0.0849754 0.00558515 1.47263e-23)
(0.0842254 0.00604898 0)
(0.0834229 0.0065663 -1.01722e-21)
(0.0825632 0.00714505 2.07102e-21)
(0.0816415 0.00779464 -1.05387e-21)
(0.0806522 0.00852619 -2.23327e-21)
(0.0795899 0.00935292 -7.46776e-23)
(0.0784485 0.0102905 -7.86754e-23)
(0.0772222 0.0113575 -8.25582e-23)
(0.075905 0.0125757 2.50961e-21)
(0.0744917 0.0139704 2.69102e-21)
(0.072978 0.0155706 -2.69743e-21)
(0.0713611 0.0174076 0)
(0.0696405 0.0195134 2.98086e-21)
(0.0678179 0.0219162 -2.9878e-21)
(0.0658971 0.0246322 -3.16885e-21)
(0.0638809 0.0276523 3.15139e-21)
(0.0617663 0.0309209 2.57399e-23)
(0.0595322 0.0343064 3.16178e-21)
(0.0571196 0.037561 -1.04056e-22)
(0.0543985 0.0402721 -3.1229e-21)
(0.0511063 0.0418122 2.38353e-23)
(0.0467613 0.041277 0)
(0.040552 0.0373627 -1.90515e-23)
(0.0306978 0.028299 -9.27892e-22)
(0.0121349 0.0119864 4.14323e-22)
(-0.000203625 0.00027747 0)
(-0.000892355 0.000532494 3.17508e-22)
(-0.00192729 0.000599891 -3.17985e-22)
(-0.0029853 0.000564219 -3.17493e-22)
(-0.00391115 0.000472021 3.17971e-22)
(-0.00464157 0.000350877 -9.81772e-24)
(-0.00514494 0.000217423 0)
(-0.00540705 8.13842e-05 0)
(-0.00542814 -5.14843e-05 0)
(-0.005218 -0.00017974 0)
(-0.00478669 -0.000301427 0)
(-0.00414402 -0.000415665 0)
(-0.00330203 -0.000522212 0)
(-0.00227326 -0.000621222 0)
(-0.00107011 -0.000712755 0)
(0.00029512 -0.000796998 1.09382e-22)
(0.00181032 -0.000874132 -1.0287e-22)
(0.00346356 -0.000944354 0)
(0.00524313 -0.00100784 0)
(0.00713753 -0.00106476 -8.49408e-23)
(0.00913548 -0.00111528 8.50705e-23)
(0.011226 -0.00115952 -6.80058e-23)
(0.0133978 -0.00119758 4.385e-24)
(0.0156401 -0.00122956 0)
(0.0179421 -0.00125563 3.65725e-24)
(0.0202936 -0.00127602 0)
(0.0226841 -0.00129099 0)
(0.0251041 -0.00130077 0)
(0.0275443 -0.0013056 2.34588e-24)
(0.0299955 -0.00130574 0)
(0.0324493 -0.00130145 -1.78104e-24)
(0.0348974 -0.00129299 1.52389e-24)
(0.0373322 -0.00128064 -1.28401e-24)
(0.0397462 -0.00126468 8.62561e-24)
(0.0421329 -0.00124538 -8.43211e-24)
(0.0444858 -0.00122305 -3.89938e-24)
(0.0467991 -0.00119796 7.34597e-24)
(0.0490677 -0.0011704 -3.27315e-24)
(0.0512868 -0.00114065 -2.01968e-25)
(0.053452 -0.00110901 7.73269e-26)
(0.0555598 -0.00107575 0)
(0.0576069 -0.00104114 -1.30215e-25)
(0.0595906 -0.00100544 1.2449e-24)
(0.0615087 -0.000968914 -1.31942e-24)
(0.0633594 -0.000931796 3.4983e-25)
(0.0651416 -0.000894322 -1.25893e-24)
(0.0668544 -0.000856705 4.12851e-25)
(0.0684973 -0.000819141 9.78472e-25)
(0.0700702 -0.000781796 -4.98859e-25)
(0.0715735 -0.000744799 5.29262e-25)
(-0.000265634 0.000797909 -1.2033e-21)
(-0.000998156 0.00152651 -1.31548e-21)
(-0.00194701 0.00171971 1.29672e-21)
(-0.00286753 0.00161589 -6.2401e-22)
(-0.00364308 0.00134787 6.2505e-22)
(-0.00422744 0.000995509 9.88586e-24)
(-0.00459786 0.000606583 -1.96123e-23)
(-0.00474344 0.000209153 -6.23374e-22)
(-0.00466666 -0.000179248 6.04964e-22)
(-0.00437656 -0.000554881 -1.82466e-23)
(-0.00388021 -0.000911998 -1.76854e-23)
(-0.00318632 -0.00124809 5.33061e-22)
(-0.00230559 -0.00156197 -5.33769e-22)
(-0.00124902 -0.00185417 -4.89596e-22)
(-2.7519e-05 -0.00212466 2.37553e-23)
(0.00134777 -0.0023739 4.67114e-22)
(0.00286581 -0.00260244 -6.71054e-24)
(0.00451563 -0.00281072 -1.27906e-23)
(0.00628638 -0.00299918 0)
(0.00816729 -0.0031683 0)
(0.0101478 -0.00331854 0)
(0.0122172 -0.00345024 -4.78005e-24)
(0.0143652 -0.00356368 2.57674e-22)
(0.0165812 -0.00365915 -2.79554e-22)
(0.0188549 -0.00373717 2.21119e-22)
(0.0211764 -0.00379839 -1.23699e-22)
(0.0235357 -0.00384354 -1.92339e-22)
(0.0259236 -0.00387329 9.09346e-23)
(0.0283308 -0.00388837 -2.35192e-24)
(0.0307488 -0.00388949 -4.21776e-24)
(0.0331691 -0.0038774 1.78492e-24)
(0.0355837 -0.00385289 -4.66831e-24)
(0.0379852 -0.00381675 3.66304e-23)
(0.0403664 -0.00376981 -7.023e-23)
(0.0427206 -0.00371291 3.0228e-23)
(0.0450418 -0.0036469 -2.07503e-24)
(0.0473241 -0.00357262 4.97238e-25)
(0.0495625 -0.00349094 0)
(0.0517523 -0.00340271 -2.63416e-24)
(0.0538893 -0.00330878 2.30291e-24)
(0.0559698 -0.00320996 -1.16432e-24)
(0.0579906 -0.00310708 1.53196e-24)
(0.0599492 -0.00300092 -2.14724e-25)
(0.0618434 -0.00289223 -1.67336e-24)
(0.0636713 -0.00278176 2.81783e-24)
(0.0654317 -0.00267018 4.01743e-25)
(0.0671239 -0.00255814 3.13536e-24)
(0.0687473 -0.00244622 5.77484e-25)
(0.0703018 -0.00233491 -9.31411e-25)
(0.0717877 -0.00222459 -1.55703e-24)
(-0.000373847 0.00122029 -1.24472e-21)
(-0.00117195 0.0023098 1.36638e-21)
(-0.00193778 0.00260658 -1.32558e-21)
(-0.00258612 0.00244438 -2.06929e-23)
(-0.00306995 0.00202626 -3.28505e-25)
(-0.0033738 0.00147594 -1.2691e-21)
(-0.00349103 0.000865882 1.31072e-21)
(-0.00341503 0.000239498 1.25567e-21)
(-0.00315229 -0.000374309 -1.38633e-23)
(-0.00271144 -0.000971091 -2.35599e-21)
(-0.00209347 -0.00154088 2.31879e-21)
(-0.00130406 -0.00207983 -1.11434e-21)
(-0.00035137 -0.00258448 -1.68324e-23)
(0.000756213 -0.00305567 0)
(0.00201084 -0.00349344 9.69737e-22)
(0.00340342 -0.00389812 -6.39367e-23)
(0.00492501 -0.00427019 -8.92916e-22)
(0.00656657 -0.0046101 2.60412e-23)
(0.00831882 -0.00491842 0)
(0.0101724 -0.00519573 0)
(0.0121179 -0.00544265 3.2764e-22)
(0.0141459 -0.00565967 -3.17974e-22)
(0.0162469 -0.00584713 -2.69372e-22)
(0.0184114 -0.00600549 2.86877e-22)
(0.0206296 -0.00613535 7.70383e-24)
(0.0228927 -0.00623784 -6.98648e-24)
(0.0251912 -0.00631402 6.29451e-24)
(0.0275164 -0.00636501 -1.61114e-22)
(0.0298598 -0.0063919 1.66902e-22)
(0.0322131 -0.00639585 -1.19974e-22)
(0.0345685 -0.00637804 1.28729e-22)
(0.0369183 -0.00633973 3.1538e-24)
(0.0392553 -0.00628221 7.95331e-23)
(0.0415727 -0.0062068 -1.43026e-22)
(0.0438642 -0.00611489 6.74756e-23)
(0.0461239 -0.00600783 2.18527e-23)
(0.0483462 -0.00588705 -1.92992e-23)
(0.0505261 -0.00575393 0)
(0.0526592 -0.00560988 -8.94563e-26)
(0.0547413 -0.00545628 0)
(0.056769 -0.00529452 -1.48167e-24)
(0.0587391 -0.00512591 1.1894e-24)
(0.0606491 -0.00495176 -3.23459e-25)
(0.0624967 -0.00477334 -6.03992e-26)
(0.0642803 -0.00459184 -5.61998e-24)
(0.0659986 -0.0044084 1.12079e-23)
(0.0676508 -0.00422409 -6.4109e-24)
(0.0692363 -0.00403988 3.72602e-24)
(0.0707551 -0.00385657 -2.73331e-24)
(0.0722072 -0.0036747 -9.93971e-25)
(-0.000499831 0.00146497 -2.67491e-21)
(-0.00133181 0.00276305 0)
(-0.00179109 0.0031339 2.78753e-21)
(-0.00204239 0.00292701 -5.57977e-21)
(-0.00211183 0.00240042 2.81341e-21)
(-0.0020245 0.00170592 1.29489e-21)
(-0.00179377 0.000933642 -1.35854e-21)
(-0.00141475 0.00014114 1.27729e-21)
(-0.000899159 -0.000660735 -2.54142e-21)
(-0.000255412 -0.00144303 1.24452e-21)
(0.000524596 -0.00219184 1.872e-23)
(0.00144061 -0.00290249 2.75561e-25)
(0.00248831 -0.00357282 1.7122e-23)
(0.00366141 -0.004202 -1.05091e-21)
(0.00495657 -0.00478934 1.01894e-21)
(0.00636826 -0.00533465 3.00847e-23)
(0.00789032 -0.00583798 -1.41149e-23)
(0.00951613 -0.00629958 8.34779e-22)
(0.0112386 -0.00671981 -8.34794e-22)
(0.0130503 -0.00709915 -1.19871e-23)
(0.0149435 -0.00743812 0)
(0.0169105 -0.0077372 2.78546e-25)
(0.018943 -0.00799673 0)
(0.0210325 -0.00821696 8.80054e-24)
(0.023171 -0.00839876 2.59298e-25)
(0.0253498 -0.00854325 7.05263e-24)
(0.0275611 -0.00865197 -3.97837e-22)
(0.0297966 -0.00872628 3.91858e-22)
(0.0320487 -0.0087676 0)
(0.0343098 -0.0087774 -1.35153e-22)
(0.0365726 -0.00875726 1.39468e-22)
(0.03883 -0.00870882 0)
(0.0410752 -0.00863381 -1.80644e-25)
(0.043302 -0.00853401 -7.29096e-23)
(0.0455043 -0.00841126 1.29922e-22)
(0.0476764 -0.00826744 -1.02363e-22)
(0.0498132 -0.00810445 7.92634e-23)
(0.05191 -0.00792421 -5.80585e-23)
(0.0539624 -0.00772864 2.39123e-23)
(0.0559666 -0.00751964 3.53039e-24)
(0.057919 -0.0072991 -3.31178e-24)
(0.0598168 -0.00706886 4.93407e-26)
(0.0616574 -0.00683073 5.89012e-24)
(0.0634388 -0.00658644 -1.47958e-23)
(0.0651592 -0.00633766 8.04899e-24)
(0.0668173 -0.00608598 6.94176e-26)
(0.0684124 -0.00583288 -8.09767e-25)
(0.0699439 -0.00557969 -5.83866e-26)
(0.0714115 -0.00532754 9.44397e-25)
(0.0728155 -0.00507706 -1.9323e-24)
(-0.000557278 0.00146087 -1.50737e-24)
(-0.00129407 0.00281258 -2.48392e-23)
(-0.00132828 0.00321718 -2.41307e-23)
(-0.00107635 0.00299073 -2.34965e-23)
(-0.000639719 0.00241181 -4.52964e-23)
(-8.49242e-05 0.00163914 -4.5598e-25)
(0.00055998 0.00077281 2.14625e-23)
(0.00127411 -0.000133795 -2.13256e-23)
(0.0020631 -0.00106347 -2.07402e-23)