/*--------------------------------*- C++ -*----------------------------------*\
| =========                 |                                                 |
| \\      /  F ield         | OpenFOAM: The Open Source CFD Toolbox           |
|  \\    /   O peration     | Version:  2412                                  |
|   \\  /    A nd           | Website:  www.openfoam.com                      |
|    \\/     M anipulation  |                                                 |
\*---------------------------------------------------------------------------*/
FoamFile
{
    version     2.0;
    format      ascii;
    arch        "LSB;label=32;scalar=64";
    class       volVectorField;
    location    "26.5";
    object      vorticity;
}
// * * * * * * * * * * * * * * * * * * * * * * * * * * * * * * * * * * * * * //

dimensions      [0 0 -1 0 0 0 0];

internalField   nonuniform List<vector> 
63420
(
(0 0 5.94673e-06)
(0 0 5.92079e-06)
(0 0 5.89691e-06)
(0 0 5.87484e-06)
(0 0 5.85101e-06)
(0 0 5.82068e-06)
(0 0 5.79181e-06)
(0 0 5.80645e-06)
(0 0 5.95205e-06)
(0 0 6.34504e-06)
(0 0 7.08314e-06)
(0 0 8.18495e-06)
(0 0 9.54643e-06)
(0 0 1.09391e-05)
(0 0 1.2055e-05)
(0 0 1.25827e-05)
(0 0 1.2288e-05)
(0 0 1.10708e-05)
(0 0 8.98532e-06)
(0 0 6.221e-06)
(0 0 3.05645e-06)
(0 0 -1.98396e-07)
(0 0 -3.25589e-06)
(0 0 -5.88959e-06)
(0 0 -7.9544e-06)
(0 0 -9.38883e-06)
(0 0 -1.0204e-05)
(0 0 -1.04648e-05)
(0 0 -1.02697e-05)
(0 0 -9.73069e-06)
(0 0 -8.9587e-06)
(0 0 -8.05298e-06)
(0 0 -7.09537e-06)
(0 0 -6.14827e-06)
(0 0 -5.25539e-06)
(0 0 -4.44402e-06)
(0 0 -3.72819e-06)
(0 0 -3.11196e-06)
(0 0 -2.59241e-06)
(0 0 -2.16218e-06)
(0 0 -1.81151e-06)
(0 0 -1.52968e-06)
(0 0 -1.30603e-06)
(0 0 -1.13059e-06)
(0 0 -9.94441e-07)
(0 0 -8.89824e-07)
(0 0 -8.10096e-07)
(0 0 -7.49455e-07)
(0 0 -7.02031e-07)
(0 0 -6.59044e-07)
(0 0 -5.99536e-07)
(0 0 -4.60668e-07)
(0 0 -4.52284e-08)
(0 0 1.25809e-06)
(0 4.40454e-23 5.28806e-06)
(0 0 1.78399e-05)
(0 0 1.77619e-05)
(0 0 1.76895e-05)
(0 0 1.76224e-05)
(0 0 1.75504e-05)
(0 0 1.74596e-05)
(0 0 1.73735e-05)
(0 0 1.74176e-05)
(0 0 1.78529e-05)
(0 0 1.90273e-05)
(0 0 2.12334e-05)
(0 0 2.45277e-05)
(0 0 2.86008e-05)
(0 0 3.27714e-05)
(0 0 3.61203e-05)
(0 0 3.77175e-05)
(0 0 3.68618e-05)
(0 0 3.32524e-05)
(0 0 2.70483e-05)
(0 0 1.88131e-05)
(0 0 9.37643e-06)
(0 0 -3.37486e-07)
(0 0 -9.47021e-06)
(0 0 -1.73453e-05)
(0 0 -2.35284e-05)
(0 0 -2.78344e-05)
(0 0 -3.02945e-05)
(0 0 -3.11014e-05)
(0 0 -3.05467e-05)
(0 0 -2.89641e-05)
(0 0 -2.66838e-05)
(0 0 -2.40014e-05)
(0 0 -2.11611e-05)
(0 0 -1.83491e-05)
(0 0 -1.56961e-05)
(0 0 -1.32837e-05)
(0 0 -1.11542e-05)
(0 0 -9.32014e-06)
(0 0 -7.77296e-06)
(0 0 -6.4911e-06)
(0 0 -5.44566e-06)
(0 0 -4.6049e-06)
(0 0 -3.93717e-06)
(0 0 -3.41285e-06)
(0 0 -3.0054e-06)
(0 0 -2.69173e-06)
(0 0 -2.45208e-06)
(0 0 -2.26918e-06)
(0 0 -2.12566e-06)
(0 0 -1.99578e-06)
(0 0 -1.81858e-06)
(0 0 -1.4116e-06)
(0 0 -2.01849e-07)
(0 0 3.58896e-06)
(0 4.45154e-23 1.53181e-05)
(0 0 2.97209e-05)
(0 0 2.95908e-05)
(0 0 2.94697e-05)
(0 0 2.93576e-05)
(0 0 2.92376e-05)
(0 0 2.90865e-05)
(0 0 2.89434e-05)
(0 0 2.90158e-05)
(0 0 2.9737e-05)
(0 0 3.16851e-05)
(0 0 3.53482e-05)
(0 0 4.0824e-05)
(0 0 4.76041e-05)
(0 0 5.45623e-05)
(0 0 6.01752e-05)
(0 0 6.28985e-05)
(0 0 6.1564e-05)
(0 0 5.56652e-05)
(0 0 4.54576e-05)
(0 0 3.18678e-05)
(0 0 1.62659e-05)
(0 0 1.81238e-07)
(0 0 -1.49633e-05)
(0 0 -2.80441e-05)
(0 0 -3.83372e-05)
(0 0 -4.55309e-05)
(0 0 -4.96724e-05)
(0 0 -5.10765e-05)
(0 0 -5.0223e-05)
(0 0 -4.76622e-05)
(0 0 -4.39392e-05)
(0 0 -3.95434e-05)
(0 0 -3.48788e-05)
(0 0 -3.02544e-05)
(0 0 -2.58871e-05)
(0 0 -2.1913e-05)
(0 0 -1.84029e-05)
(0 0 -1.53781e-05)
(0 0 -1.28255e-05)
(0 0 -1.07099e-05)
(0 0 -8.98403e-06)
(0 0 -7.59564e-06)
(0 0 -6.49271e-06)
(0 0 -5.62651e-06)
(0 0 -4.95328e-06)
(0 0 -4.43497e-06)
(0 0 -4.03901e-06)
(0 0 -3.737e-06)
(0 0 -3.50071e-06)
(0 0 -3.28918e-06)
(0 0 -3.00713e-06)
(0 0 -2.37068e-06)
(0 0 -4.86762e-07)
(0 0 5.42589e-06)
(0 2.62644e-22 2.37784e-05)
(0 0 4.15816e-05)
(0 0 4.13994e-05)
(0 0 4.12295e-05)
(0 0 4.10722e-05)
(0 0 4.09045e-05)
(0 0 4.06936e-05)
(0 0 4.04936e-05)
(0 0 4.05925e-05)
(0 0 4.15933e-05)
(0 0 4.43026e-05)
(0 0 4.94046e-05)
(0 0 5.70442e-05)
(0 0 6.6524e-05)
(0 0 7.62855e-05)
(0 0 8.42126e-05)
(0 0 8.8154e-05)
(0 0 8.64741e-05)
(0 0 7.84532e-05)
(0 0 6.44289e-05)
(0 0 4.56736e-05)
(0 0 2.40803e-05)
(0 0 1.76835e-06)
(0 0 -1.92847e-05)
(0 0 -3.75128e-05)
(0 0 -5.19021e-05)
(0 0 -6.20099e-05)
(0 0 -6.78918e-05)
(0 0 -6.99763e-05)
(0 0 -6.89225e-05)
(0 0 -6.54894e-05)
(0 0 -6.04308e-05)
(0 0 -5.44244e-05)
(0 0 -4.80307e-05)
(0 0 -4.16793e-05)
(0 0 -3.56725e-05)
(0 0 -3.02007e-05)
(0 0 -2.53638e-05)
(0 0 -2.1193e-05)
(0 0 -1.76714e-05)
(0 0 -1.47514e-05)
(0 0 -1.23685e-05)
(0 0 -1.04511e-05)
(0 0 -8.92774e-06)
(0 0 -7.73137e-06)
(0 0 -6.80169e-06)
(0 0 -6.08625e-06)
(0 0 -5.54016e-06)
(0 0 -5.12449e-06)
(0 0 -4.80107e-06)
(0 0 -4.51656e-06)
(0 0 -4.15037e-06)
(0 0 -3.34667e-06)
(0 0 -9.83613e-07)
(0 0 6.45499e-06)
(0 -1.72411e-22 2.96838e-05)
(0 0 5.34145e-05)
(0 0 5.31796e-05)
(0 0 5.29606e-05)
(0 0 5.27581e-05)
(0 0 5.25427e-05)
(0 0 5.22727e-05)
(0 0 5.20162e-05)
(0 0 5.21394e-05)
(0 0 5.34114e-05)
(0 0 5.68646e-05)
(0 0 6.33812e-05)
(0 0 7.31601e-05)
(0 0 8.53285e-05)
(0 0 9.79126e-05)
(0 0 0.00010822)
(0 0 0.000113501)
(0 0 0.000111653)
(0 0 0.000101733)
(0 0 8.41426e-05)
(0 0 6.04757e-05)
(0 0 3.31247e-05)
(0 0 4.77924e-06)
(0 0 -2.20424e-05)
(0 0 -4.53381e-05)
(0 0 -6.38037e-05)
(0 0 -7.68594e-05)
(0 0 -8.45597e-05)
(0 0 -8.74351e-05)
(0 0 -8.63125e-05)
(0 0 -8.21487e-05)
(0 0 -7.58974e-05)
(0 0 -6.84177e-05)
(0 0 -6.04222e-05)
(0 0 -5.2458e-05)
(0 0 -4.49116e-05)
(0 0 -3.80276e-05)
(0 0 -3.19355e-05)
(0 0 -2.66778e-05)
(0 0 -2.22352e-05)
(0 0 -1.85495e-05)
(0 0 -1.55402e-05)
(0 0 -1.31179e-05)
(0 0 -1.11929e-05)
(0 0 -9.68082e-06)
(0 0 -8.50586e-06)
(0 0 -7.60189e-06)
(0 0 -6.91238e-06)
(0 0 -6.38852e-06)
(0 0 -5.98351e-06)
(0 0 -5.63504e-06)
(0 0 -5.20887e-06)
(0 0 -4.3163e-06)
(0 0 -1.73148e-06)
(0 0 6.42592e-06)
(0 8.51114e-23 3.21559e-05)
(0 0 6.5213e-05)
(0 0 6.49231e-05)
(0 0 6.46546e-05)
(0 0 6.44069e-05)
(0 0 6.41443e-05)
(0 0 6.38161e-05)
(0 0 6.35034e-05)
(0 0 6.3648e-05)
(0 0 6.51809e-05)
(0 0 6.93572e-05)
(0 0 7.7258e-05)
(0 0 8.91456e-05)
(0 0 0.000103988)
(0 0 0.000119417)
(0 0 0.000132183)
(0 0 0.000138951)
(0 0 0.00013715)
(0 0 0.000125602)
(0 0 0.000104749)
(0 0 7.64796e-05)
(0 0 4.36558e-05)
(0 0 9.51325e-06)
(0 0 -2.29058e-05)
(0 0 -5.11711e-05)
(0 0 -7.36877e-05)
(0 0 -8.97316e-05)
(0 0 -9.93442e-05)
(0 0 -0.000103144)
(0 0 -0.000102112)
(0 0 -9.73889e-05)
(0 0 -9.01181e-05)
(0 0 -8.13318e-05)
(0 0 -7.18886e-05)
(0 0 -6.245e-05)
(0 0 -5.34848e-05)
(0 0 -4.52919e-05)
(0 0 -3.80313e-05)
(0 0 -3.17579e-05)
(0 0 -2.64521e-05)
(0 0 -2.20467e-05)
(0 0 -1.84474e-05)
(0 0 -1.55485e-05)
(0 0 -1.32437e-05)
(0 0 -1.14326e-05)
(0 0 -1.00248e-05)
(0 0 -8.94162e-06)
(0 0 -8.11559e-06)
(0 0 -7.48888e-06)
(0 0 -7.00737e-06)
(0 0 -6.60354e-06)
(0 0 -6.14237e-06)
(0 0 -5.24777e-06)
(0 0 -2.74492e-06)
(0 0 5.12617e-06)
(0 4.19957e-22 3.03635e-05)
(0 0 7.69683e-05)
(0 0 7.66208e-05)
(0 0 7.63029e-05)
(0 0 7.60104e-05)
(0 0 7.57012e-05)
(0 0 7.53157e-05)
(0 0 7.49475e-05)
(0 0 7.51103e-05)
(0 0 7.68923e-05)
(0 0 8.17674e-05)
(0 0 9.10171e-05)
(0 0 0.000104977)
(0 0 0.000122475)
(0 0 0.000140773)
(0 0 0.000156084)
(0 0 0.000164503)
(0 0 0.000162992)
(0 0 0.000150124)
(0 0 0.000126355)
(0 0 9.38355e-05)
(0 0 5.5865e-05)
(0 0 1.61972e-05)
(0 0 -2.16213e-05)
(0 0 -5.47417e-05)
(0 0 -8.12778e-05)
(0 0 -0.000100353)
(0 0 -0.000111983)
(0 0 -0.000116858)
(0 0 -0.000116097)
(0 0 -0.000111009)
(0 0 -0.000102916)
(0 0 -9.30128e-05)
(0 0 -8.22977e-05)
(0 0 -7.15424e-05)
(0 0 -6.12965e-05)
(0 0 -5.19126e-05)
(0 0 -4.35822e-05)
(0 0 -3.63745e-05)
(0 0 -3.02715e-05)
(0 0 -2.51992e-05)
(0 0 -2.10515e-05)
(0 0 -1.77085e-05)
(0 0 -1.50487e-05)
(0 0 -1.29575e-05)
(0 0 -1.13313e-05)
(0 0 -1.00795e-05)
(0 0 -9.1249e-06)
(0 0 -8.4014e-06)
(0 0 -7.84886e-06)
(0 0 -7.3979e-06)
(0 0 -6.92446e-06)
(0 0 -6.10979e-06)
(0 0 -4.00436e-06)
(0 0 2.38891e-06)
(0 -8.21478e-23 2.33672e-05)
(-1.77442e-23 7.92317e-21 3.27671e-06)
(-1.44434e-22 7.79022e-21 2.62666e-06)
(3.15786e-23 -1.93171e-22 1.753e-06)
(3.91718e-23 -2.32525e-20 6.12406e-07)
(-9.02015e-23 7.94189e-21 -8.30791e-07)
(3.53424e-22 7.79997e-21 -2.60535e-06)
(-7.76844e-22 2.27408e-20 -4.73487e-06)
(3.05448e-22 -2.31041e-20 -7.24007e-06)
(6.14293e-22 -7.43482e-21 -1.01409e-05)
(-8.76122e-22 -3.65812e-24 -1.34586e-05)
(-8.74734e-22 -7.4467e-21 -1.72165e-05)
(7.66001e-22 7.07599e-21 -2.14415e-05)
(5.59023e-22 -5.82624e-20 -2.61648e-05)
(-1.03442e-21 1.25055e-19 -3.14224e-05)
(3.58653e-22 -6.7259e-20 -3.7254e-05)
(-1.19827e-21 -5.07042e-20 -4.37157e-05)
(2.31568e-21 -6.45687e-20 -5.08528e-05)
(-1.81377e-21 7.60322e-21 -5.8758e-05)
(-1.83206e-22 -7.09615e-21 -6.74771e-05)
(6.92579e-23 7.09927e-21 -7.71174e-05)
(-3.07271e-24 -1.25678e-22 -8.77631e-05)
(-6.42051e-23 -6.84608e-21 -9.95303e-05)
(-1.96619e-21 6.90338e-21 -0.000112551)
(4.10896e-21 1.26326e-23 -0.000126975)
(1.19701e-21 6.69973e-21 -0.000142979)
(-3.20152e-21 -5.1963e-24 -0.000160768)
(4.60457e-21 7.77082e-21 -0.000180583)
(-5.4211e-21 1.00872e-19 -0.000202716)
(6.91732e-22 -1.08311e-19 -0.000227529)
(-2.10357e-21 9.88738e-20 -0.000255489)
(2.04967e-21 -9.99899e-20 -0.000287224)
(4.73862e-23 1.31033e-21 -0.000323631)
(-6.16178e-23 -1.6071e-21 -0.000366067)
(2.73855e-21 -9.44772e-20 -0.000416683)
(-8.46897e-21 9.16792e-20 -0.000479032)
(-3.05411e-22 -1.51061e-21 -0.000559112)
(6.04944e-21 1.32307e-23 -0.000667158)
(6.56939e-21 1.43679e-23 -0.000820565)
(-6.54837e-21 -1.43219e-23 -0.00104851)
(-2.16876e-22 -4.7433e-25 -0.00139882)
(-2.25961e-22 -4.94198e-25 -0.00194766)
(-7.76759e-21 -1.69885e-23 -0.00281186)
(7.49785e-21 1.63985e-23 -0.00416297)
(-2.4727e-22 1.46993e-22 -0.00624001)
(-3.47684e-23 7.60203e-21 -0.00935564)
(-2.39563e-20 4.91393e-20 -0.0138877)
(2.30751e-20 -6.47672e-20 -0.0202445)
(-5.41292e-21 -9.15449e-21 -0.0287907)
(5.94874e-21 2.51126e-20 -0.0397301)
(-1.97419e-20 -5.51126e-21 -0.0528675)
(-2.54584e-22 7.93333e-21 9.65012e-06)
(-1.05575e-22 1.56054e-20 7.6345e-06)
(2.9191e-22 7.58856e-21 4.8922e-06)
(-8.48973e-22 -7.8031e-21 1.29655e-06)
(1.57767e-21 7.44384e-21 -3.25436e-06)
(-4.762e-22 -5.32812e-20 -8.84024e-06)
(-2.34979e-22 8.45926e-20 -1.55267e-05)
(-5.42039e-23 -8.7943e-21 -2.33734e-05)
(2.14837e-21 -9.73934e-20 -3.24407e-05)
(-2.24459e-21 1.37478e-19 -4.2794e-05)
(-8.44004e-22 1.2562e-19 -5.45082e-05)
(6.25799e-22 -1.12989e-19 -6.76699e-05)
(-3.83426e-22 7.18525e-22 -8.23791e-05)
(2.73691e-21 -7.19569e-21 -9.87516e-05)
(-2.13827e-21 2.38988e-20 -0.000116925)
(-5.91581e-21 2.37537e-19 -0.000137054)
(1.66942e-21 -2.23325e-19 -0.000159361)
(-5.54418e-21 2.39313e-19 -0.000184002)
(-2.98116e-22 1.93832e-20 -0.000211257)
(-3.74817e-21 -7.25502e-21 -0.000241363)
(3.96401e-21 1.41815e-22 -0.00027465)
(-3.9789e-21 8.99456e-21 -0.000311488)
(9.00029e-22 2.07656e-19 -0.000352297)
(5.98865e-21 -4.39561e-19 -0.000397557)
(4.52661e-21 -2.09909e-19 -0.000447828)
(-7.06724e-21 4.24985e-19 -0.000503764)
(3.80847e-21 -4.23527e-19 -0.000566136)
(-2.18091e-21 4.34534e-19 -0.000635873)
(3.20825e-21 1.46291e-21 -0.000714121)
(-3.63645e-21 -9.52969e-23 -0.000802349)
(-1.22164e-21 -2.67185e-24 -0.000902527)
(0 0 -0.00101744)
(1.80463e-22 9.36341e-23 -0.00115128)
(1.07802e-20 1.2102e-20 -0.00131065)
(-1.57644e-20 3.53691e-19 -0.00150639)
(-1.54005e-20 -2.39195e-20 -0.00175679)
(1.85417e-20 -3.48647e-19 -0.00209299)
(2.63309e-20 -3.00898e-19 -0.00256783)
(-9.58058e-21 3.21408e-19 -0.0032699)
(-3.03812e-20 2.13515e-21 -0.00434432)
(2.96051e-20 1.68955e-20 -0.0060219)
(-4.14128e-20 2.28492e-19 -0.00865637)
(2.2562e-20 -2.37665e-19 -0.0127666)
(-1.75074e-20 1.42725e-20 -0.0190748)
(1.93911e-20 7.48983e-21 -0.0285252)
(-5.82474e-20 1.09961e-19 -0.042258)
(5.81663e-20 -1.07639e-19 -0.0615013)
(-8.90311e-20 8.01897e-20 -0.0873326)
(8.59157e-20 -8.95695e-20 -0.120294)
(-1.82396e-20 -6.12515e-22 -0.158464)
(-5.9198e-23 4.70107e-20 1.54841e-05)
(-8.89639e-23 1.48657e-20 1.186e-05)
(3.89294e-22 -6.1581e-20 6.83342e-06)
(-8.34104e-22 1.22477e-19 2.08047e-07)
(1.83321e-21 -2.62144e-19 -8.15786e-06)
(3.28214e-22 1.24626e-19 -1.83728e-05)
(-2.39612e-21 -8.49914e-22 -3.05315e-05)
(1.53651e-21 -1.69142e-20 -4.47285e-05)
(1.55317e-21 -2.55688e-19 -6.1068e-05)
(6.25568e-22 2.43601e-19 -7.967e-05)
(-8.39164e-22 -1.59236e-21 -0.000100675)
(-4.12958e-21 -1.53676e-23 -0.000124247)
(6.54693e-21 -1.81389e-21 -0.000150578)
(-3.75616e-21 -2.49232e-19 -0.000179889)
(4.95875e-21 2.2644e-19 -0.000212436)
(-1.14554e-20 4.49916e-19 -0.000248539)
(-4.73393e-21 -1.19112e-20 -0.000288548)
(-4.89953e-21 4.62836e-19 -0.000332867)
(4.09063e-22 -1.40463e-20 -0.000381903)
(-1.24655e-20 4.49261e-19 -0.000436184)
(1.23968e-20 -4.66558e-19 -0.000496313)
(-9.34521e-21 4.45382e-19 -0.000562985)
(2.68389e-21 -4.63227e-19 -0.000636989)
(5.15427e-21 -9.26458e-21 -0.000719234)
(-2.56657e-21 1.35691e-20 -0.000810773)
(5.46855e-21 -8.76518e-21 -0.000912835)
(-1.89875e-20 4.17072e-19 -0.00102687)
(1.71232e-20 -4.44457e-19 -0.00115461)
(1.86552e-20 -4.12812e-19 -0.00129818)
(-1.53799e-20 4.14659e-19 -0.00146029)
(-1.06614e-21 -5.09049e-21 -0.00164449)
(1.10291e-20 -1.19339e-22 -0.00185578)
(-1.25979e-20 -2.44045e-20 -0.00210152)
(5.36289e-20 -7.52298e-19 -0.00239322)
(1.63447e-20 5.58287e-20 -0.00274959)
(-7.02664e-20 7.08085e-19 -0.003202)
(3.88476e-21 -1.21326e-20 -0.00380367)
(-1.12558e-20 -4.74316e-21 -0.0046448)
(1.09535e-19 -5.93006e-19 -0.00587628)
(-2.03828e-19 1.16421e-18 -0.0077451)
(2.07756e-19 -1.15584e-18 -0.0106435)
(6.96515e-20 8.38503e-20 -0.0151718)
(-1.55206e-19 5.05426e-19 -0.0222094)
(-1.62341e-19 3.48071e-19 -0.03298)
(1.53493e-19 -4.12668e-19 -0.0490841)
(-2.16924e-20 1.90227e-20 -0.0724573)
(5.35876e-20 -1.69129e-20 -0.105184)
(1.60441e-19 -9.95319e-20 -0.149048)
(-1.73734e-19 1.55574e-19 -0.20476)
(-2.48261e-20 -3.99731e-20 -0.26469)
(4.13371e-22 -3.10064e-20 2.03105e-05)
(-3.65364e-22 1.56739e-20 1.45162e-05)
(6.7316e-22 -1.67799e-22 6.32636e-06)
(-5.9639e-22 -1.54198e-20 -4.45356e-06)
(-9.41975e-22 -1.41827e-21 -1.79448e-05)
(3.42039e-21 -2.41987e-19 -3.42494e-05)
(-4.8981e-21 4.58148e-19 -5.34778e-05)
(2.40932e-21 -2.46632e-19 -7.5763e-05)
(-1.80457e-21 1.48804e-20 -0.000101268)
(4.95152e-21 -2.70018e-19 -0.000130191)
(-5.90913e-21 2.46313e-19 -0.000162767)
(-4.39804e-21 4.70306e-19 -0.000199276)
(1.13148e-20 -9.51316e-19 -0.00024004)
(-1.3497e-20 9.50118e-19 -0.000285431)
(1.77016e-20 -9.45545e-19 -0.000335881)
(-1.1898e-20 9.36858e-19 -0.000391906)
(-1.01639e-20 4.76626e-19 -0.000454113)
(-7.00806e-22 -3.71458e-21 -0.000523131)
(4.44683e-21 3.86113e-21 -0.000599687)
(-7.95323e-21 4.39359e-19 -0.000684643)
(-1.48444e-21 -4.61368e-19 -0.000778996)
(1.46012e-20 1.2583e-20 -0.000883901)
(-3.41933e-20 8.8539e-19 -0.00100067)
(2.61364e-20 -8.88236e-19 -0.00113081)
(2.2565e-21 -5.34603e-21 -0.00127607)
(-9.62498e-21 -8.98756e-23 -0.0014385)
(1.46596e-20 -1.34156e-20 -0.0016205)
(-4.75827e-21 1.2202e-22 -0.00182492)
(-5.21997e-21 -6.44135e-23 -0.00205525)
(4.9753e-21 1.93322e-22 -0.00231582)
(-3.70367e-21 1.46398e-21 -0.00261229)
(6.39822e-20 -7.82619e-19 -0.00295239)
(-5.81379e-20 8.04824e-19 -0.00334732)
(-1.58871e-20 2.2867e-22 -0.0038142)
(1.85265e-20 -1.02365e-20 -0.00438054)
(-9.95094e-20 7.17043e-19 -0.00509195)
(1.1574e-19 -7.2017e-19 -0.00602538)
(-2.23486e-20 2.1641e-21 -0.00731086)
(1.58003e-20 -9.21992e-23 -0.00916563)
(3.75572e-20 6.29066e-21 -0.011945)
(-2.45614e-19 5.36078e-19 -0.0162127)
(3.65019e-19 -1.08619e-18 -0.0228312)
(-1.78177e-19 5.5013e-19 -0.0330646)
(2.57198e-19 -4.20181e-19 -0.048675)
(-2.49083e-19 4.94931e-19 -0.0719812)
(-5.77572e-19 5.09516e-19 -0.105818)
(1.08949e-18 -1.07949e-18 -0.153286)
(-5.32806e-19 5.44935e-19 -0.217032)
(1.84062e-20 -2.08966e-21 -0.297748)
(4.42414e-21 -3.43032e-20 -0.3747)
(-7.30892e-22 1.57542e-20 2.35387e-05)
(-3.24934e-22 6.03568e-20 1.43646e-05)
(2.09725e-21 -1.83214e-19 1.35214e-06)
(-1.51373e-21 2.45813e-19 -1.54914e-05)
(-1.60547e-22 -1.08828e-19 -3.61754e-05)
(1.22584e-22 -1.45567e-20 -6.07707e-05)
(-4.76883e-22 1.53317e-20 -8.94147e-05)
(2.98077e-21 -1.83653e-22 -0.000122308)
(-2.81958e-21 -1.49859e-20 -0.000159712)
(-5.18755e-21 3.3562e-20 -0.000201948)
(-7.32796e-21 4.78363e-19 -0.000249401)
(1.86096e-20 -4.97147e-19 -0.000302518)
(-2.28635e-20 4.6364e-19 -0.00036182)
(1.91469e-20 -4.82262e-19 -0.000427903)
(-2.96165e-21 3.34548e-21 -0.000501447)
(1.08315e-20 4.68549e-23 -0.000583263)
(4.11643e-21 3.66258e-21 -0.000674296)
(-5.72678e-21 4.5021e-19 -0.00077556)
(2.05092e-20 -4.87137e-19 -0.00088821)
(6.23664e-21 2.66575e-20 -0.00101361)
(-4.63502e-20 9.27744e-19 -0.00115333)
(2.99091e-20 -9.30278e-19 -0.0013092)
(1.00203e-20 2.24067e-20 -0.0014833)
(-1.78023e-20 -2.30092e-22 -0.00167801)
(1.16491e-20 9.5077e-21 -0.00189614)
(-3.98892e-20 8.90526e-19 -0.00214092)
(3.31494e-20 -8.82073e-19 -0.00241615)
(2.79903e-21 9.49279e-21 -0.00272636)
(9.35663e-21 2.70063e-20 -0.00307696)
(-1.1351e-20 -5.4216e-22 -0.00347467)
(1.1911e-21 -1.29058e-20 -0.00392802)
(-3.68296e-20 1.30988e-20 -0.00444839)
(3.45829e-20 1.2473e-20 -0.00505181)
(-3.03056e-21 -2.49311e-20 -0.00576214)
(8.38522e-20 -7.30994e-19 -0.00661684)
(-7.51088e-20 7.53505e-19 -0.00767708)
(2.71115e-19 -1.44809e-18 -0.00904512)
(-2.49079e-19 1.46212e-18 -0.0108929)
(3.07244e-19 -1.36617e-18 -0.0135075)
(7.00895e-20 1.30937e-19 -0.0173581)
(-3.52392e-19 1.30058e-18 -0.0231906)
(-1.18615e-19 -2.17902e-20 -0.032148)
(1.61486e-20 3.8112e-22 -0.0459113)
(-1.79492e-20 5.51651e-22 -0.0668427)
(5.30493e-20 1.62943e-21 -0.0980998)
(2.54685e-20 1.32838e-20 -0.14367)
(-1.10714e-19 5.012e-21 -0.208168)
(6.3098e-20 4.85497e-21 -0.295901)
(-1.61421e-22 -3.03065e-22 -0.408039)
(3.52919e-20 6.21734e-22 -0.49845)
(-7.70279e-22 7.59641e-20 2.43085e-05)
(1.65831e-21 -4.63107e-20 9.11211e-06)
(-1.62369e-21 -1.63125e-20 -1.16602e-05)
(4.82181e-21 -2.26867e-19 -3.74874e-05)
(-2.48359e-21 2.28716e-19 -6.82813e-05)
(2.24739e-21 -2.26262e-19 -0.000104147)
(-1.1341e-20 4.98905e-19 -0.000145325)
(1.21784e-20 -6.9852e-19 -0.000192157)
(-7.91044e-21 4.93838e-19 -0.000245074)
(-6.42184e-21 4.81374e-19 -0.000304596)
(-2.20134e-21 3.95308e-21 -0.00037133)
(2.52236e-20 -9.45376e-19 -0.00044598)
(-2.22714e-20 9.83563e-19 -0.000529353)
(5.62916e-21 -4.62617e-19 -0.000622371)
(1.25661e-20 -4.64795e-19 -0.000726081)
(2.27824e-20 -4.57185e-19 -0.000841702)
(-3.26563e-21 6.45179e-21 -0.000970665)
(3.91879e-20 -9.47983e-19 -0.00111458)
(3.07441e-20 -9.09866e-19 -0.0012752)
(6.55114e-21 2.11568e-20 -0.00145465)
(-2.79511e-20 9.4475e-19 -0.00165533)
(-1.98431e-20 -7.96457e-21 -0.00188006)
(1.21167e-20 8.82243e-21 -0.00213205)
(-5.20883e-20 9.13883e-19 -0.00241502)
(4.2666e-20 -9.28168e-19 -0.00273332)
(7.40897e-20 -8.91198e-19 -0.00309198)
(-7.5305e-20 9.2041e-19 -0.00349692)
(1.48592e-20 -1.97339e-20 -0.00395513)
(6.95397e-20 -8.87469e-19 -0.00447497)
(-9.691e-20 9.10021e-19 -0.00506661)
(4.31222e-21 1.21611e-20 -0.00574272)
(-2.10445e-19 1.66466e-18 -0.00651977)
(1.9096e-19 -1.7269e-18 -0.00742012)
(4.77178e-20 6.11554e-20 -0.00847589)
(-2.70288e-19 1.57316e-18 -0.00973594)
(2.48412e-19 -1.64017e-18 -0.0112781)
(-3.10444e-20 -3.20709e-21 -0.0132306)
(4.71608e-19 -1.47616e-18 -0.0158072)
(-4.41847e-19 1.52435e-18 -0.0193641)
(-6.49573e-20 -7.12036e-20 -0.024485)
(6.73213e-19 -1.28516e-18 -0.0321014)
(-1.18533e-18 2.64863e-18 -0.0436497)
(-6.33313e-20 -1.53867e-19 -0.0612585)
(-8.48247e-20 -1.20908e-19 -0.0879566)
(7.5953e-19 -1.14974e-18 -0.127893)
(3.8722e-20 6.17412e-20 -0.186588)
(-8.50134e-19 7.58624e-19 -0.271228)
(8.33395e-19 -8.34612e-19 -0.390461)
(8.67035e-21 2.84165e-20 -0.550503)
(9.04727e-21 -2.65e-21 -0.660003)
(6.09811e-22 -1.58101e-20 2.14953e-05)
(1.79622e-21 -1.34938e-19 -5.98799e-06)
(-1.90197e-21 1.21675e-19 -3.88304e-05)
(-1.23371e-21 -1.70996e-20 -7.71264e-05)
(5.50721e-21 -2.25429e-19 -0.000121094)
(-5.10478e-21 2.31789e-19 -0.000171084)
(-6.29732e-21 4.68195e-19 -0.000227543)
(-5.01778e-21 -1.93895e-20 -0.000291013)
(2.15762e-21 -4.58683e-21 -0.000362131)
(1.48608e-20 -4.99127e-19 -0.000441631)
(-1.22333e-20 4.66873e-19 -0.000530351)
(1.88109e-20 -9.87584e-19 -0.000629245)
(-4.68517e-21 4.93551e-19 -0.000739394)
(-3.57438e-21 -1.85344e-20 -0.000862025)
(-4.77848e-21 -2.21498e-20 -0.000998512)
(2.96743e-20 -9.68231e-19 -0.0011504)
(-1.62296e-21 -2.02201e-20 -0.00131948)
(2.86737e-20 -9.86032e-19 -0.00150786)
(-5.30823e-21 -7.71391e-21 -0.00171784)
(-1.68572e-22 1.17687e-22 -0.00195201)
(1.12957e-20 8.32575e-21 -0.00221338)
(-5.43824e-20 9.477e-19 -0.00250535)
(4.87278e-20 -9.67934e-19 -0.0028318)
(1.2611e-20 8.23159e-21 -0.00319715)
(-8.56234e-21 -1.48253e-20 -0.00360645)
(-6.09329e-21 9.7783e-21 -0.00406543)
(-7.60814e-20 9.13584e-19 -0.00458064)
(1.63278e-19 -1.86326e-18 -0.00515957)
(-7.76663e-20 9.71275e-19 -0.00581083)
(-1.96219e-19 1.79919e-18 -0.00654445)
(-3.03514e-20 -4.57104e-20 -0.00737235)
(2.2742e-21 -2.69878e-20 -0.00830934)
(-6.54656e-20 -5.39766e-20 -0.00937487)
(2.63444e-19 -1.79557e-18 -0.0105965)
(4.01702e-19 -1.66086e-18 -0.0120166)
(-3.59602e-19 1.74287e-18 -0.0137048)
(-3.34261e-20 -5.40738e-20 -0.0157803)
(4.74487e-19 -1.58517e-18 -0.018451)
(-4.19725e-19 1.67862e-18 -0.0220782)
(-6.652e-19 1.48906e-18 -0.0272776)
(5.66914e-19 -1.57235e-18 -0.0350678)
(7.68811e-20 -1.09668e-20 -0.0470727)
(8.58037e-19 -1.38511e-18 -0.0657743)
(1.16549e-19 1.21605e-19 -0.0948111)
(-9.88383e-19 1.35491e-18 -0.139329)
(-1.59114e-20 -3.88006e-20 -0.206465)
(3.29312e-20 5.17315e-22 -0.306664)
(-3.2991e-20 1.56223e-20 -0.458453)
(-4.9888e-19 5.21557e-19 -0.697727)
(4.90074e-19 -5.30893e-19 -0.956272)
(-1.0655e-20 -3.14752e-21 0.00927529)
(-1.05815e-20 -2.1748e-22 0.00513654)
(9.91433e-21 9.74687e-21 0.00163942)
(-6.88819e-21 2.05511e-21 -0.00127914)
(7.41041e-21 -1.15048e-20 -0.00369051)
(6.81401e-23 3.51856e-21 -0.00566899)
(-1.73573e-22 -9.77953e-23 -0.00728425)
(-5.68362e-21 1.24306e-23 -0.00859669)
(5.52605e-21 -1.2086e-23 -0.00965601)
(-1.66986e-22 3.65215e-25 -0.0105018)
(-1.62153e-22 3.54644e-25 -0.0111662)
(4.89668e-21 -1.07095e-23 -0.0116758)
(-4.91241e-21 1.07439e-23 -0.0120517)
(-4.51436e-21 9.87336e-24 -0.0123113)
(2.63696e-22 -1.09292e-21 -0.0124689)
(6.32791e-21 2.33233e-21 -0.0125368)
(-2.08195e-21 -4.01e-23 -0.0125255)
(-7.93873e-23 -1.02853e-21 -0.0124443)
(-3.06788e-23 8.48334e-22 -0.0123017)
(-2.12644e-21 -1.10838e-20 -0.012105)
(2.16865e-21 1.00847e-20 -0.0118601)
(-1.42046e-21 -1.38162e-20 -0.0115726)
(1.90629e-21 4.12606e-22 -0.0112477)
(-2.62743e-21 1.3074e-23 -0.0108912)
(1.72703e-21 1.45665e-21 -0.0105094)
(-6.47059e-22 3.91281e-23 -0.0101075)
(-1.81801e-21 3.97617e-24 -0.00968909)
(8.61801e-22 -2.53121e-23 -0.00925804)
(1.63653e-22 2.2371e-21 -0.00881811)
(-4.11103e-23 4.1336e-23 -0.00837271)
(-1.74138e-22 -2.65328e-21 -0.00792497)
(1.48568e-22 2.83452e-21 -0.00747775)
(1.58006e-22 -3.11223e-21 -0.00703368)
(4.03852e-22 2.98125e-20 -0.00659513)
(-7.91541e-22 -2.98696e-20 -0.00616426)
(-6.56158e-22 -2.61875e-20 -0.00574299)
(1.4504e-21 5.71127e-20 -0.00533301)
(-8.05602e-22 -3.12119e-20 -0.0049358)
(-2.08898e-22 -4.24583e-21 -0.00455264)
(2.02688e-22 4.39548e-21 -0.00418459)
(-1.13349e-23 2.09851e-24 -0.00383254)
(1.87032e-22 4.74347e-21 -0.00349715)
(-4.85106e-22 -2.48884e-20 -0.00317894)
(4.62189e-22 2.512e-20 -0.00287824)
(-1.296e-22 -5.26056e-21 -0.0025952)
(3.01126e-22 1.6372e-20 -0.0023298)
(3.16776e-23 -5.42901e-21 -0.00208183)
(-1.96957e-22 -1.14851e-20 -0.00185079)
(5.27283e-23 5.79167e-21 -0.00163579)
(-1.44884e-22 -6.00525e-21 -0.00143535)
(-1.53075e-20 2.52166e-20 0.0268896)
(3.02553e-20 -1.03789e-20 0.0145646)
(-2.43455e-20 -2.13233e-20 0.00406449)
(8.65703e-21 2.22991e-20 -0.00462457)
(-9.02538e-21 -2.18441e-20 -0.0117498)
(-1.26998e-20 6.13881e-21 -0.01756)
(1.13298e-20 6.88672e-21 -0.0222804)
(1.27541e-20 1.76642e-20 -0.0260999)
(5.86427e-22 -2.9386e-20 -0.0291711)
(-2.29269e-20 6.85183e-21 -0.0316144)
(2.21718e-20 -5.11992e-21 -0.033525)
(-4.14209e-21 -8.50992e-21 -0.0349818)
(-8.44047e-21 2.39196e-20 -0.0360476)
(-9.18468e-21 -2.3714e-21 -0.036773)
(8.96996e-21 -1.60902e-20 -0.0372002)
(9.59784e-21 3.62921e-21 -0.0373652)
(-8.15247e-21 4.63658e-21 -0.0372989)
(-3.31242e-22 -9.42409e-22 -0.0370285)
(1.43233e-23 -1.27626e-22 -0.0365788)
(7.90913e-22 -1.7298e-24 -0.0359713)
(2.30255e-21 3.67288e-23 -0.0352244)
(-2.30725e-21 -3.48727e-21 -0.0343537)
(1.45488e-20 7.79283e-20 -0.0333738)
(-1.64649e-20 -8.12893e-20 -0.0323039)
(1.92038e-20 9.91655e-20 -0.0311588)
(-9.91504e-21 -4.10785e-20 -0.029956)
(-1.94183e-20 -1.2277e-19 -0.0287064)
(8.5097e-21 6.158e-20 -0.0274211)
(1.29377e-21 -1.30196e-21 -0.0261108)
(-1.97683e-21 -5.10508e-21 -0.0247853)
(1.46294e-21 2.6451e-21 -0.0234539)
(-9.93789e-22 -9.05173e-21 -0.022125)
(9.9492e-21 9.89046e-20 -0.0208061)
(-2.12177e-20 -2.12607e-19 -0.0195043)
(9.89847e-21 1.03713e-19 -0.0182259)
(-7.51465e-22 -1.07659e-20 -0.0169764)
(-6.22835e-23 3.81689e-21 -0.015761)
(3.01789e-23 3.11383e-23 -0.0145838)
(-4.94302e-21 -7.35029e-20 -0.0134487)
(4.21996e-21 6.4865e-20 -0.0123586)
(3.43677e-21 6.56215e-20 -0.0113163)
(-4.99313e-21 -8.93802e-20 -0.0103236)
(1.49011e-22 4.95879e-21 -0.00938197)
(1.09459e-21 2.60693e-20 -0.00849239)
(-2.39249e-21 -4.689e-20 -0.00765527)
(-2.51951e-23 -5.4152e-21 -0.00687053)
(-1.60344e-21 -3.93235e-20 -0.00613747)
(-3.39906e-22 -6.25919e-21 -0.00545459)
(3.94792e-22 1.13584e-20 -0.00481909)
(4.89685e-22 1.78431e-20 -0.00422615)
(-1.37149e-20 -1.08883e-21 0.0416717)
(-1.33884e-20 -1.49882e-20 0.0212894)
(3.5359e-20 2.89772e-20 0.00377774)
(-4.35042e-20 -1.2478e-20 -0.0104436)
(1.79133e-20 1.21516e-20 -0.0219187)
(2.74488e-20 2.10259e-20 -0.0311582)
(-1.87004e-20 -6.02133e-20 -0.0385907)
(1.50201e-20 -2.06857e-20 -0.0445557)
(-3.23555e-20 3.9252e-20 -0.0493136)
(-1.33486e-21 3.01479e-20 -0.0530694)
(3.39903e-20 -5.43261e-20 -0.0559786)
(-2.795e-20 4.04504e-20 -0.0581684)
(7.11514e-21 -1.12638e-20 -0.0597401)
(-3.45698e-21 -9.75636e-21 -0.0607746)
(4.75075e-20 2.86909e-20 -0.0613381)
(-4.60262e-21 3.25741e-20 -0.0614879)
(-4.05739e-20 -4.23516e-20 -0.0612731)
(1.13509e-20 -6.74119e-21 -0.0607372)
(-8.10319e-21 3.02036e-22 -0.0599191)
(4.60699e-22 -3.25075e-21 -0.0588532)
(2.78566e-20 7.04702e-20 -0.0575689)
(-2.83154e-20 -5.89799e-20 -0.0560915)
(-3.11127e-20 -9.25885e-20 -0.0544455)
(3.44017e-20 8.92166e-20 -0.052656)
(-1.37631e-21 6.45452e-21 -0.0507527)
(5.00537e-23 -3.88114e-21 -0.0487585)
(-1.03461e-21 5.80125e-21 -0.0466942)
(-2.85914e-20 -1.45336e-19 -0.0445767)
(3.30899e-20 1.48137e-19 -0.0424226)
(-3.23658e-20 -1.62239e-19 -0.0402478)
(3.463e-20 1.72108e-19 -0.0380665)
(8.12785e-22 6.37768e-21 -0.0358921)
(3.15968e-20 2.11531e-19 -0.0337368)
(-6.34832e-20 -4.26176e-19 -0.0316117)
(3.40776e-20 2.28311e-19 -0.0295267)
(1.52638e-20 1.31697e-19 -0.0274908)
(-1.36563e-20 -1.1531e-19 -0.0255117)
(-5.54521e-22 -1.87636e-22 -0.0235965)
(-9.43572e-23 -1.82682e-22 -0.0217508)
(1.14858e-23 1.37117e-23 -0.0199797)
(1.33412e-20 1.51666e-19 -0.018287)
(-1.30518e-20 -1.42443e-19 -0.0166759)
(1.03036e-21 1.00866e-20 -0.0151485)
(-4.36197e-22 -7.84053e-23 -0.0137062)
(5.70781e-21 8.58365e-20 -0.0123498)
(-1.07998e-20 -1.63605e-19 -0.0110788)
(5.40605e-21 8.84955e-20 -0.00989208)
(-2.88383e-21 -4.65604e-20 -0.00878699)
(2.15199e-21 3.45979e-20 -0.00775853)
(5.2104e-22 1.16851e-20 -0.00679754)
(1.98194e-21 2.63508e-20 0.0509339)
(8.4933e-21 -5.38404e-20 0.0227754)
(-7.25085e-20 1.56619e-20 -0.00157896)
(1.19893e-19 8.237e-20 -0.0207609)
(-3.16374e-20 -1.11469e-19 -0.0358478)
(-1.68651e-20 2.19432e-20 -0.0477561)
(1.90793e-21 2.01123e-20 -0.0571934)
(-1.38978e-20 -2.5621e-22 -0.0646768)
(-1.30668e-20 1.86266e-20 -0.0705669)
(6.64022e-20 -3.15128e-20 -0.075149)
(-2.70071e-20 1.27684e-20 -0.0786439)
(-1.3631e-20 6.12148e-22 -0.0812154)
(1.96918e-20 1.04135e-20 -0.0829925)
(-6.64318e-20 -5.54363e-20 -0.08408)
(4.99097e-20 3.35631e-20 -0.0845642)
(-1.11804e-20 1.23914e-20 -0.0845186)
(1.00752e-20 -9.02694e-21 -0.0840067)
(6.52586e-20 1.16688e-19 -0.0830842)
(-6.99523e-20 -9.97464e-20 -0.0818013)
(9.60066e-22 -1.06579e-20 -0.0802023)
(-3.12126e-21 -1.03995e-22 -0.078327)
(3.17257e-21 4.93875e-22 -0.0762065)
(2.61458e-21 -9.79914e-23 -0.0738743)
(-6.87732e-21 3.7473e-21 -0.0713613)
(5.72086e-21 4.53897e-22 -0.0687047)
(4.83994e-22 7.86398e-21 -0.0659367)
(-9.13195e-20 -3.07938e-19 -0.0630853)
(9.34426e-20 2.96463e-19 -0.0601712)
(-5.82347e-21 5.22307e-21 -0.0572159)
(-4.08916e-20 -1.86536e-19 -0.0542398)
(4.6444e-20 1.90476e-19 -0.0512616)
(-1.28795e-21 1.38283e-21 -0.0482987)
(-1.44862e-22 3.79803e-22 -0.045367)
(-4.40685e-20 -2.41109e-19 -0.0424807)
(8.9064e-20 4.85344e-19 -0.0396529)
(-8.70152e-20 -4.99929e-19 -0.0368952)
(8.52813e-20 5.22929e-19 -0.0342176)
(-8.28852e-20 -5.44812e-19 -0.0316291)
(4.06756e-20 2.77409e-19 -0.0291372)
(1.96491e-20 1.49995e-19 -0.0267481)
(-1.70917e-20 -1.30692e-19 -0.0244668)
(-1.32052e-21 -1.0042e-20 -0.0222973)
(-1.73674e-20 -1.64361e-19 -0.0202421)
(3.6863e-20 3.55044e-19 -0.0183031)
(-1.72543e-20 -1.69773e-19 -0.0164808)
(2.14688e-22 2.40411e-22 -0.0147746)
(7.80501e-22 1.12182e-20 -0.0131827)
(-1.93055e-22 -1.50015e-22 -0.0117012)
(-7.63597e-22 -1.17121e-20 -0.0103225)
(1.68126e-21 2.40669e-20 -0.00903188)
(2.68587e-20 9.43067e-23 0.0510063)
(3.2137e-22 3.94751e-22 0.015391)
(-6.07008e-20 4.56325e-22 -0.0151404)
(8.99595e-20 -2.55353e-22 -0.0380792)
(-2.69411e-20 8.67209e-23 -0.0554652)
(-4.3288e-20 -8.05028e-22 -0.0688069)
(1.39713e-20 2.21232e-23 -0.0791553)
(-1.16311e-20 -2.76648e-23 -0.0872074)
(9.40824e-20 -2.57334e-20 -0.0934335)
(9.23241e-21 7.39834e-20 -0.0981763)
(-3.12745e-21 6.86757e-20 -0.10169)
(-3.44517e-20 -1.18907e-19 -0.104161)
(7.84403e-20 1.41034e-19 -0.105735)
(-9.73921e-20 -1.31661e-19 -0.106533)
(3.92877e-20 8.93723e-20 -0.106652)
(-5.08773e-20 -9.42805e-20 -0.106174)
(5.09473e-21 -7.89196e-21 -0.105171)
(-2.85012e-20 -1.47902e-21 -0.103706)
(2.58897e-20 -3.25269e-21 -0.101835)
(1.35264e-21 2.35149e-21 -0.0996102)