/*--------------------------------*- C++ -*----------------------------------*\
| =========                 |                                                 |
| \\      /  F ield         | OpenFOAM: The Open Source CFD Toolbox           |
|  \\    /   O peration     | Version:  2412                                  |
|   \\  /    A nd           | Website:  www.openfoam.com                      |
|    \\/     M anipulation  |                                                 |
\*---------------------------------------------------------------------------*/
FoamFile
{
    version     2.0;
    format      ascii;
    arch        "LSB;label=32;scalar=64";
    class       volVectorField;
    location    "19.5";
    object      vorticity;
}
// * * * * * * * * * * * * * * * * * * * * * * * * * * * * * * * * * * * * * //

dimensions      [0 0 -1 0 0 0 0];

internalField   nonuniform List<vector> 
5285
(
(1.17806e-21 1.79895e-21 -0.0106243)
(-1.44255e-21 1.02135e-23 -0.00995422)
(9.75925e-22 2.68192e-21 -0.00928315)
(-3.48201e-22 1.9026e-23 -0.00861822)
(-7.34618e-22 1.60668e-24 -0.00796517)
(3.27596e-22 -7.76303e-24 -0.00732906)
(2.25785e-22 3.63925e-21 -0.00671425)
(-1.07898e-23 1.03924e-23 -0.00612425)
(-2.18752e-22 -4.09293e-21 -0.00556185)
(2.09663e-22 4.30531e-21 -0.00502912)
(-2.07747e-22 -4.50676e-21 -0.00452754)
(1.00571e-21 4.30902e-20 -0.00405803)
(-9.99422e-22 -4.34068e-20 -0.00362101)
(-5.03964e-22 -3.62498e-20 -0.00321649)
(1.16998e-21 7.90376e-20 -0.00284407)
(-6.54405e-22 -4.29713e-20 -0.00250305)
(-9.7516e-23 -5.59517e-21 -0.00219244)
(9.56056e-23 5.78618e-21 -0.00191102)
(-5.78588e-23 4.37674e-25 -0.00165741)
(2.13428e-22 6.05254e-21 -0.00143004)
(-3.52416e-22 -3.12333e-20 -0.00122728)
(3.19261e-22 3.14512e-20 -0.00104741)
(-7.36985e-23 -6.47018e-21 -0.000888666)
(2.07216e-22 1.98124e-20 -0.000749269)
(2.92601e-23 -6.60016e-21 -0.000627443)
(-1.27431e-22 -1.36072e-20 -0.000521403)
(3.04563e-23 6.84544e-21 -0.000429335)
(-9.22253e-23 -6.98478e-21 -0.000349396)
(2.19522e-20 1.4589e-19 -0.0314184)
(-2.44244e-20 -1.56226e-19 -0.029422)
(2.43885e-20 1.78605e-19 -0.0274255)
(-1.26707e-20 -8.19398e-20 -0.0254497)
(-2.39009e-20 -2.06323e-19 -0.0235113)
(1.14301e-20 1.05813e-19 -0.0216248)
(2.8537e-22 -3.29812e-21 -0.019803)
(-1.20485e-21 -7.911e-21 -0.0180559)
(5.34669e-22 4.09697e-21 -0.0163916)
(-1.07871e-21 -1.30784e-20 -0.014816)
(9.22532e-21 1.4395e-19 -0.0133334)
(-1.94157e-20 -3.08536e-19 -0.0119462)
(8.79423e-21 1.50218e-19 -0.0106556)
(-9.96307e-22 -1.54571e-20 -0.00946151)
(2.78884e-22 5.29944e-21 -0.00836264)
(-2.1851e-23 -6.7158e-23 -0.00735682)
(-4.10063e-21 -9.70453e-20 -0.00644105)
(3.48925e-21 8.59119e-20 -0.00561166)
(2.55248e-21 8.40605e-20 -0.00486448)
(-3.75652e-21 -1.1463e-19 -0.00419488)
(9.0155e-23 6.31031e-21 -0.00359797)
(7.83853e-22 3.20753e-20 -0.00306862)
(-1.72585e-21 -5.77813e-20 -0.00260162)
(3.44207e-23 -6.55887e-21 -0.0021917)
(-1.0835e-21 -4.69601e-20 -0.00183359)
(-2.02162e-22 -7.1121e-21 -0.00152197)
(2.5295e-22 1.35278e-20 -0.00125139)
(3.03052e-22 2.08151e-20 -0.00101613)
(-4.08978e-20 -1.60549e-19 -0.0509131)
(4.4028e-20 1.65439e-19 -0.0476319)
(2.8653e-22 7.58197e-21 -0.0443577)
(-8.78478e-22 -6.3973e-21 -0.0411262)
(5.25914e-22 7.39268e-21 -0.0379619)
(-3.57115e-20 -2.29306e-19 -0.0348877)
(3.85922e-20 2.36089e-19 -0.0319231)
(-3.44376e-20 -2.47727e-19 -0.0290841)
(3.68072e-20 2.64164e-19 -0.0263829)
(8.41344e-22 9.09124e-21 -0.0238285)
(3.20791e-20 3.03102e-19 -0.0214273)
(-6.24664e-20 -6.09259e-19 -0.0191829)
(3.18608e-20 3.25901e-19 -0.0170968)
(1.501e-20 1.794e-19 -0.0151684)
(-1.33528e-20 -1.58614e-19 -0.0133952)
(3.1659e-22 6.3183e-23 -0.0117736)
(-5.38738e-22 -1.08765e-22 -0.0102983)
(-6.24187e-23 1.2794e-22 -0.00896332)
(1.05443e-20 1.93259e-19 -0.00776157)
(-1.0209e-20 -1.81642e-19 -0.00668546)
(8.45012e-22 1.26502e-20 -0.00572693)
(-4.66646e-22 -9.42938e-24 -0.0048776)
(3.99974e-21 1.04205e-19 -0.00412894)
(-7.37864e-21 -1.97381e-19 -0.00347234)
(3.63255e-21 1.06229e-19 -0.0028992)
(-1.84841e-21 -5.46345e-20 -0.00240084)
(1.39462e-21 4.07945e-20 -0.00196814)
(3.30741e-22 1.37059e-20 -0.00159096)
(1.46716e-21 -5.38176e-23 -0.0684245)
(-2.69713e-21 6.02514e-21 -0.0639252)
(3.48355e-21 4.12383e-22 -0.0594509)
(1.22061e-21 8.13603e-21 -0.055047)
(-1.10588e-19 -4.77291e-19 -0.0507488)
(1.10705e-19 4.67673e-19 -0.0465828)
(-2.10049e-21 1.99717e-21 -0.0425739)
(-4.8508e-20 -2.75042e-19 -0.0387421)
(5.195e-20 2.83667e-19 -0.0351026)
(-2.76943e-22 3.83309e-22 -0.0316667)
(-1.87427e-22 -2.37449e-22 -0.0284417)
(-4.4264e-20 -3.33328e-19 -0.0254317)
(8.57132e-20 6.6847e-19 -0.0226378)
(-8.01365e-20 -6.79569e-19 -0.0200585)
(7.65708e-20 7.00345e-19 -0.0176901)
(-7.23156e-20 -7.20004e-19 -0.0155267)
(3.49643e-20 3.65118e-19 -0.013561)
(1.54787e-20 1.90897e-19 -0.0117844)
(-1.35963e-20 -1.67201e-19 -0.0101871)
(-1.13165e-21 -1.24189e-20 -0.00875861)
(-1.27293e-20 -2.02343e-19 -0.00748777)
(2.66433e-20 4.34523e-19 -0.00636316)
(-1.22537e-20 -2.06581e-19 -0.00537314)
(1.22601e-22 2.09405e-22 -0.00450604)
(5.00303e-22 1.3339e-20 -0.00375021)
(-1.06286e-22 -7.87292e-23 -0.00309377)
(-4.84323e-22 -1.36634e-20 -0.00252398)
(1.04225e-21 2.77223e-20 -0.00202556)
(-1.42898e-19 -4.30176e-19 -0.0778702)
(1.40409e-19 4.11116e-19 -0.0722926)
(-3.42202e-21 3.02172e-21 -0.0668253)
(4.16537e-21 1.11105e-24 -0.0615067)
(-3.83464e-21 -6.69521e-21 -0.056368)
(-1.32019e-19 -5.5436e-19 -0.051436)
(1.32112e-19 5.43034e-19 -0.0467331)
(-2.70564e-21 -7.71413e-21 -0.0422761)
(-5.83102e-20 -3.02775e-19 -0.038077)
(6.07899e-20 3.21689e-19 -0.0341434)
(6.10026e-22 2.16547e-22 -0.030479)
(1.89548e-22 2.46198e-22 -0.0270838)
(-1.9451e-22 -1.0649e-22 -0.0239549)
(-4.63599e-20 -3.6258e-19 -0.0210867)
(4.80159e-20 3.74194e-19 -0.0184713)
(-4.0305e-20 -3.68129e-19 -0.016099)
(4.20278e-20 3.79759e-19 -0.0139585)
(-2.62841e-21 -2.46283e-20 -0.0120372)
(8.02804e-22 1.24009e-20 -0.010322)
(3.99947e-22 1.05997e-22 -0.00879868)
(-8.21169e-22 -1.27955e-20 -0.00745308)
(8.16174e-22 1.29339e-20 -0.0062707)
(-7.55296e-21 -1.19408e-19 -0.00523711)
(1.29939e-20 2.1385e-19 -0.00433791)
(-9.26237e-21 -1.62055e-19 -0.00355838)
(2.91707e-21 5.44218e-20 -0.00288228)
(1.34166e-22 3.50714e-23 -0.0022885)
(1.72931e-19 4.70512e-19 -0.0892773)
(-1.80353e-19 -4.60459e-19 -0.08271)
(-1.69565e-19 -5.23171e-19 -0.0762986)
(1.69088e-19 5.05462e-19 -0.0700882)
(-2.82686e-21 2.38399e-21 -0.0641078)
(3.59502e-21 -1.06779e-21 -0.058385)
(1.53528e-19 6.11555e-19 -0.0529429)
(-5.56465e-21 2.47472e-20 -0.0477986)
(-1.53442e-19 -6.51612e-19 -0.0429636)
(-1.40538e-19 -6.85627e-19 -0.0384449)
(2.67784e-19 1.35396e-18 -0.0342448)
(-7.10219e-20 -3.4606e-19 -0.0303618)
(-6.45466e-20 -3.66309e-19 -0.0267912)
(-6.01523e-20 -3.95037e-19 -0.023525)
(1.08124e-19 7.39422e-19 -0.0205531)
(-1.05221e-19 -7.78394e-19 -0.0178632)
(1.24951e-21 -1.94548e-20 -0.0154413)
(4.70964e-20 3.93119e-19 -0.0132722)
(4.17319e-20 4.05685e-19 -0.01134)
(-6.35703e-20 -6.36715e-19 -0.00962796)
(3.62015e-20 4.01035e-19 -0.00811912)
(-1.94572e-20 -2.21236e-19 -0.00679652)
(1.70045e-20 2.26299e-19 -0.00564327)
(-1.67484e-20 -2.26115e-19 -0.00464262)
(6.79761e-22 1.35282e-20 -0.00377744)
(-4.02527e-21 -6.83079e-20 -0.00302833)
(1.65151e-21 2.71785e-20 -0.00236772)
(-2.05711e-19 -5.04597e-19 -0.095244)
(5.41582e-21 -4.20275e-21 -0.0881843)
(2.65686e-21 -4.56394e-23 -0.0812968)
(-3.78045e-22 1.06596e-20 -0.0746283)
(-1.91546e-19 -6.11246e-19 -0.0682123)
(1.92149e-19 6.05195e-19 -0.0620744)
(-1.77346e-21 1.90021e-21 -0.0562393)
(2.73147e-22 -1.29913e-23 -0.050725)
(3.22989e-21 1.09301e-20 -0.0455443)
(-1.57332e-19 -6.94747e-19 -0.0407044)
(3.14593e-19 1.43377e-18 -0.0362079)
(-1.52571e-19 -7.17483e-19 -0.0320533)
(2.20699e-21 1.11093e-20 -0.0282352)
(1.88499e-21 1.17634e-20 -0.0247453)
(6.19478e-20 3.88986e-19 -0.0215723)
(-1.18202e-19 -7.70727e-19 -0.018703)
(5.95664e-20 4.06088e-19 -0.016122)
(-4.95504e-20 -3.93658e-19 -0.0138131)
(3.26227e-21 -6.16019e-21 -0.0117586)
(3.97828e-21 7.09229e-21 -0.00994059)
(4.6175e-20 4.26928e-19 -0.00834062)
(2.06184e-20 2.24404e-19 -0.00694031)
(-2.04373e-20 -2.24136e-19 -0.0057214)
(8.99834e-22 1.34523e-20 -0.00466582)
(7.87955e-21 1.08079e-19 -0.00375516)
(-6.99154e-21 -9.42947e-20 -0.0029683)
(8.32523e-22 1.36111e-20 -0.00226885)
(0 3.87329e-24 -0.000262133)
(0 -0 -0.000209419)
(0 -0 -0.000165483)
(0 -0 -0.000129203)
(0 -0 -9.95294e-05)
(0 -0 -7.54885e-05)
(0 -0 -5.61905e-05)
(0 -0 -4.08377e-05)
(0 -0 -2.87247e-05)
(0 -0 -1.92359e-05)
(0 -0 -1.18391e-05)
(0 -0 -6.07894e-06)
(0 -0 -1.5682e-06)
(0 -0 2.0206e-06)
(0 -0 4.96393e-06)
(0 -0 7.49484e-06)
(0 -0 9.80873e-06)
(0 -0 1.20665e-05)
(0 -0 1.4394e-05)
(0 -0 1.68785e-05)
(0 -0 1.95609e-05)
(0 -0 2.24274e-05)
(0 -0 2.54022e-05)
(0 -0 2.83444e-05)
(0 -0 3.10556e-05)
(0 -0 3.3297e-05)
(0 -0 3.48212e-05)
(0 -0 3.54109e-05)
(0 -0 3.49211e-05)
(0 -0 3.33133e-05)
(0 -0 3.06723e-05)
(0 -0 2.72011e-05)
(0 -0 2.31907e-05)
(0 -0 1.89738e-05)
(0 -0 1.4872e-05)
(0 -0 1.11486e-05)
(0 -0 7.97962e-06)
(0 -0 5.44435e-06)
(0 -0 3.5362e-06)
(0 -0 2.18605e-06)
(0 -0 1.2904e-06)
(0 -0 7.3679e-07)
(0 -0 4.21174e-07)
(0 -0 2.64271e-07)
(0 -1.16784e-23 -0.00076207)
(0 -0 -0.000608273)
(0 -0 -0.000480183)
(0 -0 -0.000374494)
(0 -0 -0.00028811)
(0 -0 -0.000218165)
(0 -0 -0.000162052)
(0 -0 -0.000117441)
(0 -0 -8.2274e-05)
(0 -0 -5.47535e-05)
(0 -0 -3.33269e-05)
(0 -0 -1.66639e-05)
(0 -0 -3.63286e-06)
(0 -0 6.72447e-06)
(0 -0 1.52176e-05)
(0 -0 2.25291e-05)
(0 -0 2.92316e-05)
(0 -0 3.57964e-05)
(0 -0 4.25922e-05)
(0 -0 4.98732e-05)
(0 -0 5.77575e-05)
(0 -0 6.62015e-05)
(0 -0 7.49776e-05)
(0 -0 8.3667e-05)
(0 -0 9.16792e-05)
(0 -0 9.8306e-05)
(0 -0 0.000102813)
(0 -0 0.000104554)
(0 -0 0.000103101)
(0 -0 9.83378e-05)
(0 -0 9.05154e-05)
(0 -0 8.02349e-05)
(0 -0 6.83586e-05)
(0 -0 5.58726e-05)
(0 -0 4.37293e-05)
(0 -0 3.27095e-05)
(0 -0 2.33345e-05)
(0 -0 1.5839e-05)
(0 -0 1.02032e-05)
(0 -0 6.22183e-06)
(0 -0 3.58765e-06)
(0 -0 1.96693e-06)
(0 -0 1.05098e-06)
(0 -0 6.06109e-07)
(0 -7.84195e-24 -0.00119257)
(0 -0 -0.000950498)
(0 -0 -0.000749216)
(0 -0 -0.000583357)
(0 -0 -0.000447926)
(0 -0 -0.000338348)
(0 -0 -0.000250499)
(0 -0 -0.000180708)
(0 -0 -0.00012574)
(0 -0 -8.27741e-05)
(0 -0 -4.93681e-05)
(0 -0 -2.34274e-05)
(0 -0 -3.16722e-06)
(0 -0 1.29265e-05)
(0 -0 2.61349e-05)
(0 -0 3.75403e-05)
(0 -0 4.80518e-05)
(0 -0 5.84186e-05)
(0 -0 6.92268e-05)
(0 -0 8.08795e-05)
(0 -0 9.3561e-05)
(0 -0 0.000107194)
(0 -0 0.000121404)
(0 -0 0.000135505)
(0 -0 0.000148533)
(0 -0 0.000159332)
(0 -0 0.000166702)
(0 -0 0.00016959)
(0 -0 0.000167289)
(0 -0 0.000159606)
(0 -0 0.000146945)
(0 -0 0.000130278)
(0 -0 0.000111007)
(0 -0 9.07334e-05)
(0 -0 7.10076e-05)
(0 -0 5.31016e-05)
(0 -0 3.7865e-05)
(0 -0 2.56823e-05)
(0 -0 1.65227e-05)
(0 -0 1.00537e-05)
(0 -0 5.77623e-06)
(0 -0 3.14757e-06)
(0 -0 1.66543e-06)
(0 -0 9.50447e-07)
(0 -1.42538e-23 -0.00151738)
(0 -0 -0.00120699)
(0 -0 -0.000949521)
(0 -0 -0.000737685)
(0 -0 -0.000564855)
(0 -0 -0.000425093)
(0 -0 -0.000313109)
(0 -0 -0.000224219)
(0 -0 -0.000154296)
(0 -0 -9.97333e-05)
(0 -0 -5.74003e-05)
(0 -0 -2.46042e-05)
(0 -0 9.57182e-07)
(0 -0 2.12421e-05)
(0 -0 3.79123e-05)
(0 -0 5.23753e-05)
(0 -0 6.58161e-05)
(0 -0 7.92129e-05)
(0 -0 9.33318e-05)
(0 -0 0.000108697)
(0 -0 0.000125543)
(0 -0 0.000143754)
(0 -0 0.000162816)
(0 -0 0.000181796)
(0 -0 0.000199385)
(0 -0 0.000214016)
(0 -0 0.000224057)
(0 -0 0.000228076)
(0 -0 0.000225108)
(0 -0 0.00021488)
(0 -0 0.000197924)
(0 -0 0.000175545)
(0 -0 0.000149629)
(0 -0 0.000122336)
(0 -0 9.57608e-05)
(0 -0 7.16233e-05)
(0 -0 5.10759e-05)
(0 -0 3.46421e-05)
(0 -0 2.22849e-05)
(0 -0 1.3558e-05)
(0 -0 7.78959e-06)
(0 -0 4.24759e-06)
(0 -0 2.25387e-06)
(0 -0 1.2973e-06)
(0 3.5936e-25 -0.00171398)
(0 -0 -0.00136075)
(0 -0 -0.00106837)
(0 -0 -0.000827881)
(0 -0 -0.000631598)
(0 -0 -0.000472822)
(0 -0 -0.000345628)
(0 -0 -0.000244755)
(0 -0 -0.000165543)
(0 -0 -0.000103888)
(0 -0 -5.62098e-05)
(0 -0 -1.94086e-05)
(0 -0 9.17669e-06)
(0 -0 3.18193e-05)
(0 -0 5.0455e-05)
(0 -0 6.67291e-05)
(0 -0 8.20309e-05)
(0 -0 9.751e-05)
(0 -0 0.000114067)
(0 -0 0.000132315)
(0 -0 0.00015252)
(0 -0 0.000174524)
(0 -0 0.000197685)
(0 -0 0.00022085)
(0 -0 0.000242404)
(0 -0 0.000260414)
(0 -0 0.000272869)
(0 -0 0.000277995)
(0 -0 0.00027459)
(0 -0 0.000262299)
(0 -0 0.000241757)
(0 -0 0.000214545)
(0 -0 0.000182964)
(0 -0 0.000149659)
(0 -0 0.000117194)
(0 -0 8.76847e-05)
(0 -0 6.25495e-05)
(0 -0 4.24381e-05)
(0 -0 2.73118e-05)
(0 -0 1.66294e-05)
(0 -0 9.57034e-06)
(0 -0 5.23953e-06)
(0 -0 2.80607e-06)
(0 -0 1.64537e-06)
(0 -1.28217e-23 -0.00177758)
(0 -0 -0.00141078)
(0 -0 -0.00110629)
(0 -0 -0.000854825)
(0 -0 -0.000648965)
(0 -0 -0.000482178)
(0 -0 -0.000348548)
(0 -0 -0.000242705)
(0 -0 -0.000159808)
(0 -0 -9.55406e-05)
(0 -0 -4.60956e-05)
(0 -0 -8.15357e-06)
(0 -0 2.1153e-05)
(0 -0 4.42853e-05)
(0 -0 6.33482e-05)
(0 -0 8.01367e-05)
(0 -0 9.61721e-05)
(0 -0 0.000112716)
(0 -0 0.000130757)
(0 -0 0.000150966)
(0 -0 0.00017362)
(0 -0 0.000198519)
(0 -0 0.000224907)
(0 -0 0.000251445)
(0 -0 0.000276261)
(0 -0 0.000297115)
(0 -0 0.00031167)
(0 -0 0.000317863)
(0 -0 0.00031428)
(0 -0 0.000300484)
(0 -0 0.000277178)
(0 -0 0.000246161)
(0 -0 0.000210066)
(0 -0 0.000171929)
(0 -0 0.000134706)
(0 -0 0.000100837)
(0 -0 7.19666e-05)
(0 -0 4.88543e-05)
(0 -0 3.14655e-05)
(0 -0 1.91845e-05)
(0 -0 1.10719e-05)
(0 -0 6.09964e-06)
(0 -0 3.31142e-06)
(0 -0 1.99062e-06)
(0 -5.94667e-24 -0.0017269)
(0 -0 -0.00137601)
(0 -0 -0.00107815)
(0 -0 -0.00082989)
(0 -0 -0.00062546)
(0 -0 -0.000459542)
(0 -0 -0.000326689)
(0 -0 -0.000221732)
(0 -0 -0.000139896)
(0 -0 -7.68503e-05)
(0 -0 -2.87338e-05)
(0 -0 7.84832e-06)
(0 -0 3.58459e-05)
(0 -0 5.78024e-05)
(0 -0 7.59011e-05)
(0 -0 9.20106e-05)
(0 -0 0.000107719)
(0 -0 0.000124347)
(0 -0 0.000142928)
(0 -0 0.000164161)
(0 -0 0.000188322)
(0 -0 0.000215167)
(0 -0 0.00024385)
(0 -0 0.000272883)
(0 -0 0.000300193)
(0 -0 0.000323295)
(0 -0 0.000339597)
(0 -0 0.000346795)
(0 -0 0.000343301)
(0 -0 0.000328593)
(0 -0 0.00030341)
(0 -0 0.000269701)
(0 -0 0.00023034)
(0 -0 0.00018866)
(0 -0 0.000147912)
(0 -0 0.000110791)
(0 -0 7.91199e-05)
(0 -0 5.37487e-05)
(0 -0 3.46531e-05)
(0 -0 2.1166e-05)
(0 -0 1.22603e-05)
(0 -0 6.80843e-06)
(0 -0 3.75894e-06)
(0 -0 2.32615e-06)
(0 -0 -0.00163403)
(0 -0 -0.001293)
(0 -0 -0.00100635)
(0 -0 -0.000767645)
(0 -0 -0.000571399)
(0 -0 -0.000412264)
(0 -0 -0.000285327)
(0 -0 -0.000185624)
(0 -0 -0.00010851)
(0 -0 -4.97295e-05)
(0 -0 -5.45693e-06)
(0 -0 2.76871e-05)
(0 -0 5.26515e-05)
(0 -0 7.1986e-05)
(0 -0 8.78847e-05)
(0 -0 0.000102229)
(0 -0 0.000116623)
(0 -0 0.0001324)
(0 -0 0.000150606)
(0 -0 0.000171941)
(0 -0 0.000196669)
(0 -0 0.000224511)
(0 -0 0.00025455)
(0 -0 0.000285192)
(0 -0 0.000314216)
(0 -0 0.000338962)
(0 -0 0.000356645)
(0 -0 0.000364779)
(0 -0 0.000361629)
(0 -0 0.000346596)
(0 -0 0.000320416)
(0 -0 0.000285122)
(0 -0 0.000243743)
(0 -0 0.000199806)
(0 -0 0.000156769)
(0 -0 0.000117506)
(0 -0 8.39722e-05)
(0 -0 5.70891e-05)
(0 -0 3.68478e-05)
(0 -0 2.25522e-05)
(0 -0 1.31187e-05)
(0 -0 7.35332e-06)
(0 -0 4.13951e-06)
(0 -0 2.64605e-06)
(0 -0 -0.00150978)
(0 -0 -0.0011879)
(0 -0 -0.000915739)
(0 -0 -0.000689526)
(0 -0 -0.000503887)
(0 -0 -0.000354128)
(0 -0 -0.000235542)
(0 -0 -0.000143285)
(0 -0 -7.28049e-05)
(0 -0 -1.99184e-05)
(0 -0 1.9138e-05)
(0 -0 4.76937e-05)
(0 -0 6.86544e-05)
(0 -0 8.45329e-05)
(0 -0 9.74911e-05)
(0 -0 0.000109384)
(0 -0 0.000121793)
(0 -0 0.000136035)
(0 -0 0.000153142)
(0 -0 0.000173801)
(0 -0 0.000198259)
(0 -0 0.00022621)
(0 -0 0.000256698)
(0 -0 0.000288068)
(0 -0 0.000318019)
(0 -0 0.000343783)
(0 -0 0.000362459)
(0 -0 0.00037144)
(0 -0 0.000368885)
(0 -0 0.000354118)
(0 -0 0.000327843)
(0 -0 0.000292108)
(0 -0 0.000250002)
(0 -0 0.000205147)
(0 -0 0.000161107)
(0 -0 0.000120858)
(0 -0 8.6438e-05)
(0 -0 5.88194e-05)
(0 -0 3.80142e-05)
(0 -0 2.33204e-05)
(0 -0 1.36315e-05)
(0 -0 7.72154e-06)
(0 -0 4.44059e-06)
(0 -0 2.93769e-06)
(0 -0 -0.00140533)
(0 -0 -0.00109016)
(0 -0 -0.00082764)
(0 -0 -0.000611601)
(0 -0 -0.000435918)
(0 -0 -0.00029556)
(0 -0 -0.000185671)
(0 -0 -0.000101337)
(0 -0 -3.79918e-05)
(0 -0 8.52638e-06)
(0 -0 4.1941e-05)
(0 -0 6.55311e-05)
(0 -0 8.21474e-05)
(0 -0 9.42472e-05)
(0 -0 0.000103939)
(0 -0 0.000113028)
(0 -0 0.000123051)
(0 -0 0.000135287)
(0 -0 0.000150739)
(0 -0 0.000170071)
(0 -0 0.000193513)
(0 -0 0.00022075)
(0 -0 0.000250819)
(0 -0 0.000282052)
(0 -0 0.00031213)
(0 -0 0.000338259)
(0 -0 0.000357494)
(0 -0 0.000367176)
(0 -0 0.0003654)
(0 -0 0.000351422)
(0 -0 0.000325886)
(0 -0 0.000290792)
(0 -0 0.0002492)
(0 -0 0.000204723)
(0 -0 0.000160936)
(0 -0 0.000120839)
(0 -0 8.64972e-05)
(0 -0 5.89146e-05)
(0 -0 3.81258e-05)
(0 -0 2.34452e-05)
(0 -0 1.37745e-05)
(0 -0 7.89067e-06)
(0 -0 4.64091e-06)
(0 -0 3.18062e-06)
(0 -0 -0.00131741)
(0 -0 -0.00100671)
(0 -0 -0.00075113)
(0 -0 -0.000543226)
(0 -0 -0.000376014)
(0 -0 -0.000243983)
(0 -0 -0.000141998)
(0 -0 -6.49791e-05)
(0 -0 -8.28579e-06)
(0 -0 3.22601e-05)
(0 -0 6.03616e-05)
(0 -0 7.92551e-05)
(0 -0 9.17361e-05)
(0 -0 0.000100201)
(0 -0 0.000106695)
(0 -0 0.000112964)
(0 -0 0.000120489)
(0 -0 0.000130499)
(0 -0 0.00014396)
(0 -0 0.000161509)
(0 -0 0.000183367)
(0 -0 0.000209226)
(0 -0 0.000238144)
(0 -0 0.000268489)
(0 -0 0.000297986)
(0 -0 0.000323881)
(0 -0 0.000343261)
(0 -0 0.000353474)
(0 -0 0.000352592)
(0 -0 0.000339821)
(0 -0 0.000315719)
(0 -0 0.000282186)
(0 -0 0.000242175)
(0 -0 0.000199201)
(0 -0 0.000156763)
(0 -0 0.000117815)
(0 -0 8.44022e-05)
(0 -0 5.75369e-05)
(0 -0 3.72788e-05)
(0 -0 2.29764e-05)
(0 -0 1.35675e-05)
(0 -0 7.86149e-06)
(0 -0 4.73043e-06)
(0 -0 3.35877e-06)
(0 -0 -0.00124082)
(0 -0 -0.000936248)
(0 -0 -0.000687708)
(0 -0 -0.000487312)
(0 -0 -0.000327641)
(0 -0 -0.000202906)
(0 -0 -0.000107788)
(0 -0 -3.70898e-05)
(0 -0 1.38811e-05)
(0 -0 4.93067e-05)
(0 -0 7.28615e-05)
(0 -0 8.77326e-05)
(0 -0 9.66546e-05)
(0 -0 0.000101957)
(0 -0 0.000105617)
(0 -0 0.000109312)
(0 -0 0.000114462)
(0 -0 0.000122244)
(0 -0 0.00013358)
(0 -0 0.000149083)
(0 -0 0.000168971)
(0 -0 0.000192958)
(0 -0 0.000220151)
(0 -0 0.000248996)
(0 -0 0.000277313)
(0 -0 0.000302453)
(0 -0 0.000321594)
(0 -0 0.000332148)
(0 -0 0.000332208)
(0 -0 0.000320938)
(0 -0 0.000298802)
(0 -0 0.000267555)
(0 -0 0.000229982)
(0 -0 0.000189426)
(0 -0 0.000149237)
(0 -0 0.000112259)
(0 -0 8.04811e-05)
(0 -0 5.49005e-05)
(0 -0 3.56026e-05)
(0 -0 2.19843e-05)
(0 -0 1.30415e-05)
(0 -0 7.6409e-06)
(0 -0 4.70209e-06)
(0 -0 3.45752e-06)
(0 -0 -0.00116998)
(0 -0 -0.000874827)
(0 -0 -0.000635084)
(0 -0 -0.000442856)
(0 -0 -0.000290672)
(0 -0 -0.000172727)
(0 -0 -8.37026e-05)
(0 -0 -1.84132e-05)
(0 -0 2.78005e-05)
(0 -0 5.9066e-05)
(0 -0 7.89895e-05)
(0 -0 9.0682e-05)
(0 -0 9.6798e-05)
(0 -0 9.95871e-05)
(0 -0 0.000100949)
(0 -0 0.000102488)
(0 -0 0.000105557)
(0 -0 0.000111274)
(0 -0 0.000120519)
(0 -0 0.000133881)
(0 -0 0.000151581)
(0 -0 0.00017337)
(0 -0 0.000198426)
(0 -0 0.000225307)
(0 -0 0.000251971)
(0 -0 0.000275921)
(0 -0 0.000294483)
(0 -0 0.000305181)
(0 -0 0.00030616)
(0 -0 0.000296563)
(0 -0 0.000276752)
(0 -0 0.00024831)
(0 -0 0.000213804)
(0 -0 0.000176348)
(0 -0 0.000139088)
(0 -0 0.00010471)
(0 -0 7.51081e-05)
(0 -0 5.12518e-05)
(0 -0 3.32486e-05)
(0 -0 2.05533e-05)
(0 -0 1.22367e-05)
(0 -0 7.24152e-06)
(0 -0 4.5526e-06)
(0 -0 3.465e-06)
(0 -0 -0.00110007)
(0 -0 -0.000818132)
(0 -0 -0.000589676)
(0 -0 -0.000407053)
(0 -0 -0.000262991)
(0 -0 -0.00015189)
(0 -0 -6.86085e-05)
(0 -0 -8.11315e-06)
(0 -0 3.41123e-05)
(0 -0 6.20603e-05)
(0 -0 7.92099e-05)
(0 -0 8.8553e-05)
(0 -0 9.26346e-05)
(0 -0 9.36031e-05)
(0 -0 9.32663e-05)
(0 -0 9.31453e-05)
(0 -0 9.45179e-05)
(0 -0 9.84426e-05)
(0 -0 0.000105752)
(0 -0 0.000117014)
(0 -0 0.000132456)
(0 -0 0.000151874)
(0 -0 0.000174537)
(0 -0 0.000199135)
(0 -0 0.000223798)
(0 -0 0.000246222)
(0 -0 0.000263918)
(0 -0 0.00027456)
(0 -0 0.000276378)
(0 -0 0.00026851)
(0 -0 0.000251216)
(0 -0 0.00022589)
(0 -0 0.00019485)
(0 -0 0.000160945)
(0 -0 0.000127072)
(0 -0 9.57234e-05)
(0 -0 6.86753e-05)
(0 -0 4.68512e-05)
(0 -0 3.03786e-05)
(0 -0 1.8776e-05)
(0 -0 1.11996e-05)
(0 -0 6.68101e-06)
(0 -0 4.28299e-06)
(0 -0 3.37332e-06)
(0 -0 -0.00102771)
(0 -0 -0.000762584)
(0 -0 -0.000548)
(0 -0 -0.000376697)
(0 -0 -0.000241763)
(0 -0 -0.000137947)
(0 -0 -6.04238e-05)
(0 -0 -4.43208e-06)
(0 -0 3.43014e-05)
(0 -0 5.95538e-05)
(0 -0 7.46144e-05)
(0 -0 8.23091e-05)
(0 -0 8.50379e-05)
(0 -0 8.48228e-05)
(0 -0 8.33613e-05)
(0 -0 8.20786e-05)
(0 -0 8.21704e-05)
(0 -0 8.46277e-05)
(0 -0 9.02346e-05)
(0 -0 9.95341e-05)
(0 -0 0.000112764)
(0 -0 0.000129769)
(0 -0 0.000149919)
(0 -0 0.000172054)
(0 -0 0.000194492)
(0 -0 0.000215148)
(0 -0 0.000231748)
(0 -0 0.000242145)
(0 -0 0.000244678)
(0 -0 0.000238494)
(0 -0 0.000223757)
(0 -0 0.000201669)
(0 -0 0.000174284)
(0 -0 0.00014416)
(0 -0 0.000113921)
(0 -0 8.58441e-05)
(0 -0 6.15663e-05)
(0 -0 4.19556e-05)
(0 -0 2.71546e-05)
(0 -0 1.67469e-05)
(0 -0 9.98e-06)
(0 -0 5.98137e-06)
(0 -0 3.89893e-06)
(0 -0 3.17951e-06)
(0 -0 -0.000951115)
(0 -0 -0.000705793)
(0 -0 -0.000507344)
(0 -0 -0.000348982)
(0 -0 -0.000224246)
(0 -0 -0.000128327)
(0 -0 -5.68042e-05)
(0 -0 -5.27524e-06)
(0 -0 3.0214e-05)
(0 -0 5.31602e-05)
(0 -0 6.66098e-05)
(0 -0 7.31796e-05)
(0 -0 7.50913e-05)
(0 -0 7.42156e-05)
(0 -0 7.21213e-05)
(0 -0 7.01244e-05)
(0 -0 6.93292e-05)
(0 -0 7.06523e-05)
(0 -0 7.48247e-05)
(0 -0 8.23625e-05)
(0 -0 9.35107e-05)
(0 -0 0.000108167)
(0 -0 0.000125802)
(0 -0 0.000145409)
(0 -0 0.000165512)
(0 -0 0.000184252)
(0 -0 0.000199587)
(0 -0 0.000209568)
(0 -0 0.000212659)
(0 -0 0.000208034)
(0 -0 0.000195771)
(0 -0 0.000176881)
(0 -0 0.000153153)
(0 -0 0.000126846)
(0 -0 0.000100302)
(0 -0 7.55692e-05)
(0 -0 5.41354e-05)
(0 -0 3.68045e-05)
(0 -0 2.37296e-05)
(0 -0 1.45581e-05)
(0 -0 8.62885e-06)
(0 -0 5.16791e-06)
(0 -0 3.41078e-06)
(0 -0 2.88596e-06)
(0 -0 -0.000869974)
(0 -0 -0.000646628)
(0 -0 -0.000466014)
(0 -0 -0.000321871)
(0 -0 -0.000208243)
(0 -0 -0.00012081)
(0 -0 -5.56056e-05)
(0 -0 -8.63793e-06)
(0 -0 2.36791e-05)
(0 -0 4.45183e-05)
(0 -0 5.66448e-05)
(0 -0 6.24347e-05)
(0 -0 6.39056e-05)
(0 -0 6.27563e-05)
(0 -0 6.04115e-05)
(0 -0 5.80662e-05)
(0 -0 5.67243e-05)
(0 -0 5.72221e-05)
(0 -0 6.02323e-05)
(0 -0 6.624e-05)
(0 -0 7.54945e-05)
(0 -0 8.7941e-05)
(0 -0 0.00010315)
(0 -0 0.000120269)
(0 -0 0.00013802)
(0 -0 0.00015478)
(0 -0 0.000168743)
(0 -0 0.000178163)
(0 -0 0.000181643)
(0 -0 0.000178395)
(0 -0 0.000168424)
(0 -0 0.000152562)
(0 -0 0.000132342)
(0 -0 0.000109731)
(0 -0 8.67868e-05)
(0 -0 6.5329e-05)
(0 -0 4.66913e-05)
(0 -0 3.16091e-05)
(0 -0 2.02413e-05)
(0 -0 1.22943e-05)
(0 -0 7.1959e-06)
(0 -0 4.26819e-06)
(0 -0 2.83318e-06)
(0 -0 2.50032e-06)
(0 -0 -0.000785161)
(0 -0 -0.000585052)
(0 -0 -0.000423296)
(0 -0 -0.000294175)
(0 -0 -0.000192265)
(0 -0 -0.000113749)
(0 -0 -5.51345e-05)
(0 -0 -1.28624e-05)
(0 -0 1.62622e-05)
(0 -0 3.50658e-05)
(0 -0 4.60116e-05)
(0 -0 5.12166e-05)
(0 -0 5.24784e-05)
(0 -0 5.13109e-05)
(0 -0 4.8984e-05)
(0 -0 4.65635e-05)
(0 -0 4.49466e-05)
(0 -0 4.48844e-05)
(0 -0 4.69865e-05)
(0 -0 5.17028e-05)
(0 -0 5.92815e-05)
(0 -0 6.97098e-05)
(0 -0 8.26505e-05)
(0 -0 9.73955e-05)
(0 -0 0.000112861)
(0 -0 0.00012765)
(0 -0 0.000140187)
(0 -0 0.000148934)
(0 -0 0.000152634)
(0 -0 0.000150548)
(0 -0 0.000142622)
(0 -0 0.000129527)
(0 -0 0.000112555)
(0 -0 9.3395e-05)
(0 -0 7.38357e-05)
(0 -0 5.54723e-05)
(0 -0 3.94875e-05)
(0 -0 2.65456e-05)
(0 -0 1.68067e-05)
(0 -0 1.00306e-05)
(0 -0 5.72766e-06)
(0 -0 3.31073e-06)
(0 -0 2.18415e-06)
(0 -0 2.03492e-06)
(0 -0 -0.000698344)
(0 -0 -0.000521845)
(0 -0 -0.000379275)
(0 -0 -0.000265465)
(0 -0 -0.000175517)
(0 -0 -0.000106115)
(0 -0 -5.42342e-05)
(0 -0 -1.67487e-05)
(0 -0 9.14299e-06)
(0 -0 2.59173e-05)
(0 -0 3.5731e-05)
(0 -0 4.04364e-05)
(0 -0 4.16061e-05)
(0 -0 4.0564e-05)
(0 -0 3.84209e-05)
(0 -0 3.611e-05)
(0 -0 3.44186e-05)
(0 -0 3.40094e-05)
(0 -0 3.54263e-05)
(0 -0 3.90795e-05)
(0 -0 4.52108e-05)
(0 -0 5.38415e-05)
(0 -0 6.47163e-05)
(0 -0 7.72596e-05)
(0 -0 9.05671e-05)
(0 -0 0.000103453)
(0 -0 0.000114564)
(0 -0 0.00012256)
(0 -0 0.000126323)
(0 -0 0.000125171)
(0 -0 0.000119007)
(0 -0 0.000108357)
(0 -0 9.42985e-05)
(0 -0 7.8264e-05)
(0 -0 6.17902e-05)
(0 -0 4.6262e-05)
(0 -0 3.27178e-05)
(0 -0 2.17516e-05)
(0 -0 1.35202e-05)
(0 -0 7.82993e-06)
(0 -0 4.26577e-06)
(0 -0 2.32371e-06)
(0 -0 1.48393e-06)
(0 -0 1.5057e-06)
(0 -0 -0.000611595)
(0 -0 -0.000458285)
(0 -0 -0.000334595)
(0 -0 -0.000235888)
(0 -0 -0.000157779)
(0 -0 -9.74287e-05)
(0 -0 -5.22574e-05)
(0 -0 -1.95585e-05)
(0 -0 3.09071e-06)
(0 -0 1.78274e-05)
(0 -0 2.651e-05)
(0 -0 3.07324e-05)
(0 -0 3.18464e-05)
(0 -0 3.09887e-05)
(0 -0 2.91129e-05)
(0 -0 2.70205e-05)
(0 -0 2.53894e-05)
(0 -0 2.47942e-05)
(0 -0 2.57114e-05)
(0 -0 2.8509e-05)
(0 -0 3.34166e-05)
(0 -0 4.04815e-05)
(0 -0 4.95182e-05)
(0 -0 6.00683e-05)
(0 -0 7.13889e-05)
(0 -0 8.24874e-05)
(0 -0 9.22146e-05)
(0 -0 9.94142e-05)
(0 -0 0.000103106)
(0 -0 0.000102668)
(0 -0 9.79699e-05)
(0 -0 8.94184e-05)
(0 -0 7.78987e-05)
(0 -0 6.46156e-05)
(0 -0 5.08776e-05)
(0 -0 3.78769e-05)
(0 -0 2.65174e-05)
(0 -0 1.73258e-05)
(0 -0 1.04521e-05)
(0 -0 5.7421e-06)
(0 -0 2.84594e-06)
(0 -0 1.33383e-06)
(0 -0 7.53779e-07)
(0 -0 9.3102e-07)
(0 -0 -0.000527056)
(0 -0 -0.000395859)
(0 -0 -0.000290208)
(0 -0 -0.000205969)
(0 -0 -0.000139244)
(0 -0 -8.76343e-05)
(0 -0 -4.89762e-05)
(0 -0 -2.09527e-05)
(0 -0 -1.49578e-06)
(0 -0 1.1214e-05)
(0 -0 1.87547e-05)
(0 -0 2.24766e-05)
(0 -0 2.35221e-05)
(0 -0 2.28505e-05)
(0 -0 2.12649e-05)
(0 -0 1.94406e-05)
(0 -0 1.79505e-05)
(0 -0 1.7283e-05)
(0 -0 1.78485e-05)
(0 -0 1.99709e-05)
(0 -0 2.38639e-05)
(0 -0 2.9592e-05)
(0 -0 3.70273e-05)
(0 -0 4.58121e-05)
(0 -0 5.53444e-05)
(0 -0 6.48033e-05)
(0 -0 7.32227e-05)
(0 -0 7.96156e-05)
(0 -0 8.3129e-05)
(0 -0 8.32017e-05)
(0 -0 7.96833e-05)
(0 -0 7.28814e-05)
(0 -0 6.35168e-05)
(0 -0 5.25946e-05)
(0 -0 4.1222e-05)
(0 -0 3.0419e-05)
(0 -0 2.09675e-05)
(0 -0 1.3331e-05)
(0 -0 7.65066e-06)
(0 -0 3.80401e-06)
(0 -0 1.49734e-06)
(0 -0 3.65158e-07)
(0 -0 1.47656e-08)
(0 -0 3.30264e-07)
(0 -0 -0.000446677)
(0 -0 -0.000336025)
(0 -0 -0.000247159)
(0 -0 -0.000176418)
(0 -0 -0.000120351)
(0 -0 -7.69629e-05)
(0 -0 -4.44658e-05)
(0 -0 -2.08974e-05)
(0 -0 -4.51284e-06)
(0 -0 6.21799e-06)
(0 -0 1.26172e-05)
(0 -0 1.58121e-05)
(0 -0 1.6753e-05)
(0 -0 1.62352e-05)
(0 -0 1.49229e-05)
(0 -0 1.33742e-05)
(0 -0 1.20637e-05)
(0 -0 1.13985e-05)
(0 -0 1.17255e-05)
(0 -0 1.33251e-05)
(0 -0 1.63912e-05)
(0 -0 2.09987e-05)
(0 -0 2.70654e-05)
(0 -0 3.43174e-05)
(0 -0 4.22733e-05)
(0 -0 5.02605e-05)
(0 -0 5.74739e-05)
(0 -0 6.30772e-05)
(0 -0 6.63336e-05)
(0 -0 6.67417e-05)
(0 -0 6.4141e-05)
(0 -0 5.87588e-05)
(0 -0 5.11783e-05)
(0 -0 4.22344e-05)
(0 -0 3.28601e-05)
(0 -0 2.39246e-05)
(0 -0 1.61021e-05)
(0 -0 9.79804e-06)
(0 -0 5.14315e-06)
(0 -0 2.04013e-06)
(0 -0 2.42157e-07)
(0 -0 -5.61705e-07)
(0 -0 -7.13493e-07)
(0 -0 -2.77557e-07)
(0 -0 -0.000372051)
(0 -0 -0.000280039)
(0 -0 -0.000206423)
(0 -0 -0.000147972)
(0 -0 -0.000101643)
(0 -0 -6.58004e-05)
(0 -0 -3.89891e-05)
(0 -0 -1.95631e-05)
(0 -0 -6.06515e-06)
(0 -0 2.7773e-06)
(0 -0 8.05854e-06)
(0 -0 1.0707e-05)
(0 -0 1.15013e-05)
(0 -0 1.10897e-05)
(0 -0 1.00116e-05)
(0 -0 8.71886e-06)
(0 -0 7.59664e-06)
(0 -0 6.97772e-06)
(0 -0 7.14972e-06)
(0 -0 8.35095e-06)
(0 -0 1.07539e-05)
(0 -0 1.44379e-05)
(0 -0 1.93555e-05)
(0 -0 2.53007e-05)
(0 -0 3.18929e-05)
(0 -0 3.85853e-05)
(0 -0 4.4711e-05)
(0 -0 4.9565e-05)
(0 -0 5.25145e-05)
(0 -0 5.31144e-05)
(0 -0 5.1202e-05)
(0 -0 4.69417e-05)
(0 -0 4.08041e-05)
(0 -0 3.34814e-05)
(0 -0 2.57593e-05)
(0 -0 1.83778e-05)
(0 -0 1.19171e-05)
(0 -0 6.73129e-06)
(0 -0 2.93944e-06)
(0 -0 4.63758e-07)
(0 -0 -9.04301e-07)
(0 -0 -1.43027e-06)
(0 -0 -1.41388e-06)
(0 -0 -8.74974e-07)
(0 -0 -0.000304321)
(0 -0 -0.000228861)
(0 -0 -0.000168798)
(0 -0 -0.000121288)
(0 -0 -8.36584e-05)
(0 -0 -5.45827e-05)
(0 -0 -3.28974e-05)
(0 -0 -1.72333e-05)
(0 -0 -6.38347e-06)
(0 -0 7.0004e-07)
(0 -0 4.9131e-06)
(0 -0 7.01089e-06)
(0 -0 7.62218e-06)
(0 -0 7.26666e-06)
(0 -0 6.37392e-06)
(0 -0 5.30257e-06)
(0 -0 4.35823e-06)
(0 -0 3.80721e-06)
(0 -0 3.88337e-06)
(0 -0 4.7856e-06)
(0 -0 6.66454e-06)
(0 -0 9.59913e-06)
(0 -0 1.35673e-05)
(0 -0 1.84173e-05)
(0 -0 2.38502e-05)
(0 -0 2.94242e-05)
(0 -0 3.45886e-05)
(0 -0 3.87509e-05)
(0 -0 4.13688e-05)
(0 -0 4.20496e-05)
(0 -0 4.06336e-05)
(0 -0 3.72375e-05)
(0 -0 3.22413e-05)
(0 -0 2.62201e-05)
(0 -0 1.98371e-05)
(0 -0 1.37236e-05)
(0 -0 8.37979e-06)
(0 -0 4.11456e-06)
(0 -0 1.03527e-06)
(0 -0 -9.21281e-07)
(0 -0 -1.93302e-06)
(0 -0 -2.22833e-06)
(0 -0 -2.07236e-06)
(0 -0 -1.44693e-06)
(0 -0 -0.000244164)
(0 -0 -0.00018311)
(0 -0 -0.000134847)
(0 -0 -9.68794e-05)
(0 -0 -6.68558e-05)
(0 -0 -4.37199e-05)
(0 -0 -2.65559e-05)
(0 -0 -1.42322e-05)
(0 -0 -5.75644e-06)
(0 -0 -2.72591e-07)
(0 -0 2.94595e-06)
(0 -0 4.50634e-06)
(0 -0 4.90944e-06)
(0 -0 4.56501e-06)
(0 -0 3.80843e-06)
(0 -0 2.91795e-06)
(0 -0 2.13025e-06)
(0 -0 1.65354e-06)
(0 -0 1.67407e-06)
(0 -0 2.35494e-06)
(0 -0 3.82523e-06)
(0 -0 6.16025e-06)
(0 -0 9.35576e-06)
(0 -0 1.33019e-05)
(0 -0 1.77653e-05)
(0 -0 2.23895e-05)
(0 -0 2.67202e-05)
(0 -0 3.02594e-05)
(0 -0 3.25423e-05)
(0 -0 3.32234e-05)
(0 -0 3.21499e-05)
(0 -0 2.9403e-05)
(0 -0 2.52912e-05)
(0 -0 2.02954e-05)
(0 -0 1.49782e-05)
(0 -0 9.88132e-06)
(0 -0 5.43749e-06)
(0 -0 1.91693e-06)
(0 -0 -5.84294e-07)
(0 -0 -2.11885e-06)
(0 -0 -2.84054e-06)
(0 -0 -2.9479e-06)
(0 -0 -2.67829e-06)
(0 -0 -1.98137e-06)
(0 -0 -0.000191819)
(0 -0 -0.000143071)
(0 -0 -0.000104889)
(0 -0 -7.50801e-05)
(0 -0 -5.15772e-05)
(0 -0 -3.35505e-05)
(0 -0 -2.02928e-05)
(0 -0 -1.0873e-05)
(0 -0 -4.47955e-06)
(0 -0 -4.17472e-07)
(0 -0 1.89801e-06)
(0 -0 2.95028e-06)
(0 -0 3.13308e-06)
(0 -0 2.7641e-06)
(0 -0 2.09949e-06)
(0 -0 1.34955e-06)
(0 -0 6.92684e-07)
(0 -0 2.87288e-07)
(0 -0 2.78358e-07)
(0 -0 7.97179e-07)
(0 -0 1.95257e-06)
(0 -0 3.81411e-06)
(0 -0 6.38934e-06)
(0 -0 9.6e-06)
(0 -0 1.32645e-05)
(0 -0 1.70947e-05)
(0 -0 2.07148e-05)
(0 -0 2.37049e-05)
(0 -0 2.56659e-05)
(0 -0 2.62935e-05)
(0 -0 2.54441e-05)
(0 -0 2.31732e-05)
(0 -0 1.97341e-05)
(0 -0 1.55325e-05)
(0 -0 1.10502e-05)