/*--------------------------------*- C++ -*----------------------------------*\
| =========                 |                                                 |
| \\      /  F ield         | OpenFOAM: The Open Source CFD Toolbox           |
|  \\    /   O peration     | Version:  2412                                  |
|   \\  /    A nd           | Website:  www.openfoam.com                      |
|    \\/     M anipulation  |                                                 |
\*---------------------------------------------------------------------------*/
FoamFile
{
    version     2.0;
    format      ascii;
    arch        "LSB;label=32;scalar=64";
    class       volVectorField;
    location    "16";
    object      U;
}
// * * * * * * * * * * * * * * * * * * * * * * * * * * * * * * * * * * * * * //

dimensions      [0 1 -1 0 0 0 0];

internalField   nonuniform List<vector> 
5285
(
(0.0378817 -0.00178837 1.39607e-24)
(0.0411594 -0.00174437 0)
(0.0443561 -0.00169226 8.39731e-25)
(0.0474575 -0.00163353 0)
(0.0504518 -0.00156959 0)
(0.0533298 -0.00150171 0)
(0.0560847 -0.00143107 1.13286e-25)
(0.0587115 -0.00135874 0)
(0.0612071 -0.00128565 9.52185e-26)
(0.0635703 -0.00121265 -1.69861e-25)
(0.0658012 -0.00114046 2.28053e-25)
(0.0679014 -0.00106971 -2.64101e-24)
(0.0698733 -0.00100092 2.67663e-24)
(0.0717206 -0.000934507 2.38539e-24)
(0.0734475 -0.000870809 -5.16077e-24)
(0.0750589 -0.00081008 2.78883e-24)
(0.0765601 -0.0007525 3.46297e-25)
(0.0779569 -0.000698179 -3.42585e-25)
(0.079255 -0.00064717 0)
(0.0804605 -0.000599474 -3.25483e-25)
(0.0815793 -0.000555046 1.55298e-24)
(0.0826174 -0.000513806 -1.54164e-24)
(0.0835804 -0.000475644 2.86116e-25)
(0.0844739 -0.000440425 -8.03067e-25)
(0.0853032 -0.000407997 2.7625e-25)
(0.0860734 -0.000378197 4.76712e-25)
(0.0867891 -0.000350849 -2.3582e-25)
(0.0874547 -0.000325775 2.11838e-25)
(0.0387173 -0.00532448 7.73204e-23)
(0.0419387 -0.0051945 -8.41315e-23)
(0.0450799 -0.00504027 4.70801e-23)
(0.0481271 -0.00486625 -3.08501e-23)
(0.0510691 -0.00467659 -2.84548e-23)
(0.053897 -0.00447512 1.13101e-23)
(0.0566041 -0.00426533 -1.13577e-25)
(0.0591857 -0.0040504 -7.58101e-26)
(0.0616389 -0.00383314 -9.54261e-26)
(0.0639625 -0.00361606 4.46179e-25)
(0.0661565 -0.00340133 -7.54439e-24)
(0.0682226 -0.00319081 1.69576e-23)
(0.0701632 -0.00298605 -8.71422e-24)
(0.0719817 -0.00278833 9.36601e-25)
(0.0736824 -0.00259864 -3.39475e-25)
(0.07527 -0.00241776 0)
(0.0767496 -0.00224622 5.7493e-24)
(0.0781269 -0.00208436 -5.09768e-24)
(0.0794076 -0.00193233 -4.57531e-24)
(0.0805974 -0.00179015 6.1836e-24)
(0.0817022 -0.00165769 -3.13537e-25)
(0.0827278 -0.00153471 -1.43758e-24)
(0.0836796 -0.00142088 2.5941e-24)
(0.0845632 -0.00131582 2.71107e-25)
(0.0853837 -0.00121907 1.74076e-24)
(0.0861461 -0.00113013 1.69156e-25)
(0.0868548 -0.00104851 -4.93446e-25)
(0.0875143 -0.000973637 -6.46049e-25)
(0.0403265 -0.00874243 -8.54736e-23)
(0.0434395 -0.00853254 9.08969e-23)
(0.0464739 -0.00828249 2.03273e-24)
(0.0494171 -0.0079996 -1.54542e-24)
(0.0522586 -0.00769066 1.12399e-24)
(0.0549902 -0.00736195 -1.59367e-23)
(0.0576057 -0.00701923 1.67163e-23)
(0.0601006 -0.0066677 -6.14664e-25)
(0.0624724 -0.00631204 8.97141e-25)
(0.0647198 -0.00595638 -2.7707e-25)
(0.0668431 -0.00560432 -1.32393e-23)
(0.0688438 -0.00525894 2.86219e-23)
(0.0707241 -0.00492282 -1.64529e-23)
(0.0724874 -0.00459808 -1.02204e-23)
(0.0741376 -0.00428641 9.03657e-24)
(0.0756793 -0.00398906 0)
(0.0771175 -0.00370696 -4.93808e-26)
(0.0784573 -0.00344068 0)
(0.0797043 -0.0031905 -9.99841e-24)
(0.0808638 -0.00295644 9.33906e-24)
(0.0819416 -0.00273831 -5.7545e-25)
(0.0829429 -0.00253573 -2.85381e-26)
(0.0838732 -0.00234819 -4.27568e-24)
(0.0847376 -0.00217504 7.7798e-24)
(0.0855411 -0.00201554 -4.05442e-24)
(0.0862882 -0.00186889 1.77206e-24)
(0.0869835 -0.00173424 -1.37646e-24)
(0.087631 -0.00161068 -4.4316e-25)
(0.0425954 -0.0119714 0)
(0.0455555 -0.0116914 2.92411e-24)
(0.0484397 -0.0113558 2.8194e-25)
(0.0512368 -0.0109744 1.56003e-24)
(0.0539373 -0.0105565 -6.83002e-23)
(0.0565338 -0.0101107 6.7405e-23)
(0.0590208 -0.00964499 0)
(0.0613943 -0.00916646 -5.40585e-24)
(0.0636519 -0.00868159 5.74062e-24)
(0.0657927 -0.00819611 0)
(0.0678167 -0.007715 -1.29516e-25)
(0.0697255 -0.00724256 1.32907e-23)
(0.0715211 -0.00678239 -2.84456e-23)
(0.0732068 -0.00633746 3.19962e-23)
(0.0747861 -0.00591012 -3.46354e-23)
(0.0762632 -0.00550218 3.64388e-23)
(0.0776429 -0.00511492 -1.86067e-23)
(0.0789298 -0.00474918 -9.3827e-24)
(0.0801291 -0.00440538 8.2253e-24)
(0.0812458 -0.00408359 5.44977e-25)
(0.0822852 -0.00378357 8.78137e-24)
(0.0832523 -0.00350484 -1.8206e-23)
(0.084152 -0.00324668 8.36579e-24)
(0.0849891 -0.00300824 3.1352e-26)
(0.0857682 -0.00278852 -4.76254e-25)
(0.0864938 -0.00258643 -2.52964e-26)
(0.0871698 -0.0024008 4.2208e-25)
(0.0878001 -0.00223032 -7.7022e-25)
(0.0481487 -0.0146143 -1.84135e-22)
(0.0508494 -0.0142073 1.78724e-22)
(0.0534683 -0.0137417 0)
(0.0559971 -0.0132289 0)
(0.0584294 -0.0126798 -9.95531e-25)
(0.0607601 -0.0121043 -4.03303e-23)
(0.062986 -0.0115115 3.99255e-23)
(0.0651048 -0.0109095 -1.57621e-25)
(0.0671158 -0.0103056 1.03091e-24)
(0.069019 -0.00970617 -1.04985e-24)
(0.0708159 -0.00911676 0)
(0.0725084 -0.00854196 1.37699e-25)
(0.0740992 -0.00798559 0)
(0.0755918 -0.00745072 1.51794e-23)
(0.07699 -0.00693969 -1.54944e-23)
(0.0782979 -0.00645419 1.5965e-23)
(0.0795199 -0.00599535 -1.65063e-23)
(0.0806606 -0.00556376 1.03658e-24)
(0.0817247 -0.00515956 -5.44857e-25)
(0.0827167 -0.0047825 5.60794e-26)
(0.0836414 -0.004432 5.13219e-25)
(0.0845032 -0.00410723 -4.92614e-25)
(0.0853065 -0.00380712 4.00202e-24)
(0.0860555 -0.00353046 -6.88283e-24)
(0.0867541 -0.00327589 4.90299e-24)
(0.0874061 -0.00304193 -1.58318e-24)
(0.0880151 -0.00282688 2.55162e-26)
(0.0510673 -0.0172788 2.11483e-22)
(0.0535625 -0.016819 -2.11176e-22)
(0.0559821 -0.0162867 -1.37061e-22)
(0.0583193 -0.0156959 1.34772e-22)
(0.0605684 -0.0150593 0)
(0.0627252 -0.0143889 0)
(0.0647866 -0.0136957 3.98284e-23)
(0.0667508 -0.0129895 -1.55429e-23)
(0.068617 -0.0122793 -2.47465e-23)
(0.0703856 -0.0115727 -1.15541e-24)
(0.0720575 -0.0108767 -6.46591e-24)
(0.0736346 -0.0101968 6.6079e-25)
(0.0751193 -0.00953774 7.13007e-24)
(0.0765147 -0.00890341 1.1971e-23)
(0.0778242 -0.00829672 -2.3515e-23)
(0.0790513 -0.00771981 2.65021e-23)
(0.0802001 -0.00717414 9.16423e-25)
(0.0812747 -0.00666051 -1.41e-23)
(0.082279 -0.00617917 -1.42435e-23)
(0.0832174 -0.0057299 2.21285e-23)
(0.0840939 -0.00531207 -1.34633e-23)
(0.0849125 -0.00492473 7.23737e-24)
(0.0856772 -0.00456666 -6.74803e-24)
(0.0863916 -0.00423644 6.72436e-24)
(0.0870593 -0.00393248 -3.87568e-25)
(0.0876838 -0.00365302 1.69476e-24)
(0.0882683 -0.00339598 -7.01497e-25)
(0.0541616 -0.0196916 -2.9642e-22)
(0.0564412 -0.0191965 0)
(0.0586523 -0.0186145 0)
(0.0607891 -0.0179614 2.13213e-24)
(0.0628468 -0.0172523 -1.05035e-22)
(0.0648217 -0.0165009 1.04767e-22)
(0.0667112 -0.0157202 0)
(0.0685136 -0.0149219 0)
(0.0702282 -0.0141164 3.97777e-25)
(0.0718554 -0.013313 -1.43274e-23)
(0.0733959 -0.0125199 1.9201e-23)
(0.0748515 -0.0117437 -4.6546e-24)
(0.0762243 -0.0109902 -1.83866e-25)
(0.0775169 -0.0102641 -2.60202e-25)
(0.0787322 -0.0095688 -8.90605e-24)
(0.0798736 -0.00890706 1.8724e-23)
(0.0809443 -0.00828066 -1.05566e-23)
(0.0819481 -0.00769066 1.12195e-23)
(0.0828885 -0.00713744 2.98963e-25)
(0.0837692 -0.00662085 -3.27378e-25)
(0.0845938 -0.00614021 -1.23099e-23)
(0.0853657 -0.0056945 -6.17238e-24)
(0.0860885 -0.00528235 6.14425e-24)
(0.0867653 -0.00490215 -3.65317e-25)
(0.0873995 -0.00455213 -2.56844e-24)
(0.0879939 -0.00423029 2.23118e-24)
(0.0885516 -0.00393426 -3.11609e-25)
(0.0880762 -0.000302733 0)
(0.0886612 -0.000281469 0)
(0.0892161 -0.000261736 0)
(0.0897425 -0.000243468 0)
(0.0902421 -0.000226582 0)
(0.0907166 -0.000210988 0)
(0.0911674 -0.000196595 0)
(0.0915961 -0.000183319 0)
(0.0920039 -0.000171074 0)
(0.0923924 -0.00015978 0)
(0.0927626 -0.000149361 0)
(0.0931157 -0.000139743 0)
(0.0934529 -0.000130853 0)
(0.093775 -0.000122621 0)
(0.0940831 -0.000114977 0)
(0.0943777 -0.00010785 0)
(0.0946597 -0.000101169 0)
(0.0949294 -9.48632e-05 0)
(0.0951873 -8.88674e-05 0)
(0.0954335 -8.31229e-05 0)
(0.0956682 -7.75845e-05 0)
(0.0958913 -7.22239e-05 0)
(0.0961029 -6.70345e-05 0)
(0.0963028 -6.20316e-05 0)
(0.0964912 -5.72503e-05 0)
(0.0966684 -5.27387e-05 0)
(0.0968348 -4.85487e-05 0)
(0.096991 -4.47251e-05 0)
(0.097138 -4.1296e-05 0)
(0.0972766 -3.82667e-05 0)
(0.0974079 -3.56182e-05 0)
(0.0975329 -3.33107e-05 0)
(0.0976524 -3.12904e-05 0)
(0.0977672 -2.94986e-05 0)
(0.0978777 -2.7879e-05 0)
(0.0979844 -2.63841e-05 0)
(0.0980874 -2.49782e-05 0)
(0.0981869 -2.36372e-05 0)
(0.0982829 -2.23472e-05 0)
(0.0983755 -2.1102e-05 0)
(0.0984646 -1.99e-05 0)
(0.0985502 -1.87422e-05 0)
(0.0986325 -1.76303e-05 0)
(0.0987114 -1.65663e-05 0)
(0.0881294 -0.000904871 0)
(0.0887084 -0.000841473 0)
(0.0892579 -0.000782625 0)
(0.0897795 -0.000728134 0)
(0.0902749 -0.000677746 0)
(0.0907456 -0.000631195 0)
(0.0911931 -0.000588219 0)
(0.0916188 -0.00054856 0)
(0.092024 -0.00051197 0)
(0.0924101 -0.000478213 0)
(0.0927783 -0.000447059 0)
(0.0931295 -0.000418291 0)
(0.093465 -0.000391695 0)
(0.0937856 -0.000367062 0)
(0.0940922 -0.000344182 0)
(0.0943856 -0.000322845 0)
(0.0946664 -0.00030284 0)
(0.094935 -0.00028396 0)
(0.0951919 -0.000266007 0)
(0.0954372 -0.00024881 0)
(0.095671 -0.000232232 0)
(0.0958935 -0.000216192 0)
(0.0961044 -0.000200667 0)
(0.0963039 -0.000185705 0)
(0.096492 -0.000171408 0)
(0.0966689 -0.00015792 0)
(0.0968352 -0.000145393 0)
(0.0969914 -0.000133961 0)
(0.0971384 -0.000123706 0)
(0.0972771 -0.000114645 0)
(0.0974086 -0.00010672 0)
(0.0975337 -9.98119e-05 0)
(0.0976534 -9.3762e-05 0)
(0.0977682 -8.83946e-05 0)
(0.0978789 -8.35426e-05 0)
(0.0979856 -7.90644e-05 0)
(0.0980886 -7.48532e-05 0)
(0.0981881 -7.08372e-05 0)
(0.0982841 -6.6975e-05 0)
(0.0983766 -6.32474e-05 0)
(0.0984657 -5.96497e-05 0)
(0.0985512 -5.61844e-05 0)
(0.0986334 -5.28568e-05 0)
(0.0987122 -4.96721e-05 0)
(0.0882339 -0.00149731 0)
(0.088801 -0.001393 0)
(0.08934 -0.00129614 0)
(0.0898523 -0.0012064 0)
(0.0903394 -0.00112336 0)
(0.0908028 -0.00104659 0)
(0.0912438 -0.000975667 0)
(0.0916637 -0.000910169 0)
(0.0920639 -0.000849699 0)
(0.0924454 -0.000793872 0)
(0.0928095 -0.000742318 0)
(0.0931571 -0.000694682 0)
(0.0934892 -0.000650619 0)
(0.0938068 -0.000609787 0)
(0.0941106 -0.000571846 0)
(0.0944014 -0.00053645 0)
(0.0946798 -0.000503256 0)
(0.0949463 -0.000471925 0)
(0.0952012 -0.000442135 0)
(0.0954447 -0.000413603 0)
(0.0956769 -0.000386107 0)
(0.0958979 -0.000359511 0)
(0.0961077 -0.000333779 0)
(0.0963062 -0.000308985 0)
(0.0964936 -0.000285296 0)
(0.0966701 -0.000262944 0)
(0.0968361 -0.000242178 0)
(0.0969923 -0.000223215 0)
(0.0971394 -0.00020619 0)
(0.0972783 -0.000191129 0)
(0.09741 -0.000177938 0)
(0.0975354 -0.000166425 0)
(0.0976553 -0.000156329 0)
(0.0977704 -0.000147363 0)
(0.0978812 -0.000139253 0)
(0.097988 -0.000131767 0)
(0.0980911 -0.00012473 0)
(0.0981905 -0.000118022 0)
(0.0982865 -0.000111576 0)
(0.0983789 -0.000105358 0)
(0.0984678 -9.936e-05 0)
(0.0985533 -9.35854e-05 0)
(0.0986353 -8.80419e-05 0)
(0.098714 -8.27378e-05 0)
(0.0883855 -0.00207416 0)
(0.0889357 -0.00193091 0)
(0.0894596 -0.00179781 0)
(0.0899585 -0.00167438 0)
(0.0904338 -0.00156005 0)
(0.0908867 -0.00145424 0)
(0.0913184 -0.00135638 0)
(0.09173 -0.00126591 0)
(0.0921228 -0.0011823 0)
(0.0924977 -0.00110503 0)
(0.0928558 -0.00103361 0)
(0.093198 -0.00096756 0)
(0.0935253 -0.000906414 0)
(0.0938384 -0.000849711 0)
(0.0941382 -0.000796988 0)
(0.0944253 -0.000747778 0)
(0.0947002 -0.000701614 0)
(0.0949635 -0.000658034 0)
(0.0952154 -0.000616601 0)
(0.0954563 -0.000576927 0)
(0.0956861 -0.00053871 0)
(0.0959051 -0.00050176 0)
(0.0961131 -0.000466028 0)
(0.0963102 -0.000431609 0)
(0.0964965 -0.000398728 0)
(0.0966723 -0.000367696 0)
(0.0968379 -0.00033885 0)
(0.096994 -0.000312483 0)
(0.0971412 -0.000288778 0)
(0.0972804 -0.00026777 0)
(0.0974124 -0.000249335 0)
(0.0975382 -0.00023321 0)
(0.0976584 -0.000219042 0)
(0.0977738 -0.00020644 0)
(0.0978847 -0.000195032 0)
(0.0979917 -0.0001845 0)
(0.0980947 -0.000174604 0)
(0.0981942 -0.000165179 0)
(0.09829 -0.000156129 0)
(0.0983822 -0.000147409 0)
(0.098471 -0.000139004 0)
(0.0985563 -0.000130917 0)
(0.0986382 -0.000123158 0)
(0.0987167 -0.000115736 0)
(0.0885788 -0.00263037 0)
(0.0891079 -0.00245081 0)
(0.089613 -0.00228381 0)
(0.0900951 -0.00212875 0)
(0.0905556 -0.00198491 0)
(0.0909953 -0.00185159 0)
(0.0914152 -0.00172811 0)
(0.0918164 -0.0016138 0)
(0.0921998 -0.00150801 0)
(0.0925663 -0.00141013 0)
(0.0929168 -0.00131954 0)
(0.0932521 -0.00123568 0)
(0.0935731 -0.00115796 0)
(0.0938805 -0.00108582 0)
(0.0941751 -0.0010187 0)
(0.0944573 -0.000956002 0)
(0.0947277 -0.000897163 0)
(0.0949869 -0.000841607 0)
(0.095235 -0.000788791 0)
(0.0954724 -0.000738236 0)
(0.0956991 -0.000689563 0)
(0.0959153 -0.000642533 0)
(0.096121 -0.00059708 0)
(0.0963163 -0.000553315 0)
(0.0965012 -0.00051151 0)
(0.096676 -0.000472046 0)
(0.0968411 -0.000435334 0)
(0.0969969 -0.000401734 0)
(0.0971442 -0.000371473 0)
(0.0972836 -0.000344593 0)
(0.097416 -0.000320944 0)
(0.0975422 -0.000300202 0)
(0.0976628 -0.00028193 0)
(0.0977785 -0.000265647 0)
(0.0978896 -0.00025089 0)
(0.0979966 -0.000237263 0)
(0.0980997 -0.000224465 0)
(0.098199 -0.000212289 0)
(0.0982947 -0.000200612 0)
(0.0983868 -0.000189374 0)
(0.0984753 -0.000178553 0)
(0.0985603 -0.000168151 0)
(0.0986419 -0.000158176 0)
(0.0987202 -0.00014864 0)
(0.0888072 -0.00316201 0)
(0.089312 -0.00294927 0)
(0.0897955 -0.00275115 0)
(0.0902585 -0.00256686 0)
(0.0907018 -0.00239558 0)
(0.0911263 -0.00223654 0)
(0.0915325 -0.00208898 0)
(0.0919214 -0.00195215 0)
(0.0922938 -0.00182533 0)
(0.0926503 -0.00170781 0)
(0.0929918 -0.0015989 0)
(0.0933189 -0.00149794 0)
(0.0936324 -0.00140426 0)
(0.093933 -0.00131722 0)
(0.0942212 -0.00123614 0)
(0.0944976 -0.00116037 0)
(0.0947626 -0.00108921 0)
(0.0950168 -0.00102202 0)
(0.0952603 -0.000958141 0)
(0.0954935 -0.000897024 0)
(0.0957164 -0.000838219 0)
(0.0959293 -0.000781442 0)
(0.0961322 -0.000726607 0)
(0.0963251 -0.000673836 0)
(0.0965082 -0.000623436 0)
(0.0966817 -0.000575842 0)
(0.096846 -0.000531528 0)
(0.0970015 -0.000490908 0)
(0.0971487 -0.000454245 0)
(0.0972883 -0.00042159 0)
(0.0974211 -0.000392769 0)
(0.0975476 -0.000367408 0)
(0.0976686 -0.000345001 0)
(0.0977845 -0.000324985 0)
(0.0978959 -0.00030682 0)
(0.0980029 -0.000290042 0)
(0.098106 -0.000274294 0)
(0.0982052 -0.000259329 0)
(0.0983006 -0.000244998 0)
(0.0983924 -0.000231224 0)
(0.0984806 -0.000217978 0)
(0.0985654 -0.000205257 0)
(0.0986466 -0.000193069 0)
(0.0987246 -0.000181423 0)
(0.0890637 -0.00366632 0)
(0.0895425 -0.00342398 0)
(0.0900029 -0.00319778 0)
(0.0904451 -0.00298684 0)
(0.0908698 -0.00279035 0)
(0.0912773 -0.00260751 0)
(0.0916685 -0.00243753 0)
(0.0920437 -0.00227963 0)
(0.0924036 -0.00213302 0)
(0.0927489 -0.00199693 0)
(0.0930801 -0.00187063 0)
(0.093398 -0.00175338 0)
(0.093703 -0.00164444 0)
(0.0939957 -0.00154309 0)
(0.0942766 -0.00144859 0)
(0.0945463 -0.0013602 0)
(0.0948051 -0.00127715 0)
(0.0950535 -0.0011987 0)
(0.0952917 -0.00112414 0)
(0.09552 -0.00105283 0)
(0.0957386 -0.000984266 0)
(0.0959476 -0.000918126 0)
(0.0961471 -0.0008543 0)
(0.0963373 -0.000792912 0)
(0.0965182 -0.000734292 0)
(0.0966902 -0.000678916 0)
(0.0968534 -0.000627303 0)
(0.0970082 -0.000579909 0)
(0.0971552 -0.000537025 0)
(0.0972949 -0.000498711 0)
(0.0974279 -0.000464775 0)
(0.0975548 -0.000434802 0)
(0.097676 -0.00040823 0)
(0.0977922 -0.000384432 0)
(0.0979036 -0.0003628 0)
(0.0980107 -0.000342813 0)
(0.0981136 -0.000324063 0)
(0.0982126 -0.000306269 0)
(0.0983077 -0.000289254 0)
(0.0983992 -0.000272927 0)
(0.098487 -0.000257246 0)
(0.0985714 -0.000242205 0)
(0.0986523 -0.000227806 0)
(0.0987298 -0.000214056 0)
(0.0893484 -0.00415375 0)
(0.0898005 -0.00388484 0)
(0.0902366 -0.00363289 0)
(0.0906567 -0.00339721 0)
(0.0910612 -0.00317714 0)
(0.0914505 -0.0029719 0)
(0.091825 -0.0027807 0)
(0.0921851 -0.00260274 0)
(0.0925312 -0.0024372 0)
(0.092864 -0.00228329 0)
(0.0931837 -0.0021402 0)
(0.0934911 -0.00200715 0)
(0.0937864 -0.00188335 0)
(0.0940702 -0.00176803 0)
(0.0943429 -0.00166038 0)
(0.0946049 -0.00155958 0)
(0.0948567 -0.00146483 0)
(0.0950985 -0.0013753 0)
(0.0953306 -0.00129022 0)
(0.0955533 -0.0012089 0)
(0.0957669 -0.00113077 0)
(0.0959714 -0.00105547 0)
(0.096167 -0.000982874 0)
(0.0963539 -0.000913098 0)
(0.0965322 -0.000846484 0)
(0.0967021 -0.000783529 0)
(0.0968639 -0.000724783 0)
(0.0970179 -0.000670733 0)
(0.0971645 -0.000621692 0)
(0.097304 -0.000577722 0)
(0.0974371 -0.000538621 0)
(0.0975641 -0.000503945 0)
(0.0976855 -0.000473087 0)
(0.0978017 -0.000445368 0)
(0.0979132 -0.000420129 0)
(0.0980201 -0.000396797 0)
(0.0981228 -0.000374924 0)
(0.0982215 -0.000354193 0)
(0.0983163 -0.000334403 0)
(0.0984073 -0.000315443 0)
(0.0984947 -0.000297263 0)
(0.0985786 -0.000279845 0)
(0.098659 -0.000263187 0)
(0.0987361 -0.000247292 0)
(0.0896598 -0.0046236 0)
(0.0900848 -0.00432985 0)
(0.0904957 -0.00405398 0)
(0.0908927 -0.00379541 0)
(0.0912759 -0.00355344 0)
(0.0916456 -0.00332732 0)
(0.0920022 -0.00311624 0)
(0.0923459 -0.0029194 0)
(0.092677 -0.00273595 0)
(0.092996 -0.00256508 0)
(0.0933031 -0.00240594 0)
(0.0935988 -0.00225773 0)
(0.0938834 -0.00211961 0)
(0.0941573 -0.00199076 0)
(0.0944208 -0.00187033 0)
(0.0946744 -0.00175746 0)
(0.0949182 -0.00165128 0)
(0.0951526 -0.00155093 0)
(0.095378 -0.00145558 0)
(0.0955944 -0.00136448 0)
(0.0958023 -0.00127705 0)
(0.0960017 -0.00119287 0)
(0.0961929 -0.0011118 0)
(0.096376 -0.00103394 0)
(0.0965512 -0.000959622 0)
(0.0967187 -0.000889355 0)
(0.0968787 -0.000823703 0)
(0.0970314 -0.000763166 0)
(0.0971771 -0.00070807 0)
(0.0973163 -0.000658483 0)
(0.0974491 -0.000614194 0)
(0.097576 -0.000574741 0)
(0.0976973 -0.000539488 0)
(0.0978135 -0.000507719 0)
(0.0979248 -0.000478737 0)
(0.0980315 -0.000451928 0)
(0.0981339 -0.00042681 0)
(0.0982321 -0.000403036 0)
(0.0983264 -0.00038038 0)
(0.0984169 -0.000358713 0)
(0.0985037 -0.00033797 0)
(0.098587 -0.000318122 0)
(0.0986669 -0.00029916 0)
(0.0987434 -0.00028108 0)
(0.0899908 -0.00506378 0)
(0.0903881 -0.00474768 0)
(0.0907733 -0.00445035 0)
(0.0911464 -0.0041712 0)
(0.0915076 -0.00390951 0)
(0.0918571 -0.0036645 0)
(0.092195 -0.00343536 0)
(0.0925216 -0.00322128 0)
(0.0928369 -0.0030214 0)
(0.0931414 -0.00283488 0)
(0.0934352 -0.00266088 0)
(0.0937185 -0.00249854 0)
(0.0939918 -0.00234701 0)
(0.0942551 -0.00220544 0)
(0.0945088 -0.00207295 0)
(0.0947532 -0.00194865 0)
(0.0949886 -0.00183164 0)
(0.0952151 -0.00172101 0)
(0.0954332 -0.00161591 0)
(0.0956429 -0.00151557 0)
(0.0958446 -0.00141934 0)
(0.0960385 -0.00132681 0)
(0.0962248 -0.00123778 0)
(0.0964037 -0.00115234 0)
(0.0965754 -0.00107081 0)
(0.09674 -0.000993686 0)
(0.0968978 -0.000921534 0)
(0.0970489 -0.000854853 0)
(0.0971934 -0.000793971 0)
(0.0973318 -0.000738957 0)
(0.0974641 -0.000689598 0)
(0.0975906 -0.000645425 0)
(0.0977116 -0.000605787 0)
(0.0978275 -0.000569949 0)
(0.0979384 -0.000537187 0)
(0.0980447 -0.000506862 0)
(0.0981465 -0.000478462 0)
(0.0982442 -0.000451616 0)
(0.0983379 -0.000426075 0)
(0.0984277 -0.000401692 0)
(0.0985139 -0.000378386 0)
(0.0985965 -0.000356116 0)
(0.0986758 -0.000334861 0)
(0.0987517 -0.000314611 0)
(0.0903406 -0.00547319 0)
(0.0907093 -0.00513752 0)
(0.091068 -0.0048213 0)
(0.0914166 -0.00452394 0)
(0.0917552 -0.0042447 0)
(0.0920838 -0.0039828 0)
(0.0924024 -0.00373743 0)
(0.0927112 -0.00350776 0)
(0.0930102 -0.00329294 0)
(0.0932995 -0.00309212 0)
(0.0935793 -0.00290443 0)
(0.0938497 -0.00272903 0)
(0.094111 -0.00256504 0)
(0.0943632 -0.00241159 0)
(0.0946066 -0.0022678 0)
(0.0948414 -0.00213276 0)
(0.0950678 -0.00200553 0)
(0.095286 -0.00188521 0)
(0.0954964 -0.00177092 0)
(0.095699 -0.00166185 0)
(0.0958942 -0.00155736 0)
(0.0960822 -0.00145698 0)
(0.0962632 -0.00136052 0)
(0.0964375 -0.00126801 0)
(0.0966052 -0.00117977 0)
(0.0967666 -0.00109626 0)
(0.0969217 -0.00101802 0)
(0.0970707 -0.000945544 0)
(0.0972137 -0.000879155 0)
(0.0973509 -0.000818922 0)
(0.0974822 -0.000764633 0)
(0.097608 -0.000715821 0)
(0.0977284 -0.000671832 0)
(0.0978437 -0.000631927 0)
(0.097954 -0.000595369 0)
(0.0980596 -0.000561503 0)
(0.0981608 -0.000529799 0)
(0.0982578 -0.000499864 0)
(0.0983507 -0.00047143 0)
(0.0984398 -0.00044433 0)
(0.0985253 -0.000418467 0)
(0.0986071 -0.000393785 0)
(0.0986856 -0.000370254 0)
(0.0987608 -0.000347853 0)
(0.0907077 -0.0058508 0)
(0.0910471 -0.00549851 0)
(0.0913786 -0.00516609 0)
(0.0917021 -0.00485296 0)
(0.0920175 -0.00455841 0)
(0.0923246 -0.00428165 0)
(0.0926233 -0.00402189 0)
(0.0929138 -0.0037783 0)
(0.0931958 -0.00355004 0)
(0.0934694 -0.00333627 0)
(0.0937347 -0.00313612 0)
(0.0939918 -0.00294874 0)
(0.0942405 -0.00277327 0)
(0.0944812 -0.00260883 0)
(0.0947139 -0.00245452 0)
(0.0949386 -0.00230944 0)
(0.0951557 -0.00217265 0)
(0.0953653 -0.00204323 0)
(0.0955675 -0.00192031 0)
(0.0957627 -0.00180307 0)
(0.095951 -0.00169084 0)
(0.0961328 -0.00158315 0)
(0.0963082 -0.00147977 0)
(0.0964776 -0.00138071 0)
(0.096641 -0.00128624 0)
(0.0967987 -0.0011968 0)
(0.0969508 -0.00111288 0)
(0.0970973 -0.00103497 0)
(0.0972383 -0.000963366 0)
(0.0973737 -0.000898138 0)
(0.0975038 -0.000839078 0)
(0.0976285 -0.00078573 0)
(0.0977479 -0.00073745 0)
(0.0978623 -0.000693503 0)
(0.0979717 -0.000653156 0)
(0.0980765 -0.000615747 0)
(0.0981768 -0.000580734 0)
(0.0982729 -0.000547707 0)
(0.098365 -0.000516382 0)
(0.0984532 -0.000486573 0)
(0.0985378 -0.000458166 0)
(0.0986188 -0.000431091 0)
(0.0986965 -0.000405303 0)
(0.0987709 -0.000380772 0)
(0.0910902 -0.0061959 0)
(0.0913998 -0.00582999 0)
(0.0917036 -0.00548411 0)
(0.0920015 -0.00515771 0)
(0.0922931 -0.0048501 0)
(0.0925782 -0.00456054 0)
(0.0928567 -0.00428825 0)
(0.0931283 -0.00403243 0)
(0.0933929 -0.00379226 0)
(0.0936505 -0.00356691 0)
(0.0939008 -0.00335554 0)
(0.094144 -0.00315731 0)
(0.0943799 -0.00297135 0)
(0.0946086 -0.00279681 0)
(0.0948301 -0.0026328 0)
(0.0950446 -0.00247841 0)
(0.095252 -0.00233273 0)
(0.0954526 -0.00219484 0)
(0.0956465 -0.00206387 0)
(0.0958339 -0.00193901 0)
(0.0960152 -0.00181959 0)
(0.0961904 -0.00170511 0)
(0.09636 -0.00159532 0)
(0.096524 -0.0014902 0)
(0.0966828 -0.00138998 0)
(0.0968365 -0.00129504 0)
(0.0969851 -0.00120586 0)
(0.0971286 -0.00112286 0)
(0.0972671 -0.00104634 0)
(0.0974005 -0.000976348 0)
(0.0975288 -0.000912697 0)
(0.097652 -0.000854939 0)
(0.0977701 -0.000802452 0)
(0.0978833 -0.000754519 0)
(0.0979916 -0.000710414 0)
(0.0980953 -0.000669481 0)
(0.0981945 -0.000631172 0)
(0.0982896 -0.000595068 0)
(0.0983806 -0.000560867 0)
(0.0984678 -0.000528367 0)
(0.0985514 -0.000497437 0)
(0.0986316 -0.000467991 0)
(0.0987083 -0.000439972 0)
(0.0987819 -0.000413336 0)
(0.0914858 -0.00650814 0)
(0.0917652 -0.00613159 0)
(0.0920412 -0.00577496 0)
(0.0923131 -0.00543776 0)
(0.0925807 -0.00511937 0)
(0.0928435 -0.00481906 0)
(0.0931013 -0.00453611 0)
(0.0933537 -0.00426976 0)
(0.0936006 -0.00401922 0)
(0.0938416 -0.00378369 0)
(0.0940767 -0.00356236 0)
(0.0943056 -0.0033544 0)
(0.0945283 -0.00315898 0)
(0.0947448 -0.00297526 0)
(0.0949549 -0.00280238 0)
(0.0951587 -0.00263945 0)
(0.0953562 -0.00248557 0)
(0.0955476 -0.00233985 0)
(0.095733 -0.00220142 0)
(0.0959125 -0.0020695 0)
(0.0960863 -0.00194342 0)
(0.0962549 -0.00182267 0)
(0.0964183 -0.00170697 0)
(0.0965768 -0.00159627 0)
(0.0967306 -0.00149075 0)
(0.0968798 -0.00139075 0)
(0.0970246 -0.00129668 0)
(0.0971648 -0.00120895 0)
(0.0973004 -0.0011278 0)
(0.0974313 -0.0010533 0)
(0.0975574 -0.00098525 0)
(0.0976787 -0.000923233 0)
(0.0977951 -0.000866649 0)
(0.0979067 -0.000814808 0)
(0.0980136 -0.000767003 0)
(0.098116 -0.000722588 0)
(0.0982139 -0.000681018 0)
(0.0983078 -0.000641865 0)
(0.0983976 -0.000604816 0)
(0.0984837 -0.000569654 0)
(0.0985663 -0.00053623 0)
(0.0986454 -0.000504444 0)
(0.0987212 -0.000474224 0)
(0.0987938 -0.000445513 0)
(0.0918918 -0.0067875 0)
(0.0921412 -0.00640319 0)
(0.0923892 -0.00603847 0)
(0.0926352 -0.00569292 0)
(0.0928786 -0.00536597 0)
(0.0931189 -0.00505695 0)
(0.0933558 -0.0047652 0)
(0.0935888 -0.00449001 0)
(0.0938176 -0.00423063 0)
(0.0940419 -0.00398632 0)
(0.0942614 -0.00375628 0)
(0.0944758 -0.00353975 0)
(0.0946851 -0.00333591 0)
(0.094889 -0.00314396 0)
(0.0950875 -0.00296306 0)
(0.0952804 -0.00279236 0)
(0.0954679 -0.00263099 0)
(0.0956498 -0.00247809 0)
(0.0958264 -0.00233282 0)
(0.0959978 -0.0021944 0)
(0.0961642 -0.00206219 0)
(0.0963258 -0.00193567 0)
(0.0964828 -0.00181454 0)
(0.0966355 -0.00169873 0)
(0.0967841 -0.00158835 0)
(0.0969286 -0.00148369 0)
(0.0970691 -0.00138511 0)
(0.0972055 -0.00129297 0)
(0.0973378 -0.0012075 0)
(0.0974658 -0.00112874 0)
(0.0975894 -0.0010565 0)
(0.0977084 -0.000990397 0)
(0.0978228 -0.000929851 0)
(0.0979325 -0.000874205 0)
(0.0980378 -0.000822782 0)
(0.0981385 -0.000774951 0)
(0.098235 -0.000730173 0)
(0.0983275 -0.000688018 0)
(0.098416 -0.000648163 0)
(0.0985009 -0.000610378 0)
(0.0985822 -0.000574499 0)
(0.0986602 -0.000540409 0)
(0.098735 -0.000508022 0)
(0.0988066 -0.000477272 0)
(0.0923053 -0.00703433 0)
(0.0925252 -0.00664501 0)
(0.0927456 -0.00627474 0)
(0.0929657 -0.00592319 0)
(0.093185 -0.00558983 0)
(0.0934029 -0.00527409 0)
(0.0936188 -0.00497536 0)
(0.0938323 -0.004693 0)
(0.0940429 -0.00442631 0)
(0.0942502 -0.00417459 0)
(0.0944539 -0.00393713 0)
(0.0946537 -0.00371317 0)
(0.0948493 -0.00350196 0)
(0.0950405 -0.00330273 0)
(0.0952271 -0.00311468 0)
(0.0954091 -0.002937 0)
(0.0955862 -0.00276886 0)
(0.0957587 -0.00260944 0)
(0.0959264 -0.00245794 0)
(0.0960895 -0.0023136 0)
(0.0962482 -0.00217578 0)
(0.0964027 -0.00204399 0)
(0.0965532 -0.0019179 0)
(0.0966999 -0.0017974 0)
(0.096843 -0.00168257 0)
(0.0969825 -0.00157364 0)
(0.0971184 -0.00147092 0)
(0.0972508 -0.00137471 0)
(0.0973794 -0.0012852 0)
(0.0975041 -0.00120244 0)
(0.0976247 -0.00112624 0)
(0.0977411 -0.00105623 0)
(0.0978531 -0.000991875 0)
(0.0979607 -0.000932554 0)
(0.098064 -0.000877616 0)
(0.098163 -0.000826455 0)
(0.0982578 -0.000778541 0)
(0.0983487 -0.000733446 0)
(0.0984358 -0.000690841 0)
(0.0985193 -0.000650483 0)
(0.0985993 -0.000612194 0)
(0.0986761 -0.000575844 0)
(0.0987497 -0.000541332 0)
(0.0988203 -0.000508581 0)
(0.0927236 -0.00724931 0)
(0.0929147 -0.00685754 0)
(0.0931079 -0.00648412 0)
(0.0933026 -0.00612879 0)
(0.093498 -0.00579109 0)
(0.0936936 -0.00547054 0)
(0.0938886 -0.00516659 0)
(0.0940826 -0.00487867 0)
(0.094275 -0.00460616 0)
(0.0944654 -0.00434841 0)
(0.0946532 -0.00410477 0)
(0.0948382 -0.00387453 0)
(0.0950201 -0.00365699 0)
(0.0951984 -0.00345144 0)
(0.0953731 -0.00325712 0)
(0.0955439 -0.00307326 0)
(0.0957107 -0.00289909 0)
(0.0958735 -0.00273382 0)
(0.0960322 -0.0025767 0)
(0.096187 -0.00242699 0)
(0.0963379 -0.0022841 0)
(0.0964852 -0.00214752 0)
(0.096629 -0.00201692 0)
(0.0967695 -0.00189216 0)
(0.0969068 -0.00177328 0)
(0.0970411 -0.00166045 0)
(0.0971722 -0.00155392 0)
(0.0973002 -0.00145395 0)
(0.0974248 -0.0013607 0)
(0.0975459 -0.00127419 0)
(0.0976633 -0.00119425 0)
(0.0977767 -0.00112054 0)
(0.097886 -0.00105255 0)
(0.0979912 -0.000989703 0)
(0.0980923 -0.000931376 0)
(0.0981892 -0.00087699 0)
(0.0982822 -0.00082603 0)
(0.0983714 -0.000778073 0)
(0.0984569 -0.000732785 0)
(0.0985389 -0.000689914 0)
(0.0986175 -0.00064927 0)
(0.098693 -0.00061071 0)
(0.0987654 -0.000574119 0)
(0.0988349 -0.000539408 0)
(0.0931438 -0.00743339 0)
(0.0933069 -0.00704155 0)
(0.0934738 -0.0066672 0)
(0.0936436 -0.00631015 0)
(0.0938157 -0.00597006 0)
(0.0939893 -0.0056465 0)
(0.0941637 -0.00533901 0)
(0.0943384 -0.0050471 0)
(0.0945127 -0.0047702 0)
(0.0946861 -0.00450776 0)
(0.0948582 -0.00425915 0)
(0.0950284 -0.00402377 0)
(0.0951964 -0.00380095 0)
(0.0953619 -0.00359002 0)
(0.0955245 -0.0033903 0)
(0.0956841 -0.00320107 0)
(0.0958405 -0.0030216 0)
(0.0959935 -0.00285116 0)
(0.0961432 -0.00268903 0)
(0.0962895 -0.00253453 0)
(0.0964326 -0.00238707 0)
(0.0965726 -0.00224617 0)
(0.0967096 -0.0021115 0)
(0.0968437 -0.00198289 0)
(0.0969752 -0.00186033 0)
(0.097104 -0.00174395 0)
(0.0972301 -0.00163394 0)
(0.0973534 -0.00153051 0)
(0.0974738 -0.0014338 0)
(0.097591 -0.00134381 0)
(0.0977048 -0.00126037 0)
(0.097815 -0.00118317 0)
(0.0979214 -0.00111173 0)
(0.0980239 -0.00104552 0)
(0.0981225 -0.000983943 0)
(0.0982173 -0.000926454 0)
(0.0983082 -0.000872553 0)
(0.0983955 -0.000821824 0)
(0.0984793 -0.000773933 0)
(0.0985597 -0.000728618 0)
(0.0986368 -0.000685682 0)
(0.0987109 -0.000644966 0)
(0.098782 -0.000606348 0)
(0.0988503 -0.000569725 0)
(0.0935633 -0.00758779 0)
(0.0936996 -0.00719801 0)
(0.0938411 -0.00682475 0)
(0.0939868 -0.00646792 0)
(0.0941362 -0.00612723 0)
(0.0942883 -0.00580235 0)
(0.0944426 -0.00549291 0)
(0.0945982 -0.00519847 0)
(0.0947547 -0.00491857 0)
(0.0949113 -0.00465271 0)
(0.0950676 -0.00440034 0)
(0.0952231 -0.0041609 0)
(0.0953774 -0.00393381 0)
(0.09553 -0.00371846 0)
(0.0956806 -0.00351421 0)
(0.0958289 -0.0033204 0)
(0.0959748 -0.00313636 0)
(0.0961181 -0.00296141 0)
(0.0962587 -0.00279489 0)
(0.0963965 -0.00263615 0)
(0.0965317 -0.00248464 0)
(0.0966643 -0.00233989 0)
(0.0967944 -0.00220158 0)
(0.0969222 -0.0020695 0)
(0.0970476 -0.00194362 0)
(0.0971708 -0.00182402 0)
(0.0972917 -0.00171084 0)
(0.0974101 -0.00160425 0)
(0.097526 -0.00150435 0)
(0.0976391 -0.00141113 0)
(0.0977491 -0.00132444 0)
(0.0978558 -0.00124396 0)
(0.097959 -0.00116928 0)
(0.0980587 -0.00109988 0)
(0.0981546 -0.00103521 0)
(0.098247 -0.000974753 0)
(0.0983358 -0.000918029 0)
(0.098421 -0.000864631 0)
(0.098503 -0.000814225 0)
(0.0985817 -0.000766545 0)
(0.0986572 -0.000721385 0)
(0.0987298 -0.000678577 0)
(0.0987996 -0.000637986 0)
(0.0988665 -0.000599502 0)
(0.0939797 -0.0077139 0)
(0.0940905 -0.00732809 0)
(0.0942076 -0.00695775 0)
(0.0943303 -0.00660286 0)
(0.0944577 -0.00626323 0)
(0.094589 -0.00593859 0)
(0.0947236 -0.00562866 0)
(0.0948606 -0.00533309 0)
(0.0949996 -0.00505149 0)
(0.0951397 -0.00478342 0)
(0.0952805 -0.00452843 0)
(0.0954214 -0.00428601 0)
(0.095562 -0.00405564 0)
(0.0957018 -0.00383677 0)
(0.0958405 -0.00362884 0)
(0.0959776 -0.00343124 0)