/*--------------------------------*- C++ -*----------------------------------*\
| =========                 |                                                 |
| \\      /  F ield         | OpenFOAM: The Open Source CFD Toolbox           |
|  \\    /   O peration     | Version:  2412                                  |
|   \\  /    A nd           | Website:  www.openfoam.com                      |
|    \\/     M anipulation  |                                                 |
\*---------------------------------------------------------------------------*/
FoamFile
{
    version     2.0;
    format      ascii;
    arch        "LSB;label=32;scalar=64";
    class       volVectorField;
    location    "9";
    object      U;
}
// * * * * * * * * * * * * * * * * * * * * * * * * * * * * * * * * * * * * * //

dimensions      [0 1 -1 0 0 0 0];

internalField   nonuniform List<vector> 
5285
(
(0.0992138 -0.00469927 0)
(0.0991655 -0.00455886 0)
(0.0991217 -0.00441952 0)
(0.0990822 -0.00428142 0)
(0.099359 -0.00464398 0)
(0.099307 -0.00450924 0)
(0.0992594 -0.00437528 0)
(0.099216 -0.00424227 0)
(0.0991768 -0.00411039 0)
(0.0991416 -0.00397981 0)
(0.0991105 -0.00385069 0)
(0.0990832 -0.00372317 0)
(0.0990596 -0.00359738 0)
(0.0990396 -0.00347343 0)
(0.0990231 -0.00335142 0)
(0.09901 -0.00323143 0)
(0.0990001 -0.00311353 0)
(0.0989933 -0.00299776 0)
(0.0989895 -0.0028842 0)
(0.0989885 -0.00277293 0)
(0.0989903 -0.00266404 0)
(0.0989947 -0.00255767 0)
(0.0990015 -0.00245394 0)
(0.0990106 -0.002353 0)
(0.0990218 -0.00225495 0)
(0.099035 -0.00215986 0)
(0.09905 -0.00206775 0)
(0.0990667 -0.00197862 0)
(0.0990848 -0.00189242 0)
(0.0991043 -0.00180907 0)
(0.099125 -0.00172851 0)
(0.0991467 -0.00165065 0)
(0.0991693 -0.00157543 0)
(0.0991927 -0.00150278 0)
(0.0992167 -0.00143265 0)
(0.0992413 -0.00136499 0)
(0.0992663 -0.00129974 0)
(0.0992916 -0.00123686 0)
(0.0993172 -0.00117628 0)
(0.0993429 -0.00111797 0)
(0.0993686 -0.00106186 0)
(0.0993943 -0.0010079 0)
(0.0994199 -0.000956042 0)
(0.0994454 -0.000906231 0)
(0.0994706 -0.000858411 0)
(0.0994955 -0.000812529 0)
(0.0995201 -0.000768532 0)
(0.0995443 -0.000726369 0)
(0.0994982 -0.00458508 0)
(0.0994429 -0.00445596 0)
(0.0993918 -0.00432736 0)
(0.0993449 -0.00419944 0)
(0.0993021 -0.00407238 0)
(0.0992634 -0.00394636 0)
(0.0992285 -0.00382153 0)
(0.0991975 -0.00369805 0)
(0.0991702 -0.00357605 0)
(0.0991465 -0.00345565 0)
(0.0991262 -0.00333695 0)
(0.0991094 -0.00322005 0)
(0.0990958 -0.00310502 0)
(0.0990853 -0.00299192 0)
(0.0990779 -0.00288082 0)
(0.0990734 -0.00277182 0)
(0.0990717 -0.00266502 0)
(0.0990726 -0.00256054 0)
(0.099076 -0.00245853 0)
(0.0990817 -0.00235912 0)
(0.0990897 -0.00226243 0)
(0.0990997 -0.00216854 0)
(0.0991117 -0.00207747 0)
(0.0991253 -0.00198923 0)
(0.0991406 -0.00190378 0)
(0.0991572 -0.00182105 0)
(0.0991752 -0.00174098 0)
(0.0991943 -0.00166351 0)
(0.0992144 -0.00158858 0)
(0.0992354 -0.00151613 0)
(0.0992571 -0.00144612 0)
(0.0992795 -0.00137849 0)
(0.0993024 -0.00131322 0)
(0.0993257 -0.00125025 0)
(0.0993494 -0.00118953 0)
(0.0993732 -0.00113103 0)
(0.0993972 -0.00107469 0)
(0.0994213 -0.00102047 0)
(0.0994453 -0.000968324 0)
(0.0994693 -0.000918193 0)
(0.0994931 -0.000870034 0)
(0.0995167 -0.000823795 0)
(0.09954 -0.000779427 0)
(0.099563 -0.000736881 0)
(0.0996312 -0.00452298 0)
(0.099573 -0.00439944 0)
(0.0995189 -0.00427615 0)
(0.0994689 -0.00415329 0)
(0.0994229 -0.00403105 0)
(0.0993809 -0.00390959 0)
(0.0993427 -0.00378907 0)
(0.0993082 -0.00366966 0)
(0.0992775 -0.00355149 0)
(0.0992503 -0.00343469 0)
(0.0992266 -0.00331938 0)
(0.0992063 -0.00320563 0)
(0.0991892 -0.00309355 0)
(0.0991753 -0.00298319 0)
(0.0991645 -0.00287465 0)
(0.0991566 -0.002768 0)
(0.0991515 -0.00266337 0)
(0.0991491 -0.00256089 0)
(0.0991492 -0.00246069 0)
(0.0991518 -0.00236292 0)
(0.0991567 -0.00226769 0)
(0.0991636 -0.00217509 0)
(0.0991726 -0.00208516 0)
(0.0991834 -0.00199791 0)
(0.0991958 -0.0019133 0)
(0.0992098 -0.00183128 0)
(0.0992251 -0.00175181 0)
(0.0992417 -0.00167482 0)
(0.0992593 -0.00160027 0)
(0.099278 -0.0015281 0)
(0.0992975 -0.00145829 0)
(0.0993177 -0.00139078 0)
(0.0993385 -0.00132556 0)
(0.0993599 -0.00126257 0)
(0.0993816 -0.00120179 0)
(0.0994037 -0.00114316 0)
(0.099426 -0.00108666 0)
(0.0994484 -0.00103224 0)
(0.0994709 -0.000979848 0)
(0.0994934 -0.00092945 0)
(0.0995157 -0.000880999 0)
(0.099538 -0.000834449 0)
(0.09956 -0.000789752 0)
(0.0995818 -0.000746864 0)
(0.0997584 -0.0044581 0)
(0.0996976 -0.00434004 0)
(0.0996409 -0.004222 0)
(0.0995881 -0.00410416 0)
(0.0995392 -0.0039867 0)
(0.0994941 -0.00386979 0)
(0.0994529 -0.0037536 0)
(0.0994153 -0.00363827 0)
(0.0993814 -0.00352396 0)
(0.099351 -0.0034108 0)
(0.0993241 -0.0032989 0)
(0.0993006 -0.00318837 0)
(0.0992803 -0.0030793 0)
(0.0992631 -0.00297175 0)
(0.0992491 -0.00286583 0)
(0.0992379 -0.00276163 0)
(0.0992297 -0.00265925 0)
(0.0992241 -0.00255884 0)
(0.0992212 -0.00246053 0)
(0.0992208 -0.00236448 0)
(0.0992226 -0.00227081 0)
(0.0992267 -0.00217959 0)
(0.0992328 -0.00209089 0)
(0.0992408 -0.00200472 0)
(0.0992505 -0.00192104 0)
(0.0992619 -0.00183983 0)
(0.0992747 -0.00176104 0)
(0.0992888 -0.00168462 0)
(0.0993041 -0.00161052 0)
(0.0993204 -0.00153873 0)
(0.0993377 -0.00146919 0)
(0.0993558 -0.00140188 0)
(0.0993746 -0.00133678 0)
(0.099394 -0.00127385 0)
(0.0994139 -0.00121306 0)
(0.0994342 -0.00115437 0)
(0.0994548 -0.00109776 0)
(0.0994756 -0.00104319 0)
(0.0994965 -0.00099062 0)
(0.0995175 -0.000940006 0)
(0.0995385 -0.000891311 0)
(0.0995594 -0.000844493 0)
(0.0995802 -0.00079951 0)
(0.0996008 -0.000756318 0)
(0.0998796 -0.00439082 0)
(0.0998167 -0.00427813 0)
(0.0997576 -0.00416527 0)
(0.0997023 -0.00405239 0)
(0.0996509 -0.00393967 0)
(0.0996032 -0.00382728 0)
(0.0995592 -0.00371538 0)
(0.0995188 -0.00360414 0)
(0.099482 -0.0034937 0)
(0.0994487 -0.0033842 0)
(0.0994188 -0.00327575 0)
(0.0993922 -0.00316847 0)
(0.0993689 -0.00306245 0)
(0.0993487 -0.00295777 0)
(0.0993316 -0.00285453 0)
(0.0993175 -0.00275283 0)
(0.0993063 -0.00265277 0)
(0.0992978 -0.00255451 0)
(0.0992919 -0.00245818 0)
(0.0992885 -0.00236393 0)
(0.0992876 -0.00227188 0)
(0.0992888 -0.00218214 0)
(0.0992922 -0.00209474 0)
(0.0992975 -0.00200973 0)
(0.0993047 -0.00192707 0)
(0.0993135 -0.00184675 0)
(0.0993238 -0.00176872 0)
(0.0993355 -0.00169294 0)
(0.0993485 -0.00161939 0)
(0.0993626 -0.00154804 0)
(0.0993778 -0.00147885 0)
(0.0993938 -0.00141181 0)
(0.0994106 -0.0013469 0)
(0.0994281 -0.00128409 0)
(0.0994462 -0.00122336 0)
(0.0994647 -0.00116468 0)
(0.0994837 -0.00110802 0)
(0.0995029 -0.00105335 0)
(0.0995223 -0.00100065 0)
(0.0995418 -0.000949866 0)
(0.0995614 -0.000900973 0)
(0.099581 -0.000853931 0)
(0.0996005 -0.000808702 0)
(0.0996199 -0.000765246 0)
(0.0999952 -0.00432147 0)
(0.0999303 -0.00421406 0)
(0.0998692 -0.00410627 0)
(0.0998118 -0.00399827 0)
(0.0997581 -0.00389023 0)
(0.099708 -0.00378231 0)
(0.0996615 -0.00367469 0)
(0.0996186 -0.00356752 0)
(0.0995791 -0.00346094 0)
(0.0995431 -0.0033551 0)
(0.0995105 -0.00325012 0)
(0.0994812 -0.00314612 0)
(0.0994551 -0.00304319 0)
(0.0994321 -0.00294142 0)
(0.0994122 -0.0028409 0)
(0.0993952 -0.00274175 0)
(0.0993811 -0.00264408 0)
(0.0993698 -0.00254802 0)
(0.0993612 -0.00245373 0)
(0.0993551 -0.00236134 0)
(0.0993514 -0.002271 0)
(0.09935 -0.0021828 0)
(0.0993508 -0.00209679 0)
(0.0993535 -0.00201301 0)
(0.0993581 -0.00193145 0)
(0.0993645 -0.00185209 0)
(0.0993724 -0.0017749 0)
(0.0993819 -0.00169985 0)
(0.0993926 -0.00162691 0)
(0.0994046 -0.00155607 0)
(0.0994176 -0.00148731 0)
(0.0994317 -0.0014206 0)
(0.0994466 -0.00135595 0)
(0.0994622 -0.00129332 0)
(0.0994785 -0.00123271 0)
(0.0994953 -0.00117409 0)
(0.0995126 -0.00111744 0)
(0.0995302 -0.00106273 0)
(0.0995481 -0.00100994 0)
(0.0995662 -0.000959037 0)
(0.0995844 -0.00090999 0)
(0.0996027 -0.000862766 0)
(0.0996209 -0.000817331 0)
(0.0996391 -0.000773648 0)
(0.100105 -0.00425039 0)
(0.100039 -0.00414813 0)
(0.0999758 -0.00404531 0)
(0.0999165 -0.0039421 0)
(0.0998608 -0.00383866 0)
(0.0998086 -0.00373517 0)
(0.0997599 -0.00363177 0)
(0.0997147 -0.00352863 0)
(0.0996729 -0.0034259 0)
(0.0996345 -0.00332372 0)
(0.0995993 -0.00322222 0)
(0.0995674 -0.0031215 0)
(0.0995387 -0.00302168 0)
(0.0995131 -0.00292284 0)
(0.0994906 -0.00282509 0)
(0.099471 -0.00272853 0)
(0.0994543 -0.00263329 0)
(0.0994403 -0.00253949 0)
(0.099429 -0.00244729 0)
(0.0994203 -0.00235684 0)
(0.0994141 -0.00226826 0)
(0.0994101 -0.00218167 0)
(0.0994084 -0.00209711 0)
(0.0994087 -0.00201464 0)
(0.0994109 -0.00193424 0)
(0.0994149 -0.00185592 0)
(0.0994206 -0.00177964 0)
(0.0994277 -0.00170538 0)
(0.0994363 -0.00163313 0)
(0.0994462 -0.00156287 0)
(0.0994572 -0.00149459 0)
(0.0994693 -0.00142828 0)
(0.0994823 -0.00136394 0)
(0.0994961 -0.00130156 0)
(0.0995106 -0.00124112 0)
(0.0995258 -0.00118262 0)
(0.0995414 -0.00112603 0)
(0.0995575 -0.00107133 0)
(0.0995739 -0.0010185 0)
(0.0995906 -0.000967525 0)
(0.0996074 -0.000918368 0)
(0.0996244 -0.000871003 0)
(0.0996414 -0.000825401 0)
(0.0996584 -0.000781528 0)
(0.100209 -0.00417789 0)
(0.100142 -0.00408064 0)
(0.100077 -0.00398268 0)
(0.100017 -0.00388416 0)
(0.0999592 -0.00378524 0)
(0.0999051 -0.00368609 0)
(0.0998545 -0.00358687 0)
(0.0998072 -0.00348772 0)
(0.0997632 -0.00338881 0)
(0.0997226 -0.00329026 0)
(0.0996852 -0.00319222 0)
(0.099651 -0.00309479 0)
(0.0996199 -0.00299809 0)
(0.0995918 -0.00290221 0)
(0.0995668 -0.00280725 0)
(0.0995448 -0.00271331 0)
(0.0995256 -0.00262053 0)
(0.0995091 -0.00252904 0)
(0.0994954 -0.00243898 0)
(0.0994842 -0.00235051 0)
(0.0994755 -0.00226375 0)
(0.0994691 -0.00217882 0)
(0.099465 -0.00209579 0)
(0.0994629 -0.00201468 0)
(0.0994629 -0.00193551 0)
(0.0994646 -0.00185829 0)
(0.0994681 -0.00178298 0)
(0.0994731 -0.00170958 0)
(0.0994796 -0.00163807 0)
(0.0994875 -0.00156845 0)
(0.0994965 -0.00150072 0)
(0.0995067 -0.00143488 0)
(0.0995178 -0.00137091 0)
(0.0995299 -0.00130883 0)
(0.0995427 -0.00124863 0)
(0.0995562 -0.00119029 0)
(0.0995702 -0.0011338 0)
(0.0995848 -0.00107916 0)
(0.0995997 -0.00102635 0)
(0.099615 -0.000975338 0)
(0.0996305 -0.000926113 0)
(0.0996462 -0.000878648 0)
(0.0996619 -0.000832915 0)
(0.0996778 -0.000788889 0)
(0.100309 -0.00410424 0)
(0.10024 -0.00401187 0)
(0.100174 -0.00391864 0)
(0.100112 -0.0038247 0)
(0.100053 -0.00373021 0)
(0.0999975 -0.00363533 0)
(0.0999452 -0.00354021 0)
(0.0998961 -0.003445 0)
(0.0998502 -0.00334986 0)
(0.0998075 -0.00325492 0)
(0.0997681 -0.00316032 0)
(0.0997317 -0.00306618 0)
(0.0996984 -0.00297259 0)
(0.0996682 -0.00287967 0)
(0.0996409 -0.00278751 0)
(0.0996165 -0.00269623 0)
(0.099595 -0.00260593 0)
(0.0995762 -0.00251678 0)
(0.0995601 -0.0024289 0)
(0.0995466 -0.00234245 0)
(0.0995356 -0.00225757 0)
(0.099527 -0.00217435 0)
(0.0995205 -0.00209288 0)
(0.0995163 -0.0020132 0)
(0.099514 -0.00193533 0)
(0.0995136 -0.00185925 0)
(0.0995149 -0.00178498 0)
(0.0995179 -0.00171249 0)
(0.0995224 -0.00164179 0)
(0.0995283 -0.00157288 0)
(0.0995354 -0.00150575 0)
(0.0995437 -0.00144042 0)
(0.0995531 -0.00137689 0)
(0.0995634 -0.00131516 0)
(0.0995745 -0.00125523 0)
(0.0995864 -0.00119711 0)
(0.0995989 -0.00114078 0)
(0.0996119 -0.00108625 0)
(0.0996254 -0.00103348 0)
(0.0996393 -0.000982486 0)
(0.0996535 -0.000933233 0)
(0.0996679 -0.000885705 0)
(0.0996825 -0.00083988 0)
(0.0996971 -0.000795733 0)
(0.100402 -0.00402971 0)
(0.100333 -0.00394207 0)
(0.100266 -0.00385343 0)
(0.100203 -0.00376396 0)
(0.100143 -0.00367379 0)
(0.100086 -0.00358309 0)
(0.100032 -0.003492 0)
(0.0999813 -0.00340067 0)
(0.0999338 -0.00330925 0)
(0.0998893 -0.00321789 0)
(0.099848 -0.0031267 0)
(0.0998097 -0.00303581 0)
(0.0997744 -0.00294534 0)
(0.0997421 -0.00285537 0)
(0.0997127 -0.00276602 0)
(0.0996862 -0.0026774 0)
(0.0996625 -0.00258962 0)
(0.0996416 -0.00250282 0)
(0.0996233 -0.00241715 0)
(0.0996076 -0.00233277 0)
(0.0995944 -0.00224979 0)
(0.0995836 -0.00216834 0)
(0.099575 -0.00208849 0)
(0.0995686 -0.00201028 0)
(0.0995642 -0.00193374 0)
(0.0995617 -0.00185888 0)
(0.0995611 -0.00178569 0)
(0.0995621 -0.00171418 0)
(0.0995646 -0.00164434 0)
(0.0995686 -0.00157617 0)
(0.0995739 -0.00150971 0)
(0.0995804 -0.00144494 0)
(0.0995881 -0.00138189 0)
(0.0995967 -0.00132056 0)
(0.0996062 -0.00126097 0)
(0.0996164 -0.00120311 0)
(0.0996274 -0.00114698 0)
(0.099639 -0.00109259 0)
(0.0996511 -0.00103993 0)
(0.0996636 -0.000988978 0)
(0.0996764 -0.000939735 0)
(0.0996896 -0.000892181 0)
(0.0997029 -0.000846299 0)
(0.0997164 -0.000802067 0)
(0.100491 -0.00395454 0)
(0.100421 -0.00387147 0)
(0.100354 -0.0037873 0)
(0.10029 -0.00370216 0)
(0.100228 -0.00361621 0)
(0.10017 -0.00352959 0)
(0.100115 -0.00344244 0)
(0.100063 -0.00335492 0)
(0.100014 -0.00326717 0)
(0.0999679 -0.00317933 0)
(0.0999249 -0.00309152 0)
(0.0998849 -0.00300386 0)
(0.0998478 -0.00291648 0)
(0.0998136 -0.00282946 0)
(0.0997823 -0.00274291 0)
(0.0997538 -0.00265695 0)
(0.0997281 -0.00257169 0)
(0.0997052 -0.00248727 0)
(0.0996848 -0.00240384 0)
(0.0996671 -0.00232155 0)
(0.0996518 -0.00224051 0)
(0.0996389 -0.00216086 0)
(0.0996283 -0.00208267 0)
(0.0996199 -0.00200598 0)
(0.0996135 -0.00193083 0)
(0.099609 -0.00185723 0)
(0.0996064 -0.00178517 0)
(0.0996055 -0.00171467 0)
(0.0996062 -0.00164574 0)
(0.0996084 -0.00157838 0)
(0.0996119 -0.00151262 0)
(0.0996167 -0.00144847 0)
(0.0996226 -0.00138594 0)
(0.0996296 -0.00132507 0)
(0.0996375 -0.00126584 0)
(0.0996462 -0.00120829 0)
(0.0996557 -0.00115241 0)
(0.0996658 -0.00109821 0)
(0.0996765 -0.00104568 0)
(0.0996877 -0.000994823 0)
(0.0996992 -0.000945628 0)
(0.0997111 -0.000898084 0)
(0.0997233 -0.000852178 0)
(0.0997356 -0.000807893 0)
(0.100575 -0.00387895 0)
(0.100505 -0.00380029 0)
(0.100437 -0.00372044 0)
(0.100372 -0.00363952 0)
(0.10031 -0.00355766 0)
(0.100251 -0.00347502 0)
(0.100195 -0.00339174 0)
(0.100141 -0.00330795 0)
(0.100091 -0.00322379 0)
(0.100043 -0.00313941 0)
(0.0999989 -0.00305493 0)
(0.0999573 -0.00297048 0)
(0.0999186 -0.00288615 0)
(0.0998827 -0.00280207 0)
(0.0998496 -0.00271831 0)
(0.0998193 -0.00263501 0)
(0.0997918 -0.00255228 0)
(0.0997669 -0.00247025 0)
(0.0997447 -0.00238907 0)
(0.099725 -0.00230888 0)
(0.0997078 -0.00222982 0)
(0.0996929 -0.002152 0)
(0.0996804 -0.0020755 0)
(0.09967 -0.00200037 0)
(0.0996618 -0.00192665 0)
(0.0996554 -0.00185434 0)
(0.099651 -0.00178347 0)
(0.0996482 -0.00171403 0)
(0.0996471 -0.00164605 0)
(0.0996476 -0.00157954 0)
(0.0996494 -0.00151453 0)
(0.0996525 -0.00145104 0)
(0.0996568 -0.00138908 0)
(0.0996621 -0.0013287 0)
(0.0996685 -0.00126989 0)
(0.0996757 -0.00121269 0)
(0.0996837 -0.00115709 0)
(0.0996924 -0.00110312 0)
(0.0997017 -0.00105076 0)
(0.0997116 -0.00100003 0)
(0.0997219 -0.00095092 0)
(0.0997326 -0.000903421 0)
(0.0997435 -0.000857525 0)
(0.0997547 -0.000813218 0)
(0.100654 -0.00380313 0)
(0.100584 -0.00372874 0)
(0.100515 -0.00365306 0)
(0.10045 -0.00357622 0)
(0.100387 -0.00349834 0)
(0.100327 -0.00341958 0)
(0.10027 -0.00334005 0)
(0.100216 -0.00325991 0)
(0.100165 -0.00317928 0)
(0.100116 -0.00309831 0)
(0.10007 -0.00301711 0)
(0.100027 -0.00293581 0)
(0.0999868 -0.00285451 0)
(0.0999494 -0.00277332 0)
(0.0999147 -0.00269235 0)
(0.0998827 -0.00261169 0)
(0.0998535 -0.00253148 0)
(0.0998268 -0.00245184 0)
(0.0998028 -0.00237292 0)
(0.0997813 -0.00229486 0)
(0.0997623 -0.0022178 0)
(0.0997456 -0.00214184 0)
(0.0997313 -0.00206706 0)
(0.0997191 -0.00199352 0)
(0.099709 -0.00192126 0)
(0.0997009 -0.00185029 0)
(0.0996947 -0.00178064 0)
(0.0996902 -0.0017123 0)
(0.0996874 -0.00164531 0)
(0.0996861 -0.00157969 0)
(0.0996863 -0.00151547 0)
(0.0996877 -0.00145267 0)
(0.0996904 -0.00139133 0)
(0.0996942 -0.00133148 0)
(0.0996991 -0.00127313 0)
(0.0997048 -0.00121631 0)
(0.0997114 -0.00116104 0)
(0.0997187 -0.00110733 0)
(0.0997267 -0.00105518 0)
(0.0997353 -0.00100462 0)
(0.0997443 -0.000955621 0)
(0.0997538 -0.000908199 0)
(0.0997636 -0.000862344 0)
(0.0997737 -0.000818047 0)
(0.100729 -0.00372727 0)
(0.100658 -0.00365699 0)
(0.10059 -0.00358533 0)
(0.100524 -0.00351244 0)
(0.100461 -0.00343842 0)
(0.1004 -0.00336342 0)
(0.100343 -0.00328756 0)
(0.100287 -0.00321097 0)
(0.100235 -0.00313379 0)
(0.100185 -0.00305615 0)
(0.100138 -0.00297818 0)
(0.100094 -0.00289998 0)
(0.100052 -0.00282168 0)
(0.100014 -0.00274336 0)
(0.0999775 -0.00266513 0)
(0.099944 -0.00258711 0)
(0.0999132 -0.00250941 0)
(0.099885 -0.00243216 0)
(0.0998593 -0.0023555 0)
(0.0998361 -0.00227958 0)
(0.0998154 -0.00220452 0)
(0.099797 -0.00213044 0)
(0.0997809 -0.00205741 0)
(0.099767 -0.0019855 0)
(0.0997552 -0.00191473 0)
(0.0997454 -0.00184513 0)
(0.0997375 -0.00177672 0)
(0.0997313 -0.00170953 0)
(0.0997269 -0.00164357 0)
(0.099724 -0.00157887 0)
(0.0997225 -0.00151547 0)
(0.0997224 -0.00145341 0)
(0.0997236 -0.00139272 0)
(0.0997259 -0.00133343 0)
(0.0997293 -0.00127557 0)
(0.0997336 -0.00121918 0)
(0.0997388 -0.00116427 0)
(0.0997447 -0.00111085 0)
(0.0997514 -0.00105896 0)
(0.0997587 -0.00100858 0)
(0.0997665 -0.000959739 0)
(0.0997747 -0.000912426 0)
(0.0997834 -0.000866643 0)
(0.0997924 -0.000822385 0)
(0.100799 -0.00365154 0)
(0.100729 -0.0035852 0)
(0.10066 -0.00351743 0)
(0.100594 -0.00344834 0)
(0.100531 -0.00337806 0)
(0.10047 -0.0033067 0)
(0.100412 -0.0032344 0)
(0.100356 -0.00316128 0)
(0.100302 -0.00308747 0)
(0.100252 -0.0030131 0)
(0.100204 -0.00293828 0)
(0.100158 -0.00286314 0)
(0.100116 -0.00278777 0)
(0.100076 -0.00271229 0)
(0.100038 -0.00263679 0)
(0.100003 -0.00256137 0)
(0.099971 -0.00248616 0)
(0.0999413 -0.00241129 0)
(0.0999141 -0.0023369 0)
(0.0998894 -0.00226311 0)
(0.099867 -0.00219008 0)
(0.099847 -0.00211788 0)
(0.0998293 -0.00204663 0)
(0.0998138 -0.00197635 0)
(0.0998004 -0.0019071 0)
(0.0997889 -0.00183891 0)
(0.0997794 -0.00177178 0)
(0.0997717 -0.00170575 0)
(0.0997656 -0.00164085 0)
(0.0997611 -0.00157711 0)
(0.0997582 -0.00151457 0)
(0.0997566 -0.00145327 0)
(0.0997562 -0.00139326 0)
(0.0997571 -0.00133458 0)
(0.099759 -0.00127725 0)
(0.0997619 -0.00122131 0)
(0.0997657 -0.00116679 0)
(0.0997704 -0.00111371 0)
(0.0997757 -0.00106209 0)
(0.0997818 -0.00101195 0)
(0.0997883 -0.000963283 0)
(0.0997954 -0.00091611 0)
(0.099803 -0.000870429 0)
(0.0998109 -0.000826237 0)
(0.100866 -0.00357609 0)
(0.100795 -0.00351353 0)
(0.100727 -0.00344949 0)
(0.100661 -0.00338408 0)
(0.100597 -0.0033174 0)
(0.100536 -0.00324958 0)
(0.100477 -0.00318073 0)
(0.100421 -0.00311098 0)
(0.100367 -0.00304045 0)
(0.100316 -0.00296927 0)
(0.100267 -0.00289754 0)
(0.10022 -0.00282539 0)
(0.100177 -0.00275292 0)
(0.100135 -0.00268023 0)
(0.100097 -0.00260741 0)
(0.100061 -0.00253457 0)
(0.100027 -0.00246184 0)
(0.099996 -0.00238933 0)
(0.0999673 -0.00231719 0)
(0.0999411 -0.00224555 0)
(0.0999173 -0.00217453 0)
(0.0998958 -0.00210424 0)
(0.0998766 -0.00203477 0)
(0.0998595 -0.00196615 0)
(0.0998445 -0.00189845 0)
(0.0998316 -0.00183167 0)
(0.0998205 -0.00176585 0)
(0.0998112 -0.00170101 0)
(0.0998036 -0.0016372 0)
(0.0997977 -0.00157444 0)
(0.0997932 -0.00151279 0)
(0.0997901 -0.00145229 0)
(0.0997883 -0.001393 0)
(0.0997877 -0.00133494 0)
(0.0997883 -0.00127817 0)
(0.0997898 -0.00122272 0)
(0.0997923 -0.00116862 0)
(0.0997956 -0.00111591 0)
(0.0997997 -0.0010646 0)
(0.0998045 -0.00101471 0)
(0.0998099 -0.000966262 0)
(0.0998159 -0.000919258 0)
(0.0998223 -0.000873707 0)
(0.0998291 -0.000829611 0)
(0.100928 -0.00350105 0)
(0.100858 -0.00344212 0)
(0.10079 -0.00338167 0)
(0.100724 -0.00331979 0)
(0.10066 -0.00325659 0)
(0.100599 -0.00319218 0)
(0.10054 -0.00312668 0)
(0.100483 -0.0030602 0)
(0.100429 -0.00299286 0)
(0.100377 -0.00292479 0)
(0.100327 -0.00285609 0)
(0.10028 -0.00278687 0)
(0.100235 -0.00271723 0)
(0.100193 -0.00264728 0)
(0.100153 -0.0025771 0)
(0.100116 -0.00250682 0)
(0.100081 -0.00243653 0)
(0.100049 -0.00236636 0)
(0.100019 -0.00229646 0)
(0.0999915 -0.00222695 0)
(0.0999662 -0.00215796 0)
(0.0999433 -0.00208958 0)
(0.0999227 -0.00202189 0)
(0.0999041 -0.00195496 0)
(0.0998877 -0.0018888 0)
(0.0998733 -0.00182347 0)
(0.0998607 -0.00175897 0)
(0.09985 -0.00169535 0)
(0.0998409 -0.00163265 0)
(0.0998335 -0.0015709 0)
(0.0998276 -0.00151017 0)
(0.0998231 -0.00145049 0)
(0.0998199 -0.00139194 0)
(0.0998179 -0.00133454 0)
(0.0998171 -0.00127836 0)
(0.0998173 -0.00122343 0)
(0.0998185 -0.00116979 0)
(0.0998205 -0.00111747 0)
(0.0998234 -0.00106649 0)
(0.099827 -0.00101689 0)
(0.0998312 -0.000968684 0)
(0.099836 -0.000921878 0)
(0.0998413 -0.000876484 0)
(0.099847 -0.00083251 0)
(0.100987 -0.00342655 0)
(0.100917 -0.00337109 0)
(0.10085 -0.00331407 0)
(0.100784 -0.00325559 0)
(0.10072 -0.00319574 0)
(0.100659 -0.00313462 0)
(0.1006 -0.00307236 0)
(0.100543 -0.00300905 0)
(0.100488 -0.00294482 0)
(0.100435 -0.00287977 0)
(0.100385 -0.00281401 0)
(0.100337 -0.00274766 0)
(0.100292 -0.0026808 0)
(0.100249 -0.00261354 0)
(0.100208 -0.00254597 0)
(0.10017 -0.00247819 0)
(0.100134 -0.00241031 0)
(0.1001 -0.00234247 0)
(0.100069 -0.00227479 0)
(0.10004 -0.0022074 0)
(0.100014 -0.00214042 0)
(0.0999897 -0.00207395 0)
(0.0999677 -0.00200806 0)
(0.0999478 -0.00194281 0)
(0.09993 -0.00187823 0)
(0.0999141 -0.00181434 0)
(0.0999002 -0.00175119 0)
(0.099888 -0.00168881 0)
(0.0998776 -0.00162723 0)
(0.0998687 -0.00156652 0)
(0.0998614 -0.00150672 0)
(0.0998555 -0.0014479 0)
(0.099851 -0.00139011 0)
(0.0998476 -0.0013334 0)
(0.0998455 -0.00127783 0)
(0.0998444 -0.00122345 0)
(0.0998443 -0.00117029 0)
(0.0998451 -0.00111839 0)
(0.0998467 -0.00106778 0)
(0.0998491 -0.0010185 0)
(0.0998521 -0.000970558 0)
(0.0998558 -0.000923976 0)
(0.09986 -0.000878768 0)
(0.0998647 -0.000834942 0)
(0.101042 -0.00335269 0)
(0.100973 -0.00330054 0)
(0.100906 -0.00324682 0)
(0.100841 -0.00319159 0)
(0.100778 -0.00313496 0)
(0.100716 -0.00307703 0)
(0.100657 -0.00301789 0)
(0.1006 -0.00295765 0)
(0.100545 -0.00289642 0)
(0.100492 -0.00283432 0)
(0.100441 -0.00277143 0)
(0.100393 -0.00270788 0)
(0.100346 -0.00264374 0)
(0.100303 -0.00257911 0)
(0.100261 -0.00251409 0)
(0.100222 -0.00244878 0)
(0.100185 -0.00238328 0)
(0.10015 -0.00231773 0)
(0.100118 -0.00225225 0)
(0.100088 -0.00218697 0)
(0.10006 -0.00212199 0)
(0.100035 -0.00205743 0)
(0.100012 -0.00199333 0)
(0.0999905 -0.00192976 0)
(0.0999714 -0.00186676 0)
(0.0999542 -0.00180434 0)
(0.0999389 -0.00174254 0)
(0.0999254 -0.0016814 0)
(0.0999136 -0.00162098 0)
(0.0999034 -0.00156132 0)
(0.0998947 -0.00150248 0)
(0.0998874 -0.00144453 0)
(0.0998815 -0.00138752 0)
(0.0998769 -0.00133153 0)
(0.0998734 -0.0012766 0)
(0.099871 -0.00122279 0)
(0.0998697 -0.00117014 0)
(0.0998693 -0.00111869 0)
(0.0998697 -0.00106848 0)
(0.0998709 -0.00101954 0)
(0.0998728 -0.000971891 0)
(0.0998754 -0.00092556 0)
(0.0998785 -0.000880563 0)
(0.0998822 -0.00083691 0)
(0.104811 -0.00903188 0)
(0.104392 -0.00895566 0)
(0.103991 -0.0088596 0)
(0.103609 -0.00874633 0)
(0.103247 -0.00861829 0)
(0.102903 -0.00847768 0)
(0.102578 -0.00832652 0)
(0.102273 -0.00816658 0)
(0.101985 -0.00799943 0)
(0.101716 -0.0078265 0)
(0.101464 -0.00764904 0)
(0.101229 -0.00746821 0)
(0.10101 -0.00728502 0)
(0.100807 -0.00710042 0)
(0.100619 -0.00691522 0)
(0.100445 -0.00673018 0)
(0.100284 -0.00654597 0)
(0.100136 -0.00636317 0)
(0.100001 -0.00618229 0)
(0.0998762 -0.00600379 0)
(0.0997624 -0.00582803 0)
(0.0996587 -0.00565535 0)
(0.0995643 -0.005486 0)
(0.0994786 -0.00532021 0)
(0.0994012 -0.00515815 0)
(0.0993313 -0.00499995 0)
(0.0992686 -0.00484571 0)
(0.104865 -0.00861479 0)
(0.104466 -0.00855548 0)
(0.104083 -0.00847692 0)
(0.103717 -0.00838155 0)
(0.103368 -0.0082716 0)
(0.103036 -0.00814915 0)
(0.102722 -0.00801603 0)
(0.102425 -0.00787391 0)
(0.102145 -0.00772425 0)
(0.101881 -0.00756838 0)
(0.101634 -0.0074075 0)
(0.101402 -0.00724269 0)
(0.101186 -0.00707493 0)
(0.100985 -0.00690511 0)
(0.100797 -0.00673406 0)
(0.100623 -0.0065625 0)
(0.100461 -0.00639108 0)
(0.100312 -0.00622041 0)
(0.100175 -0.006051 0)
(0.100048 -0.00588331 0)
(0.0999317 -0.00571773 0)
(0.0998251 -0.0055546 0)
(0.0997275 -0.00539421 0)
(0.0996385 -0.0052368 0)
(0.0995575 -0.00508257 0)
(0.099484 -0.00493168 0)
(0.0994175 -0.00478425 0)
(0.104904 -0.00821834 0)
(0.104524 -0.00817391 0)
(0.104158 -0.00811087 0)
(0.103808 -0.00803147 0)
(0.103472 -0.0079378 0)
(0.103153 -0.00783178 0)
(0.102849 -0.00771511 0)
(0.102561 -0.00758931 0)
(0.102288 -0.00745576 0)
(0.102031 -0.0073157 0)
(0.101788 -0.00717023 0)
(0.101561 -0.00702038 0)
(0.101347 -0.00686708 0)
(0.101148 -0.0067112 0)
(0.100962 -0.00655351 0)
(0.100788 -0.00639474 0)
(0.100627 -0.00623552 0)
(0.100477 -0.00607644 0)
(0.100338 -0.00591803 0)
(0.10021 -0.00576074 0)
(0.100091 -0.00560499 0)
(0.0999823 -0.00545112 0)
(0.0998822 -0.00529945 0)
(0.0997904 -0.00515022 0)
(0.0997064 -0.00500366 0)
(0.0996297 -0.00485995 0)
(0.0995599 -0.00471924 0)
(0.104929 -0.0078415 0)
(0.104568 -0.00781014 0)
(0.104219 -0.00776084 0)
(0.103883 -0.0076957 0)
(0.103561 -0.00761668 0)
(0.103253 -0.00752554 0)
(0.10296 -0.00742385 0)
(0.10268 -0.00731301 0)
(0.102415 -0.00719429 0)
(0.102165 -0.00706883 0)
(0.101928 -0.00693768 0)
(0.101705 -0.00680178 0)
(0.101495 -0.00666204 0)
(0.101298 -0.00651925 0)
(0.101113 -0.00637417 0)
(0.100941 -0.0062275 0)
(0.10078 -0.00607987 0)
(0.10063 -0.00593185 0)
(0.100491 -0.00578396 0)
(0.100361 -0.00563667 0)
(0.100241 -0.00549039 0)
(0.100131 -0.00534547 0)
(0.100028 -0.00520225 0)
(0.0999344 -0.00506099 0)
(0.0998478 -0.00492192 0)
(0.0997685 -0.00478524 0)
(0.0996959 -0.00465112 0)
(0.104943 -0.00748331 0)
(0.104599 -0.00746336 0)
(0.104266 -0.00742621 0)
(0.103945 -0.00737382 0)
(0.103636 -0.00730799 0)
(0.103339 -0.00723032 0)
(0.103056 -0.00714227 0)
(0.102786 -0.00704513 0)
(0.102529 -0.00694004 0)
(0.102285 -0.00682808 0)
(0.102054 -0.00671021 0)
(0.101835 -0.00658732 0)
(0.101629 -0.00646023 0)
(0.101435 -0.00632974 0)
(0.101253 -0.00619654 0)
(0.101082 -0.00606131 0)
(0.100922 -0.00592467 0)
(0.100773 -0.00578717 0)
(0.100633 -0.00564933 0)
(0.100503 -0.00551162 0)
(0.100383 -0.00537444 0)
(0.10027 -0.00523816 0)
(0.100167 -0.00510311 0)
(0.100071 -0.00496957 0)
(0.0999821 -0.00483779 0)
(0.0999005 -0.00470798 0)
(0.0998255 -0.00458032 0)
(0.104947 -0.00714286 0)
(0.104619 -0.00713285 0)
(0.104301 -0.00710645 0)
(0.103994 -0.00706543 0)
(0.103697 -0.00701145 0)
(0.103413 -0.00694598 0)
(0.103139 -0.00687034 0)
(0.102878 -0.00678572 0)
(0.102629 -0.00669318 0)
(0.102392 -0.00659368 0)
(0.102167 -0.00648811 0)
(0.101953 -0.00637732 0)
(0.101751 -0.00626206 0)
(0.101561 -0.00614308 0)
(0.101381 -0.00602105 0)
(0.101212 -0.00589663 0)
(0.101054 -0.00577039 0)
(0.100905 -0.00564289 0)
(0.100766 -0.00551463 0)
(0.100636 -0.00538606 0)
(0.100515 -0.00525761 0)
(0.100402 -0.00512964 0)
(0.100297 -0.00500247 0)
(0.1002 -0.00487641 0)
(0.100109 -0.00475171 0)
(0.100026 -0.00462859 0)
(0.0999489 -0.00450724 0)
(0.104941 -0.0068193 0)
(0.104629 -0.00681792 0)
(0.104326 -0.00680098 0)
(0.104032 -0.00677008 0)
(0.103748 -0.00672674 0)
(0.103474 -0.0066723 0)
(0.103211 -0.00660796 0)
(0.102958 -0.0065348 0)
(0.102717 -0.00645377 0)
(0.102487 -0.00636576 0)
(0.102268 -0.0062716 0)
(0.10206 -0.00617204 0)
(0.101862 -0.00606782 0)
(0.101676 -0.00595962 0)
(0.101499 -0.00584809 0)
(0.101332 -0.00573384 0)
(0.101176 -0.00561744 0)
(0.101028 -0.00549941 0)
(0.10089 -0.00538026 0)
(0.10076 -0.00526043 0)
(0.100639 -0.00514033 0)
(0.100526 -0.00502033 0)
(0.10042 -0.00490076 0)
(0.100321 -0.00478192 0)
(0.10023 -0.00466407 0)
(0.100145 -0.00454744 0)
(0.100066 -0.00443223 0)
(0.104927 -0.00651176 0)
(0.10463 -0.00651786 0)
(0.104341 -0.00650922 0)
(0.10406 -0.00648732 0)
(0.103787 -0.00645353 0)
(0.103524 -0.00640906 0)
(0.103271 -0.006355 0)
(0.103028 -0.0062923 0)
(0.102794 -0.00622185 0)
(0.102571 -0.00614444 0)
(0.102358 -0.00606083 0)
(0.102156 -0.00597172 0)
(0.101963 -0.00587778 0)
(0.10178 -0.00577966 0)
(0.101607 -0.00567797 0)
(0.101443 -0.00557329 0)
(0.101288 -0.00546617 0)
(0.101142 -0.00535712 0)
(0.101005 -0.00524662 0)
(0.100876 -0.0051351 0)
(0.100755 -0.00502298 0)
(0.100641 -0.00491061 0)
(0.100535 -0.00479834 0)
(0.100436 -0.00468645 0)
(0.100344 -0.00457522 0)
(0.100258 -0.00446488 0)
(0.100178 -0.00435564 0)
(0.104905 -0.00621941 0)
(0.104623 -0.00623195 0)
(0.104347 -0.0062306 0)
(0.104078 -0.0062167 0)
(0.103817 -0.00619147 0)
(0.103565 -0.00615601 0)
(0.103321 -0.00611129 0)
(0.103086 -0.00605816 0)
(0.102861 -0.00599741 0)
(0.102645 -0.00592977 0)
(0.102438 -0.00585592 0)
(0.102241 -0.00577649 0)
(0.102053 -0.00569213 0)
(0.101874 -0.00560342 0)
(0.101705 -0.00551095 0)
(0.101544 -0.00541527 0)
(0.101391 -0.0053169 0)
(0.101247 -0.00521633 0)
(0.101112 -0.00511402 0)
(0.100984 -0.00501041 0)
(0.100863 -0.0049059 0)
(0.10075 -0.00480083 0)
(0.100644 -0.00469555 0)
(0.100544 -0.00459035 0)
(0.100451 -0.0044855 0)
(0.100364 -0.00438124 0)
(0.100283 -0.00427778 0)
(0.104877 -0.00594144 0)
(0.104609 -0.00595951 0)
(0.104345 -0.00596455 0)
(0.104089 -0.00595774 0)
(0.103839 -0.0059402 0)
(0.103596 -0.00591288 0)
(0.103362 -0.00587665 0)
(0.103136 -0.00583226 0)
(0.102918 -0.00578042 0)
(0.102709 -0.00572178 0)
(0.102509 -0.00565694 0)
(0.102317 -0.0055865 0)
(0.102134 -0.00551104 0)
(0.10196 -0.00543111 0)
(0.101794 -0.00534727 0)
(0.101636 -0.00526002 0)
(0.101486 -0.00516988 0)
(0.101345 -0.00507732 0)
(0.10121 -0.00498277 0)
(0.101084 -0.00488667 0)
(0.100964 -0.00478939 0)
(0.100851 -0.00469129 0)
(0.100745 -0.0045927 0)
(0.100646 -0.00449391 0)
(0.100553 -0.0043952 0)
(0.100465 -0.0042968 0)
(0.100383 -0.00419894 0)
(0.104844 -0.00567709 0)
(0.104588 -0.0056999 0)
(0.104337 -0.00571052 0)
(0.104091 -0.00571002 0)
(0.103852 -0.00569937 0)
(0.10362 -0.00567941 0)
(0.103395 -0.0056509 0)
(0.103177 -0.0056145 0)
(0.102967 -0.00557082 0)
(0.102765 -0.00552045 0)
(0.102571 -0.00546394 0)
(0.102385 -0.00540182 0)
(0.102207 -0.00533463 0)
(0.102037 -0.00526288 0)
(0.101875 -0.0051871 0)
(0.10172 -0.00510776 0)
(0.101573 -0.00502536 0)
(0.101434 -0.00494033 0)
(0.101302 -0.00485312 0)
(0.101176 -0.00476412 0)
(0.101058 -0.00467372 0)
(0.100946 -0.00458226 0)
(0.100841 -0.00449006 0)
(0.100741 -0.00439742 0)
(0.100648 -0.0043046 0)
(0.10056 -0.00421185 0)
(0.100478 -0.00411939 0)
(0.104804 -0.00542567 0)
(0.104561 -0.00545252 0)
(0.104321 -0.00546803 0)
(0.104087 -0.00547312 0)