/*--------------------------------*- C++ -*----------------------------------*\
| =========                 |                                                 |
| \\      /  F ield         | OpenFOAM: The Open Source CFD Toolbox           |
|  \\    /   O peration     | Version:  2412                                  |
|   \\  /    A nd           | Website:  www.openfoam.com                      |
|    \\/     M anipulation  |                                                 |
\*---------------------------------------------------------------------------*/
FoamFile
{
    version     2.0;
    format      ascii;
    arch        "LSB;label=32;scalar=64";
    class       volVectorField;
    location    "9";
    object      vorticity;
}
// * * * * * * * * * * * * * * * * * * * * * * * * * * * * * * * * * * * * * //

dimensions      [0 0 -1 0 0 0 0];

internalField   nonuniform List<vector> 
5285
(
(0 -0 -6.21196e-08)
(0 -0 -2.93125e-08)
(0 -0 6.95648e-09)
(0 -0 -7.30189e-08)
(0 -0 -2.57728e-07)
(0 -0 -1.51405e-07)
(0 -0 -6.79635e-08)
(0 -0 -4.13507e-08)
(0 -0 -2.20895e-07)
(0 -0 -5.38382e-07)
(0 -0 -8.8098e-07)
(0 -0 -1.17193e-06)
(0 -0 -1.26026e-06)
(0 -0 -1.066e-06)
(0 -0 -4.52334e-07)
(0 -0 6.75408e-07)
(0 -0 2.31106e-06)
(0 -0 4.3039e-06)
(0 -0 6.35122e-06)
(0 -0 8.04378e-06)
(0 -0 8.9614e-06)
(0 -0 8.7916e-06)
(0 -0 7.42872e-06)
(0 -0 5.01449e-06)
(0 -0 1.90225e-06)
(0 -0 -1.44051e-06)
(0 -0 -4.55351e-06)
(0 -0 -7.08608e-06)
(0 -0 -8.85101e-06)
(0 -0 -9.82398e-06)
(0 -0 -1.01027e-05)
(0 -0 -9.85017e-06)
(0 -0 -9.24245e-06)
(0 -0 -8.43399e-06)
(0 -0 -7.54167e-06)
(0 -0 -6.6436e-06)
(0 -0 -5.78598e-06)
(0 -0 -4.99252e-06)
(0 -0 -4.2727e-06)
(0 -0 -3.62813e-06)
(0 -0 -3.05621e-06)
(0 -0 -2.55225e-06)
(0 -0 -2.11073e-06)
(0 -0 -1.72572e-06)
(0 -0 -1.39152e-06)
(0 -0 -1.10286e-06)
(0 -0 -8.52717e-07)
(0 -0 -6.57477e-07)
(0 -0 -2.06586e-07)
(0 -0 -1.29571e-07)
(0 -0 -4.75373e-08)
(0 -0 -4.98495e-08)
(0 -0 -1.69754e-07)
(0 -0 -4.55113e-07)
(0 -0 -7.83006e-07)
(0 -0 -1.0191e-06)
(0 -0 -1.12168e-06)
(0 -0 -9.6866e-07)
(0 -0 -4.2577e-07)
(0 -0 6.02789e-07)
(0 -0 2.11914e-06)
(0 -0 3.98756e-06)
(0 -0 5.92478e-06)
(0 -0 7.5413e-06)
(0 -0 8.4322e-06)
(0 -0 8.29165e-06)
(0 -0 7.01011e-06)
(0 -0 4.71582e-06)
(0 -0 1.74289e-06)
(0 -0 -1.4611e-06)
(0 -0 -4.45231e-06)
(0 -0 -6.89034e-06)
(0 -0 -8.5914e-06)
(0 -0 -9.52901e-06)
(0 -0 -9.79556e-06)
(0 -0 -9.54732e-06)
(0 -0 -8.95422e-06)
(0 -0 -8.16565e-06)
(0 -0 -7.295e-06)
(0 -0 -6.41818e-06)
(0 -0 -5.5803e-06)
(0 -0 -4.80462e-06)
(0 -0 -4.10067e-06)
(0 -0 -3.47027e-06)
(0 -0 -2.9111e-06)
(0 -0 -2.41872e-06)
(0 -0 -1.98774e-06)
(0 -0 -1.61235e-06)
(0 -0 -1.28696e-06)
(0 -0 -1.00644e-06)
(0 -0 -7.63537e-07)
(0 -0 -5.74197e-07)
(0 -0 -4.35167e-08)
(0 -0 -2.18452e-08)
(0 -0 1.00208e-08)
(0 -0 -1.30884e-08)
(0 -0 -1.75548e-07)
(0 -0 -4.33329e-07)
(0 -0 -7.20674e-07)
(0 -0 -9.84383e-07)
(0 -0 -1.1365e-06)
(0 -0 -1.05532e-06)
(0 -0 -6.09683e-07)
(0 -0 2.97639e-07)
(0 -0 1.67671e-06)
(0 -0 3.40632e-06)
(0 -0 5.22211e-06)
(0 -0 6.75408e-06)
(0 -0 7.61241e-06)
(0 -0 7.49781e-06)
(0 -0 6.29678e-06)
(0 -0 4.12407e-06)
(0 -0 1.29445e-06)
(0 -0 -1.76485e-06)
(0 -0 -4.62682e-06)
(0 -0 -6.96157e-06)
(0 -0 -8.58912e-06)
(0 -0 -9.48127e-06)
(0 -0 -9.72517e-06)
(0 -0 -9.47065e-06)
(0 -0 -8.88152e-06)
(0 -0 -8.10228e-06)
(0 -0 -7.24288e-06)
(0 -0 -6.37716e-06)
(0 -0 -5.54914e-06)
(0 -0 -4.78172e-06)
(0 -0 -4.08447e-06)
(0 -0 -3.4594e-06)
(0 -0 -2.90441e-06)
(0 -0 -2.41532e-06)
(0 -0 -1.98689e-06)
(0 -0 -1.61348e-06)
(0 -0 -1.28955e-06)
(0 -0 -1.01008e-06)
(0 -0 -7.6738e-07)
(0 -0 -5.7741e-07)
(0 -0 1.8421e-07)
(0 -0 1.65126e-07)
(0 -0 1.57054e-07)
(0 -0 9.09843e-08)
(0 -0 -8.32133e-08)
(0 -0 -3.45167e-07)
(0 -0 -6.53904e-07)
(0 -0 -9.5839e-07)
(0 -0 -1.17183e-06)
(0 -0 -1.17553e-06)
(0 -0 -8.40228e-07)
(0 -0 -6.65341e-08)
(0 -0 1.16384e-06)
(0 -0 2.7442e-06)
(0 -0 4.4291e-06)
(0 -0 5.86807e-06)
(0 -0 6.68654e-06)
(0 -0 6.59194e-06)
(0 -0 5.46696e-06)
(0 -0 3.41295e-06)
(0 -0 7.25354e-07)
(0 -0 -2.18908e-06)
(0 -0 -4.92034e-06)
(0 -0 -7.14936e-06)
(0 -0 -8.70022e-06)
(0 -0 -9.54313e-06)
(0 -0 -9.76022e-06)
(0 -0 -9.49497e-06)
(0 -0 -8.90512e-06)
(0 -0 -8.13037e-06)
(0 -0 -7.27731e-06)
(0 -0 -6.41778e-06)
(0 -0 -5.59478e-06)
(0 -0 -4.83085e-06)
(0 -0 -4.13561e-06)
(0 -0 -3.51125e-06)
(0 -0 -2.9559e-06)
(0 -0 -2.46559e-06)
(0 -0 -2.03526e-06)
(0 -0 -1.65943e-06)
(0 -0 -1.33265e-06)
(0 -0 -1.05002e-06)
(0 -0 -8.03484e-07)
(0 -0 -6.13783e-07)
(0 -0 5.2557e-07)
(0 -0 4.82838e-07)
(0 -0 4.51339e-07)
(0 -0 3.62606e-07)
(0 -0 1.70309e-07)
(0 -0 -1.07047e-07)
(0 -0 -4.38623e-07)
(0 -0 -7.80336e-07)
(0 -0 -1.05098e-06)
(0 -0 -1.13646e-06)
(0 -0 -9.09803e-07)
(0 -0 -2.69411e-07)
(0 -0 8.11301e-07)
(0 -0 2.24021e-06)
(0 -0 3.79096e-06)
(0 -0 5.13277e-06)
(0 -0 5.90659e-06)
(0 -0 5.82688e-06)
(0 -0 4.77285e-06)
(0 -0 2.83273e-06)
(0 -0 2.8273e-07)
(0 -0 -2.49076e-06)
(0 -0 -5.09482e-06)
(0 -0 -7.22131e-06)
(0 -0 -8.69842e-06)
(0 -0 -9.4949e-06)
(0 -0 -9.68787e-06)
(0 -0 -9.41446e-06)
(0 -0 -8.82639e-06)
(0 -0 -8.05855e-06)
(0 -0 -7.2142e-06)
(0 -0 -6.36317e-06)
(0 -0 -5.54747e-06)
(0 -0 -4.78928e-06)
(0 -0 -4.09822e-06)
(0 -0 -3.47661e-06)
(0 -0 -2.92277e-06)
(0 -0 -2.43293e-06)
(0 -0 -2.00221e-06)
(0 -0 -1.62531e-06)
(0 -0 -1.29688e-06)
(0 -0 -1.01214e-06)
(0 -0 -7.62806e-07)
(0 -0 -5.72861e-07)
(0 -0 1.05613e-06)
(0 -0 1.00061e-06)
(0 -0 9.56369e-07)
(0 -0 8.5604e-07)
(0 -0 6.53568e-07)
(0 -0 3.64811e-07)
(0 -0 1.51867e-08)
(0 -0 -3.57424e-07)
(0 -0 -6.78189e-07)
(0 -0 -8.38485e-07)
(0 -0 -7.14109e-07)
(0 -0 -2.01612e-07)
(0 -0 7.33657e-07)
(0 -0 2.01406e-06)
(0 -0 3.43227e-06)
(0 -0 4.67728e-06)
(0 -0 5.40572e-06)
(0 -0 5.33937e-06)
(0 -0 4.35424e-06)
(0 -0 2.52574e-06)
(0 -0 1.11131e-07)
(0 -0 -2.5235e-06)
(0 -0 -5.00228e-06)
(0 -0 -7.02804e-06)
(0 -0 -8.4332e-06)
(0 -0 -9.18509e-06)
(0 -0 -9.35587e-06)
(0 -0 -9.0764e-06)
(0 -0 -8.49237e-06)
(0 -0 -7.73391e-06)
(0 -0 -6.90096e-06)
(0 -0 -6.06136e-06)
(0 -0 -5.25611e-06)
(0 -0 -4.50698e-06)
(0 -0 -3.82352e-06)
(0 -0 -3.20815e-06)
(0 -0 -2.65934e-06)
(0 -0 -2.17346e-06)
(0 -0 -1.74582e-06)
(0 -0 -1.37125e-06)
(0 -0 -1.04455e-06)
(0 -0 -7.61017e-07)
(0 -0 -5.1225e-07)
(0 -0 -3.24206e-07)
(0 -0 1.85477e-06)
(0 -0 1.79208e-06)
(0 -0 1.7406e-06)
(0 -0 1.63422e-06)
(0 -0 1.42635e-06)
(0 -0 1.12969e-06)
(0 -0 7.65215e-07)
(0 -0 3.6528e-07)
(0 -0 -1.55318e-09)
(0 -0 -2.32291e-07)
(0 -0 -2.05826e-07)
(0 -0 1.82812e-07)
(0 -0 9.76053e-07)
(0 -0 2.11046e-06)
(0 -0 3.39753e-06)
(0 -0 4.54594e-06)
(0 -0 5.22805e-06)
(0 -0 5.17321e-06)
(0 -0 4.25461e-06)
(0 -0 2.53523e-06)
(0 -0 2.53695e-07)
(0 -0 -2.24395e-06)
(0 -0 -4.59877e-06)
(0 -0 -6.5246e-06)
(0 -0 -7.85817e-06)
(0 -0 -8.56555e-06)
(0 -0 -8.71411e-06)
(0 -0 -8.42856e-06)
(0 -0 -7.84871e-06)
(0 -0 -7.1e-06)
(0 -0 -6.27912e-06)
(0 -0 -5.45192e-06)
(0 -0 -4.65838e-06)
(0 -0 -3.91984e-06)
(0 -0 -3.24575e-06)
(0 -0 -2.63854e-06)
(0 -0 -2.09679e-06)
(0 -0 -1.61701e-06)
(0 -0 -1.19465e-06)
(0 -0 -8.24699e-07)
(0 -0 -5.0205e-07)
(0 -0 -2.22122e-07)
(0 -0 2.3578e-08)
(0 -0 2.07932e-07)
(0 -0 2.987e-06)
(0 -0 2.91928e-06)
(0 -0 2.86275e-06)
(0 -0 2.75262e-06)
(0 -0 2.54158e-06)
(0 -0 2.23897e-06)
(0 -0 1.86155e-06)
(0 -0 1.43646e-06)
(0 -0 1.0262e-06)
(0 -0 7.28163e-07)
(0 -0 6.60223e-07)
(0 -0 9.2864e-07)
(0 -0 1.58325e-06)
(0 -0 2.57439e-06)
(0 -0 3.73197e-06)
(0 -0 4.78414e-06)
(0 -0 5.41896e-06)
(0 -0 5.37358e-06)
(0 -0 4.51881e-06)
(0 -0 2.90578e-06)
(0 -0 7.55046e-07)
(0 -0 -1.60695e-06)
(0 -0 -3.838e-06)
(0 -0 -5.66291e-06)
(0 -0 -6.92291e-06)
(0 -0 -7.58307e-06)
(0 -0 -7.7063e-06)
(0 -0 -7.41145e-06)
(0 -0 -6.83273e-06)
(0 -0 -6.09101e-06)
(0 -0 -5.27985e-06)
(0 -0 -4.46319e-06)
(0 -0 -3.67996e-06)
(0 -0 -2.95107e-06)
(0 -0 -2.28577e-06)
(0 -0 -1.6865e-06)
(0 -0 -1.15188e-06)
(0 -0 -6.78537e-07)
(0 -0 -2.62036e-07)
(0 -0 1.02512e-07)
(0 -0 4.20093e-07)
(0 -0 6.95203e-07)
(0 -0 9.36389e-07)
(0 -0 1.11586e-06)
(0 -0 4.48403e-06)
(0 -0 4.41148e-06)
(0 -0 4.3503e-06)
(0 -0 4.23702e-06)
(0 -0 4.02357e-06)
(0 -0 3.716e-06)
(0 -0 3.32694e-06)
(0 -0 2.8785e-06)
(0 -0 2.42731e-06)
(0 -0 2.06527e-06)
(0 -0 1.90698e-06)
(0 -0 2.05973e-06)
(0 -0 2.58026e-06)
(0 -0 3.4321e-06)
(0 -0 4.46301e-06)
(0 -0 5.42013e-06)
(0 -0 6.00714e-06)
(0 -0 5.96922e-06)
(0 -0 5.17548e-06)
(0 -0 3.66605e-06)
(0 -0 1.64431e-06)
(0 -0 -5.82187e-07)
(0 -0 -2.68756e-06)
(0 -0 -4.40758e-06)
(0 -0 -5.58825e-06)
(0 -0 -6.19414e-06)
(0 -0 -6.28425e-06)
(0 -0 -5.9721e-06)
(0 -0 -5.38666e-06)
(0 -0 -4.6446e-06)
(0 -0 -3.83647e-06)
(0 -0 -3.02439e-06)
(0 -0 -2.2463e-06)
(0 -0 -1.52258e-06)
(0 -0 -8.62308e-07)
(0 -0 -2.67818e-07)
(0 -0 2.62256e-07)
(0 -0 7.3126e-07)
(0 -0 1.14353e-06)
(0 -0 1.50383e-06)
(0 -0 1.81706e-06)
(0 -0 2.08765e-06)
(0 -0 2.32421e-06)
(0 -0 2.49857e-06)
(0 -0 6.31826e-06)
(0 -0 6.24012e-06)
(0 -0 6.17388e-06)
(0 -0 6.05729e-06)
(0 -0 5.84167e-06)
(0 -0 5.52988e-06)
(0 -0 5.13057e-06)
(0 -0 4.66105e-06)
(0 -0 4.17231e-06)
(0 -0 3.75091e-06)
(0 -0 3.50812e-06)
(0 -0 3.55189e-06)
(0 -0 3.94529e-06)
(0 -0 4.66421e-06)
(0 -0 5.57339e-06)
(0 -0 6.43826e-06)
(0 -0 6.9779e-06)
(0 -0 6.94594e-06)
(0 -0 6.21069e-06)
(0 -0 4.8026e-06)
(0 -0 2.90922e-06)
(0 -0 8.20289e-07)
(0 -0 -1.15409e-06)
(0 -0 -2.76063e-06)
(0 -0 -3.85058e-06)
(0 -0 -4.38879e-06)
(0 -0 -4.43123e-06)
(0 -0 -4.08686e-06)
(0 -0 -3.48011e-06)
(0 -0 -2.72384e-06)
(0 -0 -1.90592e-06)
(0 -0 -1.08677e-06)
(0 -0 -3.03341e-07)
(0 -0 4.24484e-07)
(0 -0 1.08793e-06)
(0 -0 1.68483e-06)
(0 -0 2.21662e-06)
(0 -0 2.68668e-06)
(0 -0 3.09928e-06)
(0 -0 3.45912e-06)
(0 -0 3.77105e-06)
(0 -0 4.03948e-06)
(0 -0 4.27309e-06)
(0 -0 4.44351e-06)
(0 -0 8.37975e-06)
(0 -0 8.29488e-06)
(0 -0 8.22287e-06)
(0 -0 8.10268e-06)
(0 -0 7.88513e-06)
(0 -0 7.57012e-06)
(0 -0 7.16257e-06)
(0 -0 6.67532e-06)
(0 -0 6.154e-06)
(0 -0 5.68003e-06)
(0 -0 5.36128e-06)
(0 -0 5.30597e-06)
(0 -0 5.58268e-06)
(0 -0 6.17846e-06)
(0 -0 6.9738e-06)
(0 -0 7.75154e-06)
(0 -0 8.24583e-06)
(0 -0 8.21927e-06)
(0 -0 7.54075e-06)
(0 -0 6.23287e-06)
(0 -0 4.46926e-06)
(0 -0 2.52333e-06)
(0 -0 6.90212e-07)
(0 -0 -7.87796e-07)
(0 -0 -1.76792e-06)
(0 -0 -2.21642e-06)
(0 -0 -2.18751e-06)
(0 -0 -1.78682e-06)
(0 -0 -1.13512e-06)
(0 -0 -3.4217e-07)
(0 -0 5.06458e-07)
(0 -0 1.35187e-06)
(0 -0 2.15801e-06)
(0 -0 2.9056e-06)
(0 -0 3.58623e-06)
(0 -0 4.19801e-06)
(0 -0 4.74256e-06)
(0 -0 5.22336e-06)
(0 -0 5.64471e-06)
(0 -0 6.01133e-06)
(0 -0 6.32807e-06)
(0 -0 6.59938e-06)
(0 -0 6.83409e-06)
(0 -0 7.00374e-06)
(0 -0 1.04616e-05)
(0 -0 1.03688e-05)
(0 -0 1.02903e-05)
(0 -0 1.01664e-05)
(0 -0 9.94743e-06)
(0 -0 9.63075e-06)
(0 -0 9.21789e-06)
(0 -0 8.7176e-06)
(0 -0 8.17061e-06)
(0 -0 7.65347e-06)
(0 -0 7.27062e-06)
(0 -0 7.13001e-06)
(0 -0 7.30459e-06)
(0 -0 7.7911e-06)
(0 -0 8.48414e-06)
(0 -0 9.18271e-06)
(0 -0 9.6357e-06)
(0 -0 9.61541e-06)
(0 -0 8.99311e-06)
(0 -0 7.78605e-06)
(0 -0 6.1565e-06)
(0 -0 4.36354e-06)
(0 -0 2.68834e-06)
(0 -0 1.36208e-06)
(0 -0 5.20551e-07)
(0 -0 1.9444e-07)
(0 -0 3.29544e-07)
(0 -0 8.21957e-07)
(0 -0 1.55325e-06)
(0 -0 2.41586e-06)
(0 -0 3.32598e-06)
(0 -0 4.22597e-06)
(0 -0 5.08066e-06)
(0 -0 5.87139e-06)
(0 -0 6.59027e-06)
(0 -0 7.23579e-06)
(0 -0 7.80993e-06)
(0 -0 8.31638e-06)
(0 -0 8.75962e-06)
(0 -0 9.14446e-06)
(0 -0 9.47585e-06)
(0 -0 9.75839e-06)
(0 -0 1.00012e-05)
(0 -0 1.01757e-05)
(0 -0 1.22637e-05)
(0 -0 1.21617e-05)
(0 -0 1.20761e-05)
(0 -0 1.19483e-05)
(0 -0 1.17289e-05)
(0 -0 1.14126e-05)
(0 -0 1.09983e-05)
(0 -0 1.0491e-05)
(0 -0 9.92722e-06)
(0 -0 9.37896e-06)
(0 -0 8.94724e-06)
(0 -0 8.73908e-06)
(0 -0 8.83045e-06)
(0 -0 9.22587e-06)
(0 -0 9.83204e-06)
(0 -0 1.04626e-05)
(0 -0 1.08807e-05)
(0 -0 1.08692e-05)
(0 -0 1.03042e-05)
(0 -0 9.20085e-06)
(0 -0 7.71319e-06)
(0 -0 6.08851e-06)
(0 -0 4.59521e-06)
(0 -0 3.45319e-06)
(0 -0 2.78984e-06)
(0 -0 2.63075e-06)
(0 -0 2.91936e-06)
(0 -0 3.5514e-06)
(0 -0 4.40908e-06)
(0 -0 5.38593e-06)
(0 -0 6.39921e-06)
(0 -0 7.3922e-06)
(0 -0 8.33056e-06)
(0 -0 9.19632e-06)
(0 -0 9.98224e-06)
(0 -0 1.06874e-05)
(0 -0 1.13143e-05)
(0 -0 1.18671e-05)
(0 -0 1.23505e-05)
(0 -0 1.27696e-05)
(0 -0 1.31297e-05)
(0 -0 1.34354e-05)
(0 -0 1.36965e-05)
(0 -0 1.38844e-05)
(0 -0 1.34204e-05)
(0 -0 1.3308e-05)
(0 -0 1.32145e-05)
(0 -0 1.3083e-05)
(0 -0 1.28641e-05)
(0 -0 1.25508e-05)
(0 -0 1.21395e-05)
(0 -0 1.16324e-05)
(0 -0 1.10622e-05)
(0 -0 1.0497e-05)
(0 -0 1.00345e-05)
(0 -0 9.78007e-06)
(0 -0 9.81107e-06)
(0 -0 1.01376e-05)
(0 -0 1.0676e-05)
(0 -0 1.12526e-05)
(0 -0 1.16445e-05)
(0 -0 1.16463e-05)
(0 -0 1.11416e-05)
(0 -0 1.01471e-05)
(0 -0 8.81291e-06)
(0 -0 7.37726e-06)
(0 -0 6.09726e-06)
(0 -0 5.18123e-06)
(0 -0 4.74644e-06)
(0 -0 4.81074e-06)
(0 -0 5.31242e-06)
(0 -0 6.14422e-06)
(0 -0 7.18703e-06)
(0 -0 8.33403e-06)
(0 -0 9.50273e-06)
(0 -0 1.0637e-05)
(0 -0 1.17032e-05)
(0 -0 1.26841e-05)
(0 -0 1.35734e-05)
(0 -0 1.43709e-05)
(0 -0 1.508e-05)
(0 -0 1.57053e-05)
(0 -0 1.62522e-05)
(0 -0 1.67261e-05)
(0 -0 1.71327e-05)
(0 -0 1.74773e-05)
(0 -0 1.77698e-05)
(0 -0 1.79824e-05)
(0 -0 1.35558e-05)
(0 -0 1.34313e-05)
(0 -0 1.33287e-05)
(0 -0 1.31932e-05)
(0 -0 1.2976e-05)
(0 -0 1.26684e-05)
(0 -0 1.22649e-05)
(0 -0 1.17655e-05)
(0 -0 1.12001e-05)
(0 -0 1.06335e-05)
(0 -0 1.01601e-05)
(0 -0 9.88298e-06)
(0 -0 9.87923e-06)
(0 -0 1.01619e-05)
(0 -0 1.06544e-05)
(0 -0 1.11938e-05)
(0 -0 1.15701e-05)
(0 -0 1.15912e-05)
(0 -0 1.11514e-05)
(0 -0 1.02734e-05)
(0 -0 9.10743e-06)
(0 -0 7.88626e-06)
(0 -0 6.85725e-06)
(0 -0 6.21672e-06)
(0 -0 6.0698e-06)
(0 -0 6.42358e-06)
(0 -0 7.20795e-06)
(0 -0 8.30972e-06)
(0 -0 9.60612e-06)
(0 -0 1.09884e-05)
(0 -0 1.23734e-05)
(0 -0 1.37052e-05)
(0 -0 1.49507e-05)
(0 -0 1.60936e-05)
(0 -0 1.71286e-05)
(0 -0 1.80567e-05)
(0 -0 1.88821e-05)
(0 -0 1.96105e-05)
(0 -0 2.0248e-05)
(0 -0 2.08008e-05)
(0 -0 2.1275e-05)
(0 -0 2.16768e-05)
(0 -0 2.20166e-05)
(0 -0 2.22671e-05)
(0 -0 1.23574e-05)
(0 -0 1.22173e-05)
(0 -0 1.21031e-05)
(0 -0 1.19633e-05)
(0 -0 1.17491e-05)
(0 -0 1.14502e-05)
(0 -0 1.10592e-05)
(0 -0 1.05748e-05)
(0 -0 1.0025e-05)
(0 -0 9.47241e-06)
(0 -0 9.00829e-06)
(0 -0 8.73271e-06)
(0 -0 8.72086e-06)
(0 -0 8.98618e-06)
(0 -0 9.45613e-06)
(0 -0 9.97628e-06)
(0 -0 1.03489e-05)
(0 -0 1.03966e-05)
(0 -0 1.00276e-05)
(0 -0 9.27523e-06)
(0 -0 8.29442e-06)
(0 -0 7.31613e-06)
(0 -0 6.57958e-06)
(0 -0 6.26864e-06)
(0 -0 6.47409e-06)
(0 -0 7.18905e-06)
(0 -0 8.33147e-06)
(0 -0 9.77911e-06)
(0 -0 1.1403e-05)
(0 -0 1.30909e-05)
(0 -0 1.4758e-05)
(0 -0 1.63478e-05)
(0 -0 1.7828e-05)
(0 -0 1.91832e-05)
(0 -0 2.04094e-05)
(0 -0 2.1509e-05)
(0 -0 2.24875e-05)
(0 -0 2.33519e-05)
(0 -0 2.41092e-05)
(0 -0 2.47665e-05)
(0 -0 2.5331e-05)
(0 -0 2.58094e-05)
(0 -0 2.62134e-05)
(0 -0 2.65161e-05)
(0 -0 9.65525e-06)
(0 -0 9.48964e-06)
(0 -0 9.36022e-06)
(0 -0 9.21729e-06)
(0 -0 9.00889e-06)
(0 -0 8.72188e-06)
(0 -0 8.34756e-06)
(0 -0 7.88424e-06)
(0 -0 7.35951e-06)
(0 -0 6.83452e-06)
(0 -0 6.39816e-06)
(0 -0 6.14698e-06)
(0 -0 6.15255e-06)
(0 -0 6.42624e-06)
(0 -0 6.89675e-06)
(0 -0 7.41583e-06)
(0 -0 7.79726e-06)
(0 -0 7.87944e-06)
(0 -0 7.58783e-06)
(0 -0 6.97084e-06)
(0 -0 6.19272e-06)
(0 -0 5.48602e-06)
(0 -0 5.08351e-06)
(0 -0 5.15619e-06)
(0 -0 5.77828e-06)
(0 -0 6.92573e-06)
(0 -0 8.50108e-06)
(0 -0 1.03699e-05)
(0 -0 1.23946e-05)
(0 -0 1.44577e-05)
(0 -0 1.64717e-05)
(0 -0 1.83795e-05)
(0 -0 2.01489e-05)
(0 -0 2.17659e-05)
(0 -0 2.3228e-05)
(0 -0 2.45391e-05)
(0 -0 2.57066e-05)
(0 -0 2.67388e-05)
(0 -0 2.76441e-05)
(0 -0 2.84309e-05)
(0 -0 2.91074e-05)
(0 -0 2.96813e-05)
(0 -0 3.01655e-05)
(0 -0 3.05342e-05)
(0 -0 5.46311e-06)
(0 -0 5.29818e-06)
(0 -0 5.12015e-06)
(0 -0 4.98161e-06)
(0 -0 4.78562e-06)
(0 -0 4.51416e-06)
(0 -0 4.15942e-06)
(0 -0 3.72116e-06)
(0 -0 3.22808e-06)
(0 -0 2.74129e-06)
(0 -0 2.3478e-06)
(0 -0 2.14038e-06)
(0 -0 2.18571e-06)
(0 -0 2.4908e-06)
(0 -0 2.98303e-06)
(0 -0 3.51812e-06)
(0 -0 3.92052e-06)
(0 -0 4.0453e-06)
(0 -0 3.83789e-06)
(0 -0 3.36566e-06)
(0 -0 2.80633e-06)
(0 -0 2.39722e-06)
(0 -0 2.36614e-06)
(0 -0 2.87086e-06)
(0 -0 3.96713e-06)
(0 -0 5.61087e-06)
(0 -0 7.68609e-06)
(0 -0 1.00433e-05)
(0 -0 1.25342e-05)
(0 -0 1.50345e-05)
(0 -0 1.74531e-05)
(0 -0 1.97317e-05)
(0 -0 2.18386e-05)
(0 -0 2.37608e-05)
(0 -0 2.54977e-05)
(0 -0 2.70553e-05)
(0 -0 2.84428e-05)
(0 -0 2.96702e-05)
(0 -0 3.07478e-05)
(0 -0 3.16852e-05)
(0 -0 3.24919e-05)
(0 -0 3.31771e-05)
(0 -0 3.37548e-05)
(0 -0 3.42005e-05)
(0 -0 8.52098e-08)
(0 -0 -1.45968e-07)
(0 -0 -3.05969e-07)
(0 -0 -4.77345e-07)
(0 -0 -6.53427e-07)
(0 -0 -9.07251e-07)
(0 -0 -1.24248e-06)
(0 -0 -1.65499e-06)
(0 -0 -2.11336e-06)
(0 -0 -2.55548e-06)
(0 -0 -2.89561e-06)
(0 -0 -3.04484e-06)
(0 -0 -2.94234e-06)
(0 -0 -2.58714e-06)
(0 -0 -2.05535e-06)
(0 -0 -1.48914e-06)
(0 -0 -1.0544e-06)
(0 -0 -8.78935e-07)
(0 -0 -9.95447e-07)
(0 -0 -1.31466e-06)
(0 -0 -1.6422e-06)
(0 -0 -1.73346e-06)
(0 -0 -1.36425e-06)
(0 -0 -3.90236e-07)
(0 -0 1.2245e-06)
(0 -0 3.41363e-06)
(0 -0 6.04021e-06)
(0 -0 8.93751e-06)
(0 -0 1.19447e-05)
(0 -0 1.49294e-05)
(0 -0 1.77964e-05)
(0 -0 2.04858e-05)
(0 -0 2.29661e-05)
(0 -0 2.52259e-05)
(0 -0 2.72664e-05)
(0 -0 2.90958e-05)
(0 -0 3.07255e-05)
(0 -0 3.21677e-05)
(0 -0 3.34344e-05)
(0 -0 3.45369e-05)
(0 -0 3.54862e-05)
(0 -0 3.62931e-05)
(0 -0 3.69728e-05)
(0 -0 3.75021e-05)
(0 -0 4.39495e-05)
(0 -0 6.1391e-05)
(0 -0 6.92699e-05)
(0 -0 7.05729e-05)
(0 -0 6.64918e-05)
(0 -0 5.88847e-05)
(0 -0 4.94819e-05)
(0 -0 3.96949e-05)
(0 -0 3.0513e-05)
(0 -0 2.25178e-05)
(0 -0 1.59555e-05)
(0 -0 1.08318e-05)
(0 -0 7.00455e-06)
(0 -0 4.26044e-06)
(0 -0 2.36958e-06)
(0 -0 1.11922e-06)
(0 -0 3.30213e-07)
(0 -0 -1.38149e-07)
(0 -0 -3.90585e-07)
(0 -0 -5.01824e-07)
(0 -0 -5.23345e-07)
(0 -0 -4.89891e-07)
(0 -0 -4.24771e-07)
(0 -0 -3.43975e-07)
(0 -0 -2.58722e-07)
(0 -0 -1.83484e-07)
(0 -0 -1.11879e-07)
(0 -0 3.67401e-05)
(0 -0 5.51504e-05)
(0 -0 6.36439e-05)
(0 -0 6.53924e-05)
(0 -0 6.17339e-05)
(0 -0 5.45202e-05)
(0 -0 4.54871e-05)
(0 -0 3.60446e-05)
(0 -0 2.71813e-05)
(0 -0 1.94796e-05)
(0 -0 1.31876e-05)
(0 -0 8.31336e-06)
(0 -0 4.71764e-06)
(0 -0 2.18953e-06)
(0 -0 5.00972e-07)
(0 -0 -5.5968e-07)
(0 -0 -1.17076e-06)
(0 -0 -1.47252e-06)
(0 -0 -1.56941e-06)
(0 -0 -1.53586e-06)
(0 -0 -1.42296e-06)
(0 -0 -1.26489e-06)
(0 -0 -1.08429e-06)
(0 -0 -8.96705e-07)
(0 -0 -7.13592e-07)
(0 -0 -5.43892e-07)
(0 -0 -4.02918e-07)
(0 -0 2.97774e-05)
(0 -0 5.0407e-05)
(0 -0 6.20071e-05)
(0 -0 6.51261e-05)
(0 -0 6.21398e-05)
(0 -0 5.52373e-05)
(0 -0 4.6333e-05)
(0 -0 3.6927e-05)
(0 -0 2.80534e-05)
(0 -0 2.03174e-05)
(0 -0 1.39785e-05)
(0 -0 9.05118e-06)
(0 -0 5.39964e-06)
(0 -0 2.8153e-06)
(0 -0 1.07154e-06)
(0 -0 -4.24262e-08)
(0 -0 -7.04612e-07)
(0 -0 -1.05518e-06)
(0 -0 -1.19862e-06)
(0 -0 -1.20934e-06)
(0 -0 -1.13849e-06)
(0 -0 -1.02022e-06)
(0 -0 -8.77094e-07)
(0 -0 -7.24591e-07)
(0 -0 -5.7502e-07)
(0 -0 -4.38852e-07)
(0 -0 -3.31078e-07)
(0 -0 2.77019e-05)
(0 -0 5.05612e-05)
(0 -0 6.3628e-05)
(0 -0 6.7562e-05)
(0 -0 6.48815e-05)
(0 -0 5.8038e-05)
(0 -0 4.90587e-05)
(0 -0 3.95123e-05)
(0 -0 3.04715e-05)
(0 -0 2.25608e-05)
(0 -0 1.60488e-05)
(0 -0 1.09537e-05)
(0 -0 7.14138e-06)
(0 -0 4.40382e-06)
(0 -0 2.51458e-06)
(0 -0 1.26284e-06)
(0 -0 4.70363e-07)
(0 -0 -3.27149e-09)
(0 -0 -2.62839e-07)
(0 -0 -3.83059e-07)
(0 -0 -4.15288e-07)
(0 -0 -3.93849e-07)
(0 -0 -3.41401e-07)
(0 -0 -2.73526e-07)
(0 -0 -2.02891e-07)
(0 -0 -1.42908e-07)
(0 -0 -1.09969e-07)
(0 -0 3.2282e-05)
(0 -0 5.49419e-05)
(0 -0 6.73104e-05)
(0 -0 7.08796e-05)
(0 -0 6.79032e-05)
(0 -0 6.07867e-05)
(0 -0 5.15524e-05)
(0 -0 4.17731e-05)
(0 -0 3.25238e-05)
(0 -0 2.44284e-05)
(0 -0 1.77523e-05)
(0 -0 1.25102e-05)
(0 -0 8.5646e-06)
(0 -0 5.70488e-06)
(0 -0 3.70268e-06)
(0 -0 2.34578e-06)
(0 -0 1.45497e-06)
(0 -0 8.89033e-07)
(0 -0 5.42606e-07)
(0 -0 3.40528e-07)
(0 -0 2.31158e-07)
(0 -0 1.80018e-07)
(0 -0 1.64358e-07)
(0 -0 1.68527e-07)
(0 -0 1.79632e-07)
(0 -0 1.8314e-07)
(0 -0 1.59154e-07)
(0 -0 4.0957e-05)
(0 -0 6.15722e-05)
(0 -0 7.24784e-05)
(0 -0 7.49717e-05)
(0 -0 7.11965e-05)
(0 -0 6.34788e-05)
(0 -0 5.37903e-05)
(0 -0 4.36669e-05)
(0 -0 3.41565e-05)
(0 -0 2.58613e-05)
(0 -0 1.90302e-05)
(0 -0 1.3665e-05)
(0 -0 9.61896e-06)
(0 -0 6.67483e-06)
(0 -0 4.59962e-06)
(0 -0 3.17802e-06)
(0 -0 2.22868e-06)
(0 -0 1.60896e-06)
(0 -0 1.21253e-06)
(0 -0 9.63621e-07)
(0 -0 8.10193e-07)
(0 -0 7.1757e-07)
(0 -0 6.62895e-07)
(0 -0 6.30475e-07)
(0 -0 6.07315e-07)
(0 -0 5.78336e-07)
(0 -0 5.21639e-07)
(0 -0 5.1814e-05)
(0 -0 7.02482e-05)
(0 -0 7.92615e-05)
(0 -0 8.02198e-05)
(0 -0 7.52508e-05)
(0 -0 6.66283e-05)
(0 -0 5.62692e-05)
(0 -0 4.56576e-05)
(0 -0 3.5796e-05)
(0 -0 2.72501e-05)
(0 -0 2.024e-05)
(0 -0 1.47461e-05)
(0 -0 1.06058e-05)
(0 -0 7.59059e-06)
(0 -0 5.45999e-06)
(0 -0 3.99346e-06)
(0 -0 3.00626e-06)
(0 -0 2.35352e-06)
(0 -0 1.92747e-06)
(0 -0 1.65144e-06)
(0 -0 1.47285e-06)
(0 -0 1.35667e-06)
(0 -0 1.27989e-06)
(0 -0 1.22676e-06)
(0 -0 1.18424e-06)
(0 -0 1.13697e-06)
(0 -0 1.06175e-06)
(0 -0 6.55865e-05)
(0 -0 8.13897e-05)
(0 -0 8.80459e-05)
(0 -0 8.70291e-05)
(0 -0 8.04826e-05)
(0 -0 7.0645e-05)
(0 -0 5.9379e-05)
(0 -0 4.8108e-05)
(0 -0 3.77773e-05)
(0 -0 2.89031e-05)
(0 -0 2.16662e-05)
(0 -0 1.60163e-05)
(0 -0 1.17683e-05)
(0 -0 8.6779e-06)
(0 -0 6.49338e-06)
(0 -0 4.98684e-06)
(0 -0 3.96864e-06)
(0 -0 3.29079e-06)
(0 -0 2.84353e-06)
(0 -0 2.5489e-06)
(0 -0 2.35356e-06)
(0 -0 2.22201e-06)
(0 -0 2.13099e-06)
(0 -0 2.06467e-06)
(0 -0 2.00997e-06)
(0 -0 1.95135e-06)
(0 -0 1.86462e-06)
(0 -0 8.31678e-05)
(0 -0 9.56392e-05)
(0 -0 9.9324e-05)
(0 -0 9.58039e-05)
(0 -0 8.72417e-05)
(0 -0 7.58394e-05)
(0 -0 6.3399e-05)
(0 -0 5.12715e-05)
(0 -0 4.03314e-05)
(0 -0 3.10327e-05)
(0 -0 2.35048e-05)
(0 -0 1.76576e-05)
(0 -0 1.32763e-05)
(0 -0 1.00953e-05)
(0 -0 7.84819e-06)
(0 -0 6.29717e-06)
(0 -0 5.24615e-06)
(0 -0 4.54297e-06)
(0 -0 4.07525e-06)
(0 -0 3.76339e-06)
(0 -0 3.55301e-06)
(0 -0 3.40805e-06)
(0 -0 3.3049e-06)
(0 -0 3.22757e-06)
(0 -0 3.16291e-06)
(0 -0 3.09525e-06)
(0 -0 2.99964e-06)
(0 -0 0.000105258)
(0 -0 0.000113519)
(0 -0 0.000113482)
(0 -0 0.000106837)
(0 -0 9.5758e-05)
(0 -0 8.24005e-05)
(0 -0 6.84902e-05)
(0 -0 5.52895e-05)
(0 -0 4.35855e-05)
(0 -0 3.3755e-05)
(0 -0 2.5863e-05)
(0 -0 1.97695e-05)
(0 -0 1.52223e-05)
(0 -0 1.19291e-05)
(0 -0 9.60489e-06)
(0 -0 7.99945e-06)
(0 -0 6.9086e-06)
(0 -0 6.17495e-06)
(0 -0 5.68288e-06)
(0 -0 5.35079e-06)
(0 -0 5.12307e-06)
(0 -0 4.96293e-06)
(0 -0 4.84631e-06)
(0 -0 4.75696e-06)
(0 -0 4.68163e-06)
(0 -0 4.60454e-06)
(0 -0 4.50013e-06)
(0 -0 0.000132154)
(0 -0 0.000135231)
(0 -0 0.00013065)
(0 -0 0.000120205)
(0 -0 0.000106077)
(0 -0 9.03562e-05)
(0 -0 7.46717e-05)
(0 -0 6.0177e-05)
(0 -0 4.75528e-05)
(0 -0 3.70817e-05)
(0 -0 2.87512e-05)
(0 -0 2.23606e-05)
(0 -0 1.76129e-05)
(0 -0 1.41833e-05)
(0 -0 1.17646e-05)
(0 -0 1.00919e-05)
(0 -0 8.95114e-06)
(0 -0 8.17894e-06)
(0 -0 7.65583e-06)
(0 -0 7.29787e-06)
(0 -0 7.04806e-06)
(0 -0 6.86866e-06)
(0 -0 6.7351e-06)
(0 -0 6.63081e-06)
(0 -0 6.54241e-06)
(0 -0 6.45402e-06)
(0 -0 6.33956e-06)
(0 -0 0.000163619)
(0 -0 0.000160535)
(0 -0 0.000150592)
(0 -0 0.000135692)
(0 -0 0.000118002)
(0 -0 9.95314e-05)
(0 -0 8.17898e-05)
(0 -0 6.57988e-05)
(0 -0 5.21129e-05)
(0 -0 4.09036e-05)
(0 -0 3.20677e-05)
(0 -0 2.5334e-05)
(0 -0 2.03534e-05)
(0 -0 1.6764e-05)
(0 -0 1.42333e-05)
(0 -0 1.24792e-05)
(0 -0 1.12771e-05)
(0 -0 1.04566e-05)
(0 -0 9.89413e-06)
(0 -0 9.50305e-06)
(0 -0 9.22477e-06)
(0 -0 9.02059e-06)
(0 -0 8.86532e-06)
(0 -0 8.74206e-06)
(0 -0 8.63723e-06)
(0 -0 8.53485e-06)
(0 -0 8.40842e-06)
(0 -0 0.000198785)
(0 -0 0.000188667)
(0 -0 0.000172648)
(0 -0 0.000152728)
(0 -0 0.00013105)
(0 -0 0.000109515)
(0 -0 8.94922e-05)
(0 -0 7.18492e-05)
(0 -0 5.69951e-05)
(0 -0 4.49756e-05)
(0 -0 3.55852e-05)
(0 -0 2.84744e-05)
(0 -0 2.32361e-05)
(0 -0 1.94678e-05)
(0 -0 1.68095e-05)
(0 -0 1.4961e-05)
(0 -0 1.36861e-05)
(0 -0 1.28071e-05)
(0 -0 1.21961e-05)
(0 -0 1.17637e-05)
(0 -0 1.14497e-05)
(0 -0 1.12144e-05)
(0 -0 1.10319e-05)
(0 -0 1.08851e-05)
(0 -0 1.076e-05)
(0 -0 1.06406e-05)
(0 -0 1.05e-05)
(0 -0 0.000236123)
(0 -0 0.000218316)
(0 -0 0.000195707)
(0 -0 0.000170383)
(0 -0 0.000144441)
(0 -0 0.000119653)
(0 -0 9.72251e-05)
(0 -0 7.78507e-05)
(0 -0 6.1779e-05)
(0 -0 4.89183e-05)
(0 -0 3.89533e-05)
(0 -0 3.14507e-05)
(0 -0 2.59427e-05)
(0 -0 2.19847e-05)
(0 -0 1.91884e-05)
(0 -0 1.72353e-05)
(0 -0 1.58775e-05)
(0 -0 1.49306e-05)
(0 -0 1.4262e-05)
(0 -0 1.37801e-05)
(0 -0 1.3423e-05)
(0 -0 1.31501e-05)
(0 -0 1.29349e-05)
(0 -0 1.27597e-05)
(0 -0 1.26104e-05)
(0 -0 1.24708e-05)
(0 -0 1.23138e-05)
(0 -0 0.000273488)
(0 -0 0.000247669)
(0 -0 0.000218258)
(0 -0 0.000187406)
(0 -0 0.000157142)
(0 -0 0.000129088)
(0 -0 0.000104266)
(0 -0 8.31854e-05)
(0 -0 6.59236e-05)
(0 -0 5.22464e-05)
(0 -0 4.17256e-05)
(0 -0 3.38434e-05)
(0 -0 2.8072e-05)
(0 -0 2.39255e-05)
(0 -0 2.09886e-05)
(0 -0 1.89258e-05)
(0 -0 1.74786e-05)
(0 -0 1.64563e-05)
(0 -0 1.57227e-05)
(0 -0 1.51841e-05)
(0 -0 1.47773e-05)
(0 -0 1.44608e-05)
(0 -0 1.42076e-05)
(0 -0 1.39996e-05)
(0 -0 1.38226e-05)
(0 -0 1.366e-05)
(0 -0 1.34844e-05)
(0 -0 0.000308285)
(0 -0 0.000274561)
(0 -0 0.000238514)
(0 -0 0.000202336)
(0 -0 0.000167959)
(0 -0 0.000136839)
(0 -0 0.000109801)
(0 -0 8.71633e-05)
(0 -0 6.88309e-05)
(0 -0 5.4428e-05)
(0 -0 4.34171e-05)
(0 -0 3.52004e-05)
(0 -0 2.91943e-05)
(0 -0 2.4876e-05)
(0 -0 2.18065e-05)
(0 -0 1.96361e-05)
(0 -0 1.8098e-05)
(0 -0 1.69966e-05)
(0 -0 1.61934e-05)
(0 -0 1.5593e-05)
(0 -0 1.51315e-05)
(0 -0 1.47668e-05)
(0 -0 1.44715e-05)
(0 -0 1.42273e-05)
(0 -0 1.40196e-05)
(0 -0 1.38315e-05)
(0 -0 1.36356e-05)
(0 -0 0.000337741)
(0 -0 0.000296704)
(0 -0 0.000254618)
(0 -0 0.000213673)
(0 -0 0.000175686)
(0 -0 0.00014193)
(0 -0 0.000113034)
(0 -0 8.91226e-05)
(0 -0 6.99373e-05)
(0 -0 5.49706e-05)
(0 -0 4.35857e-05)
(0 -0 3.5115e-05)
(0 -0 2.89279e-05)
(0 -0 2.44719e-05)
(0 -0 2.12905e-05)
(0 -0 1.90238e-05)
(0 -0 1.74e-05)
(0 -0 1.62212e-05)
(0 -0 1.53477e-05)
(0 -0 1.46838e-05)
(0 -0 1.41652e-05)
(0 -0 1.37499e-05)
(0 -0 1.34103e-05)
(0 -0 1.31278e-05)
(0 -0 1.28875e-05)
(0 -0 1.26724e-05)
(0 -0 1.24545e-05)
(0 -0 0.000359259)
(0 -0 0.000311993)
(0 -0 0.000264885)
(0 -0 0.000220088)
(0 -0 0.00017928)
(0 -0 0.000143546)
(0 -0 0.000113318)
(0 -0 8.85441e-05)
(0 -0 6.88173e-05)
(0 -0 5.35159e-05)
(0 -0 4.19216e-05)
(0 -0 3.33118e-05)
(0 -0 2.7022e-05)
(0 -0 2.24806e-05)
(0 -0 1.9221e-05)
(0 -0 1.68795e-05)
(0 -0 1.51834e-05)
(0 -0 1.39352e-05)
(0 -0 1.2996e-05)
(0 -0 1.22711e-05)
(0 -0 1.16968e-05)
(0 -0 1.12316e-05)
(0 -0 1.08479e-05)
(0 -0 1.0527e-05)
(0 -0 1.02539e-05)
(0 -0 1.0011e-05)
(0 -0 9.76919e-06)
(0 -0 0.000370787)
(0 -0 0.000318805)
(0 -0 0.000268054)
(0 -0 0.000220626)
(0 -0 0.00017803)
(0 -0 0.000141162)
(0 -0 0.000110273)
(0 -0 8.51527e-05)
(0 -0 6.52721e-05)
(0 -0 4.99206e-05)
(0 -0 3.83211e-05)
(0 -0 2.97162e-05)
(0 -0 2.34238e-05)
(0 -0 1.88654e-05)
(0 -0 1.55744e-05)
(0 -0 1.31899e-05)
(0 -0 1.14431e-05)
(0 -0 1.01404e-05)
(0 -0 9.14621e-06)
(0 -0 8.36796e-06)
(0 -0 7.74381e-06)
(0 -0 7.23294e-06)
(0 -0 6.80846e-06)
(0 -0 6.45186e-06)
(0 -0 6.14789e-06)
(0 -0 5.87755e-06)
(0 -0 5.61735e-06)
(0 -0 0.000371039)
(0 -0 0.00031623)
(0 -0 0.000263477)
(0 -0 0.000214862)
(0 -0 0.000171682)
(0 -0 0.000134653)
(0 -0 0.000103865)
(0 -0 7.89824e-05)
(0 -0 5.93842e-05)
(0 -0 4.43019e-05)
(0 -0 3.29273e-05)
(0 -0 2.44909e-05)
(0 -0 1.83112e-05)
(0 -0 1.38169e-05)
(0 -0 1.05515e-05)
(0 -0 8.16477e-06)
(0 -0 6.39699e-06)
(0 -0 5.06191e-06)
(0 -0 4.02952e-06)
(0 -0 3.21122e-06)
(0 -0 2.54775e-06)
(0 -0 1.99991e-06)
(0 -0 1.5417e-06)
(0 -0 1.15509e-06)
(0 -0 8.24955e-07)
(0 -0 5.32994e-07)
(0 -0 2.44526e-07)
(0 -0 0.000360307)
(0 -0 0.000304648)
(0 -0 0.00025176)
(0 -0 0.00020348)
(0 -0 0.000160961)
(0 -0 0.000124756)
(0 -0 9.48307e-05)
(0 -0 7.07585e-05)
(0 -0 5.18658e-05)
(0 -0 3.73596e-05)
(0 -0 2.64293e-05)
(0 -0 1.8317e-05)
(0 -0 1.23596e-05)
(0 -0 8.00707e-06)
(0 -0 4.82289e-06)
(0 -0 2.47398e-06)
(0 -0 7.14716e-07)
(0 -0 -6.30546e-07)
(0 -0 -1.68411e-06)
(0 -0 -2.52928e-06)
(0 -0 -3.22182e-06)
(0 -0 -3.79875e-06)
(0 -0 -4.28473e-06)
(0 -0 -4.69694e-06)
(0 -0 -5.05015e-06)
(0 -0 -5.36136e-06)
(0 -0 -5.66902e-06)
(0 -0 0.000339557)
(0 -0 0.000284905)
(0 -0 0.000233578)
(0 -0 0.000187037)
(0 -0 0.000146324)
(0 -0 0.00011185)
(0 -0 8.34872e-05)
(0 -0 6.07556e-05)
(0 -0 4.29627e-05)
(0 -0 2.93226e-05)
(0 -0 1.90487e-05)
(0 -0 1.14155e-05)
(0 -0 5.79513e-06)
(0 -0 1.67032e-06)
(0 -0 -1.36662e-06)
(0 -0 -3.6254e-06)
(0 -0 -5.33348e-06)
(0 -0 -6.65312e-06)
(0 -0 -7.69711e-06)
(0 -0 -8.54228e-06)
(0 -0 -9.24013e-06)
(0 -0 -9.82499e-06)
(0 -0 -1.03199e-05)
(0 -0 -1.07409e-05)
(0 -0 -1.11013e-05)
(0 -0 -1.14209e-05)
(0 -0 -1.17207e-05)
(0 -0 0.000310189)
(0 -0 0.000258353)
(0 -0 0.000210065)
(0 -0 0.000166561)
(0 -0 0.000128711)
(0 -0 9.6807e-05)
(0 -0 7.06558e-05)
(0 -0 4.97559e-05)
(0 -0 3.34278e-05)
(0 -0 2.09218e-05)
(0 -0 1.14992e-05)
(0 -0 4.48695e-06)
(0 -0 -6.93106e-07)
(0 -0 -4.51378e-06)
(0 -0 -7.34603e-06)
(0 -0 -9.47045e-06)
(0 -0 -1.10925e-05)
(0 -0 -1.23584e-05)
(0 -0 -1.33697e-05)
(0 -0 -1.41957e-05)
(0 -0 -1.48827e-05)
(0 -0 -1.5462e-05)
(0 -0 -1.59544e-05)
(0 -0 -1.63751e-05)
(0 -0 -1.67362e-05)
(0 -0 -1.70526e-05)
(0 -0 -1.7359e-05)
(0 -0 0.00027426)
(0 -0 0.000226766)
(0 -0 0.000182819)
(0 -0 0.000143442)
(0 -0 0.000109335)
(0 -0 8.0693e-05)
(0 -0 5.72834e-05)
(0 -0 3.86136e-05)
(0 -0 2.40453e-05)
(0 -0 1.28894e-05)
(0 -0 4.47612e-06)
(0 -0 -1.79933e-06)
(0 -0 -6.45288e-06)
(0 -0 -9.90425e-06)
(0 -0 -1.24813e-05)
(0 -0 -1.44313e-05)
(0 -0 -1.59346e-05)
(0 -0 -1.71196e-05)
(0 -0 -1.80754e-05)
(0 -0 -1.88627e-05)
(0 -0 -1.95222e-05)
(0 -0 -2.00817e-05)
(0 -0 -2.05598e-05)
(0 -0 -2.09701e-05)
(0 -0 -2.13239e-05)
(0 -0 -2.16349e-05)
(0 -0 -2.19281e-05)
(0 -0 0.00023431)
(0 -0 0.000192338)
(0 -0 0.000153719)
(0 -0 0.000119272)
(0 -0 8.95419e-05)
(0 -0 6.4648e-05)
(0 -0 4.4346e-05)
(0 -0 2.81769e-05)
(0 -0 1.55666e-05)
(0 -0 5.90575e-06)
(0 -0 -1.39159e-06)
(0 -0 -6.85058e-06)
(0 -0 -1.09167e-05)
(0 -0 -1.39508e-05)
(0 -0 -1.62337e-05)
(0 -0 -1.79768e-05)
(0 -0 -1.93338e-05)
(0 -0 -2.04141e-05)
(0 -0 -2.12936e-05)
(0 -0 -2.20239e-05)
(0 -0 -2.26402e-05)
(0 -0 -2.3166e-05)
(0 -0 -2.36178e-05)
(0 -0 -2.40075e-05)
(0 -0 -2.43454e-05)
(0 -0 -2.46441e-05)
(0 -0 -2.49264e-05)
(0 -0 0.000193152)
(0 -0 0.000157431)
(0 -0 0.000124725)
(0 -0 9.56571e-05)