/*--------------------------------*- C++ -*----------------------------------*\
| =========                 |                                                 |
| \\      /  F ield         | OpenFOAM: The Open Source CFD Toolbox           |
|  \\    /   O peration     | Version:  2412                                  |
|   \\  /    A nd           | Website:  www.openfoam.com                      |
|    \\/     M anipulation  |                                                 |
\*---------------------------------------------------------------------------*/
FoamFile
{
    version     2.0;
    format      ascii;
    arch        "LSB;label=32;scalar=64";
    class       volScalarField;
    location    "3";
    object      p;
}
// * * * * * * * * * * * * * * * * * * * * * * * * * * * * * * * * * * * * * //

dimensions      [0 2 -2 0 0 0 0];

internalField   nonuniform List<scalar> 
5285
(
8.54653e-05
7.01812e-05
5.57627e-05
4.21311e-05
2.92832e-05
1.72228e-05
5.94002e-06
-4.58101e-06
-1.43581e-05
-2.34111e-05
-3.17626e-05
-3.94364e-05
-4.64584e-05
-5.28551e-05
-5.86542e-05
-6.38842e-05
-6.85741e-05
-7.27529e-05
-7.64501e-05
-7.96946e-05
-8.25151e-05
-8.49398e-05
-8.69961e-05
-8.87108e-05
6.95681e-05
5.3913e-05
3.92815e-05
2.54656e-05
1.24738e-05
3.2198e-07
-1.1002e-05
-2.15178e-05
-3.12461e-05
-4.02098e-05
-4.84341e-05
-5.59464e-05
-6.27754e-05
-6.89509e-05
-7.45038e-05
-7.94653e-05
-8.38674e-05
-8.77421e-05
-9.11212e-05
-9.40365e-05
-9.6519e-05
-9.8599e-05
-0.000100306
-0.000101669
5.27624e-05
3.67266e-05
2.18925e-05
7.89981e-06
-5.22787e-06
-1.74587e-05
-2.88073e-05
-3.92979e-05
-4.89544e-05
-5.78028e-05
-6.58717e-05
-7.31922e-05
-7.97966e-05
-8.57182e-05
-9.09912e-05
-9.56504e-05
-9.97308e-05
-0.000103267
-0.000106295
-0.000108849
-0.000110961
-0.000112665
-0.000113993
-0.000114976
3.49887e-05
1.85623e-05
3.5328e-06
-1.06289e-05
-2.3882e-05
-3.6177e-05
-4.75311e-05
-5.79738e-05
-6.75323e-05
-7.62361e-05
-8.41179e-05
-9.12129e-05
-9.75573e-05
-0.000103188
-0.000108145
-0.000112464
-0.000116185
-0.000119347
-0.000121987
-0.000124143
-0.000125851
-0.000127146
-0.000128063
-0.000128634
1.61786e-05
-6.4978e-07
-1.58662e-05
-3.01867e-05
-4.35525e-05
-5.5894e-05
-6.72315e-05
-7.76e-05
-8.70307e-05
-9.5557e-05
-0.000103216
-0.000110048
-0.000116093
-0.000121393
-0.000125992
-0.00012993
-0.000133251
-0.000135998
-0.00013821
-0.00013993
-0.000141196
-0.000142046
-0.000142517
-0.000142644
-3.74645e-06
-2.09884e-05
-3.63796e-05
-5.0846e-05
-6.43087e-05
-7.66759e-05
-8.79709e-05
-9.8235e-05
-0.000107504
-0.000115816
-0.000123212
-0.000129738
-0.00013544
-0.000140365
-0.000144561
-0.000148073
-0.00015095
-0.000153236
-0.000154979
-0.000156221
-0.000157004
-0.000157371
-0.000157359
-0.000157007
-2.4873e-05
-4.25404e-05
-5.80907e-05
-7.26865e-05
-8.62269e-05
-9.85948e-05
-0.000109817
-0.000119942
-0.00012901
-0.000137065
-0.000144154
-0.000150327
-0.000155638
-0.000160138
-0.000163881
-0.000166917
-0.0001693
-0.000171079
-0.000172305
-0.000173023
-0.000173282
-0.000173123
-0.00017259
-0.000171721
-4.72969e-05
-6.54017e-05
-8.10916e-05
-9.57967e-05
-0.000109391
-0.00012173
-0.000132844
-0.000142789
-0.000151612
-0.000159362
-0.000166093
-0.000171861
-0.000176726
-0.000180746
-0.000183981
-0.000186488
-0.000188323
-0.000189542
-0.0001902
-0.000190347
-0.000190033
-0.000189305
-0.000188207
-0.000186782
-7.11253e-05
-8.96789e-05
-0.000105485
-0.000120274
-0.000133894
-0.000146168
-0.000157132
-0.000166851
-0.000175378
-0.000182768
-0.000189083
-0.000194387
-0.000198746
-0.000202226
-0.000204892
-0.000206808
-0.000208037
-0.00020864
-0.000208674
-0.000208197
-0.00020726
-0.000205915
-0.000204209
-0.000202186
-9.64775e-05
-0.00011549
-0.000131383
-0.000146227
-0.000159839
-0.000172006
-0.00018277
-0.000192208
-0.00020038
-0.000207348
-0.000213182
-0.000217955
-0.000221741
-0.000224612
-0.000226643
-0.000227903
-0.000228462
-0.000228385
-0.000227737
-0.000226578
-0.000224965
-0.000222952
-0.00022059
-0.000217924
-0.000123486
-0.000142966
-0.000158912
-0.000173774
-0.000187336
-0.000199346
-0.000209854
-0.000218948
-0.000226697
-0.000233173
-0.000238452
-0.000242619
-0.000245755
-0.000247944
-0.000249264
-0.000249796
-0.000249613
-0.00024879
-0.000247395
-0.000245493
-0.000243146
-0.000240411
-0.000237341
-0.000233987
-0.000152299
-0.000172252
-0.000188209
-0.000203046
-0.000216509
-0.000228304
-0.000238487
-0.000247164
-0.000254414
-0.000260315
-0.000264957
-0.000268433
-0.000270836
-0.000272257
-0.000272785
-0.000272508
-0.000271508
-0.000269864
-0.000267652
-0.000264941
-0.000261798
-0.000258283
-0.000254453
-0.00025036
-0.000183079
-0.000203508
-0.000219427
-0.000234186
-0.000247491
-0.000259002
-0.000268784
-0.00027696
-0.00028362
-0.000288855
-0.000292765
-0.000295456
-0.00029703
-0.00029759
-0.000297236
-0.000296062
-0.00029416
-0.000291615
-0.00028851
-0.000284919
-0.000280913
-0.000276557
-0.000271911
-0.000267027
-0.00021601
-0.000236914
-0.000252733
-0.000267352
-0.000280431
-0.000291576
-0.000300867
-0.000308444
-0.000314412
-0.000318875
-0.000321947
-0.000323744
-0.000324384
-0.00032398
-0.000322642
-0.000320475
-0.000317579
-0.000314047
-0.000309967
-0.00030542
-0.000300481
-0.000295218
-0.000289695
-0.000283968
-0.000251294
-0.000272669
-0.000288316
-0.000302718
-0.000315488
-0.000326173
-0.000334867
-0.000341734
-0.000346894
-0.000350465
-0.000352577
-0.000353361
-0.000352948
-0.000351464
-0.000349032
-0.000345765
-0.000341774
-0.000337159
-0.000332016
-0.000326431
-0.000320484
-0.000314246
-0.000307784
-0.000301155
-0.000289161
-0.000310995
-0.000326381
-0.000340478
-0.000352842
-0.000362955
-0.000370931
-0.000376957
-0.000381174
-0.000383717
-0.000384732
-0.000384367
-0.000382768
-0.000380076
-0.000376426
-0.000371944
-0.000366748
-0.000360949
-0.000354648
-0.000347937
-0.000340901
-0.000333616
-0.00032615
-0.000318561
-0.000329866
-0.000352142
-0.000367161
-0.000380844
-0.000392686
-0.000402098
-0.000409213
-0.000414249
-0.00041737
-0.000418728
-0.00041849
-0.000416824
-0.000413891
-0.000409849
-0.000404846
-0.00039902
-0.0003925
-0.000385405
-0.000377844
-0.000369915
-0.000361707
-0.000353298
-0.000344758
-0.00033615
-0.000373698
-0.000396388
-0.000410914
-0.000424054
-0.000435237
-0.000443795
-0.000449882
-0.000453757
-0.000455603
-0.0004556
-0.000453934
-0.000450793
-0.000446361
-0.000440811
-0.000434305
-0.000426996
-0.000419022
-0.000410512
-0.000401582
-0.000392336
-0.000382866
-0.000373253
-0.000363571
-0.00035388
-0.000472986
-0.000464814
-0.000455868
-0.000446299
-0.000436246
-0.00042583
-0.000415161
-0.000404336
-0.000393438
-0.000382539
-0.000371703
0.000207142
0.00018794
0.000169339
0.000151358
0.00013401
0.000117307
0.000101267
0.000195351
0.000175536
0.000156337
0.000137773
0.000119862
0.000102626
8.61006e-05
0.000182904
0.000162434
0.000142598
0.00012342
0.000104914
8.71178e-05
7.00818e-05
0.000169752
0.000148593
0.000128088
0.000108259
8.91249e-05
7.07312e-05
5.31442e-05
0.00015584
0.000133954
0.000112741
9.22265e-05
7.24286e-05
5.3403e-05
3.52298e-05
0.000141109
0.000118453
9.64915e-05
7.52519e-05
5.47532e-05
3.5062e-05
1.62709e-05
0.000125493
0.000102022
7.92673e-05
5.72609e-05
3.60222e-05
1.56306e-05
-3.80875e-06
0.000108922
8.45857e-05
6.0991e-05
3.81729e-05
1.61518e-05
-4.97725e-06
-2.50963e-05
9.13187e-05
6.60634e-05
4.15775e-05
1.78991e-05
-4.95001e-06
-2.68571e-05
-4.76911e-05
7.25961e-05
4.63649e-05
2.09328e-05
-3.65842e-06
-2.73854e-05
-5.01154e-05
-7.17045e-05
5.2659e-05
2.53901e-05
-1.04775e-06
-2.66084e-05
-5.12677e-05
-7.48707e-05
-9.72602e-05
3.14009e-05
3.02728e-06
-2.44805e-05
-5.10724e-05
-7.67234e-05
-0.000101254
-0.000124495
8.70293e-06
-2.08481e-05
-4.94957e-05
-7.71861e-05
-0.000103894
-0.000129413
-0.000153561
-1.55679e-05
-4.63756e-05
-7.62392e-05
-0.000105101
-0.000132936
-0.00015951
-0.000184625
-4.15606e-05
-7.37115e-05
-0.000104874
-0.000134988
-0.000164028
-0.000191729
-0.000217876
-6.94427e-05
-0.000103032
-0.000135585
-0.000167038
-0.000197367
-0.000226273
-0.000253523
-9.94027e-05
-0.000134535
-0.000168579
-0.000201466
-0.000233177
-0.000263372
-0.000291803
-0.000131654
-0.000168444
-0.000204088
-0.000238516
-0.000271709
-0.000303288
-0.00033298
-0.000166437
-0.000205013
-0.000242379
-0.000278462
-0.000313248
-0.000346312
-0.000377356
-0.000204028
-0.00024453
0.000355693
0.000333201
0.000311088
0.000289357
0.000268019
0.000247231
0.000226918
0.00034854
0.00032531
0.00030255
0.000280178
0.000258256
0.000236729
0.000215757
0.000340978
0.000316979
0.000293547
0.000270475
0.000247818
0.000225629
0.00020398
0.000332987
0.000308168
0.000284028
0.00026022
0.000236813
0.000213899
0.000191533
0.000324529
0.000298834
0.00027395
0.000249369
0.000225176
0.00020149
0.000178365
0.000315569
0.000288937
0.000263272
0.000237877
0.000212853
0.000188349
0.000164421
0.00030607
0.000278437
0.000251949
0.000225694
0.000199791
0.00017442
0.000149641
0.000295991
0.000267287
0.000239931
0.000212766
0.00018593
0.000159638
0.000133956
0.000285289
0.000255436
0.00022716
0.000199031
0.000171205
0.000143935
0.000117293
0.000273913
0.000242827
0.000213577
0.000184424
0.000155543
0.000127233
9.9571e-05
0.00026181
0.000229395
0.00019911
0.000168868
0.000138865
0.000109447
8.06982e-05
0.000248919
0.000215071
0.000183685
0.000152282
0.00012108
9.04797e-05
6.05736e-05
0.000235173
0.000199776
0.000167216
0.000134574
0.00010209
7.02262e-05
3.90845e-05
0.000220498
0.000183422
0.000149608
0.000115641
8.17827e-05
4.85674e-05
1.61048e-05
0.000204813
0.000165913
0.000130755
9.53679e-05
6.00352e-05
2.53704e-05
-8.50674e-06
0.000188027
0.00014714
0.000110541
7.36271e-05
3.67083e-05
4.85901e-07
-3.49086e-05
0.000170039
0.000126983
8.88322e-05
5.02748e-05
1.16457e-05
-2.62536e-05
-6.32794e-05
0.000150739
0.000105305
6.54806e-05
2.5149e-05
-1.53285e-05
-5.50376e-05
-9.38205e-05
0.000130002
8.19558e-05
4.03181e-05
-1.93396e-06
-4.44142e-05
-8.60805e-05
-0.000126761
-0.000119627
-0.00016236
0.00103872
0.00102679
0.00101431
0.00100127
0.000987665
0.00097348
0.000958712
0.000943354
0.000927403
0.000910858
0.000893719
0.000875989
0.000857674
0.000838781
0.000819322
0.00079931
0.000778761
0.000757696
0.000736138
0.000714113
0.000691651
0.000668785
0.000645552
0.000621991
0.000598144
0.000574057
0.000549779
0.000525361
0.000500854
0.000476316
0.000451801
0.000427367
0.000403076
0.000379005
0.00105182
0.00103983
0.00102726
0.00101412
0.00100037
0.000986015
0.000971045
0.000955453
0.000939233
0.000922383
0.000904902
0.000886792
0.000868058
0.000848707
0.000828749
0.000808197
0.00078707
0.000765385
0.000743168
0.000720446
0.00069725
0.000673614
0.000649577
0.00062518
0.00060047
0.000575495
0.000550306
0.000524958
0.000499509
0.000474018
0.000448545
0.000423153
0.000397914
0.000372917
0.00106546
0.00105342
0.00104079
0.00102754
0.00101366
0.000999144
0.000983979
0.000968156
0.000951668
0.000934513
0.000916687
0.000898191
0.000879029
0.000859208
0.000838736
0.000817628
0.000795899
0.00077357
0.000750666
0.000727214
0.000703247
0.000678801
0.000653917
0.000628639
0.000603016
0.000577099
0.000550943
0.000524609
0.000498157
0.000471652
0.000445159
0.000418744
0.000392494
0.000366511
0.00107966
0.0010676
0.0010549
0.00104157
0.00102757
0.0010129
0.000997546
0.000981497
0.000964745
0.000947284
0.000929111
0.000910225
0.000890628
0.000870325
0.000849325
0.000827641
0.00080529
0.000782291
0.000758669
0.000734453
0.000709678
0.000684381
0.000658604
0.000632395
0.000605805
0.00057889
0.000551708
0.000524325
0.000496805
0.000469219
0.000441638
0.000414132
0.000386801
0.000359772
0.00109446
0.00108238
0.00106965
0.00105623
0.00104213
0.00102732
0.00101178
0.000995514
0.000978502
0.000960738
0.000942217
0.000922936
0.000902897
0.000882102
0.00086056
0.000838283
0.000815286
0.00079159
0.00076722
0.000742206
0.000716582
0.000690389
0.000663671
0.000636478
0.000608864
0.00058089
0.000552618
0.000524117
0.00049546
0.00046672
0.000437977
0.000409304
0.000380819
0.000352673
0.00110988
0.0010978
0.00108504
0.00107157
0.00105737
0.00104243
0.00102672
0.00101024
0.000992979
0.000974916
0.000956048
0.00093637
0.000915882
0.000894586
0.000872488
0.000849599
0.000825935
0.000801515
0.000776365
0.000750515
0.000724002
0.000696866
0.000669155
0.000640921
0.000612223
0.000583124
0.000553692
0.000524002
0.00049413
0.000464158
0.000434171
0.000404249
0.000374528
0.000345186
0.00112595
0.00111389
0.00110111
0.0010876
0.00107332
0.00105827
0.00104241
0.00102573
0.00100822
0.000989863
0.00097065
0.000950575
0.000929633
0.000907827
0.00088516
0.000861642
0.000837288
0.000812117
0.000786155
0.000759431
0.000731984
0.000703856
0.000675098
0.000645763
0.000615915
0.00058562
0.000554954
0.000523994
0.000492825
0.000461535
0.000430216
0.000398954
0.000367907
0.000337284
0.00114268
0.00113066
0.0011179
0.00110437
0.00109003
0.00107488
0.00105888
0.00104202
0.00102427
0.00100563
0.000986074
0.000965602
0.000944204
0.00092188
0.000898633
0.000874469
0.000849403
0.000823453
0.000796644
0.000769008
0.000740581
0.00071141
0.000681545
0.000651045
0.000619977
0.000588411
0.000556428
0.000524113
0.000491556
0.000458855
0.000426107
0.000393406
0.000360934
0.000328933
0.00116011
0.00114816
0.00113544
0.0011219
0.00110753
0.0010923
0.00107618
0.00105914
0.00104118
0.00102226
0.00100237
0.000981507
0.000959652
0.000936805
0.000912966
0.000888141
0.000862341
0.000835584
0.000807894
0.000779304
0.00074985
0.00071958
0.000688548
0.000656815
0.00062445
0.000591532
0.000558145
0.000524381
0.000490338
0.000456122
0.000421839
0.000387592
0.000353585
0.000320102
0.00117826
0.00116641
0.00115375
0.00114025
0.00112586
0.00111057
0.00109435
0.00107717
0.00105899
0.00103981
0.0010196
0.000998348
0.000976038
0.000952664
0.000928225
0.000902723
0.000876168
0.000848577
0.000819972
0.000790385
0.000759855
0.000728429
0.000696164
0.000663124
0.000629383
0.000595024
0.000560138
0.000524823
0.000489187
0.000453344
0.00041741
0.000381496
0.000345835
0.000310753
0.00119717
0.00118545
0.00117288
0.00115943
0.00114506
0.00112974
0.00111344
0.00109613
0.00107777
0.00105834
0.00103782
0.00101619
0.000993428
0.000969527
0.00094448
0.000918288
0.000890958
0.000862505
0.00083295
0.000802323
0.000770665
0.000738023
0.000704456
0.000670032
0.000634828
0.000598934
0.000562445
0.00052547
0.000488123
0.00045053
0.000412818
0.000375105
0.000337657
0.000300848
0.00121686
0.00120529
0.00119285
0.00117949
0.00116517
0.00114986
0.00113351
0.00111609
0.00109757
0.00107792
0.0010571
0.0010351
0.00101189
0.000987465
0.000961806
0.000934913
0.00090679
0.000877448
0.000846908
0.000815199
0.000782359
0.000748438
0.000713496
0.000677605
0.000640845
0.000603313
0.00056511
0.000526354
0.000487169
0.000447691
0.00040806
0.000368404
0.000329023
0.000290346
0.00123735
0.00122599
0.00121371
0.00120047
0.00118624
0.00117095
0.00115459
0.0011371
0.00111844
0.00109859
0.0010775
0.00105515
0.00103151
0.00100656
0.000980287
0.000952684
0.000923751
0.000893495
0.000861935
0.000829098
0.000795022
0.000759756
0.000723363
0.000685916
0.000647503
0.000608221
0.000568184
0.000527516
0.000486353
0.000444843
0.000403138
0.000361379
0.000319904
0.000279201
0.00125868
0.00124756
0.00123548
0.00122241
0.0012083
0.00119309
0.00117675
0.00115922
0.00114046
0.00112043
0.0010991
0.00107641
0.00105235
0.00102689
0.00100001
0.000971691
0.000941934
0.000910741
0.000878128
0.000844118
0.00080875
0.000772071
0.000734146
0.000695051
0.000654876
0.000613728
0.000571726
0.000529003
0.000485709
0.000442004
0.000398055
0.000354016
0.000310268
0.000267366
0.00128088
0.00127004
0.00125821
0.00124535
0.0012314
0.00121631
0.00120003
0.0011825
0.00116368
0.00114352
0.00112196
0.00109897
0.00107452
0.00104856
0.00102107
0.000992035
0.000961442
0.000929292
0.000895592
0.000860366
0.000823648
0.000785487
0.000745945
0.000705102
0.000663054
0.00061991
0.000575801
0.000530869
0.000485276
0.000439197
0.000392815
0.000346301
0.00030008
0.000254785
0.00130397
0.00129345
0.00128193
0.00126932
0.00125559
0.00124067
0.0012245
0.00120702
0.00118818
0.00116791
0.00114618
0.00112292
0.00109809
0.00107165
0.00104357
0.00101382
0.000982388
0.000949261
0.000914446
0.00087796
0.000839836
0.000800118
0.000758872
0.000716178
0.000672134
0.000626858
0.000580487
0.000533177
0.000485101
0.000436451
0.000387429
0.000338221
0.000289305
0.000241401
0.00132797
0.00131784
0.00130667
0.00129438
0.00128092
0.00126622
0.00125021
0.00123283
0.00121402
0.0011937
0.00117183
0.00114833
0.00112317
0.00109628
0.00106762
0.00103717
0.00100489
0.000970774
0.000934816
0.00089703
0.000857441
0.000816095
0.000773052
0.000728396
0.000682228
0.000634673
0.000585874
0.000536
0.000485239
0.000433801
0.000381908
0.000329764
0.000277906
0.000227149
0.00135292
0.00134323
0.00133246
0.00132055
0.00130742
0.001293
0.00127722
0.00126
0.00124127
0.00122096
0.001199
0.00117532
0.00114985
0.00112255
0.00109334
0.0010622
0.00102908
0.000993967
0.000956844
0.000917718
0.00087661
0.000833559
0.000788626
0.000741893
0.000693464
0.00064347
0.000592063
0.000539425
0.000485757
0.000431291
0.00037627
0.000320919
0.000265841
0.00021196
0.00071184
0.00070613
0.000700385
0.000694607
0.000688798
0.000682957
0.000677088
0.00067119
0.000665266
0.000659317
0.000653343
0.000647347
0.00064133
0.000635293
0.000629237
0.000623165
0.000617078
0.000610976
0.000604862
0.000598737
0.000592603
0.000586461
0.000580313
0.000574159
0.000568003
0.000561845
0.000555686
0.000549529
0.000543375
0.000537225
0.000531081
0.000524945
0.000518817
0.0005127
0.000712111
0.000706392
0.000700638
0.000694851
0.000689032
0.000683182
0.000677302
0.000671394
0.00066546
0.0006595
0.000653516
0.000647509
0.000641481
0.000635433
0.000629366
0.000623283
0.000617184
0.000611071
0.000604945
0.000598809
0.000592663
0.000586509
0.000580349
0.000574184
0.000568016
0.000561846
0.000555676
0.000549507
0.000543341
0.000537179
0.000531024
0.000524876
0.000518737
0.000512608
0.00071264
0.000706903
0.000701131
0.000695325
0.000689487
0.000683618
0.000677719
0.000671792
0.000665837
0.000659857
0.000653852
0.000647824
0.000641775
0.000635705
0.000629617
0.000623512
0.000617391
0.000611255
0.000605108
0.000598948
0.00059278
0.000586603
0.00058042
0.000574232
0.000568041
0.000561848
0.000555654
0.000549462
0.000543274
0.000537089
0.000530911
0.00052474
0.000518578
0.000512427
0.000713412
0.00070765
0.000701852
0.00069602
0.000690154
0.000684257
0.00067833
0.000672374
0.00066639
0.00066038
0.000654345
0.000648286
0.000642206
0.000636105
0.000629985
0.000623847
0.000617694
0.000611526
0.000605345
0.000599153
0.000592951
0.000586741
0.000580524
0.000574302
0.000568077
0.000561851
0.000555624
0.000549398
0.000543176
0.000536958
0.000530746
0.000524542
0.000518347
0.000512163
0.000714419
0.000708623
0.000702791
0.000696924
0.000691023
0.00068509
0.000679126
0.000673132
0.00066711
0.000661061
0.000654987
0.000648888
0.000642767
0.000636625
0.000630464
0.000624284
0.000618089
0.000611878
0.000605654
0.000599419
0.000593174
0.00058692
0.00058066
0.000574394
0.000568125
0.000561854
0.000555583
0.000549314
0.000543047
0.000536786
0.000530531
0.000524283
0.000518045
0.000511819
0.000715651
0.000709814
0.000703941
0.000698031
0.000692087
0.00068611
0.000680101
0.000674061
0.000667992
0.000661895
0.000655773
0.000649625
0.000643455
0.000637263
0.000631051
0.00062482
0.000618572
0.00061231
0.000606033
0.000599745
0.000593446
0.000587139
0.000580825
0.000574506
0.000568183
0.000561858
0.000555533
0.00054921
0.00054289
0.000536575
0.000530266
0.000523966
0.000517675
0.000511396
0.000717099
0.000711215
0.000705293
0.000699334
0.000693339
0.00068731
0.000681247
0.000675154
0.00066903
0.000662877
0.000656698
0.000650493
0.000644264
0.000638013
0.000631741
0.00062545
0.000619142
0.000612818
0.000606479
0.000600129
0.000593768
0.000587397
0.00058102
0.000574637
0.000568251
0.000561862
0.000555474
0.000549087
0.000542704
0.000536325
0.000529954
0.000523591
0.000517238
0.000510897
0.000718758
0.00071282
0.000706842
0.000700826
0.000694773
0.000688684
0.000682562
0.000676406
0.000670219
0.000664003
0.000657759
0.000651488
0.000645193
0.000638874
0.000632533
0.000626173
0.000619795
0.0006134
0.000606991
0.000600569
0.000594136
0.000587693
0.000581243
0.000574788
0.000568328
0.000561867
0.000555405
0.000548946
0.000542489
0.000536038
0.000529595
0.00052316
0.000516735
0.000510324
0.000720622
0.000714624
0.000708584
0.000702504
0.000696385
0.00069023
0.000684039
0.000677815
0.000671557
0.000665269
0.000658952
0.000652607
0.000646237
0.000639842
0.000633424
0.000626986
0.00062053
0.000614056
0.000607566
0.000601064
0.000594549
0.000588025
0.000581494
0.000574956
0.000568415
0.000561871
0.000555327
0.000548785
0.000542247
0.000535715
0.00052919
0.000522674
0.000516169
0.000509677
0.000722687
0.000716621
0.000710512
0.000704362
0.000698172
0.000691943
0.000685677
0.000679376
0.000673041
0.000666673
0.000660275
0.000653849
0.000647395
0.000640915
0.000634413
0.000627889
0.000621344
0.000614782
0.000608204
0.000601612
0.000595008
0.000588394
0.000581772
0.000575143
0.00056851
0.000561875
0.00055524
0.000548607
0.000541978
0.000535354
0.000528739
0.000522133
0.000515538
0.000508958
0.000724948
0.000718809
0.000712625
0.000706399
0.00070013
0.000693821
0.000687473
0.000681088
0.000674667
0.000668213
0.000661726
0.00065521
0.000648665
0.000642093
0.000635497
0.000628878
0.000622239
0.00061558
0.000608905
0.000602214
0.000595512
0.000588798
0.000582076
0.000575347
0.000568614
0.000561879
0.000555143
0.00054841
0.00054168
0.000534957
0.000528242
0.000521537
0.000514845
0.000508167
0.000727402
0.000721184
0.00071492
0.00070861
0.000702256
0.00069586
0.000689424
0.000682948
0.000676435
0.000669886
0.000663304
0.00065669
0.000650046
0.000643375
0.000636677
0.000629955
0.000623211
0.000616448
0.000609666
0.000602869
0.000596059
0.000589237
0.000582407
0.000575569
0.000568727
0.000561882
0.000555037
0.000548194
0.000541356
0.000534524
0.000527701
0.000520888
0.000514088
0.000507304
0.000730047
0.000723745
0.000717394
0.000710996
0.000704551
0.000698061
0.000691529
0.000684956
0.000678343
0.000671693
0.000665008
0.000658289
0.000651538
0.000644758
0.000637951
0.000631118
0.000624262
0.000617385
0.000610489
0.000603577
0.00059665
0.000589712
0.000582764
0.000575808
0.000568848
0.000561885
0.000554922
0.00054796
0.000541004
0.000534054
0.000527114
0.000520185
0.000513269
0.00050637
0.000732881
0.00072649
0.000720047
0.000713553
0.000707011
0.000700422
0.000693788
0.00068711
0.000680391
0.000673633
0.000666837
0.000660006
0.000653141
0.000646245
0.000639319
0.000632367
0.000625391
0.000618392
0.000611373
0.000604337
0.000597286
0.000590221
0.000583147
0.000576065
0.000568977
0.000561887
0.000554796
0.000547708
0.000540624
0.000533548
0.000526481
0.000519427
0.000512387
0.000505364
0.000735904
0.000729417
0.000722876
0.000716282
0.000709637
0.000702942
0.0006962
0.000689411
0.000682579
0.000675705
0.000668791
0.00066184
0.000654853
0.000647834
0.000640783
0.000633704
0.000626598
0.000619469
0.000612319
0.00060515
0.000597965
0.000590766
0.000583557
0.000576339
0.000569115
0.000561889
0.000554662
0.000547437
0.000540217
0.000533005
0.000525803
0.000518614
0.000511441
0.000504285
0.000739113
0.000732527
0.000725883
0.000719183
0.000712428
0.000705622
0.000698765
0.000691859
0.000684907
0.00067791
0.000670872
0.000663793
0.000656677
0.000649526
0.000642341
0.000635127
0.000627884
0.000620617
0.000613327
0.000606016
0.000598689
0.000591347
0.000583993
0.000576631
0.000569262
0.00056189
0.000554517
0.000547147
0.000539782
0.000532425
0.000525079
0.000517747
0.000510431
0.000503134
0.000742509
0.000735818
0.000729066
0.000722254
0.000715385
0.000708461
0.000701483
0.000694454
0.000687375
0.000680249
0.000673079
0.000665866
0.000658612
0.000651322
0.000643996
0.000636638
0.00062925
0.000621836
0.000614397
0.000606937
0.000599458
0.000591964
0.000584457
0.000576941
0.000569418
0.000561891
0.000554364
0.000546839
0.000539319
0.000531808
0.000524309
0.000516824
0.000509356
0.000501909
0.000746092
0.000739291
0.000732426
0.000725498
0.000718509
0.000711461
0.000704356
0.000697197
0.000689985
0.000682723
0.000675413
0.000668058
0.000660661
0.000653223
0.000645748
0.000638239
0.000630697
0.000623127
0.000615531
0.000607912
0.000600273
0.000592618
0.000584949
0.00057727
0.000569583
0.000561892
0.000554201
0.000546512
0.000538828
0.000531154
0.000523492
0.000515845
0.000508217
0.00050061
0.000749863
0.000742948
0.000735964
0.000728914
0.0007218
0.000714623
0.000707385
0.000700089
0.000692738
0.000685333
0.000677877
0.000670373
0.000662824
0.000655231
0.000647599
0.00063993
0.000632226
0.000624492
0.00061673
0.000608944
0.000601136
0.00059331
0.000585469
0.000577617
0.000569758
0.000561893
0.000554028
0.000546166
0.000538309
0.000530462
0.000522627
0.000514809
0.000507011
0.000499236
0.000753821
0.000746788
0.000739682
0.000732505
0.000725259
0.000717947
0.000710571
0.000703133
0.000695636
0.000688081
0.000680472
0.000672812
0.000665103
0.000657348
0.00064955
0.000641713
0.000633839
0.000625932
0.000617995
0.000610032
0.000602046
0.00059404
0.000586019
0.000577985
0.000569943
0.000561895
0.000553847
0.000545801
0.000537761
0.000529731
0.000521715
0.000513716
0.000505738
0.000497785
0.000757969
0.000750813
0.00074358
0.000736271
0.00072889
0.000721437
0.000713917
0.00070633
0.00069868
0.000690969
0.0006832
0.000675376
0.0006675
0.000659575
0.000651603
0.00064359
0.000635537
0.000627449
0.000619328
0.000611179
0.000603006
0.000594811
0.000586599
0.000578373
0.000570139
0.000561898
0.000553657
0.000545417
0.000537185
0.000528962
0.000520754
0.000512565
0.000504397
0.000496256
0.000762308
0.000755025
0.00074766
0.000740215
0.000732692
0.000725095
0.000717424
0.000709682
0.000701873
0.000693999
0.000686063
0.000678068
0.000670018
0.000661914
0.000653762
0.000645563
0.000637323
0.000629044
0.000620731
0.000612387
0.000604016
0.000595623
0.00058721
0.000578784
0.000570346
0.000561903
0.000553458
0.000545015
0.000536579
0.000528154
0.000519744
0.000511354
0.000502987
0.000494649
0.000766839
0.000759425
0.000751924
0.000744338
0.00073667
0.000728921
0.000721094
0.000713193
0.000705218
0.000697175
0.000689065
0.000680892
0.000672658
0.000664369
0.000656027
0.000647635
0.000639199
0.000630721
0.000622205
0.000613657
0.000605079
0.000596477
0.000587855
0.000579216
0.000570567
0.00056191
0.000553251
0.000544595
0.000535945
0.000527307
0.000518685
0.000510083
0.000501507
0.000492961
0.000771564
0.000764016
0.000756375
0.000748644
0.000740825
0.00073292
0.000724932
0.000716864
0.000708718
0.000700498
0.000692207
0.000683848
0.000675425
0.000666942
0.000658402
0.000649808
0.000641167
0.00063248
0.000623753
0.000614991
0.000606197
0.000597376
0.000588533
0.000579673
0.0005708
0.00056192
0.000553037
0.000544155
0.000535282
0.00052642
0.000517575
0.000508752
0.000499956
0.000491191
0.000776486
0.000768799
0.000761015
0.000753134
0.000745159
0.000737093
0.000728939
0.000720698
0.000712375
0.000703972
0.000695493
0.000686942
0.000678321
0.000669636
0.000660889
0.000652086
0.00064323
0.000634326
0.000625378
0.000616391
0.000607371
0.000598321
0.000589248
0.000580155
0.000571048
0.000561933
0.000552815
0.000543698
0.000534589
0.000525492
0.000516414
0.000507358
0.000498331
0.000489338
0.000781605
0.000773778
0.000765846
0.000757811
0.000749677
0.000741445
0.000733118
0.0007247
0.000716193
0.000707601
0.000698927
0.000690175
0.00068135
0.000672454
0.000663493
0.00065447
0.000645391
0.00063626
0.000627081
0.000617861
0.000608604
0.000599315
0.00059
0.000580664
0.000571312
0.000561951
0.000552586
0.000543223
0.000533867
0.000524525
0.000515201
0.000505902
0.000496633
0.0004874
0.000786926
0.000778954
0.000770871
0.000762679
0.00075438
0.000745977
0.000737473
0.000728871
0.000720175
0.000711387
0.000702512
0.000693552
0.000684514
0.0006754
0.000666215
0.000656965
0.000647653
0.000638285
0.000628866
0.000619402
0.000609897
0.000600358
0.000590791
0.0005812
0.000571593
0.000561975
0.000552352
0.00054273
0.000533116
0.000523516
0.000513936
0.000504381
0.000494859
0.000485375
0.000792449
0.00078433
0.000776093
0.00076774
0.000759272
0.000750694
0.000742008
0.000733217
0.000724325
0.000715335
0.000706251
0.000697077
0.000687818
0.000678478
0.000669061
0.000659574
0.00065002
0.000640406
0.000630736
0.000621017
0.000611255
0.000601455
0.000591624
0.000581767
0.000571892
0.000562005
0.000552112
0.00054222
0.000532336
0.000522466
0.000512617
0.000502796
0.000493009
0.000483262
0.000798178
0.00078991
0.000781515
0.000772997
0.000764357
0.0007556
0.000746726
0.000737741
0.000728647
0.000719448
0.000710149
0.000700753
0.000691265
0.00068169
0.000672034
0.0006623
0.000652495
0.000642624
0.000632694
0.00062271
0.000612678
0.000602606
0.0005925
0.000582366
0.000572211
0.000562043
0.000551868
0.000541694
0.000531527
0.000521375
0.000511245
0.000501144
0.00049108
0.000481059
0.000804116
0.000795695
0.00078714
0.000778454
0.000769638
0.000760697
0.000751631
0.000742446
0.000733145
0.000723731
0.00071421
0.000704585
0.000694861
0.000685043
0.000675137
0.000665148
0.000655082
0.000644944
0.000634743
0.000624483
0.000614171
0.000603815
0.000593422
0.000582998
0.000572552
0.00056209
0.000551621
0.000541151
0.000530689
0.000520242
0.000509818
0.000499426
0.000489071
0.000478763
0.000810264
0.000801689
0.000792972
0.000784114
0.000775119
0.000765989
0.000756727
0.000747338
0.000737823
0.000728189
0.000718438
0.000708576
0.000698608
0.000688539
0.000678375
0.000668121
0.000657784
0.00064737
0.000636887
0.00062634
0.000615737
0.000605085
0.000594393
0.000583667
0.000572916
0.000562148
0.00055137
0.000540592
0.000529822
0.000519067
0.000508336
0.000497638
0.000486981
0.000476373
0.000816626
0.000807895
0.000799013
0.000789982
0.000780803
0.000771481
0.000762019
0.000752419
0.000742686
0.000732824
0.000722838
0.000712732
0.000702512
0.000692184
0.000681752
0.000671225
0.000660607
0.000649906
0.000639129
0.000628284
0.000617378
0.000606418
0.000595414
0.000584374
0.000573305
0.000562217
0.000551119
0.000540019
0.000528926
0.00051785
0.000506798
0.000495782
0.000484808
0.000473887
0.000823203
0.000814316
0.000805267
0.000796059
0.000786695
0.000777177
0.000767509
0.000757695
0.000747738
0.000737643