/*--------------------------------*- C++ -*----------------------------------*\
| =========                 |                                                 |
| \\      /  F ield         | OpenFOAM: The Open Source CFD Toolbox           |
|  \\    /   O peration     | Version:  2412                                  |
|   \\  /    A nd           | Website:  www.openfoam.com                      |
|    \\/     M anipulation  |                                                 |
\*---------------------------------------------------------------------------*/
FoamFile
{
    version     2.0;
    format      ascii;
    arch        "LSB;label=32;scalar=64";
    class       surfaceScalarField;
    location    "10";
    object      phi;
}
// * * * * * * * * * * * * * * * * * * * * * * * * * * * * * * * * * * * * * //

dimensions      [0 3 -1 0 0 0 0];

oriented        oriented;

internalField   nonuniform List<scalar> 
10423
(
-4.93603e-05
-0.00605285
0.00601499
-4.60848e-05
-0.00601827
0.00600935
-7.83344e-05
0.00600142
-0.000109902
0.0059913
-0.000140644
0.00597911
-0.000170377
0.00596496
-0.000198896
0.00594902
-0.000226025
0.00593144
-0.000251631
0.00591239
-0.000275622
0.00589207
-0.000297941
0.00587064
-0.000318565
0.00584831
-0.000337498
0.00582525
-0.000354757
0.00580164
-0.000370365
0.00577765
-0.000384345
0.00575344
-0.000396712
0.00572917
-0.000407475
0.00570496
-0.000416643
0.00568094
-0.000424223
0.00565723
-0.000430233
0.00563394
-0.000434707
0.00561115
-0.000437695
-0.000439267
0.0059831
-4.31004e-05
-0.00598608
0.00597796
-7.31953e-05
0.00597074
-0.000102681
0.00596152
-0.000131424
0.0059504
-0.000159257
0.00593749
-0.00018599
0.00592293
-0.000211465
0.00590686
-0.000235561
0.00588943
-0.000258194
0.00587081
-0.000279316
0.00585115
-0.000298906
0.00583062
-0.00031697
0.00580939
-0.000333521
0.0057876
-0.00034858
0.00576542
-0.000362161
0.00574298
-0.000374272
0.00572042
-0.000384914
0.00569786
-0.000394085
0.00567542
-0.000401785
0.00565321
-0.000408021
0.00563132
-0.000412817
0.00560984
-0.000416214
-0.000418273
0.00595332
-4.03691e-05
-0.00595605
0.00594863
-6.85009e-05
0.00594204
-9.60877e-05
0.00593362
-0.000123005
0.00592346
-0.000149099
0.00591166
-0.000174196
0.00589835
-0.00019815
0.00588364
-0.000220853
0.00586767
-0.000242228
0.00585059
-0.000262233
0.00583254
-0.000280852
0.00581366
-0.000298088
0.00579409
-0.000313956
0.00577398
-0.000328469
0.00575346
-0.000341637
0.00573265
-0.000353464
0.00571168
-0.000363942
0.00569065
-0.000373061
0.00566968
-0.000380815
0.00564886
-0.000387204
0.00562829
-0.000392243
0.00560804
-0.000395966
-0.000398426
0.00592549
-3.78578e-05
-0.005928
0.00592118
-6.41979e-05
0.00591515
-9.005e-05
0.00590744
-0.000115298
0.00589814
-0.000139801
0.00588734
-0.000163397
0.00587515
-0.000185955
0.00586167
-0.000207374
0.00584703
-0.000227586
0.00583135
-0.000246553
0.00581475
-0.00026426
0.00579738
-0.000280712
0.00577934
-0.000295919
0.00576077
-0.000309895
0.00574177
-0.000322643
0.00572247
-0.000334162
0.00570297
-0.000344439
0.00568337
-0.00035346
0.00566376
-0.000361211
0.00564425
-0.000367688
0.00562491
-0.000372901
0.00560582
-0.000376877
-0.000379662
0.00589943
-3.55375e-05
-0.00590175
0.00589547
-6.02394e-05
0.00588992
-8.45049e-05
0.00588285
-0.000108227
0.00587432
-0.000131272
0.00586442
-0.000153494
0.00585323
-0.00017477
0.00584087
-0.000195008
0.00582743
-0.000214145
0.00581302
-0.000232147
0.00579776
-0.000249002
0.00578176
-0.000264711
0.00576513
-0.000279286
0.00574797
-0.000292734
0.00573038
-0.000305058
0.00571247
-0.000316251
0.00569433
-0.000326297
0.00567605
-0.000335178
0.00565771
-0.000342877
0.00563941
-0.000349387
0.00562122
-0.000354712
0.00560322
-0.000358875
-0.000361918
0.00587501
-3.33836e-05
-0.00587716
0.00587135
-5.65851e-05
0.00586624
-7.93979e-05
0.00585974
-0.000101722
0.0058519
-0.000123433
0.0058428
-0.000144396
0.00583253
-0.000164496
0.00582117
-0.000183649
0.00580882
-0.000201795
0.00579558
-0.000218903
0.00578154
-0.000234961
0.00576679
-0.00024997
0.00575145
-0.000263939
0.00573559
-0.000276873
0.0057193
-0.000288771
0.00570267
-0.000299624
0.00568579
-0.000309414
0.00566873
-0.00031812
0.00565158
-0.000325725
0.00563441
-0.000332217
0.0056173
-0.0003376
0.00560032
-0.000341894
-0.000345135
0.0058521
-3.13757e-05
-0.00585411
0.00584871
-5.32005e-05
0.005844
-7.46814e-05
0.005838
-9.57243e-05
0.00583078
-0.000116214
0.00582241
-0.000136023
0.00581296
-0.000155046
0.00580251
-0.000173203
0.00579116
-0.000190437
0.00577897
-0.000206718
0.00576604
-0.000222033
0.00575245
-0.000236383
0.00573829
-0.000249773
0.00572362
-0.000262206
0.00570853
-0.000273679
0.00569309
-0.000284182
0.00567737
-0.000293694
0.00566144
-0.000302196
0.00564539
-0.000309668
0.00562927
-0.0003161
0.00561317
-0.000321494
0.00559714
-0.000325868
-0.000329256
0.0058306
-2.94964e-05
-0.00583248
0.00582745
-5.00564e-05
0.00582309
-7.03147e-05
0.00581755
-9.01828e-05
0.00581089
-0.000109553
0.00580317
-0.000128306
0.00579446
-0.000146342
0.00578485
-0.000163585
0.00577439
-0.00017998
0.00576317
-0.000195496
0.00575125
-0.00021012
0.00573872
-0.00022385
0.00572564
-0.000236688
0.00571207
-0.000248635
0.00569807
-0.000259687
0.00568372
-0.000269831
0.00566908
-0.000279049
0.0056542
-0.000287321
0.00563916
-0.000294629
0.00562403
-0.000300963
0.00560886
-0.000306327
0.00559373
-0.000310737
-0.000314226
0.00581041
-2.77324e-05
-0.00581217
0.00580748
-4.71282e-05
0.00580343
-6.62624e-05
0.0057983
-8.50519e-05
0.00579214
-0.000103395
0.00578501
-0.000121181
0.00577698
-0.000138313
0.00576812
-0.000154717
0.00575848
-0.000170341
0.00574813
-0.000185151
0.00573715
-0.000199132
0.00572557
-0.000212279
0.00571348
-0.000224591
0.00570091
-0.000236067
0.00568793
-0.000246702
0.00567458
-0.000256483
0.00566092
-0.000265393
0.00564702
-0.000273414
0.00563292
-0.000280531
0.00561869
-0.000286737
0.0056044
-0.000292035
0.0055901
-0.000296444
-0.000299994
0.00579144
-2.60735e-05
-0.0057931
0.00578871
-4.43957e-05
0.00578494
-6.24947e-05
0.00578018
-8.02925e-05
0.00577448
-9.76931e-05
0.00576789
-0.000114591
0.00576047
-0.000130894
0.00575229
-0.000146529
0.00574339
-0.000161443
0.00573384
-0.000175601
0.00572369
-0.000188984
0.00571299
-0.000201583
0.0057018
-0.000213394
0.00569014
-0.000224415
0.00567808
-0.000234638
0.00566565
-0.000244053
0.0056529
-0.000252645
0.00563989
-0.000260399
0.00562666
-0.000267303
0.00561328
-0.000273354
0.0055998
-0.000278558
0.00558629
-0.000282934
-0.000286512
0.00577363
-2.45126e-05
-0.00577519
0.00577108
-4.18429e-05
0.00576757
-5.89866e-05
0.00576315
-7.58705e-05
0.00575786
-9.24036e-05
0.00575175
-0.000108485
0.00574488
-0.000124027
0.00573731
-0.000138955
0.00572908
-0.000153215
0.00572025
-0.00016677
0.00571086
-0.000179594
0.00570095
-0.000191677
0.00569057
-0.000203012
0.00567975
-0.000213592
0.00566852
-0.000223412
0.00565693
-0.000232462
0.00564502
-0.000240729
0.00563282
-0.000248204
0.0056204
-0.000254879
0.0056078
-0.000260755
0.00559508
-0.000265841
0.0055823
-0.000270159
-0.000273738
0.0057569
-2.30457e-05
-0.00575836
0.00575451
-3.94574e-05
0.00575124
-5.57175e-05
0.00574713
-7.17569e-05
0.00574221
-8.74894e-05
0.00573655
-0.000102819
0.00573018
-0.000117658
0.00572316
-0.000131934
0.00571553
-0.000145589
0.00570734
-0.000158582
0.00569863
-0.000170886
0.00568944
-0.000182482
0.00567979
-0.000193362
0.00566972
-0.000203518
0.00565925
-0.000212943
0.00564841
-0.00022163
0.00563726
-0.00022957
0.00562581
-0.000236759
0.00561413
-0.000243194
0.00560225
-0.000248881
0.00559024
-0.000253832
0.00557815
-0.000258072
-0.00026163
0.00574118
-2.16713e-05
-0.00574256
0.00573895
-3.72302e-05
0.00573591
-5.26701e-05
0.00573208
-6.79264e-05
0.0057275
-8.29169e-05
0.00572223
-9.75492e-05
0.00571631
-0.000111737
0.00570979
-0.000125408
0.0057027
-0.000138501
0.00569509
-0.000150971
0.00568699
-0.000162784
0.00567843
-0.000173921
0.00566943
-0.000184367
0.00566003
-0.000194113
0.00565024
-0.000203154
0.00564009
-0.000211483
0.00562962
-0.000219099
0.00561886
-0.000225999
0.00560785
-0.000232189
0.00559665
-0.000237678
0.0055853
-0.000242483
0.00557386
-0.000246631
-0.000250152
0.00572643
-2.03896e-05
-0.00572771
0.00572435
-3.51543e-05
0.00572151
-4.98305e-05
0.00571794
-6.43574e-05
0.00571368
-7.86568e-05
0.00570877
-9.26393e-05
0.00570325
-0.000106221
0.00569717
-0.000119326
0.00569056
-0.000131892
0.00568346
-0.000143869
0.0056759
-0.00015522
0.0056679
-0.00016592
0.00565948
-0.000175951
0.00565067
-0.000185303
0.00564149
-0.000193971
0.00563196
-0.000201953
0.00562211
-0.000209249
0.00561197
-0.000215864
0.00560159
-0.000221808
0.00559101
-0.000227096
0.00558028
-0.00023175
0.00556944
-0.000235797
-0.00023927
0.00571257
-1.92019e-05
-0.00571376
0.00571064
-3.32248e-05
0.005708
-4.71869e-05
0.00570467
-6.10311e-05
0.00570069
-7.46826e-05
0.00569611
-8.80552e-05
0.00569096
-0.000101066
0.00568527
-0.000113638
0.00567908
-0.000125706
0.00567243
-0.000137217
0.00566534
-0.000148128
0.00565783
-0.00015841
0.00564992
-0.000168044
0.00564164
-0.000177018
0.00563299
-0.000185327
0.00562401
-0.000192973
0.00561472
-0.000199959
0.00560515
-0.000206296
0.00559535
-0.000211999
0.00558534
-0.00021709
0.00557518
-0.000221592
0.00556492
-0.000225536
-0.000228953
0.00569955
-1.81101e-05
-0.00570064
0.00569776
-3.14375e-05
0.00569531
-4.4729e-05
0.0056922
-5.79306e-05
0.00568849
-7.09708e-05
0.0056842
-8.37663e-05
0.00567937
-9.62348e-05
0.00567404
-0.0001083
0.00566822
-0.000119893
0.00566196
-0.000130958
0.00565528
-0.000141448
0.0056482
-0.00015133
0.00564074
-0.000160583
0.00563292
-0.000169195
0.00562475
-0.00017716
0.00561626
-0.000184483
0.00560748
-0.000191172
0.00559842
-0.000197244
0.00558914
-0.000202717
0.00557967
-0.000207617
0.00557005
-0.000211972
0.00556033
-0.000215813
-0.000219173
0.00568731
-1.71158e-05
-0.0056883
0.00568566
-2.97881e-05
0.00568338
-4.2447e-05
0.00568049
-5.50408e-05
0.00567702
-6.75001e-05
0.005673
-7.97449e-05
0.00566846
-9.16947e-05
0.00566343
-0.000103273
0.00565794
-0.000114409
0.00565203
-0.000125043
0.00564571
-0.000135127
0.005639
-0.000144624
0.00563193
-0.000153512
0.00562451
-0.000161776
0.00561677
-0.000169414
0.00560871
-0.000176431
0.00560038
-0.000182841
0.0055918
-0.000188661
0.005583
-0.000193918
0.00557402
-0.000198639
0.00556491
-0.000202855
0.00555569
-0.000206598
-0.000209902
0.00567578
-0.00567668
-1.62196e-05
0.00567427
-2.82709e-05
0.00567215
-4.03315e-05
0.00566946
-5.23472e-05
0.00566621
-6.4251e-05
0.00566243
-7.59666e-05
0.00565815
-8.74154e-05
0.0056534
-9.85212e-05
0.0056482
-0.000109213
0.00564259
-0.000119429
0.00563658
-0.000129119
0.0056302
-0.000138245
0.00562347
-0.000146781
0.00561641
-0.000154714
0.00560904
-0.000162042
0.00560138
-0.000168772
0.00559346
-0.00017492
0.00558531
-0.000180509
0.00557695
-0.000185565
0.00556844
-0.000190122
0.00555979
-0.00019421
0.00555106
-0.000197863
-0.000201114
0.00569589
0.000311779
-0.00567513
0.000550115
0.00566739
0.000292252
-0.00564786
0.00570032
0.000517183
0.00574643
0.000737401
0.00580534
0.00095015
0.00587652
0.00115275
0.0059593
0.00134265
0.00151724
0.00564069
0.000273831
-0.00562227
0.00567246
0.000485408
0.00571736
0.000692505
0.00577499
0.000892516
0.00584484
0.00108291
0.00592621
0.00126128
0.00142518
0.00561563
0.000256408
-0.00559821
0.00564636
0.000454677
0.00569016
0.000648705
0.00574664
0.000836034
0.00581527
0.00101428
0.00589537
0.00118119
0.00133447
0.00559208
0.000239886
-0.00557556
0.00562187
0.000424892
0.00566467
0.000605898
0.00572011
0.000780597
0.00578764
0.000946754
0.00586657
0.00110225
0.00124498
0.00556993
0.000224182
-0.00555422
0.00559885
0.000395967
0.00564076
0.000563996
0.00569524
0.000726113
0.00576176
0.000880234
0.00583963
0.00102438
0.00115661
0.00554907
0.000209219
-0.00553411
0.00557721
0.000367824
0.00561829
0.000522919
0.0056719
0.0006725
0.0057375
0.000814634
0.0058144
0.000947488
0.00106927
0.00552941
0.00019493
-0.00551513
0.00555684
0.000340393
0.00559717
0.000482595
0.00564999
0.000619684
0.00571474
0.000749875
0.00579075
0.000871481
0.000982859
0.00551088
0.000181254
-0.0054972
0.00553766
0.000313612
0.00557729
0.000442958
0.00562938
0.000567596
0.00569337
0.000685888
0.00576856
0.000796291
0.000897311
0.00549338
0.000168135
-0.00548026
0.00551957
0.000287422
0.00555858
0.00040395
0.00561
0.000516173
0.00567328
0.000622607
0.00574772
0.000721849
0.000812554
0.00547685
0.000155522
-0.00546424
0.0055025
0.000261772
0.00554094
0.000365514
0.00559175
0.00046536
0.00565438
0.000559973
0.00572814
0.000648094
0.00072852
0.00546123
0.000143371
-0.00544908
0.00548639
0.000236612
0.0055243
0.000327601
0.00557456
0.000415102
0.0056366
0.000497929
0.00570973
0.000574966
0.00064515
0.00544646
0.000131637
-0.00543473
0.00547117
0.000211898
0.00550861
0.000290162
0.00555836
0.00036535
0.00561987
0.000436424
0.00569242
0.000502409
0.000562386
0.00543248
0.000120282
-0.00542113
0.00545679
0.000187589
0.0054938
0.000253155
0.00554309
0.000316057
0.00560411
0.000375407
0.00567615
0.000430373
0.000480171
0.00541925
0.00010927
-0.00540824
0.0054432
0.000163645
0.00547982
0.000216537
0.00552869
0.000267178
0.00558927
0.000314831
0.00566084
0.000358805
0.000398453
0.00540673
9.85665e-05
-0.00539602
0.00543034
0.000140031
0.00546661
0.00018027
0.00551511
0.000218673
0.00557529
0.000254653
0.00564644
0.00028766
0.000317182
0.00539486
8.81417e-05
-0.00538443
0.00541817
0.000116714
0.00545412
0.000144319
0.00550229
0.000170504
0.00556212
0.00019483
0.00563288
0.000216891
0.00023631
0.0053836
7.7968e-05
-0.00537343
0.00540665
9.36643e-05
0.00544232
0.000108652
0.00549019
0.000122634
0.00554969
0.000135324
0.00562013
0.000146459
0.000155793
0.00537293
6.80216e-05
-0.00536298
0.00539574
7.08564e-05
0.00543115
7.32409e-05
0.00547875
7.50344e-05
0.00553797
7.6103e-05
0.0056081
7.63256e-05
7.55921e-05
0.0053628
-0.00535306
5.8282e-05
0.00538539
4.82681e-05
0.00542057
3.80613e-05
0.00546792
2.76785e-05
0.00552689
1.71374e-05
0.00559676
6.45951e-06
-4.33152e-06
0.00566791
-0.000167886
7.14457e-05
0.00580647
-0.00117967
-0.00587481
0.00574898
-0.000999633
0.00570321
-0.000804889
0.00566978
-0.000598351
0.0056492
-0.000382677
0.00564182
-0.000160507
6.54058e-05
0.00578651
-0.00111057
-0.00585561
0.00572821
-0.000941337
0.00568157
-0.000758247
0.00564723
-0.000564008
0.00562568
-0.000361129
0.00561729
-0.000152115
6.04242e-05
0.00576747
-0.0010408
-0.00583723
0.00570846
-0.000882329
0.00566105
-0.000710837
0.00562589
-0.000528847
0.00560348
-0.000338717
0.00559418
-0.000142815
5.63956e-05
0.00574931
-0.000970461
-0.00581966
0.00568968
-0.000822692
0.00564159
-0.000662746
0.00560569
-0.000492955
0.00558251
-0.00031553
0.00557239
-0.000132698
5.32263e-05
0.005732
-0.000899613
-0.00580285
0.00567181
-0.0007625
0.00562311
-0.000614049
0.00558657
-0.000456411
0.00556268
-0.000291648
0.00555183
-0.000121845
5.08332e-05
0.00571549
-0.000828319
-0.00578678
0.00565481
-0.000701816
0.00560557
-0.000564813
0.00556844
-0.000419284
0.00554393
-0.000267141
0.00553242
-0.000110327
4.91426e-05
0.00569974
-0.000756634
-0.00577143
0.00563863
-0.000640698
0.00558891
-0.000515096
0.00555126
-0.000381632
0.00552619
-0.000242071
0.00551407
-9.82098e-05
4.80886e-05
0.00568473
-0.000684606
-0.00575676
0.00562323
-0.000579194
0.00557308
-0.00046495
0.00553496
-0.000343512
0.00550938
-0.000216495
0.00549672
-8.55502e-05
4.76121e-05
0.00567041
-0.000612274
-0.00574274
0.00560856
-0.000517347
0.00555803
-0.000414421
0.00551949
-0.000304969
0.00549346
-0.000190461
0.00548031
-7.23997e-05
4.76594e-05
0.00565675
-0.000539677
-0.00572934
0.00559459
-0.000455196
0.00554372
-0.000363548
0.0055048
-0.000266048
0.00547836
-0.000164015
0.00546476
-5.88054e-05
4.81822e-05
0.00564371
-0.000466844
-0.00571654
0.00558129
-0.000392775
0.00553011
-0.000312369
0.00549085
-0.000226786
0.00546403
-0.000137198
0.00545003
-4.48091e-05
4.91361e-05
0.00563127
-0.000393805
-0.00570431
0.0055686
-0.000330113
0.00551715
-0.000260915
0.00547758
-0.000187218
0.00545043
-0.000110045
0.00543607
-3.04494e-05
5.04807e-05
0.00561939
-0.000320583
-0.00569261
0.00555651
-0.000267237
0.00550481
-0.000209216
0.00546497
-0.000147375
0.00543751
-8.25896e-05
0.00542283
-1.57619e-05
5.21789e-05
0.00560804
-0.000247201
-0.00568143
0.00554498
-0.000204172
0.00549306
-0.000157298
0.00545297
-0.000107285
0.00542524
-5.4862e-05
0.00541026
-7.78839e-07
5.4197e-05
0.00559721
-0.000173678
-0.00567073
0.00553398
-0.000140939
0.00548186
-0.000105183
0.00544155
-6.69742e-05
0.00541358
-2.68919e-05
0.00539833
1.44742e-05
5.65026e-05
0.00558686
-0.000100032
-0.00566051
0.00552348
-7.75557e-05
0.00547119
-5.28947e-05
0.00543068
-2.64625e-05
0.00540249
1.29459e-06
0.005387
2.99688e-05
5.90686e-05
0.00557698
-2.62778e-05
-0.00565073
0.00551346
-1.40402e-05
0.00546102
-4.53039e-07
0.00542033
1.42233e-05
0.00539194
2.96917e-05
0.00537623
4.56753e-05
6.18685e-05
0.00556753
4.75677e-05
-0.00564138
0.0055039
4.95905e-05
0.00545132
5.21338e-05
0.00541047
5.50696e-05
0.0053819
5.82627e-05
0.005366
6.15799e-05
6.48807e-05
0.00555852
-0.00563245
0.000121494
0.00549478
0.000113327
0.00544207
0.000104844
0.00540108
9.60613e-05
0.00537235
8.69943e-05
0.00535627
7.76629e-05
6.8086e-05
0.00528366
0.00029998
0.00528974
0.000308652
0.00529637
0.000317449
0.00530357
0.000326352
0.00531138
0.00033534
0.00531984
0.000344389
0.00532898
0.000353469
0.00533884
0.000362546
0.00534945
0.000371584
0.00536084
0.000380538
0.00537306
0.00038936
0.00538614
0.000397997
0.0054001
0.000406391
0.00541497
0.000414475
0.00543077
0.000422181
0.00544752
0.000429432
0.00546523
0.000436146
0.00548391
0.000442236
0.00550355
0.000447611
0.00552414
0.000452172
0.00554566
0.000455818
0.00556807
0.000458443
0.00559133
0.000459941
0.00561538
0.000460202
0.00564014
0.000459116
0.00566552
0.000456575
0.00569142
0.000452476
0.00571772
0.000446717
0.00574428
0.000439206
0.00577095
0.000429857
0.00579755
0.000418585
0.0058239
0.000405287
0.00584977
0.000389747
0.000371235
0.00529236
0.000294264
0.00529856
0.000302445
0.00530529
0.000310719
0.00531258
0.000319069
0.00532044
0.000327474
0.00532893
0.000335906
0.00533806
0.000344338
0.00534787
0.000352737
0.00535839
0.000361064
0.00536965
0.000369277
0.00538168
0.00037733
0.0053945
0.000385172
0.00540815
0.000392745
0.00542264
0.000399989
0.00543798
0.000406838
0.00545419
0.00041322
0.00547128
0.00041906
0.00548924
0.000424277
0.00550806
0.000428785
0.00552774
0.000432497
0.00554823
0.00043532
0.00556952
0.000437159
0.00559154
0.000437918
0.00561424
0.0004375
0.00563755
0.000435808
0.00566138
0.000432748
0.00568562
0.000428228
0.00571018
0.000422164
0.00573491
0.000414474
0.00575968
0.000405088
0.00578433
0.000393936
0.00580869
0.000380929
0.00583255
0.000365885
0.000348174
0.00530056
0.000288439
0.00530686
0.000296145
0.00531366
0.000303917
0.005321
0.000311737
0.00532889
0.000319583
0.00533736
0.00032743
0.00534645
0.000335248
0.00535619
0.000343004
0.00536659
0.000350662
0.00537768
0.000358181
0.0053895
0.000365516
0.00540205
0.000372618
0.00541536
0.000379432
0.00542945
0.000385902
0.00544432
0.000391965
0.00545999
0.000397554
0.00547645
0.000402599
0.0054937
0.000407027
0.00551173
0.000410758
0.00553051
0.000413713
0.00555002
0.000415807
0.00557023
0.000416955
0.00559107
0.000417072
0.0056125
0.000416071
0.00563445
0.000413867
0.00565682
0.000410377
0.00567952
0.000405522
0.00570246
0.000399228
0.0057255
0.000391429
0.00574853
0.000382063
0.00577139
0.000371073
0.00579393
0.000358387
0.00581597
0.000343848
0.000326912
0.00530829
0.000282531
0.00531466
0.000289779
0.0053215
0.00029707
0.00532886
0.000304383
0.00533674
0.000311698
0.00534518
0.000318987
0.00535421
0.000326224
0.00536384
0.000333375
0.00537409
0.000340406
0.005385
0.000347275
0.00539658
0.00035394
0.00540884
0.000360355
0.0054218
0.000366468
0.00543548
0.000372225
0.00544988
0.000377567
0.005465
0.000382434
0.00548084
0.000386759
0.00549739
0.000390474
0.00551464
0.000393509
0.00553256
0.000395789
0.00555113
0.000397239
0.0055703
0.000397783
0.00559003
0.000397343
0.00561026
0.000395843
0.00563092
0.000393209
0.00565193
0.000389367
0.0056732
0.000384249
0.00569464
0.000377793
0.00571612
0.000369941
0.00573754
0.000360642
0.00575877
0.00034985
0.00577965
0.000337504
0.00580003
0.000323472
0.000307284
0.00531556
0.000276563
0.00532197
0.000283372
0.00532883
0.000290202
0.00533618
0.000297032
0.00534404
0.000303841
0.00535242
0.000310603
0.00536136
0.000317291
0.00537086
0.000323873
0.00538095
0.000330314
0.00539165
0.000336577
0.00540297
0.000342619
0.00541493
0.000348397
0.00542753
0.000353863
0.00544079
0.000358965
0.00545471
0.000363649
0.00546929
0.000367857
0.00548452
0.00037153
0.00550039
0.000374604
0.00551688
0.000377015
0.00553398
0.000378696
0.00555164
0.000379578
0.00556983
0.000379594
0.0055885
0.000378673
0.00560759
0.000376749
0.00562704
0.000373756
0.00564678
0.00036963
0.00566672
0.000364312
0.00568676
0.000357748
0.00570681
0.000349891
0.00572676
0.000340697
0.00574648
0.000330129
0.00576585
0.000318137
0.00578471
0.00030461
0.000289143
0.00532239
0.000270558
0.00532881
0.000276947
0.00533568
0.000283336
0.00534301
0.000289706
0.00535081
0.000296035
0.00535912
0.000302299
0.00536794
0.000308469
0.00537729
0.000314516
0.0053872
0.000320406
0.00539768
0.000326103
0.00540873
0.000331567
0.00542037
0.000336755
0.00543261
0.000341624
0.00544545
0.000346125
0.00545889
0.000350207
0.00547293
0.000353817
0.00548756
0.0003569
0.00550277
0.000359398
0.00551853
0.000361252
0.00553482
0.000362401
0.00555162
0.000362784
0.00556887
0.000362339
0.00558654
0.000361006
0.00560457
0.000358723
0.00562289
0.000355433
0.00564144
0.000351081
0.00566013
0.000345617
0.00567889
0.000338993
0.00569761
0.000331169
0.0057162
0.000322112
0.00573454
0.000311788
0.00575252
0.000300158
0.00577
0.00028713
0.000272356
0.00532879
0.000264535
0.00533522
0.000270522
0.00534206
0.000276491
0.00534934
0.000282424
0.00535708
0.000288299
0.00536529
0.000294092
0.00537398
0.000299776
0.00538318
0.000305321
0.00539289
0.000310696
0.00540312
0.000315865
0.0054139
0.000320792
0.00542522
0.000325436
0.00543709
0.000329756
0.00544951
0.000333706
0.00546247
0.000337239
0.00547598
0.000340306
0.00549003
0.000342857
0.00550459
0.000344837
0.00551965
0.000346194
0.00553518
0.000346873
0.00555114
0.000346818
0.00556751
0.000345973
0.00558423
0.000344286
0.00560125
0.000341702
0.00561851
0.00033817
0.00563595
0.000333643
0.00565349
0.000328077
0.00567105
0.000321433
0.00568854
0.000313676
0.00570588
0.000304778
0.00572295
0.000294713
0.00573966
0.00028345
0.00575588
0.000270912
0.000256803
0.00533479
0.000258511
0.0053412
0.000264115
0.00534801
0.000269685
0.00535523
0.000275204
0.00536288
0.000280649
0.00537097
0.000285998
0.00537952
0.000291225
0.00538854
0.0002963
0.00539804
0.000301194
0.00540803
0.000305873
0.00541852
0.000310303
0.00542952
0.000314445
0.00544101
0.000318259
0.00545301
0.000321705
0.00546551
0.000324738
0.00547851
0.000327313
0.00549198
0.000329384
0.00550592
0.000330901
0.0055203
0.000331815
0.00553509
0.000332078
0.00555027
0.00033164
0.00556579
0.00033045
0.00558162
0.000328461
0.00559769
0.000325626
0.00561396
0.0003219
0.00563036
0.000317242
0.00564683
0.000311613
0.00566328
0.000304981
0.00567964
0.000297317
0.00569582
0.000288598
0.00571173
0.000278803
0.00572727
0.000267908
0.00574233
0.00025585
0.000242377
0.0053404
0.000252503
0.00534678
0.000257741
0.00535353
0.000262933
0.00536067
0.000268059
0.00536822
0.0002731
0.00537619
0.000278031
0.00538459
0.000282828
0.00539342
0.000287464
0.00540271
0.00029191
0.00541245
0.000296135
0.00542264
0.000300104
0.00543331
0.000303782
0.00544443
0.000307134
0.00545602
0.000310119
0.00546806
0.000312697
0.00548055
0.000314826
0.00549347
0.000316464
0.0055068
0.000317566
0.00552053
0.000318088
0.00553462
0.000317985
0.00554905
0.000317212
0.00556377
0.000315726
0.00557875
0.000313482
0.00559394
0.00031044
0.00560928
0.000306561
0.00562471
0.000301808
0.00564018
0.00029615
0.0056556
0.000289558
0.00567091
0.000282008
0.00568602
0.000273482
0.00570086
0.000263964
0.00571534
0.000253435
0.00572934
0.000241844
0.00022898
0.00534565
0.000246525
0.00535197
0.000251416
0.00535866
0.000256249
0.00536571
0.000261004
0.00537315
0.000265662
0.00538098
0.000270201
0.00538921
0.000274597
0.00539785
0.000278823
0.00540691
0.000282852
0.00541639
0.000286654
0.0054263
0.000290197
0.00543663
0.00029345
0.00544739
0.000296376
0.00545857
0.00029894
0.00547016
0.000301105
0.00548216
0.000302831
0.00549454
0.000304081
0.00550729
0.000304812
0.00552039
0.000304986
0.00553382
0.000304561
0.00554753
0.000303498
0.0055615
0.000301757
0.00557568
0.000299299
0.00559003
0.000296089
0.0056045
0.000292093
0.00561903
0.000287278
0.00563356
0.000281618
0.00564803
0.000275088
0.00566237
0.00026767
0.00567651
0.000259348
0.00569036
0.000250111
0.00570385
0.000239944
0.00571689
0.000228806
0.000216523
0.00535054
0.000240588
0.0053568
0.00024515
0.00536341
0.000249643
0.00537036
0.000254049
0.00537768
0.000258347
0.00538536
0.000262518
0.00539342
0.000266537
0.00540186
0.000270381
0.00541069
0.000274022
0.00541991
0.000277433
0.00542952
0.000280584
0.00543953
0.000283444
0.00544992
0.000285982
0.0054607
0.000288162
0.00547186
0.000289952
0.00548337
0.000291315
0.00549524
0.000292215
0.00550743
0.000292617
0.00551994
0.000292482
0.00553272
0.000291776
0.00554576
0.000290461
0.00555901
0.000288503
0.00557244
0.000285868
0.00558601
0.000282524
0.00559966
0.000278441
0.00561335
0.000273592
0.00562701
0.000267953
0.0056406
0.000261505
0.00565404
0.000254231
0.00566726
0.000246121
0.00568021
0.000237166
0.0056928
0.000227355
0.00570495
0.000216657
0.000204928
0.00535509
0.000234705
0.00536128
0.000238955
0.0053678
0.000243127
0.00537465
0.000247202
0.00538183
0.000251163
0.00538936
0.000254989
0.00539724
0.000258657
0.00540548
0.000262144
0.00541407
0.000265426
0.00542303
0.000268475
0.00543235
0.000271264
0.00544203
0.000273764
0.00545207
0.000275945
0.00546246
0.000277776
0.00547318
0.000279225
0.00548424
0.00028026
0.0054956
0.000280849
0.00550726
0.000280956
0.0055192
0.00028055
0.00553137
0.000279598
0.00554377
0.000278067
0.00555634
0.000275926
0.00556907
0.000273145
0.0055819
0.000269696
0.00559478
0.000265553
0.00560768
0.000260692
0.00562054
0.000255095
0.0056333
0.000248743
0.00564591
0.000241625
0.0056583
0.000233732
0.00567041
0.000225058
0.00568217
0.000215596
0.0056935
0.000205322
0.000194122
0.00535932
0.000228884
0.00536544
0.000232839
0.00537186
0.000236708
0.00537858
0.000240473
0.00538563
0.000244117
0.005393
0.00024762
0.0054007
0.00025096
0.00540873
0.000254116
0.00541709
0.000257063
0.00542578
0.000259778
0.00543481
0.000262233
0.00544418
0.000264403
0.00545386
0.000266259
0.00546387
0.000267772
0.00547418
0.000268914
0.00548478
0.000269654
0.00549567
0.000269962
0.00550682
0.000269809
0.0055182
0.000269165
0.0055298
0.000267998
0.00554159
0.000266282
0.00555353
0.000263988
0.00556558
0.000261089
0.00557772
0.00025756
0.00558989
0.00025338
0.00560205
0.000248529
0.00561416
0.000242988
0.00562616
0.000236746
0.00563799
0.000229791
0.00564961
0.000222117
0.00566094
0.000213721
0.00567194
0.0002046
0.00568253
0.000194736
0.000184039
0.00536325
0.000223134
0.00536928
0.00022681
0.00537559
0.000230394
0.0053822
0.000233867
0.0053891
0.000237214
0.00539631
0.000240415
0.00540382
0.00024345
0.00541163
0.000246298
0.00541976
0.000248936
0.0054282
0.000251341
0.00543694
0.00025349
0.00544599
0.000255357
0.00545533
0.000256915
0.00546496
0.00025814
0.00547487
0.000259004
0.00548505
0.000259479
0.00549547
0.000259538
0.00550613
0.000259154
0.00551699
0.0002583
0.00552804
0.000256948
0.00553925
0.000255074
0.00555059
0.000252653
0.00556201
0.00024966
0.0055735
0.000246075
0.005585
0.000241878
0.00559648
0.000237052
0.00560788
0.000231582
0.00561917
0.000225458
0.00563029
0.000218671
0.00564119
0.000211218
0.00565181
0.000203097
0.00566211
0.000194307
0.00567201
0.000184837
0.000174619
0.00536689
0.000217462
0.00537283
0.000220876
0.00537903
0.000224191
0.00538551
0.000227391
0.00539226
0.000230459
0.0053993
0.000233378
0.00540662
0.000236128
0.00541423
0.00023869
0.00542212
0.000241042
0.0054303
0.000243163
0.00543876
0.000245029
0.0054475
0.000246619
0.00545651
0.000247907
0.00546578
0.000248869
0.0054753
0.000249482
0.00548506
0.000249719
0.00549504
0.000249556
0.00550523
0.000248968
0.0055156
0.000247931
0.00552612
0.000246421
0.00553678
0.000244413
0.00554755
0.000241888
0.00555839
0.000238823
0.00556926
0.000235201
0.00558014
0.000231003
0.00559097
0.000226217
0.00560172
0.000220828
0.00561235
0.00021483
0.00562281
0.000208215
0.00563304
0.000200982
0.00564301
0.000193131
0.00565266
0.000184662
0.00566192
0.000175571
0.000165808
0.00537027
0.000211876
0.0053761
0.000215041
0.00538219
0.000218103
0.00538853
0.000221047
0.00539514
0.000223855
0.005402
0.000226511
0.00540914
0.000228997
0.00541653
0.000231293
0.00542419
0.000233381
0.00543212
0.000235239
0.0054403
0.000236847
0.00544874
0.000238182
0.00545742
0.000239224
0.00546634
0.000239949
0.00547549
0.000240335
0.00548485
0.00024036
0.0054944
0.000239999
0.00550414
0.000239232
0.00551404
0.000238036
0.00552407
0.000236388
0.00553421
0.00023427
0.00554444
0.000231661
0.00555472
0.000228543
0.00556502
0.0002249
0.00557531
0.000220716
0.00558554
0.000215981
0.00559569
0.000210683
0.0056057
0.000204816
0.00561554
0.000198375
0.00562516
0.00019136
0.00563452
0.000183772
0.00564357
0.000175614
0.00565226
0.000166887
0.000157557
0.00537339
0.000206379
0.00537912
0.000209311
0.00538509
0.000212136
0.0053913
0.000214839
0.00539775
0.000217405
0.00540444
0.000219816
0.00541138
0.000222056
0.00541857
0.000224106
0.005426
0.000225949
0.00543368
0.000227566
0.00544159
0.000228936
0.00544973
0.00023004
0.0054581
0.000230857
0.00546668
0.000231368
0.00547546
0.00023155
0.00548444
0.000231384
0.00549359
0.000230849
0.00550289
0.000229924
0.00551234
0.00022859
0.0055219
0.000226827
0.00553156
0.000224617
0.00554127
0.000221942
0.00555103
0.000218787
0.00556079
0.000215137
0.00557053
0.00021098
0.00558021
0.000206305
0.00558978
0.000201104
0.00559923
0.000195372
0.0056085
0.000189106
0.00561755
0.000182306
0.00562635