/*--------------------------------*- C++ -*----------------------------------*\
| =========                 |                                                 |
| \\      /  F ield         | OpenFOAM: The Open Source CFD Toolbox           |
|  \\    /   O peration     | Version:  2412                                  |
|   \\  /    A nd           | Website:  www.openfoam.com                      |
|    \\/     M anipulation  |                                                 |
\*---------------------------------------------------------------------------*/
FoamFile
{
    version     2.0;
    format      ascii;
    arch        "LSB;label=32;scalar=64";
    class       volScalarField;
    location    "26.5";
    object      p;
}
// * * * * * * * * * * * * * * * * * * * * * * * * * * * * * * * * * * * * * //

dimensions      [0 2 -2 0 0 0 0];

internalField   nonuniform List<scalar> 
5285
(
-0.00093204
-0.000872669
-0.000903275
-0.000923735
-0.000942713
-0.000959411
-0.000972805
-0.000982955
-0.000990077
-0.000994287
-0.000995689
-0.000994406
-0.00099057
-0.000984321
-0.000975802
-0.00096516
-0.000952544
-0.000938104
-0.000921991
-0.000904353
-0.000885342
-0.000865102
-0.000843776
-0.000821507
-0.000817381
-0.000846541
-0.000866606
-0.000885242
-0.000901737
-0.000915175
-0.000925606
-0.000933214
-0.000938101
-0.000940356
-0.000940085
-0.000937408
-0.000932449
-0.000925337
-0.000916205
-0.000905189
-0.000892425
-0.000878052
-0.000862209
-0.000845032
-0.000826657
-0.000807216
-0.000786842
-0.000765818
-0.000793607
-0.000813246
-0.000831509
-0.000847756
-0.000861175
-0.000871804
-0.000879803
-0.000885259
-0.000888247
-0.000888863
-0.000887212
-0.000883404
-0.000877555
-0.000869787
-0.000860222
-0.000848985
-0.000836203
-0.000822004
-0.000806513
-0.000789858
-0.000772159
-0.00075354
-0.000717662
-0.000744152
-0.000763349
-0.000781215
-0.000797183
-0.000810532
-0.000821292
-0.0008296
-0.000835531
-0.000839151
-0.000840542
-0.000839797
-0.000837015
-0.000832302
-0.000825764
-0.000817515
-0.000807669
-0.000796341
-0.000783649
-0.000769709
-0.000754638
-0.000738548
-0.000721554
-0.000672622
-0.000697886
-0.00071663
-0.000734088
-0.000749755
-0.000762993
-0.000773828
-0.000782377
-0.000788704
-0.000792864
-0.000794932
-0.000794988
-0.000793121
-0.000789426
-0.000784
-0.000776944
-0.000768364
-0.000758364
-0.000747053
-0.000734538
-0.000720927
-0.000706323
-0.000690833
-0.000630436
-0.000654545
-0.000672834
-0.000689876
-0.000705225
-0.000718322
-0.000729187
-0.000737918
-0.000744571
-0.000749194
-0.000751851
-0.000752615
-0.000751564
-0.000748782
-0.000744359
-0.000738386
-0.000730958
-0.000722171
-0.000712126
-0.00070092
-0.000688653
-0.000675421
-0.000661321
-0.000590874
-0.000613893
-0.000631726
-0.000648351
-0.000663373
-0.000676305
-0.00068716
-0.000696025
-0.000702945
-0.000707962
-0.000711132
-0.00071252
-0.000712195
-0.000710234
-0.000706715
-0.000701723
-0.000695344
-0.000687666
-0.00067878
-0.000668777
-0.000657748
-0.000645782
-0.00063297
-0.000553723
-0.000575715
-0.000593099
-0.000609307
-0.000623997
-0.000636744
-0.00064756
-0.000656516
-0.000663652
-0.000669003
-0.000672619
-0.000674556
-0.000674878
-0.000673652
-0.00067095
-0.000666847
-0.000661423
-0.000654758
-0.000646934
-0.000638036
-0.000628147
-0.00061735
-0.000605729
-0.000518796
-0.00053982
-0.000556761
-0.000572558
-0.000586913
-0.000599462
-0.000610212
-0.000619224
-0.000626531
-0.000632164
-0.000636167
-0.000638589
-0.000639486
-0.00063892
-0.000636954
-0.000633657
-0.000629102
-0.000623361
-0.000616511
-0.000608628
-0.00059979
-0.000590072
-0.000579553
-0.000485921
-0.000506034
-0.00052254
-0.000537932
-0.000551954
-0.000564294
-0.000574957
-0.000583996
-0.000591436
-0.000597305
-0.000601642
-0.00060449
-0.000605899
-0.000605924
-0.000604622
-0.000602056
-0.000598292
-0.000593395
-0.000587437
-0.000580487
-0.000572616
-0.000563895
-0.000554395
-0.000454943
-0.000474197
-0.00049028
-0.000505275
-0.000518966
-0.00053109
-0.000541651
-0.00055069
-0.00055823
-0.000564297
-0.000568922
-0.000572144
-0.000574007
-0.000574561
-0.000573858
-0.000571955
-0.00056891
-0.000564785
-0.000559643
-0.00055355
-0.000546571
-0.000538769
-0.000530213
-0.000425721
-0.000444167
-0.000459836
-0.000474444
-0.000487809
-0.000499713
-0.000510158
-0.000519177
-0.00052679
-0.000533018
-0.00053789
-0.000541439
-0.000543706
-0.000544734
-0.000544571
-0.000543268
-0.000540877
-0.000537457
-0.000533064
-0.000527758
-0.0005216
-0.000514648
-0.000506965
-0.000398129
-0.000415812
-0.00043108
-0.000445311
-0.000458356
-0.000470037
-0.000480354
-0.000489336
-0.000496998
-0.000503357
-0.000508439
-0.000512275
-0.0005149
-0.000516352
-0.000516675
-0.000515916
-0.000514121
-0.000511344
-0.000507637
-0.000503055
-0.000497653
-0.000491485
-0.00048461
-0.000372048
-0.000389013
-0.000403892
-0.000417757
-0.000430488
-0.000441945
-0.000452128
-0.000461057
-0.000468746
-0.00047521
-0.000480472
-0.000484557
-0.000487498
-0.00048933
-0.000490092
-0.000489824
-0.000488573
-0.000486383
-0.000483305
-0.000479387
-0.000474682
-0.000469239
-0.000463111
-0.000347372
-0.000363661
-0.000378164
-0.000391673
-0.000404098
-0.000415332
-0.000425374
-0.000434238
-0.000441937
-0.000448482
-0.000453895
-0.000458197
-0.000461418
-0.00046359
-0.000464745
-0.000464924
-0.000464165
-0.000462513
-0.00046001
-0.000456704
-0.00045264
-0.000447866
-0.00044243
-0.000324004
-0.000339657
-0.000353796
-0.000366961
-0.000379087
-0.0003901
-0.000399995
-0.000408785
-0.000416478
-0.000423085
-0.000428623
-0.000433114
-0.000436582
-0.000439056
-0.000440567
-0.000441149
-0.000440839
-0.000439677
-0.000437702
-0.000434957
-0.000431485
-0.000427329
-0.000422533
-0.000301857
-0.00031691
-0.000330698
-0.000343529
-0.000355365
-0.000366158
-0.000375905
-0.000384611
-0.000392285
-0.000398935
-0.000404578
-0.000409231
-0.000412917
-0.00041566
-0.000417491
-0.000418438
-0.000418537
-0.000417822
-0.000416331
-0.000414102
-0.000411175
-0.000407589
-0.000403386
-0.000280858
-0.000295346
-0.000308786
-0.000321292
-0.000332846
-0.000343424
-0.000353019
-0.000361636
-0.000369279
-0.000375958
-0.000381685
-0.000386477
-0.000390354
-0.000393338
-0.000395455
-0.000396734
-0.000397204
-0.000396897
-0.000395849
-0.000394095
-0.00039167
-0.000388611
-0.000384958
-0.000664655
-0.000712018
-0.000621556
-0.000666189
-0.000710119
-0.000753277
-0.000795708
-0.000836955
-0.00087524
-0.000581232
-0.000623358
-0.000664775
-0.000705418
-0.000745315
-0.00078404
-0.000820071
-0.000543452
-0.000583269
-0.000622372
-0.0006607
-0.000698272
-0.000734689
-0.000768652
-0.000508011
-0.000545696
-0.000582667
-0.000618861
-0.000654292
-0.00068859
-0.00072065
-0.000474719
-0.000510435
-0.000545435
-0.000579662
-0.000613119
-0.000645469
-0.000675774
-0.000443402
-0.000477295
-0.000510474
-0.000542881
-0.000574518
-0.000605074
-0.000633755
-0.000413906
-0.000446109
-0.000477599
-0.000508324
-0.000538277
-0.000567178
-0.000594355
-0.000386091
-0.000416725
-0.000446649
-0.000475813
-0.000504207
-0.000531578
-0.000557361
-0.000359832
-0.000389006
-0.000417475
-0.00044519
-0.000472138
-0.000498094
-0.000522582
-0.000335013
-0.000362829
-0.000389944
-0.000416312
-0.000441917
-0.000466561
-0.000489846
-0.000311531
-0.00033808
-0.000363934
-0.000389048
-0.000413405
-0.000436831
-0.000458996
-0.000289291
-0.000314658
-0.000339335
-0.000363281
-0.000386476
-0.00040877
-0.000429891
-0.000268208
-0.00029247
-0.000316048
-0.000338903
-0.000361016
-0.000382256
-0.000402404
-0.000248202
-0.000271429
-0.00029398
-0.000315817
-0.000336919
-0.000357178
-0.000376417
-0.000229201
-0.00025146
-0.000273048
-0.000293933
-0.000314091
-0.000333435
-0.000351824
-0.000211139
-0.000232489
-0.000253177
-0.000273169
-0.000292445
-0.000310933
-0.000328528
-0.000193956
-0.000214452
-0.000234293
-0.00025345
-0.000271898
-0.000289586
-0.000306438
-0.000177596
-0.000197288
-0.000216333
-0.000234704
-0.00025238
-0.000269323
-0.000285482
-0.000162012
-0.000180954
-0.000199256
-0.000216893
-0.000233844
-0.000250086
-0.000265587
-0.000568189
-0.000616686
-0.000294909
-0.000346009
-0.000391551
-0.00043759
-0.00048421
-0.000530519
-0.000576307
-0.000272128
-0.000320302
-0.000363541
-0.000407221
-0.00045137
-0.000495189
-0.000538485
-0.00025048
-0.00029598
-0.000337104
-0.00037861
-0.000420484
-0.000462009
-0.000503008
-0.000229899
-0.000272953
-0.00031213
-0.00035163
-0.000391404
-0.000430812
-0.000469692
-0.000210326
-0.000251134
-0.000288516
-0.00032616
-0.000363993
-0.000401445
-0.000438366
-0.000191697
-0.000230443
-0.000266165
-0.000302088
-0.000338124
-0.000373764
-0.000408869
-0.000173959
-0.000210803
-0.000244987
-0.000279314
-0.000313681
-0.00034764
-0.000381061
-0.000157058
-0.000192149
-0.000224904
-0.000257744
-0.000290557
-0.00032296
-0.000354816
-0.000140947
-0.000174417
-0.000205843
-0.000237296
-0.00026865
-0.000299613
-0.000330015
-0.000125581
-0.000157551
-0.000187739
-0.00021791
-0.00024796
-0.000277517
-0.000306555
-0.000110917
-0.000141495
-0.000170526
-0.000199487
-0.000228271
-0.000256568
-0.000284339
-9.69165e-05
-0.000126202
-0.000154148
-0.000181971
-0.000209573
-0.000236697
-0.000263285
-8.35448e-05
-0.000111631
-0.000138558
-0.000165315
-0.000191811
-0.00021783
-0.000243311
-7.07585e-05
-9.77217e-05
-0.000123701
-0.000149482
-0.000174921
-0.000199899
-0.000224343
-5.8517e-05
-8.44039e-05
-0.000109543
-0.000134361
-0.000158836
-0.000182844
-0.000206314
-4.68375e-05
-7.18063e-05
-9.59956e-05
-0.000119932
-0.000143514
-0.000166611
-0.000189166
-3.56306e-05
-5.96466e-05
-8.30706e-05
-0.000106187
-0.000128913
-0.000151147
-0.000172841
-2.49078e-05
-4.80704e-05
-7.07545e-05
-9.3081e-05
-0.000114991
-0.00013641
-0.000157292
-1.46483e-05
-3.69999e-05
-5.89592e-05
-8.05347e-05
-0.00010168
-0.000122338
-0.000142462
0.000948689
0.00093912
0.00092849
0.000916728
0.000903762
0.000889518
0.000873917
0.000856882
0.000838334
0.000818194
0.000796384
0.000772827
0.000747449
0.000720181
0.000690955
0.000659714
0.000626406
0.00059099
0.000553437
0.000513727
0.000471861
0.000427853
0.000381736
0.000333564
0.000283415
0.000231387
0.000177605
0.000122218
6.54025e-05
7.35904e-06
-5.16901e-05
-0.000111526
-0.000171674
-0.000231453
0.000925893
0.000915897
0.000904868
0.00089274
0.000879447
0.000864922
0.000849094
0.000831892
0.000813247
0.000793088
0.000771345
0.000747953
0.000722847
0.000695967
0.000667258
0.000636672
0.000604169
0.000569717
0.000533296
0.000494897
0.000454528
0.000412208
0.000367977
0.000321892
0.00027403
0.000224489
0.000173389
0.000120871
6.70993e-05
1.2262e-05
-4.34368e-05
-9.97966e-05
-0.000156384
-0.000212569
0.00090397
0.000893603
0.000882231
0.000869796
0.000856236
0.000841491
0.000825496
0.000808187
0.000789503
0.000769381
0.000747759
0.000724582
0.000699792
0.000673339
0.000645179
0.000615272
0.000583586
0.000550098
0.000514798
0.000477683
0.000438766
0.000398075
0.00035565
0.000311551
0.000265854
0.000218656
0.00017007
0.000120231
6.92934e-05
1.74301e-05
-3.517e-05
-8.83237e-05
-0.000141635
-0.000194522
0.000882899
0.000872212
0.000860551
0.000847862
0.00083409
0.000819178
0.00080307
0.000785708
0.000767036
0.000747
0.000725546
0.000702625
0.000678189
0.000652195
0.000624607
0.000595394
0.000564531
0.000532004
0.000497806
0.000461944
0.000424435
0.000385309
0.00034461
0.000302399
0.000258752
0.00021376
0.000167533
0.000120199
7.18996e-05
2.27977e-05
-2.69333e-05
-7.71255e-05
-0.000127418
-0.000177275
0.000862658
0.000851699
0.000839797
0.000826904
0.000812968
0.000797939
0.000781765
0.000764396
0.000745782
0.000725875
0.000704628
0.000681999
0.000657947
0.000632437
0.000605439
0.000576929
0.00054689
0.000515312
0.000482197
0.000447554
0.000411404
0.000373781
0.000334731
0.000294314
0.000252604
0.000209691
0.000165678
0.000120684
7.48451e-05
2.83097e-05
-1.87617e-05
-6.62148e-05
-0.000113721
-0.000160789
0.000843227
0.000832038
0.00081994
0.000806886
0.000792831
0.000777729
0.000761533
0.000744198
0.000725681
0.000705939
0.000684933
0.000662625
0.000638981
0.000613974
0.000587578
0.000559776
0.000530556
0.000499915
0.000467857
0.000434396
0.000399558
0.000363377
0.0003259
0.000287186
0.000247309
0.000206353
0.000164418
0.000121615
7.807e-05
3.39222e-05
-1.06808e-05
-5.55971e-05
-0.000100528
-0.000145024
0.000824581
0.000813204
0.00080095
0.000787775
0.000773641
0.000758504
0.000742324
0.00072506
0.000706674
0.00068713
0.000666391
0.000644428
0.000621213
0.000596721
0.000570935
0.00054384
0.000515432
0.00048571
0.000454683
0.000422368
0.000388792
0.000353992
0.000318014
0.000280918
0.000242773
0.000203662
0.000163677
0.000122925
8.15225e-05
3.95982e-05
-2.71134e-06
-4.52754e-05
-8.78222e-05
-0.000129943
0.000806697
0.000795168
0.000782794
0.000769536
0.000755358
0.000740222
0.000724091
0.00070693
0.000688704
0.000669383
0.000648937
0.000627338
0.000604565
0.000580599
0.000555425
0.000529035
0.000501427
0.000472604
0.00044258
0.000411372
0.00037901
0.000345531
0.000310983
0.000275421
0.000238915
0.000201542
0.00016339
0.000124559
8.51573e-05
4.53055e-05
5.12936e-06
-3.52506e-05
-7.55881e-05
-0.000115512
0.000789551
0.000777903
0.000765443
0.000752134
0.000737944
0.000722839
0.000706787
0.000689756
0.000671717
0.000652642
0.000632506
0.000611287
0.000588967
0.000565531
0.00054097
0.000515278
0.000488456
0.000460512
0.00043146
0.000401321
0.000370125
0.00033791
0.000304722
0.000270617
0.00023566
0.000199925
0.000163495
0.000126465
8.89353e-05
5.10173e-05
1.28277e-05
-2.5522e-05
-6.38091e-05
-0.000101699
0.000773117
0.000761381
0.000748864
0.000735534
0.00072136
0.000706315
0.000690367
0.00067349
0.000655658
0.000636848
0.000617038
0.000596211
0.000574351
0.000551449
0.000527496
0.000502493
0.000476442
0.000449353
0.000421243
0.000392135
0.000362058
0.00033105
0.000299158
0.000266434
0.000232942
0.000198752
0.000163942
0.000128601
9.28228e-05
5.67109e-05
2.03731e-05
-1.60872e-05
-5.2469e-05
-8.84714e-05
0.000757371
0.000745575
0.000733028
0.000719703
0.000705571
0.000690608
0.000674788
0.000658085
0.000640479
0.000621949
0.000602477
0.00058205
0.000560655
0.000538284
0.000514936
0.00049061
0.000465312
0.000439056
0.000411857
0.00038374
0.000354736
0.000324882
0.000294222
0.00026281
0.000230703
0.00019797
0.000164684
0.000130929
9.6791e-05
6.23673e-05
2.77577e-05
-6.94214e-06
-4.15513e-05
-7.58007e-05
0.000742288
0.000730456
0.000717904
0.000704607
0.000690541
0.000675681
0.000660007
0.000643496
0.000626131
0.000607893
0.000588769
0.000568746
0.000547818
0.000525977
0.000503225
0.000479563
0.000455001
0.000429551
0.000403233
0.000376071
0.000348094
0.000319341
0.000289855
0.000259686
0.00022889
0.000197532
0.000165681
0.000133415
0.000100815
6.79709e-05
3.49755e-05
1.91786e-06
-3.10401e-05
-6.36592e-05
0.000727843
0.000715998
0.000703463
0.000690215
0.000676233
0.000661496
0.000645984
0.00062968
0.000612567
0.000594632
0.000575862
0.000556248
0.000535785
0.00051447
0.000492304
0.000469293
0.000445447
0.000420779
0.00039531
0.000369065
0.000342073
0.000314371
0.000286001
0.000257012
0.000227457
0.000197396
0.000166897
0.00013603
0.000104873
7.35085e-05
4.20227e-05
1.04986e-05
-2.09193e-05
-5.20204e-05
0.000714013
0.000702175
0.000689676
0.000676495
0.000662615
0.000648016
0.000632681
0.000616596
0.000599746
0.000582119
0.000563708
0.000544504
0.000524504
0.000503708
0.000482119
0.000459743
0.000436593
0.000412682
0.000388032
0.000362667
0.000336618
0.000309919
0.000282611
0.000254741
0.000226361
0.000197526
0.0001683
0.000138749
0.000108947
7.89694e-05
4.88967e-05
1.88065e-05
-1.11727e-05
-4.08569e-05
0.000700772
0.000688959
0.000676514
0.000663417
0.000649653
0.000635206
0.000620061
0.000604204
0.000587624
0.000570312
0.000552262
0.000533467
0.000513926
0.000493642
0.000472617
0.000450862
0.000428386
0.000405208
0.000381346
0.000356827
0.000331679
0.000305937
0.00027964
0.000252833
0.000225564
0.000197888
0.000169862
0.000141551
0.000113021
8.43447e-05
5.55958e-05
2.68475e-05
-1.78655e-06
-3.01456e-05
0.000688098
0.000676327
0.00066395
0.000650951
0.000637317
0.000623033
0.000608087
0.000592467
0.000576163
0.00055917
0.000541481
0.000523093
0.000504007
0.000484225
0.000463753
0.0004426
0.00042078
0.000398308
0.000375206
0.000351497
0.000327212
0.000302383
0.000277048
0.00025125
0.000225034
0.000198452
0.00017156
0.000144415
0.000117082
8.96272e-05
6.21195e-05
3.46277e-05
7.25201e-06
-1.98698e-05
0.000675968
0.000664252
0.000651957
0.00063907
0.000625576
0.000611465
0.000596726
0.000581349
0.000565326
0.000548653
0.000531324
0.00051334
0.000494702
0.000475413
0.00045548
0.000434914
0.000413728
0.000391938
0.000369566
0.000346636
0.000323176
0.000299218
0.000274798
0.000249958
0.00022474
0.000199194
0.00017337
0.000147326
0.000121118
9.48113e-05
6.84685e-05
4.21548e-05
1.59578e-05
-1.00045e-05
0.000664359
0.000652711
0.000640511
0.000627745
0.000614402
0.000600472
0.000585946
0.000570817
0.000555077
0.000538724
0.000521755
0.000504171
0.000485972
0.000467166
0.000447759
0.000427762
0.00040719
0.000386058
0.000364389
0.000342204
0.000319533
0.000296406
0.000272858
0.000248927
0.000224655
0.000200088
0.000175275
0.000150267
0.000125121
9.98927e-05
7.46438e-05
4.9435e-05
2.43427e-05
-5.33791e-07
0.00065325
0.000641681
0.000629585
0.00061695
0.000603766
0.000590024
0.000575717
0.000560838
0.000545384
0.000529351
0.000512738
0.000495547
0.000477781
0.000459446
0.000440551
0.000421107
0.000401128
0.00038063
0.000359636
0.000338166
0.00031625
0.000293915
0.000271196
0.00024813
0.000224755
0.000201116
0.000177257
0.000153228
0.00012908
0.000104868
8.06469e-05
5.64741e-05
3.24148e-05
8.55326e-06
0.000642836
0.000631356
0.000619371
0.000606871
0.000593849
0.000580296
0.000566207
0.000551576
0.000536401
0.00052068
0.000504412
0.0004876
0.00047025
0.000452366
0.000433958
0.000415038
0.00039562
0.000375722
0.000355362
0.000334564
0.000313354
0.00029176
0.000269815
0.000247553
0.000225012
0.000202232
0.000179258
0.000156134
0.00013291
0.000109634
8.636e-05
6.31398e-05
4.00275e-05
1.70831e-05
0.000632965
0.00062158
0.000609712
0.000597353
0.000584496
0.000571134
0.000557263
0.000542879
0.000527979
0.000512563
0.000496633
0.00048019
0.000463241
0.000445793
0.000427854
0.000409437
0.000390556
0.000371228
0.000351473
0.000331312
0.000310771
0.000289878
0.000268662
0.000247158
0.000225401
0.00020343
0.000181284
0.000159009
0.000136647
0.000114248
9.18585e-05
6.95285e-05
4.73078e-05
2.52486e-05
0.000623322
0.00061204
0.000600298
0.000588088
0.000575404
0.00056224
0.000548593
0.00053446
0.00051984
0.000504733
0.000489142
0.000473069
0.00045652
0.000439504
0.00042203
0.00040411
0.000385758
0.00036699
0.000347828
0.00032829
0.000308403
0.000288192
0.000267687
0.000246919
0.000225922
0.000204732
0.000183389
0.000161932
0.000140404
0.000118849
9.73123e-05
7.58399e-05
5.44794e-05
3.3279e-05
0.000613909
0.00060274
0.000591132
0.000579078
0.000566573
0.000553614
0.000540196
0.000526319
0.000511982
0.000497186
0.000481934
0.00046623
0.000450081
0.000433494
0.000416479
0.000399049
0.000381218
0.000363001
0.000344419
0.000325491
0.000306241
0.000286694
0.000266879
0.000246825
0.000226565
0.000206133
0.000185564
0.000164898
0.000144174
0.000123432
0.000102717
8.20696e-05
6.15359e-05
4.11606e-05
0.000604728
0.000593679
0.000582213
0.000570322
0.000558004
0.000545254
0.000532071
0.000518453
0.000504402
0.000489919
0.000475007
0.000459671
0.000443918
0.000427756
0.000411196
0.000394249
0.000376929
0.000359252
0.000341238
0.000322905
0.000304276
0.000285376
0.000266232
0.000246871
0.000227324
0.000207623
0.000187804
0.0001679
0.000147951
0.000127993
0.000108067
8.82139e-05
6.84744e-05
4.8891e-05
0.000595781
0.000584861
0.000573543
0.000561822
0.000549695
0.00053716
0.000524215
0.00051086
0.000497096
0.000482927
0.000468355
0.000453386
0.000438026
0.000422285
0.000406173
0.000389701
0.000372883
0.000355736
0.000338277
0.000320525
0.000302501
0.00028423
0.000265736
0.000247046
0.00022819
0.000209197
0.0001901
0.000170933
0.000151729
0.000132526
0.00011336
9.42694e-05
7.52927e-05
5.6469e-05
0.000597481
0.00058707
0.000576285
0.000565121
0.000553576
0.000541646
0.000529329
0.000516626
0.000503536
0.000490062
0.000476206
0.000461973
0.000447368
0.000432399
0.000417073
0.000401403
0.000385398
0.000369073
0.000352444
0.000335527
0.000318341
0.000300907
0.000283246
0.000265383
0.000247344
0.000229156
0.000210847
0.000192447
0.000173989
0.000155504
0.000137027
0.000118591
0.000100233
8.19888e-05
6.38939e-05
0.000588883
0.000578596
0.000567952
0.000556949
0.000545584
0.000533855
0.000521761
0.000509302
0.000496479
0.000483295
0.000469752
0.000455856
0.000441613
0.00042703
0.000412115
0.000396878
0.000381333
0.000365491
0.000349368
0.000332981
0.000316346
0.000299484
0.000282417
0.000265166
0.000247757
0.000230214
0.000212565
0.000194838
0.000177063
0.00015927
0.000141491
0.000123758
0.000106103
8.85611e-05
7.1165e-05
0.000580517
0.000570358
0.000559862
0.000549025
0.000537845
0.000526321
0.000514452
0.000502239
0.000489684
0.00047679
0.00046356
0.00045
0.000436115
0.000421912
0.000407402
0.000392593
0.000377498
0.000362129
0.000346501
0.000330629
0.000314531
0.000298226
0.000281734
0.000265076
0.000248276
0.000231357
0.000214345
0.000197267
0.00018015
0.000163023
0.000145915
0.000128856
0.000111876
9.50081e-05
7.82821e-05
0.000572382
0.000562359
0.000552015
0.000541348
0.000530357
0.00051904
0.000507399
0.000495435
0.000483149
0.000470544
0.000457625
0.000444397
0.000430866
0.00041704
0.000402928
0.000388539
0.000373885
0.000358978
0.000343833
0.000328464
0.000312888
0.000297124
0.00028119
0.000265106
0.000248895
0.000232578
0.000216181
0.000199728
0.000183244
0.000166757
0.000150294
0.000133882
0.000117551
0.000101329
8.5245e-05
0.000564479
0.000554596
0.000544409
0.000533916
0.000523117
0.000512012
0.0005006
0.000488884
0.000476867
0.000464551
0.000451941
0.000439043
0.000425862
0.000412407
0.000398686
0.000384709
0.000370487
0.000356032
0.000341357
0.000326478
0.00031141
0.000296169
0.000280776
0.000265247
0.000249605
0.00023387
0.000218066
0.000202214
0.00018634
0.000170468
0.000154624
0.000138834
0.000123125
0.000107522
9.20537e-05
0.000556807
0.000547069
0.000537043
0.000526729
0.000516125
0.000505232
0.000494051
0.000482585
0.000470835
0.000458807
0.000446503
0.000433931
0.000421096
0.000408006
0.000394669
0.000381095
0.000367295
0.000353281
0.000339065
0.000324662
0.000310086
0.000295355
0.000280484
0.000265493
0.0002504
0.000235227
0.000219993
0.000204721
0.000189433
0.000174152
0.000158903
0.000143709
0.000128596
0.000113587
9.87084e-05
0.000549367
0.000539778
0.000529917
0.000519783
0.000509376
0.000498697
0.000487748
0.000476531
0.000465049
0.000453305
0.000441305
0.000429055
0.00041656
0.000403829
0.000390869
0.00037769
0.000364303
0.000350718
0.000336949
0.000323008
0.000308911
0.000294672
0.000280308
0.000265836
0.000251274
0.000236641
0.000221957
0.000207242
0.000192518
0.000177805
0.000163127
0.000148505
0.000133963
0.000119523
0.000105209
0.000542158
0.000532721
0.000523027
0.000513076
0.000502868
0.000492405
0.000481687
0.000470718
0.000459502
0.000448041
0.000436342
0.000424409
0.000412249
0.00039987
0.000387279
0.000374486
0.000361502
0.000348336
0.000335001
0.00032151
0.000307876
0.000294114
0.000280239
0.000266268
0.000252218
0.000238106
0.000223952
0.000209773
0.00019559
0.000181423
0.000167292
0.000153219
0.000139224
0.00012533
0.000111556
0.000535178
0.000525896
0.000516373
0.000506606
0.000496598
0.00048635
0.000475864
0.000465143
0.00045419
0.000443009
0.000431606
0.000419986
0.000408155
0.000396121
0.000383892
0.000371476
0.000358884
0.000346126
0.000333213
0.000320158
0.000306973
0.000293673
0.000280271
0.000266784
0.000253227
0.000239617
0.000225972
0.000212308
0.000198645
0.000185001
0.000171396
0.000157849
0.000144379
0.000131006
0.00011775
0.000528425
0.000519302
0.00050995
0.00050037
0.000490563
0.00048053
0.000470275
0.000459799
0.000449107
0.000438203
0.000427092
0.000415779
0.000404272
0.000392576
0.0003807
0.000368652
0.000356442
0.000344081
0.000331578
0.000318945
0.000306195
0.000293341
0.000280396
0.000267376
0.000254294
0.000241168
0.000228012
0.000214843
0.000201679
0.000188538
0.000175436
0.000162392
0.000149425
0.000136552
0.000123791
0.000521899
0.000512935
0.000503757
0.000494364
0.000484758
0.00047494
0.000464914
0.000454682
0.000444249
0.000433617
0.000422794
0.000411783
0.000400592
0.000389227
0.000377696
0.000366007
0.000354169
0.000342193
0.000330087
0.000317864
0.000305534
0.000293112
0.000280608
0.000268037
0.000255414
0.000242752
0.000230066
0.000217373
0.000204689
0.000192028
0.000179409
0.000166848
0.000154361
0.000141966
0.00012968
0.000515596
0.000506794
0.00049779
0.000488584
0.000479179
0.000469575
0.000459777
0.000449786
0.000439608
0.000429246
0.000418705
0.000407991
0.000397109
0.000386067
0.000374873
0.000363533
0.000352057
0.000340454
0.000328734
0.000316907
0.000304984
0.000292978
0.000280899
0.000268762
0.000256579
0.000244364
0.000232131
0.000219894
0.000207669
0.00019547
0.000183313
0.000171214
0.000159187
0.00014725
0.000135417
0.000509514
0.000500875
0.000492046
0.000483028
0.000473822
0.000464431
0.000454858
0.000445107
0.00043518
0.000425082
0.000414818
0.000404394
0.000393816
0.00038309
0.000372223
0.000361223
0.000350098
0.000338858
0.000327511
0.000316067
0.000304537
0.000292932
0.000281264
0.000269544
0.000257784
0.000245999
0.0002342
0.000222401
0.000210616
0.000198859
0.000187145
0.000175488
0.000163902
0.000152402
0.000141003
0.000503651
0.000495176
0.000486521
0.00047769
0.000468683
0.000459503
0.000450154
0.000440637
0.000430958
0.00042112
0.000411128
0.000400988
0.000390706
0.000380287
0.000369739
0.00035907
0.000348286
0.000337397
0.000326411
0.000315337
0.000304187
0.000292969
0.000281696
0.000270377
0.000259025
0.000247651
0.000236269
0.00022489
0.000213527
0.000202194
0.000190904
0.00017967
0.000168505
0.000157423
0.000146438
0.000498004
0.000489692
0.000481212
0.000472567
0.000463758
0.000454786
0.000445657
0.000436372
0.000426936
0.000417353
0.000407628
0.000397765
0.000387772
0.000377653
0.000367415
0.000357066
0.000346612
0.000336063
0.000325426
0.000314711
0.000303926
0.000293082
0.000282188
0.000271255
0.000260294
0.000249317
0.000238334
0.000227357
0.000216399
0.000205471
0.000194586
0.000183757
0.000172994
0.000162312
0.000151723
0.000492569
0.000484421
0.000476115
0.000467654
0.00045904
0.000450275
0.000441363
0.000432306
0.000423109
0.000413776
0.000404311
0.000394719
0.000385007
0.000375179
0.000365243
0.000355204
0.000345071
0.000334851
0.000324551
0.000314181
0.000303748
0.000293263
0.000282735
0.000272173
0.000261588
0.000250991
0.000240391
0.0002298
0.000219228
0.000208689
0.000198191
0.000187748
0.000177371
0.00016707
0.000156859
0.000487344
0.000479358
0.000471225
0.000462947
0.000454527
0.000445965
0.000437266
0.000428433
0.00041947
0.000410381
0.00040117
0.000391843
0.000382404
0.000372859
0.000363215
0.000353478
0.000343655
0.000333752
0.000323778
0.000313741
0.000303648
0.000293508
0.000283331
0.000273126
0.000262901
0.000252668
0.000242435
0.000232213
0.000222012
0.000211843
0.000201717
0.000191643
0.000181633
0.000171697
0.000161846
0.000482324
0.0004745
0.000466539
0.000458442
0.000450212
0.00044185
0.000433361
0.000424748
0.000416014
0.000407163
0.0003982
0.00038913
0.000379957
0.000370687
0.000361326
0.000351881
0.000342357
0.000332761
0.000323101
0.000313384
0.000303618
0.000293811
0.000283971
0.000274108
0.000264229
0.000254344
0.000244463
0.000234594
0.000224747
0.000214933
0.00020516
0.00019544
0.00018578
0.000176193
0.000166686
0.000477507
0.000469843
0.000462051
0.000454133
0.00044609
0.000437926
0.000429642
0.000421244
0.000412733
0.000404115
0.000395394
0.000386573
0.000377659
0.000368655
0.000359569
0.000350405
0.00034117
0.000331871
0.000322513
0.000313105
0.000303653
0.000294165
0.000284649
0.000275114
0.000265566
0.000256016
0.00024647
0.000236939
0.000227432
0.000217956
0.000208521
0.000199137
0.000189813
0.000180557
0.000171379
0.000472887
0.000465383
0.000457758
0.000450016
0.000442157
0.000434186
0.000426104
0.000417915
0.000409623
0.000401232
0.000392745
0.000384167
0.000375503
0.000366758
0.000357937
0.000349045
0.000340089
0.000331075
0.000322009
0.000312897
0.000303747
0.000294566
0.000285361
0.000276139
0.000266909
0.000257678
0.000248454
0.000239246
0.000230062
0.00022091
0.000211798
0.000202735
0.00019373
0.000184791
0.000175927
0.000468462
0.000461115
0.000453655
0.000446085
0.000438408
0.000430626
0.000422741
0.000414757
0.000406678
0.000398506
0.000390248
0.000381905
0.000373484
0.000364988
0.000356423
0.000347794
0.000339107
0.000330368
0.000321581
0.000312755
0.000303895
0.000295008
0.0002861
0.00027718
0.000268253
0.000259328
0.000250412
0.000241512
0.000232636
0.000223793
0.000214989
0.000206233
0.000197532
0.000188895
0.000180328
0.000464228
0.000457035
0.000449737
0.000442337
0.000434837
0.000427239
0.000419547
0.000411762
0.00040389
0.000395933
0.000387895
0.000379781
0.000371594
0.000363339
0.000355022
0.000346646
0.000338218
0.000329743
0.000321226
0.000312673
0.000304091
0.000295485
0.000286863
0.00027823
0.000269594
0.000260961
0.000252338
0.000243733
0.000235152
0.000226603
0.000218093
0.000209629
0.000201218
0.000192868
0.000184586
0.00046018
0.000453139
0.000446
0.000438766
0.000431439
0.000424022
0.000416516
0.000408926
0.000401255
0.000393506
0.000385682
0.000377788
0.000369828
0.000361806
0.000353727
0.000345595
0.000337416
0.000329194
0.000320936
0.000312646
0.00030433
0.000295994
0.000287645
0.000279287
0.000270928
0.000262574
0.000254232
0.000245907
0.000237607
0.000229339
0.000221108
0.000212922
0.000204788
0.000196711
0.0001887
0.000456314
0.000449422
0.000442439
0.000435368
0.00042821
0.000420968
0.000413645
0.000406243
0.000398767
0.000391218
0.000383602
0.000375921
0.00036818
0.000360382
0.000352532
0.000344635
0.000336695
0.000328717
0.000320706
0.000312668
0.000304607
0.000296529
0.000288441
0.000280346
0.000272252
0.000264164
0.000256089
0.000248032
0.00024
0.000231998
0.000224034
0.000216113
0.000208241
0.000200425
0.000192671
0.000452626
0.00044588
0.00043905
0.000432137
0.000425144
0.000418072
0.000410926
0.000403707
0.00039642
0.000389066
0.000381649
0.000374174