/*--------------------------------*- C++ -*----------------------------------*\
| =========                 |                                                 |
| \\      /  F ield         | OpenFOAM: The Open Source CFD Toolbox           |
|  \\    /   O peration     | Version:  2412                                  |
|   \\  /    A nd           | Website:  www.openfoam.com                      |
|    \\/     M anipulation  |                                                 |
\*---------------------------------------------------------------------------*/
FoamFile
{
    version     2.0;
    format      ascii;
    arch        "LSB;label=32;scalar=64";
    class       volScalarField;
    location    "20.5";
    object      p;
}
// * * * * * * * * * * * * * * * * * * * * * * * * * * * * * * * * * * * * * //

dimensions      [0 2 -2 0 0 0 0];

internalField   nonuniform List<scalar> 
5285
(
0.000800549
0.000795625
0.000790399
0.000784856
0.000778984
0.00077277
0.000766197
0.000759254
0.000751926
0.000744197
0.000736055
0.000727484
0.000718471
0.000709003
0.000699064
0.000688643
0.000810577
0.000805785
0.000800685
0.000795263
0.000789504
0.000783393
0.000776917
0.000770059
0.000762804
0.000755137
0.000747042
0.000738505
0.000729509
0.00072004
0.000710082
0.000699621
0.000820884
0.000816237
0.000811277
0.000805988
0.000800355
0.000794363
0.000787996
0.000781237
0.00077407
0.000766479
0.000758446
0.000749956
0.000740991
0.000731534
0.00072157
0.000711082
0.000831474
0.000826986
0.000822179
0.000817037
0.000811546
0.000805687
0.000799444
0.000792799
0.000785736
0.000778235
0.00077028
0.000761852
0.000752932
0.000743503
0.000733547
0.000723045
0.00084235
0.000838035
0.000833396
0.000828418
0.000823082
0.000817372
0.000811269
0.000804756
0.000797812
0.000790419
0.000782558
0.000774208
0.000765351
0.000755965
0.000746033
0.000735533
0.000853516
0.000849389
0.000844934
0.000840134
0.000834971
0.000829427
0.000823481
0.000817116
0.00081031
0.000803042
0.000795293
0.00078704
0.000778263
0.000768939
0.000759047
0.000748566
0.000864974
0.00086105
0.000856796
0.000852191
0.000847219
0.000841858
0.000836088
0.00082989
0.00082324
0.000816117
0.000808499
0.000800362
0.000791684
0.000782441
0.00077261
0.000762166
0.000876727
0.000873023
0.000868986
0.000864595
0.00085983
0.000854672
0.000849098
0.000843086
0.000836613
0.000829655
0.000822189
0.00081419
0.000805633
0.000796492
0.000786741
0.000776356
0.000888775
0.000885309
0.000881507
0.000877348
0.000872811
0.000867875
0.000862517
0.000856713
0.000850438
0.000843668
0.000836377
0.000828538
0.000820124
0.000811108
0.000801463
0.000791159
0.000901119
0.000897909
0.000894361
0.000890454
0.000886166
0.000881473
0.000876353
0.000870779
0.000864725
0.000858166
0.000851074
0.00084342
0.000835175
0.00082631
0.000816794
0.000806597
0.00091376
0.000910824
0.00090755
0.000903916
0.000899897
0.000895471
0.000890611
0.000885291
0.000879484
0.000873161
0.000866294
0.000858851
0.000850802
0.000842114
0.000832756
0.000822693
0.000926696
0.000924055
0.000921075
0.000917735
0.000914008
0.000909871
0.000905296
0.000900255
0.000894721
0.000888662
0.000882047
0.000874844
0.000867019
0.000858539
0.000849368
0.00083947
0.000939925
0.000937599
0.000934936
0.000931911
0.000928501
0.000924677
0.000920413
0.000915679
0.000910444
0.000904677
0.000898344
0.000891411
0.000883843
0.000875602
0.000866651
0.000856949
0.000953445
0.000951454
0.00094913
0.000946445
0.000943375
0.000939891
0.000935964
0.000931564
0.000926659
0.000921214
0.000915195
0.000908566
0.000901287
0.000893319
0.000884623
0.000875155
0.000967251
0.000965618
0.000963655
0.000961334
0.00095863
0.000955512
0.000951952
0.000947916
0.00094337
0.00093828
0.000932609
0.000926317
0.000919363
0.000911707
0.000903303
0.000894106
0.000981338
0.000980085
0.000978507
0.000976576
0.000974264
0.000971541
0.000968376
0.000964734
0.000960582
0.000955881
0.000950592
0.000944675
0.000938085
0.000930779
0.000922708
0.000913826
0.000995698
0.000994849
0.000993681
0.000992165
0.000990273
0.000987974
0.000985235
0.000982021
0.000978295
0.000974019
0.00096915
0.000963646
0.000957462
0.000950548
0.000942855
0.000934331
0.00101032
0.0010099
0.00100917
0.0010081
0.00100665
0.00100481
0.00100253
0.000999772
0.000996509
0.000992695
0.000988287
0.000983238
0.000977501
0.000971026
0.000963758
0.000955642
0.00102521
0.00102524
0.00102496
0.00102436
0.00102339
0.00102203
0.00102024
0.00101799
0.00101522
0.00101191
0.001008
0.00100345
0.000998211
0.000992222
0.000985429
0.000977773
0.00104034
0.00104084
0.00104105
0.00104095
0.00104049
0.00103965
0.00103838
0.00103666
0.00103443
0.00103166
0.0010283
0.0010243
0.0010196
0.00101414
0.00100788
0.00100074
0.000851791
0.000851832
0.000851961
0.00085216
0.000852422
0.000852742
0.000853114
0.00085353
0.000853985
0.000854471
0.000854981
0.000855505
0.000856036
0.000856563
0.00085708
0.00085758
0.000858057
0.000858509
0.000858932
0.000859323
0.000859678
0.000859991
0.000860256
0.000860465
0.000860611
0.000860686
0.000860681
0.000860589
0.000860401
0.000860111
0.000859712
0.000859196
0.000858558
0.000857792
0.000856892
0.000855853
0.000854669
0.000853337
0.000851851
0.000850208
0.000848403
0.000846435
0.000844299
0.000841994
0.000839516
0.000836865
0.000834038
0.000831035
0.000827856
0.0008245
0.000820967
0.000817258
0.000813374
0.000809317
0.000805088
0.000854273
0.000854319
0.000854465
0.000854689
0.000854985
0.000855348
0.00085577
0.000856245
0.000856765
0.000857324
0.000857912
0.000858523
0.000859147
0.000859774
0.000860397
0.00086101
0.000861606
0.000862182
0.000862735
0.00086326
0.000863754
0.00086421
0.000864623
0.000864984
0.000865286
0.00086552
0.00086568
0.000865755
0.000865739
0.000865623
0.000865401
0.000865066
0.000864611
0.00086403
0.000863316
0.000862464
0.000861469
0.000860326
0.000859029
0.000857575
0.000855959
0.000854178
0.000852228
0.000850106
0.000847811
0.000845338
0.000842687
0.000839857
0.000836846
0.000833653
0.000830279
0.000826724
0.000822989
0.000819074
0.000814982
0.000856743
0.000856795
0.000856957
0.000857207
0.000857538
0.000857943
0.000858416
0.000858949
0.000859536
0.000860167
0.000860837
0.000861535
0.000862252
0.000862981
0.000863712
0.000864438
0.000865155
0.000865857
0.000866542
0.000867203
0.000867838
0.000868441
0.000869004
0.00086952
0.000869981
0.00087038
0.000870707
0.000870954
0.000871114
0.000871178
0.000871139
0.000870989
0.000870723
0.000870332
0.000869811
0.000869154
0.000868355
0.000867408
0.000866308
0.000865052
0.000863633
0.000862048
0.000860293
0.000858365
0.00085626
0.000853977
0.000851512
0.000848865
0.000846033
0.000843015
0.000839812
0.000836422
0.000832847
0.000829087
0.000825143
0.0008592
0.000859257
0.000859436
0.000859712
0.000860077
0.000860526
0.00086105
0.000861643
0.000862296
0.000863002
0.000863752
0.000864538
0.000865351
0.000866182
0.000867021
0.000867864
0.000868702
0.000869533
0.00087035
0.000871151
0.00087193
0.00087268
0.000873397
0.000874071
0.000874695
0.000875261
0.00087576
0.000876184
0.000876524
0.000876772
0.000876921
0.000876963
0.00087689
0.000876697
0.000876375
0.000875919
0.000875323
0.000874581
0.000873687
0.000872635
0.000871422
0.000870043
0.000868492
0.000866767
0.000864864
0.000862781
0.000860513
0.000858059
0.000855417
0.000852586
0.000849565
0.000846353
0.00084295
0.000839357
0.000835573
0.000861643
0.000861706
0.000861902
0.000862204
0.000862604
0.000863096
0.000863672
0.000864324
0.000865044
0.000865824
0.000866657
0.000867532
0.000868441
0.000869375
0.000870325
0.000871284
0.000872246
0.000873206
0.000874159
0.0008751
0.000876025
0.000876927
0.000877799
0.000878635
0.000879425
0.000880162
0.000880837
0.000881441
0.000881966
0.000882403
0.000882745
0.000882984
0.000883111
0.000883121
0.000883005
0.000882758
0.000882372
0.000881842
0.000881161
0.000880324
0.000879325
0.00087816
0.000876824
0.000875312
0.000873621
0.000871747
0.000869688
0.000867439
0.000865
0.000862367
0.00085954
0.000856518
0.0008533
0.000849886
0.000846277
0.000864071
0.000864138
0.000864351
0.000864679
0.000865115
0.00086565
0.000866278
0.00086699
0.000867778
0.000868634
0.000869549
0.000870514
0.00087152
0.000872558
0.00087362
0.000874697
0.000875784
0.000876875
0.000877965
0.000879049
0.000880122
0.000881177
0.000882209
0.000883209
0.000884168
0.00088508
0.000885934
0.000886723
0.000887437
0.000888068
0.000888608
0.000889049
0.000889382
0.000889601
0.000889698
0.000889666
0.000889498
0.000889187
0.000888728
0.000888113
0.000887338
0.000886397
0.000885285
0.000883997
0.000882529
0.000880876
0.000879036
0.000877004
0.000874779
0.000872357
0.000869737
0.000866918
0.000863898
0.000860677
0.000857255
0.000866481
0.000866554
0.000866784
0.000867139
0.000867609
0.000868189
0.000868869
0.000869641
0.000870498
0.000871429
0.000872427
0.000873483
0.000874587
0.00087573
0.000876904
0.000878101
0.000879314
0.000880537
0.000881766
0.000882995
0.000884218
0.00088543
0.000886622
0.000887789
0.000888922
0.000890011
0.000891049
0.000892026
0.000892933
0.000893763
0.000894506
0.000895154
0.0008957
0.000896134
0.00089645
0.00089664
0.000896697
0.000896614
0.000896385
0.000896002
0.000895459
0.000894752
0.000893874
0.000892819
0.000891585
0.000890164
0.000888555
0.000886752
0.000884753
0.000882555
0.000880156
0.000877553
0.000874745
0.000871732
0.000868511
0.000868873
0.000868952
0.000869199
0.00086958
0.000870086
0.00087071
0.000871442
0.000872275
0.0008732
0.000874208
0.00087529
0.000876437
0.000877639
0.000878889
0.000880176
0.000881493
0.000882833
0.000884191
0.00088556
0.000886935
0.000888311
0.00088968
0.000891037
0.000892374
0.000893682
0.000894953
0.000896177
0.000897347
0.000898452
0.000899485
0.000900436
0.000901297
0.00090206
0.000902716
0.000903258
0.000903677
0.000903967
0.000904119
0.000904127
0.000903985
0.000903684
0.00090322
0.000902586
0.000901776
0.000900786
0.000899609
0.000898243
0.000896682
0.000894922
0.000892961
0.000890796
0.000888423
0.000885841
0.000883049
0.000880046
0.000871245
0.000871329
0.000871594
0.000872001
0.000872543
0.000873211
0.000873997
0.000874891
0.000875884
0.000876969
0.000878135
0.000879374
0.000880676
0.000882032
0.000883433
0.000884872
0.00088634
0.000887833
0.000889344
0.000890867
0.000892397
0.000893927
0.000895451
0.00089696
0.000898446
0.000899902
0.000901317
0.000902682
0.00090399
0.00090523
0.000906394
0.000907474
0.000908459
0.000909343
0.000910117
0.000910772
0.000911302
0.000911698
0.000911952
0.000912058
0.000912009
0.000911798
0.000911418
0.000910864
0.000910129
0.000909208
0.000908097
0.00090679
0.000905283
0.000903572
0.000901655
0.000899527
0.000897186
0.000894631
0.00089186
0.000873597
0.000873686
0.000873968
0.000874402
0.000874979
0.000875692
0.00087653
0.000877485
0.000878548
0.00087971
0.000880961
0.000882292
0.000883694
0.000885158
0.000886674
0.000888234
0.000889833
0.000891462
0.000893115
0.000894788
0.000896475
0.000898167
0.00089986
0.000901544
0.000903212
0.000904855
0.000906463
0.000908029
0.000909543
0.000910995
0.000912377
0.000913679
0.000914893
0.000916011
0.000917023
0.000917922
0.000918698
0.000919345
0.000919854
0.000920218
0.000920429
0.000920481
0.000920366
0.000920078
0.00091961
0.000918957
0.000918113
0.000917073
0.000915832
0.000914386
0.000912731
0.000910862
0.000908778
0.000906476
0.000903953
0.000875925
0.00087602
0.000876319
0.00087678
0.000877393
0.00087815
0.000879042
0.000880058
0.000881191
0.00088243
0.000883766
0.00088519
0.000886692
0.000888264
0.000889896
0.000891579
0.000893308
0.000895074
0.000896872
0.000898696
0.00090054
0.000902397
0.000904261
0.000906122
0.000907974
0.000909808
0.000911614
0.000913383
0.000915106
0.000916775
0.000918379
0.00091991
0.000921358
0.000922715
0.000923972
0.00092512
0.000926151
0.000927057
0.000927829
0.000928459
0.00092894
0.000929264
0.000929425
0.000929413
0.000929224
0.000928851
0.000928288
0.000927528
0.000926567
0.000925399
0.000924021
0.000922428
0.000920616
0.000918582
0.000916325
0.00087823
0.000878331
0.000878647
0.000879134
0.000879783
0.000880585
0.00088153
0.000882608
0.00088381
0.000885126
0.000886548
0.000888065
0.000889669
0.000891349
0.000893097
0.000894904
0.000896764
0.000898668
0.000900612
0.000902588
0.000904592
0.000906615
0.000908651
0.000910692
0.000912731
0.000914758
0.000916764
0.00091874
0.000920677
0.000922566
0.000924397
0.00092616
0.000927848
0.00092945
0.000930958
0.000932363
0.000933655
0.000934827
0.000935871
0.000936776
0.000937536
0.000938143
0.000938589
0.000938866
0.000938967
0.000938886
0.000938616
0.00093815
0.000937482
0.000936608
0.000935522
0.00093422
0.000932697
0.000930949
0.000928973
0.00088051
0.000880616
0.000880949
0.000881463
0.000882148
0.000882994
0.000883993
0.000885132
0.000886404
0.000887798
0.000889306
0.000890916
0.000892621
0.00089441
0.000896274
0.000898206
0.000900197
0.000902241
0.000904331
0.000906461
0.000908625
0.000910816
0.000913027
0.00091525
0.000917478
0.0009197
0.00092191
0.000924096
0.00092625
0.000928363
0.000930425
0.000932427
0.000934359
0.000936211
0.000937976
0.000939644
0.000941205
0.000942652
0.000943974
0.000945164
0.000946212
0.000947111
0.000947853
0.00094843
0.000948833
0.000949056
0.000949092
0.000948933
0.000948574
0.000948008
0.00094723
0.000946234
0.000945016
0.000943571
0.000941896
0.000882763
0.000882875
0.000883225
0.000883766
0.000884486
0.000885377
0.000886429
0.00088763
0.000888971
0.000890443
0.000892037
0.000893741
0.000895547
0.000897445
0.000899427
0.000901483
0.000903607
0.00090579
0.000908028
0.000910312
0.000912638
0.000914998
0.000917385
0.000919792
0.000922211
0.000924632
0.000927047
0.000929447
0.000931822
0.000934163
0.00093646
0.000938703
0.000940885
0.000942994
0.000945021
0.000946958
0.000948795
0.000950523
0.000952133
0.000953615
0.000954961
0.000956163
0.000957211
0.000958098
0.000958815
0.000959355
0.00095971
0.000959872
0.000959835
0.000959593
0.000959138
0.000958466
0.00095757
0.000956446
0.00095509
0.000884988
0.000885105
0.000885473
0.00088604
0.000886796
0.000887732
0.000888837
0.000890099
0.000891511
0.00089306
0.000894739
0.000896537
0.000898445
0.000900453
0.000902551
0.000904733
0.000906989
0.000909313
0.000911698
0.000914138
0.000916627
0.000919158
0.000921723
0.000924315
0.000926927
0.000929549
0.000932172
0.000934788
0.000937387
0.000939959
0.000942495
0.000944985
0.000947421
0.000949791
0.000952087
0.0009543
0.000956419
0.000958435
0.00096034
0.000962123
0.000963776
0.00096529
0.000966655
0.000967863
0.000968906
0.000969775
0.000970462
0.00097096
0.00097126
0.000971356
0.000971242
0.000970909
0.000970353
0.000969569
0.00096855
0.000887184
0.000887307
0.000887691
0.000888285
0.000889077
0.000890057
0.000891215
0.000892539
0.00089402
0.000895647
0.000897412
0.000899304
0.000901313
0.00090343
0.000905646
0.000907953
0.000910342
0.000912807
0.00091534
0.000917937
0.000920589
0.000923291
0.000926036
0.000928815
0.000931621
0.000934446
0.00093728
0.000940115
0.00094294
0.000945747
0.000948526
0.000951267
0.000953961
0.000956597
0.000959168
0.000961662
0.000964069
0.000966382
0.000968589
0.000970682
0.00097265
0.000974485
0.000976178
0.000977719
0.000979098
0.000980309
0.000981342
0.000982188
0.00098284
0.000983291
0.000983532
0.000983557
0.000983359
0.000982932
0.00098227
0.00088935
0.000889477
0.000889879
0.000890499
0.000891327
0.000892351
0.000893562
0.000894947
0.000896497
0.000898202
0.000900052
0.000902038
0.000904149
0.000906375
0.000908709
0.000911141
0.000913663
0.000916269
0.000918951
0.000921704
0.000924521
0.000927395
0.00093032
0.000933288
0.00093629
0.00093932
0.000942367
0.000945422
0.000948477
0.000951522
0.000954546
0.000957542
0.000960499
0.000963406
0.000966256
0.000969037
0.00097174
0.000974355
0.000976872
0.000979282
0.000981575
0.000983741
0.000985771
0.000987655
0.000989384
0.000990948
0.00099234
0.000993549
0.000994568
0.000995388
0.000996001
0.000996401
0.000996578
0.000996528
0.000996243
0.000891483
0.000891616
0.000892034
0.000892681
0.000893544
0.000894612
0.000895875
0.000897322
0.000898941
0.000900724
0.000902659
0.000904738
0.00090695
0.000909286
0.000911737
0.000914294
0.000916949
0.000919696
0.000922527
0.000925437
0.000928419
0.000931467
0.000934573
0.00093773
0.00094093
0.000944165
0.000947427
0.000950706
0.000953992
0.000957277
0.000960552
0.000963805
0.000967029
0.000970212
0.000973345
0.000976419
0.000979423
0.000982347
0.000985182
0.000987917
0.000990542
0.000993048
0.000995425
0.000997663
0.000999752
0.00100168
0.00100345
0.00100503
0.00100643
0.00100764
0.00100864
0.00100943
0.00101
0.00101035
0.00101046
0.000893583
0.000893721
0.000894157
0.00089483
0.000895727
0.00089684
0.000898155
0.000899662
0.00090135
0.000903209
0.00090523
0.000907401
0.000909714
0.000912159
0.000914727
0.000917409
0.000920198
0.000923086
0.000926066
0.000929134
0.000932281
0.000935502
0.00093879
0.000942137
0.000945537
0.000948979
0.000952457
0.000955961
0.000959481
0.000963009
0.000966536
0.000970051
0.000973544
0.000977007
0.000980429
0.0009838
0.000987111
0.000990351
0.00099351
0.000996577
0.000999544
0.0010024
0.00100513
0.00100773
0.00101019
0.0010125
0.00101465
0.00101663
0.00101842
0.00102003
0.00102144
0.00102264
0.00102362
0.00102438
0.00102491
0.00100857
0.00101178
0.00101488
0.00101786
0.0010207
0.0010234
0.00102594
0.00102832
0.00103053
0.00103255
0.00103438
0.00103601
0.00103743
0.00103862
0.00103959
0.000697543
0.000697353
0.000696866
0.000696082
0.000695029
0.000693728
0.000692193
0.000690436
0.00068847
0.000686305
0.000683953
0.000681424
0.000678725
0.000675866
0.000672855
0.000669698
0.000666406
0.000662985
0.000659446
0.000655798
0.000652049
0.000648207
0.000644282
0.00064028
0.00063621
0.000632078
0.000627891
0.000623655
0.000619377
0.000615061
0.000610714
0.00060634
0.000601944
0.000597532
0.000593108
0.000588677
0.000584242
0.000579807
0.000575376
0.000570954
0.000566542
0.000562146
0.000557767
0.000553408
0.000549073
0.000544763
0.000540482
0.000536232
0.000532014
0.00052783
0.000523683
0.000519575
0.000515506
0.000511478
0.000507492
0.000697856
0.000697667
0.00069718
0.000696397
0.000695345
0.000694046
0.000692512
0.000690757
0.000688793
0.00068663
0.000684281
0.000681753
0.000679057
0.0006762
0.000673191
0.000670037
0.000666747
0.000663329
0.000659792
0.000656145
0.000652398
0.000648558
0.000644634
0.000640634
0.000636565
0.000632434
0.000628248
0.000624013
0.000619734
0.000615419
0.000611071
0.000606697
0.000602301
0.000597888
0.000593462
0.000589029
0.000584592
0.000580155
0.000575723
0.000571297
0.000566883
0.000562484
0.000558101
0.000553739
0.0005494
0.000545087
0.000540802
0.000536547
0.000532325
0.000528137
0.000523986
0.000519872
0.000515798
0.000511765
0.000507775
0.000698464
0.000698276
0.00069779
0.000697008
0.000695959
0.000694663
0.000693132
0.000691381
0.00068942
0.000687262
0.000684916
0.000682393
0.000679701
0.000676849
0.000673844
0.000670695
0.000667409
0.000663995
0.000660463
0.00065682
0.000653076
0.00064924
0.00064532
0.000641322
0.000637256
0.000633127
0.000628942
0.000624708
0.00062043
0.000616114
0.000611766
0.000607391
0.000602994
0.000598579
0.000594151
0.000589715
0.000585274
0.000580833
0.000576396
0.000571966
0.000567547
0.000563141
0.000558753
0.000554384
0.000550038
0.000545718
0.000541425
0.000537162
0.000532931
0.000528735
0.000524574
0.000520451
0.000516368
0.000512325
0.000508325
0.00069935
0.000699162
0.000698678
0.000697898
0.000696852
0.00069556
0.000694035
0.000692288
0.000690333
0.00068818
0.000685841
0.000683324
0.000680639
0.000677794
0.000674796
0.000671653
0.000668374
0.000664966
0.00066144
0.000657803
0.000654065
0.000650234
0.000646319
0.000642326
0.000638263
0.000634137
0.000629954
0.000625722
0.000621445
0.000617129
0.000612781
0.000608404
0.000604005
0.000599587
0.000595156
0.000590715
0.00058627
0.000581824
0.00057738
0.000572943
0.000568516
0.000564102
0.000559704
0.000555326
0.00055097
0.000546639
0.000542335
0.00053806
0.000533817
0.000529608
0.000525435
0.000521299
0.000517201
0.000513144
0.000509129
0.000700494
0.000700308
0.000699826
0.000699049
0.000698007
0.000696721
0.000695201
0.000693461
0.000691514
0.000689369
0.000687038
0.00068453
0.000681853
0.000679017
0.000676027
0.000672893
0.000669623
0.000666224
0.000662706
0.000659078
0.000655347
0.000651523
0.000647613
0.000643626
0.000639568
0.000635446
0.000631267
0.000627037
0.000622761
0.000618446
0.000614097
0.000609719
0.000605317
0.000600896
0.000596461
0.000592015
0.000587564
0.00058311
0.000578658
0.000574212
0.000569776
0.000565351
0.000560942
0.000556552
0.000552183
0.000547838
0.000543519
0.00053923
0.000534971
0.000530746
0.000526555
0.000522402
0.000518287
0.000514211
0.000510178
0.000701881
0.000701696
0.000701216
0.000700443
0.000699407
0.000698127
0.000696615
0.000694884
0.000692945
0.00069081
0.000688489
0.000685992
0.000683326
0.0006805
0.000677522
0.000674399
0.00067114
0.000667752
0.000664244
0.000660625
0.000656904
0.000653089
0.000649187
0.000645207
0.000641155
0.000637038
0.000632863
0.000628636
0.000624363
0.000620049
0.0006157
0.000611321
0.000606916
0.000602492
0.000598051
0.000593599
0.000589141
0.000584679
0.000580218
0.000575761
0.000571313
0.000566875
0.000562453
0.000558048
0.000553663
0.000549302
0.000544966
0.000540658
0.000536381
0.000532136
0.000527925
0.00052375
0.000519614
0.000515516
0.00051146
0.000703494
0.000703311
0.000702833
0.000702065
0.000701036
0.000699763
0.00069826
0.000696539
0.000694611
0.000692488
0.00069018
0.000687695
0.000685042
0.000682229
0.000679264
0.000676155
0.000672908
0.000669533
0.000666038
0.000662431
0.000658721
0.000654916
0.000651024
0.000647053
0.000643008
0.000638898
0.000634729
0.000630506
0.000626236
0.000621923
0.000617574
0.000613194
0.000608787
0.000604358
0.000599913
0.000595454
0.000590988
0.000586517
0.000582045
0.000577576
0.000573115
0.000568663
0.000564225
0.000559803
0.0005554
0.00055102
0.000546664
0.000542336
0.000538036
0.000533768
0.000529534
0.000525335
0.000521174
0.000517051
0.000512968
0.000705316
0.000705135
0.000704661
0.000703899
0.000702877
0.000701613
0.000700121
0.000698411
0.000696496
0.000694387
0.000692092
0.000689622
0.000686985
0.000684188
0.000681238
0.000678144
0.000674912
0.000671552
0.000668072
0.000664479
0.000660782
0.00065699
0.000653109
0.000649148
0.000645113
0.000641011
0.000636849
0.000632631
0.000628365
0.000624055
0.000619707
0.000615326
0.000610917
0.000606484
0.000602033
0.000597568
0.000593093
0.000588612
0.000584128
0.000579647
0.000575171
0.000570703
0.000566248
0.000561807
0.000557385
0.000552983
0.000548605
0.000544253
0.000539929
0.000535636
0.000531375
0.000527149
0.000522959
0.000518807
0.000514695
0.000707334
0.000707155
0.000706685
0.000705928
0.000704915
0.000703662
0.000702182
0.000700485
0.000698585
0.000696491
0.000694213
0.00069176
0.00068914
0.00068636
0.000683428
0.000680352
0.000677138
0.000673795
0.000670331
0.000666754
0.000663073
0.000659295
0.000655428
0.00065148
0.000647456
0.000643364
0.000639209
0.000634999
0.000630737
0.000626431
0.000622085
0.000617704
0.000613293
0.000608857
0.000604401
0.000599929
0.000595445
0.000590953
0.000586458
0.000581962
0.000577471
0.000572986
0.000568512
0.000564051
0.000559607
0.000555182
0.00055078
0.000546402
0.000542051
0.00053773
0.00053344
0.000529184
0.000524963
0.000520779
0.000516634
0.000709532
0.000709355
0.000708889
0.00070814
0.000707136
0.000705895
0.000704428
0.000702747
0.000700863
0.000698786
0.000696527
0.000694093
0.000691492
0.000688732
0.000685821
0.000682764
0.00067957
0.000676247
0.000672802
0.000669244
0.00066558
0.000661819
0.000657968
0.000654033
0.000650023
0.000645942
0.000641798
0.000637596
0.000633341
0.000629039
0.000624696
0.000620316
0.000615905
0.000611466
0.000607005
0.000602526
0.000598033
0.000593531
0.000589023
0.000584513
0.000580005
0.000575503
0.000571009
0.000566527
0.00056206
0.00055761
0.000553182
0.000548776
0.000544397
0.000540045
0.000535724
0.000531435
0.00052718
0.000522961
0.00051878
0.000711896
0.000711721
0.00071126
0.000710519
0.000709525
0.000708297
0.000706845
0.000705181
0.000703315
0.000701258
0.000699019
0.000696607
0.000694028
0.000691291
0.000688402
0.000685368
0.000682196
0.000678895
0.000675471
0.000671934
0.00066829
0.000664548
0.000660715
0.000656797
0.000652802
0.000648735
0.000644602
0.00064041
0.000636164
0.000631869
0.00062753
0.000623152
0.000618741
0.0006143
0.000609835
0.00060535
0.000600849
0.000596336
0.000591816
0.000587291
0.000582766
0.000578245
0.000573731
0.000569226
0.000564735
0.00056026
0.000555803
0.000551369
0.000546958
0.000542574
0.000538219
0.000533895
0.000529604
0.000525348
0.000521129
0.000714413
0.000714241
0.000713785
0.000713052
0.00071207
0.000710856
0.000709421
0.000707775
0.000705929
0.000703894
0.000701678
0.000699289
0.000696735
0.000694022
0.000691158
0.000688149
0.000685002
0.000681725
0.000678326
0.000674812
0.000671191
0.00066747
0.000663657
0.000659759
0.000655781
0.00065173
0.000647611
0.000643432
0.000639195
0.000634908
0.000630575
0.000626202
0.000621792
0.00061735
0.000612882
0.000608391
0.000603882
0.00059936
0.000594827
0.000590288
0.000585746
0.000581206
0.00057667
0.000572143
0.000567626
0.000563124
0.000558639
0.000554174
0.000549731
0.000545313
0.000540923
0.000536562
0.000532233
0.000527937
0.000523677
0.000717069
0.0007169
0.00071645
0.000715726
0.000714757
0.000713558
0.000712141
0.000710515
0.000708692
0.00070668
0.000704489
0.000702126
0.000699598
0.000696913
0.000694076
0.000691095
0.000687976
0.000684726
0.000681354
0.000677866
0.00067427
0.000670574
0.000666784
0.000662907
0.000658949
0.000654916
0.000650814
0.000646649
0.000642425
0.000638148
0.000633823
0.000629454
0.000625047
0.000620607
0.000616137
0.000611641
0.000607126
0.000602593
0.000598049
0.000593495
0.000588937
0.000584378
0.000579821
0.00057527
0.000570728
0.000566198
0.000561684
0.000557187
0.00055271
0.000548257
0.00054383
0.00053943
0.000535061
0.000530724
0.000526421
0.000719853
0.000719686
0.000719242
0.000718529
0.000717573
0.000716392
0.000714994
0.00071339
0.00071159
0.000709604
0.00070744
0.000705106
0.000702608
0.000699952
0.000697145
0.000694194
0.000691106
0.000687886
0.000684543
0.000681084
0.000677516
0.000673846
0.000670082
0.000666229
0.000662294
0.000658283
0.0006542
0.000650051
0.000645842
0.000641578
0.000637262
0.000632901
0.000628499
0.000624061
0.00061959
0.000615092
0.000610571
0.00060603
0.000601474
0.000596908
0.000592333
0.000587756
0.000583178
0.000578603
0.000574035
0.000569477
0.000564932
0.000560402
0.000555892
0.000551402
0.000546937
0.000542497
0.000538086
0.000533706
0.000529358
0.000722751
0.000722588
0.000722151
0.000721448
0.000720508
0.000719344
0.000717967
0.000716387
0.000714613
0.000712655
0.00071052
0.000708217
0.00070575
0.000703127
0.000700353
0.000697435
0.000694379
0.000691192
0.000687882
0.000684454
0.000680917
0.000677278
0.000673542
0.000669717
0.000665807
0.00066182
0.000657759
0.00065363
0.000649438
0.000645188
0.000640885
0.000636534
0.000632139
0.000627705
0.000623235
0.000618736
0.00061421
0.000609663
0.000605097
0.000600518
0.000595928
0.000591332
0.000586733
0.000582135
0.000577542
0.000572955
0.000568379
0.000563817
0.000559271
0.000554745
0.00055024
0.000545759
0.000541305
0.00053688
0.000532486
0.000725754
0.000725593
0.000725163
0.000724473
0.000723548
0.000722404
0.000721049
0.000719494
0.000717749
0.000715821
0.000713718
0.000711447
0.000709015
0.000706427
0.000703688
0.000700806
0.000697786
0.000694635
0.00069136
0.000687967
0.000684464
0.000680858
0.000677154
0.000673359
0.000669478
0.000665517
0.000661481
0.000657374
0.000653203
0.000648971
0.000644683
0.000640343
0.000635958
0.00063153
0.000627064
0.000622565
0.000618037
0.000613484
0.00060891
0.000604319
0.000599715
0.000595102
0.000590483
0.000585862
0.000581243
0.000576629
0.000572022
0.000567427
0.000562845
0.000558281
0.000553736
0.000549213
0.000544715
0.000540244
0.000535803
0.000728849
0.000728692
0.00072827
0.000727592
0.000726684
0.000725561
0.00072423
0.000722702
0.000720986
0.00071909
0.000717021
0.000714786
0.000712391
0.00070984
0.00070714
0.000704297
0.000701315
0.000698203
0.000694966
0.000691611
0.000688146
0.000684575
0.000680907
0.000677145
0.000673296
0.000669365
0.000665357
0.000661276
0.000657128
0.000652916
0.000648646
0.000644322
0.000639948
0.000635529
0.000631069
0.000626573
0.000622044
0.000617487
0.000612907
0.000608306
0.000603689
0.00059906
0.000594422
0.000589779
0.000585135
0.000580493
0.000575856
0.000571228
0.000566611
0.000562008
0.000557423
0.000552858
0.000548315
0.000543797
0.000539307
0.000732027
0.000731873
0.00073146
0.000730795
0.000729905
0.000728804
0.000727499
0.000726
0.000724315
0.000722453
0.000720421
0.000718224
0.000715868
0.000713357
0.000710699
0.000707897
0.000704957
0.000701886
0.000698691
0.000695377
0.000691952
0.000688421
0.000684791
0.000681067
0.000677253
0.000673356
0.000669379
0.000665327
0.000661205
0.000657017
0.000652767
0.000648461
0.000644102
0.000639694
0.000635243
0.000630752
0.000626225
0.000621667
0.000617081
0.000612472
0.000607844
0.000603201
0.000598545
0.000593882
0.000589214
0.000584545
0.000579878
0.000575217
0.000570565
0.000565924
0.000561299
0.000556691
0.000552103
0.000547537
0.000542997
0.000735278
0.000735128
0.000734722
0.000734072
0.000733201
0.000732123
0.000730845
0.000729376
0.000727726
0.0007259
0.000723906
0.00072175
0.000719435
0.000716968
0.000714353
0.000711596
0.000708701
0.000705675
0.000702525
0.000699255
0.000695874
0.000692386
0.000688798
0.000685114
0.000681339
0.000677479
0.000673537
0.000669517
0.000665425
0.000661264
0.000657039
0.000652753
0.000648412
0.000644019
0.000639579
0.000635096
0.000630573
0.000626016
0.000621428
0.000616813
0.000612176
0.000607519
0.000602848
0.000598165
0.000593474
0.00058878
0.000584084
0.000579391
0.000574704
0.000570026
0.00056536
0.000560709
0.000556076
0.000551463
0.000546872
0.000738591
0.000738445
0.000738049
0.000737413
0.000736563
0.000735509
0.00073426
0.000732823
0.000731208
0.000729421
0.000727468
0.000725354
0.000723084
0.000720663
0.000718095
0.000715385
0.000712538
0.00070956
0.000706458
0.000703236
0.000699902
0.000696461
0.000692918
0.000689278
0.000685546
0.000681726
0.000677823
0.000673839
0.000669781