/*--------------------------------*- C++ -*----------------------------------*\
| =========                 |                                                 |
| \\      /  F ield         | OpenFOAM: The Open Source CFD Toolbox           |
|  \\    /   O peration     | Version:  2412                                  |
|   \\  /    A nd           | Website:  www.openfoam.com                      |
|    \\/     M anipulation  |                                                 |
\*---------------------------------------------------------------------------*/
FoamFile
{
    version     2.0;
    format      ascii;
    arch        "LSB;label=32;scalar=64";
    class       surfaceScalarField;
    location    "20.5";
    object      phi;
}
// * * * * * * * * * * * * * * * * * * * * * * * * * * * * * * * * * * * * * //

dimensions      [0 3 -1 0 0 0 0];

oriented        oriented;

internalField   nonuniform List<scalar> 
10424
(
0.00531227
-0.000188493
-0.00530963
0.000185856
0.00531505
-0.000192336
0.00018955
0.00531799
-0.000196222
0.000193282
0.00532109
-0.000200149
0.000197047
0.00532436
-0.000204112
0.000200842
0.00532781
-0.000208106
0.000204661
0.00533143
-0.000212127
0.0002085
0.00533525
-0.000216169
0.000212353
0.00533926
-0.000220225
0.000216214
0.00534347
-0.000224289
0.000220076
0.00534789
-0.000228354
0.000223932
0.00535253
-0.000232411
0.000227774
0.00535739
-0.000236452
0.000231594
0.00536248
-0.000240468
0.000235381
0.0053678
-0.000244447
0.000239126
-0.000248377
0.000242816
0.00530834
-0.000191085
-0.00530575
0.00531109
-0.000195079
0.00531399
-0.000199124
0.00531705
-0.000203216
0.00532029
-0.000207352
0.00532372
-0.000211527
0.00532732
-0.000215735
0.00533113
-0.000219971
0.00533513
-0.00022423
0.00533935
-0.000228504
0.00534378
-0.000232785
0.00534843
-0.000237067
0.00535332
-0.00024134
0.00535845
-0.000245594
0.00536382
-0.000249817
-0.000253999
0.00530428
-0.000193624
-0.00530174
0.00530697
-0.000197773
0.00530983
-0.00020198
0.00531286
-0.000206243
0.00531606
-0.000210556
0.00531945
-0.000214916
0.00532303
-0.000219317
0.00532682
-0.000223755
0.00533081
-0.000228222
0.00533502
-0.000232713
0.00533945
-0.00023722
0.00534412
-0.000241735
0.00534903
-0.000246248
0.00535418
-0.000250751
0.0053596
-0.000255231
-0.000259675
0.00530008
-0.000196103
-0.0052976
0.00530272
-0.00020041
0.00530552
-0.000204783
0.0053085
-0.00020922
0.00531166
-0.000213715
0.005315
-0.000218265
0.00531855
-0.000222865
0.00532231
-0.00022751
0.00532628
-0.000232193
0.00533047
-0.000236909
0.0053349
-0.000241649
0.00533958
-0.000246406
0.0053445
-0.00025117
0.00534968
-0.000255932
0.00535513
-0.000260679
-0.0002654
0.00529573
-0.000198515
-0.00529332
0.0052983
-0.000202983
0.00530105
-0.000207526
0.00530397
-0.000212139
0.00530707
-0.000216821
0.00531037
-0.000221566
0.00531388
-0.00022637
0.0053176
-0.000231228
0.00532154
-0.000236134
0.00532571
-0.000241082
0.00533013
-0.000246064
0.00533479
-0.000251072
0.00533972
-0.000256097
0.00534491
-0.000261128
0.00535039
-0.000266155
-0.000271164
0.00529123
-0.000200852
-0.0052889
0.00529373
-0.000205483
0.00529641
-0.000210198
0.00529926
-0.000214993
0.0053023
-0.000219865
0.00530555
-0.000224809
0.005309
-0.000229823
0.00531267
-0.0002349
0.00531657
-0.000240036
0.00532072
-0.000245223
0.00532511
-0.000250455
0.00532976
-0.000255723
0.00533468
-0.000261018
0.00533988
-0.000266331
0.00534537
-0.000271648
-0.000276958
0.00528658
-0.000203104
-0.00528433
0.005289
-0.000207902
0.0052916
-0.000212791
0.00529437
-0.000217771
0.00529735
-0.000222837
0.00530052
-0.000227986
0.00530391
-0.000233214
0.00530753
-0.000238516
0.00531138
-0.000243888
0.00531548
-0.000249321
0.00531983
-0.000254811
0.00532446
-0.000260348
0.00532937
-0.000265924
0.00533456
-0.000271528
0.00534006
-0.000277149
-0.000282773
0.00528177
-0.000205264
-0.00527962
0.0052841
-0.000210229
0.00528661
-0.000215296
0.0052893
-0.000220463
0.00529219
-0.000225727
0.00529529
-0.000231085
0.00529861
-0.000236532
0.00530216
-0.000242065
0.00530595
-0.000247678
0.00530999
-0.000253366
0.0053143
-0.000259121
0.00531889
-0.000264936
0.00532377
-0.000270803
0.00532895
-0.00027671
0.00533445
-0.000282646
-0.000288597
0.00527681
-0.000207321
-0.00527475
0.00527903
-0.000212456
0.00528144
-0.000217703
0.00528404
-0.00022306
0.00528683
-0.000228525
0.00528984
-0.000234094
0.00529308
-0.000239766
0.00529655
-0.000245534
0.00530026
-0.000251396
0.00530424
-0.000257344
0.00530849
-0.000263373
0.00531303
-0.000269475
0.00531787
-0.000275642
0.00532303
-0.000281863
0.00532851
-0.000288126
-0.000294419
0.00527167
-0.000209266
-0.00526973
0.00527379
-0.000214572
0.00527609
-0.000220001
0.00527858
-0.00022555
0.00528127
-0.000231219
0.00528418
-0.000237004
0.00528732
-0.000242903
0.00529069
-0.000248913
0.00529433
-0.000255028
0.00529823
-0.000261244
0.00530241
-0.000267554
0.00530688
-0.000273951
0.00531167
-0.000280427
0.00531678
-0.000286973
0.00532223
-0.000293576
-0.000300223
0.00526637
-0.000211089
-0.00526455
0.00526837
-0.000216567
0.00527054
-0.000222178
0.00527292
-0.000227922
0.00527549
-0.000233797
0.00527829
-0.000239801
0.00528132
-0.000245932
0.00528459
-0.000252186
0.00528812
-0.00025856
0.00529193
-0.00026505
0.00529603
-0.000271648
0.00530042
-0.000278349
0.00530514
-0.000285145
0.00531019
-0.000292026
0.0053156
-0.00029898
-0.000305995
0.0052609
-0.00021278
-0.00525921
0.00526276
-0.00021843
0.00526481
-0.000224225
0.00526705
-0.000230164
0.0052695
-0.000236247
0.00527217
-0.000242472
0.00527508
-0.000248838
0.00527823
-0.000255341
0.00528165
-0.000261979
0.00528535
-0.000268748
0.00528934
-0.000275642
0.00529365
-0.000282654
0.00529828
-0.000289778
0.00530326
-0.000297005
0.0053086
-0.000304322
-0.000311719
0.00525526
-0.000214326
-0.00525372
0.00525698
-0.000220149
0.00525888
-0.000226127
0.00526098
-0.000232263
0.00526329
-0.000238555
0.00526582
-0.000245003
0.00526859
-0.000251606
0.00527161
-0.000258363
0.0052749
-0.000265269
0.00527848
-0.000272322
0.00528235
-0.000279517
0.00528655
-0.000286849
0.00529108
-0.00029431
0.00529597
-0.000301892
0.00530123
-0.000309585
-0.000317375
0.00524945
-0.000215718
-0.00524806
0.00525101
-0.000221712
0.00525276
-0.000227874
0.0052547
-0.000234206
0.00525686
-0.000240708
0.00525923
-0.000247381
0.00526185
-0.000254223
0.00526472
-0.000261235
0.00526787
-0.000268413
0.0052713
-0.000275755
0.00527504
-0.000283257
0.00527911
-0.000290915
0.00528352
-0.000298721
0.0052883
-0.000306669
0.00529346
-0.000314748
-0.000322945
0.00524347
-0.000216943
-0.00524225
0.00524487
-0.000223107
0.00524644
-0.000229451
0.00524822
-0.000235979
0.0052502
-0.000242691
0.00525241
-0.000249589
0.00525486
-0.000256672
0.00525756
-0.000263941
0.00526055
-0.000271394
0.00526382
-0.000279029
0.00526741
-0.000286844
0.00527132
-0.000294833
0.00527559
-0.000302992
0.00528024
-0.000311314
0.00528528
-0.00031979
-0.000328407
0.00523732
-0.00021799
-0.00523627
0.00523854
-0.000224321
0.00523993
-0.000230846
0.00524152
-0.000237568
0.00524332
-0.00024449
0.00524534
-0.000251612
0.00524761
-0.000258937
0.00525013
-0.000266464
0.00525293
-0.000274194
0.00525603
-0.000282125
0.00525944
-0.000290256
0.00526319
-0.000298583
0.0052673
-0.000307101
0.00527179
-0.000315806
0.00527669
-0.000324688
-0.000333737
0.005231
-0.000218845
-0.00523015
0.00523202
-0.000225341
0.00523322
-0.000232044
0.00523461
-0.000238959
0.00523621
-0.000246088
0.00523803
-0.000253434
0.0052401
-0.000261
0.00524242
-0.000268786
0.00524502
-0.000276793
0.00524791
-0.000285023
0.00525113
-0.000293473
0.00525469
-0.000302141
0.00525861
-0.000311025
0.00526293
-0.00032012
0.00526766
-0.000329417
-0.000338908
0.00522452
-0.000219498
-0.00522387
0.00522533
-0.000226154
0.00522632
-0.000233032
0.0052275
-0.000240136
0.00522888
-0.00024747
0.00523048
-0.000255038
0.00523233
-0.000262842
0.00523443
-0.000270886
0.00523681
-0.000279172
0.00523948
-0.0002877
0.00524248
-0.000296472
0.00524583
-0.000305486
0.00524954
-0.00031474
0.00525365
-0.00032423
0.00525819
-0.000333951
-0.000343894
0.00521788
-0.000219933
-0.00521744
0.00521847
-0.000226746
0.00521923
-0.000233795
0.00522018
-0.000241084
0.00522133
-0.000248619
0.00522269
-0.000256405
0.0052243
-0.000264446
0.00522616
-0.000272746
0.00522829
-0.000281309
0.00523073
-0.000290136
0.00523349
-0.00029923
0.00523659
-0.000308591
0.00524007
-0.000318218
0.00524395
-0.00032811
0.00524826
-0.000338261
-0.000348665
0.00521107
-0.00521087
0.00521143
0.00521195
0.00521266
0.00521355
0.00521467
0.00521601
0.00521761
0.00521948
0.00522165
0.00522415
0.00522699
0.0052302
0.00523382
0.00523788
0.00529287
-5.10834e-06
5.12962e-06
0.00529281
-1.49123e-05
1.49747e-05
0.00529271
-2.41827e-05
2.42836e-05
0.00529257
-3.2923e-05
3.30574e-05
0.00529241
-4.11137e-05
4.12744e-05
0.00529223
-4.89772e-05
4.9165e-05
0.00529198
-5.72841e-05
5.75261e-05
0.00529162
-6.73681e-05
6.7734e-05
0.00529102
-8.06871e-05
8.12859e-05
0.00529007
-9.81174e-05
9.90716e-05
0.00528866
-0.000119384
0.000120789
0.00528677
-0.000142948
0.000144836
0.00528445
-0.000166405
0.000168724
0.00528183
-0.000187171
0.000189792
0.00527909
-0.000203166
0.000205912
0.00527641
-0.000213246
0.000215924
0.00527397
-0.000217303
0.000219743
0.00527189
-0.000216093
0.000218168
0.00527026
-0.000210907
0.000212545
0.00526908
-0.000203222
0.000204401
0.00526834
-0.000194418
0.00019516
0.00526798
-0.000185609
0.000185962
0.00526795
-0.00017757
0.000177599
0.00526818
-0.000170754
0.000170525
0.00526861
-0.000165345
0.000164922
0.00526917
-0.000161337
0.000160772
0.00526984
-0.000158601
0.000157937
0.00527057
-0.000156951
0.000156219
0.00527135
-0.000156181
0.000155401
0.00527216
-0.000156095
0.000155281
0.005273
-0.000156521
0.000155678
0.00527387
-0.000157314
0.000156445
0.00527477
-0.000158361
0.000157464
0.0052757
-0.000159572
0.000158644
0.00527666
-0.000160882
0.000159917
0.00527767
-0.000162239
0.000161232
0.00527872
-0.000163607
0.000162554
0.00527983
-0.000164961
0.000163856
0.00528099
-0.00016628
0.000165119
0.00528221
-0.000167551
0.000166328
0.0052835
-0.000168762
0.000167474
0.00528486
-0.000169907
0.00016855
0.00528629
-0.000170978
0.000169549
0.00528779
-0.000171972
0.000170469
0.00528937
-0.000172884
0.000171304
0.00529103
-0.000173712
0.000172053
0.00529277
-0.000174453
0.000172714
0.00529459
-0.000175105
0.000173285
0.00529649
-0.000175667
0.000173765
0.00529847
-0.000176138
0.000174153
0.00530054
-0.000176516
0.000174449
0.00530269
-0.000176801
0.000174652
0.00530492
-0.000176994
0.000174762
0.00530723
-0.000177093
0.000174779
-0.000177099
0.000174705
0.00529287
-5.08436e-06
0.0052928
-1.4842e-05
0.00529269
-2.4069e-05
0.00529253
-3.27711e-05
0.00529235
-4.0931e-05
0.00529214
-4.87634e-05
0.00529187
-5.70121e-05
0.00529147
-6.69686e-05
0.00529083
-8.00508e-05
0.00528983
-9.71209e-05
0.00528838
-0.00011793
0.00528644
-0.000141005
0.00528406
-0.000164023
0.00528136
-0.000184478
0.00527854
-0.00020034
0.00527577
-0.000210478
0.00527323
-0.000214766
0.00527105
-0.000213915
0.00526931
-0.000209164
0.00526802
-0.000201935
0.00526717
-0.000193569
0.00526671
-0.000185149
0.00526658
-0.000177436
0.00526671
-0.000170879
0.00526703
-0.000165668
0.0052675
-0.000161803
0.00526806
-0.00015917
0.0052687
-0.00015759
0.00526939
-0.000156869
0.00527012
-0.00015682
0.00527087
-0.000157275
0.00527165
-0.000158096
0.00527246
-0.000159172
0.00527331
-0.000160415
0.00527418
-0.000161761
0.00527511
-0.00016316
0.00527608
-0.000164576
0.0052771
-0.000165983
0.00527818
-0.00016736
0.00527932
-0.000168692
0.00528053
-0.00016997
0.00528181
-0.000171185
0.00528316
-0.00017233
0.00528458
-0.000173399
0.00528609
-0.00017439
0.00528768
-0.000175299
0.00528935
-0.000176122
0.0052911
-0.000176858
0.00529294
-0.000177504
0.00529486
-0.00017806
0.00529687
-0.000178524
0.00529896
-0.000178895
0.00530114
-0.000179172
0.0053034
-0.000179357
-0.000179447
0.00529287
-5.05765e-06
0.00529279
-1.47638e-05
0.00529266
-2.39423e-05
0.00529249
-3.26016e-05
0.00529229
-4.07262e-05
0.00529205
-4.85233e-05
0.00529175
-5.67102e-05
0.00529131
-6.65363e-05
0.00529064
-7.93796e-05
0.00528961
-9.60876e-05
0.00528812
-0.000116438
0.00528613
-0.000139019
0.0052837
-0.000161593
0.00528095
-0.000181728
0.00527806
-0.000197447
0.00527521
-0.000207634
0.00527259
-0.000212142
0.00527031
-0.000211642
0.00526847
-0.000207317
0.00526707
-0.00020054
0.00526611
-0.000192607
0.00526554
-0.000184575
0.00526529
-0.000177189
0.0052653
-0.000170894
0.00526552
-0.000165882
0.00526588
-0.000162163
0.00526634
-0.000159634
0.00526688
-0.000158127
0.00526747
-0.000157458
0.00526809
-0.000157446
0.00526875
-0.000157933
0.00526944
-0.000158783
0.00527016
-0.000159889
0.00527091
-0.000161166
0.00527169
-0.00016255
0.00527253
-0.000163992
0.00527341
-0.000165456
0.00527434
-0.000166916
0.00527533
-0.000168352
0.00527639
-0.000169748
0.00527751
-0.000171093
0.0052787
-0.000172379
0.00527997
-0.000173598
0.00528132
-0.000174746
0.00528275
-0.000175817
0.00528425
-0.000176808
0.00528585
-0.000177715
0.00528753
-0.000178537
0.00528929
-0.00017927
0.00529115
-0.000179914
0.00529309
-0.000180466
0.00529512
-0.000180925
0.00529724
-0.000181292
0.00529945
-0.000181564
-0.000181742
0.00529286
-5.02819e-06
0.00529278
-1.46776e-05
0.00529264
-2.38027e-05
0.00529245
-3.24143e-05
0.00529222
-4.04991e-05
0.00529196
-4.82566e-05
0.00529163
-5.63783e-05
0.00529116
-6.60719e-05
0.00529046
-7.86757e-05
0.00528939
-9.50221e-05
0.00528787
-0.000114913
0.00528585
-0.000137
0.00528338
-0.000159125
0.00528059
-0.000178935
0.00527764
-0.000194501
0.00527473
-0.000204724
0.00527203
-0.00020944
0.00526967
-0.000209277
0.00526772
-0.000205368
0.00526621
-0.000199034
0.00526514
-0.00019153
0.00526444
-0.000183883
0.00526408
-0.000176822
0.00526397
-0.000170788
0.00526407
-0.000165977
0.00526431
-0.000162408
0.00526466
-0.000159985
0.00526509
-0.000158554
0.00526557
-0.000157939
0.00526609
-0.000157968
0.00526665
-0.000158488
0.00526723
-0.000159369
0.00526785
-0.000160507
0.0052685
-0.000161818
0.00526919
-0.000163241
0.00526993
-0.000164727
0.00527071
-0.000166241
0.00527155
-0.000167756
0.00527245
-0.000169251
0.00527342
-0.000170711
0.00527445
-0.000172125
0.00527555
-0.000173483
0.00527673
-0.000174779
0.00527799
-0.000176005
0.00527933
-0.000177158
0.00528076
-0.000178233
0.00528227
-0.000179227
0.00528387
-0.000180136
0.00528556
-0.000180959
0.00528734
-0.000181693
0.00528921
-0.000182336
0.00529117
-0.000182887
0.00529322
-0.000183344
0.00529536
-0.000183708
-0.000183977
0.00529286
-4.99597e-06
0.00529277
-1.45833e-05
0.00529261
-2.36501e-05
0.00529241
-3.22091e-05
0.00529216
-4.02494e-05
0.00529187
-4.7963e-05
0.0052915
-5.60162e-05
0.00529101
-6.5576e-05
0.00529027
-7.7941e-05
0.00528918
-9.39283e-05
0.00528763
-0.000113363
0.00528559
-0.000134957
0.00528309
-0.000156632
0.00528027
-0.00017611
0.00527728
-0.000191513
0.00527432
-0.000201759
0.00527155
-0.000206668
0.0052691
-0.000206829
0.00526705
-0.000203322
0.00526544
-0.00019742
0.00526424
-0.000190336
0.00526343
-0.000183067
0.00526293
-0.000176329
0.0052627
-0.000170556
0.00526267
-0.000165947
0.00526279
-0.000162529
0.00526302
-0.000160216
0.00526333
-0.000158863
0.0052637
-0.000158305
0.00526411
-0.000158378
0.00526455
-0.000158933
0.00526503
-0.000159848
0.00526554
-0.000161019
0.00526609
-0.000162367
0.00526668
-0.00016383
0.00526732
-0.000165361
0.005268
-0.000166925
0.00526874
-0.000168495
0.00526954
-0.000170051
0.0052704
-0.000171576
0.00527134
-0.000173059
0.00527235
-0.000174491
0.00527343
-0.000175864
0.0052746
-0.000177171
0.00527585
-0.000178407
0.00527718
-0.000179568
0.00527861
-0.00018065
0.00528012
-0.00018165
0.00528172
-0.000182564
0.00528342
-0.00018339
0.00528521
-0.000184127
0.0052871
-0.000184772
0.00528908
-0.000185324
0.00529115
-0.000185782
-0.000186145
0.00529286
-4.96097e-06
0.00529276
-1.4481e-05
0.00529259
-2.34843e-05
0.00529237
-3.1986e-05
0.0052921
-3.99769e-05
0.00529177
-4.76423e-05
0.00529138
-5.5624e-05
0.00529086
-6.5049e-05
0.00529009
-7.71771e-05
0.00528897
-9.28096e-05
0.0052874
-0.000111793
0.00528534
-0.000132898
0.00528283
-0.000154123
0.00527999
-0.000173264
0.00527697
-0.000188494
0.00527396
-0.000198749
0.00527112
-0.000203834
0.0052686
-0.000204301
0.00526645
-0.00020118
0.00526473
-0.000195696
0.00526342
-0.000189022
0.00526248
-0.000182125
0.00526185
-0.000175706
0.00526149
-0.000170192
0.00526133
-0.000165786
0.00526132
-0.00016252
0.00526142
-0.000160319
0.00526161
-0.000159049
0.00526185
-0.000158551
0.00526214
-0.000158669
0.00526247
-0.000159263
0.00526284
-0.000160213
0.00526324
-0.000161419
0.00526368
-0.000162805
0.00526416
-0.00016431
0.00526468
-0.000165888
0.00526526
-0.000167503
0.0052659
-0.000169129
0.00526659
-0.000170746
0.00526735
-0.000172338
0.00526818
-0.000173891
0.00526909
-0.000175398
0.00527008
-0.000176849
0.00527114
-0.000178238
0.00527229
-0.000179559
0.00527353
-0.000180807
0.00527486
-0.000181979
0.00527628
-0.00018307
0.00527779
-0.000184077
0.0052794
-0.000184998
0.00528111
-0.000185831
0.00528291
-0.000186573
0.00528481
-0.000187222
0.0052868
-0.000187778
-0.000188239
0.00529286
-4.92317e-06
0.00529275
-1.43704e-05
0.00529257
-2.33053e-05
0.00529233
-3.17447e-05
0.00529203
-3.96815e-05
0.00529168
-4.72943e-05
0.00529126
-5.52013e-05
0.0052907
-6.44911e-05
0.00528991
-7.6385e-05
0.00528877
-9.16681e-05
0.00528718
-0.000110207
0.00528511
-0.000130828
0.00528259
-0.000151604
0.00527973
-0.000170404
0.00527669
-0.000185453
0.00527364
-0.000195702
0.00527076
-0.000200945
0.00526815
-0.000201698
0.00526592
-0.000198946
0.00526409
-0.000193865
0.00526265
-0.000187587
0.00526158
-0.000181054
0.00526082
-0.000174948
0.00526032
-0.000169692
0.00526002
-0.000165488
0.00525988
-0.000162376
0.00525985
-0.00016029
0.00525991
-0.000159104
0.00526002
-0.000158669
0.00526019
-0.000158836
0.0052604
-0.000159472
0.00526065
-0.000160459
0.00526093
-0.000161703
0.00526125
-0.000163128
0.00526162
-0.000164676
0.00526203
-0.000166301
0.0052625
-0.000167969
0.00526302
-0.000169652
0.00526361
-0.000171331
0.00526426
-0.00017299
0.00526498
-0.000174615
0.00526578
-0.000176197
0.00526666
-0.000177727
0.00526762
-0.000179199
0.00526867
-0.000180605
0.0052698
-0.000181943
0.00527103
-0.000183205
0.00527235
-0.00018439
0.00527376
-0.000185493
0.00527528
-0.000186511
0.00527689
-0.000187442
0.0052786
-0.000188283
0.00528041
-0.000189033
0.00528232
-0.000189689
-0.000190251
0.00529285
-4.88257e-06
0.00529273
-1.42518e-05
0.00529254
-2.31131e-05
0.00529228
-3.14853e-05
0.00529196
-3.9363e-05
0.00529159
-4.69189e-05
0.00529114
-5.47482e-05
0.00529055
-6.39024e-05
0.00528973
-7.55654e-05
0.00528857
-9.05057e-05
0.00528697
-0.000108608
0.00528489
-0.000128752
0.00528237
-0.000149082
0.0052795
-0.000167538
0.00527644
-0.000182394
0.00527336
-0.000192623
0.00527042
-0.000198006
0.00526775
-0.000199025
0.00526543
-0.000196622
0.00526349
-0.000191926
0.00526193
-0.000186032
0.00526073
-0.000179853
0.00525984
-0.000174054
0.0052592
-0.000169051
0.00525876
-0.000165049
0.00525848
-0.000162092
0.00525831
-0.000160123
0.00525823
-0.000159024
0.00525821
-0.000158655
0.00525825
-0.000158875
0.00525833
-0.000159553
0.00525846
-0.00016058
0.00525862
-0.000161864
0.00525882
-0.00016333
0.00525907
-0.000164923
0.00525936
-0.000166597
0.00525971
-0.000168317
0.00526012
-0.000170059
0.00526059
-0.000171801
0.00526112
-0.000173527
0.00526173
-0.000175224
0.00526242
-0.000176882
0.00526318
-0.000178492
0.00526403
-0.000180047
0.00526497
-0.000181541
0.00526599
-0.000182968
0.00526711
-0.000184323
0.00526832
-0.000185603
0.00526963
-0.000186803
0.00527104
-0.00018792
0.00527255
-0.000188951
0.00527416
-0.000189894
0.00527588
-0.000190746
0.00527769
-0.000191506
-0.000192171
0.00529285
-4.83915e-06
0.00529272
-1.41249e-05
0.00529252
-2.29076e-05
0.00529224
-3.12076e-05
0.0052919
-3.90215e-05
0.0052915
-4.65158e-05
0.00529101
-5.42645e-05
0.00529039
-6.32828e-05
0.00528955
-7.47185e-05
0.00528836
-8.9323e-05
0.00528675
-0.000106998
0.00528467
-0.000126672
0.00528215
-0.00014656
0.00527928
-0.00016467
0.00527621
-0.000179325
0.00527311
-0.000189517
0.00527012
-0.000195021
0.00526738
-0.000196286
0.00526497
-0.000194211
0.00526293
-0.000189882
0.00526125
-0.000184357
0.00525992
-0.000178521
0.00525889
-0.000173021
0.0052581
-0.000168268
0.00525752
-0.000164466
0.00525709
-0.000161665
0.00525679
-0.000159814
0.00525657
-0.000158805
0.00525642
-0.000158505
0.00525632
-0.000158779
0.00525627
-0.000159504
0.00525626
-0.000160573
0.0052563
-0.000161898
0.00525638
-0.000163407
0.0052565
-0.000165046
0.00525667
-0.000166769
0.0052569
-0.000168544
0.00525718
-0.000170344
0.00525753
-0.000172149
0.00525795
-0.000173943
0.00525843
-0.000175712
0.005259
-0.000177447
0.00525965
-0.000179138
0.00526038
-0.000180777
0.00526119
-0.000182359
0.0052621
-0.000183877
0.0052631
-0.000185326
0.0052642
-0.000186702
0.0052654
-0.000188
0.0052667
-0.000189218
0.0052681
-0.000190352
0.0052696
-0.000191398
0.00527121
-0.000192355
0.00527293
-0.000193221
-0.000193993
0.00529285
-4.79292e-06
0.00529271
-1.39898e-05
0.00529249
-2.26888e-05
0.0052922
-3.09116e-05
0.00529183
-3.86567e-05
0.0052914
-4.6085e-05
0.00529089
-5.37499e-05
0.00529024
-6.26323e-05
0.00528936
-7.38444e-05
0.00528816
-8.81205e-05
0.00528654
-0.000105377
0.00528446
-0.00012459
0.00528194
-0.00014404
0.00527907
-0.000161802
0.00527599
-0.000176247
0.00527286
-0.000186389
0.00526984
-0.000191993
0.00526703
-0.000193483
0.00526454
-0.000191715
0.00526239
-0.000187735
0.0052606
-0.000182563
0.00525913
-0.000177057
0.00525796
-0.00017185
0.00525704
-0.000167342
0.00525631
-0.000163738
0.00525573
-0.000161092
0.00525528
-0.000159361
0.00525492
-0.000158444
0.00525463
-0.000158214
0.0052544
-0.000158546
0.00525421
-0.000159319
0.00525407
-0.000160433
0.00525397
-0.000161801
0.00525392
-0.000163354
0.00525391
-0.000165039
0.00525396
-0.000166813
0.00525406
-0.000168642
0.00525421
-0.000170501
0.00525444
-0.00017237
0.00525473
-0.000174232
0.00525509
-0.000176075
0.00525553
-0.000177886
0.00525605
-0.000179658
0.00525665
-0.000181382
0.00525734
-0.000183052
0.00525813
-0.000184661
0.00525901
-0.000186205
0.00525999
-0.000187678
0.00526106
-0.000189077
0.00526224
-0.000190397
0.00526352
-0.000191634
0.00526491
-0.000192787
0.00526641
-0.000193851
0.00526801
-0.000194825
-0.000195706
0.00529284
-4.74385e-06
0.0052927
-1.38465e-05
0.00529247
-2.24566e-05
0.00529216
-3.05973e-05
0.00529177
-3.82687e-05
0.00529131
-4.56263e-05
0.00529076
-5.32044e-05
0.00529008
-6.19505e-05
0.00528918
-7.29427e-05
0.00528796
-8.68979e-05
0.00528633
-0.000103746
0.00528424
-0.000122505
0.00528172
-0.000141523
0.00527886
-0.000158936
0.00527577
-0.000173163
0.00527263
-0.00018324
0.00526956
-0.000188927
0.0052667
-0.00019062
0.00526412
-0.000189138
0.00526187
-0.000185487
0.00525996
-0.000180652
0.00525837
-0.000175464
0.00525706
-0.000170539
0.00525598
-0.000166271
0.00525511
-0.000162862
0.00525439
-0.000160371
0.00525379
-0.000158761
0.00525328
-0.000157937
0.00525285
-0.000157781
0.00525247
-0.000158172
0.00525215
-0.000158996
0.00525187
-0.000160155
0.00525164
-0.000161568
0.00525145
-0.000163167
0.00525131
-0.000164899
0.00525122
-0.000166724
0.00525119
-0.000168608
0.00525121
-0.000170527
0.0052513
-0.000172459
0.00525146
-0.00017439
0.00525169
-0.000176305
0.005252
-0.000178193
0.00525239
-0.000180046
0.00525286
-0.000181855
0.00525342
-0.000183614
0.00525408
-0.000185315
0.00525483
-0.000186954
0.00525567
-0.000188526
0.00525662
-0.000190025
0.00525767
-0.000191448
0.00525883
-0.000192791
0.00526009
-0.000194051
0.00526147
-0.000195225
0.00526295
-0.000196309
-0.000197302
0.00529284
-4.69196e-06
0.00529269
-1.36949e-05
0.00529245
-2.2211e-05
0.00529211
-3.02647e-05
0.0052917
-3.78574e-05
0.00529121
-4.51399e-05
0.00529064
-5.26279e-05
0.00528992
-6.12373e-05
0.005289
-7.2013e-05
0.00528775
-8.56543e-05
0.00528611
-0.000102103
0.00528402
-0.000120418
0.00528151
-0.000139008
0.00527864
-0.000156072
0.00527555
-0.000170074
0.00527239
-0.000180073
0.00526928
-0.000185823
0.00526636
-0.000187698
0.0052637
-0.000186481
0.00526136
-0.00018314
0.00525933
-0.000178625
0.00525761
-0.000173742
0.00525616
-0.00016909
0.00525494
-0.000165055
0.00525392
-0.000161839
0.00525305
-0.000159502
0.0052523
-0.000158012
0.00525165
-0.000157283
0.00525107
-0.000157202
0.00525055
-0.000157654
0.00525009
-0.00015853
0.00524967
-0.000159737
0.0052493
-0.000161196
0.00524897
-0.000162841
0.00524869
-0.000164622
0.00524847
-0.000166498
0.0052483
-0.000168437
0.00524818
-0.000170415
0.00524814
-0.000172411
0.00524816
-0.00017441
0.00524825
-0.000176397
0.00524842
-0.000178363
0.00524867
-0.000180296
0.005249
-0.00018219
0.00524943
-0.000184038
0.00524994
-0.000185831
0.00525055
-0.000187566
0.00525126
-0.000189236
0.00525207
-0.000190837
0.00525299
-0.000192364
0.00525401
-0.000193814
0.00525514
-0.000195183
0.00525639
-0.000196467
0.00525774
-0.000197664
-0.000198771
0.00529284
-4.63724e-06
0.00529268
-1.35351e-05
0.00529242
-2.19522e-05
0.00529207
-2.99138e-05
0.00529164
-3.74228e-05
0.00529112
-4.46256e-05
0.00529051
-5.20201e-05
0.00528977
-6.04922e-05
0.00528881
-7.10545e-05
0.00528754
-8.4389e-05
0.00528589
-0.000100447
0.0052838
-0.000118328
0.00528128
-0.000136495
0.00527842
-0.000153209
0.00527533
-0.00016698
0.00527214
-0.000176886
0.005269
-0.000182683
0.00526602
-0.00018472
0.00526329
-0.000183747
0.00526084
-0.000180696
0.0052587
-0.000176484
0.00525685
-0.000171893
0.00525527
-0.000167505
0.00525391
-0.000163697
0.00525274
-0.000160669
0.00525172
-0.000158484
0.00525082
-0.000157114
0.00525002
-0.00015648
0.00524929
-0.000156475
0.00524863
-0.000156989
0.00524802
-0.00015792
0.00524746
-0.000159176
0.00524694
-0.000160681
0.00524648
-0.000162373
0.00524606
-0.000164202
0.00524569
-0.00016613
0.00524537
-0.000168124
0.00524512
-0.000170161
0.00524493
-0.000172221
0.00524481
-0.000174287
0.00524476
-0.000176346
0.00524478
-0.000178388
0.00524489
-0.000180402
0.00524508
-0.000182381
0.00524536
-0.000184316
0.00524573
-0.000186202
0.00524619
-0.000188032
0.00524676
-0.000189801
0.00524743
-0.000191504
0.0052482
-0.000193136
0.00524908
-0.000194694
0.00525007
-0.000196172
0.00525117
-0.000197569
0.00525238
-0.00019888
-0.000200103
0.00529284
-4.5797e-06
0.00529267
-1.33671e-05
0.0052924
-2.16799e-05
0.00529203
-2.95446e-05
0.00529157
-3.6965e-05
0.00529103
-4.40834e-05
0.00529039
-5.13812e-05
0.00528961
-5.97151e-05
0.00528862
-7.00666e-05
0.00528733
-8.31005e-05
0.00528566
-9.87763e-05
0.00528357
-0.00011623
0.00528105
-0.000133981
0.00527819
-0.000150345
0.00527509
-0.000163878
0.00527188
-0.000173681
0.00526871
-0.000179507
0.00526567
-0.000181686
0.00526286
-0.000180937
0.00526032
-0.000178157
0.00525807
-0.000174233
0.0052561
-0.00016992
0.00525438
-0.000165785
0.00525288
-0.000162197
0.00525156
-0.000159352
0.00525039
-0.000157316
0.00524935
-0.000156067
0.00524839
-0.000155528
0.00524752
-0.000155599
0.00524671
-0.000156177
0.00524595
-0.000157162
0.00524524
-0.000158467
0.00524458
-0.00016002
0.00524397
-0.000161759
0.0052434
-0.000163637
0.00524289
-0.000165616
0.00524243
-0.000167665
0.00524203
-0.000169761
0.00524169
-0.000171883
0.00524142
-0.000174016
0.00524122
-0.000176146
0.00524109
-0.000178263
0.00524105
-0.000180357
0.00524109
-0.000182419
0.00524121
-0.000184443
0.00524143
-0.00018642
0.00524175
-0.000188345
0.00524216
-0.000190213
0.00524267
-0.000192018
0.00524329
-0.000193756
0.00524402
-0.000195421
0.00524486
-0.000197011
0.00524581
-0.00019852
0.00524688
-0.000199947
-0.000201287
0.00529283
-4.51934e-06
0.00529266
-1.31909e-05
0.00529237
-2.13944e-05
0.00529198
-2.91571e-05
0.0052915
-3.64841e-05
0.00529093
-4.35135e-05
0.00529026
-5.07109e-05
0.00528945
-5.89054e-05
0.00528844
-6.90486e-05
0.00528712
-8.17876e-05
0.00528544
-9.70895e-05
0.00528333
-0.000114125
0.00528081
-0.000131464
0.00527795
-0.000147479
0.00527484
-0.000160768
0.00527161
-0.000170456
0.0052684
-0.000176295
0.00526531
-0.000178597
0.00526243
-0.000178053
0.0052598
-0.000175526
0.00525743
-0.000171872
0.00525534
-0.000167824
0.00525349
-0.000163932
0.00525184
-0.000160556
0.00525038
-0.00015789
0.00524907
-0.000156001
0.00524787
-0.000154869
0.00524677
-0.000154425
0.00524574
-0.000154574
0.00524478
-0.000155215
0.00524387
-0.000156255
0.00524302
-0.000157611
0.00524221
-0.00015921
0.00524144
-0.000160997
0.00524073
-0.000162923
0.00524007
-0.000164953
0.00523946
-0.000167056
0.00523891
-0.000169209
0.00523842
-0.000171393
0.00523799
-0.000173591
0.00523764
-0.000175792
0.00523736
-0.000177983
0.00523716
-0.000180155
0.00523704
-0.0001823
0.005237
-0.00018441
0.00523706
-0.000186478
0.00523722
-0.000188498
0.00523747
-0.000190464
0.00523782
-0.000192371
0.00523828
-0.000194214
0.00523884
-0.000195987
0.00523952
-0.000197688
0.00524031
-0.000199311
0.00524122
-0.000200854
-0.000202313
0.00529283
-4.45618e-06
0.00529265
-1.30064e-05
0.00529235
-2.10956e-05
0.00529194
-2.87514e-05
0.00529144
-3.59801e-05
0.00529084
-4.29159e-05
0.00529014
-5.00094e-05
0.0052893
-5.80632e-05
0.00528825
-6.79997e-05
0.00528691
-8.04488e-05
0.0052852
-9.53841e-05
0.00528309
-0.000112008
0.00528056
-0.000128941
0.00527769
-0.000144607
0.00527457
-0.000157647
0.00527132
-0.000167209
0.00526808
-0.000173047
0.00526493
-0.000175455
0.00526198
-0.000175096
0.00525925
-0.000172803
0.00525679
-0.000169404
0.00525457
-0.000165607
0.00525259
-0.000161948
0.00525081
-0.000158776
0.0052492
-0.000156284
0.00524774
-0.000154538
0.00524639
-0.000153522
0.00524514
-0.000153172
0.00524396
-0.000153397
0.00524285
-0.000154103
0.00524179
-0.000155198
0.00524078
-0.000156603
0.00523982
-0.00015825
0.00523891
-0.000160083
0.00523804
-0.000162057
0.00523723
-0.000164137
0.00523646
-0.000166293
0.00523576
-0.000168502
0.00523511
-0.000170746
0.00523453
-0.000173009
0.00523401
-0.000175277
0.00523357
-0.000177541
0.00523321
-0.000179791
0.00523292
-0.000182017
0.00523273
-0.000184212
0.00523262
-0.00018637
0.0052326
-0.000188483
0.00523268
-0.000190547
0.00523287
-0.000192554
0.00523316
-0.000194502
0.00523355
-0.000196383
0.00523406
-0.000198195
0.00523468
-0.000199932
0.00523542
-0.000201592
-0.00020317
0.00529283
-4.39022e-06
0.00529264