/*--------------------------------*- C++ -*----------------------------------*\
| =========                 |                                                 |
| \\      /  F ield         | OpenFOAM: The Open Source CFD Toolbox           |
|  \\    /   O peration     | Version:  2412                                  |
|   \\  /    A nd           | Website:  www.openfoam.com                      |
|    \\/     M anipulation  |                                                 |
\*---------------------------------------------------------------------------*/
FoamFile
{
    version     2.0;
    format      ascii;
    arch        "LSB;label=32;scalar=64";
    class       volVectorField;
    location    "20.5";
    object      U;
}
// * * * * * * * * * * * * * * * * * * * * * * * * * * * * * * * * * * * * * //

dimensions      [0 1 -1 0 0 0 0];

internalField   nonuniform List<vector> 
5285
(
(0.10034 -0.00353654 0)
(0.100392 -0.00360772 0)
(0.100446 -0.00367967 0)
(0.100503 -0.00375231 0)
(0.100563 -0.00382558 0)
(0.100626 -0.00389937 0)
(0.100693 -0.00397359 0)
(0.100763 -0.00404814 0)
(0.100837 -0.00412289 0)
(0.100915 -0.00419773 0)
(0.100996 -0.00427252 0)
(0.101082 -0.0043471 0)
(0.101172 -0.00442132 0)
(0.101265 -0.00449499 0)
(0.101364 -0.0045679 0)
(0.101467 -0.00463983 0)
(0.100267 -0.00358596 0)
(0.100317 -0.00365998 0)
(0.10037 -0.00373489 0)
(0.100427 -0.00381062 0)
(0.100486 -0.00388711 0)
(0.100549 -0.00396425 0)
(0.100616 -0.00404196 0)
(0.100685 -0.00412013 0)
(0.100759 -0.00419865 0)
(0.100837 -0.00427738 0)
(0.100918 -0.00435619 0)
(0.101004 -0.00443492 0)
(0.101094 -0.00451342 0)
(0.101189 -0.00459149 0)
(0.101288 -0.00466892 0)
(0.101392 -0.00474549 0)
(0.10019 -0.00363446 0)
(0.10024 -0.00371138 0)
(0.100292 -0.00378932 0)
(0.100348 -0.00386822 0)
(0.100407 -0.00394802 0)
(0.100469 -0.00402862 0)
(0.100535 -0.00410992 0)
(0.100604 -0.00419183 0)
(0.100678 -0.00427423 0)
(0.100755 -0.00435699 0)
(0.100837 -0.00443998 0)
(0.100923 -0.00452303 0)
(0.101013 -0.00460599 0)
(0.101108 -0.00468866 0)
(0.101208 -0.00477083 0)
(0.101313 -0.00485226 0)
(0.100112 -0.0036819 0)
(0.10016 -0.00376178 0)
(0.100211 -0.00384282 0)
(0.100266 -0.00392497 0)
(0.100324 -0.00400816 0)
(0.100385 -0.00409231 0)
(0.10045 -0.00417732 0)
(0.100519 -0.00426308 0)
(0.100592 -0.0043495 0)
(0.100669 -0.00443643 0)
(0.100751 -0.00452375 0)
(0.100837 -0.00461129 0)
(0.100927 -0.00469889 0)
(0.101023 -0.00478636 0)
(0.101123 -0.00487348 0)
(0.101229 -0.00495999 0)
(0.10003 -0.00372815 0)
(0.100077 -0.00381103 0)
(0.100127 -0.00389524 0)
(0.100181 -0.00398072 0)
(0.100238 -0.00406739 0)
(0.100298 -0.00415517 0)
(0.100362 -0.00424399 0)
(0.100431 -0.00433373 0)
(0.100503 -0.00442429 0)
(0.100579 -0.00451554 0)
(0.100661 -0.00460734 0)
(0.100746 -0.00469954 0)
(0.100837 -0.00479197 0)
(0.100932 -0.00488444 0)
(0.101033 -0.00497672 0)
(0.101139 -0.00506856 0)
(0.0999458 -0.00377305 0)
(0.0999915 -0.003859 0)
(0.10004 -0.00394643 0)
(0.100092 -0.00403529 0)
(0.100148 -0.00412552 0)
(0.100207 -0.00421704 0)
(0.100271 -0.00430976 0)
(0.100338 -0.00440359 0)
(0.100409 -0.00449842 0)
(0.100485 -0.00459413 0)
(0.100566 -0.00469057 0)
(0.100651 -0.0047876 0)
(0.100742 -0.00488505 0)
(0.100837 -0.00498272 0)
(0.100938 -0.00508038 0)
(0.101045 -0.00517779 0)
(0.0998587 -0.00381644 0)
(0.0999028 -0.0039055 0)
(0.0999501 -0.00399622 0)
(0.100001 -0.00408854 0)
(0.100055 -0.0041824 0)
(0.100113 -0.00427773 0)
(0.100175 -0.00437446 0)
(0.100241 -0.00447249 0)
(0.100312 -0.00457171 0)
(0.100387 -0.00467201 0)
(0.100467 -0.00477325 0)
(0.100551 -0.00487528 0)
(0.100641 -0.00497793 0)
(0.100737 -0.00508101 0)
(0.100838 -0.00518429 0)
(0.100945 -0.00528752 0)
(0.0997688 -0.00385816 0)
(0.0998111 -0.00395038 0)
(0.0998567 -0.00404443 0)
(0.0999058 -0.00414026 0)
(0.0999585 -0.00423783 0)
(0.100015 -0.00433706 0)
(0.100076 -0.00443789 0)
(0.10014 -0.00454022 0)
(0.10021 -0.00464396 0)
(0.100284 -0.00474899 0)
(0.100362 -0.00485518 0)
(0.100446 -0.00496238 0)
(0.100536 -0.00507042 0)
(0.100631 -0.00517912 0)
(0.100732 -0.00528824 0)
(0.100839 -0.00539752 0)
(0.0996758 -0.00389804 0)
(0.0997163 -0.00399345 0)
(0.09976 -0.00409087 0)
(0.0998072 -0.00419028 0)
(0.0998581 -0.00429161 0)
(0.0999129 -0.00439482 0)
(0.0999718 -0.00449984 0)
(0.100035 -0.00460658 0)
(0.100103 -0.00471495 0)
(0.100176 -0.00482484 0)
(0.100253 -0.00493612 0)
(0.100336 -0.00504866 0)
(0.100425 -0.00516228 0)
(0.100519 -0.0052768 0)
(0.100619 -0.00539199 0)
(0.100726 -0.0055076 0)
(0.0995799 -0.00393589 0)
(0.0996182 -0.00403453 0)
(0.0996599 -0.00413536 0)
(0.099705 -0.00423838 0)
(0.0997539 -0.00434355 0)
(0.0998068 -0.0044508 0)
(0.0998639 -0.00456008 0)
(0.0999254 -0.00467132 0)
(0.0999915 -0.00478444 0)
(0.100063 -0.00489932 0)
(0.100139 -0.00501585 0)
(0.100221 -0.00513389 0)
(0.100308 -0.00525327 0)
(0.100401 -0.00537382 0)
(0.100501 -0.00549531 0)
(0.100607 -0.00561748 0)
(0.0994809 -0.00397154 0)
(0.0995169 -0.00407341 0)
(0.0995563 -0.00417769 0)
(0.0995992 -0.00428437 0)
(0.0996459 -0.00439341 0)
(0.0996966 -0.00450476 0)
(0.0997516 -0.00461839 0)
(0.0998111 -0.00473422 0)
(0.0998753 -0.00485218 0)
(0.0999445 -0.00497218 0)
(0.100019 -0.00509409 0)
(0.100099 -0.00521779 0)
(0.100185 -0.00534312 0)
(0.100278 -0.0054699 0)
(0.100376 -0.00559792 0)
(0.100482 -0.00572692 0)
(0.0993788 -0.00400478 0)
(0.0994123 -0.00410991 0)
(0.0994492 -0.00421765 0)
(0.0994896 -0.00432801 0)
(0.0995339 -0.00444096 0)
(0.0995822 -0.00455648 0)
(0.0996348 -0.00467452 0)
(0.099692 -0.00479502 0)
(0.099754 -0.00491792 0)
(0.0998212 -0.00504314 0)
(0.0998938 -0.00517057 0)
(0.0999721 -0.00530008 0)
(0.100056 -0.00543153 0)
(0.100147 -0.00556475 0)
(0.100245 -0.00569952 0)
(0.100349 -0.0058356 0)
(0.0992736 -0.00403541 0)
(0.0993044 -0.00414379 0)
(0.0993386 -0.00425501 0)
(0.0993763 -0.00436907 0)
(0.0994179 -0.00448597 0)
(0.0994635 -0.00460569 0)
(0.0995135 -0.00472819 0)
(0.0995682 -0.00485344 0)
(0.0996277 -0.00498137 0)
(0.0996925 -0.00511191 0)
(0.0997628 -0.00524498 0)
(0.0998389 -0.00538045 0)
(0.0999213 -0.00551819 0)
(0.10001 -0.00565804 0)
(0.100106 -0.00579979 0)
(0.100209 -0.00594319 0)
(0.0991653 -0.00406323 0)
(0.0991932 -0.00417485 0)
(0.0992244 -0.00428954 0)
(0.0992592 -0.00440732 0)
(0.0992978 -0.00452818 0)
(0.0993405 -0.00465213 0)
(0.0993876 -0.00477914 0)
(0.0994394 -0.00490919 0)
(0.0994962 -0.00504222 0)
(0.0995582 -0.00517819 0)
(0.0996259 -0.00531701 0)
(0.0996996 -0.00545857 0)
(0.0997795 -0.00560277 0)
(0.0998662 -0.00574943 0)
(0.09996 -0.00589837 0)
(0.100061 -0.00604934 0)
(0.0990539 -0.004088 0)
(0.0990786 -0.00420285 0)
(0.0991066 -0.004321 0)
(0.0991382 -0.00444249 0)
(0.0991736 -0.00456733 0)
(0.0992132 -0.00469552 0)
(0.0992571 -0.00482707 0)
(0.0993057 -0.00496196 0)
(0.0993593 -0.00510017 0)
(0.0994183 -0.00524164 0)
(0.0994831 -0.00538631 0)
(0.0995539 -0.00553409 0)
(0.0996311 -0.00568488 0)
(0.0997153 -0.00583854 0)
(0.0998067 -0.00599487 0)
(0.0999058 -0.00615366 0)
(0.0989394 -0.00410952 0)
(0.0989607 -0.00422756 0)
(0.0989853 -0.00434914 0)
(0.0990134 -0.00447432 0)
(0.0990454 -0.00460312 0)
(0.0990814 -0.00473557 0)
(0.0991218 -0.00487168 0)
(0.099167 -0.00501145 0)
(0.0992172 -0.00515487 0)
(0.0992728 -0.00530191 0)
(0.0993341 -0.00545252 0)
(0.0994017 -0.00560663 0)
(0.0994758 -0.00576415 0)
(0.099557 -0.00592496 0)
(0.0996456 -0.00608888 0)
(0.0997421 -0.00625572 0)
(0.0988219 -0.00412755 0)
(0.0988395 -0.00424873 0)
(0.0988604 -0.00437371 0)
(0.0988848 -0.00450254 0)
(0.098913 -0.00463529 0)
(0.0989452 -0.00477197 0)
(0.0989818 -0.00491264 0)
(0.0990232 -0.0050573 0)
(0.0990696 -0.00520596 0)
(0.0991214 -0.00535862 0)
(0.0991791 -0.00551524 0)
(0.099243 -0.00567577 0)
(0.0993135 -0.00584015 0)
(0.0993912 -0.00600826 0)
(0.0994765 -0.00617995 0)
(0.0995699 -0.00635504 0)
(0.0987013 -0.00414185 0)
(0.0987151 -0.00426611 0)
(0.0987321 -0.00439443 0)
(0.0987524 -0.00452687 0)
(0.0987765 -0.00466352 0)
(0.0988047 -0.00480442 0)
(0.0988371 -0.00494962 0)
(0.0988743 -0.00509917 0)
(0.0989165 -0.00525309 0)
(0.0989642 -0.00541139 0)
(0.0990177 -0.00557407 0)
(0.0990775 -0.0057411 0)
(0.0991441 -0.00591243 0)
(0.0992179 -0.00608796 0)
(0.0992994 -0.00626759 0)
(0.0993892 -0.00645114 0)
(0.0985779 -0.00415219 0)
(0.0985875 -0.00427945 0)
(0.0986002 -0.00441103 0)
(0.0986163 -0.00454702 0)
(0.098636 -0.00468751 0)
(0.0986597 -0.00483256 0)
(0.0986877 -0.00498227 0)
(0.0987203 -0.00513668 0)
(0.098758 -0.00529584 0)
(0.0988011 -0.0054598 0)
(0.09885 -0.00562857 0)
(0.0989053 -0.00580215 0)
(0.0989674 -0.0059805 0)
(0.0990368 -0.00616357 0)
(0.099114 -0.00635127 0)
(0.0991996 -0.00654345 0)
(0.0984515 -0.00415831 0)
(0.0984568 -0.00428848 0)
(0.098465 -0.00442323 0)
(0.0984765 -0.00456268 0)
(0.0984916 -0.00470693 0)
(0.0985105 -0.00485608 0)
(0.0985336 -0.00501022 0)
(0.0985613 -0.00516944 0)
(0.098594 -0.00533383 0)
(0.0986321 -0.00550342 0)
(0.098676 -0.00567828 0)
(0.0987263 -0.00585843 0)
(0.0987833 -0.00604386 0)
(0.0988478 -0.00623456 0)
(0.0989201 -0.00643044 0)
(0.099001 -0.0066314 0)
(0.0999999 -3.46528e-05 0)
(0.0999992 -0.000103185 0)
(0.0999977 -0.000170676 0)
(0.0999954 -0.000236998 0)
(0.0999926 -0.00030185 0)
(0.0999893 -0.000366758 0)
(0.0999855 -0.000437624 0)
(0.0999802 -0.000525264 0)
(0.0999717 -0.000642321 0)
(0.0999576 -0.000797603 0)
(0.0999357 -0.000990882 0)
(0.0999046 -0.00121105 0)
(0.0998645 -0.00143847 0)
(0.0998171 -0.00165039 0)
(0.0997655 -0.0018268 0)
(0.0997133 -0.00195485 0)
(0.0996643 -0.00203053 0)
(0.0996211 -0.00205794 0)
(0.0995858 -0.00204684 0)
(0.0995591 -0.00200973 0)
(0.0995411 -0.00195917 0)
(0.099531 -0.00190598 0)
(0.0995277 -0.00185827 0)
(0.0995299 -0.0018213 0)
(0.0995363 -0.00179777 0)
(0.0995459 -0.00178841 0)
(0.0995576 -0.00179261 0)
(0.0995709 -0.00180899 0)
(0.0995853 -0.0018358 0)
(0.0996004 -0.00187126 0)
(0.0996161 -0.00191371 0)
(0.0996322 -0.00196172 0)
(0.0996489 -0.00201411 0)
(0.0996661 -0.00206992 0)
(0.099684 -0.00212843 0)
(0.0997026 -0.00218907 0)
(0.099722 -0.0022514 0)
(0.0997424 -0.0023151 0)
(0.0997637 -0.00237992 0)
(0.0997862 -0.00244566 0)
(0.0998099 -0.00251216 0)
(0.0998349 -0.0025793 0)
(0.0998612 -0.00264695 0)
(0.0998888 -0.00271503 0)
(0.099918 -0.00278343 0)
(0.0999485 -0.00285207 0)
(0.0999806 -0.00292088 0)
(0.100014 -0.00298976 0)
(0.100049 -0.00305864 0)
(0.100086 -0.00312744 0)
(0.100124 -0.00319609 0)
(0.100164 -0.0032645 0)
(0.100206 -0.00333262 0)
(0.100248 -0.00340035 0)
(0.100293 -0.00346764 0)
(0.0999999 -3.44996e-05 0)
(0.0999991 -0.000102727 0)
(0.0999974 -0.00016992 0)
(0.0999948 -0.00023597 0)
(0.0999916 -0.000300593 0)
(0.0999879 -0.000365258 0)
(0.0999836 -0.000435665 0)
(0.0999777 -0.000522287 0)
(0.0999685 -0.000637419 0)
(0.0999537 -0.000789702 0)
(0.0999309 -0.000979071 0)
(0.0998988 -0.0011949 0)
(0.0998576 -0.00141827 0)
(0.0998089 -0.0016271 0)
(0.0997559 -0.00180189 0)
(0.0997021 -0.00193001 0)
(0.0996513 -0.00200738 0)
(0.0996062 -0.00203777 0)
(0.0995689 -0.0020305 0)
(0.0995402 -0.00199758 0)
(0.0995202 -0.00195118 0)
(0.0995081 -0.00190182 0)
(0.0995027 -0.00185744 0)
(0.099503 -0.00182321 0)
(0.0995075 -0.00180185 0)
(0.0995151 -0.00179416 0)
(0.0995251 -0.00179962 0)
(0.0995366 -0.00181694 0)
(0.0995492 -0.00184447 0)
(0.0995626 -0.00188053 0)
(0.0995766 -0.00192352 0)
(0.0995911 -0.00197206 0)
(0.0996061 -0.00202502 0)
(0.0996217 -0.00208147 0)
(0.099638 -0.00214069 0)
(0.0996549 -0.00220213 0)
(0.0996728 -0.00226537 0)
(0.0996916 -0.00233009 0)
(0.0997114 -0.00239603 0)
(0.0997323 -0.00246299 0)
(0.0997545 -0.00253083 0)
(0.099778 -0.00259939 0)
(0.0998028 -0.00266858 0)
(0.099829 -0.00273828 0)
(0.0998567 -0.00280841 0)
(0.0998859 -0.00287887 0)
(0.0999167 -0.00294957 0)
(0.099949 -0.00302044 0)
(0.0999829 -0.00309139 0)
(0.100018 -0.00316234 0)
(0.100056 -0.00323322 0)
(0.100094 -0.00330394 0)
(0.100135 -0.00337443 0)
(0.100177 -0.00344461 0)
(0.10022 -0.00351441 0)
(0.0999999 -3.43281e-05 0)
(0.099999 -0.000102214 0)
(0.0999971 -0.000169074 0)
(0.0999942 -0.000234816 0)
(0.0999907 -0.000299174 0)
(0.0999865 -0.000363563 0)
(0.0999816 -0.000433478 0)
(0.0999751 -0.000519052 0)
(0.0999653 -0.000632229 0)
(0.0999498 -0.000781482 0)
(0.0999263 -0.0009669 0)
(0.0998935 -0.00117835 0)
(0.0998514 -0.00139759 0)
(0.0998017 -0.00160324 0)
(0.0997475 -0.00177632 0)
(0.0996924 -0.00190443 0)
(0.09964 -0.00198339 0)
(0.0995932 -0.00201666 0)
(0.099554 -0.00201314 0)
(0.0995233 -0.00198436 0)
(0.0995012 -0.00194208 0)
(0.0994869 -0.00189653 0)
(0.0994794 -0.00185547 0)
(0.0994775 -0.00182398 0)
(0.0994799 -0.0018048 0)
(0.0994855 -0.00179878 0)
(0.0994935 -0.00180549 0)
(0.0995031 -0.00182375 0)
(0.0995138 -0.00185202 0)
(0.0995253 -0.00188867 0)
(0.0995375 -0.00193219 0)
(0.0995502 -0.00198127 0)
(0.0995634 -0.00203478 0)
(0.0995773 -0.00209185 0)
(0.0995918 -0.00215178 0)
(0.099607 -0.00221402 0)
(0.0996232 -0.00227816 0)
(0.0996403 -0.00234388 0)
(0.0996584 -0.00241092 0)
(0.0996778 -0.00247911 0)
(0.0996983 -0.00254826 0)
(0.0997202 -0.00261825 0)
(0.0997434 -0.00268897 0)
(0.0997681 -0.0027603 0)
(0.0997943 -0.00283215 0)
(0.099822 -0.00290443 0)
(0.0998513 -0.00297704 0)
(0.0998822 -0.00304991 0)
(0.0999147 -0.00312295 0)
(0.0999489 -0.00319608 0)
(0.0999848 -0.00326922 0)
(0.100022 -0.00334228 0)
(0.100061 -0.00341518 0)
(0.100102 -0.00348785 0)
(0.100145 -0.0035602 0)
(0.0999999 -3.41381e-05 0)
(0.0999989 -0.000101647 0)
(0.0999968 -0.000168137 0)
(0.0999936 -0.000233534 0)
(0.0999897 -0.000297592 0)
(0.0999851 -0.00036167 0)
(0.0999796 -0.000431062 0)
(0.0999725 -0.000515565 0)
(0.0999621 -0.000626772 0)
(0.099946 -0.000772985 0)
(0.0999219 -0.000954439 0)
(0.0998885 -0.00116147 0)
(0.0998457 -0.00137654 0)
(0.0997953 -0.00157894 0)
(0.0997402 -0.00175022 0)
(0.099684 -0.00187819 0)
(0.0996302 -0.00195862 0)
(0.0995819 -0.00199467 0)
(0.0995408 -0.00199479 0)
(0.0995082 -0.00197006 0)
(0.0994839 -0.00193184 0)
(0.0994674 -0.00189005 0)
(0.0994577 -0.00185227 0)
(0.0994535 -0.00182351 0)
(0.0994536 -0.0018065 0)
(0.099457 -0.00180215 0)
(0.0994628 -0.00181013 0)
(0.0994703 -0.00182934 0)
(0.099479 -0.00185834 0)
(0.0994885 -0.00189559 0)
(0.0994987 -0.00193965 0)
(0.0995094 -0.00198924 0)
(0.0995208 -0.00204331 0)
(0.0995328 -0.002101 0)
(0.0995454 -0.00216161 0)
(0.0995589 -0.00222464 0)
(0.0995732 -0.00228967 0)
(0.0995885 -0.00235638 0)
(0.0996049 -0.00242452 0)
(0.0996225 -0.00249391 0)
(0.0996413 -0.00256438 0)
(0.0996615 -0.00263579 0)
(0.099683 -0.00270802 0)
(0.099706 -0.00278098 0)
(0.0997306 -0.00285455 0)
(0.0997567 -0.00292865 0)
(0.0997844 -0.00300319 0)
(0.0998138 -0.00307807 0)
(0.0998449 -0.00315322 0)
(0.0998776 -0.00322854 0)
(0.0999121 -0.00330396 0)
(0.0999482 -0.00337938 0)
(0.0999861 -0.00345473 0)
(0.100026 -0.00352993 0)
(0.100067 -0.00360489 0)
(0.0999999 -3.39294e-05 0)
(0.0999988 -0.000101024 0)
(0.0999965 -0.000167108 0)
(0.099993 -0.000232125 0)
(0.0999887 -0.000295845 0)
(0.0999836 -0.000359576 0)
(0.0999776 -0.000428417 0)
(0.0999699 -0.000511831 0)
(0.0999589 -0.000621065 0)
(0.0999422 -0.000764245 0)
(0.0999177 -0.000941744 0)
(0.0998838 -0.00114437 0)
(0.0998406 -0.00135523 0)
(0.0997896 -0.00155432 0)
(0.0997339 -0.0017237 0)
(0.0996768 -0.00185142 0)
(0.0996218 -0.00193318 0)
(0.099572 -0.00197186 0)
(0.0995292 -0.00197547 0)
(0.0994946 -0.00195468 0)
(0.0994681 -0.00192042 0)
(0.0994494 -0.00188233 0)
(0.0994373 -0.00184779 0)
(0.0994307 -0.00182173 0)
(0.0994285 -0.00180688 0)
(0.0994295 -0.0018042 0)
(0.099433 -0.00181345 0)
(0.0994382 -0.00183362 0)
(0.0994447 -0.00186336 0)
(0.0994521 -0.00190121 0)
(0.0994602 -0.0019458 0)
(0.0994689 -0.00199592 0)
(0.0994782 -0.00205054 0)
(0.0994882 -0.00210882 0)
(0.099499 -0.00217012 0)
(0.0995105 -0.00223392 0)
(0.0995229 -0.00229982 0)
(0.0995363 -0.00236751 0)
(0.0995508 -0.00243674 0)
(0.0995665 -0.00250732 0)
(0.0995835 -0.00257909 0)
(0.0996018 -0.00265191 0)
(0.0996216 -0.00272566 0)
(0.0996428 -0.00280023 0)
(0.0996656 -0.00287553 0)
(0.09969 -0.00295145 0)
(0.0997161 -0.00302791 0)
(0.0997438 -0.00310481 0)
(0.0997732 -0.00318207 0)
(0.0998044 -0.00325961 0)
(0.0998374 -0.00333732 0)
(0.0998721 -0.00341514 0)
(0.0999086 -0.00349297 0)
(0.0999468 -0.00357072 0)
(0.0999869 -0.00364833 0)
(0.0999999 -3.37019e-05 0)
(0.0999987 -0.000100345 0)
(0.0999961 -0.000165987 0)
(0.0999924 -0.000230587 0)
(0.0999877 -0.000293933 0)
(0.0999822 -0.000357281 0)
(0.0999756 -0.000425543 0)
(0.0999673 -0.000507853 0)
(0.0999557 -0.00061512 0)
(0.0999385 -0.000755291 0)
(0.0999135 -0.000928865 0)
(0.0998793 -0.00112709 0)
(0.0998358 -0.00133374 0)
(0.0997846 -0.00152948 0)
(0.0997283 -0.00169686 0)
(0.0996705 -0.00182419 0)
(0.0996146 -0.00190712 0)
(0.0995634 -0.00194826 0)
(0.099519 -0.00195522 0)
(0.0994824 -0.00193822 0)
(0.0994538 -0.00190781 0)
(0.0994326 -0.00187333 0)
(0.0994181 -0.00184196 0)
(0.099409 -0.00181856 0)
(0.0994043 -0.00180585 0)
(0.0994029 -0.00180484 0)
(0.099404 -0.00181536 0)
(0.0994068 -0.00183649 0)
(0.0994109 -0.00186698 0)
(0.0994161 -0.00190544 0)
(0.0994219 -0.00195057 0)
(0.0994285 -0.00200121 0)
(0.0994357 -0.00205637 0)
(0.0994436 -0.00211526 0)
(0.0994523 -0.00217723 0)
(0.0994618 -0.00224179 0)
(0.0994722 -0.00230855 0)
(0.0994836 -0.0023772 0)
(0.0994961 -0.0024475 0)
(0.0995099 -0.00251926 0)
(0.0995249 -0.00259231 0)
(0.0995413 -0.00266652 0)
(0.0995591 -0.00274177 0)
(0.0995785 -0.00281795 0)
(0.0995994 -0.00289496 0)
(0.099622 -0.0029727 0)
(0.0996462 -0.00305108 0)
(0.0996722 -0.00313001 0)
(0.0996999 -0.0032094 0)
(0.0997293 -0.00328915 0)
(0.0997606 -0.00336918 0)
(0.0997937 -0.00344941 0)
(0.0998287 -0.00352974 0)
(0.0998654 -0.00361009 0)
(0.0999041 -0.00369037 0)
(0.0999999 -3.34555e-05 0)
(0.0999986 -9.96101e-05 0)
(0.0999958 -0.000164773 0)
(0.0999918 -0.000228919 0)
(0.0999867 -0.000291852 0)
(0.0999807 -0.000354783 0)
(0.0999736 -0.000422437 0)
(0.0999647 -0.000503635 0)
(0.0999525 -0.000608949 0)
(0.0999349 -0.000746146 0)
(0.0999095 -0.00091584 0)
(0.099875 -0.00110971 0)
(0.0998314 -0.00131215 0)
(0.0997799 -0.00150448 0)
(0.0997234 -0.00166978 0)
(0.099665 -0.00179658 0)
(0.0996082 -0.00188052 0)
(0.0995558 -0.00192394 0)
(0.0995098 -0.00193407 0)
(0.0994713 -0.00192069 0)
(0.0994405 -0.00189399 0)
(0.099417 -0.00186301 0)
(0.0994 -0.00183474 0)
(0.0993883 -0.00181396 0)
(0.099381 -0.00180336 0)
(0.099377 -0.00180401 0)
(0.0993755 -0.00181579 0)
(0.0993759 -0.0018379 0)
(0.0993776 -0.00186913 0)
(0.0993804 -0.00190821 0)
(0.0993839 -0.00195389 0)
(0.0993882 -0.00200505 0)
(0.0993932 -0.00206075 0)
(0.0993989 -0.00212023 0)
(0.0994054 -0.00218286 0)
(0.0994128 -0.00224817 0)
(0.099421 -0.00231577 0)
(0.0994304 -0.00238537 0)
(0.0994408 -0.00245672 0)
(0.0994525 -0.00252963 0)
(0.0994654 -0.00260395 0)
(0.0994798 -0.00267954 0)
(0.0994956 -0.00275628 0)
(0.0995129 -0.00283405 0)
(0.0995319 -0.00291276 0)
(0.0995525 -0.00299231 0)
(0.0995748 -0.00307261 0)
(0.0995988 -0.00315356 0)
(0.0996246 -0.00323506 0)
(0.0996523 -0.00331704 0)
(0.0996818 -0.00339941 0)
(0.0997131 -0.00348206 0)
(0.0997464 -0.00356491 0)
(0.0997815 -0.00364788 0)
(0.0998186 -0.00373087 0)
(0.0999999 -3.31902e-05 0)
(0.0999985 -9.88189e-05 0)
(0.0999955 -0.000163466 0)
(0.0999912 -0.000227121 0)
(0.0999857 -0.000289604 0)
(0.0999792 -0.00035208 0)
(0.0999716 -0.0004191 0)
(0.0999621 -0.000499178 0)
(0.0999494 -0.000602557 0)
(0.0999312 -0.000736825 0)
(0.0999055 -0.000902696 0)
(0.0998709 -0.00109225 0)
(0.0998271 -0.0012905 0)
(0.0997756 -0.0014794 0)
(0.0997189 -0.00164253 0)
(0.0996601 -0.00176866 0)
(0.0996025 -0.00185343 0)
(0.099549 -0.00189893 0)
(0.0995015 -0.00191203 0)
(0.0994611 -0.0019021 0)
(0.0994281 -0.00187896 0)
(0.0994023 -0.00185136 0)
(0.0993827 -0.00182611 0)
(0.0993684 -0.00180788 0)
(0.0993584 -0.00179936 0)
(0.0993518 -0.00180165 0)
(0.0993477 -0.00181469 0)
(0.0993455 -0.00183777 0)
(0.0993447 -0.00186976 0)
(0.0993449 -0.00190946 0)
(0.0993461 -0.00195568 0)
(0.099348 -0.00200736 0)
(0.0993507 -0.0020636 0)
(0.0993541 -0.00212366 0)
(0.0993583 -0.00218695 0)
(0.0993634 -0.00225299 0)
(0.0993695 -0.00232141 0)
(0.0993766 -0.00239193 0)
(0.0993848 -0.00246431 0)
(0.0993943 -0.00253836 0)
(0.0994051 -0.00261393 0)
(0.0994173 -0.00269087 0)
(0.099431 -0.00276907 0)
(0.0994462 -0.00284842 0)
(0.099463 -0.00292882 0)
(0.0994815 -0.00301016 0)
(0.0995018 -0.00309236 0)
(0.0995238 -0.00317532 0)
(0.0995476 -0.00325895 0)
(0.0995733 -0.00334316 0)
(0.0996008 -0.00342785 0)
(0.0996303 -0.00351294 0)
(0.0996617 -0.00359834 0)
(0.099695 -0.00368394 0)
(0.0997303 -0.00376967 0)
(0.0999999 -3.29058e-05 0)
(0.0999984 -9.79712e-05 0)
(0.0999952 -0.000162065 0)
(0.0999906 -0.000225192 0)
(0.0999847 -0.000287186 0)
(0.0999777 -0.000349171 0)
(0.0999695 -0.00041553 0)
(0.0999595 -0.000494481 0)
(0.0999461 -0.000595949 0)
(0.0999275 -0.00072734 0)
(0.0999015 -0.000889455 0)
(0.0998668 -0.00107476 0)
(0.099823 -0.00126885 0)
(0.0997715 -0.00145429 0)
(0.0997147 -0.00161516 0)
(0.0996556 -0.00174049 0)
(0.0995973 -0.0018259 0)
(0.0995427 -0.00187328 0)
(0.0994938 -0.00188914 0)
(0.0994516 -0.00188246 0)
(0.0994165 -0.00186272 0)
(0.0993882 -0.00183836 0)
(0.0993661 -0.00181603 0)
(0.0993491 -0.00180029 0)
(0.0993364 -0.00179381 0)
(0.0993271 -0.00179771 0)
(0.0993203 -0.00181201 0)
(0.0993154 -0.00183605 0)
(0.099312 -0.00186881 0)
(0.0993097 -0.00190913 0)
(0.0993084 -0.00195589 0)
(0.0993078 -0.00200809 0)
(0.0993081 -0.00206486 0)
(0.0993091 -0.00212549 0)
(0.099311 -0.00218941 0)
(0.0993137 -0.00225617 0)
(0.0993175 -0.0023254 0)
(0.0993223 -0.00239682 0)
(0.0993282 -0.0024702 0)
(0.0993354 -0.00254536 0)
(0.0993439 -0.00262215 0)
(0.0993539 -0.00270042 0)
(0.0993653 -0.00278006 0)
(0.0993783 -0.00286096 0)
(0.0993929 -0.00294302 0)
(0.0994091 -0.00302614 0)
(0.0994272 -0.00311023 0)
(0.099447 -0.00319519 0)
(0.0994687 -0.00328093 0)
(0.0994922 -0.00336736 0)
(0.0995177 -0.00345439 0)
(0.0995451 -0.00354191 0)
(0.0995745 -0.00362985 0)
(0.0996059 -0.00371811 0)
(0.0996393 -0.0038066 0)
(0.0999999 -3.26024e-05 0)
(0.0999983 -9.70669e-05 0)
(0.0999949 -0.000160571 0)
(0.09999 -0.000223132 0)
(0.0999837 -0.000284599 0)
(0.0999762 -0.000346056 0)
(0.0999675 -0.000411725 0)
(0.0999568 -0.000489544 0)
(0.0999429 -0.000589125 0)
(0.0999238 -0.000717693 0)
(0.0998976 -0.000876124 0)
(0.0998627 -0.00105724 0)
(0.099819 -0.0012472 0)
(0.0997675 -0.00142918 0)
(0.0997107 -0.0015877 0)
(0.0996513 -0.00171209 0)
(0.0995924 -0.00179796 0)
(0.0995369 -0.00184701 0)
(0.0994865 -0.00186542 0)
(0.0994425 -0.0018618 0)
(0.0994053 -0.00184527 0)
(0.0993746 -0.00182402 0)
(0.0993499 -0.00180449 0)
(0.0993303 -0.00179117 0)
(0.0993149 -0.00178667 0)
(0.0993028 -0.00179216 0)
(0.0992932 -0.0018077 0)
(0.0992856 -0.00183271 0)
(0.0992795 -0.00186622 0)
(0.0992746 -0.00190716 0)
(0.0992707 -0.00195447 0)
(0.0992676 -0.00200718 0)
(0.0992654 -0.00206447 0)
(0.099264 -0.00212566 0)
(0.0992634 -0.0021902 0)
(0.0992637 -0.00225765 0)
(0.099265 -0.00232766 0)
(0.0992674 -0.00239995 0)
(0.099271 -0.00247431 0)
(0.0992758 -0.00255055 0)
(0.0992819 -0.00262852 0)
(0.0992895 -0.00270809 0)
(0.0992985 -0.00278914 0)
(0.0993091 -0.00287157 0)
(0.0993213 -0.00295527 0)
(0.0993353 -0.00304014 0)
(0.099351 -0.00312609 0)
(0.0993685 -0.00321303 0)
(0.0993879 -0.00330087 0)
(0.0994091 -0.00338951 0)
(0.0994324 -0.00347885 0)
(0.0994576 -0.00356882 0)
(0.0994848 -0.00365931 0)
(0.0995141 -0.00375023 0)
(0.0995454 -0.00384149 0)
(0.0999999 -3.22799e-05 0)
(0.0999982 -9.61058e-05 0)
(0.0999946 -0.000158983 0)
(0.0999894 -0.00022094 0)
(0.0999827 -0.000281841 0)
(0.0999748 -0.000342732 0)
(0.0999654 -0.000407685 0)
(0.0999542 -0.000484366 0)
(0.0999397 -0.000582085 0)
(0.0999201 -0.000707886 0)
(0.0998936 -0.000862708 0)
(0.0998586 -0.00103971 0)
(0.0998149 -0.00122558 0)
(0.0997635 -0.00140407 0)
(0.0997067 -0.00156019 0)
(0.099647 -0.0016835 0)
(0.0995877 -0.00176965 0)
(0.0995312 -0.00182016 0)
(0.0994794 -0.00184089 0)
(0.0994337 -0.00184013 0)
(0.0993944 -0.00182664 0)
(0.0993614 -0.00180834 0)
(0.0993342 -0.00179151 0)
(0.0993119 -0.00178051 0)
(0.0992937 -0.00177795 0)
(0.0992787 -0.00178498 0)
(0.0992664 -0.00180174 0)
(0.099256 -0.0018277 0)
(0.0992472 -0.00186197 0)
(0.0992396 -0.00190352 0)
(0.0992331 -0.00195137 0)
(0.0992274 -0.00200458 0)
(0.0992226 -0.00206238 0)
(0.0992186 -0.00212411 0)
(0.0992155 -0.00218924 0)
(0.0992133 -0.00225736 0)
(0.0992121 -0.00232812 0)
(0.099212 -0.00240126 0)
(0.0992131 -0.00247656 0)
(0.0992154 -0.00255384 0)
(0.099219 -0.00263297 0)
(0.0992241 -0.0027138 0)
(0.0992306 -0.00279623 0)
(0.0992387 -0.00288014 0)
(0.0992485 -0.00296544 0)
(0.0992599 -0.00305203 0)
(0.0992732 -0.00313982 0)
(0.0992882 -0.00322872 0)
(0.0993052 -0.00331862 0)
(0.099324 -0.00340945 0)
(0.0993449 -0.00350111 0)
(0.0993677 -0.0035935 0)
(0.0993926 -0.00368654 0)
(0.0994196 -0.00378012 0)
(0.0994487 -0.00387415 0)
(0.0999999 -3.19382e-05 0)
(0.0999981 -9.50878e-05 0)
(0.0999943 -0.000157301 0)
(0.0999888 -0.000218617 0)
(0.0999817 -0.000278913 0)
(0.0999733 -0.000339201 0)
(0.0999634 -0.000403409 0)
(0.0999515 -0.000478943 0)
(0.0999365 -0.000574824 0)
(0.0999164 -0.000697913 0)
(0.0998895 -0.000849201 0)
(0.0998544 -0.00102216 0)
(0.0998108 -0.00120399 0)
(0.0997595 -0.00137899 0)
(0.0997026 -0.00153263 0)
(0.0996428 -0.00165473 0)
(0.0995829 -0.00174099 0)
(0.0995255 -0.00179274 0)
(0.0994725 -0.00181559 0)
(0.099425 -0.00181747 0)
(0.0993837 -0.00180683 0)
(0.0993484 -0.00179133 0)
(0.0993186 -0.00177707 0)
(0.0992936 -0.00176831 0)
(0.0992726 -0.00176761 0)
(0.0992549 -0.00177615 0)
(0.0992398 -0.00179411 0)
(0.0992266 -0.001821 0)
(0.099215 -0.00185601 0)
(0.0992047 -0.00189817 0)
(0.0991954 -0.00194654 0)
(0.0991871 -0.00200024 0)
(0.0991796 -0.00205853 0)
(0.099173 -0.00212078 0)
(0.0991673 -0.00218649 0)
(0.0991625 -0.00225524 0)
(0.0991588 -0.00232672 0)
(0.0991561 -0.00240067 0)
(0.0991545 -0.00247687 0)
(0.0991542 -0.00255516 0)
(0.0991553 -0.0026354 0)
(0.0991577 -0.00271746 0)
(0.0991616 -0.00280122 0)
(0.0991671 -0.00288658 0)
(0.0991743 -0.00297344 0)
(0.0991831 -0.00306171 0)
(0.0991938 -0.0031513 0)
(0.0992062 -0.00324211 0)
(0.0992206 -0.00333406 0)
(0.0992369 -0.00342705 0)
(0.0992552 -0.003521 0)
(0.0992755 -0.0036158 0)
(0.0992979 -0.00371136 0)
(0.0993224 -0.0038076 0)
(0.0993491 -0.0039044 0)
(0.0999999 -3.15774e-05 0)
(0.099998 -9.40129e-05 0)
(0.099994 -0.000155525 0)
(0.0999882 -0.000216162 0)
(0.0999807 -0.000275814 0)
(0.0999718 -0.000335462 0)
(0.0999613 -0.000398896 0)
(0.0999488 -0.000473275 0)
(0.0999332 -0.000567339 0)
(0.0999127 -0.000687769 0)
(0.0998854 -0.000835595 0)
(0.0998502 -0.00100459 0)
(0.0998065 -0.00118242 0)
(0.0997553 -0.00135392 0)
(0.0996984 -0.00150502 0)
(0.0996384 -0.00162579 0)
(0.099578 -0.00171198 0)
(0.0995197 -0.00176478 0)
(0.0994654 -0.00178953 0)
(0.0994163 -0.00179384 0)
(0.099373 -0.00178587 0)
(0.0993354 -0.00177302 0)
(0.0993031 -0.0017612 0)
(0.0992755 -0.00175457 0)
(0.0992517 -0.00175567 0)
(0.0992312 -0.00176567 0)
(0.0992132 -0.00178479 0)
(0.0991973 -0.00181259 0)
(0.0991829 -0.00184832 0)
(0.0991698 -0.00189107 0)
(0.0991578 -0.00193995 0)
(0.0991467 -0.00199413 0)
(0.0991365 -0.00205288 0)
(0.0991272 -0.00211563 0)
(0.0991188 -0.00218187 0)
(0.0991114 -0.00225123 0)
(0.0991049 -0.00232339 0)
(0.0990996 -0.00239811 0)
(0.0990953 -0.00247517 0)
(0.0990923 -0.00255443 0)
(0.0990907 -0.00263573 0)
(0.0990904 -0.00271896 0)
(0.0990916 -0.002804 0)
(0.0990944 -0.00289076 0)
(0.0990988 -0.00297914 0)
(0.0991049 -0.00306905 0)
(0.0991128 -0.0031604 0)
(0.0991225 -0.00325309 0)
(0.0991341 -0.00334704 0)
(0.0991477 -0.00344216 0)
(0.0991633 -0.00353836 0)
(0.0991809 -0.00363554 0)
(0.0992006 -0.00373361 0)
(0.0992225 -0.00383248 0)
(0.0992465 -0.00393205 0)
(0.0999999 -3.11974e-05 0)
(0.0999979 -9.28813e-05 0)
(0.0999937 -0.000153655 0)
(0.0999876 -0.000213576 0)
(0.0999797 -0.000272545 0)
(0.0999703 -0.000331514 0)
(0.0999593 -0.000394144 0)
(0.0999462 -0.000467358 0)
(0.0999299 -0.000559623 0)
(0.0999089 -0.000677442 0)
(0.0998813 -0.000821878 0)
(0.0998459 -0.000986972 0)
(0.0998021 -0.00116085 0)
(0.0997509 -0.00132886 0)
(0.099694 -0.00147735 0)
(0.0996338 -0.00159668 0)
(0.0995729 -0.00168263 0)
(0.0995137 -0.00173629 0)
(0.0994582 -0.00176273 0)
(0.0994075 -0.00176927 0)
(0.0993622 -0.00176378 0)
(0.0993224 -0.00175341 0)
(0.0992876 -0.0017439 0)
(0.0992573 -0.00173931 0)
(0.0992309 -0.00174213 0)
(0.0992076 -0.00175354 0)
(0.0991867 -0.00177377 0)
(0.0991679 -0.00180245 0)
(0.0991507 -0.00183888 0)
(0.0991348 -0.00188221 0)
(0.09912 -0.00193157 0)
(0.0991062 -0.00198619 0)
(0.0990933 -0.0020454 0)
(0.0990812 -0.0021086 0)
(0.0990701 -0.00217536 0)
(0.0990599 -0.00224528 0)
(0.0990507 -0.00231808 0)
(0.0990425 -0.00239352 0)
(0.0990355 -0.0024714 0)
(0.0990297 -0.00255156 0)
(0.0990253 -0.00263388 0)
(0.0990222 -0.00271822 0)
(0.0990205 -0.0028045 0)
(0.0990205 -0.0028926 0)
(0.099022 -0.00298245 0)
(0.0990252 -0.00307394 0)
(0.0990302 -0.00316699 0)
(0.099037 -0.00326151 0)
(0.0990458 -0.00335742 0)
(0.0990565 -0.00345462 0)
(0.0990692 -0.00355303 0)
(0.0990839 -0.00365256 0)
(0.0991008 -0.00375311 0)
(0.0991199 -0.00385459 0)
(0.0991411 -0.0039569 0)
(0.0999998 -3.07984e-05 0)
(0.0999978 -9.16928e-05 0)
(0.0999934 -0.000151691 0)
(0.099987 -0.000210858 0)
(0.0999787 -0.000269106 0)
(0.0999688 -0.000327358 0)
(0.0999572 -0.000389154 0)
(0.0999435 -0.00046119 0)
(0.0999267 -0.00055167 0)
(0.0999051 -0.000666924 0)
(0.0998771 -0.000808033 0)
(0.0998414 -0.000969294 0)
(0.0997976 -0.00113926 0)
(0.0997464 -0.00130378 0)
(0.0996894 -0.00144962 0)
(0.0996289 -0.0015674 0)
(0.0995675 -0.00165296 0)
(0.0995075 -0.00170728 0)
(0.0994508 -0.00173521 0)
(0.0993985 -0.00174378 0)
(0.0993513 -0.00174057 0)
(0.0993092 -0.00173253 0)
(0.099272 -0.0017252 0)
(0.0992392 -0.00172255 0)
(0.09921 -0.00172701 0)
(0.0991839 -0.00173975 0)
(0.0991603 -0.00176106 0)
(0.0991386 -0.00179059 0)
(0.0991186 -0.00182768 0)
(0.0990999 -0.00187155 0)
(0.0990822 -0.00192138 0)
(0.0990656 -0.00197642 0)
(0.0990499 -0.00203603 0)
(0.099035 -0.00209966 0)
(0.099021 -0.00216688 0)
(0.099008 -0.00223733 0)
(0.098996 -0.00231072 0)