/*--------------------------------*- C++ -*----------------------------------*\
| =========                 |                                                 |
| \\      /  F ield         | OpenFOAM: The Open Source CFD Toolbox           |
|  \\    /   O peration     | Version:  2412                                  |
|   \\  /    A nd           | Website:  www.openfoam.com                      |
|    \\/     M anipulation  |                                                 |
\*---------------------------------------------------------------------------*/
FoamFile
{
    version     2.0;
    format      ascii;
    arch        "LSB;label=32;scalar=64";
    class       volScalarField;
    location    "15.5";
    object      p;
}
// * * * * * * * * * * * * * * * * * * * * * * * * * * * * * * * * * * * * * //

dimensions      [0 2 -2 0 0 0 0];

internalField   nonuniform List<scalar> 
5285
(
0.00106662
0.00106714
0.00106736
0.00106726
0.00106681
0.00106598
0.00106473
0.00106302
0.00106081
0.00105806
0.00105472
0.00105073
0.00104606
0.00104063
0.00103439
0.00102728
0.00105158
0.00105162
0.00105135
0.00105076
0.00104981
0.00104846
0.00104669
0.00104445
0.00104171
0.00103842
0.00103453
0.00103001
0.0010248
0.00101884
0.00101208
0.00100446
0.00103678
0.00103637
0.00103565
0.00103459
0.00103316
0.00103133
0.00102907
0.00102634
0.0010231
0.00101932
0.00101494
0.00100992
0.00100422
0.000997778
0.000990551
0.000982479
0.00102224
0.0010214
0.00102025
0.00101875
0.00101688
0.0010146
0.00101189
0.0010087
0.001005
0.00100076
0.000995922
0.000990455
0.00098431
0.000977439
0.000969794
0.000961321
0.00100796
0.00100673
0.00100517
0.00100326
0.00100097
0.000998274
0.000995136
0.000991524
0.000987404
0.000982739
0.000977488
0.000971613
0.000965068
0.000957811
0.000949794
0.00094097
0.000993965
0.000992353
0.000990412
0.000988116
0.000985438
0.000982349
0.000978819
0.000974817
0.000970309
0.000965259
0.000959631
0.000953386
0.000946483
0.000938882
0.000930538
0.000921406
0.000980248
0.000978281
0.000975981
0.000973324
0.000970284
0.000966832
0.00096294
0.000958579
0.000953714
0.000948314
0.000942344
0.000935766
0.000928544
0.000920638
0.000912007
0.000902611
0.000966817
0.000964517
0.000961882
0.000958888
0.000955511
0.000951724
0.000947498
0.000942806
0.000937617
0.000931899
0.00092562
0.000918744
0.000911238
0.000903064
0.000894185
0.000884562
0.000953677
0.000951065
0.000948117
0.00094481
0.000941121
0.000937023
0.000932491
0.000927497
0.000922012
0.000916006
0.000909449
0.000902309
0.000894552
0.000886144
0.000877051
0.000867237
0.00094083
0.000937927
0.000934687
0.00093109
0.000927111
0.000922728
0.000917915
0.000912645
0.000906892
0.000900628
0.000893823
0.000886447
0.000878471
0.000869861
0.000860587
0.000850615
0.000928278
0.000925103
0.000921593
0.000917726
0.000913482
0.000908836
0.000903765
0.000898245
0.00089225
0.000885754
0.000878729
0.000871147
0.00086298
0.000854198
0.000844772
0.000834671
0.000916023
0.000912594
0.000908833
0.000904718
0.000900228
0.000895342
0.000890038
0.000884291
0.000878079
0.000871376
0.000864156
0.000856394
0.000848062
0.000839135
0.000829585
0.000819383
0.000904063
0.0009004
0.000896406
0.000892061
0.000887347
0.000882242
0.000876726
0.000870775
0.000864368
0.000857481
0.000850091
0.000842173
0.000833703
0.000824655
0.000815005
0.000804728
0.000892398
0.000888517
0.000884309
0.000879754
0.000874835
0.000869531
0.000863822
0.000857689
0.000851109
0.00084406
0.000836522
0.000828471
0.000819884
0.000810739
0.000801012
0.000790681
0.000881026
0.000876944
0.000872539
0.000867791
0.000862685
0.000857201
0.00085132
0.000845023
0.00083829
0.000831101
0.000823435
0.000815271
0.000806589
0.000797368
0.000787585
0.000777221
0.000869946
0.000865679
0.000861092
0.000856169
0.000850892
0.000845245
0.00083921
0.000832768
0.000825901
0.00081859
0.000810816
0.00080256
0.000793802
0.000784522
0.000774703
0.000764324
0.000859154
0.000854716
0.000849964
0.000844881
0.000839451
0.000833658
0.000827485
0.000820916
0.000813932
0.000806517
0.000798652
0.000790321
0.000781504
0.000772185
0.000762345
0.000751968
0.000848647
0.000844053
0.00083915
0.000833921
0.000828353
0.00082243
0.000816136
0.000809455
0.000802371
0.000794868
0.000786929
0.000778538
0.000769679
0.000760336
0.000750492
0.000740132
0.000838421
0.000833685
0.000828644
0.000823285
0.000817593
0.000811554
0.000805153
0.000798376
0.000791206
0.00078363
0.000775633
0.000767198
0.000758312
0.000748958
0.000739124
0.000728795
0.000828473
0.000823607
0.000818442
0.000812965
0.000807163
0.000801022
0.000794528
0.000787668
0.000780427
0.000772793
0.00076475
0.000756285
0.000747384
0.000738034
0.000728222
0.000717935
0.000924374
0.000924521
0.000924987
0.000925707
0.000926667
0.000927857
0.000929265
0.000930879
0.000932689
0.000922356
0.000922499
0.000922948
0.000923642
0.000924568
0.000925715
0.000927072
0.000928626
0.000930368
0.000932286
0.000934369
0.000936607
0.000938992
0.000941514
0.000944168
0.000946947
0.000949845
0.000952857
0.000955975
0.000959193
0.000962504
0.000965899
0.000969371
0.00097291
0.000976509
0.000980159
0.000983852
0.000987578
0.000991329
0.000995096
0.000998869
0.00100264
0.0010064
0.00101014
0.00101384
0.00101751
0.00102112
0.00102467
0.00102815
0.00103155
0.00103486
0.00103807
0.00104116
0.00104414
0.00104698
0.00104967
0.00105221
0.00105459
0.0010568
0.00105882
0.00106065
0.00106228
0.0010637
0.0010649
0.00106587
0.000920303
0.00092044
0.000920872
0.000921541
0.000922432
0.000923536
0.000924841
0.000926335
0.000928009
0.000929851
0.00093185
0.000933996
0.000936281
0.000938695
0.000941233
0.000943889
0.000946656
0.000949529
0.0009525
0.000955563
0.000958711
0.000961934
0.000965225
0.000968576
0.000971977
0.00097542
0.000978897
0.000982398
0.000985914
0.000989437
0.000992956
0.000996464
0.00099995
0.0010034
0.00100682
0.00101018
0.00101349
0.00101672
0.00101987
0.00102293
0.00102589
0.00102874
0.00103147
0.00103407
0.00103653
0.00103884
0.00104099
0.00104296
0.00104476
0.00104637
0.00104778
0.00104898
0.00104997
0.00105074
0.00105127
0.000918215
0.000918347
0.000918763
0.000919405
0.000920261
0.000921321
0.000922574
0.000924008
0.000925613
0.000927378
0.000929293
0.000931347
0.000933531
0.000935838
0.00093826
0.000940792
0.000943428
0.000946161
0.000948986
0.000951894
0.000954878
0.00095793
0.000961041
0.000964203
0.000967407
0.000970645
0.000973906
0.000977183
0.000980467
0.000983748
0.000987016
0.000990264
0.000993481
0.000996657
0.000999784
0.00100285
0.00100585
0.00100877
0.0010116
0.00101433
0.00101695
0.00101945
0.00102183
0.00102406
0.00102615
0.00102808
0.00102985
0.00103143
0.00103284
0.00103405
0.00103505
0.00103585
0.00103643
0.00103678
0.0010369
0.000916094
0.000916221
0.000916619
0.000917235
0.000918056
0.000919072
0.000920273
0.000921646
0.000923182
0.000924871
0.0009267
0.000928661
0.000930745
0.000932943
0.00093525
0.000937658
0.000940162
0.000942757
0.000945434
0.000948188
0.000951009
0.00095389
0.000956822
0.000959796
0.000962804
0.000965837
0.000968886
0.000971941
0.000974993
0.000978035
0.000981055
0.000984046
0.000986997
0.000989899
0.000992743
0.000995518
0.000998216
0.00100083
0.00100334
0.00100575
0.00100804
0.0010102
0.00101223
0.00101411
0.00101584
0.00101741
0.00101881
0.00102002
0.00102104
0.00102187
0.00102249
0.0010229
0.00102308
0.00102304
0.00102277
0.000913941
0.000914062
0.000914444
0.000915034
0.000915819
0.000916791
0.000917939
0.000919251
0.000920718
0.000922329
0.000924074
0.000925942
0.000927925
0.000930015
0.000932205
0.000934489
0.000936862
0.000939318
0.000941848
0.000944447
0.000947107
0.000949817
0.000952571
0.000955359
0.000958172
0.000961002
0.000963839
0.000966674
0.000969498
0.000972303
0.000975078
0.000977815
0.000980505
0.000983137
0.000985703
0.000988192
0.000990597
0.000992906
0.00099511
0.000997201
0.000999169
0.001001
0.0010027
0.00100424
0.00100562
0.00100684
0.00100787
0.00100873
0.00100939
0.00100984
0.0010101
0.00101013
0.00100994
0.00100953
0.00100888
0.000911758
0.000911874
0.000912238
0.000912802
0.000913552
0.00091448
0.000915574
0.000916825
0.000918222
0.000919756
0.000921415
0.00092319
0.000925072
0.000927053
0.000929127
0.000931288
0.00093353
0.000935846
0.000938231
0.000940676
0.000943174
0.000945715
0.000948292
0.000950895
0.000953515
0.000956143
0.00095877
0.000961388
0.000963987
0.000966558
0.000969092
0.000971579
0.000974011
0.000976378
0.000978671
0.00098088
0.000982997
0.000985012
0.000986915
0.000988698
0.000990351
0.000991867
0.000993234
0.000994446
0.000995493
0.000996368
0.000997062
0.000997568
0.000997877
0.000997984
0.00099788
0.000997561
0.000997019
0.000996249
0.000995246
0.000909546
0.000909656
0.000910004
0.00091054
0.000911255
0.000912138
0.00091318
0.000914369
0.000915697
0.000917153
0.000918727
0.000920409
0.00092219
0.000924062
0.00092602
0.000928057
0.000930168
0.000932346
0.000934585
0.000936877
0.000939214
0.000941588
0.000943988
0.000946407
0.000948836
0.000951265
0.000953685
0.000956088
0.000958464
0.000960805
0.0009631
0.000965342
0.000967521
0.000969628
0.000971653
0.000973588
0.000975424
0.000977151
0.000978761
0.000980245
0.000981593
0.000982798
0.00098385
0.000984742
0.000985466
0.000986013
0.000986377
0.00098655
0.000986524
0.000986294
0.000985853
0.000985196
0.000984316
0.00098321
0.000981872
0.000907306
0.00090741
0.000907741
0.000908251
0.00090893
0.000909769
0.000910757
0.000911885
0.000913144
0.000914522
0.00091601
0.000917599
0.000919279
0.000921043
0.000922884
0.000924798
0.000926779
0.00092882
0.000930914
0.000933054
0.000935231
0.000937438
0.000939664
0.000941901
0.00094414
0.000946372
0.000948587
0.000950778
0.000952935
0.000955048
0.00095711
0.00095911
0.000961041
0.000962893
0.000964656
0.000966324
0.000967885
0.000969332
0.000970656
0.000971849
0.000972901
0.000973805
0.000974553
0.000975136
0.000975548
0.000975781
0.000975827
0.00097568
0.000975334
0.000974783
0.000974021
0.000973043
0.000971843
0.000970419
0.000968765
0.000905039
0.000905138
0.000905452
0.000905936
0.000906579
0.000907373
0.000908308
0.000909375
0.000910564
0.000911865
0.000913268
0.000914763
0.000916342
0.000917997
0.000919723
0.000921515
0.000923365
0.000925269
0.000927219
0.000929208
0.000931228
0.000933268
0.000935322
0.000937379
0.000939431
0.000941468
0.000943481
0.000945463
0.000947403
0.000949294
0.000951125
0.000952889
0.000954576
0.000956178
0.000957686
0.000959092
0.000960386
0.00096156
0.000962606
0.000963516
0.000964282
0.000964895
0.000965349
0.000965635
0.000965746
0.000965676
0.000965419
0.000964967
0.000964315
0.000963458
0.00096239
0.000961107
0.000959605
0.00095788
0.000955928
0.000902748
0.000902841
0.000903138
0.000903595
0.000904202
0.000904952
0.000905834
0.00090684
0.000907959
0.000909183
0.0009105
0.000911902
0.000913381
0.000914928
0.000916539
0.000918208
0.000919929
0.000921697
0.000923505
0.000925344
0.000927207
0.000929084
0.000930966
0.000932845
0.000934712
0.000936557
0.000938371
0.000940147
0.000941874
0.000943545
0.000945151
0.000946683
0.000948132
0.00094949
0.000950748
0.000951898
0.000952932
0.000953842
0.000954618
0.000955254
0.000955742
0.000956075
0.000956244
0.000956244
0.000956067
0.000955707
0.000955158
0.000954415
0.000953471
0.000952323
0.000950965
0.000949394
0.000947606
0.000945597
0.000943366
0.000900433
0.000900521
0.0009008
0.000901231
0.000901802
0.000902508
0.000903337
0.000904281
0.000905332
0.000906478
0.00090771
0.000909019
0.000910397
0.000911837
0.000913333
0.00091488
0.000916474
0.000918107
0.000919773
0.000921464
0.000923171
0.000924886
0.0009266
0.000928303
0.000929987
0.000931642
0.000933261
0.000934834
0.000936352
0.000937808
0.000939192
0.000940497
0.000941713
0.000942833
0.000943847
0.000944749
0.00094553
0.000946182
0.000946697
0.000947068
0.000947288
0.000947349
0.000947245
0.00094697
0.000946516
0.000945878
0.000945051
0.00094403
0.000942809
0.000941384
0.000939751
0.000937907
0.000935849
0.000933574
0.00093108
0.000898095
0.000898178
0.00089844
0.000898844
0.00089938
0.000900042
0.000900818
0.000901701
0.000902682
0.000903752
0.000904899
0.000906116
0.000907393
0.000908726
0.000910108
0.000911534
0.000913
0.0009145
0.000916026
0.00091757
0.000919124
0.000920679
0.000922225
0.000923755
0.000925259
0.000926728
0.000928154
0.000929528
0.000930841
0.000932086
0.000933253
0.000934336
0.000935324
0.000936211
0.000936989
0.000937649
0.000938184
0.000938586
0.000938848
0.000938963
0.000938924
0.000938724
0.000938357
0.000937817
0.000937098
0.000936195
0.000935103
0.000933816
0.000932331
0.000930644
0.000928751
0.00092665
0.000924338
0.000921813
0.000919073
0.000895737
0.000895814
0.000896059
0.000896437
0.000896938
0.000897555
0.000898279
0.000899101
0.000900014
0.000901006
0.000902069
0.000903193
0.000904371
0.000905597
0.000906865
0.000908172
0.000909512
0.000910879
0.000912266
0.000913665
0.000915067
0.000916464
0.000917847
0.000919206
0.000920532
0.000921818
0.000923054
0.000924233
0.000925345
0.000926383
0.000927338
0.000928203
0.00092897
0.00092963
0.000930177
0.000930602
0.000930898
0.000931059
0.000931076
0.000930944
0.000930655
0.000930204
0.000929585
0.000928791
0.000927818
0.000926662
0.000925316
0.000923777
0.000922042
0.000920106
0.000917968
0.000915625
0.000913074
0.000910314
0.000907345
0.000893359
0.000893431
0.000893659
0.00089401
0.000894476
0.000895049
0.000895721
0.000896483
0.000897327
0.000898243
0.000899222
0.000900254
0.000901333
0.000902452
0.000903608
0.000904796
0.000906011
0.000907247
0.000908497
0.000909752
0.000911005
0.000912246
0.000913467
0.000914657
0.000915809
0.000916915
0.000917965
0.000918952
0.000919867
0.000920703
0.000921451
0.000922104
0.000922654
0.000923094
0.000923416
0.000923613
0.000923679
0.000923605
0.000923386
0.000923015
0.000922486
0.000921793
0.000920932
0.000919896
0.00091868
0.000917281
0.000915695
0.000913917
0.000911944
0.000909774
0.000907404
0.000904832
0.000902058
0.000899079
0.000895895
0.000890963
0.000891029
0.00089124
0.000891565
0.000891996
0.000892525
0.000893145
0.000893847
0.000894623
0.000895464
0.000896359
0.000897299
0.000898279
0.000899293
0.000900337
0.000901407
0.000902498
0.000903605
0.00090472
0.000905834
0.00090694
0.000908027
0.000909088
0.000910113
0.000911094
0.000912022
0.00091289
0.000913689
0.000914411
0.000915049
0.000915595
0.000916042
0.000916381
0.000916607
0.000916711
0.000916687
0.000916528
0.000916228
0.000915781
0.00091518
0.00091442
0.000913496
0.000912402
0.000911134
0.000909687
0.000908057
0.000906242
0.000904237
0.00090204
0.000899648
0.00089706
0.000894274
0.00089129
0.000888106
0.000884723
0.00088855
0.00088861
0.000888805
0.000889104
0.0008895
0.000889986
0.000890554
0.000891197
0.000891905
0.00089267
0.000893482
0.000894332
0.000895213
0.000896122
0.000897055
0.000898009
0.000898978
0.000899957
0.000900938
0.000901913
0.000902873
0.000903809
0.000904713
0.000905576
0.000906388
0.000907143
0.000907832
0.000908447
0.000908981
0.000909426
0.000909774
0.00091002
0.000910154
0.000910171
0.000910064
0.000909826
0.000909451
0.000908933
0.000908266
0.000907444
0.000906462
0.000905315
0.000903999
0.000902509
0.000900841
0.000898992
0.000896959
0.000894739
0.00089233
0.00088973
0.000886937
0.000883951
0.00088077
0.000877396
0.000873827
0.000886121
0.000886176
0.000886354
0.000886628
0.000886989
0.000887431
0.000887948
0.000888532
0.000889174
0.000889864
0.000890593
0.000891352
0.000892136
0.000892941
0.000893764
0.000894602
0.000895451
0.000896303
0.000897153
0.000897991
0.000898808
0.000899596
0.000900345
0.000901048
0.000901696
0.00090228
0.000902794
0.000903229
0.000903579
0.000903836
0.000903992
0.000904041
0.000903977
0.000903792
0.00090348
0.000903035
0.000902451
0.000901722
0.000900843
0.000899808
0.000898613
0.000897254
0.000895725
0.000894023
0.000892146
0.000890089
0.00088785
0.000885426
0.000882817
0.00088002
0.000877035
0.000873861
0.000870498
0.000866946
0.000863206
0.000883678
0.000883728
0.000883889
0.000884137
0.000884464
0.000884864
0.00088533
0.000885855
0.00088643
0.000887046
0.000887693
0.000888362
0.000889049
0.000889751
0.000890465
0.00089119
0.000891919
0.000892648
0.000893368
0.00089407
0.000894747
0.000895389
0.000895987
0.000896533
0.000897019
0.000897437
0.000897779
0.000898039
0.000898209
0.000898282
0.000898251
0.00089811
0.000897852
0.000897471
0.000896961
0.000896316
0.00089553
0.000894598
0.000893515
0.000892277
0.000890878
0.000889314
0.000887583
0.00088568
0.000883602
0.000881348
0.000878913
0.000876298
0.0008735
0.000870519
0.000867354
0.000864004
0.000860471
0.000856754
0.000852856
0.000881222
0.000881267
0.000881412
0.000881634
0.000881927
0.000882284
0.0008827
0.000883167
0.000883677
0.000884219
0.000884784
0.000885364
0.000885955
0.000886555
0.000887161
0.000887773
0.000888385
0.000888992
0.000889584
0.000890154
0.000890693
0.000891191
0.000891641
0.000892033
0.00089236
0.000892615
0.00089279
0.000892879
0.000892873
0.000892768
0.000892555
0.000892229
0.000891783
0.000891213
0.000890511
0.000889672
0.000888692
0.000887565
0.000886286
0.000884852
0.000883257
0.000881499
0.000879574
0.00087748
0.000875212
0.00087277
0.000870152
0.000867356
0.000864381
0.000861226
0.000857893
0.00085438
0.000850688
0.000846819
0.000842775
0.000878755
0.000878795
0.000878923
0.00087912
0.000879379
0.000879694
0.00088006
0.000880469
0.000880914
0.000881384
0.000881868
0.000882359
0.000882855
0.000883354
0.000883854
0.000884355
0.000884852
0.000885337
0.000885805
0.000886244
0.000886647
0.000887005
0.000887309
0.00088755
0.000887723
0.000887818
0.00088783
0.000887751
0.000887575
0.000887295
0.000886906
0.0008864
0.000885773
0.000885019
0.000884131
0.000883107
0.000881939
0.000880624
0.000879157
0.000877535
0.000875754
0.000873811
0.000871701
0.000869424
0.000866977
0.000864358
0.000861566
0.000858599
0.000855458
0.000852141
0.00084865
0.000844985
0.000841147
0.000837138
0.000832959
0.000876328
0.000876363
0.000876475
0.000876648
0.000876873
0.000877148
0.000877465
0.000877819
0.000878201
0.000878599
0.000879005
0.000879411
0.000879815
0.000880215
0.000880613
0.000881007
0.000881392
0.000881762
0.000882109
0.000882423
0.000882696
0.000882918
0.000883082
0.00088318
0.000883204
0.000883147
0.000883002
0.000882764
0.000882425
0.000881979
0.000881421
0.000880745
0.000879946
0.000879018
0.000877955
0.000876755
0.00087541
0.000873919
0.000872276
0.000870478
0.000868522
0.000866405
0.000864124
0.000861677
0.000859063
0.00085628
0.000853327
0.000850204
0.00084691
0.000843445
0.000839811
0.000836007
0.000832036
0.0008279
0.0008236
0.00087392
0.00087395
0.000874047
0.000874195
0.000874389
0.000874623
0.000874893
0.000875193
0.000875512
0.000875842
0.000876171
0.000876493
0.000876806
0.000877111
0.000877409
0.000877699
0.000877976
0.000878233
0.000878462
0.000878654
0.0008788
0.000878892
0.00087892
0.000878878
0.000878759
0.000878554
0.000878259
0.000877867
0.000877371
0.000876766
0.000876047
0.000875208
0.000874243
0.000873149
0.000871919
0.00087055
0.000869038
0.000867379
0.000865568
0.000863604
0.000861483
0.000859202
0.000856759
0.000854154
0.000851383
0.000848447
0.000845344
0.000842074
0.000838639
0.000835037
0.00083127
0.00082734
0.000823247
0.000818995
0.000814586
0.000871457
0.000871482
0.000871563
0.000871687
0.000871848
0.000872042
0.000872264
0.000872508
0.000872766
0.000873025
0.000873277
0.000873515
0.000873737
0.000873946
0.000874143
0.000874328
0.000874496
0.00087464
0.000874752
0.000874822
0.000874842
0.000874802
0.000874696
0.000874514
0.000874251
0.000873901
0.000873455
0.00087291
0.000872259
0.000871497
0.000870618
0.000869617
0.000868489
0.000867231
0.000865837
0.000864304
0.000862627
0.000860803
0.000858829
0.000856702
0.00085442
0.00085198
0.000849381
0.000846622
0.0008437
0.000840616
0.000837369
0.00083396
0.000830389
0.000826657
0.000822765
0.000818714
0.000814507
0.000810147
0.000805635
0.000868938
0.000868957
0.000869023
0.000869122
0.00086925
0.000869404
0.000869578
0.000869767
0.000869961
0.00087015
0.000870324
0.000870476
0.000870608
0.00087072
0.000870816
0.000870896
0.000870955
0.000870986
0.00087098
0.000870928
0.000870821
0.000870651
0.000870409
0.000870089
0.000869684
0.000869187
0.000868593
0.000867897
0.000867092
0.000866173
0.000865136
0.000863976
0.000862688
0.000861269
0.000859713
0.000858018
0.00085618
0.000854196
0.000852063
0.000849778
0.000847339
0.000844746
0.000841995
0.000839087
0.00083602
0.000832794
0.00082941
0.000825867
0.000822168
0.000818312
0.000814301
0.000810138
0.000805824
0.000801363
0.000796756
0.000866362
0.000866377
0.000866426
0.000866501
0.000866596
0.000866709
0.000866834
0.000866967
0.000867098
0.000867216
0.000867311
0.000867379
0.000867418
0.000867434
0.000867429
0.000867403
0.000867353
0.00086727
0.000867147
0.000866973
0.00086674
0.00086644
0.000866064
0.000865605
0.000865059
0.000864417
0.000863676
0.000862829
0.000861871
0.000860799
0.000859606
0.000858289
0.000856844
0.000855266
0.000853552
0.000851699
0.000849703
0.000847563
0.000845274
0.000842836
0.000840246
0.000837503
0.000834606
0.000831555
0.000828349
0.000824988
0.000821472
0.000817803
0.000813981
0.000810008
0.000805886
0.000801617
0.000797203
0.000792648
0.000787955
0.000863731
0.000863741
0.000863774
0.000863824
0.000863886
0.000863957
0.000864034
0.00086411
0.000864177
0.000864224
0.000864241
0.000864222
0.00086417
0.000864088
0.000863982
0.000863851
0.000863692
0.000863496
0.000863255
0.00086296
0.000862601
0.00086217
0.00086166
0.000861065
0.000860377
0.000859592
0.000858705
0.000857709
0.000856601
0.000855377
0.000854031
0.00085256
0.000850959
0.000849227
0.000847358
0.00084535
0.000843201
0.000840908
0.000838468
0.000835881
0.000833145
0.000830259
0.000827221
0.000824033
0.000820693
0.000817202
0.000813561
0.000809772
0.000805835
0.000801752
0.000797525
0.000793158
0.000788652
0.000784011
0.000779238
0.000861045
0.00086105
0.000861067
0.000861091
0.000861119
0.000861149
0.000861176
0.000861196
0.000861199
0.000861174
0.000861111
0.000861007
0.000860863
0.000860685
0.000860478
0.000860242
0.000859973
0.000859664
0.000859305
0.000858889
0.000858404
0.000857844
0.000857201
0.000856469
0.000855643
0.000854716
0.000853683
0.000852541
0.000851285
0.000849911
0.000848414
0.000846791
0.000845039
0.000843155
0.000841134
0.000838976
0.000836678
0.000834236
0.000831651
0.00082892
0.000826043
0.000823018
0.000819845
0.000816525
0.000813058
0.000809444
0.000805685
0.000801781
0.000797736
0.00079355
0.000789226
0.000784767
0.000780176
0.000775457
0.000770611
0.000858303
0.000858303
0.000858303
0.000858302
0.000858297
0.000858285
0.000858263
0.000858225
0.000858163
0.000858067
0.000857925
0.000857735
0.0008575
0.000857225
0.000856917
0.000856576
0.000856198
0.000855776
0.0008553
0.000854762
0.000854153
0.000853464
0.00085269
0.000851822
0.000850857
0.00084979
0.000848615
0.000847328
0.000845926
0.000844404
0.000842759
0.000840988
0.000839088
0.000837055
0.000834887
0.000832582
0.000830138
0.000827554
0.000824827
0.000821957
0.000818944
0.000815786
0.000812484
0.000809039
0.00080545
0.00080172
0.000797848
0.000793838
0.000789691
0.000785409
0.000780995
0.000776452
0.000771783
0.000766991
0.000762081
0.000855506
0.000855501
0.000855485
0.000855459
0.000855419
0.000855365
0.000855293
0.000855198
0.000855072
0.000854903
0.000854683
0.000854407
0.000854081
0.000853711
0.000853302
0.000852855
0.000852369
0.000851834
0.000851242
0.000850583
0.00084985
0.000849033
0.000848127
0.000847126
0.000846024
0.000844818
0.000843502
0.000842073
0.000840527
0.000838861
0.000837071
0.000835154
0.000833109
0.000830931
0.00082862
0.000826173
0.000823588
0.000820865
0.000818002
0.000814999
0.000811855
0.00080857
0.000805144
0.00080158
0.000797876
0.000794035
0.000790058
0.000785947
0.000781705
0.000777334
0.000772837
0.000768217
0.000763477
0.000758621
0.000753654
0.000852655
0.000852644
0.000852612
0.00085256
0.000852487
0.000852391
0.000852269
0.000852116
0.000851925
0.000851684
0.000851385
0.000851025
0.000850608
0.000850142
0.000849633
0.000849083
0.000848488
0.00084784
0.000847132
0.000846353
0.000845496
0.000844553
0.000843517
0.000842383
0.000841147
0.000839803
0.000838349
0.00083678
0.000835093
0.000833285
0.000831353
0.000829295
0.000827107
0.000824789
0.000822339
0.000819754
0.000817033
0.000814176
0.000811182
0.00080805
0.000804781
0.000801374
0.000797832
0.000794153
0.000790341
0.000786396
0.00078232
0.000778116
0.000773786
0.000769333
0.000764759
0.000760069
0.000755266
0.000750353
0.000745334
0.000849751
0.000849734
0.000849686
0.000849608
0.000849501
0.000849363
0.00084919
0.00084898
0.000848723
0.000848411
0.000848033
0.000847589
0.000847083
0.000846523
0.000845914
0.00084526
0.000844557
0.000843797
0.000842973
0.000842075
0.000841095
0.000840026
0.000838862
0.000837597
0.000836228
0.000834749
0.000833158
0.000831452
0.000829627
0.00082768
0.00082561
0.000823413
0.000821088
0.000818634
0.000816048
0.000813329
0.000810477
0.000807492
0.000804371
0.000801117
0.000797728
0.000794206
0.000790552
0.000786767
0.000782852
0.000778809
0.000774641
0.00077035
0.000765939
0.000761411
0.000756768
0.000752015
0.000747154
0.000742191
0.000737129
0.000846794
0.000846772
0.000846707
0.000846604
0.000846462
0.000846281
0.000846059
0.000845791
0.000845469
0.000845085
0.00084463
0.000844102
0.000843508
0.000842853
0.000842146
0.000841389
0.000840578
0.000839708
0.000838768
0.000837752
0.00083665
0.000835457
0.000834166
0.000832772
0.000831271
0.00082966
0.000827935
0.000826094
0.000824133
0.000822052
0.000819846
0.000817515
0.000815056
0.000812469
0.000809753
0.000806906
0.000803927
0.000800818
0.000797577
0.000794205
0.000790703
0.000787071
0.000783312
0.000779425
0.000775415
0.000771281
0.000767027
0.000762656
0.00075817
0.000753573
0.000748868
0.000744058
0.000739148
0.000734141
0.000729042
0.000843785
0.000843758
0.000843677
0.000843548
0.000843372
0.000843149
0.000842876
0.00084255
0.000842163
0.000841708
0.000841176
0.000840566
0.000839883
0.000839137
0.000838332
0.000837472
0.000836555
0.000835573
0.00083452
0.000833386
0.000832164
0.000830848
0.000829431
0.00082791
0.00082628
0.000824539
0.000822683
0.00082071
0.000818617
0.000816403
0.000814066
0.000811604
0.000809017
0.000806302
0.000803459
0.000800488
0.000797388
0.00079416
0.000790804
0.00078732
0.00078371
0.000779975
0.000776116
0.000772136
0.000768035
0.000763817
0.000759484
0.000755039
0.000750486
0.000745827
0.000741066
0.000736207
0.000731253
0.000726209
0.00072108
0.000840726
0.000840693
0.000840596
0.000840441
0.000840231
0.000839966
0.000839643
0.000839259
0.000838808
0.000838281
0.000837673
0.000836982
0.000836213
0.000835375
0.000834473
0.000833512
0.000832489
0.000831398
0.000830231
0.000828981
0.00082764
0.000826202
0.000824662
0.000823016
0.000821259
0.00081939
0.000817406
0.000815304
0.000813083
0.000810741
0.000808276
0.000805687
0.000802974
0.000800136
0.000797172
0.000794082
0.000790866
0.000787525
0.000784059
0.000780469
0.000776757
0.000772924
0.000768972
0.000764903
0.000760719
0.000756423
0.000752018
0.000747506
0.000742891
0.000738177
0.000733367
0.000728465
0.000723474
0.0007184
0.000713247
0.000837618
0.00083758
0.000837466
0.000837286
0.000837042
0.000836734
0.000836361
0.00083592
0.000835405
0.000834808
0.000834124
0.000833353
0.000832499
0.00083157
0.000830573
0.000829512
0.000828384
0.000827184
0.000825905
0.00082454
0.000823081
0.000821524
0.000819862
0.000818093
0.000816212
0.000814218
0.000812109
0.000809881
0.000807535
0.000805068
0.000802479
0.000799768
0.000796934
0.000793977
0.000790896
0.000787693
0.000784366
0.000780917
0.000777347
0.000773657
0.000769849
0.000765925
0.000761885
0.000757734
0.000753473
0.000749106
0.000744634
0.000740062
0.000735392
0.000730629
0.000725776
0.000720837
0.000715817
0.000710719
0.000705547
0.000834463
0.000834419
0.000834289
0.000834083
0.000833806
0.000833456
0.000833033
0.000832535
0.000831956
0.00083129
0.000830532
0.000829681
0.000828743
0.000827725
0.000826634
0.000825474
0.000824242
0.000822935
0.000821545
0.000820067
0.000818492
0.000816817
0.000815036
0.000813146
0.000811144
0.000809028
0.000806796
0.000804446
0.000801978
0.000799391
0.000796682
0.000793853
0.000790903
0.000787832
0.000784639
0.000781327
0.000777894
0.000774343
0.000770675
0.00076689
0.000762992
0.000758982
0.000754862
0.000750635
0.000746303
0.00074187
0.000737338
0.000732712
0.000727994
0.000723189
0.000718299
0.00071333
0.000708285
0.000703169
0.000697986
0.000831262
0.000831213
0.000831067
0.000830836
0.000830525
0.000830133
0.000829661
0.000829107
0.000828465
0.00082773
0.000826898
0.000825969
0.000824948
0.000823842
0.000822659
0.0008214
0.000820067
0.000818654
0.000817155
0.000815564
0.000813876
0.000812085
0.000810187
0.000808179
0.000806058
0.000803823
0.000801472
0.000799004
0.000796418
0.000793714
0.00079089
0.000787947
0.000784885
0.000781705
0.000778406
0.000774989
0.000771457
0.000767809
0.000764048
0.000760175
0.000756192
0.000752102
0.000747907
0.00074361
0.000739214
0.000734722
0.000730137
0.000725462
0.000720702
0.000715861
0.000710941
0.000705948
0.000700884
0.000695756
0.000690566
0.000828018
0.000827963
0.000827802
0.000827546
0.000827201
0.000826768
0.000826247
0.000825637
0.000824933
0.00082413
0.000823226
0.00082222
0.000821117
0.000819925
0.00081865
0.000817296
0.000815861
0.000814344
0.000812737
0.000811037
0.000809237
0.000807332
0.000805319
0.000803196
0.00080096
0.000798609
0.000796143
0.00079356
0.00079086
0.000788043
0.000785108
0.000782056
0.000778887
0.000775602
0.000772202
0.000768687
0.000765059
0.00076132
0.000757472
0.000753516
0.000749455
0.000745292
0.000741028
0.000736667
0.000732213
0.000727667
0.000723035
0.000718318
0.000713522
0.00070865
0.000703706
0.000698694
0.000693618
0.000688483
0.000683293
0.000824733
0.000824673
0.000824496
0.000824215
0.000823837
0.000823363
0.000822794
0.000822129
0.000821363
0.000820494
0.000819518
0.000818437
0.000817254
0.000815976
0.000814611
0.000813162
0.000811629
0.000810009
0.000808297
0.000806489
0.000804579
0.000802563
0.000800439
0.000798203
0.000795854
0.000793391
0.000790813
0.000788119
0.000785309
0.000782383
0.000779342
0.000776185
0.000772914
0.00076953
0.000766033
0.000762425
0.000758708
0.000754884
0.000750954
0.000746921