/*--------------------------------*- C++ -*----------------------------------*\
| =========                 |                                                 |
| \\      /  F ield         | OpenFOAM: The Open Source CFD Toolbox           |
|  \\    /   O peration     | Version:  2412                                  |
|   \\  /    A nd           | Website:  www.openfoam.com                      |
|    \\/     M anipulation  |                                                 |
\*---------------------------------------------------------------------------*/
FoamFile
{
    version     2.0;
    format      ascii;
    arch        "LSB;label=32;scalar=64";
    class       volScalarField;
    location    "8.5";
    object      p;
}
// * * * * * * * * * * * * * * * * * * * * * * * * * * * * * * * * * * * * * //

dimensions      [0 2 -2 0 0 0 0];

internalField   nonuniform List<scalar> 
5285
(
-2.14243e-05
-2.03548e-05
-1.93234e-05
-1.83277e-05
-1.73668e-05
-1.64403e-05
-1.55476e-05
-1.46879e-05
-1.38607e-05
-1.30653e-05
-1.2301e-05
-1.15674e-05
-1.08637e-05
-1.01894e-05
-9.54393e-06
-8.92668e-06
-8.33693e-06
-7.77418e-06
-7.23774e-06
-6.72696e-06
-6.24123e-06
-5.77988e-06
-5.34224e-06
-4.92757e-06
-4.53534e-06
-4.16476e-06
-3.81508e-06
-3.48572e-06
-3.17587e-06
-2.88481e-06
-2.61189e-06
-2.1052e-05
-1.99966e-05
-1.8979e-05
-1.79972e-05
-1.705e-05
-1.61372e-05
-1.52579e-05
-1.44115e-05
-1.35973e-05
-1.28146e-05
-1.20629e-05
-1.13415e-05
-1.06497e-05
-9.987e-06
-9.35274e-06
-8.74634e-06
-8.16713e-06
-7.61452e-06
-7.08785e-06
-6.58647e-06
-6.10975e-06
-5.65702e-06
-5.22763e-06
-4.82085e-06
-4.43609e-06
-4.07263e-06
-3.72971e-06
-3.40674e-06
-3.10293e-06
-2.81758e-06
-2.55002e-06
-2.29941e-06
-2.0652e-06
-1.84651e-06
-1.6427e-06
-1.4531e-06
-1.27694e-06
-1.11356e-06
-9.62336e-07
-8.22568e-07
-6.93632e-07
-5.74737e-07
-4.6546e-07
-3.6505e-07
-2.72822e-07
-1.88407e-07
-1.10812e-07
-4.02171e-08
2.5972e-08
8.3193e-08
1.44688e-07
1.80853e-07
2.61194e-07
2.33977e-07
4.23776e-07
1.69818e-07
7.63329e-07
-1.94612e-07
1.53219e-06
-1.12265e-06
2.92978e-06
-2.55463e-06
4.43944e-06
-3.29378e-06
4.20276e-06
-1.12593e-06
4.72531e-07
4.1975e-06
-4.56747e-06
8.01086e-06
-4.97849e-06
-2.06691e-05
-1.96283e-05
-1.86254e-05
-1.76579e-05
-1.6725e-05
-1.58263e-05
-1.49609e-05
-1.41282e-05
-1.33275e-05
-1.2558e-05
-1.18191e-05
-1.11103e-05
-1.04307e-05
-9.77992e-06
-9.15719e-06
-8.56195e-06
-7.99352e-06
-7.45131e-06
-6.93465e-06
-6.44289e-06
-5.9754e-06
-5.5315e-06
-5.11054e-06
-4.71182e-06
-4.33472e-06
-3.97853e-06
-3.64253e-06
-3.32609e-06
-3.02845e-06
-2.74893e-06
-2.48684e-06
-2.24141e-06
-2.01201e-06
-1.79787e-06
-1.59829e-06
-1.41263e-06
-1.24016e-06
-1.0802e-06
-9.32138e-07
-7.953e-07
-6.69063e-07
-5.52684e-07
-4.45701e-07
-3.474e-07
-2.57129e-07
-1.74484e-07
-9.85141e-08
-2.94113e-08
3.53972e-08
9.14104e-08
1.51639e-07
1.86979e-07
2.65883e-07
2.38722e-07
4.25804e-07
1.74662e-07
7.61038e-07
-1.86778e-07
1.52246e-06
-1.1083e-06
2.9107e-06
-2.53469e-06
4.41769e-06
-3.28058e-06
4.19664e-06
-1.13764e-06
4.97934e-07
4.15565e-06
-4.50606e-06
7.94112e-06
-4.85845e-06
-2.02756e-05
-1.92502e-05
-1.82624e-05
-1.73099e-05
-1.63919e-05
-1.55078e-05
-1.46568e-05
-1.38382e-05
-1.30513e-05
-1.22954e-05
-1.15698e-05
-1.08738e-05
-1.02069e-05
-9.56826e-06
-8.95737e-06
-8.37356e-06
-7.81618e-06
-7.28462e-06
-6.7782e-06
-6.29629e-06
-5.83823e-06
-5.40337e-06
-4.99103e-06
-4.60054e-06
-4.23127e-06
-3.88251e-06
-3.55357e-06
-3.24379e-06
-2.95246e-06
-2.67888e-06
-2.42239e-06
-2.18224e-06
-1.95776e-06
-1.74824e-06
-1.55299e-06
-1.37135e-06
-1.20263e-06
-1.04616e-06
-9.01333e-07
-7.67486e-07
-6.44007e-07
-5.3019e-07
-4.25549e-07
-3.29401e-07
-2.41121e-07
-1.60283e-07
-8.59751e-08
-1.83905e-08
4.50066e-08
9.97866e-08
1.58729e-07
1.93225e-07
2.70658e-07
2.43569e-07
4.27846e-07
1.79636e-07
7.58626e-07
-1.78686e-07
1.51234e-06
-1.09343e-06
2.8909e-06
-2.51404e-06
4.39515e-06
-3.26698e-06
4.19024e-06
-1.14962e-06
5.23482e-07
4.11349e-06
-4.4448e-06
7.87158e-06
-4.73715e-06
-1.98717e-05
-1.88623e-05
-1.78902e-05
-1.69533e-05
-1.60506e-05
-1.51816e-05
-1.43455e-05
-1.35415e-05
-1.27689e-05
-1.2027e-05
-1.1315e-05
-1.06323e-05
-9.9782e-06
-9.35211e-06
-8.75333e-06
-8.18123e-06
-7.63517e-06
-7.1145e-06
-6.61856e-06
-6.14671e-06
-5.6983e-06
-5.27266e-06
-4.86913e-06
-4.48705e-06
-4.12576e-06
-3.78459e-06
-3.46285e-06
-3.15988e-06
-2.87499e-06
-2.60747e-06
-2.35669e-06
-2.12191e-06
-1.90246e-06
-1.69766e-06
-1.50681e-06
-1.32928e-06
-1.16438e-06
-1.01147e-06
-8.69935e-07
-7.39139e-07
-6.18474e-07
-5.07264e-07
-4.05011e-07
-3.1106e-07
-2.24806e-07
-1.45812e-07
-7.32005e-08
-7.1598e-09
5.47959e-08
1.08318e-07
1.65953e-07
1.99588e-07
2.75516e-07
2.48518e-07
4.29897e-07
1.84738e-07
7.56087e-07
-1.7033e-07
1.50183e-06
-1.07804e-06
2.87037e-06
-2.49268e-06
4.37184e-06
-3.25299e-06
4.18358e-06
-1.16188e-06
5.49125e-07
4.07114e-06
-4.38394e-06
7.80253e-06
-4.61506e-06
-1.94574e-05
-1.84646e-05
-1.75088e-05
-1.65881e-05
-1.57013e-05
-1.4848e-05
-1.40272e-05
-1.32383e-05
-1.24803e-05
-1.17527e-05
-1.10547e-05
-1.03857e-05
-9.7448e-06
-9.13152e-06
-8.54515e-06
-7.98505e-06
-7.45055e-06
-6.94102e-06
-6.45579e-06
-5.99422e-06
-5.55565e-06
-5.13943e-06
-4.7449e-06
-4.37139e-06
-4.01826e-06
-3.68483e-06
-3.37043e-06
-3.07439e-06
-2.79606e-06
-2.53473e-06
-2.28977e-06
-2.06046e-06
-1.84614e-06
-1.64614e-06
-1.45978e-06
-1.28643e-06
-1.12543e-06
-9.76135e-07
-8.37959e-07
-7.1027e-07
-5.92472e-07
-4.83917e-07
-3.84097e-07
-2.92384e-07
-2.08191e-07
-1.31076e-07
-6.0194e-08
4.27506e-09
6.47614e-08
1.17004e-07
1.73307e-07
2.06067e-07
2.80453e-07
2.53564e-07
4.31957e-07
1.89972e-07
7.53415e-07
-1.61704e-07
1.49091e-06
-1.06211e-06
2.84911e-06
-2.47062e-06
4.34776e-06
-3.23863e-06
4.17668e-06
-1.17445e-06
5.74818e-07
4.02869e-06
-4.32377e-06
7.7343e-06
-4.49274e-06
-1.90327e-05
-1.80572e-05
-1.71185e-05
-1.62144e-05
-1.53442e-05
-1.45069e-05
-1.3702e-05
-1.29285e-05
-1.21857e-05
-1.14728e-05
-1.07892e-05
-1.0134e-05
-9.50674e-06
-8.90658e-06
-8.33291e-06
-7.78506e-06
-7.26239e-06
-6.76424e-06
-6.28995e-06
-5.83887e-06
-5.41035e-06
-5.00374e-06
-4.61838e-06
-4.25361e-06
-3.90879e-06
-3.58325e-06
-3.27633e-06
-2.98737e-06
-2.71571e-06
-2.46069e-06
-2.22165e-06
-1.99792e-06
-1.78881e-06
-1.5937e-06
-1.41191e-06
-1.24282e-06
-1.08579e-06
-9.40178e-07
-8.05419e-07
-6.80892e-07
-5.66015e-07
-4.60158e-07
-3.62816e-07
-2.73381e-07
-1.91284e-07
-1.16082e-07
-4.6961e-08
1.59089e-08
7.48989e-08
1.2584e-07
1.80787e-07
2.12659e-07
2.85467e-07
2.58709e-07
4.34021e-07
1.95338e-07
7.50603e-07
-1.52802e-07
1.47958e-06
-1.04564e-06
2.82708e-06
-2.44783e-06
4.3229e-06
-3.22393e-06
4.16956e-06
-1.18734e-06
6.00512e-07
3.98626e-06
-4.26457e-06
7.66723e-06
-4.37078e-06
-1.85978e-05
-1.76403e-05
-1.67192e-05
-1.58325e-05
-1.49791e-05
-1.41586e-05
-1.33699e-05
-1.26123e-05
-1.1885e-05
-1.11873e-05
-1.05184e-05
-9.87754e-06
-9.2641e-06
-8.67737e-06
-8.11667e-06
-7.58136e-06
-7.07076e-06
-6.58422e-06
-6.12109e-06
-5.68072e-06
-5.26245e-06
-4.86564e-06
-4.48962e-06
-4.13376e-06
-3.7974e-06
-3.4799e-06
-3.18059e-06
-2.89884e-06
-2.63398e-06
-2.38537e-06
-2.15236e-06
-1.9343e-06
-1.73051e-06
-1.54038e-06
-1.36323e-06
-1.19847e-06
-1.04547e-06
-9.03611e-07
-7.72328e-07
-6.51019e-07
-5.39111e-07
-4.35999e-07
-3.41177e-07
-2.54059e-07
-1.74093e-07
-1.00837e-07
-3.35071e-08
2.77369e-08
8.52043e-08
1.34822e-07
1.8839e-07
2.19361e-07
2.90555e-07
2.63949e-07
4.36087e-07
2.00836e-07
7.47645e-07
-1.43618e-07
1.46781e-06
-1.02861e-06
2.8043e-06
-2.42433e-06
4.29728e-06
-3.20892e-06
4.16225e-06
-1.20059e-06
6.2616e-07
3.94396e-06
-4.20665e-06
7.60167e-06
-4.24988e-06
-1.81529e-05
-1.72139e-05
-1.6311e-05
-1.54422e-05
-1.46064e-05
-1.3803e-05
-1.30311e-05
-1.22899e-05
-1.15785e-05
-1.08963e-05
-1.02424e-05
-9.61623e-06
-9.01697e-06
-8.44396e-06
-7.89653e-06
-7.37401e-06
-6.87573e-06
-6.40105e-06
-5.9493e-06
-5.51984e-06
-5.11201e-06
-4.72517e-06
-4.35868e-06
-4.01189e-06
-3.68415e-06
-3.37482e-06
-3.08326e-06
-2.80883e-06
-2.55089e-06
-2.30881e-06
-2.08194e-06
-1.86964e-06
-1.67126e-06
-1.48618e-06
-1.31376e-06
-1.1534e-06
-1.0045e-06
-8.66451e-07
-7.38701e-07
-6.20661e-07
-5.11772e-07
-4.11449e-07
-3.19188e-07
-2.34426e-07
-1.56624e-07
-8.53475e-08
-1.98379e-08
3.97538e-08
9.56734e-08
1.43948e-07
1.96112e-07
2.26171e-07
2.95714e-07
2.69284e-07
4.38151e-07
2.06469e-07
7.44536e-07
-1.34146e-07
1.45561e-06
-1.011e-06
2.78073e-06
-2.4001e-06
4.27089e-06
-3.19363e-06
4.15478e-06
-1.21422e-06
6.51717e-07
3.90191e-06
-4.15032e-06
7.53799e-06
-4.13079e-06
-1.76979e-05
-1.67782e-05
-1.58942e-05
-1.50438e-05
-1.42261e-05
-1.34403e-05
-1.26856e-05
-1.19612e-05
-1.12662e-05
-1.05998e-05
-9.96143e-06
-9.3502e-06
-8.76544e-06
-8.20645e-06
-7.67255e-06
-7.16308e-06
-6.67737e-06
-6.21477e-06
-5.77462e-06
-5.35627e-06
-4.95908e-06
-4.58241e-06
-4.2256e-06
-3.88803e-06
-3.56906e-06
-3.26805e-06
-2.98437e-06
-2.7174e-06
-2.46649e-06
-2.23104e-06
-2.0104e-06
-1.80396e-06
-1.61107e-06
-1.43113e-06
-1.26351e-06
-1.10762e-06
-9.62888e-07
-8.28712e-07
-7.04551e-07
-5.89833e-07
-4.84011e-07
-3.86518e-07
-2.9686e-07
-2.1449e-07
-1.38886e-07
-6.96194e-08
-5.95913e-09
5.19547e-08
1.06302e-07
1.53212e-07
2.03949e-07
2.33085e-07
3.00941e-07
2.74712e-07
4.4021e-07
2.12238e-07
7.41268e-07
-1.2438e-07
1.44295e-06
-9.92825e-07
2.75638e-06
-2.37515e-06
4.24376e-06
-3.17807e-06
4.14719e-06
-1.22826e-06
6.77139e-07
3.86022e-06
-4.09591e-06
7.47659e-06
-4.0144e-06
-1.72331e-05
-1.63334e-05
-1.54688e-05
-1.46375e-05
-1.38383e-05
-1.30707e-05
-1.23337e-05
-1.16264e-05
-1.09482e-05
-1.02981e-05
-9.67548e-06
-9.07954e-06
-8.50959e-06
-7.96491e-06
-7.44482e-06
-6.94866e-06
-6.47576e-06
-6.02547e-06
-5.59713e-06
-5.1901e-06
-4.80373e-06
-4.43739e-06
-4.09044e-06
-3.76225e-06
-3.45219e-06
-3.15964e-06
-2.88396e-06
-2.62456e-06
-2.3808e-06
-2.15209e-06
-1.93779e-06
-1.7373e-06
-1.54998e-06
-1.37526e-06
-1.21251e-06
-1.06116e-06
-9.20657e-07
-7.90411e-07
-6.69893e-07
-5.58546e-07
-4.55837e-07
-3.61218e-07
-2.742e-07
-1.94259e-07
-1.20885e-07
-5.36596e-08
8.12335e-09
6.43341e-08
1.17085e-07
1.62611e-07
2.11899e-07
2.40103e-07
3.06233e-07
2.80231e-07
4.42261e-07
2.18142e-07
7.37837e-07
-1.14315e-07
1.42984e-06
-9.74057e-07
2.73122e-06
-2.34947e-06
4.21587e-06
-3.1623e-06
4.13951e-06
-1.24277e-06
7.02385e-07
3.81901e-06
-4.04377e-06
7.41786e-06
-3.90166e-06
-1.67587e-05
-1.58795e-05
-1.5035e-05
-1.42232e-05
-1.34432e-05
-1.26942e-05
-1.19753e-05
-1.12857e-05
-1.06246e-05
-9.99116e-06
-9.38467e-06
-8.80436e-06
-8.24951e-06
-7.71943e-06
-7.21342e-06
-6.73083e-06
-6.27097e-06
-5.83321e-06
-5.41689e-06
-5.02137e-06
-4.64601e-06
-4.29018e-06
-3.95324e-06
-3.63458e-06
-3.33358e-06
-3.04962e-06
-2.78208e-06
-2.53037e-06
-2.29387e-06
-2.07199e-06
-1.86412e-06
-1.66967e-06
-1.48801e-06
-1.31858e-06
-1.16078e-06
-1.01404e-06
-8.77824e-07
-7.51564e-07
-6.34742e-07
-5.26815e-07
-4.27263e-07
-3.35559e-07
-2.5122e-07
-1.73742e-07
-1.0263e-07
-3.74749e-08
2.24036e-08
7.6887e-08
1.28018e-07
1.72142e-07
2.19957e-07
2.47219e-07
3.11588e-07
2.8584e-07
4.443e-07
2.24183e-07
7.34237e-07
-1.03944e-07
1.41625e-06
-9.5469e-07
2.70525e-06
-2.32306e-06
4.18726e-06
-3.14633e-06
4.13179e-06
-1.25778e-06
7.27415e-07
3.77841e-06
-3.99425e-06
7.36222e-06
-3.79364e-06
-1.62747e-05
-1.54167e-05
-1.45929e-05
-1.38013e-05
-1.30409e-05
-1.2311e-05
-1.16106e-05
-1.09391e-05
-1.02955e-05
-9.67912e-06
-9.08911e-06
-8.52474e-06
-7.98531e-06
-7.47011e-06
-6.97845e-06
-6.50966e-06
-6.06309e-06
-5.63808e-06
-5.23398e-06
-4.85017e-06
-4.48599e-06
-4.14083e-06
-3.81407e-06
-3.50509e-06
-3.21328e-06
-2.93804e-06
-2.67876e-06
-2.43485e-06
-2.20572e-06
-1.99078e-06
-1.78943e-06
-1.60111e-06
-1.42519e-06
-1.26113e-06
-1.10834e-06
-9.66272e-07
-8.34407e-07
-7.12188e-07
-5.99112e-07
-4.94652e-07
-3.98302e-07
-3.09551e-07
-2.27928e-07
-1.52948e-07
-8.41289e-08
-2.10723e-08
3.68757e-08
8.96078e-08
1.39097e-07
1.81799e-07
2.2812e-07
2.54432e-07
3.17002e-07
2.91537e-07
4.46324e-07
2.30362e-07
7.30461e-07
-9.32629e-08
1.40217e-06
-9.34713e-07
2.67845e-06
-2.29593e-06
4.15792e-06
-3.13022e-06
4.12407e-06
-1.27333e-06
7.52195e-07
3.73854e-06
-3.94771e-06
7.3101e-06
-3.69154e-06
-1.57813e-05
-1.49453e-05
-1.41427e-05
-1.33717e-05
-1.26315e-05
-1.19211e-05
-1.12399e-05
-1.05868e-05
-9.96114e-06
-9.3621e-06
-8.7889e-06
-8.2408e-06
-7.71708e-06
-7.21704e-06
-6.73998e-06
-6.28525e-06
-5.85219e-06
-5.44014e-06
-5.04847e-06
-4.67654e-06
-4.32373e-06
-3.98941e-06
-3.67298e-06
-3.37383e-06
-3.09135e-06
-2.82495e-06
-2.57405e-06
-2.33805e-06
-2.11639e-06
-1.90848e-06
-1.71375e-06
-1.53164e-06
-1.36154e-06
-1.20291e-06
-1.05521e-06
-9.1788e-07
-7.90422e-07
-6.72298e-07
-5.63019e-07
-4.62071e-07
-3.68964e-07
-2.83206e-07
-2.04335e-07
-1.31885e-07
-6.53886e-08
-4.45852e-09
5.15334e-08
1.02491e-07
1.50316e-07
1.91579e-07
2.36384e-07
2.61739e-07
3.22473e-07
2.97321e-07
4.4833e-07
2.3668e-07
7.26505e-07
-8.22658e-08
1.38761e-06
-9.14116e-07
2.65081e-06
-2.26806e-06
4.12787e-06
-3.114e-06
4.1164e-06
-1.28949e-06
7.76694e-07
3.69952e-06
-3.90453e-06
7.26192e-06
-3.59664e-06
-1.52788e-05
-1.44652e-05
-1.36845e-05
-1.29347e-05
-1.22151e-05
-1.15249e-05
-1.08631e-05
-1.02289e-05
-9.62153e-06
-9.04021e-06
-8.48417e-06
-7.95264e-06
-7.44492e-06
-6.96031e-06
-6.49811e-06
-6.05768e-06
-5.63834e-06
-5.23947e-06
-4.86042e-06
-4.50056e-06
-4.15929e-06
-3.83597e-06
-3.53002e-06
-3.24083e-06
-2.96782e-06
-2.7104e-06
-2.46798e-06
-2.24001e-06
-2.02592e-06
-1.82514e-06
-1.63712e-06
-1.46129e-06
-1.29709e-06
-1.14397e-06
-1.00142e-06
-8.68882e-07
-7.45889e-07
-6.31912e-07
-5.26476e-07
-4.29086e-07
-3.39263e-07
-2.56535e-07
-1.80449e-07
-1.10561e-07
-4.64173e-08
1.23593e-08
6.63704e-08
1.15532e-07
1.61672e-07
2.01478e-07
2.44745e-07
2.69136e-07
3.27996e-07
3.03189e-07
4.50314e-07
2.43136e-07
7.22362e-07
-7.09485e-08
1.37254e-06
-8.92893e-07
2.62234e-06
-2.23947e-06
4.09713e-06
-3.09773e-06
4.10886e-06
-1.30632e-06
8.00889e-07
3.66147e-06
-3.86508e-06
7.21814e-06
-3.51029e-06
-1.47673e-05
-1.39768e-05
-1.32185e-05
-1.24905e-05
-1.1792e-05
-1.11223e-05
-1.04804e-05
-9.8655e-06
-9.27683e-06
-8.71358e-06
-8.17501e-06
-7.66037e-06
-7.16893e-06
-6.70001e-06
-6.25293e-06
-5.82702e-06
-5.42164e-06
-5.03614e-06
-4.66991e-06
-4.32231e-06
-3.99273e-06
-3.68058e-06
-3.38525e-06
-3.10617e-06
-2.84274e-06
-2.59442e-06
-2.36061e-06
-2.14077e-06
-1.93434e-06
-1.74079e-06
-1.55955e-06
-1.39009e-06
-1.23186e-06
-1.08432e-06
-9.46977e-07
-8.19299e-07
-7.00825e-07
-5.91045e-07
-4.895e-07
-3.9571e-07
-3.0921e-07
-2.29548e-07
-1.56282e-07
-8.89871e-08
-2.72231e-08
2.9374e-08
8.13807e-08
1.28724e-07
1.73159e-07
2.11491e-07
2.53199e-07
2.7662e-07
3.33571e-07
3.09139e-07
4.52275e-07
2.4973e-07
7.18029e-07
-5.9307e-08
1.35696e-06
-8.71036e-07
2.59301e-06
-2.21017e-06
4.06572e-06
-3.08146e-06
4.1015e-06
-1.32389e-06
8.2476e-07
3.62452e-06
-3.82974e-06
7.17918e-06
-3.43392e-06
-1.42471e-05
-1.34803e-05
-1.27449e-05
-1.20392e-05
-1.13624e-05
-1.07136e-05
-1.0092e-05
-9.49678e-06
-8.92715e-06
-8.38233e-06
-7.86156e-06
-7.36409e-06
-6.88922e-06
-6.43626e-06
-6.00453e-06
-5.59338e-06
-5.20216e-06
-4.83024e-06
-4.47701e-06
-4.14184e-06
-3.82413e-06
-3.52328e-06
-3.23873e-06
-2.96988e-06
-2.71618e-06
-2.47706e-06
-2.25197e-06
-2.04036e-06
-1.8417e-06
-1.65546e-06
-1.48109e-06
-1.31807e-06
-1.16588e-06
-1.02399e-06
-8.91918e-07
-7.69153e-07
-6.55251e-07
-5.49716e-07
-4.52107e-07
-3.61958e-07
-2.78819e-07
-2.02258e-07
-1.31843e-07
-6.71708e-08
-7.81419e-09
4.65784e-08
9.65577e-08
1.42062e-07
1.84772e-07
2.21615e-07
2.61743e-07
2.84188e-07
3.39192e-07
3.15171e-07
4.54206e-07
2.56467e-07
7.13495e-07
-4.73275e-08
1.34084e-06
-8.48511e-07
2.56278e-06
-2.1801e-06
4.0336e-06
-3.06518e-06
4.09433e-06
-1.34223e-06
8.4829e-07
3.58873e-06
-3.79881e-06
7.14539e-06
-3.36886e-06
-1.37183e-05
-1.29758e-05
-1.22638e-05
-1.1581e-05
-1.09262e-05
-1.02988e-05
-9.698e-06
-9.12287e-06
-8.57265e-06
-8.04658e-06
-7.54392e-06
-7.06392e-06
-6.60589e-06
-6.16914e-06
-5.75301e-06
-5.35684e-06
-4.97999e-06
-4.62185e-06
-4.2818e-06
-3.95923e-06
-3.65354e-06
-3.36416e-06
-3.09051e-06
-2.83204e-06
-2.58817e-06
-2.35838e-06
-2.14211e-06
-1.93883e-06
-1.74803e-06
-1.56918e-06
-1.40176e-06
-1.24527e-06
-1.09918e-06
-9.63001e-07
-8.3626e-07
-7.18463e-07
-6.09184e-07
-5.07942e-07
-4.14311e-07
-3.27843e-07
-2.48102e-07
-1.74675e-07
-1.07143e-07
-4.51218e-08
1.18013e-08
6.39653e-08
1.11895e-07
1.55541e-07
1.96506e-07
2.31844e-07
2.70373e-07
2.91838e-07
3.44857e-07
3.21284e-07
4.56102e-07
2.63353e-07
7.0874e-07
-3.49788e-08
1.32413e-06
-8.25237e-07
2.53155e-06
-2.14912e-06
4.00061e-06
-3.04874e-06
4.08726e-06
-1.36132e-06
8.71473e-07
3.55412e-06
-3.77241e-06
7.11694e-06
-3.31628e-06
-1.31811e-05
-1.24635e-05
-1.17756e-05
-1.1116e-05
-1.04838e-05
-9.87831e-06
-9.2986e-06
-8.74391e-06
-8.21346e-06
-7.70647e-06
-7.22222e-06
-6.75998e-06
-6.31906e-06
-5.89877e-06
-5.49846e-06
-5.11749e-06
-4.75522e-06
-4.41105e-06
-4.08435e-06
-3.77454e-06
-3.48104e-06
-3.20326e-06
-2.94066e-06
-2.69268e-06
-2.45878e-06
-2.23842e-06
-2.03107e-06
-1.83622e-06
-1.65336e-06
-1.48199e-06
-1.3216e-06
-1.1717e-06
-1.03179e-06
-9.01379e-07
-7.80028e-07
-6.67252e-07
-5.62644e-07
-4.6574e-07
-3.76129e-07
-2.9338e-07
-2.17072e-07
-1.46811e-07
-8.2192e-08
-2.28492e-08
3.16151e-08
8.15271e-08
1.27386e-07
1.69154e-07
2.08356e-07
2.42175e-07
2.79085e-07
2.99566e-07
3.50563e-07
3.27474e-07
4.57966e-07
2.70376e-07
7.03785e-07
-2.2302e-08
1.3069e-06
-8.01325e-07
2.49946e-06
-2.11748e-06
3.96708e-06
-3.03253e-06
4.08067e-06
-1.38145e-06
8.94364e-07
3.52091e-06
-3.7512e-06
7.09458e-06
-3.27781e-06
-1.26359e-05
-1.19436e-05
-1.12803e-05
-1.06445e-05
-1.00354e-05
-9.45211e-06
-8.89394e-06
-8.36007e-06
-7.84971e-06
-7.36213e-06
-6.89659e-06
-6.45239e-06
-6.02883e-06
-5.62525e-06
-5.241e-06
-4.87543e-06
-4.52794e-06
-4.19791e-06
-3.88475e-06
-3.58787e-06
-3.30669e-06
-3.04066e-06
-2.78924e-06
-2.55188e-06
-2.32804e-06
-2.11723e-06
-1.9189e-06
-1.73257e-06
-1.55774e-06
-1.39393e-06
-1.24064e-06
-1.0974e-06
-9.63729e-07
-8.39152e-07
-7.23244e-07
-6.15541e-07
-5.15652e-07
-4.2313e-07
-3.37578e-07
-2.58585e-07
-1.85742e-07
-1.18679e-07
-5.70012e-08
-3.6332e-10
5.16182e-08
9.9256e-08
1.43024e-07
1.82895e-07
2.20317e-07
2.52601e-07
2.87876e-07
3.07361e-07
3.56321e-07
3.33708e-07
4.59852e-07
2.77424e-07
6.9883e-07
-9.65131e-09
1.28973e-06
-7.7769e-07
2.46786e-06
-2.08697e-06
3.93518e-06
-3.01894e-06
4.07672e-06
-1.40404e-06
9.17094e-07
3.49051e-06
-3.73794e-06
7.08147e-06
-3.25695e-06
-1.20942e-05
-1.14274e-05
-1.07886e-05
-1.01765e-05
-9.59036e-06
-9.02932e-06
-8.49262e-06
-7.97948e-06
-7.48914e-06
-7.02086e-06
-6.57394e-06
-6.14767e-06
-5.74137e-06
-5.35438e-06
-4.98607e-06
-4.6358e-06
-4.30296e-06
-3.98697e-06
-3.68722e-06
-3.40315e-06
-3.13419e-06
-2.87981e-06
-2.63945e-06
-2.41261e-06
-2.19874e-06
-1.99737e-06
-1.80798e-06
-1.63008e-06
-1.4632e-06
-1.30687e-06
-1.1606e-06
-1.02395e-06
-8.96447e-07
-7.77637e-07
-6.67114e-07
-5.64427e-07
-4.69204e-07
-3.81013e-07
-2.99474e-07
-2.24194e-07
-1.54778e-07
-9.08756e-08
-3.21048e-08
2.1859e-08
7.13863e-08
1.16776e-07
1.58478e-07
1.96473e-07
2.32136e-07
2.62901e-07
2.96563e-07
3.15057e-07
3.62013e-07
3.39846e-07
4.61742e-07
2.84305e-07
6.94061e-07
2.5566e-09
1.27324e-06
-7.55246e-07
2.43804e-06
-2.0591e-06
3.9067e-06
-3.00948e-06
4.07664e-06
-1.42938e-06
9.3924e-07
3.46438e-06
-3.73444e-06
7.07958e-06
-3.25564e-06
-1.15515e-05
-1.09103e-05
-1.02962e-05
-9.70807e-06
-9.14502e-06
-8.60632e-06
-8.0912e-06
-7.59889e-06
-7.12864e-06
-6.67974e-06
-6.25148e-06
-5.84318e-06
-5.45418e-06
-5.08381e-06
-4.73146e-06
-4.3965e-06
-4.07833e-06
-3.77637e-06
-3.49004e-06
-3.21878e-06
-2.96204e-06
-2.71928e-06
-2.48998e-06
-2.27365e-06
-2.06975e-06
-1.87781e-06
-1.69733e-06
-1.52785e-06
-1.3689e-06
-1.22003e-06
-1.08078e-06
-9.50695e-07
-8.2935e-07
-7.16294e-07
-6.11143e-07
-5.13459e-07
-4.2289e-07
-3.39019e-07
-2.61482e-07
-1.89903e-07
-1.23904e-07
-6.31537e-08
-7.28223e-09
4.40151e-08
9.1095e-08
1.34243e-07
1.73883e-07
2.1001e-07
2.43915e-07
2.73173e-07
3.05206e-07
3.22757e-07
3.67617e-07
3.46096e-07
4.6335e-07
2.91659e-07
6.88395e-07
1.62222e-08
1.25437e-06
-7.29358e-07
2.40342e-06
-2.02536e-06
3.87155e-06
-2.99374e-06
4.07143e-06
-1.45215e-06
9.60863e-07
3.43631e-06
-3.72977e-06
7.07668e-06
-3.2627e-06
-1.09909e-05
-1.03763e-05
-9.78787e-06
-9.22456e-06
-8.68549e-06
-8.16995e-06
-7.67718e-06
-7.20643e-06
-6.75699e-06
-6.32813e-06
-5.91918e-06
-5.52946e-06
-5.15832e-06
-4.80512e-06
-4.46924e-06
-4.15009e-06
-3.84706e-06
-3.55958e-06
-3.28708e-06
-3.02903e-06
-2.78487e-06
-2.5541e-06
-2.33619e-06
-2.13068e-06
-1.93703e-06
-1.75481e-06
-1.58351e-06
-1.4227e-06
-1.27191e-06
-1.13072e-06
-9.98681e-07
-8.75364e-07
-7.60353e-07
-6.53216e-07
-5.5359e-07
-4.61053e-07
-3.7527e-07
-2.95842e-07
-2.2242e-07
-1.54648e-07
-9.21628e-08
-3.4653e-08
1.82372e-08
6.67927e-08
1.11356e-07
1.52199e-07
1.8972e-07
2.23925e-07
2.56021e-07
2.83734e-07
3.14081e-07
3.30685e-07
3.73336e-07
3.52588e-07
4.64848e-07
2.99479e-07
6.82072e-07
3.1061e-08
1.23369e-06
-7.00943e-07
2.36537e-06
-1.98786e-06
3.83239e-06
-2.97518e-06
4.06435e-06
-1.4752e-06
9.82659e-07
3.40781e-06
-3.72813e-06
7.07746e-06
-3.28264e-06
-1.04119e-05
-9.82499e-06
-9.26325e-06
-8.72567e-06
-8.21146e-06
-7.71992e-06
-7.25031e-06
-6.80189e-06
-6.37396e-06
-5.96583e-06
-5.57684e-06
-5.20632e-06
-4.85363e-06
-4.51815e-06
-4.19929e-06
-3.89643e-06
-3.60901e-06
-3.33646e-06
-3.07823e-06
-2.83378e-06
-2.60259e-06
-2.38417e-06
-2.178e-06
-1.98363e-06
-1.80055e-06
-1.62832e-06
-1.46647e-06
-1.31457e-06
-1.17219e-06
-1.0389e-06
-9.14281e-07
-7.9792e-07
-6.89424e-07
-5.88375e-07
-4.94431e-07
-4.07187e-07
-3.26325e-07
-2.51464e-07
-1.82273e-07
-1.18414e-07
-5.95403e-08
-5.36169e-09
4.44639e-08
9.02009e-08
1.32177e-07
1.70651e-07
2.05993e-07
2.38223e-07
2.6846e-07
2.94585e-07
3.23196e-07
3.38832e-07
3.79198e-07
3.59271e-07
4.66337e-07
3.07579e-07
6.75421e-07
4.65111e-08
1.21207e-06
-6.71346e-07
2.32575e-06
-1.94906e-06
3.79211e-06
-2.95687e-06
4.05814e-06
-1.50029e-06
1.00477e-06
3.38058e-06
-3.73289e-06
7.0857e-06
-3.31927e-06
-9.81438e-06
-9.25611e-06
-8.72201e-06
-8.21112e-06
-7.72267e-06
-7.25598e-06
-6.81033e-06
-6.38501e-06
-5.97934e-06
-5.59264e-06
-5.22427e-06
-4.87357e-06
-4.53994e-06
-4.22276e-06
-3.92145e-06
-3.63541e-06
-3.36408e-06
-3.10692e-06
-2.86339e-06
-2.63296e-06
-2.41513e-06
-2.20942e-06
-2.01534e-06
-1.83243e-06
-1.66022e-06
-1.49828e-06
-1.34616e-06
-1.20343e-06
-1.06969e-06
-9.44523e-07
-8.27538e-07
-7.18332e-07
-6.16534e-07
-5.21744e-07
-4.33642e-07
-3.51838e-07
-2.76034e-07
-2.05867e-07
-1.41024e-07
-8.11863e-08
-2.60237e-08
2.47318e-08
7.14081e-08
1.14249e-07
1.53567e-07
1.89606e-07
2.22709e-07
2.52909e-07
2.81235e-07
3.05728e-07
3.32556e-07
3.47197e-07
3.85211e-07
3.66136e-07
4.6784e-07
3.15924e-07
6.68495e-07
6.24993e-08
1.18961e-06
-6.40661e-07
2.28463e-06
-1.909e-06
3.75071e-06
-2.93881e-06
4.05277e-06
-1.52748e-06
1.02723e-06
3.35454e-06
-3.74411e-06
7.10135e-06
-3.37281e-06
-9.19784e-06
-8.66931e-06
-8.16386e-06
-7.68061e-06
-7.21884e-06
-6.77788e-06
-6.35702e-06
-5.95559e-06
-5.57292e-06
-5.20836e-06
-4.86129e-06
-4.53107e-06
-4.21711e-06
-3.91881e-06
-3.63559e-06
-3.36689e-06
-3.11215e-06
-2.87085e-06
-2.64245e-06
-2.42646e-06
-2.22239e-06
-2.02977e-06
-1.84813e-06
-1.67702e-06
-1.516e-06
-1.36464e-06
-1.22252e-06
-1.08923e-06
-9.64367e-07
-8.47559e-07
-7.3842e-07
-6.36568e-07
-5.41655e-07
-4.53298e-07
-3.71199e-07
-2.94985e-07
-2.24379e-07
-1.59034e-07
-9.86571e-08
-4.29506e-08
8.39924e-09
5.56384e-08
9.90796e-08
1.38946e-07
1.75534e-07
2.09071e-07
2.39875e-07
2.67989e-07
2.94352e-07
3.17168e-07
3.42164e-07
3.55779e-07
3.91382e-07
3.73175e-07
4.69368e-07
3.245e-07
6.61308e-07
7.90215e-08
1.16626e-06
-6.08794e-07
2.24181e-06
-1.86734e-06
3.70767e-06
-2.9204e-06
4.04767e-06
-1.55646e-06
1.05002e-06
3.3293e-06
-3.76118e-06
7.1236e-06
-3.44239e-06
-8.562e-06
-8.06429e-06
-7.58851e-06
-7.13389e-06
-6.69973e-06
-6.28536e-06
-5.89014e-06
-5.5134e-06
-5.15451e-06
-4.81282e-06
-4.48774e-06
-4.17865e-06
-3.88498e-06
-3.60615e-06
-3.34159e-06
-3.09075e-06
-2.85311e-06
-2.62814e-06
-2.41533e-06
-2.21421e-06
-2.0243e-06
-1.84515e-06
-1.67631e-06
-1.51735e-06
-1.36783e-06
-1.22736e-06
-1.09551e-06
-9.71917e-07
-8.56192e-07
-7.47972e-07
-6.46896e-07
-5.52601e-07
-4.64761e-07
-3.83014e-07
-3.07081e-07
-2.3661e-07
-1.71341e-07
-1.1095e-07
-5.51592e-08
-3.69492e-09
4.37395e-08
8.7368e-08
1.27487e-07
1.64298e-07
1.98083e-07
2.29051e-07
2.57494e-07
2.83466e-07
3.07815e-07
3.28906e-07
3.52026e-07
3.64579e-07
3.97717e-07
3.8038e-07
4.70938e-07
3.33279e-07
6.53895e-07
9.60321e-08
1.14208e-06
-5.75752e-07
2.1972e-06
-1.82391e-06
3.66268e-06
-2.90131e-06
4.04248e-06
-1.58703e-06
1.07313e-06
3.30459e-06
-3.78366e-06
7.15178e-06
-3.5269e-06
-7.90658e-06
-7.44077e-06
-6.99571e-06
-6.5707e-06
-6.16508e-06
-5.77823e-06
-5.4095e-06
-5.05827e-06
-4.72392e-06
-4.40585e-06
-4.10346e-06
-3.81618e-06
-3.54343e-06
-3.28466e-06
-3.03933e-06
-2.8069e-06
-2.58686e-06
-2.37871e-06
-2.18195e-06
-1.99613e-06
-1.82079e-06
-1.6555e-06
-1.49982e-06
-1.35334e-06
-1.21565e-06
-1.08637e-06
-9.65093e-07
-8.51466e-07
-7.45126e-07
-6.45729e-07
-5.52936e-07
-4.66403e-07
-3.85829e-07
-3.1087e-07
-2.41269e-07
-1.76694e-07
-1.16906e-07
-6.15991e-08
-1.05174e-08
3.65921e-08
8.00073e-08
1.19929e-07
1.56639e-07
1.90314e-07
2.21221e-07
2.49553e-07
2.75574e-07
2.99346e-07
3.21628e-07
3.40944e-07
3.62144e-07
3.73595e-07
4.04224e-07
3.8774e-07
4.72572e-07
3.42229e-07
6.46304e-07
1.13467e-07
1.11711e-06
-5.4159e-07
2.15081e-06
-1.77861e-06
3.61555e-06
-2.88123e-06
4.03689e-06
-1.61902e-06
1.09655e-06
3.28015e-06
-3.81112e-06
7.18518e-06
-3.62485e-06
-7.23132e-06
-6.7985e-06
-6.38521e-06
-5.99082e-06
-5.61471e-06
-5.25628e-06
-4.91492e-06
-4.59002e-06
-4.28101e-06
-3.9873e-06
-3.70831e-06
-3.4435e-06
-3.19232e-06
-2.95422e-06
-2.7287e-06
-2.51523e-06
-2.31331e-06
-2.12247e-06
-1.94223e-06
-1.77215e-06
-1.6118e-06
-1.46075e-06
-1.3186e-06
-1.18497e-06
-1.05943e-06
-9.41647e-07
-8.31227e-07
-7.27838e-07
-6.31138e-07
-5.40802e-07
-4.56515e-07
-3.77953e-07
-3.04838e-07
-2.36847e-07
-1.73746e-07
-1.15223e-07
-6.10587e-08
-1.09704e-08
3.52793e-08
7.79204e-08
1.17211e-07
1.5333e-07
1.86541e-07
2.16999e-07
2.44955e-07
2.70581e-07
2.94116e-07
3.1563e-07
3.35795e-07
3.53286e-07
3.72523e-07
3.82825e-07
4.10909e-07
3.95244e-07
4.74288e-07
3.51315e-07
6.38583e-07
1.31257e-07
1.09143e-06
-5.06372e-07
2.10263e-06
-1.73138e-06
3.56603e-06
-2.85988e-06
4.03053e-06
-1.65223e-06
1.12025e-06
3.25567e-06
-3.84301e-06
7.22294e-06
-3.7343e-06
-6.53599e-06
-6.13728e-06
-5.75682e-06
-5.39406e-06
-5.04842e-06
-4.71933e-06
-4.40621e-06
-4.1085e-06
-3.82562e-06
-3.55702e-06
-3.30217e-06
-3.06052e-06
-2.83155e-06
-2.61475e-06
-2.40962e-06
-2.21566e-06
-2.03239e-06
-1.85935e-06
-1.6961e-06
-1.54221e-06
-1.39726e-06
-1.26086e-06
-1.13262e-06
-1.01217e-06
-8.99129e-07
-7.9315e-07
-6.93882e-07
-6.01005e-07
-5.14202e-07
-4.33168e-07
-3.57611e-07
-2.87229e-07
-2.21769e-07
-1.60928e-07
-1.04497e-07
-5.21831e-08
-3.78828e-09
4.09471e-08
8.22404e-08
1.20298e-07
1.55359e-07
1.87578e-07
2.172e-07
2.44359e-07
2.69287e-07
2.92139e-07
3.13125e-07
3.32323e-07
3.50316e-07
3.65931e-07
3.83164e-07
3.92267e-07
4.17779e-07
4.02882e-07
4.76107e-07
3.60504e-07
6.30783e-07
1.4933e-07
1.06513e-06
-4.70169e-07
2.05268e-06
-1.68213e-06
3.51389e-06
-2.83693e-06
4.02304e-06
-1.68644e-06
1.14421e-06
3.23082e-06
-3.87865e-06
7.26403e-06
-3.85292e-06
-5.82041e-06
-5.45692e-06
-5.11036e-06
-4.78025e-06
-4.46606e-06
-4.16725e-06
-3.88326e-06
-3.61357e-06
-3.35763e-06
-3.11492e-06
-2.88492e-06
-2.66712e-06
-2.46103e-06
-2.26615e-06
-2.082e-06
-1.90811e-06
-1.74402e-06
-1.5893e-06
-1.44351e-06
-1.30625e-06
-1.17714e-06
-1.05579e-06
-9.41833e-07
-8.34927e-07
-7.34707e-07
-6.40852e-07
-5.5303e-07
-4.70943e-07
-3.94296e-07
-3.22806e-07
-2.56206e-07
-1.94216e-07
-1.36608e-07
-8.31019e-08
-3.35104e-08
1.24361e-08
5.49147e-08
9.41616e-08
1.30373e-07
1.63732e-07
1.94455e-07
2.22676e-07
2.48619e-07
2.72396e-07
2.94221e-07
3.14229e-07
3.32604e-07
3.49425e-07
3.65195e-07
3.78881e-07
3.9407e-07
4.01921e-07
4.24839e-07
4.10643e-07
4.78047e-07
3.6976e-07
6.22953e-07
1.67608e-07
1.03827e-06
-4.3307e-07
2.00096e-06
-1.63079e-06
3.45891e-06
-2.81203e-06
4.01398e-06
-1.72138e-06
1.16838e-06
3.20523e-06
-3.9173e-06
7.30724e-06
-3.97806e-06
-5.08445e-06
-4.7573e-06
-4.44571e-06
-4.14928e-06
-3.86752e-06
-3.59991e-06
-3.34596e-06
-3.10513e-06
-2.87694e-06
-2.66089e-06
-2.45648e-06
-2.26323e-06
-2.08068e-06
-1.90835e-06
-1.74578e-06
-1.59253e-06
-1.44816e-06
-1.31225e-06
-1.18441e-06
-1.06424e-06
-9.51389e-07
-8.45494e-07
-7.46207e-07
-6.53204e-07
-5.66145e-07
-4.84731e-07
-4.08651e-07
-3.37633e-07
-2.71403e-07
-2.09701e-07
-1.52287e-07
-9.89024e-08
-4.93455e-08
-3.35846e-09
3.92218e-08
7.86417e-08
1.15057e-07
1.48679e-07
1.79683e-07
2.08226e-07
2.34505e-07
2.58629e-07
2.80803e-07
3.01115e-07
3.1976e-07
3.36854e-07
3.52553e-07
3.66938e-07
3.80433e-07
3.92135e-07
4.05242e-07
4.11782e-07
4.32094e-07
4.18515e-07
4.80128e-07
3.79048e-07
6.15148e-07
1.86009e-07
1.01097e-06
-3.95177e-07
1.94754e-06
-1.57733e-06
3.40086e-06
-2.78484e-06
4.00291e-06
-1.75675e-06
1.19268e-06
3.1785e-06
-3.9581e-06
7.35123e-06
-4.10684e-06
-4.32803e-06
-4.03832e-06
-3.76279e-06
-3.50106e-06
-3.25271e-06
-3.01725e-06
-2.79421e-06
-2.58312e-06
-2.38349e-06
-2.19487e-06
-2.0168e-06
-1.84881e-06
-1.69046e-06
-1.54131e-06
-1.40092e-06
-1.26888e-06
-1.14477e-06
-1.02819e-06
-9.18775e-07
-8.16158e-07
-7.19995e-07
-6.29961e-07
-5.45725e-07
-4.66986e-07
-3.93428e-07
-3.24772e-07
-2.60735e-07
-2.01064e-07
-1.45514e-07
-9.38465e-08
-4.58477e-08
-1.28215e-09
4.00245e-08
7.83068e-08
1.13704e-07
1.46437e-07
1.76641e-07
2.04502e-07
2.30171e-07
2.53783e-07
2.7551e-07
2.95437e-07
3.13751e-07
3.30515e-07
3.45905e-07
3.60014e-07
3.72973e-07
3.84863e-07
3.9603e-07
4.05694e-07
4.16681e-07
4.21849e-07
4.39549e-07
4.26488e-07
4.82366e-07
3.88331e-07
6.07422e-07
2.04447e-07
9.83319e-07
-3.56606e-07
1.89248e-06
-1.52172e-06
3.33954e-06
-2.755e-06
3.98936e-06
-1.79221e-06
1.21701e-06
3.15023e-06
-4.00013e-06
7.39453e-06
-4.23624e-06
-3.55111e-06
-3.29996e-06
-3.06155e-06
-2.83555e-06
-2.62159e-06