/*--------------------------------*- C++ -*----------------------------------*\
| =========                 |                                                 |
| \\      /  F ield         | OpenFOAM: The Open Source CFD Toolbox           |
|  \\    /   O peration     | Version:  2412                                  |
|   \\  /    A nd           | Website:  www.openfoam.com                      |
|    \\/     M anipulation  |                                                 |
\*---------------------------------------------------------------------------*/
FoamFile
{
    version     2.0;
    format      ascii;
    arch        "LSB;label=32;scalar=64";
    class       volVectorField;
    location    "4";
    object      U;
}
// * * * * * * * * * * * * * * * * * * * * * * * * * * * * * * * * * * * * * //

dimensions      [0 1 -1 0 0 0 0];

internalField   nonuniform List<vector> 
5285
(
(0.101073 1.73847e-06 0)
(0.099207 2.41096e-05 0)
(0.100122 2.97734e-05 0)
(0.0994993 2.55436e-05 0)
(0.0994954 1.34037e-05 0)
(0.0994668 5.19513e-06 0)
(0.0994327 1.83355e-06 0)
(0.0994325 1.58784e-06 0)
(0.0994221 2.77156e-06 0)
(0.0994034 4.22402e-06 0)
(0.0993793 5.50808e-06 0)
(0.0993501 6.54898e-06 0)
(0.0993171 7.38724e-06 0)
(0.0992814 8.08769e-06 0)
(0.0992434 8.70568e-06 0)
(0.0992037 9.28093e-06 0)
(0.0991623 9.84035e-06 0)
(0.0991193 1.04021e-05 0)
(0.0990749 1.09782e-05 0)
(0.099029 1.15769e-05 0)
(0.0989815 1.22046e-05 0)
(0.0989324 1.28661e-05 0)
(0.0988817 1.35652e-05 0)
(0.0988294 1.43048e-05 0)
(0.0987752 1.50875e-05 0)
(0.0987192 1.59161e-05 0)
(0.0986614 1.6793e-05 0)
(0.0986015 1.7721e-05 0)
(0.0985396 1.87026e-05 0)
(0.0984755 1.97407e-05 0)
(0.0984092 2.08379e-05 0)
(0.0983407 2.19974e-05 0)
(0.0982697 2.32221e-05 0)
(0.0981963 2.45155e-05 0)
(0.0981203 2.58814e-05 0)
(0.0980417 2.73239e-05 0)
(0.0979603 2.88476e-05 0)
(0.0978761 3.04572e-05 0)
(0.0977889 3.21583e-05 0)
(0.0976987 3.39568e-05 0)
(0.0976054 3.58594e-05 0)
(0.0975087 3.78735e-05 0)
(0.0974086 4.00078e-05 0)
(0.097305 4.22722e-05 0)
(0.0971977 4.46784e-05 0)
(0.0970864 4.72399e-05 0)
(0.0969711 4.99729e-05 0)
(0.0968515 5.2897e-05 0)
(0.0967274 5.60354e-05 0)
(0.0965984 5.94157e-05 0)
(0.0964643 6.30674e-05 0)
(0.0963247 6.70165e-05 0)
(0.0961792 7.12709e-05 0)
(0.0960275 7.58041e-05 0)
(0.0958694 8.05503e-05 0)
(0.101073 5.15e-06 0)
(0.0992081 7.18674e-05 0)
(0.100126 8.86236e-05 0)
(0.0995068 7.62901e-05 0)
(0.0995028 4.02238e-05 0)
(0.0994735 1.58607e-05 0)
(0.0994377 5.86396e-06 0)
(0.0994361 5.10726e-06 0)
(0.0994246 8.60423e-06 0)
(0.0994052 1.29057e-05 0)
(0.0993806 1.67131e-05 0)
(0.0993511 1.98043e-05 0)
(0.099318 2.22988e-05 0)
(0.0992821 2.43876e-05 0)
(0.0992442 2.62343e-05 0)
(0.0992044 2.79557e-05 0)
(0.099163 2.96313e-05 0)
(0.0991201 3.13142e-05 0)
(0.0990757 3.30403e-05 0)
(0.0990298 3.48349e-05 0)
(0.0989823 3.67163e-05 0)
(0.0989333 3.86988e-05 0)
(0.0988827 4.07932e-05 0)
(0.0988304 4.30088e-05 0)
(0.0987763 4.53538e-05 0)
(0.0987204 4.78359e-05 0)
(0.0986626 5.04628e-05 0)
(0.0986028 5.32422e-05 0)
(0.0985409 5.61819e-05 0)
(0.098477 5.929e-05 0)
(0.0984108 6.25749e-05 0)
(0.0983423 6.60457e-05 0)
(0.0982715 6.97118e-05 0)
(0.0981982 7.35837e-05 0)
(0.0981223 7.76723e-05 0)
(0.0980438 8.19901e-05 0)
(0.0979626 8.65502e-05 0)
(0.0978785 9.13672e-05 0)
(0.0977916 9.64572e-05 0)
(0.0977015 0.000101838 0)
(0.0976084 0.000107529 0)
(0.0975119 0.000113554 0)
(0.0974121 0.000119937 0)
(0.0973087 0.000126708 0)
(0.0972017 0.000133902 0)
(0.0970908 0.000141559 0)
(0.0969758 0.000149726 0)
(0.0968566 0.000158462 0)
(0.0967329 0.000167834 0)
(0.0966045 0.000177925 0)
(0.096471 0.000188821 0)
(0.0963321 0.000200599 0)
(0.0961874 0.000213282 0)
(0.0960367 0.000226794 0)
(0.0958796 0.000240942 0)
(0.101073 8.36558e-06 0)
(0.0992105 0.000118387 0)
(0.100135 0.000145715 0)
(0.0995224 0.0001263 0)
(0.0995177 6.71865e-05 0)
(0.0994869 2.72657e-05 0)
(0.0994478 1.07658e-05 0)
(0.0994433 9.36733e-06 0)
(0.0994297 1.49826e-05 0)
(0.0994088 2.19555e-05 0)
(0.0993833 2.8153e-05 0)
(0.0993532 3.32038e-05 0)
(0.0993198 3.72949e-05 0)
(0.0992837 4.07333e-05 0)
(0.0992457 4.37831e-05 0)
(0.0992059 4.66334e-05 0)
(0.0991645 4.94129e-05 0)
(0.0991216 5.22079e-05 0)
(0.0990773 5.50771e-05 0)
(0.0990315 5.80617e-05 0)
(0.0989841 6.11918e-05 0)
(0.0989352 6.44904e-05 0)
(0.0988847 6.79756e-05 0)
(0.0988325 7.16625e-05 0)
(0.0987786 7.55648e-05 0)
(0.0987228 7.96954e-05 0)
(0.0986651 8.40669e-05 0)
(0.0986055 8.86919e-05 0)
(0.0985438 9.35833e-05 0)
(0.09848 9.87544e-05 0)
(0.098414 0.000104219 0)
(0.0983458 0.000109993 0)
(0.0982751 0.000116091 0)
(0.0982021 0.000122531 0)
(0.0981265 0.000129331 0)
(0.0980482 0.000136512 0)
(0.0979673 0.000144094 0)
(0.0978836 0.000152102 0)
(0.0977969 0.000160563 0)
(0.0977073 0.000169505 0)
(0.0976145 0.000178962 0)
(0.0975185 0.00018897 0)
(0.0974192 0.000199571 0)
(0.0973163 0.000210813 0)
(0.0972098 0.000222752 0)
(0.0970996 0.000235453 0)
(0.0969853 0.000248995 0)
(0.0968669 0.000263468 0)
(0.0967441 0.000278984 0)
(0.0966167 0.000295672 0)
(0.0964844 0.000313673 0)
(0.0963469 0.000333108 0)
(0.0962039 0.000354015 0)
(0.096055 0.000376273 0)
(0.0959001 0.000399575 0)
(0.101073 1.11763e-05 0)
(0.0992146 0.000162738 0)
(0.100149 0.000199831 0)
(0.0995463 0.000175176 0)
(0.0995404 9.44731e-05 0)
(0.099507 3.99566e-05 0)
(0.0994629 1.71384e-05 0)
(0.099454 1.48565e-05 0)
(0.0994373 2.22572e-05 0)
(0.0994143 3.16054e-05 0)
(0.0993874 3.99734e-05 0)
(0.0993566 4.68352e-05 0)
(0.0993226 5.2426e-05 0)
(0.0992864 5.71509e-05 0)
(0.0992482 6.13624e-05 0)
(0.0992083 6.53136e-05 0)
(0.099167 6.91772e-05 0)
(0.0991242 7.30696e-05 0)
(0.0990799 7.70703e-05 0)
(0.0990342 8.12354e-05 0)
(0.098987 8.56057e-05 0)
(0.0989383 9.02126e-05 0)
(0.0988879 9.50808e-05 0)
(0.0988359 0.000100231 0)
(0.0987822 0.000105683 0)
(0.0987266 0.000111453 0)
(0.0986692 0.00011756 0)
(0.0986098 0.000124021 0)
(0.0985484 0.000130854 0)
(0.0984849 0.000138076 0)
(0.0984192 0.000145709 0)
(0.0983512 0.000153771 0)
(0.0982809 0.000162286 0)
(0.0982082 0.000171277 0)
(0.098133 0.000180769 0)
(0.0980552 0.000190791 0)
(0.0979747 0.000201372 0)
(0.0978914 0.000212545 0)
(0.0978053 0.000224346 0)
(0.0977162 0.000236817 0)
(0.097624 0.00025 0)
(0.0975287 0.000263947 0)
(0.09743 0.000278715 0)
(0.097328 0.000294368 0)
(0.0972223 0.000310983 0)
(0.097113 0.000328647 0)
(0.0969998 0.000347463 0)
(0.0968826 0.000367554 0)
(0.0967612 0.000389066 0)
(0.0966353 0.000412172 0)
(0.0965047 0.000437054 0)
(0.0963692 0.00046387 0)
(0.0962286 0.000492673 0)
(0.0960824 0.000523304 0)
(0.0959307 0.000555368 0)
(0.101072 1.32504e-05 0)
(0.0992207 0.000204043 0)
(0.100168 0.000249663 0)
(0.0995785 0.000222669 0)
(0.0995702 0.000122341 0)
(0.0995333 5.45041e-05 0)
(0.0994826 2.55757e-05 0)
(0.099468 2.20367e-05 0)
(0.0994473 3.07494e-05 0)
(0.0994215 4.20638e-05 0)
(0.099393 5.23024e-05 0)
(0.0993611 6.07746e-05 0)
(0.0993266 6.77344e-05 0)
(0.09929 7.36613e-05 0)
(0.0992517 7.89786e-05 0)
(0.0992118 8.39927e-05 0)
(0.0991705 8.89136e-05 0)
(0.0991278 9.38835e-05 0)
(0.0990837 9.9e-05 0)
(0.0990382 0.000104332 0)
(0.0989912 0.000109931 0)
(0.0989426 0.000115835 0)
(0.0988925 0.000122076 0)
(0.0988408 0.000128679 0)
(0.0987873 0.000135669 0)
(0.098732 0.000143068 0)
(0.0986749 0.000150898 0)
(0.0986158 0.000159181 0)
(0.0985547 0.000167939 0)
(0.0984916 0.000177197 0)
(0.0984263 0.000186979 0)
(0.0983587 0.000197311 0)
(0.0982889 0.000208221 0)
(0.0982167 0.000219739 0)
(0.098142 0.000231897 0)
(0.0980647 0.00024473 0)
(0.0979848 0.000258276 0)
(0.0979022 0.000272577 0)
(0.0978167 0.000287678 0)
(0.0977284 0.000303629 0)
(0.097637 0.000320486 0)
(0.0975425 0.000338311 0)
(0.0974448 0.000357176 0)
(0.0973438 0.000377159 0)
(0.0972393 0.000398354 0)
(0.0971312 0.000420868 0)
(0.0970195 0.000444824 0)
(0.0969038 0.000470372 0)
(0.0967841 0.000497686 0)
(0.0966602 0.000526967 0)
(0.0965319 0.000558433 0)
(0.096399 0.000592268 0)
(0.0962613 0.000628532 0)
(0.0961187 0.00066704 0)
(0.0959709 0.000707329 0)
(0.101072 1.41988e-05 0)
(0.0992286 0.000241443 0)
(0.100192 0.000294068 0)
(0.0996179 0.000268597 0)
(0.099606 0.000151099 0)
(0.0995648 7.14391e-05 0)
(0.099506 3.66048e-05 0)
(0.0994846 3.13059e-05 0)
(0.0994593 4.0728e-05 0)
(0.0994304 5.35012e-05 0)
(0.0993999 6.52432e-05 0)
(0.0993669 7.50812e-05 0)
(0.0993317 8.3252e-05 0)
(0.0992947 9.02782e-05 0)
(0.0992563 9.66336e-05 0)
(0.0992164 0.000102664 0)
(0.0991752 0.00010861 0)
(0.0991326 0.000114632 0)
(0.0990887 0.000120845 0)
(0.0990433 0.000127328 0)
(0.0989966 0.000134141 0)
(0.0989483 0.000141329 0)
(0.0988985 0.000148928 0)
(0.098847 0.00015697 0)
(0.0987939 0.000165483 0)
(0.098739 0.000174495 0)
(0.0986822 0.000184032 0)
(0.0986236 0.000194119 0)
(0.0985629 0.000204785 0)
(0.0985002 0.000216058 0)
(0.0984354 0.000227966 0)
(0.0983684 0.000240542 0)
(0.0982991 0.000253819 0)
(0.0982275 0.000267833 0)
(0.0981534 0.000282623 0)
(0.0980769 0.00029823 0)
(0.0979977 0.0003147 0)
(0.0979159 0.000332081 0)
(0.0978313 0.000350428 0)
(0.0977439 0.0003698 0)
(0.0976535 0.000390263 0)
(0.0975601 0.00041189 0)
(0.0974636 0.000434763 0)
(0.0973638 0.000458975 0)
(0.0972608 0.000484632 0)
(0.0971542 0.000511856 0)
(0.0970441 0.000540789 0)
(0.0969304 0.000571597 0)
(0.0968128 0.000604473 0)
(0.0966913 0.000639641 0)
(0.0965657 0.000677336 0)
(0.0964359 0.000717758 0)
(0.0963018 0.000760968 0)
(0.0961633 0.000806752 0)
(0.0960202 0.000854591 0)
(0.101073 1.42364e-05 0)
(0.0992376 0.000272883 0)
(0.100219 0.000333439 0)
(0.0996623 0.000312239 0)
(0.0996454 0.000181152 0)
(0.0995997 9.11957e-05 0)
(0.099532 5.05727e-05 0)
(0.0995031 4.29575e-05 0)
(0.0994727 5.23842e-05 0)
(0.0994404 6.60345e-05 0)
(0.0994078 7.88665e-05 0)
(0.0993735 8.97952e-05 0)
(0.0993376 9.89986e-05 0)
(0.0993003 0.000107008 0)
(0.0992617 0.000114325 0)
(0.0992218 0.000121319 0)
(0.0991807 0.000128251 0)
(0.0991383 0.000135298 0)
(0.0990945 0.000142584 0)
(0.0990495 0.000150198 0)
(0.099003 0.000158207 0)
(0.0989551 0.000166661 0)
(0.0989056 0.000175602 0)
(0.0988545 0.000185067 0)
(0.0988018 0.000195087 0)
(0.0987473 0.000205693 0)
(0.098691 0.000216916 0)
(0.0986329 0.000228787 0)
(0.0985728 0.000241337 0)
(0.0985106 0.000254599 0)
(0.0984464 0.000268606 0)
(0.09838 0.000283396 0)
(0.0983114 0.000299006 0)
(0.0982405 0.000315479 0)
(0.0981672 0.000332859 0)
(0.0980915 0.000351194 0)
(0.0980132 0.000370536 0)
(0.0979323 0.000390941 0)
(0.0978488 0.000412471 0)
(0.0977624 0.000435192 0)
(0.0976733 0.00045918 0)
(0.0975812 0.000484516 0)
(0.097486 0.000511292 0)
(0.0973878 0.000539612 0)
(0.0972864 0.000569592 0)
(0.0971817 0.000601365 0)
(0.0970736 0.000635083 0)
(0.0969621 0.000670925 0)
(0.096847 0.000709094 0)
(0.0967282 0.000749823 0)
(0.0966058 0.000793354 0)
(0.0964795 0.000839887 0)
(0.0963495 0.000889475 0)
(0.0962155 0.000941872 0)
(0.0960777 0.000996464 0)
(0.0957042 8.54705e-05 -5.46531e-24)
(0.0955313 9.00336e-05 -5.56081e-24)
(0.0953503 9.38777e-05 -3.49607e-26)
(0.0951632 9.66497e-05 1.70458e-23)
(0.0949722 9.81681e-05 -5.64886e-24)
(0.09478 9.84722e-05 -5.79875e-24)
(0.0945886 9.80617e-05 -1.78161e-23)
(0.0943988 9.76554e-05 1.76982e-23)
(0.0942098 9.80381e-05 6.04232e-24)
(0.0940192 9.99252e-05 0)
(0.0938229 0.000103884 6.22528e-24)
(0.0936166 0.000110769 -6.3239e-24)
(0.093396 0.000120109 5.1912e-23)
(0.0931563 0.000131629 -1.11182e-22)
(0.0928936 0.000145022 5.93843e-23)
(0.0926048 0.00015999 4.79962e-23)
(0.0957156 0.00025563 -5.52242e-24)
(0.0955435 0.000269303 -1.1242e-23)
(0.0953634 0.000280849 -5.86855e-24)
(0.0951768 0.000289143 5.49904e-24)
(0.0949859 0.000293607 -5.71993e-24)
(0.0947929 0.000294725 4.09052e-23)
(0.0945998 0.000293741 -6.42395e-23)
(0.0944073 0.000292828 5.95563e-24)
(0.0942144 0.00029458 7.93214e-23)
(0.0940192 0.000301254 -1.09563e-22)
(0.0938185 0.000314351 -1.06717e-22)
(0.0936078 0.000334996 9.40355e-23)
(0.0933823 0.000362818 0)
(0.0931382 0.000397113 6.54372e-24)
(0.0928716 0.000436981 -1.99737e-23)
(0.0925797 0.000481545 -2.26073e-22)
(0.0957382 0.000423832 -3.26997e-23)
(0.0955678 0.000446624 -1.14217e-23)
(0.0953891 0.000466158 4.41919e-23)
(0.0952035 0.000480654 -9.0687e-23)
(0.0950127 0.000489178 1.93924e-22)
(0.0948186 0.000492391 -9.18089e-23)
(0.0946225 0.000492335 1.49073e-26)
(0.0944253 0.000492465 1.18822e-23)
(0.0942263 0.000496891 2.06751e-22)
(0.0940235 0.00050932 -1.94478e-22)
(0.0938139 0.000532271 0)
(0.0935939 0.000566666 1.509e-26)
(0.0933597 0.000612568 0)
(0.0931075 0.000668978 2.24687e-22)
(0.0928341 0.000734477 -1.98053e-22)
(0.0925364 0.000807691 -4.25834e-22)
(0.0957717 0.000588895 2.15583e-23)
(0.095604 0.000620809 -1.09253e-23)
(0.0954279 0.000648683 2.10697e-26)
(0.095244 0.000670278 1.12139e-23)
(0.0950538 0.000684405 -2.15944e-26)
(0.0948583 0.000691603 1.85708e-22)
(0.0946587 0.00069471 -3.50693e-22)
(0.0944554 0.000698193 1.88356e-22)
(0.094248 0.000707204 -1.2036e-23)
(0.094035 0.000726521 2.22006e-22)
(0.0938141 0.000759604 -1.97457e-22)
(0.0935825 0.000807991 -4.08701e-22)
(0.0933372 0.00087165 8.24674e-22)
(0.0930749 0.000949333 -8.39821e-22)
(0.0927928 0.00103926 8.55735e-22)
(0.0924882 0.00113971 -8.58919e-22)
(0.0958159 0.000749671 -1.06938e-23)
(0.0956516 0.000790586 -4.36098e-23)
(0.0954787 0.000826999 1.32091e-22)
(0.0952976 0.000856293 -1.78178e-22)
(0.0951087 0.000877076 7.8435e-23)
(0.0949125 0.000890076 1.14778e-23)
(0.0947096 0.000898557 -1.16548e-23)
(0.0945003 0.000907748 -2.6591e-26)
(0.0942842 0.000923708 1.20337e-23)
(0.0940605 0.000952004 -2.4448e-23)
(0.0938277 0.000996637 -4.01522e-22)
(0.093584 0.00105952 4.14377e-22)
(0.093327 0.00114064 -4.03703e-22)
(0.0930544 0.00123864 4.16751e-22)
(0.0927635 0.00135159 0)
(0.092452 0.00147761 -2.38182e-26)
(0.0958698 0.000905114 -5.30674e-23)
(0.0957096 0.000954817 3.19212e-23)
(0.0955409 0.000999995 1.08986e-23)
(0.0953635 0.00103778 1.67e-22)
(0.0951771 0.00106667 -1.67077e-22)
(0.0949815 0.00108752 1.72393e-22)
(0.0947767 0.00110389 -3.82445e-22)
(0.0945627 0.00112149 5.43656e-22)
(0.0943394 0.00114696 -3.8065e-22)
(0.0941066 0.00118636 -3.93874e-22)
(0.0938635 0.00124406 -1.92614e-23)
(0.0936091 0.00132219 7.98329e-22)
(0.093342 0.00142082 -8.39869e-22)
(0.0930605 0.00153861 3.91506e-22)
(0.0927624 0.00167363 4.21451e-22)
(0.0924457 0.00182406 4.39537e-22)
(0.0959325 0.00105426 1.04584e-23)
(0.0957771 0.00111219 9.61958e-23)
(0.0956135 0.00116598 -8.57825e-23)
(0.0954409 0.00121264 1.09891e-23)
(0.0952584 0.00125065 1.68624e-22)
(0.0950652 0.00128091 -1.68907e-22)
(0.0948609 0.00130714 -3.60901e-22)
(0.0946451 0.00133532 5.87899e-24)
(0.0944178 0.00137233 -6.20767e-24)
(0.0941791 0.0014245 3.99794e-22)
(0.0939291 0.00149635 -3.89541e-22)
(0.0936675 0.00159016 8.26096e-22)
(0.0933936 0.00170612 -4.11377e-22)
(0.0931064 0.00184304 1.32698e-23)
(0.0928043 0.00199913 1.3563e-23)
(0.0924854 0.0021728 8.95758e-22)
(0.0960037 0.00119937 0)
(0.0958543 0.00126385 0)
(0.095697 0.00132487 0)
(0.0955306 0.00137953 0)
(0.095354 0.00142631 0)
(0.0951659 0.00146605 0)
(0.0949651 0.00150231 0)
(0.0947513 0.00154084 0)
(0.0945243 0.00158839 0)
(0.0942846 0.00165117 0)
(0.0940325 0.00173375 0)
(0.0937683 0.00183857 0)
(0.0934922 0.00196609 0)
(0.0932037 0.0021154 0)
(0.0929016 0.00228507 0)
(0.0925847 0.00247377 0)
(0.0960836 0.00134204 0)
(0.0959412 0.00141358 0)
(0.0957916 0.00148278 0)
(0.0956334 0.00154704 0)
(0.0954649 0.00160494 0)
(0.0952845 0.00165716 0)
(0.0950908 0.00170682 0)
(0.094883 0.0017591 0)
(0.094661 0.00182015 0)
(0.0944252 0.00189579 0)
(0.0941764 0.0019905 0)
(0.0939153 0.0021069 0)
(0.0936424 0.00224588 0)
(0.0933579 0.00240705 0)
(0.0930612 0.00258951 0)
(0.0927513 0.00279239 0)
(0.0961685 0.00147767 0)
(0.0960337 0.00155573 0)
(0.0958923 0.00163267 0)
(0.0957429 0.00170626 0)
(0.0955837 0.00177528 0)
(0.0954128 0.00184029 0)
(0.0952287 0.00190398 0)
(0.0950303 0.00197085 0)
(0.0948173 0.00204634 0)
(0.09459 0.00213574 0)
(0.0943495 0.00224328 0)
(0.0940967 0.00237166 0)
(0.0938324 0.00252212 0)
(0.0935571 0.0026948 0)
(0.0932707 0.00288932 0)
(0.0929724 0.00310531 0)
(0.0962571 0.00160609 0)
(0.0961297 0.00168989 0)
(0.0959964 0.00177376 0)
(0.0958559 0.0018559 0)
(0.0957065 0.00193534 0)
(0.0955461 0.00201258 0)
(0.0953731 0.00208993 0)
(0.0951862 0.00217122 0)
(0.0949851 0.00226113 0)
(0.09477 0.00236432 0)
(0.0945418 0.00248468 0)
(0.0943015 0.00262487 0)
(0.0940502 0.00278639 0)
(0.0937884 0.00296982 0)
(0.0935163 0.00317528 0)
(0.0932337 0.00340285 0)
(0.0963483 0.00172758 0)
(0.0962279 0.0018164 0)
(0.0961024 0.0019064 0)
(0.0959705 0.0019962 0)
(0.0958306 0.00208512 0)
(0.0956808 0.00217368 0)
(0.0955194 0.00226383 0)
(0.0953452 0.00235879 0)
(0.0951576 0.00246252 0)
(0.0949568 0.00257903 0)
(0.0947435 0.00271178 0)
(0.0945186 0.00286335 0)
(0.0942832 0.00303538 0)
(0.0940381 0.00322879 0)
(0.0937835 0.00344414 0)
(0.0935195 0.00368192 0)
(0.0964418 0.00184253 0)
(0.096328 0.00193577 0)
(0.0962097 0.00203115 0)
(0.0960858 0.00212772 0)
(0.0959548 0.00222507 0)
(0.0958151 0.00232376 0)
(0.0956651 0.00242549 0)
(0.0955037 0.00253294 0)
(0.0953301 0.00264943 0)
(0.0951445 0.00277836 0)
(0.0949474 0.00292277 0)
(0.0947395 0.00308504 0)
(0.0945219 0.00326689 0)
(0.0942953 0.0034695 0)
(0.0940602 0.00369374 0)
(0.0938169 0.00394043 0)
(0.0965376 0.00195134 0)
(0.09643 0.0020485 0)
(0.0963183 0.00214862 0)
(0.0962018 0.00225111 0)
(0.0960791 0.00235582 0)
(0.0959488 0.00246337 0)
(0.0958097 0.00257527 0)
(0.0956605 0.00269377 0)
(0.0955008 0.00282166 0)
(0.0953303 0.00296178 0)
(0.0951496 0.00311677 0)
(0.0949593 0.00328882 0)
(0.0947602 0.00347962 0)
(0.0945531 0.0036905 0)
(0.0943385 0.00392255 0)
(0.094117 0.00417684 0)
(0.0966357 0.00205432 0)
(0.0965339 0.00215499 0)
(0.0964286 0.00225931 0)
(0.096319 0.00236697 0)
(0.096204 0.00247804 0)
(0.0960826 0.0025932 0)
(0.0959535 0.00271383 0)
(0.095816 0.00284185 0)
(0.0956695 0.00297961 0)
(0.0955137 0.0031295 0)
(0.0953491 0.00329379 0)
(0.0951762 0.00347446 0)
(0.0949957 0.00367313 0)
(0.0948083 0.00389119 0)
(0.0946146 0.00412986 0)
(0.0944152 0.00439038 0)
(0.0967362 0.00215165 0)
(0.0966403 0.00225551 0)
(0.0965411 0.00236356 0)
(0.0964381 0.00247572 0)
(0.0963305 0.00259224 0)
(0.0962174 0.00271386 0)
(0.0960979 0.00284183 0)
(0.0959714 0.00297787 0)
(0.0958373 0.00312395 0)
(0.0956957 0.0032821 0)
(0.0955466 0.00345429 0)
(0.0953906 0.00364228 0)
(0.0952282 0.00384758 0)
(0.0950602 0.0040716 0)
(0.0948873 0.00431561 0)
(0.09471 0.00458092 0)
(0.0968393 0.00224341 0)
(0.0967491 0.00235015 0)
(0.0966559 0.00246151 0)
(0.0965595 0.00257758 0)
(0.0964591 0.00269873 0)
(0.0963541 0.00282575 0)
(0.0962438 0.00295981 0)
(0.0961278 0.00310244 0)
(0.0960057 0.00325534 0)
(0.0958774 0.00342027 0)
(0.0957432 0.00359892 0)
(0.0956034 0.00379284 0)
(0.0954587 0.00400347 0)
(0.0953096 0.00423213 0)
(0.0951569 0.00448012 0)
(0.0950013 0.00474875 0)
(0.0969449 0.00232959 0)
(0.0968604 0.0024389 0)
(0.0967733 0.00255316 0)
(0.0966834 0.00267258 0)
(0.0965902 0.00279762 0)
(0.0964932 0.00292908 0)
(0.096392 0.00306809 0)
(0.0962862 0.00321601 0)
(0.0961756 0.00337434 0)
(0.0960602 0.00354462 0)
(0.0959402 0.00372832 0)
(0.095816 0.00392682 0)
(0.0956882 0.00414142 0)
(0.0955573 0.00437338 0)
(0.0954243 0.00462396 0)
(0.0952896 0.00489446 0)
(0.0970527 0.00241013 0)
(0.096974 0.00252168 0)
(0.0968932 0.00263844 0)
(0.0968099 0.00276068 0)
(0.096724 0.00288892 0)
(0.096635 0.00302396 0)
(0.0965427 0.00316687 0)
(0.0964468 0.0033189 0)
(0.0963474 0.00348139 0)
(0.0962443 0.0036557 0)
(0.096138 0.00384311 0)
(0.0960288 0.00404486 0)
(0.0959172 0.00426212 0)
(0.095804 0.00449606 0)
(0.0956897 0.00474788 0)
(0.0955753 0.0050188 0)
(0.0971625 0.00248494 0)
(0.0970898 0.00259841 0)
(0.0970152 0.00271725 0)
(0.0969387 0.00284178 0)
(0.0968601 0.00297257 0)
(0.0967791 0.00311039 0)
(0.0966957 0.00325626 0)
(0.0966096 0.00341135 0)
(0.096521 0.00357686 0)
(0.09643 0.00375398 0)
(0.0963368 0.00394387 0)
(0.096242 0.00414761 0)
(0.096146 0.00436628 0)
(0.0960495 0.00460093 0)
(0.0959533 0.00485267 0)
(0.0958582 0.00512266 0)
(0.0972741 0.00255397 0)
(0.0972073 0.00266899 0)
(0.0971391 0.00278948 0)
(0.0970695 0.00291581 0)
(0.0969982 0.00304852 0)
(0.0969253 0.00318839 0)
(0.0968506 0.00333638 0)
(0.0967742 0.00349357 0)
(0.0966962 0.00366105 0)
(0.0966168 0.0038399 0)
(0.0965363 0.00403113 0)
(0.0964553 0.00423571 0)
(0.0963742 0.00445461 0)
(0.0962937 0.00468878 0)
(0.0962147 0.00493922 0)
(0.096138 0.00520701 0)
(0.097387 0.00261717 0)
(0.0973263 0.00273337 0)
(0.0972645 0.0028551 0)
(0.0972017 0.00298272 0)
(0.0971378 0.00311677 0)
(0.0970728 0.00325801 0)
(0.0970069 0.00340735 0)
(0.0969399 0.00356577 0)
(0.0968722 0.00373429 0)
(0.0968041 0.00391387 0)
(0.0967358 0.00410542 0)
(0.0966679 0.00430979 0)
(0.0966011 0.00452784 0)
(0.0965359 0.00476043 0)
(0.0964731 0.00500846 0)
(0.0964138 0.00527288 0)
(0.097501 0.00267452 0)
(0.0974462 0.00279154 0)
(0.0973908 0.00291408 0)
(0.0973348 0.00304251 0)
(0.0972783 0.00317735 0)
(0.0972212 0.00331933 0)
(0.0971638 0.0034693 0)
(0.0971061 0.00362819 0)
(0.0970485 0.00379691 0)
(0.0969912 0.00397634 0)
(0.0969346 0.00416728 0)
(0.0968793 0.00437049 0)
(0.096826 0.00458672 0)
(0.0967752 0.00481674 0)
(0.0967279 0.00506133 0)
(0.0966849 0.00532134 0)
(0.0976156 0.00272606 0)
(0.0975668 0.00284352 0)
(0.0975177 0.00296647 0)
(0.0974685 0.00309525 0)
(0.0974192 0.00323036 0)
(0.0973699 0.0033725 0)
(0.0973209 0.00352246 0)
(0.0972722 0.00368111 0)
(0.0972242 0.00384928 0)
(0.0971773 0.00402776 0)
(0.097132 0.00421727 0)
(0.0970887 0.00441847 0)
(0.0970481 0.00463201 0)
(0.0970109 0.00485856 0)
(0.0969781 0.00509881 0)
(0.0969504 0.00535349 0)
(0.0977305 0.00277183 0)
(0.0976876 0.00288939 0)
(0.0976448 0.00301235 0)
(0.0976022 0.00314103 0)
(0.09756 0.00327593 0)
(0.0975183 0.00341769 0)
(0.0974774 0.00356706 0)
(0.0974374 0.00372484 0)
(0.0973987 0.00389179 0)
(0.0973618 0.00406862 0)
(0.0973271 0.00425596 0)
(0.0972952 0.00445439 0)
(0.0972666 0.00466448 0)
(0.0972423 0.00488678 0)
(0.0972229 0.0051219 0)
(0.0972095 0.00537045 0)
(0.0978454 0.00281193 0)
(0.0978082 0.00292924 0)
(0.0977715 0.00305184 0)
(0.0977355 0.00318002 0)
(0.0977002 0.00331426 0)
(0.0976659 0.00345515 0)
(0.0976328 0.0036034 0)
(0.0976012 0.00375974 0)
(0.0975714 0.00392487 0)
(0.097544 0.00409942 0)
(0.0975194 0.00428395 0)
(0.0974981 0.00447896 0)
(0.0974809 0.00468491 0)
(0.0974685 0.00490229 0)
(0.0974618 0.00513159 0)
(0.0974616 0.00537334 0)
(0.0979599 0.00284647 0)
(0.0979284 0.00296322 0)
(0.0978977 0.00308509 0)
(0.0978679 0.00321239 0)
(0.0978394 0.00334555 0)
(0.0978121 0.00348513 0)
(0.0977866 0.00363178 0)
(0.097763 0.00378618 0)
(0.0977417 0.00394897 0)
(0.0977233 0.0041207 0)
(0.0977082 0.00430185 0)
(0.097697 0.00449285 0)
(0.0976904 0.00469409 0)
(0.0976891 0.00490597 0)
(0.097694 0.00512888 0)
(0.097706 0.00536326 0)
(0.0980738 0.0028756 0)
(0.0980478 0.00299147 0)
(0.0980229 0.0031123 0)
(0.0979992 0.00323837 0)
(0.0979771 0.00337008 0)
(0.0979567 0.00350794 0)
(0.0979383 0.00365257 0)
(0.0979223 0.00380459 0)
(0.0979091 0.00396456 0)
(0.0978992 0.00413298 0)
(0.097893 0.00431027 0)
(0.0978912 0.00449678 0)
(0.0978945 0.00469282 0)
(0.0979035 0.00489871 0)
(0.0979191 0.00511476 0)
(0.0979422 0.00534132 0)
(0.0981868 0.00289947 0)
(0.098166 0.00301418 0)
(0.0981467 0.00313367 0)
(0.0981289 0.00325819 0)
(0.098113 0.0033881 0)
(0.0980991 0.0035239 0)
(0.0980876 0.00366613 0)
(0.0980788 0.00381537 0)
(0.0980732 0.00397213 0)
(0.0980712 0.00413683 0)
(0.0980734 0.00430984 0)
(0.0980803 0.00449144 0)
(0.0980927 0.00468187 0)
(0.0981112 0.00488137 0)
(0.0981366 0.00509019 0)
(0.0981698 0.00530858 0)
(0.0982986 0.00291826 0)
(0.0982829 0.00303156 0)
(0.0982689 0.00314944 0)
(0.0982568 0.00327212 0)
(0.0982467 0.00339993 0)
(0.098239 0.00353334 0)
(0.098234 0.00367284 0)
(0.098232 0.00381896 0)
(0.0982336 0.00397216 0)
(0.098239 0.0041328 0)
(0.098249 0.00430118 0)
(0.098264 0.00447752 0)
(0.0982847 0.00466201 0)
(0.0983119 0.00485482 0)
(0.0983462 0.00505611 0)
(0.0983887 0.00526606 0)
(0.0984089 0.00293218 0)
(0.0983981 0.00304383 0)
(0.0983893 0.00315984 0)
(0.0983825 0.00328042 0)
(0.098378 0.00340587 0)
(0.0983762 0.00353661 0)
(0.0983773 0.0036731 0)
(0.0983817 0.00381581 0)
(0.0983899 0.00396515 0)
(0.0984023 0.00412144 0)
(0.0984194 0.0042849 0)
(0.0984419 0.00445572 0)
(0.0984703 0.004634 0)
(0.0985053 0.00481987 0)
(0.0985478 0.00501343 0)
(0.0985985 0.00521477 0)
(0.0985176 0.00294142 0)
(0.0985115 0.00305121 0)
(0.0985075 0.00316514 0)
(0.0985058 0.00328339 0)
(0.0985066 0.00340624 0)
(0.0985103 0.00353407 0)
(0.0985171 0.0036673 0)
(0.0985276 0.00380636 0)
(0.0985419 0.0039516 0)
(0.0985607 0.00410329 0)
(0.0985845 0.00426161 0)
(0.0986138 0.00442668 0)
(0.0986492 0.00459857 0)
(0.0986914 0.00477733 0)
(0.0987411 0.00496302 0)
(0.0987991 0.00515565 0)
(0.0986244 0.00294619 0)
(0.0986228 0.00305393 0)
(0.0986234 0.00316559 0)
(0.0986265 0.00328131 0)
(0.0986323 0.00340136 0)
(0.0986411 0.00352607 0)
(0.0986534 0.00365585 0)
(0.0986693 0.00379105 0)
(0.0986894 0.00393199 0)
(0.0987141 0.00407889 0)
(0.098744 0.00423189 0)
(0.0987795 0.00439106 0)
(0.0988212 0.00455642 0)
(0.0988698 0.00472797 0)
(0.098926 0.0049057 0)
(0.0989906 0.0050896 0)
(0.0987292 0.00294673 0)
(0.0987318 0.00305226 0)
(0.0987368 0.00316146 0)
(0.0987444 0.00327449 0)
(0.0987549 0.00339156 0)
(0.0987686 0.00351299 0)
(0.0987858 0.00363913 0)
(0.0988069 0.00377031 0)
(0.0988323 0.00390679 0)
(0.0988624 0.00404877 0)
(0.0988977 0.00419632 0)
(0.0989388 0.00434948 0)
(0.0989863 0.00450822 0)
(0.0990407 0.00467251 0)
(0.0991026 0.00484228 0)
(0.0991729 0.00501746 0)
(0.0988319 0.00294325 0)
(0.0988384 0.00304642 0)
(0.0988475 0.00315303 0)
(0.0988593 0.00326321 0)
(0.0988742 0.00337716 0)
(0.0988924 0.00349516 0)
(0.0989142 0.00361754 0)
(0.0989401 0.00374457 0)
(0.0989703 0.00387649 0)
(0.0990053 0.00401343 0)
(0.0990457 0.00415545 0)
(0.0990919 0.00430253 0)
(0.0991444 0.00445462 0)
(0.0992039 0.00461164 0)
(0.0992709 0.00477348 0)
(0.0993461 0.00494004 0)
(0.0989322 0.00293598 0)
(0.0989425 0.00303666 0)
(0.0989554 0.00314056 0)
(0.0989712 0.00324778 0)
(0.0989901 0.00335849 0)
(0.0990125 0.00347296 0)
(0.0990386 0.00359146 0)
(0.0990688 0.00371424 0)
(0.0991034 0.00384151 0)
(0.0991429 0.00397336 0)
(0.0991878 0.0041098 0)
(0.0992385 0.00425079 0)
(0.0992956 0.00439624 0)
(0.0993595 0.00454603 0)
(0.0994309 0.00470002 0)
(0.0995105 0.00485807 0)
(0.0990301 0.00292514 0)
(0.0990439 0.00302324 0)
(0.0990604 0.00312433 0)
(0.0990798 0.00322848 0)
(0.0991025 0.00333586 0)
(0.0991287 0.00344671 0)
(0.0991588 0.00356126 0)
(0.0991929 0.00367974 0)
(0.0992316 0.00380231 0)
(0.0992751 0.00392903 0)
(0.0993241 0.00405988 0)
(0.0993788 0.00419479 0)
(0.0994398 0.00433364 0)
(0.0995077 0.00447628 0)
(0.0995829 0.00462255 0)
(0.099666 0.00477226 0)
(0.101074 1.49306e-05 0)
(0.099247 0.000294756 0)
(0.100247 0.000371678 0)
(0.0997093 0.000352827 0)
(0.0996864 0.000213772 0)
(0.0996364 0.000114595 0)
(0.0995594 6.79519e-05 0)
(0.0995227 5.74825e-05 0)
(0.0994871 6.6131e-05 0)
(0.0994512 8.00408e-05 0)
(0.0994164 9.35484e-05 0)
(0.0993808 0.000105297 0)
(0.0993442 0.000115363 0)
(0.0993065 0.000124253 0)
(0.0992677 0.000132469 0)
(0.0992279 0.000140391 0)
(0.0991869 0.00014829 0)
(0.0991447 0.000156352 0)
(0.0991012 0.000164711 0)
(0.0990565 0.00017346 0)
(0.0990104 0.000182673 0)
(0.0989628 0.000192404 0)
(0.0989138 0.0002027 0)
(0.0988632 0.000213601 0)
(0.0988109 0.000225142 0)
(0.098757 0.000237359 0)
(0.0987012 0.000250286 0)
(0.0986437 0.000263957 0)
(0.0985842 0.000278408 0)
(0.0985227 0.000293675 0)
(0.0984592 0.000309798 0)
(0.0983936 0.000326817 0)
(0.0983258 0.000344776 0)
(0.0982557 0.000363722 0)
(0.0981833 0.000383705 0)
(0.0981086 0.000404778 0)
(0.0980313 0.000427 0)
(0.0979516 0.000450433 0)
(0.0978693 0.000475145 0)
(0.0977842 0.000501211 0)
(0.0976965 0.000528712 0)
(0.0976059 0.000557738 0)
(0.0975124 0.000588389 0)
(0.097416 0.000620775 0)
(0.0973165 0.00065502 0)
(0.097214 0.000691264 0)
(0.0971082 0.000729666 0)
(0.0969993 0.000770408 0)
(0.096887 0.000813697 0)
(0.0967714 0.000859763 0)
(0.0966525 0.000908844 0)
(0.0965302 0.00096113 0)
(0.0964046 0.00101666 0)
(0.0962756 0.00107516 0)
(0.0961434 0.00113587 0)
(0.101074 1.63785e-05 0)
(0.0992558 0.000306224 0)
(0.100274 0.000408642 0)
(0.099754 0.000390038 0)
(0.099726 0.000248986 0)
(0.0996721 0.000141841 0)
(0.0995863 8.89385e-05 0)
(0.0995422 7.50615e-05 0)
(0.0995015 8.21086e-05 0)
(0.0994622 9.56159e-05 0)
(0.0994252 0.000109351 0)
(0.0993883 0.000121622 0)
(0.099351 0.000132363 0)
(0.0993129 0.000142015 0)
(0.0992741 0.000151057 0)
(0.0992343 0.000159863 0)
(0.0991934 0.000168702 0)
(0.0991515 0.000177766 0)
(0.0991084 0.00018719 0)
(0.099064 0.000197074 0)
(0.0990183 0.000207493 0)
(0.0989712 0.000218508 0)
(0.0989227 0.000230166 0)
(0.0988726 0.000242511 0)
(0.0988209 0.000255584 0)
(0.0987675 0.000269421 0)
(0.0987124 0.000284062 0)
(0.0986555 0.000299543 0)
(0.0985968 0.000315905 0)
(0.0985361 0.000333187 0)
(0.0984734 0.000351433 0)
(0.0984087 0.000370689 0)
(0.0983418 0.000391002 0)
(0.0982727 0.000412423 0)
(0.0982014 0.000435008 0)
(0.0981278 0.000458816 0)
(0.0980518 0.00048391 0)
(0.0979734 0.000510359 0)
(0.0978925 0.000538236 0)
(0.097809 0.000567621 0)
(0.0977228 0.000598603 0)
(0.097634 0.000631275 0)
(0.0975425 0.000665744 0)
(0.0974481 0.000702125 0)
(0.0973509 0.000740545 0)
(0.0972508 0.000781149 0)
(0.0971477 0.000824095 0)
(0.0970416 0.000869563 0)
(0.0969326 0.000917754 0)
(0.0968205 0.000968888 0)
(0.0967055 0.00102319 0)
(0.0965875 0.00108082 0)
(0.0964667 0.00114182 0)
(0.0963431 0.00120592 0)
(0.0962168 0.00127238 0)
(0.101075 1.69391e-05 0)
(0.0992628 0.000311723 0)
(0.100296 0.000440358 0)
(0.0997913 0.000424825 0)
(0.0997601 0.000285232 0)
(0.0997032 0.000171821 0)
(0.0996102 0.00011283 0)
(0.0995599 9.50445e-05 0)
(0.0995149 9.98175e-05 0)
(0.0994724 0.00011234 0)
(0.0994335 0.000125878 0)
(0.0993954 0.000138378 0)
(0.0993574 0.000149595 0)
(0.0993191 0.000159876 0)
(0.0992802 0.000169651 0)
(0.0992405 0.000179273 0)
(0.0991999 0.000189002 0)
(0.0991582 0.000199026 0)