/*--------------------------------*- C++ -*----------------------------------*\
| =========                 |                                                 |
| \\      /  F ield         | OpenFOAM: The Open Source CFD Toolbox           |
|  \\    /   O peration     | Version:  2412                                  |
|   \\  /    A nd           | Website:  www.openfoam.com                      |
|    \\/     M anipulation  |                                                 |
\*---------------------------------------------------------------------------*/
FoamFile
{
    version     2.0;
    format      ascii;
    arch        "LSB;label=32;scalar=64";
    class       volScalarField;
    location    "28.5";
    object      p;
}
// * * * * * * * * * * * * * * * * * * * * * * * * * * * * * * * * * * * * * //

dimensions      [0 2 -2 0 0 0 0];

internalField   nonuniform List<scalar> 
63420
(
0.000909984
0.000910247
0.000911082
0.000912373
0.000914101
0.000916254
0.000918814
0.000921767
0.000925103
0.000928811
0.000932882
0.00093731
0.000942088
0.00094721
0.000952673
0.000958472
0.000964606
0.00097107
0.000977862
0.000984981
0.000992425
0.00100019
0.00100828
0.0010167
0.00102544
0.0010345
0.0010439
0.00105362
0.00106367
0.00107407
0.0010848
0.00109587
0.0011073
0.00111907
0.0011312
0.00114368
0.00115653
0.00116974
0.00118332
0.00119728
0.00121162
0.00122633
0.00124144
0.00125693
0.00127281
0.0012891
0.00130578
0.00132287
0.00134038
0.00135829
0.00137663
0.00139539
0.00141457
0.00143419
0.00145425
0.000909923
0.000910186
0.000911021
0.00091231
0.000914038
0.000916189
0.000918747
0.000921698
0.000925032
0.000928737
0.000932805
0.000937229
0.000942003
0.000947122
0.00095258
0.000958375
0.000964503
0.000970961
0.000977748
0.00098486
0.000992297
0.00100006
0.00100814
0.00101655
0.00102528
0.00103433
0.00104372
0.00105343
0.00106347
0.00107385
0.00108457
0.00109563
0.00110704
0.0011188
0.00113091
0.00114338
0.00115621
0.0011694
0.00118296
0.0011969
0.00121121
0.0012259
0.00124098
0.00125645
0.0012723
0.00128856
0.00130521
0.00132227
0.00133973
0.00135761
0.0013759
0.00139462
0.00141376
0.00143333
0.00145333
0.000909802
0.000910065
0.000910899
0.000912186
0.000913911
0.000916059
0.000918613
0.000921561
0.000924889
0.000928589
0.000932651
0.000937068
0.000941835
0.000946945
0.000952394
0.00095818
0.000964297
0.000970745
0.000977519
0.000984619
0.000992042
0.000999788
0.00100786
0.00101625
0.00102496
0.001034
0.00104336
0.00105305
0.00106307
0.00107343
0.00108412
0.00109516
0.00110654
0.00111826
0.00113034
0.00114277
0.00115557
0.00116872
0.00118224
0.00119614
0.0012104
0.00122505
0.00124007
0.00125548
0.00127128
0.00128747
0.00130406
0.00132105
0.00133844
0.00135624
0.00137446
0.00139308
0.00141213
0.0014316
0.0014515
0.000909621
0.000909883
0.000910715
0.000912
0.000913721
0.000915864
0.000918413
0.000921354
0.000924675
0.000928367
0.00093242
0.000936827
0.000941582
0.00094668
0.000952116
0.000957887
0.00096399
0.00097042
0.000977177
0.000984257
0.00099166
0.000999384
0.00100743
0.00101579
0.00102448
0.00103349
0.00104282
0.00105248
0.00106247
0.00107279
0.00108345
0.00109444
0.00110578
0.00111746
0.00112949
0.00114187
0.00115461
0.00116771
0.00118117
0.00119499
0.00120919
0.00122376
0.00123871
0.00125404
0.00126975
0.00128585
0.00130235
0.00131923
0.00133652
0.0013542
0.00137229
0.00139079
0.0014097
0.00142903
0.00144877
0.000909379
0.000909641
0.00091047
0.000911751
0.000913468
0.000915605
0.000918147
0.000921079
0.00092439
0.000928071
0.000932111
0.000936505
0.000941245
0.000946327
0.000951746
0.000957498
0.00096358
0.000969988
0.000976721
0.000983776
0.000991152
0.000998847
0.00100686
0.00101519
0.00102384
0.00103281
0.00104211
0.00105172
0.00106167
0.00107194
0.00108255
0.00109349
0.00110477
0.00111639
0.00112835
0.00114067
0.00115333
0.00116636
0.00117974
0.00119348
0.00120758
0.00122206
0.0012369
0.00125213
0.00126772
0.0012837
0.00130007
0.00131682
0.00133396
0.00135149
0.00136942
0.00138775
0.00140648
0.00142561
0.00144514
0.000909078
0.000909338
0.000910165
0.000911441
0.000913151
0.000915281
0.000917814
0.000920735
0.000924035
0.000927701
0.000931727
0.000936103
0.000940825
0.000945887
0.000951284
0.000957012
0.000963068
0.000969449
0.000976152
0.000983176
0.000990517
0.000998176
0.00100615
0.00101444
0.00102305
0.00103197
0.00104122
0.00105078
0.00106067
0.00107088
0.00108142
0.0010923
0.00110351
0.00111505
0.00112694
0.00113917
0.00115175
0.00116467
0.00117795
0.00119159
0.00120558
0.00121994
0.00123465
0.00124974
0.0012652
0.00128103
0.00129723
0.00131381
0.00133078
0.00134812
0.00136585
0.00138397
0.00140247
0.00142136
0.00144064
0.000908716
0.000908976
0.000909798
0.00091107
0.000912773
0.000914893
0.000917415
0.000920324
0.000923608
0.000927259
0.000931266
0.000935622
0.000940322
0.00094536
0.00095073
0.00095643
0.000962455
0.000968803
0.000975471
0.000982457
0.000989758
0.000997373
0.0010053
0.00101354
0.0010221
0.00103097
0.00104015
0.00104965
0.00105947
0.00106962
0.00108008
0.00109088
0.001102
0.00111346
0.00112525
0.00113738
0.00114985
0.00116266
0.00117582
0.00118933
0.00120319
0.0012174
0.00123197
0.0012469
0.00126219
0.00127784
0.00129385
0.00131024
0.00132699
0.00134411
0.0013616
0.00137947
0.00139771
0.00141632
0.00143529
0.0014748
0.00149607
0.00151825
0.00154137
0.00156551
0.00159072
0.00161706
0.0016446
0.00167343
0.00170362
0.00173525
0.00176842
0.00180324
0.00183981
0.00187826
0.00191872
0.00196132
0.00200624
0.00205364
0.00210369
0.00215662
0.00221265
0.00227201
0.00233499
0.00240187
0.002473
0.00254872
0.00262944
0.0027156
0.00280768
0.0029062
0.00301176
0.00312498
0.00324655
0.0033772
0.0035177
0.00366883
0.00383132
0.0040058
0.00419265
0.00439181
0.00460255
0.00482312
0.00505062
0.00528131
0.0055115
0.00573786
0.00596698
0.00626316
0.00671431
0.00147386
0.00149513
0.0015173
0.00154043
0.00156456
0.00158977
0.00161611
0.00164365
0.00167247
0.00170265
0.00173428
0.00176744
0.00180225
0.00183881
0.00187724
0.00191768
0.00196027
0.00200515
0.00205251
0.00210252
0.00215539
0.00221135
0.00227063
0.00233349
0.00240025
0.00247121
0.00254673
0.0026272
0.00271304
0.00280472
0.00290275
0.00300768
0.00312012
0.00324069
0.00337007
0.00350893
0.00365796
0.00381773
0.00398867
0.0041709
0.00436404
0.00456691
0.00477721
0.00499137
0.00520479
0.00541292
0.00561193
0.00580755
0.00605991
0.00644996
0.00147198
0.00149325
0.00151541
0.00153853
0.00156266
0.00158786
0.0016142
0.00164173
0.00167055
0.00170072
0.00173233
0.00176548
0.00180027
0.00183681
0.00187521
0.00191561
0.00195815
0.00200298
0.00205026
0.00210018
0.00215294
0.00220876
0.00226787
0.00233052
0.00239702
0.00246765
0.00254277
0.00262274
0.00270796
0.00279887
0.00289593
0.00299964
0.00311052
0.00322913
0.00335599
0.00349164
0.0036365
0.00379088
0.00395479
0.00412785
0.00430896
0.00449605
0.00468571
0.00487296
0.00505152
0.00521506
0.00535894
0.0054874
0.00564817
0.00592839
0.00146916
0.00149042
0.00151258
0.00153569
0.00155981
0.001585
0.00161133
0.00163885
0.00166765
0.0016978
0.00172939
0.00176252
0.00179727
0.00183377
0.00187212
0.00191246
0.00195492
0.00199966
0.00204683
0.00209661
0.00214919
0.00220479
0.00226363
0.00232596
0.00239204
0.00246218
0.00253668
0.00261588
0.00270015
0.00278987
0.00288545
0.0029873
0.00309583
0.00321146
0.00333454
0.00346534
0.00360396
0.00375026
0.00390368
0.00406304
0.00422622
0.00438982
0.00454871
0.00469586
0.00482247
0.00491941
0.00498076
0.00501188
0.00504526
0.00513211
0.00146542
0.00148668
0.00150883
0.00153194
0.00155605
0.00158123
0.00160754
0.00163506
0.00166384
0.00169398
0.00172555
0.00175865
0.00179337
0.00182982
0.00186812
0.00190839
0.00195076
0.00199538
0.00204241
0.00209201
0.00214438
0.0021997
0.0022582
0.00232011
0.00238567
0.00245515
0.00252883
0.00260702
0.00269003
0.00277817
0.00287176
0.00297111
0.00307649
0.0031881
0.00330606
0.00343029
0.00356045
0.0036958
0.00383498
0.00397578
0.00411471
0.00424662
0.00436419
0.0044577
0.00451522
0.00452397
0.00447539
0.00437766
0.00425216
0.00404029
0.00146078
0.00148204
0.0015042
0.00152732
0.00155145
0.00157665
0.00160299
0.00163053
0.00165935
0.00168952
0.00172113
0.00175426
0.00178902
0.00182551
0.00186383
0.00190413
0.00194652
0.00199114
0.00203816
0.00208773
0.00214003
0.00219525
0.00225359
0.00231528
0.00238054
0.00244961
0.00252274
0.0026002
0.00268224
0.0027691
0.00286102
0.00295817
0.00306065
0.00316843
0.00328129
0.00339869
0.00351966
0.00364256
0.00376481
0.0038825
0.00398991
0.00407896
0.00413872
0.00415516
0.00411152
0.0039901
0.00377801
0.00348425
0.00312193
0.00250741
0.00145522
0.00147641
0.00149852
0.00152159
0.00154567
0.00157083
0.00159713
0.00162462
0.0016534
0.00168352
0.00171508
0.00174817
0.00178288
0.00181932
0.00185759
0.00189782
0.00194014
0.00198468
0.0020316
0.00208104
0.00213319
0.00218823
0.00224635
0.00230774
0.00237264
0.00244124
0.00251378
0.00259048
0.00267154
0.00275714
0.00284743
0.00294244
0.00304211
0.00314618
0.00325408
0.00336477
0.00347656
0.00358675
0.00369122
0.00378383
0.00385579
0.00389489
0.00388497
0.00380593
0.0036346
0.00334615
0.00292443
0.00238239
0.00168328
0.000543063
-0.00346921
-0.00353381
-0.00355625
-0.00354928
-0.00352392
-0.00348308
-0.00342853
-0.00336185
-0.0032844
-0.00319904
-0.00310515
-0.00300396
-0.00289656
-0.00278383
-0.00266659
-0.00254559
-0.00242156
-0.00229533
-0.00216764
-0.00203924
-0.00191082
-0.00178303
-0.00165655
-0.00153201
-0.00141001
-0.00129104
-0.00117556
-0.00106399
-0.000956717
-0.000854059
-0.000756279
-0.000663589
-0.000576145
-0.000494051
-0.00041736
-0.00034608
-0.000280173
-0.000219561
-0.000164127
-0.000113725
-6.81784e-05
-2.72862e-05
9.17163e-06
4.14309e-05
6.97385e-05
9.4349e-05
0.00011552
0.000133509
0.000148567
0.000160947
-0.00353503
-0.00358024
-0.00359094
-0.00357684
-0.00354661
-0.00350245
-0.00344574
-0.00337772
-0.00329989
-0.0032137
-0.00311947
-0.00301818
-0.00291077
-0.00279815
-0.00268097
-0.00256006
-0.00243607
-0.0023098
-0.00218206
-0.00205356
-0.00192499
-0.00179701
-0.00167026
-0.00154542
-0.00142308
-0.00130373
-0.00118783
-0.00107582
-0.000968081
-0.000864938
-0.000766663
-0.000673469
-0.000585518
-0.000502917
-0.000425725
-0.000353952
-0.000287562
-0.000226481
-0.000170593
-0.000119754
-7.37887e-05
-3.24968e-05
4.34131e-06
3.69611e-05
6.56098e-05
9.05425e-05
0.000112018
0.000130293
0.000145621
0.000158261
-0.00366607
-0.00367204
-0.00365931
-0.00363106
-0.00359097
-0.00354011
-0.00347901
-0.00340814
-0.00332917
-0.00324169
-0.0031469
-0.00304541
-0.00293812
-0.0028259
-0.0027083
-0.0025878
-0.00246395
-0.00233771
-0.00220991
-0.00208126
-0.00195243
-0.00182409
-0.00169688
-0.00157147
-0.00144847
-0.00132841
-0.00121173
-0.00109887
-0.000990242
-0.000886171
-0.000786941
-0.000692775
-0.000603844
-0.000520264
-0.000442101
-0.00036937
-0.000302043
-0.000240049
-0.000183278
-0.000131588
-8.48064e-05
-4.2735e-05
-5.15508e-06
2.81684e-05
5.74831e-05
8.30448e-05
0.000105114
0.00012395
0.000139807
0.000152958
-0.00386827
-0.00380305
-0.00375929
-0.00370971
-0.00365466
-0.00359389
-0.00352621
-0.00345053
-0.0033699
-0.00328096
-0.00318559
-0.00308352
-0.00297634
-0.00286422
-0.00274751
-0.00262704
-0.00250335
-0.00237723
-0.00224942
-0.0021206
-0.00199147
-0.00186268
-0.00173485
-0.00160867
-0.00148479
-0.00136373
-0.00124597
-0.00113194
-0.00102206
-0.000916689
-0.000816115
-0.000720579
-0.000630262
-0.000545295
-0.000465751
-0.000391659
-0.000322996
-0.0002597
-0.000201667
-0.00014876
-0.00010081
-5.76212e-05
-1.89772e-05
1.53564e-05
4.56273e-05
7.20926e-05
9.50151e-05
0.000114657
0.000131276
0.000145168
-0.00412526
-0.00397447
-0.00388895
-0.00380849
-0.00373335
-0.00365971
-0.00358308
-0.00349989
-0.00341819
-0.00332776
-0.0032315
-0.00312966
-0.00302261
-0.00291071
-0.00279446
-0.00267438
-0.00255109
-0.00242527
-0.00229758
-0.00216871
-0.00203935
-0.00191014
-0.00178172
-0.00165473
-0.00152987
-0.00140771
-0.0012887
-0.00117332
-0.00106198
-0.000955066
-0.000852891
-0.000755708
-0.000663716
-0.000577059
-0.000495827
-0.000420059
-0.000349745
-0.000284832
-0.000225225
-0.000170794
-0.000121374
-7.67761e-05
-3.67855e-05
-1.17001e-06
3.03176e-05
5.79349e-05
8.19465e-05
0.000102618
0.000120217
0.000135064
-0.00439663
-0.00418757
-0.00405075
-0.00393265
-0.00383019
-0.00373705
-0.00364817
-0.00356483
-0.00347125
-0.00337669
-0.00327902
-0.00317686
-0.00307011
-0.00295894
-0.00284361
-0.00272455
-0.00260225
-0.00247729
-0.00235029
-0.00222189
-0.00209277
-0.00196357
-0.00183491
-0.00170743
-0.00158182
-0.00145869
-0.00133855
-0.00122185
-0.00110904
-0.00100053
-0.000896654
-0.000797682
-0.000703838
-0.000615284
-0.000532131
-0.000454435
-0.000382201
-0.00031539
-0.000253919
-0.000197669
-0.000146484
-0.000100182
-5.85527e-05
-2.13689e-05
1.16141e-05
4.06527e-05
6.60117e-05
8.79594e-05
0.00010678
0.00012281
-0.00465788
-0.00445649
-0.00427052
-0.0041051
-0.00396498
-0.00384173
-0.00373236
-0.00363454
-0.00353564
-0.00343707
-0.00333668
-0.00323325
-0.00312629
-0.00301554
-0.00290101
-0.00278289
-0.00266153
-0.00253741
-0.00241106
-0.00228307
-0.0021541
-0.00202477
-0.00189572
-0.00176755
-0.00164097
-0.00151661
-0.00139502
-0.0012767
-0.0011621
-0.00105167
-0.000945758
-0.00084467
-0.000748653
-0.000657893
-0.000572522
-0.000492616
-0.000418198
-0.000349245
-0.000285686
-0.000227413
-0.000174279
-0.000126109
-8.26991e-05
-4.38243e-05
-9.24226e-06
2.13024e-05
4.80748e-05
7.13454e-05
9.14092e-05
0.000108604
0.000170907
0.000178637
0.000184447
0.000188526
0.000191013
0.000192049
0.000191776
0.000190334
0.000187859
0.000184485
0.00018034
0.000175548
0.000170226
0.000164483
0.00015842
0.000152129
0.000145691
0.000139181
0.000132662
0.000126188
0.000119806
0.000113552
0.000107459
0.000101548
9.58389e-05
9.03438e-05
8.50711e-05
8.00257e-05
7.52091e-05
7.06205e-05
6.62572e-05
6.21149e-05
5.81882e-05
5.4471e-05
5.09564e-05
4.76375e-05
4.4507e-05
4.15574e-05
3.87812e-05
3.6171e-05
3.37194e-05
3.14182e-05
2.92617e-05
2.72377e-05
2.53446e-05
2.35774e-05
2.19185e-05
2.03682e-05
1.89201e-05
1.7567e-05
1.63031e-05
1.5123e-05
1.40215e-05
1.29937e-05
1.20351e-05
1.11413e-05
1.03082e-05
9.53211e-06
8.80931e-06
8.13646e-06
7.51034e-06
6.92797e-06
6.38652e-06
5.88335e-06
5.41596e-06
4.98202e-06
4.57935e-06
4.20588e-06
3.85971e-06
3.539e-06
3.24208e-06
2.96735e-06
2.71334e-06
2.47863e-06
2.26196e-06
2.06206e-06
1.87787e-06
1.70821e-06
1.55229e-06
1.40882e-06
1.27754e-06
1.15656e-06
1.0469e-06
9.44848e-07
8.54551e-07
7.67722e-07
6.95663e-07
6.19619e-07
5.66374e-07
4.95256e-07
4.63728e-07
3.89503e-07
3.85476e-07
2.97656e-07
3.29582e-07
2.16236e-07
2.93414e-07
1.43683e-07
2.72601e-07
8.07796e-08
2.61193e-07
3.0251e-08
2.53538e-07
-6.49213e-09
2.47859e-07
-3.38698e-08
2.51547e-07
-6.67015e-08
2.84244e-07
-1.31769e-07
3.77273e-07
-2.65314e-07
5.68476e-07
-5.07504e-07
8.90759e-07
0.000168501
0.00017634
0.000182265
0.000186482
0.000189112
0.000190286
0.000190147
0.000188832
0.000186478
0.000183218
0.00017918
0.000174488
0.000169259
0.000163602
0.000157618
0.0001514
0.00014503
0.000138582
0.00013212
0.000125698
0.000119363
0.000113152
0.000107098
0.000101222
9.55454e-05
9.00793e-05
8.48329e-05
7.98111e-05
7.50159e-05
7.04467e-05
6.61008e-05
6.19743e-05
5.80618e-05
5.43574e-05
5.08545e-05
4.7546e-05
4.44249e-05
4.14837e-05
3.87152e-05
3.61118e-05
3.36663e-05
3.13706e-05
2.92191e-05
2.71995e-05
2.53104e-05
2.35467e-05
2.1891e-05
2.03435e-05
1.8898e-05
1.75471e-05
1.62853e-05
1.51071e-05
1.40072e-05
1.29809e-05
1.20237e-05
1.1131e-05
1.02991e-05
9.52392e-06
8.80199e-06
8.12991e-06
7.5045e-06
6.92274e-06
6.38186e-06
5.87918e-06
5.41224e-06
4.97871e-06
4.57638e-06
4.20324e-06
3.85735e-06
3.5369e-06
3.2402e-06
2.96568e-06
2.71184e-06
2.4773e-06
2.26078e-06
2.061e-06
1.87694e-06
1.70738e-06
1.55155e-06
1.40816e-06
1.27695e-06
1.15604e-06
1.04644e-06
9.4444e-07
8.54189e-07
7.67404e-07
6.95379e-07
6.19372e-07
5.66152e-07
4.95064e-07
4.63552e-07
3.89356e-07
3.85337e-07
2.97546e-07
3.29475e-07
2.16154e-07
2.93327e-07
1.43622e-07
2.72532e-07
8.07361e-08
2.61135e-07
3.02219e-08
2.53488e-07
-6.51526e-09
2.47823e-07
-3.38864e-08
2.51502e-07
-6.66867e-08
2.84169e-07
-1.31722e-07
3.77173e-07
-2.65232e-07
5.68371e-07
-5.07432e-07
8.90745e-07
0.000163717
0.000171779
0.000177939
0.000182434
0.000185345
0.000186793
0.000186917
0.000185854
0.000183739
0.000180704
0.000176877
0.000172382
0.000167336
0.000161849
0.000156023
0.000149951
0.000143715
0.00013739
0.00013104
0.000124721
0.00011848
0.000112355
0.000106378
0.000100573
9.49602e-05
8.95519e-05
8.43578e-05
7.93832e-05
7.46307e-05
7.01e-05
6.57889e-05
6.16937e-05
5.78096e-05
5.41308e-05
5.06509e-05
4.73633e-05
4.42609e-05
4.13367e-05
3.85834e-05
3.59936e-05
3.35604e-05
3.12757e-05
2.9134e-05
2.71233e-05
2.52421e-05
2.34854e-05
2.1836e-05
2.02943e-05
1.88538e-05
1.75075e-05
1.62498e-05
1.50753e-05
1.39787e-05
1.29554e-05
1.20008e-05
1.11106e-05
1.02808e-05
9.50755e-06
8.78735e-06
8.11682e-06
7.4928e-06
6.9123e-06
6.37253e-06
5.87085e-06
5.4048e-06
4.97206e-06
4.57046e-06
4.19795e-06
3.85263e-06
3.53269e-06
3.23645e-06
2.96233e-06
2.70886e-06
2.47464e-06
2.25841e-06
2.0589e-06
1.87506e-06
1.70571e-06
1.55007e-06
1.40685e-06
1.27579e-06
1.155e-06
1.04551e-06
9.43624e-07
8.53463e-07
7.66763e-07
6.94809e-07
6.18875e-07
5.65702e-07
4.9468e-07
4.63197e-07
3.8906e-07
3.85055e-07
2.97327e-07
3.29254e-07
2.15994e-07
2.93151e-07
1.43498e-07
2.72388e-07
8.06475e-08
2.61027e-07
3.01551e-08
2.53397e-07
-6.56234e-09
2.47742e-07
-3.39097e-08
2.5141e-07
-6.66706e-08
2.84043e-07
-1.31646e-07
3.77002e-07
-2.65121e-07
5.68223e-07
-5.0732e-07
8.90718e-07
0.000156615
0.000165022
0.000171549
0.000176458
0.000179783
0.000181633
0.000182144
0.000181451
0.000179686
0.000176981
0.000173464
0.000169259
0.000164483
0.000159248
0.000153654
0.000147797
0.000141759
0.000135616
0.000129433
0.000123267
0.000117165
0.000111167
0.000105306
9.96058e-05
9.40875e-05
8.87651e-05
8.36488e-05
7.87445e-05
7.40555e-05
6.95822e-05
6.53229e-05
6.12746e-05
5.74327e-05
5.37921e-05
5.03467e-05
4.70901e-05
4.40157e-05
4.11167e-05
3.83861e-05
3.58168e-05
3.34019e-05
3.11337e-05
2.90067e-05
2.70092e-05
2.51398e-05
2.33937e-05
2.17538e-05
2.02205e-05
1.87877e-05
1.74482e-05
1.61967e-05
1.50276e-05
1.3936e-05
1.29172e-05
1.19666e-05
1.10799e-05
1.02533e-05
9.48301e-06
8.76541e-06
8.09721e-06
7.47527e-06
6.89664e-06
6.35854e-06
5.85836e-06
5.39365e-06
4.96211e-06
4.56157e-06
4.19003e-06
3.84556e-06
3.52638e-06
3.23082e-06
2.95731e-06
2.70438e-06
2.47066e-06
2.25485e-06
2.05574e-06
1.87225e-06
1.70321e-06
1.54785e-06
1.40487e-06
1.27403e-06
1.15344e-06
1.04413e-06
9.42397e-07
8.52371e-07
7.658e-07
6.93951e-07
6.18127e-07
5.65027e-07
4.94101e-07
4.62664e-07
3.88615e-07
3.84633e-07
2.96995e-07
3.28923e-07
2.15749e-07
2.92885e-07
1.43313e-07
2.72176e-07
8.05125e-08
2.60863e-07
3.00531e-08
2.53262e-07
-6.63481e-09
2.47623e-07
-3.39462e-08
2.51275e-07
-6.66487e-08
2.83856e-07
-1.31538e-07
3.76753e-07
-2.6496e-07
5.68005e-07
-5.07156e-07
8.90677e-07
0.000147292
0.000156175
0.000163212
0.000168666
0.00017253
0.0001749
0.000175912
0.000175696
0.000174383
0.000172105
0.000168989
0.00016516
0.000160736
0.000155827
0.000150538
0.000144961
0.000139182
0.000133278
0.000127314
0.000121348
0.000115429
0.000109598
0.000103888
9.83262e-05
9.2933e-05
8.7724e-05
8.27102e-05
7.78988e-05
7.32937e-05
6.88961e-05
6.47054e-05
6.0719e-05
5.6933e-05
5.33428e-05
4.9943e-05
4.67276e-05
4.36903e-05
4.08248e-05
3.81242e-05
3.5582e-05
3.31914e-05
3.09449e-05
2.88375e-05
2.68575e-05
2.50038e-05
2.32717e-05
2.16444e-05
2.01224e-05
1.86997e-05
1.73694e-05
1.61259e-05
1.49642e-05
1.38792e-05
1.28663e-05
1.1921e-05
1.10392e-05
1.02168e-05
9.45036e-06
8.73621e-06
8.07111e-06
7.45194e-06
6.87579e-06
6.33992e-06
5.84173e-06
5.3788e-06
4.94885e-06
4.54974e-06
4.17947e-06
3.83613e-06
3.51797e-06
3.22332e-06
2.95063e-06
2.69843e-06
2.46535e-06
2.25012e-06
2.05153e-06
1.8685e-06
1.69988e-06
1.54488e-06
1.40223e-06
1.27169e-06
1.15136e-06
1.04228e-06
9.40759e-07
8.50915e-07
7.64516e-07
6.92807e-07
6.17126e-07
5.64127e-07
4.93326e-07
4.61954e-07
3.8802e-07
3.84074e-07
2.96547e-07
3.28484e-07
2.15416e-07
2.92537e-07
1.43061e-07
2.71902e-07
8.03242e-08
2.60653e-07
2.99082e-08
2.53093e-07
-6.74102e-09
2.47474e-07
-3.40047e-08
2.51106e-07
-6.66305e-08
2.8362e-07
-1.3141e-07
3.76439e-07
-2.64768e-07
5.67737e-07
-5.06966e-07
8.90641e-07
0.000135871
0.000145386
0.000153084
0.000159204
0.000163717
0.000166714
0.000168325
0.000168681
0.000167912
0.000166147
0.000163515
0.00016014
0.000156141
0.000151629
0.000146708
0.000141473
0.000136011
0.000130397
0.000124701
0.00011898
0.000113286
0.000107659
0.000102136
9.67437e-05
9.15044e-05
8.64351e-05
8.15478e-05
7.68509e-05
7.23493e-05
6.80455e-05
6.39394e-05
6.00295e-05
5.63127e-05
5.2785e-05
4.94417e-05
4.62772e-05
4.32859e-05
4.04618e-05
3.77986e-05
3.52899e-05
3.29294e-05
3.071e-05
2.86269e-05
2.66687e-05
2.48344e-05
2.31197e-05
2.15081e-05
2.00002e-05
1.85901e-05
1.72711e-05
1.60378e-05
1.48852e-05
1.38084e-05
1.28029e-05
1.18642e-05
1.09883e-05
1.01713e-05
9.40965e-06
8.6998e-06
8.03855e-06
7.42284e-06
6.84979e-06
6.31668e-06
5.82098e-06
5.36027e-06
4.93231e-06
4.53498e-06
4.16629e-06
3.82438e-06
3.50748e-06
3.21397e-06
2.94228e-06
2.69099e-06
2.45872e-06
2.24422e-06
2.04627e-06
1.86382e-06
1.69571e-06
1.54118e-06
1.39894e-06
1.26876e-06
1.14876e-06
1.03997e-06
9.38712e-07
8.49095e-07
7.62911e-07
6.91377e-07
6.15875e-07
5.63002e-07
4.92357e-07
4.61068e-07
3.87276e-07
3.83375e-07
2.95988e-07
3.27934e-07
2.14999e-07
2.92101e-07
1.42747e-07
2.71558e-07
8.00905e-08
2.60387e-07
2.97298e-08
2.52879e-07
-6.87106e-09
2.47286e-07
-3.40757e-08
2.50894e-07
-6.66063e-08
2.83323e-07
-1.31249e-07
3.76047e-07
-2.64525e-07
5.67395e-07
-5.06718e-07
8.90556e-07
0.000122461
0.000132815
0.000141343
0.00014824
0.000153497
0.000157208
0.000159504
0.000160512
0.000160363
0.000159187
0.000157111
0.000154259
0.000150751
0.000146698
0.000142205
0.000137367
0.000132273
0.000126999
0.000121616
0.000116182
0.000110751
0.000105365
0.000100061
9.48683e-05
8.98105e-05
8.49058e-05
8.01678e-05
7.56062e-05
7.12272e-05
6.70342e-05
6.30284e-05
5.92092e-05
5.55744e-05
5.21209e-05
4.88445e-05
4.57405e-05
4.28038e-05
4.00289e-05
3.74101e-05
3.49413e-05
3.26167e-05
3.04296e-05
2.83753e-05
2.64431e-05
2.46321e-05
2.29381e-05
2.13453e-05
1.98541e-05
1.8459e-05
1.71535e-05
1.59324e-05
1.47907e-05
1.37237e-05
1.2727e-05
1.17962e-05
1.09275e-05
1.01169e-05
9.36092e-06
8.65621e-06
7.99957e-06
7.388e-06
6.81865e-06
6.28887e-06
5.79613e-06
5.33808e-06
4.9125e-06
4.51729e-06
4.15051e-06
3.81029e-06
3.49492e-06
3.20276e-06
2.93229e-06
2.68208e-06
2.45077e-06
2.23714e-06
2.03996e-06
1.85821e-06
1.69072e-06
1.53674e-06
1.39499e-06
1.26525e-06
1.14564e-06
1.03719e-06
9.36258e-07
8.4691e-07
7.60988e-07
6.89657e-07
6.14379e-07
5.61645e-07
4.91205e-07
4.59989e-07
3.86405e-07
3.8251e-07
2.9535e-07
3.27232e-07
2.14549e-07
2.91517e-07
1.42441e-07
2.71067e-07
7.98971e-08
2.59974e-07
2.96151e-08
2.52521e-07
-6.9233e-09
2.46956e-07
-3.40565e-08
2.50534e-07
-6.64668e-08
2.82846e-07
-1.30917e-07
3.75408e-07
-2.64022e-07
5.66715e-07
-5.06085e-07
8.90039e-07
0.000106779
0.000118309
0.00012788
0.000135667
0.000141759
0.000146272
0.000149335
0.000151077
0.000151629
0.000151119
0.000149674
0.000147419
0.000144473
0.000140946
0.000136945
0.000132566
0.000127897
0.000123017
0.000117996
0.000112897
0.000107771
0.000102666
9.76178e-05
9.26584e-05
8.7813e-05
8.31014e-05
7.85386e-05
7.41359e-05
6.99008e-05
6.58382e-05
6.19505e-05
5.82382e-05
5.47001e-05
5.1334e-05
4.81367e-05
4.51042e-05
4.2232e-05
3.95153e-05
3.69489e-05
3.45274e-05
3.22453e-05
3.00963e-05
2.80762e-05
2.61749e-05
2.43915e-05
2.2722e-05
2.11515e-05
1.96802e-05
1.83031e-05
1.70136e-05
1.58069e-05
1.46782e-05
1.36229e-05
1.26366e-05
1.17153e-05
1.0855e-05
1.0052e-05
9.30285e-06
8.60427e-06
7.95312e-06
7.34647e-06
6.78153e-06
6.2557e-06
5.7665e-06
5.31162e-06
4.88887e-06
4.4962e-06
4.13168e-06
3.79349e-06
3.47993e-06
3.18938e-06
2.92036e-06
2.67144e-06
2.44129e-06
2.22869e-06
2.03244e-06
1.85151e-06
1.68476e-06
1.53143e-06
1.39027e-06
1.26105e-06
1.14192e-06
1.03388e-06
9.33327e-07
8.44296e-07
7.58695e-07
6.87594e-07
6.12602e-07
5.60007e-07
4.89848e-07
4.58673e-07
3.85399e-07
3.8143e-07
2.94645e-07
3.26318e-07
2.141e-07
2.90713e-07
1.422e-07
2.70341e-07
7.98195e-08
2.59314e-07
2.96523e-08
2.51914e-07
-6.80438e-09
2.46379e-07
-3.38523e-08
2.49919e-07
-6.61082e-08
2.82066e-07
-1.3028e-07
3.7435e-07
-2.63051e-07
5.65431e-07
-5.04745e-07
8.8874e-07
8.98354e-05
0.000102378
0.000112933
0.000121645
0.000128627
0.000134003
0.000137899
0.000140443
0.000141763
0.000141987
0.000141241
0.000139649
0.000137328
0.00013439
0.00013094
0.000127076
0.000122886
0.000118451
0.000113841
0.00010912
0.000104343
9.95566e-05
9.48005e-05
9.01079e-05
8.55056e-05
8.10151e-05
7.66535e-05
7.24333e-05
6.83639e-05
6.44515e-05
6.07e-05
5.71109e-05
5.36845e-05
5.04195e-05
4.73136e-05
4.43637e-05
4.15663e-05
3.89171e-05
3.64115e-05
3.40448e-05
3.1812e-05
2.97074e-05
2.77271e-05
2.58616e-05
2.41103e-05
2.24695e-05
2.0925e-05
1.9477e-05
1.81206e-05
1.68499e-05
1.56601e-05
1.45466e-05
1.35049e-05
1.25309e-05
1.16205e-05
1.07701e-05
9.976e-06
9.23485e-06
8.54343e-06
7.89871e-06
7.29781e-06
6.73804e-06
6.21683e-06
5.73178e-06
5.2806e-06
4.86117e-06
4.47147e-06
4.1096e-06
3.77379e-06
3.46235e-06
3.1737e-06
2.90637e-06
2.65896e-06
2.43017e-06
2.21878e-06
2.02361e-06
1.84364e-06
1.67776e-06
1.5252e-06
1.38474e-06
1.25613e-06
1.13755e-06
1.02999e-06
9.29883e-07
8.41232e-07
7.55994e-07
6.85181e-07
6.10498e-07
5.58106e-07
4.88225e-07
4.57168e-07
3.84166e-07
3.80228e-07
2.93733e-07
3.25349e-07
2.13446e-07
2.89918e-07
1.41744e-07
2.69682e-07
7.95148e-08
2.58768e-07
2.94536e-08
2.51453e-07
-6.92118e-09
2.45964e-07
-3.38779e-08
2.49474e-07
-6.59813e-08
2.81477e-07
-1.29909e-07
3.73558e-07
-2.62457e-07
5.6459e-07
-5.0399e-07
8.88205e-07
7.20813e-05
8.55516e-05
9.70461e-05
0.000106681
0.000114569
0.00012083
0.000125588
0.000128966
0.00013109
0.000132087
0.00013208
0.00013119
0.000129536
0.000127227
0.000124369
0.000121058
0.000117385
0.00011343
0.000109266
0.000104957
0.000100559
9.61208e-05
9.16841e-05
8.72836e-05
8.29479e-05
7.87006e-05
7.45603e-05
7.05414e-05
6.66548e-05
6.29083e-05
5.93073e-05
5.58547e-05
5.2552e-05
4.93991e-05
4.63947e-05
4.35367e-05
4.08223e-05
3.8248e-05
3.58102e-05
3.35045e-05
3.13267e-05
2.92716e-05
2.73357e-05
2.55102e-05
2.37948e-05
2.21862e-05
2.06707e-05
1.92487e-05
1.79158e-05
1.66661e-05
1.54952e-05
1.43986e-05
1.33722e-05
1.24119e-05
1.1514e-05
1.06747e-05
9.89055e-06
9.15836e-06
8.47498e-06
7.83748e-06
7.24306e-06
6.68909e-06
6.17308e-06
5.69268e-06
5.24568e-06
4.82998e-06
4.44362e-06
4.08474e-06
3.75159e-06
3.44254e-06
3.15603e-06
2.8906e-06
2.6449e-06
2.41764e-06
2.20761e-06
2.01366e-06
1.83478e-06
1.66987e-06
1.51818e-06
1.37849e-06
1.25057e-06
1.13261e-06
1.0256e-06
9.25996e-07
8.37776e-07
7.52943e-07
6.82464e-07
6.08116e-07
5.5597e-07
4.86379e-07
4.55487e-07
3.8275e-07
3.78904e-07
2.92663e-07
3.24304e-07
2.12648e-07
2.89089e-07
1.41151e-07
2.69028e-07
7.90724e-08
2.58258e-07
2.9117e-08
2.5105e-07
-7.17395e-09
2.45619e-07
-3.40358e-08
2.49108e-07
-6.5986e-08
2.80978e-07
-1.29683e-07
3.72888e-07
-2.62052e-07
5.63955e-07
-5.0352e-07
8.88101e-07
5.3676e-05
6.80391e-05
8.04452e-05
9.09914e-05
9.97825e-05
0.000106934
0.000112565
0.000116794
0.000119744
0.000121537
0.000122295
0.000122137
0.000121179
0.00011953
0.000117295
0.000114569
0.000111444
0.000107999
0.000104309
0.00010044
9.64476e-05
9.23833e-05
8.82899e-05
8.4204e-05
8.01562e-05
7.61717e-05
7.2271e-05
6.84704e-05
6.47823e-05
6.12163e-05
5.77791e-05
5.44754e-05
5.13077e-05
4.82771e-05
4.53836e-05
4.26261e-05
4.00026e-05
3.75106e-05
3.5147e-05
3.29083e-05
3.07909e-05
2.87901e-05
2.69032e-05
2.51217e-05
2.34458e-05
2.18728e-05
2.03892e-05
1.8996e-05
1.76888e-05
1.64624e-05
1.53124e-05
1.42347e-05
1.32252e-05
1.22801e-05
1.13958e-05
1.05688e-05
9.79575e-06
9.07349e-06
8.39903e-06
7.76953e-06
7.18228e-06
6.63474e-06
6.1245e-06
5.64926e-06
5.20688e-06
4.79532e-06
4.41267e-06
4.0571e-06
3.72692e-06
3.42052e-06
3.13638e-06
2.87308e-06
2.62927e-06
2.4037e-06
2.19518e-06
2.00259e-06
1.82492e-06
1.66109e-06
1.51037e-06
1.37154e-06
1.24439e-06
1.12712e-06
1.02072e-06
9.21668e-07
8.3393e-07
7.49546e-07
6.79439e-07
6.05464e-07
5.53593e-07
4.84322e-07
4.53618e-07
3.81171e-07
3.77432e-07
2.91471e-07
3.2314e-07
2.11758e-07
2.88166e-07
1.4049e-07
2.68299e-07
7.85802e-08
2.5769e-07
2.87421e-08
2.50602e-07
-7.45849e-09
2.45241e-07
-3.4221e-08
2.48714e-07
-6.60107e-08
2.80447e-07
-1.2946e-07
3.72168e-07
-2.61622e-07
5.63253e-07
-5.02997e-07
8.88022e-07
3.48532e-05
5.00709e-05
6.3353e-05
7.47841e-05
8.44608e-05
9.24929e-05
9.89928e-05
0.000104075
0.000107857
0.000110457
0.000111995
0.000112586
0.000112344
0.000111376
0.000109786
0.000107669
0.000105114
0.000102204
9.90116e-05
9.56042e-05
9.20401e-05
8.83709e-05
8.46414e-05
8.08896e-05
7.71481e-05
7.34439e-05
6.97991e-05
6.62319e-05
6.27565e-05
5.93842e-05
5.61231e-05
5.29794e-05
4.99571e-05
4.70585e-05
4.42847e-05
4.16357e-05
3.91104e-05
3.67073e-05
3.44241e-05
3.22581e-05
3.02061e-05
2.82644e-05
2.64307e-05
2.46971e-05
2.30643e-05
2.15299e-05
2.00813e-05
1.87193e-05
1.74404e-05
1.62394e-05
1.51122e-05
1.4055e-05
1.3064e-05
1.21356e-05
1.12663e-05
1.04528e-05
9.69179e-06
8.9804e-06
8.3157e-06
7.69495e-06
7.11557e-06
6.57508e-06
6.07115e-06
5.60158e-06
5.16427e-06
4.75726e-06
4.37867e-06
4.02674e-06
3.69981e-06
3.39632e-06
3.11478e-06
2.8538e-06
2.61208e-06
2.38837e-06
2.18152e-06
1.99041e-06
1.81407e-06
1.65143e-06
1.50177e-06
1.36389e-06
1.23759e-06
1.12107e-06
1.01535e-06
9.16903e-07
8.29695e-07
7.45805e-07
6.76108e-07
6.02542e-07
5.50975e-07
4.82056e-07
4.51559e-07
3.79433e-07
3.75809e-07
2.90158e-07
3.21856e-07
2.10781e-07
2.87145e-07
1.39768e-07
2.6749e-07
7.80462e-08
2.57054e-07
2.83379e-08
2.501e-07
-7.76515e-09
2.4482e-07
-3.44239e-08
2.48284e-07
-6.60461e-08
2.79875e-07
-1.2923e-07
3.71386e-07
-2.61149e-07
5.62458e-07
-5.02387e-07
8.87905e-07
1.58445e-05
3.18654e-05
4.59763e-05
5.82528e-05
6.8784e-05
7.76723e-05
8.5024e-05
9.09478e-05
9.55562e-05
9.89637e-05
0.000101285
0.000102632
0.000103115
0.00010284
0.000101909
0.000100416
9.84487e-05