/*--------------------------------*- C++ -*----------------------------------*\
| =========                 |                                                 |
| \\      /  F ield         | OpenFOAM: The Open Source CFD Toolbox           |
|  \\    /   O peration     | Version:  2412                                  |
|   \\  /    A nd           | Website:  www.openfoam.com                      |
|    \\/     M anipulation  |                                                 |
\*---------------------------------------------------------------------------*/
FoamFile
{
    version     2.0;
    format      ascii;
    arch        "LSB;label=32;scalar=64";
    class       surfaceScalarField;
    location    "28.5";
    object      phi;
}
// * * * * * * * * * * * * * * * * * * * * * * * * * * * * * * * * * * * * * //

dimensions      [0 3 -1 0 0 0 0];

oriented        oriented;

internalField   nonuniform List<scalar> 
126304
(
0.00505063
1.30477e-07
2.05399e-11
0.00505025
3.80431e-07
6.22906e-11
0.00504963
6.16927e-07
9.94815e-11
0.00504879
8.41616e-07
1.29776e-10
0.00504773
1.05621e-06
1.51667e-10
0.00504647
1.26213e-06
1.65704e-10
0.00504501
1.46047e-06
1.7438e-10
0.00504336
1.65219e-06
1.80843e-10
0.00504152
1.83864e-06
1.87018e-10
0.00503949
2.02243e-06
1.91484e-10
0.00503729
2.20818e-06
1.88167e-10
0.00503488
2.40266e-06
1.6651e-10
0.00503227
2.61383e-06
1.13459e-10
0.00502942
2.84903e-06
1.74372e-11
0.00502631
3.11283e-06
-1.27102e-10
0.0050229
3.40527e-06
-3.16078e-10
0.00501918
3.72114e-06
-5.34404e-10
0.00501513
4.05054e-06
-7.57288e-10
0.00501075
4.38052e-06
-9.53994e-10
0.00500606
4.69728e-06
-1.09325e-09
0.00500107
4.98841e-06
-1.14878e-09
0.00499583
5.2446e-06
-1.10344e-09
0.00499037
5.46066e-06
-9.51072e-10
0.00498473
5.63559e-06
-6.96398e-10
0.00497896
5.77216e-06
-3.53635e-10
0.00497308
5.87594e-06
5.61397e-11
0.00496713
5.95418e-06
5.08358e-10
0.00496111
6.01478e-06
9.78301e-10
0.00495505
6.06537e-06
1.4435e-09
0.00494893
6.11273e-06
1.88534e-09
0.00494277
6.16243e-06
2.28985e-09
0.00493655
6.21869e-06
2.64785e-09
0.00493026
6.28444e-06
2.95454e-09
0.00492389
6.36146e-06
3.20875e-09
0.00491744
6.45061e-06
3.4121e-09
0.00491088
6.55207e-06
3.5683e-09
0.00490421
6.6655e-06
3.68227e-09
0.00489742
6.79028e-06
3.75954e-09
0.00489049
6.92563e-06
3.80559e-09
0.00488342
7.07069e-06
3.82566e-09
0.00487619
7.22465e-06
3.82457e-09
0.0048688
7.38675e-06
3.80656e-09
0.00486124
7.55633e-06
3.77522e-09
0.0048535
7.73281e-06
3.73346e-09
0.00484558
7.91574e-06
3.68366e-09
0.00483747
8.10473e-06
3.62769e-09
0.00482917
8.2995e-06
3.56695e-09
0.00482067
8.49984e-06
3.50263e-09
0.00481196
8.70559e-06
3.43557e-09
0.00480304
8.91669e-06
3.36641e-09
0.0047939
9.13317e-06
3.29559e-09
0.00478454
9.35524e-06
3.22339e-09
0.00477496
9.58369e-06
3.15006e-09
0.00476513
9.82095e-06
3.07573e-09
1.0074e-05
0.00475505
2.99908e-09
0.00505063
2.60889e-07
0.00505025
7.60653e-07
0.00504963
1.23352e-06
0.00504879
1.68277e-06
0.00504773
2.11182e-06
0.00504647
2.52351e-06
0.00504501
2.92006e-06
0.00504336
3.30335e-06
0.00504152
3.67611e-06
0.0050395
4.04351e-06
0.0050373
4.41481e-06
0.0050349
4.80347e-06
0.00503228
5.22536e-06
0.00502944
5.69516e-06
0.00502633
6.22199e-06
0.00502293
6.80596e-06
0.00501921
7.43674e-06
0.00501517
8.09461e-06
0.00501079
8.75376e-06
0.00500611
9.3867e-06
0.00500112
9.96864e-06
0.00499589
1.0481e-05
0.00499044
1.09134e-05
0.00498481
1.12637e-05
0.00497904
1.15376e-05
0.00497317
1.17459e-05
0.00496722
1.19032e-05
0.00496121
1.20251e-05
0.00495515
1.2127e-05
0.00494904
1.22222e-05
0.00494288
1.2322e-05
0.00493667
1.24347e-05
0.00493038
1.25662e-05
0.00492403
1.27201e-05
0.00491758
1.28981e-05
0.00491103
1.31006e-05
0.00490437
1.3327e-05
0.00489758
1.35759e-05
0.00489066
1.38459e-05
0.0048836
1.41353e-05
0.00487638
1.44424e-05
0.004869
1.47657e-05
0.00486145
1.51039e-05
0.00485373
1.5456e-05
0.00484583
1.58208e-05
0.00483773
1.61977e-05
0.00482945
1.65861e-05
0.00482096
1.69856e-05
0.00481227
1.73959e-05
0.00480337
1.78168e-05
0.00479425
1.82483e-05
0.00478492
1.86909e-05
0.00477536
1.91461e-05
0.00476556
1.96185e-05
2.01216e-05
0.00475551
0.00505063
3.91129e-07
0.00505025
1.14033e-06
0.00504963
1.84926e-06
0.00504879
2.52273e-06
0.00504774
3.16593e-06
0.00504648
3.78309e-06
0.00504502
4.37753e-06
0.00504337
4.95211e-06
0.00504154
5.51085e-06
0.00503952
6.06154e-06
0.00503732
6.61796e-06
0.00503492
7.20023e-06
0.00503231
7.83209e-06
0.00502947
8.53547e-06
0.00502637
9.3241e-06
0.00502298
1.01982e-05
0.00501927
1.11424e-05
0.00501524
1.21273e-05
0.00501088
1.31145e-05
0.0050062
1.40627e-05
0.00500124
1.49349e-05
0.00499601
1.57034e-05
0.00499057
1.63522e-05
0.00498496
1.68785e-05
0.00497921
1.72902e-05
0.00497335
1.76038e-05
0.00496741
1.78408e-05
0.00496141
1.80247e-05
0.00495536
1.81781e-05
0.00494926
1.83213e-05
0.00494311
1.8471e-05
0.00493691
1.86398e-05
0.00493064
1.88365e-05
0.00492429
1.90665e-05
0.00491786
1.93325e-05
0.00491132
1.96349e-05
0.00490468
1.99729e-05
0.00489791
2.03447e-05
0.00489101
2.07479e-05
0.00488396
2.118e-05
0.00487676
2.16386e-05
0.00486941
2.21215e-05
0.00486189
2.26266e-05
0.00485419
2.31523e-05
0.00484631
2.36972e-05
0.00483825
2.426e-05
0.00483
2.484e-05
0.00482155
2.54365e-05
0.00481289
2.60489e-05
0.00480403
2.66771e-05
0.00479496
2.73211e-05
0.00478567
2.79813e-05
0.00477616
2.86599e-05
0.00476641
2.93633e-05
3.011e-05
0.00475642
0.00505063
5.21112e-07
0.00505025
1.51919e-06
0.00504963
2.4637e-06
0.0050488
3.36092e-06
0.00504774
4.21779e-06
0.00504649
5.03996e-06
0.00504503
5.83184e-06
0.00504339
6.59724e-06
0.00504156
7.34153e-06
0.00503954
8.07499e-06
0.00503735
8.81591e-06
0.00503495
9.59096e-06
0.00503236
1.04316e-05
0.00502952
1.13671e-05
0.00502643
1.24157e-05
0.00502305
1.35779e-05
0.00501936
1.48333e-05
0.00501535
1.61433e-05
0.005011
1.74566e-05
0.00500635
1.87188e-05
0.0050014
1.98805e-05
0.0049962
2.09048e-05
0.00499078
2.17705e-05
0.00498519
2.24734e-05
0.00497945
2.30239e-05
0.00497361
2.34438e-05
0.00496769
2.37615e-05
0.00496171
2.4008e-05
0.00495567
2.42135e-05
0.00494959
2.44049e-05
0.00494346
2.46044e-05
0.00493727
2.48288e-05
0.00493101
2.50898e-05
0.00492469
2.53947e-05
0.00491827
2.57472e-05
0.00491176
2.61478e-05
0.00490514
2.65957e-05
0.00489839
2.70882e-05
0.00489152
2.76224e-05
0.0048845
2.8195e-05
0.00487734
2.88028e-05
0.00487002
2.94427e-05
0.00486253
3.01121e-05
0.00485488
3.08087e-05
0.00484704
3.15307e-05
0.00483903
3.22765e-05
0.00483082
3.3045e-05
0.00482242
3.38351e-05
0.00481383
3.46463e-05
0.00480502
3.54781e-05
0.00479601
3.63305e-05
0.00478679
3.72041e-05
0.00477735
3.81012e-05
0.00476768
3.90292e-05
4.00102e-05
0.00475778
0.00505063
6.50759e-07
0.00505025
1.89697e-06
0.00504964
3.07642e-06
0.0050488
4.19674e-06
0.00504775
5.26665e-06
0.0050465
6.29322e-06
0.00504505
7.28194e-06
0.00504341
8.23757e-06
0.00504158
9.16679e-06
0.00503958
1.00824e-05
0.00503738
1.10069e-05
0.005035
1.19737e-05
0.00503241
1.30217e-05
0.00502959
1.41874e-05
0.00502651
1.54936e-05
0.00502315
1.69411e-05
0.00501948
1.8505e-05
0.00501549
2.01372e-05
0.00501117
2.17744e-05
0.00500654
2.33488e-05
0.00500162
2.47991e-05
0.00499644
2.60789e-05
0.00499105
2.71617e-05
0.00498548
2.8042e-05
0.00497978
2.87326e-05
0.00497396
2.926e-05
0.00496806
2.96595e-05
0.0049621
2.99696e-05
0.00495609
3.02279e-05
0.00495002
3.04677e-05
0.00494391
3.07167e-05
0.00493774
3.09959e-05
0.00493151
3.13201e-05
0.00492521
3.16984e-05
0.00491882
3.21354e-05
0.00491234
3.26322e-05
0.00490575
3.31873e-05
0.00489904
3.3798e-05
0.0048922
3.44604e-05
0.00488522
3.51704e-05
0.0048781
3.59241e-05
0.00487083
3.67177e-05
0.00486339
3.7548e-05
0.00485579
3.8412e-05
0.00484801
3.93074e-05
0.00484005
4.02323e-05
0.00483191
4.11851e-05
0.00482358
4.21646e-05
0.00481506
4.317e-05
0.00480634
4.42006e-05
0.00479741
4.52564e-05
0.00478828
4.63377e-05
0.00477893
4.74468e-05
0.00476937
4.85914e-05
4.97942e-05
0.00475959
0.00505063
7.79991e-07
0.00505025
2.27338e-06
0.00504964
3.687e-06
0.00504881
5.02961e-06
0.00504776
6.31178e-06
0.00504651
7.54198e-06
0.00504507
8.72678e-06
0.00504343
9.8719e-06
0.00504162
1.09853e-05
0.00503962
1.20821e-05
0.00503743
1.31894e-05
0.00503506
1.43465e-05
0.00503248
1.56001e-05
0.00502968
1.69936e-05
0.00502662
1.85545e-05
0.00502327
2.02841e-05
0.00501963
2.2153e-05
0.00501566
2.41043e-05
0.00501137
2.60626e-05
0.00500677
2.79471e-05
0.00500189
2.96845e-05
0.00499675
3.12194e-05
0.00499139
3.25198e-05
0.00498585
3.35785e-05
0.00498017
3.44103e-05
0.00497439
3.50467e-05
0.00496852
3.55295e-05
0.00496258
3.59043e-05
0.00495659
3.62159e-05
0.00495056
3.65043e-05
0.00494447
3.68024e-05
0.00493833
3.71356e-05
0.00493213
3.75215e-05
0.00492586
3.79713e-05
0.0049195
3.84905e-05
0.00491305
3.90806e-05
0.0049065
3.97401e-05
0.00489983
4.04656e-05
0.00489304
4.12526e-05
0.00488612
4.20964e-05
0.00487905
4.29921e-05
0.00487183
4.39354e-05
0.00486446
4.49223e-05
0.00485692
4.59492e-05
0.00484921
4.70135e-05
0.00484133
4.81126e-05
0.00483327
4.92448e-05
0.00482503
5.04084e-05
0.0048166
5.16025e-05
0.00480797
5.28261e-05
0.00479915
5.40788e-05
0.00479012
5.5361e-05
0.0047809
5.66744e-05
0.00477146
5.80256e-05
5.94351e-05
0.00476182
0.00505063
9.08688e-07
0.00505025
2.6482e-06
0.00504965
4.295e-06
0.00504882
5.85894e-06
0.00504778
7.35245e-06
0.00504653
8.78536e-06
0.00504509
1.01653e-05
0.00504347
1.14991e-05
0.00504166
1.27957e-05
0.00503967
1.40728e-05
0.00503749
1.53615e-05
0.00503513
1.67074e-05
0.00503257
1.81645e-05
0.00502978
1.97831e-05
0.00502674
2.15955e-05
0.00502342
2.36035e-05
0.0050198
2.57735e-05
0.00501586
2.804e-05
0.00501161
3.03161e-05
0.00500705
3.25082e-05
0.0050022
3.45313e-05
0.0049971
3.63207e-05
0.00499178
3.78389e-05
0.00498628
3.90769e-05
0.00498064
4.00514e-05
0.00497489
4.07984e-05
0.00496905
4.13659e-05
0.00496315
4.18066e-05
0.00495719
4.21723e-05
0.00495119
4.25094e-05
0.00494513
4.28561e-05
0.00493903
4.3242e-05
0.00493286
4.36879e-05
0.00492663
4.42068e-05
0.00492031
4.48055e-05
0.00491391
4.54858e-05
0.0049074
4.62461e-05
0.00490078
4.70825e-05
0.00489405
4.799e-05
0.00488718
4.89632e-05
0.00488017
4.99964e-05
0.00487303
5.10846e-05
0.00486572
5.2223e-05
0.00485827
5.34078e-05
0.00485064
5.46355e-05
0.00484285
5.59032e-05
0.00483489
5.72088e-05
0.00482675
5.85505e-05
0.00481842
5.99267e-05
0.00480991
6.13365e-05
0.00480121
6.27791e-05
0.00479232
6.42543e-05
0.00478323
6.57631e-05
0.00477395
6.73094e-05
0.00476448
6.89045e-05
0.00475493
1.25009e-07
2.93013e-09
0.00475426
6.60649e-07
2.9149e-09
0.00475303
1.23153e-06
2.89076e-09
0.00475119
1.83991e-06
2.86208e-09
0.00474869
2.4889e-06
2.83016e-09
0.00474551
3.182e-06
2.79485e-09
0.00474158
3.92309e-06
2.75589e-09
0.00473686
4.71653e-06
2.71319e-09
0.00473129
5.56717e-06
2.6665e-09
0.00472481
6.48046e-06
2.61576e-09
0.00471735
7.46245e-06
2.56066e-09
0.00470882
8.51998e-06
2.50107e-09
0.00469916
9.66065e-06
2.43683e-09
0.00468827
1.08931e-05
2.36948e-09
0.00467604
1.2227e-05
2.29301e-09
0.00466236
1.36733e-05
2.22209e-09
0.00464711
1.52445e-05
2.12209e-09
0.00463016
1.69546e-05
2.01058e-09
0.00461134
1.88199e-05
1.90459e-09
0.00459047
2.08588e-05
1.78114e-09
0.00456738
2.30925e-05
1.66474e-09
0.00454183
2.55456e-05
1.54219e-09
0.00451359
2.82465e-05
1.41051e-09
0.00448236
3.12281e-05
1.26877e-09
0.00444783
3.45291e-05
1.11652e-09
0.00440963
3.81948e-05
9.53107e-10
0.00436735
4.22788e-05
7.78416e-10
0.00432051
4.68445e-05
5.91932e-10
0.00426854
5.1968e-05
3.93165e-10
0.0042108
5.77405e-05
1.81926e-10
0.00414652
6.42722e-05
-4.21104e-11
0.00407483
7.16973e-05
-2.79544e-10
0.00399465
8.01791e-05
-5.3052e-10
0.00390473
8.99177e-05
-7.95686e-10
0.00380358
0.000101157
-1.0755e-09
0.00368938
0.000114194
-1.37024e-09
0.00356001
0.00012938
-1.68038e-09
0.00341288
0.000147124
-2.00661e-09
0.00324501
0.000167875
-2.349e-09
0.00305294
0.000192076
-2.70734e-09
0.00283287
0.000220072
-3.08016e-09
0.00258093
0.000251941
-3.46348e-09
0.00229374
0.000287196
-3.84828e-09
0.00196941
0.000324329
-4.21583e-09
0.0016093
0.000360116
-4.53037e-09
0.00122067
0.000388641
-4.7288e-09
0.000820622
0.00040005
-4.70693e-09
0.000441646
0.000378981
-4.30726e-09
0.00013954
0.00030211
-3.31557e-09
0.000139541
-1.48003e-09
0.00475402
1.61864e-06
0.00475199
2.68876e-06
0.00474939
3.82822e-06
0.00474619
5.04259e-06
0.00474234
6.33808e-06
0.0047378
7.72169e-06
0.00473252
9.20124e-06
0.00472645
1.07855e-05
0.00471954
1.24841e-05
0.00471171
1.43081e-05
0.0047029
1.62696e-05
0.00469304
1.83822e-05
0.00468204
2.06613e-05
0.00466981
2.3124e-05
0.00465625
2.57899e-05
0.00464124
2.86808e-05
0.00462466
3.18216e-05
0.00460637
3.52407e-05
0.00458622
3.89704e-05
0.00456404
4.30478e-05
0.00453961
4.75154e-05
0.00451274
5.24223e-05
0.00448316
5.78254e-05
0.00445059
6.37908e-05
0.00441473
7.03957e-05
0.00437519
7.77309e-05
0.00433157
8.59034e-05
0.00428337
9.50403e-05
0.00423005
0.000105293
0.00417094
0.000116844
0.0041053
0.000129913
0.00403223
0.000144766
0.00395068
0.000161729
0.0038594
0.000181197
0.00375691
0.000203654
0.00364142
0.000229683
0.00351082
0.000259978
0.0033626
0.000295339
0.00319384
0.000336635
0.0030012
0.000384722
0.00278103
0.000440243
0.00252967
0.000503297
0.00224402
0.000572851
0.00192251
0.000645836
0.00156683
0.000715793
0.00118452
0.000770957
0.0007928
0.000791765
0.00042382
0.00074796
0.000131342
0.000594588
0.000270884
0.00475221
5.82771e-06
0.00474747
7.4277e-06
0.00474217
9.13104e-06
0.00473627
1.09464e-05
0.00472972
1.28831e-05
0.00472249
1.49518e-05
0.00471453
1.71643e-05
0.00470578
1.95339e-05
0.00469619
2.20751e-05
0.00468569
2.48045e-05
0.00467422
2.77403e-05
0.0046617
3.09029e-05
0.00464805
3.43156e-05
0.00463317
3.8004e-05
0.00461696
4.19976e-05
0.00459931
4.63292e-05
0.0045801
5.10363e-05
0.00455918
5.61616e-05
0.00453639
6.17537e-05
0.00451157
6.78683e-05
0.00448452
7.45694e-05
0.00445501
8.19309e-05
0.0044228
9.00382e-05
0.0043876
9.89907e-05
0.00434909
0.000108904
0.0043069
0.000119915
0.00426062
0.000132185
0.00420976
0.000145902
0.00415376
0.000161295
0.00409197
0.000178635
0.00402363
0.00019825
0.00394786
0.000220536
0.00386362
0.000245975
0.00376966
0.000275153
0.00366454
0.00030878
0.00354651
0.000347711
0.00341353
0.000392954
0.00326321
0.000445664
0.00309276
0.000507082
0.00289908
0.000578398
0.00267886
0.000660465
0.00242887
0.00075329
0.00214655
0.000855175
0.00183098
0.000961399
0.0014845
0.00106227
0.00111507
0.00114039
0.000739939
0.0011669
0.000390754
0.00109715
0.000118741
0.000866601
0.000389624
0.00474955
1.40658e-05
0.00474079
1.6188e-05
0.00473147
1.84473e-05
0.00472156
2.08551e-05
0.00471102
2.34243e-05
0.0046998
2.61693e-05
0.00468786
2.91059e-05
0.00467514
3.22519e-05
0.00466159
3.56269e-05
0.00464714
3.92529e-05
0.00463173
4.31544e-05
0.00461527
4.73588e-05
0.00459769
5.18968e-05
0.00457889
5.68032e-05
0.00455877
6.21169e-05
0.00453722
6.78822e-05
0.00451411
7.41492e-05
0.00448929
8.09749e-05
0.00446262
8.84244e-05
0.00443392
9.65723e-05
0.00440298
0.000105504
0.0043696
0.000115319
0.0043335
0.00012613
0.00429442
0.000138072
0.00425203
0.000151298
0.00420595
0.000165991
0.00415577
0.000182365
0.004101
0.000200672
0.00404108
0.000221215
0.00397536
0.000244354
0.00390309
0.000270523
0.00382338
0.000300242
0.00373522
0.000334144
0.00363738
0.000372993
0.00352845
0.000417709
0.00340676
0.000469392
0.00327039
0.000529327
0.00311709
0.000598963
0.00294434
0.000679832
0.00274939
0.000773347
0.00252943
0.000880424
0.00228192
0.0010008
0.00200514
0.00113195
0.00169917
0.00126738
0.00136722
0.00139422
0.00101775
0.00148986
0.000667534
0.00151712
0.000346385
0.00141829
0.000100911
0.00111208
0.000490535
0.00474606
2.75941e-05
0.00473202
3.02267e-05
0.00471744
3.30292e-05
0.00470228
3.60167e-05
0.0046865
3.92056e-05
0.00467005
4.2614e-05
0.00465289
4.62619e-05
0.00463498
5.01715e-05
0.00461623
5.43676e-05
0.00459661
5.88776e-05
0.00457603
6.37322e-05
0.00455443
6.89658e-05
0.0045317
7.4617e-05
0.00450778
8.07291e-05
0.00448254
8.73513e-05
0.00445589
9.45388e-05
0.00442768
0.000102355
0.00439779
0.00011087
0.00436604
0.000120168
0.00433228
0.000130341
0.00429628
0.000141496
0.00425784
0.000153758
0.00421671
0.000167269
0.00417258
0.000182197
0.00412514
0.000198736
0.00407402
0.000217112
0.00401879
0.000237594
0.00395897
0.000260497
0.00389399
0.000286196
0.0038232
0.000315139
0.00374586
0.00034786
0.00366111
0.000385001
0.00356792
0.000427334
0.00346512
0.000475786
0.00335137
0.000531464
0.00322509
0.000595674
0.00308449
0.00066992
0.00292759
0.000755866
0.00275221
0.000855213
0.00255611
0.000969441
0.00233722
0.00109932
0.00209394
0.00124408
0.00182578
0.00140012
0.00153413
0.00155903
0.00122342
0.00170493
0.000902558
0.00181071
0.000587004
0.00183267
0.000301778
0.00170352
8.33386e-05
0.00133051
0.000573874
0.00474181
4.76039e-05
0.00472131
5.07277e-05
0.00470029
5.40554e-05
0.0046787
5.76047e-05
0.00465651
6.13957e-05
0.00463367
6.54502e-05
0.00461014
6.97923e-05
0.00458586
7.44486e-05
0.00456078
7.94487e-05
0.00453483
8.48257e-05
0.00450795
9.06163e-05
0.00448005
9.68621e-05
0.00445106
0.000103609
0.00442088
0.00011091
0.00438941
0.000118824
0.00435653
0.000127417
0.00432212
0.000136765
0.00428603
0.000146956
0.00424812
0.000158087
0.00420819
0.00017027
0.00416604
0.000183636
0.00412147
0.000198335
0.0040742
0.000214537
0.00402395
0.000232445
0.0039704
0.000252291
0.00391316
0.00027435
0.00385181
0.00029894
0.00378587
0.000326442
0.00371476
0.000357302
0.00363785
0.000392052
0.00355438
0.000431325
0.00346351
0.000475875
0.00336424
0.000526602
0.00325545
0.000584575
0.00313586
0.000651053
0.00300404
0.000727495
0.00285842
0.000815542
0.00269734
0.000916949
0.00251914
0.00103341
0.00232237
0.00116621
0.00210602
0.00131567
0.00186995
0.00148015
0.0016155
0.00165457
0.00134612
0.00182841
0.00106805
0.001983
0.000790945
0.00208782
0.000527968
0.00209565
0.000294399
0.00193709
0.000101451
0.00152346
0.000675325
0.00473689
7.51921e-05
0.00470884
7.87791e-05
0.00468029
8.2607e-05
0.0046512
8.66947e-05
0.00462153
9.1065e-05
0.00459123
9.57428e-05
0.00456027
0.000100756
0.00452858
0.000106136
0.00449612
0.000111916
0.00446281
0.000118135
0.00442859
0.000124837
0.00439338
0.000132069
0.0043571
0.000139885
0.00431967
0.000148348
0.00428096
0.000157526
0.00424088
0.000167496
0.0041993
0.000178349
0.00415607
0.000190184
0.00411104
0.000203119
0.00406403
0.000217284
0.00401483
0.000232832
0.00396323
0.000249937
0.00390897
0.000268802
0.00385175
0.000289661
0.00379125
0.000312787
0.0037271
0.0003385
0.00365887
0.000367174
0.00358606
0.000399248
0.00350812
0.000435243
0.00342441
0.000475771
0.00333417
0.000521559
0.00323658
0.00057347
0.00313066
0.000632517
0.00301534
0.000699893
0.00288942
0.000776975
0.00275159
0.000865322
0.00260051
0.000966622
0.00243488
0.00108258
0.00225363
0.00121466
0.00205616
0.00136368
0.00184279
0.00152904
0.00161525
0.00170769
0.00137734
0.00189248
0.00113558
0.00207017
0.000899669
0.00221891
0.000682015
0.00230547
0.000495273
0.00228239
0.000343643
0.00208872
0.000208058
0.00165905
0.000883384
-2.56528e-05
2.56532e-05
-3.31585e-10
-7.50971e-05
4.94456e-05
-1.35422e-09
-0.000131533
5.6439e-05
-2.65881e-09
-0.000185191
5.36616e-05
-4.14833e-09
-0.000230713
4.55277e-05
-5.74207e-09
-0.000265397
3.46918e-05
-7.38252e-09
-0.000288101
2.27131e-05
-9.02441e-09
-0.00029855
1.04592e-05
-1.05465e-08
-0.000296807
-1.73096e-06
-1.15869e-08
-0.000283922
-1.28725e-05
-1.31865e-08
-0.000260251
-2.36563e-05
-1.43568e-08
-0.000226437
-3.37989e-05
-1.51224e-08
-0.000183154
-4.32677e-05
-1.5452e-08
-0.000131052
-5.20864e-05
-1.52339e-08
-7.07408e-05
-6.02972e-05
-1.43299e-08
-2.86108e-06
-6.78671e-05
-1.25912e-08
7.19886e-05
-7.48398e-05
-9.86485e-09
0.000153245
-8.12502e-05
-6.01973e-09
0.000240354
-8.71085e-05
-9.92297e-10
0.000332779
-9.24299e-05
5.25717e-09
0.000429995
-9.72283e-05
1.2159e-08
0.000531488
-0.000101513
1.96096e-08
0.00063675
-0.000105289
2.65653e-08
0.000745279
-0.000108561
3.24425e-08
0.000856583
-0.000111341
3.7282e-08
0.000970186
-0.000113643
4.03373e-08
0.00108563
-0.000115485
4.19519e-08
0.00120247
-0.000116881
4.22751e-08
0.00132027
-0.000117847
4.16071e-08
0.00143863
-0.000118398
4.02391e-08
0.00155714
-0.000118552
3.84164e-08
0.00167543
-0.000118326
3.63277e-08
0.00179314
-0.000117738
3.41045e-08
0.00190991
-0.000116808
3.18351e-08
0.00202544
-0.000115556
2.95676e-08
0.00213942
-0.000114003
2.73262e-08
0.00225156
-0.000112169
2.51172e-08
0.00236161
-0.000110075
2.2935e-08
0.00246934
-0.000107745
2.07702e-08
0.00257452
-0.0001052
1.86115e-08
0.00267696
-0.000102461
1.64487e-08
0.0027765
-9.95525e-05
1.42782e-08
0.00287298
-9.6495e-05
1.20987e-08
0.00296628
-9.33107e-05
9.91481e-09
0.0030563
-9.00209e-05
7.7382e-09
0.00314294
-8.66465e-05
5.58427e-09
0.00322614
-8.32072e-05
3.473e-09
0.00330586
-7.97215e-05
1.42836e-09
0.00338207
-7.62046e-05
-5.27805e-10
-7.2668e-05
0.00345474
-2.3835e-09
-2.25573e-05
4.82105e-05
-6.61176e-05
9.30059e-05
-0.000115621
0.000105942
-0.000162537
0.000100578
-0.000202043
8.50339e-05
-0.000231672
6.43207e-05
-0.000250329
4.137e-05
-0.000257656
1.7786e-05
-0.00025386
-5.52666e-06
-0.000239539
-2.7194e-05
-0.000215083
-4.81124e-05
-0.000181028
-6.78539e-05
-0.000137962
-8.63331e-05
-8.64984e-05
-0.00010355
-2.70455e-05
-0.00011975
3.96812e-05
-0.000134594
0.000113183
-0.000148342
0.000192941
-0.000161008
0.000278439
-0.000172607
0.000369173
-0.000183163
0.000464646
-0.000192701
0.00056437
-0.000201237
0.00066786
-0.000208779
0.000774634
-0.000215335
0.000884216
-0.000220923
0.000996144
-0.000225572
0.00110997
-0.000229312
0.00122526
-0.000232172
0.0013416
-0.000234182
0.00145857
-0.00023537
0.00157579
-0.00023577
0.00169288
-0.000235415
0.00180948
-0.000234341
0.00192526
-0.000232584
0.00203988
-0.000230184
0.00215306
-0.000227182
0.00226451
-0.000223618
0.00237397
-0.000219535
0.0024812
-0.000214976
0.00258599
-0.000209986
0.00268813
-0.000204607
0.00278747
-0.000198884
0.00288383
-0.000192861
0.0029771
-0.000186582
0.00306717
-0.000180087
0.00315394
-0.00017342
0.00323735
-0.000166619
0.00331735
-0.000159721
0.0033939
-0.000152756
-0.000145745
0.00346698
-1.71227e-05
6.53332e-05
-4.88417e-05
0.000124725
-8.49971e-05
0.000142097
-0.000118994
0.000134575
-0.000147011
0.00011305
-0.000167045
8.43556e-05
-0.000178083
5.24073e-05
-0.000179572
1.92756e-05
-0.000171869
-1.32303e-05
-0.000154945
-4.41176e-05
-0.000129121
-7.3937e-05
-9.46933e-05
-0.000102281
-5.2081e-05
-0.000128945
-1.64482e-06
-0.000153986
5.58163e-05
-0.000177211
0.000120236
-0.000199014
0.000191109
-0.000219215
0.000267963
-0.000237862
0.000350352
-0.000254995
0.000437832
-0.000270644
0.000529962
-0.000284831
0.000626301
-0.000297576
0.000726407
-0.000308885
0.000829835
-0.000318763
0.00093614
-0.000327228
0.00104489
-0.000334318
0.00115565
-0.000340074
0.00126801
-0.000344537
0.00138158
-0.000347744
0.00149594
-0.000349737
0.00161073
-0.00035056
0.00172558
-0.000350262
0.00184013
-0.000348892
0.00195405
-0.000346503
0.00206702
-0.000343153
0.00217874
-0.0003389
0.00228892
-0.000333804
0.00239731
-0.000327927
0.00250367
-0.000321333
0.00260777
-0.000314086
0.00270941
-0.000306251
0.00280842
-0.000297893
0.00290464
-0.000289078
0.00299793
-0.000279868
0.00308817
-0.000270329
0.00317527
-0.000260521
0.00325915
-0.000250503
0.00333976
-0.000240329
0.00341705
-0.000230046
-0.000219678
0.00349099
-7.60571e-06
7.2939e-05
-2.35722e-05
0.000140691
-4.12785e-05
0.000159804
-5.73062e-05
0.000150603
-6.94986e-05
0.000125243
-7.64698e-05
9.13268e-05
-7.72719e-05
5.32094e-05
-7.09188e-05
1.29224e-05
-5.80504e-05
-2.60987e-05
-3.78211e-05
-6.43469e-05
-1.03077e-05
-0.00010145
2.42658e-05
-0.000136855
6.58417e-05
-0.000170521
0.000114181
-0.000202326
0.000169167
-0.000232197
0.000230359
-0.000260205
0.000297481
-0.000286337
0.000370213
-0.000310594
0.000448211
-0.000332994
0.000531118
-0.000353551
0.00061857
-0.000372283
0.00071019
-0.000389196
0.000805596
-0.000404291
0.000904395
-0.000417561
0.00100618
-0.000429016
0.00111056
-0.000438692
0.00121712
-0.000446642
0.0013255
-0.000452911
0.0014353
-0.000457541
0.00154614
-0.000460582
0.00165766
-0.000462085
0.00176951
-0.00046211
0.00188134
-0.000460719
0.00199281
-0.000457978
0.00210362
-0.000453959
0.00221346
-0.000448737
0.00232204
-0.000442389
0.00242911
-0.000434995
0.00253441
-0.000426637
0.00263773
-0.0004174
0.00273885
-0.000407368
0.00283758
-0.000396627
0.00293376
-0.000385262
0.00302725
-0.000373357
0.00311792
-0.000360996
0.00320566
-0.00034826
0.00329039
-0.000335229
0.00337203
-0.000321973
0.00345053
-0.000308552
-0.000294994
0.00352585
5.14404e-06
6.77949e-05
9.54001e-06
0.000136295
1.46255e-05
0.000154718
1.98559e-05
0.000145373
2.59845e-05
0.000119114
3.39321e-05
8.33791e-05
4.45688e-05
4.25727e-05
5.96098e-05
-2.11862e-06
7.79141e-05
-4.4403e-05
0.000101436
-8.78692e-05
0.000130281
-0.000130295
0.000164716
-0.00017129
0.000204812
-0.000210617
0.000250597
-0.000248111
0.000302056
-0.000283656
0.000359067
-0.000317216
0.000421477
-0.000348746
0.000489096
-0.000378213
0.0005617
-0.000405597
0.000639033
-0.000430884
0.000720816
-0.000454066
0.000806753
-0.000475133
0.000896531
-0.000494069
0.000989813
-0.000510843
0.00108625
-0.000525449
0.00118547
-0.000537916
0.00128712
-0.000548297
0.00139085
-0.000556639
0.0014963
-0.000562985
0.0016031
-0.000567384
0.00171091
-0.000569894
0.00181938
-0.000570579
0.00192817
-0.000569511
0.00203696
-0.000566767
0.00214543
-0.000562429
0.00225328
-0.000556588
0.00236023
-0.000549334
0.00246599
-0.000540764
0.00257034
-0.000530978
0.00267301
-0.000520078
0.00277381
-0.000508166
0.00287253
-0.000495348
0.002969
-0.000481729
0.00306305
-0.000467412
0.00315456
-0.000452502
0.0032434
-0.0004371
0.00332947
-0.000421301
0.0034127
-0.000405196
0.003493
-0.000388859
-0.000372321
0.00357033
1.85542e-05
4.92407e-05
4.68905e-05
0.000107959
7.71465e-05
0.000124462
0.000105928
0.000116591
0.000132003
9.3039e-05
0.000155932
5.94504e-05
0.00017916
1.93449e-05
0.000200878
-2.38367e-05
0.00022501
-6.85354e-05
0.000251465
-0.000114324
0.000281144
-0.000159974
0.000314673
-0.000204818
0.000352484
-0.000248428
0.000394878
-0.000290506
0.000442056
-0.000330834
0.000494105
-0.000369266
0.000551042
-0.000405683
0.000612819
-0.00043999
0.000679334
-0.000472112
0.00075044
-0.00050199
0.000825951
-0.000529577
0.000905651
-0.000554833
0.000989298
-0.000577716
0.00107662
-0.000598166
0.00116731
-0.000616143
0.00126106
-0.000631665
0.00135754
-0.000644778
0.00145643
-0.000655522
0.00155738
-0.000663936
0.00166006
-0.000670065
0.00176413
-0.000673966
0.00186926
-0.000675705
0.0019751
-0.00067536
0.00208135
-0.000673014
0.00218768
-0.00066876
0.00229379
-0.000662697
0.00239939
-0.000654931
0.0025042
-0.000645572
0.00260796
-0.000634735
0.00271042
-0.000622538
0.00281135
-0.000609103
0.00291056
-0.000594552
0.00300784
-0.000579009
0.00310302
-0.000562598
0.00319596
-0.000545441
0.00328652
-0.00052766
0.00337459
-0.000509369
0.00346007
-0.000490676
0.00354288
-0.000471672
-0.000452396
0.00362296
3.39505e-05
1.52902e-05
9.06644e-05
5.12452e-05
0.000147449
6.76771e-05
0.000198663
6.53775e-05
0.000242684
4.90174e-05
0.000280644
2.14906e-05
0.000313723
-1.37338e-05
0.000342593
-5.27072e-05
0.000370481
-9.64227e-05
0.000398558
-0.000142402
0.000427992
-0.000189408
0.00045973
-0.000236556
0.000494506
-0.000283204
0.000532875
-0.000328875
0.000575247
-0.000373206
0.000621903
-0.000415921
0.000673016
-0.000456797
0.000728678
-0.000495653
0.000788906
-0.00053234
0.000853653
-0.000566737
0.000922821
-0.000598745
0.000996274
-0.000628286
0.00107383
-0.000655277
0.00115529
-0.000679625
0.0012404
-0.000701252
0.00132888
-0.000720146
0.00142044
-0.000736338
0.00151478
-0.000749859
0.00161158
-0.000760735
0.00171052
-0.000769004
0.00181127
-0.000774718
0.00191351
-0.000777941
0.0020169
-0.000778752
0.00212112
-0.000777239
0.00222586
-0.0007735
0.00233081
-0.000767643
0.00243566
-0.000759784
0.00254013
-0.000750045
0.00264396
-0.000738556
0.00274687
-0.00072545
0.00284863
-0.000710865
0.00294902
-0.000694941
0.00304783
-0.00067782
0.00314488
-0.000659646
0.00324
-0.000640559
0.00333304
-0.0006207
0.00342387
-0.000600205
0.0035124
-0.000579201
0.00359852
-0.000557793
0.00368217
-0.000536051
0.00353179
-7.70481e-05
-4.17457e-09
0.0036069
-7.51066e-05
-6.01399e-09
0.00367995
-7.30426e-05
-7.88571e-09
0.00375084
-7.0876e-05
-9.75067e-09
0.00381947
-6.8618e-05
-1.15491e-08
0.00388576
-6.62783e-05
-1.32263e-08
0.00394964
-6.38673e-05
-1.47313e-08
0.00401105
-6.13965e-05
-1.60208e-08
0.00406995
-5.88782e-05
-1.706e-08
0.00412629
-5.6326e-05
-1.78236e-08
0.00418007
-5.37546e-05
-1.82942e-08
0.00423126
-5.11791e-05
-1.84624e-08
0.0042799
-4.8615e-05
-1.83299e-08
0.00432599
-4.60778e-05
-1.79053e-08
0.00436959
-4.35827e-05
-1.72054e-08
0.00441075
-4.1144e-05
-1.62547e-08
0.00444954
-3.87747e-05
-1.50849e-08
0.00448604
-3.64865e-05
-1.37306e-08
0.00452035
-3.42896e-05
-1.22291e-08
0.00455255
-3.21921e-05
-1.062e-08
0.00458276
-3.02001e-05
-8.94159e-09
0.00461108
-2.83179e-05
-7.22874e-09
0.00463764
-2.65474e-05
-5.51349e-09
0.00466253
-2.48888e-05
-3.82359e-09
0.00468587
-2.33404e-05
-2.18048e-09
0.00470777
-2.18988e-05
-6.00175e-10
0.00472833
-2.05591e-05
9.04858e-10
0.00474764
-1.9315e-05
2.32594e-09
0.0047658
-1.81592e-05
3.65857e-09
0.00478288
-1.70837e-05
4.89839e-09
0.00479895
-1.60799e-05
6.04062e-09
0.00481408
-1.51391e-05
7.07973e-09
0.00482833
-1.42529e-05
8.00748e-09
0.00484173
-1.34141e-05
8.81257e-09
0.00485434
-1.26164e-05
9.48182e-09
0.00486618
-1.18557e-05
1.00016e-08
0.0048773
-1.11298e-05
1.03584e-08
0.00488773
-1.04387e-05
1.05416e-08
0.0048975
-9.78394e-06
1.05462e-08
0.00490666
-9.16839e-06
1.03737e-08
0.00491525
-8.59508e-06
1.00326e-08
0.0049233
-8.06642e-06
9.54006e-09
0.00493088
-7.58336e-06
8.92013e-09
0.00493802
-7.14511e-06
8.2109e-09
0.00494476
-6.74829e-06
7.43864e-09
0.00495114
-6.38904e-06
6.59593e-09
0.0049572
-6.06187e-06
5.74815e-09
0.00496295
-5.76088e-06
4.90505e-09
0.00496843
-5.48063e-06
4.08845e-09
0.00497364
-5.21654e-06
3.30942e-09
0.0049786
-4.9651e-06
2.57714e-09
0.00498333
-4.72388e-06
1.8983e-09
0.00498782
-4.49136e-06
1.27679e-09
0.00499208
-4.26672e-06
7.12111e-10
0.00499613
-4.0496e-06
2.01245e-10
0.00499997
-3.83988e-06
-2.61013e-10