/*--------------------------------*- C++ -*----------------------------------*\
| =========                 |                                                 |
| \\      /  F ield         | OpenFOAM: The Open Source CFD Toolbox           |
|  \\    /   O peration     | Version:  2412                                  |
|   \\  /    A nd           | Website:  www.openfoam.com                      |
|    \\/     M anipulation  |                                                 |
\*---------------------------------------------------------------------------*/
FoamFile
{
    version     2.0;
    format      ascii;
    arch        "LSB;label=32;scalar=64";
    class       volVectorField;
    location    "28.5";
    object      U;
}
// * * * * * * * * * * * * * * * * * * * * * * * * * * * * * * * * * * * * * //

dimensions      [0 1 -1 0 0 0 0];

internalField   nonuniform List<vector> 
63420
(
(0.0999997 4.41574e-07 0)
(0.099995 1.31328e-06 0)
(0.099985 2.17227e-06 0)
(0.0999705 3.0227e-06 0)
(0.0999517 3.86931e-06 0)
(0.0999287 4.71618e-06 0)
(0.0999017 5.5665e-06 0)
(0.0998709 6.42321e-06 0)
(0.0998363 7.29104e-06 0)
(0.0997981 8.18026e-06 0)
(0.0997563 9.11032e-06 0)
(0.0997107 1.01112e-05 0)
(0.0996612 1.12202e-05 0)
(0.0996073 1.24752e-05 0)
(0.0995484 1.39038e-05 0)
(0.099484 1.55154e-05 0)
(0.0994136 1.72948e-05 0)
(0.0993368 1.92033e-05 0)
(0.0992533 2.11837e-05 0)
(0.0991634 2.317e-05 0)
(0.0990674 2.50976e-05 0)
(0.098966 2.69132e-05 0)
(0.0988598 2.85805e-05 0)
(0.0987498 3.00836e-05 0)
(0.0986367 3.1426e-05 0)
(0.0985213 3.26276e-05 0)
(0.0984041 3.37199e-05 0)
(0.0982855 3.47409e-05 0)
(0.0981659 3.57304e-05 0)
(0.0980453 3.67266e-05 0)
(0.0979238 3.7763e-05 0)
(0.0978012 3.88677e-05 0)
(0.0976774 4.00624e-05 0)
(0.0975522 4.13632e-05 0)
(0.0974254 4.27811e-05 0)
(0.0972967 4.43227e-05 0)
(0.0971658 4.5992e-05 0)
(0.0970326 4.77905e-05 0)
(0.0968968 4.97188e-05 0)
(0.0967583 5.17764e-05 0)
(0.0966167 5.39632e-05 0)
(0.0964721 5.6279e-05 0)
(0.0963241 5.8724e-05 0)
(0.0961727 6.12993e-05 0)
(0.0960178 6.40062e-05 0)
(0.0958592 6.68471e-05 0)
(0.0956968 6.98248e-05 0)
(0.0955304 7.29426e-05 0)
(0.0953601 7.62048e-05 0)
(0.0951856 7.96162e-05 0)
(0.0950069 8.31827e-05 0)
(0.0948239 8.69123e-05 0)
(0.0946364 9.08186e-05 0)
(0.0944443 9.49325e-05 0)
(0.0942474 9.93321e-05 0)
(0.0999997 1.32471e-06 0)
(0.099995 3.93975e-06 0)
(0.099985 6.51669e-06 0)
(0.0999705 9.06784e-06 0)
(0.0999517 1.16074e-05 0)
(0.0999288 1.41476e-05 0)
(0.0999018 1.66981e-05 0)
(0.099871 1.92677e-05 0)
(0.0998365 2.18707e-05 0)
(0.0997983 2.45377e-05 0)
(0.0997565 2.73269e-05 0)
(0.0997109 3.03278e-05 0)
(0.0996614 3.36523e-05 0)
(0.0996076 3.7413e-05 0)
(0.0995488 4.16934e-05 0)
(0.0994845 4.65209e-05 0)
(0.0994142 5.18511e-05 0)
(0.0993374 5.75683e-05 0)
(0.0992541 6.3502e-05 0)
(0.0991643 6.94548e-05 0)
(0.0990685 7.52344e-05 0)
(0.0989672 8.06806e-05 0)
(0.0988612 8.56851e-05 0)
(0.0987513 9.02e-05 0)
(0.0986383 9.42356e-05 0)
(0.098523 9.78506e-05 0)
(0.0984059 0.000101139 0)
(0.0982875 0.000104214 0)
(0.0981679 0.000107195 0)
(0.0980474 0.000110194 0)
(0.097926 0.000113313 0)
(0.0978035 0.000116636 0)
(0.0976799 0.000120227 0)
(0.0975548 0.000124134 0)
(0.0974281 0.00012839 0)
(0.0972995 0.000133017 0)
(0.0971688 0.000138024 0)
(0.0970358 0.000143418 0)
(0.0969001 0.0001492 0)
(0.0967618 0.000155369 0)
(0.0966204 0.000161924 0)
(0.096476 0.000168865 0)
(0.0963283 0.000176192 0)
(0.0961771 0.00018391 0)
(0.0960225 0.000192022 0)
(0.0958642 0.000200534 0)
(0.0957021 0.000209456 0)
(0.0955361 0.000218797 0)
(0.0953661 0.000228571 0)
(0.095192 0.00023879 0)
(0.0950137 0.000249474 0)
(0.0948311 0.000260645 0)
(0.0946441 0.000272344 0)
(0.0944525 0.000284661 0)
(0.0942561 0.000297826 0)
(0.0999997 2.20696e-06 0)
(0.099995 6.56341e-06 0)
(0.099985 1.08566e-05 0)
(0.0999706 1.51066e-05 0)
(0.0999518 1.93373e-05 0)
(0.0999289 2.35689e-05 0)
(0.0999019 2.78177e-05 0)
(0.0998712 3.20982e-05 0)
(0.0998367 3.64342e-05 0)
(0.0997986 4.08766e-05 0)
(0.0997568 4.55219e-05 0)
(0.0997114 5.05188e-05 0)
(0.0996619 5.60534e-05 0)
(0.0996082 6.23125e-05 0)
(0.0995495 6.94354e-05 0)
(0.0994854 7.74683e-05 0)
(0.0994153 8.63378e-05 0)
(0.0993387 9.58522e-05 0)
(0.0992556 0.000105729 0)
(0.0991661 0.00011564 0)
(0.0990705 0.000125265 0)
(0.0989695 0.000134339 0)
(0.0988638 0.00014268 0)
(0.0987542 0.000150209 0)
(0.0986415 0.000156941 0)
(0.0985264 0.000162973 0)
(0.0984095 0.000168462 0)
(0.0982913 0.000173593 0)
(0.098172 0.000178566 0)
(0.0980517 0.000183569 0)
(0.0979305 0.000188768 0)
(0.0978082 0.000194303 0)
(0.0976848 0.000200282 0)
(0.0975599 0.000206786 0)
(0.0974335 0.00021387 0)
(0.0973052 0.000221567 0)
(0.0971747 0.000229896 0)
(0.097042 0.000238868 0)
(0.0969067 0.000248484 0)
(0.0967687 0.000258743 0)
(0.0966278 0.000269643 0)
(0.0964838 0.000281185 0)
(0.0963366 0.00029337 0)
(0.096186 0.000306202 0)
(0.0960318 0.000319689 0)
(0.0958741 0.000333841 0)
(0.0957126 0.000348673 0)
(0.0955473 0.000364201 0)
(0.095378 0.000380446 0)
(0.0952047 0.00039743 0)
(0.0950272 0.000415184 0)
(0.0948455 0.000433744 0)
(0.0946594 0.000453175 0)
(0.0944688 0.000473621 0)
(0.0942735 0.000495446 0)
(0.0999997 3.08775e-06 0)
(0.099995 9.18238e-06 0)
(0.099985 1.51888e-05 0)
(0.0999706 2.11346e-05 0)
(0.0999519 2.70533e-05 0)
(0.099929 3.29733e-05 0)
(0.0999022 3.89171e-05 0)
(0.0998715 4.49052e-05 0)
(0.099837 5.09707e-05 0)
(0.099799 5.71845e-05 0)
(0.0997574 6.36811e-05 0)
(0.099712 7.06674e-05 0)
(0.0996627 7.8403e-05 0)
(0.0996091 8.71486e-05 0)
(0.0995506 9.7099e-05 0)
(0.0994867 0.00010832 0)
(0.0994169 0.00012071 0)
(0.0993406 0.000134002 0)
(0.0992579 0.000147805 0)
(0.0991688 0.00016166 0)
(0.0990736 0.000175121 0)
(0.098973 0.000187817 0)
(0.0988677 0.000199495 0)
(0.0987585 0.000210039 0)
(0.0986462 0.000219473 0)
(0.0985314 0.000227929 0)
(0.0984149 0.000235623 0)
(0.098297 0.000242817 0)
(0.098178 0.000249784 0)
(0.098058 0.000256788 0)
(0.0979371 0.000264062 0)
(0.0978152 0.000271801 0)
(0.0976921 0.000280157 0)
(0.0975676 0.000289241 0)
(0.0974415 0.000299131 0)
(0.0973136 0.000309875 0)
(0.0971836 0.000321501 0)
(0.0970514 0.000334022 0)
(0.0969166 0.000347439 0)
(0.0967792 0.000361754 0)
(0.0966389 0.000376962 0)
(0.0964955 0.000393065 0)
(0.096349 0.000410063 0)
(0.0961991 0.000427964 0)
(0.0960458 0.000446777 0)
(0.095889 0.000466516 0)
(0.0957284 0.000487201 0)
(0.0955641 0.000508855 0)
(0.0953959 0.000531506 0)
(0.0952237 0.000555184 0)
(0.0950474 0.000579929 0)
(0.094867 0.000605792 0)
(0.0946823 0.000632857 0)
(0.0944932 0.000661307 0)
(0.0942995 0.000691609 0)
(0.0999997 3.96657e-06 0)
(0.099995 1.17947e-05 0)
(0.0999851 1.95105e-05 0)
(0.0999707 2.71478e-05 0)
(0.099952 3.47502e-05 0)
(0.0999292 4.23541e-05 0)
(0.0999024 4.99884e-05 0)
(0.0998718 5.76794e-05 0)
(0.0998375 6.54696e-05 0)
(0.0997996 7.34493e-05 0)
(0.0997581 8.17902e-05 0)
(0.0997129 9.07569e-05 0)
(0.0996637 0.000100681 0)
(0.0996103 0.000111897 0)
(0.0995521 0.000124654 0)
(0.0994885 0.000139038 0)
(0.099419 0.000154923 0)
(0.0993432 0.000171968 0)
(0.0992609 0.000189672 0)
(0.0991723 0.000207452 0)
(0.0990776 0.000224737 0)
(0.0989776 0.000241047 0)
(0.0988728 0.000256059 0)
(0.0987641 0.000269623 0)
(0.0986523 0.000281765 0)
(0.0985381 0.000292653 0)
(0.098422 0.00030256 0)
(0.0983045 0.000311821 0)
(0.098186 0.000320785 0)
(0.0980664 0.000329789 0)
(0.0979459 0.000339131 0)
(0.0978244 0.000349062 0)
(0.0977017 0.000359776 0)
(0.0975777 0.000371418 0)
(0.0974521 0.000384087 0)
(0.0973247 0.000397846 0)
(0.0971954 0.000412732 0)
(0.0970637 0.00042876 0)
(0.0969297 0.000445935 0)
(0.096793 0.000464256 0)
(0.0966535 0.000483721 0)
(0.096511 0.000504329 0)
(0.0963654 0.000526082 0)
(0.0962166 0.000548987 0)
(0.0960644 0.000573058 0)
(0.0959087 0.000598311 0)
(0.0957494 0.000624772 0)
(0.0955864 0.000652467 0)
(0.0954196 0.000681432 0)
(0.0952489 0.000711706 0)
(0.0950743 0.000743335 0)
(0.0948955 0.00077638 0)
(0.0947126 0.000810941 0)
(0.0945255 0.000847225 0)
(0.094334 0.000885755 0)
(0.0999997 4.84302e-06 0)
(0.099995 1.43986e-05 0)
(0.0999851 2.38187e-05 0)
(0.0999708 3.3142e-05 0)
(0.0999522 4.24225e-05 0)
(0.0999295 5.17047e-05 0)
(0.0999028 6.10237e-05 0)
(0.0998723 7.04118e-05 0)
(0.0998381 7.99203e-05 0)
(0.0998003 8.96589e-05 0)
(0.0997589 9.98355e-05 0)
(0.0997139 0.000110771 0)
(0.099665 0.000122868 0)
(0.0996119 0.000136533 0)
(0.099554 0.000152072 0)
(0.0994907 0.00016959 0)
(0.0994216 0.000188936 0)
(0.0993463 0.000209701 0)
(0.0992646 0.000231278 0)
(0.0991766 0.000252959 0)
(0.0990826 0.000274048 0)
(0.0989832 0.000293964 0)
(0.0988791 0.000312308 0)
(0.098771 0.000328895 0)
(0.0986599 0.000343752 0)
(0.0985462 0.000357081 0)
(0.0984307 0.000369211 0)
(0.0983138 0.000380545 0)
(0.0981958 0.000391508 0)
(0.0980767 0.000402508 0)
(0.0979567 0.000413909 0)
(0.0978357 0.000426015 0)
(0.0977136 0.000439065 0)
(0.0975902 0.000453235 0)
(0.0974652 0.000468648 0)
(0.0973386 0.000485381 0)
(0.0972099 0.00050348 0)
(0.0970791 0.000522964 0)
(0.0969459 0.00054384 0)
(0.0968102 0.000566107 0)
(0.0966717 0.000589763 0)
(0.0965303 0.000614805 0)
(0.0963859 0.000641236 0)
(0.0962383 0.000669066 0)
(0.0960875 0.000698307 0)
(0.0959332 0.000728982 0)
(0.0957755 0.000761119 0)
(0.0956141 0.000794749 0)
(0.0954491 0.000829914 0)
(0.0952802 0.000866658 0)
(0.0951076 0.000905035 0)
(0.0949309 0.000945113 0)
(0.0947503 0.000986997 0)
(0.0945656 0.0010309 0)
(0.0943767 0.00107734 0)
(0.0999997 5.71639e-06 0)
(0.099995 1.69927e-05 0)
(0.0999852 2.81105e-05 0)
(0.0999709 3.91132e-05 0)
(0.0999524 5.00651e-05 0)
(0.0999298 6.10186e-05 0)
(0.0999032 7.20153e-05 0)
(0.0998728 8.30932e-05 0)
(0.0998388 9.43124e-05 0)
(0.0998012 0.000105801 0)
(0.09976 0.000117803 0)
(0.0997152 0.000130694 0)
(0.0996666 0.000144945 0)
(0.0996137 0.000161035 0)
(0.0995561 0.000179325 0)
(0.0994933 0.000199941 0)
(0.0994248 0.000222711 0)
(0.09935 0.000247158 0)
(0.099269 0.000272573 0)
(0.0991817 0.000298125 0)
(0.0990884 0.000322999 0)
(0.0989898 0.000346507 0)
(0.0988865 0.000368178 0)
(0.0987792 0.000387791 0)
(0.0986688 0.000405371 0)
(0.0985558 0.000421151 0)
(0.098441 0.000435513 0)
(0.0983247 0.000448926 0)
(0.0982073 0.000461889 0)
(0.0980889 0.000474881 0)
(0.0979695 0.000488329 0)
(0.0978492 0.00050259 0)
(0.0977277 0.000517948 0)
(0.097605 0.000534611 0)
(0.0974808 0.000552725 0)
(0.097355 0.000572382 0)
(0.0972272 0.000593637 0)
(0.0970974 0.000616515 0)
(0.0969652 0.000641024 0)
(0.0968306 0.000667164 0)
(0.0966933 0.00069493 0)
(0.0965533 0.000724322 0)
(0.0964103 0.000755341 0)
(0.0962642 0.000787997 0)
(0.096115 0.000822306 0)
(0.0959624 0.000858292 0)
(0.0958065 0.000895985 0)
(0.0956471 0.000935422 0)
(0.0954841 0.000976649 0)
(0.0953175 0.00101971 0)
(0.0951472 0.00106468 0)
(0.094973 0.00111161 0)
(0.0947951 0.00116061 0)
(0.0946132 0.00121186 0)
(0.0944274 0.00126579 0)
(0.0940446 0.000104246 -4.42573e-24)
(0.0938339 0.000109441 -4.5138e-24)
(0.0936132 0.000114979 -3.17528e-26)
(0.0933819 0.000120885 1.38762e-23)
(0.0931393 0.000127191 -4.59607e-24)
(0.0928847 0.000133932 -4.73296e-24)
(0.0926171 0.000141145 -1.45809e-23)
(0.0923358 0.000148874 1.44765e-23)
(0.0920398 0.000157168 4.95591e-24)
(0.091728 0.000166079 0)
(0.0913992 0.000175669 5.12306e-24)
(0.0910522 0.000186004 -5.21292e-24)
(0.0906855 0.000197161 4.29009e-23)
(0.0902977 0.000209225 -9.19576e-23)
(0.0898869 0.000222292 4.916e-23)
(0.0894513 0.000236471 3.98589e-23)
(0.0889889 0.000251885 5.11468e-23)
(0.0884972 0.000268676 -5.85935e-24)
(0.0879737 0.000287003 5.98851e-24)
(0.0874154 0.00030705 -6.12501e-24)
(0.0868192 0.000329028 0)
(0.0861813 0.00035318 6.42234e-24)
(0.0854977 0.000379789 -6.58445e-24)
(0.0847637 0.000409184 0)
(0.083974 0.000441747 -6.93923e-24)
(0.0831226 0.00047793 0)
(0.0822026 0.000518265 -7.34058e-24)
(0.0812062 0.000563385 -1.23014e-22)
(0.0801241 0.000614045 1.30623e-22)
(0.0789458 0.000671152 -1.31101e-22)
(0.0776591 0.000735806 1.30901e-22)
(0.0762493 0.00080934 0)
(0.0746996 0.000893384 0)
(0.0729896 0.000989929 1.60301e-22)
(0.0710954 0.00110141 -1.50825e-22)
(0.068988 0.00123078 0)
(0.0666332 0.00138155 0)
(0.0639898 0.0015578 0)
(0.0610091 0.001764 0)
(0.0576343 0.00200455 0)
(0.0538016 0.00228289 0)
(0.0494424 0.00259973 0)
(0.0444904 0.00295016 0)
(0.0388944 0.00331904 0)
(0.0326419 0.00367416 -1.46991e-23)
(0.0257977 0.00395644 -5.03867e-22)
(0.0185447 0.00406808 5.03111e-22)
(0.0112545 0.00385997 5.46154e-22)
(0.0048138 0.00310335 -5.45335e-22)
(0.000980249 0.00144075 0)
(0.0940538 0.000312531 -4.47859e-24)
(0.0938432 0.000328086 -9.13859e-24)
(0.0936227 0.000344664 -4.79484e-24)
(0.0933916 0.000362347 4.46044e-24)
(0.0931493 0.000381228 -4.66124e-24)
(0.092895 0.000401409 3.34198e-23)
(0.0926278 0.000423007 -5.24864e-23)
(0.0923469 0.000446152 4.87697e-24)
(0.0920514 0.000470986 6.51257e-23)
(0.0917401 0.000497673 -8.99447e-23)
(0.0914119 0.000526393 -8.78859e-23)
(0.0910655 0.000557348 7.7442e-23)
(0.0906996 0.000590766 0)
(0.0903126 0.000626902 5.41195e-24)
(0.0899028 0.000666046 -1.65439e-23)
(0.0894682 0.000708524 -1.87695e-22)
(0.089007 0.000754705 1.80186e-22)
(0.0885166 0.000805012 -1.91543e-22)
(0.0879946 0.000859925 -1.79915e-23)
(0.0874381 0.000919993 6.13845e-24)
(0.0868438 0.000985852 0)
(0.0862082 0.00105823 -6.43897e-24)
(0.0855271 0.00113798 -2.07546e-22)
(0.0847961 0.00122607 4.33746e-22)
(0.0840098 0.00132366 2.39327e-22)
(0.0831623 0.00143211 -4.51351e-22)
(0.0822469 0.00155299 4.86102e-22)
(0.0812559 0.00168822 -4.93256e-22)
(0.0801802 0.00184004 -7.82758e-24)
(0.0790095 0.00201117 0)
(0.0777319 0.00220488 0)
(0.0763332 0.00242517 0)
(0.0747969 0.00267689 0)
(0.0731035 0.00296595 -9.29185e-24)
(0.0712298 0.0032996 -6.29751e-22)
(0.0691484 0.00368659 -2.63204e-23)
(0.0668262 0.00413731 6.54366e-22)
(0.0642242 0.0046638 7.11809e-22)
(0.0612962 0.00527916 -7.10866e-22)
(0.0579887 0.00599626 -2.35834e-23)
(0.0542408 0.00682491 -2.4614e-23)
(0.0499872 0.00776667 -8.47524e-22)
(0.0451635 0.0088062 8.19622e-22)
(0.0397175 0.00989767 -2.78825e-23)
(0.0336289 0.0109444 1.48018e-23)
(0.026943 0.0117703 -1.02467e-21)
(0.0198072 0.0120838 1.02428e-21)
(0.0125324 0.0114423 -2.1358e-21)
(0.0058855 0.00917526 2.10008e-21)
(0.00141539 0.00422876 -2.1513e-21)
(0.094072 0.000519809 -2.64872e-23)
(0.0938617 0.000545638 -9.30463e-24)
(0.0936417 0.00057316 3.58645e-23)
(0.0934111 0.000602516 -7.38222e-23)
(0.0931693 0.000633859 1.57991e-22)
(0.0929156 0.000667363 -7.48549e-23)
(0.0926492 0.000703222 1.4191e-26)
(0.0923691 0.000741651 9.72656e-24)
(0.0920745 0.000782892 1.69678e-22)
(0.0917643 0.000827215 -1.59611e-22)
(0.0914374 0.00087492 0)
(0.0910924 0.000926344 1.45687e-26)
(0.090728 0.000981867 0)
(0.0903427 0.00104191 1.85918e-22)
(0.0899348 0.00110697 -1.63879e-22)
(0.0895025 0.00117757 -3.53484e-22)
(0.0890437 0.00125433 1.97226e-23)
(0.0885561 0.00133797 -3.72271e-22)
(0.0880372 0.00142927 1.20386e-23)
(0.0874843 0.00152915 -3.98977e-22)
(0.086894 0.00163867 4.11201e-22)
(0.086263 0.00175905 -4.19151e-22)
(0.0855871 0.00189169 4.32002e-22)
(0.0848621 0.00203822 1.3599e-23)
(0.0840828 0.00220057 -1.39729e-23)
(0.0832434 0.00238097 1.43701e-23)
(0.0823374 0.00258207 -4.81374e-22)
(0.0813574 0.00280701 4.96193e-22)
(0.0802948 0.00305954 5.27931e-22)
(0.0791397 0.00334414 -5.11727e-22)
(0.0778806 0.00366624 0)
(0.0765044 0.00403239 0)
(0.0749955 0.00445058 1.79713e-23)
(0.0733358 0.00493054 1.23786e-21)
(0.0715039 0.00548407 2.92215e-23)
(0.0694748 0.00612541 -1.24535e-21)
(0.0672185 0.00687143 0)
(0.0647001 0.00774145 -2.17322e-23)
(0.0618786 0.00875637 1.51206e-21)
(0.0587061 0.00993633 -3.01739e-21)
(0.0551287 0.011296 3.19618e-21)
(0.0510873 0.0128361 9.47385e-23)
(0.0465212 0.014529 -1.65846e-21)
(0.0413757 0.0162969 -1.79198e-21)
(0.035615 0.017979 1.84679e-21)
(0.0292448 0.0192855 1.41975e-24)
(0.0223398 0.0197384 -3.13427e-23)
(0.0150907 0.0186111 2.06454e-21)
(0.00801161 0.0148366 -1.99917e-21)
(0.00225132 0.00677356 -1.99963e-21)
(0.0940991 0.00072539 1.74494e-23)
(0.0938895 0.000761335 -8.85807e-24)
(0.09367 0.000799625 1.95272e-26)
(0.0934402 0.000840463 9.12066e-24)
(0.0931993 0.000884066 -1.96229e-26)
(0.0929466 0.000930677 1.51642e-22)
(0.0926814 0.000980569 -2.86596e-22)
(0.0924027 0.00103405 1.54052e-22)
(0.0921096 0.00109144 -9.86699e-24)
(0.0918012 0.00115314 1.82456e-22)
(0.0914761 0.00121956 -1.62296e-22)
(0.0911333 0.00129117 -3.37016e-22)
(0.0907714 0.0013685 6.80585e-22)
(0.0903888 0.00145215 -6.94196e-22)
(0.089984 0.00154278 7.08459e-22)
(0.0895551 0.00164116 -7.12196e-22)
(0.0891001 0.00174814 -3.77089e-22)
(0.0886169 0.00186471 2.24615e-26)
(0.0881029 0.00199199 0)
(0.0875555 0.00213125 -3.88524e-22)
(0.0869715 0.00228398 4.00719e-22)
(0.0863477 0.00245186 0)
(0.0856801 0.00263685 -8.65815e-22)
(0.0849645 0.00284125 8.51765e-22)
(0.0841961 0.00306772 1.41059e-23)
(0.0833693 0.00331938 -3.69271e-26)
(0.0824781 0.00359993 1.49096e-23)
(0.0815153 0.00391371 0)
(0.0804731 0.00426592 -5.29272e-26)
(0.0793421 0.00466279 0)
(0.078112 0.00511179 -1.69212e-23)
(0.0767706 0.00562196 1.1439e-21)
(0.0753041 0.00620425 -1.14359e-21)
(0.0736963 0.00687193 -1.89096e-23)
(0.0719286 0.00764106 3.91253e-23)
(0.0699795 0.00853087 -1.34785e-21)
(0.0678239 0.00956394 1.30595e-21)
(0.0654328 0.0107659 2.21081e-23)
(0.0627726 0.012164 -3.52924e-25)
(0.0598046 0.0137838 2.35468e-23)
(0.0564847 0.0156426 -1.61498e-21)
(0.0527631 0.0177372 3.26323e-21)
(0.0485848 0.0200253 -1.70031e-21)
(0.0438913 0.0223953 1.75544e-21)
(0.0386237 0.0246237 -1.83772e-21)
(0.0327277 0.0263153 -3.64752e-21)
(0.0261639 0.0268224 7.44113e-21)
(0.0189428 0.0251511 -3.76692e-21)
(0.0112355 0.0198752 0)
(0.00349244 0.00896604 -3.54486e-21)
(0.0941352 0.000928622 -8.65435e-24)
(0.0939262 0.000974455 -3.53707e-23)
(0.0937077 0.00102326 1.07253e-22)
(0.093479 0.00107531 -1.44864e-22)
(0.0932394 0.00113089 6.3812e-23)
(0.0929882 0.00119031 9.36321e-24)
(0.0927247 0.00125392 -9.5231e-24)
(0.0924479 0.00132212 -2.4625e-26)
(0.0921571 0.00139534 9.86509e-24)
(0.091851 0.00147406 -2.00717e-23)
(0.0915288 0.00155881 -3.30451e-22)
(0.091189 0.00165021 3.4104e-22)
(0.0908306 0.00174893 -3.33316e-22)
(0.0904519 0.00185572 3.44074e-22)
(0.0900514 0.00197146 0)
(0.0896273 0.0020971 -2.47796e-26)
(0.0891778 0.00223376 0)
(0.0887007 0.00238268 -3.72292e-22)
(0.0881937 0.0025453 3.96482e-22)
(0.0876541 0.00272325 -1.24649e-23)
(0.0870791 0.00291843 -8.40534e-22)
(0.0864654 0.00313299 8.28127e-22)
(0.0858095 0.00336945 -1.34749e-23)
(0.0851072 0.00363072 0)
(0.0843542 0.0039202 0)
(0.0835452 0.00424187 -9.66517e-22)
(0.0826748 0.00460043 9.37153e-22)
(0.0817363 0.00500141 0)
(0.0807227 0.00545139 -3.21587e-23)
(0.0796257 0.00595823 0)
(0.078436 0.00653134 1.72182e-23)
(0.0771432 0.00718205 -1.77407e-23)
(0.0757356 0.00792402 -1.8476e-23)
(0.0741997 0.00877371 1.90357e-23)
(0.0725206 0.00975087 1.25212e-21)
(0.0706816 0.010879 -1.29233e-21)
(0.0686637 0.0121853 2.80688e-21)
(0.0664458 0.0137003 -2.80867e-21)
(0.0640045 0.0154557 2.97774e-21)
(0.0613128 0.01748 8.3387e-23)
(0.0583396 0.0197902 -3.13561e-21)
(0.0550476 0.0223764 -2.50108e-23)
(0.0513898 0.025179 1.23984e-24)
(0.0473036 0.0280527 1.6369e-24)
(0.0427017 0.0307161 2.15459e-24)
(0.0374545 0.0326834 -5.39971e-23)
(0.0313705 0.0331685 -2.47977e-23)
(0.024207 0.0309495 -2.36061e-23)
(0.0156876 0.0242558 0)
(0.00516138 0.0107994 7.25205e-24)
(0.0941798 0.00112888 -4.29471e-23)
(0.0939719 0.00118435 2.58343e-23)
(0.0937547 0.00124345 8.84482e-24)
(0.0935275 0.00130649 1.35844e-22)
(0.0932898 0.00137382 -1.35892e-22)
(0.0930407 0.00144584 1.40692e-22)
(0.0927795 0.00152298 -3.12353e-22)
(0.0925054 0.00160571 4.44877e-22)
(0.0922176 0.00169455 -3.11652e-22)
(0.0919149 0.00179011 -3.23518e-22)
(0.0915963 0.00189303 -1.63513e-23)
(0.0912608 0.00200404 6.57305e-22)
(0.090907 0.00212399 -6.92592e-22)
(0.0905335 0.00225378 3.23085e-22)
(0.0901388 0.00239448 3.48895e-22)
(0.0897213 0.00254727 3.64947e-22)
(0.0892791 0.00271349 -2.83138e-23)
(0.0888103 0.00289467 7.43784e-22)
(0.0883126 0.00309257 7.68505e-22)
(0.0877835 0.00330918 1.96072e-23)
(0.0872205 0.0035468 -8.14933e-22)
(0.0866204 0.00380808 0)
(0.0859801 0.00409607 0)
(0.0852957 0.00441433 -9.09151e-22)
(0.0845633 0.00476698 8.96093e-22)
(0.0837782 0.00515888 9.65537e-22)
(0.0829355 0.00559569 -9.66968e-22)
(0.0820295 0.00608413 0)
(0.081054 0.00663212 1.07964e-21)
(0.080002 0.0072491 -1.08172e-21)
(0.078866 0.00794632 0)
(0.0776374 0.00873721 -2.34028e-21)
(0.0763072 0.00963783 2.36197e-21)
(0.0748656 0.0106674 -1.95161e-23)
(0.0733019 0.0118485 -2.60904e-21)
(0.0716054 0.0132077 2.63326e-21)
(0.0697648 0.0147752 0)
(0.067769 0.0165835 2.9515e-21)
(0.0656065 0.018665 -2.93329e-21)
(0.0632653 0.0210461 2.37437e-23)
(0.0607308 0.0237364 3.23015e-21)
(0.0579815 0.0267119 -6.47797e-21)
(0.054982 0.0298878 2.10428e-23)
(0.0516686 0.0330796 3.76856e-23)
(0.0479265 0.0359509 3.35484e-21)
(0.0435484 0.0379451 3.70891e-24)
(0.0381741 0.0381861 -2.88519e-21)
(0.0312381 0.0353206 2.95777e-21)
(0.0217909 0.0273901 0)
(0.00749734 0.0119895 2.66281e-23)
(0.094233 0.00132531 8.45674e-24)
(0.0940267 0.00138988 7.7946e-23)
(0.0938113 0.00145875 -6.95124e-23)
(0.0935864 0.00153229 8.9287e-24)
(0.0933512 0.0016109 1.3732e-22)
(0.093105 0.00169506 -1.37535e-22)
(0.0928471 0.00178526 -2.94871e-22)
(0.0925766 0.00188206 4.30445e-24)
(0.0922927 0.00198609 -5.59276e-24)
(0.0919945 0.00209805 3.27717e-22)
(0.091681 0.00221871 -3.20322e-22)
(0.0913509 0.00234894 6.79827e-22)
(0.0910033 0.00248973 -3.38798e-22)
(0.0906367 0.00264218 1.09567e-23)
(0.0902497 0.00280754 1.12158e-23)
(0.0898408 0.00298721 7.42217e-22)
(0.0894083 0.0031828 -5.0671e-24)
(0.0889504 0.00339614 7.74993e-22)
(0.088465 0.00362931 1.23921e-23)
(0.0879499 0.00388469 0)
(0.0874027 0.00416503 0)
(0.0868206 0.00447347 -8.7082e-22)
(0.0862009 0.00481366 8.7302e-22)
(0.0855402 0.00518985 0)
(0.084835 0.00560694 1.4694e-23)
(0.0840814 0.00607071 0)
(0.0832753 0.0065879 -1.01497e-21)
(0.0824121 0.00716646 2.06642e-21)
(0.0814867 0.00781575 -1.05153e-21)
(0.0804939 0.00854689 -2.22818e-21)
(0.0794279 0.00937302 -7.44209e-23)
(0.0782829 0.0103097 -7.83843e-23)
(0.0770529 0.0113755 -8.22289e-23)
(0.0757321 0.012592 2.50355e-21)
(0.0743153 0.0139845 2.68415e-21)
(0.072798 0.0155814 -2.69054e-21)
(0.0711775 0.0174139 0)
(0.0694533 0.0195136 2.97242e-21)
(0.067627 0.0219082 -2.97933e-21)
(0.0657021 0.0246132 -3.15915e-21)
(0.0636818 0.027619 3.14174e-21)
(0.0615625 0.0308694 2.56565e-23)
(0.0593233 0.0342329 3.15122e-21)
(0.0569055 0.037462 -1.03685e-22)
(0.0541798 0.040146 -3.1125e-21)
(0.0508856 0.0416608 2.37577e-23)
(0.0465446 0.041108 0)
(0.0403512 0.0371927 -1.90088e-23)
(0.0305366 0.0281582 -9.32364e-22)
(0.0120681 0.0119208 4.11588e-22)
(-0.000196256 0.000267938 0)
(-0.000862347 0.000516017 3.16142e-22)
(-0.00186716 0.000584071 -3.16616e-22)
(-0.00290036 0.000553538 -3.16338e-22)
(-0.00381358 0.000469261 3.16813e-22)
(-0.00454717 0.000357772 -9.79257e-24)
(-0.00507219 0.000235051 0)
(-0.0053765 0.000110398 0)
(-0.0054584 -1.09609e-05 0)
(-0.00532813 -0.000128258 0)
(-0.00499791 -0.000239284 0)
(-0.00447567 -0.00034334 0)
(-0.00377212 -0.000440375 0)
(-0.00289862 -0.000530693 0)
(-0.00186558 -0.000615023 0)
(-0.000683563 -0.000692653 1.13105e-22)
(0.000636884 -0.00076429 -1.06353e-22)
(0.00208598 -0.000830262 0)
(0.00365408 -0.000890689 0)
(0.00533184 -0.000945735 -9.04944e-23)
(0.00711013 -0.000995541 9.06326e-23)
(0.00897997 -0.0010402 -7.38985e-23)
(0.0109323 -0.00107975 4.78549e-24)
(0.0129581 -0.00111427 0)
(0.0150487 -0.00114385 4.08779e-24)
(0.0171954 -0.00116866 0)
(0.0193896 -0.00118885 0)
(0.0216232 -0.0012046 0)
(0.0238882 -0.00121604 2.79435e-24)
(0.0261767 -0.00122336 0)
(0.0284814 -0.00122672 -2.21777e-24)
(0.0307948 -0.00122629 1.95009e-24)
(0.03311 -0.00122226 -1.69689e-24)
(0.0354203 -0.00121484 1.21252e-23)
(0.0377194 -0.0012042 -1.19185e-23)
(0.040001 -0.00119056 -6.32467e-24)
(0.0422597 -0.00117412 1.24047e-23)
(0.0444899 -0.0011551 -5.88487e-24)
(0.0466868 -0.00113371 -4.93507e-25)
(0.0488458 -0.00111016 3.44775e-25)
(0.0509628 -0.00108468 0)
(0.0530338 -0.00105748 8.8559e-26)
(0.0550555 -0.00102878 3.20396e-25)
(0.0570249 -0.00099878 -4.17298e-25)
(0.0589395 -0.000967702 2.01421e-25)
(0.0607969 -0.000935747 -9.01228e-25)
(0.0625955 -0.000903109 2.86948e-25)
(0.0643336 -0.000869966 8.16193e-25)
(0.0660102 -0.000836472 -4.22423e-25)
(0.0676244 -0.000802742 4.78831e-25)
(-0.000256579 0.000770717 -1.1978e-21)
(-0.000966171 0.00147975 -1.30919e-21)
(-0.00188935 0.0016749 1.29053e-21)
(-0.00279111 0.001586 -6.21525e-22)
(-0.00356028 0.00134103 6.22547e-22)
(-0.00415357 0.00101687 9.86054e-24)
(-0.00455046 0.000659521 -1.95761e-23)
(-0.00474235 0.00029572 -6.24055e-22)
(-0.00473024 -5.9314e-05 6.05649e-22)
(-0.00452271 -0.000402538 -1.83218e-23)
(-0.00412858 -0.000728039 -1.7809e-23)
(-0.00355542 -0.00103393 5.39892e-22)
(-0.00281263 -0.00131958 -5.40611e-22)
(-0.00191071 -0.00158585 -5.00258e-22)
(-0.000857604 -0.00183534 2.17674e-23)
(0.000337389 -0.00206465 4.79795e-22)
(0.00166354 -0.00227677 -6.95777e-24)
(0.00311248 -0.0024723 -1.33319e-23)
(0.00467545 -0.00265156 0)
(0.0063437 -0.00281497 0)
(0.00810868 -0.00296293 0)
(0.00996186 -0.00309572 -5.16216e-24)
(0.0118947 -0.00321347 2.82616e-22)
(0.0138986 -0.00331634 -3.06554e-22)
(0.0159653 -0.00340466 2.48542e-22)
(0.0180862 -0.00347887 -1.37404e-22)
(0.0202534 -0.00353945 -2.2088e-22)
(0.0224587 -0.00358685 1.05288e-22)
(0.0246945 -0.00362151 -2.80156e-24)
(0.0269533 -0.0036439 -5.10457e-24)
(0.0292277 -0.00365452 2.22261e-24)
(0.0315106 -0.00365387 -5.94734e-24)
(0.0337952 -0.00364249 4.91851e-23)
(0.036075 -0.00362094 -9.60381e-23)
(0.0383437 -0.00358982 4.22912e-23)
(0.0405953 -0.00354971 -3.15415e-24)
(0.0428244 -0.00350123 8.35283e-25)
(0.0450257 -0.00344501 0)
(0.0471942 -0.00338169 -7.40312e-24)
(0.0493256 -0.00331192 6.51711e-24)
(0.0514156 -0.00323633 2.04591e-24)
(0.0534605 -0.00315558 -2.83003e-24)
(0.055457 -0.00307031 -2.00377e-26)
(0.0574022 -0.00298116 -9.08954e-25)
(0.0592934 -0.00288874 1.38529e-24)
(0.0611284 -0.00279366 2.75345e-25)
(0.0629055 -0.00269651 2.43233e-24)
(0.0646231 -0.00259783 5.66099e-25)
(0.0662802 -0.00249805 -7.41531e-25)
(0.0678758 -0.00239751 -1.3881e-24)
(-0.000361823 0.00117945 -1.23737e-21)
(-0.00113695 0.00224053 1.35869e-21)
(-0.00188606 0.00254035 -1.31812e-21)
(-0.00252725 0.00240141 -2.05959e-23)
(-0.00301656 0.00201943 -3.10701e-25)
(-0.00334007 0.00151362 -1.26554e-21)
(-0.00349261 0.00095396 1.30704e-21)
(-0.00347116 0.000381297 1.25616e-21)
(-0.00328034 -0.000179922 -1.13491e-23)
(-0.00292646 -0.000724049 -2.36483e-21)
(-0.00241275 -0.00124231 2.33399e-21)
(-0.00174451 -0.00173199 -1.12336e-21)
(-0.000928466 -0.00219107 -1.70461e-23)
(2.54012e-05 -0.00262104 0)
(0.00111509 -0.00302172 9.94412e-22)
(0.00233358 -0.00339392 -6.02687e-23)
(0.00366878 -0.00373937 -9.20911e-22)
(0.00511584 -0.00405822 2.71118e-23)
(0.00666751 -0.0043511 0)
(0.00831618 -0.00461867 0)
(0.0100543 -0.00486145 3.50923e-22)
(0.0118745 -0.00507981 -3.40539e-22)
(0.0137688 -0.00527391 -2.94481e-22)
(0.0157297 -0.00544399 3.13644e-22)
(0.0177493 -0.00559034 8.55106e-24)
(0.0198201 -0.00571376 -7.85561e-24)
(0.0219343 -0.00581494 7.17831e-24)
(0.0240846 -0.00589458 -1.88895e-22)
(0.0262637 -0.00595336 1.95602e-22)
(0.0284646 -0.00599201 -1.4639e-22)
(0.0306802 -0.00601131 1.56948e-22)
(0.032904 -0.00601205 4.00915e-24)
(0.0351292 -0.00599511 1.05516e-22)
(0.0373498 -0.00596138 -1.93147e-22)
(0.0395597 -0.0059118 9.31714e-23)
(0.0417532 -0.00584735 3.37709e-23)
(0.0439251 -0.00576903 -2.98273e-23)
(0.0460701 -0.00567785 0)
(0.0481837 -0.00557487 -9.18889e-26)
(0.0502614 -0.00546114 0)
(0.0522992 -0.00533773 5.95855e-24)
(0.0542936 -0.00520568 -5.8214e-24)
(0.0562413 -0.00506607 7.16289e-26)
(0.0581393 -0.00491993 -6.4148e-26)
(0.0599851 -0.00476831 -3.39909e-24)
(0.0617767 -0.00461219 7.35746e-24)
(0.0635121 -0.00445254 -4.5307e-24)
(0.0651899 -0.00429024 3.09641e-24)
(0.066809 -0.00412603 -2.20834e-24)
(0.0683684 -0.00396038 -8.57754e-25)
(-0.000484454 0.0014175 -2.65439e-21)
(-0.00129512 0.00268281 0)
(-0.00175121 0.00305752 2.77009e-21)
(-0.00201149 0.00288026 -5.54665e-21)
(-0.00210266 0.00239979 2.79763e-21)
(-0.00204946 0.00176213 1.29019e-21)
(-0.00186589 0.00105169 -1.35358e-21)
(-0.00155286 0.000319512 1.27718e-21)
(-0.00111829 -0.000404584 -2.54317e-21)
(-0.000566445 -0.00111215 1.24637e-21)
(0.000106872 -0.00179054 1.87999e-23)
(0.000900894 -0.00243475 2.47941e-25)
(0.00181304 -0.00304329 1.73394e-23)
(0.00283777 -0.00361632 -1.07015e-21)
(0.00397363 -0.00415128 1.0376e-21)
(0.00521682 -0.00465272 3.08658e-23)
(0.00656116 -0.00511939 -1.45842e-23)
(0.00800219 -0.00555159 8.69868e-22)
(0.00953457 -0.00595001 -8.69926e-22)
(0.0111525 -0.0063152 -1.26083e-23)
(0.01285 -0.00664765 0)
(0.014621 -0.00694769 2.53871e-25)
(0.016459 -0.00721541 0)
(0.018357 -0.0074508 9.60654e-24)
(0.0203087 -0.00765434 2.40319e-25)
(0.0223069 -0.0078267 7.93e-24)
(0.024345 -0.00796892 -4.55628e-22)
(0.0264163 -0.00808182 4.48764e-22)
(0.0285143 -0.00816626 0)
(0.0306323 -0.00822314 -1.6334e-22)
(0.0327641 -0.00825345 1.68526e-22)
(0.0349033 -0.00825825 0)
(0.037044 -0.00823866 -1.77094e-25)
(0.0391802 -0.00819588 -9.87042e-23)
(0.0413064 -0.00813116 1.79496e-22)
(0.0434172 -0.00804582 -1.48683e-22)
(0.0455074 -0.00794119 1.22885e-22)
(0.0475724 -0.00781867 -9.88139e-23)
(0.0496077 -0.00767969 4.35563e-23)
(0.051609 -0.00752567 1.18182e-23)
(0.0535726 -0.00735808 -1.06146e-23)
(0.0554949 -0.00717838 -3.98222e-25)
(0.0573728 -0.006988 -7.77496e-26)
(0.0592036 -0.00678841 -2.89129e-24)
(0.0609848 -0.00658101 2.81241e-24)
(0.0627142 -0.0063672 7.44866e-26)
(0.0643901 -0.00614829 -5.93743e-25)
(0.0660111 -0.0059255 -6.33078e-26)
(0.0675758 -0.00569985 8.04827e-25)
(0.0690835 -0.00547186 -1.71735e-24)
(-0.000541226 0.00141533 -1.45361e-24)
(-0.00126257 0.00273445 -2.46117e-23)
(-0.00131026 0.00314406 -2.39278e-23)
(-0.00108649 0.00295139 -2.33171e-23)
(-0.000691049 0.00242564 -4.50099e-23)
(-0.000190618 0.00171901 -4.33008e-25)
(0.000384811 0.000924663 2.13815e-23)
(0.00103283 0.000102422 -2.12404e-23)