/*--------------------------------*- C++ -*----------------------------------*\
| =========                 |                                                 |
| \\      /  F ield         | OpenFOAM: The Open Source CFD Toolbox           |
|  \\    /   O peration     | Version:  2412                                  |
|   \\  /    A nd           | Website:  www.openfoam.com                      |
|    \\/     M anipulation  |                                                 |
\*---------------------------------------------------------------------------*/
FoamFile
{
    version     2.0;
    format      ascii;
    arch        "LSB;label=32;scalar=64";
    class       volVectorField;
    location    "28.5";
    object      vorticity;
}
// * * * * * * * * * * * * * * * * * * * * * * * * * * * * * * * * * * * * * //

dimensions      [0 0 -1 0 0 0 0];

internalField   nonuniform List<vector> 
63420
(
(0 0 5.96673e-06)
(0 0 5.93996e-06)
(0 0 5.91434e-06)
(0 0 5.89025e-06)
(0 0 5.86732e-06)
(0 0 5.84294e-06)
(0 0 5.81499e-06)
(0 0 5.79145e-06)
(0 0 5.80359e-06)
(0 0 5.91336e-06)
(0 0 6.2044e-06)
(0 0 6.75411e-06)
(0 0 7.59514e-06)
(0 0 8.68257e-06)
(0 0 9.88267e-06)
(0 0 1.09902e-05)
(0 0 1.177e-05)
(0 0 1.20095e-05)
(0 0 1.15661e-05)
(0 0 1.03962e-05)
(0 0 8.5608e-06)
(0 0 6.20868e-06)
(0 0 3.54538e-06)
(0 0 7.96179e-07)
(0 0 -1.82775e-06)
(0 0 -4.15462e-06)
(0 0 -6.0661e-06)
(0 0 -7.50067e-06)
(0 0 -8.44847e-06)
(0 0 -8.94084e-06)
(0 0 -9.03748e-06)
(0 0 -8.81376e-06)
(0 0 -8.34992e-06)
(0 0 -7.72275e-06)
(0 0 -7.00021e-06)
(0 0 -6.23844e-06)
(0 0 -5.48089e-06)
(0 0 -4.75885e-06)
(0 0 -4.09286e-06)
(0 0 -3.49458e-06)
(0 0 -2.96879e-06)
(0 0 -2.51523e-06)
(0 0 -2.1302e-06)
(0 0 -1.80789e-06)
(0 0 -1.5414e-06)
(0 0 -1.32347e-06)
(0 0 -1.14691e-06)
(0 0 -1.0047e-06)
(0 0 -8.89395e-07)
(0 0 -7.9043e-07)
(0 0 -6.84883e-07)
(0 0 -5.07451e-07)
(0 0 -5.68729e-08)
(0 0 1.28666e-06)
(0 4.39151e-23 5.38244e-06)
(0 0 1.79e-05)
(0 0 1.78197e-05)
(0 0 1.77425e-05)
(0 0 1.76696e-05)
(0 0 1.76002e-05)
(0 0 1.75266e-05)
(0 0 1.74427e-05)
(0 0 1.73723e-05)
(0 0 1.74088e-05)
(0 0 1.77371e-05)
(0 0 1.86072e-05)
(0 0 2.02506e-05)
(0 0 2.27655e-05)
(0 0 2.60185e-05)
(0 0 2.96111e-05)
(0 0 3.29307e-05)
(0 0 3.5275e-05)
(0 0 3.60088e-05)
(0 0 3.47047e-05)
(0 0 3.12311e-05)
(0 0 2.5768e-05)
(0 0 1.87583e-05)
(0 0 1.08143e-05)
(0 0 2.6079e-06)
(0 0 -5.23073e-06)
(0 0 -1.21883e-05)
(0 0 -1.79107e-05)
(0 0 -2.22132e-05)
(0 0 -2.50652e-05)
(0 0 -2.6559e-05)
(0 0 -2.68716e-05)
(0 0 -2.62271e-05)
(0 0 -2.48643e-05)
(0 0 -2.3012e-05)
(0 0 -2.08727e-05)
(0 0 -1.86139e-05)
(0 0 -1.63653e-05)
(0 0 -1.42203e-05)
(0 0 -1.22405e-05)
(0 0 -1.0461e-05)
(0 0 -8.89622e-06)
(0 0 -7.54572e-06)
(0 0 -6.39864e-06)
(0 0 -5.43783e-06)
(0 0 -4.64288e-06)
(0 0 -3.99223e-06)
(0 0 -3.46452e-06)
(0 0 -3.03895e-06)
(0 0 -2.69347e-06)
(0 0 -2.3971e-06)
(0 0 -2.08306e-06)
(0 0 -1.56168e-06)
(0 0 -2.48192e-07)
(0 0 3.66079e-06)
(0 4.43854e-23 1.55843e-05)
(0 0 2.9821e-05)
(0 0 2.96873e-05)
(0 0 2.95584e-05)
(0 0 2.94367e-05)
(0 0 2.93208e-05)
(0 0 2.91982e-05)
(0 0 2.90585e-05)
(0 0 2.89412e-05)
(0 0 2.90012e-05)
(0 0 2.95455e-05)
(0 0 3.09895e-05)
(0 0 3.37192e-05)
(0 0 3.78998e-05)
(0 0 4.33134e-05)
(0 0 4.93013e-05)
(0 0 5.48489e-05)
(0 0 5.87905e-05)
(0 0 6.00697e-05)
(0 0 5.79735e-05)
(0 0 5.22776e-05)
(0 0 4.32754e-05)
(0 0 3.16963e-05)
(0 0 1.85525e-05)
(0 0 4.95641e-06)
(0 0 -8.04672e-06)
(0 0 -1.96042e-05)
(0 0 -2.91264e-05)
(0 0 -3.63038e-05)
(0 0 -4.10823e-05)
(0 0 -4.36118e-05)
(0 0 -4.41832e-05)
(0 0 -4.31658e-05)
(0 0 -4.09541e-05)
(0 0 -3.79262e-05)
(0 0 -3.44176e-05)
(0 0 -3.07056e-05)
(0 0 -2.70055e-05)
(0 0 -2.34727e-05)
(0 0 -2.02097e-05)
(0 0 -1.72751e-05)
(0 0 -1.46935e-05)
(0 0 -1.24644e-05)
(0 0 -1.05705e-05)
(0 0 -8.98365e-06)
(0 0 -7.67044e-06)
(0 0 -6.59539e-06)
(0 0 -5.72339e-06)
(0 0 -5.02025e-06)
(0 0 -4.45006e-06)
(0 0 -3.96327e-06)
(0 0 -3.45506e-06)
(0 0 -2.62994e-06)
(0 0 -5.76116e-07)
(0 0 5.52757e-06)
(0 2.61869e-22 2.41914e-05)
(0 0 4.17217e-05)
(0 0 4.15345e-05)
(0 0 4.13539e-05)
(0 0 4.11833e-05)
(0 0 4.10209e-05)
(0 0 4.08493e-05)
(0 0 4.06542e-05)
(0 0 4.04902e-05)
(0 0 4.05724e-05)
(0 0 4.13284e-05)
(0 0 4.3338e-05)
(0 0 4.71416e-05)
(0 0 5.2975e-05)
(0 0 6.05411e-05)
(0 0 6.89291e-05)
(0 0 7.67305e-05)
(0 0 8.23227e-05)
(0 0 8.42308e-05)
(0 0 8.14537e-05)
(0 0 7.36684e-05)
(0 0 6.12709e-05)
(0 0 4.5266e-05)
(0 0 2.7054e-05)
(0 0 8.17833e-06)
(0 0 -9.90745e-06)
(0 0 -2.60148e-05)
(0 0 -3.93185e-05)
(0 0 -4.93819e-05)
(0 0 -5.6123e-05)
(0 0 -5.97439e-05)
(0 0 -6.06435e-05)
(0 0 -5.93311e-05)
(0 0 -5.63517e-05)
(0 0 -5.22291e-05)
(0 0 -4.74283e-05)
(0 0 -4.23349e-05)
(0 0 -3.72483e-05)
(0 0 -3.23852e-05)
(0 0 -2.78889e-05)
(0 0 -2.3842e-05)
(0 0 -2.02797e-05)
(0 0 -1.72023e-05)
(0 0 -1.45865e-05)
(0 0 -1.23943e-05)
(0 0 -1.05798e-05)
(0 0 -9.09426e-06)
(0 0 -7.88944e-06)
(0 0 -6.91846e-06)
(0 0 -6.13269e-06)
(0 0 -5.46692e-06)
(0 0 -4.78766e-06)
(0 0 -3.72348e-06)
(0 0 -1.12815e-06)
(0 0 6.56579e-06)
(0 -1.71898e-22 3.02002e-05)
(0 0 5.35945e-05)
(0 0 5.33533e-05)
(0 0 5.31205e-05)
(0 0 5.2901e-05)
(0 0 5.26922e-05)
(0 0 5.2472e-05)
(0 0 5.2222e-05)
(0 0 5.20113e-05)
(0 0 5.2114e-05)
(0 0 5.3076e-05)
(0 0 5.56398e-05)
(0 0 6.05008e-05)
(0 0 6.79688e-05)
(0 0 7.76757e-05)
(0 0 8.84691e-05)
(0 0 9.85578e-05)
(0 0 0.000105871)
(0 0 0.000108519)
(0 0 0.000105209)
(0 0 9.55123e-05)
(0 0 7.99128e-05)
(0 0 5.96751e-05)
(0 0 3.65723e-05)
(0 0 1.25658e-05)
(0 0 -1.04916e-05)
(0 0 -3.10803e-05)
(0 0 -4.81398e-05)
(0 0 -6.11031e-05)
(0 0 -6.98544e-05)
(0 0 -7.46408e-05)
(0 0 -7.59615e-05)
(0 0 -7.4458e-05)
(0 0 -7.08195e-05)
(0 0 -6.57102e-05)
(0 0 -5.97207e-05)
(0 0 -5.33417e-05)
(0 0 -4.69551e-05)
(0 0 -4.08383e-05)
(0 0 -3.51752e-05)
(0 0 -3.00728e-05)
(0 0 -2.55775e-05)
(0 0 -2.16916e-05)
(0 0 -1.83868e-05)
(0 0 -1.56159e-05)
(0 0 -1.33216e-05)
(0 0 -1.14429e-05)
(0 0 -9.91919e-06)
(0 0 -8.69181e-06)
(0 0 -7.7008e-06)
(0 0 -6.86905e-06)
(0 0 -6.0463e-06)
(0 0 -4.82499e-06)
(0 0 -1.95096e-06)
(0 0 6.51414e-06)
(0 8.48579e-23 3.27138e-05)
(0 0 6.54329e-05)
(0 0 6.51353e-05)
(0 0 6.48501e-05)
(0 0 6.45817e-05)
(0 0 6.43267e-05)
(0 0 6.40583e-05)
(0 0 6.37539e-05)
(0 0 6.34967e-05)
(0 0 6.36178e-05)
(0 0 6.47789e-05)
(0 0 6.78828e-05)
(0 0 7.37805e-05)
(0 0 8.28606e-05)
(0 0 9.46933e-05)
(0 0 0.000107898)
(0 0 0.000120314)
(0 0 0.000129433)
(0 0 0.000132954)
(0 0 0.000129293)
(0 0 0.000117901)
(0 0 9.93345e-05)
(0 0 7.50995e-05)
(0 0 4.73225e-05)
(0 0 1.83672e-05)
(0 0 -9.526e-06)
(0 0 -3.45117e-05)
(0 0 -5.52951e-05)
(0 0 -7.11744e-05)
(0 0 -8.19933e-05)
(0 0 -8.80347e-05)
(0 0 -8.98887e-05)
(0 0 -8.83203e-05)
(0 0 -8.41547e-05)
(0 0 -7.81898e-05)
(0 0 -7.11369e-05)
(0 0 -6.35885e-05)
(0 0 -5.6007e-05)
(0 0 -4.87292e-05)
(0 0 -4.19797e-05)
(0 0 -3.58902e-05)
(0 0 -3.05195e-05)
(0 0 -2.58726e-05)
(0 0 -2.19177e-05)
(0 0 -1.85997e-05)
(0 0 -1.58509e-05)
(0 0 -1.35991e-05)
(0 0 -1.17724e-05)
(0 0 -1.03013e-05)
(0 0 -9.11614e-06)
(0 0 -8.13194e-06)
(0 0 -7.19491e-06)
(0 0 -5.90766e-06)
(0 0 -3.0652e-06)
(0 0 5.15118e-06)
(0 4.18707e-22 3.08837e-05)
(0 0 7.72281e-05)
(0 0 7.68715e-05)
(0 0 7.6534e-05)
(0 0 7.62171e-05)
(0 0 7.59163e-05)
(0 0 7.56001e-05)
(0 0 7.52421e-05)
(0 0 7.49385e-05)
(0 0 7.50756e-05)
(0 0 7.64277e-05)
(0 0 8.00556e-05)
(0 0 8.6966e-05)
(0 0 9.76316e-05)
(0 0 0.000111572)
(0 0 0.000127192)
(0 0 0.000141979)
(0 0 0.000152999)
(0 0 0.000157546)
(0 0 0.000153739)
(0 0 0.000140897)
(0 0 0.000119633)
(0 0 9.16709e-05)
(0 0 5.94689e-05)
(0 0 2.57746e-05)
(0 0 -6.79687e-06)
(0 0 -3.60812e-05)
(0 0 -6.05495e-05)
(0 0 -7.93614e-05)
(0 0 -9.23117e-05)
(0 0 -9.97093e-05)
(0 0 -0.000102224)
(0 0 -0.000100734)
(0 0 -9.61919e-05)
(0 0 -8.9521e-05)
(0 0 -8.1548e-05)
(0 0 -7.29631e-05)
(0 0 -6.43068e-05)
(0 0 -5.59741e-05)
(0 0 -4.82302e-05)
(0 0 -4.12321e-05)
(0 0 -3.50519e-05)
(0 0 -2.96987e-05)
(0 0 -2.51384e-05)
(0 0 -2.13094e-05)
(0 0 -1.81351e-05)
(0 0 -1.55333e-05)
(0 0 -1.34218e-05)
(0 0 -1.17215e-05)
(0 0 -1.03547e-05)
(0 0 -9.23189e-06)
(0 0 -8.20808e-06)
(0 0 -6.94149e-06)
(0 0 -4.45299e-06)
(0 0 2.30611e-06)
(0 -8.1901e-23 2.37593e-05)
(-1.79627e-23 7.9175e-21 3.35842e-06)
(-1.4416e-22 7.78449e-21 2.70698e-06)
(3.13386e-23 -1.9276e-22 1.8264e-06)
(3.9626e-23 -2.3234e-20 6.73462e-07)
(-8.99487e-23 7.93523e-21 -7.87792e-07)
(3.52179e-22 7.79312e-21 -2.58607e-06)
(-7.75069e-22 2.27205e-20 -4.74474e-06)
(3.04938e-22 -2.3083e-20 -7.28426e-06)
(6.13033e-22 -7.42797e-21 -1.02244e-05)
(-8.73879e-22 -3.65299e-24 -1.35859e-05)
(-8.72241e-22 -7.43913e-21 -1.7392e-05)
(7.63772e-22 7.06898e-21 -2.16691e-05)
(5.59031e-22 -5.81983e-20 -2.64481e-05)
(-1.03502e-21 1.24913e-19 -3.17645e-05)
(3.59523e-22 -6.71793e-20 -3.76577e-05)
(-1.19443e-21 -5.06412e-20 -4.41819e-05)
(2.31217e-21 -6.44889e-20 -5.1382e-05)
(-1.81e-21 7.59285e-21 -5.93469e-05)
(-1.82419e-22 -7.08658e-21 -6.81243e-05)
(6.87204e-23 7.08932e-21 -7.7818e-05)
(-3.06592e-24 -1.254e-22 -8.85118e-05)
(-6.36645e-23 -6.83593e-21 -0.00010032)
(-1.96231e-21 6.89271e-21 -0.000113372)
(4.1e-21 1.26054e-23 -0.000127819)
(1.19396e-21 6.6887e-21 -0.000143836)
(-3.19453e-21 -5.1859e-24 -0.00016163)
(4.59399e-21 7.75657e-21 -0.000181445)
(-5.41295e-21 1.00685e-19 -0.000203581)
(6.94458e-22 -1.0811e-19 -0.000228408)
(-2.10287e-21 9.8677e-20 -0.000256406)
(2.04908e-21 -9.97904e-20 -0.000288221)
(4.72788e-23 1.30736e-21 -0.000324774)
(-6.14662e-23 -1.60315e-21 -0.000367451)
(2.73723e-21 -9.42581e-20 -0.00041844)
(-8.45254e-21 9.14659e-20 -0.000481336)
(-3.04156e-22 -1.50689e-21 -0.000562192)
(6.03363e-21 1.31962e-23 -0.000671294)
(6.55095e-21 1.43276e-23 -0.000826088)
(-6.52999e-21 -1.42817e-23 -0.00105576)
(-2.1623e-22 -4.72917e-25 -0.00140809)
(-2.25258e-22 -4.92661e-25 -0.00195898)
(-7.74173e-21 -1.69319e-23 -0.00282474)
(7.47291e-21 1.6344e-23 -0.00417589)
(-2.46395e-22 1.46448e-22 -0.0062497)
(-3.51319e-23 7.57226e-21 -0.00935625)
(-2.3866e-20 4.89267e-20 -0.0138699)
(2.29882e-20 -6.44931e-20 -0.0201948)
(-5.39527e-21 -9.1036e-21 -0.028692)
(5.92893e-21 2.49981e-20 -0.0395633)
(-1.96623e-20 -5.48904e-21 -0.0526166)
(-2.54377e-22 7.92733e-21 9.87914e-06)
(-1.06124e-22 1.55933e-20 7.85844e-06)
(2.90197e-22 7.58212e-21 5.09387e-06)
(-8.46338e-22 -7.79738e-21 1.45801e-06)
(1.57301e-21 7.43823e-21 -3.15063e-06)
(-4.72203e-22 -5.32355e-20 -8.81124e-06)
(-2.39378e-22 8.4518e-20 -1.55887e-05)
(-5.37544e-23 -8.78421e-21 -2.3542e-05)
(2.14884e-21 -9.72998e-20 -3.27306e-05)
(-2.24761e-21 1.37342e-19 -4.32191e-05)
(-8.50046e-22 1.25492e-19 -5.50812e-05)
(6.31065e-22 -1.12869e-19 -6.84027e-05)
(-3.82507e-22 7.16737e-22 -8.32825e-05)
(2.73074e-21 -7.18771e-21 -9.98349e-05)
(-2.13493e-21 2.38685e-20 -0.000118195)
(-5.92044e-21 2.37245e-19 -0.000138517)
(1.68293e-21 -2.23038e-19 -0.000161012)
(-5.55017e-21 2.39004e-19 -0.000185838)
(-2.99325e-22 1.93589e-20 -0.00021327)
(-3.73947e-21 -7.24474e-21 -0.000243543)
(3.95522e-21 1.41502e-22 -0.000276981)
(-3.97058e-21 8.97973e-21 -0.000313949)
(8.78521e-22 2.07333e-19 -0.00035486)
(6.01586e-21 -4.38858e-19 -0.000400195)
(4.53865e-21 -2.0955e-19 -0.000450513)
(-7.09359e-21 4.24274e-19 -0.000506473)
(3.84484e-21 -4.22769e-19 -0.000568856)
(-2.22222e-21 4.33752e-19 -0.000638611)
(3.20052e-21 1.46168e-21 -0.00071691)
(-3.62833e-21 -9.50846e-23 -0.000805262)
(-1.21887e-21 -2.66579e-24 -0.000905691)
(0 0 -0.00102106)
(1.80033e-22 9.34066e-23 -0.00115563)
(1.07529e-20 1.20728e-20 -0.00131612)
(-1.57864e-20 3.52833e-19 -0.00151351)
(-1.53628e-20 -2.38967e-20 -0.00176624)
(1.85574e-20 -3.47761e-19 -0.00210561)
(2.63263e-20 -3.00061e-19 -0.0025846)
(-9.62433e-21 3.20514e-19 -0.00329185)
(-3.02936e-20 2.12737e-21 -0.00437225)
(2.95096e-20 1.68407e-20 -0.0060559)
(-4.13437e-20 2.27708e-19 -0.00869487)
(2.25508e-20 -2.36852e-19 -0.0128049)
(-1.74462e-20 1.42226e-20 -0.0191029)
(1.93211e-20 7.46101e-21 -0.0285254)
(-5.80373e-20 1.09486e-19 -0.0422019)
(5.7955e-20 -1.07175e-19 -0.0613484)
(-8.8628e-20 7.98055e-20 -0.087031)
(8.55265e-20 -8.9149e-20 -0.119786)
(-1.81684e-20 -6.09037e-22 -0.157708)
(-6.33023e-23 4.6977e-20 1.58452e-05)
(-8.98769e-23 1.48548e-20 1.22085e-05)
(3.93092e-22 -6.15364e-20 7.13776e-06)
(-8.43692e-22 1.22381e-19 4.36832e-07)
(1.85278e-21 -2.61929e-19 -8.03503e-06)
(3.15208e-22 1.24518e-19 -1.83849e-05)
(-2.39029e-21 -8.47579e-22 -3.07058e-05)
(1.53424e-21 -1.68958e-20 -4.50909e-05)
(1.57545e-21 -2.55442e-19 -6.16428e-05)
(5.98402e-22 2.43362e-19 -8.04801e-05)
(-8.36999e-22 -1.58828e-21 -0.000101742)
(-4.12009e-21 -1.53232e-23 -0.00012559)
(6.53101e-21 -1.80958e-21 -0.000152215)
(-3.71742e-21 -2.48945e-19 -0.000181836)
(4.9209e-21 2.26172e-19 -0.000214707)
(-1.14849e-20 4.4936e-19 -0.000251139)
(-4.71942e-21 -1.18765e-20 -0.000291475)
(-4.94767e-21 4.62242e-19 -0.000336113)
(4.09686e-22 -1.40273e-20 -0.000385458)
(-1.25002e-20 4.48627e-19 -0.000440032)
(1.2434e-20 -4.65895e-19 -0.000500428)
(-9.38994e-21 4.44706e-19 -0.000567332)
(2.74558e-21 -4.62522e-19 -0.000641526)
(5.14549e-21 -9.25247e-21 -0.000723915)
(-2.56356e-21 1.35468e-20 -0.000815552)
(5.45927e-21 -8.75254e-21 -0.000917675)
(-1.90201e-20 4.16325e-19 -0.00103175)
(1.71617e-20 -4.43655e-19 -0.00115954)
(1.86959e-20 -4.12022e-19 -0.00130322)
(-1.54249e-20 4.1386e-19 -0.00146555)
(-1.06375e-21 -5.07908e-21 -0.00165019)
(1.10031e-20 -1.19053e-22 -0.00186224)
(-1.25646e-20 -2.43476e-20 -0.00210922)
(5.36971e-20 -7.50548e-19 -0.0024028)
(1.63055e-20 5.57654e-20 -0.00276192)
(-7.02895e-20 7.06367e-19 -0.00321821)
(3.87431e-21 -1.21019e-20 -0.00382515)
(-1.12282e-20 -4.72712e-21 -0.00467315)
(1.09457e-19 -5.91278e-19 -0.00591317)
(-2.0369e-19 1.16073e-18 -0.00779179)
(2.07584e-19 -1.1522e-18 -0.0107)
(6.93978e-20 8.36721e-20 -0.0152351)
(-1.5491e-19 5.03692e-19 -0.0222714)
(-1.6191e-19 3.46725e-19 -0.0330234)
(1.53097e-19 -4.11091e-19 -0.0490785)
(-2.16125e-20 1.89537e-20 -0.0723546)
(5.33903e-20 -1.68491e-20 -0.104915)
(1.59711e-19 -9.90462e-20 -0.148525)
(-1.72961e-19 1.54874e-19 -0.203886)
(-2.47424e-20 -3.98179e-20 -0.263416)
(4.15839e-22 -3.09849e-20 2.07804e-05)
(-3.65901e-22 1.56621e-20 1.49566e-05)
(6.70688e-22 -1.67291e-22 6.68828e-06)
(-5.92993e-22 -1.54076e-20 -4.21708e-06)
(-9.38833e-22 -1.41446e-21 -1.78777e-05)
(3.44343e-21 -2.41781e-19 -3.43926e-05)
(-4.94727e-21 4.57741e-19 -5.38694e-05)
(2.43706e-21 -2.46404e-19 -7.64388e-05)
(-1.80241e-21 1.48664e-20 -0.000102262)
(4.979e-21 -2.69749e-19 -0.000131534)
(-5.92992e-21 2.46057e-19 -0.000164489)
(-4.46235e-21 4.69808e-19 -0.000201404)
(1.14374e-20 -9.50273e-19 -0.0002426)
(-1.36173e-20 9.49036e-19 -0.000288446)
(1.78162e-20 -9.4443e-19 -0.000339368)
(-1.20271e-20 9.35702e-19 -0.000395877)
(-1.02232e-20 4.76042e-19 -0.000458565)
(-6.99985e-22 -3.70598e-21 -0.000528055)
(4.43678e-21 3.85256e-21 -0.000605071)
(-8.02027e-21 4.38738e-19 -0.000690467)
(-1.3927e-21 -4.60709e-19 -0.000785225)
(1.4569e-20 1.25554e-20 -0.000890488)
(-3.43059e-20 8.84006e-19 -0.00100756)
(2.62648e-20 -8.86837e-19 -0.00113793)
(2.25419e-21 -5.34175e-21 -0.00128338)
(-9.60295e-21 -8.96635e-23 -0.00144594)
(1.46311e-20 -1.33919e-20 -0.00162804)
(-4.74779e-21 1.21752e-22 -0.00183257)
(-5.2073e-21 -6.42522e-23 -0.00206309)
(4.96414e-21 1.92879e-22 -0.00232401)
(-3.69925e-21 1.46465e-21 -0.00262112)
(6.40863e-20 -7.80938e-19 -0.00296232)
(-5.82546e-20 8.0309e-19 -0.00335898)
(-1.5852e-20 2.29115e-22 -0.00382851)
(1.84888e-20 -1.02155e-20 -0.00439869)
(-9.95581e-20 7.15229e-19 -0.00511549)
(1.15734e-19 -7.18346e-19 -0.00605623)
(-2.22831e-20 2.15941e-21 -0.00735122)
(1.57553e-20 -9.19572e-23 -0.00921773)
(3.74463e-20 6.2687e-21 -0.0120104)
(-2.45166e-19 5.34347e-19 -0.016291)
(3.64462e-19 -1.08259e-18 -0.0229179)
(-1.77894e-19 5.4826e-19 -0.033147)
(2.56478e-19 -4.18578e-19 -0.0487279)
(-2.48405e-19 4.93044e-19 -0.0719601)
(-5.7544e-19 5.07276e-19 -0.105653)
(1.08524e-18 -1.07475e-18 -0.152878)
(-5.30602e-19 5.42529e-19 -0.216252)
(1.83367e-20 -2.07714e-21 -0.296456)
(4.40492e-21 -3.4181e-20 -0.372872)
(-7.30806e-22 1.57424e-20 2.40778e-05)
(-3.33695e-22 6.03143e-20 1.48395e-05)
(2.12015e-21 -1.83076e-19 1.69232e-06)
(-1.54936e-21 2.45618e-19 -1.53491e-05)
(-1.42169e-22 -1.08737e-19 -3.62877e-05)
(1.24537e-22 -1.45457e-20 -6.11894e-05)
(-4.77915e-22 1.53179e-20 -9.01876e-05)
(2.9735e-21 -1.83193e-22 -0.00012348)
(-2.8097e-21 -1.49719e-20 -0.000161325)
(-5.18001e-21 3.35239e-20 -0.000204043)
(-7.40324e-21 4.77869e-19 -0.000252014)
(1.86595e-20 -4.96627e-19 -0.000305685)
(-2.29021e-20 4.6312e-19 -0.000365575)
(1.91989e-20 -4.81718e-19 -0.000432274)
(-2.95466e-21 3.33739e-21 -0.000506461)
(1.08071e-20 4.67304e-23 -0.000588936)
(4.10673e-21 3.65428e-21 -0.000680626)
(-5.81962e-21 4.49616e-19 -0.000782539)
(2.05753e-20 -4.86486e-19 -0.000895826)
(6.2198e-21 2.66102e-20 -0.00102184)
(-4.64833e-20 9.26388e-19 -0.00116214)
(3.00757e-20 -9.28906e-19 -0.00131852)
(9.99498e-21 2.23666e-20 -0.00149306)
(-1.77633e-20 -2.29588e-22 -0.00168815)
(1.16236e-20 9.48681e-21 -0.00190658)
(-4.0071e-20 8.88983e-19 -0.00215159)
(3.33387e-20 -8.80536e-19 -0.00242702)
(2.79288e-21 9.47192e-21 -0.00273744)
(9.32646e-21 2.69551e-20 -0.00308836)
(-1.13254e-20 -5.40937e-22 -0.00348658)
(1.19272e-21 -1.28796e-20 -0.0039408)
(-3.67481e-20 1.30711e-20 -0.0044626)
(3.44964e-20 1.24457e-20 -0.00506825)
(-3.0165e-21 -2.48709e-20 -0.00578194)
(8.40099e-20 -7.29222e-19 -0.00664151)
(-7.52999e-20 7.51684e-19 -0.00770857)
(2.71213e-19 -1.44427e-18 -0.00908583)
(-2.49242e-19 1.45826e-18 -0.0109456)
(3.07206e-19 -1.36221e-18 -0.0135748)
(6.98261e-20 1.30744e-19 -0.0174419)
(-3.52204e-19 1.2966e-18 -0.0232897)
(-1.18239e-19 -2.1726e-20 -0.0322555)
(1.60975e-20 3.79814e-22 -0.0460096)
(-1.78836e-20 5.49596e-22 -0.0668965)
(5.28632e-20 1.62321e-21 -0.0980483)
(2.5371e-20 1.32282e-20 -0.143417)
(-1.1032e-19 4.98879e-21 -0.207577)
(6.2888e-20 4.83208e-21 -0.294793)
(-1.60806e-22 -3.01912e-22 -0.406217)
(3.51664e-20 6.18704e-22 -0.495973)
(-7.82549e-22 7.59107e-20 2.48589e-05)
(1.66176e-21 -4.62767e-20 9.52563e-06)
(-1.61629e-21 -1.6298e-20 -1.14715e-05)
(4.85373e-21 -2.26687e-19 -3.75998e-05)
(-2.52211e-21 2.28532e-19 -6.87603e-05)
(2.28892e-21 -2.26068e-19 -0.000105053)
(-1.14172e-20 4.98468e-19 -0.000146713)
(1.22981e-20 -6.97873e-19 -0.000194079)
(-7.99645e-21 4.93363e-19 -0.000247581)
(-6.51753e-21 4.80894e-19 -0.000307735)
(-2.2023e-21 3.94531e-21 -0.000375148)
(2.53876e-20 -9.44381e-19 -0.000450519)
(-2.24559e-20 9.82476e-19 -0.000534655)
(5.72718e-21 -4.62086e-19 -0.000628473)
(1.26567e-20 -4.64237e-19 -0.000733018)
(2.28563e-20 -4.56601e-19 -0.000849497)
(-3.26892e-21 6.40646e-21 -0.000979323)
(3.93546e-20 -9.46759e-19 -0.00112409)
(3.09397e-20 -9.08622e-19 -0.00128556)
(6.54322e-21 2.11587e-20 -0.00146583)
(-2.81689e-20 9.43408e-19 -0.00166729)
(-1.97993e-20 -7.94681e-21 -0.00189274)
(1.20901e-20 8.80308e-21 -0.00214536)
(-5.22846e-20 9.12403e-19 -0.00242889)
(4.28782e-20 -9.2665e-19 -0.00274765)
(7.42566e-20 -8.89657e-19 -0.0031067)
(-7.54697e-20 9.18805e-19 -0.00351199)
(1.48264e-20 -1.96899e-20 -0.00397057)
(6.97546e-20 -8.8576e-19 -0.00449087)
(-9.70649e-20 9.08261e-19 -0.00508321)
(4.30237e-21 1.21311e-20 -0.00576043)
(-2.10773e-19 1.66108e-18 -0.00653923)
(1.91344e-19 -1.72318e-18 -0.00744227)
(4.7595e-20 6.10068e-20 -0.00850205)
(-2.70546e-19 1.56936e-18 -0.00976789)
(2.48735e-19 -1.6362e-18 -0.0113182)
(-3.09562e-20 -3.19091e-21 -0.0132815)
(4.71348e-19 -1.47209e-18 -0.0158722)
(-4.4166e-19 1.52014e-18 -0.0194463)
(-6.47465e-20 -7.0989e-20 -0.0245862)
(6.72113e-19 -1.28104e-18 -0.0322197)
(-1.18345e-18 2.63988e-18 -0.0437752)
(-6.28729e-20 -1.53607e-19 -0.0613672)
(-8.42141e-20 -1.20737e-19 -0.0880013)
(7.57404e-19 -1.14532e-18 -0.127792)
(3.85958e-20 6.15373e-20 -0.186213)
(-8.4654e-19 7.55059e-19 -0.270391)
(8.29825e-19 -8.30783e-19 -0.388904)
(8.55985e-21 2.83289e-20 -0.547923)
(8.9938e-21 -2.63471e-21 -0.656616)
(6.11046e-22 -1.57974e-20 2.19755e-05)
(1.82138e-21 -1.3484e-19 -5.79624e-06)
(-1.92378e-21 1.21584e-19 -3.9001e-05)
(-1.22698e-21 -1.70821e-20 -7.77317e-05)
(5.54684e-21 -2.25243e-19 -0.000122203)
(-5.14576e-21 2.31588e-19 -0.000172762)
(-6.39903e-21 4.67776e-19 -0.000229849)
(-5.00378e-21 -1.93832e-20 -0.000294007)
(2.14894e-21 -4.59452e-21 -0.00036587)
(1.49546e-20 -4.98647e-19 -0.000446171)
(-1.23328e-20 4.66391e-19 -0.000535747)
(1.90398e-20 -9.86536e-19 -0.000635548)
(-4.81122e-21 4.93009e-19 -0.000746656)
(-3.56155e-21 -1.85088e-20 -0.000870292)
(-4.76306e-21 -2.21156e-20 -0.00100783)
(2.99074e-20 -9.6703e-19 -0.0011608)
(-1.62199e-21 -2.02361e-20 -0.00133099)
(2.89232e-20 -9.84766e-19 -0.00152047)
(-5.29174e-21 -7.7105e-21 -0.00173156)
(-1.68352e-22 1.17421e-22 -0.00196682)
(1.12706e-20 8.3074e-21 -0.00222924)
(-5.46151e-20 9.46267e-19 -0.0025222)
(4.89742e-20 -9.66459e-19 -0.00284957)
(1.25833e-20 8.21344e-21 -0.00321576)
(-8.53806e-21 -1.48008e-20 -0.00362581)
(-6.07991e-21 9.75669e-21 -0.00408548)
(-7.63254e-20 9.11948e-19 -0.00460135)
(1.63757e-19 -1.85985e-18 -0.00518098)
(-7.79229e-20 9.6945e-19 -0.00583308)
(-1.96693e-19 1.79559e-18 -0.00656783)
(-3.03121e-20 -4.57474e-20 -0.00739738)
(2.2375e-21 -2.70717e-20 -0.0083368)
(-6.53386e-20 -5.3999e-20 -0.0094059)
(2.63876e-19 -1.79155e-18 -0.0106328)
(4.01841e-19 -1.65684e-18 -0.0120603)
(-3.59851e-19 1.73865e-18 -0.0137588)
(-3.33359e-20 -5.39278e-20 -0.0158484)
(4.74429e-19 -1.58081e-18 -0.0185377)
(-4.19832e-19 1.67398e-18 -0.0221881)
(-6.64452e-19 1.48454e-18 -0.0274144)
(5.66463e-19 -1.56758e-18 -0.0352316)
(7.6646e-20 -1.09223e-20 -0.0472545)
(8.55968e-19 -1.38009e-18 -0.0659485)
(1.15765e-19 1.21523e-19 -0.0949234)
(-9.855e-19 1.34965e-18 -0.139281)
(-1.58603e-20 -3.86628e-20 -0.206096)
(3.28307e-20 5.15838e-22 -0.305729)
(-3.28209e-20 1.56315e-20 -0.456573)
(-4.96328e-19 5.18785e-19 -0.694294)
(4.8748e-19 -5.28161e-19 -0.951089)
(-1.06062e-20 -3.13398e-21 0.00897895)
(-1.04971e-20 -1.21909e-22 0.00502643)
(9.83275e-21 9.61221e-21 0.00168956)
(-6.87307e-21 1.85799e-21 -0.00109157)
(7.39316e-21 -1.12707e-20 -0.00338597)
(6.93553e-23 3.50057e-21 -0.00526602)
(-1.73256e-22 -9.75445e-23 -0.00680027)
(-5.68983e-21 1.24442e-23 -0.00804839)
(5.53232e-21 -1.20997e-23 -0.00905898)
(-1.67674e-22 3.6672e-25 -0.00987031)
(-1.63286e-22 3.57123e-25 -0.0105146)
(4.95943e-21 -1.08468e-23 -0.0110176)
(-4.97537e-21 1.08816e-23 -0.0113998)
(-4.61267e-21 1.00884e-23 -0.011677)
(2.46838e-22 -1.13007e-21 -0.0118623)
(6.34443e-21 1.02441e-21 -0.0119673)
(-2.00542e-21 1.24949e-21 -0.0120013)
(-8.30808e-23 -1.06335e-21 -0.0119721)
(-3.26846e-23 9.03799e-22 -0.0118869)
(-2.02569e-21 -8.73022e-21 -0.011752)
(2.06968e-21 7.674e-21 -0.0115722)
(-1.29814e-21 -1.09673e-20 -0.011352)
(2.06122e-21 1.57976e-22 -0.0110956)
(-2.88116e-21 1.33342e-23 -0.010808)
(1.89805e-21 1.22647e-21 -0.0104944)
(-7.10763e-22 4.37166e-23 -0.010159)
(-2.08779e-21 4.5662e-24 -0.00980491)
(9.9785e-22 -3.00884e-23 -0.0094354)
(1.40849e-22 1.94516e-21 -0.00905363)
(-4.97576e-23 5.02012e-23 -0.00866254)
(-1.53739e-22 -2.33959e-21 -0.00826487)
(1.21592e-22 2.50494e-21 -0.00786318)
(2.92032e-22 -2.8036e-21 -0.00745985)
(1.44258e-22 2.66668e-20 -0.00705707)
(-6.66712e-22 -2.662e-20 -0.00665691)
(-6.82137e-22 -2.37029e-20 -0.00626121)
(1.4815e-21 5.15744e-20 -0.00587172)
(-8.18795e-22 -2.81828e-20 -0.00548997)
(-2.50667e-22 -3.90014e-21 -0.00511738)
(2.41172e-22 4.01681e-21 -0.00475517)
(1.98435e-23 2.52018e-24 -0.00440445)
(1.45024e-22 4.37827e-21 -0.00406615)
(-5.00952e-22 -2.30357e-20 -0.00374108)
(4.88886e-22 2.32529e-20 -0.00342986)
(-1.48139e-22 -4.89079e-21 -0.00313299)
(3.12781e-22 1.52989e-20 -0.00285079)
(2.4084e-23 -5.06078e-21 -0.00258336)
(-2.098e-22 -1.0799e-20 -0.0023305)
(5.97662e-23 5.4471e-21 -0.00209155)
(-1.52377e-22 -5.67547e-21 -0.00186508)
(-1.52263e-20 2.50972e-20 0.0260396)
(2.97187e-20 -1.07068e-20 0.0142618)
(-2.38447e-20 -2.08453e-20 0.00423612)
(8.56833e-21 2.1881e-20 -0.00404789)
(-8.92883e-21 -2.14372e-20 -0.0108296)
(-1.26643e-20 6.11982e-21 -0.0163517)
(1.13057e-20 6.8899e-21 -0.0208355)
(1.3289e-20 1.78169e-20 -0.0244676)
(9.81112e-23 -2.95472e-20 -0.0273977)
(-2.29791e-20 6.88835e-21 -0.0297424)
(2.23605e-20 -5.14511e-21 -0.0315969)
(-5.37487e-21 -1.06283e-20 -0.0330373)
(-7.32334e-21 2.62836e-20 -0.0341241)
(-7.78108e-21 1.31462e-21 -0.0349044)
(9.33305e-21 -1.54495e-20 -0.035416)
(8.09479e-21 -1.01183e-21 -0.0356927)
(-8.38206e-21 4.86293e-21 -0.0357624)
(-2.50536e-22 -7.20053e-22 -0.0356474)
(1.49294e-23 -1.33027e-22 -0.035369)
(8.42624e-22 -1.8429e-24 -0.0349455)
(2.47064e-21 3.97519e-23 -0.0343919)
(-2.42262e-21 -3.5565e-21 -0.0337207)
(1.26084e-20 6.5677e-20 -0.0329442)
(-1.43685e-20 -6.77571e-20 -0.0320779)
(1.75714e-20 8.39988e-20 -0.0311348)
(-9.10071e-21 -3.33767e-20 -0.030129)
(-1.78289e-20 -1.06245e-19 -0.0290697)
(7.50803e-21 5.26425e-20 -0.0279662)
(1.56696e-21 -8.58071e-22 -0.0268276)
(-2.17729e-21 -4.50569e-21 -0.0256625)
(1.72603e-21 2.32899e-21 -0.0244788)
(-9.28398e-22 -8.18896e-21 -0.0232839)
(9.79753e-21 8.84981e-20 -0.022085)
(-2.09544e-20 -1.90003e-19 -0.0208884)
(9.86048e-21 9.25476e-20 -0.0197001)
(-5.92776e-22 -9.56858e-21 -0.0185256)
(-2.16449e-22 3.4382e-21 -0.01737)
(5.31273e-23 8.19736e-23 -0.0162378)
(-4.92324e-21 -6.72095e-20 -0.0151331)
(4.20843e-21 5.91794e-20 -0.0140596)
(3.54983e-21 6.04794e-20 -0.0130205)
(-5.12722e-21 -8.22575e-20 -0.0120184)
(1.67173e-22 4.53557e-21 -0.0110557)
(1.12572e-21 2.42675e-20 -0.0101343)
(-2.45177e-21 -4.3609e-20 -0.00925565)
(-7.32597e-23 -5.06391e-21 -0.00842055)
(-1.66996e-21 -3.68931e-20 -0.00762933)
(-3.73575e-22 -5.9658e-21 -0.00688133)
(4.23696e-22 1.06599e-20 -0.00617441)
(5.2923e-22 1.68542e-20 -0.00550393)
(-1.35745e-20 -1.08689e-21 0.0403844)
(-1.27565e-20 -1.45495e-20 0.0208812)
(3.46012e-20 2.8473e-20 0.00413946)
(-4.32374e-20 -1.24163e-20 -0.00943127)
(1.77955e-20 1.21238e-20 -0.0203595)
(2.80193e-20 2.09017e-20 -0.0291433)
(-1.93048e-20 -6.00177e-20 -0.0362028)
(1.33268e-20 -2.16806e-20 -0.041873)
(-3.29684e-20 3.85149e-20 -0.0464128)
(3.67382e-21 3.44293e-20 -0.0500206)
(2.79163e-20 -6.09202e-20 -0.0528499)
(-2.48351e-20 4.43769e-20 -0.0550235)
(7.27427e-21 -1.12542e-20 -0.0566378)
(-3.4901e-21 -1.00028e-20 -0.0577692)
(4.26545e-20 1.85042e-20 -0.0584785)
(-5.02699e-21 3.14382e-20 -0.0588171)
(-3.53968e-20 -3.06684e-20 -0.0588283)
(1.1573e-20 -7.48545e-21 -0.0585496)
(-8.44415e-21 3.14495e-22 -0.0580139)
(4.95666e-22 -3.48178e-21 -0.0572501)
(2.48385e-20 5.95838e-20 -0.0562822)
(-2.55199e-20 -4.77409e-20 -0.0551306)
(-2.84238e-20 -8.02173e-20 -0.0538152)
(3.17106e-20 7.52524e-20 -0.0523569)
(-1.78322e-21 6.26778e-21 -0.0507807)
(2.89112e-22 -3.3892e-21 -0.0491059)
(-1.45654e-21 5.54784e-21 -0.0473494)
(-2.58751e-20 -1.27993e-19 -0.0455254)
(3.07407e-20 1.29929e-19 -0.0436483)
(-3.0764e-20 -1.43649e-19 -0.0417315)
(3.29384e-20 1.52014e-19 -0.0397876)
(7.78085e-22 5.74327e-21 -0.0378285)
(3.00542e-20 1.90299e-19 -0.0358653)
(-6.09757e-20 -3.8288e-19 -0.0339084)
(3.33061e-20 2.04738e-19 -0.031967)
(1.44031e-20 1.19856e-19 -0.0300502)
(-1.29001e-20 -1.04409e-19 -0.0281657)
(-9.4609e-22 -2.89975e-22 -0.0263208)
(1.47051e-22 -2.0059e-22 -0.0245221)
(5.64614e-23 -6.03767e-23 -0.0227753)
(1.3393e-20 1.4e-19 -0.0210854)
(-1.31686e-20 -1.31377e-19 -0.0194567)
(9.95406e-22 9.30143e-21 -0.0178929)
(-3.34966e-22 -1.14112e-22 -0.0163969)
(5.90891e-21 8.0231e-20 -0.0149708)
(-1.12961e-20 -1.53125e-19 -0.0136162)
(5.68756e-21 8.29093e-20 -0.0123333)
(-3.07254e-21 -4.39123e-20 -0.0111209)
(2.28254e-21 3.25829e-20 -0.0099749)
(5.5721e-22 1.10254e-20 -0.00888655)
(1.98771e-21 2.61483e-20 0.0494234)
(8.41754e-21 -5.34661e-20 0.0224273)
(-7.11808e-20 1.60599e-20 -0.000896714)
(1.18124e-19 8.12067e-20 -0.0192227)
(-3.12809e-20 -1.10679e-19 -0.0336005)
(-1.77043e-20 2.12461e-20 -0.0449251)
(2.88131e-21 2.059e-20 -0.0538847)
(-1.6177e-20 -2.04118e-21 -0.0609895)
(-7.75019e-21 2.32363e-20 -0.0666099)
(6.35022e-20 -3.42816e-20 -0.071023)
(-2.71675e-20 1.271e-20 -0.0744335)
(-1.36839e-20 5.93361e-22 -0.0770035)
(1.98242e-20 1.04997e-20 -0.0788569)
(-6.01692e-20 -4.60861e-20 -0.0800927)
(4.36687e-20 2.41264e-20 -0.0807893)
(-1.17113e-20 1.22061e-20 -0.0810111)
(1.05428e-20 -9.15644e-21 -0.0808147)
(5.72107e-20 1.00267e-19 -0.0802483)
(-6.21373e-20 -8.26342e-20 -0.0793536)
(1.19926e-21 -1.06919e-20 -0.0781676)
(-3.34375e-21 -1.08672e-22 -0.0767228)
(3.34295e-21 4.90189e-22 -0.0750441)
(2.85838e-21 -1.07484e-22 -0.0731585)
(-7.80738e-21 3.31684e-21 -0.0710915)
(6.19604e-21 4.54204e-22 -0.0688746)
(2.76079e-22 7.93413e-21 -0.0665347)
(-8.41742e-20 -2.73479e-19 -0.0640952)
(8.68321e-20 2.61404e-19 -0.061573)
(-6.81944e-21 6.06671e-21 -0.0589867)
(-3.72811e-20 -1.6722e-19 -0.0563538)
(4.33401e-20 1.69982e-19 -0.0536907)
(-1.60183e-21 1.6708e-21 -0.0510129)
(-1.40199e-22 6.15749e-22 -0.0483349)
(-4.18428e-20 -2.19102e-19 -0.04567)
(8.57944e-20 4.40859e-19 -0.0430306)
(-8.48104e-20 -4.55194e-19 -0.040428)
(8.34546e-20 4.7771e-19 -0.0378728)
(-8.15797e-20 -4.99037e-19 -0.0353741)
(4.01429e-20 2.54058e-19 -0.0329405)
(1.98915e-20 1.38816e-19 -0.0305793)
(-1.72474e-20 -1.20583e-19 -0.0282972)
(-1.26616e-21 -9.35779e-21 -0.0260995)
(-1.78299e-20 -1.53243e-19 -0.0239911)
(3.7986e-20 3.31347e-19 -0.0219755)
(-1.78765e-20 -1.58596e-19 -0.0200556)
(2.45254e-22 2.08994e-22 -0.0182331)
(8.42337e-22 1.05454e-20 -0.0165081)
(-2.25033e-22 -1.67824e-22 -0.0148789)
(-8.15165e-22 -1.10722e-20 -0.0133391)
(1.80993e-21 2.28357e-20 -0.0118741)
(2.6652e-20 9.31749e-23 0.0495907)
(3.10738e-22 3.89687e-22 0.0153702)
(-6.02509e-20 4.54562e-22 -0.0139262)
(8.93322e-20 -2.46006e-22 -0.0358655)
(-2.67803e-20 1.06152e-22 -0.0524388)
(-4.30717e-20 -7.88204e-22 -0.06512)
(1.38469e-20 1.09259e-24 -0.0749358)
(-1.16301e-20 2.22207e-23 -0.0825862)
(9.40745e-20 -2.5721e-20 -0.088531)
(-3.0205e-22 6.37169e-20 -0.0931021)
(-4.79678e-21 6.65078e-20 -0.0965495)
(-2.27246e-20 -1.0621e-19 -0.0990544)
(6.36955e-20 1.2284e-19 -0.100755)
(-8.27013e-20 -1.13294e-19 -0.101762)
(3.00437e-20 7.68601e-20 -0.102165)
(-4.16106e-20 -8.11949e-20 -0.102035)
(5.01435e-21 -8.34618e-21 -0.101436)
(-2.93785e-20 -1.20543e-21 -0.10042)
(2.7083e-20 -2.97098e-21 -0.0990344)
(1.20807e-21 2.02607e-21 -0.0973224)
(8.06852e-21 3.05854e-22 -0.0953195)