/*--------------------------------*- C++ -*----------------------------------*\
| =========                 |                                                 |
| \\      /  F ield         | OpenFOAM: The Open Source CFD Toolbox           |
|  \\    /   O peration     | Version:  2412                                  |
|   \\  /    A nd           | Website:  www.openfoam.com                      |
|    \\/     M anipulation  |                                                 |
\*---------------------------------------------------------------------------*/
FoamFile
{
    version     2.0;
    format      ascii;
    arch        "LSB;label=32;scalar=64";
    class       volScalarField;
    location    "30";
    object      error;
}
// * * * * * * * * * * * * * * * * * * * * * * * * * * * * * * * * * * * * * //

dimensions      [0 0 0 0 0 0 0];

internalField   nonuniform List<scalar> 
5285
(
0.0171155
0.0160629
0.0150584
0.0141003
0.0131874
0.0123179
0.0114904
0.0107034
0.00995539
0.00924507
0.0085712
0.00793264
0.0073283
0.00675721
0.00621843
0.0057111
0.00523441
0.00478762
0.00437004
0.00398104
0.00362008
0.00328665
0.00298037
0.00270092
0.00244804
0.00222156
0.00202132
0.00184711
0.00169857
0.00157509
0.00147558
0.017075
0.0160336
0.015039
0.0140896
0.0131843
0.0123215
0.0114997
0.0107176
0.00997391
0.00926726
0.00859654
0.00796068
0.00735868
0.00678958
0.00625253
0.00574668
0.00527127
0.00482558
0.00440894
0.00402076
0.00366048
0.00332763
0.0030218
0.00274265
0.00248992
0.00226338
0.00206284
0.00188803
0.00173852
0.00161365
0.00151233
0.00143297
0.00137349
0.00133133
0.00130364
0.00128748
0.0012801
0.0012789
0.00128184
0.00128697
0.00129324
0.00129904
0.00130451
0.00130771
0.00131049
0.00130934
0.00130916
0.0013027
0.00130056
0.00128802
0.00128603
0.00126643
0.00126778
0.00123971
0.00124865
0.00121023
0.00123206
0.00118115
0.00122228
0.00115663
0.00122529
0.00114213
0.00125017
0.0011458
0.00130878
0.00118683
0.00140587
0.00130971
0.00155637
0.00152051
0.001869
0.0170345
0.0160042
0.0150195
0.0140789
0.0131812
0.0123251
0.0115091
0.0107321
0.00999266
0.00928973
0.0086222
0.00798908
0.00738942
0.00682235
0.00628701
0.00578264
0.0053085
0.0048639
0.00444819
0.00406078
0.00370115
0.00336882
0.00306337
0.00278446
0.0025318
0.00230514
0.00210421
0.00192872
0.00177818
0.00165188
0.00154872
0.00146714
0.00140511
0.00136017
0.0013296
0.00131056
0.0013004
0.00129659
0.00129714
0.0013001
0.00130442
0.00130851
0.00131245
0.00131431
0.0013159
0.00131372
0.0013126
0.00130533
0.00130243
0.00128927
0.00128663
0.00126654
0.00126732
0.00123883
0.00124723
0.00120842
0.00122974
0.00117839
0.00121907
0.00115279
0.00122125
0.00113687
0.00124562
0.00113829
0.00130463
0.00117618
0.00140189
0.00129905
0.00154782
0.00151349
0.00186163
0.0169939
0.0159748
0.015
0.0140682
0.0131782
0.0123288
0.0115187
0.0107467
0.0100116
0.00931247
0.00864818
0.00801782
0.00742053
0.00685548
0.00632188
0.00581898
0.0053461
0.00490255
0.00448774
0.00410108
0.00374205
0.00341019
0.00310506
0.00282633
0.00257366
0.00234679
0.0021454
0.00196915
0.00181751
0.00168974
0.00158472
0.00150091
0.00143636
0.00138867
0.00135526
0.00133338
0.00132047
0.00131408
0.00131225
0.00131305
0.00131544
0.0013178
0.00132021
0.00132073
0.00132112
0.0013179
0.00131583
0.00130776
0.00130409
0.0012903
0.00128701
0.00126642
0.00126661
0.0012377
0.00124556
0.00120636
0.00122716
0.00117537
0.00121559
0.00114868
0.00121691
0.00113133
0.00124076
0.00113045
0.00130019
0.00116507
0.00139767
0.00128791
0.00153884
0.00150623
0.0018538
0.0169533
0.0159453
0.0149804
0.0140574
0.0131752
0.0123325
0.0115283
0.0107614
0.0100308
0.00933543
0.00867439
0.00804682
0.00745192
0.0068889
0.00635704
0.00585561
0.00538397
0.00494148
0.00452753
0.00414158
0.00378311
0.00345166
0.0031468
0.00286817
0.00261543
0.00238827
0.00218635
0.00200927
0.00185648
0.00172718
0.00162028
0.00153425
0.00146718
0.00141678
0.00138056
0.00135588
0.00134026
0.00133131
0.00132711
0.00132577
0.00132622
0.00132686
0.00132773
0.00132691
0.00132609
0.00132183
0.00131881
0.00130993
0.00130548
0.00129106
0.00128711
0.00126603
0.00126562
0.0012363
0.0012436
0.001204
0.00122428
0.00117205
0.0012118
0.00114427
0.00121224
0.00112546
0.00123555
0.00112226
0.00129541
0.00115352
0.00139317
0.00127627
0.00152938
0.00149873
0.0018455
0.0169127
0.0159158
0.0149609
0.0140467
0.0131722
0.0123364
0.0115381
0.0107763
0.0100501
0.00935859
0.00870083
0.00807608
0.00748358
0.0069226
0.00639247
0.00589251
0.0054221
0.00498063
0.00456752
0.00418224
0.00382429
0.0034932
0.00318855
0.00290995
0.00265706
0.00242953
0.002227
0.00204903
0.00189502
0.00176417
0.00165536
0.00156709
0.00149752
0.00144445
0.00140545
0.001378
0.0013597
0.00134822
0.00134167
0.00133818
0.00133671
0.00133563
0.00133497
0.0013328
0.00133078
0.00132547
0.00132148
0.0013118
0.00130657
0.00129152
0.0012869
0.00126531
0.00126431
0.00123457
0.00124132
0.00120133
0.00122106
0.0011684
0.00120766
0.00113951
0.00120721
0.00111925
0.00122994
0.0011137
0.00129024
0.0011415
0.00138835
0.00126412
0.00151945
0.00149095
0.00183669
0.0168722
0.0158863
0.0149413
0.0140359
0.0131692
0.0123402
0.0115479
0.0107913
0.0100696
0.00938191
0.00872746
0.00810554
0.00751545
0.00695653
0.00642812
0.00592962
0.00546042
0.00501995
0.00460765
0.00422301
0.00386552
0.00353473
0.00323023
0.0029516
0.00269849
0.00247052
0.00226731
0.00208837
0.00193309
0.00180064
0.00168989
0.00159939
0.00152734
0.0014716
0.00142986
0.00139968
0.00137872
0.00136473
0.00135585
0.00135024
0.00134684
0.00134405
0.00134186
0.00133834
0.00133511
0.00132875
0.00132381
0.00131331
0.00130729
0.00129161
0.00128633
0.00126424
0.00126264
0.00123248
0.00123866
0.00119828
0.00121748
0.00116438
0.00120314
0.00113438
0.00120178
0.00111266
0.00122392
0.00110475
0.00128464
0.00112903
0.00138316
0.00125144
0.00150903
0.00148288
0.00182736
0.0168316
0.0158568
0.0149217
0.0140252
0.0131663
0.0123441
0.0115578
0.0108064
0.0100892
0.00940537
0.00875425
0.00813517
0.0075475
0.00699062
0.00646395
0.00596689
0.00549889
0.00505939
0.00464786
0.00426381
0.00390674
0.00357621
0.00327178
0.00299305
0.00273965
0.00251117
0.0023072
0.00212723
0.00197062
0.00183653
0.00172383
0.00163109
0.00155656
0.00149818
0.00145373
0.00142084
0.00139726
0.00138078
0.00136959
0.00136187
0.00135655
0.00135205
0.00134833
0.00134347
0.00133902
0.00133162
0.00132571
0.00131441
0.0013076
0.00129129
0.00128534
0.00126275
0.00126055
0.00122997
0.00123559
0.00119482
0.00121347
0.00115994
0.0011982
0.00112884
0.00119591
0.00110566
0.00121742
0.0010954
0.00127855
0.00111613
0.00137753
0.00123824
0.0014981
0.00147448
0.00181749
0.016791
0.0158273
0.0149021
0.0140144
0.0131633
0.012348
0.0115677
0.0108216
0.0101089
0.00942892
0.00878114
0.00816491
0.00757967
0.00702484
0.00649988
0.00600426
0.00553742
0.00509887
0.00468808
0.00430458
0.00394788
0.00361754
0.00331313
0.00303424
0.00278047
0.00255141
0.00234661
0.00216555
0.00200756
0.00187178
0.0017571
0.00166211
0.00158512
0.00152413
0.00147699
0.00144142
0.00141524
0.00139629
0.00138281
0.00137299
0.00136578
0.00135957
0.00135433
0.00134812
0.00134247
0.00133403
0.00132716
0.00131504
0.00130745
0.00129051
0.00128389
0.00126081
0.00125801
0.00122702
0.00123207
0.00119092
0.00120902
0.00115506
0.0011928
0.00112285
0.00118957
0.00109823
0.00121043
0.00108564
0.00127191
0.00110279
0.0013714
0.0012245
0.00148668
0.00146573
0.00180704
0.0167505
0.0157978
0.0148825
0.0140036
0.0131603
0.0123519
0.0115776
0.0108367
0.0101285
0.00945251
0.00880808
0.00819471
0.00761189
0.00705911
0.00653586
0.00604164
0.00557596
0.00513832
0.00472824
0.00434524
0.00398886
0.00365866
0.00335421
0.00307509
0.00282088
0.00259117
0.00238548
0.00220325
0.00204382
0.00190632
0.00178964
0.0016924
0.00161295
0.00154936
0.00149956
0.00146134
0.00143259
0.0014112
0.00139545
0.00138355
0.00137444
0.00136655
0.00135979
0.00135224
0.00134539
0.00133591
0.00132808
0.00131516
0.00130679
0.00128922
0.00128194
0.00125837
0.00125497
0.00122357
0.00122806
0.00118653
0.00120407
0.0011497
0.00118691
0.00111639
0.00118273
0.00109035
0.00120289
0.00107546
0.00126467
0.00108905
0.0013647
0.00121024
0.00147476
0.00145658
0.001796
0.0167099
0.0157683
0.0148628
0.0139927
0.0131573
0.0123557
0.0115875
0.0108518
0.0101482
0.00947608
0.008835
0.0082245
0.0076441
0.00709335
0.0065718
0.00607898
0.00561443
0.00517767
0.00476825
0.00438571
0.00402961
0.00369949
0.00339493
0.00311551
0.0028608
0.00263036
0.00242371
0.00224027
0.00207936
0.00194009
0.00182139
0.00172189
0.00163998
0.00157381
0.00152137
0.00148053
0.00144923
0.00142544
0.00140743
0.00139347
0.00138248
0.00137291
0.00136464
0.00135577
0.00134772
0.0013372
0.00132842
0.00131471
0.00130556
0.00128738
0.00127944
0.00125538
0.00125139
0.0012196
0.00122351
0.00118162
0.00119861
0.00114383
0.0011805
0.00110943
0.00117535
0.00108198
0.00119477
0.00106486
0.00125678
0.00107495
0.00135737
0.00119545
0.00146234
0.00144702
0.00178436
0.0166694
0.0157386
0.014843
0.0139817
0.0131541
0.0123594
0.0115972
0.0108668
0.0101677
0.00949955
0.00886184
0.00825419
0.00767622
0.0071275
0.00660763
0.00611619
0.00565273
0.00521683
0.00480804
0.00442591
0.00407002
0.00373993
0.0034352
0.00315542
0.00290014
0.00266892
0.00246124
0.00227653
0.00211408
0.00197302
0.00185227
0.0017505
0.00166615
0.00159742
0.00154236
0.00149893
0.00146511
0.00143892
0.00141869
0.00140268
0.00138983
0.00137859
0.00136883
0.00135864
0.00134941
0.00133786
0.00132814
0.00131364
0.00130372
0.00128494
0.00127633
0.00125181
0.00124722
0.00121504
0.0012184
0.00117615
0.00119258
0.00113741
0.00117353
0.00110194
0.00116741
0.00107312
0.00118605
0.00105385
0.00124817
0.00106051
0.00134933
0.00118017
0.00144945
0.00143699
0.00177211
0.0166288
0.015709
0.0148232
0.0139706
0.0131508
0.012363
0.0116068
0.0108816
0.0101871
0.00952285
0.0088885
0.00828372
0.00770815
0.00716146
0.00664326
0.00615316
0.00569078
0.0052557
0.00484749
0.00446574
0.00411002
0.0037799
0.00347495
0.00319474
0.00293883
0.00270675
0.00249799
0.00231195
0.00214792
0.00200503
0.00188222
0.00177817
0.00169138
0.0016201
0.00156246
0.00151645
0.00148015
0.0014516
0.00142915
0.00141112
0.00139643
0.00138354
0.00137229
0.0013608
0.00135039
0.00133784
0.00132718
0.0013119
0.00130122
0.00128184
0.00127259
0.00124761
0.00124244
0.00120989
0.00121268
0.00117009
0.00118596
0.00113041
0.00116598
0.00109388
0.00115888
0.00106373
0.00117668
0.00104241
0.00123878
0.00104577
0.00134051
0.0011644
0.00143609
0.00142648
0.00175923
0.0165882
0.0156792
0.0148031
0.0139593
0.0131472
0.0123663
0.0116161
0.0108962
0.0102062
0.00954591
0.00891491
0.00831298
0.00773982
0.00719513
0.00667858
0.00618982
0.00572848
0.00529418
0.00488653
0.00450511
0.00414951
0.0038193
0.00351407
0.00323337
0.00297677
0.00274378
0.00253387
0.00234646
0.00218081
0.00203606
0.00191116
0.00180484
0.00171562
0.00164181
0.00158159
0.00153305
0.00149428
0.00146339
0.00143876
0.00141872
0.00140221
0.00138769
0.00137497
0.00136219
0.00135062
0.00133707
0.00132549
0.00130945
0.00129802
0.00127806
0.00126818
0.00124274
0.001237
0.00120408
0.00120633
0.0011634
0.00117873
0.00112281
0.00115783
0.00108525
0.00114973
0.00105381
0.00116664
0.00103056
0.00122858
0.00103079
0.00133085
0.00114817
0.00142228
0.00141545
0.00174573
0.0165475
0.0156492
0.0147829
0.0139477
0.0131434
0.0123693
0.0116251
0.0109104
0.010225
0.00956862
0.00894098
0.00834189
0.00777112
0.00722842
0.0067135
0.00622605
0.00576573
0.00533218
0.00492504
0.00454391
0.00418838
0.00385804
0.00355247
0.00327123
0.00301387
0.00277991
0.00256882
0.00237997
0.00221267
0.00206604
0.00193904
0.00183043
0.00173879
0.00166246
0.00159971
0.00154864
0.00150743
0.00147423
0.00144745
0.00142543
0.00140712
0.00139098
0.00137682
0.00136277
0.00135005
0.00133552
0.00132303
0.00130624
0.00129408
0.00127355
0.00126304
0.00123718
0.00123087
0.00119761
0.00119931
0.00115607
0.00117085
0.00111459
0.00114904
0.00107602
0.00113994
0.00104334
0.00115589
0.00101831
0.0012175
0.0010156
0.00132026
0.00113152
0.00140804
0.00140386
0.0017316
0.0165067
0.0156191
0.0147624
0.0139359
0.0131392
0.0123719
0.0116337
0.0109243
0.0102434
0.00959089
0.00896659
0.00837033
0.00780195
0.00726122
0.00674791
0.00626174
0.00580241
0.00536959
0.00496293
0.00458204
0.00422654
0.00389601
0.00359005
0.00330822
0.00305005
0.00281507
0.00260274
0.00241243
0.00224343
0.00209489
0.00196578
0.00185489
0.00176083
0.00168201
0.00161673
0.00156318
0.00151956
0.00148408
0.00145517
0.00143119
0.0014111
0.00139337
0.00137778
0.00136247
0.00134863
0.00133313
0.00131976
0.00130223
0.00128935
0.00126828
0.00125716
0.00123088
0.00122402
0.00119043
0.0011916
0.00114806
0.0011623
0.00110571
0.0011396
0.00106616
0.0011295
0.00103231
0.00114443
0.00100565
0.00120549
0.00100025
0.00130869
0.00111446
0.00139339
0.00139169
0.00171684
0.0164658
0.0155887
0.0147416
0.0139237
0.0131346
0.0123741
0.0116418
0.0109376
0.0102612
0.00961262
0.00899164
0.00839821
0.00783219
0.00729342
0.0067817
0.0062968
0.00583843
0.00540631
0.00500008
0.0046194
0.00426388
0.00393313
0.00362673
0.00334425
0.00308523
0.00284918
0.00263556
0.00244374
0.00227302
0.00212255
0.00199132
0.00187815
0.00178169
0.00170039
0.00163262
0.0015766
0.00153061
0.00149287
0.00146186
0.00143595
0.00141411
0.00139481
0.00137781
0.00136127
0.00134632
0.00132988
0.00131563
0.0012974
0.00128381
0.00126221
0.0012505
0.00122382
0.00121643
0.00118252
0.00118317
0.00113935
0.00115306
0.00109616
0.00112948
0.00105566
0.00111838
0.0010207
0.00113222
0.000992589
0.00119252
0.00098479
0.00129608
0.00109703
0.00137835
0.00137891
0.00170147
0.0164247
0.0155581
0.0147204
0.013911
0.0131295
0.0123757
0.0116494
0.0109503
0.0102785
0.00963371
0.00901604
0.00842541
0.00786173
0.00732491
0.00681476
0.0063311
0.00587367
0.00544221
0.00503639
0.00465588
0.0043003
0.00396928
0.0036624
0.00337923
0.00311931
0.00288215
0.0026672
0.00247385
0.00230139
0.00214897
0.00201561
0.00190016
0.00180131
0.00171756
0.00164731
0.00158886
0.00154052
0.00150056
0.00146747
0.00143967
0.00141609
0.00139525
0.00137686
0.00135912
0.00134308
0.00132571
0.00131062
0.00129169
0.00127743
0.00125532
0.00124303
0.00121598
0.00120806
0.00117386
0.00117401
0.00112991
0.00114311
0.00108591
0.00111867
0.00104451
0.00110657
0.0010085
0.00111924
0.00097914
0.00117854
0.000969245
0.00128237
0.00107925
0.00136294
0.0013655
0.00168548
0.0163834
0.0155272
0.0146988
0.0138978
0.0131239
0.0123768
0.0116563
0.0109624
0.0102949
0.00965404
0.00903966
0.00845181
0.00789047
0.00735557
0.00684697
0.00636453
0.00590802
0.00547719
0.00507175
0.00469137
0.00433571
0.00400438
0.00369697
0.00341307
0.00315221
0.0029139
0.0026976
0.00250268
0.00232845
0.00217407
0.00203859
0.00192087
0.00181964
0.00173345
0.00166076
0.00159991
0.00154925
0.0015071
0.00147197
0.00144229
0.00141702
0.00139465
0.0013749
0.00135597
0.00133887
0.00132061
0.00130468
0.00128509
0.00127017
0.00124757
0.00123472
0.00120732
0.00119889
0.00116443
0.00116408
0.00111974
0.00113243
0.00107496
0.00110716
0.00103269
0.00109404
0.000995708
0.00110547
0.0009653
0.00116352
0.000953649
0.00126752
0.00106116
0.00134715
0.00135142
0.00166888
0.0163419
0.0154959
0.0146768
0.0138841
0.0131176
0.0123771
0.0116624
0.0109736
0.0103106
0.00967351
0.0090624
0.00847732
0.00791829
0.00738529
0.00687823
0.00639698
0.00594137
0.00551115
0.00510606
0.00472579
0.00437
0.00403833
0.00373037
0.0034457
0.00318386
0.00294437
0.00272668
0.00253018
0.00235417
0.00219783
0.00206021
0.00194023
0.00183664
0.00174805
0.00167294
0.00160972
0.00155677
0.00151246
0.00147531
0.00144379
0.00141684
0.00139299
0.0013719
0.00135182
0.00133367
0.00131454
0.0012978
0.00127757
0.001262
0.00123895
0.00122556
0.00119783
0.00118891
0.0011542
0.00115337
0.00110881
0.001121
0.00106329
0.00109492
0.00102018
0.0010808
0.000982303
0.00109091
0.000951068
0.00114742
0.000938021
0.00125147
0.00104278
0.001331
0.00133668
0.00165169
0.0163009
0.0154647
0.0146545
0.0138699
0.0131106
0.0123765
0.0116675
0.0109836
0.0103249
0.00969157
0.00908364
0.00850125
0.00794448
0.00741332
0.00690776
0.00642767
0.00597291
0.00554327
0.0051385
0.00475832
0.00440239
0.00407035
0.00376181
0.00347637
0.00321356
0.00297289
0.00275382
0.00255575
0.00237798
0.00221971
0.00208002
0.00195784
0.00185195
0.00176102
0.00168358
0.00161806
0.00156291
0.00151651
0.00147742
0.00144413
0.00141557
0.00139028
0.00136792
0.00134672
0.00132759
0.00130762
0.00129012
0.00126928
0.00125311
0.00122962
0.00121573
0.00118769
0.00117832
0.00114338
0.0011421
0.00109734
0.00110906
0.00105112
0.00108221
0.00100724
0.0010671
0.000968566
0.00107584
0.000936739
0.00113059
0.000922696
0.00123456
0.0010245
0.00131482
0.00132158
0.00163425
0.0162601
0.0154336
0.0146321
0.0138553
0.0131031
0.0123752
0.0116717
0.0109927
0.0103382
0.00970851
0.00910369
0.00852394
0.00796937
0.00744003
0.00693591
0.00645695
0.00600302
0.00557393
0.00516946
0.00478933
0.00443323
0.00410081
0.00379168
0.00350544
0.00324164
0.00299978
0.00277934
0.0025797
0.00240019
0.00224001
0.00209827
0.00197393
0.0018658
0.00177258
0.00169286
0.00162511
0.0015678
0.00151937
0.00147839
0.00144337
0.00141324
0.00138657
0.00136296
0.00134069
0.0013206
0.00129984
0.0012816
0.00126019
0.00124344
0.00121956
0.00120518
0.00117687
0.00116706
0.00113192
0.00113021
0.00108527
0.00109653
0.0010384
0.00106895
0.000993777
0.00105287
0.000954393
0.00106016
0.000922193
0.00111291
0.000907522
0.0012167
0.00100619
0.00129846
0.00130602
0.00161649
0.0162182
0.0154013
0.0146086
0.0138397
0.0130945
0.012373
0.011675
0.0110009
0.0103507
0.00972464
0.00912297
0.00854589
0.00799355
0.00746604
0.00696339
0.00648556
0.00603246
0.00560392
0.00519973
0.00481965
0.00446336
0.00413053
0.00382078
0.00353371
0.00326888
0.0030258
0.00280394
0.0026027
0.00242141
0.0022593
0.00211548
0.00198895
0.00187856
0.00178303
0.00170101
0.00163101
0.00157154
0.00152107
0.00147819
0.00144144
0.00140975
0.00138169
0.00135684
0.00133351
0.00131246
0.00129091
0.00127195
0.00124998
0.00123266
0.00120839
0.00119354
0.00116498
0.00115474
0.00111942
0.00111728
0.00107219
0.00108299
0.00102468
0.00105469
0.000979349
0.00103761
0.00093931
0.00104336
0.000906946
0.00109379
0.000892006
0.00119729
0.000987253
0.00128141
0.00128948
0.00159785
0.016175
0.0153678
0.0145838
0.0138229
0.0130848
0.0123696
0.0116773
0.0110081
0.0103621
0.0097398
0.00914132
0.00856694
0.00801685
0.00749119
0.00699003
0.00651335
0.00606108
0.00563309
0.00522918
0.00484913
0.00449263
0.00415937
0.00384897
0.00356105
0.00329515
0.00305082
0.00282751
0.00262464
0.00244154
0.00227747
0.00213155
0.0020028
0.00189013
0.00179229
0.00170795
0.00163569
0.00157405
0.00152153
0.00147675
0.00143827
0.00140501
0.00137556
0.00134948
0.00132508
0.00130309
0.00128077
0.00126109
0.00123858
0.0012207
0.00119607
0.00118076
0.00115196
0.0011413
0.00110582
0.00110327
0.00105804
0.00106839
0.00100991
0.00103936
0.000963893
0.00102128
0.000923263
0.00102537
0.000890951
0.00107318
0.000876113
0.00117626
0.000967665
0.00126364
0.0012719
0.00157833
0.0161305
0.0153329
0.0145578
0.0138048
0.0130738
0.0123649
0.0116783
0.011014
0.0103724
0.00975382
0.00915856
0.0085869
0.0080391
0.00751532
0.00701566
0.00654014
0.00608871
0.00566127
0.00525765
0.00487761
0.0045209
0.00418719
0.00387612
0.00358732
0.00332034
0.00307472
0.00284993
0.0026454
0.00246047
0.00229441
0.00214637
0.0020154
0.00190042
0.00180025
0.00171359
0.00163906
0.00157525
0.00152068
0.001474
0.00143377
0.00139895
0.00136811
0.0013408
0.00131535
0.00129243
0.00126934
0.00124896
0.00122592
0.0012075
0.00118253
0.00116677
0.00113775
0.00112668
0.00109107
0.0010881
0.00104275
0.00105265
0.000994031
0.00102292
0.000947351
0.0010038
0.000906192
0.00100613
0.000874152
0.00105098
0.000859796
0.00115356
0.000947394
0.00124509
0.00125324
0.00155792
0.0160845
0.0152965
0.0145302
0.0137851
0.0130613
0.0123588
0.0116778
0.0110185
0.0103813
0.00976652
0.0091745
0.00860561
0.00806012
0.00753824
0.0070401
0.00656576
0.00611519
0.00568831
0.00528496
0.00490495
0.00454801
0.00421384
0.00390209
0.00361239
0.00334431
0.00309738
0.0028711
0.00266488
0.00247811
0.00231004
0.00215986
0.00202665
0.00190936
0.00180685
0.00171787
0.00164106
0.00157506
0.00151844
0.00146985
0.00142789
0.0013915
0.00135928
0.00133074
0.00130425
0.0012804
0.00125656
0.00123549
0.00121194
0.001193
0.0011677
0.0011515
0.0011223
0.00111083
0.0010751
0.00107173
0.00102628
0.00103573
0.000976985
0.0010053
0.000929663
0.000985129
0.000888038
0.000985578
0.00085649
0.00102716
0.000842994
0.00112913
0.000926403
0.00122569
0.0012335
0.00153662
0.0160369
0.0152586
0.014501
0.0137639
0.0130472
0.0123511
0.0116758
0.0110215
0.0103887
0.0097777
0.00918896
0.00862286
0.00807972
0.00755977
0.00706319
0.00659004
0.00614034
0.00571403
0.00531097
0.00493098
0.00457382
0.00423918
0.00392675
0.00363614
0.00336694
0.00311869
0.00289089
0.00268299
0.00249434
0.00232426
0.00217193
0.00203647
0.00191687
0.00181202
0.0017207
0.00164162
0.00157343
0.00151475
0.00146425
0.00142055
0.0013826
0.001349
0.00131925
0.00129172
0.00126696
0.00124238
0.00122064
0.0011966
0.00117714
0.00115153
0.00113492
0.00110554
0.00109368
0.00105786
0.00105409
0.00100856
0.00101756
0.000958717
0.00098645
0.000910774
0.000965201
0.000868741
0.00096365
0.000837898
0.00100165
0.00082563
0.00110296
0.000904647
0.0012054
0.00121266
0.00151442
0.0159876
0.0152189
0.0144701
0.0137409
0.0130314
0.0123416
0.011672
0.0110227
0.0103943
0.00978717
0.00920175
0.00863848
0.00809771
0.00757973
0.00708472
0.0066128
0.006164
0.00573827
0.00533552
0.00495556
0.00459817
0.00426308
0.00394995
0.00365843
0.0033881
0.00313853
0.00290922
0.00269961
0.0025091
0.00233699
0.00218251
0.0020448
0.00192288
0.00181568
0.00172203
0.00164067
0.0015703
0.00150955
0.00145715
0.00141172
0.0013722
0.00133723
0.00130627
0.00127771
0.00125205
0.00122675
0.00120435
0.00117983
0.00115987
0.00113398
0.00111696
0.00108744
0.0010752
0.00103931
0.00103514
0.000989555
0.000998112
0.000939177
0.000966316
0.000890631
0.000943964
0.000848246
0.000940297
0.000818307
0.000974419
0.000807614
0.00107503
0.000882075
0.00118415
0.00119072
0.00149135
0.0159364
0.0151773
0.0144372
0.0137159
0.0130135
0.0123302
0.0116662
0.011022
0.010398
0.00979475
0.00921267
0.00865227
0.00811391
0.00759793
0.00710453
0.00663386
0.00618598
0.00576087
0.00535844
0.00497853
0.00462094
0.00428539
0.00397158
0.00367915
0.0034077
0.00315681
0.00292597
0.00271466
0.00252228
0.00234816
0.00219153
0.00205157
0.00192734
0.0018178
0.00172182
0.00163818
0.00156563
0.00150282
0.00144851
0.00140135
0.00136027
0.00132394
0.00129177
0.0012622
0.00123564
0.00120964
0.00118658
0.00116161
0.00114117
0.00111502
0.0010976
0.00106795
0.00105535
0.0010194
0.00101485
0.000969223
0.00097733
0.000918325
0.000944856
0.000869187
0.000921371
0.000826497
0.000915475
0.000797649
0.000945452
0.000788846
0.00104538
0.000858634
0.0011619
0.00116771
0.00146744
0.0158833
0.0151337
0.0144022
0.0136888
0.0129935
0.0123166
0.0116583
0.0110192
0.0103996
0.00980024
0.00922155
0.00866404
0.00812814
0.00761419
0.00712244
0.00665306
0.00620614
0.00578167
0.00537959
0.00499975
0.00464197
0.00430599
0.00399151
0.00369818
0.00342563
0.00317342
0.00294108
0.00272808
0.00253384
0.0023577
0.00219894
0.00205675
0.00193021
0.00181833
0.00172003
0.00163412
0.00155939
0.00149453
0.00143832
0.00138943
0.0013468
0.00130909
0.00127573
0.00124515
0.00121772
0.00119102
0.00116733
0.00114191
0.00112101
0.00109461
0.00107682
0.00104706
0.0010341
0.000998125
0.000993188
0.000947537
0.000955193
0.00089613
0.000922038
0.000846408
0.000897388
0.000803451
0.000889149
0.000775855
0.000914746
0.000769216
0.00101406
0.000834271
0.00113858
0.00114367
0.00144275
0.0158281
0.0150879
0.0143651
0.0136595
0.0129712
0.0123006
0.0116481
0.011014
0.0103989
0.00980347
0.00922819
0.00867362
0.00814021
0.00762834
0.00713829
0.00667024
0.00622431
0.00580052
0.00539883
0.0050191
0.00466116
0.00432477
0.00400964
0.00371544
0.0034418
0.0031883
0.00295446
0.00273979
0.00254371
0.00236558
0.0022047
0.00206029
0.00193146
0.00181727
0.00171665
0.00162849
0.00155158
0.00148468
0.00142657
0.00137595
0.00133177
0.00129271
0.00125815
0.00122658
0.00119827
0.00117089
0.00114658
0.00112075
0.00109939
0.00107277
0.0010546
0.00102476
0.00101145
0.000975465
0.000970145
0.000924487
0.000931685
0.000872576
0.000897844
0.000822269
0.00087199
0.000779072
0.000861303
0.000752862
0.000882322
0.000748614
0.000981158
0.000808936
0.00111419
0.00111868
0.00141734
0.0157707
0.0150399
0.0143255
0.0136277
0.0129465
0.0122822
0.0116353
0.0110063
0.0103958
0.00980426
0.00923244
0.00868085
0.00814998
0.00764024
0.00715192
0.00668525
0.00624037
0.0058173
0.00541603
0.00503645
0.00467838
0.00434162
0.00402588
0.00373084
0.00345614
0.00320137
0.00296608
0.00274976
0.00255186
0.00237177
0.0022088
0.00206218
0.00193109
0.0018146
0.0017117
0.00162129
0.00154222
0.00147328
0.00141328
0.00136094
0.00131521
0.0012748
0.00123906
0.0012065
0.00117734
0.00114928
0.00112437
0.00109813
0.00107633
0.0010495
0.00103098
0.00100107
0.000987408
0.000951434
0.000945731
0.000900081
0.000906813
0.000847666
0.000872274
0.000796764
0.000845174
0.000753341
0.000831935
0.000728619
0.000848226
0.00072693
0.000946788
0.000782588
0.00108871
0.00109284
0.00139133
0.015711
0.0149894
0.0142835
0.0135933
0.0129191
0.0122612
0.01162
0.010996
0.01039
0.00980248
0.00923415
0.00868559
0.0081573
0.00764973
0.00716321
0.00669798
0.00625418
0.00583189
0.00543109
0.0050517
0.00469356
0.00435647
0.00404015
0.00374431
0.00346859
0.00321259
0.00297588
0.00275795
0.00255827
0.00237625
0.00221122
0.00206245
0.00192912
0.00181036
0.00170519
0.00161255
0.00153134
0.00146038
0.00139849
0.00134444
0.00129717
0.00125542
0.0012185
0.00118496
0.00115495
0.00112624
0.00110073
0.00107409
0.00105187
0.00102485
0.00100598
0.000976017
0.000962018
0.000926067
0.000919978
0.000874346
0.000880601
0.00082142
0.000845347
0.000769906
0.000816951
0.000726252
0.000801064
0.000703085
0.00081253
0.000704064
0.000911113
0.0007552
0.00106216
0.00106627
0.00136484
0.0156489
0.0149364
0.0142388
0.0135563
0.012889
0.0122374
0.0116018
0.010983
0.0103815
0.00979799
0.00923319
0.0086877
0.00816206
0.00765672
0.00717205
0.0067083
0.00626566
0.0058442
0.00544393
0.00506478
0.00470662
0.00436924
0.00405241
0.00375582
0.00347913
0.00322195
0.00298385
0.00276436
0.00256295
0.00237905
0.002212
0.0020611
0.00192559
0.00180459
0.00169718
0.00160234
0.00151901
0.00144603
0.00138228
0.00132652
0.00127772
0.00123463
0.00119655
0.00116203
0.00113118
0.00110182
0.00107573
0.00104872
0.00102608
0.000998877
0.000979672
0.000949673
0.000935337
0.000899422
0.000892941
0.000847336
0.0008531
0.000793885
0.000817104
0.000741727
0.000787359
0.000697821
0.000768733
0.000676238
0.000775332
0.000679933
0.000874326
0.000726765
0.00103462
0.00103913
0.00133805
0.0155843
0.0148808
0.0141915
0.0135165
0.0128562
0.0122108
0.0115809
0.0109671
0.0103701
0.00979069
0.00922947
0.0086871
0.00816415
0.0076611
0.00717834
0.00671615
0.00627472
0.00585415
0.00545447
0.00507563
0.00471751
0.00437991
0.00406261
0.00376533
0.00348772
0.00322941
0.00299
0.002769
0.00256592
0.00238018
0.00221117
0.00205821
0.00192054
0.00179735
0.00168774
0.00159074
0.00150531
0.00143034
0.00136473
0.00130728
0.00125696
0.00121254
0.00117329
0.00113782
0.00110613
0.00107614
0.00104947
0.00102209
0.000999045
0.000971681
0.000952144
0.000922123
0.00090745
0.000871582
0.000864701
0.000819129
0.000824384
0.00076513
0.000787614
0.000712285
0.000756456
0.000668086
0.000735005
0.000648078
0.000736758
0.000654471
0.000836661
0.000697302
0.00100619
0.0010116
0.00131115
0.0155171
0.0148225
0.0141414
0.0134739
0.0128204
0.0121812
0.0115569
0.0109483
0.0103559
0.00978052
0.00922291
0.00868371
0.00816351
0.00766282
0.00718203
0.00672146
0.00628131
0.00586171
0.00546269
0.00508422
0.0047262
0.00438845
0.00407075
0.00377284
0.00349438
0.00323501
0.00299434
0.0027719
0.00256721
0.0023797
0.00220879
0.00205382
0.00191406
0.00178873
0.00167696
0.00157783
0.00149034
0.0014134
0.00134595
0.00128683
0.001235
0.00118926
0.00114886
0.00111243
0.00107992
0.0010493
0.00102207
0.000994331
0.000970891
0.000943375
0.000923513
0.00089348
0.000878469
0.000842657
0.000835365
0.000789828
0.000794553
0.000735248
0.000756966
0.000681662
0.000724327
0.000637105
0.000699971
0.000618623
0.000696956
0.000627644
0.000798382
0.000666859
0.00097702
0.000983889
0.00128436
0.0154474
0.0147616
0.0140885
0.0134285
0.0127817
0.0121487
0.01153
0.0109265
0.0103387
0.00976742
0.00921347
0.0086775
0.00816011
0.00766184
0.00718309
0.00672421
0.00628541
0.00586684
0.00546856
0.00509053
0.00473269
0.00439486
0.00407684
0.00377836
0.00349913
0.00323878
0.00299692
0.00277312
0.00256688
0.00237768
0.00220494
0.00204802
0.00190623
0.00177882
0.00166496
0.00156374
0.00147422
0.00139535
0.00132609
0.00126531
0.00121199
0.00116493
0.00112339
0.00108601
0.00105269
0.00102146
0.000993675
0.000965585
0.000941757
0.0009141
0.000893916
0.000863881
0.000848529
0.000812779
0.000805062
0.00075956
0.00076373
0.000704361
0.000725277
0.000649961
0.000691078
0.00060496
0.00066374
0.000587918
0.000656099
0.000599445
0.000759787
0.000635521
0.000947317
0.00095624
0.00125796
0.0153752
0.014698
0.0140329
0.0133801
0.0127401
0.0121132
0.0115002
0.0109017
0.0103185
0.00975141
0.00920116
0.00866846
0.00815394
0.00765815
0.00718152
0.0067244
0.00628702
0.00586957
0.00547209
0.00509459
0.004737
0.00439917
0.0040809
0.00378195
0.00350202
0.00324076
0.0029978
0.00277271
0.00256501
0.0023742
0.00219971
0.00204092
0.00189718
0.00176775
0.00165185
0.00154861
0.0014571
0.00137634
0.0013053
0.00124287
0.00118808
0.00113973
0.00109706
0.00105874
0.00102461
0.000992767
0.000964442
0.000936015
0.000911807
0.000884017
0.000863515
0.000833486
0.000817788
0.000782106
0.000773948
0.000728477
0.000732063
0.000672608
0.000692685
0.000617308
0.000656838
0.000571749
0.000626442
0.00055603
0.000614377
0.000569905
0.000721203
0.000603413
0.000917339
0.000928902
0.00123222
0.0153004
0.0146318
0.0139745
0.013329
0.0126956
0.0120748
0.0114674
0.010874
0.0102954
0.0097325
0.00918599
0.00865662
0.00814503
0.00765179
0.00717734
0.00672205
0.00628618
0.00586991
0.00547332
0.00509643
0.00473917
0.00440142
0.00408299
0.00378365
0.0035031