/*--------------------------------*- C++ -*----------------------------------*\
| =========                 |                                                 |
| \\      /  F ield         | OpenFOAM: The Open Source CFD Toolbox           |
|  \\    /   O peration     | Version:  2412                                  |
|   \\  /    A nd           | Website:  www.openfoam.com                      |
|    \\/     M anipulation  |                                                 |
\*---------------------------------------------------------------------------*/
FoamFile
{
    version     2.0;
    format      ascii;
    arch        "LSB;label=32;scalar=64";
    class       surfaceScalarField;
    location    "30";
    object      phi;
}
// * * * * * * * * * * * * * * * * * * * * * * * * * * * * * * * * * * * * * //

dimensions      [0 3 -1 0 0 0 0];

oriented        oriented;

internalField   nonuniform List<scalar> 
10424
(
0.00523163
-0.000221057
0.00523432
-0.0002118
0.00523701
-0.000202832
0.00523969
-0.000194147
0.00524235
-0.000185738
0.00524498
-0.000177595
0.00524756
-0.000169709
0.00525008
-0.00016207
0.00525255
-0.000154669
0.00525495
-0.000147496
0.00525729
-0.000140545
0.00525955
-0.000133809
0.00526173
-0.000127284
0.00526383
-0.000120965
0.00526586
-0.000114848
0.00526781
-0.000108929
0.00526967
-0.000103207
0.00527145
-9.76773e-05
0.00527316
-9.23386e-05
0.00527478
-8.71882e-05
0.00527632
-8.22239e-05
0.00527778
-7.74432e-05
0.00527917
-7.28437e-05
0.00528048
-6.84232e-05
0.00528171
-6.4179e-05
0.00528287
-6.01087e-05
0.00528397
-5.62098e-05
0.00528499
-5.24796e-05
0.00528595
-4.89153e-05
0.00528684
-4.55142e-05
-4.22734e-05
0.00523422
-0.00022353
0.00523672
-0.000214304
0.00523924
-0.000205352
0.00524176
-0.000196668
0.00524427
-0.000188246
0.00524675
-0.000180079
0.0052492
-0.000172158
0.00525161
-0.000164476
0.00525396
-0.000157023
0.00525626
-0.000149793
0.00525849
-0.00014278
0.00526066
-0.000135978
0.00526276
-0.000129383
0.00526479
-0.000122992
0.00526674
-0.000116801
0.00526862
-0.000110807
0.00527042
-0.000105008
0.00527215
-9.94012e-05
0.00527379
-9.39855e-05
0.00527536
-8.87583e-05
0.00527686
-8.37178e-05
0.00527828
-7.88617e-05
0.00527962
-7.4188e-05
0.00528089
-6.96945e-05
0.00528209
-6.53789e-05
0.00528322
-6.12388e-05
0.00528428
-5.7272e-05
0.00528528
-5.34758e-05
0.00528621
-4.98476e-05
0.00528708
-4.63848e-05
0.00528789
-4.30845e-05
0.00528865
-3.99436e-05
0.00528935
-3.69595e-05
0.00528999
-3.41289e-05
0.00529059
-3.14487e-05
0.00529114
-2.89157e-05
0.00529164
-2.65263e-05
0.0052921
-2.42776e-05
0.00529252
-2.21657e-05
0.00529291
-2.01878e-05
0.00529325
-1.83393e-05
0.00529357
-1.66189e-05
0.00529385
-1.50194e-05
0.00529411
-1.3544e-05
0.00529433
-1.2179e-05
0.00529454
-1.09381e-05
0.00529472
-9.79335e-06
0.00529488
-8.78087e-06
0.00529502
-7.84158e-06
0.00529515
-7.05815e-06
0.00529526
-6.309e-06
0.00529536
-5.765e-06
0.00529546
-5.19059e-06
0.00529554
-4.90997e-06
0.00529562
-4.49812e-06
0.0052957
-4.52082e-06
0.00529577
-4.27132e-06
0.00529586
-4.65054e-06
0.00529594
-4.59849e-06
0.00529605
-5.37899e-06
0.00529614
-5.66311e-06
0.00529629
-6.7892e-06
0.00529642
-7.84286e-06
0.00529662
-8.92898e-06
0.00529684
-1.17233e-05
0.0052971
-1.22193e-05
0.00529749
-1.71959e-05
0.00529785
-1.87714e-05
0.00529843
-2.37599e-05
0.00529907
-2.79406e-05
-3.72582e-05
0.0052368
-0.000225811
0.00523913
-0.000216628
0.00524148
-0.000207702
0.00524384
-0.000199029
0.0052462
-0.000190605
0.00524854
-0.000182423
0.00525086
-0.000174477
0.00525314
-0.00016676
0.00525539
-0.000159265
0.00525758
-0.000151986
0.00525972
-0.000144918
0.00526179
-0.000138056
0.00526381
-0.000131398
0.00526576
-0.00012494
0.00526764
-0.00011868
0.00526945
-0.000112615
0.00527118
-0.000106745
0.00527285
-0.000101066
0.00527444
-9.5577e-05
0.00527596
-9.02769e-05
0.0052774
-8.51637e-05
0.00527878
-8.02356e-05
0.00528008
-7.54908e-05
0.00528131
-7.09272e-05
0.00528248
-6.65429e-05
0.00528357
-6.23357e-05
0.0052846
-5.83034e-05
0.00528557
-5.44435e-05
0.00528648
-5.07535e-05
0.00528732
-4.7231e-05
0.00528811
-4.38731e-05
0.00528885
-4.06768e-05
0.00528953
-3.76394e-05
0.00529016
-3.47579e-05
0.00529074
-3.2029e-05
0.00529127
-2.94497e-05
0.00529176
-2.70164e-05
0.00529221
-2.4726e-05
0.00529262
-2.25748e-05
0.00529299
-2.056e-05
0.00529333
-1.86767e-05
0.00529363
-1.69239e-05
0.00529391
-1.52942e-05
0.00529415
-1.37908e-05
0.00529437
-1.23999e-05
0.00529457
-1.11354e-05
0.00529475
-9.9687e-06
0.0052949
-8.93708e-06
0.00529504
-7.97966e-06
0.00529516
-7.18169e-06
0.00529527
-6.41782e-06
0.00529537
-5.86434e-06
0.00529546
-5.27805e-06
0.00529554
-4.99394e-06
0.00529562
-4.57231e-06
0.0052957
-4.59916e-06
0.00529577
-4.34084e-06
0.00529585
-4.73474e-06
0.00529592
-4.67291e-06
0.00529603
-5.48392e-06
0.00529612
-5.75372e-06
0.00529627
-6.93475e-06
0.00529639
-7.96717e-06
0.0052966
-9.13469e-06
0.0052968
-1.19274e-05
0.00529706
-1.24802e-05
0.00529744
-1.75792e-05
0.00529779
-1.91142e-05
0.00529837
-2.43389e-05
0.005299
-2.85719e-05
-3.8176e-05
0.00523939
-0.000227904
0.00524153
-0.000218774
0.00524372
-0.000209885
0.00524592
-0.000201233
0.00524813
-0.000192816
0.00525034
-0.000184629
0.00525253
-0.000176667
0.00525469
-0.000168924
0.00525682
-0.000161394
0.00525891
-0.000154073
0.00526095
-0.000146957
0.00526294
-0.000140043
0.00526486
-0.000133327
0.00526673
-0.000126809
0.00526854
-0.000120485
0.00527028
-0.000114355
0.00527195
-0.000108417
0.00527356
-0.00010267
0.00527509
-9.71126e-05
0.00527656
-9.17434e-05
0.00527796
-8.65611e-05
0.00527928
-8.15644e-05
0.00528054
-7.67516e-05
0.00528174
-7.2121e-05
0.00528287
-6.76708e-05
0.00528393
-6.3399e-05
0.00528493
-5.93035e-05
0.00528587
-5.53822e-05
0.00528675
-5.16327e-05
0.00528757
-4.80523e-05
0.00528833
-4.46388e-05
0.00528905
-4.13888e-05
0.00528971
-3.82998e-05
0.00529032
-3.53688e-05
0.00529088
-3.25928e-05
0.0052914
-2.99684e-05
0.00529188
-2.74924e-05
0.00529231
-2.51616e-05
0.00529271
-2.29721e-05
0.00529307
-2.09213e-05
0.0052934
-1.90043e-05
0.00529369
-1.722e-05
0.00529396
-1.55607e-05
0.0052942
-1.40301e-05
0.00529441
-1.26139e-05
0.00529461
-1.13264e-05
0.00529478
-1.01384e-05
0.00529493
-9.08813e-06
0.00529506
-8.11304e-06
0.00529518
-7.30094e-06
0.00529528
-6.52267e-06
0.00529538
-5.96005e-06
0.00529546
-5.36208e-06
0.00529554
-5.07477e-06
0.00529562
-4.64339e-06
0.00529569
-4.67465e-06
0.00529576
-4.40735e-06
0.00529584
-4.81625e-06
0.00529591
-4.74402e-06
0.00529601
-5.58632e-06
0.0052961
-5.83996e-06
0.00529624
-7.07849e-06
0.00529636
-8.08442e-06
0.00529657
-9.34031e-06
0.00529676
-1.21213e-05
0.00529702
-1.27383e-05
0.0052974
-1.79592e-05
0.00529772
-1.94391e-05
0.0052983
-2.49194e-05
0.00529893
-2.91957e-05
-3.90827e-05
0.00524197
-0.000229813
0.00524394
-0.000220746
0.00524596
-0.000211903
0.00524801
-0.000203282
0.00525007
-0.000194882
0.00525214
-0.000186699
0.00525421
-0.000178729
0.00525625
-0.000170968
0.00525827
-0.000163411
0.00526025
-0.000156056
0.00526219
-0.000148899
0.00526409
-0.000141938
0.00526593
-0.000135171
0.00526772
-0.000128598
0.00526945
-0.000122216
0.00527112
-0.000116026
0.00527273
-0.000110025
0.00527427
-0.000104214
0.00527575
-9.85918e-05
0.00527716
-9.31573e-05
0.00527851
-8.79096e-05
0.0052798
-8.28476e-05
0.00528101
-7.797e-05
0.00528217
-7.32753e-05
0.00528326
-6.87619e-05
0.00528429
-6.44282e-05
0.00528526
-6.02721e-05
0.00528617
-5.62917e-05
0.00528702
-5.24846e-05
0.00528782
-4.88486e-05
0.00528856
-4.53812e-05
0.00528925
-4.20793e-05
0.00528989
-3.89404e-05
0.00529048
-3.59615e-05
0.00529103
-3.31397e-05
0.00529153
-3.04718e-05
0.00529199
-2.79542e-05
0.00529242
-2.55841e-05
0.0052928
-2.33575e-05
0.00529315
-2.12718e-05
0.00529347
-1.93219e-05
0.00529376
-1.75069e-05
0.00529402
-1.5819e-05
0.00529425
-1.42618e-05
0.00529445
-1.2821e-05
0.00529464
-1.15112e-05
0.0052948
-1.03024e-05
0.00529495
-9.23398e-06
0.00529508
-8.24165e-06
0.00529519
-7.41584e-06
0.00529529
-6.6235e-06
0.00529539
-6.05209e-06
0.00529547
-5.44265e-06
0.00529554
-5.1524e-06
0.00529561
-4.71135e-06
0.00529568
-4.74725e-06
0.00529575
-4.47079e-06
0.00529583
-4.89502e-06
0.00529589
-4.81177e-06
0.00529599
-5.68613e-06
0.00529608
-5.92177e-06
0.00529622
-7.22038e-06
0.00529633
-8.19447e-06
0.00529653
-9.5459e-06
0.00529672
-1.23048e-05
0.00529697
-1.29934e-05
0.00529735
-1.8336e-05
0.00529765
-1.9745e-05
0.00529824
-2.55016e-05
0.00529885
-2.98116e-05
-3.99773e-05
0.00524455
-0.000231541
0.00524635
-0.000222546
0.0052482
-0.000213758
0.0052501
-0.000205178
0.00525202
-0.000196803
0.00525395
-0.000188633
0.00525589
-0.000180664
0.00525781
-0.000172893
0.00525972
-0.000165317
0.0052616
-0.000157934
0.00526344
-0.000150743
0.00526524
-0.000143742
0.005267
-0.00013693
0.00526871
-0.000130307
0.00527037
-0.000123872
0.00527197
-0.000117626
0.00527351
-0.000111568
0.00527499
-0.000105697
0.00527642
-0.000100014
0.00527778
-9.45182e-05
0.00527908
-8.92087e-05
0.00528031
-8.40848e-05
0.00528149
-7.91455e-05
0.0052826
-7.43897e-05
0.00528366
-6.9816e-05
0.00528465
-6.5423e-05
0.00528559
-6.12087e-05
0.00528647
-5.71715e-05
0.00528729
-5.33092e-05
0.00528806
-4.96194e-05
0.00528878
-4.61001e-05
0.00528945
-4.27481e-05
0.00529007
-3.95609e-05
0.00529065
-3.65358e-05
0.00529118
-3.36696e-05
0.00529166
-3.09594e-05
0.00529211
-2.84017e-05
0.00529252
-2.59935e-05
0.00529289
-2.37308e-05
0.00529323
-2.16112e-05
0.00529354
-1.96294e-05
0.00529382
-1.77846e-05
0.00529407
-1.60688e-05
0.00529429
-1.44859e-05
0.00529449
-1.30211e-05
0.00529467
-1.16897e-05
0.00529483
-1.04606e-05
0.00529497
-9.37456e-06
0.00529509
-8.36544e-06
0.0052952
-7.52635e-06
0.0052953
-6.72028e-06
0.00529539
-6.14042e-06
0.00529547
-5.51971e-06
0.00529554
-5.22683e-06
0.00529561
-4.77614e-06
0.00529568
-4.81695e-06
0.00529574
-4.53116e-06
0.00529581
-4.97103e-06
0.00529588
-4.87615e-06
0.00529597
-5.78333e-06
0.00529605
-5.99912e-06
0.00529619
-7.36039e-06
0.00529629
-8.29719e-06
0.0052965
-9.75152e-06
0.00529667
-1.24774e-05
0.00529692
-1.32456e-05
0.0052973
-1.87095e-05
0.00529758
-2.00314e-05
0.00529817
-2.60855e-05
0.00529878
-3.04196e-05
-4.08589e-05
0.00524712
-0.000233092
0.00524875
-0.000224178
0.00525044
-0.000215455
0.00525219
-0.000206923
0.00525397
-0.000198582
0.00525577
-0.000190433
0.00525758
-0.000182472
0.00525938
-0.000174699
0.00526118
-0.000167111
0.00526295
-0.000159708
0.0052647
-0.000152489
0.00526641
-0.000145454
0.00526808
-0.000138603
0.00526971
-0.000131936
0.00527129
-0.000125453
0.00527282
-0.000119156
0.0052743
-0.000113045
0.00527572
-0.000107119
0.00527709
-0.000101379
0.00527839
-9.58258e-05
0.00527964
-9.0458e-05
0.00528083
-8.52755e-05
0.00528197
-8.02778e-05
0.00528304
-7.54639e-05
0.00528406
-7.08327e-05
0.00528502
-6.63829e-05
0.00528592
-6.2113e-05
0.00528677
-5.80213e-05
0.00528757
-5.41059e-05
0.00528831
-5.03645e-05
0.00528901
-4.67951e-05
0.00528965
-4.33948e-05
0.00529026
-4.01611e-05
0.00529081
-3.70913e-05
0.00529132
-3.41823e-05
0.0052918
-3.14312e-05
0.00529223
-2.88346e-05
0.00529262
-2.63895e-05
0.00529299
-2.40919e-05
0.00529331
-2.19393e-05
0.00529361
-1.99266e-05
0.00529388
-1.80529e-05
0.00529412
-1.63101e-05
0.00529434
-1.47023e-05
0.00529453
-1.32142e-05
0.0052947
-1.18617e-05
0.00529485
-1.06129e-05
0.00529499
-9.50982e-06
0.00529511
-8.48437e-06
0.00529521
-7.63244e-06
0.00529531
-6.81298e-06
0.00529539
-6.22502e-06
0.00529547
-5.59326e-06
0.00529554
-5.29801e-06
0.0052956
-4.83775e-06
0.00529566
-4.88372e-06
0.00529572
-4.58844e-06
0.0052958
-5.04426e-06
0.00529586
-4.93715e-06
0.00529595
-5.87788e-06
0.00529602
-6.07198e-06
0.00529616
-7.49848e-06
0.00529626
-8.39252e-06
0.00529646
-9.9572e-06
0.00529662
-1.2639e-05
0.00529687
-1.34949e-05
0.00529724
-1.90798e-05
0.00529751
-2.02975e-05
0.0052981
-2.66714e-05
0.0052987
-3.10196e-05
-4.17265e-05
0.00524967
-0.000234469
0.00525114
-0.000225645
0.00525268
-0.000216994
0.00525428
-0.000208519
0.00525592
-0.000200221
0.00525758
-0.0001921
0.00525927
-0.000184156
0.00526096
-0.000176387
0.00526264
-0.000168795
0.00526431
-0.000161378
0.00526596
-0.000154138
0.00526758
-0.000147075
0.00526917
-0.00014019
0.00527072
-0.000133484
0.00527222
-0.000126959
0.00527368
-0.000120616
0.00527509
-0.000114456
0.00527645
-0.000108479
0.00527776
-0.000102687
0.00527901
-9.70796e-05
0.00528021
-9.16571e-05
0.00528136
-8.64196e-05
0.00528245
-8.13666e-05
0.00528348
-7.64975e-05
0.00528446
-7.18116e-05
0.00528538
-6.73078e-05
0.00528626
-6.29847e-05
0.00528707
-5.88409e-05
0.00528784
-5.48746e-05
0.00528856
-5.10837e-05
0.00528923
-4.74662e-05
0.00528986
-4.40194e-05
0.00529044
-4.07409e-05
0.00529097
-3.76279e-05
0.00529147
-3.46776e-05
0.00529193
-3.1887e-05
0.00529234
-2.92528e-05
0.00529273
-2.6772e-05
0.00529308
-2.44406e-05
0.00529339
-2.22562e-05
0.00529368
-2.02136e-05
0.00529394
-1.83119e-05
0.00529417
-1.65429e-05
0.00529438
-1.49108e-05
0.00529457
-1.34002e-05
0.00529473
-1.20272e-05
0.00529488
-1.07593e-05
0.00529501
-9.63972e-06
0.00529512
-8.59841e-06
0.00529522
-7.73407e-06
0.00529531
-6.90157e-06
0.00529539
-6.30587e-06
0.00529546
-5.66326e-06
0.00529553
-5.36595e-06
0.00529559
-4.89617e-06
0.00529565
-4.94756e-06
0.00529571
-4.64261e-06
0.00529578
-5.11468e-06
0.00529583
-4.99474e-06
0.00529593
-5.96975e-06
0.00529599
-6.14035e-06
0.00529613
-7.63461e-06
0.00529622
-8.48039e-06
0.00529642
-1.01629e-05
0.00529657
-1.27895e-05
0.00529682
-1.37413e-05
0.00529719
-1.94467e-05
0.00529743
-2.05427e-05
0.00529802
-2.72591e-05
0.00529861
-3.16114e-05
-4.25792e-05
0.00525222
-0.000235677
0.00525353
-0.00022695
0.00525491
-0.00021838
0.00525636
-0.00020997
0.00525786
-0.000201721
0.0052594
-0.000193636
0.00526096
-0.000185716
0.00526253
-0.000177959
0.00526411
-0.000170369
0.00526567
-0.000162945
0.00526722
-0.000155689
0.00526875
-0.000148604
0.00527026
-0.000141691
0.00527172
-0.000134953
0.00527315
-0.00012839
0.00527454
-0.000122006
0.00527589
-0.000115801
0.00527719
-0.000109778
0.00527844
-0.000103937
0.00527964
-9.82795e-05
0.00528079
-9.28059e-05
0.00528188
-8.75165e-05
0.00528293
-8.24114e-05
0.00528392
-7.74903e-05
0.00528486
-7.27525e-05
0.00528575
-6.81973e-05
0.00528659
-6.38236e-05
0.00528738
-5.963e-05
0.00528812
-5.56149e-05
0.00528881
-5.17766e-05
0.00528946
-4.81129e-05
0.00529006
-4.46215e-05
0.00529062
-4.12999e-05
0.00529114
-3.81454e-05
0.00529162
-3.51553e-05
0.00529205
-3.23267e-05
0.00529246
-2.96562e-05
0.00529283
-2.71409e-05
0.00529316
-2.47769e-05
0.00529347
-2.25617e-05
0.00529375
-2.04901e-05
0.00529399
-1.85613e-05
0.00529422
-1.6767e-05
0.00529442
-1.51115e-05
0.0052946
-1.3579e-05
0.00529476
-1.21862e-05
0.0052949
-1.08999e-05
0.00529502
-9.76424e-06
0.00529513
-8.70753e-06
0.00529523
-7.83124e-06
0.00529531
-6.98604e-06
0.00529539
-6.38295e-06
0.00529546
-5.72972e-06
0.00529552
-5.43064e-06
0.00529558
-4.9514e-06
0.00529564
-5.00845e-06
0.00529569
-4.69368e-06
0.00529576
-5.18229e-06
0.00529581
-5.04895e-06
0.0052959
-6.0589e-06
0.00529596
-6.20425e-06
0.0052961
-7.76871e-06
0.00529618
-8.56081e-06
0.00529638
-1.03687e-05
0.00529652
-1.29286e-05
0.00529677
-1.39847e-05
0.00529713
-1.98103e-05
0.00529735
-2.07667e-05
0.00529794
-2.78485e-05
0.00529853
-3.21948e-05
-4.3416e-05
0.00525475
-0.00023672
0.0052559
-0.000228097
0.00525713
-0.000219615
0.00525844
-0.000211277
0.00525981
-0.000203085
0.00526121
-0.000195044
0.00526265
-0.000187153
0.00526411
-0.000179416
0.00526557
-0.000171834
0.00526704
-0.000164409
0.00526849
-0.000157145
0.00526993
-0.000150043
0.00527135
-0.000143107
0.00527273
-0.000136341
0.00527409
-0.000129746
0.00527541
-0.000123325
0.00527669
-0.00011708
0.00527792
-0.000111014
0.00527912
-0.000105129
0.00528026
-9.94251e-05
0.00528136
-9.3904e-05
0.00528241
-8.85662e-05
0.00528341
-8.34122e-05
0.00528436
-7.84419e-05
0.00528526
-7.36551e-05
0.00528612
-6.90511e-05
0.00528692
-6.46293e-05
0.00528768
-6.03883e-05
0.00528839
-5.63268e-05
0.00528906
-5.24431e-05
0.00528968
-4.87353e-05
0.00529026
-4.5201e-05
0.0052908
-4.1838e-05
0.0052913
-3.86437e-05
0.00529176
-3.56153e-05
0.00529218
-3.275e-05
0.00529257
-3.00446e-05
0.00529293
-2.74961e-05
0.00529325
-2.51006e-05
0.00529354
-2.28557e-05
0.00529381
-2.07561e-05
0.00529405
-1.88012e-05
0.00529426
-1.69824e-05
0.00529446
-1.53042e-05
0.00529463
-1.37506e-05
0.00529478
-1.23387e-05
0.00529492
-1.10344e-05
0.00529504
-9.88336e-06
0.00529514
-8.81172e-06
0.00529523
-7.92392e-06
0.00529531
-7.06638e-06
0.00529539
-6.45628e-06
0.00529545
-5.79264e-06
0.00529551
-5.49207e-06
0.00529556
-5.00343e-06
0.00529562
-5.06641e-06
0.00529567
-4.74165e-06
0.00529573
-5.24709e-06
0.00529578
-5.09978e-06
0.00529587
-6.14531e-06
0.00529593
-6.26369e-06
0.00529606
-7.90073e-06
0.00529613
-8.63382e-06
0.00529634
-1.05743e-05
0.00529647
-1.30564e-05
0.00529671
-1.42251e-05
0.00529707
-2.01705e-05
0.00529727
-2.09692e-05
0.00529786
-2.84394e-05
0.00529844
-3.27696e-05
-4.42363e-05
0.00525727
-0.000237601
0.00525826
-0.00022909
0.00525935
-0.000220702
0.00526051
-0.000212443
0.00526174
-0.000204315
0.00526302
-0.000196324
0.00526434
-0.000188471
0.00526568
-0.000180759
0.00526704
-0.000173191
0.0052684
-0.000165771
0.00526976
-0.000158504
0.00527111
-0.000151391
0.00527244
-0.000144438
0.00527375
-0.000137649
0.00527503
-0.000131026
0.00527628
-0.000124573
0.00527749
-0.000118293
0.00527866
-0.000112189
0.0052798
-0.000106263
0.00528089
-0.000100516
0.00528193
-9.49511e-05
0.00528294
-8.95683e-05
0.00528389
-8.43685e-05
0.0052848
-7.93521e-05
0.00528567
-7.45191e-05
0.00528649
-6.98691e-05
0.00528726
-6.54016e-05
0.00528799
-6.11156e-05
0.00528867
-5.70099e-05
0.00528931
-5.30829e-05
0.00528991
-4.93329e-05
0.00529046
-4.57578e-05
0.00529098
-4.23551e-05
0.00529146
-3.91226e-05
0.0052919
-3.60575e-05
0.00529231
-3.3157e-05
0.00529268
-3.04179e-05
0.00529302
-2.78374e-05
0.00529333
-2.54117e-05
0.00529362
-2.31382e-05
0.00529387
-2.10116e-05
0.0052941
-1.90314e-05
0.00529431
-1.7189e-05
0.00529449
-1.5489e-05
0.00529466
-1.3915e-05
0.0052948
-1.24847e-05
0.00529493
-1.11631e-05
0.00529505
-9.99708e-06
0.00529514
-8.91099e-06
0.00529523
-8.01213e-06
0.00529531
-7.1426e-06
0.00529538
-6.52585e-06
0.00529544
-5.85203e-06
0.0052955
-5.55028e-06
0.00529555
-5.0523e-06
0.0052956
-5.12144e-06
0.00529565
-4.78655e-06
0.00529571
-5.30908e-06
0.00529575
-5.14726e-06
0.00529584
-6.22896e-06
0.00529589
-6.31873e-06
0.00529602
-8.03058e-06
0.00529609
-8.69948e-06
0.00529629
-1.07797e-05
0.00529641
-1.31729e-05
0.00529665
-1.44622e-05
0.005297
-2.0527e-05
0.00529719
-2.115e-05
0.00529778
-2.90315e-05
0.00529834
-3.33357e-05
-4.50391e-05
0.00525976
-0.000238325
0.0052606
-0.000229931
0.00526155
-0.000221645
0.00526257
-0.00021347
0.00526367
-0.000205414
0.00526483
-0.000197478
0.00526602
-0.000189668
0.00526725
-0.000181988
0.0052685
-0.000174441
0.00526976
-0.000167033
0.00527103
-0.000159767
0.00527229
-0.000152649
0.00527353
-0.000145684
0.00527476
-0.000138877
0.00527597
-0.000132231
0.00527714
-0.00012575
0.00527829
-0.000119439
0.0052794
-0.000113301
0.00528048
-0.000107338
0.00528151
-0.000101553
0.00528251
-9.59472e-05
0.00528346
-9.05227e-05
0.00528438
-8.52803e-05
0.00528524
-8.02207e-05
0.00528607
-7.53443e-05
0.00528685
-7.0651e-05
0.00528759
-6.61404e-05
0.00528829
-6.18118e-05
0.00528894
-5.76641e-05
0.00528955
-5.3696e-05
0.00529013
-4.99058e-05
0.00529066
-4.62916e-05
0.00529116
-4.28511e-05
0.00529162
-3.9582e-05
0.00529204
-3.64816e-05
0.00529243
-3.35474e-05
0.00529279
-3.07761e-05
0.00529312
-2.81649e-05
0.00529341
-2.571e-05
0.00529369
-2.3409e-05
0.00529393
-2.12565e-05
0.00529415
-1.92521e-05
0.00529435
-1.73869e-05
0.00529453
-1.56658e-05
0.00529468
-1.40721e-05
0.00529482
-1.2624e-05
0.00529494
-1.12857e-05
0.00529505
-1.01054e-05
0.00529515
-9.00534e-06
0.00529523
-8.09589e-06
0.0052953
-7.21473e-06
0.00529537
-6.5917e-06
0.00529542
-5.90791e-06
0.00529548
-5.60528e-06
0.00529553
-5.09801e-06
0.00529558
-5.17358e-06
0.00529562
-4.8284e-06
0.00529568
-5.36828e-06
0.00529572
-5.19143e-06
0.0052958
-6.30984e-06
0.00529585
-6.36944e-06
0.00529598
-8.15817e-06
0.00529604
-8.75795e-06
0.00529625
-1.09846e-05
0.00529635
-1.32783e-05
0.00529658
-1.4696e-05
0.00529694
-2.08798e-05
0.0052971
-2.13094e-05
0.00529769
-2.9624e-05
0.00529825
-3.38926e-05
-4.58239e-05
0.00526224
-0.000238896
0.00526293
-0.000230624
0.00526373
-0.000222445
0.00526462
-0.000214362
0.00526559
-0.000206382
0.00526662
-0.000198509
0.0052677
-0.000190749
0.00526882
-0.000183106
0.00526997
-0.000175585
0.00527113
-0.000168193
0.00527229
-0.000160935
0.00527346
-0.000153818
0.00527462
-0.000146846
0.00527577
-0.000140025
0.0052769
-0.00013336
0.00527801
-0.000126857
0.00527909
-0.00012052
0.00528014
-0.000114351
0.00528116
-0.000108355
0.00528214
-0.000102535
0.00528308
-9.68921e-05
0.00528399
-9.14291e-05
0.00528486
-8.61473e-05
0.00528568
-8.10476e-05
0.00528647
-7.61307e-05
0.00528722
-7.13967e-05
0.00528792
-6.68455e-05
0.00528859
-6.24766e-05
0.00528921
-5.82893e-05
0.0052898
-5.42822e-05
0.00529034
-5.04538e-05
0.00529086
-4.68024e-05
0.00529133
-4.33258e-05
0.00529177
-4.00218e-05
0.00529218
-3.68878e-05
0.00529255
-3.39212e-05
0.00529289
-3.1119e-05
0.00529321
-2.84785e-05
0.00529349
-2.59956e-05
0.00529375
-2.36682e-05
0.00529399
-2.14908e-05
0.0052942
-1.9463e-05
0.00529439
-1.75759e-05
0.00529455
-1.58346e-05
0.0052947
-1.4222e-05
0.00529484
-1.27568e-05
0.00529495
-1.14024e-05
0.00529506
-1.02083e-05
0.00529515
-9.09479e-06
0.00529523
-8.17521e-06
0.00529529
-7.28278e-06
0.00529536
-6.65385e-06
0.00529541
-5.96032e-06
0.00529546
-5.6571e-06
0.0052955
-5.14062e-06
0.00529555
-5.22285e-06
0.00529559
-4.86723e-06
0.00529565
-5.42471e-06
0.00529569
-5.23233e-06
0.00529577
-6.38794e-06
0.00529581
-6.4159e-06
0.00529594
-8.28341e-06
0.00529599
-8.8094e-06
0.00529619
-1.11889e-05
0.00529629
-1.33728e-05
0.00529652
-1.49262e-05
0.00529687
-2.12285e-05
0.00529701
-2.14477e-05
0.0052976
-3.02164e-05
0.00529815
-3.44401e-05
-4.65899e-05
0.00526469
-0.000239317
0.00526524
-0.000231174
0.0052659
-0.000223107
0.00526666
-0.000215121
0.0052675
-0.000207223
0.00526841
-0.000199418
0.00526938
-0.000191713
0.00527038
-0.000184113
0.00527142
-0.000176625
0.00527248
-0.000169255
0.00527356
-0.00016201
0.00527464
-0.000154897
0.00527571
-0.000147923
0.00527678
-0.000141094
0.00527784
-0.000134415
0.00527887
-0.000127894
0.00527989
-0.000121533
0.00528088
-0.000115339
0.00528183
-0.000109314
0.00528276
-0.000103462
0.00528365
-9.77857e-05
0.00528451
-9.22876e-05
0.00528534
-8.69695e-05
0.00528612
-8.18327e-05
0.00528687
-7.6878e-05
0.00528758
-7.2106e-05
0.00528825
-6.75168e-05
0.00528888
-6.31101e-05
0.00528948
-5.88853e-05
0.00529004
-5.48413e-05
0.00529056
-5.09768e-05
0.00529105
-4.72901e-05
0.0052915
-4.37792e-05
0.00529192
-4.04419e-05
0.00529231
-3.72758e-05
0.00529267
-3.42785e-05
0.00529299
-3.14467e-05
0.00529329
-2.8778e-05
0.00529357
-2.62684e-05
0.00529381
-2.39157e-05
0.00529404
-2.17145e-05
0.00529424
-1.96643e-05
0.00529442
-1.77562e-05
0.00529458
-1.59955e-05
0.00529472
-1.43647e-05
0.00529485
-1.28831e-05
0.00529496
-1.15132e-05
0.00529506
-1.03059e-05
0.00529514
-9.17938e-06
0.00529522
-8.25013e-06
0.00529528
-7.3468e-06
0.00529534
-6.71234e-06
0.00529539
-6.00929e-06
0.00529544
-5.70579e-06
0.00529548
-5.18015e-06
0.00529552
-5.26929e-06
0.00529556
-4.9031e-06
0.00529561
-5.47839e-06
0.00529565
-5.27003e-06
0.00529573
-6.46325e-06
0.00529577
-6.45821e-06
0.00529589
-8.40618e-06
0.00529594
-8.85407e-06
0.00529614
-1.13921e-05
0.00529622
-1.34568e-05
0.00529645
-1.51525e-05
0.00529679
-2.15728e-05
0.00529691
-2.15654e-05
0.0052975
-3.08076e-05
0.00529804
-3.49778e-05
-4.73366e-05
0.00526712
-0.000239593
0.00526753
-0.000231583
0.00526806
-0.000223633
0.00526868
-0.00021575
0.0052694
-0.000207939
0.00527019
-0.000200207
0.00527104
-0.000192563
0.00527194
-0.000185011
0.00527287
-0.00017756
0.00527384
-0.000170217
0.00527482
-0.00016299
0.00527581
-0.000155888
0.0052768
-0.000148916
0.00527779
-0.000142083
0.00527877
-0.000135396
0.00527974
-0.00012886
0.00528068
-0.000122481
0.00528161
-0.000116264
0.00528251
-0.000110214
0.00528338
-0.000104334
0.00528422
-9.86279e-05
0.00528503
-9.30981e-05
0.00528581
-8.77468e-05
0.00528655
-8.25758e-05
0.00528726
-7.75862e-05
0.00528794
-7.27789e-05
0.00528857
-6.81542e-05
0.00528917
-6.3712e-05
0.00528974
-5.94521e-05
0.00529027
-5.53733e-05
0.00529077
-5.14747e-05
0.00529124
-4.77546e-05
0.00529167
-4.42111e-05
0.00529207
-4.08423e-05
0.00529244
-3.76457e-05
0.00529278
-3.4619e-05
0.00529309
-3.17592e-05
0.00529338
-2.90636e-05
0.00529364
-2.65284e-05
0.00529387
-2.41516e-05
0.00529409
-2.19275e-05
0.00529428
-1.98559e-05
0.00529445
-1.79277e-05
0.0052946
-1.61484e-05
0.00529474
-1.45001e-05
0.00529486
-1.30028e-05
0.00529496
-1.16181e-05
0.00529505
-1.03982e-05
0.00529513
-9.25915e-06
0.0052952
-8.32071e-06
0.00529526
-7.40684e-06
0.00529532
-6.76722e-06
0.00529537
-6.05489e-06
0.00529541
-5.7514e-06
0.00529545
-5.21667e-06
0.00529549
-5.31296e-06
0.00529552
-4.93606e-06
0.00529557
-5.52938e-06
0.00529561
-5.30458e-06
0.00529568
-6.53577e-06
0.00529572
-6.49651e-06
0.00529584
-8.52635e-06
0.00529588
-8.89226e-06
0.00529608
-1.15939e-05
0.00529615
-1.35307e-05
0.00529638
-1.53747e-05
0.00529672
-2.19125e-05
0.00529681
-2.16634e-05
0.0052974
-3.13967e-05
0.00529793
-3.55052e-05
-4.80637e-05
0.00526952
-0.000239728
0.0052698
-0.000231855
0.00527019
-0.000224027
0.00527069
-0.00021625
0.00527128
-0.000208532
0.00527196
-0.000200879
0.00527269
-0.0001933
0.00527348
-0.000185801
0.00527432
-0.000178393
0.00527518
-0.000171082
0.00527607
-0.000163878
0.00527697
-0.00015679
0.00527788
-0.000149826
0.00527879
-0.000142994
0.0052797
-0.000136302
0.00528059
-0.000129756
0.00528148
-0.000123362
0.00528234
-0.000117127
0.00528318
-0.000111056
0.005284
-0.000105152
0.00528479
-9.94188e-05
0.00528555
-9.38604e-05
0.00528628
-8.84791e-05
0.00528698
-8.32769e-05
0.00528765
-7.82552e-05
0.00528829
-7.34152e-05
0.00528889
-6.87576e-05
0.00528946
-6.42824e-05
0.00529
-5.99895e-05
0.00529051
-5.58782e-05
0.00529098
-5.19475e-05
0.00529142
-4.81958e-05
0.00529183
-4.46216e-05
0.00529221
-4.12229e-05
0.00529256
-3.79975e-05
0.00529289
-3.49429e-05
0.00529318
-3.20563e-05
0.00529346
-2.93351e-05
0.0052937
-2.67757e-05
0.00529393
-2.43758e-05
0.00529413
-2.21299e-05
0.00529431
-2.00379e-05
0.00529447
-1.80905e-05
0.00529462
-1.62934e-05
0.00529475
-1.46284e-05
0.00529486
-1.31161e-05
0.00529496
-1.17171e-05
0.00529505
-1.04852e-05
0.00529512
-9.33416e-06
0.00529519
-8.38699e-06
0.00529524
-7.46295e-06
0.0052953
-6.81856e-06
0.00529534
-6.09716e-06
0.00529538
-5.794e-06
0.00529541
-5.25023e-06
0.00529546
-5.35392e-06
0.00529549
-4.96617e-06
0.00529553
-5.57771e-06
0.00529557
-5.33607e-06
0.00529563
-6.6055e-06
0.00529567
-6.53092e-06
0.00529579
-8.64379e-06
0.00529582
-8.9243e-06
0.00529602
-1.17938e-05
0.00529608
-1.3595e-05
0.0052963
-1.55924e-05
0.00529664
-2.2247e-05
0.00529671
-2.17427e-05
0.0052973
-3.19822e-05
0.00529782
-3.60219e-05
-4.87706e-05
0.0052719
-0.000239726
0.00527204
-0.000231994
0.0052723
-0.000224292
0.00527268
-0.000216626
0.00527315
-0.000209004
0.00527371
-0.000201435
0.00527433
-0.000193925
0.00527502
-0.000186486
0.00527575
-0.000179124
0.00527652
-0.00017185
0.00527731
-0.000164674
0.00527813
-0.000157606
0.00527896
-0.000150653
0.00527979
-0.000143827
0.00528062
-0.000137134
0.00528145
-0.000130582
0.00528226
-0.000124178
0.00528306
-0.000117929
0.00528385
-0.000111839
0.00528461
-0.000105914
0.00528535
-0.000100158
0.00528606
-9.45747e-05
0.00528675
-8.91664e-05
0.00528741
-8.39359e-05
0.00528804
-7.8885e-05
0.00528864
-7.4015e-05
0.00528921
-6.9327e-05
0.00528975
-6.48212e-05
0.00529026
-6.04976e-05
0.00529073
-5.63559e-05
0.00529118
-5.2395e-05
0.0052916
-4.86138e-05
0.00529199
-4.50107e-05
0.00529235
-4.15838e-05
0.00529268
-3.8331e-05
0.00529299
-3.525e-05
0.00529327
-3.23381e-05
0.00529353
-2.95927e-05
0.00529376
-2.70101e-05
0.00529398
-2.45883e-05
0.00529417
-2.23217e-05
0.00529434
-2.02103e-05
0.0052945
-1.82445e-05
0.00529463
-1.64305e-05
0.00529475
-1.47496e-05
0.00529486
-1.3223e-05
0.00529495
-1.18104e-05
0.00529504
-1.05669e-05
0.00529511
-9.40447e-06
0.00529517
-8.44905e-06
0.00529522
-7.5152e-06
0.00529527
-6.86643e-06
0.00529531
-6.13618e-06
0.00529535
-5.83365e-06
0.00529538
-5.28091e-06
0.00529542
-5.39222e-06
0.00529544
-4.99351e-06
0.00529549
-5.62344e-06
0.00529552
-5.36459e-06
0.00529558
-6.67245e-06
0.00529562
-6.56161e-06
0.00529573
-8.75834e-06
0.00529576
-8.95058e-06
0.00529595
-1.19913e-05
0.00529601
-1.36505e-05
0.00529622
-1.58052e-05
0.00529655
-2.25759e-05
0.00529661
-2.18047e-05
0.00529719
-3.25629e-05
0.0052977
-3.65272e-05
-4.94572e-05
0.00527425
-0.00023959
0.00527426
-0.000232003
0.0052744
-0.000224431
0.00527465
-0.00021688
0.00527501
-0.000209359
0.00527545
-0.000201876
0.00527596
-0.000194442
0.00527654
-0.000187065
0.00527718
-0.000179755
0.00527785
-0.000172523
0.00527855
-0.000165379
0.00527928
-0.000158334
0.00528003
-0.000151398
0.00528078
-0.000144581
0.00528154
-0.000137892
0.0052823
-0.000131338
0.00528305
-0.000124928
0.00528379
-0.000118668
0.00528451
-0.000112564
0.00528522
-0.000106622
0.00528591
-0.000100847
0.00528657
-9.52409e-05
0.00528722
-8.98088e-05
0.00528783
-8.4553e-05
0.00528842
-7.94756e-05
0.00528899
-7.45783e-05
0.00528952
-6.98623e-05
0.00529003
-6.53283e-05
0.00529051
-6.09764e-05
0.00529096
-5.68063e-05
0.00529138
-5.28174e-05
0.00529177
-4.90086e-05
0.00529214
-4.53783e-05
0.00529248
-4.19249e-05
0.0052928
-3.86464e-05
0.00529309
-3.55405e-05
0.00529336
-3.26046e-05
0.0052936
-2.98363e-05
0.00529382
-2.72319e-05
0.00529402
-2.47893e-05
0.0052942
-2.2503e-05
0.00529437
-2.03731e-05
0.00529451
-1.839e-05
0.00529464
-1.65598e-05
0.00529476
-1.48638e-05
0.00529486
-1.33236e-05
0.00529494
-1.1898e-05
0.00529502
-1.06436e-05
0.00529509
-9.47015e-06
0.00529514
-8.50696e-06
0.00529519
-7.56368e-06
0.00529524
-6.91089e-06
0.00529527
-6.17203e-06
0.00529531
-5.87043e-06
0.00529534
-5.30878e-06
0.00529537
-5.42796e-06
0.0052954
-5.01815e-06
0.00529544
-5.66663e-06
0.00529547
-5.39022e-06
0.00529553
-6.73664e-06
0.00529556
-6.58875e-06
0.00529567
-8.86984e-06