/*--------------------------------*- C++ -*----------------------------------*\
| =========                 |                                                 |
| \\      /  F ield         | OpenFOAM: The Open Source CFD Toolbox           |
|  \\    /   O peration     | Version:  2412                                  |
|   \\  /    A nd           | Website:  www.openfoam.com                      |
|    \\/     M anipulation  |                                                 |
\*---------------------------------------------------------------------------*/
FoamFile
{
    version     2.0;
    format      ascii;
    arch        "LSB;label=32;scalar=64";
    class       volScalarField;
    location    "15.5";
    object      p;
}
// * * * * * * * * * * * * * * * * * * * * * * * * * * * * * * * * * * * * * //

dimensions      [0 2 -2 0 0 0 0];

internalField   nonuniform List<scalar> 
63420
(
0.000963699
0.000963957
0.000964778
0.000966045
0.000967742
0.000969856
0.00097237
0.00097527
0.000978544
0.000982179
0.000986163
0.000990488
0.000995144
0.00100013
0.00100544
0.00101107
0.00101703
0.00102332
0.00102992
0.00103685
0.00104411
0.00105169
0.0010596
0.00106784
0.00107641
0.0010853
0.00109454
0.0011041
0.00111401
0.00112425
0.00113484
0.00114578
0.00115707
0.00116871
0.00118071
0.00119307
0.0012058
0.00121889
0.00123236
0.0012462
0.00126043
0.00127504
0.00129004
0.00130543
0.00132123
0.00133743
0.00135403
0.00137105
0.00138848
0.00140634
0.00142463
0.00144334
0.0014625
0.0014821
0.00150214
0.00096364
0.000963897
0.000964718
0.000965984
0.00096768
0.000969792
0.000972304
0.000975202
0.000978473
0.000982106
0.000986087
0.000990408
0.000995061
0.00100004
0.00100535
0.00101098
0.00101693
0.00102321
0.00102981
0.00103674
0.00104399
0.00105156
0.00105946
0.00106769
0.00107625
0.00108514
0.00109436
0.00110392
0.00111381
0.00112405
0.00113462
0.00114555
0.00115682
0.00116845
0.00118043
0.00119277
0.00120548
0.00121856
0.001232
0.00124582
0.00126003
0.00127461
0.00128959
0.00130496
0.00132072
0.00133689
0.00135346
0.00137044
0.00138784
0.00140566
0.00142391
0.00144258
0.00146169
0.00148124
0.00150123
0.000963521
0.000963778
0.000964597
0.000965862
0.000967555
0.000969664
0.000972173
0.000975066
0.000978333
0.00098196
0.000985935
0.000990249
0.000994895
0.000999868
0.00100517
0.00101079
0.00101673
0.001023
0.00102959
0.0010365
0.00104374
0.0010513
0.00105918
0.0010674
0.00107594
0.00108481
0.00109401
0.00110354
0.00111342
0.00112363
0.00113418
0.00114508
0.00115632
0.00116792
0.00117987
0.00119218
0.00120485
0.00121789
0.00123129
0.00124507
0.00125923
0.00127377
0.00128869
0.001304
0.00131971
0.00133582
0.00135232
0.00136924
0.00138657
0.00140431
0.00142247
0.00144105
0.00146007
0.00147952
0.0014994
0.000963343
0.0009636
0.000964417
0.000965679
0.000967368
0.000969473
0.000971976
0.000974863
0.000978122
0.000981741
0.000985707
0.000990011
0.000994646
0.000999608
0.00100489
0.0010105
0.00101643
0.00102268
0.00102925
0.00103615
0.00104336
0.0010509
0.00105877
0.00106696
0.00107547
0.00108431
0.00109348
0.00110299
0.00111283
0.001123
0.00113352
0.00114437
0.00115558
0.00116713
0.00117903
0.00119129
0.00120391
0.00121689
0.00123023
0.00124395
0.00125803
0.0012725
0.00128735
0.00130258
0.0013182
0.00133421
0.00135062
0.00136744
0.00138465
0.00140228
0.00142032
0.00143877
0.00145765
0.00147695
0.00149668
0.000963105
0.000963361
0.000964176
0.000965434
0.000967119
0.000969218
0.000971713
0.000974592
0.000977841
0.000981449
0.000985403
0.000989694
0.000994315
0.000999261
0.00100453
0.00101012
0.00101603
0.00102226
0.00102881
0.00103568
0.00104287
0.00105038
0.00105821
0.00106637
0.00107485
0.00108365
0.00109279
0.00110225
0.00111204
0.00112217
0.00113264
0.00114344
0.00115459
0.00116608
0.00117792
0.00119011
0.00120265
0.00121555
0.00122882
0.00124245
0.00125645
0.00127082
0.00128556
0.00130068
0.00131619
0.00133208
0.00134837
0.00136504
0.00138211
0.00139959
0.00141746
0.00143575
0.00145444
0.00147355
0.00149307
0.000962809
0.000963064
0.000963876
0.00096513
0.000966809
0.0009689
0.000971386
0.000974254
0.000977491
0.000981085
0.000985024
0.000989298
0.000993901
0.000998828
0.00100407
0.00100964
0.00101553
0.00102173
0.00102825
0.00103509
0.00104225
0.00104972
0.00105752
0.00106563
0.00107407
0.00108283
0.00109191
0.00110132
0.00111106
0.00112113
0.00113154
0.00114227
0.00115335
0.00116477
0.00117653
0.00118863
0.00120109
0.0012139
0.00122706
0.00124058
0.00125447
0.00126872
0.00128334
0.00129833
0.00131369
0.00132943
0.00134556
0.00136207
0.00137896
0.00139624
0.00141392
0.00143199
0.00145046
0.00146932
0.00148859
0.000962454
0.000962708
0.000963516
0.000964765
0.000966436
0.000968518
0.000970993
0.000973848
0.000977071
0.000980648
0.000984569
0.000988824
0.000993406
0.000998309
0.00100353
0.00100907
0.00101493
0.0010211
0.00102758
0.00103439
0.0010415
0.00104894
0.00105669
0.00106475
0.00107314
0.00108185
0.00109087
0.00110022
0.00110989
0.00111989
0.00113022
0.00114088
0.00115187
0.0011632
0.00117486
0.00118687
0.00119922
0.00121192
0.00122496
0.00123836
0.00125211
0.00126622
0.00128068
0.00129552
0.00131071
0.00132628
0.00134221
0.00135852
0.0013752
0.00139226
0.0014097
0.00142752
0.00144572
0.0014643
0.00148325
0.0015227
0.00154398
0.00156617
0.00158935
0.00161355
0.00163883
0.00166528
0.00169295
0.00172193
0.0017523
0.00178415
0.00181758
0.0018527
0.00188961
0.00192846
0.00196937
0.0020125
0.00205801
0.00210607
0.0021569
0.00221069
0.0022677
0.00232818
0.00239242
0.00246074
0.00253349
0.00261107
0.00269391
0.00278249
0.00287734
0.00297904
0.00308825
0.00320566
0.00333205
0.00346824
0.00361513
0.00377359
0.00394452
0.00412866
0.00432653
0.00453818
0.00476291
0.00499891
0.00524298
0.00549083
0.00573792
0.00597986
0.00622268
0.00653375
0.00700643
0.00152175
0.00154304
0.00156524
0.00158841
0.0016126
0.00163788
0.00166432
0.00169199
0.00172097
0.00175133
0.00178318
0.0018166
0.0018517
0.00188861
0.00192744
0.00196833
0.00201143
0.00205691
0.00210494
0.00215572
0.00220945
0.00226639
0.00232678
0.00239091
0.0024591
0.00253169
0.00260907
0.00269166
0.00277992
0.00287438
0.00297559
0.00308417
0.00320079
0.00332617
0.00346108
0.0036063
0.00376261
0.00393074
0.00411123
0.00430432
0.00450971
0.00472623
0.00495146
0.00518146
0.00541103
0.00563467
0.00584744
0.00605449
0.00631892
0.00672714
0.00151988
0.00154116
0.00156335
0.00158651
0.0016107
0.00163598
0.00166241
0.00169008
0.00171904
0.00174939
0.00178122
0.00181463
0.00184971
0.00188659
0.00192539
0.00196624
0.0020093
0.00205471
0.00210267
0.00215335
0.00220698
0.00226377
0.00232399
0.00238791
0.00245584
0.00252811
0.00260509
0.00268719
0.00277483
0.00286852
0.00296876
0.00307611
0.00319118
0.00331457
0.00344694
0.00358888
0.00374094
0.00390353
0.00407678
0.00426037
0.00445325
0.00465329
0.00485687
0.00505851
0.00525117
0.00542739
0.00558135
0.00571667
0.00588365
0.00617571
0.00151707
0.00153834
0.00156053
0.00158368
0.00160785
0.00163312
0.00165954
0.00168719
0.00171614
0.00174647
0.00177828
0.00181165
0.0018467
0.00188354
0.00192228
0.00196307
0.00200605
0.00205137
0.0020992
0.00214974
0.00220319
0.00225976
0.00231972
0.00238331
0.00245083
0.00252261
0.00259897
0.0026803
0.00276701
0.00285951
0.00295826
0.00306375
0.00317645
0.00329684
0.00342536
0.00356236
0.00370804
0.00386234
0.00402476
0.00419416
0.00436839
0.00454388
0.00471516
0.00487449
0.00501208
0.00511741
0.00518323
0.00521446
0.00524579
0.005333
0.00151334
0.00153461
0.00155678
0.00157992
0.00160409
0.00162934
0.00165575
0.00168339
0.00171232
0.00174264
0.00177442
0.00180777
0.00184278
0.00187957
0.00191826
0.00195897
0.00200185
0.00204706
0.00209475
0.00214511
0.00219833
0.00225463
0.00231424
0.00237741
0.00244442
0.00251554
0.0025911
0.00267143
0.00275688
0.00284781
0.00294459
0.00304758
0.00315711
0.00327345
0.00339678
0.0035271
0.00366412
0.00380716
0.00395488
0.00410504
0.00425403
0.00439637
0.00452421
0.0046269
0.00469117
0.00470253
0.00465081
0.00454405
0.00440587
0.00417678
0.00150871
0.00152998
0.00155216
0.00157531
0.00159949
0.00162477
0.0016512
0.00167886
0.00170782
0.00173817
0.00176998
0.00180336
0.00183841
0.00187523
0.00191394
0.00195467
0.00199756
0.00204276
0.00209044
0.00214075
0.00219391
0.0022501
0.00230956
0.00237252
0.00243923
0.00250996
0.002585
0.00266463
0.00274915
0.00283885
0.00293401
0.00303484
0.00314151
0.00325405
0.00337227
0.00349571
0.00362343
0.00375379
0.00388416
0.0040105
0.00412681
0.00422447
0.00429171
0.00431319
0.00427038
0.0041434
0.0039174
0.00360127
0.00321063
0.00255431
0.00150317
0.00152436
0.00154649
0.00156958
0.00159372
0.00161894
0.00164532
0.00167293
0.00170185
0.00173214
0.00176391
0.00179723
0.00183222
0.00186898
0.00190762
0.00194828
0.00199109
0.00203619
0.00208374
0.00213392
0.0021869
0.0022429
0.0023021
0.00236476
0.00243109
0.00250134
0.00257578
0.00265464
0.00273819
0.00282663
0.00292015
0.00301884
0.00312269
0.00323148
0.00334469
0.00346131
0.00357967
0.00369703
0.00380914
0.00390963
0.00398918
0.00403475
0.00402889
0.00394962
0.00377137
0.00346653
0.00301648
0.0024348
0.00168629
0.000473568
-0.00344832
-0.00351438
-0.00352083
-0.00348227
-0.00341113
-0.00331032
-0.00318575
-0.00303806
-0.00287119
-0.00268892
-0.00249493
-0.00229318
-0.00208765
-0.00188203
-0.00167961
-0.0014833
-0.00129554
-0.00111829
-0.00095305
-0.000800842
-0.00066226
-0.000537519
-0.0004265
-0.000328812
-0.000243841
-0.000170801
-0.000108791
-5.68417e-05
-1.39522e-05
2.08789e-05
4.86267e-05
7.02202e-05
8.6528e-05
9.83485e-05
0.000106405
0.000111343
0.000113734
0.000114072
0.000112785
0.000110238
0.000106736
0.000102535
9.78442e-05
9.28349e-05
8.76443e-05
8.23812e-05
7.71305e-05
7.19572e-05
6.69098e-05
6.20242e-05
-0.00354032
-0.00358136
-0.00357289
-0.00352577
-0.00344926
-0.0033459
-0.00321849
-0.00306979
-0.00290251
-0.00271975
-0.00252556
-0.00232345
-0.00211743
-0.00191116
-0.0017079
-0.00151056
-0.00132161
-0.00114305
-0.000976396
-0.000822712
-0.000682625
-0.000556376
-0.000443873
-0.000344746
-0.000258396
-0.000184049
-0.000120811
-6.77178e-05
-2.37694e-05
1.20358e-05
4.06749e-05
6.30803e-05
8.01248e-05
9.26118e-05
0.00010127
0.000106749
0.000109625
0.000110399
0.000109503
0.000107305
0.000104114
0.000100191
9.57487e-05
9.09605e-05
8.59669e-05
8.08792e-05
7.57848e-05
7.07509e-05
6.58274e-05
6.10535e-05
-0.00372412
-0.00371231
-0.00367482
-0.00361075
-0.00352308
-0.00341406
-0.00328104
-0.00313106
-0.00296145
-0.00277886
-0.00258427
-0.00238161
-0.00217483
-0.00196744
-0.00176268
-0.00156346
-0.00137231
-0.00119128
-0.00102195
-0.000865449
-0.000722475
-0.000593324
-0.000477953
-0.000376032
-0.000286998
-0.000210104
-0.000144468
-8.91362e-05
-4.31127e-05
-5.3962e-06
2.49938e-05
4.89959e-05
6.74906e-05
8.12903e-05
9.11329e-05
9.76795e-05
0.000101514
0.000103148
0.000103022
0.000101512
9.89374e-05
9.55633e-05
9.16103e-05
8.72583e-05
8.26532e-05
7.79115e-05
7.31251e-05
6.83654e-05
6.36861e-05
5.91323e-05
-0.00400552
-0.00389812
-0.00382332
-0.00373357
-0.00362842
-0.00351437
-0.00336499
-0.00321489
-0.0030459
-0.0028622
-0.00266704
-0.0024639
-0.00225624
-0.00204742
-0.00184067
-0.00163893
-0.00144477
-0.00126033
-0.00108727
-0.000926828
-0.000779788
-0.000646531
-0.000527086
-0.000421188
-0.000328321
-0.000247776
-0.000178701
-0.000120152
-7.11428e-05
-3.06725e-05
2.24299e-06
2.85502e-05
4.91405e-05
6.48386e-05
7.6396e-05
8.44873e-05
8.97109e-05
9.25908e-05
9.35807e-05
9.30696e-05
9.13868e-05
8.8809e-05
8.55659e-05
8.18466e-05
7.78048e-05
7.35646e-05
6.92245e-05
6.48622e-05
6.05369e-05
5.63026e-05
-0.00435665
-0.0041402
-0.00401375
-0.00388582
-0.00375102
-0.00362458
-0.00347765
-0.00331928
-0.00314706
-0.00296211
-0.00276655
-0.00256304
-0.00235461
-0.00214448
-0.00193576
-0.00173139
-0.00153398
-0.00134575
-0.00116847
-0.00100348
-0.000851681
-0.00071356
-0.000589239
-0.000478527
-0.000380983
-0.000295949
-0.000222611
-0.00016005
-0.000107294
-6.33494e-05
-2.72309e-05
2.01402e-06
2.52866e-05
4.34246e-05
5.71937e-05
6.72842e-05
7.43103e-05
7.88115e-05
8.12569e-05
8.20498e-05
8.15335e-05
7.99977e-05
7.7684e-05
7.47928e-05
7.14882e-05
6.79036e-05
6.41464e-05
6.0302e-05
5.64377e-05
5.26181e-05
-0.00472639
-0.00443702
-0.00424264
-0.00406734
-0.0039151
-0.00375331
-0.00359241
-0.00342576
-0.00324965
-0.0030636
-0.00286845
-0.00266597
-0.00245856
-0.002249
-0.00204016
-0.00183484
-0.00163561
-0.00144472
-0.00126405
-0.00109504
-0.000938727
-0.000795733
-0.000666307
-0.000550377
-0.000447595
-0.000357398
-0.000279043
-0.000211664
-0.000154326
-0.000106062
-6.59039e-05
-3.29047e-05
-6.16314e-06
1.51634e-05
3.185e-05
4.45986e-05
5.40371e-05
6.07199e-05
6.51317e-05
6.76913e-05
6.87579e-05
6.86362e-05
6.75828e-05
6.58121e-05
6.35017e-05
6.07976e-05
5.78189e-05
5.46616e-05
5.14044e-05
4.81211e-05
-0.0050789
-0.00479821
-0.00453405
-0.00430566
-0.00410693
-0.00391959
-0.00374048
-0.00356148
-0.00337829
-0.00318888
-0.00299263
-0.00279018
-0.00258313
-0.00237363
-0.00216418
-0.00195737
-0.0017557
-0.00156144
-0.00137655
-0.0012026
-0.00104078
-0.000891866
-0.000756265
-0.000634038
-0.000524961
-0.000428569
-0.000344206
-0.000271077
-0.000208291
-0.000154912
-0.000109987
-7.25769e-05
-4.17784e-05
-1.67408e-05
3.32358e-06
1.9133e-05
3.13337e-05
4.05e-05
4.71369e-05
5.16839e-05
5.45203e-05
5.59705e-05
5.63099e-05
5.57705e-05
5.45468e-05
5.28001e-05
5.06636e-05
4.82463e-05
4.56384e-05
4.29175e-05
5.73148e-05
5.27289e-05
4.82702e-05
4.39652e-05
3.98256e-05
3.58596e-05
3.2074e-05
2.84728e-05
2.50578e-05
2.18289e-05
1.87848e-05
1.59228e-05
1.32393e-05
1.07301e-05
8.39e-06
6.21378e-06
4.19569e-06
2.32989e-06
6.10502e-07
-9.68294e-07
-2.41217e-06
-3.72659e-06
-4.91683e-06
-5.98798e-06
-6.94507e-06
-7.79312e-06
-8.53722e-06
-9.18258e-06
-9.73457e-06
-1.01987e-05
-1.05807e-05
-1.08862e-05
-1.11208e-05
-1.12899e-05
-1.1399e-05
-1.1453e-05
-1.14569e-05
-1.14151e-05
-1.13319e-05
-1.12114e-05
-1.10574e-05
-1.08733e-05
-1.06627e-05
-1.04283e-05
-1.01738e-05
-9.90144e-06
-9.6137e-06
-9.31348e-06
-9.00301e-06
-8.6844e-06
-8.35968e-06
-8.03074e-06
-7.69933e-06
-7.36708e-06
-7.03542e-06
-6.70567e-06
-6.37906e-06
-6.05673e-06
-5.73971e-06
-5.42887e-06
-5.12496e-06
-4.8287e-06
-4.54072e-06
-4.26154e-06
-3.99156e-06
-3.7311e-06
-3.48046e-06
-3.23985e-06
-3.00943e-06
-2.78926e-06
-2.57933e-06
-2.37962e-06
-2.19005e-06
-2.01054e-06
-1.84091e-06
-1.68091e-06
-1.53032e-06
-1.38891e-06
-1.25645e-06
-1.1327e-06
-1.0173e-06
-9.09954e-07
-8.10213e-07
-7.17833e-07
-6.32067e-07
-5.53261e-07
-4.79614e-07
-4.13891e-07
-3.49718e-07
-2.98531e-07
-2.3761e-07
-2.07858e-07
-1.34842e-07
-1.47899e-07
-2.64769e-08
-1.33377e-07
1.12265e-07
-1.87148e-07
3.10955e-07
-3.28038e-07
5.79641e-07
-5.366e-07
8.65862e-07
-7.10786e-07
1.02463e-06
-6.67298e-07
8.70021e-07
-2.55158e-07
3.44777e-07
4.45383e-07
-3.03313e-07
1.03037e-06
-5.74748e-07
9.88947e-07
-6.82101e-08
5.64604e-05
5.19481e-05
4.75549e-05
4.33144e-05
3.92347e-05
3.53234e-05
3.15876e-05
2.80319e-05
2.46583e-05
2.14671e-05
1.84572e-05
1.56263e-05
1.29711e-05
1.04876e-05
8.17094e-06
6.01602e-06
4.01735e-06
2.16926e-06
4.66029e-07
-1.09802e-06
-2.52845e-06
-3.83062e-06
-5.00969e-06
-6.07071e-06
-7.01862e-06
-7.85838e-06
-8.59502e-06
-9.2337e-06
-9.77972e-06
-1.02386e-05
-1.06158e-05
-1.09171e-05
-1.11479e-05
-1.13137e-05
-1.14198e-05
-1.14712e-05
-1.14726e-05
-1.14287e-05
-1.13437e-05
-1.12215e-05
-1.1066e-05
-1.08806e-05
-1.06688e-05
-1.04333e-05
-1.01779e-05
-9.9047e-06
-9.61625e-06
-9.31541e-06
-9.00441e-06
-8.68533e-06
-8.36021e-06
-8.03093e-06
-7.69924e-06
-7.36675e-06
-7.0349e-06
-6.70499e-06
-6.37824e-06
-6.05582e-06
-5.73872e-06
-5.42782e-06
-5.12389e-06
-4.82761e-06
-4.53962e-06
-4.26045e-06
-3.99048e-06
-3.73005e-06
-3.47944e-06
-3.23887e-06
-3.00849e-06
-2.78836e-06
-2.57847e-06
-2.3788e-06
-2.18928e-06
-2.00982e-06
-1.84023e-06
-1.68028e-06
-1.52973e-06
-1.38837e-06
-1.25595e-06
-1.13223e-06
-1.01688e-06
-9.09561e-07
-8.09851e-07
-7.175e-07
-6.31764e-07
-5.52988e-07
-4.79371e-07
-4.13675e-07
-3.4953e-07
-2.9836e-07
-2.37465e-07
-2.07718e-07
-1.34736e-07
-1.47776e-07
-2.64063e-08
-1.3325e-07
1.123e-07
-1.87007e-07
3.10948e-07
-3.27902e-07
5.79602e-07
-5.36495e-07
8.65826e-07
-7.10752e-07
1.02464e-06
-6.67353e-07
8.70091e-07
-2.55284e-07
3.44885e-07
4.4526e-07
-3.03212e-07
1.03028e-06
-5.74618e-07
9.88758e-07
-6.82157e-08
5.47614e-05
5.03958e-05
4.61339e-05
4.20216e-05
3.80608e-05
3.42578e-05
3.06209e-05
2.71554e-05
2.38639e-05
2.07474e-05
1.78055e-05
1.50364e-05
1.24374e-05
1.00049e-05
7.73482e-06
5.62228e-06
3.66222e-06
1.84935e-06
1.78253e-07
-1.35647e-06
-2.76014e-06
-4.0379e-06
-5.19477e-06
-6.23561e-06
-7.16526e-06
-7.98852e-06
-8.71031e-06
-9.33568e-06
-9.86979e-06
-1.0318e-05
-1.06858e-05
-1.09787e-05
-1.1202e-05
-1.13612e-05
-1.14613e-05
-1.15074e-05
-1.15041e-05
-1.1456e-05
-1.13672e-05
-1.12416e-05
-1.10831e-05
-1.0895e-05
-1.06808e-05
-1.04432e-05
-1.0186e-05
-9.91119e-06
-9.62133e-06
-9.31926e-06
-9.00718e-06
-8.68718e-06
-8.36126e-06
-8.03132e-06
-7.69906e-06
-7.36609e-06
-7.03383e-06
-6.7036e-06
-6.37661e-06
-6.05399e-06
-5.73674e-06
-5.42573e-06
-5.12173e-06
-4.82542e-06
-4.53743e-06
-4.25826e-06
-3.98832e-06
-3.72794e-06
-3.47739e-06
-3.2369e-06
-3.0066e-06
-2.78655e-06
-2.57675e-06
-2.37717e-06
-2.18775e-06
-2.00837e-06
-1.83887e-06
-1.67901e-06
-1.52856e-06
-1.38728e-06
-1.25496e-06
-1.13132e-06
-1.01603e-06
-9.08776e-07
-8.09121e-07
-7.16824e-07
-6.31148e-07
-5.52438e-07
-4.7889e-07
-4.13252e-07
-3.4916e-07
-2.98022e-07
-2.3718e-07
-2.07448e-07
-1.34539e-07
-1.47544e-07
-2.62741e-08
-1.32998e-07
1.12376e-07
-1.86727e-07
3.10941e-07
-3.2763e-07
5.79523e-07
-5.36284e-07
8.65751e-07
-7.10676e-07
1.02466e-06
-6.67465e-07
8.70236e-07
-2.55531e-07
3.45101e-07
4.45009e-07
-3.03011e-07
1.0301e-06
-5.7434e-07
9.88386e-07
-6.82144e-08
5.22391e-05
4.80911e-05
4.40265e-05
4.01044e-05
3.63192e-05
3.26764e-05
2.91857e-05
2.58536e-05
2.26836e-05
1.96777e-05
1.68364e-05
1.41589e-05
1.16432e-05
9.28664e-06
7.08558e-06
5.03598e-06
3.13331e-06
1.37279e-06
-2.50523e-07
-1.74163e-06
-3.10549e-06
-4.34696e-06
-5.47078e-06
-6.48161e-06
-7.38407e-06
-8.18276e-06
-8.88244e-06
-9.48797e-06
-1.00044e-05
-1.04368e-05
-1.07905e-05
-1.10708e-05
-1.12829e-05
-1.14321e-05
-1.15234e-05
-1.15615e-05
-1.15512e-05
-1.14967e-05
-1.14022e-05
-1.12716e-05
-1.11086e-05
-1.09165e-05
-1.06988e-05
-1.04581e-05
-1.01981e-05
-9.92088e-06
-9.62889e-06
-9.32498e-06
-9.0113e-06
-8.68992e-06
-8.36282e-06
-8.03187e-06
-7.69877e-06
-7.36509e-06
-7.03224e-06
-6.70153e-06
-6.37416e-06
-6.05125e-06
-5.73377e-06
-5.4226e-06
-5.11849e-06
-4.82213e-06
-4.53413e-06
-4.25498e-06
-3.98508e-06
-3.72478e-06
-3.47433e-06
-3.23394e-06
-3.00376e-06
-2.78383e-06
-2.57417e-06
-2.37473e-06
-2.18544e-06
-2.0062e-06
-1.83683e-06
-1.67711e-06
-1.52679e-06
-1.38566e-06
-1.25346e-06
-1.12994e-06
-1.01476e-06
-9.07599e-07
-8.08036e-07
-7.15824e-07
-6.30239e-07
-5.51621e-07
-4.78168e-07
-4.12609e-07
-3.48597e-07
-2.97506e-07
-2.36746e-07
-2.07033e-07
-1.34231e-07
-1.47185e-07
-2.60725e-08
-1.32631e-07
1.12477e-07
-1.86332e-07
3.10918e-07
-3.27243e-07
5.79408e-07
-5.35982e-07
8.65656e-07
-7.10571e-07
1.02471e-06
-6.67631e-07
8.70483e-07
-2.55892e-07
3.45445e-07
4.44649e-07
-3.02704e-07
1.02985e-06
-5.73923e-07
9.87831e-07
-6.81771e-08
4.89258e-05
4.50629e-05
4.12612e-05
3.75884e-05
3.40326e-05
3.05989e-05
2.72993e-05
2.41415e-05
2.11305e-05
1.82694e-05
1.556e-05
1.30025e-05
1.05962e-05
8.33927e-06
6.22902e-06
4.26221e-06
2.43507e-06
7.43488e-07
-8.16884e-07
-2.25052e-06
-3.56192e-06
-4.75556e-06
-5.83582e-06
-6.80707e-06
-7.67365e-06
-8.43994e-06
-9.11044e-06
-9.68977e-06
-1.01827e-05
-1.05942e-05
-1.09292e-05
-1.11929e-05
-1.13902e-05
-1.15262e-05
-1.16057e-05
-1.16333e-05
-1.16135e-05
-1.15507e-05
-1.14487e-05
-1.13114e-05
-1.11424e-05
-1.09451e-05
-1.07227e-05
-1.04778e-05
-1.02141e-05
-9.93369e-06
-9.6389e-06
-9.33254e-06
-9.01674e-06
-8.69352e-06
-8.36487e-06
-8.03258e-06
-7.69835e-06
-7.36372e-06
-7.03008e-06
-6.69874e-06
-6.37088e-06
-6.04757e-06
-5.7298e-06
-5.41842e-06
-5.11417e-06
-4.81775e-06
-4.52972e-06
-4.2506e-06
-3.98077e-06
-3.72056e-06
-3.47024e-06
-3.23e-06
-2.99997e-06
-2.78021e-06
-2.57072e-06
-2.37146e-06
-2.18236e-06
-2.00331e-06
-1.83412e-06
-1.67457e-06
-1.52444e-06
-1.38348e-06
-1.25146e-06
-1.12809e-06
-1.01305e-06
-9.06031e-07
-8.06594e-07
-7.14501e-07
-6.29036e-07
-5.50537e-07
-4.77205e-07
-4.11748e-07
-3.4784e-07
-2.96815e-07
-2.36161e-07
-2.06472e-07
-1.3381e-07
-1.46704e-07
-2.57971e-08
-1.32156e-07
1.12612e-07
-1.85837e-07
3.109e-07
-3.2677e-07
5.79293e-07
-5.35635e-07
8.65595e-07
-7.10494e-07
1.02486e-06
-6.67905e-07
8.70875e-07
-2.56395e-07
3.45925e-07
4.44189e-07
-3.02317e-07
1.02954e-06
-5.73399e-07
9.8712e-07
-6.80772e-08
4.48612e-05
4.13517e-05
3.78759e-05
3.45072e-05
3.123e-05
2.8051e-05
2.49839e-05
2.20386e-05
1.92214e-05
1.65371e-05
1.39889e-05
1.15784e-05
9.30619e-06
7.17145e-06
5.17267e-06
3.30758e-06
1.57331e-06
-3.34733e-08
-1.51639e-06
-2.87927e-06
-4.12608e-06
-5.2608e-06
-6.2874e-06
-7.20988e-06
-8.03224e-06
-8.75857e-06
-9.39305e-06
-9.94004e-06
-1.0404e-05
-1.07896e-05
-1.11015e-05
-1.13446e-05
-1.15235e-05
-1.16431e-05
-1.17079e-05
-1.17225e-05
-1.1691e-05
-1.16177e-05
-1.15065e-05
-1.13609e-05
-1.11845e-05
-1.09805e-05
-1.07523e-05
-1.05022e-05
-1.0234e-05
-9.94957e-06
-9.65128e-06
-9.34187e-06
-9.02344e-06
-8.69795e-06
-8.36735e-06
-8.03341e-06
-7.69777e-06
-7.36196e-06
-7.02736e-06
-6.69523e-06
-6.36675e-06
-6.04296e-06
-5.72482e-06
-5.41317e-06
-5.10877e-06
-4.81225e-06
-4.52421e-06
-4.24512e-06
-3.97537e-06
-3.71529e-06
-3.46512e-06
-3.22506e-06
-2.99523e-06
-2.77568e-06
-2.56641e-06
-2.36738e-06
-2.17851e-06
-1.99969e-06
-1.83072e-06
-1.67141e-06
-1.5215e-06
-1.38076e-06
-1.24895e-06
-1.12578e-06
-1.01092e-06
-9.04072e-07
-8.04795e-07
-7.12855e-07
-6.27541e-07
-5.49187e-07
-4.76001e-07
-4.10669e-07
-3.46889e-07
-2.95947e-07
-2.35426e-07
-2.05767e-07
-1.33278e-07
-1.46097e-07
-2.54528e-08
-1.31565e-07
1.12769e-07
-1.85225e-07
3.10864e-07
-3.2618e-07
5.79138e-07
-5.35193e-07
8.65509e-07
-7.10382e-07
1.02504e-06
-6.68226e-07
8.71362e-07
-2.57005e-07
3.46526e-07
4.4362e-07
-3.01815e-07
1.02915e-06
-5.72704e-07
9.86196e-07
-6.78197e-08
4.01034e-05
3.70082e-05
3.39189e-05
3.09013e-05
2.79462e-05
2.50623e-05
2.22655e-05
1.95672e-05
1.69758e-05
1.44978e-05
1.2138e-05
9.89953e-06
7.7843e-06
5.79294e-06
3.9251e-06
2.17959e-06
5.54564e-07
-9.5238e-07
-2.34405e-06
-3.62357e-06
-4.79425e-06
-5.85949e-06
-6.82278e-06
-7.68771e-06
-8.45787e-06
-9.13698e-06
-9.72889e-06
-1.02376e-05
-1.06672e-05
-1.10221e-05
-1.13066e-05
-1.15252e-05
-1.16822e-05
-1.17823e-05
-1.18297e-05
-1.18287e-05
-1.17833e-05
-1.16976e-05
-1.15752e-05
-1.14197e-05
-1.12345e-05
-1.10226e-05
-1.07874e-05
-1.05313e-05
-1.02576e-05
-9.96841e-06
-9.66597e-06
-9.35293e-06
-9.03135e-06
-8.70315e-06
-8.37023e-06
-8.03431e-06
-7.69701e-06
-7.3598e-06
-7.02404e-06
-6.69098e-06
-6.36176e-06
-6.03739e-06
-5.71882e-06
-5.40687e-06
-5.10227e-06
-4.80565e-06
-4.51758e-06
-4.23853e-06
-3.96889e-06
-3.70895e-06
-3.45897e-06
-3.21913e-06
-2.98953e-06
-2.77024e-06
-2.56123e-06
-2.36248e-06
-2.17389e-06
-1.99534e-06
-1.82666e-06
-1.66761e-06
-1.51797e-06
-1.3775e-06
-1.24593e-06
-1.123e-06
-1.00837e-06
-9.01722e-07
-8.02641e-07
-7.10886e-07
-6.25753e-07
-5.47572e-07
-4.74558e-07
-4.0937e-07
-3.45748e-07
-2.94899e-07
-2.34549e-07
-2.04904e-07
-1.32658e-07
-1.45329e-07
-2.50981e-08
-1.30769e-07
1.12817e-07
-1.84306e-07
3.10546e-07
-3.25122e-07
5.78497e-07
-5.34115e-07
8.64776e-07
-7.09562e-07
1.02458e-06
-6.67973e-07
8.71442e-07
-2.57405e-07
3.47155e-07
4.42801e-07
-3.00854e-07
1.02817e-06
-5.71319e-07
9.84632e-07
-6.70489e-08
3.45562e-05
3.19574e-05
2.933e-05
2.67158e-05
2.41285e-05
2.15833e-05
1.90971e-05
1.66834e-05
1.43526e-05
1.21132e-05
9.97175e-06
7.93301e-06
6.0004e-06
4.176e-06
2.46082e-06
8.54905e-07
-6.42473e-07
-2.03268e-06
-3.31761e-06
-4.49954e-06
-5.58105e-06
-6.56489e-06
-7.45399e-06
-8.25142e-06
-8.96032e-06
-9.584e-06
-1.01259e-05
-1.05896e-05
-1.09788e-05
-1.12974e-05
-1.15495e-05
-1.17391e-05
-1.18703e-05
-1.19472e-05
-1.1974e-05
-1.19545e-05
-1.18926e-05
-1.17922e-05
-1.16566e-05
-1.14893e-05
-1.12936e-05
-1.10725e-05
-1.0829e-05
-1.05656e-05
-1.02854e-05
-9.99065e-06
-9.68328e-06
-9.36594e-06
-9.04063e-06
-8.70922e-06
-8.37354e-06
-8.03528e-06
-7.696e-06
-7.35714e-06
-7.02003e-06
-6.68586e-06
-6.35576e-06
-6.03071e-06
-5.71163e-06
-5.39932e-06
-5.09448e-06
-4.79775e-06
-4.50966e-06
-4.23066e-06
-3.96114e-06
-3.70138e-06
-3.45163e-06
-3.21204e-06
-2.98273e-06
-2.76374e-06
-2.55505e-06
-2.35663e-06
-2.16837e-06
-1.99016e-06
-1.8218e-06
-1.66308e-06
-1.51376e-06
-1.3736e-06
-1.24233e-06
-1.11968e-06
-1.00531e-06
-8.98918e-07
-8.00073e-07
-7.0854e-07
-6.23624e-07
-5.45645e-07
-4.72837e-07
-4.07815e-07
-3.44387e-07
-2.93637e-07
-2.33512e-07
-2.03847e-07
-1.31953e-07
-1.44345e-07
-2.47769e-08
-1.29662e-07
1.12631e-07
-1.82873e-07
3.09685e-07
-3.23233e-07
5.76923e-07
-5.31851e-07
8.62775e-07
-7.07361e-07
1.02279e-06
-6.66539e-07
8.70642e-07
-2.57313e-07
3.4776e-07
4.41543e-07
-2.99036e-07
1.02609e-06
-5.68668e-07
9.81946e-07
-6.53701e-08
2.8321e-05
2.62607e-05
2.41287e-05
2.19628e-05
1.97869e-05
1.7621e-05
1.54836e-05
1.33903e-05
1.13537e-05
9.38416e-06
7.49009e-06
5.67808e-06
3.95317e-06
2.31898e-06
7.7794e-07
-6.68553e-07
-2.01999e-06
-3.27662e-06
-4.43931e-06
-5.5094e-06
-6.48867e-06
-7.37914e-06
-8.18309e-06
-8.90302e-06
-9.54155e-06
-1.01015e-05
-1.05858e-05
-1.09976e-05
-1.13401e-05
-1.1617e-05
-1.18316e-05
-1.19876e-05
-1.20888e-05
-1.21389e-05
-1.21416e-05
-1.21007e-05
-1.20196e-05
-1.1902e-05
-1.17511e-05
-1.15701e-05
-1.13623e-05
-1.11303e-05
-1.08773e-05
-1.06053e-05
-1.03177e-05
-1.00163e-05
-9.70322e-06
-9.38088e-06
-9.05123e-06
-8.71608e-06
-8.3772e-06
-8.03622e-06
-7.69465e-06
-7.35387e-06
-7.01518e-06
-6.67973e-06
-6.34861e-06
-6.02277e-06
-5.7031e-06
-5.39038e-06
-5.08528e-06
-4.78842e-06
-4.5003e-06
-4.22138e-06
-3.952e-06
-3.69246e-06
-3.44297e-06
-3.20369e-06
-2.97472e-06
-2.75608e-06
-2.54778e-06
-2.34974e-06
-2.16188e-06
-1.98405e-06
-1.81609e-06
-1.65775e-06
-1.50881e-06
-1.36901e-06
-1.2381e-06
-1.11577e-06
-1.00172e-06
-8.95621e-07
-7.97054e-07
-7.05785e-07
-6.21124e-07
-5.43384e-07
-4.70811e-07
-4.0599e-07
-3.42777e-07
-2.92165e-07
-2.32267e-07
-2.0264e-07
-1.31056e-07
-1.4329e-07
-2.42358e-08
-1.2861e-07
1.12766e-07
-1.81699e-07
3.09352e-07
-3.21907e-07
5.76184e-07
-5.30516e-07
8.61924e-07
-7.0637e-07
1.02229e-06
-6.66295e-07
8.7087e-07
-2.57953e-07
3.48747e-07
4.40282e-07
-2.97512e-07
1.02449e-06
-5.66419e-07
9.79436e-07
-6.35608e-08
2.16154e-05
2.01061e-05
1.84878e-05
1.67964e-05
1.50591e-05
1.32987e-05
1.15356e-05
9.78716e-06
8.06803e-06
6.39051e-06
4.76482e-06
3.19928e-06
1.70057e-06
2.73887e-07
-1.07686e-06
-2.34891e-06
-3.54047e-06
-4.65061e-06
-5.67912e-06
-6.62637e-06
-7.49327e-06
-8.28105e-06
-8.99131e-06
-9.6259e-06
-1.01869e-05
-1.06765e-05
-1.10972e-05
-1.14516e-05
-1.17425e-05
-1.1973e-05
-1.21459e-05
-1.22647e-05
-1.23325e-05
-1.23527e-05
-1.23287e-05
-1.22637e-05
-1.21612e-05
-1.20244e-05
-1.18564e-05
-1.16602e-05
-1.14387e-05
-1.11947e-05
-1.09309e-05
-1.06495e-05
-1.03535e-05
-1.00448e-05
-9.72525e-06
-9.39733e-06
-9.06284e-06
-8.72352e-06
-8.38107e-06
-8.03706e-06
-7.69292e-06
-7.35001e-06
-7.00955e-06
-6.67268e-06
-6.34043e-06
-6.01372e-06
-5.6934e-06
-5.38022e-06
-5.07484e-06
-4.77783e-06
-4.4897e-06
-4.21086e-06
-3.94166e-06
-3.68237e-06
-3.43318e-06
-3.19425e-06
-2.96566e-06
-2.74743e-06
-2.53955e-06
-2.34195e-06
-2.15454e-06
-1.97716e-06
-1.80963e-06
-1.65173e-06
-1.50321e-06
-1.36383e-06
-1.23331e-06
-1.11136e-06
-9.97662e-07
-8.91897e-07
-7.93647e-07
-7.02677e-07
-6.18303e-07
-5.40833e-07
-4.68522e-07
-4.03929e-07
-3.40953e-07
-2.90508e-07
-2.30846e-07
-2.01296e-07
-1.30006e-07
-1.4215e-07
-2.35419e-08
-1.27546e-07
1.13089e-07
-1.80621e-07
3.09293e-07
-3.20825e-07
5.75853e-07
-5.29601e-07
8.61623e-07
-7.05942e-07
1.02241e-06
-6.66636e-07
8.71635e-07
-2.59017e-07
3.5003e-07
4.38868e-07
-2.95926e-07
1.0229e-06
-5.64057e-07
9.76693e-07
-6.12524e-08
1.45043e-05
1.35595e-05
1.24714e-05
1.12741e-05
9.99599e-06
8.6616e-06
7.29292e-06
5.90914e-06
4.52672e-06
3.15975e-06
1.82014e-06
5.17929e-07
-7.38601e-07
-1.9427e-06
-3.08899e-06
-4.17332e-06
-5.19261e-06
-6.14473e-06
-7.02835e-06
-7.84286e-06
-8.58824e-06
-9.26489e-06
-9.87368e-06
-1.04158e-05
-1.08926e-05
-1.13059e-05
-1.16574e-05
-1.19494e-05
-1.2184e-05
-1.23637e-05
-1.24912e-05
-1.25691e-05
-1.26003e-05
-1.25876e-05
-1.25342e-05
-1.24429e-05
-1.23168e-05
-1.21589e-05
-1.1972e-05
-1.1759e-05
-1.15225e-05
-1.12652e-05
-1.09896e-05
-1.06978e-05
-1.03926e-05
-1.00758e-05
-9.74923e-06
-9.41516e-06
-9.07534e-06
-8.73144e-06
-8.38506e-06
-8.03771e-06
-7.69076e-06
-7.3455e-06
-7.00311e-06
-6.66468e-06
-6.33118e-06
-6.00352e-06
-5.68249e-06
-5.36882e-06
-5.06313e-06
-4.76598e-06
-4.47784e-06
-4.19911e-06
-3.93011e-06
-3.67109e-06
-3.42225e-06
-3.18371e-06
-2.95555e-06
-2.73778e-06
-2.53038e-06
-2.33327e-06
-2.14635e-06
-1.96947e-06
-1.80243e-06
-1.64502e-06
-1.49697e-06
-1.35805e-06
-1.22797e-06
-1.10644e-06
-9.93138e-07
-8.87748e-07
-7.89853e-07
-6.99217e-07
-6.15163e-07
-5.37993e-07
-4.65972e-07
-4.01633e-07
-3.38918e-07
-2.88662e-07
-2.29259e-07
-1.99802e-07
-1.28826e-07
-1.40889e-07
-2.27548e-08
-1.2638e-07
1.13464e-07
-1.79443e-07
3.09239e-07
-3.19629e-07
5.75473e-07
-5.28552e-07
8.61233e-07
-7.05388e-07
1.02246e-06
-6.66922e-07
8.72423e-07
-2.60179e-07
3.51512e-07
4.37157e-07
-2.93923e-07
1.0208e-06
-5.61042e-07
9.7327e-07
-5.80469e-08
7.05295e-06
6.68634e-06
6.14173e-06
5.45263e-06
4.64838e-06
3.75508e-06
2.79618e-06
1.79244e-06
7.61959e-07
-2.79577e-07
-1.31861e-06
-2.34352e-06
-3.34446e-06
-4.31318e-06
-5.24288e-06
-6.12804e-06
-6.96428e-06
-7.74829e-06
-8.47762e-06
-9.15063e-06
-9.76635e-06
-1.03243e-05
-1.08247e-05
-1.12678e-05
-1.16546e-05
-1.1986e-05
-1.22633e-05
-1.24881e-05
-1.26621e-05
-1.27873e-05
-1.28655e-05
-1.28993e-05
-1.28907e-05
-1.28425e-05
-1.27571e-05
-1.26373e-05
-1.24856e-05
-1.23047e-05
-1.20974e-05
-1.18661e-05
-1.16133e-05
-1.13415e-05
-1.10531e-05
-1.07499e-05
-1.04348e-05
-1.01092e-05
-9.77496e-06
-9.4342e-06
-9.0886e-06
-8.73971e-06
-8.38907e-06
-8.03809e-06
-7.68809e-06
-7.34028e-06
-6.99581e-06
-6.65568e-06