/*--------------------------------*- C++ -*----------------------------------*\
| =========                 |                                                 |
| \\      /  F ield         | OpenFOAM: The Open Source CFD Toolbox           |
|  \\    /   O peration     | Version:  2412                                  |
|   \\  /    A nd           | Website:  www.openfoam.com                      |
|    \\/     M anipulation  |                                                 |
\*---------------------------------------------------------------------------*/
FoamFile
{
    version     2.0;
    format      ascii;
    arch        "LSB;label=32;scalar=64";
    class       surfaceScalarField;
    location    "15.5";
    object      phi;
}
// * * * * * * * * * * * * * * * * * * * * * * * * * * * * * * * * * * * * * //

dimensions      [0 3 -1 0 0 0 0];

oriented        oriented;

internalField   nonuniform List<scalar> 
126304
(
0.00505063
1.28636e-07
1.30934e-11
0.00505025
3.74956e-07
5.86676e-11
0.00504965
5.99909e-07
1.21043e-10
0.00504884
8.17473e-07
1.81977e-10
0.00504775
1.08499e-06
1.58048e-10
0.00504627
1.48147e-06
-7.04632e-11
0.00504422
2.05063e-06
-5.67116e-10
0.00504146
2.75743e-06
-1.26355e-09
0.00503797
3.49419e-06
-1.96515e-09
0.00503384
4.12882e-06
-2.4339e-09
0.00502929
4.56067e-06
-2.48965e-09
0.00502454
4.75252e-06
-2.07313e-09
0.00501981
4.73015e-06
-1.24882e-09
0.00501525
4.55936e-06
-1.62224e-10
0.00501093
4.3171e-06
1.01757e-09
0.00500686
4.06942e-06
2.14462e-09
0.00500299
3.86056e-06
3.1206e-09
0.00499928
3.71222e-06
3.89829e-09
0.00499565
3.62845e-06
4.47236e-09
0.00499204
3.6025e-06
4.86429e-09
0.00498841
3.62282e-06
5.10839e-09
0.00498473
3.67723e-06
5.24137e-09
0.00498097
3.7552e-06
5.2959e-09
0.00497711
3.84872e-06
5.29823e-09
0.00497316
3.95228e-06
5.26733e-09
0.00496909
4.06238e-06
5.21615e-09
0.00496491
4.17707e-06
5.15237e-09
0.00496061
4.29537e-06
5.0805e-09
0.00495618
4.41694e-06
5.00276e-09
0.00495164
4.54175e-06
4.9204e-09
0.00494696
4.66996e-06
4.8337e-09
0.00494216
4.80179e-06
4.74273e-09
0.00493721
4.93743e-06
4.64726e-09
0.00493213
5.07708e-06
4.54726e-09
0.00492691
5.22091e-06
4.44277e-09
0.00492153
5.36903e-06
4.33386e-09
0.00491601
5.52156e-06
4.22057e-09
0.00491032
5.67856e-06
4.10277e-09
0.00490448
5.84011e-06
3.98048e-09
0.00489847
6.00625e-06
3.8539e-09
0.00489229
6.17703e-06
3.72337e-09
0.00488593
6.35248e-06
3.58927e-09
0.0048794
6.53264e-06
3.45179e-09
0.00487268
6.71756e-06
3.31113e-09
0.00486577
6.90728e-06
3.16771e-09
0.00485866
7.10183e-06
3.02203e-09
0.00485136
7.30127e-06
2.87454e-09
0.00484385
7.50566e-06
2.72562e-09
0.00483613
7.71509e-06
2.57555e-09
0.0048282
7.92964e-06
2.42472e-09
0.00482005
8.14948e-06
2.27353e-09
0.00481167
8.37493e-06
2.12238e-09
0.00480306
8.60678e-06
1.97159e-09
0.00479421
8.84731e-06
1.82145e-09
9.10296e-06
0.00478511
1.67211e-09
0.00505063
2.57189e-07
0.00505025
7.49706e-07
0.00504965
1.19965e-06
0.00504884
1.63466e-06
0.00504775
2.16856e-06
0.00504628
2.95851e-06
0.00504424
4.0919e-06
0.00504149
5.49983e-06
0.00503802
6.96869e-06
0.00503391
8.23597e-06
0.00502937
9.10097e-06
0.00502463
9.48892e-06
0.00501991
9.45023e-06
0.00501536
9.11514e-06
0.00501104
8.63647e-06
0.00500696
8.14556e-06
0.00500309
7.7307e-06
0.00499937
7.43538e-06
0.00499573
7.26803e-06
0.00499212
7.2155e-06
0.00498848
7.25502e-06
0.0049848
7.36249e-06
0.00498104
7.51705e-06
0.00497718
7.70279e-06
0.00497323
7.9087e-06
0.00496916
8.12785e-06
0.00496498
8.35628e-06
0.00496069
8.59206e-06
0.00495627
8.83444e-06
0.00495173
9.08338e-06
0.00494706
9.33915e-06
0.00494226
9.60217e-06
0.00493732
9.87283e-06
0.00493225
1.01515e-05
0.00492703
1.04385e-05
0.00492166
1.07342e-05
0.00491615
1.10385e-05
0.00491047
1.13518e-05
0.00490464
1.16742e-05
0.00489864
1.20057e-05
0.00489247
1.23465e-05
0.00488613
1.26965e-05
0.0048796
1.30559e-05
0.0048729
1.34248e-05
0.004866
1.38032e-05
0.00485891
1.41913e-05
0.00485162
1.4589e-05
0.00484413
1.49966e-05
0.00483643
1.54142e-05
0.00482852
1.58419e-05
0.00482039
1.62801e-05
0.00481204
1.67294e-05
0.00480345
1.71914e-05
0.00479463
1.76702e-05
1.81783e-05
0.00478555
0.00505063
3.85552e-07
0.00505025
1.12393e-06
0.00504966
1.79882e-06
0.00504884
2.45091e-06
0.00504776
3.24901e-06
0.00504629
4.42698e-06
0.00504427
6.11596e-06
0.00504155
8.21525e-06
0.00503811
1.04085e-05
0.00503404
1.23054e-05
0.00502954
1.36062e-05
0.00502483
1.41977e-05
0.00502012
1.41529e-05
0.00501558
1.36641e-05
0.00501125
1.29581e-05
0.00500717
1.22305e-05
0.00500329
1.16133e-05
0.00499955
1.11722e-05
0.0049959
1.09205e-05
0.00499227
1.08394e-05
0.00498863
1.08954e-05
0.00498494
1.10531e-05
0.00498118
1.12814e-05
0.00497732
1.15568e-05
0.00497337
1.18628e-05
0.00496931
1.2189e-05
0.00496514
1.25294e-05
0.00496085
1.28812e-05
0.00495644
1.3243e-05
0.00495191
1.36149e-05
0.00494725
1.39971e-05
0.00494246
1.43903e-05
0.00493754
1.47949e-05
0.00493248
1.52116e-05
0.00492728
1.56408e-05
0.00492193
1.60828e-05
0.00491643
1.65379e-05
0.00491077
1.70064e-05
0.00490496
1.74883e-05
0.00489898
1.79839e-05
0.00489283
1.84933e-05
0.00488651
1.90165e-05
0.00488002
1.95537e-05
0.00487334
2.01049e-05
0.00486647
2.06703e-05
0.00485941
2.125e-05
0.00485216
2.18441e-05
0.0048447
2.24528e-05
0.00483704
2.30763e-05
0.00482916
2.37148e-05
0.00482108
2.43688e-05
0.00481277
2.5039e-05
0.00480423
2.57277e-05
0.00479546
2.64409e-05
2.71956e-05
0.00478644
0.00505063
5.13632e-07
0.00505026
1.49735e-06
0.00504966
2.3971e-06
0.00504884
3.26573e-06
0.00504777
4.32489e-06
0.00504631
5.88302e-06
0.00504431
8.11509e-06
0.00504164
1.08916e-05
0.00503825
1.3798e-05
0.00503423
1.63201e-05
0.00502978
1.80604e-05
0.00502511
1.88662e-05
0.00502043
1.88299e-05
0.00501589
1.82027e-05
0.00501157
1.72826e-05
0.00500747
1.63278e-05
0.00500357
1.55137e-05
0.00499981
1.49284e-05
0.00499614
1.45913e-05
0.0049925
1.44787e-05
0.00498885
1.45474e-05
0.00498515
1.47511e-05
0.00498139
1.50491e-05
0.00497753
1.54104e-05
0.00497358
1.58131e-05
0.00496953
1.62434e-05
0.00496536
1.66934e-05
0.00496109
1.71589e-05
0.00495669
1.76382e-05
0.00495217
1.81312e-05
0.00494753
1.86382e-05
0.00494276
1.91599e-05
0.00493786
1.9697e-05
0.00493282
2.02502e-05
0.00492764
2.082e-05
0.00492232
2.14068e-05
0.00491685
2.2011e-05
0.00491122
2.26329e-05
0.00490544
2.32726e-05
0.00489949
2.39304e-05
0.00489338
2.46064e-05
0.00488709
2.53006e-05
0.00488063
2.60133e-05
0.00487399
2.67445e-05
0.00486717
2.74943e-05
0.00486016
2.82629e-05
0.00485295
2.90505e-05
0.00484555
2.98572e-05
0.00483794
3.06832e-05
0.00483012
3.15289e-05
0.0048221
3.23948e-05
0.00481386
3.32817e-05
0.00480539
3.41923e-05
0.0047967
3.51336e-05
3.61257e-05
0.00478777
0.00505063
6.41341e-07
0.00505026
1.8697e-06
0.00504966
2.99418e-06
0.00504885
4.07864e-06
0.00504778
5.39487e-06
0.00504634
7.32321e-06
0.00504437
1.00826e-05
0.00504174
1.35184e-05
0.00503842
1.71237e-05
0.00503447
2.02651e-05
0.00503008
2.24496e-05
0.00502547
2.3483e-05
0.00502082
2.34739e-05
0.0050163
2.27276e-05
0.00501197
2.161e-05
0.00500786
2.04399e-05
0.00500394
1.94357e-05
0.00500016
1.87086e-05
0.00499646
1.82848e-05
0.0049928
1.8137e-05
0.00498914
1.82135e-05
0.00498543
1.84579e-05
0.00498166
1.88204e-05
0.00497781
1.92627e-05
0.00497386
1.97578e-05
0.00496982
2.02886e-05
0.00496567
2.08448e-05
0.0049614
2.14212e-05
0.00495703
2.20155e-05
0.00495253
2.26273e-05
0.00494791
2.32569e-05
0.00494317
2.39051e-05
0.00493829
2.45726e-05
0.00493328
2.52602e-05
0.00492813
2.59686e-05
0.00492284
2.66981e-05
0.0049174
2.74492e-05
0.00491181
2.82222e-05
0.00490607
2.90174e-05
0.00490016
2.98348e-05
0.0048941
3.06747e-05
0.00488786
3.15371e-05
0.00488145
3.24223e-05
0.00487486
3.33303e-05
0.0048681
3.42612e-05
0.00486115
3.52151e-05
0.004854
3.61923e-05
0.00484667
3.71929e-05
0.00483913
3.82172e-05
0.0048314
3.92654e-05
0.00482345
4.0338e-05
0.0048153
4.14361e-05
0.00480693
4.25622e-05
0.00479834
4.37235e-05
4.49411e-05
0.00478952
0.00505063
7.68599e-07
0.00505026
2.24072e-06
0.00504966
3.5897e-06
0.00504885
4.88913e-06
0.00504779
6.45775e-06
0.00504637
8.74472e-06
0.00504444
1.20129e-05
0.00504187
1.60871e-05
0.00503862
2.03745e-05
0.00503476
2.41283e-05
0.00503044
2.6762e-05
0.00502589
2.80385e-05
0.00502128
2.8078e-05
0.00501678
2.72351e-05
0.00501245
2.59395e-05
0.00500832
2.45684e-05
0.00500437
2.33822e-05
0.00500056
2.25158e-05
0.00499685
2.20037e-05
0.00499317
2.18166e-05
0.00498948
2.18952e-05
0.00498577
2.2174e-05
0.00498199
2.25948e-05
0.00497814
2.31125e-05
0.00497421
2.3695e-05
0.00497017
2.43217e-05
0.00496604
2.49802e-05
0.0049618
2.5664e-05
0.00495744
2.63702e-05
0.00495297
2.7098e-05
0.00494838
2.78476e-05
0.00494366
2.86197e-05
0.00493882
2.94152e-05
0.00493385
3.02347e-05
0.00492874
3.10791e-05
0.00492349
3.19487e-05
0.00491809
3.2844e-05
0.00491255
3.37653e-05
0.00490685
3.47129e-05
0.004901
3.56869e-05
0.00489499
3.66874e-05
0.00488881
3.77146e-05
0.00488246
3.87686e-05
0.00487595
3.98494e-05
0.00486925
4.09572e-05
0.00486237
4.20921e-05
0.00485531
4.32543e-05
0.00484806
4.44438e-05
0.00484062
4.56609e-05
0.00483298
4.69059e-05
0.00482513
4.81792e-05
0.00481709
4.94816e-05
0.00480884
5.08154e-05
0.00480037
5.21869e-05
5.36151e-05
0.0047917
0.00505063
8.95279e-07
0.00505026
2.61017e-06
0.00504967
4.18329e-06
0.00504886
5.69668e-06
0.00504781
7.51254e-06
0.0050464
1.01454e-05
0.00504452
1.3902e-05
0.00504201
1.85913e-05
0.00503884
2.3542e-05
0.00503507
2.79003e-05
0.00503085
3.09885e-05
0.00502636
3.25249e-05
0.0050218
3.26365e-05
0.00501731
3.17219e-05
0.00501298
3.02697e-05
0.00500884
2.87131e-05
0.00500487
2.7354e-05
0.00500103
2.63515e-05
0.00499729
2.57495e-05
0.00499358
2.55184e-05
0.00498989
2.55927e-05
0.00498616
2.5899e-05
0.00498238
2.63713e-05
0.00497854
2.6958e-05
0.00497461
2.76221e-05
0.00497059
2.83396e-05
0.00496648
2.90959e-05
0.00496226
2.98832e-05
0.00495793
3.06978e-05
0.00495349
3.15383e-05
0.00494893
3.24047e-05
0.00494426
3.32978e-05
0.00493945
3.42182e-05
0.00493452
3.51668e-05
0.00492946
3.61441e-05
0.00492425
3.71507e-05
0.00491891
3.81871e-05
0.00491342
3.92534e-05
0.00490779
4.03499e-05
0.004902
4.14767e-05
0.00489605
4.2634e-05
0.00488994
4.38218e-05
0.00488367
4.50402e-05
0.00487723
4.62893e-05
0.00487062
4.75691e-05
0.00486383
4.88798e-05
0.00485686
5.02214e-05
0.00484971
5.1594e-05
0.00484238
5.29977e-05
0.00483485
5.44329e-05
0.00482713
5.58996e-05
0.00481921
5.73986e-05
0.0048111
5.89313e-05
0.00480278
6.05016e-05
0.00479428
6.21204e-05
0.00478602
-9.19005e-07
1.53102e-09
0.00478643
-4.03938e-07
1.40655e-09
0.00478628
1.48321e-07
1.26543e-09
0.00478554
7.33004e-07
1.13847e-09
0.00478418
1.36106e-06
9.97099e-10
0.00478215
2.0333e-06
8.46875e-10
0.00477939
2.75374e-06
6.8978e-10
0.00477587
3.52672e-06
5.25791e-10
0.00477151
4.35701e-06
3.55106e-10
0.00476626
5.24985e-06
1.78479e-10
0.00476005
6.211e-06
-3.35659e-12
0.0047528
7.24679e-06
-1.89394e-10
0.00474444
8.36421e-06
-3.781e-10
0.00473487
9.57101e-06
-5.68485e-10
0.00472399
1.08758e-05
-7.58809e-10
0.0047117
1.22884e-05
-9.53086e-10
0.00469789
1.382e-05
-1.14603e-09
0.0046824
1.54837e-05
-1.32677e-09
0.00466511
1.72945e-05
-1.4905e-09
0.00464584
1.92701e-05
-1.63693e-09
0.00462441
2.14311e-05
-1.77096e-09
0.00460061
2.38019e-05
-1.89223e-09
0.0045742
2.64118e-05
-1.99659e-09
0.00454491
2.92951e-05
-2.08417e-09
0.00451242
3.24927e-05
-2.15507e-09
0.00447637
3.60529e-05
-2.21072e-09
0.00443634
4.00332e-05
-2.25311e-09
0.00439184
4.45018e-05
-2.28381e-09
0.0043423
4.95401e-05
-2.30496e-09
0.00428706
5.52454e-05
-2.31898e-09
0.00422532
6.17348e-05
-2.32789e-09
0.00415618
6.91502e-05
-2.33345e-09
0.00407851
7.7664e-05
-2.33718e-09
0.00399103
8.7487e-05
-2.34025e-09
0.00389216
9.88768e-05
-2.34332e-09
0.00378001
0.000112147
-2.34644e-09
0.00365234
0.000127674
-2.34947e-09
0.00350644
0.000145899
-2.35244e-09
0.00333913
0.000167311
-2.3554e-09
0.00314673
0.000192411
-2.35862e-09
0.00292512
0.000221608
-2.36321e-09
0.00267008
0.000255047
-2.3714e-09
0.00237778
0.0002923
-2.38616e-09
0.00204591
0.000331865
-2.41003e-09
0.00167549
0.000370427
-2.44255e-09
0.0012737
0.000401791
-2.47287e-09
0.000858165
0.000415539
-2.46544e-09
0.00046284
0.000395328
-2.33577e-09
0.00014655
0.000316292
-1.92376e-09
0.000146551
-9.73344e-10
0.0047851
-4.67624e-07
0.00478414
5.61786e-07
0.00478263
1.65866e-06
0.00478053
2.83037e-06
0.00477781
4.0838e-06
0.00477441
5.4258e-06
0.0047703
6.86416e-06
0.00476542
8.40757e-06
0.00475971
1.00656e-05
0.00475311
1.18487e-05
0.00474556
1.37685e-05
0.00473697
1.58377e-05
0.00472726
1.80702e-05
0.00471635
2.04815e-05
0.00470414
2.30891e-05
0.00469051
2.59125e-05
0.00467536
2.89742e-05
0.00465854
3.23005e-05
0.00463991
3.59217e-05
0.00461931
3.9873e-05
0.00459655
4.41958e-05
0.00457141
4.89395e-05
0.00454366
5.41621e-05
0.00451302
5.99328e-05
0.00447918
6.63332e-05
0.00444177
7.34604e-05
0.00440038
8.1429e-05
0.0043545
9.03756e-05
0.00430358
0.000100462
0.00424694
0.000111884
0.0041838
0.000124873
0.00411324
0.000139713
0.00403416
0.000156745
0.00394526
0.000176389
0.00384498
0.000199153
0.00373147
0.000225657
0.0036025
0.000256642
0.00345543
0.000292971
0.00328714
0.000335599
0.00309406
0.000385489
0.00287226
0.000443415
0.0026177
0.000509609
0.00232685
0.000583145
0.00199775
0.000660964
0.00163177
0.000736414
0.00123638
0.000797175
0.000829368
0.000822553
0.000444345
0.000780351
0.000138017
0.00062262
0.000284567
0.00478327
2.70273e-06
0.00477959
4.24069e-06
0.00477537
5.88138e-06
0.00477057
7.6341e-06
0.00476514
9.50859e-06
0.00475905
1.15156e-05
0.00475225
1.3667e-05
0.00474468
1.59759e-05
0.00473629
1.84567e-05
0.00472701
2.11251e-05
0.00471678
2.39987e-05
0.00470552
2.70964e-05
0.00469315
3.04393e-05
0.00467959
3.40508e-05
0.00466472
3.79571e-05
0.00464844
4.21876e-05
0.00463064
4.67763e-05
0.00461118
5.17629e-05
0.00458991
5.71931e-05
0.00456666
6.31199e-05
0.00454125
6.96058e-05
0.00451346
7.67251e-05
0.00448306
8.45654e-05
0.00444976
9.32305e-05
0.00441325
0.000102843
0.00437316
0.000113549
0.00432907
0.000125521
0.00428049
0.000138962
0.00422683
0.000154117
0.00416744
0.000171274
0.00410153
0.000190782
0.00402818
0.000213061
0.00394631
0.00023862
0.00385462
0.000268076
0.0037516
0.00030218
0.00363541
0.00034184
0.00350392
0.000388136
0.00335457
0.000442317
0.00318442
0.000505751
0.00299012
0.000579788
0.00276807
0.00066547
0.00251468
0.000762996
0.00222701
0.000870815
0.00190377
0.000984208
0.001547
0.00109318
0.00116469
0.00117949
0.000774642
0.0012126
0.000410023
0.00114497
0.000124923
0.000907721
0.00040949
0.00478056
9.90732e-06
0.00477286
1.19481e-05
0.00476461
1.41255e-05
0.0047558
1.64515e-05
0.00474636
1.89394e-05
0.00473628
2.16036e-05
0.00472548
2.44601e-05
0.00471393
2.75264e-05
0.00470157
3.08219e-05
0.00468833
3.43677e-05
0.00467414
3.81869e-05
0.00465893
4.23053e-05
0.00464262
4.67508e-05
0.00462511
5.15549e-05
0.00460632
5.67526e-05
0.00458612
6.23835e-05
0.0045644
6.84933e-05
0.00454103
7.51351e-05
0.00451585
8.23704e-05
0.0044887
9.02704e-05
0.00445939
9.8919e-05
0.0044277
0.000108416
0.00439339
0.000118878
0.00435617
0.000130445
0.00431574
0.00014328
0.00427171
0.000157579
0.00422366
0.000173571
0.00417109
0.000191527
0.00411344
0.000211771
0.00405002
0.000234688
0.00398007
0.000260736
0.00390266
0.000290471
0.00381672
0.000324558
0.00372099
0.000363806
0.00361398
0.000409188
0.00349395
0.000461876
0.00335884
0.000523248
0.00320627
0.00059488
0.00303356
0.000678469
0.00283771
0.000775636
0.00261564
0.00088754
0.00236447
0.00101416
0.00208214
0.00115314
0.00176839
0.00129796
0.00142624
0.00143533
0.00106421
0.00154151
0.000699675
0.00157713
0.000363936
0.00148071
0.000106308
0.00116535
0.000515798
0.00477702
2.241e-05
0.00476403
2.49433e-05
0.00475051
2.76464e-05
0.00473642
3.05346e-05
0.00472174
3.36245e-05
0.00470641
3.69344e-05
0.00469038
4.04845e-05
0.00467361
4.42967e-05
0.00465604
4.83953e-05
0.0046376
5.28066e-05
0.00461823
5.75599e-05
0.00459784
6.2687e-05
0.00457637
6.82235e-05
0.00455372
7.42087e-05
0.00452978
8.06865e-05
0.00450446
8.7707e-05
0.00447763
9.53276e-05
0.00444915
0.000103615
0.00441887
0.000112648
0.00438663
0.000122514
0.00435222
0.000133321
0.00431545
0.000145193
0.00427604
0.000158279
0.00423374
0.000172751
0.0041882
0.000188818
0.00413906
0.000206721
0.00408588
0.000226748
0.00402817
0.000249238
0.00396535
0.000274593
0.00389674
0.000303291
0.00382158
0.000335898
0.00373896
0.000373097
0.00364781
0.000415704
0.00354692
0.000464699
0.00343485
0.000521257
0.00330995
0.000586773
0.00317033
0.000662868
0.00301385
0.00075136
0.00283817
0.000854154
0.00264082
0.000972978
0.00241948
0.00110889
0.00217225
0.00126139
0.00189833
0.00142706
0.00159887
0.00159742
0.00127817
0.00175603
0.000945318
0.00187437
0.000616358
0.00190609
0.000317662
0.00177941
8.79808e-05
0.00139503
0.000603779
0.0047727
4.14047e-05
0.00475323
4.44139e-05
0.00473325
4.76268e-05
0.00471273
5.10612e-05
0.00469161
5.47376e-05
0.00466987
5.86779e-05
0.00464745
6.29063e-05
0.00462429
6.7449e-05
0.00460035
7.23351e-05
0.00457557
7.75963e-05
0.00454986
8.32676e-05
0.00452316
8.93876e-05
0.00449538
9.59988e-05
0.00446644
0.000103149
0.00443624
0.000110891
0.00440466
0.000119285
0.00437159
0.000128401
0.00433688
0.000138321
0.00430039
0.000149137
0.00426195
0.000160959
0.00422135
0.000173915
0.00417839
0.000188157
0.00413281
0.000203862
0.00408432
0.000221241
0.00403259
0.000240544
0.00397725
0.000262062
0.00391786
0.00028614
0.00385391
0.000313185
0.00378483
0.000343675
0.00370994
0.000378178
0.00362847
0.000417367
0.00353953
0.000462044
0.00344207
0.000513161
0.00333492
0.000571851
0.00321672
0.000639457
0.00308595
0.000717542
0.00294093
0.000807886
0.00277987
0.000912423
0.00260094
0.00103308
0.00240249
0.00117143
0.00218329
0.00132809
0.00194298
0.00150171
0.00168267
0.00168737
0.00140569
0.0018744
0.0011183
0.00204342
0.000830399
0.00216227
0.000555755
0.00218073
0.000310612
0.00202455
0.000107289
0.00159835
0.000711068
0.00476769
6.79916e-05
0.00474065
7.14522e-05
0.00471313
7.51529e-05
0.00468507
7.91128e-05
0.00465646
8.33552e-05
0.00462723
8.79053e-05
0.00459734
9.27909e-05
0.00456675
9.80426e-05
0.00453539
0.000103694
0.00450321
0.000109783
0.00447012
0.000116348
0.00443608
0.000123437
0.00440098
0.000131098
0.00436474
0.000139387
0.00432726
0.000148366
0.00428844
0.000158107
0.00424815
0.000168692
0.00420625
0.000180215
0.0041626
0.000192788
0.00411702
0.000206539
0.00406932
0.000221618
0.00401927
0.000238203
0.00396663
0.000256505
0.0039111
0.000276771
0.00385235
0.000299292
0.00379001
0.00032441
0.00372362
0.000352528
0.00365269
0.000384117
0.00357663
0.000419735
0.00349477
0.000460037
0.00340634
0.000505797
0.00331045
0.000557929
0.0032061
0.000617513
0.00309214
0.000685815
0.00296728
0.000764308
0.00283015
0.000854673
0.00267928
0.000958758
0.00251324
0.00107847
0.00233078
0.00121553
0.00213117
0.00137104
0.00191453
0.00154473
0.00168245
0.00173379
0.00143867
0.00193115
0.00118979
0.00212329
0.00094577
0.00228744
0.000719521
0.00238852
0.000524306
0.00237595
0.000364698
0.00218416
0.000220798
0.00174225
0.000931866
-3.08715e-05
3.08719e-05
-4.1528e-10
-8.54142e-05
5.45434e-05
-7.47693e-10
-0.000140507
5.50933e-05
-7.50048e-10
-0.000182685
4.21787e-05
-5.66951e-10
-0.000204571
2.18867e-05
-2.6223e-10
-0.000202255
-2.31639e-06
1.09136e-10
-0.000175494
-2.67615e-05
5.50212e-10
-0.000124301
-5.11939e-05
1.07864e-09
-4.99186e-05
-7.43842e-05
1.68856e-09
4.58638e-05
-9.57848e-05
2.37953e-09
0.000160724
-0.000114863
3.0913e-09
0.000292328
-0.000131608
3.80066e-09
0.000438244
-0.00014592
4.4674e-09
0.000596027
-0.000157789
5.0429e-09
0.000763296
-0.000167274
5.48358e-09
0.000937766
-0.000174476
5.75526e-09
0.00111729
-0.000179527
5.83837e-09
0.00129986
-0.000182579
5.73353e-09
0.00148366
-0.0001838
5.45443e-09
0.00166702
-0.000183368
5.04054e-09
0.00184848
-0.000181465
4.63385e-09
0.00202675
-0.000178274
4.21009e-09
0.00220072
-0.000173973
4.13685e-09
0.00236945
-0.000168735
4.63819e-09
0.00253217
-0.000162725
5.44599e-09
0.00268826
-0.000156101
6.33953e-09
0.00283726
-0.000149008
7.02566e-09
0.00297883
-0.000141578
7.40015e-09
0.00311276
-0.000133933
7.49237e-09
0.00323893
-0.00012618
7.31396e-09
0.00335734
-0.000118414
6.89388e-09
0.00346805
-0.000110719
6.27452e-09
0.00357121
-0.000103165
5.50666e-09
0.00366702
-9.58109e-05
4.64243e-09
0.00375572
-8.87064e-05
3.73182e-09
0.00383761
-8.18896e-05
2.82198e-09
0.003913
-7.53896e-05
1.9542e-09
0.00398222
-6.9227e-05
1.16375e-09
0.00404564
-6.34147e-05
4.79759e-10
0.00410359
-5.79591e-05
-7.82444e-11
0.00415646
-5.28604e-05
-4.94298e-10
0.00420457
-4.81142e-05
-7.67186e-10
0.00424828
-4.37118e-05
-8.98491e-10
0.00428793
-3.9641e-05
-8.97317e-10
0.00432381
-3.58872e-05
-7.77349e-10
0.00435625
-3.24338e-05
-5.55078e-10
0.00438551
-2.9263e-05
-2.48324e-10
0.00441187
-2.63559e-05
1.25926e-10
0.00443556
-2.36932e-05
5.51028e-10
-2.12554e-05
0.00445681
1.01431e-09
-2.70845e-05
5.79565e-05
-7.44208e-05
0.00010188
-0.000121458
0.000102131
-0.000156305
7.70257e-05
-0.00017215
3.77312e-05
-0.000165719
-8.7476e-06
-0.000136115
-5.63648e-05
-8.36101e-05
-0.000103699
-8.88412e-06
-0.00014911
8.58265e-05
-0.000190495
0.000198889
-0.000227925
0.000328106
-0.000260825
0.00047118
-0.000288994
0.000625815
-0.000312424
0.000789753
-0.000331212
0.000960816
-0.000345539
0.00113694
-0.00035565
0.00131619
-0.000361832
0.0014968
-0.000364407
0.00167715
-0.000363716
0.00185579
-0.000360113
0.00203147
-0.000353953
0.00220308
-0.000345585
0.0023697
-0.00033535
0.00253054
-0.000323572
0.002685
-0.000310561
0.0028326
-0.000296607
0.002973
-0.000281971
0.00310596
-0.000266895
0.00323137
-0.000251592
0.00334921
-0.000236251
0.00345953
-0.000221039
0.00356246
-0.000206097
0.00365819
-0.000191544
0.00374696
-0.000177477
0.00382905
-0.000163974
0.00390475
-0.000151093
0.0039744
-0.000138876
0.00403833
-0.00012735
0.0040969
-0.000116527
0.00415045
-0.00010641
0.00419933
-9.69897e-05
0.00424387
-8.82491e-05
0.00428439
-8.0165e-05
0.00432121
-7.27087e-05
0.00435462
-6.58476e-05
0.00438491
-5.95465e-05
0.00441232
-5.37683e-05
0.0044371
-4.84747e-05
-4.36261e-05
0.00445947
-2.02822e-05
7.82387e-05
-5.32631e-05
0.000134861
-8.4979e-05
0.000133847
-0.000105944
9.79906e-05
-0.000110457
4.22446e-05
-9.63338e-05
-2.28711e-05
-6.13986e-05
-9.13e-05
-6.26931e-06
-0.000158828
6.77041e-05
-0.000223084
0.000160308
-0.000283099
0.000269731
-0.000337348
0.000394123
-0.000385216
0.000531538
-0.000426409
0.000679967
-0.000460853
0.000837392
-0.000488637
0.00100184
-0.000509984
0.0011714
-0.000525211
0.00134427
-0.000534709
0.00151879
-0.000538923
0.00169341
-0.000538334
0.00186674
-0.000533442
0.00203755
-0.000524759
0.00220475
-0.00051279
0.00236743
-0.00049803
0.00252482
-0.000480956
0.00267628
-0.000462022
0.00282132
-0.000441655
0.0029596
-0.000420244
0.00309085
-0.000398145
0.00321493
-0.000375678
0.00333181
-0.000353125
0.0034415
-0.000330734
0.00354412
-0.000308718
0.00363984
-0.000287255
0.00372885
-0.000266492
0.00381142
-0.000246547
0.00388784
-0.000227508
0.0039584
-0.00020944
0.00402344
-0.000192385
0.00408327
-0.000176362
0.00413824
-0.000161377
0.00418867
-0.000147417
0.00423488
-0.00013446
0.00427718
-0.000122472
0.00431589
-0.000111411
0.00435127
-0.000101229
0.0043836
-9.18761e-05
0.00441313
-8.32964e-05
0.00444009
-7.54334e-05
-6.82271e-05
0.00446469
-7.98493e-06
8.62236e-05
-2.21935e-05
0.000149069
-3.28783e-05
0.000144531
-3.48584e-05
9.99708e-05
-2.37766e-05
3.11628e-05
1.35625e-06
-4.80039e-05
4.10778e-05
-0.000131022
9.76071e-05
-0.000215358
0.000170869
-0.000296345
0.000259788
-0.000372019
0.000363402
-0.000440962
0.000480445
-0.00050226
0.000609444
-0.000555408
0.00074879
-0.000600199
0.000896806
-0.000636653
0.00105179
-0.000664969
0.00121206
-0.000685483
0.001376
-0.000698642
0.00154204
-0.00070497
0.00170876
-0.000705049
0.00187482
-0.000699501
0.00203902
-0.000688963
0.00220031
-0.00067408
0.00235777
-0.000655486
0.0025106
-0.000633794
0.00265818
-0.000609597
0.00279998
-0.000583452
0.0029356
-0.000555869
0.00306478
-0.000527319
0.00318732
-0.000498224
0.00330315
-0.000468959
0.00341227
-0.000439854
0.00351475
-0.000411193
0.00361071
-0.000383216
0.00370034
-0.000356122
0.00378386
-0.000330067
0.00386153
-0.000305175
0.00393362
-0.000281533
0.00400043
-0.000259198
0.00406227
-0.000238203
0.00411945
-0.000218555
0.00417228
-0.000200242
0.00422105
-0.000183236
0.00426607
-0.000167493
0.00430763
-0.000152962
0.00434598
-0.000139582
0.00438139
-0.000127285
0.00441409
-0.000116001
0.00444431
-0.000105655
-9.61666e-05
0.00447225
7.40173e-06
7.88219e-05
1.70674e-05
0.000139403
3.1641e-05
0.000129958
5.13603e-05
8.02515e-05
7.97213e-05
2.8018e-06
0.000114588
-8.28706e-05
0.000161079
-0.000177513
0.000219121
-0.000273399
0.00028956
-0.000366785
0.000372579
-0.000455037
0.00046792
-0.000536303
0.000574984
-0.000609324
0.000692879
-0.000673303
0.000820491
-0.000727811
0.000956549
-0.000772711
0.00109968
-0.000808101
0.00124847
-0.000834268
0.00140147
-0.000851647
0.0015573
-0.000860793
0.00171459
-0.000862344
0.00187209
-0.000857
0.00202863
-0.000845501
0.00218315
-0.000828603
0.00233473
-0.00080706
0.00248255
-0.000781615
0.00262593
-0.000752982
0.00276432
-0.000721843
0.00289728
-0.000688829
0.00302448
-0.00065452
0.0031457
-0.000619441
0.0032608
-0.000584062
0.00336974
-0.000548795
0.00347255
-0.000513997
0.0035693
-0.000479973
0.00366016
-0.000446973
0.00374529
-0.000415198
0.00382492
-0.000384807
0.0038993
-0.000355913
0.00396869
-0.000328593
0.00403338
-0.000302891
0.00409365
-0.000278821
0.00414978
-0.000256373
0.00420206
-0.000235514
0.00425076
-0.000216196
0.00429615
-0.000198355
0.00433849
-0.00018192
0.00437802
-0.00016681
0.00441496
-0.00015294
0.00444952
-0.000140217
-0.000128541
0.00448189
2.45174e-05
5.43045e-05
6.3037e-05
0.000100884
0.000106309
8.66858e-05
0.00015112
3.54401e-05
0.00019353
-3.96075e-05
0.000239861
-0.000129202
0.000290431
-0.000228083
0.000347418
-0.000330386
0.000412511
-0.000431877
0.000486858
-0.000529384
0.000571097
-0.000620543
0.000665405
-0.000703632
0.000769553
-0.000777451
0.000882982
-0.00084124
0.00100487
-0.0008946
0.0011342
-0.000937435
0.00126983
-0.000969896
0.00141052
-0.00099234
0.00155501
-0.00100528
0.00170204
-0.00100937
0.00185038
-0.00100534
0.00199888
-0.000993999
0.00214646
-0.000976187
0.00229217
-0.000952765
0.00243513
-0.000924582
0.00257463
-0.000892475
0.00271003
-0.000857243
0.00284083
-0.000819635
0.00296665
-0.000780341
0.0030872
-0.00073999
0.00320229
-0.000699149
0.00331181
-0.000658316
0.00341574
-0.000617927
0.00351412
-0.000578351
0.00360704
-0.000539897
0.00369466
-0.000502814
0.00377715
-0.000467297
0.00385473
-0.000433491
0.00392763
-0.000401495
0.00399611
-0.000371367
0.00406041
-0.00034313
0.00412082
-0.000316777
0.00417758
-0.000292276
0.00423096
-0.000269572
0.0042812
-0.000248595
0.00432854
-0.000229263
0.00437321
-0.000211483
0.00441543
-0.000195156
0.00445539
-0.000180176
-0.000166422
0.00449327
4.59524e-05
8.35208e-06
0.000117919
2.89174e-05
0.000190637
1.39674e-05
0.000255138
-2.90607e-05
0.000311673
-9.61423e-05
0.000364132
-0.000181661
0.00041501
-0.000278961
0.000467347
-0.000382723
0.000523844
-0.000488374
0.00058664
-0.00059218
0.000657263
-0.000691166
0.000736658
-0.000783027
0.00082525
-0.000866043
0.00092302
-0.000939009
0.00102958
-0.00100116
0.00114425
-0.0010521
0.00126613
-0.00109177
0.00139416
-0.00112037
0.0015272
-0.00113832
0.00166404
-0.00114621
0.00180348
-0.00114478
0.00194435
-0.00113487
0.00208554
-0.00111738
0.00222603
-0.00109325
0.00236489
-0.00106344
0.00250131
-0.0010289
0.0026346
-0.000990529
0.00276417
-0.000949205
0.00288956
-0.000905729
0.00301041
-0.000860838
0.00312646
-0.0008152
0.00323755
-0.000769405
0.00334359
-0.00072397
0.00344458
-0.000679338
0.00354056
-0.000635879
0.00363164
-0.000593894
0.00371796
-0.000553622
0.00379971
-0.00051524
0.00387709
-0.000478873
0.00395032
-0.000444598
0.00401964
-0.000412449
0.00408529
-0.000382425
0.0041475
-0.000354494
0.00420653
-0.000328599
0.0042626
-0.000304665
0.00431594
-0.000282598
0.00436675
-0.000262298
0.00441525
-0.000243652
0.00446161
-0.000226543
0.00450603
-0.000210841
0.00448566
-2.88474e-05
1.5142e-09
0.00451304
-2.73783e-05
2.06544e-09
0.00453902
-2.59908e-05
2.63504e-09
0.00456371
-2.46847e-05
3.20028e-09
0.00458716
-2.34573e-05
3.74473e-09
0.00460946
-2.23052e-05
4.2586e-09
0.00463068
-2.12248e-05
4.73784e-09
0.00465089
-2.02123e-05
5.18304e-09
0.00467015
-1.9264e-05
5.59811e-09
0.00468852
-1.83758e-05
5.98865e-09
0.00470605
-1.75437e-05
6.3612e-09
0.00472281
-1.67635e-05
6.72238e-09
0.00473883
-1.60305e-05
7.0783e-09
0.00475417
-1.53397e-05
7.43403e-09
0.00476884
-1.46855e-05
7.79299e-09
0.0047829
-1.40613e-05
8.15575e-09
0.00479635
-1.34602e-05
8.51939e-09
0.00480921
-1.28749e-05
8.87721e-09
0.0048215
-1.22981e-05
9.21866e-09
0.00483322
-1.17237e-05
9.52972e-09
0.00484435
-1.11474e-05
9.79395e-09
0.00485491
-1.05677e-05
9.9938e-09
0.00486489
-9.98644e-06
1.01126e-08
0.00487429
-9.40926e-06
1.01364e-08
0.00488312
-8.84487e-06
1.00554e-08
0.00489142
-8.30398e-06
9.86584e-09
0.0048992
-7.79756e-06
9.5699e-09
0.00490653
-7.33497e-06
9.17578e-09
0.00491344
-6.92233e-06
8.69715e-09
0.00492
-6.56154e-06
8.1512e-09
0.00492624
-6.25018e-06
7.55671e-09
0.00493221
-5.98217e-06
6.93229e-09
0.00493796
-5.74914e-06
6.29465e-09
0.00494349
-5.54194e-06
5.65788e-09
0.00494884
-5.35199e-06
5.03324e-09
0.00495401
-5.17223e-06
4.42841e-09
0.004959
-4.99759e-06
3.84785e-09
0.00496382
-4.82494e-06
3.29415e-09
0.00496847
-4.6528e-06
2.76882e-09
0.00497295
-4.48083e-06
2.27251e-09
0.00497726
-4.30941e-06
1.80517e-09
0.0049814
-4.13928e-06
1.36803e-09
0.00498537
-3.97124e-06
9.6293e-10
0.00498917
-3.80606e-06
5.92238e-10
0.00499282
-3.6441e-06
2.70287e-10
0.0049963
-3.48615e-06
-3.05131e-11
0.00499964
-3.33248e-06
-3.11099e-10
0.00500282
-3.18317e-06
-5.70159e-10
0.00500586
-3.03832e-06
-8.11051e-10
0.00500876
-2.89795e-06
-1.04238e-09
0.00501152
-2.76207e-06
-1.27331e-09
0.00501415
-2.63063e-06
-1.51179e-09
0.00501666
-2.50357e-06
-1.76544e-09
0.00501904
-2.3808e-06
-2.03965e-09
0.00502131
-2.26224e-06
-2.33723e-09
0.00502346
-2.14778e-06
-2.6553e-09
0.0050255
-2.03736e-06
-2.98452e-09
0.00502743
-1.93088e-06
-3.30992e-09
0.00502926