/*--------------------------------*- C++ -*----------------------------------*\
| =========                 |                                                 |
| \\      /  F ield         | OpenFOAM: The Open Source CFD Toolbox           |
|  \\    /   O peration     | Version:  2412                                  |
|   \\  /    A nd           | Website:  www.openfoam.com                      |
|    \\/     M anipulation  |                                                 |
\*---------------------------------------------------------------------------*/
FoamFile
{
    version     2.0;
    format      ascii;
    arch        "LSB;label=32;scalar=64";
    class       volVectorField;
    location    "15.5";
    object      U;
}
// * * * * * * * * * * * * * * * * * * * * * * * * * * * * * * * * * * * * * //

dimensions      [0 1 -1 0 0 0 0];

internalField   nonuniform List<vector> 
63420
(
(0.0999997 4.35375e-07 0)
(0.099995 1.29438e-06 0)
(0.0999852 2.11214e-06 0)
(0.0999712 2.93569e-06 0)
(0.0999529 3.97549e-06 0)
(0.0999283 5.53992e-06 0)
(0.0998943 7.82599e-06 0)
(0.0998473 1.07377e-05 0)
(0.0997853 1.38804e-05 0)
(0.0997091 1.67281e-05 0)
(0.099622 1.88428e-05 0)
(0.0995287 2.0021e-05 0)
(0.0994339 2.0316e-05 0)
(0.0993414 1.99637e-05 0)
(0.0992533 1.92706e-05 0)
(0.0991704 1.85188e-05 0)
(0.0990921 1.7912e-05 0)
(0.0990173 1.75628e-05 0)
(0.0989449 1.75068e-05 0)
(0.0988735 1.77282e-05 0)
(0.098802 1.81853e-05 0)
(0.0987298 1.88292e-05 0)
(0.0986562 1.96151e-05 0)
(0.0985809 2.0508e-05 0)
(0.0985036 2.14833e-05 0)
(0.0984242 2.25258e-05 0)
(0.0983426 2.36271e-05 0)
(0.0982587 2.47842e-05 0)
(0.0981723 2.59973e-05 0)
(0.0980836 2.72684e-05 0)
(0.0979923 2.86008e-05 0)
(0.0978985 2.9998e-05 0)
(0.097802 3.14641e-05 0)
(0.0977028 3.30029e-05 0)
(0.0976008 3.46184e-05 0)
(0.0974959 3.63144e-05 0)
(0.0973881 3.80948e-05 0)
(0.0972771 3.99635e-05 0)
(0.0971631 4.19244e-05 0)
(0.0970458 4.39815e-05 0)
(0.0969251 4.61387e-05 0)
(0.0968011 4.84004e-05 0)
(0.0966735 5.07709e-05 0)
(0.0965423 5.32545e-05 0)
(0.0964074 5.58561e-05 0)
(0.0962687 5.85804e-05 0)
(0.0961261 6.14327e-05 0)
(0.0959795 6.44182e-05 0)
(0.0958288 6.75427e-05 0)
(0.0956739 7.08124e-05 0)
(0.0955147 7.42342e-05 0)
(0.0953512 7.78169e-05 0)
(0.0951831 8.15744e-05 0)
(0.0950103 8.55358e-05 0)
(0.0948327 8.97742e-05 0)
(0.0999997 1.30598e-06 0)
(0.099995 3.88305e-06 0)
(0.0999852 6.33713e-06 0)
(0.0999712 8.80801e-06 0)
(0.0999529 1.1923e-05 0)
(0.0999284 1.66022e-05 0)
(0.0998945 2.34355e-05 0)
(0.0998477 3.21394e-05 0)
(0.099786 4.15392e-05 0)
(0.0997103 5.00664e-05 0)
(0.0996235 5.6413e-05 0)
(0.0995305 5.99684e-05 0)
(0.099436 6.08885e-05 0)
(0.0993436 5.98734e-05 0)
(0.0992555 5.78358e-05 0)
(0.0991725 5.56167e-05 0)
(0.0990941 5.38246e-05 0)
(0.0990192 5.27963e-05 0)
(0.0989466 5.26396e-05 0)
(0.0988751 5.33089e-05 0)
(0.0988036 5.46806e-05 0)
(0.0987313 5.66096e-05 0)
(0.0986576 5.89634e-05 0)
(0.0985823 6.16375e-05 0)
(0.0985051 6.45587e-05 0)
(0.0984257 6.76814e-05 0)
(0.0983441 7.0981e-05 0)
(0.0982602 7.44483e-05 0)
(0.098174 7.80837e-05 0)
(0.0980853 8.18932e-05 0)
(0.0979942 8.58864e-05 0)
(0.0979004 9.00742e-05 0)
(0.0978041 9.44682e-05 0)
(0.097705 9.90802e-05 0)
(0.0976032 0.000103922 0)
(0.0974985 0.000109005 0)
(0.0973908 0.00011434 0)
(0.09728 0.00011994 0)
(0.0971661 0.000125816 0)
(0.097049 0.000131979 0)
(0.0969286 0.000138443 0)
(0.0968048 0.000145219 0)
(0.0966774 0.00015232 0)
(0.0965465 0.000159761 0)
(0.0964119 0.000167554 0)
(0.0962735 0.000175714 0)
(0.0961312 0.000184257 0)
(0.0959849 0.000193198 0)
(0.0958346 0.000202556 0)
(0.0956801 0.000212347 0)
(0.0955213 0.000222593 0)
(0.0953582 0.00023332 0)
(0.0951905 0.000244568 0)
(0.0950183 0.000256424 0)
(0.0948412 0.000269099 0)
(0.0999997 2.1756e-06 0)
(0.099995 6.46897e-06 0)
(0.0999852 1.05591e-05 0)
(0.0999713 1.46753e-05 0)
(0.0999529 1.98531e-05 0)
(0.0999286 2.76158e-05 0)
(0.0998949 3.89449e-05 0)
(0.0998485 5.3381e-05 0)
(0.0997875 6.8988e-05 0)
(0.0997125 8.31719e-05 0)
(0.0996265 9.37625e-05 0)
(0.0995341 9.97389e-05 0)
(0.09944 0.000101347 0)
(0.0993479 9.97383e-05 0)
(0.0992599 9.64174e-05 0)
(0.0991767 9.27768e-05 0)
(0.0990981 8.98267e-05 0)
(0.0990229 8.81295e-05 0)
(0.0989501 8.78683e-05 0)
(0.0988783 8.89722e-05 0)
(0.0988066 9.12398e-05 0)
(0.0987341 9.44327e-05 0)
(0.0986604 9.83328e-05 0)
(0.0985851 0.000102768 0)
(0.0985078 0.000107616 0)
(0.0984285 0.000112801 0)
(0.0983471 0.000118284 0)
(0.0982633 0.000124047 0)
(0.0981772 0.000130092 0)
(0.0980888 0.000136427 0)
(0.0979978 0.000143069 0)
(0.0979043 0.000150035 0)
(0.0978082 0.000157345 0)
(0.0977095 0.000165017 0)
(0.0976079 0.000173072 0)
(0.0975035 0.000181527 0)
(0.0973961 0.000190403 0)
(0.0972858 0.000199718 0)
(0.0971723 0.000209492 0)
(0.0970556 0.000219743 0)
(0.0969356 0.000230493 0)
(0.0968122 0.000241762 0)
(0.0966853 0.000253571 0)
(0.0965549 0.000265943 0)
(0.0964209 0.0002789 0)
(0.096283 0.000292466 0)
(0.0961414 0.000306668 0)
(0.0959958 0.00032153 0)
(0.0958462 0.000337081 0)
(0.0956924 0.000353352 0)
(0.0955345 0.000370376 0)
(0.0953722 0.000388195 0)
(0.0952055 0.000406876 0)
(0.0950342 0.000426552 0)
(0.0948582 0.000447563 0)
(0.0999997 3.04361e-06 0)
(0.099995 9.05029e-06 0)
(0.0999853 1.47759e-05 0)
(0.0999713 2.05341e-05 0)
(0.099953 2.77549e-05 0)
(0.0999288 3.85501e-05 0)
(0.0998955 5.4292e-05 0)
(0.0998497 7.43633e-05 0)
(0.0997896 9.60964e-05 0)
(0.0997157 0.0001159 0)
(0.0996308 0.000130754 0)
(0.0995393 0.000139221 0)
(0.0994459 0.000141621 0)
(0.0993541 0.000139528 0)
(0.0992662 0.000135023 0)
(0.0991828 0.000130035 0)
(0.0991039 0.000125971 0)
(0.0990284 0.000123622 0)
(0.0989551 0.00012325 0)
(0.098883 0.000124768 0)
(0.098811 0.0001279 0)
(0.0987384 0.000132323 0)
(0.0986646 0.000137734 0)
(0.0985892 0.000143896 0)
(0.098512 0.00015064 0)
(0.0984328 0.000157861 0)
(0.0983515 0.0001655 0)
(0.0982679 0.000173536 0)
(0.0981821 0.000181968 0)
(0.0980939 0.000190809 0)
(0.0980033 0.000200079 0)
(0.0979102 0.000209804 0)
(0.0978144 0.000220009 0)
(0.0977161 0.000230721 0)
(0.097615 0.000241966 0)
(0.097511 0.000253772 0)
(0.0974042 0.000266163 0)
(0.0972943 0.000279167 0)
(0.0971814 0.00029281 0)
(0.0970653 0.000307119 0)
(0.096946 0.000322122 0)
(0.0968233 0.000337848 0)
(0.0966971 0.000354327 0)
(0.0965675 0.000371588 0)
(0.0964343 0.000389663 0)
(0.0962973 0.000408587 0)
(0.0961566 0.000428393 0)
(0.096012 0.000449117 0)
(0.0958635 0.000470799 0)
(0.0957108 0.000493479 0)
(0.0955541 0.000517204 0)
(0.0953931 0.00054203 0)
(0.0952277 0.000568044 0)
(0.0950579 0.00059542 0)
(0.0948835 0.000624592 0)
(0.0999997 3.90944e-06 0)
(0.0999951 1.16251e-05 0)
(0.0999853 1.89854e-05 0)
(0.0999714 2.63809e-05 0)
(0.0999532 3.5618e-05 0)
(0.0999291 4.93777e-05 0)
(0.0998962 6.94213e-05 0)
(0.0998513 9.49975e-05 0)
(0.0997923 0.000122748 0)
(0.0997197 0.00014812 0)
(0.0996362 0.000167262 0)
(0.099546 0.000178313 0)
(0.0994534 0.00018164 0)
(0.0993621 0.000179213 0)
(0.0992742 0.000173656 0)
(0.0991907 0.00016742 0)
(0.0991113 0.000162302 0)
(0.0990353 0.000159323 0)
(0.0989616 0.000158834 0)
(0.0988891 0.000160735 0)
(0.0988168 0.000164692 0)
(0.0987439 0.000170298 0)
(0.09867 0.000177173 0)
(0.0985946 0.000185016 0)
(0.0985175 0.000193615 0)
(0.0984384 0.000202832 0)
(0.0983573 0.000212594 0)
(0.098274 0.000222871 0)
(0.0981885 0.00023366 0)
(0.0981007 0.000244978 0)
(0.0980105 0.000256849 0)
(0.0979179 0.000269305 0)
(0.0978227 0.000282377 0)
(0.0977248 0.000296099 0)
(0.0976243 0.000310505 0)
(0.097521 0.000325627 0)
(0.0974148 0.0003415 0)
(0.0973057 0.000358156 0)
(0.0971935 0.000375629 0)
(0.0970782 0.000393953 0)
(0.0969597 0.000413164 0)
(0.096838 0.000433298 0)
(0.0967128 0.000454391 0)
(0.0965842 0.000476484 0)
(0.0964521 0.000499615 0)
(0.0963163 0.000523827 0)
(0.0961768 0.000549163 0)
(0.0960335 0.000575669 0)
(0.0958864 0.000603393 0)
(0.0957352 0.000632387 0)
(0.09558 0.000662706 0)
(0.0954207 0.00069442 0)
(0.0952572 0.000727631 0)
(0.0950893 0.000762537 0)
(0.094917 0.000799627 0)
(0.0999997 4.77265e-06 0)
(0.0999951 1.41917e-05 0)
(0.0999854 2.31854e-05 0)
(0.0999715 3.22123e-05 0)
(0.0999533 4.34334e-05 0)
(0.0999294 6.00753e-05 0)
(0.0998971 8.42861e-05 0)
(0.0998531 0.000115209 0)
(0.0997955 0.000148844 0)
(0.0997245 0.000179721 0)
(0.0996426 0.00020318 0)
(0.0995538 0.000216927 0)
(0.0994623 0.000221345 0)
(0.0993715 0.000218761 0)
(0.0992838 0.000212313 0)
(0.0992 0.000204949 0)
(0.0991202 0.000198851 0)
(0.0990437 0.00019527 0)
(0.0989695 0.000194653 0)
(0.0988964 0.000196905 0)
(0.0988237 0.000201637 0)
(0.0987507 0.000208368 0)
(0.0986766 0.000216649 0)
(0.0986012 0.000226118 0)
(0.0985242 0.000236519 0)
(0.0984453 0.000247686 0)
(0.0983645 0.000259528 0)
(0.0982816 0.000272005 0)
(0.0981965 0.000285115 0)
(0.0981092 0.000298873 0)
(0.0980195 0.00031331 0)
(0.0979274 0.000328461 0)
(0.0978328 0.000344365 0)
(0.0977357 0.00036106 0)
(0.0976359 0.000378588 0)
(0.0975333 0.000396986 0)
(0.097428 0.000416296 0)
(0.0973197 0.000436557 0)
(0.0972085 0.00045781 0)
(0.0970942 0.000480095 0)
(0.0969768 0.000503455 0)
(0.0968562 0.000527934 0)
(0.0967322 0.000553575 0)
(0.0966049 0.000580425 0)
(0.0964741 0.000608532 0)
(0.0963398 0.000637945 0)
(0.0962018 0.000668718 0)
(0.0960602 0.000700903 0)
(0.0959148 0.000734557 0)
(0.0957655 0.000769742 0)
(0.0956123 0.000806521 0)
(0.095455 0.000844974 0)
(0.0952937 0.000885209 0)
(0.0951283 0.00092743 0)
(0.0949585 0.00097213 0)
(0.0999997 5.63252e-06 0)
(0.0999951 1.67487e-05 0)
(0.0999854 2.73733e-05 0)
(0.0999716 3.80248e-05 0)
(0.0999535 5.11931e-05 0)
(0.0999299 7.06242e-05 0)
(0.0998981 9.88496e-05 0)
(0.0998552 0.00013494 0)
(0.0997991 0.000174307 0)
(0.0997299 0.000210617 0)
(0.0996498 0.000238421 0)
(0.0995626 0.000254988 0)
(0.0994722 0.000260681 0)
(0.0993821 0.000258143 0)
(0.0992945 0.000250985 0)
(0.0992106 0.000242631 0)
(0.0991303 0.000235636 0)
(0.0990532 0.000231483 0)
(0.0989784 0.000230731 0)
(0.0989049 0.000233294 0)
(0.0988318 0.000238743 0)
(0.0987585 0.000246535 0)
(0.0986843 0.000256155 0)
(0.098609 0.000267186 0)
(0.0985321 0.000279329 0)
(0.0984535 0.00029239 0)
(0.098373 0.00030626 0)
(0.0982905 0.000320891 0)
(0.0982059 0.000336277 0)
(0.0981192 0.000352433 0)
(0.0980301 0.000369394 0)
(0.0979387 0.000387198 0)
(0.0978449 0.00040589 0)
(0.0977486 0.000425514 0)
(0.0976496 0.000446117 0)
(0.097548 0.000467742 0)
(0.0974437 0.000490437 0)
(0.0973365 0.000514247 0)
(0.0972264 0.000539218 0)
(0.0971133 0.000565399 0)
(0.0969972 0.000592838 0)
(0.0968779 0.000621584 0)
(0.0967554 0.00065169 0)
(0.0966296 0.000683209 0)
(0.0965004 0.000716195 0)
(0.0963678 0.000750706 0)
(0.0962316 0.000786801 0)
(0.0960919 0.000824543 0)
(0.0959485 0.000863995 0)
(0.0958014 0.000905225 0)
(0.0956505 0.000948305 0)
(0.0954958 0.00099332 0)
(0.0953371 0.00104038 0)
(0.0951744 0.00108965 0)
(0.0950078 0.00114155 0)
(0.0946493 9.45015e-05 -4.56951e-24)
(0.094458 9.94973e-05 -4.6573e-24)
(0.0942572 0.000104822 -3.18096e-26)
(0.094046 0.000110548 1.43061e-23)
(0.0938239 0.000116676 -4.73907e-24)
(0.0935901 0.000123237 -4.87617e-24)
(0.0933437 0.000130272 -1.50115e-23)
(0.0930839 0.000137824 1.49061e-23)
(0.0928096 0.000145942 5.09958e-24)
(0.0925199 0.000154677 0)
(0.0922135 0.000164087 5.26748e-24)
(0.0918891 0.000174235 -5.35787e-24)
(0.0915455 0.00018519 4.40698e-23)
(0.091181 0.000197029 -9.44469e-23)
(0.0907941 0.000209837 5.04813e-23)
(0.0903828 0.000223712 4.09041e-23)
(0.0899453 0.000238766 5.24883e-23)
(0.0894792 0.000255127 -6.01056e-24)
(0.0889822 0.000272947 6.14145e-24)
(0.0884514 0.000292399 -6.27994e-24)
(0.0878838 0.00031369 0)
(0.0872759 0.000337063 6.58216e-24)
(0.0866238 0.000362808 -6.74725e-24)
(0.0859229 0.000391267 0)
(0.0851682 0.000422847 -7.10934e-24)
(0.0843535 0.000458031 0)
(0.0834721 0.00049739 -7.52022e-24)
(0.082516 0.000541604 -1.26037e-22)
(0.0814758 0.000591482 1.33833e-22)
(0.0803406 0.000647997 -1.34371e-22)
(0.0790979 0.000712313 1.34166e-22)
(0.0777326 0.000785845 0)
(0.0762268 0.000870311 0)
(0.0745597 0.000967814 1.6457e-22)
(0.0727061 0.00108092 -1.54845e-22)
(0.0706358 0.00121276 0)
(0.0683128 0.00136709 0)
(0.0656937 0.0015483 0)
(0.0627271 0.00176129 0)
(0.0593527 0.002011 0)
(0.0555017 0.00230151 0)
(0.0510996 0.00263422 0)
(0.046073 0.00300475 0)
(0.0403627 0.00339804 0)
(0.033949 0.00378089 -1.52819e-23)
(0.0268917 0.00409145 -5.24848e-22)
(0.0193754 0.00422623 5.24061e-22)
(0.0117847 0.00402665 5.69656e-22)
(0.00505153 0.00324891 -5.68802e-22)
(0.00103126 0.00151294 0)
(0.0946582 0.00028323 -4.62214e-24)
(0.0944671 0.000298199 -9.42537e-24)
(0.0942665 0.000314191 -4.93849e-24)
(0.0940557 0.000331316 4.60331e-24)
(0.0938339 0.000349644 -4.80432e-24)
(0.0936004 0.000369275 3.44228e-23)
(0.0933544 0.000390329 -5.40607e-23)
(0.0930951 0.000412936 5.02037e-24)
(0.0928213 0.000437237 6.69977e-23)
(0.0925322 0.00046339 -9.25326e-23)
(0.0922264 0.000491565 -9.03478e-23)
(0.0919028 0.000521952 7.96114e-23)
(0.09156 0.000554757 0)
(0.0911965 0.000590212 5.55848e-24)
(0.0908106 0.000628575 -1.69864e-23)
(0.0904004 0.000670136 -1.92624e-22)
(0.0899642 0.00071523 1.84862e-22)
(0.0894995 0.000764249 -1.96513e-22)
(0.0890041 0.000817641 -1.84511e-23)
(0.0884751 0.000875932 6.29372e-24)
(0.0879095 0.000939738 0)
(0.0873039 0.00100979 -6.59921e-24)
(0.0866543 0.00108696 -2.12665e-22)
(0.0859563 0.00117227 4.44422e-22)
(0.0852048 0.00126695 2.45176e-22)
(0.084394 0.00137243 -4.62408e-22)
(0.083517 0.00149043 4.98015e-22)
(0.082566 0.00162298 -5.05345e-22)
(0.0815319 0.0017725 -8.02047e-24)
(0.0804042 0.00194191 0)
(0.0791703 0.00213467 0)
(0.0778158 0.00235501 0)
(0.0763233 0.00260804 0)
(0.0746727 0.00290004 -9.53674e-24)
(0.0728397 0.00323863 -6.46995e-22)
(0.0707954 0.00363308 -2.75678e-23)
(0.0685054 0.00409453 6.7281e-22)
(0.0659285 0.00463594 7.33289e-22)
(0.063016 0.00527169 -7.32317e-22)
(0.0597106 0.00601626 -2.43391e-23)
(0.0559472 0.00688137 -2.54369e-23)
(0.0516548 0.0078706 -8.77779e-22)
(0.0467622 0.00897016 8.4886e-22)
(0.0412094 0.0101343 -2.89444e-23)
(0.0349687 0.0112635 1.53887e-23)
(0.02808 0.0121731 -1.06715e-21)
(0.0206903 0.0125548 1.06677e-21)
(0.0131201 0.0119375 -2.22686e-21)
(0.00617432 0.00960673 2.18963e-21)
(0.00148792 0.0044415 -2.24375e-21)
(0.0946759 0.000470977 -2.73454e-23)
(0.0944853 0.000495858 -9.59075e-24)
(0.0942852 0.000522444 3.70068e-23)
(0.0940749 0.000550859 -7.61084e-23)
(0.0938538 0.000581268 1.62847e-22)
(0.0936211 0.000613851 -7.714e-23)
(0.0933759 0.0006488 1.42038e-26)
(0.0931175 0.000686332 1.00132e-23)
(0.0928448 0.000726683 1.74571e-22)
(0.0925568 0.000770112 -1.64211e-22)
(0.0922525 0.000816906 0)
(0.0919304 0.000867378 1.46273e-26)
(0.0915893 0.000921875 0)
(0.0912276 0.000980782 1.90927e-22)
(0.0908438 0.00104453 -1.68295e-22)
(0.0904361 0.0011136 -3.6277e-22)
(0.0900024 0.00118855 2.01271e-23)
(0.0895407 0.00127004 -3.81941e-22)
(0.0890485 0.00135882 1.23462e-23)
(0.0885232 0.00145576 -4.09034e-22)
(0.0879617 0.00156189 4.21564e-22)
(0.0873606 0.00167844 -4.29558e-22)
(0.0867163 0.00180684 4.42727e-22)
(0.0860242 0.00194881 1.39341e-23)
(0.0852795 0.00210637 -1.43161e-23)
(0.0844765 0.00228194 1.47224e-23)
(0.0836086 0.00247834 -4.93187e-22)
(0.0826683 0.00269895 5.0837e-22)
(0.0816468 0.0029478 5.41018e-22)
(0.0805341 0.00322967 -5.24413e-22)
(0.0793184 0.00355033 0)
(0.0779859 0.00391672 0)
(0.0765205 0.00433728 1.84383e-23)
(0.0749034 0.00482227 1.27101e-21)
(0.0731122 0.00538418 3.0877e-23)
(0.0711206 0.00603813 -1.27956e-21)
(0.0688974 0.00680215 0)
(0.0664057 0.00769714 -2.23799e-23)
(0.063602 0.0087461 1.55966e-21)
(0.0604356 0.00997179 -3.11444e-21)
(0.0568485 0.011392 3.30339e-21)
(0.0527766 0.0130107 1.00569e-22)
(0.0481531 0.0148026 -1.71777e-21)
(0.042916 0.0166899 -1.86156e-21)
(0.0370218 0.0185065 1.9185e-21)
(0.0304691 0.0199489 1.48807e-24)
(0.0233288 0.0205112 -3.2651e-23)
(0.0157941 0.01942 2.15071e-21)
(0.00840256 0.0155375 -2.08261e-21)
(0.00236565 0.00711699 -2.08306e-21)
(0.0947025 0.000657073 1.80185e-23)
(0.0945125 0.000691715 -9.1426e-24)
(0.0943132 0.000728699 1.95079e-26)
(0.0941038 0.00076823 9.40536e-24)
(0.0938836 0.000810536 -1.96186e-26)
(0.093652 0.000855866 1.56212e-22)
(0.0934082 0.000904493 -2.95171e-22)
(0.0931513 0.000956719 1.58629e-22)
(0.0928803 0.00101287 -1.01542e-23)
(0.0925942 0.00107332 1.87654e-22)
(0.0922919 0.00113846 -1.66916e-22)
(0.0919722 0.00120873 -3.46347e-22)
(0.0916337 0.00128462 6.99302e-22)
(0.091275 0.00136666 -7.13036e-22)
(0.0908945 0.00145546 7.27442e-22)
(0.0904904 0.0015517 -7.31044e-22)
(0.0900609 0.00165615 -3.87007e-22)
(0.0896037 0.00176974 2.26492e-26)
(0.0891166 0.00189351 0)
(0.088597 0.00202869 -3.98326e-22)
(0.0880419 0.00217673 4.10831e-22)
(0.0874481 0.00233933 0)
(0.0868119 0.00251851 -8.87214e-22)
(0.0861292 0.00271665 8.72818e-22)
(0.0853951 0.0029366 1.44523e-23)
(0.0846044 0.00318169 -3.71238e-26)
(0.0837507 0.00345588 1.52762e-23)
(0.0828272 0.00376385 0)
(0.0818255 0.00411119 -5.29836e-26)
(0.0807364 0.00450452 0)
(0.0795489 0.00495179 -1.73493e-23)
(0.0782507 0.00546259 1.17343e-21)
(0.0768273 0.00604849 -1.17312e-21)
(0.0752619 0.00672351 -1.94111e-23)
(0.0735351 0.00750466 4.01915e-23)
(0.0716242 0.00841237 -1.38618e-21)
(0.0695031 0.00947086 1.34309e-21)
(0.0671411 0.010708 2.27669e-23)
(0.0645028 0.0121538 -3.59057e-25)
(0.0615469 0.0138374 2.43096e-23)
(0.0582263 0.0157804 -1.67051e-21)
(0.054487 0.0179838 3.37789e-21)
(0.050269 0.0204082 -1.76131e-21)
(0.045507 0.0229415 1.82339e-21)
(0.040134 0.0253527 -1.90887e-21)
(0.0340864 0.0272271 -3.79513e-21)
(0.0273148 0.027879 7.74257e-21)
(0.0198221 0.0262506 -3.91969e-21)
(0.011783 0.0208196 0)
(0.00366991 0.00942477 -3.68358e-21)
(0.0947377 0.000840855 -8.93695e-24)
(0.0945486 0.000885035 -3.65028e-23)
(0.0943503 0.000932188 1.10652e-22)
(0.0941421 0.000982586 -1.49401e-22)
(0.0939234 0.00103652 6.57988e-23)
(0.0936934 0.00109432 9.64779e-24)
(0.0934515 0.00115633 -9.80838e-24)
(0.0931966 0.00122293 -2.46647e-26)
(0.092928 0.00129456 1.01522e-23)
(0.0926446 0.00137167 -2.06483e-23)
(0.0923453 0.00145479 -3.39745e-22)
(0.0920289 0.00154446 3.5063e-22)
(0.0916941 0.00164132 -3.42436e-22)
(0.0913396 0.00174604 3.53491e-22)
(0.0909637 0.00185942 0)
(0.0905647 0.0019823 -2.49789e-26)
(0.0901409 0.00211572 0)
(0.0896902 0.00226083 -3.8188e-22)
(0.0892103 0.00241899 4.06694e-22)
(0.0886988 0.00259177 -1.27811e-23)
(0.0881527 0.00278103 -8.61602e-22)
(0.0875691 0.00298895 8.48883e-22)
(0.0869445 0.00321811 -1.3809e-23)
(0.0862749 0.00347158 0)
(0.085556 0.00375296 0)
(0.0847826 0.00406652 -9.90302e-22)
(0.0839492 0.00441729 9.60217e-22)
(0.0830493 0.00481122 0)
(0.0820756 0.00525537 -3.29579e-23)
(0.0810196 0.00575813 0)
(0.079872 0.00632951 1.76538e-23)
(0.0786218 0.00698152 -1.81989e-23)
(0.0772569 0.00772861 -1.89587e-23)
(0.0757634 0.00858819 1.95477e-23)
(0.0741255 0.00958122 1.28699e-21)
(0.0723258 0.0107327 -1.3283e-21)
(0.0703445 0.012072 2.89003e-21)
(0.0681593 0.0136322 -2.89191e-21)
(0.0657455 0.0154488 3.07274e-21)
(0.0630745 0.0175546 9.00675e-23)
(0.0601132 0.0199716 -3.23974e-21)
(0.0568215 0.0226951 -2.58981e-23)
(0.0531483 0.0256687 1.28048e-24)
(0.0490255 0.0287458 1.69923e-24)
(0.044357 0.031635 2.24776e-24)
(0.0390007 0.0338259 -5.6128e-23)
(0.0327469 0.0344855 -2.57433e-23)
(0.0253311 0.0323128 -2.44561e-23)
(0.0164549 0.0254169 0)
(0.00542517 0.0113573 7.67755e-24)
(0.0947812 0.00102171 -4.43487e-23)
(0.0945933 0.00107521 2.66774e-23)
(0.0943964 0.00113233 9.12634e-24)
(0.09419 0.00119339 1.40078e-22)
(0.0939732 0.00125876 -1.40132e-22)
(0.0937455 0.00132883 1.44951e-22)
(0.0935061 0.00140403 -3.21746e-22)
(0.0932541 0.00148483 4.58028e-22)
(0.0929887 0.00157175 -3.20821e-22)
(0.0927088 0.00166536 -3.32767e-22)
(0.0924135 0.00176628 -1.66845e-23)
(0.0921015 0.00187519 6.75701e-22)
(0.0917717 0.00199285 -7.11711e-22)
(0.0914226 0.00212012 3.31948e-22)
(0.0910529 0.00225792 3.58212e-22)
(0.0906608 0.00240734 3.74455e-22)
(0.0902446 0.00256961 -2.88254e-23)
(0.0898025 0.00274617 7.63178e-22)
(0.0893322 0.00293869 7.88116e-22)
(0.0888314 0.00314908 1.99161e-23)
(0.0882975 0.00337962 -8.3554e-22)
(0.0877276 0.00363298 0)
(0.0871185 0.00391234 0)
(0.0864666 0.00422142 -9.31595e-22)
(0.085768 0.00456462 9.18215e-22)
(0.0850181 0.00494713 9.89343e-22)
(0.0842119 0.00537505 -9.90809e-22)
(0.0833438 0.00585558 0)
(0.0824075 0.00639724 1.1067e-21)
(0.0813959 0.00701009 -1.10883e-21)
(0.0803012 0.00770611 0)
(0.0791147 0.00849956 -2.40153e-21)
(0.077827 0.00940746 2.42378e-21)
(0.0764278 0.0104501 -2.00409e-23)
(0.0749062 0.0116517 -2.68248e-21)
(0.0732507 0.0130406 2.70736e-21)
(0.0714496 0.0146493 0)
(0.0694913 0.0165137 3.04335e-21)
(0.0673638 0.0186703 -3.02459e-21)
(0.0650546 0.0211505 2.45299e-23)
(0.0625485 0.0239695 3.3432e-21)
(0.0598232 0.0271086 -6.7091e-21)
(0.0568407 0.0304859 1.79502e-23)
(0.053533 0.0339145 3.63623e-23)
(0.0497764 0.0370447 3.48356e-21)
(0.0453474 0.0392909 3.89253e-24)
(0.0398585 0.0397235 -2.98711e-21)
(0.0327032 0.0368985 3.06223e-21)
(0.0228714 0.0287196 0)
(0.00788658 0.0126185 2.70587e-23)
(0.094833 0.00119884 8.73479e-24)
(0.0946468 0.00126114 8.04607e-23)
(0.094452 0.00132774 -7.17537e-23)
(0.0942479 0.001399 9.20981e-24)
(0.0940338 0.00147534 1.41555e-22)
(0.0938092 0.00155723 -1.41781e-22)
(0.0935731 0.00164518 -3.03703e-22)
(0.0933249 0.00173973 4.56655e-24)
(0.0930637 0.0018415 -5.62211e-24)
(0.0927885 0.00195116 3.37249e-22)
(0.0924983 0.00206945 -3.29374e-22)
(0.0921922 0.00219718 6.98906e-22)
(0.0918688 0.00233525 -3.48241e-22)
(0.0915269 0.00248468 1.12555e-23)
(0.0911652 0.00264658 1.15177e-23)
(0.0907821 0.00282224 7.61831e-22)
(0.090376 0.00301314 -4.96072e-24)
(0.089945 0.00322101 7.95225e-22)
(0.0894873 0.00344784 1.27101e-23)
(0.0890007 0.00369593 0)
(0.0884828 0.00396801 0)
(0.087931 0.00426729 -8.92508e-22)
(0.0873425 0.00459755 8.94763e-22)
(0.0867142 0.00496325 0)
(0.0860425 0.00536965 1.50562e-23)
(0.0853238 0.00582291 0)
(0.0845538 0.0063303 -1.04006e-21)
(0.0837279 0.00690034 2.11766e-21)
(0.0828412 0.00754309 -1.07768e-21)
(0.0818881 0.00827042 -2.28474e-21)
(0.0808631 0.00909632 -7.72002e-23)
(0.07976 0.0100374 -8.15487e-23)
(0.0785726 0.0111132 -8.582e-23)
(0.0772949 0.0123468 2.57068e-21)
(0.0759215 0.0137652 2.76007e-21)
(0.0744478 0.015399 -2.76664e-21)
(0.072871 0.0172824 0)
(0.0711907 0.0194506 3.06563e-21)
(0.0694091 0.0219359 -3.07276e-21)
(0.0675305 0.0247592 -3.26629e-21)
(0.065559 0.0279163 3.2483e-21)
(0.0634925 0.0313556 2.65744e-23)
(0.0613101 0.0349464 3.269e-21)
(0.0589506 0.0384352 -1.06641e-22)
(0.0562767 0.0413928 -3.22971e-21)
(0.0530098 0.0431597 2.46417e-23)
(0.0486364 0.0427796 0)
(0.0422926 0.0388681 -1.95524e-23)
(0.0320984 0.0295386 -9.04443e-22)
(0.0127152 0.0125586 4.38371e-22)
(-0.000247612 0.000322138 0)
(-0.0010207 0.000569008 3.13696e-22)
(-0.00207594 0.000569903 -3.14167e-22)
(-0.00300307 0.000434979 -3.08295e-22)
(-0.00359986 0.000226666 3.08759e-22)
(-0.0037798 -1.61736e-05 -9.33105e-24)
(-0.00351236 -0.000272183 0)
(-0.00279708 -0.000523578 0)
(-0.00164477 -0.000762288 0)
(-8.08829e-05 -0.00098154 0)
(0.00185792 -0.00117716 0)
(0.00413043 -0.00134872 0)
(0.00669502 -0.00149541 0)
(0.00950854 -0.00161722 0)
(0.012528 -0.00171481 0)
(0.0157116 -0.00178927 6.32749e-23)
(0.0190196 -0.00184197 -5.96408e-23)
(0.0224142 -0.00187451 0)
(0.0258607 -0.00188863 0)
(0.0293272 -0.00188615 -3.35185e-23)
(0.0327848 -0.00186893 3.35698e-23)
(0.0362078 -0.00183882 -2.05811e-23)
(0.0395738 -0.00179765 1.25207e-24)
(0.0428633 -0.00174713 0)
(0.04606 -0.00168893 7.24725e-25)
(0.0491504 -0.00162461 0)
(0.0521237 -0.00155562 0)
(0.0549718 -0.00148328 0)
(0.0576886 -0.00140877 5.47986e-26)
(0.0602705 -0.00133317 0)
(0.0627154 -0.00125741 1.30018e-25)
(0.0650233 -0.00118231 -1.94394e-25)
(0.0671953 -0.00110857 2.43416e-25)
(0.0692338 -0.00103678 -2.67581e-24)
(0.0711425 -0.000967413 2.70444e-24)
(0.0729256 -0.000900851 2.32241e-24)
(0.0745883 -0.000837382 -4.99689e-24)
(0.0761361 -0.000777208 2.68278e-24)
(0.0775749 -0.00072046 3.27728e-25)
(0.0789109 -0.000667199 -3.2123e-25)
(0.0801504 -0.000617432 0)
(0.0812997 -0.000571115 -3.00286e-25)
(0.082365 -0.000528163 1.41873e-24)
(0.0833523 -0.000488458 -1.40639e-24)
(0.0842674 -0.000451859 2.58366e-25)
(0.0851161 -0.000418202 -7.18847e-25)
(0.0859034 -0.000387313 2.47969e-25)
(0.0866345 -0.000359008 4.21005e-25)
(0.0873139 -0.000333096 -2.07955e-25)
(0.087946 -0.00030939 1.84621e-25)
(-0.000312592 0.000926191 -1.19974e-21)
(-0.00111401 0.00162358 -1.30627e-21)
(-0.00203679 0.00162076 1.28748e-21)
(-0.00277195 0.00122518 -6.08349e-22)
(-0.00316609 0.000615138 6.09618e-22)
(-0.00315762 -9.63163e-05 9.39576e-24)
(-0.00272483 -0.000847295 -1.83748e-23)
(-0.00187067 -0.00158453 -5.58506e-22)
(-0.000609055 -0.00228747 5.41669e-22)
(0.00103846 -0.0029299 -1.56071e-23)
(0.00303514 -0.00350726 -1.45229e-23)
(0.00534159 -0.00401449 4.04379e-22)
(0.00792058 -0.00444861 -4.04917e-22)
(0.0107318 -0.00480964 -3.30422e-22)
(0.0137349 -0.00509939 3.66236e-23)
(0.0168905 -0.0053209 2.9463e-22)
(0.0201612 -0.00547814 -3.74871e-24)
(0.0235112 -0.00557572 -6.69697e-24)
(0.0269077 -0.00561869 0)
(0.0303203 -0.00561239 0)
(0.0337214 -0.00556228 0)
(0.0370866 -0.00547381 -1.57739e-24)
(0.0403944 -0.00535231 6.89506e-23)
(0.0436261 -0.00520291 -7.50523e-23)
(0.0467662 -0.00503054 4.02647e-23)
(0.0498015 -0.00483984 -2.69057e-23)
(0.0527219 -0.00463513 -2.29167e-23)
(0.0555195 -0.00442033 8.76836e-24)
(0.0581884 -0.004199 -5.49397e-26)
(0.0607253 -0.0039743 1.91099e-26)
(0.0631281 -0.00374906 -1.30301e-25)
(0.0653968 -0.0035257 5.22173e-25)
(0.0675325 -0.00330633 -7.90085e-24)
(0.0695377 -0.00309269 1.74707e-23)
(0.0714159 -0.00288621 -8.84361e-24)
(0.0731712 -0.00268803 9.21054e-25)
(0.0748086 -0.00249902 -3.28605e-25)
(0.0763335 -0.00231978 0)
(0.0777517 -0.00215071 5.41645e-24)
(0.0790693 -0.001992 -4.80293e-24)
(0.0802923 -0.00184366 -4.23463e-24)
(0.0814268 -0.00170558 5.72201e-24)
(0.0824789 -0.00157751 -2.87136e-25)
(0.0834545 -0.0014591 -1.29983e-24)
(0.0843593 -0.00134993 2.34837e-24)
(0.0851988 -0.00124952 2.43134e-25)
(0.085978 -0.00115735 1.54625e-24)
(0.0867018 -0.00107287 1.42901e-25)
(0.0873749 -0.000995518 -4.37452e-25)
(0.0880013 -0.000924727 -5.64287e-25)
(-0.000427424 0.0014129 -1.2573e-21)
(-0.00126074 0.00243169 1.36899e-21)
(-0.00190628 0.00241439 -1.32808e-21)
(-0.00226575 0.00178489 -2.03928e-23)
(-0.00226964 0.00081748 -5.15159e-25)
(-0.00190142 -0.000309833 -1.20674e-21)
(-0.00115449 -0.00150857 1.24637e-21)
(-4.00333e-05 -0.00268318 1.13609e-21)
(0.00142791 -0.00380088 -4.74605e-23)
(0.00323052 -0.00483199 -2.02616e-21)
(0.00532885 -0.00576424 1.91604e-21)
(0.00769542 -0.00658497 -9.01027e-22)
(0.0102976 -0.00728945 -1.27724e-23)
(0.0131001 -0.00787729 0)
(0.0160681 -0.00835083 6.25011e-22)
(0.0191669 -0.00871444 -8.14588e-23)
(0.0223633 -0.00897409 -5.35355e-22)
(0.0256258 -0.00913691 1.38611e-23)
(0.0289246 -0.00921081 0)
(0.0322324 -0.00920423 0)
(0.0355243 -0.00912587 1.22263e-22)
(0.0387779 -0.00898451 -1.18774e-22)
(0.0419735 -0.00878873 -7.68196e-23)
(0.0450941 -0.00854691 8.16774e-23)
(0.0481253 -0.008267 1.79467e-24)
(0.0510551 -0.00795666 -1.33689e-24)
(0.0538739 -0.00762292 9.44622e-25)
(0.0565746 -0.00727223 -1.17573e-23)
(0.0591518 -0.00691046 1.23816e-23)
(0.0616023 -0.00654282 1.92424e-24)
(0.0639244 -0.00617397 -1.83901e-24)
(0.0661179 -0.00580794 -3.28686e-25)
(0.0681841 -0.00544819 -1.40747e-23)
(0.0701254 -0.00509763 2.97883e-23)
(0.0719448 -0.00475864 -1.68023e-23)
(0.0736467 -0.00443312 -9.98937e-24)
(0.0752355 -0.0041225 8.8326e-24)
(0.0767165 -0.00382783 0)
(0.0780951 -0.00354977 -4.70841e-26)
(0.079377 -0.00328865 0)
(0.0805681 -0.00304452 -9.24723e-24)
(0.0816742 -0.00281719 8.63841e-24)
(0.0827009 -0.00260627 -5.25287e-25)
(0.0836539 -0.0024112 -2.70609e-26)
(0.0845387 -0.00223131 -3.83999e-24)
(0.0853603 -0.00206579 6.96167e-24)
(0.0861237 -0.00191382 -3.61563e-24)
(0.0868336 -0.0017745 1.55599e-24)
(0.0874942 -0.00164689 -1.21299e-24)
(0.0881095 -0.00153004 -3.88579e-25)
(-0.000558231 0.00168147 -2.749e-21)
(-0.00136496 0.00285769 0)
(-0.00156452 0.00281277 2.80269e-21)
(-0.00138569 0.00198894 -5.57855e-21)
(-0.00084059 0.000735892 2.79638e-21)
(1.97623e-05 -0.000727877 1.24603e-21)
(0.00119224 -0.00227614 -1.30768e-21)
(0.00266788 -0.00381343 1.17232e-21)
(0.00440542 -0.00528434 -2.29703e-21)
(0.00640014 -0.00665466 1.1071e-21)
(0.00862818 -0.00789713 1.59209e-23)
(0.0110663 -0.00899623 5.33806e-25)
(0.013689 -0.00994477 1.29917e-23)
(0.016469 -0.0107406 -7.41959e-22)
(0.0193788 -0.0113854 7.19359e-22)
(0.0223905 -0.011884 1.9295e-23)
(0.0254769 -0.0122434 -8.27233e-24)
(0.0286117 -0.0124724 4.4167e-22)
(0.0317698 -0.0125811 -4.41378e-22)
(0.0349278 -0.0125803 -5.67619e-24)
(0.0380644 -0.0124816 0)
(0.0411601 -0.0122963 3.54743e-25)
(0.0441975 -0.0120362 0)
(0.0471618 -0.0117124 2.65012e-24)
(0.0500401 -0.0113358 2.77503e-25)
(0.0528218 -0.0109166 1.34953e-24)
(0.0554984 -0.0104646 -5.73042e-23)
(0.0580634 -0.0099885 5.65809e-23)
(0.0605122 -0.00949647 0)
(0.0628418 -0.00899569 -2.51166e-24)
(0.0650508 -0.00849257 2.75844e-24)
(0.0671391 -0.00799271 0)
(0.0691078 -0.00750093 -1.24846e-25)
(0.0709593 -0.00702126 1.378e-23)
(0.0726965 -0.00655706 -2.89588e-23)
(0.0743232 -0.00611096 3.1692e-23)
(0.0758437 -0.00568501 -3.36489e-23)
(0.0772628 -0.00528068 3.48743e-23)
(0.0785855 -0.00489891 -1.76908e-23)
(0.0798173 -0.00454021 -8.73499e-24)
(0.0809633 -0.00420468 7.6627e-24)
(0.082029 -0.0038921 4.99883e-25)
(0.0830198 -0.00360196 7.97735e-24)
(0.0839408 -0.00333351 -1.64749e-23)
(0.084797 -0.00308583 7.54024e-24)
(0.0855933 -0.00285787 2.96878e-26)
(0.0863342 -0.00264848 -4.22326e-25)
(0.0870241 -0.00245645 -2.393e-26)
(0.0876669 -0.00228048 3.68809e-25)
(0.0882664 -0.00211921 -6.66212e-25)
(-0.00059468 0.00165281 -1.98315e-24)
(-0.00120324 0.00282283 -2.58709e-23)
(-0.000811266 0.00272505 -2.48878e-23)
(3.47553e-05 0.00177337 -2.39602e-23)
(0.00123523 0.000354724 -4.53002e-23)
(0.00268626 -0.0013474 -7.22585e-25)
(0.0043408 -0.00314701 2.05818e-23)
(0.00619673 -0.00495845 -2.02812e-23)
(0.00823015 -0.0067056 -1.92255e-23)