/*--------------------------------*- C++ -*----------------------------------*\
| =========                 |                                                 |
| \\      /  F ield         | OpenFOAM: The Open Source CFD Toolbox           |
|  \\    /   O peration     | Version:  2412                                  |
|   \\  /    A nd           | Website:  www.openfoam.com                      |
|    \\/     M anipulation  |                                                 |
\*---------------------------------------------------------------------------*/
FoamFile
{
    version     2.0;
    format      ascii;
    arch        "LSB;label=32;scalar=64";
    class       volVectorField;
    location    "15.5";
    object      vorticity;
}
// * * * * * * * * * * * * * * * * * * * * * * * * * * * * * * * * * * * * * //

dimensions      [0 0 -1 0 0 0 0];

internalField   nonuniform List<vector> 
63420
(
(0 0 5.88219e-06)
(0 0 5.74817e-06)
(0 0 5.67858e-06)
(0 0 6.54746e-06)
(0 0 9.27632e-06)
(0 0 1.3646e-05)
(0 0 1.78463e-05)
(0 0 1.93414e-05)
(0 0 1.63624e-05)
(0 0 8.89822e-06)
(0 0 -1.37822e-06)
(0 0 -1.1993e-05)
(0 0 -2.07114e-05)
(0 0 -2.62121e-05)
(0 0 -2.82319e-05)
(0 0 -2.73154e-05)
(0 0 -2.44105e-05)
(0 0 -2.0505e-05)
(0 0 -1.64008e-05)
(0 0 -1.26276e-05)
(0 0 -9.45749e-06)
(0 0 -6.96807e-06)
(0 0 -5.11612e-06)
(0 0 -3.79938e-06)
(0 0 -2.8993e-06)
(0 0 -2.30554e-06)
(0 0 -1.92688e-06)
(0 0 -1.69359e-06)
(0 0 -1.55537e-06)
(0 0 -1.47748e-06)
(0 0 -1.43681e-06)
(0 0 -1.41844e-06)
(0 0 -1.41297e-06)
(0 0 -1.41462e-06)
(0 0 -1.41985e-06)
(0 0 -1.42656e-06)
(0 0 -1.4335e-06)
(0 0 -1.43993e-06)
(0 0 -1.44539e-06)
(0 0 -1.44962e-06)
(0 0 -1.45244e-06)
(0 0 -1.45372e-06)
(0 0 -1.45336e-06)
(0 0 -1.45128e-06)
(0 0 -1.4474e-06)
(0 0 -1.4416e-06)
(0 0 -1.43369e-06)
(0 0 -1.42323e-06)
(0 0 -1.40884e-06)
(0 0 -1.38578e-06)
(0 0 -1.3377e-06)
(0 0 -1.20978e-06)
(0 0 -8.23828e-07)
(0 0 3.80574e-07)
(0 4.53417e-23 4.10593e-06)
(0 0 1.76458e-05)
(0 0 1.72479e-05)
(0 0 1.70392e-05)
(0 0 1.96244e-05)
(0 0 2.77581e-05)
(0 0 4.08051e-05)
(0 0 5.33874e-05)
(0 0 5.795e-05)
(0 0 4.92042e-05)
(0 0 2.70873e-05)
(0 0 -3.44502e-06)
(0 0 -3.50387e-05)
(0 0 -6.10377e-05)
(0 0 -7.74947e-05)
(0 0 -8.36086e-05)
(0 0 -8.09849e-05)
(0 0 -7.2433e-05)
(0 0 -6.08876e-05)
(0 0 -4.87331e-05)
(0 0 -3.75474e-05)
(0 0 -2.81429e-05)
(0 0 -2.07539e-05)
(0 0 -1.52545e-05)
(0 0 -1.13429e-05)
(0 0 -8.6683e-06)
(0 0 -6.90368e-06)
(0 0 -5.77854e-06)
(0 0 -5.08599e-06)
(0 0 -4.67659e-06)
(0 0 -4.44716e-06)
(0 0 -4.32898e-06)
(0 0 -4.27766e-06)
(0 0 -4.26518e-06)
(0 0 -4.27425e-06)
(0 0 -4.29438e-06)
(0 0 -4.31929e-06)
(0 0 -4.34523e-06)
(0 0 -4.36997e-06)
(0 0 -4.39214e-06)
(0 0 -4.41092e-06)
(0 0 -4.42577e-06)
(0 0 -4.43631e-06)
(0 0 -4.44225e-06)
(0 0 -4.44329e-06)
(0 0 -4.43914e-06)
(0 0 -4.42946e-06)
(0 0 -4.41372e-06)
(0 0 -4.39063e-06)
(0 0 -4.35618e-06)
(0 0 -4.2966e-06)
(0 0 -4.1646e-06)
(0 0 -3.80125e-06)
(0 0 -2.68906e-06)
(0 0 8.02511e-07)
(0 4.5808e-23 1.16358e-05)
(0 0 2.93969e-05)
(0 0 2.87418e-05)
(0 0 2.83914e-05)
(0 0 3.26429e-05)
(0 0 4.60738e-05)
(0 0 6.76973e-05)
(0 0 8.86921e-05)
(0 0 9.65922e-05)
(0 0 8.26069e-05)
(0 0 4.65314e-05)
(0 0 -3.55169e-06)
(0 0 -5.55614e-05)
(0 0 -9.85183e-05)
(0 0 -0.000125872)
(0 0 -0.000136245)
(0 0 -0.000132231)
(0 0 -0.000118423)
(0 0 -9.96351e-05)
(0 0 -7.97916e-05)
(0 0 -6.14958e-05)
(0 0 -4.60942e-05)
(0 0 -3.39821e-05)
(0 0 -2.49611e-05)
(0 0 -1.85408e-05)
(0 0 -1.41485e-05)
(0 0 -1.12493e-05)
(0 0 -9.39996e-06)
(0 0 -8.26125e-06)
(0 0 -7.58797e-06)
(0 0 -7.21069e-06)
(0 0 -7.01654e-06)
(0 0 -6.93251e-06)
(0 0 -6.91257e-06)
(0 0 -6.92827e-06)
(0 0 -6.96236e-06)
(0 0 -7.00449e-06)
(0 0 -7.04848e-06)
(0 0 -7.09064e-06)
(0 0 -7.12876e-06)
(0 0 -7.16146e-06)
(0 0 -7.18785e-06)
(0 0 -7.20731e-06)
(0 0 -7.21932e-06)
(0 0 -7.2234e-06)
(0 0 -7.21908e-06)
(0 0 -7.20582e-06)
(0 0 -7.18276e-06)
(0 0 -7.14786e-06)
(0 0 -7.09486e-06)
(0 0 -7.00246e-06)
(0 0 -6.79742e-06)
(0 0 -6.23304e-06)
(0 0 -4.50329e-06)
(0 0 9.41903e-07)
(0 2.70354e-22 1.78944e-05)
(0 0 4.11275e-05)
(0 0 4.02256e-05)
(0 0 3.97291e-05)
(0 0 4.5567e-05)
(0 0 6.41212e-05)
(0 0 9.41571e-05)
(0 0 0.00012361)
(0 0 0.000135277)
(0 0 0.000116896)
(0 0 6.7975e-05)
(0 0 -5.25435e-07)
(0 0 -7.20449e-05)
(0 0 -0.000131438)
(0 0 -0.00016959)
(0 0 -0.000184485)
(0 0 -0.000179588)
(0 0 -0.000161148)
(0 0 -0.000135757)
(0 0 -0.000108805)
(0 0 -8.38844e-05)
(0 0 -6.28671e-05)
(0 0 -4.63161e-05)
(0 0 -3.39757e-05)
(0 0 -2.51853e-05)
(0 0 -1.91668e-05)
(0 0 -1.51913e-05)
(0 0 -1.26537e-05)
(0 0 -1.10899e-05)
(0 0 -1.01645e-05)
(0 0 -9.64523e-06)
(0 0 -9.37749e-06)
(0 0 -9.26113e-06)
(0 0 -9.23296e-06)
(0 0 -9.25396e-06)
(0 0 -9.30042e-06)
(0 0 -9.3581e-06)
(0 0 -9.41853e-06)
(0 0 -9.47666e-06)
(0 0 -9.52942e-06)
(0 0 -9.57495e-06)
(0 0 -9.61201e-06)
(0 0 -9.6397e-06)
(0 0 -9.65734e-06)
(0 0 -9.66426e-06)
(0 0 -9.65984e-06)
(0 0 -9.64334e-06)
(0 0 -9.61362e-06)
(0 0 -9.56806e-06)
(0 0 -9.49879e-06)
(0 0 -9.37925e-06)
(0 0 -9.11819e-06)
(0 0 -8.40765e-06)
(0 0 -6.23619e-06)
(0 0 6.19035e-07)
(0 -1.77505e-22 2.20803e-05)
(0 0 5.28297e-05)
(0 0 5.16944e-05)
(0 0 5.10464e-05)
(0 0 5.83644e-05)
(0 0 8.18099e-05)
(0 0 0.000120036)
(0 0 0.000158)
(0 0 0.000173995)
(0 0 0.000152329)
(0 0 9.20353e-05)
(0 0 6.61955e-06)
(0 0 -8.3205e-05)
(0 0 -0.000158338)
(0 0 -0.000207151)
(0 0 -0.000226911)
(0 0 -0.000221799)
(0 0 -0.000199554)
(0 0 -0.000168403)
(0 0 -0.000135111)
(0 0 -0.00010421)
(0 0 -7.80829e-05)
(0 0 -5.74699e-05)
(0 0 -4.20787e-05)
(0 0 -3.1102e-05)
(0 0 -2.35789e-05)
(0 0 -1.86046e-05)
(0 0 -1.54263e-05)
(0 0 -1.34655e-05)
(0 0 -1.23034e-05)
(0 0 -1.16501e-05)
(0 0 -1.13119e-05)
(0 0 -1.11637e-05)
(0 0 -1.11263e-05)
(0 0 -1.11509e-05)
(0 0 -1.12076e-05)
(0 0 -1.12787e-05)
(0 0 -1.13534e-05)
(0 0 -1.14256e-05)
(0 0 -1.14914e-05)
(0 0 -1.15483e-05)
(0 0 -1.15948e-05)
(0 0 -1.16299e-05)
(0 0 -1.16527e-05)
(0 0 -1.16622e-05)
(0 0 -1.16579e-05)
(0 0 -1.16387e-05)
(0 0 -1.16033e-05)
(0 0 -1.15487e-05)
(0 0 -1.14662e-05)
(0 0 -1.13268e-05)
(0 0 -1.10316e-05)
(0 0 -1.02465e-05)
(0 0 -7.86833e-06)
(0 0 -3.41782e-07)
(0 8.76288e-23 2.34444e-05)
(0 0 6.44969e-05)
(0 0 6.31427e-05)
(0 0 6.23368e-05)
(0 0 7.1008e-05)
(0 0 9.90651e-05)
(0 0 0.000145209)
(0 0 0.000191735)
(0 0 0.000212714)
(0 0 0.000189078)
(0 0 0.000119161)
(0 0 1.86235e-05)
(0 0 -8.80622e-05)
(0 0 -0.000178093)
(0 0 -0.000237395)
(0 0 -0.000262419)
(0 0 -0.000257883)
(0 0 -0.000232815)
(0 0 -0.00019691)
(0 0 -0.000158194)
(0 0 -0.000122081)
(0 0 -9.14478e-05)
(0 0 -6.7223e-05)
(0 0 -4.91021e-05)
(0 0 -3.61592e-05)
(0 0 -2.72768e-05)
(0 0 -2.13966e-05)
(0 0 -1.76346e-05)
(0 0 -1.53104e-05)
(0 0 -1.39304e-05)
(0 0 -1.31523e-05)
(0 0 -1.27477e-05)
(0 0 -1.25682e-05)
(0 0 -1.25204e-05)
(0 0 -1.25464e-05)
(0 0 -1.26109e-05)
(0 0 -1.26928e-05)
(0 0 -1.27795e-05)
(0 0 -1.28634e-05)
(0 0 -1.29401e-05)
(0 0 -1.30068e-05)
(0 0 -1.30615e-05)
(0 0 -1.3103e-05)
(0 0 -1.31302e-05)
(0 0 -1.31423e-05)
(0 0 -1.31382e-05)
(0 0 -1.31169e-05)
(0 0 -1.3077e-05)
(0 0 -1.30153e-05)
(0 0 -1.2923e-05)
(0 0 -1.27718e-05)
(0 0 -1.24663e-05)
(0 0 -1.16875e-05)
(0 0 -9.38166e-06)
(0 0 -2.10535e-06)
(0 4.32372e-22 2.12527e-05)
(0 0 7.61203e-05)
(0 0 7.45633e-05)
(0 0 7.35935e-05)
(0 0 8.34767e-05)
(0 0 0.00011583)
(0 0 0.000169578)
(0 0 0.000224706)
(0 0 0.000251377)
(0 0 0.000227213)
(0 0 0.00014961)
(0 0 3.59445e-05)
(0 0 -8.59885e-05)
(0 0 -0.000189969)
(0 0 -0.000259551)
(0 0 -0.000290272)
(0 0 -0.00028718)
(0 0 -0.000260372)
(0 0 -0.000220827)
(0 0 -0.000177705)
(0 0 -0.000137234)
(0 0 -0.000102766)
(0 0 -7.54311e-05)
(0 0 -5.49383e-05)
(0 0 -4.02745e-05)
(0 0 -3.01951e-05)
(0 0 -2.35124e-05)
(0 0 -1.92305e-05)
(0 0 -1.65804e-05)
(0 0 -1.50033e-05)
(0 0 -1.4111e-05)
(0 0 -1.36441e-05)
(0 0 -1.34341e-05)
(0 0 -1.33746e-05)
(0 0 -1.33996e-05)
(0 0 -1.34691e-05)
(0 0 -1.35589e-05)
(0 0 -1.36546e-05)
(0 0 -1.37477e-05)
(0 0 -1.38331e-05)
(0 0 -1.39074e-05)
(0 0 -1.39687e-05)
(0 0 -1.40154e-05)
(0 0 -1.40463e-05)
(0 0 -1.40604e-05)
(0 0 -1.40567e-05)
(0 0 -1.40339e-05)
(0 0 -1.39905e-05)
(0 0 -1.39235e-05)
(0 0 -1.38247e-05)
(0 0 -1.3669e-05)
(0 0 -1.33749e-05)
(0 0 -1.26787e-05)
(0 0 -1.07359e-05)
(0 0 -4.80833e-06)
(0 -8.45939e-23 1.4659e-05)
(-1.63265e-23 7.96953e-21 2.30056e-06)
(-1.47569e-22 7.83601e-21 1.74559e-06)
(3.35796e-23 -1.97675e-22 9.85228e-07)
(3.61764e-23 -2.33999e-20 -2.47239e-08)
(-9.27418e-23 7.99607e-21 -1.32628e-06)
(3.65199e-22 7.85444e-21 -2.96013e-06)
(-7.95674e-22 2.28984e-20 -4.96469e-06)
(3.11468e-22 -2.32703e-20 -7.38025e-06)
(6.28049e-22 -7.48699e-21 -1.02517e-05)
(-8.99022e-22 -3.71742e-24 -1.36296e-05)
(-8.99392e-22 -7.50446e-21 -1.75699e-05)
(7.87942e-22 7.12722e-21 -2.21331e-05)
(5.62759e-22 -5.87438e-20 -2.73822e-05)
(-1.03684e-21 1.26134e-19 -3.3379e-05)
(3.54444e-22 -6.78703e-20 -4.01762e-05)
(-1.23526e-21 -5.11782e-20 -4.7801e-05)
(2.35663e-21 -6.51653e-20 -5.62564e-05)
(-1.85366e-21 7.68393e-21 -6.55339e-05)
(-1.90533e-22 -7.16784e-21 -7.56334e-05)
(7.40711e-23 7.17419e-21 -8.65149e-05)
(-3.14281e-24 -1.28546e-22 -9.81086e-05)
(-6.92448e-23 -6.92199e-21 -0.00011034)
(-2.00649e-21 6.98422e-21 -0.000123145)
(4.20091e-21 1.29014e-23 -0.000136482)
(1.22783e-21 6.78388e-21 -0.000150355)
(-3.2728e-21 -5.31593e-24 -0.000164828)
(4.7119e-21 7.88768e-21 -0.000180052)
(-5.49931e-21 1.02335e-19 -0.00019628)
(6.59316e-22 -1.09895e-19 -0.000213894)
(-2.10382e-21 1.00462e-19 -0.000233427)
(2.04879e-21 -1.01605e-19 -0.000255617)
(4.84578e-23 1.33996e-21 -0.000281483)
(-6.31034e-23 -1.64585e-21 -0.000312494)
(2.7412e-21 -9.63287e-20 -0.000350863)
(-8.62073e-21 9.34923e-20 -0.00040012)
(-3.17306e-22 -1.54706e-21 -0.000466126)
(6.2037e-21 1.35681e-23 -0.000558866)
(6.74863e-21 1.47599e-23 -0.000695452)
(-6.72704e-21 -1.47127e-23 -0.000904963)
(-2.23159e-22 -4.88072e-25 -0.0012358)
(-2.32789e-22 -5.09132e-25 -0.00176619)
(-8.0181e-21 -1.75364e-23 -0.00261784)
(7.73948e-21 1.6927e-23 -0.00397174)
(-2.55767e-22 1.52256e-22 -0.00608286)
(-3.01191e-23 7.88326e-21 -0.00928792)
(-2.48081e-20 5.10598e-20 -0.0139969)
(2.38937e-20 -6.72815e-20 -0.0206551)
(-5.60487e-21 -9.59532e-21 -0.0296614)
(6.16141e-21 2.61667e-20 -0.0412355)
(-2.05073e-20 -5.72524e-21 -0.0551504)
(-2.58133e-22 7.98225e-21 6.54133e-06)
(-1.02406e-22 1.57023e-20 4.80971e-06)
(3.0669e-22 7.6381e-21 2.41207e-06)
(-8.74712e-22 -7.84928e-21 -7.84744e-07)
(1.62378e-21 7.48659e-21 -4.9022e-06)
(-5.09075e-22 -5.36369e-20 -1.0052e-05)
(-2.04567e-22 8.51797e-20 -1.63453e-05)
(-5.79084e-23 -8.88023e-21 -2.39011e-05)
(2.1606e-21 -9.81105e-20 -3.2854e-05)
(-2.23874e-21 1.38541e-19 -4.33564e-05)
(-8.05221e-22 1.26594e-19 -5.55796e-05)
(5.91235e-22 -1.13907e-19 -6.971e-05)
(-3.92902e-22 7.36866e-22 -8.59421e-05)
(2.80151e-21 -7.25508e-21 -0.000104469)
(-2.17746e-21 2.41406e-20 -0.000125459)
(-5.91552e-21 2.39725e-19 -0.000149005)
(1.57199e-21 -2.25477e-19 -0.000175115)
(-5.52801e-21 2.41647e-19 -0.0002038)
(-2.89711e-22 1.95525e-20 -0.00023507)
(-3.83735e-21 -7.33329e-21 -0.000268845)
(4.0549e-21 1.45054e-22 -0.000304935)
(-4.06518e-21 9.11839e-21 -0.000343136)
(1.10596e-21 2.1007e-19 -0.000383288)
(5.73323e-21 -4.44914e-19 -0.000425308)
(4.396e-21 -2.12623e-19 -0.000469241)
(-6.79793e-21 4.30408e-19 -0.000515328)
(3.4055e-21 -4.29434e-19 -0.000564065)
(-1.72675e-21 4.40645e-19 -0.000616265)
(3.28625e-21 1.44889e-21 -0.000673122)
(-3.71809e-21 -9.74298e-23 -0.000736307)
(-1.24927e-21 -2.73227e-24 -0.000808098)
(0 0 -0.000891644)
(1.84715e-22 9.58681e-23 -0.000991447)
(1.10492e-20 1.23695e-20 -0.00111429)
(-1.54428e-20 3.61025e-19 -0.00127093)
(-1.57732e-20 -2.40799e-20 -0.00147925)
(1.82849e-20 -3.56314e-19 -0.00176962)
(2.6281e-20 -3.08219e-19 -0.0021941)
(-9.05969e-21 3.29279e-19 -0.00284103)
(-3.12304e-20 2.18668e-21 -0.00385738)
(3.05376e-20 1.74053e-20 -0.00548035)
(-4.19934e-20 2.35514e-19 -0.00807862)
(2.25837e-20 -2.44986e-19 -0.0121997)
(-1.80975e-20 1.47399e-20 -0.0186141)
(2.00701e-20 7.77497e-21 -0.0283383)
(-6.01416e-20 1.14229e-19 -0.042609)
(6.00715e-20 -1.11805e-19 -0.062766)
(-9.26618e-20 8.36444e-20 -0.0899892)
(8.9418e-20 -9.33833e-20 -0.124867)
(-1.89274e-20 -6.42062e-22 -0.165327)
(-3.01108e-23 4.72843e-20 1.04593e-05)
(-8.29763e-23 1.49484e-20 7.33954e-06)
(3.64917e-22 -6.19368e-20 2.93489e-06)
(-7.70779e-22 1.23237e-19 -2.96691e-06)
(1.70469e-21 -2.63853e-19 -1.0543e-05)
(4.25623e-22 1.25485e-19 -1.99561e-05)
(-2.45683e-21 -8.73464e-22 -3.13763e-05)
(1.56463e-21 -1.70674e-20 -4.49966e-05)
(1.40028e-21 -2.57577e-19 -6.10423e-05)
(8.30253e-22 2.45465e-19 -7.97758e-05)
(-8.61244e-22 -1.63406e-21 -0.000101495)
(-4.22889e-21 -1.57734e-23 -0.000126527)
(6.7107e-21 -1.85832e-21 -0.000155218)
(-4.07373e-21 -2.51393e-19 -0.000187918)
(5.27716e-21 2.28509e-19 -0.000224939)
(-1.12952e-20 4.54095e-19 -0.000266476)
(-4.88363e-21 -1.21625e-20 -0.000312591)
(-4.54654e-21 4.673e-19 -0.000363347)
(4.05908e-22 -1.41875e-20 -0.000418843)
(-1.22184e-20 4.53995e-19 -0.000479024)
(1.21281e-20 -4.71525e-19 -0.000543651)
(-8.95985e-21 4.50468e-19 -0.000612489)
(2.12665e-21 -4.6857e-19 -0.000685383)
(5.24612e-21 -9.32975e-21 -0.000762313)
(-2.59761e-21 1.37395e-20 -0.000843494)
(5.5627e-21 -8.83688e-21 -0.000929473)
(-1.86016e-20 4.2285e-19 -0.00102124)
(1.66757e-20 -4.50746e-19 -0.00112033)
(1.81353e-20 -4.1904e-19 -0.00122892)
(-1.48206e-20 4.21029e-19 -0.00135004)
(-1.0902e-21 -5.20499e-21 -0.00148772)
(1.12872e-20 -1.22157e-22 -0.00164751)
(-1.29347e-20 -2.49216e-20 -0.00183728)
(5.26036e-20 -7.67007e-19 -0.00206878)
(1.67382e-20 5.62923e-20 -0.00236056)
(-6.97001e-20 7.22675e-19 -0.00274328)
(3.9886e-21 -1.24338e-20 -0.00326893)
(-1.15189e-20 -4.93004e-21 -0.00402643)
(1.0999e-19 -6.08095e-19 -0.00516656)
(-2.04583e-19 1.1948e-18 -0.00693975)
(2.08841e-19 -1.18817e-18 -0.00974965)
(7.21018e-20 8.5507e-20 -0.0142225)
(-1.57788e-19 5.20933e-19 -0.0212868)
(-1.6615e-19 3.60034e-19 -0.0322477)
(1.56948e-19 -4.26842e-19 -0.0488274)
(-2.24793e-20 1.96901e-20 -0.073123)
(5.55407e-20 -1.75438e-20 -0.107406)
(1.67013e-19 -1.03845e-19 -0.153635)
(-1.80757e-19 1.61981e-19 -0.212596)
(-2.56629e-20 -4.14789e-20 -0.276216)
(3.98986e-22 -3.11813e-20 1.37369e-05)
(-3.64424e-22 1.57705e-20 8.7317e-06)
(6.96393e-22 -1.72842e-22 1.52834e-06)
(-6.25763e-22 -1.55171e-20 -8.10211e-06)
(-9.72107e-22 -1.45678e-21 -2.03369e-05)
(3.27755e-21 -2.43584e-19 -3.53569e-05)
(-4.57444e-21 4.61332e-19 -5.33774e-05)
(2.22366e-21 -2.48428e-19 -7.46653e-05)
(-1.83356e-21 1.49869e-20 -9.95482e-05)
(4.78371e-21 -2.72083e-19 -0.000128416)
(-5.79748e-21 2.48315e-19 -0.000161719)
(-3.94829e-21 4.7405e-19 -0.000199956)
(1.04743e-20 -9.59242e-19 -0.000243661)
(-1.26781e-20 9.58342e-19 -0.000293385)
(1.69412e-20 -9.5399e-19 -0.000349639)
(-1.09746e-20 9.45651e-19 -0.000412784)
(-9.7622e-21 4.80985e-19 -0.000483004)
(-7.1088e-22 -3.80336e-21 -0.000560515)
(4.55074e-21 3.94976e-21 -0.000645608)
(-7.41086e-21 4.43998e-19 -0.000738366)
(-2.27465e-21 -4.66336e-19 -0.000838657)
(1.49328e-20 1.28677e-20 -0.00094637)
(-3.3184e-20 8.95808e-19 -0.00106154)
(2.49636e-20 -8.98866e-19 -0.0011844)
(2.28081e-21 -5.3298e-21 -0.00131558)
(-9.84924e-21 -9.16181e-23 -0.00145616)
(1.49476e-20 -1.35978e-20 -0.0016079)
(-4.86431e-21 1.24735e-22 -0.00177336)
(-5.34812e-21 -6.50481e-23 -0.00195607)
(5.08723e-21 1.97758e-22 -0.00216075)
(-3.74082e-21 1.40727e-21 -0.00239367)
(6.25094e-20 -7.96293e-19 -0.00266326)
(-5.65427e-20 8.19022e-19 -0.00298135)
(-1.62269e-20 1.80517e-22 -0.00336534)
(1.88846e-20 -1.03626e-20 -0.00384243)
(-9.85675e-20 7.3242e-19 -0.00445722)
(1.15352e-19 -7.35725e-19 -0.00528501)
(-2.30012e-20 2.24389e-21 -0.0064542)
(1.62469e-20 -9.13321e-23 -0.00818226)
(3.8631e-20 6.53778e-21 -0.0108302)
(-2.49582e-19 5.51187e-19 -0.0149792)
(3.69602e-19 -1.1179e-18 -0.0215304)
(-1.80485e-19 5.66665e-19 -0.0318192)
(2.63661e-19 -4.34396e-19 -0.0477256)
(-2.55106e-19 5.11845e-19 -0.0717416)
(-5.96881e-19 5.2913e-19 -0.106933)
(1.12782e-18 -1.12167e-18 -0.156667)
(-5.52653e-19 5.66621e-19 -0.223844)
(1.90824e-20 -2.21107e-21 -0.309263)
(4.60798e-21 -3.551e-20 -0.391126)
(-7.37472e-22 1.5852e-20 1.58837e-05)
(-2.64154e-22 6.06926e-20 7.90603e-06)
(1.94786e-21 -1.84313e-19 -3.60998e-06)
(-1.26644e-21 2.47371e-19 -1.87267e-05)
(-2.95618e-22 -1.09556e-19 -3.75353e-05)
(1.09252e-22 -1.46393e-20 -6.02091e-05)
(-4.72931e-22 1.54401e-20 -8.70157e-05)
(3.0562e-21 -1.88362e-22 -0.00011832)
(-2.91318e-21 -1.50935e-20 -0.000154583)
(-5.28052e-21 3.38777e-20 -0.000196363)
(-6.81918e-21 4.82133e-19 -0.000244305)
(1.83683e-20 -5.01132e-19 -0.000299129)
(-2.27262e-20 4.67597e-19 -0.000361617)
(1.88833e-20 -4.86428e-19 -0.000432588)
(-3.03385e-21 3.42874e-21 -0.000512835)
(1.10854e-20 4.79792e-23 -0.000602982)
(4.21674e-21 3.74842e-21 -0.000703454)
(-5.00152e-21 4.54662e-19 -0.000814757)
(2.0075e-20 -4.92057e-19 -0.000937533)
(6.4045e-21 2.7089e-20 -0.0010722)
(-4.53231e-20 9.37904e-19 -0.00121895)
(2.85314e-20 -9.40661e-19 -0.00137805)
(1.02774e-20 2.27587e-20 -0.00154999)
(-1.82021e-20 -2.35271e-22 -0.00173561)
(1.19103e-20 9.72028e-21 -0.00193627)
(-3.79505e-20 9.02327e-19 -0.00215401)
(3.11363e-20 -8.93928e-19 -0.00239182)
(2.86163e-21 9.7051e-21 -0.00265379)
(9.67098e-21 2.74073e-20 -0.00294536)
(-1.16093e-20 -5.54467e-22 -0.00327362)
(1.1681e-21 -1.31146e-20 -0.00364781)
(-3.76345e-20 1.33217e-20 -0.0040801)
(3.54554e-20 1.26955e-20 -0.0045872)
(-3.17946e-21 -2.54775e-20 -0.00519323)
(8.17247e-20 -7.45717e-19 -0.0059352)
(-7.26332e-20 7.68613e-19 -0.00687297)
(2.69041e-19 -1.48046e-18 -0.0081067)
(-2.46354e-19 1.49483e-18 -0.00980657)
(3.06568e-19 -1.40038e-18 -0.0122604)
(7.26804e-20 1.32635e-19 -0.0159463)
(-3.53172e-19 1.33496e-18 -0.0216347)
(-1.22319e-19 -2.24603e-20 -0.0305222)
(1.66462e-20 3.8865e-22 -0.0443876)
(-1.85947e-20 5.66136e-22 -0.0657517)
(5.49038e-20 1.68464e-21 -0.0980051)
(2.64571e-20 1.37741e-20 -0.145444)
(-1.14628e-19 5.21184e-21 -0.213055)
(6.52532e-20 5.05665e-21 -0.305509)
(-1.67466e-22 -3.14391e-22 -0.424129)
(3.65323e-20 6.48964e-22 -0.520503)
(-6.88222e-22 7.63958e-20 1.61522e-05)
(1.64693e-21 -4.65888e-20 2.79077e-06)
(-1.69013e-21 -1.64352e-20 -1.57371e-05)
(4.62656e-21 -2.28288e-19 -3.90617e-05)
(-2.22233e-21 2.30177e-19 -6.71799e-05)
(1.95979e-21 -2.27776e-19 -0.000100312)
(-1.0867e-20 5.02309e-19 -0.000138844)
(1.13859e-20 -7.03556e-19 -0.000183304)
(-7.33408e-21 4.97577e-19 -0.000234349)
(-5.75702e-21 4.85055e-19 -0.000292767)
(-2.20567e-21 3.9373e-21 -0.000359465)
(2.41724e-20 -9.52961e-19 -0.00043546)
(-2.10341e-20 9.91884e-19 -0.000521863)
(4.92701e-21 -4.66726e-19 -0.000619859)
(1.19445e-20 -4.69026e-19 -0.00073064)
(2.23215e-20 -4.61569e-19 -0.000855234)
(-3.2184e-21 6.75442e-21 -0.000994474)
(3.80726e-20 -9.57273e-19 -0.00114935)
(2.92456e-20 -9.19193e-19 -0.00132109)
(6.57584e-21 2.12384e-20 -0.00151073)
(-2.61853e-20 9.54864e-19 -0.00171908)
(-2.02945e-20 -8.14773e-21 -0.00194716)
(1.23906e-20 9.0204e-21 -0.00219634)
(-5.0203e-20 9.25071e-19 -0.00246854)
(4.06167e-20 -9.398e-19 -0.00276638)
(7.22891e-20 -9.02912e-19 -0.00309349)
(-7.3525e-20 9.32761e-19 -0.00345477)
(1.51934e-20 -2.01796e-20 -0.00385665)
(6.694e-20 -9.00782e-19 -0.0043074)
(-9.49155e-20 9.23842e-19 -0.00481756)
(4.41083e-21 1.24602e-20 -0.0054005)
(-2.05914e-19 1.69327e-18 -0.00607352)
(1.85853e-19 -1.75687e-18 -0.00685964)
(4.89602e-20 6.25861e-20 -0.00779121)
(-2.66376e-19 1.60441e-18 -0.00891648)
(2.43841e-19 -1.67303e-18 -0.0103116)
(-3.19139e-20 -3.36582e-21 -0.0121024)
(4.72921e-19 -1.51034e-18 -0.0145005)
(-4.42444e-19 1.55994e-18 -0.017864)
(-6.70724e-20 -7.32852e-20 -0.0227884)
(6.82707e-19 -1.32022e-18 -0.0302386)
(-1.20095e-18 2.72388e-18 -0.0417219)
(-6.75811e-20 -1.56227e-19 -0.0594966)
(-9.05004e-20 -1.22427e-19 -0.086801)
(7.78216e-19 -1.18808e-18 -0.128091)
(4.00208e-20 6.38191e-20 -0.189305)
(-8.82314e-19 7.89617e-19 -0.27815)
(8.6517e-19 -8.68222e-19 -0.403871)
(9.56234e-21 2.93367e-20 -0.57307)
(9.51935e-21 -2.78204e-21 -0.689813)
(6.05926e-22 -1.59173e-20 1.35515e-05)
(1.62871e-21 -1.35725e-19 -1.09083e-05)
(-1.75941e-21 1.22416e-19 -4.04901e-05)
(-1.29228e-21 -1.72507e-20 -7.52915e-05)
(5.25948e-21 -2.26888e-19 -0.000115614)
(-4.84408e-21 2.33402e-19 -0.000161898)
(-5.59534e-21 4.71465e-19 -0.000214737)
(-5.15454e-21 -1.94725e-20 -0.000274867)
(2.24122e-21 -4.5622e-21 -0.000343165)
(1.42729e-20 -5.02823e-19 -0.000420652)
(-1.1575e-20 4.70559e-19 -0.00050849)
(1.72244e-20 -9.95621e-19 -0.000607972)
(-3.76984e-21 4.97743e-19 -0.000720512)
(-3.69516e-21 -1.87509e-20 -0.000847623)
(-4.92647e-21 -2.24532e-20 -0.000990848)
(2.80133e-20 -9.77329e-19 -0.00115157)
(-1.59276e-21 -2.01163e-20 -0.00133098)
(2.683e-20 -9.95604e-19 -0.00153046)
(-5.4688e-21 -7.69243e-21 -0.0017517)
(-1.70652e-22 1.20441e-22 -0.0019962)
(1.15545e-20 8.51431e-21 -0.0022652)
(-5.23693e-20 9.58484e-19 -0.00256016)
(4.65744e-20 -9.79136e-19 -0.00288296)
(1.28946e-20 8.41804e-21 -0.003236)
(-8.80959e-21 -1.50119e-20 -0.0036224)
(-6.22954e-21 9.9979e-21 -0.00404631)
(-7.3357e-20 9.26048e-19 -0.00451304)
(1.57799e-19 -1.88955e-18 -0.00502936)
(-7.46948e-20 9.85604e-19 -0.00560363)
(-1.90297e-19 1.82731e-18 -0.0062461)
(-3.06122e-20 -4.53113e-20 -0.00696922)
(2.73473e-21 -2.60937e-20 -0.00778837)
(-6.66886e-20 -5.36833e-20 -0.00872333)
(2.57633e-19 -1.82792e-18 -0.00980134)
(3.98824e-19 -1.69325e-18 -0.0110632)
(-3.5561e-19 1.77729e-18 -0.0125755)
(-3.43332e-20 -5.554e-20 -0.0144528)
(4.73653e-19 -1.62124e-18 -0.0168983)
(-4.1723e-19 1.71737e-18 -0.0202715)
(-6.71102e-19 1.52681e-18 -0.0251969)
(5.69856e-19 -1.61263e-18 -0.0327266)
(7.91971e-20 -1.13695e-20 -0.0445634)
(8.76207e-19 -1.42798e-18 -0.0633426)
(1.23885e-19 1.22437e-19 -0.0929619)
(-1.0141e-18 1.4e-18 -0.138961)
(-1.64725e-20 -4.01537e-20 -0.209025)
(3.39898e-20 5.3327e-22 -0.314338)
(-3.45387e-20 1.56891e-20 -0.474556)
(-5.21299e-19 5.45636e-19 -0.727524)
(5.12711e-19 -5.54764e-19 -1.00132)
(-1.0625e-20 -3.10952e-21 0.0102118)
(-1.05382e-20 -5.91907e-22 0.0043368)
(9.87981e-21 9.95384e-21 -0.000608699)
(-7.12741e-21 1.82737e-21 -0.00470325)
(7.64068e-21 -1.1059e-20 -0.00803154)
(8.07365e-24 3.35259e-21 -0.0106806)
(-1.62554e-22 -9.29528e-23 -0.0127333)
(-5.09218e-21 1.11371e-23 -0.0142679)
(4.94789e-21 -1.08215e-23 -0.0153529)
(-1.4283e-22 3.12383e-25 -0.0160498)
(-1.33157e-22 2.91227e-25 -0.0164149)
(3.71461e-21 -8.12423e-24 -0.016497)
(-3.72655e-21 8.15033e-24 -0.0163415)
(-3.04668e-21 6.66339e-24 -0.0159901)
(3.63923e-22 -6.32696e-22 -0.0154802)
(5.54853e-21 2.22552e-20 -0.0148455)
(-2.65951e-21 -1.95456e-20 -0.0141158)
(-3.93501e-23 -5.96324e-22 -0.0133176)
(-1.21062e-23 3.34762e-22 -0.012474)
(-2.65949e-21 -3.93949e-20 -0.0116051)
(2.68197e-21 3.90095e-20 -0.0107279)
(-2.04676e-21 -4.46342e-20 -0.00985658)
(7.17816e-22 2.95511e-21 -0.00900279)
(-7.05492e-22 6.82644e-24 -0.00817588)
(5.49777e-22 3.68503e-21 -0.00738391)
(-1.63978e-22 7.80303e-24 -0.00663249)
(-2.16612e-22 4.73752e-25 -0.00592567)
(8.30543e-23 -7.28897e-25 -0.0052662)
(2.23748e-22 4.63918e-21 -0.00465562)
(1.98966e-25 -7.50857e-25 -0.00409448)
(-2.04016e-22 -5.05717e-21 -0.00358243)
(1.96724e-22 5.25287e-21 -0.00311844)
(-2.56787e-22 -5.41393e-21 -0.00270084)
(9.63508e-22 5.10189e-20 -0.00232752)
(-8.70272e-22 -5.13541e-20 -0.00199597)
(-3.83082e-22 -4.19286e-20 -0.00170343)
(8.98578e-22 9.10429e-20 -0.00144695)
(-5.00288e-22 -4.92437e-20 -0.0012235)
(-6.86352e-23 -6.32002e-21 -0.00102999)
(6.54979e-23 6.47548e-21 -0.000863413)
(-4.11326e-23 -1.2374e-25 -0.000720806)
(1.52461e-22 6.68062e-21 -0.000599358)
(-2.49183e-22 -3.41154e-20 -0.000496421)
(2.27314e-22 3.42921e-20 -0.000409535)
(-5.40895e-23 -6.98915e-21 -0.000336448)
(1.40827e-22 2.12603e-20 -0.00027512)
(1.47384e-23 -7.08734e-21 -0.000223722)
(-8.71752e-23 -1.44682e-20 -0.000180612)
(2.2527e-23 7.26716e-21 -0.000144309)
(-5.90473e-23 -7.36623e-21 -0.00011349)
(-1.53777e-20 2.50974e-20 0.029505)
(3.02984e-20 -9.22752e-21 0.0120122)
(-2.4382e-20 -2.23974e-20 -0.0027923)
(5.88175e-21 2.09844e-20 -0.0149543)
(-6.34781e-21 -2.03706e-20 -0.024768)
(-1.20451e-20 6.04467e-21 -0.0325271)
(1.05331e-20 5.912e-21 -0.0384996)
(1.50966e-21 6.59413e-22 -0.0429307)
(9.87604e-21 -1.15652e-20 -0.0460316)
(-2.02486e-20 5.29354e-21 -0.0479897)
(1.77079e-20 -4.91179e-21 -0.0489719)
(1.21336e-20 3.7013e-20 -0.0491244)
(-2.21724e-20 -2.58169e-20 -0.0485838)
(-2.41991e-20 -6.56581e-20 -0.0474733)
(5.34743e-21 -2.17019e-20 -0.0459035)
(2.47438e-20 7.73474e-20 -0.0439733)
(-5.12921e-21 1.48513e-21 -0.0417709)
(-1.02566e-21 -3.91046e-21 -0.0393738)
(7.49946e-24 -6.68233e-23 -0.0368497)
(3.12103e-22 -6.82599e-25 -0.0342571)
(8.4241e-22 1.16866e-23 -0.0316456)
(-1.156e-21 -3.59087e-21 -0.0290561)
(2.46198e-20 2.04723e-19 -0.0265225)
(-2.72376e-20 -2.20878e-19 -0.0240725)
(2.49793e-20 2.42325e-19 -0.0217283)
(-1.31917e-20 -1.1523e-19 -0.019507)
(-2.3695e-20 -2.70332e-19 -0.0174196)
(1.15257e-20 1.38672e-19 -0.0154736)
(-1.14306e-22 -4.56842e-21 -0.0136732)
(-8.29124e-22 -9.84606e-21 -0.0120198)
(1.83521e-22 5.06897e-21 -0.010512)
(-9.51517e-22 -1.58151e-20 -0.00914649)
(7.62837e-21 1.71792e-19 -0.00791823)
(-1.59127e-20 -3.66287e-19 -0.00682074)
(7.10783e-21 1.77498e-19 -0.00584652)
(-8.40556e-22 -1.79762e-20 -0.0049873)
(2.69414e-22 6.09844e-21 -0.00423431)
(-2.33563e-23 -5.71912e-23 -0.00357854)
(-3.06663e-21 -1.09003e-19 -0.00301087)
(2.60722e-21 9.64633e-20 -0.00252236)
(1.84368e-21 9.29346e-20 -0.00210429)
(-2.71354e-21 -1.266e-19 -0.00174838)
(6.58529e-23 6.86407e-21 -0.00144682)
(5.41825e-22 3.47197e-20 -0.00119237)
(-1.19136e-21 -6.25502e-20 -0.000978412)
(6.20798e-24 -7.05094e-21 -0.000798948)
(-7.27691e-22 -5.01079e-20 -0.000648598)
(-1.39386e-22 -7.44001e-21 -0.000522523)
(1.7478e-22 1.4409e-20 -0.000416308)
(2.06223e-22 2.19884e-20 -0.000325871)
(-1.44696e-20 -9.84944e-22 0.0453141)
(-1.311e-20 -1.53907e-20 0.0164582)
(3.52701e-20 2.93066e-20 -0.00807409)
(-4.3713e-20 -1.25333e-20 -0.0278851)
(1.79806e-20 1.14731e-20 -0.0436247)
(6.21032e-21 2.77947e-21 -0.0558984)
(2.59375e-21 -3.88909e-20 -0.0652139)
(4.59194e-20 1.96309e-20 -0.0720137)
(-2.2976e-20 4.85179e-20 -0.0766712)
(-8.08316e-20 -8.60522e-20 -0.0794923)
(1.19396e-19 9.87518e-20 -0.0807539)
(-6.92767e-20 -4.53541e-20 -0.0807036)
(4.52223e-21 -1.08727e-20 -0.0795634)
(-2.70599e-21 -6.30446e-21 -0.0775319)
(9.46694e-20 1.82857e-19 -0.0747874)
(-3.36289e-21 4.02877e-20 -0.0714889)
(-8.8272e-20 -2.08949e-19 -0.0677771)
(8.25464e-21 2.91182e-21 -0.0637753)
(-4.28454e-21 1.60613e-22 -0.0595909)
(1.60298e-22 -1.21299e-21 -0.055316)
(4.61921e-20 1.91611e-19 -0.0510282)
(-4.50613e-20 -1.82284e-19 -0.0467924)
(-4.37192e-20 -2.19085e-19 -0.0426604)
(4.65545e-20 2.30344e-19 -0.0386753)
(1.07319e-21 8.72931e-21 -0.034871)
(-1.25548e-21 -8.3662e-21 -0.0312733)
(1.10883e-21 8.93296e-21 -0.0278988)
(-3.47923e-20 -2.90085e-19 -0.024758)
(3.6735e-20 2.99477e-19 -0.0218565)
(-3.08944e-20 -3.05266e-19 -0.0191954)
(3.30327e-20 3.25835e-19 -0.0167718)
(7.40837e-22 1.08026e-20 -0.0145794)
(2.72072e-20 3.59481e-19 -0.0126095)
(-5.22078e-20 -7.1902e-19 -0.0108511)
(2.6103e-20 3.82724e-19 -0.00929179)
(1.20808e-20 2.06184e-19 -0.0079178)
(-1.07054e-20 -1.82453e-19 -0.00671477)
(3.35167e-22 8.63093e-23 -0.00566797)
(-4.51545e-22 -6.72517e-23 -0.0047626)
(-4.47045e-23 9.15192e-23 -0.00398413)
(7.63287e-21 2.1313e-19 -0.0033185)
(-7.38942e-21 -2.00216e-19 -0.00275231)
(5.88759e-22 1.3736e-20 -0.00227301)
(-3.05553e-22 -6.43267e-24 -0.00186895)
(2.74917e-21 1.12141e-19 -0.0015295)
(-5.06992e-21 -2.117e-19 -0.00124505)
(2.4918e-21 1.13613e-19 -0.00100695)
(-1.25044e-21 -5.78619e-20 -0.000807423)
(9.42365e-22 4.32916e-20 -0.000639207)
(2.23891e-22 1.45204e-20 -0.000495147)
(1.82479e-21 2.70801e-20 0.0542187)
(8.81488e-21 -5.47211e-20 0.0145799)
(-5.95139e-20 2.47626e-20 -0.0192044)
(7.98091e-20 5.36038e-20 -0.0457356)
(-4.34134e-21 -9.05962e-20 -0.0663035)
(1.12429e-20 4.66444e-20 -0.0819904)
(-2.75134e-20 -5.94244e-21 -0.0936393)
(3.24049e-20 4.64747e-20 -0.101908)
(-1.09038e-19 -9.25329e-20 -0.107336)
(1.10383e-19 3.29972e-20 -0.11036)
(-2.23318e-20 1.27714e-20 -0.111364)
(-1.15678e-20 7.21453e-22 -0.110682)
(1.6312e-20 9.17322e-21 -0.10861)
(-1.31671e-19 -1.96168e-19 -0.105412)
(1.16477e-19 1.75965e-19 -0.101323)
(-4.68053e-21 1.45644e-20 -0.0965517)
(4.64731e-21 -8.08597e-21 -0.0912823)
(1.2947e-19 3.19156e-19 -0.0856746)
(-1.3162e-19 -3.10072e-19 -0.079867)
(-1.11601e-21 -1.0314e-20 -0.0739776)
(-1.16116e-21 -5.31452e-23 -0.0681062)
(1.57703e-21 4.27366e-22 -0.0623346)
(7.45303e-22 -2.66141e-23 -0.056729)
(-2.94848e-22 7.91391e-21 -0.0513425)
(2.07457e-21 3.51981e-22 -0.0462172)
(1.44125e-21 9.0494e-21 -0.0413834)
(-1.08289e-19 -6.03116e-19 -0.0368616)
(1.076e-19 5.93617e-19 -0.0326629)
(-5.50828e-22 5.85121e-22 -0.0287925)
(-4.50762e-20 -3.34539e-19 -0.0252497)
(4.73843e-20 3.45627e-19 -0.022029)
(2.54103e-23 2.82482e-23 -0.0191207)
(-1.98831e-22 -3.05701e-22 -0.0165118)
(-3.69282e-20 -3.87964e-19 -0.0141867)
(7.02588e-20 7.74368e-19 -0.0121279)
(-6.41167e-20 -7.79944e-19 -0.0103165)
(6.00809e-20 7.96413e-19 -0.00873273)
(-5.56815e-20 -8.11782e-19 -0.00735654)
(2.66456e-20 4.09942e-19 -0.00616795)
(1.13664e-20 2.11132e-19 -0.00514736)
(-1.00163e-20 -1.84939e-19 -0.00427593)
(-8.14979e-22 -1.35324e-20 -0.00353575)
(-8.97511e-21 -2.19585e-19 -0.00291005)
(1.86896e-20 4.69818e-19 -0.00238337)
(-8.55562e-21 -2.22568e-19 -0.0019416)
(9.13428e-23 1.22066e-22 -0.00157198)
(3.51486e-22 1.42176e-20 -0.00126309)
(-8.29089e-23 -4.35909e-23 -0.00100453)
(-3.25804e-22 -1.44468e-20 -0.000786389)
(7.01928e-22 2.91533e-20 -0.000598)
(2.76104e-20 9.67901e-23 0.0517565)
(3.05222e-22 3.60869e-22 0.00197284)
(-6.20184e-20 3.32415e-22 -0.039853)
(9.08193e-20 -5.09597e-22 -0.0712922)
(-2.74636e-20 -5.62817e-22 -0.0948179)
(-4.25517e-20 -9.32886e-22 -0.112179)
(1.4674e-20 5.79571e-22 -0.124614)
(-1.08159e-20 -9.67299e-22 -0.133038)
(8.5413e-20 -2.37516e-20 -0.138149)
(1.55001e-19 2.49114e-19 -0.140494)
(9.38531e-21 8.92847e-20 -0.140535)
(-1.97229e-19 -3.22122e-19 -0.138672)
(2.52504e-19 4.06733e-19 -0.135255)
(-2.68819e-19 -4.00238e-19 -0.130595)
(1.35124e-19 2.5726e-19 -0.124966)
(-1.45874e-19 -2.68815e-19 -0.11861)
(5.34317e-21 -1.72982e-21 -0.11174)