/*--------------------------------*- C++ -*----------------------------------*\
| =========                 |                                                 |
| \\      /  F ield         | OpenFOAM: The Open Source CFD Toolbox           |
|  \\    /   O peration     | Version:  2412                                  |
|   \\  /    A nd           | Website:  www.openfoam.com                      |
|    \\/     M anipulation  |                                                 |
\*---------------------------------------------------------------------------*/
FoamFile
{
    version     2.0;
    format      ascii;
    arch        "LSB;label=32;scalar=64";
    class       volVectorField;
    location    "27.5";
    object      vorticity;
}
// * * * * * * * * * * * * * * * * * * * * * * * * * * * * * * * * * * * * * //

dimensions      [0 0 -1 0 0 0 0];

internalField   nonuniform List<vector> 
5285
(
(1.98698e-21 2.78592e-22 -0.0111832)
(-2.75949e-21 1.32253e-23 -0.0108626)
(1.81557e-21 1.33581e-21 -0.0105162)
(-6.80244e-22 4.15034e-23 -0.0101486)
(-1.95663e-21 4.27935e-24 -0.00976324)
(9.31575e-22 -2.77478e-23 -0.00936359)
(1.52242e-22 2.08524e-21 -0.00895312)
(-4.55027e-23 4.58369e-23 -0.00853503)
(-1.64065e-22 -2.49076e-21 -0.00811226)
(1.35243e-22 2.66419e-21 -0.00768753)
(2.24745e-22 -2.95251e-21 -0.00726335)
(2.75889e-22 2.8195e-20 -0.00684203)
(-7.30977e-22 -2.82008e-20 -0.00642568)
(-6.70032e-22 -2.49149e-20 -0.00601622)
(1.46821e-21 5.4282e-20 -0.00561537)
(-8.1357e-22 -2.96666e-20 -0.00522468)
(-2.29489e-22 -4.06937e-21 -0.0048455)
(2.21739e-22 4.20334e-21 -0.00447901)
(3.47381e-24 2.31919e-24 -0.00412622)
(1.67615e-22 4.55858e-21 -0.00378796)
(-4.94292e-22 -2.3955e-20 -0.0034649)
(4.76419e-22 2.41803e-20 -0.00315755)
(-1.38814e-22 -5.07515e-21 -0.00286625)
(3.07933e-22 1.58352e-20 -0.00259117)
(2.83692e-23 -5.24498e-21 -0.00233226)
(-2.03904e-22 -1.11433e-20 -0.00208919)
(5.62497e-23 5.62022e-21 -0.0018612)
(-1.49201e-22 -5.84173e-21 -0.00164685)
(1.3555e-20 7.14739e-20 -0.0331936)
(-1.53915e-20 -7.41608e-20 -0.0322299)
(1.83781e-20 9.12155e-20 -0.0311896)
(-9.50132e-21 -3.70364e-20 -0.0300885)
(-1.86204e-20 -1.14136e-19 -0.0289365)
(8.00609e-21 5.69185e-20 -0.0277439)
(1.43318e-21 -1.0722e-21 -0.0265206)
(-2.07931e-21 -4.79404e-21 -0.0252757)
(1.5966e-21 2.4813e-21 -0.024018)
(-9.62164e-22 -8.60397e-21 -0.0227552)
(9.88623e-21 9.35416e-20 -0.0214949)
(-2.11148e-20 -2.00979e-19 -0.0202437)
(9.89322e-21 9.7979e-20 -0.0190078)
(-6.74991e-22 -1.01544e-20 -0.0177929)
(-1.37759e-22 3.62354e-21 -0.016604)
(4.14151e-23 5.57183e-23 -0.0154457)
(-4.94522e-21 -7.03038e-20 -0.0143219)
(4.22446e-21 6.1978e-20 -0.0132361)
(3.50087e-21 6.30187e-20 -0.0121912)
(-5.07187e-21 -8.5779e-20 -0.0111896)
(1.58092e-22 4.74707e-21 -0.0102332)
(1.11361e-21 2.51642e-20 -0.00932358)
(-2.42992e-21 -4.52425e-20 -0.00846167)
(-4.75968e-23 -5.23921e-21 -0.00764794)
(-1.6422e-21 -3.81105e-20 -0.00688221)
(-3.57399e-22 -6.11406e-21 -0.00616345)
(4.10146e-22 1.10103e-20 -0.00548923)
(5.10669e-22 1.73521e-20 -0.00485485)
(-2.97401e-20 -8.60797e-20 -0.054188)
(3.30296e-20 8.18726e-20 -0.0525712)
(-1.58577e-21 6.35582e-21 -0.0508376)
(1.72645e-22 -3.62396e-21 -0.0490081)
(-1.25009e-21 5.66621e-21 -0.0471016)
(-2.72343e-20 -1.36311e-19 -0.0451337)
(3.19229e-20 1.38663e-19 -0.0431198)
(-3.15891e-20 -1.52608e-19 -0.0410745)
(3.38097e-20 1.61701e-19 -0.0390115)
(7.96129e-22 6.05152e-21 -0.0369432)
(3.08695e-20 2.00594e-19 -0.0348816)
(-6.23228e-20 -4.03914e-19 -0.0328371)
(3.37426e-20 2.16213e-19 -0.0308198)
(1.48679e-20 1.25636e-19 -0.0288385)
(-1.33097e-20 -1.09737e-19 -0.0269013)
(-7.45889e-22 -2.38058e-22 -0.0250153)
(2.22645e-23 -1.91904e-22 -0.0231867)
(3.29705e-23 -2.15446e-23 -0.021421)
(1.3405e-20 1.45765e-19 -0.0197228)
(-1.31458e-20 -1.36849e-19 -0.018096)
(1.01749e-21 9.69292e-21 -0.0165435)
(-3.90278e-22 -9.54898e-23 -0.0150676)
(5.82622e-21 8.30257e-20 -0.0136698)
(-1.10793e-20 -1.5836e-19 -0.0123507)
(5.56202e-21 8.57042e-20 -0.01111)
(-2.98638e-21 -4.52433e-20 -0.00994587)
(2.22361e-21 3.35947e-20 -0.00885376)
(5.40558e-22 1.13568e-20 -0.00782471)
(2.74156e-21 -1.02931e-22 -0.073597)
(-7.35984e-21 3.52174e-21 -0.0713164)
(5.96839e-21 4.54538e-22 -0.0688876)
(3.78106e-22 7.8955e-21 -0.0663402)
(-8.77416e-20 -2.89989e-19 -0.0636998)
(9.0138e-20 2.7821e-19 -0.0609852)
(-6.33212e-21 5.6547e-21 -0.0582165)
(-3.91097e-20 -1.76535e-19 -0.0554125)
(4.49231e-20 1.79872e-19 -0.052591)
(-1.44622e-21 1.52897e-21 -0.0497685)
(-1.41968e-22 4.96806e-22 -0.0469601)
(-4.30275e-20 -2.29805e-19 -0.0441797)
(8.75789e-20 4.6253e-19 -0.0414404)
(-8.60728e-20 -4.7704e-19 -0.0387535)
(8.45428e-20 4.99842e-19 -0.0361295)
(-8.24172e-20 -5.21496e-19 -0.0335776)
(4.05043e-20 2.65537e-19 -0.0311061)
(1.98176e-20 1.44326e-19 -0.0287218)
(-1.72109e-20 -1.25572e-19 -0.0264306)
(-1.29863e-21 -9.69707e-21 -0.0242375)
(-1.76478e-20 -1.58761e-19 -0.0221463)
(3.75296e-20 3.43133e-19 -0.0201598)
(-1.7614e-20 -1.64166e-19 -0.0182797)
(2.29884e-22 2.26893e-22 -0.0165069)
(8.12886e-22 1.08823e-20 -0.0148405)
(-2.08794e-22 -1.59207e-22 -0.0132777)
(-7.91604e-22 -1.13939e-20 -0.0118118)
(1.75023e-21 2.34565e-20 -0.0104281)
(-9.87021e-20 -2.63572e-19 -0.0880396)
(9.8837e-20 2.44598e-19 -0.0849158)
(-6.89124e-21 5.63701e-21 -0.0816663)
(9.40305e-21 1.09786e-23 -0.0783188)
(-6.56383e-21 -1.38621e-21 -0.0748959)
(-1.11877e-19 -3.64705e-19 -0.0714192)
(1.16731e-19 3.51922e-19 -0.0679108)
(-4.48922e-21 -1.35571e-21 -0.0643913)
(-5.71921e-20 -2.07947e-19 -0.06088)
(5.56609e-20 2.18807e-19 -0.0573946)
(4.86523e-21 1.19197e-21 -0.0539514)
(-2.35225e-21 3.95049e-22 -0.0505653)
(3.06735e-22 4.80282e-22 -0.0472498)
(-5.40806e-20 -2.66879e-19 -0.044017)
(5.6439e-20 2.75009e-19 -0.0408775)
(-5.03851e-20 -2.78049e-19 -0.0378408)
(5.06768e-20 2.86508e-19 -0.0349148)
(-2.76129e-21 -1.8592e-20 -0.0321065)
(1.40899e-21 9.58631e-21 -0.0294211)
(1.71495e-22 2.4118e-22 -0.0268632)
(-1.17376e-21 -1.01699e-20 -0.0244357)
(1.17565e-21 1.04041e-20 -0.0221404)
(-1.13889e-20 -9.81055e-20 -0.0199781)
(1.99805e-20 1.76838e-19 -0.0179476)
(-1.4668e-20 -1.35292e-19 -0.016045)
(4.69947e-21 4.57165e-20 -0.0142612)
(2.26024e-22 1.2094e-22 -0.0125746)
(1.23136e-19 3.07572e-19 -0.102479)
(-1.36102e-19 -2.90084e-19 -0.0986648)
(-1.28285e-19 -3.51938e-19 -0.0947331)
(1.3108e-19 3.29638e-19 -0.090714)
(-6.24181e-21 4.90755e-21 -0.0866286)
(9.30221e-21 -3.30057e-21 -0.0824993)
(1.32315e-19 4.22388e-19 -0.0783498)
(-1.45761e-21 2.73546e-20 -0.0742025)
(-1.38978e-19 -4.53674e-19 -0.070078)
(-1.38692e-19 -4.97082e-19 -0.0659957)
(2.69729e-19 9.74731e-19 -0.0619729)
(-7.21683e-20 -2.43288e-19 -0.0580258)
(-6.74948e-20 -2.69453e-19 -0.0541689)
(-6.65364e-20 -2.99002e-19 -0.0504152)
(1.23507e-19 5.60224e-19 -0.0467761)
(-1.25408e-19 -5.95545e-19 -0.0432616)
(-3.11389e-22 -2.00324e-20 -0.0398802)
(5.84892e-20 3.06254e-19 -0.0366392)
(5.57642e-20 3.24379e-19 -0.0335442)
(-8.59267e-20 -5.09898e-19 -0.0305996)
(5.12346e-20 3.24944e-19 -0.0278085)
(-2.77415e-20 -1.80415e-19 -0.0251725)
(2.57811e-20 1.88318e-19 -0.0226921)
(-2.55861e-20 -1.88298e-19 -0.0203655)
(1.17104e-21 1.13364e-20 -0.0181884)
(-6.69521e-21 -5.84772e-20 -0.0161494)
(2.70471e-21 2.31635e-20 -0.0142201)
(-1.444e-19 -3.51708e-19 -0.110996)
(9.32909e-21 -6.73308e-21 -0.106882)
(5.46862e-21 -9.45163e-23 -0.102648)
(-4.64889e-21 1.0287e-20 -0.0983225)
(-1.55883e-19 -4.34163e-19 -0.093927)
(1.58293e-19 4.24015e-19 -0.0894815)
(-4.96387e-21 4.30717e-21 -0.085011)
(4.16194e-22 -4.49835e-23 -0.080539)
(4.83537e-21 9.75414e-21 -0.0760874)
(-1.50035e-19 -5.17766e-19 -0.0716767)
(3.07522e-19 1.06579e-18 -0.067326)
(-1.53496e-19 -5.32477e-19 -0.0630528)
(3.55001e-21 6.55029e-21 -0.0588729)
(2.86486e-21 8.40977e-21 -0.0548007)
(7.05376e-20 3.04069e-19 -0.0508492)
(-1.38558e-19 -6.03752e-19 -0.0470295)
(7.17553e-20 3.19024e-19 -0.0433514)
(-6.44691e-20 -3.16105e-19 -0.0398231)
(1.7757e-21 -8.63023e-21 -0.0364513)
(3.82381e-21 2.26815e-21 -0.0332414)
(6.35153e-20 3.49947e-19 -0.030197)
(3.0444e-20 1.87578e-19 -0.0273205)
(-3.02274e-20 -1.87167e-19 -0.0246128)
(1.49664e-21 1.12778e-20 -0.0220727)
(1.2679e-20 9.26934e-20 -0.0196962)
(-1.12194e-20 -8.08887e-20 -0.0174724)
(1.38946e-21 1.1762e-20 -0.0153664)
(0 5.08204e-24 -0.00141607)
(0 -0 -0.00124429)
(0 -0 -0.00108812)
(0 -0 -0.0009466)
(0 -0 -0.000818801)
(0 -0 -0.000703832)
(0 -0 -0.000600854)
(0 -0 -0.000509083)
(0 -0 -0.00042778)
(0 -0 -0.000356233)
(0 -0 -0.000293744)
(0 -0 -0.000239624)
(0 -0 -0.000193183)
(0 -0 -0.00015373)
(0 -0 -0.000120579)
(0 -0 -9.30451e-05)
(0 -0 -7.04614e-05)
(0 -0 -5.218e-05)
(0 -0 -3.75822e-05)
(0 -0 -2.6086e-05)
(0 -0 -1.71525e-05)
(0 -0 -1.02907e-05)
(0 -0 -5.06117e-06)
(0 -0 -1.07756e-06)
(0 -0 1.9925e-06)
(0 -0 4.42803e-06)
(0 -0 6.45511e-06)
(0 -0 8.24744e-06)
(0 -0 9.92628e-06)
(0 -0 1.15606e-05)
(0 -0 1.31678e-05)
(0 -0 1.47168e-05)
(0 -0 1.61347e-05)
(0 -0 1.73185e-05)
(0 -0 1.81522e-05)
(0 -0 1.8528e-05)
(0 -0 1.83678e-05)
(0 -0 1.76425e-05)
(0 -0 1.63826e-05)
(0 -0 1.46781e-05)
(0 -0 1.26669e-05)
(0 -0 1.05129e-05)
(0 -0 8.37979e-06)
(0 -0 6.41602e-06)
(0 -1.48354e-23 -0.00417775)
(0 -0 -0.00367249)
(0 -0 -0.00321304)
(0 -0 -0.00279646)
(0 -0 -0.00241997)
(0 -0 -0.00208097)
(0 -0 -0.00177705)
(0 -0 -0.00150598)
(0 -0 -0.00126564)
(0 -0 -0.001054)
(0 -0 -0.000869069)
(0 -0 -0.000708836)
(0 -0 -0.000571296)
(0 -0 -0.000454433)
(0 -0 -0.000356226)
(0 -0 -0.000274665)
(0 -0 -0.000207779)
(0 -0 -0.000153651)
(0 -0 -0.00011045)
(0 -0 -7.64513e-05)
(0 -0 -5.00545e-05)
(0 -0 -2.98026e-05)
(0 -0 -1.439e-05)
(0 -0 -2.66921e-06)
(0 -0 6.34757e-06)
(0 -0 1.34894e-05)
(0 -0 1.94279e-05)
(0 -0 2.46788e-05)
(0 -0 2.96016e-05)
(0 -0 3.44005e-05)
(0 -0 3.9126e-05)
(0 -0 4.36848e-05)
(0 -0 4.78591e-05)
(0 -0 5.13422e-05)
(0 -0 5.37887e-05)
(0 -0 5.48774e-05)
(0 -0 5.43768e-05)
(0 -0 5.22001e-05)
(0 -0 4.84385e-05)
(0 -0 4.33599e-05)
(0 -0 3.7374e-05)
(0 -0 3.09688e-05)
(0 -0 2.46301e-05)
(0 -0 1.88007e-05)
(0 -9.31418e-24 -0.00674515)
(0 -0 -0.00593537)
(0 -0 -0.00519831)
(0 -0 -0.00452902)
(0 -0 -0.00392304)
(0 -0 -0.00337634)
(0 -0 -0.00288531)
(0 -0 -0.00244663)
(0 -0 -0.00205713)
(0 -0 -0.00171375)
(0 -0 -0.00141338)
(0 -0 -0.00115294)
(0 -0 -0.000929243)
(0 -0 -0.00073909)
(0 -0 -0.00057924)
(0 -0 -0.000446463)
(0 -0 -0.000337568)
(0 -0 -0.000249451)
(0 -0 -0.000179138)
(0 -0 -0.00012382)
(0 -0 -8.08942e-05)
(0 -0 -4.79834e-05)
(0 -0 -2.29582e-05)
(0 -0 -3.94584e-06)
(0 -0 1.06666e-05)
(0 -0 2.22328e-05)
(0 -0 3.18499e-05)
(0 -0 4.03596e-05)
(0 -0 4.83493e-05)
(0 -0 5.61516e-05)
(0 -0 6.38482e-05)
(0 -0 7.12849e-05)
(0 -0 7.81041e-05)
(0 -0 8.38022e-05)
(0 -0 8.78121e-05)
(0 -0 8.9606e-05)
(0 -0 8.88027e-05)
(0 -0 8.52581e-05)
(0 -0 7.91193e-05)
(0 -0 7.08237e-05)
(0 -0 6.10407e-05)
(0 -0 5.0569e-05)
(0 -0 4.02038e-05)
(0 -0 3.06719e-05)
(0 -1.82817e-23 -0.00901417)
(0 -0 -0.00794532)
(0 -0 -0.00697051)
(0 -0 -0.00608277)
(0 -0 -0.00527639)
(0 -0 -0.00454665)
(0 -0 -0.00388939)
(0 -0 -0.00330078)
(0 -0 -0.00277712)
(0 -0 -0.00231469)
(0 -0 -0.00190966)
(0 -0 -0.00155809)
(0 -0 -0.00125587)
(0 -0 -0.000998814)
(0 -0 -0.000782631)
(0 -0 -0.000603015)
(0 -0 -0.000455691)
(0 -0 -0.000336487)
(0 -0 -0.00024139)
(0 -0 -0.000166606)
(0 -0 -0.000108611)
(0 -0 -6.41834e-05)
(0 -0 -3.04357e-05)
(0 -0 -4.82614e-06)
(0 -0 1.48352e-05)
(0 -0 3.03871e-05)
(0 -0 4.33196e-05)
(0 -0 5.47765e-05)
(0 -0 6.55555e-05)
(0 -0 7.61075e-05)
(0 -0 8.65424e-05)
(0 -0 9.6648e-05)
(0 -0 0.000105935)
(0 -0 0.000113714)
(0 -0 0.000119209)
(0 -0 0.000121696)
(0 -0 0.000120652)
(0 -0 0.000115874)
(0 -0 0.00010756)
(0 -0 9.63014e-05)
(0 -0 8.30088e-05)
(0 -0 6.87694e-05)
(0 -0 5.46673e-05)
(0 -0 4.16944e-05)
(0 6.23408e-25 -0.0109132)
(0 -0 -0.00964382)
(0 -0 -0.00848097)
(0 -0 -0.00741642)
(0 -0 -0.00644463)
(0 -0 -0.00556138)
(0 -0 -0.00476299)
(0 -0 -0.00404591)
(0 -0 -0.00340643)
(0 -0 -0.00284066)
(0 -0 -0.00234437)
(0 -0 -0.00191308)
(0 -0 -0.00154201)
(0 -0 -0.00122618)
(0 -0 -0.000960454)
(0 -0 -0.000739626)
(0 -0 -0.000558496)
(0 -0 -0.000411964)
(0 -0 -0.00029511)
(0 -0 -0.000203273)
(0 -0 -0.000132115)
(0 -0 -7.76666e-05)
(0 -0 -3.63651e-05)
(0 -0 -5.07256e-06)
(0 -0 1.89156e-05)
(0 -0 3.78711e-05)
(0 -0 5.36355e-05)
(0 -0 6.76226e-05)
(0 -0 8.08177e-05)
(0 -0 9.37773e-05)
(0 -0 0.000106635)
(0 -0 0.000119125)
(0 -0 0.000130636)
(0 -0 0.00014031)
(0 -0 0.000147178)
(0 -0 0.000150336)
(0 -0 0.000149126)
(0 -0 0.00014329)
(0 -0 0.000133063)
(0 -0 0.000119175)
(0 -0 0.000102752)
(0 -0 8.51403e-05)
(0 -0 6.76849e-05)
(0 -0 5.1619e-05)
(0 -1.39886e-23 -0.0124157)
(0 -0 -0.011012)
(0 -0 -0.00971388)
(0 -0 -0.00851472)
(0 -0 -0.00741272)
(0 -0 -0.00640603)
(0 -0 -0.00549251)
(0 -0 -0.00466953)
(0 -0 -0.00393389)
(0 -0 -0.00328183)
(0 -0 -0.00270904)
(0 -0 -0.00221071)
(0 -0 -0.00178162)
(0 -0 -0.00141622)
(0 -0 -0.00110868)
(0 -0 -0.000853081)
(0 -0 -0.000643455)
(0 -0 -0.000473929)
(0 -0 -0.00033882)
(0 -0 -0.000232731)
(0 -0 -0.000150629)
(0 -0 -8.79035e-05)
(0 -0 -4.04141e-05)
(0 -0 -4.51054e-06)
(0 -0 2.29548e-05)
(0 -0 4.46264e-05)
(0 -0 6.26486e-05)
(0 -0 7.86673e-05)
(0 -0 9.38297e-05)
(0 -0 0.000108783)
(0 -0 0.000123679)
(0 -0 0.000138204)
(0 -0 0.000151641)
(0 -0 0.000162978)
(0 -0 0.000171076)
(0 -0 0.000174869)
(0 -0 0.000173574)
(0 -0 0.000166881)
(0 -0 0.000155052)
(0 -0 0.000138932)
(0 -0 0.00011983)
(0 -0 9.93182e-05)
(0 -0 7.89691e-05)
(0 -0 6.02263e-05)
(0 -7.21866e-24 -0.0135521)
(0 -0 -0.0120789)
(0 -0 -0.0106867)
(0 -0 -0.00938733)
(0 -0 -0.00818475)
(0 -0 -0.00708124)
(0 -0 -0.00607654)
(0 -0 -0.00516915)
(0 -0 -0.00435648)
(0 -0 -0.00363508)
(0 -0 -0.00300065)
(0 -0 -0.00244824)
(0 -0 -0.00197232)
(0 -0 -0.00156688)
(0 -0 -0.00122562)
(0 -0 -0.000942016)
(0 -0 -0.000709499)
(0 -0 -0.00052157)
(0 -0 -0.000371923)
(0 -0 -0.000254557)
(0 -0 -0.00016387)
(0 -0 -9.47233e-05)
(0 -0 -4.24998e-05)
(0 -0 -3.12639e-06)
(0 -0 2.69103e-05)
(0 -0 5.05627e-05)
(0 -0 7.02252e-05)
(0 -0 8.77358e-05)
(0 -0 0.000104375)
(0 -0 0.000120864)
(0 -0 0.000137372)
(0 -0 0.000153541)
(0 -0 0.000168563)
(0 -0 0.000181298)
(0 -0 0.000190459)
(0 -0 0.000194838)
(0 -0 0.000193544)
(0 -0 0.000186212)
(0 -0 0.000173124)
(0 -0 0.000155212)
(0 -0 0.000133935)
(0 -0 0.000111052)
(0 -0 8.83245e-05)
(0 -0 6.73712e-05)
(0 -0 -0.0145001)
(0 -0 -0.0129304)
(0 -0 -0.0114509)
(0 -0 -0.0100674)
(0 -0 -0.00878418)
(0 -0 -0.00760395)
(0 -0 -0.00652746)
(0 -0 -0.00555381)
(0 -0 -0.0046808)
(0 -0 -0.00390514)
(0 -0 -0.00322256)
(0 -0 -0.00262799)
(0 -0 -0.00211562)
(0 -0 -0.00167914)
(0 -0 -0.00131182)
(0 -0 -0.00100669)
(0 -0 -0.00075668)
(0 -0 -0.000554802)
(0 -0 -0.000394249)
(0 -0 -0.000268536)
(0 -0 -0.000171604)
(0 -0 -9.78928e-05)
(0 -0 -4.24019e-05)
(0 -0 -7.20759e-07)
(0 -0 3.09562e-05)
(0 -0 5.58271e-05)
(0 -0 7.64856e-05)
(0 -0 9.49226e-05)
(0 -0 0.000112525)
(0 -0 0.000130073)
(0 -0 0.000147746)
(0 -0 0.000165154)
(0 -0 0.000181411)
(0 -0 0.00019527)
(0 -0 0.00020532)
(0 -0 0.000210234)
(0 -0 0.000209023)
(0 -0 0.000201271)
(0 -0 0.000187265)
(0 -0 0.000168)
(0 -0 0.000145053)
(0 -0 0.000120326)
(0 -0 9.5734e-05)
(0 -0 7.30445e-05)
(0 -0 -0.0152298)
(0 -0 -0.0135795)
(0 -0 -0.0120256)
(0 -0 -0.0105727)
(0 -0 -0.00922531)
(0 -0 -0.00798563)
(0 -0 -0.00685446)
(0 -0 -0.00583095)
(0 -0 -0.00491295)
(0 -0 -0.00409714)
(0 -0 -0.00337916)
(0 -0 -0.00275375)
(0 -0 -0.0022149)
(0 -0 -0.00175599)
(0 -0 -0.00136997)
(0 -0 -0.00104951)
(0 -0 -0.000787174)
(0 -0 -0.000575583)
(0 -0 -0.000407552)
(0 -0 -0.000276231)
(0 -0 -0.000175215)
(0 -0 -9.86292e-05)
(0 -0 -4.11858e-05)
(0 -0 1.77735e-06)
(0 -0 3.42831e-05)
(0 -0 5.97119e-05)
(0 -0 8.08053e-05)
(0 -0 9.96683e-05)
(0 -0 0.000117767)
(0 -0 0.000135927)
(0 -0 0.000154337)
(0 -0 0.000172582)
(0 -0 0.00018972)
(0 -0 0.000204424)
(0 -0 0.000215188)
(0 -0 0.000220586)
(0 -0 0.000219554)
(0 -0 0.000211623)
(0 -0 0.000197075)
(0 -0 0.000176943)
(0 -0 0.000152879)
(0 -0 0.000126891)
(0 -0 0.000101002)
(0 -0 7.70998e-05)
(0 -0 -0.0157432)
(0 -0 -0.0140208)
(0 -0 -0.0124053)
(0 -0 -0.0108994)
(0 -0 -0.00950503)
(0 -0 -0.00822345)
(0 -0 -0.00705489)
(0 -0 -0.0059981)
(0 -0 -0.00505066)
(0 -0 -0.00420903)
(0 -0 -0.00346863)
(0 -0 -0.00282399)
(0 -0 -0.00226886)
(0 -0 -0.00179638)
(0 -0 -0.00139925)
(0 -0 -0.00106987)
(0 -0 -0.000800541)
(0 -0 -0.000583606)
(0 -0 -0.000411629)
(0 -0 -0.000277516)
(0 -0 -0.000174632)
(0 -0 -9.68969e-05)
(0 -0 -3.88373e-05)
(0 -0 4.37029e-06)
(0 -0 3.68865e-05)
(0 -0 6.22072e-05)
(0 -0 8.31674e-05)
(0 -0 0.000101944)
(0 -0 0.000120055)
(0 -0 0.000138354)
(0 -0 0.00015704)
(0 -0 0.000175683)
(0 -0 0.000193309)
(0 -0 0.000208539)
(0 -0 0.000219802)
(0 -0 0.000225606)
(0 -0 0.000224826)
(0 -0 0.000216952)
(0 -0 0.000202245)
(0 -0 0.00018175)
(0 -0 0.000157155)
(0 -0 0.000130525)
(0 -0 0.000103947)
(0 -0 7.93877e-05)
(0 -0 -0.0160263)
(0 -0 -0.0142553)
(0 -0 -0.0125993)
(0 -0 -0.0110595)
(0 -0 -0.00963635)
(0 -0 -0.0083303)
(0 -0 -0.00714087)
(0 -0 -0.0060663)
(0 -0 -0.00510378)
(0 -0 -0.00424943)
(0 -0 -0.00349843)
(0 -0 -0.00284505)
(0 -0 -0.00228286)
(0 -0 -0.0018048)
(0 -0 -0.00140337)
(0 -0 -0.0010708)
(0 -0 -0.000799219)
(0 -0 -0.000580822)
(0 -0 -0.000408019)
(0 -0 -0.000273583)
(0 -0 -0.000170762)
(0 -0 -9.33648e-05)
(0 -0 -3.58295e-05)
(0 -0 6.74588e-06)
(0 -0 3.85872e-05)
(0 -0 6.32438e-05)
(0 -0 8.35936e-05)
(0 -0 0.000101848)
(0 -0 0.000119548)
(0 -0 0.000137568)
(0 -0 0.000156111)
(0 -0 0.000174748)
(0 -0 0.000192492)
(0 -0 0.000207941)
(0 -0 0.000219493)
(0 -0 0.000225617)
(0 -0 0.000225149)
(0 -0 0.00021754)
(0 -0 0.000203026)
(0 -0 0.000182636)
(0 -0 0.000158057)
(0 -0 0.000131367)
(0 -0 0.000104673)
(0 -0 7.9984e-05)
(0 -0 -0.0160764)
(0 -0 -0.0142855)
(0 -0 -0.0126137)
(0 -0 -0.0110618)
(0 -0 -0.00962957)
(0 -0 -0.008317)
(0 -0 -0.0071231)
(0 -0 -0.00604569)
(0 -0 -0.00508161)
(0 -0 -0.0042267)
(0 -0 -0.0034759)
(0 -0 -0.00282332)
(0 -0 -0.00226236)
(0 -0 -0.00178583)
(0 -0 -0.00138613)
(0 -0 -0.00105542)
(0 -0 -0.000785745)
(0 -0 -0.00056925)
(0 -0 -0.000398304)
(0 -0 -0.000265649)
(0 -0 -0.00016451)
(0 -0 -8.86849e-05)
(0 -0 -3.26037e-05)
(0 -0 8.63764e-06)
(0 -0 3.92637e-05)
(0 -0 6.28215e-05)
(0 -0 8.21867e-05)
(0 -0 9.95696e-05)
(0 -0 0.000116515)
(0 -0 0.000133901)
(0 -0 0.00015194)
(0 -0 0.000170213)
(0 -0 0.00018774)
(0 -0 0.000203125)
(0 -0 0.000214765)
(0 -0 0.000221119)
(0 -0 0.000221001)
(0 -0 0.000213835)
(0 -0 0.000199821)
(0 -0 0.000179951)
(0 -0 0.000155879)
(0 -0 0.000129654)
(0 -0 0.000103363)
(0 -0 7.90234e-05)
(0 -0 -0.0159004)
(0 -0 -0.0141187)
(0 -0 -0.0124568)
(0 -0 -0.0109155)
(0 -0 -0.00949457)
(0 -0 -0.00819359)
(0 -0 -0.00701139)
(0 -0 -0.00594556)
(0 -0 -0.00499274)
(0 -0 -0.0041486)
(0 -0 -0.00340795)
(0 -0 -0.0027648)
(0 -0 -0.0022125)
(0 -0 -0.00174382)
(0 -0 -0.00135117)
(0 -0 -0.0010267)
(0 -0 -0.000762513)
(0 -0 -0.000550788)
(0 -0 -0.000383957)
(0 -0 -0.000254826)
(0 -0 -0.000156692)
(0 -0 -8.34235e-05)
(0 -0 -2.95202e-05)
(0 -0 9.85543e-06)
(0 -0 3.88683e-05)
(0 -0 6.1013e-05)
(0 -0 7.91229e-05)
(0 -0 9.53775e-05)
(0 -0 0.000111304)
(0 -0 0.000127775)
(0 -0 0.000145013)
(0 -0 0.000162617)
(0 -0 0.000179638)
(0 -0 0.000194708)
(0 -0 0.00020625)
(0 -0 0.00021274)
(0 -0 0.000212991)
(0 -0 0.000206407)
(0 -0 0.000193147)
(0 -0 0.000174148)
(0 -0 0.000151001)
(0 -0 0.000125694)
(0 -0 0.000100258)
(0 -0 7.6685e-05)
(0 -0 -0.0155138)
(0 -0 -0.0137685)
(0 -0 -0.0121411)
(0 -0 -0.0106326)
(0 -0 -0.00924252)
(0 -0 -0.00797058)
(0 -0 -0.00681553)
(0 -0 -0.00577491)
(0 -0 -0.00484532)
(0 -0 -0.00402239)
(0 -0 -0.00330095)
(0 -0 -0.00267502)
(0 -0 -0.00213799)
(0 -0 -0.00168273)
(0 -0 -0.00130174)
(0 -0 -0.000987297)
(0 -0 -0.000731636)
(0 -0 -0.000527088)
(0 -0 -0.000366237)
(0 -0 -0.000242047)
(0 -0 -0.000147967)
(0 -0 -7.80147e-05)
(0 -0 -2.68278e-05)
(0 -0 1.03046e-05)
(0 -0 3.74351e-05)
(0 -0 5.79626e-05)
(0 -0 7.4643e-05)
(0 -0 8.95989e-05)
(0 -0 0.000104322)
(0 -0 0.000119671)
(0 -0 0.000135878)
(0 -0 0.000152571)
(0 -0 0.000168844)
(0 -0 0.000183383)
(0 -0 0.000194662)
(0 -0 0.000201196)
(0 -0 0.000201814)
(0 -0 0.00019591)
(0 -0 0.000183598)
(0 -0 0.000165749)
(0 -0 0.000143867)
(0 -0 0.000119848)
(0 -0 9.56391e-05)
(0 -0 7.31795e-05)
(0 -0 -0.0149391)
(0 -0 -0.0132545)
(0 -0 -0.0116838)
(0 -0 -0.010228)
(0 -0 -0.00888669)
(0 -0 -0.00765973)
(0 -0 -0.00654594)
(0 -0 -0.00554295)
(0 -0 -0.00464741)
(0 -0 -0.00385509)
(0 -0 -0.00316091)
(0 -0 -0.00255906)
(0 -0 -0.0020431)
(0 -0 -0.00160607)
(0 -0 -0.0012407)
(0 -0 -0.000939489)
(0 -0 -0.000694902)
(0 -0 -0.000499517)
(0 -0 -0.00034616)
(0 -0 -0.000228034)
(0 -0 -0.000138819)
(0 -0 -7.27469e-05)
(0 -0 -2.46557e-05)
(0 -0 9.98642e-06)
(0 -0 3.50747e-05)
(0 -0 5.38749e-05)
(0 -0 6.90358e-05)
(0 -0 8.25999e-05)
(0 -0 9.60078e-05)
(0 -0 0.000110098)
(0 -0 0.000125111)
(0 -0 0.00014071)
(0 -0 0.000156048)
(0 -0 0.00016988)
(0 -0 0.000180753)
(0 -0 0.00018724)
(0 -0 0.000188205)
(0 -0 0.000183037)
(0 -0 0.00017181)
(0 -0 0.000155315)
(0 -0 0.000134952)
(0 -0 0.000112506)
(0 -0 8.98114e-05)
(0 -0 6.87366e-05)
(0 -0 -0.0142044)
(0 -0 -0.0126009)
(0 -0 -0.0111056)
(0 -0 -0.00971953)
(0 -0 -0.00844247)
(0 -0 -0.00727429)
(0 -0 -0.00621399)
(0 -0 -0.00525937)
(0 -0 -0.00440726)
(0 -0 -0.00365363)
(0 -0 -0.00299365)
(0 -0 -0.00242175)
(0 -0 -0.00193175)
(0 -0 -0.00151702)
(0 -0 -0.00117057)
(0 -0 -0.000885231)
(0 -0 -0.000653796)
(0 -0 -0.00046917)
(0 -0 -0.000324503)
(0 -0 -0.000213309)
(0 -0 -0.000129562)
(0 -0 -6.77712e-05)
(0 -0 -2.30246e-05)
(0 -0 8.98551e-06)
(0 -0 3.19592e-05)
(0 -0 4.89976e-05)
(0 -0 6.26172e-05)
(0 -0 7.47615e-05)
(0 -0 8.68073e-05)
(0 -0 9.95649e-05)
(0 -0 0.000113282)
(0 -0 0.000127663)
(0 -0 0.000141928)
(0 -0 0.000154917)
(0 -0 0.000165266)
(0 -0 0.000171622)
(0 -0 0.000172896)
(0 -0 0.000168484)
(0 -0 0.00015842)
(0 -0 0.00014341)
(0 -0 0.00012474)
(0 -0 0.000104063)
(0 -0 8.30872e-05)
(0 -0 6.35918e-05)
(0 -0 -0.0133412)
(0 -0 -0.011835)
(0 -0 -0.01043)
(0 -0 -0.00912739)
(0 -0 -0.00792697)
(0 -0 -0.00682873)
(0 -0 -0.00583187)
(0 -0 -0.00493438)
(0 -0 -0.00413336)
(0 -0 -0.00342504)
(0 -0 -0.0028049)
(0 -0 -0.0022677)
(0 -0 -0.00180765)
(0 -0 -0.00141847)
(0 -0 -0.00109358)
(0 -0 -0.000826206)
(0 -0 -0.000609549)
(0 -0 -0.000436916)
(0 -0 -0.000301844)
(0 -0 -0.000198221)
(0 -0 -0.000120371)
(0 -0 -6.31264e-05)
(0 -0 -2.1869e-05)
(0 -0 7.44895e-06)
(0 -0 2.83016e-05)
(0 -0 4.36004e-05)
(0 -0 5.57091e-05)
(0 -0 6.64569e-05)
(0 -0 7.71455e-05)
(0 -0 8.85508e-05)
(0 -0 0.000100926)
(0 -0 0.000114018)
(0 -0 0.000127121)
(0 -0 0.000139171)
(0 -0 0.000148902)
(0 -0 0.00015505)
(0 -0 0.000156585)
(0 -0 0.000152916)
(0 -0 0.00014404)
(0 -0 0.00013058)
(0 -0 0.000113696)
(0 -0 9.4902e-05)
(0 -0 7.57697e-05)
(0 -0 5.79753e-05)
(0 -0 -0.0123825)
(0 -0 -0.0109853)
(0 -0 -0.00968175)
(0 -0 -0.0084727)
(0 -0 -0.00735816)
(0 -0 -0.00633822)
(0 -0 -0.00541227)
(0 -0 -0.00457853)
(0 -0 -0.00383437)
(0 -0 -0.00317636)
(0 -0 -0.00260032)
(0 -0 -0.00210144)
(0 -0 -0.00167431)
(0 -0 -0.00131313)
(0 -0 -0.00101176)
(0 -0 -0.000763896)
(0 -0 -0.000563207)
(0 -0 -0.000403452)
(0 -0 -0.000278613)
(0 -0 -0.000182996)
(0 -0 -0.000111319)
(0 -0 -5.8773e-05)
(0 -0 -2.10666e-05)
(0 -0 5.56016e-06)
(0 -0 2.43327e-05)
(0 -0 3.79537e-05)
(0 -0 4.86189e-05)
(0 -0 5.80311e-05)
(0 -0 6.74081e-05)
(0 -0 7.74854e-05)
(0 -0 8.85186e-05)
(0 -0 0.000100299)
(0 -0 0.000112196)
(0 -0 0.000123245)
(0 -0 0.00013229)
(0 -0 0.000138164)
(0 -0 0.000139902)
(0 -0 0.000136936)
(0 -0 0.00012923)
(0 -0 0.000117321)
(0 -0 0.000102248)
(0 -0 8.5379e-05)
(0 -0 6.8141e-05)
(0 -0 5.21019e-05)
(0 -0 -0.0113609)
(0 -0 -0.0100806)
(0 -0 -0.00888551)
(0 -0 -0.00777667)
(0 -0 -0.00675409)
(0 -0 -0.00581798)
(0 -0 -0.00496791)
(0 -0 -0.00420233)
(0 -0 -0.0035189)
(0 -0 -0.00291455)
(0 -0 -0.00238548)
(0 -0 -0.00192731)
(0 -0 -0.00153511)
(0 -0 -0.00120355)
(0 -0 -0.000926988)
(0 -0 -0.000699644)
(0 -0 -0.000515684)
(0 -0 -0.000369364)
(0 -0 -0.000255144)
(0 -0 -0.000167782)
(0 -0 -0.000102417)
(0 -0 -5.46276e-05)
(0 -0 -2.04686e-05)
(0 -0 3.51316e-06)
(0 -0 2.02789e-05)
(0 -0 3.23097e-05)
(0 -0 4.16226e-05)
(0 -0 4.97854e-05)
(0 -0 5.79256e-05)
(0 -0 6.67328e-05)
(0 -0 7.64621e-05)
(0 -0 8.69454e-05)
(0 -0 9.76297e-05)
(0 -0 0.000107653)
(0 -0 0.000115969)
(0 -0 0.000121513)
(0 -0 0.000123393)
(0 -0 0.000121067)
(0 -0 0.000114475)
(0 -0 0.000104072)
(0 -0 9.07748e-05)
(0 -0 7.58078e-05)
(0 -0 6.04519e-05)
(0 -0 4.61639e-05)
(0 -0 -0.0103075)
(0 -0 -0.0091478)
(0 -0 -0.00806482)
(0 -0 -0.00705956)
(0 -0 -0.00613205)
(0 -0 -0.00528264)
(0 -0 -0.00451103)
(0 -0 -0.00381591)
(0 -0 -0.00319524)
(0 -0 -0.0026463)
(0 -0 -0.0021657)
(0 -0 -0.00174949)
(0 -0 -0.00139324)
(0 -0 -0.00109212)
(0 -0 -0.000841017)
(0 -0 -0.00063468)
(0 -0 -0.000467804)
(0 -0 -0.000335163)
(0 -0 -0.000231713)
(0 -0 -0.000152684)
(0 -0 -9.36517e-05)
(0 -0 -5.05947e-05)
(0 -0 -1.99264e-05)
(0 -0 1.49e-06)
(0 -0 1.63434e-05)
(0 -0 2.68864e-05)
(0 -0 3.49515e-05)
(0 -0 4.19664e-05)
(0 -0 4.89635e-05)
(0 -0 5.65828e-05)
(0 -0 6.50744e-05)
(0 -0 7.43081e-05)
(0 -0 8.38053e-05)
(0 -0 9.28044e-05)
(0 -0 0.00010037)
(0 -0 0.000105541)
(0 -0 0.000107502)
(0 -0 0.000105742)
(0 -0 0.00010018)
(0 -0 9.1197e-05)
(0 -0 7.95934e-05)
(0 -0 6.64536e-05)
(0 -0 5.29155e-05)
(0 -0 4.03258e-05)
(0 -0 -0.00925036)
(0 -0 -0.00821158)
(0 -0 -0.00724112)
(0 -0 -0.00633988)
(0 -0 -0.00550791)
(0 -0 -0.00474562)
(0 -0 -0.00405289)
(0 -0 -0.00342861)
(0 -0 -0.00287105)
(0 -0 -0.0023778)
(0 -0 -0.0019459)
(0 -0 -0.00157184)
(0 -0 -0.00125166)
(0 -0 -0.000981065)
(0 -0 -0.000755464)
(0 -0 -0.000570139)
(0 -0 -0.000420323)
(0 -0 -0.000301315)
(0 -0 -0.000208571)
(0 -0 -0.000137797)
(0 -0 -8.50102e-05)
(0 -0 -4.65902e-05)
(0 -0 -1.93119e-05)
(0 -0 -3.55885e-07)
(0 -0 1.2693e-05)
(0 -0 2.18575e-05)
(0 -0 2.87846e-05)
(0 -0 3.476e-05)
(0 -0 4.07186e-05)
(0 -0 4.72474e-05)
(0 -0 5.45879e-05)
(0 -0 6.26433e-05)
(0 -0 7.10043e-05)
(0 -0 7.90057e-05)
(0 -0 8.58203e-05)
(0 -0 9.05888e-05)
(0 -0 9.25716e-05)
(0 -0 9.12954e-05)
(0 -0 8.66607e-05)
(0 -0 7.8984e-05)
(0 -0 6.8956e-05)
(0 -0 5.75289e-05)
(0 -0 4.57039e-05)
(0 -0 3.47215e-05)
(0 -0 -0.00821363)
(0 -0 -0.00729331)
(0 -0 -0.0064331)
(0 -0 -0.00563382)
(0 -0 -0.00489554)
(0 -0 -0.00421876)
(0 -0 -0.00360345)
(0 -0 -0.00304874)
(0 -0 -0.00255313)
(0 -0 -0.00211458)
(0 -0 -0.0017305)
(0 -0 -0.00139781)
(0 -0 -0.00111305)
(0 -0 -0.000872391)
(0 -0 -0.00067179)
(0 -0 -0.00050705)
(0 -0 -0.000373933)
(0 -0 -0.000268251)
(0 -0 -0.000185957)
(0 -0 -0.000123221)
(0 -0 -7.6496e-05)
(0 -0 -4.25559e-05)
(0 -0 -1.85298e-05)
(0 -0 -1.90996e-06)
(0 -0 9.45004e-06)
(0 -0 1.73475e-05)
(0 -0 2.32461e-05)
(0 -0 2.82913e-05)
(0 -0 3.33198e-05)
(0 -0 3.8864e-05)
(0 -0 4.51527e-05)
(0 -0 5.21174e-05)
(0 -0 5.94124e-05)
(0 -0 6.64623e-05)
(0 -0 7.2542e-05)
(0 -0 7.68904e-05)
(0 -0 7.88436e-05)
(0 -0 7.79654e-05)
(0 -0 7.41462e-05)
(0 -0 6.76435e-05)
(0 -0 5.90492e-05)
(0 -0 4.91927e-05)
(0 -0 3.89474e-05)
(0 -0 2.94535e-05)
(0 -0 -0.00721743)
(0 -0 -0.0064107)
(0 -0 -0.00565626)
(0 -0 -0.00495486)
(0 -0 -0.00430659)
(0 -0 -0.00371196)
(0 -0 -0.00317109)
(0 -0 -0.00268327)
(0 -0 -0.00224727)
(0 -0 -0.00186134)
(0 -0 -0.00152326)
(0 -0 -0.00123039)
(0 -0 -0.000979688)
(0 -0 -0.000767833)
(0 -0 -0.000591273)
(0 -0 -0.000446323)
(0 -0 -0.000329251)
(0 -0 -0.000236366)
(0 -0 -0.000164098)
(0 -0 -0.000109065)
(0 -0 -6.81358e-05)
(0 -0 -3.84655e-05)
(0 -0 -1.75231e-05)
(0 -0 -3.10036e-06)
(0 -0 6.69114e-06)
(0 -0 1.34313e-05)
(0 -0 1.84073e-05)
(0 -0 2.2628e-05)
(0 -0 2.68339e-05)
(0 -0 3.15016e-05)
(0 -0 3.68445e-05)
(0 -0 4.28166e-05)
(0 -0 4.91289e-05)
(0 -0 5.52876e-05)
(0 -0 6.0663e-05)
(0 -0 6.45859e-05)
(0 -0 6.64651e-05)
(0 -0 6.59026e-05)
(0 -0 6.27833e-05)
(0 -0 5.73139e-05)
(0 -0 4.99977e-05)
(0 -0 4.15531e-05)
(0 -0 3.27361e-05)
(0 -0 2.45943e-05)
(0 -0 -0.00627748)
(0 -0 -0.00557764)
(0 -0 -0.00492281)
(0 -0 -0.00431365)
(0 -0 -0.00375023)
(0 -0 -0.00323311)
(0 -0 -0.00276248)
(0 -0 -0.00233781)
(0 -0 -0.00195809)
(0 -0 -0.00162186)
(0 -0 -0.00132725)
(0 -0 -0.00107198)
(0 -0 -0.000853465)
(0 -0 -0.000668823)
(0 -0 -0.000514978)
(0 -0 -0.000388725)
(0 -0 -0.000286811)
(0 -0 -0.000206013)
(0 -0 -0.000143209)
(0 -0 -9.54446e-05)
(0 -0 -5.99785e-05)
(0 -0 -3.43246e-05)
(0 -0 -1.62725e-05)
(0 -0 -3.89616e-06)
(0 -0 4.44939e-06)
(0 -0 1.01389e-05)
(0 -0 1.42922e-05)
(0 -0 1.77879e-05)
(0 -0 2.12739e-05)
(0 -0 2.51715e-05)
(0 -0 2.96757e-05)
(0 -0 3.47581e-05)
(0 -0 4.01785e-05)
(0 -0 4.55167e-05)
(0 -0 5.02291e-05)
(0 -0 5.37316e-05)
(0 -0 5.55015e-05)
(0 -0 5.51786e-05)
(0 -0 5.26462e-05)
(0 -0 4.80684e-05)
(0 -0 4.18707e-05)
(0 -0 3.46724e-05)
(0 -0 2.71236e-05)
(0 -0 2.01882e-05)
(0 -0 -0.00540519)
(0 -0 -0.00480427)
(0 -0 -0.00424168)
(0 -0 -0.00371797)
(0 -0 -0.00323321)
(0 -0 -0.00278798)
(0 -0 -0.00238254)
(0 -0 -0.00201649)
(0 -0 -0.00168904)
(0 -0 -0.00139897)
(0 -0 -0.00114474)
(0 -0 -0.000924422)
(0 -0 -0.000735817)
(0 -0 -0.000576468)
(0 -0 -0.000443737)
(0 -0 -0.000334865)
(0 -0 -0.000247044)
(0 -0 -0.000177485)
(0 -0 -0.000123483)
(0 -0 -8.24766e-05)
(0 -0 -5.20887e-05)
(0 -0 -3.01645e-05)
(0 -0 -1.47905e-05)
(0 -0 -4.30176e-06)
(0 -0 2.72088e-06)
(0 -0 7.46189e-06)
(0 -0 1.08852e-05)
(0 -0 1.37477e-05)
(0 -0 1.66095e-05)
(0 -0 1.98379e-05)
(0 -0 2.3608e-05)
(0 -0 2.79037e-05)
(0 -0 3.25265e-05)
(0 -0 3.71206e-05)
(0 -0 4.12192e-05)
(0 -0 4.43157e-05)
(0 -0 4.59501e-05)
(0 -0 4.57993e-05)
(0 -0 4.3748e-05)
(0 -0 3.99251e-05)
(0 -0 3.46893e-05)
(0 -0 2.85728e-05)
(0 -0 2.21317e-05)
(0 -0 1.62554e-05)
(0 -0 -0.00460799)
(0 -0 -0.00409719)
(0 -0 -0.00361869)
(0 -0 -0.00317294)
(0 -0 -0.00275999)
(0 -0 -0.00238042)
(0 -0 -0.00203455)
(0 -0 -0.00172209)
(0 -0 -0.00144243)
(0 -0 -0.00119459)
(0 -0 -0.000977301)
(0 -0 -0.000788965)
(0 -0 -0.000627734)
(0 -0 -0.000491538)
(0 -0 -0.000378138)
(0 -0 -0.000285183)
(0 -0 -0.000210271)
(0 -0 -0.00015101)
(0 -0 -0.000105077)
(0 -0 -7.02676e-05)
(0 -0 -4.45373e-05)
(0 -0 -2.60334e-05)
(0 -0 -1.31129e-05)
(0 -0 -4.34861e-06)
(0 -0 1.47292e-06)
(0 -0 5.36239e-06)
(0 -0 8.14101e-06)
(0 -0 1.04536e-05)
(0 -0 1.27783e-05)
(0 -0 1.5431e-05)
(0 -0 1.85656e-05)
(0 -0 2.21743e-05)
(0 -0 2.60932e-05)
(0 -0 3.00217e-05)
(0 -0 3.35609e-05)
(0 -0 3.62728e-05)
(0 -0 3.77549e-05)
(0 -0 3.77185e-05)
(0 -0 3.60527e-05)