/*--------------------------------*- C++ -*----------------------------------*\
| =========                 |                                                 |
| \\      /  F ield         | OpenFOAM: The Open Source CFD Toolbox           |
|  \\    /   O peration     | Version:  2412                                  |
|   \\  /    A nd           | Website:  www.openfoam.com                      |
|    \\/     M anipulation  |                                                 |
\*---------------------------------------------------------------------------*/
FoamFile
{
    version     2.0;
    format      ascii;
    arch        "LSB;label=32;scalar=64";
    class       volVectorField;
    location    "22";
    object      vorticity;
}
// * * * * * * * * * * * * * * * * * * * * * * * * * * * * * * * * * * * * * //

dimensions      [0 0 -1 0 0 0 0];

internalField   nonuniform List<vector> 
5285
(
(2.32705e-21 -6.47777e-20 -4.99315e-05)
(-1.82533e-21 7.63081e-21 -5.78276e-05)
(-1.85439e-22 -7.12119e-21 -6.65693e-05)
(7.07364e-23 7.12533e-21 -7.62755e-05)
(-3.09323e-24 -1.26517e-22 -8.70328e-05)
(-6.5701e-23 -6.8725e-21 -9.89587e-05)
(-1.97804e-21 6.93124e-21 -0.000112178)
(4.13598e-21 1.2713e-23 -0.000126828)
(1.20603e-21 6.72847e-21 -0.000143059)
(-3.22252e-21 -5.22972e-24 -0.000161043)
(4.63617e-21 7.80904e-21 -0.000180978)
(-5.4457e-21 1.01358e-19 -0.000203102)
(6.83804e-22 -1.08837e-19 -0.000227715)
(-2.10539e-21 9.93917e-20 -0.000255214)
(2.05114e-21 -1.00516e-19 -0.000286152)
(4.77051e-23 1.31915e-21 -0.000321352)
(-6.20617e-23 -1.61868e-21 -0.000362091)
(2.74102e-21 -9.50632e-20 -0.000410443)
(-8.5158e-21 9.22516e-20 -0.000469883)
(-3.08978e-22 -1.5215e-21 -0.000546331)
(6.09554e-21 1.33315e-23 -0.000649948)
(6.62297e-21 1.44851e-23 -0.000798086)
(-6.60178e-21 -1.44387e-23 -0.00101997)
(-2.18754e-22 -4.78437e-25 -0.00136369)
(-2.28002e-22 -4.98663e-25 -0.00190615)
(-7.84258e-21 -1.71525e-23 -0.00276574)
(7.57018e-21 1.65567e-23 -0.00411694)
(-2.49814e-22 1.48571e-22 -0.00620365)
(-3.35075e-23 7.68726e-21 -0.00934586)
(-2.42146e-20 4.97335e-20 -0.0139312)
(2.33235e-20 -6.55397e-20 -0.0203793)
(-5.46775e-21 -9.29355e-21 -0.0290652)
(6.00981e-21 2.54359e-20 -0.0401976)
(-1.99723e-20 -5.57559e-21 -0.0535715)
(1.63569e-21 -2.24077e-19 -0.000156481)
(-5.53379e-21 2.40126e-19 -0.000181072)
(-2.95208e-22 1.94449e-20 -0.000208381)
(-3.77434e-21 -7.28206e-21 -0.000238659)
(3.99061e-21 1.42764e-22 -0.000272255)
(-4.00418e-21 9.03506e-21 -0.000309545)
(9.59134e-22 2.08493e-19 -0.000350924)
(5.91787e-21 -4.41396e-19 -0.000396832)
(4.49434e-21 -2.10836e-19 -0.000447755)
(-6.99704e-21 4.26834e-19 -0.000504246)
(3.70456e-21 -4.25508e-19 -0.000566947)
(-2.06233e-21 4.36578e-19 -0.000636628)
(3.2312e-21 1.4621e-21 -0.000714248)
(-3.66064e-21 -9.59296e-23 -0.00080107)
(-1.22986e-21 -2.68982e-24 -0.000898843)
(0 -0 -0.00101013)
(1.81729e-22 9.43012e-23 -0.00113887)
(1.08602e-20 1.2184e-20 -0.00129145)
(-1.56835e-20 3.56001e-19 -0.00147847)
(-1.55094e-20 -2.39758e-20 -0.001718)
(1.84778e-20 -3.51048e-19 -0.00204093)
(2.63247e-20 -3.03183e-19 -0.00250001)
(-9.43375e-21 3.23857e-19 -0.00318398)
(-3.06351e-20 2.15354e-21 -0.0042388)
(2.98835e-20 1.70509e-20 -0.00589753)
(-4.15944e-20 2.30671e-19 -0.00851868)
(2.25761e-20 -2.3993e-19 -0.01263)
(-1.76844e-20 1.44148e-20 -0.0189686)
(1.95945e-20 7.5745e-21 -0.0285006)
(-5.88334e-20 1.11286e-19 -0.0423957)
(5.87558e-20 -1.08932e-19 -0.0619162)
(-9.01564e-20 8.12624e-20 -0.0881709)
(8.70018e-20 -9.07491e-20 -0.121716)
(-1.84462e-20 -6.22027e-22 -0.160584)
(-4.77683e-21 -1.19997e-20 -0.000283275)
(-4.77836e-21 4.64394e-19 -0.000327472)
(4.07782e-22 -1.40957e-20 -0.000376546)
(-1.23838e-20 4.50914e-19 -0.000431058)
(1.23085e-20 -4.68287e-19 -0.000491642)
(-9.23148e-21 4.47143e-19 -0.000559001)
(2.51976e-21 -4.65071e-19 -0.000633888)
(5.18146e-21 -9.2921e-21 -0.000717139)
(-2.5762e-21 1.36274e-20 -0.000809689)
(5.49695e-21 -8.79416e-21 -0.000912602)
(-1.88981e-20 4.19017e-19 -0.00102711)
(1.70162e-20 -4.4656e-19 -0.0011547)
(1.85334e-20 -4.14878e-19 -0.00129718)
(-1.52453e-20 4.1676e-19 -0.0014569)
(-1.07328e-21 -5.12445e-21 -0.00163708)
(1.11057e-20 -1.20178e-22 -0.00184231)
(-1.26969e-20 -2.45639e-20 -0.00207958)
(5.33798e-20 -7.56979e-19 -0.00236001)
(1.64541e-20 5.59897e-20 -0.00270191)
(-7.01449e-20 7.12702e-19 -0.00313627)
(3.91545e-21 -1.22224e-20 -0.00371596)
(-1.1335e-20 -4.7951e-21 -0.00453098)
(1.09695e-19 -5.97732e-19 -0.00573257)
(-2.04099e-19 1.17376e-18 -0.00756925)
(2.08125e-19 -1.16591e-18 -0.0104372)
(7.03883e-20 8.43498e-20 -0.014945)
(-1.56005e-19 5.10247e-19 -0.0219874)
(-1.63524e-19 3.5181e-19 -0.032813)
(1.54572e-19 -4.17073e-19 -0.0490596)
(-2.19269e-20 1.9223e-20 -0.0727123)
(5.41681e-20 -1.71004e-20 -0.105913)
(1.62481e-19 -1.00883e-19 -0.150499)
(-1.75905e-19 1.5755e-19 -0.207204)
(-2.50743e-20 -4.04247e-20 -0.268262)
(-1.00188e-20 4.78155e-19 -0.00044573)
(-7.03571e-22 -3.74058e-21 -0.000514485)
(4.47723e-21 3.88708e-21 -0.000590995)
(-7.78194e-21 4.40978e-19 -0.000676165)
(-1.72897e-21 -4.63091e-19 -0.000771035)
(1.46984e-20 1.26665e-20 -0.000876768)
(-3.39085e-20 8.88991e-19 -0.000994628)
(2.58034e-20 -8.91891e-19 -0.00112603)
(2.26408e-21 -5.34964e-21 -0.00127256)
(-9.69088e-21 -9.05058e-23 -0.00143603)
(1.47456e-20 -1.34773e-20 -0.00161857)
(-4.78962e-21 1.22822e-22 -0.00182265)
(-5.25767e-21 -6.48564e-23 -0.00205135)
(5.0085e-21 1.94635e-22 -0.00230853)
(-3.71628e-21 1.45374e-21 -0.00259934)
(6.36317e-20 -7.87061e-19 -0.00293099)
(-5.77507e-20 8.09421e-19 -0.00331413)
(-1.59894e-20 2.19609e-22 -0.00376536)
(1.86348e-20 -1.02843e-20 -0.00431161)
(-9.92829e-20 7.21927e-19 -0.00499795)
(1.15676e-19 -7.25098e-19 -0.00590088)
(-2.25417e-20 2.18367e-21 -0.0071502)
(1.59326e-20 -9.25879e-23 -0.00896375)
(3.78784e-20 6.35994e-21 -0.0116992)
(-2.4683e-19 5.40836e-19 -0.0159263)
(3.66459e-19 -1.09614e-18 -0.0225198)
(-1.78907e-19 5.55311e-19 -0.032766)
(2.59196e-19 -4.2464e-19 -0.0484633)
(-2.50953e-19 5.00206e-19 -0.0719838)
(-5.83545e-19 5.15717e-19 -0.106234)
(1.10138e-18 -1.09272e-18 -0.154395)
(-5.3897e-19 5.51692e-19 -0.219195)
(1.86089e-20 -2.12551e-21 -0.301357)
(4.47946e-21 -3.46627e-20 -0.379815)
(4.14577e-21 3.68769e-21 -0.000661803)
(-5.4879e-21 4.51765e-19 -0.000762578)
(2.03538e-20 -4.88845e-19 -0.000875003)
(6.28638e-21 2.67923e-20 -0.0010005)
(-4.60297e-20 9.31278e-19 -0.00114068)
(2.94863e-20 -9.33869e-19 -0.00129739)
(1.00957e-20 2.25185e-20 -0.00147265)
(-1.79197e-20 -2.31613e-22 -0.00166874)
(1.1726e-20 9.57034e-21 -0.00188824)
(-3.93862e-20 8.94545e-19 -0.00213413)
(3.26226e-20 -8.86092e-19 -0.00240983)
(2.81748e-21 9.55535e-21 -0.00271942)
(9.44626e-21 2.71404e-20 -0.0030678)
(-1.14272e-20 -5.45799e-22 -0.00346107)
(1.18586e-21 -1.29746e-20 -0.00390715)
(-3.70694e-20 1.3172e-20 -0.00441674)
(3.48395e-20 1.25453e-20 -0.00500518)
(-3.07319e-21 -2.50998e-20 -0.00569564)
(8.32945e-20 -7.3573e-19 -0.00652486)
(-7.44501e-20 7.58368e-19 -0.00755334)
(2.70602e-19 -1.45842e-18 -0.00888273)
(-2.48374e-19 1.47255e-18 -0.0106848)
(3.0712e-19 -1.37701e-18 -0.0132475)
(7.086e-20 1.31455e-19 -0.0170436)
(-3.52702e-19 1.31147e-18 -0.0228272)
(-1.19716e-19 -2.19839e-20 -0.0317585)
(1.62973e-20 3.84352e-22 -0.0455489)
(-1.81415e-20 5.57012e-22 -0.0666096)
(5.35989e-20 1.64697e-21 -0.0981702)
(2.57591e-20 1.34385e-20 -0.144314)
(-1.11875e-19 5.07599e-21 -0.209772)
(6.37284e-20 4.91874e-21 -0.298966)
(-1.63226e-22 -3.06445e-22 -0.413113)
(3.56614e-20 6.3026e-22 -0.505364)
(-3.25753e-21 6.56279e-21 -0.000952804)
(3.87874e-20 -9.51203e-19 -0.00109589)
(3.02532e-20 -9.13116e-19 -0.001256)
(6.57275e-21 2.11694e-20 -0.00143528)
(-2.73941e-20 9.48261e-19 -0.00163623)
(-1.99755e-20 -8.01824e-21 -0.00186166)
(1.21971e-20 8.88063e-21 -0.00211472)
(-5.15726e-20 9.17737e-19 -0.002399)
(4.21014e-20 -9.32146e-19 -0.00271861)
(7.36388e-20 -8.95207e-19 -0.00307826)
(-7.48602e-20 9.24608e-19 -0.00348346)
(1.49574e-20 -1.98652e-20 -0.00394067)
(6.88942e-20 -8.91939e-19 -0.00445761)
(-9.64427e-20 9.14641e-19 -0.00504377)
(4.34143e-21 1.22494e-20 -0.00571105)
(-2.09341e-19 1.67409e-18 -0.00647512)
(1.89688e-19 -1.73674e-18 -0.0073575)
(4.8082e-20 6.15849e-20 -0.00838949)
(-2.69294e-19 1.58331e-18 -0.00961909)
(2.47225e-19 -1.6508e-18 -0.0111233)
(-3.13027e-20 -3.25449e-21 -0.0130296)
(4.7209e-19 -1.48715e-18 -0.0155516)
(-4.42117e-19 1.53576e-18 -0.0190467)
(-6.55823e-20 -7.18276e-20 -0.0241034)
(6.76146e-19 -1.29642e-18 -0.0316645)
(-1.19024e-18 2.67265e-18 -0.0431887)
(-6.465e-20 -1.54586e-19 -0.0608451)
(-8.65808e-20 -1.21376e-19 -0.0877276)
(7.65372e-19 -1.16196e-18 -0.12808)
(3.91016e-20 6.23515e-20 -0.187554)
(-8.60185e-19 7.68499e-19 -0.273501)
(8.43348e-19 -8.45267e-19 -0.394759)
(8.96421e-21 2.8683e-20 -0.557668)
(9.19603e-21 -2.69218e-21 -0.669428)
(-1.62395e-21 -2.01828e-20 -0.00129478)
(2.80453e-20 -9.89355e-19 -0.00148183)
(-5.35629e-21 -7.71602e-21 -0.00169082)
(-1.69211e-22 1.18494e-22 -0.00192438)
(1.13716e-20 8.38109e-21 -0.00218558)
(-5.37883e-20 9.51438e-19 -0.00247783)
(4.80924e-20 -9.71797e-19 -0.00280494)
(1.26943e-20 8.28631e-21 -0.00317119)
(-8.63419e-21 -1.48893e-20 -0.00358136)
(-6.13344e-21 9.84288e-21 -0.00404085)
(-7.53881e-20 9.17842e-19 -0.00455571)
(1.61897e-19 -1.87218e-18 -0.00513285)
(-7.69152e-20 9.76083e-19 -0.00578015)
(-1.94744e-19 1.80862e-18 -0.00650684)
(-3.0422e-20 -4.56083e-20 -0.00732393)
(2.42696e-21 -2.67412e-20 -0.00824524)
(-6.58002e-20 -5.39062e-20 -0.00928918)
(2.6196e-19 -1.80622e-18 -0.0104822)
(4.01016e-19 -1.6715e-18 -0.0118655)
(-3.5859e-19 1.75411e-18 -0.0135072)
(-3.36931e-20 -5.45053e-20 -0.0155252)
(4.74333e-19 -1.5969e-18 -0.0181266)
(-4.19082e-19 1.69114e-18 -0.0216728)
(-6.67056e-19 1.50132e-18 -0.0267834)
(5.67895e-19 -1.58535e-18 -0.0344887)
(7.75699e-20 -1.10929e-20 -0.0464376)
(8.63702e-19 -1.39891e-18 -0.0651602)
(1.18814e-19 1.21839e-19 -0.0943755)
(-9.96387e-19 1.3694e-18 -0.139352)
(-1.6071e-20 -3.92057e-20 -0.207398)
(3.32374e-20 5.2188e-22 -0.309196)
(-3.34708e-20 1.56206e-20 -0.463633)
(-5.05977e-19 5.29241e-19 -0.707237)
(4.97264e-19 -5.38487e-19 -0.970637)
(-1.07255e-20 -3.16357e-21 0.00993072)
(-1.07192e-20 -4.41826e-22 0.00525248)
(1.00488e-20 1.00104e-20 0.00129415)
(-6.93318e-21 2.40206e-21 -0.00201437)
(7.45754e-21 -1.18815e-20 -0.00474972)
(5.87405e-23 3.52817e-21 -0.00699036)
(-1.72612e-22 -9.75624e-23 -0.00880987)
(-5.59415e-21 1.2235e-23 -0.0102711)
(5.43824e-21 -1.1894e-23 -0.0114254)
(-1.62578e-22 3.55574e-25 -0.0123164)
(-1.56321e-22 3.41889e-25 -0.0129809)
(4.62813e-21 -1.01222e-23 -0.0134493)
(-4.643e-21 1.01547e-23 -0.0137464)
(-4.14196e-21 9.05888e-24 -0.0138943)
(3.08623e-22 -9.63957e-22 -0.0139122)
(6.19487e-21 7.23977e-21 -0.0138172)
(-2.29785e-21 -4.86672e-21 -0.0136247)
(-6.72621e-23 -9.07542e-22 -0.0133487)
(-2.45151e-23 6.77896e-22 -0.0130021)
(-2.38016e-21 -1.90136e-20 -0.0125964)
(2.41644e-21 1.82015e-20 -0.0121415)
(-1.7245e-21 -2.29895e-20 -0.0116463)
(-1.54427e-20 2.53864e-20 0.0287656)
(3.12345e-20 -9.59731e-21 0.014848)
(-2.52661e-20 -2.23262e-20 0.00298006)
(8.49446e-21 2.29174e-20 -0.00685996)
(-8.88833e-21 -2.24246e-20 -0.0149371)
(-1.26705e-20 6.15391e-21 -0.0215144)
(1.12646e-20 6.75726e-21 -0.0268291)
(1.04071e-20 1.53867e-20 -0.0310785)
(2.59655e-21 -2.69779e-20 -0.0344207)
(-2.24792e-20 6.59084e-21 -0.0369865)
(2.12491e-20 -5.03611e-21 -0.038887)
(1.97633e-22 9.45303e-22 -0.0402121)
(-1.22383e-20 1.34659e-20 -0.0410356)
(-1.37063e-20 -1.69806e-20 -0.0414222)
(7.80889e-21 -1.79948e-20 -0.0414286)
(1.43364e-20 2.13484e-20 -0.0411053)
(-7.33197e-21 3.81431e-21 -0.0404977)
(-5.7108e-22 -1.72388e-21 -0.0396468)
(1.23024e-23 -1.0962e-22 -0.0385905)
(6.32011e-22 -1.38227e-24 -0.0373628)
(1.79879e-21 2.78489e-23 -0.0359933)
(-1.94025e-21 -3.36607e-21 -0.0345075)
(-1.40416e-20 -1.07956e-21 0.0444928)
(-1.4554e-20 -1.58656e-20 0.0215308)
(3.67473e-20 2.99467e-20 0.00179305)
(-4.39614e-20 -1.25795e-20 -0.0142811)
(1.81157e-20 1.21067e-20 -0.0272745)
(2.38626e-20 1.91796e-20 -0.0377274)
(-1.50567e-20 -5.80879e-20 -0.0460896)
(2.18467e-20 -1.41892e-20 -0.0527141)
(-2.9972e-20 4.1667e-20 -0.0578768)
(-2.04076e-20 8.60939e-21 -0.0617952)
(5.58625e-20 -2.38969e-20 -0.0646534)
(-3.88699e-20 2.28883e-20 -0.066598)
(6.48859e-21 -1.12163e-20 -0.067747)
(-3.29905e-21 -8.84986e-21 -0.0682046)
(6.25596e-20 6.64692e-20 -0.0680619)
(-3.62569e-21 3.56952e-20 -0.0673998)
(-5.63253e-20 -8.45523e-20 -0.0662906)
(1.05285e-20 -4.1413e-21 -0.0648001)
(-6.96759e-21 2.60333e-22 -0.0629883)
(3.56392e-22 -2.5543e-21 -0.0609096)
(3.57866e-20 1.05788e-19 -0.0586113)
(-3.56274e-20 -9.52583e-20 -0.0561348)
(1.95005e-21 2.6771e-20 0.0541705)
(8.65838e-21 -5.45572e-20 0.0225639)
(-7.3521e-20 1.57531e-20 -0.00477985)
(1.18644e-19 8.15549e-20 -0.0264048)
(-2.92185e-20 -1.10636e-19 -0.0434636)
(-1.19656e-20 2.59906e-20 -0.0569305)
(-3.36451e-21 1.62415e-20 -0.0675395)
(-3.85792e-21 8.35286e-21 -0.0758197)
(-3.49066e-20 -2.53514e-21 -0.0821731)
(7.72017e-20 -1.90124e-20 -0.0869067)
(-2.61096e-20 1.28628e-20 -0.0902633)
(-1.32659e-20 6.57357e-22 -0.092436)
(1.90075e-20 1.00762e-20 -0.0935837)
(-8.63541e-20 -8.96825e-20 -0.0938426)
(6.99668e-20 6.82261e-20 -0.0933318)
(-9.35322e-21 1.29748e-20 -0.0921566)
(8.49931e-21 -8.63707e-21 -0.0904114)
(8.84991e-20 1.71999e-19 -0.0881815)
(-9.2426e-20 -1.57378e-19 -0.085545)
(2.45476e-22 -1.05179e-20 -0.0825723)
(-2.45087e-21 -8.8557e-23 -0.079327)
(2.64612e-21 4.87717e-22 -0.0758612)
(2.72886e-20 9.67905e-23 0.0538467)
(3.40516e-22 4.01111e-22 0.0140403)
(-6.16035e-20 4.47007e-22 -0.020086)
(9.11018e-20 -2.98565e-22 -0.0458744)
(-2.72596e-20 -1.81123e-23 -0.0655047)
(-4.35866e-20 -8.49628e-22 -0.080588)
(1.42434e-20 1.2172e-22 -0.0922135)
(-1.15133e-20 -2.24579e-22 -0.101097)
(9.30163e-20 -2.54776e-20 -0.107748)
(4.47643e-20 1.13256e-19 -0.112543)
(1.75338e-21 7.5123e-20 -0.115763)
(-7.63843e-20 -1.66009e-19 -0.117636)
(1.27754e-19 2.06102e-19 -0.118347)
(-1.46265e-19 -1.97415e-19 -0.118052)
(6.87056e-20 1.32663e-19 -0.116889)
(-8.02231e-20 -1.39449e-19 -0.114978)
(5.27423e-21 -6.27874e-21 -0.112427)
(-2.54554e-20 -2.3982e-21 -0.109335)
(2.19294e-20 -4.15742e-21 -0.105791)
(1.75147e-21 3.40773e-21 -0.101877)
(6.25461e-21 2.32767e-22 -0.0976654)
(-1.01701e-20 -9.19623e-21 -0.0932212)
(-1.14133e-21 3.88185e-21 -0.0885994)
(-8.18615e-20 -3.48126e-22 0.0397102)
(2.4462e-20 3.14731e-20 -0.00966284)
(8.33963e-20 -4.00823e-20 -0.0485418)
(-4.25379e-20 -2.31787e-20 -0.0757934)
(-3.80415e-20 5.99318e-20 -0.0955428)
(4.13229e-20 -8.97185e-20 -0.11018)
(-1.03459e-20 -5.98693e-20 -0.121128)
(-3.20417e-20 -8.09992e-20 -0.129233)
(1.15119e-19 3.59051e-19 -0.13504)
(-1.65142e-19 -1.27728e-19 -0.138946)
(6.06049e-20 -4.52304e-20 -0.141248)
(2.01271e-19 3.07422e-19 -0.142181)
(-2.21062e-19 -2.58837e-19 -0.141935)
(2.39e-20 -3.47848e-21 -0.140671)
(-2.05187e-19 -4.19318e-19 -0.138527)
(2.25485e-19 3.82748e-19 -0.135627)
(-3.84685e-20 3.18177e-20 -0.132083)
(-2.69595e-19 -5.4382e-19 -0.127996)
(2.87875e-19 5.15446e-19 -0.123458)
(-5.22044e-21 4.63588e-21 -0.118557)
(1.68187e-19 3.38577e-19 -0.113369)
(-1.4531e-19 -3.15598e-19 -0.107962)
(-8.49608e-21 -9.95869e-21 -0.102393)
(-8.01876e-21 2.2402e-20 0.00884606)
(3.61859e-20 -6.04313e-20 -0.0509346)
(4.49944e-21 3.78396e-20 -0.0855112)
(-3.68446e-20 -3.90866e-22 -0.10782)
(2.37252e-20 -2.96543e-20 -0.123554)
(4.89164e-20 1.92612e-19 -0.134897)
(-1.90383e-20 1.00046e-19 -0.143159)
(-4.49169e-20 -2.33563e-19 -0.149056)
(-5.74876e-20 -1.24277e-21 -0.153012)
(-8.69753e-20 -3.7079e-19 -0.15537)
(1.66295e-19 2.9073e-19 -0.15638)
(1.3419e-19 4.69628e-19 -0.156225)
(-1.82076e-19 -3.93956e-19 -0.155054)
(2.73865e-20 -4.42809e-20 -0.152993)
(2.79452e-19 5.55805e-19 -0.15015)
(-3.12446e-19 -4.95343e-19 -0.146627)
(-2.9772e-19 -6.38285e-19 -0.142514)
(9.80804e-21 -6.31775e-20 -0.1379)
(-3.307e-20 -4.50075e-20 -0.132865)
(-4.44122e-21 -5.30639e-20 -0.127487)
(3.47294e-19 7.36758e-19 -0.121835)
(1.77222e-19 4.34209e-19 -0.115976)
(-3.77e-19 -8.40549e-19 -0.109958)
(7.5144e-20 9.85535e-20 -0.0450214)
(-4.22666e-20 -0 -0.0739349)
(2.95677e-22 -0 -0.0921855)
(0 -0 -0.105551)
(-2.72212e-22 -0 -0.116015)
(-3.33117e-20 -0 -0.12437)
(1.08874e-21 -0 -0.130864)
(3.24574e-20 -0 -0.135655)
(-2.35247e-22 -0 -0.138943)
(2.86878e-20 -0 -0.1409)
(-2.83526e-20 -0 -0.141671)
(-2.61063e-20 -0 -0.141385)
(2.59975e-20 -0 -0.140164)
(0 -0 -0.138117)
(-2.19659e-20 -0 -0.135347)
(2.18738e-20 -0 -0.131948)
(1.91061e-20 -0 -0.128011)
(-1.34903e-21 -0 -0.123619)
(-1.33997e-21 -0 -0.118852)
(-1.4388e-21 -0 -0.113784)
(-1.48104e-20 -0 -0.108484)
(-6.00796e-21 -0 -0.103012)
(1.15567e-20 -0 -0.0974157)
(5.45377e-21 -0 -0.0917488)
(0 -5.57688e-20 -0.130014)
(0 -0 -0.129365)
(0 -0 -0.133631)
(0 -0 -0.138733)
(0 -0 -0.143523)
(0 -0 -0.147695)
(0 -0 -0.151065)
(0 -0 -0.153528)
(0 -0 -0.155063)
(0 -0 -0.155684)
(0 -0 -0.155426)
(0 -0 -0.154336)
(0 -0 -0.152472)
(0 -0 -0.149894)
(0 -0 -0.146668)
(0 -0 -0.14286)
(0 -0 -0.138539)
(0 -0 -0.133773)
(0 -0 -0.128629)
(0 -0 -0.123174)
(0 -0 -0.117473)
(0 -0 -0.111584)
(0 -0 -0.105559)
(0 4.3911e-22 -0.191374)
(0 -0 -0.179382)
(0 -0 -0.17437)
(0 -0 -0.172545)
(0 -0 -0.172067)
(0 -0 -0.172148)
(0 -0 -0.172309)
(0 -0 -0.172244)
(0 -0 -0.171767)
(0 -0 -0.17077)
(0 -0 -0.169197)
(0 -0 -0.167023)
(0 -0 -0.164251)
(0 -0 -0.160898)
(0 -0 -0.156996)
(0 -0 -0.152586)
(0 -0 -0.147717)
(0 -0 -0.142441)
(0 -0 -0.136815)
(0 -0 -0.130898)
(0 -0 -0.124748)
(0 -0 -0.118422)
(0 -0 -0.111966)
(0 -0 -0.234529)
(0 -0 -0.218049)
(0 -0 -0.207791)
(0 -0 -0.201139)
(0 -0 -0.196496)
(0 -0 -0.193077)
(0 -0 -0.190335)
(0 -0 -0.187872)
(0 -0 -0.185415)
(0 -0 -0.18278)
(0 -0 -0.179846)
(0 -0 -0.176537)
(0 -0 -0.172809)
(0 -0 -0.168646)
(0 -0 -0.164052)
(0 -0 -0.159043)
(0 -0 -0.153649)
(0 -0 -0.147908)
(0 -0 -0.141864)
(0 -0 -0.135567)
(0 -0 -0.129069)
(0 -0 -0.122421)
(0 -0 -0.115666)
(0 -4.14821e-22 -0.261294)
(0 -0 -0.243922)
(0 -0 -0.231415)
(0 -0 -0.222051)
(0 -0 -0.214674)
(0 -0 -0.208705)
(0 -0 -0.203687)
(0 -0 -0.199237)
(0 -0 -0.195069)
(0 -0 -0.190974)
(0 -0 -0.186799)
(0 -0 -0.18244)
(0 -0 -0.177826)
(0 -0 -0.172916)
(0 -0 -0.167691)
(0 -0 -0.162151)
(0 -0 -0.15631)
(0 -0 -0.150191)
(0 -0 -0.143828)
(0 -0 -0.137261)
(0 -0 -0.130535)
(0 -0 -0.123692)
(0 -0 -0.116774)
(0 -5.05289e-20 -0.272899)
(0 -0 -0.25678)
(0 -0 -0.244139)
(0 -0 -0.233854)
(0 -0 -0.225163)
(0 -0 -0.21773)
(0 -0 -0.211244)
(0 -0 -0.205411)
(0 -0 -0.199985)
(0 -0 -0.194771)
(0 -0 -0.189621)
(0 -0 -0.184423)
(0 -0 -0.179098)
(0 -0 -0.173592)
(0 -0 -0.167875)
(0 -0 -0.161935)
(0 -0 -0.155773)
(0 -0 -0.149404)
(0 -0 -0.142852)
(0 -0 -0.136147)
(0 -0 -0.129326)
(0 -0 -0.122428)
(0 -0 -0.115486)
(0 5.0696e-20 -0.271033)
(0 -0 -0.257396)
(0 -0 -0.246025)
(0 -0 -0.236174)
(0 -0 -0.227386)
(0 -0 -0.219518)
(0 -0 -0.212412)
(0 -0 -0.205881)
(0 -0 -0.199747)
(0 -0 -0.193861)
(0 -0 -0.1881)
(0 -0 -0.182366)
(0 -0 -0.176586)
(0 -0 -0.170706)
(0 -0 -0.164694)
(0 -0 -0.158532)
(0 -0 -0.152217)
(0 -0 -0.145755)
(0 -0 -0.139165)
(0 -0 -0.132471)
(0 -0 -0.125701)
(0 -0 -0.118888)
(0 -0 -0.112062)
(0 3.56917e-22 -0.258018)
(0 -0 -0.247421)
(0 -0 -0.238132)
(0 -0 -0.229616)
(0 -0 -0.221636)
(0 -0 -0.214181)
(0 -0 -0.207211)
(0 -0 -0.200635)
(0 -0 -0.194355)
(0 -0 -0.188274)
(0 -0 -0.182308)
(0 -0 -0.176385)
(0 -0 -0.170449)
(0 -0 -0.164457)
(0 -0 -0.158381)
(0 -0 -0.152206)
(0 -0 -0.145926)
(0 -0 -0.139548)
(0 -0 -0.133083)
(0 -0 -0.126551)
(0 -0 -0.119978)
(0 -0 -0.11339)
(0 -0 -0.106811)
(0 -3.33775e-22 -0.236622)
(0 -0 -0.22913)
(0 -0 -0.222258)
(0 -0 -0.215565)
(0 -0 -0.208963)
(0 -0 -0.202515)
(0 -0 -0.196259)
(0 -0 -0.190179)
(0 -0 -0.184242)
(0 -0 -0.178403)
(0 -0 -0.172619)
(0 -0 -0.166849)
(0 -0 -0.161058)
(0 -0 -0.155221)
(0 -0 -0.149319)
(0 -0 -0.143342)
(0 -0 -0.13729)
(0 -0 -0.131168)
(0 -0 -0.124988)
(0 -0 -0.118767)
(0 -0 -0.112526)
(0 -0 -0.106291)
(0 -0 -0.10008)
(0 3.96646e-20 -0.20976)
(0 -0 -0.205111)
(0 -0 -0.200633)
(0 -0 -0.195908)
(0 -0 -0.190942)
(0 -0 -0.185832)
(0 -0 -0.180655)
(0 -0 -0.175446)
(0 -0 -0.170217)
(0 -0 -0.164966)
(0 -0 -0.159684)
(0 -0 -0.154358)
(0 -0 -0.148978)
(0 -0 -0.143533)
(0 -0 -0.138018)
(0 -0 -0.132434)
(0 -0 -0.126783)
(0 -0 -0.121075)
(0 -0 -0.115322)
(0 -0 -0.109541)
(0 -0 -0.103752)
(0 -0 -0.0979761)
(0 -0 -0.0922327)
(0 -3.92056e-20 -0.180207)
(0 -0 -0.177939)
(0 -0 -0.175586)
(0 -0 -0.172722)
(0 -0 -0.169401)
(0 -0 -0.165727)
(0 -0 -0.16179)
(0 -0 -0.157651)
(0 -0 -0.15335)
(0 -0 -0.148911)
(0 -0 -0.144353)
(0 -0 -0.139684)
(0 -0 -0.134913)
(0 -0 -0.130045)
(0 -0 -0.125088)
(0 -0 -0.120049)
(0 -0 -0.114939)
(0 -0 -0.10977)
(0 -0 -0.104557)
(0 -0 -0.0993184)
(0 -0 -0.0940728)
(0 -0 -0.0888411)
(0 -0 -0.08364)
(0 -3.34464e-20 -0.150348)
(0 -0 -0.149914)
(0 -0 -0.14928)
(0 -0 -0.148006)
(0 -0 -0.146162)
(0 -0 -0.143844)
(0 -0 -0.141138)
(0 -0 -0.138112)
(0 -0 -0.134817)
(0 -0 -0.131294)
(0 -0 -0.127575)
(0 -0 -0.123685)
(0 -0 -0.119645)
(0 -0 -0.115471)
(0 -0 -0.111181)
(0 -0 -0.10679)
(0 -0 -0.102314)
(0 -0 -0.0977696)
(0 -0 -0.0931741)
(0 -0 -0.0885458)
(0 -0 -0.0839044)
(0 -0 -0.0792699)
(0 -0 -0.0746586)
(0 3.33035e-20 -0.122037)
(0 -0 -0.122882)
(0 -0 -0.123511)
(0 -0 -0.123473)
(0 -0 -0.122837)
(0 -0 -0.12168)
(0 -0 -0.120075)
(0 -0 -0.118084)
(0 -0 -0.115761)
(0 -0 -0.11315)
(0 -0 -0.11029)
(0 -0 -0.107213)
(0 -0 -0.103946)
(0 -0 -0.100515)
(0 -0 -0.0969415)
(0 -0 -0.0932464)
(0 -0 -0.0894496)
(0 -0 -0.0855707)
(0 -0 -0.0816287)
(0 -0 -0.0776429)
(0 -0 -0.0736331)
(0 -0 -0.0696189)
(0 -0 -0.0656163)
(0 -0 -0.0965328)
(0 -0 -0.098158)
(0 -0 -0.0996098)
(0 -0 -0.10044)
(0 -0 -0.100701)
(0 -0 -0.100452)
(0 -0 -0.0997473)
(0 -0 -0.0986389)
(0 -0 -0.0971733)
(0 -0 -0.0953927)
(0 -0 -0.0933347)
(0 -0 -0.0910329)
(0 -0 -0.0885172)
(0 -0 -0.0858151)
(0 -0 -0.0829514)
(0 -0 -0.0799494)
(0 -0 -0.0768309)
(0 -0 -0.0736169)
(0 -0 -0.0703272)
(0 -0 -0.0669815)
(0 -0 -0.0635992)
(0 -0 -0.0601996)
(0 -0 -0.0567983)
(0 -2.5249e-20 -0.0745327)
(0 -0 -0.0765293)
(0 -0 -0.0784227)
(0 -0 -0.0797814)
(0 -0 -0.0806398)
(0 -0 -0.0810351)
(0 -0 -0.0810055)
(0 -0 -0.0805892)
(0 -0 -0.0798231)
(0 -0 -0.0787421)
(0 -0 -0.0773794)
(0 -0 -0.0757655)
(0 -0 -0.0739289)
(0 -0 -0.0718961)
(0 -0 -0.0696918)
(0 -0 -0.0673392)
(0 -0 -0.0648603)
(0 -0 -0.0622756)
(0 -0 -0.0596051)
(0 -0 -0.0568677)
(0 -0 -0.0540822)
(0 -0 -0.0512671)
(0 -0 -0.0484372)
(0 2.51434e-20 -0.0562584)
(0 -0 -0.0583222)
(0 -0 -0.0603597)
(0 -0 -0.0619669)
(0 -0 -0.0631602)
(0 -0 -0.0639595)
(0 -0 -0.0643874)
(0 -0 -0.064469)
(0 -0 -0.0642305)
(0 -0 -0.0636985)
(0 -0 -0.0628991)
(0 -0 -0.0618575)
(0 -0 -0.0605985)
(0 -0 -0.0591453)
(0 -0 -0.0575204)
(0 -0 -0.0557451)
(0 -0 -0.0538397)
(0 -0 -0.0518236)
(0 -0 -0.0497152)
(0 -0 -0.0475323)
(0 -0 -0.0452925)
(0 -0 -0.043013)
(0 -0 -0.0407076)
(0 2.09035e-20 -0.0415784)
(0 -0 -0.0435073)
(0 -0 -0.0454792)
(0 -0 -0.0471249)
(0 -0 -0.0484468)
(0 -0 -0.049451)
(0 -0 -0.0501479)
(0 -0 -0.0505515)
(0 -0 -0.0506781)
(0 -0 -0.0505456)
(0 -0 -0.0501729)
(0 -0 -0.0495794)
(0 -0 -0.0487844)
(0 -0 -0.047807)
(0 -0 -0.0466662)
(0 -0 -0.0453801)
(0 -0 -0.0439665)
(0 -0 -0.0424425)
(0 -0 -0.0408246)
(0 -0 -0.0391286)
(0 -0 -0.0373702)
(0 -0 -0.0355651)
(0 -0 -0.0337259)
(0 -2.08165e-20 -0.0301337)
(0 -0 -0.0318134)
(0 -0 -0.0335901)
(0 -0 -0.0351337)
(0 -0 -0.0364366)
(0 -0 -0.037496)
(0 -0 -0.0383131)
(0 -0 -0.0388935)
(0 -0 -0.0392453)
(0 -0 -0.0393791)
(0 -0 -0.0393071)
(0 -0 -0.0390427)
(0 -0 -0.0386)
(0 -0 -0.0379936)
(0 -0 -0.0372383)
(0 -0 -0.0363488)
(0 -0 -0.0353397)
(0 -0 -0.0342254)
(0 -0 -0.0330197)
(0 -0 -0.0317363)
(0 -0 -0.0303889)
(0 -0 -0.0289911)
(0 -0 -0.027554)
(0 -0 -0.0214487)
(0 -0 -0.0228324)
(0 -0 -0.0243498)
(0 -0 -0.0257102)
(0 -0 -0.026901)
(0 -0 -0.0279136)
(0 -0 -0.0287438)
(0 -0 -0.029391)
(0 -0 -0.0298576)
(0 -0 -0.0301484)
(0 -0 -0.03027)
(0 -0 -0.0302307)
(0 -0 -0.0300398)
(0 -0 -0.0297078)
(0 -0 -0.0292453)
(0 -0 -0.0286636)
(0 -0 -0.0279742)
(0 -0 -0.0271882)
(0 -0 -0.0263172)
(0 -0 -0.0253722)
(0 -0 -0.0243648)
(0 -0 -0.0233064)
(0 -0 -0.0222068)
(0 -0 -0.0150166)
(0 -0 -0.016104)
(0 -0 -0.0173456)
(0 -0 -0.0184884)
(0 -0 -0.0195179)
(0 -0 -0.0204232)
(0 -0 -0.0211971)
(0 -0 -0.0218355)
(0 -0 -0.0223366)
(0 -0 -0.0227013)
(0 -0 -0.022932)
(0 -0 -0.0230331)
(0 -0 -0.0230101)
(0 -0 -0.0228695)
(0 -0 -0.0226187)
(0 -0 -0.0222657)
(0 -0 -0.0218189)
(0 -0 -0.0212869)
(0 -0 -0.0206784)
(0 -0 -0.0200023)
(0 -0 -0.0192679)
(0 -0 -0.0184847)
(0 -0 -0.0176607)
(0 -1.161e-22 -0.0103564)
(0 -0 -0.0111758)
(0 -0 -0.0121559)
(0 -0 -0.0130791)
(0 -0 -0.0139312)
(0 -0 -0.014701)
(0 -0 -0.0153802)
(0 -0 -0.015963)
(0 -0 -0.0164455)
(0 -0 -0.0168259)
(0 -0 -0.017104)
(0 -0 -0.0172811)
(0 -0 -0.0173598)
(0 -0 -0.0173439)
(0 -0 -0.0172378)
(0 -0 -0.017047)
(0 -0 -0.016777)
(0 -0 -0.0164342)
(0 -0 -0.016025)
(0 -0 -0.0155561)
(0 -0 -0.0150348)
(0 -0 -0.0144687)
(0 -0 -0.0138641)
(0 -6.725e-21 -0.0070465)
(0 -0 -0.00763942)
(0 -0 -0.00838983)
(0 -0 -0.00911135)
(0 -0 -0.00979167)
(0 -0 -0.0104205)
(0 -0 -0.0109897)
(0 -0 -0.0114932)
(0 -0 -0.0119261)
(0 -0 -0.0122852)
(0 -0 -0.0125687)
(0 -0 -0.0127761)
(0 -0 -0.012908)
(0 -0 -0.0129659)
(0 -0 -0.0129523)
(0 -0 -0.0128704)
(0 -0 -0.0127238)
(0 -0 -0.0125168)
(0 -0 -0.0122537)
(0 -0 -0.0119397)
(0 -0 -0.0115799)
(0 -0 -0.0111806)
(0 -0 -0.0107466)
(0 1.2891e-20 -0.00473711)
(0 -0 -0.00514883)
(0 -0 -0.00570814)
(0 -0 -0.00625621)
(0 -0 -0.00678297)
(0 -0 -0.00727971)
(0 -0 -0.00773931)
(0 -0 -0.00815596)
(0 -0 -0.00852485)
(0 -0 -0.0088423)
(0 -0 -0.00910569)
(0 -0 -0.00931345)
(0 -0 -0.00946491)
(0 -0 -0.00956027)
(0 -0 -0.00960046)
(0 -0 -0.00958709)
(0 -0 -0.00952228)
(0 -0 -0.00940863)
(0 -0 -0.00924914)
(0 -0 -0.00904716)
(0 -0 -0.00880666)
(0 -0 -0.00853227)
(0 -0 -0.0082276)
(0 -6.16819e-21 -0.00315133)
(0 -0 -0.0034244)
(0 -0 -0.00383146)
(0 -0 -0.00423745)
(0 -0 -0.00463458)
(0 -0 -0.00501587)
(0 -0 -0.00537548)
(0 -0 -0.00570842)
(0 -0 -0.00601034)
(0 -0 -0.00627766)
(0 -0 -0.00650759)
(0 -0 -0.00669807)
(0 -0 -0.00684778)
(0 -0 -0.00695609)
(0 -0 -0.00702298)
(0 -0 -0.00704896)
(0 -0 -0.00703507)
(0 -0 -0.00698273)
(0 -0 -0.00689376)
(0 -0 -0.00677035)
(0 -0 -0.00661528)
(0 -0 -0.00643204)
(0 -0 -0.00622318)
(0 -0 -0.00207768)
(0 -0 -0.00224881)
(0 -0 -0.00253878)
(0 -0 -0.00283285)
(0 -0 -0.00312526)
(0 -0 -0.00341067)
(0 -0 -0.00368452)
(0 -0 -0.00394279)
(0 -0 -0.00418185)
(0 -0 -0.00439852)
(0 -0 -0.00459017)
(0 -0 -0.0047547)
(0 -0 -0.00489055)
(0 -0 -0.00499664)
(0 -0 -0.00507242)
(0 -0 -0.00511774)
(0 -0 -0.00513288)
(0 -0 -0.00511847)
(0 -0 -0.00507546)
(0 -0 -0.00500519)
(0 -0 -0.00490953)
(0 -0 -0.00479104)
(0 -0 -0.00465147)
(0 -7.74338e-23 -0.00135966)
(0 -0 -0.00145859)
(0 -0 -0.00166113)
(0 -0 -0.00186985)
(0 -0 -0.00208064)
(0 -0 -0.00228956)
(0 -0 -0.00249318)
(0 -0 -0.00268845)
(0 -0 -0.00287247)
(0 -0 -0.00304264)
(0 -0 -0.00319666)
(0 -0 -0.00333262)
(0 -0 -0.00344896)
(0 -0 -0.0035445)
(0 -0 -0.00361839)
(0 -0 -0.00367014)
(0 -0 -0.00369957)
(0 -0 -0.00370678)
(0 -0 -0.00369215)
(0 -0 -0.00365639)
(0 -0 -0.00360072)
(0 -0 -0.00352698)
(0 -0 -0.00343629)
(0 -0 -0.000884427)
(0 -0 -0.000934127)
(0 -0 -0.00107303)
(0 -0 -0.00121841)
(0 -0 -0.00136746)
(0 -0 -0.00151733)
(0 -0 -0.00166555)
(0 -0 -0.00180988)
(0 -0 -0.00194811)
(0 -0 -0.00207821)
(0 -0 -0.00219832)
(0 -0 -0.0023068)
(0 -0 -0.00240227)
(0 -0 -0.00248356)
(0 -0 -0.00254979)
(0 -0 -0.0026003)
(0 -0 -0.00263465)
(0 -0 -0.00265263)
(0 -0 -0.00265427)
(0 -0 -0.00263985)
(0 -0 -0.00261012)
(0 -0 -0.00256642)
(0 -0 -0.00250932)
(0 4.19301e-21 -0.000572483)
(0 -0 -0.000589905)
(0 -0 -0.000683465)
(0 -0 -0.000782957)
(0 -0 -0.000886497)
(0 -0 -0.000992059)
(0 -0 -0.00109789)
(0 -0 -0.00120243)
(0 -0 -0.00130405)
(0 -0 -0.00140122)
(0 -0 -0.00149251)
(0 -0 -0.0015766)
(0 -0 -0.00165233)
(0 -0 -0.00171868)
(0 -0 -0.00177481)
(0 -0 -0.00182002)
(0 -0 -0.00185378)
(0 -0 -0.00187573)
(0 -0 -0.00188566)
(0 -0 -0.0018836)
(0 -0 -0.00186998)
(0 -0 -0.00184579)
(0 -0 -0.00181118)
(0 -8.06529e-21 -0.000368942)
(0 -0 -0.000365916)
(0 -0 -0.000427792)
(0 -0 -0.00049475)
(0 -0 -0.000565522)
(0 -0 -0.000638656)
(0 -0 -0.000712925)
(0 -0 -0.000787253)
(0 -0 -0.000860513)
(0 -0 -0.000931594)
(0 -0 -0.00099943)
(0 -0 -0.00106302)
(0 -0 -0.00112143)
(0 -0 -0.00117382)
(0 -0 -0.00121946)
(0 -0 -0.0012577)
(0 -0 -0.00128799)
(0 -0 -0.00130992)
(0 -0 -0.00132315)
(0 -0 -0.00132757)
(0 -0 -0.0013234)
(0 -0 -0.00131145)
(0 -0 -0.00129176)
(0 3.87353e-21 -0.00023689)
(0 -0 -0.000221846)
(0 -0 -0.00026101)
(0 -0 -0.000305585)
(0 -0 -0.000353344)
(0 -0 -0.000403291)
(0 -0 -0.000454594)
(0 -0 -0.000506559)
(0 -0 -0.000558432)
(0 -0 -0.000609447)
(0 -0 -0.000658848)
(0 -0 -0.000705898)
(0 -0 -0.000749892)
(0 -0 -0.00079017)
(0 -0 -0.000826116)
(0 -0 -0.000857173)
(0 -0 -0.000882838)
(0 -0 -0.000902673)
(0 -0 -0.00091632)
(0 -0 -0.000923567)
(0 -0 -0.000924553)
(0 -0 -0.000919946)
(0 -0 -0.000910182)
(0 -0 -0.000151263)
(0 -0 -0.000131)
(0 -0 -0.000155574)
(0 -0 -0.000183052)
(0 -0 -0.000215181)
(0 -0 -0.000248938)
(0 -0 -0.000283919)
(0 -0 -0.00031974)
(0 -0 -0.000355933)
(0 -0 -0.000391998)
(0 -0 -0.00042742)
(0 -0 -0.00046168)
(0 -0 -0.000494264)
(0 -0 -0.000524669)
(0 -0 -0.000552406)
(0 -0 -0.000577009)
(0 -0 -0.000598034)
(0 -0 -0.00061507)
(0 -0 -0.000627756)
(0 -0 -0.000635841)
(0 -0 -0.000639386)
(0 -0 -0.000638991)
(0 -0 -0.000635059)
(0 -0 -7.46193e-05)
(0 -0 -9.02977e-05)
(0 -0 -0.00010804)
(0 -0 -0.000127927)
(0 -0 -0.000150489)
(0 -0 -0.000174104)
(0 -0 -0.000198588)
(0 -0 -0.00022366)
(0 -0 -0.000248999)
(0 -0 -0.000274264)
(0 -0 -0.0002991)
(0 -0 -0.000323139)
(0 -0 -0.000346008)
(0 -0 -0.000367329)
(0 -0 -0.00038672)
(0 -0 -0.0004038)
(0 -0 -0.000418195)
(0 -0 -0.000429559)
(0 -0 -0.000437626)
(0 -0 -0.000442373)
(0 -0 -0.00044426)
(0 -0 -0.000443288)
(-5.53798e-21 -2.11934e-20 -0.545993)
(4.75971e-20 -3.01657e-20 -0.468002)
(1.6754e-22 -2.52981e-20 -0.39138)
(4.97976e-20 5.71589e-21 -0.315899)
(-3.57566e-22 5.01982e-20 -0.240376)
(-8.95425e-22 -1.07536e-19 -0.163533)
(9.02453e-20 4.36995e-20 -0.0914377)
(1.42693e-20 -1.37098e-19 -0.526131)
(-4.32352e-20 4.58373e-19 -0.468087)
(-3.39957e-20 -3.57281e-19 -0.408825)
(-9.58039e-20 1.53215e-20 -0.34847)