/*--------------------------------*- C++ -*----------------------------------*\
| =========                 |                                                 |
| \\      /  F ield         | OpenFOAM: The Open Source CFD Toolbox           |
|  \\    /   O peration     | Version:  2412                                  |
|   \\  /    A nd           | Website:  www.openfoam.com                      |
|    \\/     M anipulation  |                                                 |
\*---------------------------------------------------------------------------*/
FoamFile
{
    version     2.0;
    format      ascii;
    arch        "LSB;label=32;scalar=64";
    class       surfaceScalarField;
    location    "24.5";
    object      phi;
}
// * * * * * * * * * * * * * * * * * * * * * * * * * * * * * * * * * * * * * //

dimensions      [0 3 -1 0 0 0 0];

oriented        oriented;

internalField   nonuniform List<scalar> 
10424
(
0.00496176
-5.53738e-06
4.70927e-09
0.00496705
-5.29106e-06
3.95175e-09
0.0049721
-5.05609e-06
3.24346e-09
0.00497693
-4.8297e-06
2.57772e-09
0.00498154
-4.61026e-06
1.96113e-09
0.00498593
-4.39696e-06
1.3933e-09
0.00499012
-4.18954e-06
8.74389e-10
0.00499411
-3.98804e-06
4.03159e-10
0.0049979
-3.79261e-06
-2.34293e-11
0.00500151
-3.60344e-06
-4.11808e-10
0.00500493
-3.42064e-06
-7.70617e-10
0.00500817
-3.24427e-06
-1.10887e-09
0.00501125
-3.07431e-06
-1.4379e-09
0.00501416
-2.91072e-06
-1.76775e-09
0.00501692
-2.75339e-06
-2.10519e-09
0.00501952
-2.60218e-06
-2.45681e-09
0.00502198
-2.45697e-06
-2.82163e-09
0.0050243
-2.31759e-06
-3.19158e-09
0.00502649
-2.18391e-06
-3.5575e-09
0.00502855
-2.05577e-06
-3.90197e-09
0.00503049
-1.93303e-06
-4.21281e-09
0.00503231
-1.81554e-06
-4.48626e-09
0.00503401
-1.70315e-06
-4.72269e-09
0.00503561
-1.5957e-06
-4.93327e-09
0.00503711
-1.49304e-06
-5.12322e-09
0.00503851
-1.39506e-06
-5.28582e-09
0.00503982
-1.30164e-06
-5.40508e-09
0.00504104
-1.21267e-06
-5.45957e-09
0.00504217
-1.12804e-06
-5.44365e-09
0.00504322
-1.04762e-06
-5.38247e-09
0.0050442
-9.71239e-07
-5.33093e-09
0.0050451
-8.98728e-07
-5.34384e-09
0.00504594
-8.29965e-07
-5.44134e-09
0.00504671
-7.64877e-07
-5.59192e-09
0.00504742
-7.03433e-07
-5.71506e-09
0.00504807
-6.45623e-07
-5.73261e-09
0.00504867
-5.91383e-07
-5.60095e-09
0.00504921
-5.40626e-07
-5.33392e-09
0.00504971
-4.93184e-07
-4.98975e-09
0.00505017
-4.48921e-07
-4.65067e-09
0.00505058
-4.07624e-07
-4.38217e-09
0.00505095
-3.6928e-07
-4.21769e-09
0.00505129
-3.33656e-07
-4.13634e-09
0.00505159
-3.01033e-07
-4.07232e-09
0.00505187
-2.70925e-07
-3.97554e-09
0.00505212
-2.4403e-07
-3.84118e-09
0.00505234
-2.19089e-07
-3.71998e-09
0.00505254
-1.97832e-07
-3.65691e-09
0.00505272
-1.77494e-07
-3.68767e-09
0.00505289
-1.62134e-07
-3.73913e-09
0.00505304
-1.46016e-07
-3.80948e-09
0.00505318
-1.37406e-07
-3.807e-09
0.00505331
-1.25192e-07
-3.70105e-09
0.00505344
-1.24684e-07
-3.43517e-09
0.00505356
-1.15969e-07
-3.16427e-09
0.00505368
-1.24897e-07
-2.81988e-09
0.00505381
-1.19848e-07
-2.49034e-09
0.00505395
-1.39814e-07
-2.00759e-09
0.00505409
-1.40375e-07
-1.67212e-09
0.00505426
-1.71969e-07
-1.16353e-09
0.00505445
-1.83295e-07
-6.4536e-10
0.00505467
-2.25921e-07
-2.34344e-10
0.00505493
-2.5458e-07
-3.6248e-11
0.00505524
-3.12189e-07
2.94266e-10
0.0050556
-3.59192e-07
6.8851e-10
0.00505604
-4.39179e-07
2.84452e-10
0.00505658
-5.41311e-07
1.01794e-09
0.00505712
-5.41675e-07
9.31248e-10
0.00505797
-8.51891e-07
2.10665e-09
0.00505877
-8.00403e-07
2.72729e-09
-9.66731e-07
3.49996e-09
0.00496182
-1.10681e-05
0.0049671
-1.05758e-05
0.00497215
-1.01063e-05
0.00497698
-9.65401e-06
0.00498158
-9.21562e-06
0.00498597
-8.78956e-06
0.00499016
-8.37527e-06
0.00499414
-7.97282e-06
0.00499793
-7.58253e-06
0.00500153
-7.20472e-06
0.00500495
-6.83964e-06
0.0050082
-6.48739e-06
0.00501127
-6.14798e-06
0.00501418
-5.82128e-06
0.00501693
-5.5071e-06
0.00501954
-5.20518e-06
0.005022
-4.91524e-06
0.00502432
-4.63698e-06
0.0050265
-4.37009e-06
0.00502856
-4.11426e-06
0.0050305
-3.8692e-06
0.00503232
-3.63458e-06
0.00503402
-3.41011e-06
0.00503562
-3.19549e-06
0.00503712
-2.99044e-06
0.00503852
-2.7947e-06
0.00503983
-2.60804e-06
0.00504104
-2.43021e-06
0.00504218
-2.261e-06
0.00504323
-2.10014e-06
0.0050442
-1.94736e-06
0.00504511
-1.80239e-06
0.00504594
-1.66501e-06
0.00504671
-1.53501e-06
0.00504742
-1.41229e-06
0.00504807
-1.2967e-06
0.00504867
-1.18813e-06
0.00504922
-1.08637e-06
0.00504971
-9.91156e-07
0.00505017
-9.02314e-07
0.00505058
-8.19466e-07
0.00505095
-7.4263e-07
0.00505129
-6.71318e-07
0.0050516
-6.06028e-07
0.00505187
-5.45717e-07
0.00505212
-4.91817e-07
0.00505234
-4.41813e-07
0.00505254
-3.99248e-07
0.00505272
-3.58607e-07
0.00505289
-3.27954e-07
0.00505304
-2.95789e-07
0.00505318
-2.78582e-07
0.00505331
-2.54046e-07
0.00505344
-2.52761e-07
0.00505356
-2.35062e-07
0.00505368
-2.52584e-07
0.00505381
-2.42161e-07
0.00505395
-2.8161e-07
0.00505409
-2.82386e-07
0.00505426
-3.45076e-07
0.00505445
-3.67207e-07
0.00505467
-4.52005e-07
0.00505493
-5.09277e-07
0.00505524
-6.23738e-07
0.0050556
-7.18269e-07
0.00505604
-8.77165e-07
0.00505658
-1.08221e-06
0.00505712
-1.08309e-06
0.00505797
-1.69966e-06
0.00505877
-1.59946e-06
-1.93135e-06
0.00496192
-1.65947e-05
0.0049672
-1.58559e-05
0.00497225
-1.51513e-05
0.00497707
-1.44726e-05
0.00498167
-1.38151e-05
0.00498605
-1.31762e-05
0.00499023
-1.25551e-05
0.00499421
-1.19519e-05
0.004998
-1.1367e-05
0.00500159
-1.08009e-05
0.00500501
-1.02538e-05
0.00500825
-9.72603e-06
0.00501132
-9.21748e-06
0.00501422
-8.72798e-06
0.00501697
-8.25725e-06
0.00501957
-7.8049e-06
0.00502203
-7.3705e-06
0.00502434
-6.95359e-06
0.00502653
-6.55372e-06
0.00502858
-6.17041e-06
0.00503052
-5.8032e-06
0.00503234
-5.45164e-06
0.00503404
-5.11526e-06
0.00503564
-4.79363e-06
0.00503713
-4.48632e-06
0.00503853
-4.19296e-06
0.00503984
-3.91316e-06
0.00504105
-3.64659e-06
0.00504219
-3.39288e-06
0.00504324
-3.15168e-06
0.00504421
-2.92259e-06
0.00504512
-2.70525e-06
0.00504595
-2.4993e-06
0.00504672
-2.30447e-06
0.00504743
-2.12052e-06
0.00504808
-1.94724e-06
0.00504867
-1.78436e-06
0.00504922
-1.63165e-06
0.00504972
-1.48872e-06
0.00505017
-1.35534e-06
0.00505058
-1.23098e-06
0.00505095
-1.11569e-06
0.00505129
-1.00872e-06
0.0050516
-9.10785e-07
0.00505187
-8.20307e-07
0.00505212
-7.39414e-07
0.00505234
-6.64378e-07
0.00505254
-6.00522e-07
0.00505272
-5.39597e-07
0.00505289
-4.93663e-07
0.00505304
-4.45465e-07
0.00505318
-4.19669e-07
0.00505331
-3.82817e-07
0.00505344
-3.80781e-07
0.00505356
-3.54086e-07
0.00505368
-3.80222e-07
0.00505381
-3.64395e-07
0.00505395
-4.2337e-07
0.00505409
-4.2432e-07
0.00505426
-5.1814e-07
0.00505445
-5.51054e-07
0.00505467
-6.77956e-07
0.00505493
-7.64131e-07
0.00505524
-9.34607e-07
0.0050556
-1.07846e-06
0.00505603
-1.31336e-06
0.00505658
-1.6243e-06
0.00505712
-1.6258e-06
0.00505796
-2.54346e-06
0.00505877
-2.40124e-06
-2.89868e-06
0.00496209
-2.21149e-05
0.00496736
-2.11285e-05
0.0049724
-2.01881e-05
0.00497721
-1.92825e-05
0.0049818
-1.84056e-05
0.00498618
-1.75538e-05
0.00499035
-1.67261e-05
0.00499432
-1.59224e-05
0.00499809
-1.51433e-05
0.00500168
-1.43893e-05
0.00500509
-1.36608e-05
0.00500832
-1.29579e-05
0.00501138
-1.22807e-05
0.00501429
-1.16289e-05
0.00501703
-1.10021e-05
0.00501962
-1.03997e-05
0.00502208
-9.82122e-06
0.00502439
-9.26603e-06
0.00502657
-8.73352e-06
0.00502862
-8.22304e-06
0.00503055
-7.73398e-06
0.00503237
-7.26573e-06
0.00503407
-6.81768e-06
0.00503566
-6.38926e-06
0.00503716
-5.97991e-06
0.00503855
-5.58911e-06
0.00503986
-5.21637e-06
0.00504107
-4.8612e-06
0.0050422
-4.52316e-06
0.00504325
-4.20175e-06
0.00504422
-3.89648e-06
0.00504513
-3.60688e-06
0.00504596
-3.33249e-06
0.00504673
-3.07292e-06
0.00504744
-2.82784e-06
0.00504809
-2.59693e-06
0.00504868
-2.37985e-06
0.00504923
-2.17626e-06
0.00504972
-1.98567e-06
0.00505017
-1.80781e-06
0.00505059
-1.642e-06
0.00505096
-1.4883e-06
0.0050513
-1.34572e-06
0.0050516
-1.21519e-06
0.00505187
-1.09458e-06
0.00505212
-9.86734e-07
0.00505234
-8.86695e-07
0.00505254
-8.0158e-07
0.00505273
-7.20393e-07
0.00505289
-6.59203e-07
0.00505304
-5.94988e-07
0.00505318
-5.60627e-07
0.00505331
-5.11463e-07
0.00505344
-5.08698e-07
0.00505356
-4.72999e-07
0.00505368
-5.07779e-07
0.00505381
-4.86522e-07
0.00505395
-5.65064e-07
0.00505409
-5.66138e-07
0.00505426
-6.91133e-07
0.00505445
-7.34802e-07
0.00505467
-9.03702e-07
0.00505493
-1.01921e-06
0.00505524
-1.24448e-06
0.0050556
-1.44027e-06
0.00505603
-1.74693e-06
0.00505658
-2.16813e-06
0.00505712
-2.17041e-06
0.00505796
-3.38148e-06
0.00505877
-3.20701e-06
-3.86999e-06
0.00496231
-2.7626e-05
0.00496757
-2.6391e-05
0.0049726
-2.52137e-05
0.00497739
-2.40807e-05
0.00498197
-2.2984e-05
0.00498634
-2.19193e-05
0.0049905
-2.08852e-05
0.00499446
-1.98815e-05
0.00499822
-1.89087e-05
0.0050018
-1.79674e-05
0.0050052
-1.70581e-05
0.00500842
-1.61809e-05
0.00501147
-1.53356e-05
0.00501437
-1.45221e-05
0.00501711
-1.37398e-05
0.00501969
-1.29879e-05
0.00502214
-1.22659e-05
0.00502445
-1.15729e-05
0.00502662
-1.09082e-05
0.00502867
-1.0271e-05
0.00503059
-9.66044e-06
0.0050324
-9.07586e-06
0.0050341
-8.51648e-06
0.0050357
-7.98157e-06
0.00503719
-7.47045e-06
0.00503858
-6.98247e-06
0.00503988
-6.51701e-06
0.00504109
-6.07348e-06
0.00504222
-5.65129e-06
0.00504327
-5.24986e-06
0.00504424
-4.86858e-06
0.00504514
-4.50687e-06
0.00504597
-4.16418e-06
0.00504674
-3.84001e-06
0.00504745
-3.53393e-06
0.00504809
-3.24552e-06
0.00504869
-2.97433e-06
0.00504923
-2.71995e-06
0.00504973
-2.4818e-06
0.00505018
-2.25954e-06
0.00505059
-2.05235e-06
0.00505096
-1.86032e-06
0.0050513
-1.68219e-06
0.0050516
-1.51912e-06
0.00505188
-1.36843e-06
0.00505212
-1.23368e-06
0.00505235
-1.10868e-06
0.00505255
-1.00234e-06
0.00505273
-9.00927e-07
0.00505289
-8.24516e-07
0.00505304
-7.44304e-07
0.00505318
-7.01406e-07
0.00505331
-6.39938e-07
0.00505344
-6.36472e-07
0.00505356
-5.91761e-07
0.00505369
-6.35221e-07
0.00505381
-6.08503e-07
0.00505395
-7.06663e-07
0.00505409
-7.07797e-07
0.00505426
-8.64023e-07
0.00505445
-9.18412e-07
0.00505467
-1.12917e-06
0.00505493
-1.27455e-06
0.00505524
-1.55305e-06
0.0050556
-1.80415e-06
0.00505603
-2.17711e-06
0.00505658
-2.71416e-06
0.00505712
-2.71744e-06
0.00505795
-4.21207e-06
0.00505877
-4.01792e-06
-4.84644e-06
0.00496258
-3.31248e-05
0.00496783
-3.164e-05
0.00497284
-3.0225e-05
0.00497763
-2.88638e-05
0.00498219
-2.75471e-05
0.00498654
-2.62696e-05
0.00499069
-2.50295e-05
0.00499463
-2.38263e-05
0.00499838
-2.26605e-05
0.00500195
-2.15327e-05
0.00500533
-2.04434e-05
0.00500854
-1.93926e-05
0.00501159
-1.83802e-05
0.00501447
-1.74057e-05
0.0050172
-1.64686e-05
0.00501978
-1.5568e-05
0.00502222
-1.4703e-05
0.00502452
-1.38729e-05
0.00502669
-1.30765e-05
0.00502873
-1.2313e-05
0.00503065
-1.15815e-05
0.00503245
-1.0881e-05
0.00503415
-1.02107e-05
0.00503574
-9.56971e-06
0.00503722
-8.95717e-06
0.00503861
-8.37232e-06
0.00503991
-7.81444e-06
0.00504112
-7.28281e-06
0.00504225
-6.77674e-06
0.00504329
-6.29551e-06
0.00504426
-5.83844e-06
0.00504516
-5.40482e-06
0.00504599
-4.99401e-06
0.00504675
-4.60541e-06
0.00504746
-4.23847e-06
0.00504811
-3.8927e-06
0.0050487
-3.56754e-06
0.00504924
-3.2625e-06
0.00504974
-2.9769e-06
0.00505019
-2.71034e-06
0.0050506
-2.46186e-06
0.00505097
-2.23158e-06
0.0050513
-2.01798e-06
0.00505161
-1.82244e-06
0.00505188
-1.64175e-06
0.00505213
-1.48015e-06
0.00505235
-1.33024e-06
0.00505255
-1.20274e-06
0.00505273
-1.08113e-06
0.00505289
-9.89537e-07
0.00505304
-8.93354e-07
0.00505318
-8.41956e-07
0.00505331
-7.68193e-07
0.00505344
-7.64061e-07
0.00505356
-7.10328e-07
0.00505369
-7.62513e-07
0.00505381
-7.30294e-07
0.00505395
-8.48137e-07
0.00505409
-8.49247e-07
0.00505426
-1.03678e-06
0.00505445
-1.10183e-06
0.00505467
-1.3543e-06
0.00505493
-1.53019e-06
0.00505523
-1.86005e-06
0.0050556
-2.17045e-06
0.00505603
-2.60325e-06
0.00505658
-3.26279e-06
0.00505713
-3.26731e-06
0.00505795
-5.03383e-06
0.00505876
-4.83494e-06
-5.82905e-06
0.00496292
-3.86076e-05
0.00496815
-3.6872e-05
0.00497314
-3.52183e-05
0.00497791
-3.36285e-05
0.00498245
-3.20915e-05
0.00498678
-3.06015e-05
0.00499091
-2.91557e-05
0.00499484
-2.77538e-05
0.00499857
-2.63959e-05
0.00500212
-2.50826e-05
0.00500549
-2.38142e-05
0.00500869
-2.25909e-05
0.00501172
-2.14122e-05
0.0050146
-2.02778e-05
0.00501731
-1.91867e-05
0.00501988
-1.81382e-05
0.00502231
-1.71311e-05
0.0050246
-1.61645e-05
0.00502677
-1.52372e-05
0.0050288
-1.43481e-05
0.00503071
-1.34961e-05
0.00503251
-1.26803e-05
0.0050342
-1.18995e-05
0.00503579
-1.11528e-05
0.00503727
-1.04393e-05
0.00503865
-9.75797e-06
0.00503995
-9.10802e-06
0.00504115
-8.48861e-06
0.00504228
-7.89895e-06
0.00504332
-7.33821e-06
0.00504429
-6.80559e-06
0.00504518
-6.3003e-06
0.00504601
-5.82158e-06
0.00504677
-5.36875e-06
0.00504747
-4.94115e-06
0.00504812
-4.53819e-06
0.00504871
-4.15921e-06
0.00504925
-3.80366e-06
0.00504975
-3.47074e-06
0.0050502
-3.16e-06
0.0050506
-2.87036e-06
0.00505098
-2.60193e-06
0.00505131
-2.35296e-06
0.00505161
-2.12503e-06
0.00505189
-1.91442e-06
0.00505213
-1.72602e-06
0.00505235
-1.55131e-06
0.00505255
-1.40264e-06
0.00505273
-1.26097e-06
0.0050529
-1.15413e-06
0.00505305
-1.04216e-06
0.00505319
-9.82107e-07
0.00505331
-8.96317e-07
0.00505344
-8.91245e-07
0.00505356
-8.28857e-07
0.00505369
-8.89376e-07
0.00505381
-8.52111e-07
0.00505395
-9.89161e-07
0.00505409
-9.90734e-07
0.00505426
-1.20906e-06
0.00505445
-1.2853e-06
0.00505467
-1.57876e-06
0.00505493
-1.78636e-06
0.00505523
-2.16504e-06
0.0050556
-2.53967e-06
0.00505602
-3.02455e-06
0.00505657
-3.81458e-06
0.00505713
-3.82001e-06
0.00505794
-5.84611e-06
0.00505876
-5.65825e-06
-6.8195e-06
0.00520126
-4.43316e-05
0.00520673
-4.23322e-05
0.00521193
-4.04277e-05
0.0052169
-3.85979e-05
0.00522164
-3.68301e-05
0.00522616
-3.51176e-05
0.00523046
-3.34572e-05
0.00523455
-3.18479e-05
0.00523845
-3.02899e-05
0.00524215
-2.87834e-05
0.00524566
-2.73287e-05
0.005249
-2.59257e-05
0.00525216
-2.45741e-05
0.00525516
-2.32731e-05
0.00525799
-2.20219e-05
0.00526067
-2.08194e-05
0.00526321
-1.96643e-05
0.0052656
-1.85556e-05
0.00526785
-1.74918e-05
0.00526997
-1.64719e-05
0.00527197
-1.54944e-05
0.00527385
-1.45584e-05
0.00527561
-1.36625e-05
0.00527727
-1.28056e-05
0.00527881
-1.19867e-05
0.00528026
-1.12048e-05
0.00528161
-1.04588e-05
0.00528287
-9.74779e-06
0.00528404
-9.0709e-06
0.00528513
-8.42718e-06
0.00528614
-7.81571e-06
0.00528708
-7.2356e-06
0.00528794
-6.686e-06
0.00528874
-6.16611e-06
0.00528947
-5.67517e-06
0.00529015
-5.21249e-06
0.00529077
-4.77732e-06
0.00529133
-4.36901e-06
0.00529185
-3.98667e-06
0.00529232
-3.62978e-06
0.00529274
-3.29716e-06
0.00529313
-2.98885e-06
0.00529348
-2.70299e-06
0.0052938
-2.44114e-06
0.00529408
-2.1994e-06
0.00529434
-1.98282e-06
0.00529457
-1.78248e-06
0.00529478
-1.6113e-06
0.00529497
-1.44923e-06
0.00529514
-1.32571e-06
0.00529529
-1.19827e-06
0.00529544
-1.12784e-06
0.00529557
-1.03119e-06
0.00529571
-1.02304e-06
0.00529583
-9.54158e-07
0.00529596
-1.02045e-06
0.00529609
-9.81261e-07
0.00529624
-1.13478e-06
0.00529639
-1.14068e-06
0.00529657
-1.38735e-06
0.00529676
-1.47917e-06
0.00529699
-1.81165e-06
0.00529726
-2.05675e-06
0.00529758
-2.48101e-06
0.00529797
-2.9311e-06
0.0052984
-3.45912e-06
0.00529899
-4.39793e-06
0.00529957
-4.40047e-06
0.00530041
-6.68896e-06
0.00530128
-6.52472e-06
-7.87115e-06
0.00520176
-5.00279e-05
0.0052072
-4.77643e-05
0.00521238
-4.56086e-05
0.00521732
-4.35385e-05
0.00522203
-4.15403e-05
0.00522652
-3.96061e-05
0.00523079
-3.7732e-05
0.00523486
-3.59166e-05
0.00523873
-3.41597e-05
0.00524241
-3.24615e-05
0.0052459
-3.08219e-05
0.00524922
-2.92409e-05
0.00525236
-2.77177e-05
0.00525534
-2.62516e-05
0.00525816
-2.48415e-05
0.00526083
-2.34862e-05
0.00526334
-2.21843e-05
0.00526572
-2.09345e-05
0.00526797
-1.97353e-05
0.00527008
-1.85853e-05
0.00527207
-1.74832e-05
0.00527394
-1.64277e-05
0.00527569
-1.54174e-05
0.00527734
-1.4451e-05
0.00527888
-1.35274e-05
0.00528032
-1.26454e-05
0.00528167
-1.18038e-05
0.00528292
-1.10017e-05
0.00528409
-1.02381e-05
0.00528517
-9.51176e-06
0.00528618
-8.82182e-06
0.00528711
-8.16724e-06
0.00528797
-7.54708e-06
0.00528876
-6.96042e-06
0.0052895
-6.40642e-06
0.00529017
-5.88427e-06
0.00529078
-5.39314e-06
0.00529135
-4.93228e-06
0.00529186
-4.50073e-06
0.00529233
-4.09787e-06
0.00529275
-3.72243e-06
0.00529314
-3.37438e-06
0.00529349
-3.05178e-06
0.0052938
-2.75613e-06
0.00529409
-2.4834e-06
0.00529434
-2.23872e-06
0.00529457
-2.01288e-06
0.00529478
-1.81922e-06
0.00529497
-1.63691e-06
0.00529514
-1.49664e-06
0.0052953
-1.35397e-06
0.00529544
-1.27299e-06
0.00529558
-1.16579e-06
0.00529571
-1.15426e-06
0.00529583
-1.07929e-06
0.00529596
-1.15094e-06
0.00529609
-1.11032e-06
0.00529624
-1.27981e-06
0.00529639
-1.29052e-06
0.00529656
-1.56502e-06
0.00529676
-1.67294e-06
0.00529699
-2.04363e-06
0.00529726
-2.32763e-06
0.00529757
-2.79438e-06
0.00529797
-3.32599e-06
0.0052984
-3.88755e-06
0.00529898
-4.98504e-06
0.00529957
-4.98438e-06
0.0053004
-7.51984e-06
0.00530127
-7.39923e-06
-8.93282e-06
0.00520233
-5.56904e-05
0.00520773
-5.31627e-05
0.00521288
-5.07558e-05
0.00521779
-4.84459e-05
0.00522246
-4.62178e-05
0.00522692
-4.40628e-05
0.00523117
-4.19763e-05
0.00523521
-3.99563e-05
0.00523905
-3.80022e-05
0.0052427
-3.6114e-05
0.00524617
-3.42913e-05
0.00524946
-3.25338e-05
0.00525259
-3.08407e-05
0.00525555
-2.92111e-05
0.00525835
-2.76435e-05
0.005261
-2.61368e-05
0.0052635
-2.46893e-05
0.00526587
-2.32996e-05
0.0052681
-2.1966e-05
0.0052702
-2.06871e-05
0.00527218
-1.94613e-05
0.00527404
-1.82872e-05
0.00527578
-1.71632e-05
0.00527742
-1.60881e-05
0.00527895
-1.50604e-05
0.00528039
-1.40789e-05
0.00528173
-1.31424e-05
0.00528297
-1.22498e-05
0.00528414
-1.13998e-05
0.00528522
-1.05914e-05
0.00528622
-9.82339e-06
0.00528714
-9.09473e-06
0.005288
-8.40436e-06
0.00528879
-7.75127e-06
0.00528952
-7.1345e-06
0.00529019
-6.55317e-06
0.0052908
-6.00634e-06
0.00529136
-5.49319e-06
0.00529188
-5.01264e-06
0.00529234
-4.56401e-06
0.00529277
-4.14594e-06
0.00529315
-3.75834e-06
0.0052935
-3.39914e-06
0.00529381
-3.06984e-06
0.00529409
-2.76626e-06
0.00529435
-2.49359e-06
0.00529458
-2.24236e-06
0.00529478
-2.02632e-06
0.00529497
-1.82385e-06
0.00529514
-1.66693e-06
0.0052953
-1.50905e-06
0.00529544
-1.4176e-06
0.00529558
-1.29988e-06
0.00529571
-1.28504e-06
0.00529583
-1.20396e-06
0.00529596
-1.28104e-06
0.00529609
-1.23891e-06
0.00529623
-1.42449e-06
0.00529638
-1.43985e-06
0.00529656
-1.74232e-06
0.00529675
-1.86618e-06
0.00529699
-2.27495e-06
0.00529726
-2.59862e-06
0.00529757
-3.10525e-06
0.00529797
-3.72404e-06
0.00529839
-4.30988e-06
0.00529898
-5.57556e-06
0.00529957
-5.57208e-06
0.00530038
-8.33797e-06
0.00530127
-8.28276e-06
-1.0004e-05
0.00520297
-6.13125e-05
0.00520833
-5.85214e-05
0.00521344
-5.58639e-05
0.00521831
-5.3315e-05
0.00522295
-5.08583e-05
0.00522737
-4.84839e-05
0.00523158
-4.61865e-05
0.00523559
-4.39637e-05
0.0052394
-4.18144e-05
0.00524303
-3.97381e-05
0.00524647
-3.77342e-05
0.00524974
-3.58022e-05
0.00525284
-3.39409e-05
0.00525578
-3.21494e-05
0.00525856
-3.0426e-05
0.00526119
-2.87694e-05
0.00526368
-2.71777e-05
0.00526603
-2.56494e-05
0.00526825
-2.41827e-05
0.00527033
-2.27759e-05
0.0052723
-2.14275e-05
0.00527415
-2.01356e-05
0.00527588
-1.88989e-05
0.00527751
-1.77158e-05
0.00527904
-1.65848e-05
0.00528046
-1.55046e-05
0.00528179
-1.44738e-05
0.00528304
-1.34912e-05
0.00528419
-1.25555e-05
0.00528527
-1.16654e-05
0.00528626
-1.08199e-05
0.00528718
-1.00176e-05
0.00528804
-9.25738e-06
0.00528882
-8.53822e-06
0.00528955
-7.85904e-06
0.00529021
-7.21885e-06
0.00529082
-6.61661e-06
0.00529138
-6.05142e-06
0.00529189
-5.52213e-06
0.00529236
-5.02796e-06
0.00529278
-4.56747e-06
0.00529316
-4.1405e-06
0.00529351
-3.7449e-06
0.00529382
-3.3821e-06
0.0052941
-3.0478e-06
0.00529435
-2.7473e-06
0.00529458
-2.47079e-06
0.00529479
-2.23248e-06
0.00529497
-2.00994e-06
0.00529514
-1.83645e-06
0.0052953
-1.66344e-06
0.00529544
-1.5616e-06
0.00529558
-1.43336e-06
0.00529571
-1.4153e-06
0.00529583
-1.32808e-06
0.00529596
-1.4107e-06
0.00529609
-1.36695e-06
0.00529623
-1.56876e-06
0.00529638
-1.58858e-06
0.00529656
-1.9192e-06
0.00529675
-2.05877e-06
0.00529698
-2.50551e-06
0.00529725
-2.86959e-06
0.00529756
-3.41357e-06
0.00529796
-4.12506e-06
0.00529838
-4.72605e-06
0.00529897
-6.16931e-06
0.00529956
-6.16341e-06
0.00530037
-9.14341e-06
0.00530126
-9.17528e-06
-1.10849e-05
0.00520369
-6.68869e-05
0.005209
-6.3834e-05
0.00521406
-6.09275e-05
0.00521889
-5.81409e-05
0.00522349
-5.54571e-05
0.00522787
-5.28651e-05
0.00523204
-5.03589e-05
0.00523601
-4.79354e-05
0.00523979
-4.5593e-05
0.00524338
-4.33308e-05
0.0052468
-4.11479e-05
0.00525004
-3.90434e-05
0.00525311
-3.7016e-05
0.00525603
-3.50645e-05
0.00525879
-3.31871e-05
0.0052614
-3.13821e-05
0.00526387
-2.96478e-05
0.00526621
-2.79824e-05
0.00526841
-2.63838e-05
0.00527048
-2.48505e-05
0.00527243
-2.33804e-05
0.00527427
-2.1972e-05
0.005276
-2.06235e-05
0.00527761
-1.93333e-05
0.00527913
-1.80999e-05
0.00528055
-1.69217e-05
0.00528187
-1.57973e-05
0.0052831
-1.47253e-05
0.00528425
-1.37045e-05
0.00528532
-1.27334e-05
0.00528631
-1.18107e-05
0.00528723
-1.09352e-05
0.00528808
-1.01057e-05
0.00528886
-9.32087e-06
0.00528958
-8.57965e-06
0.00529024
-7.88094e-06
0.00529085
-7.22362e-06
0.0052914
-6.60669e-06
0.00529191
-6.02893e-06
0.00529237
-5.48947e-06
0.00529279
-4.9868e-06
0.00529317
-4.52067e-06
0.00529352
-4.08884e-06
0.00529383
-3.69273e-06
0.00529411
-3.32789e-06
0.00529436
-2.99969e-06
0.00529459
-2.69804e-06
0.00529479
-2.43758e-06
0.00529498
-2.19506e-06
0.00529515
-2.00512e-06
0.0052953
-1.81702e-06
0.00529544
-1.70489e-06
0.00529557
-1.56615e-06
0.0052957
-1.54496e-06
0.00529583
-1.45157e-06
0.00529596
-1.53984e-06
0.00529608
-1.49436e-06
0.00529623
-1.71255e-06
0.00529638
-1.73659e-06
0.00529655
-2.09557e-06
0.00529674
-2.2506e-06
0.00529697
-2.73525e-06
0.00529725
-3.14035e-06
0.00529755
-3.71929e-06
0.00529795
-4.52873e-06
0.00529836
-5.13612e-06
0.00529896
-6.76599e-06
0.00529956
-6.75806e-06
0.00530035
-9.9366e-06
0.00530125
-1.00766e-05
-1.21755e-05
0.00520447
-7.24061e-05
0.00520973
-6.90939e-05
0.00521474
-6.59405e-05
0.00521952
-6.29185e-05
0.00522407
-6.00097e-05
0.00522841
-5.72024e-05
0.00523254
-5.44898e-05
0.00523647
-5.18681e-05
0.00524022
-4.93351e-05
0.00524378
-4.68894e-05
0.00524716
-4.45299e-05
0.00525037
-4.22551e-05
0.00525342
-4.00638e-05
0.00525631
-3.79543e-05
0.00525904
-3.59248e-05
0.00526164
-3.39734e-05
0.00526409
-3.20981e-05
0.0052664
-3.0297e-05
0.00526858
-2.85681e-05
0.00527064
-2.69094e-05
0.00527258
-2.53191e-05
0.00527441
-2.37952e-05
0.00527612
-2.23359e-05
0.00527772
-2.09396e-05
0.00527923
-1.96046e-05
0.00528064
-1.83293e-05
0.00528195
-1.7112e-05
0.00528318
-1.59515e-05
0.00528432
-1.48461e-05
0.00528538
-1.37945e-05
0.00528636
-1.27954e-05
0.00528728
-1.18472e-05
0.00528812
-1.09488e-05
0.0052889
-1.00988e-05
0.00528961
-9.29593e-06
0.00529027
-8.53908e-06
0.00529088
-7.82703e-06
0.00529143
-7.15869e-06
0.00529193
-6.53276e-06
0.00529239
-5.94828e-06
0.00529281
-5.40367e-06
0.00529318
-4.89862e-06
0.00529353
-4.43079e-06
0.00529384
-4.00156e-06
0.00529411
-3.60634e-06
0.00529436
-3.25062e-06
0.00529459
-2.92396e-06
0.00529479
-2.6415e-06
0.00529498
-2.37911e-06
0.00529515
-2.17281e-06
0.0052953
-1.9697e-06
0.00529544
-1.84737e-06
0.00529557
-1.69816e-06
0.0052957
-1.67393e-06
0.00529583
-1.57434e-06
0.00529595
-1.66836e-06
0.00529608
-1.62104e-06
0.00529622
-1.85577e-06
0.00529637
-1.88379e-06
0.00529655
-2.27136e-06
0.00529674
-2.44152e-06
0.00529697
-2.96409e-06
0.00529724
-3.41069e-06
0.00529754
-4.02243e-06
0.00529795
-4.93466e-06
0.00529835
-5.54029e-06
0.00529895
-7.3652e-06
0.00529955
-7.35561e-06
0.00530033
-1.07182e-05
0.00530124
-1.09862e-05
-1.32757e-05
0.00520533
-7.78624e-05
0.00521053
-7.42944e-05
0.00521548
-7.08971e-05
0.00522021
-6.76425e-05
0.00522471
-6.45115e-05
0.005229
-6.14917e-05
0.00523308
-5.85755e-05
0.00523697
-5.57583e-05
0.00524068
-5.30375e-05
0.0052442
-5.04111e-05
0.00524755
-4.78774e-05
0.00525073
-4.5435e-05
0.00525374
-4.30821e-05
0.00525661
-4.08168e-05
0.00525932
-3.86372e-05
0.00526189
-3.65413e-05
0.00526432
-3.45268e-05
0.00526661
-3.25918e-05
0.00526878
-3.07341e-05
0.00527082
-2.89515e-05
0.00527274
-2.72422e-05
0.00527455
-2.5604e-05
0.00527625
-2.40352e-05
0.00527784
-2.25338e-05
0.00527934
-2.10982e-05
0.00528073
-1.97266e-05
0.00528204
-1.84173e-05
0.00528326
-1.71689e-05
0.00528439
-1.59798e-05
0.00528545
-1.48484e-05
0.00528642
-1.37733e-05
0.00528733
-1.27531e-05
0.00528817
-1.17863e-05
0.00528894
-1.08715e-05
0.00528965
-1.00075e-05
0.0052903
-9.19291e-06
0.0052909
-8.42651e-06
0.00529145
-7.70712e-06
0.00529195
-7.03333e-06
0.00529241
-6.40414e-06
0.00529282
-5.81787e-06
0.0052932
-5.27414e-06
0.00529354
-4.77053e-06
0.00529385
-4.3084e-06
0.00529412
-3.88299e-06
0.00529437
-3.49992e-06
0.0052946
-3.14842e-06
0.0052948
-2.84409e-06
0.00529498
-2.56194e-06
0.00529515
-2.33942e-06
0.0052953
-2.12137e-06
0.00529544
-1.98895e-06
0.00529557
-1.82929e-06
0.0052957
-1.80213e-06
0.00529582
-1.69629e-06
0.00529595
-1.7962e-06
0.00529608
-1.7469e-06
0.00529622
-1.99835e-06
0.00529636
-2.03007e-06
0.00529654
-2.44647e-06
0.00529673
-2.63139e-06
0.00529696
-3.19197e-06
0.00529723
-3.68038e-06
0.00529753
-4.32302e-06
0.00529794
-5.34234e-06
0.00529833
-5.93883e-06
0.00529894
-7.96645e-06
0.00529954
-7.95557e-06
0.00530031
-1.14891e-05
0.00530122
-1.19035e-05
-1.43852e-05
0.00520625
-8.32476e-05
0.00521139
-7.94284e-05
0.00521628
-7.57912e-05
0.00522095
-7.23076e-05
0.00522539
-6.89579e-05
0.00522963
-6.57289e-05
0.00523367
-6.26123e-05
0.00523751
-5.96029e-05
0.00524117
-5.66972e-05
0.00524465
-5.3893e-05
0.00524796
-5.11881e-05
0.00525111
-4.85807e-05
0.0052541
-4.60687e-05
0.00525693
-4.365e-05
0.00525962
-4.13226e-05
0.00526216
-3.90842e-05
0.00526456
-3.69325e-05
0.00526684
-3.48653e-05
0.00526898
-3.28804e-05
0.00527101
-3.09755e-05
0.00527291
-2.91485e-05
0.00527471
-2.73975e-05
0.00527639
-2.57202e-05
0.00527797
-2.41149e-05
0.00527946
-2.25797e-05
0.00528084
-2.11128e-05
0.00528214
-1.97124e-05
0.00528334
-1.8377e-05
0.00528447
-1.71048e-05
0.00528552
-1.58943e-05
0.00528649
-1.4744e-05
0.00528739
-1.36523e-05
0.00528822
-1.26177e-05
0.00528898
-1.16387e-05
0.00528969
-1.07139e-05
0.00529034
-9.84207e-06
0.00529094
-9.02173e-06
0.00529148
-8.25165e-06
0.00529198
-7.53036e-06
0.00529243
-6.85678e-06
0.00529284
-6.22914e-06
0.00529321
-5.64701e-06
0.00529355
-5.10787e-06
0.00529386
-4.61306e-06
0.00529413
-4.15768e-06
0.00529438
-3.74745e-06
0.0052946
-3.37126e-06
0.0052948
-3.04523e-06
0.00529498
-2.74345e-06
0.00529515
-2.50483e-06
0.0052953
-2.27193e-06
0.00529544
-2.12952e-06
0.00529557
-1.95945e-06
0.0052957
-1.92945e-06
0.00529582
-1.81733e-06
0.00529595
-1.92325e-06
0.00529607
-1.87183e-06
0.00529621
-2.14018e-06
0.00529636
-2.17531e-06
0.00529653
-2.62082e-06
0.00529672
-2.82007e-06
0.00529695
-3.41881e-06
0.00529722
-3.94915e-06
0.00529751
-4.62116e-06
0.00529792
-5.7512e-06
0.00529832
-6.33211e-06
0.00529892
-8.56916e-06
0.00529952
-8.55732e-06
0.00530028
-1.22505e-05
0.00530121
-1.28277e-05
-1.55036e-05
0.00520725
-8.85541e-05
0.00521231
-8.4489e-05
0.00521714
-8.06168e-05
0.00522174
-7.69086e-05
0.00522613
-7.33442e-05
0.00523031
-6.99099e-05
0.00523429
-6.65966e-05
0.00523809
-6.33984e-05
0.0052417
-6.03113e-05
0.00524514
-5.73325e-05
0.00524841
-5.44595e-05
0.00525152
-5.16899e-05
0.00525448
-4.90215e-05
0.00525728
-4.6452e-05
0.00525993
-4.39791e-05
0.00526245
-4.16004e-05
0.00526483
-3.93135e-05
0.00526708
-3.71161e-05
0.00526921
-3.50057e-05
0.00527121
-3.29801e-05
0.0052731
-3.10371e-05
0.00527488
-2.91744e-05
0.00527655
-2.73901e-05
0.00527811
-2.5682e-05
0.00527958
-2.40483e-05
0.00528096
-2.24871e-05
0.00528224
-2.09966e-05
0.00528344
-1.9575e-05
0.00528455
-1.82206e-05
0.00528559
-1.69318e-05
0.00528656
-1.57069e-05
0.00528745
-1.45443e-05
0.00528827
-1.34424e-05
0.00528903
-1.23998e-05
0.00528973
-1.14149e-05
0.00529038
-1.04862e-05
0.00529097
-9.61234e-06
0.00529151
-8.79199e-06
0.005292
-8.02357e-06
0.00529245
-7.30593e-06
0.00529286
-6.63724e-06
0.00529323
-6.01701e-06
0.00529356
-5.4426e-06
0.00529387
-4.91536e-06
0.00529414
-4.43022e-06
0.00529438
-3.99304e-06
0.00529461
-3.59234e-06
0.00529481
-3.24478e-06
0.00529499
-2.9235e-06
0.00529515
-2.66892e-06
0.0052953
-2.42125e-06
0.00529544
-2.26897e-06
0.00529557
-2.08852e-06
0.00529569
-2.0558e-06
0.00529581
-1.93736e-06
0.00529594
-2.04942e-06
0.00529606
-1.99574e-06
0.0052962
-2.28118e-06
0.00529635
-2.31938e-06
0.00529652
-2.79432e-06
0.00529671
-3.00738e-06
0.00529694
-3.64455e-06
0.0052972
-4.21673e-06
0.0052975
-4.91692e-06
0.00529791
-6.16059e-06
0.0052983
-6.72054e-06
0.0052989
-9.17273e-06
0.0052995
-9.16024e-06
0.00530026
-1.30034e-05
0.00530119
-1.3758e-05
-1.66305e-05
0.00520832
-9.37738e-05
0.0052133
-8.94696e-05
0.00521806
-8.53679e-05
0.00522259
-8.14402e-05
0.00522691
-7.76659e-05
0.00523103
-7.40306e-05
0.00523496
-7.05247e-05
0.0052387
-6.71416e-05
0.00524227
-6.38769e-05
0.00524566
-6.0727e-05
0.00524889
-5.7689e-05
0.00525196
-5.47603e-05
0.00525488
-5.19385e-05
0.00525765
-4.92209e-05
0.00526027
-4.6605e-05
0.00526276
-4.40883e-05
0.00526512
-4.16684e-05
0.00526734
-3.93427e-05
0.00526944
-3.71087e-05
0.00527143
-3.49641e-05
0.0052733
-3.29066e-05
0.00527506
-3.09338e-05
0.00527671
-2.90438e-05
0.00527826
-2.72342e-05
0.00527972
-2.55032e-05
0.00528108
-2.38488e-05
0.00528235
-2.22691e-05
0.00528354
-2.07622e-05
0.00528465
-1.93265e-05
0.00528567
-1.79601e-05
0.00528663
-1.66614e-05
0.00528751
-1.54286e-05
0.00528833
-1.42602e-05
0.00528909
-1.31545e-05
0.00528978
-1.21099e-05
0.00529042
-1.11249e-05
0.005291
-1.0198e-05
0.00529154
-9.32781e-06
0.00529203
-8.51266e-06
0.00529248
-7.75134e-06
0.00529288
-7.04194e-06
0.00529325
-6.3839e-06
0.00529358
-5.77452e-06
0.00529388
-5.21511e-06
0.00529415
-4.70044e-06
0.00529439
-4.23653e-06
0.00529461
-3.81152e-06
0.00529481
-3.44259e-06
0.00529499
-3.10196e-06
0.00529515
-2.83158e-06
0.0052953
-2.56923e-06
0.00529544
-2.40721e-06
0.00529556
-2.2164e-06
0.00529569
-2.18109e-06
0.00529581