/*--------------------------------*- C++ -*----------------------------------*\
| =========                 |                                                 |
| \\      /  F ield         | OpenFOAM: The Open Source CFD Toolbox           |
|  \\    /   O peration     | Version:  2412                                  |
|   \\  /    A nd           | Website:  www.openfoam.com                      |
|    \\/     M anipulation  |                                                 |
\*---------------------------------------------------------------------------*/
FoamFile
{
    version     2.0;
    format      ascii;
    arch        "LSB;label=32;scalar=64";
    class       volVectorField;
    location    "24.5";
    object      U;
}
// * * * * * * * * * * * * * * * * * * * * * * * * * * * * * * * * * * * * * //

dimensions      [0 1 -1 0 0 0 0];

internalField   nonuniform List<vector> 
5285
(
(0.098185 -2.30599e-05 0)
(0.098292 -2.16003e-05 0)
(0.0983943 -2.02346e-05 0)
(0.0984921 -1.89479e-05 0)
(0.0985854 -1.77306e-05 0)
(0.0986745 -1.6577e-05 0)
(0.0987594 -1.54837e-05 0)
(0.0988403 -1.44485e-05 0)
(0.0989173 -1.34696e-05 0)
(0.0989905 -1.25455e-05 0)
(0.09906 -1.16742e-05 0)
(0.0991259 -1.08538e-05 0)
(0.0991884 -1.00823e-05 0)
(0.0992477 -9.35726e-06 0)
(0.0993037 -8.6765e-06 0)
(0.0993568 -8.03776e-06 0)
(0.0994068 -7.43884e-06 0)
(0.0994541 -6.87766e-06 0)
(0.0994987 -6.35224e-06 0)
(0.0995407 -5.86067e-06 0)
(0.0995802 -5.40117e-06 0)
(0.0996174 -4.97194e-06 0)
(0.0996523 -4.57129e-06 0)
(0.099685 -4.19755e-06 0)
(0.0997157 -3.84918e-06 0)
(0.0997443 -3.52478e-06 0)
(0.0997711 -3.22306e-06 0)
(0.0997961 -2.94284e-06 0)
(0.0998193 -2.68293e-06 0)
(0.0998409 -2.44202e-06 0)
(0.099861 -2.21879e-06 0)
(0.0998796 -2.01195e-06 0)
(0.0998968 -1.82046e-06 0)
(0.0999126 -1.64355e-06 0)
(0.0999273 -1.48066e-06 0)
(0.0999407 -1.33131e-06 0)
(0.0999531 -1.19484e-06 0)
(0.0999643 -1.07044e-06 0)
(0.0999747 -9.57115e-07 0)
(0.0999841 -8.53921e-07 0)
(0.0999926 -7.59862e-07 0)
(0.1 -6.74427e-07 0)
(0.100007 -5.96828e-07 0)
(0.100014 -5.27308e-07 0)
(0.10002 -4.64722e-07 0)
(0.100025 -4.09938e-07 0)
(0.100029 -3.60368e-07 0)
(0.100033 -3.18534e-07 0)
(0.100038 -2.79528e-07 0)
(0.10004 -2.49746e-07 0)
(0.100044 -2.19824e-07 0)
(0.100046 -2.02468e-07 0)
(0.10005 -1.80508e-07 0)
(0.10005 -1.76614e-07 0)
(0.100056 -1.61094e-07 0)
(0.100054 -1.70914e-07 0)
(0.100062 -1.61087e-07 0)
(0.100058 -1.85441e-07 0)
(0.100069 -1.8299e-07 0)
(0.100062 -2.20919e-07 0)
(0.100077 -2.31606e-07 0)
(0.100068 -2.80579e-07 0)
(0.100087 -3.10199e-07 0)
(0.100077 -3.73475e-07 0)
(0.100101 -4.21404e-07 0)
(0.10009 -5.04966e-07 0)
(0.100119 -6.10452e-07 0)
(0.10011 -5.98773e-07 0)
(0.100142 -9.24753e-07 0)
(0.100142 -8.51745e-07 0)
(0.100177 -1.00885e-06 0)
(0.0981861 -6.90934e-05 0)
(0.0982931 -6.4727e-05 0)
(0.0983953 -6.06415e-05 0)
(0.098493 -5.67921e-05 0)
(0.0985863 -5.31504e-05 0)
(0.0986753 -4.9699e-05 0)
(0.0987602 -4.64275e-05 0)
(0.098841 -4.33294e-05 0)
(0.098918 -4.03996e-05 0)
(0.0989911 -3.76332e-05 0)
(0.0990605 -3.50249e-05 0)
(0.0991264 -3.25689e-05 0)
(0.0991889 -3.02589e-05 0)
(0.0992481 -2.80883e-05 0)
(0.0993041 -2.60504e-05 0)
(0.0993571 -2.41386e-05 0)
(0.0994072 -2.23461e-05 0)
(0.0994544 -2.06668e-05 0)
(0.099499 -1.90944e-05 0)
(0.099541 -1.76232e-05 0)
(0.0995805 -1.62477e-05 0)
(0.0996176 -1.49624e-05 0)
(0.0996525 -1.37623e-05 0)
(0.0996852 -1.26425e-05 0)
(0.0997158 -1.15986e-05 0)
(0.0997445 -1.06262e-05 0)
(0.0997712 -9.72134e-06 0)
(0.0997962 -8.88033e-06 0)
(0.0998194 -8.09953e-06 0)
(0.099841 -7.37537e-06 0)
(0.0998611 -6.70432e-06 0)
(0.0998797 -6.08308e-06 0)
(0.0998968 -5.50863e-06 0)
(0.0999127 -4.97832e-06 0)
(0.0999273 -4.48987e-06 0)
(0.0999408 -4.04107e-06 0)
(0.0999531 -3.62972e-06 0)
(0.0999644 -3.25355e-06 0)
(0.0999747 -2.91008e-06 0)
(0.0999841 -2.59717e-06 0)
(0.0999926 -2.31231e-06 0)
(0.1 -2.05418e-06 0)
(0.100007 -1.82021e-06 0)
(0.100014 -1.61065e-06 0)
(0.10002 -1.42166e-06 0)
(0.100025 -1.25589e-06 0)
(0.100029 -1.10586e-06 0)
(0.100033 -9.79474e-07 0)
(0.100038 -8.62196e-07 0)
(0.10004 -7.72737e-07 0)
(0.100044 -6.82947e-07 0)
(0.100046 -6.30426e-07 0)
(0.10005 -5.63463e-07 0)
(0.10005 -5.49796e-07 0)
(0.100056 -5.01299e-07 0)
(0.100054 -5.2849e-07 0)
(0.100062 -4.96898e-07 0)
(0.100058 -5.67091e-07 0)
(0.100069 -5.5775e-07 0)
(0.100062 -6.68742e-07 0)
(0.100077 -6.98058e-07 0)
(0.100068 -8.42811e-07 0)
(0.100087 -9.30876e-07 0)
(0.100077 -1.1186e-06 0)
(0.100101 -1.26166e-06 0)
(0.10009 -1.51254e-06 0)
(0.100119 -1.82746e-06 0)
(0.10011 -1.79295e-06 0)
(0.100142 -2.76295e-06 0)
(0.100142 -2.54513e-06 0)
(0.100177 -3.01345e-06 0)
(0.0981883 -0.000115102 0)
(0.0982952 -0.000107825 0)
(0.0983973 -0.000101017 0)
(0.0984949 -9.46032e-05 0)
(0.0985881 -8.85362e-05 0)
(0.098677 -8.27872e-05 0)
(0.0987617 -7.73387e-05 0)
(0.0988425 -7.21793e-05 0)
(0.0989193 -6.73005e-05 0)
(0.0989923 -6.2694e-05 0)
(0.0990616 -5.83509e-05 0)
(0.0991274 -5.42613e-05 0)
(0.0991898 -5.04149e-05 0)
(0.099249 -4.68007e-05 0)
(0.0993049 -4.34075e-05 0)
(0.0993578 -4.02241e-05 0)
(0.0994078 -3.72397e-05 0)
(0.099455 -3.44435e-05 0)
(0.0994995 -3.18254e-05 0)
(0.0995415 -2.93757e-05 0)
(0.0995809 -2.70851e-05 0)
(0.099618 -2.49446e-05 0)
(0.0996529 -2.29459e-05 0)
(0.0996855 -2.10809e-05 0)
(0.0997161 -1.93421e-05 0)
(0.0997447 -1.77223e-05 0)
(0.0997715 -1.62149e-05 0)
(0.0997964 -1.48135e-05 0)
(0.0998196 -1.35123e-05 0)
(0.0998412 -1.23053e-05 0)
(0.0998612 -1.11868e-05 0)
(0.0998798 -1.01515e-05 0)
(0.099897 -9.19434e-06 0)
(0.0999128 -8.31092e-06 0)
(0.0999274 -7.49714e-06 0)
(0.0999409 -6.74912e-06 0)
(0.0999532 -6.06308e-06 0)
(0.0999645 -5.43531e-06 0)
(0.0999748 -4.86185e-06 0)
(0.0999842 -4.33937e-06 0)
(0.0999927 -3.86383e-06 0)
(0.1 -3.43311e-06 0)
(0.100007 -3.04289e-06 0)
(0.100014 -2.69338e-06 0)
(0.10002 -2.37806e-06 0)
(0.100025 -2.10137e-06 0)
(0.100029 -1.85094e-06 0)
(0.100033 -1.64006e-06 0)
(0.100038 -1.44456e-06 0)
(0.10004 -1.29547e-06 0)
(0.100044 -1.14584e-06 0)
(0.100046 -1.05819e-06 0)
(0.10005 -9.46244e-07 0)
(0.10005 -9.22826e-07 0)
(0.100056 -8.41359e-07 0)
(0.100054 -8.85945e-07 0)
(0.100062 -8.32579e-07 0)
(0.100058 -9.48648e-07 0)
(0.100069 -9.32374e-07 0)
(0.100062 -1.11647e-06 0)
(0.100077 -1.16441e-06 0)
(0.100068 -1.40478e-06 0)
(0.100087 -1.55186e-06 0)
(0.100077 -1.86249e-06 0)
(0.100101 -2.10392e-06 0)
(0.100091 -2.51698e-06 0)
(0.100119 -3.04653e-06 0)
(0.100111 -2.98931e-06 0)
(0.100142 -4.59462e-06 0)
(0.100142 -4.24288e-06 0)
(0.100177 -5.02237e-06 0)
(0.0981916 -0.000161068 0)
(0.0982984 -0.000150874 0)
(0.0984003 -0.000141339 0)
(0.0984978 -0.000132358 0)
(0.0985908 -0.000123865 0)
(0.0986795 -0.000115819 0)
(0.0987641 -0.000108195 0)
(0.0988446 -0.000100978 0)
(0.0989212 -9.41532e-05 0)
(0.0989941 -8.77102e-05 0)
(0.0990633 -8.16358e-05 0)
(0.099129 -7.59162e-05 0)
(0.0991912 -7.05368e-05 0)
(0.0992502 -6.54821e-05 0)
(0.0993061 -6.07365e-05 0)
(0.0993589 -5.62844e-05 0)
(0.0994088 -5.21103e-05 0)
(0.0994559 -4.81996e-05 0)
(0.0995003 -4.45379e-05 0)
(0.0995422 -4.11115e-05 0)
(0.0995816 -3.79075e-05 0)
(0.0996186 -3.49134e-05 0)
(0.0996534 -3.21174e-05 0)
(0.099686 -2.95084e-05 0)
(0.0997166 -2.70757e-05 0)
(0.0997452 -2.48095e-05 0)
(0.0997718 -2.27004e-05 0)
(0.0997967 -2.07396e-05 0)
(0.0998199 -1.89187e-05 0)
(0.0998415 -1.72295e-05 0)
(0.0998615 -1.56641e-05 0)
(0.09988 -1.42153e-05 0)
(0.0998972 -1.2876e-05 0)
(0.099913 -1.16399e-05 0)
(0.0999276 -1.05012e-05 0)
(0.099941 -9.45429e-06 0)
(0.0999533 -8.49389e-06 0)
(0.0999646 -7.61482e-06 0)
(0.0999749 -6.81163e-06 0)
(0.0999842 -6.07981e-06 0)
(0.0999928 -5.4138e-06 0)
(0.100001 -4.81069e-06 0)
(0.100008 -4.26437e-06 0)
(0.100014 -3.77506e-06 0)
(0.10002 -3.33357e-06 0)
(0.100025 -2.94606e-06 0)
(0.100029 -2.59535e-06 0)
(0.100033 -2.30007e-06 0)
(0.100038 -2.02641e-06 0)
(0.10004 -1.81776e-06 0)
(0.100044 -1.60836e-06 0)
(0.100046 -1.48562e-06 0)
(0.10005 -1.32872e-06 0)
(0.10005 -1.29562e-06 0)
(0.100056 -1.18116e-06 0)
(0.100054 -1.24322e-06 0)
(0.100062 -1.16801e-06 0)
(0.100058 -1.33007e-06 0)
(0.100069 -1.30674e-06 0)
(0.100062 -1.56405e-06 0)
(0.100077 -1.63055e-06 0)
(0.100068 -1.96633e-06 0)
(0.100087 -2.17331e-06 0)
(0.100077 -2.60435e-06 0)
(0.100101 -2.94942e-06 0)
(0.100091 -3.51631e-06 0)
(0.100119 -4.26893e-06 0)
(0.100111 -4.18924e-06 0)
(0.100142 -6.41566e-06 0)
(0.100142 -5.94782e-06 0)
(0.100177 -7.03829e-06 0)
(0.0981961 -0.00020697 0)
(0.0983026 -0.000193853 0)
(0.0984044 -0.000181584 0)
(0.0985016 -0.000170033 0)
(0.0985943 -0.000159113 0)
(0.0986828 -0.000148772 0)
(0.0987672 -0.000138976 0)
(0.0988475 -0.000129704 0)
(0.0989239 -0.000120938 0)
(0.0989965 -0.000112664 0)
(0.0990655 -0.000104863 0)
(0.099131 -9.75185e-05 0)
(0.0991931 -9.06108e-05 0)
(0.099252 -8.41201e-05 0)
(0.0993077 -7.80262e-05 0)
(0.0993603 -7.23091e-05 0)
(0.0994101 -6.69489e-05 0)
(0.0994571 -6.19268e-05 0)
(0.0995014 -5.72242e-05 0)
(0.0995432 -5.28238e-05 0)
(0.0995825 -4.87087e-05 0)
(0.0996195 -4.48631e-05 0)
(0.0996542 -4.12717e-05 0)
(0.0996867 -3.79204e-05 0)
(0.0997172 -3.47955e-05 0)
(0.0997457 -3.18843e-05 0)
(0.0997724 -2.91749e-05 0)
(0.0997972 -2.66557e-05 0)
(0.0998203 -2.43161e-05 0)
(0.0998419 -2.21456e-05 0)
(0.0998618 -2.01343e-05 0)
(0.0998803 -1.82726e-05 0)
(0.0998975 -1.65518e-05 0)
(0.0999133 -1.49637e-05 0)
(0.0999278 -1.35006e-05 0)
(0.0999412 -1.21554e-05 0)
(0.0999535 -1.09211e-05 0)
(0.0999647 -9.79114e-06 0)
(0.099975 -8.75859e-06 0)
(0.0999844 -7.81776e-06 0)
(0.0999929 -6.96158e-06 0)
(0.100001 -6.18635e-06 0)
(0.100008 -5.48417e-06 0)
(0.100014 -4.85528e-06 0)
(0.10002 -4.28778e-06 0)
(0.100025 -3.78965e-06 0)
(0.10003 -3.33878e-06 0)
(0.100033 -2.95925e-06 0)
(0.100038 -2.60752e-06 0)
(0.10004 -2.33945e-06 0)
(0.100044 -2.07028e-06 0)
(0.100046 -1.91263e-06 0)
(0.10005 -1.7107e-06 0)
(0.10005 -1.66813e-06 0)
(0.100056 -1.52052e-06 0)
(0.100054 -1.60031e-06 0)
(0.100062 -1.50299e-06 0)
(0.100058 -1.71138e-06 0)
(0.100069 -1.68065e-06 0)
(0.100062 -2.0115e-06 0)
(0.100077 -2.0963e-06 0)
(0.100068 -2.52737e-06 0)
(0.100087 -2.79529e-06 0)
(0.100077 -3.34353e-06 0)
(0.100101 -3.79921e-06 0)
(0.100091 -4.50875e-06 0)
(0.100119 -5.49573e-06 0)
(0.100111 -5.39406e-06 0)
(0.100142 -8.22217e-06 0)
(0.100142 -7.66268e-06 0)
(0.100177 -9.06357e-06 0)
(0.0982016 -0.000252783 0)
(0.0983079 -0.000236735 0)
(0.0984094 -0.000221728 0)
(0.0985063 -0.000207603 0)
(0.0985988 -0.000194256 0)
(0.098687 -0.000181621 0)
(0.098771 -0.000169657 0)
(0.098851 -0.000158336 0)
(0.0989272 -0.000147636 0)
(0.0989996 -0.000137536 0)
(0.0990683 -0.000128016 0)
(0.0991336 -0.000119053 0)
(0.0991955 -0.000110623 0)
(0.0992541 -0.000102702 0)
(0.0993096 -9.52655e-05 0)
(0.0993621 -8.82881e-05 0)
(0.0994118 -8.17463e-05 0)
(0.0994586 -7.56168e-05 0)
(0.0995028 -6.98771e-05 0)
(0.0995444 -6.45059e-05 0)
(0.0995836 -5.94827e-05 0)
(0.0996205 -5.47883e-05 0)
(0.0996551 -5.04041e-05 0)
(0.0996876 -4.63127e-05 0)
(0.099718 -4.24975e-05 0)
(0.0997464 -3.89432e-05 0)
(0.099773 -3.5635e-05 0)
(0.0997978 -3.2559e-05 0)
(0.0998209 -2.9702e-05 0)
(0.0998423 -2.70514e-05 0)
(0.0998622 -2.45951e-05 0)
(0.0998807 -2.23217e-05 0)
(0.0998978 -2.02203e-05 0)
(0.0999136 -1.82809e-05 0)
(0.0999281 -1.64942e-05 0)
(0.0999414 -1.48513e-05 0)
(0.0999537 -1.33437e-05 0)
(0.0999649 -1.19633e-05 0)
(0.0999752 -1.07019e-05 0)
(0.0999845 -9.55249e-06 0)
(0.099993 -8.50652e-06 0)
(0.100001 -7.55952e-06 0)
(0.100008 -6.70178e-06 0)
(0.100014 -5.93358e-06 0)
(0.10002 -5.24032e-06 0)
(0.100025 -4.63179e-06 0)
(0.10003 -4.08092e-06 0)
(0.100033 -3.61737e-06 0)
(0.100038 -3.18763e-06 0)
(0.10004 -2.86038e-06 0)
(0.100044 -2.53141e-06 0)
(0.100046 -2.33912e-06 0)
(0.10005 -2.092e-06 0)
(0.10005 -2.04029e-06 0)
(0.100056 -1.85923e-06 0)
(0.100054 -1.9572e-06 0)
(0.100062 -1.83734e-06 0)
(0.100058 -2.09258e-06 0)
(0.100069 -2.05388e-06 0)
(0.100062 -2.45884e-06 0)
(0.100077 -2.56146e-06 0)
(0.100068 -3.0878e-06 0)
(0.100087 -3.41782e-06 0)
(0.100077 -4.07939e-06 0)
(0.100101 -4.6542e-06 0)
(0.100091 -5.49272e-06 0)
(0.100119 -6.72784e-06 0)
(0.100111 -6.60494e-06 0)
(0.100142 -1.00107e-05 0)
(0.100142 -9.3899e-06 0)
(0.100177 -1.11003e-05 0)
(0.0982084 -0.00029848 0)
(0.0983144 -0.000279493 0)
(0.0984155 -0.000261743 0)
(0.0985121 -0.000245043 0)
(0.0986042 -0.000229269 0)
(0.098692 -0.000214344 0)
(0.0987757 -0.000200217 0)
(0.0988553 -0.000186854 0)
(0.0989311 -0.000174227 0)
(0.0990032 -0.000162311 0)
(0.0990717 -0.000151079 0)
(0.0991367 -0.000140506 0)
(0.0991983 -0.000130561 0)
(0.0992567 -0.000121217 0)
(0.099312 -0.000112443 0)
(0.0993643 -0.000104212 0)
(0.0994137 -9.64935e-05 0)
(0.0994604 -8.92614e-05 0)
(0.0995044 -8.24891e-05 0)
(0.0995459 -7.61511e-05 0)
(0.099585 -7.02236e-05 0)
(0.0996217 -6.46836e-05 0)
(0.0996562 -5.95095e-05 0)
(0.0996886 -5.46807e-05 0)
(0.0997189 -5.01778e-05 0)
(0.0997473 -4.59825e-05 0)
(0.0997737 -4.20775e-05 0)
(0.0997985 -3.84464e-05 0)
(0.0998215 -3.50737e-05 0)
(0.0998429 -3.19445e-05 0)
(0.0998627 -2.90446e-05 0)
(0.0998812 -2.63606e-05 0)
(0.0998982 -2.38797e-05 0)
(0.0999139 -2.15901e-05 0)
(0.0999284 -1.94806e-05 0)
(0.0999417 -1.75408e-05 0)
(0.099954 -1.57605e-05 0)
(0.0999651 -1.41305e-05 0)
(0.0999754 -1.26407e-05 0)
(0.0999847 -1.12833e-05 0)
(0.0999932 -1.0048e-05 0)
(0.100001 -8.92961e-06 0)
(0.100008 -7.91669e-06 0)
(0.100014 -7.00951e-06 0)
(0.10002 -6.19081e-06 0)
(0.100025 -5.4721e-06 0)
(0.10003 -4.82156e-06 0)
(0.100033 -4.27405e-06 0)
(0.100038 -3.76667e-06 0)
(0.10004 -3.38012e-06 0)
(0.100044 -2.99183e-06 0)
(0.100046 -2.76456e-06 0)
(0.10005 -2.47289e-06 0)
(0.10005 -2.41146e-06 0)
(0.100056 -2.19778e-06 0)
(0.100054 -2.3131e-06 0)
(0.100062 -2.17166e-06 0)
(0.100058 -2.47281e-06 0)
(0.100069 -2.4271e-06 0)
(0.100062 -2.90519e-06 0)
(0.100077 -3.02665e-06 0)
(0.100068 -3.64679e-06 0)
(0.100087 -4.04155e-06 0)
(0.100077 -4.8108e-06 0)
(0.1001 -5.51564e-06 0)
(0.100091 -6.46629e-06 0)
(0.100118 -7.96665e-06 0)
(0.100111 -7.82194e-06 0)
(0.100142 -1.17795e-05 0)
(0.100141 -1.113e-05 0)
(0.100177 -1.31521e-05 0)
(0.0982166 -0.000345121 0)
(0.0983221 -0.00032312 0)
(0.0984228 -0.000302556 0)
(0.0985189 -0.000283217 0)
(0.0986106 -0.000264961 0)
(0.0986979 -0.000247697 0)
(0.0987812 -0.000231363 0)
(0.0988604 -0.000215918 0)
(0.0989359 -0.000201327 0)
(0.0990075 -0.00018756 0)
(0.0990757 -0.000174586 0)
(0.0991403 -0.000162373 0)
(0.0992016 -0.000150886 0)
(0.0992598 -0.000140093 0)
(0.0993148 -0.000129958 0)
(0.0993669 -0.00012045 0)
(0.0994161 -0.000111534 0)
(0.0994626 -0.000103179 0)
(0.0995064 -9.53541e-05 0)
(0.0995477 -8.80311e-05 0)
(0.0995866 -8.11819e-05 0)
(0.0996232 -7.47801e-05 0)
(0.0996576 -6.88007e-05 0)
(0.0996898 -6.32201e-05 0)
(0.09972 -5.80159e-05 0)
(0.0997483 -5.31669e-05 0)
(0.0997747 -4.86532e-05 0)
(0.0997993 -4.44559e-05 0)
(0.0998222 -4.05571e-05 0)
(0.0998435 -3.69396e-05 0)
(0.0998633 -3.35871e-05 0)
(0.0998817 -3.0484e-05 0)
(0.0998987 -2.76158e-05 0)
(0.0999143 -2.49687e-05 0)
(0.0999288 -2.25297e-05 0)
(0.0999421 -2.02869e-05 0)
(0.0999543 -1.82284e-05 0)
(0.0999654 -1.63434e-05 0)
(0.0999756 -1.46206e-05 0)
(0.0999849 -1.30507e-05 0)
(0.0999934 -1.16221e-05 0)
(0.100001 -1.03287e-05 0)
(0.100008 -9.15749e-06 0)
(0.100014 -8.10822e-06 0)
(0.10002 -7.1617e-06 0)
(0.100025 -6.33011e-06 0)
(0.10003 -5.57833e-06 0)
(0.100034 -4.94435e-06 0)
(0.100038 -4.35873e-06 0)
(0.10004 -3.91024e-06 0)
(0.100045 -3.4632e-06 0)
(0.100046 -3.19789e-06 0)
(0.100051 -2.86365e-06 0)
(0.10005 -2.78878e-06 0)
(0.100056 -2.54596e-06 0)
(0.100054 -2.67432e-06 0)
(0.100062 -2.51611e-06 0)
(0.100058 -2.85865e-06 0)
(0.100069 -2.81155e-06 0)
(0.100062 -3.35873e-06 0)
(0.100077 -3.5051e-06 0)
(0.100068 -4.21546e-06 0)
(0.100087 -4.68325e-06 0)
(0.100077 -5.55303e-06 0)
(0.1001 -6.40639e-06 0)
(0.100091 -7.44979e-06 0)
(0.100118 -9.24443e-06 0)
(0.100112 -9.07258e-06 0)
(0.100142 -1.35716e-05 0)
(0.100141 -1.29223e-05 0)
(0.100177 -1.52754e-05 0)
(0.0982263 -0.000392647 0)
(0.0983313 -0.00036756 0)
(0.0984315 -0.000344116 0)
(0.098527 -0.000322079 0)
(0.0986181 -0.000301288 0)
(0.098705 -0.000281636 0)
(0.0987877 -0.000263054 0)
(0.0988665 -0.000245489 0)
(0.0989414 -0.000228901 0)
(0.0990126 -0.000213254 0)
(0.0990803 -0.000198509 0)
(0.0991446 -0.000184629 0)
(0.0992056 -0.000171575 0)
(0.0992634 -0.000159309 0)
(0.0993181 -0.000147792 0)
(0.0993699 -0.000136985 0)
(0.0994188 -0.000126851 0)
(0.0994651 -0.000117354 0)
(0.0995087 -0.000108459 0)
(0.0995498 -0.000100134 0)
(0.0995885 -9.2347e-05 0)
(0.0996249 -8.50681e-05 0)
(0.0996591 -7.82691e-05 0)
(0.0996912 -7.19231e-05 0)
(0.0997213 -6.60048e-05 0)
(0.0997494 -6.04901e-05 0)
(0.0997757 -5.53564e-05 0)
(0.0998002 -5.05823e-05 0)
(0.0998231 -4.61475e-05 0)
(0.0998443 -4.20324e-05 0)
(0.0998641 -3.82186e-05 0)
(0.0998823 -3.46886e-05 0)
(0.0998992 -3.14256e-05 0)
(0.0999149 -2.8414e-05 0)
(0.0999292 -2.56393e-05 0)
(0.0999425 -2.30875e-05 0)
(0.0999546 -2.07453e-05 0)
(0.0999657 -1.86004e-05 0)
(0.0999759 -1.664e-05 0)
(0.0999851 -1.48534e-05 0)
(0.0999936 -1.32278e-05 0)
(0.100001 -1.17558e-05 0)
(0.100008 -1.04232e-05 0)
(0.100014 -9.22889e-06 0)
(0.10002 -8.15227e-06 0)
(0.100025 -7.20518e-06 0)
(0.10003 -6.3507e-06 0)
(0.100034 -5.62773e-06 0)
(0.100038 -4.9634e-06 0)
(0.100041 -4.45029e-06 0)
(0.100045 -3.94526e-06 0)
(0.100046 -3.63868e-06 0)
(0.100051 -3.26413e-06 0)
(0.10005 -3.17184e-06 0)
(0.100056 -2.90372e-06 0)
(0.100054 -3.04043e-06 0)
(0.100062 -2.87066e-06 0)
(0.100058 -3.24966e-06 0)
(0.100069 -3.20721e-06 0)
(0.100062 -3.81903e-06 0)
(0.100077 -3.9968e-06 0)
(0.100068 -4.79331e-06 0)
(0.100087 -5.34306e-06 0)
(0.100077 -6.30501e-06 0)
(0.1001 -7.32758e-06 0)
(0.100091 -8.441e-06 0)
(0.100118 -1.05624e-05 0)
(0.100112 -1.03577e-05 0)
(0.100141 -1.53833e-05 0)
(0.100141 -1.47691e-05 0)
(0.100178 -1.74736e-05 0)
(0.0982374 -0.000439919 0)
(0.0983417 -0.000411749 0)
(0.0984413 -0.000385428 0)
(0.0985362 -0.000360698 0)
(0.0986267 -0.000337379 0)
(0.0987129 -0.000315352 0)
(0.098795 -0.000294533 0)
(0.0988732 -0.000274863 0)
(0.0989476 -0.000256293 0)
(0.0990184 -0.000238779 0)
(0.0990856 -0.000222277 0)
(0.0991495 -0.000206744 0)
(0.09921 -0.000192137 0)
(0.0992674 -0.00017841 0)
(0.0993218 -0.00016552 0)
(0.0993733 -0.000153425 0)
(0.099422 -0.000142082 0)
(0.0994679 -0.000131451 0)
(0.0995113 -0.000121494 0)
(0.0995522 -0.000112174 0)
(0.0995907 -0.000103455 0)
(0.0996269 -9.53051e-05 0)
(0.0996609 -8.76915e-05 0)
(0.0996929 -8.05847e-05 0)
(0.0997228 -7.39563e-05 0)
(0.0997508 -6.77797e-05 0)
(0.0997769 -6.20294e-05 0)
(0.0998013 -5.66816e-05 0)
(0.0998241 -5.17135e-05 0)
(0.0998452 -4.71034e-05 0)
(0.0998648 -4.28306e-05 0)
(0.099883 -3.88755e-05 0)
(0.0998999 -3.52196e-05 0)
(0.0999154 -3.18453e-05 0)
(0.0999297 -2.87363e-05 0)
(0.0999429 -2.58769e-05 0)
(0.099955 -2.32523e-05 0)
(0.0999661 -2.08485e-05 0)
(0.0999762 -1.86515e-05 0)
(0.0999854 -1.66491e-05 0)
(0.0999938 -1.48273e-05 0)
(0.100001 -1.31774e-05 0)
(0.100008 -1.16842e-05 0)
(0.100014 -1.03453e-05 0)
(0.10002 -9.13914e-06 0)
(0.100025 -8.07694e-06 0)
(0.10003 -7.12027e-06 0)
(0.100034 -6.30854e-06 0)
(0.100038 -5.56598e-06 0)
(0.100041 -4.98825e-06 0)
(0.100045 -4.4258e-06 0)
(0.100046 -4.07772e-06 0)
(0.100051 -3.66352e-06 0)
(0.10005 -3.55331e-06 0)
(0.100056 -3.26073e-06 0)
(0.100054 -3.40504e-06 0)
(0.100062 -3.22464e-06 0)
(0.100058 -3.63922e-06 0)
(0.100069 -3.60226e-06 0)
(0.100062 -4.27786e-06 0)
(0.100077 -4.48787e-06 0)
(0.100068 -5.36904e-06 0)
(0.100087 -6.00378e-06 0)
(0.100077 -7.05074e-06 0)
(0.1001 -8.25671e-06 0)
(0.100091 -9.41794e-06 0)
(0.100117 -1.18886e-05 0)
(0.100112 -1.16508e-05 0)
(0.100141 -1.71683e-05 0)
(0.100141 -1.66337e-05 0)
(0.100178 -1.96926e-05 0)
(0.0982498 -0.000486883 0)
(0.0983535 -0.000455639 0)
(0.0984523 -0.00042645 0)
(0.0985464 -0.000399036 0)
(0.0986362 -0.000373203 0)
(0.0987217 -0.000348813 0)
(0.0988032 -0.000325774 0)
(0.0988808 -0.000304016 0)
(0.0989546 -0.00028348 0)
(0.0990248 -0.000264116 0)
(0.0990915 -0.000245874 0)
(0.0991549 -0.000228703 0)
(0.099215 -0.000212556 0)
(0.099272 -0.000197381 0)
(0.099326 -0.000183132 0)
(0.0993771 -0.000169759 0)
(0.0994254 -0.000157218 0)
(0.0994711 -0.000145463 0)
(0.0995142 -0.000134452 0)
(0.0995548 -0.000124144 0)
(0.0995931 -0.0001145 0)
(0.0996291 -0.000105485 0)
(0.0996629 -9.70622e-05 0)
(0.0996947 -8.91997e-05 0)
(0.0997244 -8.1866e-05 0)
(0.0997523 -7.50315e-05 0)
(0.0997783 -6.86685e-05 0)
(0.0998025 -6.27504e-05 0)
(0.0998252 -5.72521e-05 0)
(0.0998462 -5.21497e-05 0)
(0.0998657 -4.74204e-05 0)
(0.0998838 -4.30426e-05 0)
(0.0999006 -3.89958e-05 0)
(0.0999161 -3.52607e-05 0)
(0.0999303 -3.1819e-05 0)
(0.0999434 -2.86536e-05 0)
(0.0999555 -2.57479e-05 0)
(0.0999665 -2.30866e-05 0)
(0.0999765 -2.0654e-05 0)
(0.0999857 -1.84368e-05 0)
(0.0999941 -1.64197e-05 0)
(0.100002 -1.45929e-05 0)
(0.100009 -1.29396e-05 0)
(0.100015 -1.14569e-05 0)
(0.10002 -1.01217e-05 0)
(0.100025 -8.94498e-06 0)
(0.10003 -7.88652e-06 0)
(0.100034 -6.9865e-06 0)
(0.100038 -6.16597e-06 0)
(0.100041 -5.52405e-06 0)
(0.100045 -4.90425e-06 0)
(0.100046 -4.5151e-06 0)
(0.100051 -4.06115e-06 0)
(0.10005 -3.93352e-06 0)
(0.100056 -3.61612e-06 0)
(0.100054 -3.76868e-06 0)
(0.100062 -3.57702e-06 0)
(0.100058 -4.028e-06 0)
(0.100069 -3.99561e-06 0)
(0.100062 -4.7359e-06 0)
(0.100077 -4.97726e-06 0)
(0.100068 -5.94317e-06 0)
(0.100087 -6.66447e-06 0)
(0.100077 -7.79055e-06 0)
(0.1001 -9.19295e-06 0)
(0.100091 -1.03809e-05 0)
(0.100117 -1.32222e-05 0)
(0.100112 -1.29523e-05 0)
(0.100141 -1.89253e-05 0)
(0.10014 -1.8518e-05 0)
(0.100178 -2.19312e-05 0)
(0.0982637 -0.000533481 0)
(0.0983665 -0.000499179 0)
(0.0984644 -0.000467137 0)
(0.0985578 -0.000437056 0)
(0.0986467 -0.000408724 0)
(0.0987315 -0.000381991 0)
(0.0988122 -0.00035675 0)
(0.0988891 -0.000332922 0)
(0.0989623 -0.00031044 0)
(0.0990319 -0.000289245 0)
(0.099098 -0.00026928 0)
(0.0991608 -0.000250489 0)
(0.0992204 -0.000232817 0)
(0.099277 -0.00021621 0)
(0.0993306 -0.000200614 0)
(0.0993813 -0.000185977 0)
(0.0994293 -0.000172248 0)
(0.0994746 -0.000159379 0)
(0.0995174 -0.000147323 0)
(0.0995577 -0.000136035 0)
(0.0995958 -0.000125475 0)
(0.0996315 -0.000115601 0)
(0.0996651 -0.000106376 0)
(0.0996967 -9.77632e-05 0)
(0.0997262 -8.97292e-05 0)
(0.0997539 -8.22415e-05 0)
(0.0997798 -7.52698e-05 0)
(0.0998039 -6.87852e-05 0)
(0.0998264 -6.27601e-05 0)
(0.0998473 -5.71685e-05 0)
(0.0998667 -5.19856e-05 0)
(0.0998847 -4.71876e-05 0)
(0.0999014 -4.27523e-05 0)
(0.0999168 -3.86584e-05 0)
(0.0999309 -3.48859e-05 0)
(0.099944 -3.14162e-05 0)
(0.0999559 -2.82309e-05 0)
(0.0999669 -2.53134e-05 0)
(0.0999769 -2.26465e-05 0)
(0.099986 -2.02157e-05 0)
(0.0999943 -1.80043e-05 0)
(0.100002 -1.60013e-05 0)
(0.100009 -1.41888e-05 0)
(0.100015 -1.2563e-05 0)
(0.10002 -1.10995e-05 0)
(0.100025 -9.8088e-06 0)
(0.10003 -8.64903e-06 0)
(0.100034 -7.6612e-06 0)
(0.100038 -6.76302e-06 0)
(0.100041 -6.05733e-06 0)
(0.100045 -5.38034e-06 0)
(0.100046 -4.95052e-06 0)
(0.100051 -4.4568e-06 0)
(0.10005 -4.31217e-06 0)
(0.100056 -3.96975e-06 0)
(0.100054 -4.13105e-06 0)
(0.100062 -3.92768e-06 0)
(0.100058 -4.41568e-06 0)
(0.100069 -4.38713e-06 0)
(0.100062 -5.19284e-06 0)
(0.100077 -5.46477e-06 0)
(0.100068 -6.51544e-06 0)
(0.100087 -7.3248e-06 0)
(0.100077 -8.52425e-06 0)
(0.1001 -1.01358e-05 0)
(0.100091 -1.13297e-05 0)
(0.100116 -1.45627e-05 0)
(0.100112 -1.42617e-05 0)
(0.100141 -2.06551e-05 0)
(0.10014 -2.04214e-05 0)
(0.100178 -2.419e-05 0)
(0.098279 -0.000579653 0)
(0.0983808 -0.000542318 0)
(0.0984777 -0.000507445 0)
(0.0985701 -0.000474717 0)
(0.0986582 -0.000443908 0)
(0.0987421 -0.000414852 0)
(0.0988221 -0.000387433 0)
(0.0988982 -0.000361557 0)
(0.0989706 -0.000337151 0)
(0.0990396 -0.000314146 0)
(0.0991051 -0.000292478 0)
(0.0991673 -0.000272085 0)
(0.0992264 -0.000252907 0)
(0.0992824 -0.000234883 0)
(0.0993356 -0.000217955 0)
(0.0993859 -0.000202067 0)
(0.0994334 -0.000187163 0)
(0.0994784 -0.00017319 0)
(0.0995209 -0.000160099 0)
(0.0995609 -0.000147842 0)
(0.0995987 -0.000136373 0)
(0.0996342 -0.000125648 0)
(0.0996675 -0.000115627 0)
(0.0996989 -0.00010627 0)
(0.0997282 -9.75413e-05 0)
(0.0997557 -8.94056e-05 0)
(0.0997814 -8.18298e-05 0)
(0.0998054 -7.47827e-05 0)
(0.0998277 -6.82346e-05 0)
(0.0998485 -6.21573e-05 0)
(0.0998678 -5.65237e-05 0)
(0.0998857 -5.13083e-05 0)
(0.0999022 -4.64868e-05 0)
(0.0999175 -4.20364e-05 0)
(0.0999316 -3.79353e-05 0)
(0.0999446 -3.4163e-05 0)
(0.0999565 -3.06999e-05 0)
(0.0999674 -2.75277e-05 0)
(0.0999773 -2.4628e-05 0)
(0.0999864 -2.19847e-05 0)
(0.0999947 -1.95801e-05 0)
(0.100002 -1.74019e-05 0)
(0.100009 -1.54312e-05 0)
(0.100015 -1.3663e-05 0)
(0.100021 -1.20719e-05 0)
(0.100025 -1.06679e-05 0)
(0.10003 -9.40734e-06 0)
(0.100034 -8.33221e-06 0)
(0.100038 -7.35678e-06 0)
(0.100041 -6.58772e-06 0)
(0.100045 -5.85381e-06 0)
(0.100046 -5.38365e-06 0)
(0.100051 -4.85027e-06 0)
(0.10005 -4.68894e-06 0)
(0.100056 -4.32145e-06 0)
(0.100054 -4.49183e-06 0)
(0.100062 -4.27648e-06 0)
(0.100058 -4.80195e-06 0)
(0.100069 -4.77664e-06 0)
(0.100062 -5.64837e-06 0)
(0.100077 -5.95016e-06 0)
(0.100068 -7.08557e-06 0)
(0.100087 -7.9844e-06 0)
(0.100077 -9.25174e-06 0)
(0.100099 -1.10844e-05 0)
(0.100091 -1.22647e-05 0)
(0.100116 -1.59095e-05 0)
(0.100112 -1.5578e-05 0)
(0.10014 -2.23588e-05 0)
(0.10014 -2.23431e-05 0)
(0.100178 -2.64689e-05 0)
(0.0982958 -0.000625333 0)
(0.0983964 -0.000584999 0)
(0.0984922 -0.000547325 0)
(0.0985836 -0.000511979 0)
(0.0986707 -0.000478719 0)
(0.0987537 -0.000447368 0)
(0.0988327 -0.000417795 0)
(0.098908 -0.000389898 0)
(0.0989797 -0.000363591 0)
(0.0990479 -0.000338799 0)
(0.0991127 -0.00031545 0)
(0.0991743 -0.000293476 0)
(0.0992329 -0.00027281 0)
(0.0992884 -0.000253387 0)
(0.099341 -0.000235143 0)
(0.0993908 -0.000218018 0)
(0.099438 -0.000201952 0)
(0.0994826 -0.000186888 0)
(0.0995247 -0.000172773 0)
(0.0995644 -0.000159556 0)
(0.0996018 -0.000147186 0)
(0.099637 -0.000135619 0)
(0.0996702 -0.000124809 0)
(0.0997012 -0.000114715 0)
(0.0997304 -0.000105298 0)
(0.0997577 -9.65195e-05 0)
(0.0997832 -8.83446e-05 0)
(0.099807 -8.07396e-05 0)
(0.0998291 -7.36725e-05 0)
(0.0998498 -6.7113e-05 0)
(0.0998689 -6.10321e-05 0)
(0.0998867 -5.54023e-05 0)
(0.0999032 -5.01975e-05 0)
(0.0999183 -4.53931e-05 0)
(0.0999323 -4.09655e-05 0)
(0.0999452 -3.68927e-05 0)
(0.099957 -3.31536e-05 0)
(0.0999679 -2.97283e-05 0)
(0.0999778 -2.65972e-05 0)
(0.0999868 -2.37428e-05 0)
(0.099995 -2.11462e-05 0)
(0.100002 -1.8794e-05 0)
(0.100009 -1.66659e-05 0)
(0.100015 -1.47563e-05 0)
(0.100021 -1.30383e-05 0)
(0.100026 -1.15217e-05 0)
(0.10003 -1.0161e-05 0)
(0.100034 -8.99912e-06 0)
(0.100038 -7.94687e-06 0)
(0.100041 -7.11488e-06 0)
(0.100045 -6.32433e-06 0)
(0.100046 -5.81419e-06 0)
(0.10005 -5.24129e-06 0)
(0.10005 -5.06358e-06 0)
(0.100056 -4.67096e-06 0)
(0.100054 -4.85079e-06 0)
(0.100062 -4.62315e-06 0)
(0.100058 -5.18659e-06 0)
(0.100069 -5.16388e-06 0)
(0.100062 -6.10226e-06 0)
(0.100077 -6.4331e-06 0)
(0.100068 -7.65337e-06 0)
(0.100086 -8.64271e-06 0)
(0.100077 -9.97308e-06 0)
(0.100099 -1.20378e-05 0)
(0.100091 -1.31864e-05 0)
(0.100115 -1.72614e-05 0)
(0.100112 -1.69002e-05 0)
(0.10014 -2.40385e-05 0)
(0.100139 -2.42818e-05 0)
(0.100177 -2.87676e-05 0)
(0.098314 -0.000670455 0)
(0.0984132 -0.000627166 0)
(0.0985079 -0.000586729 0)
(0.0985981 -0.000548799 0)
(0.0986841 -0.000513121 0)
(0.0987661 -0.000479506 0)
(0.0988442 -0.000447809 0)
(0.0989186 -0.000417918 0)
(0.0989894 -0.000389739 0)
(0.0990568 -0.000363185 0)
(0.099121 -0.00033818 0)
(0.0991819 -0.000314646 0)
(0.0992398 -0.000292513 0)
(0.0992947 -0.000271709 0)
(0.0993468 -0.000252166 0)
(0.0993962 -0.00023382 0)
(0.0994429 -0.000216606 0)
(0.0994871 -0.000200464 0)
(0.0995288 -0.000185337 0)
(0.0995681 -0.00017117 0)
(0.0996052 -0.00015791 0)
(0.0996402 -0.000145509 0)
(0.099673 -0.000133918 0)
(0.0997038 -0.000123094 0)
(0.0997327 -0.000112995 0)
(0.0997598 -0.000103579 0)
(0.0997851 -9.48106e-05 0)
(0.0998087 -8.66524e-05 0)
(0.0998307 -7.90708e-05 0)
(0.0998512 -7.20331e-05 0)
(0.0998702 -6.55084e-05 0)
(0.0998879 -5.94675e-05 0)
(0.0999042 -5.38823e-05 0)
(0.0999193 -4.87264e-05 0)
(0.0999332 -4.39748e-05 0)
(0.0999459 -3.96037e-05 0)
(0.0999577 -3.55905e-05 0)
(0.0999684 -3.1914e-05 0)
(0.0999782 -2.85531e-05 0)
(0.0999872 -2.54891e-05 0)
(0.0999953 -2.27018e-05 0)
(0.100003 -2.01766e-05 0)
(0.100009 -1.78923e-05 0)
(0.100015 -1.58422e-05 0)
(0.100021 -1.39982e-05 0)
(0.100026 -1.23697e-05 0)
(0.10003 -1.09095e-05 0)
(0.100034 -9.66147e-06 0)
(0.100038 -8.53289e-06 0)
(0.100041 -7.63844e-06 0)
(0.100045 -6.79156e-06 0)
(0.100046 -6.24183e-06 0)
(0.10005 -5.62954e-06 0)
(0.10005 -5.43582e-06 0)
(0.100056 -5.01802e-06 0)
(0.100054 -5.20768e-06 0)
(0.100062 -4.96744e-06 0)
(0.100058 -5.56935e-06 0)
(0.100068 -5.54853e-06 0)
(0.100062 -6.55431e-06 0)
(0.100076 -6.9132e-06 0)
(0.100068 -8.21868e-06 0)
(0.100086 -9.29913e-06 0)
(0.100076 -1.06884e-05 0)
(0.100099 -1.29947e-05 0)
(0.100091 -1.40955e-05 0)
(0.100115 -1.86173e-05 0)
(0.100112 -1.8227e-05 0)
(0.100139 -2.56961e-05 0)
(0.100139 -2.62361e-05 0)
(0.100177 -3.10852e-05 0)
(0.0983335 -0.000714955 0)
(0.0984314 -0.000668764 0)
(0.0985247 -0.00062561 0)
(0.0986137 -0.000585137 0)
(0.0986985 -0.00054708 0)
(0.0987794 -0.000511235 0)
(0.0988565 -0.000477449 0)
(0.0989299 -0.000445596 0)
(0.0989999 -0.000415573 0)
(0.0990664 -0.000387286 0)
(0.0991298 -0.000360648 0)
(0.09919 -0.00033558 0)
(0.0992472 -0.000312 0)
(0.0993016 -0.000289836 0)
(0.0993531 -0.000269013 0)
(0.0994019 -0.000249461 0)
(0.0994482 -0.000231115 0)
(0.0994919 -0.000213909 0)
(0.0995332 -0.000197782 0)
(0.0995722 -0.000182676 0)
(0.0996089 -0.000168537 0)
(0.0996435 -0.000155311 0)
(0.099676 -0.000142948 0)
(0.0997066 -0.000131402 0)
(0.0997352 -0.000120627 0)
(0.099762 -0.000110581 0)
(0.0997871 -0.000101224 0)
(0.0998106 -9.25179e-05 0)
(0.0998324 -8.44263e-05 0)
(0.0998527 -7.69146e-05 0)
(0.0998716 -6.99501e-05 0)
(0.0998891 -6.35015e-05 0)
(0.0999053 -5.7539e-05 0)
(0.0999202 -5.20346e-05 0)
(0.099934 -4.69615e-05 0)
(0.0999467 -4.22945e-05 0)
(0.0999583 -3.80094e-05 0)
(0.099969 -3.40835e-05 0)
(0.0999788 -3.04945e-05 0)