/*--------------------------------*- C++ -*----------------------------------*\
| =========                 |                                                 |
| \\      /  F ield         | OpenFOAM: The Open Source CFD Toolbox           |
|  \\    /   O peration     | Version:  2412                                  |
|   \\  /    A nd           | Website:  www.openfoam.com                      |
|    \\/     M anipulation  |                                                 |
\*---------------------------------------------------------------------------*/
FoamFile
{
    version     2.0;
    format      ascii;
    arch        "LSB;label=32;scalar=64";
    class       volScalarField;
    location    "5";
    object      p;
}
// * * * * * * * * * * * * * * * * * * * * * * * * * * * * * * * * * * * * * //

dimensions      [0 2 -2 0 0 0 0];

internalField   nonuniform List<scalar> 
5285
(
0.00100691
0.00100208
0.000996952
0.000991504
0.000985728
0.000979608
0.000973131
0.000966284
0.000959052
0.000951422
0.000943378
0.000934909
0.000925999
0.000916636
0.000906806
0.000896497
0.00101752
0.00101284
0.00100785
0.00100253
0.000996876
0.000990873
0.000984503
0.000977752
0.000970606
0.000963048
0.000955064
0.000946639
0.000937758
0.000928406
0.000918568
0.000908231
0.00102842
0.00102389
0.00101905
0.00101388
0.00100837
0.00100249
0.000996244
0.000989604
0.000982558
0.000975087
0.000967177
0.000958811
0.000949972
0.000940644
0.000930812
0.000920459
0.00103961
0.00103525
0.00103058
0.00102556
0.0010202
0.00101447
0.00100836
0.00100185
0.000994919
0.000987552
0.000979731
0.000971439
0.000962658
0.000953369
0.000943556
0.000933202
0.00105109
0.00104692
0.00104242
0.00103759
0.0010324
0.00102683
0.00102087
0.0010145
0.0010077
0.00100045
0.000992741
0.00098454
0.000975832
0.0009666
0.000956822
0.000946481
0.00106287
0.0010589
0.0010546
0.00104996
0.00104495
0.00103956
0.00103377
0.00102757
0.00102092
0.00101381
0.00100622
0.000998128
0.000989513
0.000980354
0.00097063
0.00096032
0.00107495
0.0010712
0.00106711
0.00106267
0.00105787
0.00105268
0.00104708
0.00104105
0.00103458
0.00102763
0.00102018
0.00101222
0.00100372
0.000994653
0.000985001
0.000974741
0.00108733
0.00108381
0.00107996
0.00107575
0.00107117
0.00106619
0.00106081
0.00105498
0.00104869
0.00104192
0.00103464
0.00102683
0.00101846
0.00100951
0.000999957
0.000989768
0.00110002
0.00109675
0.00109314
0.00108918
0.00108484
0.00108011
0.00107495
0.00106935
0.00106327
0.0010567
0.00104961
0.00104198
0.00103377
0.00102496
0.00101552
0.00100542
0.001113
0.00111001
0.00110667
0.00110298
0.00109891
0.00109443
0.00108952
0.00108416
0.00107833
0.00107199
0.00106511
0.00105767
0.00104965
0.001041
0.00103171
0.00102173
0.0011263
0.00112359
0.00112055
0.00111714
0.00111335
0.00110916
0.00110453
0.00109944
0.00109387
0.00108778
0.00108115
0.00107394
0.00106612
0.00105767
0.00104855
0.00103872
0.00113989
0.0011375
0.00113477
0.00113167
0.00112819
0.0011243
0.00111998
0.00111519
0.0011099
0.00110409
0.00109773
0.00109078
0.00108321
0.00107498
0.00106606
0.00105641
0.00115379
0.00115173
0.00114933
0.00114657
0.00114343
0.00113987
0.00113587
0.00113141
0.00112644
0.00112094
0.00111488
0.00110821
0.00110091
0.00109294
0.00108426
0.00107483
0.00116799
0.00116628
0.00116424
0.00116184
0.00115905
0.00115585
0.00115221
0.0011481
0.00114348
0.00113833
0.0011326
0.00112626
0.00111927
0.00111159
0.00110318
0.001094
0.00118248
0.00118115
0.00117949
0.00117747
0.00117507
0.00117226
0.00116901
0.00116528
0.00116104
0.00115626
0.0011509
0.00114492
0.00113827
0.00113092
0.00112283
0.00111394
0.00119727
0.00119633
0.00119508
0.00119347
0.00119148
0.00118909
0.00118625
0.00118294
0.00117912
0.00117475
0.00116979
0.00116421
0.00115795
0.00115097
0.00114323
0.00113467
0.00121233
0.00121182
0.001211
0.00120983
0.00120828
0.00120634
0.00120395
0.00120109
0.00119772
0.0011938
0.00118928
0.00118414
0.00117831
0.00117175
0.0011644
0.00115623
0.00122767
0.00122761
0.00122724
0.00122654
0.00122547
0.001224
0.00122209
0.00121972
0.00121684
0.0012134
0.00120938
0.00120471
0.00119935
0.00119326
0.00118637
0.00117862
0.00124327
0.00124369
0.00124381
0.0012436
0.00124303
0.00124207
0.00124068
0.00123883
0.00123647
0.00123357
0.00123007
0.00122593
0.0012211
0.00121552
0.00120913
0.00120187
0.00125913
0.00126005
0.00126068
0.00126099
0.00126095
0.00126054
0.00125971
0.00125842
0.00125663
0.0012543
0.00125138
0.00124781
0.00124355
0.00123854
0.00123271
0.001226
0.00103906
0.00106794
0.00104093
0.00105408
0.00105235
0.00105157
0.00105301
0.00105338
0.00105391
0.00105461
0.00105529
0.00105597
0.00105668
0.00105738
0.00105808
0.00105877
0.00105944
0.00106009
0.00106071
0.00106129
0.00106183
0.00106232
0.00106275
0.00106312
0.00106341
0.00106363
0.00106376
0.0010638
0.00106374
0.00106358
0.00106331
0.00106292
0.0010624
0.00106176
0.00106098
0.00106006
0.001059
0.00105779
0.00105642
0.0010549
0.00105321
0.00105136
0.00104934
0.00104714
0.00104478
0.00104224
0.00103952
0.00103662
0.00103354
0.00103029
0.00102686
0.00102325
0.00101946
0.00101549
0.00101136
0.00104169
0.00107053
0.00104349
0.0010568
0.00105504
0.00105434
0.00105585
0.00105625
0.00105685
0.00105762
0.00105837
0.00105914
0.00105994
0.00106075
0.00106156
0.00106237
0.00106316
0.00106394
0.00106469
0.00106542
0.0010661
0.00106674
0.00106733
0.00106786
0.00106832
0.00106871
0.00106901
0.00106923
0.00106936
0.00106938
0.0010693
0.0010691
0.00106878
0.00106833
0.00106775
0.00106703
0.00106617
0.00106516
0.00106399
0.00106267
0.00106118
0.00105953
0.0010577
0.0010557
0.00105353
0.00105118
0.00104865
0.00104594
0.00104304
0.00103996
0.0010367
0.00103325
0.00102962
0.00102581
0.00102182
0.00104427
0.00107318
0.001046
0.00105951
0.00105772
0.00105708
0.00105866
0.00105911
0.00105977
0.00106062
0.00106145
0.00106231
0.0010632
0.00106411
0.00106503
0.00106596
0.00106688
0.00106779
0.00106868
0.00106954
0.00107038
0.00107117
0.00107192
0.00107261
0.00107324
0.00107381
0.00107429
0.00107469
0.00107501
0.00107522
0.00107533
0.00107533
0.00107521
0.00107496
0.00107459
0.00107408
0.00107342
0.00107262
0.00107166
0.00107055
0.00106927
0.00106782
0.00106621
0.00106441
0.00106244
0.00106029
0.00105796
0.00105544
0.00105274
0.00104985
0.00104676
0.0010435
0.00104004
0.0010364
0.00103257
0.00104683
0.00107583
0.00104851
0.00106219
0.00106038
0.00105982
0.00106146
0.00106196
0.00106268
0.0010636
0.00106451
0.00106546
0.00106645
0.00106747
0.0010685
0.00106955
0.00107059
0.00107164
0.00107267
0.00107368
0.00107466
0.00107561
0.00107652
0.00107738
0.00107819
0.00107893
0.0010796
0.00108019
0.00108069
0.0010811
0.00108141
0.00108161
0.0010817
0.00108166
0.0010815
0.0010812
0.00108076
0.00108017
0.00107943
0.00107854
0.00107748
0.00107625
0.00107485
0.00107327
0.00107152
0.00106958
0.00106745
0.00106514
0.00106264
0.00105994
0.00105706
0.00105398
0.00105071
0.00104724
0.00104358
0.00104939
0.00107846
0.00105103
0.00106485
0.00106303
0.00106253
0.00106424
0.00106479
0.00106558
0.00106658
0.00106757
0.00106861
0.0010697
0.00107082
0.00107197
0.00107313
0.0010743
0.00107548
0.00107665
0.00107781
0.00107895
0.00108006
0.00108113
0.00108217
0.00108315
0.00108407
0.00108493
0.00108571
0.00108641
0.00108702
0.00108753
0.00108794
0.00108824
0.00108842
0.00108847
0.0010884
0.00108818
0.00108782
0.0010873
0.00108663
0.0010858
0.0010848
0.00108362
0.00108227
0.00108074
0.00107903
0.00107712
0.00107503
0.00107274
0.00107026
0.00106758
0.0010647
0.00106163
0.00105835
0.00105488
0.00105194
0.00108108
0.00105355
0.00106749
0.00106567
0.00106522
0.00106699
0.00106761
0.00106846
0.00106953
0.00107061
0.00107174
0.00107293
0.00107416
0.00107542
0.00107671
0.00107801
0.00107932
0.00108063
0.00108194
0.00108324
0.00108451
0.00108575
0.00108696
0.00108812
0.00108923
0.00109027
0.00109125
0.00109215
0.00109297
0.00109369
0.00109432
0.00109483
0.00109523
0.00109551
0.00109566
0.00109568
0.00109555
0.00109527
0.00109483
0.00109423
0.00109347
0.00109253
0.00109142
0.00109012
0.00108864
0.00108697
0.00108511
0.00108304
0.00108079
0.00107833
0.00107566
0.0010728
0.00106973
0.00106646
0.00105448
0.00108368
0.00105607
0.0010701
0.00106829
0.00106789
0.00106973
0.0010704
0.00107133
0.00107247
0.00107363
0.00107486
0.00107615
0.00107748
0.00107886
0.00108027
0.0010817
0.00108315
0.00108461
0.00108607
0.00108752
0.00108896
0.00109037
0.00109176
0.0010931
0.0010944
0.00109564
0.00109682
0.00109792
0.00109895
0.00109989
0.00110073
0.00110147
0.0011021
0.00110261
0.001103
0.00110325
0.00110336
0.00110332
0.00110313
0.00110278
0.00110226
0.00110157
0.0011007
0.00109966
0.00109842
0.00109699
0.00109537
0.00109355
0.00109153
0.0010893
0.00108687
0.00108423
0.00108138
0.00107832
0.00105701
0.00108625
0.00105858
0.00107269
0.00107089
0.00107054
0.00107244
0.00107318
0.00107417
0.0010754
0.00107664
0.00107796
0.00107935
0.0010808
0.00108229
0.00108382
0.00108539
0.00108698
0.00108858
0.00109019
0.00109181
0.00109341
0.001095
0.00109656
0.00109809
0.00109958
0.00110102
0.0011024
0.00110371
0.00110495
0.00110611
0.00110718
0.00110815
0.00110902
0.00110976
0.00111039
0.00111089
0.00111125
0.00111146
0.00111152
0.00111143
0.00111117
0.00111074
0.00111013
0.00110934
0.00110836
0.00110719
0.00110582
0.00110425
0.00110248
0.0011005
0.00109831
0.00109591
0.0010933
0.00109047
0.00105952
0.00108881
0.00106108
0.00107525
0.00107347
0.00107317
0.00107513
0.00107593
0.001077
0.0010783
0.00107963
0.00108104
0.00108253
0.00108409
0.0010857
0.00108736
0.00108906
0.00109079
0.00109254
0.00109431
0.00109608
0.00109785
0.00109961
0.00110136
0.00110308
0.00110476
0.0011064
0.00110799
0.00110952
0.00111098
0.00111237
0.00111367
0.00111487
0.00111598
0.00111697
0.00111785
0.00111859
0.00111921
0.00111968
0.00112001
0.00112018
0.00112018
0.00112002
0.00111968
0.00111916
0.00111845
0.00111755
0.00111645
0.00111515
0.00111364
0.00111193
0.00111
0.00110785
0.00110549
0.00110291
0.00106203
0.00109134
0.00106357
0.00107779
0.00107604
0.00107578
0.0010778
0.00107866
0.0010798
0.00108118
0.0010826
0.0010841
0.0010857
0.00108737
0.0010891
0.00109088
0.00109271
0.00109458
0.00109648
0.00109841
0.00110034
0.00110229
0.00110423
0.00110616
0.00110807
0.00110995
0.0011118
0.0011136
0.00111534
0.00111703
0.00111864
0.00112018
0.00112163
0.00112298
0.00112422
0.00112535
0.00112636
0.00112724
0.00112799
0.00112858
0.00112903
0.00112931
0.00112942
0.00112937
0.00112913
0.0011287
0.00112808
0.00112726
0.00112624
0.00112502
0.00112358
0.00112192
0.00112005
0.00111795
0.00111563
0.00106451
0.00109384
0.00106604
0.0010803
0.00107858
0.00107836
0.00108044
0.00108136
0.00108258
0.00108404
0.00108554
0.00108714
0.00108884
0.00109062
0.00109247
0.00109438
0.00109635
0.00109836
0.00110041
0.00110249
0.0011046
0.00110671
0.00110883
0.00111095
0.00111305
0.00111514
0.00111719
0.00111921
0.00112118
0.00112309
0.00112494
0.00112671
0.00112841
0.00113001
0.00113151
0.00113291
0.00113419
0.00113534
0.00113636
0.00113724
0.00113796
0.00113854
0.00113894
0.00113917
0.00113923
0.0011391
0.00113877
0.00113825
0.00113752
0.00113659
0.00113544
0.00113408
0.00113249
0.00113068
0.00112864
0.00106697
0.00109632
0.00106849
0.00108279
0.00108109
0.00108092
0.00108305
0.00108404
0.00108533
0.00108687
0.00108846
0.00109016
0.00109196
0.00109385
0.00109582
0.00109786
0.00109996
0.00110212
0.00110432
0.00110656
0.00110883
0.00111112
0.00111342
0.00111573
0.00111803
0.00112032
0.00112258
0.00112482
0.00112701
0.00112916
0.00113125
0.00113327
0.00113521
0.00113708
0.00113884
0.00114051
0.00114206
0.0011435
0.0011448
0.00114597
0.00114699
0.00114786
0.00114856
0.0011491
0.00114946
0.00114964
0.00114962
0.00114941
0.00114899
0.00114837
0.00114753
0.00114647
0.00114518
0.00114367
0.00114193
0.0010694
0.00109876
0.00107092
0.00108525
0.00108358
0.00108345
0.00108564
0.0010867
0.00108805
0.00108968
0.00109136
0.00109315
0.00109506
0.00109706
0.00109915
0.00110132
0.00110356
0.00110586
0.00110821
0.00111061
0.00111305
0.00111551
0.001118
0.00112049
0.00112299
0.00112549
0.00112797
0.00113043
0.00113285
0.00113523
0.00113756
0.00113984
0.00114204
0.00114417
0.0011462
0.00114815
0.00114998
0.0011517
0.0011533
0.00115477
0.00115609
0.00115727
0.00115829
0.00115914
0.00115982
0.00116031
0.00116062
0.00116073
0.00116064
0.00116034
0.00115982
0.00115909
0.00115812
0.00115693
0.00115551
0.00107181
0.00110118
0.00107332
0.00108769
0.00108604
0.00108595
0.0010882
0.00108932
0.00109075
0.00109245
0.00109422
0.00109611
0.00109812
0.00110024
0.00110245
0.00110475
0.00110712
0.00110957
0.00111207
0.00111463
0.00111724
0.00111988
0.00112255
0.00112524
0.00112794
0.00113065
0.00113334
0.00113603
0.00113868
0.00114131
0.00114389
0.00114641
0.00114888
0.00115127
0.00115359
0.00115582
0.00115794
0.00115996
0.00116186
0.00116363
0.00116527
0.00116677
0.00116811
0.00116928
0.00117029
0.00117112
0.00117176
0.00117221
0.00117246
0.0011725
0.00117232
0.00117193
0.00117131
0.00117045
0.00116936
0.00107418
0.00110356
0.0010757
0.00109009
0.00108848
0.00108843
0.00109073
0.00109191
0.00109342
0.0010952
0.00109706
0.00109904
0.00110116
0.00110339
0.00110572
0.00110815
0.00111066
0.00111325
0.00111591
0.00111863
0.00112141
0.00112423
0.00112709
0.00112997
0.00113287
0.00113579
0.00113871
0.00114161
0.00114451
0.00114737
0.00115021
0.00115299
0.00115573
0.0011584
0.00116099
0.00116351
0.00116593
0.00116826
0.00117047
0.00117256
0.00117452
0.00117634
0.00117801
0.00117953
0.00118088
0.00118205
0.00118304
0.00118384
0.00118444
0.00118484
0.00118502
0.00118499
0.00118472
0.00118423
0.00118349
0.00107653
0.00110591
0.00107804
0.00109246
0.00109088
0.00109087
0.00109323
0.00109448
0.00109605
0.00109792
0.00109986
0.00110194
0.00110417
0.00110651
0.00110896
0.00111151
0.00111416
0.0011169
0.00111971
0.0011226
0.00112555
0.00112855
0.00113159
0.00113467
0.00113778
0.00114091
0.00114405
0.00114719
0.00115032
0.00115343
0.00115652
0.00115957
0.00116258
0.00116553
0.00116841
0.00117122
0.00117395
0.00117658
0.00117911
0.00118153
0.00118382
0.00118598
0.001188
0.00118986
0.00119156
0.0011931
0.00119445
0.00119562
0.00119659
0.00119736
0.00119792
0.00119825
0.00119837
0.00119825
0.00119789
0.00107884
0.00110822
0.00108036
0.0010948
0.00109325
0.00109328
0.0010957
0.00109701
0.00109865
0.0011006
0.00110263
0.00110481
0.00110714
0.00110959
0.00111216
0.00111485
0.00111763
0.00112052
0.00112349
0.00112653
0.00112965
0.00113283
0.00113607
0.00113934
0.00114266
0.001146
0.00114936
0.00115274
0.00115611
0.00115947
0.00116282
0.00116614
0.00116942
0.00117266
0.00117584
0.00117895
0.00118199
0.00118494
0.00118779
0.00119054
0.00119317
0.00119568
0.00119805
0.00120028
0.00120235
0.00120425
0.00120598
0.00120753
0.00120889
0.00121004
0.00121099
0.00121172
0.00121223
0.00121251
0.00121254
0.00108111
0.0011105
0.00108264
0.0010971
0.00109559
0.00109566
0.00109813
0.0010995
0.00110122
0.00110324
0.00110536
0.00110764
0.00111007
0.00111264
0.00111533
0.00111814
0.00112107
0.0011241
0.00112722
0.00113043
0.00113372
0.00113708
0.00114051
0.00114398
0.00114751
0.00115107
0.00115465
0.00115826
0.00116188
0.00116549
0.0011691
0.00117269
0.00117625
0.00117978
0.00118326
0.00118668
0.00119003
0.00119331
0.0011965
0.00119959
0.00120257
0.00120543
0.00120817
0.00121076
0.00121321
0.0012155
0.00121762
0.00121957
0.00122132
0.00122289
0.00122424
0.00122538
0.00122631
0.001227
0.00122745
0.00108335
0.00111274
0.00108488
0.00109937
0.00109789
0.001098
0.00110053
0.00110196
0.00110375
0.00110585
0.00110806
0.00111043
0.00111297
0.00111564
0.00111846
0.0011214
0.00112446
0.00112764
0.00113092
0.00113429
0.00113775
0.0011413
0.00114491
0.00114859
0.00115232
0.00115609
0.00115991
0.00116375
0.00116761
0.00117149
0.00117536
0.00117922
0.00118307
0.00118689
0.00119067
0.0011944
0.00119808
0.00120169
0.00120522
0.00120865
0.00121199
0.00121522
0.00121833
0.00122131
0.00122415
0.00122684
0.00122936
0.00123172
0.00123389
0.00123587
0.00123765
0.00123923
0.00124058
0.00124171
0.0012426
0.00122144
0.00122505
0.00122854
0.00123191
0.00123515
0.00123825
0.00124119
0.00124397
0.00124657
0.00124899
0.00125122
0.00125324
0.00125505
0.00125663
0.00125798
0.000865962
0.000899784
0.00091312
0.000882933
0.000876887
0.000894056
0.0008945
0.000884316
0.000879904
0.000879364
0.000877499
0.000874315
0.000871046
0.000867851
0.000864528
0.000861031
0.000857397
0.000853645
0.000849781
0.000845811
0.000841743
0.000837584
0.000833342
0.000829023
0.000824634
0.000820182
0.000815673
0.000811113
0.000806508
0.000801864
0.000797186
0.00079248
0.000787751
0.000783003
0.000778242
0.000773472
0.000768697
0.000763922
0.00075915
0.000754385
0.000749631
0.000744892
0.000740169
0.000735467
0.000730789
0.000726137
0.000721513
0.000716921
0.000712362
0.000707838
0.000703352
0.000698905
0.000694499
0.000690135
0.000685815
0.000865755
0.000901683
0.000912394
0.00088228
0.000878329
0.000894737
0.000894072
0.00088431
0.000880422
0.00087983
0.000877818
0.000874626
0.00087139
0.000868206
0.000864883
0.000861389
0.000857758
0.00085401
0.00085015
0.000846183
0.000842118
0.000837961
0.000833722
0.000829405
0.000825018
0.000820568
0.00081606
0.000811502
0.000806898
0.000802255
0.000797577
0.000792872
0.000788142
0.000783394
0.000778633
0.000773862
0.000769086
0.000764309
0.000759536
0.000754769
0.000750013
0.000745271
0.000740546
0.000735842
0.00073116
0.000726505
0.000721878
0.000717282
0.000712719
0.000708192
0.000703701
0.00069925
0.00069484
0.000690471
0.000686147
0.000866719
0.000902531
0.00091225
0.000882761
0.000879652
0.000895279
0.000894117
0.000884804
0.000881233
0.000880559
0.000878449
0.000875268
0.000872064
0.000868892
0.000865572
0.000862084
0.000858461
0.00085472
0.000850866
0.000846905
0.000842845
0.000838694
0.000834459
0.000830147
0.000825764
0.000821318
0.000816813
0.000812257
0.000807655
0.000803014
0.000798338
0.000793632
0.000788903
0.000784155
0.000779392
0.00077462
0.000769842
0.000765062
0.000760286
0.000755516
0.000750756
0.000746009
0.00074128
0.00073657
0.000731883
0.000727221
0.000722588
0.000717985
0.000713415
0.00070888
0.000704382
0.000699923
0.000695504
0.000691127
0.000686794
0.000867847
0.000903753
0.000912691
0.000883543
0.000881024
0.000896144
0.000894629
0.000885613
0.000882273
0.000881558
0.000879388
0.00087622
0.000873044
0.000869886
0.000866575
0.000863097
0.000859484
0.000855753
0.000851908
0.000847956
0.000843905
0.000839762
0.000835535
0.000831229
0.000826852
0.000822411
0.000817911
0.000813359
0.00080876
0.000804121
0.000799447
0.000794742
0.000790013
0.000785264
0.0007805
0.000775726
0.000770945
0.000766162
0.000761381
0.000756606
0.00075184
0.000747087
0.000742351
0.000737633
0.000732938
0.000728268
0.000723625
0.000719012
0.000714432
0.000709886
0.000705377
0.000700906
0.000696475
0.000692086
0.00068774
0.000869254
0.000905341
0.000913454
0.000884553
0.000882658
0.000897341
0.000895457
0.000886689
0.000883571
0.000882833
0.000880615
0.00087746
0.000874313
0.000871172
0.000867874
0.000864408
0.000860809
0.000857091
0.000853259
0.000849319
0.000845279
0.000841146
0.000836928
0.000832631
0.000828263
0.000823828
0.000819335
0.000814788
0.000810194
0.000805558
0.000800886
0.000796183
0.000791454
0.000786705
0.000781939
0.000777162
0.000772378
0.00076759
0.000762804
0.000758022
0.000753249
0.000748489
0.000743743
0.000739016
0.00073431
0.000729628
0.000724974
0.000720348
0.000715755
0.000711195
0.000706671
0.000702185
0.000697738
0.000693333
0.00068897
0.000870936
0.0009072
0.00091447
0.000885836
0.000884557
0.000898786
0.000896545
0.000888032
0.000885131
0.000884369
0.000882107
0.000878971
0.000875854
0.000872733
0.00086945
0.000866001
0.000862419
0.000858716
0.000854899
0.000850974
0.000846947
0.000842827
0.000838621
0.000834336
0.000829977
0.000825552
0.000821066
0.000816526
0.000811938
0.000807306
0.000802637
0.000797937
0.000793209
0.000788459
0.000783691
0.000778911
0.000774123
0.000769331
0.000764538
0.000759749
0.000754968
0.000750197
0.000745441
0.000740702
0.000735984
0.000731288
0.000726619
0.000721979
0.000717369
0.000712792
0.000708251
0.000703747
0.000699281
0.000694857
0.000690474
0.000872864
0.000909296
0.000915721
0.000887375
0.000886691
0.000900453
0.00089788
0.000889632
0.000886937
0.000886147
0.000883847
0.000880733
0.00087765
0.000874552
0.000871287
0.000867857
0.000864295
0.000860611
0.000856812
0.000852904
0.000848894
0.000844789
0.000840598
0.000836325
0.000831979
0.000827565
0.000823089
0.000818557
0.000813975
0.00080935
0.000804685
0.000799987
0.000795261
0.000790511
0.000785742
0.000780959
0.000776167
0.000771368
0.000766569
0.000761772
0.00075698
0.000752199
0.000747431
0.000742679
0.000737946
0.000733235
0.00072855
0.000723891
0.000719263
0.000714667
0.000710105
0.00070558
0.000701093
0.000696646
0.00069224
0.000875021
0.000911613
0.000917185
0.000889148
0.00088905
0.000902334
0.000899447
0.000891472
0.000888974
0.000888152
0.000885819
0.000882733
0.000879686
0.000876612
0.000873368
0.000869961
0.000866421
0.000862759
0.000858981
0.000855092
0.000851102
0.000847015
0.000842841
0.000838584
0.000834252
0.000829851
0.000825386
0.000820865
0.000816292
0.000811673
0.000807014
0.00080232
0.000797595
0.000792846
0.000788076
0.000783291
0.000778494
0.00077369
0.000768883
0.000764077
0.000759275
0.000754482
0.0007497
0.000744933
0.000740185
0.000735457
0.000730753
0.000726075
0.000721426
0.000716808
0.000712224
0.000707675
0.000703163
0.00069869
0.000694258
0.000877389
0.000914134
0.000918842
0.00089114
0.00089162
0.000904414
0.000901227
0.000893534
0.000891225
0.00089037
0.000888007
0.000884953
0.000881945
0.000878897
0.000875678
0.000872296
0.000868781
0.000865144
0.00086139
0.000857524
0.000853555
0.00084949
0.000845335
0.000841096
0.000836781
0.000832395
0.000827944
0.000823435
0.000818872
0.000814262
0.000809609
0.00080492
0.000800199
0.000795451
0.000790681
0.000785893
0.000781092
0.000776282
0.000771467
0.000766652
0.000761839
0.000757034
0.000752238
0.000747455
0.000742689
0.000737943
0.000733218
0.000728519
0.000723848
0.000719206
0.000714597
0.000710021
0.000705483
0.000700982
0.000696521
0.000879952
0.000916842
0.000920675
0.000893333
0.000894384
0.000906674
0.000903205
0.000895802
0.000893677
0.000892785
0.000890398
0.000887379
0.000884411
0.000881394
0.000878201
0.000874847
0.000871361
0.000867751
0.000864024
0.000860184
0.00085624
0.000852198
0.000848065
0.000843848
0.000839551
0.000835183
0.000830748
0.000826252
0.000821702
0.000817102
0.000812458
0.000807775
0.000803058
0.000798313
0.000793543
0.000788753
0.000783949
0.000779133
0.000774311
0.000769486
0.000764663
0.000759844
0.000755033
0.000750234
0.000745449
0.000740683
0.000735937
0.000731215
0.000726519
0.000721852
0.000717216
0.000712612
0.000708044
0.000703513
0.000699021
0.000882695
0.000919719
0.000922666
0.000895713
0.000897328
0.000909101
0.000905367
0.000898263
0.000896314
0.000895382
0.000892975
0.000889996
0.000887072
0.000884086
0.000880923
0.0008776
0.000874145
0.000870567
0.000866869
0.000863058
0.000859141
0.000855126
0.000851018
0.000846824
0.00084255
0.000838201
0.000833784
0.000829305
0.000824769
0.000820181
0.000815547
0.000810872
0.000806161
0.000801419
0.000796651
0.000791861
0.000787053
0.000782233
0.000777404
0.000772569
0.000767734
0.000762902
0.000758076
0.00075326
0.000748456
0.000743669
0.000738901
0.000734155
0.000729433
0.000724739
0.000720074
0.00071544
0.000710841
0.000706277
0.000701751
0.000885601
0.00092275
0.000924801
0.000898265
0.000900435
0.000911679
0.000907698
0.000900902
0.000899121
0.000898148
0.000895726
0.00089279
0.000889911
0.000886959
0.000883829
0.000880541
0.000877121
0.000873576
0.000869911
0.000866132
0.000862246
0.00085826
0.00085418
0.000850012
0.000845762
0.000841437
0.000837041
0.00083258
0.00082806
0.000823487
0.000818865
0.0008142
0.000809497
0.00080476
0.000799994
0.000795204
0.000790395
0.00078557
0.000780734
0.000775891
0.000771045
0.0007662
0.000761358
0.000756524
0.000751702
0.000746893
0.000742101
0.00073733
0.000732582
0.000727859
0.000723163
0.000718498
0.000713866
0.000709268
0.000704707
0.000888656
0.000925918
0.000927064
0.000900976
0.00090369
0.000914395
0.000910187
0.000903705
0.000902083
0.000901068
0.000898636
0.000895748
0.000892917
0.000890001
0.000886907
0.000883656
0.000880273
0.000876765
0.000873136
0.000869392
0.000865541
0.000861587
0.000857538
0.000853399
0.000849177
0.000844877
0.000840504
0.000836065
0.000831565
0.000827008
0.0008224
0.000817747
0.000813053
0.000808323
0.000803562
0.000798774
0.000793964
0.000789136
0.000784294
0.000779443
0.000774586
0.000769728
0.000764871
0.00076002
0.000755177
0.000750347
0.000745532
0.000740734
0.000735958
0.000731206
0.000726479
0.000721781
0.000717114
0.00071248
0.000707882
0.000891845
0.00092921
0.000929441
0.000903834
0.000907079
0.000917234
0.00091282
0.000906658
0.000905187
0.000904129
0.000901693
0.000898856
0.000896075
0.000893199
0.000890143
0.000886933
0.000883591
0.000880123
0.000876533
0.000872827
0.000869013
0.000865095
0.00086108
0.000856974
0.000852782
0.00084851
0.000844164
0.000839749
0.00083527
0.000830733
0.000826142
0.000821503
0.00081682
0.000812099
0.000807344
0.00080256
0.00079775
0.000792921
0.000788074
0.000783216
0.00077835
0.000773479
0.000768607
0.000763739
0.000758877
0.000754024
0.000749185
0.000744362
0.000739557
0.000734774
0.000730015
0.000725283
0.000720581
0.00071591
0.000711272
0.000895157
0.000932611
0.00093192
0.000906825
0.000910589
0.000920183
0.000915585
0.00090975
0.00090842
0.000907319
0.000904884
0.000902102
0.000899373
0.000896539
0.000893525
0.000890359
0.000887061
0.000883636
0.000880088
0.000876424
0.00087265
0.000868771
0.000864794
0.000860724
0.000856566
0.000852326
0.000848009
0.000843621
0.000839166
0.000834651
0.00083008
0.000825457
0.000820789
0.000816079
0.000811332
0.000806553
0.000801746
0.000796916
0.000792067
0.000787202
0.000782327
0.000777445
0.000772559
0.000767674
0.000762793
0.000757919
0.000753055
0.000748205
0.000743372
0.000738558
0.000733767
0.000729
0.000724261
0.000719551
0.000714873
0.000898578
0.000936108
0.000934487
0.000909938
0.000914206
0.000923231
0.000918471
0.000912967
0.000911769
0.000910624
0.000908197
0.000905475
0.000902799
0.00090001
0.000897041
0.000893921
0.000890671
0.000887292
0.000883791
0.000880172
0.000876442
0.000872605
0.000868669
0.000864637
0.000860516
0.000856311
0.000852027
0.000847669
0.000843243
0.000838752
0.000834203
0.0008296
0.000824948
0.000820252
0.000815516
0.000810744
0.000805942
0.000801113
0.000796263
0.000791394
0.000786512
0.000781619
0.000776721
0.00077182
0.00076692
0.000762024
0.000757137
0.000752261
0.000747399
0.000742554
0.000737729
0.000732927
0.00072815
0.000723401
0.000718682
0.000902096
0.000939688
0.000937132
0.000913163
0.000917917
0.000926365
0.000921468
0.000916298
0.000915222
0.000914034
0.00091162
0.000908961
0.000906342
0.000903599
0.000900679
0.00089761
0.00089441
0.000891082
0.000887629
0.000884059
0.000880376
0.000876586
0.000872693
0.000868705
0.000864624
0.000860458
0.000856209
0.000851885
0.000847489
0.000843027
0.000838503
0.000833923
0.00082929
0.00082461
0.000819887
0.000815125
0.00081033
0.000805505
0.000800655
0.000795784
0.000790896
0.000785995
0.000781084
0.000776169
0.000771251
0.000766335
0.000761425
0.000756523
0.000751632
0.000746756
0.000741898
0.00073706
0.000732246
0.000727457
0.000722696
0.000905699
0.000943339
0.000939842
0.000916489
0.000921709
0.000929573
0.000924565
0.000919731
0.000918767
0.000917537
0.000915144
0.000912551
0.00090999
0.000907297
0.000904429
0.000901413
0.000898267
0.000894992
0.000891593
0.000888074
0.000884442
0.000880701
0.000876857
0.000872915
0.000868879
0.000864754
0.000860545
0.000856258
0.000851897
0.000847466
0.000842971
0.000838416
0.000833805
0.000829144
0.000824437
0.000819689
0.000814903
0.000810084
0.000805237
0.000800365
0.000795473
0.000790565
0.000785645
0.000780716
0.000775782
0.000770846
0.000765913
0.000760986
0.000756068
0.000751161
0.00074627
0.000741396
0.000736544
0.000731714
0.000726911
0.000909378
0.000947049
0.000942608
0.000919906
0.000925571
0.000932847
0.000927752
0.000923256
0.000922392
0.000921122
0.000918757
0.000916233
0.000913733
0.000911093
0.000908279
0.000905321
0.000902231
0.000899013
0.00089567
0.000892208
0.00088863
0.000884943
0.00088115
0.000877258
0.000873269
0.00086919
0.000865025
0.000860778
0.000856455
0.000852059
0.000847596
0.00084307
0.000838485
0.000833847
0.000829159
0.000824426
0.000819652
0.000814843
0.000810001
0.000805131
0.000800237
0.000795324
0.000790395
0.000785455
0.000780506
0.000775552
0.000770598
0.000765647
0.000760701
0.000755765
0.00075084
0.000745931
0.000741041
0.000736171
0.000731325
0.00091312
0.000950808
0.00094542
0.000923405
0.000929492
0.000936175
0.00093102
0.000926861
0.000926087
0.00092478
0.000922449
0.000919998
0.00091756
0.000914976
0.00091222
0.000909322
0.000906293
0.000903136
0.000899853
0.000896449
0.00089293
0.0008893
0.000885563
0.000881724
0.000877787
0.000873758
0.000869639
0.000865437
0.000861156
0.000856799
0.000852371
0.000847878
0.000843322
0.000838709
0.000834044
0.00082933
0.000824572
0.000819773
0.00081494
0.000810074
0.000805182
0.000800266
0.000795331
0.00079038
0.000785418
0.000780449
0.000775475
0.0007705
0.000765528
0.000760563
0.000755607
0.000750663
0.000745734
0.000740824
0.000735936
0.000916917
0.000954604
0.000948268
0.000926978
0.000933461
0.000939548
0.000934361
0.000930536
0.000929842
0.000928501
0.00092621
0.000923835
0.000921462
0.000918936
0.000916242
0.000913408
0.000910443
0.000907349
0.00090413
0.000900789
0.000897332
0.000893762
0.000890085
0.000886303
0.000882423
0.000878446
0.000874379
0.000870226
0.000865989
0.000861675
0.000857287
0.00085283
0.000848307
0.000843724
0.000839084
0.000834393
0.000829653
0.00082487
0.000820047
0.000815189
0.0008103
0.000805384
0.000800446
0.000795488
0.000790515
0.00078553
0.000780538
0.000775542
0.000770546
0.000765552
0.000760565
0.000755587
0.000750622
0.000745672
0.000740741
0.00092076
0.000958428
0.000951144
0.000930616
0.000937467
0.000942957
0.000937765
0.000934273
0.000933646
0.000932276
0.000930033
0.000927736
0.000925429
0.000922965
0.000920335
0.000917568
0.000914671
0.000911644
0.000908492
0.000905218
0.000901827
0.000898322
0.000894707
0.000890988