/*--------------------------------*- C++ -*----------------------------------*\
| =========                 |                                                 |
| \\      /  F ield         | OpenFOAM: The Open Source CFD Toolbox           |
|  \\    /   O peration     | Version:  2412                                  |
|   \\  /    A nd           | Website:  www.openfoam.com                      |
|    \\/     M anipulation  |                                                 |
\*---------------------------------------------------------------------------*/
FoamFile
{
    version     2.0;
    format      ascii;
    arch        "LSB;label=32;scalar=64";
    class       volScalarField;
    location    "19";
    object      p;
}
// * * * * * * * * * * * * * * * * * * * * * * * * * * * * * * * * * * * * * //

dimensions      [0 2 -2 0 0 0 0];

internalField   nonuniform List<scalar> 
63420
(
0.000944226
0.000944485
0.000945309
0.00094658
0.000948283
0.000950405
0.000952927
0.000955838
0.000959125
0.000962778
0.000966788
0.000971146
0.000975844
0.000980874
0.000986231
0.000991911
0.000997911
0.00100423
0.00101087
0.00101783
0.00102511
0.00103272
0.00104065
0.00104891
0.00105749
0.00106641
0.00107566
0.00108524
0.00109517
0.00110543
0.00111604
0.001127
0.0011383
0.00114996
0.00116197
0.00117435
0.00118709
0.0012002
0.00121368
0.00122753
0.00124177
0.00125639
0.0012714
0.0012868
0.00130259
0.00131879
0.0013354
0.00135241
0.00136984
0.00138769
0.00140596
0.00142467
0.0014438
0.00146338
0.0014834
0.000944167
0.000944426
0.000945248
0.000946519
0.000948221
0.000950341
0.000952862
0.00095577
0.000959055
0.000962705
0.000966712
0.000971066
0.00097576
0.000980786
0.000986139
0.000991814
0.00099781
0.00100412
0.00101076
0.00101771
0.00102499
0.00103259
0.00104051
0.00104876
0.00105733
0.00106624
0.00107548
0.00108506
0.00109497
0.00110522
0.00111582
0.00112676
0.00113805
0.00114969
0.00116169
0.00117405
0.00118677
0.00119986
0.00121332
0.00122716
0.00124137
0.00125596
0.00127095
0.00128632
0.00130209
0.00131826
0.00133483
0.00135181
0.0013692
0.00138701
0.00140524
0.0014239
0.00144299
0.00146252
0.00148248
0.000944047
0.000944306
0.000945128
0.000946396
0.000948096
0.000950213
0.00095273
0.000955634
0.000958914
0.000962559
0.000966559
0.000970907
0.000975594
0.000980612
0.000985956
0.000991621
0.000997607
0.00100391
0.00101053
0.00101747
0.00102474
0.00103232
0.00104023
0.00104846
0.00105702
0.00106591
0.00107513
0.00108468
0.00109457
0.0011048
0.00111537
0.00112629
0.00113755
0.00114916
0.00116113
0.00117346
0.00118614
0.00119919
0.00121261
0.0012264
0.00124057
0.00125511
0.00127005
0.00128536
0.00130107
0.00131718
0.00133369
0.0013506
0.00136792
0.00138565
0.0014038
0.00142237
0.00144137
0.0014608
0.00148066
0.000943869
0.000944127
0.000944947
0.000946213
0.000947909
0.000950021
0.000952532
0.00095543
0.000958703
0.000962339
0.000966331
0.000970668
0.000975344
0.00098035
0.000985681
0.000991333
0.000997303
0.00100359
0.0010102
0.00101712
0.00102436
0.00103192
0.00103981
0.00104802
0.00105655
0.00106541
0.0010746
0.00108413
0.00109398
0.00110418
0.00111471
0.00112558
0.0011368
0.00114837
0.00116029
0.00117256
0.00118519
0.00119819
0.00121155
0.00122527
0.00123937
0.00125384
0.0012687
0.00128394
0.00129956
0.00131558
0.00133199
0.0013488
0.00136601
0.00138362
0.00140165
0.00142009
0.00143895
0.00145823
0.00147794
0.000943631
0.000943888
0.000944705
0.000945968
0.000947659
0.000949765
0.00095227
0.000955159
0.000958421
0.000962047
0.000966026
0.00097035
0.000975011
0.000980001
0.000985315
0.000990948
0.000996898
0.00100316
0.00100975
0.00101664
0.00102386
0.00103139
0.00103925
0.00104743
0.00105592
0.00106475
0.0010739
0.00108338
0.00109319
0.00110334
0.00111382
0.00112464
0.00113581
0.00114731
0.00115917
0.00117138
0.00118394
0.00119685
0.00121013
0.00122377
0.00123778
0.00125216
0.00126691
0.00128204
0.00129755
0.00131344
0.00132973
0.0013464
0.00136347
0.00138093
0.0013988
0.00141707
0.00143574
0.00145483
0.00147432
0.000943333
0.00094359
0.000944404
0.000945662
0.000947347
0.000949446
0.000951941
0.00095482
0.00095807
0.000961682
0.000965646
0.000969953
0.000974596
0.000979566
0.000984858
0.000990468
0.000996393
0.00100263
0.00100919
0.00101605
0.00102324
0.00103074
0.00103855
0.00104669
0.00105514
0.00106392
0.00107303
0.00108245
0.00109221
0.0011023
0.00111272
0.00112347
0.00113457
0.001146
0.00115778
0.0011699
0.00118237
0.00119519
0.00120837
0.0012219
0.0012358
0.00125006
0.00126468
0.00127968
0.00129505
0.00131079
0.00132691
0.00134342
0.00136031
0.00137758
0.00139525
0.00141331
0.00143176
0.0014506
0.00146984
0.000942977
0.000943233
0.000944043
0.000945296
0.000946974
0.000949063
0.000951548
0.000954414
0.00095765
0.000961245
0.000965191
0.000969478
0.000974098
0.000979045
0.000984311
0.000989893
0.000995789
0.001002
0.00100852
0.00101535
0.00102249
0.00102995
0.00103772
0.0010458
0.00105421
0.00106293
0.00107198
0.00108134
0.00109104
0.00110105
0.0011114
0.00112207
0.00113308
0.00114443
0.00115611
0.00116813
0.00118049
0.0011932
0.00120626
0.00121967
0.00123343
0.00124755
0.00126202
0.00127686
0.00129206
0.00130763
0.00132356
0.00133986
0.00135654
0.00137359
0.00139102
0.00140883
0.00142701
0.00144558
0.00146451
0.00150392
0.00152516
0.00154733
0.00157046
0.0015946
0.00161983
0.00164621
0.0016738
0.0017027
0.00173297
0.00176471
0.00179802
0.001833
0.00186976
0.00190844
0.00194916
0.00199208
0.00203735
0.00208515
0.00213567
0.00218914
0.00224577
0.00230583
0.0023696
0.00243739
0.00250954
0.00258642
0.00266847
0.00275614
0.00284994
0.00295043
0.00305823
0.00317403
0.00329856
0.00343261
0.00357702
0.00373264
0.0039003
0.0040807
0.00427431
0.00448114
0.00470048
0.00493055
0.00516824
0.00540949
0.00565009
0.00588606
0.00612364
0.00642907
0.00689364
0.00150298
0.00152424
0.00154639
0.00156951
0.00159366
0.00161888
0.00164525
0.00167285
0.00170174
0.001732
0.00176374
0.00179704
0.00183201
0.00186876
0.00190742
0.00194812
0.00199101
0.00203625
0.00208402
0.0021345
0.0021879
0.00224447
0.00230444
0.0023681
0.00243575
0.00250773
0.00258442
0.00266621
0.00275356
0.00284696
0.00294696
0.00305414
0.00316914
0.00329267
0.00342543
0.00356819
0.00372168
0.00388656
0.00406336
0.00425226
0.00445293
0.00466418
0.00488367
0.00510757
0.00533092
0.00554859
0.00575607
0.00595875
0.0062186
0.00662001
0.00150111
0.00152236
0.00154451
0.00156762
0.00159176
0.00161698
0.00164335
0.00167093
0.00169981
0.00173007
0.00176179
0.00179508
0.00183002
0.00186675
0.00190538
0.00194604
0.00198889
0.00203407
0.00208176
0.00213215
0.00218544
0.00224186
0.00230166
0.00236511
0.0024325
0.00250416
0.00258044
0.00266173
0.00274845
0.00284108
0.0029401
0.00304605
0.0031595
0.00328104
0.00341127
0.00355077
0.00370004
0.00385945
0.00402909
0.00420861
0.00439695
0.004592
0.00479021
0.00498631
0.00517352
0.00534484
0.00549489
0.00562756
0.00579218
0.00607986
0.0014983
0.00151954
0.00154168
0.00156479
0.00158891
0.00161412
0.00164048
0.00166805
0.00169691
0.00172715
0.00175885
0.0017921
0.00182702
0.00186371
0.00190228
0.00194288
0.00198565
0.00203073
0.00207831
0.00212855
0.00218166
0.00223787
0.0022974
0.00236051
0.0024275
0.00249865
0.00257431
0.00265483
0.0027406
0.00283203
0.00292956
0.00303364
0.00314472
0.00326327
0.00338967
0.00352426
0.0036672
0.0038184
0.00397735
0.00414287
0.00431284
0.00448374
0.00465023
0.00480485
0.00493816
0.0050402
0.00510422
0.00513532
0.00516742
0.00525462
0.00149457
0.00151581
0.00153794
0.00156104
0.00158515
0.00161035
0.0016367
0.00166425
0.0016931
0.00172332
0.001755
0.00178823
0.00182311
0.00185975
0.00189827
0.0019388
0.00198147
0.00202644
0.00207387
0.00212394
0.00217683
0.00223276
0.00229194
0.00235463
0.00242108
0.00249158
0.00256642
0.00264592
0.00273043
0.00282027
0.00291581
0.00301738
0.0031253
0.0032398
0.00336104
0.00348899
0.00362335
0.00376341
0.00390784
0.00405438
0.00419948
0.00433778
0.00446163
0.00456073
0.00462231
0.00463253
0.00458185
0.00447839
0.00434494
0.00412248
0.00148994
0.00151118
0.00153332
0.00155643
0.00158056
0.00160578
0.00163215
0.00165973
0.00168861
0.00171886
0.00175057
0.00178383
0.00181875
0.00185542
0.00189397
0.00193452
0.00197721
0.00202218
0.00206959
0.00211962
0.00217245
0.00222827
0.0022873
0.00234976
0.00241591
0.00248599
0.00256029
0.00263906
0.00272261
0.00281119
0.00290507
0.00300446
0.00310949
0.00322016
0.0033363
0.00345739
0.0035825
0.00370998
0.00383722
0.00396022
0.00407307
0.00416738
0.00423167
0.00425109
0.00420779
0.00408271
0.00386175
0.00355388
0.00317375
0.00253318
0.0014844
0.00150557
0.00152765
0.00155071
0.00157479
0.00159996
0.00162628
0.00165382
0.00168265
0.00171285
0.00174451
0.00177772
0.00181258
0.0018492
0.00188769
0.00192817
0.00197077
0.00201565
0.00206296
0.00211285
0.00216551
0.00222114
0.00227992
0.00234208
0.00240784
0.00247744
0.00255112
0.00262912
0.00271167
0.00279898
0.0028912
0.00298844
0.00309064
0.00319758
0.00330871
0.00342303
0.00353885
0.00365344
0.0037626
0.00386004
0.00393664
0.00397965
0.0039721
0.00389274
0.00371688
0.00341795
0.00297829
0.00241124
0.00168096
0.00049501
-0.00348982
-0.00356024
-0.00357731
-0.00355549
-0.00350718
-0.00343499
-0.00334021
-0.00322913
-0.00310016
-0.00295634
-0.00280028
-0.00263433
-0.00246091
-0.00228254
-0.00210164
-0.00192053
-0.00174133
-0.00156596
-0.00139614
-0.00123331
-0.00107868
-0.000933205
-0.000797583
-0.000672281
-0.000557537
-0.000453383
-0.000359682
-0.000276145
-0.000202361
-0.000137818
-8.19296e-05
-3.40612e-05
6.45376e-06
4.02934e-05
6.81319e-05
9.0627e-05
0.000108409
0.000122074
0.000132177
0.00013923
0.000143696
0.000145995
0.0001465
0.000145539
0.000143399
0.000140329
0.000136541
0.000132217
0.000127506
0.000122536
-0.00357277
-0.00361977
-0.00362286
-0.00359289
-0.00353927
-0.00346391
-0.00336831
-0.00325502
-0.00312519
-0.00298126
-0.00282518
-0.00265918
-0.00248575
-0.00230723
-0.00212608
-0.00194457
-0.00176484
-0.0015888
-0.00141818
-0.00125445
-0.00109884
-0.000952314
-0.000815601
-0.000689182
-0.000573317
-0.000468054
-0.000373266
-0.000288677
-0.000213884
-0.000148382
-9.15887e-05
-4.2872e-05
-1.5665e-06
3.30061e-05
6.15211e-05
8.46381e-05
0.00010299
0.000117176
0.000127753
0.000135237
0.000140095
0.000142748
0.000143574
0.000142903
0.000141025
0.000138191
0.000134617
0.000130484
0.000125946
0.000121133
-0.00373787
-0.00373664
-0.00371217
-0.00366598
-0.00360156
-0.0035193
-0.0034204
-0.00330448
-0.00317299
-0.00302913
-0.00287236
-0.00270677
-0.00253339
-0.00235471
-0.00217318
-0.00199101
-0.00181033
-0.00163307
-0.00146099
-0.00129558
-0.00113811
-0.000989595
-0.000850793
-0.000722232
-0.000604204
-0.000496795
-0.000399901
-0.000313268
-0.000236511
-0.000169139
-0.000110579
-6.02036e-05
-1.73504e-05
1.86586e-05
4.85007e-05
7.28387e-05
9.23103e-05
0.000107519
0.00011903
0.000127362
0.00013299
0.000136343
0.0001378
0.0001377
0.000136338
0.000133969
0.000130814
0.000127059
0.000122861
0.000118358
-0.00399099
-0.00390252
-0.00384206
-0.00377136
-0.00369054
-0.00359762
-0.00349392
-0.00337534
-0.00323842
-0.00309514
-0.00293942
-0.00277385
-0.00260057
-0.00242185
-0.00223991
-0.00205695
-0.00187505
-0.00169617
-0.0015221
-0.00135439
-0.00119435
-0.00104306
-0.000901339
-0.00076976
-0.000648678
-0.000538223
-0.000438332
-0.000348784
-0.000269222
-0.000199173
-0.000138079
-8.53209e-05
-4.02418e-05
-2.16439e-06
2.95906e-05
5.56905e-05
7.6779e-05
9.34671e-05
0.000106327
0.000115887
0.000122631
0.000126995
0.000129368
0.000130095
0.00012948
0.000127785
0.000125237
0.00012203
0.000118324
0.000114271
-0.00430896
-0.00411837
-0.00400904
-0.00390314
-0.00379967
-0.00369139
-0.00358068
-0.00345677
-0.00332118
-0.00317561
-0.0030195
-0.00285418
-0.00268132
-0.00250281
-0.00232071
-0.0021371
-0.00195406
-0.00177354
-0.00159736
-0.00142712
-0.0012642
-0.00110973
-0.000964603
-0.000829471
-0.00070475
-0.000590632
-0.000487108
-0.000394
-0.000310987
-0.000237624
-0.000173375
-0.000117635
-6.9755e-05
-2.90627e-05
5.12138e-06
3.34678e-05
5.66257e-05
7.52137e-05
8.98124e-05
0.00010096
0.000109149
0.000114826
0.000118389
0.000120194
0.000120553
0.000119737
0.00011798
0.000115485
0.000112421
0.000108953
-0.00464395
-0.00438395
-0.00421346
-0.00406253
-0.00392668
-0.00380302
-0.00367511
-0.00354274
-0.00340377
-0.00325646
-0.00310044
-0.00293624
-0.00276491
-0.00258791
-0.00240702
-0.00222414
-0.00204124
-0.00186023
-0.0016829
-0.00151089
-0.00134565
-0.00118837
-0.00104004
-0.000901379
-0.000772901
-0.000654868
-0.000547352
-0.000450239
-0.000363262
-0.000286022
-0.000218022
-0.000158684
-0.00010738
-6.34532e-05
-2.62307e-05
4.95379e-06
3.07499e-05
5.17794e-05
6.86287e-05
8.18432e-05
9.19238e-05
9.9326e-05
0.000104459
0.000107687
0.000109333
0.000109678
0.000108965
0.000107406
0.000105182
0.000102467
-0.00496532
-0.00471454
-0.00448537
-0.00427514
-0.00409386
-0.00394438
-0.00379704
-0.00365272
-0.00350662
-0.00335566
-0.00319845
-0.00303453
-0.00286423
-0.00268848
-0.00250864
-0.00232635
-0.0021434
-0.00196161
-0.00178278
-0.00160856
-0.00144045
-0.00127974
-0.00112752
-0.000984605
-0.000851606
-0.000728885
-0.000616597
-0.00051471
-0.000423025
-0.000341197
-0.000268771
-0.000205207
-0.000149899
-0.000102206
-6.14647e-05
-2.70104e-05
1.80828e-06
2.56188e-05
4.50158e-05
6.05554e-05
7.27505e-05
8.20691e-05
8.8934e-05
9.37228e-05
9.67707e-05
9.83719e-05
9.87831e-05
9.82257e-05
9.68942e-05
9.49634e-05
0.000117398
0.000112086
0.000106659
0.000101192
9.57342e-05
9.03269e-05
8.5006e-05
7.9801e-05
7.47354e-05
6.98274e-05
6.50914e-05
6.05378e-05
5.6174e-05
5.20044e-05
4.80313e-05
4.4255e-05
4.06742e-05
3.72862e-05
3.40872e-05
3.10727e-05
2.82375e-05
2.5576e-05
2.30823e-05
2.07504e-05
1.85742e-05
1.65479e-05
1.46654e-05
1.2921e-05
1.13091e-05
9.8238e-06
8.45942e-06
7.21011e-06
6.06994e-06
5.0329e-06
4.09294e-06
3.24403e-06
2.4802e-06
1.79566e-06
1.18476e-06
6.42139e-07
1.62688e-07
-2.58445e-07
-6.25773e-07
-9.43574e-07
-1.21624e-06
-1.44673e-06
-1.63935e-06
-1.79726e-06
-1.92357e-06
-2.02129e-06
-2.09322e-06
-2.14198e-06
-2.17002e-06
-2.17965e-06
-2.17302e-06
-2.15213e-06
-2.11883e-06
-2.07483e-06
-2.02173e-06
-1.96097e-06
-1.8939e-06
-1.82175e-06
-1.74563e-06
-1.66655e-06
-1.58541e-06
-1.50304e-06
-1.42015e-06
-1.3374e-06
-1.25535e-06
-1.1745e-06
-1.09527e-06
-1.01802e-06
-9.43052e-07
-8.70621e-07
-8.0093e-07
-7.34134e-07
-6.70352e-07
-6.09673e-07
-5.5212e-07
-4.97747e-07
-4.46467e-07
-3.98402e-07
-3.53166e-07
-3.11336e-07
-2.71547e-07
-2.36133e-07
-2.00442e-07
-1.72647e-07
-1.37806e-07
-1.21652e-07
-7.99291e-08
-8.58973e-08
-2.03399e-08
-7.14534e-08
5.0838e-08
-8.74215e-08
1.45375e-07
-1.41819e-07
2.69587e-07
-2.31275e-07
4.1115e-07
-3.26959e-07
5.27512e-07
-3.6975e-07
5.53202e-07
-2.9402e-07
4.4132e-07
-8.41903e-08
2.26775e-07
1.6922e-07
5.69437e-08
2.77514e-07
1.33446e-07
5.23021e-08
5.84565e-07
0.000116162
0.000110948
0.00010561
0.000100235
9.4863e-05
8.95347e-05
8.42865e-05
7.91482e-05
7.41433e-05
6.92908e-05
6.46052e-05
6.00975e-05
5.57753e-05
5.16435e-05
4.77047e-05
4.39596e-05
4.0407e-05
3.70447e-05
3.3869e-05
3.08757e-05
2.80598e-05
2.54158e-05
2.2938e-05
2.06206e-05
1.84576e-05
1.64432e-05
1.45716e-05
1.28371e-05
1.12341e-05
9.75686e-06
8.39974e-06
7.15695e-06
6.02262e-06
4.9908e-06
4.05551e-06
3.21077e-06
2.45067e-06
1.76946e-06
1.16154e-06
6.21586e-07
1.44524e-07
-2.74469e-07
-6.39881e-07
-9.55966e-07
-1.2271e-06
-1.45621e-06
-1.64761e-06
-1.80443e-06
-1.92977e-06
-2.02663e-06
-2.0978e-06
-2.14589e-06
-2.17334e-06
-2.18245e-06
-2.17537e-06
-2.15408e-06
-2.12043e-06
-2.07613e-06
-2.02277e-06
-1.96179e-06
-1.89453e-06
-1.82222e-06
-1.74596e-06
-1.66677e-06
-1.58553e-06
-1.50308e-06
-1.42013e-06
-1.33733e-06
-1.25523e-06
-1.17435e-06
-1.09509e-06
-1.01783e-06
-9.42854e-07
-8.70418e-07
-8.00725e-07
-7.3393e-07
-6.70153e-07
-6.09481e-07
-5.51935e-07
-4.9757e-07
-4.46299e-07
-3.98245e-07
-3.53019e-07
-3.11198e-07
-2.7142e-07
-2.36015e-07
-2.00335e-07
-1.72547e-07
-1.37719e-07
-1.21566e-07
-7.98622e-08
-8.58226e-08
-2.02955e-08
-7.13841e-08
5.08608e-08
-8.73513e-08
1.45376e-07
-1.41748e-07
2.69571e-07
-2.31211e-07
4.1113e-07
-3.26916e-07
5.27505e-07
-3.6974e-07
5.53217e-07
-2.94044e-07
4.41355e-07
-8.42312e-08
2.26812e-07
1.69192e-07
5.69665e-08
2.77493e-07
1.33542e-07
5.21674e-08
5.84869e-07
0.000113702
0.000108685
0.000103529
9.83343e-05
9.31329e-05
8.79614e-05
8.28572e-05
7.78507e-05
7.29664e-05
6.82238e-05
6.36382e-05
5.92214e-05
5.49818e-05
5.09251e-05
4.70545e-05
4.33713e-05
3.98749e-05
3.65636e-05
3.34343e-05
3.04831e-05
2.77055e-05
2.50964e-05
2.26503e-05
2.03617e-05
1.8225e-05
1.62345e-05
1.43846e-05
1.26697e-05
1.10845e-05
9.62332e-06
8.28065e-06
7.05085e-06
5.92816e-06
4.90677e-06
3.98079e-06
3.14438e-06
2.39172e-06
1.71715e-06
1.11518e-06
5.80551e-07
1.08258e-07
-3.06463e-07
-6.68048e-07
-9.80706e-07
-1.24877e-06
-1.47515e-06
-1.6641e-06
-1.81875e-06
-1.94215e-06
-2.0373e-06
-2.10695e-06
-2.15369e-06
-2.17996e-06
-2.18804e-06
-2.18005e-06
-2.15796e-06
-2.12363e-06
-2.07873e-06
-2.02484e-06
-1.96342e-06
-1.89579e-06
-1.82315e-06
-1.74662e-06
-1.6672e-06
-1.58577e-06
-1.50316e-06
-1.42008e-06
-1.33717e-06
-1.255e-06
-1.17406e-06
-1.09475e-06
-1.01746e-06
-9.4246e-07
-8.70013e-07
-8.00317e-07
-7.33526e-07
-6.69758e-07
-6.09097e-07
-5.51566e-07
-4.97219e-07
-4.45966e-07
-3.9793e-07
-3.52725e-07
-3.10923e-07
-2.71167e-07
-2.35781e-07
-2.00123e-07
-1.72348e-07
-1.37547e-07
-1.21395e-07
-7.97302e-08
-8.56765e-08
-2.0209e-08
-7.12483e-08
5.09063e-08
-8.72132e-08
1.45379e-07
-1.41609e-07
2.69538e-07
-2.31084e-07
4.11087e-07
-3.26826e-07
5.27487e-07
-3.69719e-07
5.53245e-07
-2.94092e-07
4.41425e-07
-8.43143e-08
2.26882e-07
1.69134e-07
5.70136e-08
2.77447e-07
1.33734e-07
5.18972e-08
5.85472e-07
0.000110048
0.000105327
0.000100443
9.5518e-05
9.05684e-05
8.56283e-05
8.07366e-05
7.5925e-05
7.12188e-05
6.66385e-05
6.22008e-05
5.79186e-05
5.38015e-05
4.9856e-05
4.60865e-05
4.24951e-05
3.90822e-05
3.58468e-05
3.27864e-05
2.98979e-05
2.71773e-05
2.462e-05
2.22212e-05
1.99756e-05
1.78779e-05
1.5923e-05
1.41053e-05
1.24198e-05
1.08611e-05
9.42381e-06
8.10271e-06
6.89228e-06
5.78697e-06
4.78113e-06
3.86907e-06
3.04509e-06
2.30354e-06
1.63891e-06
1.04583e-06
5.19165e-07
5.40042e-08
-3.54327e-07
-7.10187e-07
-1.01772e-06
-1.28119e-06
-1.50348e-06
-1.68877e-06
-1.84017e-06
-1.96068e-06
-2.05326e-06
-2.12063e-06
-2.16537e-06
-2.18987e-06
-2.1964e-06
-2.18705e-06
-2.16377e-06
-2.1284e-06
-2.08261e-06
-2.02795e-06
-1.96586e-06
-1.89766e-06
-1.82454e-06
-1.7476e-06
-1.66783e-06
-1.58612e-06
-1.50327e-06
-1.42001e-06
-1.33695e-06
-1.25465e-06
-1.17361e-06
-1.09424e-06
-1.0169e-06
-9.4187e-07
-8.69407e-07
-7.99705e-07
-7.3292e-07
-6.69164e-07
-6.08521e-07
-5.51013e-07
-4.96691e-07
-4.45467e-07
-3.97459e-07
-3.52285e-07
-3.10513e-07
-2.7079e-07
-2.35431e-07
-1.99807e-07
-1.72052e-07
-1.3729e-07
-1.21143e-07
-7.95339e-08
-8.54589e-08
-2.00787e-08
-7.10471e-08
5.09734e-08
-8.70111e-08
1.45383e-07
-1.41406e-07
2.69492e-07
-2.30901e-07
4.11028e-07
-3.26701e-07
5.27467e-07
-3.69695e-07
5.53295e-07
-2.94171e-07
4.41537e-07
-8.44431e-08
2.26989e-07
1.69043e-07
5.70838e-08
2.77373e-07
1.34023e-07
5.14885e-08
5.86376e-07
0.000105248
0.000100915
9.63979e-05
9.18263e-05
8.7205e-05
8.25667e-05
7.79522e-05
7.33947e-05
6.89208e-05
6.45526e-05
6.03083e-05
5.62023e-05
5.22455e-05
4.8446e-05
4.48093e-05
4.13386e-05
3.80355e-05
3.48998e-05
3.19302e-05
2.91243e-05
2.64789e-05
2.399e-05
2.16535e-05
1.94645e-05
1.74185e-05
1.55105e-05
1.37355e-05
1.20886e-05
1.05649e-05
9.15932e-06
7.86672e-06
6.68193e-06
5.59961e-06
4.61438e-06
3.72075e-06
2.91325e-06
2.18645e-06
1.53501e-06
9.53731e-07
4.37633e-07
-1.80572e-08
-4.17901e-07
-7.66156e-07
-1.06688e-06
-1.32425e-06
-1.5411e-06
-1.72155e-06
-1.86862e-06
-1.98528e-06
-2.07445e-06
-2.13881e-06
-2.18088e-06
-2.20304e-06
-2.2075e-06
-2.19634e-06
-2.17149e-06
-2.13474e-06
-2.08775e-06
-2.03207e-06
-1.9691e-06
-1.90014e-06
-1.82638e-06
-1.7489e-06
-1.66867e-06
-1.58658e-06
-1.50342e-06
-1.4199e-06
-1.33664e-06
-1.25419e-06
-1.17302e-06
-1.09356e-06
-1.01615e-06
-9.41082e-07
-8.68597e-07
-7.9889e-07
-7.32111e-07
-6.68372e-07
-6.07753e-07
-5.50275e-07
-4.95988e-07
-4.44801e-07
-3.96832e-07
-3.51699e-07
-3.09967e-07
-2.70288e-07
-2.34965e-07
-1.99387e-07
-1.71659e-07
-1.36949e-07
-1.20809e-07
-7.92722e-08
-8.51716e-08
-1.9902e-08
-7.07842e-08
5.10678e-08
-8.67527e-08
1.45398e-07
-1.41154e-07
2.69449e-07
-2.30684e-07
4.1098e-07
-3.26571e-07
5.27477e-07
-3.69701e-07
5.53398e-07
-2.94306e-07
4.41707e-07
-8.46298e-08
2.27137e-07
1.6892e-07
5.7173e-08
2.77276e-07
1.34407e-07
5.09351e-08
5.87588e-07
9.9359e-05
9.55133e-05
9.1453e-05
8.73124e-05
8.30895e-05
7.88174e-05
7.45395e-05
7.02905e-05
6.6099e-05
6.1989e-05
5.79805e-05
5.40896e-05
5.03289e-05
4.6708e-05
4.3234e-05
3.99114e-05
3.67431e-05
3.37301e-05
3.08722e-05
2.8168e-05
2.56151e-05
2.32106e-05
2.09508e-05
1.88319e-05
1.68495e-05
1.49995e-05
1.32771e-05
1.16781e-05
1.01976e-05
8.83111e-06
7.57377e-06
6.4207e-06
5.36687e-06
4.40717e-06
3.5364e-06
2.74936e-06
2.04086e-06
1.40579e-06
8.39186e-07
3.36228e-07
-1.07688e-07
-4.96976e-07
-8.35773e-07
-1.12803e-06
-1.3778e-06
-1.58791e-06
-1.76231e-06
-1.904e-06
-2.01589e-06
-2.10081e-06
-2.16142e-06
-2.20017e-06
-2.2194e-06
-2.2213e-06
-2.20789e-06
-2.18107e-06
-2.14262e-06
-2.09415e-06
-2.03719e-06
-1.97312e-06
-1.90322e-06
-1.82866e-06
-1.7505e-06
-1.66971e-06
-1.58715e-06
-1.5036e-06
-1.41976e-06
-1.33625e-06
-1.25359e-06
-1.17228e-06
-1.0927e-06
-1.01521e-06
-9.40095e-07
-8.67584e-07
-7.97869e-07
-7.311e-07
-6.67382e-07
-6.06792e-07
-5.49353e-07
-4.95109e-07
-4.43969e-07
-3.96049e-07
-3.50968e-07
-3.09286e-07
-2.69661e-07
-2.34383e-07
-1.98862e-07
-1.71168e-07
-1.36524e-07
-1.20393e-07
-7.89466e-08
-8.48125e-08
-1.96818e-08
-7.04549e-08
5.11834e-08
-8.64294e-08
1.45413e-07
-1.40837e-07
2.69392e-07
-2.3041e-07
4.10913e-07
-3.26402e-07
5.27483e-07
-3.697e-07
5.5352e-07
-2.94468e-07
4.41914e-07
-8.48587e-08
2.2732e-07
1.68764e-07
5.72906e-08
2.77142e-07
1.34896e-07
5.0238e-08
5.8909e-07
9.24631e-05
8.91972e-05
8.56828e-05
8.20402e-05
7.82764e-05
7.44278e-05
7.05392e-05
6.66476e-05
6.27839e-05
5.8974e-05
5.52401e-05
5.16001e-05
4.80685e-05
4.46567e-05
4.13733e-05
3.82245e-05
3.52146e-05
3.2346e-05
2.96196e-05
2.70352e-05
2.45916e-05
2.22866e-05
2.01175e-05
1.80812e-05
1.61741e-05
1.43925e-05
1.27325e-05
1.119e-05
9.76076e-06
8.44059e-06
7.22505e-06
6.10961e-06
5.08959e-06
4.16021e-06
3.31662e-06
2.55392e-06
1.86721e-06
1.25166e-06
7.02532e-07
2.1524e-07
-2.14633e-07
-5.91332e-07
-9.18847e-07
-1.20101e-06
-1.44172e-06
-1.64376e-06
-1.81096e-06
-1.94623e-06
-2.05241e-06
-2.13227e-06
-2.18839e-06
-2.22319e-06
-2.23893e-06
-2.23776e-06
-2.22167e-06
-2.19251e-06
-2.15201e-06
-2.10178e-06
-2.04329e-06
-1.97791e-06
-1.90689e-06
-1.83137e-06
-1.75241e-06
-1.67093e-06
-1.58781e-06
-1.5038e-06
-1.41958e-06
-1.33577e-06
-1.25288e-06
-1.17138e-06
-1.09167e-06
-1.01409e-06
-9.3891e-07
-8.66367e-07
-7.96644e-07
-7.29885e-07
-6.66192e-07
-6.0564e-07
-5.48246e-07
-4.94055e-07
-4.42972e-07
-3.95111e-07
-3.50091e-07
-3.08469e-07
-2.6891e-07
-2.33686e-07
-1.98236e-07
-1.70578e-07
-1.3602e-07
-1.19886e-07
-7.85708e-08
-8.43608e-08
-1.94504e-08
-7.00118e-08
5.12514e-08
-8.59451e-08
1.45298e-07
-1.40286e-07
2.69102e-07
-2.29814e-07
4.1052e-07
-3.2585e-07
5.27115e-07
-3.69322e-07
5.53311e-07
-2.94355e-07
4.41924e-07
-8.49841e-08
2.27481e-07
1.68551e-07
5.75109e-08
2.76886e-07
1.35534e-07
4.94488e-08
5.90736e-07
8.44235e-05
8.18661e-05
7.90075e-05
7.59357e-05
7.26943e-05
6.93289e-05
6.58857e-05
6.24039e-05
5.89167e-05
5.54526e-05
5.20356e-05
4.86859e-05
4.54199e-05
4.22509e-05
3.91893e-05
3.62431e-05
3.34179e-05
3.07179e-05
2.81453e-05
2.57013e-05
2.33856e-05
2.11972e-05
1.91346e-05
1.71953e-05
1.53767e-05
1.36756e-05
1.20889e-05
1.06128e-05
9.24394e-06
7.97834e-06
6.81207e-06
5.74101e-06
4.76091e-06
3.86737e-06
3.05592e-06
2.32202e-06
1.66112e-06
1.0687e-06
5.40302e-07
7.15928e-08
-3.41616e-07
-7.03376e-07
-1.0175e-06
-1.28767e-06
-1.51764e-06
-1.7101e-06
-1.86875e-06
-1.9964e-06
-2.0958e-06
-2.16964e-06
-2.22044e-06
-2.25053e-06
-2.26213e-06
-2.25732e-06
-2.23803e-06
-2.20609e-06
-2.16317e-06
-2.11083e-06
-2.05053e-06
-1.98358e-06
-1.91123e-06
-1.83458e-06
-1.75466e-06
-1.67238e-06
-1.58859e-06
-1.50403e-06
-1.41936e-06
-1.33519e-06
-1.25202e-06
-1.17031e-06
-1.09044e-06
-1.01274e-06
-9.37494e-07
-8.64913e-07
-7.9518e-07
-7.28435e-07
-6.64772e-07
-6.04264e-07
-5.46926e-07
-4.92796e-07
-4.41781e-07
-3.93991e-07
-3.49047e-07
-3.07495e-07
-2.68016e-07
-2.32853e-07
-1.97492e-07
-1.69868e-07
-1.35429e-07
-1.19268e-07
-7.81473e-08
-8.37845e-08
-1.9232e-08
-6.93981e-08
5.12084e-08
-8.51959e-08
1.44925e-07
-1.39322e-07
2.68366e-07
-2.28629e-07
4.09493e-07
-3.24568e-07
5.2601e-07
-3.68203e-07
5.52432e-07
-2.93679e-07
4.41525e-07
-8.48822e-08
2.27585e-07
1.68235e-07
5.79313e-08
2.76398e-07
1.36395e-07
4.85805e-08
5.92463e-07
7.54617e-05
7.36458e-05
7.14752e-05
6.90295e-05
6.63667e-05
6.35383e-05
6.05917e-05
5.75682e-05
5.45035e-05
5.14282e-05
4.83687e-05
4.53471e-05
4.2382e-05
3.94886e-05
3.66792e-05
3.39637e-05
3.13495e-05
2.88421e-05
2.64456e-05
2.41622e-05
2.19932e-05
1.99389e-05
1.79985e-05
1.61708e-05
1.44539e-05
1.28455e-05
1.1343e-05
9.94368e-06
8.64432e-06
7.44168e-06
6.3323e-06
5.31255e-06
4.37863e-06
3.52661e-06
2.75243e-06
2.05197e-06
1.42106e-06
8.55532e-07
3.51256e-07
-9.58145e-08
-4.89613e-07
-8.33965e-07
-1.13249e-06
-1.38868e-06
-1.60615e-06
-1.78743e-06
-1.93609e-06
-2.05485e-06
-2.14635e-06
-2.21318e-06
-2.25777e-06
-2.28237e-06
-2.28914e-06
-2.28008e-06
-2.25708e-06
-2.22189e-06
-2.17614e-06
-2.12135e-06
-2.05893e-06
-1.99017e-06
-1.91626e-06
-1.83829e-06
-1.75724e-06
-1.67403e-06
-1.58946e-06
-1.50426e-06
-1.41907e-06
-1.33448e-06
-1.25099e-06
-1.16903e-06
-1.08897e-06
-1.01115e-06
-9.35817e-07
-8.63195e-07
-7.93452e-07
-7.26723e-07
-6.63097e-07
-6.02641e-07
-5.45369e-07
-4.91313e-07
-4.4038e-07
-3.92673e-07
-3.47817e-07
-3.0635e-07
-2.66963e-07
-2.31876e-07
-1.96613e-07
-1.69043e-07
-1.34719e-07
-1.18567e-07
-7.76111e-08
-8.31666e-08
-1.88858e-08
-6.88065e-08
5.13416e-08
-8.45692e-08
1.44823e-07
-1.38625e-07
2.68045e-07
-2.27892e-07
4.09043e-07
-3.23902e-07
5.25599e-07
-3.67776e-07
5.52236e-07
-2.93612e-07
4.41626e-07
-8.51493e-08
2.27909e-07
1.67813e-07
5.83876e-08
2.75855e-07
1.37478e-07
4.72741e-08
5.95011e-07
6.58808e-05
6.48093e-05
6.33415e-05
6.15512e-05
5.94995e-05
5.72404e-05
5.48226e-05
5.22891e-05
4.96775e-05
4.70206e-05
4.43468e-05
4.16802e-05
3.90413e-05
3.64475e-05
3.39129e-05
3.14491e-05
2.90655e-05
2.67691e-05
2.45656e-05
2.24587e-05
2.0451e-05
1.85441e-05
1.67384e-05
1.50337e-05
1.34289e-05
1.19229e-05
1.05136e-05
9.19897e-06
7.97653e-06
6.8436e-06
5.79726e-06
4.83443e-06
3.9518e-06
3.14593e-06
2.41324e-06
1.75004e-06
1.15258e-06
6.17077e-07
1.39749e-07
-2.83135e-07
-6.5523e-07
-9.80111e-07
-1.26118e-06
-1.50173e-06
-1.70521e-06
-1.87397e-06
-2.01146e-06
-2.12027e-06
-2.20292e-06
-2.26191e-06
-2.29954e-06
-2.318e-06
-2.31936e-06
-2.30555e-06
-2.27838e-06
-2.23954e-06
-2.19063e-06
-2.13309e-06
-2.0683e-06
-1.9975e-06
-1.92185e-06
-1.8424e-06
-1.7601e-06
-1.67584e-06
-1.5904e-06
-1.50448e-06
-1.41872e-06
-1.33366e-06
-1.2498e-06
-1.16756e-06
-1.0873e-06
-1.00934e-06
-9.33914e-07
-8.61246e-07
-7.91493e-07
-7.24783e-07
-6.612e-07
-6.00805e-07
-5.43607e-07
-4.89636e-07
-4.38794e-07
-3.91183e-07
-3.46426e-07
-3.05056e-07
-2.65771e-07
-2.30774e-07
-1.95616e-07
-1.68116e-07
-1.3391e-07
-1.17787e-07
-7.6986e-08
-8.24988e-08
-1.84504e-08
-6.82024e-08
5.15808e-08
-8.39831e-08
1.44867e-07
-1.38043e-07
2.67931e-07
-2.27357e-07
4.08875e-07
-3.23525e-07
5.25528e-07
-3.67687e-07
5.52387e-07
-2.93865e-07
4.42009e-07
-8.56514e-08
2.28408e-07
1.6725e-07
5.89671e-08
2.75161e-07
1.38823e-07
4.55881e-08
5.98224e-07
5.57721e-05
5.54542e-05
5.47036e-05
5.3589e-05
5.21711e-05
5.05048e-05
4.86399e-05
4.66207e-05
4.44865e-05
4.22719e-05
4.00068e-05
3.77176e-05
3.54265e-05
3.31527e-05
3.09123e-05
2.87186e-05
2.65828e-05
2.45137e-05
2.25183e-05
2.06021e-05
1.87689e-05
1.70216e-05
1.53619e-05
1.37906e-05
1.23077e-05
1.09128e-05
9.60485e-06
8.38243e-06
7.24379e-06
6.18686e-06
5.20934e-06
4.30869e-06
3.48217e-06
2.72686e-06
2.03966e-06
1.41736e-06
8.56666e-07
3.54185e-07
-9.34799e-08
-4.89725e-07
-8.37905e-07
-1.14132e-06
-1.40314e-06
-1.62644e-06
-1.81449e-06
-1.96945e-06
-2.09461e-06
-2.19245e-06
-2.26534e-06
-2.31566e-06
-2.34562e-06
-2.3573e-06
-2.35268e-06
-2.33362e-06
-2.30185e-06
-2.259e-06
-2.20658e-06
-2.14602e-06
-2.07861e-06
-2.00556e-06
-1.92798e-06
-1.84689e-06
-1.76322e-06
-1.6778e-06
-1.5914e-06
-1.50469e-06
-1.41828e-06
-1.33271e-06
-1.24845e-06
-1.1659e-06
-1.08542e-06
-1.0073e-06
-9.31781e-07
-8.59064e-07
-7.89303e-07
-7.22616e-07
-6.59082e-07
-5.98755e-07
-5.41641e-07
-4.87765e-07
-4.37026e-07
-3.89521e-07
-3.44876e-07
-3.03615e-07
-2.64444e-07
-2.29546e-07
-1.94505e-07
-1.67085e-07
-1.33006e-07
-1.16922e-07
-7.62861e-08
-8.17598e-08
-1.79589e-08
-6.7537e-08
5.18557e-08
-8.33394e-08
1.44923e-07
-1.374e-07
2.67804e-07
-2.26755e-07
4.08673e-07
-3.23082e-07
5.2542e-07
-3.67556e-07
5.52525e-07
-2.94128e-07
4.42434e-07
-8.62389e-08
2.29025e-07
1.66521e-07
5.97476e-08
2.74225e-07
1.40478e-07
4.35738e-08
6.01955e-07
4.52338e-05
4.56792e-05
4.56556e-05
4.52287e-05
4.44586e-05
4.34008e-05
4.21056e-05
4.06184e-05
3.89797e-05
3.72255e-05
3.53874e-05
3.34934e-05
3.15675e-05
2.96307e-05
2.77007e-05
2.57928e-05
2.39197e-05
2.20919e-05
2.03179e-05
1.86048e-05
1.69578e-05
1.5381e-05
1.38773e-05
1.24488e-05
1.10965e-05
9.8208e-06
8.62161e-06
7.49826e-06
6.44971e-06
5.4746e-06
4.57123e-06
3.73768e-06
2.97177e-06
2.27113e-06
1.63319e-06
1.05525e-06
5.34453e-07
6.78515e-08
-3.47562e-07
-7.14826e-07
-1.03697e-06
-1.31702e-06
-1.55787e-06
-1.76238e-06
-1.93361e-06
-2.07352e-06
-2.18526e-06
-2.27113e-06
-2.33338e-06
-2.37425e-06
-2.39584e-06
-2.40012e-06
-2.38899e-06
-2.3642e-06
-2.3274e-06
-2.28017e-06
-2.22394e-06
-2.16006e-06
-2.08979e-06
-2.01429e-06
-1.93462e-06
-1.85174e-06
-1.76656e-06
-1.67988e-06
-1.59243e-06
-1.50486e-06
-1.41775e-06
-1.33163e-06
-1.24693e-06
-1.16405e-06
-1.08333e-06
-1.00504e-06
-9.29416e-07
-8.56648e-07
-7.86878e-07
-7.20219e-07
-6.56739e-07
-5.9649e-07
-5.39469e-07
-4.85699e-07
-4.35074e-07
-3.87688e-07
-3.43166e-07