/*--------------------------------*- C++ -*----------------------------------*\
| =========                 |                                                 |
| \\      /  F ield         | OpenFOAM: The Open Source CFD Toolbox           |
|  \\    /   O peration     | Version:  2412                                  |
|   \\  /    A nd           | Website:  www.openfoam.com                      |
|    \\/     M anipulation  |                                                 |
\*---------------------------------------------------------------------------*/
FoamFile
{
    version     2.0;
    format      ascii;
    arch        "LSB;label=32;scalar=64";
    class       surfaceScalarField;
    location    "19";
    object      phi;
}
// * * * * * * * * * * * * * * * * * * * * * * * * * * * * * * * * * * * * * //

dimensions      [0 3 -1 0 0 0 0];

oriented        oriented;

internalField   nonuniform List<scalar> 
126304
(
0.00505063
1.28584e-07
-3.12727e-12
0.00505025
3.75632e-07
4.78519e-12
0.00504964
6.09469e-07
2.40875e-11
0.00504881
8.29031e-07
5.76533e-11
0.00504778
1.03754e-06
1.01014e-10
0.00504652
1.25217e-06
1.28394e-10
0.00504502
1.50641e-06
8.74559e-11
0.00504318
1.83799e-06
-8.16955e-11
0.00504091
2.26791e-06
-4.10098e-10
0.00503813
2.78441e-06
-8.70091e-10
0.00503479
3.34213e-06
-1.37198e-09
0.00503091
3.87656e-06
-1.79004e-09
0.00502659
4.32538e-06
-2.00413e-09
0.00502195
4.64651e-06
-1.93662e-09
0.00501712
4.82645e-06
-1.57066e-09
0.00501224
4.87838e-06
-9.47023e-10
0.00500741
4.83342e-06
-1.45389e-10
0.00500268
4.72982e-06
7.39728e-10
0.00499807
4.60381e-06
1.62015e-09
0.00499359
4.48394e-06
2.42772e-09
0.0049892
4.389e-06
3.11964e-09
0.00498486
4.32854e-06
3.67733e-09
0.00498055
4.30501e-06
4.10111e-09
0.00497623
4.31615e-06
4.40341e-09
0.00497187
4.35721e-06
4.60325e-09
0.00496744
4.42267e-06
4.72139e-09
0.00496293
4.50723e-06
4.77768e-09
0.00495832
4.6064e-06
4.78882e-09
0.0049536
4.71666e-06
4.76801e-09
0.00494876
4.83545e-06
4.72496e-09
0.00494379
4.961e-06
4.66669e-09
0.0049387
5.09216e-06
4.59802e-09
0.00493346
5.22825e-06
4.52214e-09
0.00492809
5.36888e-06
4.44095e-09
0.00492257
5.51388e-06
4.35543e-09
0.00491691
5.66319e-06
4.26623e-09
0.00491108
5.81681e-06
4.17376e-09
0.00490511
5.9748e-06
4.07825e-09
0.00489896
6.13721e-06
3.97972e-09
0.00489266
6.3041e-06
3.87817e-09
0.00488618
6.47553e-06
3.77373e-09
0.00487952
6.65156e-06
3.66648e-09
0.00487269
6.83223e-06
3.55648e-09
0.00486566
7.01758e-06
3.44384e-09
0.00485845
7.20766e-06
3.32871e-09
0.00485105
7.40251e-06
3.21133e-09
0.00484344
7.60217e-06
3.09196e-09
0.00483563
7.80669e-06
2.97083e-09
0.00482761
8.01614e-06
2.84815e-09
0.00481938
8.2306e-06
2.72408e-09
0.00481093
8.45021e-06
2.59889e-09
0.00480225
8.67528e-06
2.47279e-09
0.00479334
8.90662e-06
2.34591e-09
0.00478419
9.14652e-06
2.21833e-09
9.40165e-06
0.00477479
2.09001e-09
0.00505063
2.5708e-07
0.00505025
7.50993e-07
0.00504964
1.21853e-06
0.00504882
1.65756e-06
0.00504778
2.0745e-06
0.00504653
2.50346e-06
0.00504502
3.01107e-06
0.00504319
3.67248e-06
0.00504093
4.5297e-06
0.00503815
5.55961e-06
0.00503482
6.67216e-06
0.00503096
7.73906e-06
0.00502665
8.63616e-06
0.00502202
9.27943e-06
0.0050172
9.64167e-06
0.00501233
9.74877e-06
0.0050075
9.6624e-06
0.00500277
9.45857e-06
0.00499817
9.2094e-06
0.00499368
8.9718e-06
0.00498928
8.78326e-06
0.00498495
8.66301e-06
0.00498064
8.61603e-06
0.00497632
8.63795e-06
0.00497195
8.71945e-06
0.00496753
8.84956e-06
0.00496302
9.0178e-06
0.00495841
9.21523e-06
0.00495369
9.43487e-06
0.00494885
9.67159e-06
0.00494389
9.92186e-06
0.0049388
1.01834e-05
0.00493358
1.04548e-05
0.00492821
1.07354e-05
0.0049227
1.10246e-05
0.00491704
1.13225e-05
0.00491123
1.16291e-05
0.00490526
1.19443e-05
0.00489913
1.22684e-05
0.00489283
1.26014e-05
0.00488636
1.29434e-05
0.00487972
1.32946e-05
0.00487289
1.36551e-05
0.00486589
1.40248e-05
0.00485869
1.4404e-05
0.0048513
1.47927e-05
0.00484371
1.51909e-05
0.00483592
1.55988e-05
0.00482792
1.60164e-05
0.00481971
1.6444e-05
0.00481127
1.68818e-05
0.00480262
1.73304e-05
0.00479373
1.77913e-05
0.00478461
1.8269e-05
1.87759e-05
0.00477524
0.00505063
3.85405e-07
0.00505025
1.1258e-06
0.00504965
1.82673e-06
0.00504882
2.48499e-06
0.00504778
3.11011e-06
0.00504653
3.75275e-06
0.00504503
4.51209e-06
0.0050432
5.50024e-06
0.00504095
6.78026e-06
0.0050382
8.31839e-06
0.00503489
9.98109e-06
0.00503105
1.15774e-05
0.00502676
1.29221e-05
0.00502215
1.38894e-05
0.00501736
1.44378e-05
0.0050125
1.46052e-05
0.00500768
1.44828e-05
0.00500295
1.41837e-05
0.00499835
1.38152e-05
0.00499386
1.34624e-05
0.00498946
1.31816e-05
0.00498512
1.30017e-05
0.00498081
1.29306e-05
0.00497648
1.29621e-05
0.00497212
1.30824e-05
0.00496769
1.32753e-05
0.00496319
1.35254e-05
0.00495858
1.38193e-05
0.00495387
1.41466e-05
0.00494904
1.44996e-05
0.00494409
1.48731e-05
0.00493901
1.52636e-05
0.0049338
1.5669e-05
0.00492844
1.60881e-05
0.00492295
1.65204e-05
0.0049173
1.69657e-05
0.00491151
1.74239e-05
0.00490556
1.78951e-05
0.00489945
1.83795e-05
0.00489317
1.88773e-05
0.00488673
1.93885e-05
0.00488011
1.99134e-05
0.00487331
2.04521e-05
0.00486633
2.10047e-05
0.00485916
2.15712e-05
0.0048518
2.21518e-05
0.00484425
2.27467e-05
0.00483649
2.33558e-05
0.00482853
2.39794e-05
0.00482036
2.46178e-05
0.00481197
2.52712e-05
0.00480336
2.59405e-05
0.00479452
2.66278e-05
0.00478545
2.73392e-05
2.80925e-05
0.00477613
0.00505063
5.13476e-07
0.00505026
1.49979e-06
0.00504965
2.43363e-06
0.00504882
3.31074e-06
0.00504779
4.14366e-06
0.00504654
4.99904e-06
0.00504505
6.00774e-06
0.00504323
7.31813e-06
0.00504099
9.01441e-06
0.00503826
1.10532e-05
0.00503498
1.32593e-05
0.00503118
1.53805e-05
0.00502693
1.71719e-05
0.00502235
1.84658e-05
0.00501758
1.9206e-05
0.00501275
1.94411e-05
0.00500794
1.92905e-05
0.00500322
1.8903e-05
0.00499862
1.84208e-05
0.00499412
1.79566e-05
0.00498972
1.75854e-05
0.00498537
1.73463e-05
0.00498105
1.72501e-05
0.00497673
1.72892e-05
0.00497236
1.74459e-05
0.00496794
1.76991e-05
0.00496344
1.80282e-05
0.00495884
1.84159e-05
0.00495414
1.88483e-05
0.00494932
1.93153e-05
0.00494439
1.98098e-05
0.00493932
2.03271e-05
0.00493413
2.08646e-05
0.00492879
2.14204e-05
0.00492332
2.19938e-05
0.0049177
2.25846e-05
0.00491193
2.31925e-05
0.00490601
2.38179e-05
0.00489993
2.44607e-05
0.00489369
2.51212e-05
0.00488727
2.57996e-05
0.00488069
2.6496e-05
0.00487393
2.72106e-05
0.00486699
2.79435e-05
0.00485987
2.86948e-05
0.00485256
2.94647e-05
0.00484505
3.02532e-05
0.00483735
3.10606e-05
0.00482944
3.18869e-05
0.00482132
3.27324e-05
0.004813
3.35976e-05
0.00480446
3.44834e-05
0.00479569
3.53922e-05
0.0047867
3.63313e-05
3.73214e-05
0.00477747
0.00505063
6.41211e-07
0.00505026
1.87267e-06
0.00504965
3.03881e-06
0.00504883
4.13427e-06
0.0050478
5.17447e-06
0.00504655
6.24138e-06
0.00504507
7.49638e-06
0.00504326
9.12327e-06
0.00504105
1.12275e-05
0.00503834
1.37574e-05
0.0050351
1.6498e-05
0.00503135
1.91385e-05
0.00502714
2.13751e-05
0.00502261
2.2999e-05
0.00501788
2.39381e-05
0.00501307
2.42501e-05
0.00500828
2.40812e-05
0.00500357
2.36145e-05
0.00499896
2.30257e-05
0.00499446
2.24548e-05
0.00499005
2.19957e-05
0.0049857
2.16976e-05
0.00498138
2.15751e-05
0.00497705
2.16195e-05
0.00497268
2.18096e-05
0.00496826
2.21195e-05
0.00496377
2.25243e-05
0.00495918
2.30023e-05
0.00495449
2.35365e-05
0.00494969
2.41144e-05
0.00494478
2.47269e-05
0.00493974
2.53684e-05
0.00493456
2.60353e-05
0.00492926
2.67253e-05
0.00492382
2.74374e-05
0.00491823
2.81712e-05
0.0049125
2.89265e-05
0.00490661
2.97034e-05
0.00490057
3.05021e-05
0.00489437
3.13227e-05
0.004888
3.21654e-05
0.00488147
3.30305e-05
0.00487476
3.39179e-05
0.00486787
3.4828e-05
0.00486081
3.57607e-05
0.00485356
3.67162e-05
0.00484612
3.76947e-05
0.00483848
3.86961e-05
0.00483065
3.97208e-05
0.00482261
4.07689e-05
0.00481437
4.18408e-05
0.00480591
4.29375e-05
0.00479724
4.40616e-05
0.00478835
4.52203e-05
4.64352e-05
0.00477924
0.00505063
7.68536e-07
0.00505026
2.24417e-06
0.00504966
3.64185e-06
0.00504883
4.95501e-06
0.00504781
6.20185e-06
0.00504657
7.47881e-06
0.00504509
8.97651e-06
0.0050433
1.09131e-05
0.00504111
1.34155e-05
0.00503844
1.64251e-05
0.00503525
1.96898e-05
0.00503155
2.28427e-05
0.0050274
2.55229e-05
0.00502292
2.74804e-05
0.00501823
2.86267e-05
0.00501345
2.90266e-05
0.00500868
2.88509e-05
0.00500398
2.83156e-05
0.00499938
2.76285e-05
0.00499488
2.69567e-05
0.00499046
2.64124e-05
0.0049861
2.60558e-05
0.00498177
2.59055e-05
0.00497744
2.59524e-05
0.00497308
2.61721e-05
0.00496866
2.65348e-05
0.00496418
2.7011e-05
0.0049596
2.75753e-05
0.00495493
2.82074e-05
0.00495015
2.88924e-05
0.00494526
2.96195e-05
0.00494025
3.03818e-05
0.00493511
3.11749e-05
0.00492984
3.1996e-05
0.00492443
3.28438e-05
0.00491888
3.37177e-05
0.00491319
3.46173e-05
0.00490735
3.55428e-05
0.00490136
3.64941e-05
0.00489521
3.74715e-05
0.0048889
3.84752e-05
0.00488243
3.95053e-05
0.00487578
4.05619e-05
0.00486897
4.16451e-05
0.00486197
4.2755e-05
0.0048548
4.38918e-05
0.00484744
4.50554e-05
0.00483989
4.6246e-05
0.00483214
4.74637e-05
0.0048242
4.87087e-05
0.00481606
4.99813e-05
0.00480772
5.12822e-05
0.00479917
5.26138e-05
0.0047904
5.39824e-05
5.54074e-05
0.00478143
0.00505063
8.95328e-07
0.00505026
2.61406e-06
0.00504966
4.24231e-06
0.00504884
5.77239e-06
0.00504782
7.2251e-06
0.00504659
8.71041e-06
0.00504512
1.04468e-05
0.00504335
1.26855e-05
0.00504119
1.5575e-05
0.00503856
1.90517e-05
0.00503542
2.28289e-05
0.00503178
2.64862e-05
0.00502769
2.96079e-05
0.00502327
3.19032e-05
0.00501863
3.32655e-05
0.00501389
3.37654e-05
0.00500915
3.35959e-05
0.00500446
3.30036e-05
0.00499986
3.22276e-05
0.00499535
3.1461e-05
0.00499093
3.08348e-05
0.00498657
3.04201e-05
0.00498223
3.02404e-05
0.0049779
3.02866e-05
0.00497354
3.05319e-05
0.00496913
3.09427e-05
0.00496466
3.14855e-05
0.0049601
3.21314e-05
0.00495545
3.28569e-05
0.0049507
3.36446e-05
0.00494584
3.44823e-05
0.00494086
3.53616e-05
0.00493575
3.62771e-05
0.00493052
3.72258e-05
0.00492516
3.82058e-05
0.00491966
3.92162e-05
0.00491402
4.02566e-05
0.00490824
4.13269e-05
0.00490231
4.24272e-05
0.00489622
4.35576e-05
0.00488998
4.47182e-05
0.00488357
4.5909e-05
0.00487701
4.71303e-05
0.00487027
4.8382e-05
0.00486336
4.96643e-05
0.00485627
5.0977e-05
0.00484901
5.23204e-05
0.00484156
5.36943e-05
0.00483393
5.50989e-05
0.0048261
5.65341e-05
0.00481808
5.80003e-05
0.00480987
5.94978e-05
0.00480145
6.10282e-05
0.00479284
6.25953e-05
0.00478404
6.42102e-05
0.00477538
-5.95592e-07
1.97483e-09
0.00477545
-7.19443e-08
1.90397e-09
0.00477497
4.82379e-07
1.78246e-09
0.00477389
1.07577e-06
1.67729e-09
0.00477218
1.70977e-06
1.56833e-09
0.00476979
2.38783e-06
1.45249e-09
0.00476668
3.11389e-06
1.33004e-09
0.00476278
3.89237e-06
1.20093e-09
0.00475805
4.72817e-06
1.06501e-09
0.00475242
5.62678e-06
9.21949e-10
0.00474583
6.59429e-06
7.71876e-10
0.00473819
7.63751e-06
6.14725e-10
0.00472943
8.76405e-06
4.50388e-10
0.00471944
9.9824e-06
2.79233e-10
0.00470814
1.13021e-05
1.00737e-10
0.00469541
1.27338e-05
-8.69623e-11
0.00468112
1.42897e-05
-2.86603e-10
0.00466514
1.59836e-05
-4.93642e-10
0.00464731
1.78314e-05
-6.98341e-10
0.00462746
1.98508e-05
-9.01539e-10
0.00460539
2.20627e-05
-1.10453e-09
0.0045809
2.44908e-05
-1.30523e-09
0.00455374
2.71634e-05
-1.50277e-09
0.00452363
3.0113e-05
-1.69456e-09
0.00449025
3.33784e-05
-1.87908e-09
0.00445325
3.70052e-05
-2.055e-09
0.00441221
4.10479e-05
-2.22061e-09
0.00436664
4.55714e-05
-2.37535e-09
0.00431599
5.0654e-05
-2.51873e-09
0.0042596
5.63898e-05
-2.65077e-09
0.00419671
6.28931e-05
-2.77254e-09
0.00412641
7.03031e-05
-2.88511e-09
0.00404762
7.87897e-05
-2.98949e-09
0.00395906
8.85608e-05
-3.08744e-09
0.0038592
9.98708e-05
-3.18095e-09
0.00374617
0.000113028
-3.2715e-09
0.00361777
0.000128403
-3.36034e-09
0.00347135
0.000146426
-3.44885e-09
0.00330378
0.000167571
-3.53828e-09
0.00311147
0.000192318
-3.62941e-09
0.00289042
0.000221053
-3.72315e-09
0.00263653
0.000253894
-3.82064e-09
0.00234614
0.00029039
-3.92205e-09
0.00201711
0.000329036
-4.02387e-09
0.00165056
0.000366551
-4.11338e-09
0.00125372
0.000396844
-4.15773e-09
0.000844018
0.000409709
-4.08494e-09
0.000454849
0.000389172
-3.76129e-09
0.000143904
0.000310948
-2.97035e-09
0.000143906
-1.40373e-09
0.00477446
1.80392e-07
0.00477317
1.22067e-06
0.00477132
2.33052e-06
0.00476888
3.51511e-06
0.00476581
4.78074e-06
0.00476206
6.13442e-06
0.00475759
7.58408e-06
0.00475235
9.13855e-06
0.00474627
1.08077e-05
0.00473929
1.26025e-05
0.00473135
1.45351e-05
0.00472237
1.66193e-05
0.00471226
1.88701e-05
0.00470094
2.13048e-05
0.0046883
2.39422e-05
0.00467423
2.68039e-05
0.00465861
2.99142e-05
0.00464129
3.33009e-05
0.00462213
3.69956e-05
0.00460094
4.10341e-05
0.00457755
4.54579e-05
0.00455172
5.0315e-05
0.00452322
5.56616e-05
0.00449177
6.15633e-05
0.00445706
6.80974e-05
0.00441871
7.53554e-05
0.00437631
8.34463e-05
0.00432938
9.25e-05
0.00427736
0.000102673
0.0042196
0.000114152
0.00415532
0.000127167
0.00408363
0.000141993
0.00400345
0.000158969
0.00391351
0.000178506
0.00381227
0.000201109
0.00369791
0.000227385
0.00356825
0.000258064
0.00342069
0.000293986
0.00325219
0.000336078
0.00305924
0.000385262
0.00283803
0.000442264
0.00258466
0.000507264
0.00229576
0.000579293
0.00196951
0.000655288
0.00160739
0.000728669
0.00121691
0.000787321
0.000815639
0.000810979
0.000436639
0.000768173
0.000135509
0.000612077
0.000279415
0.00477264
3.67117e-06
0.00476863
5.22804e-06
0.00476408
6.88782e-06
0.00475893
8.65923e-06
0.00475316
1.05518e-05
0.00474672
1.25763e-05
0.00473956
1.47446e-05
0.00473163
1.70701e-05
0.00472287
1.95677e-05
0.00471322
2.22538e-05
0.0047026
2.51468e-05
0.00469096
2.82673e-05
0.00467819
3.16381e-05
0.00466421
3.52848e-05
0.00464891
3.92361e-05
0.00463219
4.35242e-05
0.00461392
4.81858e-05
0.00459396
5.32627e-05
0.00457215
5.88024e-05
0.00454833
6.48589e-05
0.00452229
7.14945e-05
0.00449383
7.87817e-05
0.00446268
8.68047e-05
0.00442858
9.56624e-05
0.00439121
0.000105471
0.0043502
0.000116368
0.00430513
0.000128517
0.00425551
0.000142113
0.0042008
0.000157389
0.00414032
0.000174627
0.00407332
0.000194167
0.0039989
0.000216419
0.00391598
0.000241886
0.00382331
0.000271178
0.00371938
0.000305034
0.00360242
0.000344349
0.0034703
0.000390181
0.00332054
0.000443748
0.00315024
0.000506373
0.00295616
0.000579349
0.00273478
0.000663646
0.00248265
0.000759388
0.00219698
0.000864967
0.00187661
0.000975661
0.00152368
0.00108159
0.00114619
0.00116482
0.000761711
0.00119545
0.000402848
0.00112704
0.000122622
0.000892304
0.000402037
0.00476995
1.11947e-05
0.00476191
1.3261e-05
0.00475334
1.54635e-05
0.00474418
1.78141e-05
0.00473441
2.03258e-05
0.00472397
2.30131e-05
0.00471282
2.58921e-05
0.00470091
2.89806e-05
0.00468818
3.22986e-05
0.00467457
3.58681e-05
0.00466
3.97137e-05
0.00464441
4.38628e-05
0.0046277
4.8346e-05
0.00460979
5.31975e-05
0.00459057
5.84556e-05
0.00456993
6.41636e-05
0.00454774
7.03704e-05
0.00452387
7.71321e-05
0.00449816
8.45122e-05
0.00447044
9.2583e-05
0.00444051
0.000101428
0.00440814
0.000111144
0.0043731
0.000121845
0.0043351
0.000133661
0.00429383
0.00014675
0.0042489
0.000161294
0.0041999
0.000177512
0.00414636
0.000195663
0.00408769
0.000216058
0.00402324
0.00023907
0.00395226
0.000265148
0.00387385
0.000294836
0.00378694
0.00032879
0.00369031
0.000367808
0.00358249
0.000412851
0.00346177
0.000465069
0.00332614
0.000525814
0.00317327
0.000596619
0.00300052
0.000679123
0.002805
0.000774873
0.00258371
0.000884934
0.0023339
0.00100919
0.00205364
0.00114523
0.00174278
0.00128652
0.00140443
0.00141995
0.00104706
0.00152218
0.000687834
0.00155468
0.000357485
0.00145738
0.000104331
0.00114546
0.000506368
0.00476642
2.40133e-05
0.0047531
2.6578e-05
0.00473926
2.9312e-05
0.00472484
3.22303e-05
0.00470982
3.53495e-05
0.00469414
3.8688e-05
0.00467777
4.2266e-05
0.00466064
4.61059e-05
0.00464271
5.02327e-05
0.0046239
5.4674e-05
0.00460416
5.94605e-05
0.00458339
6.46268e-05
0.00456153
7.02109e-05
0.00453847
7.6256e-05
0.00451411
8.28099e-05
0.00448835
8.9927e-05
0.00446105
9.76687e-05
0.00443208
0.000106105
0.00440127
0.000115317
0.00436846
0.000125394
0.00433345
0.000136442
0.00429601
0.000148582
0.0042559
0.000161957
0.00421283
0.000176732
0.00416648
0.000193101
0.00411647
0.000211297
0.0040624
0.00023159
0.00400375
0.000254306
0.00393998
0.000279831
0.00387042
0.000308629
0.00379431
0.000341255
0.00371077
0.000378378
0.00361876
0.000420801
0.00351707
0.000469494
0.00340431
0.000525612
0.00327885
0.000590527
0.00313884
0.000665824
0.00298219
0.000753271
0.00280662
0.000854701
0.00260974
0.00097175
0.00238931
0.00110537
0.00214355
0.00125495
0.00187176
0.00141701
0.0015752
0.00158309
0.00125819
0.00173695
0.000929753
0.00185062
0.00060571
0.00187873
0.000311929
0.00175117
8.63233e-05
0.00137106
0.000592691
0.00476213
4.33196e-05
0.00474234
4.63655e-05
0.00472204
4.96144e-05
0.00470118
5.30842e-05
0.00467974
5.67951e-05
0.00465766
6.0769e-05
0.00463489
6.50304e-05
0.00461139
6.96062e-05
0.0045871
7.45261e-05
0.00456195
7.98235e-05
0.00453587
8.55353e-05
0.0045088
9.17027e-05
0.00448064
9.8372e-05
0.0044513
0.000105595
0.00442068
0.000113429
0.00438867
0.000121939
0.00435514
0.000131201
0.00431994
0.000141298
0.00428293
0.000152327
0.00424393
0.000164397
0.00420274
0.000177636
0.00415913
0.000192191
0.00411285
0.000208231
0.00406363
0.000225959
0.00401112
0.000245608
0.00395496
0.000267456
0.00389472
0.000291831
0.0038299
0.000319121
0.00375995
0.000349789
0.00368419
0.000384386
0.00360187
0.000423571
0.00351212
0.00046813
0.00341392
0.000519002
0.00330611
0.000577306
0.00318736
0.000644361
0.00305618
0.000721703
0.00291094
0.00081107
0.00274987
0.000914335
0.00257123
0.00103334
0.00237342
0.00116956
0.00215528
0.0013235
0.00191655
0.00149369
0.0016584
0.00167516
0.00138422
0.00185727
0.00110024
0.00202093
0.000816277
0.00213458
0.000545858
0.00214915
0.000304871
0.00199215
0.000105241
0.00157069
0.000697932
0.00475714
7.02125e-05
0.00472979
7.37143e-05
0.00470195
7.74555e-05
0.00467358
8.14554e-05
0.00464464
8.57368e-05
0.00461508
9.03253e-05
0.00458487
9.52488e-05
0.00455393
0.000100539
0.00452223
0.000106229
0.00448969
0.00011236
0.00445626
0.000118973
0.00442184
0.000126118
0.00438636
0.000133847
0.00434974
0.000142222
0.00431186
0.00015131
0.00427261
0.000161187
0.00423187
0.00017194
0.0041895
0.00018367
0.00414534
0.000196488
0.00409921
0.000210523
0.00405092
0.000225925
0.00400025
0.000242865
0.00394694
0.000261544
0.0038907
0.000282197
0.0038312
0.000305101
0.00376808
0.000330578
0.0037009
0.000359011
0.00362917
0.000390855
0.00355231
0.000426647
0.00346967
0.000467023
0.0033805
0.000512742
0.00328393
0.000564704
0.00317896
0.000623969
0.00306448
0.000691787
0.00293923
0.000769609
0.00280186
0.000859078
0.00265093
0.000961996
0.00248507
0.0010802
0.00230309
0.00121532
0.00210429
0.00136836
0.00188887
0.00153892
0.00165848
0.00172409
0.00141686
0.00191678
0.00117057
0.00210355
0.00092949
0.00226201
0.000706322
0.00235775
0.000514104
0.00234136
0.000357275
0.00214898
0.000216257
0.00171171
0.000914189
-3.0053e-05
3.00537e-05
-7.45143e-10
-8.57049e-05
5.56538e-05
-1.83497e-09
-0.000145879
6.01767e-05
-2.67485e-09
-0.000198206
5.23308e-05
-3.31986e-09
-0.000235798
3.75956e-05
-3.77129e-09
-0.000255115
1.93211e-05
-3.97835e-09
-0.000254177
-9.34661e-07
-3.76959e-09
-0.000233873
-2.03007e-05
-3.81638e-09
-0.000194225
-3.9644e-05
-3.49546e-09
-0.00013626
-5.79617e-05
-2.9029e-09
-6.12518e-05
-7.50066e-05
-2.09051e-09
2.93382e-05
-9.05888e-05
-1.08892e-09
0.000133932
-0.000104594
8.28681e-11
0.000250951
-0.00011702
1.38982e-09
0.000378799
-0.000127851
2.80877e-09
0.000515897
-0.000137101
4.30793e-09
0.000660698
-0.000144807
5.86547e-09
0.000811712
-0.000151021
7.46556e-09
0.00096751
-0.000155807
9.09574e-09
0.00112674
-0.000159241
1.07363e-08
0.00128813
-0.000161404
1.22799e-08
0.0014505
-0.000162383
1.35731e-08
0.00161275
-0.000162265
1.45478e-08
0.00177388
-0.000161139
1.52539e-08
0.00193296
-0.000159104
1.5806e-08
0.00208921
-0.000156261
1.60246e-08
0.0022419
-0.000152707
1.58621e-08
0.00239042
-0.000148539
1.53756e-08
0.00253426
-0.000143847
1.46286e-08
0.00267296
-0.000138721
1.36803e-08
0.0028062
-0.000133245
1.25737e-08
0.00293368
-0.000127498
1.13386e-08
0.00305523
-0.000121555
9.99757e-09
0.0031707
-0.000115484
8.57308e-09
0.00328004
-0.000109348
7.0901e-09
0.00338324
-0.000103203
5.5805e-09
0.00348034
-9.71011e-05
4.07852e-09
0.00357142
-9.10863e-05
2.62052e-09
0.00365662
-8.51974e-05
1.24079e-09
0.00373609
-7.94674e-05
-2.96362e-11
0.00381001
-7.39239e-05
-1.16293e-09
0.0038786
-6.85891e-05
-2.14233e-09
0.00394209
-6.34804e-05
-2.95433e-09
0.0040007
-5.86104e-05
-3.59248e-09
0.00405469
-5.39878e-05
-4.05593e-09
0.00410431
-4.96174e-05
-4.34874e-09
0.00414982
-4.55003e-05
-4.47836e-09
0.00419146
-4.16348e-05
-4.45383e-09
0.00422948
-3.80159e-05
-4.28491e-09
-3.4636e-05
0.00426412
-3.9818e-09
-2.63603e-05
5.6414e-05
-7.50543e-05
0.000104348
-0.000127274
0.000112396
-0.00017215
9.72066e-05
-0.000203398
6.88442e-05
-0.000217682
3.36048e-05
-0.000213544
-5.07302e-06
-0.00019099
-4.28545e-05
-0.000150264
-8.03702e-05
-9.22619e-05
-0.000115963
-1.79287e-05
-0.00014934
7.12204e-05
-0.000179738
0.000173871
-0.000207244
0.000288566
-0.000231715
0.000413811
-0.000253097
0.00054812
-0.00027141
0.000690028
-0.000286716
0.000838112
-0.000299105
0.000990999
-0.000308695
0.00114738
-0.000315625
0.00130603
-0.000320052
0.00146579
-0.00032214
0.00162558
-0.000322058
0.00178442
-0.000319979
0.00194141
-0.000316089
0.00209574
-0.00031059
0.0022467
-0.000303674
0.00239369
-0.000295528
0.00253618
-0.000286335
0.00267373
-0.000276268
0.00280597
-0.000265495
0.00293265
-0.000254173
0.00305355
-0.000242451
0.00316853
-0.000230466
0.00327752
-0.000218341
0.00338051
-0.000206192
0.00347753
-0.000194118
0.00356865
-0.00018221
0.003654
-0.000170546
0.00373372
-0.000159192
0.003808
-0.000148202
0.00387704
-0.000137623
0.00394105
-0.000127489
0.00400026
-0.000117825
0.00405492
-0.00010865
0.00410528
-9.99727e-05
0.00415157
-9.17971e-05
0.00419406
-8.41192e-05
0.00423297
-7.69293e-05
-7.02113e-05
0.00426855
-1.98352e-05
7.62493e-05
-5.46166e-05
0.000139129
-9.16233e-05
0.000149403
-0.000122296
0.000127879
-0.00014154
8.80885e-05
-0.000146456
3.85202e-05
-0.000136043
-1.54862e-05
-0.000109575
-6.93221e-05
-6.69105e-05
-0.000123035
-8.81103e-06
-0.000174063
6.36096e-05
-0.00022176
0.000149808
-0.000265937
0.00024858
-0.000306016
0.000358671
-0.000341806
0.000478802
-0.000373227
0.000607667
-0.000400275
0.000743955
-0.000423004
0.000886372
-0.000441522
0.00103365
-0.000455975
0.00118458
-0.000466548
0.00133798
-0.000473453
0.00149276
-0.00047692
0.00164788
-0.000477185
0.0018024
-0.000474494
0.00195542
-0.000469112
0.00210616
-0.000461325
0.0022539
-0.00045142
0.00239804
-0.000439669
0.00253805
-0.000426339
0.00267347
-0.000411687
0.00280393
-0.000395961
0.00292916
-0.000379395
0.00304891
-0.000362208
0.00316305
-0.000344604
0.00327148
-0.000326772
0.00337417
-0.00030888
0.00347113
-0.000291081
0.00356243
-0.00027351
0.00364817
-0.000256284
0.00372848
-0.000239504
0.00380353
-0.000223252
0.00387351
-0.000207597
0.00393861
-0.000192593
0.00399907
-0.00017828
0.0040551
-0.000164684
0.00410695
-0.000151822
0.00415485
-0.000139699
0.00419904
-0.000128311
0.00423976
-0.000117642
-0.000107668
0.00427721
-8.31309e-06
8.45624e-05
-2.47988e-05
0.000155615
-4.08981e-05
0.000165502
-5.19955e-05
0.000138977
-5.49322e-05
9.10251e-05
-4.72347e-05
3.08227e-05
-2.83755e-05
-3.43453e-05
3.30086e-06
-0.000100998
4.72642e-05
-0.000166998
0.000104252
-0.00023105
0.000173987
-0.000291496
0.00025569
-0.000347639
0.000348634
-0.00039896
0.000451943
-0.000445116
0.000564637
-0.000485921
0.000685661
-0.0005213
0.00081392
-0.000551263
0.000948297
-0.000575898
0.00108767
-0.000595349
0.00123094
-0.000609818
0.00137703
-0.000619545
0.00152492
-0.000624806
0.00167362
-0.00062589
0.00182222
-0.000623095
0.00196986
-0.000616751
0.00211575
-0.000607217
0.0022592
-0.000594863
0.00239957
-0.000580041
0.00253633
-0.000563097
0.00266901
-0.000544367
0.00279722
-0.000524173
0.00292065
-0.000502825
0.00303905
-0.000480613
0.00315226
-0.000457807
0.00326014
-0.000434657
0.00336265
-0.000411388
0.00345978
-0.000388206
0.00355155
-0.000365289
0.00363807
-0.000342797
0.00371943
-0.000320863
0.00379578
-0.000299603
0.00386729
-0.000279107
0.00393414
-0.000259449
0.00399655
-0.000240685
0.00405472
-0.000222853
0.00410887
-0.000205974
0.00415923
-0.000190058
0.00420602
-0.000175101
0.00424946
-0.000161083
-0.000147967
0.00428976
6.54422e-06
7.80181e-05
1.3495e-05
0.000148664
2.29026e-05
0.000156095
3.47341e-05
0.000127145
5.03607e-05
7.53986e-05
7.20574e-05
9.12597e-06
9.951e-05
-6.17979e-05
0.000135543
-0.000137032
0.000181062
-0.000212516
0.000236319
-0.000286307
0.000301654
-0.000356832
0.000377039
-0.000423024
0.000462203
-0.000484123
0.000556682
-0.000539595
0.000659855
-0.000589094
0.000770973
-0.000632417
0.000889195
-0.000669486
0.00101362
-0.000700318
0.00114329
-0.000725021
0.00127724
-0.000743774
0.00141452
-0.000756818
0.00155415
-0.000764445
0.00169524
-0.000766977
0.0018369
-0.00076475
0.00197828
-0.000758135
0.00211861
-0.000747548
0.00225718
-0.000733433
0.00239336
-0.000716215
0.00252657
-0.000696311
0.00265633
-0.000674131
0.00278223
-0.00065007
0.00290392
-0.00062451
0.00302111
-0.000597809
0.00313361
-0.000570304
0.00324126
-0.000542307
0.00334397
-0.000514101
0.00344171
-0.000485943
0.00353448
-0.000458061
0.00362234
-0.000430654
0.00370537
-0.000403894
0.00378369
-0.000377926
0.00385745
-0.000352867
0.00392682
-0.000328814
0.00399197
-0.000305836
0.0040531
-0.000283985
0.00411041
-0.000263291
0.00416413
-0.000243768
0.00421444
-0.000225413
0.00426156
-0.000208203
-0.000192089
0.00430568
2.24447e-05
5.55734e-05
5.71005e-05
0.000114008
9.47159e-05
0.000118479
0.000131951
8.99102e-05
0.000168162
3.91873e-05
0.00020245
-2.51616e-05
0.000238723
-9.80717e-05
0.000278534
-0.000176843
0.000323605
-0.000257587
0.000375198
-0.0003379
0.000434251
-0.000415885
0.000501347
-0.000490121
0.000576756
-0.000559532
0.00066048
-0.000623319
0.000752292
-0.000680906
0.00085178
-0.000731906
0.000958382
-0.000776088
0.00107142
-0.000813356
0.00119013
-0.000843729
0.00131368
-0.000867325
0.00144121
-0.000884352
0.00157185
-0.000895087
0.00170474
-0.000899861
0.00183902
-0.000899027
0.00197386
-0.000892978
0.00210848
-0.000882174
0.00224216
-0.000867112
0.00237424
-0.000848288
0.00250411
-0.000826182
0.00263125
-0.000801273
0.00275521
-0.000774028
0.00287559
-0.000744896
0.00299209
-0.000714307
0.00310445
-0.000682663
0.00321248
-0.00065034
0.00331606
-0.00061768
0.00341511
-0.000584994
0.00350961
-0.000552559
0.00359958
-0.00052062
0.00368507
-0.000489386
0.00376618
-0.000459036
0.00384303
-0.000429715
0.00391576
-0.000401543
0.00398453
-0.000374609
0.00404952
-0.000348976
0.00411092
-0.000324687
0.00416891
-0.000301761
0.00422369
-0.000280196
0.00427546
-0.00025997
-0.000241024
0.0043244
4.13247e-05
1.42487e-05
0.00010844
4.68934e-05
0.000175026
5.18934e-05
0.000235618
2.93177e-05
0.000289204
-1.43987e-05
0.000334334
-7.02914e-05
0.000376229
-0.000139967
0.000417092
-0.000217705
0.000459394
-0.00029989
0.000505165
-0.000383671
0.000556016
-0.000466735
0.000613131
-0.000547236
0.00067731
-0.000623711
0.00074901
-0.000695018
0.000828392
-0.000760288
0.000915368
-0.000818883
0.00100965
-0.000870366
0.00111076
-0.000914474
0.00121813
-0.000951093
0.00133105
-0.000980242
0.00144875
-0.00100206
0.00157043
-0.00101677
0.00169526
-0.00102469
0.00182242
-0.00102618
0.00195108
-0.00102164
0.00208044
-0.00101154
0.00220975
-0.000996423
0.00233831
-0.000976849
0.00246549
-0.000953357
0.00259071
-0.000926491
0.00271346
-0.000896785
0.00283333
-0.000864758
0.00294993
-0.00083091
0.00306297
-0.00079571
0.00317223
-0.000759599
0.00327754
-0.000722982
0.00337877
-0.000686227
0.00347587
-0.000649662
0.00356883
-0.00061358
0.00365768
-0.000578231
0.00374247
-0.00054383
0.00382331
-0.000510555
0.00390031
-0.000478547
0.00397362
-0.000447919
0.0040434
-0.000418749
0.0041098
-0.000391091
0.00417301
-0.000364972
0.00423321
-0.000340394
0.00429058
-0.000317338
0.0043453
-0.000295749
0.00430508
-4.09602e-05
-3.57617e-09
0.00434393
-3.88439e-05
-3.10406e-09
0.00438074
-3.68053e-05
-2.53052e-09
0.00441559
-3.48524e-05
-1.88131e-09
0.00444858
-3.2989e-05
-1.17704e-09
0.0044798
-3.12169e-05
-4.34874e-10
0.00450933
-2.95368e-05
3.29637e-10
0.00453728
-2.79485e-05
1.10169e-09
0.00456373
-2.64507e-05
1.86809e-09
0.00458877
-2.50416e-05
2.61777e-09
0.00461248
-2.37184e-05
3.34192e-09
0.00463496
-2.2478e-05
4.03485e-09
0.00465627
-2.13168e-05
4.69369e-09
0.0046765
-2.02308e-05
5.31832e-09
0.00469571
-1.92154e-05
5.9109e-09
0.00471397
-1.8266e-05
6.47522e-09
0.00473134
-1.73773e-05
7.01551e-09
0.00474787
-1.65436e-05
7.53561e-09
0.00476362
-1.57589e-05
8.03844e-09
0.00477863
-1.50165e-05
8.52506e-09
0.00479293
-1.43095e-05
8.9937e-09
0.00480655
-1.36308e-05
9.43909e-09
0.00481952
-1.29736e-05
9.85228e-09
0.00483184
-1.23318e-05
1.02213e-08
0.00484353
-1.17011e-05
1.05307e-08
0.0048546
-1.10793e-05
1.07643e-08
0.00486505
-1.04667e-05
1.09057e-08
0.00487491
-9.86653e-06
1.09405e-08
0.00488418
-9.2846e-06
1.08591e-08
0.0048929
-8.72829e-06
1.06563e-08
0.00490109
-8.20544e-06
1.03347e-08
0.00490881
-7.72295e-06
9.90258e-09
0.00491608
-7.28552e-06
9.37407e-09
0.00492297
-6.89478e-06
8.76776e-09
0.00492951
-6.54907e-06
8.10424e-09
0.00493575
-6.24388e-06
7.40396e-09
0.00494171
-5.97269e-06
6.68638e-09
0.00494744
-5.72809e-06
5.96853e-09
0.00495293
-5.50292e-06
5.26368e-09
0.00495822
-5.29101e-06
4.58133e-09
0.0049633
-5.08768e-06
3.92778e-09
0.00496819
-4.8898e-06
3.30748e-09
0.00497288
-4.69561e-06
2.72297e-09
0.00497738
-4.50444e-06
2.1773e-09
0.0049817
-4.316e-06
1.68668e-09
0.00498583
-4.13097e-06
1.22431e-09
0.00498978
-3.94982e-06
7.94609e-10
0.00499355
-3.77296e-06
4.03094e-10
0.00499715
-3.60078e-06
4.72336e-11
0.00500059
-3.43355e-06
-2.77101e-10
0.00500386
-3.27144e-06
-5.76243e-10
0.00500697
-3.11453e-06
-8.58315e-10
0.00500994
-2.96284e-06
-1.13273e-09
0.00501275
-2.81634e-06
-1.40843e-09
0.00501543
-2.67496e-06
-1.69358e-09
0.00501797
-2.53861e-06
-1.9948e-09
0.00502038
-2.40718e-06