/*--------------------------------*- C++ -*----------------------------------*\
| =========                 |                                                 |
| \\      /  F ield         | OpenFOAM: The Open Source CFD Toolbox           |
|  \\    /   O peration     | Version:  2412                                  |
|   \\  /    A nd           | Website:  www.openfoam.com                      |
|    \\/     M anipulation  |                                                 |
\*---------------------------------------------------------------------------*/
FoamFile
{
    version     2.0;
    format      ascii;
    arch        "LSB;label=32;scalar=64";
    class       volVectorField;
    location    "19";
    object      U;
}
// * * * * * * * * * * * * * * * * * * * * * * * * * * * * * * * * * * * * * //

dimensions      [0 1 -1 0 0 0 0];

internalField   nonuniform List<vector> 
63420
(
(0.0999997 4.35247e-07 0)
(0.099995 1.29691e-06 0)
(0.0999852 2.14628e-06 0)
(0.0999709 2.97773e-06 0)
(0.0999524 3.80105e-06 0)
(0.0999298 4.6792e-06 0)
(0.0999028 5.74268e-06 0)
(0.0998702 7.14867e-06 0)
(0.0998301 8.99987e-06 0)
(0.0997805 1.12733e-05 0)
(0.09972 1.3804e-05 0)
(0.0996483 1.63321e-05 0)
(0.0995667 1.85861e-05 0)
(0.0994772 2.03621e-05 0)
(0.0993828 2.15688e-05 0)
(0.0992862 2.22306e-05 0)
(0.0991897 2.24592e-05 0)
(0.0990948 2.24102e-05 0)
(0.0990023 2.22425e-05 0)
(0.0989124 2.20907e-05 0)
(0.0988246 2.20506e-05 0)
(0.0987385 2.21783e-05 0)
(0.0986531 2.24969e-05 0)
(0.0985678 2.30053e-05 0)
(0.098482 2.36887e-05 0)
(0.0983951 2.45263e-05 0)
(0.0983067 2.54965e-05 0)
(0.0982165 2.65802e-05 0)
(0.0981241 2.77626e-05 0)
(0.0980295 2.90329e-05 0)
(0.0979325 3.03843e-05 0)
(0.0978329 3.18132e-05 0)
(0.0977307 3.33185e-05 0)
(0.0976257 3.49009e-05 0)
(0.097518 3.65621e-05 0)
(0.0974073 3.8305e-05 0)
(0.0972936 4.01328e-05 0)
(0.0971768 4.20491e-05 0)
(0.0970568 4.40578e-05 0)
(0.0969336 4.61629e-05 0)
(0.0968071 4.83686e-05 0)
(0.0966771 5.0679e-05 0)
(0.0965436 5.30987e-05 0)
(0.0964065 5.56322e-05 0)
(0.0962656 5.8284e-05 0)
(0.096121 6.10591e-05 0)
(0.0959724 6.39625e-05 0)
(0.0958198 6.69995e-05 0)
(0.0956632 7.01756e-05 0)
(0.0955023 7.34968e-05 0)
(0.0953372 7.69699e-05 0)
(0.0951677 8.06036e-05 0)
(0.0949936 8.44115e-05 0)
(0.0948149 8.84233e-05 0)
(0.0946314 9.27139e-05 0)
(0.0999997 1.30541e-06 0)
(0.099995 3.88985e-06 0)
(0.0999852 6.43764e-06 0)
(0.0999709 8.93201e-06 0)
(0.0999524 1.14021e-05 0)
(0.0999299 1.40358e-05 0)
(0.0999029 1.72223e-05 0)
(0.0998703 2.14314e-05 0)
(0.0998303 2.69703e-05 0)
(0.0997809 3.37718e-05 0)
(0.0997205 4.13447e-05 0)
(0.0996491 4.8914e-05 0)
(0.0995677 5.56695e-05 0)
(0.0994785 6.10011e-05 0)
(0.0993843 6.46349e-05 0)
(0.0992878 6.66424e-05 0)
(0.0991914 6.73551e-05 0)
(0.0990966 6.72361e-05 0)
(0.0990042 6.67599e-05 0)
(0.0989142 6.63274e-05 0)
(0.0988264 6.62255e-05 0)
(0.0987402 6.66223e-05 0)
(0.0986548 6.75867e-05 0)
(0.0985695 6.91168e-05 0)
(0.0984836 7.11689e-05 0)
(0.0983968 7.36812e-05 0)
(0.0983084 7.65896e-05 0)
(0.0982182 7.98378e-05 0)
(0.0981259 8.33812e-05 0)
(0.0980313 8.7188e-05 0)
(0.0979344 9.12379e-05 0)
(0.0978349 9.55202e-05 0)
(0.0977328 0.000100031 0)
(0.097628 0.000104774 0)
(0.0975204 0.000109752 0)
(0.0974098 0.000114976 0)
(0.0972963 0.000120453 0)
(0.0971797 0.000126196 0)
(0.0970599 0.000132216 0)
(0.0969369 0.000138524 0)
(0.0968106 0.000145133 0)
(0.0966809 0.000152056 0)
(0.0965476 0.000159306 0)
(0.0964107 0.000166897 0)
(0.0962701 0.000174841 0)
(0.0961258 0.000183155 0)
(0.0959776 0.000191852 0)
(0.0958253 0.000200949 0)
(0.095669 0.000210463 0)
(0.0955086 0.00022041 0)
(0.0953438 0.000230811 0)
(0.0951747 0.000241692 0)
(0.0950012 0.000253093 0)
(0.094823 0.000265101 0)
(0.09464 0.000277933 0)
(0.0999997 2.1747e-06 0)
(0.099995 6.47993e-06 0)
(0.0999852 1.07244e-05 0)
(0.0999709 1.48803e-05 0)
(0.0999525 1.89958e-05 0)
(0.09993 2.33811e-05 0)
(0.099903 2.8681e-05 0)
(0.0998706 3.56744e-05 0)
(0.0998307 4.4873e-05 0)
(0.0997816 5.61693e-05 0)
(0.0997216 6.87529e-05 0)
(0.0996506 8.13414e-05 0)
(0.0995697 9.25909e-05 0)
(0.099481 0.000101487 0)
(0.0993872 0.000107572 0)
(0.0992911 0.000110958 0)
(0.0991949 0.000112191 0)
(0.0991002 0.000112036 0)
(0.0990078 0.000111279 0)
(0.0989178 0.000110586 0)
(0.0988299 0.000110432 0)
(0.0987436 0.0001111 0)
(0.0986581 0.000112706 0)
(0.0985728 0.000115248 0)
(0.0984869 0.000118656 0)
(0.0984 0.000122828 0)
(0.0983117 0.000127658 0)
(0.0982215 0.000133055 0)
(0.0981294 0.000138943 0)
(0.098035 0.00014527 0)
(0.0979382 0.000152003 0)
(0.0978389 0.000159124 0)
(0.0977371 0.000166626 0)
(0.0976325 0.000174513 0)
(0.0975251 0.000182794 0)
(0.0974149 0.000191482 0)
(0.0973017 0.000200593 0)
(0.0971855 0.000210145 0)
(0.0970661 0.000220157 0)
(0.0969435 0.000230649 0)
(0.0968176 0.000241642 0)
(0.0966883 0.000253155 0)
(0.0965556 0.000265212 0)
(0.0964192 0.000277834 0)
(0.0962792 0.000291044 0)
(0.0961355 0.000304866 0)
(0.0959878 0.000319325 0)
(0.0958363 0.000334447 0)
(0.0956807 0.000350259 0)
(0.095521 0.00036679 0)
(0.0953571 0.000384074 0)
(0.0951889 0.000402151 0)
(0.0950162 0.000421087 0)
(0.094839 0.00044102 0)
(0.0946571 0.000462294 0)
(0.0999997 3.04254e-06 0)
(0.0999951 9.06525e-06 0)
(0.0999852 1.50036e-05 0)
(0.099971 2.08186e-05 0)
(0.0999526 2.65769e-05 0)
(0.0999301 3.27076e-05 0)
(0.0999033 4.01052e-05 0)
(0.0998709 4.98523e-05 0)
(0.0998313 6.26653e-05 0)
(0.0997826 7.84023e-05 0)
(0.0997232 9.59454e-05 0)
(0.0996529 0.000113517 0)
(0.0995727 0.000129248 0)
(0.0994846 0.000141725 0)
(0.0993915 0.000150298 0)
(0.0992959 0.000155116 0)
(0.0992 0.000156928 0)
(0.0991055 0.000156792 0)
(0.0990131 0.0001558 0)
(0.0989231 0.000154877 0)
(0.0988351 0.000154689 0)
(0.0987487 0.000155632 0)
(0.0986631 0.000157871 0)
(0.0985776 0.000161409 0)
(0.0984917 0.000166151 0)
(0.0984049 0.000171958 0)
(0.0983166 0.000178684 0)
(0.0982266 0.000186201 0)
(0.0981346 0.000194408 0)
(0.0980404 0.00020323 0)
(0.0979439 0.00021262 0)
(0.0978449 0.000222554 0)
(0.0977434 0.000233022 0)
(0.0976392 0.000244029 0)
(0.0975323 0.000255587 0)
(0.0974225 0.000267714 0)
(0.0973098 0.000280432 0)
(0.0971941 0.000293765 0)
(0.0970753 0.00030774 0)
(0.0969534 0.000322384 0)
(0.0968281 0.000337725 0)
(0.0966995 0.000353793 0)
(0.0965675 0.000370617 0)
(0.0964319 0.000388228 0)
(0.0962928 0.000406658 0)
(0.0961499 0.000425939 0)
(0.0960032 0.000446106 0)
(0.0958527 0.000467194 0)
(0.0956982 0.000489241 0)
(0.0955396 0.000512287 0)
(0.0953769 0.000536376 0)
(0.0952099 0.000561565 0)
(0.0950387 0.000587938 0)
(0.0948629 0.000615675 0)
(0.0946826 0.000645219 0)
(0.0999997 3.9084e-06 0)
(0.0999951 1.16439e-05 0)
(0.0999853 1.92722e-05 0)
(0.0999711 2.6743e-05 0)
(0.0999527 3.41405e-05 0)
(0.0999303 4.20082e-05 0)
(0.0999035 5.14819e-05 0)
(0.0998714 6.39418e-05 0)
(0.0998321 8.03078e-05 0)
(0.0997839 0.000100413 0)
(0.0997252 0.000122846 0)
(0.0996557 0.000145351 0)
(0.0995765 0.000165548 0)
(0.0994894 0.000181623 0)
(0.099397 0.000192735 0)
(0.099302 0.000199056 0)
(0.0992066 0.000201526 0)
(0.0991123 0.000201485 0)
(0.09902 0.000200317 0)
(0.0989299 0.000199207 0)
(0.0988418 0.000199007 0)
(0.0987553 0.000200229 0)
(0.0986695 0.000203092 0)
(0.098584 0.000207605 0)
(0.0984981 0.000213651 0)
(0.0984112 0.000221059 0)
(0.098323 0.000229645 0)
(0.0982332 0.000239247 0)
(0.0981414 0.000249735 0)
(0.0980476 0.000261016 0)
(0.0979514 0.000273029 0)
(0.0978529 0.000285741 0)
(0.0977518 0.000299142 0)
(0.0976482 0.000313234 0)
(0.0975418 0.000328034 0)
(0.0974326 0.000343563 0)
(0.0973206 0.00035985 0)
(0.0972056 0.000376925 0)
(0.0970876 0.000394821 0)
(0.0969664 0.000413573 0)
(0.096842 0.000433216 0)
(0.0967144 0.000453787 0)
(0.0965833 0.000475324 0)
(0.0964488 0.000497865 0)
(0.0963107 0.000521451 0)
(0.096169 0.000546123 0)
(0.0960236 0.000571923 0)
(0.0958744 0.000598897 0)
(0.0957213 0.000627091 0)
(0.0955642 0.000656555 0)
(0.0954031 0.000687345 0)
(0.0952379 0.000719527 0)
(0.0950684 0.000753203 0)
(0.0948946 0.000788575 0)
(0.0947164 0.000826141 0)
(0.0999997 4.77193e-06 0)
(0.0999951 1.42139e-05 0)
(0.0999853 2.35273e-05 0)
(0.0999712 3.26494e-05 0)
(0.0999529 4.16816e-05 0)
(0.0999305 5.12757e-05 0)
(0.0999039 6.27994e-05 0)
(0.099872 7.79217e-05 0)
(0.0998331 9.7766e-05 0)
(0.0997854 0.000122149 0)
(0.0997276 0.000149388 0)
(0.0996591 0.000176766 0)
(0.099581 0.000201407 0)
(0.099495 0.000221103 0)
(0.0994036 0.000234815 0)
(0.0993093 0.000242725 0)
(0.0992144 0.000245949 0)
(0.0991205 0.000246091 0)
(0.0990283 0.000244823 0)
(0.0989382 0.000243576 0)
(0.09885 0.000243392 0)
(0.0987633 0.000244899 0)
(0.0986774 0.000248372 0)
(0.0985918 0.000253833 0)
(0.0985058 0.000261149 0)
(0.098419 0.000270115 0)
(0.098331 0.000280517 0)
(0.0982414 0.000292157 0)
(0.0981499 0.000304882 0)
(0.0980564 0.000318576 0)
(0.0979608 0.000333168 0)
(0.0978627 0.000348616 0)
(0.0977623 0.000364905 0)
(0.0976592 0.000382039 0)
(0.0975536 0.000400036 0)
(0.0974452 0.000418923 0)
(0.097334 0.000438731 0)
(0.0972199 0.000459498 0)
(0.0971028 0.000481262 0)
(0.0969826 0.000504066 0)
(0.0968593 0.00052795 0)
(0.0967328 0.00055296 0)
(0.096603 0.00057914 0)
(0.0964697 0.000606537 0)
(0.0963331 0.000635198 0)
(0.0961928 0.000665173 0)
(0.096049 0.000696512 0)
(0.0959014 0.000729269 0)
(0.09575 0.0007635 0)
(0.0955948 0.000799261 0)
(0.0954357 0.000836618 0)
(0.0952725 0.000875646 0)
(0.0951053 0.000916453 0)
(0.0949339 0.000959245 0)
(0.0947583 0.00100452 0)
(0.0999997 5.6324e-06 0)
(0.0999951 1.67741e-05 0)
(0.0999854 2.7766e-05 0)
(0.0999713 3.85341e-05 0)
(0.0999531 4.91953e-05 0)
(0.0999308 6.05034e-05 0)
(0.0999043 7.40467e-05 0)
(0.0998727 9.1774e-05 0)
(0.0998342 0.000115011 0)
(0.0997872 0.00014357 0)
(0.0997303 0.000175515 0)
(0.099663 0.000207697 0)
(0.0995861 0.000236755 0)
(0.0995013 0.000260097 0)
(0.099411 0.000276477 0)
(0.0993177 0.000286074 0)
(0.0992234 0.000290158 0)
(0.0991298 0.000290587 0)
(0.0990378 0.000289302 0)
(0.0989476 0.000287978 0)
(0.0988594 0.000287842 0)
(0.0987725 0.000289639 0)
(0.0986865 0.000293707 0)
(0.0986009 0.000300085 0)
(0.0985149 0.000308627 0)
(0.0984282 0.000319104 0)
(0.0983404 0.000331268 0)
(0.0982511 0.000344894 0)
(0.09816 0.000359801 0)
(0.098067 0.000375857 0)
(0.0979718 0.000392975 0)
(0.0978744 0.000411106 0)
(0.0977747 0.000430232 0)
(0.0976724 0.000450357 0)
(0.0975676 0.000471498 0)
(0.0974601 0.000493687 0)
(0.0973499 0.000516959 0)
(0.0972368 0.000541357 0)
(0.0971209 0.000566926 0)
(0.0970019 0.000593713 0)
(0.0968799 0.000621766 0)
(0.0967548 0.000651137 0)
(0.0966264 0.000681877 0)
(0.0964947 0.000714039 0)
(0.0963596 0.000747678 0)
(0.0962211 0.000782851 0)
(0.0960791 0.000819616 0)
(0.0959335 0.000858034 0)
(0.0957842 0.000898167 0)
(0.0956312 0.000940082 0)
(0.0954744 0.000983847 0)
(0.0953137 0.00102955 0)
(0.0951491 0.00107728 0)
(0.0949805 0.00112723 0)
(0.094808 0.00117982 0)
(0.094442 9.74985e-05 -4.51315e-24)
(0.0942448 0.000102543 -4.60092e-24)
(0.0940378 0.000107952 -3.1754e-26)
(0.0938205 0.000113731 1.41367e-23)
(0.0935921 0.000119907 -4.68276e-24)
(0.0933518 0.000126515 -4.81961e-24)
(0.093099 0.000133597 -1.48411e-23)
(0.0928326 0.000141195 1.47361e-23)
(0.0925517 0.000149359 5.04261e-24)
(0.0922552 0.000158143 0)
(0.091942 0.000167607 5.21008e-24)
(0.0916108 0.00017782 -5.3002e-24)
(0.0912601 0.000188856 4.36041e-23)
(0.0908885 0.0002008 -9.34548e-23)
(0.0904941 0.000213747 4.99545e-23)
(0.0900751 0.000227803 4.0487e-23)
(0.0896295 0.000243088 5.1953e-23)
(0.0891549 0.000259741 -5.95021e-24)
(0.0886487 0.000277918 6.08042e-24)
(0.088108 0.000297796 -6.21814e-24)
(0.0875297 0.000319582 0)
(0.0869101 0.000343514 6.51851e-24)
(0.0862452 0.00036987 -6.68248e-24)
(0.0855303 0.000398976 0)
(0.0847604 0.000431216 -7.04186e-24)
(0.0839293 0.000467045 0)
(0.0830304 0.000507005 -7.44919e-24)
(0.0820556 0.000551743 -1.24845e-22)
(0.080996 0.000602036 1.32567e-22)
(0.0798408 0.000658824 -1.33085e-22)
(0.0785776 0.000723244 1.32883e-22)
(0.0771918 0.000796682 0)
(0.0756661 0.000880833 0)
(0.0739797 0.00097777 1.62899e-22)
(0.072108 0.00109003 -1.53271e-22)
(0.0700215 0.00122069 0)
(0.0676847 0.00137343 0)
(0.0650551 0.00155255 0)
(0.0620822 0.00176279 0)
(0.0587069 0.00200891 0)
(0.0548623 0.00229473 0)
(0.050476 0.0026214 0)
(0.0454773 0.00298431 0)
(0.0398099 0.00336836 0)
(0.0334567 0.00374074 -1.50556e-23)
(0.0264796 0.00404062 -5.16712e-22)
(0.0190624 0.00416666 5.15937e-22)
(0.0115848 0.00396384 5.60559e-22)
(0.00496186 0.00319402 -5.59718e-22)
(0.001012 0.00148567 0)
(0.094451 0.000292238 -4.56581e-24)
(0.0942539 0.000307388 -9.31256e-24)
(0.0940472 0.000323574 -4.88162e-24)
(0.0938301 0.000340864 4.54721e-24)
(0.093602 0.000359345 -4.74789e-24)
(0.0933621 0.000379127 3.40264e-23)
(0.0931097 0.000400325 -5.34384e-23)
(0.0928437 0.000423073 4.96358e-24)
(0.0925633 0.000447516 6.62549e-23)
(0.0922674 0.000473817 -9.15057e-23)
(0.0919548 0.000502158 -8.93688e-23)
(0.0916243 0.000532742 7.87487e-23)
(0.0912744 0.000565794 0)
(0.0909036 0.000601568 5.50008e-24)
(0.0905102 0.000640347 -1.68099e-23)
(0.0900924 0.00068245 -1.90657e-22)
(0.089648 0.00072824 1.82996e-22)
(0.0891747 0.000778129 -1.9453e-22)
(0.0886701 0.000832587 -1.82677e-23)
(0.0881312 0.000892148 6.23178e-24)
(0.0875549 0.000957428 0)
(0.0869376 0.00102914 -6.53539e-24)
(0.0862753 0.00110813 -2.1063e-22)
(0.0855635 0.00119536 4.4018e-22)
(0.0847969 0.00129198 2.4286e-22)
(0.0839699 0.00139937 -4.58025e-22)
(0.0830755 0.00151914 4.93308e-22)
(0.0821062 0.00165323 -5.00569e-22)
(0.081053 0.00180397 -7.94446e-24)
(0.0799054 0.00197416 0)
(0.0786513 0.00216721 0)
(0.0772765 0.00238724 0)
(0.0757642 0.00263931 0)
(0.0740944 0.00292959 -9.44079e-24)
(0.0722435 0.00326561 -6.40244e-22)
(0.070183 0.00365651 -2.70841e-23)
(0.0678791 0.0041132 6.65593e-22)
(0.0652914 0.00464834 7.24897e-22)
(0.0623721 0.00527587 -7.23936e-22)
(0.0590652 0.00600968 -2.40441e-23)
(0.0553072 0.00686075 -2.5116e-23)
(0.0510291 0.00783191 -8.66003e-22)
(0.0461622 0.00890874 8.37479e-22)
(0.0406493 0.0100454 -2.85314e-23)
(0.0344657 0.0111435 1.51608e-23)
(0.0276531 0.0120215 -1.05066e-21)
(0.0203587 0.0123775 1.05028e-21)
(0.0128993 0.0117511 -2.19157e-21)
(0.00606579 0.00944422 2.15493e-21)
(0.00146064 0.00436127 -2.20801e-21)
(0.0944689 0.000486006 -2.7009e-23)
(0.0942722 0.000511192 -9.47788e-24)
(0.094066 0.000538057 3.65581e-23)
(0.0938494 0.000566749 -7.52076e-23)
(0.0936219 0.000597427 1.60932e-22)
(0.0933827 0.000630265 -7.62383e-23)
(0.093131 0.00066546 1.41855e-26)
(0.092866 0.000703231 9.89971e-24)
(0.0925866 0.000743822 1.7263e-22)
(0.0922918 0.000787504 -1.62386e-22)
(0.0919805 0.00083458 0)
(0.0916514 0.000885386 1.45938e-26)
(0.0913031 0.0009403 0)
(0.0909342 0.000999743 1.8893e-22)
(0.0905428 0.00106419 -1.66535e-22)
(0.0901272 0.00113416 -3.59065e-22)
(0.0896854 0.00121027 1.9965e-23)
(0.089215 0.00129321 -3.78082e-22)
(0.0887136 0.00138375 1.22235e-23)
(0.0881784 0.00148278 -4.05024e-22)
(0.0876062 0.00159134 4.17432e-22)
(0.0869936 0.00171061 -4.25415e-22)
(0.0863367 0.00184198 4.38458e-22)
(0.085631 0.00198709 1.38009e-23)
(0.0848715 0.00214784 -1.41799e-23)
(0.0840526 0.0023265 1.45828e-23)
(0.0831678 0.00252577 -4.88517e-22)
(0.0822095 0.00274886 5.03556e-22)
(0.0811693 0.00299964 5.35858e-22)
(0.0800372 0.00328274 -5.19412e-22)
(0.0788018 0.00360379 0)
(0.0774495 0.0039696 0)
(0.0759646 0.00438849 1.82547e-23)
(0.0743285 0.00487057 1.25801e-21)
(0.0725195 0.00542817 3.02373e-23)
(0.0705117 0.00607617 -1.26615e-21)
(0.0682744 0.00683225 0)
(0.0657714 0.0077168 -2.21262e-23)
(0.0629601 0.00875208 1.54106e-21)
(0.0597908 0.00995991 -3.07653e-21)
(0.0562069 0.0113569 3.26156e-21)
(0.0521461 0.0129457 9.83177e-23)
(0.0475439 0.0147002 -1.69466e-21)
(0.042341 0.0165424 -1.83449e-21)
(0.0364966 0.0183084 1.8906e-21)
(0.030012 0.0196996 1.46257e-24)
(0.0229595 0.0202208 -3.21429e-23)
(0.0155314 0.0191161 2.11723e-21)
(0.00825645 0.0152742 -2.05019e-21)
(0.00232286 0.00698786 -2.05072e-21)
(0.0944956 0.000678118 1.77955e-23)
(0.0942996 0.000713165 -9.03093e-24)
(0.094094 0.000750544 1.94883e-26)
(0.0938783 0.000790464 9.29328e-24)
(0.0936517 0.000833145 -1.95994e-26)
(0.0934137 0.000878835 1.54407e-22)
(0.0931632 0.000927809 -2.9178e-22)
(0.0928996 0.000980375 1.56818e-22)
(0.0926218 0.00103687 -1.00403e-23)
(0.0923288 0.00109768 1.85589e-22)
(0.0920195 0.00116323 -1.65081e-22)
(0.0916927 0.00123398 -3.42633e-22)
(0.0913469 0.00131046 6.9185e-22)
(0.0909808 0.00139326 -7.05529e-22)
(0.0905926 0.00148304 7.19874e-22)
(0.0901806 0.00158054 -7.23526e-22)
(0.0897427 0.0016866 -3.8305e-22)
(0.0892769 0.0018022 2.25537e-26)
(0.0887805 0.00192841 0)
(0.088251 0.00206648 -3.94418e-22)
(0.0876853 0.00221785 4.06799e-22)
(0.0870801 0.00238419 0)
(0.0864316 0.00256742 -8.78704e-22)
(0.0857355 0.00276984 8.64446e-22)
(0.084987 0.0029941 1.43148e-23)
(0.0841809 0.00324338 -3.71454e-26)
(0.0833108 0.00352141 1.51309e-23)
(0.0823699 0.00383269 0)
(0.0813501 0.00418255 -5.32025e-26)
(0.0802422 0.00457744 0)
(0.0790356 0.00502511 -1.71804e-23)
(0.0777182 0.00553497 1.16181e-21)
(0.0762757 0.00611841 -1.16149e-21)
(0.0746917 0.00678927 -1.92141e-23)
(0.0729473 0.00756432 3.97724e-23)
(0.0710201 0.00846366 -1.37113e-21)
(0.0688845 0.00951104 1.32851e-21)
(0.0665105 0.0107335 2.25089e-23)
(0.0638631 0.0121603 -3.57166e-25)
(0.0609021 0.0138191 2.40109e-23)
(0.0575814 0.0157298 -1.64882e-21)
(0.0538484 0.0178919 3.33313e-21)
(0.0496449 0.0202649 -1.73751e-21)
(0.0449083 0.0227368 1.7969e-21)
(0.0395743 0.0250794 -1.88113e-21)
(0.0335827 0.0268853 -3.73754e-21)
(0.0268881 0.0274831 7.62493e-21)
(0.0194959 0.0258388 -3.86005e-21)
(0.0115795 0.0204662 0)
(0.00360379 0.00925307 -3.62945e-21)
(0.094531 0.000867897 -8.82624e-24)
(0.0943358 0.000912596 -3.60583e-23)
(0.0941313 0.000960258 1.09316e-22)
(0.0939167 0.00101115 -1.47615e-22)
(0.0936916 0.00106557 6.50164e-23)
(0.093455 0.00112383 9.53544e-24)
(0.0932064 0.00118628 -9.69559e-24)
(0.0929448 0.00125333 -2.46292e-26)
(0.0926693 0.00132541 1.00384e-23)
(0.0923788 0.001403 -2.04194e-23)
(0.0920724 0.00148665 -3.3605e-22)
(0.0917487 0.00157695 3.46817e-22)
(0.0914066 0.00167458 -3.38804e-22)
(0.0910444 0.0017803 3.49741e-22)
(0.0906607 0.00189494 0)
(0.0902537 0.00201946 -2.48676e-26)
(0.0898215 0.00215493 0)
(0.0893619 0.0023026 -3.78055e-22)
(0.0888727 0.00246384 4.0262e-22)
(0.0883513 0.00264027 -1.2655e-23)
(0.0877948 0.00283371 -8.53208e-22)
(0.0871999 0.0030463 8.40614e-22)
(0.0865632 0.00328051 -1.36761e-23)
(0.0858806 0.00353927 0)
(0.0851477 0.00382597 0)
(0.0843596 0.00414465 -9.80869e-22)
(0.0835104 0.00450009 9.51069e-22)
(0.0825938 0.00489798 0)
(0.0816027 0.0053451 -3.26416e-23)
(0.0805287 0.00584959 0)
(0.0793626 0.00642123 1.74818e-23)
(0.0780939 0.00707182 -1.80176e-23)
(0.0767104 0.00781557 -1.87685e-23)
(0.0751987 0.00866967 1.93454e-23)
(0.0735434 0.00965477 1.27326e-21)
(0.0717273 0.0107955 -1.31414e-21)
(0.0697309 0.0121204 2.85735e-21)
(0.0675325 0.013662 -2.85919e-21)
(0.0651076 0.0154543 3.03549e-21)
(0.0624284 0.0175286 8.74909e-23)
(0.0594624 0.0199048 -3.19895e-21)
(0.0561703 0.0225765 -2.55505e-23)
(0.0525025 0.0254858 1.26574e-24)
(0.0483929 0.0284866 1.6764e-24)
(0.0437485 0.0312913 2.21345e-24)
(0.038432 0.0333988 -5.5292e-23)
(0.0322402 0.0339936 -2.53689e-23)
(0.0249168 0.0318043 -2.41169e-23)
(0.0161714 0.0249845 0)
(0.00532744 0.0111498 7.51938e-24)
(0.0945749 0.00105474 -4.37996e-23)
(0.0943808 0.00110887 2.63471e-23)
(0.0941777 0.0011666 9.01574e-24)
(0.0939648 0.00122827 1.38411e-22)
(0.0937415 0.00129422 -1.38463e-22)
(0.0935072 0.00136486 1.43269e-22)
(0.093261 0.00144061 -3.18034e-22)
(0.0930021 0.00152196 4.52821e-22)
(0.0927297 0.00160944 -3.1719e-22)
(0.0924427 0.00170364 -3.29095e-22)
(0.0921401 0.00180523 -1.65481e-23)
(0.0918207 0.00191493 6.68385e-22)
(0.0914833 0.00203357 -7.04101e-22)
(0.0911265 0.00216206 3.28419e-22)
(0.0907488 0.00230144 3.54498e-22)
(0.0903485 0.00245286 3.70663e-22)
(0.0899238 0.00261764 -2.86207e-23)
(0.0894727 0.00279729 7.55444e-22)
(0.0889931 0.00299352 7.803e-22)
(0.0884824 0.00320826 1.97967e-23)
(0.087938 0.00344378 -8.2733e-22)
(0.0873571 0.00370266 0)
(0.0867362 0.00398795 0)
(0.0860717 0.0043032 -9.22675e-22)
(0.0853597 0.00465255 9.09423e-22)
(0.0845955 0.00504092 9.79891e-22)
(0.0837742 0.00547411 -9.81343e-22)
(0.0828903 0.00595901 0)
(0.0819373 0.00650382 1.09597e-21)
(0.0809085 0.00711831 -1.09808e-21)
(0.0797962 0.00781419 0)
(0.0785918 0.00860547 -2.37727e-21)
(0.0772861 0.0095089 2.39929e-21)
(0.0758691 0.0105445 -1.98336e-23)
(0.0743301 0.0117361 -2.65346e-21)
(0.0726579 0.0131116 2.67808e-21)
(0.0708409 0.0147027 0)
(0.0688678 0.0165442 3.0072e-21)
(0.0667267 0.0186712 -2.98866e-21)
(0.0644053 0.0211132 2.42205e-23)
(0.0618883 0.0238834 3.29883e-21)
(0.0591538 0.026961 -6.6184e-21)
(0.0561645 0.0302628 1.92011e-23)
(0.052854 0.0336029 3.69798e-23)
(0.0491019 0.0366367 3.43291e-21)
(0.0446905 0.0387894 3.82491e-24)
(0.0392426 0.0391514 -2.94615e-21)
(0.0321666 0.0363125 3.02025e-21)
(0.0224748 0.0282272 0)
(0.00774344 0.0123864 2.68554e-23)
(0.0946271 0.00123784 8.62594e-24)
(0.0944347 0.00130087 7.94741e-23)
(0.0942335 0.00136819 -7.08744e-23)
(0.094023 0.00144015 9.09923e-24)
(0.0938023 0.00151718 1.39886e-22)
(0.0935709 0.00159974 -1.40107e-22)
(0.093328 0.00168834 -3.0021e-22)
(0.0930729 0.00178355 4.46795e-24)
(0.0928045 0.001886 -5.60562e-24)
(0.0925221 0.00199639 3.33469e-22)
(0.0922246 0.0021155 -3.25776e-22)
(0.0919109 0.00224419 6.9132e-22)
(0.0915798 0.00238345 -3.44484e-22)
(0.09123 0.00253436 1.11364e-23)
(0.0908601 0.00269815 1.13974e-23)
(0.0904686 0.0028762 7.54012e-22)
(0.0900538 0.00307008 -5.00273e-24)
(0.0896139 0.00328159 7.87159e-22)
(0.0891467 0.00351276 1.25833e-23)
(0.0886503 0.00376591 0)
(0.088122 0.00404373 0)
(0.0875593 0.00434933 -8.83877e-22)
(0.0869593 0.00468634 8.8611e-22)
(0.0863187 0.00505898 0)
(0.0856341 0.00547223 1.49122e-23)
(0.0849017 0.00593193 0)
(0.0841173 0.006445 -1.03008e-21)
(0.0832763 0.00701962 2.09728e-21)
(0.0823737 0.00766548 -1.06727e-21)
(0.0814043 0.00839412 -2.26223e-21)
(0.0803623 0.00921924 -7.60943e-23)
(0.0792419 0.0101571 -8.0296e-23)
(0.078037 0.0112271 -8.44068e-23)
(0.0767418 0.0124519 2.54398e-21)
(0.0753509 0.0138579 2.72994e-21)
(0.0738599 0.0154754 -2.73644e-21)
(0.0722661 0.0173374 0)
(0.0705689 0.019478 3.02882e-21)
(0.0687703 0.0219279 -3.03586e-21)
(0.0668744 0.024706 -3.22407e-21)
(0.0648846 0.027806 3.20632e-21)
(0.0627983 0.0311746 2.62135e-23)
(0.0605943 0.0346807 3.22245e-21)
(0.0582123 0.0380729 -1.05695e-22)
(0.0555181 0.0409292 -3.18316e-21)
(0.0522395 0.0426032 2.42886e-23)
(0.0478761 0.0421603 0)
(0.0415857 0.0382492 -1.93243e-23)
(0.0315288 0.0290306 -9.11218e-22)
(0.0124793 0.0123253 4.28505e-22)
(-0.000235108 0.000313797 0)
(-0.00100252 0.000580742 3.18259e-22)
(-0.00210903 0.000622552 -3.18737e-22)
(-0.00317214 0.000539515 -3.15866e-22)
(-0.00400469 0.000387411 3.16341e-22)
(-0.00452677 0.000200248 -9.67121e-24)
(-0.00469475 -5.27269e-07 0)
(-0.00450044 -0.000205639 0)
(-0.00395217 -0.000404814 0)
(-0.00305871 -0.000592816 0)
(-0.00183901 -0.000767898 0)
(-0.00031659 -0.000927527 0)
(0.00148192 -0.00107109 0)
(0.00352906 -0.00119849 0)
(0.00579721 -0.00130966 0)
(0.00825843 -0.00140477 8.33823e-23)
(0.010885 -0.00148424 -7.85115e-23)
(0.0136499 -0.00154863 0)
(0.0165269 -0.00159862 0)
(0.019491 -0.00163499 -5.29663e-23)
(0.0225183 -0.0016586 5.30472e-23)
(0.0255864 -0.00167032 -3.70643e-23)
(0.0286743 -0.00167104 2.32057e-24)
(0.0317624 -0.00166169 0)
(0.0348329 -0.00164326 1.63173e-24)
(0.0378696 -0.00161675 0)
(0.0408579 -0.00158317 0)
(0.0437852 -0.00154344 0)
(0.0466405 -0.00149851 6.04326e-25)
(0.0494141 -0.00144923 0)
(0.0520983 -0.00139646 -2.52714e-25)
(0.0546866 -0.00134097 1.12233e-25)
(0.057174 -0.0012835 7.11554e-27)
(0.0595568 -0.00122473 -1.37633e-24)
(0.0618326 -0.00116527 1.46103e-24)
(0.064 -0.00110569 2.0796e-24)
(0.0660587 -0.00104648 -4.73987e-24)
(0.0680093 -0.000988088 2.71436e-24)
(0.0698532 -0.000930892 3.83223e-25)
(0.0715924 -0.000875219 -4.05285e-25)
(0.0732298 -0.00082134 0)
(0.0747685 -0.000769476 -4.27698e-25)
(0.0762121 -0.0007198 2.16336e-24)
(0.0775645 -0.000672437 -2.16431e-24)
(0.07883 -0.000627475 4.23276e-25)
(0.0800129 -0.000584962 -1.24049e-24)
(0.0811176 -0.000544914 4.21849e-25)
(0.0821486 -0.000507314 7.81117e-25)
(0.0831103 -0.000472116 -3.88939e-25)
(0.0840071 -0.000439249 3.65513e-25)
(-0.00030193 0.000902003 -1.21068e-21)
(-0.00110874 0.00166152 -1.32233e-21)
(-0.00210374 0.00177931 1.30339e-21)
(-0.00299756 0.00153668 -6.22164e-22)
(-0.00364817 0.00109277 6.23322e-22)
(-0.00399537 0.00054588 9.7383e-24)
(-0.0040099 -4.23216e-05 -1.9192e-23)
(-0.00368565 -0.000641951 -5.96473e-22)
(-0.00302787 -0.00122613 5.78671e-22)
(-0.00204864 -0.00177843 -1.70593e-23)
(-0.000764634 -0.00229423 -1.61929e-23)
(0.000803741 -0.00276435 4.68493e-22)
(0.00263081 -0.00318852 -4.69116e-22)
(0.0046915 -0.00356564 -4.04767e-22)
(0.00696056 -0.00389514 3.31555e-23)
(0.00941193 -0.0041775 3.72646e-22)
(0.0120196 -0.0044138 -5.02206e-24)
(0.014758 -0.00460562 -9.24277e-24)
(0.0176025 -0.00475487 0)
(0.0205291 -0.00486379 0)
(0.0235151 -0.00493487 0)
(0.0265391 -0.00497067 -2.71883e-24)
(0.029581 -0.00497383 1.31905e-22)
(0.0326219 -0.00494697 -1.43314e-22)
(0.0356446 -0.00489305 9.48461e-23)
(0.0386334 -0.00481506 -5.75863e-23)
(0.0415743 -0.00471592 -6.98253e-23)
(0.044455 -0.00459845 3.07879e-23)
(0.0472649 -0.00446536 -6.05882e-25)
(0.0499945 -0.00431927 -9.25827e-25)
(0.0526364 -0.00416268 2.53265e-25)
(0.0551841 -0.00399791 -4.13933e-25)
(0.0576329 -0.00382717 -1.53537e-24)
(0.0599791 -0.00365247 6.01482e-24)
(0.0622204 -0.00347565 -4.30621e-24)
(0.0643553 -0.0032984 7.2013e-25)
(0.0663836 -0.00312219 -3.11006e-25)
(0.0683059 -0.00294837 0)
(0.0701235 -0.00277805 6.5521e-24)
(0.0718385 -0.00261223 -5.81044e-24)
(0.0734534 -0.00245172 -5.88625e-24)
(0.0749715 -0.00229717 7.95759e-24)
(0.0763962 -0.00214912 -4.30235e-25)
(0.0777314 -0.00200793 -2.11165e-24)
(0.0789812 -0.00187387 3.78009e-24)
(0.0801497 -0.00174709 4.14782e-25)
(0.0812415 -0.00162765 2.77735e-24)
(0.0822608 -0.00151548 3.25091e-25)
(0.0832119 -0.00141046 -7.94848e-25)
(0.0840991 -0.00131236 -1.10484e-24)
(-0.000419159 0.00137729 -1.26182e-21)
(-0.00128077 0.00250341 1.38043e-21)
(-0.00204138 0.00267967 -1.33919e-21)
(-0.00260226 0.00229662 -2.07421e-23)
(-0.00290189 0.00159779 -4.34967e-25)
(-0.00291508 0.000735396 -1.25103e-21)
(-0.00263557 -0.000195335 1.29207e-21)
(-0.00206445 -0.00114567 1.2078e-21)
(-0.00120209 -0.00207805 -3.21829e-23)
(-6.30673e-05 -0.00296129 -2.20866e-21)
(0.00134039 -0.00378631 2.12976e-21)
(0.00299304 -0.00454413 -1.01221e-21)
(0.00487026 -0.00523103 -1.47976e-23)
(0.00695337 -0.00584334 0)
(0.00922103 -0.00637994 7.82217e-22)
(0.0116506 -0.00684125 -7.88131e-23)
(0.0142193 -0.00722866 -6.93099e-22)
(0.0169048 -0.00754436 1.89721e-23)
(0.0196847 -0.00779117 0)
(0.0225376 -0.00797249 0)
(0.025443 -0.00809216 1.97706e-22)
(0.0283812 -0.00815424 -1.91984e-22)
(0.0313336 -0.00816281 -1.41594e-22)
(0.0342829 -0.00812225 1.50693e-22)
(0.037213 -0.00803699 3.65315e-24)
(0.0401094 -0.00791204 -3.02085e-24)
(0.0429588 -0.00775213 2.4489e-24)
(0.0457497 -0.00756183 -4.94892e-23)
(0.0484719 -0.00734559 5.14741e-23)
(0.0511168 -0.00710769 -2.42041e-23)
(0.0536771 -0.00685221 2.62384e-23)
(0.0561467 -0.00658301 3.02667e-25)
(0.0585212 -0.0063037 -2.37484e-25)
(0.0607969 -0.00601762 6.3942e-24)
(0.0629716 -0.00572782 -6.64816e-24)
(0.065044 -0.00543707 -8.24677e-24)
(0.0670138 -0.00514785 7.29211e-24)
(0.0688815 -0.00486235 0)
(0.0706484 -0.00458249 -6.33598e-26)
(0.0723164 -0.00430987 0)
(0.073888 -0.00404587 -1.28046e-23)
(0.0753662 -0.00379158 1.19383e-23)
(0.0767545 -0.00354789 -7.92094e-25)
(0.0780563 -0.00331543 -3.80283e-26)
(0.0792757 -0.00309465 -6.45803e-24)
(0.0804166 -0.0028858 1.19499e-23)
(0.0814833 -0.00268898 -6.33229e-24)
(0.0824799 -0.00250411 2.95288e-24)
(0.0834105 -0.00233097 -2.26152e-24)
(0.0842792 -0.00216916 -7.45544e-25)
(-0.000554793 0.00164655 -2.73887e-21)
(-0.00142728 0.00297348 0)
(-0.00180434 0.00318587 2.82368e-21)
(-0.00188448 0.00269033 -5.63711e-21)
(-0.00168981 0.00179588 2.83453e-21)
(-0.00123975 0.000690369 1.28477e-21)
(-0.000556394 -0.000511565 -1.3481e-21)
(0.000347185 -0.00174736 1.23844e-21)
(0.00148284 -0.00296143 -2.4441e-21)
(0.0028388 -0.00412422 1.18687e-21)
(0.00439718 -0.0052167 1.74591e-23)
(0.00615284 -0.00622818 4.33719e-25)
(0.00809109 -0.00714891 1.50519e-23)
(0.0101973 -0.00797352 -8.89325e-22)
(0.0124551 -0.00869981 8.62255e-22)
(0.0148471 -0.00932736 2.41931e-23)
(0.0173552 -0.00985719 -1.08212e-23)
(0.0199608 -0.0102915 6.05281e-22)
(0.0226456 -0.0106335 -6.05088e-22)
(0.0253913 -0.0108873 -8.17764e-24)
(0.0281802 -0.0110577 0)
(0.030995 -0.0111497 3.5442e-25)
(0.0338196 -0.0111689 0)
(0.0366384 -0.0111206 4.70896e-24)
(0.039437 -0.011011 2.96858e-25)
(0.0422022 -0.0108464 3.04942e-24)
(0.0449221 -0.0106335 -1.50888e-22)
(0.047586 -0.0103783 1.48709e-22)
(0.0501845 -0.010087 0)
(0.0527098 -0.00976534 -3.16271e-23)
(0.055155 -0.00941893 3.27607e-23)
(0.0575145 -0.00905307 0)
(0.059784 -0.00867274 -1.55016e-25)
(0.0619603 -0.00828256 2.64075e-24)
(0.0640411 -0.00788676 -1.07585e-23)
(0.0660253 -0.0074892 2.0595e-23)
(0.0679124 -0.00709332 -2.85352e-23)
(0.069703 -0.00670218 3.50226e-23)
(0.0713982 -0.00631844 -1.90027e-23)
(0.0729998 -0.00594438 -1.12951e-23)
(0.0745102 -0.00558191 9.85619e-24)
(0.075932 -0.00523259 7.16099e-25)
(0.0772684 -0.00489764 1.23572e-23)
(0.0785229 -0.004578 -2.61485e-23)
(0.0796991 -0.00427429 1.22666e-23)
(0.0808007 -0.00398689 4.22192e-26)
(0.0818317 -0.00371594 -7.59659e-25)
(0.0827959 -0.00346136 -3.43486e-26)
(0.0836973 -0.00322284 7.16057e-25)
(0.0845396 -0.00299976 -1.35361e-24)
(-0.000607883 0.00163207 -1.79635e-24)
(-0.00133878 0.00299285 -2.56422e-23)
(-0.00119715 0.0032075 -2.47836e-23)
(-0.000675539 0.00264221 -2.39962e-23)
(0.000115703 0.00163474 -4.58116e-23)
(0.00110827 0.000387871 -6.21348e-25)
(0.00225635 -0.00100062 2.12784e-23)
(0.00354467 -0.00243828 -2.10452e-23)
(0.00498369 -0.00385984 -2.02109e-23)