/*--------------------------------*- C++ -*----------------------------------*\
| =========                 |                                                 |
| \\      /  F ield         | OpenFOAM: The Open Source CFD Toolbox           |
|  \\    /   O peration     | Version:  2412                                  |
|   \\  /    A nd           | Website:  www.openfoam.com                      |
|    \\/     M anipulation  |                                                 |
\*---------------------------------------------------------------------------*/
FoamFile
{
    version     2.0;
    format      ascii;
    arch        "LSB;label=32;scalar=64";
    class       volVectorField;
    location    "19";
    object      vorticity;
}
// * * * * * * * * * * * * * * * * * * * * * * * * * * * * * * * * * * * * * //

dimensions      [0 0 -1 0 0 0 0];

internalField   nonuniform List<vector> 
63420
(
(0 0 5.8897e-06)
(0 0 5.87221e-06)
(0 0 5.81168e-06)
(0 0 5.73806e-06)
(0 0 5.91209e-06)
(0 0 6.79082e-06)
(0 0 8.70897e-06)
(0 0 1.14905e-05)
(0 0 1.43209e-05)
(0 0 1.60194e-05)
(0 0 1.55528e-05)
(0 0 1.24871e-05)
(0 0 7.14952e-06)
(0 0 4.69226e-07)
(0 0 -6.37376e-06)
(0 0 -1.23119e-05)
(0 0 -1.66337e-05)
(0 0 -1.9063e-05)
(0 0 -1.9703e-05)
(0 0 -1.89054e-05)
(0 0 -1.71286e-05)
(0 0 -1.48229e-05)
(0 0 -1.23598e-05)
(0 0 -1.00036e-05)
(0 0 -7.9128e-06)
(0 0 -6.15946e-06)
(0 0 -4.75388e-06)
(0 0 -3.66848e-06)
(0 0 -2.85677e-06)
(0 0 -2.26664e-06)
(0 0 -1.84844e-06)
(0 0 -1.55911e-06)
(0 0 -1.36358e-06)
(0 0 -1.23463e-06)
(0 0 -1.15187e-06)
(0 0 -1.10049e-06)
(0 0 -1.07e-06)
(0 0 -1.05309e-06)
(0 0 -1.0448e-06)
(0 0 -1.04176e-06)
(0 0 -1.04177e-06)
(0 0 -1.04335e-06)
(0 0 -1.04554e-06)
(0 0 -1.04773e-06)
(0 0 -1.0495e-06)
(0 0 -1.05056e-06)
(0 0 -1.05062e-06)
(0 0 -1.0492e-06)
(0 0 -1.04485e-06)
(0 0 -1.03261e-06)
(0 0 -9.95479e-07)
(0 0 -8.76481e-07)
(0 0 -4.91112e-07)
(0 0 7.38794e-07)
(0 4.47825e-23 4.56359e-06)
(0 0 1.76651e-05)
(0 0 1.76139e-05)
(0 0 1.74345e-05)
(0 0 1.72156e-05)
(0 0 1.7734e-05)
(0 0 2.03544e-05)
(0 0 2.60795e-05)
(0 0 3.43915e-05)
(0 0 4.28674e-05)
(0 0 4.79873e-05)
(0 0 4.66648e-05)
(0 0 3.7595e-05)
(0 0 2.17408e-05)
(0 0 1.86237e-06)
(0 0 -1.85281e-05)
(0 0 -3.62481e-05)
(0 0 -4.91721e-05)
(0 0 -5.64702e-05)
(0 0 -5.84417e-05)
(0 0 -5.61287e-05)
(0 0 -5.08926e-05)
(0 0 -4.40721e-05)
(0 0 -3.67735e-05)
(0 0 -2.97842e-05)
(0 0 -2.35778e-05)
(0 0 -1.83702e-05)
(0 0 -1.41936e-05)
(0 0 -1.09672e-05)
(0 0 -8.5537e-06)
(0 0 -6.79869e-06)
(0 0 -5.55495e-06)
(0 0 -4.69467e-06)
(0 0 -4.11376e-06)
(0 0 -3.73129e-06)
(0 0 -3.48666e-06)
(0 0 -3.3358e-06)
(0 0 -3.24746e-06)
(0 0 -3.19991e-06)
(0 0 -3.17831e-06)
(0 0 -3.17268e-06)
(0 0 -3.17637e-06)
(0 0 -3.185e-06)
(0 0 -3.19569e-06)
(0 0 -3.20657e-06)
(0 0 -3.21637e-06)
(0 0 -3.22422e-06)
(0 0 -3.22926e-06)
(0 0 -3.23003e-06)
(0 0 -3.22233e-06)
(0 0 -3.1918e-06)
(0 0 -3.08916e-06)
(0 0 -2.74925e-06)
(0 0 -1.63623e-06)
(0 0 1.93239e-06)
(0 4.52498e-23 1.3059e-05)
(0 0 2.9428e-05)
(0 0 2.93434e-05)
(0 0 2.9047e-05)
(0 0 2.86836e-05)
(0 0 2.95362e-05)
(0 0 3.38661e-05)
(0 0 4.33483e-05)
(0 0 5.71506e-05)
(0 0 7.12877e-05)
(0 0 7.99427e-05)
(0 0 7.79934e-05)
(0 0 6.32452e-05)
(0 0 3.72476e-05)
(0 0 4.52889e-06)
(0 0 -2.91226e-05)
(0 0 -5.84457e-05)
(0 0 -7.99124e-05)
(0 0 -9.21283e-05)
(0 0 -9.55641e-05)
(0 0 -9.19213e-05)
(0 0 -8.34346e-05)
(0 0 -7.23081e-05)
(0 0 -6.03661e-05)
(0 0 -4.89099e-05)
(0 0 -3.87248e-05)
(0 0 -3.01714e-05)
(0 0 -2.33067e-05)
(0 0 -1.80008e-05)
(0 0 -1.40297e-05)
(0 0 -1.1141e-05)
(0 0 -9.09305e-06)
(0 0 -7.67613e-06)
(0 0 -6.71912e-06)
(0 0 -6.08898e-06)
(0 0 -5.68599e-06)
(0 0 -5.43764e-06)
(0 0 -5.29245e-06)
(0 0 -5.21463e-06)
(0 0 -5.17974e-06)
(0 0 -5.17131e-06)
(0 0 -5.17837e-06)
(0 0 -5.19372e-06)
(0 0 -5.21258e-06)
(0 0 -5.23186e-06)
(0 0 -5.24948e-06)
(0 0 -5.26397e-06)
(0 0 -5.27396e-06)
(0 0 -5.27715e-06)
(0 0 -5.26698e-06)
(0 0 -5.2212e-06)
(0 0 -5.06349e-06)
(0 0 -4.53743e-06)
(0 0 -2.80834e-06)
(0 0 2.75518e-06)
(0 2.67027e-22 2.01648e-05)
(0 0 4.11705e-05)
(0 0 4.10525e-05)
(0 0 4.0642e-05)
(0 0 4.01357e-05)
(0 0 4.13061e-05)
(0 0 4.72937e-05)
(0 0 6.04515e-05)
(0 0 7.96786e-05)
(0 0 9.95004e-05)
(0 0 0.000111872)
(0 0 0.000109664)
(0 0 8.97611e-05)
(0 0 5.42213e-05)
(0 0 9.24008e-06)
(0 0 -3.72091e-05)
(0 0 -7.78456e-05)
(0 0 -0.000107757)
(0 0 -0.000124969)
(0 0 -0.000130081)
(0 0 -0.000125407)
(0 0 -0.000114006)
(0 0 -9.89101e-05)
(0 0 -8.26343e-05)
(0 0 -6.69794e-05)
(0 0 -5.3037e-05)
(0 0 -4.13128e-05)
(0 0 -3.18939e-05)
(0 0 -2.46077e-05)
(0 0 -1.91507e-05)
(0 0 -1.51785e-05)
(0 0 -1.23609e-05)
(0 0 -1.04105e-05)
(0 0 -9.09237e-06)
(0 0 -8.22401e-06)
(0 0 -7.66838e-06)
(0 0 -7.32576e-06)
(0 0 -7.12534e-06)
(0 0 -7.01787e-06)
(0 0 -6.9697e-06)
(0 0 -6.95815e-06)
(0 0 -6.9681e-06)
(0 0 -6.98961e-06)
(0 0 -7.01612e-06)
(0 0 -7.04334e-06)
(0 0 -7.06842e-06)
(0 0 -7.08933e-06)
(0 0 -7.10425e-06)
(0 0 -7.11021e-06)
(0 0 -7.09894e-06)
(0 0 -7.04269e-06)
(0 0 -6.84635e-06)
(0 0 -6.18978e-06)
(0 0 -4.02545e-06)
(0 0 2.97228e-06)
(0 -1.75308e-22 2.50068e-05)
(0 0 5.28846e-05)
(0 0 5.27331e-05)
(0 0 5.22124e-05)
(0 0 5.15654e-05)
(0 0 5.30315e-05)
(0 0 6.06073e-05)
(0 0 7.73314e-05)
(0 0 0.000101893)
(0 0 0.000127428)
(0 0 0.000143754)
(0 0 0.000141773)
(0 0 0.000117412)
(0 0 7.31297e-05)
(0 0 1.66567e-05)
(0 0 -4.19709e-05)
(0 0 -9.35316e-05)
(0 0 -0.000131755)
(0 0 -0.000154062)
(0 0 -0.000161133)
(0 0 -0.000155823)
(0 0 -0.000141955)
(0 0 -0.000123337)
(0 0 -0.000103139)
(0 0 -8.36434e-05)
(0 0 -6.62384e-05)
(0 0 -5.15771e-05)
(0 0 -3.97826e-05)
(0 0 -3.06485e-05)
(0 0 -2.38012e-05)
(0 0 -1.88128e-05)
(0 0 -1.52716e-05)
(0 0 -1.28184e-05)
(0 0 -1.11592e-05)
(0 0 -1.00653e-05)
(0 0 -9.36455e-06)
(0 0 -8.93189e-06)
(0 0 -8.67834e-06)
(0 0 -8.54198e-06)
(0 0 -8.48047e-06)
(0 0 -8.46526e-06)
(0 0 -8.47734e-06)
(0 0 -8.50417e-06)
(0 0 -8.5375e-06)
(0 0 -8.57193e-06)
(0 0 -8.60387e-06)
(0 0 -8.63078e-06)
(0 0 -8.65044e-06)
(0 0 -8.65944e-06)
(0 0 -8.6486e-06)
(0 0 -8.58766e-06)
(0 0 -8.37339e-06)
(0 0 -7.6585e-06)
(0 0 -5.30022e-06)
(0 0 2.37037e-06)
(0 8.65432e-23 2.678e-05)
(0 0 6.4564e-05)
(0 0 6.43768e-05)
(0 0 6.37506e-05)
(0 0 6.29655e-05)
(0 0 6.47012e-05)
(0 0 7.37813e-05)
(0 0 9.3938e-05)
(0 0 0.000123723)
(0 0 0.000154998)
(0 0 0.000175559)
(0 0 0.000174384)
(0 0 0.000146396)
(0 0 9.43327e-05)
(0 0 2.72962e-05)
(0 0 -4.27609e-05)
(0 0 -0.000104773)
(0 0 -0.000151143)
(0 0 -0.000178662)
(0 0 -0.000188024)
(0 0 -0.000182552)
(0 0 -0.000166753)
(0 0 -0.00014515)
(0 0 -0.000121527)
(0 0 -9.86198e-05)
(0 0 -7.81073e-05)
(0 0 -6.07901e-05)
(0 0 -4.68351e-05)
(0 0 -3.6013e-05)
(0 0 -2.78906e-05)
(0 0 -2.1967e-05)
(0 0 -1.77578e-05)
(0 0 -1.48389e-05)
(0 0 -1.28629e-05)
(0 0 -1.15584e-05)
(0 0 -1.07217e-05)
(0 0 -1.0204e-05)
(0 0 -9.89981e-06)
(0 0 -9.73537e-06)
(0 0 -9.66033e-06)
(0 0 -9.64072e-06)
(0 0 -9.65391e-06)
(0 0 -9.68493e-06)
(0 0 -9.72399e-06)
(0 0 -9.76462e-06)
(0 0 -9.80254e-06)
(0 0 -9.83478e-06)
(0 0 -9.85878e-06)
(0 0 -9.87091e-06)
(0 0 -9.86195e-06)
(0 0 -9.80225e-06)
(0 0 -9.59229e-06)
(0 0 -8.90018e-06)
(0 0 -6.63403e-06)
(0 0 7.59871e-07)
(0 4.27018e-22 2.47068e-05)
(0 0 7.61999e-05)
(0 0 7.59746e-05)
(0 0 7.52486e-05)
(0 0 7.43291e-05)
(0 0 7.6305e-05)
(0 0 8.6794e-05)
(0 0 0.00011023)
(0 0 0.000145107)
(0 0 0.000182146)
(0 0 0.000207245)
(0 0 0.000207517)
(0 0 0.000176831)
(0 0 0.000118064)
(0 0 4.15093e-05)
(0 0 -3.91313e-05)
(0 0 -0.000111056)
(0 0 -0.000165378)
(0 0 -0.000198232)
(0 0 -0.000210256)
(0 0 -0.000205148)
(0 0 -0.000188019)
(0 0 -0.000164032)
(0 0 -0.00013754)
(0 0 -0.000111705)
(0 0 -8.84843e-05)
(0 0 -6.88278e-05)
(0 0 -5.29549e-05)
(0 0 -4.06246e-05)
(0 0 -3.13569e-05)
(0 0 -2.45895e-05)
(0 0 -1.9775e-05)
(0 0 -1.64324e-05)
(0 0 -1.41667e-05)
(0 0 -1.26688e-05)
(0 0 -1.17063e-05)
(0 0 -1.11094e-05)
(0 0 -1.07572e-05)
(0 0 -1.05656e-05)
(0 0 -1.04768e-05)
(0 0 -1.04519e-05)
(0 0 -1.0465e-05)
(0 0 -1.04989e-05)
(0 0 -1.05424e-05)
(0 0 -1.0588e-05)
(0 0 -1.06309e-05)
(0 0 -1.06676e-05)
(0 0 -1.06954e-05)
(0 0 -1.07106e-05)
(0 0 -1.07046e-05)
(0 0 -1.06513e-05)
(0 0 -1.04654e-05)
(0 0 -9.87228e-06)
(0 0 -7.99581e-06)
(0 0 -2.00893e-06)
(0 -8.35397e-23 1.79069e-05)
(-1.68292e-23 7.95162e-21 2.67954e-06)
(-1.46156e-22 7.81851e-21 2.08693e-06)
(3.2775e-23 -1.95669e-22 1.28714e-06)
(3.72388e-23 -2.33437e-20 2.38477e-07)
(-9.16424e-23 7.97509e-21 -1.09575e-06)
(3.60211e-22 7.83356e-21 -2.74547e-06)
(-7.87362e-22 2.28389e-20 -4.73646e-06)
(3.08721e-22 -2.32069e-20 -7.09314e-06)
(6.21919e-22 -7.46747e-21 -9.84087e-06)
(-8.89045e-22 -3.69051e-24 -1.3008e-05)
(-8.88773e-22 -7.48277e-21 -1.66273e-05)
(7.78509e-22 7.10852e-21 -2.07372e-05)
(5.60559e-22 -5.85646e-20 -2.53835e-05)
(-1.03452e-21 1.25729e-19 -3.06199e-05)
(3.556e-22 -6.76392e-20 -3.65054e-05)
(-1.21943e-21 -5.10008e-20 -4.30979e-05)
(2.33812e-21 -6.49427e-20 -5.04533e-05)
(-1.83611e-21 7.65303e-21 -5.86478e-05)
(-1.87399e-22 -7.14096e-21 -6.77728e-05)
(7.20094e-23 7.14595e-21 -7.79125e-05)
(-3.11217e-24 -1.27292e-22 -8.9136e-05)
(-6.70186e-23 -6.89333e-21 -0.000101514)
(-1.98897e-21 6.95336e-21 -0.000115122)
(4.16082e-21 1.27857e-23 -0.000130037)
(1.2143e-21 6.75138e-21 -0.000146345)
(-3.24178e-21 -5.26205e-24 -0.000164142)
(4.6651e-21 7.84066e-21 -0.000183557)
(-5.46719e-21 1.01753e-19 -0.000204761)
(6.75456e-22 -1.09264e-19 -0.000228001)
(-2.1056e-21 9.98194e-20 -0.000253638)
(2.05105e-21 -1.00951e-19 -0.00028221)
(4.79943e-23 1.32715e-21 -0.000314547)
(-6.24623e-23 -1.62913e-21 -0.000351953)
(2.74133e-21 -9.55628e-20 -0.000396538)
(-8.55636e-21 9.27408e-20 -0.000451815)
(-3.12201e-22 -1.53134e-21 -0.000523733)
(6.13716e-21 1.34226e-23 -0.00062246)
(6.6714e-21 1.4591e-23 -0.000765354)
(-6.65005e-21 -1.45443e-23 -0.000981681)
(-2.20454e-22 -4.82155e-25 -0.00131975)
(-2.29852e-22 -5.02708e-25 -0.00185703)
(-7.91052e-21 -1.73011e-23 -0.00271324)
(7.63572e-21 1.67001e-23 -0.00406536)
(-2.52121e-22 1.50001e-22 -0.00616159)
(-3.22592e-23 7.76386e-21 -0.00932838)
(-2.44466e-20 5.02586e-20 -0.0139621)
(2.35464e-20 -6.62263e-20 -0.0204925)
(-5.51956e-21 -9.41454e-21 -0.0293039)
(6.06725e-21 2.57237e-20 -0.0406095)
(-2.01807e-20 -5.63381e-21 -0.0541954)
(-2.5638e-22 7.96333e-21 7.7406e-06)
(-1.03426e-22 1.56652e-20 5.89563e-06)
(3.00656e-22 7.61947e-21 3.37713e-06)
(-8.63672e-22 -7.83154e-21 5.95352e-08)
(1.60391e-21 7.47069e-21 -4.15936e-06)
(-4.95955e-22 -5.35023e-20 -9.36352e-06)
(-2.1562e-22 8.49561e-20 -1.56262e-05)
(-5.64302e-23 -8.8459e-21 -2.30186e-05)
(2.15265e-21 -9.78409e-20 -3.16171e-05)
(-2.23743e-21 1.38137e-19 -4.15083e-05)
(-8.18579e-22 1.2623e-19 -5.27947e-05)
(6.03326e-22 -1.1356e-19 -6.55974e-05)
(-3.8876e-22 7.28862e-22 -8.00596e-05)
(2.77312e-21 -7.23307e-21 -9.63501e-05)
(-2.15965e-21 2.40471e-20 -0.000114656)
(-5.90953e-21 2.38909e-19 -0.00013516)
(1.60975e-21 -2.24671e-19 -0.000158043)
(-5.52982e-21 2.4077e-19 -0.000183536)
(-2.9303e-22 1.94919e-20 -0.000211936)
(-3.79839e-21 -7.30359e-21 -0.000243514)
(4.01515e-21 1.43638e-22 -0.000278497)
(-4.02752e-21 9.06883e-21 -0.000317122)
(1.01222e-21 2.09153e-19 -0.000359645)
(5.85425e-21 -4.42857e-19 -0.000406328)
(4.4621e-21 -2.11573e-19 -0.000457462)
(-6.93005e-21 4.28309e-19 -0.000513385)
(3.60093e-21 -4.27107e-19 -0.000574526)
(-1.945e-21 4.38232e-19 -0.000641459)
(3.2522e-21 1.45829e-21 -0.000714984)
(-3.68267e-21 -9.65055e-23 -0.000796257)
(-1.23732e-21 -2.70613e-24 -0.00088698)
(0 0 -0.000989734)
(1.82875e-22 9.49037e-23 -0.00110854)
(1.09328e-20 1.22562e-20 -0.00124989)
(-1.55913e-20 3.57984e-19 -0.0014245)
(-1.56093e-20 -2.40155e-20 -0.00165049)
(1.84026e-20 -3.53125e-19 -0.00195881)
(2.63056e-20 -3.05174e-19 -0.00240223)
(-9.28727e-21 3.25996e-19 -0.00306961)
(-3.08648e-20 2.16805e-21 -0.00410759)
(3.01363e-20 1.71896e-20 -0.00575102)
(-4.17506e-20 2.32589e-19 -0.00836244)
(2.25809e-20 -2.41929e-19 -0.0124772)
(-1.78448e-20 1.4542e-20 -0.0188454)
(1.9779e-20 7.65191e-21 -0.0284527)
(-5.93511e-20 1.12454e-19 -0.042495)
(5.92766e-20 -1.10072e-19 -0.0622649)
(-9.11495e-20 8.22077e-20 -0.0888995)
(8.79598e-20 -9.17919e-20 -0.122968)
(-1.86334e-20 -6.30182e-22 -0.16246)
(-4.09241e-23 4.71789e-20 1.239e-05)
(-8.50876e-23 1.49178e-20 9.07065e-06)
(3.73436e-22 -6.18012e-20 4.4452e-06)
(-7.93235e-22 1.22948e-19 -1.68095e-06)
(1.75005e-21 -2.63201e-19 -9.45344e-06)
(3.88486e-22 1.25155e-19 -1.89895e-05)
(-2.4302e-21 -8.63257e-22 -3.03976e-05)
(1.55163e-21 -1.70068e-20 -4.37919e-05)
(1.45538e-21 -2.56865e-19 -5.93029e-05)
(7.52288e-22 2.44758e-19 -7.70855e-05)
(-8.51627e-22 -1.6159e-21 -9.73247e-05)
(-4.18525e-21 -1.56209e-23 -0.000120241)
(6.63916e-21 -1.83889e-21 -0.000146097)
(-3.9467e-21 -2.50585e-19 -0.000175199)
(5.14834e-21 2.27725e-19 -0.000207892)
(-1.13468e-20 4.52532e-19 -0.000244514)
(-4.81633e-21 -1.20682e-20 -0.000285403)
(-4.68432e-21 4.65627e-19 -0.000330993)
(4.07003e-22 -1.41347e-20 -0.000381831)
(-1.23219e-20 4.52217e-19 -0.000438431)
(1.2241e-20 -4.69654e-19 -0.000501245)
(-9.13482e-21 4.48536e-19 -0.000570751)
(2.37698e-21 -4.66535e-19 -0.00064747)
(5.20657e-21 -9.31022e-21 -0.000731955)
(-2.58493e-21 1.36739e-20 -0.000824814)
(5.52272e-21 -8.81387e-21 -0.000926764)
(-1.88021e-20 4.20582e-19 -0.00103869)
(1.69038e-20 -4.48264e-19 -0.00116174)
(1.83981e-20 -4.1656e-19 -0.00129747)
(-1.50992e-20 4.1848e-19 -0.00144806)
(-1.07977e-21 -5.15535e-21 -0.00161664)
(1.11753e-20 -1.20937e-22 -0.00180783)
(-1.27879e-20 -2.47035e-20 -0.00202874)
(5.30878e-20 -7.60957e-19 -0.00229065)
(1.65574e-20 5.6109e-20 -0.00261206)
(-6.99743e-20 7.16653e-19 -0.00302406)
(3.9435e-21 -1.23037e-20 -0.00357958)
(-1.14058e-20 -4.84526e-21 -0.00436866)
(1.09802e-19 -6.01846e-19 -0.00554287)
(-2.04276e-19 1.18211e-18 -0.00735189)
(2.084e-19 -1.17473e-18 -0.0101951)
(7.10575e-20 8.47959e-20 -0.0146881)
(-1.56702e-19 5.14486e-19 -0.0217387)
(-1.64563e-19 3.55086e-19 -0.0326174)
(1.55515e-19 -4.20951e-19 -0.0489947)
(-2.21408e-20 1.94044e-20 -0.0728998)
(5.46988e-20 -1.72718e-20 -0.106525)
(1.64279e-19 -1.02065e-19 -0.151757)
(-1.77825e-19 1.59302e-19 -0.20935)
(-2.53016e-20 -4.08343e-20 -0.271414)
(4.03697e-22 -3.11141e-20 1.62517e-05)
(-3.64176e-22 1.57332e-20 1.09376e-05)
(6.86568e-22 -1.70671e-22 3.38168e-06)
(-6.13753e-22 -1.54799e-20 -6.61572e-06)
(-9.59271e-22 -1.44004e-21 -1.91867e-05)
(3.32584e-21 -2.4298e-19 -3.44486e-05)
(-4.68844e-21 4.60121e-19 -5.25326e-05)
(2.28971e-21 -2.47742e-19 -7.35989e-05)
(-1.81986e-21 1.49469e-20 -9.78466e-05)
(4.83943e-21 -2.71305e-19 -0.00012552)
(-5.83061e-21 2.47551e-19 -0.000156916)
(-4.11277e-21 4.72653e-19 -0.000192389)
(1.07786e-20 -9.56265e-19 -0.000232356)
(-1.29746e-20 9.55252e-19 -0.000277308)
(1.72145e-20 -9.5082e-19 -0.000327794)
(-1.13244e-20 9.42336e-19 -0.000384367)
(-9.91092e-21 4.7936e-19 -0.000447586)
(-7.06309e-22 -3.76456e-21 -0.000518162)
(4.50529e-21 3.911e-21 -0.000596984)
(-7.642e-21 4.42255e-19 -0.00068491)
(-1.93556e-21 -4.64458e-19 -0.000782732)
(1.47879e-20 1.27434e-20 -0.000891307)
(-3.36588e-20 8.91842e-19 -0.00101158)
(2.55092e-20 -8.94799e-19 -0.00114459)
(2.27099e-21 -5.34571e-21 -0.00129147)
(-9.75129e-21 -9.10483e-23 -0.00145356)
(1.48237e-20 -1.35269e-20 -0.0016325)
(-4.81825e-21 1.23555e-22 -0.00183034)
(-5.29221e-21 -6.51378e-23 -0.00204976)
(5.0387e-21 1.9583e-22 -0.00229439)
(-3.7263e-21 1.43869e-21 -0.00256927)
(6.32251e-20 -7.90759e-19 -0.00288163)
(-5.73112e-20 8.1326e-19 -0.00324226)
(-1.60808e-20 2.06836e-22 -0.00366797)
(1.87307e-20 -1.03188e-20 -0.00418593)
(-9.90002e-20 7.26105e-19 -0.00484137)
(1.15544e-19 -7.29323e-19 -0.00571082)
(-2.27185e-20 2.20465e-21 -0.00692422)
(1.60535e-20 -9.24756e-23 -0.00869994)
(3.81691e-20 6.42639e-21 -0.0113975)
(-2.47896e-19 5.44972e-19 -0.0155916)
(3.6769e-19 -1.10482e-18 -0.0221674)
(-1.7953e-19 5.59837e-19 -0.0324301)
(2.60959e-19 -4.28535e-19 -0.04821)
(-2.52597e-19 5.04836e-19 -0.0719257)
(-5.88823e-19 5.211e-19 -0.106546)
(1.11186e-18 -1.10428e-18 -0.155327)
(-5.444e-19 5.57628e-19 -0.221064)
(1.87929e-20 -2.15847e-21 -0.304511)
(4.52949e-21 -3.49907e-20 -0.384311)
(-7.33792e-22 1.58138e-20 1.87862e-05)
(-2.8646e-22 6.05653e-20 1.03472e-05)
(2.00061e-21 -1.83894e-19 -1.70616e-06)
(-1.35699e-21 2.46774e-19 -1.739e-05)
(-2.44547e-22 -1.09276e-19 -3.67355e-05)
(1.14067e-22 -1.46089e-20 -5.98362e-05)
(-4.73651e-22 1.53987e-20 -8.68559e-05)
(3.02314e-21 -1.86294e-22 -0.000118029)
(-2.87352e-21 -1.5053e-20 -0.00015366)
(-5.23755e-21 3.37534e-20 -0.000194127)
(-7.00113e-21 4.80716e-19 -0.000239887)
(1.84324e-20 -4.99628e-19 -0.000291481)
(-2.27479e-20 4.66108e-19 -0.000349545)
(1.89585e-20 -4.84855e-19 -0.00041482)
(-3.00227e-21 3.39236e-21 -0.000488138)
(1.09741e-20 4.75471e-23 -0.000570354)
(4.17286e-21 3.71087e-21 -0.000662348)
(-5.29612e-21 4.52994e-19 -0.000765229)
(2.02409e-20 -4.90202e-19 -0.000880367)
(6.33149e-21 2.69096e-20 -0.00100913)
(-4.57739e-20 9.34071e-19 -0.00115282)
(2.91355e-20 -9.36722e-19 -0.00131292)
(1.01647e-20 2.26142e-20 -0.00149104)
(-1.80276e-20 -2.33011e-22 -0.00168899)
(1.17964e-20 9.62768e-21 -0.00190881)
(-3.88927e-20 8.9776e-19 -0.00215287)
(3.21082e-20 -8.89321e-19 -0.002424)
(2.83437e-21 9.61262e-21 -0.00272572)
(9.53039e-21 2.72492e-20 -0.00306247)
(-1.14967e-20 -5.49116e-22 -0.00344002)
(1.17967e-21 -1.30312e-20 -0.00386612)
(-3.7286e-20 1.32325e-20 -0.00435151)
(3.50747e-20 1.26056e-20 -0.00491166)
(-3.11383e-21 -2.52476e-20 -0.00557001)
(8.26871e-20 -7.39733e-19 -0.00636355)
(-7.37479e-20 7.62475e-19 -0.00735295)
(2.6997e-19 -1.46725e-18 -0.00863996)
(-2.47566e-19 1.48146e-18 -0.0103966)
(3.06884e-19 -1.38636e-18 -0.0129115)
(7.15773e-20 1.31903e-19 -0.0166603)
(-3.52874e-19 1.32089e-18 -0.0224041)
(-1.20721e-19 -2.21646e-20 -0.0313174)
(1.64322e-20 3.86553e-22 -0.0451379)
(-1.83169e-20 5.61102e-22 -0.0663191)
(5.41027e-20 1.66212e-21 -0.098154)
(2.60272e-20 1.3573e-20 -0.14481)
(-1.12938e-19 5.13091e-21 -0.211119)
(6.43126e-20 4.97404e-21 -0.301603)
(-1.6487e-22 -3.09525e-22 -0.417523)
(3.59985e-20 6.37711e-22 -0.511405)
(-7.17753e-22 7.623e-20 1.91998e-05)
(1.64847e-21 -4.64811e-20 5.13938e-06)
(-1.66252e-21 -1.63867e-20 -1.41948e-05)
(4.69233e-21 -2.27747e-19 -3.83624e-05)
(-2.31668e-21 2.29619e-19 -6.72907e-05)
(2.06463e-21 -2.27202e-19 -0.00010111)
(-1.10279e-20 5.01018e-19 -0.000140088)
(1.16659e-20 -7.01644e-19 -0.000184605)
(-7.5393e-21 4.96147e-19 -0.000235138)
(-5.999e-21 4.83667e-19 -0.000292271)
(-2.20184e-21 3.95935e-21 -0.000356692)
(2.45362e-20 -9.50107e-19 -0.000429209)
(-2.1477e-20 9.88741e-19 -0.000510761)
(5.18885e-21 -4.65162e-19 -0.000602439)
(1.2174e-20 -4.67433e-19 -0.000705471)
(2.24883e-20 -4.59925e-19 -0.000821139)
(-3.24853e-21 6.6453e-21 -0.000950791)
(3.84918e-20 -9.53766e-19 -0.00109611)
(2.98632e-20 -9.15687e-19 -0.00125915)
(6.58453e-21 2.11928e-20 -0.00144201)
(-2.69376e-20 9.51044e-19 -0.00164682)
(-2.00973e-20 -8.06769e-21 -0.00187598)
(1.2271e-20 8.93403e-21 -0.00213218)
(-5.10987e-20 9.208e-19 -0.00241845)
(4.15827e-20 -9.35328e-19 -0.00273825)
(7.31856e-20 -8.98405e-19 -0.00309562)
(-7.44125e-20 9.27978e-19 -0.00349533)
(1.50472e-20 -1.99853e-20 -0.00394318)
(6.82058e-20 -8.9556e-19 -0.00444634)
(-9.59168e-20 9.18399e-19 -0.00501389)
(4.36796e-21 1.23299e-20 -0.00565752)
(-2.08079e-19 1.68187e-18 -0.00639288)
(1.88271e-19 -1.74489e-18 -0.00724166)
(4.84172e-20 6.19711e-20 -0.0082354)
(-2.68153e-19 1.59182e-18 -0.00942239)
(2.45906e-19 -1.65976e-18 -0.0108798)
(-3.1538e-20 -3.29808e-21 -0.0127352)
(4.72369e-19 -1.49651e-18 -0.0152025)
(-4.42203e-19 1.5455e-18 -0.0186405)
(-6.6157e-20 -7.23931e-20 -0.0236411)
(6.787e-19 -1.30605e-18 -0.0311565)
(-1.19446e-18 2.69332e-18 -0.0426648)
(-6.58248e-20 -1.55226e-19 -0.0603698)
(-8.81414e-20 -1.21791e-19 -0.0874215)
(7.70486e-19 -1.1725e-18 -0.128147)
(3.94537e-20 6.29153e-20 -0.188312)
(-8.68998e-19 7.77007e-19 -0.275409)
(8.52053e-19 -8.54486e-19 -0.398442)
(9.21057e-21 2.89321e-20 -0.563857)
(9.32543e-21 -2.72842e-21 -0.6776)
(6.06373e-22 -1.5875e-20 1.64487e-05)
(1.68876e-21 -1.35424e-19 -9.13883e-06)
(-1.80991e-21 1.22131e-19 -3.98975e-05)
(-1.26826e-21 -1.71901e-20 -7.58963e-05)
(5.34415e-21 -2.26333e-19 -0.000117371)
(-4.93428e-21 2.3278e-19 -0.000164673)
(-5.85052e-21 4.70223e-19 -0.000218274)
(-5.09559e-21 -1.94347e-20 -0.000278751)
(2.20574e-21 -4.56505e-21 -0.000346788)
(1.4473e-20 -5.01426e-19 -0.000423184)
(-1.18078e-20 4.6917e-19 -0.00050886)
(1.78027e-20 -9.92583e-19 -0.000604882)
(-4.11312e-21 4.96149e-19 -0.000712469)
(-3.644e-21 -1.86642e-20 -0.000833026)
(-4.86331e-21 -2.23288e-20 -0.000968124)
(2.8647e-20 -9.739e-19 -0.00111941)
(-1.62e-21 -2.01555e-20 -0.00128862)
(2.75547e-20 -9.91995e-19 -0.00147787)
(-5.39942e-21 -7.71109e-21 -0.00168975)
(-1.69774e-22 1.19237e-22 -0.0019269)
(1.14415e-20 8.43197e-21 -0.00219201)
(-5.32784e-20 9.54401e-19 -0.00248803)
(4.75448e-20 -9.74873e-19 -0.00281829)
(1.27708e-20 8.33662e-21 -0.00318645)
(-8.7003e-21 -1.49404e-20 -0.00359656)
(-6.1702e-21 9.90196e-21 -0.00405324)
(-7.46818e-20 9.21248e-19 -0.00456175)
(1.60468e-19 -1.87936e-18 -0.00512823)
(-7.61342e-20 9.79989e-19 -0.00575991)
(-1.93141e-19 1.81628e-18 -0.0064655)
(-3.04663e-20 -4.5499e-20 -0.00725573)
(2.57588e-21 -2.64962e-20 -0.0081443)
(-6.61078e-20 -5.38201e-20 -0.00914967)
(2.60313e-19 -1.81504e-18 -0.0102984)
(4.00134e-19 -1.68035e-18 -0.0116317)
(-3.57407e-19 1.76351e-18 -0.0132178)
(-3.39385e-20 -5.4902e-20 -0.015174)
(4.74022e-19 -1.60679e-18 -0.017707)
(-4.1832e-19 1.70176e-18 -0.0211788)
(-6.68615e-19 1.5117e-18 -0.026212)
(5.68651e-19 -1.59642e-18 -0.0338462)
(7.81988e-20 -1.12034e-20 -0.0457519)
(8.6867e-19 -1.41071e-18 -0.0645002)
(1.20828e-19 1.22065e-19 -0.0938799)
(-1.00343e-18 1.3818e-18 -0.139266)
(-1.62227e-20 -3.9574e-20 -0.208116)
(3.3524e-20 5.26193e-22 -0.311314)
(-3.38942e-20 1.56357e-20 -0.468058)
(-5.12124e-19 5.35846e-19 -0.715411)
(5.03474e-19 -5.45032e-19 -0.982993)
(-1.07209e-20 -3.15488e-21 0.0102446)
(-1.0723e-20 -5.64023e-22 0.00508768)
(1.00546e-20 1.00929e-20 0.000726702)
(-6.99057e-21 2.40531e-21 -0.00291225)
(7.51281e-21 -1.18321e-20 -0.00590928)
(4.33014e-23 3.48899e-21 -0.00834692)
(-1.69821e-22 -9.63384e-23 -0.010301)
(-5.43834e-21 1.18942e-23 -0.0118359)
(5.28588e-21 -1.15607e-23 -0.0130102)
(-1.5612e-22 3.4145e-25 -0.0138735)
(-1.48468e-22 3.24715e-25 -0.0144664)
(4.30356e-21 -9.41231e-24 -0.0148253)
(-4.31739e-21 9.44256e-24 -0.0149825)
(-3.73219e-21 8.16266e-24 -0.0149655)
(3.40018e-22 -8.33447e-22 -0.0147997)
(5.98451e-21 1.27189e-20 -0.0145084)
(-2.46772e-21 -1.02374e-20 -0.0141126)
(-5.57663e-23 -7.84996e-22 -0.0136312)
(-1.91303e-23 5.28993e-22 -0.0130814)
(-2.54228e-21 -2.69481e-20 -0.0124787)
(2.57288e-21 2.63125e-20 -0.0118368)
(-1.91399e-21 -3.1697e-20 -0.0111672)
(1.11893e-21 1.93038e-21 -0.0104807)
(-1.34706e-21 9.85688e-24 -0.00978747)
(9.18835e-22 2.79654e-21 -0.00909676)
(-3.24167e-22 1.7507e-23 -0.00841575)
(-6.59998e-22 1.44348e-24 -0.00775019)
(2.91732e-22 -6.67318e-24 -0.00710504)
(2.27587e-22 3.75957e-21 -0.00648447)
(-9.0134e-24 8.58693e-24 -0.0058918)
(-2.18894e-22 -4.21165e-21 -0.00532953)
(2.10344e-22 4.4236e-21 -0.00479948)
(-2.21574e-22 -4.61979e-21 -0.00430282)
(1.01779e-21 4.41064e-20 -0.0038402)
(-9.93761e-22 -4.44311e-20 -0.00341173)
(-4.8966e-22 -3.69916e-20 -0.00301712)
(1.13928e-21 8.06213e-20 -0.0026557)
(-6.37081e-22 -4.38058e-20 -0.00232649)
(-9.24679e-23 -5.69136e-21 -0.00202825)
(9.04856e-23 5.88e-21 -0.00175952)
(-5.71816e-23 3.43162e-25 -0.00151868)
(2.08047e-22 6.13884e-21 -0.001304)
(-3.39598e-22 -3.16354e-20 -0.00111365)
(3.07335e-22 3.18489e-20 -0.000945775)
(-7.06296e-23 -6.54372e-21 -0.000798481)
(1.98682e-22 2.00183e-20 -0.000669898)
(2.77502e-23 -6.66972e-21 -0.000558175)
(-1.21978e-22 -1.37305e-20 -0.000461483)
(2.92069e-23 6.90606e-21 -0.000377991)
(-8.78348e-23 -7.03985e-21 -0.000305874)
(-1.54672e-20 2.53654e-20 0.029652)
(3.13814e-20 -9.19202e-21 0.0143119)
(-2.54068e-20 -2.27226e-20 0.00124711)
(7.8231e-21 2.27042e-20 -0.00956962)
(-8.24326e-21 -2.21699e-20 -0.0184155)
(-1.25074e-20 6.13009e-21 -0.0255664)
(1.10643e-20 6.50605e-21 -0.0312686)
(7.39198e-21 1.10654e-20 -0.0357257)
(5.09274e-21 -2.24367e-20 -0.0391151)
(-2.17666e-20 6.18217e-21 -0.0415872)
(2.00378e-20 -4.96723e-21 -0.0432645)
(4.743e-21 1.31246e-20 -0.0442557)
(-1.60898e-20 1.22774e-22 -0.0446556)
(-1.79831e-20 -3.41848e-20 -0.0445459)
(6.75797e-21 -1.96205e-20 -0.0440023)
(1.86788e-20 4.15201e-20 -0.0430933)
(-6.47772e-21 2.93464e-21 -0.0418804)
(-7.73475e-22 -2.54673e-21 -0.0404196)
(1.03503e-23 -9.22256e-23 -0.0387613)
(4.93187e-22 -1.07865e-24 -0.0369512)
(1.3736e-21 2.0548e-23 -0.035029)
(-1.60706e-21 -3.37597e-21 -0.0330292)
(2.24115e-20 1.52468e-19 -0.0309821)
(-2.49143e-20 -1.63466e-19 -0.028918)
(2.46125e-20 1.85943e-19 -0.0268642)
(-1.28069e-20 -8.5751e-20 -0.0248417)
(-2.40362e-20 -2.13821e-19 -0.0228671)
(1.15333e-20 1.09708e-19 -0.0209547)
(2.22805e-22 -3.45816e-21 -0.0191167)
(-1.15243e-21 -8.14672e-21 -0.0173625)
(4.79339e-22 4.21669e-21 -0.0156994)
(-1.07083e-21 -1.34142e-20 -0.0141325)
(9.07326e-21 1.47477e-19 -0.0126652)
(-1.90747e-20 -3.15917e-19 -0.011299)
(8.62307e-21 1.53736e-19 -0.0100343)
(-9.88444e-22 -1.5792e-20 -0.00887007)
(2.86047e-22 5.40541e-21 -0.00780421)
(-2.31753e-23 -6.83306e-23 -0.00683373)
(-3.98603e-21 -9.86607e-20 -0.00595489)
(3.3912e-21 8.7343e-20 -0.00516331)
(2.46603e-21 8.52784e-20 -0.00445416)
(-3.63062e-21 -1.1628e-19 -0.00382227)
(8.65971e-23 6.3902e-21 -0.00326221)
(7.53547e-22 3.24471e-20 -0.00276845)
(-1.65937e-21 -5.84531e-20 -0.0023354)
(3.27795e-23 -6.62838e-21 -0.00195751)
(-1.03731e-21 -4.74096e-20 -0.00162931)
(-1.93035e-22 -7.15929e-21 -0.00134534)
(2.42226e-22 1.36541e-20 -0.00110012)
(2.89538e-22 2.09839e-20 -0.000888003)
(-1.42535e-20 -1.05406e-21 0.0457714)
(-1.46798e-20 -1.61036e-20 0.0204805)
(3.69336e-20 3.01713e-20 -0.00121131)
(-4.40487e-20 -1.25978e-20 -0.0188608)
(1.81501e-20 1.19368e-20 -0.0330781)
(1.83754e-20 1.46968e-20 -0.0444286)
(-9.55341e-21 -5.28253e-20 -0.053382)
(3.01692e-20 -3.84862e-21 -0.0603078)
(-2.73389e-20 4.42037e-20 -0.0655059)
(-4.21645e-20 -2.17633e-20 -0.069233)
(7.94687e-20 1.65678e-20 -0.0716954)
(-5.03501e-20 7.93505e-23 -0.0730652)
(5.77216e-21 -1.11054e-20 -0.0734955)
(-3.09388e-21 -7.88009e-21 -0.0731222)
(7.61212e-20 1.08655e-19 -0.0720668)
(-3.17897e-21 3.80098e-20 -0.0704386)
(-7.01236e-20 -1.30399e-19 -0.0683363)
(9.65268e-21 -1.44388e-21 -0.0658491)
(-5.87365e-21 2.19885e-22 -0.0630578)
(2.68879e-22 -1.96154e-21 -0.0600349)
(4.12773e-20 1.39855e-19 -0.056844)
(-4.06492e-20 -1.29991e-19 -0.0535392)
(-4.14559e-20 -1.67101e-19 -0.0501698)
(4.45593e-20 1.7274e-19 -0.0467811)
(4.0191e-22 7.70185e-21 -0.0434167)
(-9.38396e-22 -6.62607e-21 -0.0401122)
(6.21196e-22 7.55955e-21 -0.036892)
(-3.58717e-20 -2.36579e-19 -0.0337785)
(3.86285e-20 2.43687e-19 -0.0307905)
(-3.42218e-20 -2.54799e-19 -0.0279426)
(3.65768e-20 2.71755e-19 -0.0252459)
(8.34235e-22 9.30489e-21 -0.022708)
(3.16873e-20 3.10253e-19 -0.0203338)
(-6.15793e-20 -6.23308e-19 -0.0181257)
(3.13162e-20 3.33247e-19 -0.0160834)
(1.47459e-20 1.82904e-19 -0.0142051)
(-1.31116e-20 -1.61754e-19 -0.0124869)
(3.37811e-22 7.11698e-23 -0.0109239)
(-5.4039e-22 -1.03309e-22 -0.0095096)
(-6.22026e-23 1.26735e-22 -0.00823678)
(1.02064e-20 1.95992e-19 -0.00709744)
(-9.87904e-21 -1.84203e-19 -0.00608304)
(8.1606e-22 1.28051e-20 -0.0051847)
(-4.51233e-22 -7.82727e-24 -0.00439337)
(3.8406e-21 1.05325e-19 -0.00369994)
(-7.07903e-21 -1.99412e-19 -0.00309538)
(3.48259e-21 1.07281e-19 -0.00257076)
(-1.76739e-21 -5.50981e-20 -0.0021172)
(1.33386e-21 4.11527e-20 -0.00172555)
(3.16145e-22 1.38226e-20 -0.00138581)
(1.90763e-21 2.69816e-20 0.0554642)
(8.7507e-21 -5.48276e-20 0.0207029)
(-7.07011e-20 1.77325e-20 -0.00927204)
(1.09237e-19 7.50215e-20 -0.0329748)
(-2.25683e-20 -1.05788e-19 -0.0516171)
(-4.66039e-21 3.22574e-20 -0.066215)
(-1.10285e-20 9.68222e-21 -0.0775311)
(8.5823e-21 2.03589e-20 -0.0861346)
(-6.0855e-20 -3.14165e-20 -0.0924574)
(8.91949e-20 -2.12017e-21 -0.0968528)
(-2.48514e-20 1.28608e-20 -0.099601)
(-1.27158e-20 6.87776e-22 -0.100934)
(1.80882e-20 9.71543e-21 -0.101058)
(-1.04966e-19 -1.27947e-19 -0.100152)
(8.89215e-20 1.06982e-19 -0.0983767)
(-7.51121e-21 1.35594e-20 -0.0958737)
(6.95248e-21 -8.33685e-21 -0.092773)
(1.0734e-19 2.28227e-19 -0.089191)
(-1.10537e-19 -2.15857e-19 -0.0852329)
(-3.59759e-22 -1.03951e-20 -0.0809932)
(-1.88067e-21 -7.39041e-23 -0.0765546)
(2.1841e-21 4.68567e-22 -0.0719889)
(1.37405e-21 -5.02757e-23 -0.0673563)
(-2.3742e-21 6.23948e-21 -0.062717)
(3.30202e-21 4.06442e-22 -0.0581263)
(1.26192e-21 8.21157e-21 -0.0536294)
(-1.11059e-19 -4.92195e-19 -0.0492614)
(1.1105e-19 4.82649e-19 -0.0450479)
(-1.86436e-21 1.78659e-21 -0.0410128)
(-4.84698e-20 -2.82356e-19 -0.0371741)
(5.17582e-20 2.91315e-19 -0.0335456)
(-2.23919e-22 3.25474e-22 -0.0301365)
(-1.90343e-22 -2.59117e-22 -0.0269522)
(-4.36479e-20 -3.40351e-19 -0.0239949)
(8.43058e-20 6.82193e-19 -0.0212636)
(-7.85699e-20 -6.92725e-19 -0.018755)
(7.48969e-20 7.13066e-19 -0.0164633)
(-7.05653e-20 -7.32284e-19 -0.0143812)
(3.40739e-20 3.71162e-19 -0.0124997)
(1.50005e-20 1.93651e-19 -0.0108085)
(-1.31834e-20 -1.69628e-19 -0.00929654)
(-1.09708e-21 -1.25726e-20 -0.00795213)
(-1.2266e-20 -2.04746e-19 -0.00676308)
(2.56512e-20 4.39472e-19 -0.00571705)
(-1.17862e-20 -2.08837e-19 -0.00480169)
(1.17616e-22 2.00119e-22 -0.00400476)
(4.79735e-22 1.34642e-20 -0.0033142)
(-1.02186e-22 -7.3858e-23 -0.00271792)
(-4.62741e-22 -1.37756e-20 -0.00220316)
(9.95135e-22 2.79282e-20 -0.00175494)
(2.75056e-20 9.78553e-23 0.054555)
(3.40662e-22 3.95042e-22 0.0108517)
(-6.19979e-20 4.1842e-22 -0.0264405)
(9.14097e-20 -3.61359e-22 -0.05464)
(-2.74101e-20 -1.79773e-22 -0.0760563)
(-4.34352e-20 -8.84447e-22 -0.0923755)
(1.4458e-20 2.64247e-22 -0.10471)
(-1.13079e-20 -4.69204e-22 -0.113832)
(9.07548e-20 -2.49501e-20 -0.120302)
(8.46777e-20 1.59724e-19 -0.124546)
(5.57666e-21 8.09624e-20 -0.126903)
(-1.21411e-19 -2.2027e-19 -0.127652)
(1.76774e-19 2.77985e-19 -0.127031)
(-1.94582e-19 -2.70093e-19 -0.125248)
(9.61162e-20 1.78604e-19 -0.12249)
(-1.07415e-19 -1.87248e-19 -0.118921)
(5.3584e-21 -4.56679e-21 -0.114693)
(-2.23976e-20 -3.33166e-21 -0.109939)
(1.81275e-20 -5.04128e-21 -0.104781)