/*--------------------------------*- C++ -*----------------------------------*\
| =========                 |                                                 |
| \\      /  F ield         | OpenFOAM: The Open Source CFD Toolbox           |
|  \\    /   O peration     | Version:  2412                                  |
|   \\  /    A nd           | Website:  www.openfoam.com                      |
|    \\/     M anipulation  |                                                 |
\*---------------------------------------------------------------------------*/
FoamFile
{
    version     2.0;
    format      ascii;
    arch        "LSB;label=32;scalar=64";
    class       volVectorField;
    location    "22";
    object      U;
}
// * * * * * * * * * * * * * * * * * * * * * * * * * * * * * * * * * * * * * //

dimensions      [0 1 -1 0 0 0 0];

internalField   nonuniform List<vector> 
5285
(
(0.109485 -0.00154805 0)
(0.109549 -0.00128671 0)
(0.1096 -0.00102255 0)
(0.109639 -0.00075608 0)
(0.109666 -0.000487952 0)
(0.109679 -0.000218924 0)
(0.10968 5.02478e-05 0)
(0.109668 0.000318832 0)
(0.109644 0.000586113 0)
(0.109607 0.000851391 0)
(0.109558 0.00111399 0)
(0.109497 0.00137327 0)
(0.109424 0.00162861 0)
(0.10934 0.00187944 0)
(0.109245 0.00212519 0)
(0.109139 0.00236538 0)
(0.109024 0.00259952 0)
(0.108898 0.00282716 0)
(0.108764 0.0030479 0)
(0.108621 0.00326135 0)
(0.108469 0.00346715 0)
(0.108311 0.00366497 0)
(0.108145 0.00385449 0)
(0.107973 0.00403544 0)
(0.109751 -0.00161988 0)
(0.109819 -0.00134581 0)
(0.109872 -0.00106883 0)
(0.109913 -0.000789419 0)
(0.109941 -0.000508246 0)
(0.109955 -0.000226129 0)
(0.109955 5.61135e-05 0)
(0.109942 0.000337693 0)
(0.109916 0.00061784 0)
(0.109876 0.000895802 0)
(0.109824 0.00117085 0)
(0.109759 0.0014423 0)
(0.109681 0.00170948 0)
(0.109592 0.00197177 0)
(0.109491 0.00222859 0)
(0.109378 0.00247939 0)
(0.109255 0.00272365 0)
(0.109122 0.00296091 0)
(0.10898 0.00319073 0)
(0.108828 0.00341269 0)
(0.108668 0.00362642 0)
(0.1085 0.00383157 0)
(0.108325 0.0040278 0)
(0.108144 0.00421484 0)
(0.11003 -0.00169573 0)
(0.110101 -0.00140818 0)
(0.110157 -0.00111759 0)
(0.1102 -0.000824426 0)
(0.110229 -0.000529389 0)
(0.110244 -0.000233366 0)
(0.110244 6.27593e-05 0)
(0.11023 0.000358137 0)
(0.110201 0.000651937 0)
(0.110159 0.000943351 0)
(0.110103 0.0012316 0)
(0.110033 0.00151593 0)
(0.10995 0.00179564 0)
(0.109855 0.00207006 0)
(0.109748 0.00233855 0)
(0.109628 0.00260053 0)
(0.109498 0.00285546 0)
(0.109356 0.00310282 0)
(0.109205 0.00334215 0)
(0.109044 0.00357302 0)
(0.108875 0.00379501 0)
(0.108697 0.00400777 0)
(0.108512 0.00421095 0)
(0.10832 0.00440427 0)
(0.110322 -0.00177594 0)
(0.110397 -0.0014741 0)
(0.110457 -0.00116902 0)
(0.110502 -0.000861216 0)
(0.110532 -0.00055143 0)
(0.110547 -0.000240619 0)
(0.110547 7.02621e-05 0)
(0.110531 0.000380299 0)
(0.110501 0.000688598 0)
(0.110455 0.000994287 0)
(0.110395 0.00129653 0)
(0.110321 0.00159452 0)
(0.110233 0.00188749 0)
(0.110131 0.00217472 0)
(0.110016 0.00245554 0)
(0.109889 0.00272932 0)
(0.109751 0.00299547 0)
(0.109601 0.00325345 0)
(0.10944 0.00350276 0)
(0.10927 0.00374293 0)
(0.10909 0.00397355 0)
(0.108902 0.00419422 0)
(0.108706 0.00440459 0)
(0.108503 0.00460437 0)
(0.110629 -0.00186087 0)
(0.110709 -0.0015438 0)
(0.110771 -0.00122329 0)
(0.110819 -0.000899902 0)
(0.110851 -0.000574416 0)
(0.110866 -0.000247869 0)
(0.110865 7.87086e-05 0)
(0.110848 0.000404331 0)
(0.110815 0.000728034 0)
(0.110766 0.00104888 0)
(0.110702 0.00136597 0)
(0.110622 0.00167843 0)
(0.110528 0.00198544 0)
(0.11042 0.00228623 0)
(0.110298 0.00258008 0)
(0.110163 0.0028663 0)
(0.110015 0.00314427 0)
(0.109856 0.00341341 0)
(0.109685 0.00367318 0)
(0.109504 0.00392309 0)
(0.109314 0.0041627 0)
(0.109115 0.0043916 0)
(0.108908 0.00460942 0)
(0.108693 0.00481585 0)
(0.110951 -0.00195082 0)
(0.111036 -0.00161753 0)
(0.111102 -0.0012806 0)
(0.111152 -0.000940598 0)
(0.111185 -0.000598387 0)
(0.111201 -0.000255084 0)
(0.1112 8.82014e-05 0)
(0.111181 0.000430403 0)
(0.111145 0.000770483 0)
(0.111093 0.00110743 0)
(0.111024 0.00144027 0)
(0.110939 0.00176808 0)
(0.110838 0.00208997 0)
(0.110723 0.00240511 0)
(0.110593 0.00271271 0)
(0.110449 0.00301206 0)
(0.110292 0.00330248 0)
(0.110122 0.00358335 0)
(0.109941 0.0038541 0)
(0.109749 0.00411421 0)
(0.109547 0.0043632 0)
(0.109336 0.00460065 0)
(0.109117 0.00482618 0)
(0.10889 0.00503947 0)
(0.11129 -0.00204616 0)
(0.11138 -0.00169558 0)
(0.111449 -0.00134112 0)
(0.111502 -0.000983415 0)
(0.111537 -0.000623377 0)
(0.111554 -0.000262218 0)
(0.111551 9.88608e-05 0)
(0.111531 0.000458709 0)
(0.111492 0.000816209 0)
(0.111436 0.00117027 0)
(0.111362 0.00151984 0)
(0.111271 0.00186393 0)
(0.111164 0.00220158 0)
(0.11104 0.0025319 0)
(0.110902 0.00285405 0)
(0.110748 0.00316725 0)
(0.110581 0.00347079 0)
(0.110401 0.00376399 0)
(0.110208 0.00404626 0)
(0.110004 0.00431704 0)
(0.10979 0.00457582 0)
(0.109566 0.00482217 0)
(0.109334 0.00505568 0)
(0.109094 0.00527604 0)
(0.111647 -0.00214727 0)
(0.111743 -0.00177823 0)
(0.111815 -0.00140507 0)
(0.111871 -0.00102847 0)
(0.111908 -0.000649414 0)
(0.111924 -0.000269215 0)
(0.111922 0.000110827 0)
(0.111899 0.00048947 0)
(0.111857 0.000865507 0)
(0.111797 0.00123776 0)
(0.111717 0.00160511 0)
(0.11162 0.00196648 0)
(0.111505 0.00232083 0)
(0.111373 0.00266722 0)
(0.111225 0.00300475 0)
(0.111062 0.00333258 0)
(0.110884 0.00364993 0)
(0.110692 0.00395611 0)
(0.110487 0.00425046 0)
(0.11027 0.00453241 0)
(0.110043 0.00480141 0)
(0.109805 0.00505701 0)
(0.109559 0.00529879 0)
(0.109305 0.00552644 0)
(0.112023 -0.00225456 0)
(0.112124 -0.00186579 0)
(0.112201 -0.00147266 0)
(0.112259 -0.00107588 0)
(0.112298 -0.000676519 0)
(0.112315 -0.000276003 0)
(0.112311 0.000124262 0)
(0.112287 0.000522934 0)
(0.112241 0.000918709 0)
(0.112176 0.00131032 0)
(0.112091 0.00169656 0)
(0.111986 0.00207627 0)
(0.111863 0.00244834 0)
(0.111722 0.00281175 0)
(0.111564 0.00316553 0)
(0.11139 0.00350879 0)
(0.1112 0.00384071 0)
(0.110996 0.00416053 0)
(0.110778 0.00446757 0)
(0.110548 0.0047612 0)
(0.110306 0.00504087 0)
(0.110054 0.00530609 0)
(0.109793 0.00555644 0)
(0.109523 0.00579159 0)
(0.112418 -0.00236848 0)
(0.112526 -0.00195861 0)
(0.112607 -0.00154411 0)
(0.112669 -0.00112576 0)
(0.112709 -0.000704705 0)
(0.112727 -0.000282492 0)
(0.112722 0.000139355 0)
(0.112695 0.000559385 0)
(0.112646 0.00097619 0)
(0.112575 0.00138841 0)
(0.112483 0.00179473 0)
(0.112371 0.00219391 0)
(0.11224 0.00258477 0)
(0.112089 0.0029662 0)
(0.11192 0.00333718 0)
(0.111734 0.00369674 0)
(0.111531 0.00404401 0)
(0.111314 0.00437819 0)
(0.111082 0.00469854 0)
(0.110837 0.0050044 0)
(0.11058 0.0052952 0)
(0.110312 0.00557043 0)
(0.110035 0.00582964 0)
(0.109749 0.00607251 0)
(0.112836 -0.0024895 0)
(0.11295 -0.00205703 0)
(0.113035 -0.00161966 0)
(0.1131 -0.00117823 0)
(0.113143 -0.000733969 0)
(0.113161 -0.000288565 0)
(0.113154 0.00015633 0)
(0.113125 0.000599148 0)
(0.113071 0.00103837 0)
(0.112995 0.00147253 0)
(0.112896 0.00190021 0)
(0.112776 0.00232008 0)
(0.112635 0.00273087 0)
(0.112473 0.0031314 0)
(0.112293 0.00352057 0)
(0.112094 0.00389734 0)
(0.111878 0.00426079 0)
(0.111646 0.00461006 0)
(0.111399 0.00494438 0)
(0.111138 0.00526305 0)
(0.110865 0.00556546 0)
(0.110581 0.00585109 0)
(0.110286 0.00611948 0)
(0.109983 0.00637029 0)
(0.113276 -0.00261813 0)
(0.113398 -0.00216142 0)
(0.113487 -0.00169955 0)
(0.113556 -0.00123339 0)
(0.1136 -0.00076429 0)
(0.113618 -0.00029408 0)
(0.113611 0.000175448 0)
(0.113578 0.000642597 0)
(0.11352 0.00110573 0)
(0.113437 0.00156326 0)
(0.113331 0.00201367 0)
(0.113202 0.00245553 0)
(0.11305 0.00288747 0)
(0.112877 0.00330824 0)
(0.112684 0.00371665 0)
(0.112471 0.0041116 0)
(0.112241 0.00449211 0)
(0.111993 0.00485725 0)
(0.11173 0.00520623 0)
(0.111452 0.0055383 0)
(0.111161 0.00585282 0)
(0.110859 0.00614925 0)
(0.110546 0.00642713 0)
(0.110225 0.00668611 0)
(0.113741 -0.00275491 0)
(0.11387 -0.00227219 0)
(0.113965 -0.00178401 0)
(0.114037 -0.00129133 0)
(0.114084 -0.000795619 0)
(0.114102 -0.000298853 0)
(0.114092 0.000197021 0)
(0.114056 0.000690165 0)
(0.113993 0.00117881 0)
(0.113903 0.00166125 0)
(0.113789 0.00213586 0)
(0.113649 0.00260109 0)
(0.113486 0.00305549 0)
(0.113301 0.00349771 0)
(0.113094 0.00392647 0)
(0.112866 0.00434062 0)
(0.11262 0.0047391 0)
(0.112355 0.00512095 0)
(0.112075 0.00548529 0)
(0.111779 0.00583138 0)
(0.111469 0.00615853 0)
(0.111148 0.00646618 0)
(0.110815 0.00675386 0)
(0.110474 0.00702123 0)
(0.114232 -0.0029004 0)
(0.11437 -0.00238971 0)
(0.11447 -0.00187327 0)
(0.114546 -0.00135213 0)
(0.114594 -0.000827872 0)
(0.114612 -0.00030265 0)
(0.114601 0.000221421 0)
(0.11456 0.000742355 0)
(0.114491 0.00125824 0)
(0.114394 0.00176725 0)
(0.11427 0.00226762 0)
(0.11412 0.0027577 0)
(0.113945 0.00323594 0)
(0.113746 0.00370089 0)
(0.113524 0.0041512 0)
(0.11328 0.00458563 0)
(0.113016 0.00500305 0)
(0.112734 0.00540245 0)
(0.112434 0.00578292 0)
(0.112119 0.00614366 0)
(0.111789 0.00648397 0)
(0.111446 0.00680326 0)
(0.111093 0.00710105 0)
(0.11073 0.00737701 0)
(0.114752 -0.00305521 0)
(0.114899 -0.00251439 0)
(0.115004 -0.00196756 0)
(0.115084 -0.00141583 0)
(0.115134 -0.000860921 0)
(0.115151 -0.000305183 0)
(0.115137 0.000249092 0)
(0.115092 0.000799754 0)
(0.115017 0.00134474 0)
(0.114911 0.00188208 0)
(0.114777 0.0024099 0)
(0.114615 0.00292641 0)
(0.114427 0.00342997 0)
(0.114212 0.00391902 0)
(0.113974 0.00439213 0)
(0.113713 0.00484796 0)
(0.113431 0.00528534 0)
(0.113128 0.00570319 0)
(0.112808 0.00610056 0)
(0.112472 0.00647661 0)
(0.11212 0.00683062 0)
(0.111755 0.00716196 0)
(0.111379 0.00747017 0)
(0.110994 0.00775491 0)
(0.115303 -0.00321993 0)
(0.115458 -0.00264663 0)
(0.115569 -0.00206706 0)
(0.115653 -0.00148241 0)
(0.115704 -0.000894569 0)
(0.115721 -0.000306076 0)
(0.115704 0.000280574 0)
(0.115654 0.000863055 0)
(0.115571 0.00143915 0)
(0.115456 0.00200672 0)
(0.115311 0.00256377 0)
(0.115136 0.0031084 0)
(0.114932 0.00363884 0)
(0.114702 0.00415343 0)
(0.114446 0.00465066 0)
(0.114165 0.0051291 0)
(0.113863 0.00558749 0)
(0.11354 0.00602473 0)
(0.113197 0.00643981 0)
(0.112838 0.00683184 0)
(0.112463 0.00720009 0)
(0.112074 0.00754391 0)
(0.111674 0.00786283 0)
(0.111264 0.00815652 0)
(0.115886 -0.00339519 0)
(0.116051 -0.0027868 0)
(0.116167 -0.0021719 0)
(0.116255 -0.0015518 0)
(0.116308 -0.000928512 0)
(0.116324 -0.000304826 0)
(0.116303 0.000316552 0)
(0.116247 0.000933111 0)
(0.116155 0.00154246 0)
(0.11603 0.00214231 0)
(0.115872 0.00273051 0)
(0.115682 0.00330503 0)
(0.115463 0.00386399 0)
(0.115214 0.00440567 0)
(0.114939 0.00492836 0)
(0.114638 0.00543066 0)
(0.114313 0.00591119 0)
(0.113967 0.00636879 0)
(0.113601 0.00680239 0)
(0.113216 0.0072111 0)
(0.112816 0.00759412 0)
(0.112402 0.00795083 0)
(0.111976 0.00828073 0)
(0.111539 0.00858351 0)
(0.116504 -0.00358156 0)
(0.11668 -0.00293519 0)
(0.116801 -0.00228215 0)
(0.116893 -0.00162379 0)
(0.116947 -0.00096233 0)
(0.116961 -0.000300799 0)
(0.116936 0.000357861 0)
(0.116872 0.00101094 0)
(0.116771 0.00165585 0)
(0.116634 0.00229015 0)
(0.116462 0.00291154 0)
(0.116256 0.00351785 0)
(0.116018 0.00410709 0)
(0.11575 0.0046774 0)
(0.115453 0.00522712 0)
(0.11513 0.0057545 0)
(0.114781 0.00625831 0)
(0.11441 0.00673725 0)
(0.114018 0.00719023 0)
(0.113607 0.00761629 0)
(0.11318 0.00801463 0)
(0.112738 0.0083846 0)
(0.112283 0.00872572 0)
(0.111819 0.00903769 0)
(0.11631 0.00497066 0)
(0.11599 0.00554875 0)
(0.115641 0.00610271 0)
(0.115267 0.00663094 0)
(0.114868 0.00713222 0)
(0.114448 0.0076054 0)
(0.114008 0.00804948 0)
(0.113552 0.00846364 0)
(0.11308 0.00884723 0)
(0.112595 0.00919975 0)
(0.112101 0.00952094 0)
(0.108755 -0.00315931 -4.09973e-25)
(0.108887 -0.00294746 -5.11667e-25)
(0.10901 -0.002729 -1.02342e-24)
(0.109125 -0.00250438 2.13344e-24)
(0.10923 -0.00227411 -2.32498e-24)
(0.109325 -0.00203874 -7.62833e-24)
(0.10941 -0.00179869 1.26618e-24)
(0.108964 -0.00329757 -4.52491e-25)
(0.109105 -0.00307696 -1.11714e-24)
(0.109236 -0.00284955 -3.37726e-24)
(0.109359 -0.00261585 -1.11968e-24)
(0.109472 -0.00237641 2.41946e-24)
(0.109575 -0.00213176 3.77933e-24)
(0.109669 -0.00188217 1.32711e-23)
(0.109183 -0.00344352 -5.34436e-26)
(0.109332 -0.00321368 -8.27185e-25)
(0.109472 -0.00297688 4.38745e-24)
(0.109604 -0.00273366 -1.05594e-25)
(0.109726 -0.00248455 1.13939e-23)
(0.109838 -0.00223007 1.41772e-24)
(0.109941 -0.00197029 -1.19199e-23)
(0.109411 -0.00359765 5.5654e-25)
(0.109569 -0.00335814 4.5148e-25)
(0.109719 -0.00311149 -1.08793e-23)
(0.109859 -0.00285826 1.33925e-24)
(0.109991 -0.002599 -2.39814e-23)
(0.110112 -0.00233417 2.48685e-23)
(0.110225 -0.00206357 1.63204e-24)
(0.109649 -0.00376052 6.10449e-25)
(0.109817 -0.00351085 -6.09938e-25)
(0.109976 -0.00325385 2.39312e-23)
(0.110127 -0.00299011 1.15061e-25)
(0.110268 -0.00272018 1.09196e-23)
(0.1104 -0.00244445 -2.47724e-23)
(0.110524 -0.0021624 2.84603e-23)
(0.109897 -0.00393274 -6.67141e-25)
(0.110075 -0.00367236 -7.96204e-25)
(0.110246 -0.00340447 -1.18293e-23)
(0.110407 -0.00312969 2.72712e-23)
(0.110559 -0.00284853 1.69902e-24)
(0.110702 -0.00256133 2.90787e-23)
(0.110838 -0.00226715 -2.83946e-23)
(0.110156 -0.00411498 -2.16818e-24)
(0.110346 -0.00384332 -2.31467e-24)
(0.110527 -0.00356397 -1.306e-25)
(0.1107 -0.00327755 -5.3439e-23)
(0.110864 -0.00298458 -1.83786e-24)
(0.111019 -0.00268528 -6.65537e-23)
(0.111167 -0.00237826 -6.83487e-23)
(0.110426 -0.00430796 2.10081e-24)
(0.110628 -0.00402441 7.89551e-25)
(0.110822 -0.00373297 1.85607e-24)
(0.111008 -0.0034343 2.97349e-23)
(0.111184 -0.00312889 1.26661e-25)
(0.111351 -0.00281683 1.01235e-22)
(0.111513 -0.00249619 7.28238e-23)
(0.110709 -0.00451248 8.56025e-25)
(0.110924 -0.00421638 1.21651e-23)
(0.111131 -0.00391219 3.40024e-23)
(0.11133 -0.00360059 -2.14087e-24)
(0.11152 -0.00328207 2.14056e-24)
(0.1117 -0.00295655 -7.21871e-23)
(0.111878 -0.00262144 0)
(0.111004 -0.00472939 0)
(0.111233 -0.00442002 -1.6868e-23)
(0.111454 -0.00410237 -3.22632e-23)
(0.111668 -0.00377714 4.15464e-23)
(0.111872 -0.00344479 -4.75149e-24)
(0.112068 -0.00310503 -8.36018e-23)
(0.112261 -0.00275456 9.04286e-23)
(0.111312 -0.00495962 1.00009e-24)
(0.111557 -0.00463623 -1.83214e-23)
(0.111794 -0.00430436 0)
(0.112023 -0.00396472 -3.70719e-23)
(0.112243 -0.00361775 -8.48227e-23)
(0.112454 -0.00326295 -8.89959e-24)
(0.112665 -0.00289614 -1.79721e-22)
(0.111635 -0.00520418 -1.07844e-24)
(0.111896 -0.00486595 1.60488e-23)
(0.112149 -0.00451903 -1.65372e-25)
(0.112395 -0.00416417 -1.60808e-25)
(0.112633 -0.00380174 8.75328e-23)
(0.112861 -0.00343102 1.83256e-22)
(0.113091 -0.0030468 1.99131e-22)
(0.111973 -0.00546418 9.2806e-24)
(0.112251 -0.00511023 0)
(0.112523 -0.00474737 0)
(0.112787 -0.00437639 9.20275e-23)
(0.113043 -0.00399761 -9.47906e-23)
(0.11329 -0.00361001 -2.03063e-22)
(0.11354 -0.00320721 -1.01726e-22)
(0.112327 -0.00574083 -2.05042e-23)
(0.112624 -0.0053702 1.2509e-24)
(0.112915 -0.00499045 4.91384e-23)
(0.113199 -0.00460238 -1.90583e-22)
(0.113475 -0.00420627 9.8044e-23)
(0.113742 -0.00380074 9.69514e-23)
(0.114015 -0.00337811 3.45234e-24)
(0.112698 -0.00603545 1.1316e-23)
(0.113016 -0.00564711 -4.23227e-24)
(0.113328 -0.00524943 -4.33231e-23)
(0.113633 -0.00484322 2.0468e-22)
(0.11393 -0.0044287 0)
(0.114219 -0.00400413 1.15554e-22)
(0.114517 -0.00356027 3.70818e-24)
(0.113087 -0.00634947 1.00979e-23)
(0.113427 -0.00594231 -1.65338e-24)
(0.113762 -0.00552556 -1.0339e-22)
(0.11409 -0.00510007 -2.1601e-22)
(0.11441 -0.00466599 1.95076e-25)
(0.114723 -0.00422112 1.32741e-22)
(0.115047 -0.00375449 2.6985e-22)
(0.113495 -0.0066845 -9.97413e-24)
(0.11386 -0.0062573 5.17718e-23)
(0.114219 -0.00582024 2.24152e-22)
(0.114572 -0.00537422 1.10019e-22)
(0.114918 -0.00491929 1.29561e-22)
(0.115256 -0.00445275 -5.35204e-22)
(0.115609 -0.00396162 -5.56014e-22)
(0.113924 -0.00704226 -1.66168e-24)
(0.114315 -0.00659369 -1.12343e-22)
(0.1147 -0.00613499 -1.14327e-22)
(0.11508 -0.00566704 -2.25307e-25)
(0.115454 -0.00518983 -2.64512e-22)
(0.11582 -0.00470007 2.70524e-22)
(0.116204 -0.00418252 2.95083e-22)
(0.114375 -0.00742465 1.78249e-24)
(0.114794 -0.00695326 5.15107e-23)
(0.115208 -0.00647142 3.83555e-24)
(0.115618 -0.00598003 0)
(0.116021 -0.00547897 1.43649e-22)
(0.116417 -0.00496424 3.06948e-22)
(0.116835 -0.00441806 4.93541e-24)
(0.114849 -0.00783375 -1.91172e-24)
(0.115299 -0.00733798 6.76847e-23)
(0.10763 -0.00442479 -2.0315e-26)
(0.107809 -0.00426916 2.16759e-25)
(0.107982 -0.00410488 -1.24028e-25)
(0.108149 -0.00393201 5.85209e-25)
(0.108311 -0.00375074 5.56207e-25)
(0.108466 -0.00356131 8.75896e-25)
(0.108614 -0.00336405 -2.97803e-25)
(0.107788 -0.00461801 -2.37624e-26)
(0.107973 -0.00445524 -3.44263e-25)
(0.108153 -0.00428361 1.09912e-24)
(0.108328 -0.00410318 -4.30167e-25)
(0.108497 -0.00391405 1.66654e-24)
(0.10866 -0.00371651 7.48931e-25)
(0.108816 -0.00351089 3.93208e-25)
(0.107951 -0.00482195 6.60721e-26)
(0.108143 -0.00465165 2.43092e-25)
(0.108331 -0.00447224 -3.76501e-24)
(0.108514 -0.00428379 1.31029e-25)
(0.108691 -0.00408637 -2.01437e-24)
(0.108862 -0.00388028 -7.86159e-26)
(0.109026 -0.00366586 -7.77196e-25)
(0.108119 -0.00503711 1.77045e-25)
(0.10832 -0.00485892 -4.75746e-24)
(0.108515 -0.00467137 6.22653e-24)
(0.108706 -0.00447441 5.94056e-25)
(0.108892 -0.00426823 5.80631e-24)
(0.109072 -0.00405313 -2.66405e-24)
(0.109245 -0.00382946 -5.46718e-25)
(0.108293 -0.00526424 -3.6543e-24)
(0.108502 -0.00507772 4.83637e-24)
(0.108706 -0.00488156 -3.96814e-24)
(0.108906 -0.0046757 -1.4091e-25)
(0.109101 -0.00446029 -1.13991e-23)
(0.109291 -0.00423569 -4.79756e-25)
(0.109473 -0.0040023 1.4566e-24)
(0.108472 -0.00550444 3.74028e-24)
(0.108691 -0.00530901 -7.45519e-24)
(0.108904 -0.00510366 6.26829e-25)
(0.109114 -0.00488839 -1.18468e-23)
(0.109319 -0.00466326 6.55354e-24)
(0.109518 -0.00442867 -4.57533e-24)
(0.109711 -0.00418501 -5.31566e-25)
(0.108658 -0.00575854 1.21807e-23)
(0.108886 -0.0055537 1.52351e-23)
(0.109109 -0.00533864 -7.18753e-25)
(0.109329 -0.00511336 2.71244e-23)
(0.109545 -0.00487796 1.49764e-25)
(0.109755 -0.0046328 2.57003e-24)
(0.109959 -0.00437831 3.19173e-24)
(0.108849 -0.00602753 3.14622e-24)
(0.109088 -0.00581272 -2.95704e-23)
(0.109322 -0.00558739 -1.59186e-25)
(0.109553 -0.00535153 -1.36968e-23)
(0.10978 -0.00510528 9.75274e-25)
(0.110001 -0.00484892 6.42238e-25)
(0.110217 -0.00458298 -3.24449e-24)
(0.109047 -0.0063125 2.79222e-24)
(0.109297 -0.0060871 1.99344e-23)
(0.109542 -0.00585087 9.17417e-25)
(0.109785 -0.00560381 -9.17659e-25)
(0.110024 -0.00534603 -1.83308e-23)
(0.110258 -0.00507786 -1.30532e-23)
(0.110487 -0.00479984 7.02272e-25)
(0.10925 -0.00661463 -1.66561e-23)
(0.109514 -0.00637798 2.63659e-23)
(0.10977 -0.00613019 -1.87744e-24)
(0.110026 -0.00587124 -1.64842e-23)
(0.110278 -0.00560122 1.97262e-23)
(0.110526 -0.00532057 9.72607e-24)
(0.110768 -0.00502978 0)
(0.109461 -0.00693521 2.42053e-23)
(0.109737 -0.0066866 2.59389e-24)
(0.110007 -0.00642652 3.5411e-23)
(0.110276 -0.00615497 1.86975e-23)
(0.110543 -0.00587203 0)
(0.110805 -0.00557813 1.23541e-23)
(0.111062 -0.0052738 8.31967e-25)
(0.109677 -0.00727563 -4.93574e-23)
(0.109969 -0.0070143 -6.36944e-23)
(0.110252 -0.00674118 -3.4167e-23)
(0.110536 -0.00645625 4.5454e-23)
(0.110818 -0.00615958 1.85163e-25)
(0.111096 -0.00585164 -1.38894e-23)
(0.111368 -0.00553297 -9.0232e-25)
(0.109901 -0.00763742 2.68248e-23)
(0.110208 -0.00736255 6.90228e-23)
(0.110507 -0.00707555 4.44391e-23)
(0.110807 -0.0067764 -9.47825e-23)
(0.111105 -0.00646517 0)
(0.111399 -0.00614232 0)
(0.111689 -0.00580845 -8.52224e-24)
(0.110131 -0.00802226 1.11617e-24)
(0.110455 -0.00773295 -3.94596e-23)
(0.11077 -0.00743118 -4.34727e-23)
(0.111087 -0.00711692 1.03355e-22)
(0.111403 -0.00679021 -2.85893e-23)
(0.111716 -0.00645153 1.05644e-24)
(0.112024 -0.00610152 1.66448e-23)
(0.110367 -0.00843196 1.24192e-24)
(0.11071 -0.00812726 -4.64864e-23)
(0.111043 -0.00780975 0)
(0.111379 -0.0074794 -1.12853e-22)
(0.111715 -0.00713623 3.23488e-23)
(0.112047 -0.00678074 -3.21106e-24)
(0.112375 -0.00641358 -8.03804e-24)
(0.110611 -0.00886853 -8.41312e-23)
(0.110974 -0.0085474 -5.58087e-23)
(0.111327 -0.00821311 -2.25421e-25)
(0.111683 -0.00786563 1.24502e-22)
(0.112039 -0.00750493 7.32964e-23)
(0.112392 -0.00713154 3.80769e-23)
(0.112742 -0.00674615 -1.18843e-23)
(0.110861 -0.00933415 1.78793e-22)
(0.111246 -0.00899549 2.0727e-22)
(0.11162 -0.0086433 0)
(0.111998 -0.00827755 -6.60681e-23)
(0.112377 -0.00789818 -1.45564e-22)
(0.112753 -0.00750573 -8.24728e-23)
(0.113126 -0.00710091 1.1962e-23)
(0.111118 -0.00983125 -9.15017e-23)
(0.111527 -0.00947378 -1.10884e-22)
(0.111924 -0.00910252 6.94067e-23)
(0.112326 -0.00871729 2.50397e-25)
(0.11273 -0.008318 7.69411e-23)
(0.113131 -0.00790521 4.08797e-23)
(0.113529 -0.00747973 -1.42234e-24)
(0.111381 -0.0103624 1.82473e-24)
(0.111817 -0.00998496 -1.33873e-22)
(0.112239 -0.00959319 -6.52364e-23)
(0.112667 -0.00918718 0)
(0.113097 -0.00876664 2.81568e-24)
(0.113526 -0.00833219 -4.33711e-24)
(0.113952 -0.00788454 1.52928e-24)
(0.11394 -0.00878895 1.64669e-24)
(0.114396 -0.00831775 -1.64339e-24)
(0.101565 -0.00482343 0)
(0.101678 -0.00489518 0)
(0.101795 -0.00496546 0)
(0.101918 -0.00503394 0)
(0.102045 -0.00510034 0)
(0.102177 -0.00516437 0)
(0.102315 -0.00522573 0)
(0.102457 -0.0052841 0)
(0.102605 -0.00533916 0)
(0.102758 -0.00539056 0)
(0.102915 -0.00543796 0)
(0.103078 -0.00548099 0)
(0.103246 -0.00551928 0)
(0.103418 -0.00555244 0)
(0.103596 -0.00558009 0)
(0.103777 -0.00560183 0)
(0.103963 -0.00561726 0)
(0.104154 -0.00562598 0)
(0.104348 -0.00562761 0)
(0.104545 -0.00562175 0)
(0.104746 -0.00560802 0)
(0.10495 -0.00558605 0)
(0.105156 -0.00555548 0)
(0.105364 -0.00551598 0)
(0.105574 -0.00546723 0)
(0.105785 -0.00540894 0)
(0.105996 -0.00534085 0)
(0.106208 -0.00526273 0)
(0.106419 -0.00517439 0)
(0.106629 -0.00507568 0)
(0.106837 -0.00496647 0)
(0.107042 -0.00484667 0)
(0.107244 -0.00471618 0)
(0.107443 -0.00457466 0)
(0.101489 -0.00493436 0)
(0.101603 -0.00501101 0)
(0.101723 -0.00508627 0)
(0.101847 -0.00515984 0)
(0.101976 -0.00523138 0)
(0.102111 -0.00530062 0)
(0.102252 -0.00536722 0)
(0.102397 -0.00543086 0)
(0.102549 -0.00549119 0)
(0.102705 -0.00554786 0)
(0.102867 -0.00560048 0)
(0.103035 -0.00564866 0)
(0.103207 -0.00569202 0)
(0.103385 -0.00573013 0)
(0.103569 -0.00576257 0)
(0.103757 -0.00578894 0)
(0.103949 -0.00580878 0)
(0.104147 -0.00582168 0)
(0.104348 -0.00582721 0)
(0.104554 -0.00582493 0)
(0.104763 -0.00581443 0)
(0.104975 -0.00579531 0)
(0.10519 -0.00576716 0)
(0.105408 -0.00572963 0)
(0.105627 -0.00568236 0)
(0.105848 -0.00562503 0)
(0.10607 -0.00555734 0)
(0.106292 -0.00547904 0)
(0.106513 -0.00538991 0)
(0.106734 -0.00528976 0)
(0.106953 -0.00517844 0)
(0.107169 -0.00505582 0)
(0.107382 -0.00492167 0)
(0.107592 -0.00477528 0)
(0.101409 -0.00504656 0)
(0.101524 -0.00512836 0)
(0.101645 -0.00520889 0)
(0.101771 -0.00528781 0)
(0.101903 -0.00536481 0)
(0.10204 -0.00543956 0)
(0.102183 -0.00551174 0)
(0.102332 -0.005581 0)
(0.102487 -0.00564697 0)
(0.102647 -0.00570926 0)
(0.102814 -0.00576749 0)
(0.102986 -0.00582123 0)
(0.103164 -0.00587005 0)
(0.103348 -0.00591353 0)
(0.103537 -0.0059512 0)
(0.103731 -0.00598261 0)
(0.103931 -0.0060073 0)
(0.104135 -0.0060248 0)
(0.104345 -0.00603463 0)
(0.104558 -0.00603635 0)
(0.104776 -0.00602948 0)
(0.104997 -0.00601359 0)
(0.105222 -0.00598825 0)
(0.105449 -0.00595303 0)
(0.105679 -0.00590756 0)
(0.10591 -0.00585148 0)
(0.106143 -0.00578444 0)
(0.106376 -0.00570617 0)
(0.106609 -0.00561641 0)
(0.106841 -0.00551495 0)
(0.107071 -0.0054016 0)
(0.107299 -0.00527616 0)
(0.107523 -0.0051383 0)
(0.107745 -0.00498685 0)
(0.101323 -0.0051599 0)
(0.10144 -0.00524713 0)
(0.101562 -0.0053332 0)
(0.10169 -0.00541778 0)
(0.101824 -0.00550054 0)
(0.101963 -0.00558114 0)
(0.102109 -0.00565925 0)
(0.102261 -0.00573449 0)
(0.10242 -0.00580647 0)
(0.102584 -0.0058748 0)
(0.102755 -0.00593904 0)
(0.102932 -0.00599876 0)
(0.103115 -0.0060535 0)
(0.103304 -0.00610278 0)
(0.103499 -0.00614613 0)
(0.1037 -0.00618305 0)
(0.103907 -0.00621304 0)
(0.104119 -0.0062356 0)
(0.104337 -0.00625021 0)
(0.104559 -0.00625636 0)
(0.104786 -0.00625357 0)
(0.105017 -0.00624134 0)
(0.105251 -0.0062192 0)
(0.105489 -0.00618669 0)
(0.105729 -0.00614337 0)
(0.105972 -0.00608885 0)
(0.106216 -0.00602276 0)
(0.10646 -0.00594477 0)
(0.106705 -0.00585459 0)
(0.106949 -0.00575196 0)
(0.107192 -0.00563667 0)
(0.107432 -0.00550846 0)
(0.107669 -0.00536684 0)
(0.107903 -0.00521014 0)
(0.101232 -0.00527426 0)
(0.10135 -0.00536717 0)
(0.101473 -0.00545907 0)
(0.101603 -0.00554962 0)
(0.101739 -0.00563847 0)
(0.101881 -0.00572528 0)
(0.102029 -0.00580968 0)
(0.102185 -0.00589128 0)
(0.102346 -0.00596969 0)
(0.102515 -0.00604447 0)
(0.10269 -0.00611516 0)
(0.102871 -0.00618132 0)
(0.10306 -0.00624243 0)
(0.103255 -0.00629801 0)
(0.103456 -0.00634753 0)
(0.103664 -0.00639045 0)
(0.103878 -0.00642625 0)
(0.104098 -0.00645436 0)
(0.104324 -0.00647424 0)
(0.104555 -0.00648534 0)
(0.104791 -0.00648711 0)
(0.105032 -0.00647901 0)
(0.105277 -0.00646052 0)
(0.105526 -0.00643113 0)
(0.105777 -0.00639037 0)
(0.106031 -0.00633779 0)
(0.106287 -0.00627297 0)
(0.106544 -0.00619554 0)
(0.106802 -0.00610516 0)
(0.107059 -0.00600156 0)
(0.107314 -0.00588445 0)
(0.107568 -0.00575352 0)
(0.107818 -0.0056081 0)
(0.108066 -0.00544597 0)
(0.101136 -0.00538947 0)
(0.101254 -0.00548834 0)
(0.101379 -0.00558638 0)
(0.10151 -0.00568322 0)
(0.101648 -0.0057785 0)
(0.101792 -0.00587187 0)
(0.101943 -0.00596294 0)
(0.102101 -0.00605132 0)
(0.102266 -0.00613658 0)
(0.102439 -0.00621825 0)
(0.102618 -0.00629587 0)
(0.102805 -0.00636894 0)
(0.102998 -0.00643694 0)
(0.103199 -0.00649932 0)
(0.103407 -0.00655553 0)
(0.103622 -0.006605 0)
(0.103844 -0.00664715 0)
(0.104072 -0.00668137 0)
(0.104306 -0.00670707 0)
(0.104546 -0.00672365 0)
(0.104792 -0.00673051 0)
(0.105044 -0.00672706 0)
(0.105299 -0.00671272 0)
(0.105559 -0.00668694 0)
(0.105823 -0.00664919 0)
(0.106089 -0.00659895 0)
(0.106358 -0.00653577 0)
(0.106628 -0.00645922 0)
(0.106899 -0.00636893 0)
(0.10717 -0.00626456 0)
(0.10744 -0.00614579 0)
(0.107707 -0.00601222 0)
(0.107971 -0.00586301 0)
(0.108234 -0.0056953 0)
(0.101033 -0.00550535 0)
(0.101152 -0.00561047 0)
(0.101278 -0.00571495 0)
(0.101411 -0.00581841 0)
(0.10155 -0.00592048 0)
(0.101696 -0.00602079 0)
(0.10185 -0.00611895 0)
(0.102011 -0.00621453 0)
(0.102179 -0.00630708 0)
(0.102356 -0.00639613 0)
(0.102539 -0.00648117 0)
(0.102731 -0.00656167 0)
(0.10293 -0.00663708 0)
(0.103137 -0.00670682 0)
(0.103351 -0.0067703 0)
(0.103573 -0.00682689 0)
(0.103802 -0.00687597 0)
(0.104039 -0.0069169 0)
(0.104282 -0.00694902 0)
(0.104532 -0.00697167 0)
(0.104788 -0.00698421 0)
(0.10505 -0.00698598 0)
(0.105318 -0.00697635 0)
(0.10559 -0.00695471 0)
(0.105866 -0.00692046 0)
(0.106145 -0.00687303 0)
(0.106427 -0.00681191 0)
(0.106712 -0.00673662 0)
(0.106997 -0.00664673 0)
(0.107282 -0.00654184 0)
(0.107567 -0.0064216 0)
(0.107849 -0.0062855 0)
(0.108129 -0.0061325 0)
(0.108407 -0.00595907 0)
(0.100925 -0.0056217 0)
(0.101044 -0.00573337 0)
(0.101171 -0.00584461 0)
(0.101304 -0.00595503 0)
(0.101445 -0.00606426 0)
(0.101594 -0.00617191 0)
(0.10175 -0.00627757 0)
(0.101913 -0.0063808 0)
(0.102085 -0.00648112 0)
(0.102265 -0.00657804 0)
(0.102453 -0.00667102 0)
(0.102649 -0.00675951 0)
(0.102854 -0.00684291 0)
(0.103066 -0.0069206 0)
(0.103287 -0.00699195 0)
(0.103517 -0.0070563 0)
(0.103754 -0.00711296 0)
(0.103999 -0.00716123 0)
(0.104252 -0.00720042 0)
(0.104512 -0.0072298 0)
(0.104778 -0.00724866 0)
(0.105052 -0.00725629 0)
(0.105331 -0.00725199 0)
(0.105616 -0.00723507 0)
(0.105905 -0.00720487 0)
(0.106198 -0.00716078 0)
(0.106495 -0.0071022 0)
(0.106794 -0.00702859 0)
(0.107094 -0.00693945 0)
(0.107395 -0.00683436 0)
(0.107696 -0.00671286 0)
(0.107994 -0.00657437 0)
(0.10829 -0.00641762 0)
(0.108585 -0.00623832 0)
(0.100809 -0.0057383 0)
(0.100929 -0.00585682 0)
(0.101057 -0.00597514 0)
(0.101191 -0.00609288 0)
(0.101333 -0.00620965 0)
(0.101483 -0.00632504 0)
(0.101641 -0.00643865 0)
(0.101808 -0.00654999 0)
(0.101983 -0.00665859 0)
(0.102166 -0.00676391 0)
(0.102358 -0.0068654 0)
(0.102559 -0.00696245 0)
(0.102769 -0.00705445 0)
(0.102988 -0.00714073 0)
(0.103216 -0.00722061 0)
(0.103452 -0.00729339 0)
(0.103698 -0.00735832 0)
(0.103952 -0.00741465 0)
(0.104214 -0.00746161 0)
(0.104484 -0.00749843 0)
(0.104762 -0.00752432 0)
(0.105047 -0.00753851 0)
(0.105339 -0.00754021 0)
(0.105637 -0.00752867 0)
(0.10594 -0.00750317 0)
(0.106248 -0.00746299 0)
(0.10656 -0.00740748 0)
(0.106875 -0.00733603 0)
(0.107191 -0.00724808 0)
(0.107509 -0.00714312 0)
(0.107826 -0.00702063 0)
(0.108142 -0.00687994 0)
(0.108455 -0.00671949 0)
(0.108768 -0.00653417 0)
(0.100688 -0.00585491 0)
(0.100808 -0.00598058 0)
(0.100935 -0.00610631 0)
(0.10107 -0.00623173 0)
(0.101214 -0.00635643 0)
(0.101365 -0.00648 0)
(0.101525 -0.00660201 0)
(0.101694 -0.00672196 0)
(0.101872 -0.00683936 0)
(0.102059 -0.00695364 0)
(0.102255 -0.00706422 0)
(0.102461 -0.00717046 0)
(0.102676 -0.00727171 0)
(0.102901 -0.00736726 0)
(0.103135 -0.00745638 0)
(0.103379 -0.00753831 0)
(0.103633 -0.00761226 0)
(0.103896 -0.00767741 0)
(0.104168 -0.00773293 0)
(0.104449 -0.00777797 0)
(0.104739 -0.00781167 0)
(0.105036 -0.00783318 0)
(0.105341 -0.00784164 0)
(0.105653 -0.00783622 0)
(0.105971 -0.0078161 0)
(0.106294 -0.0077805 0)
(0.106622 -0.00772867 0)
(0.106953 -0.00765993 0)
(0.107287 -0.00757365 0)
(0.107622 -0.00746922 0)
(0.107958 -0.00734607 0)
(0.108292 -0.00720337 0)
(0.108624 -0.00703932 0)
(0.108956 -0.00684785 0)
(0.100559 -0.00597124 0)
(0.100678 -0.00610437 0)
(0.100806 -0.00623786 0)
(0.100942 -0.00637134 0)
(0.101086 -0.00650437 0)
(0.101238 -0.00663656 0)
(0.1014 -0.00676744 0)
(0.101571 -0.00689652 0)
(0.101752 -0.00702326 0)
(0.101942 -0.00714709 0)
(0.102142 -0.00726738 0)
(0.102352 -0.00738347 0)
(0.102573 -0.00749466 0)
(0.102804 -0.00760021 0)
(0.103045 -0.00769933 0)
(0.103297 -0.00779121 0)
(0.103559 -0.00787499 0)
(0.103831 -0.00794979 0)
(0.104114 -0.00801471 0)
(0.104406 -0.00806882 0)
(0.104707 -0.00811119 0)
(0.105017 -0.00814087 0)
(0.105336 -0.00815693 0)