/*--------------------------------*- C++ -*----------------------------------*\
| =========                 |                                                 |
| \\      /  F ield         | OpenFOAM: The Open Source CFD Toolbox           |
|  \\    /   O peration     | Version:  2412                                  |
|   \\  /    A nd           | Website:  www.openfoam.com                      |
|    \\/     M anipulation  |                                                 |
\*---------------------------------------------------------------------------*/
FoamFile
{
    version     2.0;
    format      ascii;
    arch        "LSB;label=32;scalar=64";
    class       volScalarField;
    location    "10.5";
    object      p;
}
// * * * * * * * * * * * * * * * * * * * * * * * * * * * * * * * * * * * * * //

dimensions      [0 2 -2 0 0 0 0];

internalField   nonuniform List<scalar> 
5285
(
0.00111167
0.00111225
0.00111254
0.00111251
0.00111214
0.00111138
0.00111021
0.00110858
0.00110646
0.0011038
0.00110054
0.00109666
0.00109208
0.00108675
0.00108062
0.00107362
0.0010966
0.0010967
0.00109651
0.00109599
0.00109511
0.00109384
0.00109214
0.00108999
0.00108733
0.00108412
0.00108033
0.0010759
0.00107079
0.00106493
0.00105828
0.00105077
0.00108177
0.00108143
0.00108078
0.00107979
0.00107843
0.00107668
0.0010745
0.00107185
0.0010687
0.001065
0.00106071
0.00105578
0.00105018
0.00104384
0.00103672
0.00102876
0.00106721
0.00106644
0.00106536
0.00106393
0.00106213
0.00105993
0.00105729
0.00105418
0.00105057
0.00104641
0.00104167
0.0010363
0.00103025
0.00102348
0.00101595
0.00100759
0.00105291
0.00105174
0.00105025
0.00104841
0.0010462
0.00104357
0.00104051
0.00103698
0.00103295
0.00102837
0.00102321
0.00101743
0.00101099
0.00100384
0.000995929
0.000987219
0.00103889
0.00103735
0.00103547
0.00103325
0.00103064
0.00102763
0.00102418
0.00102026
0.00101583
0.00101087
0.00100534
0.000999187
0.000992386
0.000984891
0.000976659
0.000967644
0.00102516
0.00102326
0.00102102
0.00101844
0.00101547
0.00101209
0.00100828
0.001004
0.00099922
0.000993909
0.000988032
0.000981552
0.000974433
0.000966634
0.000958117
0.000948839
0.00101171
0.00100947
0.00100691
0.00100398
0.00100068
0.000996965
0.000992818
0.000988208
0.000983105
0.000977478
0.000971292
0.000964516
0.000957114
0.000949049
0.000940284
0.000930782
0.00099855
0.000996003
0.000993122
0.000989885
0.000986268
0.000982247
0.000977794
0.000972882
0.000967484
0.00096157
0.000955108
0.000948068
0.000940416
0.000932119
0.000923142
0.000913451
0.000985686
0.000982847
0.000979675
0.000976147
0.000972242
0.000967935
0.000963201
0.000958015
0.00095235
0.000946177
0.000939468
0.000932194
0.000924324
0.000915826
0.00090667
0.000896822
0.000973117
0.000970006
0.000966563
0.000962767
0.000958595
0.000954026
0.000949036
0.0009436
0.000937693
0.000931289
0.000924361
0.000916881
0.000908821
0.000900153
0.000890846
0.000880872
0.000960844
0.00095748
0.000953786
0.000949741
0.000945325
0.000940517
0.000935293
0.000929631
0.000923507
0.000916897
0.000909775
0.000902116
0.000893893
0.00088508
0.000875651
0.000865577
0.000948866
0.000945268
0.000941342
0.000937068
0.000932428
0.000927401
0.000921965
0.000916099
0.000909782
0.000902989
0.000895697
0.000887883
0.000879522
0.00087059
0.000861062
0.000850913
0.000937184
0.000933368
0.000929228
0.000924744
0.000919898
0.000914672
0.000909045
0.000902997
0.000896507
0.000889553
0.000882114
0.000874167
0.00086569
0.000856662
0.000847058
0.000836856
0.000925795
0.000921778
0.00091744
0.000912764
0.000907732
0.000902325
0.000896526
0.000890315
0.000883672
0.000876578
0.000869012
0.000860953
0.000852382
0.000843277
0.000833618
0.000823384
0.000914696
0.000910494
0.000905975
0.000901123
0.000895921
0.000890352
0.000884399
0.000878043
0.000871267
0.000864051
0.000856377
0.000848226
0.000839579
0.000830417
0.000820721
0.000810474
0.000903885
0.000899513
0.000894829
0.000889817
0.000884461
0.000878746
0.000872656
0.000866173
0.00085928
0.00085196
0.000844195
0.00083597
0.000827264
0.000818063
0.000808348
0.000798102
0.000893359
0.000888831
0.000883995
0.000878838
0.000873344
0.000867499
0.000861287
0.000854693
0.000847699
0.000840292
0.000832453
0.000824169
0.000815421
0.000806195
0.000796476
0.000786247
0.000883114
0.000878442
0.00087347
0.000868182
0.000862564
0.000856603
0.000850284
0.000843593
0.000836515
0.000829034
0.000821137
0.000812808
0.000804033
0.000794797
0.000785087
0.000774889
0.000873145
0.000868344
0.000863247
0.00085784
0.000852113
0.000846049
0.000839638
0.000832864
0.000825714
0.000818174
0.000810231
0.000801872
0.000793082
0.00078385
0.000774161
0.000764005
0.000967635
0.000967818
0.000968251
0.000968983
0.000969945
0.000971137
0.000972552
0.00097417
0.000975978
0.000965609
0.000965787
0.000966203
0.00096691
0.000967837
0.000968987
0.000970351
0.000971909
0.00097365
0.000975562
0.000977638
0.000979871
0.000982255
0.000984786
0.000987456
0.000990258
0.000993184
0.000996227
0.000999377
0.00100263
0.00100597
0.0010094
0.0010129
0.00101647
0.0010201
0.00102379
0.00102751
0.00103127
0.00103505
0.00103886
0.00104266
0.00104647
0.00105027
0.00105404
0.00105779
0.0010615
0.00106515
0.00106875
0.00107227
0.00107572
0.00107908
0.00108233
0.00108547
0.0010885
0.00109139
0.00109414
0.00109673
0.00109916
0.00110143
0.00110351
0.00110539
0.00110708
0.00110856
0.00110982
0.00111085
0.000963548
0.00096372
0.00096412
0.000964801
0.000965693
0.000966799
0.000968111
0.00096961
0.000971283
0.00097312
0.000975111
0.000977253
0.000979538
0.000981962
0.000984517
0.000987197
0.000989993
0.000992897
0.000995901
0.000998997
0.00100218
0.00100543
0.00100876
0.00101214
0.00101557
0.00101904
0.00102255
0.00102609
0.00102964
0.00103319
0.00103675
0.00104029
0.00104381
0.00104731
0.00105076
0.00105416
0.00105751
0.00106078
0.00106398
0.00106709
0.00107009
0.00107299
0.00107577
0.00107842
0.00108093
0.00108329
0.00108549
0.00108752
0.00108937
0.00109103
0.0010925
0.00109376
0.00109481
0.00109563
0.00109623
0.000961451
0.000961619
0.000962001
0.000962656
0.000963513
0.000964575
0.000965836
0.000967274
0.000968879
0.00097064
0.000972547
0.000974596
0.000976782
0.000979099
0.000981539
0.000984096
0.000986762
0.000989527
0.000992385
0.000995326
0.000998343
0.00100143
0.00100457
0.00100776
0.001011
0.00101427
0.00101756
0.00102087
0.00102418
0.0010275
0.0010308
0.00103408
0.00103734
0.00104055
0.00104372
0.00104682
0.00104986
0.00105282
0.00105569
0.00105847
0.00106114
0.00106368
0.00106611
0.00106839
0.00107053
0.00107251
0.00107433
0.00107597
0.00107743
0.00107869
0.00107975
0.00108061
0.00108124
0.00108166
0.00108184
0.000959321
0.000959484
0.000959849
0.000960477
0.000961299
0.000962318
0.000963526
0.000964904
0.00096644
0.000968124
0.000969947
0.000971904
0.00097399
0.000976198
0.000978524
0.000980958
0.000983493
0.00098612
0.000988831
0.000991618
0.000994472
0.000997385
0.00100035
0.00100335
0.00100639
0.00100945
0.00101253
0.00101562
0.0010187
0.00102178
0.00102483
0.00102786
0.00103084
0.00103378
0.00103666
0.00103948
0.00104222
0.00104487
0.00104743
0.00104988
0.00105221
0.00105442
0.0010565
0.00105843
0.00106021
0.00106182
0.00106327
0.00106454
0.00106561
0.00106649
0.00106717
0.00106763
0.00106788
0.00106789
0.00106768
0.00095716
0.000957316
0.000957665
0.000958267
0.000959053
0.000960027
0.000961183
0.0009625
0.000963968
0.000965575
0.000967312
0.000969177
0.000971162
0.000973263
0.000975473
0.000977785
0.000980189
0.000982678
0.000985243
0.000987876
0.000990568
0.00099331
0.000996094
0.000998912
0.00100176
0.00100461
0.00100748
0.00101035
0.0010132
0.00101604
0.00101885
0.00102162
0.00102434
0.00102701
0.00102961
0.00103214
0.00103459
0.00103694
0.00103918
0.00104132
0.00104333
0.00104521
0.00104695
0.00104854
0.00104997
0.00105123
0.00105232
0.00105323
0.00105394
0.00105445
0.00105476
0.00105485
0.00105472
0.00105436
0.00105377
0.000954967
0.000955119
0.00095545
0.000956025
0.000956776
0.000957705
0.000958808
0.000960065
0.000961463
0.000962993
0.000964646
0.000966417
0.000968302
0.000970295
0.00097239
0.000974579
0.000976853
0.000979204
0.000981624
0.000984103
0.000986633
0.000989206
0.000991813
0.000994445
0.000997094
0.000999751
0.00100241
0.00100506
0.00100769
0.00101029
0.00101285
0.00101537
0.00101784
0.00102024
0.00102257
0.00102482
0.00102698
0.00102903
0.00103098
0.0010328
0.0010345
0.00103606
0.00103747
0.00103873
0.00103983
0.00104075
0.00104149
0.00104205
0.00104241
0.00104257
0.00104252
0.00104226
0.00104177
0.00104106
0.00104011
0.000952745
0.000952891
0.000953206
0.000953754
0.000954468
0.000955354
0.000956404
0.000957599
0.000958929
0.000960381
0.000961948
0.000963626
0.000965411
0.000967297
0.000969277
0.000971343
0.000973488
0.000975701
0.000977976
0.000980302
0.000982671
0.000985076
0.000987506
0.000989954
0.000992411
0.000994869
0.000997318
0.00099975
0.00100216
0.00100453
0.00100685
0.00100913
0.00101134
0.00101348
0.00101555
0.00101752
0.00101939
0.00102116
0.00102281
0.00102433
0.00102573
0.00102697
0.00102807
0.00102901
0.00102978
0.00103038
0.00103079
0.00103101
0.00103104
0.00103086
0.00103048
0.00102987
0.00102905
0.001028
0.00102672
0.000950495
0.000950636
0.000950933
0.000951455
0.000952133
0.000952974
0.000953971
0.000955105
0.000956365
0.00095774
0.000959222
0.000960807
0.000962492
0.00096427
0.000966135
0.00096808
0.000970095
0.000972172
0.000974302
0.000976476
0.000978686
0.000980923
0.000983178
0.000985444
0.000987711
0.000989971
0.000992214
0.000994434
0.000996619
0.000998763
0.00100086
0.00100289
0.00100485
0.00100674
0.00100854
0.00101024
0.00101184
0.00101333
0.00101469
0.00101592
0.00101702
0.00101797
0.00101876
0.00101939
0.00101985
0.00102013
0.00102022
0.00102013
0.00101983
0.00101934
0.00101863
0.0010177
0.00101656
0.00101519
0.0010136
0.000948218
0.000948354
0.000948634
0.000949129
0.000949771
0.000950567
0.000951511
0.000952584
0.000953774
0.000955071
0.000956468
0.000957961
0.000959545
0.000961216
0.000962967
0.000964791
0.000966677
0.000968618
0.000970605
0.000972628
0.00097468
0.000976751
0.000978833
0.000980918
0.000982997
0.000985061
0.000987102
0.000989112
0.000991081
0.000993
0.000994862
0.000996658
0.000998378
0.00100001
0.00100156
0.001003
0.00100433
0.00100554
0.00100663
0.00100758
0.00100839
0.00100904
0.00100954
0.00100987
0.00101003
0.00101001
0.0010098
0.0010094
0.0010088
0.00100799
0.00100698
0.00100575
0.0010043
0.00100263
0.00100074
0.000945916
0.000946047
0.00094631
0.000946778
0.000947384
0.000948136
0.000949026
0.000950038
0.000951158
0.000952377
0.000953689
0.000955089
0.000956574
0.000958138
0.000959776
0.000961479
0.000963237
0.000965043
0.000966887
0.000968761
0.000970656
0.000972563
0.000974473
0.000976379
0.000978273
0.000980144
0.000981985
0.000983788
0.000985544
0.000987244
0.000988879
0.000990442
0.000991923
0.000993314
0.000994607
0.000995793
0.000996864
0.000997811
0.000998627
0.000999304
0.000999833
0.00100021
0.00100042
0.00100047
0.00100034
0.00100002
0.000999524
0.00099883
0.000997938
0.000996841
0.000995537
0.00099402
0.000992287
0.000990335
0.000988161
0.00094359
0.000943717
0.000943962
0.000944403
0.000944974
0.00094568
0.000946518
0.000947468
0.000948518
0.00094966
0.000950886
0.000952193
0.000953579
0.000955038
0.000956563
0.000958146
0.000959778
0.00096145
0.000963153
0.000964878
0.000966617
0.000968361
0.000970103
0.000971832
0.000973542
0.000975223
0.000976868
0.000978467
0.000980013
0.000981497
0.000982911
0.000984246
0.000985494
0.000986646
0.000987695
0.000988631
0.000989449
0.000990138
0.000990692
0.000991103
0.000991364
0.000991468
0.000991408
0.000991177
0.00099077
0.000990179
0.000989401
0.000988428
0.000987258
0.000985885
0.000984306
0.000982516
0.000980513
0.000978294
0.000975858
0.000941241
0.000941364
0.000941592
0.000942005
0.000942541
0.000943203
0.000943987
0.000944876
0.000945856
0.00094692
0.00094806
0.000949276
0.000950563
0.000951917
0.00095333
0.000954794
0.0009563
0.000957839
0.000959403
0.000960981
0.000962567
0.00096415
0.000965724
0.000967279
0.000968808
0.000970302
0.000971754
0.000973153
0.000974493
0.000975766
0.000976962
0.000978074
0.000979094
0.000980013
0.000980824
0.000981519
0.000982089
0.000982529
0.000982829
0.000982984
0.000982986
0.000982828
0.000982505
0.000982009
0.000981336
0.00098048
0.000979435
0.000978198
0.000976764
0.000975128
0.000973289
0.000971241
0.000968985
0.000966516
0.000963834
0.000938871
0.000938989
0.000939201
0.000939588
0.000940087
0.000940705
0.000941436
0.000942263
0.000943173
0.000944159
0.000945215
0.000946339
0.000947528
0.000948777
0.00095008
0.000951426
0.000952808
0.000954216
0.00095564
0.000957074
0.000958507
0.000959932
0.00096134
0.000962724
0.000964075
0.000965385
0.000966646
0.000967849
0.000968988
0.000970053
0.000971037
0.000971931
0.000972728
0.00097342
0.000974
0.000974459
0.000974791
0.000974988
0.000975043
0.00097495
0.000974702
0.000974293
0.000973716
0.000972967
0.00097204
0.00097093
0.000969632
0.000968142
0.000966457
0.000964574
0.000962488
0.000960199
0.000957703
0.000955
0.000952088
0.000936482
0.000936595
0.00093679
0.00093715
0.000937614
0.000938188
0.000938866
0.000939631
0.000940471
0.000941378
0.000942349
0.000943383
0.000944475
0.000945621
0.000946814
0.000948044
0.000949302
0.00095058
0.000951868
0.000953158
0.000954441
0.00095571
0.000956955
0.00095817
0.000959345
0.000960474
0.000961548
0.00096256
0.0009635
0.000964362
0.000965138
0.00096582
0.0009664
0.000966872
0.000967226
0.000967457
0.000967557
0.00096752
0.000967339
0.000967007
0.000966518
0.000965867
0.000965048
0.000964055
0.000962885
0.000961533
0.000959994
0.000958265
0.000956342
0.000954224
0.000951907
0.000949389
0.000946669
0.000943747
0.00094062
0.000934074
0.000934183
0.000934362
0.000934695
0.000935124
0.000935654
0.000936279
0.000936982
0.000937751
0.00093858
0.000939467
0.00094041
0.000941406
0.000942451
0.000943535
0.00094465
0.000945786
0.000946936
0.000948088
0.000949237
0.000950372
0.000951486
0.000952571
0.000953619
0.000954623
0.000955574
0.000956464
0.000957287
0.000958034
0.000958698
0.000959271
0.000959746
0.000960115
0.000960371
0.000960508
0.000960517
0.000960393
0.000960129
0.000959719
0.000959157
0.000958437
0.000957553
0.000956502
0.000955277
0.000953875
0.000952292
0.000950524
0.000948568
0.000946421
0.00094408
0.000941545
0.000938813
0.000935884
0.000932756
0.000929431
0.000931649
0.000931754
0.000931916
0.000932223
0.000932618
0.000933104
0.000933676
0.000934316
0.000935014
0.000935765
0.000936568
0.000937422
0.000938324
0.000939267
0.000940244
0.000941245
0.000942262
0.000943284
0.000944304
0.000945312
0.000946301
0.000947263
0.00094819
0.000949075
0.000949909
0.000950686
0.000951397
0.000952036
0.000952594
0.000953064
0.000953439
0.000953712
0.000953875
0.000953923
0.000953847
0.000953642
0.000953302
0.000952819
0.000952189
0.000951405
0.000950462
0.000949356
0.000948082
0.000946636
0.000945013
0.00094321
0.000941224
0.000939053
0.000936694
0.000934144
0.000931404
0.000928471
0.000925346
0.000922027
0.000918517
0.000929208
0.000929309
0.000929455
0.000929736
0.000930096
0.000930539
0.000931059
0.000931636
0.000932263
0.000932936
0.000933655
0.00093442
0.000935228
0.000936072
0.000936944
0.000937833
0.000938731
0.000939628
0.000940516
0.000941387
0.000942232
0.000943045
0.000943817
0.000944541
0.000945209
0.000945815
0.00094635
0.000946808
0.000947181
0.000947462
0.000947645
0.000947721
0.000947685
0.00094753
0.000947249
0.000946837
0.000946287
0.000945593
0.00094475
0.000943754
0.000942598
0.000941279
0.000939792
0.000938133
0.0009363
0.000934289
0.000932097
0.000929722
0.000927162
0.000924417
0.000921484
0.000918363
0.000915055
0.000911559
0.000907877
0.000926754
0.000926851
0.00092698
0.000927235
0.000927562
0.000927962
0.000928428
0.000928943
0.000929498
0.000930093
0.000930729
0.000931407
0.000932123
0.000932869
0.000933636
0.000934415
0.000935196
0.00093597
0.000936728
0.000937463
0.000938167
0.000938833
0.000939452
0.000940018
0.000940524
0.000940962
0.000941325
0.000941607
0.0009418
0.000941897
0.000941891
0.000941777
0.000941547
0.000941196
0.000940716
0.000940103
0.000939351
0.000938454
0.000937407
0.000936206
0.000934846
0.000933323
0.000931633
0.000929773
0.000927739
0.00092553
0.000923143
0.000920576
0.000917827
0.000914897
0.000911784
0.000908488
0.000905009
0.000901349
0.000897508
0.000924286
0.000924379
0.000924493
0.000924722
0.000925015
0.000925373
0.000925786
0.000926238
0.000926721
0.000927238
0.000927792
0.000928384
0.000929008
0.000929658
0.000930323
0.000930993
0.000931659
0.000932311
0.000932942
0.000933543
0.000934108
0.000934629
0.000935099
0.00093551
0.000935857
0.000936131
0.000936326
0.000936435
0.000936452
0.00093637
0.000936182
0.000935882
0.000935465
0.000934923
0.000934251
0.000933445
0.000932497
0.000931405
0.000930162
0.000928765
0.000927209
0.000925491
0.000923607
0.000921555
0.000919331
0.000916935
0.000914363
0.000911615
0.000908689
0.000905585
0.000902303
0.000898844
0.000895207
0.000891394
0.000887407
0.000921808
0.000921896
0.000921994
0.000922198
0.000922458
0.000922773
0.000923134
0.000923522
0.000923934
0.000924374
0.000924846
0.000925353
0.000925888
0.000926442
0.000927006
0.000927569
0.000928122
0.000928654
0.00092916
0.00092963
0.000930058
0.000930437
0.00093076
0.00093102
0.00093121
0.000931324
0.000931355
0.000931297
0.000931142
0.000930885
0.00093052
0.00093004
0.00092944
0.000928714
0.000927857
0.000926864
0.000925729
0.000924448
0.000923017
0.000921432
0.000919689
0.000917785
0.000915716
0.000913481
0.000911078
0.000908504
0.000905758
0.000902839
0.000899746
0.00089648
0.000893041
0.000889429
0.000885646
0.000881692
0.00087757
0.00091937
0.000919454
0.000919537
0.000919716
0.000919944
0.000920217
0.000920526
0.000920853
0.000921195
0.000921559
0.000921953
0.000922378
0.000922827
0.00092329
0.000923757
0.000924216
0.000924659
0.000925077
0.000925461
0.000925805
0.000926102
0.000926344
0.000926526
0.000926641
0.000926682
0.000926642
0.000926516
0.000926297
0.000925979
0.000925556
0.000925022
0.000924372
0.000923599
0.000922699
0.000921666
0.000920496
0.000919185
0.000917727
0.000916119
0.000914357
0.000912439
0.000910361
0.000908121
0.000905716
0.000903146
0.000900407
0.0008975
0.000894424
0.000891179
0.000887764
0.000884181
0.000880431
0.000876514
0.000872433
0.00086819
0.000916952
0.000917031
0.000917099
0.000917254
0.000917451
0.000917684
0.000917942
0.000918207
0.00091848
0.000918771
0.000919088
0.000919432
0.000919797
0.000920171
0.000920543
0.000920902
0.000921239
0.000921544
0.000921811
0.000922032
0.000922201
0.000922311
0.000922357
0.000922331
0.000922227
0.00092204
0.000921762
0.000921389
0.000920913
0.000920331
0.000919635
0.00091882
0.000917882
0.000916815
0.000915615
0.000914277
0.000912796
0.00091117
0.000909395
0.000907466
0.000905383
0.000903141
0.000900738
0.000898174
0.000895447
0.000892555
0.000889498
0.000886275
0.000882888
0.000879336
0.00087562
0.000871742
0.000867704
0.000863507
0.000859154
0.000914479
0.000914552
0.000914605
0.000914735
0.000914901
0.000915093
0.000915299
0.000915503
0.000915706
0.000915922
0.000916161
0.000916425
0.000916705
0.00091699
0.000917268
0.000917526
0.000917755
0.000917948
0.000918097
0.000918196
0.000918237
0.000918215
0.000918124
0.000917958
0.00091771
0.000917375
0.000916947
0.00091642
0.000915789
0.000915048
0.000914191
0.000913215
0.000912113
0.000910882
0.000909517
0.000908014
0.000906368
0.000904577
0.000902638
0.000900547
0.000898302
0.000895901
0.000893341
0.000890623
0.000887744
0.000884704
0.000881503
0.00087814
0.000874617
0.000870935
0.000867093
0.000863095
0.000858942
0.000854637
0.000850181
0.00091195
0.000912017
0.000912056
0.000912161
0.000912294
0.000912444
0.000912599
0.00091274
0.000912872
0.000913013
0.000913175
0.000913358
0.000913553
0.000913749
0.000913931
0.000914087
0.00091421
0.00091429
0.000914321
0.000914297
0.00091421
0.000914057
0.000913829
0.000913523
0.000913132
0.00091265
0.000912073
0.000911394
0.000910608
0.00090971
0.000908695
0.000907559
0.000906297
0.000904904
0.000903377
0.000901712
0.000899905
0.000897953
0.000895853
0.000893604
0.000891202
0.000888647
0.000885936
0.000883068
0.000880044
0.000876862
0.000873522
0.000870026
0.000866374
0.000862567
0.000858607
0.000854496
0.000850235
0.000845828
0.000841278
0.000909365
0.000909426
0.00090945
0.000909529
0.000909631
0.000909738
0.00090984
0.000909918
0.00090998
0.000910046
0.00091013
0.000910231
0.000910342
0.000910447
0.000910533
0.000910588
0.000910604
0.000910571
0.000910484
0.000910336
0.000910123
0.000909837
0.000909475
0.000909029
0.000908495
0.000907868
0.000907142
0.000906312
0.000905374
0.000904321
0.00090315
0.000901857
0.000900436
0.000898885
0.000897199
0.000895375
0.00089341
0.000891301
0.000889046
0.000886643
0.000884089
0.000881384
0.000878526
0.000875516
0.000872351
0.000869033
0.000865562
0.000861939
0.000858164
0.00085424
0.000850168
0.00084595
0.00084159
0.000837089
0.000832451
0.000906725
0.000906779
0.000906788
0.000906841
0.00090691
0.000906974
0.000907022
0.000907038
0.00090703
0.000907021
0.000907027
0.000907047
0.000907072
0.000907086
0.000907076
0.00090703
0.000906937
0.000906792
0.000906587
0.000906317
0.000905976
0.000905559
0.000905062
0.000904478
0.000903802
0.000903031
0.000902158
0.000901179
0.000900089
0.000898884
0.000897559
0.000896111
0.000894535
0.000892828
0.000890986
0.000889008
0.000886889
0.000884627
0.000882221
0.000879668
0.000876968
0.000874119
0.00087112
0.000867971
0.000864673
0.000861225
0.000857628
0.000853884
0.000849994
0.000845959
0.000841782
0.000837466
0.000833012
0.000828425
0.000823707
0.000904029
0.000904077
0.00090407
0.000904096
0.000904132
0.000904153
0.000904147
0.000904101
0.000904023
0.00090394
0.000903867
0.000903806
0.000903745
0.000903668
0.000903562
0.000903413
0.000903213
0.000902954
0.000902631
0.000902239
0.000901771
0.000901224
0.000900592
0.000899871
0.000899055
0.000898141
0.000897123
0.000895996
0.000894757
0.000893402
0.000891926
0.000890325
0.000888597
0.000886738
0.000884745
0.000882615
0.000880346
0.000877936
0.000875383
0.000872686
0.000869844
0.000866856
0.000863721
0.000860441
0.000857014
0.000853443
0.000849727
0.000845869
0.000841869
0.000837731
0.000833456
0.000829048
0.000824509
0.000819842
0.000815051
0.000901278
0.000901318
0.000901296
0.000901295
0.000901297
0.000901274
0.000901215
0.000901107
0.000900961
0.000900804
0.000900653
0.00090051
0.000900362
0.000900194
0.00089999
0.000899739
0.000899431
0.000899059
0.000898619
0.000898104
0.000897511
0.000896834
0.000896069
0.000895212
0.000894257
0.000893201
0.000892039
0.000890768
0.000889382
0.000887879
0.000886254
0.000884505
0.000882627
0.000880619
0.000878478
0.000876201
0.000873786
0.000871232
0.000868538
0.000865701
0.000862723
0.000859601
0.000856337
0.00085293
0.000849382
0.000845693
0.000841865
0.000837899
0.000833797
0.000829562
0.000825197
0.000820704
0.000816086
0.000811347
0.00080649
0.000898472
0.000898504
0.000898467
0.000898438
0.000898406
0.000898339
0.000898226
0.000898057
0.000897844
0.000897614
0.000897386
0.00089716
0.000896926
0.000896665
0.000896364
0.00089601
0.000895594
0.00089511
0.000894552
0.000893916
0.000893197
0.000892392
0.000891495
0.000890502
0.00088941
0.000888215
0.000886911
0.000885496
0.000883967
0.000882318
0.000880548
0.000878652
0.00087663
0.000874476
0.000872191
0.000869771
0.000867215
0.000864522
0.00086169
0.00085872
0.00085561
0.000852361
0.000848972
0.000845446
0.000841782
0.000837982
0.000834047
0.000829981
0.000825784
0.000821459
0.000817009
0.000812438
0.000807749
0.000802945
0.00079803
0.000895611
0.000895636
0.000895583
0.000895526
0.000895459
0.000895348
0.000895182
0.000894954
0.000894675
0.000894373
0.000894067
0.000893759
0.000893437
0.000893084
0.000892684
0.000892227
0.000891703
0.000891107
0.000890432
0.000889676
0.000888833
0.000887899
0.000886872
0.000885746
0.000884518
0.000883185
0.000881742
0.000880186
0.000878515
0.000876724
0.000874811
0.000872773
0.000870608
0.000868314
0.000865889
0.00086333
0.000860638
0.00085781
0.000854847
0.000851747
0.000848512
0.00084514
0.000841634
0.000837993
0.00083422
0.000830315
0.000826281
0.00082212
0.000817834
0.000813427
0.0008089
0.000804258
0.000799504
0.000794642
0.000789675
0.000892696
0.000892714
0.000892645
0.00089256
0.000892458
0.000892303
0.000892085
0.000891797
0.000891454
0.000891081
0.000890699
0.000890308
0.000889897
0.000889451
0.000888953
0.000888393
0.000887762
0.000887053
0.000886262
0.000885386
0.000884419
0.00088336
0.000882203
0.000880945
0.000879584
0.000878115
0.000876535
0.000874841
0.000873031
0.000871101
0.000869049
0.000866872
0.000864569
0.000862137
0.000859576
0.000856884
0.000854059
0.000851102
0.000848012
0.000844789
0.000841433
0.000837946
0.000834327
0.000830579
0.000826702
0.0008227
0.000818573
0.000814324
0.000809956
0.000805472
0.000800876
0.00079617
0.000791358
0.000786444
0.000781433
0.000889728
0.000889738
0.000889655
0.000889541
0.000889403
0.000889205
0.000888934
0.000888589
0.000888183
0.00088774
0.000887281
0.000886808
0.000886309
0.000885769
0.000885173
0.00088451
0.000883771
0.000882951
0.000882045
0.000881049
0.000879961
0.000878776
0.000877491
0.000876104
0.000874611
0.000873008
0.000871294
0.000869465
0.000867519
0.000865453
0.000863265
0.000860953
0.000858515
0.000855951
0.000853258
0.000850436
0.000847485
0.000844404
0.000841192
0.000837851
0.000834381
0.000830783
0.000827059
0.000823209
0.000819235
0.000815141
0.000810927
0.000806597
0.000802154
0.000797601
0.000792941
0.000788178
0.000783315
0.000778357
0.000773307
0.000886708
0.000886711
0.000886612
0.00088647
0.000886297
0.000886055
0.000885733
0.000885332
0.000884863
0.000884352
0.000883818
0.000883262
0.000882674
0.00088204
0.000881345
0.000880579
0.000879733
0.000878802
0.000877782
0.000876669
0.000875459
0.000874151
0.00087274
0.000871225
0.000869602
0.000867869
0.000866023
0.000864062
0.000861983
0.000859784
0.000857464
0.000855021
0.000852453
0.00084976
0.000846941
0.000843994
0.000840921
0.00083772
0.000834393
0.00083094
0.000827361
0.000823659
0.000819834
0.000815889
0.000811825
0.000807645
0.000803351
0.000798947
0.000794435
0.000789819
0.000785102
0.000780288
0.000775381
0.000770385
0.000765304
0.000883637
0.000883633
0.00088352
0.000883348
0.00088314
0.000882855
0.000882483
0.000882027
0.000881498
0.000880919
0.000880309
0.00087967
0.000878994
0.000878266
0.000877473
0.000876604
0.000875652
0.000874611
0.000873477
0.000872247
0.000870918
0.000869488
0.000867954
0.000866313
0.000864563
0.000862702
0.000860727
0.000858636
0.000856428
0.0008541
0.000851652
0.000849081
0.000846388
0.000843571
0.000840629
0.000837563
0.000834373
0.000831058
0.00082762
0.00082406
0.000820379
0.000816578
0.000812659
0.000808624
0.000804476
0.000800217
0.00079585
0.000791378
0.000786804
0.000782131
0.000777364
0.000772506
0.000767561
0.000762533
0.000757427
0.000880517
0.000880506
0.000880379
0.000880178
0.000879934
0.000879608
0.000879186
0.000878675
0.000878087
0.000877441
0.000876757
0.000876036
0.000875271
0.00087445
0.000873558
0.000872587
0.000871529
0.000870379
0.000869133
0.000867788
0.000866341
0.000864791
0.000863136
0.000861371
0.000859497
0.00085751
0.000855409
0.000853193
0.000850859
0.000848406
0.000845833
0.000843139
0.000840324
0.000837387
0.000834328
0.000831148
0.000827846
0.000824423
0.00082088
0.000817219
0.00081344
0.000809547
0.00080554
0.000801422
0.000797196
0.000792864
0.00078843
0.000783896
0.000779266
0.000774544
0.000769733
0.000764837
0.00075986
0.000754807
0.000749682
0.000877349
0.000877332
0.00087719
0.000876961
0.000876682
0.000876314
0.000875844
0.00087528
0.000874633
0.000873921
0.000873163
0.000872361
0.000871508
0.000870593
0.000869604
0.000868531
0.000867368
0.00086611
0.000864753
0.000863294
0.000861732
0.000860064
0.000858289
0.000856404
0.000854408
0.000852299
0.000850075
0.000847736
0.00084528
0.000842705
0.000840012
0.0008372
0.000834268
0.000831216
0.000828045
0.000824754
0.000821346
0.00081782
0.000814178
0.000810421
0.000806552
0.000802572
0.000798483
0.000794288
0.00078999
0.000785592
0.000781097
0.000776507
0.000771828
0.000767062
0.000762213
0.000757285
0.000752283
0.000747211
0.000742072
0.000874135
0.000874112
0.000873957
0.0008737
0.000873385
0.000872977
0.000872459
0.000871842
0.000871137
0.000870361
0.000869529
0.000868646
0.000867706
0.000866699
0.000865613
0.000864439
0.000863172
0.000861807
0.000860341
0.000858771
0.000857095
0.000855311
0.000853419
0.000851416
0.000849301
0.000847072
0.00084473
0.000842271
0.000839696
0.000837005
0.000834195
0.000831268
0.000828224
0.000825062
0.000821783
0.000818389
0.000814879
0.000811256
0.00080752
0.000803674
0.000799719
0.000795658
0.000791493
0.000787228
0.000782864
0.000778406
0.000773855
0.000769217
0.000764494
0.00075969
0.00075481
0.000749857
0.000744835
0.000739748
0.000734602
0.000870878
0.000870849
0.000870681
0.000870396
0.000870047
0.000869599
0.000869034
0.000868365
0.000867603
0.000866763
0.000865858
0.000864895
0.000863869
0.000862769
0.000861587
0.000860314
0.000858945
0.000857474
0.0008559
0.00085422
0.000852433
0.000850536
0.000848529
0.000846411
0.00084418
0.000841836
0.000839377
0.000836803
0.000834114
0.000831309
0.000828388
0.000825351
0.000822199
0.000818932
0.000815551
0.000812057
0.000808451
0.000804736
0.000800912
0.000796982
0.000792948
0.000788812
0.000784577
0.000780247
0.000775824
0.000771311
0.000766712
0.00076203
0.00075727
0.000752434
0.000747528
0.000742555
0.000737519
0.000732424
0.000727275
0.000867581
0.000867545
0.000867364
0.000867052
0.000866668
0.000866183
0.000865572
0.000864851
0.000864033
0.000863129
0.000862153
0.00086111
0.000859998
0.000858808
0.000857531
0.00085616
0.00085469
0.000853116
0.000851435
0.000849648
0.000847751
0.000845743
0.000843625
0.000841394
0.000839051
0.000836594
0.000834023
0.000831337
0.000828537
0.000825623
0.000822595
0.000819453
0.000816198
0.00081283
0.000809352
0.000805764
0.000802068
0.000798266
0.00079436
0.000790352
0.000786244
0.000782039
0.000777741
0.000773351
0.000768874
0.000764313
0.000759671
0.000754952
0.00075016
0.000745299
0.000740372
0.000735384
0.000730339
0.000725242
0.000720096
0.000864244
0.000864203
0.00086401
0.000863671