/*--------------------------------*- C++ -*----------------------------------*\
| =========                 |                                                 |
| \\      /  F ield         | OpenFOAM: The Open Source CFD Toolbox           |
|  \\    /   O peration     | Version:  2412                                  |
|   \\  /    A nd           | Website:  www.openfoam.com                      |
|    \\/     M anipulation  |                                                 |
\*---------------------------------------------------------------------------*/
FoamFile
{
    version     2.0;
    format      ascii;
    arch        "LSB;label=32;scalar=64";
    class       surfaceScalarField;
    location    "11.5";
    object      phi;
}
// * * * * * * * * * * * * * * * * * * * * * * * * * * * * * * * * * * * * * //

dimensions      [0 3 -1 0 0 0 0];

oriented        oriented;

internalField   nonuniform List<scalar> 
10424
(
0.00525353
-0.000272264
-0.00525724
0.00525012
-0.000269663
0.005247
-0.000266883
-0.000263931
0.00526219
-0.00026836
-0.00526609
0.00525857
-0.000266046
0.00525524
-0.000263549
0.00525218
-0.000260875
0.0052494
-0.000258031
0.00524688
-0.000255025
0.00524462
-0.000251865
0.00524262
-0.000248558
0.00524085
-0.000245113
0.00523933
-0.000241537
0.00523803
-0.00023784
0.00523695
-0.000234029
0.00523609
-0.000230113
0.00523542
-0.000226099
0.00523495
-0.000221995
0.00523466
-0.000217806
0.00523455
-0.000213541
0.0052346
-0.000209206
0.00523481
-0.000204809
0.00523517
-0.000200361
0.00523568
-0.000195872
0.00523631
-0.000191356
0.00523706
-0.000186824
0.00523793
-0.000182291
0.0052389
-0.000177769
0.00523996
-0.000173267
0.0052411
-0.000168792
0.00524231
-0.00016435
0.00524359
-0.000159944
0.00524493
-0.000155574
0.00524631
-0.000151243
0.00524773
-0.00014695
0.00524918
-0.000142696
0.00525066
-0.000138484
0.00525215
-0.000134315
0.00525366
-0.000130189
0.00525517
-0.000126111
0.00525668
-0.000122081
0.00525819
-0.000118101
0.00525969
-0.000114174
0.00526118
-0.0001103
0.00526266
-0.000106483
0.00526411
-0.000102723
-9.90215e-05
0.00527045
-0.000264287
-0.00527452
0.00526665
-0.000262251
0.00526313
-0.000260028
0.00525988
-0.000257624
0.00525689
-0.000255046
0.00525417
-0.000252301
0.0052517
-0.000249395
0.00524948
-0.000246337
0.0052475
-0.000243133
0.00524575
-0.000239793
0.00524424
-0.000236322
0.00524294
-0.000232731
0.00524185
-0.000229026
0.00524097
-0.000225215
0.00524028
-0.000221306
0.00523977
-0.000217304
0.00523945
-0.000213217
0.0052393
-0.000209052
0.0052393
-0.000204817
0.00523947
-0.000200522
0.00523977
-0.000196178
0.00524021
-0.000191797
0.00524078
-0.000187392
0.00524146
-0.000182976
0.00524226
-0.000178561
0.00524315
-0.000174156
0.00524412
-0.00016977
0.00524518
-0.000165407
0.00524631
-0.00016107
0.00524749
-0.000156762
0.00524873
-0.000152483
0.00525002
-0.000148235
0.00525134
-0.000144019
0.0052527
-0.000139838
0.00525407
-0.000135692
0.00525547
-0.000131584
0.00525688
-0.000127518
0.00525829
-0.000123494
0.0052597
-0.000119516
0.00526112
-0.000115585
0.00526252
-0.000111705
0.00526391
-0.000107876
0.00526529
-0.000104101
-0.000100382
0.00527832
-0.00026007
-0.00528254
0.00527437
-0.0002583
0.00527068
-0.000256342
0.00526726
-0.000254201
0.00526409
-0.000251881
0.00526118
-0.000249391
0.00525852
-0.000246734
0.00525611
-0.00024392
0.00525393
-0.000240955
0.00525198
-0.000237846
0.00525026
-0.000234601
0.00524876
-0.000231228
0.00524746
-0.000227734
0.00524637
-0.000224127
0.00524548
-0.000220413
0.00524478
-0.000216599
0.00524425
-0.000212693
0.0052439
-0.0002087
0.00524372
-0.000204631
0.00524368
-0.000200492
0.0052438
-0.000196296
0.00524406
-0.000192055
0.00524445
-0.00018778
0.00524496
-0.000183486
0.00524558
-0.000179183
0.00524631
-0.000174881
0.00524712
-0.000170588
0.00524803
-0.000166309
0.005249
-0.000162048
0.00525005
-0.000157807
0.00525115
-0.000153586
0.00525231
-0.000149389
0.0052535
-0.000145216
0.00525474
-0.000141071
0.005256
-0.000136954
0.00525728
-0.00013287
0.00525859
-0.00012882
0.0052599
-0.000124808
0.00526122
-0.000120836
0.00526254
-0.000116908
0.00526386
-0.000113024
0.00526518
-0.000109189
0.00526648
-0.000105404
-0.00010167
0.00528581
-0.000255731
-0.00529015
0.00528173
-0.000254217
0.0052779
-0.000252514
0.00527433
-0.000250626
0.005271
-0.000248558
0.00526792
-0.000246314
0.00526509
-0.000243901
0.0052625
-0.000241326
0.00526014
-0.000238595
0.00525801
-0.000235715
0.0052561
-0.000232692
0.00525441
-0.000229536
0.00525292
-0.000226251
0.00525164
-0.000222847
0.00525056
-0.000219329
0.00524966
-0.000215705
0.00524895
-0.00021198
0.00524841
-0.000208162
0.00524804
-0.000204259
0.00524783
-0.00020028
0.00524777
-0.000196235
0.00524785
-0.000192137
0.00524807
-0.000187997
0.00524841
-0.000183828
0.00524887
-0.000179641
0.00524943
-0.000175447
0.0052501
-0.000171252
0.00525085
-0.000167063
0.00525169
-0.000162882
0.00525259
-0.000158712
0.00525356
-0.000154556
0.00525459
-0.000150415
0.00525566
-0.00014629
0.00525678
-0.000142186
0.00525793
-0.000138104
0.0052591
-0.000134048
0.0052603
-0.00013002
0.00526152
-0.000126024
0.00526275
-0.000122064
0.00526398
-0.000118141
0.00526521
-0.000114259
0.00526645
-0.000110421
0.00526767
-0.000106629
-0.000102886
0.00529293
-0.000251291
-0.00529737
0.00528874
-0.000250023
0.00528479
-0.000248565
0.00528108
-0.000246921
0.00527762
-0.000245094
0.0052744
-0.00024309
0.00527141
-0.000240915
0.00526866
-0.000238573
0.00526613
-0.000236071
0.00526383
-0.000233415
0.00526175
-0.000230612
0.00525988
-0.000227669
0.00525822
-0.000224592
0.00525677
-0.00022139
0.00525551
-0.000218068
0.00525443
-0.000214632
0.00525354
-0.00021109
0.00525283
-0.000207447
0.00525228
-0.000203713
0.0052519
-0.000199895
0.00525167
-0.000196004
0.00525158
-0.000192051
0.00525163
-0.000188049
0.00525181
-0.000184009
0.00525211
-0.000179943
0.00525253
-0.00017586
0.00525304
-0.000171768
0.00525365
-0.000167672
0.00525435
-0.000163576
0.00525512
-0.000159483
0.00525596
-0.000155395
0.00525686
-0.000151315
0.00525781
-0.000147244
0.00525881
-0.000143186
0.00525985
-0.000139143
0.00526092
-0.000135119
0.00526202
-0.000131119
0.00526314
-0.000127144
0.00526427
-0.000123199
0.00526542
-0.000119287
0.00526657
-0.000115411
0.00526772
-0.000111574
0.00526887
-0.000107779
-0.00010403
0.00529969
-0.00024677
-0.00530421
0.00529541
-0.000245736
0.00529135
-0.000244513
0.00528754
-0.000243103
0.00528395
-0.00024151
0.0052806
-0.000239738
0.00527748
-0.000237792
0.00527458
-0.000235677
0.00527191
-0.000233398
0.00526945
-0.000230962
0.00526722
-0.000228374
0.00526519
-0.000225642
0.00526337
-0.000222771
0.00526175
-0.000219768
0.00526032
-0.00021664
0.00525908
-0.000213393
0.00525802
-0.000210033
0.00525714
-0.000206567
0.00525643
-0.000203002
0.00525588
-0.000199346
0.00525549
-0.000195611
0.00525524
-0.000191806
0.00525514
-0.000187944
0.00525517
-0.000184036
0.00525532
-0.000180093
0.00525558
-0.000176125
0.00525595
-0.000172139
0.00525642
-0.000168141
0.00525698
-0.000164135
0.00525762
-0.000160123
0.00525834
-0.000156109
0.00525911
-0.000152093
0.00525995
-0.00014808
0.00526084
-0.000144073
0.00526177
-0.000140074
0.00526274
-0.000136087
0.00526373
-0.000132118
0.00526476
-0.000128168
0.0052658
-0.000124243
0.00526686
-0.000120345
0.00526793
-0.000116479
0.005269
-0.000112648
0.00527008
-0.000108854
-0.000105102
0.0053061
-0.000242187
-0.00531068
0.00530174
-0.000241375
0.0052976
-0.000240376
0.00529369
-0.00023919
0.00529
-0.000237821
0.00528654
-0.000236273
0.00528329
-0.000234549
0.00528027
-0.000232654
0.00527747
-0.000230593
0.00527488
-0.000228371
0.0052725
-0.000225994
0.00527032
-0.000223469
0.00526835
-0.0002208
0.00526658
-0.000217995
0.005265
-0.000215059
0.0052636
-0.000211999
0.00526239
-0.00020882
0.00526135
-0.00020553
0.00526049
-0.000202135
0.00525978
-0.000198643
0.00525924
-0.000195064
0.00525884
-0.000191409
0.00525859
-0.000187689
0.00525846
-0.000183915
0.00525847
-0.000180099
0.00525859
-0.000176249
0.00525883
-0.000172373
0.00525916
-0.000168476
0.00525959
-0.000164563
0.00526011
-0.000160637
0.0052607
-0.000156699
0.00526136
-0.000152753
0.00526208
-0.000148802
0.00526285
-0.000144849
0.00526368
-0.000140898
0.00526454
-0.000136954
0.00526545
-0.000133019
0.00526638
-0.000129099
0.00526733
-0.000125197
0.0052683
-0.000121318
0.00526929
-0.000117465
0.00527029
-0.000113643
0.00527129
-0.000109854
-0.000106103
0.00531217
-0.000237556
-0.0053168
0.00530775
-0.000236956
0.00530354
-0.00023617
0.00529955
-0.000235199
0.00529578
-0.000234045
0.00529221
-0.000232712
0.00528887
-0.000231203
0.00528573
-0.00022952
0.00528281
-0.00022767
0.0052801
-0.000225657
0.00527759
-0.000223486
0.00527528
-0.000221162
0.00527318
-0.000218692
0.00527126
-0.000216082
0.00526954
-0.000213336
0.005268
-0.000210461
0.00526664
-0.000207463
0.00526546
-0.000204347
0.00526445
-0.000201121
0.0052636
-0.000197793
0.00526291
-0.000194372
0.00526236
-0.000190868
0.00526197
-0.000187291
0.00526171
-0.000183654
0.00526157
-0.000179967
0.00526156
-0.000176238
0.00526166
-0.000172474
0.00526187
-0.000168682
0.00526217
-0.000164866
0.00526256
-0.000161027
0.00526303
-0.000157171
0.00526358
-0.000153298
0.00526419
-0.000149413
0.00526486
-0.000145519
0.00526558
-0.00014162
0.00526635
-0.00013772
0.00526715
-0.000133825
0.00526799
-0.000129937
0.00526886
-0.000126063
0.00526975
-0.000122206
0.00527065
-0.000118371
0.00527157
-0.000114561
0.0052725
-0.000110781
-0.000107034
0.0053179
-0.000232895
-0.00532256
0.00531344
-0.000232495
0.00530918
-0.000231911
0.00530513
-0.000231145
0.00530128
-0.000230197
0.00529764
-0.00022907
0.0052942
-0.000227766
0.00529097
-0.00022629
0.00528794
-0.000224644
0.00528512
-0.000222833
0.00528249
-0.000220862
0.00528007
-0.000218736
0.00527784
-0.000216461
0.0052758
-0.000214041
0.00527394
-0.000211482
0.00527227
-0.00020879
0.00527078
-0.00020597
0.00526946
-0.000203028
0.00526831
-0.000199971
0.00526732
-0.000196807
0.00526649
-0.000193543
0.00526582
-0.00019019
0.00526528
-0.000186759
0.00526489
-0.000183259
0.00526462
-0.000179702
0.00526448
-0.000176096
0.00526446
-0.000172448
0.00526454
-0.000168764
0.00526472
-0.000165046
0.00526499
-0.0001613
0.00526535
-0.000157527
0.00526578
-0.000153731
0.00526628
-0.000149915
0.00526685
-0.000146083
0.00526747
-0.00014224
0.00526814
-0.000138389
0.00526885
-0.000134536
0.0052696
-0.000130686
0.00527038
-0.000126843
0.00527118
-0.000123011
0.00527201
-0.000119197
0.00527285
-0.000115403
0.0052737
-0.000111634
-0.000107894
0.00532332
-0.000228216
-0.005328
0.00531883
-0.000228005
0.00531453
-0.000227613
0.00531043
-0.000227041
0.00530652
-0.000226289
0.00530281
-0.000225359
0.0052993
-0.000224254
0.00529598
-0.000222975
0.00529286
-0.000221526
0.00528994
-0.000219912
0.00528722
-0.000218135
0.00528468
-0.000216202
0.00528234
-0.000214116
0.00528018
-0.000211883
0.00527821
-0.000209508
0.00527641
-0.000206996
0.00527479
-0.000204352
0.00527335
-0.000201583
0.00527207
-0.000198693
0.00527095
-0.000195691
0.00527
-0.000192585
0.00526919
-0.000189383
0.00526853
-0.000186098
0.00526801
-0.000182737
0.00526762
-0.000179313
0.00526735
-0.000175831
0.0052672
-0.000172301
0.00526717
-0.000168726
0.00526723
-0.000165111
0.00526739
-0.000161459
0.00526763
-0.000157773
0.00526796
-0.000154056
0.00526836
-0.000150313
0.00526882
-0.000146547
0.00526934
-0.000142762
0.00526992
-0.000138963
0.00527054
-0.000135156
0.0052712
-0.000131346
0.00527189
-0.000127537
0.00527261
-0.000123734
0.00527336
-0.000119944
0.00527413
-0.000116169
0.00527491
-0.000112415
-0.000108685
0.00532843
-0.000223532
-0.00533311
0.00532392
-0.000223499
0.0053196
-0.000223289
0.00531546
-0.000222901
0.0053115
-0.000222336
0.00530774
-0.000221594
0.00530416
-0.000220678
0.00530078
-0.000219589
0.00529758
-0.00021833
0.00529457
-0.000216905
0.00529176
-0.000215317
0.00528912
-0.00021357
0.00528668
-0.00021167
0.00528441
-0.000209619
0.00528233
-0.000207424
0.00528042
-0.000205089
0.00527869
-0.000202619
0.00527713
-0.000200019
0.00527573
-0.000197296
0.00527449
-0.000194455
0.00527341
-0.000191505
0.00527249
-0.000188456
0.0052717
-0.000185316
0.00527106
-0.000182095
0.00527055
-0.000178803
0.00527017
-0.000175448
0.0052699
-0.000172036
0.00526975
-0.000168573
0.0052697
-0.000165063
0.00526975
-0.000161508
0.00526989
-0.000157911
0.00527011
-0.000154277
0.00527041
-0.000150609
0.00527077
-0.000146911
0.0052712
-0.000143188
0.00527168
-0.000139444
0.00527221
-0.000135686
0.00527278
-0.000131919
0.00527339
-0.000128147
0.00527404
-0.000124377
0.00527471
-0.000120613
0.0052754
-0.00011686
0.00527611
-0.000113124
-0.000109408
0.00533324
-0.000218855
-0.00533792
0.00532873
-0.000218989
0.00532439
-0.00021895
0.00532023
-0.000218737
0.00531624
-0.000218348
0.00531243
-0.000217786
0.0053088
-0.00021705
0.00530536
-0.000216143
0.00530209
-0.000215067
0.00529901
-0.000213825
0.00529612
-0.000212419
0.0052934
-0.000210853
0.00529086
-0.000209132
0.0052885
-0.00020726
0.00528632
-0.000205241
0.00528431
-0.000203079
0.00528247
-0.00020078
0.0052808
-0.000198347
0.00527929
-0.000195787
0.00527794
-0.000193106
0.00527675
-0.000190312
0.0052757
-0.000187413
0.00527481
-0.000184419
0.00527405
-0.000181338
0.00527343
-0.00017818
0.00527293
-0.000174952
0.00527256
-0.000171661
0.00527229
-0.000168311
0.00527214
-0.000164907
0.00527208
-0.000161451
0.00527212
-0.000157947
0.00527224
-0.000154397
0.00527243
-0.000150807
0.0052727
-0.000147179
0.00527304
-0.00014352
0.00527343
-0.000139835
0.00527387
-0.000136129
0.00527436
-0.000132407
0.00527489
-0.000128676
0.00527545
-0.00012494
0.00527604
-0.000121206
0.00527666
-0.000117479
0.0052773
-0.000113763
-0.000110063
0.00533777
-0.000214194
-0.00534243
0.00533326
-0.000214486
0.00532892
-0.000214608
0.00532474
-0.000214559
0.00532073
-0.000214338
0.00531689
-0.000213946
0.00531322
-0.000213382
0.00530973
-0.000212649
0.00530641
-0.000211748
0.00530327
-0.000210681
0.0053003
-0.000209451
0.00529751
-0.00020806
0.00529489
-0.000206514
0.00529244
-0.000204815
0.00529017
-0.000202967
0.00528807
-0.000200975
0.00528613
-0.000198842
0.00528436
-0.000196574
0.00528274
-0.000194176
0.00528129
-0.000191653
0.00527999
-0.000189013
0.00527884
-0.000186264
0.00527784
-0.000183414
0.00527697
-0.000180473
0.00527624
-0.000177449
0.00527564
-0.00017435
0.00527516
-0.00017118
0.00527479
-0.000167945
0.00527453
-0.000164648
0.00527437
-0.000161293
0.00527431
-0.000157882
0.00527433
-0.000154419
0.00527443
-0.000150909
0.00527461
-0.000147355
0.00527485
-0.000143762
0.00527515
-0.000140137
0.00527551
-0.000136485
0.00527591
-0.000132812
0.00527636
-0.000129124
0.00527685
-0.000125426
0.00527737
-0.000121724
0.00527791
-0.000118025
0.00527848
-0.000114332
-0.000110651
0.00534203
-0.00020956
-0.00534666
0.00533754
-0.000209998
0.0053332
-0.000210271
0.00532902
-0.000210377
0.005325
-0.000210314
0.00532113
-0.000210083
0.00531744
-0.000209684
0.0053139
-0.000209117
0.00531054
-0.000208383
0.00530734
-0.000207484
0.00530431
-0.000206423
0.00530145
-0.000205202
0.00529876
-0.000203824
0.00529624
-0.000202293
0.00529389
-0.000200612
0.0052917
-0.000198785
0.00528967
-0.000196816
0.00528781
-0.000194709
0.0052861
-0.000192469
0.00528455
-0.000190102
0.00528315
-0.000187614
0.0052819
-0.000185014
0.00528079
-0.000182308
0.00527983
-0.000179507
0.00527899
-0.000176617
0.00527829
-0.000173645
0.00527771
-0.000170597
0.00527724
-0.000167478
0.00527688
-0.00016429
0.00527663
-0.000161037
0.00527647
-0.000157722
0.00527639
-0.000154347
0.0052764
-0.000150918
0.00527649
-0.00014744
0.00527664
-0.000143916
0.00527686
-0.000140353
0.00527713
-0.000136758
0.00527746
-0.000133136
0.00527783
-0.000129493
0.00527823
-0.000125835
0.00527868
-0.000122169
0.00527915
-0.000118499
0.00527965
-0.000114832
-0.000111173
0.00534603
-0.00020496
-0.00535063
0.00534157
-0.000205535
0.00533724
-0.000205949
0.00533307
-0.0002062
0.00532904
-0.000206286
0.00532517
-0.000206208
0.00532145
-0.000205964
0.00531788
-0.000205555
0.00531448
-0.000204981
0.00531124
-0.000204243
0.00530816
-0.000203344
0.00530525
-0.000202286
0.00530249
-0.000201071
0.0052999
-0.000199703
0.00529748
-0.000198184
0.00529521
-0.000196518
0.0052931
-0.000194709
0.00529115
-0.000192759
0.00528936
-0.000190675
0.00528772
-0.000188461
0.00528623
-0.000186123
0.00528488
-0.000183669
0.00528368
-0.000181107
0.00528262
-0.000178444
0.00528169
-0.000175687
0.00528089
-0.000172844
0.00528021
-0.000169918
0.00527964
-0.000166915
0.00527919
-0.000163837
0.00527884
-0.000160687
0.00527859
-0.000157468
0.00527843
-0.000154184
0.00527835
-0.000150839
0.00527834
-0.000147437
0.00527841
-0.000143984
0.00527854
-0.000140486
0.00527873
-0.000136949
0.00527898
-0.00013338
0.00527927
-0.000129784
0.0052796
-0.000126169
0.00527998
-0.00012254
0.00528038
-0.000118904
0.00528081
-0.000115265
-0.00011163
0.00534979
-0.000200402
-0.00535435
0.00534536
-0.000201104
0.00534106
-0.000201649
0.0053369
-0.000202036
0.00533287
-0.000202263
0.00532899
-0.000202329
0.00532526
-0.000202232
0.00532168
-0.000201972
0.00531825
-0.00020155
0.00531497
-0.000200967
0.00531185
-0.000200224
0.00530889
-0.000199322
0.00530608
-0.000198264
0.00530343
-0.000197053
0.00530094
-0.000195691
0.0052986
-0.000194182
0.00529642
-0.000192528
0.00529439
-0.000190732
0.00529252
-0.0001888
0.00529079
-0.000186736
0.00528922
-0.000184546
0.00528778
-0.000182237
0.00528649
-0.000179816
0.00528534
-0.00017729
0.00528432
-0.000174667
0.00528343
-0.000171951
0.00528266
-0.000169148
0.005282
-0.000166261
0.00528146
-0.000163294
0.00528102
-0.000160248
0.00528068
-0.000157126
0.00528043
-0.000153933
0.00528026
-0.000150672
0.00528017
-0.000147349
0.00528016
-0.000143968
0.00528021
-0.000140536
0.00528032
-0.00013706
0.00528048
-0.000133546
0.0052807
-0.00013
0.00528096
-0.00012643
0.00528126
-0.00012284
0.00528159
-0.000119239
0.00528196
-0.000115631
-0.000112022
0.00535332
-0.000195892
-0.00535783
0.00534893
-0.000196711
0.00534466
-0.000197379
0.00534052
-0.000197894
0.00533651
-0.000198252
0.00533263
-0.000198453
0.00532889
-0.000198494
0.0053253
-0.000198377
0.00532185
-0.0001981
0.00531854
-0.000197663
0.00531539
-0.000197069
0.00531238
-0.000196317
0.00530953
-0.000195411
0.00530683
-0.000194351
0.00530428
-0.000193141
0.00530188
-0.000191783
0.00529963
-0.00019028
0.00529753
-0.000188635
0.00529559
-0.000186852
0.00529378
-0.000184935
0.00529213
-0.00018289
0.00529061
-0.000180723
0.00528924
-0.000178441
0.005288
-0.000176052
0.00528689
-0.00017356
0.00528591
-0.000170971
0.00528506
-0.00016829
0.00528432
-0.00016552
0.00528368
-0.000162663
0.00528316
-0.000159721
0.00528273
-0.000156698
0.00528239
-0.000153597
0.00528214
-0.000150421
0.00528197
-0.000147178
0.00528187
-0.000143871
0.00528184
-0.000140507
0.00528188
-0.000137093
0.00528197
-0.000133636
0.00528211
-0.000130142
0.0052823
-0.000126618
0.00528253
-0.00012307
0.00528279
-0.000119506
0.00528309
-0.000115931
-0.000112351
0.00535664
-0.000191437
-0.00536109
0.00535229
-0.000192364
0.00534806
-0.000193145
0.00534394
-0.000193778
0.00533995
-0.000194259
0.00533608
-0.000194587
0.00533235
-0.00019476
0.00532875
-0.000194776
0.00532528
-0.000194636
0.00532196
-0.000194339
0.00531878
-0.000193887
0.00531574
-0.000193279
0.00531285
-0.000192518
0.0053101
-0.000191604
0.0053075
-0.000190541
0.00530505
-0.00018933
0.00530274
-0.000187973
0.00530058
-0.000186474
0.00529856
-0.000184836
0.00529669
-0.000183063
0.00529496
-0.00018116
0.00529337
-0.000179133
0.00529192
-0.000176989
0.0052906
-0.000174733
0.00528941
-0.000172371
0.00528835
-0.000169909
0.00528741
-0.000167349
0.00528658
-0.000164695
0.00528587
-0.000161948
0.00528526
-0.000159111
0.00528475
-0.000156186
0.00528433
-0.000153178
0.005284
-0.000150089
0.00528374
-0.000146926
0.00528357
-0.000143694
0.00528346
-0.000140399
0.00528342
-0.000137049
0.00528343
-0.000133651
0.0052835
-0.00013021
0.00528362
-0.000126735
0.00528378
-0.000123231
0.00528398
-0.000119706
0.00528421
-0.000116166
-0.000112617
0.00535975
-0.00536415
-0.00018704
0.00535546
-0.000188067
0.00535126
-0.000188953
0.00534718
-0.000189695
0.00534321
-0.000190291
0.00533936
-0.000190738
0.00533564
-0.000191033
0.00533204
-0.000191177
0.00532857
-0.000191166
0.00532523
-0.000191002
0.00532203
-0.000190685
0.00531896
-0.000190215
0.00531604
-0.000189592
0.00531325
-0.000188819
0.00531061
-0.000187897
0.00530811
-0.000186828
0.00530575
-0.000185613
0.00530353
-0.000184256
0.00530145
-0.000182759
0.00529952
-0.000181126
0.00529772
-0.000179362
0.00529606
-0.000177472
0.00529453
-0.000175463
0.00529314
-0.000173339
0.00529187
-0.000171106
0.00529073
-0.000168768
0.00528971
-0.000166329
0.00528881
-0.00016379
0.00528801
-0.000161153
0.00528732
-0.000158421
0.00528673
-0.000155595
0.00528623
-0.000152679
0.00528582
-0.000149678
0.00528549
-0.000146596
0.00528524
-0.00014344
0.00528505
-0.000140216
0.00528493
-0.000136931
0.00528487
-0.000133592
0.00528487
-0.000130207
0.00528492
-0.000126781
0.00528501
-0.000123323
0.00528514
-0.00011984
0.00528532
-0.000116336
-0.00011282
0.00560624
-0.000504994
0.00558126
-0.000504393
0.0055572
-0.000502418
0.00553411
-0.000499176
0.00551201
-0.000494784
0.00549093
-0.000489362
0.00547089
-0.00048303
0.00545189
-0.000475908
0.00543393
-0.00046811
0.00541699
-0.000459742
0.00540106
-0.000450904
0.00538612
-0.000441683
0.00537214
-0.000432161
0.00535908
-0.000422407
0.00534692
-0.000412486
0.00533562
-0.000402452
0.00532514
-0.000392354
0.00531545
-0.000382236
0.0053065
-0.000372135
0.00529826
-0.000362086
0.00529068
-0.000352118
0.00528374
-0.000342257
0.00527739
-0.000332525
0.00527161
-0.000322941
0.00526634
-0.000313522
0.00526156
-0.000304282
-0.000295232
0.00560707
-0.000480594
0.0055834
-0.00048073
0.00556054
-0.000479552
0.00553852
-0.000477157
0.00551739
-0.00047365
0.00549717
-0.000469141
0.00547788
-0.000463741
0.00545953
-0.000457561
0.00544213
-0.000450706
0.00542566
-0.000443277
0.00541012
-0.000435367
0.0053955
-0.000427058
0.00538176
-0.000418426
0.0053689
-0.000409539
0.00535687
-0.000400456
0.00534565
-0.000391231
0.0053352
-0.00038191
0.0053255
-0.000372536
0.00531651
-0.000363145
0.0053082
-0.000353772
0.00530053
-0.000344445
0.00529346
-0.000335191
0.00528697
-0.000326033
0.00528102
-0.00031699
0.00527557
-0.00030808
0.00527061
-0.000299317
-0.000290715
0.00560718
-0.000457551
0.00558476
-0.000458317
0.00556304
-0.00045783
0.00554206
-0.000456177
0.00552186
-0.000453452
0.00550248
-0.000449756
0.00548393
-0.000445192
0.00546623
-0.000439862
0.00544939
-0.000433866
0.00543341
-0.000427295
0.00541828
-0.000420237
0.00540399
-0.000412771
0.00539053
-0.000404965
0.00537788
-0.000396886
0.00536601
-0.000388588
0.0053549
-0.000380122
0.00534452
-0.000371534
0.00533485
-0.000362864
0.00532585
-0.000354148
0.0053175
-0.000345419
0.00530976
-0.000336705
0.0053026
-0.000328034
0.005296
-0.000319428
0.00528992
-0.000310908
0.00528433
-0.000302491
0.00527921
-0.000294193
-0.000286027
0.00560667
-0.00043579
0.00558544
-0.000437091
0.00556481
-0.000437199
0.00554483
-0.000436192
0.00552553
-0.000434156
0.00550696
-0.000431183
0.00548913
-0.000427368
0.00547208
-0.000422805
0.0054558
-0.000417588
0.0054403
-0.000411801
0.00542559
-0.000405526
0.00541166
-0.000398836
0.00539849
-0.000391797
0.00538607
-0.000384469
0.00537439
-0.000376905
0.00536342
-0.000369152
0.00535314
-0.000361254
0.00534353
-0.000353249
0.00533455
-0.000345173
0.00532619
-0.000337057
0.00531841
-0.000328929
0.0053112
-0.000320817
0.00530451
-0.000312742
0.00529833
-0.000304725
0.00529262
-0.000296785
0.00528737
-0.000288938
-0.000281198
0.00560562
-0.000415239
0.00558552
-0.000416989
0.00556592
-0.000417607
0.00554689
-0.00041716
0.00552846
-0.000415728
0.00551068
-0.000413396
0.00549356
-0.00041025
0.00547713
-0.00040638
0.00546141
-0.000401868
0.00544641
-0.000396797
0.00543212
-0.000391241
0.00541855
-0.000385267
0.00540569
-0.000378937
0.00539353
-0.000372308
0.00538206
-0.000365428
0.00537125
-0.000358344
0.00536109
-0.000351094
0.00535156
-0.000343718
0.00534263
-0.000336247
0.00533429
-0.000328714
0.00532651
-0.000321145
0.00531925
-0.000313566
0.00531251
-0.000306
0.00530626
-0.000298468
0.00530046
-0.000290988
0.0052951
-0.000283577
-0.00027625
0.00560409
-0.000395829
0.00558506
-0.000397953
0.00556645
-0.000399001
0.00554833
-0.000399038
0.00553073
-0.000398134
0.00551371
-0.000396368
0.00549728
-0.000393821
0.00548147
-0.000390572
0.0054663
-0.000386701
0.00545179
-0.000382282
0.00543793
-0.000377384
0.00542473
-0.00037207
0.00541219
-0.000366397
0.0054003
-0.000360417
0.00538905
-0.000354176
0.00537842
-0.000347717
0.00536841
-0.000341077
0.00535898
-0.000334293
0.00535013
-0.000327395
0.00534183
-0.000320414
0.00533406
-0.000313376
0.0053268
-0.000306306
0.00532003
-0.000299228
0.00531372
-0.000292161
0.00530786
-0.000285124
0.00530242
-0.000278135
-0.000271207
0.00560215
-0.000377495
0.00558412
-0.000379923
0.00556646
-0.000381333
0.0055492
-0.000381784
0.00553241
-0.00038134
0.00551611
-0.000380073
0.00550035
-0.000378058
0.00548515
-0.000375368
0.00547052
-0.000372077
0.00545649
-0.000368252
0.00544307
-0.000363957
0.00543025
-0.00035925
0.00541803
-0.000354185
0.00540643
-0.000348808
0.00539541
-0.000343163
0.00538498
-0.000337288
0.00537513
-0.000331221
0.00536583
-0.000324993
0.00535707
-0.000318636
0.00534883
-0.000312178
0.0053411
-0.000305645
0.00533386
-0.000299061
0.00532708
-0.000292448
0.00532074
-0.000285826
0.00531483
-0.000279215
0.00530933
-0.000272632
-0.00026609
0.00559985
-0.000360174
0.00558278
-0.000362845
0.005566
-0.000364556
0.00554957
-0.000365358
0.00553354
-0.000365312
0.00551795
-0.000364483
0.00550284
-0.000362941
0.00548822
-0.000360753
0.00547413
-0.000357985
0.00546058
-0.000354701
0.00544758
-0.000350959
0.00543514
-0.000346812
0.00542326
-0.000342307
0.00541195
-0.00033749
0.00540118
-0.000332399
0.00539097
-0.000327071
0.00538128
-0.00032154
0.00537213
-0.000315837
0.00536348
-0.00030999
0.00535533
-0.000304026
0.00534765
-0.000297971
0.00534044
-0.000291848
0.00533367
-0.00028568
0.00532733
-0.000279484
0.0053214
-0.000273282
0.00531586
-0.000267088
-0.000260919
0.00559724
-0.000343804
0.00558106
-0.000346665
0.00556512
-0.000348621
0.00554948
-0.000349719
0.00553419
-0.000350015
0.00551927
-0.000349571
0.00550478
-0.000348448
0.00549074
-0.000346709
0.00547717
-0.000344416
0.00546409
-0.000341624
0.00545152
-0.000338387
0.00543946
-0.000334754
0.00542792
-0.000330768
0.0054169
-0.000326469
0.0054064
-0.000321895
0.00539641
-0.000317077
0.00538691
-0.000312048
0.00537791
-0.000306837
0.00536939
-0.00030147
0.00536134
-0.000295974
0.00535374
-0.000290372
0.00534658
-0.000284687
0.00533984
-0.000278941
0.00533351
-0.000273153
0.00532757
-0.000267341
0.005322
-0.000261522
-0.000255712
0.00559434
-0.000328328
0.00557901
-0.000331332
0.00556387
-0.000333484
0.00554898
-0.000334829
0.00553438
-0.000335419
0.00552012
-0.00033531
0.00550623
-0.000334559
0.00549275
-0.000333222
0.00547969
-0.000331356
0.00546708
-0.000329012
0.00545493
-0.000326238
0.00544325
-0.000323078
0.00543205
-0.00031957
0.00542134
-0.000315752
0.0054111
-0.000311657
0.00540134
-0.000307315
0.00539204
-0.000302756
0.00538321
-0.000298006
0.00537484
-0.000293091
0.0053669
-0.000288035
0.00535939
-0.000282862
0.00535229
-0.000277593
0.0053456
-0.000272249
0.0053393
-0.000266849
0.00533336
-0.00026141
0.00532779
-0.00025595
-0.000250483
0.0055912
-0.000313692
0.00557666
-0.000316797
0.00556228
-0.000319103
0.0055481
-0.000320652
0.00553418
-0.000321493
0.00552054
-0.000321675
0.00550723
-0.000321252
0.00549429
-0.000320276
0.00548173
-0.000318796
0.00546957
-0.000316859
0.00545784
-0.000314507
0.00544654
-0.000311781
0.00543569
-0.000308715
0.00542528
-0.000305342
0.00541531
-0.000301692
0.00540579
-0.000297793
0.00539671
-0.000293673
0.00538806
-0.000289355
0.00537983
-0.000284864
0.00537202
-0.000280224
0.00536461
-0.000275455
0.0053576
-0.000270579
0.00535097
-0.000265617
0.0053447
-0.000260585
0.0053388
-0.000255503
0.00533323
-0.000250386
-0.000245249
0.00558783
-0.000299841
0.00557405
-0.000303014
0.00556038
-0.000305438
0.00554688
-0.000307153
0.00553359
-0.000308205
0.00552056
-0.000308641
0.00550782
-0.000308508
0.00549539
-0.000307854
0.00548332
-0.000306722
0.00547162
-0.000305154
0.0054603
-0.000303189
0.00544938
-0.000300861
0.00543887
-0.000298202
0.00542876
-0.00029524
0.00541908
-0.000292004
0.0054098
-0.000288518
0.00540093
-0.000284806
0.00539247
-0.000280893
0.00538441
-0.0002768
0.00537673
-0.00027255
0.00536944
-0.000268162
0.00536252
-0.000263658
0.00535596
-0.000259057
0.00534975
-0.000254376
0.00534388
-0.000249633
0.00533834
-0.000244843
-0.000240022
0.00558426
-0.000286729
0.00557119
-0.000289939
0.0055582
-0.000292449
0.00554535
-0.000294299
0.00553267
-0.00029553
0.00552022
-0.000296186
0.00550802
-0.000296309
0.0054961
-0.000295941
0.00548451
-0.000295124
0.00547324
-0.000293892
0.00546233
-0.000292279
0.00545179
-0.000290316
0.00544162
-0.000288031
0.00543183
-0.000285449
0.00542242
-0.000282595
0.00541339
-0.000279492
0.00540475
-0.000276162
0.00539648
-0.000272626
0.00538859
-0.000268906
0.00538106
-0.000265022
0.00537389
-0.000260994
0.00536707
-0.000256841
0.0053606
-0.000252581
0.00535445
-0.000248233
0.00534863
-0.000243812
0.00534312
-0.000239334
-0.000234815
0.00558052
-0.000274307
0.00556811
-0.00027753
0.00555577
-0.000280102
0.00554353
-0.00028206
0.00553144
-0.000283441
0.00551954
-0.000284287
0.00550787
-0.000284636
0.00549645
-0.000284525
0.00548532
-0.00028399
0.00547449
-0.000283062
0.00546398
-0.000281771
0.0054538
-0.000280142
0.00544397
-0.000278201
0.00543449
-0.000275969
0.00542537
-0.000273469
0.0054166
-0.000270721
0.00540818
-0.000267745
0.00540011
-0.000264561
0.0053924
-0.000261189
0.00538502
-0.000257649
0.00537799
-0.000253958
0.00537128
-0.000250135
0.0053649
-0.000246198
0.00535883
-0.000242165
0.00535307
-0.00023805
0.00534761
-0.00023387
-0.000229638
0.00557662
-0.000262532
0.00556484
-0.000265751
0.00555311
-0.000268364
0.00554145
-0.000270406
0.00552992
-0.000271914
0.00551856
-0.000272925
0.0055074
-0.000273473
0.00549646
-0.000273591
0.00548578
-0.00027331
0.00547538
-0.000272658
0.00546527