/*--------------------------------*- C++ -*----------------------------------*\
| =========                 |                                                 |
| \\      /  F ield         | OpenFOAM: The Open Source CFD Toolbox           |
|  \\    /   O peration     | Version:  2412                                  |
|   \\  /    A nd           | Website:  www.openfoam.com                      |
|    \\/     M anipulation  |                                                 |
\*---------------------------------------------------------------------------*/
FoamFile
{
    version     2.0;
    format      ascii;
    arch        "LSB;label=32;scalar=64";
    class       volVectorField;
    location    "11.5";
    object      vorticity;
}
// * * * * * * * * * * * * * * * * * * * * * * * * * * * * * * * * * * * * * //

dimensions      [0 0 -1 0 0 0 0];

internalField   nonuniform List<vector> 
5285
(
(0 -0 2.06708e-07)
(0 -0 1.94309e-07)
(0 -0 2.69278e-07)
(0 -0 3.05557e-07)
(0 -0 -1.37293e-07)
(0 -0 -8.01925e-08)
(0 -0 1.73417e-08)
(0 -0 1.54135e-07)
(0 -0 1.78413e-07)
(0 -0 9.68653e-08)
(0 -0 3.4057e-09)
(0 -0 -1.27347e-07)
(0 -0 -2.37661e-07)
(0 -0 -3.5812e-07)
(0 -0 -4.41842e-07)
(0 -0 -4.19662e-07)
(0 -0 -2.10258e-07)
(0 -0 2.64424e-07)
(0 -0 1.05393e-06)
(0 -0 2.15067e-06)
(0 -0 3.46517e-06)
(0 -0 4.81841e-06)
(0 -0 5.9613e-06)
(0 -0 6.62185e-06)
(0 -0 6.57197e-06)
(0 -0 5.69324e-06)
(0 -0 4.01819e-06)
(0 -0 1.73168e-06)
(0 -0 -8.70364e-07)
(0 -0 -3.45138e-06)
(0 -0 -5.7095e-06)
(0 -0 -7.43454e-06)
(0 -0 -8.53288e-06)
(0 -0 -9.01948e-06)
(0 -0 -8.98719e-06)
(0 -0 -8.56782e-06)
(0 -0 -7.8977e-06)
(0 -0 -7.09472e-06)
(0 -0 -6.24791e-06)
(0 -0 -5.41693e-06)
(0 -0 -4.63698e-06)
(0 -0 -3.92562e-06)
(0 -0 -3.28903e-06)
(0 -0 -2.7266e-06)
(0 -0 -2.23426e-06)
(0 -0 -1.80633e-06)
(0 -0 -1.43449e-06)
(0 -0 -1.13167e-06)
(0 -0 -1.561e-07)
(0 -0 -9.948e-08)
(0 -0 3.34881e-08)
(0 -0 1.72127e-07)
(0 -0 2.41538e-07)
(0 -0 2.06505e-07)
(0 -0 1.0497e-07)
(0 -0 3.04809e-08)
(0 -0 -7.12008e-08)
(0 -0 -1.84651e-07)
(0 -0 -2.68327e-07)
(0 -0 -2.59996e-07)
(0 -0 -8.33409e-08)
(0 -0 3.3714e-07)
(0 -0 1.05237e-06)
(0 -0 2.05972e-06)
(0 -0 3.27909e-06)
(0 -0 4.54429e-06)
(0 -0 5.61982e-06)
(0 -0 6.24588e-06)
(0 -0 6.20168e-06)
(0 -0 5.36925e-06)
(0 -0 3.77507e-06)
(0 -0 1.59244e-06)
(0 -0 -8.97182e-07)
(0 -0 -3.37107e-06)
(0 -0 -5.53794e-06)
(0 -0 -7.19368e-06)
(0 -0 -8.24614e-06)
(0 -0 -8.70816e-06)
(0 -0 -8.66825e-06)
(0 -0 -8.25316e-06)
(0 -0 -7.59457e-06)
(0 -0 -6.80666e-06)
(0 -0 -5.97592e-06)
(0 -0 -5.16047e-06)
(0 -0 -4.39476e-06)
(0 -0 -3.69613e-06)
(0 -0 -3.07084e-06)
(0 -0 -2.51847e-06)
(0 -0 -2.03512e-06)
(0 -0 -1.61537e-06)
(0 -0 -1.25067e-06)
(0 -0 -9.56328e-07)
(0 -0 1.59063e-07)
(0 -0 1.95885e-07)
(0 -0 3.09765e-07)
(0 -0 4.36327e-07)
(0 -0 4.84883e-07)
(0 -0 4.54473e-07)
(0 -0 3.98121e-07)
(0 -0 3.11061e-07)
(0 -0 1.95593e-07)
(0 -0 6.8472e-08)
(0 -0 -3.44352e-08)
(0 -0 -5.68901e-08)
(0 -0 7.2609e-08)
(0 -0 4.26907e-07)
(0 -0 1.05751e-06)
(0 -0 1.96675e-06)
(0 -0 3.08364e-06)
(0 -0 4.25441e-06)
(0 -0 5.25719e-06)
(0 -0 5.84403e-06)
(0 -0 5.80154e-06)
(0 -0 5.01264e-06)
(0 -0 3.49763e-06)
(0 -0 1.41818e-06)
(0 -0 -9.58542e-07)
(0 -0 -3.32372e-06)
(0 -0 -5.39687e-06)
(0 -0 -6.98018e-06)
(0 -0 -7.98319e-06)
(0 -0 -8.41672e-06)
(0 -0 -8.36514e-06)
(0 -0 -7.95027e-06)
(0 -0 -7.29924e-06)
(0 -0 -6.52258e-06)
(0 -0 -5.70429e-06)
(0 -0 -4.90098e-06)
(0 -0 -4.14635e-06)
(0 -0 -3.45749e-06)
(0 -0 -2.84065e-06)
(0 -0 -2.29558e-06)
(0 -0 -1.81859e-06)
(0 -0 -1.40444e-06)
(0 -0 -1.04415e-06)
(0 -0 -7.55428e-07)
(0 -0 7.41319e-07)
(0 -0 7.37585e-07)
(0 -0 8.0911e-07)
(0 -0 8.90925e-07)
(0 -0 9.15704e-07)
(0 -0 8.86356e-07)
(0 -0 8.1903e-07)
(0 -0 7.14059e-07)
(0 -0 5.77065e-07)
(0 -0 4.24253e-07)
(0 -0 2.8843e-07)
(0 -0 2.21627e-07)
(0 -0 2.91409e-07)
(0 -0 5.68306e-07)
(0 -0 1.10452e-06)
(0 -0 1.90712e-06)
(0 -0 2.91403e-06)
(0 -0 3.98368e-06)
(0 -0 4.90771e-06)
(0 -0 5.45008e-06)
(0 -0 5.40485e-06)
(0 -0 4.65592e-06)
(0 -0 3.2176e-06)
(0 -0 1.2401e-06)
(0 -0 -1.0237e-06)
(0 -0 -3.2789e-06)
(0 -0 -5.25604e-06)
(0 -0 -6.76381e-06)
(0 -0 -7.71364e-06)
(0 -0 -8.11459e-06)
(0 -0 -8.04701e-06)
(0 -0 -7.62799e-06)
(0 -0 -6.98021e-06)
(0 -0 -6.21066e-06)
(0 -0 -5.40086e-06)
(0 -0 -4.60592e-06)
(0 -0 -3.85879e-06)
(0 -0 -3.17632e-06)
(0 -0 -2.56475e-06)
(0 -0 -2.02397e-06)
(0 -0 -1.55044e-06)
(0 -0 -1.13912e-06)
(0 -0 -7.80709e-07)
(0 -0 -4.9587e-07)
(0 -0 1.51439e-06)
(0 -0 1.46478e-06)
(0 -0 1.4909e-06)
(0 -0 1.52999e-06)
(0 -0 1.52363e-06)
(0 -0 1.47359e-06)
(0 -0 1.38746e-06)
(0 -0 1.26169e-06)
(0 -0 1.10009e-06)
(0 -0 9.17034e-07)
(0 -0 7.42527e-07)
(0 -0 6.25085e-07)
(0 -0 6.28906e-07)
(0 -0 8.22597e-07)
(0 -0 1.25918e-06)
(0 -0 1.95037e-06)
(0 -0 2.84283e-06)
(0 -0 3.80708e-06)
(0 -0 4.64822e-06)
(0 -0 5.1421e-06)
(0 -0 5.09038e-06)
(0 -0 4.3781e-06)
(0 -0 3.01393e-06)
(0 -0 1.13684e-06)
(0 -0 -1.01443e-06)
(0 -0 -3.15892e-06)
(0 -0 -5.03824e-06)
(0 -0 -6.46775e-06)
(0 -0 -7.36102e-06)
(0 -0 -7.72555e-06)
(0 -0 -7.63795e-06)
(0 -0 -7.21075e-06)
(0 -0 -6.56229e-06)
(0 -0 -5.79613e-06)
(0 -0 -4.99134e-06)
(0 -0 -4.20158e-06)
(0 -0 -3.45908e-06)
(0 -0 -2.78036e-06)
(0 -0 -2.17166e-06)
(0 -0 -1.63295e-06)
(0 -0 -1.16085e-06)
(0 -0 -7.50469e-07)
(0 -0 -3.92357e-07)
(0 -0 -1.09114e-07)
(0 -0 2.44651e-06)
(0 -0 2.35627e-06)
(0 -0 2.34264e-06)
(0 -0 2.34498e-06)
(0 -0 2.30852e-06)
(0 -0 2.23477e-06)
(0 -0 2.12795e-06)
(0 -0 1.98134e-06)
(0 -0 1.79594e-06)
(0 -0 1.58339e-06)
(0 -0 1.37053e-06)
(0 -0 1.20243e-06)
(0 -0 1.14009e-06)
(0 -0 1.2503e-06)
(0 -0 1.5869e-06)
(0 -0 2.16616e-06)
(0 -0 2.94341e-06)
(0 -0 3.80109e-06)
(0 -0 4.55761e-06)
(0 -0 5.00078e-06)
(0 -0 4.93999e-06)
(0 -0 4.26181e-06)
(0 -0 2.96961e-06)
(0 -0 1.19151e-06)
(0 -0 -8.4762e-07)
(0 -0 -2.88062e-06)
(0 -0 -4.66016e-06)
(0 -0 -6.00845e-06)
(0 -0 -6.84141e-06)
(0 -0 -7.16533e-06)
(0 -0 -7.05333e-06)
(0 -0 -6.61359e-06)
(0 -0 -5.96033e-06)
(0 -0 -5.19374e-06)
(0 -0 -4.39058e-06)
(0 -0 -3.60306e-06)
(0 -0 -2.86263e-06)
(0 -0 -2.18551e-06)
(0 -0 -1.57784e-06)
(0 -0 -1.03966e-06)
(0 -0 -5.67691e-07)
(0 -0 -1.57212e-07)
(0 -0 2.01347e-07)
(0 -0 4.83884e-07)
(0 -0 3.53315e-06)
(0 -0 3.40966e-06)
(0 -0 3.36357e-06)
(0 -0 3.33603e-06)
(0 -0 3.27434e-06)
(0 -0 3.17958e-06)
(0 -0 3.05415e-06)
(0 -0 2.88915e-06)
(0 -0 2.68299e-06)
(0 -0 2.44433e-06)
(0 -0 2.19669e-06)
(0 -0 1.98153e-06)
(0 -0 1.85656e-06)
(0 -0 1.88672e-06)
(0 -0 2.12663e-06)
(0 -0 2.59696e-06)
(0 -0 3.26142e-06)
(0 -0 4.01414e-06)
(0 -0 4.68667e-06)
(0 -0 5.0788e-06)
(0 -0 5.00786e-06)
(0 -0 4.36233e-06)
(0 -0 3.14081e-06)
(0 -0 1.46108e-06)
(0 -0 -4.65397e-07)
(0 -0 -2.38499e-06)
(0 -0 -4.0614e-06)
(0 -0 -5.32383e-06)
(0 -0 -6.09089e-06)
(0 -0 -6.36802e-06)
(0 -0 -6.22522e-06)
(0 -0 -5.76668e-06)
(0 -0 -5.10269e-06)
(0 -0 -4.3303e-06)
(0 -0 -3.52403e-06)
(0 -0 -2.73466e-06)
(0 -0 -1.99286e-06)
(0 -0 -1.31446e-06)
(0 -0 -7.05451e-07)
(0 -0 -1.65907e-07)
(0 -0 3.07378e-07)
(0 -0 7.19035e-07)
(0 -0 1.0787e-06)
(0 -0 1.36117e-06)
(0 -0 4.76652e-06)
(0 -0 4.6156e-06)
(0 -0 4.54288e-06)
(0 -0 4.49103e-06)
(0 -0 4.40883e-06)
(0 -0 4.29677e-06)
(0 -0 4.15589e-06)
(0 -0 3.97569e-06)
(0 -0 3.75235e-06)
(0 -0 3.49166e-06)
(0 -0 3.21378e-06)
(0 -0 2.95643e-06)
(0 -0 2.77405e-06)
(0 -0 2.72964e-06)
(0 -0 2.87841e-06)
(0 -0 3.24514e-06)
(0 -0 3.80156e-06)
(0 -0 4.45312e-06)
(0 -0 5.04427e-06)
(0 -0 5.3867e-06)
(0 -0 5.30592e-06)
(0 -0 4.69277e-06)
(0 -0 3.54175e-06)
(0 -0 1.96106e-06)
(0 -0 1.49376e-07)
(0 -0 -1.6528e-06)
(0 -0 -3.22011e-06)
(0 -0 -4.38896e-06)
(0 -0 -5.08108e-06)
(0 -0 -5.30155e-06)
(0 -0 -5.1178e-06)
(0 -0 -4.63046e-06)
(0 -0 -3.94631e-06)
(0 -0 -3.15947e-06)
(0 -0 -2.34235e-06)
(0 -0 -1.54434e-06)
(0 -0 -7.95289e-07)
(0 -0 -1.10576e-07)
(0 -0 5.03982e-07)
(0 -0 1.04838e-06)
(0 -0 1.52582e-06)
(0 -0 1.94088e-06)
(0 -0 2.30328e-06)
(0 -0 2.58705e-06)
(0 -0 6.11209e-06)
(0 -0 5.93713e-06)
(0 -0 5.8413e-06)
(0 -0 5.76866e-06)
(0 -0 5.66923e-06)
(0 -0 5.54278e-06)
(0 -0 5.38919e-06)
(0 -0 5.1967e-06)
(0 -0 4.9595e-06)
(0 -0 4.68068e-06)
(0 -0 4.37709e-06)
(0 -0 4.08286e-06)
(0 -0 3.84912e-06)
(0 -0 3.73685e-06)
(0 -0 3.8016e-06)
(0 -0 4.07188e-06)
(0 -0 4.52697e-06)
(0 -0 5.08311e-06)
(0 -0 5.59728e-06)
(0 -0 5.89294e-06)
(0 -0 5.80397e-06)
(0 -0 5.22419e-06)
(0 -0 4.14488e-06)
(0 -0 2.66561e-06)
(0 -0 9.73125e-07)
(0 -0 -7.04677e-07)
(0 -0 -2.15326e-06)
(0 -0 -3.21649e-06)
(0 -0 -3.81975e-06)
(0 -0 -3.96852e-06)
(0 -0 -3.72835e-06)
(0 -0 -3.197e-06)
(0 -0 -2.47821e-06)
(0 -0 -1.66353e-06)
(0 -0 -8.23413e-07)
(0 -0 -5.92054e-09)
(0 -0 7.59942e-07)
(0 -0 1.45929e-06)
(0 -0 2.08658e-06)
(0 -0 2.64196e-06)
(0 -0 3.12871e-06)
(0 -0 3.55145e-06)
(0 -0 3.92001e-06)
(0 -0 4.20793e-06)
(0 -0 7.49504e-06)
(0 -0 7.29722e-06)
(0 -0 7.17973e-06)
(0 -0 7.08792e-06)
(0 -0 6.97296e-06)
(0 -0 6.83391e-06)
(0 -0 6.66957e-06)
(0 -0 6.46709e-06)
(0 -0 6.21883e-06)
(0 -0 5.92545e-06)
(0 -0 5.60066e-06)
(0 -0 5.27514e-06)
(0 -0 4.9968e-06)
(0 -0 4.82446e-06)
(0 -0 4.81378e-06)
(0 -0 4.99656e-06)
(0 -0 5.35899e-06)
(0 -0 5.82746e-06)
(0 -0 6.27093e-06)
(0 -0 6.52439e-06)
(0 -0 6.43038e-06)
(0 -0 5.88641e-06)
(0 -0 4.88166e-06)
(0 -0 3.50833e-06)
(0 -0 1.94227e-06)
(0 -0 3.99476e-07)
(0 -0 -9.16169e-07)
(0 -0 -1.85634e-06)
(0 -0 -2.35082e-06)
(0 -0 -2.4064e-06)
(0 -0 -2.08781e-06)
(0 -0 -1.49075e-06)
(0 -0 -7.16613e-07)
(0 -0 1.45199e-07)
(0 -0 1.02596e-06)
(0 -0 1.87884e-06)
(0 -0 2.67567e-06)
(0 -0 3.40215e-06)
(0 -0 4.05312e-06)
(0 -0 4.62899e-06)
(0 -0 5.13324e-06)
(0 -0 5.57061e-06)
(0 -0 5.9511e-06)
(0 -0 6.24805e-06)
(0 -0 8.7962e-06)
(0 -0 8.57511e-06)
(0 -0 8.43589e-06)
(0 -0 8.32515e-06)
(0 -0 8.19516e-06)
(0 -0 8.04432e-06)
(0 -0 7.87045e-06)
(0 -0 7.65969e-06)
(0 -0 7.40282e-06)
(0 -0 7.09829e-06)
(0 -0 6.75692e-06)
(0 -0 6.40615e-06)
(0 -0 6.09072e-06)
(0 -0 5.86731e-06)
(0 -0 5.79142e-06)
(0 -0 5.89757e-06)
(0 -0 6.17812e-06)
(0 -0 6.5688e-06)
(0 -0 6.94983e-06)
(0 -0 7.16748e-06)
(0 -0 7.07322e-06)
(0 -0 6.56918e-06)
(0 -0 5.64379e-06)
(0 -0 4.38336e-06)
(0 -0 2.95423e-06)
(0 -0 1.56132e-06)
(0 -0 3.98075e-07)
(0 -0 -3.95427e-07)
(0 -0 -7.54337e-07)
(0 -0 -6.88009e-07)
(0 -0 -2.61567e-07)
(0 -0 4.30217e-07)
(0 -0 1.28747e-06)
(0 -0 2.22238e-06)
(0 -0 3.16764e-06)
(0 -0 4.0775e-06)
(0 -0 4.92466e-06)
(0 -0 5.69549e-06)
(0 -0 6.38535e-06)
(0 -0 6.99506e-06)
(0 -0 7.5284e-06)
(0 -0 7.9904e-06)
(0 -0 8.39133e-06)
(0 -0 8.70448e-06)
(0 -0 9.85758e-06)
(0 -0 9.61191e-06)
(0 -0 9.45e-06)
(0 -0 9.31967e-06)
(0 -0 9.17434e-06)
(0 -0 9.01182e-06)
(0 -0 8.82906e-06)
(0 -0 8.61135e-06)
(0 -0 8.34816e-06)
(0 -0 8.03589e-06)
(0 -0 7.6828e-06)
(0 -0 7.3133e-06)
(0 -0 6.96917e-06)
(0 -0 6.70496e-06)
(0 -0 6.57569e-06)
(0 -0 6.61803e-06)
(0 -0 6.82962e-06)
(0 -0 7.15451e-06)
(0 -0 7.4834e-06)
(0 -0 7.67351e-06)
(0 -0 7.58557e-06)
(0 -0 7.12738e-06)
(0 -0 6.2882e-06)
(0 -0 5.1503e-06)
(0 -0 3.87208e-06)
(0 -0 2.64845e-06)
(0 -0 1.66263e-06)
(0 -0 1.04586e-06)
(0 -0 8.56449e-07)
(0 -0 1.08098e-06)
(0 -0 1.65239e-06)
(0 -0 2.47552e-06)
(0 -0 3.45098e-06)
(0 -0 4.49187e-06)
(0 -0 5.53188e-06)
(0 -0 6.52621e-06)
(0 -0 7.44845e-06)
(0 -0 8.28572e-06)
(0 -0 9.03408e-06)
(0 -0 9.69492e-06)
(0 -0 1.02725e-05)
(0 -0 1.07723e-05)
(0 -0 1.12049e-05)
(0 -0 1.15439e-05)
(0 -0 1.04976e-05)
(0 -0 1.02257e-05)
(0 -0 1.00396e-05)
(0 -0 9.88855e-06)
(0 -0 9.72706e-06)
(0 -0 9.55252e-06)
(0 -0 9.36119e-06)
(0 -0 9.13774e-06)
(0 -0 8.87042e-06)
(0 -0 8.55389e-06)
(0 -0 8.19413e-06)
(0 -0 7.81286e-06)
(0 -0 7.44917e-06)
(0 -0 7.1555e-06)
(0 -0 6.98612e-06)
(0 -0 6.97917e-06)
(0 -0 7.13657e-06)
(0 -0 7.40963e-06)
(0 -0 7.69861e-06)
(0 -0 7.87124e-06)
(0 -0 7.7979e-06)
(0 -0 7.39322e-06)
(0 -0 6.64915e-06)
(0 -0 5.64599e-06)
(0 -0 4.53607e-06)
(0 -0 3.50542e-06)
(0 -0 2.72729e-06)
(0 -0 2.32341e-06)
(0 -0 2.34415e-06)
(0 -0 2.77027e-06)
(0 -0 3.53101e-06)
(0 -0 4.52922e-06)
(0 -0 5.66482e-06)
(0 -0 6.851e-06)
(0 -0 8.02198e-06)
(0 -0 9.13376e-06)
(0 -0 1.01608e-05)
(0 -0 1.10911e-05)
(0 -0 1.19217e-05)
(0 -0 1.26546e-05)
(0 -0 1.32948e-05)
(0 -0 1.38483e-05)
(0 -0 1.43265e-05)
(0 -0 1.47031e-05)
(0 -0 1.05345e-05)
(0 -0 1.02349e-05)
(0 -0 1.00231e-05)
(0 -0 9.84981e-06)
(0 -0 9.67104e-06)
(0 -0 9.484e-06)
(0 -0 9.28438e-06)
(0 -0 9.05632e-06)
(0 -0 8.78702e-06)
(0 -0 8.46968e-06)
(0 -0 8.10834e-06)
(0 -0 7.72245e-06)
(0 -0 7.34874e-06)
(0 -0 7.03759e-06)
(0 -0 6.84228e-06)
(0 -0 6.80173e-06)
(0 -0 6.92113e-06)
(0 -0 7.15782e-06)
(0 -0 7.42063e-06)
(0 -0 7.58734e-06)
(0 -0 7.53833e-06)
(0 -0 7.19636e-06)
(0 -0 6.55806e-06)
(0 -0 5.70406e-06)
(0 -0 4.78265e-06)
(0 -0 3.97225e-06)
(0 -0 3.43638e-06)
(0 -0 3.28647e-06)
(0 -0 3.56344e-06)
(0 -0 4.24027e-06)
(0 -0 5.24049e-06)
(0 -0 6.46323e-06)
(0 -0 7.80635e-06)
(0 -0 9.18225e-06)
(0 -0 1.05252e-05)
(0 -0 1.17917e-05)
(0 -0 1.29572e-05)
(0 -0 1.40108e-05)
(0 -0 1.49503e-05)
(0 -0 1.57791e-05)
(0 -0 1.65028e-05)
(0 -0 1.71285e-05)
(0 -0 1.76679e-05)
(0 -0 1.80957e-05)
(0 -0 9.81586e-06)
(0 -0 9.48744e-06)
(0 -0 9.24849e-06)
(0 -0 9.05142e-06)
(0 -0 8.85426e-06)
(0 -0 8.6543e-06)
(0 -0 8.4468e-06)
(0 -0 8.21531e-06)
(0 -0 7.94612e-06)
(0 -0 7.63124e-06)
(0 -0 7.27318e-06)
(0 -0 6.8896e-06)
(0 -0 6.51523e-06)
(0 -0 6.19859e-06)
(0 -0 5.99171e-06)
(0 -0 5.93367e-06)
(0 -0 6.03187e-06)
(0 -0 6.24849e-06)
(0 -0 6.49981e-06)
(0 -0 6.67316e-06)
(0 -0 6.65924e-06)
(0 -0 6.39028e-06)
(0 -0 5.86968e-06)
(0 -0 5.18078e-06)
(0 -0 4.46993e-06)
(0 -0 3.90925e-06)
(0 -0 3.65278e-06)
(0 -0 3.80089e-06)
(0 -0 4.38337e-06)
(0 -0 5.36337e-06)
(0 -0 6.6566e-06)
(0 -0 8.15661e-06)
(0 -0 9.7578e-06)
(0 -0 1.13708e-05)
(0 -0 1.29293e-05)
(0 -0 1.43904e-05)
(0 -0 1.57302e-05)
(0 -0 1.69391e-05)
(0 -0 1.80163e-05)
(0 -0 1.89662e-05)
(0 -0 1.97958e-05)
(0 -0 2.05128e-05)
(0 -0 2.11304e-05)
(0 -0 2.16238e-05)
(0 -0 8.24829e-06)
(0 -0 7.89101e-06)
(0 -0 7.62382e-06)
(0 -0 7.40167e-06)
(0 -0 7.18527e-06)
(0 -0 6.97234e-06)
(0 -0 6.75763e-06)
(0 -0 6.52399e-06)
(0 -0 6.25685e-06)
(0 -0 5.94728e-06)
(0 -0 5.59676e-06)
(0 -0 5.22166e-06)
(0 -0 4.85518e-06)
(0 -0 4.5442e-06)
(0 -0 4.33943e-06)
(0 -0 4.27952e-06)
(0 -0 4.37308e-06)
(0 -0 4.58588e-06)
(0 -0 4.84059e-06)
(0 -0 5.03351e-06)
(0 -0 5.06598e-06)
(0 -0 4.88093e-06)
(0 -0 4.49054e-06)
(0 -0 3.98321e-06)
(0 -0 3.50539e-06)
(0 -0 3.22425e-06)
(0 -0 3.28462e-06)
(0 -0 3.77497e-06)
(0 -0 4.7124e-06)
(0 -0 6.04815e-06)
(0 -0 7.68799e-06)
(0 -0 9.51805e-06)
(0 -0 1.14278e-05)
(0 -0 1.33252e-05)
(0 -0 1.51429e-05)
(0 -0 1.68381e-05)
(0 -0 1.83881e-05)
(0 -0 1.97843e-05)
(0 -0 2.10275e-05)
(0 -0 2.21236e-05)
(0 -0 2.3081e-05)
(0 -0 2.39087e-05)
(0 -0 2.4621e-05)
(0 -0 2.5194e-05)
(0 -0 5.82306e-06)
(0 -0 5.43896e-06)
(0 -0 5.14348e-06)
(0 -0 4.89524e-06)
(0 -0 4.65934e-06)
(0 -0 4.43392e-06)
(0 -0 4.21298e-06)
(0 -0 3.97847e-06)
(0 -0 3.71492e-06)
(0 -0 3.41277e-06)
(0 -0 3.07298e-06)
(0 -0 2.71123e-06)
(0 -0 2.3597e-06)
(0 -0 2.064e-06)
(0 -0 1.87348e-06)
(0 -0 1.82586e-06)
(0 -0 1.9301e-06)
(0 -0 2.15444e-06)
(0 -0 2.42686e-06)
(0 -0 2.65204e-06)
(0 -0 2.74217e-06)
(0 -0 2.65194e-06)
(0 -0 2.4041e-06)
(0 -0 2.0942e-06)
(0 -0 1.87071e-06)
(0 -0 1.8971e-06)
(0 -0 2.30926e-06)
(0 -0 3.18307e-06)
(0 -0 4.52142e-06)
(0 -0 6.26175e-06)
(0 -0 8.29794e-06)
(0 -0 1.0507e-05)
(0 -0 1.27721e-05)
(0 -0 1.49976e-05)
(0 -0 1.71148e-05)
(0 -0 1.90807e-05)
(0 -0 2.08735e-05)
(0 -0 2.24863e-05)
(0 -0 2.39214e-05)
(0 -0 2.51866e-05)
(0 -0 2.62917e-05)
(0 -0 2.72473e-05)
(0 -0 2.80691e-05)
(0 -0 2.87345e-05)
(0 -0 2.63447e-06)
(0 -0 2.22422e-06)
(0 -0 1.90395e-06)
(0 -0 1.62943e-06)
(0 -0 1.3747e-06)
(0 -0 1.13788e-06)
(0 -0 9.11754e-07)
(0 -0 6.77179e-07)
(0 -0 4.17902e-07)
(0 -0 1.24117e-07)
(0 -0 -2.03227e-07)
(0 -0 -5.48535e-07)
(0 -0 -8.80049e-07)
(0 -0 -1.15309e-06)
(0 -0 -1.31958e-06)
(0 -0 -1.34304e-06)
(0 -0 -1.21489e-06)
(0 -0 -9.65415e-07)
(0 -0 -6.62231e-07)
(0 -0 -3.92877e-07)
(0 -0 -2.34317e-07)
(0 -0 -2.19341e-07)
(0 -0 -3.13219e-07)
(0 -0 -4.11548e-07)
(0 -0 -3.622e-07)
(0 -0 -4.36841e-09)
(0 -0 7.89193e-07)
(0 -0 2.08122e-06)
(0 -0 3.85919e-06)
(0 -0 6.04515e-06)
(0 -0 8.51943e-06)
(0 -0 1.11484e-05)
(0 -0 1.3808e-05)
(0 -0 1.63982e-05)
(0 -0 1.88483e-05)
(0 -0 2.11151e-05)
(0 -0 2.31779e-05)
(0 -0 2.50313e-05)
(0 -0 2.66795e-05)
(0 -0 2.81321e-05)
(0 -0 2.94009e-05)
(0 -0 3.04982e-05)
(0 -0 3.14412e-05)
(0 -0 3.22086e-05)
(0 -0 -1.12977e-06)
(0 -0 -1.55116e-06)
(0 -0 -1.89608e-06)
(0 -0 -2.19525e-06)
(0 -0 -2.46643e-06)
(0 -0 -2.71239e-06)
(0 -0 -2.94301e-06)
(0 -0 -3.1779e-06)
(0 -0 -3.43363e-06)
(0 -0 -3.71974e-06)
(0 -0 -4.03477e-06)
(0 -0 -4.36266e-06)
(0 -0 -4.67158e-06)
(0 -0 -4.91734e-06)
(0 -0 -5.05303e-06)
(0 -0 -5.04352e-06)
(0 -0 -4.88111e-06)
(0 -0 -4.59529e-06)
(0 -0 -4.25011e-06)
(0 -0 -3.92593e-06)
(0 -0 -3.68908e-06)
(0 -0 -3.55946e-06)
(0 -0 -3.48952e-06)
(0 -0 -3.36483e-06)
(0 -0 -3.02845e-06)
(0 -0 -2.3214e-06)
(0 -0 -1.12479e-06)
(0 -0 6.10633e-07)
(0 -0 2.85612e-06)
(0 -0 5.5172e-06)
(0 -0 8.4595e-06)
(0 -0 1.15378e-05)
(0 -0 1.46197e-05)
(0 -0 1.76004e-05)
(0 -0 2.04069e-05)
(0 -0 2.29959e-05)
(0 -0 2.53473e-05)
(0 -0 2.74576e-05)
(0 -0 2.93331e-05)
(0 -0 3.09853e-05)
(0 -0 3.24282e-05)
(0 -0 3.36759e-05)
(0 -0 3.47473e-05)
(0 -0 3.56223e-05)
(0 -0 -0.000107693)
(0 -0 -8.90076e-05)
(0 -0 -6.51979e-05)
(0 -0 -3.9346e-05)
(0 -0 -1.42814e-05)
(0 -0 7.73634e-06)
(0 -0 2.52157e-05)
(0 -0 3.74978e-05)
(0 -0 4.46485e-05)
(0 -0 4.7271e-05)
(0 -0 4.62879e-05)
(0 -0 4.27393e-05)
(0 -0 3.76252e-05)
(0 -0 3.18006e-05)
(0 -0 2.59245e-05)
(0 -0 2.04497e-05)
(0 -0 1.5643e-05)
(0 -0 1.16211e-05)
(0 -0 8.39132e-06)
(0 -0 5.89117e-06)
(0 -0 4.02068e-06)
(0 -0 2.66676e-06)
(0 -0 1.71904e-06)
(0 -0 1.07878e-06)
(0 -0 6.63284e-07)
(0 -0 3.99272e-07)
(0 -0 2.37644e-07)
(0 -0 -0.000112291)
(0 -0 -9.35254e-05)
(0 -0 -6.9267e-05)
(0 -0 -4.30101e-05)
(0 -0 -1.76061e-05)
(0 -0 4.66948e-06)
(0 -0 2.23531e-05)
(0 -0 3.48083e-05)
(0 -0 4.21161e-05)
(0 -0 4.48881e-05)
(0 -0 4.40511e-05)
(0 -0 4.06466e-05)
(0 -0 3.56742e-05)
(0 -0 2.99884e-05)
(0 -0 2.42474e-05)
(0 -0 1.89038e-05)
(0 -0 1.42242e-05)
(0 -0 1.03248e-05)
(0 -0 7.21316e-06)
(0 -0 4.82684e-06)
(0 -0 3.06571e-06)
(0 -0 1.81621e-06)
(0 -0 9.67578e-07)
(0 -0 4.20789e-07)
(0 -0 9.22836e-08)
(0 -0 -8.71462e-08)
(0 -0 -1.84451e-07)
(0 -0 -0.000115666)
(0 -0 -9.61876e-05)
(0 -0 -7.12336e-05)
(0 -0 -4.42532e-05)
(0 -0 -1.83074e-05)
(0 -0 4.32077e-06)
(0 -0 2.21969e-05)
(0 -0 3.47299e-05)
(0 -0 4.2045e-05)
(0 -0 4.47881e-05)
(0 -0 4.39087e-05)
(0 -0 4.04622e-05)
(0 -0 3.54554e-05)
(0 -0 2.97455e-05)
(0 -0 2.39913e-05)
(0 -0 1.86443e-05)
(0 -0 1.39698e-05)
(0 -0 1.00824e-05)
(0 -0 6.98799e-06)
(0 -0 4.62269e-06)
(0 -0 2.88521e-06)
(0 -0 1.66106e-06)
(0 -0 8.38624e-07)
(0 -0 3.17977e-07)
(0 -0 1.38314e-08)
(0 -0 -1.4484e-07)
(0 -0 -2.28294e-07)
(0 -0 -0.000114828)
(0 -0 -9.46081e-05)
(0 -0 -6.90212e-05)
(0 -0 -4.15149e-05)
(0 -0 -1.5292e-05)
(0 -0 7.4127e-06)
(0 -0 2.5196e-05)
(0 -0 3.75194e-05)
(0 -0 4.45611e-05)
(0 -0 4.70095e-05)
(0 -0 4.58429e-05)
(0 -0 4.21338e-05)
(0 -0 3.68966e-05)
(0 -0 3.09906e-05)
(0 -0 2.50724e-05)
(0 -0 1.95901e-05)
(0 -0 1.48042e-05)
(0 -0 1.08254e-05)
(0 -0 7.6556e-06)
(0 -0 5.22751e-06)
(0 -0 3.43718e-06)
(0 -0 2.16795e-06)
(0 -0 1.30652e-06)
(0 -0 7.51613e-07)
(0 -0 4.1655e-07)
(0 -0 2.26719e-07)
(0 -0 1.10845e-07)
(0 -0 -0.000108081)
(0 -0 -8.73796e-05)
(0 -0 -6.14859e-05)
(0 -0 -3.41078e-05)
(0 -0 -8.20882e-06)
(0 -0 1.40096e-05)
(0 -0 3.11957e-05)
(0 -0 4.28676e-05)
(0 -0 4.92543e-05)
(0 -0 5.10823e-05)
(0 -0 4.93544e-05)
(0 -0 4.51544e-05)
(0 -0 3.94991e-05)
(0 -0 3.32435e-05)
(0 -0 2.70364e-05)
(0 -0 2.13167e-05)
(0 -0 1.63358e-05)
(0 -0 1.21958e-05)
(0 -0 8.89164e-06)
(0 -0 6.35004e-06)
(0 -0 4.46234e-06)
(0 -0 3.10834e-06)
(0 -0 2.17204e-06)
(0 -0 1.55009e-06)
(0 -0 1.15409e-06)
(0 -0 9.07337e-07)
(0 -0 7.35116e-07)
(0 -0 -9.50978e-05)
(0 -0 -7.41462e-05)
(0 -0 -4.86391e-05)
(0 -0 -2.20253e-05)
(0 -0 2.86727e-06)
(0 -0 2.3941e-05)
(0 -0 3.99337e-05)
(0 -0 5.04356e-05)
(0 -0 5.57286e-05)
(0 -0 5.65739e-05)
(0 -0 5.39914e-05)
(0 -0 4.90684e-05)
(0 -0 4.28147e-05)
(0 -0 3.60721e-05)
(0 -0 2.94733e-05)
(0 -0 2.34403e-05)
(0 -0 1.82091e-05)
(0 -0 1.3868e-05)
(0 -0 1.04005e-05)
(0 -0 7.72421e-06)
(0 -0 5.72353e-06)
(0 -0 4.27292e-06)
(0 -0 3.25245e-06)
(0 -0 2.55591e-06)
(0 -0 2.09276e-06)
(0 -0 1.78437e-06)
(0 -0 1.55358e-06)
(0 -0 -7.61435e-05)
(0 -0 -5.53469e-05)
(0 -0 -3.06863e-05)
(0 -0 -5.41052e-06)
(0 -0 1.78387e-05)
(0 -0 3.71259e-05)
(0 -0 5.13216e-05)
(0 -0 6.01132e-05)
(0 -0 6.38482e-05)
(0 -0 6.33249e-05)
(0 -0 5.95773e-05)
(0 -0 5.36883e-05)
(0 -0 4.66516e-05)
(0 -0 3.92859e-05)
(0 -0 3.21983e-05)
(0 -0 2.57853e-05)
(0 -0 2.02596e-05)
(0 -0 1.56899e-05)
(0 -0 1.20435e-05)
(0 -0 9.22515e-06)
(0 -0 7.10952e-06)
(0 -0 5.56382e-06)
(0 -0 4.46286e-06)
(0 -0 3.69667e-06)
(0 -0 3.17202e-06)
(0 -0 2.8082e-06)
(0 -0 2.526e-06)
(0 -0 -5.152e-05)
(0 -0 -3.11387e-05)
(0 -0 -7.72664e-06)
(0 -0 1.56952e-05)
(0 -0 3.67149e-05)
(0 -0 5.36069e-05)
(0 -0 6.54149e-05)
(0 -0 7.19543e-05)
(0 -0 7.36564e-05)
(0 -0 7.13648e-05)
(0 -0 6.61269e-05)
(0 -0 5.90164e-05)
(0 -0 5.10024e-05)
(0 -0 4.28706e-05)
(0 -0 3.51924e-05)
(0 -0 2.83298e-05)
(0 -0 2.24646e-05)
(0 -0 1.76391e-05)
(0 -0 1.37991e-05)
(0 -0 1.08327e-05)
(0 -0 8.60198e-06)
(0 -0 6.96475e-06)
(0 -0 5.78913e-06)
(0 -0 4.9604e-06)
(0 -0 4.38203e-06)
(0 -0 3.97097e-06)
(0 -0 3.64601e-06)
(0 -0 -2.12117e-05)
(0 -0 -1.49526e-06)
(0 -0 2.02693e-05)
(0 -0 4.13287e-05)
(0 -0 5.95439e-05)
(0 -0 7.34422e-05)
(0 -0 8.22787e-05)
(0 -0 8.60259e-05)
(0 -0 8.52183e-05)
(0 -0 8.07537e-05)
(0 -0 7.36947e-05)
(0 -0 6.51011e-05)
(0 -0 5.59093e-05)
(0 -0 4.68626e-05)
(0 -0 3.8487e-05)
(0 -0 3.11008e-05)
(0 -0 2.48468e-05)
(0 -0 1.97343e-05)
(0 -0 1.56825e-05)
(0 -0 1.25589e-05)
(0 -0 1.02098e-05)
(0 -0 8.48167e-06)
(0 -0 7.23447e-06)
(0 -0 6.34776e-06)
(0 -0 5.72111e-06)
(0 -0 5.26881e-06)
(0 -0 4.90754e-06)
(0 -0 1.48294e-05)
(0 -0 3.35979e-05)
(0 -0 5.32837e-05)
(0 -0 7.14491e-05)
(0 -0 8.62734e-05)
(0 -0 9.6578e-05)
(0 -0 0.000101864)
(0 -0 0.000102288)
(0 -0 9.85036e-05)
(0 -0 9.14708e-05)
(0 -0 8.22678e-05)
(0 -0 7.19355e-05)
(0 -0 6.13698e-05)
(0 -0 5.12622e-05)
(0 -0 4.20835e-05)
(0 -0 3.40994e-05)
(0 -0 2.7406e-05)
(0 -0 2.19732e-05)
(0 -0 1.76887e-05)
(0 -0 1.43954e-05)
(0 -0 1.19212e-05)
(0 -0 1.00993e-05)
(0 -0 8.78002e-06)
(0 -0 7.83646e-06)
(0 -0 7.16367e-06)
(0 -0 6.67289e-06)
(0 -0 6.27875e-06)
(0 -0 5.63995e-05)
(0 -0 7.38948e-05)
(0 -0 9.10394e-05)
(0 -0 0.000105762)
(0 -0 0.000116608)
(0 -0 0.000122733)
(0 -0 0.000123913)
(0 -0 0.000120512)
(0 -0 0.000113316)
(0 -0 0.00010335)
(0 -0 9.17077e-05)
(0 -0 7.94049e-05)
(0 -0 6.72885e-05)
(0 -0 5.59888e-05)
(0 -0 4.59122e-05)
(0 -0 3.72634e-05)
(0 -0 3.00845e-05)
(0 -0 2.43005e-05)
(0 -0 1.97628e-05)
(0 -0 1.62866e-05)
(0 -0 1.3679e-05)
(0 -0 1.17582e-05)
(0 -0 1.0364e-05)
(0 -0 9.36199e-06)
(0 -0 8.64243e-06)
(0 -0 8.11331e-06)
(0 -0 7.68713e-06)
(0 -0 0.000102835)
(0 -0 0.000118704)
(0 -0 0.000132841)
(0 -0 0.000143591)
(0 -0 0.000149907)
(0 -0 0.000151315)
(0 -0 0.000147896)
(0 -0 0.000140233)
(0 -0 0.000129252)
(0 -0 0.000116049)
(0 -0 0.000101725)
(0 -0 8.72653e-05)
(0 -0 7.34587e-05)
(0 -0 6.08652e-05)
(0 -0 4.98183e-05)
(0 -0 4.04545e-05)
(0 -0 3.27558e-05)
(0 -0 2.65974e-05)
(0 -0 2.17908e-05)
(0 -0 1.81211e-05)
(0 -0 1.53729e-05)
(0 -0 1.3348e-05)
(0 -0 1.18749e-05)
(0 -0 1.08117e-05)
(0 -0 1.00432e-05)
(0 -0 9.47417e-06)
(0 -0 9.01501e-06)
(0 -0 0.00015291)
(0 -0 0.0001668)
(0 -0 0.000177497)
(0 -0 0.000183808)
(0 -0 0.000185131)
(0 -0 0.000181389)
(0 -0 0.000172984)
(0 -0 0.00016073)
(0 -0 0.000145697)
(0 -0 0.000129045)
(0 -0 0.000111879)
(0 -0 9.51451e-05)
(0 -0 7.95652e-05)
(0 -0 6.56211e-05)
(0 -0 5.35665e-05)
(0 -0 4.34635e-05)
(0 -0 3.52296e-05)
(0 -0 2.86868e-05)
(0 -0 2.3605e-05)
(0 -0 1.97371e-05)
(0 -0 1.68444e-05)
(0 -0 1.47122e-05)
(0 -0 1.31574e-05)
(0 -0 1.20301e-05)
(0 -0 1.12102e-05)
(0 -0 1.05991e-05)
(0 -0 1.01052e-05)
(0 -0 0.000204832)
(0 -0 0.00021642)
(0 -0 0.000223326)
(0 -0 0.000224849)
(0 -0 0.000220859)
(0 -0 0.000211689)
(0 -0 0.000198072)
(0 -0 0.000181054)
(0 -0 0.000161843)
(0 -0 0.000141659)
(0 -0 0.000121601)
(0 -0 0.000102567)
(0 -0 8.52058e-05)
(0 -0 6.99139e-05)
(0 -0 5.68599e-05)
(0 -0 4.6028e-05)
(0 -0 3.72691e-05)
(0 -0 3.03506e-05)
(0 -0 2.49999e-05)
(0 -0 2.09381e-05)
(0 -0 1.79033e-05)
(0 -0 1.56644e-05)
(0 -0 1.40274e-05)
(0 -0 1.28348e-05)
(0 -0 1.19618e-05)
(0 -0 1.13068e-05)
(0 -0 1.07763e-05)
(0 -0 0.000256332)
(0 -0 0.000265356)
(0 -0 0.000268242)
(0 -0 0.000264795)
(0 -0 0.000255363)
(0 -0 0.000240694)
(0 -0 0.000221844)
(0 -0 0.000200083)
(0 -0 0.000176747)
(0 -0 0.000153103)
(0 -0 0.000130237)
(0 -0 0.000108989)
(0 -0 8.99281e-05)
(0 -0 7.33618e-05)
(0 -0 5.93713e-05)
(0 -0 4.78623e-05)
(0 -0 3.86192e-05)
(0 -0 3.13559e-05)
(0 -0 2.57588e-05)
(0 -0 2.15187e-05)
(0 -0 1.83519e-05)
(0 -0 1.60126e-05)
(0 -0 1.42966e-05)
(0 -0 1.30401e-05)
(0 -0 1.2114e-05)
(0 -0 1.14142e-05)
(0 -0 1.08462e-05)
(0 -0 0.000304825)
(0 -0 0.000311116)
(0 -0 0.000309911)
(0 -0 0.000301516)
(0 -0 0.000286745)
(0 -0 0.000266747)
(0 -0 0.00024288)
(0 -0 0.000216619)
(0 -0 0.000189411)
(0 -0 0.000162556)
(0 -0 0.000137113)
(0 -0 0.00011386)
(0 -0 9.32792e-05)
(0 -0 7.5589e-05)
(0 -0 6.07844e-05)
(0 -0 4.86949e-05)
(0 -0 3.90417e-05)
(0 -0 3.14891e-05)
(0 -0 2.56859e-05)
(0 -0 2.12958e-05)
(0 -0 1.80165e-05)
(0 -0 1.55895e-05)
(0 -0 1.38026e-05)
(0 -0 1.24868e-05)
(0 -0 1.15101e-05)
(0 -0 1.07668e-05)
(0 -0 1.01614e-05)
(0 -0 0.000347646)
(0 -0 0.000351149)
(0 -0 0.000345962)
(0 -0 0.000332865)
(0 -0 0.000313111)
(0 -0 0.00028821)
(0 -0 0.000259792)
(0 -0 0.000229507)
(0 -0 0.000198889)
(0 -0 0.00016925)
(0 -0 0.000141613)
(0 -0 0.000116684)
(0 -0 9.48622e-05)
(0 -0 7.62756e-05)
(0 -0 6.08381e-05)
(0 -0 4.83091e-05)
(0 -0 3.83532e-05)
(0 -0 3.05911e-05)
(0 -0 2.46399e-05)
(0 -0 2.01414e-05)
(0 -0 1.67786e-05)
(0 -0 1.42838e-05)
(0 -0 1.24393e-05)
(0 -0 1.1073e-05)
(0 -0 1.00514e-05)
(0 -0 9.268e-06)
(0 -0 8.62735e-06)
(0 -0 0.000382313)
(0 -0 0.000383099)
(0 -0 0.000374226)
(0 -0 0.000356903)
(0 -0 0.000332766)
(0 -0 0.000303639)
(0 -0 0.000271377)
(0 -0 0.000237764)
(0 -0 0.00020439)
(0 -0 0.000172561)
(0 -0 0.00014325)
(0 -0 0.000117088)
(0 -0 9.4391e-05)
(0 -0 7.52041e-05)
(0 -0 5.93676e-05)
(0 -0 4.658e-05)
(0 -0 3.64582e-05)
(0 -0 2.85885e-05)
(0 -0 2.25638e-05)
(0 -0 1.80106e-05)
(0 -0 1.46025e-05)
(0 -0 1.20667e-05)
(0 -0 1.01833e-05)
(0 -0 8.77963e-06)
(0 -0 7.72212e-06)
(0 -0 6.90498e-06)
(0 -0 6.23338e-06)
(0 -0 0.000406793)
(0 -0 0.000405062)
(0 -0 0.000392976)
(0 -0 0.000372107)
(0 -0 0.000344409)
(0 -0 0.000311951)
(0 -0 0.000276756)
(0 -0 0.000240695)
(0 -0 0.00020538)
(0 -0 0.000172089)
(0 -0 0.000141735)
(0 -0 0.000114873)
(0 -0 9.17364e-05)
(0 -0 7.22989e-05)
(0 -0 5.63378e-05)
(0 -0 4.35026e-05)
(0 -0 3.33747e-05)
(0 -0 2.55162e-05)
(0 -0 1.95055e-05)
(0 -0 1.4961e-05)
(0 -0 1.15533e-05)
(0 -0 9.00946e-06)
(0 -0 7.11081e-06)
(0 -0 5.68671e-06)
(0 -0 4.60582e-06)
(0 -0 3.76436e-06)
(0 -0 3.06768e-06)
(0 -0 0.000419749)
(0 -0 0.000415807)
(0 -0 0.000401129)
(0 -0 0.000377559)
(0 -0 0.00034729)
(0 -0 0.000312559)
(0 -0 0.000275489)
(0 -0 0.000237991)
(0 -0 0.00020166)
(0 -0 0.000167726)
(0 -0 0.000137031)
(0 -0 0.000110054)
(0 -0 8.69568e-05)
(0 -0 6.76498e-05)
(0 -0 5.1862e-05)
(0 -0 3.92079e-05)
(0 -0 2.92467e-05)
(0 -0 2.15283e-05)
(0 -0 1.56265e-05)
(0 -0 1.11603e-05)
(0 -0 7.80383e-06)
(0 -0 5.28907e-06)
(0 -0 3.40243e-06)
(0 -0 1.97815e-06)
(0 -0 8.89232e-07)
(0 -0 3.40162e-08)
(0 -0 -6.72964e-07)
(0 -0 0.000420878)
(0 -0 0.000415181)
(0 -0 0.00039867)
(0 -0 0.000373388)
(0 -0 0.000341666)
(0 -0 0.000305827)
(0 -0 0.000268026)
(0 -0 0.000230159)
(0 -0 0.000193776)
(0 -0 0.000160037)
(0 -0 0.00012971)
(0 -0 0.000103202)
(0 -0 8.06119e-05)
(0 -0 6.18037e-05)
(0 -0 4.64729e-05)
(0 -0 3.42147e-05)
(0 -0 2.45802e-05)
(0 -0 1.71194e-05)
(0 -0 1.14121e-05)
(0 -0 7.0859e-06)
(0 -0 3.82491e-06)
(0 -0 1.37072e-06)
(0 -0 -4.81493e-07)
(0 -0 -1.89004e-06)
(0 -0 -2.97616e-06)
(0 -0 -3.8341e-06)
(0 -0 -4.553e-06)
(0 -0 0.000410904)
(0 -0 0.000403882)
(0 -0 0.000386255)
(0 -0 0.00036019)
(0 -0 0.000328061)
(0 -0 0.000292198)
(0 -0 0.000254727)
(0 -0 0.000217483)
(0 -0 0.000181938)
(0 -0 0.00014917)
(0 -0 0.000119867)
(0 -0 9.43678e-05)
(0 -0 7.27225e-05)
(0 -0 5.47592e-05)
(0 -0 4.01552e-05)
(0 -0 2.85008e-05)
(0 -0 1.93517e-05)
(0 -0 1.22694e-05)
(0 -0 6.84873e-06)
(0 -0 2.73326e-06)
(0 -0 -3.77354e-07)
(0 -0 -2.72755e-06)
(0 -0 -4.51031e-06)
(0 -0 -5.8743e-06)
(0 -0 -6.93274e-06)
(0 -0 -7.77519e-06)
(0 -0 -8.4791e-06)
(0 -0 0.00039065)
(0 -0 0.000382741)
(0 -0 0.00036472)
(0 -0 0.000338772)
(0 -0 0.00030724)
(0 -0 0.000272392)
(0 -0 0.000236264)
(0 -0 0.000200588)
(0 -0 0.000166731)
(0 -0 0.000135672)
(0 -0 0.000108017)
(0 -0 8.40427e-05)
(0 -0 6.37569e-05)
(0 -0 4.69663e-05)
(0 -0 3.33438e-05)
(0 -0 2.2488e-05)
(0 -0 1.39718e-05)
(0 -0 7.37884e-06)
(0 -0 2.32749e-06)
(0 -0 -1.5154e-06)
(0 -0 -4.42918e-06)
(0 -0 -6.64021e-06)
(0 -0 -8.32658e-06)
(0 -0 -9.62509e-06)
(0 -0 -1.06397e-05)
(0 -0 -1.14518e-05)
(0 -0 -1.21341e-05)
(0 -0 0.000361359)
(0 -0 0.000353025)
(0 -0 0.000335309)
(0 -0 0.000310335)
(0 -0 0.00028034)
(0 -0 0.000247464)
(0 -0 0.000213603)
(0 -0 0.000180349)
(0 -0 0.00014894)
(0 -0 0.000120246)
(0 -0 9.4789e-05)
(0 -0 7.27891e-05)
(0 -0 5.42226e-05)
(0 -0 3.88873e-05)
(0 -0 2.64647e-05)
(0 -0 1.65742e-05)
(0 -0 8.81706e-06)
(0 -0 2.80827e-06)
(0 -0 -1.80237e-06)
(0 -0 -5.3188e-06)
(0 -0 -7.99473e-06)
(0 -0 -1.0035e-05)
(0 -0 -1.16002e-05)
(0 -0 -1.28136e-05)
(0 -0 -1.37686e-05)
(0 -0 -1.45382e-05)
(0 -0 -1.51883e-05)
(0 -0 0.000324937)
(0 -0 0.000316616)
(0 -0 0.000299837)
(0 -0 0.000276586)
(0 -0 0.000248935)
(0 -0 0.00021884)
(0 -0 0.000188016)
(0 -0 0.000157885)
(0 -0 0.00012954)
(0 -0 0.000103736)
(0 -0 8.09122e-05)
(0 -0 6.12382e-05)
(0 -0 4.46693e-05)
(0 -0 3.1006e-05)
(0 -0 1.99495e-05)
(0 -0 1.11505e-05)
(0 -0 4.24775e-06)
(0 -0 -1.10493e-06)
(0 -0 -5.22026e-06)
(0 -0 -8.3684e-06)
(0 -0 -1.0774e-05)
(0 -0 -1.26177e-05)
(0 -0 -1.40412e-05)
(0 -0 -1.51525e-05)
(0 -0 -1.60338e-05)
(0 -0 -1.67495e-05)
(0 -0 -1.7358e-05)
(0 -0 0.000283763)
(0 -0 0.000275835)
(0 -0 0.000260506)
(0 -0 0.00023957)
(0 -0 0.000214881)
(0 -0 0.000188172)
(0 -0 0.000160946)
(0 -0 0.000134441)