/*--------------------------------*- C++ -*----------------------------------*\
| =========                 |                                                 |
| \\      /  F ield         | OpenFOAM: The Open Source CFD Toolbox           |
|  \\    /   O peration     | Version:  2412                                  |
|   \\  /    A nd           | Website:  www.openfoam.com                      |
|    \\/     M anipulation  |                                                 |
\*---------------------------------------------------------------------------*/
FoamFile
{
    version     2.0;
    format      ascii;
    arch        "LSB;label=32;scalar=64";
    class       surfaceScalarField;
    location    "4";
    object      phi;
}
// * * * * * * * * * * * * * * * * * * * * * * * * * * * * * * * * * * * * * //

dimensions      [0 3 -1 0 0 0 0];

oriented        oriented;

internalField   nonuniform List<scalar> 
10424
(
0.00527708
-5.92486e-05
0.00527802
-5.7032e-05
0.00527894
-5.48513e-05
0.00527983
-5.27077e-05
0.0052807
-5.06022e-05
0.00528154
-4.85357e-05
0.00528236
-4.65089e-05
0.00528315
-4.45227e-05
0.00528391
-4.25779e-05
0.00528464
-4.06753e-05
0.00528534
-3.88155e-05
0.00528602
-3.69991e-05
0.00528667
-3.52269e-05
0.00528729
-3.34994e-05
0.00528788
-3.18171e-05
0.00528845
-3.01806e-05
0.00528899
-2.85902e-05
0.0052895
-2.70464e-05
0.00528998
-2.55494e-05
0.00529044
-2.40997e-05
0.00529088
-2.26974e-05
0.00529129
-2.13429e-05
0.00529167
-2.00362e-05
0.00529203
-1.87775e-05
0.00529237
-1.7567e-05
0.00529269
-1.64046e-05
0.00529299
-1.52903e-05
0.00529326
-1.42246e-05
0.00529352
-1.32066e-05
0.00529375
-1.22372e-05
-1.13153e-05
0.00527772
-6.01731e-05
0.00527862
-5.79356e-05
0.0052795
-5.57329e-05
0.00528036
-5.35664e-05
0.0052812
-5.14372e-05
0.00528201
-4.93462e-05
0.00528279
-4.72943e-05
0.00528355
-4.52825e-05
0.00528428
-4.33117e-05
0.00528499
-4.13826e-05
0.00528567
-3.94962e-05
0.00528633
-3.76532e-05
0.00528695
-3.58543e-05
0.00528755
-3.41001e-05
0.00528813
-3.23913e-05
0.00528868
-3.07285e-05
0.0052892
-2.9112e-05
0.00528969
-2.75424e-05
0.00529017
-2.602e-05
0.00529061
-2.45454e-05
0.00529103
-2.31187e-05
0.00529143
-2.17402e-05
0.0052918
-2.04101e-05
0.00529215
-1.91287e-05
0.00529248
-1.78961e-05
0.00529279
-1.67123e-05
0.00529308
-1.55773e-05
0.00529335
-1.44916e-05
0.00529359
-1.34545e-05
0.00529382
-1.24666e-05
0.00529403
-1.15272e-05
0.00529423
-1.06371e-05
0.00529441
-9.79521e-06
0.00529457
-9.00233e-06
0.00529472
-8.2576e-06
0.00529486
-7.56214e-06
0.00529498
-6.91499e-06
0.0052951
-6.31734e-06
0.0052952
-5.76887e-06
0.00529529
-5.27087e-06
0.00529538
-4.82332e-06
0.00529545
-4.42794e-06
0.00529552
-4.08563e-06
0.00529559
-3.79876e-06
0.00529565
-3.56894e-06
0.00529571
-3.39992e-06
0.00529576
-3.29501e-06
0.00529582
-3.25883e-06
0.00529587
-3.2981e-06
0.00529593
-3.41872e-06
0.005296
-3.63244e-06
0.00529607
-3.94644e-06
0.00529615
-4.37894e-06
0.00529624
-4.9433e-06
0.00529635
-5.66124e-06
0.00529648
-6.5585e-06
0.00529663
-7.6611e-06
0.00529682
-9.01576e-06
0.00529704
-1.0634e-05
0.00529731
-1.26524e-05
0.00529763
-1.48971e-05
0.00529804
-1.80285e-05
0.00529849
-2.06887e-05
0.00529915
-2.61067e-05
0.00529978
-2.79461e-05
0.00530089
-3.77906e-05
0.0053018
-3.70627e-05
0.00530357
-5.00133e-05
0.00530528
-5.11773e-05
0.00530739
-4.82947e-05
-5.18966e-05
0.00527836
-6.10558e-05
0.00527923
-5.87994e-05
0.00528007
-5.65768e-05
0.0052809
-5.43894e-05
0.0052817
-5.22384e-05
0.00528247
-5.01247e-05
0.00528323
-4.80494e-05
0.00528396
-4.60136e-05
0.00528467
-4.40182e-05
0.00528535
-4.20643e-05
0.00528601
-4.01528e-05
0.00528664
-3.82844e-05
0.00528724
-3.64601e-05
0.00528782
-3.46806e-05
0.00528838
-3.29464e-05
0.00528891
-3.12583e-05
0.00528941
-2.96169e-05
0.00528989
-2.80225e-05
0.00529035
-2.64757e-05
0.00529078
-2.4977e-05
0.00529119
-2.35267e-05
0.00529157
-2.21252e-05
0.00529194
-2.07726e-05
0.00529228
-1.94692e-05
0.0052926
-1.82151e-05
0.00529289
-1.70106e-05
0.00529317
-1.58555e-05
0.00529343
-1.47505e-05
0.00529367
-1.36947e-05
0.00529389
-1.2689e-05
0.0052941
-1.17324e-05
0.00529429
-1.0826e-05
0.00529446
-9.96865e-06
0.00529462
-9.16113e-06
0.00529477
-8.40266e-06
0.0052949
-7.69424e-06
0.00529502
-7.03503e-06
0.00529513
-6.4262e-06
0.00529522
-5.8675e-06
0.00529531
-5.36016e-06
0.00529539
-4.9043e-06
0.00529547
-4.50158e-06
0.00529554
-4.15289e-06
0.0052956
-3.86081e-06
0.00529566
-3.62684e-06
0.00529571
-3.45486e-06
0.00529576
-3.34829e-06
0.00529582
-3.31186e-06
0.00529587
-3.35244e-06
0.00529593
-3.47592e-06
0.00529599
-3.69441e-06
0.00529606
-4.01538e-06
0.00529614
-4.45722e-06
0.00529623
-5.03383e-06
0.00529633
-5.7673e-06
0.00529646
-6.68407e-06
0.00529661
-7.81078e-06
0.00529679
-9.19579e-06
0.00529701
-1.08501e-05
0.00529727
-1.29171e-05
0.00529758
-1.52109e-05
0.00529799
-1.84323e-05
0.00529844
-2.11362e-05
0.00529909
-2.67636e-05
0.00529971
-2.85598e-05
0.00530083
-3.89175e-05
0.00530172
-3.79468e-05
0.00530354
-5.18343e-05
0.00530526
-5.28997e-05
0.0053075
-5.05379e-05
-5.5188e-05
0.00527902
-6.18964e-05
0.00527984
-5.96233e-05
0.00528065
-5.73828e-05
0.00528144
-5.51765e-05
0.0052822
-5.30055e-05
0.00528295
-5.08709e-05
0.00528367
-4.87739e-05
0.00528438
-4.67157e-05
0.00528506
-4.46974e-05
0.00528571
-4.27201e-05
0.00528634
-4.07849e-05
0.00528695
-3.88926e-05
0.00528754
-3.70442e-05
0.0052881
-3.52405e-05
0.00528863
-3.34822e-05
0.00528914
-3.177e-05
0.00528963
-3.01046e-05
0.0052901
-2.84865e-05
0.00529054
-2.69163e-05
0.00529095
-2.53945e-05
0.00529135
-2.39215e-05
0.00529172
-2.24977e-05
0.00529207
-2.11233e-05
0.0052924
-1.97986e-05
0.00529271
-1.85238e-05
0.005293
-1.72992e-05
0.00529327
-1.61248e-05
0.00529352
-1.5001e-05
0.00529375
-1.39272e-05
0.00529397
-1.29041e-05
0.00529416
-1.19309e-05
0.00529435
-1.10087e-05
0.00529451
-1.01363e-05
0.00529467
-9.31451e-06
0.00529481
-8.54269e-06
0.00529494
-7.82167e-06
0.00529505
-7.15075e-06
0.00529516
-6.53102e-06
0.00529525
-5.96238e-06
0.00529534
-5.44595e-06
0.00529541
-4.982e-06
0.00529549
-4.57215e-06
0.00529555
-4.21727e-06
0.00529561
-3.92015e-06
0.00529566
-3.68216e-06
0.00529572
-3.50731e-06
0.00529577
-3.39915e-06
0.00529582
-3.36251e-06
0.00529587
-3.40442e-06
0.00529592
-3.53073e-06
0.00529598
-3.75392e-06
0.00529605
-4.08177e-06
0.00529613
-4.53278e-06
0.00529621
-5.12144e-06
0.00529632
-5.8702e-06
0.00529644
-6.8062e-06
0.00529658
-7.95661e-06
0.00529676
-9.37155e-06
0.00529697
-1.10614e-05
0.00529723
-1.31766e-05
0.00529754
-1.55184e-05
0.00529794
-1.88307e-05
0.00529838
-2.15744e-05
0.00529903
-2.7419e-05
0.00529963
-2.91577e-05
0.00530077
-4.00581e-05
0.00530163
-3.88085e-05
0.00530351
-5.37095e-05
0.00530524
-5.46306e-05
0.00530761
-5.29138e-05
-5.87598e-05
0.00527968
-6.2695e-05
0.00528047
-6.04073e-05
0.00528123
-5.81509e-05
0.00528199
-5.59275e-05
0.00528272
-5.37383e-05
0.00528343
-5.15846e-05
0.00528413
-4.94676e-05
0.0052848
-4.73886e-05
0.00528545
-4.5349e-05
0.00528608
-4.33499e-05
0.00528669
-4.13924e-05
0.00528727
-3.94775e-05
0.00528783
-3.76063e-05
0.00528837
-3.57797e-05
0.00528889
-3.39984e-05
0.00528938
-3.22633e-05
0.00528985
-3.0575e-05
0.0052903
-2.89343e-05
0.00529073
-2.73416e-05
0.00529113
-2.57976e-05
0.00529151
-2.43028e-05
0.00529187
-2.28575e-05
0.00529221
-2.14621e-05
0.00529253
-2.0117e-05
0.00529283
-1.88222e-05
0.00529311
-1.75782e-05
0.00529337
-1.6385e-05
0.00529361
-1.5243e-05
0.00529383
-1.41518e-05
0.00529404
-1.31118e-05
0.00529423
-1.21226e-05
0.00529441
-1.1185e-05
0.00529457
-1.0298e-05
0.00529472
-9.46241e-06
0.00529485
-8.67761e-06
0.00529497
-7.94434e-06
0.00529509
-7.26205e-06
0.00529519
-6.63175e-06
0.00529528
-6.05345e-06
0.00529536
-5.52818e-06
0.00529543
-5.05637e-06
0.0052955
-4.6396e-06
0.00529556
-4.27872e-06
0.00529562
-3.97671e-06
0.00529567
-3.73482e-06
0.00529572
-3.55722e-06
0.00529577
-3.44754e-06
0.00529582
-3.41073e-06
0.00529587
-3.45397e-06
0.00529592
-3.58311e-06
0.00529598
-3.81092e-06
0.00529604
-4.14557e-06
0.00529611
-4.60558e-06
0.0052962
-5.20608e-06
0.0052963
-5.96987e-06
0.00529642
-6.92479e-06
0.00529656
-8.09852e-06
0.00529673
-9.54295e-06
0.00529694
-1.12677e-05
0.00529719
-1.34307e-05
0.00529749
-1.58193e-05
0.00529789
-1.92236e-05
0.00529831
-2.20029e-05
0.00529897
-2.80726e-05
0.00529955
-2.97389e-05
0.0053007
-4.12126e-05
0.00530154
-3.96452e-05
0.00530347
-5.56406e-05
0.0053052
-5.63637e-05
0.00530772
-5.54321e-05
-6.26335e-05
0.00528035
-6.34515e-05
0.00528109
-6.11513e-05
0.00528182
-5.88809e-05
0.00528254
-5.66423e-05
0.00528324
-5.44368e-05
0.00528392
-5.22656e-05
0.00528458
-5.01303e-05
0.00528522
-4.80323e-05
0.00528585
-4.59728e-05
0.00528645
-4.39533e-05
0.00528703
-4.1975e-05
0.0052876
-4.0039e-05
0.00528814
-3.81463e-05
0.00528865
-3.6298e-05
0.00528915
-3.44949e-05
0.00528963
-3.2738e-05
0.00529008
-3.10279e-05
0.00529051
-2.93655e-05
0.00529092
-2.77514e-05
0.00529131
-2.61861e-05
0.00529168
-2.46704e-05
0.00529202
-2.32046e-05
0.00529235
-2.17889e-05
0.00529266
-2.0424e-05
0.00529294
-1.911e-05
0.00529321
-1.78473e-05
0.00529346
-1.6636e-05
0.0052937
-1.54765e-05
0.00529391
-1.43683e-05
0.00529411
-1.33121e-05
0.0052943
-1.23073e-05
0.00529447
-1.13548e-05
0.00529462
-1.04537e-05
0.00529477
-9.60473e-06
0.0052949
-8.80735e-06
0.00529501
-8.06218e-06
0.00529512
-7.36886e-06
0.00529522
-6.72831e-06
0.00529531
-6.14063e-06
0.00529538
-5.60679e-06
0.00529545
-5.12735e-06
0.00529552
-4.70387e-06
0.00529558
-4.33719e-06
0.00529563
-4.03044e-06
0.00529568
-3.7848e-06
0.00529573
-3.60456e-06
0.00529577
-3.49342e-06
0.00529582
-3.45648e-06
0.00529587
-3.50107e-06
0.00529592
-3.63301e-06
0.00529597
-3.86538e-06
0.00529603
-4.20671e-06
0.0052961
-4.67555e-06
0.00529618
-5.28768e-06
0.00529628
-6.06624e-06
0.0052964
-7.03977e-06
0.00529653
-8.23642e-06
0.0052967
-9.70988e-06
0.0052969
-1.1469e-05
0.00529715
-1.36795e-05
0.00529744
-1.61134e-05
0.00529783
-1.96107e-05
0.00529825
-2.24211e-05
0.0052989
-2.87242e-05
0.00529947
-3.03024e-05
0.00530063
-4.23806e-05
0.00530144
-4.04546e-05
0.00530343
-5.7629e-05
0.00530516
-5.80915e-05
0.00530783
-5.8103e-05
-6.68324e-05
0.00528102
-6.41661e-05
0.00528173
-6.18553e-05
0.00528242
-5.95729e-05
0.0052831
-5.73209e-05
0.00528376
-5.51008e-05
0.00528441
-5.29139e-05
0.00528504
-5.0762e-05
0.00528566
-4.86464e-05
0.00528625
-4.65687e-05
0.00528683
-4.45304e-05
0.00528739
-4.25326e-05
0.00528792
-4.05767e-05
0.00528844
-3.86639e-05
0.00528894
-3.67951e-05
0.00528942
-3.49715e-05
0.00528987
-3.31939e-05
0.00529031
-3.14631e-05
0.00529072
-2.97801e-05
0.00529112
-2.81455e-05
0.00529149
-2.656e-05
0.00529184
-2.50242e-05
0.00529218
-2.35386e-05
0.00529249
-2.21036e-05
0.00529279
-2.07197e-05
0.00529306
-1.93871e-05
0.00529332
-1.81064e-05
0.00529357
-1.68776e-05
0.00529379
-1.57012e-05
0.005294
-1.45767e-05
0.00529419
-1.35048e-05
0.00529437
-1.2485e-05
0.00529453
-1.15181e-05
0.00529468
-1.06033e-05
0.00529482
-9.74139e-06
0.00529494
-8.93181e-06
0.00529506
-8.17512e-06
0.00529516
-7.47112e-06
0.00529525
-6.82063e-06
0.00529533
-6.22387e-06
0.00529541
-5.68171e-06
0.00529548
-5.19488e-06
0.00529554
-4.7649e-06
0.00529559
-4.39263e-06
0.00529564
-4.08129e-06
0.00529569
-3.83203e-06
0.00529574
-3.64928e-06
0.00529578
-3.53675e-06
0.00529582
-3.49972e-06
0.00529587
-3.54564e-06
0.00529591
-3.68038e-06
0.00529597
-3.91724e-06
0.00529602
-4.26514e-06
0.00529609
-4.74266e-06
0.00529617
-5.3662e-06
0.00529626
-6.15924e-06
0.00529637
-7.15107e-06
0.00529651
-8.37022e-06
0.00529667
-9.87224e-06
0.00529687
-1.1665e-05
0.00529711
-1.39226e-05
0.0052974
-1.64006e-05
0.00529778
-1.9992e-05
0.00529819
-2.28287e-05
0.00529883
-2.93736e-05
0.00529938
-3.08473e-05
0.00530056
-4.35621e-05
0.00530134
-4.12341e-05
0.00530339
-5.96762e-05
0.0053051
-5.98051e-05
0.00530794
-6.09383e-05
-7.13825e-05
0.0052817
-6.48387e-05
0.00528237
-6.25194e-05
0.00528302
-6.02268e-05
0.00528366
-5.79632e-05
0.00528429
-5.57302e-05
0.00528491
-5.35294e-05
0.00528551
-5.13625e-05
0.00528609
-4.9231e-05
0.00528666
-4.71366e-05
0.00528721
-4.50808e-05
0.00528774
-4.3065e-05
0.00528826
-4.10907e-05
0.00528875
-3.91589e-05
0.00528923
-3.7271e-05
0.00528969
-3.5428e-05
0.00529012
-3.36308e-05
0.00529054
-3.18805e-05
0.00529094
-3.01779e-05
0.00529132
-2.85238e-05
0.00529167
-2.69189e-05
0.00529201
-2.53639e-05
0.00529234
-2.38594e-05
0.00529264
-2.24059e-05
0.00529292
-2.10038e-05
0.00529319
-1.96534e-05
0.00529344
-1.83554e-05
0.00529367
-1.71098e-05
0.00529388
-1.5917e-05
0.00529408
-1.47768e-05
0.00529427
-1.36898e-05
0.00529444
-1.26555e-05
0.0052946
-1.16747e-05
0.00529474
-1.07468e-05
0.00529487
-9.87231e-06
0.00529499
-9.05092e-06
0.0052951
-8.28309e-06
0.0052952
-7.56874e-06
0.00529528
-6.90864e-06
0.00529536
-6.30309e-06
0.00529543
-5.7529e-06
0.0052955
-5.25892e-06
0.00529556
-4.82265e-06
0.00529561
-4.44499e-06
0.00529566
-4.12922e-06
0.0052957
-3.87648e-06
0.00529574
-3.69133e-06
0.00529578
-3.5775e-06
0.00529582
-3.54042e-06
0.00529587
-3.58766e-06
0.00529591
-3.72519e-06
0.00529596
-3.96648e-06
0.00529602
-4.32081e-06
0.00529608
-4.80684e-06
0.00529616
-5.44158e-06
0.00529625
-6.24882e-06
0.00529635
-7.2586e-06
0.00529648
-8.49984e-06
0.00529664
-1.00299e-05
0.00529683
-1.18556e-05
0.00529707
-1.41599e-05
0.00529735
-1.66805e-05
0.00529772
-2.0367e-05
0.00529812
-2.32254e-05
0.00529877
-3.00204e-05
0.00529929
-3.13725e-05
0.00530049
-4.47567e-05
0.00530123
-4.19809e-05
0.00530334
-6.17837e-05
0.00530503
-6.14936e-05
0.00530804
-6.39507e-05
-7.63123e-05
0.00528239
-6.54696e-05
0.00528301
-6.31436e-05
0.00528363
-6.08427e-05
0.00528423
-5.85693e-05
0.00528483
-5.63252e-05
0.00528541
-5.41121e-05
0.00528598
-5.19317e-05
0.00528654
-4.97859e-05
0.00528707
-4.76763e-05
0.0052876
-4.56045e-05
0.00528811
-4.35722e-05
0.0052886
-4.15807e-05
0.00528907
-3.96313e-05
0.00528952
-3.77254e-05
0.00528996
-3.58642e-05
0.00529038
-3.40486e-05
0.00529078
-3.22798e-05
0.00529116
-3.05586e-05
0.00529152
-2.8886e-05
0.00529186
-2.72628e-05
0.00529219
-2.56896e-05
0.0052925
-2.4167e-05
0.00529279
-2.26957e-05
0.00529306
-2.12761e-05
0.00529331
-1.99088e-05
0.00529355
-1.85942e-05
0.00529377
-1.73324e-05
0.00529398
-1.6124e-05
0.00529417
-1.49686e-05
0.00529435
-1.3867e-05
0.00529451
-1.28188e-05
0.00529466
-1.18246e-05
0.0052948
-1.0884e-05
0.00529493
-9.99739e-06
0.00529504
-9.16459e-06
0.00529514
-8.386e-06
0.00529524
-7.66167e-06
0.00529532
-6.99228e-06
0.00529539
-6.37824e-06
0.00529546
-5.82029e-06
0.00529552
-5.31941e-06
0.00529558
-4.87706e-06
0.00529563
-4.49421e-06
0.00529567
-4.17418e-06
0.00529571
-3.91811e-06
0.00529575
-3.73067e-06
0.00529579
-3.6156e-06
0.00529583
-3.57852e-06
0.00529587
-3.62707e-06
0.00529591
-3.76738e-06
0.00529596
-4.01302e-06
0.00529601
-4.37368e-06
0.00529607
-4.86804e-06
0.00529614
-5.51376e-06
0.00529623
-6.3349e-06
0.00529633
-7.36228e-06
0.00529646
-8.62517e-06
0.00529661
-1.01828e-05
0.0052968
-1.20408e-05
0.00529703
-1.43913e-05
0.0052973
-1.69531e-05
0.00529767
-2.07356e-05
0.00529805
-2.36106e-05
0.0052987
-3.06643e-05
0.0052992
-3.18771e-05
0.00530041
-4.59639e-05
0.00530112
-4.26923e-05
0.00530329
-6.39527e-05
0.00530494
-6.31441e-05
0.00530814
-6.71545e-05
-8.16541e-05
0.00528308
-6.60589e-05
0.00528366
-6.3728e-05
0.00528424
-6.14207e-05
0.00528481
-5.91392e-05
0.00528537
-5.68856e-05
0.00528592
-5.46618e-05
0.00528646
-5.24697e-05
0.00528698
-5.0311e-05
0.00528749
-4.81877e-05
0.00528799
-4.61015e-05
0.00528847
-4.40539e-05
0.00528894
-4.20466e-05
0.00528939
-4.00809e-05
0.00528982
-3.81583e-05
0.00529024
-3.628e-05
0.00529064
-3.44472e-05
0.00529102
-3.26609e-05
0.00529138
-3.09223e-05
0.00529173
-2.92322e-05
0.00529206
-2.75915e-05
0.00529237
-2.60009e-05
0.00529266
-2.44612e-05
0.00529294
-2.29729e-05
0.0052932
-2.15367e-05
0.00529344
-2.01531e-05
0.00529367
-1.88225e-05
0.00529388
-1.75452e-05
0.00529408
-1.63218e-05
0.00529427
-1.5152e-05
0.00529443
-1.40363e-05
0.00529459
-1.29748e-05
0.00529473
-1.19677e-05
0.00529486
-1.10148e-05
0.00529498
-1.01166e-05
0.00529509
-9.27277e-06
0.00529519
-8.4838e-06
0.00529528
-7.74982e-06
0.00529536
-7.07147e-06
0.00529543
-6.44924e-06
0.00529549
-5.88383e-06
0.00529555
-5.37629e-06
0.0052956
-4.92809e-06
0.00529565
-4.54026e-06
0.00529569
-4.21612e-06
0.00529573
-3.95686e-06
0.00529576
-3.76725e-06
0.0052958
-3.65103e-06
0.00529583
-3.61398e-06
0.00529587
-3.66384e-06
0.00529591
-3.80691e-06
0.00529595
-4.05684e-06
0.005296
-4.42368e-06
0.00529606
-4.92621e-06
0.00529613
-5.58269e-06
0.00529621
-6.41742e-06
0.00529631
-7.46204e-06
0.00529643
-8.74614e-06
0.00529658
-1.03309e-05
0.00529676
-1.22204e-05
0.00529699
-1.46167e-05
0.00529725
-1.72181e-05
0.00529761
-2.10975e-05
0.00529799
-2.3984e-05
0.00529863
-3.13049e-05
0.00529911
-3.236e-05
0.00530033
-4.71834e-05
0.005301
-4.33654e-05
0.00530324
-6.61846e-05
0.00530483
-6.47412e-05
0.00530824
-7.0566e-05
-8.74442e-05
0.00528377
-6.66067e-05
0.00528432
-6.42729e-05
0.00528486
-6.19608e-05
0.00528539
-5.9673e-05
0.00528592
-5.74116e-05
0.00528643
-5.51788e-05
0.00528694
-5.29764e-05
0.00528744
-5.08064e-05
0.00528792
-4.86709e-05
0.00528839
-4.65715e-05
0.00528884
-4.45101e-05
0.00528929
-4.24883e-05
0.00528971
-4.05076e-05
0.00529012
-3.85695e-05
0.00529052
-3.66753e-05
0.0052909
-3.48264e-05
0.00529126
-3.30238e-05
0.00529161
-3.12687e-05
0.00529194
-2.95621e-05
0.00529225
-2.79048e-05
0.00529255
-2.62978e-05
0.00529283
-2.47418e-05
0.00529309
-2.32374e-05
0.00529334
-2.17853e-05
0.00529357
-2.03861e-05
0.00529379
-1.90404e-05
0.005294
-1.77483e-05
0.00529418
-1.65105e-05
0.00529436
-1.53267e-05
0.00529452
-1.41977e-05
0.00529467
-1.31232e-05
0.00529481
-1.21038e-05
0.00529493
-1.11392e-05
0.00529504
-1.02297e-05
0.00529515
-9.37536e-06
0.00529524
-8.5764e-06
0.00529532
-7.83314e-06
0.0052954
-7.14617e-06
0.00529546
-6.51604e-06
0.00529552
-5.94344e-06
0.00529558
-5.4295e-06
0.00529562
-4.97569e-06
0.00529567
-4.58308e-06
0.0052957
-4.255e-06
0.00529574
-3.99268e-06
0.00529577
-3.80101e-06
0.00529581
-3.68372e-06
0.00529584
-3.64675e-06
0.00529587
-3.69793e-06
0.00529591
-3.84373e-06
0.00529595
-4.09787e-06
0.005296
-4.47078e-06
0.00529605
-4.98129e-06
0.00529612
-5.64831e-06
0.0052962
-6.49631e-06
0.00529629
-7.5578e-06
0.00529641
-8.86265e-06
0.00529655
-1.04739e-05
0.00529673
-1.23943e-05
0.00529695
-1.48358e-05
0.0052972
-1.74752e-05
0.00529756
-2.14526e-05
0.00529792
-2.43451e-05
0.00529856
-3.19419e-05
0.00529902
-3.28203e-05
0.00530025
-4.84145e-05
0.00530088
-4.39973e-05
0.00530318
-6.84806e-05
0.0053047
-6.6266e-05
0.00530834
-7.4204e-05
-9.37245e-05
0.00528447
-6.71134e-05
0.00528498
-6.47783e-05
0.00528548
-6.24632e-05
0.00528598
-6.01707e-05
0.00528647
-5.79032e-05
0.00528695
-5.56629e-05
0.00528743
-5.34518e-05
0.00528789
-5.1272e-05
0.00528835
-4.91257e-05
0.00528879
-4.70146e-05
0.00528922
-4.49407e-05
0.00528964
-4.29057e-05
0.00529004
-4.09113e-05
0.00529043
-3.89589e-05
0.00529081
-3.705e-05
0.00529117
-3.5186e-05
0.00529151
-3.33682e-05
0.00529184
-3.15977e-05
0.00529215
-2.98755e-05
0.00529245
-2.82027e-05
0.00529273
-2.65802e-05
0.005293
-2.50087e-05
0.00529325
-2.3489e-05
0.00529349
-2.20219e-05
0.00529371
-2.06079e-05
0.00529392
-1.92476e-05
0.00529411
-1.79414e-05
0.00529429
-1.66899e-05
0.00529446
-1.54928e-05
0.00529461
-1.43509e-05
0.00529475
-1.32642e-05
0.00529488
-1.22329e-05
0.005295
-1.1257e-05
0.0052951
-1.03368e-05
0.0052952
-9.47228e-06
0.00529529
-8.66374e-06
0.00529537
-7.91156e-06
0.00529544
-7.21629e-06
0.0052955
-6.57857e-06
0.00529555
-5.99908e-06
0.0052956
-5.47899e-06
0.00529565
-5.01979e-06
0.00529569
-4.62261e-06
0.00529572
-4.29077e-06
0.00529576
-4.02554e-06
0.00529579
-3.83192e-06
0.00529582
-3.71363e-06
0.00529585
-3.67679e-06
0.00529588
-3.72928e-06
0.00529591
-3.87779e-06
0.00529595
-4.13606e-06
0.00529599
-4.51491e-06
0.00529605
-5.03322e-06
0.00529611
-5.71054e-06
0.00529618
-6.57151e-06
0.00529628
-7.64947e-06
0.00529639
-8.9746e-06
0.00529653
-1.06118e-05
0.00529669
-1.25622e-05
0.00529691
-1.50486e-05
0.00529716
-1.77243e-05
0.0052975
-2.18004e-05
0.00529785
-2.46936e-05
0.00529848
-3.25748e-05
0.00529892
-3.32569e-05
0.00530016
-4.96564e-05
0.00530075
-4.45851e-05
0.00530311
-7.08418e-05
0.00530454
-6.76959e-05
0.00530843
-7.80906e-05
-0.000100544
0.00528517
-6.75793e-05
0.00528563
-6.52446e-05
0.0052861
-6.29281e-05
0.00528656
-6.06326e-05
0.00528702
-5.83605e-05
0.00528747
-5.61142e-05
0.00528791
-5.3896e-05
0.00528835
-5.17079e-05
0.00528878
-4.95521e-05
0.00528919
-4.74308e-05
0.0052896
-4.53457e-05
0.00528999
-4.32988e-05
0.00529037
-4.12918e-05
0.00529074
-3.93264e-05
0.00529109
-3.7404e-05
0.00529143
-3.55261e-05
0.00529176
-3.36941e-05
0.00529207
-3.19092e-05
0.00529237
-3.01725e-05
0.00529265
-2.84851e-05
0.00529292
-2.68478e-05
0.00529317
-2.52618e-05
0.00529341
-2.37276e-05
0.00529363
-2.22462e-05
0.00529384
-2.08182e-05
0.00529404
-1.94442e-05
0.00529422
-1.81245e-05
0.00529439
-1.68598e-05
0.00529455
-1.56502e-05
0.0052947
-1.4496e-05
0.00529483
-1.33975e-05
0.00529495
-1.23549e-05
0.00529506
-1.13683e-05
0.00529516
-1.04377e-05
0.00529525
-9.56347e-06
0.00529534
-8.74573e-06
0.00529541
-7.98499e-06
0.00529548
-7.28177e-06
0.00529553
-6.63678e-06
0.00529558
-6.05067e-06
0.00529563
-5.5247e-06
0.00529567
-5.06034e-06
0.00529571
-4.6588e-06
0.00529574
-4.32338e-06
0.00529577
-4.05538e-06
0.0052958
-3.85992e-06
0.00529582
-3.74072e-06
0.00529585
-3.70404e-06
0.00529588
-3.75786e-06
0.00529591
-3.90905e-06
0.00529595
-4.17137e-06
0.00529599
-4.55602e-06
0.00529604
-5.08194e-06
0.0052961
-5.76931e-06
0.00529617
-6.64293e-06
0.00529625
-7.73698e-06
0.00529636
-9.08189e-06
0.00529649
-1.07445e-05
0.00529666
-1.27242e-05
0.00529686
-1.52547e-05
0.0052971
-1.79652e-05
0.00529744
-2.21409e-05
0.00529778
-2.50289e-05
0.00529841
-3.32033e-05
0.00529882
-3.36687e-05
0.00530007
-5.09082e-05
0.00530061
-4.51261e-05
0.00530304
-7.32695e-05
0.00530435
-6.90035e-05
0.00530851
-8.22512e-05
-0.000107958
0.00528586
-6.80047e-05
0.00528629
-6.56721e-05
0.00528672
-6.33558e-05
0.00528714
-6.10588e-05
0.00528757
-5.87837e-05
0.00528798
-5.6533e-05
0.0052884
-5.4309e-05
0.0052888
-5.2114e-05
0.0052892
-4.99503e-05
0.00528959
-4.78199e-05
0.00528997
-4.5725e-05
0.00529034
-4.36675e-05
0.0052907
-4.16492e-05
0.00529104
-3.96719e-05
0.00529137
-3.77371e-05
0.0052917
-3.58465e-05
0.005292
-3.40014e-05
0.0052923
-3.22031e-05
0.00529258
-3.04528e-05
0.00529284
-2.87517e-05
0.0052931
-2.71008e-05
0.00529334
-2.5501e-05
0.00529356
-2.39532e-05
0.00529377
-2.24583e-05
0.00529397
-2.1017e-05
0.00529416
-1.96299e-05
0.00529433
-1.82975e-05
0.00529449
-1.70204e-05
0.00529464
-1.57986e-05
0.00529478
-1.46328e-05
0.0052949
-1.35231e-05
0.00529502
-1.24697e-05
0.00529512
-1.14728e-05
0.00529522
-1.05324e-05
0.0052953
-9.64885e-06
0.00529538
-8.82233e-06
0.00529545
-8.05338e-06
0.00529551
-7.34255e-06
0.00529556
-6.69059e-06
0.00529561
-6.09817e-06
0.00529565
-5.56658e-06
0.00529569
-5.0973e-06
0.00529572
-4.6916e-06
0.00529575
-4.35278e-06
0.00529578
-4.08216e-06
0.0052958
-3.88497e-06
0.00529583
-3.76493e-06
0.00529585
-3.72846e-06
0.00529588
-3.78361e-06
0.0052959
-3.93745e-06
0.00529594
-4.20374e-06
0.00529597
-4.59406e-06
0.00529602
-5.12739e-06
0.00529608
-5.82458e-06
0.00529614
-6.71051e-06
0.00529623
-7.82024e-06
0.00529633
-9.18443e-06
0.00529646
-1.08719e-05
0.00529661
-1.288e-05
0.00529681
-1.54541e-05
0.00529704
-1.81976e-05
0.00529738
-2.24735e-05
0.0052977
-2.53508e-05
0.00529832
-3.38268e-05
0.00529871
-3.40549e-05
0.00529997
-5.21687e-05
0.00530046
-4.56174e-05
0.00530295
-7.57645e-05
0.00530411
-7.01573e-05
0.00530857
-8.6715e-05
-0.00011603
0.00528654
-6.83899e-05
0.00528693
-6.6061e-05
0.00528732
-6.37465e-05
0.00528771
-6.14495e-05
0.0052881
-5.91729e-05
0.00528849
-5.69193e-05
0.00528887
-5.4691e-05
0.00528924
-5.24905e-05
0.00528961
-5.03202e-05
0.00528998
-4.81822e-05
0.00529033
-4.60788e-05
0.00529067
-4.40119e-05
0.00529101
-4.19835e-05
0.00529133
-3.99954e-05
0.00529164
-3.80494e-05
0.00529195
-3.61471e-05
0.00529223
-3.429e-05
0.00529251
-3.24793e-05
0.00529277
-3.07165e-05
0.00529302
-2.90026e-05
0.00529326
-2.73389e-05
0.00529349
-2.57262e-05
0.0052937
-2.41656e-05
0.0052939
-2.2658e-05
0.00529409
-2.12041e-05
0.00529426
-1.98048e-05
0.00529442
-1.84603e-05
0.00529458
-1.71713e-05
0.00529472
-1.59382e-05
0.00529484
-1.47613e-05
0.00529496
-1.36409e-05
0.00529507
-1.25773e-05
0.00529517
-1.15706e-05
0.00529526
-1.06208e-05
0.00529533
-9.72837e-06
0.00529541
-8.89347e-06
0.00529547
-8.11669e-06
0.00529553
-7.39859e-06
0.00529557
-6.73998e-06
0.00529562
-6.14153e-06
0.00529566
-5.60458e-06
0.00529569
-5.13063e-06
0.00529572
-4.72097e-06
0.00529575
-4.37893e-06
0.00529577
-4.10583e-06
0.00529579
-3.90702e-06
0.00529581
-3.78623e-06
0.00529583
-3.75002e-06
0.00529586
-3.80651e-06
0.00529588
-3.96296e-06
0.00529591
-4.23313e-06
0.00529595
-4.62899e-06
0.00529599
-5.16953e-06
0.00529604
-5.87626e-06
0.0052961
-6.77419e-06
0.00529618
-7.89918e-06
0.00529628
-9.28212e-06
0.0052964
-1.09938e-05
0.00529655
-1.30296e-05
0.00529674
-1.56466e-05
0.00529697
-1.84213e-05
0.00529729
-2.27982e-05
0.0052976
-2.56586e-05
0.00529822
-3.44448e-05
0.00529858
-3.44145e-05
0.00529985
-5.34369e-05
0.00530029
-4.60569e-05
0.00530285
-7.83272e-05
0.00530381
-7.11224e-05
0.00530861
-9.15124e-05
-0.000124827
0.0052872
-6.87355e-05
0.00528755
-6.64117e-05
0.0052879
-6.41005e-05
0.00528826
-6.18051e-05
0.00528861
-5.95285e-05
0.00528897
-5.72733e-05
0.00528932
-5.50421e-05
0.00528966
-5.28375e-05
0.00529001
-5.06619e-05
0.00529034
-4.85176e-05
0.00529067
-4.64069e-05
0.00529099
-4.43319e-05
0.0052913
-4.22946e-05
0.0052916
-4.0297e-05
0.00529189
-3.83409e-05
0.00529217
-3.6428e-05
0.00529244
-3.45599e-05
0.0052927
-3.27379e-05
0.00529295
-3.09635e-05
0.00529318
-2.92378e-05
0.00529341
-2.75621e-05
0.00529362
-2.59375e-05
0.00529382
-2.43649e-05
0.00529401
-2.28454e-05
0.00529418
-2.13797e-05
0.00529434
-1.99687e-05
0.0052945
-1.86128e-05
0.00529464
-1.73127e-05
0.00529477
-1.60688e-05
0.00529489
-1.48814e-05
0.005295
-1.3751e-05
0.0052951
-1.26776e-05
0.00529519
-1.16616e-05
0.00529527
-1.07029e-05
0.00529535
-9.80203e-06
0.00529541
-8.95914e-06
0.00529547
-8.1749e-06
0.00529552
-7.44988e-06
0.00529557
-6.78493e-06
0.00529561
-6.18074e-06
0.00529564
-5.63869e-06
0.00529567
-5.16031e-06
0.0052957
-4.74691e-06
0.00529572
-4.40183e-06
0.00529574
-4.1264e-06
0.00529576
-3.92609e-06
0.00529578
-3.80461e-06
0.0052958
-3.76871e-06
0.00529582
-3.82654e-06
0.00529584
-3.98556e-06
0.00529586
-4.25952e-06
0.0052959
-4.66078e-06
0.00529593
-5.20833e-06
0.00529598
-5.92435e-06
0.00529604
-6.83392e-06
0.00529612
-7.97375e-06
0.00529621
-9.37492e-06
0.00529633
-1.11102e-05
0.00529647
-1.31727e-05
0.00529666
-1.5832e-05
0.00529687
-1.86361e-05
0.00529719
-2.31146e-05
0.00529748
-2.59522e-05
0.00529809
-3.50568e-05
0.00529842
-3.47466e-05
0.0052997
-5.47113e-05
0.00530008
-4.64425e-05
0.00530271
-8.0957e-05
0.00530346
-7.18644e-05
0.00530861
-9.66707e-05
-0.00013441
0.00528782
-6.9042e-05
0.00528813
-6.67248e-05
0.00528845
-6.44183e-05
0.00528877
-6.21259e-05
0.00528909
-5.98506e-05
0.00528941
-5.75953e-05
0.00528974
-5.53626e-05
0.00529005
-5.31552e-05
0.00529037
-5.09757e-05
0.00529068
-4.88263e-05
0.00529098
-4.67096e-05
0.00529127
-4.46277e-05
0.00529156
-4.25827e-05
0.00529184
-4.05767e-05
0.00529211
-3.86116e-05
0.00529237
-3.66892e-05
0.00529262
-3.48111e-05
0.00529287
-3.29789e-05
0.0052931
-3.11938e-05
0.00529332
-2.94573e-05
0.00529352
-2.77705e-05
0.00529372
-2.61347e-05
0.00529391
-2.4551e-05
0.00529408
-2.30203e-05
0.00529425
-2.15436e-05
0.0052944
-2.01217e-05
0.00529454
-1.87551e-05
0.00529467
-1.74446e-05
0.0052948
-1.61905e-05
0.00529491
-1.49932e-05
0.00529501
-1.38532e-05
0.0052951
-1.27707e-05
0.00529519
-1.17459e-05
0.00529526
-1.07788e-05
0.00529533
-9.86985e-06
0.00529539
-9.01939e-06
0.00529544
-8.22804e-06
0.00529549
-7.49644e-06
0.00529553
-6.82547e-06
0.00529557
-6.21583e-06
0.0052956
-5.66896e-06
0.00529562
-5.18638e-06
0.00529564
-4.76945e-06
0.00529566
-4.42152e-06
0.00529568
-4.14391e-06
0.0052957
-3.94219e-06
0.00529571
-3.82011e-06
0.00529573
-3.78456e-06
0.00529575
-3.84374e-06
0.00529577
-4.00529e-06
0.00529579
-4.28295e-06
0.00529582
-4.68945e-06
0.00529585
-5.2438e-06
0.0052959
-5.96884e-06
0.00529595
-6.88971e-06
0.00529602
-8.04395e-06
0.00529611
-9.4628e-06
0.00529622
-1.12211e-05
0.00529636
-1.33095e-05
0.00529654
-1.60103e-05
0.00529674
-1.8842e-05
0.00529705
-2.34225e-05
0.00529733
-2.62313e-05
0.00529794
-3.56626e-05
0.00529824
-3.50505e-05
0.00529952
-5.59906e-05
0.00529985
-4.67731e-05
0.00530254
-8.36514e-05
0.00530304
-7.23547e-05
0.00530857
-0.000102207
-0.000144818
0.00528841
-6.93097e-05
0.00528868
-6.70005e-05
0.00528897
-6.47002e-05
0.00528925
-6.24121e-05
0.00528954
-6.01396e-05
0.00528983
-5.78855e-05
0.00529012
-5.56527e-05
0.00529041
-5.34438e-05
0.0052907
-5.12616e-05
0.00529098
-4.91086e-05
0.00529126
-4.69871e-05
0.00529153
-4.48994e-05
0.00529179
-4.28479e-05
0.00529205
-4.08346e-05
0.0052923
-3.88617e-05
0.00529254
-3.69308e-05
0.00529278
-3.50439e-05
0.005293
-3.32023e-05
0.00529321
-3.14076e-05
0.00529342
-2.96611e-05
0.00529361
-2.79642e-05
0.00529379
-2.63182e-05
0.00529397
-2.47241e-05
0.00529413
-2.31831e-05
0.00529428
-2.16961e-05
0.00529442
-2.0264e-05
0.00529456
-1.88874e-05
0.00529468
-1.7567e-05
0.00529479
-1.63033e-05
0.0052949
-1.50968e-05
0.00529499
-1.39478e-05
0.00529508
-1.28566e-05
0.00529515
-1.18235e-05
0.00529522
-1.08485e-05
0.00529528
-9.93195e-06
0.00529534
-9.07431e-06
0.00529539
-8.27623e-06
0.00529543
-7.5384e-06
0.00529547
-6.86172e-06
0.0052955
-6.24693e-06
0.00529552
-5.6955e-06
0.00529555
-5.20896e-06
0.00529557
-4.7887e-06
0.00529558
-4.43809e-06
0.0052956
-4.15845e-06
0.00529561
-3.95544e-06
0.00529562
-3.83283e-06
0.00529564
-3.79766e-06
0.00529565
-3.8582e-06
0.00529567
-4.02223e-06
0.00529569
-4.30351e-06
0.00529571
-4.7151e-06
0.00529575
-5.27604e-06
0.00529579
-6.00982e-06
0.00529584
-6.94163e-06
0.0052959
-8.10985e-06
0.00529599
-9.54583e-06
0.00529609
-1.13264e-05
0.00529622
-1.34398e-05
0.00529639
-1.61815e-05
0.00529659
-1.9039e-05
0.00529689
-2.3722e-05
0.00529716
-2.64956e-05
0.00529775