/*--------------------------------*- C++ -*----------------------------------*\
| =========                 |                                                 |
| \\      /  F ield         | OpenFOAM: The Open Source CFD Toolbox           |
|  \\    /   O peration     | Version:  2412                                  |
|   \\  /    A nd           | Website:  www.openfoam.com                      |
|    \\/     M anipulation  |                                                 |
\*---------------------------------------------------------------------------*/
FoamFile
{
    version     2.0;
    format      ascii;
    arch        "LSB;label=32;scalar=64";
    class       volVectorField;
    location    "7";
    object      U;
}
// * * * * * * * * * * * * * * * * * * * * * * * * * * * * * * * * * * * * * //

dimensions      [0 1 -1 0 0 0 0];

internalField   nonuniform List<vector> 
5285
(
(0.100431 -0.00257847 0)
(0.100478 -0.00263068 0)
(0.100528 -0.00268319 0)
(0.100581 -0.00273592 0)
(0.100636 -0.00278878 0)
(0.100694 -0.00284167 0)
(0.100754 -0.00289447 0)
(0.100818 -0.00294707 0)
(0.100884 -0.00299935 0)
(0.100953 -0.00305117 0)
(0.101026 -0.00310239 0)
(0.101101 -0.00315283 0)
(0.10118 -0.00320233 0)
(0.101262 -0.0032507 0)
(0.101347 -0.00329772 0)
(0.101436 -0.00334319 0)
(0.100378 -0.0026247 0)
(0.100425 -0.00267936 0)
(0.100475 -0.00273441 0)
(0.100528 -0.00278976 0)
(0.100583 -0.00284531 0)
(0.10064 -0.00290097 0)
(0.100701 -0.00295662 0)
(0.100765 -0.00301214 0)
(0.100832 -0.00306742 0)
(0.100901 -0.00312232 0)
(0.100975 -0.00317669 0)
(0.101051 -0.00323039 0)
(0.101131 -0.00328322 0)
(0.101214 -0.00333501 0)
(0.1013 -0.00338554 0)
(0.101391 -0.0034346 0)
(0.100323 -0.00267052 0)
(0.10037 -0.00272769 0)
(0.10042 -0.00278535 0)
(0.100472 -0.0028434 0)
(0.100527 -0.00290175 0)
(0.100584 -0.00296029 0)
(0.100645 -0.0030189 0)
(0.100709 -0.00307748 0)
(0.100776 -0.0031359 0)
(0.100846 -0.00319403 0)
(0.10092 -0.00325173 0)
(0.100997 -0.00330884 0)
(0.101078 -0.0033652 0)
(0.101162 -0.0034206 0)
(0.10125 -0.00347486 0)
(0.101342 -0.00352773 0)
(0.100267 -0.0027158 0)
(0.100313 -0.00277556 0)
(0.100362 -0.00283591 0)
(0.100413 -0.00289675 0)
(0.100468 -0.00295798 0)
(0.100525 -0.00301951 0)
(0.100586 -0.00308121 0)
(0.10065 -0.00314297 0)
(0.100717 -0.00320467 0)
(0.100788 -0.00326619 0)
(0.100862 -0.00332738 0)
(0.100939 -0.0033881 0)
(0.101021 -0.00344817 0)
(0.101106 -0.0035074 0)
(0.101196 -0.0035656 0)
(0.101289 -0.00362251 0)
(0.100207 -0.00276042 0)
(0.100253 -0.00282283 0)
(0.100301 -0.00288594 0)
(0.100352 -0.00294966 0)
(0.100406 -0.00301388 0)
(0.100463 -0.00307849 0)
(0.100524 -0.0031434 0)
(0.100587 -0.00320848 0)
(0.100655 -0.00327361 0)
(0.100725 -0.00333867 0)
(0.1008 -0.00340353 0)
(0.100878 -0.00346804 0)
(0.10096 -0.00353203 0)
(0.101046 -0.0035953 0)
(0.101137 -0.00365766 0)
(0.101232 -0.00371887 0)
(0.100145 -0.00280426 0)
(0.100189 -0.00286939 0)
(0.100237 -0.00293533 0)
(0.100287 -0.003002 0)
(0.100341 -0.0030693 0)
(0.100398 -0.00313712 0)
(0.100458 -0.00320535 0)
(0.100521 -0.00327387 0)
(0.100588 -0.00334258 0)
(0.100659 -0.00341135 0)
(0.100734 -0.00348006 0)
(0.100812 -0.00354854 0)
(0.100895 -0.00361665 0)
(0.100982 -0.00368419 0)
(0.101074 -0.00375095 0)
(0.10117 -0.00381669 0)
(0.10008 -0.00284718 0)
(0.100123 -0.00291508 0)
(0.10017 -0.00298393 0)
(0.10022 -0.00305364 0)
(0.100273 -0.00312411 0)
(0.100329 -0.00319523 0)
(0.100388 -0.0032669 0)
(0.100451 -0.00333901 0)
(0.100518 -0.00341144 0)
(0.100589 -0.00348409 0)
(0.100663 -0.00355681 0)
(0.100742 -0.00362947 0)
(0.100825 -0.0037019 0)
(0.100913 -0.00377393 0)
(0.101006 -0.00384533 0)
(0.101103 -0.00391587 0)
(0.100012 -0.00288905 0)
(0.100054 -0.00295978 0)
(0.1001 -0.0030316 0)
(0.100149 -0.00310442 0)
(0.100201 -0.00317815 0)
(0.100256 -0.00325268 0)
(0.100315 -0.00332791 0)
(0.100377 -0.00340373 0)
(0.100444 -0.00348004 0)
(0.100514 -0.00355671 0)
(0.100589 -0.00363363 0)
(0.100667 -0.00371065 0)
(0.100751 -0.00378763 0)
(0.100839 -0.00386437 0)
(0.100932 -0.00394066 0)
(0.101031 -0.00401626 0)
(0.0999409 -0.00292972 0)
(0.0999823 -0.00300334 0)
(0.100027 -0.00307819 0)
(0.100074 -0.0031542 0)
(0.100125 -0.00323127 0)
(0.100179 -0.00330931 0)
(0.100237 -0.00338821 0)
(0.100299 -0.00346787 0)
(0.100365 -0.00354819 0)
(0.100435 -0.00362905 0)
(0.100509 -0.00371034 0)
(0.100588 -0.00379193 0)
(0.100672 -0.00387366 0)
(0.10076 -0.00395534 0)
(0.100854 -0.00403678 0)
(0.100953 -0.00411771 0)
(0.0998671 -0.00296905 0)
(0.0999071 -0.0030456 0)
(0.0999502 -0.00312354 0)
(0.0999964 -0.00320281 0)
(0.100046 -0.0032833 0)
(0.100099 -0.00336494 0)
(0.100156 -0.00344762 0)
(0.100217 -0.00353124 0)
(0.100282 -0.00361571 0)
(0.100351 -0.00370092 0)
(0.100425 -0.00378676 0)
(0.100504 -0.0038731 0)
(0.100587 -0.00395979 0)
(0.100676 -0.00404666 0)
(0.10077 -0.00413349 0)
(0.100869 -0.00422004 0)
(0.0997904 -0.00300688 0)
(0.0998288 -0.0030864 0)
(0.0998703 -0.00316749 0)
(0.0999151 -0.00325007 0)
(0.0999633 -0.00333407 0)
(0.100015 -0.00341939 0)
(0.100071 -0.00350595 0)
(0.100131 -0.00359365 0)
(0.100194 -0.0036824 0)
(0.100263 -0.00377211 0)
(0.100336 -0.00386266 0)
(0.100414 -0.00395395 0)
(0.100497 -0.00404582 0)
(0.100586 -0.0041381 0)
(0.10068 -0.00423059 0)
(0.10078 -0.00432303 0)
(0.0997107 -0.00304305 0)
(0.0997474 -0.00312557 0)
(0.0997872 -0.00320985 0)
(0.0998303 -0.0032958 0)
(0.0998769 -0.00338336 0)
(0.0999273 -0.00347245 0)
(0.0999815 -0.00356299 0)
(0.10004 -0.00365488 0)
(0.100103 -0.00374805 0)
(0.10017 -0.00384239 0)
(0.100242 -0.00393783 0)
(0.100319 -0.00403425 0)
(0.100402 -0.0041315 0)
(0.10049 -0.00422943 0)
(0.100584 -0.00432783 0)
(0.100684 -0.00442647 0)
(0.099628 -0.00307738 0)
(0.0996628 -0.00316294 0)
(0.0997007 -0.00325043 0)
(0.099742 -0.0033398 0)
(0.0997868 -0.00343099 0)
(0.0998354 -0.00352392 0)
(0.0998879 -0.00361852 0)
(0.0999447 -0.0037147 0)
(0.100006 -0.0038124 0)
(0.100072 -0.00391153 0)
(0.100143 -0.00401201 0)
(0.100219 -0.00411374 0)
(0.100301 -0.00421658 0)
(0.100388 -0.00432039 0)
(0.100482 -0.00442497 0)
(0.100582 -0.00453007 0)
(0.0995424 -0.00310969 0)
(0.0995751 -0.0031983 0)
(0.0996109 -0.00328904 0)
(0.0996501 -0.00338187 0)
(0.0996929 -0.00347673 0)
(0.0997395 -0.00357356 0)
(0.0997901 -0.0036723 0)
(0.0998451 -0.00377287 0)
(0.0999045 -0.00387521 0)
(0.0999689 -0.00397925 0)
(0.100038 -0.00408493 0)
(0.100113 -0.00419214 0)
(0.100194 -0.00430078 0)
(0.10028 -0.00441069 0)
(0.100373 -0.0045217 0)
(0.100473 -0.00463356 0)
(0.0994538 -0.0031398 0)
(0.0994842 -0.00323146 0)
(0.0995178 -0.00332547 0)
(0.0995547 -0.00342178 0)
(0.0995952 -0.00352035 0)
(0.0996396 -0.00362114 0)
(0.099688 -0.00372407 0)
(0.0997408 -0.00382911 0)
(0.0997983 -0.0039362 0)
(0.0998607 -0.00404527 0)
(0.0999283 -0.00415628 0)
(0.100002 -0.00426915 0)
(0.100081 -0.00438377 0)
(0.100166 -0.00450001 0)
(0.100258 -0.00461769 0)
(0.100357 -0.0047366 0)
(0.0993623 -0.0031675 0)
(0.0993902 -0.00326221 0)
(0.0994212 -0.00335949 0)
(0.0994556 -0.00345929 0)
(0.0994936 -0.00356161 0)
(0.0995355 -0.00366638 0)
(0.0995815 -0.00377358 0)
(0.099632 -0.00388315 0)
(0.0996871 -0.00399507 0)
(0.0997473 -0.00410928 0)
(0.0998128 -0.00422576 0)
(0.099884 -0.00434443 0)
(0.0999613 -0.00446521 0)
(0.100045 -0.00458799 0)
(0.100136 -0.0047126 0)
(0.100233 -0.00483883 0)
(0.0992679 -0.0031926 0)
(0.0992931 -0.00329034 0)
(0.0993213 -0.00339087 0)
(0.0993529 -0.00349418 0)
(0.0993882 -0.00360024 0)
(0.0994273 -0.00370903 0)
(0.0994706 -0.00382052 0)
(0.0995183 -0.00393468 0)
(0.0995708 -0.0040515 0)
(0.0996284 -0.00417095 0)
(0.0996915 -0.00429301 0)
(0.0997603 -0.00441762 0)
(0.0998354 -0.00454474 0)
(0.0999171 -0.00467426 0)
(0.100006 -0.00480602 0)
(0.100102 -0.00493985 0)
(0.0991706 -0.00321486 0)
(0.0991928 -0.00331561 0)
(0.099218 -0.00341937 0)
(0.0992467 -0.00352616 0)
(0.0992789 -0.00363597 0)
(0.099315 -0.00374879 0)
(0.0993552 -0.00386459 0)
(0.0993999 -0.00398339 0)
(0.0994495 -0.00410517 0)
(0.0995041 -0.00422992 0)
(0.0995643 -0.00435766 0)
(0.0996305 -0.00448835 0)
(0.0997029 -0.00462195 0)
(0.0997821 -0.00475839 0)
(0.0998686 -0.00489753 0)
(0.0999628 -0.00503921 0)
(0.0990704 -0.00323409 0)
(0.0990894 -0.00333779 0)
(0.0991114 -0.00344475 0)
(0.0991368 -0.003555 0)
(0.0991657 -0.00366853 0)
(0.0991984 -0.00378536 0)
(0.0992353 -0.00390549 0)
(0.0992767 -0.00402893 0)
(0.0993229 -0.0041557 0)
(0.0993743 -0.00428582 0)
(0.0994312 -0.00441931 0)
(0.0994942 -0.00455618 0)
(0.0995636 -0.0046964 0)
(0.0996399 -0.00483993 0)
(0.0997236 -0.00498666 0)
(0.0998152 -0.00513643 0)
(0.0989674 -0.00325004 0)
(0.098983 -0.00335664 0)
(0.0990015 -0.00346675 0)
(0.0990233 -0.00358039 0)
(0.0990486 -0.00369761 0)
(0.0990777 -0.00381843 0)
(0.099111 -0.00394286 0)
(0.0991486 -0.00407095 0)
(0.0991911 -0.00420273 0)
(0.0992388 -0.00433825 0)
(0.0992921 -0.00447756 0)
(0.0993514 -0.00462068 0)
(0.0994173 -0.00476763 0)
(0.0994902 -0.00491839 0)
(0.0995706 -0.00507288 0)
(0.0996592 -0.00523098 0)
(0.100028 -1.13522e-05 0)
(0.0999888 -0.000182529 0)
(0.0999733 -0.000691115 0)
(0.0998594 -0.00135946 0)
(0.0997086 -0.00183472 0)
(0.0995685 -0.00194223 0)
(0.0994715 -0.00174906 0)
(0.0994287 -0.00142688 0)
(0.0994284 -0.00111879 0)
(0.099453 -0.000892287 0)
(0.0994878 -0.000755349 0)
(0.0995235 -0.000688419 0)
(0.0995557 -0.000667215 0)
(0.0995827 -0.000672623 0)
(0.0996049 -0.000692412 0)
(0.0996228 -0.000719709 0)
(0.0996375 -0.000750988 0)
(0.0996496 -0.000784561 0)
(0.0996599 -0.000819659 0)
(0.0996689 -0.000855941 0)
(0.0996769 -0.000893257 0)
(0.0996844 -0.00093154 0)
(0.0996917 -0.000970755 0)
(0.0996989 -0.00101088 0)
(0.0997062 -0.0010519 0)
(0.0997138 -0.00109379 0)
(0.0997218 -0.00113653 0)
(0.0997304 -0.00118012 0)
(0.0997397 -0.00122451 0)
(0.0997497 -0.00126968 0)
(0.0997605 -0.0013156 0)
(0.0997722 -0.00136225 0)
(0.099785 -0.00140959 0)
(0.0997987 -0.00145757 0)
(0.0998136 -0.00150616 0)
(0.0998296 -0.00155531 0)
(0.0998468 -0.00160499 0)
(0.0998652 -0.00165514 0)
(0.0998849 -0.00170572 0)
(0.0999058 -0.00175667 0)
(0.0999282 -0.00180794 0)
(0.0999518 -0.00185948 0)
(0.0999769 -0.00191123 0)
(0.100003 -0.00196315 0)
(0.100031 -0.00201515 0)
(0.10006 -0.00206721 0)
(0.100091 -0.00211924 0)
(0.100123 -0.0021712 0)
(0.100157 -0.00222302 0)
(0.100192 -0.00227464 0)
(0.100228 -0.00232601 0)
(0.100265 -0.00237707 0)
(0.100304 -0.00242775 0)
(0.100345 -0.00247799 0)
(0.100386 -0.00252773 0)
(0.100028 -1.26757e-05 0)
(0.0999884 -0.000176236 0)
(0.0999754 -0.000664322 0)
(0.0998651 -0.00131087 0)
(0.099718 -0.00177843 0)
(0.0995789 -0.00189507 0)
(0.09948 -0.00172049 0)
(0.0994334 -0.00141728 0)
(0.0994287 -0.0011231 0)
(0.099449 -0.000904296 0)
(0.0994803 -0.000770153 0)
(0.0995132 -0.000703046 0)
(0.0995431 -0.000680275 0)
(0.0995685 -0.000683712 0)
(0.0995893 -0.000701624 0)
(0.0996062 -0.000727331 0)
(0.0996198 -0.000757348 0)
(0.099631 -0.000789963 0)
(0.0996404 -0.000824361 0)
(0.0996484 -0.000860159 0)
(0.0996556 -0.000897172 0)
(0.0996622 -0.000935303 0)
(0.0996685 -0.000974496 0)
(0.0996747 -0.00101471 0)
(0.0996811 -0.00105593 0)
(0.0996877 -0.00109811 0)
(0.0996948 -0.00114123 0)
(0.0997023 -0.00118527 0)
(0.0997106 -0.0012302 0)
(0.0997195 -0.00127598 0)
(0.0997293 -0.0013226 0)
(0.09974 -0.00137001 0)
(0.0997517 -0.00141818 0)
(0.0997644 -0.00146706 0)
(0.0997781 -0.00151663 0)
(0.0997931 -0.00156684 0)
(0.0998092 -0.00161763 0)
(0.0998266 -0.00166897 0)
(0.0998452 -0.00172081 0)
(0.0998652 -0.00177308 0)
(0.0998865 -0.00182575 0)
(0.0999092 -0.00187876 0)
(0.0999333 -0.00193205 0)
(0.0999588 -0.00198556 0)
(0.0999857 -0.00203923 0)
(0.100014 -0.00209301 0)
(0.100044 -0.00214684 0)
(0.100075 -0.00220065 0)
(0.100108 -0.00225438 0)
(0.100142 -0.00230797 0)
(0.100178 -0.00236137 0)
(0.100215 -0.00241449 0)
(0.100253 -0.00246729 0)
(0.100293 -0.0025197 0)
(0.100334 -0.00257165 0)
(0.100028 -1.38837e-05 0)
(0.099988 -0.000170465 0)
(0.099978 -0.000638856 0)
(0.0998729 -0.00126407 0)
(0.0997311 -0.00172335 0)
(0.0995945 -0.00184795 0)
(0.0994944 -0.00169082 0)
(0.099444 -0.00140589 0)
(0.0994342 -0.00112541 0)
(0.0994495 -0.000914438 0)
(0.0994764 -0.000783383 0)
(0.0995058 -0.000716415 0)
(0.0995331 -0.000692345 0)
(0.0995564 -0.00069401 0)
(0.0995755 -0.000710179 0)
(0.099591 -0.000734381 0)
(0.0996034 -0.000763185 0)
(0.0996135 -0.000794864 0)
(0.0996218 -0.00082857 0)
(0.0996289 -0.000863882 0)
(0.0996351 -0.000900581 0)
(0.0996407 -0.000938545 0)
(0.099646 -0.000977699 0)
(0.0996512 -0.00101799 0)
(0.0996565 -0.00105938 0)
(0.0996621 -0.00110183 0)
(0.0996681 -0.00114531 0)
(0.0996746 -0.00118978 0)
(0.0996818 -0.00123523 0)
(0.0996896 -0.00128161 0)
(0.0996983 -0.00132889 0)
(0.0997079 -0.00137704 0)
(0.0997184 -0.00142603 0)
(0.09973 -0.0014758 0)
(0.0997426 -0.00152633 0)
(0.0997564 -0.00157757 0)
(0.0997714 -0.00162947 0)
(0.0997877 -0.00168199 0)
(0.0998052 -0.00173508 0)
(0.0998241 -0.00178868 0)
(0.0998443 -0.00184275 0)
(0.0998659 -0.00189722 0)
(0.0998889 -0.00195205 0)
(0.0999134 -0.00200716 0)
(0.0999393 -0.00206251 0)
(0.0999668 -0.00211804 0)
(0.0999956 -0.00217367 0)
(0.100026 -0.00222935 0)
(0.100058 -0.00228502 0)
(0.100091 -0.00234061 0)
(0.100126 -0.00239606 0)
(0.100162 -0.0024513 0)
(0.1002 -0.00250626 0)
(0.100239 -0.00256088 0)
(0.10028 -0.00261509 0)
(0.100027 -1.49745e-05 0)
(0.0999874 -0.000165243 0)
(0.0999808 -0.000615063 0)
(0.0998819 -0.00121958 0)
(0.0997467 -0.00167004 0)
(0.0996135 -0.00180127 0)
(0.0995129 -0.00166021 0)
(0.0994588 -0.00139262 0)
(0.0994437 -0.00112549 0)
(0.0994535 -0.000922436 0)
(0.0994755 -0.000794768 0)
(0.099501 -0.000728288 0)
(0.0995251 -0.000703228 0)
(0.099546 -0.000703359 0)
(0.0995632 -0.000717953 0)
(0.099577 -0.00074076 0)
(0.0995881 -0.000768418 0)
(0.099597 -0.0007992 0)
(0.0996042 -0.000832232 0)
(0.0996101 -0.00086706 0)
(0.0996152 -0.000903441 0)
(0.0996198 -0.000941228 0)
(0.099624 -0.000980328 0)
(0.0996282 -0.00102068 0)
(0.0996324 -0.00106222 0)
(0.0996369 -0.00110491 0)
(0.0996418 -0.00114873 0)
(0.0996471 -0.00119362 0)
(0.0996531 -0.00123956 0)
(0.0996598 -0.00128651 0)
(0.0996674 -0.00133444 0)
(0.0996757 -0.00138331 0)
(0.0996851 -0.00143309 0)
(0.0996954 -0.00148374 0)
(0.0997069 -0.00153521 0)
(0.0997195 -0.00158747 0)
(0.0997333 -0.00164047 0)
(0.0997483 -0.00169415 0)
(0.0997646 -0.00174848 0)
(0.0997823 -0.0018034 0)
(0.0998013 -0.00185885 0)
(0.0998218 -0.00191479 0)
(0.0998437 -0.00197115 0)
(0.099867 -0.00202787 0)
(0.0998918 -0.0020849 0)
(0.0999182 -0.00214218 0)
(0.099946 -0.00219964 0)
(0.0999754 -0.00225721 0)
(0.100006 -0.00231484 0)
(0.100039 -0.00237245 0)
(0.100073 -0.00242999 0)
(0.100108 -0.00248737 0)
(0.100145 -0.00254454 0)
(0.100184 -0.00260142 0)
(0.100224 -0.00265794 0)
(0.100027 -1.59368e-05 0)
(0.0999869 -0.000160584 0)
(0.0999835 -0.000593091 0)
(0.0998912 -0.00117768 0)
(0.0997632 -0.00161886 0)
(0.0996343 -0.00175532 0)
(0.0995338 -0.00162881 0)
(0.0994762 -0.0013775 0)
(0.0994558 -0.00112327 0)
(0.09946 -0.000928144 0)
(0.0994769 -0.000804138 0)
(0.0994981 -0.0007385 0)
(0.0995188 -0.000712778 0)
(0.099537 -0.000711636 0)
(0.0995521 -0.000724843 0)
(0.0995642 -0.000746382 0)
(0.0995737 -0.000772976 0)
(0.0995812 -0.000802909 0)
(0.0995872 -0.000835292 0)
(0.0995919 -0.000869648 0)
(0.0995959 -0.00090571 0)
(0.0995993 -0.000943312 0)
(0.0996024 -0.000982345 0)
(0.0996054 -0.00102273 0)
(0.0996085 -0.00106441 0)
(0.0996118 -0.00110733 0)
(0.0996155 -0.00115145 0)
(0.0996197 -0.00119674 0)
(0.0996245 -0.00124315 0)
(0.09963 -0.00129065 0)
(0.0996362 -0.0013392 0)
(0.0996434 -0.00138878 0)
(0.0996514 -0.00143933 0)
(0.0996605 -0.00149082 0)
(0.0996707 -0.00154322 0)
(0.099682 -0.00159648 0)
(0.0996945 -0.00165054 0)
(0.0997083 -0.00170538 0)
(0.0997233 -0.00176093 0)
(0.0997397 -0.00181715 0)
(0.0997575 -0.00187399 0)
(0.0997766 -0.00193138 0)
(0.0997973 -0.00198927 0)
(0.0998194 -0.00204761 0)
(0.099843 -0.00210632 0)
(0.0998682 -0.00216536 0)
(0.0998949 -0.00222465 0)
(0.0999232 -0.00228413 0)
(0.099953 -0.00234373 0)
(0.0999844 -0.00240339 0)
(0.100017 -0.00246304 0)
(0.100052 -0.00252261 0)
(0.100088 -0.00258202 0)
(0.100126 -0.0026412 0)
(0.100165 -0.00270007 0)
(0.100027 -1.67657e-05 0)
(0.0999863 -0.000156453 0)
(0.099986 -0.000572936 0)
(0.0999001 -0.00113847 0)
(0.0997795 -0.00156999 0)
(0.0996554 -0.00171033 0)
(0.0995554 -0.00159683 0)
(0.0994949 -0.00136065 0)
(0.0994695 -0.00111877 0)
(0.0994682 -0.00093153 0)
(0.0994799 -0.00081142 0)
(0.0994967 -0.000746958 0)
(0.0995139 -0.000720898 0)
(0.0995292 -0.000718747 0)
(0.099542 -0.000730765 0)
(0.0995521 -0.000751175 0)
(0.09956 -0.000776795 0)
(0.0995661 -0.000805936 0)
(0.0995707 -0.000837702 0)
(0.0995741 -0.000871601 0)
(0.0995769 -0.000907347 0)
(0.099579 -0.000944759 0)
(0.099581 -0.000983714 0)
(0.0995828 -0.00102412 0)
(0.0995846 -0.00106592 0)
(0.0995868 -0.00110905 0)
(0.0995892 -0.00115346 0)
(0.0995922 -0.00119911 0)
(0.0995957 -0.00124597 0)
(0.0995999 -0.00129399 0)
(0.0996048 -0.00134314 0)
(0.0996107 -0.00139338 0)
(0.0996174 -0.00144469 0)
(0.0996252 -0.001497 0)
(0.099634 -0.0015503 0)
(0.0996439 -0.00160453 0)
(0.0996551 -0.00165965 0)
(0.0996674 -0.00171562 0)
(0.0996811 -0.00177238 0)
(0.0996961 -0.00182989 0)
(0.0997125 -0.00188809 0)
(0.0997304 -0.00194692 0)
(0.0997497 -0.00200634 0)
(0.0997705 -0.00206628 0)
(0.0997928 -0.00212668 0)
(0.0998167 -0.00218747 0)
(0.0998421 -0.0022486 0)
(0.0998692 -0.00231 0)
(0.0998978 -0.00237159 0)
(0.0999281 -0.00243332 0)
(0.0999599 -0.0024951 0)
(0.0999934 -0.00255688 0)
(0.100029 -0.00261856 0)
(0.100065 -0.00268009 0)
(0.100104 -0.00274137 0)
(0.100027 -1.74636e-05 0)
(0.0999857 -0.000152784 0)
(0.0999881 -0.000554483 0)
(0.0999082 -0.00110186 0)
(0.0997948 -0.00152348 0)
(0.0996755 -0.00166647 0)
(0.0995765 -0.00156447 0)
(0.0995137 -0.00134226 0)
(0.0994838 -0.00111213 0)
(0.0994772 -0.000932656 0)
(0.0994839 -0.00081662 0)
(0.0994963 -0.00075363 0)
(0.0995099 -0.000727535 0)
(0.0995223 -0.000724634 0)
(0.0995326 -0.00073566 0)
(0.0995407 -0.00075508 0)
(0.0995469 -0.000779821 0)
(0.0995514 -0.000808232 0)
(0.0995545 -0.000839418 0)
(0.0995567 -0.000872879 0)
(0.0995581 -0.000908315 0)
(0.099559 -0.000945533 0)
(0.0995596 -0.0009844 0)
(0.0995602 -0.00102482 0)
(0.0995608 -0.00106671 0)
(0.0995616 -0.00111002 0)
(0.0995628 -0.0011547 0)
(0.0995644 -0.00120069 0)
(0.0995666 -0.00124797 0)
(0.0995695 -0.00129648 0)
(0.0995731 -0.00134621 0)
(0.0995775 -0.0013971 0)
(0.0995829 -0.00144912 0)
(0.0995892 -0.00150223 0)
(0.0995966 -0.0015564 0)
(0.0996051 -0.00161158 0)
(0.0996148 -0.00166773 0)
(0.0996257 -0.00172481 0)
(0.099638 -0.00178275 0)
(0.0996515 -0.00184153 0)
(0.0996665 -0.00190108 0)
(0.0996829 -0.00196134 0)
(0.0997007 -0.00202227 0)
(0.0997201 -0.00208381 0)
(0.099741 -0.00214588 0)
(0.0997635 -0.00220844 0)
(0.0997876 -0.00227141 0)
(0.0998133 -0.00233472 0)
(0.0998407 -0.00239832 0)
(0.0998697 -0.00246213 0)
(0.0999003 -0.00252607 0)
(0.0999326 -0.00259007 0)
(0.0999666 -0.00265407 0)
(0.100002 -0.00271797 0)
(0.10004 -0.00278169 0)
(0.100027 -1.80376e-05 0)
(0.0999852 -0.000149491 0)
(0.0999897 -0.000537548 0)
(0.0999153 -0.00106768 0)
(0.0998084 -0.00147925 0)
(0.099694 -0.00162381 0)
(0.0995964 -0.00153192 0)
(0.0995317 -0.00132255 0)
(0.0994978 -0.00110353 0)
(0.0994864 -0.000931652 0)
(0.0994884 -0.000819805 0)
(0.0994966 -0.000758535 0)
(0.0995066 -0.000732676 0)
(0.099516 -0.000729263 0)
(0.0995238 -0.000739484 0)
(0.0995299 -0.000758053 0)
(0.0995342 -0.000782012 0)
(0.099537 -0.000809755 0)
(0.0995386 -0.0008404 0)
(0.0995394 -0.000873444 0)
(0.0995394 -0.000908578 0)
(0.099539 -0.0009456 0)
(0.0995383 -0.00098437 0)
(0.0995375 -0.00102478 0)
(0.0995368 -0.00106676 0)
(0.0995363 -0.00111023 0)
(0.0995361 -0.00115514 0)
(0.0995364 -0.00120145 0)
(0.0995372 -0.00124912 0)
(0.0995387 -0.0012981 0)
(0.0995409 -0.00134837 0)
(0.0995439 -0.00139987 0)
(0.0995478 -0.00145258 0)
(0.0995526 -0.00150647 0)
(0.0995585 -0.00156148 0)
(0.0995656 -0.00161758 0)
(0.0995737 -0.00167473 0)
(0.0995831 -0.00173288 0)
(0.0995938 -0.00179199 0)
(0.0996058 -0.00185201 0)
(0.0996193 -0.00191289 0)
(0.0996341 -0.00197457 0)
(0.0996505 -0.00203699 0)
(0.0996683 -0.0021001 0)
(0.0996877 -0.00216385 0)
(0.0997087 -0.00222815 0)
(0.0997313 -0.00229296 0)
(0.0997556 -0.0023582 0)
(0.0997815 -0.0024238 0)
(0.0998091 -0.0024897 0)
(0.0998384 -0.00255581 0)
(0.0998694 -0.00262207 0)
(0.0999021 -0.0026884 0)
(0.0999366 -0.00275471 0)
(0.0999727 -0.00282092 0)
(0.100027 -1.84979e-05 0)
(0.0999847 -0.000146487 0)
(0.099991 -0.000521914 0)
(0.0999211 -0.00103567 0)
(0.0998203 -0.00143716 0)
(0.0997104 -0.00158238 0)
(0.0996145 -0.00149936 0)
(0.0995484 -0.00130175 0)
(0.0995111 -0.00109321 0)
(0.0994954 -0.000928689 0)
(0.099493 -0.000821086 0)
(0.0994972 -0.000761729 0)
(0.0995037 -0.000736337 0)
(0.0995101 -0.000732625 0)
(0.0995155 -0.000742215 0)
(0.0995193 -0.000760063 0)
(0.0995218 -0.000783333 0)
(0.0995229 -0.000810471 0)
(0.099523 -0.000840615 0)
(0.0995222 -0.000873264 0)
(0.0995208 -0.000908105 0)
(0.099519 -0.000944931 0)
(0.0995169 -0.000983595 0)
(0.0995148 -0.00102399 0)
(0.0995127 -0.00106602 0)
(0.0995109 -0.00110963 0)
(0.0995093 -0.00115476 0)
(0.0995081 -0.00120136 0)
(0.0995075 -0.00124939 0)
(0.0995075 -0.00129881 0)
(0.0995082 -0.00134958 0)
(0.0995098 -0.00140167 0)
(0.0995121 -0.00145504 0)
(0.0995155 -0.00150965 0)
(0.0995198 -0.00156547 0)
(0.0995252 -0.00162247 0)
(0.0995318 -0.00168058 0)
(0.0995396 -0.00173979 0)
(0.0995487 -0.00180003 0)
(0.0995591 -0.00186127 0)
(0.0995709 -0.00192344 0)
(0.0995841 -0.00198651 0)
(0.0995988 -0.00205041 0)
(0.099615 -0.00211509 0)
(0.0996328 -0.00218048 0)
(0.0996522 -0.00224653 0)
(0.0996732 -0.00231316 0)
(0.0996959 -0.00238032 0)
(0.0997203 -0.00244793 0)
(0.0997464 -0.00251592 0)
(0.0997743 -0.00258422 0)
(0.0998038 -0.00265275 0)
(0.0998352 -0.00272143 0)
(0.0998683 -0.00279018 0)
(0.0999031 -0.00285891 0)
(0.100027 -1.88558e-05 0)
(0.0999842 -0.000143692 0)
(0.0999918 -0.00050736 0)
(0.0999259 -0.00100555 0)
(0.0998304 -0.00139701 0)
(0.0997247 -0.00154216 0)
(0.0996305 -0.00146691 0)
(0.0995635 -0.00128008 0)
(0.0995234 -0.00108138 0)
(0.0995039 -0.000923957 0)
(0.0994975 -0.000820595 0)
(0.0994979 -0.000763292 0)
(0.099501 -0.000738555 0)
(0.0995046 -0.000734728 0)
(0.0995074 -0.000743842 0)
(0.0995091 -0.000761091 0)
(0.0995096 -0.00078376 0)
(0.099509 -0.000810354 0)
(0.0995075 -0.000840036 0)
(0.0995052 -0.000872311 0)
(0.0995023 -0.000906869 0)
(0.099499 -0.000943498 0)
(0.0994956 -0.000982047 0)
(0.099492 -0.0010224 0)
(0.0994885 -0.00106448 0)
(0.0994852 -0.00110821 0)
(0.0994822 -0.00115352 0)
(0.0994796 -0.00120038 0)
(0.0994775 -0.00124874 0)
(0.099476 -0.00129856 0)
(0.0994752 -0.00134981 0)
(0.0994751 -0.00140244 0)
(0.0994759 -0.00145644 0)
(0.0994776 -0.00151175 0)
(0.0994804 -0.00156835 0)
(0.0994841 -0.00162619 0)
(0.0994891 -0.00168524 0)
(0.0994952 -0.00174546 0)
(0.0995026 -0.00180681 0)
(0.0995112 -0.00186923 0)
(0.0995213 -0.00193267 0)
(0.0995328 -0.0019971 0)
(0.0995458 -0.00206245 0)
(0.0995603 -0.00212867 0)
(0.0995764 -0.00219569 0)
(0.0995941 -0.00226346 0)
(0.0996134 -0.00233191 0)
(0.0996344 -0.00240098 0)
(0.0996571 -0.0024706 0)
(0.0996816 -0.00254068 0)
(0.0997078 -0.00261117 0)
(0.0997359 -0.00268198 0)
(0.0997657 -0.00275303 0)
(0.0997973 -0.00282424 0)
(0.0998307 -0.00289552 0)
(0.100027 -1.91237e-05 0)
(0.0999837 -0.00014104 0)
(0.0999924 -0.000493686 0)
(0.0999298 -0.000977045 0)
(0.0998388 -0.00135859 0)
(0.099737 -0.00150309 0)
(0.0996446 -0.00143467 0)
(0.099577 -0.00125774 0)
(0.0995346 -0.00106826 0)
(0.0995117 -0.000917644 0)
(0.0995017 -0.000818475 0)
(0.0994986 -0.000763315 0)
(0.0994985 -0.000739381 0)
(0.0994992 -0.000735593 0)
(0.0994996 -0.000744368 0)
(0.0994992 -0.000761124 0)
(0.0994977 -0.000783273 0)
(0.0994953 -0.000809381 0)
(0.0994921 -0.000838638 0)
(0.0994882 -0.000870562 0)
(0.0994839 -0.000904845 0)
(0.0994791 -0.000941276 0)
(0.0994742 -0.000979702 0)
(0.0994692 -0.00102001 0)
(0.0994642 -0.00106211 0)
(0.0994594 -0.00110592 0)
(0.0994549 -0.0011514 0)
(0.0994508 -0.00119849 0)
(0.0994472 -0.00124715 0)
(0.0994441 -0.00129733 0)
(0.0994417 -0.00134902 0)
(0.0994401 -0.00140216 0)
(0.0994392 -0.00145674 0)
(0.0994393 -0.00151271 0)
(0.0994403 -0.00157004 0)
(0.0994424 -0.0016287 0)
(0.0994456 -0.00168865 0)
(0.0994499 -0.00174985 0)
(0.0994555 -0.00181225 0)
(0.0994624 -0.00187582 0)
(0.0994707 -0.00194051 0)
(0.0994803 -0.00200626 0)
(0.0994915 -0.00207303 0)
(0.0995042 -0.00214076 0)
(0.0995184 -0.00220939 0)
(0.0995343 -0.00227886 0)
(0.0995518 -0.00234911 0)
(0.099571 -0.00242007 0)
(0.099592 -0.00249168 0)
(0.0996147 -0.00256386 0)
(0.0996392 -0.00263653 0)
(0.0996655 -0.00270963 0)
(0.0996937 -0.00278306 0)
(0.0997237 -0.00285675 0)
(0.0997555 -0.00293061 0)
(0.100027 -1.93129e-05 0)
(0.0999834 -0.000138478 0)
(0.0999928 -0.000480718 0)
(0.0999328 -0.000949909 0)
(0.0998457 -0.00132171 0)
(0.0997474 -0.0014651 0)
(0.0996568 -0.00140271 0)
(0.0995889 -0.00123487 0)
(0.0995446 -0.00105405 0)
(0.0995188 -0.000909929 0)
(0.0995055 -0.000814864 0)
(0.0994991 -0.000761894 0)
(0.0994961 -0.000738873 0)
(0.0994941 -0.00073525 0)
(0.099492 -0.000743801 0)
(0.0994894 -0.000760162 0)
(0.099486 -0.000781864 0)
(0.0994818 -0.000807537 0)
(0.0994769 -0.000836404 0)
(0.0994714 -0.000867996 0)
(0.0994655 -0.000902012 0)
(0.0994592 -0.000938243 0)
(0.0994528 -0.000976537 0)
(0.0994463 -0.00101678 0)
(0.0994398 -0.00105887 0)
(0.0994335 -0.00110276 0)
(0.0994275 -0.00114836 0)
(0.0994218 -0.00119565 0)
(0.0994166 -0.00124457 0)
(0.099412 -0.00129509 0)
(0.0994079 -0.00134717 0)
(0.0994046 -0.00140079 0)
(0.0994021 -0.00145591 0)
(0.0994004 -0.0015125 0)
(0.0993997 -0.00157052 0)
(0.0993999 -0.00162995 0)
(0.0994013 -0.00169075 0)
(0.0994038 -0.00175289 0)
(0.0994076 -0.00181631 0)
(0.0994126 -0.00188099 0)
(0.099419 -0.00194687 0)
(0.0994267 -0.00201391 0)
(0.099436 -0.00208207 0)
(0.0994467 -0.00215127 0)
(0.099459 -0.00222148 0)
(0.0994729 -0.00229262 0)
(0.0994885 -0.00236465 0)
(0.0995058 -0.00243749 0)
(0.0995249 -0.00251107 0)
(0.0995457 -0.00258532 0)
(0.0995683 -0.00266018 0)
(0.0995928 -0.00273556 0)
(0.0996192 -0.00281138 0)
(0.0996474 -0.00288756 0)
(0.0996776 -0.002964 0)
(0.100027 -1.94341e-05 0)
(0.099983 -0.000135968 0)
(0.099993 -0.000468316 0)
(0.0999352 -0.000923928 0)
(0.0998515 -0.00128617 0)
(0.0997563 -0.0014281 0)
(0.0996673 -0.00137107 0)
(0.0995994 -0.00121161 0)
(0.0995535 -0.0010389 0)
(0.0995252 -0.000900968 0)
(0.0995089 -0.000809892 0)
(0.0994995 -0.000759124 0)
(0.0994936 -0.000737094 0)
(0.099489 -0.000733736 0)
(0.0994846 -0.000742159 0)
(0.0994798 -0.000758206 0)
(0.0994745 -0.000779526 0)
(0.0994684 -0.000804812 0)
(0.0994618 -0.000833319 0)
(0.0994547 -0.000864597 0)
(0.0994472 -0.000898353 0)
(0.0994394 -0.000934382 0)
(0.0994314 -0.000972532 0)
(0.0994234 -0.00101269 0)
(0.0994154 -0.00105476 0)
(0.0994075 -0.00109868 0)
(0.0994 -0.00114439 0)
(0.0993927 -0.00119184 0)
(0.0993859 -0.00124099 0)
(0.0993795 -0.0012918 0)
(0.0993738 -0.00134424 0)
(0.0993688 -0.00139829 0)
(0.0993645 -0.0014539 0)
(0.099361 -0.00151106 0)
(0.0993585 -0.00156974 0)
(0.0993569 -0.00162989 0)
(0.0993564 -0.0016915 0)
(0.099357 -0.00175452 0)
(0.0993588 -0.00181892 0)
(0.0993619 -0.00188466 0)
(0.0993663 -0.0019517 0)
(0.099372 -0.00201998 0)
(0.0993792 -0.00208948 0)
(0.0993879 -0.00216012 0)
(0.0993982 -0.00223187 0)
(0.0994101 -0.00230465 0)
(0.0994236 -0.00237842 0)
(0.0994389 -0.0024531 0)
(0.0994559 -0.00252863 0)
(0.0994747 -0.00260495 0)
(0.0994953 -0.00268197 0)
(0.0995178 -0.00275963 0)
(0.0995422 -0.00283783 0)
(0.0995685 -0.0029165 0)
(0.0995968 -0.00299554 0)
(0.100027 -1.94963e-05 0)
(0.0999827 -0.000133484 0)
(0.099993 -0.000456368 0)
(0.0999371 -0.000898924 0)
(0.0998563 -0.0012518 0)
(0.0997639 -0.001392 0)
(0.0996765 -0.00133975 0)
(0.0996086 -0.00118805 0)
(0.0995614 -0.00102295 0)
(0.0995309 -0.000890897 0)
(0.0995119 -0.000803676 0)
(0.0994997 -0.000755095 0)
(0.0994911 -0.000734105 0)
(0.099484 -0.000731087 0)
(0.0994773 -0.000739462 0)
(0.0994704 -0.000755265 0)
(0.0994631 -0.000776259 0)
(0.0994552 -0.000801198 0)
(0.0994469 -0.000829373 0)
(0.0994381 -0.000860353 0)
(0.099429 -0.000893853 0)
(0.0994196 -0.000929675 0)
(0.0994101 -0.00096767 0)
(0.0994005 -0.00100773 0)
(0.0993909 -0.00104975 0)
(0.0993815 -0.00109368 0)
(0.0993723 -0.00113946 0)
(0.0993634 -0.00118704 0)
(0.0993549 -0.00123637 0)
(0.0993469 -0.00128743 0)
(0.0993394 -0.00134019 0)
(0.0993326 -0.00139462 0)
(0.0993265 -0.00145069 0)
(0.0993212 -0.00150837 0)
(0.0993168 -0.00156764 0)
(0.0993133 -0.00162847 0)
(0.0993109 -0.00169083 0)
(0.0993095 -0.00175469 0)
(0.0993093 -0.00182001 0)
(0.0993103 -0.00188676 0)
(0.0993126 -0.0019549 0)
(0.0993163 -0.00202439 0)
(0.0993213 -0.00209518 0)
(0.0993279 -0.00216721 0)
(0.099336 -0.00224045 0)
(0.0993458 -0.00231484 0)
(0.0993571 -0.00239031 0)
(0.0993702 -0.0024668 0)
(0.099385 -0.00254426 0)
(0.0994017 -0.00262261 0)
(0.0994202 -0.00270177 0)
(0.0994405 -0.00278169 0)
(0.0994628 -0.00286226 0)
(0.0994871 -0.00294341 0)
(0.0995133 -0.00302505 0)
(0.100027 -1.95071e-05 0)
(0.0999824 -0.000131008 0)
(0.0999931 -0.000444791 0)
(0.0999386 -0.000874753 0)
(0.0998604 -0.00121846 0)
(0.0997704 -0.00135672 0)
(0.0996845 -0.00130876 0)
(0.0996167 -0.00116425 0)
(0.0995684 -0.0010063 0)
(0.0995358 -0.000879833 0)
(0.0995144 -0.000796319 0)
(0.0994997 -0.000749888 0)
(0.0994885 -0.000729965 0)
(0.099479 -0.000727342 0)
(0.0994701 -0.000735731 0)
(0.0994611 -0.00075135 0)
(0.0994519 -0.000772064 0)
(0.0994422 -0.000796693 0)
(0.0994321 -0.000824559 0)
(0.0994217 -0.000855252 0)
(0.0994109 -0.000888499 0)
(0.0993999 -0.000924108 0)
(0.0993888 -0.000961935 0)
(0.0993776 -0.00100187 0)
(0.0993665 -0.00104383 0)
(0.0993554 -0.00108774 0)
(0.0993446 -0.00113355 0)
(0.099334 -0.00118121 0)
(0.0993238 -0.0012307 0)
(0.0993141 -0.00128197 0)
(0.0993049 -0.00133499 0)
(0.0992962 -0.00138975 0)
(0.0992883 -0.00144622 0)
(0.0992811 -0.00150437 0)
(0.0992747 -0.00156419 0)
(0.0992693 -0.00162564 0)
(0.0992648 -0.0016887 0)
(0.0992613 -0.00175334 0)
(0.099259 -0.00181953 0)