/*--------------------------------*- C++ -*----------------------------------*\
| =========                 |                                                 |
| \\      /  F ield         | OpenFOAM: The Open Source CFD Toolbox           |
|  \\    /   O peration     | Version:  2412                                  |
|   \\  /    A nd           | Website:  www.openfoam.com                      |
|    \\/     M anipulation  |                                                 |
\*---------------------------------------------------------------------------*/
FoamFile
{
    version     2.0;
    format      ascii;
    arch        "LSB;label=32;scalar=64";
    class       volVectorField;
    location    "27.5";
    object      vorticity;
}
// * * * * * * * * * * * * * * * * * * * * * * * * * * * * * * * * * * * * * //

dimensions      [0 0 -1 0 0 0 0];

internalField   nonuniform List<vector> 
5285
(
(2.31385e-21 -6.45278e-20 -5.11162e-05)
(-1.81182e-21 7.5979e-21 -5.90498e-05)
(-1.82802e-22 -7.09125e-21 -6.7796e-05)
(6.8983e-23 7.09418e-21 -7.74601e-05)
(-3.0692e-24 -1.25534e-22 -8.81263e-05)
(-6.39285e-23 -6.84089e-21 -9.99094e-05)
(-1.96419e-21 6.89792e-21 -0.00011294)
(4.10433e-21 1.26186e-23 -0.00012737)
(1.19544e-21 6.69409e-21 -0.000143374)
(-3.19792e-21 -5.19088e-24 -0.000161158)
(4.59911e-21 7.76353e-21 -0.000180967)
(-5.41689e-21 1.00776e-19 -0.000203096)
(6.93131e-22 -1.08208e-19 -0.000227913)
(-2.10321e-21 9.87732e-20 -0.000255891)
(2.04937e-21 -9.98879e-20 -0.00028767)
(4.73309e-23 1.3088e-21 -0.00032416)
(-6.15398e-23 -1.60507e-21 -0.000366732)
(2.7379e-21 -9.43651e-20 -0.000417558)
(-8.46055e-21 9.157e-20 -0.000480212)
(-3.04767e-22 -1.5087e-21 -0.00056072)
(6.04132e-21 1.3213e-23 -0.000669343)
(6.55991e-21 1.43472e-23 -0.000823499)
(-6.53892e-21 -1.43013e-23 -0.00105237)
(-2.16544e-22 -4.73604e-25 -0.00140375)
(-2.25599e-22 -4.93408e-25 -0.00195367)
(-7.75429e-21 -1.69594e-23 -0.00281869)
(7.48502e-21 1.63705e-23 -0.00416983)
(-2.4682e-22 1.46713e-22 -0.0062452)
(-3.49571e-23 7.5867e-21 -0.00935613)
(-2.39098e-20 4.90298e-20 -0.0138787)
(2.30304e-20 -6.4626e-20 -0.020219)
(-5.40382e-21 -9.12828e-21 -0.0287399)
(5.93853e-21 2.50537e-20 -0.0396442)
(-1.97009e-20 -5.49982e-21 -0.0527383)
(1.67627e-21 -2.23178e-19 -0.000160184)
(-5.54714e-21 2.39155e-19 -0.000184914)
(-2.98727e-22 1.93708e-20 -0.000212251)
(-3.74368e-21 -7.24976e-21 -0.000242432)
(3.95947e-21 1.41654e-22 -0.000275784)
(-3.9746e-21 8.98696e-21 -0.000312674)
(8.89037e-22 2.07491e-19 -0.000353518)
(6.00248e-21 -4.39202e-19 -0.000398797)
(4.53274e-21 -2.09726e-19 -0.000449073)
(-7.08065e-21 4.24622e-19 -0.000505)
(3.8271e-21 -4.2314e-19 -0.000567359)
(-2.20209e-21 4.34134e-19 -0.000637089)
(3.20427e-21 1.46233e-21 -0.000715353)
(-3.63226e-21 -9.51875e-23 -0.000803642)
(-1.22021e-21 -2.66873e-24 -0.000903958)
(0 -0 -0.00101913)
(1.80242e-22 9.35171e-23 -0.00115338)
(1.07662e-20 1.2087e-20 -0.00131338)
(-1.57761e-20 3.53251e-19 -0.00151004)
(-1.53811e-20 -2.3908e-20 -0.00176173)
(1.85502e-20 -3.48193e-19 -0.00209965)
(2.6329e-20 -3.00468e-19 -0.00257674)
(-9.60354e-21 3.20949e-19 -0.00328158)
(-3.03362e-20 2.13116e-21 -0.00435918)
(2.9556e-20 1.68673e-20 -0.00603996)
(-4.13776e-20 2.28089e-19 -0.0086768)
(2.25565e-20 -2.37247e-19 -0.0127869)
(-1.74759e-20 1.42468e-20 -0.0190899)
(1.9355e-20 7.47498e-21 -0.0285258)
(-5.81393e-20 1.09716e-19 -0.0422295)
(5.80575e-20 -1.074e-19 -0.0614228)
(-8.88235e-20 7.99918e-20 -0.0871773)
(8.57152e-20 -8.93529e-20 -0.120032)
(-1.82029e-20 -6.10721e-22 -0.158075)
(-4.72645e-21 -1.18935e-20 -0.000290011)
(-4.92396e-21 4.62532e-19 -0.000334482)
(4.09374e-22 -1.40366e-20 -0.000383663)
(-1.2483e-20 4.48937e-19 -0.000438077)
(1.24156e-20 -4.66219e-19 -0.000498322)
(-9.36791e-21 4.45037e-19 -0.000565089)
(2.71533e-21 -4.62867e-19 -0.000639162)
(5.14973e-21 -9.25844e-21 -0.00072145)
(-2.56501e-21 1.35577e-20 -0.000813006)
(5.46376e-21 -8.75877e-21 -0.000915066)
(-1.90041e-20 4.1669e-19 -0.00102909)
(1.71428e-20 -4.44047e-19 -0.00115683)
(1.86761e-20 -4.12408e-19 -0.00130044)
(-1.5403e-20 4.14251e-19 -0.00146266)
(-1.06491e-21 -5.08461e-21 -0.0016471)
(1.10157e-20 -1.19192e-22 -0.00185882)
(-1.25808e-20 -2.43753e-20 -0.00210526)
(5.36651e-20 -7.51403e-19 -0.00239801)
(1.63247e-20 5.57966e-20 -0.00275592)
(-7.02795e-20 7.07205e-19 -0.00321047)
(3.87938e-21 -1.21168e-20 -0.00381501)
(-1.12417e-20 -4.73488e-21 -0.00465985)
(1.09497e-19 -5.92119e-19 -0.00589591)
(-2.0376e-19 1.16242e-18 -0.00776993)
(2.0767e-19 -1.15397e-18 -0.0106735)
(6.95208e-20 8.37591e-20 -0.0152054)
(-1.55055e-19 5.04534e-19 -0.0222424)
(-1.6212e-19 3.47379e-19 -0.0330034)
(1.5329e-19 -4.11856e-19 -0.0490821)
(-2.16512e-20 1.89872e-20 -0.0724051)
(5.34859e-20 -1.68801e-20 -0.105046)
(1.60065e-19 -9.92818e-20 -0.148779)
(-1.73336e-19 1.55213e-19 -0.20431)
(-2.4783e-20 -3.98932e-20 -0.264034)
(-1.01939e-20 4.76327e-19 -0.000456342)
(-7.00377e-22 -3.71014e-21 -0.000525587)
(4.44163e-21 3.8567e-21 -0.00060236)
(-7.98728e-21 4.39041e-19 -0.000687518)
(-1.43766e-21 -4.61031e-19 -0.000782051)
(1.45846e-20 1.25687e-20 -0.000887106)
(-3.42504e-20 8.84682e-19 -0.00100399)
(2.62016e-20 -8.87521e-19 -0.00113421)
(2.25529e-21 -5.34393e-21 -0.00127952)
(-9.61362e-21 -8.9766e-23 -0.00144197)
(1.46449e-20 -1.34035e-20 -0.00162398)
(-4.75287e-21 1.21882e-22 -0.00182842)
(-5.21344e-21 -6.43304e-23 -0.00205882)
(4.96955e-21 1.93094e-22 -0.00231957)
(-3.7014e-21 1.46441e-21 -0.00261639)
(6.40366e-20 -7.81759e-19 -0.0029571)
(-5.81988e-20 8.03937e-19 -0.00335301)
(-1.5869e-20 2.28975e-22 -0.00382138)
(1.85071e-20 -1.02258e-20 -0.00438986)
(-9.95365e-20 7.16113e-19 -0.00510425)
(1.15738e-19 -7.19236e-19 -0.00604166)
(-2.23149e-20 2.16166e-21 -0.00733228)
(1.57772e-20 -9.20788e-23 -0.00919335)
(3.75002e-20 6.27933e-21 -0.0119798)
(-2.45385e-19 5.35188e-19 -0.0162543)
(3.64735e-19 -1.08434e-18 -0.0228773)
(-1.78033e-19 5.49169e-19 -0.0331085)
(2.56828e-19 -4.19356e-19 -0.0487037)
(-2.48735e-19 4.9396e-19 -0.0719716)
(-5.76475e-19 5.08363e-19 -0.105734)
(1.0873e-18 -1.07705e-18 -0.153076)
(-5.31671e-19 5.43696e-19 -0.216631)
(1.83704e-20 -2.08322e-21 -0.297082)
(4.41424e-21 -3.42402e-20 -0.373758)
(4.11142e-21 3.65829e-21 -0.000677472)
(-5.77399e-21 4.49906e-19 -0.000779051)
(2.05426e-20 -4.86804e-19 -0.000892004)
(6.22797e-21 2.66332e-20 -0.00101769)
(-4.64174e-20 9.27051e-19 -0.00115767)
(2.99936e-20 -9.29576e-19 -0.00131376)
(1.00073e-20 2.23861e-20 -0.00148804)
(-1.77822e-20 -2.29832e-22 -0.00168289)
(1.16359e-20 9.49693e-21 -0.00190112)
(-3.99821e-20 8.89738e-19 -0.00214596)
(3.32462e-20 -8.81287e-19 -0.00242124)
(2.79586e-21 9.48203e-21 -0.00273151)
(9.3411e-21 2.69802e-20 -0.00308225)
(-1.13378e-20 -5.4153e-22 -0.00348021)
(1.19194e-21 -1.28924e-20 -0.00393403)
(-3.67877e-20 1.30846e-20 -0.00445521)
(3.45384e-20 1.24591e-20 -0.00505989)
(-3.0233e-21 -2.49002e-20 -0.00577211)
(8.39355e-20 -7.30087e-19 -0.00662952)
(-7.52094e-20 7.52573e-19 -0.00769353)
(2.71171e-19 -1.44613e-18 -0.00906661)
(-2.49168e-19 1.46014e-18 -0.0109209)
(3.0723e-19 -1.36414e-18 -0.0135433)
(6.99536e-20 1.30839e-19 -0.0174027)
(-3.52301e-19 1.29854e-18 -0.0232433)
(-1.18421e-19 -2.17572e-20 -0.0322052)
(1.61223e-20 3.80453e-22 -0.0459639)
(-1.79154e-20 5.50598e-22 -0.0668723)
(5.29534e-20 1.62623e-21 -0.098075)
(2.54183e-20 1.32552e-20 -0.143541)
(-1.10511e-19 5.00005e-21 -0.207865)
(6.29897e-20 4.84319e-21 -0.295331)
(-1.61104e-22 -3.02471e-22 -0.4071)
(3.52272e-20 6.20173e-22 -0.497174)
(-3.2673e-21 6.42879e-21 -0.000975018)
(3.92722e-20 -9.47356e-19 -0.00111935)
(3.08433e-20 -9.09229e-19 -0.00128038)
(6.54708e-21 2.11574e-20 -0.00146021)
(-2.80618e-20 9.44064e-19 -0.00166125)
(-1.98205e-20 -7.9554e-21 -0.0018863)
(1.2103e-20 8.81245e-21 -0.00213856)
(-5.21882e-20 9.13126e-19 -0.00242176)
(4.27741e-20 -9.27392e-19 -0.00274022)
(7.41748e-20 -8.90411e-19 -0.00309901)
(-7.53889e-20 9.1959e-19 -0.00350407)
(1.48423e-20 -1.97112e-20 -0.00396242)
(6.96504e-20 -8.86596e-19 -0.00448246)
(-9.69899e-20 9.09121e-19 -0.00507445)
(4.30715e-21 1.21457e-20 -0.00575117)
(-2.10617e-19 1.66283e-18 -0.0065292)
(1.91161e-19 -1.72499e-18 -0.00743106)
(4.76546e-20 6.1079e-20 -0.00848909)
(-2.70426e-19 1.57121e-18 -0.00975238)
(2.48584e-19 -1.63814e-18 -0.011299)
(-3.09991e-20 -3.19876e-21 -0.0132575)
(4.71481e-19 -1.47407e-18 -0.0158417)
(-4.41758e-19 1.52219e-18 -0.0194079)
(-6.48487e-20 -7.10932e-20 -0.0245389)
(6.72653e-19 -1.28305e-18 -0.0321645)
(-1.18438e-18 2.64414e-18 -0.0437167)
(-6.30942e-20 -1.53734e-19 -0.061317)
(-8.45091e-20 -1.20821e-19 -0.087982)
(7.58438e-19 -1.14746e-18 -0.127843)
(3.86569e-20 6.1636e-20 -0.186397)
(-8.48283e-19 7.56788e-19 -0.270798)
(8.31557e-19 -8.3264e-19 -0.38966)
(8.61346e-21 2.83713e-20 -0.549174)
(9.01972e-21 -2.64212e-21 -0.658259)
(-1.62249e-21 -2.02281e-20 -0.00132528)
(2.88003e-20 -9.85384e-19 -0.0015142)
(-5.29975e-21 -7.71225e-21 -0.00172471)
(-1.6846e-22 1.1755e-22 -0.00195941)
(1.12828e-20 8.31628e-21 -0.00222127)
(-5.45006e-20 9.46967e-19 -0.00251369)
(4.8853e-20 -9.6718e-19 -0.00284055)
(1.25967e-20 8.22222e-21 -0.00320626)
(-8.54984e-21 -1.48128e-20 -0.00361587)
(-6.08639e-21 9.76717e-21 -0.00407512)
(-7.62064e-20 9.12748e-19 -0.0045906)
(1.63523e-19 -1.86152e-18 -0.00516983)
(-7.77982e-20 9.70342e-19 -0.00582148)
(-1.96464e-19 1.79735e-18 -0.00655567)
(-3.03322e-20 -4.57294e-20 -0.00738445)
(2.25421e-21 -2.7031e-20 -0.00832278)
(-6.54014e-20 -5.39883e-20 -0.00939029)
(2.63671e-19 -1.79351e-18 -0.0106148)
(4.0178e-19 -1.6588e-18 -0.0120391)
(-3.59737e-19 1.74071e-18 -0.0137329)
(-3.33797e-20 -5.39987e-20 -0.0158161)
(4.74465e-19 -1.58293e-18 -0.0184968)
(-4.19788e-19 1.67624e-18 -0.0221365)
(-6.64822e-19 1.48674e-18 -0.0273502)
(5.6669e-19 -1.5699e-18 -0.0351547)
(7.67601e-20 -1.09438e-20 -0.0471692)
(8.56976e-19 -1.38253e-18 -0.065867)
(1.16144e-19 1.21564e-19 -0.0948719)
(-9.86902e-19 1.35221e-18 -0.139307)
(-1.5885e-20 -3.87295e-20 -0.206277)
(3.28794e-20 5.16553e-22 -0.306184)
(-3.29034e-20 1.5627e-20 -0.457486)
(-4.97566e-19 5.2013e-19 -0.69596)
(4.88739e-19 -5.29486e-19 -0.953603)
(-1.06313e-20 -3.14101e-21 0.00912533)
(-1.05399e-20 -1.68791e-22 0.00508349)
(9.87414e-21 9.67954e-21 0.00166967)
(-6.88038e-21 1.95715e-21 -0.0011776)
(7.40158e-21 -1.13893e-20 -0.00352849)
(6.8901e-23 3.51014e-21 -0.00545629)
(-1.73449e-22 -9.76864e-23 -0.00703011)
(-5.68845e-21 1.24412e-23 -0.00830994)
(5.53087e-21 -1.20966e-23 -0.0093449)
(-1.67395e-22 3.6611e-25 -0.010174)
(-1.62802e-22 3.56063e-25 -0.0108293)
(4.93153e-21 -1.07858e-23 -0.0113367)
(-4.94738e-21 1.08204e-23 -0.0117171)
(-4.56775e-21 9.99011e-24 -0.0119874)
(2.55084e-22 -1.1128e-21 -0.012161)
(6.33859e-21 1.62601e-21 -0.0122494)
(-2.04227e-21 6.56148e-22 -0.0122628)
(-8.13477e-23 -1.04716e-21 -0.0122099)
(-3.17338e-23 8.77509e-22 -0.0120982)
(-2.0748e-21 -9.83252e-21 -0.0119344)
(2.11795e-21 8.80313e-21 -0.0117241)
(-1.35783e-21 -1.23109e-20 -0.0114721)
(-1.52676e-20 2.51585e-20 0.0264595)
(2.99883e-20 -1.05465e-20 0.0144194)
(-2.40961e-20 -2.10826e-20 0.00416594)
(8.61982e-21 2.20939e-20 -0.00431298)
(-8.98403e-21 -2.16449e-20 -0.0112605)
(-1.26842e-20 6.12985e-21 -0.0169224)
(1.13202e-20 6.89097e-21 -0.0215218)
(1.30514e-20 1.7785e-20 -0.0252464)
(3.17695e-22 -2.95136e-20 -0.0282472)
(-2.29602e-20 6.87432e-21 -0.0306429)
(2.22787e-20 -5.13346e-21 -0.0325285)
(-4.79949e-21 -9.68688e-21 -0.0339801)
(-7.8483e-21 2.52317e-20 -0.0350605)
(-8.44306e-21 -3.65913e-22 -0.0358191)
(9.16321e-21 -1.57537e-20 -0.0362948)
(8.80465e-21 1.11629e-21 -0.0365219)
(-8.27578e-21 4.75836e-21 -0.0365297)
(-2.8902e-22 -8.23545e-22 -0.0363435)
(1.46457e-23 -1.30499e-22 -0.0359859)
(8.18113e-22 -1.78929e-24 -0.0354767)
(2.39068e-21 3.83096e-23 -0.0348323)
(-2.36824e-21 -3.52177e-21 -0.0340668)
(-1.36437e-20 -1.08813e-21 0.0410206)
(-1.3073e-20 -1.47679e-20 0.0210962)
(3.49814e-20 2.8725e-20 0.00398507)
(-4.33725e-20 -1.24477e-20 -0.00989862)
(1.78551e-20 1.21398e-20 -0.0210909)
(2.77897e-20 2.10035e-20 -0.0300958)
(-1.9058e-20 -6.01643e-20 -0.0373378)
(1.40913e-20 -2.12839e-20 -0.0431538)
(-3.26874e-20 3.88602e-20 -0.0478031)
(1.38367e-21 3.25847e-20 -0.0514879)
(3.07293e-20 -5.80212e-20 -0.0543624)
(-2.62884e-20 4.26394e-20 -0.0565486)
(7.20202e-21 -1.12609e-20 -0.0581486)
(-3.47583e-21 -9.88953e-21 -0.0592415)
(4.49571e-20 2.32054e-20 -0.0598879)
(-4.81959e-21 3.19833e-20 -0.0601423)
(-3.78583e-20 -3.60808e-20 -0.060051)
(1.1471e-20 -7.13898e-21 -0.0596541)
(-8.28452e-21 3.08667e-22 -0.0589877)
(4.79021e-22 -3.37197e-21 -0.058083)
(2.63013e-20 6.47152e-20 -0.0569664)
(-2.68756e-20 -5.30418e-20 -0.0556607)
(1.98529e-21 2.62494e-20 0.0501713)
(8.45514e-21 -5.36541e-20 0.0226188)
(-7.18751e-20 1.58452e-20 -0.00119951)
(1.19101e-19 8.18477e-20 -0.0199373)
(-3.15205e-20 -1.11121e-19 -0.0346578)
(-1.73503e-20 2.15513e-20 -0.0462663)
(2.46308e-21 2.03976e-20 -0.0554596)
(-1.51399e-20 -1.25855e-21 -0.0627507)
(-1.01895e-20 2.12026e-20 -0.0685073)
(6.48509e-20 -3.30574e-20 -0.0730093)
(-2.70998e-20 1.274e-20 -0.0764689)
(-1.36637e-20 6.02642e-22 -0.079048)
(1.97687e-20 1.0461e-20 -0.0808742)
(-6.31303e-20 -5.042e-20 -0.0820482)
(4.66139e-20 2.84965e-20 -0.0826517)
(-1.14638e-20 1.22946e-20 -0.0827541)
(1.03241e-20 -9.09522e-21 -0.0824143)
(6.10646e-20 1.07969e-19 -0.0816841)
(-6.5882e-20 -9.06591e-20 -0.0806094)
(1.08533e-21 -1.06771e-20 -0.0792304)
(-3.23799e-21 -1.0648e-22 -0.0775831)
(3.26228e-21 4.92419e-22 -0.0756953)
(2.67551e-20 9.37355e-23 0.0502953)
(3.16071e-22 3.92285e-22 0.0154079)
(-6.0476e-20 4.55698e-22 -0.0144809)
(8.96484e-20 -2.50182e-22 -0.036901)
(-2.68609e-20 9.77928e-23 -0.0538673)
(-4.31844e-20 -7.96335e-22 -0.0668703)
(1.39114e-20 1.03864e-23 -0.0769465)
(-1.1635e-20 -6.37332e-25 -0.0847959)
(9.41027e-20 -2.57337e-20 -0.0908844)
(4.12051e-21 6.84453e-20 -0.095547)
(-4.01428e-21 6.75281e-20 -0.0990373)
(-2.81797e-20 -1.12072e-19 -0.101538)
(7.06058e-20 1.31309e-19 -0.103188)
(-8.9593e-20 -1.2184e-19 -0.104105)
(3.44121e-20 8.27105e-20 -0.104383)
(-4.59932e-20 -8.73162e-20 -0.104097)
(5.05414e-21 -8.13529e-21 -0.103313)
(-2.89707e-20 -1.33381e-21 -0.10209)
(2.65239e-20 -3.10423e-21 -0.100479)
(1.27772e-21 2.17958e-21 -0.098527)
(7.8597e-21 2.97361e-22 -0.0962734)
(-1.07299e-20 -6.39857e-21 -0.0937541)
(-1.63889e-21 5.57331e-21 -0.0909984)
(-7.89675e-20 -3.37926e-22 0.037935)
(2.33831e-20 3.07873e-20 -0.00570227)
(8.34066e-20 -3.39074e-20 -0.0399521)
(-4.34765e-20 -2.80384e-20 -0.0636945)
(-3.73757e-20 5.89494e-20 -0.0807597)
(5.83683e-20 -6.68377e-20 -0.0933532)
(-2.8452e-21 -5.22224e-20 -0.102825)
(-2.40934e-20 -7.3963e-20 -0.110019)
(4.10816e-20 2.74606e-19 -0.115448)
(-1.25697e-19 -8.13664e-20 -0.119448)
(6.04725e-20 -4.72841e-20 -0.122273)
(1.40851e-19 2.32764e-19 -0.12411)
(-1.62723e-19 -1.83129e-19 -0.125098)
(2.48637e-20 -2.67515e-21 -0.125354)
(-1.27471e-19 -3.12749e-19 -0.124966)
(1.49043e-19 2.72131e-19 -0.124012)
(-4.21987e-20 3.69705e-20 -0.122556)
(-1.86635e-19 -4.03669e-19 -0.120655)
(2.0614e-19 3.695e-19 -0.118362)
(-5.20594e-21 6.831e-21 -0.115724)
(1.30909e-19 2.52019e-19 -0.112783)
(-1.05624e-19 -2.29088e-19 -0.109576)
(-1.08611e-20 -1.3099e-20 -0.10613)
(-7.93139e-21 2.34998e-20 0.0107506)
(3.51355e-20 -6.02344e-20 -0.0430937)
(4.79371e-21 3.6589e-20 -0.0735718)
(-3.60263e-20 -3.81864e-22 -0.0928546)
(2.32752e-20 -2.93206e-20 -0.106281)
(2.7647e-20 1.58926e-19 -0.115885)
(-2.66904e-20 9.11236e-20 -0.122928)
(-1.51846e-20 -1.91546e-19 -0.128181)
(-5.84879e-20 -1.04015e-21 -0.132038)
(-3.15007e-20 -3.02821e-19 -0.13474)
(1.12574e-19 2.22289e-19 -0.136497)
(6.19172e-20 3.83164e-19 -0.137456)
(-1.11239e-19 -3.06085e-19 -0.137722)
(2.87945e-20 -4.6573e-20 -0.137373)
(1.92688e-19 4.39327e-19 -0.136474)
(-2.29034e-19 -3.74164e-19 -0.135078)
(-2.02983e-19 -5.00741e-19 -0.133233)
(1.53429e-20 -5.41545e-20 -0.130981)
(-3.51587e-20 -3.4315e-20 -0.128363)
(-4.1013e-21 -4.68023e-20 -0.125417)
(2.51964e-19 5.66471e-19 -0.122179)
(1.31738e-19 3.47538e-19 -0.118681)
(-2.90384e-19 -6.45465e-19 -0.114944)
(7.25054e-20 9.40369e-20 -0.0402017)
(-4.08232e-20 -0 -0.066091)
(2.87843e-22 -0 -0.081985)
(0 -0 -0.0934404)
(-2.67073e-22 -0 -0.102339)
(-3.27886e-20 -0 -0.109468)
(9.1563e-22 -0 -0.115199)
(3.2105e-20 -0 -0.11969)
(-2.35475e-22 -0 -0.12307)
(2.89803e-20 -0 -0.125494)
(-2.86397e-20 -0 -0.127088)
(-2.69184e-20 -0 -0.127948)
(2.68061e-20 -0 -0.128157)
(0 -0 -0.127785)
(-2.36367e-20 -0 -0.126894)
(2.35376e-20 -0 -0.125535)
(2.13405e-20 -0 -0.123757)
(-1.07811e-21 -0 -0.121605)
(-1.08874e-21 -0 -0.119118)
(-1.23501e-21 -0 -0.116334)
(-1.77497e-20 -0 -0.11329)
(-7.62745e-21 -0 -0.110013)
(1.48994e-20 -0 -0.106528)
(7.15097e-21 -0 -0.102859)
(0 -5.32081e-20 -0.119455)
(0 -0 -0.117839)
(0 -0 -0.120768)
(0 -0 -0.124577)
(0 -0 -0.128258)
(0 -0 -0.131579)
(0 -0 -0.134433)
(0 -0 -0.136742)
(0 -0 -0.138474)
(0 -0 -0.139639)
(0 -0 -0.140257)
(0 -0 -0.140353)
(0 -0 -0.139956)
(0 -0 -0.139095)
(0 -0 -0.137798)
(0 -0 -0.136093)
(0 -0 -0.134011)
(0 -0 -0.13158)
(0 -0 -0.12883)
(0 -0 -0.125789)
(0 -0 -0.122487)
(0 -0 -0.118949)
(0 -0 -0.115194)
(0 4.18506e-22 -0.177403)
(0 -0 -0.165125)
(0 -0 -0.159416)
(0 -0 -0.156815)
(0 -0 -0.155653)
(0 -0 -0.155229)
(0 -0 -0.155137)
(0 -0 -0.155109)
(0 -0 -0.154977)
(0 -0 -0.154637)
(0 -0 -0.154029)
(0 -0 -0.153113)
(0 -0 -0.151869)
(0 -0 -0.150289)
(0 -0 -0.148373)
(0 -0 -0.146125)
(0 -0 -0.143559)
(0 -0 -0.140688)
(0 -0 -0.13753)
(0 -0 -0.134108)
(0 -0 -0.130444)
(0 -0 -0.126558)
(0 -0 -0.122465)
(0 -0 -0.219037)
(0 -0 -0.202498)
(0 -0 -0.191902)
(0 -0 -0.184839)
(0 -0 -0.179849)
(0 -0 -0.17622)
(0 -0 -0.173465)
(0 -0 -0.171228)
(0 -0 -0.169263)
(0 -0 -0.167398)
(0 -0 -0.165514)
(0 -0 -0.163524)
(0 -0 -0.16137)
(0 -0 -0.159013)
(0 -0 -0.156427)
(0 -0 -0.153597)
(0 -0 -0.150519)
(0 -0 -0.147194)
(0 -0 -0.14363)
(0 -0 -0.139839)
(0 -0 -0.135837)
(0 -0 -0.13164)
(0 -0 -0.12726)
(0 -3.95108e-22 -0.245915)
(0 -0 -0.228534)
(0 -0 -0.215869)
(0 -0 -0.206323)
(0 -0 -0.198832)
(0 -0 -0.192874)
(0 -0 -0.188033)
(0 -0 -0.183966)
(0 -0 -0.180411)
(0 -0 -0.177175)
(0 -0 -0.17411)
(0 -0 -0.171106)
(0 -0 -0.168079)
(0 -0 -0.164968)
(0 -0 -0.161732)
(0 -0 -0.158339)
(0 -0 -0.154771)
(0 -0 -0.151019)
(0 -0 -0.147081)
(0 -0 -0.142962)
(0 -0 -0.13867)
(0 -0 -0.134218)
(0 -0 -0.129612)
(0 -4.8179e-20 -0.258978)
(0 -0 -0.24284)
(0 -0 -0.230124)
(0 -0 -0.219788)
(0 -0 -0.211131)
(0 -0 -0.203853)
(0 -0 -0.197676)
(0 -0 -0.192333)
(0 -0 -0.1876)
(0 -0 -0.183296)
(0 -0 -0.179279)
(0 -0 -0.175432)
(0 -0 -0.171666)
(0 -0 -0.16791)
(0 -0 -0.164113)
(0 -0 -0.160235)
(0 -0 -0.15625)
(0 -0 -0.15214)
(0 -0 -0.147897)
(0 -0 -0.143518)
(0 -0 -0.139009)
(0 -0 -0.134375)
(0 -0 -0.129621)
(0 4.83389e-20 -0.259548)
(0 -0 -0.245878)
(0 -0 -0.234474)
(0 -0 -0.224646)
(0 -0 -0.215978)
(0 -0 -0.20835)
(0 -0 -0.201629)
(0 -0 -0.195645)
(0 -0 -0.19024)
(0 -0 -0.185274)
(0 -0 -0.180627)
(0 -0 -0.1762)
(0 -0 -0.171909)
(0 -0 -0.167687)
(0 -0 -0.163481)
(0 -0 -0.15925)
(0 -0 -0.154965)
(0 -0 -0.150605)
(0 -0 -0.146156)
(0 -0 -0.141614)
(0 -0 -0.136979)
(0 -0 -0.132255)
(0 -0 -0.127443)
(0 3.41581e-22 -0.24953)
(0 -0 -0.238907)
(0 -0 -0.229618)
(0 -0 -0.221177)
(0 -0 -0.213368)
(0 -0 -0.2062)
(0 -0 -0.19965)
(0 -0 -0.193641)
(0 -0 -0.188086)
(0 -0 -0.182898)
(0 -0 -0.177993)
(0 -0 -0.173297)
(0 -0 -0.168745)
(0 -0 -0.164282)
(0 -0 -0.159862)
(0 -0 -0.15545)
(0 -0 -0.151016)
(0 -0 -0.146542)
(0 -0 -0.142013)
(0 -0 -0.137423)
(0 -0 -0.132771)
(0 -0 -0.12806)
(0 -0 -0.123287)
(0 -3.20502e-22 -0.231284)
(0 -0 -0.223803)
(0 -0 -0.216971)
(0 -0 -0.210398)
(0 -0 -0.204006)
(0 -0 -0.197873)
(0 -0 -0.192048)
(0 -0 -0.186529)
(0 -0 -0.181289)
(0 -0 -0.17629)
(0 -0 -0.171489)
(0 -0 -0.166842)
(0 -0 -0.162307)
(0 -0 -0.157846)
(0 -0 -0.153426)
(0 -0 -0.14902)
(0 -0 -0.144607)
(0 -0 -0.140169)
(0 -0 -0.135698)
(0 -0 -0.131186)
(0 -0 -0.126633)
(0 -0 -0.122041)
(0 -0 -0.117408)
(0 3.83183e-20 -0.207384)
(0 -0 -0.202801)
(0 -0 -0.198414)
(0 -0 -0.193857)
(0 -0 -0.189137)
(0 -0 -0.184363)
(0 -0 -0.179621)
(0 -0 -0.174955)
(0 -0 -0.170384)
(0 -0 -0.165908)
(0 -0 -0.161518)
(0 -0 -0.1572)
(0 -0 -0.152935)
(0 -0 -0.148704)
(0 -0 -0.144489)
(0 -0 -0.140275)
(0 -0 -0.136047)
(0 -0 -0.131797)
(0 -0 -0.127518)
(0 -0 -0.123208)
(0 -0 -0.118867)
(0 -0 -0.114499)
(0 -0 -0.110103)
(0 -3.7874e-20 -0.180347)
(0 -0 -0.178215)
(0 -0 -0.176013)
(0 -0 -0.173367)
(0 -0 -0.17033)
(0 -0 -0.167011)
(0 -0 -0.163512)
(0 -0 -0.159897)
(0 -0 -0.15621)
(0 -0 -0.15248)
(0 -0 -0.148724)
(0 -0 -0.144948)
(0 -0 -0.141155)
(0 -0 -0.137341)
(0 -0 -0.133504)
(0 -0 -0.12964)
(0 -0 -0.125744)
(0 -0 -0.121814)
(0 -0 -0.117849)
(0 -0 -0.113851)
(0 -0 -0.109823)
(0 -0 -0.105771)
(0 -0 -0.101696)
(0 -3.26413e-20 -0.152416)
(0 -0 -0.152189)
(0 -0 -0.151769)
(0 -0 -0.150763)
(0 -0 -0.14924)
(0 -0 -0.147298)
(0 -0 -0.145032)
(0 -0 -0.142512)
(0 -0 -0.139793)
(0 -0 -0.136918)
(0 -0 -0.133917)
(0 -0 -0.130814)
(0 -0 -0.127624)
(0 -0 -0.124358)
(0 -0 -0.121024)
(0 -0 -0.117627)
(0 -0 -0.114174)
(0 -0 -0.110667)
(0 -0 -0.107111)
(0 -0 -0.103513)
(0 -0 -0.0998783)
(0 -0 -0.0962155)
(0 -0 -0.0925279)
(0 3.25014e-20 -0.1254)
(0 -0 -0.126519)
(0 -0 -0.127419)
(0 -0 -0.127696)
(0 -0 -0.127413)
(0 -0 -0.126651)
(0 -0 -0.125488)
(0 -0 -0.123988)
(0 -0 -0.122208)
(0 -0 -0.120191)
(0 -0 -0.117975)
(0 -0 -0.115592)
(0 -0 -0.113064)
(0 -0 -0.110411)
(0 -0 -0.10765)
(0 -0 -0.104792)
(0 -0 -0.101849)
(0 -0 -0.0988308)
(0 -0 -0.0957469)
(0 -0 -0.0926063)
(0 -0 -0.0894189)
(0 -0 -0.0861947)
(0 -0 -0.0829395)
(0 -0 -0.100601)
(0 -0 -0.102553)
(0 -0 -0.104323)
(0 -0 -0.105502)
(0 -0 -0.106142)
(0 -0 -0.106302)
(0 -0 -0.106039)
(0 -0 -0.105407)
(0 -0 -0.104454)
(0 -0 -0.103221)
(0 -0 -0.101745)
(0 -0 -0.100057)
(0 -0 -0.098186)
(0 -0 -0.0961535)
(0 -0 -0.0939798)
(0 -0 -0.0916822)
(0 -0 -0.0892756)
(0 -0 -0.0867737)
(0 -0 -0.0841888)
(0 -0 -0.0815329)
(0 -0 -0.0788179)
(0 -0 -0.0760557)
(0 -0 -0.073254)
(0 -2.5034e-20 -0.0788137)
(0 -0 -0.0811718)
(0 -0 -0.0834143)
(0 -0 -0.0851444)
(0 -0 -0.0863951)
(0 -0 -0.0872043)
(0 -0 -0.0876114)
(0 -0 -0.087655)
(0 -0 -0.087372)
(0 -0 -0.0867972)
(0 -0 -0.0859623)
(0 -0 -0.0848963)
(0 -0 -0.083625)
(0 -0 -0.0821716)
(0 -0 -0.0805569)
(0 -0 -0.0787995)
(0 -0 -0.0769162)
(0 -0 -0.0749221)
(0 -0 -0.0728314)
(0 -0 -0.0706574)
(0 -0 -0.0684131)
(0 -0 -0.0661116)
(0 -0 -0.0637618)
(0 2.4929e-20 -0.0603859)
(0 -0 -0.0628253)
(0 -0 -0.065225)
(0 -0 -0.0672102)
(0 -0 -0.0687966)
(0 -0 -0.0700042)
(0 -0 -0.0708558)
(0 -0 -0.0713763)
(0 -0 -0.0715914)
(0 -0 -0.0715267)
(0 -0 -0.071207)
(0 -0 -0.070656)
(0 -0 -0.069896)
(0 -0 -0.0689477)
(0 -0 -0.0678304)
(0 -0 -0.0665619)
(0 -0 -0.0651586)
(0 -0 -0.0636358)
(0 -0 -0.0620077)
(0 -0 -0.0602879)
(0 -0 -0.0584897)
(0 -0 -0.0566263)
(0 -0 -0.0547072)
(0 2.09279e-20 -0.045314)
(0 -0 -0.0476129)
(0 -0 -0.0499421)
(0 -0 -0.0519571)
(0 -0 -0.0536597)
(0 -0 -0.0550557)
(0 -0 -0.0561551)
(0 -0 -0.0569709)
(0 -0 -0.0575187)
(0 -0 -0.0578151)
(0 -0 -0.0578776)
(0 -0 -0.0577238)
(0 -0 -0.057371)
(0 -0 -0.0568362)
(0 -0 -0.0561356)
(0 -0 -0.0552848)
(0 -0 -0.0542985)
(0 -0 -0.0531907)
(0 -0 -0.0519747)
(0 -0 -0.0506633)
(0 -0 -0.0492693)
(0 -0 -0.0478052)
(0 -0 -0.0462805)
(0 -2.08406e-20 -0.033351)
(0 -0 -0.0353785)
(0 -0 -0.0374926)
(0 -0 -0.0393833)
(0 -0 -0.0410429)
(0 -0 -0.0424676)
(0 -0 -0.043658)
(0 -0 -0.0446184)
(0 -0 -0.0453557)
(0 -0 -0.0458791)
(0 -0 -0.0461992)
(0 -0 -0.0463278)
(0 -0 -0.046277)
(0 -0 -0.0460596)
(0 -0 -0.0456881)
(0 -0 -0.0451751)
(0 -0 -0.0445329)
(0 -0 -0.0437733)
(0 -0 -0.0429079)
(0 -0 -0.0419482)
(0 -0 -0.0409054)
(0 -0 -0.0397913)
(0 -0 -0.0386146)
(0 -0 -0.0241089)
(0 -0 -0.0258064)
(0 -0 -0.0276297)
(0 -0 -0.029305)
(0 -0 -0.0308192)
(0 -0 -0.032163)
(0 -0 -0.0333309)
(0 -0 -0.0343211)
(0 -0 -0.0351344)
(0 -0 -0.0357742)
(0 -0 -0.0362455)
(0 -0 -0.0365549)
(0 -0 -0.0367101)
(0 -0 -0.0367196)
(0 -0 -0.0365923)
(0 -0 -0.0363376)
(0 -0 -0.035965)
(0 -0 -0.035484)
(0 -0 -0.0349041)
(0 -0 -0.0342347)
(0 -0 -0.0334857)
(0 -0 -0.0326672)
(0 -0 -0.0317869)
(0 -0 -0.0171413)
(0 -0 -0.0185018)
(0 -0 -0.0200107)
(0 -0 -0.0214298)
(0 -0 -0.0227438)
(0 -0 -0.0239411)
(0 -0 -0.0250131)
(0 -0 -0.0259541)
(0 -0 -0.0267612)
(0 -0 -0.0274334)
(0 -0 -0.0279719)
(0 -0 -0.0283792)
(0 -0 -0.0286593)
(0 -0 -0.0288171)
(0 -0 -0.0288583)
(0 -0 -0.0287894)
(0 -0 -0.028617)
(0 -0 -0.0283484)
(0 -0 -0.0279907)
(0 -0 -0.0275515)
(0 -0 -0.0270388)
(0 -0 -0.0264612)
(0 -0 -0.0258251)
(0 -1.17916e-22 -0.0120035)
(0 -0 -0.0130527)
(0 -0 -0.0142589)
(0 -0 -0.0154171)
(0 -0 -0.0165124)
(0 -0 -0.0175328)
(0 -0 -0.0184686)
(0 -0 -0.0193126)
(0 -0 -0.0200597)
(0 -0 -0.0207064)
(0 -0 -0.021251)
(0 -0 -0.0216935)
(0 -0 -0.022035)
(0 -0 -0.0222775)
(0 -0 -0.0224243)
(0 -0 -0.0224792)
(0 -0 -0.0224466)
(0 -0 -0.0223314)
(0 -0 -0.0221389)
(0 -0 -0.0218747)
(0 -0 -0.0215449)
(0 -0 -0.0211567)
(0 -0 -0.0207151)
(0 -6.8786e-21 -0.00829027)
(0 -0 -0.00907105)
(0 -0 -0.010007)
(0 -0 -0.0109228)
(0 -0 -0.0118055)
(0 -0 -0.0126439)
(0 -0 -0.0134288)
(0 -0 -0.0141528)
(0 -0 -0.0148098)
(0 -0 -0.0153952)
(0 -0 -0.0159058)
(0 -0 -0.0163398)
(0 -0 -0.0166964)
(0 -0 -0.0169757)
(0 -0 -0.0171791)
(0 -0 -0.0173082)
(0 -0 -0.0173658)
(0 -0 -0.0173548)
(0 -0 -0.0172787)
(0 -0 -0.0171414)
(0 -0 -0.0169477)
(0 -0 -0.0167031)
(0 -0 -0.0164114)
(0 1.32113e-20 -0.00565506)
(0 -0 -0.00621632)
(0 -0 -0.0069238)
(0 -0 -0.00762828)
(0 -0 -0.00831916)
(0 -0 -0.00898702)
(0 -0 -0.00962381)
(0 -0 -0.0102226)
(0 -0 -0.0107775)
(0 -0 -0.0112836)
(0 -0 -0.0117371)
(0 -0 -0.0121352)
(0 -0 -0.012476)
(0 -0 -0.0127586)
(0 -0 -0.0129827)
(0 -0 -0.0131488)
(0 -0 -0.0132581)
(0 -0 -0.0133121)
(0 -0 -0.0133129)
(0 -0 -0.0132632)
(0 -0 -0.0131663)
(0 -0 -0.0130263)
(0 -0 -0.0128461)
(0 -6.33478e-21 -0.00381537)
(0 -0 -0.00420471)
(0 -0 -0.00472713)
(0 -0 -0.00525601)
(0 -0 -0.00578313)
(0 -0 -0.00630099)
(0 -0 -0.00680299)
(0 -0 -0.00728325)
(0 -0 -0.00773649)
(0 -0 -0.00815814)
(0 -0 -0.00854437)
(0 -0 -0.00889208)
(0 -0 -0.00919892)
(0 -0 -0.00946322)
(0 -0 -0.00968396)
(0 -0 -0.00986071)
(0 -0 -0.0099936)
(0 -0 -0.0100832)
(0 -0 -0.0101306)
(0 -0 -0.0101374)
(0 -0 -0.0101057)
(0 -0 -0.0100387)
(0 -0 -0.00993839)
(0 -0 -0.00254988)
(0 -0 -0.0028095)
(0 -0 -0.00318724)
(0 -0 -0.00357569)
(0 -0 -0.00396881)
(0 -0 -0.00436088)
(0 -0 -0.00474679)
(0 -0 -0.00512185)
(0 -0 -0.00548165)
(0 -0 -0.00582223)
(0 -0 -0.00614011)
(0 -0 -0.00643232)
(0 -0 -0.00669642)
(0 -0 -0.00693049)
(0 -0 -0.0071331)
(0 -0 -0.00730332)
(0 -0 -0.00744065)
(0 -0 -0.00754501)
(0 -0 -0.00761673)
(0 -0 -0.00765658)
(0 -0 -0.007666)
(0 -0 -0.00764735)
(0 -0 -0.00760173)
(0 -8.02856e-23 -0.00169071)
(0 -0 -0.00185575)
(0 -0 -0.00212365)
(0 -0 -0.00240334)
(0 -0 -0.00269055)
(0 -0 -0.00298109)
(0 -0 -0.00327118)
(0 -0 -0.00355725)
(0 -0 -0.00383582)
(0 -0 -0.00410367)
(0 -0 -0.00435783)
(0 -0 -0.00459571)
(0 -0 -0.00481501)
(0 -0 -0.00501385)
(0 -0 -0.0051907)
(0 -0 -0.00534438)
(0 -0 -0.00547408)
(0 -0 -0.00557933)
(0 -0 -0.00565998)
(0 -0 -0.00571628)
(0 -0 -0.00574913)
(0 -0 -0.00576023)
(0 -0 -0.00575018)
(0 -0 -0.00111407)
(0 -0 -0.00121233)
(0 -0 -0.00139894)
(0 -0 -0.00159664)
(0 -0 -0.00180255)
(0 -0 -0.00201369)
(0 -0 -0.00222737)
(0 -0 -0.00244099)
(0 -0 -0.00265193)
(0 -0 -0.00285767)
(0 -0 -0.00305584)
(0 -0 -0.00324427)
(0 -0 -0.00342101)
(0 -0 -0.00358434)
(0 -0 -0.00373279)
(0 -0 -0.00386519)
(0 -0 -0.00398059)
(0 -0 -0.00407832)
(0 -0 -0.00415799)
(0 -0 -0.00421951)
(0 -0 -0.00426343)
(0 -0 -0.00429102)
(0 -0 -0.00430247)
(0 4.39615e-21 -0.000730802)
(0 -0 -0.000783384)
(0 -0 -0.000911124)
(0 -0 -0.00104847)
(0 -0 -0.00119352)
(0 -0 -0.00134424)
(0 -0 -0.00149874)
(0 -0 -0.00165521)
(0 -0 -0.00181175)
(0 -0 -0.00196647)
(0 -0 -0.00211757)
(0 -0 -0.00226332)
(0 -0 -0.00240211)
(0 -0 -0.00253251)
(0 -0 -0.00265323)
(0 -0 -0.00276317)
(0 -0 -0.00286141)
(0 -0 -0.00294724)
(0 -0 -0.00302013)
(0 -0 -0.00307985)
(0 -0 -0.0031267)
(0 -0 -0.00316173)
(0 -0 -0.00318488)
(0 -8.47355e-21 -0.00047806)
(0 -0 -0.000500316)
(0 -0 -0.000586229)
(0 -0 -0.000680075)
(0 -0 -0.000780614)
(0 -0 -0.000886435)
(0 -0 -0.000996258)
(0 -0 -0.00110885)
(0 -0 -0.00122289)
(0 -0 -0.00133703)
(0 -0 -0.00144991)
(0 -0 -0.00156024)
(0 -0 -0.00166677)
(0 -0 -0.00176833)
(0 -0 -0.00186387)
(0 -0 -0.00195243)
(0 -0 -0.00203319)
(0 -0 -0.00210547)
(0 -0 -0.00216874)
(0 -0 -0.0022227)
(0 -0 -0.00226756)
(0 -0 -0.00230425)
(0 -0 -0.00233265)
(0 4.07864e-21 -0.000312476)
(0 -0 -0.000315425)
(0 -0 -0.000371612)
(0 -0 -0.000434901)
(0 -0 -0.000503635)
(0 -0 -0.000576856)
(0 -0 -0.000653717)
(0 -0 -0.000733428)
(0 -0 -0.000815101)
(0 -0 -0.000897803)
(0 -0 -0.000980583)
(0 -0 -0.00106249)
(0 -0 -0.00114258)
(0 -0 -0.00121997)
(0 -0 -0.00129381)
(0 -0 -0.00136334)
(0 -0 -0.00142786)
(0 -0 -0.00148677)
(0 -0 -0.00153958)
(0 -0 -0.00158601)
(0 -0 -0.00162621)
(0 -0 -0.00166106)
(0 -0 -0.0016908)
(0 -0 -0.000203783)
(0 -0 -0.000196189)
(0 -0 -0.00023252)
(0 -0 -0.000273424)
(0 -0 -0.000320101)
(0 -0 -0.000370193)
(0 -0 -0.000423278)
(0 -0 -0.000478911)
(0 -0 -0.000536539)
(0 -0 -0.000595548)
(0 -0 -0.000655289)
(0 -0 -0.000715093)
(0 -0 -0.000774285)
(0 -0 -0.000832202)
(0 -0 -0.000888204)
(0 -0 -0.000941691)
(0 -0 -0.000992107)
(0 -0 -0.00103896)
(0 -0 -0.00108183)
(0 -0 -0.00112045)
(0 -0 -0.00115499)
(0 -0 -0.0011862)
(0 -0 -0.00121434)
(0 -0 -0.000119725)
(0 -0 -0.000143365)
(0 -0 -0.000170378)
(0 -0 -0.000200614)
(0 -0 -0.000234533)
(0 -0 -0.000270796)
(0 -0 -0.000309198)
(0 -0 -0.000349415)
(0 -0 -0.000391055)
(0 -0 -0.000433691)
(0 -0 -0.000476865)
(0 -0 -0.000520104)
(0 -0 -0.000562931)
(0 -0 -0.000604879)
(0 -0 -0.000645492)
(0 -0 -0.000684345)
(0 -0 -0.000721048)
(0 -0 -0.000755265)
(0 -0 -0.000786781)
(0 -0 -0.000815703)
(0 -0 -0.000842685)
(0 -0 -0.000867494)
(-5.28667e-21 -2.02579e-20 -0.524072)
(4.54593e-20 -2.88148e-20 -0.44747)
(1.90314e-22 -2.41393e-20 -0.372574)
(4.75414e-20 5.45937e-21 -0.299152)
(-3.42974e-22 4.79273e-20 -0.226038)
(-8.40849e-22 -1.02588e-19 -0.152037)
(8.34046e-20 3.87314e-20 -0.082984)
(1.40195e-20 -1.31656e-19 -0.506417)
(-4.25902e-20 4.38952e-19 -0.448637)
(-3.12057e-20 -3.40924e-19 -0.389969)
(-9.14055e-20 1.46199e-20 -0.330549)
(3.74942e-22 -1.98833e-22 -0.270839)
(4.67448e-20 2.59582e-20 -0.213036)