/*--------------------------------*- C++ -*----------------------------------*\
| =========                 |                                                 |
| \\      /  F ield         | OpenFOAM: The Open Source CFD Toolbox           |
|  \\    /   O peration     | Version:  2412                                  |
|   \\  /    A nd           | Website:  www.openfoam.com                      |
|    \\/     M anipulation  |                                                 |
\*---------------------------------------------------------------------------*/
FoamFile
{
    version     2.0;
    format      ascii;
    arch        "LSB;label=32;scalar=64";
    class       volVectorField;
    location    "8";
    object      vorticity;
}
// * * * * * * * * * * * * * * * * * * * * * * * * * * * * * * * * * * * * * //

dimensions      [0 0 -1 0 0 0 0];

internalField   nonuniform List<vector> 
5285
(
(2.44554e-22 5.31305e-21 -0.0032374)
(-3.66781e-23 5.93761e-25 -0.00260448)
(1.95461e-22 5.71979e-21 -0.00208404)
(-7.24765e-24 9.7864e-26 -0.0016632)
(-9.33111e-24 2.04081e-26 -0.00132543)
(5.23574e-24 -2.50174e-25 -0.00105661)
(1.24107e-22 6.33697e-21 -0.000844305)
(-1.10673e-24 7.7801e-25 -0.000677503)
(-1.01651e-22 -6.57684e-21 -0.000546759)
(9.05144e-23 6.68256e-21 -0.000444174)
(-5.53419e-23 -6.78942e-21 -0.000363316)
(3.18142e-22 6.21157e-20 -0.000299061)
(-3.44898e-22 -6.2289e-20 -0.000247418)
(-2.01585e-22 -4.95122e-20 -0.000205333)
(4.49247e-22 1.0663e-19 -0.000170507)
(-2.44712e-22 -5.72001e-20 -0.000141236)
(-7.84508e-23 -7.26305e-21 -0.000116266)
(7.14578e-23 7.31097e-21 -9.46805e-05)
(2.60857e-23 -2.25743e-25 -7.58089e-05)
(3.76081e-24 7.44014e-21 -5.91564e-05)
(-1.1741e-22 -3.74991e-20 -4.43515e-05)
(1.27511e-22 3.75992e-20 -3.11078e-05)
(-5.05376e-23 -7.58337e-21 -1.91956e-05)
(5.83733e-23 2.29347e-20 -8.4202e-06)
(-1.87147e-23 -7.63904e-21 1.39872e-06)
(-4.42383e-23 -1.54712e-20 1.04489e-05)
(2.04406e-23 7.75423e-21 1.89507e-05)
(-1.60252e-23 -7.81061e-21 2.71635e-05)
(1.92361e-20 3.33593e-19 -0.00941079)
(-2.11903e-20 -3.61507e-19 -0.00757558)
(1.67021e-20 3.67926e-19 -0.00606393)
(-9.26057e-21 -1.82231e-19 -0.00484)
(-1.46048e-20 -3.89438e-19 -0.00385852)
(6.91788e-21 1.97303e-19 -0.00307792)
(-9.0622e-23 -6.35239e-21 -0.00246158)
(-4.94146e-22 -1.29994e-20 -0.0019773)
(1.50129e-22 6.59642e-21 -0.00159755)
(-4.63409e-22 -2.01556e-20 -0.00129937)
(3.72631e-21 2.12095e-19 -0.00106411)
(-7.73584e-21 -4.47744e-19 -0.000876914)
(3.46882e-21 2.14959e-19 -0.000726247)
(-2.70256e-22 -2.11273e-20 -0.000603278)
(-3.49302e-24 7.11758e-21 -0.000501368)
(1.00434e-23 3.09471e-23 -0.000415592)
(-1.34232e-21 -1.2378e-19 -0.000342331)
(1.14569e-21 1.09331e-19 -0.000278934)
(9.10441e-22 1.03645e-19 -0.000223462)
(-1.29697e-21 -1.40829e-19 -0.000174479)
(5.3986e-23 7.43465e-21 -0.000130907)
(2.28269e-22 3.78187e-20 -9.19134e-05)
(-4.84156e-22 -6.80853e-20 -5.6828e-05)
(-1.03505e-22 -7.6293e-21 -2.50819e-05)
(-2.84927e-22 -5.37576e-20 3.85381e-06)
(-8.71982e-23 -7.84763e-21 3.05373e-05)
(9.8086e-23 1.54221e-20 5.5645e-05)
(1.09375e-22 2.33637e-20 8.0037e-05)
(-3.30087e-20 -3.46587e-19 -0.0147635)
(3.48192e-20 3.68943e-19 -0.0118845)
(1.07224e-21 1.18717e-20 -0.00952883)
(-9.849e-22 -1.21073e-20 -0.00761217)
(7.72075e-22 1.24325e-20 -0.00607727)
(-1.9956e-20 -3.95028e-19 -0.00485716)
(2.09308e-20 4.08187e-19 -0.00389383)
(-1.61524e-20 -3.96294e-19 -0.0031365)
(1.7311e-20 4.22993e-19 -0.00254199)
(3.79138e-22 1.34738e-20 -0.00207439)
(1.28002e-20 4.4081e-19 -0.00170461)
(-2.44961e-20 -8.7327e-19 -0.00140955)
(1.23846e-20 4.60263e-19 -0.00117128)
(5.06765e-21 2.41893e-19 -0.000976105)
(-4.45355e-21 -2.13534e-19 -0.000813751)
(-2.23541e-22 -4.34236e-23 -0.000676607)
(4.41797e-23 -1.85664e-23 -0.000559084)
(4.12812e-23 -6.29865e-23 -0.000457093)
(3.23783e-21 2.36994e-19 -0.000367637)
(-3.2201e-21 -2.22333e-19 -0.000288498)
(1.61705e-22 1.49132e-20 -0.000218002)
(6.72164e-23 -4.18959e-23 -0.000154849)
(1.18018e-21 1.21442e-19 -9.79907e-05)
(-2.33101e-21 -2.28345e-19 -4.65268e-05)
(1.18466e-21 1.22134e-19 3.88724e-07)
(-5.93735e-22 -6.16068e-20 4.36718e-05)
(4.34313e-22 4.61812e-20 8.45029e-05)
(1.09791e-22 1.54823e-20 0.000124595)
(7.32018e-23 -2.62472e-24 -0.0189268)
(1.16111e-21 1.17974e-20 -0.0152443)
(6.80824e-22 1.58628e-22 -0.0122315)
(9.79811e-22 1.24016e-20 -0.00979041)
(-6.52303e-20 -8.27048e-19 -0.00783261)
(6.46864e-20 8.14706e-19 -0.00627728)
(-2.75428e-22 2.05601e-22 -0.00504914)
(-2.35457e-20 -4.28581e-19 -0.00408286)
(2.47978e-20 4.42241e-19 -0.00332312)
(-1.13952e-22 7.39377e-23 -0.00272416)
(-1.38641e-22 4.5638e-23 -0.00224895)
(-1.68876e-20 -4.64063e-19 -0.00186825)
(3.22837e-20 9.1861e-19 -0.00155936)
(-2.92451e-20 -9.12756e-19 -0.00130504)
(2.68899e-20 9.2058e-19 -0.00109239)
(-2.46437e-20 -9.27676e-19 -0.000911857)
(1.16906e-20 4.6543e-19 -0.000756447)
(5.21238e-21 2.36094e-19 -0.00062105)
(-4.56201e-21 -2.06373e-19 -0.000501914)
(-2.62217e-22 -1.48787e-20 -0.000396259)
(-4.03408e-21 -2.401e-19 -0.000301973)
(8.4503e-21 5.11319e-19 -0.000217408)
(-3.94735e-21 -2.41137e-19 -0.00014122)
(8.70646e-23 -6.24917e-23 -7.22459e-05)
(2.15053e-22 1.52411e-20 -9.37089e-06)
(-9.14164e-23 -5.02086e-25 4.86546e-05)
(-1.50698e-22 -1.53718e-20 0.000103575)
(3.37499e-22 3.08409e-20 0.00015833)
(-1.11136e-19 -7.98293e-19 -0.0175278)
(1.08159e-19 7.72743e-19 -0.0140721)
(-5.07709e-22 3.40296e-22 -0.0112823)
(5.40437e-22 -2.34271e-25 -0.00904652)
(-1.28185e-21 -1.29066e-20 -0.00727297)
(-6.77213e-20 -8.62052e-19 -0.00587213)
(6.72293e-20 8.47593e-19 -0.00476894)
(-9.64409e-22 -1.33958e-20 -0.00389999)
(-2.4809e-20 -4.32958e-19 -0.00321301)
(2.5855e-20 4.60396e-19 -0.00266588)
(6.26832e-22 1.01307e-22 -0.00222543)
(-2.05987e-22 4.99144e-23 -0.00186606)
(4.29137e-23 1.21805e-22 -0.0015684)
(-1.66735e-20 -4.65593e-19 -0.00131798)
(1.74786e-20 4.79823e-19 -0.00110416)
(-1.4019e-20 -4.56403e-19 -0.000919147)
(1.3948e-20 4.7065e-19 -0.000757267)
(-5.90804e-22 -2.95381e-20 -0.000614344)
(4.79795e-22 1.48786e-20 -0.00048727)
(-9.68914e-23 2.96063e-23 -0.000373674)
(-2.81127e-22 -1.50157e-20 -0.000271688)
(2.50172e-22 1.51032e-20 -0.00017977)
(-2.30099e-21 -1.36409e-19 -9.65672e-05)
(4.06062e-21 2.42744e-19 -2.07628e-05)
(-3.00085e-21 -1.82425e-19 4.91807e-05)
(9.26082e-22 6.08667e-20 0.000115612)
(4.56297e-23 2.85585e-23 0.000183121)
(1.33796e-19 8.2005e-19 -0.0187701)
(-1.35022e-19 -8.16916e-19 -0.0150728)
(-1.10758e-19 -8.49919e-19 -0.0120961)
(1.09187e-19 8.33445e-19 -0.00971815)
(-6.05752e-22 3.83383e-22 -0.00783465)
(7.7283e-22 -2.81078e-22 -0.00634742)
(7.48731e-20 8.93676e-19 -0.00517557)
(-6.86486e-21 1.10737e-20 -0.00425108)
(-7.00488e-20 -9.28599e-19 -0.00351814)
(-5.78383e-20 -9.32507e-19 -0.00293207)
(1.07938e-19 1.82487e-18 -0.00245787)
(-2.91041e-20 -4.70939e-19 -0.0020687)
(-2.4356e-20 -4.78483e-19 -0.00174433)
(-2.10337e-20 -4.99523e-19 -0.00146974)
(3.77418e-20 9.26343e-19 -0.00123394)
(-3.61344e-20 -9.59451e-19 -0.00102889)
(7.76578e-22 -1.79298e-20 -0.000848754)
(1.54569e-20 4.74501e-19 -0.000689228)
(1.34795e-20 4.78918e-19 -0.000547099)
(-2.06037e-20 -7.47414e-19 -0.000419894)
(1.19284e-20 4.64698e-19 -0.000305642)
(-6.16836e-21 -2.54941e-19 -0.000202695)
(5.45229e-21 2.56415e-19 -0.000109592)
(-5.53517e-21 -2.55891e-19 -2.48861e-05)
(3.64103e-22 1.50411e-20 5.31662e-05)
(-1.41458e-21 -7.57161e-20 0.00012748)
(5.52773e-22 3.0162e-20 0.000204794)
(-1.74896e-19 -8.44876e-19 -0.0179612)
(9.58709e-22 -8.95384e-22 -0.0143911)
(4.28233e-22 -8.37637e-24 -0.0115358)
(1.24738e-21 1.42216e-20 -0.00927355)
(-1.0819e-19 -9.03163e-19 -0.00748832)
(1.08091e-19 8.98905e-19 -0.00608433)
(-4.47652e-22 4.404e-22 -0.00498123)
(1.02464e-23 -4.79013e-24 -0.00411206)
(1.32314e-21 1.47448e-20 -0.00342247)
(-6.53108e-20 -9.21638e-19 -0.00286941)
(1.27824e-19 1.88663e-18 -0.00241955)
(-6.07082e-20 -9.35884e-19 -0.00204762)
(9.92767e-22 1.44024e-20 -0.00173483)
(8.91084e-22 1.46254e-20 -0.00146744)
(2.11955e-20 4.76583e-19 -0.0012355)
(-4.04219e-20 -9.37011e-19 -0.00103185)
(2.03736e-20 4.9032e-19 -0.000851352)
(-1.66471e-20 -4.63758e-19 -0.000690261)
(1.03692e-21 -2.38888e-21 -0.000545783)
(1.74752e-21 1.26949e-20 -0.000415763)
(1.48641e-20 4.92921e-19 -0.000298465)
(6.80558e-21 2.55275e-19 -0.000192412)
(-6.78431e-21 -2.54122e-19 -9.62599e-05)
(4.20994e-22 1.48527e-20 -8.64828e-06)
(2.60678e-21 1.20033e-19 7.21283e-05)
(-2.28732e-21 -1.04581e-19 0.000149238)
(2.66964e-22 1.4923e-20 0.0002324)
(0 -2.30563e-24 4.12872e-05)
(0 -0 4.7706e-05)
(0 -0 5.44157e-05)
(0 -0 6.18365e-05)
(0 -0 7.04398e-05)
(0 -0 8.06721e-05)
(0 -0 9.28308e-05)
(0 -0 0.000106905)
(0 -0 0.000122413)
(0 -0 0.000138301)
(0 -0 0.00015296)
(0 -0 0.000164419)
(0 -0 0.000170704)
(0 -0 0.0001703)
(0 -0 0.000162573)
(0 -0 0.000147998)
(0 -0 0.000128118)
(0 -0 0.000105202)
(0 -0 8.17455e-05)
(0 -0 5.99475e-05)
(0 -0 4.13454e-05)
(0 -0 2.6673e-05)
(0 -0 1.59394e-05)
(0 -0 8.64801e-06)
(0 -0 4.05542e-06)
(0 -0 1.38869e-06)
(0 -0 -1.75529e-08)
(0 -0 -6.64829e-07)
(0 -0 -8.92474e-07)
(0 -0 -9.09242e-07)
(0 -0 -8.32613e-07)
(0 -0 -7.23073e-07)
(0 -0 -6.08877e-07)
(0 -0 -5.01775e-07)
(0 -0 -4.05928e-07)
(0 -0 -3.22269e-07)
(0 -0 -2.50422e-07)
(0 -0 -1.89366e-07)
(0 -0 -1.37695e-07)
(0 -0 -9.38725e-08)
(0 -0 -5.6687e-08)
(0 -0 -2.53797e-08)
(0 -0 4.55908e-10)
(0 -0 2.07522e-08)
(0 6.88769e-24 0.000121042)
(0 -0 0.000139678)
(0 -0 0.000159115)
(0 -0 0.000180615)
(0 -0 0.000205582)
(0 -0 0.000235342)
(0 -0 0.000270778)
(0 -0 0.000311864)
(0 -0 0.000357199)
(0 -0 0.000403698)
(0 -0 0.000446648)
(0 -0 0.000480271)
(0 -0 0.000498782)
(0 -0 0.000497731)
(0 -0 0.000475243)
(0 -0 0.0004327)
(0 -0 0.000374601)
(0 -0 0.000307591)
(0 -0 0.00023897)
(0 -0 0.000175185)
(0 -0 0.000120743)
(0 -0 7.77985e-05)
(0 -0 4.63841e-05)
(0 -0 2.50493e-05)
(0 -0 1.16188e-05)
(0 -0 3.82942e-06)
(0 -0 -2.68402e-07)
(0 -0 -2.14426e-06)
(0 -0 -2.79256e-06)
(0 -0 -2.8251e-06)
(0 -0 -2.58604e-06)
(0 -0 -2.25238e-06)
(0 -0 -1.9068e-06)
(0 -0 -1.58349e-06)
(0 -0 -1.29391e-06)
(0 -0 -1.04004e-06)
(0 -0 -8.2028e-07)
(0 -0 -6.31648e-07)
(0 -0 -4.70775e-07)
(0 -0 -3.34459e-07)
(0 -0 -2.19907e-07)
(0 -0 -1.24943e-07)
(0 -0 -4.77362e-08)
(0 -0 1.16997e-08)
(0 4.55937e-24 0.000188751)
(0 -0 0.000218059)
(0 -0 0.000248506)
(0 -0 0.000282173)
(0 -0 0.000321359)
(0 -0 0.000368222)
(0 -0 0.000424203)
(0 -0 0.00048929)
(0 -0 0.000561281)
(0 -0 0.000635291)
(0 -0 0.000703842)
(0 -0 0.000757746)
(0 -0 0.000787785)
(0 -0 0.000786844)
(0 -0 0.000751882)
(0 -0 0.000685031)
(0 -0 0.000593384)
(0 -0 0.000487459)
(0 -0 0.000378839)
(0 -0 0.000277774)
(0 -0 0.000191448)
(0 -0 0.000123313)
(0 -0 7.34494e-05)
(0 -0 3.95758e-05)
(0 -0 1.82512e-05)
(0 -0 5.8875e-06)
(0 -0 -6.09443e-07)
(0 -0 -3.57433e-06)
(0 -0 -4.58812e-06)
(0 -0 -4.62382e-06)
(0 -0 -4.22889e-06)
(0 -0 -3.6851e-06)
(0 -0 -3.124e-06)
(0 -0 -2.59975e-06)
(0 -0 -2.13033e-06)
(0 -0 -1.71864e-06)
(0 -0 -1.36178e-06)
(0 -0 -1.05496e-06)
(0 -0 -7.93078e-07)
(0 -0 -5.71289e-07)
(0 -0 -3.85294e-07)
(0 -0 -2.3169e-07)
(0 -0 -1.07197e-07)
(0 -0 -1.12495e-08)
(0 9.30089e-24 0.000239481)
(0 -0 0.00027668)
(0 -0 0.00031516)
(0 -0 0.000357822)
(0 -0 0.000407785)
(0 -0 0.000467941)
(0 -0 0.00054022)
(0 -0 0.000624653)
(0 -0 0.000718406)
(0 -0 0.000815146)
(0 -0 0.000905141)
(0 -0 0.000976403)
(0 -0 0.00101687)
(0 -0 0.00101716)
(0 -0 0.000973213)
(0 -0 0.000887657)
(0 -0 0.000769622)
(0 -0 0.000632732)
(0 -0 0.00049205)
(0 -0 0.000360944)
(0 -0 0.00024882)
(0 -0 0.000160238)
(0 -0 9.53631e-05)
(0 -0 5.12688e-05)
(0 -0 2.35038e-05)
(0 -0 7.41064e-06)
(0 -0 -1.03527e-06)
(0 -0 -4.87507e-06)
(0 -0 -6.17021e-06)
(0 -0 -6.19047e-06)
(0 -0 -5.65086e-06)
(0 -0 -4.91946e-06)
(0 -0 -4.16801e-06)
(0 -0 -3.46709e-06)
(0 -0 -2.84e-06)
(0 -0 -2.2901e-06)
(0 -0 -1.81337e-06)
(0 -0 -1.40345e-06)
(0 -0 -1.05358e-06)
(0 -0 -7.57451e-07)
(0 -0 -5.09547e-07)
(0 -0 -3.05229e-07)
(0 -0 -1.39897e-07)
(0 -0 -1.33439e-08)
(0 8.83277e-26 0.000272614)
(0 -0 0.00031331)
(0 -0 0.00035547)
(0 -0 0.000402794)
(0 -0 0.000459047)
(0 -0 0.000527656)
(0 -0 0.000610911)
(0 -0 0.000708882)
(0 -0 0.000818297)
(0 -0 0.000931796)
(0 -0 0.00103802)
(0 -0 0.00112295)
(0 -0 0.00117237)
(0 -0 0.00117521)
(0 -0 0.00112649)
(0 -0 0.00102908)
(0 -0 0.000893444)
(0 -0 0.000735377)
(0 -0 0.000572421)
(0 -0 0.000420214)
(0 -0 0.000289819)
(0 -0 0.000186663)
(0 -0 0.000111032)
(0 -0 5.95896e-05)
(0 -0 2.71859e-05)
(0 -0 8.40934e-06)
(0 -0 -1.42948e-06)
(0 -0 -5.88123e-06)
(0 -0 -7.35635e-06)
(0 -0 -7.34132e-06)
(0 -0 -6.67396e-06)
(0 -0 -5.78577e-06)
(0 -0 -4.87798e-06)
(0 -0 -4.03312e-06)
(0 -0 -3.27815e-06)
(0 -0 -2.61663e-06)
(0 -0 -2.04345e-06)
(0 -0 -1.55087e-06)
(0 -0 -1.13078e-06)
(0 -0 -7.7567e-07)
(0 -0 -4.78939e-07)
(0 -0 -2.34925e-07)
(0 -0 -3.79066e-08)
(0 -0 1.11932e-07)
(0 9.39889e-24 0.000290755)
(0 -0 0.000328701)
(0 -0 0.000368883)
(0 -0 0.000415877)
(0 -0 0.000473472)
(0 -0 0.000545291)
(0 -0 0.000633772)
(0 -0 0.000738991)
(0 -0 0.000857435)
(0 -0 0.000981163)
(0 -0 0.00109788)
(0 -0 0.00119233)
(0 -0 0.00124899)
(0 -0 0.00125562)
(0 -0 0.00120653)
(0 -0 0.00110454)
(0 -0 0.000960729)
(0 -0 0.000792014)
(0 -0 0.000617345)
(0 -0 0.000453705)
(0 -0 0.000313192)
(0 -0 0.000201831)
(0 -0 0.00012007)
(0 -0 6.44007e-05)
(0 -0 2.93173e-05)
(0 -0 8.99442e-06)
(0 -0 -1.63447e-06)
(0 -0 -6.41516e-06)
(0 -0 -7.96366e-06)
(0 -0 -7.89572e-06)
(0 -0 -7.12305e-06)
(0 -0 -6.11546e-06)
(0 -0 -5.09196e-06)
(0 -0 -4.1421e-06)
(0 -0 -3.29477e-06)
(0 -0 -2.5533e-06)
(0 -0 -1.91162e-06)
(0 -0 -1.36084e-06)
(0 -0 -8.91839e-07)
(0 -0 -4.96144e-07)
(0 -0 -1.66305e-07)
(0 -0 1.04144e-07)
(0 -0 3.21865e-07)
(0 -0 4.85172e-07)
(0 4.69095e-24 0.00029737)
(0 -0 0.000323824)
(0 -0 0.000356795)
(0 -0 0.000398725)
(0 -0 0.000453165)
(0 -0 0.000523325)
(0 -0 0.000611588)
(0 -0 0.000718005)
(0 -0 0.000839012)
(0 -0 0.000966529)
(0 -0 0.00108799)
(0 -0 0.00118773)
(0 -0 0.00124971)
(0 -0 0.00126111)
(0 -0 0.00121574)
(0 -0 0.00111607)
(0 -0 0.0009731)
(0 -0 0.000803901)
(0 -0 0.000627763)
(0 -0 0.000462101)
(0 -0 0.000319432)
(0 -0 0.000206099)
(0 -0 0.000122742)
(0 -0 6.59142e-05)
(0 -0 3.00783e-05)
(0 -0 9.32791e-06)
(0 -0 -1.49819e-06)
(0 -0 -6.33063e-06)
(0 -0 -7.84969e-06)
(0 -0 -7.71403e-06)
(0 -0 -6.86085e-06)
(0 -0 -5.77341e-06)
(0 -0 -4.67682e-06)
(0 -0 -3.66276e-06)
(0 -0 -2.76032e-06)
(0 -0 -1.9722e-06)
(0 -0 -1.29146e-06)
(0 -0 -7.08353e-07)
(0 -0 -2.12973e-07)
(0 -0 2.03803e-07)
(0 -0 5.50043e-07)
(0 -0 8.32803e-07)
(0 -0 1.0595e-06)
(0 -0 1.22557e-06)
(0 -0 0.00027904)
(0 -0 0.000295937)
(0 -0 0.000319874)
(0 -0 0.000354101)
(0 -0 0.00040196)
(0 -0 0.000466434)
(0 -0 0.000549763)
(0 -0 0.000651988)
(0 -0 0.000769688)
(0 -0 0.000895066)
(0 -0 0.00101592)
(0 -0 0.00111691)
(0 -0 0.00118222)
(0 -0 0.00119902)
(0 -0 0.00116082)
(0 -0 0.00106955)
(0 -0 0.000935466)
(0 -0 0.000774919)
(0 -0 0.000606574)
(0 -0 0.000447444)
(0 -0 0.000309886)
(0 -0 0.000200302)
(0 -0 0.00011953)
(0 -0 6.43886e-05)
(0 -0 2.96006e-05)
(0 -0 9.47854e-06)
(0 -0 -9.77095e-07)
(0 -0 -5.58899e-06)
(0 -0 -6.97149e-06)
(0 -0 -6.74587e-06)
(0 -0 -5.82937e-06)
(0 -0 -4.69498e-06)
(0 -0 -3.56255e-06)
(0 -0 -2.52089e-06)
(0 -0 -1.59733e-06)
(0 -0 -7.9333e-07)
(0 -0 -1.00987e-07)
(0 -0 4.9019e-07)
(0 -0 9.90692e-07)
(0 -0 1.41012e-06)
(0 -0 1.75696e-06)
(0 -0 2.03866e-06)
(0 -0 2.26309e-06)
(0 -0 2.42528e-06)
(0 -0 0.000246116)
(0 -0 0.000249388)
(0 -0 0.000262685)
(0 -0 0.000287922)
(0 -0 0.000327229)
(0 -0 0.00038333)
(0 -0 0.000458207)
(0 -0 0.000551923)
(0 -0 0.000661389)
(0 -0 0.000779465)
(0 -0 0.000894862)
(0 -0 0.000993269)
(0 -0 0.00105974)
(0 -0 0.00108196)
(0 -0 0.00105336)
(0 -0 0.000975175)
(0 -0 0.000856444)
(0 -0 0.000712026)
(0 -0 0.000559148)
(0 -0 0.000413685)
(0 -0 0.00028733)
(0 -0 0.000186294)
(0 -0 0.000111615)
(0 -0 6.05352e-05)
(0 -0 2.82859e-05)
(0 -0 9.65266e-06)
(0 -0 1.68656e-08)
(0 -0 -4.17141e-06)
(0 -0 -5.34935e-06)
(0 -0 -5.0328e-06)
(0 -0 -4.08103e-06)
(0 -0 -2.93744e-06)
(0 -0 -1.80777e-06)
(0 -0 -7.74443e-07)
(0 -0 1.38065e-07)
(0 -0 9.29618e-07)
(0 -0 1.60885e-06)
(0 -0 2.18668e-06)
(0 -0 2.6739e-06)
(0 -0 3.08031e-06)
(0 -0 3.41457e-06)
(0 -0 3.68427e-06)
(0 -0 3.89742e-06)
(0 -0 4.05098e-06)
(0 -0 0.000189944)
(0 -0 0.000186544)
(0 -0 0.000192705)
(0 -0 0.000210043)
(0 -0 0.00024085)
(0 -0 0.0002876)
(0 -0 0.000352132)
(0 -0 0.000434623)
(0 -0 0.000532483)
(0 -0 0.000639506)
(0 -0 0.000745718)
(0 -0 0.000838311)
(0 -0 0.000903734)
(0 -0 0.000930573)
(0 -0 0.000912423)
(0 -0 0.000849771)
(0 -0 0.00075016)
(0 -0 0.000626481)
(0 -0 0.000493961)
(0 -0 0.000366831)
(0 -0 0.000255735)
(0 -0 0.0001665)
(0 -0 0.000100322)
(0 -0 5.49597e-05)
(0 -0 2.63018e-05)
(0 -0 9.77372e-06)
(0 -0 1.28502e-06)
(0 -0 -2.32832e-06)
(0 -0 -3.24862e-06)
(0 -0 -2.83787e-06)
(0 -0 -1.86985e-06)
(0 -0 -7.44095e-07)
(0 -0 3.5454e-07)
(0 -0 1.35286e-06)
(0 -0 2.23022e-06)
(0 -0 2.98802e-06)
(0 -0 3.63553e-06)
(0 -0 4.18395e-06)
(0 -0 4.64419e-06)
(0 -0 5.02606e-06)
(0 -0 5.33819e-06)
(0 -0 5.58814e-06)
(0 -0 5.78397e-06)
(0 -0 5.92289e-06)
(0 -0 0.000124242)
(0 -0 0.000117939)
(0 -0 0.000119545)
(0 -0 0.000130898)
(0 -0 0.000154211)
(0 -0 0.0001918)
(0 -0 0.000245426)
(0 -0 0.000315448)
(0 -0 0.000399869)
(0 -0 0.000493566)
(0 -0 0.000588105)
(0 -0 0.000672469)
(0 -0 0.00073481)
(0 -0 0.000764912)
(0 -0 0.000756714)
(0 -0 0.000710023)
(0 -0 0.00063078)
(0 -0 0.000529694)
(0 -0 0.000419704)
(0 -0 0.000313109)
(0 -0 0.000219275)
(0 -0 0.000143496)
(0 -0 8.70797e-05)
(0 -0 4.83181e-05)
(0 -0 2.38228e-05)
(0 -0 9.73847e-06)
(0 -0 2.57782e-06)
(0 -0 -3.7717e-07)
(0 -0 -1.01156e-06)
(0 -0 -5.0653e-07)
(0 -0 4.65236e-07)
(0 -0 1.55632e-06)
(0 -0 2.60667e-06)
(0 -0 3.55393e-06)
(0 -0 4.38184e-06)
(0 -0 5.09345e-06)
(0 -0 5.69861e-06)
(0 -0 6.2087e-06)
(0 -0 6.63457e-06)
(0 -0 6.98594e-06)
(0 -0 7.27129e-06)
(0 -0 7.498e-06)
(0 -0 7.67407e-06)
(0 -0 7.79597e-06)
(0 -0 6.13021e-05)
(0 -0 5.39276e-05)
(0 -0 5.29121e-05)
(0 -0 5.99399e-05)
(0 -0 7.70253e-05)
(0 -0 0.000106284)
(0 -0 0.000149389)
(0 -0 0.000206875)
(0 -0 0.000277344)
(0 -0 0.000356783)
(0 -0 0.000438353)
(0 -0 0.000512923)
(0 -0 0.000570479)
(0 -0 0.000602158)
(0 -0 0.000602392)
(0 -0 0.000570433)
(0 -0 0.000510686)
(0 -0 0.000431686)
(0 -0 0.000344038)
(0 -0 0.000258022)
(0 -0 0.000181633)
(0 -0 0.000119549)
(0 -0 7.31238e-05)
(0 -0 4.11519e-05)
(0 -0 2.0955e-05)
(0 -0 9.401e-06)
(0 -0 3.61648e-06)
(0 -0 1.34167e-06)
(0 -0 9.99196e-07)
(0 -0 1.59621e-06)
(0 -0 2.56582e-06)
(0 -0 3.61535e-06)
(0 -0 4.61077e-06)
(0 -0 5.50115e-06)
(0 -0 6.27476e-06)
(0 -0 6.93629e-06)
(0 -0 7.49613e-06)
(0 -0 7.96573e-06)
(0 -0 8.35588e-06)
(0 -0 8.67606e-06)
(0 -0 8.93452e-06)
(0 -0 9.1384e-06)
(0 -0 9.29558e-06)
(0 -0 9.4015e-06)
(0 -0 9.46615e-06)
(0 -0 2.09882e-06)
(0 -0 -2.99264e-07)
(0 -0 3.68356e-06)
(0 -0 1.5774e-05)
(0 -0 3.78299e-05)
(0 -0 7.13916e-05)
(0 -0 0.000117122)
(0 -0 0.000174154)
(0 -0 0.000239507)
(0 -0 0.000307854)
(0 -0 0.000371888)
(0 -0 0.000423402)
(0 -0 0.000454922)
(0 -0 0.000461475)
(0 -0 0.000441911)
(0 -0 0.000399287)
(0 -0 0.00034014)
(0 -0 0.000272878)
(0 -0 0.000205846)
(0 -0 0.000145687)
(0 -0 9.64304e-05)
(0 -0 5.94196e-05)
(0 -0 3.38771e-05)
(0 -0 1.77681e-05)
(0 -0 8.62911e-06)
(0 -0 4.16177e-06)
(0 -0 2.53919e-06)
(0 -0 2.47669e-06)
(0 -0 3.16158e-06)
(0 -0 4.12862e-06)
(0 -0 5.1379e-06)
(0 -0 6.08061e-06)
(0 -0 6.91679e-06)
(0 -0 7.63907e-06)
(0 -0 8.25372e-06)
(0 -0 8.77157e-06)
(0 -0 9.20415e-06)
(0 -0 9.56208e-06)
(0 -0 9.85461e-06)
(0 -0 1.00897e-05)
(0 -0 1.02743e-05)
(0 -0 1.0416e-05)
(0 -0 1.05093e-05)
(0 -0 -2.72105e-05)
(0 -0 -3.39797e-05)
(0 -0 -3.69733e-05)
(0 -0 -3.50742e-05)
(0 -0 -2.6871e-05)
(0 -0 -1.07922e-05)
(0 -0 1.45299e-05)
(0 -0 4.98213e-05)
(0 -0 9.46456e-05)
(0 -0 0.000146908)
(0 -0 0.000202617)
(0 -0 0.000256109)
(0 -0 0.000300844)
(0 -0 0.000330677)
(0 -0 0.000341277)
(0 -0 0.000331253)
(0 -0 0.00030256)
(0 -0 0.00026002)
(0 -0 0.000210108)
(0 -0 0.00015943)
(0 -0 0.000113381)
(0 -0 7.53615e-05)
(0 -0 4.66485e-05)
(0 -0 2.68036e-05)
(0 -0 1.43346e-05)
(0 -0 7.35571e-06)
(0 -0 4.07169e-06)
(0 -0 3.03808e-06)
(0 -0 3.23054e-06)
(0 -0 3.99753e-06)
(0 -0 4.96516e-06)
(0 -0 5.94113e-06)
(0 -0 6.83938e-06)
(0 -0 7.62986e-06)
(0 -0 8.30916e-06)
(0 -0 8.88492e-06)
(0 -0 9.36841e-06)
(0 -0 9.77117e-06)
(0 -0 1.01036e-05)
(0 -0 1.03748e-05)
(0 -0 1.05924e-05)
(0 -0 1.07631e-05)
(0 -0 1.08944e-05)
(0 -0 1.09796e-05)
(0 -0 -4.8474e-05)
(0 -0 -5.43557e-05)
(0 -0 -5.74516e-05)
(0 -0 -5.69167e-05)
(0 -0 -5.16404e-05)
(0 -0 -4.03339e-05)
(0 -0 -2.18218e-05)
(0 -0 4.62752e-06)
(0 -0 3.88949e-05)
(0 -0 7.95982e-05)
(0 -0 0.000123857)
(0 -0 0.000167406)
(0 -0 0.00020516)
(0 -0 0.000232168)
(0 -0 0.000244743)
(0 -0 0.000241395)
(0 -0 0.000223238)
(0 -0 0.000193707)
(0 -0 0.000157671)
(0 -0 0.000120259)
(0 -0 8.5776e-05)
(0 -0 5.7043e-05)
(0 -0 3.52355e-05)
(0 -0 2.01605e-05)
(0 -0 1.07554e-05)
(0 -0 5.6041e-06)
(0 -0 3.32695e-06)
(0 -0 2.79828e-06)
(0 -0 3.2125e-06)
(0 -0 4.05424e-06)
(0 -0 5.02716e-06)
(0 -0 5.97948e-06)
(0 -0 6.84451e-06)
(0 -0 7.60071e-06)
(0 -0 8.24803e-06)
(0 -0 8.7953e-06)
(0 -0 9.25411e-06)
(0 -0 9.63598e-06)
(0 -0 9.95118e-06)
(0 -0 1.02085e-05)
(0 -0 1.04153e-05)
(0 -0 1.0578e-05)
(0 -0 1.07043e-05)
(0 -0 1.07862e-05)
(0 -0 -5.66801e-05)
(0 -0 -6.15755e-05)
(0 -0 -6.44774e-05)
(0 -0 -6.47734e-05)
(0 -0 -6.16163e-05)
(0 -0 -5.39746e-05)
(0 -0 -4.08639e-05)
(0 -0 -2.15894e-05)
(0 -0 3.94464e-06)
(0 -0 3.48957e-05)
(0 -0 6.92602e-05)
(0 -0 0.000103905)
(0 -0 0.000134949)
(0 -0 0.000158469)
(0 -0 0.000171377)
(0 -0 0.000172193)
(0 -0 0.000161434)
(0 -0 0.000141475)
(0 -0 0.000115915)
(0 -0 8.86863e-05)
(0 -0 6.31916e-05)
(0 -0 4.17435e-05)
(0 -0 2.53947e-05)
(0 -0 1.41151e-05)
(0 -0 7.1626e-06)
(0 -0 3.48275e-06)
(0 -0 2.02154e-06)
(0 -0 1.90592e-06)
(0 -0 2.50495e-06)
(0 -0 3.41265e-06)
(0 -0 4.39526e-06)
(0 -0 5.33375e-06)
(0 -0 6.17719e-06)
(0 -0 6.9109e-06)
(0 -0 7.53755e-06)
(0 -0 8.06694e-06)
(0 -0 8.51088e-06)
(0 -0 8.88081e-06)
(0 -0 9.18681e-06)
(0 -0 9.43744e-06)
(0 -0 9.63991e-06)
(0 -0 9.8004e-06)
(0 -0 9.92647e-06)
(0 -0 1.00095e-05)
(0 -0 -5.54565e-05)
(0 -0 -5.9386e-05)
(0 -0 -6.19345e-05)
(0 -0 -6.26773e-05)
(0 -0 -6.0985e-05)
(0 -0 -5.60461e-05)
(0 -0 -4.70514e-05)
(0 -0 -3.33674e-05)
(0 -0 -1.47667e-05)
(0 -0 8.29531e-06)
(0 -0 3.44743e-05)
(0 -0 6.15127e-05)
(0 -0 8.6484e-05)
(0 -0 0.000106308)
(0 -0 0.000118429)
(0 -0 0.000121445)
(0 -0 0.00011548)
(0 -0 0.000102138)
(0 -0 8.40638e-05)
(0 -0 6.42607e-05)
(0 -0 4.54135e-05)
(0 -0 2.94116e-05)
(0 -0 1.71791e-05)
(0 -0 8.78238e-06)
(0 -0 3.70462e-06)
(0 -0 1.15655e-06)
(0 -0 3.27341e-07)
(0 -0 5.34944e-07)
(0 -0 1.28164e-06)
(0 -0 2.24537e-06)
(0 -0 3.24057e-06)
(0 -0 4.17355e-06)
(0 -0 5.0055e-06)
(0 -0 5.72707e-06)
(0 -0 6.34301e-06)
(0 -0 6.86381e-06)
(0 -0 7.30139e-06)
(0 -0 7.66708e-06)
(0 -0 7.97078e-06)
(0 -0 8.22082e-06)
(0 -0 8.42422e-06)
(0 -0 8.58703e-06)
(0 -0 8.71683e-06)
(0 -0 8.80408e-06)
(0 -0 -4.85751e-05)
(0 -0 -5.16304e-05)
(0 -0 -5.37612e-05)
(0 -0 -5.46885e-05)
(0 -0 -5.3955e-05)
(0 -0 -5.09275e-05)
(0 -0 -4.49481e-05)
(0 -0 -3.54541e-05)
(0 -0 -2.21474e-05)
(0 -0 -5.2201e-06)
(0 -0 1.44575e-05)
(0 -0 3.52776e-05)
(0 -0 5.50418e-05)
(0 -0 7.13332e-05)
(0 -0 8.20415e-05)
(0 -0 8.5885e-05)
(0 -0 8.27474e-05)
(0 -0 7.36995e-05)
(0 -0 6.06941e-05)
(0 -0 4.6048e-05)
(0 -0 3.18955e-05)
(0 -0 1.97876e-05)
(0 -0 1.05263e-05)
(0 -0 4.22665e-06)
(0 -0 5.2175e-07)
(0 -0 -1.19239e-06)
(0 -0 -1.55274e-06)
(0 -0 -1.10293e-06)
(0 -0 -2.43287e-07)
(0 -0 7.65909e-07)
(0 -0 1.77468e-06)
(0 -0 2.70803e-06)
(0 -0 3.53611e-06)
(0 -0 4.25347e-06)
(0 -0 4.86635e-06)
(0 -0 5.38568e-06)
(0 -0 5.82341e-06)
(0 -0 6.1907e-06)
(0 -0 6.49725e-06)
(0 -0 6.75116e-06)
(0 -0 6.95932e-06)
(0 -0 7.12764e-06)
(0 -0 7.26378e-06)
(0 -0 7.35738e-06)
(0 -0 -3.92152e-05)
(0 -0 -4.15248e-05)
(0 -0 -4.32382e-05)
(0 -0 -4.41852e-05)
(0 -0 -4.40393e-05)
(0 -0 -4.23063e-05)
(0 -0 -3.8452e-05)
(0 -0 -3.19833e-05)
(0 -0 -2.25722e-05)
(0 -0 -1.0241e-05)
(0 -0 4.46746e-06)
(0 -0 2.04096e-05)
(0 -0 3.59221e-05)
(0 -0 4.90913e-05)
(0 -0 5.8166e-05)
(0 -0 6.19933e-05)
(0 -0 6.03261e-05)
(0 -0 5.38827e-05)
(0 -0 4.41362e-05)
(0 -0 3.29105e-05)
(0 -0 2.19344e-05)
(0 -0 1.2498e-05)
(0 -0 5.29649e-06)
(0 -0 4.62409e-07)
(0 -0 -2.27684e-06)
(0 -0 -3.40118e-06)
(0 -0 -3.42811e-06)
(0 -0 -2.8047e-06)
(0 -0 -1.86265e-06)
(0 -0 -8.1852e-07)
(0 -0 2.02956e-07)
(0 -0 1.14002e-06)
(0 -0 1.96913e-06)
(0 -0 2.68754e-06)
(0 -0 3.30249e-06)
(0 -0 3.82514e-06)
(0 -0 4.26735e-06)
(0 -0 4.64008e-06)
(0 -0 4.95278e-06)
(0 -0 5.21338e-06)
(0 -0 5.42862e-06)
(0 -0 5.60432e-06)
(0 -0 5.74822e-06)
(0 -0 5.84918e-06)
(0 -0 -2.96343e-05)
(0 -0 -3.13391e-05)
(0 -0 -3.26754e-05)
(0 -0 -3.35516e-05)
(0 -0 -3.37374e-05)
(0 -0 -3.28431e-05)
(0 -0 -3.04311e-05)
(0 -0 -2.60706e-05)
(0 -0 -1.94282e-05)
(0 -0 -1.04224e-05)
(0 -0 6.21593e-07)
(0 -0 1.28814e-05)
(0 -0 2.50741e-05)
(0 -0 3.56554e-05)
(0 -0 4.31519e-05)
(0 -0 4.65319e-05)
(0 -0 4.54867e-05)
(0 -0 4.05119e-05)
(0 -0 3.27581e-05)
(0 -0 2.37076e-05)
(0 -0 1.47992e-05)
(0 -0 7.12916e-06)
(0 -0 1.30453e-06)
(0 -0 -2.54217e-06)
(0 -0 -4.62729e-06)
(0 -0 -5.35072e-06)
(0 -0 -5.15049e-06)
(0 -0 -4.40843e-06)
(0 -0 -3.40949e-06)
(0 -0 -2.34032e-06)
(0 -0 -1.30839e-06)
(0 -0 -3.66447e-07)
(0 -0 4.66201e-07)
(0 -0 1.18856e-06)
(0 -0 1.80845e-06)
(0 -0 2.33709e-06)
(0 -0 2.78616e-06)
(0 -0 3.16637e-06)
(0 -0 3.48695e-06)
(0 -0 3.75563e-06)
(0 -0 3.97902e-06)
(0 -0 4.16287e-06)
(0 -0 4.31502e-06)
(0 -0 4.42352e-06)
(0 -0 -2.11585e-05)
(0 -0 -2.23944e-05)
(0 -0 -2.34143e-05)
(0 -0 -2.41816e-05)
(0 -0 -2.45345e-05)
(0 -0 -2.41595e-05)
(0 -0 -2.2692e-05)
(0 -0 -1.97534e-05)
(0 -0 -1.50173e-05)
(0 -0 -8.34261e-06)
(0 -0 8.58387e-08)
(0 -0 9.66115e-06)
(0 -0 1.9364e-05)
(0 -0 2.79136e-05)
(0 -0 3.40438e-05)
(0 -0 3.68272e-05)
(0 -0 3.59335e-05)
(0 -0 3.17225e-05)
(0 -0 2.51341e-05)
(0 -0 1.74191e-05)
(0 -0 9.8149e-06)
(0 -0 3.27767e-06)
(0 -0 -1.65439e-06)
(0 -0 -4.85682e-06)
(0 -0 -6.51388e-06)
(0 -0 -6.97509e-06)
(0 -0 -6.62691e-06)
(0 -0 -5.80814e-06)
(0 -0 -4.77266e-06)
(0 -0 -3.68722e-06)
(0 -0 -2.64785e-06)
(0 -0 -1.70143e-06)
(0 -0 -8.64548e-07)
(0 -0 -1.37175e-07)
(0 -0 4.88776e-07)
(0 -0 1.02442e-06)
(0 -0 1.48122e-06)
(0 -0 1.86962e-06)
(0 -0 2.19859e-06)
(0 -0 2.47567e-06)
(0 -0 2.70737e-06)
(0 -0 2.89937e-06)
(0 -0 3.05959e-06)
(0 -0 3.17527e-06)
(0 -0 -1.43594e-05)
(0 -0 -1.52471e-05)
(0 -0 -1.6017e-05)
(0 -0 -1.66702e-05)
(0 -0 -1.70926e-05)
(0 -0 -1.7025e-05)
(0 -0 -1.61565e-05)
(0 -0 -1.41497e-05)
(0 -0 -1.06908e-05)
(0 -0 -5.60634e-06)
(0 -0 1.00669e-06)
(0 -0 8.68326e-06)
(0 -0 1.65829e-05)
(0 -0 2.36088e-05)
(0 -0 2.86458e-05)
(0 -0 3.08498e-05)
(0 -0 2.98894e-05)
(0 -0 2.60432e-05)
(0 -0 2.01156e-05)
(0 -0 1.32035e-05)
(0 -0 6.40616e-06)
(0 -0 5.81318e-07)
(0 -0 -3.78442e-06)
(0 -0 -6.57673e-06)
(0 -0 -7.96188e-06)
(0 -0 -8.25793e-06)
(0 -0 -7.81814e-06)
(0 -0 -6.95324e-06)
(0 -0 -5.89676e-06)
(0 -0 -4.80241e-06)
(0 -0 -3.75885e-06)
(0 -0 -2.80924e-06)
(0 -0 -1.96861e-06)
(0 -0 -1.23638e-06)
(0 -0 -6.04453e-07)
(0 -0 -6.18761e-08)
(0 -0 4.02519e-07)
(0 -0 7.98889e-07)
(0 -0 1.13594e-06)
(0 -0 1.42106e-06)
(0 -0 1.66063e-06)
(0 -0 1.8603e-06)
(0 -0 2.02803e-06)
(0 -0 2.15022e-06)
(0 -0 -9.2989e-06)
(0 -0 -9.93796e-06)
(0 -0 -1.05205e-05)
(0 -0 -1.10722e-05)
(0 -0 -1.1512e-05)
(0 -0 -1.16188e-05)
(0 -0 -1.11203e-05)
(0 -0 -9.71086e-06)
(0 -0 -7.0903e-06)
(0 -0 -3.06891e-06)
(0 -0 2.31039e-06)
(0 -0 8.67508e-06)
(0 -0 1.53049e-05)
(0 -0 2.12305e-05)
(0 -0 2.54439e-05)
(0 -0 2.71651e-05)
(0 -0 2.60695e-05)
(0 -0 2.23874e-05)
(0 -0 1.68356e-05)
(0 -0 1.04086e-05)
(0 -0 4.11178e-06)
(0 -0 -1.26564e-06)
(0 -0 -5.27422e-06)
(0 -0 -7.80869e-06)
(0 -0 -9.02482e-06)
(0 -0 -9.2206e-06)
(0 -0 -8.72754e-06)
(0 -0 -7.83789e-06)
(0 -0 -6.77175e-06)
(0 -0 -5.67434e-06)
(0 -0 -4.62964e-06)
(0 -0 -3.67856e-06)
(0 -0 -2.83528e-06)
(0 -0 -2.09906e-06)
(0 -0 -1.4619e-06)
(0 -0 -9.13112e-07)
(0 -0 -4.41847e-07)
(0 -0 -3.82503e-08)
(0 -0 3.06142e-07)
(0 -0 5.98538e-07)
(0 -0 8.45258e-07)
(0 -0 1.05187e-06)
(0 -0 1.22636e-06)
(0 -0 1.3543e-06)
(0 -0 -5.75748e-06)
(0 -0 -6.22562e-06)
(0 -0 -6.67375e-06)
(0 -0 -7.14376e-06)
(0 -0 -7.5772e-06)
(0 -0 -7.7795e-06)
(0 -0 -7.50602e-06)
(0 -0 -6.47521e-06)
(0 -0 -4.39956e-06)
(0 -0 -1.08207e-06)
(0 -0 3.46776e-06)
(0 -0 8.93814e-06)
(0 -0 1.46903e-05)
(0 -0 1.98428e-05)
(0 -0 2.34641e-05)
(0 -0 2.48218e-05)
(0 -0 2.35995e-05)
(0 -0 1.99974e-05)
(0 -0 1.46743e-05)
(0 -0 8.5549e-06)
(0 -0 2.58016e-06)
(0 -0 -2.5084e-06)
(0 -0 -6.28753e-06)
(0 -0 -8.65861e-06)
(0 -0 -9.77049e-06)
(0 -0 -9.90745e-06)
(0 -0 -9.38609e-06)
(0 -0 -8.48601e-06)
(0 -0 -7.41817e-06)
(0 -0 -6.32216e-06)
(0 -0 -5.27893e-06)
(0 -0 -4.32813e-06)
(0 -0 -3.48354e-06)
(0 -0 -2.74445e-06)
(0 -0 -2.10311e-06)
(0 -0 -1.54912e-06)
(0 -0 -1.07197e-06)
(0 -0 -6.62121e-07)
(0 -0 -3.11337e-07)
(0 -0 -1.25578e-08)
(0 -0 2.40454e-07)
(0 -0 4.53182e-07)
(0 -0 6.33648e-07)
(0 -0 7.66587e-07)
(0 -0 -3.40681e-06)
(0 -0 -3.76134e-06)
(0 -0 -4.11682e-06)
(0 -0 -4.52548e-06)
(0 -0 -4.94443e-06)
(0 -0 -5.19799e-06)
(0 -0 -5.06171e-06)
(0 -0 -4.27227e-06)
(0 -0 -2.55309e-06)
(0 -0 2.95485e-07)
(0 -0 4.28515e-06)
(0 -0 9.14514e-06)
(0 -0 1.42933e-05)
(0 -0 1.89105e-05)
(0 -0 2.21204e-05)
(0 -0 2.3225e-05)
(0 -0 2.19152e-05)
(0 -0 1.83706e-05)
(0 -0 1.32089e-05)
(0 -0 7.30516e-06)
(0 -0 1.55463e-06)
(0 -0 -3.33503e-06)
(0 -0 -6.95883e-06)
(0 -0 -9.22235e-06)
(0 -0 -1.02689e-05)
(0 -0 -1.03723e-05)
(0 -0 -9.83823e-06)
(0 -0 -8.93688e-06)
(0 -0 -7.87269e-06)
(0 -0 -6.78131e-06)
(0 -0 -5.7417e-06)
(0 -0 -4.79275e-06)
(0 -0 -3.94814e-06)
(0 -0 -3.20735e-06)
(0 -0 -2.5629e-06)
(0 -0 -2.00477e-06)
(0 -0 -1.52278e-06)
(0 -0 -1.10769e-06)
(0 -0 -7.51476e-07)
(0 -0 -4.47225e-07)
(0 -0 -1.88785e-07)
(0 -0 2.92509e-08)
(0 -0 2.14925e-07)
(0 -0 3.52169e-07)
(0 -0 -1.9172e-06)
(0 -0 -2.19842e-06)
(0 -0 -2.49197e-06)
(0 -0 -2.85665e-06)
(0 -0 -3.26066e-06)
(0 -0 -3.54231e-06)
(0 -0 -3.49218e-06)
(0 -0 -2.86114e-06)
(0 -0 -1.38189e-06)
(0 -0 1.14569e-06)
(0 -0 4.74751e-06)
(0 -0 9.18205e-06)
(0 -0 1.39085e-05)
(0 -0 1.8154e-05)
(0 -0 2.10827e-05)
(0 -0 2.20229e-05)
(0 -0 2.06701e-05)
(0 -0 1.71879e-05)
(0 -0 1.21624e-05)
(0 -0 6.43122e-06)
(0 -0 8.54832e-07)