/*--------------------------------*- C++ -*----------------------------------*\
| =========                 |                                                 |
| \\      /  F ield         | OpenFOAM: The Open Source CFD Toolbox           |
|  \\    /   O peration     | Version:  2412                                  |
|   \\  /    A nd           | Website:  www.openfoam.com                      |
|    \\/     M anipulation  |                                                 |
\*---------------------------------------------------------------------------*/
FoamFile
{
    version     2.0;
    format      ascii;
    arch        "LSB;label=32;scalar=64";
    class       volVectorField;
    location    "13";
    object      U;
}
// * * * * * * * * * * * * * * * * * * * * * * * * * * * * * * * * * * * * * //

dimensions      [0 1 -1 0 0 0 0];

internalField   nonuniform List<vector> 
5285
(
(0.107964 -0.000123745 0)
(0.107963 0.000117781 0)
(0.107949 0.000359712 0)
(0.107924 0.000601631 0)
(0.107886 0.000842946 0)
(0.107837 0.00108293 0)
(0.107776 0.00132077 0)
(0.107703 0.00155563 0)
(0.10762 0.00178656 0)
(0.107527 0.00201261 0)
(0.107424 0.00223273 0)
(0.107312 0.00244591 0)
(0.107191 0.00265115 0)
(0.107063 0.00284749 0)
(0.106927 0.0030341 0)
(0.106785 0.00321024 0)
(0.106637 0.00337534 0)
(0.106483 0.00352897 0)
(0.106324 0.00367086 0)
(0.106161 0.00380092 0)
(0.105994 0.00391919 0)
(0.105824 0.00402585 0)
(0.105651 0.0041212 0)
(0.105476 0.00420563 0)
(0.108205 -0.000129088 0)
(0.108204 0.000125358 0)
(0.108189 0.000380028 0)
(0.108161 0.000634512 0)
(0.108121 0.000888191 0)
(0.108067 0.00114025 0)
(0.108002 0.0013898 0)
(0.107924 0.00163592 0)
(0.107835 0.00187762 0)
(0.107736 0.00211387 0)
(0.107626 0.00234359 0)
(0.107507 0.00256573 0)
(0.107379 0.00277928 0)
(0.107243 0.00298328 0)
(0.107099 0.00317691 0)
(0.106949 0.00335945 0)
(0.106792 0.00353034 0)
(0.10663 0.00368918 0)
(0.106463 0.00383574 0)
(0.106292 0.00396991 0)
(0.106116 0.00409175 0)
(0.105937 0.00420144 0)
(0.105756 0.00429928 0)
(0.105572 0.00438563 0)
(0.108461 -0.00013428 0)
(0.108459 0.000133925 0)
(0.108442 0.0004022 0)
(0.108412 0.000670109 0)
(0.108368 0.00093697 0)
(0.108311 0.00120187 0)
(0.10824 0.00146385 0)
(0.108157 0.00172189 0)
(0.108062 0.00197494 0)
(0.107956 0.00222189 0)
(0.107839 0.00246165 0)
(0.107712 0.00269313 0)
(0.107576 0.00291529 0)
(0.107431 0.00312721 0)
(0.107279 0.00332805 0)
(0.10712 0.00351715 0)
(0.106954 0.00369397 0)
(0.106783 0.00385813 0)
(0.106607 0.00400944 0)
(0.106426 0.0041478 0)
(0.106241 0.00427328 0)
(0.106053 0.00438606 0)
(0.105862 0.00448642 0)
(0.105669 0.00457471 0)
(0.108731 -0.000139455 0)
(0.108728 0.000143458 0)
(0.10871 0.000426297 0)
(0.108677 0.000708564 0)
(0.10863 0.0009895 0)
(0.108568 0.0012681 0)
(0.108493 0.00154328 0)
(0.108404 0.00181396 0)
(0.108302 0.002079 0)
(0.108188 0.00233725 0)
(0.108063 0.00258755 0)
(0.107928 0.00282879 0)
(0.107783 0.00305993 0)
(0.107629 0.00328005 0)
(0.107467 0.00348836 0)
(0.107298 0.0036842 0)
(0.107123 0.00386709 0)
(0.106942 0.00403669 0)
(0.106755 0.00419283 0)
(0.106564 0.00433544 0)
(0.106369 0.0044646 0)
(0.106171 0.00458049 0)
(0.10597 0.00468337 0)
(0.105766 0.00477358 0)
(0.109016 -0.000144731 0)
(0.109013 0.000153946 0)
(0.108993 0.000452386 0)
(0.108958 0.000750022 0)
(0.108907 0.00104601 0)
(0.108841 0.00133922 0)
(0.10876 0.00162848 0)
(0.108664 0.0019126 0)
(0.108555 0.00219037 0)
(0.108433 0.00246056 0)
(0.1083 0.00272197 0)
(0.108155 0.00297347 0)
(0.108001 0.00321402 0)
(0.107837 0.0034427 0)
(0.107665 0.00365874 0)
(0.107485 0.00386155 0)
(0.107299 0.00405068 0)
(0.107106 0.00422584 0)
(0.106909 0.00438688 0)
(0.106706 0.00453379 0)
(0.1065 0.00466664 0)
(0.106291 0.00478561 0)
(0.106078 0.00489095 0)
(0.105864 0.004983 0)
(0.109318 -0.00015021 0)
(0.109315 0.000165378 0)
(0.109293 0.000480545 0)
(0.109255 0.000794648 0)
(0.1092 0.00110674 0)
(0.109129 0.00141558 0)
(0.109042 0.00171987 0)
(0.10894 0.00201832 0)
(0.108823 0.00230963 0)
(0.108693 0.0025925 0)
(0.10855 0.00286568 0)
(0.108395 0.00312802 0)
(0.10823 0.00337846 0)
(0.108055 0.0036161 0)
(0.107871 0.00384022 0)
(0.10768 0.00405025 0)
(0.107481 0.00424581 0)
(0.107277 0.00442665 0)
(0.107067 0.00459267 0)
(0.106852 0.00474389 0)
(0.106634 0.0048804 0)
(0.106412 0.00500238 0)
(0.106188 0.00511009 0)
(0.105961 0.00520382 0)
(0.109638 -0.000156003 0)
(0.109635 0.000177742 0)
(0.109611 0.000510859 0)
(0.10957 0.000842625 0)
(0.109511 0.00117199 0)
(0.109435 0.00149756 0)
(0.109341 0.00181793 0)
(0.109232 0.0021317 0)
(0.109106 0.00243746 0)
(0.108967 0.00273383 0)
(0.108814 0.00301953 0)
(0.108648 0.00329335 0)
(0.108471 0.00355424 0)
(0.108284 0.00380132 0)
(0.108088 0.00403389 0)
(0.107883 0.00425144 0)
(0.107672 0.00445364 0)
(0.107454 0.0046403 0)
(0.10723 0.00481137 0)
(0.107002 0.00496688 0)
(0.10677 0.00510699 0)
(0.106535 0.00523186 0)
(0.106297 0.00534174 0)
(0.106058 0.00543694 0)
(0.109978 -0.000162225 0)
(0.109975 0.000191036 0)
(0.109948 0.000543437 0)
(0.109904 0.000894173 0)
(0.109841 0.00124207 0)
(0.109759 0.0015856 0)
(0.109659 0.00192321 0)
(0.109541 0.00225337 0)
(0.109406 0.00257458 0)
(0.109256 0.00288539 0)
(0.109092 0.00318443 0)
(0.108914 0.00347047 0)
(0.108725 0.00374245 0)
(0.108524 0.00399951 0)
(0.108314 0.00424096 0)
(0.108096 0.00446637 0)
(0.107869 0.00467544 0)
(0.107637 0.00486805 0)
(0.107398 0.00504421 0)
(0.107156 0.00520399 0)
(0.106909 0.00534757 0)
(0.106659 0.00547515 0)
(0.106407 0.00558697 0)
(0.106154 0.00568334 0)
(0.110338 -0.000168988 0)
(0.110334 0.000205272 0)
(0.110306 0.000578419 0)
(0.110258 0.000949551 0)
(0.110191 0.00131737 0)
(0.110103 0.00168019 0)
(0.109995 0.0020363 0)
(0.109868 0.00238406 0)
(0.109723 0.00272184 0)
(0.109562 0.0030481 0)
(0.109386 0.00336141 0)
(0.109195 0.00366049 0)
(0.108992 0.00394427 0)
(0.108777 0.0042119 0)
(0.108551 0.00446273 0)
(0.108317 0.00469635 0)
(0.108075 0.00491255 0)
(0.107826 0.00511125 0)
(0.107572 0.00529253 0)
(0.107312 0.00545652 0)
(0.10705 0.00560341 0)
(0.106784 0.00573345 0)
(0.106517 0.00584689 0)
(0.106249 0.00594404 0)
(0.11072 -0.000176398 0)
(0.110716 0.000220488 0)
(0.110685 0.000615978 0)
(0.110634 0.00100907 0)
(0.110562 0.00139833 0)
(0.110467 0.0017819 0)
(0.110351 0.00215791 0)
(0.110214 0.00252458 0)
(0.110059 0.00288015 0)
(0.109885 0.00322299 0)
(0.109696 0.00355158 0)
(0.109491 0.00386462 0)
(0.109272 0.00416099 0)
(0.109041 0.00443984 0)
(0.108799 0.00470057 0)
(0.108548 0.00494281 0)
(0.108288 0.0051664 0)
(0.108022 0.00537133 0)
(0.10775 0.00555774 0)
(0.107473 0.00572582 0)
(0.107193 0.00587582 0)
(0.10691 0.00600801 0)
(0.106626 0.00612268 0)
(0.106341 0.00622013 0)
(0.111125 -0.000184548 0)
(0.111122 0.00023675 0)
(0.111088 0.000656339 0)
(0.111033 0.00107311 0)
(0.110955 0.00148548 0)
(0.110853 0.0018914 0)
(0.110728 0.00228884 0)
(0.110581 0.00267585 0)
(0.110413 0.00305056 0)
(0.110227 0.00341121 0)
(0.110022 0.00375621 0)
(0.109802 0.00408418 0)
(0.109566 0.00439399 0)
(0.109318 0.00468479 0)
(0.109058 0.00495599 0)
(0.108788 0.00520727 0)
(0.108509 0.00543852 0)
(0.108224 0.00564981 0)
(0.107932 0.00584134 0)
(0.107637 0.00601336 0)
(0.107338 0.00616619 0)
(0.107037 0.00630014 0)
(0.106734 0.00641555 0)
(0.106432 0.00651275 0)
(0.111557 -0.000193522 0)
(0.111553 0.000254155 0)
(0.111517 0.000699775 0)
(0.111458 0.00114212 0)
(0.111373 0.00157943 0)
(0.111263 0.00200947 0)
(0.111128 0.00243001 0)
(0.110969 0.00283894 0)
(0.110789 0.00323424 0)
(0.110587 0.00361404 0)
(0.110367 0.00397665 0)
(0.110129 0.00432063 0)
(0.109875 0.0046448 0)
(0.109608 0.00494831 0)
(0.109328 0.00523058 0)
(0.109038 0.00549134 0)
(0.108739 0.00573053 0)
(0.108432 0.00594828 0)
(0.10812 0.00614488 0)
(0.107803 0.00632065 0)
(0.107484 0.00647597 0)
(0.107163 0.00661122 0)
(0.106841 0.00672679 0)
(0.106521 0.00682308 0)
(0.112016 -0.000203386 0)
(0.112012 0.000272841 0)
(0.111972 0.000746623 0)
(0.111908 0.00121661 0)
(0.111817 0.00168088 0)
(0.111698 0.00213697 0)
(0.111552 0.00258244 0)
(0.11138 0.00301501 0)
(0.111185 0.00343251 0)
(0.110968 0.00383291 0)
(0.11073 0.00421444 0)
(0.110473 0.00457557 0)
(0.1102 0.0049151 0)
(0.109911 0.00523212 0)
(0.10961 0.0055261 0)
(0.109298 0.00579678 0)
(0.108976 0.00604416 0)
(0.108647 0.00626846 0)
(0.108312 0.00647003 0)
(0.107973 0.00664929 0)
(0.107632 0.00680669 0)
(0.107289 0.00694269 0)
(0.106947 0.00705777 0)
(0.106606 0.00715236 0)
(0.112504 -0.000214193 0)
(0.112501 0.000292988 0)
(0.112457 0.000797286 0)
(0.112388 0.00129721 0)
(0.112289 0.00179066 0)
(0.11216 0.00227492 0)
(0.112002 0.00274733 0)
(0.111816 0.00320542 0)
(0.111605 0.00364683 0)
(0.11137 0.00406942 0)
(0.111113 0.00447128 0)
(0.110835 0.00485079 0)
(0.11054 0.0052067 0)
(0.110229 0.00553809 0)
(0.109904 0.00584442 0)
(0.109567 0.00612546 0)
(0.109221 0.00638128 0)
(0.108868 0.00661217 0)
(0.108508 0.00681856 0)
(0.108145 0.00700097 0)
(0.10778 0.00715995 0)
(0.107414 0.00729607 0)
(0.10705 0.00740987 0)
(0.106688 0.0075019 0)
(0.113025 -0.00022598 0)
(0.113022 0.00031482 0)
(0.112974 0.000852239 0)
(0.112898 0.00138464 0)
(0.112791 0.00190971 0)
(0.112651 0.00242447 0)
(0.112479 0.00292603 0)
(0.112278 0.00341167 0)
(0.112049 0.00387889 0)
(0.111794 0.00432535 0)
(0.111516 0.00474904 0)
(0.111216 0.00514824 0)
(0.110897 0.00552163 0)
(0.110561 0.00586826 0)
(0.11021 0.00618758 0)
(0.109847 0.00647942 0)
(0.109474 0.00674389 0)
(0.109094 0.00698136 0)
(0.108709 0.00719235 0)
(0.108319 0.0073775 0)
(0.107929 0.00753748 0)
(0.107538 0.00767295 0)
(0.10715 0.00778459 0)
(0.106765 0.00787305 0)
(0.113581 -0.000238769 0)
(0.113578 0.000338611 0)
(0.113525 0.000912038 0)
(0.113442 0.00147972 0)
(0.113326 0.0020391 0)
(0.113173 0.00258693 0)
(0.112987 0.00312003 0)
(0.112768 0.00363547 0)
(0.112519 0.00413052 0)
(0.112243 0.0046027 0)
(0.111941 0.00504982 0)
(0.111616 0.00547009 0)
(0.111271 0.0058621 0)
(0.110907 0.00622486 0)
(0.110529 0.00655785 0)
(0.110137 0.00686088 0)
(0.109736 0.00713416 0)
(0.109327 0.00737812 0)
(0.108912 0.00759342 0)
(0.108495 0.0077808 0)
(0.108077 0.00794106 0)
(0.10766 0.00807502 0)
(0.107246 0.00818348 0)
(0.106836 0.00826723 0)
(0.114176 -0.000252568 0)
(0.114171 0.000364695 0)
(0.114113 0.000977347 0)
(0.114023 0.00158341 0)
(0.113896 0.00218009 0)
(0.113729 0.00276381 0)
(0.113526 0.0033311 0)
(0.113288 0.00387876 0)
(0.113018 0.00440384 0)
(0.112717 0.00490369 0)
(0.11239 0.00537597 0)
(0.112037 0.00581875 0)
(0.111663 0.00623056 0)
(0.111269 0.00661039 0)
(0.11086 0.00695765 0)
(0.110438 0.00727225 0)
(0.110005 0.00755443 0)
(0.109564 0.00780474 0)
(0.109119 0.00802394 0)
(0.108672 0.00821292 0)
(0.108224 0.00837264 0)
(0.107778 0.00850407 0)
(0.107337 0.00860818 0)
(0.106901 0.00868593 0)
(0.114811 -0.000267301 0)
(0.114806 0.000393525 0)
(0.114741 0.00104893 0)
(0.114643 0.00169682 0)
(0.114503 0.00233411 0)
(0.114322 0.00295682 0)
(0.1141 0.00356118 0)
(0.11384 0.00414371 0)
(0.113546 0.00470122 0)
(0.113219 0.00523084 0)
(0.112862 0.00573009 0)
(0.11248 0.00619691 0)
(0.112074 0.00662976 0)
(0.111648 0.00702754 0)
(0.111205 0.00738974 0)
(0.110748 0.00771619 0)
(0.110281 0.00800729 0)
(0.109807 0.00826368 0)
(0.109328 0.00848626 0)
(0.108848 0.00867607 0)
(0.108369 0.00883426 0)
(0.107893 0.00896199 0)
(0.107422 0.00906042 0)
(0.106959 0.00913071 0)
(0.112042 0.00747935 0)
(0.111562 0.00785699 0)
(0.111069 0.00819559 0)
(0.110565 0.00849552 0)
(0.110054 0.0087576 0)
(0.109539 0.00898289 0)
(0.109024 0.00917261 0)
(0.10851 0.00932812 0)
(0.108001 0.00945079 0)
(0.1075 0.00954202 0)
(0.107007 0.00960318 0)
(0.107652 -0.001674 -1.22605e-25)
(0.107728 -0.0014635 -2.15927e-25)
(0.107793 -0.00124871 -4.31117e-25)
(0.107849 -0.00103017 9.44768e-25)
(0.107894 -0.000808424 -1.12461e-24)
(0.107928 -0.000584058 -3.97494e-24)
(0.107951 -0.000357593 6.61214e-25)
(0.107862 -0.00175549 -1.63228e-25)
(0.107943 -0.00153468 -5.20594e-25)
(0.108013 -0.00130936 -1.58235e-24)
(0.108074 -0.00108014 -5.2215e-25)
(0.108123 -0.000847603 1.20794e-24)
(0.108162 -0.000612396 1.95395e-24)
(0.108191 -0.000375056 7.62182e-24)
(0.108082 -0.00184205 -4.88036e-26)
(0.108169 -0.00161025 -5.07134e-25)
(0.108245 -0.00137372 2.00644e-24)
(0.108311 -0.0011331 -9.37492e-26)
(0.108365 -0.000889027 6.39917e-24)
(0.108409 -0.000642182 7.94879e-25)
(0.108443 -0.000393105 -6.87536e-24)
(0.108313 -0.00193407 2.5993e-25)
(0.108406 -0.00169061 1.62877e-25)
(0.108488 -0.00144217 -5.95012e-24)
(0.10856 -0.00118942 7.24545e-25)
(0.10862 -0.000933027 -1.38809e-23)
(0.10867 -0.00067373 1.51735e-23)
(0.10871 -0.000412046 9.88378e-25)
(0.108556 -0.00203204 3.10665e-25)
(0.108655 -0.00177617 -3.10404e-25)
(0.108744 -0.00151504 1.34128e-23)
(0.108822 -0.00124937 1.01363e-25)
(0.108889 -0.000979861 6.46074e-24)
(0.108945 -0.00070727 -1.50752e-23)
(0.108991 -0.000432079 1.83909e-23)
(0.108811 -0.00213646 -3.64174e-25)
(0.108918 -0.00186739 -4.79004e-25)
(0.109014 -0.00159276 -6.83801e-24)
(0.109099 -0.00131333 1.69682e-23)
(0.109173 -0.00102983 1.05334e-24)
(0.109235 -0.000743046 1.90015e-23)
(0.109289 -0.000453386 -1.83114e-23)
(0.109079 -0.00224795 -1.25836e-24)
(0.109194 -0.0019648 -1.3812e-24)
(0.109298 -0.00167579 -1.1494e-25)
(0.109391 -0.00138169 -3.39494e-23)
(0.109472 -0.00108328 -1.1814e-24)
(0.109542 -0.000781334 -4.41365e-23)
(0.109605 -0.000476166 -4.66144e-23)
(0.109361 -0.0023671 1.19602e-24)
(0.109484 -0.00206897 4.80329e-25)
(0.109597 -0.00176464 1.20459e-24)
(0.109699 -0.0014549 1.92467e-23)
(0.109789 -0.00114057 1.09383e-25)
(0.109867 -0.000822436 6.92715e-23)
(0.109939 -0.000500638 4.96451e-23)
(0.109658 -0.00249462 5.43644e-25)
(0.109791 -0.00218053 8.02132e-24)
(0.109913 -0.00185985 2.28669e-23)
(0.110024 -0.00153344 -1.4621e-24)
(0.110123 -0.00120212 1.46189e-24)
(0.110211 -0.000866675 -4.97854e-23)
(0.110293 -0.000527028 0)
(0.10997 -0.00263129 0)
(0.110113 -0.00230015 -1.11263e-23)
(0.110246 -0.00196204 -2.17605e-23)
(0.110368 -0.00161782 2.92304e-23)
(0.110477 -0.00126836 -3.35123e-24)
(0.110575 -0.000914395 -6.02958e-23)
(0.110668 -0.000555569 6.57e-23)
(0.110299 -0.00277794 6.81733e-25)
(0.110454 -0.0024286 -1.27979e-23)
(0.110598 -0.00207186 0)
(0.110731 -0.00170863 -2.61187e-23)
(0.110852 -0.00133977 -6.18356e-23)
(0.110961 -0.000965962 -7.71208e-24)
(0.111066 -0.000586504 -1.31856e-22)
(0.110646 -0.00293548 -7.5727e-25)
(0.110813 -0.0025667 1.11937e-23)
(0.11097 -0.00219006 -1.43108e-25)
(0.111116 -0.00180648 -1.37925e-25)
(0.111249 -0.00141685 6.3821e-23)
(0.11137 -0.00102177 1.35975e-22)
(0.11149 -0.000620081 1.48619e-22)
(0.111012 -0.00310493 6.72548e-24)
(0.111193 -0.00271536 0)
(0.111364 -0.00231741 0)
(0.111523 -0.00191205 6.914e-23)
(0.11167 -0.00150016 -7.17508e-23)
(0.111805 -0.00108223 -1.53286e-22)
(0.11194 -0.000656556 -7.65326e-23)
(0.111399 -0.00328741 -1.50565e-23)
(0.111595 -0.00287557 9.24295e-25)
(0.11178 -0.0024548 3.72976e-23)
(0.111955 -0.00202609 -1.44524e-22)
(0.112117 -0.0015903 7.42143e-23)
(0.112267 -0.0011478 7.37366e-23)
(0.112418 -0.000696197 2.65216e-24)
(0.111807 -0.00348417 8.4213e-24)
(0.11202 -0.00304845 -3.21922e-24)
(0.112222 -0.00260319 -3.28834e-23)
(0.112413 -0.0021494 1.57966e-22)
(0.112591 -0.00168793 0)
(0.112758 -0.00121896 9.06191e-23)
(0.112928 -0.000739282 2.89011e-24)
(0.112239 -0.00369657 7.83582e-24)
(0.11247 -0.00323523 -1.29426e-24)
(0.112691 -0.00276366 -8.13675e-23)
(0.1129 -0.00228292 -1.69445e-22)
(0.113096 -0.0017938 1.62954e-25)
(0.113281 -0.00129626 1.06814e-22)
(0.113472 -0.000786118 2.14729e-22)
(0.112697 -0.00392616 -7.71748e-24)
(0.112948 -0.00343729 4.12026e-23)
(0.113188 -0.00293741 1.77825e-22)
(0.113417 -0.00242764 8.69468e-23)
(0.113634 -0.00190871 1.04189e-22)
(0.113839 -0.00138029 -4.28248e-22)
(0.114053 -0.000836997 -4.45224e-22)
(0.113181 -0.00417466 -1.32904e-24)
(0.113454 -0.00365614 -9.01486e-23)
(0.113717 -0.0031258 -9.14094e-23)
(0.113968 -0.00258469 -1.8969e-25)
(0.114207 -0.00203355 -2.14168e-22)
(0.114434 -0.00147166 2.17787e-22)
(0.114674 -0.000892249 2.37685e-22)
(0.113695 -0.00444393 1.44947e-24)
(0.113992 -0.0038935 4.16195e-23)
(0.114279 -0.00333027 3.13044e-24)
(0.114555 -0.00275533 0)
(0.114818 -0.00216934 1.17064e-22)
(0.11507 -0.0015711 2.53178e-22)
(0.115338 -0.000952215 4.04443e-24)
(0.114241 -0.00473611 -1.57902e-24)
(0.114565 -0.00415125 5.63915e-23)
(0.106884 -0.00298626 -5.09496e-25)
(0.107016 -0.00281887 -7.83526e-25)
(0.107141 -0.00264427 -1.1462e-25)
(0.10726 -0.00246267 -4.62267e-25)
(0.107371 -0.00227445 1.02228e-26)
(0.107473 -0.00207996 4.84035e-26)
(0.107567 -0.00187965 -2.07009e-26)
(0.107056 -0.00313224 3.40592e-24)
(0.107193 -0.00295641 2.15108e-24)
(0.107324 -0.00277319 -9.66092e-25)
(0.107448 -0.00258272 1.02724e-25)
(0.107564 -0.00238531 3.63306e-26)
(0.107672 -0.00218133 1.88223e-25)
(0.107772 -0.00197122 1.09585e-25)
(0.107235 -0.00328704 -3.86807e-24)
(0.107379 -0.00310248 -2.66845e-25)
(0.107515 -0.00291024 2.44997e-24)
(0.107645 -0.00271045 1.20152e-25)
(0.107767 -0.00250319 1.43356e-25)
(0.107881 -0.00228905 1.80873e-25)
(0.107986 -0.0020685 -2.12189e-25)
(0.107423 -0.00345133 -3.24549e-25)
(0.107572 -0.00325763 3.89623e-24)
(0.107715 -0.00305583 -2.12142e-24)
(0.107851 -0.00284606 5.30073e-26)
(0.107979 -0.00262847 1.38811e-24)
(0.108099 -0.00240356 -7.06303e-25)
(0.108211 -0.00217191 -2.53391e-25)
(0.107618 -0.00362652 4.86152e-24)
(0.107774 -0.00342286 -3.83124e-24)
(0.107923 -0.00321073 7.51435e-25)
(0.108066 -0.00299022 -1.28755e-25)
(0.108201 -0.00276165 -3.1056e-24)
(0.108329 -0.00252537 -1.9344e-25)
(0.108447 -0.00228197 5.93403e-25)
(0.107821 -0.00381314 -4.80045e-24)
(0.107985 -0.0035989 1.29849e-24)
(0.108141 -0.00337582 9.23057e-26)
(0.108291 -0.00314396 -3.15681e-24)
(0.108434 -0.00290358 2.10688e-24)
(0.108569 -0.00265517 -2.0084e-24)
(0.108695 -0.00239927 -2.4268e-25)
(0.108033 -0.00401215 -4.52328e-24)
(0.108205 -0.00378665 -7.93867e-25)
(0.108369 -0.00355191 -1.80988e-25)
(0.108527 -0.00330798 8.58249e-24)
(0.108678 -0.00305509 1.35788e-25)
(0.108821 -0.00279376 1.13988e-24)
(0.108954 -0.00252449 1.71568e-24)
(0.108254 -0.00422458 2.61129e-24)
(0.108435 -0.00398709 -3.60617e-24)
(0.108607 -0.00373991 -1.45252e-25)
(0.108773 -0.00348309 -4.93433e-24)
(0.108933 -0.00321687 4.19233e-25)
(0.109085 -0.00294175 3.49012e-25)
(0.109228 -0.00265826 -1.76812e-24)
(0.108485 -0.0044516 2.78862e-24)
(0.108675 -0.00420128 3.28126e-24)
(0.108855 -0.00394083 3.74277e-25)
(0.109031 -0.00367027 -3.74376e-25)
(0.109201 -0.0033898 -9.81938e-24)
(0.109362 -0.00309994 -7.50761e-24)
(0.109515 -0.00280133 4.06923e-25)
(0.108725 -0.00469443 -8.26923e-25)
(0.108925 -0.00443041 9.64375e-24)
(0.109116 -0.00415579 -8.02686e-25)
(0.109302 -0.00387056 -8.73024e-24)
(0.109482 -0.00357491 1.06327e-23)
(0.109654 -0.00326937 5.63378e-24)
(0.109816 -0.00295461 0)
(0.108975 -0.00495445 7.3508e-24)
(0.109187 -0.00467579 3.12377e-24)
(0.109388 -0.00438602 1.81786e-23)
(0.109585 -0.00408513 9.84093e-24)
(0.109777 -0.00377327 0)
(0.10996 -0.003451 7.92891e-24)
(0.110134 -0.00311899 5.32961e-25)
(0.109236 -0.00523317 -1.71825e-23)
(0.10946 -0.00493883 -2.97425e-23)
(0.109673 -0.00463287 -1.74754e-23)
(0.109882 -0.00431524 2.76533e-23)
(0.110086 -0.00398606 1.6641e-25)
(0.110282 -0.00364591 -8.89034e-24)
(0.110469 -0.00329548 -6.01784e-25)
(0.109508 -0.00553223 1.04669e-23)
(0.109746 -0.00522111 3.61771e-23)
(0.109971 -0.00489782 2.66989e-23)
(0.110194 -0.00456228 -5.92258e-23)
(0.110411 -0.00421459 0)
(0.11062 -0.00385532 0)
(0.110821 -0.00348519 -6.05822e-24)
(0.109792 -0.00585348 5.99593e-25)
(0.110044 -0.00552437 -2.1741e-23)
(0.110283 -0.00518252 -2.62348e-23)
(0.110521 -0.00482781 6.78497e-23)
(0.110753 -0.00446029 -1.99631e-23)
(0.110977 -0.00408057 7.53395e-25)
(0.111192 -0.00368936 1.20143e-23)
(0.110088 -0.00619892 7.28085e-25)
(0.110356 -0.00585052 -2.95126e-23)
(0.11061 -0.00548877 0)
(0.110864 -0.00511352 -7.74158e-23)
(0.111112 -0.00472478 2.25822e-23)
(0.111353 -0.00432314 -2.32333e-24)
(0.111585 -0.00390935 -5.87212e-24)
(0.110396 -0.00657081 -5.23481e-23)
(0.110682 -0.00620169 -3.91504e-23)
(0.110953 -0.0058186 -2.02976e-25)
(0.111224 -0.00542133 8.86813e-23)
(0.11149 -0.00500982 5.44262e-23)
(0.111749 -0.00458468 2.88366e-23)
(0.111999 -0.00414667 -9.09871e-24)
(0.110717 -0.00697157 1.15068e-22)
(0.111023 -0.00658023 1.4288e-22)
(0.111312 -0.00617423 0)
(0.111602 -0.00575333 -4.79191e-23)
(0.111888 -0.00531739 -1.09671e-22)
(0.112166 -0.00486704 -6.31741e-23)
(0.112436 -0.00440303 9.18063e-24)
(0.111051 -0.007404 -6.05633e-23)
(0.111378 -0.00698867 -7.81305e-23)
(0.111688 -0.00655813 5.23119e-23)
(0.111999 -0.00611185 2.24899e-25)
(0.112307 -0.00564969 5.87498e-23)
(0.112607 -0.00517221 3.16789e-23)
(0.112899 -0.00468031 -1.11998e-24)
(0.111398 -0.00787105 1.33631e-24)
(0.11175 -0.0074301 -1.01809e-22)
(0.112082 -0.00697298 -4.9169e-23)
(0.112417 -0.00649948 0)
(0.112749 -0.00600912 2.24064e-24)
(0.113073 -0.00550257 -3.46291e-24)
(0.113389 -0.00498051 1.2285e-24)
(0.113565 -0.00586053 1.34771e-24)
(0.113907 -0.00530619 -1.345e-24)
(0.101592 -0.00405968 0)
(0.101698 -0.00411552 0)
(0.101809 -0.0041695 0)
(0.101924 -0.00422126 0)
(0.102043 -0.0042705 0)
(0.102167 -0.00431694 0)
(0.102295 -0.00436027 0)
(0.102427 -0.00440019 0)
(0.102564 -0.00443638 0)
(0.102705 -0.00446848 0)
(0.10285 -0.00449615 0)
(0.102999 -0.00451904 0)
(0.103152 -0.00453678 0)
(0.103309 -0.00454901 0)
(0.103469 -0.00455536 0)
(0.103633 -0.00455546 0)
(0.1038 -0.00454895 0)
(0.103971 -0.00453547 0)
(0.104143 -0.00451467 0)
(0.104318 -0.00448622 0)
(0.104495 -0.00444979 0)
(0.104674 -0.00440507 0)
(0.104853 -0.00435177 0)
(0.105034 -0.00428964 0)
(0.105214 -0.00421844 0)
(0.105394 -0.00413798 0)
(0.105572 -0.00404808 0)
(0.10575 -0.00394863 0)
(0.105924 -0.00383955 0)
(0.106096 -0.0037208 0)
(0.106265 -0.00359239 0)
(0.106429 -0.00345437 0)
(0.106588 -0.00330682 0)
(0.106742 -0.00314966 0)
(0.101533 -0.00416499 0)
(0.101641 -0.00422517 0)
(0.101754 -0.00428353 0)
(0.101872 -0.00433973 0)
(0.101994 -0.00439342 0)
(0.10212 -0.00444433 0)
(0.102252 -0.00449214 0)
(0.102388 -0.00453653 0)
(0.102528 -0.00457714 0)
(0.102673 -0.00461362 0)
(0.102823 -0.00464559 0)
(0.102977 -0.00467268 0)
(0.103135 -0.0046945 0)
(0.103298 -0.00471064 0)
(0.103465 -0.00472072 0)
(0.103635 -0.00472433 0)
(0.103809 -0.00472108 0)
(0.103987 -0.00471057 0)
(0.104167 -0.00469241 0)
(0.10435 -0.00466624 0)
(0.104536 -0.00463168 0)
(0.104723 -0.00458839 0)
(0.104911 -0.00453606 0)
(0.105101 -0.00447438 0)
(0.10529 -0.00440309 0)
(0.10548 -0.00432195 0)
(0.105668 -0.00423078 0)
(0.105855 -0.00412941 0)
(0.10604 -0.00401776 0)
(0.106222 -0.00389575 0)
(0.1064 -0.00376339 0)
(0.106574 -0.00362069 0)
(0.106743 -0.00346767 0)
(0.106907 -0.00330398 0)
(0.10147 -0.00427199 0)
(0.10158 -0.00433676 0)
(0.101695 -0.00439978 0)
(0.101815 -0.00446069 0)
(0.10194 -0.00451915 0)
(0.102069 -0.00457485 0)
(0.102204 -0.00462747 0)
(0.102343 -0.00467666 0)
(0.102488 -0.00472206 0)
(0.102637 -0.00476328 0)
(0.102792 -0.00479993 0)
(0.102951 -0.0048316 0)
(0.103115 -0.00485788 0)
(0.103284 -0.00487834 0)
(0.103457 -0.00489254 0)
(0.103634 -0.00490006 0)
(0.103815 -0.00490045 0)
(0.104 -0.0048933 0)
(0.104189 -0.00487815 0)
(0.10438 -0.00485462 0)
(0.104574 -0.00482228 0)
(0.10477 -0.00478075 0)
(0.104968 -0.00472967 0)
(0.105167 -0.00466871 0)
(0.105367 -0.00459755 0)
(0.105567 -0.00451594 0)
(0.105766 -0.00442363 0)
(0.105963 -0.00432045 0)
(0.106159 -0.00420627 0)
(0.106351 -0.00408101 0)
(0.10654 -0.00394462 0)
(0.106725 -0.0037971 0)
(0.106904 -0.00363836 0)
(0.107078 -0.00346774 0)
(0.101403 -0.00438058 0)
(0.101515 -0.00445021 0)
(0.101631 -0.00451817 0)
(0.101753 -0.0045841 0)
(0.101881 -0.00464763 0)
(0.102013 -0.00470846 0)
(0.102151 -0.00476624 0)
(0.102294 -0.0048206 0)
(0.102443 -0.00487116 0)
(0.102596 -0.00491752 0)
(0.102756 -0.00495925 0)
(0.10292 -0.00499593 0)
(0.10309 -0.00502709 0)
(0.103265 -0.00505229 0)
(0.103444 -0.00507105 0)
(0.103628 -0.00508291 0)
(0.103817 -0.00508738 0)
(0.10401 -0.005084 0)
(0.104207 -0.00507228 0)
(0.104407 -0.00505178 0)
(0.10461 -0.00502204 0)
(0.104816 -0.00498264 0)
(0.105024 -0.00493315 0)
(0.105234 -0.00487321 0)
(0.105444 -0.00480245 0)
(0.105655 -0.00472058 0)
(0.105865 -0.00462732 0)
(0.106074 -0.00452246 0)
(0.10628 -0.00440583 0)
(0.106485 -0.00427731 0)
(0.106685 -0.00413685 0)
(0.106881 -0.00398438 0)
(0.107071 -0.0038197 0)
(0.107257 -0.00364174 0)
(0.10133 -0.00449065 0)
(0.101444 -0.00456542 0)
(0.101562 -0.00463862 0)
(0.101686 -0.00470988 0)
(0.101816 -0.00477883 0)
(0.101951 -0.00484513 0)
(0.102093 -0.00490844 0)
(0.102239 -0.00496836 0)
(0.102392 -0.00502449 0)
(0.10255 -0.00507641 0)
(0.102714 -0.00512365 0)
(0.102884 -0.00516577 0)
(0.10306 -0.00520228 0)
(0.103241 -0.00523268 0)
(0.103427 -0.00525647 0)
(0.103619 -0.00527314 0)
(0.103815 -0.00528216 0)
(0.104016 -0.00528302 0)
(0.104222 -0.00527519 0)
(0.104431 -0.00525818 0)
(0.104644 -0.00523147 0)
(0.10486 -0.00519459 0)
(0.105079 -0.00514707 0)
(0.105299 -0.00508849 0)
(0.105521 -0.00501845 0)
(0.105743 -0.00493659 0)
(0.105965 -0.00484259 0)
(0.106186 -0.0047362 0)
(0.106405 -0.00461722 0)
(0.106621 -0.00448549 0)
(0.106834 -0.00434092 0)
(0.107042 -0.00418338 0)
(0.107245 -0.00401258 0)
(0.107443 -0.00382702 0)
(0.101253 -0.00460207 0)
(0.101367 -0.00468226 0)
(0.101488 -0.00476101 0)
(0.101614 -0.00483794 0)
(0.101746 -0.00491265 0)
(0.101884 -0.00498481 0)
(0.102028 -0.00505403 0)
(0.102179 -0.00511993 0)
(0.102335 -0.00518206 0)
(0.102498 -0.00523998 0)
(0.102667 -0.00529321 0)
(0.102842 -0.00534125 0)
(0.103024 -0.00538359 0)
(0.103211 -0.0054197 0)
(0.103405 -0.00544903 0)
(0.103604 -0.00547102 0)
(0.103808 -0.00548511 0)
(0.104018 -0.00549072 0)
(0.104233 -0.00548729 0)
(0.104452 -0.00547426 0)
(0.104675 -0.00545106 0)
(0.104902 -0.00541716 0)
(0.105131 -0.00537204 0)
(0.105363 -0.00531522 0)
(0.105597 -0.00524624 0)
(0.105831 -0.00516469 0)
(0.106066 -0.00507022 0)
(0.1063 -0.0049625 0)
(0.106532 -0.0048413 0)
(0.106762 -0.00470642 0)
(0.106988 -0.00455772 0)
(0.107209 -0.00439504 0)
(0.107425 -0.00421792 0)
(0.107636 -0.00402441 0)
(0.101169 -0.00471469 0)
(0.101286 -0.00480061 0)
(0.101408 -0.00488523 0)
(0.101536 -0.00496817 0)
(0.10167 -0.00504901 0)
(0.101811 -0.00512741 0)
(0.101958 -0.00520297 0)
(0.102112 -0.00527527 0)
(0.102272 -0.00534386 0)
(0.10244 -0.00540826 0)
(0.102614 -0.00546797 0)
(0.102794 -0.00552245 0)
(0.102982 -0.00557116 0)
(0.103176 -0.00561352 0)
(0.103377 -0.00564894 0)
(0.103583 -0.00567682 0)
(0.103796 -0.00569654 0)
(0.104015 -0.00570748 0)
(0.104239 -0.005709 0)
(0.104468 -0.00570049 0)
(0.104702 -0.00568133 0)
(0.10494 -0.00565093 0)
(0.105182 -0.00560869 0)
(0.105426 -0.00555408 0)
(0.105672 -0.00548657 0)
(0.10592 -0.0054057 0)
(0.106168 -0.00531105 0)
(0.106416 -0.00520224 0)
(0.106662 -0.00507899 0)
(0.106906 -0.00494106 0)
(0.107146 -0.00478826 0)
(0.107381 -0.00462034 0)
(0.107611 -0.00443672 0)
(0.107837 -0.00423491 0)
(0.10108 -0.00482835 0)
(0.101198 -0.0049203 0)
(0.101321 -0.00501114 0)
(0.101451 -0.00510044 0)
(0.101587 -0.0051878 0)
(0.101731 -0.00527285 0)
(0.101881 -0.00535518 0)
(0.102038 -0.00543435 0)
(0.102203 -0.00550988 0)
(0.102375 -0.00558127 0)
(0.102554 -0.00564798 0)
(0.10274 -0.00570946 0)
(0.102933 -0.0057651 0)
(0.103134 -0.0058143 0)
(0.103342 -0.00585642 0)
(0.103557 -0.0058908 0)
(0.103778 -0.00591677 0)
(0.104006 -0.00593365 0)
(0.104241 -0.00594075 0)
(0.10448 -0.00593738 0)
(0.104725 -0.00592285 0)
(0.104975 -0.00589651 0)
(0.105229 -0.00585771 0)
(0.105486 -0.00580581 0)
(0.105746 -0.00574024 0)
(0.106008 -0.00566046 0)
(0.10627 -0.00556599 0)
(0.106533 -0.00545638 0)
(0.106794 -0.0053313 0)
(0.107053 -0.00519045 0)
(0.107309 -0.00503358 0)
(0.10756 -0.00486038 0)
(0.107805 -0.00467008 0)
(0.108046 -0.00445961 0)
(0.100985 -0.00494285 0)
(0.101103 -0.00504116 0)
(0.101228 -0.00513855 0)
(0.101359 -0.00523459 0)
(0.101498 -0.00532887 0)
(0.101644 -0.005421 0)
(0.101797 -0.00551055 0)
(0.101957 -0.00559707 0)
(0.102126 -0.00568006 0)
(0.102302 -0.00575898 0)
(0.102486 -0.00583327 0)
(0.102678 -0.00590233 0)
(0.102878 -0.00596553 0)
(0.103085 -0.0060222 0)
(0.103301 -0.00607167 0)
(0.103524 -0.00611322 0)
(0.103754 -0.00614611 0)
(0.103992 -0.00616962 0)
(0.104236 -0.00618297 0)
(0.104487 -0.00618541 0)
(0.104744 -0.00617619 0)
(0.105006 -0.00615456 0)
(0.105273 -0.00611979 0)
(0.105544 -0.0060712 0)
(0.105818 -0.0060081 0)
(0.106095 -0.00592989 0)
(0.106373 -0.00583601 0)
(0.106651 -0.00572596 0)
(0.106928 -0.00559931 0)
(0.107204 -0.00545571 0)
(0.107476 -0.00529486 0)
(0.107744 -0.00511634 0)
(0.108005 -0.0049192 0)
(0.108264 -0.0046997 0)
(0.100884 -0.005058 0)
(0.101002 -0.00516299 0)
(0.101128 -0.00526728 0)
(0.101261 -0.00537044 0)
(0.101401 -0.00547205 0)
(0.101549 -0.00557171 0)
(0.101705 -0.00566897 0)
(0.101869 -0.00576335 0)
(0.102041 -0.00585433 0)
(0.102221 -0.00594136 0)
(0.10241 -0.00602383 0)
(0.102608 -0.0061011 0)
(0.102814 -0.00617251 0)
(0.103028 -0.00623735 0)
(0.103251 -0.00629487 0)
(0.103483 -0.00634431 0)
(0.103722 -0.00638488 0)
(0.10397 -0.00641575 0)
(0.104225 -0.00643611 0)
(0.104488 -0.00644511 0)
(0.104757 -0.00644193 0)
(0.105032 -0.00642573 0)
(0.105313 -0.0063957 0)
(0.105599 -0.00635105 0)
(0.105888 -0.00629104 0)
(0.10618 -0.00621496 0)
(0.106475 -0.00612216 0)
(0.10677 -0.00601207 0)
(0.107065 -0.00588418 0)
(0.107358 -0.00573807 0)
(0.107648 -0.00557336 0)
(0.107933 -0.00538952 0)
(0.108213 -0.00518539 0)
(0.10849 -0.0049565 0)
(0.100775 -0.00517355 0)
(0.100894 -0.00528555 0)
(0.101021 -0.00539711 0)
(0.101155 -0.00550779 0)
(0.101297 -0.00561716 0)
(0.101447 -0.0057248 0)
(0.101605 -0.00583026 0)
(0.101772 -0.00593304 0)
(0.101948 -0.0060326 0)
(0.102132 -0.00612833 0)
(0.102326 -0.00621962 0)
(0.102529 -0.00630579 0)
(0.102741 -0.00638612 0)
(0.102963 -0.00645985 0)
(0.103194 -0.0065262 0)
(0.103434 -0.00658432 0)
(0.103683 -0.00663336 0)
(0.103941 -0.00667242 0)
(0.104207 -0.00670062 0)
(0.104482 -0.00671701 0)
(0.104764 -0.00672069 0)
(0.105053 -0.00671072 0)
(0.105348 -0.00668621 0)
(0.105649 -0.00664626 0)
(0.105955 -0.00659003 0)
(0.106264 -0.00651671 0)
(0.106576 -0.00642556 0)