/*--------------------------------*- C++ -*----------------------------------*\
| =========                 |                                                 |
| \\      /  F ield         | OpenFOAM: The Open Source CFD Toolbox           |
|  \\    /   O peration     | Version:  2412                                  |
|   \\  /    A nd           | Website:  www.openfoam.com                      |
|    \\/     M anipulation  |                                                 |
\*---------------------------------------------------------------------------*/
FoamFile
{
    version     2.0;
    format      ascii;
    arch        "LSB;label=32;scalar=64";
    class       volScalarField;
    location    "3";
    object      p;
}
// * * * * * * * * * * * * * * * * * * * * * * * * * * * * * * * * * * * * * //

dimensions      [0 2 -2 0 0 0 0];

internalField   nonuniform List<scalar> 
63420
(
0.001204
0.00151715
0.00118919
0.00137829
0.00131867
0.0013201
0.00133182
0.0013315
0.00133448
0.00133862
0.00134275
0.00134733
0.00135238
0.00135782
0.00136368
0.00136993
0.00137659
0.00138364
0.00139108
0.00139891
0.00140713
0.00141573
0.00142473
0.00143412
0.00144389
0.00145405
0.00146461
0.00147556
0.00148691
0.00149866
0.00151081
0.00152337
0.00153633
0.00154971
0.0015635
0.00157771
0.00159235
0.00160741
0.00162291
0.00163884
0.00165522
0.00167204
0.00168931
0.00170705
0.00172524
0.0017439
0.00176303
0.00178263
0.00180272
0.0018233
0.00184437
0.00186594
0.00188801
0.00191058
0.00193368
0.00120372
0.0015171
0.00118914
0.00137807
0.00131868
0.00131998
0.00133173
0.00133142
0.00133439
0.00133854
0.00134266
0.00134724
0.00135228
0.00135772
0.00136357
0.00136982
0.00137647
0.00138351
0.00139095
0.00139877
0.00140698
0.00141558
0.00142457
0.00143395
0.00144371
0.00145386
0.00146441
0.00147535
0.00148669
0.00149842
0.00151056
0.0015231
0.00153605
0.00154941
0.00156318
0.00157737
0.00159199
0.00160703
0.00162251
0.00163842
0.00165477
0.00167156
0.00168881
0.00170651
0.00172467
0.00174329
0.00176239
0.00178195
0.001802
0.00182254
0.00184356
0.00186508
0.00188709
0.00190961
0.00193265
0.00120316
0.001517
0.00118905
0.00137765
0.0013187
0.00131975
0.00133155
0.00133127
0.00133422
0.00133836
0.00134248
0.00134705
0.00135208
0.00135752
0.00136336
0.0013696
0.00137624
0.00138327
0.00139069
0.0013985
0.00140669
0.00141528
0.00142425
0.00143361
0.00144335
0.00145348
0.00146401
0.00147493
0.00148624
0.00149795
0.00151005
0.00152256
0.00153548
0.00154881
0.00156254
0.0015767
0.00159128
0.00160628
0.0016217
0.00163757
0.00165386
0.00167061
0.00168779
0.00170543
0.00172353
0.00174208
0.00176111
0.0017806
0.00180056
0.00182101
0.00184194
0.00186336
0.00188527
0.00190768
0.00193059
0.0012023
0.00151691
0.00118889
0.00137701
0.00131875
0.00131939
0.00133129
0.00133104
0.00133396
0.00133809
0.00134221
0.00134677
0.00135179
0.00135721
0.00136304
0.00136926
0.00137588
0.0013829
0.0013903
0.00139809
0.00140626
0.00141482
0.00142377
0.0014331
0.00144281
0.00145292
0.00146341
0.00147429
0.00148556
0.00149723
0.0015093
0.00152176
0.00153463
0.00154791
0.00156159
0.00157569
0.00159021
0.00160514
0.0016205
0.00163629
0.00165252
0.00166918
0.00168628
0.00170383
0.00172182
0.00174028
0.00175919
0.00177857
0.00179841
0.00181873
0.00183952
0.0018608
0.00188255
0.0019048
0.00192752
0.0012011
0.00151693
0.00118859
0.0013762
0.00131883
0.00131891
0.00133094
0.00133074
0.00133361
0.00133774
0.00134185
0.0013464
0.0013514
0.0013568
0.00136261
0.00136882
0.00137541
0.0013824
0.00138978
0.00139754
0.00140569
0.00141421
0.00142313
0.00143242
0.0014421
0.00145216
0.00146261
0.00147344
0.00148467
0.00149628
0.00150829
0.0015207
0.00153351
0.00154671
0.00156033
0.00157435
0.00158878
0.00160363
0.00161891
0.0016346
0.00165072
0.00166727
0.00168426
0.00170169
0.00171956
0.00173788
0.00175665
0.00177587
0.00179556
0.00181571
0.00183632
0.0018574
0.00187895
0.00190097
0.00192347
0.00119959
0.0015171
0.00118821
0.00137514
0.00131898
0.00131828
0.00133051
0.00133038
0.00133318
0.0013373
0.0013414
0.00134593
0.00135091
0.0013563
0.00136208
0.00136826
0.00137483
0.00138179
0.00138913
0.00139686
0.00140497
0.00141346
0.00142233
0.00143157
0.0014412
0.00145122
0.00146161
0.00147239
0.00148355
0.0014951
0.00150704
0.00151937
0.0015321
0.00154522
0.00155875
0.00157268
0.00158701
0.00160176
0.00161692
0.00163249
0.00164849
0.00166491
0.00168175
0.00169903
0.00171675
0.0017349
0.00175349
0.00177253
0.00179201
0.00181195
0.00183234
0.00185318
0.00187448
0.00189624
0.00191844
0.00119812
0.00151673
0.00118845
0.00137345
0.00131932
0.00131751
0.00132997
0.00132995
0.00133266
0.00133677
0.00134087
0.00134537
0.00135033
0.00135569
0.00136144
0.00136759
0.00137413
0.00138105
0.00138836
0.00139604
0.00140411
0.00141255
0.00142137
0.00143056
0.00144014
0.00145009
0.00146041
0.00147112
0.00148221
0.00149368
0.00150554
0.00151778
0.00153042
0.00154344
0.00155686
0.00157068
0.0015849
0.00159951
0.00161454
0.00162997
0.00164582
0.00166208
0.00167876
0.00169586
0.00171338
0.00173134
0.00174972
0.00176853
0.00178778
0.00180747
0.00182759
0.00184816
0.00186917
0.00189061
0.00191249
0.00195737
0.00198189
0.00200747
0.00203415
0.00206198
0.00209105
0.00212141
0.00215317
0.00218641
0.00222127
0.00225787
0.00229631
0.00233682
0.00237949
0.00242441
0.0024718
0.00252183
0.00257471
0.00263064
0.00268986
0.00275265
0.0028193
0.00289013
0.00296551
0.00304586
0.00313162
0.00322331
0.00332149
0.00342681
0.00353998
0.00366181
0.00379321
0.00393522
0.00408899
0.00425584
0.00443723
0.0046348
0.00485036
0.00508581
0.00534314
0.00562416
0.00593013
0.00626112
0.00661493
0.00698606
0.0073648
0.00773621
0.00809499
0.00851858
0.00913021
0.0019563
0.00198082
0.0020064
0.00203309
0.00206092
0.00208999
0.00212037
0.00215214
0.00218538
0.00222022
0.00225683
0.00229531
0.0023359
0.00237853
0.00242343
0.0024708
0.00252082
0.00257367
0.00262956
0.00268875
0.00275149
0.00281807
0.00288883
0.00296411
0.00304434
0.00312995
0.00322144
0.00331939
0.0034244
0.00353719
0.00365854
0.00378932
0.00393054
0.00408329
0.00424882
0.0044285
0.00462384
0.00483646
0.00506804
0.00532022
0.00559438
0.00589119
0.0062099
0.0065472
0.00689607
0.00724503
0.00757791
0.0078882
0.00824829
0.00877377
0.00195417
0.00197868
0.00200424
0.00203092
0.00205873
0.00208786
0.00211828
0.00215007
0.00218329
0.00221799
0.00225489
0.00229357
0.00233398
0.00237656
0.00242145
0.00246881
0.00251879
0.00257159
0.00262742
0.00268653
0.00274917
0.00281564
0.00288624
0.00296134
0.00304133
0.00312665
0.00321778
0.00331526
0.00341968
0.00353173
0.00365212
0.0037817
0.00392137
0.00407213
0.00423508
0.0044114
0.00460235
0.00480919
0.00503313
0.00527515
0.00553572
0.00581428
0.0061084
0.00641249
0.00671646
0.00700522
0.00726038
0.00747345
0.00770155
0.0080712
0.00195102
0.00197555
0.00200111
0.0020278
0.0020557
0.00208478
0.0021152
0.00214705
0.00218047
0.00221565
0.00225213
0.00229052
0.00233094
0.00237354
0.00241843
0.00246575
0.00251567
0.0025684
0.00262414
0.00268313
0.00274563
0.00281191
0.00288229
0.0029571
0.00303674
0.00312161
0.00321217
0.00330894
0.00341248
0.00352339
0.00364235
0.0037701
0.00390743
0.00405519
0.00421426
0.00438556
0.00456994
0.00476817
0.00498074
0.00520765
0.00544805
0.00569953
0.0059571
0.00621171
0.00644862
0.00664714
0.00678545
0.00685694
0.00690163
0.00699881
0.00194683
0.00197133
0.00199688
0.00202355
0.00205143
0.00208057
0.00211105
0.00214295
0.00217636
0.00221136
0.002248
0.0022865
0.002327
0.00236962
0.0024145
0.00246178
0.00251166
0.00256431
0.00261995
0.00267881
0.00274113
0.0028072
0.0028773
0.00295177
0.00303096
0.00311527
0.00320512
0.00330098
0.00340336
0.00351279
0.00362987
0.00375522
0.00388946
0.00403323
0.00418716
0.00435175
0.00452737
0.00471407
0.0049114
0.00511806
0.00533141
0.00554658
0.00575519
0.00594359
0.00609104
0.00616942
0.00615129
0.00603422
0.00584959
0.00553169
0.00194164
0.00196614
0.00199168
0.00201835
0.00204622
0.00207537
0.00210588
0.00213785
0.00217136
0.00220648
0.00224332
0.00228199
0.00232263
0.00236536
0.00241032
0.00245768
0.00250762
0.00256034
0.00261603
0.00267492
0.00273726
0.00280332
0.00287337
0.00294774
0.00302677
0.00311082
0.00320029
0.00329561
0.00339722
0.0035056
0.00362125
0.00374465
0.00387627
0.00401651
0.00416566
0.00432379
0.00449061
0.00466523
0.00484587
0.00502925
0.00520983
0.00537854
0.00552114
0.00561625
0.00563372
0.00553532
0.00528631
0.00488626
0.00436474
0.00349284
0.00193545
0.00195989
0.00198538
0.00201198
0.00203978
0.00206887
0.00209934
0.00213129
0.00216481
0.00219997
0.00223685
0.00227556
0.0023162
0.00235892
0.00240387
0.0024512
0.00250109
0.00255375
0.00260937
0.00266817
0.0027304
0.00279632
0.0028662
0.00294034
0.00301907
0.00310273
0.00319168
0.00328632
0.00338703
0.00349424
0.00360833
0.00372968
0.00385858
0.0039952
0.00413949
0.00429106
0.00444892
0.00461119
0.00477449
0.00493307
0.0050775
0.00519273
0.00525571
0.00523346
0.00508277
0.00475317
0.00420244
0.00344206
0.00245693
0.000899754
-0.00316609
-0.0030843
-0.00289398
-0.00262172
-0.00228909
-0.00192842
-0.00157163
-0.00124516
-0.000966301
-0.000742293
-0.000572063
-0.000449237
-0.00036506
-0.000310524
-0.0002776
-0.000259741
-0.000251934
-0.000250511
-0.000252888
-0.000257301
-0.000262582
-0.000267983
-0.000273048
-0.000277518
-0.000281256
-0.000284207
-0.000286376
-0.000287794
-0.00028851
-0.000288581
-0.000288068
-0.000287031
-0.00028553
-0.000283618
-0.000281348
-0.000278766
-0.000275913
-0.000272828
-0.000269546
-0.000266098
-0.00026251
-0.000258807
-0.000255012
-0.000251144
-0.00024722
-0.000243256
-0.000239266
-0.000235263
-0.000231261
-0.00022727
-0.0033549
-0.00321138
-0.00300034
-0.00271543
-0.00237575
-0.0020106
-0.00164942
-0.00131751
-0.00103205
-0.000800709
-0.000622942
-0.000492856
-0.000402017
-0.000341585
-0.000303575
-0.00028141
-0.000270002
-0.000265593
-0.000265505
-0.000267887
-0.000271496
-0.000275518
-0.000279443
-0.000282968
-0.000285919
-0.000288213
-0.00028983
-0.000290782
-0.000291103
-0.000290836
-0.000290034
-0.00028875
-0.000287034
-0.000284936
-0.000282503
-0.000279778
-0.0002768
-0.000273605
-0.000270225
-0.000266688
-0.000263022
-0.00025925
-0.000255392
-0.000251467
-0.000247492
-0.000243482
-0.000239451
-0.000235411
-0.000231376
-0.000227357
-0.00371267
-0.00345001
-0.00319923
-0.0028919
-0.00253923
-0.00216603
-0.00179726
-0.00145589
-0.0011587
-0.000913973
-0.000722187
-0.000578382
-0.000474798
-0.000402974
-0.000355064
-0.000324464
-0.000305967
-0.000295654
-0.000290676
-0.00028902
-0.000289296
-0.000290566
-0.000292213
-0.000293847
-0.000295223
-0.000296202
-0.000296713
-0.000296733
-0.000296263
-0.000295323
-0.000293945
-0.000292164
-0.00029002
-0.000287551
-0.000284794
-0.000281785
-0.000278558
-0.000275142
-0.000271567
-0.000267857
-0.000264036
-0.000260124
-0.000256141
-0.000252104
-0.000248028
-0.000243927
-0.000239814
-0.000235702
-0.000231601
-0.000227525
-0.00418043
-0.00379344
-0.00347983
-0.00313815
-0.0027662
-0.00238134
-0.0020024
-0.00164888
-0.00133654
-0.00107417
-0.000863473
-0.000700804
-0.000579429
-0.000491523
-0.000429521
-0.000386844
-0.000358155
-0.000339328
-0.000327282
-0.000319778
-0.00031522
-0.000312492
-0.000310827
-0.000309709
-0.000308791
-0.000307852
-0.000306752
-0.000305412
-0.000303788
-0.000301866
-0.000299647
-0.000297144
-0.000294375
-0.000291364
-0.000288134
-0.000284712
-0.00028112
-0.000277383
-0.000273522
-0.000269559
-0.000265511
-0.000261397
-0.000257232
-0.000253032
-0.000248808
-0.000244574
-0.000240342
-0.000236122
-0.000231925
-0.000227765
-0.00471709
-0.00421578
-0.00382084
-0.0034309
-0.00303227
-0.00263273
-0.00224328
-0.00187845
-0.00155169
-0.00127147
-0.00104048
-0.000856497
-0.000714167
-0.000606674
-0.000527052
-0.000468972
-0.000427089
-0.000397121
-0.000375757
-0.000360507
-0.00034953
-0.000341489
-0.000335422
-0.000330647
-0.000326687
-0.000323205
-0.000319973
-0.000316834
-0.000313688
-0.00031047
-0.000307143
-0.000303687
-0.000300097
-0.000296372
-0.00029252
-0.000288553
-0.000284482
-0.000280322
-0.000276086
-0.000271788
-0.000267443
-0.000263061
-0.000258657
-0.000254239
-0.000249821
-0.000245411
-0.00024102
-0.000236657
-0.000232333
-0.000228059
-0.00510648
-0.00459191
-0.00413846
-0.00370679
-0.00328933
-0.00288514
-0.00249658
-0.00213215
-0.00180157
-0.00151175
-0.00126563
-0.00106238
-0.000898424
-0.000768614
-0.000667309
-0.000589078
-0.000529088
-0.000483256
-0.000448255
-0.000421443
-0.000400759
-0.00038462
-0.000371823
-0.000361462
-0.000352859
-0.000345515
-0.000339058
-0.000333218
-0.000327798
-0.000322657
-0.000317697
-0.000312847
-0.00030806
-0.000303302
-0.000298556
-0.000293809
-0.000289056
-0.000284297
-0.000279533
-0.000274769
-0.000270008
-0.000265257
-0.000260522
-0.000255809
-0.000251125
-0.000246476
-0.000241871
-0.000237316
-0.000232819
-0.000228394
-0.0052824
-0.00496988
-0.00452716
-0.00406087
-0.00361758
-0.00319709
-0.00279689
-0.00242228
-0.00208047
-0.00177672
-0.00151346
-0.00129032
-0.00110465
-0.000952333
-0.000828726
-0.00072923
-0.000649605
-0.000586116
-0.000535572
-0.000495308
-0.000463132
-0.000437268
-0.000416292
-0.00039908
-0.000384749
-0.000372614
-0.000362145
-0.000352939
-0.000344687
-0.000337156
-0.00033017
-0.000323596
-0.000317336
-0.000311315
-0.00030548
-0.000299793
-0.000294224
-0.000288754
-0.00028337
-0.000278061
-0.000272823
-0.000267651
-0.000262543
-0.0002575
-0.000252522
-0.000247612
-0.000242773
-0.000238009
-0.000233325
-0.000228732
-0.000223294
-0.000219295
-0.000215247
-0.000211158
-0.000207032
-0.000202868
-0.000198663
-0.000194416
-0.00019013
-0.00018581
-0.000181464
-0.000177099
-0.000172724
-0.000168346
-0.000163974
-0.000159612
-0.000155267
-0.000150944
-0.000146646
-0.000142378
-0.000138143
-0.000133945
-0.000129788
-0.000125674
-0.000121606
-0.000117588
-0.000113621
-0.000109709
-0.000105854
-0.000102059
-9.83243e-05
-9.46536e-05
-9.10483e-05
-8.75102e-05
-8.40408e-05
-8.06419e-05
-7.73146e-05
-7.40603e-05
-7.08801e-05
-6.77749e-05
-6.47457e-05
-6.17932e-05
-5.8918e-05
-5.61204e-05
-5.34012e-05
-5.07606e-05
-4.81982e-05
-4.57145e-05
-4.33093e-05
-4.09824e-05
-3.87335e-05
-3.65621e-05
-3.44677e-05
-3.24497e-05
-3.05074e-05
-2.864e-05
-2.68465e-05
-2.5126e-05
-2.34773e-05
-2.18993e-05
-2.03906e-05
-1.89502e-05
-1.75764e-05
-1.62679e-05
-1.50231e-05
-1.38405e-05
-1.27185e-05
-1.16553e-05
-1.06492e-05
-9.69864e-06
-8.80149e-06
-7.95617e-06
-7.16063e-06
-6.41316e-06
-5.71165e-06
-5.05456e-06
-4.43945e-06
-3.86505e-06
-3.32881e-06
-2.82936e-06
-2.36424e-06
-1.93229e-06
-1.53041e-06
-1.15848e-06
-8.12444e-07
-4.92427e-07
-1.95537e-07
8.05366e-08
3.35981e-07
5.74847e-07
7.97357e-07
1.00581e-06
1.20321e-06
1.3895e-06
1.56903e-06
1.74218e-06
1.91225e-06
2.0812e-06
2.25247e-06
2.42506e-06
2.61673e-06
2.77773e-06
3.09289e-06
2.98145e-06
4.20582e-06
1.87296e-06
8.50593e-06
-4.92963e-06
2.17412e-05
-2.04246e-05
3.50693e-05
-1.30284e-05
-3.70826e-06
5.6527e-05
-6.34622e-05
-0.000223365
-0.000219349
-0.000215285
-0.000211183
-0.000207045
-0.000202868
-0.000198651
-0.000194394
-0.000190099
-0.000185772
-0.00018142
-0.000177052
-0.000172675
-0.000168296
-0.000163923
-0.000159561
-0.000155216
-0.000150893
-0.000146595
-0.000142328
-0.000138093
-0.000133896
-0.00012974
-0.000125626
-0.000121559
-0.000117542
-0.000113577
-0.000109666
-0.000105812
-0.000102017
-9.82844e-05
-9.46149e-05
-9.10108e-05
-8.74739e-05
-8.40059e-05
-8.06082e-05
-7.72822e-05
-7.40291e-05
-7.08501e-05
-6.77463e-05
-6.47182e-05
-6.17669e-05
-5.88929e-05
-5.60965e-05
-5.33784e-05
-5.07388e-05
-4.81776e-05
-4.56949e-05
-4.32907e-05
-4.09648e-05
-3.87168e-05
-3.65463e-05
-3.44528e-05
-3.24356e-05
-3.04942e-05
-2.86275e-05
-2.68348e-05
-2.51149e-05
-2.34669e-05
-2.18896e-05
-2.03816e-05
-1.89417e-05
-1.75685e-05
-1.62605e-05
-1.50163e-05
-1.38341e-05
-1.27125e-05
-1.16498e-05
-1.06441e-05
-9.69394e-06
-8.79714e-06
-7.95216e-06
-7.15694e-06
-6.40978e-06
-5.70855e-06
-5.05171e-06
-4.43687e-06
-3.86268e-06
-3.32666e-06
-2.82741e-06
-2.36247e-06
-1.9307e-06
-1.52897e-06
-1.15718e-06
-8.11299e-07
-4.9139e-07
-1.94625e-07
8.13447e-08
3.36687e-07
5.75463e-07
7.97877e-07
1.00626e-06
1.20358e-06
1.38979e-06
1.56927e-06
1.74233e-06
1.91237e-06
2.08122e-06
2.25248e-06
2.425e-06
2.61656e-06
2.77762e-06
3.09251e-06
2.98148e-06
4.20477e-06
1.87401e-06
8.50307e-06
-4.92679e-06
2.17381e-05
-2.0426e-05
3.50761e-05
-1.30401e-05
-3.70251e-06
5.65354e-05
-6.34864e-05
-0.000223502
-0.000219452
-0.000215357
-0.000211228
-0.000207065
-0.000202864
-0.000198624
-0.000194346
-0.000190034
-0.000185693
-0.000181332
-0.000176957
-0.000172576
-0.000168195
-0.000163821
-0.000159459
-0.000155114
-0.000150791
-0.000146494
-0.000142227
-0.000137994
-0.000133798
-0.000129643
-0.000125531
-0.000121466
-0.000117451
-0.000113487
-0.000109579
-0.000105727
-0.000101935
-9.82044e-05
-9.45373e-05
-9.09358e-05
-8.74014e-05
-8.39359e-05
-8.05408e-05
-7.72173e-05
-7.39668e-05
-7.07903e-05
-6.76889e-05
-6.46633e-05
-6.17144e-05
-5.88427e-05
-5.60486e-05
-5.33328e-05
-5.06954e-05
-4.81363e-05
-4.56556e-05
-4.32535e-05
-4.09295e-05
-3.86833e-05
-3.65147e-05
-3.44229e-05
-3.24075e-05
-3.04676e-05
-2.86025e-05
-2.68113e-05
-2.50929e-05
-2.34462e-05
-2.18701e-05
-2.03634e-05
-1.89247e-05
-1.75526e-05
-1.62458e-05
-1.50025e-05
-1.38214e-05
-1.27007e-05
-1.16388e-05
-1.0634e-05
-9.68452e-06
-8.78845e-06
-7.94415e-06
-7.14957e-06
-6.403e-06
-5.70235e-06
-5.04602e-06
-4.4317e-06
-3.85794e-06
-3.32236e-06
-2.82351e-06
-2.35893e-06
-1.92751e-06
-1.52611e-06
-1.15459e-06
-8.09009e-07
-4.89319e-07
-1.92811e-07
8.29631e-08
3.38085e-07
5.76698e-07
7.98906e-07
1.00716e-06
1.20429e-06
1.39037e-06
1.56974e-06
1.74262e-06
1.91261e-06
2.08126e-06
2.25246e-06
2.42486e-06
2.61625e-06
2.77736e-06
3.09176e-06
2.98153e-06
4.20267e-06
1.87608e-06
8.49735e-06
-4.92116e-06
2.17319e-05
-2.04288e-05
3.50896e-05
-1.30634e-05
-3.69093e-06
5.65518e-05
-6.35343e-05
-0.000223687
-0.000219589
-0.00021545
-0.000211282
-0.000207082
-0.000202846
-0.000198575
-0.000194268
-0.000189932
-0.000185573
-0.000181199
-0.000176815
-0.000172429
-0.000168045
-0.000163669
-0.000159306
-0.000154961
-0.000150638
-0.000146342
-0.000142077
-0.000137845
-0.000133651
-0.000129498
-0.000125389
-0.000121326
-0.000117314
-0.000113353
-0.000109448
-0.0001056
-0.000101811
-9.80844e-05
-9.4421e-05
-9.08232e-05
-8.72927e-05
-8.3831e-05
-8.04397e-05
-7.712e-05
-7.38733e-05
-7.07005e-05
-6.76028e-05
-6.45809e-05
-6.16356e-05
-5.87675e-05
-5.59768e-05
-5.32643e-05
-5.06302e-05
-4.80743e-05
-4.55968e-05
-4.31976e-05
-4.08765e-05
-3.86332e-05
-3.64673e-05
-3.43782e-05
-3.23652e-05
-3.04278e-05
-2.8565e-05
-2.6776e-05
-2.50598e-05
-2.34151e-05
-2.1841e-05
-2.03362e-05
-1.88993e-05
-1.75289e-05
-1.62236e-05
-1.49819e-05
-1.38022e-05
-1.26829e-05
-1.16223e-05
-1.06187e-05
-9.6704e-06
-8.77542e-06
-7.93213e-06
-7.13852e-06
-6.39284e-06
-5.69305e-06
-5.03749e-06
-4.42394e-06
-3.85083e-06
-3.31592e-06
-2.81765e-06
-2.35363e-06
-1.92273e-06
-1.5218e-06
-1.1507e-06
-8.05571e-07
-4.86221e-07
-1.9009e-07
8.53807e-08
3.40182e-07
5.78537e-07
8.00454e-07
1.00849e-06
1.20538e-06
1.39125e-06
1.57043e-06
1.74307e-06
1.91295e-06
2.08135e-06
2.25242e-06
2.42464e-06
2.61579e-06
2.77695e-06
3.09065e-06
2.98157e-06
4.19954e-06
1.87916e-06
8.48881e-06
-4.91284e-06
2.1723e-05
-2.04335e-05
3.51106e-05
-1.30989e-05
-3.67344e-06
5.65771e-05
-6.36064e-05
-0.0002239
-0.000219742
-0.000215548
-0.000211331
-0.000207085
-0.000202806
-0.000198495
-0.000194154
-0.00018979
-0.00018541
-0.00018102
-0.000176626
-0.000172232
-0.000167844
-0.000163466
-0.000159102
-0.000154757
-0.000150435
-0.00014614
-0.000141876
-0.000137646
-0.000133455
-0.000129305
-0.000125199
-0.00012114
-0.000117131
-0.000113175
-0.000109274
-0.00010543
-0.000101646
-9.79243e-05
-9.42659e-05
-9.06732e-05
-8.71477e-05
-8.36911e-05
-8.03049e-05
-7.69903e-05
-7.37486e-05
-7.05809e-05
-6.74881e-05
-6.44711e-05
-6.15306e-05
-5.86671e-05
-5.5881e-05
-5.31731e-05
-5.05434e-05
-4.79917e-05
-4.55183e-05
-4.31232e-05
-4.0806e-05
-3.85664e-05
-3.64041e-05
-3.43185e-05
-3.2309e-05
-3.03748e-05
-2.85151e-05
-2.67291e-05
-2.50156e-05
-2.33738e-05
-2.18023e-05
-2.02999e-05
-1.88654e-05
-1.74972e-05
-1.61941e-05
-1.49544e-05
-1.37767e-05
-1.26592e-05
-1.16004e-05
-1.05983e-05
-9.65158e-06
-8.75805e-06
-7.91612e-06
-7.12379e-06
-6.3793e-06
-5.68065e-06
-5.02612e-06
-4.41359e-06
-3.84136e-06
-3.30734e-06
-2.80985e-06
-2.34656e-06
-1.91635e-06
-1.51607e-06
-1.14553e-06
-8.00987e-07
-4.82098e-07
-1.86464e-07
8.85963e-08
3.42979e-07
5.80979e-07
8.02521e-07
1.01027e-06
1.20682e-06
1.39241e-06
1.57135e-06
1.74368e-06
1.91338e-06
2.08147e-06
2.25235e-06
2.42435e-06
2.61518e-06
2.77639e-06
3.08918e-06
2.98159e-06
4.19542e-06
1.88316e-06
8.47768e-06
-4.90232e-06
2.17121e-05
-2.04415e-05
3.51407e-05
-1.31481e-05
-3.65017e-06
5.66135e-05
-6.3705e-05
-0.000224119
-0.000219892
-0.000215638
-0.000211363
-0.000207062
-0.000202733
-0.000198378
-0.000194
-0.000189605
-0.000185201
-0.000180794
-0.000176388
-0.000171987
-0.000167594
-0.000163213
-0.000158848
-0.000154502
-0.000150181
-0.000145887
-0.000141625
-0.000137398
-0.000133209
-0.000129063
-0.000124961
-0.000120906
-0.000116903
-0.000112952
-0.000109056
-0.000105218
-0.00010144
-9.77243e-05
-9.40721e-05
-9.04856e-05
-8.69665e-05
-8.35163e-05
-8.01364e-05
-7.68282e-05
-7.35929e-05
-7.04314e-05
-6.73448e-05
-6.43339e-05
-6.13994e-05
-5.85418e-05
-5.57615e-05
-5.30591e-05
-5.04349e-05
-4.78885e-05
-4.54203e-05
-4.30302e-05
-4.07179e-05
-3.8483e-05
-3.63252e-05
-3.4244e-05
-3.22386e-05
-3.03085e-05
-2.84527e-05
-2.66704e-05
-2.49605e-05
-2.33221e-05
-2.17538e-05
-2.02546e-05
-1.8823e-05
-1.74577e-05
-1.61572e-05
-1.49201e-05
-1.37448e-05
-1.26296e-05
-1.15729e-05
-1.05729e-05
-9.62808e-06
-8.73635e-06
-7.89611e-06
-7.1054e-06
-6.36238e-06
-5.66518e-06
-5.01192e-06
-4.40066e-06
-3.82954e-06
-3.29662e-06
-2.8001e-06
-2.33774e-06
-1.90837e-06
-1.50891e-06
-1.13907e-06
-7.95257e-07
-4.76952e-07
-1.81934e-07
9.26074e-08
3.46472e-07
5.84022e-07
8.05106e-07
1.01247e-06
1.20862e-06
1.39387e-06
1.57249e-06
1.74445e-06
1.91391e-06
2.08163e-06
2.25226e-06
2.42399e-06
2.61442e-06
2.77568e-06
3.08735e-06
2.98163e-06
4.19025e-06
1.88819e-06
8.4637e-06
-4.88908e-06
2.16984e-05
-2.04516e-05
3.51788e-05
-1.321e-05
-3.62074e-06
5.66593e-05
-6.38248e-05
-0.00022432
-0.000220023
-0.000215705
-0.000211367
-0.000207007
-0.000202624
-0.000198222
-0.000193804
-0.000189378
-0.00018495
-0.000180524
-0.000176105
-0.000171695
-0.000167295
-0.00016291
-0.000158543
-0.000154197
-0.000149875
-0.000145583
-0.000141323
-0.000137099
-0.000132914
-0.000128772
-0.000124675
-0.000120626
-0.000116628
-0.000112684
-0.000108795
-0.000104964
-0.000101193
-9.74842e-05
-9.38395e-05
-9.02606e-05
-8.67491e-05
-8.33066e-05
-7.99344e-05
-7.66338e-05
-7.34061e-05
-7.02521e-05
-6.7173e-05
-6.41693e-05
-6.1242e-05
-5.83915e-05
-5.56181e-05
-5.29225e-05
-5.03048e-05
-4.77648e-05
-4.53028e-05
-4.29187e-05
-4.06122e-05
-3.8383e-05
-3.62306e-05
-3.41546e-05
-3.21543e-05
-3.0229e-05
-2.83779e-05
-2.66e-05
-2.48945e-05
-2.32601e-05
-2.16957e-05
-2.02002e-05
-1.87722e-05
-1.74103e-05
-1.6113e-05
-1.4879e-05
-1.37065e-05
-1.2594e-05
-1.154e-05
-1.05424e-05
-9.59989e-06
-8.71034e-06
-7.87213e-06
-7.08334e-06
-6.34211e-06
-5.64661e-06
-4.9949e-06
-4.38516e-06
-3.81537e-06
-3.28376e-06
-2.78841e-06
-2.32717e-06
-1.89882e-06
-1.50033e-06
-1.13133e-06
-7.88384e-07
-4.70787e-07
-1.76502e-07
9.74121e-08
3.50662e-07
5.87666e-07
8.08209e-07
1.01512e-06
1.21079e-06
1.39561e-06
1.57385e-06
1.74537e-06
1.91453e-06
2.08182e-06
2.25215e-06
2.42356e-06
2.6135e-06
2.77484e-06
3.0851e-06
2.98184e-06
4.18352e-06
1.89553e-06
8.4439e-06
-4.86703e-06
2.16712e-05
-2.04478e-05
3.52069e-05
-1.32727e-05
-3.58046e-06
5.66893e-05
-6.3926e-05
-0.000224499
-0.000220129
-0.00021574
-0.000211335
-0.000206914
-0.000202478
-0.000198029
-0.000193572
-0.000189113
-0.000184658
-0.000180211
-0.000175775
-0.000171352
-0.000166944
-0.000162552
-0.000158181
-0.000153832
-0.000149511
-0.00014522
-0.000140962
-0.000136742
-0.000132562
-0.000128424
-0.000124333
-0.000120291
-0.0001163
-0.000112363
-0.000108482
-0.00010466
-0.000100897
-9.71974e-05
-9.35616e-05
-8.99918e-05
-8.64895e-05
-8.30561e-05
-7.96931e-05
-7.64017e-05
-7.3183e-05
-7.00381e-05
-6.69678e-05
-6.39729e-05
-6.10541e-05
-5.82121e-05
-5.54469e-05
-5.27593e-05
-5.01495e-05
-4.76171e-05
-4.51625e-05
-4.27856e-05
-4.0486e-05
-3.82635e-05
-3.61177e-05
-3.40479e-05
-3.20536e-05
-3.01341e-05
-2.82886e-05
-2.65161e-05
-2.48156e-05
-2.31861e-05
-2.16264e-05
-2.01353e-05
-1.87115e-05
-1.73537e-05
-1.60603e-05
-1.48298e-05
-1.36608e-05
-1.25516e-05
-1.15007e-05
-1.0506e-05
-9.56623e-06
-8.67928e-06
-7.84349e-06
-7.05701e-06
-6.3179e-06
-5.62445e-06
-4.97458e-06
-4.36664e-06
-3.79845e-06
-3.2684e-06
-2.77445e-06
-2.31454e-06
-1.8874e-06
-1.49008e-06
-1.12209e-06
-7.80175e-07
-4.6343e-07
-1.70016e-07
1.03143e-07
3.55666e-07
5.92011e-07
8.11917e-07
1.01827e-06
1.21338e-06
1.39769e-06
1.57548e-06
1.74648e-06
1.91527e-06
2.08206e-06
2.252e-06
2.42304e-06
2.6124e-06
2.77386e-06
3.08233e-06
2.98237e-06
4.17469e-06
1.90642e-06
8.41519e-06
-4.83002e-06
2.16189e-05
-2.04136e-05
3.52054e-05
-1.33239e-05
-3.52393e-06
5.66763e-05
-6.39685e-05
-0.000224667
-0.000220212
-0.000215744
-0.000211265
-0.000206776
-0.000202279
-0.000197779
-0.000193279
-0.000188785
-0.000184302
-0.000179833
-0.00017538
-0.000170944
-0.000166526
-0.000162128
-0.000157752
-0.000153402
-0.000149081
-0.000144791
-0.000140537
-0.000136321
-0.000132146
-0.000128015
-0.000123931
-0.000119896
-0.000115914
-0.000111986
-0.000108114
-0.000104302
-0.000100549
-9.68599e-05
-9.32348e-05
-8.96756e-05
-8.61841e-05
-8.27616e-05
-7.94094e-05
-7.61287e-05
-7.29208e-05
-6.97864e-05
-6.67266e-05
-6.3742e-05
-6.08333e-05
-5.80012e-05
-5.52457e-05
-5.25675e-05
-4.99669e-05
-4.74436e-05
-4.49977e-05
-4.26292e-05
-4.03378e-05
-3.81232e-05
-3.5985e-05
-3.39226e-05
-3.19354e-05
-3.00227e-05
-2.81836e-05
-2.64174e-05
-2.47229e-05
-2.30991e-05
-2.15449e-05
-2.00591e-05
-1.86403e-05
-1.72872e-05
-1.59983e-05
-1.47721e-05
-1.36072e-05
-1.25018e-05
-1.14545e-05
-1.04633e-05
-9.52668e-06
-8.64279e-06
-7.80984e-06
-7.02608e-06
-6.28946e-06
-5.59841e-06
-4.95071e-06
-4.34488e-06
-3.77858e-06
-3.25035e-06
-2.75805e-06
-2.29971e-06
-1.87399e-06
-1.47804e-06
-1.11124e-06
-7.70526e-07
-4.54789e-07
-1.62395e-07
1.09875e-07
3.61544e-07
5.97113e-07
8.16276e-07
1.02197e-06
1.21643e-06
1.40013e-06
1.57739e-06
1.74778e-06
1.91613e-06
2.08235e-06
2.25183e-06
2.42242e-06
2.61114e-06
2.7726e-06
3.07937e-06
2.98214e-06
4.16642e-06
1.91431e-06
8.39154e-06
-4.80479e-06
2.15857e-05
-2.04081e-05
3.52349e-05
-1.33954e-05
-3.47618e-06
5.67055e-05
-6.40755e-05
-0.000224806
-0.00022026
-0.000215709
-0.000211153
-0.000206595
-0.000202037
-0.000197484
-0.00019294
-0.00018841
-0.000183898
-0.000179405
-0.000174932
-0.000170481
-0.000166052
-0.000161647
-0.000157267
-0.000152915
-0.000148593
-0.000144306
-0.000140055
-0.000135843
-0.000131674
-0.000127551
-0.000123475
-0.00011945
-0.000115477
-0.000111559
-0.000107698
-0.000103897
-0.000100156
-9.64784e-05
-9.28653e-05
-8.93184e-05
-8.58391e-05
-8.24288e-05
-7.90889e-05
-7.58205e-05
-7.26246e-05
-6.95022e-05
-6.64542e-05
-6.34813e-05
-6.0584e-05
-5.7763e-05
-5.50185e-05
-5.23511e-05
-4.97609e-05
-4.72476e-05
-4.48116e-05
-4.24526e-05
-4.01704e-05
-3.79648e-05
-3.58351e-05
-3.3781e-05
-3.18018e-05
-2.98968e-05
-2.80652e-05
-2.6306e-05
-2.46183e-05
-2.3001e-05
-2.1453e-05
-1.9973e-05
-1.85598e-05
-1.72121e-05
-1.59283e-05
-1.4707e-05
-1.35466e-05
-1.24456e-05
-1.14023e-05
-1.0415e-05
-9.48204e-06
-8.60159e-06
-7.77186e-06
-6.99115e-06
-6.25736e-06
-5.56901e-06
-4.92377e-06
-4.32031e-06
-3.75615e-06
-3.22997e-06
-2.73954e-06
-2.28296e-06
-1.85886e-06
-1.46444e-06
-1.099e-06
-7.5963e-07
-4.45039e-07
-1.53791e-07
1.17473e-07
3.68181e-07
6.02869e-07
8.21199e-07
1.02614e-06
1.21987e-06
1.40288e-06
1.57954e-06
1.74925e-06
1.91709e-06
2.08267e-06
2.25163e-06
2.42171e-06
2.60974e-06
2.77109e-06
3.07625e-06
2.98131e-06
4.15848e-06
1.92014e-06
8.37078e-06
-4.78611e-06
2.15612e-05
-2.04145e-05
3.52742e-05
-1.34715e-05
-3.43365e-06
5.67474e-05
-6.42013e-05
-0.000224904
-0.000220264
-0.000215627
-0.000210994
-0.000206366
-0.000201749
-0.000197144
-0.000192555
-0.000187988
-0.000183444
-0.000178925
-0.000174432
-0.000169964
-0.000165523
-0.000161109
-0.000156724
-0.000152369
-0.000148048
-0.000143762
-0.000139515
-0.000135309
-0.000131148
-0.000127032
-0.000122966
-0.00011895
-0.000114989
-0.000111082
-0.000107234
-0.000103445
-9.97174e-05
-9.6053e-05
-9.24534e-05
-8.892e-05
-8.54545e-05
-8.20579e-05
-7.87317e-05
-7.54769e-05
-7.22946e-05
-6.91856e-05
-6.61508e-05
-6.31908e-05
-6.03063e-05
-5.74978e-05
-5.47655e-05
-5.211e-05
-4.95313e-05
-4.70294e-05
-4.46043e-05
-4.22559e-05
-3.99841e-05
-3.77883e-05
-3.56683e-05
-3.36234e-05
-3.16531e-05
-2.97567e-05
-2.79332e-05
-2.61819e-05
-2.45018e-05
-2.28917e-05
-2.13506e-05
-1.98772e-05
-1.84703e-05
-1.71285e-05
-1.58503e-05
-1.46344e-05
-1.34791e-05
-1.23829e-05
-1.13442e-05
-1.03612e-05
-9.43232e-06
-8.55571e-06
-7.72956e-06
-6.95226e-06
-6.22161e-06
-5.53626e-06
-4.89377e-06
-4.29294e-06
-3.73117e-06
-3.20727e-06
-2.71892e-06
-2.26431e-06
-1.842e-06
-1.44929e-06
-1.08536e-06
-7.47491e-07
-4.34184e-07
-1.44207e-07
1.25931e-07
3.75572e-07
6.09277e-07
8.26685e-07
1.03078e-06
1.2237e-06
1.40594e-06
1.58193e-06
1.7509e-06
1.91816e-06
2.08304e-06
2.25141e-06
2.42091e-06
2.6082e-06
2.76935e-06
3.07289e-06
2.98004e-06
4.15036e-06
1.9252e-06
8.34989e-06
-4.76781e-06
2.15345e-05
-2.04166e-05
3.53048e-05
-1.35399e-05
-3.39172e-06
5.67762e-05
-6.43046e-05
-0.00022495
-0.000220213
-0.00021549
-0.00021078
-0.000206084
-0.000201407
-0.00019675
-0.000192117
-0.000187511
-0.000182935
-0.000178389
-0.000173874
-0.000169389
-0.000164935
-0.000160512
-0.000156121
-0.000151764
-0.000147443
-0.00014316
-0.000138918
-0.000134718
-0.000130565
-0.000126459
-0.000122403
-0.000118399
-0.000114449
-0.000110556
-0.000106721
-0.000102946
-9.92332e-05
-9.55835e-05
-9.19989e-05
-8.84807e-05
-8.50303e-05
-8.1649e-05
-7.8338e-05
-7.50983e-05
-7.19309e-05
-6.88366e-05
-6.58164e-05
-6.28707e-05
-6.00003e-05
-5.72056e-05
-5.44867e-05
-5.18443e-05
-4.92785e-05