/*--------------------------------*- C++ -*----------------------------------*\
| =========                 |                                                 |
| \\      /  F ield         | OpenFOAM: The Open Source CFD Toolbox           |
|  \\    /   O peration     | Version:  2412                                  |
|   \\  /    A nd           | Website:  www.openfoam.com                      |
|    \\/     M anipulation  |                                                 |
\*---------------------------------------------------------------------------*/
FoamFile
{
    version     2.0;
    format      ascii;
    arch        "LSB;label=32;scalar=64";
    class       surfaceScalarField;
    location    "3";
    object      phi;
}
// * * * * * * * * * * * * * * * * * * * * * * * * * * * * * * * * * * * * * //

dimensions      [0 3 -1 0 0 0 0];

oriented        oriented;

internalField   nonuniform List<scalar> 
126304
(
0.00504854
2.22117e-06
-2.18866e-09
0.00503693
1.16162e-05
-8.06005e-09
0.00502877
8.16924e-06
-8.99364e-09
0.00502367
5.10289e-06
-3.38772e-09
0.00502262
1.04471e-06
1.83533e-09
0.00502281
-1.86672e-07
5.18218e-09
0.00502292
-1.20275e-07
6.51251e-09
0.00502262
2.87169e-07
6.98512e-09
0.00502188
7.41016e-07
7.05457e-09
0.00502077
1.09521e-06
6.87312e-09
0.00501942
1.34476e-06
6.62668e-09
0.00501789
1.52193e-06
6.45707e-09
0.00501624
1.6527e-06
6.36762e-09
0.00501447
1.75522e-06
6.32354e-09
0.00501263
1.84141e-06
6.30306e-09
0.0050107
1.91868e-06
6.28581e-09
0.0050087
1.99169e-06
6.19912e-09
0.00500663
2.06326e-06
6.06615e-09
0.00500449
2.13518e-06
5.95792e-09
0.00500228
2.20863e-06
5.86921e-09
0.00499999
2.28441e-06
5.75552e-09
0.00499762
2.36302e-06
5.577e-09
0.00499517
2.44475e-06
5.36894e-09
0.00499263
2.52976e-06
5.16997e-09
0.00499001
2.61821e-06
4.98586e-09
0.0049873
2.71024e-06
4.80629e-09
0.00498449
2.80594e-06
4.60453e-09
0.00498158
2.90542e-06
4.37919e-09
0.00497856
3.00876e-06
4.12541e-09
0.00497544
3.11604e-06
3.85566e-09
0.00497221
3.22736e-06
3.57577e-09
0.00496887
3.34282e-06
3.30261e-09
0.0049654
3.46254e-06
3.03944e-09
0.00496181
3.58667e-06
2.78672e-09
0.00495809
3.71542e-06
2.52948e-09
0.00495424
3.84899e-06
2.26024e-09
0.00495025
3.98764e-06
1.97309e-09
0.00494612
4.13167e-06
1.66855e-09
0.00494184
4.28142e-06
1.3449e-09
0.0049374
4.4373e-06
1.0066e-09
0.0049328
4.59981e-06
6.63267e-10
0.00492803
4.76955e-06
3.24052e-10
0.00492308
4.94727e-06
-9.29137e-12
0.00491795
5.13387e-06
-3.42464e-10
0.00491262
5.3305e-06
-6.84577e-10
0.00490708
5.53852e-06
-1.03887e-09
0.00490132
5.75967e-06
-1.40174e-09
0.00489533
5.99614e-06
-1.75874e-09
0.00488908
6.25072e-06
-2.09188e-09
0.00488255
6.5269e-06
-2.38604e-09
0.00487573
6.82851e-06
-2.63192e-09
0.00486857
7.15815e-06
-2.82593e-09
0.00486106
7.51296e-06
-2.9682e-09
0.00485319
7.878e-06
-3.06244e-09
8.22095e-06
0.00484497
-3.11313e-09
0.00504857
4.40504e-06
0.00503707
2.31205e-05
0.0050291
1.61349e-05
0.00502401
1.0195e-05
0.00502292
2.13116e-06
0.00502303
-2.91357e-07
0.00502307
-1.62111e-07
0.00502273
6.32848e-07
0.00502194
1.52348e-06
0.00502082
2.21897e-06
0.00501945
2.70924e-06
0.00501792
3.05801e-06
0.00501626
3.31607e-06
0.00501449
3.51893e-06
0.00501264
3.6899e-06
0.00501072
3.8435e-06
0.00500872
3.98877e-06
0.00500665
4.13132e-06
0.00500451
4.27469e-06
0.0050023
4.42121e-06
0.00500001
4.57241e-06
0.00499765
4.72922e-06
0.0049952
4.89224e-06
0.00499267
5.06185e-06
0.00499005
5.23835e-06
0.00498734
5.42199e-06
0.00498453
5.61296e-06
0.00498162
5.81144e-06
0.00497861
6.01759e-06
0.0049755
6.23159e-06
0.00497227
6.45363e-06
0.00496893
6.68392e-06
0.00496547
6.92272e-06
0.00496189
7.17032e-06
0.00495818
7.42709e-06
0.00495433
7.69345e-06
0.00495035
7.9699e-06
0.00494622
8.257e-06
0.00494195
8.55544e-06
0.00493752
8.86603e-06
0.00493293
9.18974e-06
0.00492817
9.52777e-06
0.00492324
9.88155e-06
0.00491812
1.02529e-05
0.00491281
1.06439e-05
0.00490729
1.10573e-05
0.00490155
1.14965e-05
0.00489558
1.19656e-05
0.00488936
1.24701e-05
0.00488287
1.30167e-05
0.00487609
1.36127e-05
0.00486898
1.4263e-05
0.00486153
1.49622e-05
0.00485373
1.56814e-05
1.63588e-05
0.00484559
0.00504868
6.48053e-06
0.00503742
3.43781e-05
0.00502984
2.37145e-05
0.00502474
1.52986e-05
0.00502355
3.31854e-06
0.00502349
-2.30419e-07
0.00502339
-5.54192e-08
0.00502294
1.08254e-06
0.00502209
2.37434e-06
0.00502092
3.38542e-06
0.00501953
4.09932e-06
0.00501798
4.60898e-06
0.00501631
4.98767e-06
0.00501454
5.28666e-06
0.00501269
5.53968e-06
0.00501076
5.76779e-06
0.00500877
5.98406e-06
0.0050067
6.19666e-06
0.00500457
6.41079e-06
0.00500236
6.62982e-06
0.00500008
6.85593e-06
0.00499771
7.09049e-06
0.00499527
7.33436e-06
0.00499275
7.58814e-06
0.00499013
7.85226e-06
0.00498743
8.12706e-06
0.00498463
8.41283e-06
0.00498173
8.70981e-06
0.00497873
9.01823e-06
0.00497562
9.33837e-06
0.0049724
9.67049e-06
0.00496907
1.00149e-05
0.00496562
1.0372e-05
0.00496205
1.07423e-05
0.00495835
1.11261e-05
0.00495452
1.15243e-05
0.00495055
1.19373e-05
0.00494645
1.23662e-05
0.00494219
1.28119e-05
0.00493778
1.32756e-05
0.00493321
1.37586e-05
0.00492848
1.42627e-05
0.00492357
1.479e-05
0.00491848
1.53429e-05
0.0049132
1.59247e-05
0.00490771
1.65392e-05
0.00490202
1.71909e-05
0.0048961
1.7886e-05
0.00488994
1.86321e-05
0.00488352
1.94384e-05
0.00487681
2.03154e-05
0.00486981
2.12696e-05
0.00486248
2.22935e-05
0.00485481
2.33465e-05
2.43421e-05
0.00484683
0.00504892
8.31774e-06
0.00503812
4.51821e-05
0.0050311
3.07329e-05
0.00502593
2.04686e-05
0.00502455
4.70086e-06
0.00502421
1.01096e-07
0.00502388
2.81674e-07
0.00502327
1.68897e-06
0.00502232
3.32617e-06
0.00502109
4.61398e-06
0.00501966
5.52618e-06
0.00501809
6.1811e-06
0.00501641
6.67073e-06
0.00501463
7.05973e-06
0.00501278
7.39086e-06
0.00501086
7.69084e-06
0.00500887
7.97627e-06
0.00500681
8.25758e-06
0.00500468
8.54144e-06
0.00500247
8.83214e-06
0.0050002
9.13244e-06
0.00499784
9.44408e-06
0.00499541
9.76816e-06
0.00499289
1.01055e-05
0.00499029
1.04566e-05
0.00498759
1.08219e-05
0.00498481
1.12017e-05
0.00498192
1.15965e-05
0.00497893
1.20064e-05
0.00497584
1.24318e-05
0.00497263
1.2873e-05
0.00496932
1.33306e-05
0.00496589
1.38049e-05
0.00496233
1.42965e-05
0.00495865
1.48061e-05
0.00495484
1.53344e-05
0.0049509
1.58825e-05
0.00494681
1.64512e-05
0.00494258
1.7042e-05
0.0049382
1.76563e-05
0.00493366
1.82958e-05
0.00492896
1.89627e-05
0.00492409
1.96597e-05
0.00491905
2.03899e-05
0.00491381
2.11572e-05
0.00490839
2.19662e-05
0.00490276
2.28228e-05
0.00489691
2.37344e-05
0.00489083
2.471e-05
0.00488451
2.57611e-05
0.00487792
2.69001e-05
0.00487106
2.81349e-05
0.00486389
2.94559e-05
0.00485643
3.08147e-05
3.21073e-05
0.00484866
0.00504933
9.74509e-06
0.00503925
5.52668e-05
0.00503293
3.70508e-05
0.00502761
2.57864e-05
0.00502591
6.39884e-06
0.0050252
8.16153e-07
0.00502455
9.30453e-07
0.00502373
2.50179e-06
0.00502265
4.4081e-06
0.00502135
5.92133e-06
0.00501987
6.99909e-06
0.00501827
7.77925e-06
0.00501658
8.36752e-06
0.0050148
8.83877e-06
0.00501295
9.243e-06
0.00501103
9.61149e-06
0.00500904
9.96374e-06
0.00500698
1.0312e-05
0.00500486
1.06643e-05
0.00500267
1.10256e-05
0.0050004
1.13991e-05
0.00499806
1.1787e-05
0.00499564
1.21904e-05
0.00499313
1.26104e-05
0.00499054
1.30477e-05
0.00498786
1.35026e-05
0.00498509
1.39756e-05
0.00498221
1.44671e-05
0.00497924
1.49774e-05
0.00497617
1.55069e-05
0.00497299
1.60561e-05
0.00496969
1.66254e-05
0.00496628
1.72154e-05
0.00496275
1.78267e-05
0.0049591
1.84602e-05
0.00495531
1.91168e-05
0.0049514
1.97975e-05
0.00494735
2.05037e-05
0.00494315
2.12367e-05
0.00493881
2.19984e-05
0.00493431
2.27908e-05
0.00492966
2.36164e-05
0.00492484
2.44783e-05
0.00491985
2.538e-05
0.00491468
2.63259e-05
0.00490933
2.73215e-05
0.00490378
2.83731e-05
0.00489802
2.94891e-05
0.00489205
3.06795e-05
0.00488586
3.19569e-05
0.00487942
3.33346e-05
0.00487274
3.48213e-05
0.00486579
3.6406e-05
0.00485857
3.80351e-05
3.95945e-05
0.00485108
0.00504993
1.05741e-05
0.0050408
6.43997e-05
0.00503532
4.25306e-05
0.00502974
3.13653e-05
0.00502761
8.52204e-06
0.00502641
2.01829e-06
0.00502538
1.96132e-06
0.00502432
3.56139e-06
0.00502309
5.6432e-06
0.00502169
7.32022e-06
0.00502016
8.52478e-06
0.00501853
9.40675e-06
0.00501682
1.00793e-05
0.00501504
1.06237e-05
0.00501318
1.10952e-05
0.00501127
1.15282e-05
0.00500929
1.19445e-05
0.00500724
1.23578e-05
0.00500513
1.27768e-05
0.00500295
1.32074e-05
0.00500069
1.3653e-05
0.00499836
1.4116e-05
0.00499596
1.45978e-05
0.00499347
1.50995e-05
0.00499089
1.56218e-05
0.00498823
1.61653e-05
0.00498548
1.67303e-05
0.00498263
1.73173e-05
0.00497968
1.79267e-05
0.00497662
1.85589e-05
0.00497347
1.92144e-05
0.0049702
1.98937e-05
0.00496682
2.05975e-05
0.00496332
2.13266e-05
0.00495969
2.20817e-05
0.00495595
2.2864e-05
0.00495207
2.36747e-05
0.00494806
2.45152e-05
0.00494391
2.5387e-05
0.00493961
2.62922e-05
0.00493517
2.72331e-05
0.00493058
2.82123e-05
0.00492582
2.92331e-05
0.0049209
3.02995e-05
0.00491581
3.14162e-05
0.00491054
3.25886e-05
0.00490509
3.38239e-05
0.00489945
3.51304e-05
0.00489361
3.65186e-05
0.00488757
3.80013e-05
0.00488131
3.95917e-05
0.00487483
4.12982e-05
0.00486813
4.31088e-05
0.0048612
4.49676e-05
4.67566e-05
0.00485404
0.00505046
1.08727e-05
0.0050429
7.19543e-05
0.00503793
4.75067e-05
0.00503223
3.70676e-05
0.00502955
1.1202e-05
0.00502778
3.78758e-06
0.00502633
3.40772e-06
0.005025
4.89551e-06
0.00502359
7.04646e-06
0.00502209
8.81793e-06
0.00502051
1.01072e-05
0.00501885
1.10653e-05
0.00501713
1.18063e-05
0.00501534
1.2414e-05
0.00501349
1.29462e-05
0.00501157
1.34393e-05
0.0050096
1.39165e-05
0.00500757
1.43924e-05
0.00500547
1.48764e-05
0.0050033
1.53747e-05
0.00500106
1.5891e-05
0.00499875
1.64279e-05
0.00499636
1.69868e-05
0.00499389
1.7569e-05
0.00499134
1.81752e-05
0.0049887
1.88059e-05
0.00498597
1.94616e-05
0.00498314
2.01427e-05
0.00498022
2.08496e-05
0.0049772
2.15827e-05
0.00497407
2.23427e-05
0.00497083
2.313e-05
0.00496748
2.39454e-05
0.00496402
2.47897e-05
0.00496044
2.56638e-05
0.00495673
2.65689e-05
0.0049529
2.75062e-05
0.00494894
2.84773e-05
0.00494484
2.94839e-05
0.00494061
3.05281e-05
0.00493623
3.16122e-05
0.0049317
3.27392e-05
0.00492702
3.39123e-05
0.00492219
3.51356e-05
0.00491719
3.64138e-05
0.00491202
3.77526e-05
0.00490669
3.91588e-05
0.00490118
4.06407e-05
0.00489549
4.22084e-05
0.00488962
4.38738e-05
0.00488356
4.56495e-05
0.00487731
4.75425e-05
0.00487088
4.95398e-05
0.00486427
5.15851e-05
0.00485746
5.35583e-05
0.00484692
-1.95116e-06
-3.14307e-09
0.00484857
-1.6454e-06
-3.18797e-09
0.00485014
-1.5606e-06
-3.2172e-09
0.00485187
-1.72732e-06
-3.2415e-09
0.00485397
-2.10303e-06
-3.26054e-09
0.00485654
-2.56648e-06
-3.27253e-09
0.0048595
-2.95685e-06
-3.27903e-09
0.00486263
-3.1239e-06
-3.27665e-09
0.0048656
-2.96778e-06
-3.26095e-09
0.00486806
-2.45579e-06
-3.23088e-09
0.00486968
-1.61619e-06
-3.17531e-09
0.00487018
-4.99201e-07
-3.12284e-09
0.0048694
7.86618e-07
-2.98246e-09
0.00486721
2.19421e-06
-2.94614e-09
0.00486351
3.70366e-06
-2.89179e-09
0.00485823
5.27999e-06
-2.85159e-09
0.00485131
6.91881e-06
-2.80584e-09
0.00484269
8.62941e-06
-2.77119e-09
0.00483226
1.04296e-05
-2.80477e-09
0.00481992
1.23426e-05
-2.86854e-09
0.00480553
1.43955e-05
-2.94049e-09
0.00478891
1.66186e-05
-2.97867e-09
0.00476987
1.90455e-05
-2.92944e-09
0.00474816
2.17143e-05
-2.77608e-09
0.00472349
2.46672e-05
-2.52792e-09
0.00469554
2.79521e-05
-2.21242e-09
0.00466392
3.16229e-05
-1.86615e-09
0.00462818
3.57421e-05
-1.52617e-09
0.0045878
4.03841e-05
-1.22305e-09
0.00454216
4.56396e-05
-9.75841e-10
0.00449054
5.16206e-05
-7.93603e-10
0.00443208
5.84656e-05
-6.77209e-10
0.00436573
6.63466e-05
-6.17346e-10
0.00429025
7.54773e-05
-5.9556e-10
0.00420413
8.61265e-05
-5.89745e-10
0.00410549
9.8635e-05
-5.77331e-10
0.00399205
0.00011344
-5.36876e-10
0.00386095
0.000131103
-4.55013e-10
0.0037086
0.000152348
-3.30828e-10
0.00353052
0.000178087
-1.73185e-10
0.0033211
0.000209419
-3.171e-13
0.00307358
0.000247515
1.62609e-10
0.00278031
0.000293267
2.89026e-10
0.00243385
0.000346463
3.62325e-10
0.00202959
0.000404259
3.93467e-10
0.0015707
0.000458897
4.14433e-10
0.00107562
0.000495075
4.65527e-10
0.000587911
0.000487708
5.2124e-10
0.00018794
0.00039997
4.51736e-10
0.00018794
1.80457e-10
0.00484622
-2.5756e-06
0.00484652
-1.95042e-06
0.00484671
-1.75042e-06
0.00484701
-2.03082e-06
0.00484763
-2.71917e-06
0.00484864
-3.57109e-06
0.00484996
-4.27856e-06
0.00485139
-4.55318e-06
0.00485262
-4.2015e-06
0.00485332
-3.15678e-06
0.00485319
-1.49003e-06
0.00485196
7.31665e-07
0.00484952
3.22773e-06
0.00484569
6.03003e-06
0.00484038
9.01089e-06
0.00483353
1.21284e-05
0.00482507
1.53764e-05
0.00481493
1.87736e-05
0.004803
2.23557e-05
0.00478918
2.61687e-05
0.00477331
3.02658e-05
0.00475522
3.47071e-05
0.0047347
3.95596e-05
0.00471152
4.48987e-05
0.00468538
5.08093e-05
0.00465594
5.73864e-05
0.00462283
6.4738e-05
0.00458558
7.29892e-05
0.00454368
8.22888e-05
0.0044965
9.28181e-05
0.00444332
0.000104801
0.00438327
0.000118513
0.00431532
0.000134298
0.00423822
0.00015258
0.00415045
0.000173895
0.00405016
0.000198919
0.00393509
0.000228517
0.00380239
0.000263801
0.00364854
0.000306199
0.00346912
0.000357505
0.00325868
0.000419862
0.00301066
0.000495532
0.00271776
0.000586164
0.00237308
0.000691143
0.00197275
0.000804592
0.00152073
0.000910918
0.0010361
0.000979704
0.000562151
0.000961656
0.000176169
0.000785951
0.000364109
0.00484481
-5.54643e-07
0.00484244
4.16241e-07
0.0048399
7.84658e-07
0.00483737
5.01163e-07
0.00483504
-3.87092e-07
0.00483295
-1.48315e-06
0.00483104
-2.36844e-06
0.00482913
-2.64035e-06
0.00482696
-2.03001e-06
0.0048242
-3.95086e-07
0.00482064
2.06632e-06
0.00481612
5.25132e-06
0.00481037
8.98085e-06
0.00480331
1.30908e-05
0.00479485
1.74697e-05
0.00478491
2.20628e-05
0.00477343
2.68644e-05
0.00476029
3.19041e-05
0.00474542
3.72347e-05
0.00472866
4.29238e-05
0.00470988
4.90498e-05
0.00468888
5.5701e-05
0.00466547
6.29769e-05
0.00463937
7.09899e-05
0.00461032
7.98667e-05
0.00457795
8.975e-05
0.00454189
0.000100802
0.00450167
0.000113209
0.00445676
0.000127196
0.00440655
0.000143034
0.00435029
0.000161059
0.00428712
0.000181682
0.004216
0.000205415
0.00413569
0.000232891
0.00404469
0.000264902
0.00394115
0.000302452
0.00382285
0.000346816
0.00368702
0.000399629
0.00353024
0.000462979
0.00334828
0.000539472
0.00313595
0.000632188
0.00288719
0.000744298
0.00259541
0.000877942
0.0022548
0.00103175
0.00186291
0.00119649
0.0014251
0.00134873
0.000961295
0.00144351
0.000514486
0.00140846
0.000157957
0.00114248
0.000522066
0.0048427
5.40451e-06
0.00483637
6.7495e-06
0.00482978
7.37273e-06
0.00482311
7.1752e-06
0.00481642
6.2944e-06
0.00480979
5.14741e-06
0.00480316
4.26946e-06
0.00479637
4.1505e-06
0.00478922
5.11368e-06
0.00478155
7.27659e-06
0.00477309
1.05266e-05
0.00476366
1.46773e-05
0.00475314
1.95072e-05
0.0047414
2.4825e-05
0.00472837
3.05045e-05
0.00471394
3.64865e-05
0.00469804
4.27697e-05
0.00468055
4.93948e-05
0.00466135
5.64309e-05
0.00464031
6.39655e-05
0.00461726
7.21005e-05
0.00459201
8.09511e-05
0.00456434
9.06481e-05
0.00453399
0.00010134
0.00450066
0.000113196
0.004464
0.000126405
0.00442362
0.000141183
0.00437905
0.000157781
0.00432975
0.000176497
0.00427509
0.000197693
0.00421434
0.000221814
0.00414661
0.000249408
0.00407087
0.00028115
0.00398589
0.000317876
0.00389017
0.000360626
0.00378191
0.000410709
0.00365894
0.000469786
0.0035186
0.00053997
0.00335764
0.000623934
0.00317214
0.00072498
0.00295739
0.000846936
0.00270808
0.000993601
0.00241883
0.0011672
0.00208546
0.00136512
0.0017075
0.00157444
0.00129211
0.00176413
0.000859576
0.00187604
0.000450828
0.00181721
0.000132145
0.00146116
0.000654212
0.00483995
1.65339e-05
0.00482841
1.82882e-05
0.00481653
1.92503e-05
0.00480441
1.93024e-05
0.00479209
1.86105e-05
0.00477961
1.76257e-05
0.00476694
1.69454e-05
0.00475396
1.71233e-05
0.00474055
1.85241e-05
0.00472656
2.12681e-05
0.00471183
2.52583e-05
0.00469622
3.02835e-05
0.00467963
3.6102e-05
0.00466194
4.25132e-05
0.00464306
4.93857e-05
0.00462288
5.6662e-05
0.0046013
6.4348e-05
0.0045782
7.24961e-05
0.00455344
8.11904e-05
0.00452687
9.05368e-05
0.00449831
0.000100659
0.00446757
0.000111697
0.0044344
0.000123814
0.00439855
0.000137192
0.00435971
0.000152041
0.00431751
0.000168599
0.00427156
0.000187135
0.00422138
0.000207963
0.00416642
0.000231456
0.00410605
0.000258066
0.00403951
0.00028835
0.00396593
0.000322986
0.00388427
0.00036281
0.0037933
0.000408849
0.00369155
0.000462377
0.00357727
0.000524987
0.00344838
0.000598679
0.00330237
0.000685974
0.00313629
0.000790018
0.00294665
0.000914623
0.0027295
0.00106408
0.0024807
0.0012424
0.00219658
0.00145132
0.00187523
0.00168647
0.00151874
0.00193093
0.00113608
0.00214678
0.000746997
0.00226512
0.000386451
0.00217776
0.000106392
0.00174122
0.000760604
0.00483656
3.40064e-05
0.00481866
3.61933e-05
0.00480034
3.75728e-05
0.00478162
3.80167e-05
0.00476254
3.76966e-05
0.00474308
3.70803e-05
0.00472324
3.67912e-05
0.00470295
3.74119e-05
0.00468214
3.93283e-05
0.00466074
4.26713e-05
0.00463865
4.73534e-05
0.00461576
5.31643e-05
0.004592
5.98656e-05
0.00456725
6.72598e-05
0.00454142
7.52212e-05
0.00451438
8.37005e-05
0.00448602
9.27132e-05
0.00445619
0.000102324
0.00442475
0.00011263
0.00439153
0.000123755
0.00435635
0.000135842
0.00431899
0.000149058
0.00427921
0.000163593
0.00423673
0.000179665
0.00419125
0.000197526
0.00414239
0.00021746
0.00408973
0.00023979
0.0040328
0.000264895
0.00397103
0.000293223
0.00390378
0.00032532
0.00383028
0.000361847
0.00374965
0.000403616
0.00366084
0.000451617
0.00356263
0.000507058
0.00345358
0.000571428
0.00333201
0.000646565
0.00319594
0.00073475
0.00304311
0.000838801
0.00287098
0.00096215
0.00267679
0.00110881
0.00245781
0.00128306
0.00221178
0.00148842
0.00193774
0.00172537
0.00163726
0.00198695
0.001316
0.0022522
0.000985038
0.00247773
0.000662183
0.00258798
0.000370105
0.00246984
0.00012712
0.00198421
0.000887724
0.00483256
5.89105e-05
0.00480722
6.15338e-05
0.00478141
6.33832e-05
0.0047551
6.43249e-05
0.00472827
6.45257e-05
0.0047009
6.44472e-05
0.00467299
6.47093e-05
0.0046445
6.58945e-05
0.00461544
6.83931e-05
0.00458576
7.23458e-05
0.00455544
7.76807e-05
0.0045244
8.42043e-05
0.00449257
9.16962e-05
0.00445985
9.99754e-05
0.00442614
0.000108931
0.00439131
0.000118528
0.00435523
0.000128792
0.00431776
0.000139802
0.00427872
0.000151668
0.00423794
0.00016453
0.00419524
0.00017855
0.00415038
0.000193918
0.00410311
0.000210854
0.00405317
0.000229611
0.00400021
0.000250481
0.00394388
0.000273794
0.00388374
0.000299929
0.00381931
0.000329327
0.00375002
0.000362516
0.0036752
0.000400132
0.00359411
0.000442946
0.00350582
0.000491899
0.00340931
0.00054813
0.00330335
0.00061302
0.00318652
0.000688254
0.0030572
0.000775885
0.00291354
0.000878407
0.00275352
0.000998824
0.00257503
0.00114064
0.00237612
0.00130772
0.00215548
0.0015037
0.00191318
0.00173072
0.00165186
0.00198669
0.00137805
0.00226076
0.00110337
0.00252688
0.000844605
0.00273649
0.000619818
0.00281277
0.000436363
0.00265329
0.000269419
0.00215115
0.00115714
-1.83593e-05
1.8359e-05
2.59783e-10
-7.23199e-09
-1.8353e-05
9.83211e-10
8.64952e-05
-8.65041e-05
1.68027e-09
0.000252694
-0.000166201
2.11595e-09
0.000494364
-0.000241672
2.20586e-09
0.000796747
-0.000302385
2.01614e-09
0.00113965
-0.000342906
1.72954e-09
0.00150188
-0.000362229
1.55234e-09
0.00186448
-0.0003626
1.62066e-09
0.00221262
-0.000348146
1.96287e-09
0.00253623
-0.000323606
2.50031e-09
0.00282962
-0.000293398
3.10122e-09
0.00309072
-0.000261103
3.63811e-09
0.00332
-0.000229288
4.01672e-09
0.00351957
-0.000199573
4.1947e-09
0.00369237
-0.000172808
4.16805e-09
0.00384166
-0.000149291
3.95867e-09
0.00397063
-0.000128967
3.60322e-09
0.0040822
-0.000111577
3.14337e-09
0.00417897
-9.67743e-05
2.61902e-09
0.00426316
-8.41927e-05
2.10679e-09
0.00433664
-7.34841e-05
1.5523e-09
0.00440098
-6.43397e-05
1.2216e-09
0.00445748
-5.64952e-05
1.39683e-09
0.0045072
-4.97298e-05
2.1906e-09
0.00455106
-4.3863e-05
3.60256e-09
0.00458981
-3.87483e-05
5.21332e-09
0.00462407
-3.42667e-05
6.76443e-09
0.00465438
-3.03218e-05
8.12911e-09
0.00468121
-2.68347e-05
9.18691e-09
0.00470494
-2.37403e-05
9.88505e-09
0.00472591
-2.09844e-05
1.02407e-08
0.00474442
-1.8522e-05
1.03189e-08
0.00476073
-1.6315e-05
1.02044e-08
0.00477505
-1.4332e-05
9.97836e-09
0.00478758
-1.25463e-05
9.70386e-09
0.00479851
-1.09355e-05
9.42311e-09
0.00480798
-9.48057e-06
9.1613e-09
0.00481614
-8.16547e-06
8.93045e-09
0.00482311
-6.97665e-06
8.7361e-09
0.004829
-5.90294e-06
8.57936e-09
0.00483393
-4.93539e-06
8.45798e-09
0.00483799
-4.06729e-06
8.36917e-09
0.00484127
-3.29421e-06
8.31118e-09
0.00484388
-2.61416e-06
8.28218e-09
0.0048459
-2.02741e-06
8.28104e-09
0.00484742
-1.53526e-06
8.30817e-09
0.00484855
-1.13633e-06
8.36374e-09
0.00484936
-8.18709e-07
8.44591e-09
-5.48226e-07
0.0048499
8.54994e-09
-8.32726e-06
2.66863e-05
2.68297e-05
-5.351e-05
0.000128883
-0.000188558
0.000304414
-0.000341732
0.000547857
-0.000485116
0.000845151
-0.000599679
0.001178
-0.000675755
0.00152746
-0.000711693
0.00187661
-0.000711751
0.00221211
-0.000683644
0.00252476
-0.000636251
0.00280926
-0.0005779
0.00306354
-0.000515388
0.00328789
-0.000453636
0.0034841
-0.000395783
0.00365481
-0.000343511
0.00380296
-0.000297443
0.0039315
-0.000257511
0.00404318
-0.000223253
0.00414042
-0.00019402
0.00422535
-0.000169119
0.00429975
-0.000147884
0.00436513
-0.000129722
0.00442276
-0.00011412
0.00447368
-0.000100649
0.00451877
-8.89561e-05
0.00455878
-7.87547e-05
0.00459432
-6.9811e-05
0.00462593
-6.19348e-05
0.00465407
-5.49702e-05
0.00467912
-4.87882e-05
0.00470141
-4.32815e-05
0.00472125
-3.83602e-05
0.00473889
-3.39492e-05
0.00475454
-2.99856e-05
0.00476841
-2.64162e-05
0.00478067
-2.31964e-05
0.00479148
-2.02882e-05
0.00480097
-1.76591e-05
0.00480928
-1.52822e-05
0.00481651
-1.31349e-05
0.00482277
-1.11989e-05
0.00482817
-9.46066e-06
0.00483278
-7.91086e-06
0.00483671
-6.54496e-06
0.00484005
-5.36274e-06
0.00484288
-4.36602e-06
0.00484529
-3.55148e-06
0.00484737
-2.89556e-06
-2.33178e-06
0.00484915
1.14506e-05
1.52357e-05
7.52949e-05
-0.000117354
0.000203889
-0.000317151
0.000395172
-0.000533015
0.000640723
-0.000730667
0.000927796
-0.000886752
0.0012416
-0.000989558
0.0015673
-0.0010374
0.00189163
-0.00103608
0.00220391
-0.00099592
0.00249651
-0.000928854
0.00276481
-0.000846196
0.00300673
-0.000757306
0.00322216
-0.000669072
0.00341236
-0.00058598
0.00357936
-0.000510512
0.00372558
-0.000443664
0.00385351
-0.000385443
0.00396554
-0.000335274
0.00406381
-0.000292296
0.00415025
-0.000255557
0.0042265
-0.000224134
0.00429397
-0.000197188
0.00435384
-0.000173991
0.00440712
-0.000153929
0.00445465
-0.00013649
0.00449715
-0.000121258
0.00453524
-0.000107893
0.00456942
-9.61155e-05
0.00460014
-8.5695e-05
0.0046278
-7.64412e-05
0.00465271
-6.81951e-05
0.00467517
-6.08235e-05
0.00469544
-5.42151e-05
0.00471373
-4.8276e-05
0.00473024
-4.29276e-05
0.00474515
-3.81028e-05
0.0047586
-3.37446e-05
0.00477075
-2.98045e-05
0.00478171
-2.62412e-05
0.00479159
-2.30207e-05
0.00480051
-2.01152e-05
0.00480855
-1.75035e-05
0.00481581
-1.51706e-05
0.00482238
-1.31086e-05
0.00482833
-1.13152e-05
0.00483375
-9.79142e-06
0.00483873
-8.53097e-06
0.00484334
-7.49921e-06
-6.60102e-06
0.00484761
3.35021e-05
-1.82664e-05
0.00013391
-0.000217762
0.000294067
-0.000477308
0.000502331
-0.000741279
0.000747541
-0.000975878
0.00101903
-0.00115824
0.00130663
-0.00127716
0.00160074
-0.00133151
0.00189263
-0.00132797
0.0021749
-0.00127818
0.00244181
-0.00119577
0.0026895
-0.00109388
0.00291583
-0.000983631
0.00312016
-0.000873402
0.003303
-0.000768822
0.00346563
-0.000673142
0.00360976
-0.000587801
0.00373732
-0.000512995
0.0038502
-0.000448155
0.00395022
-0.000392318
0.00403903
-0.00034437
0.0041181
-0.000303197
0.00418868
-0.000267775
0.00425189
-0.0002372
0.00430866
-0.000210697
0.00435979
-0.000187621
0.00440597
-0.000167438
0.00444779
-0.000149709
0.00448574
-0.000134073
0.00452028
-0.000120229
0.00455176
-0.000107928
0.00458053
-9.69619e-05
0.00460686
-8.7155e-05
0.00463101
-7.8361e-05
0.00465319
-7.04569e-05
0.0046736
-6.33383e-05
0.00469241
-5.69165e-05
0.00470978
-5.11153e-05
0.00472585
-4.58698e-05
0.00474073
-4.11245e-05
0.00475455
-3.68333e-05
0.00476739
-3.29583e-05
0.00477936
-2.94701e-05
0.00479053
-2.63472e-05
0.004801
-2.35767e-05
0.00481084
-2.11527e-05
0.00482012
-1.90734e-05
0.00482892
-1.73282e-05
0.00483729
-1.58726e-05
-1.45881e-05
0.00484528
5.67151e-05
-7.49815e-05
0.000194342
-0.000355389
0.000382469
-0.000665435
0.000601596
-0.000960406
0.000839559
-0.00121384
0.00108889
-0.00140758
0.00134463
-0.0015329
0.00160259
-0.00158946
0.00185858
-0.00158396
0.00210838
-0.00152798
0.00234801
-0.00143541
0.0025742
-0.00132007
0.00278459
-0.00119403
0.00297791
-0.00106672
0.00315379
-0.000944711
0.00331268
-0.000832028
0.00345552
-0.000730639
0.00358358
-0.000641057
0.00369828
-0.00056286
0.00380107
-0.000495101
0.0038933
-0.000436603
0.00397625
-0.000386145
0.00405104
-0.000342569
0.00411868
-0.000304841
0.00418005
-0.00027206
0.00423589
-0.000243464
0.00428687
-0.000218417
0.00433355
-0.000196392
0.00437643
-0.000176948
0.00441592
-0.000159722
0.0044524
-0.000144406
0.00448618
-0.000130746
0.00451755
-0.000118525
0.00454675
-0.000107564
0.00457401
-9.77112e-05
0.00459951
-8.88371e-05
0.00462342
-8.08314e-05
0.00464591
-7.35989e-05
0.00466709
-6.70579e-05
0.00468711
-6.11386e-05
0.00470606
-5.57823e-05
0.00472404
-5.09407e-05
0.00474114
-4.65751e-05
0.00475745
-4.26568e-05
0.00477304
-3.9166e-05
0.00478798
-3.60918e-05
0.00480234
-3.34273e-05
0.00481617
-3.11566e-05
0.00482952
-2.92265e-05
-2.75019e-05
0.00484243
9.4432e-05
-0.000169414
0.000263753
-0.00052471
0.000463035
-0.000864716
0.000675381
-0.00117275
0.000891924
-0.00143038
0.00110951
-0.00162516
0.00132794
-0.00175133
0.00154752
-0.00180904
0.0017676
-0.00180404
0.00198628
-0.00174666
0.00220076
-0.00164988
0.00240791
-0.00152722
0.00260494
-0.00139105
0.00278973
-0.00125151
0.00296101
-0.00111599
0.00311832
-0.000989338
0.00326184
-0.000874158
0.00339222
-0.000771435
0.0035104
-0.000681036
0.00361745
-0.000602157
0.00371451
-0.00053366
0.00380266
-0.00047429
0.0038829
-0.000422818
0.00395618
-0.000378115
0.0040233
-0.00033918
0.00408499
-0.000305154
0.00414188
-0.000275313
0.00419454
-0.000249045
0.00424343
-0.00022584
0.00428897
-0.000205268
0.00433154
-0.000186971
0.00437144
-0.000170645
0.00440895
-0.000156036
0.00444431
-0.000142931
0.00447775
-0.00013115
0.00450946
-0.000120539
0.00453959
-0.000110967
0.00456831
-0.000102319
0.00459575
-9.44968e-05
0.00462203
-8.74154e-05
0.00464725
-8.10034e-05
0.00467151
-7.52014e-05
0.00469489
-6.99611e-05
0.00471748
-6.5245e-05
0.00473934
-6.10256e-05
0.00476054
-5.72848e-05
0.00478112
-5.40088e-05
0.00480114
-5.11753e-05
0.00482063
-4.87243e-05
-4.6512e-05
0.00483964
0.000145867
-0.000315281
0.000324022
-0.000702866
0.000507044
-0.00104774
0.000689718
-0.00135543
0.000870534
-0.0016112
0.00105031
-0.00180493
0.0012316
-0.00193263
0.00141688
-0.00199432
0.00160711
-0.00199428
0.00180135
-0.0019409
0.00199704
-0.00184558
0.00219082
-0.001721
0.00237926
-0.00157949
0.00255943
-0.00143168
0.00272927
-0.00128583
0.00288754
-0.00114761
0.0030338
-0.00102042
0.00316819
-0.000905832
0.00329129
-0.000804128
0.00340388
-0.000714752
0.0035069
-0.000636682
0.00360131
-0.000568695
0.00368802
-0.000509531
0.0037679
-0.000457997
0.00384174
-0.000413016
0.00391023
-0.000373643
0.00397399
-0.000339073
0.00403356
-0.000308619
0.00408942
-0.000281701
0.00414198
-0.00025783
0.00419161
-0.000236591
0.0042386
-0.000217637
0.00428324
-0.000200674
0.00432576
-0.000185457
0.00436639
-0.000171778
0.00440531
-0.000159459
0.00444269
-0.000148346
0.00447868
-0.000138305
0.0045134
-0.000129222
0.00454698
-0.000120997
0.00457952
-0.000113544
0.00461112
-0.000106794
0.00464184
-0.000100687
0.00467177
-9.5177e-05
0.00470098
-9.02267e-05
0.0047295
-8.58096e-05
0.00475739
-8.19035e-05
0.0047847
-7.84786e-05
0.00481144
-7.54704e-05
0.00483767
-7.27357e-05
0.00486073
-1.08337e-05
8.71657e-09
0.00487139
-1.06687e-05
9.01481e-09
0.00488164
-1.02644e-05
9.30587e-09
0.00489115
-9.51838e-06
9.55927e-09
0.00489955
-8.40767e-06
9.73402e-09
0.00490657
-7.02707e-06
9.78552e-09
0.00491213
-5.57338e-06
9.67773e-09
0.0049164
-4.27696e-06
9.39725e-09
0.00491971
-3.31717e-06
8.96232e-09
0.00492247
-2.76766e-06
8.42068e-09
0.00492505
-2.59362e-06
7.83488e-09
0.00492773
-2.69033e-06
7.26168e-09
0.00493066
-2.93403e-06
6.73654e-09
0.00493388
-3.22044e-06
6.26849e-09
0.00493735
-3.48147e-06
5.84414e-09
0.00494103
-3.68399e-06
5.4384e-09
0.00494484
-3.81973e-06
5.02991e-09
0.00494873
-3.89427e-06
4.61441e-09
0.00495265
-3.91859e-06
4.20653e-09
0.00495655
-3.90431e-06
3.8281e-09
0.00496041
-3.86154e-06
3.49234e-09
0.0049642
-3.79825e-06
3.19448e-09
0.00496792
-3.72046e-06
2.91486e-09
0.00497155
-3.63262e-06
2.63349e-09
0.00497509
-3.538e-06
2.34494e-09
0.00497852
-3.43901e-06
2.05968e-09
0.00498186
-3.33742e-06
1.79027e-09
0.00498509
-3.23453e-06
1.5373e-09
0.00498822
-3.13128e-06
1.28857e-09
0.00499125
-3.02836e-06
1.0304e-09
0.00499417
-2.92632e-06
7.60207e-10
0.004997
-2.82555e-06
4.88654e-10
0.00499972
-2.72635e-06
2.35685e-10
0.00500235
-2.62897e-06
2.33182e-11
0.00500489
-2.53357e-06
-1.35086e-10
0.00500733
-2.44025e-06
-2.46548e-10
0.00500968
-2.34904e-06
-3.36603e-10
0.00501194
-2.25997e-06
-4.37201e-10
0.00501411
-2.17304e-06
-5.73139e-10
0.0050162
-2.08827e-06
-7.42728e-10
0.00501821
-2.0057e-06
-9.08144e-10
0.00502013
-1.92533e-06
-1.04966e-09
0.00502198
-1.84713e-06
-1.16267e-09
0.00502375
-1.77103e-06
-1.28329e-09
0.00502545
-1.69694e-06
-1.47065e-09
0.00502708
-1.62478e-06
-1.71902e-09
0.00502864
-1.55458e-06
-2.0218e-09
0.00503012
-1.48637e-06
-2.34485e-09
0.00503155
-1.42011e-06
-2.65976e-09
0.00503291
-1.35576e-06
-2.96529e-09
0.0050342
-1.29332e-06
-3.23623e-09
0.00503544
-1.2328e-06
-3.43702e-09
0.00503662
-1.17415e-06
-3.59532e-09
0.00503774
-1.11731e-06
-3.7255e-09
0.0050388
-1.06224e-06
-3.79767e-09
0.00503982
-1.00888e-06
-3.85458e-09
0.00504078
-9.5719e-07
-3.92906e-09
0.00504169
-9.07127e-07
-4.07073e-09
0.00504255
-8.58689e-07
-4.23123e-09
0.00504337
-8.1183e-07
-4.43349e-09
0.00504414