/*--------------------------------*- C++ -*----------------------------------*\
| =========                 |                                                 |
| \\      /  F ield         | OpenFOAM: The Open Source CFD Toolbox           |
|  \\    /   O peration     | Version:  2412                                  |
|   \\  /    A nd           | Website:  www.openfoam.com                      |
|    \\/     M anipulation  |                                                 |
\*---------------------------------------------------------------------------*/
FoamFile
{
    version     2.0;
    format      ascii;
    arch        "LSB;label=32;scalar=64";
    class       volVectorField;
    location    "3";
    object      U;
}
// * * * * * * * * * * * * * * * * * * * * * * * * * * * * * * * * * * * * * //

dimensions      [0 1 -1 0 0 0 0];

internalField   nonuniform List<vector> 
63420
(
(0.103575 7.5508e-06 0)
(0.0973396 4.02039e-05 0)
(0.100858 2.89658e-05 0)
(0.0991208 1.83556e-05 0)
(0.0994545 3.78642e-06 0)
(0.0994875 -7.84126e-07 0)
(0.0994324 -5.50538e-07 0)
(0.0994485 1.03915e-06 0)
(0.0994395 2.87612e-06 0)
(0.0994185 4.37954e-06 0)
(0.0993941 5.5064e-06 0)
(0.0993654 6.36843e-06 0)
(0.0993337 7.06104e-06 0)
(0.0992997 7.6536e-06 0)
(0.0992639 8.19311e-06 0)
(0.0992265 8.70997e-06 0)
(0.0991877 9.2244e-06 0)
(0.0991474 9.74916e-06 0)
(0.0991058 1.02926e-05 0)
(0.0990627 1.08612e-05 0)
(0.0990181 1.14603e-05 0)
(0.098972 1.20938e-05 0)
(0.0989243 1.27645e-05 0)
(0.098875 1.34746e-05 0)
(0.098824 1.42268e-05 0)
(0.0987711 1.50233e-05 0)
(0.0987165 1.58671e-05 0)
(0.0986599 1.67605e-05 0)
(0.0986013 1.77062e-05 0)
(0.0985406 1.87069e-05 0)
(0.0984777 1.97653e-05 0)
(0.0984127 2.08845e-05 0)
(0.0983453 2.20676e-05 0)
(0.0982755 2.33185e-05 0)
(0.0982031 2.46412e-05 0)
(0.0981283 2.60404e-05 0)
(0.0980507 2.75209e-05 0)
(0.0979703 2.90883e-05 0)
(0.097887 3.07487e-05 0)
(0.0978007 3.25091e-05 0)
(0.0977113 3.43774e-05 0)
(0.0976186 3.63628e-05 0)
(0.0975225 3.84761e-05 0)
(0.0974227 4.07304e-05 0)
(0.0973192 4.31411e-05 0)
(0.0972117 4.57269e-05 0)
(0.0971 4.85105e-05 0)
(0.0969838 5.15199e-05 0)
(0.0968627 5.47906e-05 0)
(0.0967364 5.83665e-05 0)
(0.0966044 6.22981e-05 0)
(0.0964661 6.66276e-05 0)
(0.0963211 7.1347e-05 0)
(0.0961688 7.63279e-05 0)
(0.0960093 8.12557e-05 0)
(0.103575 2.25396e-05 0)
(0.0973408 0.000120166 0)
(0.100862 8.60918e-05 0)
(0.0991291 5.49575e-05 0)
(0.0994605 1.15103e-05 0)
(0.0994929 -2.00045e-06 0)
(0.0994361 -1.28412e-06 0)
(0.0994508 3.42491e-06 0)
(0.099441 8.87686e-06 0)
(0.0994195 1.33381e-05 0)
(0.0993948 1.66832e-05 0)
(0.0993659 1.92469e-05 0)
(0.0993341 2.13113e-05 0)
(0.0993 2.30813e-05 0)
(0.0992642 2.46956e-05 0)
(0.0992269 2.6244e-05 0)
(0.099188 2.77849e-05 0)
(0.0991478 2.93566e-05 0)
(0.0991062 3.09853e-05 0)
(0.0990631 3.26902e-05 0)
(0.0990186 3.44859e-05 0)
(0.0989725 3.63837e-05 0)
(0.0989249 3.83922e-05 0)
(0.0988756 4.05193e-05 0)
(0.0988246 4.27722e-05 0)
(0.0987719 4.51586e-05 0)
(0.0987173 4.76856e-05 0)
(0.0986607 5.03609e-05 0)
(0.0986022 5.3192e-05 0)
(0.0985416 5.61873e-05 0)
(0.0984789 5.93552e-05 0)
(0.0984139 6.27048e-05 0)
(0.0983466 6.62462e-05 0)
(0.0982769 6.99903e-05 0)
(0.0982047 7.39493e-05 0)
(0.0981299 7.81365e-05 0)
(0.0980525 8.25664e-05 0)
(0.0979723 8.72555e-05 0)
(0.0978892 9.22221e-05 0)
(0.0978031 9.74868e-05 0)
(0.0977138 0.000103073 0)
(0.0976213 0.000109009 0)
(0.0975254 0.000115327 0)
(0.097426 0.000122065 0)
(0.0973228 0.000129268 0)
(0.0972156 0.000136992 0)
(0.0971043 0.000145303 0)
(0.0969885 0.000154284 0)
(0.0968679 0.000164041 0)
(0.0967423 0.000174701 0)
(0.096611 0.000186414 0)
(0.0964737 0.000199303 0)
(0.0963297 0.000213344 0)
(0.0961788 0.000228162 0)
(0.0960208 0.00024284 0)
(0.103576 3.71451e-05 0)
(0.0973446 0.000198952 0)
(0.100873 0.000141211 0)
(0.0991469 9.14818e-05 0)
(0.0994732 1.96946e-05 0)
(0.099504 -2.33978e-06 0)
(0.0994437 -1.1911e-06 0)
(0.0994558 6.4128e-06 0)
(0.0994444 1.52867e-05 0)
(0.0994218 2.25592e-05 0)
(0.0993964 2.80216e-05 0)
(0.0993672 3.22219e-05 0)
(0.0993351 3.56166e-05 0)
(0.099301 3.8537e-05 0)
(0.0992651 4.12081e-05 0)
(0.0992278 4.37756e-05 0)
(0.099189 4.63339e-05 0)
(0.0991488 4.89457e-05 0)
(0.0991072 5.16541e-05 0)
(0.0990642 5.44906e-05 0)
(0.0990197 5.74787e-05 0)
(0.0989738 6.06365e-05 0)
(0.0989263 6.39787e-05 0)
(0.0988771 6.75182e-05 0)
(0.0988262 7.12676e-05 0)
(0.0987736 7.52389e-05 0)
(0.0987191 7.94442e-05 0)
(0.0986628 8.38957e-05 0)
(0.0986044 8.86062e-05 0)
(0.098544 9.35893e-05 0)
(0.0984814 9.88592e-05 0)
(0.0984166 0.000104431 0)
(0.0983495 0.000110321 0)
(0.09828 0.000116549 0)
(0.0982081 0.000123132 0)
(0.0981336 0.000130095 0)
(0.0980564 0.000137459 0)
(0.0979765 0.000145253 0)
(0.0978937 0.000153507 0)
(0.097808 0.000162254 0)
(0.0977192 0.000171533 0)
(0.0976271 0.000181389 0)
(0.0975317 0.000191876 0)
(0.0974328 0.000203054 0)
(0.0973302 0.000214998 0)
(0.0972237 0.000227796 0)
(0.0971131 0.000241555 0)
(0.0969983 0.00025641 0)
(0.0968787 0.000272526 0)
(0.0967543 0.00029011 0)
(0.0966245 0.000309396 0)
(0.0964889 0.000330579 0)
(0.0963471 0.000353624 0)
(0.0961987 0.000377937 0)
(0.0960436 0.000402073 0)
(0.103578 5.06835e-05 0)
(0.0973532 0.000275413 0)
(0.100891 0.000192979 0)
(0.0991762 0.000128229 0)
(0.0994934 2.88976e-05 0)
(0.0995214 -1.07409e-06 0)
(0.0994554 3.38794e-07 0)
(0.0994635 1.04149e-05 0)
(0.0994498 2.23724e-05 0)
(0.0994257 3.22084e-05 0)
(0.0993994 3.96207e-05 0)
(0.0993696 4.5351e-05 0)
(0.0993372 5.00083e-05 0)
(0.0993029 5.40351e-05 0)
(0.099267 5.77338e-05 0)
(0.0992296 6.13001e-05 0)
(0.0991909 6.48611e-05 0)
(0.0991508 6.85017e-05 0)
(0.0991093 7.22808e-05 0)
(0.0990664 7.62411e-05 0)
(0.0990221 8.04143e-05 0)
(0.0989763 8.48252e-05 0)
(0.0989289 8.94941e-05 0)
(0.0988799 9.44391e-05 0)
(0.0988292 9.96774e-05 0)
(0.0987768 0.000105226 0)
(0.0987226 0.000111101 0)
(0.0986664 0.000117319 0)
(0.0986083 0.000123899 0)
(0.0985481 0.000130859 0)
(0.0984858 0.000138218 0)
(0.0984213 0.000145999 0)
(0.0983545 0.000154223 0)
(0.0982854 0.000162916 0)
(0.0982138 0.000172105 0)
(0.0981397 0.000181821 0)
(0.098063 0.000192096 0)
(0.0979835 0.000202968 0)
(0.0979012 0.000214477 0)
(0.097816 0.000226669 0)
(0.0977278 0.000239599 0)
(0.0976364 0.000253326 0)
(0.0975417 0.000267922 0)
(0.0974436 0.000283471 0)
(0.0973419 0.000300071 0)
(0.0972364 0.00031784 0)
(0.097127 0.000336921 0)
(0.0970135 0.000357489 0)
(0.0968955 0.000379764 0)
(0.0967728 0.000404014 0)
(0.0966452 0.000430543 0)
(0.0965121 0.000459605 0)
(0.0963734 0.000491154 0)
(0.0962286 0.000524433 0)
(0.0960777 0.000557595 0)
(0.103582 6.1878e-05 0)
(0.0973681 0.00034843 0)
(0.10092 0.000239765 0)
(0.099218 0.000165987 0)
(0.0995214 3.9889e-05 0)
(0.0995452 2.62589e-06 0)
(0.0994715 3.95933e-06 0)
(0.0994741 1.58375e-05 0)
(0.0994574 3.03824e-05 0)
(0.0994313 4.24347e-05 0)
(0.0994038 5.15661e-05 0)
(0.0993734 5.86819e-05 0)
(0.0993407 6.45102e-05 0)
(0.0993062 6.95844e-05 0)
(0.0992702 7.42712e-05 0)
(0.0992329 7.8809e-05 0)
(0.0991942 8.33528e-05 0)
(0.0991542 8.8007e-05 0)
(0.0991129 9.28443e-05 0)
(0.0990701 9.79175e-05 0)
(0.099026 0.000103266 0)
(0.0989804 0.00010892 0)
(0.0989333 0.000114906 0)
(0.0988845 0.000121247 0)
(0.0988341 0.000127964 0)
(0.0987819 0.000135078 0)
(0.0987279 0.000142611 0)
(0.0986721 0.000150583 0)
(0.0986143 0.000159018 0)
(0.0985545 0.000167939 0)
(0.0984925 0.000177371 0)
(0.0984284 0.000187341 0)
(0.0983621 0.000197877 0)
(0.0982934 0.000209013 0)
(0.0982223 0.000220781 0)
(0.0981487 0.00023322 0)
(0.0980726 0.000246372 0)
(0.0979937 0.000260283 0)
(0.0979121 0.000275003 0)
(0.0978277 0.000290591 0)
(0.0977402 0.000307113 0)
(0.0976497 0.000324643 0)
(0.097556 0.00034327 0)
(0.0974589 0.000363094 0)
(0.0973584 0.000384236 0)
(0.0972543 0.000406837 0)
(0.0971464 0.000431069 0)
(0.0970345 0.00045714 0)
(0.0969186 0.000485307 0)
(0.0967982 0.000515886 0)
(0.0966733 0.000549228 0)
(0.0965435 0.000585627 0)
(0.0964085 0.000625033 0)
(0.0962683 0.000666584 0)
(0.0961226 0.000708185 0)
(0.103587 6.91353e-05 0)
(0.0973895 0.00041672 0)
(0.100958 0.000280092 0)
(0.0992719 0.000205646 0)
(0.0995561 5.35433e-05 0)
(0.0995747 9.57185e-06 0)
(0.0994913 1.02847e-05 0)
(0.0994874 2.3047e-05 0)
(0.0994672 3.9528e-05 0)
(0.0994388 5.33597e-05 0)
(0.0994099 6.39253e-05 0)
(0.0993788 7.22493e-05 0)
(0.0993456 7.91377e-05 0)
(0.0993109 8.51873e-05 0)
(0.0992749 9.08143e-05 0)
(0.0992376 9.629e-05 0)
(0.099199 0.000101792 0)
(0.0991592 0.000107441 0)
(0.099118 0.000113321 0)
(0.0990756 0.000119493 0)
(0.0990317 0.000126004 0)
(0.0989863 0.00013289 0)
(0.0989395 0.000140181 0)
(0.098891 0.000147904 0)
(0.0988409 0.000156086 0)
(0.0987891 0.000164753 0)
(0.0987355 0.000173928 0)
(0.09868 0.000183638 0)
(0.0986226 0.00019391 0)
(0.0985633 0.000204771 0)
(0.0985018 0.000216253 0)
(0.0984382 0.000228388 0)
(0.0983724 0.00024121 0)
(0.0983043 0.000254757 0)
(0.0982338 0.00026907 0)
(0.0981609 0.000284195 0)
(0.0980855 0.00030018 0)
(0.0980074 0.000317081 0)
(0.0979267 0.000334957 0)
(0.0978431 0.000353877 0)
(0.0977567 0.000373918 0)
(0.0976672 0.000395166 0)
(0.0975747 0.000417724 0)
(0.097479 0.000441706 0)
(0.0973799 0.000467249 0)
(0.0972775 0.000494513 0)
(0.0971714 0.000523689 0)
(0.0970616 0.000555007 0)
(0.0969481 0.00058875 0)
(0.0968305 0.000625257 0)
(0.0967087 0.000664908 0)
(0.0965827 0.000708012 0)
(0.0964523 0.000754515 0)
(0.0963174 0.000803505 0)
(0.0961778 0.000852768 0)
(0.103596 7.27804e-05 0)
(0.0974149 0.00047496 0)
(0.101003 0.000316755 0)
(0.0993351 0.000245915 0)
(0.0995946 7.11454e-05 0)
(0.0996084 2.04848e-05 0)
(0.0995137 1.96679e-05 0)
(0.0995025 3.23351e-05 0)
(0.0994786 4.99683e-05 0)
(0.0994476 6.50643e-05 0)
(0.0994173 7.67428e-05 0)
(0.0993853 8.60748e-05 0)
(0.0993517 9.38971e-05 0)
(0.0993169 0.000100841 0)
(0.0992809 0.000107353 0)
(0.0992436 0.000113728 0)
(0.0992052 0.00012016 0)
(0.0991655 0.000126781 0)
(0.0991246 0.000133685 0)
(0.0990824 0.000140941 0)
(0.0990388 0.000148599 0)
(0.0989938 0.000156701 0)
(0.0989473 0.000165282 0)
(0.0988992 0.000174373 0)
(0.0988495 0.000184004 0)
(0.0987981 0.000194205 0)
(0.098745 0.000205004 0)
(0.09869 0.000216431 0)
(0.0986331 0.000228517 0)
(0.0985743 0.000241295 0)
(0.0985134 0.0002548 0)
(0.0984504 0.000269069 0)
(0.0983853 0.000284143 0)
(0.0983179 0.000300065 0)
(0.0982482 0.000316882 0)
(0.098176 0.000334645 0)
(0.0981015 0.000353412 0)
(0.0980244 0.000373244 0)
(0.0979446 0.00039421 0)
(0.0978621 0.000416386 0)
(0.0977769 0.000439858 0)
(0.0976888 0.000464724 0)
(0.0975977 0.000491094 0)
(0.0975035 0.000519096 0)
(0.0974062 0.000548876 0)
(0.0973056 0.000580607 0)
(0.0972018 0.000614491 0)
(0.0970944 0.00065077 0)
(0.0969836 0.000689733 0)
(0.0968692 0.000731728 0)
(0.0967511 0.000777134 0)
(0.0966293 0.000826257 0)
(0.0965039 0.000879035 0)
(0.0963747 0.000934537 0)
(0.0962418 0.000990517 0)
(0.095843 8.56865e-05 -5.87416e-24)
(0.0956706 8.86013e-05 -5.97389e-24)
(0.0954948 8.92613e-05 -3.6661e-26)
(0.0953206 8.73634e-05 1.83007e-23)
(0.0951528 8.33303e-05 -6.06515e-24)
(0.0949947 7.84192e-05 -6.22191e-24)
(0.0948465 7.42681e-05 -1.91023e-23)
(0.0947049 7.24028e-05 1.89783e-23)
(0.0945644 7.38393e-05 6.47544e-24)
(0.0944181 7.8904e-05 0)
(0.0942591 8.723e-05 6.66636e-24)
(0.0940815 9.81602e-05 -6.76943e-24)
(0.0938812 0.000111004 5.55396e-23)
(0.0936557 0.00012532 -1.1893e-22)
(0.0934031 0.000140524 6.35102e-23)
(0.0931219 0.00015635 5.12911e-23)
(0.0928113 0.000172761 6.58196e-23)
(0.0924701 0.000189857 -7.5201e-24)
(0.092097 0.000207821 7.67161e-24)
(0.0916905 0.000226891 -7.83222e-24)
(0.0912482 0.000247341 0)
(0.0907676 0.000269477 8.18379e-24)
(0.0902454 0.000293638 -8.37645e-24)
(0.0896776 0.000320205 0)
(0.0890596 0.000349605 -8.80054e-24)
(0.088386 0.000382315 0)
(0.0876506 0.000418877 -9.28439e-24)
(0.0868458 0.000459917 -1.55309e-22)
(0.0859633 0.00050618 1.64911e-22)
(0.0849931 0.000558575 -1.6524e-22)
(0.0839234 0.000618222 1.64988e-22)
(0.0827403 0.000686509 0)
(0.0814272 0.000765156 0)
(0.0799642 0.000856307 2.01951e-22)
(0.078327 0.000962649 -1.90014e-22)
(0.0764862 0.0010876 0)
(0.0744057 0.00123552 0)
(0.0720407 0.00141205 0)
(0.0693353 0.00162442 0)
(0.0662195 0.00188175 0)
(0.0626054 0.002195 0)
(0.0583846 0.00257589 0)
(0.0534285 0.00303331 0)
(0.0475972 0.00356509 0)
(0.0407698 0.00414271 -1.94596e-23)
(0.0329074 0.00468817 -6.76385e-22)
(0.0241402 0.00504858 6.75371e-22)
(0.0149088 0.00497849 7.41905e-22)
(0.00646138 0.0041159 -7.40791e-22)
(0.0013295 0.00194271 0)
(0.0958559 0.000256104 -5.93376e-24)
(0.0956846 0.000264968 -1.20736e-23)
(0.0955094 0.000267263 -6.29614e-24)
(0.0953348 0.000262129 5.90917e-24)
(0.0951653 0.000250772 -6.13975e-24)
(0.0950038 0.00023688 4.38836e-23)
(0.0948506 0.000225233 -6.89141e-23)
(0.0947027 0.000220267 6.3854e-24)
(0.0945551 0.000224929 8.49884e-23)
(0.0944014 0.000240169 -1.17394e-22)
(0.0942352 0.000264791 -1.14256e-22)
(0.0940511 0.000297118 1.00677e-22)
(0.0938455 0.000335654 0)
(0.0936157 0.000378233 6.99993e-24)
(0.0933596 0.000423351 -2.13588e-23)
(0.0930757 0.00047036 -2.41607e-22)
(0.0927631 0.000519189 2.31483e-22)
(0.0924206 0.000570135 -2.46076e-22)
(0.0920468 0.000623746 -2.30513e-23)
(0.0916399 0.000680727 7.8494e-24)
(0.0911978 0.00074189 0)
(0.0907177 0.000808145 -8.20499e-24)
(0.0901963 0.000880506 -2.63834e-22)
(0.0896298 0.000960109 5.50963e-22)
(0.0890135 0.00104823 3.02934e-22)
(0.0883422 0.00114629 -5.7206e-22)
(0.0876096 0.00125592 6.14529e-22)
(0.0868084 0.00137899 -6.23562e-22)
(0.0859302 0.00151773 -9.87877e-24)
(0.0849654 0.00167485 0)
(0.0839024 0.00185371 0)
(0.0827276 0.00205845 0)
(0.0814249 0.00229421 0)
(0.079975 0.00256739 -1.17054e-23)
(0.0783545 0.00288599 -7.94379e-22)
(0.0765353 0.00326019 -3.42858e-23)
(0.0744827 0.00370299 8.26511e-22)
(0.0721543 0.0042311 9.03116e-22)
(0.0694972 0.00486598 -9.01919e-22)
(0.0664455 0.00563462 -3.01101e-23)
(0.0629169 0.00656934 -3.15875e-23)
(0.0588099 0.00770432 -1.09758e-21)
(0.0540034 0.00906482 1.06127e-21)
(0.0483635 0.0106423 -3.66326e-23)
(0.0417678 0.0123494 1.95957e-23)
(0.0341584 0.0139516 -1.37757e-21)
(0.0256172 0.0149932 1.37741e-21)
(0.0164931 0.0147469 -2.90416e-21)
(0.00784973 0.0121542 2.85549e-21)
(0.00190772 0.00569414 -2.9264e-21)
(0.0958816 0.000424073 -3.51435e-23)
(0.0957124 0.000439178 -1.22603e-23)
(0.0955385 0.000443924 4.74753e-23)
(0.0953632 0.0004369 -9.73545e-23)
(0.0951903 0.000420481 2.08144e-22)
(0.0950225 0.000400127 -9.85239e-23)
(0.0948599 0.000383298 1.53743e-26)
(0.0947001 0.000376995 1.27405e-23)
(0.0945392 0.000385769 2.21532e-22)
(0.0943714 0.000411054 -2.08381e-22)
(0.0941917 0.000452013 0)
(0.0939963 0.000505604 1.41899e-26)
(0.0937812 0.000568656 0)
(0.0935431 0.00063793 2.40327e-22)
(0.0932803 0.000711436 -2.1184e-22)
(0.0929916 0.000788273 -4.55109e-22)
(0.0926755 0.000868355 2.44691e-23)
(0.0923307 0.000952179 -4.78404e-22)
(0.0919557 0.00104064 1.54254e-23)
(0.0915484 0.00113489 -5.09912e-22)
(0.0911067 0.00123624 5.25523e-22)
(0.0906278 0.00134618 -5.33872e-22)
(0.0901083 0.00146638 5.5023e-22)
(0.0895446 0.00159872 1.72844e-23)
(0.088932 0.00174531 -1.77338e-23)
(0.0882653 0.00190851 1.82131e-23)
(0.0875386 0.002091 -6.08811e-22)
(0.0867446 0.00229591 6.27539e-22)
(0.0858755 0.00252694 6.66434e-22)
(0.0849216 0.00278858 -6.45963e-22)
(0.0838722 0.0030864 0)
(0.0827144 0.00342726 0)
(0.0814329 0.00381963 2.26693e-23)
(0.0800097 0.00427407 1.56158e-21)
(0.0784231 0.00480374 3.8337e-23)
(0.0766475 0.00542535 -1.57245e-21)
(0.0746513 0.00616019 0)
(0.0723967 0.00703555 -2.76005e-23)
(0.0698369 0.00808631 1.92838e-21)
(0.0669145 0.00935614 -3.85756e-21)
(0.0635585 0.0108968 4.10797e-21)
(0.0596812 0.0127621 1.38286e-22)
(0.0551768 0.0149893 -2.15346e-21)
(0.0499226 0.0175576 -2.37086e-21)
(0.0437921 0.0203153 2.44344e-21)
(0.036686 0.022872 1.72006e-24)
(0.0285877 0.0244789 -4.23942e-23)
(0.0196643 0.0239491 2.81368e-21)
(0.0105978 0.0196057 -2.72453e-21)
(0.00301509 0.00909613 -2.72246e-21)
(0.0959195 0.000588286 2.3173e-23)
(0.0957535 0.000610347 -1.17395e-23)
(0.0955813 0.000619143 2.18678e-26)
(0.0954056 0.000612808 1.20415e-23)
(0.0952288 0.000594328 -2.165e-26)
(0.0950526 0.00057082 1.99254e-22)
(0.0948773 0.00055198 -3.76208e-22)
(0.0947015 0.000546968 2.02027e-22)
(0.0945224 0.000561764 -1.29038e-23)
(0.0943368 0.000598151 2.3788e-22)
(0.0941406 0.000654934 -2.11573e-22)
(0.0939298 0.000728229 -4.37532e-22)
(0.0937013 0.000813339 8.82664e-22)
(0.0934525 0.000906866 -8.98515e-22)
(0.0931815 0.00100651 9.15182e-22)
(0.0928867 0.00111116 -9.18221e-22)
(0.0925665 0.00122075 -4.85695e-22)
(0.0922192 0.00133597 2.15322e-26)
(0.0918431 0.00145804 0)
(0.091436 0.00158851 -4.96755e-22)
(0.0909955 0.00172918 5.12375e-22)
(0.0905189 0.00188207 0)
(0.0900029 0.00204946 -1.10157e-21)
(0.0894439 0.00223395 1.08372e-21)
(0.0888373 0.00243845 1.79026e-23)
(0.0881783 0.00266626 -3.36088e-26)
(0.0874609 0.00292111 1.88883e-23)
(0.0866785 0.00320734 0)
(0.0858236 0.00353009 -4.81831e-26)
(0.0848871 0.00389564 0)
(0.0838591 0.00431168 -2.13741e-23)
(0.0827277 0.00478771 1.4437e-21)
(0.0814791 0.00533544 -1.44328e-21)
(0.0800972 0.00596938 -2.38617e-23)
(0.078563 0.00670762 4.9455e-23)
(0.0768542 0.00757299 -1.70741e-21)
(0.0749444 0.00859448 1.65432e-21)
(0.0728024 0.0098091 2.80776e-23)
(0.0703908 0.0112638 -3.58545e-25)
(0.0676652 0.013017 3.02464e-23)
(0.0645716 0.0151366 -2.08947e-21)
(0.0610436 0.0176912 4.23916e-21)
(0.0569978 0.0207231 -2.21763e-21)
(0.0523279 0.024191 2.33502e-21)
(0.0468985 0.0278724 -2.44491e-21)
(0.0405445 0.031225 -4.94958e-21)
(0.0330914 0.0332322 1.01287e-20)
(0.0244354 0.0322855 -5.14331e-21)
(0.0147491 0.0261636 0)
(0.00465093 0.0119872 -4.83449e-21)
(0.0959696 0.000747436 -1.14951e-23)
(0.0958076 0.000777266 -4.68562e-23)
(0.0956382 0.000792041 1.41892e-22)
(0.0954623 0.000789609 -1.91349e-22)
(0.0952814 0.000772983 8.42215e-23)
(0.0950963 0.000750721 1.23178e-23)
(0.0949076 0.000734092 -1.25035e-23)
(0.0947149 0.000733634 -2.72424e-26)
(0.0945169 0.000756306 1.29013e-23)
(0.0943117 0.000804303 -2.62028e-23)
(0.0940967 0.000875433 -4.30063e-22)
(0.0938692 0.000965665 4.43828e-22)
(0.0936266 0.00107032 -4.32048e-22)
(0.0933667 0.00118558 4.46018e-22)
(0.0930874 0.00130887 0)
(0.0927868 0.00143903 -2.39817e-26)
(0.0924629 0.00157609 0)
(0.0921138 0.00172096 -4.77986e-22)
(0.0917376 0.00187515 5.09045e-22)
(0.0913319 0.00204057 -1.59566e-23)
(0.0908943 0.00221944 -1.07355e-21)
(0.090422 0.00241426 1.05769e-21)
(0.0899118 0.00262792 -1.71633e-23)
(0.0893602 0.00286366 0)
(0.0887629 0.0031252 0)
(0.0881152 0.00341672 -1.22567e-21)
(0.0874118 0.00374296 1.18845e-21)
(0.0866464 0.00410945 0)
(0.085812 0.00452274 -4.06864e-23)
(0.0849006 0.0049908 0)
(0.0839032 0.00552338 2.17491e-23)
(0.0828094 0.00613247 -2.244e-23)
(0.0816073 0.00683282 -2.33389e-23)
(0.0802835 0.0076426 2.41065e-23)
(0.0788224 0.00858439 1.58718e-21)
(0.0772064 0.00968652 -1.63811e-21)
(0.0754158 0.0109848 3.57464e-21)
(0.0734284 0.0125244 -3.5771e-21)
(0.0712195 0.0143625 3.82364e-21)
(0.0687621 0.0165689 1.30442e-22)
(0.0660254 0.0192236 -4.05005e-21)
(0.0629716 0.0224038 -3.28243e-23)
(0.0595478 0.0261489 1.31753e-24)
(0.0556683 0.0303898 1.80187e-24)
(0.0511851 0.034831 2.46897e-24)
(0.0458457 0.0387927 -7.37562e-23)
(0.0392613 0.0410361 -3.43796e-23)
(0.0309537 0.0396022 -3.28045e-23)
(0.0204509 0.0317696 0)
(0.0068313 0.0143436 9.68625e-24)
(0.0960308 0.000900175 -5.70435e-23)
(0.0958739 0.000938323 3.43127e-23)
(0.0957084 0.000960786 1.17085e-23)
(0.0955339 0.00096518 1.79325e-22)
(0.0953504 0.000954817 -1.79412e-22)
(0.0951582 0.00093874 1.84995e-22)
(0.0949579 0.000928916 -4.10341e-22)
(0.0947499 0.000936474 5.83083e-22)
(0.0945345 0.000968749 -4.08212e-22)
(0.0943113 0.00102818 -4.22094e-22)
(0.0940792 0.00111291 -2.04736e-23)
(0.0938367 0.00121879 8.5502e-22)
(0.0935818 0.00134113 -8.99149e-22)
(0.0933124 0.00147603 4.19062e-22)
(0.0930263 0.00162095 4.50732e-22)
(0.0927214 0.00177486 4.69687e-22)
(0.0923955 0.00193795 -3.46701e-23)
(0.0920466 0.00211137 9.57289e-22)
(0.0916722 0.0022969 9.8548e-22)
(0.0912703 0.00249678 2.33349e-23)
(0.0908381 0.00271362 -1.04323e-21)
(0.090373 0.00295041 0)
(0.089872 0.00321057 0)
(0.0893316 0.00349803 -1.15671e-21)
(0.088748 0.00381727 1.1401e-21)
(0.0881169 0.00417335 1.22548e-21)
(0.0874333 0.00457204 -1.2273e-21)
(0.0866918 0.00502005 0)
(0.0858862 0.00552536 1.36708e-21)
(0.0850096 0.00609761 -1.36972e-21)
(0.0840544 0.00674861 0)
(0.0830119 0.00749277 -2.96319e-21)
(0.081873 0.00834769 2.99061e-21)
(0.0806273 0.00933498 -2.47146e-23)
(0.0792636 0.0104812 -3.31576e-21)
(0.0777704 0.0118195 3.34647e-21)
(0.076136 0.0133909 0)
(0.0743496 0.0152469 3.7895e-21)
(0.0724026 0.0174505 -3.76626e-21)
(0.0702896 0.020077 3.08572e-23)
(0.0680095 0.0232087 4.23842e-21)
(0.0655612 0.0269173 -8.54725e-21)
(0.0629309 0.0312219 -2.61081e-23)
(0.0600611 0.0360083 -8.9055e-24)
(0.0567941 0.0409004 4.56664e-21)
(0.0527833 0.0451009 4.46223e-24)
(0.0473975 0.0472218 -4.04278e-21)
(0.0396851 0.0450963 4.14429e-21)
(0.0282395 0.0357253 0)
(0.00985668 0.0158138 3.72545e-23)
(0.0961016 0.00104531 1.12439e-23)
(0.0959509 0.00109189 1.03378e-22)
(0.0957908 0.00112325 -9.21856e-23)
(0.09562 0.00113687 1.18028e-23)
(0.095437 0.00113606 1.81029e-22)
(0.0952415 0.00112982 -1.81336e-22)
(0.0950339 0.00113018 -3.87203e-22)
(0.0948155 0.00114838 6.43393e-24)
(0.0945876 0.00119188 -6.52184e-24)
(0.0943512 0.00126327 4.28652e-22)
(0.0941066 0.00136099 -4.17356e-22)
(0.0938532 0.00148113 8.84908e-22)
(0.0935896 0.00161928 -4.40578e-22)
(0.0933139 0.00177179 1.42019e-23)
(0.0930241 0.0019364 1.45095e-23)
(0.0927178 0.00211232 9.57731e-22)
(0.0923929 0.00230002 -4.70984e-24)
(0.092047 0.00250089 9.98125e-22)
(0.0916779 0.00271698 1.59113e-23)
(0.0912832 0.00295088 0)
(0.0908604 0.00320557 0)
(0.0904069 0.00348453 -1.11197e-21)
(0.0899199 0.00379176 1.11478e-21)
(0.0893964 0.0041319 0)
(0.0888328 0.00451021 1.86908e-23)
(0.0882256 0.00493271 0)
(0.0875705 0.00540626 -1.28817e-21)
(0.0868628 0.00593887 2.62168e-21)
(0.0860976 0.00654006 -1.3336e-21)
(0.0852694 0.00722132 -2.82384e-21)
(0.0843724 0.00799667 -9.45673e-23)
(0.0834005 0.00888311 -1.0076e-22)
(0.0823473 0.00990129 -1.07167e-22)
(0.0812065 0.0110763 3.17748e-21)
(0.0799723 0.0124389 3.41901e-21)
(0.0786401 0.0140265 -3.42716e-21)
(0.0772075 0.0158848 0)
(0.0756764 0.0180692 3.83342e-21)
(0.0740553 0.0206446 -3.84232e-21)
(0.0723622 0.0236831 -4.13947e-21)
(0.0706267 0.0272534 4.11686e-21)
(0.0688865 0.0313958 3.40198e-23)
(0.0671709 0.0360707 4.29809e-21)
(0.0654599 0.0410699 -7.16298e-23)
(0.0636059 0.045891 -4.31466e-21)
(0.0612102 0.0496048 3.33249e-23)
(0.0574701 0.0507604 0)
(0.051061 0.0472811 -2.69917e-23)
(0.0394371 0.0364921 -1.40537e-21)
(0.0157823 0.0155977 5.61346e-22)
(-0.000264913 0.000202373 0)
(-0.000416148 -0.000156377 2.66564e-22)
(0.000484242 -0.000857321 -2.66964e-22)
(0.00280063 -0.00168149 -2.19622e-22)
(0.00656899 -0.00246439 2.19952e-22)
(0.0116039 -0.00309466 -5.52236e-24)
(0.0175727 -0.00351525 0)
(0.0240903 -0.00371606 0)
(0.030788 -0.00372131 0)
(0.0373582 -0.0035746 0)
(0.0435756 -0.00332541 0)
(0.049299 -0.00301943 0)
(0.05446 -0.00269331 0)
(0.0590457 -0.00237307 0)
(0.0630805 -0.0020749 0)
(0.0666107 -0.00180715 1.16513e-23)
(0.0696926 -0.00157261 -1.0925e-23)
(0.0723839 -0.00137046 0)
(0.0747395 -0.00119796 0)
(0.0768087 -0.0010515 -1.19107e-23)
(0.0786342 -0.000927291 1.19289e-23)
(0.0802525 -0.000821798 -1.16525e-23)
(0.0816939 -0.000731887 7.94773e-25)
(0.0829839 -0.000654891 0)
(0.0841436 -0.000588595 8.18387e-25)
(0.0851904 -0.000531188 0)
(0.086139 -0.000481203 0)
(0.0870017 -0.000437453 0)
(0.0877889 -0.000398979 8.41473e-25)
(0.0885094 -0.000364997 0)
(0.0891708 -0.000334865 -8.41865e-25)
(0.0897797 -0.000308049 8.39776e-25)
(0.0903417 -0.000284103 -8.36372e-25)
(0.0908616 -0.000262655 7.44416e-24)
(0.0913439 -0.000243396 -7.44878e-24)
(0.0917922 -0.000226064 -5.69237e-24)
(0.0922099 -0.000210441 1.21621e-23)
(0.0925999 -0.000196341 -6.46233e-24)
(0.092965 -0.000183608 -7.95823e-25)
(0.0933075 -0.00017211 7.86745e-25)
(0.0936296 -0.000161738 0)
(0.0939333 -0.000152407 7.67377e-25)
(0.0942205 -0.000144054 -3.76087e-24)
(0.0944929 -0.000136636 3.75515e-24)
(0.0947523 -0.000130139 -7.36229e-25)
(0.0950004 -0.000124568 2.16391e-24)
(0.095239 -0.000119943 -7.26009e-25)
(0.0954699 -0.000116252 -1.40129e-24)
(0.0956949 -0.000113379 6.98632e-25)
(0.0959152 -0.000110977 -6.81954e-25)
(-0.000192404 0.000495657 -1.13738e-21)
(4.14015e-05 -0.00065823 -1.13507e-21)
(0.00158087 -0.00273477 1.11783e-21)
(0.00448819 -0.005135 -4.42894e-22)
(0.00869646 -0.00739847 4.45429e-22)
(0.0139743 -0.00921303 5.56041e-24)
(0.0199924 -0.0104199 -9.74708e-24)
(0.0264022 -0.0109923 -2.20654e-22)
(0.0328856 -0.011 2.13084e-22)
(0.039185 -0.0105679 -4.86942e-24)
(0.0451156 -0.00983814 -3.82528e-24)
(0.0505646 -0.00894224 8.1483e-23)
(0.0554802 -0.00798624 -8.15921e-23)
(0.0598566 -0.00704585 -5.89034e-23)
(0.0637193 -0.00616857 5.50097e-24)
(0.0671116 -0.00537922 5.35528e-23)
(0.0700849 -0.00468632 -7.4769e-25)
(0.0726919 -0.00408799 -1.61061e-24)
(0.0749824 -0.00357648 0)
(0.0770016 -0.00314145 0)
(0.0787886 -0.00277199 0)
(0.0803771 -0.00245778 -7.8373e-25)
(0.0817954 -0.00218968 4.95223e-23)
(0.0830672 -0.00195987 -5.37088e-23)
(0.0842124 -0.0017618 5.23752e-23)
(0.0852477 -0.00159016 -2.64524e-23)
(0.086187 -0.00144062 -5.38216e-23)
(0.0870421 -0.00130968 2.70066e-23)
(0.087823 -0.00119449 -8.43645e-25)
(0.0885384 -0.00109273 -1.70868e-24)
(0.0891954 -0.00100248 8.43704e-25)
(0.0898006 -0.000922164 -2.53937e-24)
(0.0903594 -0.000850438 2.59327e-23)
(0.0908766 -0.000786196 -5.42602e-23)
(0.0913565 -0.000728508 2.58057e-23)
(0.0918026 -0.000676595 -2.47085e-24)
(0.0922184 -0.000629798 8.1318e-25)
(0.0926068 -0.000587561 0)
(0.0929703 -0.000549414 -1.34752e-23)
(0.0933114 -0.000514961 1.19031e-23)
(0.0936322 -0.000483875 1.08015e-23)
(0.0939346 -0.000455897 -1.46834e-23)
(0.0942205 -0.000430832 7.57036e-25)
(0.0944917 -0.000408553 3.68617e-24)
(0.0947498 -0.000389007 -6.67466e-24)
(0.0949964 -0.000372205 -7.24871e-25)
(0.0952333 -0.000358191 -4.97589e-24)
(0.0954622 -0.00034693 -6.55931e-25)
(0.0956847 -0.000338071 1.42007e-24)
(0.0959021 -0.000330601 2.05461e-24)
(-3.9806e-08 0.000471425 -1.25438e-21)
(0.00104654 -0.00166207 1.23246e-21)
(0.00380747 -0.00504371 -1.19551e-21)
(0.00780869 -0.00882502 -1.6025e-23)
(0.0128085 -0.0123331 -1.12235e-24)
(0.0185077 -0.0151195 -7.12958e-22)
(0.0245917 -0.01696 7.36552e-22)
(0.0307827 -0.0178208 4.87802e-22)
(0.0368561 -0.0178095 -9.23813e-23)
(0.0426448 -0.017116 -6.77056e-22)
(0.0480377 -0.0159568 5.44408e-22)
(0.0529728 -0.0145339 -2.35929e-22)
(0.0574283 -0.0130117 -3.04209e-24)
(0.0614118 -0.011509 0)
(0.0649501 -0.0101017 1.27831e-22)
(0.0680813 -0.00883023 -1.11385e-23)
(0.0708482 -0.00770962 -1.14793e-22)
(0.073294 -0.00673821 3.46596e-24)
(0.0754596 -0.00590478 0)
(0.0773822 -0.00519363 0)
(0.0790943 -0.00458791 5.38832e-23)
(0.0806246 -0.00407148 -5.21811e-23)
(0.0819973 -0.00362986 -5.28995e-23)
(0.0832332 -0.00325063 5.62948e-23)
(0.0843498 -0.00292331 1.76104e-24)
(0.085362 -0.0026393 -1.76276e-24)
(0.0862826 -0.00239162 1.76266e-24)
(0.0871224 -0.00217458 -5.37108e-23)
(0.0878907 -0.00198353 5.55237e-23)
(0.0885954 -0.00181467 -5.17609e-23)
(0.0892436 -0.00166485 5.52791e-23)
(0.0898412 -0.00153146 1.70464e-24)
(0.0903935 -0.00141232 5.42627e-23)
(0.0909051 -0.00130558 -1.06478e-22)
(0.09138 -0.00120972 5.55642e-23)
(0.0918219 -0.00112344 2.80613e-23)
(0.0922338 -0.00104566 -2.47821e-23)
(0.0926187 -0.000975453 0)
(0.0929791 -0.000912032 -9.75239e-27)
(0.0933172 -0.000854734 0)
(0.0936353 -0.000803011 2.48116e-23)
(0.0939351 -0.000756422 -2.33039e-23)
(0.0942185 -0.000714635 1.52215e-24)
(0.0944872 -0.000677425 -4.6465e-27)
(0.0947426 -0.000644681 1.16872e-23)
(0.0949863 -0.000616399 -2.17566e-23)
(0.09522 -0.000592621 1.15151e-23)
(0.095445 -0.00057327 -5.57055e-24)
(0.0956629 -0.00055777 4.21779e-24)
(0.0958747 -0.000544502 1.38174e-24)
(0.000438695 2.23769e-05 -2.8699e-21)
(0.00281961 -0.00337294 0)
(0.00723015 -0.00796122 2.45373e-21)
(0.0126541 -0.0128321 -4.68139e-21)
(0.0186331 -0.0172353 2.24054e-21)
(0.0248117 -0.0206819 7.92022e-22)
(0.0309174 -0.0229337 -8.32732e-22)
(0.0367735 -0.0239634 5.5886e-22)
(0.0422768 -0.023904 -1.01785e-21)
(0.0473741 -0.022986 4.51641e-22)
(0.0520457 -0.0214737 5.58621e-24)
(0.0562932 -0.0196175 8.18562e-25)
(0.0601321 -0.0176241 3.09417e-24)
(0.0635865 -0.0156458 -1.76066e-22)
(0.0666854 -0.0137822 1.70604e-22)
(0.0694604 -0.0120884 4.60519e-24)
(0.0719435 -0.0105869 -1.9515e-24)
(0.0741657 -0.00927812 1.25589e-22)
(0.0761563 -0.00814943 -1.25338e-22)
(0.0779421 -0.00718186 -2.00114e-24)
(0.0795474 -0.00635431 0)
(0.0809938 -0.00564619 1.50296e-25)
(0.0823002 -0.00503882 0)
(0.0834833 -0.00451587 1.88553e-24)
(0.0845574 -0.00406358 9.29254e-26)
(0.0855353 -0.00367047 1.77947e-24)
(0.0864277 -0.00332717 -1.17215e-22)
(0.0872443 -0.003026 1.15537e-22)
(0.0879932 -0.00276066 0)
(0.0886818 -0.00252596 -5.67291e-23)
(0.0893162 -0.00231761 5.85843e-23)
(0.0899022 -0.002132 0)
(0.0904444 -0.00196613 -2.981e-26)
(0.0909472 -0.00181748 -5.6482e-23)
(0.0914144 -0.00168395 1.10669e-22)
(0.0918495 -0.00156376 -1.07698e-22)
(0.0922554 -0.00145538 1.06396e-22)
(0.0926348 -0.00135754 -1.05002e-22)
(0.0929903 -0.00126913 5.21459e-23)
(0.093324 -0.00118922 2.53387e-23)
(0.0936378 -0.00111703 -2.22015e-23)
(0.0939337 -0.00105194 -1.55334e-24)
(0.0942133 -0.00099346 -2.41814e-23)
(0.094478 -0.000941255 5.09953e-23)
(0.0947294 -0.000895131 -2.38111e-23)
(0.0949689 -0.000855032 4.40193e-27)
(0.0951978 -0.000820966 1.42455e-24)
(0.0954174 -0.000792785 -2.83545e-27)
(0.0956289 -0.00076971 -1.37615e-24)
(0.0958331 -0.000749611 2.70544e-24)
(0.00124004 -0.00097206 -2.53369e-24)
(0.00564224 -0.00591253 -2.65682e-23)
(0.011982 -0.0115162 -2.39946e-23)
(0.0189043 -0.0170925 -2.15059e-23)
(0.0258172 -0.0219738 -3.64992e-23)
(0.0323703 -0.0257289 -1.5199e-24)
(0.0383747 -0.0281535 1.27761e-23)
(0.0437749 -0.0292337 -1.20699e-23)
(0.0485956 -0.0291104 -1.00904e-23)