/*--------------------------------*- C++ -*----------------------------------*\
| =========                 |                                                 |
| \\      /  F ield         | OpenFOAM: The Open Source CFD Toolbox           |
|  \\    /   O peration     | Version:  2412                                  |
|   \\  /    A nd           | Website:  www.openfoam.com                      |
|    \\/     M anipulation  |                                                 |
\*---------------------------------------------------------------------------*/
FoamFile
{
    version     2.0;
    format      ascii;
    arch        "LSB;label=32;scalar=64";
    class       volVectorField;
    location    "3";
    object      vorticity;
}
// * * * * * * * * * * * * * * * * * * * * * * * * * * * * * * * * * * * * * //

dimensions      [0 0 -1 0 0 0 0];

internalField   nonuniform List<vector> 
63420
(
(0 0 0.000157793)
(0 0 6.04289e-05)
(0 0 -0.000119231)
(0 0 -0.000172669)
(0 0 -0.000129209)
(0 0 -6.92118e-05)
(0 0 -2.94257e-05)
(0 0 -1.01481e-05)
(0 0 -2.43994e-06)
(0 0 2.476e-07)
(0 0 1.09299e-06)
(0 0 1.34483e-06)
(0 0 1.42246e-06)
(0 0 1.45571e-06)
(0 0 1.47878e-06)
(0 0 1.50535e-06)
(0 0 1.53387e-06)
(0 0 1.55732e-06)
(0 0 1.58041e-06)
(0 0 1.61229e-06)
(0 0 1.65372e-06)
(0 0 1.69782e-06)
(0 0 1.74099e-06)
(0 0 1.78428e-06)
(0 0 1.8312e-06)
(0 0 1.88545e-06)
(0 0 1.94743e-06)
(0 0 2.0182e-06)
(0 0 2.09642e-06)
(0 0 2.18201e-06)
(0 0 2.27341e-06)
(0 0 2.37277e-06)
(0 0 2.48219e-06)
(0 0 2.60521e-06)
(0 0 2.74305e-06)
(0 0 2.89652e-06)
(0 0 3.0666e-06)
(0 0 3.2546e-06)
(0 0 3.46192e-06)
(0 0 3.68988e-06)
(0 0 3.94124e-06)
(0 0 4.22091e-06)
(0 0 4.53542e-06)
(0 0 4.89292e-06)
(0 0 5.30201e-06)
(0 0 5.77412e-06)
(0 0 6.32558e-06)
(0 0 6.98138e-06)
(0 0 7.76937e-06)
(0 0 8.67494e-06)
(0 0 9.4766e-06)
(0 0 9.36166e-06)
(0 0 6.37101e-06)
(0 0 -2.79119e-06)
(0 5.82874e-23 -2.14082e-05)
(0 0 0.000469812)
(0 0 0.000164977)
(0 0 -0.000372847)
(0 0 -0.000527329)
(0 0 -0.00039258)
(0 0 -0.000210717)
(0 0 -9.07682e-05)
(0 0 -3.27984e-05)
(0 0 -9.67898e-06)
(0 0 -1.65815e-06)
(0 0 8.46716e-07)
(0 0 1.57839e-06)
(0 0 1.78982e-06)
(0 0 1.86102e-06)
(0 0 1.89944e-06)
(0 0 1.93771e-06)
(0 0 1.97913e-06)
(0 0 2.0214e-06)
(0 0 2.07249e-06)
(0 0 2.14104e-06)
(0 0 2.22481e-06)
(0 0 2.31694e-06)
(0 0 2.41517e-06)
(0 0 2.52331e-06)
(0 0 2.64607e-06)
(0 0 2.78656e-06)
(0 0 2.94677e-06)
(0 0 3.12928e-06)
(0 0 3.33515e-06)
(0 0 3.56434e-06)
(0 0 3.81694e-06)
(0 0 4.09593e-06)
(0 0 4.40506e-06)
(0 0 4.7484e-06)
(0 0 5.12928e-06)
(0 0 5.55103e-06)
(0 0 6.01784e-06)
(0 0 6.53423e-06)
(0 0 7.10583e-06)
(0 0 7.7402e-06)
(0 0 8.4485e-06)
(0 0 9.24558e-06)
(0 0 1.01489e-05)
(0 0 1.11794e-05)
(0 0 1.23627e-05)
(0 0 1.37347e-05)
(0 0 1.53486e-05)
(0 0 1.72812e-05)
(0 0 1.96152e-05)
(0 0 2.23064e-05)
(0 0 2.47061e-05)
(0 0 2.44427e-05)
(0 0 1.58076e-05)
(0 0 -1.0796e-05)
(0 5.88069e-23 -6.492e-05)
(0 0 0.000772027)
(0 0 0.000229501)
(0 0 -0.000663084)
(0 0 -0.000903753)
(0 0 -0.000667562)
(0 0 -0.000359505)
(0 0 -0.000158162)
(0 0 -6.13041e-05)
(0 0 -2.2826e-05)
(0 0 -9.57217e-06)
(0 0 -5.50823e-06)
(0 0 -4.39163e-06)
(0 0 -4.13646e-06)
(0 0 -4.11306e-06)
(0 0 -4.14095e-06)
(0 0 -4.17013e-06)
(0 0 -4.19279e-06)
(0 0 -4.20544e-06)
(0 0 -4.19871e-06)
(0 0 -4.16609e-06)
(0 0 -4.11191e-06)
(0 0 -4.04208e-06)
(0 0 -3.9572e-06)
(0 0 -3.85095e-06)
(0 0 -3.71783e-06)
(0 0 -3.55522e-06)
(0 0 -3.36017e-06)
(0 0 -3.12914e-06)
(0 0 -2.85926e-06)
(0 0 -2.54971e-06)
(0 0 -2.19866e-06)
(0 0 -1.80248e-06)
(0 0 -1.35639e-06)
(0 0 -8.55707e-07)
(0 0 -2.95146e-07)
(0 0 3.31128e-07)
(0 0 1.03026e-06)
(0 0 1.80971e-06)
(0 0 2.67887e-06)
(0 0 3.65111e-06)
(0 0 4.74541e-06)
(0 0 5.98571e-06)
(0 0 7.39948e-06)
(0 0 9.0191e-06)
(0 0 1.08859e-05)
(0 0 1.30578e-05)
(0 0 1.56205e-05)
(0 0 1.86966e-05)
(0 0 2.24173e-05)
(0 0 2.67123e-05)
(0 0 3.05606e-05)
(0 0 3.02351e-05)
(0 0 1.67692e-05)
(0 0 -2.49034e-05)
(0 3.4745e-22 -0.000109768)
(0 0 0.00105618)
(0 0 0.000248409)
(0 0 -0.00098535)
(0 0 -0.00129435)
(0 0 -0.000948569)
(0 0 -0.000513053)
(0 0 -0.000231122)
(0 0 -9.61849e-05)
(0 0 -4.28257e-05)
(0 0 -2.46098e-05)
(0 0 -1.91638e-05)
(0 0 -1.78017e-05)
(0 0 -1.76266e-05)
(0 0 -1.77663e-05)
(0 0 -1.79706e-05)
(0 0 -1.81735e-05)
(0 0 -1.83636e-05)
(0 0 -1.85312e-05)
(0 0 -1.86676e-05)
(0 0 -1.87702e-05)
(0 0 -1.88437e-05)
(0 0 -1.88928e-05)
(0 0 -1.89157e-05)
(0 0 -1.89044e-05)
(0 0 -1.88535e-05)
(0 0 -1.87603e-05)
(0 0 -1.86221e-05)
(0 0 -1.84345e-05)
(0 0 -1.81937e-05)
(0 0 -1.78972e-05)
(0 0 -1.75421e-05)
(0 0 -1.71239e-05)
(0 0 -1.66376e-05)
(0 0 -1.60777e-05)
(0 0 -1.54373e-05)
(0 0 -1.47082e-05)
(0 0 -1.3881e-05)
(0 0 -1.29461e-05)
(0 0 -1.18908e-05)
(0 0 -1.06967e-05)
(0 0 -9.33846e-06)
(0 0 -7.78504e-06)
(0 0 -6.00093e-06)
(0 0 -3.94414e-06)
(0 0 -1.56062e-06)
(0 0 1.22521e-06)
(0 0 4.52454e-06)
(0 0 8.49527e-06)
(0 0 1.3305e-05)
(0 0 1.88605e-05)
(0 0 2.38486e-05)
(0 0 2.34896e-05)
(0 0 6.29558e-06)
(0 0 -4.70347e-05)
(0 -2.28284e-22 -0.000155719)
(0 0 0.00131044)
(0 0 0.000241512)
(0 0 -0.00130387)
(0 0 -0.00166746)
(0 0 -0.00121579)
(0 0 -0.000660691)
(0 0 -0.00030392)
(0 0 -0.000133856)
(0 0 -6.68867e-05)
(0 0 -4.42354e-05)
(0 0 -3.76512e-05)
(0 0 -3.61904e-05)
(0 0 -3.62091e-05)
(0 0 -3.66124e-05)
(0 0 -3.70885e-05)
(0 0 -3.75572e-05)
(0 0 -3.80034e-05)
(0 0 -3.84135e-05)
(0 0 -3.87807e-05)
(0 0 -3.91066e-05)
(0 0 -3.93961e-05)
(0 0 -3.96515e-05)
(0 0 -3.9869e-05)
(0 0 -4.00398e-05)
(0 0 -4.01589e-05)
(0 0 -4.02241e-05)
(0 0 -4.0233e-05)
(0 0 -4.01811e-05)
(0 0 -4.00641e-05)
(0 0 -3.98782e-05)
(0 0 -3.96194e-05)
(0 0 -3.92827e-05)
(0 0 -3.88631e-05)
(0 0 -3.83547e-05)
(0 0 -3.77492e-05)
(0 0 -3.70369e-05)
(0 0 -3.62072e-05)
(0 0 -3.52489e-05)
(0 0 -3.4147e-05)
(0 0 -3.28796e-05)
(0 0 -3.14175e-05)
(0 0 -2.9725e-05)
(0 0 -2.77613e-05)
(0 0 -2.5478e-05)
(0 0 -2.28128e-05)
(0 0 -1.96786e-05)
(0 0 -1.59488e-05)
(0 0 -1.14446e-05)
(0 0 -5.97985e-06)
(0 0 3.29898e-07)
(0 0 5.97081e-06)
(0 0 5.47006e-06)
(0 0 -1.43067e-05)
(0 0 -7.54535e-05)
(0 1.12712e-22 -0.000200109)
(0 0 0.00152085)
(0 0 0.000248123)
(0 0 -0.0015595)
(0 0 -0.0019752)
(0 0 -0.00143949)
(0 0 -0.000785836)
(0 0 -0.000366711)
(0 0 -0.000167276)
(0 0 -8.89614e-05)
(0 0 -6.26775e-05)
(0 0 -5.52296e-05)
(0 0 -5.3773e-05)
(0 0 -5.40354e-05)
(0 0 -5.47356e-05)
(0 0 -5.55128e-05)
(0 0 -5.62748e-05)
(0 0 -5.70036e-05)
(0 0 -5.76842e-05)
(0 0 -5.83125e-05)
(0 0 -5.88938e-05)
(0 0 -5.94327e-05)
(0 0 -5.99293e-05)
(0 0 -6.03779e-05)
(0 0 -6.07701e-05)
(0 0 -6.11018e-05)
(0 0 -6.13711e-05)
(0 0 -6.15761e-05)
(0 0 -6.17132e-05)
(0 0 -6.17776e-05)
(0 0 -6.17648e-05)
(0 0 -6.16698e-05)
(0 0 -6.1488e-05)
(0 0 -6.12143e-05)
(0 0 -6.08426e-05)
(0 0 -6.03641e-05)
(0 0 -5.97683e-05)
(0 0 -5.90447e-05)
(0 0 -5.81816e-05)
(0 0 -5.71627e-05)
(0 0 -5.59647e-05)
(0 0 -5.4557e-05)
(0 0 -5.29026e-05)
(0 0 -5.09589e-05)
(0 0 -4.86749e-05)
(0 0 -4.59853e-05)
(0 0 -4.27995e-05)
(0 0 -3.89869e-05)
(0 0 -3.43656e-05)
(0 0 -2.87508e-05)
(0 0 -2.22844e-05)
(0 0 -1.65882e-05)
(0 0 -1.74573e-05)
(0 0 -3.87749e-05)
(0 0 -0.000103986)
(0 5.56137e-22 -0.000236893)
(0 0 0.00168329)
(0 0 0.000311796)
(0 0 -0.00169308)
(0 0 -0.00217086)
(0 0 -0.0015904)
(0 0 -0.000871786)
(0 0 -0.000409094)
(0 0 -0.000188646)
(0 0 -0.000102143)
(0 0 -7.32388e-05)
(0 0 -6.51857e-05)
(0 0 -6.37537e-05)
(0 0 -6.42105e-05)
(0 0 -6.51408e-05)
(0 0 -6.6151e-05)
(0 0 -6.71391e-05)
(0 0 -6.80852e-05)
(0 0 -6.89756e-05)
(0 0 -6.98089e-05)
(0 0 -7.05925e-05)
(0 0 -7.13311e-05)
(0 0 -7.20223e-05)
(0 0 -7.26598e-05)
(0 0 -7.32364e-05)
(0 0 -7.37487e-05)
(0 0 -7.41952e-05)
(0 0 -7.45747e-05)
(0 0 -7.48845e-05)
(0 0 -7.51199e-05)
(0 0 -7.52758e-05)
(0 0 -7.53472e-05)
(0 0 -7.53298e-05)
(0 0 -7.52188e-05)
(0 0 -7.50084e-05)
(0 0 -7.46893e-05)
(0 0 -7.42519e-05)
(0 0 -7.36864e-05)
(0 0 -7.29814e-05)
(0 0 -7.21208e-05)
(0 0 -7.10817e-05)
(0 0 -6.98347e-05)
(0 0 -6.83445e-05)
(0 0 -6.65698e-05)
(0 0 -6.44616e-05)
(0 0 -6.19568e-05)
(0 0 -5.89691e-05)
(0 0 -5.53754e-05)
(0 0 -5.10072e-05)
(0 0 -4.57017e-05)
(0 0 -3.96305e-05)
(0 0 -3.44375e-05)
(0 0 -3.58942e-05)
(0 0 -5.78126e-05)
(0 0 -0.000123793)
(0 -1.08894e-22 -0.000258393)
(-1.48912e-23 8.08267e-21 -6.0611e-05)
(-1.85609e-22 7.92531e-21 -0.000113115)
(4.74426e-23 -2.49537e-22 -0.000171182)
(2.74975e-23 -2.37094e-20 -0.000217717)
(-1.19454e-22 8.15507e-21 -0.000233176)
(4.78566e-22 7.99859e-21 -0.000203573)
(-9.96689e-22 2.32363e-20 -0.000126498)
(3.81117e-22 -2.37069e-20 -1.18678e-05)
(7.7849e-22 -7.58947e-21 0.000122464)
(-1.14056e-21 -4.49529e-24 0.00025728)
(-1.157e-21 -7.65696e-21 0.000377467)
(1.01625e-21 7.20439e-21 0.000474634)
(6.29129e-22 -6.00831e-20 0.000546896)
(-1.12565e-21 1.2954e-19 0.00059681)
(3.46223e-22 -7.00805e-20 0.000629028)
(-1.61071e-21 -5.27808e-20 0.000648522)
(2.85051e-21 -6.70887e-20 0.000659564)
(-2.30033e-21 8.0394e-21 0.000665408)
(-2.59443e-22 -7.41555e-21 0.000668174)
(1.14499e-22 7.44696e-21 0.000669226)
(-3.91332e-24 -1.60066e-22 0.00066935)
(-1.10027e-22 -7.18219e-21 0.000669009)
(-2.46422e-21 7.28536e-21 0.000668455)
(5.20799e-21 1.57463e-23 0.000667747)
(1.54327e-21 7.09144e-21 0.000666767)
(-4.04913e-21 -6.82101e-24 0.000665275)
(5.84514e-21 8.51055e-21 0.000663026)
(-6.51235e-21 1.07583e-19 0.000659914)
(5.05667e-22 -1.15797e-19 0.000656052)
(-2.27447e-21 1.06437e-19 0.000651727)
(2.20754e-21 -1.07874e-19 0.000647243)
(5.95901e-23 1.64779e-21 0.00064275)
(-7.74368e-23 -2.01969e-21 0.000638159)
(2.87752e-21 -1.03287e-19 0.000633175)
(-1.01492e-20 1.0074e-19 0.00062737)
(-3.93593e-22 -1.89845e-21 0.000620134)
(7.62091e-21 1.66677e-23 0.000610278)
(8.31159e-21 1.81783e-23 0.000594904)
(-8.285e-21 -1.81201e-23 0.000566546)
(-2.76072e-22 -6.03796e-25 0.000506167)
(-2.89076e-22 -6.32239e-25 0.000366885)
(-1.00259e-20 -2.19276e-23 4.02453e-05)
(9.67612e-21 2.11626e-23 -0.000702955)
(-3.23644e-22 1.93884e-22 -0.00229324)
(6.78818e-23 9.91936e-21 -0.00542848)
(-3.07925e-20 6.26576e-20 -0.0110477)
(2.96154e-20 -8.36444e-20 -0.0201281)
(-7.80251e-21 -1.18911e-20 -0.0333001)
(8.52102e-21 3.34031e-20 -0.0504228)
(-2.67459e-20 -7.45648e-21 -0.0701738)
(-3.18841e-22 8.11015e-21 -0.000178913)
(-1.07454e-22 1.59115e-20 -0.000332309)
(4.23545e-22 7.71387e-21 -0.000502265)
(-1.1235e-21 -7.95008e-21 -0.000638923)
(2.0864e-21 7.51733e-21 -0.000685296)
(-7.80206e-22 -5.43466e-20 -0.000600683)
(-1.97256e-23 8.65882e-20 -0.000378192)
(-9.05836e-23 -9.34075e-21 -4.6796e-05)
(2.38511e-21 -9.97931e-20 0.000341542)
(-2.32067e-21 1.41627e-19 0.000731031)
(-5.26876e-22 1.29029e-19 0.00107796)
(3.34677e-22 -1.16699e-19 0.00135828)
(-4.95009e-22 9.32138e-22 0.00156666)
(3.50691e-21 -7.40848e-21 0.00171051)
(-2.6419e-21 2.52572e-20 0.00180326)
(-6.38861e-21 2.46532e-19 0.00185934)
(9.90469e-22 -2.32662e-19 0.00189114)
(-5.87311e-21 2.49784e-19 0.00190781)
(-2.55518e-22 1.97726e-20 0.00191557)
(-4.80589e-21 -7.64125e-21 0.00191821)
(5.05483e-21 1.80645e-22 0.00191805)
(-5.02879e-21 9.90222e-21 0.00191647)
(2.59145e-21 2.17967e-19 0.00191418)
(4.57756e-21 -4.64827e-19 0.00191132)
(3.96396e-21 -2.21045e-19 0.0019075)
(-5.67563e-21 4.49623e-19 0.00190195)
(1.09237e-21 -4.5092e-19 0.0018939)
(1.0712e-21 4.63692e-19 0.00188297)
(4.08178e-21 6.27492e-22 0.00186948)
(-4.58245e-21 -1.20011e-22 0.00185423)
(-1.53626e-21 -3.35995e-24 0.00183807)
(0 0 0.00182139)
(2.27079e-22 1.1767e-22 0.0018039)
(1.36291e-20 1.42716e-20 0.00178464)
(-1.32021e-20 3.89346e-19 0.00176227)
(-1.87934e-20 -2.59339e-20 0.00173484)
(1.61257e-20 -3.87409e-19 0.00169852)
(2.46051e-20 -3.3675e-19 0.00164411)
(-3.34175e-21 3.62742e-19 0.00154813)
(-3.82998e-20 1.55748e-21 0.00135106)
(3.83935e-20 2.06343e-20 0.000907292)
(-4.17493e-20 2.6906e-19 -0.000117319)
(1.80042e-20 -2.81677e-19 -0.002423)
(-2.2616e-20 1.78901e-20 -0.00731403)
(2.54871e-20 1.02907e-20 -0.0168883)
(-6.99562e-20 1.39245e-19 -0.0339504)
(7.00315e-20 -1.36004e-19 -0.0614018)
(-1.14902e-19 1.04921e-19 -0.101092)
(1.10743e-19 -1.17806e-19 -0.152522)
(-2.47383e-20 -8.40778e-22 -0.21)
(6.08002e-23 4.79167e-20 -0.000288406)
(-6.81411e-23 1.4982e-20 -0.000531225)
(3.42233e-22 -6.25728e-20 -0.000801522)
(-5.77422e-22 1.24632e-19 -0.00102093)
(1.25793e-21 -2.67621e-19 -0.00109983)
(1.03192e-21 1.27745e-19 -0.000974402)
(-3.10419e-21 -1.11854e-21 -0.000634004)
(1.89687e-21 -1.77894e-20 -0.000124135)
(2.54545e-22 -2.62013e-19 0.000473985)
(2.5344e-21 2.50537e-19 0.00107359)
(-1.09437e-21 -2.07355e-21 0.00160713)
(-5.30749e-21 -3.70671e-23 0.00203763)
(8.47081e-21 -2.33905e-21 0.00235704)
(-6.82211e-21 -2.57553e-19 0.002577)
(8.12423e-21 2.35726e-19 0.00271844)
(-1.10484e-20 4.66827e-19 0.00280359)
(-6.32989e-21 -1.31604e-20 0.00285132)
(-2.37992e-21 4.81506e-19 0.00287563)
(4.18787e-22 -1.46258e-20 0.00288586)
(-1.16238e-20 4.69004e-19 0.00288776)
(1.13767e-20 -4.87975e-19 0.00288485)
(-7.20082e-21 4.67673e-19 0.00287925)
(-1.42908e-21 -4.87398e-19 0.00287205)
(6.36411e-21 -8.77375e-21 0.00286342)
(-3.0438e-21 1.43077e-20 0.00285263)
(6.70375e-21 -8.31083e-21 0.00283828)
(-1.78041e-20 4.42295e-19 0.00281891)
(1.53022e-20 -4.74375e-19 0.00279377)
(1.62431e-20 -4.3942e-19 0.00276315)
(-1.2377e-20 4.44356e-19 0.00272821)
(-1.34292e-21 -6.41142e-21 0.00269011)
(1.38869e-20 -1.50136e-22 0.00264928)
(-1.6199e-20 -2.85846e-20 0.002605)
(4.66572e-20 -8.20962e-19 0.00255552)
(1.91613e-20 6.07715e-20 0.00249836)
(-6.66952e-20 7.77016e-19 0.00242984)
(4.94111e-21 -1.52787e-20 0.0023429)
(-1.37401e-20 -7.67553e-21 0.00222074)
(1.06569e-19 -6.66158e-19 0.00202094)
(-1.93331e-19 1.32055e-18 0.00163687)
(1.93444e-19 -1.33254e-18 0.00081033)
(8.87346e-20 9.5229e-20 -0.00104367)
(-1.62315e-19 5.9546e-19 -0.0051333)
(-1.76849e-19 4.18805e-19 -0.0136758)
(1.64172e-19 -5.02306e-19 -0.0301893)
(-2.94147e-20 2.49808e-20 -0.0593242)
(7.31201e-20 -2.32192e-20 -0.105855)
(2.0707e-19 -1.28674e-19 -0.172782)
(-2.25583e-19 2.04959e-19 -0.259103)
(-3.37955e-20 -5.42386e-20 -0.349668)
(4.27924e-22 -3.15576e-20 -0.000383994)
(-4.29102e-22 1.60244e-20 -0.000699531)
(9.07427e-22 -2.20264e-22 -0.00105412)
(-8.55413e-22 -1.57319e-20 -0.00134782)
(-1.26003e-21 -1.85792e-21 -0.00146598)
(2.72416e-21 -2.46566e-19 -0.0013268)
(-2.87315e-21 4.68601e-19 -0.000916374)
(1.13118e-21 -2.53169e-19 -0.000292101)
(-2.19349e-21 1.51828e-20 0.000443594)
(3.7775e-21 -2.76964e-19 0.00118169)
(-5.30575e-21 2.54425e-19 0.00183785)
(-7.19583e-22 4.8237e-19 0.00236628)
(4.73052e-21 -9.80044e-19 0.00275709)
(-7.42913e-21 9.81195e-19 0.00302483)
(1.26429e-20 -9.7798e-19 0.00319553)
(-5.13749e-21 9.73246e-19 0.00329652)
(-7.68164e-21 4.92419e-19 0.00335088)
(-8.49643e-22 -4.80638e-21 0.00337557)
(5.69341e-21 4.92581e-21 0.00338183)
(-4.37331e-21 4.57723e-19 0.00337662)
(-7.91246e-21 -4.82452e-19 0.00336412)
(1.85867e-20 1.59994e-20 0.00334688)
(-2.96628e-20 9.27782e-19 0.00332623)
(1.95684e-20 -9.34464e-19 0.00330227)
(2.66165e-21 -3.82987e-21 0.00327376)
(-1.22472e-20 -6.97838e-23 0.00323845)
(1.82334e-20 -1.41632e-20 0.00319396)
(-6.00454e-21 1.54112e-22 0.0031388)
(-6.65789e-21 -3.17827e-23 0.00307293)
(6.26641e-21 2.43798e-22 0.00299736)
(-4.27223e-21 -5.79398e-22 0.00291314)
(5.5869e-20 -8.41213e-19 0.00282028)
(-4.86327e-20 8.693e-19 0.00271722)
(-1.962e-20 -1.78167e-21 0.00260102)
(2.24536e-20 -8.85028e-21 0.00246763)
(-9.06088e-20 7.8579e-19 0.00231113)
(1.12346e-19 -7.93506e-19 0.00212037)
(-2.8955e-20 4.32854e-21 0.00186938)
(2.01671e-20 -1.07882e-23 0.00149322)
(4.73483e-20 9.75573e-21 0.000829421)
(-2.63196e-19 6.0958e-19 -0.000511991)
(3.64334e-19 -1.25221e-18 -0.00340316)
(-1.7519e-19 6.40045e-19 -0.00961671)
(2.87923e-19 -5.02863e-19 -0.0223518)
(-2.74108e-19 6.00794e-19 -0.0466076)
(-7.0307e-19 6.24824e-19 -0.0889241)
(1.34178e-18 -1.35505e-18 -0.15601)
(-6.67949e-19 6.98261e-19 -0.25213)
(2.49657e-20 -2.89177e-21 -0.375651)
(6.01226e-21 -4.66424e-20 -0.492576)
(-9.00207e-22 1.61525e-20 -0.000460295)
(-8.8361e-23 6.11975e-20 -0.000829155)
(1.69028e-21 -1.86545e-19 -0.00125016)
(-3.80626e-22 2.50965e-19 -0.00161079)
(-9.67622e-22 -1.11529e-19 -0.00178088)
(4.48448e-23 -1.46637e-20 -0.00166687)
(-4.95268e-22 1.57064e-20 -0.00125138)
(3.86654e-21 -2.32962e-22 -0.000597067)
(-3.84001e-21 -1.53094e-20 0.00018323)
(-6.39138e-21 3.53278e-20 0.000969448)
(-3.47089e-21 4.90634e-19 0.00166869)
(1.79349e-20 -5.10906e-19 0.00223038)
(-2.35434e-20 4.7772e-19 0.00264341)
(1.84584e-20 -4.97715e-19 0.00292334)
(-3.8142e-21 4.32623e-21 0.00309799)
(1.38832e-20 9.15799e-23 0.00319647)
(5.30503e-21 4.69199e-21 0.00324317)
(-4.19497e-22 4.66358e-19 0.00325593)
(1.8919e-20 -5.06466e-19 0.00324644)
(8.1503e-21 3.06168e-20 0.00322182)
(-4.27625e-20 9.65954e-19 0.00318631)
(2.19895e-20 -9.72383e-19 0.00314251)
(1.29723e-20 2.53216e-20 0.0030917)
(-2.26004e-20 -2.92293e-22 0.00303364)
(1.47784e-20 1.20307e-20 0.0029663)
(-2.89498e-20 9.36831e-19 0.00288622)
(2.10017e-20 -9.31815e-19 0.00278961)
(3.5415e-21 1.20109e-20 0.00267368)
(1.26021e-20 2.86656e-20 0.00253733)
(-1.43404e-20 -6.84101e-22 0.00238067)
(1.09972e-21 -1.37681e-20 0.00220371)
(-4.59375e-20 1.40325e-20 0.00200515)
(4.41099e-20 1.3407e-20 0.00178169)
(-4.46592e-21 -2.91817e-20 0.00152833)
(6.55084e-20 -7.92352e-19 0.00123855)
(-5.32524e-20 8.16186e-19 0.000903279)
(2.43512e-19 -1.58848e-18 0.000506358)
(-2.1493e-19 1.60593e-18 1.1549e-05)
(2.73451e-19 -1.5263e-18 -0.000670978)
(8.30802e-20 1.44186e-19 -0.00176572)
(-3.20302e-19 1.46105e-18 -0.00380996)
(-1.53665e-19 -2.95394e-20 -0.00799637)
(2.06319e-20 2.90104e-22 -0.0167227)
(-2.42074e-20 5.0766e-22 -0.0342655)
(7.15981e-20 1.97043e-21 -0.0672499)
(3.62789e-20 1.62522e-20 -0.124358)
(-1.50634e-19 6.11111e-21 -0.214754)
(8.74727e-20 6.1691e-21 -0.3449)
(-2.21392e-22 -4.15725e-22 -0.513202)
(4.79942e-20 8.19982e-22 -0.651011)
(-5.33485e-22 7.73466e-20 -0.000510313)
(1.91682e-21 -4.73459e-20 -0.000912294)
(-2.24158e-21 -1.69533e-20 -0.00138105)
(4.4349e-21 -2.31205e-19 -0.00180141)
(-1.37023e-21 2.33494e-19 -0.00203821)
(5.10085e-22 -2.30815e-19 -0.00199234)
(-9.20448e-21 5.0934e-19 -0.00164203)
(7.21854e-21 -7.14932e-19 -0.00104729)
(-4.10716e-21 5.07646e-19 -0.000319812)
(-1.44296e-21 4.92857e-19 0.000420596)
(-2.40235e-21 1.9685e-21 0.00108076)
(1.85907e-20 -9.69289e-19 0.00160931)
(-1.3924e-20 1.0123e-18 0.00199395)
(3.10478e-22 -4.78633e-19 0.00224866)
(8.66492e-21 -4.79524e-19 0.00239953)
(2.12652e-20 -4.71963e-19 0.00247395)
(-3.3173e-21 7.1307e-21 0.00249482)
(3.39764e-20 -9.82399e-19 0.00247865)
(2.19073e-20 -9.4222e-19 0.00243613)
(7.49465e-21 2.40694e-20 0.00237352)
(-1.68694e-20 9.81744e-19 0.00229442)
(-2.52917e-20 -1.01728e-20 0.0022009)
(1.54251e-20 1.12002e-20 0.00209373)
(-4.28466e-20 9.54623e-19 0.00197186)
(3.12542e-20 -9.75522e-19 0.00183199)
(6.75423e-20 -9.32884e-19 0.00166884)
(-6.90181e-20 9.69504e-19 0.00147648)
(1.88183e-20 -2.49598e-20 0.00124988)
(5.5234e-20 -9.37745e-19 0.000985692)
(-8.96736e-20 9.65873e-19 0.000681734)
(5.44403e-21 1.53592e-20 0.000335479)
(-1.85589e-19 1.77467e-18 -5.73891e-05)
(1.60204e-19 -1.85001e-18 -0.000503602)
(6.10631e-20 7.49552e-20 -0.00101207)
(-2.38563e-19 1.6959e-18 -0.00159356)
(2.09892e-19 -1.77785e-18 -0.00226188)
(-3.9609e-20 -4.42827e-21 -0.00303911)
(4.63883e-19 -1.61448e-18 -0.00397128)
(-4.26749e-19 1.67775e-18 -0.00517037)
(-8.60957e-20 -9.00191e-20 -0.00691732)
(6.9961e-19 -1.42914e-18 -0.00988977)
(-1.18984e-18 2.99215e-18 -0.0155998)
(-9.16572e-20 -1.6677e-19 -0.0270943)
(-1.31727e-19 -1.23992e-19 -0.0498175)
(8.33681e-19 -1.34454e-18 -0.0922576)
(5.33976e-20 8.462e-20 -0.16581)
(-1.06571e-18 9.43142e-19 -0.283521)
(1.03942e-18 -1.04655e-18 -0.457492)
(1.08606e-20 3.969e-20 -0.691827)
(1.20833e-20 -3.43752e-21 -0.856796)
(7.06624e-22 -1.63363e-20 -0.000526476)
(1.30149e-21 -1.37409e-19 -0.000942492)
(-1.54501e-21 1.24311e-19 -0.00143838)
(-1.75263e-21 -1.80411e-20 -0.00190645)
(4.75137e-21 -2.29937e-19 -0.00221705)
(-4.22598e-21 2.38028e-19 -0.0022718)
(-1.96259e-21 4.78543e-19 -0.00204382)
(-6.23517e-21 -2.03427e-20 -0.00158325)
(3.25869e-21 -5.22049e-21 -0.000990056)
(1.16969e-20 -5.10401e-19 -0.000373737)
(-8.07482e-21 4.78052e-19 0.000179141)
(7.78658e-21 -1.01355e-18 0.000619443)
(2.2473e-21 5.08517e-19 0.000933339)
(-4.88148e-21 -1.99697e-20 0.00113103)
(-6.41659e-21 -2.46123e-20 0.00123398)
(1.9449e-20 -9.98632e-19 0.00126519)
(-1.63859e-21 -1.96302e-20 0.00124389)
(1.70045e-20 -1.01839e-18 0.00118385)
(-7.08174e-21 -6.15164e-21 0.00109381)
(-1.97024e-22 1.50831e-22 0.000978699)
(1.44191e-20 1.0608e-20 0.000841231)
(-4.44558e-20 9.8427e-19 0.000682907)
(3.71577e-20 -1.00921e-18 0.000504093)
(1.60239e-20 1.04885e-20 0.000303311)
(-1.12882e-20 -1.55225e-20 7.65755e-05)
(-7.71684e-21 1.23833e-20 -0.000182312)
(-6.25027e-20 9.55849e-19 -0.000480278)
(1.36445e-19 -1.96028e-18 -0.00082313)
(-6.18532e-20 1.03174e-18 -0.0012145)
(-1.64656e-19 1.9028e-18 -0.00165621)
(-3.18725e-20 -4.73082e-20 -0.00214948)
(1.00785e-20 -2.29943e-20 -0.00269606)
(-7.4762e-20 -5.65385e-20 -0.00329814)
(2.25734e-19 -1.92319e-18 -0.00395704)
(3.81852e-19 -1.77676e-18 -0.00467127)
(-3.27914e-19 1.87954e-18 -0.00543537)
(-4.27442e-20 -6.91412e-20 -0.00624214)
(4.39407e-19 -1.72113e-18 -0.00709505)
(-3.67889e-19 1.84064e-18 -0.00804877)
(-6.61637e-19 1.62927e-18 -0.00931947)
(5.34219e-19 -1.73867e-18 -0.0115432)
(9.83192e-20 -1.38428e-20 -0.0162956)
(9.22202e-19 -1.57528e-18 -0.0269626)
(1.80246e-19 1.24916e-19 -0.0498836)
(-1.11389e-18 1.56867e-18 -0.0953561)
(-2.34627e-20 -5.19871e-20 -0.177843)
(4.60061e-20 7.26524e-22 -0.315675)
(-4.43035e-20 2.19252e-20 -0.534314)
(-6.45482e-19 6.72104e-19 -0.876435)
(6.32145e-19 -6.86133e-19 -1.23858)
(-1.00898e-20 -2.64e-21 0.000200149)
(-6.77647e-21 2.77351e-21 -0.0151275)
(6.22354e-21 4.7524e-21 -0.026901)
(-1.0765e-20 -1.62738e-20 -0.0345929)
(1.11802e-20 9.28833e-21 -0.0380413)
(-4.83281e-22 1.22159e-21 -0.0377084)
(-8.59418e-23 -5.50344e-23 -0.0345422)
(-2.01181e-21 4.40004e-24 -0.0296821)
(1.94642e-21 -4.25701e-24 -0.0241798)
(-4.4563e-23 9.74637e-26 -0.018828)
(-3.5073e-23 7.67082e-26 -0.014111)
(7.485e-22 -1.63704e-24 -0.010243)
(-7.50912e-22 1.64232e-24 -0.0072442)
(-5.43124e-22 1.18787e-24 -0.00502179)
(5.55309e-23 -1.16478e-22 -0.00343361)
(2.70631e-21 8.51309e-20 -0.002331)
(-1.99302e-21 -7.96177e-20 -0.00158199)
(-1.07745e-23 -1.09227e-22 -0.00108046)
(-4.30189e-24 1.18956e-22 -0.000746762)
(-1.35026e-21 -9.78688e-20 -0.000524136)
(1.35761e-21 9.79459e-20 -0.000373771)
(-8.69374e-22 -9.58045e-20 -0.000269969)
(4.60341e-22 6.34745e-21 -0.000196189)
(-5.04739e-22 8.78933e-25 -0.000141707)
(4.56534e-22 6.6837e-21 -0.000100231)
(-1.26962e-22 8.73039e-24 -6.75698e-05)
(-5.08729e-22 1.11264e-24 -4.13258e-05)
(2.55984e-22 -8.96328e-24 -1.99494e-05)
(4.7895e-23 7.03063e-21 -2.33919e-06)
(-1.66559e-23 1.68588e-23 1.23437e-05)
(-3.75871e-23 -7.17897e-21 2.47743e-05)
(1.73814e-23 7.2344e-21 3.54901e-05)
(2.11472e-22 -7.36125e-21 4.48891e-05)
(-2.59845e-22 6.63862e-20 5.32405e-05)
(-1.36193e-23 -6.63663e-20 6.07158e-05)
(-1.95763e-22 -5.25362e-20 6.74287e-05)
(3.80536e-22 1.12612e-19 7.34668e-05)
(-1.96951e-22 -6.01849e-20 7.89084e-05)
(-1.5164e-22 -7.67346e-21 8.3827e-05)
(1.36058e-22 7.63715e-21 8.82901e-05)
(1.04923e-22 -2.4942e-26 9.2357e-05)
(-1.25722e-22 7.76715e-21 9.60777e-05)
(-8.42155e-23 -3.89217e-20 9.94975e-05)
(1.2726e-22 3.89671e-20 0.000102675)
(-7.98054e-23 -7.8305e-21 0.000105749)
(2.66918e-23 2.36719e-20 0.000109121)
(-5.65498e-23 -7.86558e-21 0.000113882)
(-3.52292e-23 -1.59377e-20 0.000122517)
(3.05257e-23 7.97657e-21 0.000139613)
(8.57295e-24 -8.02143e-21 0.00017168)
(-1.50762e-20 2.27264e-20 -0.00375601)
(-3.97941e-21 -3.05824e-20 -0.0485284)
(9.02958e-21 1.10423e-21 -0.082343)
(-2.89448e-20 -2.47816e-20 -0.103867)
(2.79991e-20 2.63671e-20 -0.112938)
(-6.77242e-21 5.55617e-21 -0.111118)
(4.37231e-21 -1.22222e-21 -0.101266)
(-5.18348e-20 -1.53545e-19 -0.0867073)
(5.39976e-20 1.44981e-19 -0.0704599)
(-8.76384e-21 -4.16933e-21 -0.0547754)
(3.18045e-21 -8.13277e-21 -0.041014)
(3.9913e-20 2.65324e-19 -0.0297618)
(-4.25034e-20 -2.63604e-19 -0.021055)
(-3.29605e-20 -3.10224e-19 -0.0146103)
(5.51654e-21 -1.93197e-20 -0.0100079)
(2.87831e-20 3.28734e-19 -0.00681321)
(-1.29064e-21 -4.94178e-21 -0.00464211)
(-8.20878e-22 -1.15092e-20 -0.00318662)
(1.80361e-24 -1.60709e-23 -0.00221606)
(1.10905e-22 -2.4256e-25 -0.00156625)
(3.9791e-22 5.97449e-24 -0.00112505)
(-4.67164e-22 -6.86432e-21 -0.000818253)
(9.41011e-21 4.00351e-19 -0.000598026)
(-1.04478e-20 -4.33361e-19 -0.000433713)
(8.49294e-21 4.2559e-19 -0.000306804)
(-4.8033e-21 -2.13093e-19 -0.00020633)
(-7.3393e-21 -4.42023e-19 -0.000125052)
(3.05669e-21 2.21767e-19 -5.8348e-05)
(4.37548e-22 -6.77061e-21 -3.05594e-06)
(-7.29661e-22 -1.42727e-20 4.32903e-05)
(5.92723e-22 7.19761e-21 8.27073e-05)
(-2.23448e-22 -2.20159e-20 0.000116806)
(2.48004e-21 2.27879e-19 0.000146775)
(-5.22801e-21 -4.78874e-19 0.000173414)
(2.48784e-21 2.28892e-19 0.000197239)
(1.2968e-22 -2.21643e-20 0.000218607)
(-3.21955e-22 7.49423e-21 0.000237802)
(5.6065e-23 1.42244e-22 0.000255088)
(-7.73547e-22 -1.29664e-19 0.000270709)
(6.71159e-22 1.14271e-19 0.000284885)
(7.44464e-22 1.08116e-19 0.000297805)
(-9.81684e-22 -1.46544e-19 0.00030963)
(8.04517e-23 7.58319e-21 0.000320498)
(1.12833e-22 3.91764e-20 0.000330588)
(-2.06865e-22 -7.04231e-20 0.000340297)
(-2.55358e-22 -7.89048e-21 0.000350782)
(-9.52762e-23 -5.53984e-20 0.000365168)
(-9.44901e-23 -8.07935e-21 0.000390605)
(9.3405e-23 1.58693e-20 0.000440337)
(9.46616e-23 2.40233e-20 0.000533241)
(-1.66614e-20 2.81058e-22 -0.0207027)
(4.40505e-20 2.37584e-20 -0.0915175)
(-2.26149e-20 -1.11486e-20 -0.142807)
(-3.83847e-20 -1.26116e-20 -0.173468)
(1.4678e-20 6.0361e-21 -0.184357)
(-1.49009e-19 -2.20791e-19 -0.178636)
(1.58722e-19 2.08738e-19 -0.161086)
(1.87182e-19 3.53846e-19 -0.136915)
(-1.47398e-20 7.77768e-20 -0.110699)
(-3.35589e-19 -8.60325e-19 -0.0857741)
(3.24812e-19 9.73384e-19 -0.0641049)
(-1.53766e-19 -4.97877e-19 -0.0464908)
(-1.12239e-21 -1.16718e-20 -0.0329142)
(-8.67122e-22 -1.29211e-21 -0.0228903)
(9.97561e-20 6.87363e-19 -0.0157427)
(-1.47965e-20 2.1506e-20 -0.0107837)
(-8.28547e-20 -6.97335e-19 -0.00741144)
(3.59255e-21 2.22685e-20 -0.00514597)
(-1.2158e-21 4.09391e-23 -0.00362906)
(7.54788e-23 -5.34614e-22 -0.00260656)
(2.20949e-20 4.09866e-19 -0.00190527)
(-2.16018e-20 -3.95843e-19 -0.00141106)
(-1.74951e-20 -4.12465e-19 -0.00104996)
(1.87258e-20 4.37902e-19 -0.000776144)
(-2.2216e-23 1.41751e-20 -0.000559996)
(-2.40381e-22 -1.37752e-20 -0.000385754)
(-2.35005e-22 1.44573e-20 -0.00024257)
(-9.38785e-21 -4.38978e-19 -0.000123287)
(1.07719e-20 4.53084e-19 -2.3055e-05)
(-8.96566e-21 -4.32289e-19 6.20205e-05)
(9.65167e-21 4.61058e-19 0.00013515)
(2.19316e-22 1.46e-20 0.000198883)
(6.61707e-21 4.72841e-19 0.00025509)
(-1.34027e-20 -9.32528e-19 0.000305047)
(7.67634e-21 4.89113e-19 0.000349624)
(1.87656e-21 2.56187e-19 0.000389484)
(-1.61899e-21 -2.25351e-19 0.000425206)
(-1.01066e-21 -2.40378e-22 0.000457329)
(5.83655e-22 -4.92923e-24 0.000486348)
(1.48281e-22 -2.47049e-22 0.000512691)
(1.66065e-21 2.46798e-19 0.000536716)
(-1.83681e-21 -2.31198e-19 0.000558714)
(-9.3689e-23 1.52912e-20 0.000578938)
(4.26482e-22 -1.02224e-22 0.000597686)
(6.14901e-22 1.25566e-19 0.000615582)
(-1.5057e-21 -2.35628e-19 0.000634386)
(8.29697e-22 1.25832e-19 0.00065886)
(-4.07219e-22 -6.32999e-20 0.000699956)
(2.75929e-22 4.74691e-20 0.00077813)
(8.2003e-23 1.59488e-20 0.00092278)
(1.21229e-21 2.8159e-20 -0.0584103)
(9.2141e-21 -5.2478e-20 -0.150806)
(2.06031e-19 2.50868e-19 -0.211679)
(-5.25366e-19 -5.27306e-19 -0.243591)
(3.36112e-19 2.75982e-19 -0.250149)
(2.14333e-19 3.10678e-19 -0.23679)
(-2.37513e-19 -2.91951e-19 -0.210082)
(2.4252e-19 4.11503e-19 -0.176548)
(-4.9392e-19 -8.80002e-19 -0.141644)
(2.61715e-19 4.54827e-19 -0.109203)
(-4.51084e-21 1.33156e-20 -0.0813877)
(-4.27982e-21 6.45673e-22 -0.0589786)
(6.98056e-21 1.1259e-20 -0.0418093)
(-1.60229e-19 -6.89107e-19 -0.0291845)
(1.52205e-19 6.6477e-19 -0.0202061)
(1.5682e-21 2.43232e-20 -0.0139853)
(-3.2392e-23 -1.28098e-20 -0.00975401)
(9.07124e-20 7.83938e-19 -0.00690463)
(-9.10945e-20 -7.81659e-19 -0.00498634)
(-9.85396e-22 -1.39881e-20 -0.00368087)
(-5.12996e-22 -1.84266e-23 -0.00277231)
(7.13906e-22 6.78568e-23 -0.00211914)
(5.13583e-22 -1.98514e-23 -0.00163088)
(-9.73155e-22 1.36562e-20 -0.00125008)
(1.39611e-21 3.41555e-23 -0.000942963)
(2.99616e-22 1.51086e-20 -0.000688645)
(-3.34563e-20 -9.23087e-19 -0.000475297)
(3.40668e-20 9.07142e-19 -0.000294198)
(-2.03006e-21 1.70798e-21 -0.000139311)
(-1.07894e-20 -4.66449e-19 -5.74089e-06)
(1.26456e-20 4.80163e-19 0.000110575)
(-6.61987e-22 5.81117e-22 0.000212836)
(-1.08367e-22 5.45814e-22 0.00030338)
(-8.2473e-21 -4.94179e-19 0.000383861)
(1.74069e-20 9.7467e-19 0.000455526)
(-1.67236e-20 -9.64145e-19 0.000519454)
(1.50904e-20 9.68884e-19 0.000576658)
(-1.37939e-20 -9.72814e-19 0.000628089)
(6.46902e-21 4.8658e-19 0.000674591)
(3.48017e-21 2.46532e-19 0.000716868)
(-2.96179e-21 -2.14858e-19 0.000755483)
(4.74851e-23 -1.54332e-20 0.00079089)
(-2.48477e-21 -2.48939e-19 0.00082347)
(5.26217e-21 5.28858e-19 0.000853646)
(-2.5857e-21 -2.48826e-19 0.000882215)
(1.34424e-22 -2.52189e-22 0.000911332)
(2.29476e-22 1.56968e-20 0.000946813)
(-1.48289e-22 3.33635e-23 0.00100216)
(-9.59177e-23 -1.58109e-20 0.00110291)
(2.33151e-22 3.16306e-20 0.00128628)
(2.86765e-20 -7.33979e-23 -0.127098)
(-1.36633e-21 -1.12254e-21 -0.233919)
(-5.92374e-20 -2.30657e-21 -0.291759)
(7.64914e-20 -4.16412e-21 -0.313812)
(-2.94502e-20 -8.87605e-21 -0.308187)
(-3.06311e-20 -1.65468e-21 -0.28286)
(1.56496e-20 5.87869e-21 -0.24559)
(-7.72661e-21 -7.75292e-21 -0.203306)
(3.89553e-20 -1.76739e-20 -0.161446)
(5.58754e-19 1.17013e-18 -0.123645)
(-5.77309e-20 7.53274e-20 -0.0918067)
(-5.32543e-19 -1.27131e-18 -0.0664549)
(4.29573e-19 1.37609e-18 -0.0471886)
(-4.36904e-19 -1.37442e-18 -0.0331065)
(1.66981e-19 7.46418e-19 -0.0231369)
(-1.73132e-19 -7.70911e-19 -0.0162511)
(3.1344e-21 1.04856e-20 -0.0115738)
(-6.8011e-21 -1.23989e-20 -0.00841958)
(3.16599e-21 -1.30175e-20 -0.00628419)
(1.35698e-21 1.30357e-20 -0.00481431)
(1.56454e-21 5.19382e-23 -0.00377244)
(-3.91981e-21 -2.71466e-20 -0.00300412)