/*--------------------------------*- C++ -*----------------------------------*\
| =========                 |                                                 |
| \\      /  F ield         | OpenFOAM: The Open Source CFD Toolbox           |
|  \\    /   O peration     | Version:  2412                                  |
|   \\  /    A nd           | Website:  www.openfoam.com                      |
|    \\/     M anipulation  |                                                 |
\*---------------------------------------------------------------------------*/
FoamFile
{
    version     2.0;
    format      ascii;
    arch        "LSB;label=32;scalar=64";
    class       volVectorField;
    location    "16";
    object      vorticity;
}
// * * * * * * * * * * * * * * * * * * * * * * * * * * * * * * * * * * * * * //

dimensions      [0 0 -1 0 0 0 0];

internalField   nonuniform List<vector> 
5285
(
(0 -0 -3.29871e-05)
(0 -0 -3.40938e-05)
(0 -0 -3.5122e-05)
(0 -0 -3.60882e-05)
(0 -0 -3.69139e-05)
(0 -0 -3.75765e-05)
(0 -0 -3.80759e-05)
(0 -0 -3.84267e-05)
(0 -0 -3.86472e-05)
(0 -0 -3.87534e-05)
(0 -0 -3.87574e-05)
(0 -0 -3.86706e-05)
(0 -0 -3.85042e-05)
(0 -0 -3.82699e-05)
(0 -0 -3.79788e-05)
(0 -0 -3.76403e-05)
(0 -0 -3.72624e-05)
(0 -0 -3.68512e-05)
(0 -0 -3.64117e-05)
(0 -0 -3.59478e-05)
(0 -0 -3.54624e-05)
(0 -0 -3.4958e-05)
(0 -0 -3.44365e-05)
(0 -0 -3.39002e-05)
(0 -0 -3.33515e-05)
(0 -0 -3.27932e-05)
(0 -0 -3.22286e-05)
(0 -0 -3.16611e-05)
(0 -0 -3.10934e-05)
(0 -0 -3.0527e-05)
(0 -0 -2.99621e-05)
(0 -0 -2.93984e-05)
(0 -0 -2.88361e-05)
(0 -0 -2.82761e-05)
(0 -0 -2.77201e-05)
(0 -0 -2.71692e-05)
(0 -0 -2.66251e-05)
(0 -0 -2.60881e-05)
(0 -0 -2.55581e-05)
(0 -0 -2.50331e-05)
(0 -0 -2.4512e-05)
(0 -0 -2.39954e-05)
(0 -0 -2.34849e-05)
(0 -0 -2.29844e-05)
(0 -0 -2.24942e-05)
(0 -0 -2.20166e-05)
(0 -0 -2.15494e-05)
(0 -0 -2.10936e-05)
(0 -0 -2.0642e-05)
(0 -0 -2.02063e-05)
(0 -0 -1.97611e-05)
(0 -0 -1.93518e-05)
(0 -0 -1.89007e-05)
(0 -0 -1.85326e-05)
(0 -0 -1.80285e-05)
(0 -0 -1.77335e-05)
(0 -0 -1.70985e-05)
(0 -0 -1.69685e-05)
(0 -0 -1.60804e-05)
(0 -0 -1.62642e-05)
(0 -0 -1.49234e-05)
(0 -0 -1.56133e-05)
(0 -0 -1.35978e-05)
(0 -0 -1.48733e-05)
(0 -0 -1.26436e-05)
(0 -0 -1.11004e-05)
(0 -0 -2.07023e-05)
(0 -0 1.08896e-05)
(0 -0 -3.53743e-05)
(0 -0 -1.15049e-05)
(0 -0 4.91956e-07)
(0 -0 -2.97504e-05)
(0 -0 -3.07355e-05)
(0 -0 -3.16616e-05)
(0 -0 -3.2542e-05)
(0 -0 -3.32994e-05)
(0 -0 -3.39089e-05)
(0 -0 -3.43694e-05)
(0 -0 -3.46945e-05)
(0 -0 -3.49017e-05)
(0 -0 -3.50055e-05)
(0 -0 -3.50174e-05)
(0 -0 -3.49476e-05)
(0 -0 -3.48063e-05)
(0 -0 -3.4604e-05)
(0 -0 -3.43507e-05)
(0 -0 -3.40552e-05)
(0 -0 -3.37243e-05)
(0 -0 -3.33639e-05)
(0 -0 -3.29784e-05)
(0 -0 -3.25711e-05)
(0 -0 -3.21449e-05)
(0 -0 -3.17018e-05)
(0 -0 -3.12439e-05)
(0 -0 -3.07731e-05)
(0 -0 -3.02915e-05)
(0 -0 -2.98016e-05)
(0 -0 -2.93064e-05)
(0 -0 -2.88088e-05)
(0 -0 -2.83112e-05)
(0 -0 -2.78149e-05)
(0 -0 -2.73201e-05)
(0 -0 -2.68266e-05)
(0 -0 -2.63346e-05)
(0 -0 -2.5845e-05)
(0 -0 -2.53592e-05)
(0 -0 -2.48783e-05)
(0 -0 -2.44037e-05)
(0 -0 -2.39355e-05)
(0 -0 -2.34736e-05)
(0 -0 -2.30163e-05)
(0 -0 -2.25626e-05)
(0 -0 -2.21131e-05)
(0 -0 -2.16692e-05)
(0 -0 -2.12343e-05)
(0 -0 -2.08084e-05)
(0 -0 -2.03936e-05)
(0 -0 -1.99876e-05)
(0 -0 -1.95919e-05)
(0 -0 -1.91995e-05)
(0 -0 -1.88223e-05)
(0 -0 -1.84353e-05)
(0 -0 -1.80825e-05)
(0 -0 -1.76886e-05)
(0 -0 -1.73751e-05)
(0 -0 -1.69303e-05)
(0 -0 -1.66887e-05)
(0 -0 -1.61183e-05)
(0 -0 -1.60367e-05)
(0 -0 -1.52227e-05)
(0 -0 -1.54445e-05)
(0 -0 -1.41987e-05)
(0 -0 -1.49059e-05)
(0 -0 -1.30197e-05)
(0 -0 -1.43096e-05)
(0 -0 -1.20512e-05)
(0 -0 -1.15693e-05)
(0 -0 -1.72443e-05)
(0 -0 2.95732e-06)
(0 -0 -2.2696e-05)
(0 -0 -1.95057e-05)
(0 -0 -2.80173e-06)
(0 -0 -2.65968e-05)
(0 -0 -2.7462e-05)
(0 -0 -2.82858e-05)
(0 -0 -2.90833e-05)
(0 -0 -2.97737e-05)
(0 -0 -3.03308e-05)
(0 -0 -3.07528e-05)
(0 -0 -3.10521e-05)
(0 -0 -3.1245e-05)
(0 -0 -3.13453e-05)
(0 -0 -3.13636e-05)
(0 -0 -3.1309e-05)
(0 -0 -3.11908e-05)
(0 -0 -3.10182e-05)
(0 -0 -3.08004e-05)
(0 -0 -3.05451e-05)
(0 -0 -3.02588e-05)
(0 -0 -2.99463e-05)
(0 -0 -2.96117e-05)
(0 -0 -2.92581e-05)
(0 -0 -2.88879e-05)
(0 -0 -2.85033e-05)
(0 -0 -2.81058e-05)
(0 -0 -2.76972e-05)
(0 -0 -2.72795e-05)
(0 -0 -2.68548e-05)
(0 -0 -2.64257e-05)
(0 -0 -2.59946e-05)
(0 -0 -2.55637e-05)
(0 -0 -2.51342e-05)
(0 -0 -2.47062e-05)
(0 -0 -2.42795e-05)
(0 -0 -2.38545e-05)
(0 -0 -2.34319e-05)
(0 -0 -2.30131e-05)
(0 -0 -2.25989e-05)
(0 -0 -2.21904e-05)
(0 -0 -2.17877e-05)
(0 -0 -2.13906e-05)
(0 -0 -2.09976e-05)
(0 -0 -2.0608e-05)
(0 -0 -2.02223e-05)
(0 -0 -1.98417e-05)
(0 -0 -1.94691e-05)
(0 -0 -1.91043e-05)
(0 -0 -1.87492e-05)
(0 -0 -1.84013e-05)
(0 -0 -1.80626e-05)
(0 -0 -1.77264e-05)
(0 -0 -1.74046e-05)
(0 -0 -1.70729e-05)
(0 -0 -1.67736e-05)
(0 -0 -1.64339e-05)
(0 -0 -1.61723e-05)
(0 -0 -1.57837e-05)
(0 -0 -1.55928e-05)
(0 -0 -1.50839e-05)
(0 -0 -1.50479e-05)
(0 -0 -1.43051e-05)
(0 -0 -1.45622e-05)
(0 -0 -1.34085e-05)
(0 -0 -1.41304e-05)
(0 -0 -1.23708e-05)
(0 -0 -1.36695e-05)
(0 -0 -1.13992e-05)
(0 -0 -1.18814e-05)
(0 -0 -1.39696e-05)
(0 -0 -4.22662e-06)
(0 -0 -1.09727e-05)
(0 -0 -2.67442e-05)
(0 -0 -5.65595e-06)
(0 -0 -2.35236e-05)
(0 -0 -2.42731e-05)
(0 -0 -2.50013e-05)
(0 -0 -2.572e-05)
(0 -0 -2.63468e-05)
(0 -0 -2.68543e-05)
(0 -0 -2.72394e-05)
(0 -0 -2.75137e-05)
(0 -0 -2.76925e-05)
(0 -0 -2.77889e-05)
(0 -0 -2.78124e-05)
(0 -0 -2.77714e-05)
(0 -0 -2.76742e-05)
(0 -0 -2.75291e-05)
(0 -0 -2.73442e-05)
(0 -0 -2.71264e-05)
(0 -0 -2.68813e-05)
(0 -0 -2.66134e-05)
(0 -0 -2.63263e-05)
(0 -0 -2.60227e-05)
(0 -0 -2.57049e-05)
(0 -0 -2.53747e-05)
(0 -0 -2.50337e-05)
(0 -0 -2.46833e-05)
(0 -0 -2.43253e-05)
(0 -0 -2.39616e-05)
(0 -0 -2.35942e-05)
(0 -0 -2.32254e-05)
(0 -0 -2.28569e-05)
(0 -0 -2.24897e-05)
(0 -0 -2.21241e-05)
(0 -0 -2.17599e-05)
(0 -0 -2.13974e-05)
(0 -0 -2.10375e-05)
(0 -0 -2.06812e-05)
(0 -0 -2.03293e-05)
(0 -0 -1.99826e-05)
(0 -0 -1.96409e-05)
(0 -0 -1.93042e-05)
(0 -0 -1.89713e-05)
(0 -0 -1.86414e-05)
(0 -0 -1.83151e-05)
(0 -0 -1.79935e-05)
(0 -0 -1.76788e-05)
(0 -0 -1.7371e-05)
(0 -0 -1.70715e-05)
(0 -0 -1.67777e-05)
(0 -0 -1.64919e-05)
(0 -0 -1.6208e-05)
(0 -0 -1.59376e-05)
(0 -0 -1.56573e-05)
(0 -0 -1.54077e-05)
(0 -0 -1.51184e-05)
(0 -0 -1.49049e-05)
(0 -0 -1.45687e-05)
(0 -0 -1.44246e-05)
(0 -0 -1.39732e-05)
(0 -0 -1.39791e-05)
(0 -0 -1.33034e-05)
(0 -0 -1.35923e-05)
(0 -0 -1.25262e-05)
(0 -0 -1.32595e-05)
(0 -0 -1.16218e-05)
(0 -0 -1.29226e-05)
(0 -0 -1.06583e-05)
(0 -0 -1.1988e-05)
(0 -0 -1.08973e-05)
(0 -0 -1.04807e-05)
(0 -0 -3.89917e-07)
(0 -0 -3.30293e-05)
(0 -0 -7.94391e-06)
(0 -0 -2.0539e-05)
(0 -0 -2.11823e-05)
(0 -0 -2.18223e-05)
(0 -0 -2.24685e-05)
(0 -0 -2.30368e-05)
(0 -0 -2.34986e-05)
(0 -0 -2.38498e-05)
(0 -0 -2.4101e-05)
(0 -0 -2.42667e-05)
(0 -0 -2.43591e-05)
(0 -0 -2.43872e-05)
(0 -0 -2.43586e-05)
(0 -0 -2.42806e-05)
(0 -0 -2.41607e-05)
(0 -0 -2.40059e-05)
(0 -0 -2.38224e-05)
(0 -0 -2.36152e-05)
(0 -0 -2.33882e-05)
(0 -0 -2.31447e-05)
(0 -0 -2.2887e-05)
(0 -0 -2.26173e-05)
(0 -0 -2.23371e-05)
(0 -0 -2.20478e-05)
(0 -0 -2.17508e-05)
(0 -0 -2.14476e-05)
(0 -0 -2.11398e-05)
(0 -0 -2.08292e-05)
(0 -0 -2.05175e-05)
(0 -0 -2.02062e-05)
(0 -0 -1.98962e-05)
(0 -0 -1.95877e-05)
(0 -0 -1.92807e-05)
(0 -0 -1.89756e-05)
(0 -0 -1.86731e-05)
(0 -0 -1.83741e-05)
(0 -0 -1.80793e-05)
(0 -0 -1.77891e-05)
(0 -0 -1.75033e-05)
(0 -0 -1.72218e-05)
(0 -0 -1.69436e-05)
(0 -0 -1.66682e-05)
(0 -0 -1.63962e-05)
(0 -0 -1.61284e-05)
(0 -0 -1.58667e-05)
(0 -0 -1.56108e-05)
(0 -0 -1.53619e-05)
(0 -0 -1.51175e-05)
(0 -0 -1.488e-05)
(0 -0 -1.46436e-05)
(0 -0 -1.44201e-05)
(0 -0 -1.41866e-05)
(0 -0 -1.39822e-05)
(0 -0 -1.37388e-05)
(0 -0 -1.3569e-05)
(0 -0 -1.32806e-05)
(0 -0 -1.31787e-05)
(0 -0 -1.27801e-05)
(0 -0 -1.28234e-05)
(0 -0 -1.22099e-05)
(0 -0 -1.25262e-05)
(0 -0 -1.15424e-05)
(0 -0 -1.22829e-05)
(0 -0 -1.07614e-05)
(0 -0 -1.20562e-05)
(0 -0 -9.81651e-06)
(0 -0 -1.18637e-05)
(0 -0 -8.04701e-06)
(0 -0 -1.56899e-05)
(0 -0 8.92145e-06)
(0 -0 -3.82384e-05)
(0 -0 -9.59013e-06)
(0 -0 -1.76609e-05)
(0 -0 -1.82097e-05)
(0 -0 -1.8771e-05)
(0 -0 -1.93525e-05)
(0 -0 -1.98686e-05)
(0 -0 -2.02896e-05)
(0 -0 -2.06107e-05)
(0 -0 -2.08414e-05)
(0 -0 -2.09955e-05)
(0 -0 -2.10845e-05)
(0 -0 -2.1117e-05)
(0 -0 -2.10997e-05)
(0 -0 -2.10392e-05)
(0 -0 -2.09421e-05)
(0 -0 -2.08147e-05)
(0 -0 -2.06623e-05)
(0 -0 -2.04894e-05)
(0 -0 -2.02994e-05)
(0 -0 -2.00952e-05)
(0 -0 -1.9879e-05)
(0 -0 -1.96527e-05)
(0 -0 -1.94176e-05)
(0 -0 -1.9175e-05)
(0 -0 -1.89262e-05)
(0 -0 -1.86724e-05)
(0 -0 -1.84151e-05)
(0 -0 -1.81556e-05)
(0 -0 -1.78953e-05)
(0 -0 -1.76355e-05)
(0 -0 -1.73769e-05)
(0 -0 -1.71198e-05)
(0 -0 -1.68643e-05)
(0 -0 -1.66107e-05)
(0 -0 -1.63598e-05)
(0 -0 -1.61124e-05)
(0 -0 -1.58688e-05)
(0 -0 -1.56293e-05)
(0 -0 -1.53935e-05)
(0 -0 -1.51615e-05)
(0 -0 -1.49325e-05)
(0 -0 -1.47058e-05)
(0 -0 -1.44822e-05)
(0 -0 -1.42626e-05)
(0 -0 -1.40482e-05)
(0 -0 -1.38388e-05)
(0 -0 -1.36352e-05)
(0 -0 -1.34349e-05)
(0 -0 -1.32405e-05)
(0 -0 -1.30466e-05)
(0 -0 -1.28648e-05)
(0 -0 -1.2673e-05)
(0 -0 -1.25089e-05)
(0 -0 -1.23065e-05)
(0 -0 -1.21755e-05)
(0 -0 -1.19298e-05)
(0 -0 -1.18652e-05)
(0 -0 -1.15141e-05)
(0 -0 -1.15898e-05)
(0 -0 -1.1033e-05)
(0 -0 -1.13721e-05)
(0 -0 -1.04643e-05)
(0 -0 -1.12074e-05)
(0 -0 -9.79538e-06)
(0 -0 -1.10756e-05)
(0 -0 -8.87856e-06)
(0 -0 -1.15074e-05)
(0 -0 -5.43829e-06)
(0 -0 -1.98074e-05)
(0 -0 1.68875e-05)
(0 -0 -4.23189e-05)
(0 -0 -1.05686e-05)
(0 -0 -1.49153e-05)
(0 -0 -1.53826e-05)
(0 -0 -1.58758e-05)
(0 -0 -1.64013e-05)
(0 -0 -1.68723e-05)
(0 -0 -1.72583e-05)
(0 -0 -1.75535e-05)
(0 -0 -1.77668e-05)
(0 -0 -1.79112e-05)
(0 -0 -1.79978e-05)
(0 -0 -1.80345e-05)
(0 -0 -1.80276e-05)
(0 -0 -1.79831e-05)
(0 -0 -1.79066e-05)
(0 -0 -1.78037e-05)
(0 -0 -1.76792e-05)
(0 -0 -1.75369e-05)
(0 -0 -1.73799e-05)
(0 -0 -1.72107e-05)
(0 -0 -1.70313e-05)
(0 -0 -1.68435e-05)
(0 -0 -1.66484e-05)
(0 -0 -1.64473e-05)
(0 -0 -1.62411e-05)
(0 -0 -1.60311e-05)
(0 -0 -1.58184e-05)
(0 -0 -1.56041e-05)
(0 -0 -1.53893e-05)
(0 -0 -1.51749e-05)
(0 -0 -1.49618e-05)
(0 -0 -1.47501e-05)
(0 -0 -1.45399e-05)
(0 -0 -1.43318e-05)
(0 -0 -1.41263e-05)
(0 -0 -1.39243e-05)
(0 -0 -1.37258e-05)
(0 -0 -1.35309e-05)
(0 -0 -1.33391e-05)
(0 -0 -1.31506e-05)
(0 -0 -1.29646e-05)
(0 -0 -1.27807e-05)
(0 -0 -1.25996e-05)
(0 -0 -1.24221e-05)
(0 -0 -1.22492e-05)
(0 -0 -1.20805e-05)
(0 -0 -1.19166e-05)
(0 -0 -1.17549e-05)
(0 -0 -1.15982e-05)
(0 -0 -1.14414e-05)
(0 -0 -1.12961e-05)
(0 -0 -1.11407e-05)
(0 -0 -1.10117e-05)
(0 -0 -1.08452e-05)
(0 -0 -1.07479e-05)
(0 -0 -1.05397e-05)
(0 -0 -1.05072e-05)
(0 -0 -1.01981e-05)
(0 -0 -1.03011e-05)
(0 -0 -9.79522e-06)
(0 -0 -1.01519e-05)
(0 -0 -9.31371e-06)
(0 -0 -1.00545e-05)
(0 -0 -8.74468e-06)
(0 -0 -1.00017e-05)
(0 -0 -7.86416e-06)
(0 -0 -1.09391e-05)
(0 -0 -3.08953e-06)
(0 -0 -2.28499e-05)
(0 -0 2.34889e-05)
(0 -0 -4.52839e-05)
(0 -0 -1.09007e-05)
(0 -0 -1.23326e-05)
(0 -0 -1.27317e-05)
(0 -0 -1.31679e-05)
(0 -0 -1.36464e-05)
(0 -0 -1.40797e-05)
(0 -0 -1.44366e-05)
(0 -0 -1.47105e-05)
(0 -0 -1.49096e-05)
(0 -0 -1.50465e-05)
(0 -0 -1.51316e-05)
(0 -0 -1.51727e-05)
(0 -0 -1.51755e-05)
(0 -0 -1.51453e-05)
(0 -0 -1.50872e-05)
(0 -0 -1.50062e-05)
(0 -0 -1.49062e-05)
(0 -0 -1.47908e-05)
(0 -0 -1.46628e-05)
(0 -0 -1.45243e-05)
(0 -0 -1.43772e-05)
(0 -0 -1.42229e-05)
(0 -0 -1.40628e-05)
(0 -0 -1.38977e-05)
(0 -0 -1.37287e-05)
(0 -0 -1.35568e-05)
(0 -0 -1.33828e-05)
(0 -0 -1.32077e-05)
(0 -0 -1.30323e-05)
(0 -0 -1.28574e-05)
(0 -0 -1.26836e-05)
(0 -0 -1.25111e-05)
(0 -0 -1.23402e-05)
(0 -0 -1.21714e-05)
(0 -0 -1.20053e-05)
(0 -0 -1.18424e-05)
(0 -0 -1.16828e-05)
(0 -0 -1.15263e-05)
(0 -0 -1.13725e-05)
(0 -0 -1.12214e-05)
(0 -0 -1.10724e-05)
(0 -0 -1.09253e-05)
(0 -0 -1.07807e-05)
(0 -0 -1.06393e-05)
(0 -0 -1.0502e-05)
(0 -0 -1.03682e-05)
(0 -0 -1.02384e-05)
(0 -0 -1.01098e-05)
(0 -0 -9.98543e-06)
(0 -0 -9.8604e-06)
(0 -0 -9.74625e-06)
(0 -0 -9.62203e-06)
(0 -0 -9.52309e-06)
(0 -0 -9.38735e-06)
(0 -0 -9.31866e-06)
(0 -0 -9.14275e-06)
(0 -0 -9.13708e-06)
(0 -0 -8.86447e-06)
(0 -0 -8.98967e-06)
(0 -0 -8.52886e-06)
(0 -0 -8.89817e-06)
(0 -0 -8.1229e-06)
(0 -0 -8.85663e-06)
(0 -0 -7.64142e-06)
(0 -0 -8.86684e-06)
(0 -0 -6.80387e-06)
(0 -0 -1.01958e-05)
(0 -0 -1.01602e-06)
(0 -0 -2.48878e-05)
(0 -0 2.87566e-05)
(0 -0 -4.72018e-05)
(0 -0 -1.0647e-05)
(0 -0 -9.94367e-06)
(0 -0 -1.02874e-05)
(0 -0 -1.06775e-05)
(0 -0 -1.11179e-05)
(0 -0 -1.15207e-05)
(0 -0 -1.18542e-05)
(0 -0 -1.21112e-05)
(0 -0 -1.22993e-05)
(0 -0 -1.24307e-05)
(0 -0 -1.25156e-05)
(0 -0 -1.25611e-05)
(0 -0 -1.25728e-05)
(0 -0 -1.25555e-05)
(0 -0 -1.25138e-05)
(0 -0 -1.24518e-05)
(0 -0 -1.23733e-05)
(0 -0 -1.22813e-05)
(0 -0 -1.21783e-05)
(0 -0 -1.20663e-05)
(0 -0 -1.19469e-05)
(0 -0 -1.18215e-05)
(0 -0 -1.16913e-05)
(0 -0 -1.15571e-05)
(0 -0 -1.14198e-05)
(0 -0 -1.12803e-05)
(0 -0 -1.11394e-05)
(0 -0 -1.09977e-05)
(0 -0 -1.08559e-05)
(0 -0 -1.07145e-05)
(0 -0 -1.05741e-05)
(0 -0 -1.0435e-05)
(0 -0 -1.02974e-05)
(0 -0 -1.01619e-05)
(0 -0 -1.00291e-05)
(0 -0 -9.89949e-06)
(0 -0 -9.77279e-06)
(0 -0 -9.64872e-06)
(0 -0 -9.52691e-06)
(0 -0 -9.40732e-06)
(0 -0 -9.2896e-06)
(0 -0 -9.17346e-06)
(0 -0 -9.05948e-06)
(0 -0 -8.94854e-06)
(0 -0 -8.84107e-06)
(0 -0 -8.73658e-06)
(0 -0 -8.63539e-06)
(0 -0 -8.53463e-06)
(0 -0 -8.43745e-06)
(0 -0 -8.33909e-06)
(0 -0 -8.25102e-06)
(0 -0 -8.15293e-06)
(0 -0 -8.07903e-06)
(0 -0 -7.96914e-06)
(0 -0 -7.92423e-06)
(0 -0 -7.77553e-06)
(0 -0 -7.79176e-06)
(0 -0 -7.55035e-06)
(0 -0 -7.69284e-06)
(0 -0 -7.27149e-06)
(0 -0 -7.64861e-06)
(0 -0 -6.92982e-06)
(0 -0 -7.65188e-06)
(0 -0 -6.52382e-06)
(0 -0 -7.71018e-06)
(0 -0 -5.73432e-06)
(0 -0 -9.32511e-06)
(0 -0 7.72025e-07)
(0 -0 -2.60322e-05)
(0 -0 3.27641e-05)
(0 -0 -4.81831e-05)
(0 -0 -9.89671e-06)
(0 -0 -7.77565e-06)
(0 -0 -8.07618e-06)
(0 -0 -8.4301e-06)
(0 -0 -8.84073e-06)
(0 -0 -9.21978e-06)
(0 -0 -9.53509e-06)
(0 -0 -9.77923e-06)
(0 -0 -9.95937e-06)
(0 -0 -1.00872e-05)
(0 -0 -1.01727e-05)
(0 -0 -1.02228e-05)
(0 -0 -1.02427e-05)
(0 -0 -1.02368e-05)
(0 -0 -1.02093e-05)
(0 -0 -1.0164e-05)
(0 -0 -1.01039e-05)
(0 -0 -1.00319e-05)
(0 -0 -9.95016e-06)
(0 -0 -9.86056e-06)
(0 -0 -9.76462e-06)
(0 -0 -9.66362e-06)
(0 -0 -9.55856e-06)
(0 -0 -9.4503e-06)
(0 -0 -9.33965e-06)
(0 -0 -9.2274e-06)
(0 -0 -9.11415e-06)
(0 -0 -9.0004e-06)
(0 -0 -8.88658e-06)
(0 -0 -8.77317e-06)
(0 -0 -8.66065e-06)
(0 -0 -8.54928e-06)
(0 -0 -8.43943e-06)
(0 -0 -8.33162e-06)
(0 -0 -8.22654e-06)
(0 -0 -8.12447e-06)
(0 -0 -8.02502e-06)
(0 -0 -7.9278e-06)
(0 -0 -7.83244e-06)
(0 -0 -7.73891e-06)
(0 -0 -7.64698e-06)
(0 -0 -7.55636e-06)
(0 -0 -7.46765e-06)
(0 -0 -7.38171e-06)
(0 -0 -7.29883e-06)
(0 -0 -7.21845e-06)
(0 -0 -7.1408e-06)
(0 -0 -7.06297e-06)
(0 -0 -6.98814e-06)
(0 -0 -6.9117e-06)
(0 -0 -6.84497e-06)
(0 -0 -6.76832e-06)
(0 -0 -6.71488e-06)
(0 -0 -6.62628e-06)
(0 -0 -6.60063e-06)
(0 -0 -6.47446e-06)
(0 -0 -6.50799e-06)
(0 -0 -6.29286e-06)
(0 -0 -6.44813e-06)
(0 -0 -6.06099e-06)
(0 -0 -6.4415e-06)
(0 -0 -5.77309e-06)
(0 -0 -6.47936e-06)
(0 -0 -5.43125e-06)
(0 -0 -6.57211e-06)
(0 -0 -4.69324e-06)
(0 -0 -8.37905e-06)
(0 -0 2.27117e-06)
(0 -0 -2.642e-05)
(0 -0 3.56184e-05)
(0 -0 -4.83652e-05)
(0 -0 -8.75674e-06)
(0 -0 -5.84848e-06)
(0 -0 -6.11658e-06)
(0 -0 -6.44341e-06)
(0 -0 -6.83157e-06)
(0 -0 -7.19271e-06)
(0 -0 -7.49453e-06)
(0 -0 -7.72934e-06)
(0 -0 -7.904e-06)
(0 -0 -8.02992e-06)
(0 -0 -8.11679e-06)
(0 -0 -8.17142e-06)
(0 -0 -8.19877e-06)
(0 -0 -8.20299e-06)
(0 -0 -8.18781e-06)
(0 -0 -8.15655e-06)
(0 -0 -8.11212e-06)
(0 -0 -8.05694e-06)
(0 -0 -7.99307e-06)
(0 -0 -7.9222e-06)
(0 -0 -7.84578e-06)
(0 -0 -7.76498e-06)
(0 -0 -7.68076e-06)
(0 -0 -7.5939e-06)
(0 -0 -7.50518e-06)
(0 -0 -7.4153e-06)
(0 -0 -7.32477e-06)
(0 -0 -7.23392e-06)
(0 -0 -7.14306e-06)
(0 -0 -7.05256e-06)
(0 -0 -6.96283e-06)
(0 -0 -6.87415e-06)
(0 -0 -6.78692e-06)
(0 -0 -6.7017e-06)
(0 -0 -6.61918e-06)
(0 -0 -6.53952e-06)
(0 -0 -6.4622e-06)
(0 -0 -6.38673e-06)
(0 -0 -6.31279e-06)
(0 -0 -6.24034e-06)
(0 -0 -6.16924e-06)
(0 -0 -6.09925e-06)
(0 -0 -6.03093e-06)
(0 -0 -5.96514e-06)
(0 -0 -5.90203e-06)
(0 -0 -5.84104e-06)
(0 -0 -5.78235e-06)
(0 -0 -5.72302e-06)
(0 -0 -5.66618e-06)
(0 -0 -5.6074e-06)
(0 -0 -5.55778e-06)
(0 -0 -5.49835e-06)
(0 -0 -5.46123e-06)
(0 -0 -5.38981e-06)
(0 -0 -5.37936e-06)
(0 -0 -5.27153e-06)
(0 -0 -5.31823e-06)
(0 -0 -5.12498e-06)
(0 -0 -5.289e-06)
(0 -0 -4.93132e-06)
(0 -0 -5.31129e-06)
(0 -0 -4.68768e-06)
(0 -0 -5.37463e-06)
(0 -0 -4.39966e-06)
(0 -0 -5.48991e-06)
(0 -0 -3.71507e-06)
(0 -0 -7.40842e-06)
(0 -0 3.48586e-06)
(0 -0 -2.61997e-05)
(0 -0 3.74503e-05)
(0 -0 -4.78981e-05)
(0 -0 -7.33994e-06)
(0 -0 -4.17254e-06)
(0 -0 -4.41757e-06)
(0 -0 -4.72504e-06)
(0 -0 -5.09696e-06)
(0 -0 -5.44516e-06)
(0 -0 -5.73736e-06)
(0 -0 -5.96578e-06)
(0 -0 -6.13705e-06)
(0 -0 -6.26235e-06)
(0 -0 -6.35118e-06)
(0 -0 -6.41022e-06)
(0 -0 -6.44426e-06)
(0 -0 -6.45721e-06)
(0 -0 -6.45251e-06)
(0 -0 -6.43316e-06)
(0 -0 -6.40176e-06)
(0 -0 -6.36055e-06)
(0 -0 -6.31142e-06)
(0 -0 -6.25596e-06)
(0 -0 -6.19551e-06)
(0 -0 -6.13119e-06)
(0 -0 -6.0639e-06)
(0 -0 -5.99439e-06)
(0 -0 -5.9234e-06)
(0 -0 -5.85158e-06)
(0 -0 -5.77935e-06)
(0 -0 -5.70694e-06)
(0 -0 -5.63456e-06)
(0 -0 -5.56247e-06)
(0 -0 -5.49104e-06)
(0 -0 -5.42055e-06)
(0 -0 -5.35142e-06)
(0 -0 -5.28427e-06)
(0 -0 -5.21976e-06)
(0 -0 -5.15794e-06)
(0 -0 -5.09822e-06)
(0 -0 -5.04e-06)
(0 -0 -4.98304e-06)
(0 -0 -4.92728e-06)
(0 -0 -4.87268e-06)
(0 -0 -4.81901e-06)
(0 -0 -4.76679e-06)
(0 -0 -4.71688e-06)
(0 -0 -4.66936e-06)
(0 -0 -4.62362e-06)
(0 -0 -4.57985e-06)
(0 -0 -4.53511e-06)
(0 -0 -4.49249e-06)
(0 -0 -4.44764e-06)
(0 -0 -4.41142e-06)
(0 -0 -4.36554e-06)
(0 -0 -4.34114e-06)
(0 -0 -4.28331e-06)
(0 -0 -4.28449e-06)
(0 -0 -4.19133e-06)
(0 -0 -4.24764e-06)
(0 -0 -4.07244e-06)
(0 -0 -4.24174e-06)
(0 -0 -3.90935e-06)
(0 -0 -4.28544e-06)
(0 -0 -3.70161e-06)
(0 -0 -4.3664e-06)
(0 -0 -3.45827e-06)
(0 -0 -4.49421e-06)
(0 -0 -2.82761e-06)
(0 -0 -6.45809e-06)
(0 -0 4.4287e-06)
(0 -0 -2.55187e-05)
(0 -0 3.84041e-05)
(0 -0 -4.69309e-05)
(0 -0 -5.75549e-06)
(0 -0 -2.74757e-06)
(0 -0 -2.97739e-06)
(0 -0 -3.27191e-06)
(0 -0 -3.63269e-06)
(0 -0 -3.97196e-06)
(0 -0 -4.25765e-06)
(0 -0 -4.48201e-06)
(0 -0 -4.65152e-06)
(0 -0 -4.77718e-06)
(0 -0 -4.86835e-06)
(0 -0 -4.93159e-06)
(0 -0 -4.97157e-06)
(0 -0 -4.99202e-06)
(0 -0 -4.99613e-06)
(0 -0 -4.98668e-06)
(0 -0 -4.96604e-06)
(0 -0 -4.93627e-06)
(0 -0 -4.89915e-06)
(0 -0 -4.85616e-06)
(0 -0 -4.80859e-06)
(0 -0 -4.75749e-06)
(0 -0 -4.70374e-06)
(0 -0 -4.64806e-06)
(0 -0 -4.59116e-06)
(0 -0 -4.53365e-06)
(0 -0 -4.47591e-06)
(0 -0 -4.4181e-06)
(0 -0 -4.36033e-06)
(0 -0 -4.30278e-06)
(0 -0 -4.24577e-06)
(0 -0 -4.18959e-06)
(0 -0 -4.1347e-06)
(0 -0 -4.08172e-06)
(0 -0 -4.03131e-06)
(0 -0 -3.98343e-06)
(0 -0 -3.93741e-06)
(0 -0 -3.89259e-06)
(0 -0 -3.8488e-06)
(0 -0 -3.80598e-06)
(0 -0 -3.76416e-06)
(0 -0 -3.72314e-06)
(0 -0 -3.68339e-06)
(0 -0 -3.64573e-06)
(0 -0 -3.61021e-06)
(0 -0 -3.57619e-06)
(0 -0 -3.54389e-06)
(0 -0 -3.51043e-06)
(0 -0 -3.47881e-06)
(0 -0 -3.44474e-06)
(0 -0 -3.4188e-06)
(0 -0 -3.38334e-06)
(0 -0 -3.3686e-06)
(0 -0 -3.32131e-06)
(0 -0 -3.3311e-06)
(0 -0 -3.24953e-06)
(0 -0 -3.31244e-06)
(0 -0 -3.15205e-06)
(0 -0 -3.32372e-06)
(0 -0 -3.01305e-06)
(0 -0 -3.3825e-06)
(0 -0 -2.83406e-06)
(0 -0 -3.47456e-06)
(0 -0 -2.6275e-06)
(0 -0 -3.60691e-06)
(0 -0 -2.05005e-06)
(0 -0 -5.56398e-06)
(0 -0 5.1199e-06)
(0 -0 -2.45137e-05)
(0 -0 3.86287e-05)
(0 -0 -4.56024e-05)
(0 -0 -4.10147e-06)
(0 -0 -1.56297e-06)
(0 -0 -1.784e-06)
(0 -0 -2.07074e-06)
(0 -0 -2.42439e-06)
(0 -0 -2.75785e-06)
(0 -0 -3.03945e-06)
(0 -0 -3.26154e-06)
(0 -0 -3.43054e-06)
(0 -0 -3.55729e-06)
(0 -0 -3.65104e-06)
(0 -0 -3.71822e-06)
(0 -0 -3.76344e-06)
(0 -0 -3.79028e-06)
(0 -0 -3.80176e-06)
(0 -0 -3.80046e-06)
(0 -0 -3.7886e-06)
(0 -0 -3.76812e-06)
(0 -0 -3.74068e-06)
(0 -0 -3.7077e-06)
(0 -0 -3.67039e-06)
(0 -0 -3.62977e-06)
(0 -0 -3.58668e-06)
(0 -0 -3.54185e-06)
(0 -0 -3.49598e-06)
(0 -0 -3.44965e-06)
(0 -0 -3.40321e-06)
(0 -0 -3.35676e-06)
(0 -0 -3.31036e-06)
(0 -0 -3.26412e-06)
(0 -0 -3.21832e-06)
(0 -0 -3.17323e-06)
(0 -0 -3.12933e-06)
(0 -0 -3.08728e-06)
(0 -0 -3.0477e-06)
(0 -0 -3.0105e-06)
(0 -0 -2.97492e-06)
(0 -0 -2.9403e-06)
(0 -0 -2.90651e-06)
(0 -0 -2.8735e-06)
(0 -0 -2.84139e-06)
(0 -0 -2.80998e-06)
(0 -0 -2.7797e-06)
(0 -0 -2.75129e-06)
(0 -0 -2.7248e-06)
(0 -0 -2.69957e-06)
(0 -0 -2.67589e-06)
(0 -0 -2.65095e-06)
(0 -0 -2.62769e-06)
(0 -0 -2.6018e-06)
(0 -0 -2.58357e-06)
(0 -0 -2.55598e-06)
(0 -0 -2.54837e-06)
(0 -0 -2.5091e-06)
(0 -0 -2.52499e-06)
(0 -0 -2.45247e-06)
(0 -0 -2.51951e-06)
(0 -0 -2.3713e-06)
(0 -0 -2.54298e-06)
(0 -0 -2.25106e-06)
(0 -0 -2.61168e-06)
(0 -0 -2.09483e-06)
(0 -0 -2.70963e-06)
(0 -0 -1.91835e-06)
(0 -0 -2.84047e-06)
(0 -0 -1.39233e-06)
(0 -0 -4.75162e-06)
(0 -0 5.58588e-06)
(0 -0 -2.33035e-05)
(0 -0 3.82696e-05)
(0 -0 -4.40337e-05)
(0 -0 -2.46003e-06)
(0 -0 -5.99368e-07)
(0 -0 -8.16785e-07)
(0 -0 -1.09974e-06)
(0 -0 -1.44933e-06)
(0 -0 -1.77937e-06)
(0 -0 -2.0587e-06)
(0 -0 -2.2799e-06)
(0 -0 -2.44932e-06)
(0 -0 -2.57771e-06)
(0 -0 -2.67416e-06)
(0 -0 -2.74507e-06)
(0 -0 -2.79493e-06)
(0 -0 -2.82722e-06)
(0 -0 -2.84483e-06)
(0 -0 -2.85024e-06)
(0 -0 -2.84555e-06)
(0 -0 -2.83259e-06)
(0 -0 -2.81294e-06)
(0 -0 -2.78794e-06)
(0 -0 -2.75875e-06)
(0 -0 -2.72635e-06)
(0 -0 -2.69159e-06)
(0 -0 -2.65519e-06)
(0 -0 -2.61785e-06)
(0 -0 -2.58014e-06)
(0 -0 -2.54241e-06)
(0 -0 -2.50471e-06)
(0 -0 -2.46706e-06)
(0 -0 -2.42952e-06)
(0 -0 -2.3923e-06)
(0 -0 -2.3557e-06)
(0 -0 -2.32019e-06)
(0 -0 -2.28644e-06)
(0 -0 -2.25505e-06)
(0 -0 -2.22586e-06)
(0 -0 -2.1981e-06)
(0 -0 -2.17109e-06)
(0 -0 -2.14475e-06)
(0 -0 -2.11903e-06)
(0 -0 -2.09414e-06)
(0 -0 -2.0699e-06)
(0 -0 -2.04668e-06)
(0 -0 -2.02511e-06)
(0 -0 -2.00528e-06)
(0 -0 -1.98648e-06)
(0 -0 -1.96911e-06)
(0 -0 -1.95049e-06)
(0 -0 -1.93345e-06)
(0 -0 -1.91369e-06)
(0 -0 -1.9011e-06)
(0 -0 -1.87934e-06)
(0 -0 -1.87682e-06)
(0 -0 -1.84355e-06)
(0 -0 -1.86353e-06)
(0 -0 -1.79803e-06)
(0 -0 -1.86724e-06)
(0 -0 -1.7291e-06)
(0 -0 -1.89894e-06)
(0 -0 -1.62336e-06)
(0 -0 -1.9735e-06)
(0 -0 -1.48501e-06)
(0 -0 -2.07335e-06)
(0 -0 -1.33301e-06)
(0 -0 -2.19842e-06)
(0 -0 -8.5574e-07)
(0 -0 -4.03618e-06)
(0 -0 5.8574e-06)
(0 -0 -2.19859e-05)
(0 -0 3.74628e-05)
(0 -0 -4.23249e-05)
(0 -0 -8.95133e-07)
(0 -0 1.68673e-07)
(0 -0 -4.91369e-08)
(0 -0 -3.3123e-07)
(0 -0 -6.79023e-07)
(0 -0 -1.00742e-06)
(0 -0 -1.2859e-06)
(0 -0 -1.50726e-06)
(0 -0 -1.67785e-06)
(0 -0 -1.80828e-06)
(0 -0 -1.90757e-06)
(0 -0 -1.98201e-06)
(0 -0 -2.03603e-06)
(0 -0 -2.07302e-06)
(0 -0 -2.09581e-06)
(0 -0 -2.10679e-06)
(0 -0 -2.10798e-06)
(0 -0 -2.10115e-06)
(0 -0 -2.08779e-06)
(0 -0 -2.06919e-06)
(0 -0 -2.04644e-06)
(0 -0 -2.02051e-06)
(0 -0 -1.99222e-06)
(0 -0 -1.96234e-06)
(0 -0 -1.93156e-06)
(0 -0 -1.90048e-06)
(0 -0 -1.86941e-06)
(0 -0 -1.83841e-06)
(0 -0 -1.80746e-06)
(0 -0 -1.77657e-06)
(0 -0 -1.74591e-06)
(0 -0 -1.71574e-06)
(0 -0 -1.68657e-06)
(0 -0 -1.65906e-06)
(0 -0 -1.63378e-06)
(0 -0 -1.61052e-06)
(0 -0 -1.58851e-06)
(0 -0 -1.56708e-06)
(0 -0 -1.54619e-06)
(0 -0 -1.52579e-06)
(0 -0 -1.50617e-06)
(0 -0 -1.48721e-06)
(0 -0 -1.46916e-06)
(0 -0 -1.45258e-06)
(0 -0 -1.43753e-06)
(0 -0 -1.42332e-06)
(0 -0 -1.41046e-06)
(0 -0 -1.3964e-06)
(0 -0 -1.38393e-06)
(0 -0 -1.3687e-06)
(0 -0 -1.36017e-06)
(0 -0 -1.34265e-06)
(0 -0 -1.34364e-06)
(0 -0 -1.31479e-06)
(0 -0 -1.33727e-06)
(0 -0 -1.27723e-06)
(0 -0 -1.3471e-06)
(0 -0 -1.21741e-06)
(0 -0 -1.38398e-06)
(0 -0 -1.12284e-06)
(0 -0 -1.46129e-06)
(0 -0 -9.98414e-07)
(0 -0 -1.56018e-06)
(0 -0 -8.66294e-07)
(0 -0 -1.67677e-06)
(0 -0 -4.34392e-07)
(0 -0 -3.42351e-06)
(0 -0 5.9674e-06)
(0 -0 -2.06369e-05)
(0 -0 3.63299e-05)
(0 -0 -4.05541e-05)
(0 -0 5.47388e-07)
(0 -0 7.69616e-07)
(0 -0 5.48666e-07)
(0 -0 2.65518e-07)
(0 -0 -8.20976e-08)
(0 -0 -4.10253e-07)
(0 -0 -6.89012e-07)
(0 -0 -9.11395e-07)
(0 -0 -1.08374e-06)
(0 -0 -1.21657e-06)
(0 -0 -1.31882e-06)
(0 -0 -1.39668e-06)
(0 -0 -1.45451e-06)
(0 -0 -1.49567e-06)
(0 -0 -1.52292e-06)
(0 -0 -1.5386e-06)
(0 -0 -1.54472e-06)
(0 -0 -1.54296e-06)
(0 -0 -1.53478e-06)
(0 -0 -1.52138e-06)
(0 -0 -1.5038e-06)
(0 -0 -1.48298e-06)
(0 -0 -1.45977e-06)
(0 -0 -1.43496e-06)
(0 -0 -1.40926e-06)
(0 -0 -1.38328e-06)
(0 -0 -1.35733e-06)
(0 -0 -1.33147e-06)
(0 -0 -1.30567e-06)
(0 -0 -1.27989e-06)
(0 -0 -1.25422e-06)
(0 -0 -1.22895e-06)
(0 -0 -1.20456e-06)
(0 -0 -1.18172e-06)
(0 -0 -1.16096e-06)
(0 -0 -1.14204e-06)
(0 -0 -1.12421e-06)
(0 -0 -1.1068e-06)
(0 -0 -1.08985e-06)
(0 -0 -1.07327e-06)
(0 -0 -1.05744e-06)
(0 -0 -1.04231e-06)
(0 -0 -1.02804e-06)
(0 -0 -1.01501e-06)
(0 -0 -1.00335e-06)
(0 -0 -9.92332e-07)
(0 -0 -9.82577e-07)
(0 -0 -9.71776e-07)
(0 -0 -9.62614e-07)
(0 -0 -9.50703e-07)
(0 -0 -9.45037e-07)
(0 -0 -9.30568e-07)
(0 -0 -9.33873e-07)
(0 -0 -9.08233e-07)
(0 -0 -9.32008e-07)
(0 -0 -8.7626e-07)
(0 -0 -9.45642e-07)
(0 -0 -8.23185e-07)
(0 -0 -9.85444e-07)
(0 -0 -7.37255e-07)
(0 -0 -1.06321e-06)
(0 -0 -6.23645e-07)
(0 -0 -1.1592e-06)
(0 -0 -5.07607e-07)
(0 -0 -1.26588e-06)
(0 -0 -1.17197e-07)
(0 -0 -2.91198e-06)
(0 -0 5.94878e-06)
(0 -0 -1.93116e-05)
(0 -0 3.49759e-05)
(0 -0 -3.87789e-05)
(0 -0 1.83817e-06)
(0 -0 1.23692e-06)
(0 -0 1.00658e-06)
(0 -0 7.21399e-07)
(0 -0 3.7274e-07)
(0 -0 4.3646e-08)
(0 -0 -2.36362e-07)
(0 -0 -4.60496e-07)
(0 -0 -6.3509e-07)
(0 -0 -7.70628e-07)
(0 -0 -8.75948e-07)
(0 -0 -9.57179e-07)
(0 -0 -1.0186e-06)
(0 -0 -1.06354e-06)
(0 -0 -1.09474e-06)
(0 -0 -1.11452e-06)
(0 -0 -1.12486e-06)
(0 -0 -1.12742e-06)
(0 -0 -1.12359e-06)
(0 -0 -1.11451e-06)
(0 -0 -1.10117e-06)
(0 -0 -1.08449e-06)
(0 -0 -1.06534e-06)
(0 -0 -1.04453e-06)
(0 -0 -1.02283e-06)
(0 -0 -1.00081e-06)
(0 -0 -9.78835e-07)
(0 -0 -9.56977e-07)
(0 -0 -9.35181e-07)
(0 -0 -9.13365e-07)
(0 -0 -8.91573e-07)
(0 -0 -8.70049e-07)
(0 -0 -8.49295e-07)
(0 -0 -8.29956e-07)
(0 -0 -8.12536e-07)
(0 -0 -7.9676e-07)
(0 -0 -7.81943e-07)
(0 -0 -7.67432e-07)
(0 -0 -7.53278e-07)
(0 -0 -7.39415e-07)
(0 -0 -7.26301e-07)
(0 -0 -7.13946e-07)
(0 -0 -7.02411e-07)
(0 -0 -6.91909e-07)
(0 -0 -6.82586e-07)
(0 -0 -6.73731e-07)
(0 -0 -6.66062e-07)
(0 -0 -6.57529e-07)
(0 -0 -6.50746e-07)
(0 -0 -6.41271e-07)
(0 -0 -6.37595e-07)
(0 -0 -6.25303e-07)
(0 -0 -6.30036e-07)
(0 -0 -6.0672e-07)
(0 -0 -6.30918e-07)
(0 -0 -5.78583e-07)
(0 -0 -6.46676e-07)
(0 -0 -5.30525e-07)
(0 -0 -6.87753e-07)
(0 -0 -4.51362e-07)
(0 -0 -7.64337e-07)
(0 -0 -3.46161e-07)
(0 -0 -8.56287e-07)
(0 -0 -2.43125e-07)
(0 -0 -9.52565e-07)
(0 -0 1.09972e-07)
(0 -0 -2.4946e-06)
(0 -0 5.83249e-06)
(0 -0 -1.80472e-05)
(0 -0 3.34874e-05)
(0 -0 -3.70389e-05)
(0 -0 2.96155e-06)
(0 -0 1.59187e-06)
(0 -0 1.35213e-06)
(0 -0 1.06074e-06)
(0 -0 7.1015e-07)
(0 -0 3.7927e-07)
(0 -0 9.7384e-08)
(0 -0 -1.28886e-07)
(0 -0 -3.05897e-07)
(0 -0 -4.4414e-07)
(0 -0 -5.52409e-07)
(0 -0 -6.36775e-07)
(0 -0 -7.01469e-07)
(0 -0 -7.49784e-07)
(0 -0 -7.8445e-07)
(0 -0 -8.07763e-07)
(0 -0 -8.21682e-07)
(0 -0 -8.27855e-07)
(0 -0 -8.27636e-07)
(0 -0 -8.2212e-07)
(0 -0 -8.12255e-07)
(0 -0 -7.98937e-07)
(0 -0 -7.83037e-07)
(0 -0 -7.65394e-07)
(0 -0 -7.46778e-07)
(0 -0 -7.27816e-07)
(0 -0 -7.08902e-07)
(0 -0 -6.90152e-07)
(0 -0 -6.71505e-07)
(0 -0 -6.52809e-07)
(0 -0 -6.34026e-07)
(0 -0 -6.15365e-07)
(0 -0 -5.97343e-07)
(0 -0 -5.80605e-07)
(0 -0 -5.65629e-07)
(0 -0 -5.52131e-07)
(0 -0 -5.39466e-07)
(0 -0 -5.26991e-07)
(0 -0 -5.14778e-07)
(0 -0 -5.02791e-07)
(0 -0 -4.91579e-07)
(0 -0 -4.81248e-07)
(0 -0 -4.71725e-07)
(0 -0 -4.63011e-07)
(0 -0 -4.55267e-07)
(0 -0 -4.47808e-07)
(0 -0 -4.41452e-07)
(0 -0 -4.34464e-07)
(0 -0 -4.29404e-07)
(0 -0 -4.2173e-07)
(0 -0 -4.19397e-07)
(0 -0 -4.08635e-07)
(0 -0 -4.14157e-07)
(0 -0 -3.92497e-07)
(0 -0 -4.1658e-07)
(0 -0 -3.67009e-07)
(0 -0 -4.3329e-07)
(0 -0 -3.22721e-07)
(0 -0 -4.74401e-07)
(0 -0 -2.49018e-07)
(0 -0 -5.48731e-07)
(0 -0 -1.50389e-07)
(0 -0 -6.35722e-07)
(0 -0 -5.73628e-08)
(0 -0 -7.2205e-07)
(0 -0 2.62314e-07)
(0 -0 -2.16116e-06)
(0 -0 5.64603e-06)
(0 -0 -1.68662e-05)
(0 -0 3.19334e-05)
(0 -0 -3.53591e-05)
(0 -0 3.91273e-06)
(0 -0 1.84928e-06)
(0 -0 1.60309e-06)
(0 -0 1.30348e-06)
(0 -0 9.49465e-07)
(0 -0 6.16531e-07)
(0 -0 3.32882e-07)
(0 -0 1.04789e-07)
(0 -0 -7.43745e-08)
(0 -0 -2.15048e-07)
(0 -0 -3.2592e-07)
(0 -0 -4.12952e-07)
(0 -0 -4.80286e-07)
(0 -0 -5.31202e-07)
(0 -0 -5.68504e-07)
(0 -0 -5.94604e-07)
(0 -0 -6.11501e-07)
(0 -0 -6.20784e-07)
(0 -0 -6.23651e-07)
(0 -0 -6.21064e-07)
(0 -0 -6.13899e-07)
(0 -0 -6.03083e-07)
(0 -0 -5.89597e-07)
(0 -0 -5.74385e-07)
(0 -0 -5.58266e-07)
(0 -0 -5.41805e-07)
(0 -0 -5.25343e-07)
(0 -0 -5.08947e-07)
(0 -0 -4.92595e-07)
(0 -0 -4.76174e-07)
(0 -0 -4.59672e-07)
(0 -0 -4.43319e-07)
(0 -0 -4.27519e-07)
(0 -0 -4.12822e-07)
(0 -0 -3.99584e-07)
(0 -0 -3.87533e-07)
(0 -0 -3.76241e-07)
(0 -0 -3.65162e-07)
(0 -0 -3.54385e-07)
(0 -0 -3.4383e-07)
(0 -0 -3.33985e-07)
(0 -0 -3.2501e-07)
(0 -0 -3.16817e-07)
(0 -0 -3.09264e-07)
(0 -0 -3.02636e-07)
(0 -0 -2.96173e-07)
(0 -0 -2.90763e-07)
(0 -0 -2.84837e-07)
(0 -0 -2.80841e-07)
(0 -0 -2.74388e-07)
(0 -0 -2.73002e-07)
(0 -0 -2.63318e-07)
(0 -0 -2.69189e-07)
(0 -0 -2.48854e-07)
(0 -0 -2.72099e-07)
(0 -0 -2.24914e-07)
(0 -0 -2.88964e-07)
(0 -0 -1.83687e-07)
(0 -0 -3.29854e-07)
(0 -0 -1.1436e-07)
(0 -0 -4.00942e-07)
(0 -0 -2.11024e-08)
(0 -0 -4.82868e-07)
(0 -0 6.39192e-08)
(0 -0 -5.59642e-07)
(0 -0 3.54355e-07)
(0 -0 -1.90024e-06)
(0 -0 5.41255e-06)
(0 -0 -1.57805e-05)
(0 -0 3.0366e-05)
(0 -0 -3.3753e-05)
(0 -0 4.69439e-06)
(0 -0 1.34161e-07)
(0 -0 -4.52061e-07)
(0 -0 3.98872e-07)
(0 -0 -1.70059e-06)
(0 -0 5.15042e-06)
(0 -0 -1.47932e-05)
(0 -0 2.88222e-05)
(0 -0 -3.22267e-05)
(0 -0 5.31463e-06)
(0 -0 -4.54612e-06)
(0 -0 -4.59145e-06)
(0 -0 -4.62485e-06)
(0 -0 -4.64806e-06)
(0 -0 -4.66236e-06)
(0 -0 -4.66846e-06)
(0 -0 -4.66716e-06)
(0 -0 -4.65916e-06)
(0 -0 -4.64511e-06)
(0 -0 -4.62561e-06)
(0 -0 -4.60119e-06)
(0 -0 -4.57233e-06)
(0 -0 -4.53952e-06)
(0 -0 -4.50322e-06)
(0 -0 -4.46385e-06)
(0 -0 -4.42176e-06)
(0 -0 -4.37723e-06)
(0 -0 -4.33047e-06)
(0 -0 -4.28171e-06)
(0 -0 -4.23118e-06)
(0 -0 -4.1792e-06)
(0 -0 -4.12613e-06)
(0 -0 -4.07226e-06)
(0 -0 -4.01775e-06)
(0 -0 -3.96266e-06)
(0 -0 -3.907e-06)
(0 -0 -3.85081e-06)
(0 -0 -3.79417e-06)
(0 -0 -3.73722e-06)
(0 -0 -3.68008e-06)
(0 -0 -3.62286e-06)
(0 -0 -3.56573e-06)
(0 -0 -3.50887e-06)
(0 -0 -3.45235e-06)
(0 -0 -3.39614e-06)