/*--------------------------------*- C++ -*----------------------------------*\
| =========                 |                                                 |
| \\      /  F ield         | OpenFOAM: The Open Source CFD Toolbox           |
|  \\    /   O peration     | Version:  2412                                  |
|   \\  /    A nd           | Website:  www.openfoam.com                      |
|    \\/     M anipulation  |                                                 |
\*---------------------------------------------------------------------------*/
FoamFile
{
    version     2.0;
    format      ascii;
    arch        "LSB;label=32;scalar=64";
    class       volVectorField;
    location    "24.5";
    object      U;
}
// * * * * * * * * * * * * * * * * * * * * * * * * * * * * * * * * * * * * * //

dimensions      [0 1 -1 0 0 0 0];

internalField   nonuniform List<vector> 
5285
(
(0.099033 -0.00144008 0)
(0.0990781 -0.00135513 0)
(0.0991227 -0.00127447 0)
(0.0991667 -0.00119787 0)
(0.09921 -0.00112513 0)
(0.0992524 -0.00105606 0)
(0.0992939 -0.000990505 0)
(0.0993344 -0.000928299 0)
(0.0993737 -0.000869295 0)
(0.0994119 -0.000813352 0)
(0.0994489 -0.000760338 0)
(0.0994847 -0.000710125 0)
(0.0995192 -0.000662596 0)
(0.0995525 -0.000617634 0)
(0.0995844 -0.000575133 0)
(0.0996151 -0.000534986 0)
(0.0996444 -0.000497092 0)
(0.0996725 -0.000461354 0)
(0.0996992 -0.000427679 0)
(0.0997247 -0.000395974 0)
(0.0997489 -0.000366153 0)
(0.0997719 -0.00033813 0)
(0.0997937 -0.000311824 0)
(0.0998143 -0.000287155 0)
(0.0998337 -0.000264047 0)
(0.099852 -0.000242427 0)
(0.0998691 -0.000222222 0)
(0.0998852 -0.000203365 0)
(0.0999003 -0.000185788 0)
(0.0999143 -0.000169428 0)
(0.0999274 -0.000154222 0)
(0.0990718 -0.0014594 0)
(0.0991142 -0.00137394 0)
(0.0991563 -0.00129272 0)
(0.099198 -0.00121551 0)
(0.0992391 -0.00114213 0)
(0.0992795 -0.0010724 0)
(0.0993191 -0.00100617 0)
(0.0993577 -0.00094327 0)
(0.0993954 -0.000883571 0)
(0.0994321 -0.000826936 0)
(0.0994676 -0.000773235 0)
(0.099502 -0.000722346 0)
(0.0995353 -0.000674151 0)
(0.0995674 -0.00062854 0)
(0.0995982 -0.000585405 0)
(0.0996278 -0.000544643 0)
(0.0996562 -0.000506154 0)
(0.0996833 -0.000469842 0)
(0.0997093 -0.000435613 0)
(0.099734 -0.000403378 0)
(0.0997575 -0.000373048 0)
(0.0997798 -0.00034454 0)
(0.0998009 -0.00031777 0)
(0.0998209 -0.000292661 0)
(0.0998397 -0.000269136 0)
(0.0998575 -0.000247119 0)
(0.0998742 -0.000226541 0)
(0.0998899 -0.000207332 0)
(0.0999045 -0.000189423 0)
(0.0999182 -0.000172752 0)
(0.0999309 -0.000157254 0)
(0.0999428 -0.00014287 0)
(0.0999538 -0.000129542 0)
(0.0999639 -0.000117214 0)
(0.0999733 -0.000105831 0)
(0.0999819 -9.53417e-05 0)
(0.0999898 -8.5696e-05 0)
(0.0999971 -7.68463e-05 0)
(0.100004 -6.8746e-05 0)
(0.10001 -6.13525e-05 0)
(0.100015 -5.4621e-05 0)
(0.10002 -4.85171e-05 0)
(0.100025 -4.29942e-05 0)
(0.100029 -3.80326e-05 0)
(0.100032 -3.3573e-05 0)
(0.100035 -2.9629e-05 0)
(0.100038 -2.61006e-05 0)
(0.100041 -2.30769e-05 0)
(0.100043 -2.03557e-05 0)
(0.100045 -1.81917e-05 0)
(0.100047 -1.61553e-05 0)
(0.100048 -1.48391e-05 0)
(0.100051 -1.33631e-05 0)
(0.10005 -1.29447e-05 0)
(0.100055 -1.19058e-05 0)
(0.100052 -1.24986e-05 0)
(0.100059 -1.18015e-05 0)
(0.100054 -1.35595e-05 0)
(0.100064 -1.32095e-05 0)
(0.100056 -1.62468e-05 0)
(0.10007 -1.65267e-05 0)
(0.100059 -2.06748e-05 0)
(0.100078 -2.26172e-05 0)
(0.100064 -2.67314e-05 0)
(0.10009 -3.31463e-05 0)
(0.100072 -3.43255e-05 0)
(0.100105 -4.88889e-05 0)
(0.100088 -4.78433e-05 0)
(0.100125 -6.44041e-05 0)
(0.100116 -7.23911e-05 0)
(0.100157 -9.01788e-05 0)
(0.0991107 -0.0014775 0)
(0.0991505 -0.00139165 0)
(0.0991901 -0.00130996 0)
(0.0992295 -0.00123223 0)
(0.0992684 -0.00115828 0)
(0.0993068 -0.00108796 0)
(0.0993445 -0.0010211 0)
(0.0993813 -0.000957577 0)
(0.0994174 -0.00089724 0)
(0.0994525 -0.000839963 0)
(0.0994865 -0.000785622 0)
(0.0995196 -0.000734098 0)
(0.0995516 -0.000685278 0)
(0.0995824 -0.000639052 0)
(0.0996122 -0.000595317 0)
(0.0996407 -0.00055397 0)
(0.0996681 -0.000514913 0)
(0.0996944 -0.000478052 0)
(0.0997194 -0.000443294 0)
(0.0997434 -0.00041055 0)
(0.0997661 -0.000379731 0)
(0.0997877 -0.000350755 0)
(0.0998082 -0.00032354 0)
(0.0998276 -0.000298006 0)
(0.0998459 -0.000274077 0)
(0.0998631 -0.000251678 0)
(0.0998793 -0.000230738 0)
(0.0998945 -0.000211187 0)
(0.0999088 -0.000192957 0)
(0.0999221 -0.000175984 0)
(0.0999345 -0.000160204 0)
(0.099946 -0.000145555 0)
(0.0999567 -0.00013198 0)
(0.0999665 -0.000119422 0)
(0.0999757 -0.000107826 0)
(0.099984 -9.71388e-05 0)
(0.0999917 -8.73106e-05 0)
(0.0999988 -7.82929e-05 0)
(0.100005 -7.00381e-05 0)
(0.100011 -6.25032e-05 0)
(0.100016 -5.56427e-05 0)
(0.100021 -4.94215e-05 0)
(0.100025 -4.37923e-05 0)
(0.100029 -3.87352e-05 0)
(0.100033 -3.41895e-05 0)
(0.100036 -3.01696e-05 0)
(0.100039 -2.65731e-05 0)
(0.100041 -2.34918e-05 0)
(0.100044 -2.07178e-05 0)
(0.100045 -1.85137e-05 0)
(0.100048 -1.64371e-05 0)
(0.100048 -1.50991e-05 0)
(0.100051 -1.35919e-05 0)
(0.10005 -1.31727e-05 0)
(0.100055 -1.21074e-05 0)
(0.100052 -1.27256e-05 0)
(0.100059 -1.20012e-05 0)
(0.100054 -1.38194e-05 0)
(0.100064 -1.34345e-05 0)
(0.100056 -1.65803e-05 0)
(0.10007 -1.68085e-05 0)
(0.100058 -2.11345e-05 0)
(0.100078 -2.29986e-05 0)
(0.100063 -2.73778e-05 0)
(0.10009 -3.37238e-05 0)
(0.100071 -3.51694e-05 0)
(0.100105 -4.99269e-05 0)
(0.100086 -4.88428e-05 0)
(0.100124 -6.61279e-05 0)
(0.100114 -7.40458e-05 0)
(0.100156 -9.26743e-05 0)
(0.0991497 -0.00149443 0)
(0.0991869 -0.00140826 0)
(0.0992241 -0.00132618 0)
(0.0992612 -0.00124801 0)
(0.099298 -0.00117358 0)
(0.0993343 -0.00110273 0)
(0.09937 -0.00103532 0)
(0.0994052 -0.000971225 0)
(0.0994395 -0.000910303 0)
(0.099473 -0.000852434 0)
(0.0995057 -0.000797498 0)
(0.0995373 -0.000745382 0)
(0.099568 -0.000695974 0)
(0.0995977 -0.00064917 0)
(0.0996263 -0.000604867 0)
(0.0996538 -0.000562965 0)
(0.0996802 -0.000523369 0)
(0.0997055 -0.000485985 0)
(0.0997297 -0.000450721 0)
(0.0997528 -0.000417488 0)
(0.0997749 -0.000386201 0)
(0.0997958 -0.000356776 0)
(0.0998156 -0.000329131 0)
(0.0998344 -0.000303188 0)
(0.0998521 -0.000278869 0)
(0.0998688 -0.000256101 0)
(0.0998845 -0.000234812 0)
(0.0998993 -0.00021493 0)
(0.0999131 -0.00019639 0)
(0.099926 -0.000179124 0)
(0.099938 -0.000163069 0)
(0.0999492 -0.000148164 0)
(0.0999596 -0.000134349 0)
(0.0999692 -0.000121567 0)
(0.099978 -0.000109764 0)
(0.0999862 -9.88847e-05 0)
(0.0999936 -8.8879e-05 0)
(0.1 -7.96978e-05 0)
(0.100007 -7.12927e-05 0)
(0.100012 -6.36202e-05 0)
(0.100018 -5.66341e-05 0)
(0.100022 -5.02988e-05 0)
(0.100026 -4.4566e-05 0)
(0.10003 -3.94159e-05 0)
(0.100034 -3.47864e-05 0)
(0.100036 -3.06927e-05 0)
(0.100039 -2.70298e-05 0)
(0.100041 -2.38924e-05 0)
(0.100044 -2.1067e-05 0)
(0.100045 -1.88241e-05 0)
(0.100048 -1.67082e-05 0)
(0.100048 -1.53494e-05 0)
(0.100051 -1.38116e-05 0)
(0.10005 -1.33923e-05 0)
(0.100055 -1.23005e-05 0)
(0.100052 -1.2945e-05 0)
(0.100059 -1.21925e-05 0)
(0.100054 -1.40719e-05 0)
(0.100063 -1.36502e-05 0)
(0.100055 -1.69066e-05 0)
(0.100069 -1.70783e-05 0)
(0.100058 -2.15884e-05 0)
(0.100078 -2.33612e-05 0)
(0.100062 -2.80244e-05 0)
(0.100089 -3.4269e-05 0)
(0.100069 -3.60194e-05 0)
(0.100105 -5.09364e-05 0)
(0.100084 -4.98107e-05 0)
(0.100123 -6.78742e-05 0)
(0.100113 -7.56571e-05 0)
(0.100154 -9.51546e-05 0)
(0.0991888 -0.00151018 0)
(0.0992234 -0.00142378 0)
(0.0992582 -0.00134141 0)
(0.099293 -0.00126287 0)
(0.0993276 -0.00118802 0)
(0.0993619 -0.00111672 0)
(0.0993958 -0.00104882 0)
(0.0994291 -0.00098421 0)
(0.0994618 -0.000922756 0)
(0.0994938 -0.000864344 0)
(0.0995249 -0.00080886 0)
(0.0995552 -0.000756192 0)
(0.0995846 -0.000706236 0)
(0.0996131 -0.000658889 0)
(0.0996405 -0.00061405 0)
(0.099667 -0.000571625 0)
(0.0996924 -0.000531517 0)
(0.0997168 -0.000493635 0)
(0.0997401 -0.000457888 0)
(0.0997624 -0.00042419 0)
(0.0997837 -0.000392455 0)
(0.0998039 -0.000362599 0)
(0.0998231 -0.000334542 0)
(0.0998412 -0.000308205 0)
(0.0998584 -0.000283511 0)
(0.0998746 -0.000260387 0)
(0.0998898 -0.00023876 0)
(0.0999041 -0.00021856 0)
(0.0999175 -0.000199718 0)
(0.09993 -0.000182169 0)
(0.0999416 -0.000165849 0)
(0.0999525 -0.000150695 0)
(0.0999625 -0.000136647 0)
(0.0999718 -0.000123649 0)
(0.0999804 -0.000111644 0)
(0.0999883 -0.000100579 0)
(0.0999956 -9.04009e-05 0)
(0.100002 -8.10607e-05 0)
(0.100008 -7.25096e-05 0)
(0.100014 -6.47034e-05 0)
(0.100019 -5.75951e-05 0)
(0.100023 -5.11487e-05 0)
(0.100027 -4.53152e-05 0)
(0.100031 -4.00746e-05 0)
(0.100034 -3.53636e-05 0)
(0.100037 -3.11981e-05 0)
(0.10004 -2.74705e-05 0)
(0.100042 -2.42788e-05 0)
(0.100044 -2.14033e-05 0)
(0.100045 -1.91228e-05 0)
(0.100048 -1.69686e-05 0)
(0.100048 -1.55898e-05 0)
(0.100051 -1.40219e-05 0)
(0.10005 -1.36034e-05 0)
(0.100055 -1.24851e-05 0)
(0.100052 -1.31565e-05 0)
(0.100058 -1.23753e-05 0)
(0.100053 -1.43169e-05 0)
(0.100063 -1.38565e-05 0)
(0.100055 -1.72255e-05 0)
(0.100069 -1.7336e-05 0)
(0.100057 -2.20362e-05 0)
(0.100077 -2.37045e-05 0)
(0.100061 -2.86713e-05 0)
(0.100089 -3.47806e-05 0)
(0.100068 -3.68763e-05 0)
(0.100104 -5.19154e-05 0)
(0.100082 -5.0745e-05 0)
(0.100122 -6.96449e-05 0)
(0.100111 -7.72215e-05 0)
(0.100152 -9.76157e-05 0)
(0.0992279 -0.00152477 0)
(0.09926 -0.00143823 0)
(0.0992924 -0.00135564 0)
(0.0993249 -0.00127682 0)
(0.0993574 -0.00120163 0)
(0.0993897 -0.00112993 0)
(0.0994217 -0.00106161 0)
(0.0994532 -0.000996535 0)
(0.0994843 -0.000934602 0)
(0.0995146 -0.000875695 0)
(0.0995443 -0.000819706 0)
(0.0995733 -0.000766529 0)
(0.0996014 -0.000716063 0)
(0.0996286 -0.000668208 0)
(0.0996549 -0.000622867 0)
(0.0996803 -0.000579947 0)
(0.0997047 -0.000539355 0)
(0.0997282 -0.000501001 0)
(0.0997506 -0.000464796 0)
(0.0997721 -0.000430653 0)
(0.0997926 -0.000398489 0)
(0.0998121 -0.000368221 0)
(0.0998306 -0.000339769 0)
(0.0998481 -0.000313054 0)
(0.0998647 -0.000288001 0)
(0.0998803 -0.000264534 0)
(0.0998951 -0.000242582 0)
(0.0999089 -0.000222074 0)
(0.0999218 -0.000202942 0)
(0.099934 -0.000185119 0)
(0.0999452 -0.000168542 0)
(0.0999557 -0.000153147 0)
(0.0999655 -0.000138875 0)
(0.0999745 -0.000125667 0)
(0.0999828 -0.000113467 0)
(0.0999904 -0.000102221 0)
(0.0999975 -9.18752e-05 0)
(0.100004 -8.23808e-05 0)
(0.10001 -7.3688e-05 0)
(0.100015 -6.57519e-05 0)
(0.10002 -5.8525e-05 0)
(0.100024 -5.19708e-05 0)
(0.100028 -4.60394e-05 0)
(0.100032 -4.07109e-05 0)
(0.100035 -3.59207e-05 0)
(0.100037 -3.16854e-05 0)
(0.10004 -2.78951e-05 0)
(0.100042 -2.46505e-05 0)
(0.100044 -2.17264e-05 0)
(0.100046 -1.94095e-05 0)
(0.100048 -1.72179e-05 0)
(0.100048 -1.58204e-05 0)
(0.100051 -1.42228e-05 0)
(0.10005 -1.3806e-05 0)
(0.100055 -1.26611e-05 0)
(0.100052 -1.33602e-05 0)
(0.100058 -1.25494e-05 0)
(0.100053 -1.45544e-05 0)
(0.100063 -1.40532e-05 0)
(0.100055 -1.75369e-05 0)
(0.100068 -1.75814e-05 0)
(0.100057 -2.2478e-05 0)
(0.100076 -2.40283e-05 0)
(0.10006 -2.93188e-05 0)
(0.100088 -3.52575e-05 0)
(0.100066 -3.77412e-05 0)
(0.100104 -5.28628e-05 0)
(0.10008 -5.16441e-05 0)
(0.100121 -7.14424e-05 0)
(0.10011 -7.87363e-05 0)
(0.10015 -0.000100054 0)
(0.099267 -0.00153822 0)
(0.0992966 -0.00145163 0)
(0.0993266 -0.00136889 0)
(0.0993569 -0.00128986 0)
(0.0993873 -0.00121439 0)
(0.0994176 -0.00114237 0)
(0.0994477 -0.00107367 0)
(0.0994775 -0.0010082 0)
(0.0995068 -0.00094584 0)
(0.0995357 -0.000886486 0)
(0.0995639 -0.000830037 0)
(0.0995914 -0.000776392 0)
(0.0996182 -0.000725453 0)
(0.0996442 -0.000677124 0)
(0.0996694 -0.000631314 0)
(0.0996937 -0.000587929 0)
(0.0997171 -0.000546881 0)
(0.0997396 -0.00050808 0)
(0.0997612 -0.00047144 0)
(0.0997819 -0.000436876 0)
(0.0998016 -0.000404304 0)
(0.0998203 -0.000373642 0)
(0.0998382 -0.000344812 0)
(0.0998551 -0.000317735 0)
(0.0998711 -0.000292336 0)
(0.0998862 -0.00026854 0)
(0.0999004 -0.000246275 0)
(0.0999137 -0.000225471 0)
(0.0999263 -0.000206059 0)
(0.099938 -0.000187973 0)
(0.0999489 -0.000171148 0)
(0.099959 -0.00015552 0)
(0.0999684 -0.00014103 0)
(0.0999771 -0.000127619 0)
(0.0999852 -0.000115231 0)
(0.0999926 -0.000103809 0)
(0.0999994 -9.33016e-05 0)
(0.100006 -8.36577e-05 0)
(0.100011 -7.48274e-05 0)
(0.100016 -6.67654e-05 0)
(0.100021 -5.94235e-05 0)
(0.100025 -5.27647e-05 0)
(0.100029 -4.67384e-05 0)
(0.100032 -4.13245e-05 0)
(0.100035 -3.64574e-05 0)
(0.100038 -3.21545e-05 0)
(0.100041 -2.83033e-05 0)
(0.100042 -2.50076e-05 0)
(0.100045 -2.20361e-05 0)
(0.100046 -1.96843e-05 0)
(0.100048 -1.74563e-05 0)
(0.100048 -1.60409e-05 0)
(0.100051 -1.44142e-05 0)
(0.10005 -1.39998e-05 0)
(0.100054 -1.28283e-05 0)
(0.100052 -1.3556e-05 0)
(0.100058 -1.27149e-05 0)
(0.100053 -1.47841e-05 0)
(0.100062 -1.42403e-05 0)
(0.100054 -1.78407e-05 0)
(0.100068 -1.78145e-05 0)
(0.100056 -2.29135e-05 0)
(0.100076 -2.43322e-05 0)
(0.100059 -2.99668e-05 0)
(0.100087 -3.56983e-05 0)
(0.100065 -3.86147e-05 0)
(0.100103 -5.37771e-05 0)
(0.100078 -5.25061e-05 0)
(0.10012 -7.32686e-05 0)
(0.100108 -8.01987e-05 0)
(0.100148 -0.000102465 0)
(0.099306 -0.00155055 0)
(0.0993331 -0.00146398 0)
(0.0993608 -0.00138118 0)
(0.0993889 -0.001302 0)
(0.0994172 -0.00122632 0)
(0.0994455 -0.00115403 0)
(0.0994738 -0.00108503 0)
(0.0995018 -0.00101921 0)
(0.0995295 -0.000956471 0)
(0.0995567 -0.000896717 0)
(0.0995835 -0.000839852 0)
(0.0996096 -0.000785778 0)
(0.0996351 -0.000734404 0)
(0.0996599 -0.000685638 0)
(0.099684 -0.000639389 0)
(0.0997072 -0.00059557 0)
(0.0997296 -0.000554093 0)
(0.0997512 -0.000514872 0)
(0.0997719 -0.00047782 0)
(0.0997917 -0.000442856 0)
(0.0998106 -0.000409896 0)
(0.0998286 -0.00037886 0)
(0.0998458 -0.000349669 0)
(0.0998621 -0.000322246 0)
(0.0998775 -0.000296516 0)
(0.099892 -0.000272404 0)
(0.0999057 -0.000249839 0)
(0.0999186 -0.00022875 0)
(0.0999307 -0.000209069 0)
(0.099942 -0.000190729 0)
(0.0999525 -0.000173665 0)
(0.0999623 -0.000157813 0)
(0.0999714 -0.000143113 0)
(0.0999798 -0.000129506 0)
(0.0999875 -0.000116934 0)
(0.0999947 -0.000105344 0)
(0.100001 -9.46794e-05 0)
(0.100007 -8.48909e-05 0)
(0.100013 -7.59276e-05 0)
(0.100018 -6.77436e-05 0)
(0.100022 -6.02902e-05 0)
(0.100026 -5.35301e-05 0)
(0.10003 -4.74118e-05 0)
(0.100033 -4.19153e-05 0)
(0.100036 -3.69737e-05 0)
(0.100038 -3.26052e-05 0)
(0.100041 -2.86949e-05 0)
(0.100043 -2.53498e-05 0)
(0.100045 -2.23325e-05 0)
(0.100046 -1.9947e-05 0)
(0.100048 -1.76835e-05 0)
(0.100048 -1.62513e-05 0)
(0.100051 -1.4596e-05 0)
(0.10005 -1.41848e-05 0)
(0.100054 -1.29868e-05 0)
(0.100051 -1.37438e-05 0)
(0.100058 -1.28716e-05 0)
(0.100052 -1.50061e-05 0)
(0.100062 -1.44176e-05 0)
(0.100054 -1.81368e-05 0)
(0.100067 -1.80351e-05 0)
(0.100055 -2.33426e-05 0)
(0.100075 -2.4616e-05 0)
(0.100058 -3.06155e-05 0)
(0.100087 -3.61023e-05 0)
(0.100063 -3.94976e-05 0)
(0.100103 -5.4657e-05 0)
(0.100076 -5.33294e-05 0)
(0.100119 -7.51254e-05 0)
(0.100106 -8.1606e-05 0)
(0.100146 -0.000104845 0)
(0.0993449 -0.00156177 0)
(0.0993696 -0.0014753 0)
(0.099395 -0.00139251 0)
(0.0994209 -0.00131325 0)
(0.0994471 -0.00123743 0)
(0.0994735 -0.00116494 0)
(0.0994999 -0.00109568 0)
(0.0995262 -0.00102956 0)
(0.0995522 -0.000966497 0)
(0.0995779 -0.000906389 0)
(0.0996032 -0.00084915 0)
(0.0996279 -0.000794688 0)
(0.0996521 -0.000742916 0)
(0.0996757 -0.000693746 0)
(0.0996986 -0.000647092 0)
(0.0997207 -0.000602869 0)
(0.0997421 -0.00056099 0)
(0.0997627 -0.000521373 0)
(0.0997825 -0.000483934 0)
(0.0998015 -0.000448592 0)
(0.0998197 -0.000415264 0)
(0.099837 -0.000383872 0)
(0.0998534 -0.000354338 0)
(0.0998691 -0.000326585 0)
(0.0998839 -0.000300538 0)
(0.0998979 -0.000276125 0)
(0.099911 -0.000253272 0)
(0.0999234 -0.00023191 0)
(0.0999351 -0.000211971 0)
(0.0999459 -0.000193386 0)
(0.0999561 -0.000176092 0)
(0.0999655 -0.000160024 0)
(0.0999743 -0.000145122 0)
(0.0999824 -0.000131326 0)
(0.0999899 -0.000118578 0)
(0.0999968 -0.000106824 0)
(0.100003 -9.60081e-05 0)
(0.100009 -8.60799e-05 0)
(0.100014 -7.6988e-05 0)
(0.100019 -6.86862e-05 0)
(0.100023 -6.11249e-05 0)
(0.100027 -5.42668e-05 0)
(0.100031 -4.80595e-05 0)
(0.100034 -4.2483e-05 0)
(0.100037 -3.74692e-05 0)
(0.100039 -3.30375e-05 0)
(0.100041 -2.90699e-05 0)
(0.100043 -2.56771e-05 0)
(0.100045 -2.26154e-05 0)
(0.100046 -2.01975e-05 0)
(0.100048 -1.78996e-05 0)
(0.100048 -1.64515e-05 0)
(0.100051 -1.47682e-05 0)
(0.10005 -1.43611e-05 0)
(0.100054 -1.31364e-05 0)
(0.100051 -1.39235e-05 0)
(0.100057 -1.30195e-05 0)
(0.100052 -1.52202e-05 0)
(0.100061 -1.45853e-05 0)
(0.100053 -1.8425e-05 0)
(0.100067 -1.82432e-05 0)
(0.100055 -2.3765e-05 0)
(0.100074 -2.48797e-05 0)
(0.100057 -3.12647e-05 0)
(0.100086 -3.64687e-05 0)
(0.100062 -4.03903e-05 0)
(0.100102 -5.55015e-05 0)
(0.100074 -5.41126e-05 0)
(0.100117 -7.7014e-05 0)
(0.100105 -8.2956e-05 0)
(0.100144 -0.00010719 0)
(0.0993837 -0.0015719 0)
(0.099406 -0.00148561 0)
(0.0994291 -0.00140289 0)
(0.0994529 -0.00132362 0)
(0.099477 -0.00124772 0)
(0.0995015 -0.00117508 0)
(0.099526 -0.00110562 0)
(0.0995506 -0.00103926 0)
(0.0995749 -0.00097592 0)
(0.0995991 -0.000915504 0)
(0.0996229 -0.000857933 0)
(0.0996463 -0.000803122 0)
(0.0996692 -0.000750989 0)
(0.0996915 -0.00070145 0)
(0.0997132 -0.000654422 0)
(0.0997343 -0.000609823 0)
(0.0997547 -0.000567571 0)
(0.0997743 -0.000527584 0)
(0.0997932 -0.000489781 0)
(0.0998114 -0.000454082 0)
(0.0998287 -0.000420406 0)
(0.0998453 -0.000388677 0)
(0.0998611 -0.000358817 0)
(0.0998761 -0.000330751 0)
(0.0998903 -0.000304403 0)
(0.0999037 -0.000279701 0)
(0.0999164 -0.000256574 0)
(0.0999283 -0.00023495 0)
(0.0999395 -0.000214763 0)
(0.0999499 -0.000195944 0)
(0.0999597 -0.000178429 0)
(0.0999688 -0.000162153 0)
(0.0999772 -0.000147056 0)
(0.099985 -0.000133078 0)
(0.0999922 -0.000120161 0)
(0.0999988 -0.000108249 0)
(0.100005 -9.72873e-05 0)
(0.10001 -8.72243e-05 0)
(0.100015 -7.80083e-05 0)
(0.10002 -6.95927e-05 0)
(0.100024 -6.19274e-05 0)
(0.100028 -5.49745e-05 0)
(0.100031 -4.86812e-05 0)
(0.100034 -4.30275e-05 0)
(0.100037 -3.7944e-05 0)
(0.100039 -3.3451e-05 0)
(0.100042 -2.94282e-05 0)
(0.100043 -2.59894e-05 0)
(0.100045 -2.28847e-05 0)
(0.100046 -2.04358e-05 0)
(0.100048 -1.81044e-05 0)
(0.100048 -1.66416e-05 0)
(0.100051 -1.49307e-05 0)
(0.10005 -1.45286e-05 0)
(0.100054 -1.32772e-05 0)
(0.100051 -1.40952e-05 0)
(0.100057 -1.31586e-05 0)
(0.100052 -1.54265e-05 0)
(0.100061 -1.47431e-05 0)
(0.100052 -1.87052e-05 0)
(0.100066 -1.84388e-05 0)
(0.100054 -2.41805e-05 0)
(0.100074 -2.51231e-05 0)
(0.100056 -3.19143e-05 0)
(0.100085 -3.6797e-05 0)
(0.10006 -4.12931e-05 0)
(0.100102 -5.63095e-05 0)
(0.100071 -5.48544e-05 0)
(0.100116 -7.89352e-05 0)
(0.100103 -8.42465e-05 0)
(0.100141 -0.000109496 0)
(0.0994223 -0.00158096 0)
(0.0994423 -0.00149491 0)
(0.0994632 -0.00141234 0)
(0.0994848 -0.00133313 0)
(0.0995069 -0.0012572 0)
(0.0995294 -0.00118447 0)
(0.0995521 -0.00111487 0)
(0.0995749 -0.00104832 0)
(0.0995977 -0.000984742 0)
(0.0996203 -0.000924062 0)
(0.0996426 -0.000866201 0)
(0.0996646 -0.000811081 0)
(0.0996862 -0.000758622 0)
(0.0997073 -0.000708747 0)
(0.0997279 -0.000661377 0)
(0.0997479 -0.000616432 0)
(0.0997672 -0.000573834 0)
(0.0997859 -0.000533502 0)
(0.0998039 -0.000495359 0)
(0.0998212 -0.000459325 0)
(0.0998378 -0.000425322 0)
(0.0998536 -0.000393275 0)
(0.0998687 -0.000363107 0)
(0.0998831 -0.000334742 0)
(0.0998967 -0.000308108 0)
(0.0999095 -0.000283132 0)
(0.0999217 -0.000259742 0)
(0.0999331 -0.000237869 0)
(0.0999438 -0.000217445 0)
(0.0999539 -0.000198401 0)
(0.0999632 -0.000180674 0)
(0.0999719 -0.0001642 0)
(0.09998 -0.000148916 0)
(0.0999875 -0.000134763 0)
(0.0999944 -0.000121683 0)
(0.100001 -0.000109619 0)
(0.100007 -9.85167e-05 0)
(0.100012 -8.83239e-05 0)
(0.100017 -7.89883e-05 0)
(0.100021 -7.0463e-05 0)
(0.100025 -6.26973e-05 0)
(0.100029 -5.56532e-05 0)
(0.100032 -4.92769e-05 0)
(0.100035 -4.35487e-05 0)
(0.100037 -3.83979e-05 0)
(0.10004 -3.38459e-05 0)
(0.100042 -2.97698e-05 0)
(0.100043 -2.62866e-05 0)
(0.100045 -2.31404e-05 0)
(0.100046 -2.06619e-05 0)
(0.100048 -1.82981e-05 0)
(0.100048 -1.68215e-05 0)
(0.100051 -1.50836e-05 0)
(0.100049 -1.46873e-05 0)
(0.100053 -1.34092e-05 0)
(0.10005 -1.42588e-05 0)
(0.100056 -1.32889e-05 0)
(0.100051 -1.56249e-05 0)
(0.10006 -1.48912e-05 0)
(0.100052 -1.89774e-05 0)
(0.100065 -1.8622e-05 0)
(0.100053 -2.4589e-05 0)
(0.100073 -2.53465e-05 0)
(0.100055 -3.25639e-05 0)
(0.100084 -3.70871e-05 0)
(0.100058 -4.22058e-05 0)
(0.100101 -5.70805e-05 0)
(0.100069 -5.55538e-05 0)
(0.100115 -8.0889e-05 0)
(0.100101 -8.54762e-05 0)
(0.100139 -0.000111759 0)
(0.0994607 -0.00158898 0)
(0.0994784 -0.00150324 0)
(0.0994971 -0.00142087 0)
(0.0995166 -0.00134177 0)
(0.0995367 -0.00126588 0)
(0.0995573 -0.00119312 0)
(0.0995782 -0.00112343 0)
(0.0995993 -0.00105673 0)
(0.0996204 -0.000992967 0)
(0.0996415 -0.000932067 0)
(0.0996624 -0.000873957 0)
(0.099683 -0.000818564 0)
(0.0997033 -0.000765817 0)
(0.0997232 -0.000715639 0)
(0.0997426 -0.000667958 0)
(0.0997615 -0.000622696 0)
(0.0997798 -0.000579778 0)
(0.0997975 -0.000539127 0)
(0.0998146 -0.000500667 0)
(0.0998311 -0.00046432 0)
(0.0998468 -0.000430011 0)
(0.0998619 -0.000397664 0)
(0.0998763 -0.000367205 0)
(0.09989 -0.000338559 0)
(0.099903 -0.000311653 0)
(0.0999153 -0.000286416 0)
(0.0999269 -0.000262777 0)
(0.0999379 -0.000240667 0)
(0.0999481 -0.000220016 0)
(0.0999577 -0.000200758 0)
(0.0999667 -0.000182829 0)
(0.0999751 -0.000166163 0)
(0.0999828 -0.0001507 0)
(0.09999 -0.000136379 0)
(0.0999966 -0.000123142 0)
(0.100003 -0.000110933 0)
(0.100008 -9.9696e-05 0)
(0.100013 -8.93783e-05 0)
(0.100018 -7.99278e-05 0)
(0.100022 -7.12969e-05 0)
(0.100026 -6.34347e-05 0)
(0.10003 -5.63026e-05 0)
(0.100033 -4.98465e-05 0)
(0.100035 -4.40465e-05 0)
(0.100038 -3.88309e-05 0)
(0.10004 -3.42221e-05 0)
(0.100042 -3.00946e-05 0)
(0.100043 -2.65689e-05 0)
(0.100045 -2.33827e-05 0)
(0.100046 -2.08758e-05 0)
(0.100048 -1.84805e-05 0)
(0.100048 -1.69913e-05 0)
(0.10005 -1.52269e-05 0)
(0.100049 -1.48372e-05 0)
(0.100053 -1.35324e-05 0)
(0.10005 -1.44145e-05 0)
(0.100056 -1.34104e-05 0)
(0.10005 -1.58155e-05 0)
(0.10006 -1.50296e-05 0)
(0.100051 -1.92416e-05 0)
(0.100065 -1.87928e-05 0)
(0.100052 -2.49902e-05 0)
(0.100072 -2.55499e-05 0)
(0.100054 -3.3213e-05 0)
(0.100084 -3.7339e-05 0)
(0.100056 -4.31279e-05 0)
(0.1001 -5.7814e-05 0)
(0.100067 -5.62101e-05 0)
(0.100113 -8.28747e-05 0)
(0.100099 -8.66438e-05 0)
(0.100136 -0.000113975 0)
(0.0994989 -0.00159596 0)
(0.0995143 -0.0015106 0)
(0.0995308 -0.0014285 0)
(0.0995482 -0.00134958 0)
(0.0995664 -0.00127377 0)
(0.0995851 -0.00120103 0)
(0.0996042 -0.00113129 0)
(0.0996236 -0.0010645 0)
(0.0996431 -0.0010006 0)
(0.0996626 -0.00093952 0)
(0.0996821 -0.0008812 0)
(0.0997013 -0.000825574 0)
(0.0997203 -0.000772572 0)
(0.099739 -0.000722126 0)
(0.0997572 -0.000674164 0)
(0.099775 -0.000628614 0)
(0.0997923 -0.000585403 0)
(0.0998091 -0.000544458 0)
(0.0998253 -0.000505704 0)
(0.0998409 -0.000469067 0)
(0.0998559 -0.000434471 0)
(0.0998702 -0.000401844 0)
(0.0998839 -0.00037111 0)
(0.0998969 -0.000342199 0)
(0.0999093 -0.000315037 0)
(0.0999211 -0.000289554 0)
(0.0999322 -0.000265678 0)
(0.0999426 -0.000243341 0)
(0.0999524 -0.000222475 0)
(0.0999616 -0.000203013 0)
(0.0999702 -0.000184891 0)
(0.0999782 -0.000168043 0)
(0.0999856 -0.000152408 0)
(0.0999925 -0.000137927 0)
(0.0999988 -0.000124541 0)
(0.100005 -0.000112192 0)
(0.10001 -0.000100825 0)
(0.100015 -9.03875e-05 0)
(0.100019 -8.08265e-05 0)
(0.100023 -7.20944e-05 0)
(0.100027 -6.41393e-05 0)
(0.10003 -5.69228e-05 0)
(0.100033 -5.03899e-05 0)
(0.100036 -4.45209e-05 0)
(0.100038 -3.92429e-05 0)
(0.10004 -3.45796e-05 0)
(0.100042 -3.04026e-05 0)
(0.100043 -2.68362e-05 0)
(0.100045 -2.36114e-05 0)
(0.100046 -2.10776e-05 0)
(0.100048 -1.86519e-05 0)
(0.100048 -1.71511e-05 0)
(0.10005 -1.53607e-05 0)
(0.100049 -1.49785e-05 0)
(0.100052 -1.3647e-05 0)
(0.100049 -1.45622e-05 0)
(0.100055 -1.35232e-05 0)
(0.10005 -1.59983e-05 0)
(0.100059 -1.51584e-05 0)
(0.10005 -1.94976e-05 0)
(0.100064 -1.89515e-05 0)
(0.100051 -2.53838e-05 0)
(0.100071 -2.57337e-05 0)
(0.100053 -3.3861e-05 0)
(0.100083 -3.75534e-05 0)
(0.100055 -4.40586e-05 0)
(0.100099 -5.85099e-05 0)
(0.100064 -5.6823e-05 0)
(0.100112 -8.48904e-05 0)
(0.100098 -8.77491e-05 0)
(0.100133 -0.000116142 0)
(0.0995368 -0.00160194 0)
(0.09955 -0.00151701 0)
(0.0995643 -0.00143523 0)
(0.0995797 -0.00135654 0)
(0.0995959 -0.00128088 0)
(0.0996128 -0.00120821 0)
(0.0996301 -0.00113848 0)
(0.0996478 -0.00107164 0)
(0.0996657 -0.00100764 0)
(0.0996837 -0.000946424 0)
(0.0997017 -0.000887935 0)
(0.0997196 -0.000832111 0)
(0.0997373 -0.00077889 0)
(0.0997547 -0.000728207 0)
(0.0997718 -0.000679995 0)
(0.0997885 -0.000634186 0)
(0.0998048 -0.00059071 0)
(0.0998206 -0.000549496 0)
(0.0998359 -0.000510471 0)
(0.0998507 -0.000473564 0)
(0.0998648 -0.000438702 0)
(0.0998784 -0.000405813 0)
(0.0998914 -0.000374823 0)
(0.0999038 -0.000345663 0)
(0.0999156 -0.000318259 0)
(0.0999268 -0.000292543 0)
(0.0999373 -0.000268444 0)
(0.0999473 -0.000245893 0)
(0.0999566 -0.000224823 0)
(0.0999654 -0.000205167 0)
(0.0999736 -0.00018686 0)
(0.0999812 -0.000169839 0)
(0.0999883 -0.000154041 0)
(0.0999948 -0.000139406 0)
(0.100001 -0.000125876 0)
(0.100006 -0.000113394 0)
(0.100012 -0.000101903 0)
(0.100016 -9.13513e-05 0)
(0.10002 -8.16846e-05 0)
(0.100024 -7.28553e-05 0)
(0.100028 -6.48113e-05 0)
(0.100031 -5.75138e-05 0)
(0.100034 -5.09071e-05 0)
(0.100036 -4.49719e-05 0)
(0.100038 -3.96342e-05 0)
(0.10004 -3.49186e-05 0)
(0.100042 -3.06941e-05 0)
(0.100043 -2.70887e-05 0)
(0.100045 -2.38268e-05 0)
(0.100046 -2.12674e-05 0)
(0.100047 -1.88124e-05 0)
(0.100047 -1.7301e-05 0)
(0.10005 -1.54851e-05 0)
(0.100048 -1.51113e-05 0)
(0.100052 -1.37529e-05 0)
(0.100049 -1.47021e-05 0)
(0.100055 -1.36274e-05 0)
(0.100049 -1.61733e-05 0)
(0.100058 -1.52776e-05 0)
(0.10005 -1.97454e-05 0)
(0.100063 -1.90981e-05 0)
(0.10005 -2.57696e-05 0)
(0.10007 -2.58984e-05 0)
(0.100052 -3.4507e-05 0)
(0.100082 -3.77311e-05 0)
(0.100053 -4.49964e-05 0)
(0.100099 -5.91685e-05 0)
(0.100062 -5.73926e-05 0)
(0.10011 -8.69334e-05 0)
(0.100096 -8.87921e-05 0)
(0.10013 -0.000118257 0)
(0.0995744 -0.00160693 0)
(0.0995854 -0.00152248 0)
(0.0995976 -0.00144109 0)
(0.099611 -0.00136268 0)
(0.0996253 -0.00128722 0)
(0.0996403 -0.00121467 0)
(0.0996559 -0.00114499 0)
(0.0996719 -0.00107815 0)
(0.0996882 -0.0010141 0)
(0.0997047 -0.000952783 0)
(0.0997213 -0.000894163 0)
(0.0997378 -0.000838178 0)
(0.0997542 -0.000784772 0)
(0.0997704 -0.000733884 0)
(0.0997864 -0.000685453 0)
(0.099802 -0.000639413 0)
(0.0998173 -0.000595697 0)
(0.0998321 -0.000554239 0)
(0.0998465 -0.000514967 0)
(0.0998604 -0.000477812 0)
(0.0998738 -0.000442704 0)
(0.0998866 -0.000409571 0)
(0.0998989 -0.000378343 0)
(0.0999106 -0.00034895 0)
(0.0999218 -0.00032132 0)
(0.0999324 -0.000295385 0)
(0.0999424 -0.000271075 0)
(0.0999519 -0.000248322 0)
(0.0999607 -0.000227058 0)
(0.0999691 -0.000207218 0)
(0.0999769 -0.000188737 0)
(0.0999841 -0.000171551 0)
(0.0999909 -0.000155597 0)
(0.0999971 -0.000140817 0)
(0.100003 -0.00012715 0)
(0.100008 -0.00011454 0)
(0.100013 -0.000102931 0)
(0.100017 -9.22696e-05 0)
(0.100021 -8.25019e-05 0)
(0.100025 -7.35797e-05 0)
(0.100028 -6.54506e-05 0)
(0.100031 -5.80755e-05 0)
(0.100034 -5.13983e-05 0)
(0.100036 -4.53998e-05 0)
(0.100038 -4.00047e-05 0)
(0.10004 -3.5239e-05 0)
(0.100042 -3.09691e-05 0)
(0.100043 -2.73264e-05 0)
(0.100045 -2.4029e-05 0)
(0.100045 -2.14454e-05 0)
(0.100047 -1.8962e-05 0)
(0.100047 -1.74411e-05 0)
(0.100049 -1.56003e-05 0)
(0.100048 -1.52356e-05 0)
(0.100051 -1.38504e-05 0)
(0.100048 -1.48343e-05 0)
(0.100054 -1.37232e-05 0)
(0.100048 -1.63406e-05 0)
(0.100057 -1.53875e-05 0)
(0.100049 -1.99852e-05 0)
(0.100062 -1.92329e-05 0)
(0.100049 -2.61473e-05 0)
(0.100069 -2.60446e-05 0)
(0.10005 -3.515e-05 0)
(0.10008 -3.78736e-05 0)
(0.100051 -4.59394e-05 0)
(0.100097 -5.97905e-05 0)
(0.100059 -5.79194e-05 0)
(0.100108 -8.89997e-05 0)
(0.100093 -8.97737e-05 0)
(0.100128 -0.000120318 0)
(0.0996116 -0.00161094 0)
(0.0996205 -0.00152705 0)
(0.0996307 -0.00144609 0)
(0.0996421 -0.00136802 0)
(0.0996545 -0.0012928 0)
(0.0996677 -0.00122042 0)
(0.0996815 -0.00115084 0)
(0.0996959 -0.00108403 0)
(0.0997106 -0.00101997 0)
(0.0997256 -0.000958601 0)
(0.0997407 -0.000899886 0)
(0.0997559 -0.000843776 0)
(0.099771 -0.000790219 0)
(0.099786 -0.000739159 0)
(0.0998008 -0.000690537 0)
(0.0998154 -0.000644294 0)
(0.0998296 -0.000600366 0)
(0.0998435 -0.000558687 0)
(0.099857 -0.000519192 0)
(0.09987 -0.000481811 0)
(0.0998826 -0.000446476 0)
(0.0998947 -0.000413119 0)
(0.0999063 -0.00038167 0)
(0.0999173 -0.000352059 0)
(0.0999279 -0.000324218 0)
(0.0999379 -0.000298078 0)
(0.0999474 -0.00027357 0)
(0.0999564 -0.000250627 0)
(0.0999648 -0.000229181 0)
(0.0999727 -0.000209168 0)
(0.0999801 -0.000190521 0)
(0.099987 -0.000173178 0)
(0.0999934 -0.000157077 0)
(0.0999993 -0.000142158 0)
(0.100005 -0.000128362 0)
(0.10001 -0.00011563 0)
(0.100014 -0.000103909 0)
(0.100019 -9.31427e-05 0)
(0.100022 -8.32785e-05 0)
(0.100026 -7.42677e-05 0)
(0.100029 -6.60574e-05 0)
(0.100032 -5.86082e-05 0)
(0.100034 -5.18636e-05 0)
(0.100037 -4.58045e-05 0)
(0.100039 -4.03546e-05 0)
(0.10004 -3.55412e-05 0)
(0.100042 -3.12277e-05 0)
(0.100043 -2.75496e-05 0)
(0.100044 -2.42181e-05 0)
(0.100045 -2.16117e-05 0)
(0.100047 -1.91009e-05 0)
(0.100046 -1.75716e-05 0)
(0.100048 -1.57064e-05 0)
(0.100047 -1.53517e-05 0)
(0.100051 -1.39396e-05 0)
(0.100048 -1.4959e-05 0)
(0.100053 -1.38106e-05 0)
(0.100048 -1.65005e-05 0)
(0.100056 -1.54881e-05 0)
(0.100048 -2.02168e-05 0)
(0.100061 -1.93563e-05 0)
(0.100048 -2.65166e-05 0)
(0.100068 -2.6173e-05 0)
(0.100049 -3.57887e-05 0)
(0.100079 -3.79828e-05 0)
(0.100049 -4.68852e-05 0)
(0.100096 -6.0377e-05 0)
(0.100057 -5.84043e-05 0)
(0.100106 -9.10841e-05 0)
(0.100091 -9.06953e-05 0)
(0.100124 -0.000122322 0)
(0.0996485 -0.00161401 0)
(0.0996553 -0.00153071 0)
(0.0996635 -0.00145024 0)
(0.0996729 -0.00137255 0)
(0.0996834 -0.00129763 0)
(0.0996948 -0.00122546 0)
(0.099707 -0.00115602 0)
(0.0997197 -0.0010893 0)
(0.0997329 -0.00102526 0)
(0.0997464 -0.000963879 0)
(0.0997601 -0.000905108 0)
(0.0997739 -0.000848908 0)
(0.0997877 -0.000795233 0)
(0.0998015 -0.000744031 0)
(0.0998152 -0.00069525 0)