/*--------------------------------*- C++ -*----------------------------------*\
| =========                 |                                                 |
| \\      /  F ield         | OpenFOAM: The Open Source CFD Toolbox           |
|  \\    /   O peration     | Version:  2412                                  |
|   \\  /    A nd           | Website:  www.openfoam.com                      |
|    \\/     M anipulation  |                                                 |
\*---------------------------------------------------------------------------*/
FoamFile
{
    version     2.0;
    format      ascii;
    arch        "LSB;label=32;scalar=64";
    class       volScalarField;
    location    "10";
    object      p;
}
// * * * * * * * * * * * * * * * * * * * * * * * * * * * * * * * * * * * * * //

dimensions      [0 2 -2 0 0 0 0];

internalField   nonuniform List<scalar> 
5285
(
-1.18241e-05
-1.11488e-05
-1.05046e-05
-9.88984e-06
-9.30336e-06
-8.74421e-06
-8.21133e-06
-7.70371e-06
-7.22039e-06
-6.76043e-06
-6.32293e-06
-5.90701e-06
-5.51185e-06
-5.13662e-06
-4.78055e-06
-4.44288e-06
-4.1229e-06
-3.81989e-06
-3.53317e-06
-3.26211e-06
-3.00605e-06
-2.76438e-06
-2.53652e-06
-2.32189e-06
-2.11992e-06
-1.93008e-06
-1.75183e-06
-1.58467e-06
-1.42808e-06
-1.28159e-06
-1.14471e-06
-1.01698e-06
-8.97967e-07
-7.87213e-07
-6.84308e-07
-5.88826e-07
-5.00373e-07
-4.18545e-07
-3.42966e-07
-2.73262e-07
-2.09071e-07
-1.50051e-07
-9.58458e-08
-4.617e-08
-5.88739e-10
4.09359e-08
7.93879e-08
1.13404e-07
1.47228e-07
1.71963e-07
2.086e-07
2.1217e-07
2.78585e-07
2.13078e-07
3.99178e-07
1.13409e-07
6.6687e-07
-2.09742e-07
1.22934e-06
-8.80615e-07
2.13194e-06
-1.74836e-06
2.93409e-06
-1.98922e-06
2.51059e-06
-3.99887e-07
1.17493e-07
2.76162e-06
-2.45788e-06
4.40972e-06
-1.3746e-06
-1.22872e-05
-1.15908e-05
-1.09262e-05
-1.02916e-05
-9.68594e-06
-9.1082e-06
-8.55732e-06
-8.03229e-06
-7.53212e-06
-7.05587e-06
-6.60263e-06
-6.17152e-06
-5.7617e-06
-5.37234e-06
-5.00268e-06
-4.65193e-06
-4.31939e-06
-4.00433e-06
-3.70607e-06
-3.42395e-06
-3.15733e-06
-2.90559e-06
-2.66813e-06
-2.44436e-06
-2.23371e-06
-2.03564e-06
-1.8496e-06
-1.67507e-06
-1.51153e-06
-1.35848e-06
-1.21544e-06
-1.08193e-06
-9.57493e-07
-8.41666e-07
-7.34023e-07
-6.34127e-07
-5.41564e-07
-4.55922e-07
-3.76808e-07
-3.0383e-07
-2.36619e-07
-1.7481e-07
-1.18044e-07
-6.60097e-08
-1.82662e-08
2.52327e-08
6.55146e-08
1.0115e-07
1.36571e-07
1.62515e-07
2.00786e-07
2.04769e-07
2.73702e-07
2.06452e-07
3.98322e-07
1.05134e-07
6.72628e-07
-2.23178e-07
1.2445e-06
-9.00605e-07
2.154e-06
-1.76733e-06
2.94969e-06
-1.99108e-06
2.5063e-06
-3.82075e-07
1.04992e-07
2.77488e-06
-2.45716e-06
4.40927e-06
-1.37623e-06
-1.2742e-05
-1.20251e-05
-1.13406e-05
-1.06867e-05
-1.00624e-05
-9.46652e-06
-8.89807e-06
-8.35602e-06
-7.83937e-06
-7.34717e-06
-6.8785e-06
-6.43249e-06
-6.00828e-06
-5.60505e-06
-5.22202e-06
-4.85841e-06
-4.5135e-06
-4.18657e-06
-3.87694e-06
-3.58393e-06
-3.3069e-06
-3.04522e-06
-2.79828e-06
-2.56549e-06
-2.34628e-06
-2.14008e-06
-1.94634e-06
-1.76453e-06
-1.59411e-06
-1.43459e-06
-1.28546e-06
-1.14622e-06
-1.01642e-06
-8.95575e-07
-7.83245e-07
-6.78979e-07
-5.82351e-07
-4.92933e-07
-4.10319e-07
-3.34102e-07
-2.639e-07
-1.99333e-07
-1.40028e-07
-8.56605e-08
-3.5775e-08
9.67999e-09
5.17699e-08
8.9014e-08
1.26011e-07
1.53157e-07
1.93041e-07
1.97437e-07
2.68868e-07
1.99868e-07
3.97498e-07
9.68643e-08
6.78438e-07
-2.36714e-07
1.25986e-06
-9.2103e-07
2.17675e-06
-1.78749e-06
2.96682e-06
-1.99493e-06
2.50363e-06
-3.65289e-07
9.13253e-08
2.79117e-06
-2.46287e-06
4.41574e-06
-1.3912e-06
-1.31883e-05
-1.24514e-05
-1.17477e-05
-1.10751e-05
-1.04326e-05
-9.81903e-06
-9.23345e-06
-8.67478e-06
-8.14202e-06
-7.63421e-06
-7.15044e-06
-6.68982e-06
-6.25149e-06
-5.83465e-06
-5.43848e-06
-5.06224e-06
-4.70517e-06
-4.36656e-06
-4.04572e-06
-3.74198e-06
-3.45469e-06
-3.18321e-06
-2.92693e-06
-2.68525e-06
-2.45758e-06
-2.24335e-06
-2.04201e-06
-1.853e-06
-1.6758e-06
-1.50988e-06
-1.35472e-06
-1.20983e-06
-1.07472e-06
-9.48917e-07
-8.31951e-07
-7.23365e-07
-6.22715e-07
-5.29562e-07
-4.43486e-07
-3.64064e-07
-2.90903e-07
-2.23606e-07
-1.61789e-07
-1.05113e-07
-5.31072e-08
-5.71696e-09
3.8163e-08
7.69991e-08
1.15555e-07
1.43893e-07
1.85368e-07
1.90182e-07
2.64062e-07
1.93376e-07
3.96623e-07
8.87589e-08
6.84041e-07
-2.49928e-07
1.27479e-06
-9.40976e-07
2.19897e-06
-1.80735e-06
2.9838e-06
-1.99913e-06
2.50128e-06
-3.48887e-07
7.6761e-08
2.80927e-06
-2.47311e-06
4.42718e-06
-1.41749e-06
-1.36258e-05
-1.28697e-05
-1.21473e-05
-1.14565e-05
-1.07963e-05
-1.01656e-05
-9.56334e-06
-8.98846e-06
-8.43996e-06
-7.9169e-06
-7.41835e-06
-6.94342e-06
-6.49126e-06
-6.06105e-06
-5.652e-06
-5.26333e-06
-4.89431e-06
-4.54422e-06
-4.21236e-06
-3.89805e-06
-3.60065e-06
-3.31952e-06
-3.05403e-06
-2.80357e-06
-2.56756e-06
-2.34542e-06
-2.13657e-06
-1.94046e-06
-1.75656e-06
-1.58431e-06
-1.4232e-06
-1.27273e-06
-1.13238e-06
-1.00167e-06
-8.80124e-07
-7.67266e-07
-6.6264e-07
-5.65795e-07
-4.76295e-07
-3.93704e-07
-3.17617e-07
-2.47621e-07
-1.83319e-07
-1.2436e-07
-7.02556e-08
-2.09513e-08
2.46994e-08
6.51106e-08
1.05207e-07
1.34728e-07
1.7777e-07
1.83011e-07
2.59284e-07
1.86982e-07
3.95689e-07
8.08377e-08
6.89408e-07
-2.62767e-07
1.28922e-06
-9.60328e-07
2.22051e-06
-1.8267e-06
3.00039e-06
-2.00341e-06
2.49902e-06
-3.32729e-07
6.13391e-08
2.82896e-06
-2.48742e-06
4.44312e-06
-1.45408e-06
-1.40545e-05
-1.32798e-05
-1.25392e-05
-1.18309e-05
-1.11535e-05
-1.05061e-05
-9.88762e-06
-9.29694e-06
-8.7331e-06
-8.19513e-06
-7.68213e-06
-7.1932e-06
-6.7275e-06
-6.28419e-06
-5.86249e-06
-5.46163e-06
-5.08087e-06
-4.71948e-06
-4.37678e-06
-4.05208e-06
-3.74473e-06
-3.45409e-06
-3.17952e-06
-2.92042e-06
-2.67619e-06
-2.44623e-06
-2.22998e-06
-2.02687e-06
-1.83635e-06
-1.65786e-06
-1.49088e-06
-1.33489e-06
-1.18937e-06
-1.05382e-06
-9.27742e-07
-8.10664e-07
-7.0211e-07
-6.01615e-07
-5.08732e-07
-4.2301e-07
-3.4403e-07
-2.71365e-07
-2.04608e-07
-1.43391e-07
-8.72133e-08
-3.60165e-08
1.13846e-08
5.33534e-08
9.49714e-08
1.25663e-07
1.70249e-07
1.75924e-07
2.5454e-07
1.80686e-07
3.94705e-07
7.30878e-08
6.94564e-07
-2.75267e-07
1.30319e-06
-9.79163e-07
2.24146e-06
-1.84564e-06
3.01669e-06
-2.00786e-06
2.49691e-06
-3.16826e-07
4.50718e-08
2.85023e-06
-2.50568e-06
4.46342e-06
-1.50013e-06
-1.44741e-05
-1.36814e-05
-1.29235e-05
-1.21981e-05
-1.15041e-05
-1.08405e-05
-1.02062e-05
-9.60013e-06
-9.02132e-06
-8.46882e-06
-7.9417e-06
-7.43908e-06
-6.96012e-06
-6.50398e-06
-6.06988e-06
-5.65706e-06
-5.26476e-06
-4.89229e-06
-4.53893e-06
-4.20402e-06
-3.88688e-06
-3.58687e-06
-3.30337e-06
-3.03575e-06
-2.78341e-06
-2.54576e-06
-2.32222e-06
-2.1122e-06
-1.91515e-06
-1.7305e-06
-1.55773e-06
-1.39629e-06
-1.24566e-06
-1.10533e-06
-9.74786e-07
-8.53542e-07
-7.41108e-07
-6.3701e-07
-5.40785e-07
-4.51969e-07
-3.70132e-07
-2.94831e-07
-2.25647e-07
-1.62199e-07
-1.03973e-07
-5.09061e-08
-1.77566e-09
4.17325e-08
8.48532e-08
1.16705e-07
1.6281e-07
1.68925e-07
2.49833e-07
1.74486e-07
3.93678e-07
6.55044e-08
6.9952e-07
-2.87445e-07
1.31673e-06
-9.97512e-07
2.26187e-06
-1.8642e-06
3.03273e-06
-2.01248e-06
2.49494e-06
-3.01173e-07
2.79977e-08
2.87299e-06
-2.52768e-06
4.48782e-06
-1.55469e-06
-1.48846e-05
-1.40746e-05
-1.32998e-05
-1.2558e-05
-1.18479e-05
-1.11686e-05
-1.05189e-05
-9.89792e-06
-9.30455e-06
-8.73787e-06
-8.19697e-06
-7.68098e-06
-7.18904e-06
-6.72034e-06
-6.2741e-06
-5.84954e-06
-5.44594e-06
-5.06258e-06
-4.69876e-06
-4.3538e-06
-4.02703e-06
-3.71782e-06
-3.42552e-06
-3.14952e-06
-2.8892e-06
-2.64397e-06
-2.41323e-06
-2.19641e-06
-1.99292e-06
-1.80221e-06
-1.62372e-06
-1.45691e-06
-1.30124e-06
-1.15619e-06
-1.02124e-06
-8.95882e-07
-7.79618e-07
-6.71963e-07
-5.7244e-07
-4.8057e-07
-3.95911e-07
-3.18007e-07
-2.46427e-07
-1.80777e-07
-1.20527e-07
-6.56139e-08
-1.47758e-08
3.02529e-08
7.48565e-08
1.07855e-07
1.55456e-07
1.62015e-07
2.45166e-07
1.68386e-07
3.92611e-07
5.80874e-08
7.04281e-07
-2.99303e-07
1.32986e-06
-1.01538e-06
2.28173e-06
-1.88239e-06
3.04849e-06
-2.01724e-06
2.49307e-06
-2.85744e-07
1.01677e-08
2.89712e-06
-2.55312e-06
4.51603e-06
-1.61674e-06
-1.52857e-05
-1.44592e-05
-1.36682e-05
-1.29105e-05
-1.21848e-05
-1.14903e-05
-1.08258e-05
-1.01902e-05
-9.58269e-06
-9.0022e-06
-8.44787e-06
-7.91881e-06
-7.41419e-06
-6.93321e-06
-6.47507e-06
-6.03903e-06
-5.62434e-06
-5.23029e-06
-4.8562e-06
-4.50137e-06
-4.16515e-06
-3.84688e-06
-3.54594e-06
-3.26168e-06
-2.99351e-06
-2.74082e-06
-2.503e-06
-2.27946e-06
-2.06964e-06
-1.87294e-06
-1.68882e-06
-1.51672e-06
-1.35608e-06
-1.20638e-06
-1.06708e-06
-9.37666e-07
-8.17625e-07
-7.06461e-07
-6.03683e-07
-5.088e-07
-4.21358e-07
-3.40885e-07
-2.6694e-07
-1.99116e-07
-1.3687e-07
-8.01338e-08
-2.76104e-08
1.89195e-08
6.49856e-08
9.91187e-08
1.48191e-07
1.55199e-07
2.4054e-07
1.62385e-07
3.91506e-07
5.08362e-08
7.08851e-07
-3.10845e-07
1.34257e-06
-1.03276e-06
2.30105e-06
-1.90018e-06
3.06395e-06
-2.02209e-06
2.49128e-06
-2.70518e-07
-8.36346e-09
2.9225e-06
-2.5817e-06
4.54771e-06
-1.68528e-06
-1.56774e-05
-1.4835e-05
-1.40285e-05
-1.32555e-05
-1.25148e-05
-1.18055e-05
-1.11266e-05
-1.0477e-05
-9.85565e-06
-9.26173e-06
-8.6943e-06
-8.1525e-06
-7.6355e-06
-7.14251e-06
-6.67274e-06
-6.22544e-06
-5.79989e-06
-5.39537e-06
-5.01119e-06
-4.64668e-06
-4.30117e-06
-3.97401e-06
-3.66456e-06
-3.3722e-06
-3.0963e-06
-2.83626e-06
-2.59147e-06
-2.36134e-06
-2.14527e-06
-1.94269e-06
-1.75302e-06
-1.57569e-06
-1.41016e-06
-1.25588e-06
-1.11229e-06
-9.78878e-07
-8.55113e-07
-7.40489e-07
-6.34503e-07
-5.36648e-07
-4.46461e-07
-3.63454e-07
-2.87178e-07
-2.17209e-07
-1.52993e-07
-9.44597e-08
-4.0274e-08
7.73691e-09
5.52447e-08
9.04987e-08
1.41017e-07
1.48477e-07
2.35961e-07
1.56485e-07
3.90366e-07
4.375e-08
7.13236e-07
-3.22073e-07
1.35487e-06
-1.04967e-06
2.31981e-06
-1.91757e-06
3.07908e-06
-2.027e-06
2.48953e-06
-2.55479e-07
-2.7538e-08
2.949e-06
-2.61314e-06
4.58255e-06
-1.75934e-06
-1.60597e-05
-1.5202e-05
-1.43805e-05
-1.35928e-05
-1.28377e-05
-1.21142e-05
-1.14213e-05
-1.0758e-05
-1.01234e-05
-9.51637e-06
-8.93619e-06
-8.38198e-06
-7.8529e-06
-7.34817e-06
-6.86703e-06
-6.40873e-06
-5.97253e-06
-5.55775e-06
-5.16369e-06
-4.78968e-06
-4.43505e-06
-4.09916e-06
-3.78136e-06
-3.48103e-06
-3.19754e-06
-2.93028e-06
-2.67863e-06
-2.442e-06
-2.21979e-06
-2.01141e-06
-1.81628e-06
-1.63381e-06
-1.46346e-06
-1.30466e-06
-1.15685e-06
-1.0195e-06
-8.92068e-07
-7.74034e-07
-6.64887e-07
-5.64102e-07
-4.7121e-07
-3.85705e-07
-3.07131e-07
-2.35049e-07
-1.68891e-07
-1.08586e-07
-5.27612e-08
-3.28991e-09
4.56381e-08
8.19991e-08
1.33939e-07
1.41854e-07
2.3143e-07
1.50689e-07
3.89196e-07
3.68277e-08
7.17441e-07
-3.32993e-07
1.36677e-06
-1.0661e-06
2.33804e-06
-1.93455e-06
3.09388e-06
-2.03194e-06
2.48779e-06
-2.40617e-07
-4.72953e-08
2.97649e-06
-2.64714e-06
4.62021e-06
-1.83801e-06
-1.64323e-05
-1.55601e-05
-1.47243e-05
-1.39225e-05
-1.31534e-05
-1.24163e-05
-1.17099e-05
-1.10334e-05
-1.03857e-05
-9.76606e-06
-9.17348e-06
-8.60717e-06
-8.06632e-06
-7.55014e-06
-7.05789e-06
-6.58882e-06
-6.14222e-06
-5.71739e-06
-5.31364e-06
-4.93032e-06
-4.56675e-06
-4.22228e-06
-3.89629e-06
-3.58813e-06
-3.29718e-06
-3.02282e-06
-2.76443e-06
-2.52141e-06
-2.29316e-06
-2.07908e-06
-1.87857e-06
-1.69106e-06
-1.51596e-06
-1.35271e-06
-1.20074e-06
-1.05952e-06
-9.28472e-07
-8.07081e-07
-6.94821e-07
-5.91152e-07
-4.95594e-07
-4.07629e-07
-3.26791e-07
-2.52626e-07
-1.84556e-07
-1.22506e-07
-6.50668e-08
-1.41563e-08
3.61702e-08
7.36233e-08
1.26959e-07
1.35331e-07
2.2695e-07
1.44995e-07
3.87999e-07
3.0068e-08
7.21472e-07
-3.43609e-07
1.37828e-06
-1.08207e-06
2.35574e-06
-1.95112e-06
3.10834e-06
-2.03689e-06
2.48605e-06
-2.25923e-07
-6.75726e-08
3.00486e-06
-2.68342e-06
4.6604e-06
-1.92042e-06
-1.67952e-05
-1.59092e-05
-1.50598e-05
-1.42444e-05
-1.3462e-05
-1.27116e-05
-1.19922e-05
-1.13029e-05
-1.06427e-05
-1.00107e-05
-9.4061e-06
-8.82802e-06
-8.27569e-06
-7.74835e-06
-7.24525e-06
-6.76566e-06
-6.30888e-06
-5.87422e-06
-5.46099e-06
-5.06854e-06
-4.69621e-06
-4.34334e-06
-4.0093e-06
-3.69346e-06
-3.39518e-06
-3.11385e-06
-2.84884e-06
-2.59955e-06
-2.36537e-06
-2.14567e-06
-1.93988e-06
-1.7474e-06
-1.56763e-06
-1.40001e-06
-1.24395e-06
-1.09891e-06
-9.64313e-07
-8.39617e-07
-7.24294e-07
-6.17785e-07
-5.19605e-07
-4.29217e-07
-3.46151e-07
-2.69936e-07
-1.99983e-07
-1.36214e-07
-7.71855e-08
-2.48575e-08
2.68449e-08
6.5375e-08
1.20081e-07
1.28911e-07
2.22524e-07
1.39407e-07
3.86777e-07
2.34699e-08
7.25333e-07
-3.53926e-07
1.3894e-06
-1.09758e-06
2.3729e-06
-1.96727e-06
3.12243e-06
-2.04182e-06
2.48429e-06
-2.11394e-07
-8.83058e-08
3.03397e-06
-2.7217e-06
4.70278e-06
-2.00581e-06
-1.71484e-05
-1.62493e-05
-1.53868e-05
-1.45585e-05
-1.37632e-05
-1.30002e-05
-1.22683e-05
-1.15666e-05
-1.08942e-05
-1.02503e-05
-9.63397e-06
-9.04445e-06
-8.48095e-06
-7.94273e-06
-7.42905e-06
-6.93919e-06
-6.47247e-06
-6.02819e-06
-5.60569e-06
-5.20431e-06
-4.82338e-06
-4.46228e-06
-4.12036e-06
-3.79698e-06
-3.49151e-06
-3.20335e-06
-2.93184e-06
-2.67639e-06
-2.43637e-06
-2.21116e-06
-2.00018e-06
-1.80281e-06
-1.61846e-06
-1.44654e-06
-1.28646e-06
-1.13767e-06
-9.99575e-07
-8.71629e-07
-7.53293e-07
-6.43992e-07
-5.43231e-07
-4.50459e-07
-3.65201e-07
-2.86969e-07
-2.15163e-07
-1.49704e-07
-8.91121e-08
-3.53889e-08
1.76666e-08
5.72577e-08
1.13308e-07
1.22596e-07
2.18155e-07
1.33924e-07
3.85534e-07
1.70321e-08
7.2903e-07
-3.63947e-07
1.40015e-06
-1.11263e-06
2.38954e-06
-1.983e-06
3.13615e-06
-2.04671e-06
2.48249e-06
-1.97026e-07
-1.0943e-07
3.06372e-06
-2.76171e-06
4.74707e-06
-2.09346e-06
-1.74919e-05
-1.65802e-05
-1.57054e-05
-1.48647e-05
-1.40572e-05
-1.32819e-05
-1.25379e-05
-1.18243e-05
-1.11402e-05
-1.04847e-05
-9.85704e-06
-9.25641e-06
-8.68205e-06
-8.13323e-06
-7.60923e-06
-7.10936e-06
-6.63293e-06
-6.17926e-06
-5.74769e-06
-5.33756e-06
-4.94824e-06
-4.57907e-06
-4.22942e-06
-3.89865e-06
-3.58614e-06
-3.29127e-06
-3.01338e-06
-2.75188e-06
-2.50614e-06
-2.27553e-06
-2.05945e-06
-1.85728e-06
-1.66843e-06
-1.49228e-06
-1.32825e-06
-1.17578e-06
-1.03424e-06
-9.03103e-07
-7.81807e-07
-6.6976e-07
-5.66462e-07
-4.71347e-07
-3.83934e-07
-3.03719e-07
-2.30092e-07
-1.62972e-07
-1.00842e-07
-4.57459e-08
8.63914e-09
4.92748e-08
1.06644e-07
1.16388e-07
2.13845e-07
1.28547e-07
3.84275e-07
1.07531e-08
7.32569e-07
-3.73678e-07
1.41053e-06
-1.12723e-06
2.40565e-06
-1.9983e-06
3.1495e-06
-2.05153e-06
2.48065e-06
-1.82821e-07
-1.3088e-07
3.09399e-06
-2.80317e-06
4.79297e-06
-2.18271e-06
-1.78254e-05
-1.69021e-05
-1.60154e-05
-1.5163e-05
-1.43437e-05
-1.35567e-05
-1.28012e-05
-1.20761e-05
-1.13806e-05
-1.07139e-05
-1.00753e-05
-9.46384e-06
-8.87892e-06
-8.31979e-06
-7.78575e-06
-7.27612e-06
-6.79021e-06
-6.32736e-06
-5.88693e-06
-5.46827e-06
-5.07072e-06
-4.69366e-06
-4.33644e-06
-3.99844e-06
-3.67903e-06
-3.37758e-06
-3.09345e-06
-2.82601e-06
-2.57466e-06
-2.33874e-06
-2.11766e-06
-1.91078e-06
-1.7175e-06
-1.53722e-06
-1.3693e-06
-1.21321e-06
-1.0683e-06
-9.34025e-07
-8.09823e-07
-6.95079e-07
-5.8929e-07
-4.91871e-07
-4.02342e-07
-3.20178e-07
-2.44762e-07
-1.7601e-07
-1.12369e-07
-5.59242e-08
-2.33343e-10
4.14296e-08
1.00091e-07
1.10291e-07
2.09598e-07
1.23278e-07
3.83001e-07
4.63155e-09
7.35954e-07
-3.83123e-07
1.42055e-06
-1.14139e-06
2.42125e-06
-2.01317e-06
3.16245e-06
-2.05627e-06
2.47874e-06
-1.68779e-07
-1.5259e-07
3.12466e-06
-2.84585e-06
4.8402e-06
-2.273e-06
-1.81492e-05
-1.72147e-05
-1.63169e-05
-1.54533e-05
-1.46228e-05
-1.38246e-05
-1.30579e-05
-1.23218e-05
-1.16154e-05
-1.09379e-05
-1.02886e-05
-9.66668e-06
-9.07152e-06
-8.50237e-06
-7.95856e-06
-7.43941e-06
-6.94426e-06
-6.47247e-06
-6.02339e-06
-5.59637e-06
-5.19079e-06
-4.80601e-06
-4.4414e-06
-4.09631e-06
-3.77014e-06
-3.46225e-06
-3.17199e-06
-2.89875e-06
-2.64189e-06
-2.40077e-06
-2.17479e-06
-1.96329e-06
-1.76568e-06
-1.58132e-06
-1.4096e-06
-1.24996e-06
-1.10174e-06
-9.64384e-07
-8.3733e-07
-7.19939e-07
-6.11704e-07
-5.12024e-07
-4.20417e-07
-3.36341e-07
-2.59168e-07
-1.88815e-07
-1.23689e-07
-6.59191e-08
-8.947e-09
3.37254e-08
9.36527e-08
1.04306e-07
2.05417e-07
1.18118e-07
3.81716e-07
-1.33397e-09
7.39192e-07
-3.92287e-07
1.43022e-06
-1.1551e-06
2.43633e-06
-2.02761e-06
3.17501e-06
-2.06091e-06
2.47676e-06
-1.54904e-07
-1.74495e-07
3.15561e-06
-2.88949e-06
4.88847e-06
-2.36379e-06
-1.8463e-05
-1.75181e-05
-1.66098e-05
-1.57356e-05
-1.48944e-05
-1.40855e-05
-1.33082e-05
-1.25614e-05
-1.18444e-05
-1.11565e-05
-1.04969e-05
-9.86489e-06
-9.25978e-06
-8.6809e-06
-8.12759e-06
-7.59918e-06
-7.09504e-06
-6.61452e-06
-6.157e-06
-5.72184e-06
-5.30841e-06
-4.91608e-06
-4.54423e-06
-4.19223e-06
-3.85944e-06
-3.54525e-06
-3.249e-06
-2.97006e-06
-2.70781e-06
-2.4616e-06
-2.23081e-06
-2.01479e-06
-1.81293e-06
-1.62459e-06
-1.44913e-06
-1.28601e-06
-1.13454e-06
-9.94166e-07
-8.64316e-07
-7.4433e-07
-6.33696e-07
-5.31796e-07
-4.38152e-07
-3.52199e-07
-2.73303e-07
-2.01379e-07
-1.34798e-07
-7.57265e-08
-1.74979e-08
2.61654e-08
8.7332e-08
9.84342e-08
2.01303e-07
1.13067e-07
3.80424e-07
-7.14497e-09
7.42288e-07
-4.01174e-07
1.43953e-06
-1.16838e-06
2.45091e-06
-2.04161e-06
3.18716e-06
-2.06543e-06
2.47472e-06
-1.41202e-07
-1.96532e-07
3.18675e-06
-2.93385e-06
4.93755e-06
-2.45461e-06
-1.87671e-05
-1.78123e-05
-1.68941e-05
-1.60099e-05
-1.51585e-05
-1.43395e-05
-1.35518e-05
-1.27949e-05
-1.20677e-05
-1.13698e-05
-1.07002e-05
-1.00584e-05
-9.44367e-06
-8.85535e-06
-8.2928e-06
-7.75539e-06
-7.24249e-06
-6.75347e-06
-6.28772e-06
-5.84462e-06
-5.42353e-06
-5.02383e-06
-4.64492e-06
-4.28615e-06
-3.9469e-06
-3.62654e-06
-3.32443e-06
-3.03993e-06
-2.7724e-06
-2.52121e-06
-2.28572e-06
-2.06525e-06
-1.85923e-06
-1.66699e-06
-1.48787e-06
-1.32134e-06
-1.1667e-06
-1.02336e-06
-8.90771e-07
-7.68241e-07
-6.55255e-07
-5.51178e-07
-4.55538e-07
-3.67746e-07
-2.8716e-07
-2.13698e-07
-1.4569e-07
-8.53419e-08
-2.58822e-08
1.8752e-08
8.11322e-08
9.26792e-08
1.9726e-07
1.08126e-07
3.79129e-07
-1.28031e-08
7.45247e-07
-4.09789e-07
1.44852e-06
-1.18124e-06
2.46499e-06
-2.05518e-06
3.19891e-06
-2.06982e-06
2.47259e-06
-1.2768e-07
-2.18636e-07
3.21797e-06
-2.97873e-06
4.98717e-06
-2.54504e-06
-1.90612e-05
-1.80974e-05
-1.71699e-05
-1.62761e-05
-1.54151e-05
-1.45863e-05
-1.37889e-05
-1.30222e-05
-1.22853e-05
-1.15776e-05
-1.08985e-05
-1.02472e-05
-9.62314e-06
-9.02565e-06
-8.45415e-06
-7.90799e-06
-7.38658e-06
-6.88928e-06
-6.41552e-06
-5.96468e-06
-5.53612e-06
-5.12923e-06
-4.74343e-06
-4.37805e-06
-4.03248e-06
-3.7061e-06
-3.39826e-06
-3.10832e-06
-2.83563e-06
-2.57956e-06
-2.33947e-06
-2.11467e-06
-1.90457e-06
-1.70851e-06
-1.52581e-06
-1.35594e-06
-1.19819e-06
-1.05195e-06
-9.16682e-07
-7.91663e-07
-6.76375e-07
-5.70163e-07
-4.7257e-07
-3.82975e-07
-3.00734e-07
-2.25767e-07
-1.56361e-07
-9.4761e-08
-3.4096e-08
1.14887e-08
7.50564e-08
8.70425e-08
1.93291e-07
1.03295e-07
3.77834e-07
-1.83103e-08
7.48073e-07
-4.18137e-07
1.45717e-06
-1.19367e-06
2.47857e-06
-2.0683e-06
3.21025e-06
-2.07406e-06
2.47037e-06
-1.14342e-07
-2.40746e-07
3.24916e-06
-3.0239e-06
5.0371e-06
-2.63471e-06
3.22116e-06
-2.07815e-06
2.46808e-06
-1.01199e-07
-2.628e-07
3.28024e-06
-3.06917e-06
5.08711e-06
-2.72325e-06
2.64006e-05
2.51328e-05
2.39036e-05
2.27132e-05
2.15617e-05
2.04489e-05
1.93746e-05
1.83386e-05
1.73407e-05
1.63805e-05
1.54577e-05
1.45718e-05
1.37224e-05
1.29088e-05
1.21305e-05
1.13869e-05
1.06774e-05
1.00012e-05
9.35752e-06
8.74568e-06
8.16486e-06
7.61421e-06
7.0929e-06
6.60005e-06
6.13476e-06
5.69613e-06
5.28324e-06
4.89517e-06
4.53098e-06
4.18972e-06
3.87046e-06
3.57226e-06
3.29417e-06
3.03528e-06
2.79464e-06
2.57135e-06
2.3645e-06
2.1732e-06
1.99657e-06
1.83376e-06
1.68392e-06
1.54623e-06
1.41987e-06
1.30405e-06
1.19802e-06
1.10099e-06
1.01226e-06
9.31078e-07
8.56744e-07
7.8854e-07
7.25766e-07
6.67717e-07
6.13636e-07
5.62877e-07
5.14262e-07
4.68234e-07
4.19386e-07
3.8095e-07
3.08096e-07
3.22236e-07
1.0139e-07
3.95675e-07
-3.61044e-07
5.69485e-07
-5.56106e-07
-7.52284e-07
1.44084e-06
-3.2135e-06
-1.28523e-06
7.15777e-07
2.63062e-05
2.50429e-05
2.38183e-05
2.26323e-05
2.14851e-05
2.03764e-05
1.93061e-05
1.82739e-05
1.72797e-05
1.63231e-05
1.54037e-05
1.45211e-05
1.36748e-05
1.28642e-05
1.20888e-05
1.13479e-05
1.0641e-05
9.96724e-06
9.32594e-06
8.71633e-06
8.1376e-06
7.58895e-06
7.06951e-06
6.57842e-06
6.11479e-06
5.67772e-06
5.2663e-06
4.8796e-06
4.51668e-06
4.17663e-06
3.85848e-06
3.56132e-06
3.2842e-06
3.0262e-06
2.7864e-06
2.56387e-06
2.35773e-06
2.16709e-06
1.99107e-06
1.82882e-06
1.67949e-06
1.54226e-06
1.41633e-06
1.30091e-06
1.19523e-06
1.09854e-06
1.0101e-06
9.29197e-07
8.55116e-07
7.87145e-07
7.24586e-07
6.66738e-07
6.12845e-07
5.62273e-07
5.13813e-07
4.68029e-07
4.19156e-07
3.81522e-07
3.07237e-07
3.25776e-07
9.57398e-08
4.10173e-07
-3.81286e-07
6.04096e-07
-5.80975e-07
-7.38905e-07
1.47057e-06
-3.27268e-06
-1.1453e-06
7.25576e-07
2.6123e-05
2.48688e-05
2.36529e-05
2.24755e-05
2.13365e-05
2.02357e-05
1.91731e-05
1.81485e-05
1.71614e-05
1.62117e-05
1.5299e-05
1.44227e-05
1.35825e-05
1.27777e-05
1.20079e-05
1.12723e-05
1.05704e-05
9.90145e-06
9.2647e-06
8.6594e-06
8.08475e-06
7.53994e-06
7.02414e-06
6.53647e-06
6.07606e-06
5.64202e-06
5.23343e-06
4.84939e-06
4.48896e-06
4.15123e-06
3.83525e-06
3.5401e-06
3.26485e-06
3.00859e-06
2.7704e-06
2.54937e-06
2.34461e-06
2.15524e-06
1.98039e-06
1.81922e-06
1.67088e-06
1.53456e-06
1.40946e-06
1.2948e-06
1.18982e-06
1.09377e-06
1.00592e-06
9.25545e-07
8.51955e-07
7.84435e-07
7.22294e-07
6.64836e-07
6.11308e-07
5.61095e-07
5.12951e-07
4.67594e-07
4.18824e-07
3.82271e-07
3.06596e-07
3.29917e-07
9.14036e-08
4.2339e-07
-3.92965e-07
6.24802e-07
-5.8598e-07
-7.19443e-07
1.46367e-06
-3.20221e-06
-1.01574e-06
6.63172e-07
2.5857e-05
2.46158e-05
2.34127e-05
2.22477e-05
2.11207e-05
2.00316e-05
1.89802e-05
1.79663e-05
1.69897e-05
1.60501e-05
1.51469e-05
1.42799e-05
1.34485e-05
1.26522e-05
1.18904e-05
1.11626e-05
1.0468e-05
9.80597e-06
9.17581e-06
8.57676e-06
8.00803e-06
7.46882e-06
6.95828e-06
6.47558e-06
6.01985e-06
5.5902e-06
5.18573e-06
4.80554e-06
4.44872e-06
4.11435e-06
3.80152e-06
3.50929e-06
3.23677e-06
2.98303e-06
2.74718e-06
2.52831e-06
2.32556e-06
2.13803e-06
1.96489e-06
1.80527e-06
1.65837e-06
1.52337e-06
1.39948e-06
1.28593e-06
1.18197e-06
1.08684e-06
9.99838e-07
9.2024e-07
8.47362e-07
7.80498e-07
7.18964e-07
6.62073e-07
6.09074e-07
5.59381e-07
5.11699e-07
4.66953e-07
4.18367e-07
3.83273e-07
3.05904e-07
3.35301e-07
8.65134e-08
4.3983e-07
-4.05787e-07
6.50847e-07
-5.89836e-07
-6.91868e-07
1.45699e-06
-3.12315e-06
-8.62261e-07
5.84183e-07
2.55138e-05
2.42896e-05
2.3103e-05
2.19539e-05
2.08424e-05
1.97683e-05
1.87314e-05
1.77315e-05
1.67684e-05
1.58416e-05
1.49509e-05
1.40958e-05
1.32758e-05
1.24904e-05
1.1739e-05
1.10211e-05
1.03359e-05
9.68289e-06
9.06124e-06
8.47025e-06
7.90914e-06
7.37713e-06
6.87339e-06
6.3971e-06
5.94739e-06
5.52339e-06
5.12423e-06
4.74901e-06
4.39684e-06
4.06682e-06
3.75803e-06
3.46958e-06
3.20056e-06
2.95007e-06
2.71724e-06
2.50117e-06
2.30099e-06
2.11584e-06
1.94489e-06
1.7873e-06
1.64225e-06
1.50895e-06
1.38662e-06
1.2745e-06
1.17184e-06
1.0779e-06
9.91996e-07
9.13399e-07
8.41439e-07
7.75421e-07
7.14669e-07
6.58508e-07
6.06193e-07
5.57172e-07
5.10083e-07
4.66126e-07
4.17777e-07
3.84544e-07
3.05059e-07
3.42068e-07
8.05398e-08
4.60438e-07
-4.22017e-07
6.85492e-07
-5.98103e-07
-6.54053e-07
1.45653e-06
-3.05275e-06
-6.75762e-07
4.98673e-07
2.50993e-05
2.38956e-05
2.27288e-05
2.15991e-05
2.05064e-05
1.94504e-05
1.8431e-05
1.7448e-05
1.65011e-05
1.559e-05
1.47143e-05
1.38735e-05
1.30673e-05
1.22951e-05
1.15563e-05
1.08503e-05
1.01765e-05
9.5343e-06
8.92291e-06
8.34165e-06
7.78975e-06
7.26643e-06
6.7709e-06
6.30233e-06
5.85989e-06
5.44273e-06
5.04997e-06
4.68076e-06
4.3342e-06
4.00941e-06
3.70552e-06
3.42162e-06
3.15683e-06
2.91028e-06
2.68108e-06
2.46838e-06
2.27132e-06
2.08905e-06
1.92074e-06
1.76559e-06
1.62278e-06
1.49154e-06
1.37109e-06
1.26069e-06
1.1596e-06
1.06711e-06
9.82525e-07
9.05136e-07
8.34285e-07
7.69288e-07
7.0948e-07
6.54202e-07
6.0271e-07
5.54502e-07
5.08125e-07
4.65127e-07
4.17044e-07
3.86083e-07
3.04016e-07
3.50165e-07
7.34808e-08
4.84826e-07
-4.41166e-07
7.27148e-07
-6.09714e-07
-6.07874e-07
1.45992e-06
-2.9881e-06
-4.61158e-07
4.00441e-07
2.46189e-05
2.3439e-05
2.22954e-05
2.11881e-05
2.01171e-05
1.90821e-05
1.8083e-05
1.71196e-05
1.61915e-05
1.52985e-05
1.44402e-05
1.36162e-05
1.28259e-05
1.20689e-05
1.13446e-05
1.06525e-05
9.99193e-06
9.36223e-06
8.76274e-06
8.19274e-06
7.6515e-06
7.13825e-06
6.65221e-06
6.19259e-06
5.75857e-06
5.34931e-06
4.96397e-06
4.60171e-06
4.26165e-06
3.94293e-06
3.64469e-06
3.36607e-06
3.10618e-06
2.86418e-06
2.6392e-06
2.4304e-06
2.23695e-06
2.05801e-06
1.89277e-06
1.74044e-06
1.60022e-06
1.47136e-06
1.35309e-06
1.24469e-06
1.14543e-06
1.05461e-06
9.71552e-07
8.95563e-07
8.25996e-07
7.62182e-07
7.03467e-07
6.49211e-07
5.98671e-07
5.51406e-07
5.05846e-07
4.63974e-07
4.16158e-07
3.87899e-07
3.02707e-07
3.59582e-07
6.52454e-08
5.12777e-07
-4.63041e-07
7.74757e-07
-6.23762e-07
-5.55733e-07
1.46718e-06
-2.92907e-06
-2.25121e-07
2.86729e-07
2.40781e-05
2.29251e-05
2.18075e-05
2.07255e-05
1.9679e-05
1.86677e-05
1.76915e-05
1.67501e-05
1.58433e-05
1.49707e-05
1.41319e-05
1.33266e-05
1.25543e-05
1.18145e-05
1.11066e-05
1.043e-05
9.7843e-06
9.1687e-06
8.58258e-06
8.02524e-06
7.49598e-06
6.99406e-06
6.51871e-06
6.06915e-06
5.64459e-06
5.24422e-06
4.86723e-06
4.51278e-06
4.18002e-06
3.86814e-06
3.57626e-06
3.30356e-06
3.04919e-06
2.81231e-06
2.59207e-06
2.38767e-06
2.19827e-06
2.02308e-06
1.86129e-06
1.71214e-06
1.57484e-06
1.44865e-06
1.33284e-06
1.22668e-06
1.12948e-06
1.04054e-06
9.592e-07
8.84787e-07
8.16666e-07
7.54182e-07
6.96697e-07
6.4359e-07
5.94121e-07
5.4792e-07
5.03264e-07
4.62684e-07
4.151e-07
3.90006e-07
3.01045e-07
3.70349e-07
5.56675e-08
5.44224e-07
-4.87729e-07
8.27796e-07
-6.4007e-07
-4.99163e-07
1.47885e-06
-2.87778e-06
2.7862e-08
1.58174e-07
2.34822e-05
2.23588e-05
2.127e-05
2.0216e-05
1.91965e-05
1.82113e-05
1.72603e-05
1.63432e-05
1.54598e-05
1.46097e-05
1.37925e-05
1.30079e-05
1.22553e-05
1.15344e-05
1.08445e-05
1.01851e-05
9.55572e-06
8.95564e-06
8.38423e-06
7.84084e-06
7.32477e-06
6.83531e-06
6.37171e-06
5.93323e-06
5.51909e-06
5.12851e-06
4.7607e-06
4.41485e-06
4.09014e-06
3.78577e-06
3.5009e-06
3.23473e-06
2.98642e-06
2.75517e-06
2.54017e-06
2.3406e-06
2.15567e-06
1.9846e-06
1.82662e-06
1.68096e-06
1.54687e-06
1.42363e-06
1.31052e-06
1.20684e-06
1.1119e-06
1.02503e-06
9.45592e-07
8.72914e-07
8.06384e-07
7.45365e-07
6.89234e-07
6.37394e-07
5.89099e-07
5.44075e-07
5.00397e-07
4.61277e-07
4.13848e-07
3.92429e-07
2.98932e-07
3.8252e-07
4.4553e-08
5.79148e-07
-5.15363e-07
8.85816e-07
-6.58545e-07
-4.39362e-07
1.49503e-06
-2.83582e-06
2.94511e-07
1.59314e-08
2.28363e-05
2.17451e-05
2.06876e-05
1.96639e-05
1.86737e-05
1.77169e-05
1.67933e-05
1.59025e-05
1.50445e-05
1.42187e-05
1.34249e-05
1.26627e-05
1.19316e-05
1.12311e-05
1.05607e-05
9.91993e-06
9.30821e-06
8.72492e-06
8.16945e-06
7.64116e-06
7.13937e-06
6.66339e-06
6.21252e-06
5.78603e-06
5.38317e-06
5.00319e-06
4.64531e-06
4.30877e-06
3.99278e-06
3.69654e-06
3.41926e-06
3.16016e-06
2.91843e-06
2.69328e-06
2.48393e-06
2.2896e-06
2.10951e-06
1.94291e-06
1.78904e-06
1.64717e-06
1.51657e-06
1.39652e-06
1.28634e-06
1.18534e-06
1.09286e-06
1.00823e-06
9.30842e-07
8.60044e-07
7.95239e-07
7.35807e-07
6.81142e-07
6.30675e-07
5.83647e-07
5.39905e-07
4.9726e-07
4.59774e-07
4.12378e-07
3.95202e-07
2.96259e-07
3.96166e-07
3.16904e-08
6.17552e-07
-5.46072e-07
9.48371e-07
-6.79032e-07
-3.77488e-07
1.51566e-06
-2.80406e-06
5.71862e-07
-1.38935e-07
2.21453e-05
2.10887e-05
2.00647e-05
1.90735e-05
1.81148e-05
1.71883e-05
1.6294e-05
1.54315e-05
1.46006e-05
1.38009e-05
1.30321e-05
1.22938e-05
1.15855e-05
1.09069e-05
1.02574e-05
9.63652e-06
9.04369e-06
8.47835e-06
7.93991e-06
7.42775e-06
6.94121e-06
6.47965e-06
6.04238e-06
5.62869e-06
5.23788e-06
4.86922e-06
4.52197e-06
4.19538e-06
3.88869e-06
3.60115e-06
3.33198e-06
3.08043e-06
2.84572e-06
2.6271e-06
2.4238e-06
2.23506e-06
2.06015e-06
1.89833e-06
1.74886e-06
1.61104e-06
1.48416e-06
1.36753e-06
1.26048e-06
1.16234e-06
1.07248e-06
9.90257e-07
9.15064e-07
8.46276e-07
7.83314e-07
7.2558e-07
6.7248e-07
6.23481e-07
5.77803e-07
5.35442e-07
4.93866e-07
4.58198e-07
4.10659e-07
3.98364e-07
2.92907e-07
4.11377e-07
1.68576e-08
6.59456e-07
-5.79982e-07
1.01503e-06
-7.01341e-07
-3.14626e-07
1.54073e-06
-2.78291e-06
8.57139e-07
-3.05279e-07
2.1414e-05
2.0394e-05
1.94057e-05
1.84489e-05
1.75235e-05
1.66293e-05
1.57659e-05
1.49333e-05
1.41311e-05
1.33591e-05
1.26167e-05
1.19037e-05
1.12197e-05
1.05642e-05
9.93678e-06
9.33689e-06
8.76404e-06
8.21768e-06
7.69723e-06
7.20211e-06
6.7317e-06
6.28537e-06
5.86247e-06
5.46232e-06
5.08425e-06
4.72755e-06
4.39152e-06
4.07545e-06
3.7786e-06
3.50025e-06
3.23966e-06
2.99609e-06
2.76881e-06
2.55708e-06
2.36017e-06
2.17736e-06
2.00792e-06
1.85115e-06
1.70634e-06
1.57281e-06
1.44986e-06
1.33684e-06
1.23311e-06
1.138e-06
1.05092e-06
9.71234e-07
8.98364e-07
8.31702e-07
7.70691e-07
7.14752e-07
6.63307e-07
6.15863e-07
5.71605e-07
5.30718e-07
4.90228e-07
4.56576e-07
4.08657e-07
4.01966e-07
2.88747e-07
4.28255e-07
-1.69389e-10
7.04886e-07
-6.17192e-07
1.08538e-06
-7.25244e-07
-2.51765e-07
1.57023e-06
-2.77254e-06
1.14777e-06
-4.81801e-07
2.06469e-05
1.96656e-05
1.87146e-05
1.77941e-05
1.69037e-05
1.60433e-05
1.52125e-05
1.44113e-05
1.36392e-05
1.28961e-05
1.21815e-05
1.1495e-05
1.08364e-05
1.02052e-05
9.60083e-06
9.02295e-06
8.47102e-06
7.94453e-06
7.44294e-06
6.96567e-06
6.51216e-06
6.08178e-06
5.67393e-06
5.28796e-06
4.92323e-06
4.57906e-06
4.25479e-06
3.94974e-06
3.6632e-06
3.39447e-06
3.14286e-06
2.90766e-06
2.68817e-06
2.48367e-06
2.29346e-06
2.11686e-06
1.95316e-06
1.80168e-06
1.66175e-06
1.53271e-06
1.41389e-06
1.30466e-06
1.2044e-06
1.11247e-06
1.02831e-06
9.51279e-07
8.80844e-07
8.16412e-07
7.57445e-07
7.03389e-07
6.53678e-07
6.07866e-07
5.65085e-07
5.25764e-07
4.86353e-07
4.54935e-07
4.06332e-07
4.06067e-07
2.83645e-07
4.46912e-07
-1.96083e-08
7.53861e-07
-6.57759e-07
1.15898e-06
-7.50463e-07
-1.89806e-07
1.60415e-06
-2.77281e-06
1.44133e-06
-6.67024e-07
1.98485e-05
1.89074e-05
1.79956e-05
1.71128e-05
1.62589e-05
1.54337e-05
1.46369e-05
1.38683e-05
1.31276e-05