/*--------------------------------*- C++ -*----------------------------------*\
| =========                 |                                                 |
| \\      /  F ield         | OpenFOAM: The Open Source CFD Toolbox           |
|  \\    /   O peration     | Version:  2412                                  |
|   \\  /    A nd           | Website:  www.openfoam.com                      |
|    \\/     M anipulation  |                                                 |
\*---------------------------------------------------------------------------*/
FoamFile
{
    version     2.0;
    format      ascii;
    arch        "LSB;label=32;scalar=64";
    class       volScalarField;
    location    "30";
    object      error;
}
// * * * * * * * * * * * * * * * * * * * * * * * * * * * * * * * * * * * * * //

dimensions      [0 0 0 0 0 0 0];

internalField   nonuniform List<scalar> 
5285
(
0.138164
0.13342
0.135042
0.13647
0.137881
0.139215
0.140439
0.141555
0.142562
0.143458
0.144241
0.144908
0.145459
0.145893
0.146209
0.146409
0.146492
0.146461
0.146317
0.146062
0.145699
0.14523
0.144659
0.14399
0.128924
0.130459
0.131817
0.133156
0.134423
0.135588
0.136652
0.137615
0.138475
0.139229
0.139876
0.140414
0.140843
0.141161
0.14137
0.14147
0.141462
0.141347
0.141126
0.140803
0.140379
0.139858
0.139241
0.124664
0.126116
0.127406
0.128676
0.129878
0.130985
0.131997
0.132916
0.133739
0.134463
0.135086
0.135608
0.136027
0.136343
0.136557
0.136667
0.136676
0.136584
0.136392
0.136103
0.135718
0.13524
0.134671
0.120626
0.121999
0.123225
0.124429
0.125568
0.126619
0.127582
0.128457
0.129242
0.129934
0.130533
0.131036
0.131443
0.131754
0.131968
0.132086
0.132107
0.132033
0.131865
0.131604
0.131253
0.130813
0.130287
0.116797
0.118095
0.11926
0.120401
0.121481
0.122478
0.123393
0.124226
0.124974
0.125635
0.126208
0.126692
0.127086
0.127389
0.127601
0.127722
0.127752
0.127693
0.127544
0.127308
0.126986
0.12658
0.126091
0.113163
0.114392
0.115499
0.116581
0.117605
0.118551
0.11942
0.120212
0.120924
0.121555
0.122103
0.122567
0.122946
0.12324
0.123448
0.12357
0.123607
0.123559
0.123427
0.123212
0.122915
0.122538
0.122083
0.109713
0.110877
0.111929
0.112956
0.113927
0.114825
0.11565
0.116403
0.117081
0.117682
0.118205
0.118649
0.119014
0.119297
0.1195
0.119623
0.119664
0.119625
0.119507
0.11931
0.119036
0.118685
0.118261
0.106434
0.107538
0.10854
0.109514
0.110435
0.111288
0.112072
0.112788
0.113433
0.114005
0.114505
0.114929
0.115279
0.115552
0.11575
0.11587
0.115915
0.115884
0.115777
0.115596
0.115341
0.115015
0.114617
0.103318
0.104364
0.105318
0.106244
0.107118
0.107928
0.108674
0.109354
0.109968
0.110514
0.11099
0.111396
0.111731
0.111994
0.112185
0.112304
0.11235
0.112325
0.112228
0.112061
0.111824
0.111518
0.111146
0.100352
0.101346
0.102255
0.103136
0.103966
0.104736
0.105445
0.106092
0.106677
0.107197
0.107651
0.108039
0.108359
0.108612
0.108796
0.108913
0.10896
0.10894
0.108852
0.108697
0.108476
0.10819
0.107839
0.0975296
0.0984733
0.099341
0.100178
0.100968
0.1017
0.102375
0.102991
0.103548
0.104043
0.104477
0.104847
0.105154
0.105397
0.105574
0.105688
0.105736
0.10572
0.10564
0.105496
0.105288
0.10502
0.10469
0.0948406
0.0957379
0.0965664
0.0973635
0.0981145
0.0988115
0.0994538
0.100041
0.100571
0.101044
0.101458
0.101812
0.102105
0.102338
0.102509
0.10262
0.102668
0.102655
0.102582
0.102448
0.102253
0.102
0.101689
0.0922776
0.0931315
0.0939231
0.0946826
0.0953975
0.0960614
0.0966734
0.097233
0.0977388
0.0981897
0.0985847
0.098923
0.0992041
0.0994273
0.0995925
0.0996993
0.0997477
0.0997379
0.0996702
0.0995449
0.0993627
0.0991243
0.0988307
0.0898333
0.0906465
0.0914036
0.0921277
0.0928088
0.0934415
0.0940251
0.0945587
0.0950413
0.0954717
0.095849
0.0961726
0.0964417
0.0966559
0.0968149
0.0969184
0.0969665
0.0969593
0.0968968
0.0967797
0.0966083
0.0963834
0.0961059
0.0875008
0.0882758
0.0890004
0.0896913
0.0903406
0.0909441
0.0915009
0.0920103
0.092471
0.0928821
0.0932428
0.0935523
0.0938101
0.0940156
0.0941687
0.0942691
0.0943166
0.0943115
0.0942539
0.0941442
0.0939828
0.0937704
0.0935079
0.0852736
0.0860128
0.0867067
0.0873664
0.087986
0.0885621
0.0890938
0.0895803
0.0900205
0.0904134
0.0907584
0.0910547
0.0913017
0.0914991
0.0916465
0.0917437
0.0917906
0.0917874
0.0917342
0.0916313
0.0914792
0.0912784
0.0910298
0.083145
0.0838508
0.084516
0.0851465
0.0857382
0.0862887
0.0867969
0.0872619
0.0876828
0.0880587
0.0883889
0.0886727
0.0889096
0.0890991
0.0892411
0.0893352
0.0893815
0.08938
0.0893308
0.0892342
0.0890906
0.0889006
0.088665
0.0811088
0.0817841
0.0824224
0.0830257
0.0835914
0.0841178
0.084604
0.0850489
0.0854517
0.0858116
0.0861278
0.0863998
0.0866271
0.0868093
0.086946
0.0870372
0.0870827
0.0870827
0.0870371
0.0869464
0.0868108
0.0866309
0.0864073
0.124247
0.126684
0.120504
0.122789
0.125199
0.127731
0.130367
0.133065
0.135893
0.116939
0.119084
0.121339
0.123701
0.126155
0.128664
0.131293
0.113542
0.115557
0.117669
0.119874
0.122158
0.124492
0.126935
0.110303
0.112198
0.114177
0.116237
0.118364
0.120535
0.122803
0.107213
0.108997
0.110853
0.112778
0.114761
0.11678
0.118886
0.104263
0.105944
0.107686
0.109487
0.111335
0.113214
0.115168
0.101445
0.103031
0.104667
0.106353
0.108077
0.109825
0.111639
0.0987525
0.100249
0.101788
0.103366
0.104975
0.106603
0.108287
0.0961774
0.0975913
0.0990391
0.100519
0.102021
0.103537
0.105099
0.0937138
0.0950508
0.0964142
0.0978016
0.0992054
0.100618
0.102067
0.0913559
0.0926212
0.0939059
0.0952077
0.09652
0.0978361
0.0991809
0.089098
0.0902963
0.0915078
0.0927302
0.0939575
0.0951842
0.0964317
0.0869345
0.0880705
0.0892139
0.0903623
0.0915107
0.0926545
0.0938113
0.0848611
0.0859389
0.0870187
0.0880984
0.0891734
0.0902401
0.0913125
0.0828733
0.0838967
0.0849172
0.0859327
0.0869395
0.0879344
0.0889281
0.0809671
0.0819395
0.0829046
0.0838603
0.0848035
0.0857315
0.0866518
0.0791387
0.0800634
0.0809766
0.0818765
0.0827602
0.0836257
0.0844772
0.0773847
0.0782647
0.0791292
0.0799766
0.0808046
0.0816112
0.082398
0.0757022
0.0765398
0.0773582
0.0781558
0.0789308
0.0796814
0.0804069
0.119792
0.12195
0.107896
0.109384
0.110917
0.112589
0.114389
0.116306
0.118343
0.104939
0.106372
0.107846
0.109445
0.11116
0.112979
0.114904
0.102104
0.103487
0.104906
0.106438
0.108073
0.109801
0.111623
0.0993845
0.100721
0.102089
0.10356
0.105121
0.106765
0.108492
0.0967757
0.0980688
0.0993911
0.100804
0.102298
0.103864
0.105502
0.0942726
0.095526
0.0968052
0.0981647
0.0995952
0.101089
0.102644
0.0918705
0.0930871
0.0943262
0.095636
0.0970079
0.0984339
0.0999127
0.0895648
0.0907471
0.0919491
0.093213
0.0945309
0.0958932
0.0973001
0.0873509
0.0885014
0.0896689
0.0908901
0.0921557
0.093458
0.094799
0.0852248
0.0863454
0.08748
0.0886599
0.089877
0.0911255
0.0924048
0.0831824
0.084275
0.0853786
0.0865205
0.0876937
0.0888908
0.0901119
0.0812201
0.0822867
0.0833621
0.0844706
0.0856008
0.0867485
0.0879147
0.0793343
0.080377
0.0814272
0.0825
0.0835877
0.0846913
0.0858075
0.0775213
0.0785407
0.0795642
0.0806035
0.0816562
0.0827182
0.083787
0.0757784
0.0767759
0.0777747
0.0787848
0.0798029
0.0808248
0.0818488
0.074102
0.0750786
0.0760548
0.0770374
0.0780225
0.0790069
0.079989
0.0724892
0.0734468
0.0744019
0.0753581
0.0763121
0.0772613
0.078204
0.0709385
0.0718785
0.0728133
0.0737444
0.0746691
0.0755852
0.076491
0.0694482
0.070372
0.0712875
0.0721947
0.0730917
0.0739764
0.0748471
0.0454397
0.0466972
0.0479917
0.0493234
0.0506928
0.0521004
0.0535469
0.0550326
0.0565581
0.0581237
0.0597299
0.061377
0.063065
0.0647943
0.0665647
0.0683764
0.0702291
0.0721225
0.0740563
0.07603
0.0780428
0.0800938
0.0821821
0.0843064
0.0864652
0.0886568
0.0908792
0.09313
0.0954064
0.0977044
0.100017
0.102327
0.104583
0.106644
0.0449086
0.046132
0.0473906
0.0486847
0.0500145
0.0513806
0.0527835
0.0542234
0.0557009
0.0572163
0.0587698
0.0603617
0.0619921
0.063661
0.0653684
0.0671141
0.0688981
0.0707198
0.0725788
0.0744745
0.0764062
0.0783729
0.0803735
0.0824067
0.084471
0.0865646
0.0886855
0.0908314
0.0929995
0.0951861
0.0973847
0.0995788
0.101725
0.1037
0.0443822
0.0455726
0.0467965
0.0480541
0.0493456
0.0506716
0.0520323
0.0534281
0.0548593
0.0563263
0.0578291
0.0593679
0.0609428
0.0625538
0.0642007
0.0658834
0.0676015
0.0693546
0.0711423
0.0729637
0.0748181
0.0767046
0.0786218
0.0805686
0.0825434
0.0845443
0.0865695
0.0886165
0.0906827
0.0927646
0.0948561
0.0969423
0.0989845
0.100877
0.0438608
0.0450191
0.0462093
0.0474316
0.0486862
0.0499733
0.0512933
0.0526465
0.0540332
0.0554534
0.0569075
0.0583953
0.059917
0.0614724
0.0630613
0.0646836
0.0663387
0.0680263
0.0697458
0.0714964
0.0732773
0.0750874
0.0769255
0.0787903
0.0806803
0.0825936
0.0845283
0.0864822
0.0884525
0.090436
0.0924271
0.0944123
0.0963573
0.098172
0.0433445
0.0444717
0.0456294
0.0468176
0.0480363
0.0492859
0.0505667
0.0518788
0.0532225
0.0545978
0.0560049
0.0574438
0.0589143
0.0604164
0.0619498
0.0635141
0.0651091
0.0667341
0.0683886
0.0700716
0.0717824
0.0735199
0.0752829
0.07707
0.0788797
0.0807102
0.0825595
0.0844255
0.0863056
0.0881967
0.0900937
0.0919842
0.0938381
0.0955785
0.0428336
0.0439307
0.0450568
0.046212
0.0473961
0.0486095
0.0498524
0.0511249
0.0524271
0.0537593
0.0551212
0.056513
0.0579344
0.0593854
0.0608655
0.0623746
0.063912
0.0654772
0.0670696
0.0686883
0.0703324
0.0720009
0.0736925
0.0754059
0.0771395
0.0788917
0.0806604
0.0824436
0.0842388
0.086043
0.0878515
0.0896533
0.0914217
0.0930916
0.0423282
0.0433962
0.0444918
0.045615
0.0467657
0.0479441
0.0491504
0.0503848
0.0516472
0.0529377
0.0542562
0.0556028
0.0569771
0.058379
0.0598082
0.0612642
0.0627466
0.0642547
0.0657879
0.0673453
0.0689259
0.0705288
0.0721527
0.0737962
0.0754578
0.0771358
0.0788284
0.0805335
0.0822488
0.0839713
0.0856968
0.0874153
0.0891035
0.0907063
0.0418285
0.0428683
0.0439344
0.0450267
0.0461451
0.0472898
0.0484609
0.0496584
0.0508824
0.0521329
0.0534098
0.0547129
0.056042
0.0573969
0.0587772
0.0601825
0.0616123
0.0630659
0.0645426
0.0660415
0.0675618
0.0691023
0.0706619
0.0722391
0.0738325
0.0754405
0.0770611
0.0786925
0.0803324
0.0819781
0.0836256
0.085266
0.0868788
0.0884178
0.0413347
0.0423472
0.0433848
0.0444473
0.0455346
0.0466467
0.0477838
0.0489459
0.0501329
0.0513449
0.0525816
0.053843
0.0551288
0.0564387
0.0577722
0.059129
0.0605085
0.06191
0.0633328
0.0647761
0.0662389
0.0677201
0.0692186
0.0707329
0.0722617
0.0738033
0.0753561
0.076918
0.0784869
0.0800602
0.0816344
0.0832013
0.0847433
0.0862217
0.0408471
0.0418332
0.0428433
0.043877
0.0449341
0.0460148
0.0471192
0.0482471
0.0493986
0.0505735
0.0517717
0.052993
0.0542372
0.0555039
0.0567926
0.058103
0.0594344
0.0607862
0.0621577
0.0635479
0.064956
0.0663808
0.0678212
0.069276
0.0707435
0.0722224
0.0737109
0.0752072
0.0767092
0.0782144
0.0797196
0.0812175
0.0826928
0.0841135
0.0403657
0.0413264
0.0423098
0.0433157
0.0443438
0.0453943
0.046467
0.0475621
0.0486793
0.0498186
0.0509798
0.0521627
0.0533669
0.0545922
0.0558381
0.057104
0.0583895
0.0596939
0.0610163
0.0623559
0.0637119
0.0650832
0.0664685
0.0678666
0.0692762
0.0706957
0.0721235
0.0735578
0.0749966
0.0764377
0.0778779
0.079311
0.0807235
0.0820893
0.039891
0.040827
0.0417847
0.0427637
0.0437638
0.0447851
0.0458274
0.0468908
0.0479751
0.0490801
0.0502058
0.0513518
0.0525177
0.0537033
0.0549081
0.0561316
0.0573732
0.0586322
0.0599078
0.0611993
0.0625057
0.063826
0.0651589
0.0665034
0.067858
0.0692212
0.0705916
0.0719673
0.0733465
0.0747271
0.0761063
0.0774782
0.0788317
0.0801452
0.039423
0.0403352
0.0412681
0.0422212
0.0431943
0.0441873
0.0452004
0.0462333
0.0472859
0.048358
0.0494495
0.05056
0.0516893
0.0528368
0.0540023
0.0551852
0.0563848
0.0576005
0.0588315
0.0600771
0.0613363
0.062608
0.0638912
0.0651847
0.0664872
0.0677971
0.0691131
0.0704335
0.0717565
0.0730801
0.0744016
0.075716
0.0770138
0.0782776
0.0389619
0.0398512
0.0407601
0.0416882
0.0426352
0.0436012
0.044586
0.0455895
0.0466116
0.0476521
0.0487108
0.0497873
0.0508813
0.0519925
0.0531203
0.0542642
0.0554237
0.0565981
0.0577866
0.0589883
0.0602025
0.0614282
0.0626641
0.0639092
0.0651622
0.0664217
0.0676862
0.0689543
0.0702241
0.0714938
0.072761
0.0740213
0.0752665
0.0764828
0.0385081
0.0393752
0.0402609
0.0411649
0.0420868
0.0430266
0.0439842
0.0449595
0.0459523
0.0469623
0.0479895
0.0490333
0.0500936
0.0511698
0.0522616
0.0533683
0.0544895
0.0556243
0.0567722
0.0579323
0.0591036
0.0602853
0.0614763
0.0626754
0.0638814
0.0650931
0.0663089
0.0675274
0.068747
0.0699659
0.0711818
0.072391
0.0735867
0.0747578
0.0380617
0.0389074
0.0397708
0.0406514
0.0415491
0.0424637
0.0433951
0.0443432
0.0453078
0.0462887
0.0472855
0.048298
0.0493259
0.0503687
0.0514259
0.052497
0.0535815
0.0546786
0.0557877
0.056908
0.0580385
0.0591784
0.0603266
0.061482
0.0626435
0.0638097
0.0649794
0.0661511
0.0673232
0.068494
0.0696616
0.0708225
0.0719715
0.0730997
0.037623
0.038448
0.0392898
0.040148
0.0410224
0.0419127
0.0428189
0.0437408
0.0446782
0.045631
0.0465987
0.0475812
0.048578
0.0495887
0.0506128
0.0516499
0.0526993
0.0537604
0.0548324
0.0559147
0.0570063
0.0581064
0.0592139
0.0603278
0.061447
0.0625701
0.063696
0.0648233
0.0659504
0.0670758
0.0681977
0.0693131
0.0704178
0.0715048
0.0371923
0.0379973
0.0388182
0.0396548
0.0405066
0.0413735
0.0422554
0.0431522
0.0440635
0.0449892
0.045929
0.0468826
0.0478496
0.0488295
0.049822
0.0508264
0.0518423
0.0528689
0.0539056
0.0549517
0.0560062
0.0570683
0.0581371
0.0592115
0.0602905
0.0613727
0.0624571
0.0635423
0.0646268
0.0657093
0.0667879
0.0678603
0.0689231
0.0699711
0.0367696
0.0375553
0.0383562
0.0391719
0.040002
0.0408463
0.0417048
0.0425773
0.0434636
0.0443633
0.0452763
0.0462021
0.0471405
0.048091
0.0490531
0.0500263
0.0510101
0.0520038
0.0530067
0.0540182
0.0550373
0.0560633
0.0570952
0.058132
0.0591727
0.0602161
0.061261
0.0623063
0.0633505
0.0643922
0.06543
0.0664617
0.0674849
0.0684958
0.0363636
0.0371311
0.0379131
0.038709
0.0395186
0.0403417
0.0411781
0.0420278
0.0428904
0.0437657
0.0446534
0.0455532
0.0464647
0.0473875
0.0483211
0.0492651
0.0502188
0.0511816
0.052153
0.0531321
0.0541182
0.0551105
0.056108
0.0571097
0.0581148
0.059122
0.0601303
0.0611384
0.0621452
0.0631491
0.0641489
0.0651428
0.066129
0.0671048
0.0359703
0.0367204
0.0374841
0.0382612
0.0390512
0.039854
0.0406694
0.0414972
0.0423373
0.0431893
0.0440529
0.0449279
0.0458139
0.0467103
0.0476169
0.0485331
0.0494583
0.0503919
0.0513333
0.0522818
0.0532366
0.054197
0.0551619
0.0561307
0.0571021
0.0580752
0.059049
0.0600221
0.0609935
0.0619619
0.0629259
0.0638841
0.0648347
0.0657756
0.0355775
0.0363104
0.0370563
0.0378147
0.0385855
0.0393682
0.0401629
0.0409694
0.0417873
0.0426164
0.0434565
0.0443071
0.045168
0.0460387
0.0469188
0.0478078
0.0487051
0.0496102
0.0505224
0.051441
0.0523653
0.0532946
0.0542279
0.0551644
0.0561032
0.0570432
0.0579833
0.0589226
0.0598597
0.0607936
0.0617228
0.0626462
0.063562
0.0644687
0.0351857
0.0359016
0.0366299
0.0373701
0.0381219
0.038885
0.0396593
0.0404447
0.0412409
0.0420476
0.0428645
0.0436913
0.0445277
0.0453732
0.0462274
0.0470898
0.0479599
0.0488371
0.0497207
0.0506102
0.0515049
0.0524039
0.0533064
0.0542116
0.0551186
0.0560264
0.0569339
0.0578403
0.0587442
0.0596446
0.0605402
0.0614298
0.0623119
0.063185
0.0347953
0.0354947
0.0362056
0.0369278
0.0376609
0.0384047
0.0391591
0.0399238
0.0406986
0.0414833
0.0422776
0.0430811
0.0438934
0.0447143
0.0455432
0.0463796
0.0472231
0.0480731
0.048929
0.0497901
0.0506558
0.0515253
0.0523979
0.0532727
0.0541488
0.0550253
0.0559013
0.0567756
0.0576474
0.0585153
0.0593784
0.0602353
0.0610847
0.0619253
0.034407
0.03509
0.0357839
0.0364884
0.0372031
0.037928
0.0386627
0.0394072
0.0401611
0.0409242
0.0416963
0.0424769
0.0432658
0.0440626
0.0448667
0.0456778
0.0464953
0.0473188
0.0481476
0.0489811
0.0498186
0.0506595
0.0515029
0.0523481
0.0531943
0.0540404
0.0548857
0.0557292
0.0565697
0.0574063
0.0582378
0.0590631
0.0598809
0.0606901
0.0333647
0.0340212
0.0346881
0.0353653
0.0360523
0.036749
0.0374552
0.0381707
0.0388953
0.0396287
0.0403708
0.0411211
0.0418794
0.0426454
0.0434185
0.0441985
0.0449849
0.0457771
0.0465747
0.0473771
0.0481837
0.0489938
0.0498068
0.050622
0.0514384
0.0522555
0.0530722
0.0538878
0.0547012
0.0555116
0.0563178
0.0571188
0.0579135
0.0587008
0.0594795
0.0329972
0.0336384
0.0342895
0.0349502
0.0356201
0.0362991
0.036987
0.0376836
0.0383887
0.0391021
0.0398235
0.0405526
0.041289
0.0420325
0.0427827
0.0435391
0.0443014
0.045069
0.0458414
0.0466181
0.0473985
0.048182
0.0489679
0.0497555
0.0505441
0.0513329
0.0521211
0.0529078
0.0536922
0.0544733
0.0552501
0.0560216
0.0567869
0.0575447
0.058294
0.0326329
0.0332591
0.0338945
0.034539
0.0351921
0.0358538
0.0365238
0.0372019
0.0378879
0.0385817
0.0392828
0.0399911
0.0407062
0.0414279
0.0421556
0.042889
0.0436278
0.0443713
0.0451192
0.0458709
0.0466258
0.0473834
0.048143
0.0489039
0.0496654
0.0504269
0.0511874
0.0519462
0.0527025
0.0534552
0.0542036
0.0549466
0.0556833
0.0564126
0.0571335
0.0322722
0.0328836
0.0335037
0.0341323
0.0347689
0.0354135
0.0360659
0.0367259
0.0373933
0.0380678
0.0387492
0.0394372
0.0401315
0.0408317
0.0415376
0.0422486
0.0429644
0.0436846
0.0444086
0.045136
0.0458661
0.0465985
0.0473326
0.0480676
0.0488028
0.0495377
0.0502714
0.0510032
0.0517322
0.0524576
0.0531785
0.053894
0.0546031
0.0553049
0.0559984
0.0319157
0.0325124
0.0331174
0.0337303
0.0343508
0.0349787
0.0356139
0.0362562
0.0369053
0.037561
0.0382231
0.0388912
0.0395652
0.0402446
0.0409291
0.0416183
0.0423118
0.0430092
0.04371
0.0444137
0.0451198
0.0458278
0.046537
0.0472468
0.0479566
0.0486658
0.0493735
0.0500791
0.0507818
0.0514807
0.052175
0.0528638
0.0535464
0.0542216
0.0548887
0.0315635
0.0321459
0.032736
0.0333336
0.0339382
0.0345497
0.0351681
0.0357929
0.0364242
0.0370615
0.0377047
0.0383535
0.0390076
0.0396667
0.0403304
0.0409984
0.0416702
0.0423454
0.0430236
0.0437044
0.0443871
0.0450713
0.0457565
0.0464419
0.0471271
0.0478113
0.0484939
0.0491741
0.0498513
0.0505246
0.0511932
0.0518564
0.0525132
0.0531628
0.0538043
0.031216
0.0317843
0.0323598
0.0329423
0.0335314
0.0341269
0.0347287
0.0353366
0.0359504
0.0365698
0.0371946
0.0378245
0.0384592
0.0390985
0.0397419
0.0403892
0.0410399
0.0416936
0.0423499
0.0430083
0.0436684
0.0443296
0.0449914
0.0456532
0.0463145
0.0469745
0.0476328
0.0482885
0.048941
0.0495895
0.0502333
0.0508717
0.0515037
0.0521286
0.0527455
0.0308736
0.031428
0.0319891
0.0325568
0.0331306
0.0337105
0.0342961
0.0348874
0.0354841
0.036086
0.0366928
0.0373043
0.0379202
0.0385402
0.0391639
0.039791
0.0404212
0.041054
0.041689
0.0423257
0.0429638
0.0436027
0.0442419
0.0448808
0.0455189
0.0461556
0.0467903
0.0474223
0.048051
0.0486756
0.0492954
0.0499098
0.0505179
0.0511189
0.0517121
0.0305364
0.0310772
0.0316242
0.0321774
0.0327362
0.0333007
0.0338705
0.0344456
0.0350256
0.0356104
0.0361997
0.0367933
0.0373908
0.037992
0.0385966
0.0392041
0.0398143
0.0404268
0.0410411
0.0416569
0.0422736
0.0428909
0.0435081
0.0441249
0.0447406
0.0453547
0.0459666
0.0465757
0.0471814
0.0477829
0.0483796
0.0489708
0.0495558
0.0501338
0.0507041
0.0302047
0.030732
0.0312653
0.0318042
0.0323484
0.0328978
0.0334522
0.0340114
0.0345751
0.0351433
0.0357155
0.0362916
0.0368713
0.0374542
0.0380401
0.0386287
0.0392195
0.0398123
0.0404065
0.0410019
0.041598
0.0421943
0.0427903
0.0433856
0.0439797
0.044572
0.0451619
0.0457488
0.0463322
0.0469114
0.0474858
0.0480547
0.0486174
0.0491733
0.0497215
0.0298786
0.0303928
0.0309124
0.0314374
0.0319673
0.032502
0.0330413
0.033585
0.0341329
0.0346848
0.0352404
0.0357994
0.0363617
0.0369269
0.0374947
0.0380648
0.0386369
0.0392105
0.0397853
0.040361
0.0409371
0.0415131
0.0420886
0.0426632
0.0432363
0.0438074
0.0443761
0.0449417
0.0455036
0.0460613
0.0466142
0.0471616
0.0477028
0.0482373
0.0487643
0.0295583
0.0300596
0.030566
0.0310773
0.0315932
0.0321135
0.032638
0.0331666
0.033699
0.0342351
0.0347745
0.035317
0.0358624
0.0364104
0.0369606
0.0375128
0.0380666
0.0386217
0.0391777
0.0397343
0.040291
0.0408474
0.0414031
0.0419576
0.0425105
0.0430613
0.0436094
0.0441544
0.0446956
0.0452326
0.0457647
0.0462914
0.046812
0.0473258
0.0478324
0.029244
0.0297326
0.0302259
0.0307239
0.0312261
0.0317323
0.0322425
0.0327564
0.0332737
0.0337943
0.034318
0.0348445
0.0353734
0.0359047
0.0364378
0.0369727
0.0375088
0.038046
0.0385838
0.0391219
0.0396599
0.0401973
0.0407338
0.041269
0.0418024
0.0423335
0.0428618
0.0433869
0.0439082
0.0444252
0.0449374
0.0454441
0.0459448
0.0464388
0.0469257
0.0289357
0.0294119
0.0298925
0.0303774
0.0308662
0.0313588
0.0318549
0.0323544
0.0328571
0.0333627
0.0338711
0.0343819
0.034895
0.03541
0.0359267
0.0364447
0.0369637
0.0374835
0.0380037
0.0385239
0.0390438
0.039563
0.040081
0.0405975
0.0411121
0.0416242
0.0421335
0.0426394
0.0431415
0.0436393
0.0441322
0.0446197
0.0451013
0.0455763
0.0460443
0.0286336
0.0290976
0.0295657
0.0300379
0.0305136
0.0309929
0.0314754
0.0319609
0.0324493
0.0329404
0.0334339
0.0339296
0.0344272
0.0349265
0.0354271
0.0359289
0.0364314
0.0369344
0.0374376
0.0379406
0.038443
0.0389445
0.0394447
0.0399432
0.0404396
0.0409335
0.0414244
0.0419119
0.0423956
0.0428748
0.0433492
0.0438183
0.0442814
0.0447382
0.0451879
0.0283377
0.0287899
0.0292458
0.0297055
0.0301686
0.0306348
0.031104
0.031576
0.0320506
0.0325275
0.0330066
0.0334876
0.0339703
0.0344543
0.0349395
0.0354255
0.0359121
0.0363989
0.0368856
0.0373719
0.0378575
0.038342
0.038825
0.0393062
0.0397851
0.0402614
0.0407347
0.0412045
0.0416703
0.0421318
0.0425884
0.0430397
0.0434852
0.0439244
0.0443567
0.0280482
0.0284888
0.0289329
0.0293805
0.0298311
0.0302847
0.030741
0.0311998
0.031661
0.0321242
0.0325893
0.0330561
0.0335243
0.0339936
0.0344638
0.0349346
0.0354058
0.0358769
0.0363478
0.0368181
0.0372874
0.0377555
0.038222
0.0386865
0.0391486
0.039608
0.0400643
0.0405171
0.0409659
0.0414103
0.0418498
0.0422841
0.0427126
0.043135
0.0435506
0.0277651
0.0281944
0.028627
0.0290628
0.0295014
0.0299427
0.0303865
0.0308325
0.0312807
0.0317306
0.0321822
0.0326353
0.0330894
0.0335445
0.0340003
0.0344564
0.0349127
0.0353688
0.0358244
0.0362792
0.0367329
0.0371853
0.0376358
0.0380843
0.0385303
0.0389735
0.0394134
0.0398498
0.0402822
0.0407102
0.0411334
0.0415514
0.0419637
0.0423698
0.0427694
0.0274885
0.0279069
0.0283283
0.0287526
0.0291796
0.029609
0.0300406
0.0304743
0.0309098
0.0313469
0.0317855
0.0322252
0.0326659
0.0331073
0.0335491
0.0339911
0.034433
0.0348746
0.0353155
0.0357554
0.0361941
0.0366313
0.0370666
0.0374996
0.0379301
0.0383577
0.0387821
0.0392028
0.0396195
0.0400318
0.0404393
0.0408416
0.0412383
0.041629
0.0420132
0.0272185
0.0276263
0.0280368
0.0284501
0.0288658
0.0292836
0.0297035
0.0301252
0.0305486
0.0309733
0.0313993
0.0318262
0.0322538
0.0326819
0.0331103
0.0335387
0.0339668
0.0343944
0.0348212
0.0352469
0.0356712
0.0360938
0.0365144
0.0369326
0.0373483
0.0377609
0.0381703
0.0385759
0.0389776
0.0393748
0.0397673
0.0401547
0.0405365
0.0409123
0.0412818
0.0269553
0.0273527
0.0277528
0.0281553
0.0285601
0.0289668
0.0293754
0.0297855
0.0301971
0.0306099
0.0310237
0.0314382
0.0318533
0.0322687
0.0326842
0.0330995
0.0335144
0.0339285
0.0343417
0.0347537
0.0351641
0.0355728
0.0359793
0.0363834
0.0367848
0.0371831
0.0375781
0.0379694
0.0383566
0.0387395
0.0391176
0.0394906
0.0398582
0.0402199
0.0405753
0.0266988
0.0270863
0.0274762
0.0278685
0.0282627
0.0286587
0.0290563
0.0294553
0.0298556
0.0302569
0.030659
0.0310616
0.0314647
0.0318678
0.0322709
0.0326736
0.0330758
0.033477
0.0338772
0.034276
0.0346732
0.0350684
0.0354615
0.035852
0.0362398
0.0366244
0.0370057
0.0373832
0.0377567
0.0381258
0.0384902
0.0388495
0.0392034
0.0395516
0.0398936
0.0264492
0.0268272
0.0272073
0.0275896
0.0279737
0.0283594
0.0287465
0.0291348
0.0295242
0.0299144
0.0303053
0.0306965
0.031088
0.0314794
0.0318706
0.0322612
0.0326511
0.0330401
0.0334278
0.033814
0.0341985
0.0345809
0.0349611
0.0353386
0.0357133
0.0360849
0.036453
0.0368174
0.0371778
0.0375337
0.037885
0.0382313
0.0385722
0.0389074
0.0392367
0.0262066
0.0265754
0.0269462
0.0273189
0.0276933
0.0280691
0.0284461
0.0288242
0.0292031
0.0295827
0.0299628
0.0303431
0.0307235
0.0311036
0.0314834
0.0318625
0.0322407
0.0326179
0.0329937
0.0333678
0.0337401
0.0341103
0.0344782
0.0348433
0.0352056
0.0355647
0.0359203
0.0362721
0.0366199
0.0369633
0.0373021
0.0376359
0.0379645
0.0382874
0.0386044
0.0259712
0.0263312
0.026693
0.0270567
0.0274217
0.027788
0.0281553
0.0285236
0.0288926
0.029262
0.0296318
0.0300016
0.0303713
0.0307407
0.0311096
0.0314777
0.0318447
0.0322106
0.032575
0.0329376
0.0332984
0.0336569
0.0340129
0.0343663
0.0347167
0.0350638
0.0354075
0.0357474
0.0360832
0.0364147
0.0367416
0.0370635
0.0373802
0.0376915
0.0379969
0.0257431
0.0260947
0.026448
0.0268029
0.0271591
0.0275163
0.0278744
0.0282333
0.0285927
0.0289525
0.0293124
0.0296722
0.0300318
0.0303909
0.0307494
0.0311069
0.0314633
0.0318184
0.0321719
0.0325236
0.0328733
0.0332207
0.0335655
0.0339076
0.0342467
0.0345825
0.0349148
0.0352433
0.0355678
0.0358879
0.0362034
0.0365141
0.0368196
0.0371197
0.037414
0.0255226
0.0258663
0.0262114
0.026558
0.0269057
0.0272543
0.0276037
0.0279536
0.0283039
0.0286544
0.0290049
0.0293553
0.0297052
0.0300545
0.030403
0.0307505
0.0310968
0.0314416
0.0317848
0.032126
0.0324652
0.032802
0.0331362
0.0334675
0.0337959
0.0341209
0.0344424
0.03476
0.0350737
0.035383
0.0356878
0.0359877
0.0362825
0.036572
0.0368559
0.0253099
0.025646
0.0259835
0.0263222
0.0266619
0.0270023
0.0273433
0.0276847
0.0280264
0.0283681
0.0287097
0.029051
0.0293917
0.0297317
0.0300708
0.0304088
0.0307454
0.0310805
0.0314138
0.0317451
0.0320742
0.032401
0.032725
0.0330462
0.0333643
0.0336791
0.0339903
0.0342977
0.0346011
0.0349002
0.0351947
0.0354845
0.0357692
0.0360486
0.0363226
0.0251053
0.0254344
0.0257646
0.0260958
0.0264279
0.0267605
0.0270936
0.027427
0.0277605
0.0280939
0.028427
0.0287597
0.0290917
0.0294229
0.029753
0.0300819
0.0304094
0.0307352
0.0310592
0.0313811
0.0317008
0.0320179
0.0323324
0.0326439
0.0329524
0.0332574
0.0335589
0.0338565
0.0341502
0.0344395
0.0347244
0.0350045
0.0352797
0.0355496
0.0358141
0.0249093
0.0252317
0.025555
0.0258793
0.0262041
0.0265295
0.0268551
0.0271809
0.0275067
0.0278322
0.0281573
0.0284818
0.0288056
0.0291284
0.0294501
0.0297704
0.0300892
0.0304063
0.0307214
0.0310344
0.0313451
0.0316532
0.0319585
0.032261
0.0325602
0.0328561
0.0331483
0.0334368
0.0337212
0.0340013
0.034277
0.034548
0.0348141
0.035075
0.0353306
0.0247222
0.0250384
0.0253553
0.025673
0.0259911
0.0263096
0.0266282
0.0269468
0.0272652
0.0275833
0.0279009
0.0282178
0.0285337
0.0288486
0.0291623
0.0294745
0.0297852
0.0300939
0.0304007
0.0307053
0.0310075
0.031307
0.0316038
0.0318976
0.0321882
0.0324753
0.0327589
0.0330386
0.0333143
0.0335858
0.0338528
0.0341152
0.0343727
0.0346251
0.0348722
0.0245447
0.024855
0.0251659
0.0254774
0.0257893
0.0261013
0.0264133
0.0267252
0.0270368
0.0273479
0.0276583
0.027968
0.0282766
0.0285841
0.0288902
0.0291948
0.0294977
0.0297987
0.0300976
0.0303942
0.0306884
0.0309799
0.0312686
0.0315542
0.0318366
0.0321156
0.0323909
0.0326625
0.03293
0.0331932
0.0334521
0.0337063
0.0339557
0.0342001
0.0344393
0.0243773
0.0246822
0.0249875
0.0252933
0.0255992
0.0259052
0.0262111
0.0265167
0.0268218
0.0271264
0.0274302
0.027733
0.0280348
0.0283353
0.0286343
0.0289317
0.0292274
0.029521
0.0298125
0.0301017
0.0303883
0.0306723
0.0309533
0.0312313
0.031506
0.0317772
0.0320449
0.0323086
0.0325684
0.032824
0.0330752
0.0333217
0.0335635
0.0338004
0.034032
0.0242207
0.0245205
0.0248207
0.0251211
0.0254216
0.025722
0.0260221
0.0263218
0.026621
0.0269194
0.027217
0.0275135
0.0278088
0.0281028
0.0283952
0.0286859
0.0289747
0.0292615
0.029546
0.0298282
0.0301078
0.0303846
0.0306585
0.0309292
0.0311967
0.0314607
0.0317211
0.0319776
0.0322301
0.0324785
0.0327224
0.0329618
0.0331964
0.0334262
0.0336508
0.0240756
0.0243709
0.0246662
0.0249618
0.0252572
0.0255523
0.0258471
0.0261414
0.0264349
0.0267277
0.0270194
0.0273101
0.0275994
0.0278872
0.0281734
0.0284579
0.0287403
0.0290207
0.0292987
0.0295743
0.0298473
0.0301174
0.0303846
0.0306487
0.0309094
0.0311666
0.0314202
0.0316699
0.0319156
0.0321572
0.0323943
0.032627
0.0328549
0.0330779
0.0332959
0.023943
0.024234
0.024525
0.024816
0.0251067
0.0253971
0.0256869
0.0259761
0.0262645
0.026552
0.0268383
0.0271235
0.0274072
0.0276894
0.0279698
0.0282484
0.0285249
0.0287993
0.0290713
0.0293408
0.0296076
0.0298715
0.0301324
0.0303902
0.0306446
0.0308955
0.0311427
0.0313861
0.0316254
0.0318606
0.0320914
0.0323178
0.0325394
0.0327562
0.0329681
0.0238239
0.024111
0.0243979
0.0246847
0.0249711
0.0252571
0.0255424
0.0258269
0.0261106
0.0263931
0.0266745
0.0269546
0.0272331
0.02751
0.0277851
0.0280583
0.0283293
0.0285981
0.0288645
0.0291283
0.0293893
0.0296475
0.0299026
0.0301545
0.030403
0.030648
0.0308893
0.0311267
0.0313602
0.0315894
0.0318144
0.0320348
0.0322506
0.0324616
0.0326676
0.0237191
0.0240027
0.024286
0.024569
0.0248515
0.0251334
0.0254145
0.0256948
0.025974
0.0262521
0.0265289
0.0268042
0.027078
0.0273501
0.0276202
0.0278884
0.0281543
0.028418
0.0286791
0.0289377
0.0291934
0.0294462
0.0296959
0.0299424
0.0301855
0.030425
0.0306608
0.0308927
0.0311206
0.0313444
0.0315638
0.0317788
0.0319891
0.0321947
0.0323954
0.02363
0.0239104
0.0241903
0.0244699
0.0247488
0.025027
0.0253043
0.0255807
0.0258559
0.0261299
0.0264025
0.0266736
0.0269429
0.0272105
0.0274762
0.0277397
0.028001
0.0282599
0.0285162
0.0287699
0.0290208
0.0292686
0.0295134
0.0297548
0.0299928
0.0302273
0.030458
0.0306848
0.0309076
0.0311263
0.0313406
0.0315505
0.0317558
0.0319564
0.0321521
0.0235577
0.0238352
0.0241122
0.0243886
0.0246643
0.0249391
0.025213
0.0254858
0.0257574
0.0260277
0.0262964
0.0265636
0.026829
0.0270925
0.027354
0.0276133
0.0278703
0.0281249
0.0283768
0.0286261
0.0288724
0.0291157
0.0293559
0.0295927
0.0298261
0.0300558
0.0302819
0.030504
0.0307221
0.0309361
0.0311457
0.031351
0.0315516
0.0317475
0.0319385
0.0235036
0.0237785
0.0240528
0.0243264
0.0245992
0.024871
0.0251418
0.0254114
0.0256797
0.0259466
0.0262119
0.0264755
0.0267373
0.0269971
0.0272549
0.0275103
0.0277635
0.0280141
0.028262
0.0285072
0.0287494
0.0289886
0.0292246
0.0294572
0.0296863
0.0299118
0.0301336
0.0303514
0.0305652
0.0307748
0.0309802
0.0311811
0.0313774
0.031569
0.0317558
0.0234689
0.0237415
0.0240134
0.0242846
0.0245548
0.024824
0.025092