/*--------------------------------*- C++ -*----------------------------------*\
| =========                 |                                                 |
| \\      /  F ield         | OpenFOAM: The Open Source CFD Toolbox           |
|  \\    /   O peration     | Version:  2412                                  |
|   \\  /    A nd           | Website:  www.openfoam.com                      |
|    \\/     M anipulation  |                                                 |
\*---------------------------------------------------------------------------*/
FoamFile
{
    version     2.0;
    format      ascii;
    arch        "LSB;label=32;scalar=64";
    class       volVectorField;
    location    "1.5";
    object      vorticity;
}
// * * * * * * * * * * * * * * * * * * * * * * * * * * * * * * * * * * * * * //

dimensions      [0 0 -1 0 0 0 0];

internalField   nonuniform List<vector> 
5285
(
(0 -0 0.000329525)
(0 -0 -3.88836e-05)
(0 -0 -0.000185953)
(0 -0 -0.000107356)
(0 -0 -3.38419e-05)
(0 -0 -2.13584e-06)
(0 -0 7.51308e-06)
(0 -0 9.92389e-06)
(0 -0 1.05531e-05)
(0 -0 1.08062e-05)
(0 -0 1.09134e-05)
(0 -0 1.1028e-05)
(0 -0 1.11271e-05)
(0 -0 1.12362e-05)
(0 -0 1.13165e-05)
(0 -0 1.14446e-05)
(0 -0 1.15432e-05)
(0 -0 1.15947e-05)
(0 -0 1.17096e-05)
(0 -0 1.18421e-05)
(0 -0 1.1943e-05)
(0 -0 1.20431e-05)
(0 -0 1.21441e-05)
(0 -0 1.22397e-05)
(0 -0 1.23415e-05)
(0 -0 1.24558e-05)
(0 -0 1.25702e-05)
(0 -0 1.26988e-05)
(0 -0 1.28283e-05)
(0 -0 1.29548e-05)
(0 -0 1.30832e-05)
(0 -0 1.32248e-05)
(0 -0 1.33901e-05)
(0 -0 1.35655e-05)
(0 -0 1.37503e-05)
(0 -0 1.39475e-05)
(0 -0 1.41707e-05)
(0 -0 1.44145e-05)
(0 -0 1.46715e-05)
(0 -0 1.49449e-05)
(0 -0 1.52458e-05)
(0 -0 1.55874e-05)
(0 -0 1.59818e-05)
(0 -0 1.64337e-05)
(0 -0 1.69577e-05)
(0 -0 1.75747e-05)
(0 -0 1.83226e-05)
(0 -0 1.92661e-05)
(0 -0 2.05307e-05)
(0 -0 2.23899e-05)
(0 -0 2.52262e-05)
(0 -0 2.8076e-05)
(0 -0 2.26805e-05)
(0 -0 -1.64925e-05)
(0 7.30675e-23 -0.000127135)
(0 -0 0.000964173)
(0 -0 -0.00018847)
(0 -0 -0.000595672)
(0 -0 -0.000338736)
(0 -0 -0.000108544)
(0 -0 -1.01575e-05)
(0 -0 1.9826e-05)
(0 -0 2.73762e-05)
(0 -0 2.93012e-05)
(0 -0 2.99988e-05)
(0 -0 3.03659e-05)
(0 -0 3.07144e-05)
(0 -0 3.10283e-05)
(0 -0 3.13284e-05)
(0 -0 3.16172e-05)
(0 -0 3.19385e-05)
(0 -0 3.22289e-05)
(0 -0 3.24934e-05)
(0 -0 3.28134e-05)
(0 -0 3.31611e-05)
(0 -0 3.34806e-05)
(0 -0 3.37895e-05)
(0 -0 3.41015e-05)
(0 -0 3.44273e-05)
(0 -0 3.47638e-05)
(0 -0 3.51108e-05)
(0 -0 3.54716e-05)
(0 -0 3.58692e-05)
(0 -0 3.62846e-05)
(0 -0 3.67093e-05)
(0 -0 3.71507e-05)
(0 -0 3.76241e-05)
(0 -0 3.81364e-05)
(0 -0 3.86792e-05)
(0 -0 3.92571e-05)
(0 -0 3.98796e-05)
(0 -0 4.05579e-05)
(0 -0 4.12848e-05)
(0 -0 4.20643e-05)
(0 -0 4.29243e-05)
(0 -0 4.38972e-05)
(0 -0 4.5005e-05)
(0 -0 4.62662e-05)
(0 -0 4.77027e-05)
(0 -0 4.93631e-05)
(0 -0 5.13262e-05)
(0 -0 5.37125e-05)
(0 -0 5.67157e-05)
(0 -0 6.0702e-05)
(0 -0 6.64668e-05)
(0 -0 7.51358e-05)
(0 -0 8.39279e-05)
(0 -0 6.87859e-05)
(0 -0 -4.46986e-05)
(0 7.36569e-23 -0.000366013)
(0 -0 0.00152301)
(0 -0 -0.000551377)
(0 -0 -0.00111949)
(0 -0 -0.00062062)
(0 -0 -0.000206116)
(0 -0 -3.1848e-05)
(0 -0 2.0981e-05)
(0 -0 3.42796e-05)
(0 -0 3.7615e-05)
(0 -0 3.87302e-05)
(0 -0 3.93311e-05)
(0 -0 3.98666e-05)
(0 -0 4.03523e-05)
(0 -0 4.08115e-05)
(0 -0 4.12866e-05)
(0 -0 4.17601e-05)
(0 -0 4.22108e-05)
(0 -0 4.26758e-05)
(0 -0 4.31774e-05)
(0 -0 4.37118e-05)
(0 -0 4.42343e-05)
(0 -0 4.47435e-05)
(0 -0 4.5261e-05)
(0 -0 4.5818e-05)
(0 -0 4.63969e-05)
(0 -0 4.69924e-05)
(0 -0 4.76235e-05)
(0 -0 4.83121e-05)
(0 -0 4.90377e-05)
(0 -0 4.97924e-05)
(0 -0 5.0589e-05)
(0 -0 5.14446e-05)
(0 -0 5.2361e-05)
(0 -0 5.33361e-05)
(0 -0 5.43811e-05)
(0 -0 5.5511e-05)
(0 -0 5.6736e-05)
(0 -0 5.80517e-05)
(0 -0 5.94775e-05)
(0 -0 6.10637e-05)
(0 -0 6.28581e-05)
(0 -0 6.48919e-05)
(0 -0 6.71951e-05)
(0 -0 6.98119e-05)
(0 -0 7.28258e-05)
(0 -0 7.63715e-05)
(0 -0 8.06502e-05)
(0 -0 8.59781e-05)
(0 -0 9.29475e-05)
(0 -0 0.000102838)
(0 -0 0.000117478)
(0 -0 0.000132592)
(0 -0 0.000110483)
(0 -0 -6.54906e-05)
(0 4.35482e-22 -0.000565824)
(0 -0 0.0019459)
(0 -0 -0.00124311)
(0 -0 -0.00180256)
(0 -0 -0.000975187)
(0 -0 -0.000340982)
(0 -0 -8.02179e-05)
(0 -0 -1.89212e-06)
(0 -0 1.76228e-05)
(0 -0 2.23004e-05)
(0 -0 2.36353e-05)
(0 -0 2.42506e-05)
(0 -0 2.47382e-05)
(0 -0 2.51744e-05)
(0 -0 2.55941e-05)
(0 -0 2.60494e-05)
(0 -0 2.64813e-05)
(0 -0 2.69106e-05)
(0 -0 2.73968e-05)
(0 -0 2.79092e-05)
(0 -0 2.84553e-05)
(0 -0 2.90078e-05)
(0 -0 2.9564e-05)
(0 -0 3.01495e-05)
(0 -0 3.07984e-05)
(0 -0 3.14879e-05)
(0 -0 3.22155e-05)
(0 -0 3.30038e-05)
(0 -0 3.38686e-05)
(0 -0 3.47951e-05)
(0 -0 3.57815e-05)
(0 -0 3.68474e-05)
(0 -0 3.80049e-05)
(0 -0 3.92511e-05)
(0 -0 4.05918e-05)
(0 -0 4.20492e-05)
(0 -0 4.36413e-05)
(0 -0 4.53782e-05)
(0 -0 4.72645e-05)
(0 -0 4.9335e-05)
(0 -0 5.16552e-05)
(0 -0 5.42832e-05)
(0 -0 5.72617e-05)
(0 -0 6.06391e-05)
(0 -0 6.4485e-05)
(0 -0 6.8917e-05)
(0 -0 7.41215e-05)
(0 -0 8.03714e-05)
(0 -0 8.80884e-05)
(0 -0 9.8056e-05)
(0 -0 0.000111953)
(0 -0 0.000132195)
(0 -0 0.00015345)
(0 -0 0.000127858)
(0 -0 -9.24925e-05)
(0 -2.86237e-22 -0.000721739)
(0 -0 0.0021891)
(0 -0 -0.00224139)
(0 -0 -0.00260627)
(0 -0 -0.00138354)
(0 -0 -0.000511523)
(0 -0 -0.000160017)
(0 -0 -5.56729e-05)
(0 -0 -3.02553e-05)
(0 -0 -2.47154e-05)
(0 -0 -2.36699e-05)
(0 -0 -2.35502e-05)
(0 -0 -2.36083e-05)
(0 -0 -2.36966e-05)
(0 -0 -2.3772e-05)
(0 -0 -2.37946e-05)
(0 -0 -2.38292e-05)
(0 -0 -2.38379e-05)
(0 -0 -2.37516e-05)
(0 -0 -2.36358e-05)
(0 -0 -2.34834e-05)
(0 -0 -2.33019e-05)
(0 -0 -2.30842e-05)
(0 -0 -2.28008e-05)
(0 -0 -2.24345e-05)
(0 -0 -2.20061e-05)
(0 -0 -2.15076e-05)
(0 -0 -2.09258e-05)
(0 -0 -2.02489e-05)
(0 -0 -1.94809e-05)
(0 -0 -1.86151e-05)
(0 -0 -1.76324e-05)
(0 -0 -1.65289e-05)
(0 -0 -1.53088e-05)
(0 -0 -1.39549e-05)
(0 -0 -1.24347e-05)
(0 -0 -1.07315e-05)
(0 -0 -8.83539e-06)
(0 -0 -6.73143e-06)
(0 -0 -4.37256e-06)
(0 -0 -1.68726e-06)
(0 -0 1.38879e-06)
(0 -0 4.9111e-06)
(0 -0 8.94677e-06)
(0 -0 1.35888e-05)
(0 -0 1.89805e-05)
(0 -0 2.53465e-05)
(0 -0 3.30101e-05)
(0 -0 4.24629e-05)
(0 -0 5.46125e-05)
(0 -0 7.13854e-05)
(0 -0 9.55413e-05)
(0 -0 0.000121102)
(0 -0 9.43925e-05)
(0 -0 -0.000149739)
(0 1.41336e-22 -0.000848047)
(0 -0 0.0022882)
(0 -0 -0.00326706)
(0 -0 -0.00335342)
(0 -0 -0.00176439)
(0 -0 -0.000682716)
(0 -0 -0.000251445)
(0 -0 -0.000124735)
(0 -0 -9.47802e-05)
(0 -0 -8.91495e-05)
(0 -0 -8.90142e-05)
(0 -0 -8.996e-05)
(0 -0 -9.10937e-05)
(0 -0 -9.22136e-05)
(0 -0 -9.32829e-05)
(0 -0 -9.42758e-05)
(0 -0 -9.524e-05)
(0 -0 -9.61486e-05)
(0 -0 -9.69324e-05)
(0 -0 -9.76756e-05)
(0 -0 -9.83735e-05)
(0 -0 -9.90142e-05)
(0 -0 -9.95843e-05)
(0 -0 -0.000100056)
(0 -0 -0.000100429)
(0 -0 -0.000100723)
(0 -0 -0.00010092)
(0 -0 -0.000101019)
(0 -0 -0.000101009)
(0 -0 -0.000100883)
(0 -0 -0.000100633)
(0 -0 -0.000100245)
(0 -0 -9.97201e-05)
(0 -0 -9.90602e-05)
(0 -0 -9.82379e-05)
(0 -0 -9.72176e-05)
(0 -0 -9.59916e-05)
(0 -0 -9.45508e-05)
(0 -0 -9.28707e-05)
(0 -0 -9.08998e-05)
(0 -0 -8.85703e-05)
(0 -0 -8.58175e-05)
(0 -0 -8.25783e-05)
(0 -0 -7.87757e-05)
(0 -0 -7.43061e-05)
(0 -0 -6.90178e-05)
(0 -0 -6.26759e-05)
(0 -0 -5.49466e-05)
(0 -0 -4.53274e-05)
(0 -0 -3.28909e-05)
(0 -0 -1.56815e-05)
(0 -0 9.04063e-06)
(0 -0 3.49319e-05)
(0 -0 6.96074e-06)
(0 -0 -0.000242863)
(0 6.97353e-22 -0.000954452)
(0 -0 0.00240527)
(0 -0 -0.0038564)
(0 -0 -0.00380753)
(0 -0 -0.00200934)
(0 -0 -0.000797425)
(0 -0 -0.000313551)
(0 -0 -0.000171731)
(0 -0 -0.000139038)
(0 -0 -0.000133793)
(0 -0 -0.000134689)
(0 -0 -0.000136731)
(0 -0 -0.000138934)
(0 -0 -0.000141074)
(0 -0 -0.000143134)
(0 -0 -0.000145097)
(0 -0 -0.000146984)
(0 -0 -0.000148797)
(0 -0 -0.000150472)
(0 -0 -0.000152097)
(0 -0 -0.00015367)
(0 -0 -0.000155163)
(0 -0 -0.000156563)
(0 -0 -0.000157853)
(0 -0 -0.000159041)
(0 -0 -0.000160145)
(0 -0 -0.000161139)
(0 -0 -0.000162035)
(0 -0 -0.000162823)
(0 -0 -0.00016349)
(0 -0 -0.000164029)
(0 -0 -0.000164433)
(0 -0 -0.000164705)
(0 -0 -0.000164841)
(0 -0 -0.000164812)
(0 -0 -0.00016459)
(0 -0 -0.00016418)
(0 -0 -0.000163574)
(0 -0 -0.00016274)
(0 -0 -0.000161634)
(0 -0 -0.000160199)
(0 -0 -0.00015838)
(0 -0 -0.000156117)
(0 -0 -0.000153337)
(0 -0 -0.000149945)
(0 -0 -0.000145804)
(0 -0 -0.000140708)
(0 -0 -0.000134363)
(0 -0 -0.000126326)
(0 -0 -0.000115771)
(0 -0 -0.000100957)
(0 -0 -7.95569e-05)
(0 -0 -5.80845e-05)
(0 -0 -8.89988e-05)
(0 -0 -0.00033088)
(0 -1.36605e-22 -0.00101217)
(-1.48611e-23 8.11802e-21 -0.000320776)
(-2.28396e-22 7.93327e-21 -0.000515683)
(6.50336e-23 -3.08183e-22 -0.000597795)
(9.58126e-24 -2.37987e-20 -0.000503416)
(-1.4981e-22 8.24786e-21 -0.000264313)
(6.09992e-22 8.08119e-21 3.11203e-05)
(-1.23307e-21 2.33701e-20 0.000300798)
(4.63092e-22 -2.39583e-20 0.000502593)
(9.60758e-22 -7.61372e-21 0.000632219)
(-1.41827e-21 -5.42941e-24 0.000705388)
(-1.44071e-21 -7.71712e-21 0.00074187)
(1.26578e-21 7.16513e-21 0.000757467)
(7.58825e-22 -6.04415e-20 0.000762466)
(-1.34446e-21 1.30851e-19 0.00076264)
(3.99159e-22 -7.11884e-20 0.000760743)
(-2.01159e-21 -5.33484e-20 0.000757917)
(-3.88635e-22 8.16187e-21 -0.000927877)
(-1.03159e-22 1.59633e-20 -0.00148989)
(5.7528e-22 7.71582e-21 -0.00171534)
(-1.40838e-21 -7.97009e-21 -0.00142017)
(2.6198e-21 7.4669e-21 -0.000702442)
(-1.08378e-21 -5.45812e-20 0.000175354)
(1.79143e-22 8.72876e-20 0.000972397)
(-1.2218e-22 -9.78313e-21 0.00156705)
(2.84841e-21 -1.00432e-19 0.00194884)
(-2.71024e-21 1.43393e-19 0.00216517)
(-5.37013e-22 1.29783e-19 0.00227444)
(3.17513e-22 -1.18107e-19 0.00232322)
(-6.12957e-22 1.15708e-21 0.00234151)
(4.33455e-21 -7.43273e-21 0.00234577)
(-3.23747e-21 2.6066e-20 0.00234387)
(-7.49959e-21 2.48545e-19 0.00233922)
(1.47752e-22 4.80801e-20 -0.00143957)
(-2.02197e-23 1.48336e-20 -0.00230329)
(2.95602e-22 -6.25537e-20 -0.00261663)
(-2.09238e-22 1.24798e-19 -0.00209619)
(4.91788e-22 -2.68947e-19 -0.000912037)
(1.82203e-21 1.28942e-19 0.000510409)
(-3.8505e-21 -1.40799e-21 0.00178956)
(2.31096e-21 -1.84355e-20 0.00273853)
(-2.23872e-22 -2.63743e-19 0.00334696)
(3.67242e-21 2.53187e-19 0.0036937)
(-1.3615e-21 -2.57893e-21 0.00387287)
(-6.57235e-21 -5.77066e-23 0.00395828)
(1.05e-20 -2.8943e-21 0.0039966)
(-8.96939e-21 -2.59546e-19 0.00401315)
(1.05065e-20 2.39554e-19 0.00402018)
(-1.24329e-20 4.70968e-19 0.00402296)
(4.83413e-22 -3.16191e-20 -0.00182007)
(-5.02568e-22 1.61278e-20 -0.00289157)
(1.14985e-21 -2.77599e-22 -0.00323094)
(-1.13836e-21 -1.57948e-20 -0.00248814)
(-1.59183e-21 -2.30695e-21 -0.000905011)
(2.14996e-21 -2.47084e-19 0.000958526)
(-1.37634e-21 4.71418e-19 0.00261466)
(3.0955e-22 -2.55619e-19 0.00383418)
(-2.67195e-21 1.51993e-20 0.00461394)
(4.00248e-21 -2.78614e-19 0.00506073)
(-5.97782e-21 2.57919e-19 0.00529687)
(2.90856e-22 4.83766e-19 0.00541631)
(3.43383e-21 -9.87063e-19 0.00547747)
(-6.52237e-21 9.89425e-19 0.00551179)
(1.26254e-20 -9.86397e-19 0.00553437)
(-3.02947e-21 9.85036e-19 0.00555153)
(-1.0987e-21 1.63132e-20 -0.0020708)
(1.35453e-22 6.1021e-20 -0.00326154)
(1.22297e-21 -1.86817e-19 -0.00361227)
(9.57549e-22 2.51994e-19 -0.00274195)
(-1.893e-21 -1.12425e-19 -0.000943028)
(-3.43972e-23 -1.45029e-20 0.00114643)
(-5.39234e-22 1.58197e-20 0.00298546)
(4.80649e-21 -2.6279e-22 0.00432999)
(-4.84044e-21 -1.53498e-20 0.00518632)
(-7.84009e-21 3.654e-20 0.00567767)
(-2.76658e-21 4.92562e-19 0.00594043)
(2.06798e-20 -5.14042e-19 0.00607747)
(-2.753e-20 4.80875e-19 0.00615184)
(2.11382e-20 -5.01937e-19 0.0061972)
(-4.71672e-21 5.36065e-21 0.00622946)
(1.71292e-20 1.37027e-22 0.00625506)
(-4.2873e-22 7.75165e-20 -0.00221349)
(2.26582e-21 -4.76611e-20 -0.00347868)
(-2.88301e-21 -1.7355e-20 -0.00391906)
(3.95129e-21 -2.31463e-19 -0.00314712)
(-1.26784e-22 2.34213e-19 -0.00145304)
(-9.36161e-22 -2.30996e-19 0.000532361)
(-8.20278e-21 5.09997e-19 0.00227958)
(5.11901e-21 -7.17313e-19 0.00355315)
(-2.54881e-21 5.11704e-19 0.00436123)
(2.34083e-22 4.93829e-19 0.00482311)
(-2.96908e-21 -8.32389e-22 0.00506841)
(1.91541e-20 -9.71434e-19 0.00519395)
(-1.29836e-20 1.01791e-18 0.00525884)
(-1.66877e-21 -4.83916e-19 0.00529438)
(8.12599e-21 -4.82121e-19 0.00531512)
(2.3096e-20 -4.73601e-19 0.00532666)
(8.42833e-22 -1.66361e-20 -0.0022372)
(9.84034e-22 -1.37627e-19 -0.0035672)
(-1.34705e-21 1.24948e-19 -0.0042269)
(-2.29369e-21 -1.87415e-20 -0.00383216)
(4.21953e-21 -2.30028e-19 -0.00260057)
(-3.55248e-21 2.39925e-19 -0.00106365)
(6.52721e-22 4.79049e-19 0.00032024)
(-8.22805e-21 -2.12812e-20 0.0013381)
(3.77419e-21 -6.12554e-21 0.00198395)
(1.19176e-20 -5.10577e-19 0.00234855)
(-7.70834e-21 4.78297e-19 0.00253443)
(4.69495e-21 -1.01638e-18 0.00261888)
(5.29381e-21 5.12009e-19 0.00264919)
(-6.13225e-21 -2.10821e-20 0.00265035)
(-8.02241e-21 -2.67995e-20 0.00263383)
(1.68627e-20 -1.00271e-18 0.00260371)
(-1.36639e-22 -0 -0.00208162)
(-1.257e-21 -0 -0.00337795)
(1.12277e-21 -0 -0.0042248)
(-1.43795e-22 -0 -0.00426193)
(-2.20651e-21 -0 -0.0036017)
(2.21414e-21 -0 -0.00262785)
(4.72714e-21 -0 -0.00169424)
(-8.34713e-23 -0 -0.000978844)
(7.46335e-23 -0 -0.000502688)
(-5.24945e-21 -0 -0.000209899)
(5.10923e-21 -0 -3.13575e-05)
(-1.08459e-20 -0 8.65744e-05)
(5.40642e-21 -0 0.00017714)
(-1.7427e-22 -0 0.00025816)
(-1.78164e-22 -0 0.000338159)
(-1.17637e-20 -0 0.000420673)
(0 -0 -0.00168549)
(0 -0 -0.00283407)
(0 -0 -0.00375934)
(0 -0 -0.00416036)
(0 -0 -0.00405095)
(0 -0 -0.00365259)
(0 -0 -0.00319829)
(0 -0 -0.00282371)
(0 -0 -0.00256528)
(0 -0 -0.00240448)
(0 -0 -0.00230771)
(0 -0 -0.00224637)
(0 -0 -0.00220193)
(0 -0 -0.00216423)
(0 -0 -0.00212834)
(0 -0 -0.00209228)
(0 -0 -0.00115415)
(0 -0 -0.00200377)
(0 -0 -0.00276598)
(0 -0 -0.00323312)
(0 -0 -0.00337854)
(0 -0 -0.00330911)
(0 -0 -0.00315615)
(0 -0 -0.0030073)
(0 -0 -0.00289712)
(0 -0 -0.00282684)
(0 -0 -0.0027853)
(0 -0 -0.00276081)
(0 -0 -0.0027452)
(0 -0 -0.00273376)
(0 -0 -0.00272421)
(0 -0 -0.00271564)
(0 -0 -0.000684946)
(0 -0 -0.00121477)
(0 -0 -0.00170903)
(0 -0 -0.00205209)
(0 -0 -0.00222092)
(0 -0 -0.0022624)
(0 -0 -0.00224033)
(0 -0 -0.00220116)
(0 -0 -0.00216727)
(0 -0 -0.00214451)
(0 -0 -0.00213135)
(0 -0 -0.00212458)
(0 -0 -0.00212158)
(0 -0 -0.00212075)
(0 -0 -0.0021213)
(0 -0 -0.00212292)
(0 -0 -0.00037713)
(0 -0 -0.000665004)
(0 -0 -0.0009252)
(0 -0 -0.00110822)
(0 -0 -0.00120948)
(0 -0 -0.00125216)
(0 -0 -0.00126343)
(0 -0 -0.00126225)
(0 -0 -0.00125824)
(0 -0 -0.00125498)
(0 -0 -0.00125324)
(0 -0 -0.00125286)
(0 -0 -0.00125353)
(0 -0 -0.00125505)
(0 -0 -0.00125732)
(0 -0 -0.00126032)
(0 -0 -0.000217004)
(0 -0 -0.000360638)
(0 -0 -0.000471431)
(0 -0 -0.000537493)
(0 -0 -0.000570049)
(0 -0 -0.000585432)
(0 -0 -0.000594113)
(0 -0 -0.000600151)
(0 -0 -0.000604497)
(0 -0 -0.000607417)
(0 -0 -0.000609293)
(0 -0 -0.000610593)
(0 -0 -0.000611719)
(0 -0 -0.000612957)
(0 -0 -0.000614487)
(0 -0 -0.000616359)
(0 -0 -0.000147837)
(0 -0 -0.000219414)
(0 -0 -0.000253123)
(0 -0 -0.000254838)
(0 -0 -0.0002447)
(0 -0 -0.000237762)
(0 -0 -0.000237923)
(0 -0 -0.000242493)
(0 -0 -0.000247893)
(0 -0 -0.000252153)
(0 -0 -0.000254886)
(0 -0 -0.000256465)
(0 -0 -0.000257407)
(0 -0 -0.000258125)
(0 -0 -0.000258872)
(0 -0 -0.000259706)
(0 -0 -0.000121737)
(0 -0 -0.000161698)
(0 -0 -0.000161572)
(0 -0 -0.000134382)
(0 -0 -0.000103974)
(0 -0 -8.52038e-05)
(0 -0 -7.96482e-05)
(0 -0 -8.20383e-05)
(0 -0 -8.68994e-05)
(0 -0 -9.1187e-05)
(0 -0 -9.40201e-05)
(0 -0 -9.55984e-05)
(0 -0 -9.64037e-05)
(0 -0 -9.68603e-05)
(0 -0 -9.7232e-05)
(0 -0 -9.75593e-05)
(0 -0 -0.000112211)
(0 -0 -0.000139322)
(0 -0 -0.000126152)
(0 -0 -8.81697e-05)
(0 -0 -5.01703e-05)
(0 -0 -2.67232e-05)
(0 -0 -1.86033e-05)
(0 -0 -1.97419e-05)
(0 -0 -2.40707e-05)
(0 -0 -2.81698e-05)
(0 -0 -3.09477e-05)
(0 -0 -3.2499e-05)
(0 -0 -3.32604e-05)
(0 -0 -3.36421e-05)
(0 -0 -3.39015e-05)
(0 -0 -3.40597e-05)
(0 -0 -0.000108036)
(0 -0 -0.000129866)
(0 -0 -0.000112177)
(0 -0 -7.10871e-05)
(0 -0 -3.11852e-05)
(0 -0 -6.56852e-06)
(0 -0 2.31813e-06)
(0 -0 1.68803e-06)
(0 -0 -2.32837e-06)
(0 -0 -6.26079e-06)
(0 -0 -8.96571e-06)
(0 -0 -1.04928e-05)
(0 -0 -1.12491e-05)
(0 -0 -1.16291e-05)
(0 -0 -1.18797e-05)
(0 -0 -1.2005e-05)
(0 -0 -0.00010537)
(0 -0 -0.000124668)
(0 -0 -0.00010554)
(0 -0 -6.41545e-05)
(0 -0 -2.44989e-05)
(0 -0 -1.107e-07)
(0 -0 8.76291e-06)
(0 -0 8.27261e-06)
(0 -0 4.42785e-06)
(0 -0 6.24909e-07)
(0 -0 -2.0096e-06)
(0 -0 -3.51235e-06)
(0 -0 -4.27155e-06)
(0 -0 -4.66627e-06)
(0 -0 -4.93317e-06)
(0 -0 -5.06251e-06)
(0 -0 -0.000103125)
(0 -0 -0.000120824)
(0 -0 -0.000101254)
(0 -0 -6.04671e-05)
(0 -0 -2.17473e-05)
(0 -0 1.94518e-06)
(0 -0 1.05263e-05)
(0 -0 1.00302e-05)
(0 -0 6.29309e-06)
(0 -0 2.5984e-06)
(0 -0 3.12048e-08)
(0 -0 -1.4459e-06)
(0 -0 -2.20626e-06)
(0 -0 -2.61481e-06)
(0 -0 -2.89831e-06)
(0 -0 -3.03651e-06)
(0 -0 -0.00010104)
(0 -0 -0.000117448)
(0 -0 -9.77269e-05)
(0 -0 -5.77744e-05)
(0 -0 -2.01675e-05)
(0 -0 2.70483e-06)
(0 -0 1.09128e-05)
(0 -0 1.03629e-05)
(0 -0 6.70782e-06)
(0 -0 3.11017e-06)
(0 -0 6.07172e-07)
(0 -0 -8.42508e-07)
(0 -0 -1.60007e-06)
(0 -0 -2.01798e-06)
(0 -0 -2.31487e-06)
(0 -0 -2.46181e-06)
(0 -0 -9.90498e-05)
(0 -0 -0.000114273)
(0 -0 -9.44737e-05)
(0 -0 -5.53966e-05)
(0 -0 -1.89251e-05)
(0 -0 3.11076e-06)
(0 -0 1.09297e-05)
(0 -0 1.03109e-05)
(0 -0 6.72662e-06)
(0 -0 3.22029e-06)
(0 -0 7.81e-07)
(0 -0 -6.38131e-07)
(0 -0 -1.38808e-06)
(0 -0 -1.81023e-06)
(0 -0 -2.11818e-06)
(0 -0 -2.27384e-06)
(0 -0 -9.71186e-05)
(0 -0 -0.000111202)
(0 -0 -9.13427e-05)
(0 -0 -5.3135e-05)
(0 -0 -1.77846e-05)
(0 -0 3.42368e-06)
(0 -0 1.08524e-05)
(0 -0 1.01579e-05)
(0 -0 6.63899e-06)
(0 -0 3.22346e-06)
(0 -0 8.52369e-07)
(0 -0 -5.29798e-07)
(0 -0 -1.2656e-06)
(0 -0 -1.68914e-06)
(0 -0 -2.00801e-06)
(0 -0 -2.17282e-06)
(0 -0 -9.52218e-05)
(0 -0 -0.000108193)
(0 -0 -8.82816e-05)
(0 -0 -5.09321e-05)
(0 -0 -1.6688e-05)
(0 -0 3.70034e-06)
(0 -0 1.07386e-05)
(0 -0 9.96636e-06)
(0 -0 6.51341e-06)
(0 -0 3.1939e-06)
(0 -0 8.99154e-07)
(0 -0 -4.36526e-07)
(0 -0 -1.15143e-06)
(0 -0 -1.57379e-06)
(0 -0 -1.90272e-06)
(0 -0 -2.07795e-06)
(0 -0 -9.33474e-05)
(0 -0 -0.000105231)
(0 -0 -8.5274e-05)
(0 -0 -4.87773e-05)
(0 -0 -1.56317e-05)
(0 -0 3.94029e-06)
(0 -0 1.05893e-05)
(0 -0 9.74201e-06)
(0 -0 6.36119e-06)
(0 -0 3.14552e-06)
(0 -0 9.34772e-07)
(0 -0 -3.46772e-07)
(0 -0 -1.03456e-06)
(0 -0 -1.4497e-06)
(0 -0 -1.78364e-06)
(0 -0 -1.96831e-06)
(0 -0 -9.14986e-05)
(0 -0 -0.000102312)
(0 -0 -8.23165e-05)
(0 -0 -4.66722e-05)
(0 -0 -1.4622e-05)
(0 -0 4.13801e-06)
(0 -0 1.04035e-05)
(0 -0 9.48807e-06)
(0 -0 6.18603e-06)
(0 -0 3.07851e-06)
(0 -0 9.55407e-07)
(0 -0 -2.68985e-07)
(0 -0 -9.23996e-07)
(0 -0 -1.3241e-06)
(0 -0 -1.65473e-06)
(0 -0 -1.84365e-06)
(0 -0 -8.96786e-05)
(0 -0 -9.94322e-05)
(0 -0 -7.94018e-05)
(0 -0 -4.46086e-05)
(0 -0 -1.365e-05)
(0 -0 4.30361e-06)
(0 -0 1.01929e-05)
(0 -0 9.21681e-06)
(0 -0 5.99649e-06)
(0 -0 2.99621e-06)
(0 -0 9.59333e-07)
(0 -0 -2.06881e-07)
(0 -0 -8.25638e-07)
(0 -0 -1.20427e-06)
(0 -0 -1.52361e-06)
(0 -0 -1.71052e-06)
(0 -0 -8.78735e-05)
(0 -0 -9.65722e-05)
(0 -0 -7.65083e-05)
(0 -0 -4.25638e-05)
(0 -0 -1.26923e-05)
(0 -0 4.46006e-06)
(0 -0 9.97832e-06)
(0 -0 8.94415e-06)
(0 -0 5.8045e-06)
(0 -0 2.90863e-06)
(0 -0 9.54058e-07)
(0 -0 -1.56218e-07)
(0 -0 -7.3888e-07)
(0 -0 -1.09323e-06)
(0 -0 -1.39839e-06)
(0 -0 -1.5806e-06)
(0 -0 -8.60558e-05)
(0 -0 -9.3702e-05)
(0 -0 -7.36051e-05)
(0 -0 -4.05078e-05)
(0 -0 -1.17211e-05)
(0 -0 4.63262e-06)
(0 -0 9.78161e-06)
(0 -0 8.68785e-06)
(0 -0 5.62567e-06)
(0 -0 2.83038e-06)
(0 -0 9.54313e-07)
(0 -0 -1.05963e-07)
(0 -0 -6.57515e-07)
(0 -0 -9.92117e-07)
(0 -0 -1.28656e-06)
(0 -0 -1.46427e-06)
(0 -0 -8.41984e-05)
(0 -0 -9.07929e-05)
(0 -0 -7.06643e-05)
(0 -0 -3.84156e-05)
(0 -0 -1.07149e-05)
(0 -0 4.83952e-06)
(0 -0 9.61724e-06)
(0 -0 8.46071e-06)
(0 -0 5.47288e-06)
(0 -0 2.77415e-06)
(0 -0 9.70577e-07)
(0 -0 -4.64293e-08)
(0 -0 -5.74525e-07)
(0 -0 -8.96899e-07)
(0 -0 -1.18621e-06)
(0 -0 -1.36176e-06)
(0 -0 -8.22823e-05)
(0 -0 -8.78284e-05)
(0 -0 -6.7672e-05)
(0 -0 -3.62762e-05)
(0 -0 -9.66479e-06)
(0 -0 5.08749e-06)
(0 -0 9.49009e-06)
(0 -0 8.26662e-06)
(0 -0 5.34861e-06)
(0 -0 2.74248e-06)
(0 -0 1.00775e-06)
(0 -0 3.0807e-08)
(0 -0 -4.78492e-07)
(0 -0 -7.94442e-07)
(0 -0 -1.08565e-06)
(0 -0 -1.26832e-06)
(0 -0 -8.02979e-05)
(0 -0 -8.48015e-05)
(0 -0 -6.46249e-05)
(0 -0 -3.40869e-05)
(0 -0 -8.56809e-06)
(0 -0 5.37745e-06)
(0 -0 9.39936e-06)
(0 -0 8.10253e-06)
(0 -0 5.24983e-06)
(0 -0 2.73493e-06)
(0 -0 1.07109e-06)
(0 -0 1.3518e-07)
(0 -0 -3.5532e-07)
(0 -0 -6.69534e-07)
(0 -0 -9.73987e-07)
(0 -0 -1.18615e-06)
(0 -0 -7.824e-05)
(0 -0 -8.17058e-05)
(0 -0 -6.15154e-05)
(0 -0 -3.18425e-05)
(0 -0 -7.42392e-06)
(0 -0 5.70649e-06)
(0 -0 9.33886e-06)
(0 -0 7.96278e-06)
(0 -0 5.1748e-06)
(0 -0 2.75444e-06)
(0 -0 1.16536e-06)
(0 -0 2.7472e-07)
(0 -0 -1.96366e-07)
(0 -0 -5.13831e-07)
(0 -0 -8.48381e-07)
(0 -0 -1.12477e-06)
(0 -0 -7.61222e-05)
(0 -0 -7.85519e-05)
(0 -0 -5.83518e-05)
(0 -0 -2.9551e-05)
(0 -0 -6.24398e-06)
(0 -0 6.059e-06)
(0 -0 9.29171e-06)
(0 -0 7.8335e-06)
(0 -0 5.11297e-06)
(0 -0 2.79293e-06)
(0 -0 1.28438e-06)
(0 -0 4.43431e-07)
(0 -0 -7.76331e-09)
(0 -0 -3.35018e-07)
(0 -0 -7.19266e-07)
(0 -0 -1.09973e-06)
(0 -0 -7.40051e-05)
(0 -0 -7.53982e-05)
(0 -0 -5.51893e-05)
(0 -0 -2.72636e-05)
(0 -0 -5.07568e-06)
(0 -0 6.3888e-06)
(0 -0 9.2149e-06)
(0 -0 7.67366e-06)
(0 -0 5.02388e-06)
(0 -0 2.80888e-06)
(0 -0 1.3854e-06)
(0 -0 5.96637e-07)
(0 -0 1.66466e-07)
(0 -0 -1.7594e-07)
(0 -0 -6.26379e-07)
(0 -0 -1.13962e-06)
(0 -0 -7.19878e-05)
(0 -0 -7.23435e-05)
(0 -0 -5.21262e-05)
(0 -0 -2.50746e-05)
(0 -0 -4.00794e-06)
(0 -0 6.61577e-06)
(0 -0 9.03427e-06)
(0 -0 7.41144e-06)
(0 -0 4.83559e-06)
(0 -0 2.72731e-06)
(0 -0 1.38847e-06)
(0 -0 6.52927e-07)
(0 -0 2.43855e-07)
(0 -0 -1.15822e-07)
(0 -0 -6.37945e-07)
(0 -0 -1.27522e-06)
(0 -0 -7.01493e-05)
(0 -0 -6.94856e-05)
(0 -0 -4.92572e-05)
(0 -0 -2.30757e-05)
(0 -0 -3.12614e-06)
(0 -0 6.66202e-06)
(0 -0 8.67863e-06)
(0 -0 6.97824e-06)
(0 -0 4.47833e-06)
(0 -0 2.47673e-06)
(0 -0 1.22241e-06)
(0 -0 5.38271e-07)
(0 -0 1.49438e-07)
(0 -0 -2.24255e-07)
(0 -0 -7.9588e-07)
(0 -0 -1.50405e-06)
(0 -0 -6.84942e-05)
(0 -0 -6.68169e-05)
(0 -0 -4.65955e-05)
(0 -0 -2.12876e-05)
(0 -0 -2.44083e-06)
(0 -0 6.52187e-06)
(0 -0 8.14641e-06)
(0 -0 6.37357e-06)
(0 -0 3.95046e-06)
(0 -0 2.05681e-06)
(0 -0 8.89435e-07)
(0 -0 2.57493e-07)
(0 -0 -1.07983e-07)
(0 -0 -4.78452e-07)
(0 -0 -1.06183e-06)
(0 -0 -1.69615e-06)
(0 -0 0.00273159)
(0 -0 -0.00381957)
(0 -0 -0.00392446)
(0 -0 -0.00207843)
(0 -0 -0.000823519)
(0 -0 -0.000313136)
(0 -0 -0.000164739)
(0 -0 -0.000131296)
(0 -0 -0.000126151)
(0 -0 -0.000127356)
(0 -0 -0.000129694)
(0 -0 -0.000132148)
(0 -0 -0.000134505)
(0 -0 -0.000136779)
(0 -0 -0.000138956)
(0 -0 -0.000141028)
(0 -0 -0.000143028)
(0 -0 -0.000144904)
(0 -0 -0.00014673)
(0 -0 -0.000148509)
(0 -0 -0.000150206)
(0 -0 -0.000151809)
(0 -0 -0.000153318)
(0 -0 -0.000154735)
(0 -0 -0.000156073)
(0 -0 -0.000157313)
(0 -0 -0.00015847)
(0 -0 -0.000159538)
(0 -0 -0.0001605)
(0 -0 -0.00016135)
(0 -0 -0.000162088)
(0 -0 -0.000162716)
(0 -0 -0.000163224)
(0 -0 -0.000163593)
(0 -0 -0.000163806)
(0 -0 -0.000163878)
(0 -0 -0.000163798)
(0 -0 -0.000163536)
(0 -0 -0.000163057)
(0 -0 -0.000162326)
(0 -0 -0.000161299)
(0 -0 -0.00015993)
(0 -0 -0.00015816)
(0 -0 -0.000155917)
(0 -0 -0.0001531)
(0 -0 -0.000149556)
(0 -0 -0.000145068)
(0 -0 -0.000139307)
(0 -0 -0.000131645)
(0 -0 -0.000120749)
(0 -0 -0.000105006)
(0 -0 -9.08453e-05)
(0 -0 -0.000124761)
(0 -0 -0.000345895)
(0 -0 -0.000964986)
(0 -0 0.00325525)
(0 -0 -0.00311476)
(0 -0 -0.00367703)
(0 -0 -0.00198081)
(0 -0 -0.000754213)
(0 -0 -0.00025489)
(0 -0 -0.000108436)
(0 -0 -7.49117e-05)
(0 -0 -6.93179e-05)
(0 -0 -6.98608e-05)
(0 -0 -7.1465e-05)
(0 -0 -7.31805e-05)
(0 -0 -7.48084e-05)
(0 -0 -7.63812e-05)
(0 -0 -7.78874e-05)
(0 -0 -7.92849e-05)
(0 -0 -8.06337e-05)
(0 -0 -8.18976e-05)
(0 -0 -8.31209e-05)
(0 -0 -8.43133e-05)
(0 -0 -8.54426e-05)
(0 -0 -8.64973e-05)
(0 -0 -8.74898e-05)
(0 -0 -8.84102e-05)
(0 -0 -8.92654e-05)
(0 -0 -9.00497e-05)
(0 -0 -9.07786e-05)
(0 -0 -9.14422e-05)
(0 -0 -9.2024e-05)
(0 -0 -9.25174e-05)
(0 -0 -9.29295e-05)
(0 -0 -9.32591e-05)
(0 -0 -9.34937e-05)
(0 -0 -9.36276e-05)
(0 -0 -9.36527e-05)
(0 -0 -9.35796e-05)
(0 -0 -9.33991e-05)
(0 -0 -9.30819e-05)
(0 -0 -9.26106e-05)
(0 -0 -9.19639e-05)
(0 -0 -9.1109e-05)
(0 -0 -9.00127e-05)
(0 -0 -8.86399e-05)
(0 -0 -8.69413e-05)
(0 -0 -8.48534e-05)
(0 -0 -8.22804e-05)
(0 -0 -7.90911e-05)
(0 -0 -7.50904e-05)
(0 -0 -6.98947e-05)
(0 -0 -6.26685e-05)
(0 -0 -5.26427e-05)
(0 -0 -4.5871e-05)
(0 -0 -8.00105e-05)
(0 -0 -0.000264035)
(0 -0 -0.000764129)
(0 -0 0.00379627)
(0 -0 -0.00196126)
(0 -0 -0.00312933)
(0 -0 -0.00174797)
(0 -0 -0.000638014)
(0 -0 -0.000176974)
(0 -0 -3.99432e-05)
(0 -0 -7.80541e-06)
(0 -0 -1.75044e-06)
(0 -0 -1.35894e-06)
(0 -0 -1.94177e-06)
(0 -0 -2.65175e-06)
(0 -0 -3.31294e-06)
(0 -0 -3.95152e-06)
(0 -0 -4.56234e-06)
(0 -0 -5.07808e-06)
(0 -0 -5.57172e-06)
(0 -0 -6.02976e-06)
(0 -0 -6.45484e-06)
(0 -0 -6.86145e-06)
(0 -0 -7.23302e-06)
(0 -0 -7.55551e-06)
(0 -0 -7.84593e-06)
(0 -0 -8.08673e-06)
(0 -0 -8.28019e-06)
(0 -0 -8.43184e-06)
(0 -0 -8.55193e-06)
(0 -0 -8.62367e-06)
(0 -0 -8.63185e-06)
(0 -0 -8.57518e-06)
(0 -0 -8.46725e-06)
(0 -0 -8.30126e-06)
(0 -0 -8.05818e-06)
(0 -0 -7.74409e-06)
(0 -0 -7.35401e-06)
(0 -0 -6.88783e-06)
(0 -0 -6.33604e-06)
(0 -0 -5.67502e-06)
(0 -0 -4.89481e-06)
(0 -0 -3.98128e-06)
(0 -0 -2.90693e-06)
(0 -0 -1.64873e-06)
(0 -0 -1.87456e-07)
(0 -0 1.51332e-06)
(0 -0 3.49846e-06)
(0 -0 5.82483e-06)
(0 -0 8.55887e-06)
(0 -0 1.17889e-05)
(0 -0 1.56998e-05)
(0 -0 2.07045e-05)
(0 -0 2.68899e-05)
(0 -0 2.89282e-05)
(0 -0 -1.12089e-06)
(0 -0 -0.000139116)
(0 -0 -0.000497091)
(0 -0 0.00418637)
(0 -0 -0.000876222)
(0 -0 -0.00255354)
(0 -0 -0.00150363)
(0 -0 -0.000535916)
(0 -0 -0.000121722)
(0 -0 3.1317e-06)
(0 -0 3.29855e-05)
(0 -0 3.90818e-05)
(0 -0 4.00569e-05)
(0 -0 4.01394e-05)
(0 -0 4.00753e-05)
(0 -0 4.00162e-05)
(0 -0 3.99669e-05)
(0 -0 3.9917e-05)
(0 -0 3.99407e-05)
(0 -0 3.99684e-05)
(0 -0 3.99907e-05)
(0 -0 4.00446e-05)
(0 -0 4.01173e-05)
(0 -0 4.02013e-05)
(0 -0 4.03133e-05)
(0 -0 4.04368e-05)
(0 -0 4.05913e-05)
(0 -0 4.07775e-05)
(0 -0 4.09853e-05)
(0 -0 4.12155e-05)
(0 -0 4.14889e-05)
(0 -0 4.18111e-05)
(0 -0 4.21744e-05)
(0 -0 4.25667e-05)
(0 -0 4.30032e-05)
(0 -0 4.35095e-05)
(0 -0 4.40734e-05)
(0 -0 4.4699e-05)
(0 -0 4.53977e-05)
(0 -0 4.61782e-05)
(0 -0 4.7061e-05)
(0 -0 4.80551e-05)
(0 -0 4.91712e-05)
(0 -0 5.04336e-05)
(0 -0 5.1862e-05)
(0 -0 5.34694e-05)
(0 -0 5.52902e-05)
(0 -0 5.73655e-05)
(0 -0 5.97322e-05)
(0 -0 6.24177e-05)
(0 -0 6.54461e-05)
(0 -0 6.888e-05)
(0 -0 7.28583e-05)
(0 -0 7.70679e-05)
(0 -0 7.70937e-05)
(0 -0 5.34204e-05)
(0 -0 -4.1991e-05)
(0 -0 -0.000273707)
(0 -0 0.00440409)
(0 -0 -0.000139801)
(0 -0 -0.00213091)
(0 -0 -0.00132894)
(0 -0 -0.000476632)
(0 -0 -0.000101373)
(0 -0 1.29837e-05)
(0 -0 4.06124e-05)
(0 -0 4.64319e-05)
(0 -0 4.75759e-05)
(0 -0 4.78847e-05)
(0 -0 4.80363e-05)
(0 -0 4.81638e-05)
(0 -0 4.83104e-05)
(0 -0 4.84423e-05)
(0 -0 4.86195e-05)
(0 -0 4.87941e-05)
(0 -0 4.89425e-05)
(0 -0 4.91271e-05)
(0 -0 4.93369e-05)
(0 -0 4.95404e-05)
(0 -0 4.97585e-05)
(0 -0 4.9977e-05)
(0 -0 5.02142e-05)
(0 -0 5.04739e-05)
(0 -0 5.07487e-05)
(0 -0 5.10502e-05)
(0 -0 5.13946e-05)
(0 -0 5.17705e-05)
(0 -0 5.21663e-05)
(0 -0 5.25826e-05)
(0 -0 5.30389e-05)
(0 -0 5.35638e-05)
(0 -0 5.41449e-05)
(0 -0 5.47854e-05)
(0 -0 5.55045e-05)
(0 -0 5.63093e-05)
(0 -0 5.72187e-05)
(0 -0 5.82436e-05)
(0 -0 5.9392e-05)
(0 -0 6.06845e-05)
(0 -0 6.21422e-05)
(0 -0 6.37788e-05)
(0 -0 6.5629e-05)
(0 -0 6.77341e-05)
(0 -0 7.01221e-05)
(0 -0 7.28026e-05)
(0 -0 7.57668e-05)
(0 -0 7.90153e-05)
(0 -0 8.2545e-05)
(0 -0 8.58783e-05)
(0 -0 8.54354e-05)
(0 -0 6.76447e-05)
(0 -0 3.17958e-06)
(0 -0 -0.0001404)
(0 -0 0.0045087)
(0 -0 0.000252541)
(0 -0 -0.00189038)
(0 -0 -0.00123557)
(0 -0 -0.000454624)
(0 -0 -0.000103953)
(0 -0 3.61963e-06)
(0 -0 2.97165e-05)
(0 -0 3.52188e-05)
(0 -0 3.6323e-05)
(0 -0 3.66173e-05)
(0 -0 3.67557e-05)
(0 -0 3.68618e-05)
(0 -0 3.7003e-05)
(0 -0 3.71245e-05)
(0 -0 3.72566e-05)
(0 -0 3.73898e-05)
(0 -0 3.74983e-05)
(0 -0 3.76486e-05)
(0 -0 3.78253e-05)
(0 -0 3.79838e-05)
(0 -0 3.81493e-05)
(0 -0 3.83121e-05)
(0 -0 3.84866e-05)
(0 -0 3.86796e-05)
(0 -0 3.88931e-05)
(0 -0 3.91417e-05)
(0 -0 3.94291e-05)
(0 -0 3.97305e-05)
(0 -0 4.00394e-05)
(0 -0 4.03723e-05)
(0 -0 4.07458e-05)
(0 -0 4.1187e-05)
(0 -0 4.16877e-05)
(0 -0 4.22497e-05)
(0 -0 4.28961e-05)
(0 -0 4.36316e-05)
(0 -0 4.44733e-05)
(0 -0 4.54354e-05)
(0 -0 4.65252e-05)
(0 -0 4.77577e-05)
(0 -0 4.9155e-05)
(0 -0 5.07337e-05)
(0 -0 5.25264e-05)
(0 -0 5.45742e-05)
(0 -0 5.69016e-05)
(0 -0 5.95099e-05)
(0 -0 6.23724e-05)
(0 -0 6.54603e-05)
(0 -0 6.87137e-05)
(0 -0 7.16182e-05)
(0 -0 7.11925e-05)
(0 -0 5.74043e-05)
(0 -0 1.14715e-05)
(0 -0 -8.12572e-05)
(0 -0 0.00456894)
(0 -0 0.000421814)
(0 -0 -0.00178394)
(0 -0 -0.00120086)
(0 -0 -0.00045342)
(0 -0 -0.000114161)
(0 -0 -9.73295e-06)
(0 -0 1.56462e-05)
(0 -0 2.09502e-05)
(0 -0 2.19755e-05)
(0 -0 2.21936e-05)
(0 -0 2.22641e-05)
(0 -0 2.23099e-05)
(0 -0 2.23968e-05)
(0 -0 2.24649e-05)
(0 -0 2.25082e-05)
(0 -0 2.25638e-05)
(0 -0 2.26099e-05)
(0 -0 2.26967e-05)
(0 -0 2.28014e-05)
(0 -0 2.28836e-05)
(0 -0 2.29735e-05)
(0 -0 2.30623e-05)
(0 -0 2.3159e-05)
(0 -0 2.32728e-05)
(0 -0 2.34153e-05)
(0 -0 2.35969e-05)
(0 -0 2.38085e-05)
(0 -0 2.40239e-05)
(0 -0 2.42451e-05)
(0 -0 2.44983e-05)
(0 -0 2.47941e-05)
(0 -0 2.51553e-05)
(0 -0 2.55786e-05)
(0 -0 2.60638e-05)
(0 -0 2.66353e-05)
(0 -0 2.7297e-05)
(0 -0 2.80637e-05)
(0 -0 2.89536e-05)
(0 -0 2.99739e-05)
(0 -0 3.11333e-05)
(0 -0 3.24526e-05)
(0 -0 3.39514e-05)
(0 -0 3.56585e-05)
(0 -0 3.76143e-05)
(0 -0 3.98392e-05)
(0 -0 4.23254e-05)
(0 -0 4.50361e-05)
(0 -0 4.79326e-05)
(0 -0 5.09403e-05)
(0 -0 5.35516e-05)
(0 -0 5.31395e-05)
(0 -0 4.15276e-05)
(0 -0 5.1551e-06)
(0 -0 -6.21829e-05)
(0 -0 0.00463047)
(0 -0 0.000480797)
(0 -0 -0.00175589)
(0 -0 -0.00120012)
(0 -0 -0.00046099)
(0 -0 -0.000123813)
(0 -0 -1.9841e-05)
(0 -0 5.46355e-06)
(0 -0 1.07085e-05)
(0 -0 1.16793e-05)
(0 -0 1.18396e-05)
(0 -0 1.18611e-05)
(0 -0 1.187e-05)
(0 -0 1.19079e-05)
(0 -0 1.19358e-05)
(0 -0 1.19152e-05)
(0 -0 1.192e-05)
(0 -0 1.19286e-05)
(0 -0 1.19634e-05)