/*--------------------------------*- C++ -*----------------------------------*\
| =========                 |                                                 |
| \\      /  F ield         | OpenFOAM: The Open Source CFD Toolbox           |
|  \\    /   O peration     | Version:  2412                                  |
|   \\  /    A nd           | Website:  www.openfoam.com                      |
|    \\/     M anipulation  |                                                 |
\*---------------------------------------------------------------------------*/
FoamFile
{
    version     2.0;
    format      ascii;
    arch        "LSB;label=32;scalar=64";
    class       volVectorField;
    location    "27.5";
    object      U;
}
// * * * * * * * * * * * * * * * * * * * * * * * * * * * * * * * * * * * * * //

dimensions      [0 1 -1 0 0 0 0];

internalField   nonuniform List<vector> 
5285
(
(0.102497 -0.0107514 0)
(0.102195 -0.0105748 0)
(0.101901 -0.0103869 0)
(0.101617 -0.0101882 0)
(0.102683 -0.0104329 0)
(0.102388 -0.0102707 0)
(0.1021 -0.0100974 0)
(0.101821 -0.00991348 0)
(0.101551 -0.00971942 0)
(0.101291 -0.00951586 0)
(0.101042 -0.00930352 0)
(0.100803 -0.00908306 0)
(0.100575 -0.00885527 0)
(0.100359 -0.00862096 0)
(0.100155 -0.00838102 0)
(0.0999631 -0.00813634 0)
(0.0997838 -0.00788785 0)
(0.0996171 -0.00763648 0)
(0.099463 -0.00738317 0)
(0.0993216 -0.00712883 0)
(0.0991926 -0.00687437 0)
(0.0990759 -0.00662064 0)
(0.0989714 -0.00636846 0)
(0.0988785 -0.00611859 0)
(0.0987972 -0.00587173 0)
(0.0987267 -0.00562851 0)
(0.0986669 -0.0053895 0)
(0.098617 -0.00515521 0)
(0.0985767 -0.00492607 0)
(0.0985453 -0.00470245 0)
(0.0985224 -0.00448467 0)
(0.0985072 -0.00427297 0)
(0.0984993 -0.00406756 0)
(0.0984981 -0.00386859 0)
(0.0985031 -0.00367616 0)
(0.0985137 -0.00349033 0)
(0.0985294 -0.00331113 0)
(0.0985497 -0.00313856 0)
(0.0985742 -0.0029726 0)
(0.0986024 -0.00281321 0)
(0.0986339 -0.00266033 0)
(0.0986684 -0.00251392 0)
(0.0987054 -0.00237389 0)
(0.0987447 -0.00224017 0)
(0.0987857 -0.00211266 0)
(0.0988282 -0.00199124 0)
(0.0988719 -0.00187577 0)
(0.0989165 -0.00176607 0)
(0.102851 -0.0101223 0)
(0.102563 -0.00997346 0)
(0.102282 -0.00981383 0)
(0.102008 -0.00964377 0)
(0.101743 -0.00946377 0)
(0.101487 -0.00927439 0)
(0.101241 -0.00907625 0)
(0.101004 -0.00886999 0)
(0.100778 -0.00865631 0)
(0.100563 -0.00843598 0)
(0.100359 -0.00820981 0)
(0.100166 -0.00797865 0)
(0.0999857 -0.00774335 0)
(0.0998169 -0.0075048 0)
(0.0996601 -0.00726388 0)
(0.0995152 -0.00702148 0)
(0.0993824 -0.00677844 0)
(0.0992613 -0.00653559 0)
(0.0991519 -0.00629373 0)
(0.0990539 -0.00605358 0)
(0.098967 -0.00581583 0)
(0.0988909 -0.00558111 0)
(0.0988251 -0.00534998 0)
(0.0987691 -0.00512295 0)
(0.0987226 -0.00490047 0)
(0.0986849 -0.00468291 0)
(0.0986557 -0.00447062 0)
(0.0986343 -0.00426387 0)
(0.0986203 -0.00406289 0)
(0.098613 -0.00386786 0)
(0.098612 -0.00367891 0)
(0.0986168 -0.00349613 0)
(0.0986268 -0.00331959 0)
(0.0986417 -0.00314932 0)
(0.0986609 -0.00298533 0)
(0.098684 -0.0028276 0)
(0.0987107 -0.00267611 0)
(0.0987405 -0.00253082 0)
(0.098773 -0.00239169 0)
(0.0988079 -0.00225865 0)
(0.0988449 -0.00213162 0)
(0.0988836 -0.0020105 0)
(0.0989236 -0.00189515 0)
(0.0989646 -0.00178543 0)
(0.103002 -0.00981968 0)
(0.102721 -0.00968339 0)
(0.102447 -0.00953653 0)
(0.10218 -0.00937948 0)
(0.10192 -0.00921268 0)
(0.101668 -0.00903662 0)
(0.101426 -0.00885187 0)
(0.101192 -0.00865901 0)
(0.100968 -0.00845869 0)
(0.100754 -0.00825163 0)
(0.100551 -0.00803856 0)
(0.100358 -0.00782029 0)
(0.100176 -0.00759762 0)
(0.100006 -0.00737138 0)
(0.0998471 -0.00714241 0)
(0.0996996 -0.00691154 0)
(0.0995634 -0.00667958 0)
(0.0994386 -0.00644733 0)
(0.099325 -0.00621554 0)
(0.0992224 -0.00598492 0)
(0.0991306 -0.00575615 0)
(0.0990493 -0.00552983 0)
(0.098978 -0.00530653 0)
(0.0989165 -0.00508674 0)
(0.0988642 -0.00487093 0)
(0.0988208 -0.00465949 0)
(0.0987857 -0.00445277 0)
(0.0987585 -0.00425107 0)
(0.0987386 -0.00405462 0)
(0.0987256 -0.00386365 0)
(0.0987189 -0.00367832 0)
(0.0987182 -0.00349874 0)
(0.0987228 -0.00332501 0)
(0.0987324 -0.0031572 0)
(0.0987466 -0.00299532 0)
(0.0987648 -0.00283941 0)
(0.0987867 -0.00268945 0)
(0.098812 -0.00254544 0)
(0.0988402 -0.00240734 0)
(0.0988709 -0.00227512 0)
(0.0989039 -0.0021487 0)
(0.0989388 -0.00202801 0)
(0.0989752 -0.00191291 0)
(0.0990128 -0.00180329 0)
(0.103138 -0.00952535 0)
(0.102865 -0.0094007 0)
(0.102598 -0.00926577 0)
(0.102337 -0.0091209 0)
(0.102082 -0.00896647 0)
(0.101836 -0.00880292 0)
(0.101597 -0.00863076 0)
(0.101366 -0.00845053 0)
(0.101145 -0.00826284 0)
(0.100933 -0.00806835 0)
(0.100731 -0.00786774 0)
(0.100538 -0.00766175 0)
(0.100356 -0.00745115 0)
(0.100185 -0.00723671 0)
(0.100025 -0.00701922 0)
(0.0998748 -0.00679948 0)
(0.0997359 -0.00657825 0)
(0.099608 -0.00635629 0)
(0.0994907 -0.00613432 0)
(0.0993841 -0.00591304 0)
(0.099288 -0.00569308 0)
(0.0992019 -0.00547505 0)
(0.0991258 -0.0052595 0)
(0.0990591 -0.00504692 0)
(0.0990016 -0.00483778 0)
(0.0989528 -0.00463248 0)
(0.0989123 -0.00443137 0)
(0.0988796 -0.00423478 0)
(0.0988543 -0.00404297 0)
(0.0988358 -0.00385617 0)
(0.0988239 -0.00367457 0)
(0.0988178 -0.00349832 0)
(0.0988173 -0.00332753 0)
(0.0988219 -0.0031623 0)
(0.0988312 -0.00300268 0)
(0.0988447 -0.00284872 0)
(0.098862 -0.00270044 0)
(0.0988829 -0.00255783 0)
(0.0989068 -0.00242091 0)
(0.0989335 -0.00228963 0)
(0.0989626 -0.00216395 0)
(0.0989938 -0.00204381 0)
(0.0990267 -0.00192909 0)
(0.099061 -0.00181968 0)
(0.103261 -0.00923931 0)
(0.102995 -0.00912551 0)
(0.102735 -0.00900171 0)
(0.10248 -0.00886822 0)
(0.102231 -0.00872537 0)
(0.10199 -0.00857355 0)
(0.101755 -0.00841323 0)
(0.101528 -0.00824491 0)
(0.10131 -0.00806914 0)
(0.1011 -0.00788654 0)
(0.100899 -0.00769775 0)
(0.100708 -0.00750346 0)
(0.100526 -0.00730437 0)
(0.100354 -0.00710123 0)
(0.100193 -0.00689477 0)
(0.100041 -0.00668575 0)
(0.0999002 -0.00647488 0)
(0.0997696 -0.0062629 0)
(0.0996493 -0.00605049 0)
(0.0995392 -0.00583832 0)
(0.0994391 -0.005627 0)
(0.099349 -0.00541712 0)
(0.0992684 -0.00520922 0)
(0.0991971 -0.00500379 0)
(0.0991348 -0.00480129 0)
(0.099081 -0.00460213 0)
(0.0990355 -0.00440667 0)
(0.0989977 -0.00421524 0)
(0.0989672 -0.00402813 0)
(0.0989437 -0.00384558 0)
(0.0989267 -0.00366781 0)
(0.0989157 -0.003495 0)
(0.0989103 -0.00332727 0)
(0.09891 -0.00316475 0)
(0.0989146 -0.00300751 0)
(0.0989236 -0.00285563 0)
(0.0989365 -0.00270914 0)
(0.0989531 -0.00256808 0)
(0.0989729 -0.00243244 0)
(0.0989957 -0.00230223 0)
(0.099021 -0.00217741 0)
(0.0990485 -0.00205793 0)
(0.099078 -0.00194369 0)
(0.099109 -0.00183461 0)
(0.103371 -0.00896155 0)
(0.103113 -0.00885784 0)
(0.10286 -0.00874442 0)
(0.102611 -0.00862155 0)
(0.102368 -0.00848953 0)
(0.102132 -0.00834871 0)
(0.101902 -0.00819951 0)
(0.101679 -0.0080424 0)
(0.101463 -0.00787789 0)
(0.101256 -0.00770653 0)
(0.101057 -0.00752895 0)
(0.100867 -0.00734577 0)
(0.100686 -0.00715767 0)
(0.100514 -0.00696533 0)
(0.100352 -0.00676945 0)
(0.100199 -0.00657073 0)
(0.100057 -0.00636987 0)
(0.0999237 -0.00616755 0)
(0.0998008 -0.00596443 0)
(0.0996877 -0.00576113 0)
(0.0995843 -0.00555826 0)
(0.0994904 -0.00535638 0)
(0.0994059 -0.00515602 0)
(0.0993304 -0.00495766 0)
(0.0992637 -0.00476175 0)
(0.0992054 -0.00456871 0)
(0.0991552 -0.0043789 0)
(0.0991127 -0.00419266 0)
(0.0990775 -0.0040103 0)
(0.0990492 -0.00383208 0)
(0.0990273 -0.00365822 0)
(0.0990116 -0.00348893 0)
(0.0990015 -0.00332437 0)
(0.0989967 -0.00316466 0)
(0.0989968 -0.00300992 0)
(0.0990014 -0.00286023 0)
(0.0990101 -0.00271565 0)
(0.0990226 -0.00257624 0)
(0.0990384 -0.00244201 0)
(0.0990574 -0.00231298 0)
(0.099079 -0.00218913 0)
(0.099103 -0.00207042 0)
(0.0991291 -0.00195678 0)
(0.0991569 -0.00184811 0)
(0.10347 -0.00869201 0)
(0.103219 -0.00859768 0)
(0.102973 -0.00849392 0)
(0.102731 -0.00838095 0)
(0.102494 -0.00825906 0)
(0.102263 -0.00812854 0)
(0.102037 -0.00798978 0)
(0.101818 -0.00784321 0)
(0.101606 -0.00768931 0)
(0.101402 -0.0075286 0)
(0.101205 -0.00736163 0)
(0.101016 -0.00718901 0)
(0.100836 -0.00701137 0)
(0.100665 -0.00682935 0)
(0.100502 -0.0066436 0)
(0.100349 -0.00645478 0)
(0.100205 -0.00626357 0)
(0.100071 -0.00607058 0)
(0.0999456 -0.00587646 0)
(0.0998299 -0.00568181 0)
(0.0997236 -0.00548719 0)
(0.0996265 -0.00529315 0)
(0.0995384 -0.00510019 0)
(0.0994591 -0.0049088 0)
(0.0993884 -0.00471942 0)
(0.099326 -0.00453246 0)
(0.0992715 -0.00434829 0)
(0.0992246 -0.00416726 0)
(0.0991849 -0.00398968 0)
(0.0991521 -0.00381583 0)
(0.0991258 -0.00364595 0)
(0.0991056 -0.00348026 0)
(0.0990911 -0.00331894 0)
(0.099082 -0.00316214 0)
(0.0990778 -0.00300999 0)
(0.0990782 -0.0028626 0)
(0.0990828 -0.00272004 0)
(0.0990913 -0.00258239 0)
(0.0991033 -0.00244968 0)
(0.0991185 -0.00232194 0)
(0.0991365 -0.00219916 0)
(0.0991571 -0.00208132 0)
(0.0991799 -0.00196837 0)
(0.0992045 -0.00186022 0)
(0.103559 -0.00843056 0)
(0.103315 -0.00834494 0)
(0.103076 -0.00825017 0)
(0.10284 -0.00814645 0)
(0.102609 -0.00803401 0)
(0.102383 -0.00791313 0)
(0.102162 -0.00778417 0)
(0.101948 -0.00764752 0)
(0.101739 -0.00750362 0)
(0.101538 -0.00735295 0)
(0.101343 -0.00719604 0)
(0.101157 -0.00703345 0)
(0.100978 -0.00686577 0)
(0.100807 -0.00669359 0)
(0.100645 -0.00651754 0)
(0.100491 -0.00633823 0)
(0.100346 -0.0061563 0)
(0.100211 -0.00597233 0)
(0.100084 -0.00578693 0)
(0.099966 -0.00560066 0)
(0.0998572 -0.00541408 0)
(0.0997572 -0.0052277 0)
(0.099666 -0.00504201 0)
(0.0995833 -0.00485749 0)
(0.099509 -0.00467455 0)
(0.0994428 -0.00449362 0)
(0.0993843 -0.00431507 0)
(0.0993334 -0.00413924 0)
(0.0992896 -0.00396646 0)
(0.0992526 -0.00379701 0)
(0.0992221 -0.00363116 0)
(0.0991977 -0.00346913 0)
(0.099179 -0.00331113 0)
(0.0991657 -0.00315732 0)
(0.0991574 -0.00300785 0)
(0.0991538 -0.00286284 0)
(0.0991545 -0.0027224 0)
(0.0991591 -0.0025866 0)
(0.0991674 -0.0024555 0)
(0.099179 -0.00232914 0)
(0.0991936 -0.00220753 0)
(0.0992108 -0.00209067 0)
(0.0992304 -0.0019785 0)
(0.099252 -0.00187097 0)
(0.103638 -0.00817704 0)
(0.103402 -0.00809952 0)
(0.103169 -0.00801311 0)
(0.10294 -0.007918 0)
(0.102715 -0.0078144 0)
(0.102494 -0.00770255 0)
(0.102278 -0.00758278 0)
(0.102068 -0.00745545 0)
(0.101863 -0.00732097 0)
(0.101665 -0.00717979 0)
(0.101473 -0.0070324 0)
(0.101288 -0.00687933 0)
(0.101111 -0.00672111 0)
(0.100941 -0.00655833 0)
(0.100779 -0.00639155 0)
(0.100626 -0.00622137 0)
(0.100481 -0.00604835 0)
(0.100344 -0.00587308 0)
(0.100216 -0.00569612 0)
(0.100096 -0.00551799 0)
(0.0999851 -0.00533922 0)
(0.0998827 -0.00516032 0)
(0.0997888 -0.00498175 0)
(0.0997031 -0.00480396 0)
(0.0996255 -0.00462738 0)
(0.0995558 -0.00445241 0)
(0.0994938 -0.00427943 0)
(0.0994391 -0.00410878 0)
(0.0993915 -0.0039408 0)
(0.0993506 -0.00377578 0)
(0.0993161 -0.00361399 0)
(0.0992877 -0.00345567 0)
(0.0992651 -0.00330104 0)
(0.0992478 -0.00315029 0)
(0.0992356 -0.00300357 0)
(0.0992282 -0.00286103 0)
(0.0992251 -0.00272279 0)
(0.0992261 -0.00258893 0)
(0.0992308 -0.00245953 0)
(0.0992389 -0.00233465 0)
(0.0992501 -0.00221431 0)
(0.0992641 -0.0020985 0)
(0.0992806 -0.00198721 0)
(0.0992991 -0.00188038 0)
(0.103708 -0.00793129 0)
(0.10348 -0.00786128 0)
(0.103254 -0.00778265 0)
(0.103031 -0.00769557 0)
(0.102811 -0.00760022 0)
(0.102596 -0.00749682 0)
(0.102385 -0.00738567 0)
(0.102179 -0.0072671 0)
(0.101978 -0.00714149 0)
(0.101783 -0.00700927 0)
(0.101594 -0.00687089 0)
(0.101411 -0.00672685 0)
(0.101236 -0.00657764 0)
(0.101067 -0.00642381 0)
(0.100906 -0.0062659 0)
(0.100753 -0.00610445 0)
(0.100608 -0.00594002 0)
(0.10047 -0.00577312 0)
(0.100341 -0.0056043 0)
(0.10022 -0.00543406 0)
(0.100108 -0.00526289 0)
(0.100003 -0.00509127 0)
(0.0999068 -0.00491965 0)
(0.0998185 -0.00474847 0)
(0.099738 -0.00457814 0)
(0.0996652 -0.00440905 0)
(0.0995999 -0.00424159 0)
(0.0995418 -0.00407609 0)
(0.0994906 -0.00391289 0)
(0.099446 -0.0037523 0)
(0.0994079 -0.00359459 0)
(0.0993758 -0.00344002 0)
(0.0993494 -0.00328881 0)
(0.0993284 -0.00314117 0)
(0.0993125 -0.00299727 0)
(0.0993014 -0.00285727 0)
(0.0992947 -0.0027213 0)
(0.0992921 -0.00258946 0)
(0.0992934 -0.00246185 0)
(0.0992982 -0.00233853 0)
(0.0993061 -0.00221953 0)
(0.0993169 -0.00210487 0)
(0.0993303 -0.00199453 0)
(0.099346 -0.00188849 0)
(0.103771 -0.0076931 0)
(0.103549 -0.00763006 0)
(0.10333 -0.00755867 0)
(0.103113 -0.00747907 0)
(0.102899 -0.00739142 0)
(0.102689 -0.00729593 0)
(0.102483 -0.00719286 0)
(0.102281 -0.00708253 0)
(0.102084 -0.00696529 0)
(0.101893 -0.00684152 0)
(0.101707 -0.00671167 0)
(0.101527 -0.00657619 0)
(0.101353 -0.00643555 0)
(0.101186 -0.00629025 0)
(0.101026 -0.00614081 0)
(0.100874 -0.00598773 0)
(0.100728 -0.00583152 0)
(0.100591 -0.00567269 0)
(0.100461 -0.00551173 0)
(0.100339 -0.00534911 0)
(0.100225 -0.00518531 0)
(0.100119 -0.00502078 0)
(0.10002 -0.00485594 0)
(0.0999296 -0.00469123 0)
(0.0998465 -0.00452703 0)
(0.099771 -0.00436374 0)
(0.0997026 -0.00420172 0)
(0.0996414 -0.00404133 0)
(0.0995869 -0.00388289 0)
(0.099539 -0.00372672 0)
(0.0994974 -0.0035731 0)
(0.0994618 -0.0034223 0)
(0.0994318 -0.00327455 0)
(0.0994073 -0.00313007 0)
(0.0993879 -0.00298904 0)
(0.0993733 -0.00285164 0)
(0.0993631 -0.00271801 0)
(0.0993572 -0.00258826 0)
(0.0993551 -0.00246251 0)
(0.0993567 -0.00234082 0)
(0.0993615 -0.00222324 0)
(0.0993692 -0.00210981 0)
(0.0993796 -0.00200051 0)
(0.0993924 -0.00189532 0)
(0.103827 -0.00746227 0)
(0.103612 -0.0074057 0)
(0.103398 -0.00734104 0)
(0.103187 -0.00726841 0)
(0.102979 -0.00718796 0)
(0.102774 -0.00709986 0)
(0.102573 -0.00700438 0)
(0.102376 -0.00690179 0)
(0.102183 -0.00679242 0)
(0.101995 -0.00667665 0)
(0.101812 -0.00655487 0)
(0.101635 -0.0064275 0)
(0.101463 -0.006295 0)
(0.101298 -0.00615784 0)
(0.101139 -0.00601648 0)
(0.100988 -0.00587141 0)
(0.100843 -0.0057231 0)
(0.100705 -0.00557202 0)
(0.100575 -0.00541863 0)
(0.100452 -0.00526339 0)
(0.100337 -0.00510673 0)
(0.100229 -0.00494908 0)
(0.100129 -0.00479085 0)
(0.100037 -0.00463245 0)
(0.0999512 -0.00447426 0)
(0.0998731 -0.00431667 0)
(0.0998021 -0.00416002 0)
(0.0997379 -0.00400468 0)
(0.0996805 -0.00385096 0)
(0.0996294 -0.0036992 0)
(0.0995846 -0.00354966 0)
(0.0995457 -0.00340264 0)
(0.0995125 -0.00325837 0)
(0.0994846 -0.00311708 0)
(0.0994619 -0.00297897 0)
(0.0994439 -0.00284422 0)
(0.0994305 -0.00271298 0)
(0.0994213 -0.00258539 0)
(0.099416 -0.00246156 0)
(0.0994144 -0.00234158 0)
(0.0994162 -0.0022255 0)
(0.099421 -0.00211336 0)
(0.0994285 -0.00200517 0)
(0.0994385 -0.00190091 0)
(0.103875 -0.00723858 0)
(0.103667 -0.00718801 0)
(0.10346 -0.00712961 0)
(0.103255 -0.00706348 0)
(0.103052 -0.00698975 0)
(0.102853 -0.00690858 0)
(0.102656 -0.00682021 0)
(0.102463 -0.00672491 0)
(0.102274 -0.00662296 0)
(0.10209 -0.00651473 0)
(0.10191 -0.00640058 0)
(0.101736 -0.00628092 0)
(0.101567 -0.00615616 0)
(0.101403 -0.00602674 0)
(0.101246 -0.0058931 0)
(0.101095 -0.00575569 0)
(0.100951 -0.00561494 0)
(0.100814 -0.00547131 0)
(0.100684 -0.00532522 0)
(0.10056 -0.00517709 0)
(0.100444 -0.00502734 0)
(0.100335 -0.00487637 0)
(0.100234 -0.00472457 0)
(0.100139 -0.00457233 0)
(0.100052 -0.00442002 0)
(0.0999718 -0.00426801 0)
(0.0998983 -0.00411665 0)
(0.0998316 -0.00396629 0)
(0.0997713 -0.00381726 0)
(0.0997174 -0.00366986 0)
(0.0996696 -0.00352441 0)
(0.0996276 -0.00338116 0)
(0.0995913 -0.00324039 0)
(0.0995603 -0.00310232 0)
(0.0995343 -0.00296716 0)
(0.0995132 -0.0028351 0)
(0.0994967 -0.00270631 0)
(0.0994844 -0.00258093 0)
(0.099476 -0.00245908 0)
(0.0994714 -0.00234086 0)
(0.0994702 -0.00222634 0)
(0.0994721 -0.00211557 0)
(0.0994769 -0.00200855 0)
(0.0994842 -0.0019053 0)
(0.103918 -0.00702181 0)
(0.103716 -0.0069768 0)
(0.103515 -0.00692422 0)
(0.103316 -0.00686415 0)
(0.103119 -0.0067967 0)
(0.102924 -0.00672203 0)
(0.102732 -0.00664034 0)
(0.102544 -0.00655188 0)
(0.102359 -0.00645694 0)
(0.102178 -0.00635583 0)
(0.102002 -0.00624891 0)
(0.10183 -0.00613655 0)
(0.101663 -0.00601914 0)
(0.101502 -0.0058971 0)
(0.101347 -0.00577082 0)
(0.101197 -0.00564073 0)
(0.101054 -0.00550724 0)
(0.100917 -0.00537076 0)
(0.100787 -0.00523169 0)
(0.100663 -0.00509043 0)
(0.100547 -0.00494736 0)
(0.100437 -0.00480286 0)
(0.100334 -0.0046573 0)
(0.100238 -0.00451106 0)
(0.100149 -0.00436449 0)
(0.100067 -0.00421795 0)
(0.0999913 -0.00407178 0)
(0.0999222 -0.00392633 0)
(0.0998595 -0.00378191 0)
(0.0998029 -0.00363886 0)
(0.0997523 -0.00349745 0)
(0.0997075 -0.00335798 0)
(0.0996682 -0.00322071 0)
(0.0996343 -0.00308588 0)
(0.0996053 -0.00295369 0)
(0.0995812 -0.00282436 0)
(0.0995617 -0.00269806 0)
(0.0995464 -0.00257494 0)
(0.0995351 -0.00245512 0)
(0.0995276 -0.00233872 0)
(0.0995235 -0.00222582 0)
(0.0995227 -0.00211647 0)
(0.0995247 -0.00201069 0)
(0.0995294 -0.0019085 0)
(0.103955 -0.00681173 0)
(0.103759 -0.00677189 0)
(0.103564 -0.00672473 0)
(0.10337 -0.00667031 0)
(0.103179 -0.00660874 0)
(0.102989 -0.00654014 0)
(0.102802 -0.00646473 0)
(0.102618 -0.00638271 0)
(0.102437 -0.00629437 0)
(0.10226 -0.00619999 0)
(0.102087 -0.00609992 0)
(0.101918 -0.00599449 0)
(0.101754 -0.00588407 0)
(0.101595 -0.00576904 0)
(0.101441 -0.00564979 0)
(0.101293 -0.0055267 0)
(0.101151 -0.00540016 0)
(0.101015 -0.00527054 0)
(0.100885 -0.00513822 0)
(0.100762 -0.00500357 0)
(0.100645 -0.00486694 0)
(0.100534 -0.0047287 0)
(0.100431 -0.00458921 0)
(0.100333 -0.0044488 0)
(0.100243 -0.00430783 0)
(0.100159 -0.00416663 0)
(0.100081 -0.00402556 0)
(0.10001 -0.00388493 0)
(0.099945 -0.00374508 0)
(0.099886 -0.00360631 0)
(0.0998328 -0.00346893 0)
(0.0997854 -0.00333322 0)
(0.0997433 -0.00319944 0)
(0.0997066 -0.00306785 0)
(0.0996748 -0.00293866 0)
(0.0996479 -0.00281209 0)
(0.0996255 -0.00268831 0)
(0.0996073 -0.00256748 0)
(0.0995932 -0.00244974 0)
(0.0995829 -0.00233522 0)
(0.0995761 -0.00222398 0)
(0.0995726 -0.00211611 0)
(0.099572 -0.00201162 0)
(0.0995741 -0.00191055 0)
(0.103987 -0.00660814 0)
(0.103797 -0.00657309 0)
(0.103608 -0.00653097 0)
(0.103419 -0.00648182 0)
(0.103233 -0.00642574 0)
(0.103048 -0.00636285 0)
(0.102866 -0.00629333 0)
(0.102686 -0.00621738 0)
(0.102509 -0.00613527 0)
(0.102336 -0.00604726 0)
(0.102166 -0.00595366 0)
(0.102 -0.0058548 0)
(0.101839 -0.00575102 0)
(0.101682 -0.00564268 0)
(0.10153 -0.00553013 0)
(0.101384 -0.00541373 0)
(0.101243 -0.00529383 0)
(0.101108 -0.00517079 0)
(0.100979 -0.00504496 0)
(0.100855 -0.00491667 0)
(0.100738 -0.00478626 0)
(0.100627 -0.00465408 0)
(0.100523 -0.00452045 0)
(0.100425 -0.00438571 0)
(0.100333 -0.00425019 0)
(0.100247 -0.00411422 0)
(0.100168 -0.00397812 0)
(0.100095 -0.00384224 0)
(0.100028 -0.00370687 0)
(0.0999666 -0.00357234 0)
(0.0999111 -0.00343895 0)
(0.0998612 -0.00330697 0)
(0.0998166 -0.00317668 0)
(0.0997772 -0.00304833 0)
(0.0997428 -0.00292215 0)
(0.0997132 -0.00279835 0)
(0.099688 -0.00267711 0)
(0.0996672 -0.00255862 0)
(0.0996504 -0.002443 0)
(0.0996374 -0.00233039 0)
(0.099628 -0.00222087 0)
(0.0996218 -0.00211452 0)
(0.0996187 -0.00201138 0)
(0.0996183 -0.00191149 0)
(0.104014 -0.00641082 0)
(0.10383 -0.00638021 0)
(0.103646 -0.00634278 0)
(0.103463 -0.00629856 0)
(0.103282 -0.00624762 0)
(0.103102 -0.00619008 0)
(0.102924 -0.00612609 0)
(0.102748 -0.00605587 0)
(0.102575 -0.00597962 0)
(0.102406 -0.00589763 0)
(0.102239 -0.00581017 0)
(0.102077 -0.00571755 0)
(0.101918 -0.00562009 0)
(0.101764 -0.00551811 0)
(0.101614 -0.00541195 0)
(0.10147 -0.00530193 0)
(0.10133 -0.00518839 0)
(0.101196 -0.00507166 0)
(0.101067 -0.00495205 0)
(0.100944 -0.00482988 0)
(0.100827 -0.00470547 0)
(0.100716 -0.00457914 0)
(0.100611 -0.00445119 0)
(0.100513 -0.00432195 0)
(0.10042 -0.00419172 0)
(0.100333 -0.00406084 0)
(0.100252 -0.00392962 0)
(0.100177 -0.00379838 0)
(0.100108 -0.00366743 0)
(0.100045 -0.00353707 0)
(0.0999872 -0.00340762 0)
(0.099935 -0.00327935 0)
(0.0998881 -0.00315253 0)
(0.0998462 -0.00302741 0)
(0.0998093 -0.00290424 0)
(0.0997771 -0.00278322 0)
(0.0997494 -0.00266456 0)
(0.099726 -0.00254842 0)
(0.0997066 -0.00243495 0)
(0.099691 -0.00232429 0)
(0.0996791 -0.00221653 0)
(0.0996704 -0.00211176 0)
(0.0996648 -0.00201001 0)
(0.099662 -0.00191134 0)
(0.104037 -0.00621955 0)
(0.103858 -0.00619308 0)
(0.10368 -0.00616001 0)
(0.103502 -0.00612038 0)
(0.103325 -0.00607426 0)
(0.10315 -0.00602173 0)
(0.102977 -0.00596296 0)
(0.102806 -0.00589812 0)
(0.102637 -0.00582743 0)
(0.102471 -0.00575113 0)
(0.102308 -0.00566949 0)
(0.102148 -0.00558279 0)
(0.101992 -0.00549133 0)
(0.101841 -0.00539541 0)
(0.101693 -0.00529533 0)
(0.10155 -0.00519141 0)
(0.101412 -0.00508395 0)
(0.101279 -0.00497326 0)
(0.101152 -0.00485962 0)
(0.101029 -0.00474333 0)
(0.100913 -0.0046247 0)
(0.100802 -0.004504 0)
(0.100696 -0.00438155 0)
(0.100597 -0.00425763 0)
(0.100503 -0.00413256 0)
(0.100415 -0.00400664 0)
(0.100333 -0.00388017 0)
(0.100257 -0.00375348 0)
(0.100186 -0.00362686 0)
(0.100121 -0.00350062 0)
(0.100061 -0.00337505 0)
(0.100007 -0.00325044 0)
(0.0999577 -0.00312707 0)
(0.0999136 -0.00300518 0)
(0.0998743 -0.00288501 0)
(0.0998397 -0.00276679 0)
(0.0998095 -0.0026507 0)
(0.0997836 -0.00253694 0)
(0.0997618 -0.00242566 0)
(0.0997438 -0.00231698 0)
(0.0997293 -0.00221101 0)
(0.0997183 -0.00210785 0)
(0.0997103 -0.00200754 0)
(0.0997052 -0.00191013 0)
(0.104056 -0.00603414 0)
(0.103882 -0.0060115 0)
(0.103709 -0.0059825 0)
(0.103536 -0.00594717 0)
(0.103365 -0.00590555 0)
(0.103194 -0.00585774 0)
(0.103025 -0.00580387 0)
(0.102858 -0.00574412 0)
(0.102693 -0.00567867 0)
(0.102531 -0.00560776 0)
(0.102371 -0.00553163 0)
(0.102215 -0.00545055 0)
(0.102062 -0.00536479 0)
(0.101912 -0.00527463 0)
(0.101767 -0.00518036 0)
(0.101626 -0.00508226 0)
(0.10149 -0.00498061 0)
(0.101358 -0.00487569 0)
(0.101232 -0.00476778 0)
(0.10111 -0.00465715 0)
(0.100994 -0.00454406 0)
(0.100883 -0.00442881 0)
(0.100778 -0.00431166 0)
(0.100678 -0.00419291 0)
(0.100583 -0.00407283 0)
(0.100494 -0.00395173 0)
(0.100411 -0.0038299 0)
(0.100334 -0.00370765 0)
(0.100261 -0.00358527 0)
(0.100195 -0.00346307 0)
(0.100133 -0.00334134 0)
(0.100077 -0.00322036 0)
(0.100026 -0.00310039 0)
(0.0999793 -0.00298171 0)
(0.0999378 -0.00286454 0)
(0.0999009 -0.00274911 0)
(0.0998684 -0.00263562 0)
(0.0998402 -0.00252425 0)
(0.099816 -0.00241516 0)
(0.0997956 -0.00230849 0)
(0.0997788 -0.00220436 0)
(0.0997654 -0.00210284 0)
(0.0997551 -0.002004 0)
(0.0997477 -0.0019079 0)
(0.114815 -0.00871062 0)
(0.114356 -0.00911413 0)
(0.113885 -0.0094901 0)
(0.113402 -0.00983833 0)
(0.112911 -0.0101587 0)
(0.112412 -0.0104513 0)
(0.111908 -0.0107159 0)
(0.111399 -0.0109528 0)
(0.110889 -0.0111621 0)
(0.110378 -0.011344 0)
(0.109868 -0.0114991 0)
(0.10936 -0.0116277 0)
(0.108856 -0.0117303 0)
(0.108358 -0.0118077 0)
(0.107866 -0.0118604 0)
(0.107381 -0.0118893 0)
(0.106905 -0.0118953 0)
(0.106439 -0.0118792 0)
(0.105984 -0.0118421 0)
(0.105541 -0.011785 0)
(0.10511 -0.0117089 0)
(0.104692 -0.0116152 0)
(0.104288 -0.0115049 0)
(0.103898 -0.0113792 0)
(0.103523 -0.0112393 0)
(0.103163 -0.0110865 0)
(0.102818 -0.010922 0)
(0.11446 -0.00827254 0)
(0.114028 -0.00866266 0)
(0.113584 -0.00902694 0)
(0.113128 -0.00936525 0)
(0.112664 -0.00967745 0)
(0.112192 -0.00996344 0)
(0.111714 -0.0102232 0)
(0.111232 -0.0104568 0)
(0.110748 -0.0106643 0)
(0.110262 -0.0108461 0)
(0.109776 -0.0110025 0)
(0.109292 -0.0111338 0)
(0.108812 -0.0112405 0)
(0.108335 -0.0113233 0)
(0.107864 -0.0113826 0)
(0.1074 -0.0114193 0)
(0.106944 -0.0114341 0)
(0.106497 -0.0114278 0)
(0.106059 -0.0114014 0)
(0.105633 -0.0113558 0)
(0.105217 -0.0112921 0)
(0.104814 -0.0112112 0)
(0.104423 -0.0111144 0)
(0.104046 -0.0110026 0)
(0.103682 -0.010877 0)
(0.103332 -0.0107388 0)
(0.102996 -0.010589 0)
(0.114104 -0.00786054 0)
(0.113697 -0.00823748 0)
(0.113278 -0.00859021 0)
(0.112849 -0.00891856 0)
(0.11241 -0.00922242 0)
(0.111963 -0.00950166 0)
(0.111511 -0.00975622 0)
(0.111054 -0.00998614 0)
(0.110594 -0.0101915 0)
(0.110132 -0.0103726 0)
(0.10967 -0.0105297 0)
(0.109209 -0.010663 0)
(0.108751 -0.0107731 0)
(0.108296 -0.0108604 0)
(0.107846 -0.0109256 0)
(0.107402 -0.0109691 0)
(0.106965 -0.0109918 0)
(0.106536 -0.0109944 0)
(0.106116 -0.0109777 0)
(0.105705 -0.0109427 0)
(0.105305 -0.0108902 0)
(0.104916 -0.0108212 0)
(0.104539 -0.0107368 0)
(0.104174 -0.0106379 0)
(0.103822 -0.0105255 0)
(0.103482 -0.0104008 0)
(0.103156 -0.0102649 0)
(0.11375 -0.00747284 0)
(0.113367 -0.00783689 0)
(0.112972 -0.00817825 0)
(0.112566 -0.00849672 0)
(0.112152 -0.00879221 0)
(0.111729 -0.00906457 0)
(0.111301 -0.00931372 0)
(0.110867 -0.00953968 0)
(0.110431 -0.00974255 0)
(0.109992 -0.00992247 0)
(0.109553 -0.0100797 0)
(0.109114 -0.0102145 0)
(0.108677 -0.0103273 0)
(0.108243 -0.0104185 0)
(0.107813 -0.0104887 0)
(0.107389 -0.0105383 0)
(0.10697 -0.010568 0)
(0.106559 -0.0105786 0)
(0.106156 -0.0105708 0)
(0.105762 -0.0105454 0)
(0.105377 -0.0105032 0)
(0.105002 -0.0104451 0)
(0.104638 -0.0103721 0)
(0.104286 -0.0102851 0)
(0.103945 -0.010185 0)
(0.103616 -0.0100729 0)
(0.103299 -0.00994967 0)
(0.113402 -0.0071078 0)
(0.113041 -0.00745928 0)
(0.112668 -0.00778948 0)
(0.112285 -0.00809821 0)
(0.111893 -0.00838536 0)
(0.111493 -0.00865079 0)
(0.111087 -0.00889439 0)
(0.110677 -0.00911617 0)
(0.110262 -0.00931619 0)
(0.109845 -0.00949458 0)
(0.109427 -0.00965153 0)
(0.10901 -0.00978731 0)
(0.108593 -0.00990225 0)
(0.10818 -0.00999673 0)
(0.107769 -0.0100712 0)
(0.107363 -0.0101262 0)
(0.106963 -0.0101623 0)
(0.106569 -0.0101801 0)
(0.106183 -0.0101802 0)
(0.105804 -0.0101636 0)
(0.105434 -0.0101308 0)
(0.105073 -0.0100827 0)
(0.104723 -0.0100202 0)
(0.104382 -0.00994414 0)
(0.104052 -0.00985542 0)
(0.103734 -0.00975493 0)
(0.103426 -0.0096436 0)
(0.113061 -0.00676394 0)
(0.11272 -0.00710316 0)
(0.112368 -0.00742245 0)
(0.112007 -0.00772161 0)
(0.111636 -0.00800051 0)
(0.111258 -0.00825899 0)
(0.110873 -0.00849697 0)
(0.110483 -0.0087144 0)
(0.11009 -0.00891134 0)
(0.109694 -0.00908788 0)
(0.109297 -0.00924418 0)
(0.108899 -0.00938048 0)
(0.108502 -0.00949706 0)
(0.108108 -0.00959426 0)
(0.107716 -0.00967248 0)
(0.107328 -0.00973218 0)
(0.106945 -0.00977387 0)
(0.106568 -0.00979812 0)
(0.106197 -0.00980554 0)
(0.105834 -0.00979681 0)
(0.105478 -0.00977262 0)
(0.105132 -0.00973372 0)
(0.104794 -0.00968089 0)
(0.104465 -0.00961494 0)
(0.104147 -0.00953669 0)
(0.103838 -0.00944698 0)
(0.103541 -0.00934665 0)
(0.112728 -0.00643985 0)
(0.112407 -0.00676717 0)
(0.112075 -0.00707582 0)
(0.111733 -0.00736559 0)
(0.111382 -0.00763635 0)
(0.111024 -0.00788793 0)
(0.110659 -0.00812023 0)
(0.11029 -0.0083332 0)
(0.109916 -0.00852686 0)
(0.10954 -0.00870129 0)
(0.109162 -0.00885663 0)
(0.108784 -0.00899307 0)
(0.108406 -0.00911085 0)
(0.10803 -0.00921027 0)
(0.107656 -0.00929168 0)
(0.107285 -0.0093555 0)
(0.106919 -0.00940217 0)
(0.106558 -0.00943221 0)
(0.106202 -0.00944618 0)
(0.105854 -0.00944466 0)
(0.105512 -0.00942831 0)
(0.105179 -0.00939781 0)
(0.104853 -0.00935387 0)
(0.104536 -0.00929722 0)
(0.104229 -0.00922864 0)
(0.103931 -0.00914889 0)
(0.103642 -0.00905877 0)
(0.112405 -0.00613425 0)
(0.112102 -0.00645004 0)
(0.111788 -0.00674833 0)
(0.111465 -0.00702892 0)
(0.111133 -0.00729168 0)
(0.110794 -0.00753641 0)
(0.110448 -0.00776301 0)
(0.110098 -0.00797144 0)
(0.109743 -0.00816167 0)
(0.109385 -0.00833379 0)
(0.109026 -0.00848788 0)
(0.108666 -0.00862412 0)
(0.108306 -0.00874271 0)
(0.107947 -0.00884391 0)
(0.10759 -0.00892803 0)
(0.107236 -0.00899543 0)
(0.106885 -0.00904651 0)
(0.10654 -0.00908173 0)
(0.106199 -0.00910159 0)
(0.105865 -0.00910662 0)
(0.105537 -0.00909741 0)
(0.105216 -0.00907459 0)
(0.104903 -0.00903879 0)
(0.104597 -0.00899071 0)
(0.1043 -0.00893103 0)
(0.104012 -0.0088605 0)
(0.103733 -0.00877982 0)
(0.112091 -0.00584595 0)
(0.111805 -0.00615056 0)
(0.111509 -0.0064388 0)
(0.111203 -0.00671043 0)
(0.110889 -0.00696532 0)
(0.110567 -0.00720329 0)
(0.11024 -0.00742422 0)
(0.109907 -0.00762804 0)
(0.10957 -0.00781474 0)
(0.109231 -0.00798435 0)
(0.108889 -0.00813697 0)
(0.108546 -0.00827271 0)
(0.108203 -0.00839177 0)
(0.10786 -0.00849435 0)
(0.107519 -0.00858073 0)
(0.107181 -0.00865123 0)
(0.106846 -0.00870619 0)
(0.106515 -0.00874603 0)
(0.106189 -0.00877119 0)
(0.105868 -0.00878215 0)
(0.105553 -0.00877944 0)
(0.105244 -0.00876362 0)
(0.104943 -0.0087353 0)
(0.104649 -0.00869508 0)
(0.104362 -0.00864362 0)
(0.104084 -0.00858158 0)
(0.103814 -0.00850965 0)
(0.111788 -0.00557381 0)
(0.111518 -0.00586763 0)
(0.111238 -0.00614611 0)
(0.110948 -0.00640901 0)
(0.110651 -0.00665621 0)
(0.110346 -0.00688751 0)
(0.110036 -0.0071028 0)
(0.10972 -0.00730199 0)
(0.1094 -0.00748506 0)
(0.109077 -0.00765203 0)
(0.108751 -0.00780297 0)
(0.108425 -0.00793796 0)
(0.108098 -0.00805717 0)
(0.107771 -0.00816078 0)
(0.107446 -0.00824903 0)
(0.107123 -0.00832218 0)
(0.106802 -0.00838055 0)
(0.106485 -0.00842449 0)
(0.106173 -0.0084544 0)
(0.105865 -0.00847071 0)
(0.105562 -0.00847391 0)
(0.105266 -0.00846448 0)
(0.104975 -0.00844299 0)
(0.104692 -0.00840999 0)
(0.104415 -0.00836609 0)
(0.104146 -0.0083119 0)
(0.103885 -0.00824806 0)
(0.111495 -0.00531682 0)
(0.11124 -0.00560022 0)
(0.110975 -0.00586923 0)
(0.110701 -0.00612365 0)
(0.110419 -0.00636333 0)
(0.11013 -0.00658808 0)
(0.109836 -0.00679777 0)
(0.109536 -0.00699233 0)
(0.109232 -0.00717171 0)
(0.108924 -0.00733592 0)
(0.108615 -0.00748499 0)
(0.108304 -0.00761901 0)
(0.107992 -0.0077381 0)
(0.10768 -0.00784242 0)
(0.10737 -0.00793217 0)
(0.107061 -0.00800757 0)
(0.106754 -0.0080689 0)
(0.106451 -0.00811647 0)
(0.106151 -0.00815064 0)
(0.105856 -0.00817178 0)
(0.105565 -0.00818031 0)
(0.10528 -0.00817671 0)
(0.105001 -0.00816147 0)
(0.104727 -0.00813509 0)
(0.104461 -0.00809814 0)
(0.104201 -0.00805119 0)
(0.103948 -0.00799483 0)
(0.111212 -0.00507401 0)
(0.110971 -0.00534735 0)
(0.11072 -0.00560721 0)
(0.110461 -0.00585339 0)
(0.110194 -0.00608573 0)
(0.10992 -0.00630405 0)
(0.10964 -0.00650822 0)
(0.109355 -0.00669815 0)
(0.109067 -0.00687379 0)
(0.108774 -0.00703513 0)
(0.108479 -0.0071822 0)
(0.108183 -0.00731505 0)
(0.107886 -0.00743378 0)
(0.107588 -0.00753852 0)
(0.107292 -0.00762943 0)
(0.106996 -0.00770672 0)
(0.106703 -0.00777061 0)
(0.106412 -0.00782137 0)
(0.106125 -0.00785932 0)
(0.105842 -0.0078848 0)
(0.105563 -0.00789817 0)
(0.105288 -0.00789986 0)