/*--------------------------------*- C++ -*----------------------------------*\
| =========                 |                                                 |
| \\      /  F ield         | OpenFOAM: The Open Source CFD Toolbox           |
|  \\    /   O peration     | Version:  2412                                  |
|   \\  /    A nd           | Website:  www.openfoam.com                      |
|    \\/     M anipulation  |                                                 |
\*---------------------------------------------------------------------------*/
FoamFile
{
    version     2.0;
    format      ascii;
    arch        "LSB;label=32;scalar=64";
    class       volVectorField;
    location    "26";
    object      vorticity;
}
// * * * * * * * * * * * * * * * * * * * * * * * * * * * * * * * * * * * * * //

dimensions      [0 0 -1 0 0 0 0];

internalField   nonuniform List<vector> 
5285
(
(0 -0 3.71401e-05)
(0 -0 3.6479e-05)
(0 -0 3.58601e-05)
(0 -0 3.53224e-05)
(0 -0 3.48273e-05)
(0 -0 3.43763e-05)
(0 -0 3.39325e-05)
(0 -0 3.34856e-05)
(0 -0 3.30274e-05)
(0 -0 3.25524e-05)
(0 -0 3.20595e-05)
(0 -0 3.15583e-05)
(0 -0 3.10911e-05)
(0 -0 3.07806e-05)
(0 -0 3.08025e-05)
(0 -0 3.09294e-05)
(0 -0 3.23963e-05)
(0 -0 3.17613e-05)
(0 -0 3.11708e-05)
(0 -0 3.06114e-05)
(0 -0 3.0133e-05)
(0 -0 2.96985e-05)
(0 -0 2.92716e-05)
(0 -0 2.88427e-05)
(0 -0 2.84043e-05)
(0 -0 2.79514e-05)
(0 -0 2.74831e-05)
(0 -0 2.70096e-05)
(0 -0 2.65735e-05)
(0 -0 2.62985e-05)
(0 -0 2.63465e-05)
(0 -0 2.65246e-05)
(0 -0 2.78293e-05)
(0 -0 2.7218e-05)
(0 -0 2.66272e-05)
(0 -0 2.60826e-05)
(0 -0 2.56213e-05)
(0 -0 2.52049e-05)
(0 -0 2.47974e-05)
(0 -0 2.43895e-05)
(0 -0 2.39739e-05)
(0 -0 2.3546e-05)
(0 -0 2.31054e-05)
(0 -0 2.26624e-05)
(0 -0 2.22602e-05)
(0 -0 2.20225e-05)
(0 -0 2.21142e-05)
(0 -0 2.23273e-05)
(0 -0 2.34763e-05)
(0 -0 2.2892e-05)
(0 -0 2.23205e-05)
(0 -0 2.1795e-05)
(0 -0 2.13534e-05)
(0 -0 2.09577e-05)
(0 -0 2.05721e-05)
(0 -0 2.01876e-05)
(0 -0 1.97974e-05)
(0 -0 1.9397e-05)
(0 -0 1.89864e-05)
(0 -0 1.85762e-05)
(0 -0 1.82098e-05)
(0 -0 1.80117e-05)
(0 -0 1.81469e-05)
(0 -0 1.84083e-05)
(0 -0 1.94054e-05)
(0 -0 1.88514e-05)
(0 -0 1.83056e-05)
(0 -0 1.78038e-05)
(0 -0 1.73853e-05)
(0 -0 1.70129e-05)
(0 -0 1.66515e-05)
(0 -0 1.62926e-05)
(0 -0 1.59297e-05)
(0 -0 1.55586e-05)
(0 -0 1.51796e-05)
(0 -0 1.48035e-05)
(0 -0 1.44743e-05)
(0 -0 1.43167e-05)
(0 -0 1.44959e-05)
(0 -0 1.48044e-05)
(0 -0 1.56654e-05)
(0 -0 1.51438e-05)
(0 -0 1.46268e-05)
(0 -0 1.41517e-05)
(0 -0 1.37588e-05)
(0 -0 1.34119e-05)
(0 -0 1.30766e-05)
(0 -0 1.27449e-05)
(0 -0 1.24105e-05)
(0 -0 1.20697e-05)
(0 -0 1.1723e-05)
(0 -0 1.13816e-05)
(0 -0 1.10897e-05)
(0 -0 1.09725e-05)
(0 -0 1.11951e-05)
(0 -0 1.15488e-05)
(0 -0 1.22874e-05)
(0 -0 1.1799e-05)
(0 -0 1.13122e-05)
(0 -0 1.08652e-05)
(0 -0 1.04995e-05)
(0 -0 1.01794e-05)
(0 -0 9.87121e-06)
(0 -0 9.56737e-06)
(0 -0 9.26213e-06)
(0 -0 8.95199e-06)
(0 -0 8.63766e-06)
(0 -0 8.33065e-06)
(0 -0 8.07549e-06)
(0 -0 7.9976e-06)
(0 -0 8.26174e-06)
(0 -0 8.65842e-06)
(0 -0 9.28635e-06)
(0 -0 8.83115e-06)
(0 -0 8.37484e-06)
(0 -0 7.95668e-06)
(0 -0 7.61855e-06)
(0 -0 7.3256e-06)
(0 -0 7.04476e-06)
(0 -0 6.76888e-06)
(0 -0 6.49253e-06)
(0 -0 6.21255e-06)
(0 -0 5.92985e-06)
(0 -0 5.65622e-06)
(0 -0 5.43644e-06)
(0 -0 5.39608e-06)
(0 -0 5.69942e-06)
(0 -0 6.13611e-06)
(0 -0 6.66383e-06)
(0 -0 6.24127e-06)
(0 -0 5.81508e-06)
(0 -0 5.42535e-06)
(0 -0 5.11446e-06)
(0 -0 4.84823e-06)
(0 -0 4.59417e-06)
(0 -0 4.3455e-06)
(0 -0 4.09711e-06)
(0 -0 3.84608e-06)
(0 -0 3.59358e-06)
(0 -0 3.35161e-06)
(0 -0 3.16517e-06)
(0 -0 3.15989e-06)
(0 -0 3.4994e-06)
(0 -0 3.97251e-06)
(0 -0 4.40941e-06)
(0 -0 4.01833e-06)
(0 -0 3.62123e-06)
(0 -0 3.25895e-06)
(0 -0 2.97424e-06)
(0 -0 2.73358e-06)
(0 -0 2.50502e-06)
(0 -0 2.28213e-06)
(0 -0 2.06009e-06)
(0 -0 1.83619e-06)
(0 -0 1.61182e-06)
(0 -0 1.39918e-06)
(0 -0 1.24347e-06)
(0 -0 1.27026e-06)
(0 -0 1.64238e-06)
(0 -0 2.14792e-06)
(0 -0 2.50259e-06)
(0 -0 2.14129e-06)
(0 -0 1.7717e-06)
(0 -0 1.43529e-06)
(0 -0 1.17512e-06)
(0 -0 9.58271e-07)
(0 -0 7.53343e-07)
(0 -0 5.54223e-07)
(0 -0 3.56338e-07)
(0 -0 1.57199e-07)
(0 -0 -4.16292e-08)
(0 -0 -2.27785e-07)
(0 -0 -3.55871e-07)
(0 -0 -3.00415e-07)
(0 -0 1.00487e-07)
(0 -0 6.3434e-07)
(0 -0 9.14922e-07)
(0 -0 5.81203e-07)
(0 -0 2.37021e-07)
(0 -0 -7.56088e-08)
(0 -0 -3.13417e-07)
(0 -0 -5.08725e-07)
(0 -0 -6.92379e-07)
(0 -0 -8.70219e-07)
(0 -0 -1.04659e-06)
(0 -0 -1.22379e-06)
(0 -0 -1.4001e-06)
(0 -0 -1.56297e-06)
(0 -0 -1.66687e-06)
(0 -0 -1.58642e-06)
(0 -0 -1.16062e-06)
(0 -0 -6.02342e-07)
(0 -0 -3.87859e-07)
(0 -0 -6.96669e-07)
(0 -0 -1.018e-06)
(0 -0 -1.30937e-06)
(0 -0 -1.5274e-06)
(0 -0 -1.7038e-06)
(0 -0 -1.86893e-06)
(0 -0 -2.02833e-06)
(0 -0 -2.18616e-06)
(0 -0 -2.34456e-06)
(0 -0 -2.50167e-06)
(0 -0 -2.64473e-06)
(0 -0 -2.72806e-06)
(0 -0 -2.62627e-06)
(0 -0 -2.17905e-06)
(0 -0 -1.59936e-06)
(0 -0 -1.44346e-06)
(0 -0 -1.73045e-06)
(0 -0 -2.03184e-06)
(0 -0 -2.30479e-06)
(0 -0 -2.50589e-06)
(0 -0 -2.6663e-06)
(0 -0 -2.81585e-06)
(0 -0 -2.95987e-06)
(0 -0 -3.10234e-06)
(0 -0 -3.24526e-06)
(0 -0 -3.38662e-06)
(0 -0 -3.5135e-06)
(0 -0 -3.57988e-06)
(0 -0 -3.46009e-06)
(0 -0 -2.99373e-06)
(0 -0 -2.3932e-06)
(0 -0 -2.29068e-06)
(0 -0 -2.55925e-06)
(0 -0 -2.84383e-06)
(0 -0 -3.10132e-06)
(0 -0 -3.28843e-06)
(0 -0 -3.4358e-06)
(0 -0 -3.57279e-06)
(0 -0 -3.70452e-06)
(0 -0 -3.83484e-06)
(0 -0 -3.96562e-06)
(0 -0 -4.09471e-06)
(0 -0 -4.20897e-06)
(0 -0 -4.26193e-06)
(0 -0 -4.12686e-06)
(0 -0 -3.64097e-06)
(0 -0 -3.01343e-06)
(0 -0 -2.96719e-06)
(0 -0 -3.22088e-06)
(0 -0 -3.4917e-06)
(0 -0 -3.73652e-06)
(0 -0 -3.91239e-06)
(0 -0 -4.04952e-06)
(0 -0 -4.17682e-06)
(0 -0 -4.29923e-06)
(0 -0 -4.42048e-06)
(0 -0 -4.54231e-06)
(0 -0 -4.66244e-06)
(0 -0 -4.76752e-06)
(0 -0 -4.81043e-06)
(0 -0 -4.6621e-06)
(0 -0 -4.15096e-06)
(0 -0 -3.47143e-06)
(0 -0 -3.50782e-06)
(0 -0 -3.75023e-06)
(0 -0 -4.00968e-06)
(0 -0 -4.24399e-06)
(0 -0 -4.41089e-06)
(0 -0 -4.54021e-06)
(0 -0 -4.66037e-06)
(0 -0 -4.77617e-06)
(0 -0 -4.89114e-06)
(0 -0 -5.0069e-06)
(0 -0 -5.12108e-06)
(0 -0 -5.2202e-06)
(0 -0 -5.25657e-06)
(0 -0 -5.09723e-06)
(0 -0 -4.54565e-06)
(0 -0 -3.80682e-06)
(0 -0 -3.89659e-06)
(0 -0 -4.13339e-06)
(0 -0 -4.38095e-06)
(0 -0 -4.60434e-06)
(0 -0 -4.76251e-06)
(0 -0 -4.88457e-06)
(0 -0 -4.9983e-06)
(0 -0 -5.10827e-06)
(0 -0 -5.21777e-06)
(0 -0 -5.32832e-06)
(0 -0 -5.43748e-06)
(0 -0 -5.53196e-06)
(0 -0 -5.56435e-06)
(0 -0 -5.39796e-06)
(0 -0 -4.84487e-06)
(0 -0 -4.03702e-06)
(0 -0 -4.00903e-06)
(0 -0 -4.21332e-06)
(0 -0 -4.45621e-06)
(0 -0 -4.66069e-06)
(0 -0 -4.80526e-06)
(0 -0 -4.91546e-06)
(0 -0 -5.01804e-06)
(0 -0 -5.11725e-06)
(0 -0 -5.21629e-06)
(0 -0 -5.31654e-06)
(0 -0 -5.41558e-06)
(0 -0 -5.50067e-06)
(0 -0 -5.52704e-06)
(0 -0 -5.3682e-06)
(0 -0 -4.8601e-06)
(0 -0 -4.12627e-06)
(0 -0 -3.69972e-06)
(0 -0 -3.89367e-06)
(0 -0 -4.08409e-06)
(0 -0 -4.27537e-06)
(0 -0 -4.39715e-06)
(0 -0 -4.48789e-06)
(0 -0 -4.5711e-06)
(0 -0 -4.65096e-06)
(0 -0 -4.73062e-06)
(0 -0 -4.81155e-06)
(0 -0 -4.89149e-06)
(0 -0 -4.95845e-06)
(0 -0 -4.97162e-06)
(0 -0 -4.82573e-06)
(0 -0 -4.37902e-06)
(0 -0 -3.857e-06)
(0 -0 -0.000472902)
(0 -0 -0.000471024)
(0 -0 -0.000469348)
(0 -0 -0.000467849)
(0 -0 -0.000466049)
(0 -0 -0.000463406)
(0 -0 -0.000461192)
(0 -0 -0.000465189)
(0 -0 -0.000486957)
(0 -0 -0.000541567)
(0 -0 -0.000641641)
(0 -0 -0.000790103)
(0 -0 -0.00097524)
(0 -0 -0.00117078)
(0 -0 -0.00134131)
(0 -0 -0.00145109)
(0 -0 -0.00147297)
(0 -0 -0.00139455)
(0 -0 -0.00122017)
(0 -0 -0.000968634)
(0 -0 -0.000668204)
(0 -0 -0.0003505)
(0 -0 -4.4968e-05)
(0 -0 0.000225049)
(0 -0 0.000444285)
(0 -0 0.000605719)
(0 -0 0.000709457)
(0 -0 0.000760889)
(0 -0 0.000768664)
(0 -0 0.000742848)
(0 -0 0.000693483)
(0 -0 0.000629611)
(0 -0 0.000558733)
(0 -0 0.00048662)
(0 -0 0.000417375)
(0 -0 0.000353636)
(0 -0 0.000296855)
(0 -0 0.00024759)
(0 -0 0.000205768)
(0 -0 0.000170911)
(0 -0 0.000142309)
(0 -0 0.000119155)
(0 -0 0.000100626)
(0 -0 8.59466e-05)
(0 -0 7.44158e-05)
(0 -0 6.54233e-05)
(0 -0 5.84516e-05)
(0 -0 5.30709e-05)
(0 -0 4.89309e-05)
(0 -0 4.575e-05)
(0 -0 4.33047e-05)
(0 -0 4.14197e-05)
(0 -0 3.99559e-05)
(0 -0 3.88131e-05)
(0 -0 3.78666e-05)
(0 -0 -0.000470798)
(0 -0 -0.000468923)
(0 -0 -0.000467244)
(0 -0 -0.000465742)
(0 -0 -0.000463956)
(0 -0 -0.000461357)
(0 -0 -0.000459165)
(0 -0 -0.000462966)
(0 -0 -0.000483973)
(0 -0 -0.000536871)
(0 -0 -0.000634068)
(0 -0 -0.000778651)
(0 -0 -0.000959542)
(0 -0 -0.00115148)
(0 -0 -0.00132019)
(0 -0 -0.0014309)
(0 -0 -0.00145696)
(0 -0 -0.00138593)
(0 -0 -0.00122149)
(0 -0 -0.000981449)
(0 -0 -0.000692876)
(0 -0 -0.000386242)
(0 -0 -9.00668e-05)
(0 -0 0.000172915)
(0 -0 0.000387699)
(0 -0 0.000547228)
(0 -0 0.000651333)
(0 -0 0.000704987)
(0 -0 0.000716356)
(0 -0 0.000695028)
(0 -0 0.000650615)
(0 -0 0.000591807)
(0 -0 0.000525836)
(0 -0 0.000458291)
(0 -0 0.000393162)
(0 -0 0.000333033)
(0 -0 0.00027935)
(0 -0 0.000232691)
(0 -0 0.000193025)
(0 -0 0.000159926)
(0 -0 0.000132739)
(0 -0 0.000110709)
(0 -0 9.3065e-05)
(0 -0 7.90752e-05)
(0 -0 6.80772e-05)
(0 -0 5.9493e-05)
(0 -0 5.28318e-05)
(0 -0 4.76859e-05)
(0 -0 4.37222e-05)
(0 -0 4.06732e-05)
(0 -0 3.83262e-05)
(0 -0 3.65147e-05)
(0 -0 3.51093e-05)
(0 -0 3.39999e-05)
(0 -0 3.31186e-05)
(0 -0 -0.000468444)
(0 -0 -0.000466572)
(0 -0 -0.000464892)
(0 -0 -0.000463388)
(0 -0 -0.000461616)
(0 -0 -0.000459061)
(0 -0 -0.000456893)
(0 -0 -0.000460499)
(0 -0 -0.000480745)
(0 -0 -0.000531925)
(0 -0 -0.000626222)
(0 -0 -0.000766878)
(0 -0 -0.000943437)
(0 -0 -0.00113164)
(0 -0 -0.00129836)
(0 -0 -0.00140979)
(0 -0 -0.0014398)
(0 -0 -0.0013759)
(0 -0 -0.00122118)
(0 -0 -0.000992446)
(0 -0 -0.00071559)
(0 -0 -0.000419945)
(0 -0 -0.000133106)
(0 -0 0.000122801)
(0 -0 0.000333049)
(0 -0 0.000490547)
(0 -0 0.000594867)
(0 -0 0.000650574)
(0 -0 0.000665363)
(0 -0 0.000648353)
(0 -0 0.000608732)
(0 -0 0.000554841)
(0 -0 0.000493648)
(0 -0 0.000430557)
(0 -0 0.000369447)
(0 -0 0.000312848)
(0 -0 0.000262196)
(0 -0 0.000218089)
(0 -0 0.000180537)
(0 -0 0.000149162)
(0 -0 0.000123364)
(0 -0 0.00010244)
(0 -0 8.56675e-05)
(0 -0 7.23577e-05)
(0 -0 6.18859e-05)
(0 -0 5.37061e-05)
(0 -0 4.73535e-05)
(0 -0 4.24418e-05)
(0 -0 3.8655e-05)
(0 -0 3.57392e-05)
(0 -0 3.34925e-05)
(0 -0 3.17566e-05)
(0 -0 3.04089e-05)
(0 -0 2.93524e-05)
(0 -0 2.85009e-05)
(0 -0 -0.000465837)
(0 -0 -0.000463969)
(0 -0 -0.00046229)
(0 -0 -0.000460784)
(0 -0 -0.000459027)
(0 -0 -0.000456518)
(0 -0 -0.000454374)
(0 -0 -0.000457789)
(0 -0 -0.00047728)
(0 -0 -0.000526748)
(0 -0 -0.000618143)
(0 -0 -0.000754845)
(0 -0 -0.000927002)
(0 -0 -0.00111134)
(0 -0 -0.00127588)
(0 -0 -0.00138777)
(0 -0 -0.00142142)
(0 -0 -0.00136431)
(0 -0 -0.00121898)
(0 -0 -0.00100125)
(0 -0 -0.000735871)
(0 -0 -0.000451049)
(0 -0 -0.000173465)
(0 -0 7.53678e-05)
(0 -0 0.000281002)
(0 -0 0.000436332)
(0 -0 0.000540684)
(0 -0 0.000598234)
(0 -0 0.00061622)
(0 -0 0.000603302)
(0 -0 0.000568257)
(0 -0 0.000519082)
(0 -0 0.000462487)
(0 -0 0.000403692)
(0 -0 0.000346464)
(0 -0 0.000293281)
(0 -0 0.000245566)
(0 -0 0.000203935)
(0 -0 0.000168436)
(0 -0 0.000138738)
(0 -0 0.000114291)
(0 -0 9.4445e-05)
(0 -0 7.85228e-05)
(0 -0 6.58778e-05)
(0 -0 5.59218e-05)
(0 -0 4.81392e-05)
(0 -0 4.2091e-05)
(0 -0 3.74111e-05)
(0 -0 3.38006e-05)
(0 -0 3.10184e-05)
(0 -0 2.88732e-05)
(0 -0 2.72147e-05)
(0 -0 2.5927e-05)
(0 -0 2.49188e-05)
(0 -0 2.41142e-05)
(0 -0 -0.000462976)
(0 -0 -0.000461113)
(0 -0 -0.000459436)
(0 -0 -0.000457929)
(0 -0 -0.000456187)
(0 -0 -0.000453724)
(0 -0 -0.000451605)
(0 -0 -0.000454834)
(0 -0 -0.000473583)
(0 -0 -0.000521356)
(0 -0 -0.000609863)
(0 -0 -0.000742604)
(0 -0 -0.000910309)
(0 -0 -0.00109067)
(0 -0 -0.00125282)
(0 -0 -0.00136487)
(0 -0 -0.0014018)
(0 -0 -0.00135107)
(0 -0 -0.00121471)
(0 -0 -0.0010076)
(0 -0 -0.00075336)
(0 -0 -0.000479118)
(0 -0 -0.000210649)
(0 -0 3.11446e-05)
(0 -0 0.000232105)
(0 -0 0.000385126)
(0 -0 0.000489309)
(0 -0 0.000548458)
(0 -0 0.000569375)
(0 -0 0.000560279)
(0 -0 0.000529547)
(0 -0 0.000484845)
(0 -0 0.000432625)
(0 -0 0.000377931)
(0 -0 0.000324418)
(0 -0 0.000274509)
(0 -0 0.000229613)
(0 -0 0.000190363)
(0 -0 0.00015684)
(0 -0 0.000128758)
(0 -0 0.000105617)
(0 -0 8.68122e-05)
(0 -0 7.17134e-05)
(0 -0 5.97135e-05)
(0 -0 5.02591e-05)
(0 -0 4.28641e-05)
(0 -0 3.71136e-05)
(0 -0 3.26617e-05)
(0 -0 2.92254e-05)
(0 -0 2.65763e-05)
(0 -0 2.4533e-05)
(0 -0 2.29532e-05)
(0 -0 2.1727e-05)
(0 -0 2.07687e-05)
(0 -0 2.00074e-05)
(0 -0 -0.000459858)
(0 -0 -0.000458003)
(0 -0 -0.000456328)
(0 -0 -0.000454822)
(0 -0 -0.000453095)
(0 -0 -0.000450677)
(0 -0 -0.000448586)
(0 -0 -0.000451636)
(0 -0 -0.000469659)
(0 -0 -0.000515765)
(0 -0 -0.000601413)
(0 -0 -0.000730207)
(0 -0 -0.000893426)
(0 -0 -0.0010697)
(0 -0 -0.00122926)
(0 -0 -0.00134116)
(0 -0 -0.00138095)
(0 -0 -0.00133615)
(0 -0 -0.00120825)
(0 -0 -0.00101129)
(0 -0 -0.000767794)
(0 -0 -0.000503829)
(0 -0 -0.000244287)
(0 -0 -9.46534e-06)
(0 -0 0.000186776)
(0 -0 0.000337346)
(0 -0 0.000441143)
(0 -0 0.000501624)
(0 -0 0.000525178)
(0 -0 0.000519601)
(0 -0 0.000492886)
(0 -0 0.000452378)
(0 -0 0.00040428)
(0 -0 0.000353464)
(0 -0 0.000303473)
(0 -0 0.000256675)
(0 -0 0.000214463)
(0 -0 0.000177483)
(0 -0 0.000145847)
(0 -0 0.000119311)
(0 -0 9.74199e-05)
(0 -0 7.96149e-05)
(0 -0 6.53074e-05)
(0 -0 5.39287e-05)
(0 -0 4.49584e-05)
(0 -0 3.79384e-05)
(0 -0 3.24771e-05)
(0 -0 2.82477e-05)
(0 -0 2.49821e-05)
(0 -0 2.24643e-05)
(0 -0 2.05223e-05)
(0 -0 1.90214e-05)
(0 -0 1.78576e-05)
(0 -0 1.69499e-05)
(0 -0 1.62319e-05)
(0 -0 -0.000456484)
(0 -0 -0.000454636)
(0 -0 -0.000452965)
(0 -0 -0.00045146)
(0 -0 -0.000449749)
(0 -0 -0.000447377)
(0 -0 -0.000445313)
(0 -0 -0.000448192)
(0 -0 -0.00046551)
(0 -0 -0.000509985)
(0 -0 -0.00059282)
(0 -0 -0.000717696)
(0 -0 -0.000876417)
(0 -0 -0.00104851)
(0 -0 -0.00120527)
(0 -0 -0.00131671)
(0 -0 -0.00135894)
(0 -0 -0.00131954)
(0 -0 -0.00119957)
(0 -0 -0.00101223)
(0 -0 -0.000779022)
(0 -0 -0.00052498)
(0 -0 -0.000274138)
(0 -0 -4.6192e-05)
(0 -0 0.0001453)
(0 -0 0.000293283)
(0 -0 0.000396473)
(0 -0 0.000458009)
(0 -0 0.000483886)
(0 -0 0.000481503)
(0 -0 0.000458485)
(0 -0 0.000421868)
(0 -0 0.000377618)
(0 -0 0.000330434)
(0 -0 0.000283755)
(0 -0 0.000239888)
(0 -0 0.00020021)
(0 -0 0.000165378)
(0 -0 0.00013553)
(0 -0 0.000110462)
(0 -0 8.97596e-05)
(0 -0 7.29065e-05)
(0 -0 5.93539e-05)
(0 -0 4.8569e-05)
(0 -0 4.00625e-05)
(0 -0 3.34027e-05)
(0 -0 2.82201e-05)
(0 -0 2.42057e-05)
(0 -0 2.1106e-05)
(0 -0 1.87164e-05)
(0 -0 1.68742e-05)
(0 -0 1.54515e-05)
(0 -0 1.43499e-05)
(0 -0 1.34931e-05)
(0 -0 1.28186e-05)
(0 -0 -0.000452851)
(0 -0 -0.000451013)
(0 -0 -0.000449346)
(0 -0 -0.000447844)
(0 -0 -0.00044615)
(0 -0 -0.000443822)
(0 -0 -0.000441787)
(0 -0 -0.000444503)
(0 -0 -0.000461139)
(0 -0 -0.000504026)
(0 -0 -0.000584104)
(0 -0 -0.000705111)
(0 -0 -0.000859338)
(0 -0 -0.00102717)
(0 -0 -0.00118094)
(0 -0 -0.00129159)
(0 -0 -0.00133582)
(0 -0 -0.00130129)
(0 -0 -0.00118869)
(0 -0 -0.00101041)
(0 -0 -0.000786987)
(0 -0 -0.000542478)
(0 -0 -0.000300075)
(0 -0 -7.88855e-05)
(0 -0 0.000107846)
(0 -0 0.000253113)
(0 -0 0.000355477)
(0 -0 0.000417782)
(0 -0 0.00044566)
(0 -0 0.000446133)
(0 -0 0.000426479)
(0 -0 0.000393437)
(0 -0 0.000352745)
(0 -0 0.000308937)
(0 -0 0.000265344)
(0 -0 0.000224219)
(0 -0 0.000186917)
(0 -0 0.000154102)
(0 -0 0.000125938)
(0 -0 0.000102253)
(0 -0 8.26731e-05)
(0 -0 6.67205e-05)
(0 -0 5.38834e-05)
(0 -0 4.36622e-05)
(0 -0 3.5597e-05)
(0 -0 2.92808e-05)
(0 -0 2.43647e-05)
(0 -0 2.05568e-05)
(0 -0 1.7617e-05)
(0 -0 1.53516e-05)
(0 -0 1.36064e-05)
(0 -0 1.22603e-05)
(0 -0 1.12201e-05)
(0 -0 1.04137e-05)
(0 -0 9.78269e-06)
(0 -0 -0.000448959)
(0 -0 -0.000447131)
(0 -0 -0.000445471)
(0 -0 -0.000443973)
(0 -0 -0.000442295)
(0 -0 -0.000440011)
(0 -0 -0.000438006)
(0 -0 -0.000440567)
(0 -0 -0.000456548)
(0 -0 -0.000497897)
(0 -0 -0.000575282)
(0 -0 -0.000692482)
(0 -0 -0.000842237)
(0 -0 -0.00100576)
(0 -0 -0.00115636)
(0 -0 -0.00126591)
(0 -0 -0.00131169)
(0 -0 -0.00128151)
(0 -0 -0.00117567)
(0 -0 -0.00100587)
(0 -0 -0.000791725)
(0 -0 -0.000556334)
(0 -0 -0.000322087)
(0 -0 -0.000107512)
(0 -0 7.44617e-05)
(0 -0 0.000216896)
(0 -0 0.000318222)
(0 -0 0.000381015)
(0 -0 0.000410572)
(0 -0 0.000413561)
(0 -0 0.000396932)
(0 -0 0.000367144)
(0 -0 0.000329714)
(0 -0 0.000289018)
(0 -0 0.000248283)
(0 -0 0.000209703)
(0 -0 0.000174614)
(0 -0 0.000143682)
(0 -0 0.000117093)
(0 -0 9.47045e-05)
(0 -0 7.61785e-05)
(0 -0 6.10727e-05)
(0 -0 4.89095e-05)
(0 -0 3.92204e-05)
(0 -0 3.15725e-05)
(0 -0 2.55821e-05)
(0 -0 2.09194e-05)
(0 -0 1.73082e-05)
(0 -0 1.45214e-05)
(0 -0 1.23753e-05)
(0 -0 1.07237e-05)
(0 -0 9.45177e-06)
(0 -0 8.47138e-06)
(0 -0 7.71446e-06)
(0 -0 7.1262e-06)
(0 -0 -0.000444807)
(0 -0 -0.00044299)
(0 -0 -0.000441338)
(0 -0 -0.000439845)
(0 -0 -0.000438184)
(0 -0 -0.000435943)
(0 -0 -0.000433968)
(0 -0 -0.000436385)
(0 -0 -0.000451739)
(0 -0 -0.000491601)
(0 -0 -0.000566369)
(0 -0 -0.000679837)
(0 -0 -0.00082516)
(0 -0 -0.000984324)
(0 -0 -0.00113161)
(0 -0 -0.00123977)
(0 -0 -0.00128668)
(0 -0 -0.00126031)
(0 -0 -0.00116066)
(0 -0 -0.000998757)
(0 -0 -0.000793351)
(0 -0 -0.000566649)
(0 -0 -0.00034026)
(0 -0 -0.000132142)
(0 -0 4.50942e-05)
(0 -0 0.000184594)
(0 -0 0.000284681)
(0 -0 0.000347692)
(0 -0 0.000378613)
(0 -0 0.000383784)
(0 -0 0.000369845)
(0 -0 0.000342992)
(0 -0 0.000308531)
(0 -0 0.000270683)
(0 -0 0.000232577)
(0 -0 0.000196347)
(0 -0 0.000163307)
(0 -0 0.000134123)
(0 -0 0.000108998)
(0 -0 8.78184e-05)
(0 -0 7.02764e-05)
(0 -0 5.59626e-05)
(0 -0 4.4431e-05)
(0 -0 3.52414e-05)
(0 -0 2.79861e-05)
(0 -0 2.23026e-05)
(0 -0 1.78793e-05)
(0 -0 1.44546e-05)
(0 -0 1.18131e-05)
(0 -0 9.78071e-06)
(0 -0 8.21859e-06)
(0 -0 7.01791e-06)
(0 -0 6.09509e-06)
(0 -0 5.38593e-06)
(0 -0 4.83927e-06)
(0 -0 -0.000440395)
(0 -0 -0.000438591)
(0 -0 -0.000436947)
(0 -0 -0.00043546)
(0 -0 -0.000433816)
(0 -0 -0.000431618)
(0 -0 -0.000429674)
(0 -0 -0.000431956)
(0 -0 -0.00044671)
(0 -0 -0.000485143)
(0 -0 -0.000557374)
(0 -0 -0.000667195)
(0 -0 -0.000808142)
(0 -0 -0.000962932)
(0 -0 -0.00110677)
(0 -0 -0.00121327)
(0 -0 -0.00126092)
(0 -0 -0.00123785)
(0 -0 -0.00114381)
(0 -0 -0.000989235)
(0 -0 -0.000792045)
(0 -0 -0.000573601)
(0 -0 -0.000354761)
(0 -0 -0.000152931)
(0 -0 1.96017e-05)
(0 -0 0.000156081)
(0 -0 0.000254745)
(0 -0 0.000317718)
(0 -0 0.000349703)
(0 -0 0.000356735)
(0 -0 0.000345163)
(0 -0 0.000320935)
(0 -0 0.000289156)
(0 -0 0.000253901)
(0 -0 0.000218198)
(0 -0 0.000184128)
(0 -0 0.000152974)
(0 -0 0.000125406)
(0 -0 0.000101637)
(0 -0 8.15789e-05)
(0 -0 6.49516e-05)
(0 -0 5.13755e-05)
(0 -0 4.04329e-05)
(0 -0 3.17102e-05)
(0 -0 2.48224e-05)
(0 -0 1.9427e-05)
(0 -0 1.52288e-05)
(0 -0 1.19797e-05)
(0 -0 9.4754e-06)
(0 -0 7.5506e-06)
(0 -0 6.07337e-06)
(0 -0 4.94037e-06)
(0 -0 4.07234e-06)
(0 -0 3.40874e-06)
(0 -0 2.90197e-06)
(0 -0 -0.000435722)
(0 -0 -0.000433932)
(0 -0 -0.000432298)
(0 -0 -0.000430818)
(0 -0 -0.000429192)
(0 -0 -0.000427036)
(0 -0 -0.000425124)
(0 -0 -0.000427279)
(0 -0 -0.000441463)
(0 -0 -0.000478524)
(0 -0 -0.000548303)
(0 -0 -0.000654572)
(0 -0 -0.000791212)
(0 -0 -0.000941632)
(0 -0 -0.00108191)
(0 -0 -0.00118652)
(0 -0 -0.00123454)
(0 -0 -0.00121429)
(0 -0 -0.00112533)
(0 -0 -0.000977524)
(0 -0 -0.000788037)
(0 -0 -0.000577424)
(0 -0 -0.000365825)
(0 -0 -0.000170105)
(0 -0 -2.22703e-06)
(0 -0 0.000131163)
(0 -0 0.00022824)
(0 -0 0.00029094)
(0 -0 0.000323707)
(0 -0 0.000332296)
(0 -0 0.000322787)
(0 -0 0.000300888)
(0 -0 0.000271518)
(0 -0 0.000238609)
(0 -0 0.000205096)
(0 -0 0.000172999)
(0 -0 0.000143577)
(0 -0 0.000117495)
(0 -0 9.49779e-05)
(0 -0 7.59564e-05)
(0 -0 6.01763e-05)
(0 -0 4.72845e-05)
(0 -0 3.68894e-05)
(0 -0 2.86013e-05)
(0 -0 2.20564e-05)
(0 -0 1.69302e-05)
(0 -0 1.29427e-05)
(0 -0 9.85834e-06)
(0 -0 7.48297e-06)
(0 -0 5.65931e-06)
(0 -0 4.26195e-06)
(0 -0 3.19263e-06)
(0 -0 2.37614e-06)
(0 -0 1.75539e-06)
(0 -0 1.28635e-06)
(0 -0 -0.000430788)
(0 -0 -0.000429013)
(0 -0 -0.00042739)
(0 -0 -0.00042592)
(0 -0 -0.000424312)
(0 -0 -0.000422197)
(0 -0 -0.000420316)
(0 -0 -0.000422354)
(0 -0 -0.000435997)
(0 -0 -0.000471744)
(0 -0 -0.000539159)
(0 -0 -0.000641977)
(0 -0 -0.000774394)
(0 -0 -0.000920466)
(0 -0 -0.00105711)
(0 -0 -0.00115963)
(0 -0 -0.00120768)
(0 -0 -0.00118982)
(0 -0 -0.00110543)
(0 -0 -0.000963866)
(0 -0 -0.000781591)
(0 -0 -0.000578394)
(0 -0 -0.00037373)
(0 -0 -0.000183936)
(0 -0 -2.06543e-05)
(0 -0 0.000109595)
(0 -0 0.00020494)
(0 -0 0.000267154)
(0 -0 0.000300447)
(0 -0 0.000310313)
(0 -0 0.000302579)
(0 -0 0.000282735)
(0 -0 0.000255516)
(0 -0 0.000224723)
(0 -0 0.000193194)
(0 -0 0.000162896)
(0 -0 0.00013506)
(0 -0 0.000110341)
(0 -0 8.89758e-05)
(0 -0 7.09101e-05)
(0 -0 5.59122e-05)
(0 -0 4.36535e-05)
(0 -0 3.3766e-05)
(0 -0 2.58815e-05)
(0 -0 1.96557e-05)
(0 -0 1.47805e-05)
(0 -0 1.09896e-05)
(0 -0 8.05917e-06)
(0 -0 5.80422e-06)
(0 -0 4.07504e-06)
(0 -0 2.7522e-06)
(0 -0 1.74218e-06)
(0 -0 9.73579e-07)
(0 -0 3.92567e-07)
(0 -0 -4.13869e-08)
(0 -0 -0.000425593)
(0 -0 -0.000423835)
(0 -0 -0.000422225)
(0 -0 -0.000420765)
(0 -0 -0.000419176)
(0 -0 -0.000417101)
(0 -0 -0.000415252)
(0 -0 -0.000417181)
(0 -0 -0.000430311)
(0 -0 -0.000464802)
(0 -0 -0.000529941)
(0 -0 -0.000629415)
(0 -0 -0.000757703)
(0 -0 -0.000899468)
(0 -0 -0.00103244)
(0 -0 -0.00113269)
(0 -0 -0.00118048)
(0 -0 -0.00116462)
(0 -0 -0.00108433)
(0 -0 -0.000948515)
(0 -0 -0.000772987)
(0 -0 -0.000576811)
(0 -0 -0.000378784)
(0 -0 -0.000194732)
(0 -0 -3.59758e-05)
(0 -0 9.10968e-05)
(0 -0 0.000184588)
(0 -0 0.000246128)
(0 -0 0.000279715)
(0 -0 0.000290601)
(0 -0 0.000284382)
(0 -0 0.000266337)
(0 -0 0.000241033)
(0 -0 0.000212139)
(0 -0 0.000182407)
(0 -0 0.000153745)
(0 -0 0.000127355)
(0 -0 0.000103886)
(0 -0 8.35781e-05)
(0 -0 6.63915e-05)
(0 -0 5.21143e-05)
(0 -0 4.044e-05)
(0 -0 3.10223e-05)
(0 -0 2.35125e-05)
(0 -0 1.75834e-05)
(0 -0 1.29417e-05)
(0 -0 9.33404e-06)
(0 -0 6.54678e-06)
(0 -0 4.40378e-06)
(0 -0 2.76226e-06)
(0 -0 1.50833e-06)
(0 -0 5.5291e-07)
(0 -0 -1.71844e-07)
(0 -0 -7.16645e-07)
(0 -0 -1.11853e-06)
(0 -0 -0.000420139)
(0 -0 -0.000418398)
(0 -0 -0.000416803)
(0 -0 -0.000415353)
(0 -0 -0.000413783)
(0 -0 -0.000411748)
(0 -0 -0.000409932)
(0 -0 -0.00041176)
(0 -0 -0.000424405)
(0 -0 -0.000457696)
(0 -0 -0.000520649)
(0 -0 -0.000616888)
(0 -0 -0.000741148)
(0 -0 -0.000878665)
(0 -0 -0.00100793)
(0 -0 -0.00110579)
(0 -0 -0.00115307)
(0 -0 -0.00113884)
(0 -0 -0.00106223)
(0 -0 -0.000931723)
(0 -0 -0.000762511)
(0 -0 -0.000572983)
(0 -0 -0.000381306)
(0 -0 -0.000202812)
(0 -0 -4.85036e-05)
(0 -0 7.53733e-05)
(0 -0 0.000166909)
(0 -0 0.000227611)
(0 -0 0.000261284)
(0 -0 0.000272962)
(0 -0 0.00026802)
(0 -0 0.000251544)
(0 -0 0.000227937)
(0 -0 0.000200747)
(0 -0 0.000172637)
(0 -0 0.00014546)
(0 -0 0.000120391)
(0 -0 9.80651e-05)
(0 -0 7.87271e-05)
(0 -0 6.23472e-05)
(0 -0 4.87326e-05)
(0 -0 3.75978e-05)
(0 -0 2.86156e-05)
(0 -0 2.1454e-05)
(0 -0 1.58009e-05)
(0 -0 1.13765e-05)
(0 -0 7.93897e-06)
(0 -0 5.28449e-06)
(0 -0 3.24493e-06)
(0 -0 1.68406e-06)
(0 -0 4.932e-07)
(0 -0 -4.12624e-07)
(0 -0 -1.09791e-06)
(0 -0 -1.61035e-06)
(0 -0 -1.98351e-06)
(0 -0 -0.000414425)
(0 -0 -0.000412704)
(0 -0 -0.000411123)
(0 -0 -0.000409687)
(0 -0 -0.000408136)
(0 -0 -0.00040614)
(0 -0 -0.000404357)
(0 -0 -0.000406092)
(0 -0 -0.000418276)
(0 -0 -0.000450423)
(0 -0 -0.000511278)
(0 -0 -0.000604393)
(0 -0 -0.000724735)
(0 -0 -0.000858075)
(0 -0 -0.000983631)
(0 -0 -0.001079)
(0 -0 -0.00112556)
(0 -0 -0.00111266)
(0 -0 -0.00103935)
(0 -0 -0.000913735)
(0 -0 -0.000750441)
(0 -0 -0.000567211)
(0 -0 -0.000381612)
(0 -0 -0.000208497)
(0 -0 -5.85518e-05)
(0 -0 6.21239e-05)
(0 -0 0.000151623)
(0 -0 0.000211346)
(0 -0 0.000244926)
(0 -0 0.000257192)
(0 -0 0.000253316)
(0 -0 0.0002382)
(0 -0 0.000216095)
(0 -0 0.00019043)
(0 -0 0.000163784)
(0 -0 0.000137956)
(0 -0 0.00011409)
(0 -0 9.28114e-05)
(0 -0 7.43635e-05)
(0 -0 5.87213e-05)
(0 -0 4.57148e-05)
(0 -0 3.50798e-05)
(0 -0 2.65032e-05)
(0 -0 1.96665e-05)
(0 -0 1.42708e-05)
(0 -0 1.00485e-05)
(0 -0 6.76851e-06)
(0 -0 4.23642e-06)
(0 -0 2.29172e-06)
(0 -0 8.04318e-07)
(0 -0 -3.29572e-07)
(0 -0 -1.19106e-06)
(0 -0 -1.84151e-06)
(0 -0 -2.32572e-06)
(0 -0 -2.67367e-06)
(0 -0 -0.000408453)
(0 -0 -0.000406752)
(0 -0 -0.000405188)
(0 -0 -0.000403765)
(0 -0 -0.000402235)
(0 -0 -0.000400277)
(0 -0 -0.000398527)
(0 -0 -0.000400176)
(0 -0 -0.000411925)
(0 -0 -0.000442981)
(0 -0 -0.000501823)
(0 -0 -0.000591927)
(0 -0 -0.000708467)
(0 -0 -0.000837719)
(0 -0 -0.000959593)
(0 -0 -0.0010524)
(0 -0 -0.00109809)
(0 -0 -0.00108626)
(0 -0 -0.00101592)
(0 -0 -0.000894832)
(0 -0 -0.000737096)
(0 -0 -0.000559844)
(0 -0 -0.000380066)
(0 -0 -0.000212152)
(0 -0 -6.64773e-05)
(0 -0 5.10097e-05)
(0 -0 0.000138416)
(0 -0 0.00019705)
(0 -0 0.000230387)
(0 -0 0.000243069)
(0 -0 0.000240079)
(0 -0 0.000226144)
(0 -0 0.000205371)
(0 -0 0.000181076)
(0 -0 0.000155757)
(0 -0 0.000131158)
(0 -0 0.000108394)
(0 -0 8.80777e-05)
(0 -0 7.04501e-05)
(0 -0 5.54777e-05)
(0 -0 4.30048e-05)
(0 -0 3.28405e-05)
(0 -0 2.46467e-05)
(0 -0 1.81152e-05)
(0 -0 1.29595e-05)
(0 -0 8.92424e-06)
(0 -0 5.78922e-06)
(0 -0 3.36896e-06)
(0 -0 1.51031e-06)
(0 -0 8.89967e-08)
(0 -0 -9.94173e-07)
(0 -0 -1.81672e-06)
(0 -0 -2.43716e-06)
(0 -0 -2.89751e-06)
(0 -0 -3.22376e-06)
(0 -0 -0.000402224)
(0 -0 -0.000400544)
(0 -0 -0.000398999)
(0 -0 -0.000397591)
(0 -0 -0.000396082)
(0 -0 -0.000394162)
(0 -0 -0.000392445)
(0 -0 -0.000394013)
(0 -0 -0.000405348)
(0 -0 -0.000435359)
(0 -0 -0.000492268)
(0 -0 -0.000579466)
(0 -0 -0.00069232)
(0 -0 -0.000817582)
(0 -0 -0.000935824)
(0 -0 -0.00102605)
(0 -0 -0.00107074)
(0 -0 -0.00105978)
(0 -0 -0.000992153)
(0 -0 -0.000875299)
(0 -0 -0.000722814)
(0 -0 -0.000551256)
(0 -0 -0.000377062)
(0 -0 -0.000214177)
(0 -0 -7.26725e-05)
(0 -0 4.16587e-05)
(0 -0 0.000126944)
(0 -0 0.000184413)
(0 -0 0.000217396)
(0 -0 0.000230363)
(0 -0 0.000228115)
(0 -0 0.000215218)
(0 -0 0.000195639)
(0 -0 0.000172587)
(0 -0 0.000148481)
(0 -0 0.000125014)
(0 -0 0.000103269)
(0 -0 8.38468e-05)
(0 -0 6.69866e-05)
(0 -0 5.26839e-05)
(0 -0 4.06922e-05)
(0 -0 3.08619e-05)
(0 -0 2.3044e-05)
(0 -0 1.68017e-05)
(0 -0 1.18695e-05)
(0 -0 8.00658e-06)
(0 -0 5.00426e-06)
(0 -0 2.68591e-06)
(0 -0 9.05306e-07)
(0 -0 -4.56419e-07)
(0 -0 -1.49424e-06)
(0 -0 -2.28245e-06)
(0 -0 -2.87708e-06)
(0 -0 -3.31753e-06)
(0 -0 -3.62569e-06)
(0 -0 -0.000395739)
(0 -0 -0.000394082)
(0 -0 -0.000392556)
(0 -0 -0.000391164)
(0 -0 -0.000389678)
(0 -0 -0.000387796)
(0 -0 -0.000386111)
(0 -0 -0.000387605)
(0 -0 -0.000398544)
(0 -0 -0.000427554)
(0 -0 -0.000482601)
(0 -0 -0.000566992)
(0 -0 -0.000676271)
(0 -0 -0.00079764)
(0 -0 -0.00091231)
(0 -0 -0.000999945)
(0 -0 -0.00104357)
(0 -0 -0.00103334)
(0 -0 -0.000968209)
(0 -0 -0.000855339)
(0 -0 -0.000707845)
(0 -0 -0.000541736)
(0 -0 -0.000372919)
(0 -0 -0.000214907)
(0 -0 -7.74708e-05)
(0 -0 3.37486e-05)
(0 -0 0.000116906)
(0 -0 0.000173161)
(0 -0 0.000205711)
(0 -0 0.000218861)
(0 -0 0.000217245)
(0 -0 0.000205271)
(0 -0 0.000186776)
(0 -0 0.000164865)
(0 -0 0.000141879)
(0 -0 0.000119464)
(0 -0 9.86703e-05)
(0 -0 8.00877e-05)
(0 -0 6.39644e-05)
(0 -0 5.02587e-05)
(0 -0 3.88378e-05)
(0 -0 2.93856e-05)
(0 -0 2.17526e-05)
(0 -0 1.57888e-05)
(0 -0 1.10661e-05)
(0 -0 7.36546e-06)
(0 -0 4.48989e-06)
(0 -0 2.2708e-06)
(0 -0 5.68061e-07)
(0 -0 -7.32366e-07)
(0 -0 -1.72171e-06)
(0 -0 -2.47144e-06)
(0 -0 -3.03574e-06)
(0 -0 -3.45107e-06)
(0 -0 -3.74463e-06)
(0 -0 3.72635e-05)
(0 -0 2.82225e-05)
(0 -0 2.09193e-05)
(0 -0 1.51086e-05)
(0 -0 1.05779e-05)
(0 -0 7.03368e-06)
(0 -0 4.28602e-06)
(0 -0 2.17205e-06)
(0 -0 5.56474e-07)
(0 -0 -6.70754e-07)
(0 -0 -1.59757e-06)
(0 -0 -2.29287e-06)
(0 -0 -2.80815e-06)
(0 -0 -3.18902e-06)
(0 -0 -3.44077e-06)
(0 -0 -1.07931e-05)
(0 -0 -1.07624e-05)
(0 -0 -1.07341e-05)
(0 -0 -1.07084e-05)
(0 -0 -1.06712e-05)
(0 -0 -1.06081e-05)
(0 -0 -1.05628e-05)
(0 -0 -1.07166e-05)
(0 -0 -1.1422e-05)
(0 -0 -1.31288e-05)
(0 -0 -1.62018e-05)
(0 -0 -2.07034e-05)
(0 -0 -2.62504e-05)
(0 -0 -3.20228e-05)
(0 -0 -3.69336e-05)
(0 -0 -3.98972e-05)
(0 -0 -4.00998e-05)
(0 -0 -3.71856e-05)
(0 -0 -3.13132e-05)
(0 -0 -2.30868e-05)
(0 -0 -1.34002e-05)
(0 -0 -3.24898e-06)
(0 -0 6.44083e-06)
(0 -0 1.49351e-05)
(0 -0 2.17542e-05)
(0 -0 2.6679e-05)
(0 -0 2.97174e-05)
(0 -0 3.10466e-05)
(0 -0 3.09497e-05)
(0 -0 2.97565e-05)
(0 -0 2.77979e-05)
(0 -0 2.53731e-05)
(0 -0 2.27319e-05)
(0 -0 2.00674e-05)
(0 -0 1.7518e-05)
(0 -0 1.51732e-05)
(0 -0 1.30824e-05)
(0 -0 1.12647e-05)
(0 -0 9.71761e-06)
(0 -0 8.42431e-06)
(0 -0 7.35987e-06)
(0 -0 6.4956e-06)
(0 -0 5.80221e-06)
(0 -0 5.2518e-06)
(0 -0 4.81904e-06)
(0 -0 4.48169e-06)
(0 -0 4.22077e-06)
(0 -0 4.02041e-06)
(0 -0 3.86756e-06)
(0 -0 3.7517e-06)
(0 -0 3.66436e-06)
(0 -0 3.59889e-06)
(0 -0 3.55004e-06)
(0 -0 3.51375e-06)
(0 -0 3.48679e-06)
(0 -0 -3.21877e-05)
(0 -0 -3.20816e-05)
(0 -0 -3.19902e-05)
(0 -0 -3.19098e-05)
(0 -0 -3.17971e-05)
(0 -0 -3.16084e-05)
(0 -0 -3.14718e-05)
(0 -0 -3.19236e-05)
(0 -0 -3.40093e-05)
(0 -0 -3.90669e-05)
(0 -0 -4.81864e-05)
(0 -0 -6.15657e-05)
(0 -0 -7.80815e-05)
(0 -0 -9.53121e-05)
(0 -0 -0.000110037)
(0 -0 -0.000119029)
(0 -0 -0.000119862)
(0 -0 -0.00011146)
(0 -0 -9.42712e-05)
(0 -0 -7.00675e-05)
(0 -0 -4.14849e-05)
(0 -0 -1.14675e-05)
(0 -0 1.72395e-05)
(0 -0 4.24548e-05)
(0 -0 6.27471e-05)
(0 -0 7.74564e-05)
(0 -0 8.65941e-05)
(0 -0 9.06752e-05)
(0 -0 9.05298e-05)
(0 -0 8.71294e-05)
(0 -0 8.14497e-05)
(0 -0 7.43749e-05)
(0 -0 6.6644e-05)
(0 -0 5.88299e-05)
(0 -0 5.13431e-05)
(0 -0 4.44501e-05)
(0 -0 3.82992e-05)
(0 -0 3.29485e-05)
(0 -0 2.83919e-05)
(0 -0 2.45812e-05)
(0 -0 2.14435e-05)
(0 -0 1.88951e-05)
(0 -0 1.68499e-05)
(0 -0 1.52259e-05)
(0 -0 1.39487e-05)
(0 -0 1.29528e-05)
(0 -0 1.21824e-05)
(0 -0 1.15906e-05)
(0 -0 1.1139e-05)
(0 -0 1.07965e-05)
(0 -0 1.05383e-05)
(0 -0 1.03446e-05)
(0 -0 1.02e-05)
(0 -0 1.00925e-05)
(0 -0 1.00126e-05)
(0 -0 -5.31495e-05)
(0 -0 -5.2963e-05)
(0 -0 -5.2805e-05)
(0 -0 -5.26682e-05)
(0 -0 -5.24806e-05)
(0 -0 -5.21692e-05)
(0 -0 -5.19404e-05)
(0 -0 -5.26678e-05)
(0 -0 -5.60636e-05)
(0 -0 -6.43284e-05)
(0 -0 -7.92713e-05)
(0 -0 -0.000101252)
(0 -0 -0.00012847)
(0 -0 -0.000156991)
(0 -0 -0.000181552)
(0 -0 -0.000196856)
(0 -0 -0.000198888)