/*--------------------------------*- C++ -*----------------------------------*\
| =========                 |                                                 |
| \\      /  F ield         | OpenFOAM: The Open Source CFD Toolbox           |
|  \\    /   O peration     | Version:  2412                                  |
|   \\  /    A nd           | Website:  www.openfoam.com                      |
|    \\/     M anipulation  |                                                 |
\*---------------------------------------------------------------------------*/
FoamFile
{
    version     2.0;
    format      ascii;
    arch        "LSB;label=32;scalar=64";
    class       volScalarField;
    location    "30";
    object      error;
}
// * * * * * * * * * * * * * * * * * * * * * * * * * * * * * * * * * * * * * //

dimensions      [0 0 0 0 0 0 0];

internalField   nonuniform List<scalar> 
5285
(
0.0764505
0.0770504
0.0777501
0.0785462
0.0794292
0.0803888
0.0814143
0.0824948
0.0836186
0.0847741
0.0859498
0.0871344
0.0883171
0.0894874
0.0906358
0.0917533
0.0928316
0.0938633
0.0948418
0.0957611
0.0966163
0.0974029
0.0981175
0.0987575
0.0781561
0.0787851
0.0795203
0.0803621
0.0812984
0.0823171
0.0834068
0.0845552
0.0857496
0.0869772
0.0882254
0.0894819
0.090735
0.0919734
0.0931869
0.0943658
0.0955014
0.0965858
0.097612
0.0985738
0.0994659
0.100284
0.101024
0.101685
0.0799268
0.080588
0.0813618
0.0822534
0.0832477
0.0843308
0.08549
0.0867118
0.0879824
0.0892876
0.0906137
0.0919472
0.0932755
0.0945865
0.095869
0.0971129
0.0983088
0.0994484
0.100524
0.10153
0.10246
0.10331
0.104077
0.104757
0.0817661
0.0824624
0.0832781
0.0842238
0.0852814
0.0864344
0.0876689
0.0889703
0.0903232
0.091712
0.0931217
0.0945377
0.0959464
0.0973346
0.0986904
0.100003
0.101262
0.10246
0.103587
0.104639
0.105608
0.106491
0.107283
0.107983
0.0836776
0.0844119
0.0852731
0.0862778
0.087404
0.088633
0.0899494
0.0913369
0.0927786
0.0942575
0.0957571
0.0972617
0.0987561
0.100227
0.10166
0.103045
0.104371
0.105629
0.10681
0.107909
0.108918
0.109833
0.110652
0.11137
0.0856646
0.0864402
0.0873508
0.0884196
0.0896206
0.0909323
0.0923375
0.0938183
0.0953561
0.0969322
0.0985285
0.100128
0.101714
0.103272
0.104788
0.106249
0.107645
0.108966
0.110203
0.11135
0.1124
0.113348
0.114192
0.114928
0.0877303
0.0885508
0.0895153
0.090654
0.0919366
0.0933382
0.0948399
0.096422
0.0980638
0.0997446
0.101445
0.103146
0.10483
0.106481
0.108084
0.109626
0.111095
0.112482
0.113777
0.114973
0.116065
0.117046
0.117914
0.118667
0.089878
0.0907474
0.0917709
0.0929859
0.0943576
0.0958573
0.097464
0.099156
0.10091
0.102704
0.104516
0.106326
0.108114
0.109864
0.111559
0.113187
0.114733
0.116188
0.117543
0.11879
0.119922
0.120936
0.121828
0.122596
0.0921111
0.093034
0.0941219
0.0954206
0.0968896
0.0984964
0.100218
0.102029
0.103905
0.105821
0.107753
0.109679
0.111579
0.113434
0.115227
0.116943
0.11857
0.120096
0.121512
0.12281
0.123985
0.125031
0.125945
0.126726
0.0944328
0.0954144
0.0965732
0.0979636
0.0995393
0.101263
0.103109
0.10505
0.107058
0.109105
0.111167
0.113218
0.115236
0.117203
0.119099
0.120909
0.12262
0.124219
0.125698
0.127048
0.128264
0.129341
0.130276
0.131067
0.0968467
0.0978927
0.0991295
0.100621
0.102313
0.104165
0.106147
0.108229
0.11038
0.11257
0.11477
0.116955
0.1191
0.121184
0.123189
0.125097
0.126895
0.12857
0.130113
0.131515
0.132772
0.133878
0.134831
0.135631
0.0993562
0.100473
0.101796
0.103398
0.105219
0.107212
0.109342
0.111577
0.113883
0.116226
0.118576
0.120903
0.123183
0.125393
0.127511
0.129522
0.13141
0.133162
0.13477
0.136225
0.137521
0.138654
0.139623
0.140426
0.101965
0.10316
0.104578
0.106303
0.108265
0.110411
0.112704
0.115106
0.117579
0.120088
0.122598
0.125078
0.127501
0.129843
0.132081
0.134198
0.136179
0.138011
0.139683
0.141189
0.142523
0.143681
0.144662
0.145465
0.104676
0.105958
0.107481
0.109341
0.111459
0.113773
0.116243
0.118827
0.121482
0.124169
0.126851
0.129494
0.132069
0.134549
0.136913
0.139141
0.141217
0.143129
0.144866
0.146422
0.147791
0.14897
0.149958
0.150756
0.107493
0.108871
0.11051
0.112519
0.114809
0.117308
0.119972
0.122754
0.125606
0.128485
0.131351
0.134167
0.136902
0.139528
0.142022
0.144364
0.146537
0.148529
0.15033
0.151934
0.153334
0.15453
0.15552
0.156307
0.110418
0.111903
0.113671
0.115845
0.118324
0.121027
0.123902
0.126898
0.129963
0.133049
0.136111
0.139111
0.142015
0.144794
0.147422
0.149881
0.152152
0.154224
0.156088
0.157735
0.159163
0.16037
0.161356
0.162124
0.113453
0.115056
0.116968
0.119325
0.122012
0.124938
0.128044
0.131273
0.134568
0.137875
0.141146
0.144341
0.147422
0.15036
0.153127
0.155704
0.158074
0.160224
0.162146
0.163833
0.165282
0.166494
0.167468
0.16821
0.1166
0.118334
0.120406
0.122964
0.12588
0.129051
0.132409
0.13589
0.139432
0.142976
0.146469
0.149869
0.153135
0.156237
0.159146
0.161842
0.164309
0.166535
0.16851
0.170231
0.171695
0.172903
0.173857
0.174563
0.162432
0.165485
0.1683
0.170861
0.173157
0.175181
0.176928
0.178398
0.179593
0.180517
0.181177
0.0751838
0.0750646
0.0750399
0.0751145
0.0752916
0.0755728
0.0759593
0.0768296
0.0766849
0.0766461
0.0767188
0.076906
0.0772092
0.0776325
0.0785438
0.0783702
0.078315
0.0783841
0.0785804
0.0789056
0.0793672
0.0803292
0.0801235
0.0800495
0.0801136
0.0803186
0.0806661
0.081168
0.0821887
0.0819474
0.081852
0.0819097
0.0821232
0.0824939
0.0830383
0.0841257
0.0838447
0.0837252
0.083775
0.0839968
0.0843917
0.0849811
0.086144
0.0858188
0.085672
0.0857122
0.0859418
0.0863621
0.0869993
0.0882473
0.0878729
0.0876953
0.0877238
0.0879611
0.0884077
0.0890959
0.0904398
0.0900106
0.0897982
0.0898128
0.0900571
0.0905313
0.0912737
0.0927262
0.0922359
0.091984
0.0919821
0.0922327
0.0927355
0.0935357
0.0951115
0.0945528
0.0942563
0.0942347
0.0944907
0.0950232
0.0958848
0.0976011
0.0969658
0.0966185
0.0965737
0.0968339
0.0973971
0.0983242
0.1002
0.0994791
0.0990744
0.099002
0.0992649
0.0998598
0.100857
0.102915
0.102098
0.101628
0.101523
0.101786
0.102414
0.103485
0.105751
0.104827
0.104282
0.104139
0.104401
0.105061
0.106211
0.108717
0.107671
0.107042
0.106854
0.107111
0.107804
0.109037
0.111818
0.110635
0.10991
0.109669
0.109918
0.110644
0.111965
0.115063
0.113726
0.112891
0.112588
0.112823
0.113581
0.114995
0.11846
0.116949
0.115987
0.115611
0.115826
0.116614
0.118123
0.122016
0.120308
0.0780071
0.0774566
0.0769377
0.0764619
0.0760391
0.0756791
0.0753911
0.0800842
0.079452
0.0788557
0.0783094
0.0778232
0.0774077
0.0770733
0.0822685
0.0815484
0.0808682
0.080245
0.0796897
0.0792135
0.078828
0.0845662
0.0837511
0.0829796
0.0822727
0.081642
0.0810994
0.0806579
0.0869838
0.0860664
0.0851959
0.0843973
0.0836844
0.0830696
0.0825666
0.0895295
0.088501
0.0875236
0.0866253
0.0858221
0.0851281
0.0845578
0.0922134
0.091064
0.0899708
0.0889664
0.0880627
0.0872807
0.0866359
0.0950446
0.0937629
0.0925407
0.0914201
0.0904117
0.0895331
0.0888058
0.0980346
0.0966094
0.0952477
0.0939955
0.0928702
0.0918882
0.0910713
0.101195
0.0996142
0.0981011
0.0967078
0.0954524
0.0943548
0.0934388
0.10454
0.102789
0.10111
0.0995633
0.0981667
0.0969408
0.0959145
0.108084
0.106146
0.104286
0.102569
0.101018
0.099653
0.0985047
0.111842
0.109701
0.107643
0.105739
0.104015
0.102497
0.101215
0.115833
0.113469
0.111194
0.109086
0.107174
0.105485
0.104054
0.120076
0.117469
0.114955
0.112623
0.110503
0.108625
0.107029
0.124594
0.121719
0.118944
0.116365
0.114016
0.111929
0.110149
0.12941
0.126242
0.12318
0.120329
0.117726
0.115408
0.113423
0.134553
0.131061
0.127684
0.124533
0.121649
0.119075
0.116862
0.140051
0.136204
0.132479
0.128996
0.125803
0.122943
0.120475
0.127027
0.124276
0.0712987
0.0722993
0.0732778
0.0742308
0.0751547
0.0760463
0.0769022
0.0777191
0.0784935
0.079222
0.0799013
0.080528
0.0810992
0.0816117
0.0820627
0.0824498
0.0827708
0.0830236
0.083207
0.0833198
0.0833618
0.0833331
0.0832345
0.0830676
0.0828348
0.0825393
0.0821851
0.0817772
0.0813216
0.0808252
0.0802956
0.0797411
0.0791702
0.0785909
0.0728538
0.0739151
0.0749547
0.0759689
0.0769541
0.0779067
0.0788231
0.0796995
0.0805322
0.0813176
0.0820518
0.0827314
0.0833527
0.0839123
0.0844071
0.0848342
0.0851909
0.085475
0.0856847
0.0858187
0.0858761
0.085857
0.0857619
0.0855923
0.0853504
0.0850393
0.0846631
0.084227
0.0837372
0.0832007
0.0826259
0.082021
0.0813946
0.0807534
0.074442
0.0755679
0.0766727
0.0777525
0.0788034
0.0798215
0.080803
0.0817437
0.0826397
0.0834869
0.0842811
0.0850184
0.0856948
0.0863066
0.08685
0.0873217
0.0877187
0.0880383
0.0882783
0.0884369
0.0885131
0.0885064
0.0884172
0.0882466
0.0879968
0.0876707
0.0872726
0.0868077
0.0862823
0.0857039
0.0850811
0.0844226
0.0837366
0.0830286
0.0760625
0.0772571
0.0784314
0.0795813
0.0807026
0.0817911
0.0828426
0.0838529
0.0848174
0.0857317
0.0865914
0.0873919
0.0881288
0.088798
0.0893953
0.0899169
0.0903591
0.090719
0.0909937
0.0911811
0.0912797
0.0912886
0.0912079
0.0910385
0.0907823
0.0904422
0.0900223
0.0895279
0.0889657
0.0883434
0.08767
0.0869544
0.0862046
0.0854244
0.0777143
0.0789819
0.0802303
0.081455
0.0826516
0.0838156
0.0849426
0.0860279
0.0870665
0.0880538
0.0889847
0.0898543
0.0906578
0.0913903
0.0920473
0.0926243
0.0931173
0.0935226
0.093837
0.0940578
0.0941829
0.0942112
0.0941422
0.0939765
0.0937158
0.0933627
0.0929214
0.0923973
0.091797
0.0911288
0.0904019
0.0896255
0.0888072
0.0879487
0.0793961
0.0807413
0.0820684
0.083373
0.0846502
0.0858952
0.0871034
0.0882695
0.0893884
0.0904548
0.0914633
0.0924084
0.0932848
0.0940871
0.0948101
0.0954489
0.0959987
0.0964554
0.096815
0.0970742
0.0972307
0.0972825
0.0972288
0.0970697
0.0968067
0.0964422
0.0959801
0.0954259
0.0947865
0.0940704
0.093287
0.0924461
0.0915543
0.0906112
0.0811064
0.0825339
0.0839449
0.0853345
0.0866978
0.0880298
0.0893251
0.0905784
0.091784
0.0929362
0.0940291
0.0950567
0.096013
0.0968921
0.0976881
0.0983956
0.099009
0.0995234
0.0999344
0.100238
0.100431
0.100511
0.100477
0.100328
0.100065
0.0996912
0.0992094
0.0986251
0.0979456
0.0971794
0.0963366
0.0954269
0.0944565
0.0934218
0.0828434
0.0843581
0.0858582
0.0873385
0.0887938
0.0902188
0.0916078
0.092955
0.0942543
0.0954995
0.0966842
0.0978017
0.0988456
0.0998091
0.100686
0.10147
0.102154
0.102733
0.103203
0.103557
0.103793
0.103907
0.103897
0.103762
0.103503
0.103121
0.102621
0.102007
0.101286
0.100468
0.0995628
0.0985801
0.0975254
0.0963915
0.0846051
0.0862122
0.0878068
0.0893836
0.0909371
0.0924616
0.0939511
0.0953994
0.0967999
0.0981458
0.0994302
0.100646
0.101786
0.102842
0.103808
0.104676
0.10544
0.106092
0.106627
0.10704
0.107325
0.107479
0.107499
0.107383
0.107131
0.106745
0.106228
0.105585
0.104822
0.10395
0.102979
0.101919
0.100774
0.0995323
0.0863891
0.0880939
0.0897887
0.0914682
0.0931263
0.0947572
0.0963545
0.0979115
0.0994212
0.100876
0.102269
0.103591
0.104836
0.105994
0.107058
0.10802
0.108872
0.109607
0.110217
0.110696
0.111038
0.111239
0.111294
0.111203
0.110963
0.110576
0.110044
0.109372
0.108568
0.10764
0.1066
0.105457
0.104215
0.102858
0.0881927
0.0900006
0.0918017
0.0935901
0.0953598
0.0971044
0.0988171
0.100491
0.102118
0.103691
0.105201
0.10664
0.108
0.10927
0.110442
0.111508
0.112458
0.113285
0.113979
0.114533
0.114941
0.115197
0.115296
0.115235
0.115012
0.114628
0.114084
0.113386
0.112539
0.111554
0.110441
0.109211
0.107866
0.106382
0.0900125
0.0919294
0.0938429
0.095747
0.0976353
0.0995012
0.101338
0.103137
0.104891
0.106591
0.108229
0.109795
0.111279
0.112672
0.113964
0.115145
0.116204
0.117133
0.117922
0.118563
0.119046
0.119366
0.119517
0.119494
0.119294
0.118918
0.118366
0.117642
0.116754
0.115709
0.114521
0.113198
0.111742
0.110122
0.0918452
0.0938768
0.095909
0.0979357
0.0999502
0.101945
0.103914
0.105848
0.107738
0.109576
0.111352
0.113056
0.114677
0.116204
0.117628
0.118936
0.120117
0.121161
0.122057
0.122794
0.123365
0.123759
0.123971
0.123994
0.123825
0.123462
0.122906
0.12216
0.12123
0.120126
0.118858
0.117438
0.115863
0.114095
0.0936865
0.0958389
0.0979965
0.100153
0.102301
0.104434
0.106544
0.108622
0.110659
0.112646
0.114571
0.116425
0.118195
0.11987
0.121438
0.122886
0.124203
0.125375
0.126391
0.127239
0.127908
0.128389
0.128673
0.128752
0.128622
0.12828
0.127725
0.126959
0.125989
0.124824
0.123475
0.121951
0.120248
0.11832
0.095532
0.0978113
0.100101
0.102395
0.104685
0.106964
0.109225
0.111457
0.113652
0.115799
0.117886
0.119902
0.121835
0.123672
0.125398
0.127002
0.128469
0.129784
0.130935
0.131908
0.13269
0.133271
0.133639
0.133785
0.133704
0.13339
0.132843
0.132062
0.131055
0.129828
0.128394
0.12676
0.124922
0.12282
0.0973764
0.0997888
0.102217
0.104656
0.107096
0.109532
0.111953
0.11435
0.116714
0.119033
0.121295
0.123488
0.125598
0.127611
0.129513
0.131288
0.132921
0.134396
0.135699
0.136813
0.137724
0.138419
0.138885
0.139112
0.139091
0.138816
0.138283
0.137494
0.136451
0.135163
0.133641
0.131892
0.129909
0.127619
0.099214
0.101766
0.10434
0.106931
0.109531
0.112131
0.114723
0.117297
0.119842
0.122347
0.124798
0.127182
0.129485
0.131691
0.133785
0.135749
0.137566
0.13922
0.140692
0.141965
0.143023
0.14385
0.144431
0.144753
0.144806
0.14458
0.144072
0.14328
0.142206
0.140857
0.139245
0.137376
0.135237
0.132743
0.101038
0.103736
0.106463
0.109215
0.111982
0.114757
0.117531
0.120293
0.123032
0.125736
0.128391
0.130982
0.133495
0.135912
0.138216
0.140388
0.14241
0.144262
0.145925
0.147378
0.148603
0.149581
0.150295
0.150729
0.150871
0.150709
0.150236
0.149449
0.148349
0.146942
0.145238
0.143242
0.140938
0.138223
0.0241823
0.0244442
0.0247047
0.0249641
0.025222
0.0254784
0.0257331
0.0259861
0.0262372
0.0264864
0.0267334
0.0269782
0.0272207
0.0274606
0.027698
0.0279327
0.0281645
0.0283933
0.0286191
0.0288416
0.0290608
0.0292765
0.0294887
0.0296971
0.0299018
0.0301025
0.0302992
0.0304917
0.03068
0.0308639
0.0310434
0.0312183
0.0313885
0.031554
0.0241943
0.0244515
0.0247075
0.0249624
0.0252158
0.0254677
0.0257181
0.0259668
0.0262137
0.0264587
0.0267016
0.0269424
0.0271809
0.027417
0.0276506
0.0278816
0.0281098
0.0283352
0.0285576
0.0287769
0.0289929
0.0292056
0.0294149
0.0296206
0.0298227
0.0300209
0.0302152
0.0304055
0.0305918
0.0307738
0.0309514
0.0311247
0.0312935
0.0314576
0.0242431
0.0244958
0.0247473
0.0249977
0.0252467
0.0254943
0.0257404
0.0259849
0.0262276
0.0264685
0.0267075
0.0269444
0.0271791
0.0274115
0.0276415
0.0278689
0.0280938
0.0283158
0.0285351
0.0287513
0.0289644
0.0291744
0.029381
0.0295842
0.0297838
0.0299798
0.030172
0.0303604
0.0305448
0.0307252
0.0309014
0.0310733
0.0312409
0.031404
0.0243289
0.0245771
0.0248242
0.0250702
0.0253149
0.0255583
0.0258001
0.0260405
0.0262791
0.0265161
0.0267511
0.0269841
0.0272151
0.0274439
0.0276704
0.0278944
0.028116
0.0283349
0.028551
0.0287643
0.0289747
0.029182
0.0293861
0.0295869
0.0297843
0.0299782
0.0301686
0.0303552
0.030538
0.0307169
0.0308918
0.0310626
0.0312292
0.0313916
0.0244522
0.024696
0.0249387
0.0251803
0.0254207
0.0256598
0.0258975
0.0261338
0.0263684
0.0266014
0.0268325
0.0270618
0.0272891
0.0275143
0.0277373
0.027958
0.0281763
0.028392
0.0286052
0.0288157
0.0290233
0.029228
0.0294297
0.0296282
0.0298235
0.0300154
0.030204
0.030389
0.0305703
0.0307479
0.0309217
0.0310915
0.0312573
0.031419
0.0246131
0.0248525
0.0250908
0.0253282
0.0255643
0.0257992
0.0260328
0.0262649
0.0264955
0.0267245
0.0269519
0.0271774
0.027401
0.0276226
0.0278421
0.0280594
0.0282745
0.0284872
0.0286973
0.0289049
0.0291099
0.029312
0.0295113
0.0297075
0.0299008
0.0300908
0.0302775
0.0304609
0.0306409
0.0308172
0.0309899
0.0311589
0.031324
0.0314851
0.0248116
0.0250466
0.0252806
0.0255137
0.0257456
0.0259763
0.0262057
0.0264338
0.0266604
0.0268855
0.0271089
0.0273306
0.0275505
0.0277686
0.0279846
0.0281985
0.0284103
0.0286199
0.028827
0.0290317
0.0292339
0.0294335
0.0296303
0.0298243
0.0300154
0.0302035
0.0303885
0.0305703
0.0307488
0.0309239
0.0310955
0.0312636
0.0314281
0.0315887
0.0250471
0.0252778
0.0255076
0.0257364
0.0259641
0.0261907
0.026416
0.02664
0.0268626
0.0270837
0.0273033
0.0275212
0.0277374
0.0279518
0.0281643
0.0283748
0.0285832
0.0287896
0.0289936
0.0291954
0.0293948
0.0295917
0.029786
0.0299777
0.0301666
0.0303527
0.0305359
0.030716
0.0308931
0.031067
0.0312375
0.0314047
0.0315685
0.0317287
0.025319
0.0255455
0.0257711
0.0259958
0.0262194
0.0264418
0.0266631
0.026883
0.0271016
0.0273188
0.0275344
0.0277485
0.0279609
0.0281716
0.0283805
0.0285875
0.0287926
0.0289956
0.0291966
0.0293953
0.0295918
0.029786
0.0299777
0.0301669
0.0303536
0.0305376
0.0307189
0.0308973
0.0310729
0.0312454
0.0314149
0.0315812
0.0317442
0.0319039
0.0256265
0.025849
0.0260705
0.0262912
0.0265107
0.0267291
0.0269463
0.0271622
0.0273768
0.02759
0.0278017
0.0280119
0.0282205
0.0284275
0.0286327
0.0288362
0.0290378
0.0292374
0.0294351
0.0296307
0.0298242
0.0300155
0.0302046
0.0303913
0.0305755
0.0307574
0.0309366
0.0311132
0.0312872
0.0314583
0.0316266
0.0317919
0.0319541
0.0321133
0.0259688
0.0261874
0.0264051
0.0266218
0.0268373
0.0270517
0.027265
0.0274769
0.0276875
0.0278968
0.0281046
0.0283109
0.0285157
0.0287188
0.0289203
0.0291201
0.0293181
0.0295143
0.0297086
0.029901
0.0300914
0.0302797
0.0304659
0.0306499
0.0308317
0.0310112
0.0311883
0.031363
0.0315352
0.0317048
0.0318717
0.032036
0.0321974
0.0323559
0.0263451
0.0265601
0.026774
0.0269869
0.0271987
0.0274092
0.0276186
0.0278266
0.0280333
0.0282387
0.0284425
0.028645
0.0288458
0.0290452
0.0292429
0.0294389
0.0296332
0.0298258
0.0300167
0.0302056
0.0303927
0.0305779
0.0307611
0.0309423
0.0311215
0.0312985
0.0314733
0.0316459
0.0318162
0.0319842
0.0321497
0.0323127
0.0324732
0.032631
0.0267548
0.0269663
0.0271767
0.0273861
0.0275942
0.0278011
0.0280066
0.0282109
0.0284137
0.0286152
0.0288152
0.0290136
0.0292106
0.029406
0.0295999
0.0297921
0.0299827
0.0301716
0.0303588
0.0305442
0.0307279
0.0309098
0.0310898
0.031268
0.0314443
0.0316187
0.0317911
0.0319614
0.0321297
0.0322958
0.0324598
0.0326215
0.0327809
0.0329379
0.0271971
0.0274055
0.0276127
0.0278187
0.0280234
0.0282268
0.0284287
0.0286293
0.0288284
0.029026
0.0292221
0.0294167
0.0296098
0.0298012
0.0299912
0.0301795
0.0303662
0.0305512
0.0307347
0.0309164
0.0310965
0.031275
0.0314517
0.0316267
0.0318
0.0319715
0.0321412
0.0323091
0.0324751
0.0326393
0.0328015
0.0329617
0.0331199
0.033276
0.0276716
0.0278772
0.0280815
0.0282845
0.028486
0.028686
0.0288846
0.0290816
0.029277
0.0294709
0.0296632
0.029854
0.0300431
0.0302306
0.0304165
0.0306009
0.0307836
0.0309647
0.0311442
0.0313222
0.0314985
0.0316733
0.0318465
0.0320181
0.0321881
0.0323566
0.0325234
0.0326887
0.0328523
0.0330142
0.0331745
0.033333
0.0334898
0.0336448
0.0281778
0.0283811
0.0285828
0.028783
0.0289816
0.0291786
0.029374
0.0295676
0.0297596
0.0299499
0.0301384
0.0303253
0.0305106
0.0306941
0.030876
0.0310563
0.0312349
0.031412
0.0315874
0.0317614
0.0319338
0.0321047
0.0322742
0.0324421
0.0326087
0.0327738
0.0329376
0.0330999
0.0332609
0.0334204
0.0335785
0.0337352
0.0338904
0.0340441
0.0287154
0.0289167
0.0291163
0.0293142
0.0295102
0.0297044
0.0298968
0.0300873
0.030276
0.0304628
0.0306477
0.0308309
0.0310122
0.0311918
0.0313696
0.0315458
0.0317202
0.0318931
0.0320644
0.0322341
0.0324024
0.0325693
0.0327347
0.0328989
0.0330617
0.0332233
0.0333837
0.0335428
0.0337008
0.0338577
0.0340134
0.0341679
0.0343213
0.0344735
0.029284
0.0294839
0.0296818
0.0298777
0.0300716
0.0302634
0.0304531
0.0306407
0.0308262
0.0310097
0.0311912
0.0313707
0.0315482
0.0317238
0.0318975
0.0320695
0.0322397
0.0324082
0.0325752
0.0327406
0.0329045
0.0330671
0.0332283
0.0333884
0.0335472
0.033705
0.0338617
0.0340174
0.0341722
0.0343261
0.0344791
0.0346312
0.0347826
0.034933
0.0298836
0.0300825
0.0302792
0.0304736
0.0306657
0.0308555
0.0310428
0.0312278
0.0314105
0.0315909
0.031769
0.0319449
0.0321187
0.0322904
0.03246
0.0326277
0.0327936
0.0329577
0.0331201
0.033281
0.0334404
0.0335985
0.0337552
0.0339109
0.0340654
0.034219
0.0343718
0.0345237
0.034675
0.0348256
0.0349756
0.0351251
0.0352741
0.0354225
0.0305138
0.0307124
0.0309084
0.0311019
0.0312927
0.0314807
0.0316661
0.0318489
0.032029
0.0322065
0.0323814
0.0325539
0.032724
0.0328918
0.0330574
0.0332208
0.0333823
0.0335418
0.0336996
0.0338558
0.0340104
0.0341637
0.0343157
0.0344667
0.0346166
0.0347658
0.0349142
0.0350621
0.0352094
0.0353564
0.0355031
0.0356496
0.0357959
0.035942
0.0311747
0.0313736
0.0315695
0.0317625
0.0319525
0.0321393
0.0323232
0.032504
0.0326818
0.0328567
0.0330287
0.033198
0.0333645
0.0335285
0.03369
0.0338492
0.0340061
0.034161
0.034314
0.0344653
0.0346149
0.0347632
0.0349102
0.0350562
0.0352012
0.0353455
0.0354893
0.0356327
0.0357758
0.0359188
0.0360617
0.0362048
0.0363481
0.0364916
0.0318661
0.032066
0.0322624
0.0324556
0.0326452
0.0328314
0.0330141
0.0331934
0.0333693
0.0335419
0.0337112
0.0338774
0.0340406
0.0342008
0.0343583
0.0345132
0.0346656
0.0348158
0.0349638
0.03511
0.0352545
0.0353974
0.0355391
0.0356798
0.0358196
0.0359587
0.0360974
0.0362359
0.0363744
0.0365129
0.0366518
0.0367911
0.0369309
0.0370715
0.032588
0.0327895
0.0329872
0.0331812
0.0333711
0.0335571
0.0337392
0.0339174
0.0340918
0.0342624
0.0344293
0.0345927
0.0347527
0.0349093
0.0350629
0.0352135
0.0353613
0.0355066
0.0356496
0.0357905
0.0359296
0.036067
0.0362031
0.0363381
0.0364723
0.0366058
0.0367391
0.0368723
0.0370056
0.0371393
0.0372736
0.0374086
0.0375447
0.0376818
0.0333404
0.0335444
0.033744
0.0339394
0.0341303
0.0343167
0.0344987
0.0346763
0.0348496
0.0350186
0.0351835
0.0353443
0.0355012
0.0356545
0.0358042
0.0359506
0.0360938
0.0362342
0.036372
0.0365075
0.0366409
0.0367725
0.0369027
0.0370317
0.0371598
0.0372874
0.0374148
0.0375422
0.0376699
0.0377983
0.0379275
0.0380579
0.0381896
0.0383228
0.0341232
0.0343304
0.0345328
0.0347304
0.0349229
0.0351104
0.0352929
0.0354705
0.0356431
0.0358109
0.0359741
0.0361327
0.0362869
0.0364369
0.0365828
0.036725
0.0368637
0.0369992
0.0371317
0.0372615
0.0373891
0.0375146
0.0376385
0.0377612
0.0378829
0.0380041
0.0381251
0.0382462
0.0383679
0.0384904
0.0386141
0.0387392
0.0388661
0.0389949
0.0349364
0.0351478
0.0353537
0.0355542
0.0357491
0.0359384
0.036122
0.0363001
0.0364726
0.0366398
0.0368016
0.0369583
0.03711
0.037257
0.0373994
0.0375376
0.0376717
0.0378022
0.0379293
0.0380534
0.0381748
0.038294
0.0384114
0.0385273
0.0386422
0.0387565
0.0388706
0.038985
0.0391001
0.0392162
0.0393337
0.0394531
0.0395746
0.0396985
0.03578
0.0359964
0.0362067
0.036411
0.0366091
0.0368008
0.0369863
0.0371655
0.0373385
0.0375055
0.0376665
0.0378217
0.0379713
0.0381155
0.0382546
0.0383888
0.0385185
0.038644
0.0387656
0.0388838
0.0389989
0.0391115
0.039222
0.0393308
0.0394385
0.0395454
0.0396522
0.0397593
0.0398671
0.0399762
0.0400871
0.0402
0.0403155
0.040434
0.0366539
0.0368763
0.0370919
0.0373009
0.0375029
0.0376979
0.037886
0.038067
0.0382412
0.0384086
0.0385692
0.0387234
0.0388713
0.039013
0.039149
0.0392794
0.0394047
0.0395252
0.0396413
0.0397535
0.0398622
0.0399679
0.0400712
0.0401725
0.0402725
0.0403716
0.0404705
0.0405697
0.0406697
0.0407712
0.0408747
0.0409806
0.0410895
0.0412018
0.037558
0.0377873
0.0380093
0.0382238
0.0384307
0.0386299
0.0388213
0.0390049
0.0391809
0.0393493
0.0395103
0.0396639
0.0398104
0.0399501
0.0400832
0.0402101
0.0403312
0.0404467
0.0405573
0.0406634
0.0407654
0.040864
0.0409598
0.0410532
0.041145
0.0412358
0.0413263
0.041417
0.0415086
0.0416018
0.0416972
0.0417954
0.041897
0.0420025
0.0384921
0.0387294
0.0389587
0.0391799
0.0393926
0.0395968
0.0397924
0.0399795
0.040158
0.0403282
0.04049
0.0406436
0.0407893
0.0409273
0.041058
0.0411816
0.0412985
0.0414093
0.0415143
0.0416142
0.0417095
0.0418007
0.0418886
0.0419738
0.0420571
0.042139
0.0422204
0.042302
0.0423846
0.0424688
0.0425554
0.0426451
0.0427386
0.0428365
0.0394559
0.0397024
0.0399401
0.0401689
0.0403885
0.0405987
0.0407995
0.0409908
0.0411728
0.0413454
0.0415088
0.041663
0.0418085
0.0419453
0.0420738
0.0421944
0.0423076
0.0424136
0.0425132
0.0426068
0.0426952
0.0427789
0.0428586
0.0429352
0.0430094
0.043082
0.0431538
0.0432256
0.0432984
0.0433729
0.04345
0.0435304
0.043615
0.0437045
0.0404494
0.0407062
0.0409534
0.041191
0.0414184
0.0416357
0.0418426
0.0420392
0.0422254
0.0424013
0.042567
0.0427226
0.0428684
0.0430046
0.0431314
0.0432494
0.043359
0.0434605
0.0435547
0.0436421
0.0437234
0.0437994
0.0438707
0.0439383
0.044003
0.0440656
0.0441272
0.0441886
0.0442509
0.0443149
0.0443816
0.0444519
0.0445268
0.0446071
0.041472
0.0417403
0.0419983
0.0422458
0.0424823
0.0427077
0.0429219
0.0431247
0.0433161
0.0434962
0.0436651
0.0438228
0.0439696
0.0441057
0.0442314
0.0443472
0.0444535
0.0445508
0.0446397
0.0447209
0.0447951
0.0448631
0.0449258
0.044984
0.0450387
0.0450909
0.0451417
0.045192
0.0452429
0.0452956
0.0453511
0.0454104
0.0454746
0.0455448
0.0425234
0.0428045
0.0430745
0.0433332
0.04358
0.0438147
0.0440372
0.0442473
0.044445
0.0446303
0.0448032
0.0449639
0.0451124
0.0452491
0.0453743
0.0454884
0.0455918
0.0456851
0.045769
0.045844
0.0459111
0.0459711
0.0460248
0.0460733
0.0461176
0.0461588
0.0461981
0.0462365
0.0462754
0.0463159
0.0463592
0.0464066
0.0464592
0.0465182
0.0436032
0.0438984
0.0441818
0.0444529
0.0447112
0.0449565
0.0451885
0.0454072
0.0456123
0.0458038
0.0459817
0.0461462
0.0462974
0.0464354
0.0465607
0.0466736
0.0467746
0.0468643
0.0469433
0.0470124
0.0470724
0.0471241
0.0471687
0.0472072
0.0472406
0.0472703
0.0472974
0.0473233
0.0473492
0.0473767
0.0474069
0.0474414
0.0474813
0.0475281
0.0447108
0.0450216
0.0453196
0.0456045
0.0458758
0.0461329
0.0463758
0.0466042
0.0468178
0.0470167
0.0472008
0.0473701
0.0475248
0.047665
0.0477911
0.0479035
0.0480026
0.0480891
0.0481635
0.0482268
0.0482797
0.0483232
0.0483585
0.0483865
0.0484087
0.0484263
0.0484406
0.0484531
0.0484654
0.0484788
0.048495
0.0485154
0.0485416
0.0485752
0.0458456
0.0461734
0.0464876
0.0467878
0.0470733
0.0473438
0.0475989
0.0478382
0.0480617
0.0482692
0.0484605
0.0486357
0.0487949
0.0489383
0.049066
0.0491786
0.0492764
0.0493602
0.0494304
0.0494881
0.049534
0.0495693
0.049595
0.0496125
0.0496229
0.0496278
0.0496287
0.0496272
0.0496248
0.0496232
0.0496243
0.0496296
0.049641
0.04966
0.047007
0.0473532
0.0476851
0.0480021
0.0483034
0.0485887
0.0488574
0.0491092
0.0493439
0.0495613
0.0497611
0.0499434
0.0501082
0.0502556
0.0503859
0.0504995
0.0505967
0.0506782
0.0507448
0.0507971
0.0508363
0.0508633
0.0508794
0.0508859
0.0508843
0.050876
0.0508628
0.0508463
0.0508284
0.050811
0.0507958
0.0507849
0.0507801
0.0507835
0.0481941
0.0485604
0.0489116
0.0492469
0.0495657
0.0498672
0.0501511
0.0504169
0.0506642
0.0508929
0.0511025
0.0512932
0.0514647
0.0516173
0.0517512
0.0518666
0.051964
0.052044
0.0521073
0.0521547
0.0521873
0.0522061
0.0522126
0.0522079
0.0521938
0.0521719
0.0521439
0.0521117
0.0520774
0.0520429
0.0520104
0.051982
0.0519599
0.0519462
0.0494063
0.0497943
0.0501663
0.0505217
0.0508595
0.051179
0.0514796
0.0517609
0.0520225
0.0522639
0.0524848
0.0526852
0.0528648
0.0530238
0.0531622
0.0532804
0.0533788
0.053458
0.0535186
0.0535616
0.0535879
0.0535987
0.0535954
0.0535795
0.0535526
0.0535164
0.053473
0.0534244
0.0533727
0.0533202
0.0532691
0.053222
0.0531812
0.0531491
0.0506426
0.0510539
0.0514486
0.0518257
0.0521842
0.0525234
0.0528425
0.053141
0.0534184
0.0536741
0.0539079
0.0541194
0.0543084
0.0544751
0.0546193
0.0547414
0.0548418
0.054921
0.0549796
0.0550186
0.055039
0.055042
0.055029
0.0550016
0.0549616
0.0549108
0.0548513
0.0547853
0.0547153
0.0546437
0.054573
0.0545058
0.0544449
0.0543929
0.0519019
0.0523385
0.0527576
0.0531582
0.0535392
0.0538998
0.0542392
0.0545567
0.0548516
0.0551234
0.0553716
0.0555958
0.0557957
0.0559714
0.0561227
0.0562499
0.0563533
0.0564334
0.0564908
0.0565264
0.0565413
0.0565368
0.0565142
0.0564753
0.0564218
0.0563559
0.0562797
0.0561957
0.0561064
0.0560145
0.0559228
0.0558343
0.0557518
0.0556784
0.0531834
0.0536469
0.0540922
0.0545183
0.0549237
0.0553076
0.0556692
0.0560074
0.0563217
0.0566113
0.0568756
0.0571142
0.0573267
0.0575129
0.0576727
0.0578062
0.0579137
0.0579957
0.0580528
0.0580857
0.0580957
0.0580839
0.0580519
0.0580014
0.0579344
0.0578529
0.0577595
0.0576566
0.057547
0.0574338
0.0573199
0.0572085
0.0571029
0.0570065
0.0544859
0.0549782
0.0554517
0.055905
0.0563368
0.056746
0.0571316
0.0574926
0.0578282
0.0581374
0.0584197
0.0586744
0.0589011
0.0590995
0.0592693
0.0594105
0.0595235
0.0596085
0.0596661
0.0596972
0.0597028
0.0596843
0.0596431
0.0595811
0.0595002
0.0594028
0.0592915
0.059169
0.0590382
0.0589025
0.058765
0.0586294
0.0584992
0.0583781
0.0558081
0.0563312
0.0568347
0.0573174
0.0577775
0.0582141
0.0586258
0.0590116
0.0593704
0.0597013
0.0600035
0.0602762
0.0605189
0.0607311
0.0609125
0.061063
0.0611827
0.0612719
0.0613312
0.0613614
0.0613634
0.0613386
0.0612885
0.061215
0.0611203
0.0610067
0.0608769
0.060734
0.0605811
0.0604216
0.0602593
0.0600979
0.0599415
0.059794
0.0571488
0.0577046
0.0582403
0.0587543
0.0592449
0.0597109
0.0601508
0.0605634
0.0609476
0.0613023
0.0616265
0.0619192
0.0621798
0.0624076
0.0626023
0.0627637
0.0628917
0.0629865
0.0630486
0.0630788
0.063078
0.0630475
0.062989
0.0629042
0.0627955
0.0626654
0.0625168
0.0623527
0.0621767
0.0619924
0.0618038
0.0616152
0.0614308
0.0612551
0.0585067
0.0590973
0.0596671
0.0602146
0.0607378
0.0612353
0.0617057
0.0621474
0.0625592
0.0629398
0.063288
0.0636028
0.0638833
0.0641288
0.0643387
0.0645126
0.0646505
0.0647523
0.0648186
0.0648499
0.0648472
0.0648118
0.0647452
0.0646495
0.0645269
0.06438
0.064212
0.0640261
0.063826
0.0636157
0.0633996
0.0631821
0.062968
0.0627622
0.0598804
0.0605077
0.0611139
0.061697
0.062255
0.0627864
0.0632894
0.0637625
0.0642041
0.0646129
0.0649874
0.0653265
0.0656291
0.0658943
0.0661213
0.0663096
0.0664591
0.0665696
0.0666414
0.066675
0.0666715
0.0666319
0.066558
0.0664516
0.0663152
0.0661514
0.0659636
0.0657552
0.0655301
0.0652927
0.0650475
0.0647996
0.064554
0.0643162
0.0612684
0.0619346
0.0625792
0.0632001
0.0637953
0.0643627
0.0649008
0.0654076
0.0658815
0.0663208
0.066724
0.0670896
0.0674166
0.0677036
0.0679498
0.0681546
0.0683175
0.0684383
0.0685172
0.0685546
0.0685513
0.0685085
0.0684279
0.0683113
0.0681612
0.0679805
0.0677725
0.0675409
0.06729
0.0670242
0.0667487
0.0664687
0.0661899
0.0659181
0.0626691
0.0633763
0.0640616
0.0647226
0.0653572
0.0659632
0.0665387
0.0670816
0.0675902
0.0680625
0.0684968
0.0688915
0.0692451
0.0695563
0.069824
0.0700473
0.0702256
0.0703586
0.0704462
0.0704887
0.070487
0.0704421
0.0703555
0.0702292