/*--------------------------------*- C++ -*----------------------------------*\
| =========                 |                                                 |
| \\      /  F ield         | OpenFOAM: The Open Source CFD Toolbox           |
|  \\    /   O peration     | Version:  2412                                  |
|   \\  /    A nd           | Website:  www.openfoam.com                      |
|    \\/     M anipulation  |                                                 |
\*---------------------------------------------------------------------------*/
FoamFile
{
    version     2.0;
    format      ascii;
    arch        "LSB;label=32;scalar=64";
    class       volVectorField;
    location    "30";
    object      UA;
}
// * * * * * * * * * * * * * * * * * * * * * * * * * * * * * * * * * * * * * //

dimensions      [0 1 -1 0 0 0 0];

internalField   nonuniform List<vector> 
5285
(
(0.102684 -0.000697453 0)
(0.102645 -0.000787039 0)
(0.102602 -0.000873818 0)
(0.102555 -0.000957532 0)
(0.102505 -0.00103795 0)
(0.10245 -0.00111486 0)
(0.102393 -0.00118809 0)
(0.102332 -0.00125748 0)
(0.102269 -0.00132293 0)
(0.102204 -0.00138432 0)
(0.102137 -0.0014416 0)
(0.102068 -0.00149473 0)
(0.101997 -0.00154369 0)
(0.101926 -0.00158849 0)
(0.101854 -0.00162917 0)
(0.101781 -0.00166578 0)
(0.101708 -0.00169839 0)
(0.101635 -0.00172708 0)
(0.101562 -0.00175197 0)
(0.101489 -0.00177317 0)
(0.101418 -0.0017908 0)
(0.101347 -0.00180501 0)
(0.101277 -0.00181595 0)
(0.101208 -0.00182376 0)
(0.102777 -0.000735198 0)
(0.102736 -0.000829349 0)
(0.10269 -0.00092044 0)
(0.102639 -0.00100819 0)
(0.102585 -0.00109236 0)
(0.102527 -0.00117272 0)
(0.102466 -0.00124909 0)
(0.102401 -0.0013213 0)
(0.102334 -0.00138924 0)
(0.102264 -0.0014528 0)
(0.102193 -0.00151193 0)
(0.102119 -0.00156659 0)
(0.102045 -0.00161678 0)
(0.101969 -0.0016625 0)
(0.101892 -0.00170382 0)
(0.101816 -0.00174078 0)
(0.101738 -0.00177348 0)
(0.101661 -0.00180203 0)
(0.101585 -0.00182654 0)
(0.101508 -0.00184714 0)
(0.101433 -0.00186399 0)
(0.101359 -0.00187723 0)
(0.101285 -0.00188704 0)
(0.101213 -0.00189357 0)
(0.102875 -0.000775701 0)
(0.102831 -0.000874721 0)
(0.102781 -0.000970404 0)
(0.102728 -0.00106245 0)
(0.102669 -0.00115059 0)
(0.102607 -0.00123459 0)
(0.102541 -0.00131425 0)
(0.102473 -0.0013894 0)
(0.102401 -0.00145993 0)
(0.102327 -0.00152573 0)
(0.10225 -0.00158674 0)
(0.102173 -0.00164294 0)
(0.102093 -0.00169433 0)
(0.102013 -0.00174093 0)
(0.101932 -0.00178281 0)
(0.10185 -0.00182005 0)
(0.101769 -0.00185274 0)
(0.101688 -0.00188102 0)
(0.101607 -0.00190501 0)
(0.101527 -0.00192488 0)
(0.101448 -0.00194078 0)
(0.101369 -0.00195289 0)
(0.101293 -0.0019614 0)
(0.101217 -0.00196648 0)
(0.102979 -0.000819214 0)
(0.102931 -0.000923437 0)
(0.102878 -0.00102401 0)
(0.10282 -0.00112062 0)
(0.102757 -0.00121296 0)
(0.102691 -0.00130079 0)
(0.102621 -0.00138391 0)
(0.102547 -0.00146214 0)
(0.10247 -0.00153535 0)
(0.102391 -0.00160344 0)
(0.10231 -0.00166637 0)
(0.102227 -0.00172411 0)
(0.102143 -0.00177666 0)
(0.102057 -0.00182409 0)
(0.101972 -0.00186646 0)
(0.101885 -0.00190386 0)
(0.101799 -0.00193643 0)
(0.101714 -0.00196429 0)
(0.101628 -0.00198762 0)
(0.101544 -0.00200658 0)
(0.101461 -0.00202136 0)
(0.101379 -0.00203216 0)
(0.101299 -0.00203918 0)
(0.10122 -0.00204263 0)
(0.103087 -0.000866022 0)
(0.103036 -0.000975807 0)
(0.102979 -0.0010816 0)
(0.102917 -0.00118305 0)
(0.10285 -0.00127985 0)
(0.102778 -0.00137173 0)
(0.102703 -0.00145847 0)
(0.102624 -0.0015399 0)
(0.102542 -0.00161589 0)
(0.102458 -0.00168633 0)
(0.102371 -0.00175119 0)
(0.102283 -0.00181045 0)
(0.102193 -0.00186414 0)
(0.102103 -0.00191231 0)
(0.102012 -0.00195507 0)
(0.10192 -0.00199252 0)
(0.101829 -0.00202481 0)
(0.101739 -0.00205211 0)
(0.101649 -0.00207459 0)
(0.10156 -0.00209246 0)
(0.101473 -0.00210593 0)
(0.101387 -0.00211521 0)
(0.101303 -0.00212053 0)
(0.101221 -0.00212213 0)
(0.103202 -0.000916439 0)
(0.103147 -0.00103218 0)
(0.103085 -0.00114353 0)
(0.103018 -0.00125014 0)
(0.102946 -0.00135166 0)
(0.10287 -0.00144781 0)
(0.102789 -0.00153836 0)
(0.102704 -0.00162312 0)
(0.102617 -0.00170197 0)
(0.102527 -0.00177482 0)
(0.102434 -0.00184162 0)
(0.10234 -0.00190237 0)
(0.102245 -0.00195713 0)
(0.102148 -0.00200596 0)
(0.102052 -0.00204898 0)
(0.101955 -0.00208634 0)
(0.101859 -0.00211819 0)
(0.101763 -0.00214473 0)
(0.101669 -0.00216618 0)
(0.101575 -0.00218275 0)
(0.101484 -0.00219468 0)
(0.101394 -0.00220222 0)
(0.101306 -0.00220562 0)
(0.10122 -0.00220513 0)
(0.103323 -0.000970819 0)
(0.103263 -0.00109293 0)
(0.103197 -0.00121023 0)
(0.103125 -0.00132232 0)
(0.103047 -0.00142884 0)
(0.102965 -0.00152949 0)
(0.102878 -0.00162403 0)
(0.102788 -0.00171227 0)
(0.102694 -0.00179407 0)
(0.102597 -0.00186935 0)
(0.102499 -0.0019381 0)
(0.102398 -0.00200031 0)
(0.102297 -0.00205605 0)
(0.102194 -0.00210543 0)
(0.102092 -0.00214857 0)
(0.101989 -0.00218566 0)
(0.101888 -0.00221688 0)
(0.101787 -0.00224246 0)
(0.101687 -0.00226264 0)
(0.101589 -0.00227767 0)
(0.101492 -0.00228782 0)
(0.101398 -0.00229336 0)
(0.101306 -0.00229458 0)
(0.101216 -0.00229176 0)
(0.103451 -0.00102955 0)
(0.103386 -0.0011585 0)
(0.103315 -0.00128216 0)
(0.103237 -0.00140009 0)
(0.103154 -0.00151191 0)
(0.103065 -0.0016173 0)
(0.102972 -0.00171601 0)
(0.102874 -0.00180785 0)
(0.102774 -0.00189269 0)
(0.102671 -0.00197045 0)
(0.102565 -0.00204111 0)
(0.102458 -0.00210471 0)
(0.10235 -0.00216134 0)
(0.102241 -0.00221113 0)
(0.102132 -0.00225423 0)
(0.102023 -0.00229085 0)
(0.101915 -0.00232122 0)
(0.101809 -0.0023456 0)
(0.101704 -0.00236426 0)
(0.1016 -0.00237748 0)
(0.101499 -0.00238557 0)
(0.1014 -0.00238884 0)
(0.101304 -0.00238759 0)
(0.10121 -0.00238215 0)
(0.103586 -0.00109309 0)
(0.103516 -0.00122936 0)
(0.103439 -0.00135982 0)
(0.103355 -0.00148397 0)
(0.103265 -0.00160141 0)
(0.103169 -0.0017118 0)
(0.103069 -0.00181488 0)
(0.102965 -0.00191046 0)
(0.102857 -0.0019984 0)
(0.102746 -0.00207864 0)
(0.102633 -0.00215119 0)
(0.102518 -0.0022161 0)
(0.102403 -0.00227349 0)
(0.102287 -0.00232351 0)
(0.102171 -0.00236637 0)
(0.102056 -0.0024023 0)
(0.101942 -0.00243156 0)
(0.101829 -0.00245446 0)
(0.101719 -0.0024713 0)
(0.10161 -0.00248242 0)
(0.101503 -0.00248814 0)
(0.1014 -0.00248882 0)
(0.101299 -0.0024848 0)
(0.101201 -0.00247642 0)
(0.103729 -0.00116191 0)
(0.103653 -0.00130607 0)
(0.10357 -0.00144379 0)
(0.103479 -0.00157457 0)
(0.103382 -0.00169797 0)
(0.103279 -0.00181363 0)
(0.10317 -0.00192127 0)
(0.103058 -0.0020207 0)
(0.102942 -0.00211181 0)
(0.102823 -0.00219454 0)
(0.102702 -0.00226891 0)
(0.10258 -0.00233502 0)
(0.102457 -0.00239301 0)
(0.102333 -0.00244307 0)
(0.10221 -0.00248544 0)
(0.102088 -0.00252041 0)
(0.101967 -0.00254827 0)
(0.101848 -0.00256938 0)
(0.101731 -0.00258408 0)
(0.101617 -0.00259275 0)
(0.101505 -0.00259576 0)
(0.101397 -0.0025935 0)
(0.101291 -0.00258636 0)
(0.101189 -0.00257471 0)
(0.103881 -0.00123659 0)
(0.103798 -0.00138921 0)
(0.103708 -0.00153473 0)
(0.103609 -0.00167257 0)
(0.103504 -0.00180228 0)
(0.103393 -0.00192348 0)
(0.103276 -0.00203588 0)
(0.103155 -0.00213929 0)
(0.10303 -0.00223361 0)
(0.102903 -0.0023188 0)
(0.102773 -0.00239491 0)
(0.102642 -0.00246207 0)
(0.102511 -0.00252046 0)
(0.102379 -0.00257032 0)
(0.102249 -0.00261193 0)
(0.102119 -0.00264562 0)
(0.101991 -0.00267175 0)
(0.101865 -0.00269071 0)
(0.101742 -0.0027029 0)
(0.101621 -0.00270874 0)
(0.101504 -0.00270865 0)
(0.10139 -0.00270307 0)
(0.10128 -0.00269242 0)
(0.101173 -0.00267712 0)
(0.104041 -0.00131774 0)
(0.103952 -0.00147948 0)
(0.103853 -0.00163334 0)
(0.103747 -0.00177872 0)
(0.103633 -0.00191512 0)
(0.103512 -0.00204214 0)
(0.103386 -0.0021595 0)
(0.103256 -0.00226699 0)
(0.103122 -0.00236454 0)
(0.102985 -0.00245214 0)
(0.102846 -0.00252988 0)
(0.102705 -0.0025979 0)
(0.102565 -0.00265646 0)
(0.102425 -0.00270582 0)
(0.102285 -0.00274634 0)
(0.102148 -0.00277839 0)
(0.102012 -0.0028024 0)
(0.101879 -0.0028188 0)
(0.101749 -0.00282806 0)
(0.101622 -0.00283065 0)
(0.101499 -0.00282704 0)
(0.10138 -0.00281771 0)
(0.101265 -0.00280313 0)
(0.101154 -0.00278378 0)
(0.104212 -0.00140609 0)
(0.104114 -0.00157765 0)
(0.104007 -0.00174046 0)
(0.103891 -0.00189387 0)
(0.103768 -0.00203735 0)
(0.103637 -0.00217049 0)
(0.103501 -0.00229298 0)
(0.10336 -0.00240466 0)
(0.103216 -0.00250544 0)
(0.103068 -0.00259537 0)
(0.102919 -0.00267456 0)
(0.102769 -0.00274322 0)
(0.102619 -0.00280165 0)
(0.102469 -0.00285018 0)
(0.102321 -0.00288922 0)
(0.102175 -0.00291922 0)
(0.102031 -0.00294066 0)
(0.10189 -0.00295405 0)
(0.101753 -0.0029599 0)
(0.10162 -0.00295875 0)
(0.101491 -0.00295114 0)
(0.101366 -0.00293759 0)
(0.101246 -0.00291863 0)
(0.10113 -0.00289476 0)
(0.104393 -0.00150244 0)
(0.104287 -0.00168458 0)
(0.10417 -0.001857 0)
(0.104044 -0.00201898 0)
(0.10391 -0.00216995 0)
(0.103768 -0.0023095 0)
(0.103621 -0.00243731 0)
(0.103468 -0.00255323 0)
(0.103312 -0.00265722 0)
(0.103154 -0.00274934 0)
(0.102993 -0.00282978 0)
(0.102832 -0.00289879 0)
(0.102672 -0.00295674 0)
(0.102512 -0.00300403 0)
(0.102354 -0.00304115 0)
(0.102199 -0.00306862 0)
(0.102047 -0.00308698 0)
(0.101898 -0.00309682 0)
(0.101753 -0.00309874 0)
(0.101613 -0.00309332 0)
(0.101478 -0.00308117 0)
(0.101347 -0.00306288 0)
(0.101222 -0.00303902 0)
(0.101101 -0.00301016 0)
(0.104586 -0.0016077 0)
(0.10447 -0.00180127 0)
(0.104342 -0.00198399 0)
(0.104205 -0.0021551 0)
(0.104059 -0.00231401 0)
(0.103905 -0.00246025 0)
(0.103745 -0.00259355 0)
(0.10358 -0.00271376 0)
(0.103412 -0.00282088 0)
(0.103241 -0.00291502 0)
(0.103068 -0.00299643 0)
(0.102896 -0.00306544 0)
(0.102724 -0.00312249 0)
(0.102553 -0.00316807 0)
(0.102385 -0.00320274 0)
(0.10222 -0.00322711 0)
(0.102059 -0.00324182 0)
(0.101902 -0.00324753 0)
(0.101749 -0.00324491 0)
(0.101602 -0.00323462 0)
(0.10146 -0.00321735 0)
(0.101323 -0.00319374 0)
(0.101193 -0.00316443 0)
(0.101068 -0.00313002 0)
(0.104791 -0.00172292 0)
(0.104664 -0.00192883 0)
(0.104524 -0.00212262 0)
(0.104374 -0.00230347 0)
(0.104215 -0.00247074 0)
(0.104048 -0.00262398 0)
(0.103874 -0.00276291 0)
(0.103696 -0.00288741 0)
(0.103513 -0.00299753 0)
(0.103329 -0.00309345 0)
(0.103143 -0.00317549 0)
(0.102958 -0.00324407 0)
(0.102774 -0.00329972 0)
(0.102592 -0.00334302 0)
(0.102413 -0.00337464 0)
(0.102238 -0.00339528 0)
(0.102067 -0.00340567 0)
(0.101901 -0.00340657 0)
(0.10174 -0.00339873 0)
(0.101585 -0.00338291 0)
(0.101436 -0.00335986 0)
(0.101294 -0.0033303 0)
(0.101158 -0.00329492 0)
(0.101028 -0.00325439 0)
(0.105009 -0.00184928 0)
(0.10487 -0.00206853 0)
(0.104717 -0.00227421 0)
(0.104553 -0.00246544 0)
(0.104379 -0.00264154 0)
(0.104197 -0.00280205 0)
(0.104008 -0.00294671 0)
(0.103815 -0.00307546 0)
(0.103617 -0.00318839 0)
(0.103418 -0.00328578 0)
(0.103219 -0.00336802 0)
(0.103019 -0.00343565 0)
(0.102822 -0.0034893 0)
(0.102628 -0.00352966 0)
(0.102437 -0.00355752 0)
(0.102251 -0.00357369 0)
(0.10207 -0.00357901 0)
(0.101894 -0.00357434 0)
(0.101725 -0.00356053 0)
(0.101563 -0.00353844 0)
(0.101407 -0.00350888 0)
(0.101258 -0.00347266 0)
(0.101116 -0.00343055 0)
(0.100982 -0.00338327 0)
(0.105242 -0.00198816 0)
(0.105089 -0.00222185 0)
(0.104922 -0.0024403 0)
(0.104742 -0.00264257 0)
(0.104552 -0.00282796 0)
(0.104353 -0.002996 0)
(0.104148 -0.00314647 0)
(0.103937 -0.00327935 0)
(0.103723 -0.00339483 0)
(0.103508 -0.00349327 0)
(0.103293 -0.00357519 0)
(0.103079 -0.00364123 0)
(0.102867 -0.00369217 0)
(0.10266 -0.00372882 0)
(0.102456 -0.0037521 0)
(0.102258 -0.00376295 0)
(0.102067 -0.00376234 0)
(0.101882 -0.00375124 0)
(0.101704 -0.00373062 0)
(0.101533 -0.00370141 0)
(0.10137 -0.00366456 0)
(0.101215 -0.00362092 0)
(0.101068 -0.00357135 0)
(0.100928 -0.00351663 0)
(0.102687 -0.00394136 0)
(0.10247 -0.00395912 0)
(0.10226 -0.00396368 0)
(0.102057 -0.00395616 0)
(0.101862 -0.00393766 0)
(0.101675 -0.00390927 0)
(0.101496 -0.00387204 0)
(0.101326 -0.003827 0)
(0.101164 -0.00377511 0)
(0.101011 -0.00371728 0)
(0.100867 -0.00365438 0)
(0.102815 -4.78605e-05 0)
(0.10281 -0.000143418 0)
(0.102801 -0.000238485 0)
(0.102787 -0.000332741 0)
(0.102768 -0.000425869 0)
(0.102745 -0.000517566 0)
(0.102717 -0.000607536 0)
(0.102912 -5.04675e-05 0)
(0.102907 -0.000151229 0)
(0.102898 -0.00025147 0)
(0.102883 -0.000350849 0)
(0.102864 -0.000449032 0)
(0.10284 -0.000545693 0)
(0.102812 -0.000640522 0)
(0.103015 -5.3263e-05 0)
(0.10301 -0.000159605 0)
(0.103 -0.000265395 0)
(0.102985 -0.000370271 0)
(0.102965 -0.000473878 0)
(0.102941 -0.000575872 0)
(0.102912 -0.000675921 0)
(0.103122 -5.62641e-05 0)
(0.103117 -0.000168597 0)
(0.103107 -0.000280346 0)
(0.103092 -0.000391127 0)
(0.103072 -0.000500564 0)
(0.103047 -0.000608292 0)
(0.103017 -0.000713958 0)
(0.103236 -5.94899e-05 0)
(0.103231 -0.000178263 0)
(0.10322 -0.000296419 0)
(0.103205 -0.000413551 0)
(0.103184 -0.000529261 0)
(0.103158 -0.000643162 0)
(0.103128 -0.000754881 0)
(0.103356 -6.29618e-05 0)
(0.10335 -0.000188668 0)
(0.10334 -0.000313721 0)
(0.103324 -0.000437693 0)
(0.103302 -0.000560162 0)
(0.103276 -0.000680719 0)
(0.103245 -0.000798968 0)
(0.103482 -6.67035e-05 0)
(0.103477 -0.000199881 0)
(0.103466 -0.00033237 0)
(0.103449 -0.000463717 0)
(0.103428 -0.000593479 0)
(0.103401 -0.000721222 0)
(0.103368 -0.000846527 0)
(0.103616 -7.07414e-05 0)
(0.103611 -0.000211982 0)
(0.103599 -0.000352498 0)
(0.103582 -0.000491811 0)
(0.10356 -0.000629453 0)
(0.103532 -0.000764965 0)
(0.103499 -0.000897906 0)
(0.103758 -7.51051e-05 0)
(0.103752 -0.000225061 0)
(0.103741 -0.000374254 0)
(0.103723 -0.000522181 0)
(0.1037 -0.00066835 0)
(0.103671 -0.000812276 0)
(0.103637 -0.000953493 0)
(0.103909 -7.9828e-05 0)
(0.103903 -0.000239217 0)
(0.10389 -0.000397804 0)
(0.103872 -0.000555063 0)
(0.103848 -0.000710472 0)
(0.103819 -0.000863524 0)
(0.103784 -0.00101372 0)
(0.104068 -8.49476e-05 0)
(0.104062 -0.000254562 0)
(0.104049 -0.000423337 0)
(0.104031 -0.000590717 0)
(0.104006 -0.000756158 0)
(0.103975 -0.000919123 0)
(0.103939 -0.00107909 0)
(0.104238 -9.05059e-05 0)
(0.104231 -0.000271224 0)
(0.104218 -0.000451063 0)
(0.104199 -0.000629442 0)
(0.104173 -0.000805788 0)
(0.104141 -0.00097954 0)
(0.104104 -0.00115015 0)
(0.104418 -9.65507e-05 0)
(0.104411 -0.000289345 0)
(0.104398 -0.000481221 0)
(0.104378 -0.000671571 0)
(0.104351 -0.000859796 0)
(0.104318 -0.00104531 0)
(0.104279 -0.00122753 0)
(0.10461 -0.000103136 0)
(0.104603 -0.000309088 0)
(0.104589 -0.000514082 0)
(0.104568 -0.000717485 0)
(0.10454 -0.00091867 0)
(0.104506 -0.00111702 0)
(0.104465 -0.00131194 0)
(0.104815 -0.000110323 0)
(0.104808 -0.000330637 0)
(0.104793 -0.000549954 0)
(0.104771 -0.000767614 0)
(0.104742 -0.000982966 0)
(0.104706 -0.00119537 0)
(0.104663 -0.00140418 0)
(0.105034 -0.000118182 0)
(0.105026 -0.000354201 0)
(0.105011 -0.000589185 0)
(0.104988 -0.00082245 0)
(0.104957 -0.00105332 0)
(0.104919 -0.00128112 0)
(0.104875 -0.0015052 0)
(0.105268 -0.000126792 0)
(0.10526 -0.000380019 0)
(0.105244 -0.000632176 0)
(0.105219 -0.000882554 0)
(0.105187 -0.00113045 0)
(0.105147 -0.00137517 0)
(0.105101 -0.00161603 0)
(0.105519 -0.000136245 0)
(0.105511 -0.000408367 0)
(0.105493 -0.000679386 0)
(0.105467 -0.000948569 0)
(0.105433 -0.00121519 0)
(0.105391 -0.00147853 0)
(0.105342 -0.00173789 0)
(0.105789 -0.000146646 0)
(0.105779 -0.00043956 0)
(0.105761 -0.00073134 0)
(0.105733 -0.00102123 0)
(0.105697 -0.00130849 0)
(0.105653 -0.00159238 0)
(0.1056 -0.00187217 0)
(0.106078 -0.000158116 0)
(0.106068 -0.000473961 0)
(0.102717 0.000607536 0)
(0.102745 0.000517566 0)
(0.102768 0.000425869 0)
(0.102787 0.000332741 0)
(0.102801 0.000238485 0)
(0.10281 0.000143418 0)
(0.102815 4.78605e-05 0)
(0.102812 0.000640522 0)
(0.10284 0.000545693 0)
(0.102864 0.000449032 0)
(0.102883 0.000350849 0)
(0.102898 0.00025147 0)
(0.102907 0.000151229 0)
(0.102912 5.04675e-05 0)
(0.102912 0.000675921 0)
(0.102941 0.000575872 0)
(0.102965 0.000473878 0)
(0.102985 0.000370271 0)
(0.103 0.000265395 0)
(0.10301 0.000159605 0)
(0.103015 5.3263e-05 0)
(0.103017 0.000713958 0)
(0.103047 0.000608292 0)
(0.103072 0.000500564 0)
(0.103092 0.000391127 0)
(0.103107 0.000280346 0)
(0.103117 0.000168597 0)
(0.103122 5.62641e-05 0)
(0.103128 0.000754881 0)
(0.103158 0.000643162 0)
(0.103184 0.000529261 0)
(0.103205 0.000413551 0)
(0.10322 0.000296419 0)
(0.103231 0.000178263 0)
(0.103236 5.94899e-05 0)
(0.103245 0.000798968 0)
(0.103276 0.000680719 0)
(0.103302 0.000560162 0)
(0.103324 0.000437693 0)
(0.10334 0.000313721 0)
(0.10335 0.000188668 0)
(0.103356 6.29618e-05 0)
(0.103368 0.000846527 0)
(0.103401 0.000721222 0)
(0.103428 0.000593479 0)
(0.103449 0.000463717 0)
(0.103466 0.00033237 0)
(0.103477 0.000199881 0)
(0.103482 6.67035e-05 0)
(0.103499 0.000897906 0)
(0.103532 0.000764965 0)
(0.10356 0.000629453 0)
(0.103582 0.000491811 0)
(0.103599 0.000352498 0)
(0.103611 0.000211982 0)
(0.103616 7.07414e-05 0)
(0.103637 0.000953493 0)
(0.103671 0.000812276 0)
(0.1037 0.00066835 0)
(0.103723 0.000522181 0)
(0.103741 0.000374254 0)
(0.103752 0.000225061 0)
(0.103758 7.51051e-05 0)
(0.103784 0.00101372 0)
(0.103819 0.000863524 0)
(0.103848 0.000710472 0)
(0.103872 0.000555063 0)
(0.10389 0.000397804 0)
(0.103903 0.000239217 0)
(0.103909 7.9828e-05 0)
(0.103939 0.00107909 0)
(0.103975 0.000919123 0)
(0.104006 0.000756158 0)
(0.104031 0.000590717 0)
(0.104049 0.000423337 0)
(0.104062 0.000254562 0)
(0.104068 8.49476e-05 0)
(0.104104 0.00115015 0)
(0.104141 0.00097954 0)
(0.104173 0.000805788 0)
(0.104199 0.000629442 0)
(0.104218 0.000451063 0)
(0.104231 0.000271224 0)
(0.104238 9.05059e-05 0)
(0.104279 0.00122753 0)
(0.104318 0.00104531 0)
(0.104351 0.000859796 0)
(0.104378 0.000671571 0)
(0.104398 0.000481221 0)
(0.104411 0.000289345 0)
(0.104418 9.65507e-05 0)
(0.104465 0.00131194 0)
(0.104506 0.00111702 0)
(0.10454 0.00091867 0)
(0.104568 0.000717485 0)
(0.104589 0.000514082 0)
(0.104603 0.000309088 0)
(0.10461 0.000103136 0)
(0.104663 0.00140418 0)
(0.104706 0.00119537 0)
(0.104742 0.000982966 0)
(0.104771 0.000767614 0)
(0.104793 0.000549954 0)
(0.104808 0.000330637 0)
(0.104815 0.000110323 0)
(0.104875 0.0015052 0)
(0.104919 0.00128112 0)
(0.104957 0.00105332 0)
(0.104988 0.00082245 0)
(0.105011 0.000589185 0)
(0.105026 0.000354201 0)
(0.105034 0.000118182 0)
(0.105101 0.00161603 0)
(0.105147 0.00137517 0)
(0.105187 0.00113045 0)
(0.105219 0.000882554 0)
(0.105244 0.000632176 0)
(0.10526 0.000380019 0)
(0.105268 0.000126792 0)
(0.105342 0.00173789 0)
(0.105391 0.00147853 0)
(0.105433 0.00121519 0)
(0.105467 0.000948569 0)
(0.105493 0.000679386 0)
(0.105511 0.000408367 0)
(0.105519 0.000136245 0)
(0.1056 0.00187217 0)
(0.105653 0.00159238 0)
(0.105697 0.00130849 0)
(0.105733 0.00102123 0)
(0.105761 0.00073134 0)
(0.105779 0.00043956 0)
(0.105789 0.000146646 0)
(0.106068 0.000473961 0)
(0.106078 0.000158116 0)
(0.100603 0.00176466 0)
(0.100655 0.00177945 0)
(0.10071 0.00179267 0)
(0.100766 0.00180417 0)
(0.100824 0.00181381 0)
(0.100884 0.00182143 0)
(0.100946 0.00182687 0)
(0.101009 0.00182999 0)
(0.101074 0.00183062 0)
(0.10114 0.00182859 0)
(0.101208 0.00182376 0)
(0.101277 0.00181595 0)
(0.101347 0.00180501 0)
(0.101418 0.0017908 0)
(0.101489 0.00177317 0)
(0.101562 0.00175197 0)
(0.101635 0.00172708 0)
(0.101708 0.00169839 0)
(0.101781 0.00166578 0)
(0.101854 0.00162917 0)
(0.101926 0.00158849 0)
(0.101997 0.00154369 0)
(0.102068 0.00149473 0)
(0.102137 0.0014416 0)
(0.102204 0.00138432 0)
(0.102269 0.00132293 0)
(0.102332 0.00125748 0)
(0.102393 0.00118809 0)
(0.10245 0.00111486 0)
(0.102505 0.00103795 0)
(0.102555 0.000957532 0)
(0.102602 0.000873818 0)
(0.102645 0.000787039 0)
(0.102684 0.000697453 0)
(0.100586 0.00181709 0)
(0.10064 0.0018338 0)
(0.100696 0.00184893 0)
(0.100755 0.00186233 0)
(0.100815 0.00187382 0)
(0.100877 0.00188326 0)
(0.10094 0.00189047 0)
(0.101006 0.00189528 0)
(0.101074 0.00189751 0)
(0.101143 0.001897 0)
(0.101213 0.00189357 0)
(0.101285 0.00188704 0)
(0.101359 0.00187723 0)
(0.101433 0.00186399 0)
(0.101508 0.00184714 0)
(0.101585 0.00182654 0)
(0.101661 0.00180203 0)
(0.101738 0.00177348 0)
(0.101816 0.00174078 0)
(0.101892 0.00170382 0)
(0.101969 0.0016625 0)
(0.102045 0.00161678 0)
(0.102119 0.00156659 0)
(0.102193 0.00151193 0)
(0.102264 0.0014528 0)
(0.102334 0.00138924 0)
(0.102401 0.0013213 0)
(0.102466 0.00124909 0)
(0.102527 0.00117272 0)
(0.102585 0.00109236 0)
(0.102639 0.00100819 0)
(0.10269 0.00092044 0)
(0.102736 0.000829349 0)
(0.102777 0.000735198 0)
(0.100568 0.00187096 0)
(0.100623 0.00188974 0)
(0.100681 0.00190694 0)
(0.100741 0.00192238 0)
(0.100803 0.00193589 0)
(0.100867 0.00194731 0)
(0.100934 0.00195646 0)
(0.101002 0.00196313 0)
(0.101072 0.00196716 0)
(0.101144 0.00196834 0)
(0.101217 0.00196648 0)
(0.101293 0.0019614 0)
(0.101369 0.00195289 0)
(0.101448 0.00194078 0)
(0.101527 0.00192488 0)
(0.101607 0.00190501 0)
(0.101688 0.00188102 0)
(0.101769 0.00185274 0)
(0.10185 0.00182005 0)
(0.101932 0.00178281 0)
(0.102013 0.00174093 0)
(0.102093 0.00169433 0)
(0.102173 0.00164294 0)
(0.10225 0.00158674 0)
(0.102327 0.00152573 0)
(0.102401 0.00145993 0)
(0.102473 0.0013894 0)
(0.102541 0.00131425 0)
(0.102607 0.00123459 0)
(0.102669 0.00115059 0)
(0.102728 0.00106245 0)
(0.102781 0.000970404 0)
(0.102831 0.000874721 0)
(0.102875 0.000775701 0)
(0.100547 0.00192626 0)
(0.100604 0.00194727 0)
(0.100664 0.00196669 0)
(0.100725 0.00198435 0)
(0.10079 0.00200006 0)
(0.100856 0.00201365 0)
(0.100925 0.00202491 0)
(0.100995 0.00203364 0)
(0.101068 0.00203965 0)
(0.101143 0.00204271 0)
(0.10122 0.00204263 0)
(0.101299 0.00203918 0)
(0.101379 0.00203216 0)
(0.101461 0.00202136 0)
(0.101544 0.00200658 0)
(0.101628 0.00198762 0)
(0.101714 0.00196429 0)
(0.101799 0.00193643 0)
(0.101885 0.00190386 0)
(0.101972 0.00186646 0)
(0.102057 0.00182409 0)
(0.102143 0.00177666 0)
(0.102227 0.00172411 0)
(0.10231 0.00166637 0)
(0.102391 0.00160344 0)
(0.10247 0.00153535 0)
(0.102547 0.00146214 0)
(0.102621 0.00138391 0)
(0.102691 0.00130079 0)
(0.102757 0.00121296 0)
(0.10282 0.00112062 0)
(0.102878 0.00102401 0)
(0.102931 0.000923437 0)
(0.102979 0.000819214 0)
(0.100524 0.00198298 0)
(0.100583 0.00200638 0)
(0.100644 0.0020282 0)
(0.100708 0.00204826 0)
(0.100774 0.00206636 0)
(0.100842 0.00208231 0)
(0.100913 0.00209589 0)
(0.100987 0.00210689 0)
(0.101063 0.00211508 0)
(0.101141 0.00212024 0)
(0.101221 0.00212213 0)
(0.101303 0.00212053 0)
(0.101387 0.00211521 0)
(0.101473 0.00210593 0)
(0.10156 0.00209246 0)
(0.101649 0.00207459 0)
(0.101739 0.00205211 0)
(0.101829 0.00202481 0)
(0.10192 0.00199252 0)
(0.102012 0.00195507 0)
(0.102103 0.00191231 0)
(0.102193 0.00186414 0)
(0.102283 0.00181045 0)
(0.102371 0.00175119 0)
(0.102458 0.00168633 0)
(0.102542 0.00161589 0)
(0.102624 0.0015399 0)
(0.102703 0.00145847 0)
(0.102778 0.00137173 0)
(0.10285 0.00127985 0)
(0.102917 0.00118305 0)
(0.102979 0.0010816 0)
(0.103036 0.000975807 0)
(0.103087 0.000866022 0)
(0.100499 0.0020411 0)
(0.100559 0.00206707 0)
(0.100622 0.00209148 0)
(0.100687 0.00211413 0)
(0.100755 0.00213482 0)
(0.100826 0.00215333 0)
(0.1009 0.00216945 0)
(0.100976 0.00218293 0)
(0.101055 0.00219354 0)
(0.101136 0.00220102 0)
(0.10122 0.00220513 0)
(0.101306 0.00220562 0)
(0.101394 0.00220222 0)
(0.101484 0.00219468 0)
(0.101575 0.00218275 0)
(0.101669 0.00216618 0)
(0.101763 0.00214473 0)
(0.101859 0.00211819 0)
(0.101955 0.00208634 0)
(0.102052 0.00204898 0)
(0.102148 0.00200596 0)
(0.102245 0.00195713 0)
(0.10234 0.00190237 0)
(0.102434 0.00184162 0)
(0.102527 0.00177482 0)
(0.102617 0.00170197 0)
(0.102704 0.00162312 0)
(0.102789 0.00153836 0)
(0.10287 0.00144781 0)
(0.102946 0.00135166 0)
(0.103018 0.00125014 0)
(0.103085 0.00114353 0)
(0.103147 0.00103218 0)
(0.103202 0.000916439 0)
(0.100471 0.0021006 0)
(0.100532 0.00212931 0)
(0.100597 0.0021565 0)
(0.100664 0.00218195 0)
(0.100734 0.00220545 0)
(0.100808 0.00222676 0)
(0.100884 0.00224564 0)
(0.100963 0.00226185 0)
(0.101044 0.00227512 0)
(0.101129 0.00228518 0)
(0.101216 0.00229176 0)
(0.101306 0.00229458 0)
(0.101398 0.00229336 0)
(0.101492 0.00228782 0)
(0.101589 0.00227767 0)
(0.101687 0.00226264 0)
(0.101787 0.00224246 0)
(0.101888 0.00221688 0)
(0.101989 0.00218566 0)
(0.102092 0.00214857 0)
(0.102194 0.00210543 0)
(0.102297 0.00205605 0)
(0.102398 0.00200031 0)
(0.102499 0.0019381 0)
(0.102597 0.00186935 0)
(0.102694 0.00179407 0)
(0.102788 0.00171227 0)
(0.102878 0.00162403 0)
(0.102965 0.00152949 0)
(0.103047 0.00142884 0)
(0.103125 0.00132232 0)
(0.103197 0.00121023 0)
(0.103263 0.00109293 0)
(0.103323 0.000970819 0)
(0.10044 0.00216142 0)
(0.100503 0.00219309 0)
(0.100569 0.00222326 0)
(0.100638 0.00225173 0)
(0.10071 0.00227826 0)
(0.100786 0.00230261 0)
(0.100865 0.00232451 0)
(0.100946 0.0023437 0)
(0.101031 0.0023599 0)
(0.101119 0.00237282 0)
(0.10121 0.00238215 0)
(0.101304 0.00238759 0)
(0.1014 0.00238884 0)
(0.101499 0.00238557 0)
(0.1016 0.00237748 0)
(0.101704 0.00236426 0)
(0.101809 0.0023456 0)
(0.101915 0.00232122 0)
(0.102023 0.00229085 0)
(0.102132 0.00225423 0)
(0.102241 0.00221113 0)
(0.10235 0.00216134 0)
(0.102458 0.00210471 0)
(0.102565 0.00204111 0)
(0.102671 0.00197045 0)
(0.102774 0.00189269 0)
(0.102874 0.00180785 0)
(0.102972 0.00171601 0)
(0.103065 0.0016173 0)
(0.103154 0.00151191 0)
(0.103237 0.00140009 0)
(0.103315 0.00128216 0)
(0.103386 0.0011585 0)
(0.103451 0.00102955 0)
(0.100406 0.00222353 0)
(0.10047 0.00225835 0)
(0.100538 0.00229173 0)
(0.100609 0.00232345 0)
(0.100683 0.00235326 0)
(0.100761 0.0023809 0)
(0.100842 0.00240609 0)
(0.100927 0.00242855 0)
(0.101015 0.00244797 0)
(0.101106 0.00246403 0)
(0.101201 0.00247642 0)
(0.101299 0.0024848 0)
(0.1014 0.00248882 0)
(0.101503 0.00248814 0)
(0.10161 0.00248242 0)
(0.101719 0.0024713 0)
(0.101829 0.00245446 0)
(0.101942 0.00243156 0)
(0.102056 0.0024023 0)
(0.102171 0.00236637 0)
(0.102287 0.00232351 0)
(0.102403 0.00227349 0)
(0.102518 0.0022161 0)
(0.102633 0.00215119 0)
(0.102746 0.00207864 0)
(0.102857 0.0019984 0)
(0.102965 0.00191046 0)
(0.103069 0.00181488 0)
(0.103169 0.0017118 0)
(0.103265 0.00160141 0)
(0.103355 0.00148397 0)
(0.103439 0.00135982 0)
(0.103516 0.00122936 0)
(0.103586 0.00109309 0)
(0.100369 0.00228686 0)
(0.100434 0.00232504 0)
(0.100504 0.00236186 0)
(0.100576 0.00239707 0)
(0.100653 0.00243042 0)
(0.100733 0.00246163 0)
(0.100817 0.0024904 0)
(0.100904 0.00251643 0)
(0.100996 0.00253938 0)
(0.10109 0.00255893 0)
(0.101189 0.00257471 0)
(0.101291 0.00258636 0)
(0.101397 0.0025935 0)
(0.101505 0.00259576 0)
(0.101617 0.00259275 0)
(0.101731 0.00258408 0)
(0.101848 0.00256938 0)
(0.101967 0.00254827 0)
(0.102088 0.00252041 0)
(0.10221 0.00248544 0)
(0.102333 0.00244307 0)
(0.102457 0.00239301 0)
(0.10258 0.00233502 0)
(0.102702 0.00226891 0)
(0.102823 0.00219454 0)
(0.102942 0.00211181 0)
(0.103058 0.0020207 0)
(0.10317 0.00192127 0)
(0.103279 0.00181363 0)
(0.103382 0.00169797 0)
(0.103479 0.00157457 0)
(0.10357 0.00144379 0)
(0.103653 0.00130607 0)
(0.103729 0.00116191 0)
(0.100328 0.00235132 0)
(0.100395 0.00239309 0)
(0.100466 0.00243359 0)
(0.10054 0.00247256 0)
(0.100619 0.00250973 0)
(0.100701 0.00254479 0)
(0.100787 0.00257746 0)
(0.100878 0.00260738 0)
(0.100972 0.00263421 0)
(0.101071 0.00265759 0)
(0.101173 0.00267712 0)
(0.10128 0.00269242 0)
(0.10139 0.00270307 0)
(0.101504 0.00270865 0)
(0.101621 0.00270874 0)
(0.101742 0.0027029 0)
(0.101865 0.00269071 0)
(0.101991 0.00267175 0)
(0.102119 0.00264562 0)
(0.102249 0.00261193 0)
(0.102379 0.00257032 0)
(0.102511 0.00252046 0)
(0.102642 0.00246207 0)
(0.102773 0.00239491 0)
(0.102903 0.0023188 0)
(0.10303 0.00223361 0)
(0.103155 0.00213929 0)
(0.103276 0.00203588 0)
(0.103393 0.00192348 0)
(0.103504 0.00180228 0)
(0.103609 0.00167257 0)
(0.103708 0.00153473 0)
(0.103798 0.00138921 0)
(0.103881 0.00123659 0)
(0.100284 0.00241682 0)
(0.100352 0.00246242 0)
(0.100424 0.00250685 0)
(0.1005 0.00254985 0)
(0.10058 0.00259112 0)
(0.100665 0.00263036 0)
(0.100754 0.00266725 0)
(0.100847 0.00270141 0)
(0.100945 0.00273249 0)
(0.101047 0.00276008 0)
(0.101154 0.00278378 0)
(0.101265 0.00280313 0)
(0.10138 0.00281771 0)
(0.101499 0.00282704 0)
(0.101622 0.00283065 0)
(0.101749 0.00282806 0)
(0.101879 0.0028188 0)
(0.102012 0.0028024 0)
(0.102148 0.00277839 0)
(0.102285 0.00274634 0)
(0.102425 0.00270582 0)
(0.102565 0.00265646 0)
(0.102705 0.0025979 0)
(0.102846 0.00252988 0)
(0.102985 0.00245214 0)
(0.103122 0.00236454 0)
(0.103256 0.00226699 0)
(0.103386 0.0021595 0)
(0.103512 0.00204214 0)
(0.103633 0.00191512 0)
(0.103747 0.00177872 0)
(0.103853 0.00163334 0)
(0.103952 0.00147948 0)
(0.104041 0.00131774 0)
(0.100236 0.00248324 0)
(0.100305 0.00253292 0)
(0.100378 0.00258154 0)
(0.100456 0.00262885 0)
(0.100538 0.00267454 0)
(0.100625 0.00271829 0)
(0.100716 0.00275975 0)
(0.100812 0.00279853 0)
(0.100913 0.00283425 0)
(0.101019 0.00286648 0)
(0.10113 0.00289476 0)
(0.101246 0.00291863 0)
(0.101366 0.00293759 0)
(0.101491 0.00295114 0)
(0.10162 0.00295875 0)
(0.101753 0.0029599 0)
(0.10189 0.00295405 0)
(0.102031 0.00294066 0)
(0.102175 0.00291922 0)
(0.102321 0.00288922 0)
(0.102469 0.00285018 0)
(0.102619 0.00280165 0)
(0.102769 0.00274322 0)
(0.102919 0.00267456 0)
(0.103068 0.00259537 0)
(0.103216 0.00250544 0)
(0.10336 0.00240466 0)
(0.103501 0.00229298 0)
(0.103637 0.00217049 0)
(0.103768 0.00203735 0)
(0.103891 0.00189387 0)
(0.104007 0.00174046 0)
(0.104114 0.00157765 0)
(0.104212 0.00140609 0)
(0.100184 0.00255046 0)
(0.100254 0.00260445 0)
(0.100328 0.00265755 0)
(0.100407 0.00270947 0)
(0.100491 0.0027599 0)
(0.10058 0.00280851 0)
(0.100673 0.00285491 0)
(0.100772 0.00289872 0)
(0.100877 0.00293951 0)
(0.100986 0.00297681 0)
(0.101101 0.00301016 0)
(0.101222 0.00303902 0)
(0.101347 0.00306288 0)
(0.101478 0.00308117 0)
(0.101613 0.00309332 0)
(0.101753 0.00309874 0)
(0.101898 0.00309682 0)
(0.102047 0.00308698 0)
(0.102199 0.00306862 0)
(0.102354 0.00304115 0)
(0.102512 0.00300403 0)
(0.102672 0.00295674 0)
(0.102832 0.00289879 0)
(0.102993 0.00282978 0)
(0.103154 0.00274934 0)
(0.103312 0.00265722 0)
(0.103468 0.00255323 0)
(0.103621 0.00243731 0)
(0.103768 0.0023095 0)
(0.10391 0.00216995 0)
(0.104044 0.00201898 0)
(0.10417 0.001857 0)
(0.104287 0.00168458 0)