/*--------------------------------*- C++ -*----------------------------------*\
| =========                 |                                                 |
| \\      /  F ield         | OpenFOAM: The Open Source CFD Toolbox           |
|  \\    /   O peration     | Version:  2412                                  |
|   \\  /    A nd           | Website:  www.openfoam.com                      |
|    \\/     M anipulation  |                                                 |
\*---------------------------------------------------------------------------*/
FoamFile
{
    version     2.0;
    format      ascii;
    arch        "LSB;label=32;scalar=64";
    class       volVectorField;
    location    "2";
    object      U;
}
// * * * * * * * * * * * * * * * * * * * * * * * * * * * * * * * * * * * * * //

dimensions      [0 1 -1 0 0 0 0];

internalField   nonuniform List<vector> 
5285
(
(0.0838681 -0.000626958 1.30772e-24)
(0.0849759 -0.000563539 0)
(0.0859758 -0.000508572 1.30253e-24)
(0.0868817 -0.000460659 0)
(0.0877053 -0.000418682 0)
(0.0884565 -0.00038175 0)
(0.0891439 -0.000349138 1.26822e-24)
(0.0897747 -0.000320238 0)
(0.0903552 -0.000294535 -1.24204e-24)
(0.0908909 -0.000271595 1.22733e-24)
(0.0913865 -0.000251057 -1.21177e-24)
(0.091846 -0.000232625 1.06719e-23)
(0.0922732 -0.000216051 -1.06697e-23)
(0.0926712 -0.00020113 -8.04144e-24)
(0.0930429 -0.000187687 1.71348e-23)
(0.0933909 -0.000175575 -9.0754e-24)
(0.0937175 -0.000164672 -1.10741e-24)
(0.0940249 -0.000154879 1.08908e-24)
(0.094315 -0.000146123 0)
(0.0945897 -0.000138356 1.05226e-24)
(0.0948509 -0.000131556 -5.12802e-24)
(0.0951003 -0.000125736 5.11608e-24)
(0.0953398 -0.000120954 -9.97328e-25)
(0.0955714 -0.00011732 2.91797e-24)
(0.0957975 -0.000114986 -9.80434e-25)
(0.0960207 -0.000114051 -1.87767e-24)
(0.0962437 -0.000114256 9.35532e-25)
(0.0964681 -0.000114463 -9.08971e-25)
(0.0839457 -0.00187771 8.03906e-23)
(0.0850418 -0.00168794 -8.71542e-23)
(0.0860324 -0.00152336 8.24397e-23)
(0.0869308 -0.00137982 -4.22363e-23)
(0.0877482 -0.00125403 -8.2994e-23)
(0.0884944 -0.00114334 4.13712e-23)
(0.0891776 -0.00104561 -1.2715e-24)
(0.0898048 -0.000959004 -2.53506e-24)
(0.0903824 -0.00088198 1.24475e-24)
(0.0909155 -0.000813234 -3.70274e-24)
(0.0914089 -0.000751684 3.73884e-23)
(0.0918665 -0.000696442 -7.79316e-23)
(0.0922919 -0.000646773 3.69303e-23)
(0.0926884 -0.000602056 -3.49579e-24)
(0.0930587 -0.000561766 1.14471e-24)
(0.0934054 -0.00052546 0)
(0.0937308 -0.000492768 -1.8694e-23)
(0.094037 -0.000463395 1.65152e-23)
(0.094326 -0.000437115 1.48369e-23)
(0.0945996 -0.000413776 -2.01649e-23)
(0.0948595 -0.00039331 1.03362e-24)
(0.0951075 -0.000375743 4.99678e-24)
(0.0953454 -0.00036123 -9.0532e-24)
(0.095575 -0.000350078 -9.78404e-25)
(0.0957986 -0.000342716 -6.68501e-24)
(0.0960185 -0.000339412 -8.66465e-25)
(0.096237 -0.000339408 1.9062e-24)
(0.0964558 -0.000339378 2.74087e-24)
(0.0840908 -0.00311928 -8.42648e-23)
(0.0851634 -0.0028047 8.97245e-23)
(0.0861351 -0.00253163 2.7272e-24)
(0.0870182 -0.0022933 -2.70062e-24)
(0.0878232 -0.00208432 2.67217e-24)
(0.0885591 -0.00190037 -8.06597e-23)
(0.0892337 -0.00173791 8.33804e-23)
(0.0898538 -0.00159391 -7.61953e-23)
(0.0904253 -0.00146581 8.13955e-23)
(0.0909533 -0.00135145 2.48275e-24)
(0.0914421 -0.00124904 7.7951e-23)
(0.0918957 -0.00115712 -1.52399e-22)
(0.0923176 -0.00107448 7.9233e-23)
(0.0927109 -0.00100007 3.95119e-23)
(0.0930784 -0.000933024 -3.48967e-23)
(0.0934225 -0.000872593 0)
(0.0937455 -0.000818155 -8.18165e-27)
(0.0940494 -0.000769205 0)
(0.0943361 -0.000725358 3.40402e-23)
(0.0946074 -0.000686344 -3.19709e-23)
(0.0948649 -0.000652025 2.07277e-24)
(0.0951102 -0.000622413 -3.24857e-27)
(0.095345 -0.000597712 1.57851e-23)
(0.0955709 -0.000578357 -2.93319e-23)
(0.0957898 -0.00056497 1.54992e-23)
(0.0960035 -0.000557926 -7.44786e-24)
(0.096214 -0.000555998 5.64743e-24)
(0.0964223 -0.000553952 1.84613e-24)
(0.0842934 -0.00434281 0)
(0.0853302 -0.00390637 2.87811e-24)
(0.086273 -0.00352701 8.29235e-26)
(0.0871325 -0.00319558 2.72623e-24)
(0.0879181 -0.00290476 -1.75743e-22)
(0.088638 -0.00264861 1.73161e-22)
(0.0892993 -0.00242226 0)
(0.0899083 -0.00222153 -8.2891e-23)
(0.0904703 -0.00204286 8.55528e-23)
(0.09099 -0.00188329 0)
(0.0914717 -0.00174037 -2.66502e-26)
(0.091919 -0.00161209 -8.01826e-23)
(0.0923353 -0.00149674 1.56592e-22)
(0.0927237 -0.0013929 -1.51486e-22)
(0.0930866 -0.00129932 1.48804e-22)
(0.0934267 -0.00121493 -1.46086e-22)
(0.0937459 -0.00113887 7.23685e-23)
(0.0940463 -0.0010704 3.48319e-23)
(0.0943296 -0.00100896 -3.05298e-23)
(0.0945974 -0.00095416 -2.11869e-24)
(0.0948513 -0.000905751 -3.28404e-23)
(0.0950928 -0.00086369 6.91201e-23)
(0.0953232 -0.000828163 -3.22112e-23)
(0.0955439 -0.00079964 2.53504e-27)
(0.0957563 -0.000778811 1.91261e-24)
(0.0959617 -0.000766061 -1.00695e-27)
(0.0961615 -0.000759764 -1.83658e-24)
(0.0963562 -0.000753218 3.59841e-24)
(0.0855453 -0.00498373 -1.91655e-22)
(0.0864484 -0.00450151 1.85777e-22)
(0.0872753 -0.00407973 0)
(0.0880339 -0.00370927 0)
(0.0887314 -0.00338274 -2.74692e-24)
(0.0893739 -0.00309396 -1.73217e-22)
(0.0899669 -0.00283764 1.7048e-22)
(0.0905153 -0.00260932 -2.61479e-24)
(0.0910231 -0.00240528 -7.94372e-23)
(0.0914944 -0.00222249 8.4537e-23)
(0.0919325 -0.0020584 0)
(0.0923408 -0.00191088 2.76397e-26)
(0.0927219 -0.00177807 0)
(0.0930785 -0.00165834 -7.44787e-23)
(0.0934127 -0.00155032 7.67805e-23)
(0.0937265 -0.00145287 -6.92881e-23)
(0.0940218 -0.00136504 7.15077e-23)
(0.0943002 -0.00128607 -4.3354e-24)
(0.0945632 -0.00121542 2.11823e-24)
(0.0948123 -0.00115271 7.33558e-27)
(0.0950485 -0.00109779 -2.03167e-24)
(0.0952732 -0.00105076 1.98926e-24)
(0.0954874 -0.00101202 -1.7376e-23)
(0.0956921 -0.000982203 3.05208e-23)
(0.0958879 -0.000961593 -2.24818e-23)
(0.0960756 -0.000948273 7.38484e-24)
(0.0962553 -0.000934663 -3.9933e-28)
(0.0858313 -0.00605093 2.01952e-22)
(0.0866837 -0.00546635 -2.01657e-22)
(0.0874685 -0.00495462 -1.92434e-22)
(0.0881919 -0.00450492 1.8912e-22)
(0.0888598 -0.00410832 0)
(0.0894774 -0.00375736 0)
(0.090049 -0.00344563 1.76107e-22)
(0.0905789 -0.00316778 -3.5208e-24)
(0.0910706 -0.00291939 -1.77408e-22)
(0.0915277 -0.00269685 -1.67637e-22)
(0.0919535 -0.00249712 3.23646e-22)
(0.0923507 -0.00231759 -8.47194e-23)
(0.092722 -0.00215596 -8.13121e-23)
(0.0930697 -0.00201022 -8.03247e-23)
(0.0933959 -0.00187869 1.47006e-22)
(0.0937024 -0.00175991 -1.48314e-22)
(0.0939907 -0.0016527 -7.28518e-25)
(0.0942625 -0.00155613 7.05186e-23)
(0.0945191 -0.00146944 6.74903e-23)
(0.0947617 -0.00139213 -1.04544e-22)
(0.0949914 -0.00132387 6.31273e-23)
(0.0952091 -0.00126463 -3.41792e-23)
(0.0954156 -0.00121464 3.27245e-23)
(0.0956114 -0.00117434 -3.26364e-23)
(0.0957968 -0.00114386 1.85597e-24)
(0.095972 -0.00112113 -8.99341e-24)
(0.0961369 -0.00109835 3.62181e-24)
(0.0862249 -0.00712206 -2.26348e-22)
(0.0870155 -0.00643235 0)
(0.0877483 -0.00582838 0)
(0.0884279 -0.00529757 3.09295e-24)
(0.0890586 -0.00482942 -1.93815e-22)
(0.0896444 -0.00441505 1.93322e-22)
(0.0901887 -0.00404693 0)
(0.0906948 -0.00371878 0)
(0.0911659 -0.00342548 2.72858e-24)
(0.0916049 -0.0031628 -1.67453e-22)
(0.0920148 -0.00292717 3.38175e-22)
(0.0923979 -0.00271547 -1.65469e-22)
(0.0927566 -0.00252494 2.47793e-24)
(0.093093 -0.00235318 2.41891e-24)
(0.0934089 -0.00219812 7.50798e-23)
(0.0937059 -0.00205801 -1.45816e-22)
(0.0939854 -0.00193144 7.52942e-23)
(0.0942489 -0.00181721 -6.74824e-23)
(0.0944974 -0.0017144 1.53438e-24)
(0.0947322 -0.00162229 3.58848e-24)
(0.0949539 -0.00154038 6.815e-23)
(0.0951635 -0.00146843 3.3515e-23)
(0.0953614 -0.00140643 -3.33833e-23)
(0.0955478 -0.00135459 1.89398e-24)
(0.0957228 -0.0013128 1.46231e-23)
(0.0958859 -0.00127898 -1.27815e-23)
(0.0960372 -0.00124576 1.75768e-24)
(0.0966928 -0.000112363 0)
(0.0969123 -0.000105249 0)
(0.0971152 -9.12356e-05 0)
(0.0972857 -7.12772e-05 0)
(0.097413 -4.92725e-05 0)
(0.0974966 -3.00891e-05 0)
(0.0975457 -1.71135e-05 0)
(0.0975751 -1.10838e-05 0)
(0.0975989 -1.05719e-05 0)
(0.097627 -1.32747e-05 0)
(0.0976644 -1.71242e-05 0)
(0.097712 -2.07828e-05 0)
(0.0977686 -2.36307e-05 0)
(0.0978322 -2.553e-05 0)
(0.0979006 -2.65829e-05 0)
(0.0979721 -2.69705e-05 0)
(0.0980452 -2.68712e-05 0)
(0.0981189 -2.64317e-05 0)
(0.0981924 -2.57627e-05 0)
(0.0982652 -2.49442e-05 0)
(0.0983369 -2.40326e-05 0)
(0.0984072 -2.30672e-05 0)
(0.0984759 -2.20759e-05 0)
(0.0985429 -2.10783e-05 0)
(0.098608 -2.00888e-05 0)
(0.0986713 -1.9117e-05 0)
(0.0987327 -1.81696e-05 0)
(0.0987923 -1.72504e-05 0)
(0.0988499 -1.6362e-05 0)
(0.0989056 -1.55062e-05 0)
(0.0989594 -1.46841e-05 0)
(0.0990114 -1.38963e-05 0)
(0.0990616 -1.31429e-05 0)
(0.09911 -1.24234e-05 0)
(0.0991566 -1.1737e-05 0)
(0.0992016 -1.10825e-05 0)
(0.0992449 -1.04586e-05 0)
(0.0992865 -9.86401e-06 0)
(0.0993266 -9.2976e-06 0)
(0.0993651 -8.75876e-06 0)
(0.0994022 -8.24702e-06 0)
(0.0994377 -7.76108e-06 0)
(0.0994718 -7.29969e-06 0)
(0.0995046 -6.86097e-06 0)
(0.0966732 -0.000332593 0)
(0.0968846 -0.000311258 0)
(0.0970798 -0.000269937 0)
(0.0972449 -0.000211457 0)
(0.0973703 -0.000147175 0)
(0.0974555 -9.12223e-05 0)
(0.0975093 -5.33957e-05 0)
(0.097545 -3.5788e-05 0)
(0.0975755 -3.42133e-05 0)
(0.0976098 -4.19645e-05 0)
(0.0976523 -5.30329e-05 0)
(0.0977037 -6.354e-05 0)
(0.0977632 -7.16919e-05 0)
(0.0978288 -7.70921e-05 0)
(0.0978985 -8.00399e-05 0)
(0.0979709 -8.10607e-05 0)
(0.0980446 -8.06717e-05 0)
(0.0981187 -7.92966e-05 0)
(0.0981924 -7.7255e-05 0)
(0.0982654 -7.47784e-05 0)
(0.0983371 -7.20312e-05 0)
(0.0984074 -6.91296e-05 0)
(0.0984761 -6.61552e-05 0)
(0.098543 -6.31658e-05 0)
(0.0986081 -6.0202e-05 0)
(0.0986714 -5.72922e-05 0)
(0.0987327 -5.44553e-05 0)
(0.0987922 -5.17036e-05 0)
(0.0988497 -4.90453e-05 0)
(0.0989054 -4.64853e-05 0)
(0.0989591 -4.40264e-05 0)
(0.0990111 -4.16697e-05 0)
(0.0990612 -3.94148e-05 0)
(0.0991096 -3.72602e-05 0)
(0.0991562 -3.52039e-05 0)
(0.0992011 -3.32426e-05 0)
(0.0992443 -3.13732e-05 0)
(0.0992859 -2.95924e-05 0)
(0.099326 -2.78971e-05 0)
(0.0993645 -2.62847e-05 0)
(0.0994015 -2.47526e-05 0)
(0.099437 -2.32969e-05 0)
(0.0994711 -2.1914e-05 0)
(0.0995038 -2.06002e-05 0)
(0.0966265 -0.000541218 0)
(0.0968232 -0.000505848 0)
(0.0970052 -0.000439449 0)
(0.0971614 -0.000346579 0)
(0.0972844 -0.000245033 0)
(0.0973743 -0.000156824 0)
(0.0974383 -9.71301e-05 0)
(0.0974871 -6.90984e-05 0)
(0.097531 -6.61178e-05 0)
(0.0975773 -7.76927e-05 0)
(0.0976296 -9.44499e-05 0)
(0.0976885 -0.000110351 0)
(0.0977534 -0.000122604 0)
(0.0978227 -0.000130594 0)
(0.0978951 -0.000134782 0)
(0.0979692 -0.000135983 0)
(0.098044 -0.000134996 0)
(0.0981187 -0.000132479 0)
(0.0981929 -0.000128928 0)
(0.0982661 -0.000124704 0)
(0.0983379 -0.000120063 0)
(0.0984082 -0.000115187 0)
(0.0984768 -0.000110206 0)
(0.0985437 -0.00010521 0)
(0.0986087 -0.000100264 0)
(0.0986718 -9.5412e-05 0)
(0.098733 -9.06845e-05 0)
(0.0987924 -8.61011e-05 0)
(0.0988498 -8.16747e-05 0)
(0.0989053 -7.74131e-05 0)
(0.0989589 -7.33204e-05 0)
(0.0990108 -6.93978e-05 0)
(0.0990608 -6.56444e-05 0)
(0.099109 -6.20579e-05 0)
(0.0991555 -5.86346e-05 0)
(0.0992004 -5.53695e-05 0)
(0.0992435 -5.22573e-05 0)
(0.0992851 -4.9293e-05 0)
(0.099325 -4.64715e-05 0)
(0.0993634 -4.37879e-05 0)
(0.0994004 -4.12374e-05 0)
(0.0994358 -3.88137e-05 0)
(0.0994699 -3.6511e-05 0)
(0.0995025 -3.43234e-05 0)
(0.0965437 -0.000732981 0)
(0.0967221 -0.000684305 0)
(0.0968883 -0.000596699 0)
(0.0970353 -0.000476126 0)
(0.0971585 -0.000345127 0)
(0.0972579 -0.000231434 0)
(0.0973383 -0.000154083 0)
(0.0974068 -0.000116935 0)
(0.0974703 -0.000111582 0)
(0.0975338 -0.000124753 0)
(0.0975998 -0.000144612 0)
(0.0976691 -0.000163528 0)
(0.0977414 -0.000177958 0)
(0.0978159 -0.000187098 0)
(0.0978917 -0.000191503 0)
(0.0979681 -0.000192178 0)
(0.0980444 -0.000190117 0)
(0.0981201 -0.000186139 0)
(0.0981948 -0.000180868 0)
(0.0982682 -0.000174756 0)
(0.0983401 -0.00016813 0)
(0.0984104 -0.000161223 0)
(0.0984789 -0.000154198 0)
(0.0985457 -0.000147175 0)
(0.0986105 -0.000140234 0)
(0.0986734 -0.000133435 0)
(0.0987344 -0.000126815 0)
(0.0987935 -0.000120402 0)
(0.0988507 -0.000114211 0)
(0.0989061 -0.000108253 0)
(0.0989595 -0.000102531 0)
(0.0990112 -9.70483e-05 0)
(0.099061 -9.1802e-05 0)
(0.0991091 -8.6789e-05 0)
(0.0991555 -8.20039e-05 0)
(0.0992002 -7.74399e-05 0)
(0.0992432 -7.30899e-05 0)
(0.0992846 -6.89467e-05 0)
(0.0993245 -6.50031e-05 0)
(0.0993628 -6.12522e-05 0)
(0.0993996 -5.76868e-05 0)
(0.099435 -5.42982e-05 0)
(0.0994689 -5.10785e-05 0)
(0.0995015 -4.802e-05 0)
(0.0964249 -0.000905708 0)
(0.0965847 -0.000845408 0)
(0.0967362 -0.000742093 0)
(0.0968766 -0.000602528 0)
(0.097004 -0.000451757 0)
(0.0971181 -0.000320543 0)
(0.0972206 -0.000230041 0)
(0.097314 -0.000184614 0)
(0.0974015 -0.000175001 0)
(0.0974855 -0.0001865 0)
(0.0975678 -0.00020593 0)
(0.0976492 -0.000224731 0)
(0.0977301 -0.000238862 0)
(0.0978105 -0.000247327 0)
(0.0978904 -0.000250663 0)
(0.0979694 -0.00024993 0)
(0.0980473 -0.0002462 0)
(0.098124 -0.000240365 0)
(0.0981993 -0.00023311 0)
(0.098273 -0.000224938 0)
(0.098345 -0.000216215 0)
(0.0984152 -0.000207203 0)
(0.0984835 -0.000198091 0)
(0.09855 -0.000189013 0)
(0.0986146 -0.000180065 0)
(0.0986772 -0.000171312 0)
(0.098738 -0.000162801 0)
(0.0987968 -0.000154561 0)
(0.0988537 -0.000146612 0)
(0.0989088 -0.000138964 0)
(0.098962 -0.000131622 0)
(0.0990134 -0.000124586 0)
(0.099063 -0.000117855 0)
(0.0991109 -0.000111424 0)
(0.099157 -0.000105284 0)
(0.0992015 -9.9429e-05 0)
(0.0992443 -9.38481e-05 0)
(0.0992856 -8.85325e-05 0)
(0.0993253 -8.34731e-05 0)
(0.0993634 -7.86606e-05 0)
(0.0994001 -7.40852e-05 0)
(0.0994354 -6.97363e-05 0)
(0.0994692 -6.56037e-05 0)
(0.0995017 -6.16783e-05 0)
(0.0962896 -0.00106023 0)
(0.0964329 -0.000991029 0)
(0.0965725 -0.00087863 0)
(0.0967097 -0.00072973 0)
(0.0968446 -0.000569367 0)
(0.0969764 -0.000428542 0)
(0.0971031 -0.000328875 0)
(0.0972231 -0.000275226 0)
(0.0973354 -0.000258659 0)
(0.0974405 -0.000264521 0)
(0.0975393 -0.000279462 0)
(0.0976329 -0.000294648 0)
(0.0977225 -0.000305754 0)
(0.097809 -0.000311555 0)
(0.0978928 -0.000312427 0)
(0.0979744 -0.000309333 0)
(0.0980541 -0.000303289 0)
(0.0981317 -0.000295164 0)
(0.0982075 -0.000285637 0)
(0.0982814 -0.000275215 0)
(0.0983534 -0.000264271 0)
(0.0984234 -0.000253077 0)
(0.0984915 -0.000241829 0)
(0.0985577 -0.000230669 0)
(0.0986219 -0.000219699 0)
(0.0986842 -0.00020899 0)
(0.0987446 -0.000198589 0)
(0.098803 -0.000188529 0)
(0.0988596 -0.00017883 0)
(0.0989143 -0.000169502 0)
(0.0989672 -0.00016055 0)
(0.0990182 -0.000151973 0)
(0.0990675 -0.000143769 0)
(0.0991151 -0.000135929 0)
(0.099161 -0.000128447 0)
(0.0992052 -0.00012131 0)
(0.0992478 -0.000114507 0)
(0.0992889 -0.000108028 0)
(0.0993284 -0.000101861 0)
(0.0993663 -9.59942e-05 0)
(0.0994029 -9.04156e-05 0)
(0.0994379 -8.51127e-05 0)
(0.0994716 -8.0073e-05 0)
(0.0995039 -7.52859e-05 0)
(0.0961751 -0.00119895 0)
(0.0963048 -0.00112415 0)
(0.096435 -0.00100931 0)
(0.0965702 -0.000860117 0)
(0.0967122 -0.000699324 0)
(0.0968594 -0.000555728 0)
(0.0970069 -0.000450063 0)
(0.0971493 -0.00038782 0)
(0.0972829 -0.000361512 0)
(0.0974061 -0.000357896 0)
(0.0975191 -0.000364502 0)
(0.0976234 -0.000372781 0)
(0.0977206 -0.000378305 0)
(0.0978123 -0.00037957 0)
(0.0978998 -0.000376658 0)
(0.0979838 -0.000370288 0)
(0.0980648 -0.000361306 0)
(0.0981433 -0.000350469 0)
(0.0982195 -0.000338386 0)
(0.0982935 -0.000325524 0)
(0.0983654 -0.000312236 0)
(0.0984352 -0.000298781 0)
(0.0985029 -0.00028535 0)
(0.0985687 -0.000272083 0)
(0.0986325 -0.00025908 0)
(0.0986943 -0.000246411 0)
(0.0987542 -0.000234126 0)
(0.0988122 -0.000222255 0)
(0.0988683 -0.000210818 0)
(0.0989226 -0.000199824 0)
(0.098975 -0.000189276 0)
(0.0990257 -0.000179172 0)
(0.0990747 -0.000169508 0)
(0.0991219 -0.000160274 0)
(0.0991675 -0.000151461 0)
(0.0992114 -0.000143055 0)
(0.0992537 -0.000135042 0)
(0.0992945 -0.000127411 0)
(0.0993337 -0.000120146 0)
(0.0993715 -0.000113234 0)
(0.0994078 -0.000106661 0)
(0.0994426 -0.000100412 0)
(0.0994762 -9.4472e-05 0)
(0.0995083 -8.883e-05 0)
(0.0961168 -0.00132743 0)
(0.0962351 -0.00124985 0)
(0.0963568 -0.00113779 0)
(0.0964881 -0.000995282 0)
(0.0966322 -0.000841113 0)
(0.0967873 -0.000700062 0)
(0.0969468 -0.000590941 0)
(0.0971033 -0.00051992 0)
(0.0972507 -0.000481777 0)
(0.0973862 -0.000465697 0)
(0.0975094 -0.000460895 0)
(0.0976215 -0.00045957 0)
(0.0977246 -0.000457353 0)
(0.0978205 -0.000452446 0)
(0.0979108 -0.000444548 0)
(0.0979966 -0.000434035 0)
(0.0980788 -0.000421491 0)
(0.098158 -0.000407492 0)
(0.0982344 -0.000392529 0)
(0.0983083 -0.000376993 0)
(0.09838 -0.000361188 0)
(0.0984494 -0.000345344 0)
(0.0985167 -0.000329633 0)
(0.098582 -0.000314185 0)
(0.0986452 -0.000299091 0)
(0.0987065 -0.000284419 0)
(0.0987659 -0.000270211 0)
(0.0988233 -0.000256498 0)
(0.098879 -0.000243295 0)
(0.0989327 -0.000230611 0)
(0.0989847 -0.000218445 0)
(0.099035 -0.000206795 0)
(0.0990835 -0.000195653 0)
(0.0991303 -0.000185009 0)
(0.0991755 -0.000174848 0)
(0.099219 -0.000165157 0)
(0.099261 -0.00015592 0)
(0.0993015 -0.000147121 0)
(0.0993404 -0.000138744 0)
(0.0993779 -0.000130773 0)
(0.099414 -0.000123191 0)
(0.0994486 -0.000115983 0)
(0.0994819 -0.000109131 0)
(0.0995139 -0.000102622 0)
(0.096136 -0.00144828 0)
(0.0962451 -0.00136883 0)
(0.096358 -0.00126206 0)
(0.0964819 -0.00113005 0)
(0.0966208 -0.000986822 0)
(0.0967734 -0.000852111 0)
(0.0969332 -0.000742045 0)
(0.0970922 -0.000663222 0)
(0.0972437 -0.000612912 0)
(0.0973838 -0.000583203 0)
(0.0975115 -0.000565464 0)
(0.0976276 -0.000552987 0)
(0.097734 -0.000541645 0)
(0.0978324 -0.000529423 0)
(0.0979245 -0.000515634 0)
(0.0980116 -0.000500281 0)
(0.0980945 -0.000483649 0)
(0.098174 -0.000466094 0)
(0.0982504 -0.000447955 0)
(0.0983241 -0.000429524 0)
(0.0983954 -0.000411038 0)
(0.0984644 -0.000392681 0)
(0.0985312 -0.000374599 0)
(0.0985959 -0.000356899 0)
(0.0986585 -0.000339661 0)
(0.0987192 -0.000322941 0)
(0.0987779 -0.000306777 0)
(0.0988348 -0.000291193 0)
(0.0988898 -0.000276202 0)
(0.0989431 -0.000261807 0)
(0.0989945 -0.000248007 0)
(0.0990442 -0.000234795 0)
(0.0990923 -0.00022216 0)
(0.0991387 -0.000210091 0)
(0.0991834 -0.00019857 0)
(0.0992266 -0.000187581 0)
(0.0992682 -0.000177106 0)
(0.0993083 -0.000167128 0)
(0.0993469 -0.000157627 0)
(0.0993841 -0.000148585 0)
(0.0994199 -0.000139984 0)
(0.0994543 -0.000131805 0)
(0.0994873 -0.000124029 0)
(0.099519 -0.000116642 0)
(0.0962168 -0.0015606 0)
(0.0963189 -0.00147902 0)
(0.0964238 -0.00137729 0)
(0.0965385 -0.00125592 0)
(0.0966671 -0.00112452 0)
(0.0968094 -0.000997843 0)
(0.0969603 -0.000889022 0)
(0.0971125 -0.000804585 0)
(0.0972596 -0.000743878 0)
(0.0973975 -0.000701688 0)
(0.0975245 -0.000671563 0)
(0.0976409 -0.000648032 0)
(0.0977479 -0.00062739 0)
(0.0978471 -0.000607545 0)
(0.0979398 -0.000587529 0)
(0.0980273 -0.000567024 0)
(0.0981104 -0.000546039 0)
(0.0981898 -0.000524718 0)
(0.098266 -0.000503247 0)
(0.0983394 -0.000481808 0)
(0.0984102 -0.000460562 0)
(0.0984786 -0.000439644 0)
(0.0985448 -0.000419162 0)
(0.0986088 -0.000399199 0)
(0.0986708 -0.000379816 0)
(0.0987308 -0.000361057 0)
(0.0987889 -0.00034295 0)
(0.0988451 -0.000325514 0)
(0.0988995 -0.000308754 0)
(0.0989522 -0.00029267 0)
(0.0990031 -0.000277256 0)
(0.0990522 -0.000262503 0)
(0.0990998 -0.000248398 0)
(0.0991457 -0.000234924 0)
(0.09919 -0.000222063 0)
(0.0992327 -0.000209794 0)
(0.0992739 -0.000198099 0)
(0.0993137 -0.000186958 0)
(0.0993519 -0.000176348 0)
(0.0993888 -0.000166249 0)
(0.0994242 -0.000156641 0)
(0.0994583 -0.000147503 0)
(0.0994911 -0.000138815 0)
(0.0995226 -0.00013056 0)
(0.0963283 -0.0016669 0)
(0.0964256 -0.0015824 0)
(0.0965244 -0.00148401 0)
(0.0966304 -0.00137128 0)
(0.0967479 -0.00125029 0)
(0.0968772 -0.00113157 0)
(0.097015 -0.00102534 0)
(0.0971555 -0.000937582 0)
(0.0972934 -0.00086903 0)
(0.0974246 -0.000816607 0)
(0.0975473 -0.000775763 0)
(0.0976612 -0.000742237 0)
(0.0977668 -0.000712864 0)
(0.0978651 -0.000685635 0)
(0.0979574 -0.000659433 0)
(0.0980444 -0.000633721 0)
(0.0981271 -0.000608292 0)
(0.0982061 -0.000583111 0)
(0.0982818 -0.000558225 0)
(0.0983545 -0.000533715 0)
(0.0984247 -0.000509666 0)
(0.0984924 -0.00048616 0)
(0.0985578 -0.000463265 0)
(0.0986211 -0.000441037 0)
(0.0986824 -0.000419516 0)
(0.0987416 -0.000398732 0)
(0.098799 -0.000378701 0)
(0.0988546 -0.000359432 0)
(0.0989083 -0.000340926 0)
(0.0989603 -0.000323176 0)
(0.0990106 -0.000306173 0)
(0.0990592 -0.000289903 0)
(0.0991061 -0.000274349 0)
(0.0991515 -0.000259492 0)
(0.0991953 -0.00024531 0)
(0.0992376 -0.000231782 0)
(0.0992784 -0.000218885 0)
(0.0993177 -0.000206597 0)
(0.0993556 -0.000194894 0)
(0.0993921 -0.000183753 0)
(0.0994272 -0.000173151 0)
(0.099461 -0.000163068 0)
(0.0994935 -0.000153479 0)
(0.0995247 -0.000144367 0)
(0.0964468 -0.00176937 0)
(0.0965411 -0.00168133 0)
(0.0966358 -0.00158437 0)
(0.0967353 -0.00147753 0)
(0.0968432 -0.00136447 0)
(0.0969604 -0.00125242 0)
(0.097085 -0.00114911 0)
(0.0972129 -0.00105973 0)
(0.0973399 -0.000985707 0)
(0.0974626 -0.00092546 0)
(0.0975791 -0.000875914 0)
(0.0976886 -0.000833871 0)
(0.0977912 -0.000796735 0)
(0.0978876 -0.000762695 0)
(0.0979784 -0.000730616 0)
(0.0980643 -0.000699842 0)
(0.098146 -0.000670022 0)
(0.0982241 -0.00064099 0)
(0.0982989 -0.000612681 0)
(0.0983708 -0.000585088 0)
(0.0984401 -0.000558229 0)
(0.098507 -0.000532133 0)
(0.0985715 -0.000506831 0)
(0.098634 -0.00048235 0)
(0.0986944 -0.000458709 0)
(0.0987529 -0.00043592 0)
(0.0988094 -0.000413988 0)
(0.0988642 -0.000392912 0)
(0.0989172 -0.000372685 0)
(0.0989685 -0.000353295 0)
(0.0990181 -0.000334729 0)
(0.0990661 -0.000316967 0)
(0.0991125 -0.000299989 0)
(0.0991573 -0.000283772 0)
(0.0992005 -0.000268292 0)
(0.0992423 -0.000253525 0)
(0.0992826 -0.000239445 0)
(0.0993215 -0.000226029 0)
(0.099359 -0.000213249 0)
(0.0993951 -0.000201082 0)
(0.0994299 -0.000189502 0)
(0.0994633 -0.000178486 0)
(0.0994955 -0.00016801 0)
(0.0995264 -0.000158051 0)
(0.0965624 -0.00186914 0)
(0.0966544 -0.00177737 0)
(0.0967463 -0.00168037 0)
(0.0968412 -0.00157697 0)
(0.0969417 -0.00146922 0)
(0.0970491 -0.00136206 0)
(0.0971624 -0.00126127 0)
(0.0972787 -0.00117116 0)
(0.0973952 -0.00109341 0)
(0.0975091 -0.00102736 0)
(0.0976187 -0.000970971 0)
(0.097723 -0.000921903 0)
(0.0978217 -0.000878085 0)
(0.0979152 -0.000837961 0)
(0.0980038 -0.000800463 0)
(0.098088 -0.000764904 0)
(0.0981683 -0.000730857 0)
(0.098245 -0.000698068 0)
(0.0983186 -0.000666393 0)
(0.0983894 -0.000635753 0)
(0.0984576 -0.000606112 0)
(0.0985234 -0.000577452 0)
(0.098587 -0.000549769 0)
(0.0986485 -0.000523061 0)
(0.0987079 -0.000497328 0)
(0.0987655 -0.000472564 0)
(0.0988212 -0.000448761 0)
(0.0988751 -0.000425908 0)
(0.0989273 -0.000403991 0)
(0.0989778 -0.000382992 0)
(0.0990267 -0.00036289 0)
(0.099074 -0.000343664 0)
(0.0991197 -0.000325289 0)
(0.0991639 -0.000307738 0)
(0.0992066 -0.000290984 0)
(0.0992478 -0.000275 0)
(0.0992876 -0.000259759 0)
(0.099326 -0.000245234 0)
(0.0993631 -0.000231397 0)
(0.0993987 -0.00021822 0)
(0.0994331 -0.000205677 0)
(0.0994662 -0.000193744 0)
(0.099498 -0.000182393 0)
(0.0995286 -0.000171601 0)
(0.0966741 -0.0019664 0)
(0.0967639 -0.00187109 0)
(0.0968532 -0.00177313 0)
(0.0969444 -0.00167132 0)
(0.0970392 -0.00156672 0)
(0.0971389 -0.00146271 0)
(0.0972429 -0.00136367 0)
(0.0973495 -0.00127312 0)
(0.0974566 -0.00119274 0)
(0.0975622 -0.00112235 0)
(0.0976649 -0.00106062 0)
(0.0977636 -0.00100582 0)
(0.097858 -0.000956346 0)
(0.0979481 -0.000910886 0)
(0.0980339 -0.000868492 0)
(0.0981159 -0.000828501 0)
(0.0981942 -0.000790462 0)
(0.0982693 -0.000754075 0)
(0.0983415 -0.000719143 0)
(0.0984109 -0.000685536 0)
(0.0984778 -0.000653172 0)
(0.0985424 -0.000621999 0)
(0.0986048 -0.000591979 0)
(0.0986651 -0.000563087 0)
(0.0987235 -0.000535301 0)
(0.09878 -0.000508601 0)
(0.0988348 -0.000482964 0)
(0.0988878 -0.000458371 0)
(0.0989391 -0.000434799 0)
(0.0989888 -0.000412225 0)
(0.0990369 -0.000390621 0)
(0.0990834 -0.000369963 0)
(0.0991284 -0.000350219 0)
(0.0991719 -0.000331362 0)
(0.099214 -0.00031336 0)
(0.0992546 -0.000296184 0)
(0.0992939 -0.000279805 0)
(0.0993318 -0.000264192 0)
(0.0993683 -0.000249317 0)
(0.0994035 -0.000235149 0)
(0.0994375 -0.000221661 0)
(0.0994701 -0.000208825 0)
(0.0995016 -0.000196614 0)
(0.0995318 -0.000185002 0)
(0.096784 -0.00206077 0)
(0.096871 -0.00196224 0)
(0.0969576 -0.00186288 0)
(0.0970452 -0.00176144 0)
(0.0971352 -0.00165839 0)
(0.0972284 -0.00155614 0)
(0.0973248 -0.00145805 0)
(0.0974232 -0.00136703 0)
(0.0975221 -0.00128461 0)
(0.0976203 -0.00121088 0)
(0.0977164 -0.00114492 0)
(0.0978096 -0.00108545 0)
(0.0978994 -0.00103121 0)
(0.0979857 -0.000981109 0)
(0.0980684 -0.000934346 0)
(0.0981477 -0.000890309 0)
(0.0982238 -0.000848558 0)
(0.0982969 -0.000808774 0)
(0.0983673 -0.000770732 0)
(0.0984351 -0.000734271 0)
(0.0985005 -0.000699274 0)
(0.0985637 -0.000665659 0)
(0.0986248 -0.000633366 0)
(0.0986839 -0.000602346 0)
(0.0987411 -0.000572558 0)
(0.0987965 -0.000543969 0)
(0.0988502 -0.000516544 0)
(0.0989022 -0.000490254 0)
(0.0989526 -0.000465067 0)
(0.0990013 -0.000440956 0)
(0.0990486 -0.000417887 0)
(0.0990943 -0.000395829 0)
(0.0991386 -0.00037475 0)
(0.0991814 -0.000354616 0)
(0.0992227 -0.000335395 0)
(0.0992628 -0.000317054 0)
(0.0993014 -0.000299561 0)
(0.0993387 -0.000282884 0)
(0.0993747 -0.000266991 0)
(0.0994094 -0.000251853 0)
(0.0994429 -0.000237438 0)
(0.0994751 -0.000223717 0)
(0.0995062 -0.000210661 0)
(0.099536 -0.000198243 0)
(0.0968944 -0.00215151 0)
(0.0969778 -0.00205019 0)
(0.097061 -0.00194926 0)
(0.0971448 -0.00184748 0)
(0.0972302 -0.00174495 0)
(0.0973178 -0.00164344 0)
(0.0974076 -0.00154564 0)
(0.0974989 -0.001454 0)
(0.0975907 -0.00136989 0)
(0.0976821 -0.00129347 0)
(0.097772 -0.0012241 0)
(0.0978598 -0.00116079 0)
(0.097945 -0.00110251 0)
(0.0980273 -0.0010484 0)
(0.0981066 -0.000997773 0)
(0.098183 -0.00095008 0)
(0.0982566 -0.000904914 0)
(0.0983275 -0.000861962 0)
(0.0983958 -0.000820987 0)
(0.0984618 -0.000781808 0)
(0.0985255 -0.000744289 0)
(0.0985872 -0.000708327 0)
(0.0986468 -0.000673838 0)
(0.0987046 -0.000640758 0)
(0.0987605 -0.000609031 0)
(0.0988147 -0.000578608 0)
(0.0988672 -0.000549447 0)
(0.0989181 -0.000521508 0)
(0.0989675 -0.000494753 0)
(0.0990153 -0.000469147 0)
(0.0990616 -0.000444652 0)
(0.0991065 -0.000421233 0)
(0.0991499 -0.000398853 0)
(0.099192 -0.000377476 0)
(0.0992326 -0.000357066 0)
(0.0992719 -0.000337588 0)
(0.09931 -0.000319007 0)
(0.0993467 -0.00030129 0)
(0.0993821 -0.000284404 0)
(0.0994163 -0.000268315 0)
(0.0994493 -0.000252992 0)
(0.0994811 -0.000238404 0)
(0.0995117 -0.00022452 0)
(0.0995411 -0.000211312 0)
(0.0970063 -0.0022379 0)
(0.0970856 -0.00213422 0)
(0.0971648 -0.00203174 0)
(0.0972444 -0.00192925 0)
(0.097325 -0.00182662 0)
(0.0974073 -0.00172521 0)
(0.0974911 -0.00162725 0)
(0.0975761 -0.00153486 0)
(0.0976615 -0.00144925 0)
(0.0977467 -0.0013706 0)
(0.0978308 -0.00129842 0)
(0.0979134 -0.0012319 0)
(0.097994 -0.00117021 0)
(0.0980722 -0.00111264 0)
(0.098148 -0.0010586 0)
(0.0982213 -0.00100763 0)
(0.0982921 -0.00095935 0)
(0.0983605 -0.000913472 0)
(0.0984267 -0.000869758 0)
(0.0984907 -0.000828018 0)
(0.0985526 -0.000788106 0)
(0.0986125 -0.000749902 0)
(0.0986706 -0.00071331 0)
(0.0987269 -0.00067825 0)
(0.0987814 -0.000644654 0)
(0.0988343 -0.000612462 0)
(0.0988856 -0.000581624 0)
(0.0989354 -0.00055209 0)
(0.0989836 -0.000523816 0)
(0.0990304 -0.000496762 0)
(0.0990758 -0.000470885 0)
(0.0991197 -0.000446145 0)
(0.0991623 -0.000422502 0)
(0.0992035 -0.000399916 0)
(0.0992434 -0.000378349 0)
(0.099282 -0.000357764 0)
(0.0993194 -0.000338124 0)
(0.0993554 -0.000319394 0)
(0.0993903 -0.000301537 0)
(0.0994239 -0.000284521 0)
(0.0994564 -0.000268311 0)
(0.0994876 -0.000252875 0)
(0.0995178 -0.000238181 0)
(0.0995468 -0.000224198 0)
(0.0971202 -0.00231934 0)
(0.0971947 -0.00221369 0)
(0.0972694 -0.0021098 0)
(0.0973444 -0.00200647 0)
(0.0974202 -0.00190342 0)
(0.0974972 -0.00180174 0)
(0.0975754 -0.00170337 0)
(0.0976545 -0.00161015 0)
(0.0977341 -0.00152319 0)
(0.0978135 -0.00144265 0)
(0.0978922 -0.00136811 0)
(0.0979697 -0.0012989 0)
(0.0980457 -0.00123431 0)
(0.0981199 -0.00117374 0)
(0.098192 -0.00111671 0)
(0.098262 -0.00106282 0)
(0.09833 -0.00101173 0)
(0.0983958 -0.000963169 0)
(0.0984596 -0.000916918 0)
(0.0985214 -0.000872787 0)
(0.0985814 -0.000830622 0)
(0.0986395 -0.000790297 0)
(0.0986959 -0.000751704 0)
(0.0987506 -0.000714753 0)
(0.0988037 -0.000679368 0)
(0.0988552 -0.000645479 0)
(0.0989052 -0.000613027 0)
(0.0989537 -0.000581958 0)
(0.0990008 -0.00055222 0)
(0.0990465 -0.000523768 0)
(0.0990908 -0.000496556 0)
(0.0991338 -0.000470538 0)
(0.0991755 -0.000445671 0)
(0.0992159 -0.000421913 0)
(0.099255 -0.000399224 0)
(0.0992928 -0.000377564 0)
(0.0993294 -0.000356895 0)
(0.0993648 -0.000337178 0)
(0.0993991 -0.000318377 0)
(0.0994321 -0.000300457 0)
(0.099464 -0.000283382 0)
(0.0994948 -0.000267117 0)
(0.0995244 -0.000251631 0)
(0.099553 -0.000236891 0)
(0.0972358 -0.00239536 0)
(0.0973052 -0.00228814 0)
(0.0973749 -0.00218305 0)
(0.0974451 -0.00207889 0)
(0.0975159 -0.00197531 0)
(0.0975877 -0.00187319 0)
(0.0976606 -0.00177427 0)
(0.0977341 -0.00168024 0)
(0.0978081 -0.00159206 0)
(0.0978821 -0.0015099 0)
(0.0979556 -0.00143338 0)
(0.0980283 -0.00136189 0)
(0.0980998 -0.00129483 0)
(0.0981699 -0.00123169 0)
(0.0982383 -0.00117204 0)
(0.098305 -0.00111555 0)
(0.0983699 -0.00106194 0)
(0.0984331 -0.00101095 0)
(0.0984944 -0.000962366 0)
(0.0985539 -0.000916019 0)
(0.0986118 -0.000871752 0)
(0.098668 -0.000829433 0)
(0.0987225 -0.00078895 0)
(0.0987756 -0.000750206 0)
(0.0988271 -0.000713118 0)
(0.0988771 -0.000677609 0)
(0.0989258 -0.000643614 0)
(0.098973 -0.000611072 0)
(0.0990189 -0.000579929 0)
(0.0990635 -0.000550133 0)
(0.0991067 -0.000521634 0)
(0.0991487 -0.000494384 0)
(0.0991894 -0.000468336 0)
(0.0992289 -0.000443445 0)
(0.0992672 -0.00041967 0)
(0.0993042 -0.000396969 0)
(0.0993401 -0.000375301 0)
(0.0993748 -0.000354627 0)
(0.0994084 -0.000334908 0)
(0.0994408 -0.000316108 0)
(0.0994721 -0.000298191 0)
(0.0995023 -0.000281119 0)
(0.0995315 -0.00026486 0)
(0.0995596 -0.000249381 0)