/*--------------------------------*- C++ -*----------------------------------*\
| =========                 |                                                 |
| \\      /  F ield         | OpenFOAM: The Open Source CFD Toolbox           |
|  \\    /   O peration     | Version:  2412                                  |
|   \\  /    A nd           | Website:  www.openfoam.com                      |
|    \\/     M anipulation  |                                                 |
\*---------------------------------------------------------------------------*/
FoamFile
{
    version     2.0;
    format      ascii;
    arch        "LSB;label=32;scalar=64";
    class       volVectorField;
    location    "5";
    object      vorticity;
}
// * * * * * * * * * * * * * * * * * * * * * * * * * * * * * * * * * * * * * //

dimensions      [0 0 -1 0 0 0 0];

internalField   nonuniform List<vector> 
5285
(
(2.57867e-21 -6.64569e-20 0.000270688)
(-2.06833e-21 7.90229e-21 0.000303028)
(-2.28098e-22 -7.33699e-21 0.00032671)
(9.75492e-23 7.35903e-21 0.000342825)
(-3.51974e-24 -1.43965e-22 0.000352773)
(-9.25406e-23 -7.10704e-21 0.000357933)
(-2.22759e-21 7.19222e-21 0.00035953)
(4.69455e-21 1.43128e-23 0.000358527)
(1.38589e-21 7.00035e-21 0.000355618)
(-3.65405e-21 -6.02731e-24 0.000351244)
(5.27288e-21 8.26452e-21 0.000345635)
(-5.97956e-21 1.06092e-19 0.00033886)
(5.62311e-22 -1.14045e-19 0.000330873)
(-2.17193e-21 1.04639e-19 0.00032156)
(2.11099e-21 -1.05926e-19 0.000310762)
(5.39865e-23 1.49284e-21 0.000298268)
(-7.03371e-23 -1.83452e-21 0.000283769)
(2.79845e-21 -1.0117e-19 0.000266734)
(-9.38546e-21 9.84e-20 0.000246153)
(-3.59999e-22 -1.72444e-21 0.000219965)
(6.92664e-21 1.51492e-23 0.000183801)
(7.55582e-21 1.65253e-23 0.000128274)
(-7.53164e-21 -1.64724e-23 3.35003e-05)
(-2.50733e-22 -5.48378e-25 -0.00014114)
(-2.62302e-22 -5.73681e-25 -0.000474201)
(-9.07994e-21 -1.98587e-23 -0.00110745)
(8.76369e-21 1.91671e-23 -0.00227674)
(-2.9171e-22 1.74338e-22 -0.00433943)
(9.98155e-24 8.9841e-21 -0.00778239)
(-2.80964e-20 5.75418e-20 -0.0131915)
(2.70435e-20 -7.62647e-20 -0.021167)
(-6.68764e-21 -1.08687e-20 -0.0321779)
(7.32971e-21 3.0024e-20 -0.0463657)
(-2.37383e-20 -6.62759e-21 -0.0631947)
(1.10175e-21 -2.30322e-19 0.000756872)
(-5.49656e-21 2.47041e-19 0.000849041)
(-2.5403e-22 1.98044e-20 0.000916001)
(-4.31501e-21 -7.5355e-21 0.000961021)
(4.54421e-21 1.62465e-22 0.000988047)
(-4.53373e-21 9.56017e-21 0.00100105)
(1.97772e-21 2.15859e-19 0.00100353)
(4.88017e-21 -4.58714e-19 0.000998251)
(4.05546e-21 -2.19044e-19 0.000987163)
(-5.98313e-21 4.44104e-19 0.000971495)
(2.025e-21 -4.44619e-19 0.000951854)
(-1.00253e-22 4.56665e-19 0.000928367)
(3.68319e-21 1.11829e-21 0.000900832)
(-4.14578e-21 -1.08598e-22 0.000868834)
(-1.3918e-21 -3.044e-24 0.000831823)
(0 -0 0.000789092)
(2.0595e-22 1.06844e-22 0.000739628)
(1.23527e-20 1.34111e-20 0.000681745)
(-1.42112e-20 3.80384e-19 0.000612289)
(-1.7346e-20 -2.49757e-20 0.000524886)
(1.71396e-20 -3.77128e-19 0.00040608)
(2.55308e-20 -3.27689e-19 0.000227035)
(-6.21358e-21 3.51279e-19 -7.32098e-05)
(-3.49245e-20 2.00506e-21 -0.000618855)
(3.46331e-20 1.9237e-20 -0.00164936)
(-4.2705e-20 2.5659e-19 -0.00359539)
(2.09755e-20 -2.67619e-19 -0.00717083)
(-2.0527e-20 1.64879e-20 -0.0134537)
(2.29393e-20 9.06791e-21 -0.0239087)
(-6.61797e-20 1.28358e-19 -0.0402949)
(6.61665e-20 -1.25526e-19 -0.0644104)
(-1.04909e-19 9.52496e-20 -0.0976435)
(1.0118e-19 -1.06606e-19 -0.140345)
(-2.19081e-20 -7.35295e-22 -0.189321)
(-5.62434e-21 -1.29486e-20 0.00108668)
(-2.86715e-21 4.77031e-19 0.0012246)
(3.97014e-22 -1.44989e-20 0.00132323)
(-1.1364e-20 4.64739e-19 0.00138743)
(1.11776e-20 -4.83079e-19 0.00142322)
(-7.58961e-21 4.62663e-19 0.00143662)
(-1.42326e-22 -4.81675e-19 0.00143292)
(5.7772e-21 -9.18224e-21 0.00141624)
(-2.80066e-21 1.41475e-20 0.00138947)
(6.10772e-21 -8.7101e-21 0.00135434)
(-1.78158e-20 4.36932e-19 0.00131158)
(1.55963e-20 -4.67032e-19 0.00126119)
(1.68323e-20 -4.33992e-19 0.00120257)
(-1.32588e-20 4.37288e-19 0.00113481)
(-1.21545e-21 -5.80249e-21 0.00105672)
(1.25874e-20 -1.36191e-22 0.000966843)
(-1.45797e-20 -2.69208e-20 0.000863181)
(4.91904e-20 -8.04394e-19 0.000742567)
(1.80695e-20 5.85667e-20 0.000599303)
(-6.78922e-20 7.60068e-19 0.000422135)
(4.47433e-21 -1.3876e-20 0.000187543)
(-1.26728e-20 -6.20834e-21 -0.000154609)
(1.09051e-19 -6.47615e-19 -0.000709919)
(-2.00941e-19 1.2781e-18 -0.00169266)
(2.04285e-19 -1.28075e-18 -0.00351389)
(8.16101e-20 9.11736e-20 -0.0069088)
(-1.62934e-19 5.67379e-19 -0.0130889)
(-1.75462e-19 3.9603e-19 -0.023874)
(1.64537e-19 -4.71801e-19 -0.0417265)
(-2.60348e-20 2.24951e-20 -0.069599)
(6.44987e-20 -2.04316e-20 -0.110511)
(1.89114e-19 -1.1766e-19 -0.166763)
(-2.05227e-19 1.85093e-19 -0.238752)
(-2.97134e-20 -4.80375e-20 -0.315915)
(-7.91122e-21 4.89327e-19 0.00118399)
(-7.73249e-22 -4.29345e-21 0.00134633)
(5.11052e-21 4.42764e-21 0.00145858)
(-5.18922e-21 4.54025e-19 0.00152659)
(-5.80257e-21 -4.77635e-19 0.00155763)
(1.67232e-20 1.44027e-20 0.00155893)
(-3.01458e-20 9.19328e-19 0.00153682)
(2.102e-20 -9.24032e-19 0.00149614)
(2.45093e-21 -4.72536e-21 0.00144015)
(-1.10347e-20 -7.84686e-23 0.00137061)
(1.65468e-20 -1.40129e-20 0.00128799)
(-5.42637e-21 1.39203e-22 0.00119173)
(-6.00077e-21 -4.57884e-23 0.00108049)
(5.67126e-21 2.20655e-22 0.000952403)
(-3.99144e-21 5.6156e-22 0.000805195)
(5.84151e-20 -8.28648e-19 0.000636136)
(-5.18167e-20 8.54055e-19 0.000441672)
(-1.79273e-20 -6.40918e-22 0.000216537)
(2.0673e-20 -9.90099e-21 -4.82175e-05)
(-9.43255e-20 7.6984e-19 -0.000369623)
(1.13655e-19 -7.75072e-19 -0.000782609)
(-2.60453e-20 3.14617e-21 -0.00136102)
(1.82693e-20 -5.12021e-23 -0.00225968)
(4.3219e-20 8.0757e-21 -0.00379159)
(-2.59591e-19 5.90566e-19 -0.00655452)
(3.73606e-19 -1.2052e-18 -0.011612)
(-1.81676e-19 6.13527e-19 -0.020707)
(2.81448e-19 -4.76617e-19 -0.0364463)
(-2.70419e-19 5.65003e-19 -0.0623524)
(-6.60154e-19 5.86763e-19 -0.102668)
(1.25309e-18 -1.25607e-18 -0.161792)
(-6.18443e-19 6.40039e-19 -0.243115)
(2.208e-20 -2.63801e-21 -0.346907)
(5.3523e-21 -4.11153e-20 -0.446491)
(4.75003e-21 4.21069e-21 0.00100917)
(-1.78881e-21 4.63395e-19 0.00116968)
(1.84797e-20 -5.02313e-19 0.00127286)
(7.28704e-21 2.89224e-20 0.00132467)
(-4.22436e-20 9.58956e-19 0.0013326)
(2.35256e-20 -9.63407e-19 0.00130411)
(1.16226e-20 2.41358e-20 0.00124562)
(-2.03616e-20 -2.63246e-22 0.00116183)
(1.33206e-20 1.0858e-20 0.00105566)
(-3.2061e-20 9.28135e-19 0.000928246)
(2.4728e-20 -9.21134e-19 0.00077917)
(3.19649e-21 1.08408e-20 0.000606699)
(1.11636e-20 2.83204e-20 0.000408068)
(-1.29632e-20 -6.18739e-22 0.000179734)
(1.11814e-21 -1.3593e-20 -8.24901e-05)
(-4.17701e-20 1.38295e-20 -0.000383528)
(3.97976e-20 1.32102e-20 -0.000729506)
(-3.84394e-21 -2.75085e-20 -0.00112889)
(7.30223e-20 -7.79303e-19 -0.00159501)
(-6.23128e-20 8.02965e-19 -0.00215188)
(2.56348e-19 -1.55651e-18 -0.00284716)
(-2.3064e-19 1.57245e-18 -0.0037802)
(2.92492e-19 -1.48571e-18 -0.00515824)
(7.99997e-20 1.38748e-19 -0.00739941)
(-3.41177e-19 1.4208e-18 -0.0113013)
(-1.38689e-19 -2.59744e-20 -0.0182811)
(1.87571e-20 3.55097e-22 -0.0306584)
(-2.14897e-20 5.58187e-22 -0.0519061)
(6.34719e-20 1.85722e-21 -0.0867515)
(3.13332e-20 1.52639e-20 -0.141015)
(-1.32873e-19 5.76843e-21 -0.221038)
(7.623e-20 5.69303e-21 -0.332219)
(-1.94801e-22 -3.65726e-22 -0.47527)
(4.22994e-20 7.42927e-22 -0.592729)
(-3.19464e-21 7.29207e-21 0.000561525)
(3.37855e-20 -9.75527e-19 0.000691695)
(2.34675e-20 -9.36886e-19 0.000760206)
(7.09929e-21 2.23349e-20 0.00077217)
(-1.94307e-20 9.74966e-19 0.000734217)
(-2.2746e-20 -9.14076e-21 0.000652921)
(1.3881e-20 1.00919e-20 0.000533712)
(-4.4725e-20 9.47705e-19 0.000380217)
(3.41783e-20 -9.65359e-19 0.000194074)
(6.82286e-20 -9.26358e-19 -2.50578e-05)
(-6.95826e-20 9.59558e-19 -0.000279372)
(1.69844e-20 -2.25425e-20 -0.000572706)
(5.96133e-20 -9.28698e-19 -0.000910294)
(-9.0792e-20 9.5429e-19 -0.00129854)
(4.92437e-21 1.39216e-20 -0.00174491)
(-1.93375e-19 1.754e-18 -0.00225806)
(1.70607e-19 -1.82368e-18 -0.0028484)
(5.50567e-20 6.89766e-20 -0.00352938)
(-2.51114e-19 1.67167e-18 -0.00432046)
(2.25459e-19 -1.74725e-18 -0.00525399)
(-3.58746e-20 -3.95733e-21 -0.00639086)
(4.7019e-19 -1.58572e-18 -0.00785493)
(-4.36329e-19 1.64222e-18 -0.00990279)
(-7.68669e-20 -8.21028e-20 -0.0130532)
(7.00562e-19 -1.3995e-18 -0.0183012)
(-1.21633e-18 2.90851e-18 -0.0274271)
(-8.24925e-20 -1.62433e-19 -0.043368)
(-1.13042e-19 -1.24516e-19 -0.0705668)
(8.23341e-19 -1.29092e-18 -0.115185)
(4.66532e-20 7.41923e-20 -0.185133)
(-9.87253e-19 8.8121e-19 -0.289985)
(9.66087e-19 -9.72232e-19 -0.440291)
(1.0942e-20 3.43503e-20 -0.642451)
(1.09782e-20 -3.16502e-21 -0.784031)
(-1.61782e-21 -1.97655e-20 -9.32452e-05)
(1.93968e-20 -1.01304e-18 -1.51243e-05)
(-6.29754e-21 -7.03888e-21 4.13098e-07)
(-1.83772e-22 1.35343e-22 -4.27603e-05)
(1.29597e-20 9.54244e-21 -0.000139331)
(-4.61865e-20 9.78635e-19 -0.000283956)
(3.96448e-20 -1.00142e-18 -0.000472337)
(1.44324e-20 9.43473e-21 -0.000701838)
(-1.00591e-20 -1.53936e-20 -0.000971676)
(-6.96156e-21 1.11755e-20 -0.00128292)
(-6.60711e-20 9.49698e-19 -0.00163833)
(1.43454e-19 -1.94269e-18 -0.00204212)
(-6.64783e-20 1.01769e-18 -0.00249957)
(-1.74222e-19 1.88419e-18 -0.0030166)
(-3.14392e-20 -4.57508e-20 -0.00359931)
(6.15645e-21 -2.40081e-20 -0.00425366)
(-7.10584e-20 -5.45983e-20 -0.0049853)
(2.39113e-19 -1.89678e-18 -0.00579992)
(3.88872e-19 -1.7573e-18 -0.00670496)
(-3.4024e-19 1.85088e-18 -0.00771488)
(-3.86207e-20 -6.24723e-20 -0.00886559)
(4.58574e-19 -1.69563e-18 -0.0102492)
(-3.94403e-19 1.80387e-18 -0.0120891)
(-6.7381e-19 1.60468e-18 -0.0148872)
(5.59041e-19 -1.70256e-18 -0.0196784)
(8.92623e-20 -1.27597e-20 -0.0284179)
(9.16755e-19 -1.53147e-18 -0.0444796)
(1.54009e-19 1.23878e-19 -0.0731738)
(-1.08407e-18 1.51471e-18 -0.122156)
(-1.98118e-20 -4.62541e-20 -0.201701)
(3.97999e-20 6.25728e-22 -0.325657)
(-3.99229e-20 1.8238e-20 -0.516535)
(-5.91685e-19 6.18768e-19 -0.81633)
(5.81417e-19 -6.29649e-19 -1.13844)
(-9.70368e-21 -2.62103e-21 0.00210931)
(-7.31522e-21 2.03995e-21 -0.00894877)
(6.76466e-21 5.54997e-21 -0.0174018)
(-9.19054e-21 -1.10752e-20 -0.0234163)
(9.60835e-21 3.90024e-21 -0.0271619)
(-3.31172e-22 1.69261e-21 -0.0288949)
(-9.80701e-23 -6.10022e-23 -0.0289488)
(-2.49091e-21 5.44786e-24 -0.027695)
(2.41308e-21 -5.27765e-24 -0.02551)
(-5.72013e-23 1.25105e-25 -0.0227459)
(-4.54033e-23 9.93014e-26 -0.0197078)
(9.37508e-22 -2.05042e-24 -0.0166406)
(-9.40526e-22 2.05702e-24 -0.0137253)
(-5.39141e-22 1.17915e-24 -0.0110812)
(1.33968e-22 -7.48403e-23 -0.00877466)
(3.09924e-21 7.33927e-20 -0.00682859)
(-2.39737e-21 -6.86273e-20 -0.00523436)
(-5.44862e-24 -7.03667e-23 -0.00396218)
(-1.50968e-24 4.17459e-23 -0.00297047)
(-1.72116e-21 -8.96641e-20 -0.00221312)
(1.72629e-21 8.98034e-20 -0.00164479)
(-1.16442e-21 -8.96124e-20 -0.00122427)
(-1.43704e-20 2.21517e-20 0.0036559)
(4.23885e-21 -2.38766e-20 -0.0289828)
(7.60757e-22 -4.63486e-21 -0.0536772)
(-1.82649e-20 -1.17786e-20 -0.0709284)
(1.7489e-20 1.30804e-20 -0.081363)
(-7.61013e-21 5.36671e-21 -0.0858658)
(5.5559e-21 4.28534e-22 -0.0854978)
(-3.87889e-20 -1.08495e-19 -0.0813951)
(4.2466e-20 1.00152e-19 -0.0746793)
(-1.01196e-20 -2.01948e-21 -0.0663787)
(4.68527e-21 -6.6701e-21 -0.0573704)
(3.98593e-20 2.10151e-19 -0.0483494)
(-4.30748e-20 -2.07936e-19 -0.0398226)
(-3.74085e-20 -2.58638e-19 -0.0321203)
(4.30178e-21 -2.23126e-20 -0.0254205)
(3.4236e-20 2.79852e-19 -0.01978)
(-1.10062e-21 -4.34564e-21 -0.0151666)
(-1.0874e-21 -1.02925e-20 -0.0114894)
(9.82014e-25 -8.75014e-24 -0.00862507)
(3.89203e-23 -8.51225e-26 -0.0064387)
(1.76942e-22 1.98817e-24 -0.00479832)
(-3.30044e-22 -6.12289e-21 -0.00358422)
(-1.51779e-20 -4.46493e-23 -0.00302125)
(2.7671e-20 1.13581e-20 -0.0556277)
(-7.16178e-21 8.59935e-22 -0.0944916)
(-3.76888e-20 -1.19052e-20 -0.120548)
(1.47457e-20 6.98369e-21 -0.135298)
(-1.0357e-19 -1.519e-19 -0.140546)
(1.12412e-19 1.35088e-19 -0.138243)
(1.50972e-19 2.58493e-19 -0.130334)
(-8.92642e-21 7.13576e-20 -0.118651)
(-2.89586e-19 -6.54221e-19 -0.104808)
(3.00298e-19 7.5567e-19 -0.0901398)
(-1.47103e-19 -3.89892e-19 -0.0756786)
(-9.0136e-22 -1.06899e-20 -0.0621571)
(-9.36203e-22 -1.13488e-21 -0.0500381)
(1.17927e-19 5.93555e-19 -0.0395571)
(-1.32195e-20 2.89884e-20 -0.0307708)
(-1.02207e-19 -6.12557e-19 -0.0236072)
(3.69918e-21 2.02028e-20 -0.0179105)
(-7.59879e-22 2.4248e-23 -0.0134806)
(2.90056e-23 -2.26705e-22 -0.0101025)
(2.98788e-20 3.81802e-19 -0.00756892)
(-2.89757e-20 -3.69457e-19 -0.00569295)
(1.33679e-21 2.63784e-20 -0.0228681)
(8.61966e-21 -5.02607e-20 -0.0936526)
(1.25317e-19 1.69436e-19 -0.143075)
(-3.40108e-19 -3.29434e-19 -0.173795)
(2.30393e-19 1.56667e-19 -0.188989)
(1.55735e-19 2.26487e-19 -0.191826)
(-1.76174e-19 -2.03062e-19 -0.185324)
(1.93078e-19 3.08898e-19 -0.172247)
(-4.0907e-19 -6.67796e-19 -0.155024)
(2.29124e-19 3.46243e-19 -0.13569)
(-6.65245e-21 1.25115e-20 -0.11586)
(-4.80752e-21 7.62178e-22 -0.0967292)
(7.52443e-21 9.66489e-21 -0.0791149)
(-1.80487e-19 -5.96037e-19 -0.0635041)
(1.71507e-19 5.74465e-19 -0.0501157)
(2.60173e-21 2.1773e-20 -0.0389628)
(-8.23261e-22 -1.10954e-20 -0.029913)
(1.17671e-19 7.15875e-19 -0.0227426)
(-1.17692e-19 -7.14378e-19 -0.0171814)
(-1.53725e-21 -1.26405e-20 -0.0129483)
(-2.16472e-22 -1.21625e-23 -0.00977606)
(5.18775e-22 1.31794e-22 -0.00742662)
(2.69022e-20 7.84093e-25 -0.06244)
(-7.78804e-22 -5.52703e-22 -0.148953)
(-5.70569e-20 -1.32421e-21 -0.20284)
(7.64151e-20 -2.8192e-21 -0.232013)
(-2.73805e-20 -6.02172e-21 -0.242395)
(-3.16361e-20 -1.37572e-21 -0.23889)
(1.48506e-20 4.25669e-21 -0.22559)
(-7.72074e-21 -5.87362e-21 -0.205912)
(4.43545e-20 -1.7201e-20 -0.182659)
(5.04564e-19 9.55159e-19 -0.158038)
(-2.64799e-20 9.16139e-20 -0.133706)
(-5.1066e-19 -1.06429e-18 -0.11083)
(4.59718e-19 1.19537e-18 -0.0901554)
(-4.67476e-19 -1.19398e-18 -0.0720845)
(1.97029e-19 6.67521e-19 -0.0567485)
(-2.03924e-19 -6.90346e-19 -0.0440769)
(3.65606e-21 9.56737e-21 -0.0338605)
(-5.99005e-21 -1.13487e-20 -0.0258067)
(1.32004e-21 -1.21216e-20 -0.0195851)
(1.78734e-21 1.2137e-20 -0.014863)
(1.00986e-21 2.85611e-23 -0.0113303)
(-4.16069e-21 -2.56852e-20 -0.00871447)
(-1.81759e-22 6.18039e-22 -0.00678741)
(-8.52468e-20 3.61521e-22 -0.129795)
(2.78309e-20 2.87978e-20 -0.229185)
(-2.41464e-19 -3.56571e-19 -0.277004)
(2.8562e-19 3.03991e-19 -0.295751)
(-3.23647e-20 4.94889e-20 -0.294984)
(-4.95859e-19 -7.183e-19 -0.28101)
(-4.54486e-20 -1.41455e-19 -0.258511)
(-3.66183e-20 -1.21315e-19 -0.231137)
(1.25627e-18 2.00704e-18 -0.201681)
(-6.79955e-19 -1.00504e-18 -0.172207)
(3.99202e-20 -3.53726e-21 -0.144167)
(6.215e-19 1.2915e-18 -0.118508)
(-6.2139e-19 -1.26257e-18 -0.0957792)
(7.49198e-21 -3.47582e-21 -0.0762136)
(-4.86403e-19 -1.46604e-18 -0.0598058)
(4.93312e-19 1.46516e-18 -0.0463777)
(-1.13828e-20 -4.3735e-21 -0.0356361)
(-3.67064e-19 -1.59911e-18 -0.0272238)
(3.72484e-19 1.60273e-18 -0.0207608)
(-2.98584e-21 -1.1212e-20 -0.0158769)
(1.35322e-19 8.50309e-19 -0.0122342)
(-1.27476e-19 -8.19953e-19 -0.00954044)
(-1.77229e-21 -1.68966e-21 -0.00755377)
(-1.38599e-19 -1.31701e-19 -0.243033)
(1.68536e-19 9.2374e-20 -0.327651)
(-2.0091e-21 3.69831e-20 -0.346882)
(-3.42269e-20 -3.59005e-22 -0.343915)
(2.26083e-20 -1.87224e-20 -0.327108)
(6.622e-19 9.39417e-19 -0.301002)
(2.57898e-20 1.65802e-19 -0.269507)
(-7.08537e-19 -1.0662e-18 -0.235753)
(-2.30109e-20 1.45763e-21 -0.20201)
(-7.37944e-19 -1.34357e-18 -0.169845)
(7.69982e-19 1.29092e-18 -0.140286)
(6.94599e-19 1.48232e-18 -0.113935)
(-7.13609e-19 -1.44323e-18 -0.0910708)
(9.73743e-21 -1.57026e-20 -0.0717253)
(5.90939e-19 1.60856e-18 -0.0557466)
(-5.97935e-19 -1.58629e-18 -0.0428529)
(-4.86567e-19 -1.68291e-18 -0.0326802)
(5.12842e-20 -4.3203e-20 -0.0248241)
(3.98511e-20 -3.55776e-20 -0.0188749)
(4.37258e-20 -2.20637e-20 -0.014446)
(3.54428e-19 1.75658e-18 -0.011192)
(1.39035e-19 8.96052e-19 -0.00881964)
(-2.70294e-19 -1.81453e-18 -0.00709183)
(7.89392e-20 1.35185e-19 -0.223322)
(-4.41671e-20 -0 -0.261793)
(2.88566e-22 -0 -0.27028)
(0 -0 -0.262927)
(-2.34558e-22 -0 -0.246259)
(-2.61785e-20 -0 -0.223993)
(3.03675e-21 -0 -0.198567)
(2.33086e-20 -0 -0.17182)
(-1.38949e-22 -0 -0.145183)
(1.49678e-20 -0 -0.119738)
(-1.48046e-20 -0 -0.096259)
(-1.07147e-20 -0 -0.0752574)
(1.06693e-20 -0 -0.0570226)
(0 -0 -0.0416536)
(-6.34814e-21 -0 -0.02909)
(6.32099e-21 -0 -0.0191447)
(4.54916e-21 -0 -0.0115396)
(-6.30649e-22 -0 -0.00594166)
(-5.03318e-22 -0 -0.00199733)
(-4.20851e-22 -0 0.000638298)
(-2.95277e-21 -0 0.00227967)
(-1.17252e-21 -0 0.00319699)
(2.27298e-21 -0 0.0036119)
(1.08347e-21 -0 0.00369469)
(0 -7.6649e-20 -0.351857)
(0 -0 -0.334054)
(0 -0 -0.317437)
(0 -0 -0.295524)
(0 -0 -0.268857)
(0 -0 -0.239324)
(0 -0 -0.208639)
(0 -0 -0.17819)
(0 -0 -0.149062)
(0 -0 -0.12205)
(0 -0 -0.0976848)
(0 -0 -0.0762673)
(0 -0 -0.0579117)
(0 -0 -0.0425808)
(0 -0 -0.0301171)
(0 -0 -0.0202721)
(0 -0 -0.0127346)
(0 -0 -0.0071591)
(0 -0 -0.00319294)
(0 -0 -0.000499259)
(0 -0 0.00122542)
(0 -0 0.00224087)
(0 -0 0.00275804)
(0 6.05754e-22 -0.416231)
(0 -0 -0.378391)
(0 -0 -0.345467)
(0 -0 -0.312019)
(0 -0 -0.277281)
(0 -0 -0.242204)
(0 -0 -0.207898)
(0 -0 -0.175307)
(0 -0 -0.145155)
(0 -0 -0.117933)
(0 -0 -0.0939053)
(0 -0 -0.0731544)
(0 -0 -0.0556166)
(0 -0 -0.0411207)
(0 -0 -0.0294181)
(0 -0 -0.0202074)
(0 -0 -0.0131558)
(0 -0 -0.00791958)
(0 -0 -0.0041626)
(0 -0 -0.0015722)
(0 -0 0.000128913)
(0 -0 0.00117559)
(0 -0 0.00175905)
(0 -0 -0.430767)
(0 -0 -0.386301)
(0 -0 -0.345741)
(0 -0 -0.306232)
(0 -0 -0.267381)
(0 -0 -0.229919)
(0 -0 -0.194633)
(0 -0 -0.162139)
(0 -0 -0.132861)
(0 -0 -0.107019)
(0 -0 -0.0846534)
(0 -0 -0.0656625)
(0 -0 -0.0498402)
(0 -0 -0.0369137)
(0 -0 -0.0265703)
(0 -0 -0.0184778)
(0 -0 -0.0123005)
(0 -0 -0.00771165)
(0 -0 -0.00440516)
(0 -0 -0.00210445)
(0 -0 -0.000569034)
(0 -0 0.000402307)
(0 -0 0.000972029)
(0 -5.50311e-22 -0.408574)
(0 -0 -0.364)
(0 -0 -0.322101)
(0 -0 -0.28161)
(0 -0 -0.242695)
(0 -0 -0.206085)
(0 -0 -0.172406)
(0 -0 -0.142065)
(0 -0 -0.115268)
(0 -0 -0.0920456)
(0 -0 -0.0722813)
(0 -0 -0.0557528)
(0 -0 -0.0421693)
(0 -0 -0.0312034)
(0 -0 -0.0225155)
(0 -0 -0.0157702)
(0 -0 -0.0106474)
(0 -0 -0.00685079)
(0 -0 -0.00411258)
(0 -0 -0.00219803)
(0 -0 -0.000907335)
(0 -0 -7.59588e-05)
(0 -0 0.000427681)
(0 -6.29614e-20 -0.362147)
(0 -0 -0.321144)
(0 -0 -0.282024)
(0 -0 -0.244281)
(0 -0 -0.208447)
(0 -0 -0.175236)
(0 -0 -0.145159)
(0 -0 -0.118483)
(0 -0 -0.0952755)
(0 -0 -0.0754513)
(0 -0 -0.0588103)
(0 -0 -0.045076)
(0 -0 -0.0339289)
(0 -0 -0.0250337)
(0 -0 -0.018059)
(0 -0 -0.0126912)
(0 -0 -0.00864245)
(0 -0 -0.00565517)
(0 -0 -0.00350446)
(0 -0 -0.00199835)
(0 -0 -0.000977178)
(0 -0 -0.000311748)
(0 -0 0.00010001)
(0 6.31792e-20 -0.302979)
(0 -0 -0.267617)
(0 -0 -0.233684)
(0 -0 -0.200963)
(0 -0 -0.170146)
(0 -0 -0.141879)
(0 -0 -0.116565)
(0 -0 -0.0943706)
(0 -0 -0.0752818)
(0 -0 -0.0591581)
(0 -0 -0.0457729)
(0 -0 -0.0348477)
(0 -0 -0.0260784)
(0 -0 -0.0191569)
(0 -0 -0.0137866)
(0 -0 -0.00969286)
(0 -0 -0.00663025)
(0 -0 -0.00438481)
(0 -0 -0.00277459)
(0 -0 -0.00164825)
(0 -0 -0.00088272)
(0 -0 -0.000380376)
(0 -0 -6.51476e-05)
(0 4.07026e-22 -0.240639)
(0 -0 -0.211802)
(0 -0 -0.184123)
(0 -0 -0.157437)
(0 -0 -0.132452)
(0 -0 -0.109712)
(0 -0 -0.0895206)
(0 -0 -0.0719713)
(0 -0 -0.0570088)
(0 -0 -0.0444795)
(0 -0 -0.0341694)
(0 -0 -0.025831)
(0 -0 -0.0192033)
(0 -0 -0.0140257)
(0 -0 -0.0100507)
(0 -0 -0.00705179)
(0 -0 -0.00482944)
(0 -0 -0.00321314)
(0 -0 -0.00206103)
(0 -0 -0.0012579)
(0 -0 -0.000712193)
(0 -0 -0.000352828)
(0 -0 -0.000125281)
(0 -3.57949e-22 -0.182127)
(0 -0 -0.159786)
(0 -0 -0.138419)
(0 -0 -0.117815)
(0 -0 -0.0986083)
(0 -0 -0.0812321)
(0 -0 -0.0659043)
(0 -0 -0.0526707)
(0 -0 -0.0414608)
(0 -0 -0.032134)
(0 -0 -0.0245106)
(0 -0 -0.0183911)
(0 -0 -0.0135688)
(0 -0 -0.00983868)
(0 -0 -0.00700598)
(0 -0 -0.00489317)
(0 -0 -0.00334493)
(0 -0 -0.00223031)
(0 -0 -0.00144242)
(0 -0 -0.000896389)
(0 -0 -0.00052641)
(0 -0 -0.000282602)
(0 -0 -0.000127417)
(0 3.87398e-20 -0.131723)
(0 -0 -0.115212)
(0 -0 -0.0995388)
(0 -0 -0.0844164)
(0 -0 -0.0703641)
(0 -0 -0.0577098)
(0 -0 -0.0466029)
(0 -0 -0.0370595)
(0 -0 -0.0290111)
(0 -0 -0.022343)
(0 -0 -0.0169181)
(0 -0 -0.0125889)
(0 -0 -0.00920353)
(0 -0 -0.00661057)
(0 -0 -0.00466474)
(0 -0 -0.00323274)
(0 -0 -0.00219798)
(0 -0 -0.00146301)
(0 -0 -0.000949601)
(0 -0 -0.000597043)
(0 -0 -0.000359543)
(0 -0 -0.000203403)
(0 -0 -0.000103835)
(0 -3.83045e-20 -0.0912611)
(0 -0 -0.0795698)
(0 -0 -0.068609)
(0 -0 -0.0580261)
(0 -0 -0.0482147)
(0 -0 -0.0394107)
(0 -0 -0.0317113)
(0 -0 -0.0251153)
(0 -0 -0.0195643)
(0 -0 -0.0149735)
(0 -0 -0.0112473)
(0 -0 -0.00828607)
(0 -0 -0.00598644)
(0 -0 -0.00424335)
(0 -0 -0.00295349)
(0 -0 -0.00202033)
(0 -0 -0.00135878)
(0 -0 -0.000897975)
(0 -0 -0.000581887)
(0 -0 -0.000368092)
(0 -0 -0.000225636)
(0 -0 -0.000132623)
(0 -0 -7.34552e-05)
(0 -2.93966e-20 -0.060716)
(0 -0 -0.0527375)
(0 -0 -0.0454067)
(0 -0 -0.0383265)
(0 -0 -0.0317762)
(0 -0 -0.0259156)
(0 -0 -0.0208024)
(0 -0 -0.0164258)
(0 -0 -0.0127397)
(0 -0 -0.0096866)
(0 -0 -0.00720685)
(0 -0 -0.00524001)
(0 -0 -0.00372223)
(0 -0 -0.00258534)
(0 -0 -0.00175905)
(0 -0 -0.00117542)
(0 -0 -0.000773425)
(0 -0 -0.000502165)
(0 -0 -0.000321907)
(0 -0 -0.00020341)
(0 -0 -0.00012622)
(0 -0 -7.66689e-05)
(0 -0 -4.54999e-05)
(0 2.92754e-20 -0.0388903)
(0 -0 -0.0336021)
(0 -0 -0.0288971)
(0 -0 -0.0243585)
(0 -0 -0.020172)
(0 -0 -0.0164377)
(0 -0 -0.0131835)
(0 -0 -0.0103926)
(0 -0 -0.00803038)
(0 -0 -0.00606117)
(0 -0 -0.00445339)
(0 -0 -0.00317669)
(0 -0 -0.00219693)
(0 -0 -0.00147354)
(0 -0 -0.000960757)
(0 -0 -0.000611619)
(0 -0 -0.000382575)
(0 -0 -0.000236938)
(0 -0 -0.000146386)
(0 -0 -9.07233e-05)
(0 -0 -5.65871e-05)
(0 -0 -3.57884e-05)
(0 -0 -2.32558e-05)
(0 -0 -0.024051)
(0 -0 -0.0206111)
(0 -0 -0.0177024)
(0 -0 -0.0149107)
(0 -0 -0.0123505)
(0 -0 -0.0100766)
(0 -0 -0.00809501)
(0 -0 -0.00638479)
(0 -0 -0.00491985)
(0 -0 -0.00368085)
(0 -0 -0.00265652)
(0 -0 -0.00183812)
(0 -0 -0.00121269)
(0 -0 -0.000759267)
(0 -0 -0.000449408)
(0 -0 -0.000250863)
(0 -0 -0.000132174)
(0 -0 -6.63292e-05)
(0 -0 -3.26214e-05)
(0 -0 -1.67725e-05)
(0 -0 -9.9749e-06)
(0 -0 -7.51286e-06)
(0 -0 -6.95157e-06)
(0 -2.0002e-20 -0.0144032)
(0 -0 -0.0121775)
(0 -0 -0.0104389)
(0 -0 -0.00879207)
(0 -0 -0.00730043)
(0 -0 -0.00598592)
(0 -0 -0.00483832)
(0 -0 -0.0038336)
(0 -0 -0.00295153)
(0 -0 -0.00218407)
(0 -0 -0.00153391)
(0 -0 -0.00100708)
(0 -0 -0.000605047)
(0 -0 -0.000320196)
(0 -0 -0.000135842)
(0 -0 -2.96518e-05)
(0 -0 2.17973e-05)
(0 -0 3.92024e-05)
(0 -0 3.84226e-05)
(0 -0 3.00575e-05)
(0 -0 2.01413e-05)
(0 -0 1.13096e-05)
(0 -0 4.42326e-06)
(0 1.99199e-20 -0.00837332)
(0 -0 -0.00691848)
(0 -0 -0.0059109)
(0 -0 -0.00498465)
(0 -0 -0.00416819)
(0 -0 -0.00346014)
(0 -0 -0.00283857)
(0 -0 -0.002277)
(0 -0 -0.00175904)
(0 -0 -0.00128414)
(0 -0 -0.000864219)
(0 -0 -0.000515052)
(0 -0 -0.00024763)
(0 -0 -6.31238e-05)
(0 -0 4.74156e-05)
(0 -0 9.9853e-05)
(0 -0 0.000112448)
(0 -0 0.000101942)
(0 -0 8.12507e-05)
(0 -0 5.88119e-05)
(0 -0 3.90798e-05)
(0 -0 2.35299e-05)
(0 -0 1.21461e-05)
(0 1.58594e-20 -0.00472757)
(0 -0 -0.00375212)
(0 -0 -0.00318667)
(0 -0 -0.00270011)
(0 -0 -0.00229736)
(0 -0 -0.00196094)
(0 -0 -0.00166065)
(0 -0 -0.00136818)
(0 -0 -0.00106964)
(0 -0 -0.000769384)
(0 -0 -0.00048535)
(0 -0 -0.000239621)
(0 -0 -4.93269e-05)
(0 -0 7.86872e-05)
(0 -0 0.000148397)
(0 -0 0.000171548)
(0 -0 0.000163178)
(0 -0 0.000137645)
(0 -0 0.000106164)
(0 -0 7.59912e-05)
(0 -0 5.07583e-05)
(0 -0 3.13598e-05)
(0 -0 1.73381e-05)
(0 -1.57941e-20 -0.00257773)
(0 -0 -0.00189974)
(0 -0 -0.00159663)
(0 -0 -0.00137334)
(0 -0 -0.00121918)
(0 -0 -0.00110564)
(0 -0 -0.000996831)
(0 -0 -0.000863196)
(0 -0 -0.000692571)
(0 -0 -0.000492644)
(0 -0 -0.000285298)
(0 -0 -9.67034e-05)
(0 -0 5.20672e-05)
(0 -0 0.000150545)
(0 -0 0.000199546)
(0 -0 0.000208235)
(0 -0 0.000189688)
(0 -0 0.000156872)
(0 -0 0.000120082)
(0 -0 8.59919e-05)
(0 -0 5.78659e-05)
(0 -0 3.63632e-05)
(0 -0 2.08436e-05)
(0 -0 -0.00132763)
(0 -0 -0.000838033)
(0 -0 -0.000690511)
(0 -0 -0.000624592)
(0 -0 -0.000619133)
(0 -0 -0.000638107)
(0 -0 -0.00064173)
(0 -0 -0.000599782)
(0 -0 -0.000501462)
(0 -0 -0.000356839)
(0 -0 -0.000190509)
(0 -0 -3.13502e-05)
(0 -0 9.70098e-05)
(0 -0 0.000181782)
(0 -0 0.000221782)
(0 -0 0.00022457)
(0 -0 0.000202042)
(0 -0 0.000166388)
(0 -0 0.000127445)
(0 -0 9.16482e-05)
(0 -0 6.21537e-05)
(0 -0 3.95783e-05)
(0 -0 2.32446e-05)
(0 -0 -0.000600166)
(0 -0 -0.000235305)
(0 -0 -0.00018233)
(0 -0 -0.00021243)
(0 -0 -0.000297268)
(0 -0 -0.000395594)
(0 -0 -0.000465061)
(0 -0 -0.000475228)
(0 -0 -0.000416524)
(0 -0 -0.000300878)
(0 -0 -0.000154868)
(0 -0 -9.24449e-06)
(0 -0 0.000110668)
(0 -0 0.000190578)
(0 -0 0.00022803)
(0 -0 0.000229584)
(0 -0 0.000206438)
(0 -0 0.000170361)
(0 -0 0.000130994)
(0 -0 9.47174e-05)
(0 -0 6.47168e-05)
(0 -0 4.16646e-05)
(0 -0 2.49211e-05)
(0 -8.34906e-23 -0.000168679)
(0 -0 0.000108329)
(0 -0 0.000100779)
(0 -0 9.40377e-06)
(0 -0 -0.0001323)
(0 -0 -0.000279379)
(0 -0 -0.000387826)
(0 -0 -0.000427341)
(0 -0 -0.000389547)
(0 -0 -0.00028795)
(0 -0 -0.000150679)
(0 -0 -9.8495e-06)
(0 -0 0.000108052)
(0 -0 0.000187745)
(0 -0 0.000225959)
(0 -0 0.000228633)
(0 -0 0.000206552)
(0 -0 0.000171269)
(0 -0 0.000132363)
(0 -0 9.62556e-05)
(0 -0 6.62203e-05)
(0 -0 4.30292e-05)
(0 -0 2.61137e-05)
(0 -4.688e-21 9.73199e-05)
(0 -0 0.000308227)
(0 -0 0.000258983)
(0 -0 0.000125906)
(0 -0 -5.36187e-05)
(0 -0 -0.000231942)
(0 -0 -0.000364018)
(0 -0 -0.000419949)
(0 -0 -0.000392557)
(0 -0 -0.000296763)
(0 -0 -0.000161982)
(0 -0 -2.13749e-05)
(0 -0 9.77491e-05)
(0 -0 0.000179453)
(0 -0 0.000219943)
(0 -0 0.000224775)
(0 -0 0.00020449)
(0 -0 0.000170538)
(0 -0 0.000132503)
(0 -0 9.68836e-05)
(0 -0 6.7061e-05)
(0 -0 4.39196e-05)
(0 -0 2.69728e-05)
(0 8.9097e-21 0.000270385)
(0 -0 0.000428649)
(0 -0 0.000348333)
(0 -0 0.000184796)
(0 -0 -2.15118e-05)
(0 -0 -0.000220921)
(0 -0 -0.000367778)
(0 -0 -0.000432771)
(0 -0 -0.000409928)
(0 -0 -0.000315478)
(0 -0 -0.00017995)
(0 -0 -3.73357e-05)
(0 -0 8.44623e-05)
(0 -0 0.000169072)
(0 -0 0.000212375)
(0 -0 0.000219689)
(0 -0 0.00020142)
(0 -0 0.000168969)
(0 -0 0.000131955)
(0 -0 9.69605e-05)
(0 -0 6.74731e-05)
(0 -0 4.44859e-05)
(0 -0 2.75929e-05)
(0 -4.22353e-21 0.000389893)
(0 -0 0.000504466)
(0 -0 0.000399389)
(0 -0 0.000212163)
(0 -0 -1.42474e-05)
(0 -0 -0.000228628)
(0 -0 -0.000385017)
(0 -0 -0.000454814)
(0 -0 -0.000433249)
(0 -0 -0.000337779)
(0 -0 -0.000199918)
(0 -0 -5.43347e-05)
(0 -0 7.06388e-05)
(0 -0 0.000158354)
(0 -0 0.000204498)
(0 -0 0.000214258)
(0 -0 0.000197961)
(0 -0 0.000166996)
(0 -0 0.000131019)
(0 -0 9.66912e-05)
(0 -0 6.75945e-05)
(0 -0 4.48194e-05)
(0 -0 2.80334e-05)
(0 -0 0.000476986)
(0 -0 0.000554332)
(0 -0 0.000428562)
(0 -0 0.000222042)
(0 -0 -2.01545e-05)
(0 -0 -0.000245609)
(0 -0 -0.000408264)
(0 -0 -0.000480312)
(0 -0 -0.00045817)
(0 -0 -0.000360453)
(0 -0 -0.000219556)
(0 -0 -7.07048e-05)
(0 -0 5.74634e-05)
(0 -0 0.000148139)
(0 -0 0.000196916)
(0 -0 0.000208914)
(0 -0 0.000194429)
(0 -0 0.000164846)
(0 -0 0.000129858)
(0 -0 9.61903e-05)
(0 -0 6.75039e-05)
(0 -0 4.49736e-05)
(0 -0 2.83307e-05)
(0 -5.04416e-23 0.000543102)
(0 -0 0.000588236)
(0 -0 0.000444661)
(0 -0 0.00022195)
(0 -0 -3.30203e-05)
(0 -0 -0.000266884)
(0 -0 -0.000433648)
(0 -0 -0.000506342)
(0 -0 -0.00048255)
(0 -0 -0.000381973)
(0 -0 -0.000237801)
(0 -0 -8.57148e-05)
(0 -0 4.54384e-05)
(0 -0 0.000138779)
(0 -0 0.000189879)
(0 -0 0.000203847)
(0 -0 0.000190965)
(0 -0 0.000162627)
(0 -0 0.000128553)
(0 -0 9.55162e-05)
(0 -0 6.72423e-05)
(0 -0 4.49768e-05)
(0 -0 2.85051e-05)
(0 -0 0.000594617)
(0 -0 0.000611639)
(0 -0 0.000452491)
(0 -0 0.000215957)
(0 -0 -4.95281e-05)
(0 -0 -0.000289856)
(0 -0 -0.000459212)
(0 -0 -0.000531494)
(0 -0 -0.000505415)
(0 -0 -0.0004017)
(0 -0 -0.000254249)
(0 -0 -9.91205e-05)
(0 -0 3.47122e-05)
(0 -0 0.00013037)
(0 -0 0.00018346)
(0 -0 0.000199111)
(0 -0 0.000187619)
(0 -0 0.000160381)
(0 -0 0.000127137)
(0 -0 9.46932e-05)
(0 -0 6.68262e-05)
(0 -0 4.48423e-05)
(0 -0 2.85719e-05)
(0 2.58079e-21 0.000635356)
(0 -0 0.000627699)
(0 -0 0.000454802)
(0 -0 0.000206353)
(0 -0 -6.7859e-05)
(0 -0 -0.000313154)
(0 -0 -0.000483981)
(0 -0 -0.000555119)
(0 -0 -0.000526371)
(0 -0 -0.000419423)
(0 -0 -0.000268813)
(0 -0 -0.000110903)
(0 -0 2.52744e-05)
(0 -0 0.000122897)
(0 -0 0.000177649)
(0 -0 0.000194714)
(0 -0 0.000184404)
(0 -0 0.000158126)
(0 -0 0.000125627)
(0 -0 9.37362e-05)
(0 -0 6.62684e-05)
(0 -0 4.45875e-05)
(0 -0 2.85752e-05)
(0 -4.90315e-21 0.000667818)
(0 -0 0.000638659)
(0 -0 0.000453403)
(0 -0 0.000194615)
(0 -0 -8.68695e-05)
(0 -0 -0.000335939)
(0 -0 -0.000507381)
(0 -0 -0.000576855)
(0 -0 -0.000545216)
(0 -0 -0.000435046)
(0 -0 -0.000281457)
(0 -0 -0.000121051)
(0 -0 1.71367e-05)
(0 -0 0.000116386)
(0 -0 0.000172494)
(0 -0 0.000190717)
(0 -0 0.000181397)
(0 -0 0.000155945)
(0 -0 0.000124107)
(0 -0 9.27237e-05)
(0 -0 6.56434e-05)
(0 -0 4.42779e-05)
(0 -0 2.84976e-05)
(0 2.32338e-21 0.000693828)
(0 -0 0.000645485)
(0 -0 0.000449862)
(0 -0 0.000181859)
(0 -0 -0.000105701)
(0 -0 -0.000357582)
(0 -0 -0.000528972)
(0 -0 -0.00059641)
(0 -0 -0.00056176)
(0 -0 -0.000448445)
(0 -0 -0.000292089)
(0 -0 -0.000129477)
(0 -0 1.03965e-05)
(0 -0 0.000110955)
(0 -0 0.000168132)
(0 -0 0.000187276)
(0 -0 0.000178763)
(0 -0 0.000154005)
(0 -0 0.000122741)
(0 -0 9.18129e-05)
(0 -0 6.50875e-05)
(0 -0 4.40187e-05)
(0 -0 2.84524e-05)
(0 -0 0.000713986)
(0 -0 0.00064912)
(0 -0 0.000443909)
(0 -0 0.000168664)
(0 -0 -0.000123988)
(0 -0 -0.000377871)
(0 -0 -0.00054867)
(0 -0 -0.000613798)
(0 -0 -0.000576087)
(0 -0 -0.000459743)
(0 -0 -0.000300846)
(0 -0 -0.000136315)
(0 -0 4.93951e-06)
(0 -0 0.000106512)
(0 -0 0.000164499)
(0 -0 0.000184346)
(0 -0 0.000176473)
(0 -0 0.000152289)
(0 -0 0.000121518)
(0 -0 9.09898e-05)
(0 -0 6.45833e-05)
(0 -0 4.37662e-05)
(0 -0 2.83982e-05)
(0 -0 0.000649858)
(0 -0 0.000436201)
(0 -0 0.000154563)
(0 -0 -0.000141918)
(0 -0 -0.000397035)
(0 -0 -0.000566772)
(0 -0 -0.000629368)
(0 -0 -0.000588579)
(0 -0 -0.000469336)
(0 -0 -0.000308123)
(0 -0 -0.000141946)
(0 -0 4.04268e-07)
(0 -0 0.000102722)