/*--------------------------------*- C++ -*----------------------------------*\
| =========                 |                                                 |
| \\      /  F ield         | OpenFOAM: The Open Source CFD Toolbox           |
|  \\    /   O peration     | Version:  2412                                  |
|   \\  /    A nd           | Website:  www.openfoam.com                      |
|    \\/     M anipulation  |                                                 |
\*---------------------------------------------------------------------------*/
FoamFile
{
    version     2.0;
    format      ascii;
    arch        "LSB;label=32;scalar=64";
    class       volVectorField;
    location    "12.5";
    object      vorticity;
}
// * * * * * * * * * * * * * * * * * * * * * * * * * * * * * * * * * * * * * //

dimensions      [0 0 -1 0 0 0 0];

internalField   nonuniform List<vector> 
5285
(
(4.41087e-22 3.92436e-21 -0.00707364)
(-2.78761e-22 3.88704e-24 -0.00620902)
(3.20078e-22 4.52104e-21 -0.00541487)
(-6.02496e-23 2.07375e-24 -0.00469238)
(-5.05785e-25 1.1062e-27 -0.00404137)
(-1.23739e-23 1.43594e-24 -0.0034601)
(1.95917e-22 5.38808e-21 -0.00294564)
(2.88475e-24 -3.42836e-24 -0.00249416)
(-1.70297e-22 -5.74581e-21 -0.00210125)
(1.61676e-22 5.91053e-21 -0.00176205)
(-2.08363e-22 -6.04473e-21 -0.00147149)
(7.53688e-22 5.62389e-20 -0.00122445)
(-6.73978e-22 -5.65286e-20 -0.00101586)
(-2.94048e-22 -4.55321e-20 -0.000840878)
(6.85637e-22 9.85144e-20 -0.000694919)
(-3.79162e-22 -5.30824e-20 -0.000573756)
(-6.30157e-23 -6.76759e-21 -0.000473553)
(5.86066e-23 6.88052e-21 -0.000390889)
(-1.71432e-23 -2.67044e-25 -0.00032276)
(9.24107e-23 7.04542e-21 -0.000266576)
(-1.82505e-22 -3.57477e-20 -0.000220132)
(1.72908e-22 3.5891e-20 -0.000181579)
(-4.75814e-23 -7.2762e-21 -0.000149389)
(1.00061e-22 2.20618e-20 -0.000122309)
(1.8971e-24 -7.35392e-21 -9.93207e-05)
(-6.48277e-23 -1.49436e-20 -7.95854e-05)
(1.98836e-23 7.49855e-21 -6.23962e-05)
(-3.89352e-23 -7.5757e-21 -4.71559e-05)
(2.4386e-20 2.5599e-19 -0.0207452)
(-2.69056e-20 -2.77009e-19 -0.0181988)
(2.31717e-20 2.94569e-19 -0.015862)
(-1.24541e-20 -1.42856e-19 -0.0137388)
(-2.13121e-20 -3.21022e-19 -0.0118274)
(1.03535e-20 1.64053e-19 -0.0101221)
(-2.25208e-22 -5.42252e-21 -0.00861386)
(-6.31546e-22 -1.12582e-20 -0.00729108)
(7.74492e-23 5.76211e-21 -0.00614051)
(-7.72334e-22 -1.77763e-20 -0.0051477)
(6.0163e-21 1.90556e-19 -0.00429762)
(-1.24798e-20 -4.04524e-19 -0.0035751)
(5.53996e-21 1.95235e-19 -0.00296524)
(-6.22299e-22 -1.95137e-20 -0.00245376)
(1.82785e-22 6.59004e-21 -0.0020272)
(-1.35791e-23 -2.8224e-23 -0.00167316)
(-2.25675e-21 -1.16131e-19 -0.00138041)
(1.91925e-21 1.02702e-19 -0.00113892)
(1.36948e-21 9.80941e-20 -0.000939914)
(-2.0035e-21 -1.33492e-19 -0.000775799)
(5.5375e-23 7.1541e-21 -0.000640133)
(3.87074e-22 3.62056e-20 -0.000527517)
(-8.45129e-22 -6.52165e-20 -0.000433483)
(-3.12842e-23 -7.32663e-21 -0.000354375)
(-5.11407e-22 -5.18469e-20 -0.000287212)
(-1.09573e-22 -7.62563e-21 -0.000229536)
(1.33033e-22 1.48926e-20 -0.000179231)
(1.55126e-22 2.26359e-20 -0.000134403)
(-4.23257e-20 -2.69982e-19 -0.033074)
(4.48144e-20 2.86162e-19 -0.0289807)
(1.34363e-21 9.87261e-21 -0.0252323)
(-1.31768e-21 -9.94849e-21 -0.0218325)
(1.20036e-21 1.03257e-20 -0.0187773)
(-3.05325e-20 -3.36099e-19 -0.0160556)
(3.19306e-20 3.47277e-19 -0.0136517)
(-2.56917e-20 -3.46471e-19 -0.0115459)
(2.74897e-20 3.69878e-19 -0.00971639)
(6.07081e-22 1.20071e-20 -0.00813928)
(2.15228e-20 3.97364e-19 -0.00679011)
(-4.09942e-20 -7.91463e-19 -0.00564433)
(2.03477e-20 4.19485e-19 -0.00467793)
(9.11685e-21 2.23138e-19 -0.00386796)
(-8.055e-21 -1.97335e-19 -0.00319289)
(1.70402e-22 5.25769e-23 -0.0026329)
(-2.77859e-22 -4.20986e-23 -0.00217006)
(-1.48912e-23 3.68545e-23 -0.00178841)
(5.52414e-21 2.2464e-19 -0.00147399)
(-5.37212e-21 -2.10918e-19 -0.00121475)
(3.9555e-22 1.43215e-20 -0.00100049)
(-1.56633e-22 -1.59358e-23 -0.000822627)
(1.97041e-21 1.16586e-19 -0.000674111)
(-3.68337e-21 -2.19663e-19 -0.000549156)
(1.82308e-21 1.17692e-19 -0.000443042)
(-9.15394e-22 -5.96385e-20 -0.000351845)
(6.85029e-22 4.46658e-20 -0.000272081)
(1.6507e-22 1.49729e-20 -0.00020026)
(3.22632e-22 -1.11057e-23 -0.0434265)
(9.18311e-22 9.50745e-21 -0.0379835)
(1.23882e-21 2.86391e-22 -0.0330154)
(1.39624e-21 1.0204e-20 -0.0285219)
(-9.63413e-20 -7.00271e-19 -0.0244934)
(9.54431e-20 6.90069e-19 -0.020913)
(-2.75086e-23 6.34806e-23 -0.0177571)
(-3.79555e-20 -3.77103e-19 -0.0149978)
(3.96398e-20 3.89581e-19 -0.0126046)
(6.34457e-23 -5.58687e-23 -0.0105448)
(-1.84038e-22 -2.16374e-22 -0.00878524)
(-2.88022e-20 -4.23721e-19 -0.00729295)
(5.44047e-20 8.42582e-19 -0.00603587)
(-4.90091e-20 -8.43199e-19 -0.00498347)
(4.53458e-20 8.55823e-19 -0.00410728)
(-4.15855e-20 -8.67475e-19 -0.00338115)
(1.978e-20 4.36744e-19 -0.00278152)
(8.38069e-21 2.23093e-19 -0.00228746)
(-7.38499e-21 -1.95292e-19 -0.00188069)
(-5.65561e-22 -1.41777e-20 -0.00154549)
(-6.51945e-21 -2.29411e-19 -0.00126855)
(1.35795e-20 4.89741e-19 -0.00103875)
(-6.23598e-21 -2.31503e-19 -0.000846891)
(8.1705e-23 4.8307e-23 -0.000685488)
(2.73972e-22 1.47048e-20 -0.000548409)
(-7.91504e-23 -2.36579e-23 -0.000430506)
(-2.37252e-22 -1.48822e-20 -0.000326984)
(5.16675e-22 2.99462e-20 -0.000232334)
(-1.46886e-19 -6.54928e-19 -0.0449188)
(1.43118e-19 6.33135e-19 -0.0389537)
(-8.41898e-22 7.80393e-22 -0.0335765)
(7.34136e-22 -1.96672e-24 -0.0287719)
(-1.77659e-21 -1.1198e-20 -0.0245142)
(-1.05103e-19 -7.57218e-19 -0.0207716)
(1.03696e-19 7.44751e-19 -0.0175079)
(-1.32481e-21 -1.21711e-20 -0.0146838)
(-4.01925e-20 -3.91492e-19 -0.0122586)
(4.27419e-20 4.1661e-19 -0.0101913)
(-1.91802e-22 -5.2614e-23 -0.00844147)
(4.37057e-22 1.07368e-22 -0.00697013)
(-1.42341e-22 -6.89827e-23 -0.00574054)
(-2.70631e-20 -4.35309e-19 -0.00471851)
(2.8089e-20 4.48927e-19 -0.00387285)
(-2.23825e-20 -4.31068e-19 -0.00317552)
(2.32478e-20 4.44631e-19 -0.00260174)
(-1.34426e-21 -2.82429e-20 -0.00212993)
(4.95618e-22 1.41845e-20 -0.00174156)
(1.3437e-22 4.13877e-23 -0.00142102)
(-4.26836e-22 -1.43881e-20 -0.00115526)
(4.08505e-22 1.4477e-20 -0.000933555)
(-3.73572e-21 -1.31559e-19 -0.000747169)
(6.4535e-21 2.34524e-19 -0.000588951)
(-4.62947e-21 -1.76631e-19 -0.000452819)
(1.44473e-21 5.90415e-20 -0.000332781)
(6.8368e-23 2.17272e-23 -0.000220839)
(1.76237e-19 6.85802e-19 -0.049779)
(-1.7862e-19 -6.81742e-19 -0.0430387)
(-1.56846e-19 -7.30553e-19 -0.0369887)
(1.54704e-19 7.15171e-19 -0.0316025)
(-7.0823e-22 5.80414e-22 -0.0268472)
(6.09346e-22 -1.09624e-22 -0.0226818)
(1.18118e-19 8.00921e-19 -0.0190612)
(-8.72776e-21 1.65683e-20 -0.0159381)
(-1.12337e-19 -8.39796e-19 -0.0132641)
(-9.45136e-20 -8.54899e-19 -0.010991)
(1.76707e-19 1.68016e-18 -0.00907229)
(-4.71727e-20 -4.33162e-19 -0.00746317)
(-4.0453e-20 -4.44708e-19 -0.00612183)
(-3.53915e-20 -4.68444e-19 -0.00500964)
(6.26783e-20 8.71591e-19 -0.00409157)
(-5.93728e-20 -9.07165e-19 -0.00333627)
(1.31037e-21 -1.81935e-20 -0.00271616)
(2.55782e-20 4.51203e-19 -0.00220734)
(2.18572e-20 4.57807e-19 -0.00178938)
(-3.31979e-20 -7.15852e-19 -0.00144508)
(1.87122e-20 4.4664e-19 -0.00116016)
(-9.90579e-21 -2.45367e-19 -0.000922919)
(8.55561e-21 2.478e-19 -0.000723819)
(-8.49442e-21 -2.47396e-19 -0.000555089)
(4.0597e-22 1.46305e-20 -0.000410052)
(-2.05997e-21 -7.35665e-20 -0.000281719)
(8.32359e-22 2.93067e-20 -0.000159088)
(-2.20101e-19 -7.1177e-19 -0.0508567)
(1.82078e-21 -1.6427e-21 -0.0438392)
(6.47645e-22 -1.17136e-23 -0.0375641)
(1.81446e-21 1.24709e-20 -0.0319968)
(-1.61465e-19 -8.03226e-19 -0.0270973)
(1.61191e-19 7.99272e-19 -0.0228197)
(-2.75575e-22 4.76407e-22 -0.0191135)
(6.77797e-23 -1.44515e-24 -0.0159263)
(1.82515e-21 1.32072e-20 -0.0132056)
(-1.07168e-19 -8.50783e-19 -0.0108998)
(2.10026e-19 1.74745e-18 -0.00895891)
(-9.96733e-20 -8.69879e-19 -0.00733582)
(1.24474e-21 1.37253e-20 -0.00598654)
(1.12133e-21 1.38838e-20 -0.00487077)
(3.55666e-20 4.5072e-19 -0.0039521)
(-6.70096e-20 -8.88466e-19 -0.00319817)
(3.33528e-20 4.65937e-19 -0.0025806)
(-2.66352e-20 -4.43617e-19 -0.00207493)
(2.11429e-21 -3.42728e-21 -0.00166033)
(2.54823e-21 1.1137e-20 -0.00131934)
(2.3939e-20 4.7395e-19 -0.00103753)
(1.05554e-20 2.46271e-19 -0.000803091)
(-1.04789e-20 -2.45506e-19 -0.000606486)
(5.09607e-22 1.44932e-20 -0.00043995)
(3.97656e-21 1.1654e-19 -0.000296815)
(-3.51721e-21 -1.01595e-19 -0.000169756)
(4.14202e-22 1.45501e-20 -4.32961e-05)
(0 2.00132e-25 -2.4414e-05)
(0 -0 -1.50563e-05)
(0 -0 -7.08486e-06)
(0 -0 -2.7533e-07)
(0 -0 5.59209e-06)
(0 -0 1.07403e-05)
(0 -0 1.53967e-05)
(0 -0 1.97929e-05)
(0 -0 2.4161e-05)
(0 -0 2.87253e-05)
(0 -0 3.36849e-05)
(0 -0 3.91869e-05)
(0 -0 4.52906e-05)
(0 -0 5.19279e-05)
(0 -0 5.88696e-05)
(0 -0 6.57109e-05)
(0 -0 7.18897e-05)
(0 -0 7.67457e-05)
(0 -0 7.96211e-05)
(0 -0 7.99844e-05)
(0 -0 7.75519e-05)
(0 -0 7.23715e-05)
(0 -0 6.48403e-05)
(0 -0 5.56466e-05)
(0 -0 4.56475e-05)
(0 -0 3.5714e-05)
(0 -0 2.6587e-05)
(0 -0 1.87774e-05)
(0 -0 1.25308e-05)
(0 -0 7.8517e-06)
(0 -0 4.56934e-06)
(0 -0 2.41747e-06)
(0 -0 1.10635e-06)
(0 -0 3.73188e-07)
(0 -0 7.99571e-09)
(0 -0 -1.40617e-07)
(0 -0 -1.7251e-07)
(0 -0 -1.48258e-07)
(0 -0 -1.01755e-07)
(0 -0 -5.04179e-08)
(0 -0 -2.15722e-09)
(0 -0 4.0025e-08)
(0 -0 7.56686e-08)
(0 -0 1.04861e-07)
(0 -6.80003e-25 -6.86618e-05)
(0 -0 -4.16935e-05)
(0 -0 -1.87911e-05)
(0 -0 7.20615e-07)
(0 -0 1.75065e-05)
(0 -0 3.22354e-05)
(0 -0 4.55829e-05)
(0 -0 5.823e-05)
(0 -0 7.0856e-05)
(0 -0 8.41146e-05)
(0 -0 9.8585e-05)
(0 -0 0.000114694)
(0 -0 0.000132609)
(0 -0 0.000152125)
(0 -0 0.000172563)
(0 -0 0.000192727)
(0 -0 0.000210957)
(0 -0 0.000225303)
(0 -0 0.000233824)
(0 -0 0.000234949)
(0 -0 0.000227838)
(0 -0 0.000212628)
(0 -0 0.000190486)
(0 -0 0.000163439)
(0 -0 0.000134011)
(0 -0 0.000104771)
(0 -0 7.79035e-05)
(0 -0 5.49154e-05)
(0 -0 3.6532e-05)
(0 -0 2.2768e-05)
(0 -0 1.31203e-05)
(0 -0 6.80418e-06)
(0 -0 2.96532e-06)
(0 -0 8.28946e-07)
(0 -0 -2.24069e-07)
(0 -0 -6.40236e-07)
(0 -0 -7.13901e-07)
(0 -0 -6.23503e-07)
(0 -0 -4.68663e-07)
(0 -0 -3.00334e-07)
(0 -0 -1.41795e-07)
(0 -0 -1.92878e-09)
(0 -0 1.17423e-07)
(0 -0 2.15746e-07)
(0 -5.48393e-25 -9.87191e-05)
(0 -0 -5.73808e-05)
(0 -0 -2.25082e-05)
(0 -0 7.04906e-06)
(0 -0 3.24141e-05)
(0 -0 5.46898e-05)
(0 -0 7.49655e-05)
(0 -0 9.4324e-05)
(0 -0 0.000113837)
(0 -0 0.000134534)
(0 -0 0.000157324)
(0 -0 0.000182875)
(0 -0 0.000211444)
(0 -0 0.000242689)
(0 -0 0.00027551)
(0 -0 0.000307974)
(0 -0 0.000337403)
(0 -0 0.000360649)
(0 -0 0.000374573)
(0 -0 0.00037663)
(0 -0 0.000365447)
(0 -0 0.000341226)
(0 -0 0.000305826)
(0 -0 0.000262497)
(0 -0 0.000215296)
(0 -0 0.000168355)
(0 -0 0.000125194)
(0 -0 8.82474e-05)
(0 -0 5.86915e-05)
(0 -0 3.65578e-05)
(0 -0 2.10427e-05)
(0 -0 1.08872e-05)
(0 -0 4.71864e-06)
(0 -0 1.29051e-06)
(0 -0 -3.93662e-07)
(0 -0 -1.05289e-06)
(0 -0 -1.16125e-06)
(0 -0 -1.00621e-06)
(0 -0 -7.48203e-07)
(0 -0 -4.69186e-07)
(0 -0 -2.066e-07)
(0 -0 2.52708e-08)
(0 -0 2.23325e-07)
(0 -0 3.86396e-07)
(0 -3.39918e-25 -0.000106382)
(0 -0 -5.60073e-05)
(0 -0 -1.40047e-05)
(0 -0 2.1336e-05)
(0 -0 5.16044e-05)
(0 -0 7.82864e-05)
(0 -0 0.000102803)
(0 -0 0.000126542)
(0 -0 0.000150871)
(0 -0 0.000177102)
(0 -0 0.000206398)
(0 -0 0.000239607)
(0 -0 0.000277043)
(0 -0 0.000318233)
(0 -0 0.000361699)
(0 -0 0.000404862)
(0 -0 0.000444148)
(0 -0 0.000475357)
(0 -0 0.000494288)
(0 -0 0.000497527)
(0 -0 0.00048321)
(0 -0 0.00045156)
(0 -0 0.000405013)
(0 -0 0.000347859)
(0 -0 0.000285473)
(0 -0 0.000223345)
(0 -0 0.00016616)
(0 -0 0.00011717)
(0 -0 7.7955e-05)
(0 -0 4.85749e-05)
(0 -0 2.7975e-05)
(0 -0 1.44912e-05)
(0 -0 6.30425e-06)
(0 -0 1.75966e-06)
(0 -0 -4.66433e-07)
(0 -0 -1.33001e-06)
(0 -0 -1.4618e-06)
(0 -0 -1.24437e-06)
(0 -0 -8.91238e-07)
(0 -0 -5.11342e-07)
(0 -0 -1.54438e-07)
(0 -0 1.60488e-07)
(0 -0 4.29381e-07)
(0 -0 6.50729e-07)
(0 1.6585e-25 -8.5512e-05)
(0 -0 -3.35614e-05)
(0 -0 9.03749e-06)
(0 -0 4.46485e-05)
(0 -0 7.52349e-05)
(0 -0 0.000102505)
(0 -0 0.000128043)
(0 -0 0.000153388)
(0 -0 0.000180064)
(0 -0 0.000209544)
(0 -0 0.000243143)
(0 -0 0.000281817)
(0 -0 0.0003259)
(0 -0 0.000374793)
(0 -0 0.000426704)
(0 -0 0.000478522)
(0 -0 0.000525941)
(0 -0 0.000563893)
(0 -0 0.000587299)
(0 -0 0.000592006)
(0 -0 0.000575716)
(0 -0 0.000538627)
(0 -0 0.000483602)
(0 -0 0.000415739)
(0 -0 0.000341461)
(0 -0 0.000267347)
(0 -0 0.000199034)
(0 -0 0.000140444)
(0 -0 9.35056e-05)
(0 -0 5.83163e-05)
(0 -0 3.36336e-05)
(0 -0 1.74762e-05)
(0 -0 7.67001e-06)
(0 -0 2.23398e-06)
(0 -0 -4.19376e-07)
(0 -0 -1.43759e-06)
(0 -0 -1.57836e-06)
(0 -0 -1.30145e-06)
(0 -0 -8.63462e-07)
(0 -0 -3.95243e-07)
(0 -0 4.35136e-08)
(0 -0 4.30123e-07)
(0 -0 7.59917e-07)
(0 -0 1.03114e-06)
(0 2.29996e-26 -3.33882e-05)
(0 -0 1.0338e-05)
(0 -0 4.58574e-05)
(0 -0 7.57654e-05)
(0 -0 0.000101936)
(0 -0 0.000125954)
(0 -0 0.000149308)
(0 -0 0.000173488)
(0 -0 0.000200013)
(0 -0 0.000230388)
(0 -0 0.000265971)
(0 -0 0.000307755)
(0 -0 0.000356055)
(0 -0 0.000410164)
(0 -0 0.000468049)
(0 -0 0.000526204)
(0 -0 0.000579778)
(0 -0 0.000623052)
(0 -0 0.000650278)
(0 -0 0.000656724)
(0 -0 0.000639721)
(0 -0 0.0005994)
(0 -0 0.000538879)
(0 -0 0.000463809)
(0 -0 0.00038135)
(0 -0 0.00029887)
(0 -0 0.000222706)
(0 -0 0.00015729)
(0 -0 0.000104825)
(0 -0 6.54613e-05)
(0 -0 3.78365e-05)
(0 -0 1.97515e-05)
(0 -0 8.78122e-06)
(0 -0 2.71047e-06)
(0 -0 -2.39325e-07)
(0 -0 -1.35548e-06)
(0 -0 -1.48877e-06)
(0 -0 -1.15574e-06)
(0 -0 -6.44702e-07)
(0 -0 -1.02572e-07)
(0 -0 4.03755e-07)
(0 -0 8.49046e-07)
(0 -0 1.22839e-06)
(0 -0 1.54006e-06)
(0 2.53311e-25 4.59267e-05)
(0 -0 6.97563e-05)
(0 -0 9.12761e-05)
(0 -0 0.000110628)
(0 -0 0.000128669)
(0 -0 0.0001464)
(0 -0 0.000164984)
(0 -0 0.000185695)
(0 -0 0.000209915)
(0 -0 0.00023907)
(0 -0 0.000274476)
(0 -0 0.000317097)
(0 -0 0.000367207)
(0 -0 0.000424016)
(0 -0 0.000485335)
(0 -0 0.00054741)
(0 -0 0.000605046)
(0 -0 0.000652108)
(0 -0 0.000682399)
(0 -0 0.000690782)
(0 -0 0.000674299)
(0 -0 0.000632963)
(0 -0 0.000569987)
(0 -0 0.000491303)
(0 -0 0.000404491)
(0 -0 0.00031739)
(0 -0 0.000236775)
(0 -0 0.000167418)
(0 -0 0.000111716)
(0 -0 6.98832e-05)
(0 -0 4.05082e-05)
(0 -0 2.12758e-05)
(0 -0 9.61807e-06)
(0 -0 3.18148e-06)
(0 -0 7.21745e-08)
(0 -0 -1.08271e-06)
(0 -0 -1.19154e-06)
(0 -0 -8.06195e-07)
(0 -0 -2.3475e-07)
(0 -0 3.65944e-07)
(0 -0 9.24687e-07)
(0 -0 1.41489e-06)
(0 -0 1.83179e-06)
(0 -0 2.17391e-06)
(0 -0 0.000123325)
(0 -0 0.000130675)
(0 -0 0.000137254)
(0 -0 0.000144221)
(0 -0 0.000152168)
(0 -0 0.000161791)
(0 -0 0.000173878)
(0 -0 0.000189443)
(0 -0 0.00020967)
(0 -0 0.00023584)
(0 -0 0.000269169)
(0 -0 0.000310555)
(0 -0 0.000360223)
(0 -0 0.000417334)
(0 -0 0.000479634)
(0 -0 0.000543271)
(0 -0 0.000602906)
(0 -0 0.000652217)
(0 -0 0.000684782)
(0 -0 0.000695233)
(0 -0 0.000680398)
(0 -0 0.000640142)
(0 -0 0.00057761)
(0 -0 0.000498759)
(0 -0 0.000411281)
(0 -0 0.000323181)
(0 -0 0.000241417)
(0 -0 0.000170923)
(0 -0 0.000114221)
(0 -0 7.15899e-05)
(0 -0 4.1638e-05)
(0 -0 2.20308e-05)
(0 -0 1.01612e-05)
(0 -0 3.63005e-06)
(0 -0 5.02022e-07)
(0 -0 -6.28391e-07)
(0 -0 -6.92264e-07)
(0 -0 -2.55608e-07)
(0 -0 3.65691e-07)
(0 -0 1.0111e-06)
(0 -0 1.60812e-06)
(0 -0 2.13017e-06)
(0 -0 2.57308e-06)
(0 -0 2.93549e-06)
(0 -0 0.000195972)
(0 -0 0.000182844)
(0 -0 0.000174233)
(0 -0 0.000169047)
(0 -0 0.000167106)
(0 -0 0.000168512)
(0 -0 0.000173738)
(0 -0 0.000183554)
(0 -0 0.000198944)
(0 -0 0.000221031)
(0 -0 0.000250917)
(0 -0 0.000289419)
(0 -0 0.000336722)
(0 -0 0.000391987)
(0 -0 0.000452991)
(0 -0 0.000515938)
(0 -0 0.00057555)
(0 -0 0.000625546)
(0 -0 0.00065951)
(0 -0 0.000672019)
(0 -0 0.000659782)
(0 -0 0.000622488)
(0 -0 0.000563071)
(0 -0 0.000487274)
(0 -0 0.000402603)
(0 -0 0.000316931)
(0 -0 0.000237148)
(0 -0 0.000168184)
(0 -0 0.000112604)
(0 -0 7.07594e-05)
(0 -0 4.13379e-05)
(0 -0 2.208e-05)
(0 -0 1.04389e-05)
(0 -0 4.05982e-06)
(0 -0 1.03686e-06)
(0 -0 -1.72891e-08)
(0 -0 -2.31366e-08)
(0 -0 4.5918e-07)
(0 -0 1.11705e-06)
(0 -0 1.79188e-06)
(0 -0 2.4125e-06)
(0 -0 2.95331e-06)
(0 -0 3.41104e-06)
(0 -0 3.78417e-06)
(0 -0 0.000233757)
(0 -0 0.000211458)
(0 -0 0.000193577)
(0 -0 0.000179933)
(0 -0 0.000170417)
(0 -0 0.000165099)
(0 -0 0.000164352)
(0 -0 0.000168819)
(0 -0 0.000179356)
(0 -0 0.000196963)
(0 -0 0.000222641)
(0 -0 0.000257139)
(0 -0 0.000300628)
(0 -0 0.000352318)
(0 -0 0.000410111)
(0 -0 0.000470404)
(0 -0 0.000528159)
(0 -0 0.000577348)
(0 -0 0.000611766)
(0 -0 0.000626102)
(0 -0 0.000617045)
(0 -0 0.000584101)
(0 -0 0.000529887)
(0 -0 0.000459737)
(0 -0 0.000380721)
(0 -0 0.000300326)
(0 -0 0.000225155)
(0 -0 0.000159983)
(0 -0 0.000107341)
(0 -0 6.76468e-05)
(0 -0 3.97166e-05)
(0 -0 2.14408e-05)
(0 -0 1.04164e-05)
(0 -0 4.4086e-06)
(0 -0 1.60197e-06)
(0 -0 6.71465e-07)
(0 -0 7.36222e-07)
(0 -0 1.25969e-06)
(0 -0 1.94246e-06)
(0 -0 2.63302e-06)
(0 -0 3.26397e-06)
(0 -0 3.81163e-06)
(0 -0 4.27393e-06)
(0 -0 4.64948e-06)
(0 -0 0.000242192)
(0 -0 0.00021654)
(0 -0 0.000194416)
(0 -0 0.000176163)
(0 -0 0.000161985)
(0 -0 0.000152093)
(0 -0 0.000146904)
(0 -0 0.000147039)
(0 -0 0.000153289)
(0 -0 0.000166577)
(0 -0 0.000187824)
(0 -0 0.000217737)
(0 -0 0.000256497)
(0 -0 0.000303409)
(0 -0 0.000356574)
(0 -0 0.000412692)
(0 -0 0.000467111)
(0 -0 0.00051422)
(0 -0 0.000548193)
(0 -0 0.000563976)
(0 -0 0.000558322)
(0 -0 0.000530575)
(0 -0 0.000482961)
(0 -0 0.000420266)
(0 -0 0.000348944)
(0 -0 0.000275901)
(0 -0 0.000207284)
(0 -0 0.000147587)
(0 -0 9.92447e-05)
(0 -0 6.27323e-05)
(0 -0 3.70234e-05)
(0 -0 2.02124e-05)
(0 -0 1.01015e-05)
(0 -0 4.63294e-06)
(0 -0 2.12777e-06)
(0 -0 1.35683e-06)
(0 -0 1.5013e-06)
(0 -0 2.06187e-06)
(0 -0 2.76008e-06)
(0 -0 3.45548e-06)
(0 -0 4.08627e-06)
(0 -0 4.63149e-06)
(0 -0 5.09045e-06)
(0 -0 5.46202e-06)
(0 -0 0.000228819)
(0 -0 0.000203179)
(0 -0 0.000180158)
(0 -0 0.000160317)
(0 -0 0.000144044)
(0 -0 0.00013168)
(0 -0 0.000123706)
(0 -0 0.000120757)
(0 -0 0.000123592)
(0 -0 0.000133077)
(0 -0 0.000150079)
(0 -0 0.000175272)
(0 -0 0.000208869)
(0 -0 0.000250305)
(0 -0 0.00029793)
(0 -0 0.000348819)
(0 -0 0.000398809)
(0 -0 0.000442826)
(0 -0 0.000475545)
(0 -0 0.000492282)
(0 -0 0.00048993)
(0 -0 0.000467694)
(0 -0 0.000427387)
(0 -0 0.000373163)
(0 -0 0.000310744)
(0 -0 0.000246326)
(0 -0 0.000185483)
(0 -0 0.00013234)
(0 -0 8.91838e-05)
(0 -0 5.65309e-05)
(0 -0 3.35275e-05)
(0 -0 1.85039e-05)
(0 -0 9.50594e-06)
(0 -0 4.6896e-06)
(0 -0 2.54294e-06)
(0 -0 1.95524e-06)
(0 -0 2.18487e-06)
(0 -0 2.77912e-06)
(0 -0 3.48575e-06)
(0 -0 4.17815e-06)
(0 -0 4.80138e-06)
(0 -0 5.33772e-06)
(0 -0 5.78798e-06)
(0 -0 6.15129e-06)
(0 -0 0.000201522)
(0 -0 0.000177801)
(0 -0 0.000155945)
(0 -0 0.000136558)
(0 -0 0.000120096)
(0 -0 0.000106954)
(0 -0 9.76454e-05)
(0 -0 9.28055e-05)
(0 -0 9.31623e-05)
(0 -0 9.95303e-05)
(0 -0 0.000112723)
(0 -0 0.000133391)
(0 -0 0.000161788)
(0 -0 0.000197488)
(0 -0 0.000239119)
(0 -0 0.000284174)
(0 -0 0.000329032)
(0 -0 0.000369225)
(0 -0 0.00040001)
(0 -0 0.000417145)
(0 -0 0.000417729)
(0 -0 0.000400863)
(0 -0 0.000367951)
(0 -0 0.000322489)
(0 -0 0.000269414)
(0 -0 0.000214146)
(0 -0 0.00016162)
(0 -0 0.000115537)
(0 -0 7.79982e-05)
(0 -0 4.95449e-05)
(0 -0 2.94954e-05)
(0 -0 1.64274e-05)
(0 -0 8.64738e-06)
(0 -0 4.54292e-06)
(0 -0 2.78456e-06)
(0 -0 2.39186e-06)
(0 -0 2.70853e-06)
(0 -0 3.33363e-06)
(0 -0 4.04408e-06)
(0 -0 4.72865e-06)
(0 -0 5.33995e-06)
(0 -0 5.86374e-06)
(0 -0 6.3024e-06)
(0 -0 6.65521e-06)
(0 -0 0.000167321)
(0 -0 0.0001465)
(0 -0 0.000126947)
(0 -0 0.000109241)
(0 -0 9.38289e-05)
(0 -0 8.10997e-05)
(0 -0 7.1559e-05)
(0 -0 6.58136e-05)
(0 -0 6.4544e-05)
(0 -0 6.85034e-05)
(0 -0 7.8447e-05)
(0 -0 9.49968e-05)
(0 -0 0.000118443)
(0 -0 0.000148503)
(0 -0 0.000184078)
(0 -0 0.000223089)
(0 -0 0.00026247)
(0 -0 0.000298388)
(0 -0 0.000326712)
(0 -0 0.000343689)
(0 -0 0.000346663)
(0 -0 0.000334675)
(0 -0 0.000308749)
(0 -0 0.000271744)
(0 -0 0.00022781)
(0 -0 0.000181582)
(0 -0 0.000137335)
(0 -0 9.83219e-05)
(0 -0 6.64369e-05)
(0 -0 4.22276e-05)
(0 -0 2.5173e-05)
(0 -0 1.40926e-05)
(0 -0 7.55197e-06)
(0 -0 4.17164e-06)
(0 -0 2.80701e-06)
(0 -0 2.61036e-06)
(0 -0 3.01277e-06)
(0 -0 3.66641e-06)
(0 -0 4.37823e-06)
(0 -0 5.05279e-06)
(0 -0 5.65045e-06)
(0 -0 6.16047e-06)
(0 -0 6.58675e-06)
(0 -0 6.92869e-06)
(0 -0 0.000131742)
(0 -0 0.000114186)
(0 -0 9.74451e-05)
(0 -0 8.20389e-05)
(0 -0 6.83707e-05)
(0 -0 5.67896e-05)
(0 -0 4.77592e-05)
(0 -0 4.18343e-05)
(0 -0 3.96297e-05)
(0 -0 4.18246e-05)
(0 -0 4.91063e-05)
(0 -0 6.20593e-05)
(0 -0 8.10004e-05)
(0 -0 0.000105772)
(0 -0 0.000135536)
(0 -0 0.000168619)
(0 -0 0.000202492)
(0 -0 0.000233941)
(0 -0 0.00025945)
(0 -0 0.00027576)
(0 -0 0.000280489)
(0 -0 0.000272659)
(0 -0 0.000252961)
(0 -0 0.000223666)
(0 -0 0.000188186)
(0 -0 0.000150401)
(0 -0 0.000113945)
(0 -0 8.16237e-05)
(0 -0 5.51161e-05)
(0 -0 3.49598e-05)
(0 -0 2.07748e-05)
(0 -0 1.16039e-05)
(0 -0 6.25625e-06)
(0 -0 3.57361e-06)
(0 -0 2.58816e-06)
(0 -0 2.57977e-06)
(0 -0 3.06389e-06)
(0 -0 3.74413e-06)
(0 -0 4.45655e-06)
(0 -0 5.12105e-06)
(0 -0 5.70546e-06)
(0 -0 6.2024e-06)
(0 -0 6.61724e-06)
(0 -0 6.94934e-06)
(0 -0 9.8615e-05)
(0 -0 8.42953e-05)
(0 -0 7.04543e-05)
(0 -0 5.75478e-05)
(0 -0 4.59194e-05)
(0 -0 3.58604e-05)
(0 -0 2.77751e-05)
(0 -0 2.21514e-05)
(0 -0 1.95263e-05)
(0 -0 2.04957e-05)
(0 -0 2.56706e-05)
(0 -0 3.55883e-05)
(0 -0 5.05768e-05)
(0 -0 7.05841e-05)
(0 -0 9.4999e-05)
(0 -0 0.000122516)
(0 -0 0.000151101)
(0 -0 0.000178117)
(0 -0 0.000200627)
(0 -0 0.000215852)
(0 -0 0.000221696)
(0 -0 0.000217194)
(0 -0 0.000202765)
(0 -0 0.000180162)
(0 -0 0.000152133)
(0 -0 0.000121869)
(0 -0 9.24049e-05)
(0 -0 6.61276e-05)
(0 -0 4.45006e-05)
(0 -0 2.80381e-05)
(0 -0 1.64775e-05)
(0 -0 9.05807e-06)
(0 -0 4.80725e-06)
(0 -0 2.76726e-06)
(0 -0 2.13154e-06)
(0 -0 2.29698e-06)
(0 -0 2.85665e-06)
(0 -0 3.56171e-06)
(0 -0 4.27513e-06)
(0 -0 4.93098e-06)
(0 -0 5.50401e-06)
(0 -0 5.9899e-06)
(0 -0 6.39535e-06)
(0 -0 6.7196e-06)
(0 -0 7.01756e-05)
(0 -0 5.88229e-05)
(0 -0 4.77135e-05)
(0 -0 3.72369e-05)
(0 -0 2.7674e-05)
(0 -0 1.92533e-05)
(0 -0 1.23137e-05)
(0 -0 7.2703e-06)
(0 -0 4.57816e-06)
(0 -0 4.74641e-06)
(0 -0 8.30567e-06)
(0 -0 1.57383e-05)
(0 -0 2.73698e-05)
(0 -0 4.32282e-05)
(0 -0 6.28933e-05)
(0 -0 8.53768e-05)
(0 -0 0.00010908)
(0 -0 0.00013188)
(0 -0 0.000151366)
(0 -0 0.000165207)
(0 -0 0.000171583)
(0 -0 0.000169574)
(0 -0 0.000159386)
(0 -0 0.000142336)
(0 -0 0.000120597)
(0 -0 9.67561e-05)
(0 -0 7.33148e-05)
(0 -0 5.22768e-05)
(0 -0 3.49028e-05)
(0 -0 2.16731e-05)
(0 -0 1.2418e-05)
(0 -0 6.54193e-06)
(0 -0 3.26033e-06)
(0 -0 1.78963e-06)
(0 -0 1.46451e-06)
(0 -0 1.78489e-06)
(0 -0 2.41248e-06)
(0 -0 3.14054e-06)
(0 -0 3.85598e-06)
(0 -0 4.50542e-06)
(0 -0 5.06975e-06)
(0 -0 5.54736e-06)
(0 -0 5.94608e-06)
(0 -0 6.26496e-06)
(0 -0 4.73462e-05)
(0 -0 3.85692e-05)
(0 -0 2.98808e-05)
(0 -0 2.16074e-05)
(0 -0 1.39695e-05)
(0 -0 7.13479e-06)
(0 -0 1.37834e-06)
(0 -0 -2.95612e-06)
(0 -0 -5.49324e-06)
(0 -0 -5.80828e-06)
(0 -0 -3.45029e-06)
(0 -0 2.00457e-06)
(0 -0 1.08673e-05)
(0 -0 2.32224e-05)
(0 -0 3.88021e-05)
(0 -0 5.68809e-05)
(0 -0 7.62286e-05)
(0 -0 9.51655e-05)
(0 -0 0.00011174)
(0 -0 0.000124022)
(0 -0 0.000130452)
(0 -0 0.000130173)
(0 -0 0.000123232)
(0 -0 0.000110598)
(0 -0 9.39643e-05)
(0 -0 7.54027e-05)
(0 -0 5.6958e-05)
(0 -0 4.02974e-05)
(0 -0 2.64967e-05)
(0 -0 1.59958e-05)
(0 -0 8.69427e-06)
(0 -0 4.13041e-06)
(0 -0 1.67529e-06)
(0 -0 6.91443e-07)
(0 -0 6.32851e-07)
(0 -0 1.08693e-06)
(0 -0 1.77389e-06)
(0 -0 2.52301e-06)
(0 -0 3.24163e-06)
(0 -0 3.88719e-06)
(0 -0 4.44579e-06)
(0 -0 4.9181e-06)
(0 -0 5.31292e-06)
(0 -0 5.62898e-06)
(0 -0 3.00994e-05)
(0 -0 2.34648e-05)
(0 -0 1.68262e-05)
(0 -0 1.04525e-05)
(0 -0 4.50992e-06)
(0 -0 -8.89272e-07)
(0 -0 -5.52839e-06)
(0 -0 -9.12881e-06)
(0 -0 -1.13881e-05)
(0 -0 -1.19593e-05)
(0 -0 -1.04661e-05)
(0 -0 -6.54313e-06)
(0 -0 9.81079e-08)
(0 -0 9.57796e-06)
(0 -0 2.1745e-05)
(0 -0 3.60834e-05)
(0 -0 5.16644e-05)
(0 -0 6.71769e-05)
(0 -0 8.10586e-05)
(0 -0 9.17245e-05)
(0 -0 9.78526e-05)
(0 -0 9.86593e-05)
(0 -0 9.40837e-05)
(0 -0 8.48195e-05)
(0 -0 7.21755e-05)
(0 -0 5.78024e-05)
(0 -0 4.33628e-05)
(0 -0 3.02379e-05)
(0 -0 1.93411e-05)
(0 -0 1.10685e-05)
(0 -0 5.36861e-06)
(0 -0 1.88436e-06)
(0 -0 1.11337e-07)
(0 -0 -4.69481e-07)
(0 -0 -3.06584e-07)
(0 -0 2.59338e-07)
(0 -0 9.96773e-07)
(0 -0 1.76475e-06)
(0 -0 2.48761e-06)
(0 -0 3.13168e-06)
(0 -0 3.68736e-06)
(0 -0 4.15719e-06)
(0 -0 4.55071e-06)
(0 -0 4.86629e-06)
(0 -0 1.78164e-05)
(0 -0 1.2901e-05)
(0 -0 7.93452e-06)
(0 -0 3.13562e-06)
(0 -0 -1.37702e-06)
(0 -0 -5.53887e-06)
(0 -0 -9.18404e-06)
(0 -0 -1.20906e-05)
(0 -0 -1.40197e-05)
(0 -0 -1.46927e-05)
(0 -0 -1.38005e-05)
(0 -0 -1.10326e-05)
(0 -0 -6.12753e-06)
(0 -0 1.05472e-06)
(0 -0 1.04474e-05)
(0 -0 2.16965e-05)
(0 -0 3.41121e-05)
(0 -0 4.66807e-05)
(0 -0 5.81596e-05)
(0 -0 6.7254e-05)
(0 -0 7.28483e-05)
(0 -0 7.42372e-05)
(0 -0 7.12904e-05)
(0 -0 6.44955e-05)
(0 -0 5.48611e-05)
(0 -0 4.3702e-05)
(0 -0 3.23713e-05)
(0 -0 2.20143e-05)
(0 -0 1.34055e-05)
(0 -0 6.89765e-06)
(0 -0 2.47166e-06)
(0 -0 -1.51008e-07)
(0 -0 -1.37803e-06)
(0 -0 -1.63528e-06)
(0 -0 -1.29389e-06)
(0 -0 -6.37206e-07)
(0 -0 1.41901e-07)
(0 -0 9.26368e-07)
(0 -0 1.65414e-06)
(0 -0 2.2987e-06)
(0 -0 2.85386e-06)
(0 -0 3.3236e-06)
(0 -0 3.71802e-06)
(0 -0 4.03503e-06)
(0 -0 9.5908e-06)
(0 -0 6.01217e-06)
(0 -0 2.36673e-06)
(0 -0 -1.16956e-06)
(0 -0 -4.51794e-06)
(0 -0 -7.65372e-06)
(0 -0 -1.04535e-05)
(0 -0 -1.27428e-05)
(0 -0 -1.43363e-05)
(0 -0 -1.50131e-05)
(0 -0 -1.45221e-05)
(0 -0 -1.2602e-05)
(0 -0 -9.01988e-06)
(0 -0 -3.62791e-06)
(0 -0 3.56611e-06)
(0 -0 1.23291e-05)
(0 -0 2.21548e-05)
(0 -0 3.22634e-05)
(0 -0 4.16675e-05)
(0 -0 4.93097e-05)
(0 -0 5.4249e-05)
(0 -0 5.58568e-05)
(0 -0 5.39625e-05)
(0 -0 4.89048e-05)
(0 -0 4.14642e-05)
(0 -0 3.26953e-05)
(0 -0 2.37071e-05)
(0 -0 1.5455e-05)
(0 -0 8.59807e-06)
(0 -0 3.44882e-06)
(0 -0 7.5789e-09)
(0 -0 -1.94683e-06)
(0 -0 -2.74924e-06)
(0 -0 -2.75424e-06)
(0 -0 -2.27328e-06)
(0 -0 -1.54518e-06)
(0 -0 -7.32712e-07)
(0 -0 6.57159e-08)
(0 -0 7.98675e-07)
(0 -0 1.44517e-06)
(0 -0 2.00165e-06)
(0 -0 2.47312e-06)
(0 -0 2.87009e-06)
(0 -0 3.18997e-06)
(0 -0 4.45394e-06)
(0 -0 1.88496e-06)
(0 -0 -7.46635e-07)
(0 -0 -3.30016e-06)
(0 -0 -5.72939e-06)
(0 -0 -8.04181e-06)
(0 -0 -1.01484e-05)
(0 -0 -1.19133e-05)
(0 -0 -1.31944e-05)
(0 -0 -1.38187e-05)
(0 -0 -1.3583e-05)
(0 -0 -1.22689e-05)
(0 -0 -9.6707e-06)
(0 -0 -5.64097e-06)
(0 -0 -1.48321e-07)
(0 -0 6.66161e-06)
(0 -0 1.44203e-05)
(0 -0 2.25267e-05)
(0 -0 3.01928e-05)
(0 -0 3.655e-05)
(0 -0 4.08017e-05)
(0 -0 4.23894e-05)
(0 -0 4.11237e-05)
(0 -0 3.72385e-05)
(0 -0 3.1346e-05)
(0 -0 2.43039e-05)
(0 -0 1.7033e-05)
(0 -0 1.03396e-05)
(0 -0 4.78961e-06)
(0 -0 6.59283e-07)
(0 -0 -2.04044e-06)
(0 -0 -3.49023e-06)
(0 -0 -3.9714e-06)
(0 -0 -3.78532e-06)
(0 -0 -3.19849e-06)
(0 -0 -2.41599e-06)
(0 -0 -1.5777e-06)
(0 -0 -7.67877e-07)
(0 -0 -2.98786e-08)
(0 -0 6.19453e-07)
(0 -0 1.17848e-06)
(0 -0 1.65294e-06)
(0 -0 2.05359e-06)
(0 -0 2.37729e-06)
(0 -0 1.51854e-06)
(0 -0 -3.08915e-07)
(0 -0 -2.1835e-06)
(0 -0 -3.99297e-06)
(0 -0 -5.71686e-06)
(0 -0 -7.38779e-06)
(0 -0 -8.94388e-06)
(0 -0 -1.02797e-05)
(0 -0 -1.12875e-05)
(0 -0 -1.18322e-05)
(0 -0 -1.17499e-05)
(0 -0 -1.08577e-05)
(0 -0 -8.975e-06)
(0 -0 -5.95928e-06)
(0 -0 -1.75471e-06)
(0 -0 3.55458e-06)
(0 -0 9.70071e-06)
(0 -0 1.62167e-05)
(0 -0 2.24667e-05)
(0 -0 2.77291e-05)
(0 -0 3.13235e-05)
(0 -0 3.27534e-05)
(0 -0 3.18239e-05)
(0 -0 2.86976e-05)
(0 -0 2.38654e-05)
(0 -0 1.80389e-05)
(0 -0 1.1997e-05)
(0 -0 6.43117e-06)
(0 -0 1.83371e-06)
(0 -0 -1.5501e-06)
(0 -0 -3.70469e-06)
(0 -0 -4.78279e-06)
(0 -0 -5.02725e-06)
(0 -0 -4.70051e-06)
(0 -0 -4.03585e-06)
(0 -0 -3.21336e-06)
(0 -0 -2.35588e-06)
(0 -0 -1.53715e-06)
(0 -0 -7.94586e-07)
(0 -0 -1.42006e-07)
(0 -0 4.20278e-07)
(0 -0 8.98446e-07)
(0 -0 1.30341e-06)
(0 -0 1.63145e-06)
(0 -0 5.23003e-08)
(0 -0 -1.24578e-06)
(0 -0 -2.5704e-06)
(0 -0 -3.83165e-06)
(0 -0 -5.02892e-06)
(0 -0 -6.21387e-06)
(0 -0 -7.34546e-06)
(0 -0 -8.34175e-06)
(0 -0 -9.12174e-06)
(0 -0 -9.57975e-06)
(0 -0 -9.58302e-06)
(0 -0 -8.97765e-06)
(0 -0 -7.60476e-06)
(0 -0 -5.32932e-06)
(0 -0 -2.08121e-06)
(0 -0 2.09751e-06)
(0 -0 7.0111e-06)
(0 -0 1.2291e-05)
(0 -0 1.74155e-05)
(0 -0 2.17755e-05)
(0 -0 2.47822e-05)
(0 -0 2.59914e-05)
(0 -0 2.52109e-05)
(0 -0 2.25563e-05)
(0 -0 1.84321e-05)
(0 -0 1.34436e-05)
(0 -0 8.26405e-06)
(0 -0 3.49855e-06)
(0 -0 -4.17897e-07)
(0 -0 -3.26551e-06)
(0 -0 -5.02763e-06)
(0 -0 -5.8381e-06)
(0 -0 -5.91247e-06)
(0 -0 -5.48512e-06)
(0 -0 -4.76518e-06)
(0 -0 -3.91448e-06)
(0 -0 -3.04345e-06)
(0 -0 -2.21814e-06)
(0 -0 -1.4717e-06)
(0 -0 -8.15849e-07)
(0 -0 -2.50042e-07)
(0 -0 2.32147e-07)
(0 -0 6.41677e-07)
(0 -0 9.74236e-07)
(0 -0 -5.00285e-07)
(0 -0 -1.43196e-06)
(0 -0 -2.36845e-06)
(0 -0 -3.23709e-06)
(0 -0 -4.05211e-06)
(0 -0 -4.8791e-06)
(0 -0 -5.69272e-06)
(0 -0 -6.42888e-06)
(0 -0 -7.02674e-06)
(0 -0 -7.4033e-06)
(0 -0 -7.44989e-06)
(0 -0 -7.03579e-06)
(0 -0 -6.0204e-06)
(0 -0 -4.27697e-06)
(0 -0 -1.7279e-06)
(0 -0 1.61282e-06)
(0 -0 5.60027e-06)
(0 -0 9.9373e-06)
(0 -0 1.41864e-05)
(0 -0 1.78236e-05)
(0 -0 2.0331e-05)
(0 -0 2.13072e-05)
(0 -0 2.0567e-05)
(0 -0 1.81951e-05)
(0 -0 1.45357e-05)
(0 -0 1.01173e-05)
(0 -0 5.53566e-06)
(0 -0 1.33108e-06)
(0 -0 -2.10493e-06)
(0 -0 -4.57302e-06)
(0 -0 -6.05726e-06)
(0 -0 -6.67872e-06)
(0 -0 -6.63373e-06)
(0 -0 -6.13654e-06)
(0 -0 -5.37886e-06)
(0 -0 -4.50929e-06)
(0 -0 -3.62931e-06)
(0 -0 -2.79948e-06)
(0 -0 -2.04998e-06)
(0 -0 -1.39112e-06)
(0 -0 -8.21822e-07)
(0 -0 -3.35606e-07)
(0 -0 7.84677e-08)
(0 -0 4.15501e-07)
(0 -0 -5.29129e-07)
(0 -0 -1.21649e-06)
(0 -0 -1.88817e-06)
(0 -0 -2.48455e-06)
(0 -0 -3.03066e-06)
(0 -0 -3.60193e-06)
(0 -0 -4.1846e-06)
(0 -0 -4.72791e-06)
(0 -0 -5.18612e-06)
(0 -0 -5.49331e-06)
(0 -0 -5.5593e-06)
(0 -0 -5.27155e-06)
(0 -0 -4.50455e-06)
(0 -0 -3.13965e-06)
(0 -0 -1.09603e-06)
(0 -0 1.63064e-06)
(0 -0 4.93092e-06)
(0 -0 8.55892e-06)
(0 -0 1.21391e-05)
(0 -0 1.5211e-05)
(0 -0 1.7311e-05)
(0 -0 1.80724e-05)
(0 -0 1.73177e-05)
(0 -0 1.51122e-05)
(0 -0 1.17575e-05)
(0 -0 7.72675e-06)
(0 -0 3.5589e-06)
(0 -0 -2.53657e-07)
(0 -0 -3.3523e-06)