/*--------------------------------*- C++ -*----------------------------------*\
| =========                 |                                                 |
| \\      /  F ield         | OpenFOAM: The Open Source CFD Toolbox           |
|  \\    /   O peration     | Version:  2412                                  |
|   \\  /    A nd           | Website:  www.openfoam.com                      |
|    \\/     M anipulation  |                                                 |
\*---------------------------------------------------------------------------*/
FoamFile
{
    version     2.0;
    format      ascii;
    arch        "LSB;label=32;scalar=64";
    class       volVectorField;
    location    "5";
    object      U;
}
// * * * * * * * * * * * * * * * * * * * * * * * * * * * * * * * * * * * * * //

dimensions      [0 1 -1 0 0 0 0];

internalField   nonuniform List<vector> 
5285
(
(0.0766477 -0.000994406 2.88562e-25)
(0.078394 -0.000885884 0)
(0.0799558 -0.000791372 3.20012e-25)
(0.0813566 -0.000709211 0)
(0.0826173 -0.000637785 0)
(0.0837558 -0.000575593 0)
(0.0847874 -0.000521301 3.87295e-25)
(0.0857255 -0.000473747 0)
(0.0865813 -0.00043194 -4.13624e-25)
(0.0873645 -0.000395039 4.24452e-25)
(0.0880833 -0.00036234 -4.33754e-25)
(0.088745 -0.000333254 3.97877e-24)
(0.0893555 -0.00030729 -3.99071e-24)
(0.0899204 -0.000284035 -3.1716e-24)
(0.0904442 -0.000263147 6.82762e-24)
(0.0909311 -0.000244336 -3.66009e-24)
(0.0913845 -0.000227357 -4.62203e-25)
(0.0918078 -0.000212004 4.63278e-25)
(0.0922037 -0.000198102 0)
(0.0925747 -0.000185502 4.6309e-25)
(0.0929233 -0.000174079 -2.30204e-24)
(0.0932515 -0.000163727 2.30322e-24)
(0.0935611 -0.00015436 -4.58074e-25)
(0.093854 -0.000145905 1.36136e-24)
(0.0941318 -0.000138303 -4.55079e-25)
(0.094396 -0.0001315 -8.95083e-25)
(0.0946481 -0.000125433 4.4693e-25)
(0.0948895 -0.000120021 -4.41074e-25)
(0.0768613 -0.00296747 1.87639e-23)
(0.0785697 -0.00264508 -2.04022e-23)
(0.0801011 -0.00236401 2.13073e-23)
(0.0814776 -0.00211941 -1.03165e-23)
(0.0827186 -0.00190656 -2.32113e-23)
(0.0838411 -0.00172108 1.18711e-23)
(0.0848598 -0.00155903 -3.88294e-25)
(0.0857872 -0.00141701 -8.29917e-25)
(0.0866342 -0.00129208 4.14528e-25)
(0.0874101 -0.00118177 -1.2953e-24)
(0.0881227 -0.00108398 1.36534e-23)
(0.0887791 -0.000996983 -2.88873e-23)
(0.0893852 -0.000919306 1.38786e-23)
(0.0899462 -0.00084973 -1.37297e-24)
(0.0904666 -0.000787229 4.57742e-25)
(0.0909504 -0.000730938 0)
(0.0914012 -0.00068013 -7.89282e-24)
(0.0918222 -0.000634185 6.96897e-24)
(0.0922159 -0.00059258 6.49078e-24)
(0.0925851 -0.000554868 -8.82897e-24)
(0.092932 -0.000520674 4.6187e-25)
(0.0932585 -0.000489681 2.28981e-24)
(0.0935666 -0.000461627 -4.14079e-24)
(0.093858 -0.000436297 -4.55005e-25)
(0.0941344 -0.00041351 -3.15909e-24)
(0.0943972 -0.000393101 -4.33263e-25)
(0.0946479 -0.000374887 9.03394e-25)
(0.0948878 -0.000358617 1.32633e-24)
(0.0772779 -0.00489557 -2.20736e-23)
(0.0789141 -0.00436823 2.34272e-23)
(0.0803872 -0.00390755 7.87411e-25)
(0.0817166 -0.0035059 -8.02922e-25)
(0.0829196 -0.00315579 8.21053e-25)
(0.0840113 -0.00285023 -2.53293e-23)
(0.0850046 -0.00258293 2.61941e-23)
(0.0859112 -0.0023484 -2.58062e-23)
(0.0867409 -0.0021419 2.75419e-23)
(0.0875022 -0.00195942 8.73448e-25)
(0.0882026 -0.00179756 2.89619e-23)
(0.0888485 -0.00165347 -5.74195e-23)
(0.0894456 -0.00152478 3.02698e-23)
(0.0899988 -0.00140946 1.58199e-23)
(0.0905125 -0.00130585 -1.39685e-23)
(0.0909904 -0.00121251 0)
(0.0914359 -0.00112824 -1.29904e-26)
(0.0918521 -0.00105203 0)
(0.0922417 -0.000982998 1.49671e-23)
(0.0926071 -0.000920417 -1.40599e-23)
(0.0929504 -0.000863658 9.35993e-25)
(0.0932737 -0.000812193 -6.92839e-27)
(0.0935788 -0.000765586 7.32813e-24)
(0.0938673 -0.000723475 -1.3702e-23)
(0.0941408 -0.000685556 7.28009e-24)
(0.0944008 -0.00065155 -3.57859e-24)
(0.0946486 -0.00062115 2.70022e-24)
(0.0948855 -0.000593936 8.88808e-25)
(0.0778775 -0.00675172 0)
(0.0794133 -0.00603311 9.27101e-25)
(0.080805 -0.00540361 1.21218e-25)
(0.0820681 -0.00485333 8.1053e-25)
(0.0832172 -0.00437253 -5.67036e-23)
(0.0842646 -0.00395203 5.59722e-23)
(0.0852215 -0.00358351 0)
(0.0860979 -0.00325967 -2.91465e-23)
(0.0869023 -0.00297417 3.01622e-23)
(0.0876423 -0.00272159 0)
(0.0883246 -0.00249736 -3.83884e-26)
(0.0889551 -0.0022976 -3.12709e-23)
(0.0895388 -0.00211907 6.18036e-23)
(0.0900805 -0.00195903 -6.10729e-23)
(0.090584 -0.00181517 6.12274e-23)
(0.091053 -0.00168552 -6.12364e-23)
(0.0914906 -0.00156845 3.06016e-23)
(0.0918998 -0.00146254 1.5231e-23)
(0.0922831 -0.00136658 -1.33336e-23)
(0.0926427 -0.00127956 -9.5259e-25)
(0.0929807 -0.0012006 -1.49733e-23)
(0.0932992 -0.00112897 3.17292e-23)
(0.0935997 -0.00106406 -1.48854e-23)
(0.0938839 -0.00100535 7.23641e-27)
(0.0941532 -0.000952409 9.06333e-25)
(0.0944091 -0.000904849 -5.43958e-27)
(0.0946527 -0.000862232 -8.8792e-25)
(0.0948852 -0.000823964 1.7597e-24)
(0.0800477 -0.00762302 -6.55349e-23)
(0.0813405 -0.00683777 6.36376e-23)
(0.0825227 -0.0061492 0)
(0.083605 -0.00554588 0)
(0.0845973 -0.0050169 -9.3419e-25)
(0.0855084 -0.00455233 -6.27482e-23)
(0.0863465 -0.00414332 6.17715e-23)
(0.0871186 -0.00378218 -9.55706e-25)
(0.0878312 -0.00346228 -3.05919e-23)
(0.0884902 -0.00317797 3.25668e-23)
(0.0891005 -0.00292449 0)
(0.0896669 -0.00269777 3.99186e-26)
(0.0901933 -0.00249441 0)
(0.0906836 -0.00231151 -3.14846e-23)
(0.0911408 -0.00214663 3.24995e-23)
(0.091568 -0.00199767 -3.02623e-23)
(0.0919679 -0.00186287 3.12167e-23)
(0.0923427 -0.00174069 -1.93571e-24)
(0.0926947 -0.00162984 9.52382e-25)
(0.0930258 -0.00152922 1.39807e-26)
(0.0933379 -0.00143787 -9.37044e-25)
(0.0936324 -0.00135501 9.28252e-25)
(0.0939109 -0.00127998 -8.26154e-24)
(0.0941747 -0.00121221 1.45963e-23)
(0.0944251 -0.00115119 -1.08443e-23)
(0.0946632 -0.00109636 3.5823e-24)
(0.0948901 -0.00104694 4.91148e-27)
(0.0807933 -0.00916102 8.00845e-23)
(0.0819764 -0.00822861 -7.99681e-23)
(0.0830675 -0.00740826 -7.42953e-23)
(0.084074 -0.00668736 7.29521e-23)
(0.085003 -0.00605375 0)
(0.085861 -0.00549614 0)
(0.0866541 -0.00500439 6.92927e-23)
(0.0873882 -0.0045696 -5.63397e-25)
(0.0880683 -0.00418405 -7.06704e-23)
(0.0886992 -0.00384112 -6.86223e-23)
(0.0892854 -0.00353516 1.33369e-22)
(0.0898307 -0.00326136 -3.46879e-23)
(0.0903387 -0.00301568 -3.42657e-23)
(0.0908127 -0.00279464 -3.47733e-23)
(0.0912556 -0.00259531 6.40981e-23)
(0.0916701 -0.0024152 -6.55283e-23)
(0.0920586 -0.00225216 -7.34488e-25)
(0.0924231 -0.00210435 3.17328e-23)
(0.0927658 -0.00197019 3.11058e-23)
(0.0930885 -0.00184835 -4.83625e-23)
(0.0933926 -0.00173768 2.95618e-23)
(0.0936798 -0.00163719 -1.6104e-23)
(0.0939513 -0.00154607 1.57122e-23)
(0.0942085 -0.00146363 -1.5678e-23)
(0.0944524 -0.00138922 8.99737e-25)
(0.094684 -0.00132215 -4.43054e-24)
(0.0949044 -0.0012615 1.77676e-24)
(0.0816337 -0.0106726 -1.06945e-22)
(0.0827006 -0.00959675 0)
(0.083694 -0.00864694 0)
(0.0846179 -0.00780994 1.25948e-24)
(0.0854771 -0.0070726 -8.17365e-23)
(0.0862759 -0.00642255 8.15283e-23)
(0.0870186 -0.00584851 0)
(0.0877094 -0.00534046 0)
(0.0883524 -0.00488964 1.12459e-24)
(0.0889512 -0.00448847 -7.16339e-23)
(0.0895095 -0.00413046 1.45213e-22)
(0.0900305 -0.00381005 -7.13787e-23)
(0.0905172 -0.00352252 1.06808e-24)
(0.0909724 -0.00326384 1.05529e-24)
(0.0913987 -0.00303058 3.3724e-23)
(0.0917983 -0.00281982 -6.5846e-23)
(0.0921735 -0.00262904 3.41691e-23)
(0.0925262 -0.00245609 -3.12697e-23)
(0.092858 -0.0022991 4.00925e-25)
(0.0931708 -0.00215648 1.38038e-24)
(0.0934658 -0.00202687 3.21788e-23)
(0.0937445 -0.0019091 1.61047e-23)
(0.0940081 -0.00180219 -1.60501e-23)
(0.0942576 -0.00170529 9.17968e-25)
(0.0944941 -0.00161764 7.20582e-24)
(0.0947185 -0.00153841 -6.29848e-24)
(0.0949315 -0.00146656 8.72594e-25)
(0.0951219 -0.000115127 0)
(0.0953478 -0.000110604 0)
(0.0955692 -0.000106189 0)
(0.0957858 -0.000101578 0)
(0.0959964 -9.64177e-05 0)
(0.0961993 -9.03811e-05 0)
(0.0963918 -8.32775e-05 0)
(0.096571 -7.51533e-05 0)
(0.0967341 -6.63432e-05 0)
(0.0968795 -5.74295e-05 0)
(0.0970069 -4.9109e-05 0)
(0.0971177 -4.20113e-05 0)
(0.0972151 -3.65374e-05 0)
(0.0973028 -3.27802e-05 0)
(0.0973846 -3.05468e-05 0)
(0.0974639 -2.94578e-05 0)
(0.097543 -2.90744e-05 0)
(0.0976233 -2.90046e-05 0)
(0.097705 -2.89624e-05 0)
(0.0977881 -2.87805e-05 0)
(0.0978719 -2.83902e-05 0)
(0.0979559 -2.77889e-05 0)
(0.0980395 -2.7009e-05 0)
(0.098122 -2.60951e-05 0)
(0.0982031 -2.50911e-05 0)
(0.0982824 -2.4034e-05 0)
(0.0983598 -2.29526e-05 0)
(0.0984351 -2.18681e-05 0)
(0.0985082 -2.07955e-05 0)
(0.0985791 -1.97452e-05 0)
(0.0986477 -1.8724e-05 0)
(0.098714 -1.77364e-05 0)
(0.098778 -1.67851e-05 0)
(0.0988398 -1.58718e-05 0)
(0.0988994 -1.4997e-05 0)
(0.0989568 -1.4161e-05 0)
(0.0990121 -1.33632e-05 0)
(0.0990653 -1.2603e-05 0)
(0.0991165 -1.1879e-05 0)
(0.0991657 -1.11901e-05 0)
(0.099213 -1.05348e-05 0)
(0.0992584 -9.9121e-06 0)
(0.0993019 -9.32073e-06 0)
(0.0993437 -8.75942e-06 0)
(0.0951182 -0.000343899 0)
(0.0953419 -0.0003303 0)
(0.0955609 -0.000317033 0)
(0.0957749 -0.000303206 0)
(0.0959831 -0.000287783 0)
(0.0961837 -0.000269812 0)
(0.0963743 -0.000248732 0)
(0.0965521 -0.000224678 0)
(0.0967147 -0.000198626 0)
(0.0968603 -0.000172277 0)
(0.0969889 -0.000147668 0)
(0.0971017 -0.000126643 0)
(0.0972015 -0.000110377 0)
(0.0972919 -9.91479e-05 0)
(0.0973764 -9.23954e-05 0)
(0.0974581 -8.90132e-05 0)
(0.0975393 -8.77185e-05 0)
(0.0976211 -8.73631e-05 0)
(0.0977041 -8.71079e-05 0)
(0.0977881 -8.64593e-05 0)
(0.0978725 -8.52125e-05 0)
(0.0979569 -8.33564e-05 0)
(0.0980407 -8.09832e-05 0)
(0.0981233 -7.82221e-05 0)
(0.0982044 -7.52004e-05 0)
(0.0982838 -7.20262e-05 0)
(0.0983612 -6.87834e-05 0)
(0.0984364 -6.5534e-05 0)
(0.0985095 -6.23219e-05 0)
(0.0985802 -5.91775e-05 0)
(0.0986488 -5.6121e-05 0)
(0.098715 -5.31656e-05 0)
(0.098779 -5.03192e-05 0)
(0.0988407 -4.75862e-05 0)
(0.0989002 -4.49685e-05 0)
(0.0989576 -4.24661e-05 0)
(0.0990128 -4.00777e-05 0)
(0.099066 -3.78008e-05 0)
(0.0991171 -3.56324e-05 0)
(0.0991662 -3.35688e-05 0)
(0.0992135 -3.16066e-05 0)
(0.0992588 -2.97419e-05 0)
(0.0993023 -2.7971e-05 0)
(0.099344 -2.62899e-05 0)
(0.0951122 -0.000569299 0)
(0.0953314 -0.000546554 0)
(0.0955458 -0.000524384 0)
(0.0957551 -0.000501371 0)
(0.0959586 -0.000475874 0)
(0.0961549 -0.000446381 0)
(0.0963418 -0.000412 0)
(0.096517 -0.000372933 0)
(0.0966784 -0.000330718 0)
(0.0968246 -0.000288041 0)
(0.0969553 -0.000248125 0)
(0.0970718 -0.000213897 0)
(0.0971762 -0.000187234 0)
(0.0972716 -0.000168595 0)
(0.0973611 -0.000157111 0)
(0.0974473 -0.000151043 0)
(0.0975324 -0.000148363 0)
(0.0976173 -0.000147248 0)
(0.0977026 -0.000146359 0)
(0.0977882 -0.000144899 0)
(0.0978738 -0.000142533 0)
(0.0979589 -0.00013923 0)
(0.0980431 -0.000135131 0)
(0.098126 -0.000130432 0)
(0.0982072 -0.000125334 0)
(0.0982866 -0.000120005 0)
(0.0983639 -0.000114578 0)
(0.098439 -0.000109151 0)
(0.098512 -0.000103792 0)
(0.0985826 -9.85506e-05 0)
(0.098651 -9.34586e-05 0)
(0.0987171 -8.85368e-05 0)
(0.0987809 -8.37976e-05 0)
(0.0988425 -7.92481e-05 0)
(0.0989019 -7.48908e-05 0)
(0.0989591 -7.07255e-05 0)
(0.0990142 -6.67499e-05 0)
(0.0990673 -6.29597e-05 0)
(0.0991183 -5.935e-05 0)
(0.0991674 -5.5915e-05 0)
(0.0992145 -5.26485e-05 0)
(0.0992597 -4.95445e-05 0)
(0.0993032 -4.65965e-05 0)
(0.0993448 -4.3798e-05 0)
(0.0951064 -0.00078929 0)
(0.0953192 -0.000757328 0)
(0.0955271 -0.000726208 0)
(0.0957298 -0.000694087 0)
(0.0959268 -0.000658832 0)
(0.096117 -0.000618473 0)
(0.0962988 -0.000571843 0)
(0.0964704 -0.000519187 0)
(0.0966302 -0.000462477 0)
(0.096777 -0.000405179 0)
(0.0969106 -0.000351471 0)
(0.0970319 -0.000305158 0)
(0.0971425 -0.000268711 0)
(0.0972447 -0.000242763 0)
(0.0973409 -0.000226228 0)
(0.0974334 -0.000216876 0)
(0.0975236 -0.000212086 0)
(0.0976127 -0.000209484 0)
(0.0977012 -0.000207312 0)
(0.097789 -0.000204511 0)
(0.0978762 -0.000200618 0)
(0.0979623 -0.000195574 0)
(0.0980471 -0.00018954 0)
(0.0981302 -0.000182765 0)
(0.0982116 -0.000175499 0)
(0.0982909 -0.000167957 0)
(0.0983681 -0.00016031 0)
(0.0984431 -0.000152683 0)
(0.0985158 -0.000145167 0)
(0.0985863 -0.000137825 0)
(0.0986544 -0.000130697 0)
(0.0987203 -0.000123811 0)
(0.0987839 -0.000117184 0)
(0.0988453 -0.000110823 0)
(0.0989045 -0.000104731 0)
(0.0989615 -9.89089e-05 0)
(0.0990165 -9.33517e-05 0)
(0.0990694 -8.80539e-05 0)
(0.0991202 -8.30083e-05 0)
(0.0991691 -7.82068e-05 0)
(0.0992161 -7.36409e-05 0)
(0.0992613 -6.9302e-05 0)
(0.0993046 -6.5181e-05 0)
(0.0993461 -6.12688e-05 0)
(0.0951045 -0.00100214 0)
(0.0953096 -0.000960939 0)
(0.0955095 -0.000920875 0)
(0.0957042 -0.000879798 0)
(0.0958933 -0.000835219 0)
(0.0960762 -0.000784844 0)
(0.0962518 -0.000727295 0)
(0.0964189 -0.00066283 0)
(0.0965766 -0.000593704 0)
(0.096724 -0.000523911 0)
(0.0968608 -0.000458294 0)
(0.0969875 -0.000401297 0)
(0.097105 -0.000355838 0)
(0.0972149 -0.000322725 0)
(0.0973189 -0.00030076 0)
(0.0974183 -0.000287399 0)
(0.0975146 -0.000279612 0)
(0.0976085 -0.000274629 0)
(0.0977006 -0.000270374 0)
(0.097791 -0.000265574 0)
(0.0978799 -0.000259649 0)
(0.0979672 -0.000252492 0)
(0.0980526 -0.000244266 0)
(0.0981361 -0.000235237 0)
(0.0982175 -0.000225687 0)
(0.0982968 -0.000215858 0)
(0.0983738 -0.000205945 0)
(0.0984486 -0.000196094 0)
(0.0985211 -0.000186407 0)
(0.0985912 -0.000176959 0)
(0.0986591 -0.000167796 0)
(0.0987247 -0.00015895 0)
(0.098788 -0.00015044 0)
(0.0988491 -0.000142275 0)
(0.0989081 -0.000134458 0)
(0.0989649 -0.000126986 0)
(0.0990196 -0.000119856 0)
(0.0990723 -0.000113058 0)
(0.0991229 -0.000106584 0)
(0.0991716 -0.000100423 0)
(0.0992185 -9.45642e-05 0)
(0.0992634 -8.89964e-05 0)
(0.0993066 -8.37081e-05 0)
(0.099348 -7.86874e-05 0)
(0.0951108 -0.00120654 0)
(0.0953071 -0.00115617 0)
(0.0954981 -0.00110726 0)
(0.095684 -0.00105746 0)
(0.0958644 -0.00100409 0)
(0.0960393 -0.000944667 0)
(0.0962081 -0.000877678 0)
(0.0963703 -0.000803361 0)
(0.0965253 -0.000724091 0)
(0.0966728 -0.000644126 0)
(0.0968125 -0.000568668 0)
(0.0969444 -0.000502533 0)
(0.0970688 -0.00044894 0)
(0.0971864 -0.000408856 0)
(0.0972981 -0.000381087 0)
(0.0974046 -0.000362961 0)
(0.097507 -0.000351238 0)
(0.0976058 -0.000342919 0)
(0.0977016 -0.000335719 0)
(0.0977947 -0.000328208 0)
(0.0978855 -0.000319698 0)
(0.0979738 -0.000310022 0)
(0.0980599 -0.000299315 0)
(0.0981437 -0.000287838 0)
(0.0982252 -0.000275874 0)
(0.0983043 -0.000263676 0)
(0.0983811 -0.000251448 0)
(0.0984556 -0.000239342 0)
(0.0985278 -0.000227471 0)
(0.0985976 -0.000215912 0)
(0.0986651 -0.000204716 0)
(0.0987303 -0.000193916 0)
(0.0987933 -0.000183532 0)
(0.0988541 -0.000173572 0)
(0.0989127 -0.000164038 0)
(0.0989692 -0.000154928 0)
(0.0990236 -0.000146234 0)
(0.099076 -0.000137947 0)
(0.0991264 -0.000130053 0)
(0.0991749 -0.000122542 0)
(0.0992215 -0.000115399 0)
(0.0992662 -0.00010861 0)
(0.0993092 -0.000102162 0)
(0.0993504 -9.60392e-05 0)
(0.0951295 -0.00140163 0)
(0.0953165 -0.00134235 0)
(0.0954984 -0.0012848 0)
(0.0956751 -0.00122659 0)
(0.0958467 -0.00116501 0)
(0.0960133 -0.00109752 0)
(0.0961749 -0.00102257 0)
(0.0963317 -0.00094034 0)
(0.0964836 -0.000853176 0)
(0.0966305 -0.000765344 0)
(0.0967722 -0.000682109 0)
(0.0969083 -0.000608405 0)
(0.0970386 -0.000547599 0)
(0.097163 -0.000500804 0)
(0.0972816 -0.000466933 0)
(0.0973946 -0.000443358 0)
(0.0975025 -0.000426822 0)
(0.0976058 -0.000414257 0)
(0.0977051 -0.000403282 0)
(0.0978007 -0.000392365 0)
(0.097893 -0.000380726 0)
(0.0979824 -0.000368127 0)
(0.0980691 -0.000354652 0)
(0.0981531 -0.000340528 0)
(0.0982345 -0.000326019 0)
(0.0983135 -0.000311368 0)
(0.09839 -0.000296772 0)
(0.0984641 -0.000282385 0)
(0.0985358 -0.000268316 0)
(0.0986052 -0.000254643 0)
(0.0986723 -0.000241417 0)
(0.0987371 -0.000228671 0)
(0.0987996 -0.000216422 0)
(0.09886 -0.00020468 0)
(0.0989182 -0.000193443 0)
(0.0989744 -0.000182706 0)
(0.0990284 -0.000172462 0)
(0.0990805 -0.000162696 0)
(0.0991306 -0.000153395 0)
(0.0991788 -0.000144544 0)
(0.0992251 -0.000136127 0)
(0.0992696 -0.000128126 0)
(0.0993124 -0.000120526 0)
(0.0993534 -0.00011331 0)
(0.0951643 -0.00159169 0)
(0.0953423 -0.00152368 0)
(0.095515 -0.00145754 0)
(0.0956826 -0.00139105 0)
(0.0958453 -0.00132162 0)
(0.0960035 -0.00124681 0)
(0.0961578 -0.00116509 0)
(0.0963088 -0.00107656 0)
(0.0964568 -0.000983395 0)
(0.0966022 -0.000889657 0)
(0.0967446 -0.000800409 0)
(0.0968834 -0.000720474 0)
(0.0970181 -0.000653228 0)
(0.0971477 -0.000599907 0)
(0.0972718 -0.000559616 0)
(0.0973901 -0.000529924 0)
(0.0975026 -0.000507724 0)
(0.0976096 -0.000490023 0)
(0.0977117 -0.000474447 0)
(0.0978094 -0.000459415 0)
(0.0979031 -0.000444073 0)
(0.0979933 -0.000428107 0)
(0.0980803 -0.000411526 0)
(0.0981644 -0.000394504 0)
(0.0982457 -0.000377263 0)
(0.0983243 -0.000360019 0)
(0.0984004 -0.000342952 0)
(0.0984741 -0.000326202 0)
(0.0985453 -0.000309872 0)
(0.0986142 -0.000294033 0)
(0.0986807 -0.000278735 0)
(0.098745 -0.000264006 0)
(0.0988071 -0.000249862 0)
(0.098867 -0.000236307 0)
(0.0989248 -0.000223341 0)
(0.0989805 -0.000210955 0)
(0.0990342 -0.000199137 0)
(0.0990859 -0.000187872 0)
(0.0991356 -0.000177144 0)
(0.0991835 -0.000166934 0)
(0.0992295 -0.000157223 0)
(0.0992737 -0.000147993 0)
(0.0993162 -0.000139225 0)
(0.0993569 -0.000130897 0)
(0.0952193 -0.0017772 0)
(0.0953887 -0.00170007 0)
(0.0955527 -0.00162517 0)
(0.0957116 -0.00155044 0)
(0.0958657 -0.00147348 0)
(0.0960158 -0.00139203 0)
(0.0961627 -0.00130459 0)
(0.0963075 -0.00121119 0)
(0.0964509 -0.00111373 0)
(0.0965934 -0.00101587 0)
(0.0967348 -0.000922245 0)
(0.0968744 -0.000837373 0)
(0.0970111 -0.000764507 0)
(0.0971438 -0.000704972 0)
(0.0972713 -0.000658124 0)
(0.097393 -0.000621846 0)
(0.0975086 -0.00059332 0)
(0.0976183 -0.000569756 0)
(0.0977224 -0.000548879 0)
(0.0978214 -0.000529115 0)
(0.0979161 -0.00050956 0)
(0.0980067 -0.000489819 0)
(0.0980938 -0.000469819 0)
(0.0981778 -0.000449662 0)
(0.0982588 -0.000429512 0)
(0.098337 -0.000409542 0)
(0.0984125 -0.000389902 0)
(0.0984856 -0.000370712 0)
(0.0985562 -0.000352061 0)
(0.0986245 -0.00033401 0)
(0.0986905 -0.000316601 0)
(0.0987542 -0.000299857 0)
(0.0988157 -0.000283789 0)
(0.098875 -0.000268399 0)
(0.0989323 -0.000253682 0)
(0.0989875 -0.000239626 0)
(0.0990407 -0.000226216 0)
(0.0990919 -0.000213434 0)
(0.0991413 -0.000201261 0)
(0.0991887 -0.000189675 0)
(0.0992344 -0.000178656 0)
(0.0992783 -0.000168182 0)
(0.0993204 -0.000158229 0)
(0.0993609 -0.000148777 0)
(0.095295 -0.001954 0)
(0.0954562 -0.0018678 0)
(0.095612 -0.00178427 0)
(0.0957627 -0.00170155 0)
(0.0959089 -0.00161749 0)
(0.0960514 -0.00153003 0)
(0.0961912 -0.00143779 0)
(0.0963297 -0.00134068 0)
(0.0964679 -0.00124027 0)
(0.0966063 -0.00113971 0)
(0.096745 -0.00104309 0)
(0.0968831 -0.00095446 0)
(0.0970195 -0.000876864 0)
(0.0971527 -0.000811667 0)
(0.0972813 -0.000758486 0)
(0.0974043 -0.000715581 0)
(0.0975213 -0.000680506 0)
(0.0976321 -0.000650759 0)
(0.0977371 -0.000624232 0)
(0.0978368 -0.000599407 0)
(0.0979317 -0.000575355 0)
(0.0980224 -0.000551612 0)
(0.0981094 -0.000528021 0)
(0.0981929 -0.000504605 0)
(0.0982734 -0.000481462 0)
(0.098351 -0.000458713 0)
(0.0984259 -0.000436472 0)
(0.0984983 -0.00041483 0)
(0.0985683 -0.000393858 0)
(0.0986358 -0.000373603 0)
(0.0987011 -0.000354097 0)
(0.0987641 -0.000335356 0)
(0.098825 -0.000317385 0)
(0.0988837 -0.000300181 0)
(0.0989404 -0.000283733 0)
(0.0989951 -0.000268028 0)
(0.0990478 -0.000253046 0)
(0.0990985 -0.000238767 0)
(0.0991474 -0.000225168 0)
(0.0991944 -0.000212225 0)
(0.0992397 -0.000199913 0)
(0.0992832 -0.000188208 0)
(0.099325 -0.000177086 0)
(0.0993651 -0.000166522 0)
(0.0953902 -0.00212225 0)
(0.0955434 -0.00202724 0)
(0.0956914 -0.00193536 0)
(0.0958345 -0.00184498 0)
(0.0959733 -0.00175421 0)
(0.0961086 -0.00166123 0)
(0.0962418 -0.0015648 0)
(0.096374 -0.00146473 0)
(0.0965065 -0.00136225 0)
(0.0966399 -0.00125994 0)
(0.0967743 -0.00116129 0)
(0.0969091 -0.00106982 0)
(0.0970429 -0.000988276 0)
(0.0971743 -0.000918019 0)
(0.0973018 -0.000858911 0)
(0.0974241 -0.000809598 0)
(0.0975407 -0.00076804 0)
(0.0976513 -0.000732067 0)
(0.0977562 -0.000699781 0)
(0.0978556 -0.00066976 0)
(0.0979502 -0.000641075 0)
(0.0980405 -0.000613209 0)
(0.0981269 -0.00058593 0)
(0.0982098 -0.000559183 0)
(0.0982896 -0.000532998 0)
(0.0983664 -0.000507442 0)
(0.0984406 -0.000482586 0)
(0.0985122 -0.000458492 0)
(0.0985813 -0.000435207 0)
(0.0986481 -0.000412764 0)
(0.0987126 -0.00039118 0)
(0.0987749 -0.000370464 0)
(0.0988351 -0.000350613 0)
(0.0988931 -0.000331618 0)
(0.0989492 -0.000313465 0)
(0.0990032 -0.000296134 0)
(0.0990553 -0.000279603 0)
(0.0991055 -0.000263848 0)
(0.0991539 -0.000248843 0)
(0.0992005 -0.00023456 0)
(0.0992453 -0.000220974 0)
(0.0992884 -0.000208056 0)
(0.0993298 -0.00019578 0)
(0.0993696 -0.000184117 0)
(0.0955017 -0.00228201 0)
(0.095647 -0.00217867 0)
(0.0957875 -0.00207887 0)
(0.0959234 -0.00198124 0)
(0.0960553 -0.00188415 0)
(0.0961841 -0.00178606 0)
(0.0963109 -0.00168584 0)
(0.0964369 -0.00158323 0)
(0.0965634 -0.00147914 0)
(0.0966911 -0.00137563 0)
(0.0968202 -0.00127555 0)
(0.0969501 -0.00118188 0)
(0.0970797 -0.00109703 0)
(0.0972075 -0.00102233 0)
(0.0973319 -0.000957823 0)
(0.0974519 -0.000902521 0)
(0.0975667 -0.00085478 0)
(0.0976758 -0.00081277 0)
(0.0977795 -0.000774828 0)
(0.0978779 -0.000739649 0)
(0.0979716 -0.000706331 0)
(0.0980609 -0.000674323 0)
(0.0981464 -0.000643333 0)
(0.0982284 -0.000613235 0)
(0.0983073 -0.000583995 0)
(0.0983832 -0.000555629 0)
(0.0984565 -0.000528164 0)
(0.0985271 -0.000501631 0)
(0.0985954 -0.000476052 0)
(0.0986613 -0.000451442 0)
(0.098725 -0.000427806 0)
(0.0987865 -0.000405141 0)
(0.0988458 -0.000383438 0)
(0.0989032 -0.000362679 0)
(0.0989585 -0.000342847 0)
(0.0990119 -0.000323916 0)
(0.0990634 -0.000305861 0)
(0.099113 -0.000288653 0)
(0.0991608 -0.000272264 0)
(0.0992069 -0.000256663 0)
(0.0992512 -0.000241821 0)
(0.0992938 -0.000227708 0)
(0.0993348 -0.000214293 0)
(0.0993742 -0.000201549 0)
(0.0956258 -0.0024333 0)
(0.0957633 -0.00232225 0)
(0.0958965 -0.00221511 0)
(0.0960255 -0.00211071 0)
(0.0961509 -0.00200774 0)
(0.0962734 -0.00190486 0)
(0.0963941 -0.00180111 0)
(0.0965142 -0.00169616 0)
(0.0966346 -0.00159065 0)
(0.0967563 -0.00148616 0)
(0.0968794 -0.00138495 0)
(0.0970035 -0.0012895 0)
(0.0971277 -0.00120188 0)
(0.0972505 -0.0011233 0)
(0.0973706 -0.00105398 0)
(0.097487 -0.000993232 0)
(0.0975987 -0.00093977 0)
(0.0977054 -0.000892085 0)
(0.097807 -0.000848749 0)
(0.0979037 -0.00080859 0)
(0.0979959 -0.000770753 0)
(0.0980839 -0.000734674 0)
(0.0981681 -0.000700016 0)
(0.098249 -0.000666596 0)
(0.0983267 -0.000634327 0)
(0.0984016 -0.000603173 0)
(0.0984737 -0.000573123 0)
(0.0985434 -0.000544177 0)
(0.0986106 -0.000516332 0)
(0.0986755 -0.000489586 0)
(0.0987383 -0.000463929 0)
(0.0987989 -0.000439347 0)
(0.0988574 -0.000415821 0)
(0.098914 -0.000393331 0)
(0.0989686 -0.000371848 0)
(0.0990212 -0.000351346 0)
(0.099072 -0.000331793 0)
(0.099121 -0.000313158 0)
(0.0991683 -0.000295409 0)
(0.0992137 -0.000278512 0)
(0.0992575 -0.000262435 0)
(0.0992997 -0.000247146 0)
(0.0993402 -0.000232612 0)
(0.0993792 -0.000218801 0)
(0.095759 -0.00257613 0)
(0.0958887 -0.00245807 0)
(0.0960147 -0.00234424 0)
(0.096137 -0.00223367 0)
(0.0962561 -0.00212526 0)
(0.0963726 -0.00201794 0)
(0.0964874 -0.00191084 0)
(0.0966016 -0.00180363 0)
(0.0967162 -0.00169671 0)
(0.0968317 -0.00159125 0)
(0.0969486 -0.00148902 0)
(0.0970664 -0.00139203 0)
(0.0971844 -0.001302 0)
(0.0973015 -0.00122007 0)
(0.0974165 -0.00114653 0)
(0.0975283 -0.00108092 0)
(0.0976361 -0.00102228 0)
(0.0977396 -0.000969389 0)
(0.0978385 -0.000921028 0)
(0.0979329 -0.000876166 0)
(0.0980231 -0.00083401 0)
(0.0981094 -0.000794001 0)
(0.0981921 -0.000755775 0)
(0.0982715 -0.000719107 0)
(0.0983479 -0.000683864 0)
(0.0984215 -0.00064997 0)
(0.0984924 -0.000617378 0)
(0.0985609 -0.000586059 0)
(0.098627 -0.000555988 0)
(0.0986909 -0.000527143 0)
(0.0987527 -0.000499502 0)
(0.0988123 -0.000473039 0)
(0.0988699 -0.000447728 0)
(0.0989256 -0.000423538 0)
(0.0989794 -0.000400439 0)
(0.0990313 -0.000378396 0)
(0.0990814 -0.000357375 0)
(0.0991297 -0.00033734 0)
(0.0991763 -0.000318257 0)
(0.0992212 -0.000300088 0)
(0.0992644 -0.000282799 0)
(0.099306 -0.000266354 0)
(0.099346 -0.000250719 0)
(0.0993845 -0.00023586 0)
(0.0958985 -0.00271041 0)
(0.0960204 -0.00258613 0)
(0.0961391 -0.00246633 0)
(0.0962548 -0.00235022 0)
(0.0963677 -0.00223689 0)
(0.0964783 -0.00212547 0)
(0.0965875 -0.0020152 0)
(0.096696 -0.00190576 0)
(0.0968047 -0.00179736 0)
(0.0969142 -0.00169085 0)
(0.0970247 -0.00158759 0)
(0.0971361 -0.00148916 0)
(0.0972478 -0.00139703 0)
(0.0973588 -0.00131217 0)
(0.0974682 -0.00123494 0)
(0.0975749 -0.00116507 0)
(0.0976784 -0.00110182 0)
(0.0977781 -0.00104423 0)
(0.0978738 -0.000991266 0)
(0.0979655 -0.000942038 0)
(0.0980533 -0.00089582 0)
(0.0981376 -0.000852073 0)
(0.0982184 -0.000810421 0)
(0.0982962 -0.000770613 0)
(0.098371 -0.000732482 0)
(0.0984431 -0.000695917 0)
(0.0985127 -0.000660844 0)
(0.0985799 -0.000627205 0)
(0.0986448 -0.000594957 0)
(0.0987076 -0.00056406 0)
(0.0987682 -0.000534479 0)
(0.0988268 -0.000506178 0)
(0.0988835 -0.00047912 0)
(0.0989382 -0.00045327 0)
(0.0989911 -0.000428589 0)
(0.0990422 -0.000405039 0)
(0.0990915 -0.000382581 0)
(0.0991391 -0.000361176 0)
(0.099185 -0.000340786 0)
(0.0992292 -0.000321371 0)
(0.0992718 -0.000302893 0)
(0.0993129 -0.000285315 0)
(0.0993524 -0.0002686 0)
(0.0993904 -0.000252711 0)
(0.0960425 -0.00283607 0)
(0.0961565 -0.00270639 0)
(0.0962679 -0.00258138 0)
(0.0963768 -0.00246038 0)
(0.0964835 -0.00234267 0)
(0.0965883 -0.00222752 0)
(0.0966918 -0.00211431 0)
(0.0967947 -0.00200267 0)
(0.0968977 -0.00189272 0)
(0.0970013 -0.00178505 0)
(0.0971056 -0.00168069 0)
(0.0972107 -0.00158089 0)
(0.0973161 -0.00148685 0)
(0.097421 -0.00139942 0)
(0.0975246 -0.00131898 0)
(0.0976261 -0.00124538 0)
(0.0977248 -0.00117808 0)
(0.0978204 -0.00111629 0)
(0.0979126 -0.00105917 0)
(0.0980012 -0.00100594 0)
(0.0980864 -0.000955949 0)
(0.0981683 -0.000908689 0)
(0.0982471 -0.000863787 0)
(0.0983229 -0.000820974 0)
(0.098396 -0.000780063 0)
(0.0984665 -0.000740916 0)
(0.0985346 -0.000703436 0)
(0.0986004 -0.000667544 0)
(0.098664 -0.000633178 0)
(0.0987255 -0.000600284 0)
(0.0987849 -0.000568813 0)
(0.0988424 -0.00053872 0)
(0.098898 -0.000509961 0)
(0.0989518 -0.000482491 0)
(0.0990038 -0.000456267 0)
(0.099054 -0.000431246 0)
(0.0991024 -0.000407386 0)
(0.0991493 -0.000384643 0)
(0.0991944 -0.000362975 0)
(0.099238 -0.000342341 0)
(0.09928 -0.0003227 0)
(0.0993204 -0.000304012 0)
(0.0993594 -0.000286238 0)
(0.0993968 -0.00026934 0)
(0.0961899 -0.00295302 0)
(0.0962959 -0.00281876 0)
(0.0963999 -0.00268928 0)
(0.096502 -0.00256408 0)
(0.0966023 -0.00244255 0)
(0.0967012 -0.00232409 0)
(0.096799 -0.00220817 0)
(0.0968964 -0.00209444 0)
(0.0969937 -0.00198291 0)
(0.0970915 -0.001874 0)
(0.0971899 -0.00176847 0)
(0.0972888 -0.00166731 0)
(0.097388 -0.00157152 0)
(0.0974868 -0.00148182 0)
(0.0975847 -0.00139858 0)
(0.0976809 -0.00132174 0)
(0.0977748 -0.00125088 0)
(0.0978661 -0.00118537 0)
(0.0979545 -0.00112453 0)
(0.0980398 -0.00106767 0)
(0.0981221 -0.00101421 0)
(0.0982014 -0.000963682 0)
(0.0982779 -0.000915723 0)
(0.0983517 -0.000870063 0)
(0.0984229 -0.000826497 0)
(0.0984917 -0.000784874 0)
(0.0985581 -0.000745075 0)
(0.0986224 -0.000707007 0)
(0.0986846 -0.000670592 0)
(0.0987447 -0.000635763 0)
(0.0988029 -0.000602459 0)
(0.0988592 -0.000570627 0)
(0.0989137 -0.000540213 0)
(0.0989664 -0.000511169 0)
(0.0990174 -0.000483444 0)
(0.0990667 -0.000456992 0)
(0.0991143 -0.000431765 0)
(0.0991603 -0.000407717 0)
(0.0992047 -0.000384803 0)
(0.0992475 -0.000362979 0)
(0.0992888 -0.000342202 0)
(0.0993286 -0.000322429 0)
(0.099367 -0.00030362 0)
(0.0994039 -0.000285733 0)
(0.0963399 -0.00306117 0)
(0.0964378 -0.00292313 0)
(0.0965343 -0.00278995 0)
(0.0966295 -0.00266121 0)
(0.0967234 -0.00253643 0)
(0.0968162 -0.00241509 0)
(0.0969083 -0.00229675 0)
(0.097 -0.00218107 0)
(0.0970918 -0.002068 0)
(0.0971838 -0.00195781 0)
(0.0972764 -0.00185109 0)
(0.0973694 -0.00174862 0)
(0.0974626 -0.0016512 0)
(0.0975556 -0.00155949 0)
(0.0976478 -0.0014738 0)
(0.0977387 -0.00139412 0)
(0.0978279 -0.00132015 0)
(0.0979148 -0.00125138 0)
(0.0979993 -0.00118722 0)
(0.0980811 -0.00112708 0)
(0.0981603 -0.00107046 0)
(0.0982369 -0.00101691 0)
(0.0983109 -0.000966106 0)
(0.0983824 -0.000917766 0)
(0.0984516 -0.000871687 0)
(0.0985185 -0.000827704 0)
(0.0985832 -0.000785688 0)
(0.0986458 -0.00074553 0)
(0.0987065 -0.000707143 0)
(0.0987652 -0.000670446 0)
(0.0988221 -0.000635372 0)
(0.0988771 -0.000601857 0)
(0.0989304 -0.000569842 0)
(0.098982 -0.000539272 0)
(0.0990319 -0.000510091 0)
(0.0990802 -0.000482249 0)
(0.0991269 -0.000455694 0)
(0.0991721 -0.000430377 0)
(0.0992156 -0.00040625 0)
(0.0992577 -0.000383267 0)
(0.0992983 -0.000361382 0)
(0.0993375 -0.00034055 0)
(0.0993752 -0.000320729 0)
(0.0994115 -0.000301877 0)
(0.0964921 -0.00316048 0)
(0.0965819 -0.00301942 0)
(0.0966709 -0.00288326 0)
(0.096759 -0.00275164 0)
(0.0968463 -0.00262416 0)
(0.096933 -0.00250041 0)
(0.0970192 -0.00237997 0)
(0.0971052 -0.00226254 0)
(0.0971913 -0.00214803 0)
(0.0972777 -0.0020366 0)
(0.0973646 -0.0019287 0)
(0.0974518 -0.00182497 0)
(0.0975393 -0.00172607 0)
(0.0976266 -0.00163255 0)
(0.0977134 -0.00154471 0)
(0.0977991 -0.00146257 0)
(0.0978835 -0.00138589 0)
(0.097966 -0.00131425 0)
(0.0980465 -0.00124715 0)
(0.0981248 -0.00118408 0)
(0.0982008 -0.00112458 0)
(0.0982745 -0.00106827 0)
(0.0983459 -0.00101483 0)
(0.098415 -0.000963988 0)
(0.098482 -0.000915544 0)
(0.0985469 -0.000869329 0)
(0.0986097 -0.000825204 0)
(0.0986707 -0.000783052 0)
(0.0987297 -0.000742776 0)
(0.0987869 -0.000704288 0)
(0.0988424 -0.000667511 0)
(0.0988961 -0.000632375 0)
(0.0989482 -0.000598815 0)
(0.0989986 -0.00056677 0)
(0.0990474 -0.000536181 0)
(0.0990947 -0.000506992 0)
(0.0991404 -0.00047915 0)
(0.0991846 -0.000452602 0)
(0.0992273 -0.000427297 0)
(0.0992686 -0.000403187 0)
(0.0993085 -0.000380223 0)
(0.0993469 -0.000358361 0)
(0.099384 -0.000337554 0)
(0.0994197 -0.000317758 0)
(0.0966462 -0.00325094 0)
(0.0967278 -0.0031076 0)
(0.0968092 -0.00296914 0)
(0.0968902 -0.00283526 0)