/*--------------------------------*- C++ -*----------------------------------*\
| =========                 |                                                 |
| \\      /  F ield         | OpenFOAM: The Open Source CFD Toolbox           |
|  \\    /   O peration     | Version:  2412                                  |
|   \\  /    A nd           | Website:  www.openfoam.com                      |
|    \\/     M anipulation  |                                                 |
\*---------------------------------------------------------------------------*/
FoamFile
{
    version     2.0;
    format      ascii;
    arch        "LSB;label=32;scalar=64";
    class       volScalarField;
    location    "29.5";
    object      p;
}
// * * * * * * * * * * * * * * * * * * * * * * * * * * * * * * * * * * * * * //

dimensions      [0 2 -2 0 0 0 0];

internalField   nonuniform List<scalar> 
63420
(
0.000907374
0.000907638
0.000908475
0.000909767
0.000911499
0.000913655
0.000916219
0.000919178
0.000922519
0.000926233
0.000930311
0.000934746
0.000939532
0.000944662
0.000950134
0.000955944
0.000962088
0.000968563
0.000975369
0.000982502
0.000989962
0.000997747
0.00100586
0.00101429
0.00102305
0.00103214
0.00104155
0.00105129
0.00106137
0.00107178
0.00108254
0.00109363
0.00110507
0.00111686
0.001129
0.0011415
0.00115437
0.00116759
0.00118119
0.00119516
0.00120951
0.00122424
0.00123935
0.00125486
0.00127075
0.00128705
0.00130375
0.00132085
0.00133836
0.00135629
0.00137463
0.0013934
0.00141259
0.00143222
0.00145229
0.000907314
0.000907577
0.000908414
0.000909705
0.000911435
0.00091359
0.000916152
0.000919109
0.000922448
0.000926159
0.000930234
0.000934665
0.000939447
0.000944574
0.000950041
0.000955846
0.000961985
0.000968455
0.000975254
0.000982381
0.000989834
0.000997612
0.00100571
0.00101414
0.00102289
0.00103197
0.00104137
0.0010511
0.00106117
0.00107157
0.00108231
0.00109339
0.00110482
0.00111659
0.00112872
0.0011412
0.00115404
0.00116725
0.00118083
0.00119478
0.0012091
0.00122381
0.0012389
0.00125437
0.00127024
0.00128651
0.00130317
0.00132024
0.00133771
0.0013556
0.00137391
0.00139263
0.00141178
0.00143136
0.00145137
0.000907193
0.000907456
0.000908291
0.000909581
0.000911308
0.00091346
0.000916019
0.000918971
0.000922305
0.000926011
0.000930079
0.000934504
0.000939278
0.000944397
0.000949856
0.000955651
0.000961779
0.000968238
0.000975026
0.00098214
0.000989579
0.000997342
0.00100543
0.00101384
0.00102257
0.00103163
0.00104101
0.00105072
0.00106077
0.00107114
0.00108186
0.00109291
0.00110431
0.00111605
0.00112815
0.0011406
0.0011534
0.00116657
0.00118011
0.00119401
0.00120829
0.00122295
0.00123799
0.00125341
0.00126922
0.00128542
0.00130202
0.00131902
0.00133642
0.00135424
0.00137246
0.00139109
0.00141015
0.00142963
0.00144954
0.000907011
0.000907273
0.000908107
0.000909394
0.000911118
0.000913265
0.000915818
0.000918764
0.000922091
0.000925788
0.000929848
0.000934262
0.000939025
0.000944132
0.000949577
0.000955358
0.000961471
0.000967913
0.000974683
0.000981778
0.000989196
0.000996938
0.001005
0.00101339
0.00102209
0.00103112
0.00104048
0.00105016
0.00106016
0.0010705
0.00108118
0.00109219
0.00110355
0.00111524
0.00112729
0.00113969
0.00115244
0.00116556
0.00117903
0.00119287
0.00120708
0.00122167
0.00123663
0.00125197
0.00126769
0.0012838
0.00130031
0.0013172
0.0013345
0.00135219
0.00137029
0.0013888
0.00140772
0.00142705
0.0014468
0.000906769
0.000907031
0.000907862
0.000909145
0.000910864
0.000913005
0.000915551
0.000918488
0.000921805
0.000925492
0.000929539
0.00093394
0.000938688
0.000943778
0.000949206
0.000954968
0.00096106
0.000967481
0.000974226
0.000981296
0.000988687
0.000996399
0.00100443
0.00101278
0.00102145
0.00103045
0.00103976
0.0010494
0.00105936
0.00106965
0.00108028
0.00109124
0.00110253
0.00111417
0.00112615
0.00113848
0.00115117
0.0011642
0.0011776
0.00119135
0.00120547
0.00121996
0.00123482
0.00125005
0.00126566
0.00128165
0.00129802
0.00131479
0.00133194
0.00134948
0.00136742
0.00138575
0.00140449
0.00142363
0.00144317
0.000906467
0.000906728
0.000907556
0.000908835
0.000910548
0.000912681
0.000915218
0.000918144
0.000921449
0.000925122
0.000929154
0.000933538
0.000938268
0.000943338
0.000948743
0.000954481
0.000960548
0.000966941
0.000973657
0.000980695
0.000988052
0.000995728
0.00100372
0.00101203
0.00102066
0.0010296
0.00103887
0.00104845
0.00105836
0.00106859
0.00107916
0.00109005
0.00110127
0.00111284
0.00112474
0.00113698
0.00114958
0.00116252
0.00117581
0.00118946
0.00120346
0.00121783
0.00123256
0.00124766
0.00126313
0.00127897
0.00129519
0.00131178
0.00132875
0.00134611
0.00136385
0.00138197
0.00140048
0.00141938
0.00143867
0.000906104
0.000906365
0.000907189
0.000908463
0.000910168
0.000912292
0.000914818
0.000917732
0.000921022
0.000924678
0.000928692
0.000933056
0.000937764
0.00094281
0.000948189
0.000953899
0.000959935
0.000966294
0.000972975
0.000979975
0.000987292
0.000994924
0.00100287
0.00101113
0.00101971
0.0010286
0.0010378
0.00104732
0.00105716
0.00106733
0.00107781
0.00108862
0.00109977
0.00111124
0.00112305
0.00113519
0.00114767
0.0011605
0.00117368
0.0011872
0.00120107
0.00121529
0.00122988
0.00124481
0.00126011
0.00127578
0.0012918
0.0013082
0.00132496
0.00134209
0.00135959
0.00137747
0.00139571
0.00141433
0.00143331
0.00147284
0.00149412
0.0015163
0.00153943
0.00156357
0.00158878
0.00161513
0.00164267
0.0016715
0.00170168
0.00173331
0.00176648
0.00180129
0.00183785
0.00187628
0.00191672
0.00195931
0.00200421
0.00205157
0.0021016
0.00215449
0.00221047
0.00226978
0.0023327
0.00239952
0.00247057
0.00254621
0.00262683
0.00271287
0.00280482
0.00290319
0.00300858
0.00312161
0.00324296
0.00337336
0.00351358
0.00366438
0.0038265
0.00400056
0.00418694
0.00438556
0.00459569
0.00481561
0.0050424
0.00527236
0.00550182
0.00572752
0.00595604
0.00625157
0.00670174
0.0014719
0.00149318
0.00151535
0.00153848
0.00156262
0.00158783
0.00161417
0.00164172
0.00167054
0.00170071
0.00173234
0.0017655
0.0018003
0.00183685
0.00187527
0.00191569
0.00195825
0.00200312
0.00205045
0.00210043
0.00215326
0.00220917
0.0022684
0.00233121
0.0023979
0.00246878
0.00254421
0.00262458
0.00271031
0.00280186
0.00289974
0.00300451
0.00311675
0.0032371
0.00336623
0.00350482
0.00365352
0.00381292
0.00398345
0.00416522
0.00435783
0.00456011
0.00476978
0.00498326
0.005196
0.00540347
0.0056019
0.00579703
0.00604885
0.00643808
0.00147002
0.00149129
0.00151347
0.00153659
0.00156072
0.00158593
0.00161226
0.0016398
0.00166861
0.00169878
0.00173039
0.00176354
0.00179832
0.00183484
0.00187323
0.00191362
0.00195614
0.00200094
0.0020482
0.00209809
0.00215081
0.00220658
0.00226564
0.00232824
0.00239467
0.00246523
0.00254026
0.00262013
0.00270523
0.00279601
0.00289292
0.00299647
0.00310716
0.00322555
0.00335217
0.00348754
0.00363209
0.00378611
0.00394962
0.00412222
0.00430282
0.00448936
0.00467843
0.00486507
0.00504305
0.00520606
0.00534952
0.00547769
0.0056382
0.00591787
0.0014672
0.00148847
0.00151063
0.00153375
0.00155787
0.00158307
0.00160939
0.00163692
0.00166571
0.00169586
0.00172745
0.00176057
0.00179532
0.00183181
0.00187015
0.00191047
0.00195291
0.00199762
0.00204476
0.00209451
0.00214706
0.00220261
0.0022614
0.00232367
0.0023897
0.00245975
0.00253417
0.00261327
0.00269743
0.00278702
0.00288245
0.00298413
0.00309248
0.0032079
0.00333074
0.00346126
0.00359958
0.00374553
0.00389857
0.0040575
0.00422021
0.00438331
0.00454169
0.00468832
0.00481448
0.00491108
0.00497228
0.00500341
0.0050369
0.00512372
0.00146346
0.00148473
0.00150688
0.00152999
0.00155411
0.00157929
0.00160561
0.00163312
0.00166191
0.00169204
0.00172361
0.0017567
0.00179142
0.00182786
0.00186614
0.0019064
0.00194875
0.00199335
0.00204035
0.00208992
0.00214225
0.00219753
0.00225598
0.00231782
0.00238332
0.00245272
0.00252632
0.00260441
0.00268731
0.00277532
0.00286877
0.00296795
0.00307315
0.00318456
0.00330228
0.00342625
0.00355612
0.00369113
0.00382995
0.00397035
0.00410887
0.00424034
0.00435749
0.00445064
0.0045079
0.00451657
0.00446817
0.00437089
0.00424598
0.00403487
0.00145882
0.00148008
0.00150225
0.00152537
0.00154951
0.00157471
0.00160106
0.0016286
0.00165742
0.00168758
0.00171919
0.00175231
0.00178707
0.00182354
0.00186186
0.00190213
0.0019445
0.00198911
0.0020361
0.00208563
0.0021379
0.00219307
0.00225137
0.002313
0.00237819
0.00244718
0.00252023
0.00259759
0.00267952
0.00276626
0.00285803
0.00295502
0.00305732
0.00316489
0.00327752
0.00339467
0.00351535
0.00363794
0.00375985
0.00387718
0.00398422
0.00407293
0.00413239
0.00414865
0.00410503
0.00398391
0.0037725
0.00347978
0.00311877
0.00250616
0.00145325
0.00147445
0.00149657
0.00151964
0.00154373
0.00156889
0.00159519
0.00162269
0.00165146
0.00168159
0.00171314
0.00174623
0.00178093
0.00181736
0.00185562
0.00189583
0.00193813
0.00198265
0.00202954
0.00207895
0.00213107
0.00218606
0.00224413
0.00230547
0.0023703
0.00243883
0.00251129
0.00258789
0.00266884
0.00275432
0.00284446
0.00293932
0.00303881
0.00314268
0.00325036
0.0033608
0.00347232
0.00358221
0.00368637
0.00377866
0.00385032
0.00388918
0.00387911
0.00380014
0.00362918
0.00334153
0.00292115
0.00238095
0.00168414
0.000547298
-0.00346193
-0.00352558
-0.0035479
-0.00354141
-0.00351701
-0.00347758
-0.00342494
-0.00336056
-0.0032854
-0.00320366
-0.00311349
-0.0030163
-0.00291318
-0.00280495
-0.00269235
-0.00257612
-0.00245695
-0.00233555
-0.00221258
-0.00208871
-0.00196455
-0.00184071
-0.00171778
-0.00159637
-0.00147702
-0.00136021
-0.00124635
-0.00113589
-0.00102918
-0.000926552
-0.000828291
-0.000734625
-0.000645738
-0.000561769
-0.000482809
-0.000408907
-0.000340072
-0.00027627
-0.000217436
-0.000163469
-0.00011424
-6.95932e-05
-2.93522e-05
6.67846e-06
3.87088e-05
6.69596e-05
9.16587e-05
0.000113037
0.000131325
0.000146756
-0.00352645
-0.00357108
-0.00358183
-0.00356832
-0.0035391
-0.00349639
-0.00344159
-0.00337596
-0.00330086
-0.00321779
-0.00312715
-0.00302984
-0.00292671
-0.00281852
-0.00270597
-0.0025898
-0.00247066
-0.00234927
-0.00222627
-0.00210232
-0.00197805
-0.00185404
-0.00173089
-0.00160922
-0.00148958
-0.00137243
-0.00125821
-0.00114735
-0.00104022
-0.000937159
-0.000838448
-0.000744321
-0.000654968
-0.00057053
-0.000491103
-0.000416739
-0.000347449
-0.000283203
-0.000223936
-0.00016955
-0.000119917
-7.48828e-05
-3.42713e-05
2.11269e-06
3.44791e-05
6.3049e-05
8.80511e-05
0.000109717
0.000128277
0.000143972
-0.00365498
-0.00366107
-0.00364877
-0.00362129
-0.00358231
-0.00353295
-0.00347378
-0.00340534
-0.00332908
-0.00324458
-0.00315329
-0.00305576
-0.00295262
-0.00284458
-0.00273209
-0.00261607
-0.00249707
-0.00237573
-0.00225271
-0.00212865
-0.00200417
-0.00187987
-0.00175633
-0.00163417
-0.00151397
-0.00139619
-0.00128129
-0.00116968
-0.00106175
-0.000957853
-0.000858275
-0.00076326
-0.000673007
-0.000587663
-0.000507332
-0.000432072
-0.000361899
-0.000296789
-0.000236681
-0.00018148
-0.000131061
-8.5272e-05
-4.39382e-05
-6.86524e-06
2.61566e-05
5.53491e-05
8.09425e-05
0.00010317
0.000122262
0.000138476
-0.00385348
-0.00378961
-0.0037467
-0.00369816
-0.00364438
-0.00358519
-0.00351955
-0.00344652
-0.00336839
-0.0032822
-0.00319012
-0.00309217
-0.00298889
-0.0028811
-0.00276899
-0.00265323
-0.00253443
-0.00241321
-0.0022902
-0.00216604
-0.00204133
-0.00191666
-0.00179261
-0.0016698
-0.00154883
-0.0014302
-0.00131434
-0.00120169
-0.00109265
-0.000987581
-0.000886786
-0.000790522
-0.000698998
-0.000612372
-0.000530759
-0.000454227
-0.000382798
-0.000316457
-0.000255149
-0.000198783
-0.00014724
-0.00010037
-5.80018e-05
-1.99412e-05
1.40207e-05
4.41065e-05
7.05481e-05
9.35814e-05
0.000113441
0.000130407
-0.00410608
-0.00395795
-0.00387382
-0.00379478
-0.00372108
-0.00364909
-0.00357461
-0.0034941
-0.0034147
-0.00332701
-0.00323399
-0.00313587
-0.00303281
-0.00292521
-0.00281348
-0.00269813
-0.0025797
-0.00245876
-0.00233591
-0.00221175
-0.00208689
-0.0019619
-0.00183737
-0.00171389
-0.00159208
-0.00147249
-0.00135556
-0.00124171
-0.00113137
-0.00102493
-0.000922689
-0.00082493
-0.000731873
-0.000643693
-0.000560516
-0.000482422
-0.000409445
-0.000341579
-0.000278778
-0.000220958
-0.000168005
-0.000119776
-7.61013e-05
-3.67905e-05
-1.63558e-06
2.9586e-05
5.71076e-05
8.11679e-05
0.000102012
0.000119947
-0.00437303
-0.00416741
-0.00403271
-0.00391651
-0.0038158
-0.00372453
-0.00363746
-0.00355522
-0.00346534
-0.00337381
-0.00327938
-0.00318082
-0.00307798
-0.002971
-0.00286013
-0.00274571
-0.0026282
-0.00250808
-0.00238589
-0.00226222
-0.00213764
-0.00201274
-0.00188806
-0.00176421
-0.0016418
-0.0015214
-0.0014035
-0.00128851
-0.00117689
-0.00106903
-0.000965269
-0.000865898
-0.00077116
-0.000681247
-0.000596303
-0.000516423
-0.000441657
-0.000372012
-0.000307453
-0.000247909
-0.000193273
-0.000143409
-9.81541e-05
-5.73231e-05
-2.07108e-05
1.19032e-05
4.07522e-05
6.60772e-05
8.81408e-05
0.00010727
-0.00463022
-0.00443214
-0.00424887
-0.00408592
-0.00394816
-0.0038272
-0.0037182
-0.00362365
-0.00352752
-0.00343179
-0.00333459
-0.00323464
-0.00313145
-0.00302478
-0.00291458
-0.00280101
-0.00268436
-0.00256503
-0.00244349
-0.00232024
-0.00219586
-0.00207093
-0.00194597
-0.00182157
-0.00169836
-0.00157691
-0.00145776
-0.00134135
-0.00122815
-0.00111858
-0.00101299
-0.000911705
-0.00081499
-0.000723057
-0.000636069
-0.000554142
-0.000477341
-0.000405689
-0.000339163
-0.000277703
-0.000221212
-0.000169561
-0.000122594
-8.0129e-05
-4.19639e-05
-7.88008e-06
2.23547e-05
4.89831e-05
7.22794e-05
9.25711e-05
0.000159581
0.000169994
0.000178322
0.000184748
0.000189401
0.000192413
0.000193923
0.000194069
0.000192988
0.000190817
0.000187691
0.000183741
0.000179093
0.00017387
0.000168185
0.000162143
0.000155841
0.000149366
0.000142796
0.000136198
0.000129632
0.000123146
0.000116781
0.000110571
0.000104541
9.87116e-05
9.30965e-05
8.77054e-05
8.25438e-05
7.76141e-05
7.29159e-05
6.84467e-05
6.42024e-05
6.01778e-05
5.63665e-05
5.27618e-05
4.93565e-05
4.61433e-05
4.31144e-05
4.02623e-05
3.75795e-05
3.50576e-05
3.26908e-05
3.04664e-05
2.83828e-05
2.6435e-05
2.46044e-05
2.28914e-05
2.12893e-05
1.97902e-05
1.83881e-05
1.70773e-05
1.5852e-05
1.47072e-05
1.36379e-05
1.26394e-05
1.17075e-05
1.08379e-05
1.00269e-05
9.2708e-06
8.56615e-06
7.90975e-06
7.29857e-06
6.72975e-06
6.20061e-06
5.70863e-06
5.25144e-06
4.82682e-06
4.43268e-06
4.06705e-06
3.72809e-06
3.41407e-06
3.12337e-06
2.85445e-06
2.60591e-06
2.37637e-06
2.16464e-06
1.96942e-06
1.78982e-06
1.62442e-06
1.47291e-06
1.33322e-06
1.20638e-06
1.08847e-06
9.83672e-07
8.83505e-07
7.9924e-07
7.12191e-07
6.48523e-07
5.68752e-07
5.27843e-07
4.47691e-07
4.342e-07
3.44084e-07
3.6488e-07
2.54183e-07
3.16717e-07
1.75884e-07
2.85308e-07
1.09031e-07
2.65342e-07
5.48117e-08
2.52222e-07
1.29672e-08
2.45098e-07
-2.18236e-08
2.51077e-07
-6.36081e-08
2.87619e-07
-1.36471e-07
3.8243e-07
-2.73121e-07
5.6991e-07
-5.10823e-07
8.81718e-07
0.000157082
0.000167596
0.000176035
0.000182599
0.000187394
0.000190546
0.000192192
0.000192469
0.000191513
0.00018946
0.000186445
0.0001826
0.00017805
0.000172918
0.000167317
0.000161353
0.000155123
0.000148715
0.000142206
0.000135664
0.000129149
0.00012271
0.000116388
0.000110216
0.000104221
9.84235e-05
9.2837e-05
8.74718e-05
8.23336e-05
7.7425e-05
7.27458e-05
6.82938e-05
6.40649e-05
6.00542e-05
5.62555e-05
5.26622e-05
4.92672e-05
4.60631e-05
4.30425e-05
4.01979e-05
3.75218e-05
3.50058e-05
3.26444e-05
3.04248e-05
2.83456e-05
2.64016e-05
2.45745e-05
2.28646e-05
2.12651e-05
1.97685e-05
1.83687e-05
1.70599e-05
1.58364e-05
1.46932e-05
1.36254e-05
1.26282e-05
1.16974e-05
1.08289e-05
1.00188e-05
9.26357e-06
8.55969e-06
7.90397e-06
7.2934e-06
6.72512e-06
6.19647e-06
5.70493e-06
5.24813e-06
4.82387e-06
4.43004e-06
4.06469e-06
3.72598e-06
3.41219e-06
3.12168e-06
2.85294e-06
2.60457e-06
2.37517e-06
2.16358e-06
1.96847e-06
1.78898e-06
1.62367e-06
1.47224e-06
1.33262e-06
1.20585e-06
1.088e-06
9.83254e-07
8.83137e-07
7.98911e-07
7.11903e-07
6.48265e-07
5.68527e-07
5.27639e-07
4.47518e-07
4.3404e-07
3.43955e-07
3.64755e-07
2.54085e-07
3.16615e-07
1.75811e-07
2.85228e-07
1.08977e-07
2.6528e-07
5.47683e-08
2.52175e-07
1.2935e-08
2.45054e-07
-2.18336e-08
2.5102e-07
-6.35966e-08
2.87554e-07
-1.36437e-07
3.82343e-07
-2.73067e-07
5.69834e-07
-5.10763e-07
8.81668e-07
0.000152113
0.000162837
0.000171504
0.000178342
0.000183419
0.000186847
0.000188762
0.000189298
0.000188588
0.000186768
0.000183973
0.000180333
0.000175977
0.000171025
0.000165591
0.000159782
0.000153696
0.000147419
0.000141032
0.000134602
0.000128188
0.000121842
0.000115604
0.000109509
0.000103584
9.78491e-05
9.23196e-05
8.70059e-05
8.19143e-05
7.70477e-05
7.24064e-05
6.79885e-05
6.37906e-05
5.98077e-05
5.60341e-05
5.24634e-05
4.90887e-05
4.5903e-05
4.2899e-05
4.00692e-05
3.74064e-05
3.49024e-05
3.25517e-05
3.03418e-05
2.82711e-05
2.63348e-05
2.45146e-05
2.28108e-05
2.1217e-05
1.97253e-05
1.83299e-05
1.70251e-05
1.58052e-05
1.46653e-05
1.36003e-05
1.26057e-05
1.16773e-05
1.08109e-05
1.00027e-05
9.24913e-06
8.54675e-06
7.8924e-06
7.28305e-06
6.71587e-06
6.1882e-06
5.69753e-06
5.24152e-06
4.81795e-06
4.42475e-06
4.05996e-06
3.72176e-06
3.40841e-06
3.11832e-06
2.84994e-06
2.60189e-06
2.37278e-06
2.16144e-06
1.96657e-06
1.78729e-06
1.62216e-06
1.4709e-06
1.33143e-06
1.20479e-06
1.08706e-06
9.82417e-07
8.82397e-07
7.98252e-07
7.11326e-07
6.47745e-07
5.68079e-07
5.27228e-07
4.47172e-07
4.33717e-07
3.43695e-07
3.64502e-07
2.53891e-07
3.16414e-07
1.75662e-07
2.85067e-07
1.08869e-07
2.65156e-07
5.46886e-08
2.52071e-07
1.28812e-08
2.44963e-07
-2.18602e-08
2.50919e-07
-6.35802e-08
2.87418e-07
-1.3636e-07
3.82165e-07
-2.72949e-07
5.6966e-07
-5.10622e-07
8.81561e-07
0.000144739
0.000155789
0.000164812
0.00017206
0.000177553
0.000181388
0.000183697
0.000184611
0.000184262
0.000182784
0.000180311
0.000176975
0.000172902
0.000168215
0.000163028
0.000157448
0.000151574
0.000145493
0.000139285
0.000133019
0.000126757
0.000120548
0.000114436
0.000108455
0.000102633
9.69922e-05
9.15476e-05
8.63106e-05
8.12883e-05
7.64842e-05
7.18995e-05
6.75326e-05
6.33806e-05
5.94392e-05
5.57031e-05
5.21661e-05
4.88219e-05
4.56636e-05
4.26843e-05
3.98766e-05
3.72338e-05
3.47477e-05
3.2413e-05
3.02174e-05
2.81596e-05
2.62348e-05
2.44249e-05
2.27304e-05
2.11448e-05
1.96606e-05
1.82719e-05
1.6973e-05
1.57585e-05
1.46234e-05
1.35628e-05
1.25721e-05
1.16472e-05
1.07839e-05
9.97852e-06
9.22748e-06
8.52738e-06
7.87506e-06
7.26753e-06
6.70199e-06
6.17579e-06
5.68643e-06
5.2316e-06
4.80908e-06
4.41682e-06
4.05288e-06
3.71543e-06
3.40276e-06
3.11327e-06
2.84543e-06
2.59786e-06
2.36919e-06
2.15825e-06
1.96372e-06
1.78475e-06
1.6199e-06
1.46889e-06
1.32964e-06
1.20319e-06
1.08564e-06
9.81159e-07
8.81286e-07
7.97262e-07
7.10458e-07
6.46965e-07
5.67404e-07
5.26613e-07
4.46652e-07
4.33233e-07
3.43303e-07
3.64122e-07
2.53596e-07
3.16113e-07
1.75439e-07
2.84829e-07
1.08705e-07
2.64971e-07
5.45675e-08
2.51918e-07
1.27985e-08
2.44829e-07
-2.19015e-08
2.5077e-07
-6.35574e-08
2.87217e-07
-1.36249e-07
3.81903e-07
-2.72778e-07
5.69404e-07
-5.10417e-07
8.81401e-07
0.00013506
0.000146565
0.000156085
0.000163875
0.000169908
0.00017427
0.000177087
0.000178488
0.000178604
0.000177568
0.000175513
0.000172569
0.000168865
0.000164523
0.000159658
0.000154377
0.000148779
0.000142954
0.000136981
0.000130932
0.000124867
0.000118839
0.000112892
0.000107061
0.000101376
9.58584e-05
9.05258e-05
8.539e-05
8.04592e-05
7.57378e-05
7.12277e-05
6.69282e-05
6.28371e-05
5.89506e-05
5.5264e-05
5.17717e-05
4.84678e-05
4.53458e-05
4.23991e-05
3.96209e-05
3.70044e-05
3.45421e-05
3.22287e-05
3.00522e-05
2.80115e-05
2.61018e-05
2.43057e-05
2.26234e-05
2.10488e-05
1.95745e-05
1.81946e-05
1.69037e-05
1.56964e-05
1.45677e-05
1.35128e-05
1.25273e-05
1.1607e-05
1.0748e-05
9.94634e-06
9.19866e-06
8.50158e-06
7.85198e-06
7.24688e-06
6.68351e-06
6.15926e-06
5.67166e-06
5.21839e-06
4.79727e-06
4.40627e-06
4.04345e-06
3.707e-06
3.39523e-06
3.10654e-06
2.83943e-06
2.59251e-06
2.36441e-06
2.15398e-06
1.95992e-06
1.78137e-06
1.61689e-06
1.46621e-06
1.32725e-06
1.20107e-06
1.08376e-06
9.79482e-07
8.79804e-07
7.95941e-07
7.093e-07
6.45926e-07
5.66502e-07
5.25795e-07
4.45957e-07
4.3259e-07
3.42776e-07
3.63619e-07
2.53199e-07
3.15716e-07
1.75138e-07
2.84519e-07
1.0848e-07
2.64731e-07
5.43983e-08
2.51724e-07
1.26794e-08
2.44658e-07
-2.19658e-08
2.50581e-07
-6.35381e-08
2.86962e-07
-1.36116e-07
3.81573e-07
-2.72571e-07
5.69088e-07
-5.10173e-07
8.81208e-07
0.000123204
0.000135321
0.000145491
0.000153944
0.000160628
0.000165621
0.000169047
0.000171033
0.000171706
0.0001712
0.000169646
0.000167177
0.000163919
0.000159995
0.00015552
0.000150602
0.000145341
0.000139828
0.000134143
0.000128358
0.000122536
0.00011673
0.000110985
0.000105339
9.98207e-05
9.44553e-05
8.92605e-05
8.42496e-05
7.94317e-05
7.48124e-05
7.03945e-05
6.61784e-05
6.21625e-05
5.83439e-05
5.47186e-05
5.12817e-05
4.80277e-05
4.49507e-05
4.20446e-05
3.93028e-05
3.67192e-05
3.42862e-05
3.19992e-05
2.98464e-05
2.7827e-05
2.59362e-05
2.41571e-05
2.24902e-05
2.09292e-05
1.94672e-05
1.80983e-05
1.68173e-05
1.56189e-05
1.44982e-05
1.34505e-05
1.24715e-05
1.1557e-05
1.07031e-05
9.9062e-06
9.16272e-06
8.46941e-06
7.82318e-06
7.22111e-06
6.66046e-06
6.13864e-06
5.65322e-06
5.2019e-06
4.78253e-06
4.39309e-06
4.03167e-06
3.69648e-06
3.38583e-06
3.09815e-06
2.83193e-06
2.58582e-06
2.35845e-06
2.14866e-06
1.95518e-06
1.77714e-06
1.61313e-06
1.46285e-06
1.32427e-06
1.19842e-06
1.0814e-06
9.77387e-07
8.77953e-07
7.94291e-07
7.07852e-07
6.44627e-07
5.65376e-07
5.24773e-07
4.4509e-07
4.31787e-07
3.42118e-07
3.6299e-07
2.52703e-07
3.1522e-07
1.74764e-07
2.84131e-07
1.08201e-07
2.6443e-07
5.41894e-08
2.5148e-07
1.25326e-08
2.44444e-07
-2.2044e-08
2.50346e-07
-6.35128e-08
2.86644e-07
-1.35951e-07
3.8116e-07
-2.7231e-07
5.68686e-07
-5.09859e-07
8.80931e-07
0.000109281
0.000122226
0.000133221
0.000142448
0.000149877
0.000155589
0.000159708
0.000162358
0.000163668
0.000163767
0.00016279
0.000160865
0.000158121
0.00015468
0.000150657
0.000146161
0.000141292
0.000136142
0.000130793
0.000125318
0.00011978
0.000114234
0.000108727
0.000103298
9.79771e-05
9.2791e-05
8.77589e-05
8.28954e-05
7.8211e-05
7.37124e-05
6.94037e-05
6.52863e-05
6.13596e-05
5.76217e-05
5.40692e-05
5.06979e-05
4.75032e-05
4.44797e-05
4.16217e-05
3.89234e-05
3.63787e-05
3.39808e-05
3.17252e-05
2.96007e-05
2.76065e-05
2.57383e-05
2.39796e-05
2.23308e-05
2.07862e-05
1.93388e-05
1.79832e-05
1.6714e-05
1.55262e-05
1.4415e-05
1.3376e-05
1.24047e-05
1.14971e-05
1.06495e-05
9.85815e-06
9.11969e-06
8.43089e-06
7.7887e-06
7.19026e-06
6.63286e-06
6.11395e-06
5.63113e-06
5.18215e-06
4.76487e-06
4.37731e-06
4.01756e-06
3.68387e-06
3.37457e-06
3.08809e-06
2.82295e-06
2.5778e-06
2.35129e-06
2.14228e-06
1.94949e-06
1.77207e-06
1.60861e-06
1.45883e-06
1.3207e-06
1.19523e-06
1.07858e-06
9.74872e-07
8.75735e-07
7.92308e-07
7.06121e-07
6.43061e-07
5.64037e-07
5.23533e-07
4.44069e-07
4.308e-07
3.4136e-07
3.62196e-07
2.52154e-07
3.14572e-07
1.74379e-07
2.83596e-07
1.07944e-07
2.63984e-07
5.40279e-08
2.51096e-07
1.2451e-08
2.4409e-07
-2.20389e-08
2.4996e-07
-6.33724e-08
2.86139e-07
-1.35611e-07
3.80492e-07
-2.71782e-07
5.67933e-07
-5.09147e-07
8.80191e-07
9.29904e-05
0.000107125
0.000119165
0.000129279
0.000137543
0.00014406
0.000148955
0.000152351
0.000154376
0.000155161
0.000154836
0.000153531
0.000151374
0.000148486
0.000144982
0.000140972
0.000136556
0.000131826
0.000126866
0.00012175
0.000116542
0.000111299
0.00010607
0.000100894
9.5804e-05
9.08279e-05
8.59865e-05
8.12961e-05
7.67685e-05
7.2412e-05
6.82318e-05
6.42306e-05
6.0409e-05
5.67661e-05
5.32995e-05
5.00058e-05
4.68812e-05
4.39208e-05
4.11199e-05
3.84728e-05
3.59743e-05
3.36179e-05
3.13995e-05
2.93085e-05
2.73443e-05
2.55028e-05
2.37684e-05
2.21412e-05
2.0616e-05
1.91861e-05
1.78461e-05
1.6591e-05
1.54158e-05
1.4316e-05
1.32872e-05
1.23251e-05
1.14258e-05
1.05856e-05
9.80088e-06
9.0684e-06
8.38497e-06
7.74759e-06
7.15347e-06
6.59994e-06
6.0845e-06
5.60479e-06
5.15859e-06
4.74381e-06
4.35847e-06
4.00073e-06
3.66883e-06
3.36113e-06
3.07608e-06
2.81223e-06
2.56823e-06
2.34275e-06
2.13466e-06
1.9427e-06
1.76602e-06
1.60322e-06
1.45403e-06
1.31643e-06
1.19143e-06
1.07521e-06
9.71865e-07
8.7309e-07
7.89931e-07
7.04062e-07
6.41177e-07
5.62455e-07
5.22026e-07
4.42883e-07
4.29577e-07
3.40507e-07
3.6118e-07
2.51579e-07
3.13701e-07
1.74029e-07
2.82831e-07
1.07774e-07
2.63303e-07
5.39909e-08
2.50476e-07
1.25188e-08
2.43498e-07
-2.18605e-08
2.49321e-07
-6.30135e-08
2.85323e-07
-1.34956e-07
3.7939e-07
-2.70773e-07
5.66557e-07
-5.07714e-07
8.78635e-07
7.54485e-05
9.05764e-05
0.000103588
0.000114617
0.000123766
0.000131147
0.00013688
0.000141087
0.000143895
0.000145432
0.000145827
0.00014521
0.000143704
0.000141432
0.000138509
0.000135044
0.000131137
0.000126882
0.000122361
0.000117652
0.000112819
0.000107921
0.000103008
9.81206e-05
9.32949e-05
8.85593e-05
8.39367e-05
7.94449e-05
7.50975e-05
7.09045e-05
6.68724e-05
6.30053e-05
5.93051e-05
5.5772e-05
5.24046e-05
4.92007e-05
4.61572e-05
4.327e-05
4.05351e-05
3.79475e-05
3.55026e-05
3.31944e-05
3.10193e-05
2.89673e-05
2.7038e-05
2.52277e-05
2.35214e-05
2.19196e-05
2.0417e-05
1.90074e-05
1.76857e-05
1.6447e-05
1.52867e-05
1.42002e-05
1.31832e-05
1.22319e-05
1.13422e-05
1.05107e-05
9.7338e-06
9.00832e-06
8.33117e-06
7.69943e-06
7.11036e-06
6.56136e-06
6.04998e-06
5.57391e-06
5.13097e-06
4.71911e-06
4.33639e-06
3.98099e-06
3.65119e-06
3.34536e-06
3.062e-06
2.79966e-06
2.557e-06
2.33273e-06
2.12573e-06
1.93473e-06
1.75891e-06
1.5969e-06
1.4484e-06
1.31142e-06
1.18697e-06
1.07125e-06
9.68339e-07
8.69976e-07
7.8715e-07
7.01628e-07
6.38985e-07
5.60569e-07
5.20294e-07
4.41442e-07
4.28202e-07
3.39427e-07
3.60081e-07
2.50789e-07
3.12812e-07
1.73465e-07
2.82107e-07
1.07384e-07
2.62709e-07
5.37299e-08
2.49976e-07
1.23632e-08
2.43047e-07
-2.19032e-08
2.48838e-07
-6.28835e-08
2.84693e-07
-1.34569e-07
3.78552e-07
-2.7014e-07
5.65613e-07
-5.06848e-07
8.77801e-07
5.71092e-05
7.31332e-05
8.70614e-05
9.89973e-05
0.000109041
0.000117304
0.0001239
0.000128949
0.000132573
0.000134899
0.000136054
0.000136163
0.00013535
0.000133736
0.000131434
0.000128553
0.000125194
0.00012145
0.000117406
0.000113138
0.000108713
0.000104191
9.96226e-05
9.50518e-05
9.05154e-05
8.60437e-05
8.16615e-05
7.73885e-05
7.324e-05
6.92274e-05
6.53589e-05
6.16402e-05
5.80744e-05
5.4663e-05
5.14058e-05
4.83016e-05
4.53481e-05
4.25424e-05
3.98809e-05
3.73596e-05
3.49744e-05
3.272e-05
3.05931e-05
2.85846e-05
2.66943e-05
2.4919e-05
2.32443e-05
2.16706e-05
2.01935e-05
1.88067e-05
1.75055e-05
1.62852e-05
1.51415e-05
1.40699e-05
1.30664e-05
1.21271e-05
1.12483e-05
1.04265e-05
9.65833e-06
8.94071e-06
8.27061e-06
7.64521e-06
7.06182e-06
6.51791e-06
6.0111e-06
5.53913e-06
5.09986e-06
4.69129e-06
4.31151e-06
3.95875e-06
3.63131e-06
3.3276e-06
3.04613e-06
2.78548e-06
2.54435e-06
2.32144e-06
2.11565e-06
1.92574e-06
1.7509e-06
1.58976e-06
1.44204e-06
1.30576e-06
1.18193e-06
1.06678e-06
9.64362e-07
8.66459e-07
7.84017e-07
6.98875e-07
6.3652e-07
5.58428e-07
5.18357e-07
4.39792e-07
4.26681e-07
3.38173e-07
3.58886e-07
2.49844e-07
3.11871e-07
1.72757e-07
2.8137e-07
1.06856e-07
2.62135e-07
5.33341e-08
2.49518e-07
1.20764e-08
2.42654e-07
-2.20738e-08
2.48425e-07
-6.28823e-08
2.84147e-07
-1.34324e-07
3.77831e-07
-2.69691e-07
5.64862e-07
-5.06252e-07
8.77363e-07
3.81379e-05
5.50164e-05
6.98265e-05
8.26512e-05
9.35829e-05
0.000102727
0.000110194
0.000116097
0.000120556
0.000123692
0.000125631
0.000126494
0.000126403
0.000125476
0.000123827
0.000121562
0.000118782
0.000115581
0.000112043
0.000108245
0.000104256
0.000100136
9.59384e-05
9.17079e-05
8.74832e-05
8.32966e-05
7.91746e-05
7.51386e-05
7.12057e-05
6.73892e-05
6.36988e-05
6.01417e-05
5.67225e-05
5.34439e-05
5.03071e-05
4.73118e-05
4.4457e-05
4.17404e-05
3.91595e-05
3.67109e-05
3.43913e-05
3.21959e-05
3.01222e-05
2.81616e-05
2.63142e-05
2.45774e-05
2.29374e-05
2.1395e-05
1.99459e-05
1.85843e-05
1.73058e-05
1.61059e-05
1.49805e-05
1.39254e-05
1.29368e-05
1.20108e-05
1.1144e-05
1.0333e-05
9.57457e-06
8.86567e-06
8.20339e-06
7.585e-06
7.00791e-06
6.46966e-06
5.96792e-06
5.50048e-06
5.06529e-06
4.66036e-06
4.28386e-06
3.93402e-06
3.6092e-06
3.30784e-06
3.02848e-06
2.76972e-06
2.53027e-06
2.30887e-06
2.10443e-06
1.91574e-06
1.74199e-06
1.58181e-06
1.43496e-06
1.29947e-06
1.17633e-06
1.06181e-06
9.59936e-07
8.62543e-07
7.8053e-07
6.95809e-07
6.33778e-07
5.56043e-07
5.16201e-07
4.37954e-07
4.24987e-07
3.36774e-07
3.57555e-07
2.48791e-07
3.10824e-07
1.71969e-07
2.8055e-07
1.06267e-07
2.61495e-07
5.28927e-08
2.49011e-07
1.17535e-08
2.42222e-07
-2.22728e-08
2.47978e-07
-6.28989e-08
2.83562e-07
-1.34078e-07
3.7705e-07
-2.69208e-07
5.6403e-07
-5.05588e-07
8.76924e-07
1.87827e-05
3.6471e-05
5.21203e-05
6.58009e-05
7.75967e-05
8.76069e-05
9.59354e-05
0.000102691
0.000107987
0.000111942
0.000114676
0.000116308
0.000116957
0.000116738
0.000115762
0.000114136
0.00011196
0.000109325
0.000106316
0.000103013
9.94822e-05
9.57871e-05
9.19813e-05
8.81116e-05
8.42182e-05
8.03351e-05
7.64906e-05
7.27079e-05
6.90059e-05
6.53996e-05
6.19004e-05
5.8517e-05
5.52555e-05
5.21201e-05
4.91131e-05
4.62355e-05
4.34873e-05
4.08672e-05
3.83735e-05
3.60037e-05
3.37551e-05
3.16238e-05
2.96078e-05
2.76992e-05
2.58986e-05
2.42039e-05
2.26018e-05
2.10934e-05
1.96748e-05
1.83408e-05
1.7087e-05
1.59095e-05
1.48041e-05
1.37671e-05
1.27946e-05
1.18833e-05
1.10297e-05
1.02305e-05
9.48267e-06
8.7833e-06
8.1296e-06
7.51891e-06
6.94872e-06
6.41666e-06
5.92048e-06
5.45803e-06
5.0273e-06
4.62638e-06
4.25346e-06
3.90684e-06
3.5849e-06
3.28612e-06
3.00907e-06
2.75238e-06
2.51478e-06
2.29505e-06
2.0921e-06
1.90474e-06
1.73217e-06
1.57307e-06
1.42718e-06
1.29254e-06
1.17016e-06
1.05633e-06
9.55063e-07
8.58231e-07
7.7669e-07
6.92432e-07
6.30757e-07
5.53416e-07
5.13827e-07
4.3593e-07
4.23122e-07
3.35234e-07
3.56087e-07
2.47634e-07
3.09667e-07
1.71107e-07
2.7964e-07
1.05626e-07
2.60782e-07
5.24139e-08
2.48446e-07
1.14033e-08
2.41743e-07
-2.24912e-08
2.47489e-07
-6.2924e-08
2.82927e-07
-1.33817e-07
3.76195e-07
-2.68671e-07
5.63089e-07
-5.04824e-07
8.76422e-07
-7.12726e-07
1.77273e-05
3.4162e-05
4.86526e-05
6.12753e-05
7.21217e-05
8.12895e-05
8.88809e-05
9.50048e-05
9.97738e-05
0.000103303
0.000105708
0.000107104
0.000107604
0.000107315
0.000106342
0.000104784