/*--------------------------------*- C++ -*----------------------------------*\
| =========                 |                                                 |
| \\      /  F ield         | OpenFOAM: The Open Source CFD Toolbox           |
|  \\    /   O peration     | Version:  2412                                  |
|   \\  /    A nd           | Website:  www.openfoam.com                      |
|    \\/     M anipulation  |                                                 |
\*---------------------------------------------------------------------------*/
FoamFile
{
    version     2.0;
    format      ascii;
    arch        "LSB;label=32;scalar=64";
    class       surfaceScalarField;
    location    "29.5";
    object      phi;
}
// * * * * * * * * * * * * * * * * * * * * * * * * * * * * * * * * * * * * * //

dimensions      [0 3 -1 0 0 0 0];

oriented        oriented;

internalField   nonuniform List<scalar> 
126304
(
0.00505063
1.30701e-07
2.11505e-11
0.00505025
3.81079e-07
6.29962e-11
0.00504963
6.17966e-07
1.01325e-10
0.00504878
8.42999e-07
1.34573e-10
0.00504773
1.05788e-06
1.60793e-10
0.00504646
1.26407e-06
1.79231e-10
0.005045
1.46273e-06
1.91034e-10
0.00504334
1.65483e-06
1.98689e-10
0.0050415
1.8414e-06
2.04638e-10
0.00503948
2.02414e-06
2.09394e-10
0.00503727
2.20613e-06
2.10065e-10
0.00503488
2.39224e-06
1.99731e-10
0.00503229
2.58888e-06
1.68096e-10
0.00502949
2.80295e-06
1.04027e-10
0.00502645
3.0402e-06
-9.21517e-13
0.00502314
3.30352e-06
-1.49036e-10
0.00501955
3.59176e-06
-3.3399e-10
0.00501565
3.89939e-06
-5.40229e-10
0.00501144
4.21721e-06
-7.44497e-10
0.0050069
4.53383e-06
-9.19438e-10
0.00500207
4.83741e-06
-1.03825e-09
0.00499695
5.11752e-06
-1.07905e-09
0.00499159
5.36639e-06
-1.02778e-09
0.00498601
5.57969e-06
-8.79586e-10
0.00498025
5.75662e-06
-6.39019e-10
0.00497435
5.89947e-06
-3.18801e-10
0.00496834
6.01291e-06
6.25813e-11
0.00496224
6.10308e-06
4.83827e-10
0.00495606
6.17672e-06
9.23283e-10
0.00494982
6.24047e-06
1.36096e-09
0.00494351
6.30035e-06
1.77996e-09
0.00493715
6.36139e-06
2.16726e-09
0.00493072
6.42755e-06
2.5139e-09
0.00492422
6.50168e-06
2.81473e-09
0.00491763
6.58566e-06
3.06781e-09
0.00491094
6.68054e-06
3.27392e-09
0.00490415
6.78671e-06
3.43582e-09
0.00489725
6.9041e-06
3.55752e-09
0.00489021
7.0323e-06
3.64362e-09
0.00488303
7.17073e-06
3.69892e-09
0.00487571
7.31871e-06
3.72821e-09
0.00486823
7.47555e-06
3.73599e-09
0.00486059
7.64057e-06
3.72628e-09
0.00485277
7.81317e-06
3.70249e-09
0.00484478
7.99283e-06
3.66754e-09
0.00483659
8.17909e-06
3.62383e-09
0.00482822
8.37159e-06
3.57323e-09
0.00481964
8.57003e-06
3.51737e-09
0.00481087
8.77421e-06
3.45743e-09
0.00480188
8.98399e-06
3.39439e-09
0.00479268
9.19935e-06
3.32892e-09
0.00478325
9.42047e-06
3.26151e-09
0.0047736
9.64811e-06
3.19256e-09
0.00476371
9.88468e-06
3.12235e-09
1.01372e-05
0.00475357
3.05031e-09
0.00505063
2.61336e-07
0.00505025
7.61948e-07
0.00504963
1.2356e-06
0.00504879
1.68554e-06
0.00504773
2.11518e-06
0.00504646
2.52741e-06
0.005045
2.92459e-06
0.00504335
3.30865e-06
0.00504151
3.68164e-06
0.00503949
4.04697e-06
0.00503728
4.41077e-06
0.00503489
4.78275e-06
0.0050323
5.17569e-06
0.0050295
5.60338e-06
0.00502647
6.07727e-06
0.00502317
6.60316e-06
0.00501958
7.17878e-06
0.00501569
7.79316e-06
0.00501148
8.42797e-06
0.00500695
9.06048e-06
0.00500212
9.66712e-06
0.00499701
1.0227e-05
0.00499165
1.07247e-05
0.00498608
1.11516e-05
0.00498033
1.15058e-05
0.00497444
1.17921e-05
0.00496843
1.20196e-05
0.00496233
1.22006e-05
0.00495616
1.23485e-05
0.00494993
1.24765e-05
0.00494363
1.25967e-05
0.00493727
1.27191e-05
0.00493085
1.28516e-05
0.00492435
1.29998e-05
0.00491777
1.31676e-05
0.00491109
1.33571e-05
0.00490431
1.3569e-05
0.00489741
1.38033e-05
0.00489038
1.40591e-05
0.00488322
1.43353e-05
0.00487591
1.46305e-05
0.00486844
1.49433e-05
0.00486081
1.52725e-05
0.004853
1.56167e-05
0.00484502
1.5975e-05
0.00483685
1.63465e-05
0.00482849
1.67304e-05
0.00481994
1.71261e-05
0.00481118
1.75332e-05
0.00480221
1.79515e-05
0.00479303
1.83808e-05
0.00478363
1.88215e-05
0.004774
1.9275e-05
0.00476414
1.9746e-05
2.02479e-05
0.00475403
0.00505063
3.91799e-07
0.00505025
1.14227e-06
0.00504963
1.85237e-06
0.00504879
2.52689e-06
0.00504773
3.17097e-06
0.00504647
3.78895e-06
0.00504501
4.38434e-06
0.00504336
4.96005e-06
0.00504152
5.51916e-06
0.0050395
6.06676e-06
0.0050373
6.612e-06
0.00503491
7.16939e-06
0.00503233
7.75804e-06
0.00502954
8.39854e-06
0.00502651
9.10808e-06
0.00502321
9.89537e-06
0.00501964
1.07571e-05
0.00501575
1.16768e-05
0.00501155
1.26274e-05
0.00500704
1.35747e-05
0.00500222
1.44836e-05
0.00499713
1.53228e-05
0.00499178
1.60692e-05
0.00498622
1.67096e-05
0.00498049
1.72415e-05
0.00497461
1.76716e-05
0.00496861
1.80137e-05
0.00496253
1.8286e-05
0.00495637
1.85085e-05
0.00495014
1.87011e-05
0.00494386
1.88816e-05
0.00493751
1.90651e-05
0.0049311
1.92634e-05
0.00492462
1.94852e-05
0.00491805
1.97361e-05
0.00491139
2.00192e-05
0.00490462
2.03357e-05
0.00489774
2.06856e-05
0.00489073
2.10676e-05
0.00488358
2.148e-05
0.00487629
2.19209e-05
0.00486885
2.2388e-05
0.00486124
2.28796e-05
0.00485346
2.33937e-05
0.00484551
2.39287e-05
0.00483737
2.44834e-05
0.00482905
2.50565e-05
0.00482053
2.56473e-05
0.0048118
2.6255e-05
0.00480288
2.68792e-05
0.00479374
2.75198e-05
0.00478438
2.81772e-05
0.0047748
2.88533e-05
0.004765
2.95545e-05
3.02995e-05
0.00475494
0.00505063
5.22006e-07
0.00505025
1.52178e-06
0.00504963
2.46785e-06
0.00504879
3.36647e-06
0.00504774
4.22451e-06
0.00504648
5.04777e-06
0.00504502
5.84092e-06
0.00504338
6.60783e-06
0.00504154
7.35261e-06
0.00503953
8.082e-06
0.00503733
8.80813e-06
0.00503495
9.55025e-06
0.00503237
1.03337e-05
0.00502959
1.11859e-05
0.00502657
1.21296e-05
0.00502328
1.31765e-05
0.00501972
1.43224e-05
0.00501585
1.55456e-05
0.00501167
1.681e-05
0.00500717
1.80705e-05
0.00500238
1.92804e-05
0.0049973
2.03982e-05
0.00499198
2.13929e-05
0.00498644
2.2247e-05
0.00498072
2.2957e-05
0.00497486
2.35316e-05
0.00496889
2.3989e-05
0.00496282
2.43532e-05
0.00495668
2.46509e-05
0.00495047
2.49083e-05
0.0049442
2.51491e-05
0.00493787
2.53935e-05
0.00493148
2.56571e-05
0.00492502
2.59515e-05
0.00491847
2.62841e-05
0.00491183
2.66594e-05
0.00490508
2.70789e-05
0.00489823
2.75425e-05
0.00489125
2.80487e-05
0.00488413
2.85951e-05
0.00487687
2.91793e-05
0.00486946
2.97983e-05
0.00486189
3.04496e-05
0.00485415
3.11308e-05
0.00484624
3.18398e-05
0.00483815
3.25747e-05
0.00482987
3.3334e-05
0.00482141
3.41165e-05
0.00481274
3.49213e-05
0.00480387
3.57478e-05
0.00479479
3.65957e-05
0.00478551
3.74654e-05
0.004776
3.83592e-05
0.00476627
3.92843e-05
4.02629e-05
0.00475631
0.00505063
6.51876e-07
0.00505025
1.9002e-06
0.00504964
3.08161e-06
0.0050488
4.20367e-06
0.00504775
5.27506e-06
0.00504649
6.30298e-06
0.00504504
7.29329e-06
0.0050434
8.25079e-06
0.00504157
9.18064e-06
0.00503956
1.00912e-05
0.00503737
1.09975e-05
0.005035
1.19234e-05
0.00503243
1.29006e-05
0.00502965
1.39628e-05
0.00502664
1.51388e-05
0.00502338
1.64431e-05
0.00501983
1.78706e-05
0.00501598
1.93946e-05
0.00501182
2.09705e-05
0.00500735
2.25421e-05
0.00500258
2.40515e-05
0.00499753
2.54468e-05
0.00499223
2.66894e-05
0.00498672
2.77574e-05
0.00498103
2.8646e-05
0.0049752
2.93659e-05
0.00496925
2.99394e-05
0.0049632
3.03965e-05
0.00495709
3.07699e-05
0.0049509
3.10924e-05
0.00494466
3.13935e-05
0.00493835
3.16982e-05
0.00493198
3.20263e-05
0.00492554
3.2392e-05
0.00491902
3.28049e-05
0.00491241
3.32704e-05
0.0049057
3.37907e-05
0.00489888
3.43655e-05
0.00489193
3.49931e-05
0.00488486
3.56707e-05
0.00487764
3.63951e-05
0.00487028
3.71627e-05
0.00486275
3.79704e-05
0.00485507
3.88152e-05
0.00484722
3.96942e-05
0.00483918
4.06054e-05
0.00483097
4.15468e-05
0.00482257
4.25167e-05
0.00481398
4.35141e-05
0.00480519
4.45381e-05
0.0047962
4.55881e-05
0.004787
4.66645e-05
0.00477759
4.77694e-05
0.00476796
4.89103e-05
5.01101e-05
0.00475811
0.00505063
7.81331e-07
0.00505025
2.27726e-06
0.00504964
3.69322e-06
0.0050488
5.03792e-06
0.00504776
6.32187e-06
0.00504651
7.55369e-06
0.00504506
8.74039e-06
0.00504342
9.88775e-06
0.0050416
1.10019e-05
0.0050396
1.20928e-05
0.00503742
1.31784e-05
0.00503506
1.42871e-05
0.0050325
1.54564e-05
0.00502974
1.6727e-05
0.00502674
1.81329e-05
0.00502349
1.96918e-05
0.00501997
2.13979e-05
0.00501614
2.32197e-05
0.00501201
2.51039e-05
0.00500757
2.69842e-05
0.00500283
2.8791e-05
0.00499781
3.04626e-05
0.00499255
3.19526e-05
0.00498707
3.32345e-05
0.00498141
3.43023e-05
0.00497561
3.51683e-05
0.00496969
3.58591e-05
0.00496368
3.64098e-05
0.00495759
3.68597e-05
0.00495143
3.72476e-05
0.00494522
3.76089e-05
0.00493894
3.79735e-05
0.0049326
3.83649e-05
0.0049262
3.88004e-05
0.00491971
3.92916e-05
0.00491313
3.98449e-05
0.00490646
4.04632e-05
0.00489968
4.11462e-05
0.00489278
4.18919e-05
0.00488576
4.26971e-05
0.00487859
4.35578e-05
0.00487129
4.44701e-05
0.00486383
4.54299e-05
0.00485621
4.64338e-05
0.00484842
4.74784e-05
0.00484047
4.85611e-05
0.00483234
4.96794e-05
0.00482402
5.08315e-05
0.00481552
5.20159e-05
0.00480683
5.32314e-05
0.00479794
5.44773e-05
0.00478885
5.57535e-05
0.00477955
5.70618e-05
0.00477006
5.84085e-05
5.9814e-05
0.00476035
0.00505063
9.1025e-07
0.00505025
2.65272e-06
0.00504964
4.30226e-06
0.00504881
5.86863e-06
0.00504777
7.36421e-06
0.00504653
8.79901e-06
0.00504508
1.01812e-05
0.00504345
1.15175e-05
0.00504164
1.28151e-05
0.00503965
1.40854e-05
0.00503748
1.53492e-05
0.00503513
1.66393e-05
0.00503258
1.79992e-05
0.00502983
1.94759e-05
0.00502686
2.11091e-05
0.00502363
2.29195e-05
0.00502013
2.49006e-05
0.00501633
2.70165e-05
0.00501223
2.92058e-05
0.00500782
3.13916e-05
0.00500312
3.34936e-05
0.00499814
3.544e-05
0.00499292
3.71767e-05
0.00498748
3.86725e-05
0.00498186
3.992e-05
0.0049761
4.09332e-05
0.00497021
4.17421e-05
0.00496424
4.23875e-05
0.00495818
4.29145e-05
0.00495206
4.33681e-05
0.00494588
4.37894e-05
0.00493964
4.4213e-05
0.00493334
4.46665e-05
0.00492697
4.517e-05
0.00492052
4.57371e-05
0.00491399
4.63754e-05
0.00490737
4.70884e-05
0.00490064
4.7876e-05
0.00489379
4.87359e-05
0.00488683
4.96644e-05
0.00487973
5.06571e-05
0.00487249
5.17092e-05
0.0048651
5.28163e-05
0.00485756
5.39741e-05
0.00484986
5.51789e-05
0.004842
5.64274e-05
0.00483396
5.77168e-05
0.00482574
5.90449e-05
0.00481735
6.04098e-05
0.00480877
6.18099e-05
0.00480001
6.32443e-05
0.00479105
6.47126e-05
0.00478189
6.62153e-05
0.00477254
6.77562e-05
0.00476301
6.93466e-05
0.00475338
1.9128e-07
2.98936e-09
0.00475265
7.28237e-07
2.97557e-09
0.00475134
1.30022e-06
2.95636e-09
0.00474943
1.90977e-06
2.93352e-09
0.00474687
2.55997e-06
2.90765e-09
0.00474361
3.25429e-06
2.87863e-09
0.00473961
3.99663e-06
2.84624e-09
0.00473482
4.79134e-06
2.81038e-09
0.00472917
5.64325e-06
2.77082e-09
0.00472261
6.55782e-06
2.72747e-09
0.00471507
7.54109e-06
2.68004e-09
0.00470647
8.59987e-06
2.62837e-09
0.00469672
9.7418e-06
2.5723e-09
0.00468574
1.09755e-05
2.51328e-09
0.00467343
1.23105e-05
2.44557e-09
0.00465967
1.3758e-05
2.38309e-09
0.00464434
1.53302e-05
2.29289e-09
0.00462729
1.70414e-05
2.1918e-09
0.00460838
1.89076e-05
2.09596e-09
0.00458743
2.09472e-05
1.98349e-09
0.00456425
2.31816e-05
1.87764e-09
0.00453861
2.56353e-05
1.76573e-09
0.00451028
2.83365e-05
1.64494e-09
0.00447896
3.13184e-05
1.51421e-09
0.00444434
3.46193e-05
1.37301e-09
0.00440605
3.82848e-05
1.22058e-09
0.00436368
4.23682e-05
1.05669e-09
0.00431675
4.69331e-05
8.80613e-10
0.00426469
5.20553e-05
6.91661e-10
0.00420686
5.78261e-05
4.89352e-10
0.00414251
6.43555e-05
2.73079e-10
0.00407073
7.17773e-05
4.19935e-11
0.00399048
8.0255e-05
-2.0439e-10
0.00390049
8.99879e-05
-4.67079e-10
0.00379927
0.00010122
-7.46783e-10
0.00368502
0.000114245
-1.04401e-09
0.00355561
0.000129417
-1.35947e-09
0.00340847
0.000147141
-1.69392e-09
0.00324061
0.000167865
-2.04742e-09
0.00304858
0.000192028
-2.41949e-09
0.00282861
0.000219974
-2.8082e-09
0.00257684
0.000251776
-3.20873e-09
0.00228989
0.000286945
-3.61095e-09
0.00196593
0.000323972
-3.99491e-09
0.00160629
0.000359638
-4.32388e-09
0.00121826
0.000388038
-4.53481e-09
0.00081892
0.000399344
-4.52573e-09
0.000440686
0.000378239
-4.145e-09
0.000139222
0.000301466
-3.18894e-09
0.000139224
-1.42086e-09
0.00475247
1.75159e-06
0.00475037
2.82392e-06
0.00474771
3.96562e-06
0.00474444
5.18231e-06
0.00474052
6.48019e-06
0.0047359
7.86623e-06
0.00473055
9.34825e-06
0.00472441
1.0935e-05
0.00471742
1.26362e-05
0.00470951
1.44627e-05
0.00470063
1.64267e-05
0.00469068
1.85418e-05
0.0046796
2.08234e-05
0.00466729
2.32885e-05
0.00465364
2.59567e-05
0.00463855
2.88498e-05
0.00462189
3.19928e-05
0.00460352
3.54138e-05
0.00458328
3.91454e-05
0.004561
4.32243e-05
0.00453649
4.76933e-05
0.00450952
5.26012e-05
0.00447986
5.80051e-05
0.0044472
6.39708e-05
0.00441125
7.05757e-05
0.00437162
7.79103e-05
0.00432791
8.60817e-05
0.00427962
9.52168e-05
0.00422621
0.000105467
0.00416702
0.000117015
0.0041013
0.000130079
0.00402815
0.000144926
0.00394653
0.00016188
0.00385518
0.000181336
0.00375262
0.000203778
0.00363708
0.000229785
0.00350645
0.000260051
0.00335822
0.000295371
0.00318947
0.000336613
0.00299687
0.000384624
0.0027768
0.000440044
0.00252562
0.000502964
0.00224021
0.000572346
0.00191907
0.00064512
0.00156387
0.000714837
0.00118215
0.000769754
0.000791134
0.000790361
0.000422886
0.000746487
0.000131039
0.000593314
0.000270262
0.00475067
6.0273e-06
0.00474586
7.63044e-06
0.00474049
9.33707e-06
0.00473452
1.11558e-05
0.0047279
1.3096e-05
0.0047206
1.51683e-05
0.00471256
1.73845e-05
0.00470374
1.97577e-05
0.00469407
2.23027e-05
0.0046835
2.50357e-05
0.00467195
2.79752e-05
0.00465935
3.11416e-05
0.00464562
3.45578e-05
0.00463066
3.82499e-05
0.00461437
4.22468e-05
0.00459663
4.65817e-05
0.00457734
5.1292e-05
0.00455633
5.64201e-05
0.00453346
6.20148e-05
0.00450855
6.81317e-05
0.00448141
7.48348e-05
0.00445181
8.21977e-05
0.00441951
9.0306e-05
0.00438422
9.9259e-05
0.00434563
0.000109172
0.00430336
0.000120183
0.00425699
0.00013245
0.00420604
0.000146165
0.00414995
0.000161554
0.00408808
0.000178888
0.00401966
0.000198496
0.00394382
0.000220772
0.0038595
0.000246198
0.00376547
0.000275358
0.00366029
0.000308962
0.00354222
0.00034786
0.00340921
0.000393058
0.00325887
0.000445707
0.00308845
0.000507041
0.00289483
0.000578243
0.00267471
0.000660158
0.00242489
0.000752782
0.00214283
0.00085441
0.00182763
0.000960321
0.00148163
0.00106084
0.00111279
0.00113859
0.000738344
0.00116481
0.000389868
0.00109496
0.000118456
0.000864726
0.000388718
0.004748
1.4332e-05
0.00473918
1.64583e-05
0.00472979
1.87218e-05
0.00471981
2.1134e-05
0.0047092
2.37077e-05
0.00469791
2.64573e-05
0.0046859
2.93986e-05
0.00467311
3.25494e-05
0.00465948
3.59292e-05
0.00464495
3.956e-05
0.00462946
4.34663e-05
0.00461293
4.76754e-05
0.00459527
5.22181e-05
0.00457639
5.71291e-05
0.00455619
6.24473e-05
0.00453455
6.82168e-05
0.00451136
7.44877e-05
0.00448646
8.13171e-05
0.00445971
8.877e-05
0.00443092
9.69208e-05
0.0043999
0.000105855
0.00436642
0.000115671
0.00433025
0.000126484
0.00429108
0.000138426
0.0042486
0.000151652
0.00420244
0.000166344
0.00415217
0.000182715
0.00409732
0.000201019
0.00403732
0.000221556
0.00397152
0.000244688
0.00389917
0.000270846
0.00381939
0.000300552
0.00373115
0.000334436
0.00363325
0.00037326
0.00352427
0.000417944
0.00340254
0.000469582
0.00326615
0.000529456
0.00311284
0.000599009
0.00294012
0.000679765
0.00274524
0.000773127
0.00252539
0.000879999
0.00227807
0.00100011
0.00200156
0.00113092
0.00169595
0.00126593
0.00136448
0.00139231
0.00101559
0.00148748
0.000666038
0.00151436
0.000345566
0.00141543
0.000100658
0.00110963
0.000489376
0.00474452
2.7927e-05
0.00473041
3.05644e-05
0.00471576
3.3372e-05
0.00470053
3.63647e-05
0.00468468
3.9559e-05
0.00466817
4.29728e-05
0.00465094
4.66263e-05
0.00463295
5.05417e-05
0.00461413
5.47435e-05
0.00459443
5.92593e-05
0.00457378
6.41196e-05
0.00455209
6.9359e-05
0.0045293
7.50158e-05
0.00450529
8.11334e-05
0.00447998
8.77608e-05
0.00445324
9.49534e-05
0.00442496
0.000102774
0.00439498
0.000111294
0.00436315
0.000120596
0.0043293
0.000130772
0.00429323
0.00014193
0.00425471
0.000154194
0.00421348
0.000167707
0.00416927
0.000182635
0.00412175
0.000199173
0.00407055
0.000217547
0.00401524
0.000238025
0.00395534
0.000260923
0.00389028
0.000286615
0.00381942
0.000315548
0.00374201
0.000348255
0.00365718
0.000385379
0.00356393
0.000427689
0.00346108
0.00047611
0.00334728
0.000531745
0.00322096
0.000595897
0.00308035
0.000670065
0.00292346
0.000755905
0.00274811
0.000855109
0.0025521
0.000969143
0.00233333
0.00109876
0.00209025
0.00124319
0.00182236
0.00139881
0.00153108
0.00155721
0.00122083
0.00170255
0.000900537
0.00180777
0.000585611
0.00182929
0.00030102
0.00170003
8.31144e-05
0.00132754
0.00057249
0.00474028
4.80036e-05
0.00471971
5.11328e-05
0.00469861
5.4466e-05
0.00467696
5.80212e-05
0.0046547
6.18183e-05
0.00463179
6.5879e-05
0.00460819
7.02275e-05
0.00458384
7.48902e-05
0.00455869
7.98969e-05
0.00453267
8.52804e-05
0.00450571
9.10776e-05
0.00447774
9.73298e-05
0.00444867
0.000104083
0.00441841
0.000111391
0.00438686
0.00011931
0.00435391
0.000127909
0.00431942
0.000137263
0.00428326
0.000147458
0.00424526
0.000158593
0.00420525
0.000170781
0.00416303
0.00018415
0.00411837
0.00019885
0.00407103
0.000215054
0.0040207
0.000232961
0.00396707
0.000252807
0.00390975
0.000274862
0.00384833
0.000299448
0.00378231
0.000326943
0.00371113
0.000357794
0.00363415
0.000392532
0.00355061
0.000431788
0.00345968
0.000476315
0.00336035
0.000527013
0.00325152
0.000584946
0.00313189
0.000651371
0.00300005
0.000727742
0.00285442
0.000815693
0.00269336
0.000916968
0.00251521
0.00103325
0.00231853
0.00116582
0.00210232
0.00131498
0.00186646
0.00147905
0.00161229
0.00165298
0.00134327
0.00182624
0.00106564
0.00198018
0.000789041
0.00208437
0.000526619
0.00209171
0.000293605
0.00193304
0.000101162
0.00151998
0.000673653
0.00473536
7.56584e-05
0.00470724
7.9251e-05
0.00467862
8.30849e-05
0.00464946
8.71789e-05
0.00461973
9.15557e-05
0.00458936
9.62403e-05
0.00455833
0.00010126
0.00452657
0.000106647
0.00449404
0.000112434
0.00446066
0.000118661
0.00442636
0.00012537
0.00439109
0.000132609
0.00435474
0.000140432
0.00431723
0.000148902
0.00427845
0.000158086
0.0042383
0.000168062
0.00419664
0.000178921
0.00415334
0.000190762
0.00410823
0.000203701
0.00406114
0.00021787
0.00401187
0.00023342
0.00396019
0.000250527
0.00390585
0.000269393
0.00384856
0.000290251
0.00378799
0.000313376
0.00372377
0.000339085
0.00365547
0.000367753
0.00358259
0.000399819
0.00350458
0.000435801
0.0034208
0.000476314
0.00333051
0.000522082
0.00323286
0.000573965
0.00312689
0.000632976
0.00301153
0.000700304
0.00288558
0.000777322
0.00274774
0.000865582
0.00259667
0.000966765
0.00243107
0.00108256
0.00224989
0.00121444
0.00205253
0.00136318
0.00183932
0.00152819
0.00161199
0.00170638
0.00137436
0.00189061
0.00113294
0.00206766
0.000897407
0.00221571
0.000680165
0.00230161
0.000493837
0.00227804
0.000342605
0.00208427
0.000207438
0.00165515
0.000881091
-2.5221e-05
2.52213e-05
-3.26078e-10
-7.38958e-05
4.86762e-05
-1.36017e-09
-0.000129547
5.56539e-05
-2.70141e-09
-0.000182603
5.30606e-05
-4.25658e-09
-0.000227834
4.52366e-05
-5.94856e-09
-0.000262618
3.47913e-05
-7.72089e-09
-0.000285866
2.32579e-05
-9.51265e-09
-0.000297359
1.1504e-05
-1.10352e-08
-0.000296939
-4.08278e-07
-1.15638e-08
-0.000286014
-1.09115e-05
-1.39063e-08
-0.000264757
-2.12417e-05
-1.53882e-08
-0.0002338
-3.094e-05
-1.6316e-08
-0.000193789
-3.99948e-05
-1.67862e-08
-0.000145349
-4.84236e-05
-1.669e-08
-8.90778e-05
-5.62549e-05
-1.58817e-08
-2.55523e-05
-6.35113e-05
-1.4202e-08
4.46795e-05
-7.02203e-05
-1.14942e-08
0.00012109
-7.64026e-05
-7.63247e-09
0.000203172
-8.20794e-05
-2.55574e-09
0.000290435
-8.72673e-05
3.75977e-09
0.000382404
-9.19799e-05
1.07638e-08
0.000478612
-9.62257e-05
1.83065e-08
0.000578596
-0.00010001
2.53992e-08
0.000681901
-0.000103336
3.14619e-08
0.000788077
-0.000106213
3.64996e-08
0.000896691
-0.000108654
3.98317e-08
0.00100732
-0.000110672
4.17635e-08
0.00111956
-0.000112281
4.24394e-08
0.00123301
-0.000113491
4.21385e-08
0.00134728
-0.000114316
4.11309e-08
0.00146201
-0.00011477
3.96447e-08
0.00157684
-0.000114866
3.78568e-08
0.00169143
-0.00011462
3.58934e-08
0.00180544
-0.000114047
3.38417e-08
0.00191857
-0.000113164
3.17533e-08
0.00203053
-0.000111987
2.96575e-08
0.00214104
-0.000110535
2.7567e-08
0.00224984
-0.000108825
2.54824e-08
0.00235669
-0.000106877
2.33992e-08
0.00246138
-0.000104709
2.13095e-08
0.0025637
-0.000102341
1.92051e-08
0.00266347
-9.97913e-05
1.70822e-08
0.00276054
-9.70802e-05
1.49385e-08
0.00285475
-9.42269e-05
1.27764e-08
0.00294599
-9.12507e-05
1.06048e-08
0.00303415
-8.81706e-05
8.43597e-09
0.00311915
-8.50048e-05
6.28688e-09
0.00320092
-8.17702e-05
4.17851e-09
0.0032794
-7.84809e-05
2.1299e-09
-7.51467e-05
0.00335454
1.49356e-10
-2.21885e-05
4.74098e-05
-6.50904e-05
9.15782e-05
-0.000113926
0.000104489
-0.000160341
9.94757e-05
-0.000199628
8.45237e-05
-0.000229396
6.45592e-05
-0.0002486
4.24627e-05
-0.000256925
1.98289e-05
-0.000254548
-2.78551e-06
-0.000242096
-2.33634e-05
-0.000219971
-4.33667e-05
-0.000188685
-6.22257e-05
-0.00014879
-7.98898e-05
-0.000100839
-9.63751e-05
-4.535e-05
-0.000111744
1.71481e-05
-0.000126009
8.61532e-05
-0.000139225
0.000161187
-0.000151436
0.000241777
-0.00016267
0.000327465
-0.000172955
0.000417802
-0.000182317
0.000512345
-0.000190769
0.000610655
-0.000198319
0.000712294
-0.000204975
0.000816829
-0.000210748
0.00092384
-0.000215664
0.00103292
-0.000219749
0.00114366
-0.000223024
0.00125568
-0.000225514
0.00136861
-0.000227241
0.00148207
-0.000228232
0.00159572
-0.000228513
0.00170921
-0.000228112
0.00182222
-0.000227061
0.00193445
-0.000225392
0.0020456
-0.000223137
0.0021554
-0.000220331
0.00226358
-0.00021701
0.00236992
-0.000213211
0.00247418
-0.000208971
0.00257617
-0.000204329
0.0026757
-0.000199322
0.00277261
-0.00019399
0.00286675
-0.00018837
0.002958
-0.000182501
0.00304625
-0.000176422
0.00313141
-0.000170167
0.00321341
-0.000163771
0.00329219
-0.000157262
-0.000150656
0.0033677
-1.68632e-05
6.4273e-05
-4.81391e-05
0.000122854
-8.3846e-05
0.000140196
-0.00011753
0.00013316
-0.000145466
0.00011246
-0.00016572
8.48134e-05
-0.000177327
5.40695e-05
-0.000179804
2.23058e-05
-0.000173485
-9.10433e-06
-0.00015832
-3.85282e-05
-0.000134673
-6.70143e-05
-0.000102861
-9.40374e-05
-6.32644e-05
-0.000119486
-1.62983e-05
-0.000143341
3.76043e-05
-0.000165647
9.80668e-05
-0.000186472
0.000164686
-0.000205845
0.000237054
-0.000223803
0.000314766
-0.000240382
0.000397425
-0.000255614
0.000484632
-0.000269524
0.00057599
-0.000282128
0.000671103
-0.000293432
0.000769568
-0.000303439
0.000870981
-0.000312162
0.000974948
-0.000319631
0.00108108
-0.000325881
0.001189
-0.000330943
0.00129833
-0.000334848
0.00140872
-0.000337627
0.0015198
-0.000339314
0.00163124
-0.000339949
0.00174269
-0.00033957
0.00185386
-0.000338222
0.00196441
-0.00033595
0.00207408
-0.000332803
0.00218258
-0.000328829
0.00228965
-0.000324083
0.00239506
-0.000318617
0.00249857
-0.000312487
0.00259999
-0.000305748
0.00269913
-0.000298458
0.00279581
-0.000290672
0.00288989
-0.000282449
0.00298123
-0.000273845
0.00306973
-0.000264916
0.00315528
-0.000255717
0.0032378
-0.000246296
0.00331724
-0.000236695
-0.000226935
0.00339352
-7.52866e-06
7.18017e-05
-2.33195e-05
0.000138645
-4.08673e-05
0.000157744
-5.68341e-05
0.000149126
-6.91325e-05
0.000124758
-7.64302e-05
9.21111e-05
-7.78203e-05
5.54596e-05
-7.24399e-05
1.69254e-05
-6.08541e-05
-2.06902e-05
-4.22321e-05
-5.71502e-05
-1.67114e-05
-9.2535e-05
1.55638e-05
-0.000126313
5.44484e-05
-0.000158371
9.97922e-05
-0.000188685
0.000151365
-0.000217219
0.000208891
-0.000243997
0.000272089
-0.000269043
0.000340666
-0.000292381
0.000414315
-0.000314031
0.000492717
-0.000334016
0.000575547
-0.000352353
0.000662471
-0.000369051
0.000753146
-0.000384108
0.000847221
-0.000397514
0.000944333
-0.000409274
0.00104412
-0.000419416
0.00114622
-0.000427984
0.00125029
-0.000435012
0.00135597
-0.000440531
0.00146293
-0.00044458
0.00157081
-0.000447197
0.00167929
-0.000448429
0.00178804
-0.000448325
0.00189676
-0.000446938
0.00200514
-0.000444327
0.00211288
-0.000440551
0.00221973
-0.000435675
0.00232541
-0.000429767
0.00242969
-0.000422894
0.00253233
-0.000415129
0.00263313
-0.000406544
0.00273189
-0.000397214
0.00282843
-0.000387213
0.00292259
-0.000376615
0.00301424
-0.000365496
0.00310326
-0.00035393
0.00318953
-0.000341987
0.00327296
-0.000329733
0.00335349
-0.000317222
-0.000304476
0.00343103
5.02272e-06
6.67789e-05
9.27696e-06
0.000134391
1.41828e-05
0.000152838
1.91869e-05
0.000144122
2.49992e-05
0.000118946
3.24973e-05
8.4613e-05
4.24831e-05
4.54737e-05
5.67562e-05
2.65232e-06
7.39034e-05
-3.78374e-05
9.60205e-05
-7.92672e-05
0.000123164
-0.000119679
0.000155559
-0.000158707
0.000193319
-0.00019613
0.000236457
-0.000231823
0.000284949
-0.000265712
0.000338711
-0.00029776
0.000397615
-0.000327947
0.000461494
-0.00035626
0.000530153
-0.00038269
0.000603371
-0.000407234
0.000680902
-0.000429885
0.00076249
-0.000450639
0.000847858
-0.000469476
0.000936709
-0.000486365
0.00102873
-0.000501292
0.00112359
-0.000514281
0.00122098
-0.000525372
0.00132057
-0.000534601
0.00142203
-0.000541996
0.00152505
-0.000547594
0.00162929
-0.000551438
0.00173444
-0.000553576
0.00184018
-0.000554064
0.0019462
-0.000552963
0.00205221
-0.000550339
0.00215793
-0.000546264
0.00226306
-0.000540813
0.00236736
-0.000534067
0.00247058
-0.000526108
0.00257247
-0.000517022
0.00267282
-0.000506899
0.00277144
-0.000495827
0.00286812
-0.000483899
0.00296271
-0.000471206
0.00305506
-0.000457841
0.00314502
-0.000443894
0.00323249
-0.000429453
0.00331736
-0.000414599
0.00339953
-0.0003994
-0.000383877
0.00347893
1.82413e-05
4.85376e-05
4.60807e-05
0.000106551
7.5811e-05
0.000123108
0.000104076
0.000115858
0.000129629
9.33925e-05
0.00015299
6.12521e-05
0.000175564
2.28996e-05
0.000196659
-1.84426e-05
0.000219807
-6.09855e-05
0.00024511
-0.00010457
0.000273404
-0.000147973
0.000305284
-0.000190588
0.000341175
-0.000232021
0.00038137
-0.000272018
0.000426059
-0.000310401
0.000475346
-0.000347046
0.00052926
-0.000381862
0.000587775
-0.000414774
0.000650809
-0.000445725
0.000718244
-0.000474668
0.000789925
-0.000501566
0.000865667
-0.000526381
0.000945264
-0.000549073
0.00102848
-0.000569581
0.00111505
-0.000587862
0.00120469
-0.000603924
0.00129712
-0.000617803
0.00139205
-0.000629524
0.00148916
-0.000639111
0.00158816
-0.000646595
0.00168874
-0.000652016
0.00179059
-0.000655423
0.0018934
-0.000656873
0.00199687
-0.000656432
0.0021007
-0.000654172
0.00220461
-0.000650173
0.00230832
-0.000644521
0.00241155
-0.000637305
0.00251407
-0.000628621
0.00261561
-0.000618569
0.00271597
-0.000607251
0.00281491
-0.000594772
0.00291225
-0.00058124
0.00300781
-0.000566764
0.00310142
-0.000551451
0.00319294
-0.00053541
0.00328223
-0.000518744
0.00336918
-0.000501552
0.00345369
-0.000483912
-0.000465858
0.00353567
3.34132e-05
1.51245e-05
8.9267e-05
5.06975e-05
0.000145203
6.71718e-05
0.000195654
6.5407e-05
0.00023901
5.00361e-05
0.00027619
2.40725e-05
0.000309008
-9.91873e-06
0.000337191
-4.66256e-05
0.00036436
-8.81545e-05
0.000391594
-0.000131804
0.000420017
-0.000176395
0.000450533
-0.000221105
0.000483853
-0.000265341
0.000520514
-0.000308678
0.000560911
-0.000350798
0.000605324
-0.000391459
0.000653933
-0.000430471
0.000706839
-0.000467681
0.000764076
-0.000502962
0.000825619
-0.000536212
0.000891397
-0.000567343
0.000961299
-0.000596284
0.00103518
-0.000622957
0.00111287
-0.00064727
0.00119416
-0.000669145
0.00127879
-0.000688558
0.00136652
-0.000705531
0.00145707
-0.00072008
0.00155018
-0.000732216
0.00164554
-0.00074196
0.00174287
-0.000749346
0.00184187
-0.000754417
0.00194223
-0.000757232
0.00204365
-0.000757856
0.00214585
-0.000756366
0.00224852
-0.000752847
0.00235139
-0.00074739
0.00245418
-0.000740096
0.00255663
-0.000731071
0.00265849
-0.000720426
0.00275951
-0.000708276
0.00285948
-0.000694742
0.00295819
-0.000679946
0.00305544
-0.000664012
0.00315105
-0.000647064
0.00324487
-0.000629229
0.00333675
-0.000610626
0.00342657
-0.00059137
0.00351421
-0.000571556
0.0035996
-0.000551243
0.00343405
-7.94999e-05
-1.78584e-09
0.00351182
-7.77676e-05
-3.77451e-09
0.00358772
-7.58978e-05
-5.83696e-09
0.00366164
-7.39093e-05
-7.93335e-09
0.00373346
-7.18116e-05
-1.00026e-08
0.00380308
-6.96122e-05
-1.19877e-08
0.00387042
-6.73197e-05
-1.38347e-08
0.00393538
-6.49439e-05
-1.54953e-08
0.00399789
-6.24957e-05
-1.69285e-08
0.0040579
-5.99879e-05
-1.81013e-08
0.00411535
-5.74345e-05
-1.89871e-08
0.00417022
-5.48507e-05
-1.95661e-08
0.00422249
-5.22525e-05
-1.98292e-08
0.00427217
-4.96564e-05
-1.97742e-08
0.00431927
-4.70791e-05
-1.94075e-08
0.00436382
-4.45367e-05
-1.87445e-08
0.00440588
-4.20448e-05
-1.78095e-08
0.00444552
-3.96178e-05
-1.66324e-08
0.0044828
-3.72687e-05
-1.52482e-08
0.00451783
-3.50089e-05
-1.36971e-08
0.00455069
-3.28478e-05
-1.20201e-08
0.00458149
-3.07925e-05
-1.02575e-08
0.00461035
-2.88483e-05
-8.4485e-09
0.00463737
-2.7018e-05
-6.62885e-09
0.00466268
-2.53027e-05
-4.82868e-09
0.00468638
-2.37009e-05
-3.07246e-09
0.00470859
-2.22098e-05
-1.38068e-09
0.00472942
-2.08245e-05
2.32e-10
0.00474895
-1.95391e-05
1.7561e-09
0.0047673
-1.8346e-05
3.18437e-09
0.00478453
-1.72371e-05
4.51109e-09
0.00480073
-1.62037e-05
5.73132e-09
0.00481596
-1.52369e-05
6.83869e-09
0.00483028
-1.43281e-05
7.82424e-09
0.00484374
-1.34698e-05
8.67665e-09
0.00485639
-1.26555e-05
9.38333e-09
0.00486826
-1.18811e-05
9.93026e-09
0.00487939
-1.1144e-05
1.03044e-08
0.00488982
-1.04439e-05
1.04964e-08
0.0048996
-9.78228e-06
1.05019e-08
0.00490875
-9.16152e-06
1.0323e-08
0.00491732
-8.58428e-06
9.97054e-09
0.00492536
-8.05254e-06
9.46399e-09
0.00493292
-7.56699e-06
8.83892e-09
0.00494004
-7.12582e-06
8.12238e-09
0.00494676
-6.72661e-06
7.30473e-09
0.00495312
-6.36475e-06
6.45682e-09
0.00495915
-6.03459e-06
5.59286e-09
0.00496487
-5.73041e-06
4.74014e-09
0.00497031
-5.4469e-06
3.91434e-09
0.00497549
-5.17964e-06
3.12876e-09
0.00498041
-4.92521e-06
2.39367e-09
0.00498509
-4.68129e-06
1.71569e-09
0.00498954
-4.44641e-06
1.0965e-09
0.00499376
-4.21978e-06
5.35089e-10
0.00499776