/*--------------------------------*- C++ -*----------------------------------*\
| =========                 |                                                 |
| \\      /  F ield         | OpenFOAM: The Open Source CFD Toolbox           |
|  \\    /   O peration     | Version:  2412                                  |
|   \\  /    A nd           | Website:  www.openfoam.com                      |
|    \\/     M anipulation  |                                                 |
\*---------------------------------------------------------------------------*/
FoamFile
{
    version     2.0;
    format      ascii;
    arch        "LSB;label=32;scalar=64";
    class       volVectorField;
    location    "29.5";
    object      U;
}
// * * * * * * * * * * * * * * * * * * * * * * * * * * * * * * * * * * * * * //

dimensions      [0 1 -1 0 0 0 0];

internalField   nonuniform List<vector> 
63420
(
(0.0999997 4.42328e-07 0)
(0.099995 1.31551e-06 0)
(0.0999849 2.17592e-06 0)
(0.0999704 3.02765e-06 0)
(0.0999516 3.87542e-06 0)
(0.0999286 4.72338e-06 0)
(0.0999016 5.57505e-06 0)
(0.0998707 6.4334e-06 0)
(0.0998361 7.30192e-06 0)
(0.0997978 8.18712e-06 0)
(0.099756 9.10174e-06 0)
(0.0997105 1.00671e-05 0)
(0.0996613 1.11128e-05 0)
(0.099608 1.22728e-05 0)
(0.0995503 1.35785e-05 0)
(0.0994877 1.50506e-05 0)
(0.0994195 1.66921e-05 0)
(0.0993455 1.84853e-05 0)
(0.0992652 2.03927e-05 0)
(0.0991786 2.23627e-05 0)
(0.0990858 2.43374e-05 0)
(0.0989871 2.62611e-05 0)
(0.0988832 2.80879e-05 0)
(0.0987747 2.97867e-05 0)
(0.0986624 3.13436e-05 0)
(0.0985468 3.27611e-05 0)
(0.0984288 3.40559e-05 0)
(0.0983088 3.52547e-05 0)
(0.0981871 3.63904e-05 0)
(0.0980641 3.74982e-05 0)
(0.09794 3.86122e-05 0)
(0.0978146 3.97635e-05 0)
(0.097688 4.09784e-05 0)
(0.09756 4.22783e-05 0)
(0.0974304 4.36796e-05 0)
(0.0972991 4.51943e-05 0)
(0.0971658 4.68304e-05 0)
(0.0970303 4.85933e-05 0)
(0.0968923 5.04859e-05 0)
(0.0967517 5.251e-05 0)
(0.0966082 5.46666e-05 0)
(0.0964617 5.6956e-05 0)
(0.0963121 5.9379e-05 0)
(0.0961591 6.19365e-05 0)
(0.0960026 6.46296e-05 0)
(0.0958425 6.74603e-05 0)
(0.0956786 7.0431e-05 0)
(0.0955109 7.35447e-05 0)
(0.0953391 7.68051e-05 0)
(0.0951633 8.02167e-05 0)
(0.0949833 8.37849e-05 0)
(0.094799 8.75177e-05 0)
(0.0946102 9.14284e-05 0)
(0.0944168 9.55478e-05 0)
(0.0942187 9.99547e-05 0)
(0.0999997 1.32698e-06 0)
(0.099995 3.94646e-06 0)
(0.099985 6.52767e-06 0)
(0.0999705 9.08276e-06 0)
(0.0999516 1.16258e-05 0)
(0.0999286 1.41694e-05 0)
(0.0999016 1.6724e-05 0)
(0.0998708 1.92986e-05 0)
(0.0998362 2.19036e-05 0)
(0.099798 2.45586e-05 0)
(0.0997561 2.73016e-05 0)
(0.0997107 3.01965e-05 0)
(0.0996615 3.33315e-05 0)
(0.0996083 3.68086e-05 0)
(0.0995507 4.07215e-05 0)
(0.0994881 4.51321e-05 0)
(0.0994201 5.00497e-05 0)
(0.0993461 5.54214e-05 0)
(0.0992659 6.11359e-05 0)
(0.0991794 6.70391e-05 0)
(0.0990867 7.29577e-05 0)
(0.0989882 7.87255e-05 0)
(0.0988845 8.42053e-05 0)
(0.0987761 8.93041e-05 0)
(0.0986639 9.39798e-05 0)
(0.0985485 9.82398e-05 0)
(0.0984306 0.000102133 0)
(0.0983106 0.00010574 0)
(0.0981891 0.000109158 0)
(0.0980663 0.000112493 0)
(0.0979422 0.000115845 0)
(0.097817 0.000119308 0)
(0.0976905 0.000122961 0)
(0.0975626 0.000126867 0)
(0.0974332 0.000131075 0)
(0.097302 0.000135622 0)
(0.0971688 0.000140532 0)
(0.0970334 0.00014582 0)
(0.0968956 0.000151497 0)
(0.0967552 0.000157566 0)
(0.096612 0.000164031 0)
(0.0964657 0.000170894 0)
(0.0963163 0.000178156 0)
(0.0961635 0.000185821 0)
(0.0960073 0.000193892 0)
(0.0958475 0.000202374 0)
(0.0956839 0.000211275 0)
(0.0955165 0.000220605 0)
(0.0953452 0.000230373 0)
(0.0951697 0.000240593 0)
(0.0949901 0.000251282 0)
(0.0948062 0.000262463 0)
(0.0946179 0.000274175 0)
(0.094425 0.000286508 0)
(0.0942275 0.000299694 0)
(0.0999997 2.21075e-06 0)
(0.099995 6.5746e-06 0)
(0.099985 1.08749e-05 0)
(0.0999705 1.51315e-05 0)
(0.0999517 1.9368e-05 0)
(0.0999287 2.36054e-05 0)
(0.0999018 2.78609e-05 0)
(0.099871 3.21497e-05 0)
(0.0998364 3.64891e-05 0)
(0.0997982 4.09116e-05 0)
(0.0997565 4.54805e-05 0)
(0.0997111 5.03014e-05 0)
(0.099662 5.55215e-05 0)
(0.0996089 6.13098e-05 0)
(0.0995514 6.78224e-05 0)
(0.0994889 7.51625e-05 0)
(0.0994211 8.3346e-05 0)
(0.0993473 9.22855e-05 0)
(0.0992673 0.000101796 0)
(0.0991811 0.000111623 0)
(0.0990886 0.000121477 0)
(0.0989904 0.000131084 0)
(0.0988869 0.000140213 0)
(0.0987788 0.00014871 0)
(0.0986669 0.000156505 0)
(0.0985517 0.000163609 0)
(0.0984341 0.000170104 0)
(0.0983144 0.000176121 0)
(0.0981931 0.000181822 0)
(0.0980705 0.000187383 0)
(0.0979466 0.000192972 0)
(0.0978216 0.000198743 0)
(0.0976954 0.000204827 0)
(0.0975677 0.000211331 0)
(0.0974386 0.000218337 0)
(0.0973077 0.000225903 0)
(0.0971748 0.000234072 0)
(0.0970397 0.000242869 0)
(0.0969023 0.00025231 0)
(0.0967622 0.000262405 0)
(0.0966194 0.000273156 0)
(0.0964736 0.000284569 0)
(0.0963246 0.000296645 0)
(0.0961724 0.000309389 0)
(0.0960167 0.000322807 0)
(0.0958575 0.000336909 0)
(0.0956945 0.000351707 0)
(0.0955278 0.000367215 0)
(0.0953572 0.000383451 0)
(0.0951825 0.000400436 0)
(0.0950037 0.000418199 0)
(0.0948206 0.000436775 0)
(0.0946333 0.000456228 0)
(0.0944414 0.000476701 0)
(0.0942449 0.000498559 0)
(0.0999997 3.09305e-06 0)
(0.099995 9.19803e-06 0)
(0.099985 1.52144e-05 0)
(0.0999706 2.11695e-05 0)
(0.0999518 2.70964e-05 0)
(0.0999289 3.30244e-05 0)
(0.099902 3.89777e-05 0)
(0.0998713 4.49772e-05 0)
(0.0998368 5.10476e-05 0)
(0.0997987 5.72339e-05 0)
(0.099757 6.36242e-05 0)
(0.0997118 7.03658e-05 0)
(0.0996628 7.76637e-05 0)
(0.0996098 8.57536e-05 0)
(0.0995524 9.48538e-05 0)
(0.0994902 0.000105109 0)
(0.0994226 0.000116541 0)
(0.0993491 0.00012903 0)
(0.0992694 0.00014232 0)
(0.0991835 0.000156054 0)
(0.0990915 0.000169831 0)
(0.0989936 0.000183266 0)
(0.0988905 0.000196039 0)
(0.0987829 0.000207932 0)
(0.0986713 0.000218847 0)
(0.0985566 0.000228797 0)
(0.0984393 0.000237896 0)
(0.09832 0.000246326 0)
(0.0981991 0.000254314 0)
(0.0980768 0.0002621 0)
(0.0979533 0.000269922 0)
(0.0978286 0.000277994 0)
(0.0977027 0.0002865 0)
(0.0975754 0.000295588 0)
(0.0974467 0.000305373 0)
(0.0973162 0.000315938 0)
(0.0971837 0.000327342 0)
(0.0970492 0.00033962 0)
(0.0969122 0.000352796 0)
(0.0967728 0.000366881 0)
(0.0966305 0.000381883 0)
(0.0964854 0.000397805 0)
(0.0963371 0.000414652 0)
(0.0961856 0.00043243 0)
(0.0960308 0.000451147 0)
(0.0958724 0.000470816 0)
(0.0957104 0.000491453 0)
(0.0955447 0.000513078 0)
(0.0953751 0.000535716 0)
(0.0952015 0.000559396 0)
(0.095024 0.000584153 0)
(0.0948422 0.000610038 0)
(0.0946562 0.000637132 0)
(0.0944658 0.000665619 0)
(0.0942709 0.000695967 0)
(0.0999997 3.97337e-06 0)
(0.099995 1.18148e-05 0)
(0.0999851 1.95434e-05 0)
(0.0999706 2.71926e-05 0)
(0.0999519 3.48056e-05 0)
(0.0999291 4.24197e-05 0)
(0.0999023 5.00662e-05 0)
(0.0998716 5.7772e-05 0)
(0.0998373 6.55684e-05 0)
(0.0997993 7.35132e-05 0)
(0.0997577 8.17188e-05 0)
(0.0997126 9.03734e-05 0)
(0.0996638 9.97391e-05 0)
(0.099611 0.000110118 0)
(0.0995539 0.000121789 0)
(0.0994919 0.000134938 0)
(0.0994246 0.000149596 0)
(0.0993514 0.000165611 0)
(0.0992722 0.000182655 0)
(0.0991868 0.000200274 0)
(0.0990952 0.000217956 0)
(0.0989979 0.000235205 0)
(0.0988953 0.000251613 0)
(0.0987882 0.000266899 0)
(0.0986772 0.000280934 0)
(0.098563 0.000293734 0)
(0.0984462 0.000305441 0)
(0.0983274 0.000316288 0)
(0.0982069 0.000326563 0)
(0.0980851 0.000336574 0)
(0.097962 0.000346625 0)
(0.0978378 0.000356989 0)
(0.0977124 0.000367901 0)
(0.0975856 0.000379554 0)
(0.0974574 0.000392094 0)
(0.0973274 0.000405629 0)
(0.0971956 0.000420233 0)
(0.0970617 0.000435954 0)
(0.0969254 0.000452821 0)
(0.0967867 0.000470851 0)
(0.0966453 0.000490052 0)
(0.096501 0.000510429 0)
(0.0963537 0.000531988 0)
(0.0962032 0.000554736 0)
(0.0960494 0.000578684 0)
(0.0958922 0.000603846 0)
(0.0957315 0.000630244 0)
(0.0955671 0.000657902 0)
(0.0953989 0.00068685 0)
(0.0952268 0.000717125 0)
(0.0950508 0.000748769 0)
(0.0948708 0.000781842 0)
(0.0946866 0.000816441 0)
(0.0944982 0.000852771 0)
(0.0943054 0.000891358 0)
(0.0999997 4.85134e-06 0)
(0.099995 1.44232e-05 0)
(0.0999851 2.38589e-05 0)
(0.0999708 3.31968e-05 0)
(0.0999521 4.24903e-05 0)
(0.0999293 5.17849e-05 0)
(0.0999026 6.11188e-05 0)
(0.0998721 7.05248e-05 0)
(0.0998378 8.00411e-05 0)
(0.0998 8.97376e-05 0)
(0.0997586 9.97507e-05 0)
(0.0997137 0.000110309 0)
(0.0996651 0.00012173 0)
(0.0996125 0.00013438 0)
(0.0995556 0.000148601 0)
(0.099494 0.000164619 0)
(0.099427 0.000182474 0)
(0.0993544 0.000201984 0)
(0.0992756 0.000222753 0)
(0.0991908 0.000244229 0)
(0.0990998 0.000265792 0)
(0.0990031 0.000286839 0)
(0.0989012 0.00030687 0)
(0.0987948 0.000325544 0)
(0.0986844 0.000342698 0)
(0.0985708 0.000358351 0)
(0.0984547 0.000372671 0)
(0.0983364 0.000385938 0)
(0.0982166 0.000398502 0)
(0.0980953 0.000410736 0)
(0.0979728 0.000423008 0)
(0.0978492 0.000435651 0)
(0.0977244 0.000448952 0)
(0.0975982 0.000463144 0)
(0.0974706 0.000478408 0)
(0.0973414 0.000494875 0)
(0.0972103 0.000512636 0)
(0.0970772 0.000531751 0)
(0.0969418 0.000552256 0)
(0.096804 0.000574171 0)
(0.0966636 0.000597506 0)
(0.0965204 0.000622268 0)
(0.0963743 0.000648464 0)
(0.0962251 0.000676102 0)
(0.0960726 0.000705194 0)
(0.0959169 0.000735758 0)
(0.0957576 0.000767817 0)
(0.0955949 0.0008014 0)
(0.0954284 0.000836543 0)
(0.0952582 0.000873287 0)
(0.0950842 0.000911682 0)
(0.0949063 0.000951793 0)
(0.0947244 0.000993722 0)
(0.0945384 0.00103768 0)
(0.0943482 0.00108418 0)
(0.0999997 5.72622e-06 0)
(0.099995 1.70217e-05 0)
(0.0999852 2.81579e-05 0)
(0.0999709 3.91779e-05 0)
(0.0999523 5.01451e-05 0)
(0.0999296 6.11134e-05 0)
(0.099903 7.21277e-05 0)
(0.0998726 8.32266e-05 0)
(0.0998385 9.44551e-05 0)
(0.0998009 0.000105895 0)
(0.0997597 0.000117706 0)
(0.0997149 0.000130156 0)
(0.0996666 0.000143617 0)
(0.0996143 0.00015852 0)
(0.0995577 0.000175265 0)
(0.0994965 0.000194122 0)
(0.09943 0.000215141 0)
(0.0993578 0.000238109 0)
(0.0992797 0.000262566 0)
(0.0991955 0.000287867 0)
(0.0991052 0.000313283 0)
(0.0990093 0.000338106 0)
(0.0989082 0.000361748 0)
(0.0988025 0.000383801 0)
(0.0986929 0.000404074 0)
(0.0985801 0.000422582 0)
(0.0984646 0.000439518 0)
(0.0983471 0.00045521 0)
(0.098228 0.000470064 0)
(0.0981074 0.000484517 0)
(0.0979856 0.000499001 0)
(0.0978627 0.000513907 0)
(0.0977385 0.000529573 0)
(0.0976131 0.000546274 0)
(0.0974863 0.000564223 0)
(0.0973579 0.000583577 0)
(0.0972278 0.000604443 0)
(0.0970956 0.000626893 0)
(0.0969613 0.00065097 0)
(0.0968246 0.000676698 0)
(0.0966854 0.00070409 0)
(0.0965435 0.000733154 0)
(0.0963988 0.000763896 0)
(0.0962511 0.000796326 0)
(0.0961002 0.000830458 0)
(0.0959462 0.000866312 0)
(0.0957888 0.000903913 0)
(0.0956279 0.000943294 0)
(0.0954636 0.000984494 0)
(0.0952956 0.00102756 0)
(0.0951239 0.00107254 0)
(0.0949485 0.00111951 0)
(0.0947692 0.00116856 0)
(0.0945861 0.00121988 0)
(0.094399 0.00127388 0)
(0.0940147 0.000104879 -4.41986e-24)
(0.0938027 0.000110083 -4.50797e-24)
(0.0935807 0.00011563 -3.17601e-26)
(0.0933481 0.000121546 1.38588e-23)
(0.0931042 0.000127863 -4.59028e-24)
(0.0928482 0.000134614 -4.7272e-24)
(0.0925794 0.000141838 -1.45637e-23)
(0.0922967 0.000149578 1.44593e-23)
(0.0919993 0.000157883 4.95018e-24)
(0.0916861 0.000166805 0)
(0.0913559 0.000176406 5.11734e-24)
(0.0910074 0.000186752 -5.20719e-24)
(0.0906393 0.00019792 4.28548e-23)
(0.09025 0.000209994 -9.18595e-23)
(0.0898377 0.000223071 4.9108e-23)
(0.0894006 0.000237259 3.98178e-23)
(0.0889366 0.000252683 5.10941e-23)
(0.0884434 0.000269481 -5.85341e-24)
(0.0879183 0.000287815 5.9825e-24)
(0.0873585 0.000307867 -6.11891e-24)
(0.0867607 0.00032985 0)
(0.0861213 0.000354005 6.41602e-24)
(0.0854361 0.000380616 -6.57799e-24)
(0.0847005 0.000410009 0)
(0.0839093 0.00044257 -6.93244e-24)
(0.0830563 0.000478747 0)
(0.0821348 0.000519074 -7.33333e-24)
(0.0811368 0.000564182 -1.22891e-22)
(0.0800532 0.000614826 1.30492e-22)
(0.0788735 0.000671913 -1.30967e-22)
(0.0775853 0.000736539 1.30767e-22)
(0.0761742 0.000810038 0)
(0.0746231 0.000894035 0)
(0.0729119 0.000990519 1.60121e-22)
(0.0710166 0.00110192 -1.50656e-22)
(0.0689084 0.00123117 0)
(0.0665528 0.0013818 0)
(0.063909 0.00155784 0)
(0.0609283 0.00176376 0)
(0.0575542 0.00200393 0)
(0.0537229 0.00228176 0)
(0.0493661 0.00259793 0)
(0.0444179 0.00294749 0)
(0.0388273 0.00331531 0)
(0.0325824 0.00366922 -1.46742e-23)
(0.025748 0.00395026 -5.0297e-22)
(0.018507 0.00406088 5.02216e-22)
(0.0112304 0.00385241 5.45149e-22)
(0.00480303 0.00309676 -5.44331e-22)
(0.000977937 0.00143748 0)
(0.0940238 0.000314427 -4.47274e-24)
(0.093812 0.00033001 -9.12697e-24)
(0.0935902 0.000346618 -4.78909e-24)
(0.0933579 0.000364332 4.45462e-24)
(0.0931142 0.000383244 -4.65547e-24)
(0.0928586 0.000403457 3.33795e-23)
(0.09259 0.000425088 -5.24232e-23)
(0.0923078 0.000448266 4.87123e-24)
(0.0920108 0.000473134 6.50512e-23)
(0.0916982 0.000499854 -8.98417e-23)
(0.0913685 0.000528607 -8.77884e-23)
(0.0910207 0.000559595 7.73561e-23)
(0.0906534 0.000593045 0)
(0.0902649 0.000629212 5.40618e-24)
(0.0898535 0.000668386 -1.65265e-23)
(0.0894175 0.000710892 -1.87501e-22)
(0.0889547 0.0007571 1.80002e-22)
(0.0884628 0.00080743 -1.91347e-22)
(0.0879393 0.000862364 -1.79734e-23)
(0.0873812 0.00092245 6.13233e-24)
(0.0867853 0.000988323 0)
(0.0861481 0.00106071 -6.43264e-24)
(0.0854655 0.00114046 -2.07343e-22)
(0.0847328 0.00122855 4.33321e-22)
(0.083945 0.00132614 2.39092e-22)
(0.0830959 0.00143456 -4.50908e-22)
(0.082179 0.00155543 4.8562e-22)
(0.0811864 0.00169061 -4.92767e-22)
(0.0801092 0.00184239 -7.81971e-24)
(0.078937 0.00201345 0)
(0.077658 0.00220709 0)
(0.0762579 0.00242727 0)
(0.0747203 0.00267885 0)
(0.0730257 0.00296773 -9.28157e-24)
(0.0711509 0.00330113 -6.29023e-22)
(0.0690685 0.00368778 -2.62652e-23)
(0.0667455 0.00413805 6.53585e-22)
(0.0641431 0.00466392 7.10896e-22)
(0.0612152 0.00527844 -7.09954e-22)
(0.0579081 0.0059944 -2.35512e-23)
(0.0541615 0.00682151 -2.4579e-23)
(0.0499101 0.00776125 -8.46234e-22)
(0.04509 0.0087982 8.18375e-22)
(0.0396491 0.00988651 -2.78373e-23)
(0.0335676 0.0109297 1.47768e-23)
(0.0268911 0.0117518 -1.02286e-21)
(0.019767 0.0120624 1.02247e-21)
(0.0125056 0.0114198 -2.13191e-21)
(0.00587236 0.00915569 2.09625e-21)
(0.00141209 0.00421911 -2.14733e-21)
(0.0940421 0.000522966 -2.64521e-23)
(0.0938306 0.000548842 -9.29309e-24)
(0.0936092 0.000576413 3.58181e-23)
(0.0933773 0.000605819 -7.37298e-23)
(0.0931342 0.000637215 1.57794e-22)
(0.0928792 0.000670773 -7.47628e-23)
(0.0926114 0.000706686 1.41948e-26)
(0.09233 0.00074517 9.7151e-24)
(0.092034 0.000786466 1.69483e-22)
(0.0917224 0.000830843 -1.59427e-22)
(0.091394 0.000878603 0)
(0.0910476 0.000930081 1.457e-26)
(0.0906817 0.000985657 0)
(0.090295 0.00104576 1.85721e-22)
(0.0898856 0.00111086 -1.63705e-22)
(0.0894517 0.00118151 -3.53119e-22)
(0.0889914 0.00125832 1.97068e-23)
(0.0885023 0.00134199 -3.71891e-22)
(0.0879818 0.00143332 1.20265e-23)
(0.0874273 0.00153324 -3.98581e-22)
(0.0868354 0.00164278 4.10792e-22)
(0.0862028 0.00176317 -4.18739e-22)
(0.0855254 0.00189582 4.31578e-22)
(0.0847988 0.00204235 1.35856e-23)
(0.0840178 0.00220468 -1.39592e-23)
(0.0831769 0.00238505 1.43559e-23)
(0.0822693 0.00258611 -4.80896e-22)
(0.0812878 0.00281099 4.95701e-22)
(0.0802236 0.00306344 5.27396e-22)
(0.079067 0.00334794 -5.11208e-22)
(0.0778065 0.0036699 0)
(0.0764289 0.00403587 0)
(0.0749186 0.00445383 1.79519e-23)
(0.0732577 0.00493347 1.23647e-21)
(0.0714247 0.00548659 2.91467e-23)
(0.0693945 0.00612737 -1.24391e-21)
(0.0671374 0.00687263 0)
(0.0646185 0.00774162 -2.17049e-23)
(0.0617968 0.00875513 1.51004e-21)
(0.0586246 0.00993318 -3.01326e-21)
(0.0550482 0.0112903 3.19162e-21)
(0.0510087 0.012827 9.4491e-23)
(0.0464456 0.0145157 -1.65594e-21)
(0.0413046 0.0162784 -1.78903e-21)
(0.0355503 0.0179545 1.84375e-21)
(0.0291886 0.0192551 1.4165e-24)
(0.0222944 0.0197032 -3.12871e-23)
(0.0150584 0.0185743 2.06089e-21)
(0.00799372 0.0148047 -1.99564e-21)
(0.0022461 0.00675794 -1.99608e-21)
(0.0940693 0.000729808 1.74261e-23)
(0.0938583 0.000765817 -8.84647e-24)
(0.0936376 0.000804175 1.95357e-26)
(0.0934065 0.000845082 9.10913e-24)
(0.0931642 0.000888756 -1.96297e-26)
(0.0929102 0.00093544 1.51459e-22)
(0.0926436 0.000985407 -2.86251e-22)
(0.0923636 0.00103896 1.53868e-22)
(0.0920691 0.00109643 -9.85553e-24)
(0.0917592 0.00115821 1.8225e-22)
(0.0914327 0.0012247 -1.62113e-22)
(0.0910885 0.00129639 -3.36647e-22)
(0.0907251 0.00137379 6.79845e-22)
(0.090341 0.0014575 -6.93453e-22)
(0.0899347 0.0015482 7.07712e-22)
(0.0895043 0.00164665 -7.11454e-22)
(0.0890478 0.00175369 -3.76699e-22)
(0.088563 0.00187032 2.24601e-26)
(0.0880474 0.00199764 0)
(0.0874984 0.00213695 -3.88138e-22)
(0.0869129 0.0022897 4.00321e-22)
(0.0862874 0.0024576 0)
(0.0856182 0.0026426 -8.64965e-22)
(0.084901 0.002847 8.50929e-22)
(0.084131 0.00307345 1.40921e-23)
(0.0833026 0.00332507 -3.69175e-26)
(0.0824098 0.00360555 1.48948e-23)
(0.0814455 0.00391925 0)
(0.0804017 0.00427136 -5.29054e-26)
(0.0792692 0.00466808 0)
(0.0780376 0.00511689 -1.69036e-23)
(0.0766948 0.0056268 1.14267e-21)
(0.0752268 0.00620875 -1.14237e-21)
(0.0736177 0.00687599 -1.88886e-23)
(0.0718488 0.00764454 3.90806e-23)
(0.0698986 0.00853355 -1.34624e-21)
(0.0677421 0.00956555 1.30439e-21)
(0.0653503 0.0107661 2.20802e-23)
(0.0626898 0.0121622 -3.52491e-25)
(0.0597218 0.0137793 2.35147e-23)
(0.0564024 0.0156345 -1.61263e-21)
(0.0526821 0.0177245 3.25838e-21)
(0.048506 0.0200067 -1.69773e-21)
(0.043816 0.0223695 1.75258e-21)
(0.0385536 0.0245899 -1.83472e-21)
(0.0326647 0.0262734 -3.64132e-21)
(0.0261107 0.0267741 7.4285e-21)
(0.0189022 0.0251009 -3.76053e-21)
(0.0112102 0.0198321 0)
(0.00348429 0.00894506 -3.53907e-21)
(0.0941054 0.0009343 -8.64278e-24)
(0.0938951 0.000980212 -3.53246e-23)
(0.0936753 0.0010291 1.07115e-22)
(0.0934453 0.00108124 -1.4468e-22)
(0.0932043 0.00113691 6.37316e-23)
(0.0929518 0.00119642 9.35175e-24)
(0.0926869 0.00126013 -9.51165e-24)
(0.0924088 0.00132842 -2.46305e-26)
(0.0921165 0.00140173 9.85363e-24)
(0.0918091 0.00148054 -2.00487e-23)
(0.0914854 0.00156539 -3.30082e-22)
(0.0911442 0.00165688 3.4066e-22)
(0.0907842 0.00175569 -3.32956e-22)
(0.090404 0.00186258 3.43702e-22)
(0.090002 0.00197839 0)
(0.0895764 0.00210412 -2.47793e-26)
(0.0891254 0.00224085 0)
(0.0886468 0.00238984 -3.71914e-22)
(0.0881381 0.00255252 3.96081e-22)
(0.087597 0.00273052 -1.24525e-23)
(0.0870203 0.00292573 -8.39701e-22)
(0.086405 0.00314032 8.27307e-22)
(0.0857475 0.00337679 -1.34616e-23)
(0.0850436 0.00363805 0)
(0.0842889 0.0039275 0)
(0.0834784 0.00424913 -9.6556e-22)
(0.0826063 0.00460761 9.36226e-22)
(0.0816662 0.00500848 0)
(0.080651 0.00545832 -3.21262e-23)
(0.0795524 0.00596496 0)
(0.0783612 0.00653782 1.72003e-23)
(0.0770669 0.0071882 -1.77218e-23)
(0.0756578 0.00792974 -1.8456e-23)
(0.0741205 0.00877885 1.90145e-23)
(0.0724402 0.00975525 1.25067e-21)
(0.0705999 0.0108823 -1.29083e-21)
(0.0685809 0.0121872 2.8034e-21)
(0.0663622 0.0137004 -2.80518e-21)
(0.0639201 0.0154532 2.97375e-21)
(0.061228 0.0174742 8.31065e-23)
(0.0582548 0.0197797 -3.13124e-21)
(0.0549633 0.0223601 -2.49739e-23)
(0.0513066 0.0251553 1.23772e-24)
(0.0472225 0.02802 1.63378e-24)
(0.0426241 0.0306734 2.15006e-24)
(0.0373822 0.0326307 -5.3909e-23)
(0.0313062 0.033108 -2.47594e-23)
(0.0241547 0.030887 -2.35724e-23)
(0.015652 0.0242024 0)
(0.00514918 0.0107737 7.23233e-24)
(0.0941501 0.00113581 -4.28897e-23)
(0.0939409 0.00119138 2.57998e-23)
(0.0937223 0.00125057 8.83336e-24)
(0.0934939 0.00131371 1.35672e-22)
(0.0932548 0.00138115 -1.3572e-22)
(0.0930043 0.00145328 1.4052e-22)
(0.0927418 0.00153053 -3.11975e-22)
(0.0924663 0.00161337 4.4435e-22)
(0.092177 0.00170232 -3.11285e-22)
(0.0918729 0.00179799 -3.2315e-22)
(0.0915529 0.00190102 -1.6339e-23)
(0.0912159 0.00201215 6.56576e-22)
(0.0908606 0.0021322 -6.91835e-22)
(0.0904856 0.0022621 3.22735e-22)
(0.0900894 0.0024029 3.48527e-22)
(0.0896704 0.00255578 3.64573e-22)
(0.0892267 0.00272209 -2.82937e-23)
(0.0887562 0.00290335 7.4302e-22)
(0.0882569 0.00310132 7.67732e-22)
(0.0877263 0.00331799 1.95939e-23)
(0.0871616 0.00355565 -8.14119e-22)
(0.0865599 0.00381695 0)
(0.0859179 0.00410495 0)
(0.0852319 0.00442319 -9.08255e-22)
(0.0844978 0.00477581 8.9521e-22)
(0.0837111 0.00516764 9.64579e-22)
(0.0828668 0.00560436 -9.66008e-22)
(0.0819591 0.00609266 0)
(0.080982 0.00664047 1.07854e-21)
(0.0799284 0.00725721 -1.08061e-21)
(0.0787907 0.0079541 0)
(0.0775606 0.00874457 -2.33776e-21)
(0.0762289 0.00964464 2.35942e-21)
(0.0747857 0.0106734 -1.94943e-23)
(0.0732206 0.0118536 -2.606e-21)
(0.0715227 0.0132115 2.63019e-21)
(0.0696809 0.0147773 0)
(0.0676838 0.0165833 2.94768e-21)
(0.0655203 0.0186617 -2.92949e-21)
(0.0631781 0.0210385 2.37112e-23)
(0.0606428 0.0237234 3.22545e-21)
(0.0578929 0.0266918 -6.46838e-21)
(0.054893 0.0298589 2.1152e-23)
(0.0515798 0.0330403 3.77093e-23)
(0.0478388 0.0359001 3.34956e-21)
(0.0434634 0.0378829 3.70017e-24)
(0.0380947 0.0381152 -2.88122e-21)
(0.0311693 0.0352478 2.9537e-21)
(0.0217403 0.0273286 0)
(0.00747915 0.0119602 2.66187e-23)
(0.0942034 0.0013335 8.44533e-24)
(0.0939957 0.00139818 7.78433e-23)
(0.0937791 0.00146715 -6.94209e-23)
(0.0935528 0.0015408 8.91729e-24)
(0.0933162 0.00161954 1.37149e-22)
(0.0930687 0.00170381 -1.37363e-22)
(0.0928094 0.00179414 -2.94516e-22)
(0.0925375 0.00189107 4.2928e-24)
(0.0922522 0.00199523 -5.59268e-24)
(0.0919526 0.00210731 3.27337e-22)
(0.0916376 0.0022281 -3.19962e-22)
(0.0913061 0.00235846 6.7907e-22)
(0.0909569 0.00249937 -3.38425e-22)
(0.0905888 0.00265194 1.09449e-23)
(0.0902003 0.00281741 1.12039e-23)
(0.0897899 0.00299719 7.41444e-22)
(0.0893558 0.00319288 -5.07129e-24)
(0.0888963 0.00340631 7.74196e-22)
(0.0884093 0.00363956 1.23795e-23)
(0.0878926 0.00389501 0)
(0.0873437 0.00417539 0)
(0.0867601 0.00448386 -8.69959e-22)
(0.0861386 0.00482406 8.72157e-22)
(0.0854762 0.00520023 0)
(0.0847694 0.00561728 1.46795e-23)
(0.0840141 0.00608096 0)
(0.0832063 0.00659803 -1.01396e-21)
(0.0823414 0.00717642 2.06435e-21)
(0.0814143 0.0078255 -1.05047e-21)
(0.0804198 0.00855634 -2.22588e-21)
(0.0793521 0.00938208 -7.43017e-23)
(0.0782055 0.0103183 -7.82497e-23)
(0.0769738 0.0113834 -8.20772e-23)
(0.0756514 0.012599 2.5008e-21)
(0.0742329 0.0139902 2.68103e-21)
(0.0727141 0.0155856 -2.68742e-21)
(0.071092 0.0174159 0)
(0.0693662 0.0195128 2.96859e-21)
(0.0675383 0.0219036 -2.97549e-21)
(0.0656118 0.0246036 -3.15475e-21)
(0.0635897 0.0276029 3.13737e-21)
(0.0614684 0.0308451 2.56187e-23)
(0.059227 0.0341986 3.14645e-21)
(0.056807 0.0374162 -1.03507e-22)
(0.0540793 0.0400879 -3.10782e-21)
(0.0507843 0.0415913 2.37228e-23)
(0.0464452 0.0410305 0)
(0.0402593 0.0371149 -1.899e-23)
(0.0304628 0.0280938 -9.345e-22)
(0.0120375 0.0118908 4.10336e-22)
(-0.000192813 0.000263416 0)
(-0.000848051 0.000507968 3.15402e-22)
(-0.00183788 0.00057594 -3.15876e-22)
(-0.0028578 0.000547353 -3.15676e-22)
(-0.00376258 0.000466289 3.16151e-22)
(-0.00449425 0.000358828 -9.77637e-24)
(-0.00502513 0.000240675 0)
(-0.00534395 0.000121035 0)
(-0.00544741 5.04178e-06 0)
(-0.00534713 -0.00010783 0)
(-0.00505705 -0.000214357 0)
(-0.00458347 -0.00031391 0)
(-0.00393655 -0.000406717 0)
(-0.0031272 -0.000493091 0)
(-0.00216569 -0.000573398 0)
(-0.00106188 -0.000647856 1.14606e-22)
(0.000174752 -0.000716779 -1.07757e-22)
(0.0015351 -0.000780402 0)
(0.00301037 -0.000838947 0)
(0.00459201 -0.000892594 -9.28587e-23)
(0.00627177 -0.000941483 9.30005e-23)
(0.00804153 -0.0009857 -7.64662e-23)
(0.00989307 -0.00102529 4.96078e-24)
(0.0118184 -0.00106029 0)
(0.0138094 -0.0010908 4.28043e-24)
(0.0158583 -0.00111695 0)
(0.0179574 -0.00113888 0)
(0.0200991 -0.00115671 0)
(0.0222762 -0.00117056 3.00427e-24)
(0.0244815 -0.00118058 0)
(0.0267079 -0.0011869 -2.42717e-24)
(0.0289487 -0.00118966 2.15702e-24)
(0.0311973 -0.00118902 -1.89999e-24)
(0.0334474 -0.00118513 1.38818e-23)
(0.0356929 -0.00117814 -1.36712e-23)
(0.0379281 -0.00116824 -7.58112e-24)
(0.0401472 -0.0011556 1.50427e-23)
(0.0423453 -0.00114039 -7.25809e-24)
(0.0445172 -0.0011228 -6.50748e-25)
(0.0466585 -0.00110302 4.91759e-25)
(0.0487649 -0.00108122 0)
(0.0508324 -0.00105761 2.1401e-25)
(0.0528575 -0.00103237 -2.28868e-25)
(0.054837 -0.00100569 1.21625e-25)
(0.0567679 -0.000977757 1.08915e-25)
(0.0586477 -0.000948761 -6.66648e-25)
(0.0604743 -0.00091888 2.05332e-25)
(0.0622458 -0.000888277 6.98433e-25)
(0.0639606 -0.000857092 -3.65948e-25)
(0.0656174 -0.000825425 4.36111e-25)
(-0.000252314 0.000757825 -1.19489e-21)
(-0.000950831 0.00145689 -1.30585e-21)
(-0.001861 0.0016518 1.28725e-21)
(-0.00275221 0.00156852 -6.20132e-22)
(-0.00351577 0.00133288 6.21147e-22)
(-0.00410975 0.00102043 9.84422e-24)
(-0.00451463 0.000676387 -1.95496e-23)
(-0.00472264 0.000327011 -6.23972e-22)
(-0.00473456 -1.30576e-05 6.05578e-22)
(-0.00455905 -0.000342604 -1.83416e-23)
(-0.00420543 -0.000654407 -1.78489e-23)
(-0.00368116 -0.000946805 5.42406e-22)
(-0.00299506 -0.00122 -5.43127e-22)
(-0.00215647 -0.00147465 -5.04402e-22)
(-0.00117425 -0.00171181 2.09109e-23)
(-5.70803e-05 -0.00193194 4.84807e-22)
(0.00118644 -0.00213592 -7.05801e-24)
(0.00254808 -0.00232444 -1.35541e-23)
(0.00401975 -0.00249806 0)
(0.00559356 -0.00265726 0)
(0.00726178 -0.00280244 0)
(0.00901676 -0.00293386 -5.32755e-24)
(0.0108508 -0.00305165 2.93592e-22)
(0.0127561 -0.00315591 -3.18433e-22)
(0.0147252 -0.00324693 2.60876e-22)
(0.0167504 -0.00332507 -1.43495e-22)
(0.0188242 -0.00339074 -2.33932e-22)
(0.0209396 -0.00344429 1.11888e-22)
(0.0230893 -0.00348608 -3.01202e-24)
(0.0252664 -0.00351648 -5.52402e-24)
(0.0274642 -0.00353587 2.43247e-24)
(0.029676 -0.00354468 -6.56777e-24)
(0.0318954 -0.00354334 5.54011e-23)
(0.0341163 -0.0035323 -1.08899e-22)
(0.0363326 -0.00351205 4.83441e-23)
(0.0385387 -0.00348307 -3.70746e-24)
(0.0407293 -0.00344589 1.01151e-24)
(0.0428991 -0.00340104 0)
(0.0450433 -0.00334905 -9.99509e-24)
(0.0471574 -0.00329049 8.80772e-24)
(0.0492373 -0.0032259 3.86745e-24)
(0.051279 -0.00315586 -5.30472e-24)
(0.053279 -0.00308093 9.43706e-26)
(0.0552342 -0.00300167 -4.35978e-25)
(0.0571417 -0.00291865 5.06972e-25)
(0.058999 -0.00283242 1.93612e-25)
(0.0608039 -0.00274351 1.95174e-24)
(0.0625545 -0.00265242 5.43436e-25)
(0.0642494 -0.00255955 -6.09327e-25)
(0.0658872 -0.00246518 -1.25072e-24)
(-0.000356122 0.00116011 -1.23362e-21)
(-0.00112 0.00220657 1.3547e-21)
(-0.00186007 0.00250599 -1.31426e-21)
(-0.00249596 0.00237575 -2.05436e-23)
(-0.00298505 0.00200833 -3.02752e-25)
(-0.00331426 0.00152091 -1.26332e-21)
(-0.00347912 0.000982181 1.30474e-21)
(-0.00347748 0.000432046 1.25562e-21)
(-0.00331417 -0.00010602 -1.03086e-23)
(-0.00299492 -0.000627303 -2.36703e-21)
(-0.00252294 -0.0011229 2.33883e-21)
(-0.00190439 -0.00159028 -1.12639e-21)
(-0.0011454 -0.00202884 -1.7124e-23)
(-0.000252772 -0.00243896 0)
(0.000767288 -0.00282189 1.00416e-21)
(0.00190841 -0.00317861 -5.87004e-23)
(0.00316352 -0.00351011 -9.32093e-22)
(0.00452608 -0.00381724 2.75503e-23)
(0.00598945 -0.00410073 0)
(0.00754693 -0.00436123 0)
(0.00919181 -0.00459928 3.60914e-22)
(0.0109174 -0.00481523 -3.5022e-22)
(0.0127166 -0.0050092 -3.05505e-22)
(0.0145828 -0.00518138 3.25396e-22)
(0.0165086 -0.00533199 8.92862e-24)
(0.0184873 -0.0054617 -8.24727e-24)
(0.020512 -0.00557107 7.5811e-24)
(0.0225759 -0.00566065 -2.01796e-22)
(0.0246724 -0.005731 2.08926e-22)
(0.0267949 -0.00578268 -1.58954e-22)
(0.0289371 -0.00581629 1.70364e-22)
(0.0310926 -0.00583249 4.42386e-24)
(0.0332553 -0.00583197 1.18353e-22)
(0.0354194 -0.00581545 -2.18075e-22)
(0.0375791 -0.0057837 1.06044e-22)
(0.0397291 -0.00573754 3.99162e-23)
(0.0418641 -0.00567779 -3.52556e-23)
(0.0439791 -0.00560531 0)
(0.0460695 -0.00552099 -9.22982e-26)
(0.048131 -0.00542574 0)
(0.0501594 -0.00532046 1.01618e-23)
(0.0521511 -0.00520608 -9.77802e-24)
(0.0541026 -0.00508354 3.02325e-25)
(0.0560107 -0.00495376 -6.54816e-26)
(0.0578728 -0.00481767 -1.99789e-24)
(0.0596862 -0.00467618 4.88533e-24)
(0.061449 -0.00453017 -3.29727e-24)
(0.0631593 -0.00438044 2.63825e-24)
(0.0648154 -0.00422766 -1.83672e-24)
(0.0664161 -0.00407222 -7.53865e-25)
(-0.000477129 0.00139503 -2.64422e-21)
(-0.00127709 0.00264331 0)
(-0.00173018 0.00301742 2.76113e-21)
(-0.00199242 0.00285114 -5.52947e-21)
(-0.0020908 0.00238916 2.78935e-21)
(-0.00205018 0.00177502 1.28742e-21)
(-0.00188489 0.00109129 -1.35066e-21)
(-0.00159668 0.00038771 1.27614e-21)
(-0.00119372 -0.000305627 -2.54209e-21)
(-0.000679544 -0.00098204 1.24632e-21)
(-4.93856e-05 -0.00162955 1.88203e-23)
(0.000694243 -0.00224408 2.3572e-25)
(0.00154949 -0.00282425 1.74187e-23)
(0.00251291 -0.00337023 -1.07745e-21)
(0.00358115 -0.00388244 1.04467e-21)
(0.004751 -0.00436186 3.11721e-23)
(0.00601825 -0.00480921 -1.47727e-23)
(0.00737844 -0.0052252 8.84286e-22)
(0.00882679 -0.0056105 -8.84362e-22)
(0.0103582 -0.00596571 -1.28682e-23)
(0.0119674 -0.00629135 0)
(0.013649 -0.00658773 2.42015e-25)
(0.0153972 -0.00685491 0)
(0.0172059 -0.00709281 9.96051e-24)
(0.0190691 -0.0073018 2.30631e-25)
(0.0209807 -0.00748242 8.32539e-24)
(0.0229345 -0.00763552 -4.8208e-22)
(0.0249245 -0.00776175 4.74811e-22)
(0.0269447 -0.00786175 0)
(0.0289891 -0.00793623 -1.76707e-22)
(0.0310517 -0.00798595 1.82306e-22)
(0.0331268 -0.00801175 0)
(0.0352087 -0.00801453 -1.74118e-25)
(0.0372919 -0.00799525 -1.11585e-22)
(0.039371 -0.00795492 2.04429e-22)
(0.0414409 -0.00789462 -1.72323e-22)
(0.0434968 -0.00781547 1.4549e-22)
(0.0455338 -0.00771864 -1.20279e-22)
(0.0475476 -0.00760532 5.39928e-23)
(0.049534 -0.00747675 1.63857e-23)
(0.0514892 -0.00733416 -1.46337e-23)
(0.0534095 -0.00717883 -6.5219e-25)
(0.0552917 -0.00701203 -3.59932e-24)
(0.0571328 -0.00683505 4.22431e-24)
(0.0589299 -0.00664914 -3.63148e-25)
(0.0606809 -0.00645557 7.64243e-26)
(0.0623835 -0.00625554 -4.4944e-25)
(0.064036 -0.00605016 -6.52962e-26)
(0.0656367 -0.00584035 6.99788e-25)
(0.0671844 -0.00562652 -1.54181e-24)
(-0.000533503 0.00139377 -1.42939e-24)
(-0.00124661 0.00269566 -2.45008e-23)
(-0.00129873 0.00310476 -2.38276e-23)
(-0.00108553 0.0029244 -2.3227e-23)
(-0.000705998 0.00241966 -4.48615e-23)
(-0.000226343 0.00174004 -4.21491e-25)
(0.000323433 0.000976319 2.13359e-23)
(0.000941833 0.000187914 -2.11938e-23)