/*--------------------------------*- C++ -*----------------------------------*\
| =========                 |                                                 |
| \\      /  F ield         | OpenFOAM: The Open Source CFD Toolbox           |
|  \\    /   O peration     | Version:  2412                                  |
|   \\  /    A nd           | Website:  www.openfoam.com                      |
|    \\/     M anipulation  |                                                 |
\*---------------------------------------------------------------------------*/
FoamFile
{
    version     2.0;
    format      ascii;
    arch        "LSB;label=32;scalar=64";
    class       volVectorField;
    location    "29.5";
    object      vorticity;
}
// * * * * * * * * * * * * * * * * * * * * * * * * * * * * * * * * * * * * * //

dimensions      [0 0 -1 0 0 0 0];

internalField   nonuniform List<vector> 
63420
(
(0 0 5.97689e-06)
(0 0 5.94992e-06)
(0 0 5.92381e-06)
(0 0 5.89887e-06)
(0 0 5.87533e-06)
(0 0 5.85182e-06)
(0 0 5.826e-06)
(0 0 5.79975e-06)
(0 0 5.78903e-06)
(0 0 5.8332e-06)
(0 0 5.99564e-06)
(0 0 6.34968e-06)
(0 0 6.95132e-06)
(0 0 7.80831e-06)
(0 0 8.85832e-06)
(0 0 9.96669e-06)
(0 0 1.09465e-05)
(0 0 1.15956e-05)
(0 0 1.17387e-05)
(0 0 1.1264e-05)
(0 0 1.01435e-05)
(0 0 8.43556e-06)
(0 0 6.2703e-06)
(0 0 3.82392e-06)
(0 0 1.28926e-06)
(0 0 -1.1515e-06)
(0 0 -3.3474e-06)
(0 0 -5.19074e-06)
(0 0 -6.62073e-06)
(0 0 -7.62026e-06)
(0 0 -8.20814e-06)
(0 0 -8.42919e-06)
(0 0 -8.344e-06)
(0 0 -8.01981e-06)
(0 0 -7.52329e-06)
(0 0 -6.91545e-06)
(0 0 -6.24849e-06)
(0 0 -5.56452e-06)
(0 0 -4.89547e-06)
(0 0 -4.26383e-06)
(0 0 -3.68401e-06)
(0 0 -3.16385e-06)
(0 0 -2.7061e-06)
(0 0 -2.30984e-06)
(0 0 -1.97165e-06)
(0 0 -1.6866e-06)
(0 0 -1.44885e-06)
(0 0 -1.25205e-06)
(0 0 -1.08889e-06)
(0 0 -9.4855e-07)
(0 0 -8.07527e-07)
(0 0 -5.99534e-07)
(0 0 -1.21444e-07)
(0 0 1.25071e-06)
(0 4.38568e-23 5.38668e-06)
(0 0 1.79305e-05)
(0 0 1.78497e-05)
(0 0 1.77711e-05)
(0 0 1.76959e-05)
(0 0 1.76247e-05)
(0 0 1.75536e-05)
(0 0 1.74759e-05)
(0 0 1.73972e-05)
(0 0 1.73651e-05)
(0 0 1.74973e-05)
(0 0 1.79831e-05)
(0 0 1.90417e-05)
(0 0 2.08406e-05)
(0 0 2.34038e-05)
(0 0 2.65456e-05)
(0 0 2.98646e-05)
(0 0 3.28028e-05)
(0 0 3.47561e-05)
(0 0 3.52006e-05)
(0 0 3.3801e-05)
(0 0 3.04725e-05)
(0 0 2.5388e-05)
(0 0 1.89344e-05)
(0 0 1.16368e-05)
(0 0 4.07019e-06)
(0 0 -3.22146e-06)
(0 0 -9.78718e-06)
(0 0 -1.53048e-05)
(0 0 -1.95921e-05)
(0 0 -2.25967e-05)
(0 0 -2.43738e-05)
(0 0 -2.50562e-05)
(0 0 -2.48239e-05)
(0 0 -2.3877e-05)
(0 0 -2.24141e-05)
(0 0 -2.06168e-05)
(0 0 -1.86409e-05)
(0 0 -1.6612e-05)
(0 0 -1.46255e-05)
(0 0 -1.27487e-05)
(0 0 -1.10248e-05)
(0 0 -9.47742e-06)
(0 0 -8.11492e-06)
(0 0 -6.93478e-06)
(0 0 -5.927e-06)
(0 0 -5.07694e-06)
(0 0 -4.3674e-06)
(0 0 -3.77954e-06)
(0 0 -3.29177e-06)
(0 0 -2.87234e-06)
(0 0 -2.4528e-06)
(0 0 -1.84061e-06)
(0 0 -4.45552e-07)
(0 0 3.548e-06)
(0 4.43274e-23 1.55897e-05)
(0 0 2.98719e-05)
(0 0 2.97372e-05)
(0 0 2.96062e-05)
(0 0 2.94805e-05)
(0 0 2.93617e-05)
(0 0 2.92432e-05)
(0 0 2.91137e-05)
(0 0 2.89826e-05)
(0 0 2.8929e-05)
(0 0 2.9148e-05)
(0 0 2.9954e-05)
(0 0 3.17118e-05)
(0 0 3.47013e-05)
(0 0 3.89643e-05)
(0 0 4.41955e-05)
(0 0 4.97305e-05)
(0 0 5.46446e-05)
(0 0 5.79342e-05)
(0 0 5.87278e-05)
(0 0 5.64652e-05)
(0 0 5.10013e-05)
(0 0 4.2618e-05)
(0 0 3.19532e-05)
(0 0 1.98752e-05)
(0 0 7.33654e-06)
(0 0 -4.76074e-06)
(0 0 -1.56674e-05)
(0 0 -2.48472e-05)
(0 0 -3.1995e-05)
(0 0 -3.70215e-05)
(0 0 -4.00155e-05)
(0 0 -4.11948e-05)
(0 0 -4.08561e-05)
(0 0 -3.93299e-05)
(0 0 -3.69442e-05)
(0 0 -3.39999e-05)
(0 0 -3.07551e-05)
(0 0 -2.74181e-05)
(0 0 -2.41472e-05)
(0 0 -2.10545e-05)
(0 0 -1.82119e-05)
(0 0 -1.5659e-05)
(0 0 -1.34102e-05)
(0 0 -1.14617e-05)
(0 0 -9.79723e-06)
(0 0 -8.39295e-06)
(0 0 -7.22059e-06)
(0 0 -6.24929e-06)
(0 0 -5.4439e-06)
(0 0 -4.75367e-06)
(0 0 -4.07109e-06)
(0 0 -3.09603e-06)
(0 0 -9.08045e-07)
(0 0 5.33344e-06)
(0 2.61522e-22 2.41873e-05)
(0 0 4.1793e-05)
(0 0 4.16044e-05)
(0 0 4.14207e-05)
(0 0 4.12447e-05)
(0 0 4.10782e-05)
(0 0 4.09123e-05)
(0 0 4.07313e-05)
(0 0 4.05481e-05)
(0 0 4.04725e-05)
(0 0 4.07761e-05)
(0 0 4.18973e-05)
(0 0 4.43457e-05)
(0 0 4.85148e-05)
(0 0 5.44674e-05)
(0 0 6.1784e-05)
(0 0 6.95442e-05)
(0 0 7.64624e-05)
(0 0 8.11407e-05)
(0 0 8.23612e-05)
(0 0 7.93365e-05)
(0 0 7.1855e-05)
(0 0 6.02996e-05)
(0 0 4.55494e-05)
(0 0 2.88066e-05)
(0 0 1.13933e-05)
(0 0 -5.4358e-06)
(0 0 -2.06364e-05)
(0 0 -3.34582e-05)
(0 0 -4.34717e-05)
(0 0 -5.05473e-05)
(0 0 -5.4803e-05)
(0 0 -5.65371e-05)
(0 0 -5.61583e-05)
(0 0 -5.41231e-05)
(0 0 -5.0886e-05)
(0 0 -4.6864e-05)
(0 0 -4.24157e-05)
(0 0 -3.78306e-05)
(0 0 -3.33294e-05)
(0 0 -2.90685e-05)
(0 0 -2.51488e-05)
(0 0 -2.16261e-05)
(0 0 -1.85214e-05)
(0 0 -1.58301e-05)
(0 0 -1.35305e-05)
(0 0 -1.15899e-05)
(0 0 -9.96962e-06)
(0 0 -8.6276e-06)
(0 0 -7.51623e-06)
(0 0 -6.56877e-06)
(0 0 -5.6481e-06)
(0 0 -4.37665e-06)
(0 0 -1.59692e-06)
(0 0 6.28351e-06)
(0 -1.71669e-22 3.01688e-05)
(0 0 5.3686e-05)
(0 0 5.3443e-05)
(0 0 5.32065e-05)
(0 0 5.29801e-05)
(0 0 5.2766e-05)
(0 0 5.2553e-05)
(0 0 5.23208e-05)
(0 0 5.20858e-05)
(0 0 5.19877e-05)
(0 0 5.2373e-05)
(0 0 5.38025e-05)
(0 0 5.69299e-05)
(0 0 6.22634e-05)
(0 0 6.98914e-05)
(0 0 7.92873e-05)
(0 0 8.92835e-05)
(0 0 9.82429e-05)
(0 0 0.000104379)
(0 0 0.00010613)
(0 0 0.000102478)
(0 0 9.31371e-05)
(0 0 7.85796e-05)
(0 0 5.99134e-05)
(0 0 3.86617e-05)
(0 0 1.65056e-05)
(0 0 -4.95536e-06)
(0 0 -2.43855e-05)
(0 0 -4.08214e-05)
(0 0 -5.37069e-05)
(0 0 -6.28672e-05)
(0 0 -6.84442e-05)
(0 0 -7.08102e-05)
(0 0 -7.04798e-05)
(0 0 -6.80299e-05)
(0 0 -6.40367e-05)
(0 0 -5.90298e-05)
(0 0 -5.34652e-05)
(0 0 -4.77123e-05)
(0 0 -4.20528e-05)
(0 0 -3.66873e-05)
(0 0 -3.17456e-05)
(0 0 -2.73004e-05)
(0 0 -2.33797e-05)
(0 0 -1.9979e-05)
(0 0 -1.70718e-05)
(0 0 -1.46177e-05)
(0 0 -1.25682e-05)
(0 0 -1.0871e-05)
(0 0 -9.46748e-06)
(0 0 -8.27874e-06)
(0 0 -7.1501e-06)
(0 0 -5.66669e-06)
(0 0 -2.5613e-06)
(0 0 6.13263e-06)
(0 8.47444e-23 3.26292e-05)
(0 0 6.55447e-05)
(0 0 6.52449e-05)
(0 0 6.49551e-05)
(0 0 6.46783e-05)
(0 0 6.44169e-05)
(0 0 6.4157e-05)
(0 0 6.38741e-05)
(0 0 6.35877e-05)
(0 0 6.34665e-05)
(0 0 6.39301e-05)
(0 0 6.56595e-05)
(0 0 6.94515e-05)
(0 0 7.59305e-05)
(0 0 8.5216e-05)
(0 0 9.6683e-05)
(0 0 0.000108928)
(0 0 0.000119973)
(0 0 0.000127651)
(0 0 0.000130058)
(0 0 0.000125942)
(0 0 0.000114935)
(0 0 9.75827e-05)
(0 0 7.52072e-05)
(0 0 4.9637e-05)
(0 0 2.28993e-05)
(0 0 -3.07078e-06)
(0 0 -2.66514e-05)
(0 0 -4.66667e-05)
(0 0 -6.24309e-05)
(0 0 -7.3719e-05)
(0 0 -8.06893e-05)
(0 0 -8.37807e-05)
(0 0 -8.3606e-05)
(0 0 -8.0856e-05)
(0 0 -7.62224e-05)
(0 0 -7.0343e-05)
(0 0 -6.37681e-05)
(0 0 -5.69445e-05)
(0 0 -5.02141e-05)
(0 0 -4.38207e-05)
(0 0 -3.79236e-05)
(0 0 -3.26127e-05)
(0 0 -2.79238e-05)
(0 0 -2.38536e-05)
(0 0 -2.03717e-05)
(0 0 -1.74307e-05)
(0 0 -1.49738e-05)
(0 0 -1.2939e-05)
(0 0 -1.12588e-05)
(0 0 -9.84597e-06)
(0 0 -8.54174e-06)
(0 0 -6.9406e-06)
(0 0 -3.82385e-06)
(0 0 4.65586e-06)
(0 4.18147e-22 3.07119e-05)
(0 0 7.73601e-05)
(0 0 7.7001e-05)
(0 0 7.66581e-05)
(0 0 7.63313e-05)
(0 0 7.60229e-05)
(0 0 7.57164e-05)
(0 0 7.53834e-05)
(0 0 7.50461e-05)
(0 0 7.49011e-05)
(0 0 7.5439e-05)
(0 0 7.74585e-05)
(0 0 8.18983e-05)
(0 0 8.95008e-05)
(0 0 0.000100422)
(0 0 0.00011395)
(0 0 0.000128457)
(0 0 0.000141637)
(0 0 0.000150951)
(0 0 0.000154157)
(0 0 0.000149764)
(0 0 0.000137309)
(0 0 0.000117401)
(0 0 9.15531e-05)
(0 0 6.1884e-05)
(0 0 3.07509e-05)
(0 0 4.14041e-07)
(0 0 -2.72245e-05)
(0 0 -5.07775e-05)
(0 0 -6.94265e-05)
(0 0 -8.28901e-05)
(0 0 -9.13351e-05)
(0 0 -9.52579e-05)
(0 0 -9.53612e-05)
(0 0 -9.24414e-05)
(0 0 -8.72997e-05)
(0 0 -8.06765e-05)
(0 0 -7.32125e-05)
(0 0 -6.54297e-05)
(0 0 -5.77282e-05)
(0 0 -5.03952e-05)
(0 0 -4.36191e-05)
(0 0 -3.75076e-05)
(0 0 -3.21055e-05)
(0 0 -2.74115e-05)
(0 0 -2.33925e-05)
(0 0 -1.99955e-05)
(0 0 -1.71561e-05)
(0 0 -1.48043e-05)
(0 0 -1.28646e-05)
(0 0 -1.12458e-05)
(0 0 -9.79702e-06)
(0 0 -8.16817e-06)
(0 0 -5.36677e-06)
(0 0 1.68107e-06)
(0 -8.17905e-23 2.34616e-05)
(-1.80688e-23 7.91494e-21 3.36252e-06)
(-1.44042e-22 7.78189e-21 2.71629e-06)
(3.12268e-23 -1.92581e-22 1.83737e-06)
(3.98462e-23 -2.32255e-20 6.82602e-07)
(-8.98357e-23 7.93219e-21 -7.83868e-07)
(3.51615e-22 7.78999e-21 -2.59064e-06)
(-7.74286e-22 2.27111e-20 -4.76092e-06)
(3.04719e-22 -2.30734e-20 -7.31497e-06)
(6.12479e-22 -7.42481e-21 -1.02723e-05)
(-8.72878e-22 -3.65072e-24 -1.36537e-05)
(-8.7112e-22 -7.43563e-21 -1.7482e-05)
(7.62768e-22 7.06572e-21 -2.17836e-05)
(5.59072e-22 -5.81686e-20 -2.65891e-05)
(-1.03537e-21 1.24847e-19 -3.19341e-05)
(3.59957e-22 -6.71424e-20 -3.78578e-05)
(-1.19269e-21 -5.06119e-20 -4.44138e-05)
(2.31066e-21 -6.44519e-20 -5.1647e-05)
(-1.80833e-21 7.58804e-21 -5.96446e-05)
(-1.82058e-22 -7.08212e-21 -6.84554e-05)
(6.8471e-23 7.08469e-21 -7.81821e-05)
(-3.06289e-24 -1.25276e-22 -8.89082e-05)
(-6.34137e-23 -6.83118e-21 -0.000100747)
(-1.96058e-21 6.88773e-21 -0.000113828)
(4.09598e-21 1.25931e-23 -0.000128301)
(1.19259e-21 6.68354e-21 -0.000144342)
(-3.1914e-21 -5.18141e-24 -0.000162156)
(4.58922e-21 7.74995e-21 -0.000181989)
(-5.40932e-21 1.00598e-19 -0.000204142)
(6.95724e-22 -1.08016e-19 -0.000228988)
(-2.10256e-21 9.85849e-20 -0.000257009)
(2.04883e-21 -9.96971e-20 -0.000288859)
(4.72302e-23 1.30602e-21 -0.000325468)
(-6.13973e-23 -1.60135e-21 -0.00036823)
(2.73658e-21 -9.41559e-20 -0.000419352)
(-8.44501e-21 9.13665e-20 -0.000482447)
(-3.03578e-22 -1.5052e-21 -0.00056359)
(6.02643e-21 1.31804e-23 -0.000673098)
(6.54254e-21 1.43092e-23 -0.000828438)
(-6.52161e-21 -1.42634e-23 -0.00105881)
(-2.15935e-22 -4.72272e-25 -0.00141197)
(-2.24937e-22 -4.9196e-25 -0.00196374)
(-7.72994e-21 -1.69061e-23 -0.00283016)
(7.46154e-21 1.63191e-23 -0.0041813)
(-2.45996e-22 1.46201e-22 -0.00625365)
(-3.52879e-23 7.55868e-21 -0.00935608)
(-2.38247e-20 4.88293e-20 -0.0138614)
(2.29485e-20 -6.43677e-20 -0.0201718)
(-5.38737e-21 -9.08019e-21 -0.0286467)
(5.92005e-21 2.49458e-20 -0.0394869)
(-1.96261e-20 -5.47893e-21 -0.0525018)
(-2.54301e-22 7.92461e-21 9.88546e-06)
(-1.06395e-22 1.55878e-20 7.87962e-06)
(2.89405e-22 7.57917e-21 5.11907e-06)
(-8.45152e-22 -7.79479e-21 1.47645e-06)
(1.57092e-21 7.43565e-21 -3.14936e-06)
(-4.7034e-22 -5.32145e-20 -8.83704e-06)
(-2.41491e-22 8.44838e-20 -1.56509e-05)
(-5.35449e-23 -8.77961e-21 -2.36494e-05)
(2.14921e-21 -9.72566e-20 -3.28914e-05)
(-2.2492e-21 1.37279e-19 -4.34409e-05)
(-8.52968e-22 1.25432e-19 -5.53713e-05)
(6.33604e-22 -1.12814e-19 -6.87677e-05)
(-3.82097e-22 7.15939e-22 -8.37288e-05)
(2.728e-21 -7.184e-21 -0.000100369)
(-2.13349e-21 2.38545e-20 -0.000118822)
(-5.92298e-21 2.37109e-19 -0.00013924)
(1.6894e-21 -2.22905e-19 -0.000161834)
(-5.55332e-21 2.3886e-19 -0.000186762)
(-2.99911e-22 1.93475e-20 -0.000214294)
(-3.73558e-21 -7.23995e-21 -0.000244669)
(3.95129e-21 1.41362e-22 -0.000278207)
(-3.96687e-21 8.9729e-21 -0.00031527)
(8.68496e-22 2.07182e-19 -0.000356271)
(6.02884e-21 -4.3853e-19 -0.000401687)
(4.54439e-21 -2.09382e-19 -0.000452078)
(-7.10611e-21 4.23942e-19 -0.000508102)
(3.86174e-21 -4.22414e-19 -0.000570543)
(-2.24136e-21 4.33387e-19 -0.000640352)
(3.19702e-21 1.46091e-21 -0.00071871)
(-3.62466e-21 -9.49888e-23 -0.000807138)
(-1.21762e-21 -2.66305e-24 -0.000907677)
(0 0 -0.00102321)
(1.79838e-22 9.33033e-23 -0.00115804)
(1.07406e-20 1.20594e-20 -0.00131894)
(-1.57956e-20 3.52433e-19 -0.00151693)
(-1.53454e-20 -2.38858e-20 -0.00177053)
(1.85636e-20 -3.47349e-19 -0.0021111)
(2.6323e-20 -2.99672e-19 -0.00259174)
(-9.64309e-21 3.201e-19 -0.00330108)
(-3.02536e-20 2.12366e-21 -0.00438397)
(2.94662e-20 1.68155e-20 -0.00607017)
(-4.1311e-20 2.27347e-19 -0.00871104)
(2.25446e-20 -2.36477e-19 -0.0128209)
(-1.74184e-20 1.41997e-20 -0.0191143)
(1.92892e-20 7.44793e-21 -0.0285241)
(-5.79409e-20 1.09269e-19 -0.0421752)
(5.78581e-20 -1.06963e-19 -0.0612778)
(-8.84433e-20 7.96295e-20 -0.0868927)
(8.53481e-20 -8.89564e-20 -0.119554)
(-1.81361e-20 -6.07446e-22 -0.157363)
(-6.5278e-23 4.69617e-20 1.58485e-05)
(-9.03186e-23 1.48498e-20 1.22341e-05)
(3.94946e-22 -6.15161e-20 7.16655e-06)
(-8.4834e-22 1.22336e-19 4.50075e-07)
(1.86227e-21 -2.6183e-19 -8.05518e-06)
(3.09035e-22 1.24469e-19 -1.84552e-05)
(-2.3877e-21 -8.46537e-22 -3.08419e-05)
(1.53328e-21 -1.68874e-20 -4.53073e-05)
(1.58614e-21 -2.55329e-19 -6.19531e-05)
(5.8555e-22 2.43251e-19 -8.0897e-05)
(-8.36033e-22 -1.58646e-21 -0.000102277)
(-4.11588e-21 -1.53039e-23 -0.000126255)
(6.52391e-21 -1.80766e-21 -0.000153021)
(-3.69935e-21 -2.48812e-19 -0.000182792)
(4.90331e-21 2.26048e-19 -0.000215822)
(-1.14995e-20 4.49101e-19 -0.00025242)
(-4.71288e-21 -1.18601e-20 -0.000292927)
(-4.97066e-21 4.61965e-19 -0.000337736)
(4.10001e-22 -1.40185e-20 -0.000387257)
(-1.25172e-20 4.48331e-19 -0.000442007)
(1.24522e-20 -4.65587e-19 -0.000502575)
(-9.41137e-21 4.44391e-19 -0.000569645)
(2.77465e-21 -4.62192e-19 -0.000643995)
(5.14161e-21 -9.24662e-21 -0.000726528)
(-2.56225e-21 1.35363e-20 -0.000818295)
(5.45515e-21 -8.74645e-21 -0.000920533)
(-1.90356e-20 4.15976e-19 -0.00103471)
(1.71799e-20 -4.4328e-19 -0.0011626)
(1.87147e-20 -4.11651e-19 -0.00130639)
(-1.54456e-20 4.13486e-19 -0.00146886)
(-1.06266e-21 -5.07393e-21 -0.00165369)
(1.09913e-20 -1.18924e-22 -0.00186603)
(-1.25495e-20 -2.43214e-20 -0.00211344)
(5.3726e-20 -7.49732e-19 -0.0024077)
(1.62871e-20 5.57356e-20 -0.00276782)
(-7.02974e-20 7.05567e-19 -0.00322555)
(3.86956e-21 -1.20879e-20 -0.0038345)
(-1.12155e-20 -4.72003e-21 -0.00468522)
(1.09417e-19 -5.90478e-19 -0.0059287)
(-2.03619e-19 1.15912e-18 -0.00781138)
(2.07497e-19 -1.15052e-18 -0.0107236)
(6.92824e-20 8.35894e-20 -0.0152617)
(-1.54771e-19 5.02894e-19 -0.0222972)
(-1.61711e-19 3.46107e-19 -0.0330408)
(1.52914e-19 -4.10367e-19 -0.0490737)
(-2.15763e-20 1.89223e-20 -0.0723058)
(5.33009e-20 -1.68202e-20 -0.104791)
(1.59376e-19 -9.88236e-20 -0.148286)
(-1.72607e-19 1.54554e-19 -0.203486)
(-2.47046e-20 -3.97475e-20 -0.262832)
(4.17065e-22 -3.09751e-20 2.07721e-05)
(-3.66193e-22 1.56567e-20 1.49736e-05)
(6.69565e-22 -1.67063e-22 6.70138e-06)
(-5.91423e-22 -1.5402e-20 -4.23546e-06)
(-9.37413e-22 -1.41276e-21 -1.79532e-05)
(3.45468e-21 -2.41687e-19 -3.45488e-05)
(-4.97105e-21 4.57555e-19 -5.41281e-05)
(2.45044e-21 -2.463e-19 -7.68201e-05)
(-1.80152e-21 1.486e-20 -0.000102784)
(4.9924e-21 -2.69624e-19 -0.000132215)
(-5.9402e-21 2.45939e-19 -0.000165346)
(-4.49309e-21 4.69578e-19 -0.000202452)
(1.14962e-20 -9.4979e-19 -0.000243854)
(-1.36751e-20 9.48534e-19 -0.000289919)
(1.78715e-20 -9.43912e-19 -0.000341075)
(-1.20887e-20 9.35166e-19 -0.000397827)
(-1.02519e-20 4.7577e-19 -0.000460763)
(-6.99635e-22 -3.70215e-21 -0.000530506)
(4.43229e-21 3.84872e-21 -0.000607778)
(-8.05221e-21 4.38448e-19 -0.000693432)
(-1.34962e-21 -4.60403e-19 -0.000788445)
(1.45546e-20 1.2543e-20 -0.000893954)
(-3.43601e-20 8.83359e-19 -0.00101125)
(2.6326e-20 -8.86184e-19 -0.00114185)
(2.2532e-21 -5.33938e-21 -0.00128749)
(-9.59303e-21 -8.95681e-23 -0.00145023)
(1.46183e-20 -1.33809e-20 -0.00163249)
(-4.74308e-21 1.21632e-22 -0.00183719)
(-5.20158e-21 -6.4179e-23 -0.00206787)
(4.95911e-21 1.92679e-22 -0.002329)
(-3.69725e-21 1.46458e-21 -0.00262639)
(6.41323e-20 -7.80152e-19 -0.002968)
(-5.83063e-20 8.02281e-19 -0.00336529)
(-1.5836e-20 2.28955e-22 -0.00383575)
(1.84716e-20 -1.02053e-20 -0.00440732)
(-9.95756e-20 7.14385e-19 -0.00512613)
(1.15726e-19 -7.17498e-19 -0.00606966)
(-2.22534e-20 2.15753e-21 -0.0073684)
(1.57348e-20 -9.18351e-23 -0.00923965)
(3.73956e-20 6.25891e-21 -0.0120378)
(-2.44956e-19 5.33548e-19 -0.0163238)
(3.64197e-19 -1.08093e-18 -0.0229541)
(-1.7776e-19 5.474e-19 -0.0331812)
(2.56146e-19 -4.17841e-19 -0.0487486)
(-2.48091e-19 4.92179e-19 -0.0719473)
(-5.74463e-19 5.06249e-19 -0.105575)
(1.08329e-18 -1.07258e-18 -0.152689)
(-5.29592e-19 5.41428e-19 -0.215894)
(1.83051e-20 -2.0714e-21 -0.295864)
(4.39616e-21 -3.41256e-20 -0.372035)
(-7.30836e-22 1.5737e-20 2.40424e-05)
(-3.3792e-22 6.02949e-20 1.48236e-05)
(2.13129e-21 -1.83013e-19 1.6547e-06)
(-1.56652e-21 2.45529e-19 -1.54453e-05)
(-1.33409e-22 -1.08696e-19 -3.64755e-05)
(1.25478e-22 -1.45406e-20 -6.14987e-05)
(-4.78444e-22 1.53116e-20 -9.06458e-05)
(2.97027e-21 -1.82988e-22 -0.000124112)
(-2.80521e-21 -1.49654e-20 -0.000162155)
(-5.17681e-21 3.35064e-20 -0.000205092)
(-7.43941e-21 4.7764e-19 -0.000253304)
(1.86844e-20 -4.96387e-19 -0.000307236)
(-2.29219e-20 4.62879e-19 -0.000367405)
(1.92248e-20 -4.81466e-19 -0.000434402)
(-2.95155e-21 3.33379e-21 -0.000508905)
(1.07962e-20 4.66754e-23 -0.000591708)
(4.1024e-21 3.65057e-21 -0.000683736)
(-5.86368e-21 4.49339e-19 -0.000785992)
(2.06076e-20 -4.86184e-19 -0.000899628)
(6.21219e-21 2.65887e-20 -0.00102599)
(-4.6548e-20 9.25755e-19 -0.00116664)
(3.01553e-20 -9.28266e-19 -0.00132337)
(9.98357e-21 2.23483e-20 -0.00149823)
(-1.77458e-20 -2.29362e-22 -0.00169363)
(1.16121e-20 9.47742e-21 -0.00191233)
(-4.01564e-20 8.88261e-19 -0.0021576)
(3.34274e-20 -8.79818e-19 -0.00243327)
(2.79011e-21 9.46253e-21 -0.00274392)
(9.31278e-21 2.69312e-20 -0.00309508)
(-1.13138e-20 -5.40384e-22 -0.00349359)
(1.19346e-21 -1.28673e-20 -0.00394818)
(-3.67112e-20 1.30582e-20 -0.00447053)
(3.44572e-20 1.2433e-20 -0.00507699)
(-3.01017e-21 -2.48432e-20 -0.00579188)
(8.40767e-20 -7.28396e-19 -0.0066532)
(-7.53818e-20 7.50836e-19 -0.00772278)
(2.71244e-19 -1.44249e-18 -0.00910355)
(-2.49302e-19 1.45646e-18 -0.010968)
(3.07174e-19 -1.36037e-18 -0.0136031)
(6.97062e-20 1.30653e-19 -0.0174769)
(-3.52103e-19 1.29476e-18 -0.0233311)
(-1.18068e-19 -2.1697e-20 -0.0323002)
(1.60742e-20 3.79201e-22 -0.0460498)
(-1.78538e-20 5.48643e-22 -0.0669164)
(5.27788e-20 1.62036e-21 -0.0980204)
(2.5327e-20 1.32028e-20 -0.143298)
(-1.10141e-19 4.97814e-21 -0.207304)
(6.27932e-20 4.8216e-21 -0.294285)
(-1.60526e-22 -3.0139e-22 -0.405383)
(3.51095e-20 6.1732e-22 -0.494839)
(-7.88514e-22 7.58866e-20 2.47729e-05)
(1.66357e-21 -4.62614e-20 9.43459e-06)
(-1.6129e-21 -1.62914e-20 -1.16188e-05)
(4.86939e-21 -2.26604e-19 -3.78479e-05)
(-2.54072e-21 2.28448e-19 -6.91479e-05)
(2.30887e-21 -2.2598e-19 -0.000105615)
(-1.14543e-20 4.98267e-19 -0.00014748)
(1.2356e-20 -6.97576e-19 -0.000195082)
(-8.03791e-21 4.93145e-19 -0.000248848)
(-6.56336e-21 4.80672e-19 -0.000309292)
(-2.20284e-21 3.94104e-21 -0.00037702)
(2.54669e-20 -9.4392e-19 -0.000452731)
(-2.25446e-20 9.81973e-19 -0.00053723)
(5.77392e-21 -4.61841e-19 -0.000631434)
(1.27003e-20 -4.63978e-19 -0.000736386)
(2.28924e-20 -4.5633e-19 -0.000853293)
(-3.27052e-21 6.38471e-21 -0.000983557)
(3.94355e-20 -9.4619e-19 -0.00112877)
(3.10334e-20 -9.08042e-19 -0.0012907)
(6.53964e-21 2.11607e-20 -0.00147142)
(-2.82728e-20 9.42782e-19 -0.00167335)
(-1.97796e-20 -7.93887e-21 -0.00189924)
(1.20781e-20 8.7944e-21 -0.0021523)
(-5.23781e-20 9.11711e-19 -0.00243624)
(4.29788e-20 -9.25941e-19 -0.00275539)
(7.43359e-20 -8.88935e-19 -0.0031148)
(-7.55481e-20 9.18055e-19 -0.00352042)
(1.48115e-20 -1.96701e-20 -0.00397932)
(6.98533e-20 -8.84961e-19 -0.00449996)
(-9.71364e-20 9.07438e-19 -0.00509267)
(4.29791e-21 1.21175e-20 -0.00577038)
(-2.10918e-19 1.6594e-18 -0.00654985)
(1.91514e-19 -1.72144e-18 -0.00745385)
(4.75393e-20 6.0939e-20 -0.00851505)
(-2.7065e-19 1.56758e-18 -0.00978296)
(2.48869e-19 -1.63434e-18 -0.0113362)
(-3.09161e-20 -3.18354e-21 -0.0133037)
(4.71212e-19 -1.4702e-18 -0.0158999)
(-4.41557e-19 1.51819e-18 -0.0194808)
(-6.46511e-20 -7.08913e-20 -0.0246283)
(6.71595e-19 -1.27913e-18 -0.0322687)
(-1.18256e-18 2.63585e-18 -0.0438269)
(-6.26656e-20 -1.53485e-19 -0.0614108)
(-8.3938e-20 -1.20656e-19 -0.0880155)
(7.56421e-19 -1.14328e-18 -0.12774)
(3.85389e-20 6.14453e-20 -0.186037)
(-8.44893e-19 7.53426e-19 -0.270004)
(8.28189e-19 -8.29031e-19 -0.38819)
(8.50875e-21 2.82896e-20 -0.546741)
(8.96932e-21 -2.6277e-21 -0.655065)
(6.117e-22 -1.57917e-20 2.18045e-05)
(1.8336e-21 -1.34796e-19 -6.03545e-06)
(-1.93441e-21 1.21542e-19 -3.93545e-05)
(-1.22387e-21 -1.70742e-20 -7.82437e-05)
(5.56619e-21 -2.25158e-19 -0.000122915)
(-5.16573e-21 2.31496e-19 -0.000173711)
(-6.4479e-21 4.67583e-19 -0.000231072)
(-4.99743e-21 -1.93808e-20 -0.000295536)
(2.14506e-21 -4.59851e-21 -0.000367738)
(1.50002e-20 -4.98426e-19 -0.000448407)
(-1.23807e-20 4.66168e-19 -0.000538382)
(1.91495e-20 -9.86052e-19 -0.000638611)
(-4.8712e-21 4.92758e-19 -0.000750174)
(-3.55572e-21 -1.84971e-20 -0.000874294)
(-4.75607e-21 -2.21001e-20 -0.00101234)
(3.00192e-20 -9.66472e-19 -0.00116585)
(-1.62147e-21 -2.02441e-20 -0.00133659)
(2.90424e-20 -9.84178e-19 -0.00152665)
(-5.28427e-21 -7.70858e-21 -0.00173831)
(-1.68249e-22 1.17302e-22 -0.00197417)
(1.12594e-20 8.29919e-21 -0.00223718)
(-5.47265e-20 9.45597e-19 -0.00253074)
(4.90918e-20 -9.6577e-19 -0.00285869)
(1.25709e-20 8.20532e-21 -0.00322544)
(-8.52708e-21 -1.47894e-20 -0.00363604)
(-6.0739e-21 9.74696e-21 -0.00409623)
(-7.64393e-20 9.11182e-19 -0.0046126)
(1.6398e-19 -1.85826e-18 -0.00519273)
(-7.80417e-20 9.68598e-19 -0.00584536)
(-1.96908e-19 1.79391e-18 -0.0065807)
(-3.02915e-20 -4.5765e-20 -0.00741098)
(2.22389e-21 -2.71101e-20 -0.00835137)
(-6.52778e-20 -5.40093e-20 -0.00942182)
(2.64063e-19 -1.78967e-18 -0.0106506)
(4.01889e-19 -1.65497e-18 -0.0120809)
(-3.59949e-19 1.73668e-18 -0.0137833)
(-3.32949e-20 -5.38616e-20 -0.0158783)
(4.74381e-19 -1.57878e-18 -0.0185749)
(-4.19859e-19 1.67184e-18 -0.0222347)
(-6.64089e-19 1.48244e-18 -0.0274721)
(5.66235e-19 -1.56537e-18 -0.0353004)
(7.6539e-20 -1.09019e-20 -0.0473307)
(8.55008e-19 -1.37778e-18 -0.0660206)
(1.15411e-19 1.21483e-19 -0.0949669)
(-9.8417e-19 1.34723e-18 -0.139251)
(-1.58376e-20 -3.86004e-20 -0.205921)
(3.27856e-20 5.15176e-22 -0.305296)
(-3.27433e-20 1.56365e-20 -0.45571)
(-4.9516e-19 5.17516e-19 -0.692721)
(4.86292e-19 -5.26912e-19 -0.948717)
(-1.05804e-20 -3.12665e-21 0.00883583)
(-1.04535e-20 -7.64948e-23 0.00496656)
(9.79074e-21 9.5453e-21 0.00170114)
(-6.86644e-21 1.75802e-21 -0.00101855)
(7.38537e-21 -1.115e-20 -0.00326024)
(6.95751e-23 3.49025e-21 -0.0050954)
(-1.73022e-22 -9.7383e-23 -0.00659203)
(-5.68906e-21 1.24425e-23 -0.00780966)
(5.53167e-21 -1.20983e-23 -0.00879632)
(-1.67855e-22 3.67116e-25 -0.00958928)
(-1.63653e-22 3.57924e-25 -0.0102212)
(4.98252e-21 -1.08973e-23 -0.010718)
(-4.99853e-21 1.09323e-23 -0.0110991)
(-4.65088e-21 1.01719e-23 -0.0113804)
(2.39533e-22 -1.14505e-21 -0.0115746)
(6.34644e-21 5.14076e-22 -0.0116925)
(-1.97135e-21 1.75313e-21 -0.011743)
(-8.46073e-23 -1.07739e-21 -0.0117337)
(-3.35386e-23 9.27413e-22 -0.0116712)
(-1.97931e-21 -7.76143e-21 -0.0115612)
(2.02403e-21 6.68154e-21 -0.0114082)
(-1.24164e-21 -9.77103e-21 -0.0112163)
(2.12925e-21 4.9697e-23 -0.0109892)
(-2.9928e-21 1.34075e-23 -0.0107315)
(1.97451e-21 1.12776e-21 -0.0104481)
(-7.38709e-22 4.57688e-23 -0.0101426)
(-2.21116e-21 4.83602e-24 -0.00981794)
(1.06041e-21 -3.23215e-23 -0.00947706)
(1.29611e-22 1.81637e-21 -0.00912286)
(-5.38478e-23 5.44006e-23 -0.00875806)
(-1.43323e-22 -2.19947e-21 -0.00838519)
(1.07821e-22 2.35662e-21 -0.00800662)
(3.59078e-22 -2.66529e-21 -0.00762458)
(1.08591e-23 2.52292e-20 -0.00724116)
(-5.99947e-22 -2.51294e-20 -0.00685831)
(-6.92613e-22 -2.25544e-20 -0.00647783)
(1.49079e-21 4.89973e-20 -0.0061014)
(-8.216e-22 -2.67656e-20 -0.00573055)
(-2.72228e-22 -3.73865e-21 -0.0053667)
(2.60808e-22 3.83676e-21 -0.00501109)
(3.75352e-23 2.6986e-24 -0.00466489)
(1.19678e-22 4.20349e-21 -0.00432909)
(-5.05236e-22 -2.21361e-20 -0.00400457)
(4.99655e-22 2.23435e-20 -0.00369207)
(-1.57515e-22 -4.70872e-21 -0.00339219)
(3.15716e-22 1.47668e-20 -0.00310537)
(1.88583e-23 -4.87769e-21 -0.00283182)
(-2.14631e-22 -1.04548e-20 -0.00257145)
(6.32567e-23 5.27354e-21 -0.00232364)
(-1.54378e-22 -5.50768e-21 -0.00208701)
(-1.51843e-20 2.50339e-20 0.0256289)
(2.94482e-20 -1.08616e-20 0.0140954)
(-2.35927e-20 -2.06114e-20 0.00428111)
(8.50595e-21 2.16624e-20 -0.00382185)
(-8.86308e-21 -2.12235e-20 -0.0104489)
(-1.26419e-20 6.10922e-21 -0.0158396)
(1.1288e-20 6.8852e-21 -0.0202135)
(1.34823e-20 1.77787e-20 -0.0237564)
(-8.48023e-23 -2.9508e-20 -0.0266166)
(-2.29874e-20 6.89629e-21 -0.0289086)
(2.2424e-20 -5.15597e-21 -0.0307284)
(-5.87254e-21 -1.13722e-20 -0.0321516)
(-6.86578e-21 2.71201e-20 -0.0332366)
(-7.19079e-21 2.70596e-21 -0.0340298)
(9.48984e-21 -1.51682e-20 -0.0345687)
(7.45226e-21 -2.80587e-21 -0.0348847)
(-8.47302e-21 4.95249e-21 -0.0350039)
(-2.15571e-22 -6.30128e-22 -0.0349485)
(1.51783e-23 -1.35245e-22 -0.0347379)
(8.6464e-22 -1.89105e-24 -0.0343888)
(2.54295e-21 4.10629e-23 -0.033915)
(-2.47096e-21 -3.59084e-21 -0.0333278)
(1.17128e-20 6.04822e-20 -0.0326382)
(-1.33999e-20 -6.20173e-20 -0.0318607)
(1.67909e-20 7.74642e-20 -0.0310069)
(-8.71611e-21 -3.00715e-20 -0.0300897)
(-1.70529e-20 -9.9053e-20 -0.0291175)
(7.02087e-21 4.87316e-20 -0.0280986)
(1.69445e-21 -6.5931e-22 -0.0270415)
(-2.27038e-21 -4.23922e-21 -0.025954)
(1.85043e-21 2.18785e-21 -0.0248435)
(-8.93227e-22 -7.80562e-21 -0.0237168)
(9.68814e-21 8.37744e-20 -0.0225807)
(-2.07473e-20 -1.79686e-19 -0.0214411)
(9.80482e-21 8.74253e-20 -0.0203038)
(-5.06356e-22 -9.01014e-21 -0.019174)
(-2.97235e-22 3.26144e-21 -0.0180568)
(6.51573e-23 1.09529e-22 -0.0169566)
(-4.88003e-21 -6.42329e-20 -0.0158775)
(4.17435e-21 5.64814e-20 -0.0148232)
(3.58478e-21 5.8017e-20 -0.0137971)
(-5.16103e-21 -7.88345e-20 -0.0128022)
(1.76209e-22 4.3258e-21 -0.0118409)
(1.13126e-21 2.33852e-20 -0.0109154)
(-2.45881e-21 -4.2e-20 -0.0100275)
(-1.01936e-22 -4.89045e-21 -0.0091785)
(-1.68682e-21 -3.568e-20 -0.00836892)
(-3.88302e-22 -5.81554e-21 -0.00759845)
(4.35408e-22 1.031e-20 -0.00686513)
(5.45237e-22 1.6353e-20 -0.00616435)
(-1.35067e-20 -1.08529e-21 0.0397616)
(-1.24394e-20 -1.4333e-20 0.0206498)
(3.42196e-20 2.82216e-20 0.00425082)
(-4.31004e-20 -1.23843e-20 -0.00902927)
(1.77348e-20 1.21052e-20 -0.0197112)
(2.81636e-20 2.0729e-20 -0.028287)
(-1.9466e-20 -5.97886e-20 -0.0351731)
(1.26893e-20 -2.19152e-20 -0.0407025)
(-3.32075e-20 3.82088e-20 -0.0451333)
(5.62607e-21 3.58038e-20 -0.0486612)
(2.54826e-20 -6.31983e-20 -0.051439)
(-2.35719e-20 4.57656e-20 -0.0535889)
(7.33551e-21 -1.12463e-20 -0.0552047)
(-3.50089e-21 -1.01002e-20 -0.0563611)
(4.05823e-20 1.44968e-20 -0.0571172)
(-5.22294e-21 3.09151e-20 -0.0575223)
(-3.31734e-20 -2.59953e-20 -0.0576174)
(1.16591e-20 -7.78624e-21 -0.0574378)
(-8.58426e-21 3.19602e-22 -0.057014)
(5.10735e-22 -3.58091e-21 -0.0563727)
(2.34702e-20 5.50163e-20 -0.0555357)
(-2.42504e-20 -4.30176e-20 -0.0545213)
(-2.71707e-20 -7.49475e-20 -0.0533477)
(3.04522e-20 6.92971e-20 -0.0520339)
(-1.96829e-21 6.18921e-21 -0.0506027)
(3.99063e-22 -3.17541e-21 -0.0490717)
(-1.65295e-21 5.44423e-21 -0.0474563)
(-2.45313e-20 -1.2035e-19 -0.0457693)
(2.9561e-20 1.219e-19 -0.0440238)
(-2.99088e-20 -1.35342e-19 -0.0422323)
(3.20351e-20 1.43026e-19 -0.0404064)
(7.59108e-22 5.45301e-21 -0.0385571)
(2.91734e-20 1.80646e-19 -0.0366949)
(-5.94853e-20 -3.63089e-19 -0.0348295)
(3.27882e-20 1.939e-19 -0.0329699)
(1.38834e-20 1.1437e-19 -0.0311246)
(-1.24399e-20 -9.93398e-20 -0.0293014)
(-1.15241e-21 -3.42727e-22 -0.0275074)
(2.78078e-22 -2.087e-22 -0.0257491)
(8.1619e-23 -1.0222e-22 -0.0240325)
(1.33123e-20 1.34403e-19 -0.0223629)
(-1.31268e-20 -1.26057e-19 -0.0207448)
(9.64916e-22 8.91478e-21 -0.0191822)
(-2.71167e-22 -1.34088e-22 -0.0176787)
(5.95714e-21 7.7471e-20 -0.016237)
(-1.14514e-20 -1.47937e-19 -0.0148589)
(5.78303e-21 8.01302e-20 -0.0135454)
(-3.14194e-21 -4.25769e-20 -0.0122958)
(2.32861e-21 3.15697e-20 -0.0111063)
(5.70912e-22 1.06933e-20 -0.00996813)
(1.9895e-21 2.6048e-20 0.0486894)
(8.38041e-21 -5.32775e-20 0.0222088)
(-7.04368e-20 1.63012e-20 -0.000657071)
(1.16993e-19 8.04655e-20 -0.0186008)
(-3.09367e-20 -1.10159e-19 -0.0326587)
(-1.79505e-20 2.10346e-20 -0.0437157)
(3.18724e-21 2.06815e-20 -0.0524531)
(-1.70438e-20 -2.6411e-21 -0.0593788)
(-5.68855e-21 2.48313e-20 -0.0648629)
(6.23383e-20 -3.52491e-20 -0.06918)
(-2.72162e-20 1.26797e-20 -0.0725314)
(-1.36959e-20 5.84415e-22 -0.0750782)
(1.98658e-20 1.05319e-20 -0.0769422)
(-5.75195e-20 -4.23698e-20 -0.0782191)
(4.10386e-20 2.03824e-20 -0.0789853)
(-1.19258e-20 1.21262e-20 -0.0793032)
(1.07339e-20 -9.21092e-21 -0.0792254)
(5.36832e-20 9.34697e-20 -0.0787969)
(-5.87062e-20 -7.55545e-20 -0.0780568)
(1.30256e-21 -1.07027e-20 -0.0770388)
(-3.43924e-21 -1.10601e-22 -0.0757727)
(3.41524e-21 4.87301e-22 -0.0742807)
(2.96542e-21 -1.11662e-22 -0.0725871)
(-8.2206e-21 3.131e-21 -0.0707152)
(6.40455e-21 4.53013e-22 -0.0686936)
(1.78529e-22 7.97767e-21 -0.0665471)
(-8.0661e-20 -2.5833e-19 -0.0642968)
(8.35674e-20 2.45968e-19 -0.061958)
(-7.28317e-21 6.45748e-21 -0.0595477)
(-3.54358e-20 -1.5857e-19 -0.0570819)
(4.17247e-20 1.60788e-19 -0.054576)
(-1.75349e-21 1.80737e-21 -0.0520442)
(-1.39499e-22 7.35207e-22 -0.0495003)
(-4.05489e-20 -2.09009e-19 -0.0469567)
(8.37734e-20 4.2036e-19 -0.0444253)
(-8.32863e-20 -4.34441e-19 -0.0419172)
(8.20743e-20 4.56597e-19 -0.0394424)
(-8.04274e-20 -4.77512e-19 -0.0370102)
(3.9618e-20 2.4302e-19 -0.0346292)
(1.98802e-20 1.33491e-19 -0.0323068)
(-1.72098e-20 -1.15749e-19 -0.03005)
(-1.22426e-21 -9.02598e-21 -0.0278648)
(-1.79197e-20 -1.47838e-19 -0.0257563)
(3.82437e-20 3.1976e-19 -0.023729)
(-1.80461e-20 -1.531e-19 -0.0217862)
(2.60708e-22 1.8701e-22 -0.0199306)
(8.68785e-22 1.02099e-20 -0.018163)
(-2.41663e-22 -1.75791e-22 -0.0164823)
(-8.34143e-22 -1.07494e-20 -0.0148826)
(1.85985e-21 2.22089e-20 -0.0133494)
(2.65497e-20 9.26253e-23 0.048894)
(3.05397e-22 3.87004e-22 0.0152886)
(-6.00257e-20 4.53037e-22 -0.0134594)
(8.90126e-20 -2.42627e-22 -0.0349528)
(-2.67003e-20 1.12262e-22 -0.0511592)
(-4.29477e-20 -7.80403e-22 -0.0635377)
(1.37983e-20 -5.85611e-24 -0.0731046)
(-1.16252e-20 4.15351e-23 -0.0805583)
(9.39876e-20 -2.57005e-20 -0.0863568)
(-4.05506e-21 5.96538e-20 -0.0908286)
(-5.53177e-21 6.55846e-20 -0.0942204)
(-1.8005e-20 -1.01138e-19 -0.0967124)
(5.75799e-20 1.1547e-19 -0.0984401)
(-7.65938e-20 -1.05859e-19 -0.0995109)
(2.6142e-20 7.17239e-20 -0.10001)
(-3.76905e-20 -7.58197e-20 -0.100008)
(4.97591e-21 -8.52895e-21 -0.0995611)
(-2.97316e-20 -1.09198e-21 -0.0987207)
(2.75747e-20 -2.85139e-21 -0.09753)
(1.14362e-21 1.88913e-21 -0.0960279)
(8.25546e-21 3.13479e-22 -0.0942467)
(-1.08114e-20 -5.70425e-21 -0.0922151)