/*--------------------------------*- C++ -*----------------------------------*\
| =========                 |                                                 |
| \\      /  F ield         | OpenFOAM: The Open Source CFD Toolbox           |
|  \\    /   O peration     | Version:  2412                                  |
|   \\  /    A nd           | Website:  www.openfoam.com                      |
|    \\/     M anipulation  |                                                 |
\*---------------------------------------------------------------------------*/
FoamFile
{
    version     2.0;
    format      ascii;
    arch        "LSB;label=32;scalar=64";
    class       volVectorField;
    location    "29";
    object      vorticity;
}
// * * * * * * * * * * * * * * * * * * * * * * * * * * * * * * * * * * * * * //

dimensions      [0 0 -1 0 0 0 0];

internalField   nonuniform List<vector> 
5285
(
(0 -0 -0.000480185)
(0 -0 -0.000433739)
(0 -0 -0.000388954)
(0 -0 -0.000345383)
(0 -0 -0.000369471)
(0 -0 -0.000333123)
(0 -0 -0.000297724)
(0 -0 -0.000263568)
(0 -0 -0.000231089)
(0 -0 -0.00020016)
(0 -0 -0.00017175)
(0 -0 -0.0001441)
(0 -0 -0.000118716)
(0 -0 -9.55964e-05)
(0 -0 -7.47883e-05)
(0 -0 -5.63399e-05)
(0 -0 -4.02854e-05)
(0 -0 -2.66326e-05)
(0 -0 -1.53494e-05)
(0 -0 -6.35539e-06)
(0 -0 4.84846e-07)
(0 -0 5.36e-06)
(0 -0 8.50665e-06)
(0 -0 1.01973e-05)
(0 -0 1.07248e-05)
(0 -0 1.03836e-05)
(0 -0 9.45422e-06)
(0 -0 8.18478e-06)
(0 -0 6.78395e-06)
(0 -0 5.41252e-06)
(0 -0 4.18548e-06)
(0 -0 3.1745e-06)
(0 -0 2.41768e-06)
(0 -0 1.92469e-06)
(0 -0 1.68751e-06)
(0 -0 1.6824e-06)
(0 -0 1.87383e-06)
(0 -0 2.21219e-06)
(0 -0 2.63324e-06)
(0 -0 3.05781e-06)
(0 -0 3.39702e-06)
(0 -0 3.56074e-06)
(0 -0 3.47293e-06)
(0 -0 3.0881e-06)
(0 -0 2.40603e-06)
(0 -0 1.48251e-06)
(0 -0 3.55688e-07)
(0 -0 -5.13937e-07)
(0 -0 -0.000277498)
(0 -0 -0.000248677)
(0 -0 -0.000220949)
(0 -0 -0.00019434)
(0 -0 -0.000169047)
(0 -0 -0.000145558)
(0 -0 -0.000122949)
(0 -0 -0.000101587)
(0 -0 -8.17145e-05)
(0 -0 -6.35275e-05)
(0 -0 -4.71652e-05)
(0 -0 -3.27256e-05)
(0 -0 -2.02736e-05)
(0 -0 -9.83747e-06)
(0 -0 -1.40245e-06)
(0 -0 5.09595e-06)
(0 -0 9.77498e-06)
(0 -0 1.28037e-05)
(0 -0 1.43967e-05)
(0 -0 1.48015e-05)
(0 -0 1.42841e-05)
(0 -0 1.31115e-05)
(0 -0 1.1534e-05)
(0 -0 9.7728e-06)
(0 -0 8.00752e-06)
(0 -0 6.37371e-06)
(0 -0 4.96197e-06)
(0 -0 3.82338e-06)
(0 -0 2.97658e-06)
(0 -0 2.41714e-06)
(0 -0 2.12355e-06)
(0 -0 2.06397e-06)
(0 -0 2.19703e-06)
(0 -0 2.47204e-06)
(0 -0 2.82626e-06)
(0 -0 3.1856e-06)
(0 -0 3.467e-06)
(0 -0 3.58793e-06)
(0 -0 3.47979e-06)
(0 -0 3.10181e-06)
(0 -0 2.45515e-06)
(0 -0 1.59328e-06)
(0 -0 5.51069e-07)
(0 -0 -2.06714e-07)
(0 -0 -0.000202937)
(0 -0 -0.000179953)
(0 -0 -0.000157922)
(0 -0 -0.000136858)
(0 -0 -0.000116833)
(0 -0 -9.81379e-05)
(0 -0 -8.03552e-05)
(0 -0 -6.35994e-05)
(0 -0 -4.80541e-05)
(0 -0 -3.3888e-05)
(0 -0 -2.12391e-05)
(0 -0 -1.0214e-05)
(0 -0 -8.86036e-07)
(0 -0 6.71013e-06)
(0 -0 1.25843e-05)
(0 -0 1.67957e-05)
(0 -0 1.94553e-05)
(0 -0 2.07235e-05)
(0 -0 2.0803e-05)
(0 -0 1.99267e-05)
(0 -0 1.83425e-05)
(0 -0 1.6297e-05)
(0 -0 1.40184e-05)
(0 -0 1.17042e-05)
(0 -0 9.51103e-06)
(0 -0 7.55158e-06)
(0 -0 5.89505e-06)
(0 -0 4.57316e-06)
(0 -0 3.58742e-06)
(0 -0 2.91861e-06)
(0 -0 2.53387e-06)
(0 -0 2.39243e-06)
(0 -0 2.44736e-06)
(0 -0 2.64541e-06)
(0 -0 2.92471e-06)
(0 -0 3.21452e-06)
(0 -0 3.4375e-06)
(0 -0 3.51734e-06)
(0 -0 3.39089e-06)
(0 -0 3.02175e-06)
(0 -0 2.41231e-06)
(0 -0 1.61426e-06)
(0 -0 6.54903e-07)
(0 -0 -1.15351e-08)
(0 -0 -0.00014484)
(0 -0 -0.000125991)
(0 -0 -0.000107954)
(0 -0 -9.06832e-05)
(0 -0 -7.42726e-05)
(0 -0 -5.87674e-05)
(0 -0 -4.42425e-05)
(0 -0 -3.07597e-05)
(0 -0 -1.84231e-05)
(0 -0 -7.34895e-06)
(0 -0 2.35328e-06)
(0 -0 1.05929e-05)
(0 -0 1.73075e-05)
(0 -0 2.24717e-05)
(0 -0 2.61033e-05)
(0 -0 2.82688e-05)
(0 -0 2.90843e-05)
(0 -0 2.87123e-05)
(0 -0 2.73541e-05)
(0 -0 2.5237e-05)
(0 -0 2.25994e-05)
(0 -0 1.96744e-05)
(0 -0 1.6674e-05)
(0 -0 1.37773e-05)
(0 -0 1.11216e-05)
(0 -0 8.79964e-06)
(0 -0 6.86183e-06)
(0 -0 5.32214e-06)
(0 -0 4.16622e-06)
(0 -0 3.36117e-06)
(0 -0 2.86302e-06)
(0 -0 2.62244e-06)
(0 -0 2.58692e-06)
(0 -0 2.70039e-06)
(0 -0 2.90116e-06)
(0 -0 3.1211e-06)
(0 -0 3.28751e-06)
(0 -0 3.3295e-06)
(0 -0 3.18887e-06)
(0 -0 2.83294e-06)
(0 -0 2.2652e-06)
(0 -0 1.53568e-06)
(0 -0 6.64921e-07)
(0 -0 1.38637e-07)
(0 -0 -0.000100412)
(0 -0 -8.43721e-05)
(0 -0 -6.90304e-05)
(0 -0 -5.43289e-05)
(0 -0 -4.02505e-05)
(0 -0 -2.69871e-05)
(0 -0 -1.4702e-05)
(0 -0 -3.47774e-06)
(0 -0 6.59319e-06)
(0 -0 1.54155e-05)
(0 -0 2.29007e-05)
(0 -0 2.89774e-05)
(0 -0 3.36021e-05)
(0 -0 3.67677e-05)
(0 -0 3.85099e-05)
(0 -0 3.89122e-05)
(0 -0 3.81055e-05)
(0 -0 3.62638e-05)
(0 -0 3.35956e-05)
(0 -0 3.03306e-05)
(0 -0 2.67046e-05)
(0 -0 2.29438e-05)
(0 -0 1.92489e-05)
(0 -0 1.57849e-05)
(0 -0 1.26729e-05)
(0 -0 9.98909e-06)
(0 -0 7.76682e-06)
(0 -0 6.00401e-06)
(0 -0 4.67188e-06)
(0 -0 3.72489e-06)
(0 -0 3.10866e-06)
(0 -0 2.76587e-06)
(0 -0 2.63869e-06)
(0 -0 2.66827e-06)
(0 -0 2.79292e-06)
(0 -0 2.94682e-06)
(0 -0 3.06132e-06)
(0 -0 3.07051e-06)
(0 -0 2.9209e-06)
(0 -0 2.58326e-06)
(0 -0 2.06227e-06)
(0 -0 1.40652e-06)
(0 -0 6.3073e-07)
(0 -0 2.33477e-07)
(0 -0 -6.68572e-05)
(0 -0 -5.259e-05)
(0 -0 -3.8936e-05)
(0 -0 -2.585e-05)
(0 -0 -1.33048e-05)
(0 -0 -1.52681e-06)
(0 -0 9.27624e-06)
(0 -0 1.89892e-05)
(0 -0 2.75058e-05)
(0 -0 3.47308e-05)
(0 -0 4.05847e-05)
(0 -0 4.50118e-05)
(0 -0 4.79879e-05)
(0 -0 4.95279e-05)
(0 -0 4.96914e-05)
(0 -0 4.85854e-05)
(0 -0 4.63626e-05)
(0 -0 4.32156e-05)
(0 -0 3.93667e-05)
(0 -0 3.50545e-05)
(0 -0 3.05178e-05)
(0 -0 2.59802e-05)
(0 -0 2.16357e-05)
(0 -0 1.76382e-05)
(0 -0 1.40956e-05)
(0 -0 1.10692e-05)
(0 -0 8.57706e-06)
(0 -0 6.60255e-06)
(0 -0 5.10353e-06)
(0 -0 4.02261e-06)
(0 -0 3.29574e-06)
(0 -0 2.85814e-06)
(0 -0 2.64693e-06)
(0 -0 2.60073e-06)
(0 -0 2.65777e-06)
(0 -0 2.75439e-06)
(0 -0 2.82572e-06)
(0 -0 2.81059e-06)
(0 -0 2.66012e-06)
(0 -0 2.34847e-06)
(0 -0 1.8816e-06)
(0 -0 1.30696e-06)
(0 -0 6.343e-07)
(0 -0 3.65527e-07)
(0 -0 -4.18641e-05)
(0 -0 -2.85724e-05)
(0 -0 -1.58319e-05)
(0 -0 -3.62369e-06)
(0 -0 8.05877e-06)
(0 -0 1.89703e-05)
(0 -0 2.88778e-05)
(0 -0 3.76389e-05)
(0 -0 4.51295e-05)
(0 -0 5.12466e-05)
(0 -0 5.59133e-05)
(0 -0 5.90851e-05)
(0 -0 6.07563e-05)
(0 -0 6.09652e-05)
(0 -0 5.97982e-05)
(0 -0 5.73899e-05)
(0 -0 5.39196e-05)
(0 -0 4.96035e-05)
(0 -0 4.46828e-05)
(0 -0 3.94095e-05)
(0 -0 3.40297e-05)
(0 -0 2.87682e-05)
(0 -0 2.38152e-05)
(0 -0 1.93162e-05)
(0 -0 1.53679e-05)
(0 -0 1.20181e-05)
(0 -0 9.27152e-06)
(0 -0 7.09767e-06)
(0 -0 5.44195e-06)
(0 -0 4.23594e-06)
(0 -0 3.40652e-06)
(0 -0 2.88196e-06)
(0 -0 2.59457e-06)
(0 -0 2.48068e-06)
(0 -0 2.4785e-06)
(0 -0 2.52639e-06)
(0 -0 2.5632e-06)
(0 -0 2.53234e-06)
(0 -0 2.38944e-06)
(0 -0 2.11206e-06)
(0 -0 1.70766e-06)
(0 -0 1.22278e-06)
(0 -0 6.62889e-07)
(0 -0 5.28414e-07)
(0 -0 -2.35466e-05)
(0 -0 -1.06288e-05)
(0 -0 1.78207e-06)
(0 -0 1.36718e-05)
(0 -0 2.50145e-05)
(0 -0 3.55452e-05)
(0 -0 4.50096e-05)
(0 -0 5.32424e-05)
(0 -0 6.01018e-05)
(0 -0 6.5476e-05)
(0 -0 6.92881e-05)
(0 -0 7.15034e-05)
(0 -0 7.21335e-05)
(0 -0 7.12408e-05)
(0 -0 6.89399e-05)
(0 -0 6.53955e-05)
(0 -0 6.08164e-05)
(0 -0 5.54456e-05)
(0 -0 4.95467e-05)
(0 -0 4.33882e-05)
(0 -0 3.72264e-05)
(0 -0 3.12902e-05)
(0 -0 2.57679e-05)
(0 -0 2.07989e-05)
(0 -0 1.64699e-05)
(0 -0 1.28171e-05)
(0 -0 9.83213e-06)
(0 -0 7.47215e-06)
(0 -0 5.6707e-06)
(0 -0 4.34911e-06)
(0 -0 3.42572e-06)
(0 -0 2.82223e-06)
(0 -0 2.46661e-06)
(0 -0 2.29304e-06)
(0 -0 2.23983e-06)
(0 -0 2.24739e-06)
(0 -0 2.2582e-06)
(0 -0 2.22017e-06)
(0 -0 2.09344e-06)
(0 -0 1.85912e-06)
(0 -0 1.52631e-06)
(0 -0 1.14086e-06)
(0 -0 7.04542e-07)
(0 -0 7.13846e-07)
(0 -0 -1.03842e-05)
(0 -0 2.60034e-06)
(0 -0 1.51089e-05)
(0 -0 2.70907e-05)
(0 -0 3.84825e-05)
(0 -0 4.89964e-05)
(0 -0 5.8357e-05)
(0 -0 6.63768e-05)
(0 -0 7.28979e-05)
(0 -0 7.77995e-05)
(0 -0 8.1005e-05)
(0 -0 8.24886e-05)
(0 -0 8.22794e-05)
(0 -0 8.04639e-05)
(0 -0 7.71859e-05)
(0 -0 7.26412e-05)
(0 -0 6.70698e-05)
(0 -0 6.07433e-05)
(0 -0 5.39496e-05)
(0 -0 4.69757e-05)
(0 -0 4.00899e-05)
(0 -0 3.35269e-05)
(0 -0 2.74749e-05)
(0 -0 2.2068e-05)
(0 -0 1.73846e-05)
(0 -0 1.345e-05)
(0 -0 1.0244e-05)
(0 -0 7.71206e-06)
(0 -0 5.77665e-06)
(0 -0 4.34951e-06)
(0 -0 3.34098e-06)
(0 -0 2.66671e-06)
(0 -0 2.25072e-06)
(0 -0 2.02535e-06)
(0 -0 1.92908e-06)
(0 -0 1.90444e-06)
(0 -0 1.89756e-06)
(0 -0 1.86087e-06)
(0 -0 1.75906e-06)
(0 -0 1.57689e-06)
(0 -0 1.3253e-06)
(0 -0 1.04969e-06)
(0 -0 7.48612e-07)
(0 -0 9.13273e-07)
(0 -0 -1.16657e-06)
(0 -0 1.21928e-05)
(0 -0 2.50977e-05)
(0 -0 3.74584e-05)
(0 -0 4.91731e-05)
(0 -0 5.99288e-05)
(0 -0 6.94281e-05)
(0 -0 7.74617e-05)
(0 -0 8.3856e-05)
(0 -0 8.84821e-05)
(0 -0 9.1264e-05)
(0 -0 9.2185e-05)
(0 -0 9.12916e-05)
(0 -0 8.86949e-05)
(0 -0 8.45676e-05)
(0 -0 7.91372e-05)
(0 -0 7.26752e-05)
(0 -0 6.54826e-05)
(0 -0 5.78723e-05)
(0 -0 5.01505e-05)
(0 -0 4.25987e-05)
(0 -0 3.5458e-05)
(0 -0 2.89174e-05)
(0 -0 2.3107e-05)
(0 -0 1.80974e-05)
(0 -0 1.39041e-05)
(0 -0 1.04959e-05)
(0 -0 7.80723e-06)
(0 -0 5.75038e-06)
(0 -0 4.22812e-06)
(0 -0 3.14348e-06)
(0 -0 2.40661e-06)
(0 -0 1.93801e-06)
(0 -0 1.66842e-06)
(0 -0 1.53674e-06)
(0 -0 1.48774e-06)
(0 -0 1.47126e-06)
(0 -0 1.44429e-06)
(0 -0 1.37614e-06)
(0 -0 1.25533e-06)
(0 -0 1.09489e-06)
(0 -0 9.40018e-07)
(0 -0 7.86354e-07)
(0 -0 1.11914e-06)
(0 -0 5.0584e-06)
(0 -0 1.89919e-05)
(0 -0 3.2485e-05)
(0 -0 4.54094e-05)
(0 -0 5.76242e-05)
(0 -0 6.87911e-05)
(0 -0 7.85901e-05)
(0 -0 8.67907e-05)
(0 -0 9.32041e-05)
(0 -0 9.76941e-05)
(0 -0 0.000100186)
(0 -0 0.000100671)
(0 -0 9.92151e-05)
(0 -0 9.59522e-05)
(0 -0 9.10839e-05)
(0 -0 8.48689e-05)
(0 -0 7.76099e-05)
(0 -0 6.96367e-05)
(0 -0 6.12869e-05)
(0 -0 5.2886e-05)
(0 -0 4.47286e-05)
(0 -0 3.70626e-05)
(0 -0 3.00781e-05)
(0 -0 2.39016e-05)
(0 -0 1.8597e-05)
(0 -0 1.41703e-05)
(0 -0 1.05805e-05)
(0 -0 7.75153e-06)
(0 -0 5.58656e-06)
(0 -0 3.9801e-06)
(0 -0 2.82855e-06)
(0 -0 2.03721e-06)
(0 -0 1.52352e-06)
(0 -0 1.21698e-06)
(0 -0 1.0572e-06)
(0 -0 9.91356e-07)
(0 -0 9.73054e-07)
(0 -0 9.63922e-07)
(0 -0 9.38008e-07)
(0 -0 8.87768e-07)
(0 -0 8.28513e-07)
(0 -0 8.05456e-07)
(0 -0 8.11611e-07)
(0 -0 1.32581e-06)
(0 -0 9.03169e-06)
(0 -0 2.36491e-05)
(0 -0 3.78348e-05)
(0 -0 5.1423e-05)
(0 -0 6.42351e-05)
(0 -0 7.59081e-05)
(0 -0 8.61001e-05)
(0 -0 9.45603e-05)
(0 -0 0.000101086)
(0 -0 0.000105533)
(0 -0 0.000107829)
(0 -0 0.000107976)
(0 -0 0.000106054)
(0 -0 0.000102222)
(0 -0 9.67092e-05)
(0 -0 8.98037e-05)
(0 -0 8.18381e-05)
(0 -0 7.31699e-05)
(0 -0 6.41603e-05)
(0 -0 5.51531e-05)
(0 -0 4.64551e-05)
(0 -0 3.83208e-05)
(0 -0 3.09415e-05)
(0 -0 2.44406e-05)
(0 -0 1.88754e-05)
(0 -0 1.42435e-05)
(0 -0 1.04945e-05)
(0 -0 7.54328e-06)
(0 -0 5.28443e-06)
(0 -0 3.60515e-06)
(0 -0 2.39608e-06)
(0 -0 1.55833e-06)
(0 -0 1.00682e-06)
(0 -0 6.70293e-07)
(0 -0 4.89359e-07)
(0 -0 4.13764e-07)
(0 -0 4.01015e-07)
(0 -0 4.17515e-07)
(0 -0 4.42184e-07)
(0 -0 4.71543e-07)
(0 -0 5.2337e-07)
(0 -0 6.43093e-07)
(0 -0 8.21349e-07)
(0 -0 1.53025e-06)
(0 -0 1.13249e-05)
(0 -0 2.66624e-05)
(0 -0 4.15728e-05)
(0 -0 5.58552e-05)
(0 -0 6.9296e-05)
(0 -0 8.15089e-05)
(0 -0 9.2132e-05)
(0 -0 0.000100895)
(0 -0 0.000107583)
(0 -0 0.000112046)
(0 -0 0.000114212)
(0 -0 0.000114093)
(0 -0 0.000111786)
(0 -0 0.000107471)
(0 -0 0.000101403)
(0 -0 9.38981e-05)
(0 -0 8.53173e-05)
(0 -0 7.60429e-05)
(0 -0 6.64578e-05)
(0 -0 5.69224e-05)
(0 -0 4.77549e-05)
(0 -0 3.92153e-05)
(0 -0 3.14957e-05)
(0 -0 2.47166e-05)
(0 -0 1.89289e-05)
(0 -0 1.41229e-05)
(0 -0 1.02395e-05)
(0 -0 7.18551e-06)
(0 -0 4.84796e-06)
(0 -0 3.1078e-06)
(0 -0 1.85083e-06)
(0 -0 9.7469e-07)
(0 -0 3.92416e-07)
(0 -0 3.25233e-08)
(0 -0 -1.6307e-07)
(0 -0 -2.41793e-07)
(0 -0 -2.4202e-07)
(0 -0 -1.92458e-07)
(0 -0 -1.09231e-07)
(0 -0 8.39492e-09)
(0 -0 1.80842e-07)
(0 -0 4.53922e-07)
(0 -0 8.16083e-07)
(0 -0 1.73253e-06)
(0 -0 1.23757e-05)
(0 -0 2.84091e-05)
(0 -0 4.40172e-05)
(0 -0 5.89676e-05)
(0 -0 7.3015e-05)
(0 -0 8.57526e-05)
(0 -0 9.68002e-05)
(0 -0 0.000105871)
(0 -0 0.000112738)
(0 -0 0.000117246)
(0 -0 0.000119326)
(0 -0 0.000118998)
(0 -0 0.000116374)
(0 -0 0.000111654)
(0 -0 0.000105118)
(0 -0 9.71065e-05)
(0 -0 8.80045e-05)
(0 -0 7.82175e-05)
(0 -0 6.81473e-05)
(0 -0 5.81686e-05)
(0 -0 4.8609e-05)
(0 -0 3.97331e-05)
(0 -0 3.17334e-05)
(0 -0 2.47268e-05)
(0 -0 1.87589e-05)
(0 -0 1.38127e-05)
(0 -0 9.82193e-06)
(0 -0 6.68617e-06)
(0 -0 4.28613e-06)
(0 -0 2.49767e-06)
(0 -0 1.20262e-06)
(0 -0 2.96049e-07)
(0 -0 -3.10161e-07)
(0 -0 -6.87184e-07)
(0 -0 -8.91372e-07)
(0 -0 -9.67027e-07)
(0 -0 -9.4822e-07)
(0 -0 -8.58665e-07)
(0 -0 -7.09419e-07)
(0 -0 -4.9539e-07)
(0 -0 -1.93354e-07)
(0 -0 2.43e-07)
(0 -0 8.00102e-07)
(0 -0 1.93614e-06)
(0 -0 1.25177e-05)
(0 -0 2.91734e-05)
(0 -0 4.54041e-05)
(0 -0 6.09508e-05)
(0 -0 7.55408e-05)
(0 -0 8.87493e-05)
(0 -0 0.000100181)
(0 -0 0.000109533)
(0 -0 0.00011657)
(0 -0 0.000121132)
(0 -0 0.000123152)
(0 -0 0.00012266)
(0 -0 0.00011978)
(0 -0 0.000114731)
(0 -0 0.000107812)
(0 -0 9.93875e-05)
(0 -0 8.98627e-05)
(0 -0 7.96621e-05)
(0 -0 6.92033e-05)
(0 -0 5.88726e-05)
(0 -0 4.90049e-05)
(0 -0 3.98678e-05)
(0 -0 3.16531e-05)
(0 -0 2.44743e-05)
(0 -0 1.83718e-05)
(0 -0 1.33223e-05)
(0 -0 9.25325e-06)
(0 -0 6.05821e-06)
(0 -0 3.61292e-06)
(0 -0 1.78924e-06)
(0 -0 4.66117e-07)
(0 -0 -4.62981e-07)
(0 -0 -1.08652e-06)
(0 -0 -1.47476e-06)
(0 -0 -1.6819e-06)
(0 -0 -1.74879e-06)
(0 -0 -1.70499e-06)
(0 -0 -1.56909e-06)
(0 -0 -1.34696e-06)
(0 -0 -1.02905e-06)
(0 -0 -5.89235e-07)
(0 -0 1.93974e-08)
(0 -0 7.81387e-07)
(0 -0 2.14788e-06)
(0 -0 1.20044e-05)
(0 -0 2.91668e-05)
(0 -0 4.59067e-05)
(0 -0 6.19445e-05)
(0 -0 7.69825e-05)
(0 -0 9.05803e-05)
(0 -0 0.000102329)
(0 -0 0.000111914)
(0 -0 0.000119091)
(0 -0 0.0001237)
(0 -0 0.000125675)
(0 -0 0.000125054)
(0 -0 0.000121973)
(0 -0 0.000116667)
(0 -0 0.000109453)
(0 -0 0.000100712)
(0 -0 9.08662e-05)
(0 -0 8.03561e-05)
(0 -0 6.96109e-05)
(0 -0 5.90252e-05)
(0 -0 4.89388e-05)
(0 -0 3.96204e-05)
(0 -0 3.12603e-05)
(0 -0 2.39684e-05)
(0 -0 1.778e-05)
(0 -0 1.26664e-05)
(0 -0 8.54993e-06)
(0 -0 5.31941e-06)
(0 -0 2.8469e-06)
(0 -0 1.00148e-06)
(0 -0 -3.39562e-07)
(0 -0 -1.2833e-06)
(0 -0 -1.91776e-06)
(0 -0 -2.3117e-06)
(0 -0 -2.5166e-06)
(0 -0 -2.56954e-06)
(0 -0 -2.49537e-06)
(0 -0 -2.3074e-06)
(0 -0 -2.00623e-06)
(0 -0 -1.57775e-06)
(0 -0 -9.92915e-07)
(0 -0 -2.04127e-07)
(0 -0 7.71302e-07)
(0 -0 2.37766e-06)
(0 -0 1.10297e-05)
(0 -0 2.85401e-05)
(0 -0 4.56489e-05)
(0 -0 6.20534e-05)
(0 -0 7.74267e-05)
(0 -0 9.13136e-05)
(0 -0 0.000103294)
(0 -0 0.000113046)
(0 -0 0.000120321)
(0 -0 0.000124956)
(0 -0 0.000126892)
(0 -0 0.00012617)
(0 -0 0.000122941)
(0 -0 0.000117449)
(0 -0 0.000110026)
(0 -0 0.000101066)
(0 -0 9.10048e-05)
(0 -0 8.0293e-05)
(0 -0 6.93676e-05)
(0 -0 5.86283e-05)
(0 -0 4.84165e-05)
(0 -0 3.90006e-05)
(0 -0 3.0568e-05)
(0 -0 2.32247e-05)
(0 -0 1.70013e-05)
(0 -0 1.18647e-05)
(0 -0 7.73288e-06)
(0 -0 4.49156e-06)
(0 -0 2.01039e-06)
(0 -0 1.57042e-07)
(0 -0 -1.19159e-06)
(0 -0 -2.14217e-06)
(0 -0 -2.7814e-06)
(0 -0 -3.17584e-06)
(0 -0 -3.37376e-06)
(0 -0 -3.40807e-06)
(0 -0 -3.29874e-06)
(0 -0 -3.05365e-06)
(0 -0 -2.66804e-06)
(0 -0 -2.12326e-06)
(0 -0 -1.38728e-06)
(0 -0 -4.118e-07)
(0 -0 7.84e-07)
(0 -0 2.638e-06)
(0 -0 9.69125e-06)
(0 -0 2.7451e-05)
(0 -0 4.47129e-05)
(0 -0 6.13626e-05)
(0 -0 7.69525e-05)
(0 -0 9.10158e-05)
(0 -0 0.00010313)
(0 -0 0.000112971)
(0 -0 0.000120287)
(0 -0 0.000124921)
(0 -0 0.000126814)
(0 -0 0.000126017)
(0 -0 0.000122687)
(0 -0 0.000117079)
(0 -0 0.000109534)
(0 -0 0.000100454)
(0 -0 9.0285e-05)
(0 -0 7.94815e-05)
(0 -0 6.84846e-05)
(0 -0 5.76953e-05)
(0 -0 4.7454e-05)
(0 -0 3.80263e-05)
(0 -0 2.9596e-05)
(0 -0 2.22645e-05)
(0 -0 1.60584e-05)
(0 -0 1.09407e-05)
(0 -0 6.8265e-06)
(0 -0 3.59959e-06)
(0 -0 1.12868e-06)
(0 -0 -7.18565e-07)
(0 -0 -2.06447e-06)
(0 -0 -3.0142e-06)
(0 -0 -3.6523e-06)
(0 -0 -4.04235e-06)
(0 -0 -4.22894e-06)
(0 -0 -4.24048e-06)
(0 -0 -4.0918e-06)
(0 -0 -3.78525e-06)
(0 -0 -3.31066e-06)
(0 -0 -2.64484e-06)
(0 -0 -1.75282e-06)
(0 -0 -5.85627e-07)
(0 -0 8.35621e-07)
(0 -0 2.94354e-06)
(0 -0 8.1979e-06)
(0 -0 2.58847e-05)
(0 -0 4.32742e-05)
(0 -0 5.997e-05)
(0 -0 7.56481e-05)
(0 -0 8.97607e-05)
(0 -0 0.000101897)
(0 -0 0.000111737)
(0 -0 0.000119033)
(0 -0 0.00012363)
(0 -0 0.000125475)
(0 -0 0.000124624)
(0 -0 0.00012124)
(0 -0 0.000115585)
(0 -0 0.000108003)
(0 -0 9.89035e-05)
(0 -0 8.87329e-05)
(0 -0 7.79479e-05)
(0 -0 6.69885e-05)
(0 -0 5.62532e-05)
(0 -0 4.60785e-05)
(0 -0 3.67252e-05)
(0 -0 2.83721e-05)
(0 -0 2.11161e-05)
(0 -0 1.49796e-05)
(0 -0 9.92278e-06)
(0 -0 5.85911e-06)
(0 -0 2.67181e-06)
(0 -0 2.30026e-07)
(0 -0 -1.59721e-06)
(0 -0 -2.93025e-06)
(0 -0 -3.87171e-06)
(0 -0 -4.50305e-06)
(0 -0 -4.88422e-06)
(0 -0 -5.05562e-06)
(0 -0 -5.04084e-06)
(0 -0 -4.84933e-06)
(0 -0 -4.47778e-06)
(0 -0 -3.91061e-06)
(0 -0 -3.12016e-06)
(0 -0 -2.06856e-06)
(0 -0 -7.06307e-07)
(0 -0 9.43389e-07)
(0 -0 3.31002e-06)
(0 -0 -0.00139925)
(0 -0 -0.00141949)
(0 -0 -0.00143321)
(0 -0 -0.0014427)
(0 -0 -0.00144763)
(0 -0 -0.00144674)
(0 -0 -0.00144014)
(0 -0 -0.00142795)
(0 -0 -0.0014103)
(0 -0 -0.00138734)
(0 -0 -0.00135928)
(0 -0 -0.00132634)
(0 -0 -0.00128878)
(0 -0 -0.00124692)
(0 -0 -0.00120113)
(0 -0 -0.00115183)
(0 -0 -0.00109949)
(0 -0 -0.00104464)
(0 -0 -0.000987833)
(0 -0 -0.000929651)
(0 -0 -0.000870684)
(0 -0 -0.000811515)
(0 -0 -0.000752697)
(0 -0 -0.000694737)
(0 -0 -0.000638083)
(0 -0 -0.000583091)
(0 -0 -0.000530194)
(0 -0 -0.00100831)
(0 -0 -0.00102718)
(0 -0 -0.00104193)
(0 -0 -0.00105462)
(0 -0 -0.00106376)
(0 -0 -0.00106829)
(0 -0 -0.00106833)
(0 -0 -0.00106395)
(0 -0 -0.00105521)
(0 -0 -0.00104219)
(0 -0 -0.00102499)
(0 -0 -0.00100373)
(0 -0 -0.000978569)
(0 -0 -0.000949716)
(0 -0 -0.000917427)
(0 -0 -0.00088201)
(0 -0 -0.000843827)
(0 -0 -0.000803288)
(0 -0 -0.000760839)
(0 -0 -0.000716959)
(0 -0 -0.000672137)
(0 -0 -0.000626861)
(0 -0 -0.000581601)
(0 -0 -0.00053679)
(0 -0 -0.000492811)
(0 -0 -0.000449998)
(0 -0 -0.000408709)
(0 -0 -0.000723047)
(0 -0 -0.000738788)
(0 -0 -0.000751322)
(0 -0 -0.000763821)
(0 -0 -0.000774172)
(0 -0 -0.00078119)
(0 -0 -0.000784869)
(0 -0 -0.000785193)
(0 -0 -0.000782148)
(0 -0 -0.00077573)
(0 -0 -0.000765953)
(0 -0 -0.000752857)
(0 -0 -0.000736517)
(0 -0 -0.00071705)
(0 -0 -0.00069462)
(0 -0 -0.000669439)
(0 -0 -0.000641776)
(0 -0 -0.000611942)
(0 -0 -0.000580293)
(0 -0 -0.000547216)
(0 -0 -0.000513114)
(0 -0 -0.000478398)
(0 -0 -0.000443464)
(0 -0 -0.000408686)
(0 -0 -0.000374395)
(0 -0 -0.000340883)
(0 -0 -0.000308446)
(0 -0 -0.000515727)
(0 -0 -0.00052787)
(0 -0 -0.000537956)
(0 -0 -0.000548742)
(0 -0 -0.00055872)
(0 -0 -0.000566489)
(0 -0 -0.000571924)
(0 -0 -0.00057492)
(0 -0 -0.000575392)
(0 -0 -0.000573267)
(0 -0 -0.000568494)
(0 -0 -0.000561044)
(0 -0 -0.000550923)
(0 -0 -0.000538171)
(0 -0 -0.000522877)
(0 -0 -0.000505175)
(0 -0 -0.000485251)
(0 -0 -0.000463337)
(0 -0 -0.00043971)
(0 -0 -0.00041468)
(0 -0 -0.000388578)
(0 -0 -0.000361748)
(0 -0 -0.00033453)
(0 -0 -0.000307246)
(0 -0 -0.000280188)
(0 -0 -0.000253616)
(0 -0 -0.0002278)
(0 -0 -0.000364588)
(0 -0 -0.000374308)
(0 -0 -0.000382475)
(0 -0 -0.000391812)
(0 -0 -0.000401039)
(0 -0 -0.00040883)
(0 -0 -0.000415036)
(0 -0 -0.000419519)
(0 -0 -0.000422151)
(0 -0 -0.000422816)
(0 -0 -0.000421415)
(0 -0 -0.000417868)
(0 -0 -0.000412123)
(0 -0 -0.000404163)
(0 -0 -0.000394012)
(0 -0 -0.000381738)
(0 -0 -0.00036746)
(0 -0 -0.000351343)
(0 -0 -0.000333595)
(0 -0 -0.000314462)
(0 -0 -0.000294217)
(0 -0 -0.00027315)
(0 -0 -0.000251553)
(0 -0 -0.000229711)
(0 -0 -0.000207887)
(0 -0 -0.000186318)
(0 -0 -0.000165258)
(0 -0 -0.000255161)
(0 -0 -0.000263395)
(0 -0 -0.000270235)
(0 -0 -0.000278469)
(0 -0 -0.00028698)
(0 -0 -0.000294558)
(0 -0 -0.000301079)
(0 -0 -0.000306401)
(0 -0 -0.000310385)
(0 -0 -0.00031289)
(0 -0 -0.000313785)
(0 -0 -0.000312955)
(0 -0 -0.000310303)
(0 -0 -0.000305767)
(0 -0 -0.000299316)
(0 -0 -0.000290966)
(0 -0 -0.000280779)
(0 -0 -0.000268861)
(0 -0 -0.000255367)
(0 -0 -0.000240486)
(0 -0 -0.000224445)
(0 -0 -0.000207488)
(0 -0 -0.000189873)
(0 -0 -0.000171856)
(0 -0 -0.000153682)
(0 -0 -0.000135576)
(0 -0 -0.000117785)
(0 -0 -0.00017742)
(0 -0 -0.000184291)
(0 -0 -0.000190077)
(0 -0 -0.000197437)
(0 -0 -0.00020534)
(0 -0 -0.000212666)
(0 -0 -0.000219308)
(0 -0 -0.000225137)
(0 -0 -0.000230007)
(0 -0 -0.000233767)
(0 -0 -0.000236266)
(0 -0 -0.000237361)
(0 -0 -0.000236925)
(0 -0 -0.000234853)
(0 -0 -0.000231076)
(0 -0 -0.000225563)
(0 -0 -0.000218327)
(0 -0 -0.000209427)
(0 -0 -0.000198969)
(0 -0 -0.0001871)
(0 -0 -0.000174005)
(0 -0 -0.000159895)
(0 -0 -0.000145002)
(0 -0 -0.000129562)
(0 -0 -0.000113808)
(0 -0 -9.79646e-05)
(0 -0 -8.22808e-05)
(0 -0 -0.000122971)
(0 -0 -0.000128685)
(0 -0 -0.000133619)
(0 -0 -0.000140278)
(0 -0 -0.000147687)
(0 -0 -0.000154791)
(0 -0 -0.000161494)
(0 -0 -0.000167667)
(0 -0 -0.000173166)
(0 -0 -0.000177832)
(0 -0 -0.000181499)
(0 -0 -0.000184002)
(0 -0 -0.000185188)
(0 -0 -0.000184921)
(0 -0 -0.000183095)
(0 -0 -0.000179641)
(0 -0 -0.00017453)
(0 -0 -0.000167782)
(0 -0 -0.000159461)
(0 -0 -0.00014968)
(0 -0 -0.000138588)
(0 -0 -0.000126372)
(0 -0 -0.000113244)
(0 -0 -9.94285e-05)
(0 -0 -8.51561e-05)
(0 -0 -7.06549e-05)
(0 -0 -5.61831e-05)
(0 -0 -8.54227e-05)
(0 -0 -9.02325e-05)
(0 -0 -9.45151e-05)
(0 -0 -0.000100638)
(0 -0 -0.000107672)
(0 -0 -0.000114618)
(0 -0 -0.000121379)
(0 -0 -0.000127831)
(0 -0 -0.000133823)
(0 -0 -0.00013919)
(0 -0 -0.000143752)
(0 -0 -0.000147328)
(0 -0 -0.000149739)
(0 -0 -0.000150824)
(0 -0 -0.000150446)
(0 -0 -0.000148499)
(0 -0 -0.000144922)
(0 -0 -0.000139698)
(0 -0 -0.000132857)
(0 -0 -0.000124481)
(0 -0 -0.000114694)
(0 -0 -0.000103662)
(0 -0 -9.15846e-05)
(0 -0 -7.86811e-05)
(0 -0 -6.51843e-05)
(0 -0 -5.13328e-05)
(0 -0 -3.73987e-05)
(0 -0 -6.00015e-05)
(0 -0 -6.41613e-05)
(0 -0 -6.79926e-05)
(0 -0 -7.37405e-05)
(0 -0 -8.05218e-05)
(0 -0 -8.73856e-05)
(0 -0 -9.4237e-05)
(0 -0 -0.000100948)
(0 -0 -0.000107366)
(0 -0 -0.000113314)
(0 -0 -0.000118603)
(0 -0 -0.000123032)
(0 -0 -0.000126404)
(0 -0 -0.000128531)
(0 -0 -0.000129247)
(0 -0 -0.00012842)
(0 -0 -0.000125954)
(0 -0 -0.000121801)
(0 -0 -0.000115965)
(0 -0 -0.000108498)
(0 -0 -9.95066e-05)
(0 -0 -8.91405e-05)
(0 -0 -7.759e-05)
(0 -0 -6.50757e-05)
(0 -0 -5.18373e-05)
(0 -0 -3.81276e-05)
(0 -0 -2.42368e-05)
(0 -0 -4.31966e-05)
(0 -0 -4.69327e-05)
(0 -0 -5.04954e-05)
(0 -0 -5.60181e-05)
(0 -0 -6.2662e-05)
(0 -0 -6.95236e-05)
(0 -0 -7.65081e-05)
(0 -0 -8.3485e-05)
(0 -0 -9.02953e-05)
(0 -0 -9.67551e-05)
(0 -0 -0.000102661)
(0 -0 -0.000107798)
(0 -0 -0.000111949)
(0 -0 -0.000114902)
(0 -0 -0.000116468)
(0 -0 -0.000116484)
(0 -0 -0.000114828)
(0 -0 -0.000111424)
(0 -0 -0.000106251)
(0 -0 -9.93395e-05)
(0 -0 -9.07783e-05)
(0 -0 -8.07068e-05)
(0 -0 -6.9311e-05)
(0 -0 -5.68149e-05)
(0 -0 -4.34687e-05)
(0 -0 -2.95426e-05)
(0 -0 -1.53479e-05)
(0 -0 -3.24564e-05)
(0 -0 -3.59542e-05)
(0 -0 -3.94012e-05)
(0 -0 -4.48264e-05)
(0 -0 -5.14339e-05)
(0 -0 -5.83651e-05)
(0 -0 -6.55249e-05)
(0 -0 -7.27805e-05)
(0 -0 -7.99674e-05)
(0 -0 -8.68934e-05)
(0 -0 -9.33433e-05)
(0 -0 -9.90866e-05)
(0 -0 -0.000103887)
(0 -0 -0.000107513)
(0 -0 -0.00010975)
(0 -0 -0.000110412)
(0 -0 -0.000109351)
(0 -0 -0.000106468)
(0 -0 -0.000101716)
(0 -0 -9.51112e-05)
(0 -0 -8.67265e-05)
(0 -0 -7.6694e-05)
(0 -0 -6.51986e-05)
(0 -0 -5.247e-05)
(0 -0 -3.87713e-05)
(0 -0 -2.4392e-05)
(0 -0 -9.66557e-06)
(0 -0 -2.59426e-05)
(0 -0 -2.93436e-05)
(0 -0 -3.27929e-05)
(0 -0 -3.82208e-05)
(0 -0 -4.48715e-05)
(0 -0 -5.19287e-05)
(0 -0 -5.92971e-05)
(0 -0 -6.68413e-05)
(0 -0 -7.4392e-05)
(0 -0 -8.17487e-05)
(0 -0 -8.86851e-05)
(0 -0 -9.49564e-05)
(0 -0 -0.000100309)
(0 -0 -0.000104493)
(0 -0 -0.000107271)
(0 -0 -0.000108435)
(0 -0 -0.000107815)
(0 -0 -0.000105288)
(0 -0 -0.000100791)
(0 -0 -9.43229e-05)
(0 -0 -8.59455e-05)
(0 -0 -7.57857e-05)
(0 -0 -6.40293e-05)
(0 -0 -5.09134e-05)
(0 -0 -3.67151e-05)
(0 -0 -2.17436e-05)
(0 -0 -6.35527e-06)
(0 -0 -2.23392e-05)
(0 -0 -2.57442e-05)
(0 -0 -2.9279e-05)
(0 -0 -3.47803e-05)
(0 -0 -4.15296e-05)
(0 -0 -4.87498e-05)
(0 -0 -5.63453e-05)
(0 -0 -6.41785e-05)
(0 -0 -7.20752e-05)
(0 -0 -7.98274e-05)
(0 -0 -8.71986e-05)
(0 -0 -9.39311e-05)
(0 -0 -9.9756e-05)
(0 -0 -0.000104405)
(0 -0 -0.000107623)
(0 -0 -0.00010918)
(0 -0 -0.000108887)
(0 -0 -0.000106603)
(0 -0 -0.000102248)
(0 -0 -9.5806e-05)
(0 -0 -8.73316e-05)
(0 -0 -7.69477e-05)
(0 -0 -6.48421e-05)
(0 -0 -5.12601e-05)
(0 -0 -3.64932e-05)
(0 -0 -2.087e-05)
(0 -0 -4.76886e-06)
(0 -0 -2.0709e-05)
(0 -0 -2.4183e-05)
(0 -0 -2.78544e-05)
(0 -0 -3.34714e-05)
(0 -0 -4.03501e-05)
(0 -0 -4.77497e-05)
(0 -0 -5.5574e-05)
(0 -0 -6.36832e-05)
(0 -0 -7.18986e-05)
(0 -0 -8.00056e-05)
(0 -0 -8.77584e-05)
(0 -0 -9.48882e-05)
(0 -0 -0.000101113)
(0 -0 -0.000106148)
(0 -0 -0.000109721)
(0 -0 -0.000111587)
(0 -0 -0.000111537)
(0 -0 -0.000109416)
(0 -0 -0.000105128)
(0 -0 -9.86477e-05)
(0 -0 -9.00217e-05)
(0 -0 -7.93706e-05)
(0 -0 -6.68852e-05)
(0 -0 -5.2819e-05)
(0 -0 -3.74771e-05)
(0 -0 -2.12066e-05)
(0 -0 -4.40623e-06)
(0 -0 -2.03854e-05)
(0 -0 -2.39628e-05)
(0 -0 -2.77944e-05)
(0 -0 -3.35445e-05)
(0 -0 -4.05609e-05)
(0 -0 -4.81363e-05)
(0 -0 -5.61738e-05)
(0 -0 -6.45314e-05)
(0 -0 -7.30266e-05)
(0 -0 -8.14389e-05)
(0 -0 -8.95151e-05)
(0 -0 -9.69766e-05)
(0 -0 -0.00010353)
(0 -0 -0.000108878)
(0 -0 -0.000112734)
(0 -0 -0.000114838)
(0 -0 -0.000114968)
(0 -0 -0.000112954)
(0 -0 -0.000108689)
(0 -0 -0.000102139)
(0 -0 -9.33443e-05)
(0 -0 -8.24247e-05)
(0 -0 -6.9574e-05)
(0 -0 -5.50532e-05)
(0 -0 -3.91799e-05)
(0 -0 -2.23175e-05)
(0 -0 -4.88344e-06)
(0 -0 -2.08931e-05)
(0 -0 -2.45839e-05)
(0 -0 -2.85768e-05)
(0 -0 -3.44564e-05)
(0 -0 -4.15992e-05)
(0 -0 -4.93292e-05)
(0 -0 -5.75482e-05)
(0 -0 -6.61126e-05)
(0 -0 -7.48366e-05)
(0 -0 -8.34954e-05)
(0 -0 -9.18297e-05)
(0 -0 -9.95534e-05)
(0 -0 -0.000106364)
(0 -0 -0.000111954)
(0 -0 -0.000116026)
(0 -0 -0.000118309)
(0 -0 -0.000118567)
(0 -0 -0.000116622)
(0 -0 -0.000112358)
(0 -0 -0.000105732)
(0 -0 -9.67809e-05)
(0 -0 -8.56239e-05)
(0 -0 -7.24572e-05)
(0 -0 -5.75487e-05)
(0 -0 -4.12265e-05)
(0 -0 -2.38683e-05)
(0 -0 -5.90709e-06)
(0 -0 -2.18892e-05)
(0 -0 -2.56861e-05)
(0 -0 -2.98251e-05)
(0 -0 -3.58146e-05)
(0 -0 -4.30571e-05)
(0 -0 -5.09053e-05)
(0 -0 -5.92604e-05)
(0 -0 -6.79773e-05)
(0 -0 -7.68682e-05)
(0 -0 -8.57055e-05)
(0 -0 -9.42256e-05)
(0 -0 -0.000102137)
(0 -0 -0.000109131)
(0 -0 -0.000114893)
(0 -0 -0.000119118)
(0 -0 -0.000121525)
(0 -0 -0.000121872)
(0 -0 -0.000119971)
(0 -0 -0.0001157)
(0 -0 -0.000109011)
(0 -0 -9.99379e-05)
(0 -0 -8.85988e-05)
(0 -0 -7.51921e-05)
(0 -0 -5.99909e-05)
(0 -0 -4.3332e-05)
(0 -0 -2.5605e-05)
(0 -0 -7.2561e-06)
(0 -0 -2.31273e-05)
(0 -0 -2.70081e-05)
(0 -0 -3.12744e-05)
(0 -0 -3.73425e-05)
(0 -0 -4.46457e-05)
(0 -0 -5.25638e-05)
(0 -0 -6.09978e-05)
(0 -0 -6.98025e-05)
(0 -0 -7.87896e-05)
(0 -0 -8.77296e-05)
(0 -0 -9.63572e-05)
(0 -0 -0.000104378)
(0 -0 -0.00011148)
(0 -0 -0.000117344)
(0 -0 -0.00012166)
(0 -0 -0.000124143)
(0 -0 -0.000124545)
(0 -0 -0.000122673)
(0 -0 -0.0001184)
(0 -0 -0.000111675)
(0 -0 -0.00010253)
(0 -0 -9.10813e-05)
(0 -0 -7.75295e-05)
(0 -0 -6.21509e-05)
(0 -0 -4.52887e-05)
(0 -0 -2.73435e-05)
(0 -0 -8.75188e-06)
(0 -0 -2.44959e-05)
(0 -0 -2.83819e-05)
(0 -0 -3.27523e-05)
(0 -0 -3.8859e-05)
(0 -0 -4.61732e-05)
(0 -0 -5.41024e-05)
(0 -0 -6.25491e-05)
(0 -0 -7.13691e-05)
(0 -0 -8.03745e-05)
(0 -0 -8.93364e-05)
(0 -0 -9.79894e-05)
(0 -0 -0.000106039)
(0 -0 -0.000113172)
(0 -0 -0.000119069)
(0 -0 -0.000123418)
(0 -0 -0.000125931)
(0 -0 -0.00012636)
(0 -0 -0.000124509)
(0 -0 -0.000120247)
(0 -0 -0.000113523)
(0 -0 -0.000104367)
(0 -0 -9.2894e-05)
(0 -0 -7.93047e-05)
(0 -0 -6.38771e-05)
(0 -0 -4.69583e-05)
(0 -0 -2.89449e-05)
(0 -0 -1.03306e-05)
(0 -0 -2.60126e-05)
(0 -0 -2.9871e-05)
(0 -0 -3.42152e-05)
(0 -0 -4.0307e-05)
(0 -0 -4.75614e-05)
(0 -0 -5.54252e-05)
(0 -0 -6.38029e-05)
(0 -0 -7.25517e-05)
(0 -0 -8.14856e-05)
(0 -0 -9.03776e-05)
(0 -0 -9.89642e-05)
(0 -0 -0.000106953)
(0 -0 -0.000114034)
(0 -0 -0.000119888)
(0 -0 -0.000124206)
(0 -0 -0.000126701)
(0 -0 -0.000127125)
(0 -0 -0.000125283)
(0 -0 -0.000121045)
(0 -0 -0.000114357)
(0 -0 -0.000105249)
(0 -0 -9.38357e-05)
(0 -0 -8.03156e-05)
(0 -0 -6.49661e-05)
(0 -0 -4.81323e-05)
(0 -0 -3.02243e-05)
(0 -0 -1.16973e-05)
(0 -0 -2.71832e-05)
(0 -0 -3.10769e-05)
(0 -0 -3.53578e-05)
(0 -0 -4.13612e-05)
(0 -0 -4.85047e-05)
(0 -0 -5.62521e-05)
(0 -0 -6.45066e-05)
(0 -0 -7.31268e-05)
(0 -0 -8.19289e-05)
(0 -0 -9.0689e-05)
(0 -0 -9.91477e-05)
(0 -0 -0.000107017)
(0 -0 -0.000113991)
(0 -0 -0.000119756)
(0 -0 -0.000124008)
(0 -0 -0.000126464)
(0 -0 -0.000126878)
(0 -0 -0.000125058)
(0 -0 -0.000120876)
(0 -0 -0.000114279)
(0 -0 -0.000105295)
(0 -0 -9.40388e-05)
(0 -0 -8.0705e-05)
(0 -0 -6.5568e-05)
(0 -0 -4.89702e-05)
(0 -0 -3.13135e-05)
(0 -0 -1.30603e-05)
(0 -0 -2.80549e-05)
(0 -0 -3.19436e-05)
(0 -0 -3.61643e-05)
(0 -0 -4.20231e-05)
(0 -0 -4.89959e-05)
(0 -0 -5.65602e-05)
(0 -0 -6.46197e-05)
(0 -0 -7.3035e-05)
(0 -0 -8.16263e-05)
(0 -0 -9.01747e-05)
(0 -0 -9.84266e-05)
(0 -0 -0.000106101)
(0 -0 -0.000112899)
(0 -0 -0.000118516)
(0 -0 -0.000122653)
(0 -0 -0.000125036)
(0 -0 -0.000125425)
(0 -0 -0.000123632)
(0 -0 -0.000119532)
(0 -0 -0.000113074)
(0 -0 -0.000104286)
(0 -0 -9.32799e-05)
(0 -0 -8.02467e-05)
(0 -0 -6.5455e-05)
(0 -0 -4.92399e-05)
(0 -0 -3.19941e-05)
(0 -0 -1.41821e-05)
(0 -0 -2.85312e-05)
(0 -0 -3.23842e-05)
(0 -0 -3.65189e-05)
(0 -0 -4.21909e-05)
(0 -0 -4.89389e-05)
(0 -0 -5.62572e-05)
(0 -0 -6.4052e-05)
(0 -0 -7.21882e-05)
(0 -0 -8.04913e-05)
(0 -0 -8.87493e-05)
(0 -0 -9.67172e-05)
(0 -0 -0.000104123)
(0 -0 -0.000110679)
(0 -0 -0.000116089)
(0 -0 -0.000120067)
(0 -0 -0.000122346)
(0 -0 -0.000122697)
(0 -0 -0.000120937)
(0 -0 -0.000116948)
(0 -0 -0.000110679)
(0 -0 -0.00010216)
(0 -0 -9.14984e-05)
(0 -0 -7.88804e-05)
(0 -0 -6.45664e-05)
(0 -0 -4.88814e-05)
(0 -0 -3.22063e-05)
(0 -0 -1.49775e-05)
(0 -0 -2.86132e-05)
(0 -0 -3.23802e-05)
(0 -0 -3.63843e-05)
(0 -0 -4.18231e-05)
(0 -0 -4.8293e-05)
(0 -0 -5.5305e-05)
(0 -0 -6.2769e-05)
(0 -0 -7.05554e-05)
(0 -0 -7.84968e-05)
(0 -0 -8.63903e-05)
(0 -0 -9.40013e-05)
(0 -0 -0.00010107)