/*--------------------------------*- C++ -*----------------------------------*\
| =========                 |                                                 |
| \\      /  F ield         | OpenFOAM: The Open Source CFD Toolbox           |
|  \\    /   O peration     | Version:  2412                                  |
|   \\  /    A nd           | Website:  www.openfoam.com                      |
|    \\/     M anipulation  |                                                 |
\*---------------------------------------------------------------------------*/
FoamFile
{
    version     2.0;
    format      ascii;
    arch        "LSB;label=32;scalar=64";
    class       volVectorField;
    location    "27";
    object      vorticity;
}
// * * * * * * * * * * * * * * * * * * * * * * * * * * * * * * * * * * * * * //

dimensions      [0 0 -1 0 0 0 0];

internalField   nonuniform List<vector> 
5285
(
(1.9474e-21 3.43876e-22 -0.0112186)
(-2.6947e-21 1.31551e-23 -0.0108805)
(1.77201e-21 1.39474e-21 -0.0105167)
(-6.63972e-22 4.03348e-23 -0.0101322)
(-1.88817e-21 4.12962e-24 -0.00973047)
(8.97081e-22 -2.65401e-23 -0.00931525)
(1.57957e-22 2.15967e-21 -0.00889013)
(-4.33202e-23 4.35999e-23 -0.00845839)
(-1.69146e-22 -2.57059e-21 -0.00802309)
(1.41963e-22 2.74797e-21 -0.00758701)
(1.91234e-22 -3.03101e-21 -0.00715273)
(3.40491e-22 2.89928e-20 -0.0067226)
(-7.61815e-22 -2.90244e-20 -0.00629875)
(-6.63319e-22 -2.55438e-20 -0.0058831)
(1.45989e-21 5.56826e-20 -0.00547737)
(-8.09945e-22 -3.04319e-20 -0.00508309)
(-2.191e-22 -4.15674e-21 -0.00470156)
(2.12147e-22 4.29877e-21 -0.00433393)
(-4.14578e-24 2.21106e-24 -0.00398114)
(1.77753e-22 4.65052e-21 -0.00364394)
(-4.90021e-22 -2.44203e-20 -0.00332294)
(4.69524e-22 2.4649e-20 -0.00301856)
(-1.34187e-22 -5.16781e-21 -0.00273105)
(3.04776e-22 1.61037e-20 -0.00246049)
(3.01496e-23 -5.3371e-21 -0.00220674)
(-2.0056e-22 -1.13147e-20 -0.00196942)
(5.44872e-23 5.70623e-21 -0.00174768)
(-1.47183e-22 -5.92391e-21 -0.00154007)
(1.40464e-20 7.46154e-20 -0.0332932)
(-1.59223e-20 -7.76306e-20 -0.0322775)
(1.87891e-20 9.50957e-20 -0.0311857)
(-9.70675e-21 -3.90081e-20 -0.0300345)
(-1.90192e-20 -1.18357e-19 -0.0288343)
(8.25763e-21 5.91999e-20 -0.0275957)
(1.36408e-21 -1.18515e-21 -0.0263291)
(-2.02856e-21 -4.94669e-21 -0.025044)
(1.53019e-21 2.56175e-21 -0.0237493)
(-9.78296e-22 -8.82369e-21 -0.0224531)
(9.92123e-21 9.61833e-20 -0.021163)
(-2.1174e-20 -2.06712e-19 -0.0198859)
(9.89954e-21 1.00809e-19 -0.018628)
(-7.14066e-22 -1.04571e-20 -0.017395)
(-9.95235e-23 3.71926e-21 -0.0161919)
(3.57236e-23 4.3187e-23 -0.0150232)
(-4.94732e-21 -7.18912e-20 -0.0138927)
(4.22492e-21 6.34114e-20 -0.0128037)
(3.47076e-21 6.4313e-20 -0.0117589)
(-5.03552e-21 -8.7571e-20 -0.0107606)
(1.53546e-22 4.85301e-21 -0.00981057)
(1.10497e-21 2.56161e-20 -0.0089099)
(-2.41319e-21 -4.60652e-20 -0.00805938)
(-3.59638e-23 -5.32719e-21 -0.00725918)
(-1.6242e-21 -3.87181e-20 -0.0065089)
(-3.48805e-22 -6.18708e-21 -0.00580727)
(4.02688e-22 1.11848e-20 -0.00515168)
(5.00467e-22 1.75987e-20 -0.00453739)
(-3.04199e-20 -8.92497e-20 -0.0543326)
(3.37096e-20 8.54504e-20 -0.0526311)
(-1.48244e-21 6.40368e-21 -0.0508142)
(1.12047e-22 -3.74966e-21 -0.0489035)
(-1.14334e-21 5.73148e-21 -0.0469191)
(-2.79144e-20 -1.40733e-19 -0.0448769)
(3.25095e-20 1.43306e-19 -0.0427932)
(-3.19847e-20 -1.57338e-19 -0.0406832)
(3.42275e-20 1.66814e-19 -0.0385607)
(8.04661e-22 6.21237e-21 -0.0364389)
(3.12457e-20 2.05983e-19 -0.0343296)
(-6.29292e-20 -4.14894e-19 -0.0322438)
(3.3924e-20 2.22186e-19 -0.0301915)
(1.50754e-20 1.28632e-19 -0.0281815)
(-1.34918e-20 -1.12494e-19 -0.0262218)
(-6.48866e-22 -2.12601e-22 -0.0243195)
(-3.7227e-23 -1.87357e-22 -0.0224807)
(2.19489e-23 -3.42199e-24 -0.0207105)
(1.3383e-20 1.48701e-19 -0.0190132)
(-1.31081e-20 -1.39633e-19 -0.0173924)
(1.02513e-21 9.88968e-21 -0.0158507)
(-4.14485e-22 -8.674e-23 -0.0143899)
(5.77153e-21 8.44303e-20 -0.0130111)
(-1.09474e-20 -1.60984e-19 -0.0117145)
(5.48782e-21 8.71016e-20 -0.0104993)
(-2.93711e-21 -4.59042e-20 -0.00936338)
(2.18936e-21 3.40978e-20 -0.00830192)
(5.31148e-22 1.15215e-20 -0.00730587)
(2.67929e-21 -1.00507e-22 -0.0737577)
(-7.12277e-21 3.63184e-21 -0.0713632)
(5.84702e-21 4.54348e-22 -0.0688224)
(4.30636e-22 7.87859e-21 -0.0661663)
(-8.95324e-20 -2.98779e-19 -0.0634216)
(9.17935e-20 2.87152e-19 -0.0606079)
(-6.08011e-21 5.44105e-21 -0.0577463)
(-4.00087e-20 -1.81449e-19 -0.0548562)
(4.56934e-20 1.85084e-19 -0.0519559)
(-1.36728e-21 1.45632e-21 -0.0490624)
(-1.43271e-22 4.37928e-22 -0.0461912)
(-4.35683e-20 -2.35383e-19 -0.0433565)
(8.8363e-20 4.73797e-19 -0.0405712)
(-8.65877e-20 -4.88358e-19 -0.037847)
(8.49594e-20 5.11271e-19 -0.0351941)
(-8.27008e-20 -5.33053e-19 -0.0326217)
(4.06153e-20 2.71427e-19 -0.0301375)
(1.97457e-20 1.47142e-19 -0.0277484)
(-1.71621e-20 -1.28117e-19 -0.0254597)
(-1.31098e-21 -9.86897e-21 -0.0232759)
(-1.75202e-20 -1.61553e-19 -0.0212003)
(3.72231e-20 3.49078e-19 -0.0192351)
(-1.74465e-20 -1.66967e-19 -0.0173817)
(2.22254e-22 2.34227e-22 -0.01564)
(7.97047e-22 1.10505e-20 -0.0140089)
(-2.0085e-22 -1.54679e-22 -0.012485)
(-7.78142e-22 -1.15536e-20 -0.0110611)
(1.71686e-21 2.37633e-20 -0.00972251)
(-1.01439e-19 -2.71025e-19 -0.0880437)
(1.01428e-19 2.52073e-19 -0.0847836)
(-6.71014e-21 5.50731e-21 -0.0814022)
(9.11757e-21 1.03458e-23 -0.0779285)
(-6.41776e-21 -1.66891e-21 -0.0743861)
(-1.13824e-19 -3.74059e-19 -0.0707975)
(1.18373e-19 3.61397e-19 -0.0671856)
(-4.39455e-21 -1.71648e-21 -0.0635717)
(-5.77265e-20 -2.12906e-19 -0.0599756)
(5.64933e-20 2.2422e-19 -0.0564155)
(4.55531e-21 1.12546e-21 -0.0529078)
(-2.15845e-21 3.87506e-22 -0.0494676)
(2.63024e-22 4.29108e-22 -0.0461084)
(-5.41224e-20 -2.72394e-19 -0.0428422)
(5.64411e-20 2.80746e-19 -0.0396795)
(-5.02461e-20 -2.83462e-19 -0.0366293)
(5.06988e-20 2.92125e-19 -0.0336993)
(-2.80828e-21 -1.89808e-20 -0.0308957)
(1.36791e-21 9.76428e-21 -0.0282234)
(2.06319e-22 2.31902e-22 -0.0256862)
(-1.16229e-21 -1.03405e-20 -0.0232865)
(1.16509e-21 1.05683e-20 -0.0210253)
(-1.12549e-20 -9.95472e-20 -0.0189026)
(1.97167e-20 1.79376e-19 -0.0169166)
(-1.44432e-20 -1.37158e-19 -0.0150627)
(4.62311e-21 4.63331e-20 -0.0133313)
(2.21535e-22 1.13266e-22 -0.011701)
(1.26222e-19 3.14986e-19 -0.102412)
(-1.3892e-19 -2.97873e-19 -0.0984415)
(-1.31191e-19 -3.60008e-19 -0.0943598)
(1.33802e-19 3.37956e-19 -0.0901977)
(-6.05211e-21 4.77413e-21 -0.0859772)
(8.96788e-21 -3.16239e-21 -0.0817216)
(1.34573e-19 4.32018e-19 -0.0774557)
(-1.59809e-21 2.73531e-20 -0.0732025)
(-1.40968e-19 -4.63979e-19 -0.0689833)
(-1.40044e-19 -5.07152e-19 -0.0648176)
(2.72067e-19 9.95366e-19 -0.0607233)
(-7.27091e-20 -2.48907e-19 -0.0567167)
(-6.79964e-20 -2.74879e-19 -0.0528121)
(-6.68831e-20 -3.04531e-19 -0.0490226)
(1.23884e-19 5.70717e-19 -0.0453592)
(-1.25487e-19 -6.06503e-19 -0.0418317)
(-2.23226e-22 -2.00469e-20 -0.038448)
(5.84283e-20 3.11608e-19 -0.0352148)
(5.54754e-20 3.29517e-19 -0.0321371)
(-8.54201e-20 -5.18024e-19 -0.0292185)
(5.07833e-20 3.29934e-19 -0.0264614)
(-2.74987e-20 -1.83116e-19 -0.0238667)
(2.5458e-20 1.90906e-19 -0.0214337)
(-2.52464e-20 -1.90884e-19 -0.0191601)
(1.1417e-21 1.14947e-20 -0.0170406)
(-6.56756e-21 -5.91778e-20 -0.0150634)
(2.65688e-21 2.34499e-20 -0.0131999)
(-1.47979e-19 -3.58684e-19 -0.11085)
(9.14023e-21 -6.61572e-21 -0.106569)
(5.31996e-21 -9.1907e-23 -0.102173)
(-4.40681e-21 1.02847e-20 -0.097694)
(-1.58847e-19 -4.42931e-19 -0.0931528)
(1.61151e-19 4.33018e-19 -0.0885711)
(-4.7708e-21 4.17148e-21 -0.0839749)
(4.13183e-22 -4.29105e-23 -0.0793885)
(4.75231e-21 9.78613e-21 -0.0748345)
(-1.51899e-19 -5.27313e-19 -0.0703339)
(3.10897e-19 1.08594e-18 -0.065906)
(-1.54911e-19 -5.42756e-19 -0.0615687)
(3.47267e-21 6.83541e-21 -0.0573377)
(2.8082e-21 8.61962e-21 -0.0532275)
(7.08125e-20 3.09088e-19 -0.0492505)
(-1.38831e-19 -6.13775e-19 -0.0454177)
(7.17706e-20 3.24314e-19 -0.0417384)
(-6.42031e-20 -3.20991e-19 -0.0382201)
(1.91857e-21 -8.54552e-21 -0.0348689)
(3.86587e-21 2.51004e-21 -0.0316892)
(6.30871e-20 3.5496e-19 -0.0286839)
(3.01024e-20 1.9003e-19 -0.0258544)
(-2.98837e-20 -1.8966e-19 -0.0232007)
(1.46405e-21 1.14375e-20 -0.0207207)
(1.24697e-20 9.37736e-20 -0.0184094)
(-1.1037e-20 -8.18342e-20 -0.0162551)
(1.3635e-21 1.18976e-20 -0.0142223)
(0 5.19336e-24 -0.00131697)
(0 -0 -0.00115199)
(0 -0 -0.0010026)
(0 -0 -0.000867815)
(0 -0 -0.000746665)
(0 -0 -0.000638228)
(0 -0 -0.000541628)
(0 -0 -0.000456037)
(0 -0 -0.000380671)
(0 -0 -0.000314776)
(0 -0 -0.000257615)
(0 -0 -0.000208462)
(0 -0 -0.000166601)
(0 -0 -0.000131318)
(0 -0 -0.000101914)
(0 -0 -7.77018e-05)
(0 -0 -5.80182e-05)
(0 -0 -4.22282e-05)
(0 -0 -2.97335e-05)
(0 -0 -1.99782e-05)
(0 -0 -1.24543e-05)
(0 -0 -6.70459e-06)
(0 -0 -2.32537e-06)
(0 -0 1.03371e-06)
(0 -0 3.66972e-06)
(0 -0 5.8274e-06)
(0 -0 7.69983e-06)
(0 -0 9.42864e-06)
(0 -0 1.11038e-05)
(0 -0 1.27636e-05)
(0 -0 1.43961e-05)
(0 -0 1.59435e-05)
(0 -0 1.73109e-05)
(0 -0 1.83811e-05)
(0 -0 1.90339e-05)
(0 -0 1.91691e-05)
(0 -0 1.87273e-05)
(0 -0 1.77069e-05)
(0 -0 1.61694e-05)
(0 -0 1.42338e-05)
(0 -0 1.20588e-05)
(0 -0 9.81829e-06)
(0 -0 7.67281e-06)
(0 -0 5.75746e-06)
(0 -1.52125e-23 -0.00388299)
(0 -0 -0.00339788)
(0 -0 -0.00295852)
(0 -0 -0.00256189)
(0 -0 -0.00220513)
(0 -0 -0.00188554)
(0 -0 -0.00160058)
(0 -0 -0.00134789)
(0 -0 -0.00112522)
(0 -0 -0.000930421)
(0 -0 -0.000761356)
(0 -0 -0.000615925)
(0 -0 -0.000492035)
(0 -0 -0.000387602)
(0 -0 -0.000300569)
(0 -0 -0.000228913)
(0 -0 -0.000170676)
(0 -0 -0.00012398)
(0 -0 -8.70528e-05)
(0 -0 -5.82469e-05)
(0 -0 -3.6055e-05)
(0 -0 -1.91208e-05)
(0 -0 -6.245e-06)
(0 -0 3.61273e-06)
(0 -0 1.13346e-05)
(0 -0 1.76474e-05)
(0 -0 2.31242e-05)
(0 -0 2.8185e-05)
(0 -0 3.3096e-05)
(0 -0 3.797e-05)
(0 -0 4.27703e-05)
(0 -0 4.73237e-05)
(0 -0 5.13476e-05)
(0 -0 5.44927e-05)
(0 -0 5.64015e-05)
(0 -0 5.67754e-05)
(0 -0 5.54386e-05)
(0 -0 5.23861e-05)
(0 -0 4.78011e-05)
(0 -0 4.20375e-05)
(0 -0 3.55675e-05)
(0 -0 2.89073e-05)
(0 -0 2.25343e-05)
(0 -0 1.68507e-05)
(0 -9.62309e-24 -0.00626302)
(0 -0 -0.00548592)
(0 -0 -0.00478149)
(0 -0 -0.00414468)
(0 -0 -0.00357087)
(0 -0 -0.00305588)
(0 -0 -0.00259587)
(0 -0 -0.0021873)
(0 -0 -0.00182678)
(0 -0 -0.00151099)
(0 -0 -0.00123667)
(0 -0 -0.00100052)
(0 -0 -0.000799221)
(0 -0 -0.000629471)
(0 -0 -0.000487963)
(0 -0 -0.000371444)
(0 -0 -0.000276746)
(0 -0 -0.000200826)
(0 -0 -0.000140809)
(0 -0 -9.40134e-05)
(0 -0 -5.79869e-05)
(0 -0 -3.05193e-05)
(0 -0 -9.65544e-06)
(0 -0 6.30126e-06)
(0 -0 1.87904e-05)
(0 -0 2.89977e-05)
(0 -0 3.78583e-05)
(0 -0 4.60572e-05)
(0 -0 5.40286e-05)
(0 -0 6.19556e-05)
(0 -0 6.97765e-05)
(0 -0 7.72069e-05)
(0 -0 8.37825e-05)
(0 -0 8.89302e-05)
(0 -0 9.20628e-05)
(0 -0 9.26895e-05)
(0 -0 9.05204e-05)
(0 -0 8.55449e-05)
(0 -0 7.80612e-05)
(0 -0 6.8647e-05)
(0 -0 5.80741e-05)
(0 -0 4.71874e-05)
(0 -0 3.67684e-05)
(0 -0 2.74773e-05)
(0 -1.8758e-23 -0.0083577)
(0 -0 -0.00733275)
(0 -0 -0.00640191)
(0 -0 -0.00555808)
(0 -0 -0.00479537)
(0 -0 -0.00410875)
(0 -0 -0.00349377)
(0 -0 -0.00294626)
(0 -0 -0.00246218)
(0 -0 -0.00203749)
(0 -0 -0.00166807)
(0 -0 -0.00134973)
(0 -0 -0.00107816)
(0 -0 -0.00084902)
(0 -0 -0.000657931)
(0 -0 -0.000500558)
(0 -0 -0.000372655)
(0 -0 -0.000270134)
(0 -0 -0.000189117)
(0 -0 -0.000125987)
(0 -0 -7.74234e-05)
(0 -0 -4.04359e-05)
(0 -0 -1.23749e-05)
(0 -0 9.06013e-06)
(0 -0 2.58216e-05)
(0 -0 3.95184e-05)
(0 -0 5.14192e-05)
(0 -0 6.24536e-05)
(0 -0 7.32102e-05)
(0 -0 8.39359e-05)
(0 -0 9.45448e-05)
(0 -0 0.000104647)
(0 -0 0.000113608)
(0 -0 0.000120643)
(0 -0 0.000124949)
(0 -0 0.000125852)
(0 -0 0.000122952)
(0 -0 0.00011623)
(0 -0 0.000106088)
(0 -0 9.33098e-05)
(0 -0 7.8945e-05)
(0 -0 6.41443e-05)
(0 -0 4.99727e-05)
(0 -0 3.73316e-05)
(0 6.09434e-25 -0.010099)
(0 -0 -0.00888297)
(0 -0 -0.00777391)
(0 -0 -0.00676341)
(0 -0 -0.0058456)
(0 -0 -0.00501585)
(0 -0 -0.00427002)
(0 -0 -0.0036041)
(0 -0 -0.00301395)
(0 -0 -0.00249523)
(0 -0 -0.00204336)
(0 -0 -0.00165352)
(0 -0 -0.00132068)
(0 -0 -0.00103968)
(0 -0 -0.000805256)
(0 -0 -0.000612168)
(0 -0 -0.000455252)
(0 -0 -0.000329517)
(0 -0 -0.000230211)
(0 -0 -0.000152894)
(0 -0 -9.34853e-05)
(0 -0 -4.83018e-05)
(0 -0 -1.40794e-05)
(0 -0 1.20181e-05)
(0 -0 3.23991e-05)
(0 -0 4.90486e-05)
(0 -0 6.35325e-05)
(0 -0 7.69977e-05)
(0 -0 9.01695e-05)
(0 -0 0.000103351)
(0 -0 0.000116432)
(0 -0 0.000128927)
(0 -0 0.000140044)
(0 -0 0.000148806)
(0 -0 0.00015421)
(0 -0 0.000155413)
(0 -0 0.000151911)
(0 -0 0.000143672)
(0 -0 0.000131187)
(0 -0 0.000115421)
(0 -0 9.76751e-05)
(0 -0 7.93735e-05)
(0 -0 6.18382e-05)
(0 -0 4.61897e-05)
(0 -1.46731e-23 -0.0114623)
(0 -0 -0.0101194)
(0 -0 -0.00888337)
(0 -0 -0.00774709)
(0 -0 -0.00670822)
(0 -0 -0.00576429)
(0 -0 -0.00491255)
(0 -0 -0.00414978)
(0 -0 -0.00347222)
(0 -0 -0.00287559)
(0 -0 -0.00235512)
(0 -0 -0.00190563)
(0 -0 -0.00152157)
(0 -0 -0.00119718)
(0 -0 -0.000926494)
(0 -0 -0.000703544)
(0 -0 -0.000522412)
(0 -0 -0.000377351)
(0 -0 -0.000262878)
(0 -0 -0.000173857)
(0 -0 -0.000105561)
(0 -0 -5.37187e-05)
(0 -0 -1.45412e-05)
(0 -0 1.52657e-05)
(0 -0 3.85003e-05)
(0 -0 5.74697e-05)
(0 -0 7.3994e-05)
(0 -0 8.9406e-05)
(0 -0 0.000104548)
(0 -0 0.000119769)
(0 -0 0.000134939)
(0 -0 0.000149483)
(0 -0 0.000162474)
(0 -0 0.000172761)
(0 -0 0.000179164)
(0 -0 0.000180687)
(0 -0 0.000176729)
(0 -0 0.000167241)
(0 -0 0.000152784)
(0 -0 0.000134481)
(0 -0 0.000113842)
(0 -0 9.25339e-05)
(0 -0 7.21003e-05)
(0 -0 5.38538e-05)
(0 -7.48265e-24 -0.0124781)
(0 -0 -0.0110713)
(0 -0 -0.00974829)
(0 -0 -0.00851965)
(0 -0 -0.00738831)
(0 -0 -0.00635576)
(0 -0 -0.00542099)
(0 -0 -0.00458177)
(0 -0 -0.00383489)
(0 -0 -0.00317625)
(0 -0 -0.00260108)
(0 -0 -0.00210395)
(0 -0 -0.00167899)
(0 -0 -0.00131995)
(0 -0 -0.00102037)
(0 -0 -0.000773672)
(0 -0 -0.000573351)
(0 -0 -0.000413053)
(0 -0 -0.000286702)
(0 -0 -0.000188596)
(0 -0 -0.00011348)
(0 -0 -5.66025e-05)
(0 -0 -1.37443e-05)
(0 -0 1.87637e-05)
(0 -0 4.40395e-05)
(0 -0 6.46543e-05)
(0 -0 8.26364e-05)
(0 -0 9.94712e-05)
(0 -0 0.000116096)
(0 -0 0.000132899)
(0 -0 0.000149727)
(0 -0 0.000165936)
(0 -0 0.000180478)
(0 -0 0.000192058)
(0 -0 0.000199341)
(0 -0 0.000201199)
(0 -0 0.000196942)
(0 -0 0.000186497)
(0 -0 0.000170482)
(0 -0 0.000150139)
(0 -0 0.000127155)
(0 -0 0.000103392)
(0 -0 8.05816e-05)
(0 -0 6.01958e-05)
(0 -0 -0.0133171)
(0 -0 -0.0118213)
(0 -0 -0.0104184)
(0 -0 -0.00911305)
(0 -0 -0.00790844)
(0 -0 -0.00680652)
(0 -0 -0.00580718)
(0 -0 -0.00490871)
(0 -0 -0.0041082)
(0 -0 -0.00340171)
(0 -0 -0.00278439)
(0 -0 -0.00225066)
(0 -0 -0.00179437)
(0 -0 -0.0014089)
(0 -0 -0.00108737)
(0 -0 -0.000822774)
(0 -0 -0.000608106)
(0 -0 -0.000436538)
(0 -0 -0.000301524)
(0 -0 -0.000196912)
(0 -0 -0.00011703)
(0 -0 -5.67428e-05)
(0 -0 -1.1492e-05)
(0 -0 2.26883e-05)
(0 -0 4.91687e-05)
(0 -0 7.07288e-05)
(0 -0 8.9561e-05)
(0 -0 0.000107271)
(0 -0 0.00012487)
(0 -0 0.000142776)
(0 -0 0.00016082)
(0 -0 0.000178295)
(0 -0 0.000194058)
(0 -0 0.00020669)
(0 -0 0.000214731)
(0 -0 0.000216934)
(0 -0 0.000212532)
(0 -0 0.000201424)
(0 -0 0.00018426)
(0 -0 0.000162376)
(0 -0 0.000137593)
(0 -0 0.000111928)
(0 -0 8.72624e-05)
(0 -0 6.52041e-05)
(0 -0 -0.0139536)
(0 -0 -0.0123848)
(0 -0 -0.0109144)
(0 -0 -0.00954639)
(0 -0 -0.00828417)
(0 -0 -0.00712917)
(0 -0 -0.0060813)
(0 -0 -0.00513891)
(0 -0 -0.00429906)
(0 -0 -0.00355775)
(0 -0 -0.00290999)
(0 -0 -0.00235002)
(0 -0 -0.00187143)
(0 -0 -0.0014673)
(0 -0 -0.00113042)
(0 -0 -0.000853433)
(0 -0 -0.000628969)
(0 -0 -0.000449837)
(0 -0 -0.000309136)
(0 -0 -0.000200381)
(0 -0 -0.000117587)
(0 -0 -5.5337e-05)
(0 -0 -8.82218e-06)
(0 -0 2.61416e-05)
(0 -0 5.31098e-05)
(0 -0 7.50142e-05)
(0 -0 9.41676e-05)
(0 -0 0.000112263)
(0 -0 0.00013037)
(0 -0 0.000148925)
(0 -0 0.000167749)
(0 -0 0.000186093)
(0 -0 0.00020274)
(0 -0 0.000216181)
(0 -0 0.000224853)
(0 -0 0.00022742)
(0 -0 0.000223045)
(0 -0 0.000211596)
(0 -0 0.000193736)
(0 -0 0.000170858)
(0 -0 0.000144875)
(0 -0 0.000117916)
(0 -0 9.1968e-05)
(0 -0 6.87508e-05)
(0 -0 -0.0143959)
(0 -0 -0.0127609)
(0 -0 -0.0112345)
(0 -0 -0.00981897)
(0 -0 -0.00851503)
(0 -0 -0.00732316)
(0 -0 -0.00624273)
(0 -0 -0.00527166)
(0 -0 -0.00440672)
(0 -0 -0.00364364)
(0 -0 -0.00297723)
(0 -0 -0.00240147)
(0 -0 -0.00190971)
(0 -0 -0.0014948)
(0 -0 -0.00114927)
(0 -0 -0.000865495)
(0 -0 -0.00063586)
(0 -0 -0.000452924)
(0 -0 -0.000309553)
(0 -0 -0.000199038)
(0 -0 -0.000115197)
(0 -0 -5.24317e-05)
(0 -0 -5.77577e-06)
(0 -0 2.90906e-05)
(0 -0 5.5837e-05)
(0 -0 7.74888e-05)
(0 -0 9.64327e-05)
(0 -0 0.000114417)
(0 -0 0.000132544)
(0 -0 0.000151269)
(0 -0 0.000170408)
(0 -0 0.000189184)
(0 -0 0.000206338)
(0 -0 0.000220302)
(0 -0 0.000229446)
(0 -0 0.000232368)
(0 -0 0.000228176)
(0 -0 0.000216705)
(0 -0 0.000198612)
(0 -0 0.000175312)
(0 -0 0.000148762)
(0 -0 0.000121153)
(0 -0 9.45364e-05)
(0 -0 7.07052e-05)
(0 -0 -0.014631)
(0 -0 -0.0129514)
(0 -0 -0.0113887)
(0 -0 -0.00994307)
(0 -0 -0.00861414)
(0 -0 -0.00740141)
(0 -0 -0.00630353)
(0 -0 -0.00531789)
(0 -0 -0.00444086)
(0 -0 -0.00366784)
(0 -0 -0.00299335)
(0 -0 -0.00241116)
(0 -0 -0.00191439)
(0 -0 -0.0014957)
(0 -0 -0.00114744)
(0 -0 -0.000861825)
(0 -0 -0.000631082)
(0 -0 -0.000447629)
(0 -0 -0.000304201)
(0 -0 -0.00019398)
(0 -0 -0.000110681)
(0 -0 -4.86198e-05)
(0 -0 -2.75796e-06)
(0 -0 3.12849e-05)
(0 -0 5.72278e-05)
(0 -0 7.81363e-05)
(0 -0 9.64285e-05)
(0 -0 0.000113877)
(0 -0 0.000131603)
(0 -0 0.00015007)
(0 -0 0.000169096)
(0 -0 0.0001879)
(0 -0 0.000205205)
(0 -0 0.000219417)
(0 -0 0.000228871)
(0 -0 0.000232127)
(0 -0 0.000228253)
(0 -0 0.000217049)
(0 -0 0.000199149)
(0 -0 0.000175956)
(0 -0 0.00014943)
(0 -0 0.000121777)
(0 -0 9.50691e-05)
(0 -0 7.1138e-05)
(0 -0 -0.0146558)
(0 -0 -0.0129588)
(0 -0 -0.0113827)
(0 -0 -0.0099273)
(0 -0 -0.00859155)
(0 -0 -0.00737439)
(0 -0 -0.00627399)
(0 -0 -0.00528731)
(0 -0 -0.00441037)
(0 -0 -0.00363828)
(0 -0 -0.00296533)
(0 -0 -0.0023851)
(0 -0 -0.00189057)
(0 -0 -0.00147428)
(0 -0 -0.00112848)
(0 -0 -0.000845319)
(0 -0 -0.000616961)
(0 -0 -0.000435788)
(0 -0 -0.000294509)
(0 -0 -0.000186287)
(0 -0 -0.000104829)
(0 -0 -4.4453e-05)
(0 -0 -1.22356e-07)
(0 -0 3.25355e-05)
(0 -0 5.72311e-05)
(0 -0 7.70217e-05)
(0 -0 9.43196e-05)
(0 -0 0.000110895)
(0 -0 0.00012787)
(0 -0 0.000145716)
(0 -0 0.00016426)
(0 -0 0.000182731)
(0 -0 0.000199862)
(0 -0 0.000214065)
(0 -0 0.000223672)
(0 -0 0.000227228)
(0 -0 0.000223778)
(0 -0 0.000213089)
(0 -0 0.000195755)
(0 -0 0.000173139)
(0 -0 0.000147167)
(0 -0 0.000120016)
(0 -0 9.37377e-05)
(0 -0 7.01736e-05)
(0 -0 -0.0144764)
(0 -0 -0.0127895)
(0 -0 -0.0112241)
(0 -0 -0.00978019)
(0 -0 -0.00845636)
(0 -0 -0.0072514)
(0 -0 -0.00616322)
(0 -0 -0.00518855)
(0 -0 -0.00432321)
(0 -0 -0.00356214)
(0 -0 -0.00289951)
(0 -0 -0.00232881)
(0 -0 -0.00184297)
(0 -0 -0.0014345)
(0 -0 -0.00109567)
(0 -0 -0.000818634)
(0 -0 -0.000595625)
(0 -0 -0.000419072)
(0 -0 -0.000281755)
(0 -0 -0.00017691)
(0 -0 -9.83212e-05)
(0 -0 -4.03824e-05)
(0 -0 1.86917e-06)
(0 -0 3.27385e-05)
(0 -0 5.58761e-05)
(0 -0 7.42888e-05)
(0 -0 9.03497e-05)
(0 -0 0.000105803)
(0 -0 0.00012176)
(0 -0 0.000138693)
(0 -0 0.000156447)
(0 -0 0.000174279)
(0 -0 0.000190954)
(0 -0 0.000204917)
(0 -0 0.000214526)
(0 -0 0.000218337)
(0 -0 0.000215386)
(0 -0 0.000205411)
(0 -0 0.000188953)
(0 -0 0.000167312)
(0 -0 0.000142345)
(0 -0 0.000116164)
(0 -0 9.07673e-05)
(0 -0 6.7976e-05)
(0 -0 -0.0141067)
(0 -0 -0.0124556)
(0 -0 -0.0109242)
(0 -0 -0.00951228)
(0 -0 -0.00821859)
(0 -0 -0.00704186)
(0 -0 -0.00598)
(0 -0 -0.00502968)
(0 -0 -0.00418667)
(0 -0 -0.00344591)
(0 -0 -0.00280157)
(0 -0 -0.00224717)
(0 -0 -0.00177572)
(0 -0 -0.00137981)
(0 -0 -0.00105183)
(0 -0 -0.000784061)
(0 -0 -0.000568882)
(0 -0 -0.000398878)
(0 -0 -0.000266988)
(0 -0 -0.000166605)
(0 -0 -9.16702e-05)
(0 -0 -3.67209e-05)
(0 -0 3.07018e-06)
(0 -0 3.1887e-05)
(0 -0 5.3275e-05)
(0 -0 7.01533e-05)
(0 -0 8.48277e-05)
(0 -0 9.89959e-05)
(0 -0 0.000113746)
(0 -0 0.00012955)
(0 -0 0.000146275)
(0 -0 0.000163218)
(0 -0 0.000179199)
(0 -0 0.000192721)
(0 -0 0.000202193)
(0 -0 0.000206205)
(0 -0 0.000203797)
(0 -0 0.000194681)
(0 -0 0.00017934)
(0 -0 0.00015899)
(0 -0 0.000135393)
(0 -0 0.000110564)
(0 -0 8.64208e-05)
(0 -0 6.47376e-05)
(0 -0 -0.0135671)
(0 -0 -0.0119749)
(0 -0 -0.0104982)
(0 -0 -0.00913691)
(0 -0 -0.00788998)
(0 -0 -0.00675618)
(0 -0 -0.00573352)
(0 -0 -0.00481876)
(0 -0 -0.00400779)
(0 -0 -0.00329567)
(0 -0 -0.0026767)
(0 -0 -0.00214457)
(0 -0 -0.00169247)
(0 -0 -0.0013132)
(0 -0 -0.000999364)
(0 -0 -0.000743491)
(0 -0 -0.000538193)
(0 -0 -0.000376302)
(0 -0 -0.000250999)
(0 -0 -0.000155915)
(0 -0 -8.52119e-05)
(0 -0 -3.36364e-05)
(0 -0 3.45089e-06)
(0 -0 3.00665e-05)
(0 -0 4.96117e-05)
(0 -0 6.48869e-05)
(0 -0 7.81056e-05)
(0 -0 9.0902e-05)
(0 -0 0.00010433)
(0 -0 0.000118859)
(0 -0 0.000134382)
(0 -0 0.000150247)
(0 -0 0.000165347)
(0 -0 0.000178261)
(0 -0 0.000187472)
(0 -0 0.000191621)
(0 -0 0.000189769)
(0 -0 0.000181605)
(0 -0 0.00016755)
(0 -0 0.000148724)
(0 -0 0.00012677)
(0 -0 0.000103586)
(0 -0 8.09818e-05)
(0 -0 6.06672e-05)
(0 -0 -0.0128832)
(0 -0 -0.0113691)
(0 -0 -0.0099647)
(0 -0 -0.00867009)
(0 -0 -0.00748419)
(0 -0 -0.00640599)
(0 -0 -0.00543367)
(0 -0 -0.00456419)
(0 -0 -0.00379365)
(0 -0 -0.00311733)
(0 -0 -0.0025298)
(0 -0 -0.00202502)
(0 -0 -0.00159646)
(0 -0 -0.00123725)
(0 -0 -0.000940296)
(0 -0 -0.000698467)
(0 -0 -0.000504702)
(0 -0 -0.000352161)
(0 -0 -0.000234342)
(0 -0 -0.000145179)
(0 -0 -7.91179e-05)
(0 -0 -3.11653e-05)
(0 -0 3.08317e-06)
(0 -0 2.7438e-05)
(0 -0 4.51239e-05)
(0 -0 5.87961e-05)
(0 -0 7.05555e-05)
(0 -0 8.19575e-05)
(0 -0 9.40133e-05)
(0 -0 0.000107186)
(0 -0 0.000121396)
(0 -0 0.000136053)
(0 -0 0.000150132)
(0 -0 0.000162306)
(0 -0 0.000171147)
(0 -0 0.000175367)
(0 -0 0.000174057)
(0 -0 0.000166889)
(0 -0 0.000154222)
(0 -0 0.000137069)
(0 -0 0.000116942)
(0 -0 9.56039e-05)
(0 -0 7.47391e-05)
(0 -0 5.59786e-05)
(0 -0 -0.0120839)
(0 -0 -0.0106631)
(0 -0 -0.00934503)
(0 -0 -0.00812977)
(0 -0 -0.00701637)
(0 -0 -0.00600401)
(0 -0 -0.00509107)
(0 -0 -0.00427478)
(0 -0 -0.00355149)
(0 -0 -0.00291681)
(0 -0 -0.00236565)
(0 -0 -0.00189232)
(0 -0 -0.00149068)
(0 -0 -0.00115425)
(0 -0 -0.000876355)
(0 -0 -0.000650256)
(0 -0 -0.000469302)
(0 -0 -0.000327049)
(0 -0 -0.000217377)
(0 -0 -0.000134577)
(0 -0 -7.34285e-05)
(0 -0 -2.92422e-05)
(0 -0 2.11472e-06)
(0 -0 2.42148e-05)
(0 -0 4.00802e-05)
(0 -0 5.21997e-05)
(0 -0 6.2545e-05)
(0 -0 7.25811e-05)
(0 -0 8.32679e-05)
(0 -0 9.50586e-05)
(0 -0 0.000107903)
(0 -0 0.000121274)
(0 -0 0.000134238)
(0 -0 0.000145574)
(0 -0 0.000153959)
(0 -0 0.00015818)
(0 -0 0.000157374)
(0 -0 0.000151203)
(0 -0 0.000139961)
(0 -0 0.000124554)
(0 -0 0.000106355)
(0 -0 8.69776e-05)
(0 -0 6.79725e-05)
(0 -0 5.08797e-05)
(0 -0 -0.0111993)
(0 -0 -0.00988302)
(0 -0 -0.00866148)
(0 -0 -0.00753494)
(0 -0 -0.00650253)
(0 -0 -0.00556362)
(0 -0 -0.00471681)
(0 -0 -0.00395961)
(0 -0 -0.0032887)
(0 -0 -0.00270004)
(0 -0 -0.00218894)
(0 -0 -0.00175014)
(0 -0 -0.00137794)
(0 -0 -0.00106632)
(0 -0 -0.000809074)
(0 -0 -0.000599932)
(0 -0 -0.000432707)
(0 -0 -0.000301403)
(0 -0 -0.000200328)
(0 -0 -0.000124175)
(0 -0 -6.80945e-05)
(0 -0 -2.77345e-05)
(0 -0 7.38251e-07)
(0 -0 2.06348e-05)
(0 -0 3.47552e-05)
(0 -0 4.54059e-05)
(0 -0 5.44167e-05)
(0 -0 6.31525e-05)
(0 -0 7.25156e-05)
(0 -0 8.29444e-05)
(0 -0 9.44167e-05)
(0 -0 0.000106472)
(0 -0 0.000118271)
(0 -0 0.000128707)
(0 -0 0.000136564)
(0 -0 0.000140721)
(0 -0 0.000140364)
(0 -0 0.000135151)
(0 -0 0.00012532)
(0 -0 0.000111664)
(0 -0 9.54172e-05)
(0 -0 7.804e-05)
(0 -0 6.0941e-05)
(0 -0 4.55639e-05)
(0 -0 -0.0102597)
(0 -0 -0.00905484)
(0 -0 -0.00793643)
(0 -0 -0.00690465)
(0 -0 -0.00595875)
(0 -0 -0.00509824)
(0 -0 -0.00432199)
(0 -0 -0.00362777)
(0 -0 -0.00301262)
(0 -0 -0.00247288)
(0 -0 -0.00200428)
(0 -0 -0.00160203)
(0 -0 -0.00126092)
(0 -0 -0.000975424)
(0 -0 -0.000739852)
(0 -0 -0.000548447)
(0 -0 -0.00039552)
(0 -0 -0.000275561)
(0 -0 -0.000183337)
(0 -0 -0.000113974)
(0 -0 -6.30196e-05)
(0 -0 -2.64794e-05)
(0 -0 -8.39248e-07)
(0 -0 1.6935e-05)
(0 -0 2.9408e-05)
(0 -0 3.86934e-05)
(0 -0 4.64706e-05)
(0 -0 5.39969e-05)
(0 -0 6.21116e-05)
(0 -0 7.12347e-05)
(0 -0 8.13688e-05)
(0 -0 9.21183e-05)
(0 -0 0.00010274)
(0 -0 0.000112241)
(0 -0 0.000119521)
(0 -0 0.000123554)
(0 -0 0.000123578)
(0 -0 0.000119259)
(0 -0 0.000110777)
(0 -0 9.88224e-05)
(0 -0 8.44882e-05)
(0 -0 6.90836e-05)
(0 -0 5.38742e-05)
(0 -0 4.02038e-05)
(0 -0 -0.00929315)
(0 -0 -0.00820326)
(0 -0 -0.00719116)
(0 -0 -0.00625709)
(0 -0 -0.00540042)
(0 -0 -0.0046208)
(0 -0 -0.00391732)
(0 -0 -0.00328804)
(0 -0 -0.00273033)
(0 -0 -0.00224095)
(0 -0 -0.00181607)
(0 -0 -0.00145137)
(0 -0 -0.00114215)
(0 -0 -0.000883413)
(0 -0 -0.000669993)
(0 -0 -0.00049667)
(0 -0 -0.000358277)
(0 -0 -0.000249809)
(0 -0 -0.00016651)
(0 -0 -0.000103954)
(0 -0 -5.80964e-05)
(0 -0 -2.5315e-05)
(0 -0 -2.42284e-06)
(0 -0 1.33291e-05)
(0 -0 2.42641e-05)
(0 -0 3.22969e-05)
(0 -0 3.89518e-05)
(0 -0 4.53744e-05)
(0 -0 5.23366e-05)
(0 -0 6.02357e-05)
(0 -0 6.90957e-05)
(0 -0 7.85824e-05)
(0 -0 8.80465e-05)
(0 -0 9.66071e-05)
(0 -0 0.000103279)
(0 -0 0.000107132)
(0 -0 0.000107466)
(0 -0 0.000103953)
(0 -0 9.67265e-05)
(0 -0 8.63786e-05)
(0 -0 7.38672e-05)
(0 -0 6.03546e-05)
(0 -0 4.69659e-05)
(0 -0 3.49463e-05)
(0 -0 -0.00832546)
(0 -0 -0.00735062)
(0 -0 -0.00644502)
(0 -0 -0.00560888)
(0 -0 -0.00484165)
(0 -0 -0.00414315)
(0 -0 -0.00351265)
(0 -0 -0.00294849)
(0 -0 -0.0024484)
(0 -0 -0.00200951)
(0 -0 -0.00162843)
(0 -0 -0.00130133)
(0 -0 -0.00102401)
(0 -0 -0.000792016)
(0 -0 -0.00060071)
(0 -0 -0.000445411)
(0 -0 -0.000321479)
(0 -0 -0.000224415)
(0 -0 -0.000149947)
(0 -0 -9.40972e-05)
(0 -0 -5.32332e-05)
(0 -0 -2.4103e-05)
(0 -0 -3.84889e-06)
(0 -0 9.99282e-06)
(0 -0 1.95032e-05)
(0 -0 2.63981e-05)
(0 -0 3.20449e-05)
(0 -0 3.74759e-05)
(0 -0 4.33929e-05)
(0 -0 5.0167e-05)
(0 -0 5.78389e-05)
(0 -0 6.61308e-05)
(0 -0 7.44818e-05)
(0 -0 8.21193e-05)
(0 -0 8.81696e-05)
(0 -0 9.17994e-05)
(0 -0 9.23686e-05)
(0 -0 8.95632e-05)
(0 -0 8.34753e-05)
(0 -0 7.46068e-05)
(0 -0 6.37905e-05)
(0 -0 5.20484e-05)
(0 -0 4.03719e-05)
(0 -0 2.99105e-05)
(0 -0 -0.00737868)
(0 -0 -0.0065163)
(0 -0 -0.00571483)
(0 -0 -0.0049745)
(0 -0 -0.00429481)
(0 -0 -0.00367571)
(0 -0 -0.00311668)
(0 -0 -0.00261631)
(0 -0 -0.00217265)
(0 -0 -0.0017832)
(0 -0 -0.00144502)
(0 -0 -0.00115473)
(0 -0 -0.00090864)
(0 -0 -0.0007028)
(0 -0 -0.000533112)
(0 -0 -0.000395417)
(0 -0 -0.000285593)
(0 -0 -0.000199641)
(0 -0 -0.00013376)
(0 -0 -8.44123e-05)
(0 -0 -4.83696e-05)
(0 -0 -2.27431e-05)
(0 -0 -4.99659e-06)
(0 -0 7.05445e-06)
(0 -0 1.5254e-05)
(0 -0 2.11222e-05)
(0 -0 2.58726e-05)
(0 -0 3.04244e-05)
(0 -0 3.5408e-05)
(0 -0 4.11656e-05)
(0 -0 4.77497e-05)
(0 -0 5.49327e-05)
(0 -0 6.22351e-05)
(0 -0 6.89861e-05)
(0 -0 7.44179e-05)
(0 -0 7.77901e-05)
(0 -0 7.85238e-05)
(0 -0 7.63216e-05)
(0 -0 7.12419e-05)
(0 -0 6.37057e-05)
(0 -0 5.44308e-05)
(0 -0 4.43099e-05)
(0 -0 3.42087e-05)
(0 -0 2.51868e-05)
(0 -0 -0.00647102)
(0 -0 -0.00571627)
(0 -0 -0.0050145)
(0 -0 -0.00436594)
(0 -0 -0.00377015)
(0 -0 -0.0032272)
(0 -0 -0.00273671)
(0 -0 -0.00229753)
(0 -0 -0.00190801)
(0 -0 -0.00156601)
(0 -0 -0.00126898)
(0 -0 -0.00101402)
(0 -0 -0.000797885)
(0 -0 -0.000617136)
(0 -0 -0.000468178)
(0 -0 -0.000347359)
(0 -0 -0.000251054)
(0 -0 -0.000175741)
(0 -0 -0.000118073)
(0 -0 -7.49337e-05)
(0 -0 -4.34825e-05)
(0 -0 -2.11779e-05)
(0 -0 -5.79175e-06)
(0 -0 4.59295e-06)
(0 -0 1.15928e-05)
(0 -0 1.65402e-05)
(0 -0 2.04996e-05)
(0 -0 2.42802e-05)
(0 -0 2.84417e-05)
(0 -0 3.32945e-05)
(0 -0 3.88988e-05)
(0 -0 4.50701e-05)
(0 -0 5.14025e-05)
(0 -0 5.73181e-05)
(0 -0 6.21481e-05)
(0 -0 6.52393e-05)
(0 -0 6.6073e-05)
(0 -0 6.43709e-05)
(0 -0 6.01641e-05)
(0 -0 5.38029e-05)
(0 -0 4.59019e-05)
(0 -0 3.72362e-05)
(0 -0 2.85562e-05)
(0 -0 2.08385e-05)
(0 -0 -0.00561661)
(0 -0 -0.00496295)
(0 -0 -0.00435489)
(0 -0 -0.00379262)
(0 -0 -0.00327576)
(0 -0 -0.00280446)
(0 -0 -0.0023785)
(0 -0 -0.00199695)
(0 -0 -0.00165841)
(0 -0 -0.00136111)
(0 -0 -0.00110287)
(0 -0 -0.000881177)
(0 -0 -0.00069327)
(0 -0 -0.000536161)
(0 -0 -0.000406735)
(0 -0 -0.000301816)
(0 -0 -0.000218246)
(0 -0 -0.000152954)
(0 -0 -0.000103019)
(0 -0 -6.57215e-05)
(0 -0 -3.85836e-05)
(0 -0 -1.9391e-05)
(0 -0 -6.20461e-06)
(0 -0 2.64111e-06)
(0 -0 8.54894e-06)
(0 -0 1.2674e-05)
(0 -0 1.59398e-05)
(0 -0 1.90503e-05)
(0 -0 2.2496e-05)
(0 -0 2.65547e-05)
(0 -0 3.12894e-05)
(0 -0 3.65521e-05)
(0 -0 4.20015e-05)
(0 -0 4.71435e-05)
(0 -0 5.13993e-05)
(0 -0 5.41969e-05)
(0 -0 5.50745e-05)
(0 -0 5.37749e-05)
(0 -0 5.0308e-05)
(0 -0 4.49632e-05)
(0 -0 3.82643e-05)
(0 -0 3.08812e-05)
(0 -0 2.34606e-05)
(0 -0 1.69036e-05)
(0 -0 -0.00482559)
(0 -0 -0.00426531)
(0 -0 -0.00374384)
(0 -0 -0.00326136)
(0 -0 -0.0028175)
(0 -0 -0.00241251)
(0 -0 -0.00204628)
(0 -0 -0.00171808)
(0 -0 -0.00142678)
(0 -0 -0.00117088)
(0 -0 -0.000948558)
(0 -0 -0.000757704)
(0 -0 -0.000595953)
(0 -0 -0.000460754)
(0 -0 -0.000349433)
(0 -0 -0.000259254)
(0 -0 -0.000187493)
(0 -0 -0.000131494)
(0 -0 -8.87313e-05)
(0 -0 -5.68519e-05)
(0 -0 -3.37124e-05)
(0 -0 -1.74003e-05)
(0 -0 -6.24314e-06)
(0 -0 1.19252e-06)
(0 -0 6.11177e-06)
(0 -0 9.50562e-06)
(0 -0 1.21663e-05)
(0 -0 1.46989e-05)
(0 -0 1.75279e-05)
(0 -0 2.08979e-05)
(0 -0 2.48711e-05)
(0 -0 2.93292e-05)
(0 -0 3.39868e-05)
(0 -0 3.84238e-05)
(0 -0 4.21418e-05)
(0 -0 4.46427e-05)
(0 -0 4.55181e-05)
(0 -0 4.45323e-05)
(0 -0 4.16798e-05)
(0 -0 3.71984e-05)
(0 -0 3.15334e-05)
(0 -0 2.52621e-05)
(0 -0 1.89389e-05)
(0 -0 1.33983e-05)
(0 -0 -0.00410445)
(0 -0 -0.00362906)
(0 -0 -0.00318638)
(0 -0 -0.00277652)
(0 -0 -0.00239916)
(0 -0 -0.00205458)
(0 -0 -0.00174281)
(0 -0 -0.00146325)
(0 -0 -0.00121501)
(0 -0 -0.000996878)
(0 -0 -0.000807333)
(0 -0 -0.000644612)
(0 -0 -0.000506729)
(0 -0 -0.000391526)
(0 -0 -0.000296732)
(0 -0 -0.000220013)
(0 -0 -0.000159039)
(0 -0 -0.000111534)
(0 -0 -7.53297e-05)
(0 -0 -4.84066e-05)
(0 -0 -2.89256e-05)
(0 -0 -1.52479e-05)
(0 -0 -5.94338e-06)
(0 -0 2.10925e-07)
(0 -0 4.24038e-06)
(0 -0 6.9865e-06)
(0 -0 9.12129e-06)
(0 -0 1.11588e-05)
(0 -0 1.34613e-05)
(0 -0 1.62405e-05)
(0 -0 1.95548e-05)
(0 -0 2.33096e-05)
(0 -0 2.72668e-05)
(0 -0 3.10703e-05)
(0 -0 3.4293e-05)
(0 -0 3.65028e-05)
(0 -0 3.73399e-05)