/*--------------------------------*- C++ -*----------------------------------*\
| =========                 |                                                 |
| \\      /  F ield         | OpenFOAM: The Open Source CFD Toolbox           |
|  \\    /   O peration     | Version:  2412                                  |
|   \\  /    A nd           | Website:  www.openfoam.com                      |
|    \\/     M anipulation  |                                                 |
\*---------------------------------------------------------------------------*/
FoamFile
{
    version     2.0;
    format      ascii;
    arch        "LSB;label=32;scalar=64";
    class       volScalarField;
    location    "21";
    object      p;
}
// * * * * * * * * * * * * * * * * * * * * * * * * * * * * * * * * * * * * * //

dimensions      [0 2 -2 0 0 0 0];

internalField   nonuniform List<scalar> 
5285
(
-0.00101288
-0.000880138
-0.00075604
-0.000640887
-0.000534811
-0.000437857
-0.000349942
-0.000270861
-0.000200313
-0.000137914
-8.32214e-05
-3.57414e-05
5.04915e-06
3.96922e-05
6.87356e-05
9.27224e-05
0.000112182
0.000127625
0.000139532
0.000148357
0.000154518
0.0001584
0.000160351
0.000160686
0.000159683
0.000157588
0.000154617
0.000150956
-0.00103054
-0.000896882
-0.000771861
-0.000655767
-0.000548748
-0.000450857
-0.000362025
-0.000282054
-0.000210649
-0.000147433
-9.19654e-05
-4.37557e-05
-2.28147e-06
3.2999e-05
6.26341e-05
8.71682e-05
0.000107133
0.000123038
0.000135371
0.000144584
0.0001511
0.000155306
0.000157552
0.000158155
0.000157395
0.000155522
0.000152751
0.000149274
-0.00106496
-0.000929578
-0.000802754
-0.000684858
-0.00057602
-0.000476319
-0.000385707
-0.000304005
-0.000230934
-0.000166125
-0.000109145
-5.95099e-05
-1.66985e-05
1.98299e-05
5.06244e-05
7.62316e-05
9.71857e-05
0.000114002
0.000127169
0.000137146
0.00014436
0.000149202
0.000152027
0.000153156
0.000152876
0.000151438
0.000149061
0.000145948
-0.0011143
-0.000976512
-0.000847175
-0.000726703
-0.000615298
-0.000513028
-0.000419884
-0.000335716
-0.000260264
-0.000193176
-0.00013403
-8.23481e-05
-3.7615e-05
7.08883e-07
3.31735e-05
6.03279e-05
8.27104e-05
0.000100841
0.000115214
0.000126296
0.00013452
0.000140282
0.000143946
0.000145838
0.000146251
0.000145442
0.000143637
0.000141052
-0.00103521
-0.000902908
-0.000779398
-0.000664896
-0.000559522
-0.000463296
-0.000376107
-0.00029772
-0.000227807
-0.000165961
-0.000111716
-6.45646e-05
-2.39709e-05
1.06139e-05
3.974e-05
6.39494e-05
8.37669e-05
9.96933e-05
0.000112201
0.00012173
0.000128686
0.000133438
0.000136321
0.000137634
0.000137643
0.000136582
0.000134681
-0.00110475
-0.000969525
-0.000842855
-0.000725075
-0.000616315
-0.000516655
-0.000426034
-0.000344257
-0.000271029
-0.000205972
-0.000148639
-9.85411e-05
-5.51528e-05
-1.79328e-05
1.36658e-05
4.01842e-05
6.21488e-05
8.00645e-05
9.44084e-05
0.000105627
0.000114131
0.0001203
0.000124474
0.000126962
0.000128036
0.000127941
0.000126919
-0.0011849
-0.00104618
-0.000915734
-0.000793996
-0.000681207
-0.000577474
-0.000482796
-0.000397027
-0.000319912
-0.000251103
-0.000190181
-0.000136674
-9.00691e-05
-4.98329e-05
-1.54209e-05
1.3709e-05
3.80871e-05
5.82242e-05
7.46053e-05
8.76853e-05
9.78861e-05
0.000105595
0.000111165
0.000114913
0.000117121
0.000118049
0.000117934
0.000146757
0.000142057
0.000136969
0.000131607
0.00012605
0.000120368
0.000114627
0.000108879
0.00010317
9.754e-05
9.20203e-05
8.66371e-05
8.14115e-05
7.63595e-05
7.14934e-05
6.68218e-05
6.23502e-05
5.80814e-05
5.40163e-05
5.01537e-05
4.6491e-05
4.30245e-05
3.97496e-05
3.6661e-05
3.37527e-05
3.1019e-05
2.84534e-05
2.60498e-05
2.3802e-05
2.17038e-05
1.97491e-05
1.79318e-05
1.62457e-05
1.46847e-05
1.32424e-05
1.19126e-05
1.0689e-05
9.56531e-06
8.53525e-06
7.59278e-06
6.73206e-06
5.94753e-06
5.23382e-06
4.58476e-06
0.000145271
0.000140682
0.000135696
0.00013044
0.000124985
0.000119398
0.000113744
0.000108077
0.000102442
9.68797e-05
9.14217e-05
8.60947e-05
8.09202e-05
7.59148e-05
7.10909e-05
6.64576e-05
6.20208e-05
5.77836e-05
5.37471e-05
4.99104e-05
4.62713e-05
4.28262e-05
3.95707e-05
3.64996e-05
3.36074e-05
3.08882e-05
2.83358e-05
2.59442e-05
2.37072e-05
2.16189e-05
1.96731e-05
1.78638e-05
1.6185e-05
1.46304e-05
1.3194e-05
1.18695e-05
1.06505e-05
9.53099e-06
8.50467e-06
7.56553e-06
6.7078e-06
5.92596e-06
5.21466e-06
4.56774e-06
0.000142315
0.000137947
0.000133169
0.000128125
0.000122872
0.000117472
0.000111991
0.000106483
0.000100995
9.55669e-05
9.02313e-05
8.50159e-05
7.99428e-05
7.50297e-05
7.02897e-05
6.57325e-05
6.13648e-05
5.71904e-05
5.32108e-05
4.94257e-05
4.58335e-05
4.24309e-05
3.92141e-05
3.61781e-05
3.33177e-05
3.06274e-05
2.81013e-05
2.57336e-05
2.35183e-05
2.14496e-05
1.95215e-05
1.77282e-05
1.60638e-05
1.45222e-05
1.30974e-05
1.17833e-05
1.05737e-05
9.46247e-06
8.44359e-06
7.51113e-06
6.65938e-06
5.8829e-06
5.17639e-06
4.5338e-06
0.000137924
0.000133889
0.000129425
0.000124697
0.000119741
0.000114618
0.000109392
0.00010412
9.88483e-05
9.36177e-05
8.84628e-05
8.34123e-05
7.84894e-05
7.37129e-05
6.90972e-05
6.46531e-05
6.03879e-05
5.63066e-05
5.24116e-05
4.87033e-05
4.51808e-05
4.18415e-05
3.86821e-05
3.56983e-05
3.28854e-05
3.02382e-05
2.77513e-05
2.54191e-05
2.32361e-05
2.11966e-05
1.9295e-05
1.75256e-05
1.58826e-05
1.43604e-05
1.2953e-05
1.16544e-05
1.04587e-05
9.35996e-06
8.35223e-06
7.42975e-06
6.58694e-06
5.81846e-06
5.11913e-06
4.483e-06
0.000132155
0.000128561
0.00012452
0.000120207
0.00011564
0.000110877
0.000105984
0.000101018
9.60277e-05
9.10551e-05
8.61361e-05
8.1301e-05
7.65747e-05
7.19772e-05
6.75245e-05
6.32286e-05
5.90982e-05
5.51394e-05
5.13557e-05
4.77485e-05
4.43178e-05
4.1062e-05
3.79784e-05
3.50635e-05
3.23132e-05
2.97229e-05
2.72877e-05
2.50025e-05
2.28622e-05
2.08613e-05
1.89946e-05
1.72568e-05
1.56423e-05
1.41457e-05
1.27612e-05
1.14833e-05
1.0306e-05
9.22381e-06
8.23087e-06
7.32163e-06
6.49069e-06
5.73285e-06
5.04306e-06
4.41549e-06
0.000125078
0.000122041
0.000118531
0.000114724
0.000110628
0.000106301
0.000101811
9.72165e-05
9.25678e-05
8.79085e-05
8.32766e-05
7.8704e-05
7.42175e-05
6.98389e-05
6.55857e-05
6.14714e-05
5.75064e-05
5.3698e-05
5.0051e-05
4.65682e-05
4.32506e-05
4.00975e-05
3.71074e-05
3.42775e-05
3.16045e-05
2.90845e-05
2.67132e-05
2.44861e-05
2.23984e-05
2.04453e-05
1.86219e-05
1.69231e-05
1.53438e-05
1.38789e-05
1.25229e-05
1.12705e-05
1.01162e-05
9.05447e-06
8.07989e-06
7.18712e-06
6.37094e-06
5.62631e-06
4.94838e-06
4.33147e-06
0.000116786
0.000114422
0.000111551
0.000108329
0.000104775
0.000100951
9.69263e-05
9.27611e-05
8.85077e-05
8.42118e-05
7.99134e-05
7.56465e-05
7.14397e-05
6.73167e-05
6.32968e-05
5.93954e-05
5.56244e-05
5.19927e-05
4.85066e-05
4.51703e-05
4.19859e-05
3.89541e-05
3.60743e-05
3.33449e-05
3.07632e-05
2.83264e-05
2.60307e-05
2.38722e-05
2.18469e-05
1.99504e-05
1.81782e-05
1.65258e-05
1.49883e-05
1.3561e-05
1.22389e-05
1.10168e-05
9.88976e-06
8.85244e-06
7.89974e-06
7.02658e-06
6.22798e-06
5.49912e-06
4.83533e-06
4.23115e-06
0.000107114
0.000105588
0.00010349
0.000100937
9.79994e-05
9.47474e-05
9.12532e-05
8.75785e-05
8.37779e-05
7.98994e-05
7.5985e-05
7.20708e-05
6.81874e-05
6.43607e-05
6.06117e-05
5.69579e-05
5.34129e-05
4.99874e-05
4.66893e-05
4.35243e-05
4.04959e-05
3.76063e-05
3.48559e-05
3.22443e-05
2.977e-05
2.74309e-05
2.52241e-05
2.31465e-05
2.11946e-05
1.93648e-05
1.7653e-05
1.60551e-05
1.4567e-05
1.31841e-05
1.1902e-05
1.07159e-05
9.62101e-06
8.6126e-06
7.68583e-06
6.83592e-06
6.05817e-06
5.34802e-06
4.70102e-06
4.11194e-06
9.63989e-05
9.57239e-05
9.44208e-05
9.25981e-05
9.03371e-05
8.77178e-05
8.48124e-05
8.1684e-05
7.83894e-05
7.49787e-05
7.14959e-05
6.79791e-05
6.44611e-05
6.09698e-05
5.75283e-05
5.41559e-05
5.08683e-05
4.76779e-05
4.45946e-05
4.16255e-05
3.87759e-05
3.60493e-05
3.34476e-05
3.09715e-05
2.86206e-05
2.63939e-05
2.42895e-05
2.23051e-05
2.04379e-05
1.8685e-05
1.70429e-05
1.55082e-05
1.40771e-05
1.27456e-05
1.15098e-05
1.03653e-05
9.30786e-06
8.33304e-06
7.43642e-06
6.61357e-06
5.8601e-06
5.17174e-06
4.54432e-06
3.97284e-06
8.49871e-05
8.51555e-05
8.46581e-05
8.35917e-05
8.20419e-05
8.00899e-05
7.78083e-05
7.52614e-05
7.25074e-05
6.95981e-05
6.65793e-05
6.34911e-05
6.03681e-05
5.72403e-05
5.41327e-05
5.10667e-05
4.80599e-05
4.51266e-05
4.22784e-05
3.95242e-05
3.6871e-05
3.43236e-05
3.18855e-05
2.95587e-05
2.7344e-05
2.52415e-05
2.32502e-05
2.13688e-05
1.95954e-05
1.79275e-05
1.63627e-05
1.4898e-05
1.35301e-05
1.22558e-05
1.10714e-05
9.97331e-06
8.95754e-06
8.02016e-06
7.1572e-06
6.36457e-06
5.63824e-06
4.97427e-06
4.36873e-06
3.81695e-06
7.29866e-05
7.40027e-05
7.43203e-05
7.4029e-05
7.32124e-05
7.19515e-05
7.03189e-05
6.83795e-05
6.61924e-05
6.38109e-05
6.12821e-05
5.86479e-05
5.59446e-05
5.32038e-05
5.04529e-05
4.77148e-05
4.50092e-05
4.23521e-05
3.97571e-05
3.72347e-05
3.47935e-05
3.24401e-05
3.01792e-05
2.80143e-05
2.59474e-05
2.39798e-05
2.21115e-05
2.03423e-05
1.86709e-05
1.70959e-05
1.56154e-05
1.4227e-05
1.29283e-05
1.17165e-05
1.05886e-05
9.54125e-06
8.57124e-06
7.67503e-06
6.84907e-06
6.08972e-06
5.3933e-06
4.75619e-06
4.1748e-06
3.64474e-06
6.05192e-05
6.23869e-05
6.35247e-05
6.40169e-05
6.39452e-05
6.33895e-05
6.24221e-05
6.11079e-05
5.95066e-05
5.76722e-05
5.56532e-05
5.34926e-05
5.12284e-05
4.8894e-05
4.65182e-05
4.41261e-05
4.17388e-05
3.93745e-05
3.70481e-05
3.47723e-05
3.2557e-05
3.04105e-05
2.8339e-05
2.63473e-05
2.44388e-05
2.26158e-05
2.08796e-05
1.92308e-05
1.76692e-05
1.61941e-05
1.48043e-05
1.34984e-05
1.22743e-05
1.11301e-05
1.00631e-05
9.07081e-06
8.15039e-06
7.29888e-06
6.51313e-06
5.78995e-06
5.12606e-06
4.51821e-06
3.96314e-06
3.45674e-06
4.7718e-05
5.04305e-05
5.23835e-05
5.36581e-05
5.43337e-05
5.44887e-05
5.41943e-05
5.35152e-05
5.25112e-05
5.12368e-05
4.97411e-05
4.80685e-05
4.6258e-05
4.43446e-05
4.23587e-05
4.03268e-05
3.82721e-05
3.62141e-05
3.41696e-05
3.21529e-05
3.01755e-05
2.82472e-05
2.63757e-05
2.45672e-05
2.28264e-05
2.11568e-05
1.95608e-05
1.80399e-05
1.6595e-05
1.52262e-05
1.39332e-05
1.27151e-05
1.15708e-05
1.04987e-05
9.49702e-06
8.56372e-06
7.69654e-06
6.89301e-06
6.15051e-06
5.46626e-06
4.83741e-06
4.26111e-06
3.73441e-06
3.25353e-06
3.47104e-05
3.82496e-05
4.10039e-05
4.30509e-05
4.44677e-05
4.53306e-05
4.57094e-05
4.56681e-05
4.52662e-05
4.45583e-05
4.35941e-05
4.24184e-05
4.10717e-05
3.95897e-05
3.80045e-05
3.63439e-05
3.46326e-05
3.28919e-05
3.114e-05
2.93927e-05
2.76632e-05
2.59627e-05
2.43004e-05
2.26837e-05
2.11187e-05
1.96101e-05
1.81614e-05
1.67753e-05
1.54533e-05
1.41967e-05
1.30057e-05
1.18805e-05
1.08206e-05
9.82494e-06
8.89253e-06
8.02187e-06
7.21129e-06
6.45886e-06
5.76243e-06
5.11971e-06
4.52829e-06
3.98569e-06
3.48933e-06
3.03575e-06
2.16148e-05
2.5954e-05
2.94872e-05
3.22886e-05
3.44328e-05
3.59935e-05
3.70387e-05
3.76313e-05
3.78302e-05
3.76897e-05
3.72595e-05
3.6585e-05
3.57073e-05
3.46632e-05
3.34858e-05
3.22042e-05
3.08444e-05
2.9429e-05
2.79779e-05
2.65083e-05
2.50348e-05
2.35699e-05
2.21243e-05
2.07067e-05
1.93246e-05
1.79836e-05
1.66885e-05
1.54428e-05
1.42493e-05
1.31099e-05
1.20259e-05
1.09981e-05
1.00266e-05
9.11142e-06
8.2519e-06
7.44725e-06
6.69639e-06
5.99793e-06
5.35023e-06
4.75148e-06
4.1997e-06
3.69283e-06
3.22866e-06
2.80405e-06
8.5411e-06
1.36458e-05
1.79283e-05
2.14593e-05
2.43101e-05
2.65518e-05
2.82502e-05
2.94669e-05
3.02595e-05
3.06818e-05
3.07834e-05
3.06097e-05
3.02023e-05
2.95986e-05
2.88324e-05
2.79342e-05
2.6931e-05
2.58466e-05
2.47022e-05
2.35163e-05
2.23049e-05
2.10818e-05
1.9859e-05
1.86465e-05
1.74529e-05
1.6285e-05
1.51487e-05
1.40486e-05
1.29883e-05
1.19706e-05
1.09978e-05
1.00714e-05
9.1922e-06
8.36087e-06
7.57752e-06
6.84196e-06
6.15367e-06
5.51182e-06
4.91529e-06
4.36277e-06
3.85271e-06
3.38347e-06
2.95321e-06
2.55915e-06
-4.40972e-06
1.41947e-06
6.41523e-06
1.06444e-05
1.41751e-05
1.70752e-05
1.94081e-05
2.12335e-05
2.26077e-05
2.35836e-05
2.42102e-05
2.45327e-05
2.45928e-05
2.44284e-05
2.40739e-05
2.35605e-05
2.29161e-05
2.21657e-05
2.13316e-05
2.04334e-05
1.94884e-05
1.85116e-05
1.75162e-05
1.65134e-05
1.55127e-05
1.45225e-05
1.35493e-05
1.25988e-05
1.16758e-05
1.07837e-05
9.92575e-06
9.1041e-06
8.32049e-06
7.57616e-06
6.8719e-06
6.20818e-06
5.58503e-06
5.0022e-06
4.45909e-06
3.95486e-06
3.48845e-06
3.05859e-06
2.66384e-06
2.3018e-06
-1.71467e-05
-1.06394e-05
-4.9716e-06
-8.06606e-08
4.09805e-06
7.62889e-06
1.05726e-05
1.29867e-05
1.4926e-05
1.64418e-05
1.75825e-05
1.83928e-05
1.89141e-05
1.91844e-05
1.92387e-05
1.91086e-05
1.88227e-05
1.8407e-05
1.78846e-05
1.72761e-05
1.66e-05
1.58724e-05
1.51074e-05
1.43175e-05
1.35133e-05
1.2704e-05
1.18973e-05
1.10999e-05
1.03173e-05
9.55406e-06
8.81397e-06
8.10008e-06
7.41486e-06
6.76023e-06
6.13765e-06
5.54819e-06
4.99249e-06
4.47083e-06
3.98315e-06
3.5291e-06
3.10806e-06
2.7192e-06
2.36145e-06
2.03278e-06
-2.9589e-05
-2.24538e-05
-1.61596e-05
-1.06475e-05
-5.85701e-06
-1.72726e-06
1.79946e-06
4.77827e-06
7.2619e-06
9.30031e-06
1.09405e-05
1.22266e-05
1.31995e-05
1.38972e-05
1.43545e-05
1.46036e-05
1.46734e-05
1.45907e-05
1.43793e-05
1.40608e-05
1.36543e-05
1.31771e-05
1.26443e-05
1.20693e-05
1.14638e-05
1.08378e-05
1.02001e-05
9.55825e-06
8.91863e-06
8.28667e-06
7.66693e-06
7.06323e-06
6.47876e-06
5.91611e-06
5.37742e-06
4.86434e-06
4.3781e-06
3.91952e-06
3.48907e-06
3.08688e-06
2.71278e-06
2.36637e-06
2.04696e-06
1.75289e-06
-4.16658e-05
-3.39562e-05
-2.70839e-05
-2.09948e-05
-1.5632e-05
-1.09386e-05
-6.86014e-06
-3.34414e-06
-3.40099e-07
2.20015e-06
4.32225e-06
6.06919e-06
7.48123e-06
8.5959e-06
9.44797e-06
1.00695e-05
1.04901e-05
1.07366e-05
1.08336e-05
1.08032e-05
1.06656e-05
1.04386e-05
1.01383e-05
9.779e-06
9.37319e-06
8.93191e-06
8.46479e-06
7.98021e-06
7.4854e-06
6.98659e-06
6.48911e-06
5.99752e-06
5.5157e-06
5.04693e-06
4.59396e-06
4.15904e-06
3.74398e-06
3.35013e-06
2.97847e-06
2.62963e-06
2.30387e-06
2.0012e-06
1.72133e-06
1.46299e-06
-5.33165e-05
-4.50875e-05
-3.76879e-05
-3.10679e-05
-2.51748e-05
-1.99558e-05
-1.53597e-05
-1.13368e-05
-7.83915e-06
-4.82055e-06
-2.23703e-06
-4.68811e-08
1.78921e-06
3.30811e-06
4.54424e-06
5.52958e-06
6.29367e-06
6.86373e-06
7.26464e-06
7.51914e-06
7.64787e-06
7.66948e-06
7.60076e-06
7.4567e-06
7.25066e-06
6.99448e-06
6.69861e-06
6.37222e-06
6.02333e-06
5.6589e-06
5.28502e-06
4.90696e-06
4.52925e-06
4.15583e-06
3.79005e-06
3.43476e-06
3.09231e-06
2.76457e-06
2.45305e-06
2.15882e-06
1.88261e-06
1.62482e-06
1.38556e-06
1.16393e-06
-6.44898e-05
-5.57974e-05
-4.79224e-05
-4.08194e-05
-3.44399e-05
-2.87352e-05
-2.36575e-05
-1.91602e-05
-1.5198e-05
-1.17268e-05
-8.70463e-06
-6.0912e-06
-3.84838e-06
-1.94016e-06
-3.32702e-07
1.00561e-06
2.10419e-06
2.99029e-06
3.68903e-06
4.22349e-06
4.61474e-06
4.882e-06
5.04264e-06
5.11231e-06
5.10506e-06
5.03347e-06
4.90871e-06
4.74069e-06
4.53812e-06
4.30871e-06
4.05921e-06
3.79557e-06
3.52298e-06
3.24598e-06
2.96852e-06
2.69399e-06
2.42529e-06
2.1648e-06
1.91451e-06
1.67597e-06
1.45032e-06
1.23839e-06
1.04066e-06
8.56599e-07
-7.51439e-05
-6.6044e-05
-5.77458e-05
-5.02084e-05
-4.33874e-05
-3.72381e-05
-3.17165e-05
-2.6779e-05
-2.2383e-05
-1.84869e-05
-1.50507e-05
-1.20358e-05
-9.40543e-06
-7.12467e-06
-5.16046e-06
-3.48172e-06
-2.05937e-06
-8.66298e-07
1.22653e-07
9.30742e-07
1.57935e-06
2.08807e-06
2.47473e-06
2.75553e-06
2.94513e-06
3.05673e-06
3.10214e-06
3.09192e-06
3.03543e-06
2.94106e-06
2.81619e-06
2.6674e-06
2.50049e-06
2.32059e-06
2.1322e-06
1.93924e-06
1.74513e-06
1.55277e-06
1.36459e-06
1.1826e-06
1.00835e-06
8.43083e-07
6.87656e-07
5.41908e-07
-8.52453e-05
-7.57932e-05
-6.71238e-05
-5.92006e-05
-5.19833e-05
-4.54314e-05
-3.95045e-05
-3.4162e-05
-2.93643e-05
-2.50723e-05
-2.12481e-05
-1.78551e-05
-1.4858e-05
-1.2223e-05
-9.91815e-06
-7.91306e-06
-6.17914e-06
-4.68959e-06
-3.41939e-06
-2.34528e-06
-1.44572e-06
-7.00887e-07
-9.25963e-08
3.95782e-07
7.79389e-07
1.07194e-06
1.28581e-06
1.43212e-06
1.52085e-06
1.56096e-06
1.56045e-06
1.52646e-06
1.46537e-06
1.38285e-06
1.28392e-06
1.17303e-06
1.05409e-06
9.30459e-07
8.05034e-07
6.80239e-07
5.58057e-07
4.40096e-07
3.27603e-07
2.20778e-07
-9.47686e-05
-8.50181e-05
-7.60287e-05
-6.77678e-05
-6.01994e-05
-5.3287e-05
-4.69936e-05
-4.1282e-05
-3.61155e-05
-3.14576e-05
-2.72727e-05
-2.35261e-05
-2.01842e-05
-1.72147e-05
-1.45866e-05
-1.22704e-05
-1.02384e-05
-8.46414e-06
-6.92288e-06
-5.5915e-06
-4.44849e-06
-3.47391e-06
-2.64935e-06
-1.95785e-06
-1.38393e-06
-9.13438e-07
-5.33538e-07
-2.32614e-07
-1.44464e-10
1.7335e-07
2.96412e-07
3.7672e-07
4.21158e-07
4.35912e-07
4.26509e-07
3.97882e-07
3.54385e-07
2.99847e-07
2.37586e-07
1.70436e-07
1.00789e-07
3.06267e-08
-3.84442e-08
-1.05863e-07
-0.000103696
-9.36989e-05
-8.44391e-05
-7.58877e-05
-6.80127e-05
-6.07814e-05
-5.41604e-05
-4.81159e-05
-4.2614e-05
-3.76207e-05
-3.3103e-05
-2.90282e-05
-2.53644e-05
-2.20809e-05
-1.91481e-05
-1.65374e-05
-1.42218e-05
-1.21755e-05
-1.03744e-05
-8.79558e-06
-7.4176e-06
-6.22056e-06
-5.18595e-06
-4.29665e-06
-3.53689e-06
-2.8922e-06
-2.34937e-06
-1.89636e-06
-1.52219e-06
-1.21693e-06
-9.7156e-07
-7.77921e-07
-6.28647e-07
-5.17085e-07
-4.37236e-07
-3.83723e-07
-3.51753e-07
-3.37091e-07
-3.36003e-07
-3.45255e-07
-3.62079e-07
-3.84118e-07
-4.0942e-07
-4.37081e-07
-0.000112015
-0.000101822
-9.23394e-05
-8.35432e-05
-7.5405e-05
-6.78958e-05
-6.09858e-05
-5.46443e-05
-4.88402e-05
-4.35425e-05
-3.87204e-05
-3.43432e-05
-3.03812e-05
-2.68051e-05
-2.35867e-05
-2.06987e-05
-1.8115e-05
-1.58105e-05
-1.37617e-05
-1.1946e-05
-1.03424e-05
-8.93099e-06
-7.69336e-06
-6.61229e-06
-5.67187e-06
-4.8574e-06
-4.15537e-06
-3.55338e-06
-3.0401e-06
-2.6052e-06
-2.23923e-06
-1.93364e-06
-1.6806e-06
-1.47304e-06
-1.30454e-06
-1.1693e-06
-1.06213e-06
-9.78403e-07
-9.13997e-07
-8.65292e-07
-8.29171e-07
-8.02924e-07
-7.8426e-07
-7.7194e-07
-0.00011972
-0.000109378
-9.97192e-05
-9.07222e-05
-8.23628e-05
-7.46157e-05
-6.74544e-05
-6.08513e-05
-5.47782e-05
-4.92068e-05
-4.41087e-05
-3.94554e-05
-3.52192e-05
-3.13724e-05
-2.78883e-05
-2.47409e-05
-2.19051e-05
-1.93569e-05
-1.70732e-05
-1.5032e-05
-1.32128e-05
-1.15959e-05
-1.0163e-05
-8.89691e-06
-7.78166e-06
-6.80241e-06
-5.94546e-06
-5.19815e-06
-4.54885e-06
-3.98689e-06
-3.50249e-06
-3.0867e-06
-2.73134e-06
-2.42893e-06
-2.17267e-06
-1.95641e-06
-1.77457e-06
-1.62214e-06
-1.49466e-06
-1.38814e-06
-1.29913e-06
-1.22459e-06
-1.1619e-06
-1.1095e-06
-0.000126811
-0.000116365
-0.000106573
-9.74171e-05
-8.8877e-05
-8.09305e-05
-7.35546e-05
-6.67245e-05
-6.0415e-05
-5.46003e-05
-4.92545e-05
-4.43514e-05
-3.9865e-05
-3.57697e-05
-3.20401e-05
-2.86518e-05
-2.55806e-05
-2.28036e-05
-2.02984e-05
-1.80439e-05
-1.60197e-05
-1.42068e-05
-1.25869e-05
-1.11431e-05
-9.85941e-06
-8.72095e-06
-7.71388e-06
-6.82538e-06
-6.0436e-06
-5.3576e-06
-4.75731e-06
-4.23348e-06
-3.77758e-06
-3.3818e-06
-3.039e-06
-2.74267e-06
-2.48693e-06
-2.2664e-06
-2.07628e-06
-1.91228e-06
-1.77062e-06
-1.64792e-06
-1.54129e-06
-1.44883e-06
-0.000133293
-0.000122784
-0.000112899
-0.000103624
-9.49419e-05
-8.68332e-05
-7.9278e-05
-7.22545e-05
-6.57403e-05
-5.97123e-05
-5.41468e-05
-4.90198e-05
-4.43075e-05
-3.99858e-05
-3.60313e-05
-3.24206e-05
-2.91311e-05
-2.61406e-05
-2.34279e-05
-2.09725e-05
-1.87546e-05
-1.67556e-05
-1.49576e-05
-1.33439e-05
-1.18987e-05
-1.0607e-05
-9.45514e-06
-8.43004e-06
-7.51975e-06
-6.71313e-06
-5.99988e-06
-5.3705e-06
-4.81617e-06
-4.32879e-06
-3.90092e-06
-3.52577e-06
-3.19712e-06
-2.9093e-06
-2.6572e-06
-2.43622e-06
-2.24229e-06
-2.07175e-06
-1.92138e-06
-1.789e-06
-0.000139171
-0.000128639
-0.0001187
-0.000109344
-0.000100556
-9.232e-05
-8.46193e-05
-7.74349e-05
-7.07469e-05
-6.45346e-05
-5.87767e-05
-5.34516e-05
-4.85372e-05
-4.40114e-05
-3.98523e-05
-3.60381e-05
-3.25474e-05
-2.93592e-05
-2.64532e-05
-2.38097e-05
-2.14097e-05
-1.9235e-05
-1.72682e-05
-1.54929e-05
-1.38935e-05
-1.24551e-05
-1.11641e-05
-1.00074e-05
-8.9729e-06
-8.04945e-06
-7.22652e-06
-6.49439e-06
-5.84404e-06
-5.26712e-06
-4.75594e-06
-4.30343e-06
-3.90309e-06
-3.549e-06
-3.23576e-06
-2.9585e-06
-2.71286e-06
-2.49489e-06
-2.30113e-06
-2.1291e-06
-0.000144459
-0.000133938
-0.000123981
-0.000114579
-0.000105719
-9.739e-05
-8.95762e-05
-8.22619e-05
-7.54296e-05
-6.90612e-05
-6.31377e-05
-5.76395e-05
-5.25465e-05
-4.78384e-05
-4.34951e-05
-3.94962e-05
-3.58216e-05
-3.24515e-05
-2.93667e-05
-2.65483e-05
-2.39781e-05
-2.16384e-05
-1.95125e-05
-1.75842e-05
-1.58382e-05
-1.426e-05
-1.28358e-05
-1.15528e-05
-1.03989e-05
-9.36273e-06
-8.43369e-06
-7.60193e-06
-6.85825e-06
-6.19413e-06
-5.60163e-06
-5.07346e-06
-4.60288e-06
-4.18373e-06
-3.81037e-06
-3.47767e-06
-3.18102e-06
-2.91622e-06
-2.67953e-06
-2.46822e-06
-0.000149169
-0.000138694
-0.000128751
-0.000119335
-0.000110436
-0.000102045
-9.41486e-05
-8.67339e-05
-7.97858e-05
-7.32885e-05
-6.72251e-05
-6.15781e-05
-5.63295e-05
-5.14607e-05
-4.69532e-05
-4.27882e-05
-3.89469e-05
-3.54109e-05
-3.21618e-05
-2.91818e-05
-2.64534e-05
-2.39598e-05
-2.16846e-05
-1.96122e-05
-1.77277e-05
-1.60167e-05
-1.44658e-05
-1.30622e-05
-1.17939e-05
-1.06494e-05
-9.61807e-06
-8.69006e-06
-7.85601e-06
-7.10724e-06
-6.43565e-06
-5.83373e-06
-5.29455e-06
-4.81174e-06
-4.37946e-06
-3.99234e-06
-3.64552e-06
-3.33459e-06
-3.05557e-06
-2.80547e-06
-0.00015332
-0.00014292
-0.000133022
-0.000123622
-0.000114714
-0.000106289
-9.83389e-05
-9.08518e-05
-8.38149e-05
-7.72146e-05
-7.1036e-05
-6.52639e-05
-5.98819e-05
-5.48735e-05
-5.02215e-05
-4.59088e-05
-4.19179e-05
-3.82316e-05
-3.48328e-05
-3.17046e-05
-2.88303e-05
-2.61938e-05
-2.37795e-05
-2.15722e-05
-1.95573e-05
-1.77211e-05
-1.60501e-05
-1.45318e-05
-1.31542e-05
-1.1906e-05
-1.07766e-05
-9.75598e-06
-8.83474e-06
-8.0041e-06
-7.25584e-06
-6.58229e-06
-5.97634e-06
-5.43145e-06
-4.9416e-06
-4.50121e-06
-4.1052e-06
-3.74896e-06
-3.4283e-06
-3.14003e-06
-0.000156933
-0.000146635
-0.000136809
-0.000127453
-0.000118563
-0.000110131
-0.000102153
-9.46195e-05
-8.75193e-05
-8.08405e-05
-7.45706e-05
-6.86959e-05
-6.32021e-05
-5.80743e-05
-5.3297e-05
-4.88545e-05
-4.47308e-05
-4.091e-05
-3.73759e-05
-3.41127e-05
-3.11047e-05
-2.83366e-05
-2.57933e-05
-2.34603e-05
-2.13235e-05
-1.93695e-05
-1.75853e-05
-1.59583e-05
-1.44769e-05
-1.313e-05
-1.19067e-05
-1.07973e-05
-9.79228e-06
-8.88274e-06
-8.0604e-06
-7.31748e-06
-6.64674e-06
-6.0415e-06
-5.49555e-06
-5.00316e-06
-4.55907e-06
-4.15846e-06
-3.79695e-06
-3.47123e-06
-0.000160023
-0.000149852
-0.000140124
-0.000130838
-0.000121991
-0.000113582
-0.000105599
-9.8043e-05
-9.09031e-05
-8.41691e-05
-7.78302e-05
-7.18744e-05
-6.62894e-05
-6.10617e-05
-5.61776e-05
-5.16227e-05
-4.73826e-05
-4.34424e-05
-3.97872e-05
-3.64021e-05
-3.32726e-05
-3.03839e-05
-2.77219e-05
-2.52726e-05
-2.30224e-05
-2.09583e-05
-1.90677e-05
-1.73384e-05
-1.57589e-05
-1.43181e-05
-1.30056e-05
-1.18114e-05
-1.07261e-05
-9.74075e-06
-8.84709e-06
-8.03724e-06
-7.30386e-06
-6.64013e-06
-6.03971e-06
-5.49674e-06
-5.00578e-06
-4.56186e-06
-4.1604e-06
-3.79797e-06
-0.000162602
-0.00015258
-0.000142972
-0.00013378
-0.000125001
-0.000116636
-0.00010868
-0.000101124
-9.39671e-05
-8.72e-05
-8.08134e-05
-7.47973e-05
-6.91407e-05
-6.38321e-05
-5.88592e-05
-5.4209e-05
-4.98684e-05
-4.58238e-05
-4.20616e-05
-3.85678e-05
-3.53288e-05
-3.23309e-05
-2.95604e-05
-2.70042e-05
-2.46493e-05
-2.2483e-05
-2.04932e-05
-1.86681e-05
-1.69962e-05
-1.5467e-05
-1.40698e-05
-1.27951e-05
-1.16333e-05
-1.05755e-05
-9.61355e-06
-8.73942e-06
-7.94571e-06
-7.22554e-06
-6.57246e-06
-5.98046e-06
-5.444e-06
-4.95796e-06
-4.5176e-06
-4.11939e-06
-0.000127604
-0.000119304
-0.000111392
-0.000103863
-9.67107e-05
-8.99319e-05
-8.35183e-05
-7.74618e-05
-7.17531e-05
-6.6382e-05
-6.13378e-05
-5.66091e-05
-5.21839e-05
-4.80499e-05
-4.41946e-05
-4.06053e-05
-3.7269e-05
-3.41731e-05
-3.13047e-05
-2.86512e-05
-2.62003e-05
-2.39399e-05
-2.18583e-05
-1.99439e-05
-1.81858e-05
-1.65735e-05
-1.50967e-05
-1.37458e-05
-1.25115e-05
-1.13849e-05
-1.03577e-05
-9.42212e-06
-8.57056e-06
-7.79613e-06
-7.09232e-06
-6.453e-06
-5.87255e-06
-5.3457e-06
-4.86757e-06
-4.43447e-06
-0.00111424
-0.000977302
-0.000849498
-0.00073106
-0.000622129
-0.000522697
-0.000432623
-0.000351642
-0.000279396
-0.000215447
-0.000159298
-0.000110413
-6.82286e-05
-3.21693e-05
-1.66215e-06
2.38547e-05
4.49232e-05
6.20583e-05
7.57434e-05
8.64269e-05
9.45201e-05
0.000100397
0.000104393
0.000106807
0.0001079
0.000107907
-0.00130253
-0.00115715
-0.00102012
-0.000891949
-0.000772912
-0.000663151
-0.000562695
-0.000471424
-0.000389104
-0.000315401
-0.000249904
-0.000192142
-0.0001416
-9.77379e-05
-5.99991e-05
-2.78274e-05
-6.75576e-07
2.19857e-05
4.06613e-05
5.58263e-05
6.79228e-05
7.73577e-05
8.45018e-05
8.96896e-05
9.32204e-05
9.53579e-05
9.63378e-05
-0.00133476
-0.00119071
-0.00105472
-0.000927279
-0.000808662
-0.000699043
-0.000598462
-0.000506822
-0.000423911
-0.00034942
-0.000282965
-0.000224103
-0.000172344
-0.000127173
-8.80575e-05
-5.44638e-05
-2.58651e-05
-1.75033e-06
1.83692e-05
3.49548e-05
4.84366e-05
5.92119e-05
6.76437e-05
7.40607e-05
7.87581e-05
8.1998e-05
8.40121e-05
-0.00136506
-0.00122235
-0.00108743
-0.000960765
-0.000842654
-0.000733275
-0.000632683
-0.000540795
-0.000457422
-0.000382278
-0.000315005
-0.000255181
-0.000202344
-0.000156
-0.000115642
-8.07556e-05
-5.08337e-05
-2.53826e-05
-3.92908e-06
1.39748e-05
2.87481e-05
4.07787e-05
5.0422e-05
5.80011e-05
6.38066e-05
6.80979e-05
7.1105e-05
-0.00139024
-0.00124939
-0.00111603
-0.000990635
-0.00087349
-0.000764782
-0.000664576
-0.000572808
-0.000489307
-0.000413813
-0.000345991
-0.000285447
-0.000231744
-0.000184416
-0.000142977
-0.000106938
-7.58129e-05
-4.91273e-05
-2.64251e-05
-7.27337e-06
8.73395e-06
2.19739e-05
3.27931e-05
4.15073e-05
4.84021e-05
5.37329e-05
5.77275e-05
-0.00140883
-0.00127049
-0.00113932
-0.00101578
-0.000900153
-0.000792637
-0.000693301
-0.000602097
-0.000518876
-0.0004434
-0.000375362
-0.000314396
-0.000260091
-0.000212009
-0.000169693
-0.000132678
-0.000100501
-7.27096e-05
-4.88677e-05
-2.85592e-05
-1.1393e-05
2.99516e-06
1.49413e-05
2.47526e-05
3.27077e-05
3.90571e-05
4.4025e-05
-0.00142043
-0.00128523
-0.00115686
-0.00103575
-0.000922193
-0.000816382
-0.000718397
-0.000628205
-0.000545674
-0.000470595
-0.000402684
-0.000341605
-0.000286977
-0.000238391
-0.000195419
-0.000157623
-0.000124565
-9.58186e-05
-7.09668e-05
-4.96134e-05
-3.1384e-05
-1.59287e-05
-2.92378e-06
7.92798e-06
1.6897e-05
2.42274e-05
3.01386e-05
-0.00142489
-0.00129343
-0.00116843
-0.00105031
-0.000939351
-0.000835746
-0.000739581
-0.000650837
-0.000569404
-0.000495094
-0.000427654
-0.000366776
-0.00031211
-0.000263277
-0.000219879
-0.000181508
-0.000147754
-0.000118214
-9.2495e-05
-7.02216e-05
-5.10377e-05
-3.46094e-05
-2.06265e-05
-8.8034e-06
1.12097e-06
9.38325e-06
1.61969e-05
-0.00142226
-0.00129512
-0.00117403
-0.00105942
-0.000951552
-0.00085062
-0.000756715
-0.000669834
-0.000589885
-0.000516705
-0.000450069
-0.000389698
-0.000335274
-0.00028645
-0.00024286
-0.000204124
-0.000169862
-0.000139697
-0.000113261
-9.02013e-05
-7.01807e-05
-5.28827e-05
-3.80122e-05
-2.52961e-05
-1.44842e-05
-5.34826e-06
2.31821e-06
-0.00141293
-0.00129058
-0.00117389
-0.00106324
-0.0009589
-0.000861058
-0.00076981
-0.000685165
-0.000607054
-0.000535336
-0.000469814
-0.000410239
-0.000356325
-0.000307757
-0.000264199
-0.000225306
-0.000190724
-0.000160105
-0.000133106
-0.000109397
-8.86631e-05
-7.06051e-05
-5.4944e-05
-4.14206e-05
-2.97961e-05
-1.9852e-05
-1.13897e-05
-0.00139744
-0.00128031
-0.0011684
-0.00106209
-0.000961648
-0.000867247
-0.000778995
-0.000696913
-0.000620949
-0.000550988
-0.000486858
-0.000428341
-0.000375184
-0.000327101
-0.000283791
-0.000244937
-0.000210218
-0.000179311
-0.000151902
-0.000127683
-0.000106361
-8.76553e-05
-7.13047e-05
-5.70642e-05
-4.47073e-05
-3.40261e-05
-2.48305e-05
-0.00137651
-0.0012649
-0.00115808
-0.00105642
-0.000960152
-0.000869476
-0.000784495
-0.000705243
-0.000631686
-0.000563732
-0.000501237
-0.00044401
-0.000391829
-0.000344441
-0.000301574
-0.000262945
-0.000228259
-0.000197225
-0.000169553
-0.00014496
-0.000123173
-0.000103934
-8.69964e-05
-7.21314e-05
-5.91255e-05
-4.77816e-05
-3.79191e-05
-0.00135092
-0.00124505
-0.00114353
-0.00104671
-0.000954842
-0.000868099
-0.000786598
-0.000710385
-0.000639443
-0.000573701
-0.00051304
-0.0004573
-0.000406285
-0.000359776
-0.000317529
-0.000279291
-0.000244799
-0.000213787
-0.000185992
-0.000161155
-0.000139025
-0.000119362
-0.00010194
-8.65433e-05
-7.29728e-05
-6.10428e-05
-5.05822e-05
-0.0013215
-0.00122147
-0.00112538
-0.00103353
-0.000946181
-0.00086351
-0.000785633
-0.000712608
-0.000644434
-0.000581063
-0.000522397
-0.000468303
-0.000418615
-0.000373141
-0.000331668
-0.000293971
-0.000259816
-0.000228964
-0.000201175
-0.000176217
-0.000153858
-0.00013388
-0.000116073
-0.000100236
-8.61855e-05
-7.37462e-05
-6.27575e-05
-0.00128904
-0.00119489
-0.00110424
-0.00101741
-0.000934642
-0.000856112
-0.000781942
-0.0007122
-0.0006469
-0.000586012
-0.000529461
-0.00047714
-0.000428907
-0.000384599
-0.000344031
-0.000307005
-0.000273313
-0.000242744
-0.000215082
-0.000190116
-0.000167638
-0.000147446
-0.000129348
-0.000113162
-9.87129e-05
-8.58404e-05
-7.43934e-05
-0.00125429
-0.00116595
-0.00108072
-0.000998877
-0.00092068
-0.000846303
-0.000775869
-0.000709454
-0.000647087
-0.000588754
-0.000534403
-0.000483946
-0.000437268
-0.000394231
-0.000354676
-0.000318431
-0.000285314
-0.000255137
-0.000227709
-0.00020284
-0.000180342
-0.000160032
-0.000141735
-0.000125283
-0.000110516
-9.72849e-05
-8.54484e-05
-0.00121792
-0.00113526
-0.00105533
-0.000978405
-0.00090472
-0.000834457
-0.00076774
-0.000704654
-0.00064524
-0.000589498
-0.000537395
-0.000488866
-0.000443816
-0.000402131
-0.000363677
-0.000328305
-0.000295857
-0.000266168
-0.000239069
-0.00021439
-0.000191964
-0.000171625
-0.000153214
-0.000136577
-0.000121568
-0.00010805
-9.58903e-05
-0.0011805
-0.00110335
-0.00102857
-0.000956425
-0.000887147
-0.000820916
-0.000757859
-0.000698068
-0.000641591
-0.000588446
-0.000538614
-0.000492048
-0.000448676
-0.000408402
-0.000371116
-0.000336691
-0.000304991
-0.000275872
-0.000249186
-0.000224782
-0.00020251
-0.000182222
-0.000163775
-0.00014703
-0.000131851
-0.000118113
-0.000105696
-0.00114253
-0.00107066
-0.00100084
-0.000933307
-0.000868298
-0.000805987
-0.000746502