/*--------------------------------*- C++ -*----------------------------------*\
| =========                 |                                                 |
| \\      /  F ield         | OpenFOAM: The Open Source CFD Toolbox           |
|  \\    /   O peration     | Version:  2412                                  |
|   \\  /    A nd           | Website:  www.openfoam.com                      |
|    \\/     M anipulation  |                                                 |
\*---------------------------------------------------------------------------*/
FoamFile
{
    version     2.0;
    format      ascii;
    arch        "LSB;label=32;scalar=64";
    class       volVectorField;
    location    "21";
    object      vorticity;
}
// * * * * * * * * * * * * * * * * * * * * * * * * * * * * * * * * * * * * * //

dimensions      [0 0 -1 0 0 0 0];

internalField   nonuniform List<vector> 
5285
(
(1.35295e-21 1.43051e-21 -0.010963)
(-1.72587e-21 1.11531e-23 -0.0103641)
(1.14844e-21 2.35955e-21 -0.0097555)
(-4.19617e-22 2.36281e-23 -0.00914384)
(-9.67712e-22 2.11648e-24 -0.00853459)
(4.40582e-22 -1.12861e-23 -0.00793296)
(2.17462e-22 3.29171e-21 -0.00734355)
(-1.66452e-23 1.635e-23 -0.00677027)
(-2.15234e-22 -3.74587e-21 -0.00621641)
(2.03937e-22 3.95687e-21 -0.00568465)
(-1.53788e-22 -4.17445e-21 -0.00517715)
(9.39855e-22 4.00532e-20 -0.00469554)
(-9.9769e-22 -4.03355e-20 -0.00424099)
(-5.44586e-22 -3.40088e-20 -0.00381428)
(1.25429e-21 7.42253e-20 -0.00341576)
(-7.01624e-22 -4.04227e-20 -0.00304548)
(-1.15257e-22 -5.3018e-21 -0.00270317)
(1.13318e-22 5.49561e-21 -0.00238829)
(-5.6826e-23 7.55988e-25 -0.00210009)
(2.24273e-22 5.78361e-21 -0.00183761)
(-3.8924e-22 -2.99675e-20 -0.00159975)
(3.54593e-22 3.01962e-20 -0.00138526)
(-8.38474e-23 -6.23618e-21 -0.00119281)
(2.32227e-22 1.9155e-20 -0.00102096)
(3.29545e-23 -6.37757e-21 -0.000868225)
(-1.4397e-22 -1.32109e-20 -0.00073303)
(3.45856e-23 6.65013e-21 -0.000613685)
(-1.0538e-22 -6.8065e-21 -0.000508356)
(2.04498e-20 1.27587e-19 -0.032451)
(-2.28169e-20 -1.36068e-19 -0.030665)
(2.35327e-20 1.57887e-19 -0.0288507)
(-1.21801e-20 -7.121e-20 -0.0270305)
(-2.32813e-20 -1.84964e-19 -0.0252197)
(1.0998e-20 9.46514e-20 -0.0234332)
(4.8797e-22 -2.82531e-21 -0.0216844)
(-1.3683e-21 -7.22581e-21 -0.0199846)
(7.1565e-22 3.74691e-21 -0.0183435)
(-1.08904e-21 -1.20995e-20 -0.0167687)
(9.59424e-21 1.3348e-19 -0.0152666)
(-2.02569e-20 -2.86512e-19 -0.0138418)
(9.23077e-21 1.39669e-19 -0.0124977)
(-9.9785e-22 -1.44355e-20 -0.0112364)
(2.41989e-22 4.97644e-21 -0.010059)
(-1.57589e-23 -5.88037e-23 -0.00896534)
(-4.40601e-21 -9.20661e-20 -0.00795468)
(3.75113e-21 8.14898e-20 -0.00702535)
(2.79895e-21 8.02677e-20 -0.00617505)
(-4.11262e-21 -1.09475e-19 -0.0054009)
(1.01555e-22 6.05382e-21 -0.00469959)
(8.71146e-22 3.08981e-20 -0.0040674)
(-1.91648e-21 -5.56522e-20 -0.00350033)
(3.51272e-23 -6.33784e-21 -0.00299416)
(-1.21975e-21 -4.55195e-20 -0.00254444)
(-2.3107e-22 -6.95901e-21 -0.00214646)
(2.85728e-22 1.31218e-20 -0.00179512)
(3.44865e-22 2.02699e-20 -0.00148467)
(-3.90069e-20 -1.42305e-19 -0.0526868)
(4.22025e-20 1.45064e-19 -0.0497408)
(-7.3973e-23 7.25931e-21 -0.046758)
(-6.86074e-22 -5.74847e-21 -0.0437716)
(2.14398e-22 6.93855e-21 -0.0408076)
(-3.48454e-20 -2.08365e-19 -0.0378886)
(3.80993e-20 2.14191e-19 -0.0350356)
(-3.47268e-20 -2.27074e-19 -0.0322664)
(3.71179e-20 2.41974e-19 -0.029596)
(8.53839e-22 8.45982e-21 -0.0270366)
(3.28695e-20 2.81856e-19 -0.0245976)
(-6.44074e-20 -5.67305e-19 -0.0222865)
(3.31636e-20 3.03841e-19 -0.0201082)
(1.55976e-20 1.68805e-19 -0.0180658)
(-1.3895e-20 -1.49084e-19 -0.0161608)
(2.17152e-22 3.00788e-23 -0.0143928)
(-5.08717e-22 -1.25263e-22 -0.0127602)
(-5.87995e-23 1.24343e-22 -0.0112601)
(1.14708e-20 1.84736e-19 -0.0098885)
(-1.11199e-20 -1.73643e-19 -0.0086407)
(9.22002e-22 1.2156e-20 -0.00751113)
(-5.00875e-22 -1.6746e-23 -0.00649365)
(4.46306e-21 1.00644e-19 -0.00558167)
(-8.26276e-21 -1.90903e-19 -0.00476824)
(4.07876e-21 1.02862e-19 -0.00404607)
(-2.09438e-21 -5.31404e-20 -0.00340739)
(1.578e-21 3.96416e-20 -0.00284358)
(3.7527e-22 1.33307e-20 -0.00234435)
(1.74289e-21 -6.43472e-23 -0.0709989)
(-3.6698e-21 5.4242e-21 -0.0669413)
(4.02111e-21 4.27618e-22 -0.0628472)
(1.08057e-21 7.96746e-21 -0.0587615)
(-1.08148e-19 -4.34597e-19 -0.05472)
(1.08672e-19 4.24688e-19 -0.0507497)
(-2.85842e-21 2.6665e-21 -0.0468777)
(-4.80251e-20 -2.53679e-19 -0.0431268)
(5.1937e-20 2.61282e-19 -0.039516)
(-4.58262e-22 5.74704e-22 -0.0360609)
(-1.77443e-22 -1.50423e-22 -0.0327734)
(-4.55574e-20 -3.1231e-19 -0.0296625)
(8.8934e-20 6.27207e-19 -0.0267343)
(-8.39525e-20 -6.39745e-19 -0.0239924)
(8.076e-20 6.61608e-19 -0.0214378)
(-7.681e-20 -6.82372e-19 -0.0190699)
(3.72774e-20 3.46508e-19 -0.0168858)
(1.67969e-20 1.82367e-19 -0.0148812)
(-1.47277e-20 -1.59653e-19 -0.0130505)
(-1.2212e-21 -1.19382e-20 -0.0113869)
(-1.4053e-20 -1.94775e-19 -0.00988259)
(2.94974e-20 4.18875e-19 -0.00852912)
(-1.36107e-20 -1.99421e-19 -0.00731741)
(1.39206e-22 2.32696e-22 -0.00623793)
(5.63517e-22 1.2938e-20 -0.0052807)
(-1.20555e-22 -9.38743e-23 -0.00443502)
(-5.50068e-22 -1.3302e-20 -0.00368867)
(1.18743e-21 2.70564e-20 -0.00302592)
(-1.35568e-19 -3.90634e-19 -0.0818234)
(1.33579e-19 3.71723e-19 -0.0766929)
(-4.12937e-21 3.57993e-21 -0.0715958)
(5.19121e-21 2.71967e-24 -0.0665715)
(-4.38161e-21 -5.61337e-21 -0.0616525)
(-1.3114e-19 -5.12769e-19 -0.056868)
(1.32011e-19 5.01314e-19 -0.0522444)
(-3.0656e-21 -6.49598e-21 -0.0478034)
(-5.9708e-20 -2.82993e-19 -0.0435624)
(6.16593e-20 3.00339e-19 -0.0395348)
(1.20748e-21 3.65888e-22 -0.0357305)
(-1.41802e-22 2.77433e-22 -0.0321556)
(-1.43207e-22 -4.56176e-23 -0.0288137)
(-4.93012e-20 -3.44263e-19 -0.0257052)
(5.10985e-20 3.55275e-19 -0.0228283)
(-4.34843e-20 -3.51532e-19 -0.0201787)
(4.5155e-20 3.62614e-19 -0.0177508)
(-2.80179e-21 -2.35884e-20 -0.0155368)
(9.03163e-22 1.19063e-20 -0.0135279)
(4.12072e-22 1.27744e-22 -0.0117142)
(-9.09947e-22 -1.23454e-20 -0.010085)
(9.08304e-22 1.25001e-20 -0.00862877)
(-8.47062e-21 -1.15891e-19 -0.00733361)
(1.46115e-20 2.07812e-19 -0.00618705)
(-1.04573e-20 -1.57756e-19 -0.00517571)
(3.30368e-21 5.3044e-20 -0.0042838)
(1.52581e-22 4.48328e-23 -0.00348932)
(1.64696e-19 4.3221e-19 -0.0941706)
(-1.73325e-19 -4.20595e-19 -0.0880937)
(-1.64008e-19 -4.84049e-19 -0.0820841)
(1.64148e-19 4.65452e-19 -0.0761872)
(-3.48322e-21 2.89236e-21 -0.0704342)
(4.63517e-21 -1.45125e-21 -0.0648558)
(1.53292e-19 5.71089e-19 -0.0594799)
(-4.54575e-21 2.5768e-20 -0.0543295)
(-1.54802e-19 -6.10085e-19 -0.0494227)
(-1.44383e-19 -6.46949e-19 -0.0447731)
(2.76298e-19 1.27745e-18 -0.0403905)
(-7.32859e-20 -3.25426e-19 -0.0362808)
(-6.72538e-20 -3.47267e-19 -0.0324465)
(-6.35295e-20 -3.76624e-19 -0.0288869)
(1.14822e-19 7.05594e-19 -0.0255988)
(-1.12666e-19 -7.44601e-19 -0.0225765)
(9.99282e-22 -1.96942e-20 -0.0198122)
(5.0913e-20 3.77469e-19 -0.0172963)
(4.57459e-20 3.91375e-19 -0.015018)
(-6.98228e-20 -6.14681e-19 -0.0129652)
(4.0072e-20 3.88098e-19 -0.0111248)
(-2.15911e-20 -2.14352e-19 -0.00948328)
(1.9065e-20 2.20065e-19 -0.00802645)
(-1.87886e-20 -2.19928e-19 -0.00673966)
(7.68136e-22 1.31889e-20 -0.00560717)
(-4.57066e-21 -6.67575e-20 -0.00460995)
(1.87292e-21 2.65465e-20 -0.00371902)
(-1.94734e-19 -4.68555e-19 -0.100879)
(6.27076e-21 -4.77388e-21 -0.0943378)
(3.22326e-21 -5.53947e-23 -0.0878727)
(-1.17766e-21 1.0489e-20 -0.0815306)
(-1.8836e-19 -5.72325e-19 -0.0753466)
(1.89291e-19 5.65519e-19 -0.0693497)
(-2.33537e-21 2.35602e-21 -0.06357)
(3.15331e-22 -1.82065e-23 -0.058032)
(3.56309e-21 1.0582e-20 -0.0527556)
(-1.60833e-19 -6.58708e-19 -0.0477556)
(3.23165e-19 1.35984e-18 -0.0430429)
(-1.5759e-19 -6.80812e-19 -0.0386239)
(2.46257e-21 1.03117e-20 -0.0345018)
(2.07409e-21 1.11689e-20 -0.030676)
(6.58525e-20 3.73081e-19 -0.0271432)
(-1.26279e-19 -7.39889e-19 -0.0238974)
(6.39427e-20 3.90194e-19 -0.0209302)
(-5.39823e-20 -3.79965e-19 -0.0182314)
(3.18723e-21 -6.77588e-21 -0.0157892)
(4.09026e-21 6.08671e-21 -0.0135905)
(5.08953e-20 4.13739e-19 -0.0116212)
(2.29953e-20 2.18219e-19 -0.00986659)
(-2.2797e-20 -2.18003e-19 -0.00831125)
(1.01468e-21 1.3122e-20 -0.00693936)
(8.91147e-21 1.05616e-19 -0.00573399)
(-7.90547e-21 -9.21589e-20 -0.00467439)
(9.47235e-22 1.33275e-20 -0.0037223)
(0 4.48877e-24 -0.000395199)
(0 -0 -0.000322412)
(0 -0 -0.000260559)
(0 -0 -0.000208441)
(0 -0 -0.000164912)
(0 -0 -0.000128884)
(0 -0 -9.93398e-05)
(0 -0 -7.53428e-05)
(0 -0 -5.60427e-05)
(0 -0 -4.06742e-05)
(0 -0 -2.85554e-05)
(0 -0 -1.90849e-05)
(0 -0 -1.17366e-05)
(0 -0 -6.05542e-06)
(0 -0 -1.65026e-06)
(0 -0 1.81197e-06)
(0 -0 4.61317e-06)
(0 -0 6.99003e-06)
(0 -0 9.13851e-06)
(0 -0 1.12163e-05)
(0 -0 1.33422e-05)
(0 -0 1.5593e-05)
(0 -0 1.79977e-05)
(0 -0 2.05317e-05)
(0 -0 2.3113e-05)
(0 -0 2.56033e-05)
(0 -0 2.78184e-05)
(0 -0 2.95481e-05)
(0 -0 3.05862e-05)
(0 -0 3.07654e-05)
(0 -0 2.99919e-05)
(0 -0 2.82697e-05)
(0 -0 2.57089e-05)
(0 -0 2.25135e-05)
(0 -0 1.89505e-05)
(0 -0 1.53067e-05)
(0 -0 1.18451e-05)
(0 -0 8.76888e-06)
(0 -0 6.20184e-06)
(0 -0 4.18658e-06)
(0 -0 2.6978e-06)
(0 -0 1.6642e-06)
(0 -0 9.91461e-07)
(0 -0 5.88956e-07)
(0 -1.34799e-23 -0.00115448)
(0 -0 -0.000941557)
(0 -0 -0.000760677)
(0 -0 -0.000608303)
(0 -0 -0.000481054)
(0 -0 -0.000375733)
(0 -0 -0.000289362)
(0 -0 -0.000219212)
(0 -0 -0.000162799)
(0 -0 -0.000117892)
(0 -0 -8.2501e-05)
(0 -0 -5.48655e-05)
(0 -0 -3.34461e-05)
(0 -0 -1.69076e-05)
(0 -0 -4.10204e-06)
(0 -0 5.94965e-06)
(0 -0 1.40766e-05)
(0 -0 2.09753e-05)
(0 -0 2.72225e-05)
(0 -0 3.3282e-05)
(0 -0 3.95027e-05)
(0 -0 4.61096e-05)
(0 -0 5.31861e-05)
(0 -0 6.06572e-05)
(0 -0 6.82774e-05)
(0 -0 7.56352e-05)
(0 -0 8.2183e-05)
(0 -0 8.72965e-05)
(0 -0 9.03631e-05)
(0 -0 9.08864e-05)
(0 -0 8.85875e-05)
(0 -0 8.34781e-05)
(0 -0 7.58846e-05)
(0 -0 6.6412e-05)
(0 -0 5.58514e-05)
(0 -0 4.50542e-05)
(0 -0 3.47999e-05)
(0 -0 2.56908e-05)
(0 -0 1.80939e-05)
(0 -0 1.21351e-05)
(0 -0 7.73885e-06)
(0 -0 4.69315e-06)
(0 -0 2.71778e-06)
(0 -0 1.54482e-06)
(0 -8.98086e-24 -0.00182415)
(0 -0 -0.00148712)
(0 -0 -0.00120103)
(0 -0 -0.000960101)
(0 -0 -0.000758894)
(0 -0 -0.000592313)
(0 -0 -0.00045566)
(0 -0 -0.00034464)
(0 -0 -0.000255355)
(0 -0 -0.000184293)
(0 -0 -0.000128317)
(0 -0 -8.4644e-05)
(0 -0 -5.08344e-05)
(0 -0 -2.47661e-05)
(0 -0 -4.61121e-06)
(0 -0 1.11924e-05)
(0 -0 2.39695e-05)
(0 -0 3.48343e-05)
(0 -0 4.47104e-05)
(0 -0 5.43407e-05)
(0 -0 6.42843e-05)
(0 -0 7.48996e-05)
(0 -0 8.63174e-05)
(0 -0 9.84107e-05)
(0 -0 0.000110776)
(0 -0 0.00012274)
(0 -0 0.000133406)
(0 -0 0.000141755)
(0 -0 0.000146784)
(0 -0 0.000147681)
(0 -0 0.000143985)
(0 -0 0.000135712)
(0 -0 0.000123389)
(0 -0 0.000107999)
(0 -0 9.08293e-05)
(0 -0 7.32661e-05)
(0 -0 5.65803e-05)
(0 -0 4.17548e-05)
(0 -0 2.9389e-05)
(0 -0 1.96898e-05)
(0 -0 1.25351e-05)
(0 -0 7.58051e-06)
(0 -0 4.36972e-06)
(0 -0 2.46737e-06)
(0 -1.65343e-23 -0.00235727)
(0 -0 -0.00192112)
(0 -0 -0.0015512)
(0 -0 -0.00123968)
(0 -0 -0.000979334)
(0 -0 -0.000763601)
(0 -0 -0.000586478)
(0 -0 -0.000442494)
(0 -0 -0.000326676)
(0 -0 -0.000234521)
(0 -0 -0.000161986)
(0 -0 -0.000105468)
(0 -0 -6.17948e-05)
(0 -0 -2.81957e-05)
(0 -0 -2.27727e-06)
(0 -0 1.80113e-05)
(0 -0 3.44132e-05)
(0 -0 4.83972e-05)
(0 -0 6.11826e-05)
(0 -0 7.37506e-05)
(0 -0 8.68395e-05)
(0 -0 0.00010092)
(0 -0 0.000116159)
(0 -0 0.000132377)
(0 -0 0.00014902)
(0 -0 0.000165172)
(0 -0 0.000179614)
(0 -0 0.00019096)
(0 -0 0.000197844)
(0 -0 0.000199158)
(0 -0 0.000194269)
(0 -0 0.000183187)
(0 -0 0.000166618)
(0 -0 0.000145885)
(0 -0 0.000122726)
(0 -0 9.90162e-05)
(0 -0 7.64771e-05)
(0 -0 5.64418e-05)
(0 -0 3.97252e-05)
(0 -0 2.6611e-05)
(0 -0 1.69369e-05)
(0 -0 1.0239e-05)
(0 -0 5.90057e-06)
(0 -0 3.33425e-06)
(0 4.10406e-25 -0.00272449)
(0 -0 -0.00222104)
(0 -0 -0.00179395)
(0 -0 -0.00143367)
(0 -0 -0.00113193)
(0 -0 -0.000881391)
(0 -0 -0.000675369)
(0 -0 -0.000507737)
(0 -0 -0.000372866)
(0 -0 -0.000265604)
(0 -0 -0.000181286)
(0 -0 -0.000115724)
(0 -0 -6.52036e-05)
(0 -0 -2.64687e-05)
(0 -0 3.30628e-06)
(0 -0 2.65501e-05)
(0 -0 4.53325e-05)
(0 -0 6.14012e-05)
(0 -0 7.62091e-05)
(0 -0 9.0927e-05)
(0 -0 0.000106435)
(0 -0 0.000123291)
(0 -0 0.000141683)
(0 -0 0.00016138)
(0 -0 0.000181692)
(0 -0 0.000201484)
(0 -0 0.000219251)
(0 -0 0.000233275)
(0 -0 0.000241868)
(0 -0 0.000243651)
(0 -0 0.00023783)
(0 -0 0.000224402)
(0 -0 0.000204219)
(0 -0 0.000178896)
(0 -0 0.000150563)
(0 -0 0.000121522)
(0 -0 9.38905e-05)
(0 -0 6.9313e-05)
(0 -0 4.8797e-05)
(0 -0 3.26971e-05)
(0 -0 2.08191e-05)
(0 -0 1.25963e-05)
(0 -0 7.27252e-06)
(0 -0 4.12875e-06)
(0 -1.4695e-23 -0.00291908)
(0 -0 -0.00238449)
(0 -0 -0.00192872)
(0 -0 -0.00154191)
(0 -0 -0.00121647)
(0 -0 -0.000945356)
(0 -0 -0.000721942)
(0 -0 -0.000539978)
(0 -0 -0.00039358)
(0 -0 -0.000277277)
(0 -0 -0.000186044)
(0 -0 -0.000115331)
(0 -0 -6.10707e-05)
(0 -0 -1.96785e-05)
(0 -0 1.197e-05)
(0 -0 3.65689e-05)
(0 -0 5.64206e-05)
(0 -0 7.34728e-05)
(0 -0 8.93481e-05)
(0 -0 0.000105355)
(0 -0 0.000122475)
(0 -0 0.000141327)
(0 -0 0.000162109)
(0 -0 0.000184539)
(0 -0 0.000207809)
(0 -0 0.000230597)
(0 -0 0.00025115)
(0 -0 0.000267472)
(0 -0 0.000277592)
(0 -0 0.000279897)
(0 -0 0.000273447)
(0 -0 0.000258212)
(0 -0 0.000235156)
(0 -0 0.00020613)
(0 -0 0.000173583)
(0 -0 0.000140174)
(0 -0 0.000108352)
(0 -0 8.00238e-05)
(0 -0 5.63622e-05)
(0 -0 3.77863e-05)
(0 -0 2.4079e-05)
(0 -0 1.45909e-05)
(0 -0 8.45095e-06)
(0 -0 4.83218e-06)
(0 -6.9142e-24 -0.00296343)
(0 -0 -0.00243385)
(0 -0 -0.00197247)
(0 -0 -0.00157716)
(0 -0 -0.00124229)
(0 -0 -0.000962372)
(0 -0 -0.00073131)
(0 -0 -0.000543053)
(0 -0 -0.000391729)
(0 -0 -0.000271769)
(0 -0 -0.000177988)
(0 -0 -0.000105645)
(0 -0 -5.04735e-05)
(0 -0 -8.69432e-06)
(0 -0 2.29994e-05)
(0 -0 4.7467e-05)
(0 -0 6.71574e-05)
(0 -0 8.4146e-05)
(0 -0 0.000100164)
(0 -0 0.000116608)
(0 -0 0.000134524)
(0 -0 0.000154569)
(0 -0 0.000176939)
(0 -0 0.000201306)
(0 -0 0.000226766)
(0 -0 0.000251844)
(0 -0 0.000274591)
(0 -0 0.000292784)
(0 -0 0.000304223)
(0 -0 0.000307096)
(0 -0 0.000300334)
(0 -0 0.000283875)
(0 -0 0.000258754)
(0 -0 0.000226993)
(0 -0 0.000191288)
(0 -0 0.000154569)
(0 -0 0.000119549)
(0 -0 8.83411e-05)
(0 -0 6.22557e-05)
(0 -0 4.17668e-05)
(0 -0 2.66447e-05)
(0 -0 1.61786e-05)
(0 -0 9.4097e-06)
(0 -0 5.42876e-06)
(0 -0 -0.00294598)
(0 -0 -0.00241354)
(0 -0 -0.00195248)
(0 -0 -0.00155705)
(0 -0 -0.00122185)
(0 -0 -0.000941311)
(0 -0 -0.00070984)
(0 -0 -0.000521535)
(0 -0 -0.000370583)
(0 -0 -0.000251399)
(0 -0 -0.000158742)
(0 -0 -8.77852e-05)
(0 -0 -3.41673e-05)
(0 -0 5.98928e-06)
(0 -0 3.6084e-05)
(0 -0 5.90614e-05)
(0 -0 7.74459e-05)
(0 -0 9.33792e-05)
(0 -0 0.000108648)
(0 -0 0.000124696)
(0 -0 0.000142601)
(0 -0 0.000163033)
(0 -0 0.000186183)
(0 -0 0.000211682)
(0 -0 0.000238552)
(0 -0 0.000265206)
(0 -0 0.000289546)
(0 -0 0.000309175)
(0 -0 0.000321715)
(0 -0 0.000325197)
(0 -0 0.000318439)
(0 -0 0.000301334)
(0 -0 0.000274953)
(0 -0 0.000241427)
(0 -0 0.000203618)
(0 -0 0.000164652)
(0 -0 0.000127428)
(0 -0 9.42184e-05)
(0 -0 6.64361e-05)
(0 -0 4.46029e-05)
(0 -0 2.84856e-05)
(0 -0 1.73338e-05)
(0 -0 1.01279e-05)
(0 -0 5.90241e-06)
(0 -0 -0.00287532)
(0 -0 -0.00235123)
(0 -0 -0.00189572)
(0 -0 -0.0015051)
(0 -0 -0.00117412)
(0 -0 -0.000897587)
(0 -0 -0.00067004)
(0 -0 -0.000485587)
(0 -0 -0.000338408)
(0 -0 -0.000222898)
(0 -0 -0.000133784)
(0 -0 -6.62049e-05)
(0 -0 -1.57639e-05)
(0 -0 2.14511e-05)
(0 -0 4.88698e-05)
(0 -0 6.94625e-05)
(0 -0 8.57755e-05)
(0 -0 9.99681e-05)
(0 -0 0.000113842)
(0 -0 0.000128851)
(0 -0 0.00014608)
(0 -0 0.000166201)
(0 -0 0.000189392)
(0 -0 0.000215259)
(0 -0 0.000242777)
(0 -0 0.000270289)
(0 -0 0.000295605)
(0 -0 0.000316216)
(0 -0 0.000329625)
(0 -0 0.000333749)
(0 -0 0.000327315)
(0 -0 0.000310165)
(0 -0 0.000283365)
(0 -0 0.000249091)
(0 -0 0.000210288)
(0 -0 0.000170193)
(0 -0 0.000131817)
(0 -0 9.75303e-05)
(0 -0 6.88174e-05)
(0 -0 4.62379e-05)
(0 -0 2.95657e-05)
(0 -0 1.80335e-05)
(0 -0 1.05893e-05)
(0 -0 6.24096e-06)
(0 -0 -0.00280164)
(0 -0 -0.00227602)
(0 -0 -0.00182342)
(0 -0 -0.0014378)
(0 -0 -0.00111263)
(0 -0 -0.000842245)
(0 -0 -0.000620885)
(0 -0 -0.000442457)
(0 -0 -0.000301017)
(0 -0 -0.000190887)
(0 -0 -0.000106754)
(0 -0 -4.37358e-05)
(0 -0 2.56885e-06)
(0 -0 3.60669e-05)
(0 -0 6.0176e-05)
(0 -0 7.78502e-05)
(0 -0 9.16172e-05)
(0 -0 0.000103617)
(0 -0 0.000115634)
(0 -0 0.000129106)
(0 -0 0.000145106)
(0 -0 0.000164293)
(0 -0 0.000186838)
(0 -0 0.000212335)
(0 -0 0.000239745)
(0 -0 0.000267387)
(0 -0 0.000293035)
(0 -0 0.000314136)
(0 -0 0.000328134)
(0 -0 0.000332882)
(0 -0 0.000327043)
(0 -0 0.000310403)
(0 -0 0.000283987)
(0 -0 0.000249954)
(0 -0 0.000211251)
(0 -0 0.000171137)
(0 -0 0.000132659)
(0 -0 9.82251e-05)
(0 -0 6.93555e-05)
(0 -0 4.66367e-05)
(0 -0 2.98577e-05)
(0 -0 1.8257e-05)
(0 -0 1.07782e-05)
(0 -0 6.43153e-06)
(0 -0 -0.00272101)
(0 -0 -0.00219512)
(0 -0 -0.001746)
(0 -0 -0.00136598)
(0 -0 -0.00104752)
(0 -0 -0.000784311)
(0 -0 -0.000570174)
(0 -0 -0.000398735)
(0 -0 -0.000263877)
(0 -0 -0.000159827)
(0 -0 -8.12276e-05)
(0 -0 -2.31919e-05)
(0 -0 1.86657e-05)
(0 -0 4.82199e-05)
(0 -0 6.88473e-05)
(0 -0 8.34564e-05)
(0 -0 9.45284e-05)
(0 -0 0.000104159)
(0 -0 0.000114092)
(0 -0 0.000125729)
(0 -0 0.00014012)
(0 -0 0.000157907)
(0 -0 0.000179254)
(0 -0 0.000203764)
(0 -0 0.000230411)
(0 -0 0.000257535)
(0 -0 0.000282931)
(0 -0 0.000304061)
(0 -0 0.000318369)
(0 -0 0.000323691)
(0 -0 0.000318655)
(0 -0 0.000302989)
(0 -0 0.000277651)
(0 -0 0.000244722)
(0 -0 0.000207083)
(0 -0 0.000167936)
(0 -0 0.000130292)
(0 -0 9.65441e-05)
(0 -0 6.82133e-05)
(0 -0 4.59016e-05)
(0 -0 2.94206e-05)
(0 -0 1.80332e-05)
(0 -0 1.0704e-05)
(0 -0 6.47183e-06)
(0 -0 -0.00262875)
(0 -0 -0.00210827)
(0 -0 -0.00166607)
(0 -0 -0.00129389)
(0 -0 -0.000983667)
(0 -0 -0.000728697)
(0 -0 -0.000522516)
(0 -0 -0.000358548)
(0 -0 -0.000230557)
(0 -0 -0.000132715)
(0 -0 -5.96573e-05)
(0 -0 -6.52119e-06)
(0 -0 3.10314e-05)
(0 -0 5.68145e-05)
(0 -0 7.41373e-05)
(0 -0 8.58388e-05)
(0 -0 9.4332e-05)
(0 -0 0.000101649)
(0 -0 0.000109476)
(0 -0 0.000119169)
(0 -0 0.000131741)
(0 -0 0.000147819)
(0 -0 0.000167566)
(0 -0 0.000190606)
(0 -0 0.000215956)
(0 -0 0.000242017)
(0 -0 0.000266654)
(0 -0 0.000287397)
(0 -0 0.000301746)
(0 -0 0.000307565)
(0 -0 0.00030347)
(0 -0 0.000289136)
(0 -0 0.00026543)
(0 -0 0.000234314)
(0 -0 0.000198539)
(0 -0 0.000161186)
(0 -0 0.000125166)
(0 -0 9.28099e-05)
(0 -0 6.561e-05)
(0 -0 4.41723e-05)
(0 -0 2.83359e-05)
(0 -0 1.74039e-05)
(0 -0 1.03828e-05)
(0 -0 6.36202e-06)
(0 -0 -0.00252101)
(0 -0 -0.00201304)
(0 -0 -0.0015828)
(0 -0 -0.00122195)
(0 -0 -0.000922302)
(0 -0 -0.000677076)
(0 -0 -0.00047975)
(0 -0 -0.000323713)
(0 -0 -0.000202731)
(0 -0 -0.000111015)
(0 -0 -4.32607e-05)
(0 -0 5.31224e-06)
(0 -0 3.89497e-05)
(0 -0 6.13687e-05)
(0 -0 7.57808e-05)
(0 -0 8.49313e-05)
(0 -0 9.1145e-05)
(0 -0 9.63738e-05)
(0 -0 0.000102234)
(0 -0 0.000110026)
(0 -0 0.000120721)
(0 -0 0.000134926)
(0 -0 0.000152813)
(0 -0 0.000174039)
(0 -0 0.000197689)
(0 -0 0.000222255)
(0 -0 0.000245715)
(0 -0 0.000265713)
(0 -0 0.000279853)
(0 -0 0.000286064)
(0 -0 0.000282977)
(0 -0 0.00027022)
(0 -0 0.000248553)
(0 -0 0.000219786)
(0 -0 0.000186492)
(0 -0 0.000151577)
(0 -0 0.000117805)
(0 -0 8.74013e-05)
(0 -0 6.18053e-05)
(0 -0 4.16165e-05)
(0 -0 2.67041e-05)
(0 -0 1.64229e-05)
(0 -0 9.83826e-06)
(0 -0 6.10723e-06)
(0 -0 -0.00239547)
(0 -0 -0.00190725)
(0 -0 -0.00149445)
(0 -0 -0.00114895)
(0 -0 -0.00086271)
(0 -0 -0.000629119)
(0 -0 -0.000441813)
(0 -0 -0.000294324)
(0 -0 -0.000180567)
(0 -0 -9.49016e-05)
(0 -0 -3.21788e-05)
(0 -0 1.22296e-05)
(0 -0 4.2421e-05)
(0 -0 6.19712e-05)
(0 -0 7.39605e-05)
(0 -0 8.10133e-05)
(0 -0 8.5346e-05)
(0 -0 8.88148e-05)
(0 -0 9.29544e-05)
(0 -0 9.89989e-05)
(0 -0 0.000107876)
(0 -0 0.000120172)
(0 -0 0.000136067)
(0 -0 0.000155268)
(0 -0 0.00017694)
(0 -0 0.000199695)
(0 -0 0.000221655)
(0 -0 0.000240617)
(0 -0 0.000254324)
(0 -0 0.000260803)
(0 -0 0.000258723)
(0 -0 0.000247675)
(0 -0 0.000228305)
(0 -0 0.000202247)
(0 -0 0.000171862)
(0 -0 0.000139843)
(0 -0 0.000108767)
(0 -0 8.07243e-05)
(0 -0 5.70797e-05)
(0 -0 3.84173e-05)
(0 -0 2.46366e-05)
(0 -0 1.51523e-05)
(0 -0 9.10005e-06)
(0 -0 5.7174e-06)
(0 -0 -0.00225186)
(0 -0 -0.0017899)
(0 -0 -0.00139969)
(0 -0 -0.00107348)
(0 -0 -0.000803532)
(0 -0 -0.000583595)
(0 -0 -0.000407625)
(0 -0 -0.000269446)
(0 -0 -0.000163252)
(0 -0 -8.36628e-05)
(0 -0 -2.57746e-05)
(0 -0 1.48148e-05)
(0 -0 4.19954e-05)
(0 -0 5.91555e-05)
(0 -0 6.92079e-05)
(0 -0 7.46289e-05)
(0 -0 7.75056e-05)
(0 -0 7.95827e-05)
(0 -0 8.23019e-05)
(0 -0 8.68239e-05)
(0 -0 9.40261e-05)
(0 -0 0.000104472)
(0 -0 0.000118356)
(0 -0 0.000135434)
(0 -0 0.000154969)
(0 -0 0.000175709)
(0 -0 0.000195941)
(0 -0 0.000213643)
(0 -0 0.000226724)
(0 -0 0.000233336)
(0 -0 0.000232206)
(0 -0 0.000222898)
(0 -0 0.000205942)
(0 -0 0.000182784)
(0 -0 0.000155556)
(0 -0 0.000126708)
(0 -0 9.86075e-05)
(0 -0 7.31847e-05)
(0 -0 5.17159e-05)
(0 -0 3.47608e-05)
(0 -0 2.22486e-05)
(0 -0 1.36581e-05)
(0 -0 8.20203e-06)
(0 -0 5.20658e-06)
(0 -0 -0.00209185)
(0 -0 -0.00166148)
(0 -0 -0.00129819)
(0 -0 -0.000994639)
(0 -0 -0.000743563)
(0 -0 -0.000539152)
(0 -0 -0.000375795)
(0 -0 -0.000247723)
(0 -0 -0.000149506)
(0 -0 -7.61157e-05)
(0 -0 -2.29677e-05)
(0 -0 1.40484e-05)
(0 -0 3.85626e-05)
(0 -0 5.37332e-05)
(0 -0 6.2272e-05)
(0 -0 6.64814e-05)
(0 -0 6.82995e-05)
(0 -0 6.93449e-05)
(0 -0 7.09554e-05)
(0 -0 7.42105e-05)
(0 -0 7.99317e-05)
(0 -0 8.86576e-05)
(0 -0 0.000100594)
(0 -0 0.000115552)
(0 -0 0.000132894)
(0 -0 0.000151515)
(0 -0 0.000169881)
(0 -0 0.000186167)
(0 -0 0.000198465)
(0 -0 0.000205073)
(0 -0 0.000204792)
(0 -0 0.000197167)
(0 -0 0.000182619)
(0 -0 0.000162406)
(0 -0 0.000138417)
(0 -0 0.000112851)
(0 -0 8.7847e-05)
(0 -0 6.51656e-05)
(0 -0 4.5982e-05)
(0 -0 3.08257e-05)
(0 -0 1.96527e-05)
(0 -0 1.20065e-05)
(0 -0 7.18022e-06)
(0 -0 4.59218e-06)
(0 -0 -0.00191872)
(0 -0 -0.00152384)
(0 -0 -0.00119065)
(0 -0 -0.000912339)
(0 -0 -0.000682138)
(0 -0 -0.000494757)
(0 -0 -0.000345083)
(0 -0 -0.000227819)
(0 -0 -0.000137982)
(0 -0 -7.09562e-05)
(0 -0 -2.25333e-05)
(0 -0 1.10579e-05)
(0 -0 3.31466e-05)
(0 -0 4.66276e-05)
(0 -0 5.39846e-05)
(0 -0 5.7325e-05)
(0 -0 5.84214e-05)
(0 -0 5.87539e-05)
(0 -0 5.95469e-05)
(0 -0 6.17916e-05)
(0 -0 6.62487e-05)
(0 -0 7.34274e-05)
(0 -0 8.35426e-05)
(0 -0 9.64584e-05)
(0 -0 0.000111638)
(0 -0 0.000128123)
(0 -0 0.000144566)
(0 -0 0.000159342)
(0 -0 0.000170741)
(0 -0 0.000177215)
(0 -0 0.000177648)
(0 -0 0.000171583)
(0 -0 0.000159339)
(0 -0 0.000141989)
(0 -0 0.000121184)
(0 -0 9.8867e-05)
(0 -0 7.69476e-05)
(0 -0 5.7009e-05)
(0 -0 4.012e-05)
(0 -0 2.67749e-05)
(0 -0 1.69531e-05)
(0 -0 1.0261e-05)
(0 -0 6.07113e-06)
(0 -0 3.89413e-06)
(0 -0 -0.00173682)
(0 -0 -0.00137981)
(0 -0 -0.00107872)
(0 -0 -0.000827269)
(0 -0 -0.000619241)
(0 -0 -0.000449888)
(0 -0 -0.000314627)
(0 -0 -0.000208672)
(0 -0 -0.000127521)
(0 -0 -6.70045e-05)
(0 -0 -2.33247e-05)
(0 -0 6.92196e-06)
(0 -0 2.67381e-05)
(0 -0 3.87332e-05)
(0 -0 4.51452e-05)
(0 -0 4.78717e-05)
(0 -0 4.85083e-05)
(0 -0 4.83879e-05)
(0 -0 4.86145e-05)
(0 -0 5.00854e-05)
(0 -0 5.34959e-05)
(0 -0 5.93217e-05)
(0 -0 6.77819e-05)
(0 -0 7.87891e-05)
(0 -0 9.19029e-05)
(0 -0 0.000106308)
(0 -0 0.000120838)
(0 -0 0.000134071)
(0 -0 0.000144493)
(0 -0 0.000150715)
(0 -0 0.000151714)
(0 -0 0.000147039)
(0 -0 0.000136919)
(0 -0 0.000122254)
(0 -0 0.000104466)
(0 -0 8.5253e-05)
(0 -0 6.62963e-05)
(0 -0 4.90037e-05)
(0 -0 3.43361e-05)
(0 -0 2.27493e-05)
(0 -0 1.42422e-05)
(0 -0 8.47957e-06)
(0 -0 4.91024e-06)
(0 -0 3.13398e-06)
(0 -0 -0.00155104)
(0 -0 -0.00123284)
(0 -0 -0.000964647)
(0 -0 -0.000740729)
(0 -0 -0.000555426)
(0 -0 -0.000404538)
(0 -0 -0.000284019)
(0 -0 -0.000189605)
(0 -0 -0.000117283)
(0 -0 -6.33436e-05)
(0 -0 -2.44099e-05)
(0 -0 2.54261e-06)
(0 -0 2.01799e-05)
(0 -0 3.08171e-05)
(0 -0 3.64379e-05)
(0 -0 3.87236e-05)
(0 -0 3.90876e-05)
(0 -0 3.87106e-05)
(0 -0 3.85728e-05)
(0 -0 3.94744e-05)
(0 -0 4.20415e-05)
(0 -0 4.67122e-05)
(0 -0 5.37048e-05)
(0 -0 6.29736e-05)
(0 -0 7.41667e-05)
(0 -0 8.66022e-05)
(0 -0 9.92875e-05)
(0 -0 0.000110994)
(0 -0 0.000120398)
(0 -0 0.00012627)
(0 -0 0.000127684)
(0 -0 0.000124201)
(0 -0 0.000115975)
(0 -0 0.000103749)
(0 -0 8.87346e-05)
(0 -0 7.2395e-05)
(0 -0 5.61969e-05)
(0 -0 4.13789e-05)
(0 -0 2.87963e-05)
(0 -0 1.88645e-05)
(0 -0 1.15975e-05)
(0 -0 6.71327e-06)
(0 -0 3.73078e-06)
(0 -0 2.33392e-06)
(0 -0 -0.00136627)
(0 -0 -0.00108655)
(0 -0 -0.000850983)
(0 -0 -0.000654384)
(0 -0 -0.00049165)
(0 -0 -0.000359115)
(0 -0 -0.000253257)
(0 -0 -0.00017032)
(0 -0 -0.000106776)
(0 -0 -5.93675e-05)
(0 -0 -2.51309e-05)
(0 -0 -1.41706e-06)
(0 -0 1.41066e-05)
(0 -0 2.34631e-05)
(0 -0 2.83839e-05)
(0 -0 3.03348e-05)
(0 -0 3.05472e-05)
(0 -0 3.00506e-05)
(0 -0 2.97007e-05)
(0 -0 3.02e-05)
(0 -0 3.21037e-05)
(0 -0 3.58088e-05)
(0 -0 4.15275e-05)
(0 -0 4.92483e-05)
(0 -0 5.8697e-05)
(0 -0 6.93138e-05)
(0 -0 8.02647e-05)
(0 -0 9.05022e-05)
(0 -0 9.88827e-05)
(0 -0 0.000104329)
(0 -0 0.000106012)
(0 -0 0.000103514)
(0 -0 9.69277e-05)
(0 -0 8.68564e-05)
(0 -0 7.43191e-05)
(0 -0 6.05677e-05)
(0 -0 4.6869e-05)
(0 -0 3.43033e-05)
(0 -0 2.36251e-05)
(0 -0 1.52094e-05)
(0 -0 9.08101e-06)
(0 -0 5.00468e-06)
(0 -0 2.56263e-06)
(0 -0 1.51578e-06)
(0 -0 -0.00118703)
(0 -0 -0.00094439)
(0 -0 -0.000740265)
(0 -0 -0.000570021)
(0 -0 -0.000429084)
(0 -0 -0.000314298)
(0 -0 -0.000222639)
(0 -0 -0.000150835)
(0 -0 -9.58203e-05)
(0 -0 -5.47652e-05)
(0 -0 -2.51032e-05)
(0 -0 -4.54261e-06)
(0 -0 8.92979e-06)
(0 -0 1.70569e-05)
(0 -0 2.13275e-05)
(0 -0 2.29999e-05)
(0 -0 2.31299e-05)
(0 -0 2.26001e-05)
(0 -0 2.21455e-05)
(0 -0 2.23724e-05)
(0 -0 2.37652e-05)
(0 -0 2.6678e-05)
(0 -0 3.1312e-05)
(0 -0 3.76815e-05)
(0 -0 4.55791e-05)
(0 -0 5.45524e-05)
(0 -0 6.39095e-05)
(0 -0 7.27677e-05)
(0 -0 8.01489e-05)
(0 -0 8.51185e-05)
(0 -0 8.6942e-05)
(0 -0 8.52279e-05)
(0 -0 8.00185e-05)
(0 -0 7.17993e-05)
(0 -0 6.14199e-05)
(0 -0 4.99423e-05)
(0 -0 3.84529e-05)
(0 -0 2.78874e-05)
(0 -0 1.89067e-05)
(0 -0 1.18465e-05)
(0 -0 6.73853e-06)
(0 -0 3.3876e-06)
(0 -0 1.4314e-06)
(0 -0 7.00082e-07)
(0 -0 -0.00101714)
(0 -0 -0.000809346)
(0 -0 -0.000634784)
(0 -0 -0.000489333)
(0 -0 -0.000368929)
(0 -0 -0.000270888)
(0 -0 -0.000192648)
(0 -0 -0.000131388)
(0 -0 -8.44717e-05)
(0 -0 -4.94679e-05)
(0 -0 -2.41776e-05)
(0 -0 -6.6416e-06)
(0 -0 4.85646e-06)
(0 -0 1.17984e-05)
(0 -0 1.54464e-05)
(0 -0 1.68646e-05)
(0 -0 1.6944e-05)
(0 -0 1.64285e-05)
(0 -0 1.5939e-05)
(0 -0 1.59899e-05)
(0 -0 1.69968e-05)
(0 -0 1.92701e-05)
(0 -0 2.2996e-05)
(0 -0 2.82074e-05)
(0 -0 3.47518e-05)
(0 -0 4.22688e-05)
(0 -0 5.01915e-05)
(0 -0 5.77826e-05)
(0 -0 6.42134e-05)
(0 -0 6.86792e-05)
(0 -0 7.05346e-05)
(0 -0 6.94177e-05)
(0 -0 6.53335e-05)
(0 -0 5.86675e-05)
(0 -0 5.01239e-05)
(0 -0 4.05984e-05)
(0 -0 3.10182e-05)
(0 -0 2.21899e-05)
(0 -0 1.46892e-05)
(0 -0 8.81415e-06)
(0 -0 4.6008e-06)
(0 -0 1.88704e-06)
(0 -0 3.58099e-07)
(0 -0 -9.47385e-08)
(0 -0 -0.000859573)
(0 -0 -0.000683805)
(0 -0 -0.000536419)
(0 -0 -0.000413771)
(0 -0 -0.000312273)
(0 -0 -0.000229674)
(0 -0 -0.000163831)
(0 -0 -0.000112336)
(0 -0 -7.29411e-05)
(0 -0 -4.3579e-05)
(0 -0 -2.23833e-05)
(0 -0 -7.69702e-06)
(0 -0 1.92718e-06)
(0 -0 7.73387e-06)
(0 -0 1.07791e-05)
(0 -0 1.19498e-05)
(0 -0 1.19861e-05)
(0 -0 1.15049e-05)
(0 -0 1.10213e-05)
(0 -0 1.09644e-05)
(0 -0 1.16845e-05)
(0 -0 1.34492e-05)
(0 -0 1.64269e-05)
(0 -0 2.0662e-05)
(0 -0 2.60462e-05)
(0 -0 3.22963e-05)
(0 -0 3.8952e-05)
(0 -0 4.54024e-05)
(0 -0 5.09501e-05)
(0 -0 5.49067e-05)
(0 -0 5.67086e-05)
(0 -0 5.60254e-05)
(0 -0 5.28351e-05)
(0 -0 4.74413e-05)
(0 -0 4.04253e-05)
(0 -0 3.25406e-05)
(0 -0 2.45763e-05)
(0 -0 1.72258e-05)
(0 -0 1.09892e-05)
(0 -0 6.12985e-06)
(0 -0 2.68492e-06)
(0 -0 5.19612e-07)
(0 -0 -6.41162e-07)
(0 -0 -8.53e-07)
(0 -0 -0.000716378)
(0 -0 -0.000569458)
(0 -0 -0.000446546)
(0 -0 -0.000344443)
(0 -0 -0.000259995)
(0 -0 -0.00019134)
(0 -0 -0.000136711)
(0 -0 -9.40693e-05)
(0 -0 -6.15149e-05)
(0 -0 -3.73041e-05)
(0 -0 -1.98669e-05)
(0 -0 -7.81426e-06)
(0 -0 6.19124e-08)
(0 -0 4.79553e-06)
(0 -0 7.25937e-06)
(0 -0 8.1824e-06)
(0 -0 8.17004e-06)
(0 -0 7.72525e-06)
(0 -0 7.26778e-06)
(0 -0 7.14899e-06)
(0 -0 7.65906e-06)
(0 -0 9.02435e-06)
(0 -0 1.13942e-05)
(0 -0 1.48189e-05)
(0 -0 1.92243e-05)
(0 -0 2.43905e-05)
(0 -0 2.99463e-05)
(0 -0 3.53888e-05)
(0 -0 4.01332e-05)
(0 -0 4.35937e-05)
(0 -0 4.52801e-05)
(0 -0 4.48935e-05)
(0 -0 4.23937e-05)
(0 -0 3.80186e-05)
(0 -0 3.2248e-05)
(0 -0 2.57154e-05)
(0 -0 1.90928e-05)
(0 -0 1.29759e-05)
(0 -0 7.79899e-06)
(0 -0 3.79366e-06)
(0 -0 9.96473e-07)
(0 -0 -7.05608e-07)
(0 -0 -1.55508e-06)
(0 -0 -1.56213e-06)
(0 -0 -0.000588714)
(0 -0 -0.000467301)
(0 -0 -0.000366021)
(0 -0 -0.000282077)
(0 -0 -0.000212711)
(0 -0 -0.000156405)
(0 -0 -0.000111721)
(0 -0 -7.69484e-05)
(0 -0 -5.0492e-05)
(0 -0 -3.08918e-05)
(0 -0 -1.68364e-05)
(0 -0 -7.17067e-06)
(0 -0 -8.94778e-07)
(0 -0 2.84182e-06)
(0 -0 4.75227e-06)
(0 -0 5.4278e-06)
(0 -0 5.35602e-06)
(0 -0 4.93982e-06)
(0 -0 4.51491e-06)
(0 -0 4.3635e-06)
(0 -0 4.72146e-06)
(0 -0 5.77691e-06)
(0 -0 7.65939e-06)
(0 -0 1.04209e-05)
(0 -0 1.40126e-05)
(0 -0 1.82656e-05)
(0 -0 2.28821e-05)
(0 -0 2.74488e-05)
(0 -0 3.14771e-05)
(0 -0 3.44689e-05)
(0 -0 3.59993e-05)
(0 -0 3.57995e-05)
(0 -0 3.38181e-05)
(0 -0 3.02417e-05)
(0 -0 2.5467e-05)
(0 -0 2.00286e-05)
(0 -0 1.45003e-05)
(0 -0 9.39561e-06)
(0 -0 5.09163e-06)
(0 -0 1.79221e-06)
(0 -0 -4.68267e-07)
(0 -0 -1.78589e-06)
(0 -0 -2.37682e-06)
(0 -0 -2.21274e-06)
(0 -0 -0.000476943)
(0 -0 -0.000377695)
(0 -0 -0.000295201)
(0 -0 -0.000227025)
(0 -0 -0.000170762)
(0 -0 -0.000125194)
(0 -0 -8.91693e-05)
(0 -0 -6.12612e-05)
(0 -0 -4.01392e-05)
(0 -0 -2.45874e-05)
(0 -0 -1.35172e-05)
(0 -0 -5.97348e-06)
(0 -0 -1.13471e-06)
(0 -0 1.69302e-06)
(0 -0 3.08634e-06)
(0 -0 3.51872e-06)
(0 -0 3.37676e-06)
(0 -0 2.97729e-06)
(0 -0 2.58332e-06)
(0 -0 2.41676e-06)
(0 -0 2.66551e-06)
(0 -0 3.48301e-06)
(0 -0 4.97937e-06)
(0 -0 7.20496e-06)
(0 -0 1.01297e-05)
(0 -0 1.36242e-05)
(0 -0 1.74501e-05)
(0 -0 2.12681e-05)
(0 -0 2.46694e-05)
(0 -0 2.72304e-05)
(0 -0 2.85828e-05)
(0 -0 2.84861e-05)
(0 -0 2.68828e-05)
(0 -0 2.39199e-05)