/*--------------------------------*- C++ -*----------------------------------*\
| =========                 |                                                 |
| \\      /  F ield         | OpenFOAM: The Open Source CFD Toolbox           |
|  \\    /   O peration     | Version:  2412                                  |
|   \\  /    A nd           | Website:  www.openfoam.com                      |
|    \\/     M anipulation  |                                                 |
\*---------------------------------------------------------------------------*/
FoamFile
{
    version     2.0;
    format      ascii;
    arch        "LSB;label=32;scalar=64";
    class       volScalarField;
    location    "30";
    object      error;
}
// * * * * * * * * * * * * * * * * * * * * * * * * * * * * * * * * * * * * * //

dimensions      [0 0 0 0 0 0 0];

internalField   nonuniform List<scalar> 
5285
(
0.105254
0.103139
0.100979
0.0987754
0.102532
0.100505
0.098434
0.0963208
0.0941675
0.0919763
0.0897508
0.0874936
0.085208
0.0828979
0.0805675
0.0782213
0.0758638
0.0735
0.0711351
0.0687741
0.0664225
0.0640854
0.061768
0.0594751
0.0572114
0.0549811
0.0527881
0.0506359
0.0485272
0.0464648
0.0444506
0.0424863
0.0405733
0.0387124
0.0369043
0.0351494
0.0334479
0.0317997
0.0302045
0.028662
0.0271717
0.0257332
0.0243459
0.0230095
0.0217236
0.0204877
0.0193014
0.0181644
0.099896
0.0979547
0.0959705
0.0939453
0.0918809
0.0897796
0.0876444
0.0854777
0.0832827
0.0810631
0.0788227
0.0765657
0.0742965
0.0720199
0.0697406
0.0674637
0.0651942
0.0629372
0.0606974
0.0584796
0.0562883
0.0541275
0.052001
0.0499121
0.0478636
0.045858
0.0438974
0.0419834
0.0401174
0.0383004
0.0365332
0.0348163
0.0331499
0.0315341
0.029969
0.0284542
0.0269895
0.0255745
0.0242089
0.0228925
0.0216249
0.0204057
0.0192346
0.0181114
0.097346
0.0954878
0.093588
0.091648
0.0896696
0.087655
0.0856066
0.0835269
0.081419
0.079286
0.0771318
0.0749602
0.0727756
0.0705823
0.0683851
0.0661886
0.0639978
0.0618174
0.0596521
0.0575065
0.0553848
0.053291
0.0512287
0.049201
0.0472107
0.0452603
0.0433517
0.0414867
0.0396666
0.0378926
0.0361654
0.0344857
0.0328539
0.0312702
0.0297347
0.0282473
0.0268079
0.0254163
0.0240723
0.0227757
0.0215262
0.0203238
0.0191679
0.0180585
0.0948822
0.0931044
0.0912858
0.089428
0.0875325
0.0856011
0.0836361
0.0816399
0.0796152
0.0775653
0.0754935
0.0734037
0.0712999
0.0691863
0.0670675
0.064948
0.0628325
0.0607257
0.0586319
0.0565556
0.0545009
0.0524716
0.0504712
0.0485026
0.0465687
0.0446718
0.0428139
0.0409966
0.0392213
0.0374892
0.0358013
0.0341581
0.0325602
0.0310081
0.0295018
0.0280415
0.0266271
0.0252587
0.0239361
0.0226592
0.0214278
0.0202419
0.0191012
0.0180055
0.092504
0.0908035
0.0890632
0.0872844
0.0854683
0.0836166
0.0817315
0.0798151
0.0778702
0.0758996
0.0739066
0.0718949
0.0698683
0.067831
0.0657872
0.0637414
0.061698
0.0596616
0.0576364
0.0556267
0.0536365
0.0516693
0.0497286
0.0478172
0.0459379
0.0440929
0.042284
0.0405132
0.0387816
0.0370905
0.0354409
0.0338335
0.032269
0.0307479
0.0292704
0.0278368
0.0264472
0.0251017
0.0238003
0.0225429
0.0213296
0.0201602
0.0190345
0.0179526
0.0902105
0.0885841
0.0869187
0.0852154
0.0834753
0.0816999
0.0798911
0.078051
0.0761822
0.0742873
0.0723696
0.0704325
0.0684797
0.0665152
0.0645431
0.0625678
0.0605935
0.0586246
0.0566653
0.0547196
0.0527914
0.0508841
0.0490009
0.0471449
0.0453183
0.0435236
0.0417625
0.0400367
0.0383477
0.0366966
0.0350845
0.0335122
0.0319804
0.0304898
0.0290407
0.0276335
0.0262684
0.0249455
0.0236651
0.0224271
0.0212316
0.0200786
0.018968
0.0178996
0.0880001
0.0864445
0.0848506
0.0832193
0.0815517
0.0798491
0.0781131
0.0763459
0.0745496
0.0727271
0.0708812
0.0690152
0.0671329
0.065238
0.0633345
0.0614265
0.0595184
0.0576142
0.0557181
0.0538339
0.0519653
0.0501157
0.0482882
0.0464855
0.04471
0.042964
0.0412492
0.0395673
0.0379198
0.0363077
0.0347322
0.0331943
0.0316946
0.030234
0.0288128
0.0274315
0.0260906
0.0247901
0.0235305
0.0223117
0.0211339
0.0199972
0.0189015
0.0178467
0.0858709
0.0843827
0.0828569
0.0812943
0.0796957
0.0780623
0.0763957
0.0746978
0.0729708
0.0712171
0.0694396
0.0676416
0.0658265
0.0639981
0.0621601
0.0603167
0.058472
0.0566299
0.0547944
0.0529693
0.0511581
0.0493641
0.0475902
0.0458391
0.0441131
0.0424143
0.0407444
0.0391052
0.037498
0.035924
0.0343843
0.0328799
0.0314118
0.0299805
0.0285868
0.0272311
0.025914
0.0246357
0.0233965
0.0221968
0.0210366
0.019916
0.0188351
0.0177939
0.0838207
0.0823965
0.0809354
0.0794379
0.0779049
0.0763374
0.0747369
0.0731049
0.0714438
0.0697557
0.0680435
0.0663103
0.0645594
0.0627944
0.0610192
0.0592376
0.0574535
0.055671
0.0538937
0.0521255
0.0503695
0.0486291
0.0469069
0.0452057
0.0435275
0.0418744
0.0402482
0.0386504
0.0370824
0.0355455
0.0340408
0.0325693
0.0311319
0.0297295
0.0283628
0.0270323
0.0257386
0.0244821
0.0232633
0.0220824
0.0209396
0.0198351
0.0187689
0.0177411
0.0818469
0.0804834
0.0790836
0.077648
0.0761773
0.0746723
0.0731344
0.0715653
0.0699668
0.0683412
0.0666912
0.0650198
0.0633302
0.0616259
0.0599106
0.0581882
0.0564623
0.0547369
0.0530157
0.0513021
0.0495993
0.0479105
0.0462383
0.0445852
0.0429533
0.0413445
0.0397606
0.0382031
0.0366733
0.0351725
0.0337019
0.0322625
0.0308553
0.0294811
0.0281409
0.0268351
0.0255646
0.0243296
0.0231308
0.0219685
0.020843
0.0197544
0.0187028
0.0176884
0.0799469
0.0786408
0.0772991
0.0759221
0.0745103
0.0730647
0.0715864
0.0700768
0.0685379
0.0669718
0.0653811
0.0637687
0.0621376
0.0604914
0.0588335
0.0571677
0.0554977
0.0538272
0.0521598
0.0504987
0.0488472
0.0472082
0.0455842
0.0439776
0.0423905
0.0408246
0.0392817
0.0377633
0.0362706
0.034805
0.0333676
0.0319596
0.0305819
0.0292354
0.0279211
0.0266397
0.0253919
0.0241782
0.0229992
0.0218553
0.0207468
0.0196739
0.0186369
0.0176358
0.0781179
0.0768661
0.0755792
0.0742577
0.0729019
0.0715125
0.0700906
0.0686377
0.0671555
0.065646
0.0641118
0.0625556
0.0609805
0.0593898
0.0577869
0.0561754
0.054559
0.0529412
0.0513255
0.0497151
0.048113
0.0465219
0.0449445
0.0433829
0.041839
0.0403147
0.0388116
0.0373311
0.0358745
0.0344431
0.0330381
0.0316607
0.0303118
0.0289925
0.0277037
0.0264462
0.0252207
0.024028
0.0228684
0.0217427
0.020651
0.0195938
0.0185711
0.0175832
0.0763572
0.0751566
0.0739216
0.0726524
0.0713495
0.0700134
0.0686451
0.067246
0.0658177
0.0643621
0.0628818
0.0613793
0.0598576
0.05832
0.0567698
0.0552105
0.0536456
0.0520785
0.0505125
0.0489508
0.0473963
0.0458516
0.0443191
0.0428009
0.0412989
0.0398149
0.0383503
0.0369065
0.035485
0.0340869
0.0327135
0.0313659
0.0300452
0.0287525
0.0274886
0.0262546
0.0250511
0.0238789
0.0227386
0.0216307
0.0205558
0.019514
0.0185055
0.0175306
0.0746619
0.0735096
0.0723235
0.0711039
0.069851
0.0685653
0.0672479
0.0658998
0.0645228
0.0631186
0.0616896
0.0602384
0.0587679
0.0572812
0.0557815
0.0542722
0.0527567
0.0512384
0.0497203
0.0482056
0.046697
0.0451969
0.0437078
0.0422316
0.0407701
0.039325
0.0378977
0.0364897
0.0351022
0.0337366
0.0323939
0.0310754
0.0297822
0.0285154
0.027276
0.0260649
0.024883
0.023731
0.0226097
0.0215195
0.0204609
0.0194344
0.01844
0.0174781
0.0730293
0.0719225
0.0707826
0.0696098
0.0684042
0.0671663
0.065897
0.0645975
0.0632692
0.061914
0.060534
0.0591319
0.0577103
0.0562723
0.0548211
0.0533599
0.051892
0.0504205
0.0489486
0.0474791
0.0460147
0.0445578
0.0431105
0.0416749
0.0402526
0.0388451
0.037454
0.0360806
0.0347262
0.033392
0.0320792
0.0307891
0.0295227
0.0282813
0.0270658
0.0258773
0.0247165
0.0235845
0.0224817
0.0214089
0.0203666
0.0193551
0.0183747
0.0174256
0.0714567
0.0703928
0.0692965
0.0681678
0.067007
0.0658144
0.0645908
0.0633373
0.0620554
0.0607468
0.0594137
0.0580584
0.0566837
0.0552925
0.0538878
0.0524728
0.0510506
0.0496243
0.0481969
0.046771
0.0453493
0.043934
0.0425272
0.0411307
0.0397462
0.0383753
0.0370192
0.0356793
0.034357
0.0330533
0.0317697
0.0305072
0.029267
0.0280503
0.0268582
0.0256917
0.0245518
0.0234392
0.0223548
0.0212992
0.0202728
0.0192762
0.0183095
0.0173731
0.0699416
0.0689181
0.0678628
0.0667759
0.0656574
0.0645076
0.0633274
0.0621178
0.06088
0.0596159
0.0583275
0.0570171
0.0556874
0.054341
0.052981
0.0516104
0.0502323
0.0488495
0.0474648
0.046081
0.0447004
0.0433253
0.0419575
0.0405989
0.039251
0.0379153
0.0365932
0.0352858
0.0339946
0.0327206
0.0314652
0.0302296
0.0290149
0.0278224
0.0266532
0.0255083
0.0243887
0.0232953
0.0222289
0.0211901
0.0201795
0.0191976
0.0182445
0.0173205
0.0684814
0.067496
0.0664795
0.065432
0.0643535
0.0632444
0.0621053
0.0609373
0.0597417
0.0585201
0.0572744
0.056007
0.0547203
0.053417
0.0521
0.0507721
0.0494364
0.0480954
0.0467521
0.0454088
0.0440679
0.0427315
0.0414014
0.0400794
0.0387669
0.0374653
0.0361759
0.0349001
0.033639
0.0323939
0.031166
0.0299565
0.0287667
0.0275978
0.0264509
0.0253271
0.0242274
0.0231528
0.0221041
0.0210818
0.0200867
0.0191192
0.0181795
0.0172679
0.0670739
0.0661243
0.0651445
0.0641342
0.0630936
0.062023
0.060923
0.0597947
0.0586392
0.0574581
0.0562534
0.0550271
0.0537817
0.0525198
0.0512441
0.0499574
0.0486624
0.0473619
0.0460583
0.0447541
0.0434515
0.0421525
0.0408588
0.0395721
0.0382937
0.0370251
0.0357675
0.0345221
0.0332903
0.0320731
0.0308719
0.0296878
0.0285223
0.0273763
0.0262512
0.0251481
0.024068
0.0230117
0.0219803
0.0209744
0.0199945
0.0190411
0.0181146
0.0172152
0.153046
0.152051
0.150962
0.149784
0.148523
0.147183
0.145769
0.144285
0.142735
0.141124
0.139454
0.13773
0.135956
0.134134
0.132267
0.130359
0.128413
0.12643
0.124415
0.122368
0.120294
0.118193
0.11607
0.113926
0.111764
0.109587
0.107398
0.148072
0.147149
0.146135
0.145033
0.143849
0.142588
0.141253
0.139848
0.138378
0.136847
0.135259
0.133616
0.131923
0.130184
0.1284
0.126576
0.124714
0.122817
0.120887
0.118928
0.116941
0.114929
0.112895
0.110841
0.10877
0.106684
0.104587
0.143225
0.142369
0.141424
0.140394
0.139284
0.138097
0.136838
0.135511
0.13412
0.132668
0.131159
0.129598
0.127987
0.126329
0.124629
0.122888
0.121111
0.119299
0.117455
0.115583
0.113683
0.111759
0.109814
0.107849
0.105867
0.103871
0.101863
0.138534
0.137738
0.136856
0.135893
0.134851
0.133735
0.132549
0.131296
0.12998
0.128605
0.127175
0.125692
0.124161
0.122584
0.120965
0.119307
0.117613
0.115885
0.114126
0.112338
0.110525
0.108688
0.106829
0.104952
0.103057
0.101149
0.0992283
0.134015
0.133273
0.13245
0.131547
0.130569
0.12952
0.128402
0.127219
0.125975
0.124673
0.123317
0.12191
0.120456
0.118958
0.117418
0.11584
0.114227
0.112581
0.110905
0.1092
0.107471
0.105718
0.103944
0.102151
0.100342
0.0985181
0.0966822
0.129676
0.128985
0.128214
0.127368
0.126449
0.125461
0.124406
0.123289
0.122113
0.120881
0.119596
0.118262
0.116882
0.115459
0.113995
0.112494
0.110959
0.109392
0.107795
0.106172
0.104523
0.102851
0.101159
0.0994484
0.097721
0.0959792
0.0942249
0.125522
0.124876
0.124154
0.123359
0.122494
0.121563
0.120569
0.119513
0.118401
0.117235
0.116017
0.114752
0.113442
0.11209
0.110699
0.109272
0.107812
0.106321
0.1048
0.103254
0.101683
0.100089
0.0984757
0.0968435
0.0951948
0.0935315
0.0918555
0.121552
0.120947
0.120269
0.119522
0.118707
0.117829
0.11689
0.115893
0.11484
0.113735
0.112581
0.111381
0.110137
0.108853
0.107532
0.106175
0.104786
0.103367
0.10192
0.100447
0.0989499
0.0974313
0.0958926
0.0943356
0.0927621
0.0911739
0.0895726
0.117763
0.117195
0.116558
0.115854
0.115086
0.114257
0.11337
0.112426
0.111429
0.110382
0.109288
0.108149
0.106968
0.105748
0.104492
0.103202
0.101881
0.10053
0.0991524
0.0977495
0.0963234
0.0948758
0.0934085
0.0919231
0.0904213
0.0889045
0.0873744
0.11415
0.113616
0.113016
0.112353
0.111628
0.110844
0.110004
0.109111
0.108166
0.107174
0.106135
0.105054
0.103932
0.102773
0.101579
0.100352
0.0990942
0.0978085
0.0964964
0.09516
0.0938009
0.0924208
0.0910213
0.0896039
0.08817
0.0867211
0.0852586
0.110707
0.110204
0.109638
0.109012
0.108326
0.107585
0.10679
0.105943
0.105048
0.104105
0.10312
0.102092
0.101026
0.0999242
0.0987882
0.0976205
0.0964235
0.0951991
0.0939492
0.0926756
0.0913799
0.0900637
0.0887283
0.0873752
0.0860057
0.0846211
0.0832227
0.107426
0.106952
0.106417
0.105825
0.105177
0.104475
0.103721
0.102918
0.102068
0.101173
0.100237
0.0992603
0.0982466
0.0971981
0.0961169
0.0950052
0.0938652
0.0926986
0.0915074
0.0902931
0.0890573
0.0878013
0.0865266
0.0852343
0.0839256
0.0826017
0.0812639
0.1043
0.103852
0.103347
0.102786
0.102172
0.101507
0.100792
0.100029
0.0992222
0.0983721
0.0974816
0.0965529
0.0955884
0.0945903
0.0935607
0.0925018
0.0914154
0.0903034
0.0891674
0.088009
0.0868296
0.0856305
0.0844129
0.0831779
0.0819266
0.0806601
0.0793794
0.101322
0.100898
0.10042
0.0998886
0.0993063
0.0986749
0.0979961
0.097272
0.0965047
0.0956964
0.0948492
0.0939653
0.093047
0.0920963
0.0911153
0.0901059
0.08907
0.0880092
0.0869253
0.0858195
0.0846932
0.0835476
0.0823838
0.0812028
0.0800055
0.078793
0.0775663
0.0984828
0.0980818
0.0976288
0.0971251
0.0965725
0.0959729
0.095328
0.0946396
0.0939098
0.0931406
0.0923341
0.0914923
0.0906173
0.0897112
0.0887758
0.087813
0.0868246
0.0858121
0.0847771
0.0837208
0.0826444
0.0815491
0.0804359
0.0793056
0.0781593
0.0769976
0.0758217
0.0957766
0.0953966
0.094967
0.094489
0.0939641
0.0933943
0.0927811
0.0921262
0.0914316
0.0906991
0.0899308
0.0891286
0.0882944
0.0874302
0.0865377
0.0856187
0.0846749
0.0837078
0.0827187
0.0817089
0.0806795
0.0796314
0.0785657
0.0774832
0.0763846
0.0752708
0.0741426
0.0931959
0.0928355
0.0924278
0.0919737
0.0914748
0.0909329
0.0903494
0.0897259
0.0890644
0.0883665
0.087634
0.086869
0.0860732
0.0852483
0.0843962
0.0835184
0.0826166
0.081692
0.0807461
0.07978
0.0787946
0.077791
0.0767699
0.0757321
0.0746785
0.0736096
0.0725264
0.0907339
0.0903918
0.0900045
0.0895728
0.0890983
0.0885826
0.088027
0.0874331
0.0868026
0.0861371
0.0854385
0.0847084
0.0839486
0.0831608
0.0823466
0.0815076
0.0806452
0.0797607
0.0788553
0.0779301
0.0769861
0.0760241
0.0750449
0.0740493
0.0730378
0.0720111
0.0709701
0.0883842
0.0880593
0.087691
0.0872804
0.0868288
0.0863376
0.0858082
0.0852421
0.0846408
0.0840059
0.083339
0.0826419
0.081916
0.0811631
0.0803845
0.0795819
0.0787565
0.0779096
0.0770423
0.0761556
0.0752504
0.0743275
0.0733876
0.0724314
0.0714595
0.0704726
0.0694712
0.0861406
0.0858317
0.0854815
0.0850906
0.0846604
0.0841924
0.0836877
0.0831477
0.0825738
0.0819677
0.0813307
0.0806645
0.0799706
0.0792504
0.0785054
0.077737
0.0769464
0.0761348
0.0753033
0.0744527
0.0735839
0.0726977
0.0717947
0.0708756
0.0699409
0.0689912
0.0680272
0.0840415
0.0837473
0.0834135
0.0830407
0.0826303
0.0821836
0.0817016
0.0811857
0.0806372
0.0800575
0.0794481
0.0788105
0.0781459
0.077456
0.0767419
0.076005
0.0752465
0.0744673
0.0736687
0.0728513
0.072016
0.0711635
0.0702945
0.0694094
0.0685089
0.0675936
0.066664
0.0820543
0.0817737
0.0814553
0.0810995
0.0807075
0.0802806
0.0798198
0.0793264
0.0788015
0.0782466
0.077663
0.0770519
0.0764149
0.0757531
0.0750679
0.0743603
0.0736317
0.0728828
0.0721148
0.0713283
0.0705242
0.0697032
0.0688657
0.0680124
0.0671438
0.0662605
0.0653631
0.0801144
0.079847
0.0795432
0.0792037
0.0788294
0.0784216
0.0779812
0.0775093
0.0770072
0.0764761
0.0759172
0.0753318
0.0747212
0.0740865
0.0734289
0.0727496
0.0720496
0.0713299
0.0705912
0.0698345
0.0690603
0.0682694
0.0674623
0.0666395
0.0658016
0.0649491
0.0640826
0.0782214
0.0779666
0.0776769
0.077353
0.0769957
0.0766061
0.0761853
0.0757342
0.0752539
0.0747457
0.0742106
0.0736498
0.0730645
0.0724558
0.0718249
0.0711727
0.0705002
0.0698083
0.0690979
0.0683696
0.0676242
0.0668622
0.0660842
0.0652907
0.0644823
0.0636594
0.0628228
0.0763748
0.076132
0.0758558
0.0755468
0.0752057
0.0748338
0.0744317
0.0740005
0.0735412
0.0730548
0.0725425
0.0720053
0.0714444
0.0708607
0.0702552
0.069629
0.0689829
0.0683178
0.0676345
0.0669335
0.0662157
0.0654814
0.0647314
0.0639661
0.063186
0.0623917
0.0615838
0.074574
0.0743427
0.0740794
0.0737846
0.0734591
0.0731039
0.0727198
0.0723076
0.0718684
0.0714031
0.0709126
0.0703981
0.0698604
0.0693006
0.0687196
0.0681183
0.0674976
0.0668581
0.0662007
0.065526
0.0648345
0.0641269
0.0634038
0.0626655
0.0619127
0.0611459
0.0603657
0.0728184
0.072598
0.072347
0.0720658
0.0717552
0.0714161
0.0710491
0.0706552
0.0702351
0.0697899
0.0693203
0.0688274
0.0683121
0.0677752
0.0672176
0.0666402
0.0660437
0.0654288
0.0647962
0.0641466
0.0634806
0.0627986
0.0621013
0.0613891
0.0606626
0.0599223
0.0591688
0.0711074
0.0708974
0.0706581
0.0703899
0.0700934
0.0697696
0.069419
0.0690424
0.0686407
0.0682147
0.0677651
0.0672929
0.0667989
0.0662839
0.0657487
0.0651941
0.0646208
0.0640295
0.0634208
0.0627953
0.0621537
0.0614963
0.0608238
0.0601367
0.0594355
0.0587208
0.0579933
0.0694404
0.0692402
0.069012
0.0687562
0.0684732
0.0681639
0.0678289
0.0674689
0.0670846
0.0666769
0.0662464
0.0657939
0.0653203
0.0648262
0.0643125
0.0637797
0.0632286
0.0626599
0.0620741
0.0614718
0.0608535
0.0602199
0.0595713
0.0589084
0.0582317
0.0575417
0.0568392
0.0678166
0.0676258
0.0674082
0.067164
0.0668938
0.0665983
0.0662781
0.0659339
0.0655662
0.0651759
0.0647636
0.06433
0.0638758
0.0634017
0.0629084
0.0623966
0.0618668
0.0613197
0.0607558
0.0601758
0.0595801
0.0589692
0.0583437
0.0577042
0.0570511
0.0563851
0.0557068
0.0662355
0.0660535
0.0658458
0.0656127
0.0653546
0.0650722
0.0647661
0.0644369
0.064085
0.0637113
0.0633162
0.0629006
0.0624649
0.0620099
0.0615362
0.0610443
0.0605349
0.0600086
0.0594658
0.0589071
0.0583331
0.0577442
0.0571411
0.0565241
0.0558939
0.0552511
0.0545963
0.0646964
0.0645227
0.0643244
0.0641017
0.0638551
0.0635852
0.0632924
0.0629773
0.0626405
0.0622824
0.0619038
0.0615052
0.0610872
0.0606504
0.0601954
0.0597226
0.0592328
0.0587263
0.0582038
0.0576657
0.0571126
0.0565449
0.0559633
0.0553682
0.0547602
0.0541399
0.053508
0.0631986
0.0630328
0.0628433
0.0626305
0.0623947
0.0621365
0.0618564
0.0615547
0.0612321
0.060889
0.060526
0.0601436
0.0597425
0.059323
0.0588858
0.0584313
0.0579601
0.0574728
0.0569697
0.0564514
0.0559185
0.0553713
0.0548105
0.0542366
0.0536501
0.0530517
0.0524419
0.0617416
0.0615832
0.0614021
0.0611985
0.0609729
0.0607258
0.0604576
0.0601686
0.0598594
0.0595305
0.0591823
0.0588154
0.0584303
0.0580273
0.0576071
0.0571702
0.0567169
0.0562479
0.0557635
0.0552644
0.0547508
0.0542235
0.0536829
0.0531294
0.0525638
0.0519866
0.0513984
0.0603249
0.0601734
0.0600001
0.0598053
0.0595893
0.0593526
0.0590956
0.0588187
0.0585222
0.0582067
0.0578726
0.0575204
0.0571504
0.0567633
0.0563594
0.0559391
0.0555031
0.0550516
0.0545853
0.0541045
0.0536098
0.0531016
0.0525805
0.0520469
0.0515016
0.050945
0.0503778
0.058948
0.0588029
0.0586369
0.0584504
0.0582434
0.0580166
0.0577702
0.0575046
0.0572202
0.0569174
0.0565967
0.0562583
0.0559029
0.0555308
0.0551424
0.0547382
0.0543186
0.053884
0.053435
0.052972
0.0524954
0.0520057
0.0515035
0.0509893
0.0504636
0.049927
0.0493801
0.0576104
0.0574713
0.0573122
0.0571333
0.0569349
0.0567173
0.0564809
0.0562261
0.0559531
0.0556624
0.0553543
0.0550292
0.0546876
0.0543298
0.0539563
0.0535674
0.0531636
0.0527453
0.0523129
0.051867
0.0514079
0.0509361
0.0504522
0.0499567
0.04945
0.0489329
0.0484058
0.0563116
0.0561782
0.0560255
0.0558539
0.0556634
0.0554546
0.0552277
0.054983
0.0547208
0.0544415
0.0541454
0.0538329
0.0535045
0.0531604
0.052801
0.0524268
0.0520382
0.0516355
0.0512192
0.0507897
0.0503475
0.0498931
0.0494268
0.0489494
0.0484612
0.0479628
0.0474549
0.0550514
0.0549232
0.0547766
0.0546118
0.0544289
0.0542283
0.0540103
0.0537751
0.0535231
0.0532546
0.05297
0.0526695
0.0523536
0.0520226
0.0516768
0.0513166
0.0509425
0.0505548
0.050154
0.0497404
0.0493145
0.0488767
0.0484276
0.0479676
0.0474973
0.0470172
0.0465278
0.0538293
0.0537061
0.0535651
0.0534067
0.0532309
0.053038
0.0528285
0.0526024
0.0523601
0.0521019
0.0518281
0.051539
0.051235
0.0509165
0.0505837
0.050237
0.0498768
0.0495035
0.0491175
0.0487192
0.048309
0.0478873
0.0474547
0.0470116
0.0465585
0.046096
0.0456245
0.0526451
0.0525265
0.0523909
0.0522384
0.0520693
0.0518838
0.0516821
0.0514646
0.0512315
0.0509831
0.0507196
0.0504414
0.0501488
0.0498422
0.0495218
0.049188
0.0488412
0.0484817
0.0481099
0.0477263
0.0473312
0.0469251
0.0465084
0.0460816
0.0456451
0.0451996
0.0447454
0.0514984
0.0513842
0.0512535
0.0511067
0.0509439
0.0507653
0.0505712
0.0503618
0.0501374
0.0498982
0.0496446
0.0493768
0.0490951
0.0487998
0.0484912
0.0481698
0.0478358
0.0474895
0.0471315
0.046762
0.0463814
0.0459902
0.0455888
0.0451777
0.0447572
0.044328
0.0438904
0.050389
0.0502788
0.0501528
0.0500114
0.0498545
0.0496825
0.0494955
0.0492938
0.0490777
0.0488473
0.048603
0.0483451
0.0480737
0.0477893
0.0474921
0.0471825
0.0468607
0.0465272
0.0461823
0.0458263
0.0454597
0.0450828
0.0446961
0.0443
0.0438949
0.0434813
0.0430597
0.0493166
0.0492102
0.0490886
0.0489522
0.0488009
0.0486351
0.0484549
0.0482605
0.0480522
0.0478303
0.0475949
0.0473463
0.0470849
0.0468108
0.0465244
0.0462261
0.0459161
0.0455947
0.0452624
0.0449194
0.0445661
0.044203
0.0438304
0.0434487
0.0430583
0.0426598
0.0422534
0.0482809
0.048178
0.0480606
0.0479289
0.0477829
0.047623
0.0474492
0.0472618
0.0470609
0.0468469
0.04662
0.0463804
0.0461284
0.0458642
0.0455882
0.0453007
0.0450019
0.0446921
0.0443718
0.0440413
0.0437008
0.0433508
0.0429917
0.0426238
0.0422475
0.0418633
0.0414716
0.0472815
0.047182
0.0470685
0.0469413
0.0468003
0.0466459
0.0464782
0.0462974
0.0461036
0.0458972
0.0456784
0.0454473
0.0452043
0.0449496
0.0446834
0.0444062
0.0441181
0.0438194
0.0435106
0.0431919
0.0428637
0.0425262
0.0421799
0.0418252
0.0414624
0.0410919
0.0407142
0.0463182
0.0462219
0.0461121
0.0459891
0.0458529
0.0457037
0.0455418
0.0453672
0.0451802
0.044981
0.0447698
0.0445468
0.0443124
0.0440666
0.0438099
0.0435425
0.0432646
0.0429766
0.0426787
0.0423713
0.0420547
0.0417292
0.0413952
0.0410531
0.0407031
0.0403457
0.0399812
0.0453907
0.0452973
0.045191
0.045072
0.0449403
0.0447961
0.0446396
0.044471
0.0442904
0.044098
0.0438941
0.0436789
0.0434525
0.0432154
0.0429676
0.0427095
0.0424414
0.0421634
0.041876
0.0415793
0.0412738
0.0409598
0.0406375
0.0403073
0.0399695
0.0396245
0.0392727
0.0444987
0.0444081
0.0443051
0.0441899
0.0440623
0.0439229
0.0437715
0.0436085
0.043434
0.0432481
0.0430511
0.0428432
0.0426246
0.0423956
0.0421564
0.0419071
0.0416482
0.0413799
0.0411024
0.040816
0.040521
0.0402178
0.0399066
0.0395878
0.0392616
0.0389285
0.0385887
0.0436419
0.0435539
0.0434539
0.0433423
0.0432187
0.0430837
0.0429373
0.0427796
0.0426108
0.0424311
0.0422406
0.0420397
0.0418285
0.0416071
0.041376
0.0411352
0.0408851
0.0406258
0.0403577
0.0400811
0.0397961
0.0395032
0.0392026
0.0388945
0.0385794
0.0382574
0.037929
0.0428199
0.0427344
0.0426373
0.042529
0.0424093
0.0422784
0.0421366
0.0419839
0.0418205
0.0416467
0.0414625
0.0412681
0.0410638
0.0408498
0.0406263
0.0403936
0.0401517
0.0399011
0.039642
0.0393745
0.0390991
0.0388159
0.0385253
0.0382274
0.0379227
0.0376114
0.0372938
0.0420326
0.0419494
0.041855
0.0417498
0.0416337
0.0415068
0.0413693
0.0412214
0.0410631
0.0408947
0.0407164
0.0405283
0.0403306
0.0401235
0.0399073
0.039682
0.0394481
0.0392057
0.038955
0.0386963
0.0384298
0.0381559
0.0378747
0.0375865
0.0372917
0.0369905
0.0366831
0.0412797
0.0411986
0.0411068
0.0410045
0.0408917
0.0407685
0.0406351
0.0404917
0.0403383
0.0401751
0.0400023
0.03982
0.0396286
0.039428
0.0392186
0.0390005
0.038774
0.0385393
0.0382966
0.0380462
0.0377882
0.037523
0.0372507
0.0369717
0.0366862
0.0363945
0.0360968
0.0405609
0.0404818
0.0403924
0.0402929
0.0401831
0.0400635
0.0399339
0.0397947
0.0396458
0.0394875
0.0393199
0.0391432
0.0389576
0.0387632
0.0385603
0.038349
0.0381295
0.037902
0.0376669
0.0374242
0.0371742
0.0369172
0.0366534
0.0363831
0.0361064
0.0358236
0.0355351
0.0398761
0.0397989
0.0397116
0.0396147
0.0395079
0.0393914
0.0392655
0.0391302
0.0389856
0.0388319
0.0386692
0.0384977
0.0383176
0.038129
0.0379322
0.0377272
0.0375143
0.0372937
0.0370657
0.0368303
0.0365879
0.0363387
0.0360828
0.0358206
0.0355522
0.0352779
0.0349979
0.0392251
0.0391496
0.0390644
0.0389698
0.0388657
0.0387524
0.0386298
0.0384982
0.0383576
0.0382082
0.0380501
0.0378835
0.0377085
0.0375254
0.0373342
0.0371352
0.0369285
0.0367144
0.036493
0.0362645
0.0360292
0.0357873
0.0355389
0.0352843
0.0350237
0.0347573
0.0344855
0.0386077
0.0385338
0.0384505
0.0383582
0.0382566
0.0381461
0.0380267
0.0378985
0.0377616
0.0376162
0.0374625
0.0373004
0.0371303
0.0369523
0.0367664
0.036573
0.0363721
0.036164
0.0359489
0.0357269
0.0354982
0.0352631
0.0350217
0.0347743
0.034521
0.0342622
0.0339979
0.0380241
0.0379516
0.0378701
0.0377798
0.0376806
0.0375727
0.0374562
0.0373312
0.0371978
0.0370561
0.0369064
0.0367486
0.036583
0.0364097
0.0362288
0.0360406
0.0358452
0.0356427
0.0354334
0.0352175
0.034995
0.0347663
0.0345315
0.0342908
0.0340444
0.0337925
0.0335353
0.0374741
0.0374029
0.037323
0.0372346
0.0371375
0.037032
0.0369182
0.0367962
0.036666
0.0365279
0.0363818
0.036228
0.0360666
0.0358977
0.0357215
0.0355381
0.0353478
0.0351506
0.0349468
0.0347364
0.0345198
0.034297
0.0340683
0.0338339
0.0335939
0.0333486
0.0330981
0.0369578
0.0368878
0.0368093
0.0367227
0.0366276
0.0365243
0.036413
0.0362937
0.0361665
0.0360316
0.0358889
0.0357388
0.0355813
0.0354165
0.0352446
0.0350658
0.0348801
0.0346878
0.034489
0.0342839
0.0340727
0.0338555
0.0336325
0.0334039
0.0331699
0.0329306
0.0326863
0.0364754
0.0364065
0.0363293
0.0362442
0.0361509
0.0360497
0.0359407
0.0358239
0.0356994
0.0355674
0.035428
0.0352812
0.0351273
0.0349663
0.0347984
0.0346237
0.0344424
0.0342546
0.0340605
0.0338603
0.033654
0.033442
0.0332242
0.0330011
0.0327726
0.032539
0.0323004
0.0360271
0.0359591
0.0358831
0.0357994
0.0357077
0.0356084
0.0355014
0.0353869
0.0352649
0.0351356
0.0349991
0.0348554
0.0347048
0.0345473
0.034383
0.0342122
0.0340349
0.0338513
0.0336615
0.0334657
0.0332641
0.0330568
0.032844
0.0326258
0.0324024
0.032174
0.0319408
0.0356132
0.035546
0.035471
0.0353886
0.0352984
0.0352007
0.0350956
0.0349831
0.0348634
0.0347366
0.0346027
0.0344618
0.0343142
0.0341598
0.0339989
0.0338316
0.033658
0.0334782
0.0332924
0.0331007
0.0329033
0.0327004
0.032492
0.0322784
0.0320598
0.0318362
0.0316079
0.035234
0.0351676
0.0350935
0.0350121
0.0349232
0.034827
0.0347236
0.034613
0.0344953
0.0343706
0.0342391
0.0341009
0.0339559
0.0338045
0.0336466
0.0334824
0.0333121
0.0331358
0.0329536
0.0327657
0.0325722
0.0323732
0.0321689
0.0319595
0.0317452
0.031526
0.0313022
0.0348902
0.0348244
0.034751
0.0346706
0.0345828
0.0344879
0.0343859
0.034277
0.0341611
0.0340384
0.033909
0.033773
0.0336305
0.0334817
0.0333265
0.0331652
0.0329979
0.0328247
0.0326458
0.0324612
0.0322712
0.0320758
0.0318753
0.0316697
0.0314592
0.031244
0.0310243
0.0345824
0.034517
0.0344443
0.0343646
0.0342778
0.034184
0.0340833
0.0339757
0.0338614
0.0337405
0.033613
0.033479
0.0333387
0.0331921
0.0330394
0.0328806
0.032716
0.0325456
0.0323696
0.032188
0.0320011
0.031809
0.0316118
0.0314096
0.0312026
0.030991
0.0307749
0.0343113
0.0342462
0.034174
0.034095
0.0340089
0.033916
0.0338164
0.0337101
0.0335972
0.0334777
0.0333518
0.0332196
0.0330811
0.0329365
0.032786
0.0326295
0.0324672
0.0322992
0.0321258
0.0319469
0.0317627
0.0315734
0.0313792
0.03118
0.0309761
0.0307677
0.0305548
0.0340778
0.034013
0.0339411
0.0338626
0.0337771
0.033685
0.0335863
0.033481
0.0333691
0.0332509
0.0331264
0.0329957
0.0328588
0.0327159
0.0325672
0.0324126
0.0322523
0.0320865
0.0319153
0.0317387
0.0315569
0.0313701
0.0311784
0.0309819
0.0307807
0.030575
0.030365
0.0338832
0.0338184
0.0337468
0.0336686
0.0335836
0.033492
0.0333939
0.0332894
0.0331785
0.0330613
0.0329379
0.0328084
0.0326728
0.0325314
0.0323841
0.0322311
0.0320726
0.0319085
0.0317391
0.0315645
0.0313848
0.0312001
0.0310105
0.0308162
0.0306174
0.0304141
0.0302065
0.0337286
0.0336638
0.0335922
0.0335142
0.0334295
0.0333383
0.0332407
0.0331367
0.0330265
0.03291
0.0327875
0.0326589
0.0325244
0.0323841
0.032238
0.0320863
0.0319291
0.0317665
0.0315986
0.0314256
0.0312475
0.0310645
0.0308767
0.0306843
0.0304874
0.030286
0.0300804
0.0336155
0.0335506
0.0334789
0.0334009
0.0333163
0.0332253
0.0331279
0.0330243
0.0329145
0.0327986
0.0326766
0.0325487
0.0324149
0.0322754
0.0321302
0.0319795
0.0318233
0.0316618
0.0314951
0.0313233
0.0311465
0.0309648
0.0307784
0.0305874
0.030392
0.0301922
0.0299882
0.0335457
0.0334804
0.0334085
0.0333303
0.0332456
0.0331546
0.0330573
0.0329538
0.0328442
0.0327286
0.0326069
0.0324794
0.0323461
0.0322071
0.0320624
0.0319123
0.0317568
0.0315961
0.0314301
0.0312591
0.0310832
0.0309025
0.0307171
0.0305271
0.0303327
0.030134
0.0299312
0.033521
0.0334553
0.033383
0.0333045
0.0332195
0.0331282
0.0330308
0.0329272
0.0328175
0.0327018
0.0325802
0.0324527
0.0323196
0.0321807
0.0320363
0.0318865
0.0317313
0.0315709
0.0314054
0.0312349
0.0310594
0.0308792
0.0306944
0.030505
0.0303113
0.0301133
0.0299111
0.0335435
0.0334772
0.0334044
0.0333253
0.0332399
0.0331482
0.0330503
0.0329463
0.0328363
0.0327203
0.0325985
0.0324708
0.0323374
0.0321985
0.032054
0.0319041
0.0317488
0.0315884
0.0314229
0.0312524
0.031077
0.030897
0.0307122
0.030523
0.0303295
0.0301317
0.0299298
0.0336159
0.0335488
0.0334752
0.0333955
0.0333093
0.0332169
0.0331184
0.0330138
0.0329032
0.0327866
0.0326642
0.032536
0.0324021
0.0322626
0.0321176
0.0319672
0.0318116
0.0316507
0.0314848
0.0313139
0.0311382
0.0309578
0.0307728
0.0305833
0.0303894
0.0301914
0.0299892
0.0657443
0.064828
0.0638819
0.0629062
0.0619007
0.0608659
0.0598024
0.058711
0.057593
0.0564499
0.0552835
0.0540959
0.0528894
0.0516664
0.0504297
0.0491817
0.0479252
0.0466628
0.0453968
0.0441295
0.0428631
0.0415994
0.0403401
0.0390867
0.0378407
0.0366033
0.0353758
0.0341593
0.0329552
0.0317646
0.0305888
0.029429
0.0282864
0.0271625
0.0260582
0.0249748
0.0239134
0.0228748
0.02186
0.0208697
0.0199045
0.0189648
0.018051
0.0171634
0.0644749
0.0635895
0.0626752
0.0617318
0.0607594
0.0597583
0.0587291
0.0576727
0.0565901
0.055483
0.054353
0.0532021
0.0520326
0.0508467
0.049647
0.048436
0.0472162
0.0459901
0.04476
0.043528
0.0422961
0.0410661
0.0398397
0.0386182
0.0374031
0.0361955
0.0349968
0.033808
0.0326305
0.0314654
0.0303139
0.0291774
0.0280571
0.0269543
0.0258702
0.0248059
0.0237625
0.022741
0.0217424
0.0207672
0.0198162
0.0188898
0.0179883
0.0171121
0.0632247
0.0623693
0.0614857
0.0605736
0.0596332
0.0586648
0.057669
0.0566466
0.0555987
0.0545268
0.0534324
0.0523175
0.0511841
0.0500346
0.0488714