/*--------------------------------*- C++ -*----------------------------------*\
| =========                 |                                                 |
| \\      /  F ield         | OpenFOAM: The Open Source CFD Toolbox           |
|  \\    /   O peration     | Version:  2412                                  |
|   \\  /    A nd           | Website:  www.openfoam.com                      |
|    \\/     M anipulation  |                                                 |
\*---------------------------------------------------------------------------*/
FoamFile
{
    version     2.0;
    format      ascii;
    arch        "LSB;label=32;scalar=64";
    class       volVectorField;
    location    "30";
    object      UA;
}
// * * * * * * * * * * * * * * * * * * * * * * * * * * * * * * * * * * * * * //

dimensions      [0 1 -1 0 0 0 0];

internalField   nonuniform List<vector> 
5285
(
(0.0992244 -0.00174927 0)
(0.0992166 -0.00169693 0)
(0.0992101 -0.00164525 0)
(0.0992049 -0.00159427 0)
(0.099279 -0.00173946 0)
(0.0992695 -0.00168868 0)
(0.0992613 -0.00163845 0)
(0.0992544 -0.00158883 0)
(0.0992487 -0.00153986 0)
(0.0992442 -0.00149157 0)
(0.0992408 -0.00144401 0)
(0.0992386 -0.0013972 0)
(0.0992374 -0.00135119 0)
(0.0992372 -0.00130599 0)
(0.099238 -0.00126164 0)
(0.0992398 -0.00121816 0)
(0.0992425 -0.00117557 0)
(0.099246 -0.00113388 0)
(0.0992503 -0.00109313 0)
(0.0992554 -0.00105331 0)
(0.0992612 -0.00101444 0)
(0.0992677 -0.000976531 0)
(0.0992748 -0.000939588 0)
(0.0992825 -0.000903615 0)
(0.0992907 -0.000868614 0)
(0.0992995 -0.000834585 0)
(0.0993087 -0.000801528 0)
(0.0993184 -0.000769437 0)
(0.0993284 -0.000738308 0)
(0.0993388 -0.000708134 0)
(0.0993495 -0.000678906 0)
(0.0993605 -0.000650614 0)
(0.0993717 -0.000623246 0)
(0.0993831 -0.000596791 0)
(0.0993947 -0.000571235 0)
(0.0994065 -0.000546562 0)
(0.0994184 -0.000522757 0)
(0.0994304 -0.000499803 0)
(0.0994425 -0.000477684 0)
(0.0994546 -0.000456382 0)
(0.0994667 -0.000435878 0)
(0.0994788 -0.000416153 0)
(0.099491 -0.000397188 0)
(0.099503 -0.000378963 0)
(0.0995151 -0.00036146 0)
(0.099527 -0.000344657 0)
(0.0995389 -0.000328535 0)
(0.0995506 -0.000313074 0)
(0.0993319 -0.00172797 0)
(0.0993209 -0.00167876 0)
(0.0993111 -0.00163001 0)
(0.0993026 -0.00158179 0)
(0.0992954 -0.00153413 0)
(0.0992893 -0.00148708 0)
(0.0992844 -0.00144066 0)
(0.0992806 -0.00139493 0)
(0.0992779 -0.00134991 0)
(0.0992763 -0.00130563 0)
(0.0992756 -0.00126212 0)
(0.0992759 -0.00121942 0)
(0.0992772 -0.00117754 0)
(0.0992793 -0.00113651 0)
(0.0992822 -0.00109634 0)
(0.099286 -0.00105705 0)
(0.0992904 -0.00101865 0)
(0.0992957 -0.000981168 0)
(0.0993015 -0.000944597 0)
(0.099308 -0.00090895 0)
(0.0993151 -0.00087423 0)
(0.0993227 -0.000840442 0)
(0.0993308 -0.000807586 0)
(0.0993394 -0.00077566 0)
(0.0993484 -0.000744663 0)
(0.0993578 -0.000714589 0)
(0.0993676 -0.000685433 0)
(0.0993776 -0.000657186 0)
(0.099388 -0.000629839 0)
(0.0993985 -0.000603382 0)
(0.0994093 -0.000577802 0)
(0.0994203 -0.000553089 0)
(0.0994315 -0.000529226 0)
(0.0994428 -0.0005062 0)
(0.0994542 -0.000483996 0)
(0.0994656 -0.000462596 0)
(0.0994771 -0.000441984 0)
(0.0994887 -0.000422142 0)
(0.0995002 -0.000403052 0)
(0.0995118 -0.000384696 0)
(0.0995233 -0.000367056 0)
(0.0995347 -0.000350111 0)
(0.0995461 -0.000333844 0)
(0.0995575 -0.000318235 0)
(0.0993831 -0.00171492 0)
(0.0993706 -0.0016673 0)
(0.0993595 -0.00162006 0)
(0.0993495 -0.00157327 0)
(0.0993408 -0.00152695 0)
(0.0993333 -0.00148115 0)
(0.099327 -0.00143593 0)
(0.0993217 -0.0013913 0)
(0.0993176 -0.00134731 0)
(0.0993145 -0.00130399 0)
(0.0993125 -0.00126138 0)
(0.0993114 -0.00121949 0)
(0.0993113 -0.00117837 0)
(0.099312 -0.00113803 0)
(0.0993137 -0.00109849 0)
(0.0993161 -0.00105977 0)
(0.0993194 -0.00102189 0)
(0.0993233 -0.000984873 0)
(0.099328 -0.000948717 0)
(0.0993333 -0.000913436 0)
(0.0993392 -0.000879039 0)
(0.0993458 -0.000845531 0)
(0.0993528 -0.000812915 0)
(0.0993603 -0.000781193 0)
(0.0993683 -0.000750364 0)
(0.0993768 -0.000720426 0)
(0.0993856 -0.000691375 0)
(0.0993947 -0.000663206 0)
(0.0994042 -0.000635911 0)
(0.099414 -0.000609482 0)
(0.099424 -0.00058391 0)
(0.0994342 -0.000559183 0)
(0.0994446 -0.00053529 0)
(0.0994552 -0.000512217 0)
(0.0994659 -0.000489951 0)
(0.0994767 -0.000468476 0)
(0.0994876 -0.000447778 0)
(0.0994985 -0.00042784 0)
(0.0995095 -0.000408645 0)
(0.0995205 -0.000390176 0)
(0.0995315 -0.000372416 0)
(0.0995425 -0.000355346 0)
(0.0995535 -0.000338949 0)
(0.0995644 -0.000323207 0)
(0.0994325 -0.00170044 0)
(0.0994188 -0.00165442 0)
(0.0994063 -0.00160871 0)
(0.099395 -0.00156336 0)
(0.099385 -0.00151841 0)
(0.0993761 -0.0014739 0)
(0.0993684 -0.00142988 0)
(0.0993618 -0.00138639 0)
(0.0993564 -0.00134347 0)
(0.099352 -0.00130115 0)
(0.0993486 -0.00125946 0)
(0.0993462 -0.00121843 0)
(0.0993448 -0.0011781 0)
(0.0993443 -0.00113849 0)
(0.0993446 -0.00109962 0)
(0.0993459 -0.00106152 0)
(0.0993479 -0.0010242 0)
(0.0993507 -0.000987678 0)
(0.0993542 -0.000951976 0)
(0.0993583 -0.000917101 0)
(0.0993632 -0.000883065 0)
(0.0993686 -0.000849874 0)
(0.0993746 -0.000817535 0)
(0.0993812 -0.000786051 0)
(0.0993882 -0.000755425 0)
(0.0993956 -0.000725657 0)
(0.0994035 -0.000696744 0)
(0.0994118 -0.000668684 0)
(0.0994204 -0.000641472 0)
(0.0994294 -0.000615101 0)
(0.0994386 -0.000589564 0)
(0.099448 -0.000564851 0)
(0.0994577 -0.000540953 0)
(0.0994676 -0.000517858 0)
(0.0994776 -0.000495553 0)
(0.0994878 -0.000474026 0)
(0.0994981 -0.000453263 0)
(0.0995085 -0.000433248 0)
(0.0995189 -0.000413967 0)
(0.0995294 -0.000395403 0)
(0.0995399 -0.00037754 0)
(0.0995504 -0.000360362 0)
(0.0995609 -0.00034385 0)
(0.0995713 -0.000327988 0)
(0.0994803 -0.00168466 0)
(0.0994653 -0.00164025 0)
(0.0994516 -0.00159607 0)
(0.0994391 -0.00155218 0)
(0.0994278 -0.00150861 0)
(0.0994177 -0.00146541 0)
(0.0994088 -0.00142263 0)
(0.0994009 -0.0013803 0)
(0.0993942 -0.00133847 0)
(0.0993885 -0.00129716 0)
(0.0993839 -0.00125643 0)
(0.0993803 -0.00121629 0)
(0.0993776 -0.00117679 0)
(0.0993759 -0.00113794 0)
(0.0993751 -0.00109978 0)
(0.0993751 -0.00106232 0)
(0.099376 -0.0010256 0)
(0.0993776 -0.000989619 0)
(0.09938 -0.000954406 0)
(0.0993831 -0.000919973 0)
(0.0993869 -0.000886332 0)
(0.0993913 -0.000853493 0)
(0.0993963 -0.000821465 0)
(0.0994018 -0.000790253 0)
(0.0994079 -0.000759863 0)
(0.0994144 -0.000730296 0)
(0.0994214 -0.000701553 0)
(0.0994288 -0.000673632 0)
(0.0994366 -0.000646532 0)
(0.0994447 -0.000620247 0)
(0.0994532 -0.000594771 0)
(0.0994619 -0.000570099 0)
(0.0994708 -0.00054622 0)
(0.09948 -0.000523126 0)
(0.0994894 -0.000500806 0)
(0.0994989 -0.000479249 0)
(0.0995086 -0.000458441 0)
(0.0995184 -0.000438369 0)
(0.0995283 -0.00041902 0)
(0.0995382 -0.000400379 0)
(0.0995482 -0.00038243 0)
(0.0995583 -0.000365158 0)
(0.0995683 -0.000348547 0)
(0.0995783 -0.00033258 0)
(0.0995262 -0.0016677 0)
(0.0995102 -0.0016249 0)
(0.0994954 -0.00158225 0)
(0.0994818 -0.00153982 0)
(0.0994694 -0.00149764 0)
(0.0994581 -0.00145576 0)
(0.099448 -0.00141423 0)
(0.099439 -0.00137309 0)
(0.0994311 -0.00133237 0)
(0.0994242 -0.00129211 0)
(0.0994184 -0.00125236 0)
(0.0994136 -0.00121314 0)
(0.0994098 -0.00117449 0)
(0.0994069 -0.00113644 0)
(0.099405 -0.00109901 0)
(0.0994039 -0.00106224 0)
(0.0994036 -0.00102613 0)
(0.0994042 -0.000990729 0)
(0.0994055 -0.000956038 0)
(0.0994075 -0.000922079 0)
(0.0994103 -0.000888865 0)
(0.0994137 -0.000856411 0)
(0.0994177 -0.000824726 0)
(0.0994223 -0.000793818 0)
(0.0994274 -0.000763694 0)
(0.0994331 -0.000734358 0)
(0.0994392 -0.000705814 0)
(0.0994457 -0.000678061 0)
(0.0994527 -0.0006511 0)
(0.09946 -0.000624928 0)
(0.0994677 -0.00059954 0)
(0.0994757 -0.000574932 0)
(0.0994839 -0.000551097 0)
(0.0994925 -0.000528028 0)
(0.0995012 -0.000505714 0)
(0.0995101 -0.000484147 0)
(0.0995192 -0.000463315 0)
(0.0995284 -0.000443206 0)
(0.0995377 -0.000423807 0)
(0.0995472 -0.000405106 0)
(0.0995566 -0.000387088 0)
(0.0995662 -0.000369738 0)
(0.0995758 -0.000353041 0)
(0.0995854 -0.000336983 0)
(0.0995705 -0.00164967 0)
(0.0995535 -0.00160847 0)
(0.0995377 -0.00156735 0)
(0.0995231 -0.00152638 0)
(0.0995096 -0.0014856 0)
(0.0994972 -0.00144505 0)
(0.099486 -0.00140478 0)
(0.099476 -0.00136483 0)
(0.099467 -0.00132525 0)
(0.099459 -0.00128606 0)
(0.0994521 -0.00124731 0)
(0.0994462 -0.00120903 0)
(0.0994413 -0.00117126 0)
(0.0994373 -0.00113403 0)
(0.0994343 -0.00109736 0)
(0.0994321 -0.00106129 0)
(0.0994308 -0.00102585 0)
(0.0994303 -0.000991042 0)
(0.0994306 -0.000956903 0)
(0.0994316 -0.000923448 0)
(0.0994334 -0.000890692 0)
(0.0994358 -0.000858652 0)
(0.0994389 -0.000827339 0)
(0.0994425 -0.000796764 0)
(0.0994468 -0.000766935 0)
(0.0994515 -0.000737859 0)
(0.0994568 -0.000709541 0)
(0.0994625 -0.000681984 0)
(0.0994687 -0.000655188 0)
(0.0994753 -0.000629153 0)
(0.0994822 -0.000603878 0)
(0.0994895 -0.000579359 0)
(0.099497 -0.000555591 0)
(0.0995049 -0.000532568 0)
(0.0995129 -0.000510282 0)
(0.0995212 -0.000488726 0)
(0.0995297 -0.000467889 0)
(0.0995384 -0.00044776 0)
(0.0995472 -0.00042833 0)
(0.0995561 -0.000409585 0)
(0.0995651 -0.000391513 0)
(0.0995742 -0.000374101 0)
(0.0995833 -0.000357334 0)
(0.0995925 -0.000341197 0)
(0.0996131 -0.00163069 0)
(0.0995952 -0.00159107 0)
(0.0995785 -0.00155148 0)
(0.0995629 -0.00151197 0)
(0.0995485 -0.00147258 0)
(0.0995352 -0.00143337 0)
(0.099523 -0.00139436 0)
(0.0995119 -0.00135562 0)
(0.0995018 -0.00131717 0)
(0.0994929 -0.00127906 0)
(0.0994849 -0.00124133 0)
(0.099478 -0.00120401 0)
(0.0994721 -0.00116714 0)
(0.0994671 -0.00113075 0)
(0.099463 -0.00109488 0)
(0.0994598 -0.00105954 0)
(0.0994575 -0.00102477 0)
(0.099456 -0.000990594 0)
(0.0994553 -0.000957033 0)
(0.0994554 -0.000924108 0)
(0.0994562 -0.000891838 0)
(0.0994577 -0.000860239 0)
(0.0994598 -0.000829326 0)
(0.0994626 -0.000799111 0)
(0.0994659 -0.000769604 0)
(0.0994699 -0.000740814 0)
(0.0994743 -0.000712748 0)
(0.0994792 -0.000685411 0)
(0.0994846 -0.000658806 0)
(0.0994904 -0.000632934 0)
(0.0994966 -0.000607795 0)
(0.0995032 -0.000583387 0)
(0.0995101 -0.000559708 0)
(0.0995173 -0.000536752 0)
(0.0995247 -0.000514515 0)
(0.0995324 -0.000492989 0)
(0.0995403 -0.000472165 0)
(0.0995484 -0.000452036 0)
(0.0995567 -0.000432591 0)
(0.099565 -0.00041382 0)
(0.0995736 -0.000395709 0)
(0.0995822 -0.000378249 0)
(0.0995908 -0.000361425 0)
(0.0995996 -0.000345224 0)
(0.0996539 -0.00161085 0)
(0.0996353 -0.0015728 0)
(0.0996177 -0.00153472 0)
(0.0996013 -0.00149666 0)
(0.099586 -0.00145866 0)
(0.0995718 -0.00142078 0)
(0.0995587 -0.00138305 0)
(0.0995467 -0.00134551 0)
(0.0995357 -0.00130821 0)
(0.0995258 -0.00127119 0)
(0.0995169 -0.00123449 0)
(0.099509 -0.00119815 0)
(0.0995021 -0.0011622 0)
(0.0994961 -0.00112667 0)
(0.0994911 -0.0010916 0)
(0.0994869 -0.00105701 0)
(0.0994837 -0.00102294 0)
(0.0994812 -0.000989419 0)
(0.0994796 -0.00095646 0)
(0.0994787 -0.000924091 0)
(0.0994786 -0.00089233 0)
(0.0994792 -0.000861197 0)
(0.0994805 -0.000830708 0)
(0.0994824 -0.000800878 0)
(0.0994849 -0.000771718 0)
(0.099488 -0.000743239 0)
(0.0994917 -0.00071545 0)
(0.0994958 -0.000688358 0)
(0.0995004 -0.000661966 0)
(0.0995055 -0.000636279 0)
(0.099511 -0.000611299 0)
(0.0995169 -0.000587024 0)
(0.0995231 -0.000563455 0)
(0.0995296 -0.000540587 0)
(0.0995364 -0.000518418 0)
(0.0995435 -0.000496941 0)
(0.0995509 -0.000476149 0)
(0.0995584 -0.000456037 0)
(0.0995661 -0.000436594 0)
(0.099574 -0.000417811 0)
(0.099582 -0.000399678 0)
(0.0995902 -0.000382184 0)
(0.0995984 -0.000365317 0)
(0.0996067 -0.000349064 0)
(0.0996931 -0.00159026 0)
(0.0996738 -0.00155376 0)
(0.0996555 -0.00151717 0)
(0.0996384 -0.00148055 0)
(0.0996223 -0.00144393 0)
(0.0996073 -0.00140737 0)
(0.0995933 -0.0013709 0)
(0.0995805 -0.00133458 0)
(0.0995686 -0.00129843 0)
(0.0995578 -0.00126251 0)
(0.099548 -0.00122685 0)
(0.0995392 -0.00119149 0)
(0.0995314 -0.00115647 0)
(0.0995245 -0.00112182 0)
(0.0995186 -0.00108757 0)
(0.0995135 -0.00105375 0)
(0.0995093 -0.00102041 0)
(0.099506 -0.000987552 0)
(0.0995034 -0.000955216 0)
(0.0995017 -0.000923423 0)
(0.0995007 -0.000892194 0)
(0.0995004 -0.00086155 0)
(0.0995009 -0.000831509 0)
(0.099502 -0.000802086 0)
(0.0995037 -0.000773296 0)
(0.099506 -0.000745151 0)
(0.0995088 -0.000717662 0)
(0.0995122 -0.000690836 0)
(0.0995161 -0.00066468 0)
(0.0995205 -0.0006392 0)
(0.0995253 -0.000614399 0)
(0.0995304 -0.000590279 0)
(0.099536 -0.000566839 0)
(0.0995419 -0.000544079 0)
(0.0995481 -0.000521996 0)
(0.0995546 -0.000500587 0)
(0.0995614 -0.000479845 0)
(0.0995684 -0.000459766 0)
(0.0995756 -0.000440341 0)
(0.099583 -0.000421562 0)
(0.0995905 -0.000403421 0)
(0.0995982 -0.000385907 0)
(0.099606 -0.000369011 0)
(0.0996139 -0.000352719 0)
(0.0997307 -0.00156902 0)
(0.0997107 -0.00153403 0)
(0.0996918 -0.00149891 0)
(0.099674 -0.00146371 0)
(0.0996572 -0.00142846 0)
(0.0996415 -0.00139321 0)
(0.0996268 -0.00135801 0)
(0.0996131 -0.00132289 0)
(0.0996005 -0.0012879 0)
(0.0995889 -0.00125308 0)
(0.0995783 -0.00121846 0)
(0.0995686 -0.00118409 0)
(0.0995599 -0.00115001 0)
(0.0995522 -0.00111624 0)
(0.0995454 -0.00108283 0)
(0.0995395 -0.0010498 0)
(0.0995344 -0.00101719 0)
(0.0995302 -0.000985026 0)
(0.0995269 -0.000953332 0)
(0.0995243 -0.000922134 0)
(0.0995224 -0.000891458 0)
(0.0995214 -0.000861323 0)
(0.099521 -0.00083175 0)
(0.0995213 -0.000802756 0)
(0.0995222 -0.000774357 0)
(0.0995237 -0.000746567 0)
(0.0995258 -0.000719398 0)
(0.0995285 -0.000692859 0)
(0.0995317 -0.000666961 0)
(0.0995353 -0.000641708 0)
(0.0995394 -0.000617106 0)
(0.0995439 -0.000593159 0)
(0.0995489 -0.000569869 0)
(0.0995542 -0.000547235 0)
(0.0995598 -0.000525257 0)
(0.0995657 -0.000503932 0)
(0.0995719 -0.000483257 0)
(0.0995784 -0.000463227 0)
(0.0995851 -0.000443836 0)
(0.099592 -0.000425076 0)
(0.099599 -0.000406941 0)
(0.0996063 -0.000389422 0)
(0.0996136 -0.000372508 0)
(0.0996211 -0.000356191 0)
(0.0997666 -0.0015472 0)
(0.0997461 -0.00151371 0)
(0.0997267 -0.00148003 0)
(0.0997083 -0.00144623 0)
(0.0996909 -0.00141233 0)
(0.0996745 -0.00137838 0)
(0.0996591 -0.00134443 0)
(0.0996447 -0.00131051 0)
(0.0996314 -0.00127667 0)
(0.099619 -0.00124295 0)
(0.0996076 -0.00120938 0)
(0.0995972 -0.00117601 0)
(0.0995877 -0.00114287 0)
(0.0995792 -0.00111 0)
(0.0995716 -0.00107743 0)
(0.0995648 -0.0010452 0)
(0.099559 -0.00101334 0)
(0.099554 -0.000981876 0)
(0.0995498 -0.000950839 0)
(0.0995464 -0.000920254 0)
(0.0995438 -0.000890146 0)
(0.0995419 -0.000860539 0)
(0.0995407 -0.000831453 0)
(0.0995403 -0.000802907 0)
(0.0995404 -0.000774918 0)
(0.0995412 -0.000747503 0)
(0.0995426 -0.000720673 0)
(0.0995446 -0.000694442 0)
(0.099547 -0.00066882 0)
(0.09955 -0.000643813 0)
(0.0995535 -0.00061943 0)
(0.0995574 -0.000595675 0)
(0.0995617 -0.000572552 0)
(0.0995663 -0.000550062 0)
(0.0995714 -0.000528205 0)
(0.0995767 -0.000506982 0)
(0.0995824 -0.00048639 0)
(0.0995883 -0.000466424 0)
(0.0995945 -0.000447082 0)
(0.0996009 -0.000428357 0)
(0.0996075 -0.000410242 0)
(0.0996143 -0.00039273 0)
(0.0996212 -0.000375812 0)
(0.0996283 -0.00035948 0)
(0.099801 -0.00152489 0)
(0.0997801 -0.00149286 0)
(0.0997601 -0.00146061 0)
(0.0997412 -0.00142818 0)
(0.0997232 -0.00139561 0)
(0.0997062 -0.00136295 0)
(0.0996902 -0.00133023 0)
(0.0996752 -0.00129751 0)
(0.0996612 -0.00126481 0)
(0.0996482 -0.00123218 0)
(0.0996361 -0.00119966 0)
(0.0996249 -0.00116728 0)
(0.0996147 -0.00113509 0)
(0.0996055 -0.00110312 0)
(0.0995971 -0.00107141 0)
(0.0995896 -0.00103999 0)
(0.099583 -0.00100888 0)
(0.0995772 -0.000978136 0)
(0.0995723 -0.000947769 0)
(0.0995681 -0.000917811 0)
(0.0995647 -0.000888288 0)
(0.0995621 -0.000859224 0)
(0.0995602 -0.000830641 0)
(0.099559 -0.00080256 0)
(0.0995584 -0.000774999 0)
(0.0995585 -0.000747976 0)
(0.0995592 -0.000721504 0)
(0.0995605 -0.000695599 0)
(0.0995623 -0.00067027 0)
(0.0995646 -0.000645528 0)
(0.0995674 -0.000621381 0)
(0.0995707 -0.000597835 0)
(0.0995743 -0.000574896 0)
(0.0995784 -0.000552567 0)
(0.0995829 -0.000530849 0)
(0.0995877 -0.000509743 0)
(0.0995928 -0.000489248 0)
(0.0995983 -0.000469363 0)
(0.099604 -0.000450084 0)
(0.0996099 -0.000431406 0)
(0.099616 -0.000413325 0)
(0.0996224 -0.000395833 0)
(0.0996289 -0.000378924 0)
(0.0996355 -0.000362589 0)
(0.0998338 -0.00150218 0)
(0.0998125 -0.00147157 0)
(0.0997922 -0.00144071 0)
(0.0997728 -0.00140963 0)
(0.0997543 -0.00137837 0)
(0.0997368 -0.00134697 0)
(0.0997203 -0.00131548 0)
(0.0997047 -0.00128393 0)
(0.0996901 -0.00125236 0)
(0.0996764 -0.00122082 0)
(0.0996637 -0.00118934 0)
(0.0996519 -0.00115796 0)
(0.099641 -0.00112672 0)
(0.099631 -0.00109566 0)
(0.0996219 -0.0010648 0)
(0.0996137 -0.00103419 0)
(0.0996064 -0.00100386 0)
(0.0995999 -0.000973837 0)
(0.0995943 -0.000944151 0)
(0.0995894 -0.000914833 0)
(0.0995853 -0.000885907 0)
(0.099582 -0.000857401 0)
(0.0995793 -0.000829336 0)
(0.0995774 -0.000801736 0)
(0.0995762 -0.000774619 0)
(0.0995756 -0.000748003 0)
(0.0995756 -0.000721907 0)
(0.0995762 -0.000696343 0)
(0.0995773 -0.000671324 0)
(0.099579 -0.000646863 0)
(0.0995812 -0.000622969 0)
(0.0995838 -0.000599649 0)
(0.0995869 -0.00057691 0)
(0.0995905 -0.000554757 0)
(0.0995944 -0.000533193 0)
(0.0995986 -0.00051222 0)
(0.0996032 -0.000491838 0)
(0.0996082 -0.000472048 0)
(0.0996133 -0.000452845 0)
(0.0996188 -0.000434229 0)
(0.0996245 -0.000416194 0)
(0.0996304 -0.000398735 0)
(0.0996365 -0.000381846 0)
(0.0996427 -0.00036552 0)
(0.0998651 -0.00147912 0)
(0.0998435 -0.00144991 0)
(0.0998228 -0.00142041 0)
(0.099803 -0.00139065 0)
(0.0997842 -0.00136067 0)
(0.0997662 -0.00133052 0)
(0.0997492 -0.00130023 0)
(0.0997331 -0.00126984 0)
(0.0997179 -0.0012394 0)
(0.0997037 -0.00120893 0)
(0.0996904 -0.00117849 0)
(0.099678 -0.0011481 0)
(0.0996665 -0.00111781 0)
(0.0996558 -0.00108765 0)
(0.0996461 -0.00105766 0)
(0.0996373 -0.00102786 0)
(0.0996293 -0.000998305 0)
(0.0996221 -0.000969013 0)
(0.0996158 -0.000940017 0)
(0.0996102 -0.000911348 0)
(0.0996054 -0.000883031 0)
(0.0996014 -0.000855094 0)
(0.0995981 -0.000827561 0)
(0.0995955 -0.000800454 0)
(0.0995936 -0.000773795 0)
(0.0995923 -0.000747603 0)
(0.0995917 -0.000721895 0)
(0.0995916 -0.000696688 0)
(0.0995922 -0.000671996 0)
(0.0995932 -0.000647832 0)
(0.0995948 -0.000624205 0)
(0.0995969 -0.000601127 0)
(0.0995994 -0.000578603 0)
(0.0996024 -0.000556642 0)
(0.0996057 -0.000535246 0)
(0.0996095 -0.00051442 0)
(0.0996136 -0.000494165 0)
(0.099618 -0.000474482 0)
(0.0996227 -0.000455371 0)
(0.0996277 -0.000436828 0)
(0.0996329 -0.000418852 0)
(0.0996384 -0.000401438 0)
(0.0996441 -0.000384581 0)
(0.0996499 -0.000368275 0)
(0.099895 -0.0014558 0)
(0.0998731 -0.00142795 0)
(0.0998521 -0.00139977 0)
(0.099832 -0.0013713 0)
(0.0998128 -0.00134258 0)
(0.0997945 -0.00131365 0)
(0.099777 -0.00128454 0)
(0.0997605 -0.0012553 0)
(0.0997448 -0.00122596 0)
(0.09973 -0.00119656 0)
(0.0997162 -0.00116714 0)
(0.0997032 -0.00113774 0)
(0.0996912 -0.0011084 0)
(0.09968 -0.00107914 0)
(0.0996696 -0.00105 0)
(0.0996602 -0.00102103 0)
(0.0996516 -0.00099225 0)
(0.0996438 -0.000963695 0)
(0.0996368 -0.000935396 0)
(0.0996306 -0.000907384 0)
(0.0996252 -0.000879685 0)
(0.0996205 -0.000852328 0)
(0.0996165 -0.000825337 0)
(0.0996133 -0.000798736 0)
(0.0996107 -0.000772547 0)
(0.0996088 -0.000746791 0)
(0.0996076 -0.000721486 0)
(0.0996069 -0.00069665 0)
(0.0996068 -0.000672298 0)
(0.0996073 -0.000648444 0)
(0.0996083 -0.0006251 0)
(0.0996098 -0.000602277 0)
(0.0996118 -0.000579983 0)
(0.0996142 -0.000558227 0)
(0.099617 -0.000537014 0)
(0.0996203 -0.000516349 0)
(0.0996238 -0.000496235 0)
(0.0996278 -0.000476673 0)
(0.099632 -0.000457664 0)
(0.0996366 -0.000439208 0)
(0.0996414 -0.000421303 0)
(0.0996464 -0.000403945 0)
(0.0996517 -0.000387131 0)
(0.0996571 -0.000370856 0)
(0.0999234 -0.00143227 0)
(0.0999014 -0.00140574 0)
(0.0998802 -0.00137885 0)
(0.0998598 -0.00135164 0)
(0.0998402 -0.00132415 0)
(0.0998216 -0.00129641 0)
(0.0998037 -0.00126846 0)
(0.0997868 -0.00124035 0)
(0.0997707 -0.0012121 0)
(0.0997555 -0.00118376 0)
(0.0997412 -0.00115535 0)
(0.0997277 -0.00112693 0)
(0.0997151 -0.00109852 0)
(0.0997034 -0.00107016 0)
(0.0996925 -0.00104188 0)
(0.0996825 -0.00101373 0)
(0.0996732 -0.000985728 0)
(0.0996649 -0.000957914 0)
(0.0996573 -0.000930317 0)
(0.0996505 -0.000902967 0)
(0.0996444 -0.000875894 0)
(0.0996392 -0.000849125 0)
(0.0996346 -0.000822686 0)
(0.0996308 -0.000796601 0)
(0.0996276 -0.000770894 0)
(0.0996251 -0.000745585 0)
(0.0996232 -0.000720696 0)
(0.099622 -0.000696243 0)
(0.0996213 -0.000672244 0)
(0.0996212 -0.000648713 0)
(0.0996217 -0.000625665 0)
(0.0996226 -0.00060311 0)
(0.099624 -0.00058106 0)
(0.0996259 -0.000559522 0)
(0.0996282 -0.000538505 0)
(0.0996309 -0.000518013 0)
(0.099634 -0.000498052 0)
(0.0996375 -0.000478624 0)
(0.0996413 -0.000459731 0)
(0.0996454 -0.000441373 0)
(0.0996497 -0.00042355 0)
(0.0996544 -0.00040626 0)
(0.0996592 -0.000389499 0)
(0.0996643 -0.000373265 0)
(0.0999505 -0.0014086 0)
(0.0999283 -0.00138334 0)
(0.0999069 -0.0013577 0)
(0.0998863 -0.00133172 0)
(0.0998665 -0.00130543 0)
(0.0998476 -0.00127886 0)
(0.0998294 -0.00125205 0)
(0.0998121 -0.00122504 0)
(0.0997957 -0.00119787 0)
(0.09978 -0.00117056 0)
(0.0997653 -0.00114316 0)
(0.0997514 -0.0011157 0)
(0.0997383 -0.00108822 0)
(0.0997261 -0.00106075 0)
(0.0997147 -0.00103333 0)
(0.0997041 -0.00100599 0)
(0.0996944 -0.000978771 0)
(0.0996854 -0.000951699 0)
(0.0996773 -0.000924807 0)
(0.0996699 -0.000898125 0)
(0.0996633 -0.000871683 0)
(0.0996574 -0.000845509 0)
(0.0996523 -0.00081963 0)
(0.0996479 -0.00079407 0)
(0.0996441 -0.000768853 0)
(0.0996411 -0.000744003 0)
(0.0996386 -0.000719539 0)
(0.0996368 -0.000695481 0)
(0.0996356 -0.000671846 0)
(0.0996349 -0.000648651 0)
(0.0996348 -0.00062591 0)
(0.0996352 -0.000603637 0)
(0.0996361 -0.000581842 0)
(0.0996375 -0.000560535 0)
(0.0996393 -0.000539726 0)
(0.0996415 -0.00051942 0)
(0.0996442 -0.000499624 0)
(0.0996472 -0.000480341 0)
(0.0996505 -0.000461575 0)
(0.0996541 -0.000443327 0)
(0.0996581 -0.000425597 0)
(0.0996623 -0.000408385 0)
(0.0996668 -0.000391688 0)
(0.0996715 -0.000375505 0)
(0.0999762 -0.00138483 0)
(0.0999539 -0.00136081 0)
(0.0999324 -0.00133638 0)
(0.0999117 -0.0013116 0)
(0.0998917 -0.00128647 0)
(0.0998725 -0.00126105 0)
(0.0998541 -0.00123535 0)
(0.0998365 -0.00120942 0)
(0.0998197 -0.0011833 0)
(0.0998037 -0.00115701 0)
(0.0997886 -0.0011306 0)
(0.0997742 -0.00110409 0)
(0.0997607 -0.00107753 0)
(0.099748 -0.00105095 0)
(0.0997362 -0.00102438 0)
(0.0997251 -0.000997855 0)
(0.0997149 -0.000971411 0)
(0.0997054 -0.000945081 0)
(0.0996968 -0.000918894 0)
(0.0996889 -0.000892883 0)
(0.0996817 -0.000867076 0)
(0.0996753 -0.000841502 0)
(0.0996696 -0.000816189 0)
(0.0996647 -0.000791161 0)
(0.0996604 -0.000766443 0)
(0.0996567 -0.00074206 0)
(0.0996538 -0.000718031 0)
(0.0996514 -0.000694377 0)
(0.0996496 -0.000671118 0)
(0.0996484 -0.000648269 0)
(0.0996478 -0.000625847 0)
(0.0996477 -0.000603866 0)
(0.0996481 -0.000582338 0)
(0.099649 -0.000561274 0)
(0.0996503 -0.000540684 0)
(0.0996521 -0.000520575 0)
(0.0996542 -0.000500956 0)
(0.0996567 -0.000481829 0)
(0.0996596 -0.000463201 0)
(0.0996629 -0.000445073 0)
(0.0996664 -0.000427447 0)
(0.0996702 -0.000410324 0)
(0.0996743 -0.000393702 0)
(0.0996786 -0.000377579 0)
(0.100798 -0.0037964 0)
(0.100658 -0.00372043 0)
(0.100528 -0.00364115 0)
(0.100406 -0.00355927 0)
(0.100293 -0.00347544 0)
(0.100188 -0.00339023 0)
(0.10009 -0.00330416 0)
(0.1 -0.00321768 0)
(0.0999169 -0.0031312 0)
(0.0998404 -0.00304506 0)
(0.0997701 -0.00295958 0)
(0.0997057 -0.00287501 0)
(0.0996468 -0.00279157 0)
(0.0995931 -0.00270947 0)
(0.0995443 -0.00262885 0)
(0.0994999 -0.00254985 0)
(0.0994598 -0.00247256 0)
(0.0994236 -0.00239707 0)
(0.0993911 -0.00232345 0)
(0.0993619 -0.00225173 0)
(0.0993359 -0.00218195 0)
(0.0993128 -0.00211413 0)
(0.0992924 -0.00204826 0)
(0.0992745 -0.00198435 0)
(0.0992589 -0.00192238 0)
(0.0992454 -0.00186233 0)
(0.0992339 -0.00180417 0)
(0.100867 -0.00365438 0)
(0.100732 -0.0035872 0)
(0.100604 -0.00351647 0)
(0.100485 -0.00344287 0)
(0.100373 -0.00336702 0)
(0.100269 -0.00328946 0)
(0.100173 -0.0032107 0)
(0.100083 -0.0031312 0)
(0.1 -0.00305133 0)
(0.0999232 -0.00297146 0)
(0.0998523 -0.0028919 0)
(0.099787 -0.00281291 0)
(0.0997271 -0.00273473 0)
(0.0996721 -0.00265755 0)
(0.0996219 -0.00258154 0)
(0.099576 -0.00250685 0)
(0.0995342 -0.00243359 0)
(0.0994963 -0.00236186 0)
(0.099462 -0.00229173 0)
(0.0994311 -0.00222326 0)
(0.0994032 -0.0021565 0)
(0.0993783 -0.00209148 0)
(0.0993561 -0.0020282 0)
(0.0993363 -0.00196669 0)
(0.0993189 -0.00190694 0)
(0.0993036 -0.00184893 0)
(0.0992902 -0.00179267 0)
(0.100928 -0.00351663 0)
(0.100797 -0.0034575 0)
(0.100672 -0.00339465 0)
(0.100556 -0.00332871 0)
(0.100446 -0.00326028 0)
(0.100344 -0.00318988 0)
(0.100249 -0.00311799 0)
(0.10016 -0.00304506 0)
(0.100077 -0.00297146 0)
(0.1 -0.00289756 0)
(0.0999288 -0.00282365 0)
(0.099863 -0.00275001 0)
(0.0998023 -0.00267687 0)
(0.0997464 -0.00260445 0)
(0.099695 -0.00253292 0)
(0.0996479 -0.00246242 0)
(0.0996048 -0.00239309 0)
(0.0995655 -0.00232504 0)
(0.0995297 -0.00225835 0)
(0.0994972 -0.00219309 0)
(0.0994677 -0.00212931 0)
(0.0994411 -0.00206707 0)
(0.0994172 -0.00200638 0)
(0.0993958 -0.00194727 0)
(0.0993767 -0.00188974 0)
(0.0993597 -0.0018338 0)
(0.0993447 -0.00177945 0)
(0.100982 -0.00338327 0)
(0.100854 -0.00333151 0)
(0.100733 -0.0032759 0)
(0.10062 -0.00321705 0)
(0.100513 -0.00315551 0)
(0.100412 -0.00309178 0)
(0.100318 -0.00302633 0)
(0.10023 -0.00295958 0)
(0.100148 -0.0028919 0)
(0.100071 -0.00282365 0)
(0.1 -0.00275512 0)
(0.0999339 -0.0026866 0)
(0.0998728 -0.0026183 0)
(0.0998162 -0.00255046 0)
(0.099764 -0.00248324 0)
(0.0997159 -0.00241682 0)
(0.0996717 -0.00235132 0)
(0.0996311 -0.00228686 0)
(0.099594 -0.00222353 0)
(0.0995602 -0.00216142 0)
(0.0995293 -0.0021006 0)
(0.0995013 -0.0020411 0)
(0.0994759 -0.00198298 0)
(0.0994529 -0.00192626 0)
(0.0994323 -0.00187096 0)
(0.0994138 -0.00181709 0)
(0.0993974 -0.00176466 0)
(0.101028 -0.00325439 0)
(0.100904 -0.00320935 0)
(0.100787 -0.00316039 0)
(0.100677 -0.00310807 0)
(0.100572 -0.00305291 0)
(0.100474 -0.00299539 0)
(0.100381 -0.00293595 0)
(0.100294 -0.00287501 0)
(0.100213 -0.00281291 0)
(0.100137 -0.00275001 0)
(0.100066 -0.0026866 0)
(0.1 -0.00262294 0)
(0.0999386 -0.00255928 0)
(0.0998816 -0.00249583 0)
(0.0998288 -0.00243278 0)
(0.09978 -0.00237029 0)
(0.0997349 -0.0023085 0)
(0.0996934 -0.00224753 0)
(0.0996552 -0.0021875 0)
(0.0996201 -0.00212847 0)
(0.0995881 -0.00207054 0)
(0.0995588 -0.00201376 0)
(0.0995321 -0.00195818 0)
(0.0995078 -0.00190383 0)
(0.0994858 -0.00185074 0)
(0.099466 -0.00179894 0)
(0.0994481 -0.00174843 0)
(0.101068 -0.00313002 0)
(0.100948 -0.00309111 0)
(0.100835 -0.00304823 0)
(0.100727 -0.00300192 0)
(0.100626 -0.00295267 0)
(0.100529 -0.00290091 0)
(0.100439 -0.00284709 0)
(0.100353 -0.00279157 0)
(0.100273 -0.00273473 0)
(0.100198 -0.00267687 0)
(0.100127 -0.0026183 0)
(0.100061 -0.00255928 0)
(0.1 -0.00250004 0)
(0.0999428 -0.00244081 0)
(0.0998896 -0.00238175 0)
(0.0998403 -0.00232305 0)
(0.0997945 -0.00226485 0)
(0.0997522 -0.00220728 0)
(0.0997132 -0.00215044 0)
(0.0996772 -0.00209443 0)
(0.099644 -0.00203934 0)
(0.0996137 -0.00198522 0)
(0.0995858 -0.00193214 0)
(0.0995604 -0.00188013 0)
(0.0995372 -0.00182924 0)
(0.0995162 -0.00177949 0)
(0.0994971 -0.0017309 0)
(0.101101 -0.00301016 0)
(0.100986 -0.00297681 0)
(0.100877 -0.00293951 0)
(0.100772 -0.00289872 0)
(0.100673 -0.00285491 0)
(0.10058 -0.00280851 0)
(0.100491 -0.0027599 0)
(0.100407 -0.00270947 0)
(0.100328 -0.00265755 0)
(0.100254 -0.00260445 0)
(0.100184 -0.00255046 0)
(0.100118 -0.00249583 0)
(0.100057 -0.00244081 0)
(0.1 -0.00238559 0)
(0.0999466 -0.00233037 0)
(0.0998969 -0.00227532 0)
(0.0998507 -0.00222058 0)
(0.0998078 -0.00216629 0)
(0.0997681 -0.00211255 0)
(0.0997313 -0.00205948 0)
(0.0996973 -0.00200715 0)
(0.099666 -0.00195565 0)
(0.0996372 -0.00190502 0)
(0.0996107 -0.00185532 0)
(0.0995865 -0.0018066 0)
(0.0995643 -0.00175888 0)
(0.0995442 -0.0017122 0)
(0.10113 -0.00289476 0)
(0.101019 -0.00286648 0)
(0.100913 -0.00283425 0)
(0.100812 -0.00279853 0)
(0.100716 -0.00275975 0)
(0.100625 -0.00271829 0)
(0.100538 -0.00267454 0)
(0.100456 -0.00262885 0)
(0.100378 -0.00258154 0)
(0.100305 -0.00253292 0)
(0.100236 -0.00248324 0)
(0.100171 -0.00243278 0)
(0.10011 -0.00238175 0)
(0.100053 -0.00233037 0)
(0.1 -0.00227882 0)
(0.0999501 -0.00222726 0)
(0.0999036 -0.00217585 0)
(0.0998603 -0.00212473 0)
(0.09982 -0.002074 0)
(0.0997826 -0.00202378 0)
(0.0997479 -0.00197415 0)
(0.0997158 -0.00192519 0)
(0.0996862 -0.00187697 0)
(0.0996588 -0.00182954 0)
(0.0996337 -0.00178295 0)
(0.0996106 -0.00173724 0)
(0.0995894 -0.00169244 0)
(0.101154 -0.00278378 0)
(0.101047 -0.00276008 0)
(0.100945 -0.00273249 0)
(0.100847 -0.00270141 0)
(0.100754 -0.00266725 0)
(0.100665 -0.00263036 0)
(0.10058 -0.00259112 0)
(0.1005 -0.00254985 0)
(0.100424 -0.00250685 0)
(0.100352 -0.00246242 0)
(0.100284 -0.00241682 0)
(0.10022 -0.00237029 0)
(0.10016 -0.00232305 0)
(0.100103 -0.00227532 0)
(0.10005 -0.00222726 0)
(0.1 -0.00217905 0)
(0.0999533 -0.00213085 0)
(0.0999098 -0.00208277 0)
(0.0998691 -0.00203495 0)
(0.0998312 -0.00198748 0)
(0.0997959 -0.00194047 0)
(0.0997632 -0.00189399 0)
(0.0997329 -0.00184812 0)
(0.0997048 -0.00180291 0)
(0.0996788 -0.00175842 0)
(0.0996549 -0.00171468 0)
(0.0996328 -0.00167175 0)
(0.101173 -0.00267712 0)
(0.101071 -0.00265759 0)
(0.100972 -0.00263421 0)
(0.100878 -0.00260738 0)
(0.100787 -0.00257746 0)
(0.100701 -0.00254479 0)
(0.100619 -0.00250973 0)
(0.10054 -0.00247256 0)
(0.100466 -0.00243359 0)
(0.100395 -0.00239309 0)
(0.100328 -0.00235132 0)
(0.100265 -0.0023085 0)
(0.100205 -0.00226485 0)
(0.100149 -0.00222058 0)
(0.100096 -0.00217585 0)
(0.100047 -0.00213085 0)
(0.1 -0.0020857 0)
(0.0999563 -0.00204056 0)
(0.0999154 -0.00199553 0)
(0.0998771 -0.00195074 0)
(0.0998415 -0.00190626 0)
(0.0998082 -0.00186219 0)
(0.0997773 -0.0018186 0)
(0.0997486 -0.00177556 0)
(0.0997219 -0.00173312 0)
(0.0996973 -0.00169133 0)
(0.0996745 -0.00165023 0)
(0.101189 -0.00257471 0)
(0.10109 -0.00255893 0)
(0.100996 -0.00253938 0)
(0.100904 -0.00251643 0)
(0.100817 -0.0024904 0)