/*--------------------------------*- C++ -*----------------------------------*\
| =========                 |                                                 |
| \\      /  F ield         | OpenFOAM: The Open Source CFD Toolbox           |
|  \\    /   O peration     | Version:  2412                                  |
|   \\  /    A nd           | Website:  www.openfoam.com                      |
|    \\/     M anipulation  |                                                 |
\*---------------------------------------------------------------------------*/
FoamFile
{
    version     2.0;
    format      ascii;
    arch        "LSB;label=32;scalar=64";
    class       volScalarField;
    location    "1";
    object      p;
}
// * * * * * * * * * * * * * * * * * * * * * * * * * * * * * * * * * * * * * //

dimensions      [0 2 -2 0 0 0 0];

internalField   nonuniform List<scalar> 
63420
(
-0.000111724
0.00538273
-0.000296047
0.00285069
0.00225474
0.00209207
0.00214428
0.00214766
0.00214428
0.00214459
0.00214593
0.00214797
0.00215082
0.00215446
0.00215887
0.00216402
0.00216991
0.00217651
0.0021838
0.00219179
0.00220045
0.00220978
0.00221976
0.00223039
0.00224166
0.00225357
0.0022661
0.00227926
0.00229304
0.00230744
0.00232245
0.00233808
0.00235432
0.00237117
0.00238864
0.00240671
0.0024254
0.00244471
0.00246463
0.00248517
0.00250633
0.00252811
0.00255051
0.00257355
0.00259721
0.0026215
0.00264644
0.00267201
0.00269822
0.00272508
0.00275259
0.00278071
0.00280951
0.00283909
0.0028693
-0.000112802
0.00538191
-0.000295355
0.00284896
0.00225517
0.00209209
0.00214412
0.00214753
0.00214415
0.00214445
0.00214578
0.00214782
0.00215066
0.0021543
0.0021587
0.00216384
0.00216972
0.00217631
0.0021836
0.00219158
0.00220023
0.00220955
0.00221952
0.00223014
0.0022414
0.00225329
0.00226581
0.00227896
0.00229272
0.0023071
0.0023221
0.00233771
0.00235393
0.00237076
0.0023882
0.00240625
0.00242492
0.0024442
0.00246409
0.0024846
0.00250572
0.00252747
0.00254984
0.00257284
0.00259646
0.00262071
0.0026456
0.00267112
0.00269728
0.00272409
0.00275154
0.00277959
0.00280834
0.00283785
0.00286793
-0.000115104
0.00538036
-0.000293936
0.00284539
0.00225611
0.00209213
0.00214378
0.00214726
0.00214388
0.00214416
0.00214548
0.00214751
0.00215034
0.00215397
0.00215835
0.00216349
0.00216935
0.00217593
0.0021832
0.00219116
0.0021998
0.00220909
0.00221905
0.00222964
0.00224088
0.00225274
0.00226523
0.00227835
0.00229208
0.00230643
0.00232139
0.00233696
0.00235314
0.00236993
0.00238733
0.00240533
0.00242395
0.00244317
0.00246301
0.00248346
0.00250452
0.0025262
0.0025485
0.00257141
0.00259496
0.00261912
0.00264392
0.00266935
0.0026954
0.00272211
0.00274944
0.00277736
0.00280599
0.00283539
0.00286523
-0.000118982
0.00537841
-0.000291844
0.00283974
0.00225771
0.00209217
0.00214324
0.00214685
0.00214347
0.00214372
0.00214503
0.00214704
0.00214986
0.00215347
0.00215784
0.00216295
0.0021688
0.00217535
0.0021826
0.00219054
0.00219914
0.00220841
0.00221833
0.00222889
0.00224009
0.00225192
0.00226437
0.00227744
0.00229112
0.00230542
0.00232033
0.00233584
0.00235196
0.00236869
0.00238602
0.00240395
0.00242249
0.00244164
0.00246139
0.00248175
0.00250271
0.00252429
0.00254648
0.00256929
0.00259271
0.00261675
0.00264141
0.00266669
0.0026926
0.00271915
0.00274631
0.00277403
0.0028025
0.00283172
0.00286124
-0.000125045
0.00537691
-0.000289375
0.00283175
0.00226021
0.00209215
0.00214249
0.00214631
0.00214293
0.00214314
0.00214443
0.00214642
0.00214922
0.00215281
0.00215715
0.00216224
0.00216806
0.00217458
0.0021818
0.0021897
0.00219827
0.0022075
0.00221738
0.00222789
0.00223904
0.00225082
0.00226322
0.00227623
0.00228985
0.00230408
0.00231892
0.00233436
0.0023504
0.00236704
0.00238428
0.00240212
0.00242056
0.00243959
0.00245923
0.00247947
0.00250031
0.00252176
0.00254381
0.00256646
0.00258972
0.0026136
0.00263808
0.00266318
0.00268889
0.00271522
0.00274215
0.00276962
0.00279787
0.00282686
0.00285594
-0.000133366
0.00537598
-0.00028614
0.00282279
0.00226413
0.00209202
0.00214147
0.00214565
0.00214225
0.00214242
0.00214368
0.00214565
0.00214842
0.00215198
0.0021563
0.00216136
0.00216714
0.00217363
0.0021808
0.00218866
0.00219719
0.00220637
0.00221619
0.00222665
0.00223774
0.00224945
0.00226178
0.00227472
0.00228826
0.00230241
0.00231716
0.00233251
0.00234845
0.00236498
0.00238211
0.00239983
0.00241815
0.00243705
0.00245655
0.00247664
0.00249732
0.0025186
0.00254048
0.00256294
0.00258601
0.00260968
0.00263394
0.00265881
0.00268427
0.00271035
0.002737
0.00276416
0.00279214
0.00282085
0.00284943
-0.000140886
0.00537052
-0.000277044
0.00280646
0.0022703
0.00209193
0.00214007
0.00214484
0.00214145
0.00214155
0.00214278
0.00214473
0.00214747
0.00215099
0.00215527
0.00216029
0.00216603
0.00217248
0.00217961
0.00218742
0.00219588
0.00220501
0.00221477
0.00222516
0.00223618
0.00224781
0.00226006
0.00227291
0.00228636
0.00230041
0.00231506
0.00233029
0.00234611
0.00236252
0.00237952
0.0023971
0.00241526
0.00243401
0.00245334
0.00247326
0.00249375
0.00251483
0.0025365
0.00255874
0.00258158
0.002605
0.002629
0.00265359
0.00267877
0.00270454
0.00273087
0.00275768
0.00278534
0.00281374
0.00284183
0.00290019
0.00293225
0.00296575
0.00300053
0.00303668
0.00307457
0.0031144
0.00315627
0.00320028
0.00324661
0.00329541
0.00334685
0.00340112
0.00345848
0.0035189
0.00358262
0.00364997
0.00372119
0.00379656
0.00387639
0.00396104
0.00405089
0.00414634
0.00424783
0.00435584
0.00447089
0.00459362
0.00472476
0.00486524
0.00501605
0.00517831
0.00535323
0.00554214
0.00574659
0.00596854
0.00621026
0.00647437
0.00676385
0.00708207
0.00743297
0.00782097
0.00825057
0.00872625
0.00925463
0.00984065
0.0104754
0.0111564
0.0118611
0.0126594
0.0137113
0.00289872
0.0029308
0.0029643
0.00299901
0.00303514
0.00307305
0.00311294
0.00315488
0.00319898
0.00324533
0.00329405
0.0033454
0.00339993
0.00345722
0.00351765
0.00358145
0.00364886
0.00372015
0.00379557
0.00387545
0.00396014
0.00405004
0.00414554
0.00424707
0.00435509
0.0044701
0.00459269
0.00472361
0.00486379
0.00501426
0.00517614
0.00535058
0.00553883
0.00574235
0.00596302
0.00620304
0.00646493
0.00675149
0.00706586
0.00741164
0.0077928
0.00821309
0.00867599
0.00918664
0.00974775
0.0103474
0.0109786
0.0116174
0.0123153
0.0132173
0.00289586
0.00292801
0.00296155
0.00299618
0.00303223
0.00307011
0.00310997
0.00315191
0.00319607
0.00324251
0.00329129
0.00334312
0.00339738
0.00345458
0.00351502
0.00357887
0.00364634
0.00371767
0.00379315
0.00387309
0.00395785
0.00404782
0.0041434
0.00424496
0.00435296
0.00446786
0.00459019
0.00472071
0.00486037
0.00501023
0.00517137
0.00534482
0.00553163
0.00573317
0.00595128
0.00618804
0.00644569
0.00672663
0.00703352
0.00736924
0.0077367
0.00813809
0.00857479
0.00904905
0.0095595
0.0100885
0.0106197
0.0111263
0.0116162
0.0122475
0.00289164
0.00292393
0.0029576
0.00299223
0.00302829
0.00306618
0.00310593
0.00314765
0.0031917
0.00323808
0.00328768
0.00333928
0.00339348
0.00345077
0.00351131
0.00357526
0.00364284
0.00371431
0.00378995
0.00387007
0.00395502
0.00404523
0.00414104
0.00424276
0.00435082
0.00446559
0.00458759
0.00471765
0.00485685
0.00500615
0.00516647
0.00533856
0.00552312
0.00572146
0.00593558
0.0061675
0.00641897
0.00669169
0.0069875
0.00730818
0.00765502
0.00802804
0.00842562
0.0088454
0.00927993
0.00970272
0.0100833
0.0103944
0.0105957
0.010766
0.00288605
0.00291847
0.00295225
0.00298686
0.00302304
0.00306111
0.00310088
0.00314231
0.00318696
0.00323386
0.0032827
0.00333431
0.00338882
0.00344638
0.00350717
0.0035714
0.00363928
0.00371107
0.00378705
0.00386752
0.00395287
0.00404354
0.0041398
0.00424179
0.00434989
0.00446439
0.00458571
0.00471492
0.00485332
0.00500173
0.0051607
0.00533072
0.00551233
0.00570665
0.00591562
0.00614108
0.00638414
0.00664557
0.00692609
0.00722604
0.00754476
0.00787957
0.00822513
0.00857336
0.00890871
0.00919271
0.00937176
0.00941455
0.00925866
0.00873724
0.00287919
0.00291173
0.00294557
0.00298005
0.00301632
0.0030547
0.00309505
0.0031376
0.00318147
0.00322804
0.00327718
0.00332911
0.00338394
0.00344184
0.00350299
0.00356761
0.00363591
0.00370815
0.00378461
0.00386559
0.00395151
0.00404281
0.00413956
0.00424168
0.00434955
0.00446372
0.00458459
0.00471319
0.00485091
0.00499846
0.00515608
0.00532406
0.00550295
0.00569387
0.00589847
0.00611788
0.00635237
0.00660173
0.00686538
0.00714182
0.00742773
0.00771671
0.00799775
0.00825324
0.00845367
0.00854141
0.00842683
0.00805599
0.00738114
0.00601021
0.00287126
0.00290382
0.00293765
0.00297209
0.00300837
0.00304703
0.00308753
0.00312995
0.00317438
0.00322123
0.00327064
0.00332276
0.00337777
0.00343584
0.00349717
0.00356198
0.00363048
0.00370292
0.00377958
0.00386075
0.00394684
0.00403821
0.00413479
0.00423638
0.00434343
0.00445681
0.00457713
0.00470532
0.00484245
0.00498892
0.00514484
0.00531063
0.00548697
0.00567484
0.00587532
0.00608876
0.00631467
0.00655195
0.0067987
0.00705145
0.00730364
0.00754373
0.00775207
0.00789558
0.00791974
0.00773572
0.00721996
0.00629115
0.00491479
0.00272169
-0.00353249
-0.00370215
-0.00355972
-0.00313539
-0.00262941
-0.00214508
-0.0017547
-0.0014741
-0.00128718
-0.00116808
-0.00109355
-0.00104675
-0.00101659
-0.00099613
-0.000981124
-0.000968879
-0.000957643
-0.000946364
-0.000934466
-0.000921634
-0.000907766
-0.000892968
-0.000877449
-0.000861367
-0.000844794
-0.000827755
-0.000810296
-0.000792518
-0.00077458
-0.000756647
-0.000738845
-0.000721261
-0.00070395
-0.00068694
-0.000670257
-0.000653931
-0.000637986
-0.000622443
-0.000607316
-0.000592618
-0.000578355
-0.000564528
-0.000551133
-0.000538164
-0.000525608
-0.000513444
-0.000501674
-0.0004903
-0.000479156
-0.000468232
-0.00394631
-0.00398341
-0.0037807
-0.00334152
-0.00281003
-0.00229691
-0.00187813
-0.00157308
-0.00136612
-0.00123095
-0.00114385
-0.00108726
-0.00104933
-0.00102266
-0.0010028
-0.000986785
-0.000972582
-0.000958934
-0.000945127
-0.000930696
-0.00091545
-0.000899511
-0.000883103
-0.000866338
-0.000849208
-0.000831681
-0.000813762
-0.000795543
-0.000777196
-0.000758891
-0.000740759
-0.000722894
-0.000705343
-0.000688124
-0.000671256
-0.000654763
-0.000638666
-0.000622982
-0.000607727
-0.000592912
-0.000578543
-0.000564623
-0.000551148
-0.000538112
-0.000525501
-0.000513291
-0.000501481
-0.000490089
-0.000478942
-0.000467998
-0.00474754
-0.00451272
-0.00417857
-0.00372167
-0.00314958
-0.00258735
-0.00211933
-0.00176975
-0.00152491
-0.00135875
-0.00124702
-0.00117102
-0.0011176
-0.00107843
-0.00104853
-0.00102454
-0.001004
-0.000985342
-0.000967597
-0.000949916
-0.000931792
-0.000913333
-0.000894866
-0.000876491
-0.000858082
-0.000839465
-0.000820519
-0.000801327
-0.000782108
-0.000763043
-0.000744247
-0.000725807
-0.000707758
-0.000690099
-0.00067284
-0.000656004
-0.000639611
-0.000623674
-0.0006082
-0.000593196
-0.000578666
-0.000564607
-0.000551015
-0.000537883
-0.000525195
-0.000512926
-0.000501073
-0.00048968
-0.000478553
-0.000467588
-0.00578822
-0.00516143
-0.00476678
-0.00424278
-0.00361343
-0.00299143
-0.00246112
-0.00205219
-0.00175518
-0.00154561
-0.0013989
-0.00129516
-0.00121974
-0.00116291
-0.00111871
-0.00108311
-0.00105322
-0.00102717
-0.00100364
-0.000981293
-0.000959072
-0.000936862
-0.000915105
-0.000894021
-0.000873477
-0.000853124
-0.000832561
-0.000811767
-0.000791042
-0.000770635
-0.000750677
-0.000731257
-0.000712366
-0.000693955
-0.000676021
-0.000658589
-0.000641674
-0.000625282
-0.000609414
-0.000594069
-0.000579245
-0.000564937
-0.000551133
-0.000537825
-0.000524997
-0.000512616
-0.000500675
-0.000489259
-0.000478136
-0.000467111
-0.00687404
-0.00598361
-0.00540392
-0.00481145
-0.00413837
-0.00346682
-0.0028778
-0.0024061
-0.00204886
-0.00178601
-0.00159459
-0.00145456
-0.00135025
-0.00127056
-0.00120808
-0.00115769
-0.00111583
-0.00108015
-0.00104894
-0.00102051
-0.000993289
-0.000966743
-0.00094114
-0.000916769
-0.000893628
-0.000871262
-0.00084897
-0.000826463
-0.00080396
-0.000781763
-0.000760156
-0.000739343
-0.000719287
-0.000699853
-0.000680998
-0.000662738
-0.000645081
-0.000628024
-0.000611561
-0.000595688
-0.000580398
-0.000565683
-0.000551529
-0.000537924
-0.000524852
-0.000512269
-0.000500155
-0.000488647
-0.000477476
-0.000466322
-0.00772134
-0.00670052
-0.00598181
-0.00533204
-0.00464831
-0.00397503
-0.00336885
-0.00285923
-0.00244989
-0.00212984
-0.00188304
-0.00169345
-0.00154705
-0.00143265
-0.00134179
-0.00126825
-0.00120753
-0.00115651
-0.00111285
-0.00107438
-0.0010392
-0.00100634
-0.000975504
-0.00094666
-0.000919756
-0.000894362
-0.000869713
-0.000845275
-0.000820958
-0.000796835
-0.000773271
-0.000750695
-0.000729131
-0.000708382
-0.000688357
-0.00066905
-0.000650451
-0.000632544
-0.000615315
-0.000598751
-0.000582841
-0.000567569
-0.00055292
-0.000538876
-0.000525423
-0.000512498
-0.000500067
-0.000488343
-0.00047701
-0.000465552
-0.00781498
-0.00724171
-0.006573
-0.00585453
-0.00513152
-0.00444885
-0.00383463
-0.0033036
-0.00285871
-0.00249383
-0.00219868
-0.00196196
-0.0017726
-0.00162069
-0.00149792
-0.00139764
-0.00131469
-0.00124522
-0.00118629
-0.00113539
-0.0010904
-0.00104977
-0.00101253
-0.000978213
-0.000946625
-0.000917338
-0.000889608
-0.000862925
-0.000836928
-0.000811241
-0.000786068
-0.000761938
-0.000738967
-0.000716976
-0.000695857
-0.000675581
-0.00065612
-0.000637442
-0.00061952
-0.000602332
-0.000585856
-0.000570071
-0.000554954
-0.000540483
-0.000526641
-0.000513349
-0.000500571
-0.000488603
-0.000477082
-0.000465249
-0.000457956
-0.000448048
-0.000437697
-0.000427014
-0.000416632
-0.000406449
-0.000396159
-0.000385845
-0.000375631
-0.000365506
-0.000355453
-0.000345482
-0.000335603
-0.000325822
-0.000316144
-0.000306573
-0.000297114
-0.000287773
-0.000278553
-0.000269459
-0.000260494
-0.000251664
-0.00024297
-0.000234417
-0.000226007
-0.000217744
-0.00020963
-0.000201667
-0.000193857
-0.000186204
-0.000178707
-0.00017137
-0.000164193
-0.000157177
-0.000150325
-0.000143635
-0.000137111
-0.000130751
-0.000124555
-0.000118526
-0.000112661
-0.000106962
-0.000101427
-9.60582e-05
-9.08515e-05
-8.58046e-05
-8.09231e-05
-7.62005e-05
-7.16368e-05
-6.72311e-05
-6.29813e-05
-5.88866e-05
-5.49438e-05
-5.11506e-05
-4.75061e-05
-4.40076e-05
-4.06526e-05
-3.74385e-05
-3.43626e-05
-3.14223e-05
-2.86151e-05
-2.59376e-05
-2.33867e-05
-2.09592e-05
-1.86515e-05
-1.64613e-05
-1.43847e-05
-1.24179e-05
-1.05574e-05
-8.79988e-06
-7.14087e-06
-5.57999e-06
-4.11014e-06
-2.7296e-06
-1.43357e-06
-2.21747e-07
9.16877e-07
1.97657e-06
2.97059e-06
3.89387e-06
4.75797e-06
5.56248e-06
6.31359e-06
7.01126e-06
7.66684e-06
8.26862e-06
8.83501e-06
9.36523e-06
9.85962e-06
1.03332e-05
1.07784e-05
1.12043e-05
1.16185e-05
1.20177e-05
1.24161e-05
1.28163e-05
1.32209e-05
1.36428e-05
1.40834e-05
1.45551e-05
1.50732e-05
1.56397e-05
1.62741e-05
1.69859e-05
1.78104e-05
1.8673e-05
2.00921e-05
1.96476e-05
2.79836e-05
4.75525e-06
7.92226e-05
-7.91799e-05
0.000144435
7.73092e-05
-0.000279265
-0.000457754
-0.000447893
-0.000437543
-0.000426822
-0.000416429
-0.000406257
-0.000395965
-0.000385647
-0.000375437
-0.000365318
-0.000355269
-0.000345303
-0.000335429
-0.000325652
-0.000315978
-0.000306412
-0.000296958
-0.000287621
-0.000278406
-0.000269317
-0.000260357
-0.000251531
-0.000242842
-0.000234294
-0.000225889
-0.00021763
-0.00020952
-0.000201562
-0.000193757
-0.000186107
-0.000178615
-0.000171281
-0.000164108
-0.000157097
-0.000150248
-0.000143562
-0.000137041
-0.000130684
-0.000124492
-0.000118466
-0.000112604
-0.000106908
-0.000101375
-9.60092e-05
-9.08051e-05
-8.57607e-05
-8.08817e-05
-7.61613e-05
-7.15998e-05
-6.71962e-05
-6.29484e-05
-5.88556e-05
-5.49146e-05
-5.11232e-05
-4.74804e-05
-4.39835e-05
-4.063e-05
-3.74174e-05
-3.43429e-05
-3.14038e-05
-2.8598e-05
-2.59215e-05
-2.33717e-05
-2.09452e-05
-1.86385e-05
-1.64493e-05
-1.43735e-05
-1.24075e-05
-1.05479e-05
-8.79101e-06
-7.13279e-06
-5.57251e-06
-4.10337e-06
-2.72343e-06
-1.42802e-06
-2.16506e-07
9.21225e-07
1.98115e-06
2.97401e-06
3.8977e-06
4.76109e-06
5.56517e-06
6.31629e-06
7.0136e-06
7.66847e-06
8.27063e-06
8.83647e-06
9.36654e-06
9.86056e-06
1.03343e-05
1.0779e-05
1.1205e-05
1.16188e-05
1.20181e-05
1.2416e-05
1.28166e-05
1.32205e-05
1.36426e-05
1.40828e-05
1.45547e-05
1.50723e-05
1.56385e-05
1.62725e-05
1.69847e-05
1.78082e-05
1.86712e-05
2.00896e-05
1.96482e-05
2.79747e-05
4.76999e-06
7.91931e-05
-7.91598e-05
0.00014445
7.72787e-05
-0.000279259
-0.000457404
-0.000447621
-0.000437254
-0.000426446
-0.000416027
-0.000405874
-0.000395579
-0.000385253
-0.000375049
-0.000364941
-0.000354902
-0.000344944
-0.000335079
-0.000325312
-0.000315648
-0.000306091
-0.000296646
-0.000287319
-0.000278113
-0.000269033
-0.000260083
-0.000251266
-0.000242587
-0.000234048
-0.000225652
-0.000217402
-0.000209301
-0.000201352
-0.000193555
-0.000185914
-0.00017843
-0.000171104
-0.000163939
-0.000156935
-0.000150093
-0.000143415
-0.0001369
-0.00013055
-0.000124365
-0.000118345
-0.000112489
-0.000106799
-0.000101272
-9.59113e-05
-9.07125e-05
-8.56731e-05
-8.07987e-05
-7.60829e-05
-7.15258e-05
-6.71265e-05
-6.28827e-05
-5.87936e-05
-5.48563e-05
-5.10685e-05
-4.74289e-05
-4.39354e-05
-4.05849e-05
-3.73751e-05
-3.43034e-05
-3.1367e-05
-2.85636e-05
-2.58894e-05
-2.33418e-05
-2.09173e-05
-1.86127e-05
-1.64252e-05
-1.43511e-05
-1.23868e-05
-1.05286e-05
-8.77341e-06
-7.11667e-06
-5.55767e-06
-4.08983e-06
-2.71109e-06
-1.41682e-06
-2.06094e-07
9.3022e-07
1.99007e-06
2.98134e-06
3.90499e-06
4.76757e-06
5.57078e-06
6.32158e-06
7.01812e-06
7.67208e-06
8.27432e-06
8.83954e-06
9.36907e-06
9.86296e-06
1.03363e-05
1.07804e-05
1.12063e-05
1.16195e-05
1.20188e-05
1.24164e-05
1.28166e-05
1.32203e-05
1.36418e-05
1.4082e-05
1.45535e-05
1.50705e-05
1.56366e-05
1.62694e-05
1.69819e-05
1.78046e-05
1.8668e-05
2.00842e-05
1.96485e-05
2.79562e-05
4.7996e-06
7.91346e-05
-7.91206e-05
0.000144482
7.72172e-05
-0.00027925
-0.000456968
-0.000447252
-0.000436839
-0.000425892
-0.000415424
-0.000405294
-0.000394997
-0.000384662
-0.000374469
-0.000364377
-0.000354352
-0.000344407
-0.000334556
-0.000324803
-0.000315152
-0.000305609
-0.000296178
-0.000286865
-0.000277674
-0.000268608
-0.000259672
-0.00025087
-0.000242204
-0.000233679
-0.000225297
-0.000217061
-0.000208973
-0.000201037
-0.000193253
-0.000185624
-0.000178152
-0.000170838
-0.000163685
-0.000156692
-0.000149862
-0.000143194
-0.00013669
-0.00013035
-0.000124174
-0.000118164
-0.000112317
-0.000106636
-0.000101117
-9.57646e-05
-9.05737e-05
-8.55417e-05
-8.06744e-05
-7.59655e-05
-7.1415e-05
-6.70219e-05
-6.27843e-05
-5.87008e-05
-5.47689e-05
-5.09864e-05
-4.73519e-05
-4.38631e-05
-4.05172e-05
-3.73118e-05
-3.42442e-05
-3.13118e-05
-2.85119e-05
-2.58412e-05
-2.32969e-05
-2.08755e-05
-1.8574e-05
-1.63892e-05
-1.43176e-05
-1.23559e-05
-1.04999e-05
-8.74704e-06
-7.09252e-06
-5.53544e-06
-4.06948e-06
-2.6925e-06
-1.39994e-06
-1.90422e-07
9.43982e-07
2.00324e-06
2.99264e-06
3.91581e-06
4.77722e-06
5.57936e-06
6.32938e-06
7.02503e-06
7.67774e-06
8.27978e-06
8.84419e-06
9.37302e-06
9.86656e-06
1.03392e-05
1.07827e-05
1.12083e-05
1.16207e-05
1.20199e-05
1.24169e-05
1.28165e-05
1.322e-05
1.36407e-05
1.40808e-05
1.45517e-05
1.5068e-05
1.56338e-05
1.62653e-05
1.69778e-05
1.77994e-05
1.86632e-05
2.00763e-05
1.96489e-05
2.79287e-05
4.84371e-06
7.9048e-05
-7.90662e-05
0.000144534
7.71236e-05
-0.000279249
-0.000456154
-0.000446529
-0.000436124
-0.000425066
-0.000414573
-0.000404491
-0.000394208
-0.000383871
-0.000373695
-0.000363626
-0.000353618
-0.000343691
-0.000333858
-0.000324124
-0.000314491
-0.000304966
-0.000295554
-0.00028626
-0.000277088
-0.000268041
-0.000259124
-0.000250341
-0.000241694
-0.000233187
-0.000224823
-0.000216605
-0.000208536
-0.000200617
-0.00019285
-0.000185238
-0.000177782
-0.000170485
-0.000163347
-0.000156369
-0.000149554
-0.0001429
-0.00013641
-0.000130083
-0.000123921
-0.000117922
-0.000112088
-0.000106418
-0.000100911
-9.55689e-05
-9.03885e-05
-8.53664e-05
-8.05086e-05
-7.58089e-05
-7.12672e-05
-6.68825e-05
-6.26529e-05
-5.8577e-05
-5.46524e-05
-5.08771e-05
-4.72492e-05
-4.37668e-05
-4.0427e-05
-3.72273e-05
-3.41652e-05
-3.1238e-05
-2.8443e-05
-2.57769e-05
-2.32371e-05
-2.08198e-05
-1.85223e-05
-1.63411e-05
-1.42731e-05
-1.23146e-05
-1.04617e-05
-8.71187e-06
-7.06029e-06
-5.50577e-06
-4.04229e-06
-2.66763e-06
-1.37736e-06
-1.69506e-07
9.62563e-07
2.02069e-06
3.00799e-06
3.93017e-06
4.79007e-06
5.5909e-06
6.33972e-06
7.03433e-06
7.68549e-06
8.28705e-06
8.85045e-06
9.37841e-06
9.8714e-06
1.0343e-05
1.07858e-05
1.12108e-05
1.16224e-05
1.20214e-05
1.24176e-05
1.28165e-05
1.32196e-05
1.36392e-05
1.40792e-05
1.45494e-05
1.50647e-05
1.56301e-05
1.62602e-05
1.69725e-05
1.77927e-05
1.86566e-05
2.00659e-05
1.96493e-05
2.78924e-05
4.90163e-06
7.89365e-05
-7.90047e-05
0.000144614
7.70014e-05
-0.000279275
-0.000455101
-0.000445499
-0.000435119
-0.000423973
-0.000413477
-0.00040347
-0.000393217
-0.000382885
-0.000372729
-0.000362686
-0.000352702
-0.000342796
-0.000332986
-0.000323273
-0.000313664
-0.000304162
-0.000294774
-0.000285503
-0.000276355
-0.000267332
-0.000258438
-0.000249679
-0.000241056
-0.000232572
-0.000224231
-0.000216036
-0.000207989
-0.000200091
-0.000192346
-0.000184755
-0.00017732
-0.000170042
-0.000162924
-0.000155965
-0.000149168
-0.000142532
-0.000136059
-0.00012975
-0.000123603
-0.000117621
-0.000111801
-0.000106146
-0.000100653
-9.53241e-05
-9.01566e-05
-8.51469e-05
-8.03011e-05
-7.5613e-05
-7.10823e-05
-6.67081e-05
-6.24886e-05
-5.84222e-05
-5.45068e-05
-5.07403e-05
-4.71208e-05
-4.36463e-05
-4.03141e-05
-3.71216e-05
-3.40664e-05
-3.11457e-05
-2.83568e-05
-2.56965e-05
-2.31622e-05
-2.07501e-05
-1.84575e-05
-1.6281e-05
-1.42174e-05
-1.2263e-05
-1.0414e-05
-8.6679e-06
-7.01992e-06
-5.46864e-06
-4.00827e-06
-2.63648e-06
-1.34903e-06
-1.43353e-07
9.85989e-07
2.04243e-06
3.02739e-06
3.94808e-06
4.80615e-06
5.60541e-06
6.35262e-06
7.04599e-06
7.69533e-06
8.29616e-06
8.85833e-06
9.38519e-06
9.87749e-06
1.03477e-05
1.07898e-05
1.1214e-05
1.16245e-05
1.20232e-05
1.24186e-05
1.28165e-05
1.32192e-05
1.36376e-05
1.40772e-05
1.45464e-05
1.50607e-05
1.56255e-05
1.62543e-05
1.6966e-05
1.77846e-05
1.86485e-05
2.00528e-05
1.96499e-05
2.78469e-05
4.97424e-06
7.87987e-05
-7.89352e-05
0.000144738
7.68558e-05
-0.000279322
-0.00045432
-0.000444599
-0.000434137
-0.000422813
-0.000412244
-0.000402285
-0.000392055
-0.00038172
-0.000371578
-0.000361562
-0.000351602
-0.000341722
-0.000331937
-0.000322252
-0.00031267
-0.000303196
-0.000293836
-0.000284594
-0.000275474
-0.00026648
-0.000257615
-0.000248884
-0.000240289
-0.000231834
-0.000223521
-0.000215353
-0.000207332
-0.000199461
-0.000191742
-0.000184176
-0.000176765
-0.000169512
-0.000162417
-0.000155481
-0.000148705
-0.000142091
-0.000135639
-0.000129349
-0.000123223
-0.000117259
-0.000111457
-0.00010582
-0.000100343
-9.50305e-05
-8.98784e-05
-8.48838e-05
-8.00524e-05
-7.53782e-05
-7.08606e-05
-6.64991e-05
-6.22917e-05
-5.82368e-05
-5.43323e-05
-5.05764e-05
-4.69669e-05
-4.3502e-05
-4.01788e-05
-3.6995e-05
-3.39479e-05
-3.10351e-05
-2.82535e-05
-2.56002e-05
-2.30725e-05
-2.06666e-05
-1.838e-05
-1.62091e-05
-1.41506e-05
-1.22012e-05
-1.03569e-05
-8.61527e-06
-6.97157e-06
-5.42416e-06
-3.96751e-06
-2.59915e-06
-1.31504e-06
-1.12059e-07
1.01418e-06
2.06842e-06
3.05074e-06
3.96948e-06
4.82541e-06
5.6228e-06
6.36808e-06
7.05995e-06
7.70724e-06
8.30707e-06
8.86777e-06
9.39331e-06
9.88474e-06
1.03535e-05
1.07946e-05
1.12179e-05
1.16272e-05
1.20253e-05
1.24198e-05
1.28165e-05
1.32187e-05
1.36357e-05
1.40747e-05
1.45429e-05
1.50559e-05
1.56199e-05
1.62473e-05
1.69581e-05
1.77749e-05
1.86386e-05
2.00369e-05
1.96512e-05
2.77888e-05
5.07225e-06
7.86051e-05
-7.88042e-05
0.000144893
7.66656e-05
-0.00027926
-0.00045246
-0.000442875
-0.00043261
-0.000421314
-0.000410755
-0.000400877
-0.000390693
-0.000380356
-0.000370222
-0.000360229
-0.000350296
-0.000340442
-0.000330687
-0.000321033
-0.000311484
-0.000302043
-0.000292717
-0.000283509
-0.000274423
-0.000265464
-0.000256634
-0.000247936
-0.000239375
-0.000230953
-0.000222673
-0.000214538
-0.000206549
-0.00019871
-0.000191021
-0.000183485
-0.000176104
-0.000168879
-0.000161812
-0.000154903
-0.000148154
-0.000141566
-0.000135138
-0.000128873
-0.000122769
-0.000116827
-0.000111048
-0.000105431
-9.99744e-05
-9.46807e-05
-8.9547e-05
-8.45703e-05
-7.97561e-05
-7.50983e-05
-7.05965e-05
-6.625e-05
-6.2057e-05
-5.80158e-05
-5.41244e-05
-5.03811e-05
-4.67836e-05
-4.333e-05
-4.00176e-05
-3.68441e-05
-3.38068e-05
-3.09032e-05
-2.81304e-05
-2.54854e-05
-2.29655e-05
-2.05672e-05
-1.82877e-05
-1.61234e-05
-1.40711e-05
-1.21277e-05
-1.02889e-05
-8.5526e-06
-6.91397e-06
-5.37119e-06
-3.91895e-06
-2.55466e-06
-1.27449e-06
-7.47915e-08
1.04788e-06
2.09933e-06
3.07867e-06
3.99495e-06
4.84836e-06
5.64351e-06
6.3865e-06
7.07654e-06
7.72153e-06
8.32003e-06
8.87902e-06
9.40303e-06
9.89332e-06
1.03604e-05
1.08004e-05
1.12226e-05
1.16305e-05
1.20277e-05
1.24211e-05
1.28166e-05
1.32181e-05
1.36334e-05
1.40717e-05
1.45387e-05
1.50501e-05
1.56131e-05
1.62387e-05
1.69485e-05
1.77631e-05
1.86268e-05
2.00176e-05
1.96536e-05
2.77147e-05
5.206e-06
7.8323e-05
-7.85496e-05
0.000144886
7.63961e-05
-0.000278945
-0.000450164
-0.000440687
-0.000430604
-0.000419362
-0.00040886
-0.000399101
-0.000389
-0.000378699
-0.000368599
-0.000358646
-0.000348751
-0.000338934
-0.000329216
-0.0003196
-0.00031009
-0.000300689
-0.000291403
-0.000282235
-0.00027319
-0.000264271
-0.000255481
-0.000246824
-0.000238303
-0.00022992
-0.000221679
-0.000213582
-0.000205631
-0.000197828
-0.000190175
-0.000182675
-0.000175328
-0.000168137
-0.000161103
-0.000154226
-0.000147507
-0.000140949
-0.000134551
-0.000128313
-0.000122236
-0.000116321
-0.000110567
-0.000104975
-9.95415e-05
-9.42703e-05
-8.91583e-05
-8.42027e-05
-7.94084e-05
-7.477e-05
-7.02865e-05
-6.59577e-05
-6.17816e-05
-5.77564e-05
-5.38805e-05
-5.01518e-05
-4.65684e-05
-4.31281e-05
-3.98284e-05
-3.66669e-05
-3.36411e-05
-3.07484e-05
-2.79859e-05
-2.53507e-05
-2.284e-05
-2.04505e-05
-1.81792e-05
-1.60228e-05
-1.39778e-05
-1.20413e-05
-1.02091e-05
-8.47905e-06
-6.84634e-06
-5.309e-06
-3.86194e-06
-2.50239e-06
-1.22682e-06
-3.10387e-08
1.08754e-06
2.13561e-06
3.11153e-06
4.02483e-06
4.87532e-06
5.66781e-06
6.40814e-06
7.09598e-06
7.73841e-06
8.33521e-06
8.89224e-06
9.41449e-06
9.90334e-06
1.03686e-05
1.08071e-05
1.1228e-05
1.16344e-05
1.20306e-05
1.24228e-05
1.28166e-05
1.32173e-05
1.36308e-05
1.40681e-05
1.45336e-05
1.50433e-05
1.56051e-05
1.62287e-05
1.69371e-05
1.77493e-05
1.86125e-05
1.99964e-05
1.9651e-05
2.76457e-05
5.31289e-06
7.80955e-05
-7.83874e-05
0.000145004
7.61752e-05
-0.000278817
-0.000448832
-0.0004392
-0.000428975
-0.000417558
-0.000406966
-0.000397216
-0.000387139
-0.000376854
-0.00036678
-0.000356863
-0.000347006
-0.000337229
-0.000327553
-0.000317981
-0.000308515
-0.000299159
-0.000289918
-0.000280797
-0.000271797
-0.000262924
-0.00025418
-0.000245569
-0.000237092
-0.000228754
-0.000220557
-0.000212503
-0.000204595
-0.000196833
-0.000189222
-0.000181761
-0.000174454
-0.0001673
-0.000160303
-0.000153462
-0.000146778
-0.000140253
-0.000133888
-0.000127682
-0.000121636
-0.00011575
-0.000110025
-0.00010446
-9.90535e-05
-9.38077e-05
-8.87203e-05
-8.37882e-05
-7.90165e-05
-7.43997e-05
-6.9937e-05
-6.5628e-05
-6.14709e-05
-5.74639e-05
-5.36054e-05
-4.98933e-05
-4.63257e-05
-4.29004e-05
-3.9615e-05
-3.64671e-05
-3.34542e-05
-3.05738e-05
-2.78229e-05
-2.51987e-05
-2.26985e-05
-2.03189e-05
-1.8057e-05
-1.59094e-05
-1.38727e-05
-1.1944e-05
-1.01191e-05
-8.39614e-06
-6.77007e-06
-5.23886e-06
-3.79762e-06
-2.44343e-06
-1.173e-06
1.83061e-08
1.13235e-06
2.17651e-06
3.14866e-06
4.05851e-06
4.90573e-06
5.69521e-06
6.43257e-06
7.11788e-06
7.75752e-06
8.35231e-06
8.90714e-06
9.42746e-06
9.91461e-06
1.03778e-05
1.08148e-05
1.12342e-05
1.16389e-05
1.20337e-05
1.24246e-05
1.28166e-05
1.32163e-05
1.36278e-05
1.4064e-05
1.45279e-05
1.50357e-05
1.5596e-05
1.62173e-05
1.69242e-05
1.77338e-05
1.85961e-05
1.99735e-05
1.96439e-05
2.7581e-05
5.39888e-06
7.78991e-05
-7.82607e-05
0.000145097
7.59778e-05
-0.000278732
-0.000447006
-0.000437326
-0.000427033
-0.000415523
-0.000404882
-0.000395136
-0.000385075
-0.000374806
-0.000364757
-0.000354876
-0.00034506
-0.000335327
-0.000325697
-0.000316173
-0.000306757
-0.000297452
-0.000288262
-0.000279192
-0.000270244
-0.000261423
-0.00025273
-0.000244169
-0.000235744
-0.000227456
-0.000219308
-0.000211302
-0.000203441
-0.000195726
-0.00018816
-0.000180744
-0.00017348
-0.000166369
-0.000159412
-0.000152611
-0.000145966
-0.000139479
-0.00013315
-0.00012698
-0.000120968
-0.000115115
-0.000109421
-0.000103887
-9.85101e-05
-9.32927e-05
-8.82326e-05
-8.33266e-05
-7.858e-05
-7.39873e-05
-6.95477e-05
-6.52608e-05
-6.11249e-05
-5.71381e-05
-5.32989e-05
-4.96053e-05
-4.60553e-05
-4.26468e-05
-3.93772e-05
-3.62445e-05
-3.3246e-05
-3.03792e-05
-2.76413e-05
-2.50294e-05
-2.25408e-05
-2.01722e-05
-1.79208e-05
-1.5783e-05
-1.37554e-05
-1.18355e-05
-1.00189e-05
-8.30374e-06
-6.68505e-06
-5.16067e-06
-3.72591e-06
-2.37766e-06
-1.11295e-06
7.33286e-08
1.18238e-06
2.22212e-06
3.19009e-06
4.09605e-06
4.93964e-06
5.72576e-06
6.45982e-06
7.14226e-06
7.77891e-06
8.37137e-06
8.92379e-06
9.44196e-06
9.92715e-06
1.03882e-05
1.08234e-05
1.1241e-05
1.16439e-05
1.20372e-05
1.24267e-05
1.28167e-05
1.32152e-05
1.36246e-05
1.40595e-05
1.45215e-05
1.50273e-05
1.55859e-05
1.62047e-05
1.69099e-05
1.77167e-05
1.85776e-05
1.99488e-05
1.96331e-05
2.75175e-05
5.47512e-06
7.77049e-05
-7.81163e-05
0.000145124
7.57838e-05
-0.00027856
-0.000444491
-0.000434875
-0.000424635
-0.000413146
-0.000402521
-0.000392805
-0.000382776
-0.000372536
-0.000362521
-0.000352681
-0.00034291
-0.000333226
-0.000323648
-0.000314178
-0.000304817
-0.000295568
-0.000286435
-0.000277422
-0.000268532
-0.000259767
-0.000251132
-0.000242627
-0.000234258
-0.000226025
-0.000217931
-0.000209978
-0.00020217
-0.000194506
-0.00018699
-0.000179623
-0.000172407
-0.000165342
-0.000158431
-0.000151674
-0.000145072
-0.000138626
-0.000132338
-0.000126206
-0.000120232
-0.000114415
-0.000108756
-0.000103256
-9.79115e-05
-9.27253e-05
-8.76953e-05
-8.28182e-05
-7.80991e-05
-7.35329e-05
-6.91188e-05
-6.48562e-05
-6.07436e-05
-5.67791e-05
-5.29612e-05
-4.9288e-05
-4.57573e-05
-4.23673e-05
-3.91152e-05
-3.59992e-05
-3.30166e-05
-3.01649e-05