/*--------------------------------*- C++ -*----------------------------------*\
| =========                 |                                                 |
| \\      /  F ield         | OpenFOAM: The Open Source CFD Toolbox           |
|  \\    /   O peration     | Version:  2412                                  |
|   \\  /    A nd           | Website:  www.openfoam.com                      |
|    \\/     M anipulation  |                                                 |
\*---------------------------------------------------------------------------*/
FoamFile
{
    version     2.0;
    format      ascii;
    arch        "LSB;label=32;scalar=64";
    class       surfaceScalarField;
    location    "1";
    object      phi;
}
// * * * * * * * * * * * * * * * * * * * * * * * * * * * * * * * * * * * * * //

dimensions      [0 3 -1 0 0 0 0];

oriented        oriented;

internalField   nonuniform List<scalar> 
126304
(
0.00503345
1.73297e-05
-1.82471e-08
0.00501603
1.74298e-05
-1.29219e-08
0.0050201
-4.07196e-06
-2.90183e-09
0.0050209
-8.02087e-07
7.63981e-09
0.00502263
-1.73457e-06
7.13369e-09
0.00502363
-1.01245e-06
7.75617e-09
0.00502373
-1.03782e-07
6.85211e-09
0.0050233
4.18106e-07
7.96465e-09
0.00502255
7.44984e-07
7.19326e-09
0.00502158
9.63959e-07
6.84657e-09
0.00502046
1.11501e-06
6.88561e-09
0.00501922
1.22634e-06
6.68791e-09
0.0050179
1.31421e-06
6.90733e-09
0.00501651
1.38922e-06
6.71055e-09
0.00501504
1.45686e-06
6.81728e-09
0.00501351
1.52121e-06
6.75101e-09
0.00501192
1.58495e-06
6.19677e-09
0.00501027
1.64846e-06
6.30703e-09
0.00500855
1.7133e-06
6.47717e-09
0.00500676
1.78076e-06
6.07794e-09
0.00500491
1.85041e-06
5.85798e-09
0.00500298
1.92273e-06
5.52259e-09
0.00500097
1.99757e-06
5.41748e-09
0.00499889
2.07565e-06
5.05477e-09
0.00499673
2.15648e-06
5.06832e-09
0.00499449
2.24072e-06
4.81419e-09
0.00499215
2.32821e-06
4.44473e-09
0.00498973
2.41903e-06
4.15827e-09
0.00498721
2.51354e-06
3.78629e-09
0.0049846
2.61163e-06
3.44836e-09
0.00498188
2.71342e-06
3.21761e-09
0.00497906
2.81923e-06
3.00681e-09
0.00497613
2.92923e-06
2.84779e-09
0.00497308
3.04391e-06
2.47199e-09
0.00496992
3.16334e-06
2.15427e-09
0.00496663
3.28802e-06
1.84637e-09
0.00496321
3.41845e-06
1.5563e-09
0.00495965
3.55528e-06
1.13054e-09
0.00495595
3.69906e-06
6.57501e-10
0.0049521
3.85069e-06
1.75285e-10
0.00494809
4.01127e-06
-1.90574e-10
0.00494391
4.18232e-06
-5.45119e-10
0.00493954
4.36561e-06
-9.27186e-10
0.00493498
4.56329e-06
-1.36557e-09
0.0049302
4.77816e-06
-1.86446e-09
0.00492519
5.01372e-06
-2.345e-09
0.00491992
5.27471e-06
-2.77286e-09
0.00491436
5.56729e-06
-3.0944e-09
0.00490846
5.89956e-06
-3.28345e-09
0.00490218
6.28287e-06
-3.37151e-09
0.00489545
6.73599e-06
-3.39297e-09
0.00488817
7.28539e-06
-3.36983e-09
0.00488019
7.97675e-06
-3.32218e-09
0.00487138
8.81693e-06
-3.26698e-09
9.24423e-06
0.00486214
-3.19198e-09
0.00503304
3.50477e-05
0.00501546
3.50131e-05
0.00502035
-8.96284e-06
0.00502099
-1.44744e-06
0.00502272
-3.46384e-06
0.0050237
-1.99028e-06
0.00502376
-1.59745e-07
0.0050233
8.71474e-07
0.00502253
1.51414e-06
0.00502155
1.94518e-06
0.00502042
2.24312e-06
0.00501919
2.46292e-06
0.00501786
2.63728e-06
0.00501647
2.78588e-06
0.005015
2.92062e-06
0.00501348
3.0488e-06
0.00501189
3.17519e-06
0.00501023
3.30211e-06
0.00500851
3.43183e-06
0.00500673
3.56598e-06
0.00500487
3.70491e-06
0.00500295
3.84901e-06
0.00500095
3.99837e-06
0.00499887
4.15395e-06
0.00499671
4.31547e-06
0.00499447
4.48342e-06
0.00499214
4.65778e-06
0.00498972
4.83893e-06
0.0049872
5.02728e-06
0.00498459
5.22282e-06
0.00498188
5.42582e-06
0.00497906
5.63684e-06
0.00497614
5.85623e-06
0.00497309
6.08472e-06
0.00496994
6.32272e-06
0.00496665
6.57115e-06
0.00496324
6.83096e-06
0.00495969
7.10329e-06
0.004956
7.38932e-06
0.00495216
7.69083e-06
0.00494816
8.01007e-06
0.00494399
8.34994e-06
0.00493965
8.71378e-06
0.0049351
9.10574e-06
0.00493035
9.53117e-06
0.00492537
9.99692e-06
0.00492013
1.0512e-05
0.00491461
1.10884e-05
0.00490877
1.17414e-05
0.00490256
1.24925e-05
0.00489592
1.33771e-05
0.00488876
1.44453e-05
0.00488095
1.57842e-05
0.00487236
1.74065e-05
1.82269e-05
0.00486338
0.00503242
5.33819e-05
0.0050145
5.29404e-05
0.00502095
-1.54138e-05
0.0050212
-1.70303e-06
0.00502291
-5.17456e-06
0.00502383
-2.90296e-06
0.00502379
-1.28796e-07
0.00502329
1.38018e-06
0.00502248
2.3169e-06
0.00502148
2.94716e-06
0.00502034
3.38379e-06
0.0050191
3.70684e-06
0.00501777
3.96432e-06
0.00501637
4.18431e-06
0.00501491
4.38478e-06
0.00501338
4.57578e-06
0.00501179
4.764e-06
0.00501014
4.95375e-06
0.00500842
5.14799e-06
0.00500664
5.34839e-06
0.00500479
5.5561e-06
0.00500287
5.77162e-06
0.00500087
5.99512e-06
0.0049988
6.22781e-06
0.00499664
6.46955e-06
0.00499441
6.72077e-06
0.00499208
6.98163e-06
0.00498967
7.25266e-06
0.00498716
7.53427e-06
0.00498456
7.82661e-06
0.00498185
8.13014e-06
0.00497904
8.44563e-06
0.00497613
8.77359e-06
0.0049731
9.11492e-06
0.00496995
9.47041e-06
0.00496668
9.84132e-06
0.00496328
1.0229e-05
0.00495975
1.06351e-05
0.00495608
1.10614e-05
0.00495226
1.15104e-05
0.00494828
1.19854e-05
0.00494414
1.24904e-05
0.00493982
1.30302e-05
0.00493532
1.36107e-05
0.00493061
1.42395e-05
0.00492568
1.4926e-05
0.00492051
1.56832e-05
0.00491507
1.65273e-05
0.00490933
1.74797e-05
0.00490326
1.85695e-05
0.00489679
1.98454e-05
0.00488986
2.13752e-05
0.00488236
2.32782e-05
0.0048742
2.55698e-05
2.67202e-05
0.00486571
0.00503217
7.19735e-05
0.0050137
7.14089e-05
0.00502218
-2.38935e-05
0.00502161
-1.14074e-06
0.00502324
-6.79683e-06
0.00502402
-3.69051e-06
0.00502385
4.17358e-08
0.00502326
1.97306e-06
0.00502241
3.16989e-06
0.00502137
3.98003e-06
0.00502022
4.54326e-06
0.00501896
4.96189e-06
0.00501763
5.29761e-06
0.00501623
5.58595e-06
0.00501476
5.84996e-06
0.00501323
6.10225e-06
0.00501165
6.35128e-06
0.00501
6.60301e-06
0.00500828
6.86108e-06
0.00500651
7.12716e-06
0.00500466
7.40302e-06
0.00500274
7.6893e-06
0.00500075
7.98645e-06
0.00499868
8.29573e-06
0.00499653
8.61706e-06
0.0049943
8.95097e-06
0.00499199
9.29774e-06
0.00498958
9.65791e-06
0.00498708
1.0032e-05
0.00498449
1.04202e-05
0.0049818
1.08234e-05
0.004979
1.12422e-05
0.0049761
1.16776e-05
0.00497308
1.21304e-05
0.00496995
1.26018e-05
0.0049667
1.30934e-05
0.00496332
1.3607e-05
0.00495981
1.41444e-05
0.00495616
1.4708e-05
0.00495237
1.53011e-05
0.00494843
1.59278e-05
0.00494433
1.65929e-05
0.00494006
1.73023e-05
0.0049356
1.80634e-05
0.00493096
1.88853e-05
0.0049261
1.97798e-05
0.00492103
2.07622e-05
0.0049157
2.18523e-05
0.00491011
2.30753e-05
0.00490421
2.44655e-05
0.00489797
2.60797e-05
0.00489135
2.79958e-05
0.00488428
3.03521e-05
0.00487669
3.31581e-05
3.45659e-05
0.00486885
0.00503342
8.93109e-05
0.00501413
9.07032e-05
0.0050245
-3.42724e-05
0.00502243
9.3241e-07
0.00502383
-8.19294e-06
0.0050244
-4.26448e-06
0.00502403
4.10843e-07
0.00502333
2.67839e-06
0.00502241
4.08806e-06
0.00502134
5.05255e-06
0.00502015
5.72658e-06
0.00501888
6.23101e-06
0.00501754
6.63881e-06
0.00501614
6.99162e-06
0.00501467
7.31633e-06
0.00501314
7.62802e-06
0.00501156
7.93659e-06
0.00500991
8.24924e-06
0.0050082
8.57019e-06
0.00500643
8.90121e-06
0.00500459
9.24445e-06
0.00500268
9.60083e-06
0.00500069
9.97095e-06
0.00499863
1.03561e-05
0.00499649
1.07564e-05
0.00499427
1.11722e-05
0.00499197
1.16041e-05
0.00498957
1.20525e-05
0.00498708
1.2518e-05
0.0049845
1.30012e-05
0.00498182
1.35028e-05
0.00497904
1.40238e-05
0.00497616
1.4565e-05
0.00497316
1.51275e-05
0.00497005
1.5713e-05
0.00496682
1.63232e-05
0.00496346
1.696e-05
0.00495998
1.76257e-05
0.00495637
1.83233e-05
0.00495261
1.90564e-05
0.00494871
1.98297e-05
0.00494465
2.06486e-05
0.00494044
2.152e-05
0.00493605
2.2452e-05
0.00493148
2.3455e-05
0.00492672
2.45422e-05
0.00492175
2.57303e-05
0.00491656
2.70411e-05
0.00491113
2.85017e-05
0.00490545
3.01492e-05
0.00489948
3.20438e-05
0.00489321
3.42661e-05
0.00488661
3.69597e-05
0.00487965
4.01194e-05
4.1753e-05
0.00487246
0.00503775
0.000102316
0.00501695
0.000111504
0.00502842
-4.57397e-05
0.0050239
5.44656e-06
0.00502489
-9.18394e-06
0.00502515
-4.52365e-06
0.00502453
1.03847e-06
0.00502369
3.51814e-06
0.00502269
5.08078e-06
0.00502158
6.16891e-06
0.00502037
6.93503e-06
0.00501909
7.51387e-06
0.00501774
7.9866e-06
0.00501633
8.39935e-06
0.00501487
8.7815e-06
0.00501334
9.15043e-06
0.00501176
9.51704e-06
0.00501012
9.88938e-06
0.00500842
1.02721e-05
0.00500665
1.06672e-05
0.00500482
1.1077e-05
0.00500292
1.15028e-05
0.00500095
1.19451e-05
0.0049989
1.24055e-05
0.00499677
1.28838e-05
0.00499456
1.33808e-05
0.00499227
1.38968e-05
0.00498989
1.44325e-05
0.00498742
1.49884e-05
0.00498485
1.55652e-05
0.00498219
1.61639e-05
0.00497943
1.67854e-05
0.00497657
1.74307e-05
0.00497359
1.81011e-05
0.00497051
1.87984e-05
0.0049673
1.95246e-05
0.00496398
2.02818e-05
0.00496054
2.10725e-05
0.00495696
2.19e-05
0.00495325
2.27684e-05
0.00494939
2.36825e-05
0.0049454
2.46484e-05
0.00494124
2.56731e-05
0.00493693
2.67654e-05
0.00493245
2.79362e-05
0.00492779
2.91992e-05
0.00492295
3.05718e-05
0.00491791
3.2076e-05
0.00491268
3.37396e-05
0.00490723
3.56003e-05
0.00490155
3.77178e-05
0.00489565
4.01713e-05
0.0048895
4.31025e-05
0.00488313
4.64962e-05
4.84381e-05
0.00487644
0.00504378
0.000109296
0.00502427
0.000131016
0.00503232
-5.37948e-05
0.00502634
1.14261e-05
0.00502656
-9.4044e-06
0.00502631
-4.26838e-06
0.00502541
1.9385e-06
0.00502443
4.49697e-06
0.00502336
6.14985e-06
0.0050222
7.32641e-06
0.00502097
8.16391e-06
0.00501968
8.80486e-06
0.00501833
9.33479e-06
0.00501693
9.80255e-06
0.00501547
1.02387e-05
0.00501396
1.06626e-05
0.00501239
1.10856e-05
0.00501077
1.15162e-05
0.00500908
1.19596e-05
0.00500733
1.24178e-05
0.00500551
1.28933e-05
0.00500363
1.33877e-05
0.00500167
1.39015e-05
0.00499964
1.44361e-05
0.00499753
1.49916e-05
0.00499534
1.55686e-05
0.00499307
1.61678e-05
0.00499072
1.67895e-05
0.00498827
1.74346e-05
0.00498573
1.81035e-05
0.0049831
1.87977e-05
0.00498036
1.95178e-05
0.00497753
2.02652e-05
0.00497459
2.10412e-05
0.00497154
2.18478e-05
0.00496838
2.2687e-05
0.0049651
2.35611e-05
0.0049617
2.44728e-05
0.00495817
2.54256e-05
0.00495452
2.64237e-05
0.00495073
2.74722e-05
0.0049468
2.85771e-05
0.00494273
2.97455e-05
0.00493851
3.09865e-05
0.00493413
3.23106e-05
0.0049296
3.37314e-05
0.00492491
3.52657e-05
0.00492005
3.69347e-05
0.00491502
3.87647e-05
0.00490983
4.07924e-05
0.00490447
4.30735e-05
0.00489896
4.56816e-05
0.00489331
4.8757e-05
0.00488753
5.22709e-05
0.00488138
5.45893e-05
0.00486442
-2.27546e-06
-3.11881e-09
0.00486936
-4.94426e-06
-3.06404e-09
0.00487764
-8.26945e-06
-2.98889e-09
0.00488825
-1.06161e-05
-2.90912e-09
0.00489955
-1.12923e-05
-2.85713e-09
0.00491013
-1.05762e-05
-2.85723e-09
0.00491921
-9.08115e-06
-2.89528e-09
0.00492654
-7.3195e-06
-2.93916e-09
0.00493212
-5.58217e-06
-2.96172e-09
0.0049361
-3.97729e-06
-2.96237e-09
0.00493862
-2.51652e-06
-2.96889e-09
0.00493979
-1.1669e-06
-2.93381e-09
0.00493963
1.61109e-07
-2.58182e-09
0.00493831
1.32871e-06
-2.54902e-09
0.00493575
2.55914e-06
-2.31121e-09
0.00493193
3.82026e-06
-2.1817e-09
0.0049268
5.13391e-06
-2.32838e-09
0.00492028
6.52038e-06
-2.67131e-09
0.00491228
7.99995e-06
-2.98723e-09
0.00490269
9.59415e-06
-3.00723e-09
0.00489137
1.13272e-05
-2.68469e-09
0.00487814
1.3232e-05
-2.19213e-09
0.00486279
1.53464e-05
-1.67587e-09
0.0048451
1.7695e-05
-1.19806e-09
0.00482479
2.03104e-05
-7.87343e-10
0.00480157
2.32192e-05
-4.43977e-10
0.00477513
2.64406e-05
-1.79105e-10
0.00474511
3.00198e-05
-2.40347e-11
0.00471107
3.40458e-05
2.62063e-11
0.00467244
3.86228e-05
-2.01551e-11
0.00462858
4.38678e-05
-1.54046e-10
0.00457867
4.99098e-05
-3.23278e-10
0.0045218
5.68616e-05
-4.69506e-10
0.00445694
6.48637e-05
-5.42698e-10
0.00438279
7.41525e-05
-4.46997e-10
0.00429775
8.50383e-05
-1.95673e-10
0.00419983
9.79171e-05
8.47056e-11
0.00408656
0.000113275
3.32976e-10
0.00395484
0.000131719
5.51958e-10
0.0038008
0.000154041
7.60176e-10
0.00361948
0.000181312
9.74908e-10
0.00340455
0.000214934
1.25853e-09
0.0031479
0.000256644
1.58404e-09
0.0028392
0.000308698
1.83822e-09
0.00246556
0.000373645
2.03e-09
0.00201258
0.000452974
2.01811e-09
0.00147224
0.000540341
1.89207e-09
0.000867285
0.000604952
1.62944e-09
0.000296184
0.000571101
1.02656e-09
0.000296183
3.72013e-10
0.00486445
-3.34492e-06
0.00486803
-8.52642e-06
0.0048747
-1.49431e-05
0.0048835
-1.9409e-05
0.00489282
-2.06177e-05
0.00490139
-1.91412e-05
0.00490849
-1.61868e-05
0.00491391
-1.27423e-05
0.0049177
-9.36459e-06
0.00491997
-6.24891e-06
0.00492085
-3.39843e-06
0.00492039
-7.04175e-07
0.00491879
1.763e-06
0.00491596
4.15785e-06
0.00491192
6.59376e-06
0.00490664
9.1004e-06
0.00490006
1.17171e-05
0.00489209
1.44851e-05
0.00488265
1.74416e-05
0.00487162
2.06275e-05
0.00485885
2.40924e-05
0.00484418
2.79046e-05
0.00482738
3.21426e-05
0.00480823
3.68509e-05
0.00478644
4.20961e-05
0.00476174
4.79264e-05
0.0047338
5.43755e-05
0.00470228
6.154e-05
0.00466672
6.96092e-05
0.00462655
7.87924e-05
0.00458109
8.93223e-05
0.00452955
0.000101452
0.00447102
0.00011539
0.00440447
0.000131419
0.00432859
0.000150032
0.00424177
0.000171854
0.00414202
0.000197669
0.00402686
0.000228438
0.00389322
0.000265358
0.00373725
0.000310005
0.00355406
0.000364508
0.00333734
0.000431649
0.0030791
0.000514888
0.00276923
0.000618562
0.00239545
0.000747427
0.00194464
0.000903783
0.00141114
0.00107385
0.00082097
0.00119512
0.000273016
0.00111906
0.000569199
0.00486432
-1.95752e-06
0.0048651
-9.30434e-06
0.00486847
-1.83113e-05
0.00487351
-2.44501e-05
0.00487883
-2.59412e-05
0.00488336
-2.36681e-05
0.00488653
-1.93632e-05
0.0048882
-1.44078e-05
0.00488841
-9.57181e-06
0.00488727
-5.10765e-06
0.00488486
-9.91984e-07
0.00488137
2.78431e-06
0.00487674
6.39628e-06
0.00487093
9.96325e-06
0.00486395
1.35716e-05
0.00485576
1.72937e-05
0.00484629
2.11934e-05
0.00483544
2.53274e-05
0.00482313
2.97513e-05
0.00480924
3.45249e-05
0.00479361
3.97183e-05
0.00477608
4.54381e-05
0.00475641
5.18128e-05
0.00473436
5.89008e-05
0.00470965
6.68028e-05
0.004682
7.55761e-05
0.00465111
8.5262e-05
0.00461663
9.60269e-05
0.00457806
0.000108175
0.00453484
0.000122014
0.00448629
0.000137876
0.0044316
0.000156137
0.00436987
0.000177117
0.00430004
0.000201249
0.0042208
0.000229275
0.00413052
0.000262132
0.00402721
0.000300985
0.0039084
0.000347241
0.0037711
0.000402664
0.00361151
0.000469596
0.00342484
0.000551172
0.00320498
0.000651511
0.00294419
0.000775675
0.00263275
0.00093
0.0022594
0.00112078
0.00181322
0.00134996
0.00129366
0.00159341
0.00073346
0.00175532
0.000234453
0.00161806
0.000803652
0.00486368
3.21272e-06
0.00486005
-5.6738e-06
0.00485818
-1.64421e-05
0.00485733
-2.36045e-05
0.00485648
-2.50859e-05
0.00485489
-2.20826e-05
0.00485223
-1.66988e-05
0.00484837
-1.05494e-05
0.00484337
-4.57961e-06
0.00483717
1.09394e-06
0.00483008
6.10416e-06
0.00482194
1.09217e-05
0.00481276
1.55749e-05
0.00480252
2.02015e-05
0.00479118
2.49147e-05
0.00477867
2.98082e-05
0.0047649
3.4961e-05
0.00474978
4.04449e-05
0.0047332
4.63311e-05
0.00471503
5.26934e-05
0.00469513
5.96188e-05
0.00467332
6.72527e-05
0.00464935
7.57761e-05
0.004623
8.52519e-05
0.00459399
9.58147e-05
0.00456202
0.000107544
0.00452679
0.000120494
0.00448791
0.000134909
0.00444488
0.000151208
0.0043971
0.00016979
0.00434391
0.000191067
0.00428454
0.000215502
0.0042181
0.000243556
0.00414349
0.000275861
0.00405936
0.00031341
0.00396405
0.000357436
0.0038556
0.000409436
0.00373162
0.000471224
0.00358918
0.000545105
0.00342464
0.000634138
0.00323344
0.000742367
0.00300975
0.000875201
0.00274596
0.00103947
0.0024331
0.00124286
0.00206153
0.00149235
0.00162432
0.00178717
0.001127
0.00209073
0.000611397
0.00227092
0.000181294
0.00204817
0.000984946
0.00486204
1.36282e-05
0.0048522
4.1702e-06
0.00484298
-7.22603e-06
0.004834
-1.46195e-05
0.00482479
-1.58819e-05
0.00481511
-1.23981e-05
0.00480483
-6.41539e-06
0.00479375
5.22327e-07
0.00478207
7.10462e-06
0.00476971
1.34555e-05
0.00475645
1.93587e-05
0.00474235
2.50229e-05
0.00472734
3.05878e-05
0.00471135
3.61867e-05
0.00469433
4.19436e-05
0.00467617
4.79643e-05
0.00465679
5.43404e-05
0.00463608
6.1155e-05
0.00461392
6.84908e-05
0.00459018
7.64319e-05
0.00456472
8.50788e-05
0.00453736
9.46169e-05
0.00450785
0.000105284
0.00447596
0.000117138
0.00444142
0.00013036
0.00440392
0.000145041
0.00436315
0.000161261
0.0043187
0.000179357
0.00427007
0.000199847
0.00421666
0.000223199
0.00415783
0.000249893
0.00409276
0.000280578
0.00402035
0.000315966
0.00393944
0.000356762
0.00384881
0.000404045
0.00374686
0.000459389
0.00363164
0.000524651
0.00350084
0.000602021
0.00335165
0.000694296
0.00318058
0.000805211
0.0029833
0.000939642
0.0027545
0.00110401
0.00248757
0.00130639
0.00217488
0.00155555
0.00180931
0.00185792
0.00138878
0.0022077
0.000927921
0.00255159
0.000472967
0.00272587
0.000117965
0.00240317
0.00110291
0.0048592
3.08669e-05
0.00484127
2.21065e-05
0.00482273
1.13088e-05
0.00480378
4.33321e-06
0.0047846
3.30087e-06
0.00476543
6.76851e-06
0.00474621
1.28075e-05
0.00472695
1.97744e-05
0.00470734
2.67182e-05
0.00468736
3.34407e-05
0.0046668
3.99114e-05
0.00464558
4.62493e-05
0.00462357
5.25948e-05
0.00460068
5.90762e-05
0.00457681
6.58129e-05
0.00455186
7.29135e-05
0.00452573
8.04764e-05
0.00449829
8.85938e-05
0.00446942
9.7356e-05
0.004439
0.000106854
0.00440688
0.000117199
0.0043729
0.000128592
0.00433685
0.000141334
0.00429842
0.000155575
0.00425732
0.000171454
0.00421317
0.000189198
0.00416549
0.000208936
0.00411392
0.00023093
0.004058
0.000255762
0.00399711
0.000284093
0.00393052
0.000316487
0.00385747
0.000353624
0.00377706
0.000396375
0.00368812
0.000445701
0.00358928
0.000502892
0.00347894
0.000569728
0.00335525
0.000648336
0.00321599
0.000741286
0.00305851
0.000851774
0.00287973
0.000983992
0.00267594
0.00114343
0.00244287
0.00133708
0.00217582
0.00157344
0.00187034
0.00186103
0.0015246
0.00220367
0.00114518
0.00258712
0.00075323
0.00294353
0.000392386
0.00308672
0.000115904
0.00267965
0.00121882
0.00485613
5.61242e-05
0.00482904
4.91971e-05
0.00480025
4.0091e-05
0.00477064
3.39413e-05
0.00474109
3.28516e-05
0.00471195
3.59084e-05
0.00468334
4.14231e-05
0.0046551
4.80153e-05
0.00462692
5.48945e-05
0.00459858
6.17783e-05
0.00456987
6.86253e-05
0.00454061
7.5512e-05
0.00451065
8.25477e-05
0.00447989
8.98429e-05
0.00444819
9.75069e-05
0.00441546
0.000105646
0.00438158
0.00011436
0.00434642
0.000123748
0.00430988
0.000133904
0.00427181
0.000144924
0.00423208
0.000156927
0.00419052
0.000170145
0.00414683
0.000185031
0.00410047
0.00020193
0.00405125
0.000220676
0.00399897
0.000241475
0.00394326
0.000264649
0.00388364
0.000290548
0.00381959
0.000319812
0.00375048
0.000353206
0.00367557
0.000391391
0.00359405
0.000435152
0.00350493
0.000485494
0.00340707
0.000543556
0.00329913
0.000610838
0.0031795
0.000689355
0.00304635
0.000781488
0.00289752
0.000890108
0.00273058
0.00101872
0.00254278
0.00117179
0.0023312
0.00135501
0.00209312
0.00157515
0.00182704
0.00183952
0.00153451
0.00215357
0.00122371
0.00251447
0.000915094
0.00289574
0.000645409
0.00321322
0.000447012
0.00328512
0.000303545
0.00282312
0.00152236
-0.000107842
0.000107844
-1.65375e-09
-0.000166059
5.82195e-05
-2.09265e-09
-1.82355e-05
-0.000147823
-7.26663e-10
0.000341917
-0.000360153
7.7863e-10
0.000830809
-0.000488894
1.72812e-09
0.00135722
-0.00052641
2.49924e-09
0.00185988
-0.000502667
3.22467e-09
0.00230866
-0.000448785
3.78627e-09
0.00269475
-0.000386093
4.00855e-09
0.00302083
-0.000326083
3.95094e-09
0.00329425
-0.000273422
3.79228e-09
0.00352334
-0.000229097
3.5782e-09
0.00371584
-0.000192497
3.31403e-09
0.00387838
-0.000162544
3.00763e-09
0.00401644
-0.000138067
2.68128e-09
0.00413441
-0.000117973
2.33501e-09
0.00423577
-0.000101364
1.9517e-09
0.00432332
-8.75466e-05
1.58105e-09
0.00439928
-7.59606e-05
1.27628e-09
0.0044654
-6.61255e-05
1.09512e-09
0.00452311
-5.77083e-05
1.1792e-09
0.0045736
-5.04907e-05
1.72201e-09
0.00461787
-4.42773e-05
3.10212e-09
0.00465676
-3.88955e-05
5.38767e-09
0.00469096
-3.41994e-05
7.77706e-09
0.00472102
-3.0077e-05
9.5571e-09
0.00474745
-2.64357e-05
1.04396e-08
0.00477066
-2.32238e-05
1.05943e-08
0.00479104
-2.03853e-05
1.04133e-08
0.00480889
-1.78619e-05
1.0102e-08
0.00482449
-1.56128e-05
9.78623e-09
0.00483808
-1.36033e-05
9.51657e-09
0.00484988
-1.18011e-05
9.28468e-09
0.00486005
-1.0182e-05
9.05872e-09
0.00486877
-8.72714e-06
8.81859e-09
0.00487618
-7.41913e-06
8.57975e-09
0.00488241
-6.24384e-06
8.37363e-09
0.0048876
-5.18992e-06
8.2181e-09
0.00489184
-4.24816e-06
8.11497e-09
0.00489524
-3.41252e-06
8.05468e-09
0.00489791
-2.67932e-06
8.02688e-09
0.00489995
-2.04899e-06
8.02411e-09
0.00490147
-1.52578e-06
8.06176e-09
0.00490258
-1.11891e-06
8.13529e-09
0.00490342
-8.46927e-07
8.24924e-09
0.00490415
-7.41485e-07
8.40267e-09
0.004905
-8.55909e-07
8.58996e-09
0.00490627
-1.27745e-06
8.80328e-09
0.00490831
-2.05048e-06
9.05154e-09
-2.66574e-06
0.00491097
9.32352e-09
-8.26325e-05
0.000190476
-0.000108731
8.43183e-05
5.16787e-05
-0.000308233
0.000398155
-0.00070663
0.000863934
-0.000954673
0.00136735
-0.00102983
0.00185079
-0.000986105
0.00228506
-0.000883063
0.00266113
-0.000762158
0.00298076
-0.000645718
0.00325035
-0.000543009
0.00347744
-0.000456182
0.00366917
-0.000384236
0.0038318
-0.000325167
0.00397047
-0.000276745
0.00408938
-0.000236877
0.00419187
-0.00020386
0.00428068
-0.00017635
0.00435798
-0.000153259
0.00442549
-0.00013364
0.00448462
-0.000116836
0.00453654
-0.000102415
0.00458225
-8.99898e-05
0.00462258
-7.92201e-05
0.0046582
-6.98199e-05
0.00468969
-6.15689e-05
0.00471753
-5.42765e-05
0.00474216
-4.78473e-05
0.00476394
-4.21676e-05
0.00478319
-3.71158e-05
0.00480019
-3.26128e-05
0.00481518
-2.85901e-05
0.00482836
-2.49826e-05
0.00483992
-2.17413e-05
0.00485002
-1.88271e-05
0.00485881
-1.62075e-05
0.00486642
-1.38514e-05
0.00487296
-1.17368e-05
0.00487856
-9.84708e-06
0.00488332
-8.16633e-06
0.00488733
-6.69003e-06
0.00489069
-5.41547e-06
0.00489352
-4.34958e-06
0.00489591
-3.5108e-06
0.00489799
-2.93015e-06
0.00489992
-2.66747e-06
0.00490188
-2.82042e-06
0.00490415
-3.5492e-06
0.00490705
-4.94803e-06
-6.04324e-06
0.00491043
-2.95606e-05
0.000220037
8.06696e-06
4.66907e-05
0.000183012
-0.000483178
0.000506324
-0.00102994
0.000928192
-0.00137654
0.0013855
-0.00148713
0.00183004
-0.00143065
0.00223546
-0.00128848
0.00259177
-0.00111846
0.00289878
-0.000952733
0.00316102
-0.000805244
0.00338441
-0.000679577
0.00357489
-0.000574717
0.00373786
-0.000488137
0.00387788
-0.000416764
0.00399873
-0.000357729
0.00410355
-0.000308674
0.00419489
-0.000267691
0.00427484
-0.000233215
0.0043451
-0.000203893
0.00440703
-0.000178769
0.0044618
-0.00015719
0.00451038
-0.000138567
0.00455356
-0.000122403
0.00459203
-0.000108284
0.00462635
-9.58915e-05
0.00465701
-8.49337e-05
0.00468444
-7.52836e-05
0.00470903
-6.67571e-05
0.00473108
-5.91639e-05
0.00475086
-5.23937e-05
0.00476862
-4.63454e-05
0.00478456
-4.09209e-05
0.00479886
-3.60477e-05
0.0048117
-3.16681e-05
0.00482323
-2.77296e-05
0.00483356
-2.41872e-05
0.00484283
-2.10047e-05
0.00485114
-1.81549e-05
0.00485859
-1.5617e-05
0.00486528
-1.33785e-05
0.0048713
-1.14355e-05
0.00487674
-9.79477e-06
0.00488171
-8.47678e-06
0.0048863
-7.52198e-06
0.00489064
-7.00427e-06
0.00489486
-7.04643e-06
0.00489918
-7.86385e-06
0.00490383
-9.60111e-06
-1.09042e-05
0.00490869
4.8506e-05
0.000171531
0.000168074
-7.28778e-05
0.000369796
-0.0006849
0.000660007
-0.00132015
0.00101714
-0.00173367
0.00140645
-0.00187645
0.00179424
-0.00181844
0.00215765
-0.00165189
0.00248541
-0.00144623
0.00277439
-0.00124171
0.00302598
-0.00105683
0.00324389
-0.00089749
0.00343256
-0.000763388
0.00359606
-0.000651636
0.00373803
-0.000558733
0.0038617
-0.000481402
0.00396987
-0.000416841
0.0040649
-0.000362724
0.00414878
-0.000317086
0.00422308
-0.000278201
0.00428916
-0.000244848
0.00434813
-0.000216161
0.00440092
-0.000191358
0.00444831
-0.000169792
0.00449096
-0.000150935
0.00452945
-0.000134373
0.00456426
-0.000119743
0.00459586
-0.000106888
0.00462462
-9.55173e-05
0.00465082
-8.53662e-05
0.00467473
-7.63063e-05
0.0046966
-6.82116e-05
0.00471663
-6.09539e-05
0.00473502
-5.44373e-05
0.00475194
-4.85827e-05
0.00476753
-4.33175e-05
0.00478192
-3.85798e-05
0.00479523
-3.43204e-05
0.00480758
-3.05002e-05
0.00481905
-2.70896e-05
0.00482974
-2.40689e-05
0.00483974
-2.14289e-05
0.00484911
-1.91723e-05
0.00485795
-1.73169e-05
0.00486633
-1.59018e-05
0.00487433
-1.50019e-05
0.00488203
-1.47468e-05
0.00488954
-1.53691e-05
0.00489698
-1.7046e-05
-1.81807e-05
0.00490426
0.000139611
3.19195e-05
0.000361237
-0.000294504
0.000598158
-0.000921821
0.000846414
-0.00156841
0.00112133
-0.00200859
0.00142306
-0.00217818
0.00173738
-0.00213276
0.00204702
-0.00196153
0.00233894
-0.00173815
0.00260596
-0.00150873
0.00284551
-0.00129638
0.00305791
-0.0011099
0.00324511
-0.000950579
0.00340969
-0.000816216
0.00355438
-0.000703431
0.00368182
-0.000608836
0.00379437
-0.000529389
0.00389406
-0.000462423
0.00398262
-0.000405646
0.00406169
-0.000357267
0.00413272
-0.000315876
0.00419677
-0.000280218
0.00425471
-0.000249296
0.00430729
-0.000222366
0.00435518
-0.000198825
0.00439891
-0.000178111
0.00443899
-0.000159816
0.00447589
-0.000143791
0.00450995
-0.000129583
0.00454145
-0.00011686
0.00457064
-0.000105499
0.00459778
-9.53501e-05
0.00462308
-8.62565e-05
0.00464674
-7.80992e-05
0.00466893
-7.07737e-05
0.0046898
-6.41842e-05
0.00470947
-5.82512e-05
0.00472806
-5.29106e-05
0.00474567
-4.81118e-05
0.0047624
-4.38156e-05
0.00477833
-3.99936e-05
0.00479353
-3.66288e-05
0.00480807
-3.37169e-05
0.00482202
-3.12684e-05
0.00483543
-2.93136e-05
0.00484835
-2.7916e-05
0.00486078
-2.71815e-05
0.00487274
-2.73236e-05
0.00488422
-2.85251e-05
-2.90904e-05
0.00489513
0.000251433
-0.000219514
0.00058297
-0.000626041
0.00083971
-0.00117856
0.00103055
-0.00175925
0.00120839
-0.00218643
0.00140926
-0.00237904
0.00163962
-0.00236312
0.0018885
-0.0022104
0.00214078
-0.00199043
0.00238421
-0.00175216
0.00261131
-0.00152347
0.00281862
-0.00131721
0.0030054
-0.00113736
0.00317245
-0.000983268
0.0033214
-0.000852377
0.00345415
-0.000741589
0.00357264
-0.000647876
0.0036787
-0.000568483
0.00377398
-0.000500925
0.00385989
-0.000443182
0.00393764
-0.000393623
0.00400827
-0.000350847
0.00407271
-0.00031374
0.00413174
-0.00028139
0.00418594
-0.000253032
0.00423587
-0.00022804
0.00428221
-0.000206158
0.00432542
-0.000186996
0.00436576
-0.000169921
0.00440351
-0.000154611
0.00443896
-0.00014095
0.00447237
-0.000128764
0.00450398
-0.000117864
0.00453397
-0.000108092
0.00456251
-9.93142e-05
0.00458974
-9.14133e-05
0.00461578
-8.42935e-05
0.00464075
-7.78774e-05
0.00466474
-7.21024e-05
0.00468784
-6.69183e-05
0.00471014
-6.22865e-05
0.00473169
-5.81802e-05
0.00475256
-5.45849e-05
0.00477279
-5.14995e-05
0.00479241
-4.89393e-05
0.00481144
-4.69436e-05
0.00482984
-4.55822e-05
0.00484754
-4.50248e-05
0.00486444
-4.54236e-05
-4.51951e-05
0.00488055
0.000382395
-0.000601908
0.000771177
-0.00101482
0.0010149
-0.00142228
0.00114098
-0.00188533
0.00123061
-0.00227606
0.00134411
-0.00249254
0.00150208
-0.00252109
0.00169759
-0.00240591
0.00191371
-0.00220656
0.00213455
-0.001973
0.00234893
-0.00173785
0.00255039
-0.00151867
0.00273593
-0.00132289
0.0029048
-0.00115214
0.00305754
-0.00100512
0.00319537
-0.000879424
0.00331977
-0.000772272
0.00343225
-0.000680963
0.00353425
-0.000602926
0.00362706
-0.000535992
0.00371182
-0.000478382
0.00378954
-0.000428565
0.00386113
-0.000385326
0.00392737
-0.000347638
0.00398897
-0.000314631
0.00404649
-0.000285555
0.00410033
-0.000260003
0.00415078
-0.000237439
0.00419827
-0.000217417
0.00424323
-0.000199568
0.00428592
-0.000183639
0.00432659
-0.000169437
0.00436548
-0.000156755
0.00440279
-0.000145395
0.00443866
-0.000135185
0.00447323
-0.000125986
0.00450662
-0.000117688
0.00453895
-0.000110201
0.00457029
-0.000103449
0.00460075
-9.73719e-05
0.00463038
-9.19197e-05
0.00465926
-8.70549e-05
0.00468742
-8.2751e-05
0.00471492
-7.89935e-05
0.00474176
-7.57816e-05
0.00476794
-7.31297e-05
0.00479344
-7.10723e-05
0.00481816
-6.97507e-05
0.00484192
-6.91838e-05
0.00486501
-6.8287e-05
0.00492349
-1.25328e-05
9.60138e-09
0.00493315
-9.67426e-06
9.84148e-09
0.00493854
-5.39762e-06
9.80786e-09
0.00494017
-1.63489e-06
9.4796e-09
0.00493969
4.65419e-07
8.85853e-09
0.00493873
9.54543e-07
8.0881e-09
0.00493827
4.5635e-07
7.31879e-09
0.00493868
-4.19872e-07
6.6631e-09
0.00493997
-1.29715e-06
6.13696e-09
0.00494198
-2.01927e-06
5.74823e-09
0.00494454
-2.55799e-06
5.47804e-09
0.00494747
-2.93547e-06
5.28009e-09
0.00495065
-3.18589e-06
5.08811e-09
0.00495398
-3.34099e-06
4.82734e-09
0.00495741
-3.42612e-06
4.4273e-09
0.00496086
-3.46042e-06
3.90975e-09
0.00496432
-3.45797e-06
3.40237e-09
0.00496774
-3.42908e-06
3.03546e-09
0.00497112
-3.38117e-06
2.83443e-09
0.00497444
-3.31961e-06
2.70753e-09
0.00497768
-3.24831e-06
2.5248e-09
0.00498085
-3.17023e-06
2.26226e-09
0.00498394
-3.08758e-06
1.98694e-09
0.00498694
-3.00198e-06
1.73287e-09
0.00498985
-2.91471e-06
1.51512e-09
0.00499268
-2.82669e-06
1.35135e-09
0.00499541
-2.73848e-06
1.19497e-09
0.00499806
-2.65056e-06
9.55276e-10
0.00500063
-2.56339e-06
6.43395e-10
0.0050031
-2.47731e-06
3.38198e-10
0.0050055
-2.39259e-06
8.46758e-11
0.0050078
-2.30943e-06
-8.5129e-11
0.00501003
-2.2279e-06
-1.75697e-10
0.00501218
-2.14805e-06
-2.72224e-10
0.00501425
-2.06997e-06
-3.47299e-10
0.00501625
-1.99364e-06
-3.66564e-10
0.00501816
-1.91901e-06
-4.52627e-10
0.00502001
-1.84614e-06
-6.39971e-10
0.00502179
-1.77504e-06
-8.44913e-10
0.00502349
-1.70578e-06
-1.04275e-09
0.00502513
-1.63848e-06
-1.1995e-09
0.00502671
-1.57296e-06
-1.23628e-09
0.00502822
-1.50914e-06
-1.22801e-09
0.00502967
-1.44689e-06
-1.41871e-09
0.00503105
-1.38593e-06
-1.71048e-09
0.00503238
-1.32678e-06
-2.04842e-09
0.00503366
-1.26923e-06
-2.55616e-09
0.00503487
-1.21336e-06
-2.88931e-09
0.00503603
-1.15902e-06
-3.10439e-09
0.00503714
-1.1063e-06
-3.32299e-09
0.0050382
-1.0552e-06
-3.41919e-09
0.00503921
-1.00552e-06
-3.57938e-09
0.00504017
-9.57441e-07
-3.73664e-09
0.00504109
-9.1084e-07
-3.71461e-09
0.00504196
-8.65547e-07
-3.76112e-09
0.00504278
-8.21647e-07
-3.81445e-09
0.00504356
-7.78981e-07
-4.02807e-09
0.00504431
-7.37842e-07
-4.15362e-09
0.00504501
-6.97917e-07
-4.32504e-09