/*--------------------------------*- C++ -*----------------------------------*\
| =========                 |                                                 |
| \\      /  F ield         | OpenFOAM: The Open Source CFD Toolbox           |
|  \\    /   O peration     | Version:  2412                                  |
|   \\  /    A nd           | Website:  www.openfoam.com                      |
|    \\/     M anipulation  |                                                 |
\*---------------------------------------------------------------------------*/
FoamFile
{
    version     2.0;
    format      ascii;
    arch        "LSB;label=32;scalar=64";
    class       volVectorField;
    location    "1";
    object      U;
}
// * * * * * * * * * * * * * * * * * * * * * * * * * * * * * * * * * * * * * //

dimensions      [0 1 -1 0 0 0 0];

internalField   nonuniform List<vector> 
63420
(
(0.142698 5.84233e-05 0)
(0.070082 6.00432e-05 0)
(0.113172 -1.36653e-05 0)
(0.0961586 -2.94169e-06 0)
(0.0991562 -6.4148e-06 0)
(0.0996831 -3.83913e-06 0)
(0.0994588 -4.55506e-07 0)
(0.0994532 1.56857e-06 0)
(0.0994513 2.90843e-06 0)
(0.0994332 3.86038e-06 0)
(0.0994119 4.565e-06 0)
(0.0993884 5.12825e-06 0)
(0.0993631 5.60887e-06 0)
(0.0993362 6.05179e-06 0)
(0.0993078 6.47481e-06 0)
(0.0992782 6.89821e-06 0)
(0.0992473 7.33585e-06 0)
(0.0992152 7.78282e-06 0)
(0.0991818 8.25023e-06 0)
(0.0991471 8.75069e-06 0)
(0.0991111 9.27753e-06 0)
(0.0990736 9.83535e-06 0)
(0.0990347 1.04238e-05 0)
(0.0989943 1.10516e-05 0)
(0.0989524 1.17131e-05 0)
(0.0989088 1.24167e-05 0)
(0.0988635 1.31626e-05 0)
(0.0988164 1.39521e-05 0)
(0.0987675 1.47906e-05 0)
(0.0987167 1.56781e-05 0)
(0.098664 1.66173e-05 0)
(0.0986092 1.76128e-05 0)
(0.0985523 1.8668e-05 0)
(0.0984931 1.97903e-05 0)
(0.0984316 2.0981e-05 0)
(0.0983678 2.22472e-05 0)
(0.0983014 2.35957e-05 0)
(0.0982324 2.50354e-05 0)
(0.0981606 2.65736e-05 0)
(0.0980859 2.82213e-05 0)
(0.0980081 2.99906e-05 0)
(0.0979271 3.19e-05 0)
(0.0978426 3.39699e-05 0)
(0.0977543 3.62257e-05 0)
(0.097662 3.86991e-05 0)
(0.0975652 4.14296e-05 0)
(0.0974636 4.44705e-05 0)
(0.0973565 4.78912e-05 0)
(0.0972433 5.17837e-05 0)
(0.0971231 5.62769e-05 0)
(0.0969948 6.15779e-05 0)
(0.0968562 6.79827e-05 0)
(0.0967067 7.5994e-05 0)
(0.0965418 8.57623e-05 0)
(0.0963574 9.17527e-05 0)
(0.142696 0.000176533 0)
(0.0700671 0.000180459 0)
(0.113167 -4.39173e-05 0)
(0.0961675 -8.24605e-06 0)
(0.0991567 -1.91671e-05 0)
(0.0996846 -1.13081e-05 0)
(0.0994599 -1.11222e-06 0)
(0.0994534 4.9335e-06 0)
(0.0994511 8.90741e-06 0)
(0.0994327 1.17346e-05 0)
(0.0994112 1.38341e-05 0)
(0.0993877 1.55124e-05 0)
(0.0993623 1.6953e-05 0)
(0.0993354 1.82749e-05 0)
(0.0993071 1.95462e-05 0)
(0.0992774 2.08153e-05 0)
(0.0992466 2.21162e-05 0)
(0.0992145 2.34615e-05 0)
(0.0991811 2.48712e-05 0)
(0.0991464 2.63636e-05 0)
(0.0991104 2.79402e-05 0)
(0.099073 2.96094e-05 0)
(0.0990342 3.13747e-05 0)
(0.0989938 3.32497e-05 0)
(0.0989519 3.52345e-05 0)
(0.0989083 3.73398e-05 0)
(0.0988631 3.95699e-05 0)
(0.0988161 4.19328e-05 0)
(0.0987673 4.44388e-05 0)
(0.0987166 4.70928e-05 0)
(0.0986639 4.99037e-05 0)
(0.0986092 5.28838e-05 0)
(0.0985524 5.60434e-05 0)
(0.0984933 5.93982e-05 0)
(0.098432 6.29595e-05 0)
(0.0983682 6.67462e-05 0)
(0.098302 7.07779e-05 0)
(0.0982331 7.50781e-05 0)
(0.0981615 7.96708e-05 0)
(0.098087 8.45892e-05 0)
(0.0980095 8.98731e-05 0)
(0.0979287 9.55736e-05 0)
(0.0978445 0.00010175 0)
(0.0977566 0.000108476 0)
(0.0976647 0.000115845 0)
(0.0975684 0.000123975 0)
(0.0974674 0.000133022 0)
(0.0973611 0.00014319 0)
(0.0972488 0.000154749 0)
(0.0971298 0.00016807 0)
(0.0970031 0.000183755 0)
(0.0968664 0.000202661 0)
(0.09672 0.000226253 0)
(0.0965586 0.000254975 0)
(0.096379 0.000272585 0)
(0.142695 0.000298769 0)
(0.0700418 0.000302261 0)
(0.113161 -8.25214e-05 0)
(0.0961869 -1.18444e-05 0)
(0.0991575 -3.19322e-05 0)
(0.0996875 -1.8452e-05 0)
(0.0994617 -1.29267e-06 0)
(0.0994535 8.61691e-06 0)
(0.0994503 1.5106e-05 0)
(0.0994315 1.97336e-05 0)
(0.0994097 2.31792e-05 0)
(0.099386 2.59406e-05 0)
(0.0993605 2.83214e-05 0)
(0.0993335 3.05072e-05 0)
(0.0993051 3.2618e-05 0)
(0.0992755 3.47265e-05 0)
(0.0992447 3.68842e-05 0)
(0.0992126 3.91237e-05 0)
(0.0991793 4.14731e-05 0)
(0.0991447 4.39527e-05 0)
(0.0991087 4.65756e-05 0)
(0.0990714 4.93527e-05 0)
(0.0990326 5.22912e-05 0)
(0.0989923 5.54093e-05 0)
(0.0989505 5.87132e-05 0)
(0.0989071 6.22156e-05 0)
(0.0988619 6.59253e-05 0)
(0.0988151 6.98566e-05 0)
(0.0987664 7.40236e-05 0)
(0.0987158 7.84372e-05 0)
(0.0986633 8.31124e-05 0)
(0.0986087 8.80682e-05 0)
(0.0985521 9.33223e-05 0)
(0.0984932 9.88979e-05 0)
(0.0984321 0.000104817 0)
(0.0983686 0.000111108 0)
(0.0983026 0.000117805 0)
(0.0982341 0.000124944 0)
(0.0981628 0.000132565 0)
(0.0980887 0.000140722 0)
(0.0980116 0.000149483 0)
(0.0979313 0.000158926 0)
(0.0978477 0.000169148 0)
(0.0977604 0.000180266 0)
(0.0976693 0.000192429 0)
(0.097574 0.000205827 0)
(0.0974742 0.000220706 0)
(0.0973693 0.000237389 0)
(0.0972589 0.000256297 0)
(0.0971422 0.000278009 0)
(0.0970184 0.000303458 0)
(0.0968855 0.000333972 0)
(0.0967449 0.000371846 0)
(0.09659 0.000417771 0)
(0.0964195 0.000445919 0)
(0.142705 0.000425487 0)
(0.0700206 0.000426803 0)
(0.113159 -0.000134369 0)
(0.096221 -1.17163e-05 0)
(0.0991589 -4.44778e-05 0)
(0.0996922 -2.49233e-05 0)
(0.0994644 -6.24817e-07 0)
(0.0994536 1.28377e-05 0)
(0.0994492 2.16338e-05 0)
(0.0994296 2.79389e-05 0)
(0.0994074 3.26513e-05 0)
(0.0993834 3.64437e-05 0)
(0.0993577 3.97307e-05 0)
(0.0993306 4.27581e-05 0)
(0.0993022 4.56931e-05 0)
(0.0992726 4.86294e-05 0)
(0.0992418 5.16355e-05 0)
(0.0992098 5.47623e-05 0)
(0.0991765 5.80456e-05 0)
(0.099142 6.15072e-05 0)
(0.0991061 6.51703e-05 0)
(0.0990688 6.90485e-05 0)
(0.0990302 7.31544e-05 0)
(0.09899 7.75105e-05 0)
(0.0989483 8.21266e-05 0)
(0.098905 8.70189e-05 0)
(0.09886 9.22013e-05 0)
(0.0988133 9.76923e-05 0)
(0.0987648 0.000103511 0)
(0.0987144 0.000109672 0)
(0.0986621 0.0001162 0)
(0.0986078 0.000123117 0)
(0.0985514 0.00013045 0)
(0.0984928 0.000138228 0)
(0.098432 0.000146483 0)
(0.0983688 0.000155255 0)
(0.0983032 0.000164587 0)
(0.0982351 0.000174529 0)
(0.0981643 0.000185137 0)
(0.0980907 0.000196485 0)
(0.0980142 0.000208661 0)
(0.0979346 0.00022177 0)
(0.0978518 0.000235941 0)
(0.0977655 0.000251328 0)
(0.0976755 0.000268127 0)
(0.0975816 0.000286587 0)
(0.0974834 0.000307027 0)
(0.0973805 0.000329864 0)
(0.0972725 0.000355633 0)
(0.0971591 0.000385067 0)
(0.0970392 0.000419338 0)
(0.0969113 0.000460095 0)
(0.0967786 0.000510217 0)
(0.0966324 0.000570496 0)
(0.0964743 0.000607458 0)
(0.142746 0.000549713 0)
(0.070032 0.000558983 0)
(0.113173 -0.000203911 0)
(0.0962774 -4.44492e-06 0)
(0.0991631 -5.62178e-05 0)
(0.0997011 -3.02626e-05 0)
(0.0994703 1.34107e-06 0)
(0.0994557 1.78357e-05 0)
(0.0994497 2.86318e-05 0)
(0.0994292 3.64421e-05 0)
(0.0994063 4.23111e-05 0)
(0.099382 4.70635e-05 0)
(0.0993561 5.12102e-05 0)
(0.0993289 5.50499e-05 0)
(0.0993005 5.87863e-05 0)
(0.0992708 6.25347e-05 0)
(0.0992401 6.63786e-05 0)
(0.0992081 7.03829e-05 0)
(0.0991749 7.4591e-05 0)
(0.0991404 7.90277e-05 0)
(0.0991046 8.37227e-05 0)
(0.0990675 8.86942e-05 0)
(0.099029 9.39599e-05 0)
(0.0989889 9.95462e-05 0)
(0.0989474 0.000105466 0)
(0.0989042 0.000111738 0)
(0.0988594 0.000118384 0)
(0.0988129 0.000125424 0)
(0.0987646 0.00013288 0)
(0.0987145 0.000140776 0)
(0.0986625 0.000149139 0)
(0.0986084 0.000158 0)
(0.0985523 0.000167391 0)
(0.0984941 0.000177347 0)
(0.0984337 0.000187911 0)
(0.0983709 0.00019913 0)
(0.0983058 0.00021106 0)
(0.0982382 0.000223761 0)
(0.098168 0.000237303 0)
(0.0980951 0.000251777 0)
(0.0980193 0.000267289 0)
(0.0979406 0.000283966 0)
(0.0978587 0.000301961 0)
(0.0977736 0.000321459 0)
(0.097685 0.000342693 0)
(0.0975927 0.000365954 0)
(0.0974964 0.000391616 0)
(0.097396 0.000420158 0)
(0.097291 0.00045219 0)
(0.0971813 0.00048854 0)
(0.097066 0.000530512 0)
(0.096944 0.000579898 0)
(0.0968201 0.000639846 0)
(0.0966834 0.000710971 0)
(0.0965386 0.000754992 0)
(0.142846 0.000653101 0)
(0.0701112 0.000706328 0)
(0.113213 -0.000291345 0)
(0.0963651 2.04233e-05 0)
(0.0991726 -6.5502e-05 0)
(0.0997182 -3.38772e-05 0)
(0.0994831 5.08216e-06 0)
(0.0994637 2.38448e-05 0)
(0.0994558 3.62224e-05 0)
(0.0994343 4.53178e-05 0)
(0.0994108 5.22052e-05 0)
(0.0993861 5.78307e-05 0)
(0.09936 6.27807e-05 0)
(0.0993327 6.73961e-05 0)
(0.0993043 7.19059e-05 0)
(0.0992747 7.64472e-05 0)
(0.099244 8.11146e-05 0)
(0.0992122 8.5984e-05 0)
(0.0991791 9.11055e-05 0)
(0.0991448 9.65075e-05 0)
(0.0991092 0.000102224 0)
(0.0990722 0.000108281 0)
(0.0990339 0.000114697 0)
(0.0989941 0.000121503 0)
(0.0989527 0.000128715 0)
(0.0989098 0.000136357 0)
(0.0988653 0.000144453 0)
(0.0988191 0.000153028 0)
(0.0987711 0.000162108 0)
(0.0987213 0.00017172 0)
(0.0986696 0.0001819 0)
(0.0986159 0.000192683 0)
(0.0985602 0.000204106 0)
(0.0985025 0.000216212 0)
(0.0984425 0.000229051 0)
(0.0983803 0.000242682 0)
(0.0983158 0.000257165 0)
(0.0982488 0.000272572 0)
(0.0981793 0.000288986 0)
(0.0981072 0.000306511 0)
(0.0980323 0.000325267 0)
(0.0979546 0.000345398 0)
(0.097874 0.000367074 0)
(0.0977902 0.000390505 0)
(0.0977032 0.000415945 0)
(0.0976128 0.000443715 0)
(0.0975188 0.00047422 0)
(0.0974211 0.000507973 0)
(0.0973195 0.000545624 0)
(0.0972139 0.000588048 0)
(0.0971037 0.000636588 0)
(0.0969877 0.000693049 0)
(0.0968731 0.000760616 0)
(0.0967456 0.000839535 0)
(0.0966123 0.000890694 0)
(0.143019 0.000722389 0)
(0.0702635 0.000849068 0)
(0.113273 -0.000365823 0)
(0.0964861 6.36135e-05 0)
(0.0991842 -6.8692e-05 0)
(0.0997448 -3.41854e-05 0)
(0.0995044 1.07741e-05 0)
(0.0994791 3.09213e-05 0)
(0.0994694 4.44081e-05 0)
(0.0994469 5.4525e-05 0)
(0.0994229 6.22734e-05 0)
(0.0993979 6.86759e-05 0)
(0.0993718 7.43677e-05 0)
(0.0993445 7.97184e-05 0)
(0.0993162 8.49723e-05 0)
(0.0992868 9.02859e-05 0)
(0.0992564 9.57616e-05 0)
(0.0992247 0.000101483 0)
(0.0991919 0.000107506 0)
(0.0991579 0.000113863 0)
(0.0991226 0.000120591 0)
(0.099086 0.000127723 0)
(0.099048 0.00013528 0)
(0.0990086 0.000143294 0)
(0.0989676 0.000151788 0)
(0.0989251 0.000160786 0)
(0.098881 0.000170318 0)
(0.0988352 0.00018041 0)
(0.0987877 0.000191094 0)
(0.0987384 0.000202405 0)
(0.0986872 0.00021438 0)
(0.0986341 0.000227059 0)
(0.098579 0.000240485 0)
(0.0985219 0.000254708 0)
(0.0984626 0.000269786 0)
(0.0984011 0.000285783 0)
(0.0983374 0.000302767 0)
(0.0982713 0.00032082 0)
(0.0982028 0.000340035 0)
(0.0981317 0.000360525 0)
(0.0980581 0.00038242 0)
(0.0979817 0.000405876 0)
(0.0979025 0.000431076 0)
(0.0978205 0.00045824 0)
(0.0977354 0.000487637 0)
(0.0976473 0.0005196 0)
(0.097556 0.000554542 0)
(0.0974614 0.000592985 0)
(0.0973636 0.000635585 0)
(0.0972627 0.000683223 0)
(0.097158 0.000737225 0)
(0.0970488 0.000799364 0)
(0.0969439 0.000872792 0)
(0.096826 0.000957626 0)
(0.0967042 0.00101873 0)
(0.0961739 8.30795e-05 -8.7038e-24)
(0.0960308 5.58746e-05 -8.83199e-24)
(0.095955 2.2046e-05 -4.79389e-26)
(0.0959412 -1.856e-06 2.69804e-23)
(0.0959586 -8.74573e-06 -8.94652e-24)
(0.0959729 -1.42092e-06 -9.14843e-24)
(0.095962 1.38703e-05 -2.80153e-23)
(0.0959175 3.1857e-05 2.78474e-23)
(0.0958385 4.95139e-05 9.4785e-24)
(0.0957272 6.57181e-05 0)
(0.0955869 8.03842e-05 9.72993e-24)
(0.0954202 9.3741e-05 -9.86637e-24)
(0.0952286 0.000105955 8.07792e-23)
(0.0950139 0.000118536 -1.72857e-22)
(0.0947774 0.000131174 9.22379e-23)
(0.0945182 0.000144034 7.42802e-23)
(0.0942356 0.000157408 9.53237e-23)
(0.0939286 0.000171512 -1.08694e-23)
(0.0935957 0.000186536 1.10725e-23)
(0.0932352 0.000202688 -1.12881e-23)
(0.0928448 0.000220217 0)
(0.092422 0.000239467 1.17601e-23)
(0.0919632 0.000260824 -1.20189e-23)
(0.0914644 0.000284548 0)
(0.0909212 0.000310952 -1.25876e-23)
(0.0903287 0.000340307 0)
(0.0896814 0.000372838 -1.32339e-23)
(0.0889738 0.000409015 -2.20709e-22)
(0.0881989 0.000449712 2.34345e-22)
(0.087348 0.00049596 -2.33902e-22)
(0.0864102 0.000548924 2.33546e-22)
(0.0853725 0.000609903 0)
(0.0842196 0.000680054 0)
(0.0829347 0.000760762 2.83538e-22)
(0.0814978 0.000854375 -2.66757e-22)
(0.0798837 0.000964066 0)
(0.078061 0.00109387 0)
(0.0759907 0.00124869 0)
(0.0736245 0.00143465 0)
(0.0709025 0.00165978 0)
(0.0677488 0.00193489 0)
(0.0640642 0.00227419 0)
(0.0597186 0.00269543 0)
(0.0545714 0.0032215 0)
(0.048445 0.00387616 -2.74587e-23)
(0.0409425 0.0046746 -9.689e-22)
(0.0318824 0.00556144 9.6745e-22)
(0.0217635 0.00621928 1.095e-21)
(0.00951575 0.00592757 -1.09336e-21)
(0.00285766 0.0030878 0)
(0.0962011 0.000247151 -8.77967e-24)
(0.0960601 0.000167176 -1.78254e-23)
(0.0959811 6.80477e-05 -9.24979e-24)
(0.0959595 -1.47583e-06 8.74336e-24)
(0.0959655 -2.08629e-05 -9.04204e-24)
(0.095967 1.35508e-06 6.44674e-23)
(0.0959442 4.67762e-05 -1.0123e-22)
(0.0958897 0.00010005 9.36036e-24)
(0.0958027 0.000152366 1.24297e-22)
(0.0956854 0.000200355 -1.71706e-22)
(0.0955407 0.000243511 -1.66653e-22)
(0.0953705 0.000282736 1.46846e-22)
(0.0951774 0.000320169 0)
(0.0949624 0.0003576 1.01743e-23)
(0.0947253 0.00039523 -3.1003e-23)
(0.0944659 0.000433614 -3.49974e-22)
(0.0941835 0.000473472 3.34826e-22)
(0.093877 0.000515463 -3.55935e-22)
(0.0935448 0.000560216 -3.32739e-23)
(0.0931852 0.000608398 1.13128e-23)
(0.0927961 0.000660769 0)
(0.0923748 0.000718343 -1.17906e-23)
(0.0919178 0.000782279 -3.78308e-22)
(0.091421 0.000853304 7.89409e-22)
(0.0908802 0.000932365 4.32356e-22)
(0.0902902 0.00102022 -8.17671e-22)
(0.0896457 0.00111743 8.75302e-22)
(0.0889417 0.00122543 -8.88141e-22)
(0.0881713 0.00134694 -1.40283e-23)
(0.0873255 0.00148516 0)
(0.0863939 0.00164364 0)
(0.0853634 0.00182639 0)
(0.084219 0.00203683 0)
(0.0829447 0.00227908 -1.64559e-23)
(0.0815214 0.00256013 -1.11376e-21)
(0.0799244 0.00288928 -4.58872e-23)
(0.0781234 0.00327858 1.15663e-21)
(0.0760808 0.00374268 1.2599e-21)
(0.0737506 0.00429981 -1.25823e-21)
(0.071076 0.00497383 -4.20048e-23)
(0.0679855 0.00579676 -4.40736e-23)
(0.0643845 0.00681036 -1.53185e-21)
(0.0601515 0.008067 1.481e-21)
(0.055156 0.00963436 -5.15472e-23)
(0.0492286 0.0115808 2.76506e-23)
(0.041999 0.0139464 -1.98175e-21)
(0.0332909 0.0165538 1.98243e-21)
(0.0235094 0.0184402 -4.30736e-21)
(0.0113958 0.0174672 4.23446e-21)
(0.00369604 0.00899697 -4.40859e-21)
(0.0962521 0.000405653 -5.20551e-23)
(0.0961141 0.00027845 -1.80652e-23)
(0.0960267 0.000121949 7.01985e-23)
(0.095987 1.39777e-05 -1.4351e-22)
(0.0959683 -1.3975e-05 3.06567e-22)
(0.0959433 2.33395e-05 -1.44995e-22)
(0.0958966 9.64788e-05 2.08383e-26)
(0.0958221 0.000181599 1.86775e-23)
(0.0957193 0.000265148 3.24089e-22)
(0.0955897 0.000342238 -3.04837e-22)
(0.0954357 0.000411624 0)
(0.0952599 0.000475875 1.80921e-26)
(0.0950638 0.000537566 0)
(0.0948466 0.000597896 3.49115e-22)
(0.094608 0.000658558 -3.07734e-22)
(0.0943478 0.000720873 -6.59274e-22)
(0.0940653 0.000785981 3.44857e-23)
(0.0937592 0.000854927 -6.92089e-22)
(0.093428 0.000928723 2.22673e-23)
(0.0930699 0.00100841 -7.34603e-22)
(0.0926829 0.00109514 7.57084e-22)
(0.0922643 0.00119057 -7.66951e-22)
(0.0918105 0.00129663 7.90444e-22)
(0.0913174 0.00141444 2.47879e-23)
(0.0907809 0.00154576 -2.53949e-23)
(0.0901955 0.00169187 2.60404e-23)
(0.0895564 0.00185351 -8.67678e-22)
(0.0888593 0.00203305 8.94335e-22)
(0.0880973 0.00223533 9.46342e-22)
(0.0872618 0.00246563 -9.17229e-22)
(0.0863427 0.0027298 0)
(0.0853271 0.00303407 0)
(0.0842004 0.00338378 3.20108e-23)
(0.0829481 0.00378635 2.19648e-21)
(0.0815524 0.00425423 4.97847e-23)
(0.0799901 0.0048027 -2.20763e-21)
(0.0782331 0.00545126 0)
(0.0762472 0.00622381 -3.86702e-23)
(0.0739908 0.00715009 2.6944e-21)
(0.0714137 0.00826906 -5.38998e-21)
(0.0684525 0.00963243 5.74274e-21)
(0.0650231 0.0113075 2.00411e-22)
(0.0610224 0.0133794 -3.01866e-21)
(0.0563392 0.0159565 -3.3607e-21)
(0.0508222 0.0191432 3.46371e-21)
(0.0441483 0.0229846 1.85473e-24)
(0.0361309 0.0271455 -6.17132e-23)
(0.0269825 0.0299899 4.21719e-21)
(0.0150405 0.0280334 -4.08347e-21)
(0.00524945 0.0141936 -4.13134e-21)
(0.0963206 0.00055603 3.43456e-23)
(0.0961835 0.000392044 -1.73735e-23)
(0.096078 0.000192757 2.75967e-26)
(0.0960052 5.91567e-05 1.77665e-23)
(0.0959446 2.95199e-05 -2.72524e-26)
(0.0958769 8.23034e-05 2.9281e-22)
(0.0957931 0.000178925 -5.52411e-22)
(0.0956891 0.000289333 2.96416e-22)
(0.0955638 0.000396398 -1.88919e-23)
(0.0954168 0.000495652 3.47485e-22)
(0.0952503 0.00058809 -3.0903e-22)
(0.0950659 0.000675222 -6.37421e-22)
(0.094863 0.000758737 1.28501e-21)
(0.0946409 0.000840917 -1.30629e-21)
(0.0943994 0.000924118 1.32874e-21)
(0.0941376 0.00101019 -1.33137e-21)
(0.0938545 0.00110063 -7.03756e-22)
(0.0935486 0.00119675 1.94878e-26)
(0.0932182 0.00129984 0)
(0.0928614 0.00141123 -7.16003e-22)
(0.0924763 0.00153248 7.38563e-22)
(0.0920606 0.00166604 0)
(0.0916104 0.00181493 -1.58153e-21)
(0.091122 0.00198043 1.55596e-21)
(0.0905914 0.00216506 2.56365e-23)
(0.0900127 0.00237016 -1.02022e-26)
(0.0893814 0.00259689 2.70004e-23)
(0.0886942 0.00284947 0)
(0.0879443 0.00313501 -2.07776e-26)
(0.0871232 0.00346037 0)
(0.0862215 0.00383277 -3.03534e-23)
(0.0852264 0.00425961 2.04245e-21)
(0.0841252 0.00474778 -2.04177e-21)
(0.0829069 0.00530889 -3.36309e-23)
(0.0815542 0.0059621 6.96692e-23)
(0.0800452 0.00672907 -2.39962e-21)
(0.0783559 0.00763573 2.32497e-21)
(0.0764573 0.0087138 3.93384e-23)
(0.0743149 0.0100035 -3.16414e-25)
(0.0718883 0.011558 4.25759e-23)
(0.0691261 0.0134474 -2.93951e-21)
(0.0659625 0.015765 5.97401e-21)
(0.0623235 0.0186284 -3.1305e-21)
(0.0581286 0.0221753 3.34279e-21)
(0.0532563 0.0265265 -3.50087e-21)
(0.0474375 0.0316938 -7.29152e-21)
(0.0404309 0.037135 1.50633e-20)
(0.0321366 0.0405098 -7.72125e-21)
(0.0203749 0.0370598 0)
(0.00743909 0.0183353 -7.43806e-21)
(0.0963984 0.000698552 -1.70388e-23)
(0.0962555 0.000513539 -6.93209e-23)
(0.0961176 0.000290902 2.09706e-22)
(0.095993 0.000146081 -2.82435e-22)
(0.0958711 0.000120304 1.2423e-22)
(0.0957442 0.000187032 1.81197e-23)
(0.095611 0.000301922 -1.8363e-23)
(0.0954681 0.000430971 -2.97364e-26)
(0.0953137 0.000557632 1.88883e-23)
(0.095148 0.000675167 -3.83163e-23)
(0.0949683 0.000785655 -6.27574e-22)
(0.0947729 0.00089072 6.47645e-22)
(0.0945616 0.000992979 -6.28761e-22)
(0.0943335 0.00109529 6.49119e-22)
(0.0940876 0.00120002 0)
(0.0938228 0.00130915 -2.27371e-26)
(0.0935376 0.00142433 0)
(0.0932304 0.00154711 -6.91317e-22)
(0.0928996 0.00167902 7.3624e-22)
(0.092543 0.0018217 -2.30263e-23)
(0.0921592 0.00197711 -1.54722e-21)
(0.0917463 0.00214856 1.52437e-21)
(0.0912998 0.00234011 -2.46766e-23)
(0.0908165 0.00255287 0)
(0.0902925 0.0027896 0)
(0.0897212 0.00305101 -1.75502e-21)
(0.0890999 0.00333867 1.70177e-21)
(0.088426 0.00365982 0)
(0.0876916 0.00402424 -5.80114e-23)
(0.0868879 0.00443953 0)
(0.0860065 0.00491381 3.08859e-23)
(0.0850352 0.00545777 -3.18798e-23)
(0.083965 0.00608318 -3.30335e-23)
(0.0827902 0.00680425 3.41413e-23)
(0.0814948 0.00764208 2.24099e-21)
(0.0800575 0.0086235 -2.31293e-21)
(0.078459 0.0097806 5.0398e-21)
(0.0766777 0.0111524 -5.04338e-21)
(0.0746897 0.0127891 5.39536e-21)
(0.0724677 0.0147571 1.94155e-22)
(0.0699804 0.0171431 -5.72493e-21)
(0.0671906 0.0200629 -4.68629e-23)
(0.0640597 0.0236652 1.29267e-24)
(0.0605456 0.0281137 1.79097e-24)
(0.0565763 0.0335302 2.50194e-24)
(0.0519428 0.0398482 -1.10219e-22)
(0.0462879 0.0462659 -5.35425e-23)
(0.0390344 0.0497415 -5.25372e-23)
(0.0274168 0.0442733 0)
(0.0102201 0.0211755 1.31349e-23)
(0.0964818 0.000840297 -8.45472e-23)
(0.0963233 0.000657527 5.08551e-23)
(0.0961383 0.000435948 1.73132e-23)
(0.0959477 0.000292758 2.64535e-22)
(0.0957544 0.000269593 -2.64691e-22)
(0.0955625 0.000340385 2.72069e-22)
(0.0953766 0.000460477 -6.03093e-22)
(0.0951951 0.000596176 8.55464e-22)
(0.0950126 0.000731604 -5.98606e-22)
(0.0948247 0.00086002 -6.17075e-22)
(0.094629 0.00098122 -2.90402e-23)
(0.0944222 0.00109841 1.24735e-21)
(0.0942026 0.00121465 -1.31001e-21)
(0.0939684 0.00133266 6.10181e-22)
(0.093718 0.00145483 6.54648e-22)
(0.09345 0.00158328 6.80612e-22)
(0.0931626 0.00171988 -4.86921e-23)
(0.0928542 0.00186637 1.38722e-21)
(0.092523 0.00202453 1.42487e-21)
(0.0921671 0.00219617 3.21252e-23)
(0.0917853 0.00238344 -1.50679e-21)
(0.0913759 0.00258982 0)
(0.0909332 0.00281956 0)
(0.0904548 0.00307406 -1.66331e-21)
(0.0899368 0.00335765 1.63943e-21)
(0.089372 0.00367425 1.75698e-21)
(0.0887611 0.00402588 -1.75958e-21)
(0.0881026 0.00441881 0)
(0.0873858 0.00486358 1.95062e-21)
(0.0866021 0.00537012 -1.95438e-21)
(0.0857464 0.00594789 0)
(0.0848099 0.00661012 -4.20973e-21)
(0.083785 0.00737363 4.24868e-21)
(0.0826655 0.00825589 -3.50022e-23)
(0.0814376 0.00927931 -4.69319e-21)
(0.0800865 0.0104747 4.73662e-21)
(0.0786 0.0118797 0)
(0.0769661 0.0135404 5.3654e-21)
(0.0751739 0.0155149 -5.33255e-21)
(0.0732132 0.0178796 4.39645e-23)
(0.0710788 0.0207333 6.06149e-21)
(0.0687736 0.0242045 -1.22744e-20)
(0.0663122 0.0284547 -1.14286e-22)
(0.063718 0.0336549 -1.29496e-22)
(0.0609965 0.039896 6.78288e-21)
(0.058006 0.0469636 4.591e-24)
(0.0542157 0.05373 -6.554e-21)
(0.0483587 0.0566122 6.71938e-21)
(0.036701 0.0487659 0)
(0.0138833 0.022208 6.54318e-23)
(0.0965832 0.000989637 1.66768e-23)
(0.09641 0.000837672 1.53071e-22)
(0.0961813 0.0006461 -1.36493e-22)
(0.0959323 0.000521731 1.7431e-23)
(0.0956792 0.000504621 2.66797e-22)
(0.0954347 0.000573731 -2.67276e-22)
(0.0952075 0.000690631 -5.69043e-22)
(0.0949952 0.000826258 1.03239e-23)
(0.0947904 0.000964325 -8.66791e-24)
(0.0945868 0.00110021 6.28074e-22)
(0.0943797 0.00123324 -6.09824e-22)
(0.0941652 0.00136545 1.29214e-21)
(0.0939402 0.0014993 -6.42914e-22)
(0.0937026 0.00163715 2.06755e-23)
(0.0934504 0.00178127 2.10981e-23)
(0.0931818 0.0019338 1.39097e-21)
(0.0928952 0.00209671 -5.31472e-24)
(0.0925887 0.0022719 1.44803e-21)
(0.0922607 0.00246119 2.30332e-23)
(0.0919091 0.00266644 0)
(0.0915329 0.00288978 0)
(0.0911291 0.00313498 -1.60498e-21)
(0.0906915 0.00340857 1.60904e-21)
(0.090221 0.00371523 0)
(0.0897168 0.00405701 2.68751e-23)
(0.0891703 0.00443961 0)
(0.0885795 0.0048674 -1.84587e-21)
(0.0879426 0.00534558 3.75381e-21)
(0.0872511 0.00588479 -1.90806e-21)
(0.0864988 0.0064983 -4.02906e-21)
(0.0856824 0.0071983 -1.2922e-22)
(0.0847958 0.00799956 -1.37757e-22)
(0.0838327 0.00892105 -1.47005e-22)
(0.0827876 0.00998416 4.51599e-21)
(0.0816517 0.0112161 4.85222e-21)
(0.0804176 0.0126528 -4.86381e-21)
(0.0790813 0.0143375 0)
(0.0776412 0.016323 5.45316e-21)
(0.0761006 0.018674 -5.46587e-21)
(0.0744694 0.0214729 -5.93613e-21)
(0.0727724 0.0248241 5.90404e-21)
(0.0710591 0.0288539 4.91249e-23)
(0.0694107 0.0336998 6.41347e-21)
(0.0679424 0.0394649 6.93798e-23)
(0.0667695 0.0460833 -6.61454e-21)
(0.0658425 0.0530154 5.27702e-23)
(0.0645277 0.0586605 0)
(0.0609428 0.0592791 -4.6575e-23)
(0.0500151 0.0486522 -3.19633e-21)
(0.0212583 0.0208726 7.83054e-22)
(-0.00106135 0.00115298 0)
(-0.00339745 0.000673525 3.238e-22)
(-0.00254989 -0.00148527 -3.24284e-22)
(0.00239989 -0.0037019 -2.57811e-22)
(0.0105278 -0.00502342 2.58198e-22)
(0.0200536 -0.00539683 -6.22791e-24)
(0.0295635 -0.00514433 0)
(0.0382752 -0.00458954 0)
(0.0459005 -0.00395049 0)
(0.0524167 -0.00334291 0)
(0.0579265 -0.00281272 0)
(0.0625767 -0.00236847 0)
(0.0665127 -0.00200314 0)
(0.0698617 -0.00170539 0)
(0.0727314 -0.00146289 0)
(0.0752091 -0.0012643 4.38691e-23)
(0.0773635 -0.00110051 -4.11845e-23)
(0.0792494 -0.00096442 0)
(0.080911 -0.000850395 0)
(0.0823834 -0.000753747 -4.1912e-23)
(0.0836939 -0.000671199 4.19761e-23)
(0.0848652 -0.00060048 -3.81102e-23)
(0.085917 -0.000539587 2.53253e-24)
(0.0868657 -0.000486821 0)
(0.0877247 -0.000440782 2.44427e-24)
(0.0885052 -0.000400377 0)
(0.0892164 -0.00036469 0)
(0.0898662 -0.000333167 0)
(0.0904618 -0.000305272 2.25283e-24)
(0.0910095 -0.000280477 0)
(0.0915144 -0.000258397 -2.15467e-24)
(0.0919811 -0.000238695 2.10629e-24)
(0.0924137 -0.00022105 -2.05862e-24)
(0.0928156 -0.000205203 1.78963e-23)
(0.0931899 -0.000190946 -1.78748e-23)
(0.0935393 -0.000178105 -1.32468e-23)
(0.0938666 -0.000166546 2.8135e-23)
(0.0941738 -0.00015617 -1.48436e-23)
(0.0944631 -0.000146901 -1.79142e-24)
(0.0947365 -0.000138691 1.75063e-24)
(0.0949958 -0.00013152 0)
(0.0952431 -0.000125398 1.67256e-24)
(0.0954802 -0.000120376 -8.09946e-24)
(0.0957091 -0.000116564 8.07345e-24)
(0.0959323 -0.000114157 -1.56426e-24)
(0.0961527 -0.000113487 4.55647e-24)
(0.0963735 -0.000115088 -1.53327e-24)
(0.0965999 -0.00011982 -2.91538e-24)
(0.096841 -0.000128128 1.45179e-24)
(0.0970996 -0.000134864 -1.40437e-24)
(-0.00106861 0.00318235 -1.33891e-21)
(-0.00272597 0.00164502 -1.41925e-21)
(-0.000595613 -0.0045841 1.39717e-21)
(0.00524104 -0.010946 -5.34298e-22)
(0.013622 -0.0148009 5.38109e-22)
(0.0229125 -0.0159227 6.27062e-24)
(0.0319676 -0.0152043 -1.13065e-23)
(0.0401937 -0.0135877 -2.75671e-22)
(0.0473861 -0.0117152 2.66562e-22)
(0.0535496 -0.00992895 -7.35317e-24)
(0.0587875 -0.00836642 -6.7972e-24)
(0.0632347 -0.00705438 1.94555e-22)
(0.0670207 -0.0059728 -1.94816e-22)
(0.0702589 -0.00508893 -1.84931e-22)
(0.0730472 -0.00436736 3.28008e-24)
(0.0754647 -0.00377554 1.82141e-22)
(0.0775741 -0.00328694 -2.76483e-24)
(0.0794257 -0.00288065 -5.57777e-24)
(0.0810611 -0.00254002 0)
(0.0825134 -0.00225109 0)
(0.083808 -0.00200422 0)
(0.0849666 -0.00179286 -2.58468e-24)
(0.0860085 -0.00161103 1.53985e-22)
(0.0869492 -0.00145357 -1.66918e-22)
(0.0878018 -0.00131616 1.5329e-22)
(0.088577 -0.00119556 -7.96201e-23)
(0.0892837 -0.00108907 -1.51189e-22)
(0.0899297 -0.000995142 7.48552e-23)
(0.0905221 -0.00091206 -2.25865e-24)
(0.091067 -0.000838116 -4.43641e-24)
(0.0915695 -0.000772168 2.15938e-24)
(0.0920342 -0.000713245 -6.34474e-24)
(0.092465 -0.000660439 6.31786e-23)
(0.0928654 -0.000613035 -1.31096e-22)
(0.0932384 -0.000570452 6.18513e-23)
(0.0935866 -0.00053218 -5.77458e-24)
(0.0939127 -0.000497797 1.87827e-24)
(0.0942188 -0.000466962 0)
(0.094507 -0.000439408 -3.01343e-23)
(0.0947792 -0.000414962 2.66262e-23)
(0.0950373 -0.000393539 2.36321e-23)
(0.0952832 -0.000375153 -3.21099e-23)
(0.0955186 -0.000359939 1.63491e-24)
(0.0957455 -0.000348193 7.84284e-24)
(0.0959661 -0.000340456 -1.42166e-23)
(0.096183 -0.000337681 -1.52906e-24)
(0.0963993 -0.000341432 -1.04009e-23)
(0.0966189 -0.000354253 -1.32752e-24)
(0.0968509 -0.000377561 2.96407e-24)
(0.0970968 -0.000396372 4.23787e-24)
(-0.00099912 0.00433903 -1.60618e-21)
(-0.00120303 0.00154325 1.61042e-21)
(0.0034659 -0.00797458 -1.56199e-21)
(0.0109335 -0.017779 -2.01889e-23)
(0.0196697 -0.0238523 -2.30887e-24)
(0.0284579 -0.0256989 -8.46083e-22)
(0.0366206 -0.024623 8.74374e-22)
(0.0438981 -0.0220913 6.1423e-22)
(0.0502472 -0.0191233 -6.60739e-23)
(0.0557257 -0.0162686 -1.00199e-21)
(0.0604363 -0.0137546 9.316e-22)
(0.0644909 -0.0116316 -4.38413e-22)
(0.0679879 -0.00987263 -6.7396e-24)
(0.071013 -0.00842742 0)
(0.0736435 -0.00724145 3.89334e-22)
(0.075944 -0.00626498 -1.4331e-23)
(0.0779655 -0.00545679 -3.69612e-22)
(0.0797501 -0.00478386 1.14594e-23)
(0.0813342 -0.00421973 0)
(0.0827472 -0.00374081 0)
(0.0840106 -0.0033306 1.71458e-22)
(0.0851441 -0.0029786 -1.66243e-22)
(0.0861662 -0.00267544 -1.59743e-22)
(0.0870914 -0.00241288 1.70149e-22)
(0.0879315 -0.00218375 5.04785e-24)
(0.0886965 -0.00198266 -4.93887e-24)
(0.0893947 -0.00180511 4.82811e-24)
(0.0900334 -0.00164891 -1.43405e-22)
(0.0906199 -0.00151106 1.48261e-22)
(0.0911599 -0.00138838 -1.32316e-22)
(0.0916581 -0.00127888 1.41399e-22)
(0.092119 -0.00118094 4.25101e-24)
(0.0925465 -0.00109309 1.3136e-22)
(0.0929439 -0.00101421 -2.55656e-22)
(0.0933141 -0.00094339 1.32296e-22)
(0.09366 -0.000879812 6.49192e-23)
(0.0939838 -0.000822764 -5.73385e-23)
(0.0942878 -0.000771665 0)
(0.0945739 -0.000726047 -4.99143e-27)
(0.0948441 -0.000685572 0)
(0.0951 -0.000650042 5.41319e-23)
(0.0953433 -0.000619413 -5.08401e-23)
(0.0955757 -0.000593838 3.26785e-24)
(0.095799 -0.000573712 8.5161e-28)
(0.096015 -0.000559813 2.46721e-23)
(0.0962258 -0.00055356 -4.57648e-23)
(0.0964336 -0.000557317 2.41454e-23)
(0.0966407 -0.000574997 -1.15351e-23)
(0.0968556 -0.000608972 8.75872e-24)
(0.0970775 -0.000635747 2.85795e-24)
(-0.000526465 0.00408296 -3.97588e-21)
(0.00179275 1.59088e-05 0)
(0.00987199 -0.0117547 3.34068e-21)
(0.0193386 -0.0239796 -6.30412e-21)
(0.0284117 -0.031714 2.97986e-21)
(0.0363999 -0.0341997 9.84502e-22)
(0.0432563 -0.0329366 -1.0358e-21)
(0.0491662 -0.0297388 7.12676e-22)
(0.0543095 -0.0259119 -1.34074e-21)
(0.0588132 -0.0221791 6.18405e-22)
(0.0627734 -0.0188532 8.77837e-24)
(0.066267 -0.0160183 8.34647e-25)
(0.0693499 -0.0136528 6.85512e-24)
(0.0720687 -0.0116957 -4.35322e-22)
(0.074471 -0.0100781 4.2199e-22)
(0.0765998 -0.00873789 1.27669e-23)
(0.0784912 -0.00762349 -6.04119e-24)
(0.0801754 -0.00669284 3.81983e-22)
(0.0816826 -0.00591147 -3.81847e-22)
(0.0830377 -0.00524747 -5.88506e-24)
(0.0842562 -0.00467739 0)
(0.0853534 -0.00418589 1.57602e-25)
(0.0863459 -0.0037605 0)
(0.0872474 -0.00339104 5.33055e-24)
(0.0880683 -0.0030685 1.04977e-25)
(0.0888179 -0.00278572 4.9857e-24)
(0.0895035 -0.00253573 -3.14945e-22)
(0.0901314 -0.00231573 3.10258e-22)
(0.0907091 -0.00212141 0)
(0.091242 -0.00194837 -1.43534e-22)
(0.0917339 -0.00179409 1.48098e-22)
(0.0921892 -0.00165623 0)
(0.0926119 -0.00153259 -3.41225e-26)
(0.093005 -0.00142157 -1.33573e-22)
(0.0933713 -0.00132185 2.59726e-22)
(0.0937136 -0.00123225 -2.49211e-22)
(0.0940342 -0.00115173 2.42912e-22)
(0.0943351 -0.00107947 -2.36773e-22)
(0.0946183 -0.00101482 1.1689e-22)
(0.0948855 -0.000957305 5.55633e-23)
(0.0951384 -0.000906613 -4.87206e-23)
(0.0953783 -0.000862634 -3.34864e-24)
(0.0956069 -0.000825487 -5.162e-23)
(0.0958255 -0.00079558 1.08415e-22)
(0.0960354 -0.00077375 -5.0416e-23)
(0.0962383 -0.000761553 -1.94999e-27)
(0.0964353 -0.000761615 2.97203e-24)
(0.0966263 -0.000778492 3.06763e-27)
(0.0968194 -0.000815303 -2.8403e-24)
(0.0970097 -0.000842341 5.54721e-24)
(0.00106248 0.002133 -5.29497e-24)
(0.00726649 -0.00355973 -3.82804e-23)
(0.0187939 -0.016183 -3.43326e-23)
(0.0302156 -0.0292722 -3.05669e-23)
(0.0393864 -0.0378617 -4.98156e-23)
(0.046247 -0.0408577 -2.96893e-24)
(0.0514584 -0.0396374 1.607e-23)
(0.0556866 -0.0361068 -1.58542e-23)
(0.0593542 -0.0317317 -1.35421e-23)
(0.0626643 -0.027369 1.28722e-21)