/*--------------------------------*- C++ -*----------------------------------*\
| =========                 |                                                 |
| \\      /  F ield         | OpenFOAM: The Open Source CFD Toolbox           |
|  \\    /   O peration     | Version:  2412                                  |
|   \\  /    A nd           | Website:  www.openfoam.com                      |
|    \\/     M anipulation  |                                                 |
\*---------------------------------------------------------------------------*/
FoamFile
{
    version     2.0;
    format      ascii;
    arch        "LSB;label=32;scalar=64";
    class       volVectorField;
    location    "1";
    object      vorticity;
}
// * * * * * * * * * * * * * * * * * * * * * * * * * * * * * * * * * * * * * //

dimensions      [0 0 -1 0 0 0 0];

internalField   nonuniform List<vector> 
63420
(
(0 0 0.000420893)
(0 0 -0.0001022)
(0 0 -0.000174936)
(0 0 -6.23193e-05)
(0 0 -7.57464e-06)
(0 0 7.23802e-06)
(0 0 1.02547e-05)
(0 0 1.07811e-05)
(0 0 1.09836e-05)
(0 0 1.11925e-05)
(0 0 1.11963e-05)
(0 0 1.12977e-05)
(0 0 1.13535e-05)
(0 0 1.14475e-05)
(0 0 1.1445e-05)
(0 0 1.1609e-05)
(0 0 1.16541e-05)
(0 0 1.16189e-05)
(0 0 1.17853e-05)
(0 0 1.18952e-05)
(0 0 1.19125e-05)
(0 0 1.19881e-05)
(0 0 1.20821e-05)
(0 0 1.21208e-05)
(0 0 1.21849e-05)
(0 0 1.22714e-05)
(0 0 1.23283e-05)
(0 0 1.24322e-05)
(0 0 1.25069e-05)
(0 0 1.25816e-05)
(0 0 1.26578e-05)
(0 0 1.27584e-05)
(0 0 1.28838e-05)
(0 0 1.29907e-05)
(0 0 1.31143e-05)
(0 0 1.32533e-05)
(0 0 1.34333e-05)
(0 0 1.36101e-05)
(0 0 1.37861e-05)
(0 0 1.39716e-05)
(0 0 1.41924e-05)
(0 0 1.44575e-05)
(0 0 1.47783e-05)
(0 0 1.51433e-05)
(0 0 1.5589e-05)
(0 0 1.61352e-05)
(0 0 1.68311e-05)
(0 0 1.77539e-05)
(0 0 1.90238e-05)
(0 0 2.10224e-05)
(0 0 2.49417e-05)
(0 0 3.25684e-05)
(0 0 3.66405e-05)
(0 0 -1.42293e-05)
(0 8.6365e-23 -0.000241339)
(0 0 0.00123468)
(0 0 -0.000370786)
(0 0 -0.000547357)
(0 0 -0.00019263)
(0 0 -2.29363e-05)
(0 0 2.37688e-05)
(0 0 3.36375e-05)
(0 0 3.55495e-05)
(0 0 3.6142e-05)
(0 0 3.65711e-05)
(0 0 3.67982e-05)
(0 0 3.71381e-05)
(0 0 3.741e-05)
(0 0 3.76639e-05)
(0 0 3.78949e-05)
(0 0 3.82254e-05)
(0 0 3.84636e-05)
(0 0 3.86552e-05)
(0 0 3.89767e-05)
(0 0 3.93044e-05)
(0 0 3.95513e-05)
(0 0 3.98051e-05)
(0 0 4.00648e-05)
(0 0 4.03307e-05)
(0 0 4.06041e-05)
(0 0 4.08754e-05)
(0 0 4.11473e-05)
(0 0 4.14876e-05)
(0 0 4.18237e-05)
(0 0 4.21565e-05)
(0 0 4.24978e-05)
(0 0 4.28689e-05)
(0 0 4.32785e-05)
(0 0 4.36982e-05)
(0 0 4.41532e-05)
(0 0 4.46474e-05)
(0 0 4.52012e-05)
(0 0 4.57643e-05)
(0 0 4.63598e-05)
(0 0 4.70442e-05)
(0 0 4.78627e-05)
(0 0 4.88175e-05)
(0 0 4.99163e-05)
(0 0 5.11723e-05)
(0 0 5.26643e-05)
(0 0 5.44876e-05)
(0 0 5.67967e-05)
(0 0 5.98207e-05)
(0 0 6.39307e-05)
(0 0 7.02135e-05)
(0 0 8.22047e-05)
(0 0 0.000105242)
(0 0 0.000118116)
(0 0 -3.01199e-05)
(0 8.70116e-23 -0.000695305)
(0 0 0.00194047)
(0 0 -0.000869735)
(0 0 -0.00100815)
(0 0 -0.00035095)
(0 0 -4.52859e-05)
(0 0 3.92728e-05)
(0 0 5.75613e-05)
(0 0 6.13376e-05)
(0 0 6.25424e-05)
(0 0 6.33192e-05)
(0 0 6.39594e-05)
(0 0 6.46674e-05)
(0 0 6.52798e-05)
(0 0 6.58468e-05)
(0 0 6.6488e-05)
(0 0 6.70771e-05)
(0 0 6.76279e-05)
(0 0 6.82222e-05)
(0 0 6.88355e-05)
(0 0 6.95043e-05)
(0 0 7.01322e-05)
(0 0 7.07106e-05)
(0 0 7.1287e-05)
(0 0 7.19513e-05)
(0 0 7.25967e-05)
(0 0 7.32247e-05)
(0 0 7.3917e-05)
(0 0 7.46862e-05)
(0 0 7.54655e-05)
(0 0 7.62444e-05)
(0 0 7.70601e-05)
(0 0 7.79423e-05)
(0 0 7.88813e-05)
(0 0 7.98641e-05)
(0 0 8.09081e-05)
(0 0 8.20341e-05)
(0 0 8.3249e-05)
(0 0 8.45122e-05)
(0 0 8.58734e-05)
(0 0 8.74329e-05)
(0 0 8.92365e-05)
(0 0 9.12835e-05)
(0 0 9.35917e-05)
(0 0 9.62064e-05)
(0 0 9.9249e-05)
(0 0 0.000102899)
(0 0 0.000107414)
(0 0 0.000113159)
(0 0 0.000120757)
(0 0 0.000131971)
(0 0 0.000152549)
(0 0 0.000191277)
(0 0 0.000214823)
(0 0 -1.66624e-05)
(0 5.14649e-22 -0.00106693)
(0 0 0.00238181)
(0 0 -0.0018547)
(0 0 -0.00163982)
(0 0 -0.000578215)
(0 0 -0.000101779)
(0 0 2.96264e-05)
(0 0 5.83056e-05)
(0 0 6.4379e-05)
(0 0 6.63264e-05)
(0 0 6.75418e-05)
(0 0 6.86047e-05)
(0 0 6.96401e-05)
(0 0 7.05984e-05)
(0 0 7.15382e-05)
(0 0 7.25502e-05)
(0 0 7.34383e-05)
(0 0 7.43476e-05)
(0 0 7.53588e-05)
(0 0 7.63392e-05)
(0 0 7.73679e-05)
(0 0 7.83824e-05)
(0 0 7.93705e-05)
(0 0 8.03822e-05)
(0 0 8.14961e-05)
(0 0 8.26169e-05)
(0 0 8.37608e-05)
(0 0 8.49988e-05)
(0 0 8.63162e-05)
(0 0 8.76609e-05)
(0 0 8.90563e-05)
(0 0 9.05508e-05)
(0 0 9.2154e-05)
(0 0 9.38348e-05)
(0 0 9.56042e-05)
(0 0 9.74974e-05)
(0 0 9.95393e-05)
(0 0 0.000101731)
(0 0 0.000104056)
(0 0 0.000106596)
(0 0 0.000109464)
(0 0 0.000112697)
(0 0 0.000116311)
(0 0 0.000120362)
(0 0 0.000124936)
(0 0 0.000130198)
(0 0 0.00013641)
(0 0 0.000143921)
(0 0 0.000153234)
(0 0 0.000165208)
(0 0 0.000182209)
(0 0 0.000211862)
(0 0 0.00026595)
(0 0 0.000302103)
(0 0 1.2075e-05)
(0 -3.38347e-22 -0.00132419)
(0 0 0.00236148)
(0 0 -0.00352464)
(0 0 -0.00248137)
(0 0 -0.000905251)
(0 0 -0.00022748)
(0 0 -4.19879e-05)
(0 0 -1.92562e-06)
(0 0 6.07913e-06)
(0 0 8.17164e-06)
(0 0 9.20909e-06)
(0 0 1.00378e-05)
(0 0 1.07742e-05)
(0 0 1.14914e-05)
(0 0 1.22296e-05)
(0 0 1.30125e-05)
(0 0 1.37039e-05)
(0 0 1.44614e-05)
(0 0 1.53514e-05)
(0 0 1.62129e-05)
(0 0 1.71096e-05)
(0 0 1.80172e-05)
(0 0 1.89699e-05)
(0 0 2.00118e-05)
(0 0 2.11429e-05)
(0 0 2.23289e-05)
(0 0 2.36019e-05)
(0 0 2.49722e-05)
(0 0 2.64465e-05)
(0 0 2.80076e-05)
(0 0 2.96944e-05)
(0 0 3.15414e-05)
(0 0 3.3523e-05)
(0 0 3.56183e-05)
(0 0 3.78737e-05)
(0 0 4.03501e-05)
(0 0 4.30562e-05)
(0 0 4.59952e-05)
(0 0 4.91796e-05)
(0 0 5.27069e-05)
(0 0 5.66856e-05)
(0 0 6.11637e-05)
(0 0 6.61942e-05)
(0 0 7.1874e-05)
(0 0 7.83232e-05)
(0 0 8.57466e-05)
(0 0 9.44833e-05)
(0 0 0.000104968)
(0 0 0.000117814)
(0 0 0.000134067)
(0 0 0.000156517)
(0 0 0.000193997)
(0 0 0.00026006)
(0 0 0.000307047)
(0 0 -1.06614e-05)
(0 1.6707e-22 -0.0014902)
(0 0 0.0018968)
(0 0 -0.00558838)
(0 0 -0.00335909)
(0 0 -0.00126937)
(0 0 -0.000403975)
(0 0 -0.000168348)
(0 0 -0.000119165)
(0 0 -0.000111066)
(0 0 -0.000110472)
(0 0 -0.000111184)
(0 0 -0.000112095)
(0 0 -0.000113076)
(0 0 -0.00011399)
(0 0 -0.000114834)
(0 0 -0.000115605)
(0 0 -0.000116378)
(0 0 -0.000117053)
(0 0 -0.000117559)
(0 0 -0.000118079)
(0 0 -0.000118539)
(0 0 -0.000118936)
(0 0 -0.000119232)
(0 0 -0.000119375)
(0 0 -0.000119421)
(0 0 -0.000119385)
(0 0 -0.000119208)
(0 0 -0.000118926)
(0 0 -0.000118506)
(0 0 -0.00011793)
(0 0 -0.000117186)
(0 0 -0.00011626)
(0 0 -0.000115183)
(0 0 -0.00011395)
(0 0 -0.000112487)
(0 0 -0.000110732)
(0 0 -0.000108713)
(0 0 -0.000106414)
(0 0 -0.000103798)
(0 0 -0.000100765)
(0 0 -9.72214e-05)
(0 0 -9.30993e-05)
(0 0 -8.83185e-05)
(0 0 -8.27666e-05)
(0 0 -7.63019e-05)
(0 0 -6.8699e-05)
(0 0 -5.95785e-05)
(0 0 -4.84772e-05)
(0 0 -3.47517e-05)
(0 0 -1.72896e-05)
(0 0 6.8153e-06)
(0 0 4.6539e-05)
(0 0 0.000115113)
(0 0 0.000162963)
(0 0 -0.000157474)
(0 8.24281e-22 -0.00163183)
(0 0 0.00153924)
(0 0 -0.00699684)
(0 0 -0.00388986)
(0 0 -0.00149852)
(0 0 -0.000526098)
(0 0 -0.000260235)
(0 0 -0.000206789)
(0 0 -0.000200303)
(0 0 -0.000202302)
(0 0 -0.000205692)
(0 0 -0.000209165)
(0 0 -0.000212614)
(0 0 -0.000215908)
(0 0 -0.000219084)
(0 0 -0.00022212)
(0 0 -0.000225069)
(0 0 -0.000227909)
(0 0 -0.000230543)
(0 0 -0.000233177)
(0 0 -0.000235722)
(0 0 -0.00023814)
(0 0 -0.000240436)
(0 0 -0.00024257)
(0 0 -0.000244599)
(0 0 -0.000246541)
(0 0 -0.00024832)
(0 0 -0.000249992)
(0 0 -0.000251522)
(0 0 -0.00025289)
(0 0 -0.000254104)
(0 0 -0.000255157)
(0 0 -0.000256062)
(0 0 -0.000256802)
(0 0 -0.000257306)
(0 0 -0.00025754)
(0 0 -0.000257573)
(0 0 -0.000257369)
(0 0 -0.000256863)
(0 0 -0.000255986)
(0 0 -0.000254675)
(0 0 -0.000252863)
(0 0 -0.000250475)
(0 0 -0.000247408)
(0 0 -0.000243527)
(0 0 -0.000238644)
(0 0 -0.000232429)
(0 0 -0.000224495)
(0 0 -0.000214287)
(0 0 -0.000200816)
(0 0 -0.000181476)
(0 0 -0.000148305)
(0 0 -9.03377e-05)
(0 0 -5.58985e-05)
(0 0 -0.000366262)
(0 -1.6151e-22 -0.00173884)
(-1.45681e-23 8.13931e-21 -0.00063233)
(-2.6644e-22 7.93133e-21 -0.000905544)
(8.116e-23 -3.60299e-22 -0.000837943)
(-2.57517e-24 -2.38511e-20 -0.00048684)
(-1.75826e-22 8.32271e-21 -6.08152e-05)
(7.22298e-22 8.1398e-21 0.000283535)
(-1.45115e-21 2.34112e-20 0.000500938)
(5.4328e-22 -2.4111e-20 0.000614735)
(1.12881e-21 -7.60383e-21 0.00066481)
(-1.66824e-21 -6.29708e-24 0.000682216)
(-1.69542e-21 -7.73499e-21 0.000684924)
(1.49044e-21 7.09222e-21 0.000681586)
(8.76098e-22 -6.04578e-20 0.000675994)
(-1.54235e-21 1.31386e-19 0.000669766)
(4.46912e-22 -7.18487e-20 0.000663341)
(-2.37658e-21 -5.35932e-20 0.000656715)
(4.05261e-21 -6.78515e-20 0.000649836)
(-3.31069e-21 8.41544e-21 0.000642822)
(-3.92787e-22 -7.5354e-21 0.000635825)
(1.85026e-22 7.60524e-21 0.000629178)
(-5.63135e-24 -2.30347e-22 0.000623257)
(-1.81794e-22 -7.27844e-21 0.000618286)
(-3.50771e-21 7.45614e-21 0.00061383)
(7.4619e-21 2.21721e-23 0.000608934)
(2.23063e-21 7.24248e-21 0.000602776)
(-5.78828e-21 -1.02022e-23 0.000594467)
(8.36096e-21 9.33116e-21 0.000583912)
(-8.94812e-21 1.09605e-19 0.000573465)
(3.5115e-22 -1.18696e-19 0.000566452)
(-2.82804e-21 1.09496e-19 0.000564082)
(2.7344e-21 -1.11604e-19 0.000565106)
(8.43516e-23 2.3325e-21 0.000566378)
(-1.08721e-22 -2.83563e-21 0.00056441)
(3.38356e-21 -1.0659e-19 0.000560224)
(-1.36494e-20 1.0538e-19 0.000559804)
(-5.31809e-22 -2.66515e-21 0.000568086)
(1.06648e-20 2.33249e-23 0.000585753)
(1.15951e-20 2.53597e-23 0.000610785)
(-1.1558e-20 -2.52785e-23 0.000641858)
(-3.85132e-22 -8.42322e-25 0.000680225)
(-4.03344e-22 -8.82153e-25 0.000727354)
(-1.39927e-20 -3.06034e-23 0.000777517)
(1.3503e-20 2.95324e-23 0.000813232)
(-4.55375e-22 2.73584e-22 0.000772351)
(4.02608e-22 1.34234e-20 0.000363415)
(-3.96553e-20 7.89027e-20 -0.00146259)
(3.79693e-20 -1.09305e-19 -0.00761417)
(-1.32729e-20 -1.75258e-20 -0.0243566)
(1.43046e-20 4.89835e-20 -0.0587865)
(-4.028e-20 -1.10071e-20 -0.104684)
(-4.49743e-22 8.19871e-21 -0.00183883)
(-9.59826e-23 1.59937e-20 -0.00262637)
(7.07074e-22 7.71179e-21 -0.00239954)
(-1.66866e-21 -7.97932e-21 -0.00133835)
(3.09477e-21 7.41083e-21 -6.52216e-05)
(-1.30115e-21 -5.46602e-20 0.000958514)
(2.56586e-22 8.77106e-20 0.00160345)
(-1.45257e-22 -1.01537e-20 0.00194186)
(3.32238e-21 -1.00581e-19 0.00209292)
(-3.14608e-21 1.44406e-19 0.00214843)
(-5.68585e-22 1.29857e-19 0.00216107)
(3.216e-22 -1.18837e-19 0.00215623)
(-7.19778e-22 1.35997e-21 0.00214501)
(5.08483e-21 -7.4171e-21 0.00213177)
(-3.77779e-21 2.66963e-20 0.00211772)
(-8.52909e-21 2.49159e-19 0.00210282)
(6.76376e-22 -2.36263e-19 0.00208704)
(-7.68587e-21 2.54748e-19 0.0020706)
(-2.77048e-22 1.90046e-20 0.00205424)
(-6.94363e-21 -7.87646e-21 0.00203894)
(7.28212e-21 2.59993e-22 0.00202586)
(-7.20111e-21 1.11682e-20 0.00201567)
(4.9927e-21 2.19933e-19 0.00200658)
(3.87853e-21 -4.76446e-19 0.00199516)
(3.99604e-21 -2.21446e-19 0.00197876)
(-5.08739e-21 4.5805e-19 0.00195473)
(-2.08052e-21 -4.61526e-19 0.00192335)
(5.26989e-21 4.77288e-19 0.00189314)
(5.83476e-21 -1.82226e-21 0.00187465)
(-6.5136e-21 -1.70433e-22 0.00187029)
(-2.17462e-21 -4.75612e-24 0.00187474)
(0 0 0.00187741)
(3.20569e-22 1.6543e-22 0.00186773)
(1.9241e-20 1.77148e-20 0.00185051)
(-1.05888e-20 4.05887e-19 0.00184505)
(-2.5304e-20 -3.12471e-20 0.00186508)
(1.36212e-20 -4.08685e-19 0.00191017)
(2.27126e-20 -3.50348e-19 0.0019721)
(6.97292e-21 3.86854e-19 0.00204595)
(-5.2911e-20 -1.21709e-21 0.00213442)
(5.43688e-20 2.56851e-20 0.00223781)
(-3.704e-20 2.93842e-19 0.00233188)
(4.82534e-21 -3.14003e-19 0.00235517)
(-3.09781e-20 2.29766e-20 0.00210139)
(3.58671e-20 1.56261e-20 0.000662612)
(-7.19923e-20 1.72708e-19 -0.00514179)
(7.25706e-20 -1.6737e-19 -0.0240643)
(-1.50451e-19 1.49129e-19 -0.0747639)
(1.44472e-19 -1.68237e-19 -0.177886)
(-3.76553e-20 -1.93871e-21 -0.311513)
(2.33706e-22 4.8167e-20 -0.00286592)
(2.79532e-23 1.4687e-20 -0.00406297)
(2.37889e-22 -6.24653e-20 -0.0036032)
(2.37112e-23 1.24807e-19 -0.00181301)
(1.01668e-22 -2.69793e-19 0.000285401)
(2.34123e-21 1.29836e-19 0.00195474)
(-4.52913e-21 -1.66107e-21 0.00300156)
(2.71076e-21 -1.89762e-20 0.00355322)
(-4.01438e-22 -2.64356e-19 0.00380597)
(4.45494e-21 2.54698e-19 0.003908)
(-1.60101e-21 -3.03332e-21 0.00394327)
(-7.71464e-21 -6.45125e-23 0.00395163)
(1.23327e-20 -3.39774e-21 0.00394994)
(-1.09067e-20 -2.60267e-19 0.00394459)
(1.26634e-20 2.42071e-19 0.00393768)
(-1.37419e-20 4.727e-19 0.00392943)
(-9.52949e-21 -1.34859e-20 0.0039196)
(-8.26316e-22 4.88866e-19 0.00390848)
(5.26966e-22 -1.47555e-20 0.00389714)
(-1.33429e-20 4.74802e-19 0.00388733)
(1.28557e-20 -4.96156e-19 0.00388147)
(-6.32053e-21 4.7623e-19 0.00388087)
(-6.22347e-21 -4.98707e-19 0.00388116)
(8.98309e-21 -6.57736e-21 0.00387451)
(-4.16082e-21 1.45902e-20 0.00385594)
(9.37872e-21 -6.10955e-21 0.00382135)
(-1.92825e-20 4.50346e-19 0.00377374)
(1.55717e-20 -4.90673e-19 0.00373173)
(1.55054e-20 -4.46135e-19 0.00371363)
(-1.02786e-20 4.58827e-19 0.00371909)
(-1.9069e-21 -9.10383e-21 0.00373487)
(1.96463e-20 -2.11804e-22 0.00374092)
(-2.32773e-20 -3.5354e-20 0.0037204)
(4.10967e-20 -8.52392e-19 0.00368584)
(2.43165e-20 7.18238e-20 0.00367171)
(-6.72405e-20 8.09504e-19 0.00369713)
(6.99493e-21 -2.14509e-20 0.00375465)
(-1.84955e-20 -1.47032e-20 0.00382497)
(1.02728e-19 -6.95532e-19 0.00389811)
(-1.72799e-19 1.40255e-18 0.00397586)
(1.55539e-19 -1.44845e-18 0.00404842)
(1.13305e-19 1.14544e-19 0.00405881)
(-1.5685e-19 6.6133e-19 0.00386937)
(-1.57808e-19 4.6683e-19 0.00304443)
(1.37095e-19 -5.80894e-19 -7.88787e-05)
(-4.35195e-20 3.51292e-20 -0.0109689)
(1.1044e-19 -3.57399e-20 -0.044329)
(2.72366e-19 -1.75579e-19 -0.130713)
(-3.01377e-19 2.91104e-19 -0.302331)
(-5.2403e-20 -8.18073e-20 -0.512532)
(5.29584e-22 -3.16338e-20 -0.00359729)
(-5.62758e-22 1.6202e-20 -0.00501881)
(1.36928e-21 -3.30122e-22 -0.00422215)
(-1.38616e-21 -1.58355e-20 -0.0017114)
(-1.88546e-21 -2.71054e-21 0.0011346)
(2.20415e-21 -2.47143e-19 0.00336236)
(-1.08871e-21 4.73097e-19 0.00474892)
(1.30794e-22 -2.57322e-19 0.00548284)
(-3.12769e-21 1.51787e-20 0.0058294)
(4.41518e-21 -2.79285e-19 0.00598376)
(-6.76387e-21 2.60341e-19 0.00605492)
(1.1171e-21 4.83467e-19 0.00609354)
(2.38147e-21 -9.90217e-19 0.00612015)
(-5.77567e-21 9.93607e-19 0.00614227)
(1.27019e-20 -9.90716e-19 0.00616229)
(-1.25326e-21 9.92431e-19 0.00618039)
(-7.70369e-21 4.95225e-19 0.00619607)
(-1.19463e-21 -6.98193e-21 0.00620954)
(8.23099e-21 7.09989e-21 0.00622206)
(-1.65745e-21 4.629e-19 0.00623614)
(-1.62548e-20 -4.92234e-19 0.00625624)
(2.67527e-20 2.29999e-20 0.00628555)
(-3.03304e-20 9.40322e-19 0.00631617)
(1.596e-20 -9.56166e-19 0.00633277)
(3.63305e-21 5.31e-22 0.00632641)
(-1.76016e-20 -7.81301e-23 0.00629277)
(2.57748e-20 -1.44138e-20 0.00624222)
(-8.55728e-21 2.19966e-22 0.00620786)
(-9.54194e-21 -1.92245e-23 0.00621298)
(8.89805e-21 3.46682e-22 0.00624788)
(-5.62137e-21 -6.12105e-21 0.00628904)
(5.13603e-20 -8.62197e-19 0.00631114)
(-4.12649e-20 9.02118e-19 0.00629715)
(-2.7194e-20 -7.44774e-21 0.00626616)
(3.05706e-20 -3.03767e-21 0.00625946)
(-8.34759e-20 8.14223e-19 0.00629558)
(1.15448e-19 -8.34146e-19 0.00635771)
(-4.15661e-20 1.02489e-20 0.00641494)
(2.84489e-20 8.66907e-23 0.00645351)
(6.51211e-20 1.7584e-20 0.00647204)
(-2.82205e-19 6.41542e-19 0.00644406)
(3.23953e-19 -1.353e-18 0.00627104)
(-1.42993e-19 7.01146e-19 0.00567898)
(2.80479e-19 -5.63517e-19 0.00381082)
(-2.53295e-19 6.98782e-19 -0.00208503)
(-7.70078e-19 7.10807e-19 -0.0201907)
(1.51157e-18 -1.65558e-18 -0.0714898)
(-7.87949e-19 9.03636e-19 -0.197512)
(3.81394e-20 -2.56075e-21 -0.43848)
(8.7733e-21 -7.17659e-20 -0.70829)
(-1.27494e-21 1.64376e-20 -0.00398443)
(3.67136e-22 6.07869e-20 -0.00542026)
(7.77639e-22 -1.86847e-19 -0.00426277)
(2.01894e-21 2.52637e-19 -0.00119526)
(-2.61234e-21 -1.13107e-19 0.00215879)
(-6.90291e-23 -1.43378e-20 0.00473435)
(-6.17238e-22 1.58961e-20 0.00632095)
(5.65088e-21 -2.95117e-22 0.0071622)
(-5.71195e-21 -1.53519e-20 0.00756928)
(-9.17565e-21 3.75654e-20 0.00776337)
(-2.39208e-21 4.9321e-19 0.00786631)
(2.34176e-20 -5.1573e-19 0.00793464)
(-3.12359e-20 4.82571e-19 0.00799097)
(2.36713e-20 -5.04578e-19 0.00804341)
(-5.53308e-21 6.29624e-21 0.0080943)
(2.00936e-20 1.69863e-22 0.00814325)
(7.70021e-21 6.78634e-21 0.00818921)
(4.50813e-21 4.6999e-19 0.00823158)
(2.19355e-20 -5.14657e-19 0.0082711)
(1.19025e-20 3.76919e-20 0.0083107)
(-4.79487e-20 9.75247e-19 0.00835785)
(1.81478e-20 -9.90674e-19 0.0084201)
(1.88508e-20 3.01566e-20 0.00848751)
(-3.24751e-20 -4.20134e-22 0.00853401)
(2.12321e-20 1.7227e-20 0.00854434)
(-2.06118e-20 9.49654e-19 0.00851777)
(9.79193e-21 -9.5425e-19 0.00847554)
(5.07041e-21 1.71962e-20 0.00846113)
(1.87968e-20 2.93108e-20 0.00849452)
(-2.0461e-20 -9.74264e-22 0.00855292)
(1.12567e-21 -1.40474e-20 0.00860731)
(-6.45684e-20 1.44494e-20 0.00864248)
(6.31206e-20 1.37369e-20 0.00865494)
(-7.05374e-21 -3.60443e-20 0.00865851)
(4.2885e-20 -8.14411e-19 0.00867518)
(-2.41197e-20 8.37946e-19 0.00871403)
(2.11685e-19 -1.64874e-18 0.00875734)
(-1.70663e-19 1.67293e-18 0.00877335)
(2.14042e-19 -1.61771e-18 0.00874973)
(9.16773e-20 1.71389e-19 0.00868062)
(-2.49451e-19 1.54484e-18 0.00851425)
(-2.16907e-19 -4.56034e-20 0.00808484)
(2.87328e-20 3.63339e-23 0.00690041)
(-3.54236e-20 2.60643e-22 0.00343292)
(1.05556e-19 2.32775e-21 -0.0067299)
(5.92021e-20 1.86185e-20 -0.0354205)
(-2.2709e-19 6.68864e-21 -0.110788)
(1.38334e-19 7.68744e-21 -0.284388)
(-3.41974e-22 -6.42536e-22 -0.599505)
(7.40904e-20 1.11109e-21 -0.908458)
(-3.08069e-22 7.75574e-20 -0.00411618)
(2.563e-21 -4.78807e-20 -0.0055125)
(-3.46658e-21 -1.76937e-20 -0.00428426)
(3.77365e-21 -2.3133e-19 -0.00118514)
(7.50708e-22 2.34492e-19 0.00214044)
(-1.62703e-21 -2.3081e-19 0.0046582)
(-8.61824e-21 5.09806e-19 0.00619227)
(4.79104e-21 -7.18364e-19 0.00700051)
(-2.15838e-21 5.14583e-19 0.00739262)
(1.31948e-21 4.93861e-19 0.00758287)
(-3.29454e-21 -3.43456e-21 0.00768647)
(1.99918e-20 -9.71528e-19 0.0077561)
(-1.23071e-20 1.02096e-18 0.00781321)
(-3.40753e-21 -4.87747e-19 0.00786566)
(7.70918e-21 -4.834e-19 0.00791549)
(2.49352e-20 -4.73886e-19 0.00796204)
(-3.50392e-21 5.54981e-21 0.00800303)
(3.72404e-20 -9.95067e-19 0.00803651)
(1.75633e-20 -9.47254e-19 0.00806174)
(9.52185e-21 3.2267e-20 0.00808164)
(-8.52548e-21 9.9179e-19 0.00810786)
(-3.6485e-20 -1.46929e-20 0.00815613)
(2.22446e-20 1.61058e-20 0.00822097)
(-3.94476e-20 9.6234e-19 0.00826136)
(2.31374e-20 -9.97929e-19 0.00824846)
(7.0486e-20 -9.36956e-19 0.0081934)
(-7.25226e-20 9.88682e-19 0.0081273)
(2.69615e-20 -3.56946e-20 0.00808434)
(4.34956e-20 -9.49347e-19 0.00807245)
(-9.24733e-20 9.88682e-19 0.00806531)
(7.75655e-21 2.17389e-20 0.00803292)
(-1.70293e-19 1.80308e-18 0.00796665)
(1.3352e-19 -1.90294e-18 0.00788002)
(8.74785e-20 1.00856e-19 0.00778913)
(-2.0731e-19 1.73178e-18 0.0076942)
(1.65578e-19 -1.84109e-18 0.0075865)
(-5.58668e-20 -6.28322e-21 0.007448)
(4.63113e-19 -1.65987e-18 0.00725401)
(-4.11443e-19 1.75298e-18 0.00699653)
(-1.25145e-19 -1.23282e-19 0.00667738)
(6.97769e-19 -1.46404e-18 0.00624648)
(-1.05639e-18 3.1554e-18 0.00546941)
(-9.32267e-20 -1.97748e-19 0.00355167)
(-1.64112e-19 -1.37715e-19 -0.00197223)
(7.67053e-19 -1.43633e-18 -0.0179109)
(8.30455e-20 1.30198e-19 -0.0612226)
(-1.28417e-18 1.09331e-18 -0.168973)
(1.23088e-18 -1.25066e-18 -0.403904)
(7.06633e-21 6.4268e-20 -0.812384)
(1.69856e-20 -4.67805e-21 -1.15294)
(9.63165e-22 -1.6883e-20 -0.00412503)
(6.53065e-22 -1.37554e-19 -0.00574122)
(-1.131e-21 1.25277e-19 -0.00514697)
(-2.77014e-21 -1.93397e-20 -0.00290193)
(4.26056e-21 -2.29575e-19 -0.000367686)
(-3.45535e-21 2.41087e-19 0.00158032)
(1.74539e-21 4.78566e-19 0.00277237)
(-9.76366e-21 -2.20382e-20 0.00339769)
(4.50321e-21 -6.92552e-21 0.00369444)
(1.29617e-20 -5.09802e-19 0.0038291)
(-7.80219e-21 4.77561e-19 0.00389141)
(2.71199e-21 -1.01686e-18 0.00392227)
(7.68835e-21 5.14115e-19 0.00393834)
(-7.25771e-21 -2.2054e-20 0.00394563)
(-9.48157e-21 -2.87695e-20 0.00394553)
(1.54288e-20 -1.00378e-18 0.00393654)
(-1.36498e-21 -1.94643e-20 0.0039157)
(1.03596e-20 -1.02427e-18 0.00387943)
(-1.04618e-20 -2.00104e-21 0.00382436)
(-2.68009e-22 2.184e-22 0.00375344)
(2.08227e-20 1.53113e-20 0.00368384)
(-4.23243e-20 9.87807e-19 0.00364513)
(3.17082e-20 -1.02218e-18 0.00364888)
(2.30631e-20 1.51395e-20 0.00362881)
(-1.66302e-20 -1.57202e-20 0.00351122)
(-1.10673e-20 1.77454e-20 0.00331933)
(-5.55577e-20 9.56841e-19 0.00311087)
(1.2385e-19 -1.98451e-18 0.00291469)
(-5.09471e-20 1.06662e-18 0.00273162)
(-1.44423e-19 1.9263e-18 0.00254174)
(-3.55687e-20 -5.65518e-20 0.00231791)
(2.55911e-20 -2.089e-20 0.00205289)
(-9.3171e-20 -6.75285e-20 0.00176159)
(1.94839e-19 -1.97261e-18 0.00145768)
(3.83011e-19 -1.79037e-18 0.00114897)
(-3.05796e-19 1.93339e-18 0.000848424)
(-6.07388e-20 -9.82466e-20 0.000572047)
(3.89697e-19 -1.7528e-18 0.000343773)
(-2.86712e-19 1.92048e-18 0.000219544)
(-6.2985e-19 1.64755e-18 0.000327269)
(4.4848e-19 -1.80652e-18 0.00082086)
(1.36607e-19 -1.72798e-20 0.00168972)
(8.76881e-19 -1.63248e-18 0.00225861)
(2.44399e-19 1.55865e-19 -0.000312289)
(-1.12265e-18 1.63859e-18 -0.0147467)
(-4.02281e-20 -7.48576e-20 -0.0632091)
(7.45959e-20 1.19265e-21 -0.192482)
(-6.11656e-20 4.06442e-20 -0.484579)
(-8.63107e-19 8.66835e-19 -1.02921)
(8.32775e-19 -8.98065e-19 -1.62799)
(-1.1872e-20 -3.2077e-21 0.0208649)
(-9.1049e-21 -3.94658e-21 -0.0315619)
(8.42947e-21 1.30132e-20 -0.0645282)
(-1.74615e-20 -2.15633e-20 -0.0680795)
(1.79719e-20 1.32562e-20 -0.0542841)
(-8.35256e-22 9.39473e-22 -0.0370038)
(-9.97804e-23 -6.20594e-23 -0.0230295)
(-2.51343e-21 5.49713e-24 -0.0136565)
(2.43491e-21 -5.3254e-24 -0.00797115)
(-6.72933e-23 1.47177e-25 -0.00470401)
(-6.23219e-23 1.36304e-25 -0.00287064)
(1.78718e-21 -3.90874e-24 -0.00184718)
(-1.79294e-21 3.92133e-24 -0.00127473)
(-1.70517e-21 3.72937e-24 -0.000951302)
(4.80464e-23 -4.38207e-22 -0.000762636)
(3.54677e-21 9.55789e-20 -0.000646957)
(-1.77832e-21 -8.88721e-20 -0.000571775)
(-3.6029e-23 -4.11768e-22 -0.00051858)
(-1.51377e-23 4.1859e-22 -0.000476697)
(-1.26885e-21 -1.04856e-19 -0.000443039)
(1.28858e-21 1.04611e-19 -0.000418409)
(-6.8561e-22 -1.00737e-19 -0.000401863)
(1.13785e-21 6.41431e-21 -0.000390586)
(-1.56869e-21 4.3469e-24 -0.000381438)
(1.12822e-21 6.96635e-21 -0.000372928)
(-3.88543e-22 2.60876e-23 -0.000364879)
(-1.42905e-21 3.12548e-24 -0.000358352)
(7.09499e-22 -2.40498e-23 -0.000353679)
(6.01512e-24 7.24574e-21 -0.000350228)
(-4.32548e-23 4.41415e-23 -0.000347487)
(7.0165e-26 -7.38132e-21 -0.000345165)
(-4.21986e-23 7.41223e-21 -0.000343085)
(5.9141e-22 -7.6224e-21 -0.000341207)
(-9.65615e-22 6.7869e-20 -0.000339562)
(2.95434e-22 -6.75706e-20 -0.000338193)
(-2.94392e-22 -5.37628e-20 -0.000337116)
(5.14399e-22 1.14644e-19 -0.000336297)
(-2.52798e-22 -6.10696e-20 -0.000335675)
(-2.95867e-22 -7.89062e-21 -0.000335198)
(2.64138e-22 7.74557e-21 -0.000334831)
(2.29552e-22 3.02239e-25 -0.000334543)
(-3.09014e-22 7.92023e-21 -0.000334313)
(-8.93689e-23 -3.94696e-20 -0.000334131)
(1.83116e-22 3.94431e-20 -0.000334048)
(-1.43062e-22 -7.91027e-21 -0.000334374)
(7.70583e-24 2.39585e-20 -0.000336156)
(-1.17323e-22 -7.92094e-21 -0.000340446)
(-4.29154e-23 -1.61435e-20 -0.000336934)
(5.39898e-23 8.06368e-21 -0.000262506)
(3.35445e-23 -8.11351e-21 3.2116e-05)
(-1.85861e-20 2.77269e-20 0.0541027)
(2.46222e-21 -1.07687e-20 -0.0981909)
(4.2201e-21 -2.50883e-20 -0.193631)
(-6.02958e-20 -3.65912e-20 -0.203007)
(5.88755e-20 3.85365e-20 -0.161526)
(-7.79449e-21 7.17241e-21 -0.109793)
(4.60329e-21 -2.52702e-21 -0.0680181)
(-5.93067e-20 -2.26267e-19 -0.0400676)
(6.25247e-20 2.14664e-19 -0.0231709)
(-1.17522e-20 -5.7248e-21 -0.0135069)
(7.23273e-21 -1.13271e-20 -0.00811761)
(2.81306e-20 3.26826e-19 -0.00513027)
(-3.30846e-20 -3.2172e-19 -0.00347186)
(-2.33945e-20 -3.60723e-19 -0.00254262)
(7.39774e-21 -1.67301e-20 -0.00200532)
(1.98871e-20 3.73151e-19 -0.00167852)
(-3.49076e-21 -4.2061e-21 -0.00146765)
(-4.93244e-22 -1.25686e-20 -0.00131898)
(6.24616e-24 -5.56558e-23 -0.00120094)
(3.90257e-22 -8.53532e-25 -0.0011051)
(1.22858e-21 1.99982e-23 -0.00103534)
(-1.16272e-21 -8.26659e-21 -0.000989207)
(5.65681e-21 4.21055e-19 -0.000957823)
(-6.49021e-21 -4.54573e-19 -0.000932324)
(6.4361e-21 4.42366e-19 -0.000907991)
(-3.80675e-21 -2.20592e-19 -0.000885887)
(-5.40889e-21 -4.58927e-19 -0.000869286)
(1.41875e-21 2.28493e-19 -0.000858412)
(1.28843e-21 -6.48545e-21 -0.000850381)
(-1.44562e-21 -1.47068e-20 -0.000843394)
(1.41981e-21 7.39514e-21 -0.000836946)
(-1.31143e-22 -2.29176e-20 -0.000830981)
(2.74915e-21 2.3373e-19 -0.000825662)
(-5.85618e-21 -4.89348e-19 -0.000821125)
(2.96602e-21 2.33027e-19 -0.0008174)
(5.79855e-22 -2.22554e-20 -0.000814446)
(-7.97039e-22 7.5995e-21 -0.000812157)
(1.29128e-22 3.18683e-22 -0.000810405)
(-6.01731e-22 -1.3191e-19 -0.000809083)
(5.40455e-22 1.15829e-19 -0.0008081)
(9.26862e-22 1.10009e-19 -0.000807376)
(-1.12831e-21 -1.48573e-19 -0.000806844)
(1.42038e-22 7.47319e-21 -0.000806478)
(4.97087e-23 3.97625e-20 -0.000806426)
(-2.77795e-23 -7.12984e-20 -0.000807575)
(-5.12536e-22 -8.00759e-21 -0.000812989)
(4.39627e-23 -5.60792e-20 -0.000826065)
(-1.47418e-22 -8.24928e-21 -0.000817752)
(1.30046e-22 1.60311e-20 -0.000605109)
(1.28912e-22 2.43351e-20 0.000252242)
(-2.50628e-20 7.95667e-23 0.059691)
(4.47298e-20 1.05308e-20 -0.177093)
(-1.57933e-20 5.78151e-21 -0.32352)
(-5.31734e-20 -1.64677e-20 -0.33398)
(1.9983e-20 6.89864e-21 -0.264353)
(-2.36667e-19 -3.31064e-19 -0.178887)
(2.50284e-19 3.18775e-19 -0.110088)
(2.17555e-19 4.90748e-19 -0.0642033)
(-4.4988e-20 8.41063e-20 -0.0365895)
(-3.20111e-19 -1.12441e-18 -0.0209008)
(2.83505e-19 1.22428e-18 -0.0122304)
(-1.303e-19 -6.13511e-19 -0.00747035)
(9.81823e-22 -1.52545e-20 -0.00484462)
(-1.62528e-21 -3.9157e-21 -0.00337519)
(7.40087e-20 7.7292e-19 -0.00252511)
(-1.33951e-20 1.74153e-20 -0.00200882)
(-5.86471e-20 -7.72759e-19 -0.00167765)
(5.9761e-21 2.17705e-20 -0.00144592)
(-3.70566e-21 1.33664e-22 -0.00126047)
(2.44836e-22 -1.70118e-21 -0.00110717)
(1.58572e-20 4.35181e-19 -0.000994675)
(-1.61163e-20 -4.17117e-19 -0.000920532)
(-1.36163e-20 -4.34675e-19 -0.000868442)
(1.52709e-20 4.58077e-19 -0.000825378)
(-1.29967e-21 1.59121e-20 -0.000784092)
(4.20549e-22 -1.43085e-20 -0.000748778)
(-1.45825e-21 1.58216e-20 -0.000727551)
(-5.34159e-21 -4.53991e-19 -0.000717668)
(8.2066e-21 4.67595e-19 -0.000709756)
(-7.82015e-21 -4.44298e-19 -0.000699705)
(8.49269e-21 4.73152e-19 -0.000688353)
(1.95325e-22 1.50566e-20 -0.000677426)
(4.52861e-21 4.8525e-19 -0.000668042)
(-1.04201e-20 -9.53463e-19 -0.000660474)
(7.46679e-21 4.97935e-19 -0.000654532)
(-2.17261e-22 2.62261e-19 -0.00064995)
(2.47089e-22 -2.29396e-19 -0.000646489)
(-2.27784e-21 -5.56664e-22 -0.000643945)
(1.39272e-21 -1.64958e-23 -0.000642157)
(3.1988e-22 -5.38818e-22 -0.000640995)
(8.87442e-22 2.50841e-19 -0.000640344)
(-1.33492e-21 -2.3448e-19 -0.000640097)
(-3.83141e-22 1.52459e-20 -0.000640197)
(9.63079e-22 -2.24282e-22 -0.000640832)
(3.27097e-22 1.27458e-19 -0.000643292)
(-1.34878e-21 -2.38702e-19 -0.000652424)
(8.41496e-22 1.27272e-19 -0.000674618)
(-4.18085e-22 -6.40161e-20 -0.000667766)
(2.49036e-22 4.79886e-20 -0.000349813)
(9.67659e-23 1.61942e-20 0.000982635)
(3.98717e-22 3.89886e-20 0.0150614)
(1.34379e-20 -7.21277e-20 -0.280516)
(3.56753e-19 3.63119e-19 -0.455016)
(-9.45086e-19 -7.92659e-19 -0.456283)
(6.12327e-19 4.31711e-19 -0.357561)
(3.29551e-19 4.40044e-19 -0.240609)
(-3.62438e-19 -4.1756e-19 -0.147157)
(2.8116e-19 5.39268e-19 -0.0850867)
(-5.40906e-19 -1.13051e-18 -0.0479092)
(2.76135e-19 5.73314e-19 -0.02691)
(-8.94397e-21 1.65717e-20 -0.0153792)
(-6.88232e-21 3.90969e-22 -0.00907038)
(1.05779e-20 1.53907e-20 -0.00556018)
(-1.23868e-19 -7.77322e-19 -0.00354522)
(1.13775e-19 7.45364e-19 -0.0023402)
(-2.91876e-21 2.91616e-20 -0.00158633)
(3.55132e-21 -1.63815e-20 -0.00109287)
(6.46502e-20 8.46396e-19 -0.000747067)
(-6.66318e-20 -8.39175e-19 -0.000474763)
(6.5371e-23 -1.73126e-20 -0.000247819)
(-1.63433e-21 -5.07126e-23 -7.03072e-05)
(1.67751e-21 2.48186e-23 6.18094e-05)
(1.55077e-21 -5.92864e-23 0.000164527)
(-4.50533e-21 1.42709e-20 0.000253997)
(3.47846e-21 2.4423e-24 0.000333544)
(-1.88989e-22 1.75977e-20 0.000393186)
(-2.51207e-20 -9.56651e-19 0.000420309)
(2.73623e-20 9.36361e-19 0.000427959)
(-5.25673e-21 4.49873e-21 0.000439986)
(-5.19404e-21 -4.80384e-19 0.000463022)
(8.93362e-21 4.92735e-19 0.000490461)
(-1.61082e-21 1.46826e-21 0.000515536)
(-1.15215e-22 1.31019e-21 0.000535642)
(-4.54416e-21 -5.06518e-19 0.000551121)
(1.26934e-20 9.96179e-19 0.000563152)
(-1.36067e-20 -9.83608e-19 0.000572668)
(1.15402e-20 9.87487e-19 0.00058023)
(-1.02496e-20 -9.89994e-19 0.000586179)
(4.6327e-21 4.93737e-19 0.000590759)
(3.43633e-21 2.51453e-19 0.00059417)
(-2.79754e-21 -2.18082e-19 0.000596588)
(3.71933e-22 -1.56593e-20 0.000598187)
(-2.06071e-21 -2.53132e-19 0.000599102)
(4.43329e-21 5.36392e-19 0.000599206)
(-2.36701e-21 -2.51755e-19 0.000597039)
(2.37346e-22 -5.32081e-22 0.0005864)
(3.40777e-22 1.5898e-20 0.00055728)
(-2.64301e-22 6.8509e-23 0.000555875)
(-9.01755e-23 -1.60356e-20 0.000925265)
(2.4663e-22 3.19981e-20 0.00256778)
(3.95642e-20 -2.1227e-22 -0.107594)
(-1.26373e-21 -1.72102e-21 -0.42138)
(-8.33509e-20 -3.83405e-21 -0.583463)
(1.05245e-19 -6.66715e-21 -0.558852)
(-4.19723e-20 -1.35231e-20 -0.43083)
(-4.07268e-20 -2.17954e-21 -0.287999)
(2.09767e-20 8.02081e-21 -0.175447)
(-9.49127e-21 -9.68322e-21 -0.101112)
(5.44513e-20 -2.35035e-20 -0.0567965)
(5.14302e-19 1.36938e-18 -0.0318743)
(-9.71529e-20 6.45539e-20 -0.0182193)
(-4.50252e-19 -1.46212e-18 -0.0107086)
(3.25475e-19 1.53454e-18 -0.00643695)
(-3.36613e-19 -1.52986e-18 -0.00387821)
(1.14422e-19 8.13282e-19 -0.00226152)
(-1.21878e-19 -8.39444e-19 -0.00119071)
(3.45192e-21 8.77212e-21 -0.000449727)
(-1.43233e-20 -1.32269e-20 8.80752e-05)
(1.17045e-20 -1.39207e-20 0.000506471)
(1.00337e-21 1.38101e-20 0.000858901)
(4.07025e-21 1.5015e-22 0.0011669)
(-5.76205e-21 -2.84735e-20 0.00143537)
(-9.76311e-22 3.3195e-21 0.00166969)
(-3.98504e-20 -9.52176e-19 0.00187476)
(4.04767e-20 9.15653e-19 0.00204591)
(-4.46302e-21 3.34364e-21 0.00216418)
(6.54406e-21 1.14796e-23 0.00221997)