/*--------------------------------*- C++ -*----------------------------------*\
| =========                 |                                                 |
| \\      /  F ield         | OpenFOAM: The Open Source CFD Toolbox           |
|  \\    /   O peration     | Version:  2412                                  |
|   \\  /    A nd           | Website:  www.openfoam.com                      |
|    \\/     M anipulation  |                                                 |
\*---------------------------------------------------------------------------*/
FoamFile
{
    version     2.0;
    format      ascii;
    arch        "LSB;label=32;scalar=64";
    class       volVectorField;
    location    "12.5";
    object      U;
}
// * * * * * * * * * * * * * * * * * * * * * * * * * * * * * * * * * * * * * //

dimensions      [0 1 -1 0 0 0 0];

internalField   nonuniform List<vector> 
5285
(
(0.0994464 -0.000818106 0)
(0.0994753 -0.000771563 0)
(0.0995037 -0.000727098 0)
(0.0995313 -0.000684645 0)
(0.0995583 -0.000644137 0)
(0.0995846 -0.00060551 0)
(0.0996101 -0.000568701 0)
(0.0996348 -0.000533647 0)
(0.0996587 -0.000500286 0)
(0.0996819 -0.000468559 0)
(0.0997042 -0.000438409 0)
(0.0997257 -0.000409779 0)
(0.0997463 -0.000382612 0)
(0.0997662 -0.000356855 0)
(0.0997852 -0.000332455 0)
(0.0998034 -0.000309361 0)
(0.0998208 -0.000287522 0)
(0.0998373 -0.000266889 0)
(0.0998531 -0.000247416 0)
(0.0998681 -0.000229054 0)
(0.0998823 -0.00021176 0)
(0.0998957 -0.000195489 0)
(0.0999084 -0.000180197 0)
(0.0999204 -0.000165844 0)
(0.0999316 -0.000152389 0)
(0.0999422 -0.000139791 0)
(0.0999521 -0.000128013 0)
(0.0999614 -0.000117017 0)
(0.09997 -0.000106768 0)
(0.0999781 -9.72302e-05 0)
(0.0999856 -8.83694e-05 0)
(0.0994675 -0.000830682 0)
(0.0994952 -0.00078365 0)
(0.0995222 -0.000738692 0)
(0.0995487 -0.000695744 0)
(0.0995745 -0.000654744 0)
(0.0995997 -0.000615627 0)
(0.0996242 -0.000578334 0)
(0.099648 -0.000542802 0)
(0.099671 -0.000508972 0)
(0.0996933 -0.000476787 0)
(0.0997149 -0.000446188 0)
(0.0997356 -0.000417121 0)
(0.0997556 -0.000389531 0)
(0.0997748 -0.000363363 0)
(0.0997932 -0.000338567 0)
(0.0998108 -0.00031509 0)
(0.0998276 -0.000292883 0)
(0.0998437 -0.000271897 0)
(0.099859 -0.000252085 0)
(0.0998735 -0.0002334 0)
(0.0998873 -0.000215798 0)
(0.0999003 -0.000199233 0)
(0.0999126 -0.000183662 0)
(0.0999243 -0.000169044 0)
(0.0999352 -0.000155338 0)
(0.0999455 -0.000142504 0)
(0.0999551 -0.000130503 0)
(0.0999642 -0.000119298 0)
(0.0999726 -0.000108852 0)
(0.0999804 -9.91299e-05 0)
(0.0999877 -9.00971e-05 0)
(0.0999944 -8.17204e-05 0)
(0.100001 -7.39678e-05 0)
(0.100006 -6.68084e-05 0)
(0.100012 -6.02119e-05 0)
(0.100016 -5.41494e-05 0)
(0.100021 -4.85932e-05 0)
(0.100025 -4.35172e-05 0)
(0.100029 -3.88963e-05 0)
(0.100032 -3.4707e-05 0)
(0.100035 -3.09272e-05 0)
(0.100038 -2.75362e-05 0)
(0.10004 -2.45148e-05 0)
(0.100042 -2.18461e-05 0)
(0.100044 -1.95137e-05 0)
(0.100046 -1.75052e-05 0)
(0.100048 -1.58063e-05 0)
(0.100049 -1.44139e-05 0)
(0.100051 -1.33085e-05 0)
(0.100052 -1.25143e-05 0)
(0.100053 -1.1975e-05 0)
(0.100054 -1.18081e-05 0)
(0.100056 -1.18025e-05 0)
(0.100056 -1.23839e-05 0)
(0.10006 -1.28265e-05 0)
(0.100058 -1.44645e-05 0)
(0.100066 -1.51229e-05 0)
(0.100059 -1.84476e-05 0)
(0.100076 -1.88563e-05 0)
(0.100058 -2.48786e-05 0)
(0.100092 -2.44648e-05 0)
(0.100056 -3.42497e-05 0)
(0.100113 -3.30716e-05 0)
(0.100056 -4.65351e-05 0)
(0.100139 -4.71361e-05 0)
(0.100065 -6.02367e-05 0)
(0.100169 -7.13109e-05 0)
(0.100093 -7.1725e-05 0)
(0.1002 -0.000105887 0)
(0.100152 -9.3083e-05 0)
(0.100243 -0.000113306 0)
(0.0994889 -0.000842648 0)
(0.0995152 -0.000795173 0)
(0.0995409 -0.000749764 0)
(0.0995662 -0.00070636 0)
(0.0995909 -0.000664903 0)
(0.099615 -0.00062533 0)
(0.0996385 -0.000587583 0)
(0.0996614 -0.000551603 0)
(0.0996835 -0.000517332 0)
(0.099705 -0.000484712 0)
(0.0997257 -0.000453689 0)
(0.0997457 -0.000424207 0)
(0.099765 -0.000396213 0)
(0.0997835 -0.000369654 0)
(0.0998013 -0.000344478 0)
(0.0998183 -0.000320634 0)
(0.0998346 -0.000298074 0)
(0.0998501 -0.000276749 0)
(0.0998649 -0.000256611 0)
(0.099879 -0.000237615 0)
(0.0998924 -0.000219714 0)
(0.099905 -0.000202865 0)
(0.099917 -0.000187025 0)
(0.0999282 -0.000172151 0)
(0.0999389 -0.000158203 0)
(0.0999489 -0.00014514 0)
(0.0999582 -0.000132923 0)
(0.099967 -0.000121514 0)
(0.0999751 -0.000110877 0)
(0.0999827 -0.000100976 0)
(0.0999898 -9.17759e-05 0)
(0.0999963 -8.32433e-05 0)
(0.100002 -7.53456e-05 0)
(0.100008 -6.80516e-05 0)
(0.100013 -6.13307e-05 0)
(0.100018 -5.51534e-05 0)
(0.100022 -4.94919e-05 0)
(0.100026 -4.43192e-05 0)
(0.100029 -3.96102e-05 0)
(0.100033 -3.53409e-05 0)
(0.100036 -3.14889e-05 0)
(0.100038 -2.80331e-05 0)
(0.100041 -2.49541e-05 0)
(0.100043 -2.22345e-05 0)
(0.100045 -1.98578e-05 0)
(0.100046 -1.78115e-05 0)
(0.100048 -1.60807e-05 0)
(0.100049 -1.46625e-05 0)
(0.100051 -1.3537e-05 0)
(0.100052 -1.27291e-05 0)
(0.100053 -1.21809e-05 0)
(0.100054 -1.20134e-05 0)
(0.100056 -1.20089e-05 0)
(0.100056 -1.26069e-05 0)
(0.10006 -1.30566e-05 0)
(0.100058 -1.47389e-05 0)
(0.100066 -1.54e-05 0)
(0.100058 -1.88205e-05 0)
(0.100076 -1.92042e-05 0)
(0.100057 -2.5417e-05 0)
(0.100091 -2.49137e-05 0)
(0.100055 -3.50447e-05 0)
(0.100112 -3.36768e-05 0)
(0.100055 -4.77022e-05 0)
(0.100139 -4.80209e-05 0)
(0.100064 -6.19002e-05 0)
(0.100168 -7.28098e-05 0)
(0.10009 -7.38687e-05 0)
(0.1002 -0.00010889 0)
(0.100149 -9.58522e-05 0)
(0.100244 -0.00011817 0)
(0.0995104 -0.000854008 0)
(0.0995353 -0.000806132 0)
(0.0995598 -0.000760313 0)
(0.0995839 -0.000716493 0)
(0.0996075 -0.000674614 0)
(0.0996305 -0.000634619 0)
(0.099653 -0.00059645 0)
(0.0996749 -0.00056005 0)
(0.0996961 -0.000525363 0)
(0.0997167 -0.000492335 0)
(0.0997367 -0.00046091 0)
(0.0997559 -0.000431035 0)
(0.0997745 -0.000402657 0)
(0.0997923 -0.000375724 0)
(0.0998095 -0.000350186 0)
(0.0998259 -0.000325992 0)
(0.0998416 -0.000303093 0)
(0.0998567 -0.000281442 0)
(0.099871 -0.000260992 0)
(0.0998846 -0.000241695 0)
(0.0998975 -0.000223508 0)
(0.0999098 -0.000206386 0)
(0.0999213 -0.000190286 0)
(0.0999323 -0.000175164 0)
(0.0999426 -0.000160981 0)
(0.0999523 -0.000147696 0)
(0.0999613 -0.00013527 0)
(0.0999698 -0.000123664 0)
(0.0999777 -0.000112842 0)
(0.0999851 -0.000102767 0)
(0.0999919 -9.34049e-05 0)
(0.0999983 -8.47209e-05 0)
(0.100004 -7.66824e-05 0)
(0.10001 -6.92576e-05 0)
(0.100014 -6.24156e-05 0)
(0.100019 -5.61268e-05 0)
(0.100023 -5.03627e-05 0)
(0.100027 -4.50961e-05 0)
(0.10003 -4.03014e-05 0)
(0.100034 -3.59543e-05 0)
(0.100036 -3.20319e-05 0)
(0.100039 -2.85132e-05 0)
(0.100041 -2.53781e-05 0)
(0.100043 -2.26091e-05 0)
(0.100045 -2.01893e-05 0)
(0.100047 -1.81061e-05 0)
(0.100048 -1.63444e-05 0)
(0.10005 -1.49013e-05 0)
(0.100051 -1.37563e-05 0)
(0.100052 -1.29353e-05 0)
(0.100054 -1.23784e-05 0)
(0.100054 -1.22108e-05 0)
(0.100056 -1.22072e-05 0)
(0.100056 -1.28219e-05 0)
(0.10006 -1.32784e-05 0)
(0.100058 -1.50052e-05 0)
(0.100066 -1.56676e-05 0)
(0.100058 -1.91849e-05 0)
(0.100075 -1.95402e-05 0)
(0.100057 -2.59466e-05 0)
(0.10009 -2.53466e-05 0)
(0.100054 -3.58314e-05 0)
(0.100112 -3.42593e-05 0)
(0.100054 -4.88653e-05 0)
(0.100138 -4.88693e-05 0)
(0.100062 -6.35785e-05 0)
(0.100167 -7.4245e-05 0)
(0.100087 -7.60623e-05 0)
(0.100201 -0.000111865 0)
(0.100145 -9.86003e-05 0)
(0.100244 -0.000123255 0)
(0.0995321 -0.00086476 0)
(0.0995556 -0.000816527 0)
(0.0995789 -0.000770339 0)
(0.0996018 -0.00072614 0)
(0.0996242 -0.000683875 0)
(0.0996462 -0.00064349 0)
(0.0996677 -0.00060493 0)
(0.0996886 -0.000568139 0)
(0.0997089 -0.000533064 0)
(0.0997287 -0.000499652 0)
(0.0997478 -0.000467848 0)
(0.0997663 -0.000437601 0)
(0.0997841 -0.00040886 0)
(0.0998013 -0.000381572 0)
(0.0998178 -0.000355689 0)
(0.0998336 -0.00033116 0)
(0.0998488 -0.000307939 0)
(0.0998633 -0.000285976 0)
(0.0998771 -0.000265225 0)
(0.0998903 -0.000245641 0)
(0.0999027 -0.000227178 0)
(0.0999146 -0.000209793 0)
(0.0999258 -0.000193441 0)
(0.0999364 -0.000178082 0)
(0.0999463 -0.000163672 0)
(0.0999557 -0.000150173 0)
(0.0999645 -0.000137544 0)
(0.0999727 -0.000125748 0)
(0.0999804 -0.000114746 0)
(0.0999875 -0.000104503 0)
(0.0999941 -9.49834e-05 0)
(0.1 -8.61526e-05 0)
(0.100006 -7.79774e-05 0)
(0.100011 -7.04257e-05 0)
(0.100016 -6.34662e-05 0)
(0.10002 -5.70691e-05 0)
(0.100024 -5.12054e-05 0)
(0.100028 -4.58475e-05 0)
(0.100031 -4.09695e-05 0)
(0.100034 -3.65467e-05 0)
(0.100037 -3.25561e-05 0)
(0.10004 -2.89761e-05 0)
(0.100042 -2.57865e-05 0)
(0.100044 -2.29695e-05 0)
(0.100045 -2.0508e-05 0)
(0.100047 -1.8389e-05 0)
(0.100049 -1.65973e-05 0)
(0.10005 -1.513e-05 0)
(0.100051 -1.39662e-05 0)
(0.100052 -1.31326e-05 0)
(0.100054 -1.25675e-05 0)
(0.100054 -1.23999e-05 0)
(0.100056 -1.23974e-05 0)
(0.100056 -1.30289e-05 0)
(0.10006 -1.34916e-05 0)
(0.100057 -1.52633e-05 0)
(0.100065 -1.59255e-05 0)
(0.100058 -1.95405e-05 0)
(0.100075 -1.98641e-05 0)
(0.100056 -2.6467e-05 0)
(0.10009 -2.57631e-05 0)
(0.100054 -3.66093e-05 0)
(0.100111 -3.48185e-05 0)
(0.100053 -5.00238e-05 0)
(0.100137 -4.96798e-05 0)
(0.100061 -6.52722e-05 0)
(0.100167 -7.56107e-05 0)
(0.100084 -7.83115e-05 0)
(0.100202 -0.000114804 0)
(0.100141 -0.000101317 0)
(0.100244 -0.00012857 0)
(0.0995538 -0.000874908 0)
(0.0995761 -0.000826361 0)
(0.0995981 -0.000779843 0)
(0.0996198 -0.000735302 0)
(0.0996411 -0.000692686 0)
(0.099662 -0.000651944 0)
(0.0996824 -0.000613023 0)
(0.0997024 -0.00057587 0)
(0.0997218 -0.000540433 0)
(0.0997407 -0.000506661 0)
(0.099759 -0.000474502 0)
(0.0997767 -0.000443905 0)
(0.0997938 -0.00041482 0)
(0.0998103 -0.000387196 0)
(0.0998262 -0.000360985 0)
(0.0998414 -0.000336139 0)
(0.099856 -0.000312608 0)
(0.09987 -0.000290348 0)
(0.0998833 -0.00026931 0)
(0.099896 -0.00024945 0)
(0.099908 -0.000230723 0)
(0.0999195 -0.000213084 0)
(0.0999303 -0.000196492 0)
(0.0999405 -0.000180902 0)
(0.0999501 -0.000166274 0)
(0.0999592 -0.000152568 0)
(0.0999677 -0.000139744 0)
(0.0999756 -0.000127763 0)
(0.099983 -0.000116588 0)
(0.0999899 -0.000106183 0)
(0.0999963 -9.65105e-05 0)
(0.100002 -8.75376e-05 0)
(0.100008 -7.92299e-05 0)
(0.100013 -7.15552e-05 0)
(0.100017 -6.44819e-05 0)
(0.100022 -5.79797e-05 0)
(0.100026 -5.20193e-05 0)
(0.100029 -4.65729e-05 0)
(0.100032 -4.16141e-05 0)
(0.100035 -3.71179e-05 0)
(0.100038 -3.3061e-05 0)
(0.10004 -2.94215e-05 0)
(0.100042 -2.6179e-05 0)
(0.100044 -2.33155e-05 0)
(0.100046 -2.08135e-05 0)
(0.100047 -1.86599e-05 0)
(0.100049 -1.68392e-05 0)
(0.10005 -1.53485e-05 0)
(0.100051 -1.41665e-05 0)
(0.100052 -1.33209e-05 0)
(0.100054 -1.27479e-05 0)
(0.100054 -1.25807e-05 0)
(0.100056 -1.25792e-05 0)
(0.100056 -1.32278e-05 0)
(0.10006 -1.36962e-05 0)
(0.100057 -1.55129e-05 0)
(0.100065 -1.61734e-05 0)
(0.100057 -1.98872e-05 0)
(0.100074 -2.01755e-05 0)
(0.100056 -2.6978e-05 0)
(0.100089 -2.61629e-05 0)
(0.100053 -3.73781e-05 0)
(0.10011 -3.53538e-05 0)
(0.100052 -5.11773e-05 0)
(0.100136 -5.04511e-05 0)
(0.100059 -6.69822e-05 0)
(0.100166 -7.69007e-05 0)
(0.100081 -8.06226e-05 0)
(0.100202 -0.000117698 0)
(0.100137 -0.000103988 0)
(0.100244 -0.000134126 0)
(0.0995757 -0.000884454 0)
(0.0995966 -0.000835635 0)
(0.0996174 -0.000788826 0)
(0.0996379 -0.00074398 0)
(0.099658 -0.000701048 0)
(0.0996778 -0.00065998 0)
(0.0996973 -0.000620728 0)
(0.0997163 -0.000583241 0)
(0.0997348 -0.000547469 0)
(0.0997528 -0.000513362 0)
(0.0997703 -0.00048087 0)
(0.0997872 -0.000449945 0)
(0.0998036 -0.000420536 0)
(0.0998195 -0.000392595 0)
(0.0998347 -0.000366073 0)
(0.0998493 -0.000340925 0)
(0.0998633 -0.000317101 0)
(0.0998767 -0.000294556 0)
(0.0998896 -0.000273245 0)
(0.0999018 -0.000253121 0)
(0.0999134 -0.00023414 0)
(0.0999244 -0.000216259 0)
(0.0999348 -0.000199435 0)
(0.0999447 -0.000183624 0)
(0.099954 -0.000168787 0)
(0.0999627 -0.000154881 0)
(0.0999709 -0.000141869 0)
(0.0999785 -0.00012971 0)
(0.0999857 -0.000118368 0)
(0.0999923 -0.000107805 0)
(0.0999985 -9.79856e-05 0)
(0.100004 -8.88752e-05 0)
(0.10001 -8.04394e-05 0)
(0.100014 -7.26457e-05 0)
(0.100019 -6.54622e-05 0)
(0.100023 -5.88582e-05 0)
(0.100027 -5.28042e-05 0)
(0.10003 -4.72719e-05 0)
(0.100033 -4.22348e-05 0)
(0.100036 -3.76675e-05 0)
(0.100038 -3.35463e-05 0)
(0.100041 -2.98492e-05 0)
(0.100043 -2.65555e-05 0)
(0.100045 -2.36469e-05 0)
(0.100046 -2.11057e-05 0)
(0.100048 -1.89186e-05 0)
(0.100049 -1.70699e-05 0)
(0.10005 -1.55567e-05 0)
(0.100051 -1.43572e-05 0)
(0.100052 -1.35e-05 0)
(0.100054 -1.29195e-05 0)
(0.100054 -1.2753e-05 0)
(0.100056 -1.27526e-05 0)
(0.100056 -1.34183e-05 0)
(0.100059 -1.38919e-05 0)
(0.100057 -1.57539e-05 0)
(0.100065 -1.64113e-05 0)
(0.100057 -2.02247e-05 0)
(0.100074 -2.04742e-05 0)
(0.100055 -2.74794e-05 0)
(0.100088 -2.65458e-05 0)
(0.100052 -3.81376e-05 0)
(0.100109 -3.58647e-05 0)
(0.100051 -5.23255e-05 0)
(0.100135 -5.1182e-05 0)
(0.100057 -6.87094e-05 0)
(0.100166 -7.81086e-05 0)
(0.100078 -8.3003e-05 0)
(0.100203 -0.000120536 0)
(0.100133 -0.000106602 0)
(0.100244 -0.000139931 0)
(0.0995977 -0.000893401 0)
(0.0996173 -0.000844351 0)
(0.0996367 -0.00079729 0)
(0.099656 -0.000752174 0)
(0.0996751 -0.000708959 0)
(0.0996938 -0.000667599 0)
(0.0997122 -0.000628045 0)
(0.0997302 -0.000590252 0)
(0.0997478 -0.00055417 0)
(0.099765 -0.000519753 0)
(0.0997817 -0.000486951 0)
(0.0997979 -0.000455718 0)
(0.0998135 -0.000426005 0)
(0.0998286 -0.000397766 0)
(0.0998432 -0.000370951 0)
(0.0998572 -0.000345517 0)
(0.0998707 -0.000321415 0)
(0.0998836 -0.0002986 0)
(0.0998959 -0.000277027 0)
(0.0999076 -0.000256652 0)
(0.0999187 -0.000237429 0)
(0.0999293 -0.000219316 0)
(0.0999394 -0.00020227 0)
(0.0999489 -0.000186247 0)
(0.0999578 -0.000171208 0)
(0.0999662 -0.000157111 0)
(0.0999741 -0.000143917 0)
(0.0999815 -0.000131587 0)
(0.0999884 -0.000120084 0)
(0.0999948 -0.000109369 0)
(0.100001 -9.94079e-05 0)
(0.100006 -9.01647e-05 0)
(0.100011 -8.16052e-05 0)
(0.100016 -7.36965e-05 0)
(0.10002 -6.64064e-05 0)
(0.100024 -5.97041e-05 0)
(0.100028 -5.35595e-05 0)
(0.100031 -4.79443e-05 0)
(0.100034 -4.28313e-05 0)
(0.100037 -3.81951e-05 0)
(0.100039 -3.40118e-05 0)
(0.100041 -3.0259e-05 0)
(0.100043 -2.69157e-05 0)
(0.100045 -2.39635e-05 0)
(0.100047 -2.13844e-05 0)
(0.100048 -1.9165e-05 0)
(0.100049 -1.72893e-05 0)
(0.10005 -1.57543e-05 0)
(0.100051 -1.4538e-05 0)
(0.100052 -1.36699e-05 0)
(0.100054 -1.30823e-05 0)
(0.100054 -1.29167e-05 0)
(0.100056 -1.29174e-05 0)
(0.100056 -1.36004e-05 0)
(0.100059 -1.40786e-05 0)
(0.100057 -1.59862e-05 0)
(0.100064 -1.66388e-05 0)
(0.100057 -2.05529e-05 0)
(0.100073 -2.07601e-05 0)
(0.100055 -2.79709e-05 0)
(0.100087 -2.69113e-05 0)
(0.100052 -3.88872e-05 0)
(0.100108 -3.63509e-05 0)
(0.10005 -5.34678e-05 0)
(0.100134 -5.18711e-05 0)
(0.100055 -7.04544e-05 0)
(0.100165 -7.9228e-05 0)
(0.100075 -8.54601e-05 0)
(0.100204 -0.000123308 0)
(0.100128 -0.000109142 0)
(0.100244 -0.000145995 0)
(0.0996196 -0.000901754 0)
(0.0996379 -0.000852513 0)
(0.0996561 -0.000805237 0)
(0.0996742 -0.000759887 0)
(0.0996921 -0.000716422 0)
(0.0997098 -0.000674799 0)
(0.0997272 -0.000634974 0)
(0.0997443 -0.000596902 0)
(0.0997609 -0.000560537 0)
(0.0997772 -0.000525833 0)
(0.0997931 -0.000492744 0)
(0.0998085 -0.000461225 0)
(0.0998234 -0.000431228 0)
(0.0998379 -0.000402708 0)
(0.0998518 -0.000375618 0)
(0.0998652 -0.000349914 0)
(0.0998781 -0.000325548 0)
(0.0998904 -0.000302478 0)
(0.0999022 -0.000280657 0)
(0.0999134 -0.000260042 0)
(0.0999241 -0.000240589 0)
(0.0999343 -0.000222254 0)
(0.0999439 -0.000204995 0)
(0.099953 -0.00018877 0)
(0.0999616 -0.000173538 0)
(0.0999697 -0.000159257 0)
(0.0999773 -0.000145889 0)
(0.0999844 -0.000133394 0)
(0.099991 -0.000121735 0)
(0.0999972 -0.000110875 0)
(0.100003 -0.000100777 0)
(0.100008 -9.14057e-05 0)
(0.100013 -8.27268e-05 0)
(0.100018 -7.47072e-05 0)
(0.100022 -6.73143e-05 0)
(0.100026 -6.0517e-05 0)
(0.100029 -5.4285e-05 0)
(0.100032 -4.85896e-05 0)
(0.100035 -4.34033e-05 0)
(0.100038 -3.87006e-05 0)
(0.10004 -3.44572e-05 0)
(0.100042 -3.06505e-05 0)
(0.100044 -2.72594e-05 0)
(0.100045 -2.4265e-05 0)
(0.100047 -2.16494e-05 0)
(0.100048 -1.93989e-05 0)
(0.100049 -1.74971e-05 0)
(0.10005 -1.59413e-05 0)
(0.100051 -1.47088e-05 0)
(0.100052 -1.38304e-05 0)
(0.100053 -1.3236e-05 0)
(0.100054 -1.30717e-05 0)
(0.100056 -1.30735e-05 0)
(0.100055 -1.37739e-05 0)
(0.100059 -1.42562e-05 0)
(0.100056 -1.62095e-05 0)
(0.100064 -1.6856e-05 0)
(0.100056 -2.08717e-05 0)
(0.100072 -2.1033e-05 0)
(0.100054 -2.84522e-05 0)
(0.100087 -2.72592e-05 0)
(0.100051 -3.96267e-05 0)
(0.100107 -3.68118e-05 0)
(0.100049 -5.46035e-05 0)
(0.100133 -5.25175e-05 0)
(0.100054 -7.22178e-05 0)
(0.100164 -8.02521e-05 0)
(0.100071 -8.80019e-05 0)
(0.100205 -0.000126003 0)
(0.100122 -0.000111591 0)
(0.100243 -0.000152327 0)
(0.0996416 -0.000909518 0)
(0.0996586 -0.000860123 0)
(0.0996756 -0.000812669 0)
(0.0996925 -0.000767119 0)
(0.0997093 -0.000723438 0)
(0.0997259 -0.000681583 0)
(0.0997422 -0.000641515 0)
(0.0997583 -0.000603191 0)
(0.0997741 -0.000566568 0)
(0.0997895 -0.000531602 0)
(0.0998045 -0.000498249 0)
(0.0998192 -0.000466464 0)
(0.0998334 -0.000436203 0)
(0.0998471 -0.000407421 0)
(0.0998604 -0.000380073 0)
(0.0998731 -0.000354114 0)
(0.0998854 -0.000329501 0)
(0.0998972 -0.000306188 0)
(0.0999085 -0.000284133 0)
(0.0999193 -0.00026329 0)
(0.0999295 -0.000243618 0)
(0.0999392 -0.000225072 0)
(0.0999485 -0.000207611 0)
(0.0999572 -0.000191192 0)
(0.0999654 -0.000175774 0)
(0.0999732 -0.000161318 0)
(0.0999805 -0.000147783 0)
(0.0999873 -0.00013513 0)
(0.0999936 -0.000123322 0)
(0.0999996 -0.000112322 0)
(0.100005 -0.000102092 0)
(0.10001 -9.25975e-05 0)
(0.100015 -8.38038e-05 0)
(0.100019 -7.56774e-05 0)
(0.100023 -6.81855e-05 0)
(0.100027 -6.12966e-05 0)
(0.10003 -5.49803e-05 0)
(0.100033 -4.92075e-05 0)
(0.100036 -4.39506e-05 0)
(0.100038 -3.91837e-05 0)
(0.10004 -3.48822e-05 0)
(0.100042 -3.10236e-05 0)
(0.100044 -2.75863e-05 0)
(0.100046 -2.45514e-05 0)
(0.100047 -2.19006e-05 0)
(0.100048 -1.96201e-05 0)
(0.100049 -1.76933e-05 0)
(0.10005 -1.61175e-05 0)
(0.100051 -1.48696e-05 0)
(0.100052 -1.39813e-05 0)
(0.100053 -1.33806e-05 0)
(0.100054 -1.32179e-05 0)
(0.100055 -1.32208e-05 0)
(0.100055 -1.39388e-05 0)
(0.100058 -1.44246e-05 0)
(0.100056 -1.64239e-05 0)
(0.100063 -1.70626e-05 0)
(0.100056 -2.11807e-05 0)
(0.100072 -2.12926e-05 0)
(0.100054 -2.89233e-05 0)
(0.100086 -2.75893e-05 0)
(0.10005 -4.03557e-05 0)
(0.100106 -3.72471e-05 0)
(0.100048 -5.57322e-05 0)
(0.100131 -5.31201e-05 0)
(0.100052 -7.40001e-05 0)
(0.100163 -8.11746e-05 0)
(0.100067 -9.06363e-05 0)
(0.100206 -0.000128607 0)
(0.100117 -0.000113933 0)
(0.100242 -0.000158932 0)
(0.0996635 -0.000916697 0)
(0.0996792 -0.000867186 0)
(0.0996949 -0.000819589 0)
(0.0997107 -0.000773874 0)
(0.0997263 -0.000730007 0)
(0.0997419 -0.000687951 0)
(0.0997572 -0.000647669 0)
(0.0997724 -0.00060912 0)
(0.0997872 -0.000572264 0)
(0.0998018 -0.000537059 0)
(0.099816 -0.000503463 0)
(0.0998298 -0.000471434 0)
(0.0998433 -0.000440929 0)
(0.0998563 -0.000411903 0)
(0.0998689 -0.000384314 0)
(0.0998811 -0.000358118 0)
(0.0998928 -0.000333271 0)
(0.099904 -0.000309731 0)
(0.0999148 -0.000287454 0)
(0.0999251 -0.000266396 0)
(0.0999348 -0.000246515 0)
(0.0999442 -0.000227769 0)
(0.099953 -0.000210115 0)
(0.0999613 -0.000193511 0)
(0.0999692 -0.000177917 0)
(0.0999766 -0.000163293 0)
(0.0999836 -0.000149598 0)
(0.0999901 -0.000136794 0)
(0.0999962 -0.000124843 0)
(0.100002 -0.000113708 0)
(0.100007 -0.000103352 0)
(0.100012 -9.37397e-05 0)
(0.100017 -8.48357e-05 0)
(0.100021 -7.66066e-05 0)
(0.100024 -6.90194e-05 0)
(0.100028 -6.20425e-05 0)
(0.100031 -5.56451e-05 0)
(0.100034 -4.97978e-05 0)
(0.100037 -4.44729e-05 0)
(0.100039 -3.96441e-05 0)
(0.100041 -3.52868e-05 0)
(0.100043 -3.13782e-05 0)
(0.100044 -2.78965e-05 0)
(0.100046 -2.48225e-05 0)
(0.100047 -2.21379e-05 0)
(0.100048 -1.98286e-05 0)
(0.10005 -1.78779e-05 0)
(0.10005 -1.6283e-05 0)
(0.100051 -1.50203e-05 0)
(0.100052 -1.41228e-05 0)
(0.100053 -1.3516e-05 0)
(0.100054 -1.33553e-05 0)
(0.100055 -1.33593e-05 0)
(0.100055 -1.40949e-05 0)
(0.100058 -1.45838e-05 0)
(0.100055 -1.66291e-05 0)
(0.100063 -1.72585e-05 0)
(0.100055 -2.148e-05 0)
(0.100071 -2.15388e-05 0)
(0.100053 -2.93838e-05 0)
(0.100085 -2.79012e-05 0)
(0.100049 -4.10738e-05 0)
(0.100105 -3.76565e-05 0)
(0.100046 -5.68531e-05 0)
(0.10013 -5.36782e-05 0)
(0.100049 -7.58012e-05 0)
(0.100162 -8.19894e-05 0)
(0.100063 -9.33706e-05 0)
(0.100207 -0.00013111 0)
(0.100111 -0.000116149 0)
(0.100241 -0.000165816 0)
(0.0996853 -0.000923296 0)
(0.0996997 -0.000873707 0)
(0.0997143 -0.000826002 0)
(0.0997288 -0.000780154 0)
(0.0997434 -0.000736133 0)
(0.0997579 -0.000693905 0)
(0.0997722 -0.000653436 0)
(0.0997864 -0.000614689 0)
(0.0998003 -0.000577625 0)
(0.099814 -0.000542205 0)
(0.0998274 -0.000508389 0)
(0.0998405 -0.000476136 0)
(0.0998532 -0.000445405 0)
(0.0998655 -0.000416154 0)
(0.0998775 -0.000388341 0)
(0.099889 -0.000361923 0)
(0.0999001 -0.000336859 0)
(0.0999108 -0.000313105 0)
(0.099921 -0.000290618 0)
(0.0999308 -0.000269358 0)
(0.0999401 -0.000249281 0)
(0.099949 -0.000230344 0)
(0.0999574 -0.000212507 0)
(0.0999654 -0.000195728 0)
(0.0999729 -0.000179967 0)
(0.09998 -0.000165182 0)
(0.0999867 -0.000151335 0)
(0.0999929 -0.000138386 0)
(0.0999987 -0.000126299 0)
(0.100004 -0.000115035 0)
(0.100009 -0.000104558 0)
(0.100014 -9.48321e-05 0)
(0.100018 -8.58222e-05 0)
(0.100022 -7.74946e-05 0)
(0.100026 -6.98161e-05 0)
(0.100029 -6.27546e-05 0)
(0.100032 -5.62792e-05 0)
(0.100035 -5.03604e-05 0)
(0.100037 -4.497e-05 0)
(0.100039 -4.00818e-05 0)
(0.100041 -3.56709e-05 0)
(0.100043 -3.17142e-05 0)
(0.100045 -2.81897e-05 0)
(0.100046 -2.50783e-05 0)
(0.100047 -2.23612e-05 0)
(0.100048 -2.00244e-05 0)
(0.100049 -1.80507e-05 0)
(0.10005 -1.64375e-05 0)
(0.100051 -1.51609e-05 0)
(0.100052 -1.42546e-05 0)
(0.100053 -1.36423e-05 0)
(0.100053 -1.34837e-05 0)
(0.100055 -1.34889e-05 0)
(0.100054 -1.42422e-05 0)
(0.100057 -1.47336e-05 0)
(0.100055 -1.68252e-05 0)
(0.100062 -1.74438e-05 0)
(0.100054 -2.17695e-05 0)
(0.10007 -2.17715e-05 0)
(0.100052 -2.98336e-05 0)
(0.100084 -2.81949e-05 0)
(0.100048 -4.17809e-05 0)
(0.100103 -3.80398e-05 0)
(0.100045 -5.79655e-05 0)
(0.100129 -5.41913e-05 0)
(0.100047 -7.76208e-05 0)
(0.100161 -8.26915e-05 0)
(0.100059 -9.6211e-05 0)
(0.100207 -0.000133501 0)
(0.100104 -0.000118223 0)
(0.100239 -0.000172979 0)
(0.099707 -0.000929322 0)
(0.0997202 -0.000879689 0)
(0.0997335 -0.00083191 0)
(0.0997469 -0.000785961 0)
(0.0997603 -0.000741817 0)
(0.0997738 -0.000699447 0)
(0.0997871 -0.000658819 0)
(0.0998003 -0.000619899 0)
(0.0998133 -0.000582651 0)
(0.0998262 -0.000547039 0)
(0.0998387 -0.000513025 0)
(0.099851 -0.000480569 0)
(0.099863 -0.000449632 0)
(0.0998747 -0.000420174 0)
(0.0998859 -0.000392154 0)
(0.0998969 -0.000365531 0)
(0.0999074 -0.000340263 0)
(0.0999175 -0.000316309 0)
(0.0999272 -0.000293627 0)
(0.0999365 -0.000272176 0)
(0.0999454 -0.000251913 0)
(0.0999538 -0.000232797 0)
(0.0999618 -0.000214788 0)
(0.0999694 -0.000197842 0)
(0.0999766 -0.000181921 0)
(0.0999833 -0.000166984 0)
(0.0999897 -0.000152992 0)
(0.0999956 -0.000139906 0)
(0.100001 -0.000127688 0)
(0.100006 -0.000116301 0)
(0.100011 -0.000105708 0)
(0.100016 -9.58742e-05 0)
(0.10002 -8.67631e-05 0)
(0.100023 -7.83412e-05 0)
(0.100027 -7.05751e-05 0)
(0.10003 -6.34326e-05 0)
(0.100033 -5.68826e-05 0)
(0.100035 -5.0895e-05 0)
(0.100038 -4.54419e-05 0)
(0.10004 -4.04967e-05 0)
(0.100042 -3.60342e-05 0)
(0.100043 -3.20314e-05 0)
(0.100045 -2.8466e-05 0)
(0.100046 -2.53187e-05 0)
(0.100047 -2.25706e-05 0)
(0.100048 -2.02074e-05 0)
(0.100049 -1.82118e-05 0)
(0.10005 -1.65813e-05 0)
(0.100051 -1.52913e-05 0)
(0.100052 -1.43769e-05 0)
(0.100052 -1.37593e-05 0)
(0.100053 -1.36033e-05 0)
(0.100054 -1.36096e-05 0)
(0.100054 -1.43808e-05 0)
(0.100057 -1.48741e-05 0)
(0.100054 -1.70121e-05 0)
(0.100061 -1.76183e-05 0)
(0.100054 -2.20489e-05 0)
(0.100069 -2.19906e-05 0)
(0.100051 -3.02727e-05 0)
(0.100082 -2.84702e-05 0)
(0.100047 -4.24764e-05 0)
(0.100102 -3.83968e-05 0)
(0.100044 -5.90685e-05 0)
(0.100127 -5.46593e-05 0)
(0.100045 -7.94581e-05 0)
(0.10016 -8.3277e-05 0)
(0.100055 -9.91617e-05 0)
(0.100208 -0.000135769 0)
(0.100097 -0.000120139 0)
(0.100237 -0.000180419 0)
(0.0997286 -0.000934781 0)
(0.0997405 -0.000885138 0)
(0.0997526 -0.000837318 0)
(0.0997649 -0.0007913 0)
(0.0997772 -0.000747062 0)
(0.0997896 -0.000704578 0)
(0.0998019 -0.000663818 0)
(0.0998142 -0.000624751 0)
(0.0998263 -0.000587344 0)
(0.0998382 -0.000551563 0)
(0.09985 -0.000517372 0)
(0.0998615 -0.000484733 0)
(0.0998727 -0.00045361 0)
(0.0998837 -0.000423963 0)
(0.0998943 -0.000395752 0)
(0.0999046 -0.000368939 0)
(0.0999145 -0.000343483 0)
(0.0999241 -0.000319343 0)
(0.0999333 -0.000296479 0)
(0.0999421 -0.000274849 0)
(0.0999505 -0.000254412 0)
(0.0999585 -0.000235128 0)
(0.0999661 -0.000216955 0)
(0.0999733 -0.000199853 0)
(0.0999801 -0.00018378 0)
(0.0999865 -0.000168699 0)
(0.0999926 -0.000154569 0)
(0.0999982 -0.000141352 0)
(0.100004 -0.00012901 0)
(0.100008 -0.000117506 0)
(0.100013 -0.000106804 0)
(0.100017 -9.6866e-05 0)
(0.100021 -8.76582e-05 0)
(0.100025 -7.91462e-05 0)
(0.100028 -7.12965e-05 0)
(0.100031 -6.40766e-05 0)
(0.100034 -5.7455e-05 0)
(0.100036 -5.14018e-05 0)
(0.100038 -4.58886e-05 0)
(0.10004 -4.08888e-05 0)
(0.100042 -3.6377e-05 0)
(0.100044 -3.233e-05 0)
(0.100045 -2.87254e-05 0)
(0.100046 -2.55438e-05 0)
(0.100047 -2.2766e-05 0)
(0.100048 -2.03776e-05 0)
(0.100049 -1.83612e-05 0)
(0.10005 -1.67142e-05 0)
(0.100051 -1.54116e-05 0)
(0.100051 -1.44896e-05 0)
(0.100052 -1.38672e-05 0)
(0.100052 -1.3714e-05 0)
(0.100054 -1.37215e-05 0)
(0.100053 -1.45106e-05 0)
(0.100056 -1.50054e-05 0)
(0.100054 -1.71898e-05 0)
(0.10006 -1.77821e-05 0)
(0.100053 -2.23184e-05 0)
(0.100068 -2.21962e-05 0)
(0.10005 -3.07008e-05 0)
(0.100081 -2.8727e-05 0)
(0.100046 -4.31602e-05 0)
(0.1001 -3.87274e-05 0)
(0.100042 -6.01614e-05 0)
(0.100125 -5.50822e-05 0)
(0.100043 -8.13113e-05 0)
(0.100159 -8.37437e-05 0)
(0.10005 -0.000102224 0)
(0.100209 -0.000137907 0)
(0.100091 -0.000121885 0)
(0.100235 -0.000188127 0)
(0.09975 -0.000939678 0)
(0.0997606 -0.00089006 0)
(0.0997715 -0.00084223 0)
(0.0997827 -0.000796174 0)
(0.0997939 -0.000751872 0)
(0.0998052 -0.000709301 0)
(0.0998166 -0.000668436 0)
(0.0998279 -0.000629247 0)
(0.0998391 -0.000591705 0)
(0.0998502 -0.000555777 0)
(0.0998611 -0.00052143 0)
(0.0998719 -0.000488629 0)
(0.0998824 -0.000457338 0)
(0.0998926 -0.00042752 0)
(0.0999026 -0.000399136 0)
(0.0999123 -0.000372149 0)
(0.0999216 -0.000346519 0)
(0.0999306 -0.000322207 0)
(0.0999393 -0.000299173 0)
(0.0999476 -0.000277377 0)
(0.0999555 -0.000256778 0)
(0.0999631 -0.000237336 0)
(0.0999703 -0.000219009 0)
(0.0999771 -0.000201759 0)
(0.0999836 -0.000185545 0)
(0.0999896 -0.000170327 0)
(0.0999954 -0.000156066 0)
(0.100001 -0.000142725 0)
(0.100006 -0.000130266 0)
(0.10001 -0.000118651 0)
(0.100015 -0.000107843 0)
(0.100019 -9.78074e-05 0)
(0.100022 -8.85076e-05 0)
(0.100026 -7.99098e-05 0)
(0.100029 -7.19803e-05 0)
(0.100032 -6.46865e-05 0)
(0.100034 -5.79967e-05 0)
(0.100037 -5.18808e-05 0)
(0.100039 -4.63102e-05 0)
(0.100041 -4.12581e-05 0)
(0.100042 -3.66992e-05 0)
(0.100044 -3.261e-05 0)
(0.100045 -2.8968e-05 0)
(0.100046 -2.57536e-05 0)
(0.100047 -2.29476e-05 0)
(0.100048 -2.05353e-05 0)
(0.100049 -1.84991e-05 0)
(0.100049 -1.68365e-05 0)
(0.10005 -1.5522e-05 0)
(0.100051 -1.4593e-05 0)
(0.100051 -1.39662e-05 0)
(0.100052 -1.38161e-05 0)
(0.100053 -1.38248e-05 0)
(0.100052 -1.46318e-05 0)
(0.100055 -1.51275e-05 0)
(0.100053 -1.73584e-05 0)
(0.100059 -1.79353e-05 0)
(0.100052 -2.2578e-05 0)
(0.100067 -2.23882e-05 0)
(0.100049 -3.1118e-05 0)
(0.10008 -2.89653e-05 0)
(0.100045 -4.38322e-05 0)
(0.100099 -3.90318e-05 0)
(0.10004 -6.12433e-05 0)
(0.100123 -5.54606e-05 0)
(0.10004 -8.31783e-05 0)
(0.100157 -8.40914e-05 0)
(0.100046 -0.000105397 0)
(0.100209 -0.00013991 0)
(0.100084 -0.000123451 0)
(0.100232 -0.00019609 0)
(0.0997711 -0.000944021 0)
(0.0997806 -0.000894459 0)
(0.0997903 -0.000846651 0)
(0.0998003 -0.000800586 0)
(0.0998105 -0.000756249 0)
(0.0998208 -0.000713619 0)
(0.0998311 -0.000672674 0)
(0.0998415 -0.000633389 0)
(0.0998518 -0.000595735 0)
(0.099862 -0.000559683 0)
(0.0998722 -0.000525201 0)
(0.0998821 -0.000492257 0)
(0.0998919 -0.000460817 0)
(0.0999014 -0.000430846 0)
(0.0999108 -0.000402306 0)
(0.0999198 -0.00037516 0)
(0.0999285 -0.000349372 0)
(0.099937 -0.000324902 0)
(0.0999451 -0.000301711 0)
(0.0999529 -0.00027976 0)
(0.0999604 -0.00025901 0)
(0.0999676 -0.000239421 0)
(0.0999743 -0.000220951 0)
(0.0999808 -0.000203562 0)
(0.0999869 -0.000187214 0)
(0.0999926 -0.000171867 0)
(0.099998 -0.000157484 0)
(0.100003 -0.000144026 0)
(0.100008 -0.000131455 0)
(0.100012 -0.000119735 0)
(0.100016 -0.000108828 0)
(0.10002 -9.86985e-05 0)
(0.100024 -8.93113e-05 0)
(0.100027 -8.06319e-05 0)
(0.10003 -7.26265e-05 0)
(0.100032 -6.52624e-05 0)
(0.100035 -5.85077e-05 0)
(0.100037 -5.2332e-05 0)
(0.100039 -4.67067e-05 0)
(0.100041 -4.16049e-05 0)
(0.100042 -3.7001e-05 0)
(0.100044 -3.28716e-05 0)
(0.100045 -2.9194e-05 0)
(0.100046 -2.59485e-05 0)
(0.100047 -2.31156e-05 0)
(0.100048 -2.06806e-05 0)
(0.100048 -1.86256e-05 0)
(0.100049 -1.69483e-05 0)
(0.10005 -1.56226e-05 0)
(0.10005 -1.46872e-05 0)
(0.100051 -1.40563e-05 0)
(0.100051 -1.39096e-05 0)
(0.100052 -1.39194e-05 0)
(0.100052 -1.47445e-05 0)
(0.100054 -1.52405e-05 0)
(0.100052 -1.7518e-05 0)
(0.100058 -1.8078e-05 0)
(0.100051 -2.28277e-05 0)
(0.100066 -2.25667e-05 0)
(0.100048 -3.15243e-05 0)
(0.100078 -2.91851e-05 0)
(0.100043 -4.4492e-05 0)
(0.100097 -3.931e-05 0)
(0.100039 -6.23133e-05 0)
(0.100122 -5.57954e-05 0)
(0.100038 -8.50557e-05 0)
(0.100155 -8.43228e-05 0)
(0.100041 -0.000108674 0)
(0.100209 -0.000141775 0)
(0.100077 -0.000124832 0)
(0.100229 -0.000204286 0)
(0.0997921 -0.000947816 0)
(0.0998003 -0.000898341 0)
(0.0998089 -0.000850586 0)
(0.0998178 -0.000804541 0)
(0.0998269 -0.000760196 0)
(0.0998361 -0.000717534 0)
(0.0998455 -0.000676536 0)
(0.0998549 -0.000637178 0)
(0.0998643 -0.000599435 0)
(0.0998737 -0.000563281 0)
(0.099883 -0.000528686 0)
(0.0998922 -0.000495619 0)
(0.0999013 -0.000464049 0)