/*--------------------------------*- C++ -*----------------------------------*\
| =========                 |                                                 |
| \\      /  F ield         | OpenFOAM: The Open Source CFD Toolbox           |
|  \\    /   O peration     | Version:  2412                                  |
|   \\  /    A nd           | Website:  www.openfoam.com                      |
|    \\/     M anipulation  |                                                 |
\*---------------------------------------------------------------------------*/
FoamFile
{
    version     2.0;
    format      ascii;
    arch        "LSB;label=32;scalar=64";
    class       volScalarField;
    location    "2";
    object      p;
}
// * * * * * * * * * * * * * * * * * * * * * * * * * * * * * * * * * * * * * //

dimensions      [0 2 -2 0 0 0 0];

internalField   nonuniform List<scalar> 
63420
(
0.00111692
0.00225137
0.00105758
0.00176342
0.00153906
0.00152802
0.00155952
0.00155537
0.00155565
0.00155907
0.00156242
0.00156623
0.00157063
0.00157556
0.001581
0.00158694
0.00159337
0.00160028
0.00160767
0.00161553
0.00162386
0.00163266
0.00164192
0.00165163
0.00166181
0.00167244
0.00168353
0.00169508
0.00170709
0.00171955
0.00173248
0.00174587
0.00175972
0.00177404
0.00178883
0.0018041
0.00181984
0.00183606
0.00185277
0.00186996
0.00188765
0.00190583
0.00192452
0.0019437
0.0019634
0.00198362
0.00200435
0.00202561
0.0020474
0.00206972
0.00209258
0.00211598
0.00213993
0.00216443
0.0021895
0.00111634
0.00225121
0.00105764
0.0017629
0.00153923
0.00152785
0.00155938
0.00155527
0.00155554
0.00155896
0.00156231
0.00156612
0.00157052
0.00157544
0.00158088
0.00158681
0.00159323
0.00160014
0.00160752
0.00161538
0.0016237
0.00163249
0.00164173
0.00165144
0.00166161
0.00167223
0.00168331
0.00169484
0.00170683
0.00171929
0.0017322
0.00174557
0.00175941
0.00177371
0.00178848
0.00180373
0.00181945
0.00183565
0.00185233
0.0018695
0.00188715
0.00190531
0.00192396
0.00194312
0.00196278
0.00198296
0.00200365
0.00202487
0.00204661
0.00206889
0.0020917
0.00211505
0.00213894
0.00216338
0.00218838
0.00111515
0.0022509
0.00105776
0.00176184
0.00153959
0.0015275
0.00155909
0.00155508
0.00155533
0.00155874
0.00156209
0.00156589
0.00157029
0.0015752
0.00158062
0.00158655
0.00159296
0.00159985
0.00160722
0.00161506
0.00162337
0.00163214
0.00164137
0.00165106
0.0016612
0.0016718
0.00168286
0.00169437
0.00170633
0.00171876
0.00173164
0.00174498
0.00175878
0.00177305
0.00178778
0.00180299
0.00181866
0.00183482
0.00185145
0.00186856
0.00188617
0.00190426
0.00192285
0.00194195
0.00196154
0.00198164
0.00200226
0.00202339
0.00204505
0.00206723
0.00208994
0.00211319
0.00213697
0.00216129
0.00218616
0.00111325
0.00225058
0.00105794
0.00176026
0.00154016
0.00152695
0.00155865
0.00155481
0.00155501
0.00155841
0.00156176
0.00156556
0.00156994
0.00157484
0.00158025
0.00158615
0.00159255
0.00159942
0.00160677
0.00161459
0.00162288
0.00163162
0.00164082
0.00165048
0.0016606
0.00167116
0.00168218
0.00169366
0.00170558
0.00171796
0.0017308
0.00174409
0.00175784
0.00177206
0.00178673
0.00180187
0.00181749
0.00183357
0.00185013
0.00186717
0.00188469
0.0019027
0.0019212
0.00194019
0.00195968
0.00197968
0.00200018
0.00202119
0.00204271
0.00206476
0.00208732
0.00211041
0.00213402
0.00215817
0.00218284
0.00111051
0.00225055
0.00105804
0.00175823
0.00154099
0.00152617
0.00155808
0.00155444
0.00155459
0.00155798
0.00156133
0.00156511
0.00156947
0.00157436
0.00157975
0.00158563
0.00159201
0.00159886
0.00160618
0.00161397
0.00162222
0.00163093
0.0016401
0.00164972
0.00165979
0.00167031
0.00168129
0.00169271
0.00170458
0.00171691
0.00172968
0.00174291
0.0017566
0.00177074
0.00178534
0.0018004
0.00181592
0.00183192
0.00184838
0.00186532
0.00188273
0.00190062
0.001919
0.00193786
0.00195722
0.00197707
0.00199741
0.00201826
0.00203961
0.00206147
0.00208385
0.00210673
0.00213012
0.00215404
0.00217845
0.00110696
0.00225084
0.00105804
0.0017556
0.0015422
0.0015251
0.00155736
0.00155401
0.00155406
0.00155743
0.00156078
0.00156455
0.00156889
0.00157376
0.00157912
0.00158498
0.00159133
0.00159815
0.00160544
0.00161319
0.0016214
0.00163007
0.00163919
0.00164877
0.00165879
0.00166925
0.00168017
0.00169153
0.00170334
0.00171559
0.00172829
0.00174144
0.00175504
0.00176909
0.0017836
0.00179856
0.00181398
0.00182986
0.0018462
0.00186301
0.00188028
0.00189803
0.00191626
0.00193496
0.00195415
0.00197382
0.00199397
0.00201462
0.00203576
0.00205739
0.00207953
0.00210216
0.00212529
0.00214891
0.00217302
0.00110372
0.00224947
0.00105986
0.00175103
0.00154421
0.00152378
0.00155643
0.00155351
0.00155343
0.00155678
0.00156013
0.00156387
0.0015682
0.00157304
0.00157838
0.0015842
0.00159051
0.0015973
0.00160454
0.00161225
0.00162042
0.00162904
0.00163811
0.00164762
0.00165758
0.00166799
0.00167883
0.00169012
0.00170185
0.00171401
0.00172663
0.00173968
0.00175318
0.00176712
0.00178152
0.00179636
0.00181165
0.00182739
0.00184359
0.00186025
0.00187737
0.00189495
0.00191299
0.0019315
0.00195048
0.00196994
0.00198987
0.00201028
0.00203117
0.00205253
0.00207438
0.00209672
0.00211953
0.00214283
0.00216659
0.0022152
0.00224181
0.00226956
0.00229849
0.00232865
0.00236013
0.002393
0.0024274
0.00246345
0.00250129
0.00254104
0.00258281
0.0026268
0.00267319
0.00272199
0.00277342
0.00282771
0.00288505
0.00294568
0.00300988
0.00307792
0.00315013
0.00322686
0.00330853
0.00339556
0.00348847
0.00358779
0.00369416
0.00380827
0.00393092
0.00406298
0.00420549
0.00435959
0.00452658
0.00470795
0.0049054
0.00512082
0.00535639
0.00561449
0.00589769
0.00620867
0.00654988
0.00692304
0.00732813
0.00776197
0.00821582
0.00867102
0.00911281
0.00961703
0.010319
0.00221405
0.00224067
0.00226842
0.00229736
0.00232754
0.00235904
0.00239193
0.00242635
0.00246241
0.00250024
0.00253992
0.00258157
0.00262586
0.00267219
0.00272095
0.00277237
0.00282664
0.00288396
0.00294456
0.00300872
0.00307672
0.00314888
0.00322555
0.00330713
0.00339405
0.00348682
0.00358596
0.00369211
0.00380593
0.0039282
0.0040598
0.0042017
0.00435502
0.00452101
0.00470109
0.00489683
0.00511004
0.00534268
0.00559689
0.00587493
0.006179
0.00651094
0.00687158
0.00725972
0.00767042
0.00809263
0.00850565
0.00889277
0.00932394
0.00992623
0.00221176
0.00223838
0.00226615
0.00229511
0.00232532
0.00235686
0.0023898
0.00242424
0.0024603
0.0024981
0.00253768
0.00258005
0.00262392
0.00267012
0.00271887
0.00277027
0.0028245
0.00288178
0.00294234
0.00300644
0.00307435
0.00314641
0.00322295
0.00330436
0.00339108
0.00348357
0.00358238
0.00368808
0.00380134
0.0039229
0.00405358
0.0041943
0.00434611
0.00451013
0.00468766
0.00488008
0.00508892
0.0053158
0.00556238
0.00583022
0.0061206
0.00643408
0.00676973
0.00712384
0.00748791
0.00784619
0.00817409
0.00845152
0.00873116
0.00915312
0.00220834
0.00223497
0.00226273
0.00229169
0.00232196
0.00235355
0.00238654
0.00242101
0.00245705
0.00249504
0.00253531
0.0025769
0.00262072
0.00266696
0.0027157
0.00276706
0.00282125
0.00287847
0.00293895
0.00300295
0.00307075
0.00314265
0.00321899
0.00330015
0.00338655
0.00347863
0.00357691
0.00368195
0.00379436
0.00391483
0.00404413
0.00418308
0.0043326
0.00449367
0.00466738
0.00485482
0.00505714
0.00527544
0.00551063
0.00576332
0.00603339
0.0063195
0.00661805
0.00692155
0.00721606
0.00747843
0.00767812
0.0077955
0.00786463
0.00797398
0.00220381
0.00223044
0.00225822
0.00228723
0.00231747
0.00234908
0.00238213
0.00241678
0.00245315
0.00249118
0.00253092
0.00257264
0.00261659
0.00266286
0.00271158
0.00276293
0.00281708
0.00287424
0.00293465
0.00299856
0.00306622
0.00313795
0.00321406
0.00329492
0.00338092
0.0034725
0.00357012
0.0036743
0.00378562
0.00390468
0.00403217
0.0041688
0.00431531
0.0044725
0.00464114
0.00482197
0.00501561
0.00522245
0.00544246
0.0056749
0.00591785
0.00616742
0.00641648
0.0066525
0.00685437
0.00698894
0.00701649
0.00692005
0.00672631
0.00636314
0.00219819
0.00222481
0.00225258
0.00228159
0.00231192
0.00234366
0.00237688
0.00241163
0.00244801
0.00248609
0.00252602
0.00256796
0.00261205
0.00265842
0.00270724
0.00275868
0.00281292
0.00287019
0.00293069
0.00299468
0.00306241
0.00313419
0.00321033
0.00329116
0.00337708
0.00346847
0.00356578
0.0036695
0.00378015
0.00389827
0.00402444
0.00415925
0.00430327
0.00445707
0.00462109
0.00479564
0.0049807
0.00517575
0.00537948
0.00558924
0.00580031
0.00600463
0.00618888
0.0063317
0.00640007
0.00634635
0.00611879
0.00570099
0.00512347
0.00413731
0.00219152
0.00221806
0.00224575
0.00227466
0.00230491
0.00233659
0.00236981
0.00240462
0.00244107
0.00247924
0.00251924
0.00256122
0.00260531
0.00265168
0.00270048
0.00275191
0.00280614
0.00286338
0.00292385
0.00298779
0.00305546
0.00312715
0.00320317
0.00328384
0.00336952
0.00346059
0.00355745
0.00366056
0.0037704
0.00388744
0.00401216
0.00414504
0.00428646
0.00443676
0.00459605
0.00476418
0.00494048
0.00512345
0.00531032
0.00549615
0.00567257
0.00582557
0.00593245
0.005958
0.00585152
0.00554755
0.00498162
0.00415038
0.00305152
0.00132639
-0.00332944
-0.00325965
-0.00305336
-0.00272964
-0.00233153
-0.00191159
-0.00152002
-0.0011904
-0.000935273
-0.00075099
-0.000625464
-0.000544429
-0.000494935
-0.000466672
-0.000452049
-0.000445767
-0.000444261
-0.00044521
-0.000447145
-0.000449172
-0.000450771
-0.000451662
-0.000451723
-0.000450925
-0.000449288
-0.000446865
-0.000443729
-0.000439956
-0.000435623
-0.000430804
-0.000425571
-0.000419986
-0.000414109
-0.000407993
-0.000401683
-0.000395221
-0.000388644
-0.000381984
-0.000375268
-0.000368522
-0.000361767
-0.000355021
-0.0003483
-0.00034162
-0.00033499
-0.000328424
-0.00032193
-0.000315519
-0.0003092
-0.000302985
-0.00356753
-0.00342427
-0.00318388
-0.00284859
-0.00244339
-0.00201636
-0.00161574
-0.00127514
-0.00100823
-0.000812515
-0.000676634
-0.000586632
-0.000529599
-0.000495114
-0.000475415
-0.000465017
-0.000460183
-0.000458438
-0.00045819
-0.00045844
-0.000458586
-0.000458284
-0.000457359
-0.000455743
-0.000453424
-0.000450429
-0.000446808
-0.000442625
-0.000437941
-0.000432822
-0.000427329
-0.00042152
-0.000415448
-0.00040916
-0.0004027
-0.000396106
-0.000389411
-0.000382647
-0.000375838
-0.000369008
-0.000362178
-0.000355364
-0.000348582
-0.000341846
-0.000335167
-0.000328556
-0.000322022
-0.000315575
-0.000309225
-0.000302985
-0.00402135
-0.00371576
-0.00342865
-0.00307038
-0.00265197
-0.00221344
-0.00179782
-0.0014381
-0.0011499
-0.000932952
-0.000777436
-0.00067018
-0.000598485
-0.000551802
-0.00052209
-0.000503532
-0.00049207
-0.000484948
-0.000480329
-0.000477018
-0.000474248
-0.000471549
-0.000468643
-0.000465381
-0.000461691
-0.000457546
-0.000452955
-0.000447947
-0.00044256
-0.000436838
-0.000430827
-0.000424569
-0.000418106
-0.000411477
-0.000404718
-0.000397859
-0.000390931
-0.000383958
-0.000376964
-0.000369968
-0.000362989
-0.000356041
-0.000349138
-0.000342293
-0.000335515
-0.000328815
-0.000322202
-0.000315685
-0.000309274
-0.000302982
-0.00459106
-0.00412923
-0.0037649
-0.00337074
-0.00293441
-0.00248232
-0.00204924
-0.00166616
-0.00135057
-0.00110514
-0.000922522
-0.000790981
-0.000698392
-0.000634196
-0.000590037
-0.000559668
-0.000538593
-0.000523654
-0.000512674
-0.00050417
-0.000497149
-0.00049095
-0.000485151
-0.000479484
-0.000473785
-0.000467955
-0.000461944
-0.00045573
-0.000449313
-0.000442709
-0.000435938
-0.000429022
-0.000421988
-0.00041486
-0.000407662
-0.000400417
-0.000393147
-0.00038587
-0.000378605
-0.000371366
-0.000364169
-0.000357025
-0.000349945
-0.00034294
-0.000336018
-0.000329189
-0.000322459
-0.000315838
-0.000309336
-0.000302967
-0.00524305
-0.00462641
-0.00416121
-0.00371512
-0.00325487
-0.00279012
-0.00234344
-0.00194038
-0.00159844
-0.00132288
-0.00110942
-0.000948734
-0.00083008
-0.000743435
-0.000680413
-0.000634438
-0.000600566
-0.00057518
-0.000555682
-0.000540228
-0.00052752
-0.000516652
-0.000506998
-0.000498133
-0.000489768
-0.000481706
-0.000473813
-0.000466005
-0.00045823
-0.000450461
-0.000442687
-0.000434903
-0.000427114
-0.000419327
-0.000411549
-0.000403793
-0.00039607
-0.000388392
-0.000380767
-0.000373208
-0.000365722
-0.000358318
-0.000351004
-0.000343786
-0.000336673
-0.00032967
-0.000322784
-0.000316024
-0.000309399
-0.000302923
-0.00564981
-0.00503652
-0.00451253
-0.004027
-0.00355565
-0.00309545
-0.0026551
-0.00225138
-0.00189831
-0.00160188
-0.00136088
-0.00116953
-0.00102008
-0.000904553
-0.000815688
-0.00074733
-0.000694502
-0.000653299
-0.000620729
-0.00059453
-0.000573011
-0.000554915
-0.000539321
-0.000525553
-0.000513121
-0.000501672
-0.000490946
-0.000480754
-0.000470962
-0.000461477
-0.000452232
-0.000443183
-0.000434298
-0.000425558
-0.000416948
-0.000408461
-0.000400096
-0.000391849
-0.00038372
-0.000375711
-0.000367824
-0.00036006
-0.000352422
-0.000344913
-0.000337538
-0.000330298
-0.0003232
-0.00031625
-0.000309456
-0.000302832
-0.00571235
-0.00539904
-0.00492118
-0.00440719
-0.00391202
-0.00343881
-0.00299034
-0.00257804
-0.00221205
-0.00189679
-0.0016317
-0.00141275
-0.00123425
-0.00109009
-0.000974397
-0.000881835
-0.000807783
-0.000748354
-0.000700361
-0.000661241
-0.000628967
-0.000601951
-0.000578963
-0.00055906
-0.000541526
-0.000525818
-0.000511527
-0.000498342
-0.000486027
-0.000474405
-0.00046334
-0.000452732
-0.000442507
-0.00043261
-0.000422998
-0.000413641
-0.000404517
-0.000395607
-0.000386896
-0.000378374
-0.000370033
-0.000361868
-0.000353874
-0.000346048
-0.000338389
-0.000330896
-0.000323569
-0.000316415
-0.000309437
-0.000302643
-0.000296872
-0.000290789
-0.000284688
-0.000278572
-0.000272439
-0.000266284
-0.000260102
-0.000253901
-0.000247692
-0.000241489
-0.0002353
-0.000229135
-0.000223001
-0.000216906
-0.000210854
-0.000204851
-0.000198901
-0.000193008
-0.000187175
-0.000181406
-0.000175704
-0.000170073
-0.000164515
-0.000159034
-0.000153633
-0.000148313
-0.000143077
-0.000137927
-0.000132867
-0.000127897
-0.00012302
-0.000118237
-0.00011355
-0.00010896
-0.000104469
-0.000100078
-9.57875e-05
-9.1599e-05
-8.75131e-05
-8.35304e-05
-7.96512e-05
-7.58763e-05
-7.22054e-05
-6.86389e-05
-6.51772e-05
-6.18192e-05
-5.85655e-05
-5.54151e-05
-5.23676e-05
-4.94226e-05
-4.65791e-05
-4.38364e-05
-4.11934e-05
-3.8649e-05
-3.62021e-05
-3.38513e-05
-3.15954e-05
-2.94328e-05
-2.73618e-05
-2.53809e-05
-2.34883e-05
-2.16822e-05
-1.99605e-05
-1.83215e-05
-1.67629e-05
-1.52828e-05
-1.38789e-05
-1.25493e-05
-1.12914e-05
-1.01032e-05
-8.98182e-06
-7.92558e-06
-6.9315e-06
-5.99763e-06
-5.12096e-06
-4.30015e-06
-3.53086e-06
-2.81302e-06
-2.14155e-06
-1.51648e-06
-9.3359e-07
-3.9185e-07
1.12897e-07
5.80228e-07
1.01715e-06
1.42081e-06
1.79753e-06
2.1492e-06
2.47561e-06
2.78352e-06
3.0718e-06
3.34443e-06
3.60576e-06
3.85493e-06
4.09871e-06
4.33788e-06
4.57608e-06
4.81855e-06
5.0676e-06
5.32791e-06
5.60644e-06
5.90189e-06
6.24279e-06
6.54292e-06
7.17966e-06
6.79532e-06
1.0003e-05
2.73611e-06
2.33751e-05
-1.93805e-05
5.80272e-05
-3.99921e-05
2.74273e-05
7.9899e-05
-0.000118606
-0.000296866
-0.000290772
-0.000284657
-0.000278528
-0.000272382
-0.000266213
-0.000260021
-0.000253811
-0.000247597
-0.000241391
-0.000235202
-0.000229038
-0.000222906
-0.000216813
-0.000210763
-0.000204762
-0.000198814
-0.000192922
-0.000187091
-0.000181325
-0.000175625
-0.000169996
-0.000164441
-0.000158962
-0.000153563
-0.000148245
-0.000143011
-0.000137864
-0.000132806
-0.000127838
-0.000122963
-0.000118182
-0.000113497
-0.00010891
-0.000104421
-0.000100032
-9.57433e-05
-9.15568e-05
-8.74728e-05
-8.34919e-05
-7.96145e-05
-7.58414e-05
-7.21722e-05
-6.86073e-05
-6.51472e-05
-6.17908e-05
-5.85386e-05
-5.53896e-05
-5.23435e-05
-4.93998e-05
-4.65575e-05
-4.3816e-05
-4.11742e-05
-3.86309e-05
-3.61851e-05
-3.38354e-05
-3.15805e-05
-2.94187e-05
-2.73486e-05
-2.53686e-05
-2.34768e-05
-2.16714e-05
-1.99505e-05
-1.83122e-05
-1.67543e-05
-1.52747e-05
-1.38715e-05
-1.25425e-05
-1.1285e-05
-1.00973e-05
-8.97633e-06
-7.92061e-06
-6.92684e-06
-5.99343e-06
-5.11706e-06
-4.29658e-06
-3.52765e-06
-2.81002e-06
-2.1389e-06
-1.51404e-06
-9.31392e-07
-3.89926e-07
1.1468e-07
5.81824e-07
1.01853e-06
1.4221e-06
1.79863e-06
2.15018e-06
2.47648e-06
2.78421e-06
3.07252e-06
3.3448e-06
3.60636e-06
3.85512e-06
4.09896e-06
4.33806e-06
4.57615e-06
4.81839e-06
5.06762e-06
5.32768e-06
5.60605e-06
5.90156e-06
6.24223e-06
6.54252e-06
7.17856e-06
6.79539e-06
1.00003e-05
2.73995e-06
2.33674e-05
-1.93745e-05
5.80279e-05
-4.0009e-05
2.74483e-05
7.99026e-05
-0.000118642
-0.000296849
-0.000290728
-0.000284586
-0.000278432
-0.00027226
-0.000266067
-0.000259853
-0.000253628
-0.000247406
-0.000241197
-0.000235007
-0.000228845
-0.000222716
-0.000216627
-0.000210581
-0.000204584
-0.000198639
-0.000192752
-0.000186925
-0.000181163
-0.000175467
-0.000169843
-0.000164292
-0.000158818
-0.000153422
-0.000148109
-0.00014288
-0.000137738
-0.000132684
-0.00012772
-0.00012285
-0.000118073
-0.000113393
-0.000108809
-0.000104324
-9.99393e-05
-9.5655e-05
-9.14724e-05
-8.73921e-05
-8.3415e-05
-7.95412e-05
-7.57715e-05
-7.21057e-05
-6.85442e-05
-6.50872e-05
-6.17339e-05
-5.84846e-05
-5.53385e-05
-5.22951e-05
-4.93541e-05
-4.65144e-05
-4.37753e-05
-4.11358e-05
-3.85948e-05
-3.61511e-05
-3.38035e-05
-3.15505e-05
-2.93906e-05
-2.73223e-05
-2.5344e-05
-2.34538e-05
-2.16499e-05
-1.99305e-05
-1.82935e-05
-1.67369e-05
-1.52587e-05
-1.38566e-05
-1.25287e-05
-1.12722e-05
-1.00855e-05
-8.96544e-06
-7.91057e-06
-6.91762e-06
-5.98495e-06
-5.10931e-06
-4.28944e-06
-3.52122e-06
-2.80403e-06
-2.13361e-06
-1.50919e-06
-9.27008e-07
-3.86018e-07
1.18216e-07
5.85037e-07
1.02131e-06
1.42467e-06
1.80086e-06
2.15214e-06
2.47815e-06
2.78571e-06
3.07369e-06
3.3459e-06
3.6071e-06
3.85578e-06
4.09941e-06
4.33824e-06
4.57635e-06
4.81823e-06
5.0674e-06
5.32723e-06
5.60537e-06
5.90085e-06
6.24108e-06
6.54163e-06
7.17659e-06
6.79565e-06
9.99448e-06
2.74689e-06
2.33518e-05
-1.93629e-05
5.80292e-05
-4.00431e-05
2.74904e-05
7.99097e-05
-0.000118713
-0.000296804
-0.00029064
-0.000284457
-0.000278267
-0.000272059
-0.000265833
-0.000259593
-0.000253349
-0.000247117
-0.000240904
-0.000234715
-0.000228556
-0.000222432
-0.000216348
-0.000210307
-0.000204316
-0.000198378
-0.000192497
-0.000186676
-0.00018092
-0.000175231
-0.000169613
-0.000164068
-0.000158601
-0.000153212
-0.000147906
-0.000142683
-0.000137548
-0.0001325
-0.000127544
-0.00012268
-0.00011791
-0.000113236
-0.000108659
-0.00010418
-9.98009e-05
-9.55226e-05
-9.13458e-05
-8.72712e-05
-8.32996e-05
-7.94312e-05
-7.56668e-05
-7.20061e-05
-6.84495e-05
-6.49973e-05
-6.16485e-05
-5.84037e-05
-5.52618e-05
-5.22226e-05
-4.92856e-05
-4.64497e-05
-4.37142e-05
-4.10783e-05
-3.85406e-05
-3.61002e-05
-3.37556e-05
-3.15056e-05
-2.93485e-05
-2.72829e-05
-2.53071e-05
-2.34193e-05
-2.16177e-05
-1.99005e-05
-1.82656e-05
-1.6711e-05
-1.52345e-05
-1.38342e-05
-1.25079e-05
-1.1253e-05
-1.00678e-05
-8.94911e-06
-7.89551e-06
-6.9038e-06
-5.97223e-06
-5.09769e-06
-4.27875e-06
-3.51157e-06
-2.7951e-06
-2.12565e-06
-1.50191e-06
-9.20444e-07
-3.80122e-07
1.23515e-07
5.89848e-07
1.0255e-06
1.4285e-06
1.80418e-06
2.15506e-06
2.48066e-06
2.78792e-06
3.07547e-06
3.34749e-06
3.60824e-06
3.85674e-06
4.10007e-06
4.33855e-06
4.57658e-06
4.81802e-06
5.06704e-06
5.32657e-06
5.60437e-06
5.89975e-06
6.23943e-06
6.54025e-06
7.17368e-06
6.79597e-06
9.98582e-06
2.75724e-06
2.33285e-05
-1.93458e-05
5.80321e-05
-4.00957e-05
2.75545e-05
7.9921e-05
-0.000118823
-0.000296695
-0.000290477
-0.000284245
-0.000278011
-0.000271761
-0.000265499
-0.000259232
-0.00025297
-0.000246728
-0.000240513
-0.000234326
-0.000228172
-0.000222054
-0.000215976
-0.000209944
-0.00020396
-0.000198029
-0.000192156
-0.000186344
-0.000180596
-0.000174915
-0.000169306
-0.00016377
-0.000158312
-0.000152932
-0.000147635
-0.000142421
-0.000137294
-0.000132256
-0.000127308
-0.000122453
-0.000117692
-0.000113026
-0.000108458
-0.000103987
-9.96165e-05
-9.53461e-05
-9.11771e-05
-8.71101e-05
-8.31459e-05
-7.92846e-05
-7.55273e-05
-7.18733e-05
-6.83233e-05
-6.48774e-05
-6.15348e-05
-5.82959e-05
-5.51597e-05
-5.2126e-05
-4.91942e-05
-4.63634e-05
-4.36329e-05
-4.10016e-05
-3.84684e-05
-3.60322e-05
-3.36918e-05
-3.14457e-05
-2.92924e-05
-2.72303e-05
-2.52579e-05
-2.33733e-05
-2.15748e-05
-1.98605e-05
-1.82283e-05
-1.66763e-05
-1.52024e-05
-1.38044e-05
-1.24803e-05
-1.12275e-05
-1.00442e-05
-8.92735e-06
-7.87545e-06
-6.88538e-06
-5.95528e-06
-5.08222e-06
-4.26451e-06
-3.4987e-06
-2.78323e-06
-2.11502e-06
-1.49221e-06
-9.11699e-07
-3.72243e-07
1.30576e-07
5.96252e-07
1.03109e-06
1.43359e-06
1.80861e-06
2.15895e-06
2.48401e-06
2.79083e-06
3.07787e-06
3.34958e-06
3.60979e-06
3.858e-06
4.10095e-06
4.33898e-06
4.57685e-06
4.81776e-06
5.06654e-06
5.32569e-06
5.60306e-06
5.89827e-06
6.23726e-06
6.53838e-06
7.16984e-06
6.79635e-06
9.97439e-06
2.77075e-06
2.32983e-05
-1.93251e-05
5.80396e-05
-4.01707e-05
2.76425e-05
7.994e-05
-0.000118978
-0.000296487
-0.00029021
-0.000283928
-0.000277645
-0.000271352
-0.000265055
-0.000258763
-0.000252487
-0.000246239
-0.000240024
-0.000233842
-0.000227693
-0.000221583
-0.000215514
-0.00020949
-0.000203515
-0.000197594
-0.000191731
-0.000185928
-0.000180191
-0.000174521
-0.000168923
-0.000163398
-0.00015795
-0.000152582
-0.000147296
-0.000142094
-0.000136978
-0.000131951
-0.000127014
-0.00012217
-0.00011742
-0.000112765
-0.000108207
-0.000103747
-9.93861e-05
-9.51256e-05
-9.09663e-05
-8.69088e-05
-8.29538e-05
-7.91016e-05
-7.53529e-05
-7.17075e-05
-6.81656e-05
-6.47277e-05
-6.13927e-05
-5.81612e-05
-5.50322e-05
-5.20053e-05
-4.90802e-05
-4.62557e-05
-4.35312e-05
-4.09058e-05
-3.83782e-05
-3.59474e-05
-3.36121e-05
-3.13709e-05
-2.92222e-05
-2.71646e-05
-2.51964e-05
-2.33159e-05
-2.15212e-05
-1.98105e-05
-1.81818e-05
-1.66331e-05
-1.51622e-05
-1.37672e-05
-1.24458e-05
-1.11956e-05
-1.00147e-05
-8.90017e-06
-7.85038e-06
-6.86237e-06
-5.93412e-06
-5.0629e-06
-4.24675e-06
-3.4826e-06
-2.76845e-06
-2.10171e-06
-1.48008e-06
-9.00777e-07
-3.62388e-07
1.39397e-07
6.04244e-07
1.03809e-06
1.43993e-06
1.81413e-06
2.1638e-06
2.48821e-06
2.79445e-06
3.08088e-06
3.35216e-06
3.61175e-06
3.85955e-06
4.10205e-06
4.33952e-06
4.57715e-06
4.81744e-06
5.06591e-06
5.3246e-06
5.60144e-06
5.8964e-06
6.2346e-06
6.53604e-06
7.16506e-06
6.79682e-06
9.96005e-06
2.78773e-06
2.32605e-05
-1.92993e-05
5.80502e-05
-4.02668e-05
2.77548e-05
7.9965e-05
-0.000119172
-0.000296149
-0.000289821
-0.000283494
-0.000277164
-0.000270831
-0.000264505
-0.000258194
-0.000251907
-0.000245655
-0.000239442
-0.000233264
-0.000227123
-0.00022102
-0.00021496
-0.000208946
-0.000202982
-0.000197073
-0.000191221
-0.000185431
-0.000179705
-0.000174048
-0.000168463
-0.000162951
-0.000157517
-0.000152162
-0.000146889
-0.000141701
-0.000136598
-0.000131585
-0.000126662
-0.00012183
-0.000117093
-0.000112451
-0.000107906
-0.000103458
-9.91098e-05
-9.48613e-05
-9.07136e-05
-8.66674e-05
-8.27236e-05
-7.88821e-05
-7.51439e-05
-7.15086e-05
-6.79766e-05
-6.45482e-05
-6.12224e-05
-5.79997e-05
-5.48793e-05
-5.18607e-05
-4.89434e-05
-4.61266e-05
-4.34094e-05
-4.07909e-05
-3.82701e-05
-3.58457e-05
-3.35166e-05
-3.12812e-05
-2.91381e-05
-2.70859e-05
-2.51227e-05
-2.3247e-05
-2.14569e-05
-1.97506e-05
-1.8126e-05
-1.65812e-05
-1.51141e-05
-1.37225e-05
-1.24044e-05
-1.11573e-05
-9.97931e-06
-8.86758e-06
-7.82033e-06
-6.83479e-06
-5.90875e-06
-5.03973e-06
-4.22546e-06
-3.46329e-06
-2.75074e-06
-2.08575e-06
-1.46555e-06
-8.87679e-07
-3.50562e-07
1.49977e-07
6.13819e-07
1.04649e-06
1.44752e-06
1.82075e-06
2.16961e-06
2.49325e-06
2.79878e-06
3.08449e-06
3.35523e-06
3.6141e-06
3.8614e-06
4.10337e-06
4.34019e-06
4.57749e-06
4.81708e-06
5.06514e-06
5.32329e-06
5.5995e-06
5.89414e-06
6.23141e-06
6.53324e-06
7.1592e-06
6.7978e-06
9.94149e-06
2.81183e-06
2.32063e-05
-1.92509e-05
5.80359e-05
-4.03539e-05
2.78822e-05
7.99642e-05
-0.000119336
-0.000295661
-0.000289293
-0.000282932
-0.000276567
-0.000270205
-0.000263859
-0.000257536
-0.000251239
-0.000244982
-0.000238765
-0.000232589
-0.000226451
-0.000220355
-0.000214304
-0.0002083
-0.000202348
-0.000196451
-0.000190612
-0.000184836
-0.000179126
-0.000173484
-0.000167914
-0.000162418
-0.000156999
-0.000151661
-0.000146404
-0.000141231
-0.000136145
-0.000131148
-0.00012624
-0.000121425
-0.000116704
-0.000112077
-0.000107547
-0.000103114
-9.878e-05
-9.45458e-05
-9.0412e-05
-8.63794e-05
-8.24487e-05
-7.86202e-05
-7.48945e-05
-7.12713e-05
-6.7751e-05
-6.43339e-05
-6.10191e-05
-5.7807e-05
-5.46968e-05
-5.1688e-05
-4.87801e-05
-4.59724e-05
-4.3264e-05
-4.06539e-05
-3.8141e-05
-3.57243e-05
-3.34025e-05
-3.11741e-05
-2.90378e-05
-2.69918e-05
-2.50348e-05
-2.31649e-05
-2.13802e-05
-1.96791e-05
-1.80595e-05
-1.65194e-05
-1.50566e-05
-1.36692e-05
-1.2355e-05
-1.11116e-05
-9.93709e-06
-8.82868e-06
-7.78447e-06
-6.80186e-06
-5.87848e-06
-5.01206e-06
-4.20006e-06
-3.44023e-06
-2.72963e-06
-2.06667e-06
-1.4482e-06
-8.72043e-07
-3.36439e-07
1.62609e-07
6.2524e-07
1.05653e-06
1.45657e-06
1.82865e-06
2.17655e-06
2.49927e-06
2.80394e-06
3.08881e-06
3.35887e-06
3.61692e-06
3.86359e-06
4.10494e-06
4.341e-06
4.57787e-06
4.81665e-06
5.06421e-06
5.32172e-06
5.59719e-06
5.89143e-06
6.22761e-06
6.52991e-06
7.15203e-06
6.79956e-06
9.91727e-06
2.84652e-06
2.31264e-05
-1.91614e-05
5.79653e-05
-4.03995e-05
2.80132e-05
7.99018e-05
-0.000119397
-0.000295067
-0.000288648
-0.000282243
-0.000275836
-0.00026944
-0.000263073
-0.000256737
-0.000250434
-0.000244174
-0.000237959
-0.000231787
-0.000225657
-0.00021957
-0.00021353
-0.000207539
-0.0002016
-0.000195718
-0.000189896
-0.000184137
-0.000178443
-0.000172819
-0.000167268
-0.00016179
-0.000156391
-0.000151071
-0.000145833
-0.00014068
-0.000135613
-0.000130634
-0.000125746
-0.000120949
-0.000116246
-0.000111637
-0.000107125
-0.000102709
-9.83926e-05
-9.41751e-05
-9.00577e-05
-8.6041e-05
-8.21259e-05
-7.83125e-05
-7.46015e-05
-7.09925e-05
-6.74859e-05
-6.40822e-05
-6.07803e-05
-5.75806e-05
-5.44823e-05
-5.14851e-05
-4.85884e-05
-4.57913e-05
-4.30931e-05
-4.04928e-05
-3.79894e-05
-3.55817e-05
-3.32685e-05
-3.10484e-05
-2.89198e-05
-2.68814e-05
-2.49314e-05
-2.30683e-05
-2.12901e-05
-1.95951e-05
-1.79812e-05
-1.64466e-05
-1.49891e-05
-1.36066e-05
-1.2297e-05
-1.1058e-05
-9.88749e-06
-8.78298e-06
-7.74233e-06
-6.76317e-06
-5.84292e-06
-4.97956e-06
-4.17025e-06
-3.41312e-06
-2.70485e-06
-2.04425e-06
-1.42783e-06
-8.53667e-07
-3.19844e-07
1.7746e-07
6.38645e-07
1.06835e-06
1.46718e-06
1.83794e-06
2.1847e-06
2.50633e-06
2.81e-06
3.09389e-06
3.36314e-06
3.62025e-06
3.86615e-06
4.10678e-06
4.34195e-06
4.57829e-06
4.81616e-06
5.0631e-06
5.31987e-06
5.59448e-06
5.8882e-06
6.22321e-06
6.52577e-06
7.14431e-06
6.79945e-06
9.89479e-06
2.87285e-06
2.30622e-05
-1.91048e-05
5.79423e-05
-4.0493e-05
2.81549e-05
7.98926e-05
-0.000119564
-0.00029438
-0.000287907
-0.000281454
-0.000275006
-0.000268579
-0.000262191
-0.000255842
-0.000249531
-0.000243267
-0.000237053
-0.000230885
-0.000224761
-0.000218684
-0.000212656
-0.000206679
-0.000200756
-0.000194891
-0.000189087
-0.000183346
-0.000177673
-0.000172069
-0.000166538
-0.000161081
-0.000155703
-0.000150405
-0.000145188
-0.000140057
-0.000135011
-0.000130054
-0.000125187
-0.000120411
-0.000115729
-0.00011114
-0.000106648
-0.000102253
-9.79552e-05
-9.37566e-05
-8.96577e-05
-8.56591e-05
-8.17616e-05
-7.79652e-05
-7.42707e-05
-7.06778e-05
-6.71868e-05
-6.37981e-05
-6.05107e-05
-5.73251e-05
-5.42404e-05
-5.12561e-05
-4.8372e-05
-4.55869e-05
-4.29003e-05
-4.03111e-05
-3.78183e-05
-3.54208e-05
-3.31173e-05
-3.09064e-05
-2.87868e-05
-2.67568e-05
-2.48148e-05
-2.29593e-05
-2.11884e-05
-1.95003e-05
-1.7893e-05
-1.63646e-05
-1.49129e-05
-1.35359e-05
-1.22315e-05
-1.09974e-05
-9.8315e-06
-8.73139e-06
-7.69478e-06
-6.71951e-06
-5.80279e-06
-4.94286e-06
-4.1366e-06
-3.3825e-06
-2.6769e-06
-2.01892e-06
-1.40484e-06
-8.32919e-07
-3.0111e-07
1.94231e-07
6.53765e-07
1.0817e-06
1.47915e-06
1.84841e-06
2.1939e-06
2.51431e-06
2.81683e-06
3.09963e-06
3.36793e-06
3.62402e-06
3.86904e-06
4.10885e-06
4.34304e-06
4.57875e-06
4.81562e-06
5.06183e-06
5.31777e-06
5.59144e-06
5.88454e-06
6.2183e-06
6.52092e-06
7.13611e-06
6.79774e-06
9.8735e-06
2.89326e-06
2.30067e-05
-1.90648e-05
5.79355e-05
-4.05966e-05
2.82892e-05
7.99e-05
-0.000119755
-0.000293581
-0.000287055
-0.000280557
-0.000274074
-0.000267619
-0.000261212
-0.00025485
-0.000248531
-0.000242262
-0.000236048
-0.000229882
-0.000223765
-0.000217698
-0.000211682
-0.00020572
-0.000199815
-0.000193968
-0.000188184
-0.000182464
-0.000176813
-0.000171232
-0.000165723
-0.000160291
-0.000154936
-0.000149662
-0.00014447
-0.000139362
-0.000134341
-0.000129408
-0.000124564
-0.000119812
-0.000115153
-0.000110587
-0.000106118
-0.000101744
-9.74682e-05
-9.32907e-05
-8.92124e-05
-8.52339e-05
-8.13559e-05
-7.75785e-05
-7.39025e-05
-7.03274e-05
-6.68538e-05
-6.34818e-05
-6.02106e-05
-5.70406e-05
-5.39709e-05
-5.10012e-05
-4.8131e-05
-4.53594e-05
-4.26856e-05
-4.01087e-05
-3.76278e-05
-3.52416e-05
-3.29489e-05
-3.07484e-05
-2.86386e-05
-2.6618e-05
-2.4685e-05
-2.2838e-05
-2.10751e-05
-1.93947e-05
-1.77947e-05
-1.62731e-05
-1.4828e-05
-1.34571e-05
-1.21585e-05
-1.09299e-05
-9.76915e-06
-8.67393e-06
-7.64182e-06
-6.67087e-06
-5.75809e-06
-4.90198e-06
-4.09914e-06
-3.3484e-06
-2.64578e-06
-1.9907e-06
-1.37923e-06
-8.09806e-07
-2.80245e-07
2.12918e-07
6.70595e-07
1.09658e-06
1.49248e-06
1.86009e-06
2.20415e-06
2.52319e-06
2.82444e-06
3.10603e-06
3.37327e-06
3.62823e-06
3.87224e-06
4.11116e-06
4.34426e-06
4.57923e-06
4.81502e-06
5.06041e-06
5.31544e-06
5.58805e-06
5.88044e-06
6.21286e-06
6.5154e-06
7.12732e-06
6.79486e-06
9.85206e-06
2.91142e-06
2.29514e-05
-1.90235e-05
5.7917e-05
-4.06803e-05
2.84059e-05
7.98915e-05
-0.000119899
-0.000292655
-0.000286081
-0.000279543
-0.000273028
-0.00026655
-0.000260126
-0.000253751
-0.000247424
-0.000241152
-0.000234937
-0.000228775
-0.000222665
-0.000216609
-0.000210607
-0.000204662
-0.000198775
-0.00019295
-0.000187187
-0.000181491
-0.000175864
-0.000170308
-0.000164825
-0.000159419
-0.000154091
-0.000148843
-0.000143678
-0.000138597
-0.000133602
-0.000128695
-0.000123878
-0.000119152
-0.000114518
-0.000109978
-0.000105533
-0.000101184
-9.69318e-05
-9.27775e-05
-8.87219e-05
-8.47655e-05
-8.0909e-05
-7.71525e-05
-7.34969e-05
-6.99415e-05
-6.6487e-05
-6.31335e-05
-5.98801e-05
-5.67272e-05
-5.36742e-05
-5.07204e-05
-4.78655e-05
-4.51087e-05
-4.24491e-05
-3.98858e-05