/*--------------------------------*- C++ -*----------------------------------*\
| =========                 |                                                 |
| \\      /  F ield         | OpenFOAM: The Open Source CFD Toolbox           |
|  \\    /   O peration     | Version:  2412                                  |
|   \\  /    A nd           | Website:  www.openfoam.com                      |
|    \\/     M anipulation  |                                                 |
\*---------------------------------------------------------------------------*/
FoamFile
{
    version     2.0;
    format      ascii;
    arch        "LSB;label=32;scalar=64";
    class       surfaceScalarField;
    location    "2";
    object      phi;
}
// * * * * * * * * * * * * * * * * * * * * * * * * * * * * * * * * * * * * * //

dimensions      [0 3 -1 0 0 0 0];

oriented        oriented;

internalField   nonuniform List<scalar> 
126304
(
0.00504399
6.77129e-06
-6.55976e-09
0.00502745
1.65538e-05
-1.16061e-08
0.00502338
4.07709e-06
-7.58422e-09
0.00502131
2.07397e-06
1.36651e-09
0.00502251
-1.20735e-06
5.30083e-09
0.00502351
-1.00852e-06
7.07098e-09
0.00502369
-1.90539e-07
7.14388e-09
0.00502331
3.74867e-07
7.33455e-09
0.00502251
7.97696e-07
7.20164e-09
0.00502141
1.08844e-06
6.86003e-09
0.00502012
1.28296e-06
6.64909e-09
0.00501869
1.42109e-06
6.54212e-09
0.00501716
1.52622e-06
6.53149e-09
0.00501554
1.6121e-06
6.51696e-09
0.00501385
1.68726e-06
6.51158e-09
0.00501208
1.75697e-06
6.48945e-09
0.00501025
1.82458e-06
6.28663e-09
0.00500836
1.89191e-06
6.11314e-09
0.00500639
1.96021e-06
6.08651e-09
0.00500435
2.03053e-06
6.01261e-09
0.00500224
2.10342e-06
5.84052e-09
0.00500006
2.17918e-06
5.56699e-09
0.0049978
2.25791e-06
5.34265e-09
0.00499545
2.33983e-06
5.13963e-09
0.00499302
2.42505e-06
4.97845e-09
0.0049905
2.51373e-06
4.78759e-09
0.00498789
2.60596e-06
4.55014e-09
0.00498518
2.70182e-06
4.28522e-09
0.00498238
2.80145e-06
3.98468e-09
0.00497947
2.90492e-06
3.67788e-09
0.00497646
3.01234e-06
3.38363e-09
0.00497333
3.12382e-06
3.12344e-09
0.00497009
3.23956e-06
2.88833e-09
0.00496672
3.3598e-06
2.64177e-09
0.00496324
3.48477e-06
2.36525e-09
0.00495962
3.61476e-06
2.06356e-09
0.00495587
3.7501e-06
1.7527e-09
0.00495197
3.89123e-06
1.41316e-09
0.00494794
4.03861e-06
1.04591e-09
0.00494374
4.19284e-06
6.59229e-10
0.00493939
4.35462e-06
2.82921e-10
0.00493486
4.52489e-06
-7.22915e-11
0.00493016
4.70479e-06
-4.22101e-10
0.00492526
4.89572e-06
-7.87839e-10
0.00492016
5.09942e-06
-1.18642e-09
0.00491485
5.31809e-06
-1.60459e-09
0.0049093
5.5545e-06
-2.01535e-09
0.00490349
5.81227e-06
-2.38532e-09
0.00489739
6.09618e-06
-2.69118e-09
0.00489098
6.41267e-06
-2.92267e-09
0.00488422
6.77032e-06
-3.08322e-09
0.00487704
7.17766e-06
-3.18251e-09
0.00486941
7.63203e-06
-3.23316e-09
0.00486132
8.09099e-06
-3.24506e-09
8.43681e-06
0.00485289
-3.22696e-09
0.00504394
1.35862e-05
0.00502737
3.31241e-05
0.00502364
7.80688e-06
0.00502151
4.20136e-06
0.0050227
-2.39401e-06
0.00502364
-1.95064e-06
0.00502377
-3.16194e-07
0.00502335
7.94303e-07
0.00502252
1.62667e-06
0.00502141
2.19887e-06
0.00502011
2.58168e-06
0.00501868
2.85408e-06
0.00501714
3.06196e-06
0.00501552
3.2322e-06
0.00501383
3.38151e-06
0.00501207
3.52022e-06
0.00501024
3.65473e-06
0.00500834
3.78886e-06
0.00500637
3.92517e-06
0.00500434
4.06549e-06
0.00500223
4.21086e-06
0.00500005
4.3619e-06
0.00499779
4.51894e-06
0.00499544
4.68236e-06
0.00499302
4.85243e-06
0.0049905
5.02937e-06
0.00498789
5.21336e-06
0.00498519
5.40458e-06
0.00498239
5.60326e-06
0.00497948
5.80961e-06
0.00497647
6.02382e-06
0.00497335
6.24617e-06
0.00497011
6.47703e-06
0.00496676
6.71681e-06
0.00496328
6.96598e-06
0.00495967
7.2251e-06
0.00495592
7.49486e-06
0.00495204
7.77605e-06
0.004948
8.0696e-06
0.00494382
8.37668e-06
0.00493948
8.69871e-06
0.00493496
9.03751e-06
0.00493027
9.39527e-06
0.00492539
9.77471e-06
0.00492031
1.01792e-05
0.00491502
1.06129e-05
0.00490949
1.10813e-05
0.00490371
1.15913e-05
0.00489766
1.21521e-05
0.00489129
1.27761e-05
0.00488459
1.34795e-05
0.00487748
1.42785e-05
0.00486995
1.51677e-05
0.00486197
1.60655e-05
1.67464e-05
0.00485366
0.00504399
2.03537e-05
0.00502743
4.96883e-05
0.00502432
1.09129e-05
0.00502201
6.50659e-06
0.00502313
-3.51178e-06
0.00502394
-2.75607e-06
0.00502394
-3.20238e-07
0.00502345
1.28931e-06
0.00502257
2.50349e-06
0.00502143
3.33905e-06
0.00502011
3.89814e-06
0.00501867
4.29738e-06
0.00501713
4.60339e-06
0.00501551
4.85501e-06
0.00501381
5.07652e-06
0.00501205
5.2829e-06
0.00501022
5.48334e-06
0.00500832
5.68355e-06
0.00500636
5.88733e-06
0.00500433
6.09716e-06
0.00500223
6.31457e-06
0.00500005
6.54047e-06
0.00499779
6.7754e-06
0.00499545
7.01993e-06
0.00499303
7.27443e-06
0.00499052
7.53921e-06
0.00498792
7.81451e-06
0.00498523
8.1006e-06
0.00498243
8.39781e-06
0.00497953
8.70644e-06
0.00497653
9.0268e-06
0.00497342
9.35933e-06
0.00497019
9.70453e-06
0.00496684
1.0063e-05
0.00496337
1.04354e-05
0.00495978
1.08225e-05
0.00495605
1.12255e-05
0.00495218
1.16453e-05
0.00494816
1.20834e-05
0.004944
1.25414e-05
0.00493968
1.30214e-05
0.00493519
1.3526e-05
0.00493052
1.40584e-05
0.00492568
1.46224e-05
0.00492063
1.52227e-05
0.00491538
1.58654e-05
0.0049099
1.6558e-05
0.00490418
1.73104e-05
0.0048982
1.81354e-05
0.00489193
1.90501e-05
0.00488533
2.00771e-05
0.00487837
2.12385e-05
0.00487101
2.25262e-05
0.00486325
2.3826e-05
2.48242e-05
0.00485517
0.00504439
2.6716e-05
0.00502798
6.61004e-05
0.00502566
1.32309e-05
0.00502294
9.23164e-06
0.00502387
-4.4418e-06
0.00502443
-3.32005e-06
0.00502424
-1.30703e-07
0.00502363
1.89909e-06
0.00502269
3.45089e-06
0.0050215
4.52228e-06
0.00502016
5.23987e-06
0.0050187
5.7551e-06
0.00501716
6.1525e-06
0.00501553
6.48121e-06
0.00501383
6.77209e-06
0.00501207
7.04419e-06
0.00501025
7.30918e-06
0.00500836
7.57443e-06
0.0050064
7.84486e-06
0.00500437
8.12351e-06
0.00500227
8.41231e-06
0.0050001
8.71247e-06
0.00499785
9.02471e-06
0.00499552
9.34976e-06
0.00499311
9.6881e-06
0.00499061
1.00401e-05
0.00498802
1.0406e-05
0.00498533
1.07863e-05
0.00498255
1.11813e-05
0.00497966
1.15913e-05
0.00497667
1.20169e-05
0.00497357
1.24586e-05
0.00497036
1.2917e-05
0.00496703
1.33928e-05
0.00496358
1.3887e-05
0.00496
1.44006e-05
0.00495629
1.49349e-05
0.00495245
1.54913e-05
0.00494846
1.60715e-05
0.00494432
1.66777e-05
0.00494003
1.73125e-05
0.00493558
1.7979e-05
0.00493095
1.86813e-05
0.00492615
1.94241e-05
0.00492116
2.02133e-05
0.00491597
2.10563e-05
0.00491057
2.19622e-05
0.00490493
2.29431e-05
0.00489906
2.40144e-05
0.00489291
2.51968e-05
0.00488647
2.65169e-05
0.00487971
2.80011e-05
0.00487259
2.96387e-05
0.00486513
3.12927e-05
3.25892e-05
0.00485736
0.00504543
3.20439e-05
0.00502944
8.209e-05
0.00502791
1.4765e-05
0.00502442
1.27204e-05
0.00502498
-5.00442e-06
0.00502518
-3.51731e-06
0.00502472
3.2741e-07
0.00502396
2.66136e-06
0.00502292
4.48888e-06
0.00502168
5.75949e-06
0.00502031
6.61258e-06
0.00501883
7.22992e-06
0.00501728
7.71019e-06
0.00501565
8.11055e-06
0.00501395
8.4672e-06
0.00501219
8.80256e-06
0.00501037
9.13033e-06
0.00500849
9.45933e-06
0.00500654
9.79534e-06
0.00500452
1.01419e-05
0.00500243
1.05013e-05
0.00500027
1.08749e-05
0.00499803
1.12638e-05
0.00499571
1.16686e-05
0.00499331
1.209e-05
0.00499082
1.25284e-05
0.00498824
1.29841e-05
0.00498557
1.34576e-05
0.0049828
1.39493e-05
0.00497993
1.44597e-05
0.00497696
1.49893e-05
0.00497388
1.55388e-05
0.00497069
1.61089e-05
0.00496738
1.67005e-05
0.00496395
1.73146e-05
0.0049604
1.79526e-05
0.00495672
1.86159e-05
0.00495291
1.93061e-05
0.00494895
2.00254e-05
0.00494485
2.07762e-05
0.0049406
2.15615e-05
0.0049362
2.23851e-05
0.00493163
2.32514e-05
0.00492689
2.41659e-05
0.00492196
2.51351e-05
0.00491685
2.61675e-05
0.00491154
2.72733e-05
0.00490602
2.84658e-05
0.00490027
2.97619e-05
0.00489428
3.1184e-05
0.00488804
3.27612e-05
0.00488152
3.45213e-05
0.00487471
3.64524e-05
0.00486759
3.84064e-05
3.9981e-05
0.0048602
0.00504726
3.55412e-05
0.00503194
9.74123e-05
0.00503111
1.55943e-05
0.00502644
1.7387e-05
0.00502647
-5.03248e-06
0.00502618
-3.22425e-06
0.00502538
1.1233e-06
0.00502444
3.60673e-06
0.00502329
5.63279e-06
0.00502199
7.05838e-06
0.00502059
8.01967e-06
0.00501909
8.72287e-06
0.00501753
9.27605e-06
0.0050159
9.74173e-06
0.0050142
1.016e-05
0.00501245
1.05557e-05
0.00501064
1.09442e-05
0.00500876
1.13353e-05
0.00500682
1.17357e-05
0.00500481
1.21491e-05
0.00500274
1.25781e-05
0.00500059
1.30243e-05
0.00499836
1.34888e-05
0.00499606
1.39725e-05
0.00499367
1.4476e-05
0.0049912
1.49998e-05
0.00498864
1.55443e-05
0.00498599
1.61099e-05
0.00498324
1.6697e-05
0.00498039
1.73064e-05
0.00497744
1.79385e-05
0.00497439
1.85941e-05
0.00497122
1.92741e-05
0.00496794
1.99794e-05
0.00496455
2.07112e-05
0.00496103
2.1471e-05
0.00495738
2.22604e-05
0.00495361
2.30813e-05
0.0049497
2.39359e-05
0.00494565
2.4827e-05
0.00494145
2.57578e-05
0.0049371
2.67325e-05
0.0049326
2.77558e-05
0.00492793
2.88335e-05
0.00492309
2.99727e-05
0.00491808
3.1182e-05
0.00491288
3.24723e-05
0.00490749
3.38571e-05
0.0049019
3.53537e-05
0.0048961
3.69848e-05
0.00489008
3.87792e-05
0.00488384
4.07644e-05
0.00487736
4.29277e-05
0.00487065
4.51211e-05
4.6946e-05
0.00486368
0.00504907
3.72318e-05
0.00503599
0.00011049
0.00503448
1.70997e-05
0.00502907
2.2799e-05
0.00502826
-4.22188e-06
0.00502735
-2.31329e-06
0.0050262
2.27353e-06
0.00502505
4.75626e-06
0.00502379
6.89375e-06
0.00502242
8.42254e-06
0.00502098
9.46228e-06
0.00501947
1.02337e-05
0.0050179
1.08488e-05
0.00501627
1.13728e-05
0.00501458
1.1848e-05
0.00501283
1.23008e-05
0.00501103
1.27477e-05
0.00500917
1.31993e-05
0.00500724
1.36625e-05
0.00500525
1.41415e-05
0.00500319
1.46389e-05
0.00500105
1.51566e-05
0.00499885
1.56958e-05
0.00499656
1.62573e-05
0.0049942
1.68418e-05
0.00499175
1.74498e-05
0.00498921
1.80817e-05
0.00498658
1.8738e-05
0.00498386
1.94192e-05
0.00498104
2.01259e-05
0.00497812
2.08587e-05
0.00497509
2.16185e-05
0.00497196
2.24061e-05
0.00496872
2.32227e-05
0.00496536
2.40695e-05
0.00496188
2.49481e-05
0.00495828
2.58602e-05
0.00495456
2.68078e-05
0.0049507
2.77934e-05
0.00494671
2.88197e-05
0.00494257
2.98904e-05
0.0049383
3.10094e-05
0.00493387
3.21817e-05
0.00492929
3.34131e-05
0.00492455
3.47108e-05
0.00491965
3.60834e-05
0.00491458
3.75413e-05
0.00490934
3.90977e-05
0.00490393
4.07689e-05
0.00489834
4.25763e-05
0.00489257
4.45465e-05
0.00488663
4.67039e-05
0.00488052
4.90352e-05
0.00487424
5.1401e-05
0.00486776
5.34279e-05
0.00485487
-1.97708e-06
-3.19986e-09
0.00485712
-2.24741e-06
-3.19751e-09
0.0048602
-3.07935e-06
-3.17556e-09
0.00486449
-4.28182e-06
-3.14155e-09
0.00486997
-5.47905e-06
-3.10175e-09
0.00487627
-6.2938e-06
-3.06421e-09
0.00488278
-6.50436e-06
-3.03414e-09
0.00488887
-6.08823e-06
-3.01665e-09
0.00489404
-5.16664e-06
-3.01095e-09
0.00489795
-3.91514e-06
-3.01319e-09
0.00490045
-2.4912e-06
-3.0306e-09
0.00490145
-9.98761e-07
-3.00705e-09
0.00490097
4.79114e-07
-2.82988e-09
0.00489907
1.90933e-06
-2.76737e-09
0.00489571
3.35977e-06
-2.68034e-09
0.00489089
4.82432e-06
-2.61808e-09
0.00488456
6.32698e-06
-2.58854e-09
0.00487667
7.89365e-06
-2.61676e-09
0.00486713
9.54975e-06
-2.73831e-09
0.00485581
1.13208e-05
-2.85772e-09
0.00484258
1.32337e-05
-2.89686e-09
0.00482726
1.53178e-05
-2.80053e-09
0.00480966
1.76067e-05
-2.54636e-09
0.00478952
2.0137e-05
-2.17664e-09
0.00476658
2.29483e-05
-1.75517e-09
0.0047405
2.60819e-05
-1.33984e-09
0.00471091
2.95838e-05
-9.71126e-10
0.00467741
3.35087e-05
-6.74497e-10
0.00463948
3.79265e-05
-4.62838e-10
0.00459655
4.29271e-05
-3.37639e-10
0.00454793
4.86229e-05
-2.94391e-10
0.00449278
5.51504e-05
-3.18678e-10
0.00443011
6.26736e-05
-3.81283e-10
0.00435872
7.13921e-05
-4.45401e-10
0.00427716
8.15568e-05
-4.7438e-10
0.00418367
9.34894e-05
-4.40422e-10
0.00407606
0.000107607
-3.35329e-10
0.00395162
0.000124448
-1.70462e-10
0.0038069
0.000144713
3.599e-11
0.00363759
0.000169311
2.6518e-10
0.00343818
0.000199411
5.06763e-10
0.00320172
0.000236461
7.51575e-10
0.00291966
0.000282056
9.85842e-10
0.00258228
0.000337376
1.18143e-09
0.00218066
0.000401625
1.30831e-09
0.00171189
0.000468768
1.33098e-09
0.00118938
0.000522505
1.23687e-09
0.000658132
0.000531249
1.00845e-09
0.000211976
0.000446155
6.15274e-10
0.000211976
1.25678e-10
0.00485434
-2.65415e-06
0.00485524
-3.14567e-06
0.00485688
-4.71895e-06
0.0048596
-7.00125e-06
0.00486338
-9.26483e-06
0.00486787
-1.07838e-05
0.00487251
-1.11363e-05
0.0048767
-1.0284e-05
0.00488
-8.46324e-06
0.00488209
-6.01101e-06
0.00488283
-3.22643e-06
0.00488209
-2.57877e-07
0.00488003
2.54136e-06
0.00487653
5.40298e-06
0.00487163
8.26596e-06
0.00486529
1.1165e-05
0.00485747
1.41479e-05
0.00484809
1.72649e-05
0.00483708
2.05658e-05
0.0048243
2.41007e-05
0.00480961
2.79224e-05
0.00479284
3.20896e-05
0.00477378
3.66687e-05
0.00475218
4.17336e-05
0.00472776
4.73629e-05
0.00470021
5.36397e-05
0.00466914
6.06553e-05
0.00463412
6.85194e-05
0.00459468
7.73724e-05
0.00455021
8.73944e-05
0.00450002
9.881e-05
0.00444328
0.000111891
0.00437899
0.000126965
0.00430595
0.00014443
0.00422272
0.000164786
0.00412754
0.000188673
0.00401823
0.000216919
0.00389208
0.000250594
0.00374571
0.000291082
0.00357485
0.000340178
0.00337407
0.000400188
0.00313658
0.000473947
0.00285411
0.00056453
0.00251742
0.000674071
0.00211842
0.000800623
0.00165546
0.000931727
0.00114332
0.00103465
0.000627361
0.00104721
0.000197881
0.000875636
0.000409856
0.00485324
-7.2415e-07
0.00485143
-1.3337e-06
0.00485017
-3.46079e-06
0.00484975
-6.58125e-06
0.00485015
-9.65804e-06
0.00485104
-1.16752e-05
0.00485195
-1.20503e-05
0.00485241
-1.07371e-05
0.00485201
-8.06772e-06
0.00485053
-4.52726e-06
0.00484771
-4.09081e-07
0.00484378
3.67064e-06
0.00483847
7.84867e-06
0.00483185
1.20285e-05
0.00482388
1.62298e-05
0.00481454
2.05068e-05
0.00480376
2.49279e-05
0.00479146
2.95654e-05
0.00477754
3.44911e-05
0.00476186
3.97776e-05
0.00474428
4.55017e-05
0.00472462
5.17502e-05
0.00470266
5.86226e-05
0.00467817
6.62298e-05
0.00465084
7.46901e-05
0.00462035
8.41279e-05
0.00458633
9.468e-05
0.00454834
0.000106512
0.00450587
0.000119834
0.00445835
0.000134919
0.00440506
0.000152102
0.00434516
0.00017179
0.00427766
0.000194468
0.00420135
0.000220734
0.00411481
0.000251332
0.00401626
0.000287215
0.00390358
0.000329608
0.00377408
0.000380088
0.00362447
0.000440693
0.00345059
0.000514055
0.00324724
0.000603535
0.00300797
0.000713225
0.00272507
0.00084743
0.00239034
0.0010088
0.00199738
0.00119358
0.00154682
0.00138229
0.00105566
0.0015258
0.000570147
0.00153272
0.000175796
0.00126999
0.000585652
0.00485153
5.10709e-06
0.00484566
4.53497e-06
0.00484006
2.14211e-06
0.00483495
-1.47321e-06
0.0048303
-5.00905e-06
0.00482588
-7.24965e-06
0.00482133
-7.50678e-06
0.00481633
-5.7326e-06
0.00481056
-2.29677e-06
0.00480381
2.2219e-06
0.00479615
7.24443e-06
0.00478732
1.2508e-05
0.00477732
1.78472e-05
0.00476613
2.32217e-05
0.00475369
2.86646e-05
0.00473995
3.42462e-05
0.00472483
4.00523e-05
0.00470822
4.61732e-05
0.00469001
5.2699e-05
0.00467007
5.97219e-05
0.00464823
6.73412e-05
0.00462431
7.56703e-05
0.00459809
8.48413e-05
0.00456932
9.50028e-05
0.00453769
0.000106313
0.00450288
0.000118938
0.0044645
0.000133059
0.00442212
0.0001489
0.00437521
0.000166743
0.00432318
0.000186951
0.00426531
0.00020997
0.00420076
0.000236338
0.00412853
0.0002667
0.00404742
0.000301845
0.00395599
0.000342757
0.00385252
0.000390689
0.00373489
0.00044724
0.00360051
0.000514461
0.00344622
0.000594984
0.00326808
0.000692193
0.00306125
0.000810365
0.00281987
0.000954608
0.00253725
0.00113005
0.00220683
0.00133922
0.00182473
0.00157569
0.00139461
0.00181241
0.000935703
0.0019847
0.000493309
0.00197512
0.00014453
0.00161877
0.000730182
0.00484921
1.61002e-05
0.00483797
1.5773e-05
0.00482669
1.34244e-05
0.00481545
9.7607e-06
0.00480427
6.16972e-06
0.00479302
4.00717e-06
0.00478151
4.00477e-06
0.00476956
6.21007e-06
0.00475703
1.02331e-05
0.0047438
1.54538e-05
0.00472972
2.1324e-05
0.00471472
2.75077e-05
0.00469874
3.38335e-05
0.00468169
4.02658e-05
0.00466351
4.68458e-05
0.0046441
5.36543e-05
0.00462337
6.07892e-05
0.00460119
6.83538e-05
0.00457743
7.64537e-05
0.00455195
8.51977e-05
0.00452459
9.47054e-05
0.00449514
0.000105116
0.00446339
0.000116594
0.00442907
0.000129326
0.00439187
0.000143511
0.00435145
0.000159354
0.00430743
0.000177087
0.00425934
0.000196988
0.00420667
0.000219415
0.0041488
0.000244821
0.004085
0.000273763
0.00401443
0.000306906
0.00393608
0.000345051
0.00384876
0.000389172
0.00375103
0.000440484
0.0036412
0.00050052
0.00351722
0.000571221
0.00337663
0.000655052
0.00321646
0.000755154
0.00303314
0.000875513
0.00282242
0.00102109
0.00257942
0.00119761
0.00229905
0.00141042
0.00197725
0.00166102
0.00161346
0.00193947
0.00121484
0.00221103
0.000801878
0.00239766
0.000414508
0.00236249
0.000112806
0.00192047
0.000842987
0.00484636
3.34205e-05
0.00482859
3.35396e-05
0.00481042
3.16008e-05
0.00479187
2.83112e-05
0.00477298
2.50601e-05
0.00475377
2.32173e-05
0.00473421
2.35603e-05
0.00471426
2.61664e-05
0.00469386
3.0632e-05
0.00467294
3.63698e-05
0.0046514
4.28605e-05
0.00462915
4.97616e-05
0.00460607
5.69099e-05
0.00458207
6.42715e-05
0.00455702
7.18906e-05
0.00453082
7.98528e-05
0.00450335
8.82629e-05
0.00447447
9.72337e-05
0.00444404
0.000106882
0.00441191
0.000117333
0.00437789
0.000128724
0.00434178
0.000141221
0.00430336
0.000155019
0.00426234
0.000170343
0.00421842
0.000187432
0.00417124
0.000206534
0.0041204
0.000227927
0.00406544
0.00025195
0.00400581
0.000279039
0.0039409
0.000309737
0.00386995
0.00034471
0.00379211
0.000384751
0.00370635
0.00043081
0.00361147
0.000484044
0.00350608
0.00054588
0.00338849
0.000618106
0.00325676
0.000702955
0.00310859
0.000803224
0.00294133
0.000922408
0.00275201
0.00106484
0.00253739
0.0012357
0.00229436
0.00144064
0.00202061
0.00168416
0.0017161
0.00196553
0.00138519
0.00227038
0.00103896
0.00255726
0.000697385
0.00273924
0.000387588
0.00267228
0.000131671
0.00217639
0.000974659
0.00484307
5.8108e-05
0.00481779
5.88206e-05
0.00479182
5.75704e-05
0.00476513
5.4999e-05
0.00473778
5.24132e-05
0.00470988
5.11223e-05
0.00468154
5.19002e-05
0.00465284
5.48598e-05
0.00462383
5.96492e-05
0.00459445
6.57457e-05
0.00456463
7.26803e-05
0.00453425
8.01408e-05
0.00450318
8.79768e-05
0.0044713
9.61578e-05
0.00443846
0.000104728
0.00440454
0.000113775
0.0043694
0.000123406
0.00433289
0.000133739
0.00429487
0.000144902
0.00425517
0.000157033
0.0042136
0.00017029
0.00416996
0.000184863
0.004124
0.00020098
0.00407544
0.000218903
0.00402397
0.000238906
0.00396922
0.00026128
0.00391079
0.000286353
0.00384822
0.000314528
0.00378094
0.00034632
0.00370831
0.000382367
0.00362957
0.000423444
0.00354386
0.000470467
0.00345013
0.000524533
0.0033472
0.000586973
0.00323367
0.000659418
0.00310789
0.000743881
0.002968
0.000842844
0.00281188
0.000959344
0.00263723
0.00109706
0.00244171
0.00126036
0.00222333
0.00145409
0.00198116
0.00168281
0.00171665
0.00194868
0.00143544
0.00224675
0.00114939
0.00255643
0.000877657
0.00282899
0.000642531
0.00297437
0.000454336
0.00286048
0.000285562
0.00234516
0.00126022
-3.0445e-05
3.04455e-05
-5.88948e-10
-2.00002e-05
-1.0444e-05
-8.07337e-10
8.4569e-05
-0.000104569
-3.9046e-10
0.000301831
-0.000217263
3.06447e-10
0.000619806
-0.000317975
1.01445e-09
0.00100694
-0.000387136
1.65779e-09
0.00142583
-0.000418893
2.25226e-09
0.0018437
-0.000417875
2.80324e-09
0.00223735
-0.000393654
3.26921e-09
0.00259362
-0.00035627
3.60737e-09
0.00290741
-0.000313794
3.78471e-09
0.00317904
-0.000271632
3.81132e-09
0.00341185
-0.000232814
3.7159e-09
0.0036105
-0.000198653
3.52623e-09
0.00377989
-0.000169396
3.26431e-09
0.00392461
-0.000144719
2.94174e-09
0.00404866
-0.000124057
2.56785e-09
0.00415545
-0.000106787
2.15088e-09
0.00424777
-9.23266e-05
1.71469e-09
0.00432793
-8.0164e-05
1.29905e-09
0.00439781
-6.98739e-05
1.01461e-09
0.00445892
-6.1111e-05
9.29139e-10
0.00451251
-5.35994e-05
1.34492e-09
0.00455963
-4.71198e-05
2.44722e-09
0.00460112
-4.14971e-05
4.09635e-09
0.00463771
-3.65908e-05
6.09343e-09
0.00466999
-3.22887e-05
7.94769e-09
0.00469848
-2.85011e-05
9.32888e-09
0.00472363
-2.51548e-05
1.0178e-08
0.0047458
-2.21879e-05
1.05456e-08
0.00476534
-1.95477e-05
1.056e-08
0.00478252
-1.719e-05
1.03651e-08
0.00479759
-1.5078e-05
1.00751e-08
0.00481076
-1.31814e-05
9.76078e-09
0.00482223
-1.14751e-05
9.45892e-09
0.00483215
-9.93792e-06
9.1831e-09
0.0048407
-8.55196e-06
8.93775e-09
0.00484799
-7.30204e-06
8.72753e-09
0.00485416
-6.17556e-06
8.55498e-09
0.00485931
-5.16235e-06
8.42061e-09
0.00486356
-4.25465e-06
8.32437e-09
0.004867
-3.44717e-06
8.26271e-09
0.00486973
-2.73744e-06
8.23053e-09
0.00487184
-2.12624e-06
8.22677e-09
0.00487345
-1.6186e-06
8.25396e-09
0.00487467
-1.22471e-06
8.31415e-09
0.00487562
-9.58841e-07
8.40888e-09
0.00487644
-8.29904e-07
8.53885e-09
0.00487725
-8.12106e-07
8.70053e-09
-7.93616e-07
0.00487803
8.88281e-09
-1.65281e-05
4.69736e-05
1.76996e-05
-4.46716e-05
0.000139483
-0.000226352
0.000362364
-0.000440144
0.000674539
-0.000630151
0.00104793
-0.000760529
0.00144957
-0.000820529
0.00185024
-0.000818548
0.00222889
-0.0007723
0.00257322
-0.0007006
0.00287818
-0.000618756
0.00314369
-0.000537148
0.00337256
-0.000461683
0.00356891
-0.000394999
0.00373718
-0.000337666
0.0038816
-0.00028914
0.00400593
-0.000248381
0.00411336
-0.000214222
0.00420658
-0.000185551
0.00428781
-0.000161392
0.00435886
-0.000140921
0.00442122
-0.000123467
0.00447611
-0.00010849
0.00452455
-9.55593e-05
0.00456738
-8.43303e-05
0.00460532
-7.45261e-05
0.00463895
-6.5926e-05
0.0046688
-5.83528e-05
0.00469531
-5.16608e-05
0.00471885
-4.57267e-05
0.00473975
-4.04455e-05
0.00475829
-3.57286e-05
0.00477471
-3.1503e-05
0.00478924
-2.77084e-05
0.00480206
-2.42947e-05
0.00481334
-2.12195e-05
0.00482323
-1.84467e-05
0.00483188
-1.59458e-05
0.00483939
-1.36913e-05
0.00484589
-1.16625e-05
0.00485148
-9.84365e-06
0.00485626
-8.22362e-06
0.00486032
-6.79678e-06
0.00486376
-5.56374e-06
0.00486667
-4.53304e-06
0.00486917
-3.7229e-06
0.00487137
-3.15926e-06
0.0048734
-2.85781e-06
0.00487535
-2.76817e-06
-2.67504e-06
0.00487723
1.32012e-05
3.37725e-05
8.63055e-05
-0.000117776
0.000239445
-0.000379491
0.000472484
-0.000673183
0.000773258
-0.000930925
0.00112041
-0.00110768
0.00148928
-0.00118939
0.00185735
-0.00118662
0.0022076
-0.00112255
0.00252939
-0.00102239
0.00281772
-0.000907092
0.00307177
-0.000791192
0.00329328
-0.000683197
0.00348537
-0.000587085
0.00365161
-0.000503912
0.00379557
-0.000433099
0.00392051
-0.000373313
0.00402927
-0.000322983
0.0041243
-0.000280581
0.00420765
-0.00024474
0.00428102
-0.000214297
0.00434584
-0.000188288
0.00440329
-0.000165935
0.00445434
-0.00014661
0.00449982
-0.000129811
0.00454042
-0.000115131
0.00457674
-0.000102247
0.00460929
-9.08962e-05
0.00463849
-8.0863e-05
0.00466473
-7.19631e-05
0.00468832
-6.40396e-05
0.00470955
-5.69611e-05
0.00472867
-5.06189e-05
0.00474588
-4.49238e-05
0.00476139
-3.98009e-05
0.00477536
-3.51863e-05
0.00478794
-3.10256e-05
0.00479926
-2.72721e-05
0.00480946
-2.38871e-05
0.00481863
-2.08388e-05
0.00482689
-1.81027e-05
0.00483433
-1.56611e-05
0.00484104
-1.3504e-05
0.0048471
-1.163e-05
0.00485262
-1.00485e-05
0.00485768
-8.78182e-06
0.00486238
-7.86267e-06
0.00486683
-7.30969e-06
0.00487112
-7.05034e-06
-6.78257e-06
0.00487522
4.71447e-05
-1.33723e-05
0.000173036
-0.000243667
0.000365345
-0.0005718
0.000609502
-0.00091734
0.000893411
-0.00121483
0.00120442
-0.00141869
0.00152875
-0.00151373
0.00185278
-0.00151065
0.00216481
-0.00143458
0.00245638
-0.00131395
0.00272253
-0.00117324
0.00296136
-0.00103002
0.00317321
-0.000895051
0.00335981
-0.000773683
0.00352358
-0.00066768
0.00366717
-0.000576691
0.00379318
-0.000499323
0.003904
-0.000433799
0.00400173
-0.000378317
0.00408822
-0.000331227
0.00416502
-0.000291098
0.00423345
-0.000256724
0.00429464
-0.000227119
0.00434951
-0.000201483
0.00439887
-0.000179167
0.00444339
-0.000159649
0.00448365
-0.000142506
0.00452015
-0.000127395
0.00455331
-0.000114031
0.00458352
-0.00010217
0.00461109
-9.16054e-05
0.00463629
-8.21639e-05
0.00465937
-7.37037e-05
0.00468056
-6.61074e-05
0.00470003
-5.92755e-05
0.00471797
-5.31226e-05
0.00473452
-4.75745e-05
0.00474981
-4.25683e-05
0.00476398
-3.80511e-05
0.00477712
-3.39795e-05
0.00478934
-3.03196e-05
0.00480072
-2.7046e-05
0.00481136
-2.41427e-05
0.00482133
-2.16042e-05
0.00483072
-1.94372e-05
0.0048396
-1.76633e-05
0.00484806
-1.63159e-05
0.00485616
-1.54116e-05
0.00486397
-1.48597e-05
-1.42959e-05
0.00487148
8.11242e-05
-9.44965e-05
0.000263525
-0.000426068
0.000493377
-0.000801652
0.000743573
-0.00116754
0.00100384
-0.0014751
0.00127141
-0.00168626
0.00154426
-0.00178658
0.00181822
-0.00178461
0.00208726
-0.00170363
0.00234516
-0.00157185
0.00258687
-0.00141496
0.00280924
-0.00125239
0.00301093
-0.00109674
0.00319208
-0.000954828
0.00335377
-0.000829375
0.00349765
-0.000720568
0.00362556
-0.000627232
0.00373936
-0.000547599
0.0038408
-0.00047976
0.00393148
-0.0004219
0.00401278
-0.000372399
0.00408592
-0.000329869
0.00415196
-0.000293153
0.00421177
-0.000261299
0.00426614
-0.000233533
0.00431571
-0.000209225
0.00436106
-0.000187859
0.00440268
-0.000169014
0.00444099
-0.000152337
0.00447634
-0.000137525
0.00450906
-0.000124324
0.00453942
-0.000112522
0.00456766
-0.000101947
0.00459401
-9.24542e-05
0.00461865
-8.39186e-05
0.00464176
-7.62323e-05
0.00466349
-6.93014e-05
0.00468397
-6.30456e-05
0.00470331
-5.73973e-05
0.00472164
-5.23011e-05
0.00473903
-4.77125e-05
0.00475558
-4.35977e-05
0.00477137
-3.99331e-05
0.00478647
-3.67066e-05
0.00480095
-3.3919e-05
0.00481488
-3.15861e-05
0.0048283
-2.97356e-05
0.00484126
-2.83778e-05
0.00485381
-2.74095e-05
-2.64345e-05
0.00486595
0.000134764
-0.00022926
0.000363557
-0.000654861
0.000609361
-0.00104746
0.000846621
-0.0014048
0.00107078
-0.00169926
0.00128823
-0.00190371
0.0015068
-0.00200515
0.00173015
-0.00200796
0.00195692
-0.00193039
0.00218253
-0.00179746
0.00240156
-0.00163398
0.00260936
-0.0014602
0.00280283
-0.00129021
0.00298043
-0.00113242
0.00314186
-0.000990811
0.00328773
-0.000866434
0.00341912
-0.000758624
0.00353738
-0.000665857
0.00364391
-0.000586288
0.00374006
-0.000518053
0.00382709
-0.00045943
0.00390612
-0.000408901
0.00397815
-0.000365174
0.00404402
-0.00032717
0.00410449
-0.000294003
0.0041602
-0.000264941
0.00421173
-0.000239384
0.00425954
-0.000216829
0.00430406
-0.000196857
0.00434565
-0.000179107
0.0043846
-0.000163279
0.00442121
-0.000149127
0.0044557
-0.000136446
0.00448832
-0.000125065
0.00451923
-0.000114836
0.00454863
-0.000105626
0.00457665
-9.73208e-05
0.00460342
-8.98222e-05
0.00462907
-8.30477e-05
0.0046537
-7.69289e-05
0.0046774
-7.14104e-05
0.00470025
-6.64486e-05
0.00472233
-6.20112e-05
0.0047437
-5.80774e-05
0.00476442
-5.4639e-05
0.00478453
-5.17023e-05
0.00480408
-4.9284e-05
0.00482309
-4.73846e-05
0.00484158
-4.58956e-05
-4.44215e-05
0.00485956
0.000202732
-0.000431992
0.000442663
-0.000894792
0.000669687
-0.00127448
0.000870763
-0.00160587
0.00104952
-0.00187802
0.00121825
-0.00207244
0.00138993
-0.00217684
0.00157222
-0.00219025
0.001766
-0.00212416
0.00196722
-0.00199868
0.00216972
-0.00183649
0.00236756
-0.00165804
0.00255616
-0.00147882
0.00273266
-0.00130892
0.00289569
-0.00115384
0.003045
-0.00101574
0.00318108
-0.000894703
0.00330484
-0.000789625
0.00341742
-0.000698859
0.00351996
-0.000620593
0.0036136
-0.00055307
0.00369938
-0.000494687
0.00377825
-0.000444047
0.00385105
-0.000399964
0.0039185
-0.000361451
0.00398124
-0.000327682
0.00403982
-0.000297971
0.00409474
-0.000271742
0.00414638
-0.000248505
0.00419512
-0.000227845
0.00424126
-0.000209416
0.00428507
-0.000192936
0.00432679
-0.000178171
0.00436665
-0.000164924
0.00440484
-0.00015302
0.00444151
-0.000142304
0.00447683
-0.00013264
0.00451092
-0.000123913
0.0045439
-0.000116024
0.00457586
-0.000108891
0.0046069
-0.000102448
0.00463709
-9.66408e-05
0.00466651
-9.14264e-05
0.00469521
-8.67743e-05
0.00472323
-8.26653e-05
0.00475062
-7.90931e-05
0.0047774
-7.60603e-05
0.00480357
-7.35556e-05
0.00482915
-7.14715e-05
0.00485417
-6.94434e-05
0.00488921
-1.11862e-05
9.11491e-09
0.00489988
-1.06803e-05
9.44627e-09
0.00490932
-9.44658e-06
9.696e-09
0.00491685
-7.54283e-06
9.79772e-09
0.00492218
-5.34562e-06
9.69882e-09
0.00492554
-3.36704e-06
9.38496e-09
0.00492753
-1.99612e-06
8.89019e-09
0.00492887
-1.3535e-06
8.2858e-09
0.00493019
-1.31916e-06
7.65388e-09
0.00493184
-1.65967e-06
7.06219e-09
0.00493398
-2.15005e-06
6.55075e-09
0.00493661
-2.63587e-06
6.1278e-09
0.00493965
-3.03932e-06
5.77272e-09
0.00494298
-3.3375e-06
5.44577e-09
0.00494651
-3.53696e-06
5.10398e-09
0.00495016
-3.65535e-06
4.71967e-09
0.00495387
-3.71161e-06
4.2967e-09
0.00495759
-3.72196e-06
3.87365e-09
0.00496128
-3.69908e-06
3.50185e-09
0.00496493
-3.65237e-06
3.20721e-09
0.00496852
-3.58874e-06
2.96895e-09
0.00497203
-3.51316e-06
2.73896e-09
0.00497545
-3.4293e-06
2.48386e-09
0.00497879
-3.33982e-06
2.20718e-09
0.00498204
-3.24676e-06
1.93504e-09
0.00498519
-3.1516e-06
1.68876e-09
0.00498824
-3.05542e-06
1.46849e-09
0.0049912
-2.959e-06
1.25005e-09
0.00499406
-2.86294e-06
1.00438e-09
0.00499683
-2.7677e-06
7.29738e-10
0.0049995
-2.67364e-06
4.52142e-10
0.00500208
-2.58106e-06
2.01943e-10
0.00500457
-2.49015e-06
5.26816e-13
0.00500697
-2.40106e-06
-1.44862e-10
0.00500929
-2.31388e-06
-2.38077e-10
0.00501151
-2.22864e-06
-3.02332e-10
0.00501366
-2.14534e-06
-3.78491e-10
0.00501572
-2.06399e-06
-5.0101e-10
0.00501771
-1.9846e-06
-6.77838e-10
0.00501962
-1.90722e-06
-8.71336e-10
0.00502145
-1.8319e-06
-1.01951e-09
0.00502321
-1.7586e-06
-1.12651e-09
0.0050249
-1.68726e-06
-1.20028e-09
0.00502652
-1.61776e-06
-1.3314e-09
0.00502807
-1.54997e-06
-1.571e-09
0.00502956
-1.48397e-06
-1.86305e-09
0.00503098
-1.41979e-06
-2.22289e-09
0.00503234
-1.35744e-06
-2.55957e-09
0.00503364
-1.29685e-06
-2.85763e-09
0.00503488
-1.238e-06
-3.14002e-09
0.00503606
-1.18093e-06
-3.34787e-09
0.00503719
-1.12559e-06
-3.49122e-09
0.00503827
-1.07195e-06
-3.63336e-09
0.00503929
-1.01994e-06
-3.72914e-09
0.00504026
-9.69521e-07
-3.77633e-09
0.00504119
-9.20641e-07
-3.82704e-09
0.00504207
-8.73248e-07
-3.93615e-09
0.0050429
-8.27371e-07
-4.1025e-09
0.00504368
-7.82983e-07
-4.24977e-09
0.00504443
-7.39997e-07