/*--------------------------------*- C++ -*----------------------------------*\
| =========                 |                                                 |
| \\      /  F ield         | OpenFOAM: The Open Source CFD Toolbox           |
|  \\    /   O peration     | Version:  2412                                  |
|   \\  /    A nd           | Website:  www.openfoam.com                      |
|    \\/     M anipulation  |                                                 |
\*---------------------------------------------------------------------------*/
FoamFile
{
    version     2.0;
    format      ascii;
    arch        "LSB;label=32;scalar=64";
    class       volVectorField;
    location    "2";
    object      U;
}
// * * * * * * * * * * * * * * * * * * * * * * * * * * * * * * * * * * * * * //

dimensions      [0 1 -1 0 0 0 0];

internalField   nonuniform List<vector> 
63420
(
(0.112027 2.28926e-05 0)
(0.0911453 5.71361e-05 0)
(0.10372 1.46897e-05 0)
(0.0981376 7.42925e-06 0)
(0.0994576 -4.46095e-06 0)
(0.0995815 -3.84155e-06 0)
(0.0994317 -8.05773e-07 0)
(0.099459 1.3921e-06 0)
(0.0994536 3.11043e-06 0)
(0.0994309 4.35887e-06 0)
(0.0994069 5.25551e-06 0)
(0.09938 5.94628e-06 0)
(0.0993506 6.51893e-06 0)
(0.0993193 7.027e-06 0)
(0.0992865 7.5042e-06 0)
(0.0992523 7.97258e-06 0)
(0.0992167 8.44762e-06 0)
(0.0991798 8.9368e-06 0)
(0.0991415 9.44598e-06 0)
(0.0991019 9.98214e-06 0)
(0.0990609 1.05494e-05 0)
(0.0990184 1.11505e-05 0)
(0.0989744 1.17867e-05 0)
(0.0989288 1.24609e-05 0)
(0.0988816 1.3175e-05 0)
(0.0988326 1.3932e-05 0)
(0.0987819 1.47344e-05 0)
(0.0987293 1.55845e-05 0)
(0.0986747 1.64852e-05 0)
(0.0986182 1.74388e-05 0)
(0.0985596 1.8448e-05 0)
(0.0984988 1.9516e-05 0)
(0.0984358 2.06462e-05 0)
(0.0983704 2.18433e-05 0)
(0.0983026 2.31116e-05 0)
(0.0982324 2.44562e-05 0)
(0.0981594 2.58825e-05 0)
(0.0980838 2.73971e-05 0)
(0.0980053 2.90073e-05 0)
(0.0979239 3.07214e-05 0)
(0.0978393 3.25492e-05 0)
(0.0977515 3.45027e-05 0)
(0.0976602 3.65966e-05 0)
(0.0975652 3.88489e-05 0)
(0.0974664 4.12812e-05 0)
(0.0973634 4.392e-05 0)
(0.0972559 4.67989e-05 0)
(0.0971436 4.99608e-05 0)
(0.0970259 5.3462e-05 0)
(0.0969023 5.73784e-05 0)
(0.0967721 6.18109e-05 0)
(0.0966344 6.68681e-05 0)
(0.0964881 7.25574e-05 0)
(0.0963324 7.84935e-05 0)
(0.096168 8.34997e-05 0)
(0.112028 6.8889e-05 0)
(0.0911422 0.000171364 0)
(0.10372 4.27146e-05 0)
(0.0981454 2.24146e-05 0)
(0.0994604 -1.32814e-05 0)
(0.099585 -1.12136e-05 0)
(0.0994338 -2.096e-06 0)
(0.09946 4.43344e-06 0)
(0.0994541 9.54111e-06 0)
(0.099431 1.32493e-05 0)
(0.0994068 1.59143e-05 0)
(0.0993798 1.79718e-05 0)
(0.0993503 1.96821e-05 0)
(0.099319 2.12018e-05 0)
(0.0992861 2.26312e-05 0)
(0.0992519 2.40352e-05 0)
(0.0992163 2.54564e-05 0)
(0.0991794 2.69212e-05 0)
(0.0991412 2.84493e-05 0)
(0.0991016 3.00573e-05 0)
(0.0990606 3.17565e-05 0)
(0.0990182 3.35554e-05 0)
(0.0989742 3.54604e-05 0)
(0.0989287 3.74793e-05 0)
(0.0988815 3.96188e-05 0)
(0.0988326 4.18863e-05 0)
(0.0987819 4.42887e-05 0)
(0.0987293 4.68332e-05 0)
(0.0986749 4.9528e-05 0)
(0.0986184 5.23811e-05 0)
(0.0985599 5.54009e-05 0)
(0.0984992 5.85971e-05 0)
(0.0984363 6.19805e-05 0)
(0.098371 6.55631e-05 0)
(0.0983034 6.93583e-05 0)
(0.0982332 7.33806e-05 0)
(0.0981604 7.76468e-05 0)
(0.0980849 8.21759e-05 0)
(0.0980066 8.69894e-05 0)
(0.0979253 9.21123e-05 0)
(0.097841 9.75746e-05 0)
(0.0977534 0.000103412 0)
(0.0976623 0.000109668 0)
(0.0975677 0.000116394 0)
(0.0974692 0.000123654 0)
(0.0973665 0.000131526 0)
(0.0972595 0.00014011 0)
(0.0971477 0.000149532 0)
(0.0970307 0.000159958 0)
(0.096908 0.00017161 0)
(0.0967788 0.000184781 0)
(0.0966424 0.000199787 0)
(0.0964977 0.000216645 0)
(0.0963441 0.000234228 0)
(0.096182 0.000249106 0)
(0.112032 0.000115291 0)
(0.0911406 0.000285662 0)
(0.103725 6.72481e-05 0)
(0.0981634 3.79603e-05 0)
(0.0994669 -2.1887e-05 0)
(0.0995926 -1.789e-05 0)
(0.0994385 -2.72181e-06 0)
(0.0994624 7.90942e-06 0)
(0.0994554 1.6258e-05 0)
(0.0994316 2.23228e-05 0)
(0.099407 2.66853e-05 0)
(0.0993797 3.00643e-05 0)
(0.09935 3.28833e-05 0)
(0.0993186 3.53955e-05 0)
(0.0992858 3.77644e-05 0)
(0.0992515 4.00948e-05 0)
(0.099216 4.24552e-05 0)
(0.0991791 4.48902e-05 0)
(0.099141 4.7433e-05 0)
(0.0991014 5.01088e-05 0)
(0.0990605 5.29361e-05 0)
(0.0990182 5.5929e-05 0)
(0.0989743 5.90989e-05 0)
(0.0989288 6.24584e-05 0)
(0.0988817 6.60192e-05 0)
(0.0988329 6.97927e-05 0)
(0.0987824 7.37902e-05 0)
(0.0987299 7.80238e-05 0)
(0.0986756 8.25069e-05 0)
(0.0986193 8.72528e-05 0)
(0.0985609 9.22759e-05 0)
(0.0985004 9.75921e-05 0)
(0.0984377 0.000103219 0)
(0.0983726 0.000109177 0)
(0.0983052 0.000115487 0)
(0.0982353 0.000122174 0)
(0.0981628 0.000129264 0)
(0.0980876 0.000136789 0)
(0.0980096 0.000144785 0)
(0.0979287 0.000153292 0)
(0.0978447 0.000162358 0)
(0.0977575 0.000172043 0)
(0.097667 0.000182416 0)
(0.0975729 0.000193562 0)
(0.0974751 0.00020558 0)
(0.0973732 0.000218599 0)
(0.0972671 0.000232776 0)
(0.0971564 0.000248314 0)
(0.0970407 0.000265475 0)
(0.0969195 0.000284609 0)
(0.0967923 0.000306177 0)
(0.0966583 0.00033067 0)
(0.0965168 0.00035811 0)
(0.0963671 0.000386714 0)
(0.0962095 0.00041109 0)
(0.112042 0.000160656 0)
(0.0911486 0.000399579 0)
(0.10374 8.67697e-05 0)
(0.0981955 5.53665e-05 0)
(0.0994789 -2.97149e-05 0)
(0.0996053 -2.31951e-05 0)
(0.0994464 -2.16109e-06 0)
(0.0994668 1.2123e-05 0)
(0.0994583 2.34476e-05 0)
(0.0994334 3.16944e-05 0)
(0.0994081 3.76366e-05 0)
(0.0993805 4.22633e-05 0)
(0.0993506 4.61439e-05 0)
(0.0993191 4.96177e-05 0)
(0.0992862 5.29048e-05 0)
(0.099252 5.61468e-05 0)
(0.0992165 5.94351e-05 0)
(0.0991797 6.28316e-05 0)
(0.0991416 6.63819e-05 0)
(0.0991022 7.01191e-05 0)
(0.0990614 7.40681e-05 0)
(0.0990191 7.82486e-05 0)
(0.0989754 8.26771e-05 0)
(0.0989301 8.73709e-05 0)
(0.0988832 9.2346e-05 0)
(0.0988345 9.7618e-05 0)
(0.0987841 0.000103203 0)
(0.0987319 0.000109117 0)
(0.0986778 0.000115378 0)
(0.0986217 0.000122006 0)
(0.0985636 0.000129021 0)
(0.0985033 0.000136443 0)
(0.0984409 0.000144299 0)
(0.0983762 0.000152615 0)
(0.0983091 0.000161421 0)
(0.0982395 0.000170749 0)
(0.0981674 0.000180638 0)
(0.0980926 0.00019113 0)
(0.0980151 0.000202273 0)
(0.0979348 0.000214122 0)
(0.0978514 0.000226745 0)
(0.0977649 0.000240219 0)
(0.0976751 0.000254638 0)
(0.0975818 0.000270114 0)
(0.097485 0.000286781 0)
(0.0973843 0.000304808 0)
(0.0972795 0.000324402 0)
(0.0971703 0.000345827 0)
(0.0970565 0.000369425 0)
(0.0969376 0.000395646 0)
(0.0968131 0.000425082 0)
(0.0966826 0.000458356 0)
(0.0965454 0.000495484 0)
(0.0964011 0.000534183 0)
(0.0962497 0.00056757 0)
(0.11206 0.000200926 0)
(0.0911749 0.000513127 0)
(0.103772 0.000100065 0)
(0.0982455 7.75979e-05 0)
(0.0994973 -3.57698e-05 0)
(0.0996244 -2.63074e-05 0)
(0.0994584 1.9071e-07 0)
(0.099474 1.7383e-05 0)
(0.0994635 3.12818e-05 0)
(0.0994374 4.1465e-05 0)
(0.0994112 4.88251e-05 0)
(0.0993831 5.45989e-05 0)
(0.099353 5.94775e-05 0)
(0.0993215 6.38712e-05 0)
(0.0992885 6.80483e-05 0)
(0.0992543 7.21815e-05 0)
(0.0992189 7.63826e-05 0)
(0.0991822 8.07288e-05 0)
(0.0991443 8.52765e-05 0)
(0.099105 9.00659e-05 0)
(0.0990644 9.5128e-05 0)
(0.0990223 0.000100488 0)
(0.0989788 0.000106166 0)
(0.0989337 0.000112185 0)
(0.098887 0.000118565 0)
(0.0988386 0.000125326 0)
(0.0987884 0.000132487 0)
(0.0987365 0.000140069 0)
(0.0986827 0.000148096 0)
(0.0986269 0.000156591 0)
(0.0985691 0.00016558 0)
(0.0985092 0.000175091 0)
(0.0984472 0.000185154 0)
(0.0983829 0.000195804 0)
(0.0983162 0.000207078 0)
(0.0982472 0.000219018 0)
(0.0981756 0.000231671 0)
(0.0981014 0.000245089 0)
(0.0980246 0.000259332 0)
(0.0979449 0.000274469 0)
(0.0978623 0.000290582 0)
(0.0977767 0.000307767 0)
(0.0976878 0.000326136 0)
(0.0975957 0.000345825 0)
(0.0975001 0.000366996 0)
(0.0974009 0.000389848 0)
(0.0972978 0.000414627 0)
(0.0971906 0.000441643 0)
(0.0970791 0.000471294 0)
(0.0969631 0.000504099 0)
(0.0968421 0.000540734 0)
(0.0967158 0.000581904 0)
(0.096584 0.000627625 0)
(0.0964461 0.00067531 0)
(0.0963022 0.00071721 0)
(0.11209 0.000230109 0)
(0.0912231 0.000625893 0)
(0.103822 0.000104905 0)
(0.0983146 0.000108417 0)
(0.0995216 -3.86555e-05 0)
(0.09965 -2.63613e-05 0)
(0.0994747 4.93094e-06 0)
(0.0994844 2.39762e-05 0)
(0.0994717 3.99029e-05 0)
(0.099444 5.17111e-05 0)
(0.099417 6.0289e-05 0)
(0.0993884 6.70867e-05 0)
(0.0993581 7.28861e-05 0)
(0.0993264 7.81492e-05 0)
(0.0992935 8.31815e-05 0)
(0.0992594 8.8181e-05 0)
(0.0992241 9.32763e-05 0)
(0.0991876 9.85574e-05 0)
(0.0991498 0.00010409 0)
(0.0991107 0.00010992 0)
(0.0990703 0.000116084 0)
(0.0990285 0.000122612 0)
(0.0989852 0.00012953 0)
(0.0989404 0.000136863 0)
(0.098894 0.000144636 0)
(0.0988459 0.000152872 0)
(0.0987962 0.000161595 0)
(0.0987446 0.00017083 0)
(0.0986912 0.000180605 0)
(0.0986358 0.000190948 0)
(0.0985785 0.000201891 0)
(0.098519 0.000213466 0)
(0.0984575 0.000225711 0)
(0.0983937 0.000238665 0)
(0.0983277 0.000252374 0)
(0.0982592 0.000266887 0)
(0.0981884 0.000282259 0)
(0.098115 0.000298552 0)
(0.0980389 0.000315836 0)
(0.0979601 0.000334192 0)
(0.0978785 0.000353714 0)
(0.097794 0.000374512 0)
(0.0977064 0.000396715 0)
(0.0976157 0.000420474 0)
(0.0975216 0.000445973 0)
(0.0974241 0.000473432 0)
(0.0973231 0.000503122 0)
(0.0972183 0.000535381 0)
(0.0971096 0.000570637 0)
(0.0969969 0.000609445 0)
(0.09688 0.000652517 0)
(0.0967586 0.000700589 0)
(0.0966328 0.00075368 0)
(0.0965023 0.000809124 0)
(0.0963668 0.000858967 0)
(0.112132 0.000247518 0)
(0.0912869 0.000725606 0)
(0.103883 0.00010806 0)
(0.0984003 0.000144554 0)
(0.0995483 -3.56724e-05 0)
(0.0996812 -2.22342e-05 0)
(0.0994947 1.22734e-05 0)
(0.0994974 3.2127e-05 0)
(0.0994824 4.94258e-05 0)
(0.0994531 6.24751e-05 0)
(0.099425 7.20446e-05 0)
(0.099396 7.97277e-05 0)
(0.0993654 8.63601e-05 0)
(0.0993337 9.24351e-05 0)
(0.0993009 9.82828e-05 0)
(0.0992669 0.00010412 0)
(0.0992318 0.000110088 0)
(0.0991955 0.000116287 0)
(0.099158 0.000122789 0)
(0.0991192 0.000129646 0)
(0.0990791 0.000136899 0)
(0.0990376 0.000144583 0)
(0.0989947 0.000152727 0)
(0.0989502 0.00016136 0)
(0.0989042 0.000170511 0)
(0.0988566 0.000180206 0)
(0.0988072 0.000190474 0)
(0.0987561 0.000201343 0)
(0.0987031 0.000212845 0)
(0.0986483 0.000225013 0)
(0.0985915 0.000237883 0)
(0.0985327 0.000251493 0)
(0.0984718 0.000265887 0)
(0.0984087 0.000281109 0)
(0.0983434 0.000297211 0)
(0.0982757 0.00031425 0)
(0.0982057 0.000332288 0)
(0.0981332 0.000351395 0)
(0.0980582 0.00037165 0)
(0.0979805 0.000393143 0)
(0.0979001 0.000415978 0)
(0.0978169 0.000440275 0)
(0.0977308 0.000466174 0)
(0.0976417 0.000493839 0)
(0.0975495 0.000523464 0)
(0.0974541 0.000555283 0)
(0.0973554 0.000589576 0)
(0.0972534 0.000626691 0)
(0.0971479 0.000667061 0)
(0.097039 0.000711241 0)
(0.0969265 0.000759931 0)
(0.0968106 0.000813846 0)
(0.0966914 0.000873005 0)
(0.0965689 0.000934849 0)
(0.0964426 0.000991773 0)
(0.095998 8.56864e-05 -6.64803e-24)
(0.0958295 8.27554e-05 -6.75558e-24)
(0.0956729 7.4121e-05 -3.97995e-26)
(0.0955384 6.17303e-05 2.06752e-23)
(0.0954301 4.94085e-05 -6.85318e-24)
(0.0953436 4.09952e-05 -7.0227e-24)
(0.095268 3.8752e-05 -2.15392e-23)
(0.0951905 4.29092e-05 2.14036e-23)
(0.0950995 5.22231e-05 7.29612e-24)
(0.094987 6.48948e-05 0)
(0.0948485 7.92935e-05 7.50248e-24)
(0.094682 9.41386e-05 -7.61384e-24)
(0.0944873 0.000108695 6.24131e-23)
(0.0942657 0.000123397 -1.33608e-22)
(0.0940174 0.000138059 7.13248e-23)
(0.0937425 0.000152795 5.75281e-23)
(0.0934404 0.000167866 7.38243e-23)
(0.0931105 0.000183546 -8.42664e-24)
(0.0927515 0.0002001 8.59048e-24)
(0.0923616 0.000217789 -8.76415e-24)
(0.0919386 0.000236884 0)
(0.0914798 0.000257686 9.14429e-24)
(0.0909819 0.00028053 -9.35261e-24)
(0.0904409 0.000305786 0)
(0.0898523 0.00033385 -9.81122e-24)
(0.0892106 0.000365139 0)
(0.0885098 0.000400116 -1.03346e-23)
(0.0877431 0.00043933 -1.72665e-22)
(0.0869022 0.000483481 1.83337e-22)
(0.0859779 0.000533471 -1.83414e-22)
(0.0849589 0.000590428 1.83135e-22)
(0.0838319 0.000655723 0)
(0.0825808 0.000731002 0)
(0.0811865 0.000818266 2.23488e-22)
(0.0796259 0.000920029 -2.10273e-22)
(0.0778711 0.00103952 0)
(0.0758875 0.00118091 0)
(0.0736327 0.00134961 0)
(0.0710533 0.00155264 0)
(0.0680822 0.00179909 0)
(0.0646343 0.00210064 0)
(0.0606015 0.00247175 0)
(0.0558484 0.0029284 0)
(0.0502112 0.00348244 0)
(0.0435139 0.00412609 -2.16328e-23)
(0.0356217 0.00479889 -7.56373e-22)
(0.0265428 0.00533782 7.5524e-22)
(0.016635 0.00543213 8.36411e-22)
(0.00728282 0.00459899 -8.35156e-22)
(0.00150685 0.00219421 0)
(0.0960144 0.000255791 -6.71223e-24)
(0.0958472 0.000247526 -1.3647e-23)
(0.0956903 0.000222613 -7.10466e-24)
(0.095553 0.000186765 6.68404e-24)
(0.095439 0.000151209 -6.93392e-24)
(0.0953442 0.000127155 4.95152e-23)
(0.0952588 0.00012115 -7.77568e-23)
(0.0951709 0.000133806 7.19882e-24)
(0.0950701 0.000161465 9.57277e-23)
(0.0949491 0.000198818 -1.32234e-22)
(0.0948033 0.000241009 -1.28548e-22)
(0.0946307 0.000284151 1.1327e-22)
(0.0944319 0.000328021 0)
(0.0942075 0.00037177 7.86405e-24)
(0.093957 0.000415252 -2.39813e-23)
(0.0936804 0.000459041 -2.71009e-22)
(0.0933773 0.000503927 2.59475e-22)
(0.0930469 0.00055071 -2.75833e-22)
(0.0926877 0.000600167 -2.5813e-23)
(0.092298 0.000653069 8.78338e-24)
(0.0918755 0.000710225 0)
(0.0914175 0.000772526 -9.16797e-24)
(0.0909207 0.000840975 -2.94471e-22)
(0.0903812 0.00091668 6.14714e-22)
(0.0897944 0.00100082 3.37367e-22)
(0.0891551 0.00109466 -6.37526e-22)
(0.0884572 0.00119955 6.83798e-22)
(0.0876939 0.00131716 -6.93839e-22)
(0.0868573 0.00144957 -1.09789e-23)
(0.0859381 0.00159951 0)
(0.0849254 0.00177033 0)
(0.0838062 0.00196614 0)
(0.0825649 0.00219185 0)
(0.0811828 0.00245344 -1.29591e-23)
(0.0796377 0.00275843 -8.78656e-22)
(0.0779026 0.00311642 -3.73885e-23)
(0.0759447 0.00353988 9.13662e-22)
(0.0737232 0.00404489 9.97496e-22)
(0.0711876 0.00465229 -9.96174e-22)
(0.0682746 0.00538907 -3.32639e-23)
(0.0649044 0.00628986 -3.49067e-23)
(0.0609759 0.00739734 -1.2138e-21)
(0.0563624 0.0087581 1.17359e-21)
(0.0509102 0.0104053 -4.06577e-23)
(0.0444495 0.012312 2.17841e-23)
(0.036837 0.0142928 -1.54252e-21)
(0.0280389 0.0158584 1.54258e-21)
(0.0183099 0.0160869 -3.27857e-21)
(0.00880521 0.0135688 3.2235e-21)
(0.00215446 0.00642233 -3.3108e-21)
(0.0960461 0.000422676 -3.97697e-23)
(0.0958814 0.00041069 -1.38487e-23)
(0.0957234 0.00037248 5.36918e-23)
(0.09558 0.000317156 -1.09991e-22)
(0.0954542 0.000262536 2.35094e-22)
(0.0953427 0.000226265 -1.11251e-22)
(0.0952377 0.000218476 1.60039e-26)
(0.0951297 0.000239971 1.43656e-23)
(0.0950099 0.000284929 2.49577e-22)
(0.0948722 0.000344824 -2.34758e-22)
(0.094712 0.000411976 0)
(0.0945291 0.000482545 1.38156e-26)
(0.0943232 0.000554061 0)
(0.0940927 0.000625002 2.69934e-22)
(0.0938376 0.000695756 -2.37938e-22)
(0.093558 0.000767397 -5.10508e-22)
(0.0932529 0.000841169 2.70877e-23)
(0.0929214 0.000918331 -5.36289e-22)
(0.0925619 0.00100013 1.72737e-23)
(0.0921724 0.00108779 -5.70425e-22)
(0.0917508 0.00118264 5.87885e-22)
(0.0912943 0.00128613 -5.96368e-22)
(0.0907996 0.00139992 6.14636e-22)
(0.090263 0.00152586 1.9288e-23)
(0.0896799 0.00166591 -1.97749e-23)
(0.0890452 0.00182213 2.02942e-23)
(0.088353 0.00199681 -6.7753e-22)
(0.0875965 0.00219269 6.98362e-22)
(0.0867683 0.00241328 7.40536e-22)
(0.0858593 0.00266306 -7.17778e-22)
(0.0848592 0.00294764 0)
(0.0837556 0.00327379 0)
(0.0825337 0.0036496 2.51304e-23)
(0.0811761 0.00408498 1.729e-21)
(0.0796622 0.00459234 4.13926e-23)
(0.0779669 0.00518753 -1.73999e-21)
(0.0760604 0.00589098 0)
(0.0739059 0.00672905 -3.05225e-23)
(0.0714587 0.00773574 2.13123e-21)
(0.0686632 0.00895503 -4.26384e-21)
(0.0654503 0.0104431 4.54254e-21)
(0.0617333 0.0122686 1.55892e-22)
(0.0574036 0.0145045 -2.38485e-21)
(0.0523268 0.0171982 -2.63873e-21)
(0.0463445 0.0202924 2.71955e-21)
(0.0392918 0.0234675 1.76702e-24)
(0.0310453 0.0259088 -4.76569e-23)
(0.0216553 0.0261097 3.18606e-21)
(0.0118066 0.021846 -3.08507e-21)
(0.00338825 0.0102304 -3.08743e-21)
(0.096092 0.00058486 2.62295e-23)
(0.0959301 0.000571881 -1.32807e-23)
(0.0957699 0.000525143 2.35176e-26)
(0.0956169 0.000456797 1.36082e-23)
(0.0954735 0.000389681 -2.32922e-26)
(0.0953378 0.000346307 2.24877e-22)
(0.0952047 0.000339426 -4.24463e-22)
(0.0950681 0.000369828 2.27875e-22)
(0.0949218 0.000429975 -1.45427e-23)
(0.0947607 0.000509595 2.67842e-22)
(0.0945829 0.000599591 -2.38214e-22)
(0.0943866 0.000694447 -4.92081e-22)
(0.0941693 0.000789738 9.92393e-22)
(0.0939305 0.000884886 -1.00958e-21)
(0.0936696 0.000980664 1.02766e-21)
(0.093386 0.0010784 -1.03042e-21)
(0.0930784 0.00117968 -5.44861e-22)
(0.0927455 0.00128612 2.22923e-26)
(0.0923856 0.00139938 0)
(0.0919967 0.00152108 -5.55762e-22)
(0.0915764 0.001653 5.73247e-22)
(0.0911222 0.00179713 0)
(0.0906307 0.00195576 -1.2298e-21)
(0.0900984 0.00213147 1.20989e-21)
(0.0895209 0.002327 1.99631e-23)
(0.0888931 0.00254522 -3.26967e-26)
(0.0882094 0.0027893 2.10362e-23)
(0.0874634 0.00306307 0)
(0.0866478 0.00337144 -4.64013e-26)
(0.0857543 0.00372068 0)
(0.0847733 0.00411853 -2.37375e-23)
(0.0836933 0.00457434 1.60131e-21)
(0.0825009 0.00509932 -1.60082e-21)
(0.0811806 0.00570714 -2.64351e-23)
(0.0797139 0.00641493 5.47754e-23)
(0.0780792 0.00724448 -1.88975e-21)
(0.0762509 0.00822373 1.83098e-21)
(0.0741984 0.00938852 3.105e-23)
(0.0718857 0.010785 -3.53162e-25)
(0.0692691 0.0124725 3.35056e-23)
(0.0662963 0.0145263 -2.31537e-21)
(0.0629028 0.017037 4.70133e-21)
(0.0590077 0.0200974 -2.46141e-21)
(0.0545057 0.0237573 2.60746e-21)
(0.0492523 0.0279137 -2.7304e-21)
(0.0430423 0.032102 -5.58508e-21)
(0.0356015 0.0351961 1.1459e-20)
(0.0266721 0.0351543 -5.83393e-21)
(0.0163151 0.0290585 0)
(0.0051969 0.0134197 -5.50838e-21)
(0.0961511 0.000741427 -1.30118e-23)
(0.0959923 0.00073138 -5.30016e-23)
(0.0958292 0.000682824 1.60447e-22)
(0.0956645 0.000609582 -2.16279e-22)
(0.0954997 0.000537682 9.51746e-23)
(0.095335 0.000492755 1.39067e-23)
(0.0951688 0.000489531 -1.41082e-23)
(0.094999 0.000528976 -2.77649e-26)
(0.0948226 0.000602418 1.45399e-23)
(0.0946368 0.000698363 -2.95167e-23)
(0.0944389 0.00080698 -4.84035e-22)
(0.0942261 0.000920432 4.99522e-22)
(0.0939966 0.00103562 -4.85657e-22)
(0.093749 0.001152 5.01368e-22)
(0.0934822 0.00127037 0)
(0.0931945 0.00139224 -2.49317e-26)
(0.0928846 0.00151945 0)
(0.0925508 0.00165391 -5.35572e-22)
(0.0921912 0.00179757 5.70374e-22)
(0.0918036 0.00195241 -1.78599e-23)
(0.0913858 0.00212059 -1.20045e-21)
(0.0909351 0.00230459 1.18271e-21)
(0.0904485 0.00250734 -1.91702e-23)
(0.0899225 0.00273211 0)
(0.0893529 0.00298241 0)
(0.088735 0.00326189 -1.36573e-21)
(0.0880633 0.00357459 1.32426e-21)
(0.0873319 0.00392542 0)
(0.0865341 0.00432065 -4.52561e-23)
(0.0856624 0.00476828 0)
(0.084708 0.0052781 2.41539e-23)
(0.0836609 0.00586189 -2.49179e-23)
(0.0825096 0.00653378 -2.58864e-23)
(0.0812408 0.00731101 2.67413e-23)
(0.0798393 0.00821507 1.75895e-21)
(0.0782877 0.00927316 -1.8154e-21)
(0.0765665 0.0105199 3.9601e-21)
(0.0746535 0.0119994 -3.96285e-21)
(0.0725243 0.0137682 4.23839e-21)
(0.0701518 0.0158986 1.48382e-22)
(0.0675067 0.0184814 -4.49318e-21)
(0.0645554 0.0216234 -3.65722e-23)
(0.061256 0.0254286 1.29657e-24)
(0.0575418 0.0299371 1.78434e-24)
(0.0532847 0.0349865 2.4717e-24)
(0.0482197 0.039965 -8.36384e-23)
(0.0418575 0.0434742 -3.94934e-23)
(0.03351 0.0430307 -3.79259e-23)
(0.0224653 0.035117 0)
(0.00758301 0.0159458 1.05994e-23)
(0.0962236 0.000891399 -6.45686e-23)
(0.096069 0.000888737 3.8839e-23)
(0.0959039 0.000846005 1.32415e-23)
(0.095728 0.000777141 2.02657e-22)
(0.0955426 0.000709368 -2.02762e-22)
(0.0953501 0.00066942 2.08851e-22)
(0.0951529 0.000672689 -4.63142e-22)
(0.094952 0.000720487 6.57683e-22)
(0.0947472 0.000804281 -4.60354e-22)
(0.0945372 0.000912124 -4.75435e-22)
(0.0943197 0.00103359 -2.27549e-23)
(0.0940921 0.0011619 9.62157e-22)
(0.0938519 0.00129394 -1.01118e-21)
(0.0935969 0.00142907 4.71139e-22)
(0.0933253 0.00156813 5.06086e-22)
(0.0930349 0.00171277 5.26699e-22)
(0.0927241 0.00186497 -3.81953e-23)
(0.0923909 0.00202686 1.07349e-21)
(0.0920332 0.00220063 1.10363e-21)
(0.091649 0.00238855 2.53533e-23)
(0.0912358 0.00259316 -1.16754e-21)
(0.0907912 0.00281742 0)
(0.0903123 0.00306484 0)
(0.0897957 0.00333943 -1.29101e-21)
(0.0892378 0.00364545 1.27248e-21)
(0.088634 0.00398733 1.3659e-21)
(0.0879795 0.00437002 -1.36792e-21)
(0.0872687 0.00479954 0)
(0.0864958 0.00528358 1.52068e-21)
(0.0856542 0.00583183 -1.52361e-21)
(0.0847366 0.00645612 0)
(0.0837345 0.00717059 -3.2904e-21)
(0.0826389 0.00799216 3.32085e-21)
(0.0814393 0.00894146 -2.74158e-23)
(0.0801245 0.010044 -3.67791e-21)
(0.0786828 0.0113317 3.71196e-21)
(0.077102 0.0128449 0)
(0.0753706 0.0146341 4.20543e-21)
(0.0734789 0.0167632 -4.17965e-21)
(0.071421 0.0193121 3.43365e-23)
(0.0691973 0.0223787 4.7252e-21)
(0.0668156 0.0260723 -9.54577e-21)
(0.0642849 0.0304873 -5.33887e-23)
(0.0615907 0.0356275 -4.38167e-23)
(0.0586282 0.0412464 5.16853e-21)
(0.0550649 0.0465861 4.54222e-24)
(0.0501581 0.0500489 -4.69825e-21)
(0.04267 0.048893 4.81625e-21)
(0.0308067 0.0392905 0)
(0.0108526 0.0174332 4.43798e-23)
(0.0963085 0.00103302 1.27306e-23)
(0.0961607 0.00104123 1.16967e-22)
(0.0959976 0.00101063 -1.04302e-22)
(0.0958165 0.000954312 1.3343e-23)
(0.095618 0.00089846 2.04504e-22)
(0.095406 0.000868993 -2.04858e-22)
(0.0951856 0.000880857 -4.36972e-22)
(0.0949612 0.000935785 7.50526e-24)
(0.0947348 0.00102636 -7.08584e-24)
(0.0945065 0.00114183 4.83203e-22)
(0.0942745 0.00127261 -4.69893e-22)
(0.0940362 0.00141247 9.95987e-22)
(0.0937886 0.00155843 -4.95727e-22)
(0.0935292 0.00170991 1.5963e-23)
(0.0932555 0.0018678 1.62984e-23)
(0.0929651 0.00203378 1.07488e-21)
(0.0926562 0.00220996 -4.59035e-24)
(0.0923264 0.00239859 1.11949e-21)
(0.0919739 0.00260207 1.78271e-23)
(0.0915965 0.00282297 0)
(0.0911918 0.00306418 0)
(0.0907576 0.00332919 -1.24312e-21)
(0.0902911 0.00362214 1.24626e-21)
(0.0897894 0.00394778 0)
(0.0892492 0.00431114 2.08573e-23)
(0.0886666 0.00471749 0)
(0.0880374 0.00517278 -1.43533e-21)
(0.0873569 0.00568431 2.92024e-21)
(0.0866201 0.00626133 -1.48501e-21)
(0.0858219 0.00691544 -3.14075e-21)
(0.0849565 0.00766061 -1.03466e-22)
(0.0840179 0.00851354 -1.10443e-22)
(0.0829996 0.00949414 -1.17743e-22)
(0.081895 0.0106266 3.52928e-21)
(0.0806979 0.0119405 3.7961e-21)
(0.0794029 0.0134725 -3.80515e-21)
(0.0780067 0.0152681 0)
(0.0765098 0.0173829 4.26159e-21)
(0.074919 0.019885 -4.27149e-21)
(0.0732514 0.0228554 -4.6184e-21)
(0.0715394 0.0263851 4.59328e-21)
(0.0698345 0.0305601 3.80754e-23)
(0.0682012 0.0354215 4.8727e-21)
(0.0666845 0.0408726 -3.35433e-23)
(0.065219 0.0465111 -4.93909e-21)
(0.0634472 0.0513899 3.85357e-23)
(0.0604561 0.0537917 0)
(0.0545769 0.0510771 -3.19445e-23)
(0.042724 0.0398703 -1.83281e-21)
(0.0172186 0.0170287 6.20126e-22)
(-0.000393798 0.000335525 0)
(-0.000780578 -5.50136e-05 2.8149e-22)
(0.000163708 -0.00103775 -2.81911e-22)
(0.00312284 -0.00221168 -2.26345e-22)
(0.00812059 -0.00325823 2.26685e-22)
(0.0146938 -0.00397369 -5.507e-24)
(0.0221748 -0.00429952 0)
(0.029912 -0.00428687 0)
(0.0373982 -0.00403719 0)
(0.0443111 -0.00365508 0)
(0.0504945 -0.00322349 0)
(0.0559132 -0.00279721 0)
(0.0606058 -0.00240648 0)
(0.0646475 -0.00206401 0)
(0.0681255 -0.0017718 0)
(0.0711253 -0.00152617 2.0267e-23)
(0.0737235 -0.00132115 -1.90086e-23)
(0.0759858 -0.00115028 0)
(0.0779671 -0.00100754 0)
(0.0797125 -0.000887746 -2.0618e-23)
(0.0812587 -0.000786584 2.06495e-23)
(0.0826358 -0.000700576 -1.94532e-23)
(0.0838681 -0.000626958 1.30772e-24)
(0.0849759 -0.000563539 0)
(0.0859758 -0.000508572 1.30253e-24)
(0.0868817 -0.000460659 0)
(0.0877053 -0.000418682 0)
(0.0884565 -0.00038175 0)
(0.0891439 -0.000349138 1.26822e-24)
(0.0897747 -0.000320238 0)
(0.0903552 -0.000294535 -1.24204e-24)
(0.0908909 -0.000271595 1.22733e-24)
(0.0913865 -0.000251057 -1.21177e-24)
(0.091846 -0.000232625 1.06719e-23)
(0.0922732 -0.000216051 -1.06697e-23)
(0.0926712 -0.00020113 -8.04144e-24)
(0.0930429 -0.000187687 1.71348e-23)
(0.0933909 -0.000175575 -9.0754e-24)
(0.0937175 -0.000164672 -1.10741e-24)
(0.0940249 -0.000154879 1.08908e-24)
(0.094315 -0.000146123 0)
(0.0945897 -0.000138356 1.05226e-24)
(0.0948509 -0.000131556 -5.12802e-24)
(0.0951003 -0.000125736 5.11608e-24)
(0.0953398 -0.000120954 -9.97328e-25)
(0.0955714 -0.00011732 2.91797e-24)
(0.0957975 -0.000114986 -9.80434e-25)
(0.0960207 -0.000114051 -1.87767e-24)
(0.0962437 -0.000114256 9.35532e-25)
(0.0964681 -0.000114463 -9.08971e-25)
(-0.000302938 0.000847019 -1.20967e-21)
(-0.000206837 -0.000442349 -1.20767e-21)
(0.00156519 -0.0032952 1.18916e-21)
(0.00525889 -0.00668104 -4.60101e-22)
(0.0106983 -0.00969547 4.63026e-22)
(0.0173961 -0.0117566 5.54487e-24)
(0.0247443 -0.0126964 -9.65438e-24)
(0.0321882 -0.0126586 -2.14488e-22)
(0.0393131 -0.0119323 2.0708e-22)
(0.0458632 -0.0108181 -4.95699e-24)
(0.0517207 -0.00955605 -4.13492e-24)
(0.0568662 -0.00830603 1.01641e-22)
(0.06134 -0.0071571 -1.01777e-22)
(0.0652117 -0.00614743 -8.86113e-23)
(0.0685602 -0.00528375 2.75133e-24)
(0.0714624 -0.00455609 8.60935e-23)
(0.0739873 -0.00394745 -1.29556e-24)
(0.0761946 -0.00343926 -2.70671e-24)
(0.0781343 -0.00301411 0)
(0.079848 -0.00265684 0)
(0.0813699 -0.00235483 0)
(0.0827281 -0.00209785 -1.31212e-24)
(0.0839457 -0.00187771 8.03906e-23)
(0.0850418 -0.00168794 -8.71542e-23)
(0.0860324 -0.00152336 8.24397e-23)
(0.0869308 -0.00137982 -4.22363e-23)
(0.0877482 -0.00125403 -8.2994e-23)
(0.0884944 -0.00114334 4.13712e-23)
(0.0891776 -0.00104561 -1.2715e-24)
(0.0898048 -0.000959004 -2.53506e-24)
(0.0903824 -0.00088198 1.24475e-24)
(0.0909155 -0.000813234 -3.70274e-24)
(0.0914089 -0.000751684 3.73884e-23)
(0.0918665 -0.000696442 -7.79316e-23)
(0.0922919 -0.000646773 3.69303e-23)
(0.0926884 -0.000602056 -3.49579e-24)
(0.0930587 -0.000561766 1.14471e-24)
(0.0934054 -0.00052546 0)
(0.0937308 -0.000492768 -1.8694e-23)
(0.094037 -0.000463395 1.65152e-23)
(0.094326 -0.000437115 1.48369e-23)
(0.0945996 -0.000413776 -2.01649e-23)
(0.0948595 -0.00039331 1.03362e-24)
(0.0951075 -0.000375743 4.99678e-24)
(0.0953454 -0.00036123 -9.0532e-24)
(0.095575 -0.000350078 -9.78404e-25)
(0.0957986 -0.000342716 -6.68501e-24)
(0.0960185 -0.000339412 -8.66465e-25)
(0.096237 -0.000339408 1.9062e-24)
(0.0964558 -0.000339378 2.74087e-24)
(-7.42429e-05 0.000886781 -1.35902e-21)
(0.00107927 -0.00152423 1.32419e-21)
(0.00445743 -0.0060398 -1.28448e-21)
(0.00948118 -0.0112734 -1.69164e-23)
(0.0157074 -0.0158982 -1.41114e-24)
(0.0226047 -0.0190595 -7.2129e-22)
(0.0296778 -0.0205046 7.45229e-22)
(0.0365531 -0.0204422 4.82741e-22)
(0.0429864 -0.0193054 -8.56092e-23)
(0.0488451 -0.0175525 -6.92491e-22)
(0.0540816 -0.0155554 5.85456e-22)
(0.0587057 -0.0135656 -2.62502e-22)
(0.0627609 -0.0117262 -3.74117e-24)
(0.0663063 -0.0101009 0)
(0.0694051 -0.00870346 1.92731e-22)
(0.0721182 -0.00752062 -8.62692e-24)
(0.0745003 -0.00652711 -1.81342e-22)
(0.0765997 -0.00569454 5.6541e-24)
(0.0784575 -0.00499587 0)
(0.0801086 -0.00440728 0)
(0.0815822 -0.00390871 8.78878e-23)
(0.0829028 -0.00348377 -8.51733e-23)
(0.0840908 -0.00311928 -8.42648e-23)
(0.0851634 -0.0028047 8.97245e-23)
(0.0861351 -0.00253163 2.7272e-24)
(0.0870182 -0.0022933 -2.70062e-24)
(0.0878232 -0.00208432 2.67217e-24)
(0.0885591 -0.00190037 -8.06597e-23)
(0.0892337 -0.00173791 8.33804e-23)
(0.0898538 -0.00159391 -7.61953e-23)
(0.0904253 -0.00146581 8.13955e-23)
(0.0909533 -0.00135145 2.48275e-24)
(0.0914421 -0.00124904 7.7951e-23)
(0.0918957 -0.00115712 -1.52399e-22)
(0.0923176 -0.00107448 7.9233e-23)
(0.0927109 -0.00100007 3.95119e-23)
(0.0930784 -0.000933024 -3.48967e-23)
(0.0934225 -0.000872593 0)
(0.0937455 -0.000818155 -8.18165e-27)
(0.0940494 -0.000769205 0)
(0.0943361 -0.000725358 3.40402e-23)
(0.0946074 -0.000686344 -3.19709e-23)
(0.0948649 -0.000652025 2.07277e-24)
(0.0951102 -0.000622413 -3.24857e-27)
(0.095345 -0.000597712 1.57851e-23)
(0.0955709 -0.000578357 -2.93319e-23)
(0.0957898 -0.00056497 1.54992e-23)
(0.0960035 -0.000557926 -7.44786e-24)
(0.096214 -0.000555998 5.64743e-24)
(0.0964223 -0.000553952 1.84613e-24)
(0.000503044 0.000321998 -3.15213e-21)
(0.00340888 -0.00357676 0)
(0.00892246 -0.00950951 2.64562e-21)
(0.015653 -0.016044 -5.02452e-21)
(0.0228284 -0.0217325 2.39225e-21)
(0.0299015 -0.025615 8.18422e-22)
(0.0365442 -0.0273945 -8.60775e-22)
(0.0426194 -0.0273046 5.64696e-22)
(0.0481015 -0.0258565 -1.03213e-21)
(0.0530143 -0.0236075 4.6007e-22)
(0.0574005 -0.0210219 5.96165e-24)
(0.0613078 -0.0184221 8.20042e-25)
(0.0647839 -0.0159977 3.80525e-24)
(0.0678744 -0.0138378 -2.33785e-22)
(0.070622 -0.0119667 2.26567e-22)
(0.0730664 -0.0103719 6.63003e-24)
(0.0752439 -0.00902425 -3.02737e-24)
(0.0771872 -0.00788889 1.95048e-22)
(0.0789253 -0.00693184 -1.94855e-22)
(0.0804841 -0.0061226 -3.07108e-24)
(0.0818859 -0.00543508 0)
(0.0831501 -0.00484767 1.33122e-25)
(0.0842934 -0.00434281 0)
(0.0853302 -0.00390637 2.87811e-24)
(0.086273 -0.00352701 8.29235e-26)
(0.0871325 -0.00319558 2.72623e-24)
(0.0879181 -0.00290476 -1.75743e-22)
(0.088638 -0.00264861 1.73161e-22)
(0.0892993 -0.00242226 0)
(0.0899083 -0.00222153 -8.2891e-23)
(0.0904703 -0.00204286 8.55528e-23)
(0.09099 -0.00188329 0)
(0.0914717 -0.00174037 -2.66502e-26)
(0.091919 -0.00161209 -8.01826e-23)
(0.0923353 -0.00149674 1.56592e-22)
(0.0927237 -0.0013929 -1.51486e-22)
(0.0930866 -0.00129932 1.48804e-22)
(0.0934267 -0.00121493 -1.46086e-22)
(0.0937459 -0.00113887 7.23685e-23)
(0.0940463 -0.0010704 3.48319e-23)
(0.0943296 -0.00100896 -3.05298e-23)
(0.0945974 -0.00095416 -2.11869e-24)
(0.0948513 -0.000905751 -3.28404e-23)
(0.0950928 -0.00086369 6.91201e-23)
(0.0953232 -0.000828163 -3.22112e-23)
(0.0955439 -0.00079964 2.53504e-27)
(0.0957563 -0.000778811 1.91261e-24)
(0.0959617 -0.000766061 -1.00695e-27)
(0.0961615 -0.000759764 -1.83658e-24)
(0.0963562 -0.000753218 3.59841e-24)
(0.00156101 -0.00108974 -2.89058e-24)
(0.00712094 -0.00687777 -2.91471e-23)
(0.0150944 -0.0138124 -2.61476e-23)
(0.0235539 -0.0209466 -2.33264e-23)
(0.03156 -0.0270361 -3.91494e-23)
(0.0386459 -0.0311921 -1.84921e-24)
(0.0446932 -0.0331114 1.32202e-23)
(0.049812 -0.0330026 -1.26181e-23)
(0.0541946 -0.0313738 -1.0525e-23)
(0.0580215 -0.0288093 9.25792e-22)