/*--------------------------------*- C++ -*----------------------------------*\
| =========                 |                                                 |
| \\      /  F ield         | OpenFOAM: The Open Source CFD Toolbox           |
|  \\    /   O peration     | Version:  2412                                  |
|   \\  /    A nd           | Website:  www.openfoam.com                      |
|    \\/     M anipulation  |                                                 |
\*---------------------------------------------------------------------------*/
FoamFile
{
    version     2.0;
    format      ascii;
    arch        "LSB;label=32;scalar=64";
    class       volVectorField;
    location    "2";
    object      vorticity;
}
// * * * * * * * * * * * * * * * * * * * * * * * * * * * * * * * * * * * * * //

dimensions      [0 0 -1 0 0 0 0];

internalField   nonuniform List<vector> 
63420
(
(0 0 0.000257814)
(0 0 -5.2807e-08)
(0 0 -0.000180057)
(0 0 -0.000146137)
(0 0 -6.85783e-05)
(0 0 -2.07043e-05)
(0 0 -1.21184e-06)
(0 0 5.05901e-06)
(0 0 6.86184e-06)
(0 0 7.39097e-06)
(0 0 7.56949e-06)
(0 0 7.67718e-06)
(0 0 7.76495e-06)
(0 0 7.85462e-06)
(0 0 7.93434e-06)
(0 0 8.03086e-06)
(0 0 8.12138e-06)
(0 0 8.18491e-06)
(0 0 8.26771e-06)
(0 0 8.37348e-06)
(0 0 8.47486e-06)
(0 0 8.57105e-06)
(0 0 8.66253e-06)
(0 0 8.7539e-06)
(0 0 8.85179e-06)
(0 0 8.95819e-06)
(0 0 9.07231e-06)
(0 0 9.195e-06)
(0 0 9.3247e-06)
(0 0 9.45595e-06)
(0 0 9.59151e-06)
(0 0 9.73572e-06)
(0 0 9.89802e-06)
(0 0 1.00762e-05)
(0 0 1.02694e-05)
(0 0 1.04759e-05)
(0 0 1.07028e-05)
(0 0 1.09512e-05)
(0 0 1.12201e-05)
(0 0 1.151e-05)
(0 0 1.18267e-05)
(0 0 1.21802e-05)
(0 0 1.25815e-05)
(0 0 1.30392e-05)
(0 0 1.35647e-05)
(0 0 1.41742e-05)
(0 0 1.48974e-05)
(0 0 1.57861e-05)
(0 0 1.6932e-05)
(0 0 1.84623e-05)
(0 0 2.02994e-05)
(0 0 2.10282e-05)
(0 0 1.51471e-05)
(0 0 -9.67901e-06)
(0 6.59662e-23 -6.86571e-05)
(0 0 0.000760048)
(0 0 -5.17994e-05)
(0 0 -0.000575578)
(0 0 -0.0004569)
(0 0 -0.000214687)
(0 0 -6.74508e-05)
(0 0 -7.77581e-06)
(0 0 1.13901e-05)
(0 0 1.68497e-05)
(0 0 1.83977e-05)
(0 0 1.89211e-05)
(0 0 1.92222e-05)
(0 0 1.94642e-05)
(0 0 1.96898e-05)
(0 0 1.99091e-05)
(0 0 2.01416e-05)
(0 0 2.03655e-05)
(0 0 2.0576e-05)
(0 0 2.08117e-05)
(0 0 2.10758e-05)
(0 0 2.13385e-05)
(0 0 2.15959e-05)
(0 0 2.18548e-05)
(0 0 2.21262e-05)
(0 0 2.2413e-05)
(0 0 2.27156e-05)
(0 0 2.30368e-05)
(0 0 2.33849e-05)
(0 0 2.37573e-05)
(0 0 2.41481e-05)
(0 0 2.45604e-05)
(0 0 2.5002e-05)
(0 0 2.5481e-05)
(0 0 2.59973e-05)
(0 0 2.65534e-05)
(0 0 2.7154e-05)
(0 0 2.7808e-05)
(0 0 2.85186e-05)
(0 0 2.92904e-05)
(0 0 3.01384e-05)
(0 0 3.1085e-05)
(0 0 3.21529e-05)
(0 0 3.33646e-05)
(0 0 3.47444e-05)
(0 0 3.633e-05)
(0 0 3.81812e-05)
(0 0 4.03919e-05)
(0 0 4.31178e-05)
(0 0 4.66259e-05)
(0 0 5.12838e-05)
(0 0 5.68643e-05)
(0 0 5.92527e-05)
(0 0 4.24537e-05)
(0 0 -2.93677e-05)
(0 6.6522e-23 -0.000200238)
(0 0 0.00122467)
(0 0 -0.000242464)
(0 0 -0.00106687)
(0 0 -0.000817074)
(0 0 -0.000385402)
(0 0 -0.000129235)
(0 0 -2.64315e-05)
(0 0 6.38734e-06)
(0 0 1.56222e-05)
(0 0 1.812e-05)
(0 0 1.88852e-05)
(0 0 1.92663e-05)
(0 0 1.95517e-05)
(0 0 1.98092e-05)
(0 0 2.00711e-05)
(0 0 2.03407e-05)
(0 0 2.06034e-05)
(0 0 2.08753e-05)
(0 0 2.1177e-05)
(0 0 2.15098e-05)
(0 0 2.18503e-05)
(0 0 2.21911e-05)
(0 0 2.25434e-05)
(0 0 2.29246e-05)
(0 0 2.33343e-05)
(0 0 2.37719e-05)
(0 0 2.42428e-05)
(0 0 2.47595e-05)
(0 0 2.53195e-05)
(0 0 2.59187e-05)
(0 0 2.65614e-05)
(0 0 2.7258e-05)
(0 0 2.80141e-05)
(0 0 2.88326e-05)
(0 0 2.97205e-05)
(0 0 3.06883e-05)
(0 0 3.17463e-05)
(0 0 3.29006e-05)
(0 0 3.41639e-05)
(0 0 3.55648e-05)
(0 0 3.71399e-05)
(0 0 3.8924e-05)
(0 0 4.09514e-05)
(0 0 4.32637e-05)
(0 0 4.59248e-05)
(0 0 4.90346e-05)
(0 0 5.27475e-05)
(0 0 5.73146e-05)
(0 0 6.31627e-05)
(0 0 7.08794e-05)
(0 0 8.01261e-05)
(0 0 8.44822e-05)
(0 0 5.89417e-05)
(0 0 -5.24414e-05)
(0 3.93187e-22 -0.000317992)
(0 0 0.00162843)
(0 0 -0.000613114)
(0 0 -0.00166933)
(0 0 -0.00123299)
(0 0 -0.000585217)
(0 0 -0.000211112)
(0 0 -6.27078e-05)
(0 0 -1.57411e-05)
(0 0 -2.77882e-06)
(0 0 4.71195e-07)
(0 0 1.25621e-06)
(0 0 1.48988e-06)
(0 0 1.5988e-06)
(0 0 1.68127e-06)
(0 0 1.78313e-06)
(0 0 1.89276e-06)
(0 0 2.00574e-06)
(0 0 2.15511e-06)
(0 0 2.34144e-06)
(0 0 2.56257e-06)
(0 0 2.80293e-06)
(0 0 3.05801e-06)
(0 0 3.34188e-06)
(0 0 3.67401e-06)
(0 0 4.05192e-06)
(0 0 4.47422e-06)
(0 0 4.94852e-06)
(0 0 5.48734e-06)
(0 0 6.09032e-06)
(0 0 6.75609e-06)
(0 0 7.49222e-06)
(0 0 8.30842e-06)
(0 0 9.20878e-06)
(0 0 1.01988e-05)
(0 0 1.1292e-05)
(0 0 1.25024e-05)
(0 0 1.38417e-05)
(0 0 1.53203e-05)
(0 0 1.69592e-05)
(0 0 1.8798e-05)
(0 0 2.08835e-05)
(0 0 2.32612e-05)
(0 0 2.59781e-05)
(0 0 2.90927e-05)
(0 0 3.26922e-05)
(0 0 3.69114e-05)
(0 0 4.19549e-05)
(0 0 4.81512e-05)
(0 0 5.60546e-05)
(0 0 6.64283e-05)
(0 0 7.88611e-05)
(0 0 8.52072e-05)
(0 0 5.37236e-05)
(0 0 -8.64612e-05)
(0 -2.58394e-22 -0.000421341)
(0 0 0.00195329)
(0 0 -0.00111051)
(0 0 -0.00232618)
(0 0 -0.00166988)
(0 0 -0.000799404)
(0 0 -0.000307504)
(0 0 -0.000114393)
(0 0 -5.38747e-05)
(0 0 -3.75907e-05)
(0 0 -3.39331e-05)
(0 0 -3.34453e-05)
(0 0 -3.36614e-05)
(0 0 -3.40169e-05)
(0 0 -3.43843e-05)
(0 0 -3.4714e-05)
(0 0 -3.50235e-05)
(0 0 -3.53117e-05)
(0 0 -3.55358e-05)
(0 0 -3.57124e-05)
(0 0 -3.58492e-05)
(0 0 -3.59523e-05)
(0 0 -3.60201e-05)
(0 0 -3.60363e-05)
(0 0 -3.59846e-05)
(0 0 -3.587e-05)
(0 0 -3.56916e-05)
(0 0 -3.54427e-05)
(0 0 -3.5113e-05)
(0 0 -3.46998e-05)
(0 0 -3.42e-05)
(0 0 -3.36048e-05)
(0 0 -3.29065e-05)
(0 0 -3.21022e-05)
(0 0 -3.11826e-05)
(0 0 -3.01294e-05)
(0 0 -2.89267e-05)
(0 0 -2.75624e-05)
(0 0 -2.60223e-05)
(0 0 -2.42785e-05)
(0 0 -2.22852e-05)
(0 0 -1.99896e-05)
(0 0 -1.7339e-05)
(0 0 -1.42763e-05)
(0 0 -1.0729e-05)
(0 0 -6.59335e-06)
(0 0 -1.71165e-06)
(0 0 4.15317e-06)
(0 0 1.13761e-05)
(0 0 2.05872e-05)
(0 0 3.26489e-05)
(0 0 4.70887e-05)
(0 0 5.47032e-05)
(0 0 1.97495e-05)
(0 0 -0.000137371)
(0 1.27583e-22 -0.000512908)
(0 0 0.0021985)
(0 0 -0.00157264)
(0 0 -0.00290357)
(0 0 -0.00205399)
(0 0 -0.000992454)
(0 0 -0.000399242)
(0 0 -0.000167796)
(0 0 -9.5867e-05)
(0 0 -7.70251e-05)
(0 0 -7.33241e-05)
(0 0 -7.33842e-05)
(0 0 -7.42619e-05)
(0 0 -7.52767e-05)
(0 0 -7.62816e-05)
(0 0 -7.723e-05)
(0 0 -7.81352e-05)
(0 0 -7.89975e-05)
(0 0 -7.97737e-05)
(0 0 -8.04915e-05)
(0 0 -8.11639e-05)
(0 0 -8.17878e-05)
(0 0 -8.23555e-05)
(0 0 -8.2851e-05)
(0 0 -8.32636e-05)
(0 0 -8.36007e-05)
(0 0 -8.38583e-05)
(0 0 -8.40326e-05)
(0 0 -8.41159e-05)
(0 0 -8.41026e-05)
(0 0 -8.39861e-05)
(0 0 -8.37584e-05)
(0 0 -8.34144e-05)
(0 0 -8.29515e-05)
(0 0 -8.23572e-05)
(0 0 -8.1611e-05)
(0 0 -8.06987e-05)
(0 0 -7.96095e-05)
(0 0 -7.83266e-05)
(0 0 -7.68186e-05)
(0 0 -7.50391e-05)
(0 0 -7.29353e-05)
(0 0 -7.04521e-05)
(0 0 -6.75283e-05)
(0 0 -6.40857e-05)
(0 0 -6.00151e-05)
(0 0 -5.51534e-05)
(0 0 -4.92576e-05)
(0 0 -4.19474e-05)
(0 0 -3.25861e-05)
(0 0 -2.03162e-05)
(0 0 -5.69641e-06)
(0 0 1.6647e-06)
(0 0 -3.51782e-05)
(0 0 -0.000198314)
(0 6.29503e-22 -0.000587352)
(0 0 0.00240323)
(0 0 -0.00179446)
(0 0 -0.00325369)
(0 0 -0.00230567)
(0 0 -0.00112271)
(0 0 -0.000460738)
(0 0 -0.000202359)
(0 0 -0.000122463)
(0 0 -0.000101984)
(0 0 -9.84e-05)
(0 0 -9.89739e-05)
(0 0 -0.000100429)
(0 0 -0.000102008)
(0 0 -0.000103558)
(0 0 -0.000105039)
(0 0 -0.000106452)
(0 0 -0.000107807)
(0 0 -0.000109065)
(0 0 -0.000110258)
(0 0 -0.000111403)
(0 0 -0.00011249)
(0 0 -0.000113507)
(0 0 -0.000114442)
(0 0 -0.000115289)
(0 0 -0.000116055)
(0 0 -0.000116736)
(0 0 -0.000117332)
(0 0 -0.000117836)
(0 0 -0.000118241)
(0 0 -0.000118539)
(0 0 -0.000118724)
(0 0 -0.000118794)
(0 0 -0.000118745)
(0 0 -0.000118563)
(0 0 -0.000118229)
(0 0 -0.000117735)
(0 0 -0.000117071)
(0 0 -0.000116221)
(0 0 -0.000115152)
(0 0 -0.000113825)
(0 0 -0.000112191)
(0 0 -0.0001102)
(0 0 -0.000107793)
(0 0 -0.000104896)
(0 0 -0.00010141)
(0 0 -9.71846e-05)
(0 0 -9.20001e-05)
(0 0 -8.55143e-05)
(0 0 -7.71568e-05)
(0 0 -6.61841e-05)
(0 0 -5.32833e-05)
(0 0 -4.78872e-05)
(0 0 -8.56173e-05)
(0 0 -0.000245561)
(0 -1.23292e-22 -0.000624859)
(-1.49235e-23 8.10355e-21 -0.000175163)
(-2.07984e-22 7.93166e-21 -0.000300167)
(5.63774e-23 -2.80192e-22 -0.000393996)
(1.82518e-23 -2.37609e-20 -0.00040351)
(-1.35463e-22 8.20501e-21 -0.00030699)
(5.47771e-22 8.04376e-21 -0.000124906)
(-1.11791e-21 2.33195e-20 9.6037e-05)
(4.22259e-22 -2.38498e-20 0.000308567)
(8.71785e-22 -7.60823e-21 0.000482282)
(-1.28475e-21 -4.97674e-24 0.000607167)
(-1.30486e-21 -7.69624e-21 0.000687728)
(1.14607e-21 7.19251e-21 0.000734864)
(6.96055e-22 -6.03416e-20 0.000760043)
(-1.2387e-21 1.30374e-19 0.0007723)
(3.73618e-22 -7.07367e-20 0.000777546)
(-1.81874e-21 -5.3139e-20 0.000779199)
(3.17577e-21 -6.74715e-20 0.000779082)
(-2.57377e-21 8.16067e-21 0.000778145)
(-2.95807e-22 -7.46753e-21 0.000776781)
(1.3395e-22 7.50959e-21 0.000775273)
(-4.37563e-24 -1.78979e-22 0.000773838)
(-1.29912e-22 -7.22899e-21 0.000772646)
(-2.74278e-21 7.35269e-21 0.000771695)
(5.81059e-21 1.74229e-23 0.000770678)
(1.72669e-21 7.15477e-21 0.000769032)
(-4.5126e-21 -7.75998e-24 0.0007662)
(6.51446e-21 8.7532e-21 0.000762011)
(-7.14998e-21 1.08548e-19 0.000756947)
(4.54118e-22 -1.17021e-19 0.000752017)
(-2.40965e-21 1.07712e-19 0.000748201)
(2.33569e-21 -1.09326e-19 0.000745853)
(6.61443e-23 1.82903e-21 0.000744522)
(-8.5695e-23 -2.23508e-21 0.000743337)
(2.99234e-21 -1.04755e-19 0.000741765)
(-1.10561e-20 1.02526e-19 0.000740107)
(-4.3045e-22 -2.10085e-21 0.000739231)
(8.4245e-21 1.84252e-23 0.000739731)
(9.18019e-21 2.0078e-23 0.000741076)
(-9.15082e-21 -2.00137e-23 0.000740853)
(-3.04989e-22 -6.6704e-25 0.000732722)
(-3.19452e-22 -6.98673e-25 0.000699163)
(-1.10875e-20 -2.42495e-23 0.000589564)
(1.07002e-20 2.34025e-23 0.000263249)
(-3.59188e-22 2.15537e-22 -0.000634685)
(1.50379e-22 1.09267e-20 -0.00287829)
(-3.35351e-20 6.80796e-20 -0.00784964)
(3.22192e-20 -9.16186e-20 -0.017406)
(-9.10971e-21 -1.32552e-20 -0.033048)
(9.91397e-21 3.74463e-20 -0.0545161)
(-3.02576e-20 -8.40654e-21 -0.0787069)
(-3.55488e-22 8.13936e-21 -0.000508885)
(-1.06562e-22 1.59423e-20 -0.000870896)
(5.01542e-22 7.71547e-21 -0.00113981)
(-1.27084e-21 -7.96283e-21 -0.00116053)
(2.36391e-21 7.49282e-21 -0.000871002)
(-9.49046e-22 -5.44884e-20 -0.000332879)
(1.03823e-22 8.69828e-20 0.000316316)
(-1.08485e-22 -9.57528e-21 0.000938579)
(2.60423e-21 -1.00211e-19 0.00144601)
(-2.49133e-21 1.4266e-19 0.00181038)
(-5.19558e-22 1.29556e-19 0.00204551)
(3.14881e-22 -1.1755e-19 0.00218374)
(-5.56211e-22 1.04885e-21 0.00225861)
(3.93633e-21 -7.42983e-21 0.0022961)
(-2.9509e-21 2.57012e-20 0.00231325)
(-6.96366e-21 2.47854e-19 0.00232001)
(8.94751e-22 -2.34217e-19 0.00232174)
(-6.35374e-21 2.51742e-19 0.00232093)
(-2.59695e-22 1.96199e-20 0.00231885)
(-5.38205e-21 -7.72472e-21 0.00231623)
(5.65466e-21 2.02e-22 0.00231378)
(-5.61071e-21 1.02622e-20 0.00231209)
(3.27062e-21 2.1916e-19 0.00231112)
(4.31462e-21 -4.6933e-19 0.00230986)
(3.92371e-21 -2.21936e-19 0.00230653)
(-5.43051e-21 4.53344e-19 0.00229938)
(1.45199e-22 -4.55359e-19 0.00228793)
(2.29359e-21 4.68943e-19 0.00227372)
(4.54644e-21 3.63275e-24 0.00225983)
(-5.09374e-21 -1.33376e-22 0.0022491)
(-1.70523e-21 -3.72951e-24 0.00224245)
(0 0 0.00223842)
(2.51712e-22 1.30274e-22 0.0022344)
(1.51108e-20 1.52141e-20 0.00222882)
(-1.22923e-20 3.96024e-19 0.00222245)
(-2.04869e-20 -2.72016e-20 0.00221754)
(1.52217e-20 -3.95465e-19 0.00221532)
(2.38022e-20 -3.43086e-19 0.00221359)
(-3.09513e-22 3.71853e-19 0.00220424)
(-4.21589e-20 9.14097e-22 0.00216658)
(4.26563e-20 2.20804e-20 0.00204407)
(-4.02133e-20 2.79137e-19 0.0016759)
(1.42199e-20 -2.93659e-19 0.000622467)
(-2.48893e-20 1.93603e-20 -0.00220748)
(2.83072e-20 1.16977e-20 -0.00916011)
(-7.25073e-20 1.50597e-19 -0.0243736)
(7.27208e-20 -1.46837e-19 -0.0533484)
(-1.26131e-19 1.16527e-19 -0.100459)
(1.21471e-19 -1.31145e-19 -0.164801)
(-2.80672e-20 -1.02214e-21 -0.235205)
(1.04171e-22 4.8016e-20 -0.000798136)
(-4.62941e-23 1.49079e-20 -0.00136142)
(3.23286e-22 -6.25799e-20 -0.00177325)
(-3.84291e-22 1.24744e-19 -0.00178961)
(8.33024e-22 -2.68367e-19 -0.00131652)
(1.46675e-21 1.28395e-19 -0.000455896)
(-3.48994e-21 -1.26976e-21 0.000572954)
(2.10412e-21 -1.8132e-20 0.00155329)
(-8.5653e-23 -2.63096e-19 0.0023494)
(3.21337e-21 2.52084e-19 0.0029197)
(-1.23317e-21 -2.336e-21 0.00328802)
(-5.96349e-21 -5.05267e-23 0.00350611)
(9.52408e-21 -2.62718e-21 0.00362624)
(-7.93946e-21 -2.58831e-19 0.0036887)
(9.36294e-21 2.37927e-19 0.0037199)
(-1.17611e-20 4.69426e-19 0.00373519)
(-7.21144e-21 -1.32914e-20 0.00374256)
(-1.92635e-21 4.84547e-19 0.00374585)
(4.46274e-22 -1.47004e-20 0.00374681)
(-1.20121e-20 4.71691e-19 0.00374658)
(1.16969e-20 -4.91338e-19 0.0037464)
(-6.86277e-21 4.71167e-19 0.00374735)
(-2.81635e-21 -4.91661e-19 0.00374944)
(7.05892e-21 -8.22111e-21 0.00375088)
(-3.3357e-21 1.4421e-20 0.00374836)
(7.41056e-21 -7.76638e-21 0.00373878)
(-1.80308e-20 4.45896e-19 0.00372134)
(1.52041e-20 -4.80211e-19 0.0036988)
(1.58445e-20 -4.42839e-19 0.00367626)
(-1.16255e-20 4.49783e-19 0.00365817)
(-1.4921e-21 -7.12421e-21 0.00364556)
(1.54029e-20 -1.6639e-22 0.00363575)
(-1.80738e-20 -3.04251e-20 0.00362449)
(4.45314e-20 -8.33417e-19 0.00360925)
(2.04672e-20 6.35116e-20 0.00359092)
(-6.6138e-20 7.89852e-19 0.00357214)
(5.47989e-21 -1.69067e-20 0.0035535)
(-1.49809e-20 -9.46384e-21 0.00352964)
(1.04438e-19 -6.79479e-19 0.0034848)
(-1.85645e-19 1.35346e-18 0.00337946)
(1.81056e-19 -1.37541e-18 0.00310672)
(9.55737e-20 9.987e-20 0.00236887)
(-1.60047e-19 6.19499e-19 0.000374445)
(-1.73538e-19 4.38358e-19 -0.00478562)
(1.58754e-19 -5.30304e-19 -0.0171066)
(-3.32669e-20 2.77335e-20 -0.0434713)
(8.30875e-20 -2.64741e-20 -0.0928417)
(2.27266e-19 -1.41538e-19 -0.172155)
(-2.48551e-19 2.28121e-19 -0.279588)
(-3.86302e-20 -6.14646e-20 -0.390508)
(4.5753e-22 -3.15993e-20 -0.00102847)
(-4.68691e-22 1.60827e-20 -0.00174424)
(1.03288e-21 -2.49616e-22 -0.00226284)
(-1.00135e-21 -1.5768e-20 -0.00227269)
(-1.43276e-21 -2.09195e-21 -0.00165861)
(2.31944e-21 -2.46903e-19 -0.000556729)
(-1.86944e-21 4.70213e-19 0.000750493)
(5.68418e-22 -2.5453e-19 0.00198866)
(-2.4336e-21 1.51988e-20 0.00298937)
(3.80383e-21 -2.77994e-19 0.003704)
(-5.5759e-21 2.56393e-19 0.00416539)
(-1.43149e-22 4.83446e-19 0.00443985)
(3.98305e-21 -9.84405e-19 0.004593)
(-6.9255e-21 9.86204e-19 0.00467494)
(1.26161e-20 -9.83094e-19 0.0047183)
(-4.02507e-21 9.80109e-19 0.00474178)
(-7.6494e-21 4.94054e-19 0.00475497)
(-9.40193e-22 -5.40232e-21 0.00476234)
(6.37812e-21 5.51095e-21 0.00476586)
(-3.53351e-21 4.60031e-19 0.00476697)
(-1.02662e-20 -4.8602e-19 0.00476738)
(2.07747e-20 1.78741e-20 0.00476887)
(-2.95012e-20 9.33254e-19 0.00477172)
(1.82652e-20 -9.4234e-19 0.00477323)
(2.91585e-21 -2.70303e-21 0.00476821)
(-1.36664e-20 -6.57971e-23 0.00475174)
(2.02221e-20 -1.42659e-20 0.0047226)
(-6.68219e-21 1.71593e-22 0.00468465)
(-7.42398e-21 -2.19276e-23 0.00464475)
(6.96306e-21 2.70845e-22 0.00460827)
(-4.61497e-21 -1.99389e-21 0.00457586)
(5.38709e-20 -8.50035e-19 0.00454347)
(-4.58861e-20 8.81242e-19 0.0045055)
(-2.16045e-20 -3.21333e-21 0.00445851)
(2.45558e-20 -7.43717e-21 0.00440285)
(-8.75419e-20 7.97465e-19 0.00434025)
(1.12014e-19 -8.08266e-19 0.00426918)
(-3.22903e-20 5.8129e-21 0.00417997)
(2.23396e-20 2.59715e-23 0.00404741)
(5.20442e-20 1.17643e-20 0.00380789)
(-2.66658e-19 6.23593e-19 0.00328807)
(3.50946e-19 -1.29036e-18 0.00201248)
(-1.65526e-19 6.62279e-19 -0.00124729)
(2.88577e-19 -5.25583e-19 -0.00935436)
(-2.7128e-19 6.33959e-19 -0.0280979)
(-7.38103e-19 6.59905e-19 -0.0671469)
(1.42089e-18 -1.45543e-18 -0.13877)
(-7.16505e-19 7.60799e-19 -0.252212)
(2.8367e-20 -3.0362e-21 -0.40446)
(6.7603e-21 -5.31694e-20 -0.547555)
(-1.00378e-21 1.62409e-20 -0.00119721)
(1.85264e-23 6.11251e-20 -0.00201677)
(1.47351e-21 -1.86742e-19 -0.00262072)
(3.00176e-22 2.51573e-19 -0.00265775)
(-1.44885e-21 -1.12027e-19 -0.00200021)
(-2.21296e-24 -1.45844e-20 -0.000802841)
(-5.09379e-22 1.57703e-20 0.000618878)
(4.35394e-21 -2.48663e-22 0.00196221)
(-4.36798e-21 -1.53376e-20 0.00304412)
(-7.13055e-21 3.59728e-20 0.00381405)
(-2.99447e-21 4.91902e-19 0.00430994)
(1.92468e-20 -5.12811e-19 0.00460445)
(-2.55836e-20 4.79643e-19 0.00476849)
(1.98184e-20 -5.00199e-19 0.00485585)
(-4.28265e-21 4.86313e-21 0.00490114)
(1.55666e-20 1.16437e-22 0.00492395)
(5.95721e-21 5.25736e-21 0.00493414)
(1.02789e-21 4.68043e-19 0.00493607)
(1.96061e-20 -5.09429e-19 0.00493155)
(9.15981e-21 3.25437e-20 0.00492199)
(-4.37671e-20 9.7012e-19 0.00490962)
(2.0576e-20 -9.78933e-19 0.00489712)
(1.45498e-20 2.66469e-20 0.00488525)
(-2.52279e-20 -3.26388e-22 0.00487029)
(1.64885e-20 1.34056e-20 0.00484457)
(-2.61019e-20 9.42385e-19 0.0048007)
(1.74109e-20 -9.39842e-19 0.00473646)
(3.94597e-21 1.33826e-20 0.00465623)
(1.42547e-20 2.89133e-20 0.00456767)
(-1.59515e-20 -7.60568e-22 0.00447617)
(1.09384e-21 -1.3887e-20 0.00438124)
(-5.0817e-20 1.41852e-20 0.00427723)
(4.912e-20 1.35446e-20 0.00415706)
(-5.16419e-21 -3.10326e-20 0.00401607)
(5.82317e-20 -8.01502e-19 0.00385293)
(-4.42234e-20 8.25361e-19 0.00366709)
(2.31771e-19 -1.61211e-18 0.00345397)
(-1.99902e-19 1.63132e-18 0.00319948)
(2.53818e-19 -1.55895e-18 0.00286904)
(8.52306e-20 1.50929e-19 0.00237227)
(-2.97354e-19 1.49237e-18 0.00145608)
(-1.70535e-19 -3.37171e-20 -0.000573592)
(2.275e-20 2.1083e-22 -0.00547588)
(-2.72762e-20 4.34977e-22 -0.0172349)
(8.07896e-20 2.07271e-21 -0.0436581)
(4.22041e-20 1.71407e-20 -0.0974334)
(-1.71196e-19 6.40296e-21 -0.194422)
(1.00789e-19 6.66453e-21 -0.346767)
(-2.52783e-22 -4.74768e-22 -0.550896)
(5.4732e-20 9.06556e-22 -0.718885)
(-4.83947e-22 7.74618e-20 -0.00130083)
(2.10111e-21 -4.75254e-20 -0.00218374)
(-2.57209e-21 -1.71672e-20 -0.00287276)
(4.17475e-21 -2.31435e-19 -0.00300711)
(-7.18961e-22 2.33963e-19 -0.00245082)
(-3.62747e-22 -2.31009e-19 -0.00135242)
(-8.38829e-21 5.09905e-19 -2.18807e-05)
(5.68132e-21 -7.1648e-19 0.00124315)
(-2.98845e-21 5.09971e-19 0.00226295)
(-3.88171e-22 4.93593e-19 0.00298711)
(-2.75934e-21 5.33182e-22 0.00345066)
(1.87013e-20 -9.70897e-19 0.00372216)
(-1.33287e-20 1.01575e-18 0.00386856)
(-7.531e-22 -4.81628e-19 0.00394026)
(8.36175e-21 -4.81157e-19 0.00396947)
(2.21781e-20 -4.73122e-19 0.00397416)
(-3.31805e-21 6.77459e-21 0.00396309)
(3.46891e-20 -9.87118e-19 0.00393976)
(2.04782e-20 -9.44967e-19 0.00390527)
(7.9925e-21 2.62123e-20 0.00386071)
(-1.43131e-20 9.85955e-19 0.00380859)
(-2.82809e-20 -1.13849e-20 0.00375247)
(1.72379e-20 1.25008e-20 0.00369357)
(-4.1424e-20 9.58518e-19 0.00362684)
(2.85923e-20 -9.8328e-19 0.00354137)
(6.77145e-20 -9.36029e-19 0.00342634)
(-6.93337e-20 9.76648e-19 0.00327745)
(2.0966e-20 -2.77904e-20 0.00309822)
(5.1353e-20 -9.43249e-19 0.00289563)
(-8.96117e-20 9.74333e-19 0.00267359)
(6.05149e-21 1.70298e-20 0.00242921)
(-1.79491e-19 1.78776e-18 0.00215397)
(1.51096e-19 -1.86959e-18 0.00183797)
(6.80237e-20 8.18095e-20 0.0014735)
(-2.27529e-19 1.71185e-18 0.00105571)
(1.95398e-19 -1.80107e-18 0.000580118)
(-4.38938e-20 -4.93142e-21 3.84964e-05)
(4.59864e-19 -1.63406e-18 -0.00058662)
(-4.18926e-19 1.70516e-18 -0.00133558)
(-9.65344e-20 -9.89134e-20 -0.00231904)
(6.958e-19 -1.44709e-18 -0.00386281)
(-1.14961e-18 3.05392e-18 -0.00688126)
(-9.61265e-20 -1.73442e-19 -0.0136969)
(-1.4731e-19 -1.24939e-19 -0.0295188)
(8.25719e-19 -1.38367e-18 -0.0644176)
(6.12855e-20 9.67649e-20 -0.134647)
(-1.14437e-18 1.00155e-18 -0.261051)
(1.11155e-18 -1.11949e-18 -0.462227)
(1.0329e-20 4.61072e-20 -0.740205)
(1.33523e-20 -3.74284e-21 -0.938743)
(7.77659e-22 -1.64974e-20 -0.00132176)
(1.1514e-21 -1.3758e-19 -0.00223057)
(-1.45544e-21 1.24694e-19 -0.0030058)
(-2.03268e-21 -1.84119e-20 -0.00330673)
(4.4022e-21 -2.30115e-19 -0.00299056)
(-3.80705e-21 2.39144e-19 -0.0021728)
(-3.0632e-22 4.79058e-19 -0.00112037)
(-7.28929e-21 -2.08541e-20 -9.61853e-05)
(3.47442e-21 -5.70173e-21 0.00073681)
(1.15553e-20 -5.10734e-19 0.00132784)
(-7.7687e-21 4.78411e-19 0.00170122)
(5.98148e-21 -1.01552e-18 0.00191158)
(3.90516e-21 5.10581e-19 0.00201347)
(-5.53177e-21 -2.05558e-20 0.00204816)
(-7.25046e-21 -2.57555e-20 0.00204198)
(1.80088e-20 -1.00137e-18 0.00200943)
(-1.51588e-21 -1.95437e-20 0.00195725)
(1.47936e-20 -1.02142e-18 0.00188766)
(-7.99551e-21 -5.055e-21 0.0018009)
(-2.12519e-22 1.69019e-22 0.00169756)
(1.61329e-20 1.18592e-20 0.00158038)
(-4.31713e-20 9.87001e-19 0.0014537)
(3.49879e-20 -1.01446e-18 0.00131939)
(1.78917e-20 1.17258e-20 0.00117154)
(-1.27158e-20 -1.5606e-20 0.000996571)
(-8.60267e-21 1.37983e-20 0.0007809)
(-5.96032e-20 9.58416e-19 0.000518703)
(1.30902e-19 -1.9714e-18 0.000213218)
(-5.78222e-20 1.04335e-18 -0.000128196)
(-1.56602e-19 1.91427e-18 -0.000500935)
(-3.25993e-20 -4.9496e-20 -0.000906863)
(1.44198e-20 -2.2185e-20 -0.00135247)
(-7.93038e-20 -5.91704e-20 -0.00184373)
(2.14004e-19 -1.94236e-18 -0.00238148)
(3.77869e-19 -1.78706e-18 -0.0029593)
(-3.17791e-19 1.90045e-18 -0.00356338)
(-4.74907e-20 -7.68181e-20 -0.00417287)
(4.20834e-19 -1.73698e-18 -0.00475999)
(-3.40951e-19 1.86929e-18 -0.00529731)
(-6.47667e-19 1.64214e-18 -0.00580212)
(5.05898e-19 -1.76469e-18 -0.00649496)
(1.08481e-19 -1.4932e-20 -0.00823576)
(9.12727e-19 -1.60238e-18 -0.013514)
(2.04587e-19 1.29329e-19 -0.0282822)
(-1.12613e-18 1.60354e-18 -0.064497)
(-2.78415e-20 -5.83716e-20 -0.142084)
(5.34683e-20 8.4797e-22 -0.288434)
(-4.91651e-20 2.65894e-20 -0.537476)
(-7.05425e-19 7.29461e-19 -0.933531)
(6.88039e-19 -7.47629e-19 -1.34717)
(-1.07321e-20 -2.78765e-21 0.00266048)
(-7.21024e-21 2.09328e-21 -0.0191991)
(6.62676e-21 5.79999e-21 -0.0363385)
(-1.25823e-20 -1.87732e-20 -0.0457837)
(1.30196e-20 1.15081e-20 -0.0470653)
(-6.18139e-22 1.04001e-21 -0.0422023)
(-8.5106e-23 -5.48825e-23 -0.0342084)
(-1.95559e-21 4.27708e-24 -0.0256723)
(1.89158e-21 -4.13706e-24 -0.0181603)
(-4.53644e-23 9.92165e-26 -0.0122867)
(-3.7912e-23 8.29174e-26 -0.00805234)
(9.3367e-22 -2.04203e-24 -0.00517312)
(-9.36679e-22 2.04861e-24 -0.00329646)
(-8.17048e-22 1.78697e-24 -0.00210879)
(3.36148e-23 -2.02471e-22 -0.00137072)
(2.75117e-21 9.05414e-20 -0.000915435)
(-1.7918e-21 -8.45628e-20 -0.000633588)
(-1.78583e-23 -1.90047e-22 -0.000456346)
(-7.44677e-24 2.05919e-22 -0.000341598)
(-1.23626e-21 -1.01432e-19 -0.000264226)
(1.24697e-21 1.0142e-19 -0.000209721)
(-7.57997e-22 -9.84132e-20 -0.000169902)
(6.53253e-22 6.43981e-21 -0.000140143)
(-8.19063e-22 1.86103e-24 -0.000117216)
(6.50821e-22 6.8281e-21 -9.91929e-05)
(-2.04177e-22 1.38979e-23 -8.46107e-05)
(-7.8447e-22 1.71571e-24 -7.29012e-05)
(3.92133e-22 -1.35228e-23 -6.3684e-05)
(3.1825e-23 7.13912e-21 -5.64136e-05)
(-2.47146e-23 2.51404e-23 -5.04566e-05)
(-2.33987e-23 -7.27819e-21 -4.52681e-05)
(-3.26954e-24 7.32385e-21 -4.05269e-05)
(3.30508e-22 -7.47439e-21 -3.61274e-05)
(-4.86793e-22 6.71143e-20 -3.20793e-05)
(9.11398e-23 -6.7007e-20 -2.84108e-05)
(-2.21795e-22 -5.31028e-20 -2.51253e-05)
(4.11808e-22 1.13633e-19 -2.21976e-05)
(-2.08712e-22 -6.06621e-20 -1.95875e-05)
(-1.95614e-22 -7.76436e-21 -1.72514e-05)
(1.75069e-22 7.69306e-21 -1.51492e-05)
(1.44121e-22 6.78721e-26 -1.32472e-05)
(-1.84295e-22 7.83529e-21 -1.15205e-05)
(-8.34217e-23 -3.91889e-20 -9.95841e-06)
(1.4252e-22 3.92111e-20 -8.56641e-06)
(-9.90672e-23 -7.87336e-21 -7.3151e-06)
(1.94878e-23 2.38133e-20 -5.79905e-06)
(-7.56653e-23 -7.90045e-21 -1.96549e-06)
(-3.67954e-23 -1.60346e-20 1.09436e-05)
(3.76149e-23 8.01999e-21 4.83569e-05)
(1.70878e-23 -8.06539e-21 0.000133091)
(-1.621e-20 2.41893e-20 0.0020205)
(-4.68491e-21 -3.07084e-20 -0.0614003)
(1.01179e-20 -7.41193e-22 -0.110459)
(-3.81233e-20 -3.08783e-20 -0.136807)
(3.69785e-20 3.2651e-20 -0.139449)
(-6.74424e-21 5.98241e-21 -0.124449)
(4.01092e-21 -2.04472e-21 -0.100586)
(-5.86612e-20 -1.84635e-19 -0.0753412)
(6.05006e-20 1.75352e-19 -0.0532202)
(-8.95294e-21 -5.22565e-21 -0.035967)
(3.64372e-21 -9.32003e-21 -0.0235502)
(3.59805e-20 2.9586e-19 -0.0151172)
(-3.891e-20 -2.93497e-19 -0.00962446)
(-2.84703e-20 -3.35922e-19 -0.00614829)
(6.01351e-21 -1.74246e-20 -0.00398586)
(2.44354e-20 3.51804e-19 -0.00264887)
(-1.84262e-21 -4.9157e-21 -0.001818)
(-6.65929e-22 -1.2051e-20 -0.00129262)
(3.03105e-24 -2.70079e-23 -0.000950092)
(1.91981e-22 -4.19882e-25 -0.000717161)
(6.37863e-22 1.0106e-23 -0.000551323)
(-6.57394e-22 -7.35865e-21 -0.000428508)
(7.67024e-21 4.10663e-19 -0.000335075)
(-8.5837e-21 -4.44176e-19 -0.000262079)
(7.37891e-21 4.3421e-19 -0.000203557)
(-4.22227e-21 -2.17312e-19 -0.000156313)
(-6.34258e-21 -4.50339e-19 -0.000118517)
(2.36842e-21 2.25349e-19 -8.87744e-05)
(6.96562e-22 -6.72899e-21 -6.52148e-05)
(-9.34911e-22 -1.44832e-20 -4.56987e-05)
(8.40819e-22 7.29554e-21 -2.84869e-05)
(-1.83216e-22 -2.23959e-20 -1.26565e-05)
(2.46943e-21 2.30658e-19 2.01121e-06)
(-5.22975e-21 -4.84092e-19 1.54195e-05)
(2.55048e-21 2.31091e-19 2.74736e-05)
(2.77512e-22 -2.22733e-20 3.81985e-05)
(-4.71127e-22 7.55272e-21 4.77166e-05)
(7.88338e-23 1.97496e-22 5.61871e-05)
(-6.88436e-22 -1.30746e-19 6.37651e-05)
(6.03502e-22 1.15094e-19 7.05833e-05)
(7.82797e-22 1.08995e-19 7.67486e-05)
(-1.00026e-21 -1.47565e-19 8.234e-05)
(9.90274e-23 7.56771e-21 8.73973e-05)
(8.80016e-23 3.94502e-20 9.191e-05)
(-1.3966e-22 -7.08587e-20 9.59577e-05)
(-3.35876e-22 -7.94451e-21 0.00010067)
(-4.52488e-23 -5.57262e-20 0.000111859)
(-1.0941e-22 -8.14572e-21 0.000148855)
(1.03375e-22 1.59529e-20 0.000256076)
(1.02847e-22 2.41667e-20 0.00049945)
(-1.86973e-20 4.07838e-22 -0.0167293)
(4.90095e-20 2.70015e-20 -0.115422)
(-2.57773e-20 -1.34736e-20 -0.189031)
(-4.1569e-20 -1.36682e-20 -0.225992)
(1.57701e-20 5.92966e-21 -0.226242)
(-1.85687e-19 -2.66359e-19 -0.199856)
(1.9662e-19 2.5574e-19 -0.160547)
(2.0828e-19 4.14796e-19 -0.119792)
(-2.56074e-20 8.09937e-20 -0.0844085)
(-3.45315e-19 -9.83896e-19 -0.0569546)
(3.17972e-19 1.09609e-18 -0.0372623)
(-1.4727e-19 -5.56301e-19 -0.0239176)
(-6.37299e-22 -1.27275e-20 -0.0152353)
(-1.00678e-21 -1.94134e-21 -0.00973882)
(8.62797e-20 7.31204e-19 -0.00631167)
(-1.40066e-20 1.81143e-20 -0.00418207)
(-7.03567e-20 -7.35993e-19 -0.00284761)
(4.0707e-21 2.26516e-20 -0.0019938)
(-1.89063e-21 6.62855e-23 -0.00142866)
(1.24975e-22 -8.72007e-22 -0.0010373)
(1.8786e-20 4.22408e-19 -0.000752567)
(-1.85614e-20 -4.07069e-19 -0.0005366)
(-1.52833e-20 -4.23121e-19 -0.000367032)
(1.65801e-20 4.48245e-19 -0.000231435)
(-4.35332e-22 1.47993e-20 -0.000120101)
(-1.48827e-23 -1.40375e-20 -2.86934e-05)
(-6.20295e-22 1.49619e-20 4.51232e-05)
(-7.63459e-21 -4.46206e-19 0.000103907)
(9.43152e-21 4.60255e-19 0.000151338)
(-8.19659e-21 -4.3819e-19 0.000191508)
(8.84821e-21 4.6714e-19 0.000227463)
(2.02762e-22 1.48052e-20 0.000260564)
(5.65648e-21 4.78613e-19 0.000290942)
(-1.18812e-20 -9.42705e-19 0.000318349)
(7.31274e-21 4.93724e-19 0.000342715)
(1.10266e-21 2.58934e-19 0.000364248)
(-9.28795e-22 -2.2737e-19 0.000383315)
(-1.40578e-21 -3.38634e-22 0.000400299)
(8.38853e-22 -5.80446e-24 0.000415529)
(2.02309e-22 -3.38883e-22 0.000429265)
(1.34521e-21 2.48689e-19 0.000441712)
(-1.60815e-21 -2.3281e-19 0.000453028)
(-1.89917e-22 1.53114e-20 0.000463305)
(5.97344e-22 -1.38221e-22 0.000472552)
(4.99991e-22 1.26426e-19 0.000480884)
(-1.41146e-21 -2.3708e-19 0.00048992)
(8.11487e-22 1.26541e-19 0.000508267)
(-3.9842e-22 -6.36415e-20 0.000565123)
(2.58919e-22 4.77219e-20 0.000728456)
(8.41943e-23 1.60566e-20 0.00109992)
(1.1213e-21 3.09068e-20 -0.0639905)
(1.02054e-20 -5.71527e-20 -0.189672)
(2.54472e-19 3.02571e-19 -0.274822)
(-6.54407e-19 -6.4987e-19 -0.311329)
(4.18637e-19 3.48179e-19 -0.302742)
(2.60813e-19 3.6627e-19 -0.262992)
(-2.87076e-19 -3.48226e-19 -0.209191)
(2.70043e-19 4.71846e-19 -0.155185)
(-5.35046e-19 -1.00094e-18 -0.109)
(2.75716e-19 5.14145e-19 -0.0734593)
(-4.85506e-21 1.42121e-20 -0.0480938)
(-4.67509e-21 5.2629e-22 -0.0309588)
(7.53332e-21 1.26322e-20 -0.0198282)
(-1.41858e-19 -7.33026e-19 -0.0127791)
(1.33776e-19 7.06256e-19 -0.00836951)
(1.99368e-22 2.60557e-20 -0.00560934)
(1.02272e-21 -1.40432e-20 -0.00385806)
(7.68586e-20 8.14707e-19 -0.00271686)
(-7.76955e-20 -8.11122e-19 -0.00194313)
(-6.04204e-22 -1.50682e-20 -0.00139157)
(-8.37482e-22 -2.70479e-23 -0.000976974)
(9.77976e-22 4.26438e-23 -0.000650419)
(8.18064e-22 -3.14337e-23 -0.000385336)
(-2.04595e-21 1.39529e-20 -0.000164888)
(1.98192e-21 1.64825e-23 1.99705e-05)
(1.25182e-22 1.59509e-20 0.000174814)
(-2.91054e-20 -9.38969e-19 0.000302458)
(3.02204e-20 9.21637e-19 0.000406639)
(-2.98971e-21 2.53855e-21 0.000493318)
(-8.47025e-21 -4.72958e-19 0.000568699)
(1.08559e-20 4.86325e-19 0.00063686)
(-9.48647e-22 8.48355e-22 0.000699195)
(-1.10293e-22 7.84976e-22 0.000755571)
(-6.67803e-21 -4.99757e-19 0.000805749)
(1.51437e-20 9.84691e-19 0.00085003)
(-1.50405e-20 -9.73296e-19 0.00088916)
(1.33344e-20 9.77593e-19 0.000923995)
(-1.21009e-20 -9.80926e-19 0.000955278)
(5.61771e-21 4.90154e-19 0.000983575)
(3.34993e-21 2.48671e-19 0.00100931)
(-2.80856e-21 -2.16393e-19 0.00103282)
(1.5684e-22 -1.55369e-20 0.00105436)
(-2.26539e-21 -2.50776e-19 0.00107412)
(4.82348e-21 5.32298e-19 0.00109218)
(-2.43588e-21 -2.50236e-19 0.00110867)
(1.65641e-22 -3.43577e-22 0.00112539)
(2.61292e-22 1.57895e-20 0.00115234)
(-1.83923e-22 4.7367e-23 0.00122457)
(-9.06384e-23 -1.59091e-20 0.00142524)
(2.2923e-22 3.17968e-20 0.00188034)
(3.14277e-20 -1.27471e-22 -0.155375)
(-1.62679e-21 -1.47895e-21 -0.293893)
(-6.44862e-20 -2.96926e-21 -0.369514)
(8.21463e-20 -5.1344e-21 -0.389531)
(-3.26235e-20 -1.08225e-20 -0.363596)
(-3.24515e-20 -1.87155e-21 -0.308397)
(1.71003e-20 6.88289e-21 -0.241927)
(-8.16431e-21 -8.78044e-21 -0.178089)
(4.05783e-20 -1.9066e-20 -0.124626)
(5.61495e-19 1.27442e-18 -0.0839455)
(-8.05955e-20 6.57334e-20 -0.0551084)
(-5.12189e-19 -1.36894e-18 -0.0357187)
(3.8659e-19 1.4569e-18 -0.023164)
(-3.94606e-19 -1.45444e-18 -0.015224)
(1.42985e-19 7.80764e-19 -0.0102483)
(-1.49134e-19 -8.06006e-19 -0.00711256)
(3.02592e-21 1.03269e-20 -0.00509498)
(-8.6314e-21 -1.28428e-20 -0.00374992)
(5.52863e-21 -1.34393e-20 -0.00280859)
(1.16301e-21 1.34294e-20 -0.0021111)
(2.24543e-21 7.93692e-23 -0.00156403)
(-4.2577e-21 -2.78034e-20 -0.00111468)
(-5.32981e-22 1.81212e-21 -0.000734627)
(-4.86105e-20 -9.31547e-19 -0.000408619)
(4.81951e-20 8.98708e-19 -0.000128339)