/*--------------------------------*- C++ -*----------------------------------*\
| =========                 |                                                 |
| \\      /  F ield         | OpenFOAM: The Open Source CFD Toolbox           |
|  \\    /   O peration     | Version:  2412                                  |
|   \\  /    A nd           | Website:  www.openfoam.com                      |
|    \\/     M anipulation  |                                                 |
\*---------------------------------------------------------------------------*/
FoamFile
{
    version     2.0;
    format      ascii;
    arch        "LSB;label=32;scalar=64";
    class       volVectorField;
    location    "19";
    object      vorticity;
}
// * * * * * * * * * * * * * * * * * * * * * * * * * * * * * * * * * * * * * //

dimensions      [0 0 -1 0 0 0 0];

internalField   nonuniform List<vector> 
5285
(
(0 1.0537e-23 -2.27602e-06)
(0 -0 1.36828e-06)
(0 -0 4.6983e-06)
(0 -0 8.57152e-06)
(0 -0 1.3295e-05)
(0 -0 1.92352e-05)
(0 -0 2.65466e-05)
(0 -0 3.54355e-05)
(0 -0 4.60599e-05)
(0 -0 5.85105e-05)
(0 -0 7.27864e-05)
(0 -0 8.87714e-05)
(0 -0 0.000106214)
(0 -0 0.000124713)
(0 -0 0.000143716)
(0 -0 0.000162528)
(0 -0 0.000180335)
(0 -0 0.00019624)
(0 -0 0.000209315)
(0 -0 0.000218658)
(0 -0 0.000223466)
(0 -0 0.000223123)
(0 -0 0.000217273)
(0 -0 0.000205617)
(0 1.12635e-22 -2.71801e-06)
(0 -0 -5.78855e-07)
(0 -0 2.26667e-06)
(0 -0 5.74503e-06)
(0 -0 1.03285e-05)
(0 -0 1.61598e-05)
(0 -0 2.33617e-05)
(0 -0 3.21269e-05)
(0 -0 4.26042e-05)
(0 -0 5.48767e-05)
(0 -0 6.8937e-05)
(0 -0 8.46631e-05)
(0 -0 0.000101799)
(0 -0 0.000119943)
(0 -0 0.000138543)
(0 -0 0.000156909)
(0 -0 0.000174239)
(0 -0 0.000189653)
(0 -0 0.000202247)
(0 -0 0.000211147)
(0 -0 0.000215582)
(0 -0 0.000214974)
(0 -0 0.000208992)
(0 -0 0.000197388)
(0 -1.01421e-22 -3.83268e-06)
(0 -0 -2.32451e-06)
(0 -0 8.01894e-09)
(0 -0 3.14998e-06)
(0 -0 7.4698e-06)
(0 -0 1.30654e-05)
(0 -0 2.00273e-05)
(0 -0 2.85284e-05)
(0 -0 3.87027e-05)
(0 -0 5.06212e-05)
(0 -0 6.42669e-05)
(0 -0 7.9511e-05)
(0 -0 9.60944e-05)
(0 -0 0.000113615)
(0 -0 0.000131528)
(0 -0 0.000149157)
(0 -0 0.00016572)
(0 -0 0.000180367)
(0 -0 0.00019223)
(0 -0 0.000200481)
(0 -0 0.000204397)
(0 -0 0.000203448)
(0 -0 0.000197353)
(0 -0 0.000185896)
(0 1.40566e-23 -5.39455e-06)
(0 -0 -4.3437e-06)
(0 -0 -2.26414e-06)
(0 -0 6.05766e-07)
(0 -0 4.65125e-06)
(0 -0 9.95784e-06)
(0 -0 1.65985e-05)
(0 -0 2.47315e-05)
(0 -0 3.44767e-05)
(0 -0 4.58926e-05)
(0 -0 5.89519e-05)
(0 -0 7.3519e-05)
(0 -0 8.93316e-05)
(0 -0 0.000105992)
(0 -0 0.000122965)
(0 -0 0.000139595)
(0 -0 0.00015513)
(0 -0 0.00016876)
(0 -0 0.000179667)
(0 -0 0.00018708)
(0 -0 0.000190337)
(0 -0 0.000188972)
(0 -0 0.000182765)
(0 -0 0.000171548)
(0 2.4891e-22 -7.09498e-06)
(0 -0 -6.52794e-06)
(0 -0 -4.60284e-06)
(0 -0 -1.94506e-06)
(0 -0 1.84439e-06)
(0 -0 6.84534e-06)
(0 -0 1.31194e-05)
(0 -0 2.08143e-05)
(0 -0 3.00377e-05)
(0 -0 4.08361e-05)
(0 -0 5.31723e-05)
(0 -0 6.69041e-05)
(0 -0 8.17679e-05)
(0 -0 9.73713e-05)
(0 -0 0.000113195)
(0 -0 0.000128608)
(0 -0 0.000142895)
(0 -0 0.000155296)
(0 -0 0.000165052)
(0 -0 0.00017146)
(0 -0 0.000173935)
(0 -0 0.000172084)
(0 -0 0.000165755)
(0 -0 0.00015484)
(0 -2.48645e-22 -8.66664e-06)
(0 -0 -8.72906e-06)
(0 -0 -6.93416e-06)
(0 -0 -4.46454e-06)
(0 -0 -9.19744e-07)
(0 -0 3.76935e-06)
(0 -0 9.65167e-06)
(0 -0 1.68651e-05)
(0 -0 2.55049e-05)
(0 -0 3.56059e-05)
(0 -0 4.7121e-05)
(0 -0 5.99019e-05)
(0 -0 7.36848e-05)
(0 -0 8.80847e-05)
(0 -0 0.0001026)
(0 -0 0.000116629)
(0 -0 0.000129499)
(0 -0 0.000140505)
(0 -0 0.000148957)
(0 -0 0.000154229)
(0 -0 0.000155819)
(0 -0 0.000153417)
(0 -0 0.000146951)
(0 -0 0.000136379)
(0 -6.07255e-22 -9.92931e-06)
(0 -0 -1.08157e-05)
(0 -0 -9.15872e-06)
(0 -0 -6.87549e-06)
(0 -0 -3.57326e-06)
(0 -0 8.00819e-07)
(0 -0 6.27977e-06)
(0 -0 1.29894e-05)
(0 -0 2.10121e-05)
(0 -0 3.03702e-05)
(0 -0 4.10064e-05)
(0 -0 5.27663e-05)
(0 -0 6.53864e-05)
(0 -0 7.84903e-05)
(0 -0 9.15955e-05)
(0 -0 0.000104132)
(0 -0 0.000115473)
(0 -0 0.000124973)
(0 -0 0.000132014)
(0 -0 0.000136056)
(0 -0 0.000136684)
(0 -0 0.000133679)
(0 -0 0.000127056)
(0 -0 0.000116842)
(0 6.48068e-22 -1.07697e-05)
(0 -0 -1.26975e-05)
(0 -0 -1.11914e-05)
(0 -0 -9.09721e-06)
(0 -0 -6.03527e-06)
(0 -0 -1.97296e-06)
(0 -0 3.10445e-06)
(0 -0 9.30893e-06)
(0 -0 1.67082e-05)
(0 -0 2.53118e-05)
(0 -0 3.50515e-05)
(0 -0 4.57668e-05)
(0 -0 5.7194e-05)
(0 -0 6.89654e-05)
(0 -0 8.06182e-05)
(0 -0 9.16148e-05)
(0 -0 0.000101375)
(0 -0 0.000109314)
(0 -0 0.000114891)
(0 -0 0.000117649)
(0 -0 0.000117269)
(0 -0 0.000113623)
(0 -0 0.000106817)
(0 -0 9.69549e-05)
(0 -0 -1.11145e-05)
(0 -0 -1.43161e-05)
(0 -0 -1.29643e-05)
(0 -0 -1.10535e-05)
(0 -0 -8.21986e-06)
(0 -0 -4.45302e-06)
(0 -0 2.42031e-07)
(0 -0 5.96244e-06)
(0 -0 1.27609e-05)
(0 -0 2.06329e-05)
(0 -0 2.94994e-05)
(0 -0 3.91927e-05)
(0 -0 4.94487e-05)
(0 -0 5.99075e-05)
(0 -0 7.01251e-05)
(0 -0 7.95953e-05)
(0 -0 8.77832e-05)
(0 -0 9.41652e-05)
(0 -0 9.82733e-05)
(0 -0 9.97379e-05)
(0 -0 9.83316e-05)
(0 -0 9.40234e-05)
(0 -0 8.70078e-05)
(0 -0 7.74696e-05)
(0 8.19981e-22 -1.08999e-05)
(0 -0 -1.56215e-05)
(0 -0 -1.44104e-05)
(0 -0 -1.26605e-05)
(0 -0 -1.00252e-05)
(0 -0 -6.51787e-06)
(0 -0 -2.16314e-06)
(0 -0 3.12125e-06)
(0 -0 9.37293e-06)
(0 -0 1.65731e-05)
(0 -0 2.46312e-05)
(0 -0 3.33721e-05)
(0 -0 4.25301e-05)
(0 -0 5.17514e-05)
(0 -0 6.06085e-05)
(0 -0 6.86244e-05)
(0 -0 7.53068e-05)
(0 -0 8.01893e-05)
(0 -0 8.28745e-05)
(0 -0 8.30757e-05)
(0 -0 8.06555e-05)
(0 -0 7.56761e-05)
(0 -0 6.84223e-05)
(0 -0 5.91593e-05)
(0 -1.63642e-21 -1.00398e-05)
(0 -0 -1.65411e-05)
(0 -0 -1.54347e-05)
(0 -0 -1.37988e-05)
(0 -0 -1.13066e-05)
(0 -0 -7.99537e-06)
(0 -0 -3.90915e-06)
(0 -0 1.02062e-06)
(0 -0 6.81647e-06)
(0 -0 1.34455e-05)
(0 -0 2.08053e-05)
(0 -0 2.87121e-05)
(0 -0 3.68968e-05)
(0 -0 4.50097e-05)
(0 -0 5.26365e-05)
(0 -0 5.93252e-05)
(0 -0 6.4622e-05)
(0 -0 6.81126e-05)
(0 -0 6.94648e-05)
(0 -0 6.84685e-05)
(0 -0 6.50714e-05)
(0 -0 5.94237e-05)
(0 -0 5.18985e-05)
(0 -0 4.28398e-05)
(0 1.82416e-21 -8.39125e-06)
(0 -0 -1.6944e-05)
(0 -0 -1.5875e-05)
(0 -0 -1.42732e-05)
(0 -0 -1.18339e-05)
(0 -0 -8.61792e-06)
(0 -0 -4.68779e-06)
(0 -0 1.22639e-08)
(0 -0 5.49008e-06)
(0 -0 1.16983e-05)
(0 -0 1.85216e-05)
(0 -0 2.57665e-05)
(0 -0 3.31575e-05)
(0 -0 4.03449e-05)
(0 -0 4.69239e-05)
(0 -0 5.24632e-05)
(0 -0 5.6542e-05)
(0 -0 5.87914e-05)
(0 -0 5.89373e-05)
(0 -0 5.68381e-05)
(0 -0 5.25185e-05)
(0 -0 4.62107e-05)
(0 -0 3.83711e-05)
(0 -0 2.94202e-05)
(0 -9.35384e-22 -5.71427e-06)
(0 -0 -1.65942e-05)
(0 -0 -1.5452e-05)
(0 -0 -1.37578e-05)
(0 -0 -1.12312e-05)
(0 -0 -7.95635e-06)
(0 -0 -4.0122e-06)
(0 -0 6.44191e-07)
(0 -0 6.00507e-06)
(0 -0 1.20074e-05)
(0 -0 1.85214e-05)
(0 -0 2.534e-05)
(0 -0 3.21771e-05)
(0 -0 3.86782e-05)
(0 -0 4.44439e-05)
(0 -0 4.90584e-05)
(0 -0 5.21283e-05)
(0 -0 5.33231e-05)
(0 -0 5.24172e-05)
(0 -0 4.9328e-05)
(0 -0 4.41473e-05)
(0 -0 3.71815e-05)
(0 -0 2.8964e-05)
(0 -0 1.99892e-05)
(0 3.19803e-23 -1.61886e-06)
(0 -0 -1.50912e-05)
(0 -0 -1.37038e-05)
(0 -0 -1.17249e-05)
(0 -0 -8.89802e-06)
(0 -0 -5.32949e-06)
(0 -0 -1.11542e-06)
(0 -0 3.77262e-06)
(0 -0 9.30786e-06)
(0 -0 1.54081e-05)
(0 -0 2.1925e-05)
(0 -0 2.86332e-05)
(0 -0 3.52262e-05)
(0 -0 4.13406e-05)
(0 -0 4.65813e-05)
(0 -0 5.05436e-05)
(0 -0 5.28529e-05)
(0 -0 5.32084e-05)
(0 -0 5.14226e-05)
(0 -0 4.74608e-05)
(0 -0 4.14714e-05)
(0 -0 3.38254e-05)
(0 -0 2.51282e-05)
(0 -0 1.59445e-05)
(0 3.45404e-23 4.5141e-06)
(0 -0 -1.17893e-05)
(0 -0 -9.9046e-06)
(0 -0 -7.35446e-06)
(0 -0 -3.90276e-06)
(0 -0 3.18464e-07)
(0 -0 5.18982e-06)
(0 -0 1.07172e-05)
(0 -0 1.68476e-05)
(0 -0 2.34726e-05)
(0 -0 3.04192e-05)
(0 -0 3.7435e-05)
(0 -0 4.41722e-05)
(0 -0 5.02612e-05)
(0 -0 5.53279e-05)
(0 -0 5.89688e-05)
(0 -0 6.08115e-05)
(0 -0 6.05689e-05)
(0 -0 5.80804e-05)
(0 -0 5.33479e-05)
(0 -0 4.65672e-05)
(0 -0 3.81665e-05)
(0 -0 2.88185e-05)
(0 -0 1.91569e-05)
(0 2.53148e-21 1.36962e-05)
(0 -0 -5.6779e-06)
(0 -0 -2.95957e-06)
(0 -0 5.95547e-07)
(0 -0 5.18094e-06)
(0 -0 1.06138e-05)
(0 -0 1.67309e-05)
(0 -0 2.34997e-05)
(0 -0 3.08283e-05)
(0 -0 3.85722e-05)
(0 -0 4.65271e-05)
(0 -0 5.44009e-05)
(0 -0 6.17372e-05)
(0 -0 6.82042e-05)
(0 -0 7.35346e-05)
(0 -0 7.72721e-05)
(0 -0 7.90013e-05)
(0 -0 7.84243e-05)
(0 -0 7.53947e-05)
(0 -0 6.99452e-05)
(0 -0 6.23148e-05)
(0 -0 5.29861e-05)
(0 -0 4.26983e-05)
(0 -0 3.21551e-05)
(0 -5.23402e-21 2.70169e-05)
(0 -0 4.72751e-06)
(0 -0 8.75452e-06)
(0 -0 1.4052e-05)
(0 -0 2.06176e-05)
(0 -0 2.81504e-05)
(0 -0 3.64088e-05)
(0 -0 4.53035e-05)
(0 -0 5.4689e-05)
(0 -0 6.4375e-05)
(0 -0 7.4124e-05)
(0 -0 8.36088e-05)
(0 -0 9.25383e-05)
(0 -0 9.96665e-05)
(0 -0 0.000105273)
(0 -0 0.000109709)
(0 -0 0.000111743)
(0 -0 0.000111084)
(0 -0 0.000107606)
(0 -0 0.000101381)
(0 -0 9.26959e-05)
(0 -0 8.20933e-05)
(0 -0 7.03823e-05)
(0 -0 5.8337e-05)
(0 2.78711e-21 4.68962e-05)
(0 -0 2.10517e-05)
(0 -0 2.75106e-05)
(0 -0 3.61648e-05)
(0 -0 4.6175e-05)
(0 -0 5.72016e-05)
(0 -0 6.8943e-05)
(0 -0 8.12489e-05)
(0 -0 9.39113e-05)
(0 -0 0.000106686)
(0 -0 0.000119321)
(0 -0 0.000131575)
(0 -0 0.000142567)
(0 -0 0.000152301)
(0 -0 0.000158741)
(0 -0 0.00016271)
(0 -0 0.000165508)
(0 -0 0.000164889)
(0 -0 0.000160865)
(0 -0 0.000153576)
(0 -0 0.000143377)
(0 -0 0.000130874)
(0 -0 0.000116954)
(0 -0 0.000102473)
(0 -0 0.00023443)
(0 -0 0.00024317)
(0 -0 0.000248521)
(0 -0 0.000250309)
(0 -0 0.000249417)
(0 -0 0.00024436)
(0 -0 0.000235345)
(0 -0 0.000222781)
(0 -0 0.000207343)
(0 -0 0.000189996)
(0 -0 0.000171702)
(-2.18848e-22 -9.08232e-21 1.48091e-05)
(-2.15539e-22 -9.08583e-21 1.34868e-05)
(-3.82627e-22 -1.80989e-20 1.12525e-05)
(6.56567e-22 3.59317e-20 8.44101e-06)
(-6.15961e-22 -3.55721e-20 5.37e-06)
(-1.50001e-21 -1.05913e-19 2.96093e-06)
(3.39228e-22 1.73549e-20 9.46642e-07)
(-2.36441e-22 -9.07456e-21 8.33003e-06)
(-4.61582e-22 -1.81704e-20 9.03022e-06)
(-1.179e-21 -5.43188e-20 8.87822e-06)
(-3.86592e-22 -1.80314e-20 7.8874e-06)
(7.14719e-22 3.56516e-20 6.96218e-06)
(8.61862e-22 5.2945e-20 7.71606e-06)
(1.93973e-21 1.57923e-19 1.35926e-05)
(1.27843e-23 -1.34984e-23 1.27508e-06)
(-2.22319e-22 -9.20214e-21 3.64424e-06)
(1.56673e-21 7.22898e-20 5.08361e-06)
(6.13324e-23 -7.94898e-23 5.88041e-06)
(2.44387e-21 1.43483e-19 7.19548e-06)
(4.79442e-22 1.79886e-20 1.21126e-05)
(-1.91159e-21 -1.40856e-19 2.69563e-05)
(2.50491e-22 9.07409e-21 -5.90966e-06)
(2.26482e-22 9.1273e-21 -2.1592e-06)
(-3.27302e-21 -1.4513e-19 7.40518e-07)
(4.05402e-22 1.81635e-20 3.18587e-06)
(-5.38978e-21 -2.87784e-19 6.85873e-06)
(4.27102e-21 2.68117e-19 1.67713e-05)
(6.09057e-22 1.79685e-20 4.19212e-05)
(2.45221e-22 9.10021e-21 -1.30236e-05)
(-2.66955e-22 -9.27304e-21 -8.03044e-06)
(7.54301e-21 3.08328e-19 -3.8007e-06)
(1.84066e-22 1.40354e-22 2.27899e-07)
(2.60379e-21 1.26268e-19 6.4318e-06)
(-4.45209e-21 -2.68987e-19 2.22667e-05)
(3.68754e-21 2.67903e-19 5.91193e-05)
(-2.91736e-22 -9.08287e-21 -2.00746e-05)
(-2.3728e-22 -9.00609e-21 -1.39132e-05)
(-3.80752e-21 -1.4536e-19 -8.42073e-06)
(6.43839e-21 2.90338e-19 -2.81192e-06)
(2.83827e-22 1.80511e-20 6.16878e-06)
(4.6067e-21 2.71137e-19 2.90021e-05)
(-4.77581e-21 -2.68849e-19 7.91381e-05)
(-8.89441e-22 -2.7235e-20 -2.71839e-05)
(-7.78009e-22 -2.7291e-20 -1.9877e-05)
(1.69887e-22 4.30797e-22 -1.31418e-05)
(-1.31619e-20 -5.45173e-19 -5.90676e-06)
(-4.26737e-22 -1.80114e-20 6.16876e-06)
(-1.05044e-20 -5.97331e-19 3.72587e-05)
(-8.21839e-21 -5.61914e-19 0.000102486)
(9.24883e-22 2.71666e-20 -3.45112e-05)
(4.22895e-22 9.09413e-21 -2.60503e-05)
(7.92729e-22 1.79793e-20 -1.80626e-05)
(7.59988e-21 2.91102e-19 -9.12086e-06)
(-1.99921e-23 -6.3233e-22 6.43384e-06)
(1.64811e-20 8.37519e-19 4.7239e-05)
(1.03552e-20 6.00713e-19 0.000129628)
(2.88049e-22 8.99587e-21 -4.22231e-05)
(3.79552e-21 1.18258e-19 -3.25836e-05)
(9.06074e-21 3.1054e-19 -2.33172e-05)
(-3.43634e-22 -1.79806e-20 -1.25647e-05)
(4.16537e-22 1.89071e-20 6.91467e-06)
(-1.33433e-20 -5.85002e-19 5.91109e-05)
(1.6028e-22 -6.30761e-22 0.000161024)
(1.76879e-24 1.48271e-22 -5.04768e-05)
(-5.68214e-21 -1.63575e-19 -3.96268e-05)
(-9.04817e-21 -2.92404e-19 -2.90471e-05)
(9.04631e-21 3.29767e-19 -1.63641e-05)
(-1.68186e-21 -3.5642e-20 7.54353e-06)
(-1.23933e-20 -5.90785e-19 7.3044e-05)
(9.86831e-21 6.09097e-19 0.000197166)
(3.27643e-22 9.28067e-21 -5.94087e-05)
(-5.35101e-21 -1.55309e-19 -4.73135e-05)
(2.90218e-22 1.88389e-22 -3.53836e-05)
(-8.71528e-21 -2.92538e-19 -2.06389e-05)
(-1.4832e-20 -5.90888e-19 8.2595e-06)
(1.29819e-21 -1.93976e-20 8.92402e-05)
(-2.14982e-20 -1.17117e-18 0.000238618)
(-2.77452e-22 -9.2685e-21 -6.91308e-05)
(5.17403e-21 1.3678e-19 -5.57552e-05)
(6.02797e-23 1.07494e-22 -4.24371e-05)
(1.23574e-21 -7.23443e-22 -2.54877e-05)
(1.60986e-20 6.07864e-19 9.0281e-06)
(2.61011e-20 1.17109e-18 0.000107961)
(2.52805e-20 1.21926e-18 0.000286044)
(2.99585e-21 7.29945e-20 -7.9731e-05)
(-1.34738e-22 7.69319e-23 -6.5039e-05)
(4.52767e-22 -8.04762e-22 -5.0289e-05)
(1.77246e-20 5.92891e-19 -3.09762e-05)
(-1.68099e-20 -5.74531e-19 9.85827e-06)
(-3.11284e-20 -1.21682e-18 0.000129553)
(-1.41956e-20 -6.04963e-19 0.000340252)
(-6.87999e-21 -1.55088e-19 -9.1277e-05)
(3.49482e-22 8.52238e-21 -7.52257e-05)
(1.15711e-20 3.15414e-19 -5.89845e-05)
(-3.90115e-20 -1.18644e-18 -3.71236e-05)
(1.82143e-20 5.93782e-19 1.08191e-05)
(1.72559e-20 5.65164e-19 0.00015448)
(1.39767e-21 2.01159e-20 0.000402234)
(4.02836e-21 8.21365e-20 -0.000103835)
(-1.19302e-21 -2.706e-20 -8.63476e-05)
(-1.19691e-20 -2.78478e-19 -6.85161e-05)
(4.19183e-20 1.18986e-18 -4.38889e-05)
(-8.85535e-22 6.59759e-22 1.20554e-05)
(1.70328e-20 5.88924e-19 0.000183351)
(2.88207e-21 2.08298e-20 0.000473231)
(3.068e-21 6.41211e-20 -0.000117495)
(1.69065e-22 -8.17161e-21 -9.8373e-05)
(-2.18155e-20 -5.7299e-19 -7.8782e-05)
(-4.47258e-20 -1.17707e-18 -5.11532e-05)
(1.10345e-21 -3.02798e-21 1.38029e-05)
(1.26643e-20 5.91825e-19 0.000216977)
(2.64002e-20 1.24085e-18 0.000554816)
(-3.3477e-21 -6.4411e-20 -0.000132239)
(1.29173e-20 2.84187e-19 -0.000111081)
(5.22738e-20 1.20645e-18 -8.94243e-05)
(2.40877e-20 5.80749e-19 -5.85984e-05)
(1.93464e-20 6.13631e-19 1.65647e-05)
(-7.43533e-20 -2.47088e-18 0.000256708)
(-6.41759e-20 -2.48281e-18 0.000648896)
(-3.67673e-22 -8.19506e-21 -0.000147885)
(-3.00301e-20 -5.99624e-19 -0.000124618)
(-2.84753e-20 -5.96007e-19 -0.000100574)
(-9.31874e-22 1.24045e-21 -6.57544e-05)
(-4.39743e-20 -1.20318e-18 2.12783e-05)
(4.5803e-20 1.21179e-18 0.000304137)
(3.91665e-20 1.28007e-18 0.000758486)
(5.03476e-22 8.76996e-21 -0.000164924)
(1.54634e-20 2.68069e-19 -0.000139005)
(6.77614e-22 1.909e-20 -0.000112286)
(-1.3793e-21 -1.54146e-21 -7.28011e-05)
(2.31706e-20 6.2779e-19 2.84712e-05)
(4.57998e-20 1.2139e-18 0.000361943)
(-2.0318e-21 2.21138e-20 0.000887692)
(-5.53795e-22 -9.87786e-21 -0.000181086)
(1.70126e-20 3.08496e-19 -0.000153975)
(6.31055e-22 1.71861e-20 2.06453e-05)
(1.29415e-21 3.48894e-20 1.98831e-05)
(3.34689e-23 -2.91577e-23 1.85146e-05)
(1.14088e-21 3.56311e-20 1.73766e-05)
(5.66423e-22 1.80064e-20 1.65461e-05)
(7.82316e-22 2.71384e-20 1.60604e-05)
(-2.46816e-22 -9.05406e-21 1.54905e-05)
(-4.80731e-21 -1.20908e-19 4.47916e-06)
(-3.18744e-21 -8.73205e-20 4.45116e-06)
(2.53228e-21 7.07631e-20 4.21263e-06)
(-5.83261e-22 -1.78599e-20 4.191e-06)
(1.78239e-21 5.39994e-20 4.79606e-06)
(5.67626e-22 1.81325e-20 5.86549e-06)
(2.53731e-22 9.08514e-21 7.16879e-06)
(5.4622e-21 1.3866e-19 -8.02548e-06)
(6.35921e-22 1.75664e-20 -8.32757e-06)
(-7.89046e-21 -2.12622e-19 -8.57081e-06)
(-2.56068e-23 2.07823e-23 -8.00974e-06)
(-2.32664e-21 -7.18426e-20 -6.47118e-06)
(-2.83644e-22 -8.95493e-21 -4.18515e-06)
(-5.36986e-22 -1.81145e-20 -1.51061e-06)
(7.16529e-22 1.74744e-20 -1.98229e-05)
(-1.23265e-20 -2.99574e-19 -1.99221e-05)
(1.0929e-20 2.84101e-19 -2.0223e-05)
(6.33318e-22 1.7896e-20 -1.93107e-05)
(4.97327e-21 1.44156e-19 -1.70884e-05)
(-2.03906e-21 -6.31711e-20 -1.3854e-05)
(-2.59609e-22 -9.11548e-21 -1.00082e-05)
(-1.3375e-20 -2.98239e-19 -3.20243e-05)
(1.23814e-20 3.00169e-19 -3.12288e-05)
(-6.32673e-21 -1.60071e-19 -3.14084e-05)
(-6.17852e-23 3.70391e-23 -3.01049e-05)
(-9.72164e-21 -2.70125e-19 -2.72422e-05)
(-3.13473e-22 -9.14697e-21 -2.31552e-05)
(8.57699e-22 2.7157e-20 -1.82813e-05)
(1.35559e-20 2.99343e-19 -4.51805e-05)
(-1.35196e-20 -3.01807e-19 -4.2811e-05)
(7.51536e-22 1.7904e-20 -4.26399e-05)
(-1.15453e-20 -2.87381e-19 -4.0806e-05)
(5.36376e-21 1.43991e-19 -3.72377e-05)
(-2.94899e-21 -8.13807e-20 -3.22906e-05)
(-2.94445e-22 -9.08985e-21 -2.64261e-05)
(2.87986e-20 5.84993e-19 -5.96859e-05)
(2.52687e-20 5.52152e-19 -5.50491e-05)
(-7.72563e-22 -1.80176e-20 -5.43174e-05)
(2.54875e-20 6.10977e-19 -5.1782e-05)
(-8.64992e-23 2.29306e-22 -4.73868e-05)
(1.64771e-21 4.51279e-20 -4.15089e-05)
(1.58559e-21 4.5409e-20 -3.46257e-05)
(2.20542e-21 1.91391e-20 -7.58499e-05)
(-4.34191e-20 -8.9414e-19 -6.82082e-05)
(5.29661e-23 -1.50696e-22 -6.6713e-05)
(-1.24636e-20 -2.8772e-19 -6.33031e-05)
(6.06022e-22 1.7927e-20 -5.79447e-05)
(2.02761e-22 9.09727e-21 -5.10364e-05)
(-1.64335e-21 -4.5306e-20 -4.30729e-05)
(1.31802e-21 9.86376e-22 -9.39646e-05)
(2.87494e-20 5.73761e-19 -8.25029e-05)
(8.30183e-22 1.81722e-20 -8.00407e-05)
(-8.7672e-22 -1.78452e-20 -7.55821e-05)
(-1.18747e-20 -2.71307e-19 -6.91181e-05)
(-7.05601e-21 -1.72381e-19 -6.10685e-05)
(3.84049e-22 8.94427e-21 -5.19497e-05)
(-2.99638e-20 -5.57911e-19 -0.000114325)
(3.11153e-20 5.7728e-19 -9.81262e-05)
(-1.52791e-21 -3.57516e-20 -9.44849e-05)
(-1.22868e-20 -2.53447e-19 -8.87971e-05)
(1.28907e-20 2.88922e-19 -8.10796e-05)
(5.44415e-21 1.2685e-19 -7.17765e-05)
(1.12249e-24 8.34815e-23 -6.14218e-05)
(3.52077e-20 5.98296e-19 -0.000137237)
(-1.68105e-22 -1.68021e-20 -0.000115262)
(3.11123e-20 5.79575e-19 -0.000110213)
(1.47187e-20 2.895e-19 -0.000103103)
(-1.69509e-22 6.20272e-23 -9.39764e-05)
(6.02368e-21 1.36211e-19 -8.33039e-05)
(3.82144e-22 9.17278e-21 -7.16287e-05)
(-6.98231e-20 -1.14695e-18 -0.000163023)
(-6.82274e-20 -1.18152e-18 -0.000134092)
(-3.03314e-20 -5.62839e-19 -0.000127382)
(3.02711e-20 5.80944e-19 -0.000118641)
(-5.43107e-23 5.63315e-22 -0.000107937)
(-7.18748e-21 -1.54051e-19 -9.57708e-05)
(-4.95583e-22 -9.19006e-21 -8.26849e-05)
(3.68905e-20 5.84923e-19 -0.000192023)
(7.04645e-20 1.14971e-18 -0.000154795)
(3.57579e-20 6.02901e-19 -0.000146143)
(-6.37254e-20 -1.16285e-18 -0.00013554)
(-2.5839e-22 -8.16005e-22 -0.000123076)
(1.34379e-22 6.98343e-23 -0.000109278)
(-3.25411e-21 -7.29826e-20 -9.46818e-05)
(1.00492e-21 1.88507e-20 -0.000224602)
(-4.00026e-20 -6.22036e-19 -0.000177553)
(-3.51218e-20 -5.84896e-19 -0.000166641)
(6.74764e-20 1.16562e-18 -0.000153918)
(-1.50375e-20 -2.72442e-19 -0.000139495)
(4.24305e-22 8.7056e-21 -0.000123907)
(6.55187e-21 1.36818e-19 -0.000107686)
(5.4546e-22 1.91689e-20 -0.000261148)
(-4.2192e-20 -6.08378e-19 -0.000202542)
(3.74088e-22 5.39067e-22 -0.000189005)
(-7.09682e-20 -1.1688e-18 -0.000173869)
(1.82928e-20 3.08301e-19 -0.000157275)
(-1.14481e-21 -2.69686e-20 -0.000139712)
(-3.37335e-21 -6.38433e-20 -0.00012176)
(-8.93314e-20 -1.19503e-18 -0.000302061)
(-4.4332e-20 -6.1409e-19 -0.000229934)
(6.8575e-23 -1.71579e-21 -0.000213347)
(7.66232e-20 1.18888e-18 -0.000195435)
(3.5674e-20 6.04302e-19 -0.000176412)
(1.57038e-20 2.84079e-19 -0.000156761)
(-4.29084e-21 -8.20391e-20 -0.00013706)
(1.88821e-19 2.419e-18 -0.000347746)
(1.75507e-19 2.36228e-18 -0.000260009)
(6.24076e-22 2.42659e-21 -0.000239855)
(-4.08223e-20 -6.03154e-19 -0.000218705)
(-7.31951e-20 -1.15218e-18 -0.000196996)
(-3.54077e-20 -5.95219e-19 -0.000175234)
(4.59466e-21 8.14921e-20 -0.000153708)
(-9.66272e-20 -1.18662e-18 -0.000397731)
(-9.58321e-20 -1.21297e-18 -0.000292363)
(4.62558e-20 6.10894e-19 -0.000269115)
(5.37066e-22 -7.95202e-23 -0.000244073)
(3.94805e-20 5.85045e-19 -0.000218875)
(1.79968e-20 2.83856e-19 -0.000195012)
(-6.53505e-22 -8.75845e-21 -0.000171771)
(2.40456e-21 2.01177e-20 -0.000454602)
(-1.06708e-19 -1.23918e-18 -0.000327843)
(-4.46834e-20 -5.76262e-19 -0.000299844)
(8.47052e-22 -7.69157e-22 -0.000271841)
(1.4508e-21 1.84131e-20 -0.000243141)
(-2.20441e-21 -2.74507e-20 -0.000215355)
(5.83257e-22 9.10412e-21 -0.000189795)
(1.26783e-22 1.01365e-20 -0.000237939)
(-6.32576e-22 -9.14429e-21 -0.000208826)
(0 -0 1.73812e-05)
(0 -0 1.49397e-05)
(0 -0 1.24069e-05)
(0 -0 1.06411e-05)
(0 -0 9.18585e-06)
(0 -0 7.72789e-06)
(0 -0 6.28284e-06)
(0 -0 4.86589e-06)
(0 -0 3.49454e-06)
(0 -0 2.18717e-06)
(0 -0 9.61314e-07)
(0 -0 -1.68058e-07)
(0 -0 -1.1898e-06)
(0 -0 -2.09727e-06)
(0 -0 -2.88826e-06)
(0 -0 -3.5645e-06)
(0 -0 -4.13055e-06)
(0 -0 -4.59285e-06)
(0 -0 -4.95873e-06)
(0 -0 -5.23577e-06)
(0 -0 -5.43148e-06)
(0 -0 -5.55326e-06)
(0 -0 -5.6085e-06)
(0 -0 -5.60464e-06)
(0 -0 -5.54917e-06)
(0 -0 -5.44915e-06)
(0 -0 -5.30973e-06)
(0 -0 -5.12925e-06)
(0 -0 -4.8838e-06)
(0 -0 -4.47848e-06)
(0 -0 -3.59641e-06)
(0 -0 -1.2662e-06)
(0 -0 5.27583e-06)
(0 1.52955e-24 2.21187e-05)
(0 -0 1.3235e-05)
(0 -0 1.09923e-05)
(0 -0 8.69215e-06)
(0 -0 7.12493e-06)
(0 -0 5.89778e-06)
(0 -0 4.6803e-06)
(0 -0 3.48571e-06)
(0 -0 2.32691e-06)
(0 -0 1.21836e-06)
(0 -0 1.7491e-07)
(0 -0 -7.89971e-07)
(0 -0 -1.66563e-06)
(0 -0 -2.44537e-06)
(0 -0 -3.12688e-06)
(0 -0 -3.71201e-06)
(0 -0 -4.20588e-06)
(0 -0 -4.61579e-06)
(0 -0 -4.94995e-06)
(0 -0 -5.21642e-06)
(0 -0 -5.42253e-06)
(0 -0 -5.57456e-06)
(0 -0 -5.67779e-06)
(0 -0 -5.73678e-06)
(0 -0 -5.75564e-06)
(0 -0 -5.73815e-06)
(0 -0 -5.68739e-06)
(0 -0 -5.6038e-06)
(0 -0 -5.47845e-06)
(0 -0 -5.27012e-06)
(0 -0 -4.82877e-06)
(0 -0 -3.6409e-06)
(0 -0 7.38715e-09)
(0 -0 1.17283e-05)
(0 -9.05984e-24 5.02162e-05)
(0 -0 9.47108e-06)
(0 -0 7.42008e-06)
(0 -0 5.3009e-06)
(0 -0 3.94322e-06)
(0 -0 2.94104e-06)
(0 -0 1.95785e-06)
(0 -0 1.00582e-06)
(0 -0 9.60605e-08)
(0 -0 -7.59579e-07)
(0 -0 -1.54953e-06)
(0 -0 -2.26409e-06)
(0 -0 -2.89666e-06)
(0 -0 -3.4448e-06)
(0 -0 -3.91029e-06)
(0 -0 -4.29878e-06)
(0 -0 -4.61869e-06)
(0 -0 -4.87982e-06)
(0 -0 -5.09205e-06)
(0 -0 -5.26412e-06)
(0 -0 -5.40309e-06)
(0 -0 -5.51402e-06)
(0 -0 -5.60015e-06)
(0 -0 -5.66331e-06)
(0 -0 -5.7044e-06)
(0 -0 -5.72362e-06)
(0 -0 -5.72016e-06)
(0 -0 -5.68973e-06)
(0 -0 -5.61535e-06)
(0 -0 -5.43531e-06)
(0 -0 -4.93182e-06)
(0 -0 -3.34629e-06)
(0 -0 1.95079e-06)
(0 -0 2.00603e-05)
(0 1.00381e-23 8.32222e-05)
(0 -0 6.14239e-06)
(0 -0 4.25788e-06)
(0 -0 2.3194e-06)
(0 -0 1.16139e-06)
(0 -0 3.71548e-07)
(0 -0 -3.89683e-07)
(0 -0 -1.11169e-06)
(0 -0 -1.78543e-06)
(0 -0 -2.40158e-06)
(0 -0 -2.95169e-06)
(0 -0 -3.42957e-06)
(0 -0 -3.8325e-06)
(0 -0 -4.16195e-06)
(0 -0 -4.42363e-06)
(0 -0 -4.62671e-06)
(0 -0 -4.78268e-06)
(0 -0 -4.90374e-06)
(0 -0 -5.00128e-06)
(0 -0 -5.0847e-06)
(0 -0 -5.16076e-06)
(0 -0 -5.23334e-06)
(0 -0 -5.30376e-06)
(0 -0 -5.37127e-06)
(0 -0 -5.43369e-06)
(0 -0 -5.48788e-06)
(0 -0 -5.52923e-06)
(0 -0 -5.54864e-06)
(0 -0 -5.52053e-06)
(0 -0 -5.35974e-06)
(0 -0 -4.76973e-06)
(0 -0 -2.70654e-06)
(0 -0 4.51645e-06)
(0 -0 2.99373e-05)
(0 -3.65108e-25 0.000121115)
(0 -0 3.27916e-06)
(0 -0 1.55231e-06)
(0 -0 -2.15836e-07)
(0 -0 -1.18884e-06)
(0 -0 -1.78184e-06)
(0 -0 -2.33674e-06)
(0 -0 -2.84461e-06)
(0 -0 -3.29844e-06)
(0 -0 -3.69141e-06)
(0 -0 -4.01801e-06)
(0 -0 -4.27535e-06)
(0 -0 -4.46434e-06)
(0 -0 -4.59013e-06)
(0 -0 -4.662e-06)
(0 -0 -4.69251e-06)
(0 -0 -4.69596e-06)
(0 -0 -4.68678e-06)
(0 -0 -4.67776e-06)
(0 -0 -4.67893e-06)
(0 -0 -4.69674e-06)
(0 -0 -4.73401e-06)
(0 -0 -4.79021e-06)
(0 -0 -4.86218e-06)
(0 -0 -4.94492e-06)
(0 -0 -5.03208e-06)
(0 -0 -5.11542e-06)
(0 -0 -5.18108e-06)
(0 -0 -5.19424e-06)
(0 -0 -5.04368e-06)
(0 -0 -4.3441e-06)
(0 -0 -1.72973e-06)
(0 -0 7.67304e-06)
(0 -0 4.12982e-05)
(0 1.27361e-23 0.000163978)
(0 -0 8.9287e-07)
(0 -0 -6.88316e-07)
(0 -0 -2.29968e-06)
(0 -0 -3.1033e-06)
(0 -0 -3.51628e-06)
(0 -0 -3.88233e-06)
(0 -0 -4.19398e-06)
(0 -0 -4.44608e-06)
(0 -0 -4.63418e-06)
(0 -0 -4.75548e-06)
(0 -0 -4.81021e-06)
(0 -0 -4.80257e-06)
(0 -0 -4.74117e-06)
(0 -0 -4.63859e-06)
(0 -0 -4.51049e-06)
(0 -0 -4.37384e-06)
(0 -0 -4.24506e-06)
(0 -0 -4.13829e-06)
(0 -0 -4.06409e-06)
(0 -0 -4.0287e-06)
(0 -0 -4.03392e-06)
(0 -0 -4.07752e-06)
(0 -0 -4.15415e-06)
(0 -0 -4.25616e-06)
(0 -0 -4.3742e-06)
(0 -0 -4.49661e-06)
(0 -0 -4.60478e-06)
(0 -0 -4.65407e-06)
(0 -0 -4.50471e-06)
(0 -0 -3.6729e-06)
(0 -0 -4.35253e-07)
(0 -0 1.14002e-05)
(0 -0 5.41496e-05)
(0 -1.35372e-23 0.000212106)
(0 -0 -1.02977e-06)
(0 -0 -2.47939e-06)
(0 -0 -3.94891e-06)
(0 -0 -4.59967e-06)
(0 -0 -4.85033e-06)
(0 -0 -5.04593e-06)
(0 -0 -5.18026e-06)
(0 -0 -5.24988e-06)
(0 -0 -5.25246e-06)
(0 -0 -5.18768e-06)
(0 -0 -5.05865e-06)
(0 -0 -4.87259e-06)
(0 -0 -4.64123e-06)
(0 -0 -4.38027e-06)
(0 -0 -4.10815e-06)
(0 -0 -3.84429e-06)
(0 -0 -3.60694e-06)
(0 -0 -3.41152e-06)
(0 -0 -3.26912e-06)
(0 -0 -3.18576e-06)
(0 -0 -3.16229e-06)
(0 -0 -3.19499e-06)
(0 -0 -3.2765e-06)
(0 -0 -3.39672e-06)
(0 -0 -3.5435e-06)
(0 -0 -3.70202e-06)
(0 -0 -3.84885e-06)
(0 -0 -3.92904e-06)
(0 -0 -3.7717e-06)
(0 -0 -2.78455e-06)
(0 -0 1.15069e-06)
(0 -0 1.56837e-05)
(0 -0 6.85396e-05)
(0 -7.45954e-23 0.000265891)
(0 -0 -2.52157e-06)
(0 -0 -3.85446e-06)
(0 -0 -5.1976e-06)
(0 -0 -5.71234e-06)
(0 -0 -5.81856e-06)
(0 -0 -5.86228e-06)
(0 -0 -5.83838e-06)
(0 -0 -5.74495e-06)
(0 -0 -5.58154e-06)
(0 -0 -5.35013e-06)
(0 -0 -5.05636e-06)
(0 -0 -4.71022e-06)
(0 -0 -4.32628e-06)
(0 -0 -3.92304e-06)
(0 -0 -3.52152e-06)
(0 -0 -3.14332e-06)
(0 -0 -2.80845e-06)
(0 -0 -2.53349e-06)
(0 -0 -2.33e-06)
(0 -0 -2.20381e-06)
(0 -0 -2.15497e-06)
(0 -0 -2.17845e-06)
(0 -0 -2.26501e-06)
(0 -0 -2.4023e-06)
(0 -0 -2.57572e-06)
(0 -0 -2.76732e-06)
(0 -0 -2.94891e-06)
(0 -0 -3.05466e-06)
(0 -0 -2.87985e-06)
(0 -0 -1.71313e-06)
(0 -0 2.99858e-06)
(0 -0 2.05143e-05)
(0 -0 8.45486e-05)
(0 -2.96634e-23 0.00032586)
(0 -0 -3.6292e-06)
(0 -0 -4.85995e-06)
(0 -0 -6.09184e-06)
(0 -0 -6.487e-06)
(0 -0 -6.46619e-06)
(0 -0 -6.37606e-06)
(0 -0 -6.21252e-06)
(0 -0 -5.97498e-06)
(0 -0 -5.66466e-06)
(0 -0 -5.28558e-06)
(0 -0 -4.84563e-06)
(0 -0 -4.35727e-06)
(0 -0 -3.83762e-06)
(0 -0 -3.30771e-06)
(0 -0 -2.79091e-06)
(0 -0 -2.31079e-06)
(0 -0 -1.88904e-06)
(0 -0 -1.54325e-06)
(0 -0 -1.28546e-06)
(0 -0 -1.12132e-06)
(0 -0 -1.05026e-06)
(0 -0 -1.06605e-06)
(0 -0 -1.15769e-06)
(0 -0 -1.3109e-06)
(0 -0 -1.50878e-06)
(0 -0 -1.7304e-06)
(0 -0 -1.94284e-06)
(0 -0 -2.06872e-06)
(0 -0 -1.86651e-06)
(0 -0 -4.94449e-07)
(0 -0 5.07886e-06)
(0 -0 2.58888e-05)
(0 -0 0.000102282)
(0 -2.76787e-23 0.000392641)
(0 -0 -4.40721e-06)
(0 -0 -5.54941e-06)
(0 -0 -6.68409e-06)
(0 -0 -6.97498e-06)
(0 -0 -6.8435e-06)
(0 -0 -6.63659e-06)
(0 -0 -6.35102e-06)
(0 -0 -5.98737e-06)
(0 -0 -5.54829e-06)
(0 -0 -5.03953e-06)
(0 -0 -4.47096e-06)
(0 -0 -3.85722e-06)
(0 -0 -3.21774e-06)
(0 -0 -2.57579e-06)
(0 -0 -1.95686e-06)
(0 -0 -1.38641e-06)
(0 -0 -8.87571e-07)
(0 -0 -4.78942e-07)
(0 -0 -1.7298e-07)
(0 -0 2.46752e-08)
(0 -0 1.15154e-07)
(0 -0 1.05877e-07)
(0 -0 9.28983e-09)
(0 -0 -1.58602e-07)
(0 -0 -3.78672e-07)
(0 -0 -6.27233e-07)
(0 -0 -8.66535e-07)
(0 -0 -1.007e-06)
(0 -0 -7.66991e-07)
(0 -0 8.38154e-07)
(0 -0 7.36608e-06)
(0 -0 3.18126e-05)
(0 -0 0.000121871)
(0 1.21861e-22 0.000466949)
(0 -0 -4.91255e-06)
(0 -0 -5.97797e-06)
(0 -0 -7.02776e-06)
(0 -0 -7.2282e-06)
(0 -0 -7.00111e-06)
(0 -0 -6.69326e-06)
(0 -0 -6.30216e-06)
(0 -0 -5.82925e-06)
(0 -0 -5.27835e-06)
(0 -0 -4.65662e-06)
(0 -0 -3.9756e-06)
(0 -0 -3.2519e-06)
(0 -0 -2.50697e-06)
(0 -0 -1.76616e-06)
(0 -0 -1.05686e-06)
(0 -0 -4.06334e-07)
(0 -0 1.60953e-07)
(0 -0 6.25483e-07)
(0 -0 9.74311e-07)
(0 -0 1.20174e-06)
(0 -0 1.30949e-06)
(0 -0 1.30599e-06)
(0 -0 1.20488e-06)
(0 -0 1.02383e-06)
(0 -0 7.84003e-07)
(0 -0 5.11714e-07)
(0 -0 2.49582e-07)
(0 -0 1.00378e-07)
(0 -0 3.89227e-07)
(0 -0 2.25755e-06)
(0 -0 9.84228e-06)
(0 -0 3.83036e-05)
(0 -0 0.000143476)
(0 -1.94344e-22 0.000549609)
(0 -0 -5.19935e-06)
(0 -0 -6.19734e-06)
(0 -0 -7.17256e-06)
(0 -0 -7.29496e-06)
(0 -0 -6.98624e-06)
(0 -0 -6.59244e-06)
(0 -0 -6.11136e-06)
(0 -0 -5.54495e-06)
(0 -0 -4.89783e-06)
(0 -0 -4.17825e-06)
(0 -0 -3.39924e-06)
(0 -0 -2.57912e-06)
(0 -0 -1.74122e-06)
(0 -0 -9.12794e-07)
(0 -0 -1.23118e-07)
(0 -0 5.98941e-07)
(0 -0 1.22761e-06)
(0 -0 1.74244e-06)
(0 -0 2.12995e-06)
(0 -0 2.38443e-06)
(0 -0 2.50814e-06)
(0 -0 2.51026e-06)
(0 -0 2.40554e-06)
(0 -0 2.21328e-06)
(0 -0 1.95643e-06)
(0 -0 1.66387e-06)
(0 -0 1.38321e-06)
(0 -0 1.23143e-06)
(0 -0 1.58107e-06)
(0 -0 3.7456e-06)
(0 -0 1.24999e-05)
(0 -0 4.53951e-05)
(0 -0 0.000167291)
(0 4.03076e-22 0.000641571)
(0 -0 -5.31454e-06)
(0 -0 -6.25139e-06)
(0 -0 -7.16071e-06)
(0 -0 -7.21695e-06)
(0 -0 -6.84056e-06)
(0 -0 -6.37568e-06)
(0 -0 -5.81967e-06)
(0 -0 -5.17451e-06)
(0 -0 -4.44524e-06)
(0 -0 -3.64107e-06)
(0 -0 -2.77635e-06)
(0 -0 -1.87101e-06)
(0 -0 -9.50204e-07)
(0 -0 -4.30517e-08)
(0 -0 8.19311e-07)
(0 -0 1.60647e-06)
(0 -0 2.29135e-06)
(0 -0 2.85255e-06)
(0 -0 3.27602e-06)
(0 -0 3.55613e-06)
(0 -0 3.69548e-06)
(0 -0 3.70387e-06)
(0 -0 3.59724e-06)
(0 -0 3.39628e-06)
(0 -0 3.12558e-06)
(0 -0 2.81656e-06)
(0 -0 2.52218e-06)
(0 -0 2.37444e-06)
(0 -0 2.79788e-06)
(0 -0 5.29512e-06)
(0 -0 1.53439e-05)
(0 -0 5.31386e-05)
(0 -0 0.000193553)
(0 -2.22562e-22 0.000743919)
(0 -0 -5.29283e-06)
(0 -0 -6.17155e-06)
(0 -0 -7.02373e-06)
(0 -0 -7.02732e-06)
(0 -0 -6.59889e-06)
(0 -0 -6.07859e-06)
(0 -0 -5.46245e-06)
(0 -0 -4.75201e-06)
(0 -0 -3.95267e-06)
(0 -0 -3.07459e-06)
(0 -0 -2.13354e-06)
(0 -0 -1.15115e-06)
(0 -0 -1.54494e-07)
(0 -0 8.25377e-07)
(0 -0 1.75552e-06)
(0 -0 2.60388e-06)
(0 -0 3.34205e-06)
(0 -0 3.94767e-06)
(0 -0 4.40624e-06)
(0 -0 4.71208e-06)
(0 -0 4.86797e-06)
(0 -0 4.88442e-06)
(0 -0 4.77851e-06)
(0 -0 4.57205e-06)
(0 -0 4.29131e-06)
(0 -0 3.9702e-06)
(0 -0 3.66731e-06)
(0 -0 3.53085e-06)
(0 -0 4.04243e-06)
(0 -0 6.91265e-06)
(0 -0 1.83948e-05)
(0 -0 6.16079e-05)
(0 -0 0.000222541)
(0 -9.71953e-24 0.000857897)
(0 -0 -5.14855e-06)
(0 -0 -5.97135e-06)
(0 -0 -6.78009e-06)
(0 -0 -6.74995e-06)
(0 -0 -6.28842e-06)
(0 -0 -5.72913e-06)
(0 -0 -5.06636e-06)
(0 -0 -4.30147e-06)
(0 -0 -3.4407e-06)
(0 -0 -2.49558e-06)
(0 -0 -1.48364e-06)
(0 -0 -4.28527e-07)
(0 -0 6.40665e-07)
(0 -0 1.69077e-06)
(0 -0 2.68701e-06)
(0 -0 3.5956e-06)
(0 -0 4.38679e-06)
(0 -0 5.0373e-06)
(0 -0 5.53219e-06)
(0 -0 5.86557e-06)
(0 -0 6.04044e-06)
(0 -0 6.06813e-06)