/*--------------------------------*- C++ -*----------------------------------*\
| =========                 |                                                 |
| \\      /  F ield         | OpenFOAM: The Open Source CFD Toolbox           |
|  \\    /   O peration     | Version:  2412                                  |
|   \\  /    A nd           | Website:  www.openfoam.com                      |
|    \\/     M anipulation  |                                                 |
\*---------------------------------------------------------------------------*/
FoamFile
{
    version     2.0;
    format      ascii;
    arch        "LSB;label=32;scalar=64";
    class       volScalarField;
    location    "27.5";
    object      p;
}
// * * * * * * * * * * * * * * * * * * * * * * * * * * * * * * * * * * * * * //

dimensions      [0 2 -2 0 0 0 0];

internalField   nonuniform List<scalar> 
5285
(
0.000774328
0.000769348
0.000764061
0.000758454
0.000752513
0.000746224
0.000739572
0.000732543
0.000725123
0.000717297
0.00070905
0.000700367
0.000691235
0.000681639
0.000671564
0.000660998
0.000784505
0.000779661
0.000774505
0.000769022
0.000763198
0.000757017
0.000750465
0.000743526
0.000736185
0.000728425
0.000720231
0.000711587
0.000702477
0.000692886
0.000682797
0.000672197
0.000794963
0.000790268
0.000785256
0.000779911
0.000774217
0.00076816
0.000761722
0.000754887
0.000747638
0.000739959
0.000731833
0.000723241
0.000714167
0.000704595
0.000694506
0.000683884
0.000805706
0.000801173
0.000796319
0.000791126
0.000785578
0.000779658
0.000773349
0.000766634
0.000759494
0.000751912
0.000743868
0.000735344
0.000726322
0.000716783
0.000706708
0.000696079
0.000816736
0.000812381
0.000807699
0.000802673
0.000797286
0.000791521
0.000785357
0.000778778
0.000771763
0.000764294
0.00075635
0.000747911
0.000738957
0.000729468
0.000719424
0.000708804
0.000828058
0.000823895
0.000819401
0.000814559
0.00080935
0.000803754
0.000797754
0.000791328
0.000784457
0.000777119
0.000769293
0.000760957
0.00075209
0.000742669
0.000732673
0.000722079
0.000839673
0.000835718
0.000831429
0.000826787
0.000821773
0.000816366
0.000810547
0.000804294
0.000797585
0.000790397
0.000782709
0.000774496
0.000765735
0.000756403
0.000746474
0.000735925
0.000851583
0.000847853
0.000843786
0.000839363
0.000834562
0.000829363
0.000823745
0.000817684
0.000811157
0.000804141
0.000796612
0.000788543
0.00077991
0.000770687
0.000760848
0.000750366
0.00086379
0.000860302
0.000856475
0.000852289
0.000847721
0.00084275
0.000837353
0.000831506
0.000825184
0.000818362
0.000811014
0.000803113
0.000794631
0.000785541
0.000775814
0.000765422
0.000876294
0.000873066
0.000869499
0.000865569
0.000861254
0.000856533
0.000851379
0.000845768
0.000839674
0.00083307
0.000825928
0.000818219
0.000809913
0.000800982
0.000791393
0.000781116
0.000889094
0.000886146
0.000882857
0.000879205
0.000875165
0.000870715
0.000865828
0.000860477
0.000854636
0.000848275
0.000841365
0.000833874
0.000825773
0.000817027
0.000807604
0.000797471
0.00090219
0.000899541
0.000896551
0.000893198
0.000889456
0.0008853
0.000880704
0.000875639
0.000870077
0.000863986
0.000857336
0.000850093
0.000842224
0.000833694
0.000824467
0.000814508
0.000915579
0.000913249
0.000910581
0.000907549
0.000904128
0.000900292
0.000896012
0.00089126
0.000886004
0.000880212
0.000873851
0.000866886
0.000859281
0.000850999
0.000842002
0.000832249
0.000929258
0.000927269
0.000924943
0.000922256
0.000919181
0.00091569
0.000911754
0.000907342
0.000902422
0.00089696
0.00089092
0.000884266
0.000876959
0.000868959
0.000860226
0.000850716
0.000943222
0.000941596
0.000939636
0.000937318
0.000934614
0.000931495
0.000927931
0.000923889
0.000919336
0.000914235
0.00090855
0.000902241
0.000895268
0.000887588
0.000879157
0.000869928
0.000957467
0.000956225
0.000954655
0.000952732
0.000950425
0.000947706
0.000944543
0.000940902
0.000936748
0.000932043
0.000926748
0.000920822
0.000914221
0.0009069
0.000898812
0.000889907
0.000971984
0.00097115
0.000969995
0.000968491
0.00096661
0.00096432
0.000961589
0.000958381
0.00095466
0.000950387
0.000945519
0.000940015
0.000933826
0.000926907
0.000919205
0.00091067
0.000986766
0.000986363
0.000985647
0.00098459
0.000983162
0.000981331
0.000979063
0.000976323
0.000973071
0.000969266
0.000964866
0.000959824
0.000954092
0.000947619
0.000940352
0.000932234
0.0010018
0.00100185
0.0010016
0.00100102
0.00100007
0.000998733
0.000996963
0.000994724
0.000991978
0.000988682
0.00098479
0.000980254
0.000975024
0.000969046
0.000962263
0.000954615
0.00101708
0.00101761
0.00101785
0.00101777
0.00101734
0.00101652
0.00101528
0.00101358
0.00101138
0.00100863
0.00100529
0.00100131
0.000996627
0.000991194
0.000984948
0.000977826
0.000826295
0.000826337
0.000826469
0.000826672
0.000826939
0.000827266
0.000827645
0.000828071
0.000828537
0.000829036
0.000829561
0.000830106
0.000830663
0.000831225
0.000831783
0.00083233
0.000832857
0.000833356
0.000833819
0.000834237
0.000834603
0.000834911
0.000835155
0.00083533
0.000835431
0.000835454
0.000835394
0.000835246
0.000835005
0.000834666
0.000834222
0.000833667
0.000832994
0.000832198
0.000831272
0.00083021
0.000829006
0.000827655
0.000826151
0.000824491
0.000822669
0.000820682
0.000818526
0.0008162
0.000813699
0.000811023
0.00080817
0.000805138
0.000801927
0.000798537
0.000794967
0.000791219
0.000787294
0.000783193
0.000778917
0.000828808
0.000828856
0.000829004
0.000829233
0.000829534
0.000829904
0.000830335
0.000830819
0.000831352
0.000831924
0.00083253
0.000833163
0.000833814
0.000834476
0.000835141
0.0008358
0.000836446
0.00083707
0.000837662
0.000838216
0.000838724
0.000839178
0.000839573
0.000839904
0.000840165
0.000840352
0.00084046
0.000840484
0.000840418
0.000840256
0.000839992
0.000839619
0.000839132
0.000838522
0.000837785
0.000836912
0.000835899
0.000834739
0.000833427
0.000831958
0.000830327
0.00082853
0.000826563
0.000824423
0.000822107
0.000819612
0.000816938
0.000814081
0.000811042
0.000807818
0.000804411
0.000800821
0.000797048
0.000793092
0.000788957
0.00083131
0.000831362
0.000831528
0.000831782
0.000832119
0.000832532
0.000833014
0.000833558
0.000834157
0.000834804
0.000835492
0.000836212
0.000836958
0.000837722
0.000838495
0.000839269
0.000840035
0.000840785
0.00084151
0.000842202
0.000842853
0.000843456
0.000844006
0.000844496
0.000844921
0.000845276
0.000845556
0.000845755
0.000845868
0.000845888
0.00084581
0.000845626
0.000845329
0.000844912
0.00084437
0.000843694
0.000842878
0.000841917
0.000840805
0.000839535
0.000838104
0.000836505
0.000834736
0.000832792
0.000830671
0.000828368
0.000825883
0.000823212
0.000820355
0.00081731
0.000814077
0.000810655
0.000807046
0.000803248
0.000799265
0.000833798
0.000833856
0.000834038
0.000834319
0.00083469
0.000835147
0.000835681
0.000836285
0.000836952
0.000837674
0.000838444
0.000839254
0.000840096
0.000840962
0.000841845
0.000842734
0.000843623
0.000844501
0.00084536
0.000846192
0.00084699
0.000847745
0.000848451
0.000849103
0.000849695
0.000850222
0.000850677
0.000851057
0.000851353
0.000851561
0.000851673
0.000851683
0.000851583
0.000851366
0.000851024
0.000850552
0.000849942
0.000849187
0.000848282
0.000847221
0.000845997
0.000844607
0.000843045
0.000841307
0.00083939
0.00083729
0.000835005
0.000832531
0.000829867
0.000827012
0.000823965
0.000820724
0.00081729
0.000813663
0.000809844
0.000836271
0.000836335
0.000836534
0.000836841
0.000837248
0.000837749
0.000838335
0.000839
0.000839734
0.000840532
0.000841385
0.000842285
0.000843224
0.000844194
0.000845187
0.000846194
0.000847206
0.000848215
0.00084921
0.000850185
0.00085113
0.00085204
0.000852906
0.000853723
0.000854485
0.000855187
0.000855823
0.000856386
0.000856871
0.000857271
0.000857579
0.000857788
0.00085789
0.000857879
0.000857746
0.000857484
0.000857086
0.000856546
0.000855856
0.000855011
0.000854005
0.000852832
0.000851486
0.000849965
0.000848263
0.000846376
0.000844302
0.000842036
0.000839578
0.000836925
0.000834076
0.000831028
0.000827783
0.00082434
0.000820698
0.000838729
0.000838798
0.000839014
0.000839348
0.00083979
0.000840335
0.000840974
0.0008417
0.000842503
0.000843377
0.000844313
0.000845304
0.000846341
0.000847416
0.000848521
0.000849647
0.000850784
0.000851924
0.000853058
0.000854177
0.000855273
0.000856339
0.000857368
0.000858353
0.000859289
0.00086017
0.000860989
0.000861741
0.000862418
0.000863015
0.000863524
0.000863938
0.000864248
0.000864448
0.00086453
0.000864486
0.000864308
0.00086399
0.000863524
0.000862904
0.000862124
0.000861177
0.000860059
0.000858764
0.000857287
0.000855625
0.000853773
0.000851728
0.000849487
0.000847048
0.000844409
0.000841569
0.000838525
0.000835279
0.000831828
0.000841169
0.000841244
0.000841477
0.000841838
0.000842316
0.000842905
0.000843597
0.000844383
0.000845256
0.000846206
0.000847227
0.000848309
0.000849446
0.000850627
0.000851844
0.00085309
0.000854354
0.000855627
0.0008569
0.000858166
0.000859415
0.00086064
0.000861834
0.000862991
0.000864103
0.000865166
0.000866172
0.000867116
0.000867991
0.00086879
0.000869505
0.000870129
0.000870654
0.000871071
0.000871375
0.000871555
0.000871604
0.000871516
0.000871282
0.000870896
0.000870351
0.000869641
0.000868759
0.000867701
0.00086646
0.000865033
0.000863416
0.000861603
0.000859592
0.000857381
0.000854966
0.000852345
0.000849517
0.000846482
0.000843237
0.000843591
0.000843671
0.000843922
0.000844309
0.000844823
0.000845457
0.000846202
0.00084705
0.000847992
0.00084902
0.000850125
0.0008513
0.000852535
0.000853823
0.000855155
0.000856521
0.000857913
0.00085932
0.000860736
0.000862149
0.000863553
0.00086494
0.000866302
0.000867632
0.000868924
0.000870173
0.00087137
0.00087251
0.000873587
0.000874592
0.000875518
0.000876357
0.000877102
0.000877744
0.000878275
0.000878687
0.000878971
0.000879121
0.000879127
0.000878984
0.000878683
0.000878218
0.000877584
0.000876773
0.00087578
0.0008746
0.000873228
0.00087166
0.000869893
0.000867921
0.000865744
0.000863357
0.000860759
0.000857949
0.000854925
0.000845992
0.000846078
0.000846346
0.00084676
0.00084731
0.000847989
0.000848788
0.000849697
0.000850709
0.000851814
0.000853005
0.000854272
0.000855608
0.000857004
0.00085845
0.000859938
0.000861459
0.000863003
0.000864561
0.000866125
0.000867686
0.000869236
0.000870768
0.000872275
0.00087375
0.000875187
0.000876579
0.000877919
0.000879201
0.000880417
0.000881559
0.000882619
0.000883589
0.000884462
0.000885227
0.000885877
0.000886404
0.000886799
0.000887054
0.000887162
0.000887115
0.000886906
0.000886529
0.000885976
0.000885242
0.000884321
0.000883207
0.000881897
0.000880385
0.000878668
0.000876742
0.000874603
0.000872251
0.000869681
0.000866894
0.000848373
0.000848464
0.000848749
0.00084919
0.000849776
0.0008505
0.000851353
0.000852324
0.000853406
0.000854589
0.000855865
0.000857226
0.000858663
0.000860166
0.000861728
0.000863339
0.00086499
0.000866672
0.000868375
0.00087009
0.000871809
0.000873525
0.000875229
0.000876915
0.000878576
0.000880204
0.000881794
0.000883339
0.00088483
0.000886261
0.000887624
0.00088891
0.000890112
0.00089122
0.000892227
0.000893122
0.000893898
0.000894547
0.000895059
0.000895428
0.000895644
0.0008957
0.00089559
0.000895306
0.000894842
0.000894192
0.000893349
0.000892309
0.000891067
0.000889617
0.000887957
0.000886082
0.00088399
0.000881677
0.000879142
0.00085073
0.000850826
0.00085113
0.000851597
0.00085222
0.000852989
0.000853895
0.000854928
0.00085608
0.000857341
0.000858704
0.000860158
0.000861696
0.000863309
0.000864987
0.000866722
0.000868504
0.000870324
0.000872173
0.000874041
0.000875921
0.000877804
0.000879683
0.00088155
0.000883399
0.000885222
0.000887013
0.000888765
0.00089047
0.000892121
0.000893709
0.000895227
0.000896665
0.000898015
0.000899269
0.000900417
0.00090145
0.00090236
0.000903137
0.000903774
0.000904263
0.000904595
0.000904763
0.000904759
0.000904576
0.000904209
0.00090365
0.000902893
0.000901934
0.000900767
0.000899388
0.000897791
0.000895975
0.000893935
0.000891669
0.000853063
0.000853165
0.000853486
0.000853981
0.000854639
0.000855454
0.000856413
0.000857509
0.000858731
0.000860071
0.000861519
0.000863068
0.000864708
0.00086643
0.000868225
0.000870084
0.000871998
0.000873958
0.000875954
0.000877977
0.000880018
0.000882071
0.000884126
0.000886177
0.000888216
0.000890237
0.000892232
0.000894194
0.000896117
0.000897991
0.000899809
0.000901563
0.000903244
0.000904842
0.000906349
0.000907755
0.000909053
0.000910231
0.000911283
0.000912198
0.000912968
0.000913585
0.000914041
0.000914328
0.000914439
0.000914367
0.000914104
0.000913644
0.000912982
0.000912112
0.000911029
0.000909727
0.000908203
0.000906453
0.000904473
0.000855371
0.000855478
0.000855816
0.000856338
0.000857033
0.000857892
0.000858906
0.000860064
0.000861356
0.000862775
0.00086431
0.000865952
0.000867694
0.000869526
0.000871439
0.000873423
0.00087547
0.00087757
0.000879714
0.000881893
0.000884098
0.000886321
0.000888554
0.000890791
0.000893023
0.000895244
0.000897446
0.000899623
0.000901766
0.000903868
0.00090592
0.000907915
0.000909843
0.000911694
0.000913461
0.000915133
0.000916702
0.000918157
0.00091949
0.000920691
0.000921753
0.000922665
0.00092342
0.000924009
0.000924425
0.00092466
0.000924706
0.000924557
0.000924207
0.000923648
0.000922876
0.000921885
0.00092067
0.000919227
0.000917552
0.000857651
0.000857765
0.00085812
0.000858669
0.0008594
0.000860304
0.000861372
0.000862591
0.000863955
0.000865451
0.000867073
0.00086881
0.000870654
0.000872596
0.000874627
0.000876737
0.000878917
0.000881158
0.000883451
0.000885786
0.000888156
0.000890551
0.000892965
0.000895389
0.000897816
0.000900239
0.000902652
0.000905045
0.000907413
0.000909746
0.000912037
0.000914277
0.000916457
0.000918568
0.0009206
0.000922544
0.00092439
0.00092613
0.000927752
0.000929249
0.00093061
0.000931828
0.000932892
0.000933794
0.000934527
0.000935081
0.00093545
0.000935626
0.000935601
0.000935369
0.000934924
0.00093426
0.000933372
0.000932253
0.000930901
0.000859904
0.000860022
0.000860395
0.000860971
0.000861738
0.000862687
0.000863808
0.000865091
0.000866524
0.000868099
0.000869807
0.000871639
0.000873586
0.000875638
0.000877786
0.000880022
0.000882337
0.000884719
0.000887162
0.000889655
0.00089219
0.000894759
0.000897354
0.000899967
0.000902591
0.00090522
0.000907844
0.000910458
0.000913053
0.000915621
0.000918155
0.000920644
0.000923081
0.000925456
0.00092776
0.000929982
0.000932113
0.000934143
0.000936064
0.000937864
0.000939534
0.000941066
0.00094245
0.000943677
0.000944738
0.000945625
0.000946329
0.000946843
0.000947158
0.000947269
0.000947167
0.000946847
0.000946301
0.000945526
0.000944515
0.000862126
0.00086225
0.00086264
0.000863243
0.000864046
0.000865041
0.000866215
0.000867559
0.000869063
0.000870717
0.000872511
0.000874438
0.000876486
0.000878649
0.000880916
0.000883278
0.000885726
0.000888251
0.000890844
0.000893496
0.000896197
0.000898941
0.000901718
0.000904522
0.000907345
0.00091018
0.000913019
0.000915855
0.000918681
0.000921488
0.000924267
0.000927011
0.000929709
0.000932353
0.000934933
0.000937439
0.000939862
0.000942191
0.000944416
0.000946528
0.000948517
0.000950373
0.000952087
0.000953649
0.00095505
0.000956281
0.000957334
0.0009582
0.000958871
0.000959339
0.000959596
0.000959636
0.000959453
0.000959039
0.000958388
0.000864318
0.000864447
0.000864854
0.000865484
0.000866323
0.000867362
0.00086859
0.000869996
0.00087157
0.000873302
0.000875183
0.000877203
0.000879354
0.000881627
0.000884012
0.000886501
0.000889084
0.000891751
0.000894495
0.000897305
0.000900174
0.000903093
0.000906054
0.00090905
0.000912073
0.000915116
0.000918172
0.000921233
0.000924292
0.00092734
0.000930369
0.00093337
0.000936335
0.000939252
0.000942114
0.00094491
0.00094763
0.000950265
0.000952803
0.000955235
0.00095755
0.00095974
0.000961794
0.000963702
0.000965454
0.000967043
0.000968457
0.000969689
0.000970729
0.00097157
0.000972204
0.000972622
0.000972817
0.000972783
0.000972514
0.000866476
0.000866612
0.000867036
0.000867692
0.000868566
0.00086965
0.000870931
0.000872399
0.000874043
0.000875852
0.000877819
0.000879934
0.000882187
0.00088457
0.000887073
0.000889688
0.000892405
0.000895216
0.00089811
0.00090108
0.000904116
0.000907211
0.000910357
0.000913546
0.000916771
0.000920024
0.000923298
0.000926587
0.000929881
0.000933173
0.000936455
0.000939717
0.000942951
0.000946148
0.000949296
0.000952388
0.000955411
0.000958357
0.000961215
0.000963975
0.000966626
0.000969158
0.000971562
0.000973826
0.000975942
0.000977899
0.000979688
0.000981299
0.000982724
0.000983954
0.000984979
0.000985792
0.000986385
0.000986751
0.000986882
0.000868602
0.000868742
0.000869184
0.000869866
0.000870776
0.000871904
0.000873238
0.000874767
0.00087648
0.000878367
0.00088042
0.000882628
0.000884983
0.000887475
0.000890097
0.000892838
0.000895689
0.000898642
0.000901687
0.000904817
0.000908021
0.000911293
0.000914624
0.000918007
0.000921434
0.000924899
0.000928393
0.000931911
0.000935443
0.000938982
0.000942519
0.000946046
0.000949554
0.000953032
0.000956473
0.000959864
0.000963197
0.000966461
0.000969645
0.00097274
0.000975734
0.000978618
0.000981381
0.000984012
0.000986502
0.00098884
0.000991016
0.000993021
0.000994845
0.000996478
0.000997912
0.000999138
0.00100015
0.00100093
0.00100148
0.000984867
0.000988111
0.000991242
0.00099425
0.000997125
0.000999855
0.00100243
0.00100484
0.00100708
0.00100913
0.00101099
0.00101265
0.00101409
0.00101531
0.00101631
0.000669923
0.00066973
0.000669235
0.00066844
0.000667371
0.00066605
0.000664491
0.000662707
0.000660709
0.000658511
0.000656123
0.000653557
0.000650823
0.000647931
0.00064489
0.00064171
0.000638397
0.000634961
0.000631408
0.000627746
0.000623981
0.00062012
0.00061617
0.000612138
0.000608031
0.000603855
0.000599618
0.000595327
0.000590987
0.000586606
0.000582189
0.000577743
0.000573273
0.000568785
0.000564282
0.000559771
0.000555255
0.00055074
0.000546228
0.000541724
0.000537231
0.000532753
0.000528292
0.000523853
0.000519437
0.000515048
0.000510687
0.000506358
0.000502062
0.000497801
0.000493577
0.000489393
0.000485249
0.000481146
0.000477088
0.000670241
0.000670049
0.000669555
0.000668759
0.000667692
0.000666372
0.000664815
0.000663033
0.000661037
0.000658841
0.000656455
0.000653892
0.00065116
0.00064827
0.000645232
0.000642054
0.000638744
0.00063531
0.000631759
0.000628099
0.000624335
0.000620476
0.000616528
0.000612497
0.00060839
0.000604216
0.000599979
0.000595688
0.000591348
0.000586967
0.00058255
0.000578104
0.000573633
0.000569143
0.000564639
0.000560126
0.000555609
0.000551091
0.000546577
0.00054207
0.000537574
0.000533093
0.000528629
0.000524186
0.000519767
0.000515374
0.000511009
0.000506675
0.000502375
0.000498109
0.000493881
0.000489691
0.000485542
0.000481435
0.00047737
0.000670858
0.000670667
0.000670174
0.00066938
0.000668315
0.000666999
0.000665445
0.000663666
0.000661675
0.000659482
0.000657101
0.000654542
0.000651815
0.00064893
0.000645896
0.000642723
0.000639417
0.000635987
0.00063244
0.000628783
0.000625024
0.000621167
0.000617222
0.000613193
0.000609089
0.000604916
0.000600681
0.00059639
0.000592051
0.00058767
0.000583252
0.000578804
0.000574332
0.00056984
0.000565334
0.000560818
0.000556297
0.000551775
0.000547256
0.000542744
0.000538243
0.000533756
0.000529286
0.000524836
0.000520409
0.000516008
0.000511635
0.000507293
0.000502984
0.00049871
0.000494472
0.000490273
0.000486114
0.000481996
0.000477922
0.000671757
0.000671567
0.000671075
0.000670284
0.000669222
0.00066791
0.000666361
0.000664588
0.000662602
0.000660416
0.000658041
0.000655489
0.000652769
0.000649891
0.000646864
0.000643696
0.000640397
0.000636973
0.000633432
0.000629781
0.000626027
0.000622175
0.000618234
0.000614209
0.000610108
0.000605937
0.000601704
0.000597415
0.000593076
0.000588695
0.000584276
0.000579827
0.000575352
0.000570858
0.000566348
0.000561827
0.000557301
0.000552773
0.000548248
0.000543729
0.000539219
0.000534724
0.000530244
0.000525785
0.000521347
0.000516935
0.000512551
0.000508197
0.000503875
0.000499588
0.000495336
0.000491123
0.00048695
0.000482818
0.000478729
0.000672919
0.00067273
0.00067224
0.000671452
0.000670395
0.000669088
0.000667546
0.00066578
0.000663801
0.000661624
0.000659258
0.000656714
0.000654003
0.000651134
0.000648116
0.000644957
0.000641667
0.000638251
0.000634718
0.000631074
0.000627326
0.000623481
0.000619545
0.000615525
0.000611428
0.000607261
0.000603031
0.000598744
0.000594406
0.000590025
0.000585606
0.000581155
0.000576677
0.000572179
0.000567664
0.000563138
0.000558606
0.00055407
0.000549537
0.000545008
0.000540489
0.000535982
0.000531491
0.000527019
0.000522568
0.000518142
0.000513743
0.000509373
0.000505035
0.000500731
0.000496462
0.000492231
0.000488039
0.000483888
0.00047978
0.000674327
0.000674139
0.000673652
0.000672868
0.000671816
0.000670517
0.000668982
0.000667224
0.000665256
0.000663088
0.000660733
0.0006582
0.0006555
0.000652642
0.000649635
0.000646488
0.000643208
0.000639803
0.000636279
0.000632645
0.000628905
0.000625068
0.000621139
0.000617126
0.000613035
0.000608872
0.000604645
0.000600361
0.000596025
0.000591644
0.000587224
0.000582772
0.000578291
0.000573789
0.000569269
0.000564737
0.000560196
0.000555652
0.000551109
0.000546569
0.000542038
0.000537518
0.000533013
0.000528525
0.000524059
0.000519616
0.000515198
0.00051081
0.000506452
0.000502128
0.000497838
0.000493586
0.000489372
0.000485198
0.000481066
0.000675964
0.000675778
0.000675294
0.000674514
0.000673469
0.000672178
0.000670653
0.000668905
0.000666948
0.000664793
0.00066245
0.000659931
0.000657244
0.0006544
0.000651406
0.000648272
0.000645005
0.000641612
0.0006381
0.000634477
0.000630748
0.000626921
0.000623001
0.000618995
0.000614911
0.000610754
0.000606532
0.000602251
0.000597917
0.000593537
0.000589118
0.000584663
0.00058018
0.000575673
0.000571148
0.000566608
0.00056206
0.000557506
0.000552951
0.000548399
0.000543854
0.00053932
0.000534798
0.000530293
0.000525808
0.000521346
0.000516908
0.000512498
0.000508118
0.00050377
0.000499456
0.000495178
0.000490938
0.000486738
0.000482579
0.000677814
0.00067763
0.000677149
0.000676375
0.000675338
0.000674056
0.000672542
0.000670807
0.000668863
0.000666722
0.000664394
0.000661889
0.000659218
0.00065639
0.000653412
0.000650293
0.000647041
0.000643663
0.000640165
0.000636555
0.000632839
0.000629023
0.000625114
0.000621118
0.000617042
0.000612893
0.000608676
0.0006044
0.000600069
0.000595691
0.000591272
0.000586816
0.00058233
0.000577819
0.000573288
0.000568741
0.000564183
0.000559619
0.000555052
0.000550487
0.000545927
0.000541376
0.000536836
0.000532312
0.000527807
0.000523322
0.000518862
0.000514427
0.000510022
0.000505648
0.000501307
0.000497001
0.000492732
0.000488501
0.000484311
0.000679862
0.00067968
0.000679203
0.000678436
0.000677407
0.000676136
0.000674634
0.000672913
0.000670984
0.000668859
0.000666548
0.000664061
0.000661408
0.000658597
0.000655637
0.000652537
0.000649302
0.000645941
0.00064246
0.000638865
0.000635164
0.000631361
0.000627465
0.00062348
0.000619414
0.000615274
0.000611065
0.000606794
0.000602468
0.000598092
0.000593674
0.000589218
0.000584729
0.000580214
0.000575677
0.000571123
0.000566556
0.000561981
0.000557401
0.000552822
0.000548246
0.000543677
0.000539118
0.000534574
0.000530046
0.000525537
0.000521052
0.000516591
0.000512158
0.000507755
0.000503384
0.000499046
0.000494745
0.000490482
0.000486258
0.000682093
0.000681913
0.000681441
0.000680681
0.000679662
0.000678403
0.000676915
0.000675209
0.000673297
0.00067119
0.000668898
0.000666431
0.000663798
0.000661008
0.000658068
0.000654988
0.000651773
0.000648432
0.000644969
0.000641393
0.000637708
0.000633921
0.000630039
0.000626068
0.000622014
0.000617884
0.000613684
0.000609421
0.0006051
0.000600729
0.000596312
0.000591856
0.000587367
0.000582848
0.000578306
0.000573744
0.000569168
0.000564581
0.000559989
0.000555395
0.000550802
0.000546214
0.000541635
0.000537068
0.000532517
0.000527983
0.00052347
0.000518981
0.000514519
0.000510084
0.000505681
0.00050131
0.000496974
0.000492675
0.000488414
0.000684493
0.000684315
0.000683848
0.000683095
0.000682088
0.000680842
0.000679369
0.00067768
0.000675787
0.0006737
0.000671429
0.000668984
0.000666374
0.000663607
0.000660691
0.000657633
0.000654441
0.000651121
0.00064768
0.000644124
0.000640459
0.00063669
0.000632825
0.000628869
0.000624829
0.000620712
0.000616522
0.000612268
0.000607955
0.000603589
0.000599176
0.000594721
0.000590231
0.00058571
0.000581162
0.000576594
0.000572009
0.000567412
0.000562806
0.000558196
0.000553586
0.000548979
0.000544379
0.00053979
0.000535213
0.000530653
0.000526112
0.000521593
0.000517098
0.000512631
0.000508192
0.000503786
0.000499413
0.000495075
0.000490775
0.000687047
0.000686872
0.00068641
0.000685667
0.000684671
0.000683439
0.000681983
0.000680314
0.000678441
0.000676377
0.000674129
0.000671709
0.000669123
0.000666382
0.000663491
0.000660459
0.000657292
0.000653997
0.00065058
0.000647046
0.000643403
0.000639655
0.000635809
0.000631871
0.000627848
0.000623744
0.000619568
0.000615325
0.00061102
0.000606661
0.000602253
0.000597802
0.000593312
0.000588789
0.000584238
0.000579664
0.00057507
0.000570462
0.000565844
0.000561219
0.000556592
0.000551966
0.000547344
0.00054273
0.000538128
0.00053354
0.000528969
0.000524419
0.000519891
0.000515389
0.000510914
0.00050647
0.000502057
0.000497679
0.000493337
0.000689743
0.000689571
0.000689114
0.000688381
0.000687398
0.000686182
0.000684745
0.000683096
0.000681246
0.000679206
0.000676984
0.00067459
0.000672032
0.000669319
0.000666456
0.000663452
0.000660313
0.000657046
0.000653655
0.000650147
0.000646528
0.000642804
0.00063898
0.000635062
0.000631057
0.000626971
0.00062281
0.00061858
0.000614286
0.000609936
0.000605535
0.000601088
0.0005966
0.000592078
0.000587524
0.000582945
0.000578344
0.000573726
0.000569095
0.000564456
0.000559811
0.000555166
0.000550522
0.000545885
0.000541256
0.00053664
0.000532039
0.000527456
0.000522894
0.000518355
0.000513843
0.000509358
0.000504905
0.000500484
0.000496097
0.000692567
0.000692398
0.000691948
0.000691225
0.000690257
0.000689058
0.000687641
0.000686014
0.000684189
0.000682175
0.000679981
0.000677617
0.000675089
0.000672406
0.000669574
0.000666601
0.000663493
0.000660256
0.000656894
0.000653415
0.000649824
0.000646126
0.000642326
0.000638432
0.000634448
0.000630381
0.000626237
0.000622022
0.000617743
0.000613404
0.000609011
0.000604571
0.000600087
0.000595566
0.000591011
0.000586428
0.000581821
0.000577195
0.000572553
0.000567899
0.000563238
0.000558573
0.000553908
0.000549246
0.000544591
0.000539946
0.000535314
0.000530698
0.000526101
0.000521525
0.000516973
0.000512448
0.000507951
0.000503486
0.000499054
0.000695509
0.000695343
0.0006949
0.000694188
0.000693234
0.000692055
0.000690659
0.000689056
0.000687258
0.000685272
0.000683109
0.000680776
0.000678281
0.000675631
0.000672833
0.000669894
0.00066682
0.000663615
0.000660287
0.000656839
0.000653278
0.000649608
0.000645837
0.000641968
0.000638008
0.000633964
0.00062984
0.000625643
0.00062138
0.000617054
0.000612673
0.000608241
0.000603764
0.000599246
0.000594692
0.000590107
0.000585496
0.000580862
0.000576209
0.000571543
0.000566866
0.000562183
0.000557496
0.000552811
0.000548129
0.000543455
0.000538792
0.000534142
0.000529509
0.000524895
0.000520303
0.000515736
0.000511195
0.000506684
0.000502204
0.000698556
0.000698393
0.000697957
0.000697257
0.00069632
0.00069516
0.000693787
0.000692211
0.000690441
0.000688486
0.000686355
0.000684056
0.000681597
0.000678983
0.000676222
0.000673319
0.000670281
0.000667113
0.00066382
0.000660407
0.000656879
0.000653242
0.000649501
0.000645661
0.000641729
0.000637709
0.000633609
0.000629433
0.000625188
0.000620879
0.000616511
0.000612091
0.000607622
0.00060311
0.000598559
0.000593974
0.000589359
0.00058472
0.000580059
0.00057538
0.000570689
0.000565988
0.000561281
0.000556573
0.000551865
0.000547163
0.000542468
0.000537785
0.000533115
0.000528463
0.00052383
0.000519219
0.000514634
0.000510076
0.000505547
0.000701696
0.000701537
0.000701109
0.000700422
0.000699502
0.000698364
0.000697015
0.000695467
0.000693727
0.000691806
0.00068971
0.000687447
0.000685025
0.000682451
0.000679729
0.000676866
0.000673868
0.000670739
0.000667485
0.000664109
0.000660618
0.000657016
0.000653309
0.000649501
0.000645599
0.000641608
0.000637533
0.000633382
0.000629158
0.000624869
0.000620518
0.000616111
0.000611653
0.000607149
0.000602604
0.000598021
0.000593406
0.000588762
0.000584094
0.000579406
0.000574701
0.000569984
0.000565258
0.000560527
0.000555795
0.000551064
0.000546339
0.000541622
0.000536916
0.000532225
0.000527551
0.000522897
0.000518265
0.000513659
0.00050908
0.00070492
0.000704765
0.000704345
0.000703672
0.000702771
0.000701655
0.000700332
0.000698813
0.000697106
0.00069522
0.000693161
0.000690938
0.000688557
0.000686023
0.000683344
0.000680524
0.000677569
0.000674482
0.00067127
0.000667935
0.000664484
0.000660921
0.000657251
0.000653478
0.00064961
0.00064565
0.000641605
0.000637481
0.000633282
0.000629015
0.000624684
0.000620294
0.00061585
0.000611357
0.00060682
0.000602242
0.000597629
0.000592983
0.000588311
0.000583614
0.000578898
0.000574166
0.000569423
0.000564671
0.000559914
0.000555156
0.0005504
0.00054565
0.000540908
0.000536178
0.000531463
0.000526765
0.000522088
0.000517433
0.000512804
0.000708218
0.000708066
0.000707656
0.000706997
0.000706115
0.000705023
0.000703728
0.00070224
0.000700568
0.000698718
0.0006967
0.000694518
0.00069218
0.000689691
0.000687057
0.000684283
0.000681373
0.000678333
0.000675165
0.000671876
0.000668468
0.000664947
0.000661317
0.000657583
0.000653752
0.000649828
0.000645816
0.000641722
0.000637552
0.00063331
0.000629002
0.000624632
0.000620206
0.000615727
0.0006112
0.00060663
0.000602021
0.000597377
0.000592702
0.000587999
0.000583274
0.000578529
0.00057377
0.000568998
0.000564219
0.000559435
0.00055465
0.000549867
0.00054509
0.000540322
0.000535566
0.000530824
0.0005261
0.000521397
0.000516716
0.000711579
0.000711431
0.00071103
0.000710387
0.000709526
0.000708458
0.000707193
0.000705738
0.000704102
0.000702292
0.000700315
0.000698178
0.000695886
0.000693444
0.000690859
0.000688133
0.000685273
0.000682281
0.000679163
0.000675921
0.00067256
0.000669084
0.000665498
0.000661808
0.000658017