/*--------------------------------*- C++ -*----------------------------------*\
| =========                 |                                                 |
| \\      /  F ield         | OpenFOAM: The Open Source CFD Toolbox           |
|  \\    /   O peration     | Version:  2412                                  |
|   \\  /    A nd           | Website:  www.openfoam.com                      |
|    \\/     M anipulation  |                                                 |
\*---------------------------------------------------------------------------*/
FoamFile
{
    version     2.0;
    format      ascii;
    arch        "LSB;label=32;scalar=64";
    class       volVectorField;
    location    "27.5";
    object      U;
}
// * * * * * * * * * * * * * * * * * * * * * * * * * * * * * * * * * * * * * //

dimensions      [0 1 -1 0 0 0 0];

internalField   nonuniform List<vector> 
5285
(
(0.100277 -0.00389671 0)
(0.100329 -0.00397408 0)
(0.100384 -0.00405248 0)
(0.100442 -0.00413182 0)
(0.100503 -0.00421201 0)
(0.100567 -0.00429297 0)
(0.100634 -0.00437459 0)
(0.100705 -0.00445677 0)
(0.10078 -0.0045394 0)
(0.100859 -0.00462233 0)
(0.100941 -0.00470545 0)
(0.101028 -0.0047886 0)
(0.101119 -0.00487162 0)
(0.101214 -0.00495434 0)
(0.101314 -0.00503656 0)
(0.101418 -0.00511805 0)
(0.100197 -0.00394672 0)
(0.100248 -0.00402691 0)
(0.100302 -0.00410826 0)
(0.100359 -0.00419069 0)
(0.100419 -0.00427413 0)
(0.100482 -0.00435847 0)
(0.100549 -0.00444362 0)
(0.100619 -0.00452947 0)
(0.100694 -0.00461591 0)
(0.100772 -0.00470281 0)
(0.100854 -0.00479004 0)
(0.100941 -0.00487745 0)
(0.101032 -0.00496487 0)
(0.101128 -0.00505212 0)
(0.101228 -0.005139 0)
(0.101333 -0.0052253 0)
(0.100114 -0.00399557 0)
(0.100164 -0.00407864 0)
(0.100217 -0.00416302 0)
(0.100272 -0.00424862 0)
(0.100331 -0.00433538 0)
(0.100394 -0.00442319 0)
(0.10046 -0.00451197 0)
(0.10053 -0.00460161 0)
(0.100603 -0.00469199 0)
(0.100681 -0.004783 0)
(0.100763 -0.00487449 0)
(0.10085 -0.00496631 0)
(0.100941 -0.0050583 0)
(0.101037 -0.00515028 0)
(0.101138 -0.00524204 0)
(0.101243 -0.00533335 0)
(0.100029 -0.00404313 0)
(0.100077 -0.00412914 0)
(0.100129 -0.0042166 0)
(0.100183 -0.00430545 0)
(0.100241 -0.00439561 0)
(0.100302 -0.00448699 0)
(0.100368 -0.0045795 0)
(0.100437 -0.00467303 0)
(0.10051 -0.00476749 0)
(0.100587 -0.00486273 0)
(0.100668 -0.00495863 0)
(0.100755 -0.00505503 0)
(0.100845 -0.00515177 0)
(0.100941 -0.00524867 0)
(0.101042 -0.00534551 0)
(0.101149 -0.00544207 0)
(0.0999411 -0.00408925 0)
(0.0999878 -0.00417824 0)
(0.100038 -0.00426885 0)
(0.100091 -0.00436101 0)
(0.100147 -0.00445465 0)
(0.100208 -0.00454969 0)
(0.100272 -0.00464603 0)
(0.100339 -0.00474357 0)
(0.100412 -0.00484222 0)
(0.100488 -0.00494183 0)
(0.100569 -0.00504229 0)
(0.100655 -0.00514343 0)
(0.100745 -0.0052451 0)
(0.100841 -0.00534712 0)
(0.100942 -0.00544926 0)
(0.101049 -0.00555129 0)
(0.0998503 -0.00413375 0)
(0.0998954 -0.00422578 0)
(0.0999437 -0.0043196 0)
(0.0999953 -0.00441514 0)
(0.10005 -0.00451234 0)
(0.100109 -0.00461111 0)
(0.100172 -0.00471138 0)
(0.100238 -0.00481304 0)
(0.100309 -0.004916 0)
(0.100385 -0.00502012 0)
(0.100465 -0.00512529 0)
(0.10055 -0.00523134 0)
(0.10064 -0.00533812 0)
(0.100736 -0.00544544 0)
(0.100836 -0.0055531 0)
(0.100943 -0.00566084 0)
(0.0997568 -0.00417648 0)
(0.0998001 -0.00427159 0)
(0.0998465 -0.00436867 0)
(0.0998964 -0.00446765 0)
(0.0999498 -0.00456848 0)
(0.100007 -0.00467108 0)
(0.100068 -0.00477537 0)
(0.100133 -0.00488125 0)
(0.100203 -0.00498864 0)
(0.100277 -0.0050974 0)
(0.100356 -0.00520742 0)
(0.10044 -0.00531855 0)
(0.10053 -0.00543062 0)
(0.100625 -0.00554345 0)
(0.100725 -0.00565683 0)
(0.100832 -0.00577052 0)
(0.0996605 -0.00421726 0)
(0.0997017 -0.0043155 0)
(0.0997462 -0.00441588 0)
(0.0997941 -0.00451836 0)
(0.0998456 -0.00462289 0)
(0.0999009 -0.00472938 0)
(0.0999603 -0.00483778 0)
(0.100024 -0.00494799 0)
(0.100092 -0.00505992 0)
(0.100165 -0.00517346 0)
(0.100243 -0.00528848 0)
(0.100326 -0.00540484 0)
(0.100414 -0.00552238 0)
(0.100508 -0.00564092 0)
(0.100608 -0.00576024 0)
(0.100715 -0.00588012 0)
(0.0995612 -0.00425591 0)
(0.0996002 -0.00435731 0)
(0.0996425 -0.00446104 0)
(0.0996883 -0.00456707 0)
(0.0997377 -0.00467535 0)
(0.0997911 -0.00478581 0)
(0.0998485 -0.0048984 0)
(0.0999103 -0.00501303 0)
(0.0999767 -0.00512962 0)
(0.100048 -0.00524805 0)
(0.100124 -0.00536821 0)
(0.100206 -0.00548996 0)
(0.100293 -0.00561315 0)
(0.100386 -0.0057376 0)
(0.100485 -0.0058631 0)
(0.100591 -0.0059894 0)
(0.099459 -0.00429225 0)
(0.0994956 -0.00439683 0)
(0.0995356 -0.00450394 0)
(0.099579 -0.00461357 0)
(0.0996261 -0.00472565 0)
(0.0996772 -0.00484015 0)
(0.0997325 -0.00495701 0)
(0.0997922 -0.00507615 0)
(0.0998565 -0.00519749 0)
(0.0999258 -0.00532094 0)
(0.1 -0.00544638 0)
(0.10008 -0.00557368 0)
(0.100166 -0.00570269 0)
(0.100258 -0.00583324 0)
(0.100356 -0.00596512 0)
(0.100461 -0.00609809 0)
(0.0993538 -0.00432608 0)
(0.0993879 -0.00443386 0)
(0.0994252 -0.00454438 0)
(0.0994661 -0.00465763 0)
(0.0995107 -0.00477357 0)
(0.0995593 -0.00489216 0)
(0.0996121 -0.00501335 0)
(0.0996694 -0.00513708 0)
(0.0997315 -0.00526328 0)
(0.0997987 -0.00539185 0)
(0.0998711 -0.0055227 0)
(0.0999492 -0.0056557 0)
(0.100033 -0.00579071 0)
(0.100123 -0.00592755 0)
(0.10022 -0.00606604 0)
(0.100324 -0.00620592 0)
(0.0992457 -0.0043572 0)
(0.0992769 -0.00446819 0)
(0.0993114 -0.00458214 0)
(0.0993495 -0.00469904 0)
(0.0993913 -0.00481887 0)
(0.0994372 -0.00494159 0)
(0.0994873 -0.00506718 0)
(0.099542 -0.00519557 0)
(0.0996016 -0.00532671 0)
(0.0996663 -0.00546052 0)
(0.0997364 -0.0055969 0)
(0.0998122 -0.00573574 0)
(0.0998941 -0.0058769 0)
(0.0999825 -0.00602023 0)
(0.100078 -0.00616553 0)
(0.10018 -0.00631257 0)
(0.0991344 -0.0043854 0)
(0.0991626 -0.0044996 0)
(0.0991941 -0.00461698 0)
(0.0992292 -0.00473755 0)
(0.099268 -0.00486129 0)
(0.0993109 -0.00498819 0)
(0.0993581 -0.00511821 0)
(0.0994099 -0.00525133 0)
(0.0994666 -0.00538749 0)
(0.0995285 -0.00552663 0)
(0.0995959 -0.00566865 0)
(0.0996692 -0.00581347 0)
(0.0997488 -0.00596095 0)
(0.0998348 -0.00611094 0)
(0.0999278 -0.00626326 0)
(0.100028 -0.00641769 0)
(0.0990202 -0.00441046 0)
(0.0990451 -0.00452786 0)
(0.0990734 -0.00464867 0)
(0.0991051 -0.00477291 0)
(0.0991407 -0.00490058 0)
(0.0991803 -0.00503167 0)
(0.0992243 -0.00516618 0)
(0.0992729 -0.00530408 0)
(0.0993264 -0.00544532 0)
(0.0993853 -0.00558987 0)
(0.0994497 -0.00573764 0)
(0.0995201 -0.00588855 0)
(0.0995969 -0.00604249 0)
(0.0996803 -0.00619932 0)
(0.0997709 -0.00635887 0)
(0.099869 -0.00652092 0)
(0.098903 -0.00443217 0)
(0.0989244 -0.00455274 0)
(0.0989491 -0.00467696 0)
(0.0989774 -0.00480486 0)
(0.0990094 -0.00493646 0)
(0.0990454 -0.00507176 0)
(0.0990859 -0.00521078 0)
(0.099131 -0.00535348 0)
(0.099181 -0.00549987 0)
(0.0992364 -0.0056499 0)
(0.0992975 -0.00580351 0)
(0.0993647 -0.00596063 0)
(0.0994383 -0.00612116 0)
(0.0995187 -0.00628499 0)
(0.0996065 -0.00645195 0)
(0.099702 -0.00662184 0)
(0.0987827 -0.0044503 0)
(0.0988004 -0.00457401 0)
(0.0988214 -0.00470161 0)
(0.0988458 -0.00483315 0)
(0.098874 -0.00496866 0)
(0.0989063 -0.00510817 0)
(0.0989428 -0.00525169 0)
(0.0989841 -0.00539923 0)
(0.0990303 -0.0055508 0)
(0.099082 -0.00570636 0)
(0.0991393 -0.00586588 0)
(0.0992028 -0.0060293 0)
(0.0992729 -0.00619656 0)
(0.0993499 -0.00636753 0)
(0.0994344 -0.00654208 0)
(0.0995268 -0.00672002 0)
(0.0986595 -0.00446462 0)
(0.0986733 -0.00459141 0)
(0.0986902 -0.00472235 0)
(0.0987106 -0.00485749 0)
(0.0987347 -0.00499689 0)
(0.0987628 -0.00514058 0)
(0.0987952 -0.0052886 0)
(0.0988322 -0.00544098 0)
(0.0988743 -0.00559774 0)
(0.0989218 -0.00575887 0)
(0.098975 -0.00592436 0)
(0.0990344 -0.00609417 0)
(0.0991005 -0.00626824 0)
(0.0991737 -0.00644649 0)
(0.0992544 -0.0066288 0)
(0.0993432 -0.00681499 0)
(0.0985334 -0.00447489 0)
(0.098543 -0.00460471 0)
(0.0985556 -0.00473892 0)
(0.0985716 -0.0048776 0)
(0.0985913 -0.00502083 0)
(0.0986149 -0.00516867 0)
(0.0986429 -0.00532117 0)
(0.0986754 -0.00547837 0)
(0.0987129 -0.00564033 0)
(0.0987558 -0.00580705 0)
(0.0988045 -0.00597854 0)
(0.0988594 -0.00615479 0)
(0.0989211 -0.00633577 0)
(0.0989898 -0.00652141 0)
(0.0990663 -0.0067116 0)
(0.099151 -0.00690622 0)
(0.0984044 -0.00448088 0)
(0.0984095 -0.00461363 0)
(0.0984177 -0.00475103 0)
(0.0984291 -0.00489319 0)
(0.098444 -0.00504019 0)
(0.0984629 -0.00519211 0)
(0.0984859 -0.00534904 0)
(0.0985136 -0.00551103 0)
(0.0985461 -0.00567816 0)
(0.0985841 -0.00585046 0)
(0.0986278 -0.00602797 0)
(0.0986777 -0.0062107 0)
(0.0987344 -0.00639864 0)
(0.0987983 -0.00659175 0)
(0.09887 -0.00678996 0)
(0.0989501 -0.00699316 0)
(0.0982727 -0.00448233 0)
(0.0982731 -0.00461792 0)
(0.0982764 -0.00475842 0)
(0.0982829 -0.00490395 0)
(0.0982928 -0.00505464 0)
(0.0983066 -0.00521057 0)
(0.0983244 -0.00537185 0)
(0.0983468 -0.00553857 0)
(0.098374 -0.00571083 0)
(0.0984065 -0.00588869 0)
(0.0984448 -0.0060722 0)
(0.0984893 -0.00626142 0)
(0.0985405 -0.00645635 0)
(0.098599 -0.006657 0)
(0.0986654 -0.00686332 0)
(0.0987401 -0.00707522 0)
(0.0999999 -3.50875e-05 0)
(0.0999992 -0.000104383 0)
(0.0999976 -0.000172463 0)
(0.0999953 -0.000239617 0)
(0.0999924 -0.00030611 0)
(0.0999889 -0.000372141 0)
(0.0999849 -0.000437815 0)
(0.0999805 -0.000503278 0)
(0.0999756 -0.000569104 0)
(0.0999705 -0.000636838 0)
(0.0999648 -0.000709389 0)
(0.0999583 -0.000790956 0)
(0.0999504 -0.000886301 0)
(0.0999402 -0.000999526 0)
(0.0999269 -0.00113273 0)
(0.0999096 -0.00128506 0)
(0.099888 -0.00145239 0)
(0.0998619 -0.00162786 0)
(0.0998319 -0.00180295 0)
(0.0997988 -0.00196894 0)
(0.0997638 -0.00211818 0)
(0.0997285 -0.00224512 0)
(0.0996943 -0.00234682 0)
(0.0996625 -0.00242292 0)
(0.0996343 -0.00247535 0)
(0.0996105 -0.00250766 0)
(0.0995916 -0.00252438 0)
(0.0995777 -0.00253038 0)
(0.0995689 -0.0025303 0)
(0.0995649 -0.00252826 0)
(0.0995654 -0.0025276 0)
(0.0995699 -0.00253082 0)
(0.0995779 -0.00253965 0)
(0.0995892 -0.00255508 0)
(0.0996032 -0.00257754 0)
(0.0996195 -0.00260701 0)
(0.099638 -0.00264317 0)
(0.0996584 -0.00268549 0)
(0.0996805 -0.00273333 0)
(0.0997041 -0.00278603 0)
(0.0997293 -0.0028429 0)
(0.0997558 -0.00290332 0)
(0.0997837 -0.00296669 0)
(0.099813 -0.00303251 0)
(0.0998437 -0.0031003 0)
(0.0998757 -0.00316968 0)
(0.0999092 -0.0032403 0)
(0.0999441 -0.00331187 0)
(0.0999804 -0.00338414 0)
(0.100018 -0.00345688 0)
(0.100057 -0.00352992 0)
(0.100098 -0.00360309 0)
(0.10014 -0.00367625 0)
(0.100184 -0.00374926 0)
(0.100229 -0.00382201 0)
(0.0999999 -3.49312e-05 0)
(0.0999991 -0.000103919 0)
(0.0999973 -0.0001717 0)
(0.0999948 -0.000238567 0)
(0.0999915 -0.000304785 0)
(0.0999875 -0.000370556 0)
(0.099983 -0.00043599 0)
(0.0999779 -0.000501236 0)
(0.0999724 -0.000566855 0)
(0.0999665 -0.000634348 0)
(0.09996 -0.000706544 0)
(0.0999526 -0.000787529 0)
(0.0999437 -0.000881946 0)
(0.0999324 -0.000993812 0)
(0.0999179 -0.00112522 0)
(0.0998995 -0.00127536 0)
(0.0998765 -0.0014403 0)
(0.099849 -0.00161338 0)
(0.0998173 -0.00178635 0)
(0.0997825 -0.0019507 0)
(0.0997458 -0.00209897 0)
(0.0997086 -0.00222571 0)
(0.0996724 -0.00232799 0)
(0.0996386 -0.0024054 0)
(0.0996083 -0.00245976 0)
(0.0995823 -0.00249447 0)
(0.0995613 -0.00251392 0)
(0.0995452 -0.00252281 0)
(0.0995343 -0.00252566 0)
(0.0995281 -0.00252648 0)
(0.0995265 -0.00252855 0)
(0.0995289 -0.00253433 0)
(0.0995349 -0.00254551 0)
(0.0995441 -0.0025631 0)
(0.0995561 -0.00258754 0)
(0.0995705 -0.00261884 0)
(0.0995871 -0.0026567 0)
(0.0996055 -0.00270063 0)
(0.0996258 -0.00275004 0)
(0.0996476 -0.00280426 0)
(0.0996709 -0.00286265 0)
(0.0996956 -0.00292461 0)
(0.0997218 -0.00298956 0)
(0.0997494 -0.003057 0)
(0.0997784 -0.00312648 0)
(0.0998089 -0.00319761 0)
(0.0998407 -0.00327007 0)
(0.0998741 -0.00334356 0)
(0.0999089 -0.00341782 0)
(0.0999453 -0.00349265 0)
(0.0999832 -0.00356786 0)
(0.100023 -0.00364327 0)
(0.100064 -0.00371875 0)
(0.100106 -0.00379417 0)
(0.10015 -0.0038694 0)
(0.0999999 -3.47563e-05 0)
(0.099999 -0.000103399 0)
(0.099997 -0.000170845 0)
(0.0999942 -0.000237389 0)
(0.0999905 -0.000303296 0)
(0.0999861 -0.000368773 0)
(0.099981 -0.000433932 0)
(0.0999753 -0.000498926 0)
(0.0999691 -0.000564302 0)
(0.0999624 -0.000631518 0)
(0.0999551 -0.000703322 0)
(0.0999468 -0.000783685 0)
(0.0999369 -0.000877134 0)
(0.0999246 -0.000987597 0)
(0.0999091 -0.00111714 0)
(0.0998894 -0.00126506 0)
(0.0998652 -0.00142754 0)
(0.0998363 -0.00159817 0)
(0.0998032 -0.00176894 0)
(0.0997668 -0.00193159 0)
(0.0997284 -0.00207882 0)
(0.0996895 -0.00220528 0)
(0.0996514 -0.00230807 0)
(0.0996157 -0.00238674 0)
(0.0995833 -0.00244297 0)
(0.0995553 -0.00248004 0)
(0.099532 -0.00250217 0)
(0.0995138 -0.00251391 0)
(0.0995007 -0.00251966 0)
(0.0994923 -0.00252333 0)
(0.0994885 -0.00252811 0)
(0.0994887 -0.00253642 0)
(0.0994925 -0.00254995 0)
(0.0994995 -0.00256969 0)
(0.0995094 -0.0025961 0)
(0.0995217 -0.00262921 0)
(0.0995362 -0.00266877 0)
(0.0995526 -0.00271432 0)
(0.0995708 -0.00276527 0)
(0.0995906 -0.00282102 0)
(0.099612 -0.00288093 0)
(0.0996348 -0.00294443 0)
(0.0996591 -0.00301095 0)
(0.0996849 -0.00308002 0)
(0.0997121 -0.0031512 0)
(0.0997408 -0.0032241 0)
(0.099771 -0.00329841 0)
(0.0998027 -0.00337382 0)
(0.0998359 -0.00345011 0)
(0.0998707 -0.00352704 0)
(0.0999071 -0.00360443 0)
(0.099945 -0.00368213 0)
(0.0999846 -0.00375997 0)
(0.100026 -0.00383782 0)
(0.100069 -0.00391557 0)
(0.0999999 -3.45627e-05 0)
(0.0999989 -0.000102823 0)
(0.0999967 -0.000169899 0)
(0.0999936 -0.000236083 0)
(0.0999895 -0.000301644 0)
(0.0999846 -0.00036679 0)
(0.099979 -0.000431638 0)
(0.0999727 -0.000496343 0)
(0.0999658 -0.00056144 0)
(0.0999583 -0.000628344 0)
(0.0999501 -0.00069972 0)
(0.0999409 -0.000779427 0)
(0.0999301 -0.000871871 0)
(0.0999168 -0.000980894 0)
(0.0999002 -0.00110855 0)
(0.0998794 -0.00125418 0)
(0.099854 -0.00141416 0)
(0.0998239 -0.00158228 0)
(0.0997894 -0.0017508 0)
(0.0997516 -0.00191167 0)
(0.0997117 -0.00205778 0)
(0.0996711 -0.0021839 0)
(0.0996313 -0.00228712 0)
(0.0995937 -0.00236696 0)
(0.0995594 -0.002425 0)
(0.0995292 -0.00246436 0)
(0.0995039 -0.00248911 0)
(0.0994835 -0.00250366 0)
(0.099468 -0.00251227 0)
(0.0994574 -0.00251874 0)
(0.0994512 -0.0025262 0)
(0.0994491 -0.00253703 0)
(0.0994506 -0.00255287 0)
(0.0994554 -0.00257474 0)
(0.099463 -0.00260311 0)
(0.099473 -0.00263804 0)
(0.0994853 -0.00267929 0)
(0.0994995 -0.00272644 0)
(0.0995156 -0.00277893 0)
(0.0995332 -0.0028362 0)
(0.0995525 -0.00289763 0)
(0.0995733 -0.00296266 0)
(0.0995956 -0.00303077 0)
(0.0996194 -0.00310147 0)
(0.0996447 -0.00317434 0)
(0.0996715 -0.00324902 0)
(0.0996998 -0.00332518 0)
(0.0997297 -0.00340254 0)
(0.0997612 -0.00348086 0)
(0.0997943 -0.00355992 0)
(0.099829 -0.00363953 0)
(0.0998654 -0.00371952 0)
(0.0999035 -0.00379975 0)
(0.0999432 -0.00388009 0)
(0.0999846 -0.00396041 0)
(0.0999999 -3.43502e-05 0)
(0.0999988 -0.000102191 0)
(0.0999964 -0.000168859 0)
(0.099993 -0.000234648 0)
(0.0999885 -0.000299827 0)
(0.0999832 -0.000364605 0)
(0.099977 -0.000429107 0)
(0.09997 -0.000493487 0)
(0.0999624 -0.000558269 0)
(0.0999542 -0.000624823 0)
(0.0999452 -0.000695736 0)
(0.0999351 -0.000774753 0)
(0.0999233 -0.000866162 0)
(0.099909 -0.000973714 0)
(0.0998913 -0.00109944 0)
(0.0998695 -0.00124276 0)
(0.0998429 -0.0014002 0)
(0.0998116 -0.00156578 0)
(0.099776 -0.00173198 0)
(0.0997369 -0.00189101 0)
(0.0996955 -0.00203593 0)
(0.0996534 -0.00216162 0)
(0.0996119 -0.0022652 0)
(0.0995725 -0.00234613 0)
(0.0995363 -0.00240588 0)
(0.0995041 -0.00244745 0)
(0.0994766 -0.00247475 0)
(0.099454 -0.00249203 0)
(0.0994362 -0.00250344 0)
(0.0994233 -0.00251267 0)
(0.0994147 -0.00252276 0)
(0.0994102 -0.00253607 0)
(0.0994093 -0.00255421 0)
(0.0994116 -0.00257819 0)
(0.0994168 -0.0026085 0)
(0.0994245 -0.00264522 0)
(0.0994344 -0.00268815 0)
(0.0994463 -0.00273688 0)
(0.0994601 -0.00279092 0)
(0.0994755 -0.00284969 0)
(0.0994925 -0.00291264 0)
(0.0995112 -0.0029792 0)
(0.0995313 -0.00304888 0)
(0.099553 -0.00312122 0)
(0.0995762 -0.0031958 0)
(0.099601 -0.00327226 0)
(0.0996273 -0.00335028 0)
(0.0996553 -0.00342959 0)
(0.0996849 -0.00350995 0)
(0.0997162 -0.00359115 0)
(0.0997491 -0.00367299 0)
(0.0997838 -0.00375532 0)
(0.0998201 -0.00383798 0)
(0.0998583 -0.00392083 0)
(0.0998981 -0.00400374 0)
(0.0999999 -3.41187e-05 0)
(0.0999987 -0.000101503 0)
(0.0999961 -0.000167726 0)
(0.0999923 -0.000233083 0)
(0.0999875 -0.000297843 0)
(0.0999817 -0.000362219 0)
(0.099975 -0.000426337 0)
(0.0999674 -0.000490355 0)
(0.0999591 -0.000554784 0)
(0.09995 -0.000620954 0)
(0.0999402 -0.000691369 0)
(0.0999292 -0.000769664 0)
(0.0999164 -0.000860009 0)
(0.0999011 -0.000966066 0)
(0.0998824 -0.00108985 0)
(0.0998596 -0.00123083 0)
(0.099832 -0.0013857 0)
(0.0997996 -0.00154869 0)
(0.0997628 -0.00171254 0)
(0.0997225 -0.00186967 0)
(0.0996798 -0.00201333 0)
(0.0996363 -0.0021385 0)
(0.0995932 -0.00224234 0)
(0.0995521 -0.00232426 0)
(0.099514 -0.00238564 0)
(0.0994798 -0.00242932 0)
(0.0994502 -0.00245907 0)
(0.0994253 -0.00247901 0)
(0.0994052 -0.00249314 0)
(0.0993898 -0.00250506 0)
(0.0993788 -0.00251774 0)
(0.0993718 -0.00253348 0)
(0.0993684 -0.00255387 0)
(0.0993682 -0.00257993 0)
(0.0993709 -0.00261216 0)
(0.099376 -0.00265066 0)
(0.0993835 -0.00269525 0)
(0.0993929 -0.00274556 0)
(0.0994043 -0.00280112 0)
(0.0994173 -0.0028614 0)
(0.099432 -0.00292585 0)
(0.0994483 -0.00299394 0)
(0.0994662 -0.0030652 0)
(0.0994856 -0.00313916 0)
(0.0995066 -0.00321544 0)
(0.0995292 -0.00329368 0)
(0.0995534 -0.00337357 0)
(0.0995793 -0.00345484 0)
(0.0996069 -0.00353726 0)
(0.0996362 -0.00362061 0)
(0.0996672 -0.0037047 0)
(0.0997 -0.00378938 0)
(0.0997345 -0.00387448 0)
(0.0997709 -0.00395988 0)
(0.0998091 -0.00404543 0)
(0.0999999 -3.38681e-05 0)
(0.0999986 -0.000100758 0)
(0.0999958 -0.000166499 0)
(0.0999917 -0.000231388 0)
(0.0999865 -0.000295693 0)
(0.0999802 -0.000359628 0)
(0.0999729 -0.000423326 0)
(0.0999647 -0.000486945 0)
(0.0999557 -0.000550984 0)
(0.0999459 -0.000616732 0)
(0.0999351 -0.000686616 0)
(0.0999232 -0.00076416 0)
(0.0999095 -0.000853415 0)
(0.0998932 -0.000957959 0)
(0.0998736 -0.00107978 0)
(0.0998497 -0.00121841 0)
(0.0998211 -0.00137069 0)
(0.0997877 -0.00153107 0)
(0.0997499 -0.00169252 0)
(0.0997084 -0.00184769 0)
(0.0996645 -0.00199002 0)
(0.0996196 -0.00211459 0)
(0.0995751 -0.00221859 0)
(0.0995323 -0.0023014 0)
(0.0994924 -0.00236428 0)
(0.0994562 -0.00240997 0)
(0.0994245 -0.00244208 0)
(0.0993973 -0.00246458 0)
(0.0993749 -0.00248135 0)
(0.099357 -0.00249588 0)
(0.0993434 -0.00251109 0)
(0.0993338 -0.0025292 0)
(0.0993278 -0.00255181 0)
(0.099325 -0.00257991 0)
(0.0993251 -0.00261402 0)
(0.0993276 -0.00265427 0)
(0.0993325 -0.0027005 0)
(0.0993393 -0.00275238 0)
(0.0993481 -0.00280945 0)
(0.0993586 -0.00287122 0)
(0.0993708 -0.00293716 0)
(0.0993847 -0.00300677 0)
(0.0994001 -0.00307959 0)
(0.0994172 -0.00315518 0)
(0.0994359 -0.00323315 0)
(0.0994562 -0.00331316 0)
(0.0994781 -0.00339492 0)
(0.0995018 -0.00347816 0)
(0.0995272 -0.00356264 0)
(0.0995543 -0.00364815 0)
(0.0995833 -0.00373451 0)
(0.099614 -0.00382155 0)
(0.0996466 -0.00390912 0)
(0.0996811 -0.00399708 0)
(0.0997174 -0.00408531 0)
(0.0999999 -3.35984e-05 0)
(0.0999985 -9.99555e-05 0)
(0.0999955 -0.000165178 0)
(0.0999911 -0.000229561 0)
(0.0999855 -0.000293374 0)
(0.0999787 -0.000356833 0)
(0.0999709 -0.000420073 0)
(0.099962 -0.000483256 0)
(0.0999523 -0.000546867 0)
(0.0999417 -0.000612157 0)
(0.0999301 -0.000681475 0)
(0.0999172 -0.000758238 0)
(0.0999026 -0.000846382 0)
(0.0998853 -0.000949397 0)
(0.0998647 -0.00106924 0)
(0.0998398 -0.00120552 0)
(0.0998103 -0.0013552 0)
(0.0997759 -0.00151294 0)
(0.0997371 -0.00167196 0)
(0.0996946 -0.00182512 0)
(0.0996496 -0.00196605 0)
(0.0996034 -0.00208993 0)
(0.0995574 -0.00219399 0)
(0.099513 -0.00227757 0)
(0.0994713 -0.00234185 0)
(0.0994332 -0.00238942 0)
(0.0993993 -0.00242377 0)
(0.0993699 -0.00244872 0)
(0.099345 -0.00246803 0)
(0.0993246 -0.0024851 0)
(0.0993085 -0.00250275 0)
(0.0992962 -0.00252317 0)
(0.0992875 -0.00254794 0)
(0.099282 -0.00257804 0)
(0.0992793 -0.00261401 0)
(0.0992792 -0.00265597 0)
(0.0992813 -0.00270382 0)
(0.0992855 -0.00275724 0)
(0.0992916 -0.0028158 0)
(0.0992995 -0.00287905 0)
(0.0993091 -0.00294647 0)
(0.0993203 -0.00301759 0)
(0.0993332 -0.00309195 0)
(0.0993478 -0.00316915 0)
(0.099364 -0.00324881 0)
(0.0993818 -0.0033306 0)
(0.0994014 -0.00341422 0)
(0.0994227 -0.00349941 0)
(0.0994457 -0.00358595 0)
(0.0994706 -0.00367363 0)
(0.0994973 -0.00376226 0)
(0.0995259 -0.00385168 0)
(0.0995564 -0.00394174 0)
(0.0995887 -0.00403229 0)
(0.0996231 -0.0041232 0)
(0.0999999 -3.33094e-05 0)
(0.0999984 -9.90962e-05 0)
(0.0999952 -0.000163762 0)
(0.0999905 -0.000227602 0)
(0.0999845 -0.000290886 0)
(0.0999773 -0.000353831 0)
(0.0999688 -0.000416577 0)
(0.0999593 -0.000479285 0)
(0.0999489 -0.000542431 0)
(0.0999374 -0.000607226 0)
(0.099925 -0.000675944 0)
(0.0999112 -0.000751899 0)
(0.0998956 -0.000838912 0)
(0.0998774 -0.000940386 0)
(0.0998558 -0.00105825 0)
(0.09983 -0.00119217 0)
(0.0997995 -0.00133924 0)
(0.0997642 -0.00149434 0)
(0.0997245 -0.00165089 0)
(0.099681 -0.00180199 0)
(0.0996349 -0.00194145 0)
(0.0995874 -0.00206455 0)
(0.0995401 -0.00216856 0)
(0.0994941 -0.00225279 0)
(0.0994507 -0.00231834 0)
(0.0994107 -0.00236767 0)
(0.0993746 -0.00240414 0)
(0.0993429 -0.00243142 0)
(0.0993156 -0.00245317 0)
(0.0992927 -0.00247267 0)
(0.0992739 -0.00249268 0)
(0.0992589 -0.00251535 0)
(0.0992474 -0.00254222 0)
(0.0992391 -0.00257427 0)
(0.0992336 -0.00261204 0)
(0.0992306 -0.00265569 0)
(0.0992299 -0.00270513 0)
(0.0992313 -0.00276006 0)
(0.0992347 -0.0028201 0)
(0.0992398 -0.00288479 0)
(0.0992466 -0.00295367 0)
(0.0992552 -0.00302628 0)
(0.0992654 -0.00310218 0)
(0.0992773 -0.00318097 0)
(0.0992909 -0.00326231 0)
(0.0993062 -0.00334585 0)
(0.0993232 -0.00343132 0)
(0.099342 -0.00351847 0)
(0.0993626 -0.00360707 0)
(0.099385 -0.00369691 0)
(0.0994093 -0.00378781 0)
(0.0994355 -0.00387961 0)
(0.0994637 -0.00397216 0)
(0.0994939 -0.00406532 0)
(0.099526 -0.00415895 0)
(0.0999999 -3.30011e-05 0)
(0.0999983 -9.81795e-05 0)
(0.0999948 -0.000162252 0)
(0.0999899 -0.000225512 0)
(0.0999835 -0.00028823 0)
(0.0999758 -0.000350624 0)
(0.0999668 -0.000412837 0)
(0.0999566 -0.000475033 0)
(0.0999454 -0.000537675 0)
(0.0999332 -0.000601937 0)
(0.0999199 -0.000670023 0)
(0.0999052 -0.000745141 0)
(0.0998886 -0.000831004 0)
(0.0998695 -0.000930927 0)
(0.0998469 -0.00104681 0)
(0.0998202 -0.00117837 0)
(0.0997888 -0.00132284 0)
(0.0997526 -0.00147527 0)
(0.0997119 -0.00162933 0)
(0.0996675 -0.00177834 0)
(0.0996203 -0.00191624 0)
(0.0995717 -0.00203848 0)
(0.099523 -0.00214233 0)
(0.0994755 -0.00222709 0)
(0.0994304 -0.00229377 0)
(0.0993884 -0.00234473 0)
(0.0993503 -0.00238318 0)
(0.0993162 -0.00241267 0)
(0.0992865 -0.00243674 0)
(0.099261 -0.00245857 0)
(0.0992395 -0.00248086 0)
(0.0992217 -0.0025057 0)
(0.0992074 -0.0025346 0)
(0.0991962 -0.00256854 0)
(0.0991878 -0.00260807 0)
(0.0991819 -0.00265336 0)
(0.0991783 -0.00270435 0)
(0.0991768 -0.00276076 0)
(0.0991773 -0.00282224 0)
(0.0991795 -0.00288836 0)
(0.0991835 -0.00295867 0)
(0.0991893 -0.00303274 0)
(0.0991967 -0.00311016 0)
(0.0992058 -0.00319053 0)
(0.0992166 -0.00327352 0)
(0.0992292 -0.0033588 0)
(0.0992435 -0.00344611 0)
(0.0992596 -0.0035352 0)
(0.0992776 -0.00362584 0)
(0.0992974 -0.00371783 0)
(0.0993192 -0.003811 0)
(0.0993429 -0.00390519 0)
(0.0993687 -0.00400023 0)
(0.0993964 -0.004096 0)
(0.0994262 -0.00419236 0)
(0.0999999 -3.26735e-05 0)
(0.0999982 -9.72053e-05 0)
(0.0999945 -0.000160646 0)
(0.0999893 -0.000223289 0)
(0.0999825 -0.000285404 0)
(0.0999743 -0.00034721 0)
(0.0999647 -0.000408853 0)
(0.0999539 -0.000470497 0)
(0.099942 -0.000532597 0)
(0.099929 -0.000596289 0)
(0.0999148 -0.000663708 0)
(0.0998992 -0.000737963 0)
(0.0998816 -0.000822657 0)
(0.0998615 -0.000921021 0)
(0.0998379 -0.00103493 0)
(0.0998103 -0.00116413 0)
(0.099778 -0.001306 0)
(0.099741 -0.00145576 0)
(0.0996994 -0.00160731 0)
(0.099654 -0.00175417 0)
(0.0996058 -0.00189046 0)
(0.0995561 -0.00201173 0)
(0.0995061 -0.00211532 0)
(0.0994571 -0.00220048 0)
(0.0994103 -0.00226816 0)
(0.0993664 -0.0023206 0)
(0.0993261 -0.00236089 0)
(0.0992898 -0.00239247 0)
(0.0992576 -0.00241873 0)
(0.0992294 -0.00244279 0)
(0.0992052 -0.00246725 0)
(0.0991847 -0.00249416 0)
(0.0991675 -0.00252502 0)
(0.0991533 -0.0025608 0)
(0.0991419 -0.00260203 0)
(0.0991331 -0.00264892 0)
(0.0991265 -0.00270141 0)
(0.099122 -0.00275927 0)
(0.0991194 -0.00282215 0)
(0.0991187 -0.00288967 0)
(0.0991197 -0.00296138 0)
(0.0991225 -0.00303689 0)
(0.099127 -0.00311579 0)
(0.0991332 -0.00319772 0)
(0.0991412 -0.00328233 0)
(0.0991509 -0.00336933 0)
(0.0991623 -0.00345845 0)
(0.0991757 -0.00354945 0)
(0.0991909 -0.00364212 0)
(0.099208 -0.00373625 0)
(0.099227 -0.00383168 0)
(0.0992481 -0.00392824 0)
(0.0992712 -0.00402578 0)
(0.0992963 -0.00412416 0)
(0.0993235 -0.00422325 0)
(0.0999999 -3.23266e-05 0)
(0.0999981 -9.61736e-05 0)
(0.0999942 -0.000158945 0)
(0.0999887 -0.000220933 0)
(0.0999815 -0.000282407 0)
(0.0999728 -0.000343588 0)
(0.0999627 -0.000404623 0)
(0.0999512 -0.000465678 0)
(0.0999386 -0.000527196 0)
(0.0999247 -0.000590281 0)
(0.0999097 -0.000656999 0)
(0.0998931 -0.000730363 0)
(0.0998746 -0.000813871 0)
(0.0998535 -0.000910668 0)
(0.099829 -0.0010226 0)
(0.0998004 -0.00114945 0)
(0.0997672 -0.00128872 0)
(0.0997293 -0.00143581 0)
(0.0996869 -0.00158483 0)
(0.0996406 -0.00172949 0)
(0.0995914 -0.00186412 0)
(0.0995405 -0.00198433 0)
(0.0994893 -0.00208754 0)
(0.0994388 -0.00217297 0)
(0.0993903 -0.00224151 0)
(0.0993445 -0.00229529 0)
(0.0993021 -0.00233728 0)
(0.0992635 -0.0023708 0)
(0.0992288 -0.00239913 0)
(0.099198 -0.00242529 0)
(0.099171 -0.00245182 0)
(0.0991476 -0.00248072 0)
(0.0991274 -0.00251346 0)
(0.0991103 -0.00255099 0)
(0.0990959 -0.00259387 0)
(0.099084 -0.0026423 0)
(0.0990743 -0.00269625 0)
(0.0990667 -0.00275551 0)
(0.0990611 -0.00281976 0)
(0.0990573 -0.00288863 0)
(0.0990552 -0.00296172 0)
(0.099055 -0.00303863 0)
(0.0990564 -0.00311898 0)
(0.0990596 -0.00320242 0)
(0.0990645 -0.00328863 0)
(0.0990712 -0.00337731 0)
(0.0990797 -0.00346822 0)
(0.0990901 -0.00356111 0)
(0.0991023 -0.00365577 0)
(0.0991165 -0.00375202 0)
(0.0991327 -0.00384969 0)
(0.0991509 -0.0039486 0)
(0.0991712 -0.00404862 0)
(0.0991936 -0.00414961 0)
(0.0992181 -0.00425142 0)
(0.0999999 -3.19604e-05 0)
(0.0999979 -9.50843e-05 0)
(0.0999939 -0.000157148 0)
(0.099988 -0.000218445 0)
(0.0999805 -0.000279242 0)
(0.0999713 -0.000339759 0)
(0.0999606 -0.000400148 0)
(0.0999485 -0.000460574 0)
(0.0999351 -0.000521472 0)
(0.0999205 -0.000583912 0)
(0.0999045 -0.000649894 0)
(0.0998871 -0.000722339 0)
(0.0998676 -0.000804643 0)
(0.0998455 -0.000899866 0)
(0.09982 -0.00100982 0)
(0.0997905 -0.00113434 0)
(0.0997564 -0.00127101 0)
(0.0997176 -0.00141543 0)
(0.0996743 -0.00156189 0)
(0.0996271 -0.00170433 0)
(0.099577 -0.00183721 0)
(0.099525 -0.00195628 0)
(0.0994724 -0.002059 0)
(0.0994205 -0.00214457 0)
(0.0993703 -0.00221382 0)
(0.0993226 -0.0022688 0)
(0.0992781 -0.00231235 0)
(0.0992372 -0.00234766 0)
(0.0992 -0.00237793 0)
(0.0991665 -0.00240607 0)
(0.0991368 -0.00243456 0)
(0.0991104 -0.00246535 0)
(0.0990873 -0.00249988 0)
(0.0990671 -0.00253909 0)
(0.0990496 -0.00258354 0)
(0.0990346 -0.00263346 0)
(0.0990217 -0.00268881 0)
(0.099011 -0.00274942 0)
(0.0990022 -0.00281499 0)
(0.0989952 -0.00288517 0)
(0.09899 -0.00295958 0)
(0.0989866 -0.00303785 0)
(0.0989849 -0.00311961 0)
(0.0989849 -0.00320453 0)
(0.0989867 -0.00329229 0)
(0.0989902 -0.00338263 0)
(0.0989956 -0.00347528 0)
(0.0990029 -0.00357002 0)
(0.0990121 -0.00366665 0)
(0.0990232 -0.00376499 0)
(0.0990363 -0.00386486 0)
(0.0990515 -0.0039661 0)
(0.0990688 -0.00406858 0)
(0.0990883 -0.00417215 0)
(0.0991099 -0.00427668 0)
(0.0999999 -3.15748e-05 0)
(0.0999978 -9.39376e-05 0)
(0.0999936 -0.000155257 0)
(0.0999874 -0.000215824 0)
(0.0999795 -0.000275906 0)
(0.0999698 -0.000335722 0)
(0.0999586 -0.000395427 0)
(0.0999458 -0.000455187 0)
(0.0999317 -0.000515425 0)
(0.0999162 -0.000577181 0)
(0.0998994 -0.000642393 0)
(0.099881 -0.000713891 0)
(0.0998605 -0.000794971 0)
(0.0998375 -0.000888613 0)
(0.099811 -0.000996591 0)
(0.0997806 -0.00111878 0)
(0.0997456 -0.00125286 0)
(0.0997059 -0.00139461 0)
(0.0996617 -0.0015385 0)
(0.0996136 -0.00167867 0)
(0.0995625 -0.00180974 0)
(0.0995094 -0.00192759 0)
(0.0994556 -0.0020297 0)
(0.0994022 -0.00211528 0)
(0.0993503 -0.00218511 0)
(0.0993007 -0.00224113 0)
(0.0992541 -0.00228608 0)
(0.0992108 -0.00232305 0)
(0.0991711 -0.00235511 0)
(0.099135 -0.00238511 0)
(0.0991024 -0.00241544 0)
(0.0990732 -0.00244802 0)
(0.0990471 -0.00248425 0)
(0.0990238 -0.00252506 0)
(0.0990031 -0.00257101 0)
(0.0989849 -0.00262234 0)
(0.0989688 -0.00267904 0)
(0.0989548 -0.00274094 0)
(0.0989428 -0.00280778 0)
(0.0989325 -0.00287922 0)
(0.0989241 -0.0029549 0)
(0.0989174 -0.00303448 0)
(0.0989124 -0.0031176 0)
(0.0989091 -0.00320395 0)
(0.0989077 -0.00329322 0)
(0.098908 -0.00338515 0)
(0.0989101 -0.0034795 0)
(0.0989141 -0.00357605 0)
(0.09892 -0.00367461 0)
(0.0989279 -0.00377499 0)
(0.0989379 -0.00387703 0)
(0.0989499 -0.00398057 0)
(0.098964 -0.00408547 0)
(0.0989803 -0.00419161 0)
(0.0989988 -0.00429883 0)
(0.0999998 -3.11699e-05 0)
(0.0999977 -9.27334e-05 0)
(0.0999933 -0.000153271 0)
(0.0999868 -0.000213071 0)
(0.0999785 -0.0002724 0)
(0.0999683 -0.000331479 0)
(0.0999565 -0.000390461 0)
(0.0999431 -0.000449515 0)
(0.0999283 -0.000509054 0)
(0.099912 -0.000570088 0)
(0.0998943 -0.000634494 0)
(0.0998749 -0.000705017 0)
(0.0998535 -0.000784854 0)
(0.0998294 -0.000876905 0)
(0.099802 -0.00098291 0)
(0.0997706 -0.00110277 0)
(0.0997347 -0.00123427 0)
(0.0996942 -0.00137334 0)
(0.0996491 -0.00151465 0)
(0.0996 -0.00165251 0)
(0.0995479 -0.00178171 0)
(0.0994937 -0.00189824 0)
(0.0994386 -0.00199964 0)
(0.0993837 -0.00208511 0)
(0.0993302 -0.00215537 0)
(0.0992787 -0.00221229 0)
(0.0992299 -0.00225849 0)
(0.0991844 -0.00229696 0)
(0.0991422 -0.00233068 0)
(0.0991034 -0.0023624 0)
(0.099068 -0.00239446 0)
(0.0990358 -0.00242872 0)
(0.0990066 -0.00246654 0)
(0.0989802 -0.00250887 0)
(0.0989564 -0.00255624 0)
(0.0989349 -0.00260891 0)