/*--------------------------------*- C++ -*----------------------------------*\
| =========                 |                                                 |
| \\      /  F ield         | OpenFOAM: The Open Source CFD Toolbox           |
|  \\    /   O peration     | Version:  2412                                  |
|   \\  /    A nd           | Website:  www.openfoam.com                      |
|    \\/     M anipulation  |                                                 |
\*---------------------------------------------------------------------------*/
FoamFile
{
    version     2.0;
    format      ascii;
    arch        "LSB;label=32;scalar=64";
    class       volScalarField;
    location    "27.5";
    object      p;
}
// * * * * * * * * * * * * * * * * * * * * * * * * * * * * * * * * * * * * * //

dimensions      [0 2 -2 0 0 0 0];

internalField   nonuniform List<scalar> 
5285
(
-0.000288917
-0.000303622
-0.00031728
-0.000330005
-0.000341779
-0.000352576
-0.000362389
-0.000371222
-0.000379078
-0.000385967
-0.000391899
-0.00039689
-0.000400959
-0.000404128
-0.000406422
-0.000407867
-0.000408493
-0.000408332
-0.000407417
-0.000405783
-0.000403466
-0.000400502
-0.000396927
-0.000392781
-0.000309995
-0.000325277
-0.000339295
-0.000352358
-0.000364426
-0.000375452
-0.000385431
-0.000394367
-0.000402268
-0.000409142
-0.000415003
-0.000419869
-0.00042376
-0.000426702
-0.000428721
-0.000429848
-0.000430115
-0.000429557
-0.000428209
-0.00042611
-0.000423299
-0.000419816
-0.0004157
-0.000410992
-0.000332219
-0.000348113
-0.000362496
-0.000375906
-0.000388279
-0.000399539
-0.000409681
-0.000418716
-0.00042665
-0.000433495
-0.000439267
-0.000443986
-0.000447674
-0.00045036
-0.000452074
-0.000452849
-0.00045272
-0.000451726
-0.000449906
-0.000447302
-0.000443956
-0.00043991
-0.000435209
-0.000429896
-0.000355663
-0.000372206
-0.000386967
-0.000400736
-0.000413422
-0.000424919
-0.000435222
-0.000444347
-0.000452304
-0.000459104
-0.000464765
-0.000469312
-0.000472769
-0.000475168
-0.000476541
-0.000476927
-0.000476363
-0.000474892
-0.000472557
-0.000469403
-0.000465475
-0.000460821
-0.000455487
-0.000449522
-0.00038041
-0.000397644
-0.000412796
-0.000426936
-0.000439944
-0.00045168
-0.000462142
-0.000471348
-0.000479313
-0.000486048
-0.000491576
-0.000495923
-0.000499117
-0.000501193
-0.000502189
-0.000502144
-0.000501102
-0.000499109
-0.000496211
-0.000492458
-0.0004879
-0.000482587
-0.00047657
-0.000469901
-0.00040656
-0.000424526
-0.000440083
-0.000454606
-0.000467944
-0.000479921
-0.000490536
-0.000499813
-0.000507768
-0.000514417
-0.000519785
-0.0005239
-0.000526796
-0.000528511
-0.000529086
-0.000528566
-0.000526998
-0.000524432
-0.000520921
-0.000516516
-0.000511274
-0.000505248
-0.000498493
-0.000491066
-0.000434217
-0.00045296
-0.000468936
-0.000483853
-0.00049753
-0.000509748
-0.000520508
-0.000529842
-0.000537769
-0.000544307
-0.000549484
-0.000553332
-0.00055589
-0.0005572
-0.000557308
-0.000556263
-0.000554117
-0.000550925
-0.000546743
-0.00054163
-0.000535645
-0.000528847
-0.000521295
-0.000513051
-0.000463497
-0.000483065
-0.000499472
-0.000514795
-0.000528817
-0.000541275
-0.000552171
-0.000561546
-0.000569422
-0.00057582
-0.000580771
-0.000584314
-0.00058649
-0.000587347
-0.000586936
-0.00058531
-0.000582529
-0.000578651
-0.000573738
-0.000567853
-0.000561062
-0.000553428
-0.000545015
-0.000535889
-0.000494528
-0.000514971
-0.000531821
-0.00054756
-0.000561932
-0.000574627
-0.000585648
-0.000595045
-0.000602842
-0.000609067
-0.000613754
-0.000616946
-0.000618691
-0.000619041
-0.000618054
-0.000615788
-0.000612308
-0.000607679
-0.000601968
-0.000595244
-0.000587577
-0.000579038
-0.000569695
-0.000559618
-0.000527448
-0.000548819
-0.000566124
-0.000582289
-0.000597016
-0.000609942
-0.000621073
-0.000630467
-0.000638155
-0.000644168
-0.000648546
-0.000651338
-0.000652597
-0.000652381
-0.000650754
-0.000647782
-0.000643534
-0.000638082
-0.0006315
-0.000623862
-0.000615246
-0.000605727
-0.000595378
-0.000584277
-0.000562412
-0.000584768
-0.000602537
-0.000619135
-0.00063422
-0.000647368
-0.000658589
-0.000667953
-0.000675496
-0.000681254
-0.000685273
-0.000687608
-0.000688318
-0.000687471
-0.000685134
-0.000681381
-0.000676289
-0.000669937
-0.000662404
-0.000653773
-0.000644125
-0.000633544
-0.000622109
-0.000609903
-0.000599587
-0.000622988
-0.000641231
-0.000658269
-0.00067371
-0.000687068
-0.000698355
-0.000707655
-0.000715011
-0.000720464
-0.000724066
-0.000725881
-0.000725975
-0.000724421
-0.000721297
-0.000716683
-0.000710664
-0.000703325
-0.000694755
-0.000685042
-0.000674276
-0.000662545
-0.000649936
-0.000636538
-0.000639163
-0.000663672
-0.000682394
-0.000699874
-0.000715668
-0.000729218
-0.000740543
-0.00074974
-0.000756859
-0.000761949
-0.00076507
-0.000766293
-0.000765692
-0.000763351
-0.000759354
-0.00075379
-0.000746752
-0.000738333
-0.000728631
-0.000717741
-0.00070576
-0.000692784
-0.000678907
-0.000664224
-0.000681345
-0.00070703
-0.000726233
-0.000744155
-0.000760293
-0.000774014
-0.00078534
-0.000794386
-0.000801212
-0.000805873
-0.000808439
-0.000808988
-0.000807608
-0.000804388
-0.000799422
-0.00079281
-0.000784652
-0.000775052
-0.000764114
-0.000751943
-0.000738644
-0.00072432
-0.000709073
-0.000693004
-0.000726366
-0.000753296
-0.000772978
-0.000791336
-0.000807805
-0.000821667
-0.00083295
-0.000841789
-0.000848255
-0.000852412
-0.000854339
-0.000854125
-0.000851867
-0.000847667
-0.000841628
-0.000833859
-0.000824472
-0.000813578
-0.000801292
-0.000787727
-0.000772997
-0.000757213
-0.000740486
-0.000722924
-0.000774482
-0.00080273
-0.000822885
-0.000841668
-0.000858446
-0.00087241
-0.000883598
-0.000892164
-0.000898193
-0.000901758
-0.00090295
-0.000901871
-0.000898629
-0.000893335
-0.000886105
-0.00087706
-0.000866321
-0.000854012
-0.000840255
-0.000825174
-0.000808891
-0.000791528
-0.000773201
-0.000754029
-0.000825982
-0.000855621
-0.000876231
-0.000895418
-0.000912476
-0.000926495
-0.000937521
-0.000945736
-0.000951238
-0.000954112
-0.000954462
-0.000952403
-0.000948055
-0.000941544
-0.000932999
-0.000922544
-0.000910321
-0.000896462
-0.0008811
-0.00086437
-0.000846402
-0.000827328
-0.000807275
-0.000786367
-0.000881177
-0.00091228
-0.000933321
-0.00095288
-0.000970176
-0.000984188
-0.000994974
-0.00100274
-0.00100761
-0.00100968
-0.00100907
-0.0010059
-0.00100031
-0.000992444
-0.00098244
-0.000970441
-0.000956588
-0.000941034
-0.000923923
-0.000905398
-0.000885604
-0.00086468
-0.000842761
-0.000819983
-0.0010462
-0.00103458
-0.00102088
-0.00100524
-0.000987832
-0.000968814
-0.000948341
-0.000926566
-0.000903639
-0.000879708
-0.000854916
-0.000168721
-0.000187843
-0.00020633
-0.000224155
-0.000241298
-0.000257737
-0.000273439
-0.000184319
-0.000204197
-0.000223436
-0.000242005
-0.000259883
-0.000277033
-0.000293401
-0.000200686
-0.000221378
-0.000241422
-0.000260786
-0.000279447
-0.000297353
-0.000314426
-0.000217871
-0.000239428
-0.000260327
-0.000280538
-0.000300037
-0.000318753
-0.000336581
-0.00023593
-0.000258405
-0.000280216
-0.00030133
-0.000321723
-0.000341307
-0.000359941
-0.000254921
-0.000278376
-0.00030116
-0.000323237
-0.000344586
-0.000365098
-0.000384595
-0.000274912
-0.000299412
-0.000323235
-0.000346342
-0.000368713
-0.000390219
-0.000410638
-0.000295972
-0.000321589
-0.000346523
-0.000370732
-0.000394198
-0.000416771
-0.000438177
-0.000318183
-0.000344994
-0.000371116
-0.000396505
-0.000421146
-0.000444864
-0.000467329
-0.000341632
-0.000369719
-0.000397112
-0.000423768
-0.000449669
-0.000474619
-0.000498218
-0.000366411
-0.000395862
-0.000424621
-0.000452635
-0.000479892
-0.000506169
-0.000530987
-0.000392616
-0.000423536
-0.000453761
-0.000483237
-0.000511953
-0.00053966
-0.000565789
-0.000420359
-0.000452861
-0.000484664
-0.000515713
-0.000546003
-0.000575255
-0.000602794
-0.000449768
-0.000483972
-0.000517476
-0.000550223
-0.00058221
-0.000613134
-0.000642193
-0.000480982
-0.000517021
-0.00055236
-0.000586939
-0.000620762
-0.000653496
-0.000684196
-0.000514153
-0.000552174
-0.000589496
-0.000626056
-0.000661867
-0.000696566
-0.00072904
-0.000549452
-0.000589617
-0.000629085
-0.000667793
-0.000705759
-0.000742593
-0.000776989
-0.000587068
-0.000629554
-0.000671348
-0.000712385
-0.000752691
-0.00079185
-0.000828331
-0.000627205
-0.000672209
-0.000716528
-0.000760093
-0.000802947
-0.000844643
-0.000883397
-0.000670089
-0.000717833
-2.02541e-05
-4.27496e-05
-6.48568e-05
-8.65833e-05
-0.000107885
-0.000128705
-0.000148997
-3.0488e-05
-5.38033e-05
-7.66409e-05
-9.91191e-05
-0.000121188
-0.000142775
-0.000163832
-4.11746e-05
-6.53481e-05
-8.89402e-05
-0.000112209
-0.000135095
-0.000157503
-0.000179381
-5.23277e-05
-7.7434e-05
-0.000101838
-0.000125922
-0.000149671
-0.000172951
-0.000195699
-6.39526e-05
-9.00461e-05
-0.000115423
-0.000140309
-0.00016496
-0.000189163
-0.000212834
-7.6104e-05
-0.000103202
-0.000129253
-0.000155333
-0.000180999
-0.000206184
-0.000230841
-8.8822e-05
-0.000117062
-0.000144162
-0.00017115
-0.000197845
-0.000224078
-0.000249783
-0.000102127
-0.00013158
-0.000159716
-0.000187736
-0.000215545
-0.000242894
-0.000269722
-0.000116048
-0.000146801
-0.00017603
-0.000205191
-0.000234184
-0.000262708
-0.000290731
-0.000130621
-0.000162773
-0.000193171
-0.000223562
-0.000253868
-0.000283621
-0.000312907
-0.000145885
-0.000179543
-0.000211191
-0.000242868
-0.000274438
-0.000305674
-0.000336333
-0.00016188
-0.000197165
-0.000230153
-0.000263234
-0.000296293
-0.00032896
-0.000361072
-0.000178651
-0.000215695
-0.000250121
-0.000284695
-0.000319318
-0.00035354
-0.000387231
-0.000196243
-0.000235192
-0.000271164
-0.00030734
-0.000343635
-0.000379547
-0.000414937
-0.000214708
-0.000255724
-0.000293365
-0.000331268
-0.000369368
-0.000407102
-0.000444319
-0.000234103
-0.000277367
-0.000316812
-0.000356578
-0.000396628
-0.000436327
-0.000475513
-0.000254484
-0.0003002
-0.0003416
-0.00038338
-0.000425537
-0.000467361
-0.000508676
-0.000275911
-0.000324302
-0.00036783
-0.000411792
-0.000456231
-0.000500356
-0.000543979
-0.000298448
-0.000349766
-0.000395608
-0.000441938
-0.000488855
-0.000535479
-0.000581603
-0.000572916
-0.000621758
0.000649927
0.000638338
0.00062622
0.000613562
0.000600352
0.000586584
0.000572249
0.00055734
0.000541853
0.000525786
0.000509136
0.000491906
0.000474099
0.00045572
0.000436778
0.000417284
0.000397251
0.000376697
0.000355642
0.000334109
0.000312125
0.000289718
0.000266923
0.000243776
0.000220315
0.000196585
0.00017263
0.0001485
0.000124245
9.99197e-05
7.55794e-05
5.1281e-05
2.70894e-05
3.08833e-06
0.00066107
0.000649403
0.000637181
0.000624393
0.000611026
0.000597071
0.000582517
0.000567359
0.000551588
0.000535202
0.000518197
0.000500574
0.000482335
0.000463485
0.000444032
0.000423986
0.000403361
0.000382174
0.000360444
0.000338197
0.000315458
0.000292259
0.000268634
0.000244622
0.000220264
0.000195606
0.000170696
0.000145586
0.00012033
9.49876e-05
6.96174e-05
4.42802e-05
1.90518e-05
-5.96929e-06
0.000672713
0.000660979
0.000648664
0.000635755
0.000622239
0.000608103
0.000593337
0.000577932
0.000561879
0.000545173
0.00052781
0.000509789
0.000491111
0.00047178
0.000451802
0.000431187
0.000409949
0.000388105
0.000365674
0.00034268
0.000319153
0.000295124
0.000270628
0.000245706
0.000220402
0.000194764
0.000168843
0.000142695
0.000116378
8.99545e-05
6.34886e-05
3.70443e-05
1.07086e-05
-1.54029e-05
0.000684879
0.000673089
0.000660694
0.000647675
0.000634019
0.000619711
0.00060474
0.000589092
0.00057276
0.000555735
0.000538013
0.000519589
0.000500464
0.000480641
0.000460125
0.000438925
0.000417054
0.000394528
0.000371367
0.000347597
0.000323245
0.000298345
0.000272935
0.000247055
0.000220753
0.00019408
0.000167089
0.00013984
0.000112397
8.48242e-05
5.71919e-05
2.9568e-05
2.05148e-06
-2.52219e-05
0.000697589
0.000685759
0.000673296
0.00066018
0.000646395
0.000631926
0.000616756
0.000600873
0.000584266
0.000566924
0.000548841
0.000530012
0.000510434
0.00049011
0.000469042
0.00044724
0.000424716
0.000401484
0.000377565
0.000352985
0.000327772
0.000301959
0.000275588
0.0002487
0.000221345
0.000193577
0.000165453
0.000137037
0.000108396
7.96013e-05
5.07267e-05
2.18452e-05
-6.93046e-06
-3.54408e-05
0.000710866
0.000699012
0.000686496
0.000673298
0.000659398
0.000644778
0.000629421
0.000613311
0.000596434
0.000578779
0.000560337
0.000541099
0.000521064
0.000500229
0.000478599
0.000456179
0.00043298
0.000409018
0.000384312
0.000358887
0.000332773
0.000306005
0.000278623
0.000250674
0.000222208
0.000193281
0.000163957
0.000134302
0.000104388
7.42917e-05
4.40926e-05
1.38687e-05
-1.6252e-05
-4.60851e-05
0.000724733
0.000712874
0.000700323
0.000687058
0.000673058
0.000658301
0.000642768
0.000626441
0.000609303
0.000591341
0.000572541
0.000552896
0.000532399
0.000511047
0.000488842
0.000465788
0.000441895
0.000417177
0.000391654
0.00036535
0.000338295
0.000310525
0.000282083
0.000253014
0.000223375
0.000193224
0.000162626
0.000131655
0.000100386
6.89026e-05
3.72898e-05
5.63116e-06
-2.59295e-05
-5.71824e-05
0.000739215
0.000727371
0.000714805
0.000701492
0.000687409
0.000672531
0.000656837
0.000640305
0.000622916
0.000604653
0.000585501
0.000565449
0.000544488
0.000522612
0.000499822
0.000476119
0.000451512
0.000426014
0.000399644
0.000372424
0.000344387
0.000315568
0.00028601
0.000255763
0.000224884
0.000193436
0.000161489
0.000129118
9.64066e-05
6.34431e-05
3.032e-05
-2.87349e-06
-3.59768e-05
-6.8753e-05
0.000754336
0.000742529
0.000729969
0.000716629
0.000702483
0.000687503
0.000671664
0.000654942
0.000637314
0.000618761
0.000599263
0.000578808
0.000557382
0.000534979
0.000511594
0.000487229
0.000461889
0.000435586
0.000408337
0.000380166
0.000351103
0.000321184
0.000290455
0.000258967
0.000226778
0.000193956
0.000160575
0.000126716
9.24677e-05
5.79245e-05
2.31865e-05
-1.16504e-05
-4.64075e-05
-8.08187e-05
0.000770121
0.000758375
0.000745846
0.000732503
0.000718316
0.000703255
0.000687291
0.000670396
0.000652545
0.000633713
0.00061388
0.000593026
0.000571138
0.000548205
0.000524219
0.000499178
0.000473087
0.000445955
0.000417797
0.000388636
0.000358503
0.000327433
0.000295473
0.000262676
0.000229104
0.000194827
0.000159923
0.00012448
8.85914e-05
5.23603e-05
1.58941e-05
-2.07043e-05
-5.7236e-05
-9.34042e-05
0.000786593
0.000774937
0.000762466
0.000749146
0.000734944
0.000719826
0.000703759
0.000686712
0.000668655
0.000649561
0.000629403
0.000608161
0.000585815
0.000562351
0.000537758
0.000512032
0.000485172
0.000457187
0.00042809
0.000397902
0.000366652
0.000334377
0.000301124
0.000266948
0.000231914
0.000196094
0.000159573
0.000122442
8.48033e-05
4.6767e-05
8.44923e-06
-3.00389e-05
-6.84773e-05
-0.000106536
0.000803779
0.000792242
0.00077986
0.000766593
0.000752404
0.000737256
0.000721112
0.000703937
0.000685696
0.000666357
0.000645892
0.000624272
0.000601476
0.000577483
0.000552281
0.000525859
0.000498216
0.000469356
0.000439289
0.000408035
0.000375622
0.000342087
0.000307477
0.000271847
0.000235266
0.000197811
0.00015957
0.000120641
8.11326e-05
4.11641e-05
8.60711e-07
-3.96572e-05
-8.01467e-05
-0.000120243
0.000821702
0.000810319
0.000798057
0.000784876
0.000770732
0.000755586
0.000739395
0.000722119
0.00070372
0.00068416
0.000663405
0.000641423
0.000618187
0.000593672
0.00056786
0.000540737
0.000512297
0.00048254
0.000451475
0.000419117
0.000385493
0.00035064
0.000314605
0.000277444
0.000239229
0.000200039
0.000159968
0.000119121
7.76136e-05
3.55747e-05
-6.86021e-06
-4.9561e-05
-9.22595e-05
-0.000134554
0.000840387
0.000829194
0.00081709
0.00080403
0.000789968
0.000774858
0.000758653
0.000741309
0.000722781
0.000703026
0.000682005
0.000659681
0.00063602
0.000610992
0.000584574
0.000556747
0.000527499
0.000496827
0.000464734
0.000431234
0.000396352
0.000360122
0.000322591
0.000283818
0.000243874
0.000202843
0.000160826
0.000117931
7.42857e-05
3.00265e-05
-1.46992e-05
-5.97501e-05
-0.000104831
-0.000149501
0.000859857
0.000848894
0.000836989
0.000824092
0.000810151
0.000795116
0.000778936
0.000761559
0.000742936
0.000723018
0.00070176
0.000679118
0.000655051
0.000629524
0.000602507
0.000573976
0.000543912
0.000512308
0.000479161
0.000444483
0.000408294
0.000370628
0.000331528
0.000291056
0.000249284
0.000206301
0.00016221
0.00011713
7.1194e-05
2.45512e-05
-2.26392e-05
-7.02235e-05
-0.000117878
-0.000165119
0.000880136
0.000869447
0.000857785
0.000845093
0.000831318
0.000816402
0.000800289
0.000782922
0.000764244
0.0007442
0.000722738
0.000699806
0.000675358
0.000649352
0.000621748
0.000592517
0.000561634
0.000529084
0.00049486
0.000458968
0.000421425
0.000382259
0.000341517
0.000299256
0.000255551
0.000210495
0.000164197
0.000116781
6.83904e-05
1.91863e-05
-3.0659e-05
-8.0978e-05
-0.000131415
-0.000181444
0.000901246
0.000890879
0.000879507
0.000867071
0.00085351
0.000838763
0.000822765
0.000805454
0.000786766
0.000766638
0.000745012
0.000721827
0.000697029
0.000670567
0.000642395
0.000612474
0.000580772
0.000547266
0.000511944
0.000474805
0.00043586
0.000395135
0.000352671
0.000308528
0.000262782
0.000215526
0.000166874
0.000116961
6.59382e-05
1.39789e-05
-3.87295e-05
-9.20042e-05
-0.000145455
-0.000198513
0.000923208
0.000913214
0.000902186
0.000890059
0.000876767
0.000862243
0.000846414
0.000829212
0.000810566
0.000790405
0.00076866
0.000745264
0.000720153
0.000693267
0.000664551
0.000633956
0.000601442
0.000566977
0.000530539
0.000492122
0.00045173
0.000409383
0.000365121
0.000318999
0.000271094
0.000221503
0.000170345
0.00011776
6.39113e-05
8.98569e-06
-4.68139e-05
-0.000103288
-0.000160009
-0.00021636
0.000400724
0.000395976
0.000391208
0.000386421
0.000381616
0.000376794
0.000371957
0.000367106
0.000362242
0.000357366
0.000352481
0.000347588
0.000342688
0.000337782
0.000332872
0.00032796
0.000323047
0.000318134
0.000313224
0.000308317
0.000303416
0.000298521
0.000293635
0.000288758
0.000283893
0.000279041
0.000274204
0.000269382
0.000264579
0.000259794
0.00025503
0.000250288
0.00024557
0.000240877
0.000400879
0.000396123
0.000391345
0.000386548
0.000381733
0.000376901
0.000372053
0.000367192
0.000362317
0.000357431
0.000352535
0.000347631
0.000342719
0.000337802
0.000332881
0.000327957
0.000323033
0.000318109
0.000313187
0.000308269
0.000303355
0.000298449
0.000293551
0.000288663
0.000283786
0.000278923
0.000274074
0.000269241
0.000264426
0.00025963
0.000254854
0.000250102
0.000245372
0.000240669
0.000401183
0.000396408
0.000391612
0.000386796
0.000381961
0.00037711
0.000372242
0.00036736
0.000362464
0.000357558
0.00035264
0.000347714
0.000342781
0.000337842
0.000332899
0.000327954
0.000323007
0.00031806
0.000313116
0.000308175
0.000303239
0.00029831
0.000293389
0.000288478
0.000283579
0.000278692
0.000273821
0.000268966
0.000264128
0.00025931
0.000254513
0.000249738
0.000244988
0.000240262
0.000401629
0.000396827
0.000392003
0.000387159
0.000382297
0.000377416
0.000372519
0.000367607
0.000362681
0.000357744
0.000352796
0.000347838
0.000342874
0.000337903
0.000332927
0.000327949
0.000322969
0.00031799
0.000313012
0.000308038
0.000303069
0.000298106
0.000293152
0.000288208
0.000283276
0.000278356
0.000273452
0.000268563
0.000263693
0.000258843
0.000254013
0.000249207
0.000244425
0.000239668
0.000402211
0.000397375
0.000392515
0.000387635
0.000382736
0.000377817
0.000372882
0.000367931
0.000362966
0.000357989
0.000353
0.000348002
0.000342996
0.000337983
0.000332965
0.000327945
0.000322922
0.0003179
0.000312879
0.000307862
0.000302849
0.000297843
0.000292845
0.000287858
0.000282882
0.000277919
0.000272971
0.00026804
0.000263127
0.000258234
0.000253363
0.000248515
0.000243691
0.000238894
0.000402927
0.000398048
0.000393145
0.000388221
0.000383276
0.000378312
0.00037333
0.000368331
0.000363318
0.000358292
0.000353253
0.000348205
0.000343148
0.000338084
0.000333015
0.000327942
0.000322868
0.000317793
0.000312719
0.000307648
0.000302582
0.000297523
0.000292472
0.000287431
0.000282401
0.000277386
0.000272385
0.000267401
0.000262436
0.000257491
0.000252568
0.000247668
0.000242794
0.000237947
0.000403774
0.000398844
0.000393891
0.000388914
0.000383916
0.000378898
0.000373861
0.000368806
0.000363736
0.000358652
0.000353556
0.000348449
0.000343332
0.000338208
0.000333078
0.000327944
0.000322807
0.00031767
0.000312534
0.0003074
0.000302272
0.000297149
0.000292035
0.000286931
0.000281839
0.00027676
0.000271697
0.00026665
0.000261623
0.000256617
0.000251633
0.000246673
0.000241739
0.000236833
0.000404749
0.000399762
0.00039475
0.000389714
0.000384655
0.000379575
0.000374475
0.000369357
0.000364222
0.000359072
0.000353908
0.000348733
0.000343548
0.000338355
0.000333155
0.000327951
0.000322743
0.000317534
0.000312327
0.000307121
0.00030192
0.000296725
0.000291539
0.000286362
0.000281197
0.000276046
0.000270911
0.000265793
0.000260695
0.000255617
0.000250563
0.000245534
0.000240532
0.000235558
0.000405851
0.000400801
0.000395723
0.00039062
0.000385493
0.000380344
0.000375173
0.000369983
0.000364775
0.00035955
0.000354312
0.000349061
0.000343799
0.000338527
0.000333249
0.000327965
0.000322678
0.000317389
0.0003121
0.000306813
0.00030153
0.000296254
0.000290985
0.000285727
0.000280481
0.000275248
0.000270031
0.000264833
0.000259654
0.000254496
0.000249363
0.000244255
0.000239175
0.000234124
0.00040708
0.000401959
0.00039681
0.000391633
0.000386431
0.000381204
0.000375955
0.000370685
0.000365396
0.00036009
0.000354768
0.000349432
0.000344085
0.000338727
0.000333361
0.000327989
0.000322613
0.000317235
0.000311856
0.000306479
0.000301105
0.000295738
0.000290379
0.000285029
0.000279691
0.000274368
0.000269061
0.000263772
0.000258503
0.000253257
0.000248036
0.00024284
0.000237674
0.000232537
0.000408437
0.000403239
0.00039801
0.000392753
0.000387468
0.000382158
0.000376823
0.000371466
0.000366089
0.000360692
0.000355279
0.000349851
0.000344409
0.000338957
0.000333495
0.000328026
0.000322552
0.000317075
0.000311598
0.000306121
0.000300648
0.000295181
0.000289721
0.000284271
0.000278833
0.00027341
0.000268003
0.000262615
0.000257247
0.000251903
0.000246584
0.000241292
0.00023603
0.0002308
0.000409921
0.00040464
0.000399326
0.000393981
0.000388608
0.000383206
0.000377779
0.000372327
0.000366853
0.000361359
0.000355847
0.000350318
0.000344774
0.000339218
0.000333652
0.000328078
0.000322498
0.000316914
0.000311328
0.000305743
0.000300161
0.000294584
0.000289015
0.000283456
0.000277909
0.000272376
0.00026686
0.000261363
0.000255888
0.000250437
0.000245011
0.000239614
0.000234248
0.000228914
0.000411535
0.000406164
0.000400759
0.00039532
0.000389851
0.000384352
0.000378824
0.000373271
0.000367693
0.000362093
0.000356474
0.000350836
0.000345182
0.000339515
0.000333836
0.000328147
0.000322452
0.000316752
0.00031105
0.000305347
0.000299647
0.000293952
0.000288264
0.000282586
0.00027692
0.000271269
0.000265635
0.00026002
0.000254428
0.00024886
0.000243319
0.000237808
0.000232328
0.000226882
0.000413279
0.000407814
0.00040231
0.000396772
0.0003912
0.000385596
0.000379962
0.000374299
0.00036861
0.000362898
0.000357163
0.000351408
0.000345636
0.000339849
0.000334049
0.000328238
0.000322419
0.000316594
0.000310766
0.000304937
0.00029911
0.000293287
0.000287471
0.000281665
0.000275871
0.000270092
0.00026433
0.000258588
0.000252869
0.000247176
0.00024151
0.000235875
0.000230273
0.000224707
0.000415156
0.00040959
0.000403983
0.000398338
0.000392658
0.000386942
0.000381194
0.000375415
0.000369608
0.000363775
0.000357917
0.000352038
0.00034614
0.000340224
0.000334294
0.000328352
0.0003224
0.000316442
0.000310479
0.000304515
0.000298551
0.000292591
0.000286638
0.000280695
0.000274763
0.000268847
0.000262948
0.000257069
0.000251214
0.000245386
0.000239586
0.000233818
0.000228084
0.000222388
0.000417169
0.000411496
0.00040578
0.000400022
0.000394227
0.000388393
0.000382525
0.000376623
0.00037069
0.000364729
0.000358741
0.000352729
0.000346696
0.000340644
0.000334576
0.000328494
0.000322401
0.0003163
0.000310193
0.000304084
0.000297975
0.000291869
0.000285769
0.000279678
0.000273599
0.000267536
0.00026149
0.000255465
0.000249465
0.000243491
0.000237548
0.000231638
0.000225763
0.000219928
0.000419319
0.000413534
0.000407703
0.000401828
0.00039591
0.000389953
0.000383957
0.000377925
0.000371859
0.000365762
0.000359637
0.000353485
0.000347309
0.000341112
0.000334897
0.000328667
0.000322424
0.000316171
0.000309911
0.000303647
0.000297383
0.000291122
0.000284865
0.000278618
0.000272382
0.000266162
0.000259959
0.000253779
0.000247623
0.000241495
0.000235398
0.000229335
0.000223311
0.000217327
0.00042161
0.000415708
0.000409756
0.000403757
0.000397713
0.000391624
0.000385494
0.000379325
0.00037312
0.00036688
0.000360609
0.000354309
0.000347982
0.000341632
0.000335262
0.000328874
0.000322472
0.000316058
0.000309636
0.000303209
0.00029678
0.000290353
0.000283931
0.000277516
0.000271114
0.000264726
0.000258358
0.000252011
0.000245689
0.000239397
0.000233137
0.000226912
0.000220727
0.000214585
0.000424046
0.000418021
0.000411944
0.000405815
0.000399637
0.000393412
0.000387141
0.000380829
0.000374476
0.000368086
0.000361662
0.000355205
0.00034872
0.000342209
0.000335674
0.00032912
0.00032255
0.000315966
0.000309372
0.000302772
0.000296169
0.000289566
0.000282968
0.000276377
0.000269797
0.000263233
0.000256687
0.000250164
0.000243667
0.000237199
0.000230766
0.000224369
0.000218014
0.000211703
0.000426628
0.000420477
0.000414268
0.000408004
0.000401687
0.000395319
0.000388902
0.000382439
0.000375932
0.000369384
0.000362799
0.000356179
0.000349526
0.000342845
0.000336138
0.000329409
0.000322661
0.000315898
0.000309123
0.00030234
0.000295553
0.000288764
0.000281979
0.000275202
0.000268435
0.000261683
0.00025495
0.000248239
0.000241556
0.000234904
0.000228286
0.000221707
0.000215171
0.000208682
0.000429363
0.00042308
0.000416735
0.00041033
0.000403868
0.000397351
0.00039078
0.00038416
0.000377492
0.00037078
0.000364026
0.000357234
0.000350406
0.000343546
0.000336658
0.000329745
0.000322811
0.000315859
0.000308893
0.000301917
0.000294935
0.000287951
0.000280969
0.000273994
0.000267029
0.000260079
0.000253147
0.000246239
0.000239359
0.000232511
0.000225698
0.000218926
0.000212199
0.000205521
0.000432252
0.000425833
0.000419347
0.000412796
0.000406184
0.000399511
0.000392781
0.000385997
0.000379161
0.000372277
0.000365347
0.000358375
0.000351364
0.000344317
0.000337239
0.000330133
0.000323002
0.000315851
0.000308685
0.000301506
0.000294319
0.000287129
0.00027994
0.000272756
0.000265583
0.000258423
0.000251283
0.000244166
0.000237077
0.000230022
0.000223003
0.000216027
0.000209098
0.00020222
0.000435301
0.000428741
0.000422108
0.000415407
0.000408639
0.000401805
0.00039491
0.000387955
0.000380945
0.000373881
0.000366767
0.000359607
0.000352404
0.000345162
0.000337885
0.000330576
0.00032324
0.000315881
0.000308504
0.000301112
0.00029371
0.000286303
0.000278895
0.000271492
0.000264098
0.000256718
0.000249357
0.00024202
0.000234712
0.000227438
0.000220202
0.000213011
0.000205868
0.000198779
0.000438513
0.000431808
0.000425025
0.000418168
0.000411238
0.000404238
0.000397171
0.00039004
0.000382847
0.000375597
0.000368292
0.000360936
0.000353533
0.000346087
0.000338601
0.000331081
0.00032353
0.000315952
0.000308354
0.000300738
0.00029311
0.000285475
0.000277839
0.000270205
0.000262579
0.000254967
0.000247374
0.000239805
0.000232265
0.00022476
0.000217296
0.000209877
0.000202509
0.000195197
0.000441892
0.000435038
0.000428101
0.000421083
0.000413987
0.000406815
0.00039957
0.000392255
0.000384874
0.00037743
0.000369926
0.000362366
0.000354755
0.000347096
0.000339393
0.000331651
0.000323875
0.00031607
0.000308239
0.000300389
0.000292525
0.000284651
0.000276773
0.000268897
0.000261028
0.000253172
0.000245334
0.000237521
0.000229737
0.00022199
0.000214284
0.000206626
0.000199021
0.000191474
0.000445443
0.000438436
0.00043134
0.000424157
0.000416889
0.00040954
0.000402112
0.000394607
0.000387031
0.000379386
0.000371676
0.000363904
0.000356076
0.000348195
0.000340266
0.000332294
0.000324283
0.000316238
0.000308166
0.00030007
0.000291958
0.000283833
0.000275703
0.000267572
0.000259448
0.000251335
0.000243241
0.000235171
0.000227131
0.000219128
0.000211169
0.000203258
0.000195403
0.00018761
0.00044917
0.000442007
0.000434748
0.000427395
0.000419952
0.000412419
0.000404802
0.000397102
0.000389324
0.00038147
0.000373546
0.000365555
0.000357501
0.00034939
0.000341225
0.000333012
0.000324757
0.000316463
0.000308138
0.000299786
0.000291413
0.000283027
0.000274632
0.000266235
0.000257842
0.00024946
0.000241096
0.000232757
0.000224448
0.000216177
0.00020795
0.000199775
0.000191657
0.000183604
0.000453078
0.000445756
0.00043833
0.000430803
0.000423178
0.000415458
0.000407646
0.000399744
0.000391757
0.000383689
0.000375543
0.000367325
0.000359037
0.000350686
0.000342277
0.000333814
0.000325303
0.00031675
0.00030816
0.00029954
0.000290897
0.000282236
0.000273563
0.000264887
0.000256214
0.00024755
0.000238903
0.00023028
0.000221689
0.000213136
0.000204629
0.000196175
0.000187781
0.000179456
0.000457171
0.000449685
0.000442089
0.000434385
0.000426575
0.000418662
0.000410649
0.00040254
0.000394338
0.000386048
0.000377674
0.000369219
0.00036069
0.00035209
0.000343426
0.000334703
0.000325927
0.000317103
0.000308238
0.000299339
0.000290412
0.000281464
0.000272502
0.000263534
0.000254567
0.000245607
0.000236664
0.000227744
0.000218856
0.000210008
0.000201206
0.00019246
0.000183776
0.000175164
0.000461452
0.000453802
0.000446032
0.000438146
0.000430147
0.000422036
0.000413818
0.000405495
0.000397073
0.000388554
0.000379943
0.000371245
0.000362465
0.000353608
0.00034468
0.000335687
0.000326634
0.000317529
0.000308378
0.000299187
0.000289965
0.000280717
0.000271453
0.000262179
0.000252904
0.000243635
0.000234382
0.000225151
0.000215952
0.000206793
0.000197683
0.000188629
0.000179641
0.000170728
0.000465927
0.000458109
0.000450163
0.000442092
0.000433899
0.000425587
0.000417158
0.000408616
0.000399966
0.000391211
0.000382357
0.000373408
0.000364369
0.000355246
0.000346044
0.000336771
0.000327432
0.000318034
0.000308584
0.00029909
0.00028956
0.00028
0.00027042
0.000260827
0.00025123
0.000241638
0.000232059
0.000222502
0.000212978
0.000203494
0.000194059
0.000184684
0.000175377
0.000166147
0.0004706
0.000462612
0.000454487
0.000446228
0.000437838