/*--------------------------------*- C++ -*----------------------------------*\
| =========                 |                                                 |
| \\      /  F ield         | OpenFOAM: The Open Source CFD Toolbox           |
|  \\    /   O peration     | Version:  2412                                  |
|   \\  /    A nd           | Website:  www.openfoam.com                      |
|    \\/     M anipulation  |                                                 |
\*---------------------------------------------------------------------------*/
FoamFile
{
    version     2.0;
    format      ascii;
    arch        "LSB;label=32;scalar=64";
    class       volVectorField;
    location    "27.5";
    object      U;
}
// * * * * * * * * * * * * * * * * * * * * * * * * * * * * * * * * * * * * * //

dimensions      [0 1 -1 0 0 0 0];

internalField   nonuniform List<vector> 
5285
(
(0.110059 -0.00240581 0)
(0.110155 -0.00214565 0)
(0.110239 -0.00188127 0)
(0.110311 -0.00161312 0)
(0.110371 -0.00134178 0)
(0.110419 -0.00106794 0)
(0.110455 -0.000792322 0)
(0.110478 -0.000515605 0)
(0.110489 -0.000238478 0)
(0.110487 3.83757e-05 0)
(0.110474 0.000314286 0)
(0.110448 0.000588597 0)
(0.11041 0.000860668 0)
(0.11036 0.00112988 0)
(0.110299 0.00139564 0)
(0.110227 0.00165737 0)
(0.110143 0.00191453 0)
(0.11005 0.00216662 0)
(0.109946 0.00241313 0)
(0.109832 0.00265364 0)
(0.109709 0.00288772 0)
(0.109576 0.00311501 0)
(0.109436 0.00333517 0)
(0.109287 0.00354795 0)
(0.110323 -0.00250994 0)
(0.110424 -0.00223781 0)
(0.110512 -0.00196132 0)
(0.110587 -0.00168086 0)
(0.11065 -0.00139702 0)
(0.1107 -0.00111056 0)
(0.110737 -0.000822238 0)
(0.110761 -0.000532796 0)
(0.110772 -0.000242967 0)
(0.11077 4.65212e-05 0)
(0.110755 0.000334952 0)
(0.110727 0.000621626 0)
(0.110686 0.000905863 0)
(0.110633 0.00118701 0)
(0.110568 0.00146442 0)
(0.110491 0.0017375 0)
(0.110403 0.00200567 0)
(0.110304 0.00226839 0)
(0.110193 0.00252515 0)
(0.110073 0.00277547 0)
(0.109943 0.00301893 0)
(0.109803 0.00325512 0)
(0.109655 0.00348372 0)
(0.109498 0.00370443 0)
(0.110598 -0.00261947 0)
(0.110705 -0.00233473 0)
(0.110797 -0.00204541 0)
(0.110876 -0.00175191 0)
(0.110942 -0.00145484 0)
(0.110995 -0.00115501 0)
(0.111033 -0.000853253 0)
(0.111058 -0.00055035 0)
(0.111069 -0.00024709 0)
(0.111066 5.57491e-05 0)
(0.111049 0.000357404 0)
(0.111019 0.000657128 0)
(0.110975 0.000954198 0)
(0.110919 0.00124791 0)
(0.11085 0.0015376 0)
(0.110768 0.00182262 0)
(0.110674 0.00210237 0)
(0.110568 0.00237626 0)
(0.110452 0.00264376 0)
(0.110324 0.00290437 0)
(0.110186 0.00315764 0)
(0.110039 0.00340315 0)
(0.109882 0.00364054 0)
(0.109716 0.00386951 0)
(0.110887 -0.00273483 0)
(0.110999 -0.00243674 0)
(0.111095 -0.00213381 0)
(0.111179 -0.00182647 0)
(0.111248 -0.00151538 0)
(0.111303 -0.00120139 0)
(0.111343 -0.000885397 0)
(0.111368 -0.000568245 0)
(0.111379 -0.000250774 0)
(0.111375 6.61835e-05 0)
(0.111357 0.000381812 0)
(0.111324 0.000695317 0)
(0.111278 0.00100593 0)
(0.111217 0.0013129 0)
(0.111143 0.00161552 0)
(0.111056 0.00191311 0)
(0.110957 0.00220502 0)
(0.110845 0.00249065 0)
(0.110721 0.00276942 0)
(0.110586 0.00304082 0)
(0.11044 0.00330436 0)
(0.110284 0.0035596 0)
(0.110118 0.00380616 0)
(0.109943 0.00404374 0)
(0.111188 -0.00285641 0)
(0.111307 -0.00254415 0)
(0.111408 -0.00222678 0)
(0.111496 -0.00190476 0)
(0.111569 -0.00157878 0)
(0.111626 -0.00124978 0)
(0.111667 -0.000918695 0)
(0.111694 -0.000586447 0)
(0.111704 -0.000253931 0)
(0.111699 7.79629e-05 0)
(0.111679 0.000408365 0)
(0.111644 0.000736429 0)
(0.111594 0.00106133 0)
(0.111529 0.00138229 0)
(0.11145 0.00169853 0)
(0.111358 0.00200935 0)
(0.111251 0.00231406 0)
(0.111133 0.00261202 0)
(0.111001 0.00290262 0)
(0.110858 0.00318532 0)
(0.110704 0.0034596 0)
(0.110539 0.00372501 0)
(0.110363 0.00398116 0)
(0.110179 0.0042277 0)
(0.111505 -0.00298459 0)
(0.111629 -0.00265728 0)
(0.111736 -0.00232457 0)
(0.111828 -0.00198696 0)
(0.111904 -0.00164518 0)
(0.111964 -0.00130024 0)
(0.112007 -0.000953159 0)
(0.112034 -0.00060491 0)
(0.112045 -0.000256458 0)
(0.112039 9.12472e-05 0)
(0.112016 0.000437276 0)
(0.111978 0.000780725 0)
(0.111924 0.00112072 0)
(0.111855 0.00145643 0)
(0.111771 0.00178704 0)
(0.111672 0.00211179 0)
(0.111559 0.00242996 0)
(0.111433 0.00274087 0)
(0.111294 0.00304388 0)
(0.111142 0.00333843 0)
(0.110978 0.00362396 0)
(0.110803 0.00389999 0)
(0.110618 0.00416612 0)
(0.110423 0.004422 0)
(0.111836 -0.00311977 0)
(0.111968 -0.00277646 0)
(0.11208 -0.00242746 0)
(0.112176 -0.00207328 0)
(0.112256 -0.00171472 0)
(0.112319 -0.00135285 0)
(0.112364 -0.00098879 0)
(0.112391 -0.000623571 0)
(0.112401 -0.000258228 0)
(0.112394 0.00010622 0)
(0.11237 0.000468784 0)
(0.112328 0.000828499 0)
(0.11227 0.00118444 0)
(0.112196 0.00153571 0)
(0.112106 0.00188146 0)
(0.112001 0.00222088 0)
(0.111881 0.00255321 0)
(0.111746 0.00287773 0)
(0.111598 0.00319377 0)
(0.111437 0.00350072 0)
(0.111264 0.00379802 0)
(0.111079 0.00408516 0)
(0.110883 0.00436171 0)
(0.110676 0.0046273 0)
(0.112184 -0.0032624 0)
(0.112323 -0.00290207 0)
(0.11244 -0.00253573 0)
(0.112542 -0.00216392 0)
(0.112626 -0.00178752 0)
(0.112691 -0.00140767 0)
(0.112738 -0.00102558 0)
(0.112766 -0.000642347 0)
(0.112776 -0.000259096 0)
(0.112767 0.000123093 0)
(0.11274 0.000503159 0)
(0.112695 0.000880077 0)
(0.112632 0.00125286 0)
(0.112553 0.00162056 0)
(0.112457 0.00198227 0)
(0.112344 0.00233714 0)
(0.112216 0.00268437 0)
(0.112073 0.00302319 0)
(0.111916 0.0033529 0)
(0.111745 0.00367286 0)
(0.111561 0.00398247 0)
(0.111365 0.00428121 0)
(0.111158 0.00456862 0)
(0.110939 0.00484432 0)
(0.112549 -0.00341294 0)
(0.112696 -0.00303448 0)
(0.112819 -0.00264967 0)
(0.112926 -0.00225911 0)
(0.113014 -0.00186371 0)
(0.113082 -0.00146475 0)
(0.113131 -0.00106349 0)
(0.113159 -0.000661137 0)
(0.113168 -0.000258885 0)
(0.113157 0.000142107 0)
(0.113128 0.000540707 0)
(0.113079 0.000935824 0)
(0.113012 0.00132641 0)
(0.112926 0.00171145 0)
(0.112823 0.00209 0)
(0.112703 0.00246114 0)
(0.112567 0.00282404 0)
(0.112415 0.00317788 0)
(0.112248 0.00352193 0)
(0.112066 0.00385552 0)
(0.111871 0.00417801 0)
(0.111663 0.00448886 0)
(0.111443 0.00478759 0)
(0.111212 0.00507382 0)
(0.112933 -0.0035719 0)
(0.113087 -0.00317409 0)
(0.113217 -0.0027696 0)
(0.113329 -0.00235904 0)
(0.113422 -0.00194343 0)
(0.113493 -0.00152412 0)
(0.113543 -0.00110248 0)
(0.113572 -0.00067981 0)
(0.11358 -0.00025739 0)
(0.113567 0.000163541 0)
(0.113534 0.000581775 0)
(0.113481 0.000996149 0)
(0.113409 0.00140555 0)
(0.113317 0.0018089 0)
(0.113207 0.0022052 0)
(0.113078 0.00259349 0)
(0.112933 0.00297287 0)
(0.112771 0.0033425 0)
(0.112593 0.0037016 0)
(0.1124 0.00404946 0)
(0.112193 0.00438543 0)
(0.111973 0.00470892 0)
(0.11174 0.00501945 0)
(0.111495 0.00531661 0)
(0.113336 -0.00373981 0)
(0.113499 -0.00332133 0)
(0.113635 -0.00289583 0)
(0.113753 -0.00246395 0)
(0.11385 -0.00202678 0)
(0.113924 -0.00158579 0)
(0.113976 -0.00114247 0)
(0.114005 -0.000698205 0)
(0.114012 -0.000254366 0)
(0.113997 0.000187717 0)
(0.113961 0.000626757 0)
(0.113903 0.00106152 0)
(0.113825 0.00149081 0)
(0.113726 0.0019135 0)
(0.113608 0.00232852 0)
(0.11347 0.00273487 0)
(0.113315 0.00313159 0)
(0.113142 0.0035178 0)
(0.112953 0.00389268 0)
(0.112748 0.0042555 0)
(0.112528 0.00460555 0)
(0.112294 0.00494225 0)
(0.112047 0.00526506 0)
(0.111788 0.00557358 0)
(0.11376 -0.00391721 0)
(0.113933 -0.00347665 0)
(0.114075 -0.00302868 0)
(0.114199 -0.00257404 0)
(0.114301 -0.00211386 0)
(0.114378 -0.00164977 0)
(0.114431 -0.00118336 0)
(0.114461 -0.000716119 0)
(0.114466 -0.000249522 0)
(0.114449 0.000215011 0)
(0.114408 0.000676105 0)
(0.114345 0.00113245 0)
(0.11426 0.00158277 0)
(0.114154 0.00202589 0)
(0.114027 0.00246066 0)
(0.11388 0.00288603 0)
(0.113714 0.00330099 0)
(0.11353 0.00370461 0)
(0.113328 0.00409605 0)
(0.11311 0.00447452 0)
(0.112876 0.0048393 0)
(0.112628 0.00518977 0)
(0.112366 0.00552537 0)
(0.112091 0.00584569 0)
(0.114206 -0.00410472 0)
(0.114389 -0.00364049 0)
(0.114539 -0.00316849 0)
(0.114669 -0.0026895 0)
(0.114775 -0.00220476 0)
(0.114855 -0.00171602 0)
(0.11491 -0.00122499 0)
(0.114939 -0.000733297 0)
(0.114943 -0.000242506 0)
(0.114923 0.000245861 0)
(0.114878 0.000730342 0)
(0.114809 0.00120954 0)
(0.114717 0.00168211 0)
(0.114602 0.0021468 0)
(0.114465 0.0026024 0)
(0.114308 0.0030478 0)
(0.11413 0.00348194 0)
(0.113934 0.00390386 0)
(0.113718 0.00431265 0)
(0.113486 0.00470751 0)
(0.113237 0.00508767 0)
(0.112974 0.00545249 0)
(0.112696 0.00580141 0)
(0.112405 0.00613397 0)
(0.114677 -0.00430292 0)
(0.114869 -0.00381331 0)
(0.115027 -0.00331556 0)
(0.115164 -0.00281051 0)
(0.115275 -0.0022995 0)
(0.115358 -0.00178443 0)
(0.115414 -0.00126716 0)
(0.115442 -0.000749419 0)
(0.115444 -0.000232895 0)
(0.11542 0.000280788 0)
(0.11537 0.000790073 0)
(0.115294 0.00129347 0)
(0.115194 0.00178958 0)
(0.115071 0.00227705 0)
(0.114924 0.00275462 0)
(0.114755 0.00322111 0)
(0.114564 0.00367543 0)
(0.114354 0.00411654 0)
(0.114125 0.00454353 0)
(0.113877 0.00495552 0)
(0.113612 0.00535175 0)
(0.113332 0.00573153 0)
(0.113037 0.00609428 0)
(0.112728 0.00643954 0)
(0.115173 -0.00451245 0)
(0.115376 -0.00399557 0)
(0.115542 -0.00347019 0)
(0.115685 -0.0029372 0)
(0.115801 -0.00239808 0)
(0.115887 -0.00185487 0)
(0.115943 -0.00130958 0)
(0.115971 -0.000764083 0)
(0.115971 -0.000220176 0)
(0.115942 0.000320405 0)
(0.115886 0.000856005 0)
(0.115803 0.00138505 0)
(0.115694 0.00190604 0)
(0.11556 0.00241758 0)
(0.115402 0.00291831 0)
(0.11522 0.00340701 0)
(0.115017 0.00388252 0)
(0.114791 0.00434379 0)
(0.114546 0.00478982 0)
(0.114282 0.00521974 0)
(0.114 0.00563273 0)
(0.113702 0.00602808 0)
(0.113388 0.00640519 0)
(0.113061 0.0067636 0)
(0.115696 -0.00473395 0)
(0.115911 -0.00418772 0)
(0.116084 -0.00363263 0)
(0.116234 -0.00306966 0)
(0.116355 -0.00250041 0)
(0.116444 -0.00192709 0)
(0.116501 -0.00135188 0)
(0.116527 -0.000776779 0)
(0.116524 -0.00020372 0)
(0.11649 0.000365449 0)
(0.116427 0.000928969 0)
(0.116336 0.00148517 0)
(0.116217 0.00203249 0)
(0.116072 0.00256943 0)
(0.115901 0.00309459 0)
(0.115706 0.00360666 0)
(0.115487 0.00410444 0)
(0.115246 0.00458683 0)
(0.114983 0.00505281 0)
(0.114701 0.00550145 0)
(0.114401 0.00593191 0)
(0.114083 0.00634345 0)
(0.11375 0.00673546 0)
(0.113402 0.00710745 0)
(0.116248 -0.00496804 0)
(0.116475 -0.00439014 0)
(0.116657 -0.00380306 0)
(0.116813 -0.00320788 0)
(0.116939 -0.0026063 0)
(0.11703 -0.00200073 0)
(0.117087 -0.00139352 0)
(0.117112 -0.000786835 0)
(0.117104 -0.000182728 0)
(0.117064 0.000416832 0)
(0.116994 0.00100998 0)
(0.116893 0.00159495 0)
(0.116763 0.00217009 0)
(0.116605 0.00273386 0)
(0.11642 0.00328472 0)
(0.11621 0.00382137 0)
(0.115974 0.00434254 0)
(0.115716 0.00484707 0)
(0.115435 0.0053339 0)
(0.115134 0.00580207 0)
(0.114813 0.00625072 0)
(0.114475 0.00667908 0)
(0.11412 0.00708651 0)
(0.113751 0.00747251 0)
(0.116832 -0.00521528 0)
(0.117072 -0.00460315 0)
(0.117261 -0.00398159 0)
(0.117424 -0.00335172 0)
(0.117554 -0.0027154 0)
(0.117647 -0.00207525 0)
(0.117704 -0.00143382 0)
(0.117725 -0.000793404 0)
(0.117712 -0.000156217 0)
(0.117665 0.000475653 0)
(0.117586 0.00110023 0)
(0.117474 0.00171566 0)
(0.117332 0.00232021 0)
(0.11716 0.00291223 0)
(0.11696 0.00349026 0)
(0.116732 0.00405269 0)
(0.116479 0.00459837 0)
(0.116201 0.00512607 0)
(0.1159 0.00563468 0)
(0.115578 0.0061232 0)
(0.115236 0.00659074 0)
(0.114875 0.00703652 0)
(0.114497 0.00745988 0)
(0.114104 0.0078603 0)
(0.117735 0.0031063 0)
(0.117517 0.00371274 0)
(0.117271 0.00430236 0)
(0.116998 0.0048737 0)
(0.116699 0.00542559 0)
(0.116376 0.0059569 0)
(0.116031 0.00646657 0)
(0.115666 0.0069537 0)
(0.115281 0.00741747 0)
(0.114878 0.00785722 0)
(0.11446 0.00827243 0)
(0.109135 -0.00397814 -5.3504e-25)
(0.109292 -0.00377447 -6.40359e-25)
(0.109441 -0.00356346 -1.285e-24)
(0.109583 -0.00334549 2.66039e-24)
(0.109715 -0.003121 -2.85721e-24)
(0.109839 -0.00289041 -9.26926e-24)
(0.109953 -0.00265402 1.5396e-24)
(0.109335 -0.00414115 -5.76529e-25)
(0.109502 -0.00392975 -1.37296e-24)
(0.10966 -0.00371087 -4.15645e-24)
(0.109811 -0.00348496 -1.38172e-24)
(0.109952 -0.00325246 2.95874e-24)
(0.110085 -0.00301377 4.59804e-24)
(0.110209 -0.00276898 1.58084e-23)
(0.109544 -0.00431256 -5.54169e-26)
(0.10972 -0.00409304 -9.62328e-25)
(0.109888 -0.00386595 5.42173e-24)
(0.110048 -0.00363175 -1.1285e-25)
(0.110199 -0.00339087 1.35827e-23)
(0.110342 -0.00314367 1.69312e-24)
(0.110477 -0.00288991 -1.41857e-23)
(0.109762 -0.00449285 6.82669e-25)
(0.109947 -0.00426487 5.76195e-25)
(0.110125 -0.00402922 -1.29925e-23)
(0.110295 -0.00378636 1.60471e-24)
(0.110457 -0.00353673 -2.83942e-23)
(0.11061 -0.0032806 2.91194e-23)
(0.110756 -0.00301737 1.91678e-24)
(0.109988 -0.00468258 7.36814e-25)
(0.110184 -0.00444575 -7.36197e-25)
(0.110373 -0.00420113 2.84172e-23)
(0.110554 -0.00394923 1.23119e-25)
(0.110727 -0.00369046 1.28621e-23)
(0.110891 -0.003425 -2.90266e-23)
(0.111048 -0.00315179 3.28774e-23)
(0.110223 -0.00488238 -7.93657e-25)
(0.11043 -0.00463625 -9.30728e-25)
(0.11063 -0.00438225 -1.39502e-23)
(0.110823 -0.00412088 3.1637e-23)
(0.111008 -0.00385255 1.97522e-24)
(0.111184 -0.00357731 3.34195e-23)
(0.111354 -0.0032936 -3.28203e-23)
(0.110467 -0.0050929 -2.53961e-24)
(0.110687 -0.00483701 -2.70272e-24)
(0.1109 -0.00457316 -1.39322e-25)
(0.111105 -0.00430188 -6.16602e-23)
(0.111302 -0.00402354 -2.116e-24)
(0.111491 -0.00373805 -7.61699e-23)
(0.111675 -0.00344325 -7.7706e-23)
(0.110722 -0.00531486 2.47152e-24)
(0.110955 -0.00504872 9.16049e-25)
(0.11118 -0.00477453 2.12702e-24)
(0.111399 -0.00449285 3.41396e-23)
(0.11161 -0.00420402 1.36331e-25)
(0.111812 -0.00390778 1.14782e-22)
(0.112011 -0.00360128 8.28005e-23)
(0.110987 -0.00554905 9.82374e-25)
(0.111234 -0.00527212 1.38351e-23)
(0.111474 -0.00498706 3.85365e-23)
(0.111707 -0.00469445 -2.42243e-24)
(0.111932 -0.00439462 2.42208e-24)
(0.112149 -0.00408708 -8.16489e-23)
(0.112363 -0.00376821 0)
(0.111264 -0.00579633 0)
(0.111525 -0.00550801 -1.91856e-23)
(0.11178 -0.00521151 -3.65415e-23)
(0.112028 -0.00490742 4.65455e-23)
(0.112269 -0.00459603 -5.32805e-24)
(0.112501 -0.00427661 -9.32211e-23)
(0.112733 -0.00394465 1.00725e-22)
(0.111552 -0.00605755 1.12568e-24)
(0.111829 -0.00575725 -2.04948e-23)
(0.1121 -0.0054487 0)
(0.112365 -0.00513253 -4.15147e-23)
(0.112622 -0.00480897 -9.4104e-23)
(0.112871 -0.00447706 -9.26236e-24)
(0.113121 -0.00413122 -1.99521e-22)
(0.111853 -0.00633371 -1.20339e-24)
(0.112147 -0.00602076 1.79581e-23)
(0.112435 -0.00569951 -1.7648e-25)
(0.112718 -0.00537061 -1.72321e-25)
(0.112992 -0.00503425 9.71036e-23)
(0.11326 -0.00468915 2.02376e-22)
(0.11353 -0.00432858 2.19746e-22)
(0.112167 -0.00662593 1.02474e-23)
(0.112479 -0.0062996 0)
(0.112786 -0.00596492 0)
(0.113087 -0.00562258 1.00924e-22)
(0.113381 -0.00527271 -1.03821e-22)
(0.113668 -0.00491369 -2.22901e-22)
(0.113959 -0.00453745 -1.11937e-22)
(0.112495 -0.00693535 -2.25485e-23)
(0.112827 -0.00659485 1.37405e-24)
(0.113154 -0.00624597 5.36287e-23)
(0.113475 -0.00588942 -2.08337e-22)
(0.11379 -0.00552526 1.0739e-22)
(0.114097 -0.00515151 1.06139e-22)
(0.114411 -0.00475858 3.76793e-24)
(0.112837 -0.00726324 1.23923e-23)
(0.11319 -0.00690772 -4.60996e-24)
(0.113539 -0.00654378 -4.72823e-23)
(0.113882 -0.00617218 2.22381e-22)
(0.114219 -0.00579289 0)
(0.114549 -0.00540351 1.25082e-22)
(0.114887 -0.00499275 4.0254e-24)
(0.113196 -0.00761098 1.09055e-23)
(0.113571 -0.00723951 -1.78633e-24)
(0.113943 -0.0068596 -1.11425e-22)
(0.11431 -0.006472 -2.33328e-22)
(0.11467 -0.00607666 2.09734e-25)
(0.115024 -0.00567066 1.42272e-22)
(0.11539 -0.00524079 2.90721e-22)
(0.113571 -0.0079801 -1.07823e-23)
(0.113971 -0.00759167 5.55089e-23)
(0.114367 -0.00719474 2.40879e-22)
(0.114759 -0.00679014 1.18522e-22)
(0.115146 -0.00637769 1.38793e-22)
(0.115526 -0.00595394 -5.74888e-22)
(0.11592 -0.00550351 -5.97525e-22)
(0.113964 -0.00837225 -1.7774e-24)
(0.11439 -0.00796572 -1.20101e-22)
(0.114814 -0.00755067 -1.22515e-22)
(0.115233 -0.00712791 -2.40538e-25)
(0.115647 -0.00669718 -2.82621e-22)
(0.116054 -0.00625439 2.89887e-22)
(0.116479 -0.00578175 3.16361e-22)
(0.114376 -0.00878921 1.89545e-24)
(0.114831 -0.00836338 5.49302e-23)
(0.115283 -0.00792895 4.0773e-24)
(0.115732 -0.00748674 0)
(0.116175 -0.0070364 1.53099e-22)
(0.116613 -0.00657308 3.25745e-22)
(0.117071 -0.00607632 5.25291e-24)
(0.114808 -0.00923298 -2.02146e-24)
(0.115294 -0.0087865 7.13745e-23)
(0.10786 -0.00517201 1.83141e-25)
(0.108057 -0.00502772 6.30571e-25)
(0.10825 -0.0048745 -1.29287e-25)
(0.108438 -0.00471237 1.02752e-24)
(0.108621 -0.00454145 7.8713e-25)
(0.108799 -0.00436193 1.22934e-24)
(0.10897 -0.00417406 -4.16733e-25)
(0.108005 -0.00538437 -1.4261e-24)
(0.108209 -0.00523358 -1.37944e-24)
(0.108409 -0.00507371 1.95529e-24)
(0.108605 -0.00490475 -6.54134e-25)
(0.108797 -0.00472677 2.34767e-24)
(0.108982 -0.00454 9.84138e-25)
(0.109162 -0.00434469 5.13955e-25)
(0.108154 -0.00560759 1.6765e-24)
(0.108366 -0.00544999 4.52933e-25)
(0.108574 -0.00528311 -6.32512e-24)
(0.108778 -0.00510697 1.36979e-25)
(0.108978 -0.00492158 -2.91892e-24)
(0.109173 -0.00472717 -1.9056e-25)
(0.109362 -0.00452406 -1.01685e-24)
(0.108307 -0.00584241 3.80416e-25)
(0.108528 -0.00567766 -8.25835e-24)
(0.108744 -0.00550331 9.6444e-24)
(0.108958 -0.00531958 8.17603e-25)
(0.109167 -0.00512638 7.63093e-24)
(0.109371 -0.00492397 -3.48302e-24)
(0.109569 -0.00471268 -6.69385e-25)
(0.108465 -0.00608953 -7.04087e-24)
(0.108695 -0.00591726 8.34069e-24)
(0.10892 -0.0057353 -5.893e-24)
(0.109143 -0.00554339 -1.46924e-25)
(0.109362 -0.00534188 -1.48049e-23)
(0.109576 -0.00513104 -5.98636e-25)
(0.109785 -0.00491115 1.81696e-24)
(0.108627 -0.00634972 7.13433e-24)
(0.108867 -0.00616941 -1.09156e-23)
(0.109102 -0.00597925 8.4136e-25)
(0.109335 -0.00577891 -1.53323e-23)
(0.109565 -0.00556874 8.3719e-24)
(0.109789 -0.00534903 -5.62043e-24)
(0.110009 -0.00512012 -6.50343e-25)
(0.108794 -0.00662395 1.86691e-23)
(0.109044 -0.00643509 2.15352e-23)
(0.10929 -0.00623603 -9.32536e-25)
(0.109534 -0.00602694 3.45237e-23)
(0.109774 -0.00580769 1.571e-25)
(0.11001 -0.00557868 3.15496e-24)
(0.110242 -0.00534028 3.79156e-24)
(0.108966 -0.0069132 3.27425e-24)
(0.109227 -0.00671535 -3.96348e-23)
(0.109484 -0.00650711 -1.66226e-25)
(0.109739 -0.00628852 -1.71752e-23)
(0.109992 -0.00605958 1.1954e-24)
(0.11024 -0.00582076 7.60219e-25)
(0.110484 -0.00557238 -3.84312e-24)
(0.109143 -0.0072185 2.70953e-24)
(0.109416 -0.00701112 2.63623e-23)
(0.109684 -0.00679314 1.12828e-24)
(0.109952 -0.00656453 -1.12858e-24)
(0.110217 -0.00632535 -2.16557e-23)
(0.110478 -0.00607617 -1.52374e-23)
(0.110735 -0.00581725 8.19711e-25)
(0.109324 -0.00754095 -2.26448e-23)
(0.10961 -0.00732347 3.26461e-23)
(0.109891 -0.00709517 -2.28758e-24)
(0.110172 -0.0068561 -1.9444e-23)
(0.110451 -0.00660641 2.32825e-23)
(0.110726 -0.00634606 1.13386e-23)
(0.110997 -0.00607585 0)
(0.10951 -0.00788176 3.03932e-23)
(0.10981 -0.00765353 2.30069e-24)
(0.110104 -0.00741426 4.18427e-23)
(0.110399 -0.00716401 2.20817e-23)
(0.110693 -0.00690292 0)
(0.110984 -0.00663095 1.40493e-23)
(0.11127 -0.00634897 9.47918e-25)
(0.109701 -0.00824227 -6.10654e-23)
(0.110016 -0.0080026 -7.61418e-23)
(0.110325 -0.00775165 -4.03975e-23)
(0.110635 -0.00748943 5.20562e-23)
(0.110945 -0.00721598 1.94211e-25)
(0.111251 -0.00693194 -1.58036e-23)
(0.111554 -0.00663766 -1.01724e-24)
(0.109897 -0.00862392 3.27268e-23)
(0.110228 -0.0083721 8.08555e-23)
(0.110552 -0.00810876 5.08416e-23)
(0.110879 -0.00783395 -1.07854e-22)
(0.111206 -0.00754771 0)
(0.111529 -0.00725064 0)
(0.11185 -0.00694318 -9.44606e-24)
(0.110097 -0.0090283 1.2981e-24)
(0.110446 -0.00876353 -4.57818e-23)
(0.110787 -0.00848703 -4.96951e-23)
(0.111132 -0.00819885 1.16175e-22)
(0.111477 -0.00789904 -3.1705e-23)
(0.111819 -0.00758813 1.16859e-24)
(0.112159 -0.00726669 1.83664e-23)
(0.110303 -0.00945711 1.4191e-24)
(0.11067 -0.00917854 -5.22992e-23)
(0.11103 -0.00888803 0)
(0.111394 -0.00858562 -1.25403e-22)
(0.111758 -0.00827136 3.58765e-23)
(0.112121 -0.00794578 -3.53148e-24)
(0.112481 -0.00760951 -8.83761e-24)
(0.110513 -0.00991225 -9.46563e-23)
(0.110901 -0.00961896 -6.12452e-23)
(0.111281 -0.00931351 -2.35344e-25)
(0.111665 -0.00899595 1.36921e-22)
(0.11205 -0.00866631 7.98413e-23)
(0.112435 -0.00832514 4.13154e-23)
(0.112817 -0.00797312 -1.28715e-23)
(0.110728 -0.0103957 1.99612e-22)
(0.111138 -0.0100868 2.28509e-22)
(0.111539 -0.00976538 0)
(0.111946 -0.00943168 -7.22893e-23)
(0.112354 -0.00908566 -1.57861e-22)
(0.112762 -0.0087279 -8.91587e-23)
(0.113168 -0.00835912 1.29454e-23)
(0.110947 -0.0109099 -1.01471e-22)
(0.111382 -0.0105841 -1.21538e-22)
(0.111806 -0.0102457 7.48978e-23)
(0.112237 -0.00989481 2.6112e-25)
(0.11267 -0.00953133 8.31012e-23)
(0.113103 -0.00915587 4.40329e-23)
(0.113534 -0.00876926 -1.52523e-24)
(0.11117 -0.0114572 1.97562e-24)
(0.111632 -0.0111134 -1.43663e-22)
(0.112082 -0.0107568 -7.03976e-23)
(0.112539 -0.0103875 0)
(0.112999 -0.0100054 3.00386e-24)
(0.113459 -0.00961112 -4.62442e-24)
(0.113918 -0.00920539 1.62894e-24)
(0.113831 -0.0100958 1.74288e-24)
(0.11432 -0.00966977 -1.73939e-24)
(0.101527 -0.00519861 0)
(0.101641 -0.00527809 0)
(0.10176 -0.00535627 0)
(0.101884 -0.00543288 0)
(0.102014 -0.0055076 0)
(0.102148 -0.00558017 0)
(0.102288 -0.00565028 0)
(0.102433 -0.00571763 0)
(0.102583 -0.00578188 0)
(0.102739 -0.0058427 0)
(0.102901 -0.00589973 0)
(0.103067 -0.00595262 0)
(0.103239 -0.006001 0)
(0.103416 -0.00604447 0)
(0.103598 -0.00608266 0)
(0.103785 -0.00611517 0)
(0.103977 -0.0061416 0)
(0.104174 -0.00616155 0)
(0.104375 -0.00617463 0)
(0.104579 -0.00618043 0)
(0.104788 -0.00617857 0)
(0.105001 -0.00616866 0)
(0.105216 -0.00615035 0)
(0.105434 -0.00612328 0)
(0.105654 -0.00608712 0)
(0.105877 -0.00604155 0)
(0.1061 -0.00598629 0)
(0.106325 -0.00592109 0)
(0.106549 -0.00584571 0)
(0.106773 -0.00575998 0)
(0.106997 -0.00566373 0)
(0.107218 -0.00555681 0)
(0.107438 -0.00543905 0)
(0.107654 -0.00531005 0)
(0.101443 -0.00531079 0)
(0.101558 -0.00539531 0)
(0.101679 -0.00547865 0)
(0.101805 -0.0055605 0)
(0.101936 -0.00564057 0)
(0.102073 -0.00571855 0)
(0.102215 -0.00579414 0)
(0.102363 -0.005867 0)
(0.102517 -0.00593679 0)
(0.102677 -0.00600316 0)
(0.102842 -0.00606573 0)
(0.103013 -0.00612412 0)
(0.103189 -0.00617793 0)
(0.103372 -0.00622675 0)
(0.103559 -0.00627017 0)
(0.103753 -0.00630775 0)
(0.103951 -0.00633908 0)
(0.104154 -0.00636371 0)
(0.104362 -0.00638122 0)
(0.104575 -0.00639118 0)
(0.104792 -0.00639315 0)
(0.105013 -0.00638674 0)
(0.105237 -0.00637152 0)
(0.105464 -0.00634711 0)
(0.105694 -0.00631315 0)
(0.105926 -0.0062693 0)
(0.10616 -0.00621522 0)
(0.106395 -0.00615064 0)
(0.10663 -0.0060753 0)
(0.106865 -0.00598899 0)
(0.107099 -0.00589151 0)
(0.107332 -0.00578266 0)
(0.107562 -0.00566216 0)
(0.10779 -0.00552914 0)
(0.101354 -0.005424 0)
(0.101471 -0.00551382 0)
(0.101592 -0.00560257 0)
(0.10172 -0.00568996 0)
(0.101853 -0.00577566 0)
(0.101992 -0.00585937 0)
(0.102137 -0.00594076 0)
(0.102288 -0.00601949 0)
(0.102445 -0.00609518 0)
(0.102608 -0.00616748 0)
(0.102778 -0.00623597 0)
(0.102953 -0.00630026 0)
(0.103135 -0.00635991 0)
(0.103322 -0.00641449 0)
(0.103516 -0.00646355 0)
(0.103715 -0.00650665 0)
(0.10392 -0.0065433 0)
(0.10413 -0.00657305 0)
(0.104346 -0.00659543 0)
(0.104567 -0.00660996 0)
(0.104792 -0.00661619 0)
(0.105021 -0.00661365 0)
(0.105255 -0.00660191 0)
(0.105492 -0.00658054 0)
(0.105732 -0.00654912 0)
(0.105974 -0.00650729 0)
(0.106219 -0.00645468 0)
(0.106464 -0.00639097 0)
(0.106711 -0.00631588 0)
(0.106957 -0.00622914 0)
(0.107203 -0.00613055 0)
(0.107447 -0.00601983 0)
(0.107689 -0.00589656 0)
(0.107929 -0.00575938 0)
(0.10126 -0.00553812 0)
(0.101378 -0.00563349 0)
(0.101501 -0.00572793 0)
(0.10163 -0.00582115 0)
(0.101765 -0.0059128 0)
(0.101906 -0.00600256 0)
(0.102053 -0.0060901 0)
(0.102207 -0.00617505 0)
(0.102367 -0.00625703 0)
(0.102534 -0.00633564 0)
(0.102708 -0.00641047 0)
(0.102887 -0.00648107 0)
(0.103074 -0.006547 0)
(0.103267 -0.0066078 0)
(0.103466 -0.00666297 0)
(0.103672 -0.00671203 0)
(0.103884 -0.00675448 0)
(0.104101 -0.00678981 0)
(0.104325 -0.00681752 0)
(0.104554 -0.00683709 0)
(0.104788 -0.00684802 0)
(0.105026 -0.0068498 0)
(0.10527 -0.00684196 0)
(0.105517 -0.00682403 0)
(0.105767 -0.00679554 0)
(0.10602 -0.00675608 0)
(0.106276 -0.00670525 0)
(0.106533 -0.00664269 0)
(0.106792 -0.00656808 0)
(0.10705 -0.00648112 0)
(0.107308 -0.00638155 0)
(0.107565 -0.00626906 0)
(0.107819 -0.00614303 0)
(0.108072 -0.00600158 0)
(0.101161 -0.00565299 0)
(0.101279 -0.00575417 0)
(0.101403 -0.0058546 0)
(0.101533 -0.00595394 0)
(0.10167 -0.00605186 0)
(0.101813 -0.00614802 0)
(0.101963 -0.00624207 0)
(0.10212 -0.00633363 0)
(0.102283 -0.00642229 0)
(0.102454 -0.00650764 0)
(0.102631 -0.00658924 0)
(0.102815 -0.00666661 0)
(0.103007 -0.00673929 0)
(0.103205 -0.00680677 0)
(0.103411 -0.00686854 0)
(0.103623 -0.00692406 0)
(0.103841 -0.00697281 0)
(0.104067 -0.00701424 0)
(0.104298 -0.00704778 0)
(0.104536 -0.00707289 0)
(0.104779 -0.00708902 0)
(0.105027 -0.00709561 0)
(0.10528 -0.00709214 0)
(0.105538 -0.00707808 0)
(0.1058 -0.00705294 0)
(0.106064 -0.00701624 0)
(0.106332 -0.00696755 0)
(0.106601 -0.00690646 0)
(0.106872 -0.00683259 0)
(0.107144 -0.00674564 0)
(0.107415 -0.00664527 0)
(0.107684 -0.0065311 0)
(0.107952 -0.00640235 0)
(0.108219 -0.00625651 0)
(0.101056 -0.00576844 0)
(0.101174 -0.00587571 0)
(0.101299 -0.00598241 0)
(0.101431 -0.0060882 0)
(0.101569 -0.00619272 0)
(0.101714 -0.00629564 0)
(0.101866 -0.00639658 0)
(0.102026 -0.00649514 0)
(0.102192 -0.00659091 0)
(0.102366 -0.00668344 0)
(0.102548 -0.00677227 0)
(0.102737 -0.00685689 0)
(0.102933 -0.00693681 0)
(0.103137 -0.00701149 0)
(0.103348 -0.00708038 0)
(0.103567 -0.00714292 0)
(0.103793 -0.00719851 0)
(0.104026 -0.00724658 0)
(0.104266 -0.00728651 0)
(0.104512 -0.00731771 0)
(0.104765 -0.00733958 0)
(0.105023 -0.00735151 0)
(0.105287 -0.00735292 0)
(0.105556 -0.00734323 0)
(0.105829 -0.0073219 0)
(0.106106 -0.00728841 0)
(0.106386 -0.00724225 0)
(0.106668 -0.00718297 0)
(0.106952 -0.00711017 0)
(0.107237 -0.00702347 0)
(0.107522 -0.0069225 0)
(0.107806 -0.00680679 0)
(0.108088 -0.00667536 0)
(0.108369 -0.00652502 0)
(0.100945 -0.00588428 0)
(0.101064 -0.00599792 0)
(0.101189 -0.00611119 0)
(0.101322 -0.00622375 0)
(0.101462 -0.00633523 0)
(0.101609 -0.00644528 0)
(0.101763 -0.0065535 0)
(0.101925 -0.00665949 0)
(0.102094 -0.00676281 0)
(0.102272 -0.00686299 0)
(0.102457 -0.00695953 0)
(0.10265 -0.00705192 0)
(0.102852 -0.00713962 0)
(0.103061 -0.00722205 0)
(0.103279 -0.00729863 0)
(0.103504 -0.00736874 0)
(0.103737 -0.00743177 0)
(0.103978 -0.00748707 0)
(0.104227 -0.007534 0)
(0.104482 -0.00757189 0)
(0.104745 -0.00760008 0)
(0.105014 -0.00761793 0)
(0.105289 -0.00762479 0)
(0.105569 -0.00762003 0)
(0.105855 -0.00760303 0)
(0.106144 -0.00757322 0)
(0.106437 -0.00753004 0)
(0.106734 -0.00747299 0)
(0.107032 -0.00740161 0)
(0.107331 -0.00731546 0)
(0.107631 -0.00721412 0)
(0.10793 -0.00709702 0)
(0.108227 -0.00696297 0)
(0.108523 -0.00680805 0)
(0.100827 -0.0060003 0)
(0.100947 -0.0061206 0)
(0.101073 -0.00624075 0)
(0.101206 -0.00636042 0)
(0.101347 -0.00647921 0)
(0.101495 -0.00659677 0)
(0.101652 -0.0067127 0)
(0.101816 -0.00682656 0)
(0.101988 -0.00693789 0)
(0.102169 -0.00704621 0)
(0.102358 -0.00715099 0)
(0.102556 -0.00725169 0)
(0.102763 -0.00734772 0)
(0.102978 -0.00743849 0)
(0.103201 -0.00752336 0)
(0.103434 -0.00760169 0)
(0.103675 -0.00767279 0)
(0.103924 -0.00773597 0)
(0.104181 -0.00779053 0)
(0.104446 -0.00783577 0)
(0.104719 -0.00787094 0)
(0.104999 -0.00789536 0)
(0.105285 -0.00790829 0)
(0.105578 -0.00790905 0)
(0.105876 -0.00789696 0)
(0.106179 -0.00787138 0)
(0.106486 -0.00783168 0)
(0.106797 -0.00777731 0)
(0.10711 -0.00770774 0)
(0.107425 -0.00762248 0)
(0.10774 -0.00752104 0)
(0.108055 -0.00740276 0)
(0.108368 -0.00726619 0)
(0.108681 -0.0071066 0)
(0.100703 -0.00611627 0)
(0.100823 -0.00624351 0)
(0.100949 -0.00637087 0)
(0.101083 -0.00649798 0)
(0.101225 -0.00662446 0)
(0.101375 -0.00674994 0)
(0.101533 -0.006874 0)
(0.101699 -0.00699618 0)
(0.101874 -0.00711602 0)
(0.102058 -0.007233 0)
(0.102251 -0.00734657 0)
(0.102454 -0.00745615 0)
(0.102665 -0.00756113 0)
(0.102886 -0.00766086 0)
(0.103116 -0.00775468 0)
(0.103355 -0.00784188 0)
(0.103603 -0.00792174 0)
(0.103861 -0.00799351 0)
(0.104127 -0.00805642 0)
(0.104402 -0.00810971 0)
(0.104686 -0.00815258 0)
(0.104977 -0.00818425 0)
(0.105275 -0.00820395 0)
(0.105581 -0.0082109 0)
(0.105892 -0.00820436 0)
(0.10621 -0.00818361 0)
(0.106532 -0.00814797 0)
(0.106858 -0.00809679 0)
(0.107187 -0.00802949 0)
(0.107518 -0.0079455 0)
(0.10785 -0.00784428 0)
(0.108182 -0.00772504 0)
(0.108512 -0.00758606 0)
(0.108843 -0.00742174 0)
(0.100573 -0.00623193 0)
(0.100692 -0.00636641 0)
(0.100818 -0.00650129 0)
(0.100952 -0.0066362 0)
(0.101095 -0.00677076 0)
(0.101246 -0.00690457 0)
(0.101405 -0.0070372 0)
(0.101574 -0.00716819 0)
(0.101752 -0.00729705 0)
(0.101939 -0.00742323 0)
(0.102135 -0.00754617 0)
(0.102342 -0.00766524 0)
(0.102558 -0.00777981 0)
(0.102784 -0.00788918 0)
(0.103021 -0.00799264 0)
(0.103267 -0.00808944 0)
(0.103523 -0.0081788 0)
(0.103789 -0.00825991 0)
(0.104065 -0.00833195 0)
(0.10435 -0.00839407 0)
(0.104644 -0.00844541 0)
(0.104947 -0.00848512 0)
(0.105259 -0.00851235 0)
(0.105578 -0.00852623 0)
(0.105903 -0.00852595 0)
(0.106236 -0.00851071 0)
(0.106573 -0.00847975 0)
(0.106916 -0.00843234 0)
(0.107261 -0.00836781 0)
(0.10761 -0.00828556 0)
(0.10796 -0.00818491 0)
(0.10831 -0.00806498 0)
(0.108658 -0.00792376 0)
(0.109008 -0.00775464 0)
(0.100435 -0.00634698 0)
(0.100553 -0.00648901 0)
(0.100679 -0.00663174 0)
(0.100814 -0.00677482 0)
(0.100957 -0.00691784 0)
(0.101108 -0.0070604 0)
(0.101269 -0.00720208 0)
(0.101439 -0.00734238 0)
(0.101619 -0.00748079 0)
(0.101809 -0.00761675 0)
(0.10201 -0.00774966 0)
(0.10222 -0.00787888 0)
(0.102441 -0.00800371 0)
(0.102673 -0.00812344 0)
(0.102916 -0.00823729 0)
(0.103169 -0.00834446 0)
(0.103433 -0.00844412 0)
(0.103708 -0.0085354 0)
(0.103993 -0.0086174 0)
(0.104289 -0.0086892 0)
(0.104595 -0.00874987 0)
(0.10491 -0.00879847 0)