/*--------------------------------*- C++ -*----------------------------------*\
| =========                 |                                                 |
| \\      /  F ield         | OpenFOAM: The Open Source CFD Toolbox           |
|  \\    /   O peration     | Version:  2412                                  |
|   \\  /    A nd           | Website:  www.openfoam.com                      |
|    \\/     M anipulation  |                                                 |
\*---------------------------------------------------------------------------*/
FoamFile
{
    version     2.0;
    format      ascii;
    arch        "LSB;label=32;scalar=64";
    class       volVectorField;
    location    "27.5";
    object      vorticity;
}
// * * * * * * * * * * * * * * * * * * * * * * * * * * * * * * * * * * * * * //

dimensions      [0 0 -1 0 0 0 0];

internalField   nonuniform List<vector> 
5285
(
(0 -5.24778e-23 -0.000133113)
(0 3.05704e-21 -8.61977e-05)
(0 -0 -7.16104e-05)
(0 -0 -8.68822e-05)
(0 -0 -0.000104142)
(0 -0 -0.000124277)
(0 -0 -0.00014672)
(0 -0 -0.000171168)
(0 -0 -0.000197429)
(0 -0 -0.000225271)
(0 -0 -0.000254435)
(0 -0 -0.000284638)
(0 -0 -0.000315574)
(0 -0 -0.000346919)
(0 -0 -0.00037834)
(0 -0 -0.000409503)
(0 -0 -0.00044008)
(0 -0 -0.000469752)
(0 -0 -0.000498225)
(0 -0 -0.000525241)
(0 -0 -0.000550639)
(0 -0 -0.000574518)
(0 -0 -0.000597315)
(0 -0 -0.000618679)
(0 -6.04024e-21 -5.52836e-05)
(0 -0 -4.0261e-05)
(0 -0 -5.02498e-05)
(0 -0 -6.14531e-05)
(0 -0 -7.45709e-05)
(0 -0 -8.94122e-05)
(0 -0 -0.000105783)
(0 -0 -0.000123587)
(0 -0 -0.000142685)
(0 -0 -0.000162919)
(0 -0 -0.000184109)
(0 -0 -0.000206055)
(0 -0 -0.000228544)
(0 -0 -0.000251352)
(0 -0 -0.000274249)
(0 -0 -0.000297004)
(0 -0 -0.000319392)
(0 -0 -0.000341198)
(0 -0 -0.000362237)
(0 -0 -0.000382405)
(0 -0 -0.000401845)
(0 -0 -0.000420901)
(0 -0 -0.000439127)
(0 2.8893e-21 -3.44571e-05)
(0 -0 -1.98332e-05)
(0 -0 -2.59638e-05)
(0 -0 -3.32102e-05)
(0 -0 -4.17845e-05)
(0 -0 -5.15531e-05)
(0 -0 -6.24077e-05)
(0 -0 -7.43283e-05)
(0 -0 -8.72504e-05)
(0 -0 -0.000101087)
(0 -0 -0.000115733)
(0 -0 -0.000131069)
(0 -0 -0.000146959)
(0 -0 -0.000163259)
(0 -0 -0.00017982)
(0 -0 -0.000196487)
(0 -0 -0.00021311)
(0 -0 -0.000229541)
(0 -0 -0.000245657)
(0 -0 -0.000261408)
(0 -0 -0.000276987)
(0 -0 -0.000292855)
(0 -0 -0.000308399)
(0 -3.9937e-23 -2.01736e-05)
(0 -0 -6.68007e-06)
(0 -0 -1.03367e-05)
(0 -0 -1.48377e-05)
(0 -0 -2.03314e-05)
(0 -0 -2.6676e-05)
(0 -0 -3.37795e-05)
(0 -0 -4.16526e-05)
(0 -0 -5.02726e-05)
(0 -0 -5.9599e-05)
(0 -0 -6.95774e-05)
(0 -0 -8.01406e-05)
(0 -0 -9.12107e-05)
(0 -0 -0.000102702)
(0 -0 -0.000114523)
(0 -0 -0.000126579)
(0 -0 -0.000138775)
(0 -0 -0.00015102)
(0 -0 -0.00016324)
(0 -0 -0.000175434)
(0 -0 -0.000187833)
(0 -0 -0.000200964)
(0 -0 -0.000214468)
(0 -3.73182e-23 -1.03933e-05)
(0 -0 1.52662e-06)
(0 -0 -5.09673e-07)
(0 -0 -3.17105e-06)
(0 -0 -6.6054e-06)
(0 -0 -1.06664e-05)
(0 -0 -1.52598e-05)
(0 -0 -2.04044e-05)
(0 -0 -2.6097e-05)
(0 -0 -3.23232e-05)
(0 -0 -3.90598e-05)
(0 -0 -4.62745e-05)
(0 -0 -5.39281e-05)
(0 -0 -6.19756e-05)
(0 -0 -7.03679e-05)
(0 -0 -7.90537e-05)
(0 -0 -8.79812e-05)
(0 -0 -9.71017e-05)
(0 -0 -0.000106383)
(0 -0 -0.000115858)
(0 -0 -0.000125789)
(0 -0 -0.00013673)
(0 -0 -0.000148436)
(0 -1.10674e-21 -3.5956e-06)
(0 -0 6.5851e-06)
(0 -0 5.55126e-06)
(0 -0 4.07217e-06)
(0 -0 1.98176e-06)
(0 -0 -5.79966e-07)
(0 -0 -3.5171e-06)
(0 -0 -6.84949e-06)
(0 -0 -1.05823e-05)
(0 -0 -1.47153e-05)
(0 -0 -1.92432e-05)
(0 -0 -2.41561e-05)
(0 -0 -2.94398e-05)
(0 -0 -3.50772e-05)
(0 -0 -4.10492e-05)
(0 -0 -4.73355e-05)
(0 -0 -5.39165e-05)
(0 -0 -6.07755e-05)
(0 -0 -6.79113e-05)
(0 -0 -7.53867e-05)
(0 -0 -8.34804e-05)
(0 -0 -9.27551e-05)
(0 -0 -0.000103023)
(0 2.10376e-21 1.15249e-06)
(0 -0 9.61606e-06)
(0 -0 9.18378e-06)
(0 -0 8.44372e-06)
(0 -0 7.21284e-06)
(0 -0 5.62136e-06)
(0 -0 3.76451e-06)
(0 -0 1.62298e-06)
(0 -0 -8.12761e-07)
(0 -0 -3.54964e-06)
(0 -0 -6.59316e-06)
(0 -0 -9.947e-06)
(0 -0 -1.36134e-05)
(0 -0 -1.75937e-05)
(0 -0 -2.18896e-05)
(0 -0 -2.65032e-05)
(0 -0 -3.14381e-05)
(0 -0 -3.67017e-05)
(0 -0 -4.23165e-05)
(0 -0 -4.83664e-05)
(0 -0 -5.51416e-05)
(0 -0 -6.32011e-05)
(0 -0 -7.23904e-05)
(0 -2.02681e-21 4.43623e-06)
(0 -0 1.13026e-05)
(0 -0 1.12215e-05)
(0 -0 1.09331e-05)
(0 -0 1.0242e-05)
(0 -0 9.26902e-06)
(0 -0 8.10757e-06)
(0 -0 6.73877e-06)
(0 -0 5.15093e-06)
(0 -0 3.33265e-06)
(0 -0 1.27221e-06)
(0 -0 -1.04254e-06)
(0 -0 -3.62427e-06)
(0 -0 -6.48707e-06)
(0 -0 -9.64672e-06)
(0 -0 -1.31211e-05)
(0 -0 -1.69308e-05)
(0 -0 -2.11011e-05)
(0 -0 -2.56721e-05)
(0 -0 -3.07434e-05)
(0 -0 -3.66109e-05)
(0 -0 -4.38243e-05)
(0 -0 -5.22502e-05)
(0 9.3391e-22 6.62671e-06)
(0 -0 1.20648e-05)
(0 -0 1.21837e-05)
(0 -0 1.21674e-05)
(0 -0 1.18116e-05)
(0 -0 1.12283e-05)
(0 -0 1.05089e-05)
(0 -0 9.63492e-06)
(0 -0 8.59328e-06)
(0 -0 7.36997e-06)
(0 -0 5.94941e-06)
(0 -0 4.31423e-06)
(0 -0 2.44486e-06)
(0 -0 3.18817e-07)
(0 -0 -2.0896e-06)
(0 -0 -4.80956e-06)
(0 -0 -7.8739e-06)
(0 -0 -1.1321e-05)
(0 -0 -1.52044e-05)
(0 -0 -1.96349e-05)
(0 -0 -2.49102e-05)
(0 -0 -3.15669e-05)
(0 -0 -3.9487e-05)
(0 -0 7.96402e-06)
(0 -0 1.21666e-05)
(0 -0 1.24002e-05)
(0 -0 1.25494e-05)
(0 -0 1.24027e-05)
(0 -0 1.20641e-05)
(0 -0 1.16227e-05)
(0 -0 1.10608e-05)
(0 -0 1.03644e-05)
(0 -0 9.51836e-06)
(0 -0 8.5047e-06)
(0 -0 7.30281e-06)
(0 -0 5.8886e-06)
(0 -0 4.23389e-06)
(0 -0 2.30599e-06)
(0 -0 6.77135e-08)
(0 -0 -2.52287e-06)
(0 -0 -5.51398e-06)
(0 -0 -8.96909e-06)
(0 -0 -1.3007e-05)
(0 -0 -1.79247e-05)
(0 -0 -2.42435e-05)
(0 -0 -3.18567e-05)
(0 7.62138e-22 8.61553e-06)
(0 -0 1.17861e-05)
(0 -0 1.20939e-05)
(0 -0 1.23499e-05)
(0 -0 1.23374e-05)
(0 -0 1.2153e-05)
(0 -0 1.18839e-05)
(0 -0 1.15137e-05)
(0 -0 1.10287e-05)
(0 -0 1.04132e-05)
(0 -0 9.64859e-06)
(0 -0 8.71211e-06)
(0 -0 7.57673e-06)
(0 -0 6.21033e-06)
(0 -0 4.57533e-06)
(0 -0 2.62865e-06)
(0 -0 3.21474e-07)
(0 -0 -2.40185e-06)
(0 -0 -5.61239e-06)
(0 -0 -9.4345e-06)
(0 -0 -1.41625e-05)
(0 -0 -2.03017e-05)
(0 -0 -2.77538e-05)
(0 -8.06649e-22 8.72242e-06)
(0 -0 1.10679e-05)
(0 -0 1.14379e-05)
(0 -0 1.17709e-05)
(0 -0 1.18468e-05)
(0 -0 1.17573e-05)
(0 -0 1.1589e-05)
(0 -0 1.13281e-05)
(0 -0 1.09624e-05)
(0 -0 1.04772e-05)
(0 -0 9.85343e-06)
(0 -0 9.06764e-06)
(0 -0 8.09079e-06)
(0 -0 6.88795e-06)
(0 -0 5.41787e-06)
(0 -0 3.63292e-06)
(0 -0 1.47906e-06)
(0 -0 -1.10525e-06)
(0 -0 -4.1968e-06)
(0 -0 -7.92391e-06)
(0 -0 -1.25769e-05)
(0 -0 -1.86443e-05)
(0 -0 -2.60351e-05)
(0 -3.63707e-22 8.44235e-06)
(0 -0 1.01643e-05)
(0 -0 1.05961e-05)
(0 -0 1.09842e-05)
(0 -0 1.11112e-05)
(0 -0 1.10681e-05)
(0 -0 1.0944e-05)
(0 -0 1.07297e-05)
(0 -0 1.04157e-05)
(0 -0 9.98889e-06)
(0 -0 9.43065e-06)
(0 -0 8.71685e-06)
(0 -0 7.81708e-06)
(0 -0 6.69415e-06)
(0 -0 5.30377e-06)
(0 -0 3.59458e-06)
(0 -0 1.50837e-06)
(0 -0 -1.02105e-06)
(0 -0 -4.075e-06)
(0 -0 -7.78451e-06)
(0 -0 -1.24349e-05)
(0 -0 -1.8498e-05)
(0 -0 -2.58886e-05)
(0 3.60763e-22 7.99156e-06)
(0 -0 9.26534e-06)
(0 -0 9.74208e-06)
(0 -0 1.01459e-05)
(0 -0 1.02733e-05)
(0 -0 1.0222e-05)
(0 -0 1.00867e-05)
(0 -0 9.86429e-06)
(0 -0 9.54834e-06)
(0 -0 9.12671e-06)
(0 -0 8.58087e-06)
(0 -0 7.88585e-06)
(0 -0 7.00958e-06)
(0 -0 5.9126e-06)
(0 -0 4.54785e-06)
(0 -0 2.86077e-06)
(0 -0 7.89591e-07)
(0 -0 -1.73562e-06)
(0 -0 -4.79987e-06)
(0 -0 -8.53579e-06)
(0 -0 -1.32232e-05)
(0 -0 -1.93171e-05)
(0 -0 -2.67371e-05)
(0 -1.86626e-23 7.67929e-06)
(0 -0 8.60429e-06)
(0 -0 9.04673e-06)
(0 -0 9.3775e-06)
(0 -0 9.42345e-06)
(0 -0 9.29389e-06)
(0 -0 9.08923e-06)
(0 -0 8.80983e-06)
(0 -0 8.44963e-06)
(0 -0 7.99552e-06)
(0 -0 7.42734e-06)
(0 -0 6.71806e-06)
(0 -0 5.83328e-06)
(0 -0 4.73101e-06)
(0 -0 3.36139e-06)
(0 -0 1.66703e-06)
(0 -0 -4.16915e-07)
(0 -0 -2.9635e-06)
(0 -0 -6.06047e-06)
(0 -0 -9.84132e-06)
(0 -0 -1.45798e-05)
(0 -0 -2.07146e-05)
(0 -0 -2.81683e-05)
(0 -1.37884e-22 7.90839e-06)
(0 -0 8.39786e-06)
(0 -0 8.60179e-06)
(0 -0 8.70241e-06)
(0 -0 8.55718e-06)
(0 -0 8.27585e-06)
(0 -0 7.95255e-06)
(0 -0 7.5821e-06)
(0 -0 7.15291e-06)
(0 -0 6.64699e-06)
(0 -0 6.04024e-06)
(0 -0 5.30211e-06)
(0 -0 4.39518e-06)
(0 -0 3.27466e-06)
(0 -0 1.88812e-06)
(0 -0 1.75586e-07)
(0 -0 -1.93027e-06)
(0 -0 -4.5049e-06)
(0 -0 -7.63796e-06)
(0 -0 -1.14631e-05)
(0 -0 -1.62477e-05)
(0 -0 -2.2414e-05)
(0 -0 -2.9885e-05)
(0 1.21187e-22 9.03082e-06)
(0 -0 8.65885e-06)
(0 -0 8.249e-06)
(0 -0 7.94445e-06)
(0 -0 7.52886e-06)
(0 -0 7.06318e-06)
(0 -0 6.61067e-06)
(0 -0 6.1483e-06)
(0 -0 5.65292e-06)
(0 -0 5.09894e-06)
(0 -0 4.45703e-06)
(0 -0 3.69278e-06)
(0 -0 2.76579e-06)
(0 -0 1.62878e-06)
(0 -0 2.27265e-07)
(0 -0 -1.5006e-06)
(0 -0 -3.62388e-06)
(0 -0 -6.21956e-06)
(0 -0 -9.37836e-06)
(0 -0 -1.32333e-05)
(0 -0 -1.80453e-05)
(0 -0 -2.42214e-05)
(0 -0 -3.16785e-05)
(0 -1.49145e-23 1.087e-05)
(0 -0 8.58834e-06)
(0 -0 7.43956e-06)
(0 -0 6.6779e-06)
(0 -0 6.07156e-06)
(0 -0 5.49466e-06)
(0 -0 4.97078e-06)
(0 -0 4.46108e-06)
(0 -0 3.93369e-06)
(0 -0 3.35804e-06)
(0 -0 2.70154e-06)
(0 -0 1.92762e-06)
(0 -0 9.94163e-07)
(0 -0 -1.47339e-07)
(0 -0 -1.55241e-06)
(0 -0 -3.28372e-06)
(0 -0 -5.41106e-06)
(0 -0 -8.01192e-06)
(0 -0 -1.11771e-05)
(0 -0 -1.50381e-05)
(0 -0 -1.98505e-05)
(0 -0 -2.60107e-05)
(0 -0 -3.34326e-05)
(-7.43365e-22 9.28671e-21 0.00023014)
(2.07778e-21 -7.92663e-21 0.000213682)
(6.89912e-22 -9.88712e-21 0.000211924)
(-2.42519e-20 3.24225e-19 0.000196679)
(1.5838e-21 -1.80848e-20 0.000178889)
(1.62167e-21 -1.72186e-21 0.00014247)
(-3.48551e-20 5.97816e-19 2.42736e-05)
(7.2846e-20 -1.21514e-18 -0.000396022)
(4.01031e-21 -2.41254e-20 -0.0012997)
(-7.83985e-22 1.03453e-20 0.000192518)
(4.06109e-20 -5.82017e-19 0.00017896)
(4.07986e-20 -5.97672e-19 0.000163587)
(1.30284e-21 1.60013e-21 0.000132164)
(7.20596e-20 -1.24637e-18 3.02858e-05)
(-6.87025e-20 1.25442e-18 -0.000331979)
(-6.60625e-20 1.24796e-18 -0.00112628)
(5.79937e-21 -8.30631e-20 0.000173773)
(-1.96287e-20 3.0301e-19 0.0001615)
(-7.3858e-20 1.17268e-18 0.000147808)
(-3.83028e-20 6.20655e-19 0.000120318)
(-3.17739e-20 6.16839e-19 3.18297e-05)
(1.24993e-19 -2.44332e-18 -0.000280875)
(1.20148e-19 -2.53632e-18 -0.000977911)
(-5.42274e-21 8.26157e-20 0.00015585)
(-1.08816e-21 1.05791e-20 0.000144647)
(3.49561e-20 -6.11539e-19 0.000132222)
(6.99458e-20 -1.21962e-18 0.000107657)
(-1.39915e-21 -3.72804e-21 3.04664e-05)
(-2.6707e-20 6.32387e-19 -0.000239194)
(-5.22494e-20 1.24807e-18 -0.00084919)
(-4.37684e-21 6.39011e-20 0.00013896)
(-1.70497e-21 2.82583e-20 0.000128508)
(1.94572e-20 -3.16872e-19 0.000117002)
(-6.45231e-20 1.19507e-18 9.49666e-05)
(1.04118e-21 6.90088e-22 2.76567e-05)
(-3.06328e-20 6.30428e-19 -0.000204209)
(-1.93106e-21 -1.72524e-20 -0.000736196)
(8.49777e-21 -1.37166e-19 0.000123123)
(5.07815e-22 -9.83197e-21 0.000113303)
(-1.52138e-20 2.79928e-19 0.000102576)
(6.06485e-20 -1.19242e-18 8.27893e-05)
(-2.9624e-20 5.96467e-19 2.42528e-05)
(-3.18295e-20 6.44798e-19 -0.000174259)
(-2.03325e-22 -1.76825e-20 -0.000636251)
(-4.21592e-21 7.32262e-20 0.000108329)
(2.20022e-22 8.91417e-23 9.91032e-05)
(-4.62788e-22 -9.53208e-22 8.91007e-05)
(-2.81909e-20 5.9606e-19 7.13669e-05)
(2.91531e-20 -6.14774e-19 2.06914e-05)
(5.2166e-20 -1.18701e-18 -0.000148322)
(2.57334e-20 -6.096e-19 -0.000547471)
(-6.18358e-22 8.96829e-21 9.45496e-05)
(-8.3453e-21 1.55841e-19 8.591e-05)
(5.24982e-23 2.46156e-22 7.66231e-05)
(-1.34354e-21 -7.19749e-22 6.08072e-05)
(-2.49224e-20 5.74053e-19 1.72173e-05)
(-4.83602e-20 1.21617e-18 -0.000125689)
(-4.62214e-20 1.19083e-18 -0.000468403)
(4.71611e-22 -8.98359e-21 8.16943e-05)
(6.88723e-21 -1.37724e-19 7.36678e-05)
(-3.62474e-22 2.52621e-22 6.51187e-05)
(1.35526e-20 -2.94111e-19 5.11269e-05)
(2.50978e-20 -5.94685e-19 1.3948e-05)
(-2.53463e-21 1.82214e-20 -0.00010586)
(4.33996e-20 -1.21728e-18 -0.000397899)
(1.13592e-24 1.42272e-22 6.96735e-05)
(6.58273e-21 -1.27674e-19 6.23011e-05)
(1.37987e-20 -2.93951e-19 5.45265e-05)
(-1.11581e-20 2.5787e-19 4.22864e-05)
(-6.24194e-22 3.81472e-20 1.09191e-05)
(2.2373e-20 -5.94864e-19 -8.84742e-05)
(-1.86825e-20 5.76355e-19 -0.000335026)
(4.88625e-22 -9.34613e-21 5.84622e-05)
(-8.24679e-21 1.7374e-19 5.17483e-05)
(-1.22423e-20 2.75683e-19 4.47687e-05)
(-7.75695e-22 1.87583e-20 3.42126e-05)
(6.89566e-22 -1.75401e-20 8.11456e-06)
(2.31318e-20 -5.89437e-19 -7.32673e-05)
(-1.5897e-22 -7.89353e-22 -0.000279001)
(-2.1764e-21 4.56046e-20 4.79323e-05)
(2.53945e-22 -9.06843e-21 4.18892e-05)
(4.26163e-22 -1.866e-20 3.57304e-05)
(-1.2338e-20 2.92925e-19 2.68024e-05)
(7.74761e-25 -9.53518e-22 5.48566e-06)
(-3.22099e-20 9.17046e-19 -6.00334e-05)
(-1.86385e-20 5.69255e-19 -0.000229154)
(2.0954e-21 -4.56967e-20 3.79105e-05)
(-1.16865e-21 2.73876e-20 3.25745e-05)
(-7.42601e-23 7.53961e-22 2.7279e-05)
(2.40756e-20 -6.21988e-19 1.99426e-05)
(-7.01346e-22 1.82922e-20 2.97716e-06)
(1.81752e-20 -5.65098e-19 -4.85924e-05)
(1.78933e-20 -6.02989e-19 -0.000184875)
(-3.59016e-22 9.13339e-21 2.82374e-05)
(-3.72585e-22 9.30431e-21 2.3662e-05)
(5.96136e-21 -1.46291e-19 1.92933e-05)
(-1.03683e-20 2.92331e-19 1.35403e-05)
(7.9535e-22 -1.82773e-20 5.60666e-07)
(-9.75978e-21 3.09678e-19 -3.87506e-05)
(1.00803e-20 -3.07202e-19 -0.000145576)
(3.64058e-22 -9.13711e-21 1.87541e-05)
(-3.37575e-22 8.87161e-21 1.5031e-05)
(-1.04398e-20 2.73803e-19 1.16931e-05)
(-3.72443e-22 6.57464e-23 7.56214e-06)
(-5.62853e-21 1.63622e-19 -1.71939e-06)
(9.24151e-21 -3.07367e-19 -3.02486e-05)
(-8.55383e-21 3.05994e-19 -0.000110636)
(3.83726e-22 -9.20228e-21 9.34169e-06)
(-2.44312e-21 6.40016e-20 6.63099e-06)
(5.29962e-21 -1.45956e-19 4.49653e-06)
(6.45665e-22 -1.80144e-20 2.09837e-06)
(9.25741e-21 -2.90078e-19 -3.6771e-06)
(-8.94214e-21 3.06239e-19 -2.26932e-05)
(2.08271e-23 -1.75209e-20 -7.93427e-05)
(-7.01544e-22 1.82537e-20 1.36888e-09)
(-3.19333e-22 9.03246e-21 -1.43227e-06)
(-2.41676e-21 7.28373e-20 -2.08956e-06)
(6.90939e-23 -5.62215e-23 -2.54107e-06)
(-4.19439e-21 1.44636e-19 -4.88895e-06)
(2.88601e-22 -1.7629e-20 -1.54748e-05)
(3.78043e-21 -1.42091e-19 -5.08349e-05)
(3.4632e-22 -9.12263e-21 -9.02129e-06)
(6.72634e-22 -1.82459e-20 -8.74568e-06)
(3.07017e-21 -9.11479e-20 -7.53834e-06)
(-6.20557e-22 1.80118e-20 -5.69402e-06)
(-1.19327e-21 3.5904e-20 -4.57004e-06)
(-2.41279e-21 8.90982e-20 -7.6838e-06)
(-3.04685e-21 1.23984e-19 -2.40307e-05)
(-3.18731e-22 9.1631e-21 -1.70431e-05)
(9.80785e-22 -2.73998e-20 -1.44889e-05)
(-5.05571e-22 1.82149e-20 -1.07616e-05)
(1.0905e-21 -3.61557e-20 -6.18182e-06)
(4.84959e-22 -1.79813e-20 -1.42643e-06)
(1.38657e-21 -5.34037e-20 1.90188e-06)
(3.2485e-22 -1.76086e-20 2.49851e-06)
(-2.58716e-20 2.85991e-19 0.000266649)
(-8.09818e-22 9.66307e-21 0.000247402)
(9.17677e-22 -2.07674e-20 0.000441061)
(-1.27097e-19 1.23769e-18 0.000331149)
(5.80929e-20 -6.0975e-19 0.000307409)
(-8.94076e-22 -8.56905e-22 0.000284521)
(1.403e-21 -1.8462e-20 0.00026327)
(-2.41593e-21 2.74581e-20 0.000243721)
(7.56017e-22 -9.09772e-21 0.000226898)
(1.19531e-19 -1.22214e-18 0.000388155)
(1.0978e-19 -1.17501e-18 0.00029658)
(-5.31897e-20 5.72875e-19 0.0002767)
(-7.2407e-22 -2.70246e-22 0.000257441)
(-5.00912e-20 5.84865e-19 0.000238954)
(-2.48481e-20 3.02295e-19 0.000222212)
(-6.05642e-22 9.57995e-21 0.0002071)
(-2.23546e-19 2.37762e-18 0.000340025)
(-2.16986e-19 2.39732e-18 0.000264421)
(-6.67433e-22 2.89359e-21 0.000248222)
(4.81246e-20 -5.66194e-19 0.000232024)
(9.61931e-20 -1.18908e-18 0.000216177)
(4.45927e-20 -5.77646e-19 0.000201084)
(-4.71337e-21 6.33007e-20 0.000186904)
(1.07702e-19 -1.19368e-18 0.000296328)
(5.06972e-20 -5.76599e-19 0.000234658)
(4.07556e-23 -1.83457e-21 0.000221668)
(-9.35401e-20 1.15269e-18 0.000208159)
(-4.29975e-20 5.68194e-19 0.00019441)
(-2.1982e-20 3.02627e-19 0.000180862)
(4.42284e-21 -6.38771e-20 0.00016793)
(2.45476e-21 -1.78468e-20 0.000256924)
(4.8664e-20 -5.7148e-19 0.000207179)
(-4.78727e-22 6.63984e-22 0.000196952)
(9.00352e-20 -1.16979e-18 0.000185811)
(-2.09e-20 2.71928e-19 0.000173994)
(-2.39716e-21 2.77441e-20 0.000161947)
(5.77551e-21 -8.21803e-20 0.00015016)
(1.81599e-21 -1.79819e-20 0.000221477)
(4.39079e-20 -5.48937e-19 0.000181899)
(4.4314e-20 -5.85672e-19 0.000174034)
(-8.59525e-20 1.16719e-18 0.000164963)
(2.2159e-20 -3.09004e-19 0.000154887)
(5.68476e-22 -9.67545e-21 0.000144229)
(-1.00585e-20 1.55409e-19 0.000133519)
(-4.56018e-20 5.85051e-19 0.000189627)
(-9.05559e-20 1.18727e-18 0.000158677)
(-4.23518e-20 5.6759e-19 0.000152824)
(8.17373e-20 -1.16473e-18 0.000145543)
(3.4521e-22 -1.03039e-21 0.000137026)
(-1.29139e-22 8.54725e-23 0.000127657)
(4.44078e-21 -7.32089e-20 0.00011796)
(8.90317e-20 -1.18428e-18 0.000161036)
(8.26603e-20 -1.14677e-18 0.000137368)
(4.117e-20 -6.00571e-19 0.000133216)
(-3.90402e-20 5.81831e-19 0.000127469)
(-4.24165e-23 5.93981e-22 0.000120341)
(8.43464e-21 -1.36411e-19 0.000112204)
(-4.70072e-22 8.96121e-21 0.000103456)
(-4.1064e-20 5.62632e-19 0.000135392)
(-2.05218e-21 1.91898e-20 0.000117823)
(-3.95127e-20 5.8061e-19 0.000115119)
(-1.91832e-20 2.90334e-19 0.000110733)
(2.29857e-22 7.59918e-23 0.000104783)
(-9.14087e-21 1.54869e-19 9.77208e-05)
(5.21955e-22 -8.93985e-21 8.98697e-05)
(3.99437e-20 -5.95141e-19 0.000112403)
(-3.93032e-20 5.78076e-19 9.98956e-05)
(-2.75062e-21 3.66898e-20 9.84245e-05)
(2.04877e-20 -3.26568e-19 9.5231e-05)
(-1.72873e-20 2.89627e-19 9.02909e-05)
(-9.48978e-21 1.6371e-19 8.41121e-05)
(1.60226e-24 1.41068e-22 7.71029e-05)
(-1.40226e-21 7.10102e-22 9.17912e-05)
(-3.67749e-20 5.75149e-19 8.34146e-05)
(1.07906e-21 -1.78082e-20 8.29329e-05)
(-1.01965e-21 1.83011e-20 8.07088e-05)
(1.78027e-20 -3.08499e-19 7.67422e-05)
(6.51364e-21 -1.18579e-19 7.14093e-05)
(4.65928e-22 -9.19556e-21 6.51832e-05)
(-3.00243e-22 -1.65762e-20 7.32963e-05)
(5.10659e-20 -8.24725e-19 6.82246e-05)
(5.42483e-23 -1.56482e-22 6.85237e-05)
(1.65401e-20 -2.88609e-19 6.70866e-05)
(1.25893e-21 -1.82459e-20 6.39761e-05)
(6.46308e-22 -9.08119e-21 5.94575e-05)
(1.36199e-21 -2.73504e-20 5.39695e-05)
(-3.42509e-20 5.50725e-19 5.66763e-05)
(-3.4556e-20 5.895e-19 5.41753e-05)
(-1.01753e-21 1.7897e-20 5.50573e-05)
(-2.97764e-20 5.41044e-19 5.42916e-05)
(5.62515e-23 1.95464e-22 5.1864e-05)
(-5.03956e-21 9.9825e-20 4.80473e-05)
(-1.32257e-21 2.749e-20 4.32569e-05)
(-1.53926e-20 2.64879e-19 4.16796e-05)
(1.53115e-20 -2.67105e-19 4.10998e-05)
(9.13587e-22 -1.78746e-20 4.23627e-05)
(1.52247e-20 -2.88558e-19 4.20911e-05)
(-7.40791e-21 1.44486e-19 4.02001e-05)
(3.08209e-21 -6.36137e-20 3.69969e-05)
(-4.51267e-22 9.0479e-21 3.28744e-05)
(1.5095e-20 -2.63973e-19 2.80086e-05)
(-1.41299e-20 2.65751e-19 2.86989e-05)
(6.5521e-21 -1.2486e-19 3.01168e-05)
(1.79058e-22 1.6253e-22 3.01492e-05)
(1.5036e-20 -3.07461e-19 2.87042e-05)
(-3.75411e-22 8.92256e-21 2.60738e-05)
(-4.06159e-22 9.1148e-21 2.26272e-05)
(1.00486e-21 -1.7432e-20 1.5283e-05)
(1.4088e-20 -2.65376e-19 1.65673e-05)
(-1.44652e-20 2.85172e-19 1.79244e-05)
(8.58535e-22 -1.79581e-20 1.81156e-05)
(-6.83368e-21 1.44716e-19 1.70679e-05)
(3.68039e-22 -8.96867e-21 1.50266e-05)
(1.19489e-21 -2.73457e-20 1.2328e-05)
(-7.09132e-21 1.39164e-19 2.86072e-06)
(9.36115e-22 -1.75405e-20 4.07666e-06)
(1.03595e-20 -2.13554e-19 5.20316e-06)
(-1.55356e-23 -6.71752e-23 5.53239e-06)
(3.1055e-21 -7.22601e-20 4.94634e-06)
(-4.67572e-22 9.09246e-21 3.62868e-06)
(6.90491e-24 -5.91169e-24 1.86463e-06)
(7.88584e-21 -1.56005e-19 -1.05931e-05)
(2.48419e-21 -5.26507e-20 -9.92964e-06)
(-3.32289e-21 7.10399e-20 -8.90118e-06)
(-8.03454e-22 1.79477e-20 -8.12161e-06)
(-8.14527e-22 1.81659e-20 -7.91563e-06)
(-8.04445e-22 1.82207e-20 -8.17813e-06)
(-3.6613e-22 9.14183e-21 -8.65889e-06)
(8.33308e-22 -1.72675e-20 -2.86569e-05)
(-4.13887e-21 8.74753e-20 -2.7108e-05)
(-8.03307e-22 1.77512e-20 -2.49396e-05)
(1.54883e-21 -3.58215e-20 -2.2965e-05)
(-2.32031e-21 5.4173e-20 -2.13684e-05)
(-3.96722e-22 9.10927e-21 -2.00685e-05)
(-3.62382e-22 9.11321e-21 -1.87304e-05)
(0 -0 3.72056e-06)
(0 -0 4.45541e-06)
(0 -0 5.25308e-06)
(0 -0 5.62729e-06)
(0 -0 5.75053e-06)
(0 -0 5.86259e-06)
(0 -0 5.96172e-06)
(0 -0 6.04431e-06)
(0 -0 6.10443e-06)
(0 -0 6.13471e-06)
(0 -0 6.12673e-06)
(0 -0 6.0712e-06)
(0 -0 5.95842e-06)
(0 -0 5.7783e-06)
(0 -0 5.52062e-06)
(0 -0 5.17555e-06)
(0 -0 4.73418e-06)
(0 -0 4.18887e-06)
(0 -0 3.53397e-06)
(0 -0 2.7661e-06)
(0 -0 1.88499e-06)
(0 -0 8.93641e-07)
(0 -0 -2.01661e-07)
(0 -0 -1.39175e-06)
(0 -0 -2.66783e-06)
(0 -0 -4.03248e-06)
(0 -0 -5.53862e-06)
(0 -0 -7.42883e-06)
(0 -0 -1.06396e-05)
(0 -0 -1.86473e-05)
(0 -0 -4.42939e-05)
(0 -0 -0.000135255)
(0 -0 -0.000469924)
(0 1.97371e-23 -0.00179874)
(0 -0 3.78473e-06)
(0 -0 4.62257e-06)
(0 -0 5.64477e-06)
(0 -0 6.09424e-06)
(0 -0 6.27595e-06)
(0 -0 6.44132e-06)
(0 -0 6.58955e-06)
(0 -0 6.71866e-06)
(0 -0 6.82447e-06)
(0 -0 6.90126e-06)
(0 -0 6.94207e-06)
(0 -0 6.93888e-06)
(0 -0 6.88305e-06)
(0 -0 6.76561e-06)
(0 -0 6.57747e-06)
(0 -0 6.30971e-06)
(0 -0 5.95418e-06)
(0 -0 5.5038e-06)
(0 -0 4.95308e-06)
(0 -0 4.29864e-06)
(0 -0 3.53977e-06)
(0 -0 2.67861e-06)
(0 -0 1.72014e-06)
(0 -0 6.71814e-07)
(0 -0 -4.59476e-07)
(0 -0 -1.6769e-06)
(0 -0 -3.02849e-06)
(0 -0 -4.73175e-06)
(0 -0 -7.62429e-06)
(0 -0 -1.48131e-05)
(0 -0 -3.77637e-05)
(0 -0 -0.000118979)
(0 -0 -0.000417107)
(0 1.04836e-21 -0.00159452)
(0 -0 3.56031e-06)
(0 -0 4.561e-06)
(0 -0 5.59176e-06)
(0 -0 6.05042e-06)
(0 -0 6.2519e-06)
(0 -0 6.44429e-06)
(0 -0 6.6227e-06)
(0 -0 6.78369e-06)
(0 -0 6.92291e-06)
(0 -0 7.03501e-06)
(0 -0 7.1137e-06)
(0 -0 7.15183e-06)
(0 -0 7.14168e-06)
(0 -0 7.07514e-06)
(0 -0 6.944e-06)
(0 -0 6.74024e-06)
(0 -0 6.45638e-06)
(0 -0 6.08593e-06)
(0 -0 5.62378e-06)
(0 -0 5.06672e-06)
(0 -0 4.41371e-06)
(0 -0 3.6663e-06)
(0 -0 2.82865e-06)
(0 -0 1.90695e-06)
(0 -0 9.06991e-07)
(0 -0 -1.74467e-07)
(0 -0 -1.38083e-06)
(0 -0 -2.90664e-06)
(0 -0 -5.49999e-06)
(0 -0 -1.19333e-05)
(0 -0 -3.24259e-05)
(0 -0 -0.000104799)
(0 -0 -0.000369915)
(0 -1.95378e-21 -0.00141096)
(0 -0 3.157e-06)
(0 -0 4.15434e-06)
(0 -0 5.17892e-06)
(0 -0 5.63432e-06)
(0 -0 5.839e-06)
(0 -0 6.04182e-06)
(0 -0 6.23571e-06)
(0 -0 6.41583e-06)
(0 -0 6.57723e-06)
(0 -0 6.71437e-06)
(0 -0 6.82115e-06)
(0 -0 6.89092e-06)
(0 -0 6.91652e-06)
(0 -0 6.89056e-06)
(0 -0 6.80556e-06)
(0 -0 6.65421e-06)
(0 -0 6.42965e-06)
(0 -0 6.12595e-06)
(0 -0 5.73833e-06)
(0 -0 5.26382e-06)
(0 -0 4.70131e-06)
(0 -0 4.05195e-06)
(0 -0 3.31934e-06)
(0 -0 2.5088e-06)
(0 -0 1.62542e-06)
(0 -0 6.6613e-07)
(0 -0 -4.07844e-07)
(0 -0 -1.76996e-06)
(0 -0 -4.08696e-06)
(0 -0 -9.82764e-06)
(0 -0 -2.80806e-05)
(0 -0 -9.24221e-05)
(0 -0 -0.000327617)
(0 9.40731e-22 -0.00124586)
(0 -0 2.56356e-06)
(0 -0 3.57056e-06)
(0 -0 4.60251e-06)
(0 -0 5.06082e-06)
(0 -0 5.2693e-06)
(0 -0 5.48021e-06)
(0 -0 5.68627e-06)
(0 -0 5.88224e-06)
(0 -0 6.06284e-06)
(0 -0 6.22245e-06)
(0 -0 6.35505e-06)
(0 -0 6.45424e-06)
(0 -0 6.51334e-06)
(0 -0 6.52545e-06)
(0 -0 6.48369e-06)
(0 -0 6.38122e-06)
(0 -0 6.21177e-06)
(0 -0 5.96984e-06)
(0 -0 5.651e-06)
(0 -0 5.25235e-06)
(0 -0 4.77282e-06)
(0 -0 4.21331e-06)
(0 -0 3.57691e-06)
(0 -0 2.86828e-06)
(0 -0 2.09198e-06)
(0 -0 1.24528e-06)
(0 -0 2.93796e-07)
(0 -0 -9.16739e-07)
(0 -0 -2.97887e-06)
(0 -0 -8.08532e-06)
(0 -0 -2.4297e-05)
(0 -0 -8.13369e-05)
(0 -0 -0.000289384)
(0 1.40793e-23 -0.00109688)
(0 -0 1.82193e-06)
(0 -0 2.84764e-06)
(0 -0 3.89715e-06)
(0 -0 4.36717e-06)
(0 -0 4.58579e-06)
(0 -0 4.80895e-06)
(0 -0 5.02997e-06)
(0 -0 5.24382e-06)
(0 -0 5.44535e-06)
(0 -0 5.62906e-06)
(0 -0 5.78914e-06)
(0 -0 5.91944e-06)
(0 -0 6.01367e-06)
(0 -0 6.0653e-06)
(0 -0 6.06787e-06)
(0 -0 6.01503e-06)
(0 -0 5.90092e-06)
(0 -0 5.72031e-06)
(0 -0 5.46911e-06)
(0 -0 5.14451e-06)
(0 -0 4.74532e-06)
(0 -0 4.27222e-06)
(0 -0 3.72785e-06)
(0 -0 3.11631e-06)
(0 -0 2.44165e-06)
(0 -0 1.70158e-06)
(0 -0 8.65747e-07)
(0 -0 -2.02554e-07)
(0 -0 -2.02836e-06)
(0 -0 -6.55279e-06)
(0 -0 -2.09014e-05)
(0 -0 -7.12948e-05)
(0 -0 -0.000254683)
(0 1.28566e-23 -0.000962236)
(0 -0 9.07262e-07)
(0 -0 1.95622e-06)
(0 -0 3.02959e-06)
(0 -0 3.51848e-06)
(0 -0 3.75401e-06)
(0 -0 3.99526e-06)
(0 -0 4.23615e-06)
(0 -0 4.47213e-06)
(0 -0 4.69844e-06)
(0 -0 4.90986e-06)
(0 -0 5.10088e-06)
(0 -0 5.26571e-06)
(0 -0 5.39833e-06)
(0 -0 5.49263e-06)
(0 -0 5.54247e-06)
(0 -0 5.54192e-06)
(0 -0 5.48544e-06)
(0 -0 5.36805e-06)
(0 -0 5.18581e-06)
(0 -0 4.93599e-06)
(0 -0 4.61724e-06)
(0 -0 4.23e-06)
(0 -0 3.77639e-06)
(0 -0 3.26008e-06)
(0 -0 2.68462e-06)
(0 -0 2.04804e-06)
(0 -0 1.32366e-06)
(0 -0 3.90974e-07)
(0 -0 -1.21358e-06)
(0 -0 -5.20162e-06)
(0 -0 -1.78462e-05)
(0 -0 -6.21809e-05)
(0 -0 -0.000223149)
(0 -3.23576e-22 -0.000840443)
(0 -0 -2.10455e-07)
(0 -0 8.64972e-07)
(0 -0 1.96657e-06)
(0 -0 2.4801e-06)
(0 -0 2.7388e-06)
(0 -0 3.00422e-06)
(0 -0 3.27074e-06)
(0 -0 3.53436e-06)
(0 -0 3.79067e-06)
(0 -0 4.03489e-06)
(0 -0 4.26179e-06)
(0 -0 4.46601e-06)
(0 -0 4.64182e-06)
(0 -0 4.78351e-06)
(0 -0 4.88528e-06)
(0 -0 4.94148e-06)
(0 -0 4.94681e-06)
(0 -0 4.89658e-06)
(0 -0 4.78688e-06)
(0 -0 4.61493e-06)
(0 -0 4.37919e-06)
(0 -0 4.07987e-06)
(0 -0 3.7186e-06)
(0 -0 3.29846e-06)
(0 -0 2.8225e-06)
(0 -0 2.28909e-06)
(0 -0 1.67479e-06)
(0 -0 8.73838e-07)
(0 -0 -5.21016e-07)
(0 -0 -4.01195e-06)
(0 -0 -1.50941e-05)
(0 -0 -5.38985e-05)
(0 -0 -0.000194462)
(0 6.23943e-22 -0.00073019)
(0 -0 -1.56368e-06)
(0 -0 -4.58891e-07)
(0 -0 6.74525e-07)
(0 -0 1.21754e-06)
(0 -0 1.50498e-06)
(0 -0 1.80037e-06)
(0 -0 2.0985e-06)
(0 -0 2.39572e-06)
(0 -0 2.68803e-06)
(0 -0 2.97095e-06)
(0 -0 3.23973e-06)
(0 -0 3.48929e-06)
(0 -0 3.71435e-06)
(0 -0 3.90945e-06)
(0 -0 4.0691e-06)
(0 -0 4.188e-06)
(0 -0 4.26104e-06)
(0 -0 4.28363e-06)
(0 -0 4.25188e-06)
(0 -0 4.16288e-06)
(0 -0 4.01501e-06)
(0 -0 3.80799e-06)
(0 -0 3.54298e-06)
(0 -0 3.2224e-06)
(0 -0 2.84882e-06)
(0 -0 2.4208e-06)
(0 -0 1.91791e-06)
(0 -0 1.24753e-06)
(0 -0 5.3987e-08)
(0 -0 -2.97328e-06)
(0 -0 -1.26189e-05)
(0 -0 -4.63686e-05)
(0 -0 -0.000168345)
(0 -2.80327e-22 -0.000630325)
(0 -0 -3.18453e-06)
(0 -0 -2.04756e-06)
(0 -0 -8.79107e-07)
(0 -0 -3.02354e-07)
(0 -0 1.88428e-08)
(0 -0 3.49687e-07)
(0 -0 6.85215e-07)
(0 -0 1.02202e-06)
(0 -0 1.35648e-06)
(0 -0 1.68448e-06)
(0 -0 2.00168e-06)
(0 -0 2.30328e-06)
(0 -0 2.58435e-06)
(0 -0 2.83978e-06)
(0 -0 3.06437e-06)
(0 -0 3.25303e-06)
(0 -0 3.40085e-06)
(0 -0 3.50327e-06)
(0 -0 3.55642e-06)
(0 -0 3.55721e-06)
(0 -0 3.50378e-06)
(0 -0 3.3953e-06)
(0 -0 3.23246e-06)
(0 -0 3.01695e-06)
(0 -0 2.75086e-06)
(0 -0 2.43271e-06)
(0 -0 2.04464e-06)
(0 -0 1.50611e-06)
(0 -0 5.08559e-07)
(0 -0 -2.08319e-06)
(0 -0 -1.04046e-05)
(0 -0 -3.95284e-05)
(0 -0 -0.000144559)
(0 2.39932e-22 -0.000539828)
(0 -0 -5.10183e-06)
(0 -0 -3.9301e-06)
(0 -0 -2.72372e-06)
(0 -0 -2.10937e-06)
(0 -0 -1.74985e-06)
(0 -0 -1.37854e-06)
(0 -0 -1.00026e-06)
(0 -0 -6.18089e-07)
(0 -0 -2.3536e-07)
(0 -0 1.4418e-07)
(0 -0 5.1645e-07)
(0 -0 8.77064e-07)
(0 -0 1.22136e-06)
(0 -0 1.54456e-06)
(0 -0 1.84177e-06)
(0 -0 2.10799e-06)
(0 -0 2.33848e-06)
(0 -0 2.52878e-06)
(0 -0 2.67488e-06)
(0 -0 2.77351e-06)
(0 -0 2.82234e-06)
(0 -0 2.82011e-06)
(0 -0 2.76691e-06)
(0 -0 2.66376e-06)
(0 -0 2.51194e-06)
(0 -0 2.30989e-06)
(0 -0 2.04194e-06)
(0 -0 1.63865e-06)
(0 -0 8.34432e-07)
(0 -0 -1.34547e-06)
(0 -0 -8.44284e-06)
(0 -0 -3.33281e-05)
(0 -0 -0.000122898)
(0 -2.66064e-23 -0.000457787)
(0 -0 -7.33866e-06)
(0 -0 -6.13003e-06)
(0 -0 -4.88326e-06)
(0 -0 -4.2279e-06)
(0 -0 -3.82598e-06)
(0 -0 -3.40973e-06)
(0 -0 -2.98374e-06)
(0 -0 -2.5508e-06)
(0 -0 -2.11399e-06)
(0 -0 -1.67673e-06)
(0 -0 -1.24284e-06)
(0 -0 -8.16309e-07)
(0 -0 -4.01463e-07)
(0 -0 -2.88434e-09)
(0 -0 3.74759e-07)
(0 -0 7.26728e-07)
(0 -0 1.04833e-06)
(0 -0 1.33511e-06)
(0 -0 1.58284e-06)
(0 -0 1.78805e-06)
(0 -0 1.94792e-06)
(0 -0 2.06079e-06)
(0 -0 2.12586e-06)
(0 -0 2.14344e-06)
(0 -0 2.114e-06)
(0 -0 2.0357e-06)
(0 -0 1.89477e-06)
(0 -0 1.63169e-06)
(0 -0 1.0201e-06)
(0 -0 -7.67849e-07)
(0 -0 -6.73075e-06)
(0 -0 -2.77284e-05)
(0 -0 -0.000103183)
(0 -1.85242e-23 -0.000383406)
(0 -0 -9.91046e-06)
(0 -0 -8.66333e-06)
(0 -0 -7.37419e-06)
(0 -0 -6.67495e-06)
(0 -0 -6.22713e-06)
(0 -0 -5.76197e-06)
(0 -0 -5.28382e-06)
(0 -0 -4.79525e-06)
(0 -0 -4.29907e-06)
(0 -0 -3.79837e-06)
(0 -0 -3.2966e-06)
(0 -0 -2.79753e-06)
(0 -0 -2.30517e-06)
(0 -0 -1.82379e-06)
(0 -0 -1.35787e-06)
(0 -0 -9.11964e-07)
(0 -0 -4.90739e-07)
(0 -0 -9.87886e-08)
(0 -0 2.59559e-07)
(0 -0 5.80543e-07)
(0 -0 8.60865e-07)
(0 -0 1.09814e-06)
(0 -0 1.29081e-06)
(0 -0 1.43825e-06)
(0 -0 1.54015e-06)
(0 -0 1.5942e-06)
(0 -0 1.58814e-06)
(0 -0 1.47134e-06)
(0 -0 1.05325e-06)
(0 -0 -3.59536e-07)
(0 -0 -5.26881e-06)
(0 -0 -2.26987e-05)
(0 -0 -8.52653e-05)
(0 -1.70794e-22 -0.000315988)
(0 -0 -1.28233e-05)
(0 -0 -1.15366e-05)
(0 -0 -1.02037e-05)
(0 -0 -9.45833e-06)
(0 -0 -8.96165e-06)
(0 -0 -8.44423e-06)
(0 -0 -7.91016e-06)
(0 -0 -7.36175e-06)
(0 -0 -6.8015e-06)
(0 -0 -6.2322e-06)
(0 -0 -5.65696e-06)
(0 -0 -5.07929e-06)
(0 -0 -4.50289e-06)
(0 -0 -3.93173e-06)
(0 -0 -3.37006e-06)
(0 -0 -2.82241e-06)
(0 -0 -2.29338e-06)
(0 -0 -1.78765e-06)
(0 -0 -1.3097e-06)
(0 -0 -8.63807e-07)
(0 -0 -4.53657e-07)
(0 -0 -8.25257e-08)
(0 -0 2.47285e-07)
(0 -0 5.34161e-07)
(0 -0 7.76772e-07)
(0 -0 9.72178e-07)
(0 -0 1.10937e-06)
(0 -0 1.1456e-06)
(0 -0 9.22986e-07)
(0 -0 -1.29215e-07)
(0 -0 -4.05896e-06)
(0 -0 -1.82152e-05)
(0 -0 -6.9017e-05)
(0 -5.93758e-23 -0.000254934)
(0 -0 -1.60724e-05)
(0 -0 -1.47457e-05)
(0 -0 -1.33683e-05)
(0 -0 -1.25751e-05)
(0 -0 -1.20273e-05)
(0 -0 -1.1455e-05)
(0 -0 -1.08619e-05)
(0 -0 -1.02502e-05)
(0 -0 -9.62201e-06)
(0 -0 -8.97975e-06)
(0 -0 -8.32629e-06)
(0 -0 -7.66469e-06)
(0 -0 -6.99841e-06)
(0 -0 -6.33118e-06)
(0 -0 -5.66705e-06)
(0 -0 -5.01044e-06)
(0 -0 -4.36594e-06)
(0 -0 -3.73832e-06)
(0 -0 -3.13235e-06)
(0 -0 -2.55275e-06)
(0 -0 -2.00382e-06)
(0 -0 -1.48954e-06)
(0 -0 -1.01314e-06)
(0 -0 -5.77421e-07)
(0 -0 -1.84805e-07)
(0 -0 1.61047e-07)
(0 -0 4.5001e-07)
(0 -0 6.46324e-07)
(0 -0 6.2151e-07)
(0 -0 -8.34814e-08)
(0 -0 -3.1033e-06)
(0 -0 -1.42612e-05)
(0 -0 -5.43401e-05)
(0 5.9841e-23 -0.000199761)
(0 -0 -1.96418e-05)
(0 -0 -1.82751e-05)
(0 -0 -1.68528e-05)
(0 -0 -1.60106e-05)
(0 -0 -1.54101e-05)
(0 -0 -1.4781e-05)
(0 -0 -1.41268e-05)
(0 -0 -1.34493e-05)
(0 -0 -1.27502e-05)
(0 -0 -1.20316e-05)
(0 -0 -1.1296e-05)
(0 -0 -1.05461e-05)
(0 -0 -9.78515e-06)
(0 -0 -9.0165e-06)
(0 -0 -8.2441e-06)
(0 -0 -7.47222e-06)
(0 -0 -6.70544e-06)
(0 -0 -5.94867e-06)
(0 -0 -5.20708e-06)
(0 -0 -4.48571e-06)